Title

82 atoms
87 bonds
154 angles
267 dihedrals
78 impropers

9 atom types
13 bond types
6 angle types
13 dihedral types
2 improper types
-8.088999748 91.91100025 xlo xhi
-10.18400002 89.81599998 ylo yhi
-8.121999741 91.87800026 zlo zhi
0.0 0.0 0.0 xy xz yz

Masses

1	15.99943
2	12.01078
3	1.007947
4	12.01078
5	1.007947
6	15.99943
7	15.99943
8	1.007947
9	35.4532


Pair Coeffs

1	0.16846514	3.0251065
2	0.086879315	3.4806469
3	0.015611343	2.5725815
4	0.10884061	3.3795318
5	0.015779483	2.6445434
6	0.2102061	3.0398122
7	0.20947353	2.99716
8	1.2326e-05	0.53453923
9	0.2656001	3.3075278

Bond Coeffs

1 harmonic	425.69104206635	1.362945806494
2 harmonic	300.03137914615	1.451203938761
3 harmonic	360.7852444772	1.387193227181
4 harmonic	397.2545789619	1.085358495916
5 harmonic	289.73813263395	1.498646816465
6 harmonic	264.62148576755	1.52190126495
7 harmonic	301.15400723785	1.345741232799
8 harmonic	370.04670688625	1.093899492634
9 harmonic	582.698766451	1.225198386222
10 harmonic	279.1350963404	1.454628925034
11 harmonic	385.7604595587	1.369745182308
12 harmonic	543.5267831885	0.9716763312559
13 harmonic	218.0227703685	1.746066037062


Angle Coeffs

1 harmonic	57.8982893754	126.8062420451
2 harmonic	65.09061609600001	110.3538806181
3 harmonic	34.066775159195	129.1835929926
4 harmonic	53.20531626545	116.5475862634
5 harmonic	201.41175231035	127.4691416191
6 harmonic	48.776492647595	115.6030999533


Dihedral Coeffs

1 fourier 1	3.661930099076	2	180
2 fourier 1	1.532232714475	2	180
3 fourier 1	0.457973137376	1	0
4 fourier 1	0.02664938770063	3	0
5 fourier 1	0.1155372516788	3	0
6 fourier 1	0.1040663847541	3	0
7 fourier 1	0.09223874044423	3	0
8 fourier 1	0.3159935921949	2	180
9 fourier 1	0.3247796806857	1	180
10 fourier 1	2.779853741805	2	180
11 fourier 1	0.9974165607242	2	180
12 fourier 1	0.1911926717192	3	0
13 fourier 1	0.8283030590042	2	180


Improper Coeffs

1 0.3666666666666667	-1	2
2 3.5	-1	2


Atoms

1	1	1	-0.030766999	-4.2859998	-2.971	1.785
2	1	2	0.27457699	-3.2720001	-2.145	1.306
3	1	2	-0.313173	-2.1900001	-1.918	2.0550001
4	1	3	0.220791	-2.099	-2.3699999	3.0339999
5	1	2	-0.185461	-1.11	-1.044	1.5549999
6	1	3	0.20830099	-0.257	-0.87	2.1989999
7	1	2	-0.19701201	-1.177	-0.47499999	0.329
8	1	4	0.012397	-0.030999999	0.45500001	-0.134
9	1	2	-0.19701201	1.306	-0.30700001	0.025
10	1	2	-0.187895	1.441	-1.528	-0.54299998
11	1	3	0.20830099	0.61900002	-1.98	-1.085
12	1	2	-0.26746899	2.7049999	-2.2839999	-0.44400001
13	1	3	0.22106101	2.773	-3.2650001	-0.89700001
14	1	2	0.43577501	3.756	-1.758	0.198
15	1	1	-0.44361201	4.9559999	-2.4579999	0.301
16	1	2	-0.26746899	3.6440001	-0.41800001	0.80199999
17	1	3	0.22106101	4.4970002	0.013	1.311
18	1	2	-0.187896	2.4979999	0.271	0.72000003
19	1	3	0.20830099	2.474	1.25	1.171
20	1	4	-0.131789	-0.122	1.743	0.75999999
21	1	5	0.104372	-1.188	1.966	0.99599999
22	1	5	0.104372	0.36000001	1.59	1.749
23	1	4	-0.131566	0.44499999	2.993	0.068999998
24	1	5	0.105384	0.419	3.852	0.77399999
25	1	5	0.105384	1.506	2.822	-0.20999999
26	1	4	-0.153228	-0.35800001	3.346	-1.198
27	1	5	0.10825	-1.171	4.0570002	-0.935
28	1	5	0.10825	0.31600001	3.865	-1.914
29	1	4	-0.131566	-0.98100001	2.1140001	-1.882
30	1	5	0.105384	-2.0050001	1.957	-1.483
31	1	5	0.105384	-1.074	2.3039999	-2.973
32	1	4	-0.131789	-0.131	0.85500002	-1.65
33	1	5	0.104372	0.884	1.08	-2.0510001
34	1	5	0.104372	-0.50099999	0.013	-2.273
35	1	2	-0.185461	-2.4059999	-0.727	-0.48699999
36	1	3	0.20830099	-2.543	-0.285	-1.461
37	1	2	-0.313173	-3.385	-1.516	-0.025
38	1	3	0.220791	-4.2659998	-1.6900001	-0.62900001
39	1	2	0.62649399	5.0760002	-3.4130001	-0.116
40	1	6	-0.508322	6.0549998	-4.0830002	0.167
41	1	1	-0.030766999	-5.1160002	-3.1559999	1.235
42	1	2	0.27457699	-5.0669999	-3.9809999	0.114
43	1	2	-0.313173	-6.178	-4.2090001	-0.59200001
44	1	3	0.220791	-7.1160002	-3.756	-0.29499999
45	1	2	-0.185461	-6.1370001	-5.0819998	-1.7819999
46	1	3	0.20830099	-7.0619998	-5.256	-2.3180001
47	1	2	-0.19701201	-4.9809999	-5.651	-2.1960001
48	1	4	0.012397	-4.9990001	-6.5819998	-3.4319999
49	1	2	-0.19701201	-5.664	-5.8200002	-4.6020002
50	1	2	-0.147756	-5.1939998	-4.599	-4.947
51	1	3	0.20830099	-4.375	-4.1469998	-4.4000001
52	1	2	-0.408811	-5.776	-3.8429999	-6.073
53	1	3	0.225471	-5.3850002	-2.862	-6.3119998
54	1	2	0.423143	-6.7750001	-4.369	-6.7919998
55	1	7	-0.65205598	-7.3369999	-3.6689999	-7.8590002
56	1	8	0.43169701	-7.0100002	-2.7460001	-8.1219997
57	1	2	-0.408811	-7.289	-5.7090001	-6.4549999
58	1	3	0.225471	-8.0889997	-6.1399999	-7.0440001
59	1	2	-0.147756	-6.7680001	-6.3979998	-5.4310002
60	1	3	0.20830099	-7.1750002	-7.3769999	-5.2340002
61	1	4	-0.131789	-5.7880001	-7.8699999	-3.0009999
62	1	5	0.104372	-5.5910001	-8.0930004	-1.927
63	1	5	0.104372	-6.8860002	-7.717	-3.0610001
64	1	4	-0.131566	-5.3709998	-9.1199999	-3.7909999
65	1	5	0.105384	-6.0110002	-9.9779997	-3.494
66	1	5	0.105384	-5.526	-8.9490004	-4.8769999
67	1	4	-0.153228	-3.892	-9.4729996	-3.5439999
68	1	5	0.10825	-3.819	-10.184	-2.6919999
69	1	5	0.10825	-3.494	-9.9919996	-4.4429998
70	1	4	-0.131566	-3.0190001	-8.2410002	-3.2349999
71	1	5	0.105384	-2.99	-8.0839996	-2.1359999
72	1	5	0.105384	-1.978	-8.4309998	-3.573
73	1	4	-0.131789	-3.563	-6.9819999	-3.928
74	1	5	0.104372	-3.5880001	-7.2069998	-5.0190001
75	1	5	0.104372	-2.845	-6.1399999	-3.8299999
76	1	2	-0.185461	-3.7520001	-5.4000001	-1.38
77	1	3	0.20830099	-2.8010001	-5.842	-1.632
78	1	2	-0.313173	-3.7969999	-4.6110001	-0.29899999
79	1	3	0.220791	-2.898	-4.4369998	0.27900001
80	1	2	0.46603999	4.3299999	-3.8039999	-0.79799998
81	1	6	-0.58820897	3.309	-3.1730001	-1.013
82	1	9	-0.090732999	4.5910001	-5.3449998	-1.594

Bonds

1	1	1	2
2	2	1	41
3	3	2	3
4	3	2	37
5	4	3	4
6	3	3	5
7	4	5	6
8	3	5	7
9	5	7	8
10	3	7	35
11	5	8	9
12	6	8	20
13	6	8	32
14	3	9	10
15	3	9	18
16	4	10	11
17	3	10	12
18	4	12	13
19	3	12	14
20	1	14	15
21	3	14	16
22	7	15	39
23	4	16	17
24	3	16	18
25	4	18	19
26	8	20	21
27	8	20	22
28	6	20	23
29	8	23	24
30	8	23	25
31	6	23	26
32	8	26	27
33	8	26	28
34	6	26	29
35	8	29	30
36	8	29	31
37	6	29	32
38	8	32	33
39	8	32	34
40	4	35	36
41	3	35	37
42	4	37	38
43	9	39	40
44	10	39	80
45	1	41	42
46	3	42	43
47	3	42	78
48	4	43	44
49	3	43	45
50	4	45	46
51	3	45	47
52	5	47	48
53	3	47	76
54	5	48	49
55	6	48	61
56	6	48	73
57	3	49	50
58	3	49	59
59	4	50	51
60	3	50	52
61	4	52	53
62	3	52	54
63	11	54	55
64	3	54	57
65	12	55	56
66	4	57	58
67	3	57	59
68	4	59	60
69	8	61	62
70	8	61	63
71	6	61	64
72	8	64	65
73	8	64	66
74	6	64	67
75	8	67	68
76	8	67	69
77	6	67	70
78	8	70	71
79	8	70	72
80	6	70	73
81	8	73	74
82	8	73	75
83	4	76	77
84	3	76	78
85	4	78	79
86	9	80	81
87	13	80	82

Angles

1	1	9	10	12
2	1	39	80	81
3	4	47	48	73
4	4	63	61	64
5	6	71	70	72
6	1	50	52	54
7	6	33	32	34
8	3	42	78	79
9	1	43	45	47
10	4	61	64	67
11	1	52	54	55
12	1	15	39	80
13	4	23	26	29
14	3	2	37	38
15	4	47	48	49
16	4	69	67	70
17	4	31	29	32
18	4	29	32	34
19	4	20	8	32
20	6	68	67	69
21	1	15	14	16
22	2	1	41	42
23	4	47	48	61
24	2	54	55	56
25	3	42	43	44
26	4	49	48	61
27	1	42	78	76
28	4	48	73	74
29	4	7	8	32
30	6	74	73	75
31	3	17	16	18
32	3	36	35	37
33	1	2	37	35
34	1	12	14	15
35	4	8	20	23
36	6	21	20	22
37	3	3	5	6
38	4	64	67	69
39	1	40	39	80
40	4	48	73	70
41	4	49	48	73
42	4	26	29	31
43	1	41	42	78
44	1	42	43	45
45	1	48	47	76
46	3	49	59	60
47	4	61	64	65
48	1	81	80	82
49	4	48	73	75
50	3	76	78	79
51	1	48	49	50
52	3	54	57	58
53	1	3	2	37
54	4	21	20	23
55	1	39	80	82
56	3	47	76	77
57	4	64	67	70
58	4	20	23	24
59	4	71	70	73
60	4	26	29	32
61	1	41	42	43
62	3	16	18	19
63	3	4	3	5
64	4	7	8	20
65	3	11	10	12
66	6	30	29	31
67	4	48	61	62
68	4	9	8	32
69	1	5	7	35
70	1	47	76	78
71	4	20	23	25
72	1	1	2	37
73	3	49	50	51
74	4	68	67	70
75	4	67	70	71
76	1	52	54	57
77	3	9	18	19
78	3	7	35	36
79	3	77	76	78
80	2	14	15	39
81	1	48	49	59
82	1	49	50	52
83	4	23	26	27
84	1	55	54	57
85	4	8	32	33
86	3	57	59	60
87	1	10	9	18
88	3	14	16	17
89	1	12	14	16
90	1	8	9	10
91	1	3	5	7
92	4	9	8	20
93	3	50	52	53
94	1	7	35	37
95	4	8	32	29
96	3	43	45	46
97	4	61	64	66
98	1	9	18	16
99	4	23	26	28
100	4	72	70	73
101	1	54	57	59
102	1	8	9	18
103	3	10	12	13
104	1	14	16	18
105	1	49	59	57
106	3	35	37	38
107	4	70	73	74
108	3	2	3	4
109	1	45	47	48
110	4	29	32	33
111	3	51	50	52
112	3	13	12	14
113	4	30	29	32
114	4	8	20	21
115	3	44	43	45
116	4	48	61	63
117	4	61	48	73
118	1	43	42	78
119	3	6	5	7
120	2	2	1	41
121	1	10	12	14
122	4	70	73	75
123	1	2	3	5
124	3	58	57	59
125	4	20	23	26
126	5	15	39	40
127	4	7	8	9
128	3	46	45	47
129	6	62	61	63
130	6	65	64	66
131	1	45	47	76
132	4	66	64	67
133	6	27	26	28
134	6	24	23	25
135	4	67	70	72
136	1	5	7	8
137	4	8	20	22
138	4	28	26	29
139	3	9	10	11
140	4	27	26	29
141	4	48	61	64
142	1	50	49	59
143	4	64	67	68
144	4	26	29	30
145	1	8	7	35
146	3	53	52	54
147	4	22	20	23
148	1	1	2	3
149	4	25	23	26
150	4	62	61	64
151	4	65	64	67
152	4	8	32	34
153	4	24	23	26
154	4	67	70	73

Dihedrals

1	12	62	61	64	65
2	1	7	35	37	38
3	4	10	9	8	20
4	1	46	45	47	76
5	12	25	23	26	28
6	11	40	39	80	81
7	7	23	20	8	32
7	8	23	20	8	32
7	9	23	20	8	32
8	1	53	52	54	55
9	1	9	10	12	13
10	2	1	41	42	43
11	1	15	14	16	17
12	4	9	8	7	35
13	1	13	12	14	15
14	12	31	29	32	33
15	4	47	48	49	59
16	12	30	29	32	33
17	6	63	61	64	67
18	5	7	8	20	23
19	6	24	23	26	29
20	12	22	20	23	25
21	6	68	67	70	73
22	4	10	9	8	32
23	1	41	42	78	76
24	1	10	9	18	19
25	4	73	48	47	76
26	10	14	15	39	80
27	1	47	76	78	79
28	1	3	5	7	8
29	2	3	2	1	41
30	6	25	23	26	29
31	1	52	54	57	58
32	1	8	7	35	36
33	1	49	50	52	53
34	1	15	14	16	18
35	1	13	12	14	16
36	2	14	15	39	40
37	12	30	29	32	34
38	1	1	2	3	4
39	1	51	50	52	53
40	1	11	10	9	18
41	4	18	9	8	32
42	1	5	7	35	37
43	6	22	20	8	32
44	6	22	20	23	26
45	5	9	8	20	21
46	12	27	26	29	31
47	1	1	2	37	38
48	1	50	49	59	57
49	7	64	61	48	73
49	8	64	61	48	73
49	9	64	61	48	73
50	12	66	64	67	69
51	1	4	3	5	6
52	5	47	48	73	74
53	1	48	47	76	77
54	6	23	26	29	31
55	6	64	67	70	72
56	1	52	54	57	59
57	6	20	23	26	27
58	4	7	8	9	10
59	1	8	7	35	37
60	12	21	20	23	24
61	1	8	9	10	12
62	1	36	35	37	38
63	1	42	43	45	47
64	6	21	20	8	32
65	5	47	48	73	70
66	1	10	9	18	16
67	6	8	20	23	25
68	1	1	2	3	5
69	1	45	47	76	78
70	1	4	3	2	37
71	1	11	10	12	13
72	6	66	64	67	70
73	5	9	8	20	22
74	6	27	26	29	32
75	1	44	43	42	78
76	1	58	57	59	60
77	1	48	47	76	78
78	7	23	26	29	32
78	8	23	26	29	32
78	9	23	26	29	32
79	7	64	67	70	73
79	8	64	67	70	73
79	9	64	67	70	73
80	4	7	8	9	18
81	11	15	39	80	81
82	6	67	70	73	75
83	4	50	49	48	61
84	5	47	48	61	62
85	1	2	37	35	7
86	6	63	61	48	73
87	1	6	5	7	35
88	4	18	9	8	20
89	12	62	61	64	66
90	1	9	18	16	17
91	4	5	7	8	9
92	4	49	48	47	76
93	1	3	2	37	38
94	2	37	2	1	41
95	11	40	39	80	82
96	13	56	55	54	57
97	1	42	78	76	47
98	1	45	43	42	78
99	1	48	49	50	51
100	1	2	37	35	36
101	6	48	73	70	71
102	4	61	48	47	76
103	1	9	10	12	14
104	4	50	49	48	73
105	12	28	26	29	30
106	12	31	29	32	34
107	12	69	67	70	71
108	7	48	73	70	67
108	8	48	73	70	67
108	9	48	73	70	67
109	1	48	49	59	60
110	5	7	8	32	33
111	1	55	54	57	58
112	6	48	61	64	65
113	12	65	64	67	68
114	1	52	50	49	59
115	1	12	14	16	17
116	6	20	8	32	33
117	6	48	73	70	72
118	1	53	52	54	57
119	6	61	64	67	68
120	4	45	47	48	61
121	1	49	50	52	54
122	5	49	48	61	62
123	5	7	8	32	29
124	3	2	1	41	42
125	1	50	52	54	55
126	12	28	26	29	31
127	4	59	49	48	61
128	6	8	32	29	30
129	1	51	50	52	54
130	1	5	3	2	37
131	1	17	16	18	19
132	1	3	2	37	35
133	7	20	8	32	29
133	8	20	8	32	29
133	9	20	8	32	29
134	5	9	8	32	29
135	5	7	8	32	34
136	1	4	3	5	7
137	5	47	48	73	75
138	6	48	61	64	66
139	7	8	32	29	26
139	8	8	32	29	26
139	9	8	32	29	26
140	12	63	61	64	65
141	6	20	23	26	28
142	5	49	48	73	74
143	4	45	47	48	73
144	5	7	8	20	21
145	6	61	48	73	74
146	6	61	64	67	69
147	12	24	23	26	27
148	12	21	20	23	25
149	1	43	45	47	76
150	4	59	49	48	73
151	1	43	42	78	79
152	1	1	2	37	35
153	1	48	49	59	57
154	5	49	48	61	63
155	12	68	67	70	71
156	1	77	76	78	79
157	7	8	20	23	26
157	8	8	20	23	26
157	9	8	20	23	26
158	4	32	8	7	35
159	12	25	23	26	27
160	5	49	48	73	70
161	1	11	10	12	14
162	7	61	48	73	70
162	8	61	48	73	70
162	9	61	48	73	70
163	5	9	8	20	23
164	4	5	7	8	20
165	11	15	39	80	82
166	1	44	43	45	46
167	4	45	47	48	49
168	1	2	3	5	6
169	1	51	50	49	59
170	12	63	61	64	66
171	1	3	5	7	35
172	7	20	23	26	29
172	8	20	23	26	29
172	9	20	23	26	29
173	5	49	48	73	75
174	5	7	8	20	22
175	6	61	48	73	75
176	5	47	48	61	63
177	12	24	23	26	28
178	12	22	20	23	24
179	1	42	78	76	77
180	1	8	9	18	19
181	6	26	29	32	33
182	6	62	61	64	67
183	1	43	45	47	48
184	4	5	7	8	32
185	1	48	49	50	52
186	4	20	8	7	35
187	1	50	49	59	60
188	6	62	61	48	73
189	5	9	8	32	33
190	1	6	5	7	8
191	1	43	42	78	76
192	1	14	16	18	19
193	1	44	43	45	47
194	1	2	3	5	7
195	1	9	18	16	14
196	1	41	42	43	44
197	12	69	67	70	72
198	4	47	48	49	50
199	5	47	48	61	64
200	1	5	7	35	36
201	12	66	64	67	68
202	12	72	70	73	74
203	12	72	70	73	75
204	12	27	26	29	30
205	12	71	70	73	74
206	6	26	29	32	34
207	6	23	26	29	30
208	6	64	67	70	71
209	1	55	54	57	59
210	12	65	64	67	69
211	1	12	14	16	18
212	6	20	8	32	34
213	5	9	8	32	34
214	1	8	9	10	11
215	1	42	43	45	46
216	1	10	12	14	15
217	1	8	9	18	16
218	6	28	26	29	32
219	1	12	10	9	18
220	6	8	32	29	31
221	1	46	45	47	48
222	6	8	20	23	24
223	1	41	42	43	45
224	1	49	59	57	58
225	1	54	57	59	60
226	12	68	67	70	72
227	6	69	67	70	73
228	1	45	47	76	77
229	1	41	42	78	79
230	12	71	70	73	75
231	2	1	41	42	78
232	6	67	70	73	74
233	7	48	61	64	67
233	8	48	61	64	67
233	9	48	61	64	67
234	1	49	59	57	54
235	13	52	54	55	56
236	6	65	64	67	70
237	7	61	64	67	70
237	8	61	64	67	70
237	9	61	64	67	70
238	6	21	20	23	26
239	1	10	12	14	16
240	5	49	48	61	64
241	2	16	14	15	39
242	1	50	52	54	57
243	2	12	14	15	39

Impropers

14	1	3	4	5	2
26	1	43	42	44	45
31	1	80	82	39	81
32	2	39	80	15	40
36	1	16	18	14	17
37	1	14	16	12	15
52	1	5	7	3	6
54	1	45	46	47	43
60	1	59	49	57	60
69	1	9	8	10	18
70	1	2	37	1	3
79	1	10	9	11	12
82	1	18	16	19	9
83	1	14	15	16	12
84	1	43	44	45	42
88	1	50	49	51	52
96	2	39	15	40	80
99	1	52	54	50	53
105	1	43	45	42	44
120	1	59	60	49	57
121	1	45	47	43	46
122	1	57	59	54	58
132	1	54	52	55	57
142	1	7	8	35	5
159	1	47	76	45	48
161	1	18	19	9	16
163	2	39	40	80	15
172	1	16	17	18	14
173	1	76	47	77	78
174	1	10	11	12	9
176	1	49	48	50	59
178	1	76	77	78	47
183	1	80	81	82	39
195	1	80	39	81	82
197	1	49	59	48	50
198	1	12	13	14	10
200	1	18	9	16	19
207	1	37	2	35	38
211	1	42	43	78	41
212	1	57	58	59	54
220	1	52	53	54	50
231	1	54	55	57	52
244	1	78	42	76	79
245	1	37	38	2	35
248	1	5	3	6	7
249	1	12	10	13	14
256	1	5	6	7	3
261	1	57	54	58	59
262	1	78	79	42	76
267	1	3	5	2	4
287	1	9	10	18	8
295	1	50	52	49	51
297	1	76	78	47	77
301	1	35	36	37	7
307	1	7	35	5	8
309	1	35	37	7	36
315	1	9	18	8	10
316	1	12	14	10	13
324	1	3	2	4	5
326	1	45	43	46	47
329	1	49	50	59	48
331	1	54	57	52	55
336	1	52	50	53	54
339	1	37	35	38	2
347	1	42	41	43	78
349	1	35	7	36	37
351	1	10	12	9	11
353	1	47	48	76	45
359	1	50	51	52	49
360	1	42	78	41	43
369	1	2	1	3	37
378	1	78	76	79	42
384	1	47	45	48	76
387	1	2	3	37	1
396	1	7	5	8	35
409	1	59	57	60	49
427	1	16	14	17	18
434	1	14	12	15	16
