Title

14000 atoms
14125 bonds
27000 angles
55250 dihedrals
2250 impropers

11 atom types
14 bond types
9 angle types
35 dihedral types
3 improper types
-8.876479086 90.33903612 xlo xhi
-8.462903063 90.14690018 ylo yhi
-8.619498468 89.93494803 zlo zhi
0.0 0.0 0.0 xy xz yz

Masses

1	12.01078
2	15.99943
3	14.00672
4	12.01078
5	1.007947
6	1.007947
7	1.007947
8	15.99943
9	12.01078
10	15.99943
11	1.007947


Pair Coeffs

1	0.086879315	3.4806469
2	0.2102061	3.0398122
3	0.16769152	3.206876
4	0.10884061	3.3795318
5	0.015779483	2.6445434
6	0.014090815	1.1034277
7	0.016409246	2.5832257
8	0.16846514	3.0251065
9	0.21	3.3996695
10	0.20947353	2.99716
11	1.2326e-05	0.53453923

Bond Coeffs

1 harmonic	582.698766451	1.225198386222
2 harmonic	492.76746816345	1.381897776683
3 harmonic	279.1350963404	1.454628925034
4 harmonic	352.0565580496	1.450098586273
5 harmonic	505.144496193	1.019481865027
6 harmonic	264.62148576755	1.52190126495
7 harmonic	370.04670688625	1.093899492634
8 harmonic	301.15400723785	1.345741232799
9 harmonic	366.7408841747	1.425895053732
10 harmonic	300.03137914615	1.451203938761
11 harmonic	366.34047229585	1.464762957261
12 harmonic	602.81384337	1.196112346392
13 harmonic	329.96998057905	1.427343958716
14 harmonic	543.5267831885	0.9716763312559


Angle Coeffs

1 harmonic	55.42182150775	117.3465570514
2 harmonic	63.44422595415	115.5071327674
3 harmonic	57.8982893754	126.8062420451
4 harmonic	53.20531626545	116.5475862634
5 harmonic	48.776492647595	115.6030999533
6 harmonic	65.09061609600001	110.3538806181
7 harmonic	201.41175231035	127.4691416191
8 harmonic	55.07882548015	112.8714009681
9 harmonic	33.56981613361	180


Dihedral Coeffs

1 fourier 1	-0.1488678166443	4	180
2 fourier 1	-0.1230328948768	3	180
3 fourier 1	0.2939295466901	2	0
4 fourier 1	-0.3024127022865	1	0
5 fourier 1	0.182238503271	2	0
6 fourier 1	0.02972342374561	3	0
7 fourier 1	1.809047390003	2	180
8 fourier 1	-0.04816277792592	1	0
9 fourier 1	3.101948770557	2	180
10 fourier 1	-0.4252153282372	1	0
11 fourier 1	2.348375642009	2	180
12 fourier 1	1.256156174911	1	0
13 fourier 1	0.9974165607242	2	180
14 fourier 1	0.1155372516788	3	0
15 fourier 1	0.1040663847541	3	0
16 fourier 1	0.09223874044423	3	0
17 fourier 1	0.3159935921949	2	180
18 fourier 1	0.3247796806857	1	180
19 fourier 1	0.1911926717192	3	0
20 fourier 1	2.779853741805	2	180
21 fourier 1	0.1918272375143	3	0
22 fourier 1	0.9202179876409	1	180
23 fourier 1	0.0473758381877	3	0
24 fourier 1	0.4860993122944	2	180
25 fourier 1	0.8916986138746	1	0
26 fourier 1	1.163809172478	2	180
27 fourier 1	0.1679186987369	1	180
28 fourier 1	0.1115525666802	3	0
29 fourier 1	0.3432490222662	1	0
30 fourier 1	0.457973137376	1	0
31 fourier 1	-1.382973039546	1	0
32 fourier 1	0	1	0
33 fourier 1	0.3445382149273	3	0
34 fourier 1	0.1364556373303	1	0
35 fourier 1	0.3026390167484	3	0


Improper Coeffs

1 0.3333333333333333	-1	2
2 0.3666666666666667	-1	2
3 3.5	-1	2


Atoms

1	6	1	0.54276122	-2.9137413	1.0594809	-1.550051
2	6	2	-0.69160103	-4.0999237	1.2808042	-1.9106066
3	6	3	-0.49039282	-2.3521192	1.7334608	-0.4204911
4	6	4	-0.00066724314	-3.1398174	2.6937656	0.36210801
5	6	4	-0.0087548307	-2.333896	3.3868763	1.5080667
6	6	4	-0.1703007	-1.1155684	4.112414	0.87506211
7	6	5	0.07193784	-1.4502764	4.8240994	0.089749784
8	6	5	0.07193784	-0.55081045	4.6881663	1.6406983
9	6	5	0.07193784	-0.39710495	3.4016097	0.42077091
10	6	4	-0.20553302	-1.809434	2.3735204	2.5623871
11	6	5	0.11077705	-1.2659157	1.5389263	2.0723714
12	6	5	0.11077705	-1.070491	2.8838627	3.2218013
13	6	4	0.12762485	-2.9208334	1.7900646	3.4514095
14	6	3	-0.51815634	-2.3457772	0.84394035	4.4147896
15	6	1	0.80865736	-3.1400863	-0.12075745	5.1136481
16	6	2	-0.6091197	-4.380874	-0.20648334	4.9127454
17	6	6	0.31490184	-1.3147878	0.83606501	4.5878989
18	6	7	0.045238081	-3.6334883	1.2322557	2.8097957
19	6	4	-0.20914528	-3.6406259	2.9210819	4.2070448
20	6	5	0.11232014	-2.9039472	3.4011213	4.890905
21	6	5	0.11232014	-4.4411808	2.4896989	4.8493232
22	6	4	-0.028478346	-4.2547538	3.9930866	3.2695205
23	6	4	-0.17206572	-4.65525	5.2145087	4.1334973
24	6	5	0.075003202	-5.1186575	6.0035463	3.5026714
25	6	5	0.075003202	-3.7713159	5.6532214	4.6447367
26	6	5	0.075003202	-5.3852627	4.9224614	4.9201756
27	6	4	-0.17206572	-5.555398	3.4648583	2.609212
28	6	5	0.075003202	-5.4789754	2.4127635	2.284027
29	6	5	0.075003202	-5.8446325	4.0934518	1.7397158
30	6	5	0.075003202	-6.3996299	3.4803127	3.3322221
31	6	4	-0.21133921	-3.206316	4.477253	2.2144456
32	6	5	0.11250371	-2.507353	5.1634299	2.7461814
33	6	5	0.11250371	-3.7077358	5.1117622	1.4499895
34	6	7	0.06899451	-3.5284817	3.4741029	-0.32763956
35	6	7	0.06899451	-4.0132046	2.1553244	0.75820756
36	6	6	0.31568633	-1.3705056	1.4922414	-0.16789253
37	7	8	-0.49890899	-2.6888105	-0.76285259	5.7916518
38	7	4	0.11753124	-1.8284322	-1.5869034	5.0520232
39	7	4	-0.1386405	-0.56002718	-0.81977897	4.6701676
40	7	4	-0.14102732	0.41673248	-1.7192603	3.8976814
41	7	4	-0.13980739	1.6444415	-0.95246181	3.3803424
42	7	4	-0.14462805	2.6028785	-0.54106879	4.5102036
43	7	4	0.035979557	3.8888173	0.079419037	3.9606391
44	7	8	-0.16739913	3.5995437	1.2774983	3.2935882
45	7	7	0.086054186	4.387773	-0.63386937	3.2662142
46	7	7	0.086054186	4.5789843	0.28529073	4.8093772
47	7	5	0.092837039	2.1130677	0.19592054	5.1804492
48	7	5	0.092837039	2.8731141	-1.4361178	5.1119918
49	7	5	0.087777118	2.1881052	-1.6154593	2.6724263
50	7	5	0.087777118	1.3146174	-0.054453117	2.8143376
51	7	5	0.087599333	0.74461811	-2.5639851	4.542851
52	7	5	0.087599333	-0.11195094	-2.1516649	3.0201877
53	7	5	0.091724093	-0.83989829	0.053514186	4.0408869
54	7	5	0.091724093	-0.078423549	-0.44754286	5.5990444
55	7	7	0.086061294	-1.5563116	-2.463229	5.6787088
56	7	7	0.086061294	-2.3454279	-1.9627842	4.1398533
57	4	1	0.55542434	-2.3136305	0.34889088	-2.1027425
58	4	2	-0.68095313	-1.8781492	-0.67881311	-1.5188575
59	4	3	-0.5691561	-2.0200727	0.59241113	-3.4828829
60	4	4	0.12546475	-1.2224108	-0.33478572	-4.2953918
61	4	7	0.043123986	-0.35245804	-0.65351006	-3.6881118
62	4	4	-0.21025132	-2.0813067	-1.554096	-4.6782943
63	4	5	0.11232015	-2.4302164	-2.0670439	-3.7551516
64	4	5	0.11232015	-2.9904062	-1.1819655	-5.2033228
65	4	4	-0.029012044	-1.3395814	-2.5716881	-5.5841884
66	4	4	-0.17206571	-2.3816638	-3.5756905	-6.1324488
67	4	5	0.075003217	-1.8912866	-4.3333585	-6.7817642
68	4	5	0.075003217	-2.8966105	-4.1076424	-5.3031388
69	4	5	0.075003217	-3.1607977	-3.0584874	-6.7342422
70	4	4	-0.17206571	-0.31045964	-3.3933183	-4.7682895
71	4	5	0.075003217	0.32433588	-2.7693172	-4.1202322
72	4	5	0.075003217	-0.8290738	-4.1010585	-4.0863736
73	4	5	0.075003217	0.34229193	-3.9876312	-5.442975
74	4	4	-0.21001085	-0.68167904	-1.8496161	-6.8013373
75	4	5	0.11119046	-1.5046175	-1.5806555	-7.5024374
76	4	5	0.11119046	-0.046889233	-2.5660498	-7.3659962
77	4	4	0.024094573	0.11049331	-0.53350998	-6.5041292
78	4	4	-0.16882681	0.30411584	0.2212364	-7.8440853
79	4	5	0.068528521	0.8571694	1.1726671	-7.6867022
80	4	5	0.068528521	0.87458716	-0.39965461	-8.5687465
81	4	5	0.068528521	-0.67408972	0.47306812	-8.3080763
82	4	4	0.14294707	1.5270187	-0.78760959	-5.9084698
83	4	3	-0.63144087	2.2757463	-1.7509363	-6.7091011
84	4	9	0.6003495	3.4622422	-2.0881197	-6.3975183
85	4	2	-0.47139772	4.6165326	-2.4157296	-6.0941909
86	4	7	0.067957218	1.4843815	-1.1370231	-4.8642005
87	4	7	0.067957218	2.0922072	0.17181164	-5.8775853
88	4	4	-0.20659784	-0.71754784	0.38121172	-5.5616532
89	4	5	0.11065261	-1.6019126	0.77396865	-6.1129825
90	4	5	0.11065261	-0.10711402	1.2620542	-5.2611834
91	4	6	0.31181259	-2.3669312	1.4866379	-3.8980318
92	5	8	-0.16739913	4.4685009	1.6226653	2.9593065
93	5	4	0.035979557	5.4466354	0.70268941	3.3611252
94	5	4	-0.14462805	5.4015752	-0.54186913	2.4707238
95	5	4	-0.13975536	6.4976766	-1.5427989	2.8645239
96	5	4	-0.13566006	6.4026953	-2.8621439	2.0818994
97	5	4	-0.16655197	6.8005721	-2.7035691	0.60583809
98	5	4	0.089298266	6.8503921	-4.053478	-0.11343444
99	5	10	-0.68033247	5.571576	-4.623799	-0.15548681
100	5	11	0.38448955	5.6735621	-5.4919999	-0.62624155
101	5	7	0.077259782	7.55759	-4.7349876	0.4104384
102	5	7	0.077259782	7.2189801	-3.8927099	-1.1508497
103	5	5	0.095192964	6.0744271	-2.0485462	0.080103051
104	5	5	0.095192964	7.805586	-2.2331273	0.54114089
105	5	5	0.087777118	7.0887039	-3.5947578	2.5623055
106	5	5	0.087777118	5.370237	-3.2692546	2.1576403
107	5	5	0.087777118	7.5007648	-1.0863141	2.7139926
108	5	5	0.087777118	6.3938987	-1.7787079	3.9464301
109	5	5	0.092837039	4.403611	-1.0223778	2.5692878
110	5	5	0.092837039	5.539755	-0.22511808	1.4151059
111	5	7	0.086054186	6.4432537	1.1874032	3.2701444
112	5	7	0.086054186	5.2968809	0.42176864	4.4287104
113	6	1	0.54276122	0.82347775	-3.1963353	16.797138
114	6	2	-0.69160103	1.0394731	-4.4315358	16.680353
115	6	3	-0.49039282	-0.50375848	-2.6714247	16.705013
116	6	4	-0.00066724314	-1.6571877	-3.552309	16.484199
117	6	4	-0.0087548307	-3.0138245	-2.790948	16.332545
118	6	4	-0.1703007	-2.8849117	-1.8007619	15.143287
119	6	5	0.07193784	-2.5850135	-2.3390456	14.218326
120	6	5	0.07193784	-3.851228	-1.2881359	14.943066
121	6	5	0.07193784	-2.1403504	-1.004703	15.342615
122	6	4	-0.20553302	-3.3876235	-1.9837566	17.606224
123	6	5	0.11077705	-2.5436476	-1.3380349	17.926884
124	6	5	0.11077705	-4.2330674	-1.2983999	17.367846
125	6	4	0.12762485	-3.8112852	-2.8727991	18.787792
126	6	3	-0.51815634	-4.1443305	-2.0377431	19.947837
127	6	1	0.80865736	-4.2125988	-2.5614406	21.278646
128	6	2	-0.6091197	-3.969353	-3.7756596	21.510527
129	6	6	0.31490184	-4.3100322	-1.0129798	19.823857
130	6	7	0.045238081	-2.9565481	-3.5216418	19.069082
131	6	4	-0.20914528	-5.0332095	-3.7228529	18.397158
132	6	5	0.11232014	-5.8834173	-3.0315546	18.197029
133	6	5	0.11232014	-5.334144	-4.3609171	19.258444
134	6	4	-0.028478346	-4.7875723	-4.6179269	17.154659
135	6	4	-0.17206572	-6.1562211	-5.163373	16.677151
136	6	5	0.075003202	-6.0255027	-5.8277188	15.795774
137	6	5	0.075003202	-6.841222	-4.3365525	16.390244
138	6	5	0.075003202	-6.6548047	-5.745822	17.482905
139	6	4	-0.17206572	-3.9195565	-5.8485062	17.527394
140	6	5	0.075003202	-3.0907933	-5.6014607	18.213403
141	6	5	0.075003202	-3.5053614	-6.3342764	16.617845
142	6	5	0.075003202	-4.5234705	-6.6078599	18.069962
143	6	4	-0.21133921	-4.1691202	-3.7868661	15.982619
144	6	5	0.11250371	-4.9977915	-3.1865292	15.540997
145	6	5	0.11250371	-3.8426205	-4.471109	15.167986
146	6	7	0.06899451	-1.4734656	-4.1475314	15.563496
147	6	7	0.06899451	-1.6909326	-4.2640489	17.321998
148	6	6	0.31568633	-0.6130223	-1.6423548	16.825986
149	7	8	-0.49890899	-4.4605315	-1.9328568	22.065435
150	7	4	0.11753124	-3.4169829	-1.0032361	22.180207
151	7	4	-0.1386405	-3.5244988	0.051507016	21.076078
152	7	4	-0.14102732	-2.4158685	1.1062538	21.211388
153	7	4	-0.13980739	-2.4071839	2.1085422	20.045956
154	7	4	-0.14462805	-3.605132	3.0717147	20.086591
155	7	4	0.035979557	-3.493289	4.1560748	19.01313
156	7	8	-0.16739913	-3.5510616	3.5794361	17.737128
157	7	7	0.086054186	-2.5385162	4.7155924	19.136871
158	7	7	0.086054186	-4.3381828	4.8704055	19.135425
159	7	5	0.092837039	-4.5520422	2.5142749	19.928734
160	7	5	0.092837039	-3.6510794	3.5651211	21.081944
161	7	5	0.087777118	-1.46842	2.700746	20.111515
162	7	5	0.087777118	-2.3918887	1.5597401	19.079443
163	7	5	0.087599333	-2.526457	1.6503412	22.175262
164	7	5	0.087599333	-1.4307917	0.59064904	21.227215
165	7	5	0.091724093	-3.4435179	-0.44970258	20.086535
166	7	5	0.091724093	-4.520512	0.53758753	21.146771
167	7	7	0.086061294	-3.4939904	-0.50925538	23.17257
168	7	7	0.086061294	-2.4324666	-1.5216042	22.128758
169	4	1	0.55542434	1.6541556	-2.5251838	16.970541
170	4	2	-0.68095313	1.6896428	-1.8464732	18.031123
171	4	3	-0.5691561	2.6922379	-2.4155798	15.99042
172	4	4	0.12546475	3.8534268	-1.534174	16.166184
173	4	7	0.043123986	3.4860455	-0.56576503	16.559131
174	4	4	-0.21025132	4.83994	-2.1737827	17.160531
175	4	5	0.11232015	4.3333274	-2.328525	18.138511
176	4	5	0.11232015	5.1101616	-3.1829788	16.774395
177	4	4	-0.029012044	6.1293289	-1.3383641	17.374649
178	4	4	-0.17206571	7.1470034	-2.214027	18.144128
179	4	5	0.075003217	8.087006	-1.6500699	18.329839
180	4	5	0.075003217	6.7337997	-2.5361082	19.124651
181	4	5	0.075003217	7.4031847	-3.1315273	17.570309
182	4	4	-0.17206571	5.8460247	-0.097771647	18.258124
183	4	5	0.075003217	4.9526679	0.46286103	17.942014
184	4	5	0.075003217	5.6507381	-0.40340077	19.308514
185	4	5	0.075003217	6.7179689	0.59084975	18.260747
186	4	4	-0.21001085	6.7688244	-0.94991856	16.005039
187	4	5	0.11119046	7.2411044	-1.87165	15.594586
188	4	5	0.11119046	7.6119846	-0.24489778	16.169664
189	4	4	0.024094573	5.8056245	-0.40223624	14.900369
190	4	4	-0.16882681	6.5425127	-0.48511666	13.539215
191	4	5	0.068528521	5.8954745	-0.11376803	12.715019
192	4	5	0.068528521	7.4727384	0.12356372	13.555503
193	4	5	0.068528521	6.8257491	-1.5328336	13.299092
194	4	4	0.14294707	5.4020237	1.0864193	15.117007
195	4	3	-0.63144087	6.5732277	1.928126	15.339298
196	4	9	0.6003495	6.4598623	3.181378	15.526532
197	4	2	-0.47139772	6.3491805	4.4005502	15.708441
198	4	7	0.067957218	4.6995938	1.2106558	15.956986
199	4	7	0.067957218	4.8580052	1.4561528	14.217996
200	4	4	-0.20659784	4.5412327	-1.298653	14.80883
201	4	5	0.11065261	4.8223951	-2.2901519	14.386692
202	4	5	0.11065261	3.8085136	-0.84415114	14.105022
203	4	6	0.31181259	2.5817065	-2.9660682	15.108918
204	5	8	-0.16739913	-3.4679575	4.3299798	17.092342
205	5	4	0.035979557	-3.3464636	5.5007225	17.853369
206	5	4	-0.14462805	-1.9333448	5.6129866	18.431524
207	5	4	-0.13975536	-1.7650029	6.9138113	19.230206
208	5	4	-0.13566006	-0.40298102	7.0019135	19.936838
209	5	4	-0.16655197	0.75905019	7.2207545	18.955002
210	5	4	0.089298266	2.0801396	7.4621489	19.688855
211	5	10	-0.68033247	2.4444617	6.3192932	20.412426
212	5	11	0.38448955	3.2995106	6.5420906	20.865236
213	5	7	0.077259782	1.9782969	8.3337592	20.373655
214	5	7	0.077259782	2.8689094	7.693311	18.938962
215	5	5	0.095192964	0.87684321	6.3355759	18.295212
216	5	5	0.095192964	0.54408612	8.1054131	18.317253
217	5	5	0.087777118	-0.44050363	7.858595	20.645928
218	5	5	0.087777118	-0.23015124	6.0792686	20.533748
219	5	5	0.087777118	-1.8996335	7.7911919	18.559906
220	5	5	0.087777118	-2.5578472	6.9599751	20.008801
221	5	5	0.092837039	-1.7420137	4.7403484	19.093665
222	5	5	0.092837039	-1.2061763	5.5872968	17.592286
223	5	7	0.086054186	-3.5464239	6.3719494	17.191967
224	5	7	0.086054186	-4.1024173	5.5093204	18.671624
225	6	1	0.54276122	-1.807107	-2.8666234	34.981925
226	6	2	-0.69160103	-2.205639	-4.0374994	34.744787
227	6	3	-0.49039282	-1.5532238	-2.4349693	36.321624
228	6	4	-0.00066724314	-1.7359586	-3.3421119	37.46128
229	6	4	-0.0087548307	-1.4868002	-2.669898	38.85023
230	6	4	-0.1703007	-2.4571148	-1.4653565	38.988038
231	6	5	0.07193784	-3.5095637	-1.7944305	38.849104
232	6	5	0.07193784	-2.3743993	-0.99812433	39.993769
233	6	5	0.07193784	-2.2389036	-0.66789401	38.250305
234	6	4	-0.20553302	-0.0313643	-2.1492351	39.005659
235	6	5	0.11077705	0.25582218	-1.5144874	38.141545
236	6	5	0.11077705	0.027562414	-1.4965887	39.906711
237	6	4	0.12762485	1.0045422	-3.2754399	39.162345
238	6	3	-0.51815634	2.3488075	-2.7028919	39.300482
239	6	1	0.80865736	3.5380499	-3.4730311	39.094181
240	6	2	-0.6091197	3.4746986	-4.687426	38.764793
241	6	6	0.31490184	2.4642743	-1.6886044	39.525995
242	6	7	0.045238081	0.9926003	-3.8997776	38.245418
243	6	4	-0.20914528	0.67665765	-4.1253471	40.402682
244	6	5	0.11232014	0.77447072	-3.4744938	41.301359
245	6	5	0.11232014	1.432355	-4.9359046	40.509542
246	6	4	-0.028478346	-0.74341214	-4.7475841	40.363669
247	6	4	-0.17206572	-1.0677166	-5.2938347	41.776171
248	6	5	0.075003202	-2.0731581	-5.7672924	41.790066
249	6	5	0.075003202	-1.0559122	-4.4814451	42.534497
250	6	5	0.075003202	-0.31900474	-6.054263	42.089624
251	6	4	-0.17206572	-0.7861558	-5.9577734	39.393967
252	6	5	0.075003202	-0.22416906	-5.7837358	38.459959
253	6	5	0.075003202	-1.8336937	-6.2297743	39.141995
254	6	5	0.075003202	-0.30754432	-6.8494003	39.854013
255	6	4	-0.21133921	-1.8166079	-3.6653179	40.011856
256	6	5	0.11250371	-1.9734875	-3.0561098	40.931848
257	6	5	0.11250371	-2.7967752	-4.1562035	39.82023
258	6	7	0.06899451	-2.7749217	-3.7364614	37.433315
259	6	7	0.06899451	-1.0654519	-4.2002744	37.307667
260	6	6	0.31568633	-1.2110395	-1.4586693	36.445342
261	7	8	-0.49890899	4.4661903	-3.0254543	39.211891
262	7	4	0.11753124	4.5762016	-2.0587473	38.202071
263	7	4	-0.1386405	3.7431234	-0.82490451	38.558101
264	7	4	-0.14102732	3.8863339	0.26529324	37.485338
265	7	4	-0.13980739	2.9629073	1.4681346	37.737023
266	7	4	-0.14462805	3.4093135	2.3133806	38.941478
267	7	4	0.035979557	2.5724569	3.5868798	39.077624
268	7	8	-0.16739913	1.2381838	3.2599483	39.354862
269	7	7	0.086054186	2.6328689	4.1828927	38.138964
270	7	7	0.086054186	2.98451	4.1995495	39.910641
271	7	5	0.092837039	3.3150487	1.7264606	39.878994
272	7	5	0.092837039	4.4751388	2.6042488	38.816175
273	7	5	0.087777118	2.9766845	2.1059759	36.826391
274	7	5	0.087777118	1.9192526	1.1152644	37.884781
275	7	5	0.087599333	4.9435534	0.60689053	37.431383
276	7	5	0.087599333	3.6220455	-0.16848519	36.496165
277	7	5	0.091724093	2.6750637	-1.1218823	38.647632
278	7	5	0.091724093	4.0867967	-0.43725543	39.54041
279	7	7	0.086061294	5.6448193	-1.7690829	38.107828
280	7	7	0.086061294	4.2466559	-2.4825177	37.226139
281	4	1	0.55542434	-1.654294	-2.1800596	34.159844
282	4	2	-0.68095313	-0.50309523	-1.7140319	33.949367
283	4	3	-0.5691561	-2.7622055	-1.8089564	33.332148
284	4	4	0.12546475	-2.6241497	-0.89217896	32.19347
285	4	7	0.043123986	-1.9859468	-0.046218716	32.516333
286	4	4	-0.21025132	-1.9709621	-1.6327736	31.011988
287	4	5	0.11232015	-0.96925409	-2.0077404	31.316991
288	4	5	0.11232015	-2.5933885	-2.5272529	30.781575
289	4	4	-0.029012044	-1.8281126	-0.75865916	29.738484
290	4	4	-0.17206571	-1.4443841	-1.685372	28.560137
291	4	5	0.075003217	-1.320748	-1.0978715	27.624349
292	4	5	0.075003217	-0.49045612	-2.2176269	28.766593
293	4	5	0.075003217	-2.2267201	-2.4555527	28.382722
294	4	4	-0.17206571	-0.67793476	0.26707617	29.896018
295	4	5	0.075003217	-0.71029074	0.80875878	30.854065
296	4	5	0.075003217	0.30759555	-0.24595107	29.876042
297	4	5	0.075003217	-0.69351267	1.0062221	29.066613
298	4	4	-0.21001085	-3.1840329	-0.070666825	29.386601
299	4	5	0.11119046	-3.8485207	-0.8597321	28.965957
300	4	5	0.11119046	-3.0351261	0.6516565	28.555246
301	4	4	0.024094573	-3.9660723	0.60260139	30.562666
302	4	4	-0.16882681	-5.4256732	0.83488519	30.095522
303	4	5	0.068528521	-6.0294339	1.3060957	30.901308
304	4	5	0.068528521	-5.4545289	1.4975571	29.203272
305	4	5	0.068528521	-5.9174952	-0.12401171	29.823087
306	4	4	0.14294707	-3.387023	1.9885822	30.974588
307	4	3	-0.63144087	-3.2138936	2.8584259	29.81571
308	4	9	0.6003495	-2.7622486	4.0413254	29.939462
309	4	2	-0.47139772	-2.3230401	5.1920728	30.060285
310	4	7	0.067957218	-2.4273326	1.8981879	31.508657
311	4	7	0.067957218	-4.0816078	2.4801346	31.693483
312	4	4	-0.20659784	-4.0075372	-0.35259229	31.785987
313	4	5	0.11065261	-4.6630557	-1.2220987	31.55237
314	4	5	0.11065261	-4.4633471	0.17076278	32.65612
315	4	6	0.31181259	-3.7017955	-2.1890465	33.587105
316	5	8	-0.16739913	0.752538	4.1232117	39.42483
317	5	4	0.035979557	1.6983431	5.1341865	39.20587
318	5	4	-0.14462805	2.0248804	5.2406165	37.713953
319	5	4	-0.13975536	3.0246275	6.3753191	37.446871
320	5	4	-0.13566006	3.4792253	6.4298979	35.979712
321	5	4	-0.16655197	2.3693619	6.9175774	35.034947
322	5	4	0.089298266	2.888207	7.1139913	33.608655
323	5	10	-0.68033247	3.2911091	5.8853303	33.069705
324	5	11	0.38448955	3.6189041	6.0818181	32.153339
325	5	7	0.077259782	3.7406381	7.8297974	33.611791
326	5	7	0.077259782	2.0710221	7.5417205	32.986408
327	5	5	0.095192964	1.5354501	6.1849444	35.010885
328	5	5	0.095192964	1.970691	7.8884143	35.401132
329	5	5	0.087777118	4.3405558	7.1313147	35.914557
330	5	5	0.087777118	3.8384899	5.4264511	35.661169
331	5	5	0.087777118	2.5787692	7.3512366	37.740162
332	5	5	0.087777118	3.9257322	6.2133397	38.078312
333	5	5	0.092837039	2.4536839	4.2751475	37.366774
334	5	5	0.092837039	1.0812139	5.4292043	37.159262
335	5	7	0.086054186	1.2715132	6.0974856	39.56132
336	5	7	0.086054186	2.6235253	4.9306822	39.792134
337	6	1	0.54276122	-1.0974287	1.6569014	50.72688
338	6	2	-0.69160103	-1.2129614	2.3055378	49.653598
339	6	3	-0.49039282	-0.7068	0.28109943	50.714547
340	6	4	-0.00066724314	-0.41623677	-0.41653356	49.455978
341	6	4	-0.0087548307	-0.083563425	-1.9330805	49.636385
342	6	4	-0.1703007	-1.2893251	-2.6147809	50.338414
343	6	5	0.07193784	-2.2242876	-2.442335	49.762785
344	6	5	0.07193784	-1.1355859	-3.713063	50.420765
345	6	5	0.07193784	-1.4382826	-2.2384166	51.369906
346	6	4	-0.20553302	1.1849276	-2.1639761	50.503079
347	6	5	0.11077705	1.118941	-1.6019795	51.458004
348	6	5	0.11077705	1.2468324	-3.2419096	50.777925
349	6	4	0.12762485	2.4901463	-1.7773586	49.786894
350	6	3	-0.51815634	3.6365943	-2.0219771	50.669935
351	6	1	0.80865736	4.9214795	-1.4320769	50.443971
352	6	2	-0.6091197	5.1157584	-0.65475171	49.471712
353	6	6	0.31490184	3.523627	-2.6207999	51.519416
354	6	7	0.045238081	2.4620482	-0.69232667	49.557521
355	6	4	-0.20914528	2.6484385	-2.6014767	48.49691
356	6	5	0.11232014	2.7470737	-3.6733873	48.783401
357	6	5	0.11232014	3.5962382	-2.3169948	47.986766
358	6	4	-0.028478346	1.4630026	-2.4339508	47.511022
359	6	4	-0.17206572	1.5788494	-3.5355599	46.428542
360	6	5	0.075003202	0.75636772	-3.4418821	45.686911
361	6	5	0.075003202	1.526122	-4.5500608	46.879299
362	6	5	0.075003202	2.5476306	-3.4604519	45.887345
363	6	4	-0.17206572	1.5493369	-1.0710035	46.775067
364	6	5	0.075003202	1.8501614	-0.24033582	47.436872
365	6	5	0.075003202	0.58171973	-0.8173922	46.291117
366	6	5	0.075003202	2.3264009	-1.0998003	45.980679
367	6	4	-0.21133921	0.095620441	-2.6277086	48.24556
368	6	5	0.11250371	-0.031151025	-3.7231852	48.406777
369	6	5	0.11250371	-0.73895016	-2.3371175	47.569198
370	6	7	0.06899451	-1.2994219	-0.31862509	48.788043
371	6	7	0.06899451	0.41223118	0.11815558	48.968774
372	6	6	0.31568633	-0.61573396	-0.19125763	51.638746
373	7	8	-0.49890899	5.7037108	-1.6421075	51.091756
374	7	4	0.11753124	5.354421	-1.0926969	52.333733
375	7	4	-0.1386405	4.3136227	-1.9745048	53.02821
376	7	4	-0.14102732	3.9508257	-1.413777	54.41162
377	7	4	-0.13980739	2.812258	-2.1951654	55.086887
378	7	4	-0.14462805	3.2493725	-3.5956047	55.547465
379	7	4	0.035979557	2.1512132	-4.2923277	56.35325
380	7	8	-0.16739913	1.0315998	-4.5241218	55.542838
381	7	7	0.086054186	1.8665149	-3.665123	57.228192
382	7	7	0.086054186	2.5437249	-5.2636739	56.729403
383	7	5	0.092837039	3.4994825	-4.2281007	54.670145
384	7	5	0.092837039	4.1548862	-3.5101633	56.187023
385	7	5	0.087777118	2.478052	-1.613936	55.973881
386	7	5	0.087777118	1.9484047	-2.2747854	54.391917
387	7	5	0.087599333	4.8489556	-1.4143852	55.067879
388	7	5	0.087599333	3.6200695	-0.35856035	54.29503
389	7	5	0.091724093	3.4005478	-2.0249887	52.395195
390	7	5	0.091724093	4.7301235	-2.9987533	53.131923
391	7	7	0.086061294	6.269015	-1.0349604	52.962156
392	7	7	0.086061294	4.9620123	-0.058826969	52.200491
393	4	1	0.55542434	-1.2956528	2.1490688	51.669758
394	4	2	-0.68095313	-0.37232948	2.2499007	52.520668
395	4	3	-0.5691561	-2.602832	2.6695322	51.935589
396	4	4	0.12546475	-2.9379327	3.3588446	53.188061
397	4	7	0.043123986	-2.4937526	2.7799091	54.021565
398	4	4	-0.21025132	-2.3594629	4.785627	53.161626
399	4	5	0.11232015	-1.2546782	4.7361646	53.043091
400	4	5	0.11232015	-2.7577578	5.3005083	52.257825
401	4	4	-0.029012044	-2.7054207	5.615541	54.425686
402	4	4	-0.17206571	-2.3319295	7.0914372	54.148593
403	4	5	0.075003217	-2.5541104	7.7244949	55.035168
404	4	5	0.075003217	-1.2503832	7.1905687	53.911257
405	4	5	0.075003217	-2.9034626	7.4956787	53.284508
406	4	4	-0.17206571	-1.8575356	5.1579349	55.63876
407	4	5	0.075003217	-1.8414474	4.0644682	55.766794
408	4	5	0.075003217	-0.79585759	5.4590927	55.508338
409	4	5	0.075003217	-2.2300632	5.6223643	56.576854
410	4	4	-0.21001085	-4.2362491	5.5552353	54.723348
411	4	5	0.11119046	-4.7394917	6.1989328	53.966044
412	4	5	0.11119046	-4.4493878	6.0413995	55.699715
413	4	4	0.024094573	-4.919796	4.1496761	54.65143
414	4	4	-0.16882681	-6.451546	4.3669802	54.555852
415	4	5	0.068528521	-6.9866582	3.3945371	54.493665
416	4	5	0.068528521	-6.8289167	4.9181157	55.444626
417	4	5	0.068528521	-6.7178501	4.9563689	53.651808
418	4	4	0.14294707	-4.6558104	3.2705335	55.909739
419	4	3	-0.63144087	-4.9494372	3.999751	57.139221
420	4	9	0.6003495	-4.809265	3.4543425	58.280024
421	4	2	-0.47139772	-4.6729686	2.9233482	59.389614
422	4	7	0.067957218	-3.6202995	2.8954183	55.947311
423	4	7	0.067957218	-5.2991891	2.362164	55.867196
424	4	4	-0.20659784	-4.4666767	3.4059746	53.366043
425	4	5	0.11065261	-4.9034204	3.9112186	52.474804
426	4	5	0.11065261	-4.8630601	2.36597	53.374131
427	4	6	0.31181259	-3.3401005	2.5110607	51.211971
428	5	8	-0.16739913	0.3598908	-4.9693991	56.122929
429	5	4	0.035979557	0.94436306	-5.0933278	57.390839
430	5	4	-0.14462805	0.93052447	-3.744633	58.115133
431	5	4	-0.13975536	1.5239422	-3.8692185	59.526058
432	5	4	-0.13566006	1.6495625	-2.5122775	60.23678
433	5	4	-0.16655197	0.28681682	-1.9310937	60.645875
434	5	4	0.089298266	0.44391119	-0.66253958	61.487409
435	5	10	-0.68033247	1.0409716	0.34976339	60.725066
436	5	11	0.38448955	1.1181865	1.1364834	61.325811
437	5	7	0.077259782	1.0615584	-0.88018049	62.387504
438	5	7	0.077259782	-0.56303434	-0.32893151	61.823118
439	5	5	0.095192964	-0.31304551	-1.6861509	59.744261
440	5	5	0.095192964	-0.27258151	-2.6828864	61.243733
441	5	5	0.087777118	2.2659252	-2.6610392	61.151158
442	5	5	0.087777118	2.189708	-1.7943194	59.580864
443	5	5	0.087777118	0.90426257	-4.5601679	60.139092
444	5	5	0.087777118	2.5421358	-4.3097564	59.447623
445	5	5	0.092837039	1.520721	-3.0099156	57.524883
446	5	5	0.092837039	-0.11972064	-3.3882704	58.176329
447	5	7	0.086054186	0.35823195	-5.8345899	57.976888
448	5	7	0.086054186	1.9872971	-5.4741489	57.299488
449	6	1	0.54276122	3.0468506	0.20033322	69.78184
450	6	2	-0.69160103	4.1393591	0.55211679	69.263491
451	6	3	-0.49039282	2.9426451	-0.028976139	71.189722
452	6	4	-0.00066724314	4.0981125	0.148972	72.07761
453	6	4	-0.0087548307	3.8127094	-0.22385907	73.568474
454	6	4	-0.1703007	3.3460942	-1.7041324	73.618305
455	6	5	0.07193784	4.100994	-2.3672501	73.143287
456	6	5	0.07193784	3.2040822	-2.0436521	74.667686
457	6	5	0.07193784	2.3758746	-1.8528077	73.104124
458	6	4	-0.20553302	2.7046299	0.66260513	74.200837
459	6	5	0.11077705	1.7980814	0.6789985	73.560543
460	6	5	0.11077705	2.392915	0.21726743	75.17337
461	6	4	0.12762485	3.1570484	2.10961	74.460615
462	6	3	-0.51815634	2.0568792	2.8787815	75.053864
463	6	1	0.80865736	2.0388299	4.310373	75.067722
464	6	2	-0.6091197	2.9742758	4.9753333	74.548074
465	6	6	0.31490184	1.2305018	2.3822243	75.458214
466	6	7	0.045238081	3.4176857	2.5803703	73.490486
467	6	4	-0.20914528	4.3660937	2.1217359	75.412638
468	6	5	0.11232014	4.0358252	1.7096945	76.393425
469	6	5	0.11232014	4.6850074	3.1723903	75.596813
470	6	4	-0.028478346	5.5726173	1.3027487	74.884566
471	6	4	-0.17206572	6.5790883	1.1250805	76.048256
472	6	5	0.075003202	7.4719929	0.55709133	75.708583
473	6	5	0.075003202	6.1196615	0.57456193	76.897391
474	6	5	0.075003202	6.9183854	2.1114974	76.434174
475	6	4	-0.17206572	6.3144692	2.0782121	73.764289
476	6	5	0.075003202	5.6295133	2.584196	73.061933
477	6	5	0.075003202	6.9883384	1.4046765	73.192397
478	6	5	0.075003202	6.937059	2.8928577	74.193759
479	6	4	-0.21133921	5.1199969	-0.12152182	74.422603
480	6	5	0.11250371	4.9566753	-0.72315196	75.346452
481	6	5	0.11250371	5.9568828	-0.628385	73.892387
482	6	7	0.06899451	4.9310343	-0.48379073	71.701325
483	6	7	0.06899451	4.4253209	1.1947983	71.983796
484	6	6	0.31568633	2.0059786	-0.30309866	71.554511
485	7	8	-0.49890899	1.2426143	4.809363	75.506669
486	7	4	0.11753124	0.1109499	4.5194629	74.731005
487	7	4	-0.1386405	-0.38671985	3.1031769	75.030345
488	7	4	-0.14102732	-1.6539213	2.7820859	74.223523
489	7	4	-0.13980739	-2.1104916	1.324226	74.394042
490	7	4	-0.14462805	-2.687894	1.0459739	75.79176
491	7	4	0.035979557	-3.2779945	-0.36229514	75.887806
492	7	8	-0.16739913	-2.2676425	-1.3204985	75.729486
493	7	7	0.086054186	-4.0608121	-0.49979482	75.1079
494	7	7	0.086054186	-3.751809	-0.4852829	76.887528
495	7	5	0.092837039	-1.8960065	1.1508268	76.562615
496	7	5	0.092837039	-3.4923365	1.7806571	76.014025
497	7	5	0.087777118	-2.8965414	1.1212091	73.634312
498	7	5	0.087777118	-1.2599032	0.63848904	74.18952
499	7	5	0.087599333	-2.4756605	3.4711218	74.518967
500	7	5	0.087599333	-1.4443193	2.9515249	73.144712
501	7	5	0.091724093	0.41379828	2.3753735	74.772593
502	7	5	0.091724093	-0.59991814	3.0253633	76.117454
503	7	7	0.086061294	-0.68516906	5.2524515	74.983302
504	7	7	0.086061294	0.34854532	4.6277911	73.648213
505	4	1	0.55542434	2.1764862	0.071521118	69.152228
506	4	2	-0.68095313	1.1618931	0.79280824	69.344807
507	4	3	-0.5691561	2.1909861	-0.91900778	68.118347
508	4	4	0.12546475	1.0501291	-1.1391148	67.220502
509	4	7	0.043123986	0.12899573	-1.12814	67.835794
510	4	4	-0.21025132	1.0007305	-0.018247884	66.165868
511	4	5	0.11232015	0.89542878	0.96540075	66.674192
512	4	5	0.11232015	1.9797936	-0.0034251237	65.635007
513	4	4	-0.029012044	-0.14538334	-0.19076988	65.134872
514	4	4	-0.17206571	0.092952548	0.81053011	63.979389
515	4	5	0.075003217	-0.71354695	0.7292352	63.218409
516	4	5	0.075003217	0.11281028	1.8561517	64.356456
517	4	5	0.075003217	1.0645181	0.61766914	63.473851
518	4	4	-0.17206571	-1.5153379	0.16683448	65.763524
519	4	5	0.075003217	-1.6745508	-0.30103968	66.747427
520	4	5	0.075003217	-1.5906008	1.2617598	65.937708
521	4	5	0.075003217	-2.3470789	-0.12816707	65.088487
522	4	4	-0.21001085	-0.13376839	-1.6305807	64.532805
523	4	5	0.11119046	0.72629622	-1.6797954	63.826423
524	4	5	0.11119046	-1.0341352	-1.7808753	63.898907
525	4	4	0.024094573	0.033494955	-2.8195036	65.536045
526	4	4	-0.16882681	0.4382639	-4.0766981	64.724726
527	4	5	0.068528521	0.57854974	-4.9525792	65.394808
528	4	5	0.068528521	-0.34177334	-4.3311535	63.974478
529	4	5	0.068528521	1.3933622	-3.9128404	64.180179
530	4	4	0.14294707	-1.2762735	-3.1673875	66.303772
531	4	3	-0.63144087	-2.4017549	-3.3298428	65.389167
532	4	9	0.6003495	-3.5624228	-3.6276129	65.816638