Title

828 atoms
827 bonds
1580 angles
2908 dihedrals
156 impropers

12 atom types
17 bond types
10 angle types
42 dihedral types
3 improper types
-29.88100052 70.11899948 xlo xhi
-12.8920002 87.1079998 ylo yhi
-27.44099998 72.55900002 zlo zhi
0.0 0.0 0.0 xy xz yz

Masses

1	15.99943
2	12.01078
3	14.00672
4	12.01078
5	1.007947
6	1.007947
7	1.007947
8	1.007947
9	15.99943
10	12.01078
11	15.99943
12	1.007947


Pair Coeffs

1	0.2102061	3.0398122
2	0.086879315	3.4806469
3	0.16769152	3.206876
4	0.10884061	3.3795318
5	0.014090815	1.1034277
6	0.016409246	2.5832257
7	0.015779483	2.6445434
8	0.015611343	2.5725815
9	0.16846514	3.0251065
10	0.21	3.3996695
11	0.20947353	2.99716
12	1.2326e-05	0.53453923

Bond Coeffs

1 harmonic	582.698766451	1.225198386222
2 harmonic	492.76746816345	1.381897776683
3 harmonic	301.15400723785	1.345741232799
4 harmonic	352.0565580496	1.450098586273
5 harmonic	505.144496193	1.019481865027
6 harmonic	264.62148576755	1.52190126495
7 harmonic	370.04670688625	1.093899492634
8 harmonic	289.73813263395	1.498646816465
9 harmonic	399.1592953295	1.371688562017
10 harmonic	397.2545789619	1.085358495916
11 harmonic	279.1350963404	1.454628925034
12 harmonic	366.7408841747	1.425895053732
13 harmonic	300.03137914615	1.451203938761
14 harmonic	366.34047229585	1.464762957261
15 harmonic	602.81384337	1.196112346392
16 harmonic	329.96998057905	1.427343958716
17 harmonic	543.5267831885	0.9716763312559


Angle Coeffs

1 harmonic	57.8982893754	126.8062420451
2 harmonic	201.41175231035	127.4691416191
3 harmonic	55.42182150775	117.3465570514
4 harmonic	63.44422595415	115.5071327674
5 harmonic	65.09061609600001	110.3538806181
6 harmonic	53.20531626545	116.5475862634
7 harmonic	34.066775159195	129.1835929926
8 harmonic	48.776492647595	115.6030999533
9 harmonic	55.07882548015	112.8714009681
10 harmonic	33.56981613361	180


Dihedral Coeffs

1 fourier 1	1.809047390003	2	180
2 fourier 1	-0.04816277792592	1	0
3 fourier 1	0.4860993122944	2	180
4 fourier 1	0.8916986138746	1	0
5 fourier 1	1.163809172478	2	180
6 fourier 1	0.1679186987369	1	180
7 fourier 1	-0.1488678166443	4	180
8 fourier 1	-0.1230328948768	3	180
9 fourier 1	0.2939295466901	2	0
10 fourier 1	-0.3024127022865	1	0
11 fourier 1	0.182238503271	2	0
12 fourier 1	0.02972342374561	3	0
13 fourier 1	0.1918272375143	3	0
14 fourier 1	0.9202179876409	1	180
15 fourier 1	0.0473758381877	3	0
16 fourier 1	2.779853741805	2	180
17 fourier 1	0.1155372516788	3	0
18 fourier 1	-0.3703352413219	2	0
19 fourier 1	0.02664938770063	3	0
20 fourier 1	0.09223874044423	3	0
21 fourier 1	0.3159935921949	2	180
22 fourier 1	0.3247796806857	1	180
23 fourier 1	0.1040663847541	3	0
24 fourier 1	5.082239018622	2	180
25 fourier 1	1.654695451548	1	180
26 fourier 1	5.294842998052	2	180
27 fourier 1	0.2962286176719	3	180
28 fourier 1	0.007435022645929	1	0
29 fourier 1	3.101948770557	2	180
30 fourier 1	-0.4252153282372	1	0
31 fourier 1	0.9974165607242	2	180
32 fourier 1	2.348375642009	2	180
33 fourier 1	1.256156174911	1	0
34 fourier 1	0.1911926717192	3	0
35 fourier 1	0.1115525666802	3	0
36 fourier 1	0.3432490222662	1	0
37 fourier 1	0.457973137376	1	0
38 fourier 1	-1.382973039546	1	0
39 fourier 1	0	1	0
40 fourier 1	0.3445382149273	3	0
41 fourier 1	0.1364556373303	1	0
42 fourier 1	0.3026390167484	3	0


Improper Coeffs

1 3.5	-1	2
2 0.3333333333333333	-1	2
3 0.3666666666666667	-1	2


Atoms

1	1	1	-0.651645	0.51899999	3.5680001	-1.268
2	1	2	0.78359902	-0.107	2.4820001	-1.388
3	1	3	-0.484236	0.514	1.232	-1.067
4	1	4	0.077935003	1.878	1.127	-0.537
5	1	4	-0.118931	1.839	1.069	1.008
6	1	2	-0.086347997	1.043	-0.107	1.535
7	1	2	-0.084463	0.101	-0.037999999	2.4949999
8	1	4	-0.090536997	-0.35699999	1.225	3.1789999
9	1	4	-0.133964	-1.288	2.0880001	2.3080001
10	1	4	-0.135979	-2.7149999	1.526	2.164
11	1	4	-0.14309201	-2.822	0.43000001	1.092
12	1	4	-0.144439	-4.2870002	0.064999998	0.82099998
13	1	4	-0.14485499	-4.3909998	-1.052	-0.228
14	1	4	-0.149635	-5.842	-1.5089999	-0.46399999
15	1	4	0.026254	-6.671	-0.51499999	-1.2920001
16	1	3	-0.53038502	-6.204	-0.44400001	-2.677
17	1	2	0.53635597	-6.7839999	0.463	-3.618
18	1	1	-0.72925699	-7.71	1.245	-3.2739999
19	1	5	0.31030199	-5.4419999	-1.075	-3.0139999
20	1	6	0.039717	-6.6399999	0.49399999	-0.833
21	1	6	0.039717	-7.7309999	-0.852	-1.29
22	1	7	0.078152999	-5.8280001	-2.4879999	-0.991
23	1	7	0.078152999	-6.3439999	-1.675	0.514
24	1	7	0.077234998	-3.8110001	-1.9299999	0.13
25	1	7	0.077234998	-3.931	-0.71700001	-1.182
26	1	7	0.076511003	-4.7600002	-0.273	1.7690001
27	1	7	0.076511003	-4.8210001	0.96899998	0.461
28	1	7	0.076511003	-2.2880001	-0.47999999	1.432
29	1	7	0.076511003	-2.3570001	0.78500003	0.146
30	1	7	0.074646004	-3.378	2.369	1.8710001
31	1	7	0.074646004	-3.0799999	1.14	3.141
32	1	7	0.076223999	-0.84799999	2.2709999	1.308
33	1	7	0.076223999	-1.368	3.0810001	2.802
34	1	7	0.074197002	0.52899998	1.8200001	3.4879999
35	1	7	0.074197002	-0.88800001	0.95300001	4.1170001
36	1	8	0.12586699	-0.336	-0.972	2.8410001
37	1	8	0.12624399	1.313	-1.097	1.183
38	1	7	0.088547997	1.433	2.033	1.37
39	1	7	0.088547997	2.868	1.01	1.416
40	1	4	-0.15249801	2.596	-0.068000004	-1.205
41	1	4	-0.14067701	4.0780001	-0.175	-0.81800002
42	1	4	-0.144134	4.7969999	-1.229	-1.673
43	1	4	-0.148065	6.3039999	-1.302	-1.382
44	1	4	-0.142078	6.612	-1.943	-0.023
45	1	4	-0.12949499	8.1149998	-2.128	0.17
46	1	7	0.042222001	8.6350002	-1.147	0.111
47	1	7	0.042222001	8.5220003	-2.8069999	-0.60900003
48	1	7	0.042222001	8.3109999	-2.575	1.169
49	1	7	0.066730998	6.2319999	-1.299	0.79699999
50	1	7	0.066730998	6.118	-2.9349999	0.048
51	1	7	0.077357002	6.777	-1.914	-2.1819999
52	1	7	0.077357002	6.7470002	-0.285	-1.4299999
53	1	7	0.076511003	4.6690001	-0.96799999	-2.747
54	1	7	0.076511003	4.3330002	-2.227	-1.5140001
55	1	7	0.076723002	4.1529999	-0.465	0.249
56	1	7	0.076723002	4.5700002	0.81099999	-0.95999998
57	1	7	0.082820997	2.5280001	0.071000002	-2.306
58	1	7	0.082820997	2.0769999	-1.021	-0.96799999
59	1	6	0.042387001	2.4489999	2.04	-0.81800002
60	1	5	0.319161	-0.078000002	0.37200001	-1.112
61	1	9	-0.50541002	-8.5229998	1.851	-9.6199999
62	1	4	0.109705	-8.5	1.675	-8.2290001
63	1	4	-0.14247	-7.0809999	1.849	-7.677
64	1	4	-0.143379	-6.1300001	0.76300001	-8.2049999
65	1	4	-0.144526	-4.677	0.97899997	-7.7529998
66	1	4	-0.14319301	-4.473	0.69400001	-6.257
67	1	4	-0.14319301	-2.9909999	0.79000002	-5.8769999
68	1	4	-0.144526	-2.7850001	0.51700002	-4.382
69	1	4	-0.143379	-1.301	0.625	-4.0019999
70	1	4	-0.14247	-1.03	0.21799999	-2.543
71	1	4	0.109705	-1.599	1.205	-1.5140001
72	1	9	-0.50621903	-1.091	2.4960001	-1.717
73	1	6	0.073578	-1.347	0.85299999	-0.48800001
74	1	6	0.073578	-2.7060001	1.2359999	-1.582
75	1	7	0.081840001	-1.452	-0.79299998	-2.3529999
76	1	7	0.081840001	0.068999998	0.148	-2.395
77	1	7	0.078197002	-0.713	-0.052999999	-4.658
78	1	7	0.078197002	-0.93800002	1.661	-4.1820002
79	1	7	0.076511003	-3.375	1.256	-3.799
80	1	7	0.076511003	-3.1559999	-0.50400001	-4.1409998
81	1	7	0.076511003	-2.411	0.048	-6.4689999
82	1	7	0.076511003	-2.6140001	1.809	-6.1199999
83	1	7	0.076511003	-4.8470001	-0.32600001	-6.0190001
84	1	7	0.076511003	-5.046	1.432	-5.6550002
85	1	7	0.076511003	-4.3590002	2.0179999	-7.9879999
86	1	7	0.076511003	-4.0300002	0.289	-8.3389997
87	1	7	0.078197002	-6.4809999	-0.23999999	-7.8779998
88	1	7	0.078197002	-6.145	0.778	-9.316
89	1	7	0.081840001	-7.1350002	1.793	-6.5689998
90	1	7	0.081840001	-6.6999998	2.8559999	-7.9559999
91	1	6	0.073578	-8.8739996	0.65799999	-7.9879999
92	1	6	0.073578	-9.1829996	2.4070001	-7.7399998
93	1	1	-0.651645	-1.976	2.9089999	-4.6160002
94	1	2	0.78359902	-3.2149999	3.1259999	-4.6599998
95	1	3	-0.484236	-3.9419999	3.507	-3.4860001
96	1	4	0.077935003	-3.302	3.7190001	-2.1819999
97	1	4	-0.118931	-2.9690001	5.2179999	-1.998
98	1	2	-0.086347997	-4.1919999	6.1079998	-2.0680001
99	1	2	-0.084463	-4.2930002	7.2319999	-2.803
100	1	4	-0.090536997	-3.224	7.7740002	-3.7179999
101	1	4	-0.133964	-3.1099999	7.0050001	-5.046
102	1	4	-0.135979	-4.2509999	7.2909999	-6.04
103	1	4	-0.14309201	-5.5209999	6.4780002	-5.7449999
104	1	4	-0.144439	-6.5419998	6.618	-6.881
105	1	4	-0.14485499	-7.822	5.829	-6.5700002
106	1	4	-0.148367	-8.908	6.0149999	-7.6459999
107	1	4	0.020272	-8.625	5.2410002	-8.9429998
108	1	3	-0.47527099	-8.7200003	3.7950001	-8.7399998
109	1	2	0.77823597	-8.4329996	2.8699999	-9.7919998
110	1	1	-0.64737397	-8.0710001	3.277	-10.929
111	1	5	0.316892	-9.0209999	3.4059999	-7.8179998
112	1	6	0.043143	-7.6209998	5.5	-9.3389997
113	1	6	0.043143	-9.3739996	5.5440001	-9.7060003
114	1	7	0.078152999	-9.8830004	5.6760001	-7.2340002
115	1	7	0.078152999	-9.0150003	7.0960002	-7.8839998
116	1	7	0.077234998	-8.2360001	6.191	-5.6030002
117	1	7	0.077234998	-7.5809999	4.7519999	-6.4460001
118	1	7	0.076511003	-6.7930002	7.6929998	-7.0159998
119	1	7	0.076511003	-6.0869999	6.2389998	-7.8200002
120	1	7	0.076511003	-5.9860001	6.8379998	-4.8049998
121	1	7	0.076511003	-5.2579999	5.4039998	-5.625
122	1	7	0.074646004	-3.8870001	7.0180001	-7.0549998
123	1	7	0.074646004	-4.4889998	8.3780003	-6.0549998
124	1	7	0.076223999	-3.02	5.914	-4.8730001
125	1	7	0.076223999	-2.1589999	7.3249998	-5.527
126	1	7	0.074197002	-2.2460001	7.7639999	-3.1900001
127	1	7	0.074197002	-3.4460001	8.842	-3.9349999
128	1	8	0.12586699	-5.198	7.8249998	-2.697
129	1	8	0.12624399	-5.0209999	5.8800001	-1.406
130	1	7	0.088547997	-2.2190001	5.4920001	-2.7650001
131	1	7	0.088547997	-2.4679999	5.3829999	-1.023
132	1	4	-0.15249801	-4.1960001	3.1210001	-1.071
133	1	4	-0.14067701	-3.5439999	3.1700001	0.31900001
134	1	4	-0.144134	-4.3639998	2.3670001	1.34
135	1	4	-0.148065	-3.697	2.312	2.724
136	1	4	-0.142078	-3.7639999	3.655	3.4649999
137	1	4	-0.12949499	-3.2219999	3.526	4.8860002
138	1	7	0.042222001	-2.165	3.181	4.8649998
139	1	7	0.042222001	-3.8329999	2.803	5.4660001
140	1	7	0.042222001	-3.263	4.5149999	5.3909998
141	1	7	0.066730998	-3.161	4.4159999	2.928
142	1	7	0.066730998	-4.816	4.006	3.5150001
143	1	7	0.077357002	-4.2270002	1.544	3.3280001
144	1	7	0.077357002	-2.6389999	1.989	2.6210001
145	1	7	0.076511003	-4.4720001	1.323	0.97299999
146	1	7	0.076511003	-5.3850002	2.7980001	1.4299999
147	1	7	0.076723002	-3.4849999	4.224	0.653
148	1	7	0.076723002	-2.517	2.75	0.26100001
149	1	7	0.082820997	-4.3899999	2.0569999	-1.332
150	1	7	0.082820997	-5.1820002	3.631	-1.041
151	1	6	0.042387001	-2.339	3.161	-2.1530001
152	1	5	0.319161	-4.9520001	3.747	-3.598
153	1	9	-0.50541002	-9.5459995	-2.72	-12.706
154	1	4	0.109705	-9.3269997	-1.362	-12.432
155	1	4	-0.14247	-8.4180002	-1.189	-11.21
156	1	4	-0.143379	-9.0799999	-1.726	-9.9300003
157	1	4	-0.144526	-8.1459999	-1.663	-8.7110004
158	1	4	-0.14319301	-7.915	-0.228	-8.2150002
159	1	4	-0.14319301	-7.0900002	-0.221	-6.9219999
160	1	4	-0.144526	-6.849	1.211	-6.4289999
161	1	4	-0.143379	-6.013	1.216	-5.1399999
162	1	4	-0.14247	-5.869	2.6210001	-4.5310001
163	1	4	0.109705	-4.9970002	3.5680001	-5.369
164	1	9	-0.50621903	-3.7149999	3.0339999	-5.5640001
165	1	6	0.073578	-4.9260001	4.553	-4.8559999
166	1	6	0.073578	-5.4679999	3.7509999	-6.3559999
167	1	7	0.081840001	-6.875	3.075	-4.395
168	1	7	0.081840001	-5.414	2.523	-3.5220001
169	1	7	0.078197002	-6.513	0.56900001	-4.3860002
170	1	7	0.078197002	-5.0089998	0.78200001	-5.3379998
171	1	7	0.076511003	-6.316	1.778	-7.2220001
172	1	7	0.076511003	-7.8280001	1.7029999	-6.237
173	1	7	0.076511003	-7.632	-0.79299998	-6.1370001
174	1	7	0.076511003	-6.1110001	-0.71499997	-7.1069999
175	1	7	0.076511003	-8.8959999	0.26100001	-8.026
176	1	7	0.076511003	-7.3709998	0.35299999	-8.9890003
177	1	7	0.076511003	-7.1719999	-2.1400001	-8.9580002
178	1	7	0.076511003	-8.6120005	-2.2550001	-7.8930001
179	1	7	0.078197002	-10.013	-1.159	-9.7189999
180	1	7	0.078197002	-9.3610001	-2.789	-10.088
181	1	7	0.081840001	-8.2030001	-0.106	-11.094
182	1	7	0.081840001	-7.4569998	-1.717	-11.391
183	1	6	0.073578	-10.305	-0.86900002	-12.245
184	1	6	0.073578	-8.8649998	-0.86299998	-13.314
185	1	1	-0.651645	-4.4949999	0.389	-6.8889999
186	1	2	0.78359902	-4.8569999	0.59399998	-8.0769997
187	1	3	-0.484236	-4.539	1.8200001	-8.7460003
188	1	4	0.077935003	-3.74	2.885	-8.1300001
189	1	4	-0.118931	-2.2550001	2.7260001	-8.5290003
190	1	2	-0.086347997	-2.0350001	2.7869999	-10.026
191	1	2	-0.084463	-1.3	1.9119999	-10.738
192	1	4	-0.090536997	-0.60500002	0.69599998	-10.177
193	1	4	-0.133964	-1.564	-0.47	-9.8760004
194	1	4	-0.135979	-2.0699999	-1.209	-11.129
195	1	4	-0.14309201	-3.247	-0.495	-11.813
196	1	4	-0.144439	-3.8629999	-1.373	-12.908
197	1	4	-0.14485499	-5.0190001	-0.64499998	-13.611
198	1	4	-0.148367	-5.6079998	-1.459	-14.777
199	1	4	0.020272	-6.4899998	-2.6329999	-14.323
200	1	3	-0.47527099	-7.7270002	-2.1670001	-13.693
201	1	2	0.77823597	-8.6730003	-3.0810001	-13.134
202	1	1	-0.64737397	-8.4589996	-4.323	-13.152
203	1	5	0.316892	-7.954	-1.147	-13.658
204	1	6	0.043143	-5.934	-3.2869999	-13.62
205	1	6	0.043143	-6.7519999	-3.243	-15.214
206	1	7	0.078152999	-6.217	-0.78200001	-15.415
207	1	7	0.078152999	-4.7839999	-1.848	-15.414
208	1	7	0.077234998	-4.6360002	0.31400001	-14.024
209	1	7	0.077234998	-5.8109999	-0.396	-12.874
210	1	7	0.076511003	-3.0799999	-1.63	-13.655
211	1	7	0.076511003	-4.2360001	-2.312	-12.448
212	1	7	0.076511003	-2.8940001	0.45100001	-12.273
213	1	7	0.076511003	-4.0279999	-0.255	-11.058
214	1	7	0.074646004	-2.4119999	-2.217	-10.807
215	1	7	0.074646004	-1.24	-1.3559999	-11.854
216	1	7	0.076223999	-2.421	-0.13699999	-9.2580004
217	1	7	0.076223999	-1.001	-1.2029999	-9.2589998
218	1	7	0.074197002	-0.052999999	0.97899997	-9.2559996
219	1	7	0.074197002	0.162	0.35499999	-10.905
220	1	8	0.12586699	-1.154	2.118	-11.795
221	1	8	0.12624399	-2.4200001	3.6500001	-10.558
222	1	7	0.088547997	-1.892	1.772	-8.1000004
223	1	7	0.088547997	-1.642	3.517	-8.0500002
224	1	4	-0.15249801	-4.3559999	4.257	-8.4870005
225	1	4	-0.14067701	-3.671	5.4310002	-7.7709999
226	1	4	-0.144134	-4.454	6.7360001	-7.9780002
227	1	4	-0.148065	-3.8529999	7.9180002	-7.2010002
228	1	4	-0.142078	-2.5320001	8.4110003	-7.8049998
229	1	4	-0.12949499	-2.039	9.6700001	-7.0970001
230	1	7	0.042222001	-1.8839999	9.4680004	-6.0149999
231	1	7	0.042222001	-2.777	10.491	-7.2140002
232	1	7	0.042222001	-1.073	9.993	-7.5409999
233	1	7	0.066730998	-1.752	7.6279998	-7.7080002
234	1	7	0.066730998	-2.6719999	8.6400003	-8.8830004
235	1	7	0.077357002	-4.5900002	8.7510004	-7.2220001
236	1	7	0.077357002	-3.7	7.632	-6.138
237	1	7	0.076511003	-5.4970002	6.5890002	-7.6209998
238	1	7	0.076511003	-4.5019999	6.9819999	-9.0609999
239	1	7	0.076723002	-2.6489999	5.5560002	-8.1800003
240	1	7	0.076723002	-3.602	5.2119999	-6.684
241	1	7	0.082820997	-5.4260001	4.2350001	-8.1829996
242	1	7	0.082820997	-4.336	4.4250002	-9.5839996
243	1	6	0.042387001	-3.796	2.7880001	-7.0219998
244	1	5	0.319161	-4.7989998	1.902	-9.7550001
245	1	9	-0.50541002	-14.735	-4.6529999	-11.807
246	1	4	0.109705	-13.397	-4.6750002	-12.227
247	1	4	-0.14247	-12.536	-3.7420001	-11.367
248	1	4	-0.143379	-12.954	-2.2720001	-11.53
249	1	4	-0.144526	-12.179	-1.329	-10.596
250	1	4	-0.14319301	-10.712	-1.154	-11.016
251	1	4	-0.14319301	-10.012	-0.106	-10.142
252	1	4	-0.144526	-8.5439997	0.064000003	-10.551
253	1	4	-0.143379	-7.8439999	1.105	-9.6669998
254	1	4	-0.14247	-6.4109998	1.413	-10.134
255	1	4	0.109705	-5.4330001	0.24699999	-9.927
256	1	9	-0.50621903	-5.388	-0.142	-8.5810003
257	1	6	0.073578	-4.4180002	0.55299997	-10.27
258	1	6	0.073578	-5.7350001	-0.62199998	-10.546
259	1	7	0.081840001	-6.4200001	1.696	-11.209
260	1	7	0.081840001	-6.0359998	2.2920001	-9.566
261	1	7	0.078197002	-8.4230003	2.0539999	-9.7019997
262	1	7	0.078197002	-7.8340001	0.75999999	-8.6099997
263	1	7	0.076511003	-8.0299997	-0.91600001	-10.453
264	1	7	0.076511003	-8.4960003	0.38699999	-11.614
265	1	7	0.076511003	-10.538	0.86900002	-10.245
266	1	7	0.076511003	-10.063	-0.42300001	-9.0760002
267	1	7	0.076511003	-10.666	-0.833	-12.08
268	1	7	0.076511003	-10.175	-2.122	-10.913
269	1	7	0.076511003	-12.232	-1.707	-9.5509996
270	1	7	0.076511003	-12.68	-0.336	-10.621
271	1	7	0.078197002	-12.816	-1.954	-12.587
272	1	7	0.078197002	-14.035	-2.175	-11.29
273	1	7	0.081840001	-11.478	-3.868	-11.679
274	1	7	0.081840001	-12.622	-4.046	-10.301
275	1	6	0.073578	-13.347	-4.355	-13.29
276	1	6	0.073578	-12.995	-5.7119999	-12.17
277	1	1	-0.651645	-8.3520002	-0.77600002	-8.1660004
278	1	2	0.78359902	-8.6400003	-1.8660001	-8.7250004
279	1	3	-0.484236	-7.618	-2.7909999	-9.1129999
280	1	4	0.077935003	-6.1929998	-2.5680001	-8.8470001
281	1	4	-0.118931	-5.7880001	-3.2639999	-7.527
282	1	2	-0.086347997	-6.0289998	-4.7589998	-7.5489998
283	1	2	-0.084463	-6.6500001	-5.4590001	-6.5799999
284	1	4	-0.090536997	-7.2509999	-4.8709998	-5.329
285	1	4	-0.133964	-8.5950003	-4.1609998	-5.573
286	1	4	-0.135979	-9.7779999	-5.118	-5.8169999
287	1	4	-0.14309201	-9.849	-5.6259999	-7.2649999
288	1	4	-0.144439	-11.159	-6.3829999	-7.52
289	1	4	-0.14485499	-11.214	-6.9159999	-8.9589996
290	1	4	-0.148367	-12.475	-7.7579999	-9.2299995
291	1	4	0.020272	-13.752	-6.9180002	-9.3850002
292	1	3	-0.47527099	-13.723	-6.1110001	-10.606
293	1	2	0.77823597	-14.778	-5.1999998	-10.926
294	1	1	-0.64737397	-15.761	-5.053	-10.152
295	1	5	0.316892	-12.933	-6.2010002	-11.283
296	1	6	0.043143	-13.893	-6.2589998	-8.5019999
297	1	6	0.043143	-14.624	-7.6059999	-9.4320002
298	1	7	0.078152999	-12.32	-8.3459997	-10.161
299	1	7	0.078152999	-12.618	-8.4890003	-8.4049997
300	1	7	0.077234998	-10.328	-7.5650001	-9.132
301	1	7	0.077234998	-11.152	-6.0710001	-9.677
302	1	7	0.076511003	-11.234	-7.2329998	-6.8080001
303	1	7	0.076511003	-12.011	-5.6939998	-7.342
304	1	7	0.076511003	-9	-6.3119998	-7.4640002
305	1	7	0.076511003	-9.7860003	-4.7659998	-7.967
306	1	7	0.074646004	-10.713	-4.5570002	-5.5949998
307	1	7	0.074646004	-9.7320004	-5.9780002	-5.1129999
308	1	7	0.076223999	-8.5200005	-3.4300001	-6.402
309	1	7	0.076223999	-8.8240004	-3.5739999	-4.6570001
310	1	7	0.074197002	-6.5289998	-4.164	-4.868
311	1	7	0.074197002	-7.402	-5.6859999	-4.5869999
312	1	8	0.12586699	-6.6820002	-6.5409999	-6.6820002
313	1	8	0.12624399	-5.5890002	-5.329	-8.3599997
314	1	7	0.088547997	-6.3429999	-2.7709999	-6.7049999
315	1	7	0.088547997	-4.7160001	-3.0829999	-7.3099999
316	1	4	-0.15249801	-5.368	-3.0050001	-10.08
317	1	4	-0.14067701	-3.872	-2.6800001	-9.9530001
318	1	4	-0.144134	-3.1400001	-2.9230001	-11.281
319	1	4	-0.148065	-1.658	-2.52	-11.223
320	1	4	-0.142078	-0.81599998	-3.4879999	-10.381
321	1	4	-0.12949499	0.66799998	-3.1389999	-10.462
322	1	7	0.042222001	0.84100002	-2.1029999	-10.098
323	1	7	0.042222001	1.026	-3.224	-11.51
324	1	7	0.042222001	1.251	-3.842	-9.8290005
325	1	7	0.066730998	-1.128	-3.438	-9.3170004
326	1	7	0.066730998	-0.95899999	-4.527	-10.744
327	1	7	0.077357002	-1.265	-2.516	-12.263
328	1	7	0.077357002	-1.562	-1.488	-10.822
329	1	7	0.076511003	-3.6270001	-2.3169999	-12.075
330	1	7	0.076511003	-3.23	-3.9920001	-11.573
331	1	7	0.076723002	-3.427	-3.3269999	-9.1719999
332	1	7	0.076723002	-3.75	-1.6160001	-9.6540003
333	1	7	0.082820997	-5.7719998	-2.4649999	-10.964
334	1	7	0.082820997	-5.5	-4.0900002	-10.278
335	1	6	0.042387001	-6.013	-1.477	-8.7139997
336	1	5	0.319161	-7.921	-3.7119999	-9.5030003
337	1	9	-0.50541002	-18.42	-2.267	-15.297
338	1	4	0.109705	-17.968	-2.973	-14.173
339	1	4	-0.14247	-16.566999	-2.507	-13.76
340	1	4	-0.143379	-15.522	-2.822	-14.843
341	1	4	-0.144526	-14.13	-2.267	-14.501
342	1	4	-0.14319301	-13.451	-3.036	-13.358
343	1	4	-0.14319301	-12.017	-2.54	-13.139
344	1	4	-0.144526	-11.339	-3.2980001	-11.991
345	1	4	-0.143379	-9.9069996	-2.7920001	-11.766
346	1	4	-0.14247	-9.1409998	-3.6210001	-10.721
347	1	4	0.109705	-9.6689997	-3.4460001	-9.29
348	1	9	-0.50621903	-9.6359997	-2.0999999	-8.8999996
349	1	6	0.073578	-9.0539999	-4.0599999	-8.5939999
350	1	6	0.073578	-10.71	-3.8199999	-9.2159996
351	1	7	0.081840001	-9.1800003	-4.697	-10.996
352	1	7	0.081840001	-8.0719995	-3.3150001	-10.743
353	1	7	0.078197002	-9.349	-2.8559999	-12.726
354	1	7	0.078197002	-9.927	-1.722	-11.464
355	1	7	0.076511003	-11.936	-3.154	-11.065
356	1	7	0.076511003	-11.315	-4.3839998	-12.233
357	1	7	0.076511003	-11.43	-2.6860001	-14.073
358	1	7	0.076511003	-12.036	-1.4529999	-12.9
359	1	7	0.076511003	-13.43	-4.1209998	-13.602
360	1	7	0.076511003	-14.026	-2.8940001	-12.418
361	1	7	0.076511003	-14.208	-1.189	-14.239
362	1	7	0.076511003	-13.497	-2.3469999	-15.412
363	1	7	0.078197002	-15.461	-3.9200001	-15.004
364	1	7	0.078197002	-15.845	-2.3599999	-15.802
365	1	7	0.081840001	-16.297001	-3.0280001	-12.818
366	1	7	0.081840001	-16.589001	-1.414	-13.559
367	1	6	0.073578	-17.945999	-4.0570002	-14.413
368	1	6	0.073578	-18.673	-2.832	-13.323
369	1	1	-0.651645	-11.361	-0.91299999	-11.13
370	1	2	0.78359902	-12.572	-1.1950001	-10.933
371	1	3	-0.484236	-13.028	-1.641	-9.6499996
372	1	4	0.077935003	-12.148	-1.752	-8.4809999
373	1	4	-0.118931	-12.23	-0.46000001	-7.6360002
374	1	2	-0.086347997	-13.63	-0.168	-7.138
375	1	2	-0.084463	-14.252	1.023	-7.2270002
376	1	4	-0.090536997	-13.682	2.2590001	-7.8759999
377	1	4	-0.133964	-13.716	2.211	-9.4139996
378	1	4	-0.135979	-15.118	2.4130001	-10.02
379	1	4	-0.14309201	-15.963	1.13	-10.019
380	1	4	-0.144439	-17.25	1.317	-10.832
381	1	4	-0.14485499	-18.107	0.043000001	-10.804
382	1	4	-0.148367	-19.451	0.21799999	-11.536
383	1	4	0.020272	-19.32	0.21799999	-13.067
384	1	3	-0.47527099	-18.927999	-1.097	-13.575
385	1	2	0.77823597	-18.683001	-1.319	-14.967
386	1	1	-0.64737397	-18.782	-0.37799999	-15.798
387	1	5	0.316892	-18.837999	-1.9119999	-12.928
388	1	6	0.043143	-18.584	0.98199999	-13.394
389	1	6	0.043143	-20.304001	0.49200001	-13.505
390	1	7	0.078152999	-20.132	-0.60699999	-11.236
391	1	7	0.078152999	-19.93	1.1670001	-11.211
392	1	7	0.077234998	-18.327	-0.214	-9.7449999
393	1	7	0.077234998	-17.537001	-0.80500001	-11.24
394	1	7	0.076511003	-17.832001	2.1630001	-10.406
395	1	7	0.076511003	-16.979	1.564	-11.88
396	1	7	0.076511003	-16.237	0.86299998	-8.9779997
397	1	7	0.076511003	-15.374	0.29499999	-10.459
398	1	7	0.074646004	-14.982	2.743	-11.073
399	1	7	0.074646004	-15.657	3.2260001	-9.4849997
400	1	7	0.076223999	-13.267	1.273	-9.7980003
401	1	7	0.076223999	-13.071	3.039	-9.7799997
402	1	7	0.074197002	-12.639	2.4119999	-7.526
403	1	7	0.074197002	-14.257	3.1440001	-7.5279999
404	1	8	0.12586699	-15.226	1.12	-6.7540002
405	1	8	0.12624399	-14.142	-0.94800001	-6.5840001
406	1	7	0.088547997	-11.833	0.37	-8.2519999
407	1	7	0.088547997	-11.552	-0.52899998	-6.7610002
408	1	4	-0.15249801	-12.487	-3.0469999	-7.7069998
409	1	4	-0.14067701	-11.524	-3.3239999	-6.5430002
410	1	4	-0.144134	-11.76	-4.723	-5.9530001
411	1	4	-0.148065	-10.755	-5.0770001	-4.8460002
412	1	4	-0.142078	-11.005	-4.296	-3.549
413	1	4	-0.12949499	-10.082	-4.7750001	-2.4319999
414	1	7	0.042222001	-9.0190001	-4.6440001	-2.7279999
415	1	7	0.042222001	-10.272	-5.8460002	-2.2090001
416	1	7	0.042222001	-10.271	-4.1810002	-1.512
417	1	7	0.066730998	-10.822	-3.2149999	-3.714
418	1	7	0.066730998	-12.059	-4.4320002	-3.224
419	1	7	0.077357002	-10.85	-6.164	-4.6339998
420	1	7	0.077357002	-9.7189999	-4.8930001	-5.204
421	1	7	0.076511003	-11.655	-5.4759998	-6.763
422	1	7	0.076511003	-12.797	-4.7969999	-5.559
423	1	7	0.076723002	-11.687	-2.5669999	-5.7519999
424	1	7	0.076723002	-10.476	-3.25	-6.9050002
425	1	7	0.082820997	-12.425	-3.8940001	-8.4250002
426	1	7	0.082820997	-13.531	-3.0190001	-7.3309999
427	1	6	0.042387001	-11.094	-1.854	-8.8269997
428	1	5	0.319161	-14.055	-1.786	-9.5249996
429	1	9	-0.50541002	-18.865999	-5.1760001	-20.072001
430	1	4	0.109705	-18.987	-4.0819998	-19.204
431	1	4	-0.14247	-17.871	-4.0879998	-18.153999
432	1	4	-0.143379	-17.969	-5.3109999	-17.228001
433	1	4	-0.144526	-16.798	-5.3979998	-16.236
434	1	4	-0.14319301	-16.870001	-4.3260002	-15.138
435	1	4	-0.14319301	-15.763	-4.5310001	-14.097
436	1	4	-0.144526	-15.826	-3.4560001	-13.006
437	1	4	-0.143379	-14.709	-3.6570001	-11.971
438	1	4	-0.14247	-14.821	-2.6889999	-10.781
439	1	4	0.109705	-14.528	-1.227	-11.147
440	1	9	-0.50621903	-13.251	-1.0930001	-11.71
441	1	6	0.073578	-14.611	-0.59500003	-10.234
442	1	6	0.073578	-15.284	-0.85299999	-11.868
443	1	7	0.081840001	-15.838	-2.7579999	-10.337
444	1	7	0.081840001	-14.099	-3.0079999	-9.9980001
445	1	7	0.078197002	-14.771	-4.6929998	-11.573
446	1	7	0.078197002	-13.716	-3.5469999	-12.459
447	1	7	0.076511003	-15.72	-2.457	-13.48
448	1	7	0.076511003	-16.815001	-3.506	-12.498
449	1	7	0.076511003	-15.877	-5.5349998	-13.632
450	1	7	0.076511003	-14.772	-4.4860001	-14.601
451	1	7	0.076511003	-17.861	-4.3779998	-14.635
452	1	7	0.076511003	-16.754	-3.3180001	-15.591
453	1	7	0.076511003	-15.834	-5.3150001	-16.784
454	1	7	0.076511003	-16.829	-6.402	-15.759
455	1	7	0.078197002	-18.933001	-5.289	-16.672001
456	1	7	0.078197002	-17.959	-6.2350001	-17.847
457	1	7	0.081840001	-17.958	-3.1570001	-17.555
458	1	7	0.081840001	-16.885	-4.079	-18.667999
459	1	6	0.073578	-19.976	-4.1290002	-18.700001
460	1	6	0.073578	-18.951	-3.1300001	-19.781
461	1	1	-0.651645	-13.554	-3.0380001	-14.052
462	1	2	0.78359902	-14.271	-2.5220001	-14.949
463	1	3	-0.484236	-14.522	-1.112	-14.976
464	1	4	0.077935003	-13.933	-0.176	-14.012
465	1	4	-0.118931	-12.635	0.43000001	-14.594
466	1	2	-0.086347997	-12.861	1.178	-15.891
467	1	2	-0.084463	-12.126	1.031	-17.01
468	1	4	-0.090536997	-10.981	0.064999998	-17.18
469	1	4	-0.133964	-11.436	-1.393	-17.377001
470	1	4	-0.135979	-12.026	-1.686	-18.768
471	1	4	-0.14309201	-13.5	-1.27	-18.895
472	1	4	-0.144439	-14.108	-1.785	-20.205
473	1	4	-0.14485499	-15.572	-1.342	-20.344
474	1	4	-0.148367	-16.194	-1.765	-21.687
475	1	4	0.020272	-16.534	-3.2620001	-21.761999
476	1	3	-0.47527099	-17.631001	-3.612	-20.858999
477	1	2	0.77823597	-18.077	-4.9619999	-20.711
478	1	1	-0.64737397	-17.523001	-5.8990002	-21.346001
479	1	5	0.316892	-18.127001	-2.872	-20.313
480	1	6	0.043143	-15.64	-3.875	-21.524
481	1	6	0.043143	-16.839001	-3.503	-22.804001
482	1	7	0.078152999	-17.124001	-1.179	-21.851999
483	1	7	0.078152999	-15.499	-1.508	-22.516001
484	1	7	0.077234998	-15.615	-0.233	-20.283001
485	1	7	0.077234998	-16.169001	-1.744	-19.497999
486	1	7	0.076511003	-13.52	-1.3890001	-21.062
487	1	7	0.076511003	-14.049	-2.8940001	-20.216
488	1	7	0.076511003	-13.58	-0.164	-18.879
489	1	7	0.076511003	-14.079	-1.682	-18.040001
490	1	7	0.074646004	-11.956	-2.783	-18.937
491	1	7	0.074646004	-11.421	-1.1900001	-19.559
492	1	7	0.076223999	-12.149	-1.701	-16.587999
493	1	7	0.076223999	-10.536	-2.0339999	-17.253
494	1	7	0.074197002	-10.305	0.134	-16.301001
495	1	7	0.074197002	-10.377	0.377	-18.059
496	1	8	0.12586699	-12.342	1.691	-17.846001
497	1	8	0.12624399	-13.612	1.961	-15.898
498	1	7	0.088547997	-11.906	-0.39399999	-14.718
499	1	7	0.088547997	-12.173	1.125	-13.862
500	1	4	-0.15249801	-14.996	0.86699998	-13.597
501	1	4	-0.14067701	-14.516	1.809	-12.483
502	1	4	-0.144134	-15.672	2.6700001	-11.952
503	1	4	-0.148065	-15.254	3.5599999	-10.771
504	1	4	-0.142078	-14.353	4.7259998	-11.2
505	1	4	-0.12949499	-14.076	5.6669998	-10.031
506	1	7	0.042222001	-13.578	5.1160002	-9.2030001
507	1	7	0.042222001	-15.025	6.1079998	-9.6599998
508	1	7	0.042222001	-13.407	6.4889998	-10.365
509	1	7	0.066730998	-13.383	4.3390002	-11.575
510	1	7	0.066730998	-14.844	5.302	-12.014
511	1	7	0.077357002	-16.177999	3.973	-10.311
512	1	7	0.077357002	-14.739	2.948	-10
513	1	7	0.076511003	-16.487	1.999	-11.601
514	1	7	0.076511003	-16.084	3.2980001	-12.771
515	1	7	0.076723002	-13.727	2.474	-12.887
516	1	7	0.076723002	-14.091	1.209	-11.649
517	1	7	0.082820997	-15.887	0.31200001	-13.229
518	1	7	0.082820997	-15.327	1.4630001	-14.474
519	1	6	0.042387001	-13.653	-0.73100001	-13.089
520	1	5	0.319161	-15.06	-0.73199999	-15.786
521	1	9	-0.50541002	-22.808001	-9.1459999	-19.666
522	1	4	0.109705	-21.691	-8.4750004	-20.184999
523	1	4	-0.14247	-20.940001	-7.724	-19.08
524	1	4	-0.143379	-21.798	-6.6040001	-18.471001
525	1	4	-0.144526	-21.107	-5.908	-17.287001
526	1	4	-0.14319301	-19.929001	-5.0250001	-17.724001
527	1	4	-0.14319301	-19.356001	-4.2459998	-16.533001
528	1	4	-0.144526	-18.172001	-3.3710001	-16.965
529	1	4	-0.143379	-17.593	-2.602	-15.768
530	1	4	-0.14247	-16.497	-1.603	-16.179001
531	1	4	0.109705	-15.204	-2.273	-16.664
532	1	9	-0.50621903	-14.68	-3.1289999	-15.685
533	1	6	0.073578	-14.458	-1.489	-16.924
534	1	6	0.073578	-15.396	-2.855	-17.589001
535	1	7	0.081840001	-16.882999	-0.93199998	-16.978001
536	1	7	0.081840001	-16.256001	-0.96399999	-15.302
537	1	7	0.078197002	-18.410999	-2.027	-15.281
538	1	7	0.078197002	-17.194	-3.316	-15.016
539	1	7	0.076511003	-17.386999	-4.0219998	-17.405001
540	1	7	0.076511003	-18.513	-2.6500001	-17.739
541	1	7	0.076511003	-20.150999	-3.6010001	-16.099001
542	1	7	0.076511003	-19.017	-4.9640002	-15.754
543	1	7	0.076511003	-20.273001	-4.3060002	-18.5
544	1	7	0.076511003	-19.127001	-5.6589999	-18.157
545	1	7	0.076511003	-20.76	-6.6680002	-16.552999
546	1	7	0.076511003	-21.863001	-5.27	-16.777
547	1	7	0.078197002	-22.052999	-5.8540001	-19.252001
548	1	7	0.078197002	-22.750999	-7.04	-18.099001
549	1	7	0.081840001	-20.018999	-7.2919998	-19.525
550	1	7	0.081840001	-20.636999	-8.4449997	-18.289
551	1	6	0.073578	-22.030001	-7.757	-20.962
552	1	6	0.073578	-21.004	-9.1999998	-20.677
553	1	1	-0.651645	-17.097	-4.9679999	-15.313
554	1	2	0.78359902	-17.195999	-5.7509999	-16.292999
555	1	3	-0.484236	-16.094999	-5.9619999	-17.184999
556	1	4	0.077935003	-14.781	-5.336	-16.997999
557	1	4	-0.118931	-13.846	-6.2950001	-16.226
558	1	2	-0.086347997	-13.635	-7.6149998	-16.938999
559	1	2	-0.084463	-13.734	-8.8299999	-16.367001
560	1	4	-0.090536997	-14.114	-9.0889997	-14.931
561	1	4	-0.133964	-15.62	-8.9219999	-14.659
562	1	4	-0.135979	-16.49	-10.069	-15.205
563	1	4	-0.14309201	-16.804001	-9.9239998	-16.702999
564	1	4	-0.144439	-17.851999	-10.95	-17.149
565	1	4	-0.14485499	-18.141001	-10.823	-18.652
566	1	4	-0.148367	-19.124001	-11.895	-19.158001
567	1	4	0.020272	-20.583	-11.63	-18.752001
568	1	3	-0.47527099	-21.125999	-10.453	-19.43
569	1	2	0.77823597	-22.447001	-9.9759998	-19.159
570	1	1	-0.64737397	-23.179001	-10.55	-18.309999
571	1	5	0.316892	-20.561001	-9.9440002	-20.146999
572	1	6	0.043143	-20.662001	-11.502	-17.653
573	1	6	0.043143	-21.191999	-12.516	-19.032
574	1	7	0.078152999	-19.065001	-11.94	-20.267
575	1	7	0.078152999	-18.816	-12.892	-18.777
576	1	7	0.077234998	-17.186001	-10.946	-19.208
577	1	7	0.077234998	-18.527	-9.8070002	-18.877001