Title

351 atoms
368 bonds
608 angles
993 dihedrals
426 impropers

12 atom types
17 bond types
10 angle types
29 dihedral types
3 improper types
-16.29899979 83.70100021 xlo xhi
-7.903999805 92.09600019 ylo yhi
-5.711999893 94.28800011 zlo zhi
0.0 0.0 0.0 xy xz yz

Masses

1	15.99943
2	12.01078
3	14.00672
4	1.007947
5	12.01078
6	1.007947
7	1.007947
8	15.99943
9	1.007947
10	12.01078
11	15.99943
12	1.007947


Pair Coeffs

1	0.2102061	3.0398122
2	0.086879315	3.4806469
3	0.16769152	3.206876
4	0.015611343	2.5725815
5	0.10884061	3.3795318
6	0.014090815	1.1034277
7	0.015779483	2.6445434
8	0.16846514	3.0251065
9	0.016409246	2.5832257
10	0.21	3.3996695
11	0.20947353	2.99716
12	1.2326e-05	0.53453923

Bond Coeffs

1 harmonic	582.698766451	1.225198386222
2 harmonic	492.76746816345	1.381897776683
3 harmonic	301.15400723785	1.345741232799
4 harmonic	390.03554688505	1.390160554689
5 harmonic	505.144496193	1.019481865027
6 harmonic	360.7852444772	1.387193227181
7 harmonic	397.2545789619	1.085358495916
8 harmonic	289.73813263395	1.498646816465
9 harmonic	370.04670688625	1.093899492634
10 harmonic	279.1350963404	1.454628925034
11 harmonic	366.7408841747	1.425895053732
12 harmonic	264.62148576755	1.52190126495
13 harmonic	300.03137914615	1.451203938761
14 harmonic	382.5450169811	1.379244394267
15 harmonic	602.81384337	1.196112346392
16 harmonic	329.96998057905	1.427343958716
17 harmonic	543.5267831885	0.9716763312559


Angle Coeffs

1 harmonic	57.8982893754	126.8062420451
2 harmonic	201.41175231035	127.4691416191
3 harmonic	55.42182150775	117.3465570514
4 harmonic	63.44422595415	115.5071327674
5 harmonic	65.09061609600001	110.3538806181
6 harmonic	34.066775159195	129.1835929926
7 harmonic	53.20531626545	116.5475862634
8 harmonic	48.776492647595	115.6030999533
9 harmonic	55.07882548015	112.8714009681
10 harmonic	33.56981613361	180


Dihedral Coeffs

1 fourier 1	1.809047390003	2	180
2 fourier 1	-0.04816277792592	1	0
3 fourier 1	0.4860993122944	2	180
4 fourier 1	0.8916986138746	1	0
5 fourier 1	1.163809172478	2	180
6 fourier 1	0.1679186987369	1	180
7 fourier 1	1.193093382682	2	180
8 fourier 1	0.1918272375143	3	0
9 fourier 1	0.9202179876409	1	180
10 fourier 1	0.0473758381877	3	0
11 fourier 1	2.779853741805	2	180
12 fourier 1	3.661930099076	2	180
13 fourier 1	0.02664938770063	3	0
14 fourier 1	3.101948770557	2	180
15 fourier 1	-0.4252153282372	1	0
16 fourier 1	0.9974165607242	2	180
17 fourier 1	2.348375642009	2	180
18 fourier 1	1.256156174911	1	0
19 fourier 1	-0.0309670556842	3	0
20 fourier 1	0.4598191477945	2	0
21 fourier 1	0.1115525666802	3	0
22 fourier 1	0.3432490222662	1	0
23 fourier 1	0.1911926717192	3	0
24 fourier 1	0.457973137376	1	0
25 fourier 1	1.550515418264	2	180
26 fourier 1	0	1	0
27 fourier 1	0.3445382149273	3	0
28 fourier 1	0.1364556373303	1	0
29 fourier 1	0.3026390167484	3	0


Improper Coeffs

1 3.5	-1	2
2 0.3333333333333333	-1	2
3 0.3666666666666667	-1	2


Atoms

1	1	1	-0.54183102	5.888	1.24	-0.66600001
2	1	2	0.82199103	5.763	0.13699999	-1.261
3	1	3	-0.467893	4.664	-0.73799998	-0.98100001
4	1	2	0.234227	3.517	-0.37	-0.19499999
5	1	2	-0.36215299	2.8740001	-1.309	0.51999998
6	1	2	-0.136857	1.6849999	-0.95899999	1.324
7	1	2	-0.241096	1.228	0.30500001	1.3430001
8	1	2	-0.136857	1.906	1.335	0.51999998
9	1	2	-0.36215299	2.983	1.017	-0.208
10	1	4	0.22131699	3.4389999	1.776	-0.829
11	1	4	0.219395	1.521	2.346	0.493
12	1	5	-0.049293999	-0.0060000001	0.66500002	2.1259999
13	1	2	-0.241096	-1.234	0.47	1.28
14	1	2	-0.136857	-1.6900001	1.4579999	0.491
15	1	2	-0.37418601	-2.8740001	1.243	-0.366
16	1	2	0.21039499	-3.5139999	0.061000001	-0.36300001
17	1	2	-0.37418601	-2.983	-1.044	0.477
18	1	2	-0.136857	-1.91	-0.84899998	1.253
19	1	4	0.219395	-1.527	-1.666	1.852
20	1	4	0.22131699	-3.4360001	-2.026	0.44600001
21	1	3	-0.50548202	-4.6560001	-0.12899999	-1.216
22	1	2	0.57321697	-5.7550001	-0.995	-0.90799999
23	1	1	-0.59853703	-5.8860002	-1.506	0.235
24	1	6	0.323919	-4.737	0.44999999	-2.082
25	1	4	0.22131699	-3.227	2.056	-0.98799998
26	1	4	0.219395	-1.1950001	2.421	0.47
27	1	7	0.128391	0.061999999	1.72	2.4719999
28	1	7	0.128391	-0.077	0.039999999	3.043
29	1	4	0.219395	1.189	-1.735	1.893
30	1	4	0.22131699	3.2290001	-2.332	0.52700001
31	1	6	0.32780701	4.7480001	-1.726	-1.313
32	1	8	-0.48742399	4.9959998	2.0380001	-3.0150001
33	1	5	0.13955	6.244	1.646	-3.517
34	1	5	0.13955	7.0960002	1.013	-2.4159999
35	1	8	-0.48742399	6.4910002	-0.15800001	-1.938
36	1	9	0.109538	7.2600002	1.74	-1.5880001
37	1	9	0.109538	8.0889997	0.75099999	-2.8369999
38	1	9	0.109538	6.7789998	2.5209999	-3.95
39	1	9	0.109538	6.0869999	0.90600002	-4.3309999
40	1	1	-0.54183102	13.621	7.237	4.6199999
41	1	2	0.82199103	13.271	6.1420002	5.1339998
42	1	3	-0.467893	11.945	5.6279998	4.96
43	1	2	0.234227	10.984	6.1680002	4.0359998
44	1	2	-0.36215299	9.6739998	6.0910001	4.322
45	1	2	-0.136857	8.6669998	6.625	3.382
46	1	2	-0.241096	9.0509996	7.1890001	2.224
47	1	2	-0.136857	10.493	7.2360001	1.8839999
48	1	2	-0.36215299	11.406	6.7529998	2.7349999
49	1	4	0.22131699	12.448	6.7639999	2.4489999
50	1	4	0.219395	10.812	7.6490002	0.935
51	1	5	-0.049293999	8.033	7.6999998	1.242
52	1	2	-0.241096	7.6139998	6.599	0.30700001
53	1	2	-0.136857	8.2950001	6.3629999	-0.82700002
54	1	2	-0.36215299	7.8990002	5.2529998	-1.719
55	1	2	0.234227	6.8499999	4.4710002	-1.4119999
56	1	2	-0.36215299	6.125	4.7059999	-0.13600001
57	1	2	-0.136857	6.4840002	5.711	0.67199999
58	1	4	0.219395	5.9549999	5.8639998	1.604
59	1	4	0.22131699	5.322	4.0479999	0.17
60	1	3	-0.467893	6.493	3.388	-2.2880001
61	1	2	0.82199001	5.1560001	2.902	-2.4630001
62	1	1	-0.54183102	4.1659999	3.5280001	-2
63	1	6	0.32780701	7.2319999	2.9690001	-2.8959999
64	1	4	0.22131699	8.4589996	5.0879998	-2.631
65	1	4	0.219395	9.1429996	6.9790001	-1.101
66	1	7	0.128391	8.4569998	8.5530005	0.66799998
67	1	7	0.128391	7.1440001	8.0979996	1.779
68	1	4	0.219395	7.6170001	6.552	3.6400001
69	1	4	0.22131699	9.3400002	5.6469998	5.2519999
70	1	6	0.32780701	11.647	4.8600001	5.6030002
71	1	8	-0.48742399	14.782	5.5250001	2.9849999
72	1	5	0.13955	15.638	5.2280002	4.0549998
73	1	5	0.13955	15.228	6.0050001	5.3070002
74	1	8	-0.48742399	13.946	5.6220002	5.7259998
75	1	9	0.109538	15.271	7.1009998	5.1129999
76	1	9	0.109538	15.949	5.7779999	6.1209998
77	1	9	0.109538	16.691	5.473	3.7869999
78	1	9	0.109538	15.586	4.1389999	4.2649999
79	1	1	-0.54183102	18.868	16.65	7.375
80	1	2	0.82199103	17.768999	16.400999	7.9380002
81	1	3	-0.467893	16.745001	15.652	7.2719998
82	1	2	0.234227	16.937	14.942	6.0359998
83	1	2	-0.36215299	15.906	14.8	5.1859999
84	1	2	-0.136857	16.075001	14.062	3.9170001
85	1	2	-0.241096	17.261999	13.518	3.5999999
86	1	2	-0.136857	18.389999	13.634	4.5549998
87	1	2	-0.36215299	18.238001	14.302	5.7049999
88	1	4	0.22131699	19.063	14.34	6.4029999
89	1	4	0.219395	19.339001	13.162	4.3319998
90	1	5	-0.049293999	17.434	12.731	2.3299999
91	1	2	-0.241096	17.086	11.286	2.562
92	1	2	-0.136857	18.016001	10.415	2.9920001
93	1	2	-0.36215299	17.653999	9.007	3.2539999
94	1	2	0.234227	16.395	8.5769997	3.0610001
95	1	2	-0.36215299	15.359	9.552	2.628
96	1	2	-0.136857	15.687	10.828	2.3900001
97	1	4	0.219395	14.921	11.53	2.0869999
98	1	4	0.22131699	14.325	9.25	2.5320001
99	1	3	-0.467893	16.063999	7.2059999	3.3369999
100	1	2	0.82199001	15.049	6.4679999	2.645
101	1	1	-0.54183102	14.505	6.921	1.603
102	1	6	0.32780701	16.641001	6.6799998	4.0320001
103	1	4	0.22131699	18.421	8.3219995	3.592
104	1	4	0.219395	19.038	10.733	3.1530001
105	1	7	0.128391	18.482	12.823	1.969
106	1	7	0.128391	16.790001	13.15	1.526
107	1	4	0.219395	15.227	13.966	3.2490001
108	1	4	0.22131699	14.942	15.236	5.415
109	1	6	0.32780701	15.785	15.693	7.6820002
110	1	8	-0.48742399	19.576	14.717	9.0229998
111	1	5	0.13955	19.368999	15.646	10.052
112	1	5	0.13955	18.841	16.966999	9.4899998
113	1	8	-0.48742399	17.589001	16.778999	8.8870001
114	1	9	0.109538	19.569	17.396999	8.7650003
115	1	9	0.109538	18.726	17.691	10.324
116	1	9	0.109538	20.316999	15.826	10.607
117	1	9	0.109538	18.629	15.23	10.768
118	1	1	-0.54183102	25.783001	25.174	5.5830002
119	1	2	0.82199103	24.641001	25.219999	5.0539999
120	1	3	-0.467893	23.952	24.025	4.6659999
121	1	2	0.234227	24.370001	22.698	5.0279999
122	1	2	-0.36215299	24.107	21.671	4.2020001
123	1	2	-0.136857	24.513	20.296	4.559
124	1	2	-0.241096	25.146	20.055	5.7199998
125	1	2	-0.136857	25.398001	21.177	6.6550002
126	1	2	-0.36215299	25.030001	22.423	6.3319998
127	1	4	0.22131699	25.190001	23.219999	7.046
128	1	4	0.219395	25.867001	20.99	7.6129999
129	1	5	-0.049293999	25.528	18.653999	6.112
130	1	2	-0.241096	24.396	17.993	6.8499999
131	1	2	-0.136857	24.275999	18.118999	8.1829996
132	1	2	-0.36215299	23.139	17.497999	8.8920002
133	1	2	0.234227	22.214001	16.795	8.217
134	1	2	-0.36215299	22.323	16.694	6.737
135	1	2	-0.136857	23.354	17.256001	6.0949998
136	1	4	0.219395	23.416	17.184999	5.0159998
137	1	4	0.22131699	21.556	16.194	6.1620002
138	1	3	-0.467893	21.107	16.212999	8.927
139	1	2	0.82199001	20.444	15.005	8.533
140	1	1	-0.54183102	20.919001	14.261	7.6350002
141	1	6	0.32780701	20.806	16.646	9.8290005
142	1	4	0.22131699	23.068001	17.607	9.967
143	1	4	0.219395	25.009001	18.677	8.7530003
144	1	7	0.128391	26.441	18.676001	6.7459998
145	1	7	0.128391	25.789	18.058001	5.21
146	1	4	0.219395	24.292	19.488001	3.8729999
147	1	4	0.22131699	23.606001	21.841	3.2579999
148	1	6	0.32780701	23.139	24.136	4.0190001
149	1	8	-0.48742399	24.277	25.673	7.6880002
150	1	5	0.13955	24.083	26.945	7.1300001
151	1	5	0.13955	24.773001	27.049999	5.77
152	1	8	-0.48742399	24.209999	26.143	4.8610001
153	1	9	0.109538	25.868	26.874001	5.8769999
154	1	9	0.109538	24.634001	28.079	5.375
155	1	9	0.109538	24.476	27.731001	7.8140001
156	1	9	0.109538	22.993	27.118999	7.0029998
157	1	1	-0.54183102	35.780998	29.966999	4.697
158	1	2	0.82199103	35.373001	29.271999	3.73
159	1	3	-0.467893	34.500999	28.153	3.934
160	1	2	0.234227	33.847	27.854	5.1789999
161	1	2	-0.36215299	33.577999	26.577	5.4970002
162	1	2	-0.136857	32.894001	26.246	6.7639999
163	1	2	-0.241096	32.525002	27.222	7.6110001
164	1	2	-0.136857	32.778	28.635	7.243
165	1	2	-0.36215299	33.397999	28.934999	6.0960002
166	1	4	0.22131699	33.537998	29.975	5.8309999
167	1	4	0.219395	32.445999	29.431999	7.8969998
168	1	5	-0.049293999	31.791	26.899	8.8839998
169	1	2	-0.241096	30.308001	26.861	8.6350002
170	1	2	-0.136857	29.566999	27.978001	8.7270002
171	1	2	-0.36215299	28.118	27.938	8.4420004
172	1	2	0.234227	27.521	26.785	8.0939999
173	1	2	-0.36215299	28.351	25.559	7.9510002
174	1	2	-0.136857	29.664	25.596001	8.2089996
175	1	4	0.219395	30.257999	24.698999	8.0889997
176	1	4	0.22131699	27.91	24.634001	7.605
177	1	3	-0.467893	26.112	26.773001	7.8080001
178	1	2	0.82199001	25.253	25.649	8.0369997
179	1	1	-0.54183102	25.646	24.649	8.6949997
180	1	6	0.32780701	25.659	27.656	7.48
181	1	4	0.22131699	27.540001	28.849001	8.5290003
182	1	4	0.219395	30.02	28.921	9.0080004
183	1	7	0.128391	32.033001	27.657	9.6610003
184	1	7	0.128391	32.131001	25.92	9.2880001
185	1	4	0.219395	32.693001	25.207001	6.9959998
186	1	4	0.22131699	33.873001	25.773001	4.8340001
187	1	6	0.32780701	34.402	27.479	3.141
188	1	8	-0.48742399	33.936001	31.555	3.684
189	1	5	0.13955	34.810001	31.722	2.5999999
190	1	5	0.13955	36.054001	30.85	2.7690001
191	1	8	-0.48742399	35.706001	29.490999	2.773
192	1	9	0.109538	36.594002	31.122999	3.704
193	1	9	0.109538	36.741001	31.035999	1.916
194	1	9	0.109538	35.109001	32.791	2.507
195	1	9	0.109538	34.283001	31.434	1.666
196	1	1	-0.54183102	45.209999	34.314999	8.684
197	1	2	0.82199103	45.106998	33.060001	8.651
198	1	3	-0.467893	43.834999	32.415001	8.7880001
199	1	2	0.234227	42.571999	33.101002	8.75
200	1	2	-0.36215299	41.534	32.618999	9.4530001
201	1	2	-0.136857	40.222	33.298	9.4180002
202	1	2	-0.241096	40.050999	34.404999	8.6759996
203	1	2	-0.136857	41.18	34.915001	7.8629999
204	1	2	-0.36215299	42.368999	34.299999	7.8940001
205	1	4	0.22131699	43.167	34.668999	7.2639999
206	1	4	0.219395	41.042	35.780998	7.2270002
207	1	5	-0.049293999	38.709	35.081001	8.6009998
208	1	2	-0.241096	37.884998	34.481998	7.4949999
209	1	2	-0.136857	37.970001	34.956001	6.2399998
210	1	2	-0.36215299	37.186001	34.334999	5.1529999
211	1	2	0.234227	36.373001	33.294998	5.4039998
212	1	2	-0.36215299	36.313999	32.743999	6.7839999
213	1	2	-0.136857	37.025002	33.306999	7.7690001
214	1	4	0.219395	36.980999	32.889	8.7670002
215	1	4	0.22131699	35.723	31.864	7
216	1	3	-0.467893	35.631001	32.696999	4.3270001
217	1	2	0.82199001	34.349998	32.073002	4.4809999
218	1	1	-0.54183102	33.694	32.181	5.5510001
219	1	6	0.32780701	36.002998	32.782001	3.3540001
220	1	4	0.22131699	37.264999	34.738998	4.151
221	1	4	0.219395	38.613998	35.796001	6.0089998
222	1	7	0.128391	38.846001	36.173	8.434
223	1	7	0.128391	38.171001	34.98	9.5690002
224	1	4	0.219395	39.403999	32.888	9.9969997
225	1	4	0.22131699	41.650002	31.732	10.064
226	1	6	0.32780701	43.844002	31.392	9.0010004
227	1	8	-0.48742399	45.459	33.860001	6.099
228	1	5	0.13955	46.701	33.291	6.414
229	1	5	0.13955	46.924999	33.285	7.927
230	1	8	-0.48742399	45.965	32.484001	8.5629997
231	1	9	0.109538	46.900002	34.325001	8.3260002
232	1	9	0.109538	47.931	32.866001	8.1389999
233	1	9	0.109538	47.521999	33.854	5.915
234	1	9	0.109538	46.724998	32.247002	6.0349998
235	1	1	-0.54183102	51.355	42.236	13.502
236	1	2	0.82199103	50.625999	41.522999	14.242
237	1	3	-0.467893	49.394001	40.970001	13.763
238	1	2	0.234227	48.986	40.98	12.384
239	1	2	-0.36215299	47.679001	41.032001	12.08
240	1	2	-0.136857	47.234001	41.028	10.671
241	1	2	-0.241096	48.133999	40.965	9.6750002
242	1	2	-0.136857	49.575001	40.862	10.006
243	1	2	-0.36215299	49.979	40.866001	11.282
244	1	4	0.22131699	51.032001	40.750999	11.5
245	1	4	0.219395	50.307999	40.766998	9.2139997
246	1	5	-0.049293999	47.691002	40.918999	8.2379999
247	1	2	-0.241096	47.452999	39.497002	7.8109999
248	1	2	-0.136857	48.455002	38.75	7.3169999
249	1	2	-0.36215299	48.219002	37.341999	6.9380002
250	1	2	0.234227	47.000999	36.791	7.0760002
251	1	2	-0.36215299	45.904999	37.605	7.664
252	1	2	-0.136857	46.118999	38.881001	8.007
253	1	4	0.219395	45.313999	39.459999	8.4449997
254	1	4	0.22131699	44.933998	37.167	7.8509998
255	1	3	-0.467893	46.799	35.414001	6.7140002
256	1	2	0.82199001	45.563999	34.884998	6.2179999
257	1	1	-0.54183102	44.617001	35.643002	5.8790002
258	1	6	0.32780701	47.617001	34.764	6.7399998
259	1	4	0.22131699	49.041	36.762001	6.5349998
260	1	4	0.219395	49.445999	39.167999	7.1929998
261	1	7	0.128391	48.462002	41.393002	7.5910001
262	1	7	0.128391	46.761002	41.514999	8.1020002
263	1	4	0.219395	46.173	41.074001	10.455
264	1	4	0.22131699	46.935001	41.091	12.864
265	1	6	0.32780701	48.727001	40.606998	14.481
266	1	8	-0.48742399	52.688999	39.963001	13.475
267	1	5	0.13955	52.994999	40.235001	14.816
268	1	5	0.13955	52.299999	41.515999	15.279
269	1	8	-0.48742399	50.907001	41.366001	15.228
270	1	9	0.109538	52.627998	42.380001	14.658
271	1	9	0.109538	52.594002	41.723	16.33
272	1	9	0.109538	54.096001	40.334999	14.949
273	1	9	0.109538	52.653	39.383999	15.442
274	1	1	-0.54183102	56.894001	51.877998	13.745
275	1	2	0.82282102	55.638	51.917	13.826
276	1	3	-0.467893	54.82	50.924	13.195
277	1	2	0.234227	55.326	49.707001	12.62
278	1	2	-0.36215299	54.692001	49.154999	11.572
279	1	2	-0.136857	55.183998	47.896999	10.974
280	1	2	-0.241096	56.27	47.285	11.477
281	1	2	-0.136857	56.945999	47.866001	12.661
282	1	2	-0.36215299	56.5	49.006001	13.203
283	1	4	0.22131699	56.987	49.389999	14.09
284	1	4	0.219395	57.794998	47.359001	13.103
285	1	5	-0.049293999	56.755001	45.983002	10.901
286	1	2	-0.241096	56.068001	44.827	11.575
287	1	2	-0.136857	56.570999	44.287998	12.699
288	1	2	-0.36215299	55.866001	43.179001	13.374
289	1	2	0.234227	54.719002	42.691002	12.873
290	1	2	-0.36215299	54.140999	43.318001	11.654
291	1	2	-0.136857	54.779999	44.323002	11.042
292	1	4	0.219395	54.341999	44.778	10.163
293	1	4	0.22131699	53.183998	42.992001	11.269
294	1	3	-0.467893	54.043999	41.620998	13.556
295	1	2	0.82199001	53.245998	40.625999	12.903
296	1	1	-0.54183102	53.243	40.508999	11.649
297	1	6	0.32780701	54.195999	41.507	14.584
298	1	4	0.22131699	56.294998	42.756001	14.274
299	1	4	0.219395	57.494999	44.659	13.124
300	1	7	0.128391	57.856998	45.903	11.027
301	1	7	0.128391	56.563	45.949001	9.8059998
302	1	4	0.219395	54.654999	47.476002	10.127
303	1	4	0.22131699	53.82	49.633999	11.144
304	1	6	0.32780701	53.804001	51.146	13.087
305	1	8	-0.111995	56.522999	50.998001	16.202999
306	1	5	0.059827	56.125999	52.306999	16.511
307	1	5	0.14055	56.124001	53.181	15.256
308	1	8	-0.485719	55.187	52.706001	14.327
309	1	9	0.113493	57.143002	53.216	14.808
310	1	9	0.113493	55.845001	54.216999	15.541
311	1	9	0.112714	56.805	52.748001	17.275
312	1	9	0.112714	55.102001	52.279999	16.941
313	1	1	-0.59853703	-6.1880002	-1.151	-2.8770001
314	1	2	0.57321697	-6.5110002	-1.184	-1.66
315	1	3	-0.50548202	-7.8660002	-1.416	-1.2539999
316	1	2	0.21039499	-8.927	-1.813	-2.141
317	1	2	-0.37418601	-8.7119999	-2.6530001	-3.171
318	1	2	-0.136857	-9.8310003	-3.069	-4.0419998
319	1	2	-0.241096	-11.076	-2.618	-3.8110001
320	1	2	-0.136857	-11.32	-1.723	-2.655
321	1	2	-0.37418601	-10.306	-1.347	-1.8660001
322	1	4	0.22131699	-10.497	-0.69400001	-1.024
323	1	4	0.219395	-12.322	-1.373	-2.4419999
324	1	5	-0.049293999	-12.228	-3.069	-4.6659999
325	1	2	-0.25523299	-12.841	-4.3189998	-4.0939999
326	1	2	-0.18217599	-12.39	-5.5320001	-4.4559999
327	1	2	-0.25258601	-12.971	-6.7529998	-3.859
328	1	2	0.44377199	-13.943	-6.665	-2.9389999
329	1	2	-0.25258601	-14.431	-5.3210001	-2.5250001
330	1	2	-0.18217599	-13.908	-4.2160001	-3.0710001
331	1	4	0.205742	-14.268	-3.244	-2.7590001
332	1	4	0.213073	-15.21	-5.224	-1.78
333	1	3	-0.32749	-14.48	-7.8730001	-2.3800001
334	1	10	0.616032	-15.402	-7.888	-1.503
335	1	1	-0.27710801	-16.299	-7.9039998	-0.64999998
336	1	4	0.213073	-12.599	-7.7210002	-4.171
337	1	4	0.205742	-11.595	-5.632	-5.1849999
338	1	7	0.128391	-12.995	-2.266	-4.7150002
339	1	7	0.128391	-11.892	-3.243	-5.7119999
340	1	4	0.219395	-9.6330004	-3.7479999	-4.862
341	1	4	0.22131699	-7.73	-3.066	-3.3610001
342	1	6	0.323919	-8.1120005	-1.182	-0.26699999
343	1	8	-0.106487	57.506001	51.023998	16.069
344	1	5	0.030187	57.825001	49.945	15.233
345	1	5	0.102238	57.429001	50.244999	13.787
346	1	11	-0.66836399	58.155998	51.338001	13.294
347	1	12	0.410173	57.702999	52.155998	13.629
348	1	9	0.112279	56.333	50.433998	13.718
349	1	9	0.112279	57.658001	49.356998	13.161
350	1	9	0.11344	57.310001	49.021	15.581
351	1	9	0.11344	58.919998	49.763	15.284

Bonds

1	1	1	2
2	2	2	3
3	3	2	35
4	4	3	4
5	5	3	31
6	6	4	5
7	6	4	9
8	6	5	6
9	7	5	30
10	6	6	7
11	7	6	29
12	6	7	8
13	8	7	12
14	6	8	9
15	7	8	11
16	7	9	10
17	8	12	13
18	9	12	27
19	9	12	28
20	6	13	14
21	6	13	18
22	6	14	15
23	7	14	26
24	6	15	16
25	7	15	25
26	6	16	17
27	4	16	21
28	6	17	18
29	7	17	20
30	7	18	19
31	2	21	22
32	5	21	24
33	1	22	23
34	10	22	314
35	11	32	33
36	3	32	61
37	12	33	34
38	9	33	38
39	9	33	39
40	11	34	35
41	9	34	36
42	9	34	37
43	1	40	41
44	2	41	42
45	3	41	74
46	4	42	43
47	5	42	70
48	6	43	44
49	6	43	48
50	6	44	45
51	7	44	69
52	6	45	46
53	7	45	68
54	6	46	47
55	8	46	51
56	6	47	48
57	7	47	50
58	7	48	49
59	8	51	52
60	9	51	66
61	9	51	67
62	6	52	53
63	6	52	57
64	6	53	54
65	7	53	65
66	6	54	55
67	7	54	64
68	6	55	56
69	4	55	60
70	6	56	57
71	7	56	59
72	7	57	58
73	2	60	61
74	5	60	63
75	1	61	62
76	11	71	72
77	3	71	100
78	12	72	73
79	9	72	77
80	9	72	78
81	11	73	74
82	9	73	75
83	9	73	76
84	1	79	80
85	2	80	81
86	3	80	113
87	4	81	82
88	5	81	109
89	6	82	83
90	6	82	87
91	6	83	84
92	7	83	108
93	6	84	85
94	7	84	107
95	6	85	86
96	8	85	90
97	6	86	87
98	7	86	89
99	7	87	88
100	8	90	91
101	9	90	105
102	9	90	106
103	6	91	92
104	6	91	96
105	6	92	93
106	7	92	104
107	6	93	94
108	7	93	103
109	6	94	95
110	4	94	99
111	6	95	96
112	7	95	98
113	7	96	97
114	2	99	100
115	5	99	102
116	1	100	101
117	11	110	111
118	3	110	139
119	12	111	112
120	9	111	116
121	9	111	117
122	11	112	113
123	9	112	114
124	9	112	115
125	1	118	119
126	2	119	120
127	3	119	152
128	4	120	121
129	5	120	148
130	6	121	122
131	6	121	126
132	6	122	123
133	7	122	147
134	6	123	124
135	7	123	146
136	6	124	125
137	8	124	129
138	6	125	126
139	7	125	128
140	7	126	127
141	8	129	130
142	9	129	144
143	9	129	145
144	6	130	131
145	6	130	135
146	6	131	132
147	7	131	143
148	6	132	133
149	7	132	142
150	6	133	134
151	4	133	138
152	6	134	135
153	7	134	137
154	7	135	136
155	2	138	139
156	5	138	141
157	1	139	140
158	11	149	150
159	3	149	178
160	12	150	151
161	9	150	155
162	9	150	156
163	11	151	152
164	9	151	153
165	9	151	154
166	1	157	158
167	2	158	159
168	3	158	191
169	4	159	160
170	5	159	187
171	6	160	161
172	6	160	165
173	6	161	162
174	7	161	186
175	6	162	163
176	7	162	185
177	6	163	164
178	8	163	168
179	6	164	165
180	7	164	167
181	7	165	166
182	8	168	169
183	9	168	183
184	9	168	184
185	6	169	170
186	6	169	174
187	6	170	171
188	7	170	182
189	6	171	172
190	7	171	181
191	6	172	173
192	4	172	177
193	6	173	174
194	7	173	176
195	7	174	175
196	2	177	178
197	5	177	180
198	1	178	179
199	11	188	189
200	3	188	217
201	12	189	190
202	9	189	194
203	9	189	195
204	11	190	191
205	9	190	192
206	9	190	193
207	1	196	197
208	2	197	198
209	3	197	230
210	4	198	199
211	5	198	226
212	6	199	200
213	6	199	204
214	6	200	201
215	7	200	225
216	6	201	202
217	7	201	224
218	6	202	203
219	8	202	207
220	6	203	204
221	7	203	206
222	7	204	205
223	8	207	208
224	9	207	222
225	9	207	223
226	6	208	209
227	6	208	213
228	6	209	210
229	7	209	221
230	6	210	211
231	7	210	220
232	6	211	212
233	4	211	216
234	6	212	213
235	7	212	215
236	7	213	214
237	2	216	217
238	5	216	219
239	1	217	218
240	11	227	228
241	3	227	256
242	12	228	229
243	9	228	233
244	9	228	234
245	11	229	230
246	9	229	231
247	9	229	232
248	1	235	236
249	2	236	237
250	3	236	269
251	4	237	238
252	5	237	265
253	6	238	239
254	6	238	243
255	6	239	240
256	7	239	264
257	6	240	241
258	7	240	263
259	6	241	242
260	8	241	246
261	6	242	243
262	7	242	245
263	7	243	244
264	8	246	247
265	9	246	261
266	9	246	262
267	6	247	248
268	6	247	252
269	6	248	249
270	7	248	260
271	6	249	250
272	7	249	259
273	6	250	251
274	4	250	255
275	6	251	252
276	7	251	254
277	7	252	253
278	2	255	256
279	5	255	258
280	1	256	257
281	11	266	267
282	3	266	295
283	12	267	268
284	9	267	272
285	9	267	273
286	11	268	269
287	9	268	270
288	9	268	271
289	1	274	275
290	2	275	276
291	3	275	308
292	4	276	277
293	5	276	304
294	6	277	278
295	6	277	282
296	6	278	279
297	7	278	303
298	6	279	280
299	7	279	302
300	6	280	281
301	8	280	285
302	6	281	282
303	7	281	284
304	7	282	283
305	8	285	286
306	9	285	300
307	9	285	301
308	6	286	287
309	6	286	291
310	6	287	288
311	7	287	299
312	6	288	289
313	7	288	298
314	6	289	290
315	4	289	294
316	6	290	291
317	7	290	293
318	7	291	292
319	2	294	295
320	5	294	297
321	1	295	296
322	11	305	306
323	13	305	343
324	12	306	307
325	9	306	311
326	9	306	312
327	11	307	308
328	9	307	309
329	9	307	310
330	1	313	314
331	2	314	315
332	4	315	316
333	5	315	342
334	6	316	317
335	6	316	321
336	6	317	318
337	7	317	341
338	6	318	319
339	7	318	340
340	6	319	320
341	8	319	324
342	6	320	321
343	7	320	323
344	7	321	322
345	8	324	325
346	9	324	338
347	9	324	339
348	6	325	326
349	6	325	330
350	6	326	327
351	7	326	337
352	6	327	328
353	7	327	336
354	6	328	329
355	14	328	333
356	6	329	330
357	7	329	332
358	7	330	331
359	15	333	334
360	1	334	335
361	11	343	344
362	12	344	345
363	9	344	350
364	9	344	351
365	16	345	346
366	9	345	348
367	9	345	349
368	17	346	347

Angles

1	1	21	22	314
2	6	94	93	103
3	2	79	80	113
4	8	77	72	78
5	6	53	54	64
6	1	51	52	57
7	7	113	112	115
8	3	94	99	100
9	6	252	251	254
10	6	160	161	186
11	1	196	197	198
12	1	199	200	201
13	6	247	248	260
14	2	32	61	62
15	1	210	211	212
16	7	32	33	39
17	8	114	112	115
18	6	165	164	167
19	6	202	203	206
20	1	198	197	230
21	7	319	324	338
22	7	72	73	75
23	1	324	325	330
24	1	327	328	333
25	6	201	200	225
26	4	172	177	180
27	6	85	84	107
28	7	110	111	117
29	7	268	267	272
30	7	345	344	350
31	8	116	111	117
32	8	27	12	28
33	6	4	9	10
34	6	52	53	65
35	8	36	34	37
36	6	320	321	322
37	1	71	100	99
38	3	133	138	139
39	1	160	165	164
40	6	239	240	263
41	5	80	113	112
42	6	316	317	341
43	1	287	288	289
44	1	120	119	152
45	7	305	306	312
46	4	121	120	148
47	1	278	279	280
48	6	281	282	283
49	7	227	228	233
50	1	188	217	216
51	7	163	168	169
52	7	230	229	232
53	1	82	83	84
54	1	118	119	120
55	1	278	277	282
56	1	281	280	285
57	7	343	344	345
58	6	247	252	253
59	1	5	4	9
60	4	295	294	297
61	1	317	316	321
62	1	129	130	135
63	1	91	92	93
64	1	94	95	96
65	1	132	133	134
66	6	82	87	88
67	5	2	35	34
68	6	328	327	336
69	1	290	289	294
70	6	44	45	68
71	7	188	189	194
72	6	164	165	166
73	4	256	255	258
74	6	277	282	283
75	6	203	204	205
76	6	57	56	59
77	7	71	72	73
78	1	40	41	42
79	1	6	7	12
80	1	251	250	255
81	1	15	16	21
82	7	267	268	269
83	1	42	43	48
84	1	168	169	174
85	8	233	228	234
86	6	209	210	220
87	1	54	55	56
88	7	346	345	349
89	1	121	122	123
90	7	130	129	145
91	6	243	242	245
92	3	250	255	256
93	6	17	18	19
94	2	1	2	35
95	7	113	112	114
96	4	139	138	141
97	1	325	330	329
98	6	46	45	68
99	7	169	168	184
100	10	333	334	335
101	6	199	204	205
102	1	201	202	207
103	1	52	57	56
104	6	124	125	128
105	1	4	5	6
106	1	81	82	83
107	1	170	171	172
108	6	82	83	108
109	8	105	90	106
110	7	32	33	38
111	1	248	247	252
112	4	236	237	265
113	1	238	243	242
114	1	289	290	291
115	1	131	132	133
116	6	171	170	182
117	5	228	227	256
118	7	72	73	74
119	7	308	307	310
120	7	343	344	351
121	6	319	320	323
122	1	276	275	308
123	1	161	160	165
124	2	196	197	230
125	7	110	111	116
126	8	153	151	154
127	6	124	123	146
128	4	160	159	187
129	7	325	324	339
130	7	269	268	271
131	1	125	124	129
132	6	95	96	97
133	7	306	307	310
134	7	52	51	66
135	6	5	6	29
136	7	149	150	156
137	7	229	228	234
138	1	235	236	237
139	6	45	44	69
140	1	134	133	138
141	4	316	315	342
142	1	248	249	250
143	8	270	268	271
144	3	236	237	238
145	7	112	111	116
146	1	120	121	126
147	1	123	124	129
148	6	163	162	185
149	1	288	289	294
150	8	300	285	301
151	1	85	86	87
152	1	211	212	213
153	8	348	345	349
154	7	228	229	231
155	1	159	158	191
156	1	169	174	173
157	1	51	52	53
158	6	91	96	97
159	1	266	295	294
160	6	14	15	25
161	1	12	13	18
162	7	266	267	273
163	6	83	84	107
164	4	82	81	109
165	6	87	86	89
166	6	213	212	215
167	6	288	287	299
168	6	131	132	142
169	8	309	307	310
170	1	157	158	159
171	1	160	161	162
172	6	208	209	221
173	8	350	344	351
174	1	122	123	124
175	7	344	345	346
176	7	202	207	223
177	1	45	46	51
178	1	171	172	177
179	6	123	122	147
180	1	198	199	204
181	1	7	8	9
182	1	22	314	315
183	1	313	314	315
184	5	236	269	268
185	7	85	90	105
186	1	23	22	314
187	6	163	164	167
188	6	121	126	127
189	7	346	345	348
190	1	53	52	57
191	6	286	287	299
192	1	324	325	326
193	1	327	328	329
194	1	43	48	47
195	1	274	275	276
196	7	286	285	301
197	6	249	248	260
198	7	169	168	183
199	7	111	112	113
200	7	280	285	286
201	1	86	85	90
202	1	247	248	249
203	7	150	151	154
204	1	239	238	243
205	1	250	251	252
206	2	40	41	74
207	7	189	190	193
208	5	275	308	307
209	6	125	126	127
210	6	289	288	298
211	6	200	201	224
212	1	90	91	96
213	1	133	134	135
214	3	289	294	295
215	1	238	239	240
216	1	329	328	333
217	7	227	228	229
218	7	308	307	309
219	7	343	344	350
220	6	317	318	340
221	7	13	12	28
222	1	149	178	177
223	7	73	72	78
224	1	325	326	327
225	7	7	12	28
226	1	129	130	131
227	6	86	87	88
228	1	92	93	94
229	4	41	42	70
230	7	269	268	270
231	1	16	17	18
232	1	52	53	54
233	1	55	56	57
234	1	92	91	96
235	2	118	119	152
236	7	188	189	190
237	5	189	188	217
238	1	208	213	212
239	6	287	288	298
240	1	285	286	291
241	7	149	150	155
242	7	71	72	78
243	6	238	239	264
244	7	229	228	233
245	3	119	120	121
246	8	261	246	262
247	7	33	34	35
248	1	241	242	243
249	6	13	14	26
250	1	15	16	17
251	1	42	43	44
252	1	168	169	170
253	7	85	90	91
254	3	211	216	217
255	7	91	90	106
256	7	46	51	67
257	1	249	250	255
258	7	228	229	230
259	6	279	278	303
260	6	327	326	337
261	6	290	291	292
262	1	328	329	330
263	4	119	120	148
264	1	82	87	86
265	1	110	139	138
266	1	201	202	203
267	7	266	267	272
268	6	8	9	10
269	6	330	329	332
270	7	151	150	155
271	4	133	138	141
272	6	160	165	166
273	1	162	163	168
274	7	34	33	38
275	3	41	42	43
276	1	79	80	81
277	1	6	7	8
278	6	93	92	104
279	7	319	324	325
280	7	202	207	222
281	7	32	33	34
282	6	251	252	253
283	7	208	207	222
284	7	241	246	261
285	1	315	316	321
286	1	44	43	48
287	6	211	210	220
288	2	188	217	218
289	1	3	2	35
290	7	152	151	153
291	1	84	85	90
292	1	21	22	23
293	6	326	327	336
294	7	124	129	145
295	1	4	9	8
296	6	169	170	182
297	1	276	277	282
298	1	169	170	171
299	7	110	111	112
300	7	286	285	300
301	1	130	135	134
302	1	242	241	246
303	6	94	95	98
304	3	314	315	316
305	1	317	318	319
306	6	170	171	181
307	7	189	190	192
308	7	35	34	37
309	5	119	152	151
310	7	344	345	349
311	6	7	6	29
312	7	305	306	307
313	7	163	168	184
314	1	318	319	324
315	1	13	18	17
316	7	267	268	271
317	6	278	279	302
318	6	43	44	69
319	1	120	121	122
320	7	13	12	27
321	1	123	124	125
322	6	48	47	50
323	1	288	289	290
324	4	250	255	258
325	5	345	346	347
326	7	73	72	77
327	8	66	51	67
328	6	135	134	137
329	6	325	326	337
330	1	46	47	48
331	1	172	173	174
332	1	209	208	213
333	6	130	131	143
334	6	250	249	259
335	7	7	12	27
336	3	16	21	22
337	6	210	209	221
338	1	12	13	14
339	6	174	173	176
340	6	52	57	58
341	3	55	60	61
342	6	280	281	284
343	1	286	291	290
344	3	275	276	277
345	4	275	276	304
346	1	159	160	165
347	1	237	238	243
348	6	280	279	302
349	7	305	306	311
350	1	45	46	47
351	1	171	172	173
352	7	202	207	208
353	1	198	199	200
354	6	238	243	244
355	7	241	246	247
356	6	248	249	259
357	1	246	247	252
358	5	267	266	295
359	4	61	60	63
360	6	289	290	293
361	1	286	287	288
362	7	72	73	76
363	4	158	159	187
364	7	230	229	231
365	6	56	57	58
366	7	91	90	105
367	7	46	51	66
368	6	16	15	25
369	1	56	55	60
370	7	268	267	273
371	6	321	320	323
372	9	328	333	334
373	7	345	344	351
374	1	91	96	95
375	3	158	159	160
376	1	161	162	163
377	1	99	100	101
378	8	311	306	312
379	1	285	286	287
380	1	47	46	51
381	1	208	209	210
382	1	1	2	3
383	5	158	191	190
384	1	227	256	255
385	7	74	73	76
386	1	90	91	92
387	1	83	82	87
388	1	93	94	99
389	1	326	325	330
390	1	294	295	296
391	7	190	189	195
392	1	81	80	113
393	6	7	8	11
394	6	134	135	136
395	1	316	321	320
396	7	124	129	144
397	6	85	86	89
398	6	211	212	215
399	7	130	129	144
400	6	169	174	175
401	5	150	149	178
402	7	247	246	262
403	5	33	32	61
404	5	305	343	344
405	6	6	5	30
406	2	266	295	296
407	7	7	12	13
408	7	191	190	193
409	6	282	281	284
410	4	2	3	31
411	1	14	13	18