Title

215 atoms
236 bonds
391 angles
603 dihedrals
348 impropers

10 atom types
13 bond types
8 angle types
17 dihedral types
3 improper types
-20.68400002 79.31599998 xlo xhi
-7.171999931 92.82800007 ylo yhi
-4.910999775 95.08900023 zlo zhi
0.0 0.0 0.0 xy xz yz

Masses

1	14.00672
2	12.01078
3	1.007947
4	15.99943
5	1.007947
6	12.01078
7	18.998403
8	15.99943
9	15.99943
10	1.007947


Pair Coeffs

1	0.16769152	3.206876
2	0.086879315	3.4806469
3	0.015611343	2.5725815
4	0.16846514	3.0251065
5	0.014090815	1.1034277
6	0.10884061	3.3795318
7	0.061	3.1181455
8	0.2102061	3.0398122
9	0.20947353	2.99716
10	1.2326e-05	0.53453923

Bond Coeffs

1 harmonic	390.03554688505	1.390160554689
2 harmonic	505.144496193	1.019481865027
3 harmonic	422.7150220147	1.421786517481
4 harmonic	360.7852444772	1.387193227181
5 harmonic	397.2545789619	1.085358495916
6 harmonic	279.1350963404	1.454628925034
7 harmonic	425.69104206635	1.362945806494
8 harmonic	289.73813263395	1.498646816465
9 harmonic	492.76746816345	1.381897776683
10 harmonic	340.45121009905	1.358690858053
11 harmonic	582.698766451	1.225198386222
12 harmonic	385.7604595587	1.369745182308
13 harmonic	543.5267831885	0.9716763312559


Angle Coeffs

1 harmonic	57.8982893754	126.8062420451
2 harmonic	55.42182150775	117.3465570514
3 harmonic	63.44422595415	115.5071327674
4 harmonic	34.066775159195	129.1835929926
5 harmonic	65.09061609600001	110.3538806181
6 harmonic	53.20531626545	116.5475862634
7 harmonic	79.1895422237	112.4630193006
8 harmonic	201.41175231035	127.4691416191


Dihedral Coeffs

1 fourier 1	3.661930099076	2	180
2 fourier 1	1.193093382682	2	180
3 fourier 1	0.02021088501612	1	0
4 fourier 1	1.163235555439	2	180
5 fourier 1	1.532232714475	2	180
6 fourier 1	0.02664938770063	3	0
7 fourier 1	1.659715194912	2	180
8 fourier 1	3.101948770557	2	180
9 fourier 1	-0.4252153282372	1	0
10 fourier 1	1.809047390003	2	180
11 fourier 1	-0.04816277792592	1	0
12 fourier 1	0.9974165607242	2	180
13 fourier 1	2.348375642009	2	180
14 fourier 1	1.256156174911	1	0
15 fourier 1	2.687457892086	2	180
16 fourier 1	2.772607909663	2	180
17 fourier 1	0.09692684957115	1	0


Improper Coeffs

1 0.3666666666666667	-1	2
2 0.3333333333333333	-1	2
3 3.5	-1	2


Atoms

1	1	1	-0.41260099	13.227	3.1159999	2.0409999
2	1	2	0.12519	11.882	2.905	1.597
3	1	2	-0.40804401	11.631	2.575	0.324
4	1	3	0.22006001	12.443	2.473	-0.384
5	1	2	-0.116096	10.238	2.3789999	-0.14399999
6	1	3	0.20262299	10.074	2.151	-1.188
7	1	2	-0.129224	9.2060003	2.516	0.70999998
8	1	2	-0.135423	7.802	2.3659999	0.24600001
9	1	2	-0.13141	6.8449998	3.201	0.69
10	1	3	0.205918	7.0780001	3.997	1.388
11	1	2	-0.29741099	5.454	3.0599999	0.23100001
12	1	3	0.222679	4.7010002	3.7360001	0.61500001
13	1	2	0.32761499	5.1170001	2.1040001	-0.64499998
14	1	4	-0.28286901	3.777	2.0009999	-1.031
15	1	2	0.29910299	2.9119999	0.96200001	-0.65700001
16	1	2	-0.32167399	3.2809999	-0.028999999	0.178
17	1	3	0.229132	4.2740002	-0.056000002	0.61299998
18	1	2	-0.106181	2.3269999	-1.104	0.51999998
19	1	3	0.21212099	2.6570001	-1.891	1.1900001
20	1	2	-0.112152	1.0779999	-1.114	0.003
21	1	2	0.24165399	0.66799998	0.0089999996	-0.88599998
22	1	2	-0.32414901	1.54	0.97299999	-1.201
23	1	3	0.225638	1.24	1.777	-1.862
24	1	4	-0.30591699	-0.625	0.082000002	-1.398
25	1	2	0.24165399	-1.573	-0.91900003	-1.189
26	1	2	-0.32415	-2.7909999	-0.78399998	-1.7309999
27	1	3	0.225638	-3.029	0.098999999	-2.309
28	1	2	0.29910299	-3.7950001	-1.8609999	-1.596
29	1	4	-0.28286901	-5.0539999	-1.728	-2.1889999
30	1	2	0.32761499	-6.006	-0.76800001	-1.806
31	1	2	-0.29741099	-5.9879999	-0.212	-0.579
32	1	3	0.222679	-5.2199998	-0.47	0.138
33	1	2	-0.13141	-7.0580001	0.70999998	-0.15800001
34	1	3	0.205918	-7.02	1.1289999	0.83999997
35	1	2	-0.135423	-8.0629997	1.017	-0.99599999
36	1	2	-0.129224	-9.1610003	1.921	-0.57499999
37	1	2	-0.130078	-9.7209997	1.813	0.64600003
38	1	3	0.20262299	-9.3870001	1.063	1.349
39	1	2	-0.37622499	-10.835	2.6989999	1.04
40	1	3	0.216571	-11.273	2.5910001	2.023
41	1	2	0.197478	-11.309	3.612	0.178
42	1	1	-0.53278399	-12.397	4.4619999	0.551
43	1	5	0.318744	-12.83	4.3930001	1.5
44	1	2	-0.37622499	-10.697	3.7379999	-1.1619999
45	1	3	0.216571	-11.065	4.48	-1.859
46	1	2	-0.130078	-9.6809998	2.9430001	-1.518
47	1	3	0.20262299	-9.2340002	3.0569999	-2.4990001
48	1	2	-0.058428999	-8.0600004	0.442	-2.3670001
49	1	3	0.205001	-8.8620005	0.70999998	-3.0439999
50	1	2	-0.32337499	-7.0890002	-0.40799999	-2.7609999
51	1	6	0.76597601	-7.0609999	-0.98500001	-4.158
52	1	7	-0.20968699	-5.9159999	-0.56400001	-4.802
53	1	7	-0.20968699	-8.1549997	-0.58499998	-4.9109998
54	1	7	-0.20968699	-7.0580001	-2.368	-4.0929999
55	1	2	-0.32167399	-3.4879999	-2.973	-0.91900003
56	1	3	0.229132	-4.2189999	-3.7639999	-0.81900001
57	1	2	-0.106181	-2.171	-3.0999999	-0.264
58	1	3	0.21212099	-1.982	-3.9779999	0.34099999
59	1	2	-0.112152	-1.238	-2.132	-0.389
60	1	6	0.098655999	0.090999998	-2.223	0.35800001
61	1	2	0.043260001	-0.163	-2.237	1.854
62	1	2	-0.134114	-0.713	-1.271	2.5999999
63	1	3	0.215157	-1.034	-0.34099999	2.151
64	1	2	-0.262227	-0.87099999	-1.5039999	4.059
65	1	3	0.22069301	-1.3049999	-0.73000002	4.678
66	1	2	-0.23246799	-0.472	-2.6670001	4.612
67	1	3	0.215387	-0.59500003	-2.8269999	5.6750002
68	1	2	-0.17166001	0.133	-3.7309999	3.773
69	1	3	0.20192	0.45699999	-4.664	4.2160001
70	1	2	-0.015289	0.264	-3.494	2.4619999
71	1	2	-0.015289	0.81400001	-4.3299999	1.415
72	1	2	-0.17166001	1.334	-5.5599999	1.48
73	1	3	0.20192	1.385	-6.1009998	2.4159999
74	1	2	-0.23246799	1.824	-6.1760001	0.222
75	1	3	0.215387	2.2460001	-7.1719999	0.243
76	1	2	-0.26222599	1.742	-5.5029998	-0.94499999
77	1	3	0.22069301	2.098	-5.9590001	-1.86
78	1	2	-0.134114	1.16	-4.1360002	-0.986
79	1	3	0.215157	1.0779999	-3.5999999	-1.923
80	1	2	0.043260001	0.72500002	-3.5910001	0.15700001
81	1	2	-0.32337499	6.1729999	1.201	-1.204
82	1	6	0.76597601	5.849	0.134	-2.2279999
83	1	7	-0.20968699	4.73	0.47099999	-2.9649999
84	1	7	-0.20968699	6.9029999	-0.02	-3.1099999
85	1	7	-0.20968699	5.6199999	-1.068	-1.582
86	1	2	-0.058428999	7.4349999	1.312	-0.73900002
87	1	3	0.205001	8.2019997	0.62599999	-1.08
88	1	2	-0.116096	9.493	2.852	2.1289999
89	1	3	0.20262299	8.6809998	2.9419999	2.8380001
90	1	2	-0.40804401	10.754	3.0369999	2.5450001
91	1	3	0.22006001	10.942	3.2750001	3.5840001
92	1	5	0.371878	14.027	3.0569999	1.374
93	1	2	0.76758301	-12.779	5.184	-0.131
94	1	8	-0.66111201	-11.987	6.0240002	-0.63499999
95	1	2	-0.382038	-14.211	5.1950002	-0.47600001
96	1	2	-0.104037	-15.042	4.2909999	0.07
97	1	3	0.21809199	-14.673	3.5480001	0.76700002
98	1	2	-0.040759999	-16.48	4.296	-0.27000001
99	1	3	0.213948	-17.127001	3.5550001	0.186
100	1	2	-0.352633	-16.973	5.2030001	-1.13
101	1	2	0.59136802	-18.409	5.1999998	-1.464
102	1	8	-0.53093702	-18.886	6.0430002	-2.2679999
103	1	2	-0.040759999	-16.056999	6.2020001	-1.735
104	1	3	0.213948	-16.434999	6.941	-2.4300001
105	1	2	-0.104037	-14.754	6.198	-1.426
106	1	3	0.21809199	-14.1	6.934	-1.877
107	1	1	-0.41260099	13.426	3.362	3.0380001
108	1	2	0.12519	12.355	3.573	3.9649999
109	1	2	-0.40804401	12.613	3.9030001	5.237
110	1	3	0.22006001	13.635	4.0050001	5.5780001
111	1	2	-0.116096	11.507	4.099	6.204
112	1	3	0.20262299	11.757	4.3270001	7.2309999
113	1	2	-0.129224	10.226	3.9619999	5.8119998
114	1	2	-0.135423	9.1079998	4.112	6.7810001
115	1	2	-0.13141	8.0539999	3.277	6.7389998
116	1	3	0.205918	8.0010004	2.4809999	6.0050001
117	1	2	-0.29741099	6.9460001	3.418	7.697
118	1	3	0.222679	6.1040001	2.7420001	7.632
119	1	2	0.32761499	6.9720001	4.3740001	8.6350002
120	1	4	-0.28286901	5.8839998	4.4770002	9.507
121	1	2	0.29910299	4.941	5.5159998	9.4940004
122	1	2	-0.32167399	4.961	6.507	8.5810003
123	1	3	0.229132	5.71	6.5339999	7.7979999
124	1	2	-0.106181	3.9489999	7.5819998	8.632
125	1	3	0.21212099	3.9949999	8.3690004	7.8870001
126	1	2	-0.112152	2.9949999	7.5910001	9.5900002
127	1	2	0.24165399	2.957	6.4689999	10.568
128	1	2	-0.32414901	3.8840001	5.5040002	10.524
129	1	3	0.225638	3.8610001	4.7010002	11.249
130	1	4	-0.30591699	1.961	6.3959999	11.538
131	1	2	0.24165399	1.005	7.3969998	11.709
132	1	2	-0.32415	0.089000002	7.2620001	12.678
133	1	3	0.225638	0.092	6.3790002	13.303
134	1	2	0.29910299	-0.889	8.3389997	12.939
135	1	4	-0.28286901	-1.824	8.2060003	13.97
136	1	2	0.32761499	-2.8499999	7.2459998	13.983
137	1	2	-0.29741099	-3.3050001	6.6900001	12.843
138	1	3	0.222679	-2.872	6.948	11.886
139	1	2	-0.13141	-4.454	5.7680001	12.866
140	1	3	0.205918	-4.803	5.349	11.93
141	1	2	-0.135423	-5.0599999	5.461	14.026
142	1	2	-0.129224	-6.2350001	4.5570002	14.059
143	1	2	-0.079512998	-7.2220001	4.665	13.148
144	1	3	0.20262299	-7.184	5.415	12.37
145	1	2	-0.45215699	-8.4020004	3.779	13.212
146	1	3	0.22852799	-9.184	3.8870001	12.473
147	1	2	0.31609899	-8.5089998	2.8659999	14.19
148	1	1	-0.84539902	-9.6560001	2.016	14.264
149	1	5	0.365035	-9.7440004	1.307	15.027
150	1	5	0.365035	-10.42	2.085	13.554
151	1	2	-0.45215699	-7.428	2.74	15.191
152	1	3	0.22852799	-7.5	1.998	15.977
153	1	2	-0.079512998	-6.3530002	3.5350001	15.13
154	1	3	0.20262299	-5.5640001	3.421	15.863
155	1	2	-0.058428999	-4.5300002	6.0359998	15.29
156	1	3	0.205001	-5.0110002	5.7680001	16.224001
157	1	2	-0.32337499	-3.483	6.8860002	15.281
158	1	6	0.76597601	-2.9200001	7.4629998	16.559999
159	1	7	-0.20968699	-1.615	7.0419998	16.714001
160	1	7	-0.20968699	-3.6400001	7.0630002	17.674999
161	1	7	-0.20968699	-2.9419999	8.8459997	16.497999
162	1	2	-0.32167399	-0.86699998	9.4510002	12.197
163	1	3	0.229132	-1.579	10.242	12.385
164	1	2	-0.106181	0.097000003	9.5780001	11.085
165	1	3	0.21212099	0.039999999	10.456	10.454
166	1	2	-0.112152	1.007	8.6099997	10.842
167	1	6	0.098655999	1.947	8.7010002	9.6420002
168	1	2	0.043260001	1.137	8.7150002	8.3579998
169	1	2	-0.134114	0.34200001	7.7490001	7.881
170	1	3	0.215157	0.219	6.8189998	8.4189997
171	1	2	-0.262227	-0.36399999	7.9819999	6.5949998
172	1	3	0.22069301	-1.003	7.2080002	6.1900001
173	1	2	-0.23246799	-0.20900001	9.1450005	5.9310002
174	1	3	0.215387	-0.73100001	9.3050003	4.9970002
175	1	2	-0.17166001	0.67299998	10.209	6.473
176	1	3	0.20192	0.801	11.142	5.9390001
177	1	2	-0.015289	1.298	9.9720001	7.632
178	1	2	-0.015289	2.207	10.808	8.3879995
179	1	2	-0.17166001	2.6630001	12.038	8.1269999
180	1	3	0.20192	2.3499999	12.578	7.244
181	1	2	-0.23246799	3.599	12.654	9.1009998
182	1	3	0.215387	3.98	13.65	8.9189997
183	1	2	-0.26222599	3.971	11.981	10.21
184	1	3	0.22069301	4.652	12.437	10.917
185	1	2	-0.134114	3.45	10.614	10.472
186	1	3	0.215157	3.7349999	10.078	11.368
187	1	2	0.043260001	2.609	10.068	9.5839996
188	1	2	-0.32337499	8.1619997	5.276	8.7449999
189	1	6	0.76597601	8.2559996	6.3429999	9.8149996
190	1	7	-0.20968699	7.507	6.007	10.926
191	1	7	-0.20968699	9.5679998	6.4980001	10.224
192	1	7	-0.20968699	7.7969999	7.546	9.3070002
193	1	2	-0.058428999	9.1479998	5.1659999	7.8309999
194	1	3	0.205001	9.9870005	5.8520002	7.8509998
195	1	2	-0.116096	9.9449997	3.6259999	4.3920002
196	1	3	0.20262299	8.9230003	3.536	4.0489998
197	1	2	-0.40804401	10.949	3.441	3.5239999
198	1	3	0.22006001	10.724	3.2019999	2.4909999
199	1	5	0.371878	14.421	3.421	3.346
200	1	2	0.59136802	-19.070999	4.4679999	-1.0190001
201	1	8	-0.53093702	-19.815001	3.783	-1.77
202	1	2	-0.352633	-19.096001	4.2820001	0.44299999
203	1	2	-0.037287999	-18.296	5.0209999	1.229
204	1	3	0.213948	-17.627001	5.7579999	0.80199999
205	1	2	-0.079337999	-18.315001	4.8410001	2.6960001
206	1	3	0.230104	-17.657	5.454	3.299
207	1	2	-0.28109601	-19.134001	3.934	3.263
208	1	2	0.83805102	-19.165001	3.7420001	4.73
209	1	8	-0.491191	-18.421	4.4260001	5.4840002
210	1	9	-0.66596597	-20.02	2.7980001	5.2909999
211	1	10	0.41674501	-20.052	2.655	6.2930002
212	1	2	-0.079337999	-20.017	3.118	2.392
213	1	3	0.230104	-20.684	2.3829999	2.825
214	1	2	-0.037287999	-20	3.2820001	1.064
215	1	3	0.213948	-20.652	2.677	0.44600001

Bonds

1	1	1	2
2	2	1	92
3	3	1	107
4	4	2	3
5	4	2	90
6	5	3	4
7	4	3	5
8	5	5	6
9	4	5	7
10	6	7	8
11	4	7	88
12	4	8	9
13	4	8	86
14	5	9	10
15	4	9	11
16	5	11	12
17	4	11	13
18	7	13	14
19	4	13	81
20	7	14	15
21	4	15	16
22	4	15	22
23	5	16	17
24	4	16	18
25	5	18	19
26	4	18	20
27	4	20	21
28	8	20	60
29	4	21	22
30	7	21	24
31	5	22	23
32	7	24	25
33	4	25	26
34	4	25	59
35	5	26	27
36	4	26	28
37	7	28	29
38	4	28	55
39	7	29	30
40	4	30	31
41	4	30	50
42	5	31	32
43	4	31	33
44	5	33	34
45	4	33	35
46	6	35	36
47	4	35	48
48	4	36	37
49	4	36	46
50	5	37	38
51	4	37	39
52	5	39	40
53	4	39	41
54	1	41	42
55	4	41	44
56	2	42	43
57	9	42	93
58	5	44	45
59	4	44	46
60	5	46	47
61	5	48	49
62	4	48	50
63	8	50	51
64	10	51	52
65	10	51	53
66	10	51	54
67	5	55	56
68	4	55	57
69	5	57	58
70	4	57	59
71	8	59	60
72	8	60	61
73	8	60	80
74	4	61	62
75	4	61	70
76	5	62	63
77	4	62	64
78	5	64	65
79	4	64	66
80	5	66	67
81	4	66	68
82	5	68	69
83	4	68	70
84	6	70	71
85	4	71	72
86	4	71	80
87	5	72	73
88	4	72	74
89	5	74	75
90	4	74	76
91	5	76	77
92	4	76	78
93	5	78	79
94	4	78	80
95	8	81	82
96	4	81	86
97	10	82	83
98	10	82	84
99	10	82	85
100	5	86	87
101	5	88	89
102	4	88	90
103	5	90	91
104	11	93	94
105	6	93	95
106	4	95	96
107	4	95	105
108	5	96	97
109	4	96	98
110	5	98	99
111	4	98	100
112	6	100	101
113	4	100	103
114	11	101	102
115	6	101	200
116	5	103	104
117	4	103	105
118	5	105	106
119	1	107	108
120	2	107	199
121	4	108	109
122	4	108	197
123	5	109	110
124	4	109	111
125	5	111	112
126	4	111	113
127	6	113	114
128	4	113	195
129	4	114	115
130	4	114	193
131	5	115	116
132	4	115	117
133	5	117	118
134	4	117	119
135	7	119	120
136	4	119	188
137	7	120	121
138	4	121	122
139	4	121	128
140	5	122	123
141	4	122	124
142	5	124	125
143	4	124	126
144	4	126	127
145	8	126	167
146	4	127	128
147	7	127	130
148	5	128	129
149	7	130	131
150	4	131	132
151	4	131	166
152	5	132	133
153	4	132	134
154	7	134	135
155	4	134	162
156	7	135	136
157	4	136	137
158	4	136	157
159	5	137	138
160	4	137	139
161	5	139	140
162	4	139	141
163	6	141	142
164	4	141	155
165	4	142	143
166	4	142	153
167	5	143	144
168	4	143	145
169	5	145	146
170	4	145	147
171	1	147	148
172	4	147	151
173	2	148	149
174	2	148	150
175	5	151	152
176	4	151	153
177	5	153	154
178	5	155	156
179	4	155	157
180	8	157	158
181	10	158	159
182	10	158	160
183	10	158	161
184	5	162	163
185	4	162	164
186	5	164	165
187	4	164	166
188	8	166	167
189	8	167	168
190	8	167	187
191	4	168	169
192	4	168	177
193	5	169	170
194	4	169	171
195	5	171	172
196	4	171	173
197	5	173	174
198	4	173	175
199	5	175	176
200	4	175	177
201	6	177	178
202	4	178	179
203	4	178	187
204	5	179	180
205	4	179	181
206	5	181	182
207	4	181	183
208	5	183	184
209	4	183	185
210	5	185	186
211	4	185	187
212	8	188	189
213	4	188	193
214	10	189	190
215	10	189	191
216	10	189	192
217	5	193	194
218	5	195	196
219	4	195	197
220	5	197	198
221	11	200	201
222	6	200	202
223	4	202	203
224	4	202	214
225	5	203	204
226	4	203	205
227	5	205	206
228	4	205	207
229	6	207	208
230	4	207	212
231	11	208	209
232	12	208	210
233	13	210	211
234	5	212	213
235	4	212	214
236	5	214	215

Angles

1	4	49	48	50
2	4	74	76	77
3	1	111	113	114
4	1	101	100	103
5	1	96	98	100
6	1	82	81	86
7	4	3	5	6
8	4	203	205	206
9	1	25	59	57
10	1	113	195	197
11	4	179	181	182
12	1	169	168	177
13	6	83	82	84
14	1	35	36	37
15	2	2	1	107
16	1	167	187	185
17	6	191	189	192
18	1	130	131	132
19	1	126	127	128
20	4	55	57	58
21	1	39	41	44
22	4	16	18	19
23	1	61	70	71
24	2	41	42	93
25	6	81	82	83
26	1	164	166	167
27	4	134	162	163
28	1	205	207	208
29	6	188	189	192
30	4	73	72	74
31	1	68	70	71
32	4	137	139	140
33	6	159	158	161
34	1	31	30	50
35	1	109	111	113
36	1	72	74	76
37	4	151	153	154
38	4	115	117	118
39	4	69	68	70
40	1	70	71	80
41	4	88	90	91
42	6	157	158	161
43	4	202	214	215
44	1	102	101	200
45	1	142	143	145
46	1	62	64	66
47	1	101	200	202
48	1	113	114	115
49	4	183	185	186
50	1	8	9	11
51	1	113	114	193
52	1	207	208	210
53	1	26	25	59
54	1	8	86	81
55	1	16	15	22
56	1	141	142	153
57	1	72	71	80
58	4	184	183	185
59	6	61	60	80
60	4	108	197	198
61	6	160	158	161
62	4	113	195	196
63	1	178	179	181
64	1	201	200	202
65	1	115	114	193
66	4	133	132	134
67	6	20	60	80
68	4	97	96	98
69	5	119	120	121
70	4	63	62	64
71	4	146	145	147
72	3	149	148	150
73	1	208	207	212
74	6	190	189	191
75	4	7	88	89
76	1	1	2	3
77	1	155	157	158
78	4	81	86	87
79	1	202	214	212
80	5	134	135	136
81	1	132	131	166
82	1	167	187	178
83	1	128	127	130
84	6	188	189	191
85	1	60	61	70
86	4	156	155	157
87	6	159	158	160
88	1	141	155	157
89	4	21	22	23
90	4	8	86	87
91	4	76	78	79
92	1	98	100	103
93	6	50	51	53
94	4	72	74	75
95	1	35	48	50
96	1	30	50	48
97	1	5	7	8
98	1	127	126	167
99	4	131	132	133
100	1	42	93	95
101	1	48	50	51
102	1	20	21	22
103	4	118	117	119
104	1	24	25	26
105	1	135	134	162
106	1	70	71	72
107	1	177	178	187
108	4	142	143	144
109	4	62	64	65
110	1	132	134	162
111	1	142	141	155
112	3	2	1	92
113	1	207	208	209
114	4	213	212	214
115	6	20	60	59
116	1	1	2	90
117	3	92	1	107
118	4	162	164	165
119	1	7	8	86
120	6	168	167	187
121	1	141	142	143
122	4	40	39	41
123	4	66	68	69
124	1	26	28	29
125	1	8	7	88
126	6	59	60	61
127	1	35	36	46
128	1	95	105	103
129	1	169	171	173
130	1	148	147	151
131	6	126	167	187
132	6	126	167	168
133	1	120	121	128
134	4	172	171	173
135	4	95	96	97
136	4	27	26	28
137	1	131	166	167
138	1	94	93	95
139	1	175	177	178
140	1	207	212	214
141	1	132	134	135
142	1	11	13	81
143	1	2	3	5
144	1	71	72	74
145	1	39	41	42
146	7	21	24	25
147	4	103	105	106
148	4	127	128	129
149	1	120	119	188
150	1	5	7	88
151	4	67	66	68
152	4	180	179	181
153	1	28	55	57
154	1	2	90	88
155	1	30	31	33
156	1	100	103	105
157	4	104	103	105
158	4	110	109	111
159	1	145	147	148
160	4	36	37	38
161	1	109	108	197
162	4	6	5	7
163	6	52	51	54
164	1	126	127	130
165	1	136	157	158
166	4	10	9	11
167	7	127	130	131
168	1	200	202	214
169	6	50	51	52
170	1	7	8	9
171	4	35	48	49
172	1	136	137	139
173	1	9	11	13
174	1	64	66	68
175	1	14	15	16
176	4	168	169	170
177	1	21	20	60
178	1	142	153	151
179	1	42	93	94
180	1	107	108	197
181	4	163	162	164
182	4	75	74	76
183	6	81	82	85
184	1	37	39	41
185	4	204	203	205
186	1	15	22	21
187	1	41	44	46
188	1	121	122	124
189	1	114	193	188
190	1	135	136	157
191	1	131	166	164
192	1	15	16	18
193	1	168	177	175
194	4	12	11	13
195	1	60	61	62
196	1	135	136	137
197	1	143	142	153
198	4	34	33	35
199	1	93	95	96
200	4	96	98	99
201	1	143	145	147
202	1	30	50	51
203	1	18	20	21
204	1	14	13	81
205	1	71	80	78
206	1	124	126	167
207	4	169	171	172
208	4	207	212	213
209	1	173	175	177
210	1	74	76	78
211	1	136	157	155
212	4	71	72	73
213	4	170	169	171
214	4	125	124	126
215	1	117	119	120
216	1	14	15	22
217	4	19	18	20
218	1	61	62	64
219	4	95	105	106
220	4	30	31	32
221	1	108	109	111
222	4	8	9	10
223	4	109	111	112
224	6	52	51	53
225	1	11	13	14
226	4	136	137	138
227	1	16	18	20
228	4	9	11	12
229	1	42	41	44
230	4	64	66	67
231	1	96	95	105
232	1	107	108	109
233	6	157	158	160
234	6	81	82	84
235	4	37	39	40
236	4	2	90	91
237	4	99	98	100
238	4	36	46	47
239	1	145	147	151
240	1	101	200	201
241	6	166	167	187
242	1	114	115	117
243	6	166	167	168
244	4	121	122	123
245	4	65	64	66
246	1	137	139	141
247	1	25	26	28
248	1	119	188	193
249	1	179	178	187
250	1	181	183	185
251	1	33	35	36
252	4	143	145	146
253	1	29	30	31
254	4	142	153	154
255	1	24	25	59
256	4	174	173	175
257	1	124	126	127
258	1	37	36	46
259	4	178	179	180
260	4	206	205	207
261	1	20	21	24
262	4	140	139	141
263	1	168	177	178
264	1	60	80	78
265	4	4	3	5
266	4	173	175	176
267	6	20	60	61
268	1	60	80	71
269	1	29	28	55
270	1	120	121	122
271	1	117	119	188
272	4	61	62	63
273	3	147	148	150
274	4	32	31	33
275	1	147	151	153
276	2	1	107	108
277	1	167	168	177
278	1	36	46	44
279	4	108	109	110
280	4	121	128	129
281	3	43	42	93
282	6	188	189	190
283	3	108	107	199
284	1	202	203	205
285	4	141	155	156
286	4	79	78	80
287	1	26	28	55
288	1	200	202	203
289	5	208	210	211
290	6	190	189	192
291	1	7	88	90
292	4	152	151	153
293	4	112	111	113
294	1	178	187	185
295	1	203	202	214
296	1	18	20	60
297	3	1	107	199
298	6	157	158	159
299	4	196	195	197
300	1	62	61	70
301	4	56	55	57
302	4	123	122	124
303	1	171	173	175
304	1	137	136	157
305	4	114	115	116
306	4	17	16	18
307	4	44	46	47
308	6	84	82	85
309	4	25	26	27
310	5	28	29	30
311	1	93	95	105
312	1	29	30	50
313	1	76	78	80
314	4	181	183	184
315	1	31	33	35
316	6	50	51	54
317	4	165	164	166
318	1	122	124	126
319	1	189	188	193
320	8	209	208	210
321	1	121	128	127
322	4	45	44	46
323	1	131	132	134
324	4	138	137	139
325	4	182	181	183
326	1	57	59	60
327	4	15	22	23
328	1	177	178	179
329	1	100	101	200
330	1	205	207	212
331	1	100	101	102
332	1	33	35	48
333	1	162	164	166
334	4	2	3	4
335	6	59	60	80
336	4	58	57	59
337	1	3	5	7
338	1	203	205	207
339	1	66	68	70
340	5	13	14	15
341	1	61	70	68
342	1	3	2	90
343	4	144	143	145
344	1	13	81	82
345	3	147	148	149
346	1	139	141	142
347	1	179	181	183
348	4	147	151	152
349	4	77	76	78
350	6	83	82	85
351	4	28	55	56
352	4	100	103	104
353	4	114	193	194
354	1	95	96	98
355	4	188	193	194
356	4	89	88	90
357	4	202	203	204
358	3	41	42	43
359	1	114	113	195
360	1	36	35	48
361	1	111	113	195
362	1	119	188	189
363	1	55	57	59
364	1	98	100	101
365	1	25	59	60
366	1	139	141	155
367	1	13	81	86
368	6	53	51	54
369	1	122	121	128
370	4	176	175	177
371	1	134	162	164
372	4	171	173	174
373	4	41	44	45
374	1	130	131	166
375	1	167	168	169
376	4	186	185	187
377	4	212	214	215
378	1	36	37	39
379	4	15	16	17
380	4	116	115	117
381	4	195	197	198
382	4	31	33	34
383	1	115	117	119
384	4	122	124	125
385	1	168	169	171
386	1	22	21	24
387	1	108	197	195
388	1	9	8	86
389	4	38	37	39
390	6	126	167	166
391	1	183	185	187

Dihedrals

1	1	67	66	68	69
2	1	137	136	157	158
3	1	8	86	81	13
4	1	134	132	131	166
5	1	70	71	72	74
6	1	97	96	95	105
7	1	25	59	57	55
8	6	126	167	168	169
9	1	108	197	195	196
10	12	42	93	95	105
11	1	60	61	70	71
12	1	114	115	117	119
13	1	28	55	57	59
14	6	124	126	167	168
15	1	145	147	151	152
16	1	130	131	166	167
17	1	112	111	113	114
18	10	41	42	93	95
18	11	41	42	93	95
19	1	110	109	111	112
20	6	164	166	167	187
21	1	77	76	78	79
22	6	164	166	167	168
23	1	120	119	188	193
24	1	132	134	162	164
25	1	93	95	96	98
26	6	21	20	60	59
27	1	180	179	181	183
28	6	57	59	60	61
29	1	2	3	5	6
30	1	19	18	20	21
31	1	114	113	195	196
32	1	202	203	205	207
33	6	191	189	188	193
34	1	148	147	151	152
35	1	174	173	175	176
36	6	20	60	61	62
37	1	120	121	122	124
38	1	167	168	169	171
39	1	7	8	86	87
40	7	127	130	131	166
41	1	14	13	81	82
42	1	60	80	78	76
43	6	126	167	166	164
44	1	134	162	164	165
45	1	115	114	193	194
46	1	17	16	15	22
47	1	14	15	16	17
48	1	74	72	71	80
49	1	30	50	48	49
50	1	10	9	11	12
51	1	72	74	76	78
52	6	30	50	51	52
53	1	123	122	121	128
54	1	7	8	9	10
55	1	36	37	39	40
56	1	125	124	126	167
57	12	102	101	200	201
58	4	153	142	141	155
59	1	62	61	70	71
60	1	138	137	136	157
61	4	33	35	36	37
62	1	74	76	78	80
63	4	68	70	71	80
64	1	167	187	185	183
65	2	1	107	108	197
66	1	98	100	103	105
67	1	136	137	139	140
68	1	15	16	18	20
69	1	180	179	178	187
70	1	8	7	88	90
71	1	129	128	127	130
72	1	137	139	141	142
73	1	75	74	76	78
74	10	43	42	93	95
74	11	43	42	93	95
75	6	177	168	167	187
76	12	201	200	202	203
77	1	146	145	147	148
78	6	155	157	158	159
79	1	26	25	59	57
80	1	144	143	145	146
81	6	166	167	168	169
82	1	168	177	175	176
83	1	171	173	175	177
84	1	133	132	134	162
85	1	25	26	28	29
86	1	32	31	33	34
87	4	115	114	113	195
88	1	24	25	26	28
89	1	109	111	113	195
90	2	39	41	42	43
91	1	178	179	181	182
92	1	31	30	50	48
93	1	42	41	44	45
94	1	116	115	117	119
95	1	113	114	193	188
96	1	169	168	177	178
97	12	98	100	101	200
98	1	2	90	88	89
99	1	70	71	72	73
100	7	21	24	25	59
101	1	165	164	166	167
102	1	89	88	90	91
103	12	98	100	101	102
104	1	37	39	41	42
105	1	9	8	86	87
106	6	25	59	60	61
107	1	163	162	164	165
108	4	37	36	35	48
109	4	139	141	142	143
110	2	3	2	1	107
111	1	122	121	128	129
112	1	196	195	197	198
113	1	104	103	105	106
114	1	9	11	13	81
115	7	127	130	131	132
116	1	137	139	141	155
117	1	136	157	155	156
118	4	175	177	178	179
119	3	2	1	107	108
120	1	15	22	21	24
121	8	41	42	93	94
121	9	41	42	93	94
122	6	126	167	187	185
123	1	107	108	197	195
124	1	203	205	207	208
125	6	48	50	51	54
126	6	119	188	189	192
127	1	132	134	162	163
128	1	1	2	3	4
129	1	93	95	96	97
130	5	13	14	15	16
131	1	37	36	46	47
132	1	30	50	48	35
133	1	133	132	134	135
134	6	168	167	187	185
135	1	142	143	145	147
136	1	135	136	157	155
137	1	114	193	188	119
138	1	3	5	7	8
139	1	120	121	122	123
140	1	167	168	169	170
141	5	119	120	121	128
142	1	16	18	20	60
143	1	131	132	134	162
144	5	134	135	136	157
145	1	202	214	212	207
146	12	205	207	208	209
147	1	18	16	15	22
148	1	39	37	36	46
149	5	134	135	136	137
150	3	2	1	107	199
151	1	108	109	111	113
152	3	92	1	107	108
153	5	30	29	28	55
154	1	66	68	70	71
155	1	11	13	81	82
156	1	39	41	44	45
157	1	168	177	175	173
158	1	98	96	95	105
159	1	5	3	2	90
160	1	64	62	61	70
161	1	128	127	126	167
162	5	119	120	121	122
163	1	73	72	74	75
164	1	109	111	113	114
165	1	125	124	126	127
166	1	141	142	143	144
167	1	167	187	178	179
168	1	213	212	214	215
169	1	142	141	155	157
170	6	13	81	82	85
171	1	113	114	193	194
172	1	26	28	55	57
173	1	41	44	46	47
174	1	111	113	195	197
175	1	135	134	162	164
176	1	111	109	108	197
177	1	96	95	105	103
178	5	132	134	135	136
179	1	98	100	103	104
180	4	68	70	71	72
181	1	15	16	18	19
182	1	131	132	134	135
183	6	136	157	158	160
184	4	9	8	7	88
185	1	33	31	30	50
186	5	15	14	13	81
187	1	31	33	35	48
188	1	75	74	76	77
189	13	43	42	93	94
189	14	43	42	93	94
190	1	32	31	30	50
191	12	94	93	95	105
192	12	100	101	200	202
193	1	171	173	175	176
194	1	99	98	100	101
195	1	167	168	177	175
196	2	90	2	1	92
197	1	145	143	142	153
198	1	5	7	88	90
199	1	95	96	98	99
200	1	14	15	22	21
201	1	177	178	179	181
202	6	83	82	81	86
203	1	116	115	114	193
204	1	3	5	7	88
205	1	60	80	78	79
206	6	166	167	187	185
207	1	19	18	20	60
208	1	120	121	128	129
209	4	139	141	142	153
210	1	71	72	74	76
211	1	167	187	185	186
212	1	24	21	20	60
213	1	121	122	124	126
214	1	156	155	157	158
215	2	150	148	147	151
216	2	39	41	42	93
217	1	124	126	127	128
218	1	170	169	168	177
219	1	168	169	171	172
220	1	34	33	35	36
221	6	124	126	167	166
222	1	30	31	33	35
223	1	96	98	100	103
224	1	146	145	147	151
225	1	26	25	59	60
226	1	60	80	71	72
227	1	109	108	197	195
228	1	167	187	178	177
229	6	18	20	60	80
230	1	27	26	25	59
231	1	131	166	164	165
232	1	31	30	50	51
233	1	61	62	64	65
234	1	29	28	55	57
235	6	192	189	188	193
236	1	139	141	155	157
237	7	22	21	24	25
238	1	181	179	178	187
239	2	109	108	107	199
240	1	142	143	145	146
241	6	190	189	188	193
242	1	176	175	177	178
243	6	59	60	61	70
244	12	210	208	207	212
245	2	44	41	42	93
246	1	205	207	212	213
247	1	184	183	185	187
248	4	61	70	71	80
249	1	132	131	166	164
250	1	182	181	183	185
251	1	141	142	153	151
252	6	126	167	187	178
253	1	108	109	111	112
254	1	9	11	13	14
255	1	107	108	197	198
256	12	209	208	207	212
257	1	120	121	128	127
258	6	20	60	59	25
259	1	178	187	185	183
260	6	21	20	60	61
261	1	97	96	98	100
262	1	33	35	48	50
263	1	6	5	7	8
264	6	13	81	82	84
265	1	61	70	68	66
266	1	142	141	155	156
267	1	35	36	46	44
268	5	28	29	30	31
269	4	33	35	36	46
270	1	26	28	55	56
271	1	45	44	46	47
272	1	64	66	68	70
273	1	135	136	157	158
274	1	35	36	37	38
275	1	111	113	195	196
276	1	23	22	21	24
277	1	138	137	139	140
278	1	108	197	195	113
279	2	3	2	1	92
280	4	111	113	114	115
281	2	43	42	41	44
282	6	136	157	158	159
283	1	56	55	57	59
284	4	111	113	114	193
285	1	123	122	124	125
286	1	38	37	39	41
287	1	200	202	203	205
288	1	15	22	21	20
289	1	18	20	21	22
290	12	100	101	200	201
291	1	207	212	214	215
292	7	128	127	130	131
293	1	131	166	164	162
294	1	8	86	81	82
295	1	117	119	188	193
296	1	4	3	5	7
297	6	30	50	51	54
298	4	46	36	35	48
299	1	5	7	88	89
300	1	63	62	64	65
301	1	82	81	86	87
302	1	177	178	179	180
303	6	70	61	60	80
304	1	69	68	70	71
305	1	101	100	103	105
306	1	113	114	115	116
307	1	130	131	132	134
308	1	4	3	2	90
309	1	24	25	59	60
310	6	18	20	60	59
311	1	181	183	185	187
312	1	118	117	119	188
313	1	71	72	74	75
314	6	127	126	167	187
315	1	96	95	105	106
316	1	113	195	197	198
317	4	5	7	8	86
318	15	207	208	210	211
319	1	114	115	117	118
320	1	28	55	57	58
321	1	8	9	11	13
322	1	30	31	33	34
323	1	36	35	48	50
324	6	155	157	158	161
325	1	135	136	137	139
326	1	93	95	105	103
327	1	167	168	177	178
328	1	6	5	7	88
329	1	180	179	181	182
330	1	115	117	119	120
331	1	29	28	55	56
332	1	142	153	151	152
333	12	101	200	202	214
334	1	202	203	205	206
335	1	67	66	68	70
336	6	20	60	61	70
337	1	27	26	28	29
338	1	37	39	41	44
339	1	3	2	90	88
340	1	36	46	44	45
341	1	126	127	128	129
342	1	34	33	35	48
343	2	145	147	148	150
344	1	145	147	151	153
345	1	100	103	105	106
346	6	131	166	167	187
347	6	131	166	167	168
348	6	57	59	60	80
349	1	110	109	111	113
350	1	25	26	28	55
351	1	22	21	20	60
352	12	103	100	101	200
353	4	61	70	71	72
354	1	109	108	197	198
355	1	60	61	62	64
356	1	72	74	76	77
357	1	33	35	48	49
358	1	29	30	50	48
359	6	13	81	82	83
360	1	114	113	195	197
361	1	24	25	59	57
362	1	74	76	78	79
363	4	193	114	113	195
364	6	59	60	61	62
365	16	209	208	210	211
365	17	209	208	210	211
366	1	62	64	66	68
367	4	5	7	8	9
368	1	132	131	166	167
369	1	8	7	88	89
370	1	141	142	153	154
371	1	179	181	183	185
372	6	21	20	60	80
373	3	92	1	107	199
374	1	40	39	41	42
375	1	134	162	164	166
376	1	140	139	141	142
377	1	38	37	39	40
378	1	200	202	203	204
379	2	197	108	107	199
380	1	178	187	185	186
381	1	24	25	26	27
382	5	13	14	15	22
383	1	205	203	202	214
384	1	4	3	5	6
385	1	16	15	22	21
386	1	61	70	68	69
387	6	127	126	167	166
388	1	35	36	46	47
389	1	101	100	103	104
390	1	130	131	132	133
391	1	118	117	119	120
392	1	116	115	117	118
393	1	72	71	80	78
394	1	7	8	86	81
395	1	202	214	212	213
396	2	149	148	147	151
397	1	171	169	168	177
398	1	65	64	66	68
399	5	26	28	29	30
400	7	126	127	130	131
401	1	140	139	141	155
402	4	175	177	178	187
403	1	96	98	100	101
404	1	71	80	78	76
405	6	48	50	51	53
406	1	115	114	193	188
407	6	119	188	189	191
408	1	135	136	137	138
409	1	144	143	145	147
410	6	155	157	158	160
411	1	99	98	100	103
412	1	152	151	153	154
413	1	28	26	25	59
414	1	147	151	153	154
415	1	179	178	187	185
416	6	25	59	60	80
417	1	14	15	22	23
418	1	7	8	9	11
419	1	124	122	121	128
420	1	203	202	214	212
421	1	42	41	44	46
422	1	172	171	173	175
423	1	115	117	119	188
424	1	206	205	207	212
425	1	95	105	103	104
426	1	163	162	164	166
427	1	2	90	88	7
428	2	145	147	148	149
429	1	17	16	18	20
430	1	124	126	127	130
431	1	130	127	126	167
432	12	42	93	95	96
433	6	124	126	167	187
434	5	136	135	134	162
435	1	121	128	127	126
436	1	170	169	171	173
437	1	35	48	50	51
438	1	93	95	105	106
439	6	126	167	166	131
440	1	143	145	147	148
441	2	90	2	1	107
442	1	60	61	62	63
443	1	204	203	202	214
444	1	1	2	3	5
445	1	117	119	188	189
446	6	168	167	187	178
447	6	20	60	59	57
448	1	70	71	80	78
449	1	3	2	90	91
450	1	135	134	162	163
451	1	11	9	8	86