Title

56 atoms
59 bonds
94 angles
135 dihedrals
78 impropers

9 atom types
12 bond types
6 angle types
7 dihedral types
2 improper types
-6.263000011 93.73699999 xlo xhi
-2.559000015 97.44099998 ylo yhi
-3.782000065 96.21799994 zlo zhi
0.0 0.0 0.0 xy xz yz

Masses

1	15.99943
2	12.01078
3	1.007947
4	12.01078
5	1.007947
6	15.99943
7	15.99943
8	1.007947
9	35.4532


Pair Coeffs

1	0.16846514	3.0251065
2	0.086879315	3.4806469
3	0.015611343	2.5725815
4	0.10884061	3.3795318
5	0.015779483	2.6445434
6	0.2102061	3.0398122
7	0.20947353	2.99716
8	1.2326e-05	0.53453923
9	0.2656001	3.3075278

Bond Coeffs

1 harmonic	425.69104206635	1.362945806494
2 harmonic	300.03137914615	1.451203938761
3 harmonic	360.7852444772	1.387193227181
4 harmonic	397.2545789619	1.085358495916
5 harmonic	289.73813263395	1.498646816465
6 harmonic	370.04670688625	1.093899492634
7 harmonic	301.15400723785	1.345741232799
8 harmonic	582.698766451	1.225198386222
9 harmonic	279.1350963404	1.454628925034
10 harmonic	385.7604595587	1.369745182308
11 harmonic	543.5267831885	0.9716763312559
12 harmonic	218.0227703685	1.746066037062


Angle Coeffs

1 harmonic	57.8982893754	126.8062420451
2 harmonic	65.09061609600001	110.3538806181
3 harmonic	34.066775159195	129.1835929926
4 harmonic	53.20531626545	116.5475862634
5 harmonic	201.41175231035	127.4691416191
6 harmonic	48.776492647595	115.6030999533


Dihedral Coeffs

1 fourier 1	3.661930099076	2	180
2 fourier 1	1.532232714475	2	180
3 fourier 1	0.457973137376	1	0
4 fourier 1	0.02664938770063	3	0
5 fourier 1	2.779853741805	2	180
6 fourier 1	0.9974165607242	2	180
7 fourier 1	0.8283030590042	2	180


Improper Coeffs

1 0.3666666666666667	-1	2
2 3.5	-1	2


Atoms

1	1	1	-0.022611	-4.684	1.1670001	-0.81599998
2	1	2	0.27758399	-3.529	0.49200001	-0.43000001
3	1	2	-0.31276	-2.8940001	-0.296	-1.307
4	1	3	0.22639599	-3.2750001	-0.40900001	-2.3150001
5	1	2	-0.149188	-1.6670001	-1.016	-0.90799999
6	1	3	0.215492	-1.161	-1.636	-1.637
7	1	2	-0.228728	-1.187	-0.89600003	0.34299999
8	1	4	-0.051320001	0.082999997	-1.592	0.75
9	1	2	-0.228728	1.272	-0.71799999	0.45500001
10	1	2	-0.14688499	1.711	0.175	1.3609999
11	1	3	0.215492	1.233	0.26100001	2.329
12	1	2	-0.263082	2.855	1.056	1.045
13	1	3	0.226348	3.204	1.763	1.786
14	1	2	0.43873	3.4519999	0.98199999	-0.152
15	1	1	-0.44095999	4.527	1.818	-0.44100001
16	1	2	-0.263082	2.9619999	0.013	-1.159
17	1	3	0.226348	3.438	-0.045000002	-2.1300001
18	1	2	-0.14688499	1.9299999	-0.78899997	-0.87300003
19	1	3	0.215492	1.575	-1.4910001	-1.617
20	1	5	0.124906	0.184	-2.559	0.211
21	1	5	0.124906	0.046999998	-1.842	1.8329999
22	1	2	-0.149188	-1.887	-0.014	1.309
23	1	3	0.215492	-1.502	0.104	2.3139999
24	1	2	-0.31276	-2.9960001	0.64099997	0.94400001
25	1	3	0.22639599	-3.503	1.2819999	1.654
26	1	2	0.62819999	5.0100002	1.778	-1.3710001
27	1	6	-0.49692801	6.1199999	1.2819999	-1.461
28	1	1	-0.022611	-5.1799998	1.7690001	-0.169
29	1	2	0.27758399	-4.5079999	2.4449999	0.84600002
30	1	2	-0.31276	-5.1919999	3.233	1.686
31	1	3	0.22639599	-6.263	3.345	1.58
32	1	2	-0.149188	-4.4879999	3.9530001	2.7690001
33	1	3	0.215492	-5.0619998	4.573	3.447
34	1	2	-0.228728	-3.1559999	3.8329999	2.9089999
35	1	4	-0.051320001	-2.434	4.5289998	4.0310001
36	1	2	-0.228728	-2.411	3.655	5.2550001
37	1	2	-0.107104	-1.423	2.7620001	5.4450002
38	1	3	0.215492	-0.611	2.6760001	4.7319999
39	1	2	-0.406977	-1.432	1.881	6.631
40	1	3	0.231663	-0.625	1.173	6.776
41	1	2	0.43154499	-2.4330001	1.955	7.5170002
42	1	7	-0.64920598	-2.4349999	1.119	8.6309996
43	1	8	0.435422	-3.1819999	1.1569999	9.3140001
44	1	2	-0.406977	-3.533	2.9230001	7.3049998
45	1	3	0.231663	-4.348	2.9820001	8.0159998
46	1	2	-0.107104	-3.5239999	3.7260001	6.2340002
47	1	3	0.215492	-4.335	4.428	6.0840001
48	1	5	0.124906	-2.9289999	5.4959998	4.2670002
49	1	5	0.124906	-1.397	4.7779999	3.7149999
50	1	2	-0.149188	-2.404	2.951	1.982
51	1	3	0.215492	-1.3329999	2.8329999	2.0940001
52	1	2	-0.31276	-3.0439999	2.296	1.005
53	1	3	0.22639599	-2.4890001	1.655	0.333
54	1	2	0.46747601	4.5219998	2.1789999	-2.253
55	1	6	-0.57264698	3.378	2.595	-2.1800001
56	1	9	-0.083301999	5.3790002	2.23	-3.7820001

Bonds

1	1	1	2
2	2	1	28
3	3	2	3
4	3	2	24
5	4	3	4
6	3	3	5
7	4	5	6
8	3	5	7
9	5	7	8
10	3	7	22
11	5	8	9
12	6	8	20
13	6	8	21
14	3	9	10
15	3	9	18
16	4	10	11
17	3	10	12
18	4	12	13
19	3	12	14
20	1	14	15
21	3	14	16
22	7	15	26
23	4	16	17
24	3	16	18
25	4	18	19
26	4	22	23
27	3	22	24
28	4	24	25
29	8	26	27
30	9	26	54
31	1	28	29
32	3	29	30
33	3	29	52
34	4	30	31
35	3	30	32
36	4	32	33
37	3	32	34
38	5	34	35
39	3	34	50
40	5	35	36
41	6	35	48
42	6	35	49
43	3	36	37
44	3	36	46
45	4	37	38
46	3	37	39
47	4	39	40
48	3	39	41
49	10	41	42
50	3	41	44
51	11	42	43
52	4	44	45
53	3	44	46
54	4	46	47
55	4	50	51
56	3	50	52
57	4	52	53
58	8	54	55
59	12	54	56

Angles

1	4	9	8	21
2	5	15	26	27
3	3	13	12	14
4	3	22	24	25
5	1	2	3	5
6	3	41	44	45
7	1	37	39	41
8	1	26	54	56
9	4	7	8	9
10	3	7	22	23
11	1	5	7	8
12	3	9	10	11
13	4	34	35	49
14	1	28	29	52
15	1	39	41	42
16	6	48	35	49
17	1	35	36	37
18	1	7	22	24
19	3	36	37	38
20	1	9	10	12
21	1	5	7	22
22	6	20	8	21
23	3	29	30	31
24	1	12	14	16
25	1	10	12	14
26	3	45	44	46
27	3	14	16	17
28	3	4	3	5
29	3	23	22	24
30	1	1	2	3
31	1	36	37	39
32	1	29	30	32
33	2	14	15	26
34	3	16	18	19
35	4	7	8	20
36	3	30	32	33
37	1	42	41	44
38	1	41	44	46
39	3	51	50	52
40	1	35	36	46
41	3	6	5	7
42	1	32	34	50
43	3	29	52	53
44	1	10	9	18
45	4	36	35	48
46	3	38	37	39
47	4	9	8	20
48	2	41	42	43
49	3	3	5	6
50	2	1	28	29
51	3	11	10	12
52	1	8	7	22
53	3	33	32	34
54	1	1	2	24
55	1	14	16	18
56	1	37	36	46
57	1	8	9	18
58	3	2	3	4
59	3	9	18	19
60	3	37	39	40
61	1	26	54	55
62	1	3	5	7
63	1	28	29	30
64	3	36	46	47
65	3	34	50	51
66	4	7	8	21
67	1	15	26	54
68	4	34	35	48
69	1	30	32	34
70	1	30	29	52
71	1	15	14	16
72	1	2	24	22
73	3	44	46	47
74	1	3	2	24
75	1	32	34	35
76	2	2	1	28
77	1	34	50	52
78	1	8	9	10
79	1	9	18	16
80	1	55	54	56
81	1	27	26	54
82	3	50	52	53
83	3	40	39	41
84	3	17	16	18
85	3	2	24	25
86	1	36	46	44
87	1	12	14	15
88	1	29	52	50
89	3	10	12	13
90	1	39	41	44
91	4	34	35	36
92	4	36	35	49
93	1	35	34	50
94	3	31	30	32

Dihedrals

1	2	1	28	29	30
2	1	30	32	34	35
3	1	35	36	37	39
4	1	30	29	52	50
5	1	37	36	46	47
6	1	9	18	16	17
7	1	51	50	52	53
8	1	32	34	50	51
9	2	3	2	1	28
10	1	28	29	30	32
11	1	31	30	32	33
12	1	8	7	22	24
13	1	15	14	16	17
14	1	39	41	44	45
15	1	33	32	34	50
16	4	9	8	7	22
17	1	42	41	44	45
18	4	5	7	8	20
19	6	27	26	54	55
20	4	21	8	7	22
21	1	32	34	50	52
22	4	34	35	36	46
23	1	5	3	2	24
24	1	29	52	50	34
25	1	31	30	32	34
26	1	28	29	52	53
27	4	32	34	35	36
28	1	37	36	46	44
29	1	9	18	16	14
30	1	4	3	5	6
31	1	42	41	44	46
32	4	5	7	8	21
33	6	27	26	54	56
34	4	37	36	35	49
35	1	2	3	5	7
36	1	13	12	14	15
37	1	38	37	39	40
38	1	23	22	24	25
39	4	32	34	35	48
40	1	37	39	41	42
41	1	14	16	18	19
42	1	12	14	16	17
43	1	35	34	50	51
44	1	8	9	10	11
45	1	7	22	24	25
46	1	28	29	52	50
47	1	10	9	18	19
48	1	3	5	7	8
49	4	20	8	7	22
50	1	1	2	3	4
51	1	4	3	2	24
52	2	12	14	15	26
53	1	29	30	32	33
54	1	17	16	18	19
55	4	32	34	35	49
56	2	16	14	15	26
57	1	36	37	39	40
58	2	1	28	29	52
59	7	39	41	42	43
60	1	11	10	9	18
61	1	12	14	16	18
62	1	35	34	50	52
63	1	40	39	41	42
64	1	8	9	10	12
65	1	33	32	34	35
66	1	31	30	29	52
67	1	15	14	16	18
68	1	39	41	44	46
69	4	10	9	8	20
70	5	14	15	26	54
71	1	3	5	7	22
72	1	11	10	12	13
73	1	34	50	52	53
74	1	2	24	22	23
75	3	2	1	28	29
76	1	9	10	12	13
77	1	10	9	18	16
78	4	7	8	9	18
79	6	15	26	54	55
80	4	18	9	8	20
81	1	4	3	5	7
82	1	29	52	50	51
83	4	10	9	8	21
84	4	5	7	8	9
85	1	30	29	52	53
86	1	9	10	12	14
87	7	43	42	41	44
88	1	6	5	7	8
89	1	36	46	44	41
90	1	38	37	39	41
91	1	13	12	14	16
92	1	12	10	9	18
93	1	5	7	22	23
94	6	15	26	54	56
95	1	35	36	37	38
96	1	1	2	24	22
97	4	46	36	35	48
98	1	30	32	34	50
99	1	28	29	30	31
100	4	7	8	9	10
101	1	32	30	29	52
102	1	8	9	18	19
103	1	8	7	22	23
104	1	35	36	46	47
105	2	14	15	26	27
106	1	1	2	3	5
107	1	6	5	7	22
108	1	5	7	22	24
109	1	29	30	32	34
110	1	39	37	36	46
111	1	10	12	14	15
112	1	37	39	41	44
113	1	1	2	24	25
114	4	46	36	35	49
115	1	38	37	36	46
116	1	36	37	39	41
117	1	3	2	24	25
118	4	49	35	34	50
119	1	36	46	44	45
120	1	11	10	12	14
121	1	10	12	14	16
122	2	24	2	1	28
123	1	8	9	18	16
124	4	37	36	35	48
125	1	35	36	46	44
126	1	2	3	5	6
127	1	41	44	46	47
128	4	34	35	36	37
129	1	2	24	22	7
130	1	40	39	41	44
131	1	45	44	46	47
132	4	18	9	8	21
133	4	36	35	34	50
134	4	48	35	34	50
135	1	3	2	24	22

Impropers

1	1	10	11	12	9
5	1	9	18	8	10
7	1	12	13	14	10
11	1	29	28	30	52
14	1	30	29	31	32
15	1	52	29	50	53
16	1	14	15	16	12
18	1	34	50	32	35
20	1	44	41	45	46
22	1	16	17	18	14
24	1	24	25	2	22
29	1	39	41	37	40
31	1	30	31	32	29
32	1	5	6	7	3
34	1	32	33	34	30
39	1	50	51	52	34
42	1	29	52	28	30
43	1	14	16	12	15
44	1	32	30	33	34
45	1	3	5	2	4
47	1	7	8	22	5
50	1	46	44	47	36
55	1	54	26	55	56
57	2	26	15	27	54
59	1	46	47	36	44
61	1	44	46	41	45
64	1	46	36	44	47
67	1	37	38	39	36
68	1	29	30	52	28
70	1	2	24	1	3
72	1	2	1	3	24
76	1	54	55	56	26
78	1	30	32	29	31
80	1	39	40	41	37
93	1	41	42	44	39
94	1	7	22	5	8
95	1	50	52	34	51
96	1	5	7	3	6
97	1	34	35	50	32
99	1	39	37	40	41
101	1	22	7	23	24
106	1	24	2	22	25
107	1	16	14	17	18
108	1	44	45	46	41
109	2	26	54	15	27
110	1	18	9	16	19
112	1	14	12	15	16
115	1	37	36	38	39
120	1	22	24	7	23
121	1	32	34	30	33
123	1	16	18	14	17
132	1	7	5	8	22
133	1	37	39	36	38
136	1	52	53	29	50
137	1	18	19	9	16
146	1	22	23	24	7
150	1	18	16	19	9
154	1	5	3	6	7
158	1	34	32	35	50
164	1	41	39	42	44
166	1	9	10	18	8
167	1	12	14	10	13
168	1	36	35	37	46
172	1	3	4	5	2
173	1	41	44	39	42
174	1	54	56	26	55
181	1	9	8	10	18
183	1	2	3	24	1
184	1	10	12	9	11
188	1	52	50	53	29
190	1	50	34	51	52
192	1	10	9	11	12
194	1	3	2	4	5
197	1	24	22	25	2
199	1	12	10	13	14
201	1	36	37	46	35
202	2	26	27	54	15
204	1	36	46	35	37
