Title

149 atoms
158 bonds
277 angles
441 dihedrals
168 impropers

10 atom types
14 bond types
9 angle types
19 dihedral types
3 improper types
-5.508999825 94.49100018 xlo xhi
-7.627999783 92.37200022 ylo yhi
-3.470999956 96.52900004 zlo zhi
0.0 0.0 0.0 xy xz yz

Masses

1	14.00672
2	12.01078
3	1.007947
4	12.01078
5	1.007947
6	18.998403
7	15.99943
8	1.007947
9	15.99943
10	1.007947


Pair Coeffs

1	0.16769152	3.206876
2	0.086879315	3.4806469
3	0.015611343	2.5725815
4	0.10884061	3.3795318
5	0.014090815	1.1034277
6	0.061	3.1181455
7	0.2102061	3.0398122
8	0.015779483	2.6445434
9	0.20947353	2.99716
10	1.2326e-05	0.53453923

Bond Coeffs

1 harmonic	390.03554688505	1.390160554689
2 harmonic	505.144496193	1.019481865027
3 harmonic	422.7150220147	1.421786517481
4 harmonic	360.7852444772	1.387193227181
5 harmonic	397.2545789619	1.085358495916
6 harmonic	289.73813263395	1.498646816465
7 harmonic	264.62148576755	1.52190126495
8 harmonic	492.76746816345	1.381897776683
9 harmonic	340.45121009905	1.358690858053
10 harmonic	582.698766451	1.225198386222
11 harmonic	279.1350963404	1.454628925034
12 harmonic	370.04670688625	1.093899492634
13 harmonic	385.7604595587	1.369745182308
14 harmonic	543.5267831885	0.9716763312559


Angle Coeffs

1 harmonic	57.8982893754	126.8062420451
2 harmonic	55.42182150775	117.3465570514
3 harmonic	63.44422595415	115.5071327674
4 harmonic	34.066775159195	129.1835929926
5 harmonic	53.20531626545	116.5475862634
6 harmonic	14.32262199324	138.3184368373
7 harmonic	48.776492647595	115.6030999533
8 harmonic	65.09061609600001	110.3538806181
9 harmonic	201.41175231035	127.4691416191


Dihedral Coeffs

1 fourier 1	3.661930099076	2	180
2 fourier 1	1.193093382682	2	180
3 fourier 1	0.02021088501612	1	0
4 fourier 1	0.02664938770063	3	0
5 fourier 1	0.1155372516788	3	0
6 fourier 1	3.101948770557	2	180
7 fourier 1	-0.4252153282372	1	0
8 fourier 1	1.809047390003	2	180
9 fourier 1	-0.04816277792592	1	0
10 fourier 1	0.9974165607242	2	180
11 fourier 1	2.348375642009	2	180
12 fourier 1	1.256156174911	1	0
13 fourier 1	0.09223874044423	3	0
14 fourier 1	0.3159935921949	2	180
15 fourier 1	0.3247796806857	1	180
16 fourier 1	0.1040663847541	3	0
17 fourier 1	2.687457892086	2	180
18 fourier 1	2.772607909663	2	180
19 fourier 1	0.09692684957115	1	0


Improper Coeffs

1 0.3666666666666667	-1	2
2 0.3333333333333333	-1	2
3 3.5	-1	2


Atoms

1	1	1	-0.41166899	-4.6230001	-1.209	1.8329999
2	1	2	0.140864	-3.4860001	-0.90600002	1.02
3	1	2	-0.407314	-3.2179999	-1.633	-0.072999999
4	1	3	0.22446001	-3.8610001	-2.457	-0.35600001
5	1	2	-0.13319001	-2.0439999	-1.318	-0.91299999
6	1	3	0.214323	-1.9	-1.925	-1.791
7	1	2	-0.095362999	-1.199	-0.31200001	-0.583
8	1	4	-0.26280001	0.02	0.093999997	-1.446
9	1	2	-0.095362999	1.2130001	0.37599999	-0.50099999
10	1	2	-0.145917	2.0650001	1.416	-0.667
11	1	3	0.214323	1.9450001	2.1370001	-1.4579999
12	1	2	-0.377691	3.214	1.6109999	0.241
13	1	3	0.220873	3.8629999	2.4649999	0.092
14	1	2	0.209435	3.451	0.74299997	1.233
15	1	1	-0.53189701	4.5630002	0.93000001	2.112
16	1	5	0.31977499	5.2080002	1.744	2.0020001
17	1	2	-0.377691	2.5569999	-0.419	1.41
18	1	3	0.220873	2.75	-1.1339999	2.2
19	1	2	-0.145917	1.512	-0.59600002	0.59399998
20	1	3	0.214323	0.87800002	-1.461	0.74299997
21	1	4	0.75313598	-0.42500001	1.344	-2.279
22	1	6	-0.200719	0.49900001	1.655	-3.263
23	1	6	-0.200719	-1.636	1.099	-2.908
24	1	6	-0.200719	-0.58999997	2.4489999	-1.46
25	1	4	0.75313598	0.491	-1.033	-2.428
26	1	6	-0.200719	-0.40400001	-1.206	-3.471
27	1	6	-0.200719	1.719	-0.70700002	-2.983
28	1	6	-0.200719	0.63499999	-2.2390001	-1.763
29	1	2	-0.13319001	-1.5319999	0.50300002	0.625
30	1	3	0.214323	-0.90399998	1.3380001	0.90899998
31	1	2	-0.407314	-2.5999999	0.219	1.3789999
32	1	3	0.22446001	-2.8169999	0.81999999	2.2520001
33	1	5	0.37314901	-5.2620001	-1.999	1.594
34	1	2	0.76842201	4.7519999	0.23800001	2.898
35	1	7	-0.657269	4.5780001	-0.991	2.6819999
36	1	2	-0.37068701	5.2090001	0.71600002	4.2150002
37	1	2	-0.079042003	5.388	2.0280001	4.4289999
38	1	3	0.224501	5.197	2.7479999	3.642
39	1	2	-0.249295	5.8449998	2.5190001	5.7459998
40	1	3	0.214581	5.9489999	3.5869999	5.8629999
41	1	2	-0.209986	6.1199999	1.658	6.75
42	1	4	0.024866	6.5609999	2.1210001	8.1490002
43	1	4	-0.131551	7.0910001	3.575	8.1940002
44	1	8	0.08766	6.276	4.302	7.994
45	1	8	0.08766	7.5040002	3.8110001	9.198
46	1	8	0.08766	7.8990002	3.721	7.4450002
47	1	2	-0.12523	7.632	1.222	8.6829996
48	1	2	-0.152558	8.8199997	0.954	8.1199999
49	1	3	0.213956	9.0939999	1.39	7.1680002
50	1	2	-0.00057799998	9.757	0.046999998	8.823
51	1	3	0.214711	10.713	-0.17399999	8.3640003
52	1	2	-0.34579301	9.4230003	-0.49000001	10.016
53	1	2	0.58598202	10.363	-1.388	10.708
54	1	7	-0.51462603	10.067	-1.898	11.822
55	1	2	0.070546001	8.1009998	-0.164	10.621
56	1	3	0.208516	7.8189998	-0.57300001	11.582
57	1	2	-0.181224	7.2639999	0.64899999	9.9580002
58	1	4	-0.027269	5.9109998	1.114	10.393
59	1	4	-0.13114201	6.0349998	2.0009999	11.646
60	1	8	0.091894001	6.4439998	1.42	12.5
61	1	8	0.091894001	6.711	2.8610001	11.452
62	1	8	0.091894001	5.039	2.3970001	11.939
63	1	4	-0.13114201	4.9850001	-0.085000001	10.677
64	1	8	0.091894001	5.3509998	-0.671	11.547
65	1	8	0.091894001	4.9369998	-0.759	9.7950001
66	1	8	0.091894001	3.957	0.27000001	10.906
67	1	4	-0.18120299	5.3920002	1.944	9.1739998
68	1	8	0.130119	4.9819999	2.927	9.4989996
69	1	8	0.130119	4.533	1.425	8.6929998
70	1	2	-0.249295	5.8909998	0.204	6.5079999
71	1	3	0.214581	6.0580001	-0.51300001	7.302
72	1	2	-0.079042003	5.4699998	-0.23800001	5.3169999
73	1	3	0.224501	5.3130002	-1.299	5.171
74	1	1	-0.41166899	-4.8309999	-0.63999999	2.684
75	1	2	0.140864	-4.1989999	-0.94199997	3.9300001
76	1	2	-0.407314	-4.4660001	-0.21600001	5.0240002
77	1	3	0.22446001	-5.1669998	0.60799998	4.9770002
78	1	2	-0.13319001	-3.813	-0.53100002	6.3109999
79	1	3	0.214323	-4.0910001	0.077	7.1560001
80	1	2	-0.095362999	-2.911	-1.5369999	6.408
81	1	4	-0.26280001	-2.2290001	-1.943	7.7379999
82	1	2	-0.095362999	-0.73400003	-2.2249999	7.4499998
83	1	2	-0.090585999	-0.055	-3.2639999	7.9910002
84	1	3	0.214323	-0.52700001	-3.9860001	8.6370001
85	1	2	-0.45374799	1.3839999	-3.46	7.7160001
86	1	3	0.22989599	1.89	-4.3140001	8.1479998
87	1	2	0.33364299	2.052	-2.592	6.9460001
88	1	1	-0.844423	3.4449999	-2.779	6.6799998
89	1	5	0.366896	3.9649999	-2.099	6.0819998
90	1	5	0.366896	3.9660001	-3.5929999	7.0770001
91	1	2	-0.45374799	1.341	-1.4299999	6.3759999
92	1	3	0.22989599	1.877	-0.71499997	5.7649999
93	1	2	-0.090585999	0.037999999	-1.253	6.6170001
94	1	3	0.214323	-0.456	-0.38800001	6.1919999
95	1	4	0.75313598	-3.0079999	-3.1930001	8.2709999
96	1	6	-0.200719	-2.6429999	-3.5039999	9.5699997
97	1	6	-0.200719	-4.3720002	-2.948	8.2690001
98	1	6	-0.200719	-2.776	-4.2979999	7.4679999
99	1	4	0.75313598	-2.2639999	-0.81599998	8.8260002
100	1	6	-0.200719	-3.54	-0.64300001	9.3380003
101	1	6	-0.200719	-1.431	-1.142	9.8850002
102	1	6	-0.200719	-1.83	0.38999999	8.302
103	1	2	-0.13319001	-2.648	-2.352	5.1830001
104	1	3	0.214323	-1.96	-3.187	5.2220001
105	1	2	-0.407314	-3.247	-2.0669999	4.0219998
106	1	3	0.22446001	-3.0350001	-2.6689999	3.1470001
107	1	5	0.37314901	-5.5089998	0.15099999	2.5999999
108	1	2	0.59148598	11.322	-1.62	10.265
109	1	7	-0.52506101	11.395	-1.779	9.0170002
110	1	2	-0.334308	12.514	-1.7460001	11.124
111	1	2	0.0046939999	13.724	-2.03	10.613
112	1	3	0.22232699	13.86	-2.175	9.5489998
113	1	2	-0.24268401	14.899	-2.148	11.499
114	1	3	0.214581	15.859	-2.3599999	11.045
115	1	2	-0.209986	14.786	-1.993	12.837
116	1	4	0.024866	16.035	-2.095	13.73
117	1	4	-0.131551	15.707	-2.148	15.239
118	1	8	0.08766	14.999	-2.977	15.46
119	1	8	0.08766	15.261	-1.1900001	15.581
120	1	8	0.08766	16.629999	-2.316	15.836
121	1	2	-0.12523	16.834999	-3.3139999	13.386
122	1	2	-0.171865	16.415001	-4.5869999	13.389
123	1	3	0.213956	15.393	-4.8330002	13.645
124	1	2	-0.061457001	17.374001	-5.6589999	13.033
125	1	3	0.231114	17.024	-6.6830001	13.032
126	1	2	-0.22755501	18.655001	-5.3579998	12.72
127	1	2	0.83543497	19.625	-6.4169998	12.366
128	1	7	-0.47969899	19.275	-7.6279998	12.348
129	1	9	-0.66435099	20.938	-6.0809999	12.048
130	1	10	0.41812399	21.613001	-6.796	11.803
131	1	2	0.0052519999	19.091	-3.9319999	12.736
132	1	3	0.22382499	20.114	-3.6670001	12.502
133	1	2	-0.175405	18.200001	-2.9790001	13.049
134	1	4	-0.027269	18.438	-1.505	13.139
135	1	4	-0.13114201	18.989	-0.958	11.808
136	1	8	0.091894001	19.997	-1.373	11.595
137	1	8	0.091894001	18.315001	-1.226	10.966
138	1	8	0.091894001	19.072001	0.149	11.853
139	1	4	-0.13114201	19.417	-1.197	14.287
140	1	8	0.091894001	19.032	-1.601	15.249
141	1	8	0.091894001	20.410999	-1.651	14.09
142	1	8	0.091894001	19.551001	-0.098999999	14.396
143	1	4	-0.18120299	17.021999	-0.91500002	13.442
144	1	8	0.130119	17.056999	-0.197	14.291
145	1	8	0.130119	16.663	-0.31099999	12.579
146	1	2	-0.24268401	13.439	-1.659	13.389
147	1	3	0.214581	13.29	-1.501	14.447
148	1	2	0.0046939999	12.376	-1.549	12.583
149	1	3	0.22232699	11.409	-1.309	13.007

Bonds

1	1	1	2
2	2	1	33
3	3	1	74
4	4	2	3
5	4	2	31
6	5	3	4
7	4	3	5
8	5	5	6
9	4	5	7
10	6	7	8
11	4	7	29
12	6	8	9
13	7	8	21
14	7	8	25
15	4	9	10
16	4	9	19
17	5	10	11
18	4	10	12
19	5	12	13
20	4	12	14
21	1	14	15
22	4	14	17
23	2	15	16
24	8	15	34
25	5	17	18
26	4	17	19
27	5	19	20
28	9	21	22
29	9	21	23
30	9	21	24
31	9	25	26
32	9	25	27
33	9	25	28
34	5	29	30
35	4	29	31
36	5	31	32
37	10	34	35
38	11	34	36
39	4	36	37
40	4	36	72
41	5	37	38
42	4	37	39
43	5	39	40
44	4	39	41
45	6	41	42
46	4	41	70
47	7	42	43
48	6	42	47
49	7	42	67
50	12	43	44
51	12	43	45
52	12	43	46
53	4	47	48
54	4	47	57
55	5	48	49
56	4	48	50
57	5	50	51
58	4	50	52
59	11	52	53
60	4	52	55
61	10	53	54
62	11	53	108
63	5	55	56
64	4	55	57
65	6	57	58
66	7	58	59
67	7	58	63
68	7	58	67
69	12	59	60
70	12	59	61
71	12	59	62
72	12	63	64
73	12	63	65
74	12	63	66
75	12	67	68
76	12	67	69
77	5	70	71
78	4	70	72
79	5	72	73
80	1	74	75
81	2	74	107
82	4	75	76
83	4	75	105
84	5	76	77
85	4	76	78
86	5	78	79
87	4	78	80
88	6	80	81
89	4	80	103
90	6	81	82
91	7	81	95
92	7	81	99
93	4	82	83
94	4	82	93
95	5	83	84
96	4	83	85
97	5	85	86
98	4	85	87
99	1	87	88
100	4	87	91
101	2	88	89
102	2	88	90
103	5	91	92
104	4	91	93
105	5	93	94
106	9	95	96
107	9	95	97
108	9	95	98
109	9	99	100
110	9	99	101
111	9	99	102
112	5	103	104
113	4	103	105
114	5	105	106
115	10	108	109
116	11	108	110
117	4	110	111
118	4	110	148
119	5	111	112
120	4	111	113
121	5	113	114
122	4	113	115
123	6	115	116
124	4	115	146
125	7	116	117
126	6	116	121
127	7	116	143
128	12	117	118
129	12	117	119
130	12	117	120
131	4	121	122
132	4	121	133
133	5	122	123
134	4	122	124
135	5	124	125
136	4	124	126
137	11	126	127
138	4	126	131
139	10	127	128
140	13	127	129
141	14	129	130
142	5	131	132
143	4	131	133
144	6	133	134
145	7	134	135
146	7	134	139
147	7	134	143
148	12	135	136
149	12	135	137
150	12	135	138
151	12	139	140
152	12	139	141
153	12	139	142
154	12	143	144
155	12	143	145
156	5	146	147
157	4	146	148
158	5	148	149

Angles

1	1	108	110	148
2	4	36	37	38
3	5	117	116	143
4	5	116	143	145
5	4	125	124	126
6	1	8	9	10
7	1	42	47	57
8	5	63	58	67
9	1	3	5	7
10	5	134	139	140
11	4	7	29	30
12	4	86	85	87
13	5	134	143	144
14	1	74	75	76
15	6	131	133	134
16	2	2	1	74
17	1	122	121	133
18	6	116	121	122
19	4	82	93	94
20	5	8	21	23
21	1	115	146	148
22	5	8	21	24
23	5	26	25	27
24	4	48	50	51
25	1	36	72	70
26	6	42	47	48
27	5	116	117	119
28	4	70	72	73
29	4	9	19	20
30	1	15	34	35
31	5	57	58	63
32	5	81	95	98
33	5	116	117	120
34	5	133	134	135
35	1	12	14	17
36	7	141	139	142
37	4	14	17	18
38	1	48	50	52
39	5	42	43	45
40	1	12	14	15
41	4	37	39	40
42	3	75	74	107
43	5	81	95	97
44	4	52	55	56
45	5	42	67	58
46	1	113	115	146
47	5	27	25	28
48	1	8	7	29
49	5	80	81	95
50	5	115	116	143
51	1	5	7	8
52	1	127	126	131
53	4	82	83	84
54	9	128	127	129
55	1	48	47	57
56	4	123	122	124
57	4	47	48	49
58	4	146	148	149
59	4	83	85	86
60	4	126	131	132
61	1	37	39	41
62	4	77	76	78
63	1	10	9	19
64	1	39	41	70
65	5	9	8	21
66	1	81	82	83
67	4	103	105	106
68	5	7	8	9
69	3	87	88	90
70	1	1	2	3
71	3	1	74	107
72	4	91	93	94
73	1	116	121	133
74	6	55	57	58
75	1	121	133	134
76	1	47	48	50
77	5	134	143	145
78	5	139	134	143
79	5	95	81	99
80	1	75	76	78
81	1	52	53	108
82	1	76	75	105
83	4	71	70	72
84	7	144	143	145
85	1	83	82	93
86	5	133	134	143
87	5	26	25	28
88	5	22	21	23
89	5	22	21	24
90	4	2	31	32
91	4	18	17	19
92	5	58	63	66
93	4	4	3	5
94	7	44	43	45
95	5	58	59	61
96	4	104	103	105
97	4	38	37	39
98	1	82	83	85
99	1	15	14	17
100	5	41	42	67
101	5	41	42	43
102	5	134	139	141
103	5	134	135	137
104	1	1	2	31
105	4	76	78	79
106	5	81	95	96
107	4	56	55	57
108	7	140	139	141
109	5	43	42	47
110	1	126	131	133
111	5	58	59	60
112	7	119	117	120
113	1	2	31	29
114	4	41	70	71
115	7	61	59	62
116	4	80	103	104
117	1	108	110	111
118	5	135	134	143
119	4	10	12	13
120	5	42	43	46
121	4	115	146	147
122	4	79	78	80
123	1	85	87	88
124	1	2	3	5
125	4	75	105	106
126	5	80	81	82
127	4	6	5	7
128	5	47	42	67
129	5	82	81	95
130	5	134	135	138
131	7	60	59	61
132	7	64	63	66
133	1	80	103	105
134	5	58	59	62
135	3	89	88	90
136	4	110	111	112
137	5	42	67	68
138	1	47	57	55
139	5	7	8	25
140	1	81	80	103
141	4	84	83	85
142	1	75	105	103
143	5	58	63	65
144	1	74	75	105
145	1	122	124	126
146	1	121	133	131
147	1	54	53	108
148	5	59	58	67
149	4	3	5	6
150	5	8	25	26
151	5	115	116	117
152	1	9	10	12
153	5	116	143	134
154	1	83	85	87
155	7	136	135	138
156	7	44	43	46
157	1	47	57	58
158	5	21	8	25
159	4	114	113	115
160	4	2	3	4
161	1	76	78	80
162	1	124	126	131
163	4	30	29	31
164	5	9	8	25
165	1	7	29	31
166	1	10	12	14
167	1	52	55	57
168	5	8	25	27
169	4	9	10	11
170	5	81	99	100
171	7	137	135	138
172	4	36	72	73
173	1	87	91	93
174	5	8	21	22
175	5	42	67	69
176	1	85	87	91
177	4	40	39	41
178	5	117	116	121
179	4	92	91	93
180	1	3	2	31
181	7	60	59	62
182	5	116	117	118
183	5	96	95	98
184	1	35	34	36
185	1	14	17	19
186	5	101	99	102
187	5	96	95	97
188	1	124	126	127
189	4	51	50	52
190	1	53	108	110
191	1	111	113	115
192	4	17	19	20
193	7	136	135	137
194	7	64	63	65
195	1	41	70	72
196	1	78	80	81
197	4	87	91	92
198	1	110	148	146
199	1	109	108	110
200	5	43	42	67
201	5	135	134	139
202	7	65	63	66
203	1	78	80	103
204	1	34	36	37
205	5	121	116	143
206	1	9	19	17
207	1	82	93	91
208	1	39	41	42
209	4	111	113	114
210	5	58	63	64
211	8	127	129	130
212	3	14	15	16
213	1	15	34	36
214	3	16	15	34
215	1	88	87	91
216	4	147	146	148
217	5	97	95	98
218	5	115	116	121
219	1	113	115	116
220	1	50	52	55
221	5	134	139	142
222	5	23	21	24
223	1	126	127	129
224	4	29	31	32
225	5	8	25	28
226	7	68	67	69
227	5	116	143	144
228	5	58	67	68
229	5	59	58	63
230	7	140	139	142
231	1	111	110	148
232	1	36	37	39
233	1	5	7	29
234	1	52	53	54
235	7	118	117	119
236	2	1	74	75
237	5	57	58	67
238	1	53	108	109
239	5	80	81	99
240	7	118	117	120
241	4	110	148	149
242	1	116	115	146
243	4	122	124	125
244	1	50	52	53
245	4	121	122	123
246	5	7	8	21
247	5	81	99	102
248	4	49	48	50
249	5	82	81	99
250	4	11	10	12
251	5	133	134	139
252	1	53	52	55
253	3	33	1	74
254	1	37	36	72
255	5	81	99	101
256	1	34	36	72
257	1	121	122	124
258	5	58	67	69
259	5	42	43	44
260	3	87	88	89
261	5	57	58	59
262	3	2	1	33
263	4	112	111	113
264	2	14	15	34
265	5	100	99	102
266	4	132	131	133
267	4	13	12	14
268	1	42	41	70
269	1	110	111	113
270	1	126	127	128
271	4	75	76	77
272	5	134	135	136
273	5	41	42	47
274	1	8	9	19
275	7	45	43	46
276	5	100	99	101
277	1	81	82	93

Dihedrals

1	1	49	48	47	57
2	1	18	17	19	20
3	5	133	134	143	145
4	16	66	63	58	67
5	10	54	53	108	109
6	1	80	103	105	106
7	4	7	8	9	10
8	16	120	117	116	143
9	1	50	52	55	56
10	1	86	85	87	91
11	11	16	15	34	35
11	12	16	15	34	35
12	1	9	19	17	18
13	1	48	50	52	55
14	5	42	67	58	57
15	16	65	63	58	67
16	1	85	87	91	92
17	1	47	48	50	51
18	13	117	116	143	134
18	14	117	116	143	134
18	15	117	116	143	134
19	1	42	47	48	50
20	1	13	12	14	15
21	16	59	58	67	68
22	10	53	108	110	111
23	2	85	87	88	90
24	5	7	8	21	23
25	4	10	9	8	25
26	5	44	43	42	47
27	5	9	8	25	27
28	5	80	81	95	98
29	5	80	81	95	97
30	1	39	41	70	71
31	16	138	135	134	143
32	10	129	127	126	131
33	1	115	146	148	149
34	1	10	12	14	17
35	13	43	42	67	58
35	14	43	42	67	58
35	15	43	42	67	58
36	1	124	122	121	133
37	16	117	116	143	145
38	4	47	42	41	70
39	1	83	85	87	91
40	4	117	116	115	146
41	3	2	1	74	75
42	2	12	14	15	16
43	16	137	135	134	139
44	1	47	57	55	52
45	5	97	95	81	99
46	1	116	121	122	123
47	16	135	134	139	140
48	5	41	42	67	69
49	5	115	116	117	118
50	4	9	8	7	29
51	5	57	58	63	65
52	5	57	58	59	61
53	16	63	58	67	68
54	1	112	111	113	114
55	1	36	37	39	40
56	1	116	121	122	124
57	4	117	116	121	133
58	1	50	52	55	57
59	4	55	57	58	59
60	1	39	41	70	72
61	4	80	81	82	83
62	1	81	82	93	94
63	5	22	21	8	25
64	5	41	42	67	68
65	5	121	116	143	134
66	16	61	59	58	63
67	2	31	2	1	74
68	4	39	41	42	43
69	1	122	121	133	134
70	1	15	14	17	18
71	1	124	126	131	132
72	4	48	47	42	67
73	1	37	39	41	70
74	5	82	81	99	102
75	5	116	143	134	133
76	1	4	3	5	7
77	16	135	134	139	141
78	1	12	14	17	18
79	4	113	115	116	143
80	1	112	111	110	148
81	1	5	3	2	31
82	5	121	116	143	145
83	4	43	42	41	70
84	2	1	74	75	76
85	1	11	10	9	19
86	1	116	121	133	131
87	1	124	126	131	133
88	3	33	1	74	75
89	16	62	59	58	63
90	4	121	133	134	139
91	1	87	91	93	94
92	10	15	34	36	72
93	5	9	8	21	22
94	5	80	81	99	102
95	5	115	116	143	134
96	10	52	53	108	110
97	5	115	116	117	120
98	1	125	124	126	127
99	5	41	42	43	46
100	1	1	2	31	32
101	1	38	37	36	72
102	4	78	80	81	99
103	4	7	8	9	19
104	8	14	15	34	36
104	9	14	15	34	36
105	1	121	122	124	126
106	10	53	108	110	148
107	5	47	42	67	69
108	5	95	81	99	101
109	1	1	2	31	29
110	13	42	67	58	63
110	14	42	67	58	63
110	15	42	67	58	63
111	5	133	134	139	140
112	4	5	7	8	21
113	4	25	8	7	29
114	2	1	74	75	105
115	1	84	83	85	87
116	5	119	117	116	121
117	4	133	121	116	143
118	16	59	58	63	64
119	5	115	116	143	145
120	4	5	7	8	9
121	1	104	103	105	106
122	1	2	31	29	7
123	1	125	124	126	131
124	2	76	75	74	107
125	4	131	133	134	139
126	5	7	8	21	24
127	5	24	21	8	25
128	1	2	3	5	6
129	4	122	121	116	143
130	4	113	115	116	117
131	4	19	9	8	21
132	10	50	52	53	108
133	1	5	7	29	30
134	1	116	115	146	147
135	16	135	134	139	142
136	5	95	81	99	102
137	16	59	58	67	69
138	1	85	87	91	93
139	1	37	39	41	42
140	16	139	134	143	144
141	1	42	41	70	71
142	4	67	42	41	70
143	1	12	14	17	19
144	1	10	9	19	17
145	4	115	116	121	133
146	5	133	134	139	141
147	1	75	76	78	80
148	1	111	110	148	149
149	16	136	135	134	143
150	1	4	3	2	31
151	5	9	8	21	23
152	5	57	58	59	62
153	1	81	82	83	85
154	1	110	111	113	114
155	1	49	48	50	51
156	1	2	31	29	30
157	1	38	37	39	40
158	1	42	47	57	58
159	5	133	134	135	138
160	1	122	124	126	131
161	5	21	8	25	28
162	1	147	146	148	149
163	4	93	82	81	95
164	16	43	42	67	69
165	1	74	75	105	103
166	1	8	9	10	12
167	4	83	82	81	99
168	16	60	59	58	67
169	16	44	43	42	67
170	1	108	110	148	149
171	1	8	9	10	11
172	16	63	58	67	69
173	13	116	143	134	135
173	14	116	143	134	135
173	15	116	143	134	135
174	5	96	95	81	99
175	5	121	116	143	144
176	1	8	7	29	30
177	5	7	8	25	27
178	16	59	58	63	66
179	4	47	57	58	67
180	2	3	2	1	33
181	1	3	5	7	8
182	16	43	42	67	68
183	1	74	75	76	77
184	1	8	9	19	17
185	1	42	47	57	55
186	10	124	126	127	128
187	5	41	42	43	45
188	1	40	39	41	70
189	1	49	48	50	52
190	1	113	115	146	148
191	1	12	10	9	19
192	1	51	50	52	53
193	4	55	57	58	63
194	1	83	82	93	94
195	4	99	81	80	103
196	5	57	58	67	68
197	16	142	139	134	143
198	5	82	81	99	101
199	1	3	2	31	32
200	5	133	134	139	142
201	1	48	47	57	55
202	1	82	83	85	86
203	5	98	95	81	99
204	4	83	82	81	95
205	5	45	43	42	47
206	1	3	2	31	29
207	10	54	53	52	55
208	10	54	53	108	110
209	1	126	131	133	134
210	5	23	21	8	25
211	1	78	80	103	105
212	4	95	81	80	103
213	1	34	36	37	39
214	10	35	34	36	72
215	5	82	81	95	96
216	1	81	80	103	105
217	1	111	110	148	146
218	1	74	75	76	78
219	5	80	81	99	101
220	1	122	121	133	131
221	1	82	93	91	87
222	16	45	43	42	67
223	5	95	81	99	100
224	5	21	8	25	27
225	1	76	78	80	103
226	16	135	134	143	144
227	1	79	78	80	103
228	5	133	134	143	144
229	1	75	76	78	79
230	1	50	48	47	57
231	13	116	143	134	139
231	14	116	143	134	139
231	15	116	143	134	139
232	10	55	52	53	108
233	1	53	52	55	56
234	1	13	12	14	17
235	4	41	42	47	57
236	5	9	8	25	26
237	1	14	17	19	20
238	1	56	55	57	58
239	1	108	110	148	146
240	1	37	36	72	70
241	2	31	2	1	33
242	1	123	122	124	126
243	1	38	37	39	41
244	1	40	39	41	42
245	1	81	82	93	91
246	4	39	41	42	47
247	1	10	12	14	15
248	16	141	139	134	143
249	4	121	133	134	143
250	1	3	5	7	29
251	1	41	70	72	73
252	1	1	2	3	5
253	5	133	134	135	137
254	16	61	59	58	67
255	4	82	81	80	103
256	16	117	116	143	144
257	10	128	127	126	131
258	5	9	8	25	28
259	5	9	8	21	24
260	1	74	75	105	106
261	1	112	111	113	115
262	1	76	75	105	106
263	16	119	117	116	143
264	8	16	15	34	36
264	9	16	15	34	36
265	4	143	116	115	146
266	2	90	88	87	91
267	1	78	80	103	104
268	5	57	58	59	60
269	1	11	10	12	13
270	5	47	42	67	58
271	1	122	124	126	127
272	4	131	133	134	143
273	4	78	80	81	95
274	1	36	37	39	41
275	1	81	80	103	104
276	1	88	87	91	93
277	4	19	9	8	25
278	1	53	52	55	57
279	2	12	14	15	34
280	13	42	67	58	59
280	14	42	67	58	59
280	15	42	67	58	59
281	6	14	15	34	35
281	7	14	15	34	35
282	16	62	59	58	67
283	1	36	72	70	41
284	1	108	110	111	113
285	1	2	3	5	7
286	1	51	50	52	55
287	2	105	75	74	107
288	1	88	87	91	92
289	1	30	29	31	32
290	5	46	43	42	47
291	5	82	81	95	98
292	17	126	127	129	130
293	5	120	117	116	121
294	4	43	42	47	48
295	5	82	81	95	97
296	5	57	58	63	64
297	1	37	36	72	73
298	1	114	113	115	146
299	4	47	57	58	59
300	1	77	76	78	80
301	5	82	81	99	100
302	16	140	139	134	143
303	10	15	34	36	37
304	10	50	52	53	54
305	1	8	9	19	20
306	1	111	113	115	116
307	1	6	5	7	8
308	4	10	9	8	21
309	1	5	7	29	31
310	1	39	37	36	72
311	2	3	2	1	74
312	16	46	43	42	67
313	10	109	108	110	148
314	3	2	1	74	107
315	2	17	14	15	34
316	1	92	91	93	94
317	1	76	75	105	103
318	1	48	47	57	58
319	16	59	58	63	65
320	16	138	135	134	139
321	5	57	58	67	69
322	1	83	85	87	88
323	4	43	42	47	57
324	1	42	41	70	72
325	1	110	148	146	147
326	1	34	36	72	70
327	5	80	81	99	100
328	1	127	126	131	132
329	2	16	15	14	17
330	5	118	117	116	121
331	5	133	134	135	136
332	1	84	83	85	86
333	18	128	127	129	130
333	19	128	127	129	130
334	1	76	78	80	81
335	1	78	76	75	105
336	1	121	133	131	132
337	1	79	78	80	81
338	1	113	115	146	147
339	1	71	70	72	73
340	16	118	117	116	143
341	1	42	47	48	49
342	16	137	135	134	143
343	10	52	53	108	109
344	4	117	116	121	122
345	1	127	126	131	133
346	1	111	113	115	146
347	4	121	133	134	135
348	1	47	48	50	52
349	1	48	50	52	53
350	1	77	76	75	105
351	1	108	110	111	112
352	1	113	111	110	148
353	1	8	7	29	31
354	5	115	116	143	144
355	10	109	108	110	111
356	4	41	42	47	48
357	16	139	134	143	145
358	1	1	2	3	4
359	5	41	42	67	58
360	5	57	58	63	66
361	1	9	10	12	14
362	3	33	1	74	107
363	1	132	131	133	134
364	1	4	3	5	6
365	1	9	10	12	13
366	16	64	63	58	67
367	1	110	111	113	115
368	1	84	83	82	93
369	4	80	81	82	93
370	4	131	133	134	135
371	4	113	115	116	121
372	1	83	82	93	91
373	1	6	5	7	29
374	1	34	36	72	73
375	2	89	88	87	91
376	5	80	81	95	96
377	1	82	93	91	92
378	4	55	57	58	67
379	1	9	19	17	14
380	1	77	76	78	79
381	10	124	126	127	129
382	1	116	121	133	134
383	1	123	122	124	125
384	4	21	8	7	29
385	1	121	133	131	126
386	1	123	122	121	133
387	5	7	8	25	26
388	1	121	122	124	125
389	4	121	116	115	146
390	1	7	29	31	32
391	1	114	113	115	116
392	4	39	41	42	67
393	1	10	9	19	20
394	1	110	148	146	115
395	5	7	8	21	22
396	4	5	7	8	25
397	1	85	83	82	93
398	1	75	105	103	104
399	1	11	10	12	14
400	10	35	34	36	37
401	5	41	42	43	44
402	16	60	59	58	63
403	1	34	36	37	38
404	1	75	105	103	80
405	5	7	8	25	28
406	4	78	80	81	82
407	1	86	85	87	88
408	2	85	87	88	89
409	1	52	55	57	58
410	1	47	57	55	56
411	4	47	57	58	63
412	5	47	42	67	68
413	4	115	116	121	122
414	4	93	82	81	99
415	1	36	72	70	71
416	4	57	47	42	67
417	1	82	83	85	87
418	1	116	115	146	148
419	5	115	116	117	119
420	1	15	14	17	19
421	5	21	8	25	26
422	16	135	134	143	145
423	16	136	135	134	139
424	1	81	82	83	84

Impropers

3	1	5	7	3	6
8	1	105	106	75	103
19	1	5	6	7	3
31	1	36	34	37	72
35	3	127	129	126	128
38	1	103	105	80	104
39	3	127	128	129	126
55	1	36	37	72	34
58	1	82	93	81	83
60	1	103	80	104	105
64	1	131	133	126	132
71	1	14	15	17	12
74	1	57	47	55	58
79	1	48	47	49	50
84	1	70	72	41	71
90	1	55	52	56	57
104	1	2	1	3	31
108	1	19	9	17	20
109	1	122	123	124	121
110	2	15	16	34	14
111	1	82	83	93	81
113	1	2	3	31	1
130	1	9	10	19	8
131	1	14	12	15	17
132	1	39	40	41	37
135	1	121	122	133	116
140	1	83	82	84	85
143	1	48	50	47	49
150	1	70	71	72	41
151	1	52	50	53	55
155	1	85	86	87	83
164	1	7	5	8	29
169	1	17	19	14	18
171	1	122	124	121	123
173	1	85	87	83	86
178	1	80	78	81	103
183	1	50	51	52	48
195	1	121	133	116	122
196	1	85	83	86	87
208	1	72	36	70	73
215	1	111	110	112	113
216	1	7	8	29	5
222	1	133	121	131	134
223	1	12	14	10	13
224	2	1	33	74	2
225	1	122	121	123	124
235	1	50	52	48	51
237	1	14	17	12	15
240	1	113	114	115	111
247	1	31	2	29	32
249	1	9	8	10	19
256	1	37	39	36	38
261	1	93	94	82	91
283	1	146	115	147	148
286	1	72	70	73	36
297	1	148	146	149	110
299	1	12	10	13	14
301	1	52	55	50	53
306	1	10	11	12	9
309	1	34	15	35	36
311	1	57	58	47	55
319	1	82	81	83	93
324	1	124	126	122	125
330	1	78	79	80	76
334	1	34	35	36	15
342	1	47	48	57	42
343	1	75	76	105	74
348	1	3	4	5	2
349	1	110	108	111	148
352	1	126	131	124	127
360	1	115	113	116	146
362	1	19	20	9	17
373	1	124	125	126	122
374	1	47	42	48	57
376	1	131	132	133	126
377	2	15	34	14	16
381	1	19	17	20	9
382	1	31	29	32	2
384	1	76	75	77	78
386	1	126	124	127	131
396	1	75	74	76	105
399	1	3	2	4	5
405	1	34	36	15	35
408	1	78	76	79	80
410	1	2	31	1	3
412	1	53	52	54	108
413	1	113	115	111	114
419	1	148	149	110	146
420	2	1	2	33	74
422	1	87	91	85	88
423	1	111	113	110	112
427	1	5	3	6	7
429	1	103	104	105	80
430	1	70	41	71	72
439	1	53	108	52	54
441	1	80	81	103	78
446	1	41	70	39	42
450	1	57	55	58	47
456	1	10	12	9	11
460	1	53	54	108	52
466	2	15	14	16	34
467	1	115	116	146	113
471	2	74	107	1	75
472	1	52	53	55	50
474	1	10	9	11	12
476	1	29	7	30	31
481	1	76	77	78	75
483	1	93	82	91	94
492	1	39	37	40	41
503	1	36	72	34	37
511	1	31	32	2	29
515	1	9	19	8	10
521	1	133	131	134	121
533	1	37	36	38	39
536	1	91	92	93	87
543	1	50	48	51	52
549	2	88	90	87	89
559	1	29	30	31	7
564	1	110	111	148	108
565	1	108	53	109	110
572	1	17	14	18	19
578	1	115	146	113	116
583	1	108	109	110	53
585	2	1	74	2	33
586	1	93	91	94	82
591	1	76	78	75	77
610	1	110	148	108	111
613	1	48	49	50	47
614	1	105	75	103	106
616	2	88	87	89	90
619	1	148	110	146	149
620	1	17	18	19	14
646	1	7	29	5	8
647	1	108	110	53	109
649	2	88	89	90	87
651	1	41	39	42	70
652	1	72	73	36	70
653	3	127	126	128	129
667	1	80	103	78	81
674	1	91	93	87	92
682	1	37	38	39	36
683	1	133	134	121	131
685	1	41	42	70	39
687	1	83	85	82	84
688	1	111	112	113	110
690	1	146	147	148	115
691	1	131	126	132	133
699	1	83	84	85	82
700	2	74	75	107	1
701	1	39	41	37	40
702	1	113	111	114	115
707	1	91	87	92	93
709	1	55	56	57	52
710	1	3	5	2	4
713	1	124	122	125	126
714	1	47	57	42	48
719	1	12	13	14	10
721	1	126	127	131	124
729	1	87	88	91	85
730	2	74	1	75	107
743	1	55	57	52	56
745	1	146	148	115	147
747	1	87	85	88	91
748	1	75	105	74	76
759	1	29	31	7	30
760	1	78	80	76	79
761	1	105	103	106	75
767	1	121	116	122	133
