Title

148 atoms
155 bonds
268 angles
501 dihedrals
138 impropers

13 atom types
18 bond types
10 angle types
30 dihedral types
3 improper types
-23.34499931 76.65500069 xlo xhi
-14.91399956 85.08600044 ylo yhi
-3.88499999 96.11500001 zlo zhi
0.0 0.0 0.0 xy xz yz

Masses

1	12.01078
2	15.99943
3	14.00672
4	12.01078
5	1.007947
6	1.007947
7	1.007947
8	15.99943
9	1.007947
10	1.007947
11	12.01078
12	15.99943
13	1.007947


Pair Coeffs

1	0.086879315	3.4806469
2	0.2102061	3.0398122
3	0.16769152	3.206876
4	0.10884061	3.3795318
5	0.015779483	2.6445434
6	0.014090815	1.1034277
7	0.016409246	2.5832257
8	0.16846514	3.0251065
9	0.015611343	2.5725815
10	0.013106998	2.4536265
11	0.21	3.3996695
12	0.20947353	2.99716
13	1.2326e-05	0.53453923

Bond Coeffs

1 harmonic	582.698766451	1.225198386222
2 harmonic	492.76746816345	1.381897776683
3 harmonic	279.1350963404	1.454628925034
4 harmonic	352.0565580496	1.450098586273
5 harmonic	505.144496193	1.019481865027
6 harmonic	264.62148576755	1.52190126495
7 harmonic	370.04670688625	1.093899492634
8 harmonic	301.15400723785	1.345741232799
9 harmonic	425.69104206635	1.362945806494
10 harmonic	360.7852444772	1.387193227181
11 harmonic	397.2545789619	1.085358495916
12 harmonic	382.5450169811	1.379244394267
13 harmonic	505.481965552	1.304826179986
14 harmonic	300.03137914615	1.451203938761
15 harmonic	366.34047229585	1.464762957261
16 harmonic	602.81384337	1.196112346392
17 harmonic	385.7604595587	1.369745182308
18 harmonic	543.5267831885	0.9716763312559


Angle Coeffs

1 harmonic	55.42182150775	117.3465570514
2 harmonic	63.44422595415	115.5071327674
3 harmonic	57.8982893754	126.8062420451
4 harmonic	53.20531626545	116.5475862634
5 harmonic	48.776492647595	115.6030999533
6 harmonic	65.09061609600001	110.3538806181
7 harmonic	201.41175231035	127.4691416191
8 harmonic	34.066775159195	129.1835929926
9 harmonic	55.07882548015	112.8714009681
10 harmonic	33.56981613361	180


Dihedral Coeffs

1 fourier 1	-0.1488678166443	4	180
2 fourier 1	-0.1230328948768	3	180
3 fourier 1	0.2939295466901	2	0
4 fourier 1	-0.3024127022865	1	0
5 fourier 1	0.182238503271	2	0
6 fourier 1	0.02972342374561	3	0
7 fourier 1	1.809047390003	2	180
8 fourier 1	-0.04816277792592	1	0
9 fourier 1	3.101948770557	2	180
10 fourier 1	-0.4252153282372	1	0
11 fourier 1	2.348375642009	2	180
12 fourier 1	1.256156174911	1	0
13 fourier 1	0.9974165607242	2	180
14 fourier 1	0.1155372516788	3	0
15 fourier 1	0.1040663847541	3	0
16 fourier 1	0.09223874044423	3	0
17 fourier 1	0.3159935921949	2	180
18 fourier 1	0.3247796806857	1	180
19 fourier 1	0.1911926717192	3	0
20 fourier 1	2.779853741805	2	180
21 fourier 1	1.532232714475	2	180
22 fourier 1	0.4860993122944	2	180
23 fourier 1	0.8916986138746	1	0
24 fourier 1	3.661930099076	2	180
25 fourier 1	1.550515418264	2	180
26 fourier 1	6.736762477654	2	180
27 fourier 1	0.457973137376	1	0
28 fourier 1	-1.382973039546	1	0
29 fourier 1	0	1	0
30 fourier 1	0.8283030590042	2	180


Improper Coeffs

1 0.3333333333333333	-1	2
2 0.3666666666666667	-1	2
3 3.5	-1	2


Atoms

1	1	1	0.54860801	4.0289998	0.48899999	1.378
2	1	2	-0.65340501	4.243	-0.71499997	1.679
3	1	3	-0.483466	2.914	0.85399997	0.56
4	1	4	0.003426	1.977	-0.15700001	0.055
5	1	4	-0.004404	0.87	0.421	-0.88499999
6	1	4	-0.166659	1.567	1.123	-2.082
7	1	5	0.081283003	2.2520001	0.419	-2.602
8	1	5	0.081283003	0.82099998	1.485	-2.823
9	1	5	0.081283003	2.151	2.0090001	-1.763
10	1	4	-0.200905	-0.037	1.4579999	-0.167
11	1	5	0.121327	0.574	2.2349999	0.338
12	1	5	0.121327	-0.65399998	1.99	-0.92699999
13	1	4	0.13586	-0.98799998	0.82499999	0.86299998
14	1	3	-0.529172	-1.8049999	1.867	1.4960001
15	1	1	0.83100897	-2.503	1.655	2.7279999
16	1	2	-0.60478401	-2.428	0.55299997	3.3340001
17	1	6	0.32389599	-1.867	2.8169999	1.064
18	1	7	0.058687001	-0.382	0.33899999	1.655
19	1	4	-0.20446099	-1.905	-0.20100001	0.17399999
20	1	5	0.12284	-2.5439999	0.345	-0.55699998
21	1	5	0.12284	-2.5910001	-0.65200001	0.926
22	1	4	-0.024227999	-1.128	-1.3279999	-0.55500001
23	1	4	-0.168365	-2.1259999	-2.092	-1.46
24	1	5	0.084261999	-1.614	-2.924	-1.99
25	1	5	0.084261999	-2.575	-1.419	-2.2219999
26	1	5	0.084261999	-2.9590001	-2.52	-0.86000001
27	1	4	-0.168365	-0.56800002	-2.3559999	0.463
28	1	5	0.084261999	-0.152	-1.8839999	1.37
29	1	5	0.084261999	0.212	-2.9949999	-0.0040000002
30	1	5	0.084261999	-1.375	-3.0250001	0.833
31	1	4	-0.20701601	-0.011	-0.73100001	-1.473
32	1	5	0.123062	-0.51999998	-0.32600001	-2.378
33	1	5	0.123062	0.64200002	-1.549	-1.851
34	1	7	0.078815997	2.556	-0.926	-0.50099999
35	1	7	0.078815997	1.536	-0.66000003	0.92799997
36	1	6	0.32322299	2.7869999	1.869	0.36199999
37	1	8	-0.43742901	-3.0810001	2.428	3.1359999
38	1	1	0.26515299	-4.4549999	2.2950001	3.326
39	1	1	-0.20530801	-5.0900002	1.161	2.9920001
40	1	9	0.20006999	-4.5409999	0.329	2.5699999
41	1	1	-0.159788	-6.5479999	1.035	3.2
42	1	9	0.19664299	-7.0139999	0.093000002	2.951
43	1	1	0.19628599	-7.2529998	2.0650001	3.7160001
44	1	3	-0.582165	-8.6700001	2.0009999	3.9590001
45	1	1	0.40956101	-9.5050001	1.136	3.4660001
46	1	1	-0.28314	-10.937	1.1900001	3.822
47	1	1	-0.19277	-11.794	0.30199999	3.2909999
48	1	9	0.198667	-11.448	-0.45899999	2.6010001
49	1	1	-0.19277	-13.23	0.345	3.638
50	1	9	0.198667	-13.891	-0.38699999	3.1900001
51	1	1	-0.28314	-13.698	1.275	4.4920001
52	1	1	0.40956101	-15.126	1.349	4.862
53	1	3	-0.58216399	-15.986	0.49599999	4.388
54	1	1	0.19628599	-17.4	0.461	4.6539998
55	1	1	-0.15836699	-18.076	1.507	5.1750002
56	1	9	0.19664299	-17.589001	2.441	5.4130001
57	1	1	-0.257359	-19.533001	1.411	5.408
58	1	9	0.198338	-20.062	2.2539999	5.8340001
59	1	1	0.15400501	-20.195	0.29100001	5.0910001
60	1	8	-0.04087	-21.566999	0.211	5.3140001
61	1	1	-0.257359	-19.462999	-0.852	4.5029998
62	1	9	0.198338	-19.993999	-1.758	4.2399998
63	1	1	-0.15836699	-18.143	-0.76899999	4.2950001
64	1	9	0.19664299	-17.614	-1.609	3.8629999
65	1	10	0.139635	-15.431	2.1159999	5.5599999
66	1	1	-0.19277	-12.753	2.256	5.0780001
67	1	9	0.198667	-13.112	3.0109999	5.7659998
68	1	1	-0.19277	-11.453	2.217	4.7639999
69	1	9	0.198667	-10.781	2.944	5.204
70	1	10	0.139635	-9.1750002	0.37900001	2.767
71	1	1	-0.159788	-6.54	3.3069999	4.0939999
72	1	9	0.19664299	-7.092	4.1339998	4.5219998
73	1	1	-0.20530801	-5.2189999	3.4170001	3.9070001
74	1	9	0.20006999	-4.7080002	4.3309999	4.184
75	1	1	0.56127101	4.698	1.256	1.745
76	1	2	-0.64318001	4.2490001	2.158	2.5009999
77	1	3	-0.56184399	6.0770001	1.2359999	1.36
78	1	4	0.13002101	7.0419998	2.2379999	1.83
79	1	7	0.056387998	6.5580001	3.2320001	1.76
80	1	4	-0.20559099	7.4299998	1.9349999	3.289
81	1	5	0.12284	6.52	1.96	3.928
82	1	5	0.12284	7.8239999	0.89399999	3.3299999
83	1	4	-0.024768	8.4890003	2.9130001	3.862
84	1	4	-0.168365	9.0039997	2.3329999	5.2010002
85	1	5	0.084261999	9.7609997	3.0090001	5.6550002
86	1	5	0.084261999	8.1709995	2.2049999	5.9260001
87	1	5	0.084261999	9.4759998	1.337	5.053
88	1	4	-0.168365	7.8559999	4.29	4.1830001
89	1	5	0.084261999	7.23	4.6789999	3.365
90	1	5	0.084261999	7.1830001	4.2140002	5.0640001
91	1	5	0.084261999	8.6420002	5.039	4.4190001
92	1	4	-0.20579299	9.7060003	3.0380001	2.8929999
93	1	5	0.121743	10.292	2.095	2.9849999
94	1	5	0.121743	10.391	3.8369999	3.25
95	1	4	0.028198	9.3879995	3.2290001	1.373
96	1	4	-0.165268	10.675	2.908	0.57099998
97	1	5	0.077726997	10.5	3.0209999	-0.52100003
98	1	5	0.077726997	11.504	3.5880001	0.86500001
99	1	5	0.077726997	11.011	1.864	0.75199997
100	1	4	0.146988	8.9680004	4.684	1.0089999
101	1	3	-0.582627	9.9189997	5.6589999	1.533
102	1	11	0.60319901	9.7629995	6.9060001	1.335
103	1	2	-0.41533399	9.6110001	8.1190004	1.142
104	1	7	0.075754002	7.9569998	4.9299998	1.372
105	1	7	0.075754002	8.9189997	4.7880001	-0.098999999
106	1	4	-0.202098	8.2919998	2.2219999	0.93099999
107	1	5	0.12121	8.7130003	1.191	0.94199997
108	1	5	0.12121	7.987	2.4349999	-0.118
109	1	6	0.320043	6.3790002	0.49200001	0.69099998
110	1	8	-0.04087	-22.087999	-0.62599999	5.0809999
111	1	1	0.15400501	-21.488001	-1.712	4.447
112	1	1	-0.257359	-20.186001	-1.687	4.1220002
113	1	9	0.198338	-19.58	-0.81900001	4.3520002
114	1	1	-0.15836699	-19.563	-2.8469999	3.45
115	1	9	0.19664299	-18.504999	-2.7980001	3.2390001
116	1	1	0.19628599	-20.302999	-3.9349999	3.1459999
117	1	3	-0.582165	-19.754999	-5.1020002	2.5079999
118	1	1	0.40956101	-18.622999	-5.1820002	1.872
119	1	1	-0.28314	-18.187	-6.461	1.279
120	1	1	-0.19277	-17.025	-6.526	0.60699999
121	1	9	0.198667	-16.399	-5.6490002	0.49399999
122	1	1	-0.19277	-16.575001	-7.8000002	0.0080000004
123	1	9	0.198667	-15.633	-7.8140001	-0.52600002
124	1	1	-0.28314	-17.323999	-8.9130001	0.12800001
125	1	1	0.40956101	-16.907	-10.203	-0.458
126	1	3	-0.58216399	-15.78	-10.316	-1.097
127	1	1	0.19628599	-15.261	-11.503	-1.723
128	1	1	-0.129645	-16.027	-12.578	-2.01
129	1	9	0.19664299	-17.084	-12.6	-1.793
130	1	1	-0.38351101	-15.433	-13.76	-2.671
131	1	9	0.20171399	-16.056999	-14.618	-2.8889999
132	1	1	0.28026	-14.136	-13.768	-3.0020001
133	1	12	-0.655586	-13.588	-14.886	-3.625
134	1	13	0.42708099	-12.609	-14.914	-3.885
135	1	1	-0.38351101	-13.296	-12.587	-2.707
136	1	9	0.20171399	-12.248	-12.586	-2.9779999
137	1	1	-0.129645	-13.83	-11.516	-2.105
138	1	9	0.19664299	-13.21	-10.655	-1.8940001
139	1	10	0.139635	-17.554001	-11.058	-0.31400001
140	1	1	-0.19277	-18.606001	-8.8409996	0.86900002
141	1	9	0.198667	-19.222	-9.7259998	0.97500002
142	1	1	-0.19277	-19.014	-7.6880002	1.411
143	1	9	0.198667	-19.954	-7.6599998	1.948
144	1	10	0.139635	-17.996	-4.3099999	1.742
145	1	1	-0.15836699	-21.735001	-3.9579999	3.5209999
146	1	9	0.19664299	-22.336	-4.8309999	3.296
147	1	1	-0.257359	-22.296	-2.9070001	4.1329999
148	1	9	0.198338	-23.344999	-2.934	4.3990002

Bonds

1	1	1	2
2	2	1	3
3	3	1	75
4	4	3	4
5	5	3	36
6	6	4	5
7	7	4	34
8	7	4	35
9	6	5	6
10	6	5	10
11	6	5	31
12	7	6	7
13	7	6	8
14	7	6	9
15	7	10	11
16	7	10	12
17	6	10	13
18	4	13	14
19	7	13	18
20	6	13	19
21	2	14	15
22	5	14	17
23	1	15	16
24	8	15	37
25	7	19	20
26	7	19	21
27	6	19	22
28	6	22	23
29	6	22	27
30	6	22	31
31	7	23	24
32	7	23	25
33	7	23	26
34	7	27	28
35	7	27	29
36	7	27	30
37	7	31	32
38	7	31	33
39	9	37	38
40	10	38	39
41	10	38	73
42	11	39	40
43	10	39	41
44	11	41	42
45	10	41	43
46	12	43	44
47	10	43	71
48	13	44	45
49	3	45	46
50	11	45	70
51	10	46	47
52	10	46	68
53	11	47	48
54	10	47	49
55	11	49	50
56	10	49	51
57	3	51	52
58	10	51	66
59	13	52	53
60	11	52	65
61	12	53	54
62	10	54	55
63	10	54	63
64	11	55	56
65	10	55	57
66	11	57	58
67	10	57	59
68	9	59	60
69	10	59	61
70	14	60	110
71	11	61	62
72	10	61	63
73	11	63	64
74	11	66	67
75	10	66	68
76	11	68	69
77	11	71	72
78	10	71	73
79	11	73	74
80	1	75	76
81	2	75	77
82	4	77	78
83	5	77	109
84	7	78	79
85	6	78	80
86	6	78	106
87	7	80	81
88	7	80	82
89	6	80	83
90	6	83	84
91	6	83	88
92	6	83	92
93	7	84	85
94	7	84	86
95	7	84	87
96	7	88	89
97	7	88	90
98	7	88	91
99	7	92	93
100	7	92	94
101	6	92	95
102	6	95	96
103	6	95	100
104	6	95	106
105	7	96	97
106	7	96	98
107	7	96	99
108	15	100	101
109	7	100	104
110	7	100	105
111	16	101	102
112	1	102	103
113	7	106	107
114	7	106	108
115	9	110	111
116	10	111	112
117	10	111	147
118	11	112	113
119	10	112	114
120	11	114	115
121	10	114	116
122	12	116	117
123	10	116	145
124	13	117	118
125	3	118	119
126	11	118	144
127	10	119	120
128	10	119	142
129	11	120	121
130	10	120	122
131	11	122	123
132	10	122	124
133	3	124	125
134	10	124	140
135	13	125	126
136	11	125	139
137	12	126	127
138	10	127	128
139	10	127	137
140	11	128	129
141	10	128	130
142	11	130	131
143	10	130	132
144	17	132	133
145	10	132	135
146	18	133	134
147	11	135	136
148	10	135	137
149	11	137	138
150	11	140	141
151	10	140	142
152	11	142	143
153	11	145	146
154	10	145	147
155	11	147	148

Angles

1	4	5	10	13
2	5	32	31	33
3	8	111	147	148
4	6	60	110	111
5	8	44	45	70
6	8	71	73	74
7	4	95	96	98
8	8	38	39	40
9	2	75	77	109
10	8	129	128	130
11	10	101	102	103
12	8	119	118	144
13	4	22	27	30
14	3	14	15	37
15	4	83	92	95
16	3	2	1	75
17	4	13	19	20
18	8	141	140	142
19	4	23	22	27
20	4	22	31	33
21	4	81	80	83
22	8	46	68	69
23	4	83	84	86
24	8	42	41	43
25	5	7	6	9
26	4	96	95	100
27	3	128	130	132
28	3	112	114	116
29	6	132	133	134
30	3	47	46	68
31	4	79	78	80
32	3	39	41	43
33	3	60	59	61
34	4	93	92	95
35	3	122	124	140
36	2	4	3	36
37	4	83	92	93
38	3	39	38	73
39	3	133	132	135
40	5	25	23	26
41	4	5	31	33
42	4	4	5	6
43	8	46	47	48
44	9	52	53	54
45	5	89	88	90
46	8	126	125	139
47	8	120	122	123
48	5	24	23	25
49	4	10	5	31
50	4	13	19	22
51	4	82	80	83
52	4	23	22	31
53	4	10	13	19
54	5	81	80	82
55	4	83	88	90
56	3	76	75	77
57	4	3	4	34
58	3	124	140	142
59	8	53	52	65
60	8	54	55	56
61	8	132	135	136
62	4	80	83	92
63	3	46	68	66
64	3	38	39	41
65	8	51	52	65
66	4	5	6	9
67	3	110	111	147
68	4	10	13	14
69	4	77	78	79
70	3	126	127	137
71	4	3	4	5
72	3	116	145	147
73	8	128	130	131
74	4	18	13	19
75	8	39	41	42
76	3	53	54	55
77	3	111	112	114
78	3	49	51	52
79	4	3	4	35
80	4	19	22	27
81	3	54	55	57
82	4	78	106	108
83	3	110	111	112
84	5	97	96	98
85	4	14	13	18
86	3	54	63	61
87	5	85	84	87
88	3	119	142	140
89	8	54	63	64
90	8	113	112	114
91	1	1	3	4
92	4	95	100	101
93	4	83	92	94
94	8	145	147	148
95	8	131	130	132
96	5	20	19	21
97	3	117	116	145
98	4	96	95	106
99	3	122	124	125
100	3	127	137	135
101	4	78	106	95
102	8	124	125	139
103	3	51	52	53
104	8	140	142	143
105	3	111	147	145
106	3	120	119	142
107	8	56	55	57
108	4	22	23	26
109	4	77	78	80
110	5	93	92	94
111	8	123	122	124
112	3	37	38	73
113	3	38	73	71
114	4	95	106	107
115	4	92	95	96
116	5	104	100	105
117	3	125	124	140
118	3	2	1	3
119	4	5	4	34
120	3	112	111	147
121	3	128	127	137
122	3	43	71	73
123	3	118	119	142
124	4	80	78	106
125	4	21	19	22
126	4	80	83	88
127	8	115	114	116
128	4	5	31	22
129	5	28	27	29
130	1	75	77	78
131	1	13	14	15
132	5	11	10	12
133	3	3	1	75
134	4	92	95	100
135	3	49	51	66
136	5	98	96	99
137	8	136	135	137
138	2	13	14	17
139	3	126	127	128
140	4	83	88	89
141	8	124	140	141
142	4	5	4	35
143	4	4	5	31
144	4	95	96	97
145	8	47	49	50
146	4	22	23	24
147	4	5	6	7
148	5	8	6	9
149	4	27	22	31
150	4	4	5	10
151	4	77	78	106
152	4	95	96	99
153	9	125	126	127
154	8	62	61	63
155	4	95	100	104
156	8	72	71	73
157	5	28	27	30
158	3	41	43	44
159	4	10	13	18
160	8	117	118	144
161	5	86	84	87
162	6	15	37	38
163	4	5	31	32
164	8	111	112	113
165	4	83	88	91
166	8	58	57	59
167	8	121	120	122
168	4	84	83	92
169	3	45	46	68
170	3	132	135	137
171	5	7	6	8
172	8	40	39	41
173	3	117	118	119
174	4	22	23	25
175	8	127	128	129
176	3	1	75	77
177	4	19	22	23
178	3	59	61	63
179	3	14	15	16
180	4	19	22	31
181	3	37	38	39
182	3	57	59	60
183	5	34	4	35
184	3	44	45	46
185	2	1	3	36
186	4	22	27	29
187	5	85	84	86
188	5	107	106	108
189	4	88	83	92
190	8	59	61	62
191	3	52	51	66
192	4	13	19	21
193	8	38	73	74
194	8	116	145	146
195	9	100	101	102
196	3	53	54	63
197	4	5	10	11
198	4	12	10	13
199	4	101	100	104
200	8	146	145	147
201	3	1	75	76
202	4	83	84	85
203	3	114	116	117
204	6	59	60	110
205	8	61	63	64
206	4	100	95	106
207	4	92	95	106
208	3	130	132	135
209	4	5	6	8
210	3	55	54	63
211	3	130	132	133
212	8	51	66	67
213	8	119	142	143
214	4	11	10	13
215	4	78	80	81
216	5	89	88	91
217	9	116	117	118
218	4	95	100	105
219	4	22	31	32
220	3	44	43	71
221	9	43	44	45
222	4	20	19	22
223	5	29	27	30
224	3	46	47	49
225	3	41	43	71
226	4	78	106	107
227	4	80	83	84
228	5	97	96	99
229	3	114	116	145
230	3	119	120	122
231	8	127	137	138
232	4	84	83	88
233	3	45	46	47
234	7	16	15	37
235	4	94	92	95
236	8	112	114	115
237	2	15	14	17
238	4	78	80	83
239	8	119	120	121
240	8	43	71	72
241	3	57	59	61
242	3	51	66	68
243	5	90	88	91
244	4	95	106	108
245	8	135	137	138
246	8	66	68	69
247	8	46	45	70
248	4	6	5	31
249	4	14	13	19
250	4	22	27	28
251	8	50	49	51
252	8	55	57	58
253	5	24	23	26
254	3	47	49	51
255	3	127	128	130
256	4	6	5	10
257	3	118	119	120
258	4	5	10	12
259	3	55	57	59
260	4	101	100	105
261	8	48	47	49
262	2	78	77	109
263	4	78	80	82
264	4	83	84	87
265	3	124	125	126
266	3	120	122	124
267	8	67	66	68
268	4	79	78	106

Dihedrals

1	14	77	78	80	82
2	15	98	96	95	106
3	24	48	47	49	50
4	15	31	5	4	34
5	24	37	38	39	41
6	15	18	13	19	22
7	15	87	84	83	92
8	26	54	53	52	65
9	26	127	126	125	139
10	19	79	78	106	107
11	24	45	46	47	49
12	24	131	130	132	133
13	15	23	22	27	30
14	15	31	5	4	35
15	24	43	71	73	74
16	7	17	14	15	37
16	8	17	14	15	37
17	24	39	38	73	71
18	15	92	95	96	97
19	25	52	53	54	63
20	25	125	126	127	137
21	15	82	80	83	92
22	24	115	114	116	145
23	5	35	4	3	36
23	6	35	4	3	36
24	14	92	95	100	101
25	15	19	22	31	32
26	5	5	4	3	36
26	6	5	4	3	36
27	24	45	46	68	69
28	24	111	147	145	146
29	15	92	95	106	107
30	15	25	23	22	27
31	15	24	23	22	27
32	5	1	3	4	35
32	6	1	3	4	35
33	24	67	66	68	69
34	24	113	112	114	115
35	24	55	54	63	64
36	24	120	119	142	143
37	24	111	112	114	116
38	24	119	142	140	124
39	24	45	46	47	48
40	24	130	128	127	137
41	24	118	119	120	122
42	5	17	14	13	18
42	6	17	14	13	18
43	14	14	13	19	20
44	15	90	88	83	92
45	25	114	116	117	118
46	26	116	117	118	119
47	15	6	5	4	34
48	24	128	127	137	135
49	15	80	78	106	107
50	24	49	51	66	68
51	24	39	41	43	71
52	19	79	78	80	81
53	14	11	10	13	14
54	15	80	83	92	93
55	15	6	5	4	35
56	13	3	1	75	77
57	24	37	38	73	74
58	19	79	78	106	108
59	24	72	71	73	74
60	24	42	41	43	71
61	24	54	55	57	59
62	13	120	119	118	144
63	30	134	133	132	135
64	24	110	111	112	113
65	16	78	80	83	88
65	17	78	80	83	88
65	18	78	80	83	88
66	24	41	43	71	73
67	24	121	120	119	142
68	26	116	117	118	144
69	24	118	119	142	143
70	15	79	78	106	95
71	24	130	132	135	136
72	15	85	84	83	88
73	15	27	22	31	33
74	15	4	5	10	11
75	15	93	92	95	100
76	14	77	78	80	83
77	1	75	77	78	80
77	2	75	77	78	80
77	3	75	77	78	80
77	4	75	77	78	80
78	16	6	5	31	22
78	17	6	5	31	22
78	18	6	5	31	22
79	24	44	43	71	73
80	25	52	53	54	55
81	15	81	80	83	92
82	16	78	106	95	92
82	17	78	106	95	92
82	18	78	106	95	92
83	15	81	80	78	106
84	7	13	14	15	37
84	8	13	14	15	37
85	24	47	46	68	66
86	24	133	132	135	137
87	24	46	47	49	51
88	24	47	49	51	52
89	15	23	22	27	29
90	15	92	95	106	108
91	13	49	51	52	65
92	24	125	124	140	141
93	14	77	78	80	81
94	24	114	116	145	147
95	13	2	1	75	76
96	15	100	95	106	107
97	15	19	22	23	25
98	16	4	5	10	13
98	17	4	5	10	13
98	18	4	5	10	13
99	24	113	112	111	147
100	24	120	119	142	140
101	24	128	127	137	138
102	21	57	59	60	110
103	15	10	13	19	21
104	15	80	78	106	108
105	19	79	78	80	82
106	22	16	15	14	17
106	23	16	15	14	17
107	15	80	83	88	91
108	16	80	78	106	95
108	17	80	78	106	95
108	18	80	78	106	95
109	15	84	83	88	91
110	15	8	6	5	10
111	24	53	54	63	61
112	15	88	83	92	93
113	7	4	3	1	75
113	8	4	3	1	75
114	15	80	83	84	85
115	15	27	22	31	32
116	24	49	51	66	67
117	16	4	5	31	22
117	17	4	5	31	22
117	18	4	5	31	22
118	24	129	128	130	132
119	24	115	114	116	117
120	27	59	60	110	111
121	24	123	122	124	125
122	24	118	119	142	140
123	15	94	92	95	106
124	15	97	96	95	100
125	15	21	19	22	23
126	15	97	96	95	106
127	16	13	19	22	27
127	17	13	19	22	27
127	18	13	19	22	27
128	13	44	45	46	47
129	24	119	120	122	124
130	16	5	31	22	23
130	17	5	31	22	23
130	18	5	31	22	23
131	24	38	39	41	43
132	24	110	111	112	114
133	24	129	128	130	131
134	16	13	19	22	23
134	17	13	19	22	23
134	18	13	19	22	23
135	24	46	47	49	50
136	7	1	75	77	78
136	8	1	75	77	78
137	15	6	5	31	33
138	15	100	95	106	108
139	24	56	55	54	63
140	15	84	83	88	90
141	16	78	80	83	92
141	17	78	80	83	92
141	18	78	80	83	92
142	21	61	59	60	110
143	24	55	57	59	60
144	5	15	14	13	18
144	6	15	14	13	18
145	16	10	13	19	22
145	17	10	13	19	22
145	18	10	13	19	22
146	15	19	22	23	26
147	15	85	84	83	92
148	24	119	120	122	123
149	25	41	43	44	45
150	24	122	120	119	142
151	24	45	46	68	66
152	15	92	95	96	99
153	16	80	83	92	95
153	17	80	83	92	95
153	18	80	83	92	95
154	15	92	95	100	104
155	13	2	1	75	77
156	5	1	3	4	34
156	6	1	3	4	34
157	15	19	22	23	24
158	7	13	14	15	16
158	8	13	14	15	16
159	15	79	78	80	83
160	15	93	92	95	96
161	19	12	10	13	18
162	15	5	10	13	18
163	24	48	47	46	68
164	15	19	22	27	28
165	24	112	111	147	148
166	19	18	13	19	20
167	15	80	83	84	86
168	24	118	119	120	121
169	11	76	75	77	109
169	12	76	75	77	109
170	16	5	31	22	19
170	17	5	31	22	19
170	18	5	31	22	19
171	9	2	1	3	4
171	10	2	1	3	4
172	16	84	83	92	95
172	17	84	83	92	95
172	18	84	83	92	95
173	15	4	5	31	33
174	30	130	132	133	134
175	15	28	27	22	31
176	15	84	83	92	94
177	15	104	100	95	106
178	15	6	5	31	32
179	24	38	73	71	72
180	28	102	101	100	105
181	13	53	52	51	66
182	15	86	84	83	88
183	15	20	19	22	27
184	24	123	122	124	140
185	7	36	3	1	75
185	8	36	3	1	75
186	15	96	95	100	105
187	24	120	122	124	125
188	15	12	10	5	31
189	15	6	5	10	12
190	24	129	128	127	137
191	15	93	92	95	106
192	24	53	54	55	56
193	24	141	140	142	143
194	21	15	37	38	39
195	15	20	19	22	23
196	13	44	45	46	68
197	16	88	83	92	95
197	17	88	83	92	95
197	18	88	83	92	95
198	5	17	14	13	19
198	6	17	14	13	19
199	24	53	54	55	57
200	24	112	111	147	145
201	15	29	27	22	31
202	24	126	127	137	135
203	24	53	54	63	64
204	24	127	137	135	132
205	11	2	1	3	36
205	12	2	1	3	36
206	24	57	59	61	62
207	15	94	92	95	96
208	29	100	101	102	103
209	26	43	44	45	70
210	24	41	39	38	73
211	24	111	112	114	115
212	15	7	6	5	31
213	24	128	130	132	135
214	24	39	38	73	74
215	9	76	75	77	78
215	10	76	75	77	78
216	13	47	46	45	70
217	24	117	116	145	147
218	15	4	5	6	8
219	15	96	95	106	107
220	24	62	61	63	64
221	24	46	68	66	67
222	5	34	4	3	36
222	6	34	4	3	36
223	15	9	6	5	31
224	14	14	13	19	21
225	24	114	116	145	146
226	15	80	83	84	87
227	16	83	80	78	106
227	17	83	80	78	106
227	18	83	80	78	106
228	24	136	135	137	138
229	24	55	57	59	61
230	24	110	111	147	148
231	16	83	92	95	100
231	17	83	92	95	100
231	18	83	92	95	100
232	24	52	51	66	68
233	15	25	23	22	31
234	15	89	88	83	92
235	24	38	39	41	42
236	14	96	95	100	101
237	25	125	126	127	128
238	24	40	39	38	73
239	15	23	22	31	33
240	24	58	57	59	60
241	24	112	114	116	145
242	26	124	125	126	127
243	24	37	38	73	71
244	24	126	127	137	138
245	24	56	55	57	59
246	24	111	147	145	116
247	1	1	3	4	5
247	2	1	3	4	5
247	3	1	3	4	5
247	4	1	3	4	5
248	24	113	112	114	116
249	15	80	83	88	90
250	14	3	4	5	31
251	15	86	84	83	92
252	13	3	1	75	76
253	24	120	122	124	140
254	15	84	83	88	89
255	15	96	95	106	108
256	28	95	100	101	102
257	16	78	80	83	84
257	17	78	80	83	84
257	18	78	80	83	84
258	13	49	51	52	53
259	1	10	13	14	15
259	2	10	13	14	15
259	3	10	13	14	15
259	4	10	13	14	15
260	21	15	37	38	73
261	24	110	111	147	145
262	24	40	39	41	43
263	5	10	13	14	17
263	6	10	13	14	17
264	15	80	83	92	94
265	15	19	22	27	30
266	15	98	96	95	100
267	14	14	13	19	22
268	16	78	106	95	100
268	17	78	106	95	100
268	18	78	106	95	100
269	24	54	55	57	58
270	24	51	66	68	69
271	15	82	80	83	84
272	13	142	119	118	144
273	24	60	59	61	62
274	16	10	5	31	22
274	17	10	5	31	22
274	18	10	5	31	22
275	15	30	27	22	31
276	24	37	38	39	40
277	15	10	5	4	34
278	24	132	135	137	138
279	24	114	112	111	147
280	15	92	95	96	98
281	24	121	120	122	124
282	24	127	128	130	132
283	15	23	22	31	32
284	15	10	5	4	35
285	15	6	5	10	11
286	24	127	137	135	136
287	13	68	46	45	70
288	14	12	10	13	14
289	15	23	22	27	28
290	14	5	10	13	14
291	26	51	52	53	54
292	1	15	14	13	19
292	2	15	14	13	19
292	3	15	14	13	19
292	4	15	14	13	19
293	13	139	125	124	140
294	13	122	124	125	126
295	24	52	51	66	67
296	21	60	110	111	147
297	24	41	43	71	72
298	24	50	49	51	66
299	24	57	59	61	63
300	15	10	13	19	20
301	24	126	127	128	129
302	24	54	63	61	59
303	21	60	110	111	112
304	13	117	118	119	120
305	14	77	78	106	107
306	24	131	130	132	135
307	24	121	120	122	123
308	19	11	10	13	18
309	24	127	128	130	131
310	24	44	43	71	72
311	24	38	73	71	43
312	24	128	130	132	133
313	15	82	80	78	106
314	15	26	23	22	31
315	15	7	6	5	10
316	15	12	10	13	19
317	15	21	19	22	31
318	16	5	10	13	19
318	17	5	10	13	19
318	18	5	10	13	19
319	16	6	5	10	13
319	17	6	5	10	13
319	18	6	5	10	13
320	5	79	78	77	109
320	6	79	78	77	109
321	24	39	41	43	44
322	5	75	77	78	79
322	6	75	77	78	79
323	24	146	145	147	148
324	24	59	61	63	64
325	15	88	83	92	94
326	15	87	84	83	88
327	24	130	132	135	137
328	15	81	80	83	84
329	20	14	15	37	38
330	15	9	6	5	10
331	16	83	92	95	96
331	17	83	92	95	96
331	18	83	92	95	96
332	24	42	41	43	44
333	16	13	19	22	31
333	17	13	19	22	31
333	18	13	19	22	31
334	24	55	54	63	61
335	24	133	132	135	136
336	24	126	127	128	130
337	24	54	63	61	62
338	24	124	140	142	143
339	15	19	22	27	29
340	25	45	44	43	71
341	24	112	114	116	117
342	13	122	124	125	139
343	15	11	10	5	31
344	5	106	78	77	109
344	6	106	78	77	109
345	24	49	47	46	68
346	24	58	57	59	61
347	24	48	47	49	51
348	15	82	80	83	88
349	15	11	10	13	19
350	14	3	4	5	6
351	24	119	142	140	141
352	13	126	125	124	140
353	15	10	5	31	33
354	24	56	55	57	58
355	15	4	5	31	32
356	25	118	117	116	145
357	24	125	124	140	142
358	16	13	10	5	31
358	17	13	10	5	31
358	18	13	10	5	31
359	13	65	52	51	66
360	24	57	55	54	63
361	14	77	78	106	108
362	1	75	77	78	106
362	2	75	77	78	106
362	3	75	77	78	106
362	4	75	77	78	106
363	15	84	83	92	93
364	24	47	46	68	69
365	13	117	118	119	142
366	19	18	13	19	21
367	15	4	5	10	12
368	28	102	101	100	104
369	5	80	78	77	109
369	6	80	78	77	109
370	7	1	75	77	109
370	8	1	75	77	109
371	14	3	4	5	10
372	14	77	78	106	95
373	16	83	92	95	106
373	17	83	92	95	106
373	18	83	92	95	106
374	24	117	116	145	146
375	15	96	95	100	104
376	15	92	95	100	105
377	15	24	23	22	31
378	16	78	106	95	96
378	17	78	106	95	96
378	18	78	106	95	96
379	21	16	15	37	38
380	26	43	44	45	46
381	24	60	59	61	63
382	15	19	22	31	33
383	24	122	124	140	142
384	15	105	100	95	106
385	24	116	145	147	148
386	15	26	23	22	27
387	15	21	19	22	27
388	24	50	49	51	52
389	24	122	124	140	141
390	24	40	39	41	42
391	15	94	92	95	100
392	15	80	83	88	89
393	15	91	88	83	92
394	16	5	31	22	27
394	17	5	31	22	27
394	18	5	31	22	27
395	14	101	100	95	106
396	15	4	5	6	9
397	15	81	80	83	88
398	24	47	49	51	66
399	15	99	96	95	100
400	15	10	5	31	32
401	15	4	5	6	7
402	15	99	96	95	106
403	24	46	68	66	51
404	15	20	19	22	31
405	15	8	6	5	31

Impropers

19	2	112	114	111	113
22	2	39	41	38	40
26	1	14	13	15	17
32	2	127	126	128	137
33	2	125	139	124	126
41	2	66	51	67	68
42	2	135	136	137	132
49	2	59	61	57	60
50	2	61	63	59	62
52	2	38	39	73	37
85	2	71	72	73	43
86	2	41	43	39	42
88	2	120	122	119	121
93	2	73	38	71	74
94	2	46	68	45	47
103	2	145	147	116	146
106	2	57	55	58	59
107	2	122	123	124	120
108	2	52	51	53	65
119	2	59	57	60	61
132	3	15	16	37	14
148	2	43	71	41	44
151	3	15	37	14	16
164	2	51	52	66	49
173	2	43	41	44	71
178	2	132	130	133	135
180	2	63	64	54	61
195	2	135	132	136	137
197	2	66	68	51	67
211	2	130	132	128	131
213	1	14	17	13	15
220	2	137	135	138	127
223	1	77	75	78	109
225	2	118	144	117	119
232	1	14	15	17	13
233	2	120	121	122	119
237	2	124	125	140	122
245	2	112	113	114	111
247	2	116	117	145	114
259	2	71	43	72	73
262	2	1	75	2	3
269	2	63	61	64	54
270	2	68	66	69	46
272	2	135	137	132	136
278	2	54	63	53	55
279	2	122	124	120	123
280	2	128	127	129	130
284	2	137	127	135	138
298	2	57	58	59	55
299	2	52	53	65	51
303	2	111	147	110	112
306	2	54	55	63	53
309	2	46	45	47	68
316	2	147	148	111	145
334	1	3	36	1	4
336	2	120	119	121	122
337	2	116	145	114	117
339	2	68	46	66	69
356	2	55	54	56	57
357	2	46	47	68	45
359	2	147	111	145	148
365	2	137	138	127	135
367	2	1	2	3	75
368	2	68	69	46	66
371	2	38	73	37	39
374	2	130	131	132	128
381	2	75	1	76	77
384	2	114	112	115	116
387	2	41	42	43	39
406	2	38	37	39	73
422	2	145	116	146	147
424	2	71	73	43	72
426	2	47	49	46	48
436	2	111	112	147	110
438	2	130	128	131	132
443	2	124	140	122	125
444	2	114	116	112	115
450	3	15	14	16	37
458	2	45	70	44	46
468	2	142	119	140	143
472	2	140	142	124	141
474	2	63	54	61	64
480	2	54	53	55	63
483	1	77	78	109	75
488	2	61	59	62	63
494	2	43	44	71	41
495	2	49	51	47	50
498	2	147	145	148	111
502	2	112	111	113	114
503	2	119	118	120	142
506	2	75	77	1	76
507	2	119	120	142	118
524	2	61	62	63	59
526	2	73	74	38	71
530	2	127	137	126	128
537	2	119	142	118	120
542	2	49	47	50	51
550	2	51	49	52	66
551	2	132	135	130	133
561	2	55	57	54	56
567	2	118	117	119	144
568	2	142	140	143	119
569	2	41	39	42	43
574	1	3	4	36	1
578	2	122	120	123	124
584	2	124	122	125	140
595	2	127	128	137	126
601	2	47	48	49	46
612	2	128	130	127	129
614	2	59	60	61	57
621	2	52	65	51	53
629	2	125	124	126	139
630	2	111	110	112	147
632	1	3	1	4	36
636	2	75	76	77	1
638	2	57	59	55	58
647	2	1	3	75	2
652	2	118	119	144	117
655	2	47	46	48	49
664	2	51	66	49	52
666	2	114	115	116	112
685	2	45	44	46	70
692	2	49	50	51	47
695	2	45	46	70	44
697	2	55	56	57	54
698	2	125	126	139	124
700	2	128	129	130	127
712	2	66	67	68	51
717	2	140	141	142	124
728	2	132	133	135	130
730	2	142	143	119	140
736	2	73	71	74	38
738	2	116	114	117	145
740	2	145	146	147	116
744	2	39	38	40	41
748	2	140	124	141	142
749	1	77	109	75	78
756	2	39	40	41	38
