Title

148 atoms
155 bonds
268 angles
501 dihedrals
138 impropers

13 atom types
18 bond types
10 angle types
30 dihedral types
3 improper types
-23.34499931 76.65500069 xlo xhi
-14.91399956 85.08600044 ylo yhi
-3.88499999 96.11500001 zlo zhi
0.0 0.0 0.0 xy xz yz

Masses

1	12.01078
2	15.99943
3	14.00672
4	12.01078
5	1.007947
6	1.007947
7	1.007947
8	15.99943
9	1.007947
10	1.007947
11	12.01078
12	15.99943
13	1.007947


Pair Coeffs

1	0.086879315	3.4806469
2	0.2102061	3.0398122
3	0.16769152	3.206876
4	0.10884061	3.3795318
5	0.015779483	2.6445434
6	0.014090815	1.1034277
7	0.016409246	2.5832257
8	0.16846514	3.0251065
9	0.015611343	2.5725815
10	0.013106998	2.4536265
11	0.21	3.3996695
12	0.20947353	2.99716
13	1.2326e-05	0.53453923

Bond Coeffs

1 harmonic	582.698766451	1.225198386222
2 harmonic	492.76746816345	1.381897776683
3 harmonic	279.1350963404	1.454628925034
4 harmonic	352.0565580496	1.450098586273
5 harmonic	505.144496193	1.019481865027
6 harmonic	264.62148576755	1.52190126495
7 harmonic	370.04670688625	1.093899492634
8 harmonic	301.15400723785	1.345741232799
9 harmonic	425.69104206635	1.362945806494
10 harmonic	360.7852444772	1.387193227181
11 harmonic	397.2545789619	1.085358495916
12 harmonic	382.5450169811	1.379244394267
13 harmonic	505.481965552	1.304826179986
14 harmonic	300.03137914615	1.451203938761
15 harmonic	366.34047229585	1.464762957261
16 harmonic	602.81384337	1.196112346392
17 harmonic	385.7604595587	1.369745182308
18 harmonic	543.5267831885	0.9716763312559


Angle Coeffs

1 harmonic	55.42182150775	117.3465570514
2 harmonic	63.44422595415	115.5071327674
3 harmonic	57.8982893754	126.8062420451
4 harmonic	53.20531626545	116.5475862634
5 harmonic	48.776492647595	115.6030999533
6 harmonic	65.09061609600001	110.3538806181
7 harmonic	201.41175231035	127.4691416191
8 harmonic	34.066775159195	129.1835929926
9 harmonic	55.07882548015	112.8714009681
10 harmonic	33.56981613361	180


Dihedral Coeffs

1 fourier 1	-0.1488678166443	4	180
2 fourier 1	-0.1230328948768	3	180
3 fourier 1	0.2939295466901	2	0
4 fourier 1	-0.3024127022865	1	0
5 fourier 1	0.182238503271	2	0
6 fourier 1	0.02972342374561	3	0
7 fourier 1	1.809047390003	2	180
8 fourier 1	-0.04816277792592	1	0
9 fourier 1	3.101948770557	2	180
10 fourier 1	-0.4252153282372	1	0
11 fourier 1	2.348375642009	2	180
12 fourier 1	1.256156174911	1	0
13 fourier 1	0.9974165607242	2	180
14 fourier 1	0.1155372516788	3	0
15 fourier 1	0.1040663847541	3	0
16 fourier 1	0.09223874044423	3	0
17 fourier 1	0.3159935921949	2	180
18 fourier 1	0.3247796806857	1	180
19 fourier 1	0.1911926717192	3	0
20 fourier 1	2.779853741805	2	180
21 fourier 1	1.532232714475	2	180
22 fourier 1	0.4860993122944	2	180
23 fourier 1	0.8916986138746	1	0
24 fourier 1	3.661930099076	2	180
25 fourier 1	1.550515418264	2	180
26 fourier 1	6.736762477654	2	180
27 fourier 1	0.457973137376	1	0
28 fourier 1	-1.382973039546	1	0
29 fourier 1	0	1	0
30 fourier 1	0.8283030590042	2	180


Improper Coeffs

1 0.3333333333333333	-1	2
2 0.3666666666666667	-1	2
3 3.5	-1	2


Atoms

1	1	1	0.54860801	4.0289998	0.48899999	1.378
2	1	2	-0.65340501	4.243	-0.71499997	1.679
3	1	3	-0.483466	2.914	0.85399997	0.56
4	1	4	0.003426	1.977	-0.15700001	0.055
5	1	4	-0.004404	0.87	0.421	-0.88499999
6	1	4	-0.166659	1.567	1.123	-2.082
7	1	5	0.081283003	2.2520001	0.419	-2.602
8	1	5	0.081283003	0.82099998	1.485	-2.823
9	1	5	0.081283003	2.151	2.0090001	-1.763
10	1	4	-0.200905	-0.037	1.4579999	-0.167
11	1	5	0.121327	0.574	2.2349999	0.338
12	1	5	0.121327	-0.65399998	1.99	-0.92699999
13	1	4	0.13586	-0.98799998	0.82499999	0.86299998
14	1	3	-0.529172	-1.8049999	1.867	1.4960001
15	1	1	0.83100897	-2.503	1.655	2.7279999
16	1	2	-0.60478401	-2.428	0.55299997	3.3340001
17	1	6	0.32389599	-1.867	2.8169999	1.064
18	1	7	0.058687001	-0.382	0.33899999	1.655
19	1	4	-0.20446099	-1.905	-0.20100001	0.17399999
20	1	5	0.12284	-2.5439999	0.345	-0.55699998
21	1	5	0.12284	-2.5910001	-0.65200001	0.926
22	1	4	-0.024227999	-1.128	-1.3279999	-0.55500001
23	1	4	-0.168365	-2.1259999	-2.092	-1.46
24	1	5	0.084261999	-1.614	-2.924	-1.99
25	1	5	0.084261999	-2.575	-1.419	-2.2219999
26	1	5	0.084261999	-2.9590001	-2.52	-0.86000001
27	1	4	-0.168365	-0.56800002	-2.3559999	0.463
28	1	5	0.084261999	-0.152	-1.8839999	1.37
29	1	5	0.084261999	0.212	-2.9949999	-0.0040000002
30	1	5	0.084261999	-1.375	-3.0250001	0.833
31	1	4	-0.20701601	-0.011	-0.73100001	-1.473
32	1	5	0.123062	-0.51999998	-0.32600001	-2.378
33	1	5	0.123062	0.64200002	-1.549	-1.851
34	1	7	0.078815997	2.556	-0.926	-0.50099999
35	1	7	0.078815997	1.536	-0.66000003	0.92799997
36	1	6	0.32322299	2.7869999	1.869	0.36199999
37	1	8	-0.43742901	-3.0810001	2.428	3.1359999
38	1	1	0.26515299	-4.4549999	2.2950001	3.326
39	1	1	-0.20530801	-5.0900002	1.161	2.9920001
40	1	9	0.20006999	-4.5409999	0.329	2.5699999
41	1	1	-0.159788	-6.5479999	1.035	3.2
42	1	9	0.19664299	-7.0139999	0.093000002	2.951
43	1	1	0.19628599	-7.2529998	2.0650001	3.7160001
44	1	3	-0.582165	-8.6700001	2.0009999	3.9590001
45	1	1	0.40956101	-9.5050001	1.136	3.4660001
46	1	1	-0.28314	-10.937	1.1900001	3.822
47	1	1	-0.19277	-11.794	0.30199999	3.2909999
48	1	9	0.198667	-11.448	-0.45899999	2.6010001
49	1	1	-0.19277	-13.23	0.345	3.638
50	1	9	0.198667	-13.891	-0.38699999	3.1900001
51	1	1	-0.28314	-13.698	1.275	4.4920001
52	1	1	0.40956101	-15.126	1.349	4.862
53	1	3	-0.58216399	-15.986	0.49599999	4.388
54	1	1	0.19628599	-17.4	0.461	4.6539998
55	1	1	-0.15836699	-18.076	1.507	5.1750002
56	1	9	0.19664299	-17.589001	2.441	5.4130001
57	1	1	-0.257359	-19.533001	1.411	5.408
58	1	9	0.198338	-20.062	2.2539999	5.8340001
59	1	1	0.15400501	-20.195	0.29100001	5.0910001
60	1	8	-0.04087	-21.566999	0.211	5.3140001
61	1	1	-0.257359	-19.462999	-0.852	4.5029998
62	1	9	0.198338	-19.993999	-1.758	4.2399998
63	1	1	-0.15836699	-18.143	-0.76899999	4.2950001
64	1	9	0.19664299	-17.614	-1.609	3.8629999
65	1	10	0.139635	-15.431	2.1159999	5.5599999
66	1	1	-0.19277	-12.753	2.256	5.0780001
67	1	9	0.198667	-13.112	3.0109999	5.7659998
68	1	1	-0.19277	-11.453	2.217	4.7639999
69	1	9	0.198667	-10.781	2.944	5.204
70	1	10	0.139635	-9.1750002	0.37900001	2.767
71	1	1	-0.159788	-6.54	3.3069999	4.0939999
72	1	9	0.19664299	-7.092	4.1339998	4.5219998
73	1	1	-0.20530801	-5.2189999	3.4170001	3.9070001
74	1	9	0.20006999	-4.7080002	4.3309999	4.184
75	1	1	0.56127101	4.698	1.256	1.745
76	1	2	-0.64318001	4.2490001	2.158	2.5009999
77	1	3	-0.56184399	6.0770001	1.2359999	1.36
78	1	4	0.13002101	7.0419998	2.2379999	1.83
79	1	7	0.056387998	6.5580001	3.2320001	1.76
80	1	4	-0.20559099	7.4299998	1.9349999	3.289
81	1	5	0.12284	6.52	1.96	3.928
82	1	5	0.12284	7.8239999	0.89399999	3.3299999
83	1	4	-0.024768	8.4890003	2.9130001	3.862
84	1	4	-0.168365	9.0039997	2.3329999	5.2010002
85	1	5	0.084261999	9.7609997	3.0090001	5.6550002
86	1	5	0.084261999	8.1709995	2.2049999	5.9260001
87	1	5	0.084261999	9.4759998	1.337	5.053
88	1	4	-0.168365	7.8559999	4.29	4.1830001
89	1	5	0.084261999	7.23	4.6789999	3.365
90	1	5	0.084261999	7.1830001	4.2140002	5.0640001
91	1	5	0.084261999	8.6420002	5.039	4.4190001
92	1	4	-0.20579299	9.7060003	3.0380001	2.8929999
93	1	5	0.121743	10.292	2.095	2.9849999
94	1	5	0.121743	10.391	3.8369999	3.25
95	1	4	0.028198	9.3879995	3.2290001	1.373
96	1	4	-0.165268	10.675	2.908	0.57099998
97	1	5	0.077726997	10.5	3.0209999	-0.52100003
98	1	5	0.077726997	11.504	3.5880001	0.86500001
99	1	5	0.077726997	11.011	1.864	0.75199997
100	1	4	0.146988	8.9680004	4.684	1.0089999
101	1	3	-0.582627	9.9189997	5.6589999	1.533
102	1	11	0.60319901	9.7629995	6.9060001	1.335
103	1	2	-0.41533399	9.6110001	8.1190004	1.142
104	1	7	0.075754002	7.9569998	4.9299998	1.372
105	1	7	0.075754002	8.9189997	4.7880001	-0.098999999
106	1	4	-0.202098	8.2919998	2.2219999	0.93099999
107	1	5	0.12121	8.7130003	1.191	0.94199997
108	1	5	0.12121	7.987	2.4349999	-0.118
109	1	6	0.320043	6.3790002	0.49200001	0.69099998
110	1	8	-0.04087	-22.087999	-0.62599999	5.0809999
111	1	1	0.15400501	-21.488001	-1.712	4.447
112	1	1	-0.257359	-20.186001	-1.687	4.1220002
113	1	9	0.198338	-19.58	-0.81900001	4.3520002
114	1	1	-0.15836699	-19.563	-2.8469999	3.45
115	1	9	0.19664299	-18.504999	-2.7980001	3.2390001
116	1	1	0.19628599	-20.302999	-3.9349999	3.1459999
117	1	3	-0.582165	-19.754999	-5.1020002	2.5079999
118	1	1	0.40956101	-18.622999	-5.1820002	1.872
119	1	1	-0.28314	-18.187	-6.461	1.279
120	1	1	-0.19277	-17.025	-6.526	0.60699999
121	1	9	0.198667	-16.399	-5.6490002	0.49399999
122	1	1	-0.19277	-16.575001	-7.8000002	0.0080000004
123	1	9	0.198667	-15.633	-7.8140001	-0.52600002
124	1	1	-0.28314	-17.323999	-8.9130001	0.12800001
125	1	1	0.40956101	-16.907	-10.203	-0.458
126	1	3	-0.58216399	-15.78	-10.316	-1.097
127	1	1	0.19628599	-15.261	-11.503	-1.723
128	1	1	-0.129645	-16.027	-12.578	-2.01
129	1	9	0.19664299	-17.084	-12.6	-1.793
130	1	1	-0.38351101	-15.433	-13.76	-2.671
131	1	9	0.20171399	-16.056999	-14.618	-2.8889999
132	1	1	0.28026	-14.136	-13.768	-3.0020001
133	1	12	-0.655586	-13.588	-14.886	-3.625
134	1	13	0.42708099	-12.609	-14.914	-3.885
135	1	1	-0.38351101	-13.296	-12.587	-2.707
136	1	9	0.20171399	-12.248	-12.586	-2.9779999
137	1	1	-0.129645	-13.83	-11.516	-2.105
138	1	9	0.19664299	-13.21	-10.655	-1.8940001
139	1	10	0.139635	-17.554001	-11.058	-0.31400001
140	1	1	-0.19277	-18.606001	-8.8409996	0.86900002
141	1	9	0.198667	-19.222	-9.7259998	0.97500002
142	1	1	-0.19277	-19.014	-7.6880002	1.411
143	1	9	0.198667	-19.954	-7.6599998	1.948
144	1	10	0.139635	-17.996	-4.3099999	1.742
145	1	1	-0.15836699	-21.735001	-3.9579999	3.5209999
146	1	9	0.19664299	-22.336	-4.8309999	3.296
147	1	1	-0.257359	-22.296	-2.9070001	4.1329999
148	1	9	0.198338	-23.344999	-2.934	4.3990002

Bonds

1	1	1	2
2	2	1	3
3	3	1	75
4	4	3	4
5	5	3	36
6	6	4	5
7	7	4	34
8	7	4	35
9	6	5	6
10	6	5	10
11	6	5	31
12	7	6	7
13	7	6	8
14	7	6	9
15	7	10	11
16	7	10	12
17	6	10	13
18	4	13	14
19	7	13	18
20	6	13	19
21	2	14	15
22	5	14	17
23	1	15	16
24	8	15	37
25	7	19	20
26	7	19	21
27	6	19	22
28	6	22	23
29	6	22	27
30	6	22	31
31	7	23	24
32	7	23	25
33	7	23	26
34	7	27	28
35	7	27	29
36	7	27	30
37	7	31	32
38	7	31	33
39	9	37	38
40	10	38	39
41	10	38	73
42	11	39	40
43	10	39	41
44	11	41	42
45	10	41	43
46	12	43	44
47	10	43	71
48	13	44	45
49	3	45	46
50	11	45	70
51	10	46	47
52	10	46	68
53	11	47	48
54	10	47	49
55	11	49	50
56	10	49	51
57	3	51	52
58	10	51	66
59	13	52	53
60	11	52	65
61	12	53	54
62	10	54	55
63	10	54	63
64	11	55	56
65	10	55	57
66	11	57	58
67	10	57	59
68	9	59	60
69	10	59	61
70	14	60	110
71	11	61	62
72	10	61	63
73	11	63	64
74	11	66	67
75	10	66	68
76	11	68	69
77	11	71	72
78	10	71	73
79	11	73	74
80	1	75	76
81	2	75	77
82	4	77	78
83	5	77	109
84	7	78	79
85	6	78	80
86	6	78	106
87	7	80	81
88	7	80	82
89	6	80	83
90	6	83	84
91	6	83	88
92	6	83	92
93	7	84	85
94	7	84	86
95	7	84	87
96	7	88	89
97	7	88	90
98	7	88	91
99	7	92	93
100	7	92	94
101	6	92	95
102	6	95	96
103	6	95	100
104	6	95	106
105	7	96	97
106	7	96	98
107	7	96	99
108	15	100	101
109	7	100	104
110	7	100	105
111	16	101	102
112	1	102	103
113	7	106	107
114	7	106	108
115	9	110	111
116	10	111	112
117	10	111	147
118	11	112	113
119	10	112	114
120	11	114	115
121	10	114	116
122	12	116	117
123	10	116	145
124	13	117	118
125	3	118	119
126	11	118	144
127	10	119	120
128	10	119	142
129	11	120	121
130	10	120	122
131	11	122	123
132	10	122	124
133	3	124	125
134	10	124	140
135	13	125	126
136	11	125	139
137	12	126	127
138	10	127	128
139	10	127	137
140	11	128	129
141	10	128	130
142	11	130	131
143	10	130	132
144	17	132	133
145	10	132	135
146	18	133	134
147	11	135	136
148	10	135	137
149	11	137	138
150	11	140	141
151	10	140	142
152	11	142	143
153	11	145	146
154	10	145	147
155	11	147	148

Angles

1	4	83	84	85
2	4	95	106	107
3	8	112	114	115
4	5	85	84	87
5	3	14	15	16
6	3	55	57	59
7	3	52	51	66
8	3	118	119	142
9	8	67	66	68
10	5	90	88	91
11	3	122	124	140
12	8	128	130	131
13	8	127	128	129
14	4	22	27	30
15	8	62	61	63
16	4	84	83	92
17	5	89	88	90
18	4	5	10	11
19	5	24	23	25
20	3	124	140	142
21	4	23	22	31
22	3	76	75	77
23	9	125	126	127
24	6	132	133	134
25	5	34	4	35
26	4	4	5	31
27	4	78	106	107
28	4	92	95	100
29	4	20	19	22
30	3	124	125	126
31	8	141	140	142
32	8	40	39	41
33	4	80	83	84
34	5	32	31	33
35	4	5	6	9
36	3	37	38	73
37	5	25	23	26
38	3	57	59	60
39	3	54	63	61
40	5	98	96	99
41	3	126	127	128
42	8	132	135	136
43	4	23	22	27
44	4	19	22	31
45	3	41	43	44
46	3	3	1	75
47	4	78	80	83
48	4	22	31	32
49	4	78	106	95
50	4	22	23	26
51	3	45	46	47
52	4	80	83	92
53	4	80	83	88
54	3	44	43	71
55	4	5	31	32
56	2	15	14	17
57	4	27	22	31
58	8	54	63	64
59	8	111	147	148
60	3	14	15	37
61	8	124	125	139
62	4	77	78	79
63	4	3	4	34
64	6	60	110	111
65	4	93	92	95
66	8	46	45	70
67	4	83	92	94
68	5	107	106	108
69	7	16	15	37
70	3	2	1	75
71	10	101	102	103
72	3	111	147	145
73	4	5	31	22
74	3	1	75	77
75	4	83	88	91
76	5	86	84	87
77	8	111	112	113
78	8	121	120	122
79	8	124	140	141
80	3	57	59	61
81	3	132	135	137
82	4	3	4	5
83	8	61	63	64
84	4	5	31	33
85	9	100	101	102
86	8	42	41	43
87	4	95	96	98
88	8	126	125	139
89	3	38	73	71
90	3	49	51	52
91	4	10	13	19
92	8	38	73	74
93	4	10	5	31
94	8	47	49	50
95	4	22	27	28
96	3	49	51	66
97	3	53	54	63
98	4	83	88	89
99	4	95	106	108
100	3	119	142	140
101	3	126	127	137
102	5	20	19	21
103	3	38	39	41
104	4	84	83	88
105	2	78	77	109
106	8	140	142	143
107	4	95	100	104
108	4	19	22	23
109	3	112	111	147
110	5	28	27	29
111	4	13	19	22
112	4	95	96	97
113	3	110	111	147
114	4	78	106	108
115	3	37	38	39
116	3	2	1	3
117	4	18	13	19
118	5	97	96	98
119	8	50	49	51
120	5	85	84	86
121	4	12	10	13
122	4	80	78	106
123	4	5	10	12
124	8	113	112	114
125	8	120	122	123
126	4	94	92	95
127	4	78	80	81
128	4	22	23	24
129	3	54	55	57
130	8	119	118	144
131	4	77	78	106
132	5	28	27	30
133	8	46	47	48
134	3	122	124	125
135	3	127	137	135
136	3	116	145	147
137	5	11	10	12
138	9	116	117	118
139	4	83	84	87
140	1	13	14	15
141	4	21	19	22
142	3	47	46	68
143	4	82	80	83
144	4	101	100	105
145	2	1	3	36
146	3	39	38	73
147	5	7	6	8
148	9	43	44	45
149	5	8	6	9
150	4	78	80	82
151	4	22	31	33
152	3	120	122	124
153	8	72	71	73
154	4	88	83	92
155	4	5	10	13
156	4	81	80	83
157	4	96	95	106
158	3	44	45	46
159	6	59	60	110
160	9	52	53	54
161	2	75	77	109
162	4	100	95	106
163	3	41	43	71
164	3	1	75	76
165	3	128	127	137
166	8	145	147	148
167	4	6	5	31
168	3	46	68	66
169	3	130	132	133
170	8	59	61	62
171	4	13	19	21
172	5	7	6	9
173	4	77	78	80
174	8	123	122	124
175	8	131	130	132
176	8	127	137	138
177	5	24	23	26
178	8	56	55	57
179	8	116	145	146
180	8	53	52	65
181	4	5	6	7
182	8	38	39	40
183	4	5	4	35
184	3	43	71	73
185	8	46	68	69
186	3	112	114	116
187	8	115	114	116
188	3	55	54	63
189	4	13	19	20
190	3	51	52	53
191	3	47	49	51
192	4	95	100	101
193	8	129	128	130
194	4	22	27	29
195	3	114	116	117
196	6	15	37	38
197	3	59	61	63
198	4	4	5	10
199	3	118	119	120
200	5	29	27	30
201	1	1	3	4
202	4	96	95	100
203	5	93	92	94
204	4	5	6	8
205	3	39	41	43
206	8	54	55	56
207	4	83	92	93
208	3	53	54	55
209	4	95	100	105
210	4	14	13	18
211	3	119	120	122
212	3	127	128	130
213	4	83	88	90
214	5	89	88	91
215	4	101	100	104
216	3	120	119	142
217	2	4	3	36
218	8	39	41	42
219	4	79	78	106
220	8	44	45	70
221	3	130	132	135
222	8	71	73	74
223	4	95	96	99
224	4	11	10	13
225	8	66	68	69
226	8	119	142	143
227	8	117	118	144
228	5	104	100	105
229	3	125	124	140
230	8	146	145	147
231	8	58	57	59
232	4	92	95	96
233	3	110	111	112
234	4	14	13	19
235	4	4	5	6
236	4	22	23	25
237	4	83	84	86
238	8	119	120	121
239	3	111	112	114
240	3	128	130	132
241	4	92	95	106
242	3	45	46	68
243	4	3	4	35
244	5	81	80	82
245	1	75	77	78
246	8	51	52	65
247	8	48	47	49
248	4	6	5	10
249	8	55	57	58
250	8	43	71	72
251	3	114	116	145
252	4	10	13	18
253	4	19	22	27
254	3	51	66	68
255	8	51	66	67
256	5	97	96	99
257	3	133	132	135
258	2	13	14	17
259	4	83	92	95
260	4	5	4	34
261	3	117	118	119
262	8	136	135	137
263	4	79	78	80
264	3	117	116	145
265	8	135	137	138
266	3	46	47	49
267	3	60	59	61
268	4	10	13	14

Dihedrals

1	24	48	47	49	50
2	13	44	45	46	68
3	14	77	78	80	82
4	24	41	43	71	73
5	15	6	5	10	11
6	24	112	114	116	117
7	24	49	47	46	68
8	16	78	80	83	92
8	17	78	80	83	92
8	18	78	80	83	92
9	15	21	19	22	31
10	14	11	10	13	14
11	15	99	96	95	106
12	15	98	96	95	100
13	15	24	23	22	31
14	30	130	132	133	134
15	15	86	84	83	88
16	16	83	92	95	100
16	17	83	92	95	100
16	18	83	92	95	100
17	24	52	51	66	67
18	15	85	84	83	88
19	15	19	22	23	25
20	15	80	78	106	107
21	1	15	14	13	19
21	2	15	14	13	19
21	3	15	14	13	19
21	4	15	14	13	19
22	24	114	112	111	147
23	24	46	47	49	50
24	15	84	83	92	93
25	13	49	51	52	65
26	15	96	95	100	104
27	24	133	132	135	137
28	19	79	78	106	108
29	19	18	13	19	20
30	16	5	31	22	19
30	17	5	31	22	19
30	18	5	31	22	19
31	24	49	51	66	68
32	11	2	1	3	36
32	12	2	1	3	36
33	13	139	125	124	140
34	21	15	37	38	39
35	24	39	38	73	71
36	14	5	10	13	14
37	24	45	46	68	69
38	15	29	27	22	31
39	7	17	14	15	37
39	8	17	14	15	37
40	25	52	53	54	55
41	24	111	147	145	116
42	15	82	80	83	88
43	16	78	106	95	96
43	17	78	106	95	96
43	18	78	106	95	96
44	24	38	73	71	43
45	15	94	92	95	96
46	13	142	119	118	144
47	24	60	59	61	63
48	24	44	43	71	73
49	15	96	95	106	107
50	15	105	100	95	106
51	15	80	78	106	108
52	24	126	127	137	135
53	13	120	119	118	144
54	24	128	127	137	135
55	26	43	44	45	46
56	13	126	125	124	140
57	15	97	96	95	100
58	30	134	133	132	135
59	24	67	66	68	69
60	25	45	44	43	71
61	14	14	13	19	21
62	15	6	5	4	35
63	24	128	130	132	133
64	15	27	22	31	32
65	24	120	119	142	143
66	24	37	38	39	40
67	24	55	57	59	60
68	15	19	22	27	28
69	24	39	41	43	71
70	16	4	5	31	22
70	17	4	5	31	22
70	18	4	5	31	22
71	24	126	127	137	138
72	24	54	55	57	58
73	24	146	145	147	148
74	14	77	78	106	95
75	15	4	5	31	33
76	24	121	120	122	124
77	15	10	5	31	32
78	15	11	10	5	31
79	15	88	83	92	94
80	15	92	95	96	97
81	24	131	130	132	133
82	21	57	59	60	110
83	15	80	83	92	94
84	26	51	52	53	54
85	24	123	122	124	140
86	15	89	88	83	92
87	15	96	95	106	108
88	13	53	52	51	66
89	24	38	73	71	72
90	24	127	128	130	131
91	15	84	83	88	89
92	13	47	46	45	70
93	15	19	22	31	33
94	5	15	14	13	18
94	6	15	14	13	18
95	24	57	55	54	63
96	15	93	92	95	106
97	15	104	100	95	106
98	15	4	5	6	8
99	24	45	46	47	48
100	25	41	43	44	45
101	16	6	5	31	22
101	17	6	5	31	22
101	18	6	5	31	22
102	1	75	77	78	106
102	2	75	77	78	106
102	3	75	77	78	106
102	4	75	77	78	106
103	14	12	10	13	14
104	24	40	39	41	43
105	15	6	5	31	33
106	15	9	6	5	31
107	14	77	78	80	81
108	15	80	83	84	85
109	16	80	78	106	95
109	17	80	78	106	95
109	18	80	78	106	95
110	24	51	66	68	69
111	5	79	78	77	109
111	6	79	78	77	109
112	15	7	6	5	10
113	24	57	59	61	62
114	15	82	80	83	84
115	15	80	83	88	90
116	24	120	122	124	140
117	24	120	119	142	140
118	14	14	13	19	22
119	16	78	80	83	88
119	17	78	80	83	88
119	18	78	80	83	88
120	24	110	111	147	148
121	16	5	31	22	23
121	17	5	31	22	23
121	18	5	31	22	23
122	15	92	95	100	105
123	16	13	10	5	31
123	17	13	10	5	31
123	18	13	10	5	31
124	24	41	39	38	73
125	19	12	10	13	18
126	15	11	10	13	19
127	5	1	3	4	35
127	6	1	3	4	35
128	24	110	111	147	145
129	24	118	119	120	122
130	15	24	23	22	27
131	15	92	95	96	99
132	15	81	80	78	106
133	24	113	112	114	115
134	19	79	78	106	107
135	5	80	78	77	109
135	6	80	78	77	109
136	24	50	49	51	52
137	24	125	124	140	141
138	24	50	49	51	66
139	24	120	122	124	125
140	24	45	46	68	66
141	16	10	13	19	22
141	17	10	13	19	22
141	18	10	13	19	22
142	26	116	117	118	144
143	15	4	5	31	32
144	24	38	39	41	42
145	24	39	38	73	74
146	24	41	43	71	72
147	24	111	112	114	116
148	15	92	95	96	98
149	15	20	19	22	23
150	1	10	13	14	15
150	2	10	13	14	15
150	3	10	13	14	15
150	4	10	13	14	15
151	26	54	53	52	65
152	19	79	78	80	82
153	14	14	13	19	20
154	13	3	1	75	76
155	15	19	22	31	32
156	15	4	5	6	7
157	24	55	57	59	61
158	24	117	116	145	147
159	16	6	5	10	13
159	17	6	5	10	13
159	18	6	5	10	13
160	16	78	106	95	92
160	17	78	106	95	92
160	18	78	106	95	92
161	24	55	54	63	64
162	15	10	13	19	20
163	24	113	112	111	147
164	13	44	45	46	47
165	24	127	137	135	136
166	15	6	5	31	32
167	24	115	114	116	117
168	13	2	1	75	77
169	24	42	41	43	44
170	15	23	22	27	29
171	16	78	106	95	100
171	17	78	106	95	100
171	18	78	106	95	100
172	25	52	53	54	63
173	24	127	128	130	132
174	15	94	92	95	100
175	24	72	71	73	74
176	24	117	116	145	146
177	16	5	31	22	27
177	17	5	31	22	27
177	18	5	31	22	27
178	7	1	75	77	109
178	8	1	75	77	109
179	24	44	43	71	72
180	15	84	83	92	94
181	24	127	137	135	132
182	15	93	92	95	96
183	15	4	5	10	12
184	24	113	112	114	116
185	22	16	15	14	17
185	23	16	15	14	17
186	24	121	120	122	123
187	16	13	19	22	23
187	17	13	19	22	23
187	18	13	19	22	23
188	15	86	84	83	92
189	24	46	68	66	51
190	24	58	57	59	60
191	15	85	84	83	92
192	24	110	111	112	113
193	15	6	5	4	34
194	15	98	96	95	106
195	15	96	95	100	105
196	5	5	4	3	36
196	6	5	4	3	36
197	14	101	100	95	106
198	14	77	78	80	83
199	24	128	127	137	138
200	16	83	92	95	106
200	17	83	92	95	106
200	18	83	92	95	106
201	15	81	80	83	88
202	24	48	47	46	68
203	24	114	116	145	147
204	5	17	14	13	19
204	6	17	14	13	19
205	15	79	78	106	95
206	24	130	132	135	137
207	24	125	124	140	142
208	7	1	75	77	78
208	8	1	75	77	78
209	26	43	44	45	70
210	15	100	95	106	107
211	24	57	59	61	63
212	15	82	80	83	92
213	15	80	83	84	86
214	24	62	61	63	64
215	21	60	110	111	147
216	24	114	116	145	146
217	15	10	5	4	35
218	15	6	5	10	12
219	15	20	19	22	31
220	16	88	83	92	95
220	17	88	83	92	95
220	18	88	83	92	95
221	24	52	51	66	68
222	24	123	122	124	125
223	19	18	13	19	21
224	16	80	83	92	95
224	17	80	83	92	95
224	18	80	83	92	95
225	15	23	22	31	33
226	15	23	22	27	28
227	15	87	84	83	92
228	24	49	51	66	67
229	15	84	83	88	90
230	24	118	119	120	121
231	24	37	38	73	71
232	9	76	75	77	78
232	10	76	75	77	78
233	15	31	5	4	35
234	24	112	114	116	145
235	15	99	96	95	100
236	24	53	54	63	64
237	19	79	78	80	81
238	15	97	96	95	106
239	15	31	5	4	34
240	28	102	101	100	104
241	24	136	135	137	138
242	15	92	95	106	108
243	15	100	95	106	108
244	26	127	126	125	139
245	24	48	47	49	51
246	24	46	68	66	67
247	15	80	83	84	87
248	5	1	3	4	34
248	6	1	3	4	34
249	15	4	5	10	11
250	16	13	19	22	27
250	17	13	19	22	27
250	18	13	19	22	27
251	24	47	49	51	52
252	24	47	49	51	66
253	14	3	4	5	10
254	24	126	127	128	130
255	13	122	124	125	126
256	24	126	127	128	129
257	24	43	71	73	74
258	24	46	47	49	51
259	16	5	10	13	19
259	17	5	10	13	19
259	18	5	10	13	19
260	15	7	6	5	31
261	15	81	80	83	84
262	16	13	19	22	31
262	17	13	19	22	31
262	18	13	19	22	31
263	7	13	14	15	37
263	8	13	14	15	37
264	26	116	117	118	119
265	24	119	142	140	124
266	15	30	27	22	31
267	14	3	4	5	6
268	24	121	120	119	142
269	16	10	5	31	22
269	17	10	5	31	22
269	18	10	5	31	22
270	13	117	118	119	120
271	24	58	57	59	61
272	15	12	10	5	31
273	15	10	5	31	33
274	24	47	46	68	69
275	24	56	55	54	63
276	28	102	101	100	105
277	24	128	130	132	135
278	5	10	13	14	17
278	6	10	13	14	17
279	24	53	54	55	57
280	15	23	22	31	32
281	5	34	4	3	36
281	6	34	4	3	36
282	7	4	3	1	75
282	8	4	3	1	75
283	14	77	78	106	108
284	25	118	117	116	145
285	25	114	116	117	118
286	16	83	92	95	96
286	17	83	92	95	96
286	18	83	92	95	96
287	14	3	4	5	31
288	24	124	140	142	143
289	15	4	5	6	9
290	24	131	130	132	135
291	24	39	41	43	44
292	24	129	128	130	132
293	24	112	111	147	148
294	25	125	126	127	128
295	15	26	23	22	27
296	24	40	39	41	42
297	20	14	15	37	38
298	14	92	95	100	101
299	24	112	111	147	145
300	21	15	37	38	73
301	19	11	10	13	18
302	16	78	80	83	84
302	17	78	80	83	84
302	18	78	80	83	84
303	15	93	92	95	100
304	13	68	46	45	70
305	15	90	88	83	92
306	1	75	77	78	80
306	2	75	77	78	80
306	3	75	77	78	80
306	4	75	77	78	80
307	24	122	124	140	141
308	13	117	118	119	142
309	21	16	15	37	38
310	28	95	100	101	102
311	13	65	52	51	66
312	13	3	1	75	77
313	24	53	54	55	56
314	24	119	120	122	123
315	16	84	83	92	95
315	17	84	83	92	95
315	18	84	83	92	95
316	11	76	75	77	109
316	12	76	75	77	109
317	15	26	23	22	31
318	29	100	101	102	103
319	15	20	19	22	27
320	15	88	83	92	93
321	15	12	10	13	19
322	24	53	54	63	61
323	24	38	39	41	43
324	24	111	147	145	146
325	24	118	119	142	143
326	1	1	3	4	5
326	2	1	3	4	5
326	3	1	3	4	5
326	4	1	3	4	5
327	15	5	10	13	18
328	15	80	83	92	93
329	24	119	120	122	124
330	24	42	41	43	71
331	15	87	84	83	88
332	15	79	78	80	83
333	24	37	38	73	74
334	15	9	6	5	10
335	15	21	19	22	23
336	24	60	59	61	62
337	24	37	38	39	41
338	24	122	120	119	142
339	15	28	27	22	31
340	15	92	95	106	107
341	24	116	145	147	148
342	15	19	22	27	30
343	26	124	125	126	127
344	24	141	140	142	143
345	24	56	55	57	59
346	24	133	132	135	136
347	24	129	128	130	131
348	15	92	95	100	104
349	24	45	46	47	49
350	15	94	92	95	106
351	24	111	112	114	115
352	15	10	5	4	34
353	15	19	22	23	26
354	7	36	3	1	75
354	8	36	3	1	75
355	21	61	59	60	110
356	15	91	88	83	92
357	15	10	13	19	21
358	9	2	1	3	4
358	10	2	1	3	4
359	21	60	110	111	112
360	15	8	6	5	10
361	24	130	128	127	137
362	15	82	80	78	106
363	5	35	4	3	36
363	6	35	4	3	36
364	15	80	83	88	89
365	5	75	77	78	79
365	6	75	77	78	79
366	13	122	124	125	139
367	24	129	128	127	137
368	15	81	80	83	92
369	27	59	60	110	111
370	15	23	22	27	30
371	24	118	119	142	140
372	24	54	63	61	62
373	24	47	46	68	66
374	15	84	83	88	91
375	15	25	23	22	27
376	7	13	14	15	16
376	8	13	14	15	16
377	24	55	54	63	61
378	15	19	22	23	24
379	24	54	63	61	59
380	24	110	111	112	114
381	15	80	83	88	91
382	24	115	114	116	145
383	14	96	95	100	101
384	24	119	142	140	141
385	14	77	78	106	107
386	15	21	19	22	27
387	24	59	61	63	64
388	13	2	1	75	76
389	24	122	124	140	142
390	24	130	132	135	136
391	24	132	135	137	138
392	24	40	39	38	73
393	5	17	14	13	18
393	6	17	14	13	18
394	25	125	126	127	137
395	16	4	5	10	13
395	17	4	5	10	13
395	18	4	5	10	13
396	15	25	23	22	31
397	15	18	13	19	22
398	15	27	22	31	33
399	15	8	6	5	31
400	5	106	78	77	109
400	6	106	78	77	109
401	15	19	22	27	29
402	13	49	51	52	53
403	16	83	80	78	106
403	17	83	80	78	106
403	18	83	80	78	106
404	24	56	55	57	58
405	24	54	55	57	59

Impropers

15	2	140	141	142	124
18	2	1	75	2	3
23	2	38	73	37	39
30	2	63	54	61	64
32	2	137	135	138	127
35	2	41	39	42	43
38	1	14	15	17	13
44	2	127	126	128	137
53	2	112	111	113	114
54	2	127	128	137	126
61	2	118	117	119	144
68	2	112	113	114	111
71	2	122	120	123	124
73	2	127	137	126	128
93	2	135	136	137	132
99	2	145	146	147	116
100	2	116	114	117	145
103	2	147	111	145	148
110	2	130	132	128	131
117	2	39	41	38	40
119	2	59	60	61	57
124	2	142	143	119	140
132	2	142	119	140	143
135	2	46	68	45	47
136	2	120	122	119	121
144	2	57	59	55	58
150	2	147	148	111	145
155	2	47	49	46	48
170	2	135	137	132	136
172	2	128	127	129	130
176	2	45	46	70	44
183	2	137	127	135	138
187	2	130	128	131	132
190	1	77	109	75	78
191	2	116	145	114	117
199	2	145	116	146	147
200	2	130	131	132	128
206	2	39	40	41	38
213	2	111	147	110	112
214	2	124	122	125	140
220	3	15	14	16	37
221	2	41	43	39	42
228	2	38	37	39	73
237	2	38	39	73	37
241	2	45	44	46	70
244	2	57	58	59	55
245	1	77	75	78	109
247	2	128	129	130	127
249	2	55	54	56	57
256	2	61	59	62	63
264	2	51	66	49	52
268	2	68	69	46	66
279	2	132	135	130	133
294	2	55	57	54	56
296	2	41	42	43	39
301	1	3	36	1	4
304	2	71	43	72	73
305	2	54	63	53	55
306	2	39	38	40	41
310	2	68	66	69	46
314	2	66	67	68	51
319	2	116	117	145	114
329	2	1	2	3	75
336	2	51	49	52	66
337	2	71	73	43	72
338	2	52	51	53	65
345	1	77	78	109	75
350	2	137	138	127	135
352	2	61	62	63	59
361	2	49	47	50	51
375	2	46	47	68	45
389	2	59	61	57	60
404	2	128	130	127	129
405	2	132	130	133	135
408	2	49	51	47	50
442	2	75	1	76	77
444	2	118	144	117	119
445	2	68	46	66	69
447	2	66	51	67	68
459	2	66	68	51	67
461	2	61	63	59	62
468	2	112	114	111	113
475	2	118	119	144	117
480	2	73	38	71	74
482	2	45	70	44	46
486	2	54	55	63	53
487	2	43	71	41	44
496	2	63	64	54	61
499	2	125	124	126	139
505	2	63	61	64	54
510	2	114	115	116	112
515	2	132	133	135	130
523	2	75	77	1	76
530	2	54	53	55	63
532	2	43	44	71	41
537	2	125	126	139	124
542	2	51	52	66	49
552	2	52	65	51	53
559	2	55	56	57	54
564	2	49	50	51	47
577	2	75	76	77	1
580	2	119	142	118	120
585	2	46	45	47	68
586	2	57	55	58	59
603	2	111	112	147	110
605	1	14	17	13	15
607	1	3	4	36	1
611	2	125	139	124	126
616	1	14	13	15	17
618	2	140	124	141	142
620	2	114	116	112	115
622	1	3	1	4	36
627	2	124	140	122	125
633	3	15	16	37	14
638	2	73	74	38	71
644	2	47	48	49	46
646	2	147	145	148	111
662	2	43	41	44	71
664	2	47	46	48	49
670	2	59	57	60	61
674	2	119	120	142	118
678	2	135	132	136	137
685	2	124	125	140	122
687	2	122	124	120	123
696	2	119	118	120	142
698	2	71	72	73	43
718	2	111	110	112	147
719	2	142	140	143	119
721	3	15	37	14	16
722	2	145	147	116	146
729	2	114	112	115	116
734	2	120	119	121	122
740	2	73	71	74	38
742	2	122	123	124	120
743	2	140	142	124	141
746	2	1	3	75	2
749	2	120	121	122	119
751	2	52	53	65	51
