Title

104 atoms
103 bonds
192 angles
348 dihedrals
18 impropers

11 atom types
14 bond types
9 angle types
35 dihedral types
3 improper types
-5.407999992 94.59200001 xlo xhi
-2.082000017 97.91799998 ylo yhi
-1.582999945 98.41700006 zlo zhi
0.0 0.0 0.0 xy xz yz

Masses

1	12.01078
2	15.99943
3	14.00672
4	12.01078
5	1.007947
6	1.007947
7	1.007947
8	15.99943
9	12.01078
10	15.99943
11	1.007947


Pair Coeffs

1	0.086879315	3.4806469
2	0.2102061	3.0398122
3	0.16769152	3.206876
4	0.10884061	3.3795318
5	0.014090815	1.1034277
6	0.016409246	2.5832257
7	0.015779483	2.6445434
8	0.16846514	3.0251065
9	0.21	3.3996695
10	0.20947353	2.99716
11	1.2326e-05	0.53453923

Bond Coeffs

1 harmonic	582.698766451	1.225198386222
2 harmonic	492.76746816345	1.381897776683
3 harmonic	279.1350963404	1.454628925034
4 harmonic	352.0565580496	1.450098586273
5 harmonic	505.144496193	1.019481865027
6 harmonic	264.62148576755	1.52190126495
7 harmonic	370.04670688625	1.093899492634
8 harmonic	301.15400723785	1.345741232799
9 harmonic	366.7408841747	1.425895053732
10 harmonic	300.03137914615	1.451203938761
11 harmonic	366.34047229585	1.464762957261
12 harmonic	602.81384337	1.196112346392
13 harmonic	329.96998057905	1.427343958716
14 harmonic	543.5267831885	0.9716763312559


Angle Coeffs

1 harmonic	55.42182150775	117.3465570514
2 harmonic	63.44422595415	115.5071327674
3 harmonic	57.8982893754	126.8062420451
4 harmonic	53.20531626545	116.5475862634
5 harmonic	65.09061609600001	110.3538806181
6 harmonic	201.41175231035	127.4691416191
7 harmonic	48.776492647595	115.6030999533
8 harmonic	55.07882548015	112.8714009681
9 harmonic	33.56981613361	180


Dihedral Coeffs

1 fourier 1	-0.1488678166443	4	180
2 fourier 1	-0.1230328948768	3	180
3 fourier 1	0.2939295466901	2	0
4 fourier 1	-0.3024127022865	1	0
5 fourier 1	0.182238503271	2	0
6 fourier 1	0.02972342374561	3	0
7 fourier 1	1.809047390003	2	180
8 fourier 1	-0.04816277792592	1	0
9 fourier 1	3.101948770557	2	180
10 fourier 1	-0.4252153282372	1	0
11 fourier 1	2.348375642009	2	180
12 fourier 1	1.256156174911	1	0
13 fourier 1	0.9974165607242	2	180
14 fourier 1	0.1155372516788	3	0
15 fourier 1	0.09223874044423	3	0
16 fourier 1	0.3159935921949	2	180
17 fourier 1	0.3247796806857	1	180
18 fourier 1	0.1040663847541	3	0
19 fourier 1	2.779853741805	2	180
20 fourier 1	0.1918272375143	3	0
21 fourier 1	0.9202179876409	1	180
22 fourier 1	0.0473758381877	3	0
23 fourier 1	0.4860993122944	2	180
24 fourier 1	0.8916986138746	1	0
25 fourier 1	1.163809172478	2	180
26 fourier 1	0.1679186987369	1	180
27 fourier 1	0.1911926717192	3	0
28 fourier 1	0.1115525666802	3	0
29 fourier 1	0.3432490222662	1	0
30 fourier 1	0.457973137376	1	0
31 fourier 1	-1.382973039546	1	0
32 fourier 1	0	1	0
33 fourier 1	0.3445382149273	3	0
34 fourier 1	0.1364556373303	1	0
35 fourier 1	0.3026390167484	3	0


Improper Coeffs

1 0.3333333333333333	-1	2
2 0.3666666666666667	-1	2
3 3.5	-1	2


Atoms

1	1	1	0.54290402	3.3410001	1.4349999	0.43399999
2	1	2	-0.68689799	4.3610001	0.736	0.192
3	1	3	-0.522349	2.036	0.977	0.071000002
4	1	4	0.029514	1.834	-0.308	-0.60100001
5	1	4	-0.146585	0.34599999	-0.59299999	-0.83999997
6	1	4	-0.14528701	-0.39700001	-0.898	0.47099999
7	1	4	0.023641	-1.876	-1.224	0.226
8	1	3	-0.46608701	-2.5880001	-0.074000001	-0.331
9	1	1	0.78607303	-2.9430001	1.071	0.44999999
10	1	2	-0.61061603	-2.6630001	1.13	1.677
11	1	5	0.325618	-2.9000001	-0.11	-1.327
12	1	6	0.056715999	-2.355	-1.533	1.1799999
13	1	6	0.056715999	-1.952	-2.082	-0.477
14	1	7	0.088547997	-0.31600001	-0.037999999	1.168
15	1	7	0.088547997	0.077	-1.776	0.96200001
16	1	7	0.088547997	-0.117	0.278	-1.353
17	1	7	0.088547997	0.26100001	-1.471	-1.516
18	1	6	0.053149998	2.2809999	-1.124	0.0070000002
19	1	6	0.053149998	2.355	-0.285	-1.5829999
20	1	5	0.31903499	1.224	1.599	0.28400001
21	1	8	-0.497686	-3.444	1.862	0.003
22	1	4	0.1145	-4.355	2.3469999	0.95200002
23	1	4	-0.138532	-3.6259999	3.1860001	2.0050001
24	1	4	-0.139625	-4.6100001	3.7449999	3.043
25	1	4	-0.140834	-3.9360001	4.6999998	4.0409999
26	1	4	-0.13950901	-2.9879999	3.97	5.0079999
27	1	4	-0.13950901	-2.4990001	4.8720002	6.1550002
28	1	4	-0.140783	-1.7079999	6.119	5.7129998
29	1	4	-0.13835301	-0.47799999	5.8330002	4.8319998
30	1	4	-0.144519	0.56999999	4.9590001	5.5380001
31	1	4	0.036114	1.863	4.849	4.7249999
32	1	8	-0.166844	1.643	4.1370001	3.536
33	1	6	0.086416997	2.2839999	5.8600001	4.5190001
34	1	6	0.086416997	2.6140001	4.2950001	5.3270001
35	1	7	0.093121998	0.167	3.937	5.704
36	1	7	0.093121998	0.81300002	5.4029999	6.5279999
37	1	7	0.088044003	-0.015	6.8099999	4.5710001
38	1	7	0.088044003	-0.79500002	5.3600001	3.878
39	1	7	0.086081997	-2.385	6.8099999	5.1669998
40	1	7	0.086081997	-1.375	6.664	6.6230001
41	1	7	0.086081997	-1.874	4.2649999	6.8449998
42	1	7	0.086081997	-3.3789999	5.2080002	6.7459998
43	1	7	0.086081997	-3.526	3.1099999	5.461
44	1	7	0.086081997	-2.1159999	3.556	4.46
45	1	7	0.086081997	-4.7340002	5.2020001	4.6290002
46	1	7	0.086081997	-3.3840001	5.4840002	3.4790001
47	1	7	0.087866001	-5.099	2.9089999	3.592
48	1	7	0.087866001	-5.408	4.3109999	2.5139999
49	1	7	0.092004001	-2.8710001	2.5450001	2.5079999
50	1	7	0.092004001	-3.099	4.0229998	1.499
51	1	6	0.086415	-5.1040001	2.9779999	0.428
52	1	6	0.086415	-4.895	1.501	1.436
53	1	1	0.54290402	3.4560001	2.3929999	0.92299998
54	1	2	-0.68689799	2.701	2.6919999	1.886
55	1	3	-0.522349	4.461	3.3039999	0.47
56	1	4	0.029805999	4.6529999	4.6090002	1.1
57	1	4	-0.141453	5.7909999	5.3800001	0.42300001
58	1	4	-0.123407	5.9970002	6.75	1.079
59	1	4	0.183907	7.1339998	7.5219998	0.398
60	1	3	-0.643933	7.369	8.8000002	1.062
61	1	9	0.59327197	6.5209999	9.7489996	1.018
62	1	2	-0.46969599	5.6960001	10.67	0.97500002
63	1	6	0.031737	8.0679998	6.9229999	0.45500001
64	1	6	0.031737	6.8979998	7.6929998	-0.676
65	1	7	0.082438	6.2449999	6.612	2.155
66	1	7	0.082438	5.0560002	7.3379998	1.005
67	1	7	0.087508	5.5469999	5.5190001	-0.65399998
68	1	7	0.087508	6.7290001	4.7870002	0.5
69	1	6	0.053149998	3.711	5.1939998	1.021
70	1	6	0.053149998	4.8940001	4.4629998	2.1760001
71	1	5	0.31903499	5.0630002	3.01	-0.333
72	1	8	-0.166844	1.385	4.803	2.846
73	1	4	0.036114	0.31	5.5320001	3.372
74	1	4	-0.144519	0.81199998	6.546	4.4029999
75	1	4	-0.13835301	-0.34900001	7.3709998	4.9780002
76	1	4	-0.140783	0.13	8.4890003	5.9169998
77	1	4	-0.13950901	0.69099998	7.9460001	7.243
78	1	4	-0.13950901	0.94499999	9.0550003	8.2790003
79	1	4	-0.140783	1.961	10.132	7.8460002
80	1	4	-0.134268	3.3440001	9.5959997	7.4359999
81	1	4	-0.16644301	4.0560002	8.8500004	8.5749998
82	1	4	0.089438997	5.5009999	8.4969997	8.2110004
83	1	10	-0.68011898	5.5359998	7.5510001	7.1760001
84	1	11	0.38481301	5.552	8.0579996	6.323
85	1	6	0.077666	6.072	9.415	7.9390001
86	1	6	0.077666	5.993	8.0550003	9.1040001
87	1	7	0.095477998	3.5120001	7.9120002	8.8170004
88	1	7	0.095477998	4.0669999	9.4899998	9.4840002
89	1	7	0.088044003	3.9660001	10.466	7.132
90	1	7	0.088044003	3.2490001	8.9390001	6.5450001
91	1	7	0.086081997	1.539	10.717	7.0009999
92	1	7	0.086081997	2.0910001	10.848	8.6870003
93	1	7	0.086081997	1.2869999	8.5869999	9.2270002
94	1	7	0.086081997	-0.02	9.5579996	8.5089998
95	1	7	0.086081997	-0.043000001	7.2360001	7.6820002
96	1	7	0.086081997	1.627	7.3779998	7.066
97	1	7	0.086081997	-0.73799998	9.1490002	6.1360002
98	1	7	0.086081997	0.89700001	9.1000004	5.3959999
99	1	7	0.088044003	-1.058	6.704	5.5149999
100	1	7	0.088044003	-0.90399998	7.8439999	4.138
101	1	7	0.093121998	1.325	5.9970002	5.2210002
102	1	7	0.093121998	1.548	7.223	3.915
103	1	6	0.086416997	-0.193	6.0669999	2.539
104	1	6	0.086416997	-0.43200001	4.8429999	3.8369999

Bonds

1	1	1	2
2	2	1	3
3	3	1	53
4	4	3	4
5	5	3	20
6	6	4	5
7	7	4	18
8	7	4	19
9	6	5	6
10	7	5	16
11	7	5	17
12	6	6	7
13	7	6	14
14	7	6	15
15	4	7	8
16	7	7	12
17	7	7	13
18	2	8	9
19	5	8	11
20	1	9	10
21	8	9	21
22	9	21	22
23	6	22	23
24	7	22	51
25	7	22	52
26	6	23	24
27	7	23	49
28	7	23	50
29	6	24	25
30	7	24	47
31	7	24	48
32	6	25	26
33	7	25	45
34	7	25	46
35	6	26	27
36	7	26	43
37	7	26	44
38	6	27	28
39	7	27	41
40	7	27	42
41	6	28	29
42	7	28	39
43	7	28	40
44	6	29	30
45	7	29	37
46	7	29	38
47	6	30	31
48	7	30	35
49	7	30	36
50	9	31	32
51	7	31	33
52	7	31	34
53	10	32	72
54	1	53	54
55	2	53	55
56	4	55	56
57	5	55	71
58	6	56	57
59	7	56	69
60	7	56	70
61	6	57	58
62	7	57	67
63	7	57	68
64	6	58	59
65	7	58	65
66	7	58	66
67	11	59	60
68	7	59	63
69	7	59	64
70	12	60	61
71	1	61	62
72	9	72	73
73	6	73	74
74	7	73	103
75	7	73	104
76	6	74	75
77	7	74	101
78	7	74	102
79	6	75	76
80	7	75	99
81	7	75	100
82	6	76	77
83	7	76	97
84	7	76	98
85	6	77	78
86	7	77	95
87	7	77	96
88	6	78	79
89	7	78	93
90	7	78	94
91	6	79	80
92	7	79	91
93	7	79	92
94	6	80	81
95	7	80	89
96	7	80	90
97	6	81	82
98	7	81	87
99	7	81	88
100	13	82	83
101	7	82	85
102	7	82	86
103	14	83	84

Angles

1	4	3	4	18
2	4	29	30	35
3	4	72	73	103
4	4	82	81	88
5	4	80	79	91
6	4	55	56	69
7	4	21	22	51
8	7	37	29	38
9	4	24	25	26
10	4	78	79	91
11	4	24	25	45
12	7	35	30	36
13	4	77	78	79
14	4	8	7	13
15	7	93	78	94
16	4	27	28	40
17	4	58	59	64
18	4	75	74	101
19	4	82	81	87
20	4	30	29	37
21	4	77	78	94
22	4	6	7	8
23	7	67	57	68
24	4	56	57	58
25	5	82	83	84
26	4	59	58	65
27	4	28	29	38
28	4	5	4	18
29	8	59	60	61
30	7	43	26	44
31	4	75	76	77
32	4	29	28	39
33	4	22	23	50
34	7	18	4	19
35	3	8	9	21
36	4	28	29	37
37	4	57	58	65
38	4	75	76	97
39	7	85	82	86
40	4	8	7	12
41	2	4	3	20
42	4	4	5	16
43	7	12	7	13
44	4	23	24	47
45	4	72	73	104
46	4	26	25	45
47	4	76	75	99
48	7	103	73	104
49	2	1	3	20
50	4	3	4	5
51	4	6	5	16
52	5	9	21	22
53	4	26	27	42
54	4	55	56	70
55	9	60	61	62
56	4	80	81	82
57	4	23	22	52
58	4	78	77	95
59	4	79	80	81
60	4	58	59	60
61	4	28	27	42
62	7	87	81	88
63	4	23	24	25
64	1	1	3	4
65	3	1	53	54
66	4	60	59	63
67	4	30	29	38
68	4	81	82	85
69	7	69	56	70
70	4	56	57	68
71	7	41	27	42
72	4	57	56	69
73	4	58	57	67
74	4	4	5	6
75	5	31	32	72
76	4	76	77	95
77	4	78	79	80
78	4	28	29	30
79	4	56	57	67
80	3	8	9	10
81	4	23	24	48
82	4	31	30	35
83	4	22	23	49
84	4	6	7	13
85	4	25	26	44
86	4	77	76	97
87	4	27	26	43
88	7	39	28	40
89	4	73	74	101
90	4	74	75	100
91	4	23	22	51
92	4	7	6	14
93	4	81	82	86
94	4	30	31	33
95	1	53	55	56
96	3	2	1	3
97	4	76	77	96
98	7	14	6	15
99	4	58	59	63
100	2	53	55	71
101	4	80	79	92
102	4	32	31	33
103	4	29	30	36
104	4	74	73	103
105	4	78	79	92
106	7	97	76	98
107	6	10	9	21
108	3	1	53	55
109	4	58	57	68
110	4	77	76	98
111	4	29	28	40
112	4	55	56	57
113	4	79	80	89
114	7	47	24	48
115	4	6	7	12
116	4	75	76	98
117	4	81	82	83
118	4	7	6	15
119	3	3	1	53
120	4	57	56	70
121	4	80	81	88
122	3	54	53	55
123	7	101	74	102
124	4	4	5	17
125	4	22	23	24
126	4	59	58	66
127	4	81	80	89
128	4	30	31	34
129	4	79	80	90
130	4	79	78	93
131	4	5	6	14
132	4	25	24	47
133	4	27	28	29
134	7	33	31	34
135	4	75	74	102
136	4	80	81	87
137	4	57	58	66
138	4	76	75	100
139	4	6	5	17
140	4	24	25	46
141	4	78	77	96
142	4	81	80	90
143	4	83	82	85
144	7	45	25	46
145	4	76	77	78
146	1	7	8	9
147	2	9	8	11
148	4	27	28	39
149	4	5	6	15
150	4	74	73	104
151	7	63	59	64
152	4	73	74	102
153	4	73	74	75
154	4	77	78	93
155	4	25	26	27
156	4	3	4	19
157	4	72	73	74
158	5	32	72	73
159	4	74	75	99
160	4	83	82	86
161	4	21	22	23
162	4	26	27	41
163	2	56	55	71
164	4	25	24	48
165	4	26	25	46
166	4	24	23	49
167	4	28	27	41
168	7	51	22	52
169	4	24	23	50
170	4	29	30	31
171	4	5	4	19
172	4	74	75	76
173	4	5	6	7
174	4	21	22	52
175	3	2	1	53
176	4	25	26	43
177	4	31	30	36
178	4	32	31	34
179	4	60	59	64
180	7	16	5	17
181	7	95	77	96
182	7	49	23	50
183	4	57	58	59
184	4	30	31	32
185	7	65	58	66
186	4	27	26	44
187	4	79	78	94
188	7	99	75	100
189	2	7	8	11
190	4	26	27	28
191	7	91	79	92
192	7	89	80	90

Dihedrals

1	27	42	27	26	43
2	27	50	23	22	52
3	18	4	5	6	15
4	27	88	81	80	90
5	14	8	7	6	14
6	15	25	26	27	28
6	16	25	26	27	28
6	17	25	26	27	28
7	5	5	4	3	20
7	6	5	4	3	20
8	27	46	25	24	48
9	18	80	81	82	85
10	7	7	8	9	10
10	8	7	8	9	10
11	18	5	6	7	12
12	18	24	25	26	43
13	27	37	29	28	40
14	27	44	26	25	46
15	27	64	59	58	66
16	27	40	28	27	41
17	27	96	77	76	98
18	27	95	77	76	98
19	27	67	57	56	70
20	27	12	7	6	15
21	18	81	80	79	92
22	18	77	78	79	91
23	28	72	73	74	101
23	29	72	73	74	101
24	27	49	23	22	52
25	18	75	76	77	95
26	7	4	3	1	53
26	8	4	3	1	53
27	18	29	28	27	41
28	5	11	8	7	13
28	6	11	8	7	13
29	18	31	30	29	38
30	18	78	77	76	97
31	22	9	21	22	52
32	5	18	4	3	20
32	6	18	4	3	20
33	22	34	31	32	72
34	27	100	75	74	101
35	27	101	74	73	104
36	18	26	25	24	48
37	31	61	60	59	64
38	18	31	30	29	37
39	18	27	26	25	45
40	1	6	7	8	9
40	2	6	7	8	9
40	3	6	7	8	9
40	4	6	7	8	9
41	27	50	23	22	51
42	27	65	58	57	68
43	22	32	72	73	74
44	18	5	6	7	13
45	27	34	31	30	35
46	27	35	30	29	38
47	27	66	58	57	68
48	13	2	1	53	54
49	7	11	8	9	21
49	8	11	8	9	21
50	18	27	28	29	37
51	27	63	59	58	66
52	18	23	24	25	46
53	15	74	75	76	77
53	16	74	75	76	77
53	17	74	75	76	77
54	18	78	77	76	98
55	1	53	55	56	57
55	2	53	55	56	57
55	3	53	55	56	57
55	4	53	55	56	57
56	5	53	55	56	70
56	6	53	55	56	70
57	13	3	1	53	54
58	5	11	8	7	12
58	6	11	8	7	12
59	5	1	3	4	19
59	6	1	3	4	19
60	27	35	30	29	37
61	28	32	31	30	35
61	29	32	31	30	35
62	27	94	78	77	95
63	27	49	23	22	51
64	18	74	75	76	97
65	14	80	81	82	83
66	18	28	29	30	35
67	27	66	58	57	67
68	27	48	24	23	50
69	18	77	76	75	99
70	27	33	31	30	36
71	27	89	80	79	92
72	30	31	32	72	73
73	18	82	81	80	90
74	27	93	78	77	96
75	14	60	59	58	66
76	18	7	6	5	17
77	5	70	56	55	71
77	6	70	56	55	71
78	22	9	21	22	51
79	7	20	3	1	53
79	8	20	3	1	53
80	18	56	57	58	66
81	20	9	21	22	23
81	21	9	21	22	23
82	27	86	82	81	88
83	18	25	26	27	42
84	18	76	75	74	101
85	27	85	82	81	88
86	14	3	4	5	16
87	27	13	7	6	15
88	11	54	53	55	71
88	12	54	53	55	71
89	18	29	30	31	33
90	27	92	79	78	94
91	31	58	59	60	61
92	18	74	75	76	98
93	27	41	27	26	44
94	11	2	1	3	20
94	12	2	1	3	20
95	28	72	73	74	102
95	29	72	73	74	102
96	14	72	73	74	75
97	27	86	82	81	87
98	7	1	53	55	71
98	8	1	53	55	71
99	14	8	7	6	15
100	27	36	30	29	38
101	15	77	78	79	80
101	16	77	78	79	80
101	17	77	78	79	80
102	27	85	82	81	87
103	15	79	80	81	82
103	16	79	80	81	82
103	17	79	80	81	82
104	18	57	58	59	63
105	9	2	1	3	4
105	10	2	1	3	4
106	13	2	1	53	55
107	15	27	28	29	30
107	16	27	28	29	30
107	17	27	28	29	30
108	5	57	56	55	71
108	6	57	56	55	71
109	18	80	79	78	93
110	18	22	23	24	47
111	18	73	74	75	99
112	18	27	28	29	38
113	33	81	82	83	84
113	34	81	82	83	84
114	27	36	30	29	37
115	13	3	1	53	55
116	22	32	72	73	103
117	15	26	27	28	29
117	16	26	27	28	29
117	17	26	27	28	29
118	18	75	76	77	96
119	27	14	6	5	16
120	18	28	27	26	43
121	22	33	31	32	72
122	5	6	7	8	11
122	6	6	7	8	11
123	27	15	6	5	17
124	14	3	4	5	6
125	18	82	81	80	89
126	22	30	31	32	72
127	27	90	80	79	91
128	18	29	30	31	34
129	32	59	60	61	62
130	28	83	82	81	88
130	29	83	82	81	88
131	27	68	57	56	69
132	27	97	76	75	100
133	27	38	29	28	39
134	5	1	3	4	18
134	6	1	3	4	18
135	27	48	24	23	49
136	25	10	9	21	22
136	26	10	9	21	22
137	18	26	27	28	39
138	15	73	74	75	76
138	16	73	74	75	76
138	17	73	74	75	76
139	27	47	24	23	49
140	27	40	28	27	42
141	27	42	27	26	44
142	27	47	24	23	50
143	31	61	60	59	63
144	27	43	26	25	45
145	18	77	78	79	92
146	18	30	29	28	39
147	28	83	82	81	87
147	29	83	82	81	87
148	15	78	79	80	81
148	16	78	79	80	81
148	17	78	79	80	81
149	18	29	28	27	42
150	18	24	25	26	44
151	27	98	76	75	100
152	27	64	59	58	65
153	27	39	28	27	42
154	27	87	81	80	89
155	9	54	53	55	56
155	10	54	53	55	56
156	35	84	83	82	86
157	14	5	6	7	8
158	18	58	57	56	69
159	18	6	5	4	19
160	18	81	80	79	91
161	27	94	78	77	96
162	15	23	24	25	26
162	16	23	24	25	26
162	17	23	24	25	26
163	18	59	58	57	67
164	5	19	4	3	20
164	6	19	4	3	20
165	18	23	24	25	45
166	27	99	75	74	101
167	7	1	53	55	56
167	8	1	53	55	56
168	18	4	5	6	14
169	27	87	81	80	90
170	5	9	8	7	12
170	6	9	8	7	12
171	18	25	24	23	49
172	22	32	72	73	104
173	18	75	74	73	104
174	15	75	76	77	78
174	16	75	76	77	78
174	17	75	76	77	78
175	18	30	29	28	40
176	18	25	24	23	50
177	14	55	56	57	58
178	18	79	78	77	95
179	27	34	31	30	36
180	27	102	74	73	104
181	18	76	77	78	93
182	27	100	75	74	102
183	27	95	77	76	97
184	27	12	7	6	14
185	27	17	5	4	19
186	18	75	74	73	103
187	14	3	4	5	17
188	27	44	26	25	45
189	27	17	5	4	18
190	18	24	23	22	52
191	27	68	57	56	70
192	28	32	31	30	36
192	29	32	31	30	36
193	5	53	55	56	69
193	6	53	55	56	69
194	35	84	83	82	85
195	27	91	79	78	93
196	27	102	74	73	103
197	18	27	26	25	46
198	18	28	29	30	36
199	27	63	59	58	65
200	18	57	58	59	64
201	1	1	3	4	5
201	2	1	3	4	5
201	3	1	3	4	5
201	4	1	3	4	5
202	27	45	25	24	47
203	15	76	77	78	79
203	16	76	77	78	79
203	17	76	77	78	79
204	18	79	80	81	87
205	27	16	5	4	19
206	27	16	5	4	18
207	27	33	31	30	35
208	15	22	23	24	25
208	16	22	23	24	25
208	17	22	23	24	25
209	18	79	78	77	96
210	18	80	79	78	94
211	5	9	8	7	13
211	6	9	8	7	13
212	18	76	77	78	94
213	28	21	22	23	49
213	29	21	22	23	49
214	27	89	80	79	91
215	7	7	8	9	21
215	8	7	8	9	21
216	18	78	79	80	89
217	28	21	22	23	50
217	29	21	22	23	50
218	27	97	76	75	99
219	14	60	59	58	65
220	18	59	58	57	68
221	19	8	9	21	22
222	15	28	29	30	31
222	16	28	29	30	31
222	17	28	29	30	31
223	27	91	79	78	94
224	27	41	27	26	43
225	27	14	6	5	17
226	27	15	6	5	16
227	27	46	25	24	47
228	18	56	57	58	65
229	18	58	57	56	70
230	18	25	26	27	41
231	27	67	57	56	69
232	5	69	56	55	71
232	6	69	56	55	71
233	18	73	74	75	100
234	27	39	28	27	41
235	14	29	30	31	32
236	27	43	26	25	46
237	18	78	79	80	90
238	14	55	56	57	68
239	18	6	5	4	18
240	15	56	57	58	59
240	16	56	57	58	59
240	17	56	57	58	59
241	18	22	23	24	48
242	27	38	29	28	40
243	18	24	23	22	51
244	18	76	75	74	102
245	15	24	25	26	27
245	16	24	25	26	27
245	17	24	25	26	27
246	18	26	27	28	40
247	18	80	81	82	86
248	18	7	6	5	16
249	27	98	76	75	99
250	15	4	5	6	7
250	16	4	5	6	7
250	17	4	5	6	7
251	27	93	78	77	95
252	27	99	75	74	102
253	27	37	29	28	39
254	27	101	74	73	103
255	23	10	9	8	11
255	24	10	9	8	11
256	18	77	76	75	100
257	14	55	56	57	67
258	27	90	80	79	92
259	18	26	25	24	47
260	27	45	25	24	48
261	27	96	77	76	97
262	18	79	80	81	88
263	27	88	81	80	89
264	14	21	22	23	24
265	14	57	58	59	60
266	27	13	7	6	14
267	27	65	58	57	67
268	27	92	79	78	93
269	18	28	27	26	44

Impropers

4	3	9	21	8	10
88	2	1	53	2	3
159	3	9	8	10	21
190	1	55	56	71	53
205	1	8	9	11	7
259	3	9	10	21	8
313	1	3	20	1	4
363	2	53	55	1	54
415	1	3	1	4	20
433	1	55	53	56	71
446	1	55	71	53	56
455	2	53	1	54	55
461	2	1	3	53	2
499	1	8	7	9	11
503	2	1	2	3	53
603	2	53	54	55	1
682	1	8	11	7	9
690	1	3	4	20	1
