Title

104 atoms
103 bonds
192 angles
348 dihedrals
18 impropers

11 atom types
14 bond types
9 angle types
35 dihedral types
3 improper types
-5.407999992 94.59200001 xlo xhi
-2.082000017 97.91799998 ylo yhi
-1.582999945 98.41700006 zlo zhi
0.0 0.0 0.0 xy xz yz

Masses

1	12.01078
2	15.99943
3	14.00672
4	12.01078
5	1.007947
6	1.007947
7	1.007947
8	15.99943
9	12.01078
10	15.99943
11	1.007947


Pair Coeffs

1	0.086879315	3.4806469
2	0.2102061	3.0398122
3	0.16769152	3.206876
4	0.10884061	3.3795318
5	0.014090815	1.1034277
6	0.016409246	2.5832257
7	0.015779483	2.6445434
8	0.16846514	3.0251065
9	0.21	3.3996695
10	0.20947353	2.99716
11	1.2326e-05	0.53453923

Bond Coeffs

1 harmonic	582.698766451	1.225198386222
2 harmonic	492.76746816345	1.381897776683
3 harmonic	279.1350963404	1.454628925034
4 harmonic	352.0565580496	1.450098586273
5 harmonic	505.144496193	1.019481865027
6 harmonic	264.62148576755	1.52190126495
7 harmonic	370.04670688625	1.093899492634
8 harmonic	301.15400723785	1.345741232799
9 harmonic	366.7408841747	1.425895053732
10 harmonic	300.03137914615	1.451203938761
11 harmonic	366.34047229585	1.464762957261
12 harmonic	602.81384337	1.196112346392
13 harmonic	329.96998057905	1.427343958716
14 harmonic	543.5267831885	0.9716763312559


Angle Coeffs

1 harmonic	55.42182150775	117.3465570514
2 harmonic	63.44422595415	115.5071327674
3 harmonic	57.8982893754	126.8062420451
4 harmonic	53.20531626545	116.5475862634
5 harmonic	65.09061609600001	110.3538806181
6 harmonic	201.41175231035	127.4691416191
7 harmonic	48.776492647595	115.6030999533
8 harmonic	55.07882548015	112.8714009681
9 harmonic	33.56981613361	180


Dihedral Coeffs

1 fourier 1	-0.1488678166443	4	180
2 fourier 1	-0.1230328948768	3	180
3 fourier 1	0.2939295466901	2	0
4 fourier 1	-0.3024127022865	1	0
5 fourier 1	0.182238503271	2	0
6 fourier 1	0.02972342374561	3	0
7 fourier 1	1.809047390003	2	180
8 fourier 1	-0.04816277792592	1	0
9 fourier 1	3.101948770557	2	180
10 fourier 1	-0.4252153282372	1	0
11 fourier 1	2.348375642009	2	180
12 fourier 1	1.256156174911	1	0
13 fourier 1	0.9974165607242	2	180
14 fourier 1	0.1155372516788	3	0
15 fourier 1	0.09223874044423	3	0
16 fourier 1	0.3159935921949	2	180
17 fourier 1	0.3247796806857	1	180
18 fourier 1	0.1040663847541	3	0
19 fourier 1	2.779853741805	2	180
20 fourier 1	0.1918272375143	3	0
21 fourier 1	0.9202179876409	1	180
22 fourier 1	0.0473758381877	3	0
23 fourier 1	0.4860993122944	2	180
24 fourier 1	0.8916986138746	1	0
25 fourier 1	1.163809172478	2	180
26 fourier 1	0.1679186987369	1	180
27 fourier 1	0.1911926717192	3	0
28 fourier 1	0.1115525666802	3	0
29 fourier 1	0.3432490222662	1	0
30 fourier 1	0.457973137376	1	0
31 fourier 1	-1.382973039546	1	0
32 fourier 1	0	1	0
33 fourier 1	0.3445382149273	3	0
34 fourier 1	0.1364556373303	1	0
35 fourier 1	0.3026390167484	3	0


Improper Coeffs

1 0.3333333333333333	-1	2
2 0.3666666666666667	-1	2
3 3.5	-1	2


Atoms

1	1	1	0.54290402	3.3410001	1.4349999	0.43399999
2	1	2	-0.68689799	4.3610001	0.736	0.192
3	1	3	-0.522349	2.036	0.977	0.071000002
4	1	4	0.029514	1.834	-0.308	-0.60100001
5	1	4	-0.146585	0.34599999	-0.59299999	-0.83999997
6	1	4	-0.14528701	-0.39700001	-0.898	0.47099999
7	1	4	0.023641	-1.876	-1.224	0.226
8	1	3	-0.46608701	-2.5880001	-0.074000001	-0.331
9	1	1	0.78607303	-2.9430001	1.071	0.44999999
10	1	2	-0.61061603	-2.6630001	1.13	1.677
11	1	5	0.325618	-2.9000001	-0.11	-1.327
12	1	6	0.056715999	-2.355	-1.533	1.1799999
13	1	6	0.056715999	-1.952	-2.082	-0.477
14	1	7	0.088547997	-0.31600001	-0.037999999	1.168
15	1	7	0.088547997	0.077	-1.776	0.96200001
16	1	7	0.088547997	-0.117	0.278	-1.353
17	1	7	0.088547997	0.26100001	-1.471	-1.516
18	1	6	0.053149998	2.2809999	-1.124	0.0070000002
19	1	6	0.053149998	2.355	-0.285	-1.5829999
20	1	5	0.31903499	1.224	1.599	0.28400001
21	1	8	-0.497686	-3.444	1.862	0.003
22	1	4	0.1145	-4.355	2.3469999	0.95200002
23	1	4	-0.138532	-3.6259999	3.1860001	2.0050001
24	1	4	-0.139625	-4.6100001	3.7449999	3.043
25	1	4	-0.140834	-3.9360001	4.6999998	4.0409999
26	1	4	-0.13950901	-2.9879999	3.97	5.0079999
27	1	4	-0.13950901	-2.4990001	4.8720002	6.1550002
28	1	4	-0.140783	-1.7079999	6.119	5.7129998
29	1	4	-0.13835301	-0.47799999	5.8330002	4.8319998
30	1	4	-0.144519	0.56999999	4.9590001	5.5380001
31	1	4	0.036114	1.863	4.849	4.7249999
32	1	8	-0.166844	1.643	4.1370001	3.536
33	1	6	0.086416997	2.2839999	5.8600001	4.5190001
34	1	6	0.086416997	2.6140001	4.2950001	5.3270001
35	1	7	0.093121998	0.167	3.937	5.704
36	1	7	0.093121998	0.81300002	5.4029999	6.5279999
37	1	7	0.088044003	-0.015	6.8099999	4.5710001
38	1	7	0.088044003	-0.79500002	5.3600001	3.878
39	1	7	0.086081997	-2.385	6.8099999	5.1669998
40	1	7	0.086081997	-1.375	6.664	6.6230001
41	1	7	0.086081997	-1.874	4.2649999	6.8449998
42	1	7	0.086081997	-3.3789999	5.2080002	6.7459998
43	1	7	0.086081997	-3.526	3.1099999	5.461
44	1	7	0.086081997	-2.1159999	3.556	4.46
45	1	7	0.086081997	-4.7340002	5.2020001	4.6290002
46	1	7	0.086081997	-3.3840001	5.4840002	3.4790001
47	1	7	0.087866001	-5.099	2.9089999	3.592
48	1	7	0.087866001	-5.408	4.3109999	2.5139999
49	1	7	0.092004001	-2.8710001	2.5450001	2.5079999
50	1	7	0.092004001	-3.099	4.0229998	1.499
51	1	6	0.086415	-5.1040001	2.9779999	0.428
52	1	6	0.086415	-4.895	1.501	1.436
53	1	1	0.54290402	3.4560001	2.3929999	0.92299998
54	1	2	-0.68689799	2.701	2.6919999	1.886
55	1	3	-0.522349	4.461	3.3039999	0.47
56	1	4	0.029805999	4.6529999	4.6090002	1.1
57	1	4	-0.141453	5.7909999	5.3800001	0.42300001
58	1	4	-0.123407	5.9970002	6.75	1.079
59	1	4	0.183907	7.1339998	7.5219998	0.398
60	1	3	-0.643933	7.369	8.8000002	1.062
61	1	9	0.59327197	6.5209999	9.7489996	1.018
62	1	2	-0.46969599	5.6960001	10.67	0.97500002
63	1	6	0.031737	8.0679998	6.9229999	0.45500001
64	1	6	0.031737	6.8979998	7.6929998	-0.676
65	1	7	0.082438	6.2449999	6.612	2.155
66	1	7	0.082438	5.0560002	7.3379998	1.005
67	1	7	0.087508	5.5469999	5.5190001	-0.65399998
68	1	7	0.087508	6.7290001	4.7870002	0.5
69	1	6	0.053149998	3.711	5.1939998	1.021
70	1	6	0.053149998	4.8940001	4.4629998	2.1760001
71	1	5	0.31903499	5.0630002	3.01	-0.333
72	1	8	-0.166844	1.385	4.803	2.846
73	1	4	0.036114	0.31	5.5320001	3.372
74	1	4	-0.144519	0.81199998	6.546	4.4029999
75	1	4	-0.13835301	-0.34900001	7.3709998	4.9780002
76	1	4	-0.140783	0.13	8.4890003	5.9169998
77	1	4	-0.13950901	0.69099998	7.9460001	7.243
78	1	4	-0.13950901	0.94499999	9.0550003	8.2790003
79	1	4	-0.140783	1.961	10.132	7.8460002
80	1	4	-0.134268	3.3440001	9.5959997	7.4359999
81	1	4	-0.16644301	4.0560002	8.8500004	8.5749998
82	1	4	0.089438997	5.5009999	8.4969997	8.2110004
83	1	10	-0.68011898	5.5359998	7.5510001	7.1760001
84	1	11	0.38481301	5.552	8.0579996	6.323
85	1	6	0.077666	6.072	9.415	7.9390001
86	1	6	0.077666	5.993	8.0550003	9.1040001
87	1	7	0.095477998	3.5120001	7.9120002	8.8170004
88	1	7	0.095477998	4.0669999	9.4899998	9.4840002
89	1	7	0.088044003	3.9660001	10.466	7.132
90	1	7	0.088044003	3.2490001	8.9390001	6.5450001
91	1	7	0.086081997	1.539	10.717	7.0009999
92	1	7	0.086081997	2.0910001	10.848	8.6870003
93	1	7	0.086081997	1.2869999	8.5869999	9.2270002
94	1	7	0.086081997	-0.02	9.5579996	8.5089998
95	1	7	0.086081997	-0.043000001	7.2360001	7.6820002
96	1	7	0.086081997	1.627	7.3779998	7.066
97	1	7	0.086081997	-0.73799998	9.1490002	6.1360002
98	1	7	0.086081997	0.89700001	9.1000004	5.3959999
99	1	7	0.088044003	-1.058	6.704	5.5149999
100	1	7	0.088044003	-0.90399998	7.8439999	4.138
101	1	7	0.093121998	1.325	5.9970002	5.2210002
102	1	7	0.093121998	1.548	7.223	3.915
103	1	6	0.086416997	-0.193	6.0669999	2.539
104	1	6	0.086416997	-0.43200001	4.8429999	3.8369999

Bonds

1	1	1	2
2	2	1	3
3	3	1	53
4	4	3	4
5	5	3	20
6	6	4	5
7	7	4	18
8	7	4	19
9	6	5	6
10	7	5	16
11	7	5	17
12	6	6	7
13	7	6	14
14	7	6	15
15	4	7	8
16	7	7	12
17	7	7	13
18	2	8	9
19	5	8	11
20	1	9	10
21	8	9	21
22	9	21	22
23	6	22	23
24	7	22	51
25	7	22	52
26	6	23	24
27	7	23	49
28	7	23	50
29	6	24	25
30	7	24	47
31	7	24	48
32	6	25	26
33	7	25	45
34	7	25	46
35	6	26	27
36	7	26	43
37	7	26	44
38	6	27	28
39	7	27	41
40	7	27	42
41	6	28	29
42	7	28	39
43	7	28	40
44	6	29	30
45	7	29	37
46	7	29	38
47	6	30	31
48	7	30	35
49	7	30	36
50	9	31	32
51	7	31	33
52	7	31	34
53	10	32	72
54	1	53	54
55	2	53	55
56	4	55	56
57	5	55	71
58	6	56	57
59	7	56	69
60	7	56	70
61	6	57	58
62	7	57	67
63	7	57	68
64	6	58	59
65	7	58	65
66	7	58	66
67	11	59	60
68	7	59	63
69	7	59	64
70	12	60	61
71	1	61	62
72	9	72	73
73	6	73	74
74	7	73	103
75	7	73	104
76	6	74	75
77	7	74	101
78	7	74	102
79	6	75	76
80	7	75	99
81	7	75	100
82	6	76	77
83	7	76	97
84	7	76	98
85	6	77	78
86	7	77	95
87	7	77	96
88	6	78	79
89	7	78	93
90	7	78	94
91	6	79	80
92	7	79	91
93	7	79	92
94	6	80	81
95	7	80	89
96	7	80	90
97	6	81	82
98	7	81	87
99	7	81	88
100	13	82	83
101	7	82	85
102	7	82	86
103	14	83	84

Angles

1	4	58	57	68
2	7	35	30	36
3	4	81	80	89
4	1	1	3	4
5	4	6	7	12
6	7	51	22	52
7	4	26	25	45
8	8	59	60	61
9	4	58	59	64
10	4	81	82	85
11	6	10	9	21
12	4	32	31	34
13	7	91	79	92
14	4	75	74	102
15	4	6	5	16
16	4	30	31	32
17	4	57	58	59
18	2	56	55	71
19	4	60	59	63
20	4	73	74	75
21	4	59	58	66
22	4	3	4	5
23	4	5	6	15
24	7	18	4	19
25	4	58	59	60
26	4	82	81	87
27	4	77	78	93
28	4	27	26	43
29	4	26	25	46
30	4	74	75	99
31	4	81	82	86
32	4	23	24	47
33	2	4	3	20
34	4	56	57	58
35	1	7	8	9
36	4	76	77	96
37	4	28	29	37
38	7	14	6	15
39	4	80	81	82
40	7	99	75	100
41	4	60	59	64
42	4	4	5	16
43	4	78	79	91
44	3	1	53	55
45	4	27	26	44
46	4	22	23	50
47	4	72	73	104
48	4	24	25	45
49	4	27	28	29
50	7	63	59	64
51	7	85	82	86
52	7	47	24	48
53	4	29	30	35
54	4	55	56	57
55	4	83	82	85
56	4	8	7	12
57	7	101	74	102
58	4	4	5	17
59	4	76	75	99
60	4	26	27	28
61	4	29	30	31
62	7	12	7	13
63	4	74	75	76
64	4	5	4	18
65	5	32	72	73
66	4	79	78	93
67	7	67	57	68
68	7	39	28	40
69	2	53	55	71
70	4	55	56	69
71	4	81	80	90
72	2	9	8	11
73	4	6	7	13
74	4	5	6	7
75	1	53	55	56
76	4	79	80	89
77	4	8	7	13
78	4	25	26	27
79	4	28	29	30
80	3	54	53	55
81	4	30	29	37
82	4	76	75	100
83	7	95	77	96
84	4	28	27	41
85	7	45	25	46
86	4	56	57	67
87	4	25	26	43
88	7	89	80	90
89	4	80	79	91
90	4	6	5	17
91	4	5	4	19
92	4	30	31	33
93	4	75	76	97
94	4	82	81	88
95	4	55	56	70
96	2	7	8	11
97	4	77	78	94
98	4	80	81	87
99	4	75	76	77
100	4	78	79	80
101	4	21	22	51
102	5	9	21	22
103	4	6	7	8
104	4	31	30	35
105	7	65	58	66
106	4	79	80	81
107	5	82	83	84
108	7	49	23	50
109	4	74	75	100
110	4	23	24	48
111	4	26	27	41
112	7	93	78	94
113	3	8	9	21
114	4	28	29	38
115	4	30	31	34
116	4	77	78	79
117	4	3	4	18
118	3	2	1	53
119	2	1	3	20
120	4	78	79	92
121	4	81	82	83
122	3	8	9	10
123	7	41	27	42
124	4	24	25	46
125	4	7	6	14
126	4	27	28	39
127	4	77	76	97
128	4	29	30	36
129	4	21	22	23
130	4	24	25	26
131	4	83	82	86
132	4	72	73	74
133	4	74	73	103
134	4	23	22	51
135	7	97	76	98
136	4	76	77	78
137	4	58	59	63
138	4	32	31	33
139	9	60	61	62
140	4	57	56	69
141	4	23	24	25
142	4	79	78	94
143	4	25	24	47
144	4	78	77	95
145	4	77	76	98
146	4	5	6	14
147	3	2	1	3
148	4	73	74	101
149	4	24	23	49
150	4	4	5	6
151	7	33	31	34
152	4	57	58	65
153	4	74	73	104
154	4	23	22	52
155	4	79	80	90
156	4	30	29	38
157	4	29	28	39
158	7	43	26	44
159	4	28	27	42
160	4	56	57	68
161	7	16	5	17
162	4	25	26	44
163	4	76	77	95
164	4	80	79	92
165	4	57	56	70
166	7	103	73	104
167	4	25	24	48
168	4	78	77	96
169	4	75	76	98
170	4	73	74	102
171	4	80	81	88
172	3	1	53	54
173	4	24	23	50
174	4	22	23	24
175	4	57	58	66
176	4	21	22	52
177	4	31	30	36
178	4	22	23	49
179	4	72	73	103
180	4	29	28	40
181	4	26	27	42
182	3	3	1	53
183	7	37	29	38
184	4	58	57	67
185	5	31	32	72
186	7	87	81	88
187	4	3	4	19
188	4	75	74	101
189	4	27	28	40
190	4	7	6	15
191	7	69	56	70
192	4	59	58	65

Dihedrals

1	22	9	21	22	52
2	27	99	75	74	102
3	27	102	74	73	103
4	27	46	25	24	48
5	27	97	76	75	100
6	18	25	24	23	50
7	5	18	4	3	20
7	6	18	4	3	20
8	27	17	5	4	18
9	18	76	75	74	102
10	7	7	8	9	10
10	8	7	8	9	10
11	5	9	8	7	12
11	6	9	8	7	12
12	5	19	4	3	20
12	6	19	4	3	20
13	18	31	30	29	37
14	27	101	74	73	103
15	5	11	8	7	13
15	6	11	8	7	13
16	28	21	22	23	49
16	29	21	22	23	49
17	18	5	6	7	13
18	27	40	28	27	42
19	27	91	79	78	94
20	27	44	26	25	46
21	27	42	27	26	44
22	14	55	56	57	67
23	27	92	79	78	93
24	27	66	58	57	67
25	18	77	76	75	100
26	18	25	26	27	41
27	35	84	83	82	86
28	27	41	27	26	43
29	27	64	59	58	66
30	27	39	28	27	41
31	27	102	74	73	104
32	14	29	30	31	32
33	5	1	3	4	18
33	6	1	3	4	18
34	15	76	77	78	79
34	16	76	77	78	79
34	17	76	77	78	79
35	5	9	8	7	13
35	6	9	8	7	13
36	5	57	56	55	71
36	6	57	56	55	71
37	18	27	28	29	37
38	18	31	30	29	38
39	15	22	23	24	25
39	16	22	23	24	25
39	17	22	23	24	25
40	27	35	30	29	37
41	31	61	60	59	63
42	27	33	31	30	35
43	27	67	57	56	69
44	18	7	6	5	17
45	14	55	56	57	68
46	27	92	79	78	94
47	14	5	6	7	8
48	27	13	7	6	14
49	27	12	7	6	14
50	18	80	79	78	93
51	18	59	58	57	67
52	18	73	74	75	100
53	27	88	81	80	89
54	22	32	72	73	104
55	28	32	31	30	36
55	29	32	31	30	36
56	18	26	25	24	47
57	18	29	30	31	33
58	27	87	81	80	90
59	5	53	55	56	69
59	6	53	55	56	69
60	14	8	7	6	14
61	18	26	27	28	39
62	18	30	29	28	40
63	27	35	30	29	38
64	27	50	23	22	51
65	15	24	25	26	27
65	16	24	25	26	27
65	17	24	25	26	27
66	27	33	31	30	36
67	18	56	57	58	66
68	27	34	31	30	35
69	15	75	76	77	78
69	16	75	76	77	78
69	17	75	76	77	78
70	18	82	81	80	89
71	15	73	74	75	76
71	16	73	74	75	76
71	17	73	74	75	76
72	27	85	82	81	87
73	18	24	25	26	43
74	27	12	7	6	15
75	18	79	78	77	95
76	25	10	9	21	22
76	26	10	9	21	22
77	27	48	24	23	49
78	5	5	4	3	20
78	6	5	4	3	20
79	27	16	5	4	18
80	18	79	80	81	88
81	18	4	5	6	14
82	27	47	24	23	49
83	18	58	57	56	70
84	27	15	6	5	16
85	18	28	29	30	35
86	27	100	75	74	101
87	18	24	23	22	52
88	14	60	59	58	65
89	14	8	7	6	15
90	27	65	58	57	68
91	18	26	27	28	40
92	30	31	32	72	73
93	27	89	80	79	91
94	15	27	28	29	30
94	16	27	28	29	30
94	17	27	28	29	30
95	27	36	30	29	37
96	27	101	74	73	104
97	27	93	78	77	95
98	27	43	26	25	45
99	14	3	4	5	16
100	18	27	26	25	45
101	9	2	1	3	4
101	10	2	1	3	4
102	18	74	75	76	97
103	27	17	5	4	19
104	18	24	25	26	44
105	15	28	29	30	31
105	16	28	29	30	31
105	17	28	29	30	31
106	32	59	60	61	62
107	18	23	24	25	45
108	33	81	82	83	84
108	34	81	82	83	84
109	18	75	76	77	95
110	18	79	78	77	96
111	27	96	77	76	97
112	27	48	24	23	50
113	27	68	57	56	69
114	15	74	75	76	77
114	16	74	75	76	77
114	17	74	75	76	77
115	14	80	81	82	83
116	27	94	78	77	95
117	27	16	5	4	19
118	28	21	22	23	50
118	29	21	22	23	50
119	1	53	55	56	57
119	2	53	55	56	57
119	3	53	55	56	57
119	4	53	55	56	57
120	28	72	73	74	101
120	29	72	73	74	101
121	27	95	77	76	97
122	23	10	9	8	11
122	24	10	9	8	11
123	27	66	58	57	68
124	14	60	59	58	66
125	18	29	28	27	41
126	18	25	26	27	42
127	27	93	78	77	96
128	27	41	27	26	44
129	14	3	4	5	17
130	18	27	26	25	46
131	27	39	28	27	42
132	27	37	29	28	39
133	27	43	26	25	46
134	13	3	1	53	54
135	5	1	3	4	19
135	6	1	3	4	19
136	15	56	57	58	59
136	16	56	57	58	59
136	17	56	57	58	59
137	27	63	59	58	65
138	18	74	75	76	98
139	18	77	78	79	91
140	15	78	79	80	81
140	16	78	79	80	81
140	17	78	79	80	81
141	18	23	24	25	46
142	18	27	28	29	38
143	13	2	1	53	54
144	27	95	77	76	98
145	7	20	3	1	53
145	8	20	3	1	53
146	31	61	60	59	64
147	27	67	57	56	70
148	28	72	73	74	102
148	29	72	73	74	102
149	27	94	78	77	96
150	15	23	24	25	26
150	16	23	24	25	26
150	17	23	24	25	26
151	27	49	23	22	51
152	7	1	53	55	71
152	8	1	53	55	71
153	27	13	7	6	15
154	18	80	79	78	94
155	7	1	53	55	56
155	8	1	53	55	56
156	18	29	28	27	42
157	22	33	31	32	72
158	18	59	58	57	68
159	5	70	56	55	71
159	6	70	56	55	71
160	18	28	27	26	43
161	27	86	82	81	87
162	27	88	81	80	90
163	27	45	25	24	47
164	18	22	23	24	47
165	13	3	1	53	55
166	18	26	25	24	48
167	18	29	30	31	34
168	18	81	80	79	91
169	18	78	77	76	97
170	22	34	31	32	72
171	5	53	55	56	70
171	6	53	55	56	70
172	22	32	72	73	74
173	27	98	76	75	99
174	27	50	23	22	52
175	1	6	7	8	9
175	2	6	7	8	9
175	3	6	7	8	9
175	4	6	7	8	9
176	15	26	27	28	29
176	16	26	27	28	29
176	17	26	27	28	29
177	22	9	21	22	51
178	18	75	74	73	103
179	27	34	31	30	36
180	27	49	23	22	52
181	18	57	58	59	63
182	18	78	79	80	89
183	15	79	80	81	82
183	16	79	80	81	82
183	17	79	80	81	82
184	18	82	81	80	90
185	27	85	82	81	88
186	18	76	75	74	101
187	1	1	3	4	5
187	2	1	3	4	5
187	3	1	3	4	5
187	4	1	3	4	5
188	22	30	31	32	72
189	31	58	59	60	61
190	27	91	79	78	93
191	18	28	27	26	44
192	27	45	25	24	48
193	5	11	8	7	12
193	6	11	8	7	12
194	11	2	1	3	20
194	12	2	1	3	20
195	18	76	77	78	93
196	18	4	5	6	15
197	7	7	8	9	21
197	8	7	8	9	21
198	18	22	23	24	48
199	27	47	24	23	50
200	27	44	26	25	45
201	27	15	6	5	17
202	18	28	29	30	36
203	27	42	27	26	43
204	11	54	53	55	71
204	12	54	53	55	71
205	18	81	80	79	92
206	27	100	75	74	102
207	9	54	53	55	56
207	10	54	53	55	56
208	18	77	76	75	99
209	18	78	77	76	98
210	27	89	80	79	92
211	27	36	30	29	38
212	35	84	83	82	85
213	27	38	29	28	39
214	18	57	58	59	64
215	27	64	59	58	65
216	18	75	74	73	104
217	18	78	79	80	90
218	27	14	6	5	16
219	15	77	78	79	80
219	16	77	78	79	80
219	17	77	78	79	80
220	18	75	76	77	96
221	14	21	22	23	24
222	14	72	73	74	75
223	27	68	57	56	70
224	27	96	77	76	98
225	20	9	21	22	23
225	21	9	21	22	23
226	18	76	77	78	94
227	27	90	80	79	91
228	18	7	6	5	16
229	18	6	5	4	18
230	14	57	58	59	60
231	7	4	3	1	53
231	8	4	3	1	53
232	14	55	56	57	58
233	18	73	74	75	99
234	22	32	72	73	103
235	27	38	29	28	40
236	28	32	31	30	35
236	29	32	31	30	35
237	5	69	56	55	71
237	6	69	56	55	71
238	27	37	29	28	40
239	27	63	59	58	66
240	18	77	78	79	92
241	28	83	82	81	87
241	29	83	82	81	87
242	27	14	6	5	17
243	27	87	81	80	89
244	19	8	9	21	22
245	13	2	1	53	55
246	18	30	29	28	39
247	18	80	81	82	85
248	27	90	80	79	92
249	18	6	5	4	19
250	18	56	57	58	65
251	15	25	26	27	28
251	16	25	26	27	28
251	17	25	26	27	28
252	27	99	75	74	101
253	27	46	25	24	47
254	27	97	76	75	99
255	7	11	8	9	21
255	8	11	8	9	21
256	18	25	24	23	49
257	14	3	4	5	6
258	5	6	7	8	11
258	6	6	7	8	11
259	27	86	82	81	88
260	18	79	80	81	87
261	18	5	6	7	12
262	27	40	28	27	41
263	28	83	82	81	88
263	29	83	82	81	88
264	18	58	57	56	69
265	18	24	23	22	51
266	15	4	5	6	7
266	16	4	5	6	7
266	17	4	5	6	7
267	27	65	58	57	67
268	27	98	76	75	100
269	18	80	81	82	86

Impropers

71	1	55	71	53	56
155	2	53	54	55	1
164	1	3	1	4	20
258	2	53	55	1	54
281	3	9	21	8	10
299	3	9	8	10	21
312	1	55	53	56	71
347	2	1	3	53	2
392	3	9	10	21	8
420	1	3	4	20	1
436	2	53	1	54	55
445	2	1	53	2	3
463	1	55	56	71	53
487	1	3	20	1	4
546	2	1	2	3	53
578	1	8	11	7	9
589	1	8	7	9	11
626	1	8	9	11	7
