Title

13000 atoms
13375 bonds
23750 angles
33375 dihedrals
9750 impropers

9 atom types
13 bond types
6 angle types
10 dihedral types
2 improper types
-6.578660349 72.5188306 xlo xhi
-6.541553133 72.56075596 ylo yhi
-6.68576371 72.41868942 zlo zhi
0.0 0.0 0.0 xy xz yz

Masses

1	15.99943
2	12.01078
3	1.007947
4	12.01078
5	1.007947
6	15.99943
7	15.99943
8	1.007947
9	35.4532


Pair Coeffs

1	0.16846514	3.0251065
2	0.086879315	3.4806469
3	0.015611343	2.5725815
4	0.10884061	3.3795318
5	0.015779483	2.6445434
6	0.2102061	3.0398122
7	0.20947353	2.99716
8	1.2326e-05	0.53453923
9	0.2656001	3.3075278

Bond Coeffs

1 harmonic	425.69104206635	1.362945806494
2 harmonic	300.03137914615	1.451203938761
3 harmonic	360.7852444772	1.387193227181
4 harmonic	397.2545789619	1.085358495916
5 harmonic	289.73813263395	1.498646816465
6 harmonic	264.62148576755	1.52190126495
7 harmonic	301.15400723785	1.345741232799
8 harmonic	370.04670688625	1.093899492634
9 harmonic	582.698766451	1.225198386222
10 harmonic	279.1350963404	1.454628925034
11 harmonic	385.7604595587	1.369745182308
12 harmonic	543.5267831885	0.9716763312559
13 harmonic	218.0227703685	1.746066037062


Angle Coeffs

1 harmonic	57.8982893754	126.8062420451
2 harmonic	65.09061609600001	110.3538806181
3 harmonic	34.066775159195	129.1835929926
4 harmonic	53.20531626545	116.5475862634
5 harmonic	201.41175231035	127.4691416191
6 harmonic	48.776492647595	115.6030999533


Dihedral Coeffs

1 fourier 1	3.661930099076	2	180
2 fourier 1	1.532232714475	2	180
3 fourier 1	0.457973137376	1	0
4 fourier 1	0.02664938770063	3	0
5 fourier 1	0.1155372516788	3	0
6 fourier 1	2.779853741805	2	180
7 fourier 1	0.9974165607242	2	180
8 fourier 1	0.1040663847541	3	0
9 fourier 1	0.1911926717192	3	0
10 fourier 1	0.8283030590042	2	180


Improper Coeffs

1 0.3666666666666667	-1	2
2 3.5	-1	2


Atoms

1	4	1	-0.033151382	-1.6704312	4.6109713	-1.213185
2	4	2	0.18512408	-1.9944691	3.6511234	-0.25268442
3	4	2	-0.28174606	-3.2413863	3.6502866	0.23116576
4	4	3	0.228322	-3.9681043	4.3598072	-0.14475106
5	4	2	-0.15200065	-3.6357938	2.7334421	1.3149296
6	4	3	0.21358739	-4.6513355	2.8035504	1.6722206
7	4	2	-0.24138378	-2.7467021	1.8681291	1.843088
8	4	4	0.0067141097	-3.084797	0.92128273	3.0105822
9	4	2	-0.24138376	-2.5087398	-0.47669708	2.7134937
10	4	2	-0.15220656	-1.8649698	-1.2219945	3.6371044
11	4	3	0.21358739	-1.6995512	-0.87101463	4.6450051
12	4	2	-0.24983139	-1.3472713	-2.5608213	3.3003653
13	4	3	0.22834414	-0.81683508	-3.1238683	4.0570352
14	4	2	0.37044397	-1.5266156	-3.0750779	2.0754535
15	4	1	-0.43019286	-1.0230918	-4.3404936	1.7708375
16	4	2	-0.26224062	-2.2654242	-2.2957269	1.0455317
17	4	4	-0.075231457	-2.4764268	-2.8676863	-0.34756781
18	4	4	-0.13183479	-1.7615791	-2.0197561	-1.4070437
19	4	5	0.084325506	-0.68175325	-1.9377259	-1.1602359
20	4	5	0.084325506	-1.8540395	-2.4994261	-2.4041289
21	4	5	0.084325506	-2.1965895	-0.99903917	-1.4656005
22	4	4	-0.13183479	-3.9685749	-3.0171332	-0.67274287
23	4	5	0.084325506	-4.4711686	-3.6209289	0.11333109
24	4	5	0.084325506	-4.0949337	-3.541307	-1.6440344
25	4	5	0.084325506	-4.4683392	-2.0281148	-0.7406338
26	4	5	0.1026594	-2.0370737	-3.8860265	-0.40338106
27	4	2	-0.20218718	-2.7359319	-1.0733561	1.3664901
28	4	3	0.20357963	-3.2829863	-0.49841127	0.63049082
29	4	4	-0.13053972	-2.495081	1.5651398	4.2885951
30	4	5	0.087621576	-2.8488926	2.6139526	4.3914305
31	4	5	0.087621576	-1.3845352	1.5802015	4.2478121
32	4	5	0.087621576	-2.815611	1.021327	5.2021871
33	4	4	-0.13053972	-4.6059631	0.73637307	3.2269802
34	4	5	0.087621576	-4.7958719	-0.04569122	3.994441
35	4	5	0.087621576	-5.103949	0.419725	2.2851574
36	4	5	0.087621576	-5.0813025	1.6729269	3.5897038
37	4	2	-0.20249052	-1.3543556	1.8810848	1.3103558
38	4	3	0.2035796	-0.63018937	1.2188857	1.7637527
39	4	2	-0.22282048	-0.99716661	2.6620176	0.26957827
40	4	4	-0.077436635	0.40934022	2.5657895	-0.31243263
41	4	4	-0.13183478	0.85428698	1.1127413	-0.54990119
42	4	5	0.084325506	0.07164124	0.56178158	-1.114703
43	4	5	0.084325506	1.7875138	1.0981165	-1.1514049
44	4	5	0.084325506	1.0567403	0.58184464	0.40347301
45	4	4	-0.13183478	1.4093497	3.3084478	0.57840388
46	4	5	0.084325506	2.4219084	3.2825226	0.12047508
47	4	5	0.084325506	1.459429	2.8426087	1.5855151
48	4	5	0.084325506	1.1041502	4.370896	0.68808996
49	4	5	0.1026594	0.43246647	3.0337284	-1.3153565
50	5	2	0.62926143	-0.49843683	-4.9136417	2.4750714
51	5	6	-0.48817748	-0.85497029	-6.0541161	2.7201182
52	1	1	-0.033151382	-0.72796452	4.8002694	-1.5230055
53	1	2	0.18512408	0.14331307	3.8192636	-1.9997729
54	1	2	-0.28174606	1.276626	4.2239991	-2.5850429
55	1	3	0.228322	1.5041675	5.2814562	-2.6490063
56	1	2	-0.15200065	2.2012661	3.2574607	-3.1997999
57	1	3	0.21358739	3.0855459	3.6564285	-3.6743258
58	1	2	-0.24138378	1.9296956	1.9364568	-3.1848931
59	1	4	0.0067141097	2.8325237	0.88208016	-3.854529
60	1	2	-0.24138376	2.9913754	-0.32402163	-2.9095763
61	1	2	-0.11358007	2.9192757	-1.6056029	-3.3291108
62	1	3	0.21358739	2.7269077	-1.8622521	-4.3595159
63	1	2	-0.39616779	3.0942543	-2.7204775	-2.3818072
64	1	3	0.2337344	3.0088091	-3.7373912	-2.7458892
65	1	2	0.3486312	3.3523842	-2.4854785	-1.0874331
66	1	7	-0.63918364	3.5057827	-3.5531788	-0.20204785
67	1	8	0.43856874	3.4280462	-4.5172498	-0.50530032
68	1	2	-0.3559129	3.4760366	-1.0848253	-0.59983099
69	1	4	-0.063184263	3.7695978	-0.80317447	0.86583596
70	1	4	-0.13183479	2.6047319	-0.057347729	1.5286753
71	1	5	0.084325506	1.6648351	-0.63693846	1.4053884
72	1	5	0.084325506	2.7981972	0.061359439	2.6162362
73	1	5	0.084325506	2.466347	0.95023522	1.0832247
74	1	4	-0.13183479	5.0877868	-0.0370029	1.037626
75	1	5	0.084325506	5.9143595	-0.58493756	0.53751478
76	1	5	0.084325506	5.3346973	0.05480145	2.1168294
77	1	5	0.084325506	5.0202991	0.98350734	0.6054972
78	1	5	0.1026594	3.8874267	-1.7625479	1.4131604
79	1	2	-0.16440821	3.3157837	-0.073051793	-1.4756131
80	1	3	0.20357963	3.4109361	0.95058194	-1.1377344
81	1	4	-0.13053972	2.163541	0.51897175	-5.2012659
82	1	5	0.087621576	1.9614509	1.4380895	-5.7939834
83	1	5	0.087621576	1.1948187	-0.0012872463	-5.0352038
84	1	5	0.087621576	2.8211147	-0.12915017	-5.8191007
85	1	4	-0.13053972	4.2592947	1.4017951	-4.1530305
86	1	5	0.087621576	4.9034914	0.57333784	-4.5210769
87	1	5	0.087621576	4.7282935	1.8195885	-3.236612
88	1	5	0.087621576	4.2499459	2.1830539	-4.9430693
89	1	2	-0.20249052	0.66024507	1.4904492	-2.5440518
90	1	3	0.2035796	0.41951806	0.43617335	-2.57094
91	1	2	-0.22282048	-0.16146088	2.3552534	-1.91275
92	1	4	-0.077436635	-1.3958978	1.8409861	-1.1789751
93	1	4	-0.13183478	-1.0895479	0.63174328	-0.27918207
94	1	5	0.084325506	-0.21361261	0.85005766	0.36805837
95	1	5	0.084325506	-1.9602181	0.42191944	0.37887676
96	1	5	0.084325506	-0.88468023	-0.28346834	-0.87206987
97	1	4	-0.13183478	-2.5136274	1.5169982	-2.1725933
98	1	5	0.084325506	-3.4286372	1.1963285	-1.6297222
99	1	5	0.084325506	-2.2033224	0.70281486	-2.862858
100	1	5	0.084325506	-2.7632189	2.4189131	-2.7723597
101	1	5	0.1026594	-1.7707203	2.618955	-0.48606339
102	2	2	0.46857872	0.36049998	-4.4926497	2.9863749
103	2	6	-0.56069648	0.770322	-3.3864887	2.6787668
104	2	9	-0.077595057	1.1593635	-5.4027552	4.2544452
105	4	1	-0.033151382	-1.6620423	2.7549677	10.052649
106	4	2	0.18512408	-1.815212	2.7907135	11.43978
107	4	2	-0.28174606	-2.9239726	3.3560122	11.929679
108	4	3	0.228322	-3.6788709	3.7403028	11.254919
109	4	2	-0.15200065	-3.1164925	3.5194271	13.381208
110	4	3	0.21358739	-4.0240269	4.0049069	13.704608
111	4	2	-0.24138378	-2.1778085	3.0976529	14.252518
112	4	4	0.0067141097	-2.2985942	3.2861229	15.776906
113	4	2	-0.24138376	-1.872788	1.9851917	16.48452
114	4	2	-0.15220656	-1.0803095	1.9640143	17.57745
115	4	3	0.21358739	-0.68030437	2.8668858	18.014751
116	4	2	-0.24983139	-0.71709241	0.68904378	18.222729
117	4	3	0.22834414	-0.062514864	0.70476667	19.084248
118	4	2	0.37044397	-1.1864972	-0.47441772	17.750448
119	4	1	-0.43019286	-0.82635142	-1.6728812	18.368173
120	4	2	-0.26224062	-2.0931935	-0.48344395	16.570708
121	4	4	-0.075231457	-2.6332544	-1.7961853	16.025336
122	4	4	-0.13183479	-2.1266546	-2.0526619	14.600535
123	4	5	0.084325506	-1.0162648	-2.0315879	14.58449
124	4	5	0.084325506	-2.4596691	-3.0531024	14.25264
125	4	5	0.084325506	-2.5120461	-1.2875213	13.893033
126	4	4	-0.13183479	-4.1659673	-1.8400504	16.084041
127	4	5	0.084325506	-4.5134929	-1.6371091	17.119957
128	4	5	0.084325506	-4.528586	-2.848004	15.789645
129	4	5	0.084325506	-4.6180919	-1.0914076	15.400193
130	4	5	0.1026594	-2.2686117	-2.6382939	16.650678
131	4	2	-0.20218718	-2.4197478	0.68940842	15.990741
132	4	3	0.20357963	-3.0853825	0.69932621	15.137303
133	4	4	-0.13053972	-1.4111862	4.4995644	16.145282
134	4	5	0.087621576	-1.6806326	5.3790037	15.520981
135	4	5	0.087621576	-0.33734563	4.2717113	15.97164
136	4	5	0.087621576	-1.5503226	4.7971803	17.206031
137	4	4	-0.13053972	-3.7425091	3.5911934	16.242747
138	4	5	0.087621576	-3.7984223	3.5959543	17.353394
139	4	5	0.087621576	-4.4503164	2.8207005	15.867733
140	4	5	0.087621576	-4.0789705	4.5910911	15.893967
141	4	2	-0.20249052	-0.93747088	2.4800687	13.702289
142	4	3	0.2035796	-0.16567667	2.1824783	14.398181
143	4	2	-0.22282048	-0.77861102	2.2567745	12.381092
144	4	4	-0.077436635	0.4592212	1.5256932	11.871632
145	4	4	-0.13183478	0.76759956	0.25123874	12.675613
146	4	5	0.084325506	-0.14659497	-0.37451495	12.763776
147	4	5	0.084325506	1.5441262	-0.34553092	12.152349
148	4	5	0.084325506	1.1473992	0.48581442	13.691727
149	4	4	-0.13183478	1.6663851	2.4677322	11.850001
150	4	5	0.084325506	2.5511477	1.9456081	11.425469
151	4	5	0.084325506	1.9127856	2.8138381	12.876298
152	4	5	0.084325506	1.4464915	3.3522583	11.214994
153	4	5	0.1026594	0.28517124	1.1700298	10.837916
154	5	2	0.62926143	-0.18942199	-1.6988919	19.20085
155	5	6	-0.48817748	-0.5403443	-2.2716701	20.218998
156	1	1	-0.033151382	-0.80225122	2.4992579	9.5884962
157	1	2	0.18512408	-0.1072791	1.3151526	9.840909
158	1	2	-0.28174606	0.88883639	0.98826633	9.0092544
159	1	3	0.228322	1.1496464	1.6499909	8.1918312
160	1	2	-0.15200065	1.606245	-0.28962554	9.1485358
161	1	3	0.21358739	2.3837349	-0.49797324	8.4285347
162	1	2	-0.24138378	1.2785245	-1.1629059	10.122705
163	1	4	0.0067141097	1.9582227	-2.536171	10.288156
164	1	2	-0.24138376	2.2597561	-2.7769392	11.77945
165	1	2	-0.11358007	2.0330244	-3.9558006	12.397946
166	1	3	0.21358739	1.6065639	-4.8021071	11.881704
167	1	2	-0.39616779	2.3553718	-4.1334621	13.824647
168	1	3	0.2337344	2.1411089	-5.0847336	14.297028
169	1	2	0.3486312	2.9027481	-3.1353345	14.532729
170	1	7	-0.63918364	3.1928518	-3.317646	15.885513
171	1	8	0.43856874	3.0021052	-4.1915871	16.362253
172	1	2	-0.3559129	3.2006315	-1.8356633	13.871673
173	1	4	-0.063184263	3.8224661	-0.69468049	14.662347
174	1	4	-0.13183479	2.8704584	0.50530825	14.741305
175	1	5	0.084325506	1.8985056	0.18957441	15.177368
176	1	5	0.084325506	3.3035984	1.2926689	15.394575
177	1	5	0.084325506	2.6885091	0.94158664	13.736638
178	1	4	-0.13183479	5.1830209	-0.28567861	14.082898
179	1	5	0.084325506	5.851079	-1.1706712	14.019239
180	1	5	0.084325506	5.6650477	0.46681113	14.742809
181	1	5	0.084325506	5.073722	0.15535947	13.069848
182	1	5	0.1026594	4.0091673	-1.0236138	15.706756
183	1	2	-0.16440821	2.9031461	-1.6850993	12.565842
184	1	3	0.20357963	3.121454	-0.74874459	12.06923
185	1	4	-0.13053972	0.99261139	-3.5826295	9.6835029
186	1	5	0.087621576	0.71182712	-3.2970855	8.6459303
187	1	5	0.087621576	0.059055531	-3.6540045	10.283543
188	1	5	0.087621576	1.4651384	-4.5865666	9.6286071
189	1	4	-0.13053972	3.3089749	-2.6422323	9.540425
190	1	5	0.087621576	3.8142231	-3.601291	9.7888595
191	1	5	0.087621576	3.9880476	-1.8119379	9.8299167
192	1	5	0.087621576	3.1657507	-2.6251117	8.4386956
193	1	2	-0.20249052	0.15988794	-0.80157927	11.038783
194	1	3	0.2035796	-0.13354747	-1.5203723	11.792044
195	1	2	-0.22282048	-0.4587115	0.39603177	10.970289
196	1	4	-0.077436635	-1.526269	0.76564061	11.995199
197	1	4	-0.13183478	-1.0910928	0.46392666	13.439268
198	1	5	0.084325506	-0.084630578	0.89263784	13.631842
199	1	5	0.084325506	-1.805538	0.92845125	14.152654
200	1	5	0.084325506	-1.0675982	-0.62615655	13.644854
201	1	4	-0.13183478	-2.8496447	0.072323316	11.664211
202	1	5	0.084325506	-3.6381414	0.3884272	12.380544
203	1	5	0.084325506	-2.7397124	-1.0325282	11.717757
204	1	5	0.084325506	-3.1791223	0.34990997	10.639587
205	1	5	0.1026594	-1.7003016	1.8589061	11.976838
206	2	2	0.46857872	0.78083206	-1.2160081	19.157627
207	2	6	-0.56069648	1.1682205	-0.7202005	18.113465
208	2	9	-0.077595057	1.7917337	-1.1488684	20.588727
209	4	1	-0.033151382	2.4876762	-4.3263495	28.681024
210	4	2	0.18512408	1.9988909	-3.6426228	27.56636
211	4	2	-0.28174606	1.6935856	-4.3603764	26.479837
212	4	3	0.228322	1.801188	-5.4378887	26.495355
213	4	2	-0.15200065	1.263557	-3.7054724	25.232086
214	4	3	0.21358739	1.0558192	-4.3448073	24.38829
215	4	2	-0.24138378	1.1635868	-2.3628347	25.15771
216	4	4	0.0067141097	0.768844	-1.6180648	23.867995
217	4	2	-0.24138376	-0.24388647	-0.50883013	24.212126
218	4	2	-0.15220656	-0.17781256	0.73752423	23.697151
219	4	3	0.21358739	0.60725223	1.0382408	23.019171
220	4	2	-0.24983139	-1.1842436	1.7553785	24.050607
221	4	3	0.22834414	-1.0907216	2.7512587	23.637799
222	4	2	0.37044397	-2.1997799	1.4561378	24.872905
223	4	1	-0.43019286	-3.1392727	2.4336573	25.203681
224	4	2	-0.26224062	-2.3235927	0.080977364	25.427494
225	4	4	-0.075231457	-3.4711086	-0.27187618	26.360815
226	4	4	-0.13183479	-2.9538946	-0.64598823	27.755451
227	4	5	0.084325506	-2.3366961	0.18190554	28.164505
228	4	5	0.084325506	-3.8074935	-0.81566402	28.444937
229	4	5	0.084325506	-2.3393743	-1.5710495	27.721503
230	4	4	-0.13183479	-4.3460837	-1.3890641	25.776958
231	4	5	0.084325506	-4.6980658	-1.1059781	24.76155
232	4	5	0.084325506	-5.2382138	-1.5478207	26.419634
233	4	5	0.084325506	-3.7877012	-2.3462655	25.709835
234	4	5	0.1026594	-4.1313294	0.61147153	26.491077
235	4	2	-0.20218718	-1.3979802	-0.84164096	25.09493
236	4	3	0.20357963	-1.4798731	-1.8485401	25.483482
237	4	4	-0.13053972	2.0803357	-1.0763726	23.249777
238	4	5	0.087621576	2.8205504	-1.8975031	23.133189
239	4	5	0.087621576	2.5322436	-0.29701988	23.900615
240	4	5	0.087621576	1.9065497	-0.64762519	22.240274
241	4	4	-0.13053972	0.087367481	-2.529898	22.819607
242	4	5	0.087621576	-0.2868952	-1.9249435	21.964831
243	4	5	0.087621576	-0.77859684	-3.0658983	23.264687
244	4	5	0.087621576	0.79969717	-3.2754703	22.405654
245	4	2	-0.20249052	1.5174065	-1.5654235	26.366654
246	4	3	0.2035796	1.4801861	-0.48755987	26.293732
247	4	2	-0.22282048	1.841619	-2.1526125	27.537446
248	4	4	-0.077436635	2.0923821	-1.3007909	28.777517
249	4	4	-0.13183478	1.0072115	-0.23202688	28.991681
250	4	5	0.084325506	-0.0011743275	-0.69565085	28.934211
251	4	5	0.084325506	1.1200863	0.22292834	29.998263
252	4	5	0.084325506	1.0763894	0.58281089	28.241338
253	4	4	-0.13183478	3.4849284	-0.66636541	28.718619
254	4	5	0.084325506	3.6834232	-0.092908276	29.649958
255	4	5	0.084325506	3.5667524	0.021173931	27.850068
256	4	5	0.084325506	4.2590663	-1.4575733	28.625481
257	4	5	0.1026594	2.0442052	-1.9349799	29.68352
258	5	2	0.62926143	-3.0788841	3.4112361	24.828981
259	5	6	-0.48817748	-4.0349884	3.9034768	24.253299
260	1	1	-0.033151382	2.8939566	-3.8712848	29.485958
261	1	2	0.18512408	2.2597926	-2.8569843	30.205565
262	1	2	-0.28174606	2.7985771	-2.4926812	31.375071
263	1	3	0.228322	3.7131485	-2.9615744	31.718263
264	1	2	-0.15200065	2.1384036	-1.5005722	32.239347
265	1	3	0.21358739	2.6178132	-1.2710267	33.179441
266	1	2	-0.24138378	0.97304683	-0.93035719	31.870806
267	1	4	0.0067141097	0.20970799	0.07570773	32.754191
268	1	2	-0.24138376	-0.28447558	1.2447871	31.881329
269	1	2	-0.11358007	-1.5236735	1.7714316	31.984732
270	1	3	0.21358739	-2.2538703	1.3883142	32.680895
271	1	2	-0.39616779	-1.937001	2.9005168	31.133102
272	1	3	0.2337344	-2.9453846	3.2861122	31.225018
273	1	2	0.3486312	-1.0830798	3.4440572	30.254101
274	1	7	-0.63918364	-1.4941875	4.5068075	29.448512
275	1	8	0.43856874	-2.4307242	4.8906665	29.503185
276	1	2	-0.3559129	0.30229095	2.9119963	30.142145
277	1	4	-0.063184263	1.2822199	3.5194266	29.149949
278	1	4	-0.13183479	1.6871179	2.4989381	28.078881
279	1	5	0.084325506	0.78167756	2.1059052	27.56875
280	1	5	0.084325506	2.3317717	2.9840514	27.315078
281	1	5	0.084325506	2.2461812	1.6489599	28.523612
282	1	4	-0.13183479	2.5141353	4.0971246	29.859035
283	1	5	0.084325506	2.1989584	4.8207069	30.640481
284	1	5	0.084325506	3.1556078	4.6332294	29.127477
285	1	5	0.084325506	3.1185276	3.2960619	30.334156
286	1	5	0.1026594	0.79737074	4.3654927	28.61803
287	1	2	-0.16440821	0.66984893	1.8801579	30.927366
288	1	3	0.20357963	1.6763057	1.4877513	30.863304
289	1	4	-0.13053972	-0.93885138	-0.7112105	33.428473
290	1	5	0.087621576	-0.54061489	-1.6123119	33.94457
291	1	5	0.087621576	-1.6835891	-1.0492636	32.674978
292	1	5	0.087621576	-1.4548716	-0.096950559	34.196974
293	1	4	-0.13053972	1.0854801	0.69513891	33.869632
294	1	5	0.087621576	0.52713783	1.4985889	34.39832
295	1	5	0.087621576	2.0096885	1.1422356	33.445041
296	1	5	0.087621576	1.3672703	-0.06210928	34.63238
297	1	2	-0.20249052	0.3690726	-1.3482558	30.57401
298	1	3	0.2035796	-0.58761624	-0.92527996	30.298314
299	1	2	-0.22282048	0.99716215	-2.200986	29.737359
300	1	4	-0.077436635	0.39297864	-2.5188896	28.37331
301	1	4	-0.13183478	-0.06247474	-1.258449	27.618593
302	1	5	0.084325506	0.75303787	-0.50433997	27.608459
303	1	5	0.084325506	-0.30524704	-1.5173307	26.565419
304	1	5	0.084325506	-0.96849616	-0.80838679	28.074299
305	1	4	-0.13183478	-0.75651977	-3.5187718	28.516328
306	1	5	0.084325506	-1.1562447	-3.7896736	27.515521
307	1	5	0.084325506	-1.5801062	-3.0876488	29.125825
308	1	5	0.084325506	-0.39469671	-4.4470122	29.009197
309	1	5	0.1026594	1.162076	-2.9748244	27.720266
310	2	2	0.46857872	-2.1664619	3.9845947	24.952203
311	2	6	-0.56069648	-1.2429602	3.5268919	25.603219
312	2	9	-0.077595057	-2.0199694	5.5690871	24.215724
313	4	1	-0.033151382	-3.4066908	1.9066698	45.049531
314	4	2	0.18512408	-2.5302377	2.4277442	44.096021
315	4	2	-0.28174606	-2.1107451	3.6873887	44.257995
316	4	3	0.228322	-2.4288195	4.2566393	45.122654
317	4	2	-0.15200065	-1.2624322	4.3422141	43.246919
318	4	3	0.21358739	-0.98062415	5.367096	43.431576
319	4	2	-0.24138378	-0.88468402	3.6829986	42.132943
320	4	4	0.0067141097	-0.041646685	4.3294966	41.017059
321	4	2	-0.24138376	1.0509693	3.3399031	40.568343
322	4	2	-0.15220656	1.3623848	3.120765	39.272981
323	4	3	0.21358739	0.8466452	3.6194953	38.465704
324	4	2	-0.24983139	2.4287049	2.1723965	38.902278
325	4	3	0.22834414	2.6392557	2.0029588	37.854474
326	4	2	0.37044397	3.1271919	1.5257695	39.846217
327	4	1	-0.43019286	4.1277718	0.62529813	39.477985
328	4	2	-0.26224062	2.835258	1.7733153	41.284084
329	4	4	-0.075231457	3.6205832	1.0469489	42.364844
330	4	4	-0.13183479	2.708218	0.12970186	43.188695
331	4	5	0.084325506	2.1839298	-0.58360718	42.51789
332	4	5	0.084325506	3.3118637	-0.4557126	43.913755
333	4	5	0.084325506	1.9519258	0.71646911	43.752833
334	4	4	-0.13183479	4.3759547	2.0316126	43.267302
335	4	5	0.084325506	5.0190231	2.6965235	42.651316
336	4	5	0.084325506	5.0299724	1.4754873	43.972368
337	4	5	0.084325506	3.674842	2.6570251	43.858767
338	4	5	0.1026594	4.387932	0.39614864	41.894953
339	4	2	-0.20218718	1.8590954	2.6446836	41.610283
340	4	3	0.20357963	1.6414078	2.8416527	42.65208
341	4	4	-0.13053972	-1.0239498	4.7091994	39.882801
342	4	5	0.087621576	-1.8583022	5.3245003	40.284083
343	4	5	0.087621576	-1.4614806	3.7997664	39.41729
344	4	5	0.087621576	-0.52261508	5.3119465	39.096365
345	4	4	-0.13053972	0.68673931	5.6177848	41.469534
346	4	5	0.087621576	1.3741927	5.9747514	40.671618
347	4	5	0.087621576	1.2910171	5.430437	42.383336
348	4	5	0.087621576	-0.032023818	6.44009	41.674088
349	4	2	-0.20249052	-1.3650629	2.2836449	41.949517
350	4	3	0.2035796	-1.0993085	1.7703482	41.036065
351	4	2	-0.22282048	-2.0804982	1.6458941	42.899298
352	4	4	-0.077436635	-2.4602322	0.18005673	42.716594
353	4	4	-0.13183478	-1.2744452	-0.6868923	42.260494
354	4	5	0.084325506	-0.39536723	-0.50576458	42.915862
355	4	5	0.084325506	-1.5432837	-1.7616959	42.334359
356	4	5	0.084325506	-0.9921589	-0.47933516	41.207406
357	4	4	-0.13183478	-3.6408216	0.049297095	41.750022
358	4	5	0.084325506	-3.9487049	-1.0153803	41.664488
359	4	5	0.084325506	-3.3660672	0.4250631	40.74151
360	4	5	0.084325506	-4.5073	0.63282609	42.127756
361	4	5	0.1026594	-2.7657348	-0.25168864	43.689025
362	5	2	0.62926143	4.3566131	0.42979514	38.473437
363	5	6	-0.48817748	5.5037877	0.54671236	38.075735
364	1	1	-0.033151382	-3.9033108	1.03417	44.939174
365	1	2	0.18512408	-3.2820797	-0.17871496	44.636212
366	1	2	-0.28174606	-4.0132553	-1.2950175	44.736216
367	1	3	0.228322	-5.0583868	-1.233386	45.015472
368	1	2	-0.15200065	-3.4078694	-2.6207391	44.528726
369	1	3	0.21358739	-4.0519893	-3.4793948	44.647557
370	1	2	-0.24138378	-2.0986918	-2.7426763	44.228377
371	1	4	0.0067141097	-1.3975225	-4.1033748	44.049262
372	1	2	-0.24138376	-0.4807712	-4.0431581	42.812819
373	1	2	-0.11358007	0.77195511	-4.5472216	42.796855
374	1	3	0.21358739	1.2149082	-5.0115072	43.664518
375	1	2	-0.39616779	1.5988706	-4.4746668	41.579524
376	1	3	0.2337344	2.6078624	-4.8686461	41.605714
377	1	2	0.3486312	1.1158764	-3.927692	40.454893
378	1	7	-0.63918364	1.916125	-3.8585046	39.313737
379	1	8	0.43856874	2.8659611	-4.212219	39.302094
380	1	2	-0.3559129	-0.2743624	-3.3972478	40.42769
381	1	4	-0.063184263	-0.83596676	-2.7748125	39.158494
382	1	4	-0.13183479	-1.1532714	-1.2886443	39.366214
383	1	5	0.084325506	-0.24483058	-0.75266014	39.715481
384	1	5	0.084325506	-1.478144	-0.83100142	38.407397
385	1	5	0.084325506	-1.9617612	-1.1504139	40.11457
386	1	4	-0.13183479	-2.0672576	-3.5394177	38.655051
387	1	5	0.084325506	-1.8211426	-4.6148318	38.526685
388	1	5	0.084325506	-2.3871267	-3.1362386	37.67057
389	1	5	0.084325506	-2.9166805	-3.447576	39.364118
390	1	5	0.1026594	-0.076830305	-2.8293532	38.349431
391	1	2	-0.16440821	-1.0221482	-3.4705264	41.546532
392	1	3	0.20357963	-2.0376118	-3.0965855	41.539902
393	1	4	-0.13053972	-0.63198392	-4.3822514	45.364277
394	1	5	0.087621576	-1.315891	-4.2949448	46.236963
395	1	5	0.087621576	0.19571142	-3.6527352	45.503545
396	1	5	0.087621576	-0.21374954	-5.4113413	45.379737
397	1	4	-0.13053972	-2.3844424	-5.2716096	43.81241
398	1	5	0.087621576	-1.8289303	-6.2038552	43.569278
399	1	5	0.087621576	-3.0665639	-5.0479372	42.964463
400	1	5	0.087621576	-2.9912287	-5.4808933	44.719397
401	1	2	-0.20249052	-1.2844724	-1.498225	44.130946
402	1	3	0.2035796	-0.22531121	-1.5970261	43.934513
403	1	2	-0.22282048	-1.8388941	-0.27308914	44.246219
404	1	4	-0.077436635	-0.98798742	0.97498005	44.034058
405	1	4	-0.13183478	-0.11947323	0.89179806	42.767365
406	1	5	0.084325506	-0.74160598	0.5922527	41.897269
407	1	5	0.084325506	0.32276528	1.887511	42.548015
408	1	5	0.084325506	0.7143027	0.16915203	42.88441
409	1	4	-0.13183478	-0.13080087	1.2555484	45.270212
410	1	5	0.084325506	0.44479273	2.1960535	45.132651
411	1	5	0.084325506	0.5826788	0.42277961	45.452124
412	1	5	0.084325506	-0.77972802	1.3726896	46.164996
413	1	5	0.1026594	-1.6438168	1.8514231	43.867957
414	2	2	0.46857872	3.5737015	0.12457187	37.787634
415	2	6	-0.56069648	2.4454214	-0.077626944	38.202686
416	2	9	-0.077595057	3.9307857	-0.078250277	36.082984
417	4	1	-0.033151382	-4.5326471	-0.76931587	57.884967
418	4	2	0.18512408	-3.7306875	-1.4429912	56.961987
419	4	2	-0.28174606	-4.3371205	-2.2350287	56.071015
420	4	3	0.228322	-5.4172099	-2.3138291	56.063988
421	4	2	-0.15200065	-3.5571311	-3.0537987	55.126591
422	4	3	0.21358739	-4.1115387	-3.686922	54.451547
423	4	2	-0.24138378	-2.2091723	-3.020323	55.136007
424	4	4	0.0067141097	-1.3388233	-3.89026	54.208877
425	4	2	-0.24138376	-0.19513673	-3.0323701	53.634023
426	4	2	-0.15220656	1.0811428	-3.4644537	53.54812
427	4	3	0.21358739	1.381688	-4.4415127	53.896606
428	4	2	-0.24983139	2.1327799	-2.604943	52.974393
429	4	3	0.22834414	3.1499412	-2.9725242	52.939737
430	4	2	0.37044397	1.8376456	-1.3847299	52.504278
431	4	1	-0.43019286	2.846485	-0.58076382	51.971844
432	4	2	-0.26224062	0.43397564	-0.89309841	52.54871
433	4	4	-0.075231457	0.08551026	0.48874814	52.018184
434	4	4	-0.13183479	-0.43282598	1.3968362	53.140318
435	4	5	0.084325506	0.31636556	1.4522021	53.958434
436	4	5	0.084325506	-0.59936276	2.4237696	52.752395
437	4	5	0.084325506	-1.391398	1.0170394	53.554348
438	4	4	-0.13183479	-0.92009722	0.40876875	50.861925
439	4	5	0.084325506	-0.53371505	-0.2648363	50.066911
440	4	5	0.084325506	-1.0694428	1.4161898	50.418156
441	4	5	0.084325506	-1.9042093	0.02881822	51.20789
442	4	5	0.1026594	0.99796524	0.97311243	51.610777
443	4	2	-0.20218718	-0.51918744	-1.6895287	53.07384
444	4	3	0.20357963	-1.546149	-1.3490639	53.104801
445	4	4	-0.13053972	-0.83876553	-5.0823226	55.060089
446	4	5	0.087621576	-1.6958113	-5.5945833	55.548789
447	4	5	0.087621576	-0.14607956	-4.7362522	55.857349
448	4	5	0.087621576	-0.31996225	-5.8387853	54.434206
449	4	4	-0.13053972	-2.1160522	-4.4604235	52.998176
450	4	5	0.087621576	-1.4209099	-4.9746252	52.298848
451	4	5	0.087621576	-2.6265354	-3.6478175	52.437494
452	4	5	0.087621576	-2.8723005	-5.2093418	53.31733
453	4	2	-0.20249052	-1.5365662	-2.1464329	56.13926
454	4	3	0.2035796	-0.45626549	-2.1532351	56.176638
455	4	2	-0.22282048	-2.2359481	-1.3359714	56.960646
456	4	4	-0.077436635	-1.5047946	-0.38005739	57.89761
457	4	4	-0.13183478	-0.38609776	0.40330731	57.190097
458	4	5	0.084325506	-0.77484562	0.86372042	56.256294
459	4	5	0.084325506	-0.021705652	1.2185319	57.850067
460	4	5	0.084325506	0.47963787	-0.2456247	56.942811
461	4	4	-0.13183478	-0.96268239	-1.1340265	59.115311
462	4	5	0.084325506	-0.48017167	-0.42360632	59.821096
463	4	5	0.084325506	-0.214946	-1.8946481	58.805259
464	4	5	0.084325506	-1.7941232	-1.6429406	59.647933
465	4	5	0.1026594	-2.2047277	0.39678405	58.260886
466	5	2	0.62926143	3.8446237	-0.89919587	51.926819
467	5	6	-0.48817748	4.4444397	-0.87615912	50.864964
468	1	1	-0.033151382	-4.1717327	-0.27886665	58.690737
469	1	2	0.18512408	-3.1779189	0.6991158	58.622266
470	1	2	-0.28174606	-2.9453247	1.4285898	59.719771
471	1	3	0.228322	-3.5005395	1.2296033	60.628739
472	1	2	-0.15200065	-1.9834023	2.5427957	59.70154
473	1	3	0.21358739	-1.8624947	3.1029486	60.616914
474	1	2	-0.24138378	-1.3085445	2.854096	58.576069
475	1	4	0.0067141097	-0.32733968	4.0387769	58.481258
476	1	2	-0.24138376	0.93834501	3.5904349	57.726353
477	1	2	-0.11358007	1.537092	4.3413616	56.777001
478	1	3	0.21358739	1.1494565	5.3026154	56.476436
479	1	2	-0.39616779	2.7558714	3.8677041	56.097904
480	1	3	0.2337344	3.1997528	4.4839583	55.325136
481	1	2	0.3486312	3.3093612	2.6914155	56.425401
482	1	7	-0.63918364	4.4583377	2.2536647	55.765364
483	1	8	0.43856874	4.8986435	2.800685	55.03438
484	1	2	-0.3559129	2.6960914	1.8569162	57.494226
485	1	4	-0.063184263	3.313708	0.52059332	57.876947
486	1	4	-0.13183479	2.3572473	-0.6380969	57.56849
487	1	5	0.084325506	2.0679857	-0.6151068	56.495955
488	1	5	0.084325506	2.8574765	-1.6091169	57.771467
489	1	5	0.084325506	1.4387956	-0.57812504	58.189497
490	1	4	-0.13183479	3.7487822	0.50356052	59.348196
491	1	5	0.084325506	4.4270925	1.358524	59.554348
492	1	5	0.084325506	4.2973594	-0.43658852	59.570133
493	1	5	0.084325506	2.8735031	0.56749803	60.028291
494	1	5	0.1026594	4.2302552	0.34747013	57.273777
495	1	2	-0.16440821	1.5824122	2.3009938	58.109754
496	1	3	0.20357963	1.1296589	1.7092796	58.894566
497	1	4	-0.13053972	-1.0867117	5.185654	57.773365
498	1	5	0.087621576	-2.0509092	5.3885266	58.289212
499	1	5	0.087621576	-1.3126297	4.919196	56.717605
500	1	5	0.087621576	-0.50259753	6.1304726	57.791075
501	1	4	-0.13053972	0.14067122	4.5552263	59.86297
502	1	5	0.087621576	0.93496072	5.323804	59.739757
503	1	5	0.087621576	0.55718561	3.726807	60.474993
504	1	5	0.087621576	-0.69236028	5.0339599	60.42108
505	1	2	-0.20249052	-1.5798827	2.0481677	57.352158
506	1	3	0.2035796	-1.0729021	2.3251294	56.437591
507	1	2	-0.22282048	-2.4032423	0.97889283	57.371111
508	1	4	-0.077436635	-2.5697404	0.1190392	56.122247
509	1	4	-0.13183478	-1.2252436	-0.2456146	55.470249
510	1	5	0.084325506	-0.5292357	-0.65358731	56.233777
511	1	5	0.084325506	-1.3821819	-1.0264123	54.695098
512	1	5	0.084325506	-0.75321548	0.62987773	54.978516
513	1	4	-0.13183478	-3.4983657	0.80603188	55.118623
514	1	5	0.084325506	-3.6609017	0.15121673	54.235685
515	1	5	0.084325506	-3.0630094	1.7691855	54.774459
516	1	5	0.084325506	-4.4852501	1.0071361	55.588817
517	1	5	0.1026594	-3.0226298	-0.85373031	56.395129
518	2	2	0.46857872	4.3436952	-1.2498869	52.823692
519	2	6	-0.56069648	3.7743943	-1.1905249	53.900048
520	2	9	-0.077595057	5.9685735	-1.9015069	52.725515
521	4	1	-0.033151382	1.9116845	18.476407	-1.1657543
522	4	2	0.18512408	1.30935	17.904429	-0.043745279
523	4	2	-0.28174606	0.6776231	18.719743	0.80778157
524	4	3	0.228322	0.62141818	19.78107	0.59974906
525	4	2	-0.15200065	0.099745282	18.208424	2.0628972
526	4	3	0.21358739	-0.37491677	18.926459	2.7132963
527	4	2	-0.24138378	0.1911755	16.901334	2.3812642
528	4	4	0.0067141097	-0.3477978	16.316437	3.7008371
529	4	2	-0.24138376	-1.0855844	14.995947	3.4068506
530	4	2	-0.15220656	-0.94082444	13.885171	4.1606319
531	4	3	0.21358739	-0.27918808	13.851777	5.0135893
532	4	2	-0.24983139	-1.6844268	12.652852	3.8407781
533	4	3	0.22834414	-1.5296984	11.773157	4.4516218
534	4	2	0.37044397	-2.5381703	12.618041	2.8078487
535	4	1	-0.43019286	-3.227992	11.441044	2.5138604
536	4	2	-0.26224062	-2.7499206	13.836285	1.9801973
537	4	4	-0.075231457	-3.7159775	13.810533	0.80612024
538	4	4	-0.13183479	-2.9804854	14.04225	-0.51971562
539	4	5	0.084325506	-2.1729535	13.289321	-0.64078115
540	4	5	0.084325506	-3.686034	13.933988	-1.3701811
541	4	5	0.084325506	-2.5343171	15.059046	-0.55954568
542	4	4	-0.13183479	-4.8530459	14.823867	0.99269351
543	4	5	0.084325506	-5.3631675	14.649404	1.9645065
544	4	5	0.084325506	-5.6039784	14.705443	0.18262668
545	4	5	0.084325506	-4.4729363	15.866681	0.96849231
546	4	5	0.1026594	-4.1924037	12.809851	0.73672655
547	4	2	-0.20218718	-2.0655559	14.957794	2.2842477
548	4	3	0.20357963	-2.2158123	15.854301	1.696692
549	4	4	-0.13053972	0.8713994	16.138596	4.6376214
550	4	5	0.087621576	1.4373963	17.091783	4.7203682
551	4	5	0.087621576	1.56265	15.362223	4.244405
552	4	5	0.087621576	0.55672586	15.855497	5.6642456