Title

7375 atoms
7750 bonds
12625 angles
19625 dihedrals
9000 impropers

8 atom types
12 bond types
6 angle types
20 dihedral types
2 improper types
-8.583200455 91.41679955 xlo xhi
-7.813399792 92.18660021 ylo yhi
-8.633999825 91.36600018 zlo zhi
0.0 0.0 0.0 xy xz yz

Masses

1	15.99943
2	12.01078
3	1.007947
4	12.01078
5	15.99943
6	1.007947
7	15.99943
8	1.007947


Pair Coeffs

1	0.16846514	3.0251065
2	0.10884061	3.3795318
3	0.016409246	2.5832257
4	0.086879315	3.4806469
5	0.2102061	3.0398122
6	0.015611343	2.5725815
7	0.20947353	2.99716
8	1.2326e-05	0.53453923

Bond Coeffs

1 harmonic	366.7408841747	1.425895053732
2 harmonic	300.03137914615	1.451203938761
3 harmonic	264.62148576755	1.52190126495
4 harmonic	370.04670688625	1.093899492634
5 harmonic	301.15400723785	1.345741232799
6 harmonic	582.698766451	1.225198386222
7 harmonic	279.1350963404	1.454628925034
8 harmonic	360.7852444772	1.387193227181
9 harmonic	397.2545789619	1.085358495916
10 harmonic	329.96998057905	1.427343958716
11 harmonic	543.5267831885	0.9716763312559
12 harmonic	385.7604595587	1.369745182308


Angle Coeffs

1 harmonic	53.20531626545	116.5475862634
2 harmonic	65.09061609600001	110.3538806181
3 harmonic	201.41175231035	127.4691416191
4 harmonic	57.8982893754	126.8062420451
5 harmonic	48.776492647595	115.6030999533
6 harmonic	34.066775159195	129.1835929926


Dihedral Coeffs

1 fourier 1	-0.0309670556842	3	0
2 fourier 1	0.4598191477945	2	0
3 fourier 1	0.1115525666802	3	0
4 fourier 1	0.3432490222662	1	0
5 fourier 1	0.0473758381877	3	0
6 fourier 1	0.457973137376	1	0
7 fourier 1	0.1918272375143	3	0
8 fourier 1	0.9202179876409	1	180
9 fourier 1	1.163809172478	2	180
10 fourier 1	0.1679186987369	1	180
11 fourier 1	2.779853741805	2	180
12 fourier 1	0.9974165607242	2	180
13 fourier 1	0.1911926717192	3	0
14 fourier 1	3.661930099076	2	180
15 fourier 1	0.3445382149273	3	0
16 fourier 1	0.1364556373303	1	0
17 fourier 1	0.3026390167484	3	0
18 fourier 1	2.687457892086	2	180
19 fourier 1	2.772607909663	2	180
20 fourier 1	0.09692684957115	1	0


Improper Coeffs

1 3.5	-1	2
2 0.3666666666666667	-1	2


Atoms

1	4	1	-0.12907501	5.6820998	2.0425	-0.4237
2	4	2	0.053839002	5.6553998	0.68260002	-0.7608
3	4	2	0.158804	5.6374998	0.51239997	-2.2795999
4	4	1	-0.50022298	5.6795001	-0.847	-2.6166999
5	4	3	0.094411999	6.5272999	1.0137	-2.7146001
6	4	3	0.094411999	4.7270999	0.99059999	-2.7090001
7	4	3	0.102078	6.5658002	0.1972	-0.34869999
8	4	3	0.102078	4.7659998	0.18780001	-0.30680001
9	5	4	0.79458499	4.7273998	-1.225	-2.4456999
10	5	5	-0.54388398	4.3411002	-2.2244	-3.1087999
11	5	4	-0.268291	3.8492	-0.59729999	-1.4426
12	5	4	-0.080402002	4.2799001	0.4689	-0.745
13	5	6	0.22331899	5.27	0.87629998	-0.91049999
14	5	4	-0.22758099	3.4079001	1.1063	0.26370001
15	5	6	0.1927	3.7748001	1.9637001	0.81459999
16	5	4	-0.12873299	2.1770999	0.62199998	0.48930001
17	5	4	0.015873	1.2767	1.2309999	1.4874001
18	5	6	0.20278899	1.6212	2.0904	2.0522001
19	5	4	-0.330641	0.044399999	0.72490001	1.6954
20	5	4	0.58187002	-0.86549997	1.3247	2.6914999
21	5	5	-0.56496102	-0.52149999	2.3246	3.3769
22	5	4	-0.047529999	-0.43000001	-0.4544	0.92259997
23	5	6	0.20557299	-1.4247	-0.84350002	1.1059
24	5	4	-0.22186799	0.33520001	-1.0533	0.0031000001
25	5	6	0.1927	-0.051100001	-1.9101	-0.53689998
26	5	4	-0.15161	1.6937	-0.55220002	-0.2748
27	5	4	-0.023523999	2.4849	-1.1321	-1.1909
28	5	6	0.213506	2.1303	-1.9902	-1.7485
29	1	1	-0.123463	4.7612	2.3873	-0.5632
30	1	2	0.025830001	4.2161999	2.6003001	0.7101
31	1	2	0.097860001	4.7859998	3.8783	1.3252
32	1	7	-0.67479199	4.1904001	4.1273999	2.5692999
33	1	8	0.40068901	4.6065998	3.4969001	3.2142999
34	1	3	0.100443	4.5721998	4.7349	0.65140003
35	1	3	0.100443	5.8909001	3.7923	1.4342999
36	1	3	0.102781	3.1143	2.7021	0.6117
37	1	3	0.102781	4.4242001	1.7286	1.3721
38	2	4	0.58187002	-1.851	0.90210003	2.8408999
39	2	5	-0.56496203	-2.3687999	0.95529997	3.9885001
40	2	4	-0.330641	-2.5692	0.27590001	1.7165
41	2	4	-0.047529999	-2.0004001	0.22759999	0.4984
42	2	6	0.20557299	-1.0149	0.64579999	0.3301
43	2	4	-0.22186799	-2.7104001	-0.39809999	-0.63590002
44	2	6	0.1927	-2.2330999	-0.4251	-1.6078
45	2	4	-0.15161	-3.9317	-0.92309999	-0.45660001
46	2	4	-0.019121001	-4.6729002	-1.5562	-1.5644
47	2	6	0.213506	-4.2135	-1.594	-2.5458
48	2	4	-0.261195	-5.8992	-2.0778	-1.3623
49	2	4	0.83400297	-6.6336999	-2.7107	-2.4814999
50	2	5	-0.51627201	-7.7802	-3.1991	-2.2929001
51	2	7	-0.67145503	-6.0685	-2.7742	-3.7537
52	2	8	0.40876001	-6.5658998	-3.2058001	-4.5229001
53	2	4	-0.072910003	-6.5264001	-2.0237	-0.0105
54	2	6	0.22331899	-7.5121999	-2.4458001	0.1397
55	2	4	-0.22758099	-5.9078002	-1.4630001	1.0369
56	2	6	0.1927	-6.4025002	-1.4461	2.0014
57	2	4	-0.12873299	-4.5665998	-0.87519997	0.88120002
58	2	4	0.015873	-3.9219	-0.30720001	1.9126
59	2	6	0.20278899	-4.3882999	-0.27309999	2.8907001
60	4	1	-0.12907501	4.7939	3.6791999	17.0921
61	4	2	0.053839002	3.6264999	4.4503002	17.170799
62	4	2	0.158804	3.4026	4.9298	18.604601
63	4	1	-0.50022298	2.2730999	5.7564998	18.6696
64	4	3	0.094411999	4.2874999	5.5107999	18.9387
65	4	3	0.094411999	3.2843001	4.0570002	19.287399
66	4	3	0.102078	3.7379999	5.3313999	16.5033
67	4	3	0.102078	2.7481	3.8613	16.8195
68	5	4	0.79458499	1.4447	5.1318002	18.6248
69	5	5	-0.54388398	0.36660001	5.5114002	19.155199
70	5	4	-0.268291	1.5368	3.825	17.9501
71	5	4	-0.080402002	2.6966	3.4377999	17.3899
72	5	6	0.22331899	3.5706999	4.0767999	17.427299
73	5	4	-0.22758099	2.8004	2.1294999	16.7104
74	5	6	0.1927	3.7437999	1.8375	16.265499
75	5	4	-0.12873299	1.7334	1.3184	16.648899
76	5	4	0.015873	1.7975	0.0046000001	15.9799
77	5	6	0.20278899	2.7309999	-0.31040001	15.5265
78	5	4	-0.330641	0.71060002	-0.79180002	15.9316
79	5	4	0.58187002	0.76160002	-2.1080999	15.2649
80	5	5	-0.56496102	1.8181	-2.5283	14.7215
81	5	4	-0.047529999	-0.57130003	-0.36160001	16.552
82	5	6	0.20557299	-1.4317	-1.0186	16.501801
83	5	4	-0.22186799	-0.6972	0.8161	17.174101
84	5	6	0.1927	-1.6501	1.0891	17.612499
85	5	4	-0.15161	0.45140001	1.7363	17.263599
86	5	4	-0.023523999	0.35569999	2.9244001	17.880699
87	5	6	0.213506	-0.5819	3.2286	18.3295
88	1	1	-0.123463	4.5721002	2.7893	17.473499
89	1	2	0.025830001	4.5124998	1.8954999	16.3958
90	1	2	0.097860001	5.9215002	1.5341001	15.9264
91	1	7	-0.67479199	5.8629999	0.58829999	14.8937
92	1	8	0.40068901	5.5939999	1.0802	14.0736
93	1	3	0.100443	6.4886999	1.0977	16.7756
94	1	3	0.100443	6.4587998	2.448	15.5855
95	1	3	0.102781	3.9905	0.97310001	16.7286
96	1	3	0.102781	3.9288001	2.3382001	15.5563
97	2	4	0.58187002	-0.1234	-2.7312	15.2393
98	2	5	-0.56496203	-0.30770001	-3.4867001	14.2476
99	2	4	-0.330641	-1.0927	-2.6912	16.3487
100	2	4	-0.047529999	-0.87980002	-1.8778	17.398899
101	2	6	0.20557299	0.00069999998	-1.2474	17.441999
102	2	4	-0.22186799	-1.8447	-1.8286999	18.5163
103	2	6	0.1927	-1.6524	-1.1666	19.351801
104	2	4	-0.15161	-2.9428	-2.5985999	18.49
105	2	4	-0.019121001	-3.9298	-2.5780001	19.5868
106	2	6	0.213506	-3.7565999	-1.9225	20.432899
107	2	4	-0.261195	-5.0267	-3.3599	19.5401
108	2	4	0.83400297	-6.0103002	-3.3310001	20.646601
109	2	5	-0.51627201	-7.0365	-4.0616002	20.6031
110	2	7	-0.67145503	-5.8146	-2.4983001	21.7467
111	2	8	0.40876001	-6.4836998	-2.4741001	22.5063
112	2	4	-0.072910003	-5.2603002	-4.2593999	18.373899
113	2	6	0.22331899	-6.145	-4.8832002	18.347601
114	2	4	-0.22758099	-4.4038	-4.3260999	17.346201
115	2	6	0.1927	-4.6145	-4.9951	16.5196
116	2	4	-0.12873299	-3.1865001	-3.4974	17.3377
117	2	4	0.015873	-2.3104	-3.5425	16.3216
118	2	6	0.20278899	-2.4906001	-4.2009001	15.4794
119	4	1	-0.12907501	-3.9137001	-1.1141	39.357601
120	4	2	0.053839002	-4.4777002	-1.5228	38.141602
121	4	2	0.158804	-4.3083	-3.0306001	37.958
122	4	1	-0.50022298	-4.9316001	-3.4491	36.774899
123	4	3	0.094411999	-4.7790999	-3.5588	38.8134
124	4	3	0.094411999	-3.2261	-3.2962999	37.9412
125	4	3	0.102078	-5.5605001	-1.2747	38.151798
126	4	3	0.102078	-4.007	-0.97570002	37.2925
127	5	4	0.79458499	-4.3080001	-3.1657	35.994301
128	5	5	-0.54388398	-4.3399	-3.8238001	34.9202
129	5	4	-0.268291	-3.4042001	-2.0121	36.148201
130	5	4	-0.080402002	-3.385	-1.3224	37.3027
131	5	6	0.22331899	-4.0286002	-1.6041	38.1273
132	5	4	-0.22758099	-2.4828	-0.1636	37.468102
133	5	6	0.1927	-2.4835999	0.37810001	38.406101
134	5	4	-0.12873299	-1.6753	0.2075	36.462898
135	5	4	0.015873	-0.76029998	1.3583	36.589699
136	5	6	0.20278899	-0.7428	1.9171	37.5191
137	5	4	-0.330641	0.041000001	1.711	35.564301
138	5	4	0.58187002	0.96030003	2.8605001	35.678501
139	5	5	-0.56496102	1.0257	3.5467999	36.733398
140	5	4	-0.047529999	0.018100001	0.94660002	34.2882
141	5	6	0.20557299	0.6717	1.2476	33.477798
142	5	4	-0.22186799	-0.78670001	-0.1066	34.107601
143	5	6	0.1927	-0.7705	-0.63480002	33.161201
144	5	4	-0.15161	-1.6892999	-0.54659998	35.187302
145	5	4	-0.023523999	-2.5084	-1.599	35.035702
146	5	6	0.213506	-2.5176001	-2.1493001	34.102798
147	1	1	-0.123463	-2.9298	-1.0998	39.223202
148	1	2	0.025830001	-2.552	0.24879999	39.174
149	1	2	0.097860001	-2.5414	0.84939998	40.579498
150	1	7	-0.67479199	-2.0982001	2.1784999	40.537701
151	1	8	0.40068901	-2.8557	2.7191999	40.189999
152	1	3	0.100443	-1.8493	0.26449999	41.2215
153	1	3	0.100443	-3.559	0.7938	41.0284
154	1	3	0.102781	-1.5312999	0.31560001	38.740501
155	1	3	0.102781	-3.2444	0.82200003	38.515701
156	2	4	0.58187002	1.5954	3.1248	34.8423
157	2	5	-0.56496203	1.8937	4.3358998	34.6632
158	2	4	-0.330641	2.0985	2.0804	33.932301
159	2	4	-0.047529999	1.7689	0.79250002	34.138599
160	2	6	0.20557299	1.1348	0.50940001	34.970699
161	2	4	-0.22186799	2.2665999	-0.26269999	33.2327
162	2	6	0.1927	1.9888	-1.293	33.418701
163	2	4	-0.15161	3.0539	0.058800001	32.195301
164	2	4	-0.019121001	3.5711999	-0.96630001	31.268499
165	2	6	0.213506	3.3052001	-2.0039999	31.436399
166	2	4	-0.261195	4.3607998	-0.62129998	30.2321
167	2	4	0.83400297	4.8741999	-1.6586	29.308599
168	2	5	-0.51627201	5.6121998	-1.3363	28.3389
169	2	7	-0.67145503	4.5489001	-3.0002	29.499001
170	2	8	0.40876001	4.8968	-3.714	28.870701
171	2	4	-0.072910003	4.7233	0.80739999	30.005501
172	2	6	0.22331899	5.3586001	1.0725	29.169701
173	2	4	-0.22758099	4.2877002	1.7862	30.809401
174	2	6	0.1927	4.5771999	2.8110001	30.6063
175	2	4	-0.12873299	3.4223001	1.4743	31.959299
176	2	4	0.015873	2.97	2.4340999	32.781799
177	2	6	0.20278899	3.2407999	3.4691999	32.6073
178	4	1	-0.12907501	0.93760002	2.0689001	57.925499
179	4	2	0.053839002	1.0357	3.1338	57.019798
180	4	2	0.158804	-0.27360001	3.9214001	56.9828
181	4	1	-0.50022298	-0.1524	5.0254002	56.128399
182	4	3	0.094411999	-0.50989997	4.2869	58.003899
183	4	3	0.094411999	-1.1087	3.2629001	56.649601
184	4	3	0.102078	1.8575	3.8048	57.349201
185	4	3	0.102078	1.2871	2.7555001	56.002102
186	5	4	0.79458499	-0.2096	4.6582999	55.158699
187	5	5	-0.54388398	-0.63230002	5.4159999	54.2449
188	5	4	-0.268291	0.1987	3.2732999	54.864498
189	5	4	-0.080402002	0.64719999	2.4800999	55.853699
190	5	6	0.22331899	0.71340001	2.8466001	56.871101
191	5	4	-0.22758099	1.0597	1.0895	55.570301
192	5	6	0.1927	1.4183	0.46799999	56.381599
193	5	4	-0.12873299	0.98839998	0.6099	54.319199
194	5	4	0.015873	1.3904001	-0.77289999	53.996399
195	5	6	0.20278899	1.7532001	-1.4148999	54.791599
196	5	4	-0.330641	1.3095	-1.2306	52.730801
197	5	4	0.58187002	1.7091	-2.6115999	52.394798
198	5	5	-0.56496102	2.1372001	-3.4040999	53.276199
199	5	4	-0.047529999	0.81300002	-0.3515	51.6381
200	5	6	0.20557299	0.75559998	-0.74119997	50.628502
201	5	4	-0.22186799	0.43220001	0.91119999	51.862499
202	5	6	0.1927	0.076499999	1.5163	51.036499
203	5	4	-0.15161	0.49509999	1.4764	53.222801
204	5	4	-0.023523999	0.1206	2.7395	53.479
205	5	6	0.213506	-0.2397	3.3717	52.676601
206	1	1	-0.123463	0.39739999	1.3654	57.4786
207	1	2	0.025830001	1.284	0.3344	57.139999
208	1	2	0.097860001	1.6427	-0.48640001	58.3787
209	1	7	-0.67479199	2.4751999	-1.5581	58.028301
210	1	8	0.40068901	3.3806	-1.1770999	57.8797
211	1	3	0.100443	0.71259999	-0.89219999	58.829899
212	1	3	0.100443	2.1406	0.16	59.136501
213	1	3	0.102781	0.792	-0.32589999	56.394299
214	1	3	0.102781	2.2061999	0.7525	56.675098
215	2	4	0.58187002	1.6346999	-2.9579	51.3717
216	2	5	-0.56496203	2.4663	-3.8076	50.954399
217	2	4	-0.330641	0.57609999	-2.4393001	50.487
218	2	4	-0.047529999	-0.30250001	-1.5317	50.9496
219	2	6	0.20557299	-0.2436	-1.174	51.970901
220	2	4	-0.22186799	-1.3672	-1.0043	50.071899
221	2	6	0.1927	-2.0638001	-0.2746	50.466202
222	2	4	-0.15161	-1.4643	-1.4299001	48.803501
223	2	4	-0.019121001	-2.5137	-0.92720002	47.896
224	2	6	0.213506	-3.2216001	-0.1961	48.270401
225	2	4	-0.261195	-2.5932	-1.3681999	46.624802
226	2	4	0.83400297	-3.6506	-0.85680002	45.723202
227	2	5	-0.51627201	-3.7249999	-1.2684	44.534199
228	2	7	-0.67145503	-4.5742002	0.083400004	46.1763
229	2	8	0.40876001	-5.2993002	0.43689999	45.5644
230	2	4	-0.072910003	-1.6169	-2.3733001	46.114799
231	2	6	0.22331899	-1.6908	-2.7204001	45.091702
232	2	4	-0.22758099	-0.64109999	-2.8699999	46.886398
233	2	6	0.1927	0.045899998	-3.5996001	46.4729
234	2	4	-0.12873299	-0.50120002	-2.4289	48.284401
235	2	4	0.015873	0.46689999	-2.9084001	49.0812
236	2	6	0.20278899	1.1706001	-3.6394	48.699402
237	4	1	-0.12907501	1.5700999	1.0063	75.511703
238	4	2	0.053839002	1.0195	-0.27770001	75.402298
239	4	2	0.158804	2.1287999	-1.3255	75.316704
240	4	1	-0.50022298	1.5784	-2.6135001	75.275803
241	4	3	0.094411999	2.7781999	-1.2453001	76.213402
242	4	3	0.094411999	2.7595	-1.1445	74.415901
243	4	3	0.102078	0.39829999	-0.47490001	76.302101
244	4	3	0.102078	0.35890001	-0.3414	74.507103
245	5	4	0.79458499	1.214	-2.7504001	74.313103
246	5	5	-0.54388398	1.1406	-3.9203	73.850601
247	5	4	-0.268291	0.79180002	-1.5908	73.507797
248	5	4	-0.080402002	0.87779999	-0.34990001	74.019402
249	5	6	0.22331899	1.2556	-0.18870001	75.021896
250	5	4	-0.22758099	0.4569	0.8204	73.221001
251	5	6	0.1927	0.53420001	1.8109	73.652397
252	5	4	-0.12873299	-0.0151	0.64960003	71.9767
253	5	4	0.015873	-0.4447	1.7927999	71.148201
254	5	6	0.20278899	-0.37729999	2.7946999	71.557899
255	5	4	-0.330641	-0.91589999	1.5941	69.900703
256	5	4	0.58187002	-1.3494	2.7293	69.062103
257	5	5	-0.56496102	-1.2934999	3.9157	69.4832
258	5	4	-0.047529999	-1.0102	0.2207	69.3368
259	5	6	0.20557299	-1.3911	0.085100003	68.331299
260	5	4	-0.22186799	-0.6372	-0.8585	70.033897
261	5	6	0.1927	-0.72280002	-1.8407	69.583603
262	5	4	-0.15161	-0.1133	-0.71390003	71.404503
263	5	4	-0.023523999	0.2683	-1.7775	72.1287
264	5	6	0.213506	0.19599999	-2.7735	71.709198
265	1	1	-0.123463	1.8892	1.2561001	74.604897
266	1	2	0.025830001	1.0014	2.2265999	74.121498
267	1	2	0.097860001	1.281	3.5776999	74.779503
268	1	7	-0.67479199	0.43830001	4.5626001	74.246201
269	1	8	0.40068901	-0.45640001	4.4217	74.654404
270	1	3	0.100443	2.3348	3.8682001	74.583702
271	1	3	0.100443	1.1422	3.5037	75.881897
272	1	3	0.102781	1.141	2.3194001	73.0233
273	1	3	0.102781	-0.052200001	1.9173	74.310204
274	2	4	0.58187002	-1.7235	2.5460999	68.062698
275	2	5	-0.56496203	-2.6073	3.312	67.593399
276	2	4	-0.330641	-1.2038	1.4173	67.270203
277	2	4	-0.047529999	-0.26089999	0.60960001	67.788002
278	2	6	0.20557299	0.1257	0.778	68.7864
279	2	4	-0.22186799	0.2669	-0.52520001	67.003304
280	2	6	0.1927	1.0263	-1.1619999	67.440498
281	2	4	-0.15161	-0.1927	-0.75690001	65.764603
282	2	4	-0.019121001	0.30950001	-1.8796999	64.949501
283	2	6	0.213506	1.0700001	-2.5295999	65.367897
284	2	4	-0.261195	-0.1663	-2.0947001	63.706902
285	2	4	0.83400297	0.3452	-3.2246001	62.897999
286	2	5	-0.51627201	-0.0999	-3.4263	61.736198
287	2	7	-0.67145503	1.3221	-4.0767002	63.409302
288	2	8	0.40876001	1.6756999	-4.8511	62.861
289	2	4	-0.072910003	-1.2125	-1.1982	63.136398
290	2	6	0.22331899	-1.587	-1.3805	62.136902
291	2	4	-0.22758099	-1.7102	-0.16150001	63.8232
292	2	6	0.1927	-2.4697001	0.46399999	63.367802
293	2	4	-0.12873299	-1.2314	0.1267	65.1856
294	2	4	0.015873	-1.712	1.158	65.898102
295	2	6	0.20278899	-2.4719999	1.8034	65.472504
296	4	1	-0.12907501	-0.2744	11.4382	0.74849999
297	4	2	0.053839002	-1.416	11.8688	0.0592
298	4	2	0.158804	-1.2467	11.6413	-1.4426
299	4	1	-0.50022298	-2.4144001	12.0089	-2.1243
300	4	3	0.094411999	-1.0501	10.565	-1.63
301	4	3	0.094411999	-0.3757	12.2231	-1.8234
302	4	3	0.102078	-2.2897	11.286	0.42160001
303	4	3	0.102078	-1.6108	12.9462	0.2665
304	5	4	0.79458499	-2.4212999	13.0466	-2.1635001
305	5	5	-0.54388398	-3.0323	13.6161	-3.1070001
306	5	4	-0.268291	-1.7259001	13.8327	-1.1291
307	5	4	-0.080402002	-1.0793	13.2062	-0.12989999
308	5	6	0.22331899	-1.0618	12.1245	-0.0735
309	5	4	-0.22758099	-0.37869999	13.9844	0.9131
310	5	6	0.1927	0.1354	13.4597	1.7091
311	5	4	-0.12873299	-0.38460001	15.3253	0.8678
312	5	4	0.015873	0.3035	16.137199	1.8902
313	5	6	0.20278899	0.82520002	15.6352	2.6975999
314	5	4	-0.330641	0.28220001	17.483601	1.8221999
315	5	4	0.58187002	0.96630001	18.306999	2.839
316	5	5	-0.56496102	1.5894001	17.7806	3.7995
317	5	4	-0.047529999	-0.43349999	18.1745	0.71609998
318	5	6	0.20557299	-0.43650001	19.257601	0.68110001
319	5	4	-0.22186799	-1.0767	17.4986	-0.2428
320	5	6	0.1927	-1.585	18.0429	-1.0303
321	5	4	-0.15161	-1.0941	16.024401	-0.2295
322	5	4	-0.023523999	-1.7309999	15.3188	-1.1770999
323	5	6	0.213506	-2.2492001	15.831	-1.9785
324	1	1	-0.123463	0.4206	12.1338	0.60839999
325	1	2	0.025830001	0.55839998	12.8129	1.8264
326	1	2	0.097860001	1.3587	11.9688	2.8181
327	1	7	-0.67479199	1.5546	12.6759	4.0123
328	1	8	0.40068901	0.69309998	12.6429	4.506
329	1	3	0.100443	2.3508999	11.732	2.3789001
330	1	3	0.100443	0.83139998	11.0085	3.0179
331	1	3	0.102781	1.0964	13.7671	1.6415
332	1	3	0.102781	-0.4427	13.0579	2.2495999
333	2	4	0.58187002	0.93669999	19.3867	2.7636001
334	2	5	-0.56496203	0.9465	20.0714	3.8213999
335	2	4	-0.330641	0.88520002	20.038099	1.4426
336	2	4	-0.047529999	0.87470001	19.290899	0.324
337	2	6	0.20557299	0.90429997	18.2089	0.38010001
338	2	4	-0.22186799	0.82249999	19.9326	-1.0055
339	2	6	0.1927	0.81550002	19.3109	-1.8924
340	2	4	-0.15161	0.78600001	21.269899	-1.1049
341	2	4	-0.019121001	0.73369998	21.948099	-2.4143
342	2	6	0.213506	0.72579998	21.344601	-3.3151
343	2	4	-0.261195	0.69730002	23.2932	-2.4916
344	2	4	0.83400297	0.6451	23.962999	-3.8111
345	2	5	-0.51627201	0.61049998	25.2208	-3.8838
346	2	7	-0.67145503	0.63349998	23.213499	-4.9858999
347	2	8	0.40876001	0.5977	23.6658	-5.8912001
348	2	4	-0.072910003	0.70789999	24.118601	-1.2496001
349	2	6	0.22331899	0.67869997	25.1985	-1.3241
350	2	4	-0.22758099	0.755	23.5658	-0.0305
351	2	6	0.1927	0.76130003	24.2055	0.8448
352	2	4	-0.12873299	0.79680002	22.101601	0.1211
353	2	4	0.015873	0.84380001	21.5193	1.3297
354	2	6	0.20278899	0.85170001	22.129801	2.2255001
355	4	1	-0.12907501	-1.6674	14.6383	22.539
356	4	2	0.053839002	-2.4921	15.7527	22.3349
357	4	2	0.158804	-3.8169999	15.3244	21.7047
358	4	1	-0.50022298	-4.6675	16.429001	21.563499
359	4	3	0.094411999	-4.3105998	14.5781	22.3617
360	4	3	0.094411999	-3.6345999	14.8461	20.714701
361	4	3	0.102078	-2.6918001	16.2307	23.317699
362	4	3	0.102078	-1.9802999	16.500299	21.686001
363	5	4	0.79458499	-4.3195	16.969299	20.7477
364	5	5	-0.54388398	-5.1321998	17.677999	20.0956
365	5	4	-0.268291	-2.8978	16.903099	20.365801
366	5	4	-0.080402002	-2.0460999	16.1409	21.0746
367	5	6	0.22331899	-2.3917999	15.5706	21.9284
368	5	4	-0.22758099	-0.61809999	16.067101	20.700899
369	5	6	0.1927	0.050700001	15.4474	21.2857
370	5	4	-0.12873299	-0.1628	16.763399	19.6483
371	5	4	0.015873	1.2555	16.715401	19.2435
372	5	6	0.20278899	1.9452	16.102301	19.8134
373	5	4	-0.330641	1.6878999	17.424999	18.181801
374	5	4	0.58187002	3.1043999	17.3859	17.767099
375	5	5	-0.56496102	3.9518001	16.691099	18.3894
376	5	4	-0.047529999	0.74400002	18.267401	17.399099
377	5	6	0.20557299	1.1138	18.828501	16.5488
378	5	4	-0.22186799	-0.55369997	18.355	17.711901
379	5	6	0.1927	-1.2059	18.981001	17.1138
380	5	4	-0.15161	-1.0939	17.6057	18.861099
381	5	4	-0.023523999	-2.3908999	17.6738	19.199699
382	5	6	0.213506	-3.0703001	18.2899	18.623501
383	1	1	-0.123463	-1.2946	14.395	21.6511
384	1	2	0.025830001	0.056600001	14.7662	21.669001
385	1	2	0.097860001	0.87360001	13.7598	22.479099
386	1	7	-0.67479199	2.2342999	14.0936	22.440001
387	1	8	0.40068901	2.3557999	14.8613	23.0588
388	1	3	0.100443	0.74370003	12.7474	22.041599
389	1	3	0.100443	0.51139998	13.7302	23.5317
390	1	3	0.102781	0.43290001	14.7852	20.623899
391	1	3	0.102781	0.1726	15.7887	22.0959
392	2	4	0.58187002	3.4288001	17.9632	16.910601
393	2	5	-0.56496203	4.6001	18.4279	16.8978
394	2	4	-0.330641	2.5105	18.1984	15.782
395	2	4	-0.047529999	1.2632999	17.695101	15.8135
396	2	6	0.20557299	0.92140001	17.114401	16.6623
397	2	4	-0.22186799	0.3339	17.9249	14.6886
398	2	6	0.1927	-0.66530001	17.509501	14.7356
399	2	4	-0.15161	0.73049998	18.6392	13.6247
400	2	4	-0.019121001	-0.1681	18.890301	12.4816
401	2	6	0.213506	-1.1729	18.4835	12.5081
402	2	4	-0.261195	0.2507	19.611	11.4224
403	2	4	0.83400297	-0.65979999	19.856501	10.2809
404	2	5	-0.51627201	-0.2687	20.530899	9.2904997
405	2	7	-0.67145503	-1.9568	19.3466	10.2869
406	2	8	0.40876001	-2.5840001	19.511299	9.5093002
407	2	4	-0.072910003	1.6334	20.168501	11.3912
408	2	6	0.22331899	1.9589	20.745701	10.5349
409	2	4	-0.22758099	2.4986999	19.976999	12.3956
410	2	6	0.1927	3.4942999	20.4009	12.3294
411	2	4	-0.12873299	2.102	19.198	13.5807
412	2	4	0.015873	2.9470999	18.990101	14.6027
413	2	6	0.20278899	3.9502001	19.399799	14.5684
414	4	1	-0.12907501	-0.8222	14.4472	40.0742
415	4	2	0.053839002	0.45300001	14.1553	39.5718
416	4	2	0.158804	1.5077	15.0133	40.269798
417	4	1	-0.50022298	2.789	14.6731	39.8158
418	4	3	0.094411999	1.4597	14.8341	41.3643
419	4	3	0.094411999	1.3059	16.094	40.087399
420	4	3	0.102078	0.671	13.0823	39.7598
421	4	3	0.102078	0.4844	14.3253	38.470901
422	5	4	0.79458499	2.8942001	15.1009	38.875401
423	5	5	-0.54388398	4.0492001	15.3941	38.4659
424	5	4	-0.268291	1.7076	15.3573	38.0401
425	5	4	-0.080402002	0.48320001	15.0371	38.495098
426	5	6	0.22331899	0.3549	14.5902	39.473598
427	5	4	-0.22758099	-0.71390003	15.2895	37.665901
428	5	6	0.1927	-1.6905	15.0236	38.051498
429	5	4	-0.12873299	-0.58399999	15.8415	36.449902
430	5	4	0.015873	-1.7549	16.109501	35.592602
431	5	6	0.20278899	-2.7435999	15.8519	35.9561
432	5	4	-0.330641	-1.5973001	16.6649	34.3741
433	5	4	0.58187002	-2.7605	16.937401	33.506699
434	5	5	-0.56496102	-3.9333999	16.6609	33.875099
435	5	4	-0.047529999	-0.2419	17.018299	33.872799
436	5	6	0.20557299	-0.13940001	17.464701	32.890598
437	5	4	-0.22186799	0.86059999	16.802601	34.599201
438	5	6	0.1927	1.8283	17.075899	34.194599
439	5	4	-0.15161	0.76109999	16.198	35.9403
440	5	4	-0.023523999	1.849	15.9689	36.692299
441	5	6	0.213506	2.8315001	16.2299	36.318501
442	1	1	-0.123463	-1.0958	15.3115	39.6684
443	1	2	0.025830001	-2.0880001	15.0143	38.724499
444	1	2	0.097860001	-3.4166	14.7251	39.423
445	1	7	-0.67479199	-4.4243002	14.4949	38.476398
446	1	8	0.40068901	-4.2793999	13.5768	38.125599
447	1	3	0.100443	-3.7033	15.6026	40.040298
448	1	3	0.100443	-3.3115001	13.8466	40.099201
449	1	3	0.102781	-2.2118001	15.8901	38.052399
450	1	3	0.102781	-1.7826999	14.1423	38.101898
451	2	4	0.58187002	-2.6099999	17.385	32.532398
452	2	5	-0.56496203	-3.3973	17.083599	31.595699
453	2	4	-0.330641	-1.5005	18.3298	32.312
454	2	4	-0.047529999	-0.66949999	18.639099	33.323601
455	2	6	0.20557299	-0.80500001	18.2012	34.305698
456	2	4	-0.22186799	0.44639999	19.584101	33.114399
457	2	6	0.1927	1.1025	19.8188	33.943699
458	2	4	-0.15161	0.63739997	20.1418	31.9095
459	2	4	-0.019121001	1.7402	21.0902	31.660999
460	2	6	0.213506	2.4089	21.3391	32.477402
461	2	4	-0.261195	1.9143	21.639099	30.442301
462	2	4	0.83400297	3.0243001	22.589701	30.2045
463	2	5	-0.51627201	3.1877999	23.102699	29.064899
464	2	7	-0.67145503	3.8999	22.928301	31.2346
465	2	8	0.40876001	4.6609001	23.5776	31.077999
466	2	4	-0.072910003	0.99199998	21.2931	29.322701
467	2	6	0.22331899	1.1415	21.740499	28.348101
468	2	4	-0.22758099	-0.0285	20.4401	29.4816
469	2	6	0.1927	-0.67379999	20.218399	28.6392
470	2	4	-0.12873299	-0.2721	19.807301	30.7889
471	2	4	0.015873	-1.2862	18.948299	30.9779
472	2	6	0.20278899	-1.9506	18.704901	30.156601
473	4	1	-0.12907501	1.3535	17.768299	58.205299
474	4	2	0.053839002	0.90930003	16.473101	57.906898
475	4	2	0.158804	2.0999999	15.5337	57.718899
476	4	1	-0.50022298	1.6549	14.2253	57.487801
477	4	3	0.094411999	2.7205	15.5402	58.6394
478	4	3	0.094411999	2.7347	15.8828	56.872002
479	4	3	0.102078	0.2854	16.108999	58.750999
480	4	3	0.102078	0.2764	16.481899	56.9897
481	5	4	0.79458499	1.3246	14.1934	56.503799
482	5	5	-0.54388398	1.355	13.0951	55.886799
483	5	4	-0.268291	0.82990003	15.4164	55.847301
484	5	4	-0.080402002	0.8053	16.5791	56.5228
485	5	6	0.22331899	1.1461999	16.630699	57.549801
486	5	4	-0.22758099	0.31110001	17.811899	55.8745
487	5	6	0.1927	0.29949999	18.737499	56.436901
488	5	4	-0.12873299	-0.1174	17.7766	54.6036
489	5	4	0.015873	-0.61760002	18.985901	53.9216
490	5	6	0.20278899	-0.63940001	19.924999	54.463699
491	5	4	-0.330641	-1.0429	18.9237	52.6437
492	5	4	0.58187002	-1.546	20.1262	51.9505
493	5	5	-0.56496102	-1.5943	21.245199	52.528099
494	5	4	-0.047529999	-1.0148	17.636499	51.8983
495	5	6	0.20557299	-1.3607	17.610399	50.871601
496	5	4	-0.22186799	-0.57319999	16.503901	52.456902
497	5	6	0.1927	-0.57010001	15.5884	51.876598
498	5	4	-0.15161	-0.093699999	16.500099	53.8512
499	5	4	-0.023523999	0.35460001	15.3798	54.4389
500	5	6	0.213506	0.37130001	14.4475	53.887798
501	1	1	-0.123463	1.6722	18.1625	57.351299
502	1	2	0.025830001	0.72130001	19.119699	56.972698
503	1	2	0.097860001	0.8775	20.386	57.8144
504	1	7	-0.67479199	-0.0284	21.367701	57.389999
505	1	8	0.40068901	-0.9181	21.1052	57.745602
506	1	3	0.100443	1.9092	20.7794	57.694599
507	1	3	0.100443	0.72000003	20.152599	58.891899
508	1	3	0.102781	0.87809998	19.371201	55.902
509	1	3	0.102781	-0.30829999	18.7087	57.083099
510	2	4	0.58187002	-1.8815	20.0527	50.923698
511	2	5	-0.56496203	-2.8124001	20.8062	50.531898
512	2	4	-0.330641	-1.2558	19.0849	50.0051
513	2	4	-0.047529999	-0.26359999	18.287901	50.441299
514	2	6	0.20557299	0.085500002	18.3479	51.465599
515	2	4	-0.22186799	0.3705	17.313601	49.5299
516	2	6	0.1927	1.1679	16.6826	49.903
517	2	4	-0.15161	-0.040899999	17.2183	48.256699
518	2	4	-0.019121001	0.56739998	16.257999	47.315899
519	2	6	0.213506	1.3674001	15.6167	47.668701
520	2	4	-0.261195	0.13860001	16.1786	46.0406
521	2	4	0.83400297	0.75660002	15.2112	45.105301
522	2	5	-0.51627201	0.3556	15.1362	43.912701
523	2	7	-0.67145503	1.7864	14.3739	45.5303
524	2	8	0.40876001	2.2128	13.7103	44.895401
525	2	4	-0.072910003	-0.96219999	17.062599	45.560501
526	2	6	0.22331899	-1.2981	16.99	44.533699
527	2	4	-0.22758099	-1.5563999	17.955601	46.3629
528	2	6	0.1927	-2.3526001	18.577801	45.9702
529	2	4	-0.12873299	-1.1331	18.091299	47.7668
530	2	4	0.015873	-1.7103	18.9767	48.594398
531	2	6	0.20278899	-2.5093	19.614599	48.233898
532	4	1	-0.12907501	3.8031001	17.614401	65.047699
533	4	2	0.053839002	2.7815001	18.552799	64.849297
534	4	2	0.158804	3.2591	19.949301	65.246201
535	4	1	-0.50022298	2.2607999	20.896999	64.983902
536	4	3	0.094411999	4.1606998	20.2101	64.653503
537	4	3	0.094411999	3.5376	19.9678	66.325104
538	4	3	0.102078	2.5042	18.5527	63.773499
539	4	3	0.102078	1.8777	18.272499	65.437897
540	5	4	0.79458499	1.552	20.797701	65.736298
541	5	5	-0.54388398	0.85030001	21.797199	66.047203
542	5	4	-0.268291	1.3758	19.506399	66.424004
543	5	4	-0.080402002	2.1345	18.4513	66.077698
544	5	6	0.22331899	2.8787999	18.5369	65.294998
545	5	4	-0.22758099	1.9664	17.1513	66.7603
546	5	6	0.1927	2.5876	16.3144	66.4655
547	5	4	-0.12873299	1.0519	17.017099	67.732803
548	5	4	0.015873	0.8545	15.7359	68.438103
549	5	6	0.20278899	1.4642	14.8829	68.160896
550	5	4	-0.330641	-0.071800001	15.6272	69.411903
551	5	4	0.58187002	-0.27919999	14.3509	70.124496
552	5	5	-0.56496102	0.39950001	13.326	69.847099
553	5	4	-0.047529999	-0.90990001	16.795601	69.793404
554	5	6	0.20557299	-1.6475	16.685101	70.579597
555	5	4	-0.22186799	-0.7816	17.9851	69.194801
556	5	6	0.1927	-1.4132	18.809601	69.5047
557	5	4	-0.15161	0.2115	18.1742	68.121498
558	5	4	-0.023523999	0.36309999	19.3552	67.501999
559	5	6	0.213506	-0.25189999	20.2001	67.787102
560	1	1	-0.123463	3.8454001	17.4436	66.0252
561	1	2	0.025830001	3.3175001	16.1619	66.230904
562	1	2	0.097860001	4.3362999	15.0964	65.827003
563	1	7	-0.67479199	3.8341999	13.8158	66.096497
564	1	8	0.40068901	3.1724999	13.6148	65.383301
565	1	3	0.100443	5.2688999	15.2423	66.412003
566	1	3	0.100443	4.5872998	15.1953	64.746597
567	1	3	0.102781	3.0764	16.0466	67.309196
568	1	3	0.102781	2.375	16.0327	65.6511
569	2	4	0.58187002	-1.0282	14.2871	70.903801
570	2	5	-0.56496203	-1.6303	13.1946	71.081703
571	2	4	-0.330641	-1.3338	15.4627	71.738602
572	2	4	-0.047529999	-0.68129998	16.621201	71.533699
573	2	6	0.20557299	0.071699999	16.7034	70.758698
574	2	4	-0.22186799	-0.97970003	17.8062	72.363602
575	2	6	0.1927	-0.44150001	18.728201	72.181
576	2	4	-0.15161	-1.9064	17.732901	73.330704
577	2	4	-0.019121001	-2.2325001	18.894199	74.180603
578	2	6	0.213506	-1.7055	19.827101	74.014801
579	2	4	-0.261195	-3.1675	18.7988	75.146797
580	2	4	0.83400297	-3.4863999	19.9708	75.993797
581	2	5	-0.51627201	-4.3610001	19.8822	76.897003
582	2	7	-0.67145503	-2.8255999	21.182899	75.803703
583	2	8	0.40876001	-3.0395	21.9879	76.379601
584	2	4	-0.072910003	-3.8898001	17.5135	75.370499
585	2	6	0.22331899	-4.6387	17.448799	76.149902
586	2	4	-0.22758099	-3.6410999	16.4223	74.634598
587	2	6	0.1927	-4.1905999	15.5091	74.833199
588	2	4	-0.12873299	-2.6308	16.4617	73.564003
589	2	4	0.015873	-2.3606	15.3844	72.809898
590	2	6	0.20278899	-2.8917	14.4552	72.9823
591	4	1	-0.12907501	1.6073	37.321999	-5.2985001
592	4	2	0.053839002	2.7505	36.835602	-4.6503
593	4	2	0.158804	3.1317	35.463299	-5.2047
594	4	1	-0.50022298	4.3130999	35.007801	-4.6044002
595	4	3	0.094411999	3.2979	35.5439	-6.2993002
596	4	3	0.094411999	2.3044	34.7365	-5.0334001
597	4	3	0.102078	3.5864999	37.546101	-4.8250999
598	4	3	0.102078	2.5762	36.772701	-3.5513999
599	5	4	0.79458499	4.0560999	34.6819	-3.6524999
600	5	5	-0.54388398	4.7596002	33.7925	-3.1029999
601	5	4	-0.268291	2.8868001	35.254902	-2.9626999
602	5	4	-0.080402002	2.1484001	36.2034	-3.566
603	5	6	0.22331899	2.402	36.555199	-4.5588002
604	5	4	-0.22758099	0.9738	36.7855	-2.8836
605	5	6	0.1927	0.39320001	37.5485	-3.3873999
606	5	4	-0.12873299	0.63730001	36.368599	-1.6535