Title

143 atoms
152 bonds
265 angles
413 dihedrals
168 impropers

10 atom types
14 bond types
9 angle types
20 dihedral types
3 improper types
-11.39999962 88.60000038 xlo xhi
-3.647000074 96.35299993 ylo yhi
-3.038000107 96.96199989 zlo zhi
0.0 0.0 0.0 xy xz yz

Masses

1	14.00672
2	12.01078
3	1.007947
4	1.007947
5	12.01078
6	18.998403
7	15.99943
8	1.007947
9	15.99943
10	1.007947


Pair Coeffs

1	0.16769152	3.206876
2	0.086879315	3.4806469
3	0.015611343	2.5725815
4	0.014090815	1.1034277
5	0.10884061	3.3795318
6	0.061	3.1181455
7	0.2102061	3.0398122
8	0.015779483	2.6445434
9	0.20947353	2.99716
10	1.2326e-05	0.53453923

Bond Coeffs

1 harmonic	390.03554688505	1.390160554689
2 harmonic	505.144496193	1.019481865027
3 harmonic	422.7150220147	1.421786517481
4 harmonic	360.7852444772	1.387193227181
5 harmonic	397.2545789619	1.085358495916
6 harmonic	279.1350963404	1.454628925034
7 harmonic	492.76746816345	1.381897776683
8 harmonic	289.73813263395	1.498646816465
9 harmonic	340.45121009905	1.358690858053
10 harmonic	582.698766451	1.225198386222
11 harmonic	264.62148576755	1.52190126495
12 harmonic	370.04670688625	1.093899492634
13 harmonic	385.7604595587	1.369745182308
14 harmonic	543.5267831885	0.9716763312559


Angle Coeffs

1 harmonic	57.8982893754	126.8062420451
2 harmonic	55.42182150775	117.3465570514
3 harmonic	63.44422595415	115.5071327674
4 harmonic	34.066775159195	129.1835929926
5 harmonic	53.20531626545	116.5475862634
6 harmonic	14.32262199324	138.3184368373
7 harmonic	48.776492647595	115.6030999533
8 harmonic	65.09061609600001	110.3538806181
9 harmonic	201.41175231035	127.4691416191


Dihedral Coeffs

1 fourier 1	3.661930099076	2	180
2 fourier 1	1.193093382682	2	180
3 fourier 1	0.02021088501612	1	0
4 fourier 1	1.163235555439	2	180
5 fourier 1	0.02664938770063	3	0
6 fourier 1	3.101948770557	2	180
7 fourier 1	-0.4252153282372	1	0
8 fourier 1	1.809047390003	2	180
9 fourier 1	-0.04816277792592	1	0
10 fourier 1	0.9974165607242	2	180
11 fourier 1	2.348375642009	2	180
12 fourier 1	1.256156174911	1	0
13 fourier 1	0.1155372516788	3	0
14 fourier 1	0.09223874044423	3	0
15 fourier 1	0.3159935921949	2	180
16 fourier 1	0.3247796806857	1	180
17 fourier 1	0.1040663847541	3	0
18 fourier 1	2.687457892086	2	180
19 fourier 1	2.772607909663	2	180
20 fourier 1	0.09692684957115	1	0


Improper Coeffs

1 0.3666666666666667	-1	2
2 0.3333333333333333	-1	2
3 3.5	-1	2


Atoms

1	1	1	-0.41032901	4.994	-0.42699999	-0.315
2	1	2	0.109267	3.5810001	-0.227	-0.219
3	1	2	-0.40867701	2.9690001	0.67199999	-1
4	1	3	0.229698	3.5350001	1.2589999	-1.712
5	1	2	-0.158675	1.515	0.88300002	-0.889
6	1	3	0.20972399	1.049	1.637	-1.511
7	1	2	-0.033876002	0.78399998	0.16599999	-0.018999999
8	1	2	-0.033876002	-0.667	0.43599999	0.085000001
9	1	2	-0.172888	-1.115	1.175	1.114
10	1	3	0.20972399	-0.428	1.5549999	1.8609999
11	1	2	-0.38284501	-2.5469999	1.5	1.238
12	1	3	0.225867	-2.8829999	2.092	2.0799999
13	1	2	0.18375599	-3.4159999	1.076	0.31200001
14	1	1	-0.530146	-4.8049998	1.398	0.42199999
15	1	4	0.323672	-5.4850001	1.068	-0.29899999
16	1	2	-0.33544901	-2.9349999	0.26899999	-0.83200002
17	1	3	0.221855	-3.6570001	-0.046	-1.575
18	1	2	-0.24808601	-1.633	-0.068000004	-0.94499999
19	1	5	0.75397098	-1.154	-0.884	-2.1289999
20	1	6	-0.199405	-0.259	-1.853	-1.714
21	1	6	-0.199405	-0.52999997	-0.050999999	-3.0380001
22	1	6	-0.199405	-2.2030001	-1.526	-2.767
23	1	2	-0.239419	1.452	-0.86400002	0.84299999
24	1	5	0.75397098	0.65700001	-1.673	1.849
25	1	6	-0.199405	-0.51599997	-2.131	1.277
26	1	6	-0.199405	1.367	-2.7750001	2.2950001
27	1	6	-0.199405	0.34999999	-0.87699997	2.9360001
28	1	2	-0.36154601	2.789	-1.018	0.75
29	1	3	0.22575299	3.312	-1.726	1.381
30	1	4	0.37795499	5.572	0.12	-0.99199998
31	1	2	0.77159399	-5.1729999	1.977	1.2359999
32	1	7	-0.64274001	-5.0669999	1.52	2.404
33	1	2	-0.366541	-5.7930002	3.2909999	0.991
34	1	2	-0.071098	-5.9000001	3.763	-0.25999999
35	1	3	0.23069	-5.5349998	3.1860001	-1.101
36	1	2	-0.24201401	-6.5209999	5.079	-0.51599997
37	1	3	0.221779	-6.598	5.3940001	-1.546
38	1	2	-0.20186099	-6.967	5.8460002	0.50300002
39	1	5	0.027698999	-7.6560001	7.204	0.285
40	1	5	-0.12970699	-7.402	7.823	-1.1109999
41	1	8	0.092418998	-7.8930001	7.224	-1.9069999
42	1	8	0.092418998	-7.8210001	8.8509998	-1.166
43	1	8	0.092418998	-6.3130002	7.882	-1.322
44	1	2	-0.116602	-7.2030001	8.191	1.316
45	1	2	-0.142895	-5.9439998	8.5819998	1.564
46	1	3	0.221512	-5.1139998	8.1700001	1.005
47	1	2	0.0088219997	-5.704	9.592	2.622
48	1	3	0.22120699	-4.6859999	9.9020004	2.825
49	1	2	-0.340812	-6.7379999	10.116	3.3139999
50	1	2	0.58958298	-6.4889998	11.122	4.3610001
51	1	7	-0.49206901	-7.4429998	11.62	5.0159998
52	1	2	0.080751002	-8.1260004	9.6680002	3.007
53	1	3	0.21547	-8.9700003	10.086	3.5409999
54	1	2	-0.174665	-8.316	8.7419996	2.0539999
55	1	5	-0.024905	-9.6169996	8.1750002	1.5829999
56	1	5	-0.12925801	-10.458	9.2740002	0.90600002
57	1	8	0.096550003	-10.722	10.071	1.6339999
58	1	8	0.096550003	-9.8950005	9.7379999	0.068000004
59	1	8	0.096550003	-11.4	8.8450003	0.50199997
60	1	5	-0.12925801	-10.399	7.5500002	2.7539999
61	1	8	0.096550003	-10.704	8.3269997	3.487
62	1	8	0.096550003	-9.7749996	6.796	3.2820001
63	1	8	0.096550003	-11.316	7.0469999	2.3789999
64	1	5	-0.178863	-9.1929998	7.0830002	0.54699999
65	1	8	0.135187	-9.776	7.1729999	-0.39700001
66	1	8	0.135187	-9.4390001	6.0689998	0.93599999
67	1	2	-0.24201401	-6.868	5.2979999	1.887
68	1	3	0.221779	-7.2540002	5.8649998	2.7249999
69	1	2	-0.071098	-6.3119998	4.1030002	2.1159999
70	1	3	0.23069	-6.2529998	3.7320001	3.132
71	1	1	-0.41032901	5.473	-1.128	0.29300001
72	1	2	0.109267	5.0469999	-1.3279999	1.643
73	1	2	-0.40867701	5.6630001	-2.227	2.4219999
74	1	3	0.229698	6.4879999	-2.8150001	2.039
75	1	2	-0.158675	5.2140002	-2.438	3.809
76	1	3	0.20972399	5.7090001	-3.1930001	4.4089999
77	1	2	-0.033876002	4.197	-1.721	4.316
78	1	2	-0.033876002	3.7550001	-1.992	5.7010002
79	1	2	-0.117155	2.6489999	-2.73	5.895
80	1	3	0.20972399	2.085	-3.1099999	5.052
81	1	2	-0.44856599	2.1930001	-3.0550001	7.2579999
82	1	3	0.238554	1.296	-3.6470001	7.3870001
83	1	2	0.29624501	2.8889999	-2.631	8.3210001
84	1	1	-0.84317201	2.4560001	-2.954	9.6450005
85	1	4	0.37393099	1.595	-3.5220001	9.8079996
86	1	4	0.37393099	2.997	-2.6240001	10.475
87	1	2	-0.42062601	4.1139998	-1.824	8.1210003
88	1	3	0.23473901	4.6659999	-1.5089999	8.9980001
89	1	2	-0.201231	4.5289998	-1.488	6.8829999
90	1	5	0.75397098	5.7930002	-0.671	6.6950002
91	1	6	-0.199405	5.599	0.29800001	5.7270002
92	1	6	-0.199405	6.823	-1.505	6.302
93	1	6	-0.199405	6.1659999	-0.029999999	7.8649998
94	1	2	-0.239419	3.5150001	-0.69199997	3.464
95	1	5	0.75397098	2.3510001	0.117	4.0009999
96	1	6	-0.199405	2.632	0.57499999	5.2750001
97	1	6	-0.199405	2.0840001	1.22	3.2060001
98	1	6	-0.199405	1.222	-0.67799997	4.0440001
99	1	2	-0.36154601	3.9200001	-0.53799999	2.1860001
100	1	3	0.22575299	3.4300001	0.17	1.53
101	1	4	0.37795499	6.2659998	-1.676	-0.11
102	1	2	0.59507799	-5.4790001	11.444	4.579
103	1	7	-0.50284499	-4.5489998	10.595	4.5489998
104	1	2	-0.32941401	-5.217	12.858	4.9029999
105	1	2	0.014142	-3.9779999	13.299	5.177
106	1	3	0.228843	-3.1300001	12.626	5.1659999
107	1	2	-0.235056	-3.7460001	14.722	5.4980001
108	1	3	0.221779	-2.73	15.04	5.6939998
109	1	2	-0.20186099	-4.7680001	15.605	5.5419998
110	1	5	0.027698999	-4.4899998	17.087	5.8530002
111	1	5	-0.12970699	-5.7709999	17.909	6.1160002
112	1	8	0.092418998	-6.3769999	17.447001	6.9250002
113	1	8	0.092418998	-6.3899999	17.982	5.1960001
114	1	8	0.092418998	-5.5149999	18.945999	6.427
115	1	2	-0.116602	-3.598	17.219999	7.0489998
116	1	2	-0.16241901	-3.8180001	16.738001	8.2810001
117	1	3	0.221512	-4.7119999	16.169001	8.5030003
118	1	2	-0.052917998	-2.8150001	16.995001	9.3400002
119	1	3	0.23746	-2.9979999	16.597	10.33
120	1	2	-0.22278801	-1.701	17.714001	9.0710001
121	1	2	0.83874702	-0.69199997	17.981001	10.119
122	1	7	-0.46322799	-0.85100001	17.544001	11.291
123	1	9	-0.66075099	0.447	18.723	9.816
124	1	10	0.423338	1.146	18.914	10.523
125	1	2	0.014182	-1.493	18.242001	7.6929998
126	1	3	0.23052999	-0.616	18.83	7.4549999
127	1	2	-0.169034	-2.4100001	17.983999	6.7480001
128	1	5	-0.024905	-2.398	18.434	5.3210001
129	1	5	-0.12925801	-1.113	17.966	4.6110001
130	1	8	0.096550003	-0.21699999	18.457001	5.0469999
131	1	8	0.096550003	-0.99199998	16.865	4.7069998
132	1	8	0.096550003	-1.1569999	18.222	3.53
133	1	5	-0.12925801	-2.5179999	19.968	5.25
134	1	8	0.096550003	-3.4360001	20.313999	5.7719998
135	1	8	0.096550003	-1.64	20.454	5.7270002
136	1	8	0.096550003	-2.569	20.302	4.191
137	1	5	-0.178863	-3.6600001	17.749001	4.7030001
138	1	8	0.135187	-4.2729998	18.478001	4.125
139	1	8	0.135187	-3.3559999	16.983999	3.954
140	1	2	-0.235056	-6.1370001	15.105	5.2179999
141	1	3	0.221779	-6.9910002	15.767	5.2140002
142	1	2	0.014142	-6.3439999	13.816	4.9229999
143	1	3	0.228843	-7.3460002	13.475	4.6950002

Bonds

1	1	1	2
2	2	1	30
3	3	1	71
4	4	2	3
5	4	2	28
6	5	3	4
7	4	3	5
8	5	5	6
9	4	5	7
10	6	7	8
11	4	7	23
12	4	8	9
13	4	8	18
14	5	9	10
15	4	9	11
16	5	11	12
17	4	11	13
18	1	13	14
19	4	13	16
20	2	14	15
21	7	14	31
22	5	16	17
23	4	16	18
24	8	18	19
25	9	19	20
26	9	19	21
27	9	19	22
28	8	23	24
29	4	23	28
30	9	24	25
31	9	24	26
32	9	24	27
33	5	28	29
34	10	31	32
35	6	31	33
36	4	33	34
37	4	33	69
38	5	34	35
39	4	34	36
40	5	36	37
41	4	36	38
42	8	38	39
43	4	38	67
44	11	39	40
45	8	39	44
46	11	39	64
47	12	40	41
48	12	40	42
49	12	40	43
50	4	44	45
51	4	44	54
52	5	45	46
53	4	45	47
54	5	47	48
55	4	47	49
56	6	49	50
57	4	49	52
58	10	50	51
59	6	50	102
60	5	52	53
61	4	52	54
62	8	54	55
63	11	55	56
64	11	55	60
65	11	55	64
66	12	56	57
67	12	56	58
68	12	56	59
69	12	60	61
70	12	60	62
71	12	60	63
72	12	64	65
73	12	64	66
74	5	67	68
75	4	67	69
76	5	69	70
77	1	71	72
78	2	71	101
79	4	72	73
80	4	72	99
81	5	73	74
82	4	73	75
83	5	75	76
84	4	75	77
85	6	77	78
86	4	77	94
87	4	78	79
88	4	78	89
89	5	79	80
90	4	79	81
91	5	81	82
92	4	81	83
93	1	83	84
94	4	83	87
95	2	84	85
96	2	84	86
97	5	87	88
98	4	87	89
99	8	89	90
100	9	90	91
101	9	90	92
102	9	90	93
103	8	94	95
104	4	94	99
105	9	95	96
106	9	95	97
107	9	95	98
108	5	99	100
109	10	102	103
110	6	102	104
111	4	104	105
112	4	104	142
113	5	105	106
114	4	105	107
115	5	107	108
116	4	107	109
117	8	109	110
118	4	109	140
119	11	110	111
120	8	110	115
121	11	110	137
122	12	111	112
123	12	111	113
124	12	111	114
125	4	115	116
126	4	115	127
127	5	116	117
128	4	116	118
129	5	118	119
130	4	118	120
131	6	120	121
132	4	120	125
133	10	121	122
134	13	121	123
135	14	123	124
136	5	125	126
137	4	125	127
138	8	127	128
139	11	128	129
140	11	128	133
141	11	128	137
142	12	129	130
143	12	129	131
144	12	129	132
145	12	133	134
146	12	133	135
147	12	133	136
148	12	137	138
149	12	137	139
150	5	140	141
151	4	140	142
152	5	142	143

Angles

1	1	79	81	83
2	1	116	118	120
3	5	39	64	66
4	5	55	60	63
5	5	128	133	135
6	1	8	9	11
7	1	71	72	99
8	4	6	5	7
9	1	11	13	14
10	4	48	47	49
11	4	79	81	82
12	4	34	36	37
13	1	38	67	69
14	1	44	54	52
15	3	72	71	101
16	3	83	84	85
17	1	110	115	127
18	5	18	19	20
19	4	23	28	29
20	4	78	79	80
21	1	116	115	127
22	4	104	142	143
23	1	9	8	18
24	7	113	111	114
25	4	8	9	10
26	1	78	77	94
27	5	110	137	139
28	5	128	137	139
29	5	133	128	137
30	1	11	13	16
31	5	39	64	65
32	9	122	121	123
33	1	34	33	69
34	1	39	38	67
35	1	109	140	142
36	4	2	3	4
37	1	110	109	140
38	1	39	44	54
39	4	12	11	13
40	5	110	111	112
41	1	3	5	7
42	1	34	36	38
43	7	61	60	63
44	1	102	104	105
45	3	30	1	71
46	5	94	95	97
47	5	91	90	92
48	5	39	40	43
49	5	44	39	64
50	1	75	77	94
51	5	55	60	62
52	5	55	64	66
53	5	129	128	137
54	5	20	19	22
55	5	127	128	137
56	4	108	107	109
57	5	38	39	40
58	1	77	94	99
59	4	44	45	46
60	5	40	39	64
61	3	85	84	86
62	1	1	2	28
63	4	2	28	29
64	1	120	121	123
65	7	130	129	132
66	1	49	50	51
67	1	44	54	55
68	5	96	95	97
69	5	39	64	55
70	5	54	55	60
71	1	51	50	102
72	5	55	60	61
73	5	111	110	137
74	1	120	125	127
75	1	73	72	99
76	5	38	39	44
77	1	2	3	5
78	1	45	44	54
79	4	116	118	119
80	7	42	40	43
81	4	117	116	118
82	5	55	64	65
83	1	33	69	67
84	1	75	77	78
85	4	141	140	142
86	4	140	142	143
87	6	39	44	45
88	1	107	109	140
89	1	78	79	81
90	5	20	19	21
91	1	31	33	34
92	1	31	33	69
93	7	134	133	136
94	7	61	60	62
95	1	7	8	18
96	1	36	38	67
97	5	60	55	64
98	1	83	87	89
99	7	112	111	114
100	7	41	40	42
101	1	118	120	121
102	5	23	24	25
103	4	49	52	53
104	1	81	83	87
105	5	109	110	111
106	1	32	31	33
107	5	89	90	93
108	4	10	9	11
109	7	57	56	58
110	7	138	137	139
111	4	68	67	69
112	7	57	56	59
113	1	77	94	95
114	1	24	23	28
115	4	53	52	54
116	1	44	45	47
117	3	2	1	30
118	7	131	129	132
119	5	92	90	93
120	7	130	129	131
121	4	115	116	117
122	5	18	19	22
123	5	26	24	27
124	5	56	55	60
125	4	83	87	88
126	1	105	107	109
127	4	119	118	120
128	4	17	16	18
129	5	128	129	132
130	1	2	28	23
131	1	50	102	104
132	5	109	110	115
133	1	49	50	102
134	1	79	78	89
135	5	94	95	96
136	1	107	109	110
137	5	55	56	58
138	8	121	123	124
139	1	72	99	94
140	5	97	95	98
141	6	52	54	55
142	1	72	73	75
143	5	55	56	59
144	1	78	89	87
145	1	104	105	107
146	1	118	120	125
147	4	74	73	75
148	1	77	78	89
149	1	5	7	23
150	4	3	5	6
151	4	38	67	68
152	1	50	102	103
153	1	102	104	142
154	5	18	19	21
155	1	7	8	9
156	1	9	11	13
157	4	45	47	48
158	5	110	137	138
159	1	8	7	23
160	1	13	16	18
161	5	38	39	64
162	5	128	133	136
163	3	83	84	86
164	1	121	120	125
165	4	126	125	127
166	5	54	55	64
167	5	55	56	57
168	5	128	133	134
169	1	78	89	90
170	6	110	115	116
171	5	110	111	114
172	4	104	105	106
173	4	13	16	17
174	1	77	78	79
175	2	2	1	71
176	1	33	34	36
177	4	46	45	47
178	5	25	24	26
179	4	33	34	35
180	1	47	49	52
181	5	25	24	27
182	1	71	72	73
183	5	110	137	128
184	1	81	83	84
185	4	33	69	70
186	4	9	11	12
187	1	115	127	128
188	3	15	14	31
189	5	115	110	137
190	4	82	81	83
191	5	128	129	131
192	1	36	38	39
193	1	8	18	16
194	4	35	34	36
195	7	41	40	43
196	4	80	79	81
197	5	54	55	56
198	5	127	128	129
199	7	112	111	113
200	5	39	40	41
201	1	84	83	87
202	5	110	111	113
203	3	13	14	15
204	5	89	90	92
205	1	14	31	32
206	5	91	90	93
207	5	94	95	98
208	1	105	104	142
209	1	115	116	118
210	6	125	127	128
211	1	49	52	54
212	4	88	87	89
213	4	73	75	76
214	4	120	125	126
215	1	95	94	99
216	5	128	129	130
217	5	127	128	133
218	5	39	40	42
219	5	129	128	133
220	1	104	142	140
221	1	87	89	90
222	7	135	133	136
223	7	58	56	59
224	1	7	23	28
225	7	62	60	63
226	4	72	73	74
227	1	73	75	77
228	1	5	7	8
229	1	14	31	33
230	4	67	69	70
231	4	105	107	108
232	4	109	140	141
233	5	56	55	64
234	4	37	36	38
235	1	16	18	19
236	1	3	2	28
237	7	65	64	66
238	5	40	39	44
239	4	72	99	100
240	5	89	90	91
241	5	96	95	98
242	1	50	49	52
243	3	1	71	101
244	5	109	110	137
245	4	76	75	77
246	5	111	110	115
247	1	115	127	125
248	4	94	99	100
249	2	1	71	72
250	1	103	102	104
251	5	128	137	138
252	1	8	18	19
253	4	4	3	5
254	5	23	24	26
255	5	23	24	27
256	1	14	13	16
257	1	47	49	50
258	1	7	23	24
259	1	45	47	49
260	1	120	121	122
261	5	21	19	22
262	4	106	105	107
263	2	13	14	31
264	1	1	2	3
265	7	134	133	135

Dihedrals

1	10	51	50	49	52
2	5	107	109	110	111
3	1	11	9	8	18
4	17	56	55	64	65
5	5	7	23	24	27
6	17	129	128	133	134
7	11	15	14	31	32
7	12	15	14	31	32
8	1	31	33	69	67
9	1	36	38	67	68
10	1	39	38	67	69
11	1	77	78	79	81
12	1	9	8	18	19
13	13	38	39	40	42
14	1	80	79	78	89
15	18	120	121	123	124
16	1	46	45	44	54
17	1	104	105	107	108
18	1	105	107	109	110
19	1	38	67	69	70
20	13	44	39	64	65
21	5	77	94	95	98
22	1	37	36	38	67
23	2	16	13	14	31
24	1	105	104	142	143
25	17	43	40	39	64
26	5	52	54	55	56
27	5	36	38	39	44
28	17	41	40	39	64
29	1	82	81	83	87
30	5	115	127	128	137
31	5	16	18	19	21
32	13	44	39	64	55
33	1	121	120	125	126
34	5	8	18	19	21
35	5	38	39	44	54
36	1	73	75	77	94
37	1	106	105	107	109
38	13	127	128	129	132
39	1	33	69	67	38
40	17	57	56	55	60
41	1	77	78	89	90
42	1	72	99	94	95
43	1	107	105	104	142
44	1	75	77	94	99
45	1	74	73	75	76
46	13	115	110	137	128
47	10	49	50	102	104
48	1	78	79	81	83
49	1	46	45	47	48
50	1	107	109	140	141
51	13	38	39	40	43
52	1	74	73	75	77
53	1	141	140	142	143
54	1	116	118	120	125
55	10	51	50	102	103
56	1	6	5	7	8
57	1	116	118	120	121
58	17	133	128	137	139
59	13	54	55	56	57
60	2	11	13	14	31
61	1	48	47	49	50
62	1	49	52	54	55
63	17	111	110	137	138
64	3	30	1	71	101
65	1	80	79	81	83
66	3	30	1	71	72
67	1	1	2	3	5
68	1	44	45	47	48
69	17	58	56	55	60
70	2	99	72	71	101
71	10	32	31	33	69
72	1	107	109	140	142
73	1	2	3	5	6
74	2	1	71	72	73
75	5	125	127	128	137
76	4	79	78	77	94
77	1	13	16	18	19
78	1	109	140	142	143
79	1	45	47	49	50
80	4	75	77	78	89
81	13	110	137	128	127
82	1	104	105	107	109
83	1	121	120	125	127
84	5	116	115	110	137
85	1	4	3	5	7
86	17	59	56	55	60
87	1	77	94	99	100
88	13	115	110	137	139
89	17	60	55	64	66
90	5	115	127	128	129
91	1	110	115	127	125
92	17	130	129	128	137
93	10	14	31	33	69
94	14	110	137	128	129
94	15	110	137	128	129
94	16	110	137	128	129
95	1	44	54	52	49
96	13	54	55	60	61
97	5	44	54	55	60
98	1	110	115	116	117
99	2	73	72	71	101
100	1	5	7	23	28
101	1	14	13	16	18
102	4	5	7	8	9
103	1	50	49	52	53
104	1	44	54	52	53
105	5	64	39	38	67
106	17	129	128	133	136
107	13	44	39	64	66
108	1	34	33	69	67
109	5	97	95	94	99
110	1	39	44	45	47
111	1	71	72	73	75
112	5	111	110	109	140
113	5	36	38	39	40
114	5	16	18	19	22
115	1	119	118	120	125
116	5	8	18	19	22
117	1	9	11	13	14
118	1	34	36	38	39
119	5	87	89	90	93
120	1	79	78	89	87
121	1	14	13	16	17
122	17	56	55	60	63
123	1	75	73	72	99
124	1	119	118	120	121
125	5	125	127	128	129
126	1	36	34	33	69
127	1	81	83	87	88
128	13	127	128	133	134
129	6	13	14	31	32
129	7	13	14	31	32
130	1	7	8	9	11
131	13	54	55	60	63
132	1	8	18	16	13
133	5	109	110	115	116
134	17	129	128	133	135
135	17	134	133	128	137
136	1	48	47	49	52
137	1	33	69	67	68
138	5	44	54	55	56
139	1	110	109	140	141
140	10	103	102	104	105
141	1	78	77	94	95
142	17	56	55	60	62
143	17	42	40	39	64
144	13	109	110	111	113
145	1	45	47	49	52
146	1	108	107	109	110
147	1	72	73	75	76
148	10	122	121	120	125
149	2	81	83	84	85
150	5	78	89	90	93
151	5	38	39	44	45
152	1	72	73	75	77
153	5	54	44	39	64
154	13	127	128	129	131
155	2	85	84	83	87
156	1	3	2	28	23
157	1	12	11	13	14
158	5	26	24	23	28
159	1	110	109	140	142
160	5	77	94	95	96
161	17	129	128	137	139
162	1	117	116	118	119
163	1	71	72	99	100
164	13	54	55	64	65
165	1	8	9	11	13
166	1	126	125	127	128
167	1	3	5	7	23
168	5	16	18	19	20
169	1	79	81	83	87
170	10	52	49	50	102
171	1	118	120	125	126
172	5	8	18	19	20
173	17	40	39	64	65
174	1	47	49	52	53
175	1	46	45	47	49
176	1	5	3	2	28
177	14	39	64	55	60
177	15	39	64	55	60
177	16	39	64	55	60
178	1	72	99	94	77
179	13	39	64	55	54
180	2	28	2	1	71
181	17	136	133	128	137
182	1	76	75	77	78
183	2	86	84	83	87
184	13	42	40	39	44
185	4	89	78	77	94
186	1	39	44	45	46
187	17	132	129	128	133
188	13	43	40	39	44
189	5	52	54	55	64
190	1	102	104	105	106
191	5	137	110	109	140
192	13	41	40	39	44
193	1	39	44	54	52
194	1	81	83	87	89
195	1	44	45	47	49
196	5	45	44	39	64
197	5	111	110	115	127
198	2	1	71	72	99
199	5	7	23	24	26
200	1	77	78	89	87
201	1	5	7	23	24
202	1	11	13	16	18
203	13	127	128	137	138
204	13	38	39	40	41
205	1	45	44	54	52
206	1	104	142	140	141
207	1	117	116	118	120
208	1	84	83	87	88
209	13	109	110	111	114
210	1	33	34	36	37
211	8	15	14	31	33
211	9	15	14	31	33
212	5	107	109	110	115
213	17	133	128	137	138
214	1	7	23	28	29
215	17	56	55	64	66
216	1	39	44	54	55
217	1	34	33	69	70
218	5	44	39	38	67
219	1	95	94	99	100
220	2	15	14	13	16
221	5	40	39	44	45
222	1	8	7	23	24
223	1	118	116	115	127
224	1	4	3	2	28
225	14	39	64	55	56
225	15	39	64	55	56
225	16	39	64	55	56
226	1	4	3	5	6
227	13	127	128	133	136
228	5	77	94	95	97
229	1	45	44	54	55
230	1	79	78	89	90
231	1	7	8	18	16
232	13	109	110	137	138
233	1	81	79	78	89
234	5	96	95	94	99
235	1	3	2	28	29
236	1	11	13	16	17
237	1	73	72	99	100
238	1	50	49	52	54
239	17	131	129	128	137
240	10	118	120	121	122
241	1	78	89	87	88
242	2	11	13	14	15
243	13	38	39	64	65
244	10	51	50	102	104
245	4	5	7	8	18
246	1	31	33	34	36
247	1	31	33	69	70
248	1	74	73	72	99
249	5	109	110	115	127
250	2	81	83	84	86
251	13	54	55	56	58
252	1	106	105	107	108
253	17	130	129	128	133
254	13	54	55	56	59
255	17	61	60	55	64
256	5	7	23	24	25
257	1	73	75	77	78
258	5	107	109	110	137
259	1	8	18	16	17
260	1	78	77	94	99
261	17	135	133	128	137
262	1	110	115	116	118
263	13	38	39	64	55
264	2	28	2	1	30
265	1	116	115	127	128
266	10	47	49	50	51
267	13	112	111	110	115
268	1	17	16	18	19
269	17	62	60	55	64
270	10	118	120	121	123
271	1	39	38	67	68
272	5	87	89	90	91
273	1	10	9	11	13
274	10	32	31	33	34
275	1	7	8	9	10
276	17	60	55	64	65
277	14	111	110	137	128
277	15	111	110	137	128
277	16	111	110	137	128
278	1	36	38	67	69
279	1	84	83	87	89
280	13	113	111	110	115
281	13	114	111	110	115
282	1	78	79	81	82
283	1	73	72	99	94
284	1	77	78	79	80
285	1	8	9	11	12
286	1	102	104	142	140
287	1	2	28	23	24
288	17	58	56	55	64
289	1	24	23	28	29
290	13	54	55	60	62
291	4	9	8	7	23
292	4	75	77	78	79
293	10	14	31	33	34
294	1	88	87	89	90
295	17	59	56	55	64
296	1	9	8	18	16
297	1	80	79	81	82
298	4	18	8	7	23
299	1	3	5	7	8
300	17	132	129	128	137
301	1	83	87	89	90
302	1	105	104	142	140
303	1	106	105	104	142
304	17	112	111	110	137
305	2	3	2	1	71
306	5	78	89	90	91
307	1	115	127	125	126
308	5	44	54	55	64
309	1	68	67	69	70
310	1	35	34	33	69
311	17	111	110	137	139
312	5	115	110	109	140
313	17	113	111	110	137
314	1	34	36	38	67
315	17	114	111	110	137
316	13	109	110	137	128
317	5	27	24	23	28
318	10	50	102	104	142
319	1	1	2	28	23
320	5	115	127	128	133
321	1	47	49	52	54
322	14	40	39	64	55
322	15	40	39	64	55
322	16	40	39	64	55
323	13	127	128	137	139
324	14	110	137	128	133
324	15	110	137	128	133
324	16	110	137	128	133
325	17	129	128	137	138
326	1	105	107	109	140
327	1	33	34	36	38
328	1	2	3	5	7
329	1	6	5	7	23
330	13	38	39	64	66
331	5	87	89	90	92
332	1	71	72	99	94
333	1	108	107	109	140
334	1	71	72	73	74
335	1	75	77	94	95
336	8	13	14	31	33
336	9	13	14	31	33
337	17	63	60	55	64
338	1	31	33	34	35
339	1	117	116	115	127
340	1	115	116	118	119
341	5	127	115	110	137
342	19	122	121	123	124
342	20	122	121	123	124
343	1	118	120	125	127
344	1	7	8	18	19
345	1	1	2	3	4
346	13	109	110	137	139
347	17	56	55	60	61
348	1	37	36	38	39
349	1	2	28	23	7
350	1	9	11	13	16
351	1	82	81	83	84
352	13	109	110	111	112
353	1	10	9	8	18
354	3	2	1	71	101
355	10	103	102	104	142
356	5	125	127	128	133
357	3	2	1	71	72
358	13	115	110	137	138
359	1	47	45	44	54
360	5	78	89	90	92
361	5	111	110	115	116
362	1	110	115	127	128
363	13	127	128	129	130
364	1	76	75	77	94
365	10	50	102	104	105
366	1	53	52	54	55
367	5	40	39	44	54
368	5	98	95	94	99
369	5	52	54	55	60
370	1	116	115	127	125
371	1	10	9	11	12
372	1	79	81	83	84
373	17	57	56	55	64
374	5	40	39	38	67
375	1	102	104	105	107
376	2	3	2	1	30
377	10	49	50	102	103
378	13	54	55	64	66
379	1	120	125	127	128
380	1	35	34	36	38
381	1	8	7	23	28
382	5	36	38	39	64
383	1	115	116	118	120
384	10	123	121	120	125
385	1	78	89	87	83
386	13	127	128	133	135
387	10	47	49	50	102
388	1	104	142	140	109
389	1	1	2	28	29
390	17	40	39	64	66
391	1	115	127	125	120
392	1	35	34	36	37
393	17	131	129	128	133
394	5	25	24	23	28
395	1	12	11	13	16
396	1	102	104	142	143

Impropers

2	1	47	45	48	49
6	1	72	73	99	71
7	1	2	28	1	3
10	1	49	52	47	50
16	1	127	115	125	128
26	1	52	54	49	53
30	2	84	85	86	83
32	1	13	16	11	14
35	2	1	71	2	30
38	1	28	23	29	2
40	1	104	105	142	102
41	2	1	2	30	71
42	1	34	36	33	35
44	1	33	31	34	69
45	1	127	125	128	115
48	2	84	83	85	86
51	3	121	123	120	122
53	1	87	89	83	88
56	1	79	81	78	80
61	1	7	23	5	8
65	1	69	70	33	67
71	2	71	1	72	101
77	1	102	50	103	104
90	1	94	95	99	77
91	1	120	125	118	121
101	1	28	29	2	23
102	1	44	54	39	45
110	1	104	102	105	142
115	1	36	38	34	37
120	1	13	14	16	11
125	1	13	11	14	16
126	1	31	32	33	14
131	1	94	77	95	99
133	1	142	104	140	143
137	1	83	87	81	84
139	1	72	99	71	73
145	1	127	128	115	125
148	2	1	30	71	2
150	1	89	78	87	90
151	1	140	109	141	142
154	1	69	33	67	70
166	1	107	105	108	109
168	1	83	81	84	87
178	1	118	119	120	116
180	1	115	110	116	127
181	1	105	104	106	107
198	2	14	15	31	13
205	1	49	50	52	47
209	1	33	69	31	34
214	1	109	107	110	140
220	1	18	16	19	8
223	1	142	143	104	140
224	3	121	120	122	123
226	1	118	116	119	120
227	3	121	122	123	120
232	1	94	99	77	95
235	1	16	17	18	13
239	1	75	76	77	73
243	1	78	79	89	77
245	2	14	31	13	15
250	1	72	71	73	99
251	1	7	5	8	23
257	1	75	73	76	77
262	1	125	126	127	120
271	1	8	7	9	18
272	1	16	18	13	17
274	1	115	127	110	116
281	1	34	35	36	33
285	1	5	6	7	3
291	1	44	45	54	39
298	1	34	33	35	36
303	1	2	1	3	28
306	1	54	44	52	55
308	1	23	28	7	24
320	1	81	83	79	82
323	1	120	118	121	125
324	1	77	94	75	78
327	1	11	13	9	12
328	1	36	34	37	38
331	1	87	88	89	83
352	1	109	110	140	107
357	1	45	47	44	46
360	1	99	100	72	94
366	1	118	120	116	119
370	1	99	72	94	100
376	1	38	39	67	36
378	1	116	118	115	117
381	1	116	117	118	115
385	1	77	78	94	75
394	1	109	140	107	110
397	1	78	89	77	79
399	1	120	121	125	118
400	1	44	39	45	54
403	1	33	34	69	31
407	1	50	51	102	49
410	1	107	109	105	108
412	1	87	83	88	89
413	1	3	4	5	2
414	1	31	33	14	32
421	1	99	94	100	72
424	1	5	3	6	7
428	1	115	116	127	110
430	1	11	9	12	13
432	1	38	67	36	39
438	1	77	75	78	94
443	1	69	67	70	33
444	1	142	140	143	104
447	1	67	68	69	38
453	1	9	10	11	8
454	1	23	24	28	7
476	1	18	8	16	19
477	1	105	106	107	104
478	1	73	74	75	72
488	1	125	120	126	127
491	1	2	3	28	1
492	1	50	102	49	51
495	1	47	49	45	48
496	1	81	82	83	79
497	1	81	79	82	83
498	1	7	8	23	5
499	1	116	115	117	118
501	1	105	107	104	106
510	1	52	53	54	49
513	2	71	72	101	1
522	1	49	47	50	52
524	1	52	49	53	54
533	1	104	142	102	105
534	1	5	7	3	6
535	1	50	49	51	102
536	1	45	46	47	44
538	1	16	13	17	18
541	1	3	2	4	5
544	1	89	90	78	87
551	2	71	101	1	72
554	1	8	9	18	7
559	1	73	72	74	75
571	1	73	75	72	74
573	1	11	12	13	9
578	1	102	103	104	50
579	1	140	142	109	141
582	1	23	7	24	28
588	1	67	69	38	68
602	2	14	13	15	31
606	1	78	77	79	89
608	1	79	78	80	81
612	1	83	84	87	81
614	1	9	8	10	11
618	1	75	77	73	76
622	1	47	48	49	45
624	1	54	55	44	52
629	1	54	52	55	44
630	1	140	141	142	109
640	1	3	5	2	4
643	1	45	44	46	47
654	1	31	14	32	33
655	1	79	80	81	78
671	2	84	86	83	85
672	1	102	104	50	103
676	1	36	37	38	34
680	1	8	18	7	9
682	1	18	19	8	16
690	1	38	36	39	67
692	1	67	38	68	69
702	1	28	2	23	29
703	1	107	108	109	105
714	1	9	11	8	10
716	1	125	127	120	126
719	1	89	87	90	78
