Title

84 atoms
91 bonds
166 angles
335 dihedrals
78 impropers

9 atom types
13 bond types
6 angle types
13 dihedral types
2 improper types
-6.797999859 93.20200014 xlo xhi
-3.950000048 96.04999995 ylo yhi
-3.582000017 96.41799998 zlo zhi
0.0 0.0 0.0 xy xz yz

Masses

1	15.99943
2	12.01078
3	1.007947
4	12.01078
5	1.007947
6	15.99943
7	15.99943
8	1.007947
9	35.4532


Pair Coeffs

1	0.16846514	3.0251065
2	0.086879315	3.4806469
3	0.015611343	2.5725815
4	0.10884061	3.3795318
5	0.015779483	2.6445434
6	0.2102061	3.0398122
7	0.20947353	2.99716
8	1.2326e-05	0.53453923
9	0.2656001	3.3075278

Bond Coeffs

1 harmonic	425.69104206635	1.362945806494
2 harmonic	300.03137914615	1.451203938761
3 harmonic	360.7852444772	1.387193227181
4 harmonic	397.2545789619	1.085358495916
5 harmonic	289.73813263395	1.498646816465
6 harmonic	264.62148576755	1.52190126495
7 harmonic	301.15400723785	1.345741232799
8 harmonic	370.04670688625	1.093899492634
9 harmonic	582.698766451	1.225198386222
10 harmonic	279.1350963404	1.454628925034
11 harmonic	385.7604595587	1.369745182308
12 harmonic	543.5267831885	0.9716763312559
13 harmonic	218.0227703685	1.746066037062


Angle Coeffs

1 harmonic	57.8982893754	126.8062420451
2 harmonic	65.09061609600001	110.3538806181
3 harmonic	34.066775159195	129.1835929926
4 harmonic	53.20531626545	116.5475862634
5 harmonic	201.41175231035	127.4691416191
6 harmonic	48.776492647595	115.6030999533


Dihedral Coeffs

1 fourier 1	3.661930099076	2	180
2 fourier 1	1.532232714475	2	180
3 fourier 1	0.457973137376	1	0
4 fourier 1	0.02664938770063	3	0
5 fourier 1	0.1155372516788	3	0
6 fourier 1	0.1040663847541	3	0
7 fourier 1	0.09223874044423	3	0
8 fourier 1	0.3159935921949	2	180
9 fourier 1	0.3247796806857	1	180
10 fourier 1	2.779853741805	2	180
11 fourier 1	0.9974165607242	2	180
12 fourier 1	0.1911926717192	3	0
13 fourier 1	0.8283030590042	2	180


Improper Coeffs

1 0.3666666666666667	-1	2
2 3.5	-1	2


Atoms

1	1	1	-0.031970002	4.4000001	2.227	-2.5639999
2	1	2	0.27282301	3.375	1.5779999	-1.8789999
3	1	2	-0.329335	3.075	1.9069999	-0.616
4	1	3	0.22362401	3.6259999	2.687	-0.107
5	1	2	-0.172997	1.985	1.21	0.093999997
6	1	3	0.205933	1.761	1.524	1.105
7	1	2	-0.21303201	1.285	0.213	-0.49599999
8	1	4	-0.02916	0.117	-0.45199999	0.26699999
9	1	2	-0.21303201	-1.0190001	0.583	0.32600001
10	1	2	-0.173246	-1.125	1.483	1.33
11	1	3	0.20593201	-0.428	1.501	2.154
12	1	2	-0.28557801	-2.187	2.51	1.319
13	1	3	0.22289599	-2.2739999	3.1949999	2.1530001
14	1	2	0.433072	-3.0280001	2.6010001	0.28400001
15	1	1	-0.44400299	-4.0250001	3.572	0.28400001
16	1	2	-0.28557801	-2.885	1.674	-0.85699999
17	1	3	0.22289599	-3.5420001	1.7640001	-1.712
18	1	2	-0.173246	-1.933	0.73299998	-0.84500003
19	1	3	0.205933	-1.832	0.086999997	-1.706
20	1	4	-0.128125	0.61199999	-0.97899997	1.6670001
21	1	5	0.12202	1.684	-0.75199997	1.857
22	1	5	0.12202	0.032000002	-0.59799999	2.5320001
23	1	4	-0.131071	0.45500001	-2.5079999	1.575
24	1	5	0.136448	1.1109999	-3.076	2.27
25	1	4	-0.15647399	-1.034	-2.8499999	1.709
26	1	5	0.124118	-1.511	-2.3380001	2.573
27	1	5	0.124118	-1.168	-3.95	1.818
28	1	4	-0.156238	-1.603	-2.3670001	0.373
29	1	5	0.122754	-2.404	-1.614	0.52100003
30	1	5	0.122754	-2.03	-3.224	-0.19400001
31	1	4	-0.096373998	-0.35699999	-1.813	-0.36399999
32	1	5	0.13631099	-0.51999998	-1.824	-1.4579999
33	1	4	-0.134721	0.708	-2.7750001	0.113
34	1	5	0.12914699	0.505	-3.832	-0.17900001
35	1	5	0.12914699	1.738	-2.4960001	-0.205
36	1	2	-0.172997	1.6210001	-0.122	-1.916
37	1	3	0.205933	1.09	-0.88099998	-2.464
38	1	2	-0.329335	2.6070001	0.51899999	-2.556
39	1	3	0.22362401	2.8399999	0.26100001	-3.582
40	1	2	0.62624198	-4.6950002	3.6630001	-0.51800001
41	1	6	-0.51000297	-4.4299998	4.401	-1.452
42	1	1	-0.031970002	4.9499998	2.961	-2.1329999
43	1	2	0.27282301	4.527	3.609	-0.97399998
44	1	2	-0.329335	3.3710001	3.2809999	-0.384
45	1	3	0.22362401	2.7449999	2.5	-0.79900002
46	1	2	-0.172997	2.9389999	3.977	0.84299999
47	1	3	0.205933	2.01	3.6630001	1.3
48	1	2	-0.21303201	3.677	4.974	1.3839999
49	1	4	-0.02916	3.2119999	5.6389999	2.6989999
50	1	2	-0.21303201	3.424	4.605	3.8169999
51	1	2	-0.135727	2.474	3.704	4.1570001
52	1	3	0.20593201	1.508	3.687	3.675
53	1	2	-0.421754	2.7360001	2.678	5.1859999
54	1	3	0.22869299	1.946	1.993	5.4679999
55	1	2	0.42641199	3.9400001	2.5869999	5.7589998
56	1	7	-0.65247601	4.1760001	1.6160001	6.7280002
57	1	8	0.43114701	5.0819998	1.527	7.1719999
58	1	2	-0.421754	5.0149999	3.5139999	5.3499999
59	1	3	0.22869299	6.0019999	3.4230001	5.7859998
60	1	2	-0.135727	4.7779999	4.454	4.428
61	1	3	0.205933	5.5910001	5.1009998	4.1259999
62	1	4	-0.128125	1.735	6.1659999	2.549
63	1	5	0.12202	1.2970001	5.9400001	1.553
64	1	5	0.12202	1.0319999	5.7859998	3.3180001
65	1	4	-0.131071	1.862	7.6960001	2.681
66	1	5	0.136448	1.0319999	8.2629995	2.207
67	1	4	-0.15647399	2.0840001	8.0380001	4.158
68	1	5	0.124118	1.357	7.526	4.8270001
69	1	5	0.124118	2.01	9.1370001	4.3150001
70	1	4	-0.156238	3.517	7.5539999	4.395
71	1	5	0.122754	3.562	6.802	5.2090001
72	1	5	0.122754	4.1690001	8.4110003	4.6760001
73	1	4	-0.096373998	3.938	7	3.01
74	1	5	0.13631099	5.04	7.0120001	2.9089999
75	1	4	-0.134721	3.2219999	7.9619999	2.089
76	1	5	0.12914699	3.5539999	9.0190001	2.217
77	1	5	0.12914699	3.2869999	7.684	1.012
78	1	2	-0.172997	4.9770002	5.309	0.72100002
79	1	3	0.205933	5.6360002	6.0689998	1.107
80	1	2	-0.329335	5.3670001	4.6690001	-0.38800001
81	1	3	0.22362401	6.3080001	4.9260001	-0.85799998
82	1	2	0.465828	-5.6220002	3.102	-0.51700002
83	1	6	-0.59050399	-5.8470001	2.2980001	0.37200001
84	1	9	-0.091829002	-6.7979999	3.349	-1.794

Bonds

1	1	1	2
2	2	1	42
3	3	2	3
4	3	2	38
5	4	3	4
6	3	3	5
7	4	5	6
8	3	5	7
9	5	7	8
10	3	7	36
11	5	8	9
12	6	8	20
13	6	8	31
14	3	9	10
15	3	9	18
16	4	10	11
17	3	10	12
18	4	12	13
19	3	12	14
20	1	14	15
21	3	14	16
22	7	15	40
23	4	16	17
24	3	16	18
25	4	18	19
26	8	20	21
27	8	20	22
28	6	20	23
29	8	23	24
30	6	23	25
31	6	23	33
32	8	25	26
33	8	25	27
34	6	25	28
35	8	28	29
36	8	28	30
37	6	28	31
38	8	31	32
39	6	31	33
40	8	33	34
41	8	33	35
42	4	36	37
43	3	36	38
44	4	38	39
45	9	40	41
46	10	40	82
47	1	42	43
48	3	43	44
49	3	43	80
50	4	44	45
51	3	44	46
52	4	46	47
53	3	46	48
54	5	48	49
55	3	48	78
56	5	49	50
57	6	49	62
58	6	49	73
59	3	50	51
60	3	50	60
61	4	51	52
62	3	51	53
63	4	53	54
64	3	53	55
65	11	55	56
66	3	55	58
67	12	56	57
68	4	58	59
69	3	58	60
70	4	60	61
71	8	62	63
72	8	62	64
73	6	62	65
74	8	65	66
75	6	65	67
76	6	65	75
77	8	67	68
78	8	67	69
79	6	67	70
80	8	70	71
81	8	70	72
82	6	70	73
83	8	73	74
84	6	73	75
85	8	75	76
86	8	75	77
87	4	78	79
88	3	78	80
89	4	80	81
90	9	82	83
91	13	82	84

Angles

1	1	51	53	55
2	1	3	5	7
3	1	49	50	60
4	2	2	1	42
5	5	15	40	41
6	4	65	75	73
7	3	47	46	48
8	3	52	51	53
9	3	44	46	47
10	4	49	73	75
11	4	65	75	76
12	4	49	73	74
13	4	28	31	33
14	3	50	60	61
15	1	56	55	58
16	4	23	33	35
17	4	49	62	63
18	4	62	65	67
19	1	49	48	78
20	6	29	28	30
21	3	6	5	7
22	1	1	2	3
23	3	7	36	37
24	4	8	20	22
25	1	50	60	58
26	4	50	49	73
27	4	29	28	31
28	4	20	23	24
29	6	68	67	69
30	4	49	62	64
31	4	27	25	28
32	1	12	14	15
33	1	83	82	84
34	3	10	12	13
35	4	23	25	26
36	4	23	25	27
37	2	55	56	57
38	4	25	28	31
39	4	7	8	9
40	1	7	36	38
41	4	67	70	73
42	4	8	20	23
43	4	8	31	32
44	4	62	65	66
45	4	20	23	25
46	4	72	70	73
47	2	14	15	40
48	1	5	7	8
49	4	8	31	28
50	1	42	43	44
51	3	13	12	14
52	1	44	46	48
53	1	44	43	80
54	1	2	38	36
55	1	10	12	14
56	4	25	23	33
57	1	40	82	84
58	4	22	20	23
59	1	53	55	58
60	6	76	75	77
61	4	71	70	73
62	4	48	49	50
63	1	40	82	83
64	4	24	23	33
65	3	9	10	11
66	4	67	70	72
67	3	16	18	19
68	4	26	25	28
69	4	73	75	77
70	3	55	58	59
71	2	1	42	43
72	1	48	78	80
73	1	43	44	46
74	4	32	31	33
75	4	74	73	75
76	4	25	28	30
77	6	34	33	35
78	4	20	8	31
79	4	70	73	75
80	1	1	2	38
81	1	8	7	36
82	4	70	73	74
83	4	8	31	33
84	3	36	38	39
85	3	79	78	80
86	1	9	10	12
87	4	66	65	75
88	6	71	70	72
89	4	67	65	75
90	4	9	8	31
91	3	50	51	52
92	3	37	36	38
93	1	51	50	60
94	3	14	16	17
95	3	58	60	61
96	6	21	20	22
97	4	7	8	31
98	3	48	78	79
99	1	46	48	78
100	1	49	50	51
101	3	51	53	54
102	4	64	62	65
103	1	15	14	16
104	3	9	18	19
105	1	10	9	18
106	1	42	43	80
107	4	49	62	65
108	4	65	67	68
109	4	65	67	70
110	4	20	23	33
111	4	69	67	70
112	3	4	3	5
113	3	43	80	81
114	4	25	28	29
115	4	62	49	73
116	4	48	49	62
117	1	14	16	18
118	4	31	33	35
119	3	17	16	18
120	4	8	20	21
121	3	43	44	45
122	3	45	44	46
123	3	54	53	55
124	4	31	33	34
125	4	73	75	76
126	4	49	73	70
127	1	55	58	60
128	1	9	18	16
129	1	2	3	5
130	4	30	28	31
131	4	65	75	77
132	1	12	14	16
133	3	3	5	6
134	1	15	40	82
135	4	62	65	75
136	1	5	7	36
137	4	24	23	25
138	1	46	48	49
139	1	43	80	78
140	6	26	25	27
141	1	3	2	38
142	4	23	25	28
143	4	66	65	67
144	1	8	9	18
145	4	28	31	32
146	4	50	49	62
147	3	59	58	60
148	4	68	67	70
149	4	9	8	20
150	6	63	62	64
151	4	23	33	31
152	4	7	8	20
153	1	8	9	10
154	1	53	55	56
155	3	11	10	12
156	4	21	20	23
157	3	2	38	39
158	3	78	80	81
159	4	23	33	34
160	1	41	40	82
161	1	50	51	53
162	4	65	67	69
163	4	67	70	71
164	4	48	49	73
165	3	2	3	4
166	4	63	62	65

Dihedrals

1	1	51	53	55	58
2	1	8	9	10	11
3	4	60	50	49	62
4	11	15	40	82	84
5	12	69	67	70	71
6	6	29	28	31	33
7	7	20	23	25	28
7	8	20	23	25	28
7	9	20	23	25	28
8	6	49	73	75	76
9	1	59	58	60	61
10	1	11	10	12	14
11	6	8	31	33	34
12	7	8	31	28	25
12	8	8	31	28	25
12	9	8	31	28	25
13	1	9	10	12	13
14	4	46	48	49	62
15	1	44	46	48	49
16	12	27	25	28	29
17	5	50	49	62	65
18	12	26	25	28	30
19	1	37	36	38	39
20	1	5	3	2	38
21	5	7	8	31	33
22	1	43	44	46	47
23	6	67	65	75	77
24	1	6	5	7	8
25	2	38	2	1	42
26	1	2	3	5	6
27	1	45	44	46	48
28	1	45	44	43	80
29	1	12	10	9	18
30	6	67	65	75	76
31	7	20	23	33	31
31	8	20	23	33	31
31	9	20	23	33	31
32	4	18	9	8	31
33	1	10	9	18	16
34	12	74	73	75	77
35	12	24	23	25	26
36	1	5	7	36	37
37	6	26	25	28	31
38	12	24	23	25	27
39	1	52	51	53	55
40	4	20	8	7	36
41	2	1	42	43	44
42	6	66	65	75	73
43	7	20	8	31	33
43	8	20	8	31	33
43	9	20	8	31	33
44	12	30	28	31	32
45	1	46	48	78	80
46	4	9	8	7	36
47	6	20	23	33	34
48	4	48	49	50	60
49	4	10	9	8	31
50	12	66	65	75	76
51	1	8	9	18	19
52	13	53	55	56	57
53	6	62	65	67	68
54	11	41	40	82	84
55	6	65	75	73	74
56	7	67	70	73	75
56	8	67	70	73	75
56	9	67	70	73	75
57	1	1	2	3	5
58	7	23	33	31	28
58	8	23	33	31	28
58	9	23	33	31	28
59	6	8	20	23	24
60	4	18	9	8	20
61	7	20	8	31	28
61	8	20	8	31	28
61	9	20	8	31	28
62	6	67	70	73	74
63	12	68	67	70	71
64	6	8	31	33	35
65	1	47	46	48	49
66	12	26	25	28	29
67	7	49	73	75	65
67	8	49	73	75	65
67	9	49	73	75	65
68	1	50	51	53	55
69	5	7	8	20	21
70	4	10	9	8	20
71	1	11	10	9	18
72	2	16	14	15	40
73	6	8	31	28	30
74	5	48	49	62	63
75	7	8	20	23	25
75	8	8	20	23	25
75	9	8	20	23	25
76	1	4	3	5	6
77	6	62	65	75	77
78	6	62	65	67	69
79	5	50	49	73	75
80	6	65	67	70	71
81	2	14	15	40	41
82	6	63	62	65	67
83	1	1	2	38	36
84	6	22	20	23	33
85	5	50	49	73	74
86	4	62	49	48	78
87	1	3	5	7	36
88	1	46	44	43	80
89	1	53	51	50	60
90	11	15	40	82	83
91	1	43	80	78	79
92	6	68	67	65	75
93	6	69	67	70	73
94	10	14	15	40	82
95	1	49	50	51	53
96	7	70	67	65	75
96	8	70	67	65	75
96	9	70	67	65	75
97	1	2	3	5	7
98	2	3	2	1	42
99	6	20	23	33	35
100	6	25	28	31	32
101	5	9	8	20	21
102	1	54	53	55	56
103	1	2	38	36	37
104	7	67	65	75	73
104	8	67	65	75	73
104	9	67	65	75	73
105	6	30	28	31	33
106	6	21	20	8	31
107	1	8	9	10	12
108	7	49	62	65	75
108	8	49	62	65	75
108	9	49	62	65	75
109	1	43	44	46	48
110	5	48	49	62	64
111	12	64	62	65	66
112	5	48	49	73	70
113	1	51	50	60	61
114	1	10	12	14	16
115	7	23	20	8	31
115	8	23	20	8	31
115	9	23	20	8	31
116	1	15	14	16	17
117	1	9	10	12	14
118	1	42	43	44	45
119	1	49	50	60	61
120	12	74	73	75	76
121	1	1	2	3	4
122	6	8	31	28	29
123	6	49	73	70	71
124	1	56	55	58	59
125	6	21	20	23	33
126	1	43	80	78	48
127	1	79	78	80	81
128	12	63	62	65	66
129	12	69	67	70	72
130	6	72	70	73	75
131	2	12	14	15	40
132	4	51	50	49	73
133	1	8	7	36	37
134	5	7	8	20	22
135	6	22	20	8	31
136	1	56	55	58	60
137	6	64	62	65	67
138	11	41	40	82	83
139	12	72	70	73	74
140	4	5	7	8	9
141	1	5	7	36	38
142	4	5	7	8	31
143	12	66	65	67	68
144	6	66	65	67	70
145	1	4	3	5	7
146	1	15	14	16	18
147	1	46	48	78	79
148	6	63	62	49	73
149	6	68	67	70	73
150	1	3	2	38	39
151	1	51	53	55	56
152	7	62	65	75	73
152	8	62	65	75	73
152	9	62	65	75	73
153	1	42	43	80	81
154	7	25	28	31	33
154	8	25	28	31	33
154	9	25	28	31	33
155	7	49	73	70	67
155	8	49	73	70	67
155	9	49	73	70	67
156	5	9	8	20	22
157	6	62	65	75	76
158	1	6	5	7	36
159	5	50	49	62	63
160	7	65	67	70	73
160	8	65	67	70	73
160	9	65	67	70	73
161	1	8	9	18	16
162	7	8	20	23	33
162	8	8	20	23	33
162	9	8	20	23	33
163	13	57	56	55	58
164	4	60	50	49	73
165	7	25	23	33	31
165	8	25	23	33	31
165	9	25	23	33	31
166	6	69	67	65	75
167	4	31	8	7	36
168	1	17	16	18	19
169	7	28	25	23	33
169	8	28	25	23	33
169	9	28	25	23	33
170	1	53	55	58	59
171	1	44	43	80	81
172	4	50	49	48	78
173	6	70	73	75	77
174	7	62	49	73	70
174	8	62	49	73	70
174	9	62	49	73	70
175	4	46	48	49	73
176	6	25	23	33	34
177	12	68	67	70	72
178	1	52	51	50	60
179	2	1	42	43	80
180	1	14	16	18	19
181	5	9	8	31	32
182	1	2	38	36	7
183	1	13	12	14	15
184	5	50	49	62	64
185	6	20	23	25	26
186	5	48	49	73	75
187	6	20	23	25	27
188	6	28	31	33	35
189	4	7	8	9	18
190	7	49	62	65	67
190	8	49	62	65	67
190	9	49	62	65	67
191	5	48	49	73	74
192	4	48	49	50	51
193	4	73	49	48	78
194	1	12	14	16	17
195	6	23	25	28	30
196	6	24	23	25	28
197	6	65	67	70	72
198	6	49	73	75	77
199	4	7	8	9	10
200	5	48	49	62	65
201	1	51	50	60	58
202	6	71	70	73	75
203	3	2	1	42	43
204	6	24	23	33	31
205	1	42	43	80	78
206	6	64	62	49	73
207	1	49	50	60	58
208	12	71	70	73	74
209	6	27	25	23	33
210	12	21	20	23	24
211	7	8	31	33	23
211	8	8	31	33	23
211	9	8	31	33	23
212	6	28	31	33	34
213	7	23	25	28	31
213	8	23	25	28	31
213	9	23	25	28	31
214	1	44	46	48	78
215	1	45	44	46	47
216	12	29	28	31	32
217	12	24	23	33	34
218	4	46	48	49	50
219	1	54	53	55	58
220	1	49	48	78	80
221	1	50	51	53	54
222	1	3	5	7	8
223	12	32	31	33	35
224	1	12	14	16	18
225	6	25	23	33	35
226	1	50	60	58	59
227	1	8	7	36	38
228	5	7	8	20	23
229	5	7	8	31	32
230	4	5	7	8	20
231	1	4	3	2	38
232	1	7	36	38	39
233	1	9	18	16	14
234	1	9	18	16	17
235	6	21	20	23	25
236	1	44	43	80	78
237	7	65	75	73	70
237	8	65	75	73	70
237	9	65	75	73	70
238	12	66	65	75	77
239	6	49	62	65	66
240	5	7	8	31	28
241	1	1	2	38	39
242	1	10	12	14	15
243	1	48	78	80	81
244	4	51	50	49	62
245	12	66	65	67	69
246	12	27	25	28	30
247	6	23	25	28	29
248	1	42	43	44	46
249	6	49	73	70	72
250	1	49	50	51	52
251	6	64	62	65	75
252	5	9	8	31	33
253	12	22	20	23	24
254	12	32	31	33	34
255	1	50	60	58	55
256	1	55	58	60	61
257	1	49	48	78	79
258	6	23	33	31	32
259	7	62	65	67	70
259	8	62	65	67	70
259	9	62	65	67	70
260	6	20	8	31	32
261	1	11	10	12	13
262	1	53	55	58	60
263	5	9	8	20	23
264	7	65	62	49	73
264	8	65	62	49	73
264	9	65	62	49	73
265	6	70	73	75	76
266	1	3	2	38	36
267	1	13	12	14	16
268	6	26	25	23	33
269	6	27	25	28	31
270	7	62	49	73	75
270	8	62	49	73	75
270	9	62	49	73	75
271	5	9	8	31	28
272	1	10	9	18	19
273	1	47	46	48	78
274	1	52	51	53	54
275	6	22	20	23	25
276	6	63	62	65	75
277	6	62	49	73	74
278	5	50	49	73	70
279	12	24	23	33	35

Impropers

12	2	40	15	41	82
13	1	7	5	8	36
18	1	80	43	78	81
27	1	9	8	10	18
31	1	38	36	39	2
41	1	60	50	58	61
45	1	58	59	60	55
62	1	55	53	56	58
80	1	14	15	16	12
86	1	51	52	53	50
108	1	53	55	51	54
118	1	46	44	47	48
119	1	44	43	45	46
125	1	48	78	46	49
129	1	50	49	51	60
131	1	16	14	17	18
132	1	9	10	18	8
135	1	14	12	15	16
141	2	40	82	15	41
157	1	48	46	49	78
159	1	36	7	37	38
160	1	10	11	12	9
163	1	55	58	53	56
165	1	3	2	4	5
168	1	18	9	16	19
171	1	5	3	6	7
177	1	43	42	44	80
197	1	43	80	42	44
206	1	10	9	11	12
209	1	5	6	7	3
211	1	82	84	40	83
215	1	51	50	52	53
216	1	78	79	80	48
222	2	40	41	82	15
226	1	38	2	36	39
241	1	82	83	84	40
252	1	82	40	83	84
265	1	53	54	55	51
271	1	60	61	50	58
276	1	53	51	54	55
284	1	18	16	19	9
285	1	12	10	13	14
288	1	80	78	81	43
304	1	7	8	36	5
319	1	7	36	5	8
330	1	2	1	3	38
332	1	78	48	79	80
333	1	12	14	10	13
339	1	38	39	2	36
343	1	55	56	58	53
345	1	16	18	14	17
346	1	2	3	38	1
358	1	60	58	61	50
360	1	58	60	55	59
361	1	3	5	2	4
363	1	10	12	9	11
379	1	46	47	48	44
389	1	16	17	18	14
391	1	51	53	50	52
392	1	14	16	12	15
401	1	46	48	44	47
405	1	3	4	5	2
406	1	48	49	78	46
409	1	44	46	43	45
410	1	58	55	59	60
411	1	78	80	48	79
412	1	43	44	80	42
430	1	12	13	14	10
442	1	50	51	60	49
466	1	9	18	8	10
467	1	18	19	9	16
474	1	2	38	1	3
480	1	44	45	46	43
482	1	80	81	43	78
485	1	36	37	38	7
486	1	50	60	49	51
488	1	5	7	3	6
491	1	36	38	7	37
