Title

84 atoms
91 bonds
166 angles
335 dihedrals
78 impropers

9 atom types
13 bond types
6 angle types
13 dihedral types
2 improper types
-6.797999859 93.20200014 xlo xhi
-3.950000048 96.04999995 ylo yhi
-3.582000017 96.41799998 zlo zhi
0.0 0.0 0.0 xy xz yz

Masses

1	15.99943
2	12.01078
3	1.007947
4	12.01078
5	1.007947
6	15.99943
7	15.99943
8	1.007947
9	35.4532


Pair Coeffs

1	0.16846514	3.0251065
2	0.086879315	3.4806469
3	0.015611343	2.5725815
4	0.10884061	3.3795318
5	0.015779483	2.6445434
6	0.2102061	3.0398122
7	0.20947353	2.99716
8	1.2326e-05	0.53453923
9	0.2656001	3.3075278

Bond Coeffs

1 harmonic	425.69104206635	1.362945806494
2 harmonic	300.03137914615	1.451203938761
3 harmonic	360.7852444772	1.387193227181
4 harmonic	397.2545789619	1.085358495916
5 harmonic	289.73813263395	1.498646816465
6 harmonic	264.62148576755	1.52190126495
7 harmonic	301.15400723785	1.345741232799
8 harmonic	370.04670688625	1.093899492634
9 harmonic	582.698766451	1.225198386222
10 harmonic	279.1350963404	1.454628925034
11 harmonic	385.7604595587	1.369745182308
12 harmonic	543.5267831885	0.9716763312559
13 harmonic	218.0227703685	1.746066037062


Angle Coeffs

1 harmonic	57.8982893754	126.8062420451
2 harmonic	65.09061609600001	110.3538806181
3 harmonic	34.066775159195	129.1835929926
4 harmonic	53.20531626545	116.5475862634
5 harmonic	201.41175231035	127.4691416191
6 harmonic	48.776492647595	115.6030999533


Dihedral Coeffs

1 fourier 1	3.661930099076	2	180
2 fourier 1	1.532232714475	2	180
3 fourier 1	0.457973137376	1	0
4 fourier 1	0.02664938770063	3	0
5 fourier 1	0.1155372516788	3	0
6 fourier 1	0.1040663847541	3	0
7 fourier 1	0.09223874044423	3	0
8 fourier 1	0.3159935921949	2	180
9 fourier 1	0.3247796806857	1	180
10 fourier 1	2.779853741805	2	180
11 fourier 1	0.9974165607242	2	180
12 fourier 1	0.1911926717192	3	0
13 fourier 1	0.8283030590042	2	180


Improper Coeffs

1 0.3666666666666667	-1	2
2 3.5	-1	2


Atoms

1	1	1	-0.031970002	4.4000001	2.227	-2.5639999
2	1	2	0.27282301	3.375	1.5779999	-1.8789999
3	1	2	-0.329335	3.075	1.9069999	-0.616
4	1	3	0.22362401	3.6259999	2.687	-0.107
5	1	2	-0.172997	1.985	1.21	0.093999997
6	1	3	0.205933	1.761	1.524	1.105
7	1	2	-0.21303201	1.285	0.213	-0.49599999
8	1	4	-0.02916	0.117	-0.45199999	0.26699999
9	1	2	-0.21303201	-1.0190001	0.583	0.32600001
10	1	2	-0.173246	-1.125	1.483	1.33
11	1	3	0.20593201	-0.428	1.501	2.154
12	1	2	-0.28557801	-2.187	2.51	1.319
13	1	3	0.22289599	-2.2739999	3.1949999	2.1530001
14	1	2	0.433072	-3.0280001	2.6010001	0.28400001
15	1	1	-0.44400299	-4.0250001	3.572	0.28400001
16	1	2	-0.28557801	-2.885	1.674	-0.85699999
17	1	3	0.22289599	-3.5420001	1.7640001	-1.712
18	1	2	-0.173246	-1.933	0.73299998	-0.84500003
19	1	3	0.205933	-1.832	0.086999997	-1.706
20	1	4	-0.128125	0.61199999	-0.97899997	1.6670001
21	1	5	0.12202	1.684	-0.75199997	1.857
22	1	5	0.12202	0.032000002	-0.59799999	2.5320001
23	1	4	-0.131071	0.45500001	-2.5079999	1.575
24	1	5	0.136448	1.1109999	-3.076	2.27
25	1	4	-0.15647399	-1.034	-2.8499999	1.709
26	1	5	0.124118	-1.511	-2.3380001	2.573
27	1	5	0.124118	-1.168	-3.95	1.818
28	1	4	-0.156238	-1.603	-2.3670001	0.373
29	1	5	0.122754	-2.404	-1.614	0.52100003
30	1	5	0.122754	-2.03	-3.224	-0.19400001
31	1	4	-0.096373998	-0.35699999	-1.813	-0.36399999
32	1	5	0.13631099	-0.51999998	-1.824	-1.4579999
33	1	4	-0.134721	0.708	-2.7750001	0.113
34	1	5	0.12914699	0.505	-3.832	-0.17900001
35	1	5	0.12914699	1.738	-2.4960001	-0.205
36	1	2	-0.172997	1.6210001	-0.122	-1.916
37	1	3	0.205933	1.09	-0.88099998	-2.464
38	1	2	-0.329335	2.6070001	0.51899999	-2.556
39	1	3	0.22362401	2.8399999	0.26100001	-3.582
40	1	2	0.62624198	-4.6950002	3.6630001	-0.51800001
41	1	6	-0.51000297	-4.4299998	4.401	-1.452
42	1	1	-0.031970002	4.9499998	2.961	-2.1329999
43	1	2	0.27282301	4.527	3.609	-0.97399998
44	1	2	-0.329335	3.3710001	3.2809999	-0.384
45	1	3	0.22362401	2.7449999	2.5	-0.79900002
46	1	2	-0.172997	2.9389999	3.977	0.84299999
47	1	3	0.205933	2.01	3.6630001	1.3
48	1	2	-0.21303201	3.677	4.974	1.3839999
49	1	4	-0.02916	3.2119999	5.6389999	2.6989999
50	1	2	-0.21303201	3.424	4.605	3.8169999
51	1	2	-0.135727	2.474	3.704	4.1570001
52	1	3	0.20593201	1.508	3.687	3.675
53	1	2	-0.421754	2.7360001	2.678	5.1859999
54	1	3	0.22869299	1.946	1.993	5.4679999
55	1	2	0.42641199	3.9400001	2.5869999	5.7589998
56	1	7	-0.65247601	4.1760001	1.6160001	6.7280002
57	1	8	0.43114701	5.0819998	1.527	7.1719999
58	1	2	-0.421754	5.0149999	3.5139999	5.3499999
59	1	3	0.22869299	6.0019999	3.4230001	5.7859998
60	1	2	-0.135727	4.7779999	4.454	4.428
61	1	3	0.205933	5.5910001	5.1009998	4.1259999
62	1	4	-0.128125	1.735	6.1659999	2.549
63	1	5	0.12202	1.2970001	5.9400001	1.553
64	1	5	0.12202	1.0319999	5.7859998	3.3180001
65	1	4	-0.131071	1.862	7.6960001	2.681
66	1	5	0.136448	1.0319999	8.2629995	2.207
67	1	4	-0.15647399	2.0840001	8.0380001	4.158
68	1	5	0.124118	1.357	7.526	4.8270001
69	1	5	0.124118	2.01	9.1370001	4.3150001
70	1	4	-0.156238	3.517	7.5539999	4.395
71	1	5	0.122754	3.562	6.802	5.2090001
72	1	5	0.122754	4.1690001	8.4110003	4.6760001
73	1	4	-0.096373998	3.938	7	3.01
74	1	5	0.13631099	5.04	7.0120001	2.9089999
75	1	4	-0.134721	3.2219999	7.9619999	2.089
76	1	5	0.12914699	3.5539999	9.0190001	2.217
77	1	5	0.12914699	3.2869999	7.684	1.012
78	1	2	-0.172997	4.9770002	5.309	0.72100002
79	1	3	0.205933	5.6360002	6.0689998	1.107
80	1	2	-0.329335	5.3670001	4.6690001	-0.38800001
81	1	3	0.22362401	6.3080001	4.9260001	-0.85799998
82	1	2	0.465828	-5.6220002	3.102	-0.51700002
83	1	6	-0.59050399	-5.8470001	2.2980001	0.37200001
84	1	9	-0.091829002	-6.7979999	3.349	-1.794

Bonds

1	1	1	2
2	2	1	42
3	3	2	3
4	3	2	38
5	4	3	4
6	3	3	5
7	4	5	6
8	3	5	7
9	5	7	8
10	3	7	36
11	5	8	9
12	6	8	20
13	6	8	31
14	3	9	10
15	3	9	18
16	4	10	11
17	3	10	12
18	4	12	13
19	3	12	14
20	1	14	15
21	3	14	16
22	7	15	40
23	4	16	17
24	3	16	18
25	4	18	19
26	8	20	21
27	8	20	22
28	6	20	23
29	8	23	24
30	6	23	25
31	6	23	33
32	8	25	26
33	8	25	27
34	6	25	28
35	8	28	29
36	8	28	30
37	6	28	31
38	8	31	32
39	6	31	33
40	8	33	34
41	8	33	35
42	4	36	37
43	3	36	38
44	4	38	39
45	9	40	41
46	10	40	82
47	1	42	43
48	3	43	44
49	3	43	80
50	4	44	45
51	3	44	46
52	4	46	47
53	3	46	48
54	5	48	49
55	3	48	78
56	5	49	50
57	6	49	62
58	6	49	73
59	3	50	51
60	3	50	60
61	4	51	52
62	3	51	53
63	4	53	54
64	3	53	55
65	11	55	56
66	3	55	58
67	12	56	57
68	4	58	59
69	3	58	60
70	4	60	61
71	8	62	63
72	8	62	64
73	6	62	65
74	8	65	66
75	6	65	67
76	6	65	75
77	8	67	68
78	8	67	69
79	6	67	70
80	8	70	71
81	8	70	72
82	6	70	73
83	8	73	74
84	6	73	75
85	8	75	76
86	8	75	77
87	4	78	79
88	3	78	80
89	4	80	81
90	9	82	83
91	13	82	84

Angles

1	4	66	65	67
2	3	17	16	18
3	4	20	8	31
4	4	29	28	31
5	1	15	14	16
6	4	49	73	75
7	4	8	20	22
8	4	65	67	70
9	4	23	33	35
10	3	55	58	59
11	3	79	78	80
12	4	27	25	28
13	4	48	49	50
14	1	43	80	78
15	4	65	67	69
16	4	73	75	77
17	1	7	36	38
18	1	48	78	80
19	4	28	31	33
20	4	23	25	26
21	3	10	12	13
22	3	59	58	60
23	6	76	75	77
24	4	9	8	31
25	4	20	23	25
26	4	62	65	75
27	4	25	28	31
28	3	6	5	7
29	4	70	73	74
30	3	14	16	17
31	4	7	8	9
32	4	66	65	75
33	5	15	40	41
34	3	52	51	53
35	3	50	51	52
36	1	3	5	7
37	1	5	7	36
38	4	28	31	32
39	4	30	28	31
40	4	50	49	62
41	2	1	42	43
42	4	23	25	27
43	4	62	65	66
44	3	51	53	54
45	4	23	33	31
46	4	50	49	73
47	4	67	70	72
48	4	24	23	25
49	3	7	36	37
50	4	25	28	29
51	4	31	33	34
52	1	40	82	84
53	4	74	73	75
54	1	50	51	53
55	4	72	70	73
56	3	2	38	39
57	3	2	3	4
58	3	78	80	81
59	3	11	10	12
60	1	8	7	36
61	3	36	38	39
62	4	49	73	74
63	1	44	43	80
64	1	12	14	15
65	1	51	53	55
66	3	58	60	61
67	3	16	18	19
68	4	9	8	20
69	6	21	20	22
70	4	8	31	33
71	1	42	43	44
72	1	55	58	60
73	3	44	46	47
74	4	48	49	73
75	4	71	70	73
76	4	24	23	33
77	3	37	36	38
78	1	9	10	12
79	3	45	44	46
80	1	41	40	82
81	2	2	1	42
82	4	49	73	70
83	1	46	48	49
84	3	43	80	81
85	4	67	70	71
86	6	26	25	27
87	1	3	2	38
88	4	65	75	73
89	4	20	23	24
90	1	2	3	5
91	4	8	31	32
92	4	22	20	23
93	4	63	62	65
94	4	25	23	33
95	2	14	15	40
96	4	8	20	21
97	3	13	12	14
98	4	20	23	33
99	4	23	25	28
100	1	53	55	56
101	4	7	8	31
102	6	29	28	30
103	2	55	56	57
104	3	48	78	79
105	3	43	44	45
106	4	8	20	23
107	4	48	49	62
108	4	49	62	65
109	1	49	50	60
110	1	5	7	8
111	1	14	16	18
112	1	50	60	58
113	3	50	60	61
114	3	4	3	5
115	4	23	33	34
116	4	67	65	75
117	4	62	49	73
118	1	53	55	58
119	1	49	48	78
120	6	63	62	64
121	1	43	44	46
122	1	8	9	18
123	4	21	20	23
124	1	49	50	51
125	1	2	38	36
126	4	65	75	76
127	4	25	28	30
128	1	10	12	14
129	4	68	67	70
130	1	15	40	82
131	4	67	70	73
132	1	42	43	80
133	6	68	67	69
134	3	3	5	6
135	1	1	2	3
136	3	9	10	11
137	4	7	8	20
138	1	56	55	58
139	3	47	46	48
140	4	49	62	64
141	4	64	62	65
142	1	8	9	10
143	4	73	75	76
144	1	51	50	60
145	4	26	25	28
146	4	69	67	70
147	1	1	2	38
148	4	70	73	75
149	1	44	46	48
150	1	9	18	16
151	1	46	48	78
152	1	10	9	18
153	6	34	33	35
154	4	32	31	33
155	3	9	18	19
156	3	54	53	55
157	1	40	82	83
158	6	71	70	72
159	4	49	62	63
160	4	31	33	35
161	4	65	75	77
162	4	62	65	67
163	4	8	31	28
164	1	12	14	16
165	4	65	67	68
166	1	83	82	84

Dihedrals

1	4	7	8	9	18
2	12	68	67	70	71
3	1	14	16	18	19
4	3	2	1	42	43
5	6	68	67	70	73
6	7	8	31	33	23
6	8	8	31	33	23
6	9	8	31	33	23
7	6	22	20	23	33
8	6	28	31	33	34
9	6	70	73	75	76
10	5	9	8	20	23
11	1	13	12	14	15
12	6	20	23	33	35
13	7	65	67	70	73
13	8	65	67	70	73
13	9	65	67	70	73
14	7	8	20	23	33
14	8	8	20	23	33
14	9	8	20	23	33
15	6	67	65	75	77
16	7	62	49	73	70
16	8	62	49	73	70
16	9	62	49	73	70
17	1	1	2	38	39
18	1	10	12	14	16
19	1	3	5	7	8
20	1	12	14	16	18
21	4	18	9	8	20
22	1	1	2	3	4
23	6	29	28	31	33
24	1	44	43	80	78
25	11	41	40	82	84
26	1	44	46	48	78
27	1	45	44	43	80
28	1	47	46	48	49
29	1	51	53	55	58
30	12	66	65	75	76
31	12	74	73	75	76
32	1	53	55	58	60
33	1	45	44	46	47
34	5	50	49	62	64
35	5	48	49	73	70
36	4	20	8	7	36
37	4	31	8	7	36
38	6	66	65	67	70
39	1	4	3	5	6
40	4	7	8	9	10
41	7	8	31	28	25
41	8	8	31	28	25
41	9	8	31	28	25
42	2	16	14	15	40
43	10	14	15	40	82
44	6	23	25	28	30
45	4	5	7	8	20
46	1	52	51	53	54
47	12	63	62	65	66
48	1	8	7	36	38
49	12	21	20	23	24
50	1	43	44	46	48
51	6	24	23	25	28
52	6	64	62	65	75
53	5	9	8	31	32
54	7	20	8	31	28
54	8	20	8	31	28
54	9	20	8	31	28
55	1	9	10	12	14
56	1	2	38	36	7
57	12	32	31	33	35
58	1	11	10	9	18
59	1	43	80	78	48
60	6	49	62	65	66
61	7	70	67	65	75
61	8	70	67	65	75
61	9	70	67	65	75
62	4	46	48	49	50
63	6	21	20	8	31
64	5	9	8	20	21
65	1	46	48	78	80
66	6	21	20	23	33
67	6	22	20	8	31
68	4	10	9	8	31
69	2	12	14	15	40
70	12	22	20	23	24
71	1	37	36	38	39
72	6	69	67	65	75
73	1	15	14	16	18
74	1	59	58	60	61
75	1	10	9	18	16
76	1	1	2	3	5
77	12	24	23	33	34
78	7	25	23	33	31
78	8	25	23	33	31
78	9	25	23	33	31
79	7	65	75	73	70
79	8	65	75	73	70
79	9	65	75	73	70
80	5	48	49	62	65
81	1	6	5	7	36
82	1	50	60	58	55
83	1	52	51	53	55
84	6	70	73	75	77
85	5	7	8	31	28
86	4	48	49	50	60
87	1	5	7	36	37
88	1	11	10	12	14
89	1	10	9	18	19
90	1	4	3	5	7
91	13	53	55	56	57
92	6	20	23	25	26
93	12	66	65	75	77
94	12	74	73	75	77
95	1	42	43	80	78
96	6	25	23	33	35
97	6	8	31	28	30
98	4	48	49	50	51
99	6	71	70	73	75
100	1	2	38	36	37
101	6	63	62	65	75
102	2	38	2	1	42
103	7	62	49	73	75
103	8	62	49	73	75
103	9	62	49	73	75
104	1	5	7	36	38
105	5	7	8	20	22
106	6	67	70	73	74
107	5	9	8	31	28
108	1	8	7	36	37
109	12	26	25	28	30
110	6	27	25	28	31
111	7	49	62	65	75
111	8	49	62	65	75
111	9	49	62	65	75
112	12	69	67	70	72
113	6	20	23	33	34
114	6	49	73	75	76
115	1	44	46	48	49
116	1	9	18	16	14
117	7	62	65	75	73
117	8	62	65	75	73
117	9	62	65	75	73
118	1	46	44	43	80
119	1	49	50	51	52
120	6	8	31	33	35
121	1	54	53	55	56
122	1	10	12	14	15
123	1	48	78	80	81
124	5	48	49	62	64
125	1	49	48	78	79
126	1	43	44	46	47
127	1	1	2	38	36
128	1	5	3	2	38
129	6	26	25	23	33
130	4	10	9	8	20
131	12	29	28	31	32
132	1	79	78	80	81
133	1	8	9	10	12
134	7	25	28	31	33
134	8	25	28	31	33
134	9	25	28	31	33
135	1	44	43	80	81
136	7	23	20	8	31
136	8	23	20	8	31
136	9	23	20	8	31
137	1	51	50	60	58
138	1	53	55	58	59
139	1	51	50	60	61
140	12	27	25	28	29
141	4	73	49	48	78
142	4	9	8	7	36
143	1	50	51	53	54
144	1	53	51	50	60
145	4	5	7	8	9
146	7	28	25	23	33
146	8	28	25	23	33
146	9	28	25	23	33
147	5	50	49	73	75
148	6	30	28	31	33
149	12	68	67	70	72
150	1	54	53	55	58
151	1	9	10	12	13
152	4	51	50	49	62
153	1	45	44	46	48
154	1	56	55	58	59
155	1	8	9	10	11
156	4	60	50	49	62
157	5	50	49	73	74
158	1	2	3	5	6
159	6	65	67	70	72
160	1	3	2	38	36
161	5	48	49	62	63
162	1	49	50	60	58
163	7	67	65	75	73
163	8	67	65	75	73
163	9	67	65	75	73
164	1	49	50	60	61
165	1	12	14	16	17
166	12	69	67	70	71
167	6	62	65	67	68
168	6	24	23	33	31
169	4	51	50	49	73
170	4	60	50	49	73
171	6	49	73	75	77
172	7	8	20	23	25
172	8	8	20	23	25
172	9	8	20	23	25
173	1	3	5	7	36
174	1	50	51	53	55
175	12	71	70	73	74
176	6	72	70	73	75
177	6	62	65	75	76
178	1	4	3	2	38
179	1	7	36	38	39
180	1	8	9	18	16
181	1	50	60	58	59
182	12	26	25	28	29
183	1	11	10	12	13
184	6	62	49	73	74
185	12	24	23	33	35
186	6	23	33	31	32
187	6	68	67	65	75
188	5	48	49	73	75
189	6	25	23	33	34
190	12	30	28	31	32
191	7	67	70	73	75
191	8	67	70	73	75
191	9	67	70	73	75
192	7	62	65	67	70
192	8	62	65	67	70
192	9	62	65	67	70
193	6	63	62	49	73
194	1	8	9	18	19
195	7	65	62	49	73
195	8	65	62	49	73
195	9	65	62	49	73
196	6	28	31	33	35
197	12	24	23	25	26
198	6	23	25	28	29
199	5	7	8	31	33
200	6	62	65	67	69
201	11	15	40	82	83
202	11	41	40	82	83
203	1	6	5	7	8
204	6	20	23	25	27
205	2	1	42	43	44
206	5	9	8	20	22
207	1	42	43	44	46
208	1	12	10	9	18
209	4	62	49	48	78
210	6	64	62	65	67
211	6	49	73	70	72
212	1	47	46	48	78
213	6	27	25	23	33
214	1	46	48	78	79
215	1	9	18	16	17
216	6	8	31	33	34
217	6	65	67	70	71
218	1	15	14	16	17
219	4	46	48	49	62
220	12	66	65	67	68
221	1	49	50	51	53
222	5	9	8	31	33
223	6	26	25	28	31
224	12	32	31	33	34
225	7	20	23	25	28
225	8	20	23	25	28
225	9	20	23	25	28
226	1	43	80	78	79
227	11	15	40	82	84
228	6	21	20	23	25
229	1	52	51	50	60
230	6	67	65	75	76
231	4	46	48	49	73
232	2	1	42	43	80
233	5	7	8	31	32
234	7	23	25	28	31
234	8	23	25	28	31
234	9	23	25	28	31
235	12	24	23	25	27
236	2	14	15	40	41
237	7	23	33	31	28
237	8	23	33	31	28
237	9	23	33	31	28
238	4	18	9	8	31
239	6	66	65	75	73
240	6	69	67	70	73
241	5	7	8	20	21
242	6	65	75	73	74
243	6	8	31	28	29
244	7	20	8	31	33
244	8	20	8	31	33
244	9	20	8	31	33
245	6	22	20	23	25
246	6	25	28	31	32
247	6	62	65	75	77
248	12	66	65	67	69
249	1	56	55	58	60
250	7	49	73	70	67
250	8	49	73	70	67
250	9	49	73	70	67
251	6	63	62	65	67
252	1	49	48	78	80
253	5	50	49	62	65
254	1	55	58	60	61
255	1	3	2	38	39
256	1	13	12	14	16
257	1	42	43	44	45
258	7	49	62	65	67
258	8	49	62	65	67
258	9	49	62	65	67
259	13	57	56	55	58
260	4	5	7	8	31
261	12	72	70	73	74
262	5	7	8	20	23
263	6	49	73	70	71
264	6	64	62	49	73
265	12	27	25	28	30
266	5	48	49	73	74
267	1	51	53	55	56
268	5	50	49	62	63
269	5	50	49	73	70
270	4	50	49	48	78
271	1	17	16	18	19
272	7	49	73	75	65
272	8	49	73	75	65
272	9	49	73	75	65
273	7	20	23	33	31
273	8	20	23	33	31
273	9	20	23	33	31
274	6	8	20	23	24
275	1	42	43	80	81
276	12	64	62	65	66
277	6	20	8	31	32
278	1	2	3	5	7
279	2	3	2	1	42

Impropers

5	1	2	1	3	38
14	1	78	48	79	80
17	1	14	15	16	12
20	1	46	48	44	47
35	1	53	55	51	54
38	1	50	60	49	51
43	1	16	17	18	14
44	1	80	43	78	81
45	1	48	46	49	78
47	1	82	40	83	84
71	1	14	16	12	15
75	1	48	49	78	46
85	1	80	81	43	78
93	1	43	80	42	44
94	2	40	15	41	82
97	1	60	61	50	58
99	1	53	54	55	51
101	1	46	44	47	48
105	2	40	82	15	41
114	1	3	2	4	5
131	1	38	2	36	39
140	1	14	12	15	16
150	1	36	38	7	37
151	1	43	42	44	80
154	1	36	37	38	7
157	1	78	79	80	48
166	1	7	5	8	36
171	1	18	19	9	16
177	1	60	58	61	50
178	1	38	36	39	2
189	1	3	5	2	4
190	1	5	3	6	7
193	1	78	80	48	79
213	1	46	47	48	44
214	1	51	53	50	52
215	2	40	41	82	15
218	1	10	12	9	11
221	1	12	10	13	14
222	1	60	50	58	61
227	1	44	46	43	45
234	1	48	78	46	49
236	1	9	10	18	8
243	1	51	52	53	50
256	1	12	14	10	13
264	1	5	7	3	6
270	1	10	9	11	12
284	1	50	49	51	60
293	1	12	13	14	10
296	1	53	51	54	55
299	1	58	55	59	60
307	1	55	58	53	56
326	1	9	8	10	18
350	1	82	83	84	40
361	1	9	18	8	10
364	1	16	18	14	17
365	1	44	45	46	43
367	1	18	9	16	19
381	1	38	39	2	36
385	1	3	4	5	2
397	1	36	7	37	38
398	1	16	14	17	18
409	1	2	38	1	3
411	1	55	53	56	58
413	1	18	16	19	9
418	1	55	56	58	53
420	1	50	51	60	49
422	1	80	78	81	43
429	1	82	84	40	83
439	1	51	50	52	53
441	1	7	8	36	5
451	1	43	44	80	42
458	1	58	59	60	55
460	1	7	36	5	8
461	1	5	6	7	3
473	1	44	43	45	46
474	1	2	3	38	1
490	1	10	11	12	9
492	1	58	60	55	59
