Title

9875 atoms
10250 bonds
18625 angles
34625 dihedrals
6000 impropers

9 atom types
12 bond types
6 angle types
23 dihedral types
2 improper types
-9.069000244 90.93099976 xlo xhi
-7.638100147 92.36189985 ylo yhi
-9.169799805 90.8302002 zlo zhi
0.0 0.0 0.0 xy xz yz

Masses

1	15.99943
2	12.01078
3	1.007947
4	1.007947
5	12.01078
6	15.99943
7	1.007947
8	15.99943
9	1.007947


Pair Coeffs

1	0.16846514	3.0251065
2	0.10884061	3.3795318
3	0.015779483	2.6445434
4	0.016409246	2.5832257
5	0.086879315	3.4806469
6	0.2102061	3.0398122
7	0.015611343	2.5725815
8	0.20947353	2.99716
9	1.2326e-05	0.53453923

Bond Coeffs

1 harmonic	366.7408841747	1.425895053732
2 harmonic	300.03137914615	1.451203938761
3 harmonic	264.62148576755	1.52190126495
4 harmonic	370.04670688625	1.093899492634
5 harmonic	301.15400723785	1.345741232799
6 harmonic	582.698766451	1.225198386222
7 harmonic	279.1350963404	1.454628925034
8 harmonic	360.7852444772	1.387193227181
9 harmonic	397.2545789619	1.085358495916
10 harmonic	329.96998057905	1.427343958716
11 harmonic	543.5267831885	0.9716763312559
12 harmonic	385.7604595587	1.369745182308


Angle Coeffs

1 harmonic	53.20531626545	116.5475862634
2 harmonic	65.09061609600001	110.3538806181
3 harmonic	48.776492647595	115.6030999533
4 harmonic	201.41175231035	127.4691416191
5 harmonic	57.8982893754	126.8062420451
6 harmonic	34.066775159195	129.1835929926


Dihedral Coeffs

1 fourier 1	0.1115525666802	3	0
2 fourier 1	0.3432490222662	1	0
3 fourier 1	0.1155372516788	3	0
4 fourier 1	0.0473758381877	3	0
5 fourier 1	0.457973137376	1	0
6 fourier 1	0.1040663847541	3	0
7 fourier 1	0.09223874044423	3	0
8 fourier 1	0.3159935921949	2	180
9 fourier 1	0.3247796806857	1	180
10 fourier 1	0.1911926717192	3	0
11 fourier 1	0.1918272375143	3	0
12 fourier 1	0.9202179876409	1	180
13 fourier 1	1.163809172478	2	180
14 fourier 1	0.1679186987369	1	180
15 fourier 1	2.779853741805	2	180
16 fourier 1	0.9974165607242	2	180
17 fourier 1	3.661930099076	2	180
18 fourier 1	0.3445382149273	3	0
19 fourier 1	0.1364556373303	1	0
20 fourier 1	0.3026390167484	3	0
21 fourier 1	2.687457892086	2	180
22 fourier 1	2.772607909663	2	180
23 fourier 1	0.09692684957115	1	0


Improper Coeffs

1 3.5	-1	2
2 0.3666666666666667	-1	2


Atoms

1	4	1	-0.139322	-6.5258999	-3.3037	-0.87849998
2	4	2	0.019507	-5.4850998	-2.4832001	-1.3367
3	4	2	-0.070616998	-4.9787998	-1.5582	-0.2123
4	4	3	0.093038999	-5.8337998	-0.91759998	0.1011
5	4	2	-0.16237199	-3.8643999	-0.60780001	-0.72939998
6	4	3	0.100833	-3.9751	-0.41769999	-1.8198
7	4	3	0.100833	-3.9628	0.37830001	-0.2246
8	4	2	-0.162815	-2.4607	-1.1588	-0.44819999
9	4	3	0.10022	-1.7045	-0.48230001	-0.9016
10	4	3	0.10022	-2.359	-2.1394	-0.96319997
11	4	2	-0.071663	-2.2033	-1.3528	1.073
12	4	2	0.112726	-1.4507	-0.15620001	1.6794
13	4	1	-0.49167001	-0.1652	-0.065399997	1.1265
14	4	4	0.094223998	-2.0132	0.78390002	1.484
15	4	4	0.094223998	-1.3618	-0.2942	2.7804
16	4	3	0.089924999	-1.552	-2.2484	1.1882
17	4	2	-0.162815	-3.5076001	-1.6197	1.8669
18	4	3	0.10022	-3.2709	-2.2070999	2.7809999
19	4	3	0.10022	-3.9707999	-0.66250002	2.1953001
20	4	2	-0.16237199	-4.5278001	-2.3863001	1.0204
21	4	3	0.100833	-4.0679002	-3.348	0.70130002
22	4	3	0.100833	-5.414	-2.6308999	1.646
23	4	4	0.101217	-4.6543999	-3.1280999	-1.6964
24	4	4	0.101217	-5.8378	-1.878	-2.2030001
25	5	5	0.780123	0.27759999	0.76590002	1.562
26	5	6	-0.572312	-0.31310001	1.3430001	2.5118999
27	5	5	-0.309082	1.577	1.2568001	1.0705
28	5	5	-0.11081	2.1949999	0.62889999	0.056000002
29	5	7	0.20750199	1.7479	-0.2406	-0.41159999
30	5	5	-0.067872003	3.4985001	1.1149	-0.4427
31	5	7	0.189991	3.9730999	0.5891	-1.2618999
32	5	5	-0.370509	4.0816002	2.1898999	0.1138
33	5	5	0.57856399	5.3817	2.6679001	-0.3892
34	5	6	-0.61016202	5.9411998	3.6736	0.1218
35	5	5	-0.067872003	3.4008999	2.8845999	1.2357
36	5	7	0.189991	3.8548999	3.7528999	1.6964999
37	5	5	-0.11081	2.2200999	2.4452	1.6872
38	5	7	0.20750199	1.7384	2.9640999	2.5058999
39	1	1	-0.139322	-7.3292999	-2.7269001	-0.79970002
40	1	2	0.019507	-7.1447001	-1.9369	0.34450001
41	1	2	-0.070616998	-6.1048002	-0.82810003	0.0858
42	1	3	0.093038999	-5.1429	-1.329	-0.16779999
43	1	2	-0.161586	-5.8547001	0.0135	1.3668
44	1	3	0.100833	-6.0538001	-0.583	2.2837999
45	1	3	0.100833	-4.7832999	0.30849999	1.4069999
46	1	2	-0.15453	-6.7084999	1.2876	1.3936
47	1	3	0.100833	-6.5507002	1.8144	2.3587999
48	1	3	0.100833	-7.7803001	0.99339998	1.3654
49	1	2	-0.112026	-6.4050999	2.2202001	0.18629999
50	1	2	0.081583001	-5.4060001	3.3278	0.56199998
51	1	8	-0.669846	-5.9703002	4.1829	1.5174
52	1	9	0.38374901	-5.2758002	4.8597999	1.7273
53	1	4	0.090314001	-4.4713998	2.8747001	0.96450001
54	1	4	0.090314001	-5.1497002	3.9189	-0.34689999
55	1	3	0.096597001	-7.3600998	2.7175	-0.098800004
56	1	2	-0.15453	-5.8968	1.4403	-1.0532
57	1	3	0.100833	-6.1489	2.0074	-1.9759001
58	1	3	0.100833	-4.7898002	1.3293999	-1.0211
59	1	2	-0.161586	-6.5208001	0.044300001	-1.1274
60	1	3	0.100833	-7.6279998	0.1566	-1.1705
61	1	3	0.100833	-6.1992998	-0.45190001	-2.069
62	1	4	0.101217	-8.1191998	-1.4807	0.62379998
63	1	4	0.101217	-6.8196998	-2.5787001	1.1953
64	2	5	0.57856399	5.8716998	2.1554999	-1.2068
65	2	6	-0.61016202	6.2565999	2.8255999	-2.2014
66	2	5	-0.370509	6.0818	0.69800001	-1.151
67	2	5	-0.067872003	5.6657	-0.0016	-0.082099997
68	2	7	0.189991	5.1728001	0.49309999	0.7464
69	2	5	-0.108313	5.8720999	-1.4641	-0.0184
70	2	7	0.20750199	5.5233002	-1.9946001	0.85890001
71	2	5	-0.29764801	6.4798002	-2.1131999	-1.028
72	2	5	0.82627797	6.6943002	-3.5764999	-0.97930002
73	2	6	-0.549591	6.3099999	-4.2497001	0.0154
74	2	8	-0.67874801	7.3260999	-4.2242999	-2.0373001
75	2	9	0.39815199	7.4791999	-5.2255001	-2.0181999
76	2	5	-0.108313	6.9401999	-1.3389	-2.2086999
77	2	7	0.20750199	7.4308	-1.8388	-3.0342
78	2	5	-0.067872003	6.7518001	-0.0144	-2.2667999
79	2	7	0.189991	7.0953002	0.53170002	-3.1368001
80	4	1	-0.139322	-2.9440999	4.4784002	23.743299
81	4	2	0.019507	-2.0658	4.2237	22.680201
82	4	2	-0.070616998	-1.3968	2.8440001	22.838699
83	4	3	0.093038999	-0.81830001	2.8626001	23.7899
84	4	2	-0.16237199	-0.38069999	2.5804999	21.693899
85	4	3	0.100833	0.0283	3.5349	21.294701
86	4	3	0.100833	0.48429999	2.01	22.0979
87	4	2	-0.162815	-1.0013	1.773	20.546801
88	4	3	0.10022	-0.26010001	1.6765	19.7244
89	4	3	0.10022	-1.8588001	2.3497	20.135401
90	4	2	-0.071663	-1.5039999	0.3793	21.018999
91	4	2	0.112726	-0.4682	-0.72310001	20.739799
92	4	1	-0.49167001	-0.2895	-0.87709999	19.3575
93	4	4	0.094223998	0.50150001	-0.46239999	21.219299
94	4	4	0.094223998	-0.82800001	-1.6859	21.167299
95	4	3	0.089924999	-2.4154	0.13689999	20.427299
96	4	2	-0.162815	-1.9037	0.368	22.5166
97	4	3	0.10022	-2.6682	-0.42089999	22.689699
98	4	3	0.10022	-1.025	0.12809999	23.1562
99	4	2	-0.16237199	-2.4651	1.7241	22.9533
100	4	3	0.100833	-3.3499999	1.9584	22.320601
101	4	3	0.100833	-2.8160999	1.6540999	24.006201
102	4	4	0.101217	-2.6386001	4.2572999	21.728399
103	4	4	0.101217	-1.2916	5.0233998	22.6329
104	5	5	0.780123	0.42860001	-1.6171	19.240601
105	5	6	-0.572312	0.81129998	-2.2595999	20.253201
106	5	5	-0.309082	0.98640001	-1.9051	17.9076
107	5	5	-0.11081	0.56660002	-1.2108001	16.8367
108	5	7	0.20750199	-0.1823	-0.43399999	16.9391
109	5	5	-0.067872003	1.1210001	-1.4935	15.4963
110	5	7	0.189991	0.764	-0.91759998	14.6515
111	5	5	-0.370509	2.0506999	-2.4497001	15.3329
112	5	5	0.57856399	2.5982001	-2.7256999	13.9928
113	5	6	-0.61016202	3.4697001	-3.6185999	13.823
114	5	5	-0.067872003	2.5151999	-3.2190001	16.514799
115	5	7	0.189991	3.2641001	-3.9928999	16.403
116	5	5	-0.11081	2.0139	-2.9626999	17.728901
117	5	7	0.20750199	2.3643	-3.5334001	18.579201
118	1	1	-0.139322	-2.3815	4.6859999	24.533701
119	1	2	0.019507	-1.8430001	3.4676001	24.973301
120	1	2	-0.070616998	-0.72299999	2.9881001	24.0282
121	1	3	0.093038999	-1.1785001	2.8412001	23.0226
122	1	2	-0.161586	-0.1628	1.6115	24.4786
123	1	3	0.100833	-0.92919999	1.0293	25.0355
124	1	3	0.100833	0.099399999	1.0116	23.579599
125	1	2	-0.15453	1.094	1.7578	25.3458
126	1	3	0.100833	1.4114	0.755	25.7034
127	1	3	0.100833	0.8301	2.3471999	26.250799
128	1	2	-0.112026	2.2464001	2.477	24.588499
129	1	2	0.081583001	3.2376001	1.472	23.976999
130	1	8	-0.669846	3.8908999	0.76050001	24.9916
131	1	9	0.38374901	4.4991999	0.1232	24.534901
132	1	4	0.090314001	2.6961999	0.76529998	23.307301
133	1	4	0.090314001	3.9960999	2.0209	23.373199
134	1	3	0.096597001	2.8076	3.0841999	25.334801
135	1	2	-0.15453	1.7253	3.4454	23.495899
136	1	3	0.100833	2.4719	4.2526999	23.330601
137	1	3	0.100833	1.5911	2.9112	22.5287
138	1	2	-0.161586	0.38429999	4.0662999	23.895599
139	1	3	0.100833	0.52209997	4.6097999	24.8578
140	1	3	0.100833	0.083700001	4.8147998	23.130199
141	1	4	0.101217	-1.4361	3.6068001	25.998301
142	1	4	0.101217	-2.6494999	2.7012	25.034599
143	2	5	0.57856399	2.2537999	-2.161	13.1362
144	2	6	-0.61016202	3.1048	-1.6144	12.3856
145	2	5	-0.370509	0.8118	-2.0374999	12.8587
146	2	5	-0.067872003	-0.082599998	-2.6277001	13.6691
147	2	7	0.189991	0.24240001	-3.197	14.5319
148	2	5	-0.108313	-1.531	-2.5083001	13.3982
149	2	7	0.20750199	-2.2221999	-2.9972	14.0733
150	2	5	-0.29764801	-1.9724	-1.8092	12.3368
151	2	5	0.82627797	-3.4187	-1.6806999	12.0515
152	2	6	-0.549591	-4.2726998	-2.227	12.8014
153	2	8	-0.67874801	-3.8494999	-0.95179999	10.9464
154	2	9	0.39815199	-4.8362002	-0.85460001	10.739
155	2	5	-0.108313	-0.98299998	-1.1581	11.4409
156	2	7	0.20750199	-1.3135999	-0.58929998	10.5812
157	2	5	-0.067872003	0.32890001	-1.2652	11.6875
158	2	7	0.189991	1.0339	-0.78289998	11.0216
159	4	1	-0.139322	-0.44119999	-5.5732002	42.174999
160	4	2	0.019507	-0.86669999	-4.9006	41.0205
161	4	2	-0.070616998	-0.90579998	-3.3775001	41.2547
162	4	3	0.093038999	-1.6344	-3.1861	42.074501
163	4	2	-0.16237199	-1.4302	-2.6317	39.9972
164	4	3	0.100833	-2.1038001	-3.2832999	39.3978
165	4	3	0.100833	-2.0387001	-1.758	40.3186
166	4	2	-0.162815	-0.28690001	-2.1261001	39.108299
167	4	3	0.10022	-0.71280003	-1.6683	38.189499
168	4	3	0.10022	0.31400001	-3.0016999	38.777599
169	4	2	-0.071663	0.63849998	-1.127	39.859001
170	4	2	0.112726	0.25799999	0.33340001	39.561699
171	4	1	-0.49167001	0.4756	0.62159997	38.206799
172	4	4	0.094223998	-0.81110001	0.50629997	39.817699
173	4	4	0.094223998	0.88559997	1.0128	40.181198
174	4	3	0.089924999	1.6737	-1.2846	39.480801
175	4	2	-0.162815	0.65899998	-1.3714	41.3895
176	4	3	0.10022	1.6253	-1.0142	41.808399
177	4	3	0.10022	-0.1541	-0.79949999	41.8899
178	4	2	-0.16237199	0.4804	-2.8562	41.7188
179	4	3	0.100833	1.2998	-3.4263	41.227001
180	4	3	0.100833	0.5826	-3.0035999	42.8162
181	4	4	0.101217	-0.1649	-5.1362	40.191399
182	4	4	0.101217	-1.8742	-5.2697001	40.720699
183	5	5	0.780123	0.18440001	1.6085	38.0718
184	5	6	-0.572312	-0.1064	2.3011	39.081799
185	5	5	-0.309082	0.1148	2.1823001	36.716499
186	5	5	-0.11081	0.42930001	1.4298	35.648701
187	5	7	0.20750199	0.73519999	0.3971	35.769798
188	5	5	-0.067872003	0.36219999	1.9978	34.286201
189	5	7	0.189991	0.62110001	1.3676	33.444401
190	5	5	-0.370509	-0.0129	3.2744999	34.0993
191	5	5	0.57856399	-0.076899998	3.8334	32.737202
192	5	6	-0.61016202	-0.42640001	5.0279002	32.545502
193	5	5	-0.067872003	-0.35980001	4.1082001	35.277901
194	5	7	0.189991	-0.6649	5.1388001	35.1474
195	5	5	-0.11081	-0.2999	3.5939	36.5121
196	5	7	0.20750199	-0.55629998	4.2163	37.3596
197	1	1	-0.139322	-1.1999	-5.5496001	42.8139
198	1	2	0.019507	-1.2556	-4.2433	43.3218
199	1	2	-0.070616998	-1.8246	-3.2683001	42.271301
200	1	3	0.093038999	-1.1374	-3.2874999	41.3951
201	1	2	-0.161586	-1.8347	-1.8113	42.808701
202	1	3	0.100833	-1.0402	-1.6596	43.571602
203	1	3	0.100833	-1.61	-1.1121	41.973701
204	1	2	-0.15453	-3.1942	-1.4285001	43.407299
205	1	3	0.100833	-3.1287	-0.40900001	43.843601
206	1	3	0.100833	-3.4145	-2.1194999	44.250099
207	1	2	-0.112026	-4.3408999	-1.5211	42.3606
208	1	2	0.081583001	-4.6490002	-0.1505	41.733898
209	1	8	-0.669846	-5.1487002	0.72399998	42.7076
210	1	9	0.38374901	-5.3109002	1.5876	42.246601
211	1	4	0.090314001	-3.7248001	0.27559999	41.2808
212	1	4	0.090314001	-5.4120998	-0.2735	40.931599
213	1	3	0.096597001	-5.2575998	-1.8533	42.898998
214	1	2	-0.15453	-4.0485001	-2.5625	41.250198
215	1	3	0.100833	-5.0086002	-2.9446001	40.8395
216	1	3	0.100833	-3.4881999	-2.0946	40.41
217	1	2	-0.161586	-3.2232001	-3.7341001	41.788799
218	1	3	0.100833	-3.7895999	-4.2084999	42.6222
219	1	3	0.100833	-3.1047001	-4.4977999	40.989399
220	1	4	0.101217	-1.9011	-4.2396998	44.2267
221	1	4	0.101217	-0.237	-3.9191	43.636101
222	2	5	0.57856399	0.17820001	3.2193999	31.8834
223	2	6	-0.61016202	-0.6322	3.1470001	30.922001
224	2	5	-0.370509	1.4542	2.4827001	31.8528
225	2	5	-0.067872003	2.3076999	2.5717001	32.886501
226	2	7	0.189991	2.0702	3.1809001	33.7505
227	2	5	-0.108313	3.5896001	1.8355	32.863998
228	2	7	0.20750199	4.2522001	1.9312	33.715099
229	2	5	-0.29764801	3.9189	1.0687	31.808701
230	2	5	0.82627797	5.1982002	0.32600001	31.770599
231	2	6	-0.549591	6.0114002	0.39680001	32.7318
232	2	8	-0.67874801	5.5153999	-0.4605	30.6665
233	2	9	0.39815199	6.3870001	-0.97509998	30.626699
234	2	5	-0.108313	2.9751999	0.97180003	30.6661
235	2	7	0.20750199	3.2172	0.3603	29.8062
236	2	5	-0.067872003	1.8135	1.6375	30.687401
237	2	7	0.189991	1.1394	1.5535001	29.843901
238	4	1	-0.139322	4.7262998	-4.8509002	58.965
239	4	2	0.019507	3.8396001	-4.4397998	57.9594
240	4	2	-0.070616998	2.5839	-3.7848001	58.5681
241	4	3	0.093038999	2.0831001	-4.5516	59.201302
242	4	2	-0.16237199	1.5729001	-3.3785999	57.461201
243	4	3	0.100833	1.6808	-4.0268002	56.563599
244	4	3	0.100833	0.53789997	-3.5307	57.838799
245	4	2	-0.162815	1.7282	-1.909	57.0499
246	4	3	0.10022	1.0371	-1.6898	56.2076
247	4	3	0.10022	2.7597001	-1.7605	56.661201
248	4	2	-0.071663	1.4884	-0.94029999	58.242401
249	4	2	0.112726	0.048799999	-0.39860001	58.2542
250	4	1	-0.49167001	-0.1761	0.396	57.120899
251	4	4	0.094223998	-0.67430001	-1.2443	58.272099
252	4	4	0.094223998	-0.1063	0.22040001	59.166302
253	4	3	0.089924999	2.1700001	-0.070500001	58.106201
254	4	2	-0.162815	1.8256	-1.587	59.610199
255	4	3	0.10022	2.1099	-0.79299998	60.334999
256	4	3	0.10022	0.93830001	-2.1157999	60.024502
257	4	2	-0.16237199	2.9732001	-2.5929	59.4827
258	4	3	0.100833	3.8633001	-2.0613	59.078499
259	4	3	0.100833	3.2413001	-2.9737	60.4925
260	4	4	0.101217	4.3608999	-3.7132001	57.2994
261	4	4	0.101217	3.5516	-5.3143001	57.332298
262	5	5	0.780123	-1.1627001	0.7119	57.181801
263	5	6	-0.572312	-1.8138	0.47600001	58.232899
264	5	5	-0.309082	-1.7841001	1.4244	56.051701
265	5	5	-0.11081	-1.0750999	1.6691999	54.937
266	5	7	0.20750199	-0.043699998	1.3466001	54.854801
267	5	5	-0.067872003	-1.6911	2.3831999	53.799198
268	5	7	0.189991	-1.0955	2.5660999	52.913399
269	5	5	-0.370509	-2.9675	2.7974999	53.867001
270	5	5	0.57856399	-3.5741	3.5092001	52.728001
271	5	6	-0.61016202	-4.7688999	3.904	52.7761
272	5	5	-0.067872003	-3.7525001	2.5290999	55.098301
273	5	7	0.189991	-4.7825999	2.8546	55.171299
274	5	5	-0.11081	-3.1952	1.8818001	56.1287
275	5	7	0.20750199	-3.7825999	1.6948	57.018398
276	1	1	-0.139322	4.3319001	-5.6622	59.377998
277	1	2	0.019507	3.2674	-5.2261	60.180698
278	1	2	-0.070616998	2.0597	-4.8123002	59.3158
279	1	3	0.093038999	2.391	-3.9714999	58.665001
280	1	2	-0.161586	0.89929998	-4.2747998	60.196899
281	1	3	0.100833	1.2839	-3.8410001	61.145802
282	1	3	0.100833	0.38280001	-3.4505	59.658001
283	1	2	-0.15453	-0.132	-5.3642001	60.517101
284	1	3	0.100833	-0.89819998	-4.9520001	61.207901
285	1	3	0.100833	0.3809	-6.1834998	61.066399
286	1	2	-0.112026	-0.78649998	-5.9456	59.231602
287	1	2	0.081583001	-2.1384001	-5.2761002	58.930599
288	1	8	-0.669846	-3.0596001	-5.572	59.9436
289	1	9	0.38374901	-3.8987999	-5.1016998	59.700401
290	1	4	0.090314001	-2.0055001	-4.1729999	58.850201
291	1	4	0.090314001	-2.5320001	-5.6567001	57.9604
292	1	3	0.096597001	-0.98540002	-7.0256	59.418098
293	1	2	-0.15453	0.1442	-5.8491001	57.995701
294	1	3	0.100833	-0.1154	-6.6536999	57.273399
295	1	3	0.100833	0.0063	-4.8751998	57.4748
296	1	2	-0.161586	1.6163	-5.9796	58.3955
297	1	3	0.100833	1.7555	-6.9590998	58.906898
298	1	3	0.100833	2.2460001	-5.9896002	57.479198
299	1	4	0.101217	2.9748001	-6.0521002	60.864498
300	1	4	0.101217	3.5997	-4.3706002	60.812401
301	2	5	0.57856399	-2.9949999	3.7016001	51.834301
302	2	6	-0.61016202	-3.4698999	3.3652999	50.7173
303	2	5	-0.370509	-1.6734	4.3463998	51.929901
304	2	5	-0.067872003	-1.1819	4.6996002	53.129398
305	2	7	0.189991	-1.7464	4.5151	54.035702
306	2	5	-0.108313	0.1433	5.3464999	53.2341
307	2	7	0.20750199	0.50690001	5.6169	54.217602
308	2	5	-0.29764801	0.87339997	5.5911999	52.131001
309	2	5	0.82627797	2.2012999	6.2382998	52.2188
310	2	6	-0.549591	2.6791	6.5760002	53.335899
311	2	8	-0.67874801	2.9368999	6.4808002	51.061901
312	2	9	0.39815199	3.8475001	6.9222002	51.106602
313	2	5	-0.108313	0.32890001	5.2013998	50.805401
314	2	7	0.20750199	0.89810002	5.3868999	49.9034
315	2	5	-0.067872003	-0.87080002	4.6141	50.710999
316	2	7	0.189991	-1.2499	4.3379002	49.734699
317	4	1	-0.139322	2.0172	2.8131001	81.257896
318	4	2	0.019507	2.312	2.1909001	80.036201
319	4	2	-0.070616998	1.2579	1.1184	79.697304
320	4	3	0.093038999	1.2871	0.35600001	80.508301
321	4	2	-0.16237199	1.6102999	0.38699999	78.3731
322	4	3	0.100833	2.7074001	0.39829999	78.189697
323	4	3	0.100833	1.3144	-0.68180001	78.456802
324	4	2	-0.162815	0.88590002	0.99790001	77.166801
325	4	3	0.10022	1.2276	0.49020001	76.239197
326	4	3	0.10022	1.1914999	2.0636001	77.076698
327	4	2	-0.071663	-0.66030002	0.92180002	77.314102
328	4	2	0.112726	-1.2423	-0.29589999	76.576401
329	4	1	-0.49167001	-1.039	-0.1647	75.195198
330	4	4	0.094223998	-0.75770003	-1.2283	76.942596
331	4	4	0.094223998	-2.3354001	-0.36199999	76.776199
332	4	3	0.089924999	-1.0848	1.8339	76.837097
333	4	2	-0.162815	-1.1163	0.91530001	78.795601
334	4	3	0.10022	-2.1426001	1.3374	78.868797
335	4	3	0.10022	-1.1533	-0.1243	79.191002
336	4	2	-0.16237199	-0.1664	1.7343	79.674202
337	4	3	0.100833	-0.138	2.7764001	79.284798
338	4	3	0.100833	-0.56849998	1.7754	80.710197
339	4	4	0.101217	2.3326001	2.9640999	79.237999
340	4	4	0.101217	3.3261001	1.7322	80.083603
341	5	5	0.780123	-1.4359	-1.0206	74.762901
342	5	6	-0.572312	-2.092	-1.818	75.482697
343	5	5	-0.309082	-1.2302999	-1.291	73.3293
344	5	5	-0.11081	-0.52819997	-0.42919999	72.574501
345	5	7	0.20750199	-0.1057	0.46970001	73.008202
346	5	5	-0.067872003	-0.31760001	-0.69300002	71.135803
347	5	7	0.189991	0.25279999	0.019099999	70.552399
348	5	5	-0.370509	-0.82730001	-1.7976	70.5653
349	5	5	0.57856399	-0.61299998	-2.0531001	69.129799
350	5	6	-0.61016202	-1.0843	-3.0834	68.5802
351	5	5	-0.067872003	-1.6045001	-2.7507	71.397102
352	5	7	0.189991	-2.0225	-3.6465001	70.955498
353	5	5	-0.11081	-1.7948	-2.5125	72.700302
354	5	7	0.20750199	-2.3640001	-3.2183001	73.291397
355	1	1	-0.139322	2.2458	2.1624	81.971001
356	1	2	0.019507	1.2356	1.1892	81.964302
357	1	2	-0.070616998	1.3871	0.2473	80.7528
358	1	3	0.093038999	1.2955	0.87110001	79.834801
359	1	2	-0.161586	0.23800001	-0.79650003	80.709198
360	1	3	0.100833	-0.67820001	-0.4052	81.203102
361	1	3	0.100833	-0.034000002	-0.99669999	79.649696
362	1	2	-0.15453	0.64130002	-2.1236999	81.363998
363	1	3	0.100833	-0.23379999	-2.8079	81.375198
364	1	3	0.100833	0.90210003	-1.9266	82.426697
365	1	2	-0.112026	1.8602999	-2.7790999	80.654404
366	1	2	0.081583001	1.4187	-3.8440001	79.635902
367	1	8	-0.669846	0.79519999	-4.9120002	80.294098
368	1	9	0.38374901	0.52209997	-5.5514998	79.586304
369	1	4	0.090314001	0.71759999	-3.3938	78.896599
370	1	4	0.090314001	2.3113	-4.2265	79.089798
371	1	3	0.096597001	2.4621	-3.2967	81.435699
372	1	2	-0.15453	2.7809999	-1.7358	79.971001
373	1	3	0.100833	3.8162	-2.1377001	79.9132
374	1	3	0.100833	2.4421	-1.5344	78.930099
375	1	2	-0.161586	2.7908001	-0.41260001	80.740997
376	1	3	0.100833	3.1405001	-0.61330003	81.779198
377	1	3	0.100833	3.5227001	0.28009999	80.271004
378	1	4	0.101217	1.299	0.60290003	82.906601
379	1	4	0.101217	0.2376	1.6842	81.944603
380	2	5	0.57856399	-0.046	-1.3530999	68.530098
381	2	6	-0.61016202	0.90710002	-1.785	67.829002
382	2	5	-0.370509	-0.38850001	0.080200002	68.538498
383	2	5	-0.067872003	-1.4088	0.52399999	69.291397
384	2	7	0.189991	-1.9881999	-0.1611	69.898903
385	2	5	-0.108313	-1.7587	1.9603	69.306
386	2	7	0.20750199	-2.5871	2.2811999	69.925102
387	2	5	-0.29764801	-1.0618	2.8410001	68.565201
388	2	5	0.82627797	-1.3997	4.2816	68.568298
389	2	6	-0.549591	-2.3534999	4.7165999	69.269302
390	2	8	-0.67874801	-0.66299999	5.1724	67.792503
391	2	9	0.39815199	-0.8822	6.1613998	67.785103
392	2	5	-0.108313	0.065200001	2.3492999	67.732399
393	2	7	0.20750199	0.6415	3.0386	67.128601
394	2	5	-0.067872003	0.38280001	1.0484999	67.720596
395	2	7	0.189991	1.2082	0.71039999	67.106201
396	4	1	-0.139322	-4.5412998	21.7148	4.9489002
397	4	2	0.019507	-4.0412002	20.6103	4.2444
398	4	2	-0.070616998	-3.799	20.9664	2.7643001
399	4	3	0.093038999	-4.7806001	21.2598	2.3283
400	4	2	-0.16237199	-3.2986	19.7311	1.9667
401	4	3	0.100833	-3.6586001	18.7848	2.4277
402	4	3	0.100833	-3.7228	19.764	0.93919998
403	4	2	-0.162815	-1.7688	19.695601	1.8591
404	4	3	0.10022	-1.4597	18.758699	1.3474
405	4	3	0.10022	-1.3456	19.6506	2.8868001
406	4	2	-0.071663	-1.2054	20.948299	1.1302
407	4	2	0.112726	-0.94559997	20.669901	-0.3601
408	4	1	-0.49167001	0.067400001	19.710699	-0.50150001
409	4	4	0.094223998	-1.8789001	20.308201	-0.84649998
410	4	4	0.094223998	-0.62540001	21.6106	-0.86199999
411	4	3	0.089924999	-0.2254	21.192499	1.5987
412	4	2	-0.162815	-2.1201999	22.189501	1.2889
413	4	3	0.10022	-1.508	23.113899	1.2032
414	4	3	0.10022	-2.8857999	22.2194	0.48159999
415	4	2	-0.16237199	-2.8408999	22.181	2.6400001
416	4	3	0.100833	-2.0748	22.1618	3.4468999
417	4	3	0.100833	-3.4212	23.1229	2.7523
418	4	4	0.101217	-3.0871	20.289	4.7154002
419	4	4	0.101217	-4.7561998	19.7596	4.3232999
420	5	5	0.780123	0.17910001	19.557899	-1.5218
421	5	6	-0.572312	-0.435	20.3118	-2.3211999
422	5	5	-0.309082	1.0441	18.4737	-2.0188999
423	5	5	-0.11081	1.6934	17.6782	-1.1524
424	5	7	0.20750199	1.5889	17.8221	-0.083300002
425	5	5	-0.067872003	2.563	16.5886	-1.6429
426	5	7	0.189991	3.0734999	15.963	-0.92119998
427	5	5	-0.370509	2.7155001	16.381701	-2.9617
428	5	5	0.57856399	3.5848999	15.2932	-3.4426
429	5	6	-0.61016202	3.7384	15.0866	-4.6753001
430	5	5	-0.067872003	1.9999	17.2603	-3.9210999
431	5	7	0.189991	2.1098001	17.108801	-4.9875002
432	5	5	-0.11081	1.2117	18.2467	-3.4772
433	5	7	0.20750199	0.69770002	18.877399	-4.191
434	1	1	-0.139322	-5.4885998	21.822399	4.6743999
435	1	2	0.019507	-5.4717002	22.368099	3.3822999
436	1	2	-0.070616998	-5.0622001	21.306299	2.3418
437	1	3	0.093038999	-4.0352998	20.9643	2.6041999
438	1	2	-0.161586	-4.9864998	21.9198	0.91720003
439	1	3	0.100833	-4.7575002	23.007099	0.96039999
440	1	3	0.100833	-4.1525998	21.442301	0.3574
441	1	2	-0.15453	-6.2842999	21.704399	0.1284
442	1	3	0.100833	-6.2087002	22.2237	-0.85070002
443	1	3	0.100833	-7.1167998	22.1917	0.68120003
444	1	2	-0.112026	-6.6118002	20.1954	-0.057599999
445	1	2	0.081583001	-6.1331	19.6751	-1.4237
446	1	8	-0.669846	-6.8411999	20.3053	-2.4552
447	1	9	0.38374901	-6.4773002	19.9408	-3.3034
448	1	4	0.090314001	-5.0421	19.867001	-1.5414
449	1	4	0.090314001	-6.3074999	18.576401	-1.4832
450	1	3	0.096597001	-7.7203002	20.0893	-0.032000002
451	1	2	-0.15453	-6.0325999	19.3174	1.0811
452	1	3	0.100833	-6.6511998	18.4	1.192
453	1	3	0.100833	-4.9954	18.993799	0.83929998
454	1	2	-0.161586	-6.0049	20.0763	2.4103999
455	1	3	0.100833	-7.0446	20.3902	2.6571
456	1	3	0.100833	-5.6633	19.3915	3.2170999
457	1	4	0.101217	-6.4865999	22.7549	3.1452999
458	1	4	0.101217	-4.7683001	23.231501	3.3487
459	2	5	0.57856399	4.1036	14.6576	-2.7369001
460	2	6	-0.61016202	3.9956999	13.4079	-2.8499999
461	2	5	-0.370509	4.9208999	15.2511	-1.6638
462	2	5	-0.067872003	5.026	16.5863	-1.5579
463	2	7	0.189991	4.5138998	17.2395	-2.2544999
464	2	5	-0.108313	5.8432999	17.1898	-0.484
465	2	7	0.20750199	5.9045	18.269699	-0.42989999
466	2	5	-0.29764801	6.4931998	16.4111	0.39969999
467	2	5	0.82627797	7.3158002	16.999599	1.48
468	2	6	-0.549591	7.4254999	18.2505	1.5954
469	2	8	-0.67874801	7.9786	16.171499	2.3817
470	2	9	0.39815199	8.5445995	16.559999	3.1266
471	2	5	-0.108313	6.3772998	14.9353	0.2814
472	2	7	0.20750199	6.8899999	14.2877	0.98119998
473	2	5	-0.067872003	5.6357002	14.3889	-0.69059998
474	2	7	0.189991	5.5644002	13.3104	-0.75959998
475	4	1	-0.139322	0.1699	16.389299	11.6918
476	4	2	0.019507	0.76910001	16.574699	12.946
477	4	2	-0.070616998	0.39629999	17.949499	13.5352
478	4	3	0.093038999	0.77679998	18.725901	12.8337
479	4	2	-0.16237199	1.1025	18.183599	14.8987
480	4	3	0.100833	2.0541999	17.6108	14.9596
481	4	3	0.100833	1.3737	19.258301	14.9893
482	4	2	-0.162815	0.205	17.808001	16.0846
483	4	3	0.10022	0.77990001	17.9219	17.0289
484	4	3	0.10022	-0.0559	16.730101	15.9998
485	4	2	-0.071663	-1.103	18.6483	16.116199
486	4	2	0.112726	-0.98290002	19.851601	17.066799
487	4	1	-0.49167001	-0.83230001	19.4081	18.3885
488	4	4	0.094223998	-0.1101	20.4781	16.7768
489	4	4	0.094223998	-1.9043	20.4722	16.996401
490	4	3	0.089924999	-1.9104	17.9914	16.511499
491	4	2	-0.162815	-1.5376	19.1241	14.7065
492	4	3	0.10022	-2.6396	19.2722	14.6892
493	4	3	0.10022	-1.0651	20.1007	14.4581
494	4	2	-0.16237199	-1.1447001	18.1082	13.6301
495	4	3	0.100833	-1.626	17.134701	13.8731
496	4	3	0.100833	-1.5433	18.442101	12.6472
497	4	4	0.101217	0.42609999	15.7671	13.6281
498	4	4	0.101217	1.8753999	16.4844	12.8506
499	5	5	0.780123	-0.73979998	20.262501	18.9702
500	5	6	-0.572312	-0.9339	21.386101	18.437
501	5	5	-0.309082	-0.38659999	20.1537	20.3965
502	5	5	-0.11081	-0.18350001	18.946699	20.950701
503	5	7	0.20750199	-0.27520001	18.043301	20.3591
504	5	5	-0.067872003	0.17110001	18.8291	22.380501
505	5	7	0.189991	0.32929999	17.843201	22.799801
506	5	5	-0.370509	0.29300001	19.928301	23.143499
507	5	5	0.57856399	0.64649999	19.802299	24.5686
508	5	6	-0.61016202	0.76440001	20.8228	25.297001
509	5	5	-0.067872003	0.067900002	21.2631	22.5334
510	5	7	0.189991	0.16230001	22.1604	23.132
511	5	5	-0.11081	-0.25240001	21.3701	21.2384
512	5	7	0.20750199	-0.4129	22.351299	20.8106
513	1	1	-0.139322	0.67089999	16.9566	11.0504
514	1	2	0.019507	0.27739999	18.280701	11.2945
515	1	2	-0.070616998	0.91060001	18.8118	12.5963
516	1	3	0.093038999	0.54769999	18.166599	13.4283
517	1	2	-0.161586	0.43259999	20.257601	12.901
518	1	3	0.100833	-0.57059997	20.4494	12.4614
519	1	3	0.100833	0.32600001	20.383301	14.0008
520	1	2	-0.15453	1.4226	21.3109	12.3876
521	1	3	0.100833	1.0023	22.324499	12.5613
522	1	3	0.100833	1.5208	21.193899	11.2863
523	1	2	-0.112026	2.8257	21.1626	13.042
524	1	2	0.081583001	2.9998	22.119499	14.2338
525	1	8	-0.669846	2.97	23.4491	13.7936
526	1	9	0.38374901	3.0704	24.0114	14.6049
527	1	4	0.090314001	2.1891	21.948999	14.9785
528	1	4	0.090314001	3.9796	21.9228	14.7263
529	1	3	0.096597001	3.5825	21.4461	12.2756
530	1	2	-0.15453	3.1263001	19.705799	13.4784
531	1	3	0.100833	4.2256999	19.5387	13.4768
532	1	3	0.100833	2.7618999	19.5224	14.5139
533	1	2	-0.161586	2.4565001	18.695	12.5438
534	1	3	0.100833	2.8299999	18.872101	11.5097
535	1	3	0.100833	2.7612	17.6665	12.8365
536	1	4	0.101217	0.59649998	18.9114	10.4366
537	1	4	0.101217	-0.8337	18.3368	11.356
538	2	5	0.57856399	0.80830002	18.8258	25.005899
539	2	6	-0.61016202	1.8695	18.6161	25.650999
540	2	5	-0.370509	-0.20029999	17.763399	24.845301
541	2	5	-0.067872003	-1.3273	18.0042	24.154699
542	2	7	0.189991	-1.5075001	18.9753	23.709
543	2	5	-0.108313	-2.3440001	16.943899	23.9884
544	2	7	0.20750199	-3.2397001	17.1745	23.4252
545	2	5	-0.29764801	-2.1552999	15.7255	24.5268
546	2	5	0.82627797	-3.1633999	14.6537	24.3699
547	2	6	-0.549591	-4.2266998	14.8611	23.724501
548	2	8	-0.67874801	-2.9440999	13.4015	24.9373
549	2	9	0.39815199	-3.6248	12.658	24.8375
550	2	5	-0.108313	-0.90969998	15.4606	25.290899
551	2	7	0.20750199	-0.73439997	14.488	25.7327
552	2	5	-0.067872003	0.0117	16.420799	25.440201
553	2	7	0.189991	0.9131	16.2071	26.001301
554	4	1	-0.139322	1.6184	19.764799	44.483398
555	4	2	0.019507	1.4749	20.2234	43.166
556	4	2	-0.070616998	2.0283999	19.1929	42.162102
557	4	3	0.093038999	3.1115999	19.0618	42.383801
558	4	2	-0.16237199	1.9234999	19.7201	40.7048
559	4	3	0.100833	1.9478	20.832001	40.679001
560	4	3	0.100833	2.8066001	19.3708	40.125999
561	4	2	-0.162815	0.65460002	19.2218	40.001499
562	4	3	0.10022	0.5891	19.6849	38.993401
563	4	3	0.10022	-0.22840001	19.5816	40.5742
564	4	2	-0.071663	0.60699999	17.67	39.913101
565	4	2	0.112726	1.1131999	17.162399	38.5522
566	4	1	-0.49167001	0.25310001	17.5872	37.5294
567	4	4	0.094223998	2.1415	17.5439	38.363899
568	4	4	0.094223998	1.1435	16.049601	38.5602
569	4	3	0.089924999	-0.4596	17.3645	40.006302
570	4	2	-0.162815	1.3901	16.985201	41.062199
571	4	3	0.10022	0.95880002	15.9786	41.2556
572	4	3	0.10022	2.4574001	16.8431	40.780399
573	4	2	-0.16237199	1.3348	17.8169	42.346802
574	4	3	0.100833	0.26789999	17.9496	42.6339
575	4	3	0.100833	1.8348	17.2579	43.167702
576	4	4	0.101217	0.39629999	20.4021	42.966099
577	4	4	0.101217	2.0027001	21.197399	43.048
578	5	5	0.780123	0.6591	17.228701	36.644199
579	5	6	-0.572312	1.6341	16.4345	36.6992
580	5	5	-0.309082	0.0977	17.647499	35.3479
581	5	5	-0.11081	-0.94389999	18.4953	35.306499
582	5	7	0.20750199	-1.381	18.880501	36.220402
583	5	5	-0.067872003	-1.5128	18.92	34.010502
584	5	7	0.189991	-2.352	19.6045	34.007801
585	5	5	-0.370509	-0.9957	18.461901	32.858002
586	5	5	0.57856399	-1.5692	18.8901	31.5697
587	5	6	-0.61016202	-1.0962	18.4697	30.4811
588	5	5	-0.067872003	0.15449999	17.524099	32.901402
589	5	7	0.189991	0.5851	17.144699	31.983299
590	5	5	-0.11081	0.67049998	17.1397	34.075001
591	5	7	0.20750199	1.5089999	16.4555	34.087601
592	1	1	-0.139322	2.5802	19.850401	44.7113
593	1	2	0.019507	3.2451999	18.8148	44.038502
594	1	2	-0.070616998	3.3506999	19.117201	42.530102
595	1	3	0.093038999	2.3125	19.198	42.135201
596	1	2	-0.161586	4.0352998	17.947399	41.772099
597	1	3	0.100833	3.8798001	16.981501	42.300499
598	1	3	0.100833	3.5678	17.8386	40.768902
599	1	2	-0.15453	5.5384002	18.186701	41.581799
600	1	3	0.100833	5.9942999	17.2934	41.104198
601	1	3	0.100833	6.0088	18.283701	42.584599
602	1	2	-0.112026	5.8257999	19.4746	40.758499
603	1	2	0.081583001	6.0665998	19.1563	39.2729
604	1	8	-0.669846	7.2319002	18.392799	39.125702
605	1	9	0.38374901	7.3213	18.209	38.154701
606	1	4	0.090314001	5.1949	18.600401	38.8582