Title

96 atoms
103 bonds
190 angles
327 dihedrals
78 impropers

9 atom types
13 bond types
7 angle types
12 dihedral types
2 improper types
-4.860000134 95.13999987 xlo xhi
-3.539000034 96.46099997 ylo yhi
-5.835000038 94.16499996 zlo zhi
0.0 0.0 0.0 xy xz yz

Masses

1	15.99943
2	12.01078
3	1.007947
4	12.01078
5	1.007947
6	15.99943
7	15.99943
8	1.007947
9	35.4532


Pair Coeffs

1	0.16846514	3.0251065
2	0.086879315	3.4806469
3	0.015611343	2.5725815
4	0.10884061	3.3795318
5	0.015779483	2.6445434
6	0.2102061	3.0398122
7	0.20947353	2.99716
8	1.2326e-05	0.53453923
9	0.2656001	3.3075278

Bond Coeffs

1 harmonic	425.69104206635	1.362945806494
2 harmonic	300.03137914615	1.451203938761
3 harmonic	360.7852444772	1.387193227181
4 harmonic	397.2545789619	1.085358495916
5 harmonic	289.73813263395	1.498646816465
6 harmonic	264.62148576755	1.52190126495
7 harmonic	301.15400723785	1.345741232799
8 harmonic	370.04670688625	1.093899492634
9 harmonic	582.698766451	1.225198386222
10 harmonic	279.1350963404	1.454628925034
11 harmonic	385.7604595587	1.369745182308
12 harmonic	543.5267831885	0.9716763312559
13 harmonic	218.0227703685	1.746066037062


Angle Coeffs

1 harmonic	57.8982893754	126.8062420451
2 harmonic	65.09061609600001	110.3538806181
3 harmonic	34.066775159195	129.1835929926
4 harmonic	14.32262199324	138.3184368373
5 harmonic	53.20531626545	116.5475862634
6 harmonic	201.41175231035	127.4691416191
7 harmonic	48.776492647595	115.6030999533


Dihedral Coeffs

1 fourier 1	3.661930099076	2	180
2 fourier 1	1.532232714475	2	180
3 fourier 1	0.457973137376	1	0
4 fourier 1	0.02664938770063	3	0
5 fourier 1	0.1155372516788	3	0
6 fourier 1	0.09223874044423	3	0
7 fourier 1	0.3159935921949	2	180
8 fourier 1	0.3247796806857	1	180
9 fourier 1	2.779853741805	2	180
10 fourier 1	0.9974165607242	2	180
11 fourier 1	0.1040663847541	3	0
12 fourier 1	0.8283030590042	2	180


Improper Coeffs

1 0.3666666666666667	-1	2
2 3.5	-1	2


Atoms

1	1	1	-0.054409001	2.1949999	3.237	-2.8929999
2	1	2	0.227448	2.24	2.1010001	-2.0899999
3	1	2	-0.357133	3.3900001	1.41	-1.973
4	1	3	0.20014501	4.2779999	1.737	-2.5
5	1	2	-0.022936	3.4519999	0.199	-1.12
6	1	3	0.19457901	4.3829999	-0.34200001	-1.012
7	1	2	-0.23407	2.339	-0.20299999	-0.48699999
8	1	2	-0.058975998	1.105	0.54299998	-0.60500002
9	1	2	-0.240145	1.028	1.65	-1.359
10	1	3	0.194024	0.103	2.2079999	-1.429
11	1	4	0.110443	0.032000002	-0.063000001	0.23899999
12	1	2	-0.063528001	-1.251	-0.252	-0.50199997
13	1	2	-0.210271	-1.432	-0.84600002	-1.691
14	1	3	0.19274899	-0.58899999	-1.24	-2.2460001
15	1	2	0.392068	-2.812	-0.963	-2.2290001
16	1	1	-0.45482299	-3.036	-1.562	-3.4649999
17	1	2	-0.296556	-3.852	-0.491	-1.516
18	1	3	0.201839	-4.8600001	-0.57800001	-1.9
19	1	2	-0.026254	-3.6259999	0.148	-0.197
20	1	3	0.19457901	-4.4660001	0.50700003	0.382
21	1	2	-0.23407	-2.369	0.26300001	0.259
22	1	4	-0.030873001	-1.9170001	0.838	1.566
23	1	4	-0.139019	-2.3559999	-0.079999998	2.721
24	1	5	0.078598	-3.464	-0.132	2.78
25	1	5	0.078598	-1.965	-1.11	2.575
26	1	5	0.078598	-1.972	0.308	3.6900001
27	1	4	-0.139019	-2.471	2.26	1.772
28	1	5	0.078598	-2.2179999	2.908	0.90399998
29	1	5	0.078598	-3.576	2.243	1.885
30	1	5	0.078598	-2.0350001	2.7119999	2.688
31	1	4	-0.161973	-0.361	0.85600001	1.436
32	1	5	0.110972	-0.012	1.895	1.24
33	1	5	0.110972	0.138	0.551	2.382
34	1	4	-0.161973	0.64399999	-1.42	0.704
35	1	5	0.110972	0.192	-2.2539999	0.12
36	1	5	0.110972	0.41100001	-1.6440001	1.768
37	1	4	-0.030873001	2.1830001	-1.367	0.442
38	1	4	-0.139019	2.948	-1.099	1.751
39	1	5	0.078598	4.0380001	-1.011	1.556
40	1	5	0.078598	2.5999999	-0.154	2.223
41	1	5	0.078598	2.7869999	-1.931	2.47
42	1	4	-0.139019	2.678	-2.6719999	-0.20900001
43	1	5	0.078598	2.1800001	-2.832	-1.1900001
44	1	5	0.078598	3.776	-2.641	-0.375
45	1	5	0.078598	2.4489999	-3.539	0.44800001
46	1	2	0.62335998	-2.2420001	-1.938	-4.0380001
47	1	6	-0.53470099	-1.659	-2.948	-3.6830001
48	1	1	-0.054409001	1.341	3.773	-2.9949999
49	1	2	0.227448	1.108	4.9089999	-2.2249999
50	1	2	-0.357133	-0.037	5.5999999	-2.382
51	1	3	0.20014501	-0.77600002	5.2729998	-3.102
52	1	2	-0.022936	-0.29699999	6.8109999	-1.567
53	1	3	0.19457901	-1.227	7.3520002	-1.681
54	1	2	-0.23407	0.63499999	7.2129998	-0.69
55	1	2	-0.058975998	1.863	6.467	-0.514
56	1	2	-0.240145	2.115	5.3610001	-1.23
57	1	3	0.194024	3.03	4.802	-1.08
58	1	4	0.110443	2.707	7.073	0.55800003
59	1	2	-0.013702	4.1290002	7.2620001	0.139
60	1	2	-0.404071	4.5840001	7.8559999	-0.97399998
61	1	3	0.199672	3.8959999	8.25	-1.711
62	1	2	0.35016799	6.052	7.973	-1.1720001
63	1	7	-0.65965199	6.5609999	8.5719995	-2.3210001
64	1	8	0.42391601	5.9450002	8.9350004	-3.039
65	1	2	-0.43064001	6.895	7.5009999	-0.235
66	1	3	0.205424	7.9650002	7.5879998	-0.37099999
67	1	2	0.044915002	6.3649998	6.8629999	0.995
68	1	3	0.19457901	7.0450001	6.5029998	1.755
69	1	2	-0.23407	5.0359998	6.7470002	1.142
70	1	4	-0.030873001	4.289	6.1719999	2.306
71	1	4	-0.139019	4.4439998	7.0900002	3.5320001
72	1	5	0.078598	5.5079999	7.1420002	3.8499999
73	1	5	0.078598	4.098	8.1199999	3.2980001
74	1	5	0.078598	3.8440001	6.7020001	4.3829999
75	1	4	-0.139019	4.7789998	4.75	2.6359999
76	1	5	0.078598	4.7379999	4.1020002	1.733
77	1	5	0.078598	5.8270001	4.7670002	3.006
78	1	5	0.078598	4.1399999	4.2979999	3.424
79	1	4	-0.161973	2.8069999	6.1539998	1.814
80	1	5	0.110972	2.5150001	5.1149998	1.5420001
81	1	5	0.110972	2.0999999	6.4590001	2.6159999
82	1	4	-0.161973	2.003	8.4300003	0.866
83	1	5	0.110972	2.579	9.2639999	0.405
84	1	5	0.110972	1.979	8.6540003	1.955
85	1	4	-0.030873001	0.56900001	8.3769999	0.25
86	1	4	-0.139019	-0.48199999	8.1090002	1.342
87	1	5	0.078598	-1.4960001	8.0209999	0.89600003
88	1	5	0.078598	-0.255	7.165	1.882
89	1	5	0.078598	-0.49599999	8.941	2.079
90	1	4	-0.139019	0.241	9.6820002	-0.5
91	1	5	0.078598	0.95499998	9.8430004	-1.336
92	1	5	0.078598	-0.787	9.651	-0.91900003
93	1	5	0.078598	0.308	10.549	0.192
94	1	2	0.462715	-1.9400001	-1.428	-4.9460001
95	1	6	-0.62423402	-2.5769999	-0.47	-5.349
96	1	9	-0.107936	-0.53299999	-1.9809999	-5.835

Bonds

1	1	1	2
2	2	1	48
3	3	2	3
4	3	2	9
5	4	3	4
6	3	3	5
7	4	5	6
8	3	5	7
9	3	7	8
10	5	7	37
11	3	8	9
12	5	8	11
13	4	9	10
14	5	11	12
15	6	11	34
16	6	11	31
17	3	12	13
18	3	12	21
19	4	13	14
20	3	13	15
21	1	15	16
22	3	15	17
23	7	16	46
24	4	17	18
25	3	17	19
26	4	19	20
27	3	19	21
28	5	21	22
29	6	22	23
30	6	22	27
31	6	22	31
32	8	23	24
33	8	23	25
34	8	23	26
35	8	27	28
36	8	27	29
37	8	27	30
38	8	31	32
39	8	31	33
40	8	34	35
41	8	34	36
42	6	34	37
43	6	37	38
44	6	37	42
45	8	38	39
46	8	38	40
47	8	38	41
48	8	42	43
49	8	42	44
50	8	42	45
51	9	46	47
52	10	46	94
53	1	48	49
54	3	49	50
55	3	49	56
56	4	50	51
57	3	50	52
58	4	52	53
59	3	52	54
60	3	54	55
61	5	54	85
62	3	55	56
63	5	55	58
64	4	56	57
65	5	58	59
66	6	58	82
67	6	58	79
68	3	59	60
69	3	59	69
70	4	60	61
71	3	60	62
72	11	62	63
73	3	62	65
74	12	63	64
75	4	65	66
76	3	65	67
77	4	67	68
78	3	67	69
79	5	69	70
80	6	70	71
81	6	70	75
82	6	70	79
83	8	71	72
84	8	71	73
85	8	71	74
86	8	75	76
87	8	75	77
88	8	75	78
89	8	79	80
90	8	79	81
91	8	82	83
92	8	82	84
93	6	82	85
94	6	85	86
95	6	85	90
96	8	86	87
97	8	86	88
98	8	86	89
99	8	90	91
100	8	90	92
101	8	90	93
102	9	94	95
103	13	94	96

Angles

1	5	11	34	36
2	5	11	34	35
3	5	70	75	76
4	5	37	38	40
5	5	23	22	27
6	5	31	11	34
7	1	58	59	69
8	1	2	9	8
9	1	50	49	56
10	3	12	13	14
11	4	67	69	70
12	7	72	71	74
13	7	80	79	81
14	5	34	37	42
15	5	70	71	73
16	7	77	75	78
17	1	11	12	13
18	1	55	54	85
19	5	70	75	78
20	7	91	90	92
21	1	56	55	58
22	3	18	17	19
23	5	22	23	24
24	1	16	15	17
25	5	54	85	86
26	5	54	85	82
27	1	1	2	9
28	5	59	58	82
29	1	7	8	11
30	7	28	27	29
31	1	60	62	63
32	1	50	52	54
33	3	20	19	21
34	7	43	42	45
35	3	2	9	10
36	5	7	37	38
37	1	11	12	21
38	5	79	58	82
39	5	69	70	71
40	5	36	34	37
41	2	62	63	64
42	5	37	42	44
43	1	49	50	52
44	5	70	79	81
45	7	24	23	25
46	1	52	54	55
47	7	73	71	74
48	5	86	85	90
49	5	7	37	34
50	2	15	16	46
51	1	17	19	21
52	1	59	69	70
53	3	2	3	4
54	1	46	94	95
55	7	25	23	26
56	7	39	38	41
57	5	55	58	82
58	1	9	8	11
59	1	12	13	15
60	5	69	70	75
61	7	40	38	41
62	7	24	23	26
63	3	66	65	67
64	1	16	46	94
65	5	70	71	72
66	1	8	7	37
67	1	95	94	96
68	1	60	59	69
69	1	3	5	7
70	5	22	23	25
71	7	35	34	36
72	5	38	37	42
73	5	58	79	70
74	7	91	90	93
75	5	59	58	79
76	7	76	75	77
77	5	21	22	31
78	7	32	31	33
79	5	8	11	34
80	2	2	1	48
81	1	47	46	94
82	1	60	62	65
83	5	84	82	85
84	5	69	70	79
85	5	85	90	91
86	5	85	90	92
87	5	11	31	33
88	5	71	70	75
89	5	58	82	83
90	5	22	31	32
91	5	58	79	81
92	1	3	2	9
93	1	12	21	19
94	5	34	37	38
95	1	5	7	8
96	4	52	54	85
97	5	70	75	77
98	1	48	49	56
99	5	85	86	89
100	3	51	50	52
101	5	23	22	31
102	7	87	86	89
103	5	11	34	37
104	3	65	67	68
105	5	55	58	79
106	1	13	15	16
107	5	37	42	45
108	1	59	60	62
109	1	15	17	19
110	3	61	60	62
111	5	71	70	79
112	3	55	56	57
113	5	70	79	80
114	1	46	94	96
115	1	2	3	5
116	7	88	86	89
117	1	7	8	9
118	3	50	52	53
119	5	12	11	34
120	5	22	27	30
121	7	39	38	40
122	7	44	42	45
123	1	58	59	60
124	5	82	85	90
125	3	8	9	10
126	5	7	37	42
127	5	22	23	26
128	3	62	65	66
129	7	83	82	84
130	7	29	27	30
131	5	85	86	88
132	3	59	60	61
133	7	87	86	88
134	5	8	11	31
135	4	5	7	37
136	5	37	42	43
137	3	49	50	51
138	5	11	31	32
139	3	17	19	20
140	5	58	82	84
141	1	48	49	50
142	7	43	42	44
143	5	85	90	93
144	5	22	27	29
145	1	62	65	67
146	5	85	86	87
147	1	59	69	67
148	3	4	3	5
149	1	49	56	55
150	5	55	58	59
151	1	13	12	21
152	1	54	55	56
153	7	92	90	93
154	5	54	85	90
155	1	63	62	65
156	1	65	67	69
157	5	8	11	12
158	3	68	67	69
159	1	1	2	3
160	6	16	46	47
161	5	22	27	28
162	1	54	55	58
163	5	58	79	80
164	5	21	22	27
165	5	11	31	22
166	3	6	5	7
167	7	72	71	73
168	5	37	38	41
169	5	70	71	74
170	3	53	52	54
171	5	83	82	85
172	5	22	31	33
173	5	27	22	31
174	5	75	70	79
175	7	76	75	78
176	3	15	17	18
177	3	14	13	15
178	5	82	85	86
179	3	3	5	6
180	5	12	11	31
181	4	19	21	22
182	5	21	22	23
183	1	13	15	17
184	5	35	34	37
185	5	58	82	85
186	3	49	56	57
187	5	37	38	39
188	2	1	48	49
189	1	12	21	22
190	7	28	27	30

Dihedrals

1	12	64	63	62	65
2	2	1	48	49	50
3	11	80	79	58	82
4	4	60	59	58	79
5	1	60	62	65	67
6	1	68	67	69	70
7	6	58	79	70	71
7	7	58	79	70	71
7	8	58	79	70	71
8	11	28	27	22	31
9	1	1	2	3	4
10	4	55	54	85	90
11	1	4	3	2	9
12	1	11	12	21	19
13	6	11	34	37	38
13	7	11	34	37	38
13	8	11	34	37	38
14	1	15	13	12	21
15	11	79	58	82	84
16	5	11	31	22	21
17	11	75	70	79	80
18	1	18	17	19	21
19	4	21	12	11	31
20	4	60	59	58	82
21	11	34	37	38	39
22	11	82	85	86	89
23	5	21	22	23	24
24	5	69	70	79	80
25	4	8	11	12	13
26	11	24	23	22	31
27	5	7	37	34	36
28	5	7	37	34	35
29	1	12	13	15	17
30	1	4	3	5	7
31	11	35	34	37	42
32	6	58	82	85	90
32	7	58	82	85	90
32	8	58	82	85	90
33	11	73	71	70	75
34	1	2	3	5	6
35	1	5	7	8	11
36	11	71	70	75	76
37	10	16	46	94	96
38	1	54	55	56	57
39	5	59	58	79	80
40	1	60	59	69	70
41	3	2	1	48	49
42	5	69	70	75	76
43	5	7	37	38	40
44	1	13	15	17	19
45	6	22	31	11	34
45	7	22	31	11	34
45	8	22	31	11	34
46	1	66	65	67	68
47	4	5	7	37	38
48	1	58	55	54	85
49	4	52	54	85	86
50	1	11	8	7	37
51	11	38	37	42	44
52	4	52	54	85	82
53	11	71	70	75	78
54	4	8	7	37	38
55	5	21	22	31	32
56	1	61	60	59	69
57	4	69	59	58	82
58	5	69	70	71	74
59	4	8	11	12	21
60	5	12	11	31	33
61	9	15	16	46	94
62	1	51	50	52	54
63	1	59	69	67	68
64	1	3	5	7	8
65	11	86	85	90	91
66	1	15	17	19	21
67	5	58	79	70	69
68	4	69	59	58	79
69	11	27	22	31	32
70	1	6	5	7	8
71	5	59	58	82	83
72	1	65	67	69	70
73	12	60	62	63	64
74	11	82	85	90	93
75	6	79	58	82	85
75	7	79	58	82	85
75	8	79	58	82	85
76	4	9	8	11	34
77	11	32	31	11	34
78	11	31	11	34	36
79	11	34	37	38	41
80	2	3	2	1	48
81	4	5	7	37	34
82	11	31	11	34	35
83	5	8	11	31	33
84	10	47	46	94	96
85	1	48	49	56	55
86	1	49	50	52	53
87	4	56	55	58	82
88	5	54	85	82	84
89	1	2	9	8	7
90	4	8	7	37	34
91	11	38	37	42	45
92	11	74	71	70	79
93	11	34	37	42	44
94	4	55	54	85	86
95	5	55	58	82	84
96	1	50	52	54	55
97	1	11	12	13	14
98	1	16	15	17	18
99	4	55	54	85	82
100	4	56	55	58	79
101	4	54	55	58	59
102	11	86	85	90	93
103	1	50	49	56	55
104	1	58	59	69	70
105	11	25	23	22	27
106	5	54	85	82	58
107	1	49	56	55	58
108	1	52	50	49	56
109	1	61	60	62	63
110	4	13	12	11	34
111	11	73	71	70	79
112	4	59	69	70	75
113	11	26	23	22	31
114	11	71	70	79	81
115	4	12	21	22	31
116	11	34	37	38	40
117	11	36	34	37	42
118	4	13	12	11	31
119	5	21	22	23	25
120	4	67	69	70	79
121	5	8	11	34	37
122	5	7	37	42	44
123	11	33	31	11	34
124	6	58	82	85	86
124	7	58	82	85	86
124	8	58	82	85	86
125	6	58	79	70	75
125	7	58	79	70	75
125	8	58	79	70	75
126	1	5	7	8	9
127	4	9	8	11	12
128	11	23	22	31	33
129	11	34	37	42	45
130	1	1	2	3	5
131	11	41	38	37	42
132	11	23	22	27	28
133	5	54	85	86	89
134	5	59	58	79	70
135	1	66	65	67	69
136	11	89	86	85	90
137	1	48	49	50	52
138	5	55	58	79	70
139	1	62	65	67	68
140	5	69	70	71	73
141	11	38	37	42	43
142	4	19	21	22	31
143	1	3	5	7	37
144	11	23	22	27	30
145	1	53	52	54	85
146	11	82	85	86	88
147	4	55	58	59	60
148	1	10	9	8	11
149	1	13	12	21	19
150	1	6	5	7	37
151	5	7	37	42	45
152	5	59	58	79	81
153	4	67	69	70	71
154	2	15	16	46	47
155	4	59	69	70	79
156	1	50	49	56	57
157	5	55	58	82	85
158	1	13	15	17	18
159	1	5	3	2	9
160	4	56	55	58	59
161	2	1	48	49	56
162	1	11	12	21	22
163	5	55	58	79	81
164	1	2	3	5	7
165	1	57	56	55	58
166	5	59	58	82	84
167	2	17	15	16	46
168	11	77	75	70	79
169	11	83	82	85	86
170	4	9	8	11	31
171	11	24	23	22	27
172	1	20	19	21	22
173	4	55	58	59	69
174	1	17	19	21	22
175	5	54	85	90	91
176	1	18	17	19	20
177	1	59	60	62	63
178	5	21	22	27	29
179	11	35	34	37	38
180	1	63	62	65	66
181	5	54	85	90	92
182	5	8	11	31	32
183	5	12	11	34	37
184	1	58	59	69	67
185	1	59	69	67	65
186	11	29	27	22	31
187	6	11	34	37	42
187	7	11	34	37	42
187	8	11	34	37	42
188	11	23	22	27	29
189	4	7	8	11	34
190	1	50	52	54	85
191	4	67	69	70	75
192	5	7	37	34	11
193	2	13	15	16	46
194	1	63	62	65	67
195	1	12	21	19	17
196	5	21	22	31	33
197	5	54	85	90	93
198	1	61	60	62	65
199	5	12	11	31	22
200	1	1	2	9	10
201	5	21	22	27	28
202	11	30	27	22	31
203	1	52	54	55	56
204	11	71	70	75	77
205	11	75	70	79	81
206	11	27	22	31	33
207	2	9	2	1	48
208	1	60	59	69	67
209	5	69	70	79	81
210	1	62	65	67	69
211	11	39	38	37	42
212	5	21	22	27	30
213	5	69	70	75	77
214	1	4	3	5	6
215	1	16	15	17	19
216	5	21	22	23	26
217	5	8	11	31	22
218	1	14	13	15	16
219	6	11	31	22	27
219	7	11	31	22	27
219	8	11	31	22	27
220	11	84	82	85	90
221	4	5	7	37	42
222	1	48	49	56	57
223	1	15	17	19	20
224	1	51	50	52	53
225	1	52	54	55	58
226	5	59	58	82	85
227	4	7	8	11	12
228	4	8	7	37	42
229	5	12	11	34	36
230	5	12	11	34	35
231	11	71	70	79	80
232	11	79	58	82	83
233	11	81	79	58	82
234	1	2	9	8	11
235	4	21	12	11	34
236	1	49	50	52	54
237	5	12	11	31	32
238	11	72	71	70	75
239	1	1	2	9	8
240	6	11	31	22	23
240	7	11	31	22	23
240	8	11	31	22	23
241	1	12	21	19	20
242	10	16	46	94	95
243	1	56	55	54	85
244	6	70	79	58	82
244	7	70	79	58	82
244	8	70	79	58	82
245	11	82	85	86	87
246	1	49	56	55	54
247	1	7	8	9	10
248	5	7	37	38	41
249	5	8	11	34	36
250	5	8	11	34	35
251	1	14	13	15	17
252	1	51	50	49	56
253	4	54	55	58	82
254	11	26	23	22	27
255	11	34	37	42	43
256	4	12	21	22	27
257	11	36	34	37	38
258	5	54	85	86	88
259	6	31	11	34	37
259	7	31	11	34	37
259	8	31	11	34	37
260	4	54	55	58	79
261	1	11	12	13	15
262	1	3	2	9	8
263	11	25	23	22	31
264	1	59	60	62	65
265	5	7	37	38	39
266	1	58	59	60	62
267	1	9	8	7	37
268	11	74	71	70	75
269	4	7	8	11	31
270	4	12	21	22	23
271	5	54	85	86	87
272	1	53	52	54	55
273	10	47	46	94	95
274	11	82	85	90	91
275	11	83	82	85	90
276	5	7	37	42	43
277	11	82	85	90	92
278	1	14	13	12	21
279	4	19	21	22	27
280	4	52	54	85	90
281	5	55	58	79	80
282	1	62	60	59	69
283	11	72	71	70	79
284	11	88	86	85	90
285	11	40	38	37	42
286	1	13	12	21	22
287	11	78	75	70	79
288	1	60	62	65	66
289	11	23	22	31	32
290	5	69	70	75	78
291	1	48	49	50	51
292	11	76	75	70	79
293	11	86	85	90	92
294	11	84	82	85	86
295	5	69	70	71	72
296	1	3	2	9	10
297	4	59	69	70	71
298	4	19	21	22	23
299	11	87	86	85	90
300	5	54	85	82	83
301	1	12	13	15	16
302	1	58	59	60	61
303	5	55	58	82	83

Impropers

4	1	15	17	13	16
7	1	69	59	67	70
8	1	60	61	62	59
19	1	56	49	55	57
26	1	2	9	1	3
29	2	46	16	47	94
31	1	69	67	70	59
39	1	49	48	50	56
45	1	7	8	37	5
47	1	54	85	52	55
48	1	3	2	4	5
49	1	21	19	22	12
54	1	3	5	2	4
68	1	52	53	54	50
79	1	54	55	85	52
83	1	21	22	12	19
87	1	19	17	20	21
91	1	94	95	96	46
114	1	12	13	21	11
118	1	50	52	49	51
122	1	9	8	10	2
130	1	67	65	68	69
145	1	55	58	54	56
147	1	17	15	18	19
155	1	50	51	52	49
159	1	60	59	61	62
166	1	8	7	9	11
176	1	2	1	3	9
177	1	60	62	59	61
186	1	52	50	53	54
207	1	15	16	17	13
210	1	65	62	66	67
228	1	49	56	48	50
231	1	50	49	51	52
241	1	3	4	5	2
257	1	54	52	55	85
267	1	15	13	16	17
281	2	46	94	16	47
304	1	7	5	8	37
319	1	19	20	21	17
342	1	67	69	65	68
349	1	65	67	62	66
359	1	59	69	58	60
364	1	7	37	5	8
368	1	8	11	7	9
369	1	56	55	57	49
381	1	5	6	7	3
386	1	5	7	3	6
390	1	59	58	60	69
391	1	13	14	15	12
394	1	17	19	15	18
397	1	56	57	49	55
405	1	21	12	19	22
409	1	17	18	19	15
412	2	46	47	94	16
419	1	52	54	50	53
423	1	12	11	13	21
427	1	8	9	11	7
438	1	55	54	56	58
439	1	13	12	14	15
450	1	94	96	46	95
451	1	62	60	63	65
476	1	2	3	9	1
482	1	62	65	60	63
505	1	69	70	59	67
508	1	94	46	95	96
510	1	67	68	69	65
526	1	13	15	12	14
534	1	49	50	56	48
540	1	9	2	8	10
544	1	5	3	6	7
545	1	12	21	11	13
554	1	65	66	67	62
559	1	55	56	58	54
574	1	9	10	2	8
578	1	62	63	65	60
583	1	59	60	69	58
586	1	19	21	17	20
