Title

96 atoms
103 bonds
190 angles
327 dihedrals
78 impropers

9 atom types
13 bond types
7 angle types
12 dihedral types
2 improper types
-4.860000134 95.13999987 xlo xhi
-3.539000034 96.46099997 ylo yhi
-5.835000038 94.16499996 zlo zhi
0.0 0.0 0.0 xy xz yz

Masses

1	15.99943
2	12.01078
3	1.007947
4	12.01078
5	1.007947
6	15.99943
7	15.99943
8	1.007947
9	35.4532


Pair Coeffs

1	0.16846514	3.0251065
2	0.086879315	3.4806469
3	0.015611343	2.5725815
4	0.10884061	3.3795318
5	0.015779483	2.6445434
6	0.2102061	3.0398122
7	0.20947353	2.99716
8	1.2326e-05	0.53453923
9	0.2656001	3.3075278

Bond Coeffs

1 harmonic	425.69104206635	1.362945806494
2 harmonic	300.03137914615	1.451203938761
3 harmonic	360.7852444772	1.387193227181
4 harmonic	397.2545789619	1.085358495916
5 harmonic	289.73813263395	1.498646816465
6 harmonic	264.62148576755	1.52190126495
7 harmonic	301.15400723785	1.345741232799
8 harmonic	370.04670688625	1.093899492634
9 harmonic	582.698766451	1.225198386222
10 harmonic	279.1350963404	1.454628925034
11 harmonic	385.7604595587	1.369745182308
12 harmonic	543.5267831885	0.9716763312559
13 harmonic	218.0227703685	1.746066037062


Angle Coeffs

1 harmonic	57.8982893754	126.8062420451
2 harmonic	65.09061609600001	110.3538806181
3 harmonic	34.066775159195	129.1835929926
4 harmonic	14.32262199324	138.3184368373
5 harmonic	53.20531626545	116.5475862634
6 harmonic	201.41175231035	127.4691416191
7 harmonic	48.776492647595	115.6030999533


Dihedral Coeffs

1 fourier 1	3.661930099076	2	180
2 fourier 1	1.532232714475	2	180
3 fourier 1	0.457973137376	1	0
4 fourier 1	0.02664938770063	3	0
5 fourier 1	0.1155372516788	3	0
6 fourier 1	0.09223874044423	3	0
7 fourier 1	0.3159935921949	2	180
8 fourier 1	0.3247796806857	1	180
9 fourier 1	2.779853741805	2	180
10 fourier 1	0.9974165607242	2	180
11 fourier 1	0.1040663847541	3	0
12 fourier 1	0.8283030590042	2	180


Improper Coeffs

1 0.3666666666666667	-1	2
2 3.5	-1	2


Atoms

1	1	1	-0.054409001	2.1949999	3.237	-2.8929999
2	1	2	0.227448	2.24	2.1010001	-2.0899999
3	1	2	-0.357133	3.3900001	1.41	-1.973
4	1	3	0.20014501	4.2779999	1.737	-2.5
5	1	2	-0.022936	3.4519999	0.199	-1.12
6	1	3	0.19457901	4.3829999	-0.34200001	-1.012
7	1	2	-0.23407	2.339	-0.20299999	-0.48699999
8	1	2	-0.058975998	1.105	0.54299998	-0.60500002
9	1	2	-0.240145	1.028	1.65	-1.359
10	1	3	0.194024	0.103	2.2079999	-1.429
11	1	4	0.110443	0.032000002	-0.063000001	0.23899999
12	1	2	-0.063528001	-1.251	-0.252	-0.50199997
13	1	2	-0.210271	-1.432	-0.84600002	-1.691
14	1	3	0.19274899	-0.58899999	-1.24	-2.2460001
15	1	2	0.392068	-2.812	-0.963	-2.2290001
16	1	1	-0.45482299	-3.036	-1.562	-3.4649999
17	1	2	-0.296556	-3.852	-0.491	-1.516
18	1	3	0.201839	-4.8600001	-0.57800001	-1.9
19	1	2	-0.026254	-3.6259999	0.148	-0.197
20	1	3	0.19457901	-4.4660001	0.50700003	0.382
21	1	2	-0.23407	-2.369	0.26300001	0.259
22	1	4	-0.030873001	-1.9170001	0.838	1.566
23	1	4	-0.139019	-2.3559999	-0.079999998	2.721
24	1	5	0.078598	-3.464	-0.132	2.78
25	1	5	0.078598	-1.965	-1.11	2.575
26	1	5	0.078598	-1.972	0.308	3.6900001
27	1	4	-0.139019	-2.471	2.26	1.772
28	1	5	0.078598	-2.2179999	2.908	0.90399998
29	1	5	0.078598	-3.576	2.243	1.885
30	1	5	0.078598	-2.0350001	2.7119999	2.688
31	1	4	-0.161973	-0.361	0.85600001	1.436
32	1	5	0.110972	-0.012	1.895	1.24
33	1	5	0.110972	0.138	0.551	2.382
34	1	4	-0.161973	0.64399999	-1.42	0.704
35	1	5	0.110972	0.192	-2.2539999	0.12
36	1	5	0.110972	0.41100001	-1.6440001	1.768
37	1	4	-0.030873001	2.1830001	-1.367	0.442
38	1	4	-0.139019	2.948	-1.099	1.751
39	1	5	0.078598	4.0380001	-1.011	1.556
40	1	5	0.078598	2.5999999	-0.154	2.223
41	1	5	0.078598	2.7869999	-1.931	2.47
42	1	4	-0.139019	2.678	-2.6719999	-0.20900001
43	1	5	0.078598	2.1800001	-2.832	-1.1900001
44	1	5	0.078598	3.776	-2.641	-0.375
45	1	5	0.078598	2.4489999	-3.539	0.44800001
46	1	2	0.62335998	-2.2420001	-1.938	-4.0380001
47	1	6	-0.53470099	-1.659	-2.948	-3.6830001
48	1	1	-0.054409001	1.341	3.773	-2.9949999
49	1	2	0.227448	1.108	4.9089999	-2.2249999
50	1	2	-0.357133	-0.037	5.5999999	-2.382
51	1	3	0.20014501	-0.77600002	5.2729998	-3.102
52	1	2	-0.022936	-0.29699999	6.8109999	-1.567
53	1	3	0.19457901	-1.227	7.3520002	-1.681
54	1	2	-0.23407	0.63499999	7.2129998	-0.69
55	1	2	-0.058975998	1.863	6.467	-0.514
56	1	2	-0.240145	2.115	5.3610001	-1.23
57	1	3	0.194024	3.03	4.802	-1.08
58	1	4	0.110443	2.707	7.073	0.55800003
59	1	2	-0.013702	4.1290002	7.2620001	0.139
60	1	2	-0.404071	4.5840001	7.8559999	-0.97399998
61	1	3	0.199672	3.8959999	8.25	-1.711
62	1	2	0.35016799	6.052	7.973	-1.1720001
63	1	7	-0.65965199	6.5609999	8.5719995	-2.3210001
64	1	8	0.42391601	5.9450002	8.9350004	-3.039
65	1	2	-0.43064001	6.895	7.5009999	-0.235
66	1	3	0.205424	7.9650002	7.5879998	-0.37099999
67	1	2	0.044915002	6.3649998	6.8629999	0.995
68	1	3	0.19457901	7.0450001	6.5029998	1.755
69	1	2	-0.23407	5.0359998	6.7470002	1.142
70	1	4	-0.030873001	4.289	6.1719999	2.306
71	1	4	-0.139019	4.4439998	7.0900002	3.5320001
72	1	5	0.078598	5.5079999	7.1420002	3.8499999
73	1	5	0.078598	4.098	8.1199999	3.2980001
74	1	5	0.078598	3.8440001	6.7020001	4.3829999
75	1	4	-0.139019	4.7789998	4.75	2.6359999
76	1	5	0.078598	4.7379999	4.1020002	1.733
77	1	5	0.078598	5.8270001	4.7670002	3.006
78	1	5	0.078598	4.1399999	4.2979999	3.424
79	1	4	-0.161973	2.8069999	6.1539998	1.814
80	1	5	0.110972	2.5150001	5.1149998	1.5420001
81	1	5	0.110972	2.0999999	6.4590001	2.6159999
82	1	4	-0.161973	2.003	8.4300003	0.866
83	1	5	0.110972	2.579	9.2639999	0.405
84	1	5	0.110972	1.979	8.6540003	1.955
85	1	4	-0.030873001	0.56900001	8.3769999	0.25
86	1	4	-0.139019	-0.48199999	8.1090002	1.342
87	1	5	0.078598	-1.4960001	8.0209999	0.89600003
88	1	5	0.078598	-0.255	7.165	1.882
89	1	5	0.078598	-0.49599999	8.941	2.079
90	1	4	-0.139019	0.241	9.6820002	-0.5
91	1	5	0.078598	0.95499998	9.8430004	-1.336
92	1	5	0.078598	-0.787	9.651	-0.91900003
93	1	5	0.078598	0.308	10.549	0.192
94	1	2	0.462715	-1.9400001	-1.428	-4.9460001
95	1	6	-0.62423402	-2.5769999	-0.47	-5.349
96	1	9	-0.107936	-0.53299999	-1.9809999	-5.835

Bonds

1	1	1	2
2	2	1	48
3	3	2	3
4	3	2	9
5	4	3	4
6	3	3	5
7	4	5	6
8	3	5	7
9	3	7	8
10	5	7	37
11	3	8	9
12	5	8	11
13	4	9	10
14	5	11	12
15	6	11	34
16	6	11	31
17	3	12	13
18	3	12	21
19	4	13	14
20	3	13	15
21	1	15	16
22	3	15	17
23	7	16	46
24	4	17	18
25	3	17	19
26	4	19	20
27	3	19	21
28	5	21	22
29	6	22	23
30	6	22	27
31	6	22	31
32	8	23	24
33	8	23	25
34	8	23	26
35	8	27	28
36	8	27	29
37	8	27	30
38	8	31	32
39	8	31	33
40	8	34	35
41	8	34	36
42	6	34	37
43	6	37	38
44	6	37	42
45	8	38	39
46	8	38	40
47	8	38	41
48	8	42	43
49	8	42	44
50	8	42	45
51	9	46	47
52	10	46	94
53	1	48	49
54	3	49	50
55	3	49	56
56	4	50	51
57	3	50	52
58	4	52	53
59	3	52	54
60	3	54	55
61	5	54	85
62	3	55	56
63	5	55	58
64	4	56	57
65	5	58	59
66	6	58	82
67	6	58	79
68	3	59	60
69	3	59	69
70	4	60	61
71	3	60	62
72	11	62	63
73	3	62	65
74	12	63	64
75	4	65	66
76	3	65	67
77	4	67	68
78	3	67	69
79	5	69	70
80	6	70	71
81	6	70	75
82	6	70	79
83	8	71	72
84	8	71	73
85	8	71	74
86	8	75	76
87	8	75	77
88	8	75	78
89	8	79	80
90	8	79	81
91	8	82	83
92	8	82	84
93	6	82	85
94	6	85	86
95	6	85	90
96	8	86	87
97	8	86	88
98	8	86	89
99	8	90	91
100	8	90	92
101	8	90	93
102	9	94	95
103	13	94	96

Angles

1	5	82	85	90
2	5	21	22	23
3	5	22	31	33
4	5	84	82	85
5	5	22	27	28
6	5	70	75	76
7	1	55	54	85
8	7	28	27	30
9	5	55	58	79
10	5	23	22	31
11	5	71	70	79
12	1	2	9	8
13	3	68	67	69
14	5	7	37	34
15	5	55	58	59
16	1	12	21	22
17	5	11	34	37
18	3	17	19	20
19	1	60	59	69
20	5	23	22	27
21	5	71	70	75
22	1	47	46	94
23	1	95	94	96
24	3	14	13	15
25	1	1	2	9
26	1	60	62	63
27	5	8	11	12
28	5	11	31	32
29	5	22	27	29
30	1	49	56	55
31	5	70	75	77
32	5	86	85	90
33	1	46	94	95
34	1	48	49	50
35	5	21	22	31
36	3	2	9	10
37	3	62	65	66
38	1	63	62	65
39	5	79	58	82
40	5	54	85	86
41	3	50	52	53
42	7	43	42	44
43	1	49	50	52
44	7	91	90	92
45	5	11	34	35
46	5	37	38	40
47	7	24	23	25
48	7	72	71	73
49	5	85	90	91
50	5	21	22	27
51	4	67	69	70
52	5	54	85	82
53	7	87	86	88
54	5	75	70	79
55	7	29	27	30
56	1	54	55	58
57	1	58	59	60
58	2	15	16	46
59	7	77	75	78
60	1	46	94	96
61	2	2	1	48
62	1	12	21	19
63	5	58	79	80
64	3	20	19	21
65	1	3	2	9
66	5	58	82	83
67	5	69	70	71
68	5	37	38	41
69	7	72	71	74
70	7	83	82	84
71	7	76	75	78
72	5	12	11	31
73	1	7	8	9
74	5	59	58	82
75	1	5	7	8
76	1	59	60	62
77	5	85	90	92
78	5	85	86	89
79	5	58	79	81
80	5	7	37	42
81	5	22	23	24
82	3	15	17	18
83	5	83	82	85
84	7	39	38	40
85	4	19	21	22
86	5	69	70	79
87	5	7	37	38
88	5	37	42	43
89	5	85	90	93
90	5	85	86	87
91	1	13	12	21
92	1	17	19	21
93	5	70	71	72
94	7	25	23	26
95	3	53	52	54
96	1	58	59	69
97	5	69	70	75
98	5	22	27	30
99	5	11	31	33
100	5	70	75	78
101	5	59	58	79
102	1	59	69	70
103	5	22	23	25
104	1	16	15	17
105	1	62	65	67
106	7	35	34	36
107	3	4	3	5
108	5	38	37	42
109	5	34	37	38
110	7	39	38	41
111	5	54	85	90
112	1	1	2	3
113	1	50	52	54
114	3	2	3	4
115	7	43	42	45
116	4	52	54	85
117	7	91	90	93
118	5	11	34	36
119	1	48	49	56
120	4	5	7	37
121	1	16	46	94
122	5	8	11	34
123	7	24	23	26
124	1	50	49	56
125	3	18	17	19
126	3	3	5	6
127	1	13	15	16
128	1	60	62	65
129	7	87	86	89
130	3	49	56	57
131	3	55	56	57
132	2	1	48	49
133	5	82	85	86
134	1	7	8	11
135	2	62	63	64
136	5	22	31	32
137	5	70	79	80
138	1	2	3	5
139	5	58	82	84
140	5	58	79	70
141	3	66	65	67
142	7	92	90	93
143	7	28	27	29
144	6	16	46	47
145	7	32	31	33
146	7	80	79	81
147	1	13	15	17
148	1	11	12	13
149	5	36	34	37
150	1	9	8	11
151	5	31	11	34
152	5	34	37	42
153	5	70	79	81
154	5	58	82	85
155	1	54	55	56
156	7	73	71	74
157	7	88	86	89
158	5	11	31	22
159	1	15	17	19
160	5	35	34	37
161	3	51	50	52
162	3	65	67	68
163	5	37	42	44
164	3	49	50	51
165	3	8	9	10
166	5	37	38	39
167	5	70	71	73
168	1	11	12	21
169	3	12	13	14
170	1	56	55	58
171	7	40	38	41
172	7	44	42	45
173	5	22	23	26
174	5	55	58	82
175	5	27	22	31
176	5	12	11	34
177	5	85	86	88
178	1	65	67	69
179	5	37	42	45
180	1	59	69	67
181	5	70	71	74
182	1	12	13	15
183	1	3	5	7
184	1	52	54	55
185	7	76	75	77
186	1	8	7	37
187	3	61	60	62
188	3	6	5	7
189	3	59	60	61
190	5	8	11	31

Dihedrals

1	1	3	5	7	37
2	11	78	75	70	79
3	6	70	79	58	82
3	7	70	79	58	82
3	8	70	79	58	82
4	11	75	70	79	81
5	1	5	7	8	9
6	1	11	12	21	22
7	11	82	85	90	91
8	1	62	65	67	68
9	1	5	3	2	9
10	1	3	2	9	10
11	11	79	58	82	84
12	1	4	3	2	9
13	5	12	11	31	32
14	1	63	62	65	66
15	11	88	86	85	90
16	4	52	54	85	86
17	11	74	71	70	75
18	1	15	17	19	21
19	4	59	69	70	75
20	1	50	49	56	57
21	1	17	19	21	22
22	5	59	58	82	83
23	1	7	8	9	10
24	4	8	11	12	21
25	10	16	46	94	95
26	1	62	60	59	69
27	12	60	62	63	64
28	1	2	9	8	11
29	2	3	2	1	48
30	1	60	59	69	67
31	1	61	60	62	65
32	1	18	17	19	20
33	1	50	52	54	55
34	11	71	70	75	76
35	1	1	2	9	8
36	1	2	3	5	7
37	5	12	11	34	35
38	11	34	37	42	43
39	11	35	34	37	42
40	4	52	54	85	82
41	4	59	69	70	71
42	4	69	59	58	79
43	5	7	37	34	36
44	6	31	11	34	37
44	7	31	11	34	37
44	8	31	11	34	37
45	4	54	55	58	59
46	11	26	23	22	31
47	5	69	70	75	78
48	5	54	85	86	89
49	4	8	7	37	42
50	1	48	49	56	57
51	5	21	22	27	28
52	9	15	16	46	94
53	11	86	85	90	93
54	11	25	23	22	31
55	5	54	85	82	83
56	10	16	46	94	96
57	12	64	63	62	65
58	1	1	2	3	5
59	1	62	65	67	69
60	4	8	11	12	13
61	1	12	21	19	20
62	1	11	12	21	19
63	2	1	48	49	50
64	1	59	60	62	63
65	4	12	21	22	23
66	1	18	17	19	21
67	11	71	70	75	77
68	5	12	11	34	36
69	11	34	37	42	44
70	11	76	75	70	79
71	4	19	21	22	23
72	11	82	85	86	87
73	6	58	79	70	75
73	7	58	79	70	75
73	8	58	79	70	75
74	2	17	15	16	46
75	4	21	12	11	34
76	11	25	23	22	27
77	1	51	50	52	54
78	11	31	11	34	35
79	1	58	59	69	70
80	4	67	69	70	79
81	4	9	8	11	34
82	11	87	86	85	90
83	5	21	22	27	29
84	11	34	37	38	39
85	2	15	16	46	47
86	5	54	85	82	84
87	6	58	79	70	71
87	7	58	79	70	71
87	8	58	79	70	71
88	5	69	70	79	80
89	1	2	9	8	7
90	5	7	37	38	41
91	5	69	70	71	74
92	5	8	11	34	37
93	5	54	85	90	91
94	1	12	13	15	16
95	5	21	22	23	24
96	11	27	22	31	32
97	1	49	56	55	58
98	1	5	7	8	11
99	4	55	54	85	86
100	11	23	22	27	29
101	1	16	15	17	18
102	5	59	58	79	80
103	1	59	69	67	68
104	4	12	21	22	31
105	1	12	21	19	17
106	1	14	13	15	16
107	6	22	31	11	34
107	7	22	31	11	34
107	8	22	31	11	34
108	4	19	21	22	31
109	4	7	8	11	34
110	1	48	49	50	51
111	1	52	54	55	56
112	6	58	82	85	86
112	7	58	82	85	86
112	8	58	82	85	86
113	4	54	55	58	79
114	4	56	55	58	82
115	1	9	8	7	37
116	4	21	12	11	31
117	1	49	56	55	54
118	4	55	54	85	82
119	11	82	85	90	92
120	5	69	70	79	81
121	11	81	79	58	82
122	4	55	58	59	60
123	4	12	21	22	27
124	11	38	37	42	43
125	5	12	11	31	33
126	5	11	31	22	21
127	6	79	58	82	85
127	7	79	58	82	85
127	8	79	58	82	85
128	1	48	49	56	55
129	4	19	21	22	27
130	1	50	52	54	85
131	4	52	54	85	90
132	5	21	22	23	25
133	5	54	85	90	92
134	11	80	79	58	82
135	1	49	50	52	53
136	1	58	59	60	61
137	5	59	58	82	84
138	5	55	58	79	80
139	11	23	22	27	30
140	11	36	34	37	42
141	5	59	58	79	81
142	10	47	46	94	95
143	5	55	58	82	83
144	1	13	12	21	22
145	5	7	37	42	43
146	1	1	2	9	10
147	1	48	49	50	52
148	1	68	67	69	70
149	1	20	19	21	22
150	1	66	65	67	68
151	11	84	82	85	86
152	4	5	7	37	34
153	5	21	22	31	32
154	11	36	34	37	38
155	1	14	13	12	21
156	1	53	52	54	55
157	1	59	69	67	65
158	4	60	59	58	82
159	5	54	85	86	87
160	11	38	37	42	44
161	11	82	85	90	93
162	1	11	8	7	37
163	11	71	70	79	81
164	4	7	8	11	31
165	1	56	55	54	85
166	1	60	62	65	66
167	4	13	12	11	34
168	5	59	58	82	85
169	1	58	59	60	62
170	5	55	58	79	81
171	1	10	9	8	11
172	5	7	37	42	44
173	11	71	70	75	78
174	1	11	12	13	14
175	11	34	37	42	45
176	1	66	65	67	69
177	11	77	75	70	79
178	11	23	22	31	32
179	1	50	49	56	55
180	5	21	22	31	33
181	11	31	11	34	36
182	11	30	27	22	31
183	5	8	11	31	32
184	1	61	60	62	63
185	11	89	86	85	90
186	5	21	22	27	30
187	11	34	37	38	40
188	11	83	82	85	86
189	1	4	3	5	6
190	4	55	58	59	69
191	1	58	59	69	67
192	1	59	60	62	65
193	4	60	59	58	79
194	5	69	70	75	76
195	1	15	13	12	21
196	1	3	2	9	8
197	5	8	11	34	35
198	4	9	8	11	31
199	6	11	34	37	42
199	7	11	34	37	42
199	8	11	34	37	42
200	1	54	55	56	57
201	11	73	71	70	79
202	5	12	11	31	22
203	1	12	13	15	17
204	1	15	17	19	20
205	11	27	22	31	33
206	3	2	1	48	49
207	4	13	12	11	31
208	11	86	85	90	91
209	11	28	27	22	31
210	1	16	15	17	19
211	4	55	54	85	90
212	1	14	13	15	17
213	5	8	11	31	33
214	5	59	58	79	70
215	11	71	70	79	80
216	2	9	2	1	48
217	11	33	31	11	34
218	6	11	34	37	38
218	7	11	34	37	38
218	8	11	34	37	38
219	6	58	82	85	90
219	7	58	82	85	90
219	8	58	82	85	90
220	11	34	37	38	41
221	5	12	11	34	37
222	1	52	50	49	56
223	11	73	71	70	75
224	1	4	3	5	7
225	11	82	85	86	88
226	11	83	82	85	90
227	11	32	31	11	34
228	1	6	5	7	8
229	11	72	71	70	75
230	5	7	37	34	35
231	5	69	70	75	77
232	5	8	11	34	36
233	5	54	85	86	88
234	5	54	85	90	93
235	5	21	22	23	26
236	11	86	85	90	92
237	11	40	38	37	42
238	1	3	5	7	8
239	1	49	50	52	54
240	4	56	55	58	79
241	1	51	50	49	56
242	4	5	7	37	42
243	1	1	2	3	4
244	4	9	8	11	12
245	10	47	46	94	96
246	5	58	79	70	69
247	5	55	58	82	84
248	1	13	15	17	18
249	6	11	31	22	27
249	7	11	31	22	27
249	8	11	31	22	27
250	11	39	38	37	42
251	1	53	52	54	85
252	5	55	58	79	70
253	4	56	55	58	59
254	1	65	67	69	70
255	4	8	7	37	34
256	5	7	37	38	39
257	11	24	23	22	31
258	1	52	54	55	58
259	1	58	55	54	85
260	5	69	70	71	72
261	5	7	37	34	11
262	11	84	82	85	90
263	1	61	60	59	69
264	11	82	85	86	89
265	1	51	50	52	53
266	2	13	15	16	46
267	4	5	7	37	38
268	2	1	48	49	56
269	4	67	69	70	75
270	11	38	37	42	45
271	6	11	31	22	23
271	7	11	31	22	23
271	8	11	31	22	23
272	1	13	12	21	19
273	5	54	85	82	58
274	11	24	23	22	27
275	11	41	38	37	42
276	11	29	27	22	31
277	11	35	34	37	38
278	1	60	62	65	67
279	1	63	62	65	67
280	11	75	70	79	80
281	4	7	8	11	12
282	1	13	15	17	19
283	5	55	58	82	85
284	5	7	37	42	45
285	1	60	59	69	70
286	4	67	69	70	71
287	1	11	12	13	15
288	5	7	37	38	40
289	11	26	23	22	27
290	4	8	7	37	38
291	4	54	55	58	82
292	1	57	56	55	58
293	5	69	70	71	73
294	11	79	58	82	83
295	4	69	59	58	82
296	11	23	22	31	33
297	11	72	71	70	79
298	11	23	22	27	28
299	1	6	5	7	37
300	4	59	69	70	79
301	11	74	71	70	79
302	5	8	11	31	22
303	1	2	3	5	6

Impropers

6	1	55	54	56	58
18	1	62	63	65	60
20	1	67	68	69	65
21	1	19	20	21	17
32	1	59	69	58	60
49	2	46	47	94	16
52	1	12	11	13	21
63	1	50	52	49	51
64	1	7	37	5	8
67	1	9	10	2	8
74	1	55	56	58	54
83	1	3	5	2	4
87	1	67	69	65	68
116	1	65	66	67	62
118	1	54	55	85	52
131	1	12	21	11	13
145	2	46	94	16	47
153	1	54	85	52	55
164	1	56	55	57	49
165	1	60	59	61	62
172	1	17	15	18	19
177	1	19	21	17	20
183	1	15	13	16	17
184	1	3	2	4	5
191	1	65	62	66	67
199	1	9	8	10	2
201	1	52	54	50	53
206	1	8	7	9	11
209	1	13	14	15	12
210	1	49	48	50	56
211	1	62	65	60	63
217	1	62	60	63	65
240	1	7	8	37	5
247	1	21	12	19	22
266	1	9	2	8	10
271	1	65	67	62	66
275	1	49	50	56	48
277	1	59	60	69	58
281	1	50	49	51	52
282	1	7	5	8	37
291	1	67	65	68	69
300	1	56	57	49	55
323	1	49	56	48	50
329	1	60	62	59	61
330	1	52	53	54	50
341	1	3	4	5	2
342	1	52	50	53	54
343	1	94	95	96	46
344	1	5	6	7	3
347	1	5	7	3	6
350	1	2	9	1	3
360	1	94	96	46	95
364	1	8	11	7	9
382	1	19	17	20	21
383	1	17	19	15	18
393	1	54	52	55	85
397	1	55	58	54	56
403	1	21	22	12	19
419	1	17	18	19	15
427	1	94	46	95	96
436	1	13	15	12	14
441	1	50	51	52	49
445	1	2	3	9	1
448	1	13	12	14	15
455	1	15	17	13	16
484	1	56	49	55	57
494	1	2	1	3	9
497	1	15	16	17	13
503	1	59	58	60	69
522	1	21	19	22	12
539	1	8	9	11	7
541	1	60	61	62	59
545	1	12	13	21	11
559	1	69	59	67	70
562	1	69	67	70	59
565	1	69	70	59	67
571	2	46	16	47	94
584	1	5	3	6	7
