Title

17500 atoms
17375 bonds
33000 angles
60000 dihedrals
2250 impropers

11 atom types
14 bond types
9 angle types
35 dihedral types
3 improper types
-12.45002545 134.1433817 xlo xhi
-11.13832542 133.9441045 ylo yhi
-13.42485866 134.3980873 zlo zhi
0.0 0.0 0.0 xy xz yz

Masses

1	12.01078
2	15.99943
3	14.00672
4	12.01078
5	1.007947
6	1.007947
7	1.007947
8	15.99943
9	12.01078
10	15.99943
11	1.007947


Pair Coeffs

1	0.086879315	3.4806469
2	0.2102061	3.0398122
3	0.16769152	3.206876
4	0.10884061	3.3795318
5	0.014090815	1.1034277
6	0.016409246	2.5832257
7	0.015779483	2.6445434
8	0.16846514	3.0251065
9	0.21	3.3996695
10	0.20947353	2.99716
11	1.2326e-05	0.53453923

Bond Coeffs

1 harmonic	582.698766451	1.225198386222
2 harmonic	492.76746816345	1.381897776683
3 harmonic	279.1350963404	1.454628925034
4 harmonic	352.0565580496	1.450098586273
5 harmonic	505.144496193	1.019481865027
6 harmonic	264.62148576755	1.52190126495
7 harmonic	370.04670688625	1.093899492634
8 harmonic	301.15400723785	1.345741232799
9 harmonic	366.7408841747	1.425895053732
10 harmonic	300.03137914615	1.451203938761
11 harmonic	366.34047229585	1.464762957261
12 harmonic	602.81384337	1.196112346392
13 harmonic	329.96998057905	1.427343958716
14 harmonic	543.5267831885	0.9716763312559


Angle Coeffs

1 harmonic	55.42182150775	117.3465570514
2 harmonic	63.44422595415	115.5071327674
3 harmonic	57.8982893754	126.8062420451
4 harmonic	53.20531626545	116.5475862634
5 harmonic	65.09061609600001	110.3538806181
6 harmonic	201.41175231035	127.4691416191
7 harmonic	48.776492647595	115.6030999533
8 harmonic	55.07882548015	112.8714009681
9 harmonic	33.56981613361	180


Dihedral Coeffs

1 fourier 1	-0.1488678166443	4	180
2 fourier 1	-0.1230328948768	3	180
3 fourier 1	0.2939295466901	2	0
4 fourier 1	-0.3024127022865	1	0
5 fourier 1	0.182238503271	2	0
6 fourier 1	0.02972342374561	3	0
7 fourier 1	1.809047390003	2	180
8 fourier 1	-0.04816277792592	1	0
9 fourier 1	3.101948770557	2	180
10 fourier 1	-0.4252153282372	1	0
11 fourier 1	2.348375642009	2	180
12 fourier 1	1.256156174911	1	0
13 fourier 1	0.9974165607242	2	180
14 fourier 1	0.1155372516788	3	0
15 fourier 1	0.09223874044423	3	0
16 fourier 1	0.3159935921949	2	180
17 fourier 1	0.3247796806857	1	180
18 fourier 1	0.1040663847541	3	0
19 fourier 1	2.779853741805	2	180
20 fourier 1	0.1918272375143	3	0
21 fourier 1	0.9202179876409	1	180
22 fourier 1	0.0473758381877	3	0
23 fourier 1	0.4860993122944	2	180
24 fourier 1	0.8916986138746	1	0
25 fourier 1	1.163809172478	2	180
26 fourier 1	0.1679186987369	1	180
27 fourier 1	0.1911926717192	3	0
28 fourier 1	0.1115525666802	3	0
29 fourier 1	0.3432490222662	1	0
30 fourier 1	0.457973137376	1	0
31 fourier 1	-1.382973039546	1	0
32 fourier 1	0	1	0
33 fourier 1	0.3445382149273	3	0
34 fourier 1	0.1364556373303	1	0
35 fourier 1	0.3026390167484	3	0


Improper Coeffs

1 0.3333333333333333	-1	2
2 0.3666666666666667	-1	2
3 3.5	-1	2


Atoms

1	6	1	0.54104687	-5.6379478	-3.6416255	6.8619012
2	6	2	-0.6989104	-6.8418657	-3.3703249	6.6095493
3	6	3	-0.52462815	-4.7861753	-2.6831884	7.4996943
4	6	4	0.029579773	-5.2414945	-1.3461984	7.8783448
5	6	4	-0.1468817	-5.4009331	-0.43654527	6.649793
6	6	4	-0.14218649	-4.1227464	-0.3060788	5.8020867
7	6	4	-0.1417975	-2.981373	0.39986814	6.5555737
8	6	4	-0.14055356	-1.8053814	0.76174637	5.63502
9	6	4	-0.14055356	-1.0571335	-0.47987336	5.1198769
10	6	4	-0.1417975	0.27093234	-0.12762181	4.4289681
11	6	4	-0.14218649	0.06278328	0.57962209	3.07845
12	6	4	-0.14560184	1.3923102	0.87498709	2.3594202
13	6	4	0.023713368	2.0069334	-0.35594812	1.6741175
14	6	3	-0.46869127	1.2041733	-0.79579336	0.5324541
15	6	1	0.78385086	1.5581609	-1.9510447	-0.23148059
16	6	2	-0.62104033	2.5749381	-2.6344719	0.064825741
17	6	5	0.32314329	0.35809177	-0.25703504	0.23785872
18	6	6	0.052866991	3.0229544	-0.087759601	1.3136439
19	6	6	0.052866991	2.1161708	-1.1895483	2.3986408
20	6	7	0.085251569	2.1240368	1.2922292	3.0855932
21	6	7	0.085251569	1.2195591	1.6590831	1.590351
22	6	7	0.084129795	-0.44212821	1.5529648	3.2564732
23	6	7	0.084129795	-0.60161128	-0.028596248	2.4290654
24	6	7	0.083368077	0.88595247	0.50989794	5.1011472
25	6	7	0.083368077	0.82473806	-1.0759945	4.2686889
26	6	7	0.083368077	-1.6983919	-1.0480643	4.4129117
27	6	7	0.083368077	-0.82775293	-1.1464492	5.9796055
28	6	7	0.083368077	-2.1819209	1.3666171	4.7820544
29	6	7	0.083368077	-1.1002759	1.3971754	6.21565
30	6	7	0.083368077	-3.3707715	1.3412473	7.0032209
31	6	7	0.083368077	-2.6133692	-0.24268787	7.3834801
32	6	7	0.084129795	-4.3766246	0.28229413	4.8939209
33	6	7	0.084129795	-3.7956965	-1.3132965	5.4677441
34	6	7	0.085251569	-6.2118161	-0.83754361	6.005207
35	6	7	0.085251569	-5.7251283	0.57152259	6.9874714
36	6	6	0.049340605	-4.5156022	-0.89444293	8.5875241
37	6	6	0.049340605	-6.2124765	-1.4211249	8.4130231
38	6	5	0.31655846	-3.813815	-2.9725705	7.748571
39	7	8	-0.49987663	0.97293203	-2.231728	-1.0404855
40	7	4	0.11314058	-0.13787282	-1.3772081	-1.0481189
41	7	4	-0.13964868	0.25595459	-0.0029068938	-1.5963179
42	7	4	-0.14068949	-0.95410356	0.9435143	-1.6329675
43	7	4	-0.14188054	-0.6286602	2.2889216	-2.2993433
44	7	4	-0.14055356	0.30691873	3.1610634	-1.4450748
45	7	4	-0.14055356	0.44177405	4.5955228	-1.9854351
46	7	4	-0.14183021	1.0166008	4.7040763	-3.4127495
47	7	4	-0.13942011	2.3864218	4.0318804	-3.616288
48	7	4	-0.14564236	3.4841028	4.6373418	-2.7260544
49	7	4	0.034731961	4.871382	4.0938938	-3.0816691
50	7	8	-0.17255043	4.9639611	2.7282826	-2.7726754
51	7	6	0.082685217	5.1024021	4.2809319	-4.1562227
52	7	6	0.082685217	5.6298732	4.6389494	-2.481124
53	7	7	0.090191483	3.2779225	4.4122338	-1.6582589
54	7	7	0.090191483	3.4950706	5.7412949	-2.8543243
55	7	7	0.085299342	2.6732828	4.1672585	-4.6822948
56	7	7	0.085299342	2.3052299	2.9391022	-3.4385641
57	7	7	0.083368077	0.2938804	4.2666726	-4.1342967
58	7	7	0.083368077	1.1048585	5.7809918	-3.6740165
59	7	7	0.083368077	1.0768003	5.1821479	-1.2880273
60	7	7	0.083368077	-0.56017337	5.0772009	-1.975013
61	7	7	0.083368077	-0.10306571	3.2263388	-0.41357546
62	7	7	0.083368077	1.3102584	2.6953024	-1.3672149
63	7	7	0.083368077	-1.584524	2.8346768	-2.4580053
64	7	7	0.083368077	-0.17580883	2.101749	-3.2974886
65	7	7	0.085123911	-1.3325295	1.1142651	-0.60139783
66	7	7	0.085123911	-1.7698153	0.46165344	-2.2150401
67	7	7	0.089122042	1.0488333	0.42310055	-0.94689512
68	7	7	0.089122042	0.66577965	-0.12728007	-2.6222115
69	7	6	0.082774892	-0.92115038	-1.82562	-1.6958511
70	7	6	0.082774892	-0.55591651	-1.2789907	-0.019917146
71	4	1	0.54104693	-5.245781	-4.6143326	6.5985362
72	4	2	-0.69891046	-5.9964795	-5.4524081	6.0330283
73	4	3	-0.52462821	-3.8844789	-4.935584	6.9046018
74	4	4	0.029579777	-3.2808398	-6.2260807	6.5736334
75	4	4	-0.1468817	-2.996538	-6.3397134	5.0708566
76	4	4	-0.14218649	-1.9757958	-5.2897251	4.6018161
77	4	4	-0.1417975	-1.5579171	-5.4869042	3.1361231
78	4	4	-0.14055356	-2.6936028	-5.1636927	2.1496434
79	4	4	-0.14055356	-2.2100725	-5.104589	0.69255168
80	4	4	-0.14161611	-1.7789739	-6.4816803	0.15838836
81	4	4	-0.13780282	-1.5435528	-6.4781796	-1.3599903
82	4	4	-0.1232468	-0.29909964	-5.6684904	-1.7625803
83	4	4	0.18300772	0.014667644	-5.8115107	-3.2543045
84	4	3	-0.65900724	-1.0344482	-5.1917645	-4.0576946
85	4	9	0.59237261	-1.700429	-5.8496444	-4.9184963
86	4	2	-0.48753344	-2.3483036	-6.4909432	-5.7552516
87	4	6	0.028573084	0.14387634	-6.8885243	-3.5130667
88	4	6	0.028573084	0.97457804	-5.2965959	-3.469562
89	4	7	0.078906118	0.5781849	-6.0287306	-1.1834526
90	4	7	0.078906118	-0.44991813	-4.5924073	-1.5306538
91	4	7	0.082854598	-2.4430113	-6.0779835	-1.8763657
92	4	7	0.082854598	-1.4081763	-7.5320288	-1.6886907
93	4	7	0.083368077	-0.85399217	-6.8201774	0.6719705
94	4	7	0.083368077	-2.5783811	-7.2225296	0.37781137
95	4	7	0.083368077	-3.0458233	-4.7180455	0.069377668
96	4	7	0.083368077	-1.3685192	-4.3822374	0.61504605
97	4	7	0.083368077	-3.5040693	-5.9192338	2.2359843
98	4	7	0.083368077	-3.1274653	-4.1725426	2.406818
99	4	7	0.083368077	-1.2101499	-6.5321598	2.990399
100	4	7	0.083368077	-0.69827676	-4.8120795	2.9323438
101	4	7	0.084129795	-1.0627718	-5.3693073	5.2323133
102	4	7	0.084129795	-2.3898265	-4.2673286	4.7369277
103	4	7	0.085251569	-3.9477976	-6.2265328	4.5094839
104	4	7	0.085251569	-2.5979558	-7.3575464	4.8674623
105	4	6	0.049340605	-2.3308337	-6.3450508	7.1381539
106	4	6	0.049340605	-3.959595	-7.0479482	6.8903196
107	4	5	0.31655849	-3.3179037	-4.2363546	7.4346366
108	5	8	-0.17255043	4.6724363	2.2298427	-3.5802743
109	5	4	0.034731961	3.4105047	2.7305671	-3.9283873
110	5	4	-0.14564236	3.5514999	4.0915638	-4.6147598
111	5	4	-0.13942011	2.1802905	4.6486799	-5.0240228
112	5	4	-0.14183021	2.2902771	5.9507076	-5.8331067
113	5	4	-0.14055356	2.7639661	7.1388705	-4.977672
114	5	4	-0.14055356	2.6444779	8.4853134	-5.7132128
115	5	4	-0.14183021	3.469757	8.5951847	-7.011052
116	5	4	-0.13533507	4.9755056	8.3197237	-6.8510632
117	5	4	-0.16756602	5.662524	9.3021058	-5.8895207
118	5	4	0.087992221	7.1848409	9.1371896	-5.8947934
119	5	10	-0.6823123	7.5509727	7.8953307	-5.3544119
120	5	11	0.38148825	7.5803031	7.2507573	-6.1079647
121	5	6	0.073487654	7.5899812	9.2640521	-6.925551
122	5	6	0.073487654	7.6297871	9.9359433	-5.2644526
123	5	7	0.092546217	5.2927167	9.1458484	-4.8533295
124	5	7	0.092546217	5.41965	10.3447	-6.1920156
125	5	7	0.085299342	5.444595	8.4137917	-7.8550435
126	5	7	0.085299342	5.1376433	7.2744514	-6.5141668
127	5	7	0.083368077	3.057307	7.8960702	-7.7695412
128	5	7	0.083368077	3.3362155	9.6189063	-7.4244849
129	5	7	0.083368077	2.941241	9.2996715	-5.0181937
130	5	7	0.083368077	1.5752673	8.6631007	-5.9628813
131	5	7	0.083368077	2.1366417	7.1976141	-4.0618864
132	5	7	0.083368077	3.8109602	6.9858879	-4.6451654
133	5	7	0.083368077	1.2856687	6.1837006	-6.2474594
134	5	7	0.083368077	2.9819871	5.7918156	-6.6879351
135	5	7	0.085299342	1.5550493	4.817753	-4.1195534
136	5	7	0.085299342	1.6605054	3.8958417	-5.6565796
137	5	7	0.090191483	4.0497108	4.7931193	-3.9122984
138	5	7	0.090191483	4.1944986	3.9767723	-5.5158844
139	5	6	0.082685217	2.928244	2.0111616	-4.6255598
140	5	6	0.082685217	2.7671008	2.8176221	-3.0228444
141	6	1	0.54104687	3.1682089	4.8194523	19.996417
142	6	2	-0.6989104	4.3924102	5.0812049	20.136134
143	6	3	-0.52462815	2.1662852	5.6396237	20.608271
144	6	4	0.029579773	2.4894359	6.8026514	21.433604
145	6	4	-0.1468817	3.0336982	6.3838294	22.808593
146	6	4	-0.14218649	2.0877417	5.4605398	23.597321
147	6	4	-0.1417975	0.77266229	6.15639	23.99127
148	6	4	-0.14055356	-0.051664779	5.3313161	24.991804
149	6	4	-0.14055356	-0.60928	4.0388546	24.370937
150	6	4	-0.1417975	-1.6502215	3.3503968	25.269637
151	6	4	-0.14218649	-1.0228875	2.7347358	26.532504
152	6	4	-0.14560184	-2.0567999	1.9919226	27.399187
153	6	4	0.023713368	-2.4340038	0.60559338	26.852917
154	6	3	-0.46869127	-1.3163808	-0.33433379	26.946397
155	6	1	0.78385086	-1.4208883	-1.6734363	26.457121
156	6	2	-0.62104033	-2.4843164	-2.0829921	25.91852
157	6	5	0.32314329	-0.41660508	-0.048138623	27.39517
158	6	6	0.052866991	-3.2832087	0.21068076	27.450462
159	6	6	0.052866991	-2.7716229	0.68251104	25.798472
160	6	7	0.085251569	-2.9765658	2.6099126	27.49385
161	6	7	0.085251569	-1.6452544	1.8685045	28.424621
162	6	7	0.084129795	-0.59230186	3.548973	27.153502
163	6	7	0.084129795	-0.19259403	2.0531966	26.251138
164	6	7	0.083368077	-2.4405912	4.0789619	25.554268
165	6	7	0.083368077	-2.1326136	2.5515637	24.668834
166	6	7	0.083368077	0.21744626	3.3283729	24.157413
167	6	7	0.083368077	-1.1022054	4.2849274	23.405254
168	6	7	0.083368077	0.578373	5.0938314	25.87603
169	6	7	0.083368077	-0.89879213	5.9634267	25.339491
170	6	7	0.083368077	1.0086089	7.1356493	24.464128
171	6	7	0.083368077	0.15832376	6.3552363	23.08751
172	6	7	0.084129795	2.6185659	5.1388373	24.519349
173	6	7	0.084129795	1.8748798	4.549778	22.998625
174	6	7	0.085251569	4.0030833	5.8595509	22.669861
175	6	7	0.085251569	3.2428079	7.2969637	23.406748
176	6	6	0.049340605	1.5808064	7.4280441	21.564807
177	6	6	0.049340605	3.2425672	7.4314086	20.912299
178	6	5	0.31655846	1.1628574	5.4244434	20.413345
179	7	8	-0.49987663	-0.61314146	-2.317948	26.546086
180	7	4	0.11314058	0.45008419	-1.5610237	27.056739
181	7	4	-0.13964868	0.25874567	-1.3256662	28.557513
182	7	4	-0.14068949	1.4259946	-0.51474934	29.141671
183	7	4	-0.14188054	1.3365021	-0.3711585	30.668585
184	7	4	-0.14055356	0.18633956	0.54989111	31.109615
185	7	4	-0.14055356	0.23882402	0.89152948	32.609074
186	7	4	-0.14183021	0.14257575	-0.32041152	33.55848
187	7	4	-0.13942011	-1.0988028	-1.2083075	33.357718
188	7	4	-0.14564236	-2.4161332	-0.44964454	33.588096
189	7	4	0.034731961	-3.6253284	-1.3898996	33.577678
190	7	8	-0.17255043	-3.8204812	-1.9337842	32.298989
191	7	6	0.082685217	-3.5054982	-2.1916426	34.343098
192	7	6	0.082685217	-4.5300654	-0.80633051	33.84961
193	7	7	0.090191483	-2.5577023	0.31910652	32.799204
194	7	7	0.090191483	-2.3780247	0.063800186	34.573087
195	7	7	0.085299342	-1.035052	-2.0465337	34.085935
196	7	7	0.085299342	-1.0857093	-1.6584975	32.343076
197	7	7	0.083368077	1.0521883	-0.94834149	33.446292
198	7	7	0.083368077	0.14891544	0.053238307	34.605448
199	7	7	0.083368077	-0.57884514	1.6063857	32.841803
200	7	7	0.083368077	1.1902667	1.4262436	32.820872
201	7	7	0.083368077	0.25180592	1.5047253	30.543625
202	7	7	0.083368077	-0.79405463	0.093312598	30.864565
203	7	7	0.083368077	2.2978195	0.054277077	31.031312
204	7	7	0.083368077	1.2189532	-1.3788705	31.123668
205	7	7	0.085123911	1.4622645	0.49102746	28.668813
206	7	7	0.085123911	2.379714	-1.0337315	28.901961
207	7	7	0.089122042	-0.69488262	-0.77896858	28.711149
208	7	7	0.089122042	0.19122951	-2.3090904	29.071519
209	7	6	0.082774892	1.3939003	-2.121382	26.885381
210	7	6	0.082774892	0.52448238	-0.58829832	26.518338
211	4	1	0.54104693	2.8714795	3.96723	19.400612
212	4	2	-0.69891046	3.7556289	3.2454125	18.868655
213	4	3	-0.52462821	1.4806209	3.6794959	19.21966
214	4	4	0.029579777	1.0020299	2.5419934	18.434586
215	4	4	-0.1468817	1.2036419	1.2208676	19.186954
216	4	4	-0.14218649	0.38988874	1.1763739	20.490877
217	4	4	-0.1417975	0.4524207	-0.19652078	21.178633
218	4	4	-0.14055356	1.842981	-0.50195089	21.762109
219	4	4	-0.14055356	1.8423914	-1.7415901	22.669691
220	4	4	-0.14161611	1.5908146	-3.0434171	21.888978
221	4	4	-0.13780282	1.844603	-4.298792	22.737821
222	4	4	-0.1232468	0.79581112	-4.4826981	23.848025
223	4	4	0.18300772	0.96575949	-5.8191076	24.575537
224	4	3	-0.65900724	2.218796	-5.8365931	25.323708
225	4	9	0.59237261	3.1166772	-6.7121552	25.112719
226	4	2	-0.48753344	3.9899356	-7.5641354	24.906044
227	4	6	0.028573084	0.91643184	-6.6585518	23.843068
228	4	6	0.028573084	0.12601005	-5.94717	25.290605
229	4	7	0.078906118	-0.22169071	-4.4527736	23.402397
230	4	7	0.078906118	0.8740806	-3.6593828	24.589994
231	4	7	0.082854598	2.8637274	-4.2512145	23.17935
232	4	7	0.082854598	1.8115748	-5.181996	22.06267
233	4	7	0.083368077	0.5487977	-3.065242	21.50471
234	4	7	0.083368077	2.2752118	-3.0796114	21.013566
235	4	7	0.083368077	2.8345054	-1.8021846	23.167968
236	4	7	0.083368077	1.0732416	-1.6146845	23.462354
237	4	7	0.083368077	2.5795967	-0.64843026	20.942906
238	4	7	0.083368077	2.1813745	0.3664058	22.368904
239	4	7	0.083368077	0.16032422	-0.9851862	20.452394
240	4	7	0.083368077	-0.2945628	-0.20037556	22.001978
241	4	7	0.084129795	-0.67560082	1.3945753	20.257225
242	4	7	0.084129795	0.74805417	1.9608948	21.191745
243	4	7	0.085251569	2.2839511	1.0857578	19.404948
244	4	7	0.085251569	0.88163756	0.38903694	18.523183
245	4	6	0.049340605	-0.078121761	2.6766684	18.2099
246	4	6	0.049340605	1.5407201	2.5061993	17.462477
247	4	5	0.31655849	0.78137589	4.3429531	19.621838
248	5	8	-0.17255043	-3.293605	-2.7743374	32.260042
249	5	4	0.034731961	-1.9825282	-2.4448816	32.630063
250	5	4	-0.14564236	-1.8905248	-2.2610014	34.146975
251	5	4	-0.13942011	-0.4560723	-1.9201694	34.576242
252	5	4	-0.14183021	-0.29650114	-1.8580411	36.103549
253	5	4	-0.14055356	-1.0062142	-0.6408082	36.722041
254	5	4	-0.14055356	-0.65159022	-0.4369791	38.205584
255	5	4	-0.14183021	-1.0262765	-1.6103921	39.133084
256	5	4	-0.13533507	-2.5080028	-2.0247376	39.093598
257	5	4	-0.16756602	-3.4551075	-0.89368765	39.524123
258	5	4	0.087992221	-4.8997968	-1.3807375	39.666704
259	5	10	-0.6823123	-5.4264389	-1.7432159	38.417891
260	5	11	0.38148825	-5.2222208	-2.7052285	38.287493
261	5	6	0.073487654	-4.9594699	-2.2262931	40.3907
262	5	6	0.073487654	-5.5143684	-0.55133954	40.076234
263	5	7	0.092546217	-3.4309019	-0.069355014	38.779304
264	5	7	0.092546217	-3.1217241	-0.48675418	40.504304
265	5	7	0.085299342	-2.6370424	-2.8839359	39.787859
266	5	7	0.085299342	-2.7755766	-2.3853316	38.078336
267	5	7	0.083368077	-0.40153414	-2.4934252	38.879842
268	5	7	0.083368077	-0.76195248	-1.3295213	40.176161
269	5	7	0.083368077	-1.1457063	0.49015818	38.566922
270	5	7	0.083368077	0.44319628	-0.25997669	38.290829
271	5	7	0.083368077	-0.69810735	0.27493265	36.172369
272	5	7	0.083368077	-2.1057636	-0.73293734	36.609504
273	5	7	0.083368077	0.78913167	-1.7965626	36.333405
274	5	7	0.083368077	-0.68563246	-2.7982601	36.54965
275	5	7	0.085299342	-0.14556642	-0.95218308	34.124395
276	5	7	0.085299342	0.23058087	-2.706431	34.192353
277	5	7	0.090191483	-2.5790507	-1.4427777	34.447455
278	5	7	0.090191483	-2.2185356	-3.2005518	34.645276
279	5	6	0.082685217	-1.3109386	-3.2730117	32.314885
280	5	6	0.082685217	-1.6557275	-1.5172557	32.106359
281	6	1	0.54104687	3.5513386	5.3270962	48.186573
282	6	2	-0.6989104	2.6558842	6.0953003	47.745293
283	6	3	-0.52462815	3.6279316	3.9633105	47.756317
284	6	4	0.029579773	2.6816318	3.3769787	46.808179
285	6	4	-0.1468817	1.3118577	3.1293171	47.459801
286	6	4	-0.14218649	1.3718856	2.2426251	48.716608
287	6	4	-0.1417975	1.8241152	0.80456135	48.406289
288	6	4	-0.14055356	1.635037	-0.14165202	49.602224
289	6	4	-0.14055356	2.580371	0.18918028	50.770025
290	6	4	-0.1417975	2.5932807	-0.90494587	51.850727
291	6	4	-0.14218649	1.2763328	-0.96466257	52.644138
292	6	4	-0.14560184	1.3145734	-2.0183563	53.766704
293	6	4	0.023713368	2.0978343	-1.56459	55.00896
294	6	3	-0.46869127	1.4120686	-0.48115044	55.714061
295	6	1	0.78385086	1.9767628	0.1322902	56.875233
296	6	2	-0.62104033	3.094872	-0.2394459	57.322838
297	6	5	0.32314329	0.47680484	-0.14408101	55.390693
298	6	6	0.052866991	2.1987861	-2.4305948	55.697444
299	6	6	0.052866991	3.1203409	-1.2390208	54.725692
300	6	7	0.085251569	1.7595798	-2.9606776	53.37832
301	6	7	0.085251569	0.27263474	-2.2568736	54.072629
302	6	7	0.084129795	0.45283611	-1.2448882	51.953232
303	6	7	0.084129795	1.0377864	0.036506608	53.061038
304	6	7	0.083368077	2.8001907	-1.8921574	51.382638
305	6	7	0.083368077	3.4320347	-0.68036264	52.541998
306	6	7	0.083368077	2.2939537	1.1575918	51.232624
307	6	7	0.083368077	3.61572	0.29392008	50.378676
308	6	7	0.083368077	0.57665122	-0.098223242	49.938578
309	6	7	0.083368077	1.8369986	-1.1784716	49.252521
310	6	7	0.083368077	1.2223194	0.41094809	47.557098
311	6	7	0.083368077	2.8913281	0.79614373	48.098522
312	6	7	0.084129795	0.35355024	2.2149667	49.161164
313	6	7	0.084129795	2.0508803	2.7049394	49.463913
314	6	7	0.085251569	0.86175333	4.1057718	47.738663
315	6	7	0.085251569	0.63541177	2.6637369	46.710811
316	6	6	0.049340605	3.0906572	2.4198516	46.420179
317	6	6	0.049340605	2.5605221	4.0543941	45.935974
318	6	5	0.31655846	4.4243915	3.3800046	48.097743
319	7	8	-0.49987663	1.4614067	0.89233792	57.357416
320	7	4	0.11314058	0.33410574	1.1731378	56.573519
321	7	4	-0.13964868	-0.73293185	0.093900959	56.776015
322	7	4	-0.14068949	-1.9870155	0.394826	55.940542
323	7	4	-0.14188054	-3.1296818	-0.59391651	56.217658
324	7	4	-0.14055356	-2.8369873	-2.0031306	55.675293
325	7	4	-0.14055356	-4.0645778	-2.9292855	55.731039
326	7	4	-0.14183021	-4.6335426	-3.1747033	57.143655
327	7	4	-0.13942011	-3.6240585	-3.7283308	58.165479
328	7	4	-0.14564236	-3.0490192	-5.0935057	57.753617
329	7	4	0.034731961	-2.2027377	-5.7158961	58.868417
330	7	8	-0.17255043	-1.0395281	-4.9625542	59.08833
331	7	6	0.082685217	-2.8002433	-5.8178695	59.804156
332	7	6	0.082685217	-1.901683	-6.7380067	58.555839
333	7	7	0.090191483	-2.4167814	-4.9844048	56.847116
334	7	7	0.090191483	-3.8834954	-5.7880243	57.515753
335	7	7	0.085299342	-4.1544383	-3.8402772	59.136639
336	7	7	0.085299342	-2.8041435	-2.9973892	58.32612
337	7	7	0.083368077	-5.0577203	-2.2269679	57.538811
338	7	7	0.083368077	-5.4838453	-3.88592	57.06027
339	7	7	0.083368077	-3.7991134	-3.9031964	55.267583
340	7	7	0.083368077	-4.8702478	-2.4933812	55.101035
341	7	7	0.083368077	-2.5235895	-1.9221383	54.611544
342	7	7	0.083368077	-1.9944165	-2.4659417	56.228074
343	7	7	0.083368077	-4.0489509	-0.20356826	55.728505
344	7	7	0.083368077	-3.319751	-0.63448997	57.312477
345	7	7	0.085123911	-1.7322731	0.38452622	54.858184
346	7	7	0.085123911	-2.349411	1.4157412	56.191113
347	7	7	0.089122042	-0.30623022	-0.88604886	56.476828
348	7	7	0.089122042	-1.0021313	0.049992684	57.853738
349	7	6	0.082774892	-0.071493584	2.160019	56.882887
350	7	6	0.082774892	0.61891183	1.2395654	55.498308
351	4	1	0.54104693	4.2751731	5.7061093	48.8949
352	4	2	-0.69891046	4.2012167	6.9044072	49.274809
353	4	3	-0.52462821	5.3089185	4.8431112	49.381343
354	4	4	0.029579777	6.3186323	5.2805306	50.344901
355	4	4	-0.1468817	5.7266309	5.407836	51.753946
356	4	4	-0.14218649	5.2256682	4.0553987	52.28718
357	4	4	-0.1417975	4.7752121	4.1301883	53.754577
358	4	4	-0.14055356	3.4820568	4.9442703	53.934605
359	4	4	-0.14055356	2.8883754	4.8039693	55.344665
360	4	4	-0.14161611	3.7677781	5.4616786	56.422453
361	4	4	-0.13780282	3.0624466	5.5529632	57.784467
362	4	4	-0.1232468	2.870962	4.1762773	58.443564
363	4	4	0.18300772	2.3193764	4.2985277	59.866573
364	4	3	-0.65900724	0.95840121	4.8251445	59.842362
365	4	9	0.59237261	0.6403743	5.896861	60.448662
366	4	2	-0.48753344	0.33224999	6.9401644	61.038358
367	4	6	0.028573084	2.9938756	4.9398045	60.480923
368	4	6	0.028573084	2.2993436	3.290156	60.330993
369	4	7	0.078906118	3.8489859	3.6508537	58.490354
370	4	7	0.078906118	2.1724748	3.5564679	57.841531
371	4	7	0.082854598	2.079673	6.058137	57.662888
372	4	7	0.082854598	3.6861783	6.1871566	58.452095
373	4	7	0.083368077	4.7180679	4.8983383	56.538793
374	4	7	0.083368077	4.0238882	6.494746	56.10115
375	4	7	0.083368077	1.8880441	5.2893329	55.345357
376	4	7	0.083368077	2.7412847	3.7262052	55.574447
377	4	7	0.083368077	3.6717974	6.0186054	53.722578
378	4	7	0.083368077	2.7222599	4.5856	53.206032
379	4	7	0.083368077	5.5917648	4.5680595	54.367967
380	4	7	0.083368077	4.6021471	3.0918415	54.112041
381	4	7	0.084129795	6.0522094	3.3139541	52.219634
382	4	7	0.084129795	4.3879768	3.6835022	51.65874
383	4	7	0.085251569	4.8955845	6.1439619	51.735932
384	4	7	0.085251569	6.5171858	5.8004219	52.430052
385	4	6	0.049340605	7.1548159	4.5485003	50.36156
386	4	6	0.049340605	6.7406768	6.2584315	50.025444
387	4	5	0.31655849	5.3735277	3.8775784	48.988357
388	5	8	-0.17255043	-1.2628617	-4.2819001	59.775699
389	5	4	0.034731961	-2.3973836	-3.6008252	59.313773
390	5	4	-0.14564236	-3.6490887	-4.4584974	59.516088
391	5	4	-0.13942011	-4.9075861	-3.7213197	59.035626
392	5	4	-0.14183021	-6.1986358	-4.4962469	59.343309
393	5	4	-0.14055356	-6.3449189	-5.7642257	58.483825
394	5	4	-0.14055356	-7.7363026	-6.4095986	58.60933
395	5	4	-0.14183021	-8.1180235	-6.865566	60.031978
396	5	4	-0.13533507	-7.1261436	-7.8397992	60.692127
397	5	4	-0.16756602	-6.9707004	-9.1534846	59.910014
398	5	4	0.087992221	-6.1368065	-10.181789	60.679355
399	5	10	-0.6823123	-4.8062306	-9.7529223	60.797337
400	5	11	0.38148825	-4.7464487	-9.2272401	61.636539
401	5	6	0.073487654	-6.5862688	-10.382711	61.679509
402	5	6	0.073487654	-6.1455392	-11.138325	60.115197
403	5	7	0.092546217	-6.4810501	-8.9609921	58.931211
404	5	7	0.092546217	-7.9761054	-9.5884311	59.716429
405	5	7	0.085299342	-7.5080311	-8.0720885	61.710496
406	5	7	0.085299342	-6.1386832	-7.3490253	60.820365
407	5	7	0.083368077	-8.2322043	-5.9745493	60.685609
408	5	7	0.083368077	-9.1179361	-7.3502579	59.987094
409	5	7	0.083368077	-7.7914748	-7.2771228	57.91748
410	5	7	0.083368077	-8.501169	-5.6822551	58.258467
411	5	7	0.083368077	-6.1920474	-5.496465	57.415844
412	5	7	0.083368077	-5.5634684	-6.5056152	58.748094
413	5	7	0.083368077	-7.0597688	-3.82335	59.141141
414	5	7	0.083368077	-6.2183593	-4.7584959	60.422789
415	5	7	0.085299342	-4.8368382	-3.5239719	57.943095
416	5	7	0.085299342	-4.967577	-2.7380757	59.552059
417	5	7	0.090191483	-3.5260165	-5.4051031	58.948077
418	5	7	0.090191483	-3.7475294	-4.7045446	60.597023
419	5	6	0.082685217	-2.4975943	-2.6555854	59.89053
420	5	6	0.082685217	-2.2773972	-3.3374436	58.237767
421	6	1	0.54104687	9.4701702	-0.2761638	81.466558
422	6	2	-0.6989104	10.07418	-0.41287604	82.563457
423	6	3	-0.52462815	9.0230077	1.0119735	81.028785
424	6	4	0.029579773	9.2179139	2.2284918	81.816394
425	6	4	-0.1468817	8.2709691	2.2740064	83.026127
426	6	4	-0.14218649	6.7818209	2.15366	82.655528
427	6	4	-0.1417975	6.277619	3.3514675	81.830983
428	6	4	-0.14055356	4.7479254	3.3619805	81.685181
429	6	4	-0.14055356	4.2313539	2.2029296	80.815341
430	6	4	-0.1417975	2.7481069	2.358634	80.439935
431	6	4	-0.14218649	1.8118651	2.1631436	81.645196
432	6	4	-0.14560184	0.32502687	2.2572526	81.254887
433	6	4	0.023713368	-0.21225059	0.98967779	80.571374
434	6	3	-0.46869127	-0.27434444	-0.1397259	81.499746
435	6	1	0.78385086	-0.70131676	-1.4361074	81.074777
436	6	2	-0.62104033	-1.0302282	-1.6470017	79.876425
437	6	5	0.32314329	-0.023781983	-0.014900165	82.506988
438	6	6	0.052866991	-1.23646	1.1993301	80.1956
439	6	6	0.052866991	0.41838825	0.72252558	79.698058
440	6	7	0.085251569	0.17097696	3.1287201	80.581347
441	6	7	0.085251569	-0.27641964	2.447963	82.170315
442	6	7	0.084129795	2.0115054	2.9637186	82.389002
443	6	7	0.084129795	2.0222381	1.1896412	82.136201
444	6	7	0.083368077	2.5791588	3.3594589	79.985719
445	6	7	0.083368077	2.5188124	1.5971388	79.665758
446	6	7	0.083368077	4.3765868	1.2350508	81.340671
447	6	7	0.083368077	4.8196943	2.1681693	79.872622
448	6	7	0.083368077	4.2845197	3.3229079	82.694602
449	6	7	0.083368077	4.4563272	4.3277608	81.215805
450	6	7	0.083368077	6.5818002	4.2940264	82.338201
451	6	7	0.083368077	6.7411022	3.3444858	80.821593
452	6	7	0.084129795	6.2007399	2.0935462	83.601114
453	6	7	0.084129795	6.6140229	1.2075198	82.098844
454	6	7	0.085251569	8.5295216	1.4457422	83.719633
455	6	7	0.085251569	8.4387124	3.2231843	83.579529
456	6	6	0.049340605	9.0471968	3.1178648	81.173114
457	6	6	0.049340605	10.270785	2.2801503	82.167244
458	6	5	0.31655846	8.5842987	1.0894595	80.083958
459	7	8	-0.49987663	-0.74246697	-2.2140716	81.759498
460	7	4	0.11314058	-0.20607658	-1.7231801	82.957605
461	7	4	-0.13964868	-1.2250562	-0.82516488	83.664412
462	7	4	-0.14068949	-0.66364366	-0.29312957	84.992211
463	7	4	-0.14188054	-1.7040168	0.5042909	85.793357
464	7	4	-0.14055356	-2.0440639	1.8551767	85.141292
465	7	4	-0.14055356	-2.8929045	2.7591052	86.052462
466	7	4	-0.14183021	-4.2621051	2.1757976	86.458021
467	7	4	-0.13942011	-5.1695501	1.7665922	85.283807
468	7	4	-0.14564236	-5.5254383	2.9486728	84.367274
469	7	4	0.034731961	-6.5807112	2.5651445	83.325331
470	7	8	-0.17255043	-6.0623468	1.6332575	82.413285
471	7	6	0.082685217	-7.4992788	2.1751015	83.822441
472	7	6	0.082685217	-6.8715268	3.4776457	82.763355
473	7	7	0.090191483	-4.6181187	3.3084504	83.837461
474	7	7	0.090191483	-5.9250701	3.7839832	84.981959
475	7	7	0.085299342	-6.1073055	1.3491996	85.712042
476	7	7	0.085299342	-4.6913313	0.95447043	84.6972
477	7	7	0.083368077	-4.1057227	1.2920102	87.112805
478	7	7	0.083368077	-4.795613	2.9307184	87.075484
479	7	7	0.083368077	-3.0451675	3.7357132	85.54569
480	7	7	0.083368077	-2.3171133	2.9747964	86.978725
481	7	7	0.083368077	-1.0984587	2.3953104	84.916735
482	7	7	0.083368077	-2.5674123	1.7008671	84.1759
483	7	7	0.083368077	-1.2892579	0.68874095	86.808567
484	7	7	0.083368077	-2.6238571	-0.10952255	85.909671
485	7	7	0.085123911	0.23044135	0.33913357	84.798941
486	7	7	0.085123911	-0.33818049	-1.1543752	85.61568
487	7	7	0.089122042	-1.4747757	0.022888228	82.993341
488	7	7	0.089122042	-2.1503946	-1.4106236	83.856427
489	7	6	0.082774892	0.044259664	-2.5868781	83.609917
490	7	6	0.082774892	0.73383758	-1.1593726	82.756885
491	4	1	0.54104693	9.2935587	-1.1434324	80.845295
492	4	2	-0.69891046	9.6835839	-2.2751419	81.236232
493	4	3	-0.52462821	8.6282113	-0.98940614	79.586879
494	4	4	0.029579777	8.3474804	-2.1146574	78.695643
495	4	4	-0.1468817	7.1947111	-2.9742348	79.228867
496	4	4	-0.14218649	5.8780087	-2.1832502	79.29977
497	4	4	-0.1417975	4.6790823	-3.0664344	79.679664
498	4	4	-0.14055356	4.7395831	-3.5481559	81.139689
499	4	4	-0.14055356	3.4287402	-4.2049174	81.598782
500	4	4	-0.14161611	3.1600972	-5.5434302	80.889013
501	4	4	-0.13780282	1.9987474	-6.3246571	81.522938
502	4	4	-0.1232468	0.63558186	-5.652965	81.284299
503	4	4	0.18300772	-0.52243067	-6.5251501	81.776687
504	4	3	-0.65900724	-0.48539715	-6.6485984	83.230494
505	4	9	0.59237261	-0.39862144	-7.7782201	83.808197
506	4	2	-0.48753344	-0.31341922	-8.8778473	84.369201
507	4	6	0.028573084	-0.4823606	-7.5235558	81.281519
508	4	6	0.028573084	-1.4808881	-6.0448233	81.487643
509	4	7	0.078906118	0.49981167	-5.4709686	80.196533
510	4	7	0.078906118	0.59335194	-4.6739127	81.807906
511	4	7	0.082854598	2.1800662	-6.4438449	82.613233
512	4	7	0.082854598	1.9821914	-7.3410864	81.071754
513	4	7	0.083368077	2.9418259	-5.3705972	79.813641
514	4	7	0.083368077	4.0716317	-6.176847	80.951813
515	4	7	0.083368077	3.4991541	-4.381764	82.694231
516	4	7	0.083368077	2.5857917	-3.501563	81.423449
517	4	7	0.083368077	5.5757573	-4.2681387	81.272318
518	4	7	0.083368077	4.9362613	-2.6768313	81.802158
519	4	7	0.083368077	4.6309683	-3.9371139	78.990941
520	4	7	0.083368077	3.7539341	-2.4674454	79.534031
521	4	7	0.084129795	5.6725501	-1.7370804	78.301676
522	4	7	0.084129795	5.9720541	-1.3492286	80.028148
523	4	7	0.085251569	7.4629417	-3.3622759	80.234014
524	4	7	0.085251569	7.0654852	-3.844567	78.549129
525	4	6	0.049340605	8.0838073	-1.7298681	77.686801
526	4	6	0.049340605	9.2606658	-2.7391964	78.583801
527	4	5	0.31655849	8.3828988	-0.024446172	79.271379
528	5	8	-0.17255043	-6.2480059	0.7318605	82.785655
529	5	4	0.034731961	-5.7300169	0.72001254	84.087932
530	5	4	-0.14564236	-6.6583748	1.4854066	85.034306
531	5	4	-0.13942011	-6.1194845	1.4662999	86.472124