Title

11250 atoms
11125 bonds
20250 angles
32750 dihedrals
2250 impropers

11 atom types
14 bond types
10 angle types
36 dihedral types
3 improper types
-9.941779605 103.5329058 xlo xhi
-8.930819145 103.4525255 ylo yhi
-10.37750583 103.2159332 zlo zhi
0.0 0.0 0.0 xy xz yz

Masses

1	12.01078
2	15.99943
3	14.00672
4	12.01078
5	1.007947
6	1.007947
7	1.007947
8	15.99943
9	12.01078
10	15.99943
11	1.007947


Pair Coeffs

1	0.086879315	3.4806469
2	0.2102061	3.0398122
3	0.16769152	3.206876
4	0.10884061	3.3795318
5	0.014090815	1.1034277
6	0.016409246	2.5832257
7	0.015779483	2.6445434
8	0.16846514	3.0251065
9	0.21	3.3996695
10	0.20947353	2.99716
11	1.2326e-05	0.53453923

Bond Coeffs

1 harmonic	582.698766451	1.225198386222
2 harmonic	492.76746816345	1.381897776683
3 harmonic	279.1350963404	1.454628925034
4 harmonic	352.0565580496	1.450098586273
5 harmonic	505.144496193	1.019481865027
6 harmonic	264.62148576755	1.52190126495
7 harmonic	370.04670688625	1.093899492634
8 harmonic	301.15400723785	1.345741232799
9 harmonic	366.7408841747	1.425895053732
10 harmonic	300.03137914615	1.451203938761
11 harmonic	366.34047229585	1.464762957261
12 harmonic	602.81384337	1.196112346392
13 harmonic	329.96998057905	1.427343958716
14 harmonic	543.5267831885	0.9716763312559


Angle Coeffs

1 harmonic	55.42182150775	117.3465570514
2 harmonic	63.44422595415	115.5071327674
3 harmonic	57.8982893754	126.8062420451
4 harmonic	53.20531626545	116.5475862634
5 harmonic	65.09061609600001	110.3538806181
6 harmonic	201.41175231035	127.4691416191
7 harmonic	48.776492647595	115.6030999533
8 harmonic	49.015990027215	114.8414599994
9 harmonic	55.07882548015	112.8714009681
10 harmonic	33.56981613361	180


Dihedral Coeffs

1 fourier 1	-0.1488678166443	4	180
2 fourier 1	-0.1230328948768	3	180
3 fourier 1	0.2939295466901	2	0
4 fourier 1	-0.3024127022865	1	0
5 fourier 1	0.182238503271	2	0
6 fourier 1	0.02972342374561	3	0
7 fourier 1	1.809047390003	2	180
8 fourier 1	-0.04816277792592	1	0
9 fourier 1	3.101948770557	2	180
10 fourier 1	-0.4252153282372	1	0
11 fourier 1	2.348375642009	2	180
12 fourier 1	1.256156174911	1	0
13 fourier 1	0.9974165607242	2	180
14 fourier 1	0.1155372516788	3	0
15 fourier 1	0.09223874044423	3	0
16 fourier 1	0.3159935921949	2	180
17 fourier 1	0.3247796806857	1	180
18 fourier 1	0.1040663847541	3	0
19 fourier 1	2.779853741805	2	180
20 fourier 1	0.1918272375143	3	0
21 fourier 1	0.9202179876409	1	180
22 fourier 1	0.0473758381877	3	0
23 fourier 1	0.4860993122944	2	180
24 fourier 1	0.8916986138746	1	0
25 fourier 1	1.163809172478	2	180
26 fourier 1	0.1679186987369	1	180
27 fourier 1	0.1911926717192	3	0
28 fourier 1	0.2810888471023	3	0
29 fourier 1	0.05324557188047	2	180
30 fourier 1	0.457973137376	1	0
31 fourier 1	0.2036670163956	3	0
32 fourier 1	-1.382973039546	1	0
33 fourier 1	0	1	0
34 fourier 1	0.3445382149273	3	0
35 fourier 1	0.1364556373303	1	0
36 fourier 1	0.3026390167484	3	0


Improper Coeffs

1 0.3333333333333333	-1	2
2 0.3666666666666667	-1	2
3 3.5	-1	2


Atoms

1	6	1	0.54567927	-4.4719397	0.57016624	3.0063037
2	6	2	-0.66894329	-5.4882783	0.047987436	3.5372934
3	6	3	-0.51894296	-4.1460552	0.31242255	1.6381204
4	6	4	0.031483901	-4.9675102	-0.57024201	0.80762183
5	6	4	-0.14493449	-4.4390508	-0.64658851	-0.63022092
6	6	4	-0.14362859	-4.6657875	0.66786681	-1.3948075
7	6	4	0.02567914	-4.1747205	0.57610481	-2.8453849
8	6	3	-0.46219346	-2.7274977	0.37167409	-2.9040999
9	6	1	0.78843546	-1.7853603	1.411256	-2.6236402
10	6	2	-0.59503603	-2.1723102	2.5717432	-2.3220623
11	6	5	0.32931688	-2.3629562	-0.55579833	-3.2164465
12	6	6	0.062469852	-4.4425599	1.5061367	-3.3915907
13	6	6	0.062469852	-4.6884647	-0.26802444	-3.354955
14	6	7	0.092766967	-4.1512591	1.5058738	-0.88005056
15	6	7	0.092766967	-5.753755	0.89759138	-1.408755
16	6	7	0.092766967	-3.3567992	-0.90061858	-0.61074426
17	6	7	0.092766967	-4.9720418	-1.4673308	-1.156897
18	6	6	0.058843818	-6.0192108	-0.21074077	0.80390809
19	6	6	0.058843818	-4.9540157	-1.5914121	1.2473077
20	6	5	0.32273695	-3.2867164	0.76112227	1.248502
21	7	8	-0.49055928	-0.76876509	1.2103744	-2.6753287
22	7	4	0.094890189	-0.35313389	0.95451305	-1.3599593
23	7	4	-0.018448332	1.1654481	0.64167847	-1.3085177
24	7	4	-0.16204192	1.5386231	0.34946946	0.16200744
25	7	7	0.081142646	0.9546923	-0.5141159	0.54930985
26	7	7	0.081142646	2.6161191	0.10347289	0.26668298
27	7	7	0.081142646	1.3220216	1.231179	0.80303403
28	7	4	0.0036433398	1.4510486	-0.60891897	-2.1835077
29	7	8	-0.14344026	2.7770842	-1.0402231	-2.0407378
30	7	6	0.10679425	0.76960635	-1.4373817	-1.8844092
31	7	6	0.10679425	1.2533965	-0.37473989	-3.2545454
32	7	4	0.062315506	1.9551168	1.8799813	-1.8275461
33	7	3	-0.72177524	3.422279	1.6715939	-1.7294913
34	7	4	0.082092185	4.0410587	2.6164136	-0.78573005
35	7	6	0.064261918	3.9237374	3.6666389	-1.1335856
36	7	6	0.064261918	3.5762561	2.5153327	0.21848119
37	7	6	0.064261918	5.1223209	2.3897149	-0.67118488
38	7	4	0.082092185	4.0727868	1.7854383	-3.0457421
39	7	6	0.064261918	3.6403859	1.043288	-3.7508948
40	7	6	0.064261918	5.1570457	1.5622271	-2.9578025
41	7	6	0.064261918	3.941982	2.8062262	-3.4692986
42	7	6	0.08690269	1.6427449	2.0895275	-2.8769599
43	7	6	0.08690269	1.6315834	2.7793872	-1.2516457
44	7	6	0.097585452	-0.57942241	1.8411185	-0.72460648
45	7	6	0.097585452	-0.93207099	0.092815373	-0.95576016
46	4	1	0.54567933	-3.8395813	1.2216921	3.5943061
47	4	2	-0.66894329	-3.4651679	2.3232529	3.1114258
48	4	3	-0.51894301	-3.4386707	0.82378546	4.9081158
49	4	4	0.031774548	-2.5851996	1.671252	5.7388845
50	4	4	-0.13981223	-2.3104727	1.008927	7.0930133
51	4	4	-0.12180982	-1.4152789	1.8927585	7.9688797
52	4	4	0.18580809	-1.1382433	1.2269046	9.3225428
53	4	3	-0.62140143	-0.33645734	2.0956767	10.177984
54	4	9	0.59461546	0.87935976	2.3668909	9.9136495
55	4	2	-0.44303555	2.0603417	2.6301033	9.6553555
56	4	6	0.036465817	-2.103086	1.0269575	9.8358709
57	4	6	0.036465817	-0.6160884	0.25497709	9.1772015
58	4	7	0.086632584	-1.9158181	2.8715986	8.1410907
59	4	7	0.086632584	-0.45217503	2.0750087	7.443602
60	4	7	0.091746387	-1.8107511	0.028748488	6.9247444
61	4	7	0.091746387	-3.2771041	0.8289982	7.6132743
62	4	6	0.058843818	-1.6229137	1.8481934	5.2111274
63	4	6	0.058843818	-3.0891473	2.6494715	5.9010458
64	4	5	0.32273698	-3.7754144	-0.099870491	5.2646441
65	5	8	-0.14298675	2.880977	-1.8215386	-2.6441641
66	5	4	0.013578922	3.77143	-1.4229158	-3.6511116
67	5	4	-0.052379209	4.0123002	-2.5699349	-4.6673806
68	5	4	-0.15492815	5.0172741	-2.0623699	-5.725967
69	5	7	0.080971126	5.9746568	-1.7670936	-5.2463043
70	5	7	0.080971126	5.242513	-2.8461749	-6.4798524
71	5	7	0.080971126	4.6078441	-1.1780245	-6.2607326
72	5	4	0.067316574	4.6107265	-3.7893033	-3.9144293
73	5	10	-0.67397726	5.0070926	-4.7964923	-4.8070917
74	5	11	0.38873902	5.3541703	-5.5403823	-4.2500003
75	5	6	0.092848685	5.4973563	-3.4653009	-3.3224908
76	5	6	0.092848685	3.8583058	-4.2021564	-3.2040734
77	5	4	0.073104356	2.6583943	-2.9398177	-5.3428829
78	5	3	-0.72202796	2.8364655	-3.9824488	-6.3856926
79	5	4	0.082092185	2.5029572	-3.4707026	-7.725512
80	5	6	0.064261918	1.4298091	-3.1823041	-7.7885081
81	5	6	0.064261918	3.1294966	-2.5854637	-7.9647177
82	5	6	0.064261918	2.7179459	-4.2433225	-8.4947215
83	5	4	0.082092185	2.0287171	-5.1784307	-6.0944954
84	5	6	0.064261918	2.3086268	-5.596093	-5.1042077
85	5	6	0.064261918	2.2265319	-5.9681144	-6.8517516
86	5	6	0.064261918	0.94230988	-4.9383626	-6.0931924
87	5	6	0.086831664	1.9431919	-3.26975	-4.5545466
88	5	6	0.086831664	2.2043571	-2.0128077	-5.7671409
89	5	6	0.10690182	3.3568209	-0.53287475	-4.1774074
90	5	6	0.10690182	4.7378505	-1.119814	-3.185943
91	6	1	0.54567927	-2.4787541	1.0824013	25.489137
92	6	2	-0.66894329	-3.4921087	0.95774344	26.227471
93	6	3	-0.51894296	-2.6148169	1.4516425	24.114471
94	6	4	0.031483901	-3.927466	1.6877997	23.510488
95	6	4	-0.14493449	-3.8054042	2.1164414	22.042886
96	6	4	-0.14362859	-3.2289969	3.535191	21.906141
97	6	4	0.02567914	-3.1466498	3.9786409	20.439746
98	6	3	-0.46219346	-2.218184	3.1393979	19.68257
99	6	1	0.78843546	-0.79727037	3.2366881	19.818769
100	6	2	-0.59503603	-0.27780078	4.0756399	20.602173
101	6	5	0.32931688	-2.6032928	2.4781368	18.97188
102	6	6	0.062469852	-2.8191259	5.0392664	20.386459
103	6	6	0.062469852	-4.1573763	3.919636	19.98029
104	6	7	0.092766967	-2.2209085	3.5868797	22.367721
105	6	7	0.092766967	-3.8860394	4.2487751	22.449955
106	6	7	0.092766967	-3.1676665	1.3860873	21.498779
107	6	7	0.092766967	-4.8176699	2.0921593	21.584832
108	6	6	0.058843818	-4.4711189	2.4673664	24.086723
109	6	6	0.058843818	-4.5191802	0.74771096	23.559492
110	6	5	0.32273695	-1.7442517	1.5311533	23.54229
111	7	8	-0.49055928	-0.18417514	2.6130641	19.260469
112	7	4	0.094890189	0.15640146	1.5434675	20.102124
113	7	4	-0.018448332	1.0834897	0.5362213	19.372353
114	7	4	-0.16204192	1.3924822	-0.6177353	20.352147
115	7	7	0.081142646	0.45374363	-1.1210355	20.671861
116	7	7	0.081142646	2.0449448	-1.3844385	19.88425
117	7	7	0.081142646	1.9072245	-0.23339726	21.259103
118	7	4	0.0036433398	0.34260125	-0.015820653	18.124353
119	7	8	-0.14344026	1.0634988	-1.0553523	17.52065
120	7	6	0.10679425	-0.65876104	-0.39993482	18.424193
121	7	6	0.10679425	0.18641799	0.80205225	17.384273
122	7	4	0.062315506	2.3998307	1.2630085	18.965674
123	7	3	-0.72177524	3.3643571	0.32950412	18.330171
124	7	4	0.082092185	4.5849423	0.17941397	19.138814
125	7	6	0.064261918	5.132822	1.144097	19.222214
126	7	6	0.064261918	4.3277281	-0.17831912	20.158896
127	7	6	0.064261918	5.254334	-0.58099792	18.683479
128	7	4	0.082092185	3.7198402	0.7647452	16.968983
129	7	6	0.064261918	2.8063008	0.83682902	16.340296
130	7	6	0.064261918	4.3896792	0.019061292	16.491024
131	7	6	0.064261918	4.2269251	1.755252	16.98569
132	7	6	0.08690269	2.1458926	2.1104028	18.287298
133	7	6	0.08690269	2.8370815	1.7472533	19.870983
134	7	6	0.097585452	0.66631451	1.9390111	21.010134
135	7	6	0.097585452	-0.77482944	1.0301725	20.434397
136	4	1	0.54567933	-1.4943981	0.9079922	25.902337
137	4	2	-0.66894329	-0.56947988	1.7307015	25.668947
138	4	3	-0.51894301	-1.257974	-0.25141145	26.705482
139	4	4	0.031774548	0.05536629	-0.5281204	27.284584
140	4	4	-0.13981223	0.031375498	-1.8274315	28.09639
141	4	4	-0.12180982	1.4062868	-2.1234938	28.706011
142	4	4	0.18580809	1.3816232	-3.4261606	29.51531
143	4	3	-0.62140143	2.6744163	-3.6749675	30.144743
144	4	9	0.59461546	3.7117265	-3.9625568	29.46436
145	4	2	-0.44303555	4.718931	-4.2412687	28.802111
146	4	6	0.036465817	0.61470884	-3.3451846	30.315117
147	4	6	0.036465817	1.1095255	-4.284272	28.861077
148	4	7	0.086632584	1.7030068	-1.2854627	29.375328
149	4	7	0.086632584	2.1585042	-2.2095959	27.891482
150	4	7	0.091746387	-0.26622533	-2.6680238	27.430338
151	4	7	0.091746387	-0.72269731	-1.7353434	28.908988
152	4	6	0.058843818	0.80312376	-0.61618559	26.4667
153	4	6	0.058843818	0.3476252	0.31642259	27.946781
154	4	5	0.32273698	-2.0577631	-0.90463056	26.870682
155	5	8	-0.14298675	0.5367986	-1.3332015	16.726447
156	5	4	0.013578922	1.303522	-0.98301985	15.606064
157	5	4	-0.052379209	0.57581983	-1.3676188	14.291147
158	5	4	-0.15492815	1.4907864	-0.97307178	13.10989
159	5	7	0.080971126	2.4659364	-1.5006731	13.177457
160	5	7	0.080971126	1.0293507	-1.2355264	12.134379
161	5	7	0.080971126	1.6853258	0.12136865	13.115234
162	5	4	0.067316574	0.33504441	-2.9018445	14.281788
163	5	10	-0.67397726	-0.16714913	-3.3324876	13.044561
164	5	11	0.38873902	-0.31246445	-4.3102063	13.129033
165	5	6	0.092848685	1.2937427	-3.4323594	14.484106
166	5	6	0.092848685	-0.38402175	-3.1771739	15.086976
167	5	4	0.073104356	-0.77155245	-0.59005479	14.21266
168	5	3	-0.72202796	-1.4814272	-0.85719676	12.935572
169	5	4	0.082092185	-1.597374	0.36035383	12.1156
170	5	6	0.064261918	-2.2124992	1.132465	12.629656
171	5	6	0.064261918	-0.59034524	0.78016146	11.908058
172	5	6	0.064261918	-2.061408	0.11874503	11.135221
173	5	4	0.082092185	-2.8181591	-1.4272439	13.171834
174	5	6	0.064261918	-2.7335459	-2.3711859	13.750864
175	5	6	0.064261918	-3.3042584	-1.6781953	12.203899
176	5	6	0.064261918	-3.4649492	-0.7152345	13.730959
177	5	6	0.086831664	-1.3968836	-0.86743307	15.092357
178	5	6	0.086831664	-0.56525278	0.49884604	14.343913
179	5	6	0.10690182	1.4992482	0.11355626	15.62259
180	5	6	0.10690182	2.2882777	-1.5022369	15.659831
181	6	1	0.54567927	0.44308316	0.15862069	36.18965
182	6	2	-0.66894329	0.01194928	0.58247729	35.084193
183	6	3	-0.51894296	-0.44864783	-0.39743782	37.159275
184	6	4	0.031483901	-1.8892423	-0.48668361	36.913641
185	6	4	-0.14493449	-2.6206872	-1.16213	38.080368
186	6	4	-0.14362859	-2.3060624	-2.6648863	38.161175
187	6	4	0.02567914	-3.0708864	-3.3473134	39.3027
188	6	3	-0.46219346	-2.6592557	-2.8238013	40.605078
189	6	1	0.78843546	-1.4065773	-3.1533334	41.212709
190	6	2	-0.59503603	-0.59715568	-3.9344073	40.645109
191	6	5	0.32931688	-3.3281381	-2.2276515	41.141601
192	6	6	0.062469852	-2.8949655	-4.4441056	39.268984
193	6	6	0.062469852	-4.1616646	-3.1814892	39.165389
194	6	7	0.092766967	-1.2158487	-2.8227919	38.297079
195	6	7	0.092766967	-2.6006199	-3.1501641	37.204941
196	6	7	0.092766967	-2.3413067	-0.65713706	39.030688
197	6	7	0.092766967	-3.7141971	-1.0294838	37.93297
198	6	6	0.058843818	-2.0757221	-1.0512463	35.974587
199	6	6	0.058843818	-2.2953785	0.54030679	36.784653
200	6	5	0.32273695	-0.04239728	-0.72475955	38.064492
201	7	8	-0.49055928	-1.1623439	-2.7497129	42.136793
202	7	4	0.094890189	-0.34808327	-1.6375491	41.875102
203	7	4	-0.018448332	0.088179664	-0.9463768	43.193646
204	7	4	-0.16204192	0.95735487	0.27569799	42.821951
205	7	7	0.081142646	0.382752	0.98560254	42.187423
206	7	7	0.081142646	1.2931711	0.82562173	43.725986
207	7	7	0.081142646	1.8597175	-0.043514989	42.257072
208	7	4	0.0036433398	-1.1791753	-0.47874436	43.959349
209	7	8	-0.14344026	-0.84346154	0.30147421	45.074397
210	7	6	0.10679425	-1.8244919	0.12366001	43.28049
211	7	6	0.10679425	-1.767921	-1.3636548	44.293025
212	7	4	0.062315506	0.91543034	-1.9555049	44.044339
213	7	3	-0.72177524	1.4299385	-1.3273863	45.287863
214	7	4	0.082092185	2.9006802	-1.271842	45.297437
215	7	6	0.064261918	3.3414111	-2.2933259	45.289203
216	7	6	0.064261918	3.2692571	-0.71315174	44.410467
217	7	6	0.064261918	3.2570999	-0.72905226	46.198539
218	7	4	0.082092185	0.95101899	-2.0342622	46.487696
219	7	6	0.064261918	-0.16005958	-2.0405861	46.5092
220	7	6	0.064261918	1.2944484	-1.5095026	47.404134
221	7	6	0.064261918	1.3194866	-3.0842074	46.506793
222	7	6	0.08690269	0.27721337	-2.8413714	44.269449
223	7	6	0.08690269	1.7459289	-2.3578743	43.416934
224	7	6	0.097585452	0.55011842	-1.9665873	41.304211
225	7	6	0.097585452	-0.90889535	-0.91727505	41.236539
226	4	1	0.54567933	1.5014024	0.21651138	36.405796
227	4	2	-0.66894329	2.0914767	-0.78676926	36.887497
228	4	3	-0.51894301	2.2134622	1.4284141	36.142324
229	4	4	0.031774548	3.6435626	1.5528457	36.41822
230	4	4	-0.13981223	4.1523003	2.9490078	36.044414
231	4	4	-0.12180982	5.6517039	3.0860085	36.331976
232	4	4	0.18580809	6.1587188	4.485142	35.96066
233	4	3	-0.62140143	7.5975479	4.5943722	36.178018
234	4	9	0.59461546	8.1068014	4.5754684	37.345042
235	4	2	-0.44303555	8.6003556	4.5563374	38.479393
236	4	6	0.036465817	5.9535686	4.6748607	34.885334
237	4	6	0.036465817	5.6275885	5.2609324	36.556028
238	4	7	0.086632584	6.2129179	2.3276819	35.741803
239	4	7	0.086632584	5.8368512	2.90154	37.412898
240	4	7	0.091746387	3.5923089	3.710507	36.632049
241	4	7	0.091746387	3.9641646	3.127693	34.962703
242	4	6	0.058843818	3.8232766	1.3705457	37.500024
243	4	6	0.058843818	4.1967337	0.78785713	35.83003
244	4	5	0.32273698	1.6793962	2.2335908	35.742183
245	5	8	-0.14298675	-1.7006866	0.53779949	45.51563
246	5	4	0.013578922	-1.6992526	-0.12202536	46.752715
247	5	4	-0.052379209	-3.0030575	0.16995761	47.540949
248	5	4	-0.15492815	-2.9143426	-0.56959094	48.894979
249	5	7	0.080971126	-2.0308979	-0.22335478	49.472466
250	5	7	0.080971126	-3.8177093	-0.38935862	49.515358
251	5	7	0.080971126	-2.8192129	-1.6656247	48.735811
252	5	4	0.067316574	-3.1108243	1.7003339	47.782286
253	5	10	-0.67397726	-4.1811049	2.0087384	48.635379
254	5	11	0.38873902	-4.1933578	2.9971711	48.719264
255	5	6	0.092848685	-2.1669192	2.0741845	48.241372
256	5	6	0.092848685	-3.2503817	2.2279044	46.811007
257	5	4	0.073104356	-4.2186582	-0.35315204	46.719456
258	5	3	-0.72202796	-5.494341	-0.17221485	47.458467
259	5	4	0.082092185	-6.1189555	-1.4650553	47.785037
260	5	6	0.064261918	-6.3986589	-2.0195124	46.861385
261	5	6	0.064261918	-5.4205218	-2.0881717	48.382812
262	5	6	0.064261918	-7.0284924	-1.3053625	48.403168
263	5	4	0.082092185	-6.4421648	0.6609724	46.700143
264	5	6	0.064261918	-5.9934312	1.6550667	46.490677
265	5	6	0.064261918	-7.3626607	0.83573621	47.298735
266	5	6	0.064261918	-6.7196717	0.17784437	45.737079
267	5	6	0.086831664	-4.2390622	0.17149871	45.736517
268	5	6	0.086831664	-4.0442447	-1.4255618	46.464487
269	5	6	0.10690182	-1.5971311	-1.2185359	46.584498
270	5	6	0.10690182	-0.81591548	0.21210519	47.34457
271	6	1	0.54567927	-2.8725243	-3.0300071	58.927839
272	6	2	-0.66894329	-3.9089738	-3.1765835	58.226517
273	6	3	-0.51894296	-2.9641251	-2.6110718	60.291899
274	6	4	0.031483901	-4.2550786	-2.3272427	60.921577
275	6	4	-0.14493449	-4.091725	-1.9436972	62.397618
276	6	4	-0.14362859	-3.6731801	-3.1461778	63.259393
277	6	4	0.02567914	-3.5509665	-2.7706291	64.74188
278	6	3	-0.46219346	-2.4878052	-1.788816	64.95501
279	6	1	0.78843546	-1.0984143	-2.1256836	64.899115
280	6	2	-0.59503603	-0.72745672	-3.3083455	64.673037
281	6	5	0.32931688	-2.7502757	-0.81142615	65.212836
282	6	6	0.062469852	-3.3436228	-3.6815851	65.343715
283	6	6	0.062469852	-4.517922	-2.3514863	65.096091
284	6	7	0.092766967	-2.7081397	-3.5598994	62.89953
285	6	7	0.092766967	-4.4396603	-3.9462443	63.164299
286	6	7	0.092766967	-3.3424597	-1.1268089	62.48407
287	6	7	0.092766967	-5.0642458	-1.554422	62.768769
288	6	6	0.058843818	-4.9186493	-3.2145678	60.834071
289	6	6	0.058843818	-4.7378367	-1.4817054	60.384636
290	6	5	0.32273695	-2.0744362	-2.4940755	60.827028
291	7	8	-0.49055928	-0.38485078	-1.3884238	65.053278
292	7	4	0.094890189	0.022344703	-0.96548044	63.779024
293	7	4	-0.018448332	1.1015614	0.14424827	63.880988
294	7	4	-0.16204192	1.4784655	0.57088167	62.444667
295	7	7	0.081142646	0.58508921	0.95180811	61.902882
296	7	7	0.081142646	2.2417374	1.3770319	62.447248
297	7	7	0.081142646	1.888811	-0.2911438	61.875658
298	7	4	0.0036433398	0.50723978	1.3542294	64.651635
299	7	8	-0.14344026	1.3778544	2.4525203	64.627883
300	7	6	0.10679425	-0.46056392	1.6528685	64.188661
301	7	6	0.10679425	0.30522739	1.0674023	65.708966
302	7	4	0.062315506	2.3493138	-0.42928555	64.616198
303	7	3	-0.72177524	3.4514068	0.56436989	64.676573
304	7	4	0.082092185	4.6285712	0.11353932	63.916774
305	7	6	0.064261918	5.0568456	-0.81580773	64.353393
306	7	6	0.064261918	4.3509178	-0.080202819	62.85844
307	7	6	0.064261918	5.4071334	0.90566272	63.912043
308	7	4	0.082092185	3.8388539	0.85689629	66.066878
309	7	6	0.064261918	2.9638506	1.2405033	66.634516
310	7	6	0.064261918	4.6175878	1.6482571	66.089136
311	7	6	0.064261918	4.2278788	-0.054381955	66.573583
312	7	6	0.08690269	2.0431807	-0.76041817	65.635702
313	7	6	0.08690269	2.6715523	-1.3648412	64.100287
314	7	6	0.097585452	0.42656077	-1.8368966	63.214939
315	7	6	0.097585452	-0.86322929	-0.58359795	63.221357
316	4	1	0.54567933	-1.9022773	-3.2245056	58.490917
317	4	2	-0.66894329	-1.0643201	-3.9183274	59.125924
318	4	3	-0.51894301	-1.5857424	-2.6922094	57.201878
319	4	4	0.031774548	-0.28794318	-2.928952	56.572228
320	4	4	-0.13981223	-0.21423808	-2.2492127	55.200974
321	4	4	-0.12180982	1.1449206	-2.4934115	54.535597
322	4	4	0.18580809	1.2184962	-1.8094485	53.164723
323	4	3	-0.62140143	2.489621	-2.0932242	52.506607
324	4	9	0.59461546	3.5931495	-1.631484	52.943255
325	4	2	-0.44303555	4.6646901	-1.1827564	53.368883
326	4	6	0.036465817	0.39918453	-2.1935879	52.520075
327	4	6	0.036465817	1.0869842	-0.70965496	53.272296
328	4	7	0.086632584	1.3021962	-3.5872531	54.404834
329	4	7	0.086632584	1.9511566	-2.0953987	55.190021
330	4	7	0.091746387	-0.37229833	-1.1547874	55.327609
331	4	7	0.091746387	-1.0228755	-2.6510416	54.551312
332	4	6	0.058843818	0.51430237	-2.5269621	57.228457
333	4	6	0.058843818	-0.13539016	-4.0240238	56.450909
334	4	5	0.32273698	-2.3146852	-2.1224206	56.714403
335	5	8	-0.14298675	0.93653118	3.1676068	65.15633
336	5	4	0.013578922	1.7264796	3.3538024	66.299599
337	5	4	-0.052379209	1.1303285	4.4553153	67.214884
338	5	4	-0.15492815	2.0659982	4.616416	68.434215
339	5	7	0.080971126	3.088776	4.9008962	68.107347
340	5	7	0.080971126	1.6988923	5.4041246	69.125717
341	5	7	0.080971126	2.133991	3.6636828	69.002854
342	5	4	0.067316574	1.066797	5.7877243	66.419548
343	5	10	-0.67397726	0.69466874	6.8586296	67.246025
344	5	11	0.38873902	0.65662292	7.6597567	66.66213
345	5	6	0.092848685	2.0652279	6.0068741	65.976164
346	5	6	0.092848685	0.33515146	5.6956649	65.584438
347	5	4	0.073104356	-0.28930349	4.0134872	67.679223
348	5	3	-0.72202796	-0.88349548	4.9938144	68.623753
349	5	4	0.082092185	-1.0861438	4.4055176	69.958319
350	5	6	0.064261918	-1.8158749	3.566011	69.919457
351	5	6	0.064261918	-0.12251426	4.0280915	70.361292
352	5	6	0.064261918	-1.4578967	5.1784747	70.664848
353	5	4	0.082092185	-2.1587277	5.525977	68.115607
354	5	6	0.064261918	-2.0033332	6.0121653	67.129233
355	5	6	0.064261918	-2.5520687	6.3032286	68.806498
356	5	6	0.064261918	-2.9158131	4.717969	68.006705
357	5	6	0.086831664	-0.93239761	3.8723591	66.780137
358	5	6	0.086831664	-0.2168358	2.9985778	68.137698
359	5	6	0.10690182	1.7947119	2.3933087	66.859828
360	5	6	0.10690182	2.7586844	3.6371151	65.988941
361	6	1	0.54567927	1.3673926	-4.0023863	86.562626
362	6	2	-0.66894329	1.5163194	-4.4106932	87.745281
363	6	3	-0.51894296	1.8994346	-2.7407286	86.150668
364	6	4	0.031483901	2.6241572	-1.8736341	87.081548
365	6	4	-0.14493449	3.1344131	-0.60331606	86.389868
366	6	4	-0.14362859	4.2823976	-0.90450025	85.412518
367	6	4	0.02567914	4.8197607	0.37213255	84.752827
368	6	3	-0.46219346	3.7990664	1.0105149	83.921958
369	6	1	0.78843546	3.397872	0.49138428	82.650519
370	6	2	-0.59503603	3.9281812	-0.55003232	82.179739
371	6	5	0.32931688	3.3824186	1.9130768	84.242024
372	6	6	0.062469852	5.707766	0.12774206	84.130929
373	6	6	0.062469852	5.1517719	1.0819876	85.541512
374	6	7	0.092766967	3.9442088	-1.6142306	84.629012
375	6	7	0.092766967	5.1159192	-1.3874109	85.968107
376	6	7	0.092766967	2.2917222	-0.11177755	85.856538
377	6	7	0.092766967	3.4993017	0.098769154	87.170264
378	6	6	0.058843818	3.4779553	-2.4298174	87.525415
379	6	6	0.058843818	1.9383564	-1.5799411	87.905997
380	6	5	0.32273695	1.739321	-2.4432097	85.162011
381	7	8	-0.49055928	2.6648345	0.9817233	82.103971
382	7	4	0.094890189	1.4628871	0.30839448	82.369228
383	7	4	-0.018448332	0.28259194	0.95437389	81.597078
384	7	4	-0.16204192	-1.0018187	0.17540436	81.958444
385	7	7	0.081142646	-1.1896255	0.21783143	83.053746
386	7	7	0.081142646	-1.8912865	0.59825324	81.446082
387	7	7	0.081142646	-0.90810231	-0.89186613	81.662819
388	7	4	0.0036433398	0.14290662	2.436058	82.0401
389	7	8	-0.14344026	-1.0110927	3.0231553	81.503091
390	7	6	0.10679425	0.089779651	2.490121	83.151149
391	7	6	0.10679425	1.0367618	3.0148749	81.712958
392	7	4	0.062315506	0.56137635	0.85138821	80.068014
393	7	3	-0.72177524	-0.57213703	1.3839687	79.269822
394	7	4	0.082092185	-1.2062365	0.33057074	78.460793
395	7	6	0.064261918	-0.49620037	-0.081628125	77.710005
396	7	6	0.064261918	-1.5588463	-0.49555545	79.114919
397	7	6	0.064261918	-2.0967991	0.73588514	77.935189
398	7	4	0.082092185	-0.14516653	2.4914471	78.398143
399	7	6	0.064261918	0.29414453	3.309965	79.008087
400	7	6	0.064261918	-1.0197793	2.9151184	77.860808
401	7	6	0.064261918	0.60959697	2.1478322	77.655998
402	7	6	0.08690269	1.509462	1.391619	79.839893
403	7	6	0.08690269	0.77486667	-0.21378325	79.812872
404	7	6	0.097585452	1.5686104	-0.76082126	82.075036
405	7	6	0.097585452	1.2619125	0.33896361	83.464556
406	4	1	0.54567933	0.83049978	-4.6156129	85.851424
407	4	2	-0.66894329	1.3131165	-4.7989881	84.702403
408	4	3	-0.51894301	-0.41651208	-5.2076309	86.225096
409	4	4	0.031774548	-1.1768814	-6.0433983	85.29767
410	4	4	-0.13981223	-2.4680757	-6.547969	85.950387
411	4	4	-0.12180982	-3.2704098	-7.4248448	84.982388
412	4	4	0.18580809	-4.5642624	-7.9262089	85.635912
413	4	3	-0.62140143	-5.2967447	-8.8096691	84.734595
414	4	9	0.59461546	-5.8455524	-8.3810797	83.668405
415	4	2	-0.44303555	-6.3777705	-7.96351	82.632502
416	4	6	0.036465817	-4.3120981	-8.4975435	86.554822
417	4	6	0.036465817	-5.2089929	-7.0676996	85.928654
418	4	7	0.086632584	-2.6543074	-8.3000801	84.677913
419	4	7	0.086632584	-3.520919	-6.834749	84.07369
420	4	7	0.091746387	-3.0866131	-5.6750842	86.25742
421	4	7	0.091746387	-2.2111412	-7.1369367	86.85842
422	4	6	0.058843818	-1.4273837	-5.4485799	84.392534
423	4	6	0.058843818	-0.55245336	-6.9120245	84.993119
424	4	5	0.32273698	-0.77562392	-5.0259418	87.19033
425	5	8	-0.14298675	-1.0126362	3.9660089	81.813567
426	5	4	0.013578922	-0.82835602	4.7552773	80.669519
427	5	4	-0.052379209	-0.80889866	6.2637251	81.031017
428	5	4	-0.15492815	-0.62676762	7.0630324	79.721003
429	5	7	0.080971126	-1.4558189	6.8484551	79.013559
430	5	7	0.080971126	-0.61732651	8.1571165	79.911573
431	5	7	0.080971126	0.33166109	6.7913173	79.22779
432	5	4	0.067316574	-2.1630185	6.6380449	81.692948
433	5	10	-0.67397726	-2.2705225	8.0232436	81.888011
434	5	11	0.38873902	-3.1454498	8.1742106	82.330614
435	5	6	0.092848685	-3.0030415	6.3010139	81.043139
436	5	6	0.092848685	-2.2610363	6.1193921	82.674061
437	5	4	0.073104356	0.38055429	6.536577	81.998969
438	5	3	-0.72202796	0.50008806	7.9814582	82.321879
439	5	4	0.082092185	1.7626931	8.5464316	81.817041
440	5	6	0.064261918	2.6399326	8.0691448	82.308404
441	5	6	0.064261918	1.8378833	8.3966365	80.719167
442	5	6	0.064261918	1.7930198	9.6416837	82.002374
443	5	4	0.082092185	0.39231722	8.2198877	83.770728
444	5	6	0.064261918	-0.57898051	7.8368099	84.149269
445	5	6	0.064261918	0.42005394	9.3109894	83.982614
446	5	6	0.064261918	1.2193476	7.720142	84.322262
447	5	6	0.086831664	0.24144285	5.923434	82.919049
448	5	6	0.086831664	1.3169603	6.1439101	81.535883
449	5	6	0.10690182	0.1305286	4.4722654	80.178087
450	5	6	0.10690182	-1.6513812	4.5495764	79.946651
451	6	1	0.54567927	-0.85390624	23.398837	4.673999
452	6	2	-0.66894329	-0.98021875	24.488514	5.2938488
453	6	3	-0.51894296	0.22798751	23.196289	3.7612899
454	6	4	0.031483901	1.2195049	24.242275	3.5035707
455	6	4	-0.14493449	2.3020946	23.766429	2.5268103
456	6	4	-0.14362859	3.2301117	22.719927	3.1650987
457	6	4	0.02567914	4.3377562	22.275908	2.2008825
458	6	3	-0.46219346	3.7821402	21.59679	1.0305052
459	6	1	0.78843546	3.2579154	20.266544	1.0819151
460	6	2	-0.59503603	3.266504	19.608231	2.1561406
461	6	5	0.32931688	3.8175975	22.079538	0.10511179
462	6	6	0.062469852	5.042667	21.596476	2.7267255
463	6	6	0.062469852	4.9173645	23.165745	1.8716498
464	6	7	0.092766967	2.6448157	21.835384	3.4921808
465	6	7	0.092766967	3.708747	23.160126	4.0671931
466	6	7	0.092766967	1.8181312	23.349894	1.6166141
467	6	7	0.092766967	2.9075617	24.645841	2.2183773
468	6	6	0.058843818	1.6881724	24.559247	4.4602358
469	6	6	0.058843818	0.704562	25.123976	3.0634217
470	6	5	0.32273695	0.2816962	22.278787	3.2643966
471	7	8	-0.49055928	2.8709148	19.833711	0.22204424
472	7	4	0.094890189	1.48078	20.012262	0.28573239
473	7	4	-0.018448332	0.7845246	19.396746	-0.95643164
474	7	4	-0.16204192	-0.73315746	19.653983	-0.82391718
475	7	7	0.081142646	-0.9412778	20.744976	-0.76752704
476	7	7	0.081142646	-1.2916587	19.247537	-1.6930242
477	7	7	0.081142646	-1.1318877	19.175903	0.096786867
478	7	4	0.0036433398	1.3277736	20.092837	-2.2337363
479	7	8	-0.14344026	0.61388857	19.697922	-3.3735553
480	7	6	0.10679425	1.2430501	21.197565	-2.1216098
481	7	6	0.10679425	2.4054011	19.845671	-2.3703236
482	7	4	0.062315506	1.0692905	17.865674	-0.98940913
483	7	3	-0.72177524	0.36286303	17.203615	-2.1155721
484	7	4	0.082092185	-0.64256401	16.242868	-1.6335546
485	7	6	0.064261918	-0.16573503	15.412538	-1.0670513
486	7	6	0.064261918	-1.3765378	16.75406	-0.97426326
487	7	6	0.064261918	-1.2094652	15.820386	-2.4901601
488	7	4	0.082092185	1.3061532	16.524752	-3.0199975
489	7	6	0.064261918	2.0413298	17.254371	-3.4227003
490	7	6	0.064261918	0.76256359	16.093443	-3.8869794
491	7	6	0.064261918	1.853981	15.713525	-2.4905512
492	7	6	0.08690269	2.1711439	17.707813	-1.0506785
493	7	6	0.08690269	0.77494592	17.424453	-0.0075988288
494	7	6	0.097585452	1.0916569	19.534918	1.2139969
495	7	6	0.097585452	1.2555019	21.1016	0.34623013
496	4	1	0.54567933	-1.5736195	22.607728	4.8360778
497	4	2	-0.66894329	-1.1680681	21.431225	5.0314291
498	4	3	-0.51894301	-2.9717224	22.908332	4.8260399
499	4	4	0.031774548	-3.9802711	21.872158	5.0404272
500	4	4	-0.13981223	-5.3923859	22.463846	4.9800061
501	4	4	-0.12180982	-6.4548566	21.381802	5.2036308
502	4	4	0.18580809	-7.8678663	21.974913	5.1393142
503	4	3	-0.62140143	-8.87555	20.955424	5.4124797
504	4	9	0.59461546	-9.0992878	19.995134	4.6066096
505	4	2	-0.44303555	-9.3152483	19.062296	3.8230992
506	4	6	0.036465817	-7.9642	22.773856	5.905354
507	4	6	0.036465817	-8.052712	22.429545	4.1405376
508	4	7	0.086632584	-6.3024178	20.913531	6.2015328
509	4	7	0.086632584	-6.3488841	20.596109	4.4237868
510	4	7	0.091746387	-5.5482161	22.934299	3.9834232
511	4	7	0.091746387	-5.4921236	23.248899	5.7617776
512	4	6	0.058843818	-3.8722901	21.090789	4.2570805
513	4	6	0.058843818	-3.8173953	21.404721	6.0364928
514	4	5	0.32273698	-3.2586306	23.90013	4.6596972
515	5	8	-0.14298675	1.035041	20.166544	-4.1406241
516	5	4	0.013578922	1.6310663	19.171348	-4.9280811
517	5	4	-0.052379209	2.3318854	19.787332	-6.1673917
518	5	4	-0.15492815	2.9401223	18.630527	-6.9920431
519	5	7	0.080971126	2.1484537	17.920189	-7.3122407
520	5	7	0.080971126	3.4483732	19.006913	-7.9049726
521	5	7	0.080971126	3.6871227	18.071097	-6.3881367
522	5	4	0.067316574	1.2739953	20.541702	-7.0180991
523	5	10	-0.67397726	1.8146809	20.976089	-8.2376684
524	5	11	0.38873902	1.0878789	21.462485	-8.7060308
525	5	6	0.092848685	0.41220827	19.86726	-7.2276988
526	5	6	0.092848685	0.88967706	21.420812	-6.4518344
527	5	4	0.073104356	3.4540336	20.754115	-5.6854249
528	5	3	-0.72202796	4.2156897	21.318317	-6.8290143
529	5	4	0.082092185	5.6223755	20.883462	-6.8099176