Title

8500 atoms
8875 bonds
14750 angles
21375 dihedrals
9750 impropers

9 atom types
13 bond types
6 angle types
9 dihedral types
2 improper types
-8.657219462 93.68383589 xlo xhi
-8.830154256 94.00793596 ylo yhi
-9.202932155 94.3584613 zlo zhi
0.0 0.0 0.0 xy xz yz

Masses

1	15.99943
2	12.01078
3	1.007947
4	12.01078
5	1.007947
6	15.99943
7	15.99943
8	1.007947
9	35.4532


Pair Coeffs

1	0.16846514	3.0251065
2	0.086879315	3.4806469
3	0.015611343	2.5725815
4	0.10884061	3.3795318
5	0.015779483	2.6445434
6	0.2102061	3.0398122
7	0.20947353	2.99716
8	1.2326e-05	0.53453923
9	0.2656001	3.3075278

Bond Coeffs

1 harmonic	425.69104206635	1.362945806494
2 harmonic	300.03137914615	1.451203938761
3 harmonic	360.7852444772	1.387193227181
4 harmonic	397.2545789619	1.085358495916
5 harmonic	289.73813263395	1.498646816465
6 harmonic	264.62148576755	1.52190126495
7 harmonic	301.15400723785	1.345741232799
8 harmonic	370.04670688625	1.093899492634
9 harmonic	582.698766451	1.225198386222
10 harmonic	279.1350963404	1.454628925034
11 harmonic	385.7604595587	1.369745182308
12 harmonic	543.5267831885	0.9716763312559
13 harmonic	218.0227703685	1.746066037062


Angle Coeffs

1 harmonic	57.8982893754	126.8062420451
2 harmonic	65.09061609600001	110.3538806181
3 harmonic	34.066775159195	129.1835929926
4 harmonic	53.20531626545	116.5475862634
5 harmonic	201.41175231035	127.4691416191
6 harmonic	48.776492647595	115.6030999533


Dihedral Coeffs

1 fourier 1	3.661930099076	2	180
2 fourier 1	1.532232714475	2	180
3 fourier 1	0.457973137376	1	0
4 fourier 1	0.02664938770063	3	0
5 fourier 1	0.1155372516788	3	0
6 fourier 1	2.779853741805	2	180
7 fourier 1	0.9974165607242	2	180
8 fourier 1	0.1040663847541	3	0
9 fourier 1	0.8283030590042	2	180


Improper Coeffs

1 0.3666666666666667	-1	2
2 3.5	-1	2


Atoms

1	4	1	-0.019354307	0.99222396	0.59056074	-4.0992163
2	4	2	0.28043017	-0.017843973	0.29190167	-3.1888353
3	4	2	-0.31782559	-1.1868587	0.93502173	-3.2582201
4	4	3	0.22833052	-1.3516024	1.6868824	-4.0197764
5	4	2	-0.14531376	-2.2640366	0.62598873	-2.2964034
6	4	3	0.21210237	-3.2014398	1.1584299	-2.3914851
7	4	2	-0.26216972	-2.0875255	-0.29433348	-1.3216471
8	4	4	0.0074000201	-3.2442344	-0.60934296	-0.35227379
9	4	2	-0.26216972	-3.7951702	0.69843031	0.2485821
10	4	2	-0.14769071	-2.9448009	1.584119	0.81617052
11	4	3	0.21210237	-1.8792124	1.3944345	0.83319828
12	4	2	-0.2697016	-3.4400403	2.8348665	1.4233489
13	4	3	0.22816214	-2.7320555	3.5297053	1.8568033
14	4	2	0.44102958	-4.7523598	3.1037161	1.4394526
15	4	1	-0.43990082	-5.235317	4.280169	2.0090216
16	4	2	-0.26970154	-5.700249	2.1412579	0.84808768
17	4	3	0.22816218	-6.7619882	2.3538197	0.86968393
18	4	2	-0.14769079	-5.2576178	1.0076431	0.29146933
19	4	3	0.21210237	-5.9893322	0.32902646	-0.12336384
20	4	4	-0.13090319	-4.3111643	-1.3928804	-1.1545953
21	4	5	0.086661539	-3.8513728	-2.2772671	-1.6483177
22	4	5	0.086661539	-4.7628799	-0.75734193	-1.9463717
23	4	5	0.086661539	-5.1200232	-1.7676528	-0.49095849
24	4	4	-0.13090319	-2.8048562	-1.5060787	0.82972533
25	4	5	0.086661539	-3.6407392	-1.6321459	1.5512104
26	4	5	0.086661539	-1.9474826	-1.0565038	1.3758277
27	4	5	0.086661539	-2.5143049	-2.5207288	0.48020144
28	4	2	-0.14531371	-0.77955281	-1.0171523	-1.2705049
29	4	3	0.21210235	-0.58535441	-1.7792037	-0.52977106
30	4	2	-0.31782553	0.19187619	-0.73493453	-2.1474387
31	4	3	0.22833058	1.1344055	-1.265051	-2.0948931
32	5	2	0.62888151	-4.5937495	4.9898964	2.4404578
33	5	6	-0.49237803	-3.4368769	5.0738441	2.0631626
34	1	1	-0.019354307	1.8859776	0.11415527	-4.0658818
35	1	2	0.28043017	2.450585	-0.27565299	-2.8546043
36	1	2	-0.31782559	3.6319041	-0.90046508	-2.8425206
37	1	3	0.22833052	4.1511036	-1.1036713	-3.7707194
38	1	2	-0.14531376	4.2389756	-1.3190588	-1.5633301
39	1	3	0.21210237	5.2029686	-1.8118795	-1.5921807
40	1	2	-0.26216972	3.6109093	-1.097159	-0.38641543
41	1	4	0.0074000201	4.2880167	-1.5234913	0.93151906
42	1	2	-0.26216972	4.7329023	-2.9970965	0.8393105
43	1	2	-0.10678959	3.8453158	-3.9395918	0.44767063
44	1	3	0.21210237	2.8315808	-3.6683894	0.17829974
45	1	2	-0.4100548	4.2286092	-5.3636689	0.37141122
46	1	3	0.2336965	3.4991021	-6.0922188	0.04128808
47	1	2	0.43481752	5.4659229	-5.7473533	0.71054844
48	1	7	-0.64806795	5.8435531	-7.087475	0.64426035
49	1	8	0.43691021	5.2005055	-7.8088236	0.33931434
50	1	2	-0.41005474	6.4437923	-4.7404873	1.1626649
51	1	3	0.2336965	7.4410013	-5.0516392	1.4463158
52	1	2	-0.10678961	6.1032496	-3.4470496	1.2292959
53	1	3	0.21210237	6.8502397	-2.7456182	1.5728329
54	1	4	-0.13090319	5.4724729	-0.55740229	1.1695627
55	1	5	0.086661539	5.1236469	0.49778442	1.1360593
56	1	5	0.086661539	6.2544178	-0.68316514	0.38961154
57	1	5	0.086661539	5.9328186	-0.72227059	2.167691
58	1	4	-0.13090319	3.3442963	-1.4077093	2.1515089
59	1	5	0.086661539	3.8380279	-1.8119886	3.0624778
60	1	5	0.086661539	2.4069278	-1.982174	1.9887189
61	1	5	0.086661539	3.0831908	-0.34732964	2.3603816
62	1	2	-0.14531371	2.2985557	-0.38062984	-0.41757639
63	1	3	0.21210235	1.7588154	-0.15371234	0.48945991
64	1	2	-0.31782553	1.7555979	-0.00086050303	-1.5809736
65	1	3	0.22833058	0.8028971	0.51489394	-1.5875706
66	2	2	0.46804926	-4.9587513	5.6473456	3.220345
67	2	6	-0.56643325	-6.0874891	5.5047231	3.6599595
68	2	9	-0.080334516	-3.9262424	6.9162345	3.8529014
69	4	1	-0.019354307	1.3436078	1.8615722	22.363317
70	4	2	0.28043017	1.6719496	1.0056171	21.315576
71	4	2	-0.31782559	2.8253753	1.1678518	20.661128
72	4	3	0.22833052	3.5055176	1.96187	20.94281
73	4	2	-0.14531376	3.1820874	0.26566639	19.5477
74	4	3	0.21210237	4.1302995	0.42008035	19.049394
75	4	2	-0.26216972	2.3493686	-0.72556423	19.157392
76	4	4	0.0074000201	2.7677552	-1.6643014	18.008211
77	4	2	-0.26216972	3.2098758	-0.83370274	16.787775
78	4	2	-0.14769071	2.4023537	0.14336664	16.315575
79	4	3	0.21210237	1.4590647	0.36280221	16.799107
80	4	2	-0.2697016	2.7823577	0.94180882	15.133888
81	4	3	0.22816214	2.1204758	1.7262228	14.789602
82	4	2	0.44102958	3.9330761	0.69452811	14.494028
83	4	1	-0.43990082	4.3056571	1.4395707	13.376981
84	4	2	-0.26970154	4.8178622	-0.38201205	14.976466
85	4	3	0.22816218	5.7435121	-0.58854208	14.453535
86	4	2	-0.14769079	4.4818234	-1.1065009	16.050255
87	4	3	0.21210237	5.1577825	-1.8894842	16.363352
88	4	4	-0.13090319	3.8962495	-2.5744138	18.5506
89	4	5	0.086661539	3.5677749	-3.0833153	19.483571
90	4	5	0.086661539	4.8073685	-1.9839458	18.787404
91	4	5	0.086661539	4.1628197	-3.3663813	17.817901
92	4	4	-0.13090319	1.6159005	-2.5858791	17.541054
93	4	5	0.086661539	1.9295212	-3.1778773	16.654311
94	4	5	0.086661539	0.71978208	-1.9931931	17.256221
95	4	5	0.086661539	1.3294179	-3.30835	18.33608
96	4	2	-0.14531371	1.0713861	-0.90377825	19.912955
97	4	3	0.21210235	0.37475594	-1.6911714	19.664277
98	4	2	-0.31782553	0.75521861	-0.084751907	20.923681
99	4	3	0.22833058	-0.17552845	-0.22517915	21.458598
100	5	2	0.62888151	3.7037051	2.2132883	13.002183
101	5	6	-0.49237803	2.9396235	2.8051621	13.746238
102	1	1	-0.019354307	0.47490401	1.7559111	22.874256
103	1	2	0.28043017	-0.68803055	1.329426	22.238946
104	1	2	-0.31782559	-1.8192066	1.2016712	22.939067
105	1	3	0.22833052	-1.8343099	1.4292125	23.997562
106	1	2	-0.14531376	-3.057898	0.7490407	22.275099
107	1	3	0.21210237	-3.9579641	0.66921345	22.872171
108	1	2	-0.26216972	-3.0717977	0.43957218	20.958713
109	1	4	0.0074000201	-4.3902859	-0.0032325509	20.293358
110	1	2	-0.26216972	-5.0332838	-1.1417085	21.110893
111	1	2	-0.10678959	-4.2946816	-2.2249733	21.443298
112	1	3	0.21210237	-3.2512607	-2.2926259	21.159633
113	1	2	-0.4100548	-4.8833585	-3.345449	22.204034
114	1	3	0.2336965	-4.2623076	-4.1924203	22.466488
115	1	2	0.43481752	-6.1733709	-3.3126549	22.561757
116	1	7	-0.64806795	-6.7442893	-4.362101	23.279837
117	1	8	0.43691021	-6.206831	-5.176555	23.553058
118	1	2	-0.41005474	-7.0041719	-2.1523697	22.190374
119	1	3	0.2336965	-8.0494274	-2.1300955	22.470809
120	1	2	-0.10678961	-6.4745493	-1.1312576	21.504648
121	1	3	0.21210237	-7.1227886	-0.30535401	21.248353
122	1	4	-0.13090319	-5.2961339	1.2471101	20.198427
123	1	5	0.086661539	-4.7605524	2.0745403	19.683905
124	1	5	0.086661539	-5.5892315	1.6065436	21.208615
125	1	5	0.086661539	-6.2168028	1.0343991	19.613207
126	1	4	-0.13090319	-4.1836029	-0.53491703	18.855657
127	1	5	0.086661539	-5.140013	-0.92999841	18.447898
128	1	5	0.086661539	-3.4387828	-1.3595732	18.836807
129	1	5	0.086661539	-3.8417021	0.27261926	18.172138
130	1	2	-0.14531371	-1.8014777	0.60581439	20.187151
131	1	3	0.21210235	-1.7534761	0.39696955	19.129037
132	1	2	-0.31782553	-0.68280062	1.0200207	20.795029
133	1	3	0.22833058	0.23042905	1.132973	20.223244
134	2	2	0.46804926	3.7609258	2.4859494	11.955249
135	2	6	-0.56643325	4.4576656	1.8370801	11.192901
136	2	9	-0.080334516	2.8502105	3.85954	11.355142
137	4	1	-0.019354307	2.2914302	-2.3793791	34.864872
138	4	2	0.28043017	1.0959258	-1.6951308	35.066866
139	4	2	-0.31782559	0.63807467	-0.86462169	34.125782
140	4	3	0.22833052	1.1928791	-0.72224137	33.206911
141	4	2	-0.14531376	-0.62849276	-0.1335203	34.331215
142	4	3	0.21210237	-0.97398211	0.52084984	33.541471
143	4	2	-0.26216972	-1.3386989	-0.27348589	35.473281
144	4	4	0.0074000201	-2.6700451	0.48567876	35.640844
145	4	2	-0.26216972	-2.4642887	1.9800751	35.325768
146	4	2	-0.14769071	-1.4649355	2.6602392	35.932727
147	4	3	0.21210237	-0.79454747	2.1609482	36.620504
148	4	2	-0.2697016	-1.2541855	4.0978821	35.673759
149	4	3	0.22816214	-0.43642792	4.6100933	36.164512
150	4	2	0.44102958	-2.0693544	4.7603754	34.8423
151	4	1	-0.43990082	-1.8833741	6.1176945	34.587753
152	4	2	-0.26970154	-3.1804179	4.0448285	34.188035
153	4	3	0.22816218	-3.8454323	4.582393	33.523415
154	4	2	-0.14769079	-3.3742052	2.7402234	34.414488
155	4	3	0.21210237	-4.2052026	2.2591572	33.918472
156	4	4	-0.13090319	-3.6995697	-0.18586349	34.700046
157	4	5	0.086661539	-3.748491	-1.2793668	34.897953
158	4	5	0.086661539	-3.4189274	-0.044892572	33.634104
159	4	5	0.086661539	-4.7197082	0.22526478	34.859457
160	4	4	-0.13090319	-3.2317594	0.39491741	37.079784
161	4	5	0.086661539	-4.138626	1.0292098	37.181765
162	4	5	0.086661539	-2.4843585	0.74581565	37.823893
163	4	5	0.086661539	-3.5270094	-0.64668402	37.332758
164	4	2	-0.14531371	-0.82063954	-1.2209362	36.507606
165	4	3	0.21210235	-1.3536729	-1.393443	37.431315
166	4	2	-0.31782553	0.32650532	-1.8834467	36.314027
167	4	3	0.22833058	0.68964207	-2.5634351	37.07422
168	5	2	0.62888151	-1.1052696	6.6626593	35.033876
169	5	6	-0.49237803	-0.08657385	6.092021	35.386557
170	1	1	-0.019354307	2.6564719	-3.0151483	35.564451
171	1	2	0.28043017	2.4852326	-2.7672794	36.923555
172	1	2	-0.31782559	2.9800265	-3.6232645	37.822732
173	1	3	0.22833052	3.5137039	-4.5076559	37.497995
174	1	2	-0.14531376	2.8030127	-3.3702698	39.266597
175	1	3	0.21210237	3.2284001	-4.079715	39.965682
176	1	2	-0.26216972	2.1271642	-2.2852295	39.707904
177	1	4	0.0074000201	1.9860615	-2.0390933	41.223388
178	1	2	-0.26216972	1.4527233	-3.3108446	41.913414
179	1	2	-0.10678959	0.33999614	-3.9134048	41.435661
180	1	3	0.21210237	-0.16889343	-3.5248456	40.561691
181	1	2	-0.4100548	-0.2137505	-5.1183859	42.085361
182	1	3	0.2336965	-1.0980536	-5.5853907	41.670799
183	1	2	0.43481752	0.37253089	-5.6243467	43.177813
184	1	7	-0.64806795	-0.13761863	-6.7609335	43.802987
185	1	8	0.43691021	-0.96084237	-7.2379231	43.454233
186	1	2	-0.41005474	1.5733781	-4.9707965	43.730312
187	1	3	0.2336965	2.041708	-5.3737693	44.619119
188	1	2	-0.10678961	2.082722	-3.8805901	43.142597
189	1	3	0.21210237	2.959681	-3.4311846	43.586439
190	1	4	-0.13090319	3.3780484	-1.6155241	41.748641
191	1	5	0.086661539	3.7666312	-0.75394662	41.163056
192	1	5	0.086661539	4.1099172	-2.4472638	41.658335
193	1	5	0.086661539	3.3277431	-1.2970108	42.812303
194	1	4	-0.13090319	0.99951083	-0.89414236	41.552316
195	1	5	0.086661539	0.85483825	-0.81189959	42.652036
196	1	5	0.086661539	0.0052386269	-1.077173	41.090697
197	1	5	0.086661539	1.385357	0.085760004	41.195773
198	1	2	-0.14531371	1.5962129	-1.328796	38.688108
199	1	3	0.21210235	1.0678213	-0.43283246	38.977206
200	1	2	-0.31782553	1.7634311	-1.5627675	37.380509
201	1	3	0.22833058	1.3706373	-0.86201432	36.653637
202	2	2	0.46804926	-1.2068699	7.7311636	35.181069
203	2	6	-0.56643325	-2.2583809	8.2870743	34.910997
204	2	9	-0.080334516	0.13997084	8.6623683	35.809686
205	4	1	-0.019354307	-4.0707034	0.53570667	57.460175
206	4	2	0.28043017	-2.8336948	0.0082911782	57.820551
207	4	2	-0.31782559	-2.3422923	0.23998366	59.041147
208	4	3	0.22833052	-2.9025218	0.83571479	59.75083
209	4	2	-0.14531376	-1.0305712	-0.31426929	59.432422
210	4	3	0.21210237	-0.67077967	-0.11590249	60.433651
211	4	2	-0.26216972	-0.29565628	-1.0479492	58.566447
212	4	4	0.0074000201	1.0571206	-1.6324226	59.019522
213	4	2	-0.26216972	1.9257346	-0.52183675	59.641565
214	4	2	-0.14769071	2.1246112	0.63107543	58.962617
215	4	3	0.21210237	1.6622588	0.79078832	57.996971
216	4	2	-0.2697016	2.9707203	1.7059381	59.516753
217	4	3	0.22816214	3.0983118	2.6223889	58.954824
218	4	2	0.44102958	3.5757988	1.5455933	60.70119
219	4	1	-0.43990082	4.3777369	2.5510543	61.237512
220	4	2	-0.26970154	3.3928786	0.28729398	61.44802
221	4	3	0.22816218	3.8897707	0.15359007	62.400995
222	4	2	-0.14769079	2.6230691	-0.68939846	60.953759
223	4	3	0.21210237	2.5236413	-1.5965081	61.532792
224	4	4	-0.13090319	0.74902237	-2.7766874	60.015375
225	4	5	0.086661539	0.045165869	-3.5072734	59.559151
226	4	5	0.086661539	0.2788879	-2.3842616	60.942651
227	4	5	0.086661539	1.671687	-3.3325508	60.28892
228	4	4	-0.13090319	1.8649721	-2.2435245	57.849804
229	4	5	0.086661539	2.8682932	-2.5681867	58.200624
230	4	5	0.086661539	2.0117684	-1.5022584	57.03469
231	4	5	0.086661539	1.3554262	-3.1389704	57.431902
232	4	2	-0.14531371	-0.86946253	-1.3124315	57.211209
233	4	3	0.21210235	-0.3414573	-1.9101716	56.482485
234	4	2	-0.31782553	-2.0607298	-0.81004508	56.863611
235	4	3	0.22833058	-2.4607664	-1.0080847	55.877256
236	5	2	0.62888151	4.533497	3.4603687	60.737167
237	5	6	-0.49237803	3.6961686	3.8751797	59.953225
238	1	1	-0.019354307	-4.4630443	0.37139192	56.540426
239	1	2	0.28043017	-3.6489562	0.28137928	55.414778
240	1	2	-0.31782559	-4.1958929	0.066178559	54.214528
241	1	3	0.22833052	-5.2690571	-0.037596796	54.114712
242	1	2	-0.14531376	-3.3413472	-0.032005431	53.014446
243	1	3	0.21210237	-3.821238	-0.19468831	52.057249
244	1	2	-0.26216972	-1.996256	0.075373623	53.10408
245	1	4	0.0074000201	-1.1380146	-0.0047551669	51.825727
246	1	2	-0.26216972	-1.5152756	-1.2638633	51.019341
247	1	2	-0.10678959	-1.5439156	-2.4677938	51.635149
248	1	3	0.21210237	-1.325047	-2.5547753	52.692647
249	1	2	-0.4100548	-1.8766274	-3.6983021	50.889578
250	1	3	0.2336965	-1.904412	-4.6449395	51.414032
251	1	2	0.43481752	-2.1380665	-3.6410548	49.577501
252	1	7	-0.64806795	-2.4536348	-4.7932056	48.859246
253	1	8	0.43691021	-2.4960407	-5.7035821	49.302261
254	1	2	-0.41005474	-2.0901411	-2.3427317	48.880022
255	1	3	0.2336965	-2.291714	-2.2975624	47.817465
256	1	2	-0.10678961	-1.7936228	-1.2229178	49.551947
257	1	3	0.21210237	-1.7632755	-0.29526584	48.99827
258	1	4	-0.13090319	-1.3750516	1.3028974	51.034028
259	1	5	0.086661539	-1.1810234	2.1867315	51.680102
260	1	5	0.086661539	-2.4244898	1.367708	50.673394
261	1	5	0.086661539	-0.69141508	1.3749063	50.160635
262	1	4	-0.13090319	0.37614466	-0.094105482	52.128593
263	1	5	0.086661539	0.95068297	-0.24490721	51.188251
264	1	5	0.086661539	0.59966654	-0.9472454	52.804877
265	1	5	0.086661539	0.74976029	0.84232876	52.597326
266	1	2	-0.14531371	-1.4030388	0.33416573	54.45233
267	1	3	0.21210235	-0.33828913	0.45210194	54.586215
268	1	2	-0.31782553	-2.1842892	0.42548249	55.535764
269	1	3	0.22833058	-1.7395661	0.61050227	56.506163
270	2	2	0.46804926	5.4373175	4.0300416	60.916809
271	2	6	-0.56643325	6.3142945	3.573817	61.631247
272	2	9	-0.080334516	5.6411982	5.6080873	60.178917
273	4	1	-0.019354307	1.4336351	-3.4746073	77.107681
274	4	2	0.28043017	0.34586078	-2.631683	76.89684
275	4	2	-0.31782559	-0.85050635	-3.1503493	76.605801
276	4	3	0.22833052	-0.97716073	-4.2232807	76.533829
277	4	2	-0.14531376	-2.01016	-2.2644243	76.379426
278	4	3	0.21210237	-2.9659696	-2.7212844	76.158144
279	4	2	-0.26216972	-1.8851596	-0.91961965	76.444036
280	4	4	0.0074000201	-3.1240145	-0.027706698	76.228117
281	4	2	-0.26216972	-3.8385599	-0.43038218	74.923469
282	4	2	-0.14769071	-3.1307174	-0.52408456	73.774596
283	4	3	0.21210237	-2.063905	-0.34081725	73.766028
284	4	2	-0.2697016	-3.7866787	-0.88282999	72.502074
285	4	3	0.22816214	-3.1894916	-0.96354044	71.602752
286	4	2	0.44102958	-5.1075859	-1.1027032	72.462302
287	4	1	-0.43990082	-5.7413592	-1.4421042	71.268637
288	4	2	-0.26970154	-5.9034245	-0.98248488	73.697907
289	4	3	0.22816218	-6.9727805	-1.1506353	73.664109
290	4	2	-0.14769079	-5.3142993	-0.66245042	74.856069
291	4	3	0.21210237	-5.9384239	-0.57894788	75.734425
292	4	4	-0.13090319	-4.0254356	-0.18924425	77.476049
293	4	5	0.086661539	-3.4453273	0.0200765	78.401776
294	4	5	0.086661539	-4.4239305	-1.223907	77.550485
295	4	5	0.086661539	-4.878608	0.52254501	77.452095
296	4	4	-0.13090319	-2.7655632	1.4728157	76.108722
297	4	5	0.086661539	-3.6708438	2.0683398	75.861837
298	4	5	0.086661539	-2.0159789	1.6424177	75.305732
299	4	5	0.086661539	-2.3607825	1.8683849	77.065686
300	4	2	-0.14531371	-0.54314399	-0.35751791	76.78887
301	4	3	0.21210235	-0.38406432	0.70733114	76.87782
302	4	2	-0.31782553	0.50355581	-1.166039	76.996348
303	4	3	0.22833058	1.4694049	-0.74303273	77.242005
304	5	2	0.62888151	-5.2107766	-1.5369353	70.36811
305	5	6	-0.49237803	-4.0261923	-1.8270319	70.387007
306	1	1	-0.019354307	2.3495523	-3.1029684	77.33095
307	1	2	0.28043017	2.7909921	-1.8991141	76.788925
308	1	2	-0.31782559	4.0051071	-1.4355309	77.10048
309	1	3	0.22833052	4.6461779	-1.992949	77.771842
310	1	2	-0.14531376	4.4825085	-0.15924546	76.531913
311	1	3	0.21210237	5.4766797	0.17846349	76.79755
312	1	2	-0.26216972	3.7022513	0.57182972	75.703926
313	1	4	0.0074000201	4.2448761	1.885965	75.107443
314	1	2	-0.26216972	4.8052638	2.7798689	76.232094
315	1	2	-0.10678959	4.043527	3.0431131	77.318348
316	1	3	0.21210237	3.0524979	2.6165917	77.416891
317	1	2	-0.4100548	4.5373584	3.9146902	78.40334
318	1	3	0.2336965	3.9088774	4.0952088	79.26611
319	1	2	0.43481752	5.7495982	4.4769663	78.316777
320	1	7	-0.64806795	6.2304178	5.3021301	79.332081
321	1	8	0.43691021	5.6839534	5.5012783	80.161877
322	1	2	-0.41005474	6.5886507	4.2229463	77.131078
323	1	3	0.2336965	7.5645466	4.6852552	77.056267
324	1	2	-0.10678961	6.1479519	3.4296533	76.146263
325	1	3	0.21210237	6.794123	3.2775902	75.29341
326	1	4	-0.13090319	5.3172985	1.5034513	74.060293
327	1	5	0.086661539	4.8980905	0.78570525	73.321831
328	1	5	0.086661539	6.194846	1.0220232	74.543734
329	1	5	0.086661539	5.6646516	2.3950565	73.494832
330	1	4	-0.13090319	3.1547801	2.7036312	74.375663
331	1	5	0.086661539	3.5633923	3.6833736	74.043672
332	1	5	0.086661539	2.2889423	2.9041602	75.042958
333	1	5	0.086661539	2.7927561	2.172314	73.468552
334	1	2	-0.14531371	2.3539505	0.028871076	75.351878
335	1	3	0.21210235	1.69335	0.55393906	74.678501
336	1	2	-0.31782553	1.9289017	-1.1308677	75.868463
337	1	3	0.22833058	0.94849562	-1.5099222	75.606153
338	2	2	0.46804926	-5.7148447	-1.3772027	69.422547
339	2	6	-0.56643325	-6.8747692	-1.000464	69.405397
340	2	9	-0.080334516	-4.8628471	-1.658341	67.915449
341	4	1	-0.019354307	-0.61401387	22.990561	-0.022621008
342	4	2	0.28043017	-1.0872988	21.758767	0.42112688
343	4	2	-0.31782559	-1.4240348	21.598964	1.7041253
344	4	3	0.22833052	-1.330677	22.423655	2.3995195
345	4	2	-0.14531376	-1.9260654	20.295892	2.1846166
346	4	3	0.21210237	-2.2006528	20.207875	3.2277436
347	4	2	-0.26216972	-2.0392429	19.239337	1.3484455
348	4	4	0.0074000201	-2.5924068	17.902177	1.8803315
349	4	2	-0.26216972	-1.8296693	17.489232	3.1541199
350	4	2	-0.14769071	-0.47738565	17.458437	3.143652
351	4	3	0.21210237	0.075203009	17.741938	2.2570731
352	4	2	-0.2697016	0.28502708	17.043988	4.3374927
353	4	3	0.22816214	1.3669744	17.043872	4.3012161
354	4	2	0.44102958	-0.35727046	16.669413	5.4518847
355	4	1	-0.43990082	0.34843232	16.27545	6.5869946
356	4	2	-0.26970154	-1.8316586	16.671912	5.478441
357	4	3	0.22816218	-2.3511975	16.359827	6.3760053
358	4	2	-0.14769079	-2.529111	17.051299	4.401197
359	4	3	0.21210237	-3.6078046	17.030607	4.4644818
360	4	4	-0.13090319	-4.1067791	18.102297	2.130568
361	4	5	0.086661539	-4.6023866	18.489738	1.2131952
362	4	5	0.086661539	-4.283928	18.833758	2.9481559
363	4	5	0.086661539	-4.6021388	17.143042	2.3943258
364	4	4	-0.13090319	-2.44151	16.74673	0.86225373
365	4	5	0.086661539	-2.7652531	15.785724	1.3169976
366	4	5	0.086661539	-1.383781	16.632779	0.5402915
367	4	5	0.086661539	-3.0731608	16.91608	-0.036879105
368	4	2	-0.14531371	-1.6751995	19.44159	-0.087674606
369	4	3	0.21210235	-1.7650605	18.643028	-0.80971675
370	4	2	-0.31782553	-1.2239092	20.626316	-0.51790184
371	4	3	0.22833058	-0.96148675	20.755473	-1.5603025
372	5	2	0.62888151	1.3975975	16.259278	6.6082031
373	5	6	-0.49237803	2.0328807	16.999057	5.8754723
374	1	1	-0.019354307	-0.3542435	23.134456	-0.99147738
375	1	2	0.28043017	0.224874	22.114883	-1.7418234
376	1	2	-0.31782559	0.5587339	22.33551	-3.0169361
377	1	3	0.22833052	0.38110875	23.303855	-3.4676799
378	1	2	-0.14531376	1.1725235	21.2606	-3.8218681
379	1	3	0.21210237	1.4408917	21.480166	-4.8479071
380	1	2	-0.26216972	1.3930172	20.033955	-3.2969306
381	1	4	0.0074000201	2.0612641	18.94439	-4.1591831
382	1	2	-0.26216972	1.3238502	18.817644	-5.5075505
383	1	2	-0.10678959	-0.019638771	18.661714	-5.5221111
384	1	3	0.21210237	-0.58577026	18.64553	-4.5985294
385	1	2	-0.4100548	-0.75656634	18.512379	-6.7930801
386	1	3	0.2336965	-1.8333706	18.40286	-6.7719853
387	1	2	0.43481752	-0.096521216	18.509966	-7.9582013
388	1	7	-0.64806795	-0.77714163	18.369904	-9.1665323
389	1	8	0.43691021	-1.7845857	18.267057	-9.2029322
390	1	2	-0.41005474	1.3708724	18.655282	-7.9657086
391	1	3	0.2336965	1.9056663	18.643426	-8.9067473
392	1	2	-0.10678961	2.0439347	18.795781	-6.8165189
393	1	3	0.21210237	3.1190519	18.89215	-6.8699432
394	1	4	-0.13090319	3.5465219	19.342604	-4.3275983
395	1	5	0.086661539	4.0158127	19.514641	-3.3344263
396	1	5	0.086661539	3.6452547	20.278976	-4.918392
397	1	5	0.086661539	4.1247484	18.538529	-4.8320569
398	1	4	-0.13090319	2.0291557	17.550627	-3.4892705
399	1	5	0.086661539	2.4342899	16.77942	-4.1807792
400	1	5	0.086661539	0.99051534	17.257865	-3.2234001
401	1	5	0.086661539	2.653796	17.53052	-2.5696895
402	1	2	-0.14531371	1.0299825	19.810485	-1.8634299
403	1	3	0.21210235	1.2020102	18.860571	-1.3801137
404	1	2	-0.31782553	0.47691079	20.790833	-1.1384812
405	1	3	0.22833058	0.21681467	20.612881	-0.10196389
406	2	2	0.46804926	1.9158807	15.585982	7.2803233
407	2	6	-0.56643325	1.2840992	14.784145	7.9478266
408	2	9	-0.080334516	3.6641085	15.647007	7.4078241
409	4	1	-0.019354307	0.80598104	14.981264	20.532607
410	4	2	0.28043017	-0.016834209	15.701762	19.671163
411	4	2	-0.31782559	-0.30502669	15.211679	18.462124
412	4	3	0.22833052	0.098413622	14.256511	18.150206
413	4	2	-0.14531376	-1.1760307	15.968967	17.540836
414	4	3	0.21210237	-1.3973206	15.534404	16.574686
415	4	2	-0.26216972	-1.6833596	17.172718	17.889976
416	4	4	0.0074000201	-2.6104829	17.921791	16.912109
417	4	2	-0.26216972	-1.9465631	18.010068	15.524216
418	4	2	-0.14769071	-0.68320117	18.481123	15.415803
419	4	3	0.21210237	-0.12571863	18.775962	16.295594
420	4	2	-0.2697016	-0.025169657	18.602801	14.100324
421	4	3	0.22816214	0.99192174	18.969958	14.048878
422	4	2	0.44102958	-0.68263354	18.264819	12.983081
423	4	1	-0.43990082	-0.075035595	18.374173	11.733856
424	4	2	-0.26970154	-2.0693276	17.771707	13.075013
425	4	3	0.22816218	-2.6043713	17.507652	12.171164
426	4	2	-0.14769079	-2.6702633	17.654186	14.264927
427	4	3	0.21210237	-3.6894136	17.295	14.283128
428	4	4	-0.13090319	-3.955623	17.156489	16.882089
429	4	5	0.086661539	-4.3535532	17.0334	17.913501
430	4	5	0.086661539	-3.8299466	16.143695	16.442407
431	4	5	0.086661539	-4.7210591	17.709244	16.295837
432	4	4	-0.13090319	-2.9130938	19.369453	17.367095
433	4	5	0.086661539	-3.5052504	19.902637	16.59237
434	4	5	0.086661539	-1.9744391	19.941214	17.532779
435	4	5	0.086661539	-3.5097723	19.381221	18.305145
436	4	2	-0.14531371	-1.3652202	17.697101	19.253679
437	4	3	0.21210235	-1.7584686	18.641802	19.600116
438	4	2	-0.31782553	-0.57774828	17.004245	20.085647
439	4	3	0.22833058	-0.35434428	17.399367	21.068559
440	5	2	0.62888151	0.90954526	18.721217	11.626058
441	5	6	-0.49237803	1.7047959	18.590753	12.54165
442	1	1	-0.019354307	1.0364134	15.333278	21.454483
443	1	2	0.28043017	1.1990064	16.696323	21.685996
444	1	2	-0.31782559	1.5049945	17.130271	22.912418
445	1	3	0.22833052	1.6274177	16.42588	23.725596
446	1	2	-0.14531376	1.6785835	18.573937	23.168898
447	1	3	0.21210237	1.938365	18.887078	24.172612
448	1	2	-0.26216972	1.516324	19.483305	22.181195
449	1	4	0.0074000201	1.7327568	20.980344	22.479884
450	1	2	-0.26216972	0.91045832	21.391948	23.717764
451	1	2	-0.10678959	-0.40761991	21.093544	23.773564
452	1	3	0.21210237	-0.88759292	20.550754	22.968098
453	1	2	-0.4100548	-1.2319639	21.493432	24.931697
454	1	3	0.2336965	-2.2812326	21.227837	24.952698
455	1	2	0.43481752	-0.68499008	22.180063	25.942899
456	1	7	-0.64806795	-1.4492444	22.565119	27.04316
457	1	8	0.43691021	-2.4346243	22.339581	27.113906
458	1	2	-0.41005474	0.744939	22.536801	25.893316
459	1	3	0.2336965	1.1850525	23.100398	26.70594
460	1	2	-0.10678961	1.4984524	22.172743	24.847817
461	1	3	0.21210237	2.539749	22.462066	24.851198
462	1	4	-0.13090319	3.2524516	21.191455	22.677087
463	1	5	0.086661539	3.81441	20.796925	21.802575
464	1	5	0.086661539	3.6158386	20.660873	23.583735
465	1	5	0.086661539	3.5007256	22.270806	22.770477
466	1	4	-0.13090319	1.2867531	21.891931	21.312631
467	1	5	0.086661539	1.3708417	22.962171	21.603479
468	1	5	0.086661539	0.22875545	21.696838	21.033795
469	1	5	0.086661539	1.9272107	21.741995	20.416226
470	1	2	-0.14531371	1.191991	18.978452	20.811309
471	1	3	0.21210235	1.072428	19.65213	19.976211
472	1	2	-0.31782553	1.0394224	17.667674	20.58524
473	1	3	0.22833058	0.8017881	17.317413	19.587978
474	2	2	0.46804926	1.2192222	19.195013	10.702311
475	2	6	-0.56643325	0.4027107	19.40598	9.8211457
476	2	9	-0.080334516	2.8946302	19.660911	10.473776
477	4	1	-0.019354307	-1.8453005	21.264301	40.475425
478	4	2	0.28043017	-1.357122	21.181193	39.17427
479	4	2	-0.31782559	-2.0981827	21.62808	38.156363
480	4	3	0.22833052	-3.0762862	22.054834	38.339661
481	4	2	-0.14531376	-1.5894985	21.543318	36.772542
482	4	3	0.21210237	-2.2127819	21.926843	35.975243
483	4	2	-0.26216972	-0.38028834	21.000786	36.504646
484	4	4	0.0074000201	0.12866334	20.953694	35.050121
485	4	2	-0.26216972	-0.94533007	20.327869	34.139237
486	4	2	-0.14769071	-1.4968218	19.139109	34.474552
487	4	3	0.21210237	-1.2079311	18.633395	35.38699
488	4	2	-0.2697016	-2.5098039	18.498584	33.61322
489	4	3	0.22816214	-2.9424221	17.553889	33.917059
490	4	2	0.44102958	-2.8859701	19.080436	32.46663
491	4	1	-0.43990082	-3.8410039	18.488118	31.642757
492	4	2	-0.26970154	-2.28041	20.36479	32.068806
493	4	3	0.22816218	-2.577209	20.830519	31.13717
494	4	2	-0.14769079	-1.3650506	20.953515	32.847491
495	4	3	0.21210237	-0.9436398	21.890539	32.512211
496	4	4	-0.13090319	0.48345572	22.40457	34.643835
497	4	5	0.086661539	1.1887369	22.85058	35.379337
498	4	5	0.086661539	-0.42455788	23.044361	34.611494
499	4	5	0.086661539	0.9790393	22.435176	33.649561
500	4	4	-0.13090319	1.4122203	20.1037	34.894229
501	4	5	0.086661539	1.6921196	20.018802	33.822043
502	4	5	0.086661539	1.2620704	19.076035	35.290201
503	4	5	0.086661539	2.2715067	20.569522	35.424077
504	4	2	-0.14531371	0.44291201	20.522605	37.657711
505	4	3	0.21210235	1.4264018	20.100207	37.511251
506	4	2	-0.31782553	-0.022367246	20.605313	38.910311
507	4	3	0.22833058	0.58481297	20.251597	39.733939
508	5	2	0.62888151	-4.2948209	17.574652	31.889918
509	5	6	-0.49237803	-4.3866673	17.236882	33.058348
510	1	1	-0.019354307	-1.2997192	20.932876	41.262424
511	1	2	0.28043017	-0.46798376	19.822581	41.146725
512	1	2	-0.31782559	0.23772371	19.407879	42.203157
513	1	3	0.22833052	0.16425866	19.931643	43.147979
514	1	2	-0.14531376	1.1236465	18.232037	42.090816
515	1	3	0.21210237	1.6704427	17.918127	42.971419
516	1	2	-0.26216972	1.2532441	17.56425	40.922013
517	1	4	0.0074000201	2.1665013	16.324133	40.849516
518	1	2	-0.26216972	3.5577335	16.663725	41.421432
519	1	2	-0.10678959	4.2183888	17.753562	40.968355
520	1	3	0.21210237	3.7727425	18.40193	40.223514
521	1	2	-0.4100548	5.5625973	18.096057	41.474839
522	1	3	0.2336965	6.0596856	18.982601	41.10216
523	1	2	0.43481752	6.1593117	17.314457	42.383799
524	1	7	-0.64806795	7.4278112	17.62363	42.871903
525	1	8	0.43691021	7.9352833	18.442863	42.558574
526	1	2	-0.41005474	5.4679242	16.108304	42.875321
527	1	3	0.2336965	5.9541469	15.470952	43.602692
528	1	2	-0.10678961	4.2468874	15.795323	42.423102
529	1	3	0.21210237	3.7814523	14.898351	42.806285
530	1	4	-0.13090319	1.4610874	15.191338	41.631882
531	1	5	0.086661539	0.42810228	15.04184	41.24872
532	1	5	0.086661539	1.3915563	15.435583	42.71405
533	1	5	0.086661539	1.9997304	14.225947	41.516791
534	1	4	-0.13090319	2.3786759	15.82357	39.40148
535	1	5	0.086661539	3.1149919	14.990135	39.384073
536	1	5	0.086661539	2.7678121	16.635546	38.749991
537	1	5	0.086661539	1.4317967	15.436876	38.965479
538	1	2	-0.14531371	0.44227431	18.031223	39.755428
539	1	3	0.21210235	0.48434005	17.526702	38.8019
540	1	2	-0.31782553	-0.36167277	19.096158	39.865452
541	1	3	0.22833058	-0.94083232	19.424117	39.010641
542	2	2	0.46804926	-4.6812986	16.932246	31.107844
543	2	6	-0.56643325	-4.5106261	17.226471	29.936539
544	2	9	-0.080334516	-5.5511203	15.467505	31.525246
545	4	1	-0.019354307	1.3447575	15.830655	53.563066
546	4	2	0.28043017	0.49758861	16.915703	53.770924
547	4	2	-0.31782559	0.45252166	17.905258	52.874396
548	4	3	0.22833052	1.0717765	17.866185	51.987041
549	4	2	-0.14531376	-0.44211326	19.060917	53.086494
550	4	3	0.21210237	-0.46076623	19.837085	52.332521
551	4	2	-0.26216972	-1.2164619	19.151549	54.191242
552	4	4	0.0074000201	-2.157641	20.360174	54.365309
553	4	2	-0.26216972	-1.371643	21.669938	54.161462
554	4	2	-0.14769071	-0.22419845	21.875186	54.847737
555	4	3	0.21210237	0.15939992	21.120093	55.521855
556	4	2	-0.2697016	0.54116074	23.127992	54.696079