Title

540 atoms
549 bonds
972 angles
1848 dihedrals
267 impropers

11 atom types
14 bond types
9 angle types
33 dihedral types
3 improper types
-14.48999977 85.51000023 xlo xhi
-2.588999987 97.41100001 ylo yhi
-2.249000072 97.75099993 zlo zhi
0.0 0.0 0.0 xy xz yz

Masses

1	12.01078
2	15.99943
3	15.99943
4	12.01078
5	1.007947
6	15.99943
7	1.007947
8	1.007947
9	14.00672
10	1.007947
11	1.007947


Pair Coeffs

1	0.086879315	3.4806469
2	0.2102061	3.0398122
3	0.16846514	3.0251065
4	0.10884061	3.3795318
5	0.016409246	2.5832257
6	0.20947353	2.99716
7	1.2326e-05	0.53453923
8	0.015611343	2.5725815
9	0.16769152	3.206876
10	0.014090815	1.1034277
11	0.015779483	2.6445434

Bond Coeffs

1 harmonic	582.698766451	1.225198386222
2 harmonic	301.15400723785	1.345741232799
3 harmonic	492.76746816345	1.381897776683
4 harmonic	366.7408841747	1.425895053732
5 harmonic	370.04670688625	1.093899492634
6 harmonic	264.62148576755	1.52190126495
7 harmonic	329.96998057905	1.427343958716
8 harmonic	543.5267831885	0.9716763312559
9 harmonic	425.69104206635	1.362945806494
10 harmonic	360.7852444772	1.387193227181
11 harmonic	397.2545789619	1.085358495916
12 harmonic	352.0565580496	1.450098586273
13 harmonic	505.144496193	1.019481865027
14 harmonic	366.34047229585	1.464762957261


Angle Coeffs

1 harmonic	65.09061609600001	110.3538806181
2 harmonic	55.42182150775	117.3465570514
3 harmonic	63.44422595415	115.5071327674
4 harmonic	201.41175231035	127.4691416191
5 harmonic	57.8982893754	126.8062420451
6 harmonic	53.20531626545	116.5475862634
7 harmonic	48.776492647595	115.6030999533
8 harmonic	34.066775159195	129.1835929926
9 harmonic	94.53012429075	110.92021963


Dihedral Coeffs

1 fourier 1	0.0473758381877	3	0
2 fourier 1	0.1918272375143	3	0
3 fourier 1	0.9202179876409	1	180
4 fourier 1	-0.1488678166443	4	180
5 fourier 1	-0.1230328948768	3	180
6 fourier 1	0.2939295466901	2	0
7 fourier 1	-0.3024127022865	1	0
8 fourier 1	0.182238503271	2	0
9 fourier 1	0.02972342374561	3	0
10 fourier 1	1.163809172478	2	180
11 fourier 1	0.1679186987369	1	180
12 fourier 1	1.809047390003	2	180
13 fourier 1	-0.04816277792592	1	0
14 fourier 1	0.4860993122944	2	180
15 fourier 1	0.8916986138746	1	0
16 fourier 1	0.1115525666802	3	0
17 fourier 1	0.3432490222662	1	0
18 fourier 1	-0.0309670556842	3	0
19 fourier 1	0.4598191477945	2	0
20 fourier 1	0.1155372516788	3	0
21 fourier 1	2.779853741805	2	180
22 fourier 1	0.3445382149273	3	0
23 fourier 1	0.1364556373303	1	0
24 fourier 1	0.1040663847541	3	0
25 fourier 1	0.1911926717192	3	0
26 fourier 1	0.3026390167484	3	0
27 fourier 1	1.532232714475	2	180
28 fourier 1	3.661930099076	2	180
29 fourier 1	0.09223874044423	3	0
30 fourier 1	0.3159935921949	2	180
31 fourier 1	0.3247796806857	1	180
32 fourier 1	0.2036670163956	3	0
33 fourier 1	1.659715194912	2	180


Improper Coeffs

1 0.3333333333333333	-1	2
2 3.5	-1	2
3 0.3666666666666667	-1	2


Atoms

1	11	1	0.79207802	7.257	1.281	-0.07
2	11	2	-0.57313502	6.4879999	1.84	-0.89700001
3	11	3	-0.48181799	6.763	0.41100001	0.90600002
4	11	4	0.089959003	5.3860002	0.052000001	1.013
5	11	5	0.113846	4.7519999	0.963	0.94199997
6	11	5	0.113846	5.2210002	-0.40000001	2.0139999
7	11	4	0.14999001	5.0029998	-0.96600002	-0.071999997
8	11	5	0.103803	5.1620002	-0.49900001	-1.072
9	11	6	-0.69444197	5.8189998	-2.1010001	0.057999998
10	11	7	0.41915101	5.7729998	-2.589	-0.80599999
11	11	4	0.054779001	3.53	-1.373	0.050999999
12	11	5	0.10243	3.3380001	-1.789	1.0650001
13	11	5	0.10243	3.3039999	-2.154	-0.708
14	11	3	-0.39509699	2.691	-0.242	-0.176
15	11	1	0.16125999	1.289	-0.27200001	-0.133
16	11	1	-0.34470999	0.59200001	0.91799998	-0.368
17	11	8	0.21857899	1.137	1.83	-0.57599998
18	11	1	-0.34470999	-0.80599999	0.94199997	-0.33700001
19	11	8	0.21857899	-1.312	1.8789999	-0.52200001
20	11	1	0.162058	-1.529	-0.236	-0.067000002
21	11	3	-0.40580601	-2.9300001	-0.266	-0.025
22	11	4	0.093850002	-3.7690001	0.86400002	-0.25400001
23	11	5	0.093061998	-3.539	1.643	0.50300002
24	11	5	0.093061998	-3.575	1.2819999	-1.266
25	11	4	0.174444	-5.2480001	0.45899999	-0.13500001
26	11	5	0.114396	-5.415	-0.050999999	0.83999997
27	11	3	-0.491815	-6.0739999	1.622	-0.207
28	11	1	0.78820801	-6.243	2.5179999	0.85399997
29	11	2	-0.58242202	-5.6939998	2.3180001	1.971
30	11	4	0.093557999	-5.6630001	-0.5	-1.262
31	11	5	0.104254	-6.7639999	-0.66799998	-1.223
32	11	5	0.104254	-5.4320002	-0.046	-2.2490001
33	11	6	-0.67234498	-4.9920001	-1.728	-1.158
34	11	7	0.39939401	-5.4089999	-2.217	-0.40200001
35	11	1	-0.34470999	-0.83099997	-1.426	0.168
36	11	8	0.21857899	-1.376	-2.3380001	0.37599999
37	11	1	-0.34470999	0.56599998	-1.449	0.13600001
38	11	8	0.21857899	1.073	-2.3870001	0.322
39	12	9	-0.45796299	-6.8509998	3.3789999	0.71600002
40	12	4	0.029974001	-6.3590002	4.4180002	1.6160001
41	12	4	-0.140571	-7.125	5.723	1.383
42	12	4	-0.138587	-6.6100001	6.8369999	2.302
43	12	4	-0.138587	-7.3769999	8.1440001	2.0669999
44	12	4	-0.140571	-6.8670001	9.2550001	2.9960001
45	12	4	0.029974001	-7.513	10.619	2.6960001
46	12	9	-0.45672101	-8.9350004	10.654	3.036
47	12	10	0.33451599	-7.816	3.112	1.021
48	12	5	0.070556998	-6.4809999	4.0890002	2.6730001
49	12	5	0.070556998	-5.277	4.585	1.421
50	12	11	0.098164998	-8.2060003	5.553	1.579
51	12	11	0.098164998	-7.0029998	6.0310001	0.32100001
52	12	11	0.096672997	-5.5279999	7.0050001	2.1040001
53	12	11	0.096672997	-6.7309999	6.5250001	3.3629999
54	12	11	0.096672997	-8.4569998	7.9650002	2.2579999
55	12	11	0.096672997	-7.2490001	8.4589996	1.008
56	12	11	0.098164998	-5.7680001	9.3610001	2.8640001
57	12	11	0.098164998	-7.053	8.9759998	4.0570002
58	12	5	0.070556998	-7.3790002	10.879	1.623
59	12	5	0.070556998	-6.9899998	11.398	3.293
60	12	10	0.33451599	-9.4639997	10.048	2.369
61	4	1	0.79207802	-9.0740004	10.269	4.0180001
62	4	2	-0.57313597	-10.151	10.503	4.6290002
63	4	3	-0.48181799	-8.0530005	9.5190001	4.6100001
64	4	4	0.089959003	-8.1630001	8.9280005	5.9050002
65	4	5	0.113846	-8.5719995	9.6709995	6.6240001
66	4	5	0.113846	-7.1430001	8.6499996	6.2480001
67	4	4	0.14999001	-9.0419998	7.6700001	5.8559999
68	4	5	0.103803	-10.065	7.9619999	5.5219998
69	4	6	-0.69444197	-8.4860001	6.7579999	4.9450002
70	4	7	0.41915101	-9.2049999	6.1170001	4.704
71	4	4	0.054779001	-9.1459999	7.0180001	7.2399998
72	4	5	0.10243	-8.1289997	6.7709999	7.6170001
73	4	5	0.10243	-9.7370005	6.0799999	7.1560001
74	4	3	-0.39509699	-9.7989998	7.9029999	8.1490002
75	4	1	0.16125999	-10.05	7.612	9.4969997
76	4	1	-0.34470999	-10.693	8.5790005	10.277
77	4	8	0.21857899	-10.983	9.5229998	9.8330002
78	4	1	-0.34470999	-10.966	8.3389997	11.627
79	4	8	0.21857899	-11.464	9.1090002	12.2
80	4	1	0.162058	-10.595	7.1170001	12.218
81	4	3	-0.40580601	-10.846	6.8260002	13.567
82	4	4	0.093850002	-11.501	7.7090001	14.475
83	4	5	0.093061998	-10.91	8.6470003	14.554
84	4	5	0.093061998	-12.516	7.9590001	14.096
85	4	4	0.174444	-11.61	7.0580001	15.863
86	4	5	0.114396	-10.603	6.7179999	16.194
87	4	3	-0.491815	-12.12	8.0050001	16.802999
88	4	1	0.78820801	-11.353	9.0349998	17.357
89	4	2	-0.58242202	-10.13	9.1590004	17.080999
90	4	4	0.093557999	-12.55	5.8410001	15.843
91	4	5	0.104254	-12.709	5.4749999	16.882999
92	4	5	0.104254	-13.542	6.1370001	15.441
93	4	6	-0.67234498	-12.028	4.8080001	15.051
94	4	7	0.39939401	-11.287	4.3990002	15.569
95	4	1	-0.34470999	-9.9519997	6.1500001	11.439
96	4	8	0.21857899	-9.6619997	5.2059999	11.883
97	4	1	-0.34470999	-9.6789999	6.3899999	10.089
98	4	8	0.21857899	-9.1809998	5.6199999	9.5159998
99	13	9	-0.45796299	-11.81	9.7220001	18.028
100	13	4	0.029974001	-11.087	10.986	17.929001
101	13	4	-0.140571	-11.77	12.052	18.791
102	13	4	-0.138587	-11.042	13.397	18.684999
103	13	4	-0.138587	-11.727	14.464	19.548
104	13	4	-0.140571	-10.989	15.807	19.450001
105	13	4	0.029974001	-11.723	16.940001	20.188
106	13	9	-0.45672101	-11.711	16.763	21.641001
107	13	10	0.33451599	-11.664	9.3360004	18.99
108	13	5	0.070556998	-10.034	10.845	18.261999
109	13	5	0.070556998	-11.081	11.319	16.868
110	13	11	0.098164998	-11.775	11.717	19.851999
111	13	11	0.098164998	-12.823	12.172	18.454
112	13	11	0.096672997	-11.037	13.73	17.624001
113	13	11	0.096672997	-9.9890003	13.273	19.021
114	13	11	0.096672997	-11.735	14.119	20.605
115	13	11	0.096672997	-12.777	14.592	19.207001
116	13	11	0.098164998	-10.905	16.094999	18.379999
117	13	11	0.098164998	-9.9580002	15.702	19.851999
118	13	5	0.070556998	-12.773	17.013	19.83
119	13	5	0.070556998	-11.223	17.902	19.947001
120	13	10	0.33451599	-12.319	15.952	21.895
121	5	1	0.79207802	-10.72	16.551001	21.962999
122	5	2	-0.57313597	-10.422	16.684	23.18
123	5	3	-0.48181799	-9.7690001	16.136999	21.025
124	5	4	0.089959003	-8.427	15.791	21.368
125	5	5	0.113846	-8.0010004	16.562	22.046
126	5	5	0.113846	-7.8200002	15.784	20.438
127	5	4	0.14999001	-8.3739996	14.401	22.018999
128	5	5	0.103803	-8.9750004	14.422	22.958
129	5	6	-0.69444197	-8.9119997	13.458	21.129
130	5	7	0.41915101	-9.1479998	12.657	21.667
131	5	4	0.054779001	-6.9320002	14.013	22.370001
132	5	5	0.10243	-6.3010001	14.042	21.454
133	5	5	0.10243	-6.9229999	12.98	22.781
134	5	3	-0.39509699	-6.4099998	14.911	23.348
135	5	1	0.16125999	-5.1149998	14.837	23.882999
136	5	1	-0.34470999	-4.7329998	15.791	24.830999
137	5	8	0.21857899	-5.4320002	16.561001	25.134001
138	5	1	-0.34470999	-3.454	15.762	25.395
139	5	8	0.21857899	-3.191	16.514999	26.125
140	5	1	0.162058	-2.5339999	14.768	25.013
141	5	3	-0.40580601	-1.239	14.693	25.547001
142	5	4	0.093850002	-0.71799999	15.589	26.525999
143	5	5	0.093061998	-0.73100001	16.620001	26.114
144	5	5	0.093061998	-1.351	15.562	27.440001
145	5	4	0.174444	0.72600001	15.201	26.884001
146	5	5	0.114396	1.3329999	15.131	25.952999
147	5	3	-0.491815	1.294	16.193001	27.742001
148	5	1	0.78820801	1.748	17.437	27.291
149	5	2	-0.58242202	1.7180001	17.74	26.069
150	5	4	0.093557999	0.78500003	13.846	27.605
151	5	5	0.104254	1.823	13.658	27.965
152	5	5	0.104254	0.124	13.864	28.497999
153	5	6	-0.67234498	0.38	12.802	26.761
154	5	7	0.39939401	1.123	12.648	26.121
155	5	1	-0.34470999	-2.9159999	13.813	24.063999
156	5	8	0.21857899	-2.217	13.043	23.761999
157	5	1	-0.34470999	-4.1950002	13.842	23.5
158	5	8	0.21857899	-4.4580002	13.089	22.771
159	14	9	-0.45796299	2.132	18.136999	27.993999
160	14	4	0.029974001	1.904	19.475	27.458
161	14	4	-0.140571	2.3329999	20.532	28.479
162	14	4	-0.138587	2.0799999	21.948	27.947001
163	14	4	-0.138587	2.5109999	23.006001	28.969999
164	14	4	-0.140571	2.2679999	24.423	28.431
165	14	4	0.029974001	2.5539999	25.511999	29.48
166	14	9	-0.45672101	3.977	25.618	29.805
167	14	10	0.33451599	3.165	17.975	28.040001
168	14	5	0.070556998	2.4760001	19.604	26.511999
169	14	5	0.070556998	0.82099998	19.596001	27.235001
170	14	11	0.098164998	3.4159999	20.408001	28.700001
171	14	11	0.098164998	1.761	20.382	29.421
172	14	11	0.096672997	0.99699998	22.069	27.726
173	14	11	0.096672997	2.652	22.094	27.004
174	14	11	0.096672997	3.592	22.871	29.191999
175	14	11	0.096672997	1.934	22.863001	29.91
176	14	11	0.098164998	1.2029999	24.514999	28.125
177	14	11	0.098164998	2.8940001	24.596001	27.528
178	14	5	0.070556998	1.974	25.313	30.407
179	14	5	0.070556998	2.2119999	26.489	29.077999
180	14	10	0.33451599	4.2740002	24.767	30.334
181	6	1	0.79207802	4.5430002	25.664	28.905001
182	6	2	-0.57313597	5.7319999	26.079	28.941999
183	6	3	-0.48181799	3.9489999	25.271999	27.701
184	6	4	0.089959003	4.6399999	25.261999	26.452
185	6	5	0.113846	5.198	26.215	26.323
186	6	5	0.113846	3.8859999	25.195999	25.638
187	6	4	0.14999001	5.5869999	24.056	26.365
188	6	5	0.103803	6.3449998	24.136999	27.177999
189	6	6	-0.69444197	4.842	22.875999	26.524
190	6	7	0.41915101	5.4850001	22.160999	26.768999
191	6	4	0.054779001	6.316	24.025999	25.014999
192	6	5	0.10243	5.573	24.003	24.187
193	6	5	0.10243	6.9439998	23.111	24.962
194	6	3	-0.39509699	7.151	25.174999	24.886999
195	6	1	0.16125999	7.9510002	25.454	23.77
196	6	1	-0.34470999	8.7159996	26.625999	23.775999
197	6	8	0.21857899	8.6780005	27.289	24.629999
198	6	1	-0.34470999	9.5299997	26.950001	22.687
199	6	8	0.21857899	10.107	27.863001	22.725
200	6	1	0.162058	9.5900002	26.097	21.568001
201	6	3	-0.40580601	10.391	26.375999	20.451
202	6	4	0.093850002	11.227	27.523001	20.323
203	6	5	0.093061998	10.597	28.436001	20.379999
204	6	5	0.093061998	11.967	27.548	21.153
205	6	4	0.174444	11.963	27.495001	18.973
206	6	5	0.114396	11.224	27.368	18.15
207	6	3	-0.491815	12.672	28.721001	18.785
208	6	1	0.78820801	12.057	29.921	18.415001
209	6	2	-0.58242202	10.82	29.976999	18.181999
210	6	4	0.093557999	12.971	26.337	18.903
211	6	5	0.104254	13.576	26.424	17.972
212	6	5	0.104254	13.674	26.395	19.761
213	6	6	-0.67234498	12.32	25.094	18.931999
214	6	7	0.39939401	11.906	24.969	18.039
215	6	1	-0.34470999	8.8249998	24.926001	21.562
216	6	8	0.21857899	8.8629999	24.261999	20.708
217	6	1	-0.34470999	8.0109997	24.601	22.650999
218	6	8	0.21857899	7.434	23.688	22.613001
219	15	9	-0.45796299	12.647	30.802	18.322001
220	15	4	0.029974001	11.783	31.945	18.599001
221	15	4	-0.140571	12.603	33.237999	18.591999
222	15	4	-0.138587	11.72	34.452999	18.903999
223	15	4	-0.138587	12.542	35.748001	18.896999
224	15	4	-0.140571	11.655	36.964001	19.198
225	15	4	0.029974001	12.464	38.264999	19.34
226	15	9	-0.45672101	13.051	38.702	18.073999
227	15	10	0.33451599	12.947	30.853001	17.320999
228	15	5	0.070556998	10.977	32.001999	17.833
229	15	5	0.070556998	11.313	31.812	19.598
230	15	11	0.098164998	13.072	33.368999	17.591999
231	15	11	0.098164998	13.41	33.160999	19.353001
232	15	11	0.096672997	11.252	34.319	19.903999
233	15	11	0.096672997	10.913	34.526001	18.142
234	15	11	0.096672997	13.014	35.868	17.898001
235	15	11	0.096672997	13.345	35.675999	19.664
236	15	11	0.098164998	11.116	36.790001	20.155001
237	15	11	0.098164998	10.891	37.081001	18.399
238	15	5	0.070556998	13.266	38.137001	20.099001
239	15	5	0.070556998	11.786	39.064999	19.708
240	15	10	0.33451599	13.811	38.040001	17.799999
241	7	1	0.79207802	12.306	38.686001	17.313999
242	7	2	-0.57313597	12.499	39.321999	16.243999
243	7	3	-0.48181799	11.125	37.967999	17.527
244	7	4	0.089959003	10.089	37.855	16.552999
245	7	5	0.113846	9.8669996	38.855999	16.122
246	7	5	0.113846	9.1700001	37.493999	17.063
247	7	4	0.14999001	10.482	36.860001	15.452
248	7	5	0.103803	11.398	37.237	14.939
249	7	6	-0.69444197	10.745	35.611	16.037001
250	7	7	0.41915101	11.278	35.091999	15.379
251	7	4	0.054779001	9.3620005	36.717999	14.414
252	7	5	0.10243	8.4230003	36.396999	14.915
253	7	5	0.10243	9.6549997	35.946999	13.668
254	7	3	-0.39509699	9.1560001	37.960999	13.746
255	7	1	0.16125999	8.2010002	38.173	12.74
256	7	1	-0.34470999	8.1020002	39.449001	12.177
257	7	8	0.21857899	8.7539997	40.242001	12.52
258	7	1	-0.34470999	7.1669998	39.713001	11.171
259	7	8	0.21857899	7.1170001	40.710999	10.759
260	7	1	0.162058	6.3119998	38.693001	10.714
261	7	3	-0.40580601	5.3569999	38.904999	9.7089996
262	7	4	0.093850002	5.152	40.146999	9.0389996
263	7	5	0.093061998	4.8639998	40.916	9.7869997
264	7	5	0.093061998	6.092	40.469002	8.5410004
265	7	4	0.174444	4.033	40.007	7.9949999
266	7	5	0.114396	3.122	39.588001	8.4799995
267	7	3	-0.491815	3.724	41.287998	7.4429998
268	7	1	0.78820801	2.9679999	42.257	8.1120005
269	7	2	-0.58242202	2.471	42.028	9.2469997
270	7	4	0.093557999	4.4450002	39.071999	6.8460002
271	7	5	0.104254	3.6689999	39.097	6.0469999
272	7	5	0.104254	5.3969998	39.424999	6.395
273	7	6	-0.67234498	4.618	37.756001	7.2989998
274	7	7	0.39939401	3.71	37.387001	7.4549999
275	7	1	-0.34470999	6.4109998	37.416	11.278
276	7	8	0.21857899	5.7589998	36.623001	10.934
277	7	1	-0.34470999	7.3460002	37.153	12.283
278	7	8	0.21857899	7.3959999	36.153999	12.696
279	16	9	-0.45796299	2.8039999	43.200001	7.6490002
280	16	4	0.029974001	2.622	44.188	8.7089996
281	16	4	-0.140571	2.4949999	45.59	8.1070004
282	16	4	-0.138587	2.326	46.647999	9.2030001
283	16	4	-0.138587	2.1989999	48.051998	8.5979996
284	16	4	-0.140571	2.0179999	49.109001	9.6969995
285	16	4	0.029974001	2.0280001	50.544998	9.1440001
286	16	9	-0.45672101	0.85000002	50.84	8.3280001
287	16	10	0.33451599	1.906	43.118999	7.1199999
288	16	5	0.070556998	1.71	43.942001	9.2989998
289	16	5	0.070556998	3.5020001	44.157001	9.3889999
290	16	11	0.098164998	1.615	45.617001	7.427
291	16	11	0.098164998	3.408	45.813999	7.5120001
292	16	11	0.096672997	3.207	46.618	9.882
293	16	11	0.096672997	1.414	46.419998	9.7969999
294	16	11	0.096672997	1.323	48.07	7.915
295	16	11	0.096672997	3.115	48.282001	8.0100002
296	16	11	0.098164998	2.852	49.018002	10.427
297	16	11	0.098164998	1.069	48.924999	10.247
298	16	5	0.070556998	2.9489999	50.717999	8.5459995
299	16	5	0.070556998	2.05	51.254002	9.9989996
300	16	10	0.33451599	0.903	50.297001	7.4369998
301	8	1	0.79207802	-0.026000001	50.539001	8.8500004
302	8	2	-0.57313597	-1.147	50.986	8.4890003
303	8	3	-0.48181799	0.089000002	49.659	9.9320002
304	8	4	0.089959003	-1.0319999	49.167999	10.666
305	8	5	0.113846	-1.717	50.007999	10.914
306	8	5	0.113846	-0.66100001	48.738998	11.622
307	8	4	0.14999001	-1.767	48.077999	9.8730001
308	8	5	0.103803	-2.145	48.521	8.9219999
309	8	6	-0.69444197	-0.87	47.035	9.5889997
310	8	7	0.41915101	-1.262	46.514	8.8400002
311	8	4	0.054779001	-2.9590001	47.528999	10.667
312	8	5	0.10243	-2.609	47.133999	11.646
313	8	5	0.10243	-3.4289999	46.702999	10.091
314	8	3	-0.39509699	-3.9219999	48.561001	10.876
315	8	1	0.16125999	-5.1279998	48.391998	11.57
316	8	1	-0.34470999	-5.9770002	49.495998	11.707
317	8	8	0.21857899	-5.6919999	50.450001	11.281
318	8	1	-0.34470999	-7.191	49.381001	12.39
319	8	8	0.21857899	-7.822	50.255001	12.477
320	8	1	0.162058	-7.5739999	48.147999	12.95
321	8	3	-0.40580601	-8.7810001	47.978001	13.644
322	8	4	0.093850002	-9.7449999	49.008999	13.851
323	8	5	0.093061998	-9.2709999	49.834999	14.423
324	8	5	0.093061998	-10.091	49.405998	12.872
325	8	4	0.174444	-10.943	48.462002	14.643
326	8	5	0.114396	-10.58	47.973999	15.576
327	8	3	-0.491815	-11.826	49.533001	14.984
328	8	1	0.78820801	-11.573	50.445999	16.013
329	8	2	-0.58242202	-10.548	50.344002	16.74
330	8	4	0.093557999	-11.733	47.424999	13.829
331	8	5	0.104254	-12.663	47.148998	14.377
332	8	5	0.104254	-12.04	47.862999	12.855
333	8	6	-0.67234498	-10.965	46.276001	13.588
334	8	7	0.39939401	-10.926	45.775002	14.444
335	8	1	-0.34470999	-6.7259998	47.042999	12.813
336	8	8	0.21857899	-7.0100002	46.089001	13.239
337	8	1	-0.34470999	-5.5120001	47.159	12.13
338	8	8	0.21857899	-4.881	46.285	12.042
339	17	9	-0.45796299	-12.262	51.236	16.190001
340	17	4	0.029974001	-11.52	52.351002	16.768999
341	17	4	-0.140571	-12.439	53.563	16.941
342	17	4	-0.138587	-11.676	54.757	17.527
343	17	4	-0.138587	-12.597	55.970001	17.698999
344	17	4	-0.140571	-11.834	57.160999	18.297001
345	17	4	0.029974001	-12.685	58.441002	18.354
346	17	9	-0.45672101	-13.778	58.345001	19.320999
347	17	10	0.33451599	-12.938	50.884998	16.907
348	17	5	0.070556998	-11.098	52.050999	17.754999
349	17	5	0.070556998	-10.68	52.618999	16.091
350	17	11	0.098164998	-13.279	53.292999	17.618999
351	17	11	0.098164998	-12.861	53.842999	15.951
352	17	11	0.096672997	-10.836	55.025002	16.848
353	17	11	0.096672997	-11.253	54.473999	18.516001
354	17	11	0.096672997	-13.437	55.691002	18.371
355	17	11	0.096672997	-13.014	56.257999	16.708
356	17	11	0.098164998	-10.942	57.370998	17.666
357	17	11	0.098164998	-11.471	56.903999	19.316
358	17	5	0.070556998	-13.097	58.673	17.347
359	17	5	0.070556998	-12.03	59.289001	18.646999
360	17	10	0.33451599	-14.49	57.665001	18.972
361	9	1	0.79207802	-13.4	57.984001	20.247999
362	9	2	-0.57313597	-14.084	58.131001	21.296
363	9	3	-0.48181799	-12.147	57.362999	20.281
364	9	4	0.089959003	-11.576	56.813	21.468
365	9	5	0.113846	-11.678	57.536999	22.306
366	9	5	0.113846	-10.491	56.652	21.289
367	9	4	0.14999001	-12.237	55.472	21.819
368	9	5	0.103803	-13.322	55.646999	22.007
369	9	6	-0.69444197	-12.078	54.587002	20.74
370	9	7	0.41915101	-12.754	53.868999	20.855
371	9	4	0.054779001	-11.612	54.863998	23.08
372	9	5	0.10243	-10.517	54.735001	22.931999
373	9	5	0.10243	-12.07	53.868999	23.268999
374	9	3	-0.39509699	-11.854	55.712002	24.201
375	9	1	0.16125999	-11.412	55.446999	25.506001
376	9	1	-0.34470999	-11.715	56.373001	26.51
377	9	8	0.21857899	-12.277	57.265999	26.268
378	9	1	-0.34470999	-11.298	56.157001	27.827
379	9	8	0.21857899	-11.549	56.894001	28.577999
380	9	1	0.162058	-10.567	55.000999	28.158001
381	9	3	-0.40580601	-10.125	54.737	29.462
382	9	4	0.093850002	-10.369	55.582001	30.584
383	9	5	0.093061998	-9.9130001	56.577	30.391001
384	9	5	0.093061998	-11.463	55.714001	30.729
385	9	4	0.174444	-9.7469997	54.974998	31.851999
386	9	5	0.114396	-8.6719999	54.75	31.667
387	9	3	-0.491815	-9.8549995	55.900002	32.935001
388	9	1	0.78820801	-9.0319996	57.021999	33.078999
389	9	2	-0.58242202	-8.1009998	57.257999	32.264
390	9	4	0.093557999	-10.451	53.669998	32.257
391	9	5	0.104254	-10.066	53.328999	33.244999
392	9	5	0.104254	-11.542	53.849998	32.370998
393	9	6	-0.67234498	-10.255	52.666	31.298
394	9	7	0.39939401	-9.3179998	52.353001	31.402
395	9	1	-0.34470999	-10.264	54.075001	27.153999
396	9	8	0.21857899	-9.7019997	53.181999	27.396
397	9	1	-0.34470999	-10.681	54.291	25.837
398	9	8	0.21857899	-10.43	53.555	25.086
399	18	9	-0.45796299	-9.1920004	57.682999	33.896
400	18	4	0.029974001	-8.7379999	59.008999	33.488998
401	18	4	-0.140571	-9.0480003	60.032001	34.584999
402	18	4	-0.138587	-8.6009998	61.438999	34.169998
403	18	4	-0.138587	-8.9110003	62.463001	35.269001
404	18	4	-0.140571	-8.4519997	63.868999	34.855999
405	18	4	0.029974001	-8.8719997	64.948997	35.868999
406	18	9	-0.45672101	-8.1630001	64.828003	37.143002
407	18	10	0.33451599	-8.5740004	57.349998	34.672001
408	18	5	0.070556998	-7.6440001	58.987	33.285999
409	18	5	0.070556998	-9.2639999	59.301998	32.553001
410	18	11	0.098164998	-8.5200005	59.737999	35.519001
411	18	11	0.098164998	-10.142	60.034	34.783001
412	18	11	0.096672997	-9.1289997	61.730999	33.235001
413	18	11	0.096672997	-7.506	61.433998	33.971001
414	18	11	0.096672997	-8.3879995	62.158001	36.201
415	18	11	0.096672997	-10.007	62.472	35.462002
416	18	11	0.098164998	-8.9099998	64.124001	33.875
417	18	11	0.098164998	-7.348	63.882999	34.726002
418	18	5	0.070556998	-9.9689999	64.903	36.046001
419	18	5	0.070556998	-8.6479998	65.946999	35.435001
420	18	10	0.33451599	-8.4919996	63.970001	37.639999
421	10	1	0.79207802	-7.1199999	64.727997	36.959999
422	10	2	-0.57313597	-6.3039999	64.934998	37.896999
423	10	3	-0.48181799	-6.6799998	64.376999	35.68
424	10	4	0.089959003	-5.3060002	64.181	35.348999
425	10	5	0.113846	-4.6960001	65.015999	35.758999
426	10	5	0.113846	-5.2080002	64.199997	34.242001
427	10	4	0.14999001	-4.8070002	62.827999	35.877998
428	10	5	0.103803	-4.8979998	62.823002	36.988998
429	10	6	-0.69444197	-5.5960002	61.804001	35.331001
430	10	7	0.41915101	-5.4660001	61.002998	35.904999
431	10	4	0.054779001	-3.336	62.601002	35.507
432	10	5	0.10243	-3.214	62.659	34.403
433	10	5	0.10243	-3.027	61.59	35.851002
434	10	3	-0.39509699	-2.516	63.582001	36.139
435	10	1	0.16125999	-1.122	63.658001	36.002998
436	10	1	-0.34470999	-0.44400001	64.68	36.675999
437	10	8	0.21857899	-0.99800003	65.387001	37.280998
438	10	1	-0.34470999	0.94499999	64.800003	36.573002
439	10	8	0.21857899	1.436	65.602997	37.105999
440	10	1	0.162058	1.679	63.889999	35.790001
441	10	3	-0.40580601	3.073	63.966	35.653999
442	10	4	0.093850002	3.8929999	64.945	36.286999
443	10	5	0.093061998	3.579	65.954002	35.945
444	10	5	0.093061998	3.7679999	64.889	37.390999
445	10	4	0.174444	5.369	64.718002	35.919998
446	10	5	0.114396	5.473	64.675003	34.813
447	10	3	-0.491815	6.1630001	65.792999	36.425999
448	10	1	0.78820801	6.2189999	67.058998	35.834
449	10	2	-0.58242202	5.5890002	67.311996	34.771999
450	10	4	0.093557999	5.902	63.403	36.509998
451	10	5	0.104254	7	63.334	36.339001
452	10	5	0.104254	5.737	63.388	37.609001
453	10	6	-0.67234498	5.2620001	62.292999	35.938999
454	10	7	0.39939401	5.631	62.191002	35.023998
455	10	1	-0.34470999	1.001	62.868	35.117001
456	10	8	0.21857899	1.5549999	62.160999	34.512001
457	10	1	-0.34470999	-0.38800001	62.748001	35.220001
458	10	8	0.21857899	-0.88	61.945	34.687
459	19	9	-0.45796299	6.8099999	67.819	36.285
460	19	4	0.029974001	6.217	69.107002	35.938
461	19	4	-0.140571	6.9590001	70.238998	36.653
462	19	4	-0.138587	6.3379998	71.600998	36.323002
463	19	4	-0.138587	7.0830002	72.734001	37.040001
464	19	4	-0.140571	6.467	74.098999	36.698002
465	19	4	0.029974001	7.0929999	75.249001	37.506001
466	19	9	-0.45796299	8.4820004	75.509003	37.127998
467	19	10	0.33451599	7.7550001	67.763	35.838001
468	19	5	0.070556998	6.263	69.258003	34.835999
469	19	5	0.070556998	5.1490002	69.111	36.250999
470	19	11	0.098164998	8.026	70.232002	36.339001
471	19	11	0.098164998	6.914	70.067001	37.750999
472	19	11	0.096672997	5.2709999	71.605003	36.637001
473	19	11	0.096672997	6.3839998	71.769997	35.223999
474	19	11	0.096672997	8.1490002	72.718002	36.727001
475	19	11	0.096672997	7.0310001	72.569	38.139
476	19	11	0.098164998	5.3790002	74.071999	36.929001
477	19	11	0.098164998	6.5749998	74.301003	35.610001
478	19	5	0.070556998	7.0380001	75.027	38.594002
479	19	5	0.070556998	6.5009999	76.171997	37.326
480	19	10	0.33451599	9.0810003	74.712997	37.444
481	3	9	-0.45672101	8.2840004	1.477	-0.11
482	3	4	0.029974001	8.9320002	0.65600002	0.90799999
483	3	4	-0.140571	10.452	0.81300002	0.82300001
484	3	4	-0.13865399	11.157	-0.059	1.868
485	3	4	-0.137172	12.68	0.098999999	1.7819999
486	3	4	-0.151088	13.383	-0.76599997	2.8380001
487	3	4	0.036485001	14.915	-0.745	2.694
488	3	9	-0.96398199	15.492	0.55699998	3.027
489	3	10	0.33451599	8.4040003	2.4820001	0.156
490	3	5	0.070556998	8.573	0.95599997	1.918
491	3	5	0.070556998	8.6619997	-0.41	0.74000001
492	3	11	0.098164998	10.719	1.88	0.991
493	3	11	0.098164998	10.792	0.52100003	-0.19499999
494	3	11	0.096672997	10.888	-1.125	1.699
495	3	11	0.096672997	10.814	0.235	2.885
496	3	11	0.098235004	12.939	1.168	1.944
497	3	11	0.098235004	13.023	-0.20100001	0.76800001
498	3	11	0.105836	13.044	-1.819	2.7249999
499	3	11	0.105836	13.096	-0.42699999	3.8570001
500	3	5	0.099205002	15.207	-1.03	1.66
501	3	5	0.099205002	15.346	-1.506	3.3800001
502	3	10	0.39818901	15.104	0.88599998	3.941
503	3	10	0.39818901	15.228	1.25	2.2909999
504	2	1	0.78820801	8.5539999	75.580002	36.050999
505	2	2	-0.58242202	8.8380003	74.552002	35.380001
506	2	3	-0.491815	8.3409996	76.815002	35.43
507	2	4	0.174444	8.3739996	77.002998	34.014
508	2	5	0.114396	9.2580004	76.472	33.598999
509	2	4	0.093557999	8.5539999	78.498001	33.709999
510	2	5	0.104254	9.5089998	78.858002	34.155998
511	2	5	0.104254	8.6300001	78.651001	32.612
512	2	6	-0.67234498	7.474	79.25	34.196999
513	2	7	0.39939401	7.6230001	79.367996	35.171001
514	2	4	0.093850002	7.0869999	76.444	33.375999
515	2	5	0.093061998	6.947	75.372002	33.627998
516	2	5	0.093061998	6.21	76.981003	33.793999
517	2	3	-0.40580601	7.0900002	76.621002	31.959
518	2	1	0.162058	7.8579998	75.882004	31.045
519	2	1	-0.34470999	7.849	76.278999	29.702999
520	2	8	0.21857899	7.2620001	77.137001	29.399
521	2	1	-0.340675	8.5950003	75.583	28.747999
522	2	8	0.21857899	8.566	75.919998	27.721001
523	2	1	0.15414099	9.3640003	74.467003	29.125
524	2	3	-0.41044599	10.13	73.734001	28.207001
525	2	4	0.134129	10.215	74.027	26.813999
526	2	5	0.094532996	10.627	75.050003	26.674999
527	2	5	0.094532996	9.2019997	73.969002	26.358
528	2	4	0.202921	11.141	73.016998	26.136
529	2	5	0.169193	12.146	73.044998	26.613001
530	2	3	-0.38637999	10.602	71.705002	26.249001
531	2	1	0.80852002	10.427	71.185997	24.989
532	2	2	-0.38286799	9.9700003	70.036003	24.764
533	2	3	-0.38712499	10.805	72.064003	24.002001
534	2	4	0.167501	11.268	73.264	24.607
535	2	5	0.15111201	12.328	73.438004	24.325001
536	2	5	0.15111201	10.647	74.117996	24.259001
537	2	1	-0.340675	9.3710003	74.066002	30.466
538	2	8	0.21857899	9.9560003	73.207001	30.768
539	2	1	-0.34470999	8.625	74.762001	31.421
540	2	8	0.21857899	8.651	74.416	32.444

Bonds

1	1	1	2
2	2	1	3
3	3	1	481
4	4	3	4
5	5	4	5
6	5	4	6
7	6	4	7
8	5	7	8
9	7	7	9
10	6	7	11
11	8	9	10
12	5	11	12
13	5	11	13
14	4	11	14
15	9	14	15
16	10	15	16
17	10	15	37
18	11	16	17
19	10	16	18
20	11	18	19
21	10	18	20
22	9	20	21
23	10	20	35
24	4	21	22
25	5	22	23
26	5	22	24
27	6	22	25
28	5	25	26
29	4	25	27
30	6	25	30
31	2	27	28
32	1	28	29
33	3	28	39
34	5	30	31
35	5	30	32
36	7	30	33
37	8	33	34
38	11	35	36
39	10	35	37
40	11	37	38
41	12	39	40
42	13	39	47
43	6	40	41
44	5	40	48
45	5	40	49
46	6	41	42
47	5	41	50
48	5	41	51
49	6	42	43
50	5	42	52
51	5	42	53
52	6	43	44
53	5	43	54
54	5	43	55
55	6	44	45
56	5	44	56
57	5	44	57
58	12	45	46
59	5	45	58
60	5	45	59
61	13	46	60
62	3	46	61
63	1	61	62
64	2	61	63
65	4	63	64
66	5	64	65
67	5	64	66
68	6	64	67
69	5	67	68
70	7	67	69
71	6	67	71
72	8	69	70
73	5	71	72
74	5	71	73
75	4	71	74
76	9	74	75
77	10	75	76
78	10	75	97
79	11	76	77
80	10	76	78
81	11	78	79
82	10	78	80
83	9	80	81
84	10	80	95
85	4	81	82
86	5	82	83
87	5	82	84
88	6	82	85
89	5	85	86
90	4	85	87
91	6	85	90
92	2	87	88
93	1	88	89
94	3	88	99
95	5	90	91
96	5	90	92
97	7	90	93
98	8	93	94
99	11	95	96
100	10	95	97
101	11	97	98
102	12	99	100
103	13	99	107
104	6	100	101
105	5	100	108
106	5	100	109
107	6	101	102
108	5	101	110
109	5	101	111
110	6	102	103
111	5	102	112
112	5	102	113
113	6	103	104
114	5	103	114
115	5	103	115
116	6	104	105
117	5	104	116
118	5	104	117
119	12	105	106
120	5	105	118
121	5	105	119
122	13	106	120
123	3	106	121
124	1	121	122
125	2	121	123
126	4	123	124
127	5	124	125
128	5	124	126
129	6	124	127
130	5	127	128
131	7	127	129
132	6	127	131
133	8	129	130
134	5	131	132
135	5	131	133
136	4	131	134
137	9	134	135
138	10	135	136
139	10	135	157
140	11	136	137
141	10	136	138
142	11	138	139
143	10	138	140
144	9	140	141
145	10	140	155
146	4	141	142
147	5	142	143
148	5	142	144
149	6	142	145
150	5	145	146
151	4	145	147
152	6	145	150
153	2	147	148
154	1	148	149
155	3	148	159
156	5	150	151
157	5	150	152
158	7	150	153
159	8	153	154
160	11	155	156
161	10	155	157
162	11	157	158
163	12	159	160
164	13	159	167
165	6	160	161
166	5	160	168
167	5	160	169
168	6	161	162
169	5	161	170
170	5	161	171
171	6	162	163
172	5	162	172
173	5	162	173
174	6	163	164
175	5	163	174
176	5	163	175
177	6	164	165
178	5	164	176
179	5	164	177
180	12	165	166
181	5	165	178
182	5	165	179
183	13	166	180
184	3	166	181
185	1	181	182
186	2	181	183
187	4	183	184
188	5	184	185
189	5	184	186
190	6	184	187
191	5	187	188
192	7	187	189
193	6	187	191
194	8	189	190
195	5	191	192
196	5	191	193
197	4	191	194
198	9	194	195
199	10	195	196