Title

1134 atoms
1134 bonds
2115 angles
4188 dihedrals
267 impropers

10 atom types
12 bond types
8 angle types
44 dihedral types
3 improper types
-7.102000237 92.89799976 xlo xhi
-5.485000134 94.51499987 ylo yhi
-67.49299622 32.50700378 zlo zhi
0.0 0.0 0.0 xy xz yz

Masses

1	12.01078
2	15.99943
3	15.99943
4	12.01078
5	1.007947
6	15.99943
7	1.007947
8	1.007947
9	14.00672
10	1.007947


Pair Coeffs

1	0.086879315	3.4806469
2	0.2102061	3.0398122
3	0.16846514	3.0251065
4	0.10884061	3.3795318
5	0.016409246	2.5832257
6	0.20947353	2.99716
7	1.2326e-05	0.53453923
8	0.015779483	2.6445434
9	0.16769152	3.206876
10	0.014090815	1.1034277

Bond Coeffs

1 harmonic	582.698766451	1.225198386222
2 harmonic	301.15400723785	1.345741232799
3 harmonic	492.76746816345	1.381897776683
4 harmonic	366.7408841747	1.425895053732
5 harmonic	370.04670688625	1.093899492634
6 harmonic	264.62148576755	1.52190126495
7 harmonic	329.96998057905	1.427343958716
8 harmonic	543.5267831885	0.9716763312559
9 harmonic	505.144496193	1.019481865027
10 harmonic	352.0565580496	1.450098586273
11 harmonic	329.44145381095	1.523435958334
12 harmonic	366.34047229585	1.464762957261


Angle Coeffs

1 harmonic	65.09061609600001	110.3538806181
2 harmonic	63.44422595415	115.5071327674
3 harmonic	55.42182150775	117.3465570514
4 harmonic	201.41175231035	127.4691416191
5 harmonic	57.8982893754	126.8062420451
6 harmonic	53.20531626545	116.5475862634
7 harmonic	48.776492647595	115.6030999533
8 harmonic	94.53012429075	110.92021963


Dihedral Coeffs

1 fourier 1	0.0473758381877	3	0
2 fourier 1	0.1918272375143	3	0
3 fourier 1	0.9202179876409	1	180
4 fourier 1	0.182238503271	2	0
5 fourier 1	0.02972342374561	3	0
6 fourier 1	-0.1488678166443	4	180
7 fourier 1	-0.1230328948768	3	180
8 fourier 1	0.2939295466901	2	0
9 fourier 1	-0.3024127022865	1	0
10 fourier 1	1.163809172478	2	180
11 fourier 1	0.1679186987369	1	180
12 fourier 1	0.4860993122944	2	180
13 fourier 1	0.8916986138746	1	0
14 fourier 1	1.809047390003	2	180
15 fourier 1	-0.04816277792592	1	0
16 fourier 1	0.1115525666802	3	0
17 fourier 1	0.3432490222662	1	0
18 fourier 1	-0.0309670556842	3	0
19 fourier 1	0.4598191477945	2	0
20 fourier 1	0.1155372516788	3	0
21 fourier 1	2.779853741805	2	180
22 fourier 1	0.3445382149273	3	0
23 fourier 1	0.1364556373303	1	0
24 fourier 1	0.1040663847541	3	0
25 fourier 1	0.1911926717192	3	0
26 fourier 1	0.4552156463534	3	0
27 fourier 1	-0.03687743385131	2	180
28 fourier 1	0.3026390167484	3	0
29 fourier 1	0.09223874044423	3	0
30 fourier 1	0.3159935921949	2	180
31 fourier 1	0.3247796806857	1	180
32 fourier 1	3.101948770557	2	180
33 fourier 1	-0.4252153282372	1	0
34 fourier 1	0.02664938770063	3	0
35 fourier 1	-0.04561822763521	4	0
36 fourier 1	0.1536091026885	2	0
37 fourier 1	2.348375642009	2	180
38 fourier 1	1.256156174911	1	0
39 fourier 1	0.4541676554336	1	0
40 fourier 1	0.1489710476446	2	0
41 fourier 1	0.02960027280666	3	180
42 fourier 1	-0.3703352413219	2	0
43 fourier 1	0.2036670163956	3	0
44 fourier 1	1.659715194912	2	180


Improper Coeffs

1 0.3333333333333333	-1	2
2 3.5	-1	2
3 0.3666666666666667	-1	2


Atoms

1	11	1	0.78241903	6.5500002	-2.0380001	-2.776
2	11	2	-0.61834502	7.0450001	-0.87900001	-2.7950001
3	11	3	-0.49145299	5.369	-2.3080001	-2.0780001
4	11	4	0.087569997	4.6630001	-1.322	-1.324
5	11	5	0.098238997	3.6300001	-1.689	-1.15
6	11	5	0.098238997	4.5879998	-0.37900001	-1.9119999
7	11	4	0.134186	5.3540001	-1.066	0.028999999
8	11	5	0.091613002	6.4130001	-0.75999999	-0.15099999
9	11	6	-0.70444697	5.322	-2.2290001	0.81599998
10	11	7	0.40582401	6.0149999	-2.845	0.45500001
11	11	4	0.042591002	4.6669998	0.079000004	0.78299999
12	11	5	0.087909997	5.2379999	0.285	1.7179999
13	11	5	0.087909997	4.7059999	0.99400002	0.142
14	11	3	-0.48129699	3.345	-0.296	1.118
15	11	4	0.077799	2.5669999	0.85600001	1.369
16	11	5	0.075883999	3.0610001	1.518	2.118
17	11	5	0.075883999	2.4130001	1.416	0.419
18	11	4	-0.159036	1.207	0.43099999	1.9219999
19	11	8	0.091150001	1.342	0.037	2.954
20	11	8	0.091150001	0.80400002	-0.38299999	1.2820001
21	11	4	-0.139044	0.21699999	1.608	1.928
22	11	8	0.086009003	0.699	2.493	2.4029999
23	11	8	0.086009003	-0.028000001	1.893	0.87900001
24	11	4	-0.139044	-1.076	1.3	2.7049999
25	11	8	0.086009003	-1.725	2.204	2.6819999
26	11	8	0.086009003	-0.81800002	1.115	3.7709999
27	11	4	-0.159036	-1.88	0.096000001	2.177
28	11	8	0.091150001	-1.295	-0.83999997	2.3010001
29	11	8	0.091150001	-2.7920001	-0.0060000001	2.803
30	11	4	0.077774003	-2.3050001	0.25099999	0.71200001
31	11	5	0.075883999	-2.7220001	1.2720001	0.53799999
32	11	5	0.075883999	-1.4070001	0.16500001	0.064999998
33	11	3	-0.483439	-3.1830001	-0.80299997	0.35499999
34	11	4	0.082570001	-4.5279999	-0.361	0.285
35	11	5	0.08636	-5.1820002	-1.237	0.48699999
36	11	5	0.08636	-4.7709999	0.39399999	1.0700001
37	11	4	0.154744	-4.8429999	0.178	-1.12
38	11	5	0.099308997	-4.197	1.064	-1.3050001
39	11	3	-0.498303	-4.5609999	-0.84600002	-2.079
40	11	1	0.77750897	-4.2010002	-0.59200001	-3.4070001
41	11	2	-0.62689799	-4.0599999	0.58600003	-3.835
42	11	4	0.090825997	-6.3179998	0.60299999	-1.215
43	11	5	0.087518997	-6.9720001	-0.28600001	-1.082
44	11	5	0.087518997	-6.5609999	1.33	-0.40599999
45	11	6	-0.682028	-6.5889997	1.1720001	-2.467
46	11	7	0.38502601	-6.21	2.0910001	-2.4519999
47	12	9	-0.46924001	-4.0339999	-1.4119999	-4.0640001
48	12	10	0.32378301	-4.9639997	-1.8099999	-4.3330002
49	12	4	0.024065999	-3.352	-0.93300003	-5.2659998
50	12	5	0.053862002	-3.3169999	-1.7460001	-6.0219998
51	12	5	0.053862002	-2.303	-0.68599999	-4.9980001
52	12	4	-0.145319	-4.0170002	0.31999999	-5.8660002
53	12	8	0.085978001	-3.3640001	0.67500001	-6.6900001
54	12	8	0.085978001	-4.066	1.127	-5.1040001
55	12	4	-0.143172	-5.4260001	0.035	-6.4159999
56	12	8	0.084835	-5.4029999	-0.84299999	-7.099
57	12	8	0.084835	-6.099	-0.212	-5.5669999
58	12	4	-0.143172	-6.0250001	1.244	-7.1529999
59	12	8	0.084835	-5.9920001	2.1400001	-6.493
60	12	8	0.084835	-7.1020002	1.024	-7.329
61	12	4	-0.144596	-5.3559999	1.516	-8.5179996
62	12	8	0.085978001	-6.1459999	1.584	-9.2950001
63	12	8	0.085978001	-4.6890001	0.676	-8.8120003
64	12	4	0.01684	-4.552	2.822	-8.5139999
65	12	5	0.052588001	-3.875	2.8380001	-7.632
66	12	5	0.052588001	-5.2350001	3.6949999	-8.4329996
67	12	9	-0.490502	-3.743	2.934	-9.7250004
68	12	10	0.32024699	-2.704	2.8789999	-9.6300001
69	12	1	0.73308903	-4.309	3.1789999	-11.021
70	12	2	-0.73806798	-5.5549998	3.3069999	-11.157
71	12	4	-0.225348	-3.4170001	3.256	-12.233
72	12	8	0.138721	-2.474	2.71	-12.016
73	12	8	0.138721	-3.9130001	2.7030001	-13.061
74	12	4	0.162626	-3.0799999	4.7010002	-12.713
75	12	6	-0.67544502	-2.3610001	4.6040001	-13.925
76	12	7	0.40184501	-1.587	3.997	-13.785
77	12	1	0.69218302	-2.257	5.4440002	-11.662
78	12	2	-0.72938001	-2.7260001	5.5809999	-10.498
79	12	9	-0.49302301	-0.99000001	6.0450001	-11.983
80	12	10	0.31812501	-0.55299997	5.901	-12.921
81	12	4	0.017425001	-0.28200001	6.9120002	-11.041
82	12	5	0.052588001	-0.226	6.4190001	-10.046
83	12	5	0.052588001	0.75700003	7.0739999	-11.403
84	12	4	-0.144596	-0.99199998	8.2639999	-10.929
85	12	8	0.085978001	-2.0250001	8.1140003	-10.55
86	12	8	0.085978001	-1.052	8.7119999	-11.945
87	12	4	-0.140679	-0.23800001	9.2180004	-9.9919996
88	12	8	0.084835	0.74299997	9.4940004	-10.437
89	12	8	0.084835	-0.030999999	8.6929998	-9.0340004
90	12	4	-0.146391	-1.0470001	10.486	-9.6590004
91	12	8	0.084955998	-1.9909999	10.188	-9.1540003
92	12	8	0.084955998	-0.47	11.095	-8.9289999
93	12	4	-0.139107	-1.3989999	11.366	-10.871
94	12	8	0.074683003	-2.0179999	12.217	-10.509
95	12	8	0.074683003	-2.02	10.8	-11.599
96	12	4	-0.126349	-0.167	11.937	-11.571
97	12	8	0.050662	0.495	12.445	-10.839
98	12	8	0.050662	-0.48899999	12.68	-12.33
99	12	8	0.050662	0.39500001	11.137	-12.093
100	12	4	-0.225348	-4.3839998	5.4920001	-13.003
101	12	8	0.138721	-4.901	5.7639999	-12.056
102	12	8	0.138721	-5.0819998	4.8400002	-13.57
103	12	1	0.73308903	-4.145	6.7530003	-13.791
104	12	2	-0.73806798	-3.4100001	7.6610003	-13.317
105	12	9	-0.490502	-4.7789998	6.934	-15.066
106	12	10	0.32024699	-5.4689999	6.2249999	-15.402
107	12	4	0.01684	-4.52	8.0939999	-15.917
108	12	5	0.052588001	-5.3649998	8.2089996	-16.631001
109	12	5	0.052588001	-4.4689999	9.0170002	-15.299
110	12	4	-0.144596	-3.22	7.895	-16.702
111	12	8	0.085978001	-2.365	7.8049998	-15.993
112	12	8	0.085978001	-3.302	6.9489999	-17.280001
113	12	4	-0.143172	-2.967	9.0690002	-17.660999
114	12	8	0.084835	-3.8199999	9.1780005	-18.368999
115	12	8	0.084835	-2.904	10.007	-17.065001
116	12	4	-0.143172	-1.654	8.9160004	-18.447001
117	12	8	0.084835	-1.432	9.8929996	-18.934
118	12	8	0.084835	-0.81800002	8.6949997	-17.747
119	12	4	-0.145319	-1.74	7.8299999	-19.534
120	12	8	0.085978001	-2.609	8.04	-20.197001
121	12	8	0.085978001	-1.891	6.8319998	-19.073
122	12	4	0.024065999	-0.47499999	7.79	-20.398001
123	12	5	0.053862002	-0.62900001	7.0770001	-21.239
124	12	5	0.053862002	-0.285	8.7950001	-20.834
125	12	9	-0.468018	0.67900002	7.3730001	-19.603001
126	12	10	0.32378301	1.523	7.4299998	-20.215
127	4	1	0.78241903	0.55900002	6.3429999	-19.362
128	4	2	-0.61834502	0.89300001	5.46	-20.197001
129	4	3	-0.49145299	0.039999999	5.994	-18.111
130	4	4	0.087569997	-0.176	4.6430001	-17.702
131	4	5	0.098238997	-0.27599999	4.6240001	-16.597
132	4	5	0.098238997	0.708	4.0209999	-17.969
133	4	4	0.134186	-1.455	4.073	-18.344999
134	4	5	0.091613002	-1.377	4.1550002	-19.455999
135	4	6	-0.70444697	-2.5809999	4.7839999	-17.893
136	4	7	0.40582401	-2.592	5.651	-18.379
137	4	4	0.042591002	-1.62	2.5880001	-18.004999
138	4	5	0.087909997	-2.51	2.1930001	-18.546
139	4	5	0.087909997	-0.71700001	2.0420001	-18.374001
140	4	3	-0.48129699	-1.816	2.4359999	-16.611
141	4	4	0.077799	-1.5	1.115	-16.222
142	4	5	0.075883999	-2.046	0.37099999	-16.848
143	4	5	0.075883999	-0.40200001	0.95099998	-16.319
144	4	4	-0.159036	-1.9070001	0.91299999	-14.763
145	4	8	0.091150001	-3.0179999	0.89300001	-14.696
146	4	8	0.091150001	-1.5320001	1.773	-14.168
147	4	4	-0.139044	-1.318	-0.391	-14.197
148	4	8	0.086009003	-1.5320001	-1.228	-14.901
149	4	8	0.086009003	-0.20999999	-0.29800001	-14.127
150	4	4	-0.139044	-1.902	-0.76599997	-12.823
151	4	8	0.086009003	-1.4449999	-1.7260001	-12.496
152	4	8	0.086009003	-2.993	-0.94999999	-12.936
153	4	4	-0.159036	-1.6930001	0.287	-11.718
154	4	8	0.091150001	-2.2420001	1.22	-11.968
155	4	8	0.091150001	-2.1359999	-0.11	-10.78
156	4	4	0.077774003	-0.215	0.61000001	-11.466
157	4	5	0.075883999	0.38	-0.333	-11.405
158	4	5	0.075883999	0.184	1.177	-12.333
159	4	3	-0.483439	-0.096000001	1.444	-10.326
160	4	4	0.082570001	0.37	0.72399998	-9.198
161	4	5	0.08636	-0.003	1.244	-8.2889996
162	4	5	0.08636	-0.041000001	-0.31200001	-9.1529999
163	4	4	0.154744	1.9070001	0.71399999	-9.165
164	4	5	0.099308997	2.2690001	0.176	-10.07
165	4	3	-0.498303	2.3770001	2.0650001	-9.1750002
166	4	1	0.77750897	3.619	2.4549999	-9.6859999
167	4	2	-0.62689799	4.4000001	1.622	-10.221
168	4	4	0.090825997	2.415	-0.016000001	-7.9110003
169	4	5	0.087518997	2.0999999	0.542	-7.0009999
170	4	5	0.087518997	1.971	-1.038	-7.855
171	4	6	-0.682028	3.8140001	-0.101	-7.9190001
172	4	7	0.38502601	4.053	-0.81599998	-8.5670004
173	13	9	-0.46924001	3.904	3.4790001	-9.6309996
174	13	10	0.32378301	4.1820002	3.688	-8.6429996
175	13	4	0.024065999	5.0500002	3.707	-10.509
176	13	5	0.053862002	5.4530001	4.7280002	-10.337
177	13	5	0.053862002	4.698	3.664	-11.563
178	13	4	-0.145319	6.1630001	2.6600001	-10.317
179	13	8	0.085978001	6.9250002	2.842	-11.104
180	13	8	0.085978001	5.756	1.638	-10.473
181	13	4	-0.143172	6.8270001	2.7509999	-8.9309998
182	13	8	0.084835	7.1420002	3.7979999	-8.7229996
183	13	8	0.084835	6.0840001	2.4590001	-8.158
184	13	4	-0.143172	8.0380001	1.813	-8.7959995
185	13	8	0.084835	7.7410002	0.77499998	-9.066
186	13	8	0.084835	8.3199997	1.789	-7.7200003
187	13	4	-0.144596	9.2630005	2.2839999	-9.6090002
188	13	8	0.085978001	10.146	2.3169999	-8.9359999
189	13	8	0.085978001	9.1160002	3.3169999	-9.9960003
190	13	4	0.01684	9.5720005	1.345	-10.782
191	13	5	0.052588001	8.6429996	1.1670001	-11.368
192	13	5	0.052588001	9.9289999	0.36199999	-10.406
193	13	9	-0.490502	10.574	1.934	-11.666
194	13	10	0.32024699	10.277	2.221	-12.625
195	13	1	0.73308903	11.954	2.073	-11.296
196	13	2	-0.73806798	12.353	1.6819999	-10.167
197	13	4	-0.225348	12.93	2.7160001	-12.247
198	13	8	0.138721	12.366	3.3629999	-12.953
199	13	8	0.138721	13.587	3.3940001	-11.66
200	13	4	0.162626	13.817	1.7179999	-13.056
201	13	6	-0.67544502	14.764	2.4679999	-13.789
202	13	7	0.40184501	14.279	3.154	-14.319
203	13	1	0.69218302	12.961	0.87199998	-13.997
204	13	2	-0.72938001	12.026	0.17299999	-13.517
205	13	9	-0.49302301	13.234	0.80500001	-15.408
206	13	10	0.31812501	13.965	1.414	-15.84
207	13	4	0.017425001	12.544	-0.139	-16.287001
208	13	5	0.052588001	11.447	-0.077	-16.117001
209	13	5	0.052588001	12.743	0.13600001	-17.346001
210	13	4	-0.144596	13.046	-1.563	-16.035
211	13	8	0.085978001	12.834	-1.8529999	-14.984
212	13	8	0.085978001	14.147	-1.5780001	-16.188
213	13	4	-0.140679	12.382	-2.5699999	-16.986
214	13	8	0.084835	12.707	-2.378	-18.032
215	13	8	0.084835	11.28	-2.425	-16.950001
216	13	4	-0.146391	12.67	-4.0320001	-16.598
217	13	8	0.084955998	12.275	-4.2179999	-15.575
218	13	8	0.084955998	12.107	-4.6999998	-17.285999
219	13	4	-0.139107	14.156	-4.4289999	-16.625
220	13	8	0.074683003	14.236	-5.4850001	-16.283001
221	13	8	0.074683003	14.74	-3.8099999	-15.909
222	13	4	-0.126349	14.774	-4.3309999	-18.018999
223	13	8	0.050662	14.158	-4.8889999	-18.756001
224	13	8	0.050662	15.79	-4.7750001	-18.000999
225	13	8	0.050662	14.868	-3.2720001	-18.334
226	13	4	-0.225348	14.599	0.787	-12.091
227	13	8	0.138721	13.921	0.041000001	-11.623
228	13	8	0.138721	15.02	1.398	-11.264
229	13	1	0.73308903	15.722	0.046999998	-12.77
230	13	2	-0.73806798	15.47	-0.74299997	-13.719
231	13	9	-0.490502	17.072001	0.21600001	-12.314
232	13	10	0.32024699	17.259001	0.78899997	-11.46
233	13	4	0.01684	18.212999	-0.405	-12.983
234	13	5	0.052588001	19.065001	-0.45300001	-12.269
235	13	5	0.052588001	17.961	-1.446	-13.281
236	13	4	-0.144596	18.625999	0.42199999	-14.204
237	13	8	0.085978001	17.785999	0.45199999	-14.936
238	13	8	0.085978001	18.84	1.459	-13.868
239	13	4	-0.143172	19.872	-0.17200001	-14.881
240	13	8	0.084835	20.716999	-0.21799999	-14.156
241	13	8	0.084835	19.643	-1.214	-15.195
242	13	4	-0.143172	20.299	0.61900002	-16.129
243	13	8	0.084835	21.049	0.0070000002	-16.681
244	13	8	0.084835	19.424999	0.764	-16.802
245	13	4	-0.145319	20.931999	1.977	-15.779
246	13	8	0.085978001	21.774	1.8199999	-15.068
247	13	8	0.085978001	20.186001	2.6370001	-15.289
248	13	4	0.024065999	21.478001	2.687	-17.021999
249	13	5	0.053862002	22.028999	3.602	-16.708
250	13	5	0.053862002	22.197001	2.0220001	-17.549
251	13	9	-0.468018	20.391001	3.0510001	-17.927999
252	13	10	0.32378301	20.818001	3.464	-18.787001
253	5	1	0.78241903	19.83	3.8329999	-17.473
254	5	2	-0.61834502	20.226	5.026	-17.566999
255	5	3	-0.49145299	18.653999	3.5139999	-16.785999
256	5	4	0.087569997	17.844	4.4879999	-16.127001
257	5	5	0.098238997	16.841	4.0469999	-15.951
258	5	5	0.098238997	17.709	5.3759999	-16.785999
259	5	4	0.134186	18.469	4.901	-14.78
260	5	5	0.091613002	19.503	5.283	-14.956
261	5	6	-0.70444697	18.51	3.799	-13.909
262	5	7	0.40582401	19.263	3.221	-14.205
263	5	4	0.042591002	17.665001	6.0339999	-14.132
264	5	5	0.087909997	18.187	6.3559999	-13.202
265	5	5	0.087909997	17.646999	6.9000001	-14.839
266	5	3	-0.48129699	16.368999	5.572	-13.802999
267	5	4	0.077799	15.49	6.6680002	-13.658
268	5	5	0.075883999	15.903	7.4239998	-12.95
269	5	5	0.075883999	15.319	7.1430001	-14.652
270	5	4	-0.159036	14.153	6.1690001	-13.11
271	5	8	0.091150001	14.289	5.8649998	-12.048
272	5	8	0.091150001	13.84	5.2789998	-13.696
273	5	4	-0.139044	13.068	7.2540002	-13.217
274	5	8	0.086009003	13.459	8.21	-12.798
275	5	8	0.086009003	12.833	7.4400001	-14.29
276	5	4	-0.139044	11.782	6.8940001	-12.451
277	5	8	0.086009003	11.061	7.7340002	-12.559
278	5	8	0.086009003	12.021	6.8099999	-11.369
279	5	4	-0.159036	11.099	5.5900002	-12.907
280	5	8	0.091150001	11.757	4.7189999	-12.699
281	5	8	0.091150001	10.179	5.4559999	-12.298
282	5	4	0.077774003	10.709	5.5999999	-14.39
283	5	5	0.075883999	10.213	6.566	-14.651
284	5	5	0.075883999	11.631	5.5440001	-15.006
285	5	3	-0.483439	9.9329996	4.4520001	-14.688
286	5	4	0.082570001	8.559	4.77	-14.824
287	5	5	0.08636	7.9749999	3.858	-14.574
288	5	5	0.08636	8.2299995	5.5570002	-14.105
289	5	4	0.154744	8.2440004	5.1750002	-16.273001
290	5	5	0.099308997	8.8190002	6.098	-16.509001
291	5	3	-0.498303	8.6409998	4.112	-17.146
292	5	1	0.77750897	9.0200005	4.2989998	-18.48
293	5	2	-0.62689799	9.0749998	5.4499998	-18.990999
294	5	4	0.090825997	6.743	5.4639997	-16.438
295	5	5	0.087518997	6.1609998	4.5339999	-16.254
296	5	5	0.087518997	6.414	6.2249999	-15.692
297	5	6	-0.682028	6.4639997	5.914	-17.736
298	5	7	0.38502601	6.7639999	6.8610001	-17.780001
299	14	9	-0.46924001	9.276	3.45	-19.069
300	14	10	0.32378301	8.3909998	2.9549999	-19.329
301	14	4	0.024065999	9.9519997	3.8970001	-20.285
302	14	5	0.053862002	10.079	3.0369999	-20.976999
303	14	5	0.053862002	10.968	4.2519999	-20.011
304	14	4	-0.145319	9.2030001	5.0409999	-20.995001
305	14	8	0.085978001	9.8500004	5.3899999	-21.827
306	14	8	0.085978001	9.0629997	5.8940001	-20.297001
307	14	4	-0.143172	7.8410001	4.5960002	-21.556999
308	14	8	0.084835	7.96	3.6760001	-22.171
309	14	8	0.084835	7.165	4.355	-20.709
310	14	4	-0.143172	7.1659999	5.6919999	-22.396999
311	14	8	0.084835	7.1030002	6.6339998	-21.806999
312	14	8	0.084835	6.118	5.368	-22.583
313	14	4	-0.144596	7.8530002	5.9200001	-23.761999
314	14	8	0.085978001	7.085	5.8629999	-24.561001
315	14	8	0.085978001	8.5970001	5.1209998	-23.975
316	14	4	0.01684	8.5430002	7.2880001	-23.837
317	14	5	0.052588001	9.1890001	7.4260001	-22.941999
318	14	5	0.052588001	7.7880001	8.1020002	-23.839001
319	14	9	-0.490502	9.3780003	7.3800001	-25.032
320	14	10	0.32024699	10.414	7.4219999	-24.907
321	14	1	0.73308903	8.8339996	7.48	-26.357
322	14	2	-0.73806798	7.5869999	7.4899998	-26.533001
323	14	4	-0.225348	9.7539997	7.5440001	-27.548
324	14	8	0.138721	10.733	7.099	-27.267
325	14	8	0.138721	9.3319998	6.8909998	-28.344
326	14	4	0.162626	9.9829998	8.974	-28.128
327	14	6	-0.67544502	10.745	8.8509998	-29.311001
328	14	7	0.40184501	11.563	8.3249998	-29.105
329	14	1	0.69218302	10.707	9.8599997	-27.115999
330	14	2	-0.72938001	10.192	10.04	-25.976999
331	14	9	-0.49302301	11.929	10.543	-27.448999
332	14	10	0.31812501	12.406	10.369	-28.363001
333	14	4	0.017425001	12.532	11.534	-26.558001
334	14	5	0.052588001	12.599	11.122	-25.527
335	14	5	0.052588001	13.564	11.757	-26.905001
336	14	4	-0.144596	11.708	12.825	-26.566
337	14	8	0.085978001	10.68	12.614	-26.202
338	14	8	0.085978001	11.642	13.19	-27.614
339	14	4	-0.140679	12.35	13.906	-25.684999
340	14	8	0.084835	13.318	14.232	-26.125
341	14	8	0.084835	12.57	13.471	-24.684999
342	14	4	-0.146391	11.427	15.121	-25.469
343	14	8	0.084955998	10.496	14.78	-24.966999
344	14	8	0.084955998	11.927999	15.828	-24.771999
345	14	4	-0.139107	11.04	15.876	-26.753
346	14	8	0.074683003	10.341	16.695	-26.471001
347	14	8	0.074683003	10.493	15.206	-27.451
348	14	4	-0.126349	12.241	16.497999	-27.462999
349	14	8	0.050662	12.835	17.114	-26.754999
350	14	8	0.050662	11.882	17.153	-28.283001
351	14	8	0.050662	12.885	15.713	-27.908001
352	14	4	-0.225348	8.6269999	9.6269999	-28.507999
353	14	8	0.138721	8.0600004	9.9219999	-27.599001
354	14	8	0.138721	8.0050001	8.8780003	-29.042
355	14	1	0.73308903	8.7840004	10.843	-29.384001
356	14	2	-0.73806798	9.4250002	11.843	-28.961
357	14	9	-0.490502	8.177	10.875	-30.684
358	14	10	0.32024699	7.5599999	10.086	-30.983
359	14	4	0.01684	8.3640003	11.987	-31.613001
360	14	5	0.052588001	7.5360003	11.977	-32.355
361	14	5	0.052588001	8.3179998	12.954	-31.066
362	14	4	-0.144596	9.7010002	11.844	-32.348999
363	14	8	0.085978001	10.537	11.88	-31.613001
364	14	8	0.085978001	9.7159996	10.855	-32.855
365	14	4	-0.143172	9.8839998	12.963	-33.387001
366	14	8	0.084835	9.0480003	12.946	-34.122002
367	14	8	0.084835	9.849	13.944	-32.862
368	14	4	-0.143172	11.229	12.866	-34.125999
369	14	8	0.084835	11.384	13.82	-34.68
370	14	8	0.084835	12.059	12.769	-33.389999
371	14	4	-0.145319	11.269	11.7	-35.130001
372	14	8	0.085978001	10.406	11.786	-35.827999
373	14	8	0.085978001	11.187	10.729	-34.598999
374	14	4	0.024065999	12.559	11.705	-35.956001
375	14	5	0.053862002	12.491	10.922	-36.744999
376	14	5	0.053862002	12.677999	12.689	-36.462002
377	14	9	-0.468018	13.718	11.449	-35.104
378	14	10	0.32378301	14.573	11.533	-35.696999
379	6	1	0.78241903	13.677999	10.433	-34.787998
380	6	2	-0.61834502	14.11	9.5229998	-35.546001
381	6	3	-0.49145299	13.151	10.133	-33.528
382	6	4	0.087569997	13.036	8.8009996	-33.023998
383	6	5	0.098238997	12.904	8.8549995	-31.924
384	6	5	0.098238997	13.978	8.2399998	-33.221001
385	6	4	0.134186	11.83	8.0790005	-33.653999
386	6	5	0.091613002	11.936	8.0860004	-34.764999
387	6	6	-0.70444697	10.636	8.7209997	-33.285
388	6	7	0.40582401	10.567	9.5459995	-33.835999
389	6	4	0.042591002	11.78	6.6129999	-33.206001
390	6	5	0.087909997	10.944	6.105	-33.737999
391	6	5	0.087909997	12.737	6.1209998	-33.511002
392	6	3	-0.48129699	11.554	6.5469999	-31.811001
393	6	4	0.077799	11.967	5.2909999	-31.316
394	6	5	0.075883999	11.506	4.4580002	-31.896999
395	6	5	0.075883999	13.078	5.2150002	-31.372
396	6	4	-0.159036	11.534	5.1609998	-29.856001
397	6	8	0.091150001	10.427	5.0510001	-29.815001
398	6	8	0.091150001	11.817	6.0910001	-29.318001
399	6	4	-0.139044	12.212	3.9579999	-29.179001
400	6	8	0.086009003	12.091	3.056	-29.822001
401	6	8	0.086009003	13.306	4.1500001	-29.087999
402	6	4	-0.139044	11.619	3.635	-27.796
403	6	8	0.086009003	12.145	2.744	-27.386
404	6	8	0.086009003	10.551	3.3499999	-27.921
405	6	4	-0.159036	11.704	4.7799997	-26.768
406	6	8	0.091150001	11.087	5.6420002	-27.101
407	6	8	0.091150001	11.267	4.4169998	-25.813999
408	6	4	0.077774003	13.141	5.2470002	-26.504
409	6	5	0.075883999	13.811	4.3660002	-26.357
410	6	5	0.075883999	13.518	5.7810001	-27.400999
411	6	3	-0.483439	13.154	6.1690001	-25.427999
412	6	4	0.082570001	13.643	5.5760002	-24.237
413	6	5	0.08636	13.2	6.1269999	-23.379
414	6	5	0.08636	13.319	4.5149999	-24.124001
415	6	4	0.154744	15.174	5.7010002	-24.166
416	6	5	0.099308997	15.608	5.132	-25.017
417	6	3	-0.498303	15.529	7.0830002	-24.264999
418	6	1	0.77750897	16.75	7.54	-24.774
419	6	2	-0.62689799	17.613001	6.7399998	-25.224001
420	6	4	0.090825997	15.701	5.1110001	-22.848
421	6	5	0.087518997	15.313	5.7049999	-21.990999
422	6	5	0.087518997	15.344	4.0619998	-22.726
423	6	6	-0.682028	17.101999	5.1469998	-22.815001
424	6	7	0.38502601	17.421	4.4089999	-23.400999
425	15	9	-0.46924001	16.945999	8.5860004	-24.789
426	15	10	0.32378301	17.174	8.8889999	-23.813
427	15	4	0.024065999	18.094999	8.8470001	-25.653
428	15	5	0.053862002	18.406	9.9090004	-25.549
429	15	5	0.053862002	17.781	8.6970005	-26.708
430	15	4	-0.145319	19.285999	7.9159999	-25.354
431	15	8	0.085978001	20.054001	8.1049995	-26.132999
432	15	8	0.085978001	18.971001	6.855	-25.443001
433	15	4	-0.143172	19.896	8.165	-23.962999
434	15	8	0.084835	20.115	9.2480001	-23.827
435	15	8	0.084835	19.156	7.868	-23.188999
436	15	4	-0.143172	21.176001	7.348	-23.728001
437	15	8	0.084835	20.976	6.2709999	-23.924999
438	15	8	0.084835	21.426001	7.427	-22.646
439	15	4	-0.144596	22.382999	7.862	-24.542999
440	15	8	0.085978001	23.238001	8.0190001	-23.853001
441	15	8	0.085978001	22.162001	8.8470001	-25.01
442	15	4	0.01684	22.805	6.869	-25.634001
443	15	5	0.052588001	21.914	6.5690002	-26.226999
444	15	5	0.052588001	23.232	5.9510002	-25.176001
445	15	9	-0.490502	23.782	7.4759998	-26.534
446	15	10	0.32024699	23.492001	7.6659999	-27.518999
447	15	1	0.73308903	25.132999	7.7600002	-26.141001
448	15	2	-0.73806798	25.528	7.4889998	-24.976
449	15	4	-0.225348	26.080999	8.4130001	-27.114
450	15	8	0.138721	25.487	8.9560003	-27.881001
451	15	8	0.138721	26.66	9.1859999	-26.563
452	15	4	0.162626	27.073	7.4390001	-27.823
453	15	6	-0.67544502	27.976	8.2119999	-28.586
454	15	7	0.40184501	27.452999	8.8129997	-29.179001
455	15	1	0.69218302	26.322001	6.4559999	-28.718
456	15	2	-0.72938001	25.434	5.7160001	-28.209999
457	15	9	-0.49302301	26.643999	6.309	-30.113001
458	15	10	0.31812501	27.334	6.9460001	-30.570999
459	15	4	0.017425001	26.062	5.2480001	-30.934999
460	15	5	0.052588001	24.959	5.2270002	-30.798
461	15	5	0.052588001	26.27	5.461	-32.007
462	15	4	-0.144596	26.674	3.8940001	-30.563
463	15	8	0.085978001	26.455	3.665	-29.5
464	15	8	0.085978001	27.775999	3.964	-30.688
465	15	4	-0.140679	26.127001	2.7680001	-31.452
466	15	8	0.084835	26.466999	2.9100001	-32.500999
467	15	8	0.084835	25.016001	2.819	-31.455
468	15	4	-0.146391	26.524	1.368	-30.948
469	15	8	0.084955998	26.115	1.224	-29.924
470	15	8	0.084955998	26.041	0.60500002	-31.597
471	15	4	-0.139107	28.039	1.099	-30.908001
472	15	8	0.074683003	28.197001	0.082000002	-30.485001
473	15	8	0.074683003	28.546	1.8169999	-30.226
474	15	4	-0.126349	28.688999	1.148	-32.290001
475	15	8	0.050662	28.146	0.48699999	-32.997002
476	15	8	0.050662	29.738001	0.79500002	-32.213001
477	15	8	0.050662	28.705	2.1849999	-32.681
478	15	4	-0.225348	27.900999	6.652	-26.771
479	15	8	0.138721	27.273001	5.8860002	-26.266001
480	15	8	0.138721	28.242001	7.355	-25.982
481	15	1	0.73308903	29.101999	5.9629998	-27.363001
482	15	2	-0.73806798	28.947001	5.0869999	-28.257
483	15	9	-0.490502	30.417999	6.2810001	-26.888
484	15	10	0.32024699	30.528999	6.928	-26.076
485	15	4	0.01684	31.628	5.7129998	-27.48
486	15	5	0.052588001	32.458	5.7909999	-26.743
487	15	5	0.052588001	31.474001	4.6350002	-27.705
488	15	4	-0.144596	32.007999	6.4809999	-28.75
489	15	8	0.085978001	31.191999	6.3850002	-29.503
490	15	8	0.085978001	32.123001	7.5539999	-28.487
491	15	4	-0.143172	33.32	5.9489999	-29.348
492	15	8	0.084835	34.143002	6.0279999	-28.601
493	15	8	0.084835	33.188999	4.8699999	-29.589001
494	15	4	-0.143172	33.717999	6.6799998	-30.641001
495	15	8	0.084835	34.533001	6.0960002	-31.125999
496	15	8	0.084835	32.855999	6.6989999	-31.344999
497	15	4	-0.145319	34.223999	8.1099997	-30.379
498	15	8	0.085978001	35.053001	8.0780001	-29.636999
499	15	8	0.085978001	33.41	8.7369995	-29.959
500	15	4	0.024065999	34.747002	8.7709999	-31.658001
501	15	5	0.053862002	35.209	9.7510004	-31.400999
502	15	5	0.053862002	35.535	8.1330004	-32.116001
503	15	9	-0.468018	33.661999	8.9729996	-32.616001
504	15	10	0.32378301	34.078999	9.3570004	-33.492001
505	7	1	0.78241903	33.022999	9.7349997	-32.235001
506	7	2	-0.61834502	33.32	10.947001	-32.409
507	7	3	-0.49145299	31.857	9.3669996	-31.556
508	7	4	0.087569997	30.948	10.314	-30.992001
509	7	5	0.098238997	29.981001	9.802	-30.809
510	7	5	0.098238997	30.759001	11.136	-31.719
511	7	4	0.134186	31.493999	10.876	-29.666
512	7	5	0.091613002	32.497002	11.331	-29.844
513	7	6	-0.70444697	31.6	9.8479996	-28.712999
514	7	7	0.40582401	32.407001	9.3170004	-28.945
515	7	4	0.042591002	30.577999	11.98	-29.125
516	7	5	0.087909997	31.041	12.413	-28.209
517	7	5	0.087909997	30.509001	12.786	-29.896
518	7	3	-0.48129699	29.315001	11.433	-28.795
519	7	4	0.077799	28.343	12.458	-28.754999
520	7	5	0.075883999	28.669001	13.296	-28.096001
521	7	5	0.075883999	28.164	12.842	-29.785999
522	7	4	-0.159036	27.035999	11.887	-28.204
523	7	8	0.091150001	27.163	11.674	-27.118999
524	7	8	0.091150001	26.818001	10.932	-28.729
525	7	4	-0.139044	25.868	12.864	-28.42
526	7	8	0.086009003	26.164	13.878	-28.065001
527	7	8	0.086009003	25.652	12.95	-29.509001
528	7	4	-0.139044	24.594	12.451	-27.660999
529	7	8	0.086009003	23.808001	13.216	-27.85
530	7	8	0.086009003	24.805	12.467	-26.57
531	7	4	-0.159036	24.037001	11.063	-28.034
532	7	8	0.091150001	24.757999	10.27	-27.743999
533	7	8	0.091150001	23.113001	10.895	-27.440001
534	7	4	0.077774003	23.694	10.931	-29.523001
535	7	5	0.075883999	23.127001	11.829	-29.868999
536	7	5	0.075883999	24.636	10.91	-30.110001
537	7	3	-0.483439	23.027	9.7019997	-29.752001
538	7	4	0.082570001	21.636	9.8900003	-29.947001
539	7	5	0.08636	21.122999	8.9519997	-29.643
540	7	5	0.08636	21.219	10.696	-29.297001
541	7	4	0.154744	21.333	10.159	-31.43
542	7	5	0.099308997	21.836	11.109	-31.719999
543	7	3	-0.498303	21.844999	9.0740004	-32.209
544	7	1	0.77750897	22.247999	9.1940002	-33.543999
545	7	2	-0.62689799	22.223	10.305	-34.139
546	7	4	0.090825997	19.819	10.305	-31.653
547	7	5	0.087518997	19.312	9.3439999	-31.414
548	7	5	0.087518997	19.405001	11.087	-30.975
549	7	6	-0.682028	19.544001	10.633	-32.987999
550	7	7	0.38502601	19.764999	11.597	-33.096001
551	16	9	-0.46924001	22.593	8.3299999	-34.060001
552	16	10	0.32378301	21.761999	7.7420001	-34.305
553	16	4	0.024065999	23.267	8.743	-35.290001
554	16	5	0.053862002	23.487	7.848	-35.911999
555	16	5	0.053862002	24.240999	9.2030001	-35.018002
556	16	4	-0.145319	22.448	9.7630005	-36.102001
557	16	8	0.085978001	23.087999	10.105	-36.942001
558	16	8	0.085978001	22.214001	10.65	-35.474998
559	16	4	-0.143172	21.146	9.1630001	-36.662998
560	16	8	0.084835	21.361	8.2139997	-37.202999
561	16	8	0.084835	20.466999	8.927	-35.816002
562	16	4	-0.143172	20.408001	10.133	-37.599998
563	16	8	0.084835	20.247999	11.106	-37.084999
564	16	8	0.084835	19.396999	9.7069998	-37.786999
565	16	4	-0.144596	21.115999	10.319	-38.959999
566	16	8	0.085978001	20.379999	10.138	-39.771999
567	16	8	0.085978001	21.93	9.573	-39.094002
568	16	4	0.01684	21.691	11.731	-39.120998
569	16	5	0.052588001	22.294001	11.99	-38.223999
570	16	5	0.052588001	20.870001	12.475	-39.203999
571	16	9	-0.490502	22.552	11.807	-40.299
572	16	10	0.32024699	23.576	11.947001	-40.152
573	16	1	0.73308903	22.042999	11.763	-41.640999
574	16	2	-0.73806798	20.805	11.653	-41.848999
575	16	4	-0.225348	22.990999	11.819	-42.810001
576	16	8	0.138721	23.993999	11.481	-42.472
577	16	8	0.138721	22.650999	11.076	-43.564999
578	16	4	0.162626	23.118	13.218	-43.490002
579	16	6	-0.67544502	23.924	13.074	-44.640999
580	16	7	0.40184501	24.775999	12.636	-44.375999
581	16	1	0.69218302	23.733	14.234	-42.529999
582	16	2	-0.72938001	23.169001	14.452	-41.421001
583	16	9	-0.49302301	24.903	14.993	-42.883999
584	16	10	0.31812501	25.421	14.794	-43.769001
585	16	4	0.017425001	25.392	16.094999	-42.055
586	16	5	0.052588001	25.461	15.766	-40.994999
587	16	5	0.052588001	26.413	16.379999	-42.391998