Title

80 atoms
83 bonds
142 angles
195 dihedrals
78 impropers

9 atom types
13 bond types
6 angle types
9 dihedral types
2 improper types
-5.331999779 94.66800022 xlo xhi
-7.106999874 92.89300013 ylo yhi
-2.766000032 97.23399997 zlo zhi
0.0 0.0 0.0 xy xz yz

Masses

1	15.99943
2	12.01078
3	1.007947
4	12.01078
5	1.007947
6	15.99943
7	15.99943
8	1.007947
9	35.4532


Pair Coeffs

1	0.16846514	3.0251065
2	0.086879315	3.4806469
3	0.015611343	2.5725815
4	0.10884061	3.3795318
5	0.015779483	2.6445434
6	0.2102061	3.0398122
7	0.20947353	2.99716
8	1.2326e-05	0.53453923
9	0.2656001	3.3075278

Bond Coeffs

1 harmonic	425.69104206635	1.362945806494
2 harmonic	300.03137914615	1.451203938761
3 harmonic	360.7852444772	1.387193227181
4 harmonic	397.2545789619	1.085358495916
5 harmonic	289.73813263395	1.498646816465
6 harmonic	264.62148576755	1.52190126495
7 harmonic	301.15400723785	1.345741232799
8 harmonic	370.04670688625	1.093899492634
9 harmonic	582.698766451	1.225198386222
10 harmonic	279.1350963404	1.454628925034
11 harmonic	385.7604595587	1.369745182308
12 harmonic	543.5267831885	0.9716763312559
13 harmonic	218.0227703685	1.746066037062


Angle Coeffs

1 harmonic	57.8982893754	126.8062420451
2 harmonic	65.09061609600001	110.3538806181
3 harmonic	34.066775159195	129.1835929926
4 harmonic	53.20531626545	116.5475862634
5 harmonic	201.41175231035	127.4691416191
6 harmonic	48.776492647595	115.6030999533


Dihedral Coeffs

1 fourier 1	3.661930099076	2	180
2 fourier 1	1.532232714475	2	180
3 fourier 1	0.457973137376	1	0
4 fourier 1	0.02664938770063	3	0
5 fourier 1	0.1155372516788	3	0
6 fourier 1	2.779853741805	2	180
7 fourier 1	0.9974165607242	2	180
8 fourier 1	0.1040663847541	3	0
9 fourier 1	0.8283030590042	2	180


Improper Coeffs

1 0.3666666666666667	-1	2
2 3.5	-1	2


Atoms

1	1	1	0.001691	-4.1950002	-1.7130001	1.807
2	1	2	0.093266003	-3.204	-0.96399999	1.1720001
3	1	2	-0.248604	-2.1989999	-0.433	1.88
4	1	3	0.23158699	-2.1489999	-0.574	2.9519999
5	1	2	-0.148504	-1.143	0.347	1.209
6	1	3	0.216269	-0.35499999	0.76999998	1.8200001
7	1	2	-0.22761101	-1.148	0.52200001	-0.13
8	1	4	0.0076069999	-0.033	1.3559999	-0.79000002
9	1	2	-0.22761101	1.341	0.81999999	-0.34400001
10	1	2	-0.148837	2.3599999	1.622	0.034000002
11	1	3	0.216269	2.263	2.6960001	0.068999998
12	1	2	-0.216461	3.668	1.054	0.41499999
13	1	3	0.231405	4.4629998	1.722	0.72100002
14	1	2	0.313649	3.8729999	-0.27000001	0.377
15	1	1	-0.414285	5.1139998	-0.80199999	0.72899997
16	1	2	-0.09003	2.776	-1.1720001	-0.048999999
17	1	4	-0.13170099	3.016	-2.652	-0.15000001
18	1	5	0.099820003	2.062	-3.22	-0.12
19	1	5	0.099820003	3.642	-2.9979999	0.699
20	1	5	0.099820003	3.5409999	-2.8759999	-1.102
21	1	2	-0.26458699	1.592	-0.64999998	-0.41299999
22	1	3	0.216396	0.80199999	-1.304	-0.76200002
23	1	4	-0.12988301	-0.063000001	1.277	-2.3340001
24	1	5	0.089354999	-0.98299998	1.748	-2.744
25	1	5	0.089354999	-0.011	0.223	-2.681
26	1	5	0.089354999	0.80599999	1.8200001	-2.766
27	1	4	-0.12988301	-0.27500001	2.8340001	-0.39399999
28	1	5	0.089354999	0.39899999	3.5190001	-0.95200002
29	1	5	0.089354999	-0.116	2.987	0.69499999
30	1	5	0.089354999	-1.319	3.1329999	-0.63300002
31	1	2	-0.26672399	-2.2809999	-0.066	-0.90899998
32	1	3	0.216396	-2.329	0.055	-1.982
33	1	2	-0.078339003	-3.2609999	-0.75400001	-0.296
34	1	4	-0.134821	-4.3730001	-1.372	-1.096
35	1	5	0.099820003	-4.5079999	-0.85500002	-2.0710001
36	1	5	0.099820003	-4.1409998	-2.441	-1.284
37	1	5	0.099820003	-5.3319998	-1.301	-0.54100001
38	1	2	0.63039899	5.9120002	-0.193	1.033
39	1	6	-0.48059201	7.0430002	-0.64600003	1.076
40	1	1	0.001691	-4.1859999	-1.875	2.8069999
41	1	2	0.093266003	-3.1819999	-2.6240001	3.4219999
42	1	2	-0.248604	-2.191	-3.155	2.6949999
43	1	3	0.23158699	-2.1619999	-3.013	1.622
44	1	2	-0.148504	-1.123	-3.9349999	3.345
45	1	3	0.216269	-0.347	-4.3579998	2.7190001
46	1	2	-0.22761101	-1.101	-4.1100001	4.684
47	1	4	0.0076069999	0.027000001	-4.9439998	5.322
48	1	2	-0.22761101	1.391	-4.4070001	4.849
49	1	2	-0.109841	2.404	-5.21	4.4510002
50	1	3	0.216269	2.3050001	-6.2839999	4.4180002
51	1	2	-0.38143799	3.704	-4.6420002	4.0450001
52	1	3	0.237177	4.493	-5.3099999	3.723
53	1	2	0.29408401	3.9089999	-3.3180001	4.079
54	1	7	-0.63421601	5.1430001	-2.786	3.7030001
55	1	8	0.44102901	5.908	-3.375	3.3940001
56	1	2	-0.26265201	2.8210001	-2.415	4.526
57	1	4	-0.117643	3.063	-0.93599999	4.6220002
58	1	5	0.099820003	2.108	-0.36700001	4.6110001
59	1	5	0.099820003	3.6719999	-0.58999997	3.7609999
60	1	5	0.099820003	3.6059999	-0.71200001	5.5640001
61	1	2	-0.22712301	1.6440001	-2.938	4.9130001
62	1	3	0.216396	0.861	-2.2839999	5.277
63	1	4	-0.12988301	0.027000001	-4.8649998	6.8660002
64	1	5	0.089354999	-0.88499999	-5.336	7.2940001
65	1	5	0.089354999	0.086000003	-3.8110001	7.2119999
66	1	5	0.089354999	0.90399998	-5.408	7.2810001
67	1	4	-0.12988301	-0.223	-6.4219999	4.9299998
68	1	5	0.089354999	0.46200001	-7.1069999	5.4759998
69	1	5	0.089354999	-0.085000001	-6.5749998	3.8380001
70	1	5	0.089354999	-1.262	-6.7210002	5.1900001
71	1	2	-0.26672399	-2.2190001	-3.5220001	5.4850001
72	1	3	0.216396	-2.2449999	-3.642	6.5580001
73	1	2	-0.078339003	-3.21	-2.8329999	4.8909998
74	1	4	-0.134821	-4.3060002	-2.2149999	5.7129998
75	1	5	0.099820003	-4.4219999	-2.7320001	6.6900001
76	1	5	0.099820003	-4.0710001	-1.146	5.8969998
77	1	5	0.099820003	-5.276	-2.286	5.177
78	1	2	0.46953499	5.7309999	0.83999997	1.308
79	1	6	-0.550336	4.6170001	1.319	1.181
80	1	9	-0.072648004	7.0409999	1.823	1.937

Bonds

1	1	1	2
2	2	1	40
3	3	2	3
4	3	2	33
5	4	3	4
6	3	3	5
7	4	5	6
8	3	5	7
9	5	7	8
10	3	7	31
11	5	8	9
12	6	8	23
13	6	8	27
14	3	9	10
15	3	9	21
16	4	10	11
17	3	10	12
18	4	12	13
19	3	12	14
20	1	14	15
21	3	14	16
22	7	15	38
23	5	16	17
24	3	16	21
25	8	17	18
26	8	17	19
27	8	17	20
28	4	21	22
29	8	23	24
30	8	23	25
31	8	23	26
32	8	27	28
33	8	27	29
34	8	27	30
35	4	31	32
36	3	31	33
37	5	33	34
38	8	34	35
39	8	34	36
40	8	34	37
41	9	38	39
42	10	38	78
43	1	40	41
44	3	41	42
45	3	41	73
46	4	42	43
47	3	42	44
48	4	44	45
49	3	44	46
50	5	46	47
51	3	46	71
52	5	47	48
53	6	47	63
54	6	47	67
55	3	48	49
56	3	48	61
57	4	49	50
58	3	49	51
59	4	51	52
60	3	51	53
61	11	53	54
62	3	53	56
63	12	54	55
64	5	56	57
65	3	56	61
66	8	57	58
67	8	57	59
68	8	57	60
69	4	61	62
70	8	63	64
71	8	63	65
72	8	63	66
73	8	67	68
74	8	67	69
75	8	67	70
76	4	71	72
77	3	71	73
78	5	73	74
79	8	74	75
80	8	74	76
81	8	74	77
82	9	78	79
83	13	78	80

Angles

1	4	46	47	67
2	1	14	16	21
3	3	46	71	72
4	1	8	7	31
5	4	56	57	59
6	1	12	14	15
7	3	41	42	43
8	3	10	12	13
9	6	76	74	77
10	1	31	33	34
11	1	49	51	53
12	4	47	67	69
13	6	36	34	37
14	6	58	57	60
15	4	8	27	29
16	1	7	31	33
17	1	42	44	46
18	4	9	8	27
19	2	53	54	55
20	1	46	71	73
21	1	51	53	56
22	6	64	63	65
23	4	47	63	64
24	4	46	47	48
25	6	65	63	66
26	4	16	17	18
27	4	8	23	24
28	4	33	34	36
29	4	7	8	9
30	4	9	8	23
31	1	39	38	78
32	1	38	78	79
33	1	3	2	33
34	1	2	3	5
35	5	15	38	39
36	1	15	38	78
37	3	48	49	50
38	2	2	1	40
39	6	64	63	66
40	4	16	17	19
41	6	68	67	70
42	4	8	23	25
43	4	33	34	37
44	1	5	7	31
45	1	2	33	34
46	3	9	21	22
47	1	49	48	61
48	1	38	78	80
49	1	53	56	57
50	6	24	23	25
51	3	48	61	62
52	6	69	67	70
53	1	44	46	47
54	4	73	74	77
55	3	72	71	73
56	1	47	48	61
57	4	56	57	60
58	6	35	34	36
59	1	12	14	16
60	1	10	12	14
61	3	45	44	46
62	1	1	2	33
63	1	2	33	31
64	1	17	16	21
65	4	47	67	70
66	3	43	42	44
67	4	8	27	30
68	1	44	46	71
69	1	53	56	61
70	6	35	34	37
71	4	7	8	27
72	6	28	27	29
73	4	47	63	65
74	1	71	73	74
75	6	18	17	19
76	3	56	61	62
77	1	10	9	21
78	3	6	5	7
79	1	47	48	49
80	1	41	73	74
81	4	7	8	23
82	1	41	42	44
83	6	75	74	76
84	1	48	49	51
85	3	32	31	33
86	4	73	74	75
87	1	9	21	16
88	6	19	17	20
89	4	47	63	66
90	4	16	17	20
91	1	57	56	61
92	1	5	7	8
93	4	8	23	26
94	3	9	10	11
95	6	18	17	20
96	1	8	9	21
97	6	24	23	26
98	1	51	53	54
99	1	79	78	80
100	6	58	57	59
101	1	41	73	71
102	2	1	40	41
103	1	9	10	12
104	3	7	31	32
105	3	42	44	45
106	3	3	5	6
107	6	25	23	26
108	3	11	10	12
109	3	16	21	22
110	4	23	8	27
111	6	29	27	30
112	4	33	34	35
113	4	46	47	63
114	1	14	16	17
115	3	4	3	5
116	3	50	49	51
117	1	1	2	3
118	3	2	3	4
119	3	13	12	14
120	1	3	5	7
121	6	28	27	30
122	1	40	41	42
123	1	48	61	56
124	3	52	51	53
125	6	68	67	69
126	4	63	47	67
127	1	42	41	73
128	2	14	15	38
129	4	48	47	67
130	1	15	14	16
131	4	56	57	58
132	1	54	53	56
133	6	75	74	77
134	4	73	74	76
135	3	49	51	52
136	4	48	47	63
137	4	47	67	68
138	1	8	9	10
139	6	59	57	60
140	4	8	27	28
141	1	40	41	73
142	1	47	46	71

Dihedrals

1	4	2	33	34	36
2	1	43	42	41	73
3	2	12	14	15	38
4	4	46	47	48	61
5	8	26	23	8	27
6	1	42	44	46	47
7	8	66	63	47	67
8	1	41	42	44	45
9	4	20	17	16	21
10	1	13	12	14	16
11	4	10	9	8	27
12	4	14	16	17	19
13	1	2	3	5	7
14	5	7	8	27	29
15	1	11	10	9	21
16	1	52	51	53	56
17	4	60	57	56	61
18	4	2	33	34	37
19	4	41	73	74	76
20	4	21	9	8	27
21	1	17	16	21	22
22	5	48	47	63	64
23	4	5	7	8	27
24	4	10	9	8	23
25	1	3	2	33	31
26	4	53	56	57	60
27	1	51	49	48	61
28	1	51	53	56	57
29	1	44	46	71	73
30	1	43	42	44	45
31	5	9	8	23	25
32	1	8	9	10	11
33	1	41	42	44	46
34	4	21	9	8	23
35	4	44	46	47	48
36	1	47	46	71	73
37	4	5	7	8	23
38	5	46	47	63	65
39	4	61	48	47	67
40	9	51	53	54	55
41	1	46	71	73	74
42	5	48	47	67	70
43	1	49	51	53	54
44	1	42	44	46	71
45	5	48	47	63	65
46	1	50	49	51	53
47	1	1	2	33	34
48	4	61	48	47	63
49	5	9	8	23	26
50	1	44	42	41	73
51	1	6	5	7	31
52	7	15	38	78	79
53	4	58	57	56	61
54	1	48	61	56	57
55	1	12	10	9	21
56	1	47	48	49	51
57	1	9	21	16	17
58	2	16	14	15	38
59	4	31	33	34	35
60	2	33	2	1	40
61	8	25	23	8	27
62	8	63	47	67	70
63	4	71	73	74	75
64	8	23	8	27	28
65	4	41	73	74	77
66	1	48	61	56	53
67	1	51	53	56	61
68	5	7	8	23	24
69	5	46	47	67	68
70	1	45	44	46	47
71	1	47	48	61	56
72	1	1	2	33	31
73	1	8	9	21	16
74	1	4	3	5	6
75	1	40	41	42	43
76	5	9	8	27	28
77	1	42	41	73	74
78	4	71	73	74	76
79	4	14	16	17	20
80	8	23	8	27	29
81	1	3	5	7	8
82	1	32	31	33	34
83	1	10	9	21	22
84	5	7	8	27	30
85	1	15	14	16	17
86	5	7	8	23	25
87	1	9	21	16	14
88	4	18	17	16	21
89	4	67	47	46	71
90	1	54	53	56	61
91	1	41	73	71	46
92	1	53	56	61	62
93	1	2	33	31	7
94	1	43	42	44	46
95	1	8	9	10	12
96	1	14	16	21	22
97	1	2	3	5	6
98	1	48	49	51	52
99	1	54	53	56	57
100	1	45	44	46	71
101	5	46	47	63	66
102	1	49	48	61	56
103	1	1	2	3	4
104	3	2	1	40	41
105	1	11	10	12	13
106	4	19	17	16	21
107	1	10	12	14	15
108	1	72	71	73	74
109	5	48	47	63	66
110	9	55	54	53	56
111	4	49	48	47	67
112	1	40	41	73	74
113	1	8	7	31	32
114	4	41	73	74	75
115	1	52	51	53	54
116	1	2	33	31	32
117	1	57	56	61	62
118	4	2	33	34	35
119	4	7	8	9	21
120	1	12	14	16	21
121	7	39	38	78	79
122	7	15	38	78	80
123	2	14	15	38	39
124	4	49	48	47	63
125	6	14	15	38	78
126	1	15	14	16	21
127	4	53	56	57	58
128	1	50	49	48	61
129	4	31	33	34	36
130	1	49	51	53	56
131	8	64	63	47	67
132	2	3	2	1	40
133	4	9	8	7	31
134	1	12	14	16	17
135	1	9	10	12	13
136	5	48	47	67	68
137	8	24	23	8	27
138	7	39	38	78	80
139	5	46	47	67	69
140	1	5	3	2	33
141	1	40	41	73	71
142	4	48	47	46	71
143	1	4	3	5	7
144	4	53	56	57	59
145	5	9	8	27	29
146	1	10	9	21	16
147	4	44	46	47	67
148	4	31	33	34	37
149	1	44	46	71	72
150	4	5	7	8	9
151	5	9	8	23	24
152	4	71	73	74	77
153	1	47	48	61	62
154	8	23	8	27	30
155	1	47	46	71	72
156	4	27	8	7	31
157	1	8	9	21	22
158	1	9	10	12	14
159	8	65	63	47	67
160	1	3	5	7	31
161	5	46	47	63	64
162	1	4	3	2	33
163	5	7	8	23	26
164	2	1	40	41	42
165	1	42	41	73	71
166	4	44	46	47	63
167	5	48	47	67	69
168	5	46	47	67	70
169	8	63	47	67	68
170	1	50	49	51	52
171	1	5	7	31	32
172	5	9	8	27	30
173	1	41	73	71	72
174	4	59	57	56	61
175	4	63	47	46	71
176	1	7	31	33	34
177	1	6	5	7	8
178	4	23	8	7	31
179	1	48	49	51	53
180	1	47	48	49	50
181	1	1	2	3	5
182	1	40	41	42	44
183	1	11	10	12	14
184	1	10	12	14	16
185	4	46	47	48	49
186	8	63	47	67	69
187	2	1	40	41	73
188	1	13	12	14	15
189	4	14	16	17	18
190	1	5	7	31	33
191	1	8	7	31	33
192	1	3	2	33	34
193	4	7	8	9	10
194	1	49	48	61	62
195	5	7	8	27	28

Impropers

7	1	2	1	3	33
18	1	33	31	34	2
21	1	41	40	42	73
29	1	3	4	5	2
33	1	48	49	61	47
35	1	31	7	32	33
37	1	53	51	54	56
38	1	21	9	16	22
39	2	38	39	78	15
42	1	71	73	46	72
44	1	5	6	7	3
46	1	42	41	43	44
47	1	44	42	45	46
53	1	16	14	17	21
59	1	12	14	10	13
68	1	41	73	40	42
71	1	46	47	71	44
73	1	48	61	47	49
78	2	38	15	39	78
79	1	31	33	7	32
82	1	9	8	10	21
83	1	10	11	12	9
94	1	49	50	51	48
99	1	10	12	9	11
103	1	78	38	79	80
111	1	73	74	41	71
115	1	53	54	56	51
131	2	38	78	15	39
139	1	16	21	14	17
151	1	51	53	49	52
155	1	3	5	2	4
159	1	14	12	15	16
161	1	33	34	2	31
162	1	61	48	56	62
165	1	73	71	74	41
167	1	48	47	49	61
171	1	49	48	50	51
172	1	7	31	5	8
178	1	78	80	38	79
180	1	10	9	11	12
183	1	7	8	31	5
185	1	71	46	72	73
192	1	2	33	1	3
197	1	3	2	4	5
199	1	12	10	13	14
201	1	42	43	44	41
203	1	61	56	62	48
205	1	7	5	8	31
206	1	9	10	21	8
217	1	56	61	53	57
220	1	56	53	57	61
225	1	14	16	12	15
227	1	51	52	53	49
234	1	56	57	61	53
240	1	71	72	73	46
277	1	5	3	6	7
285	1	44	45	46	42
291	1	46	71	44	47
296	1	46	44	47	71
304	1	33	2	31	34
307	1	21	22	9	16
310	1	21	16	22	9
314	1	53	56	51	54
319	1	5	7	3	6
322	1	61	62	48	56
326	1	73	41	71	74
333	1	14	15	16	12
335	1	49	51	48	50
338	1	78	79	80	38
344	1	42	44	41	43
354	1	51	49	52	53
369	1	12	13	14	10
370	1	41	42	73	40
375	1	9	21	8	10
378	1	2	3	33	1
379	1	44	46	42	45
386	1	31	32	33	7
396	1	16	17	21	14
