Title

133 atoms
142 bonds
243 angles
389 dihedrals
168 impropers

10 atom types
14 bond types
9 angle types
20 dihedral types
3 improper types
-9.50399971 90.49600029 xlo xhi
-16.06299973 83.93700027 ylo yhi
-10.97399998 89.02600002 zlo zhi
0.0 0.0 0.0 xy xz yz

Masses

1	14.00672
2	12.01078
3	1.007947
4	15.99943
5	1.007947
6	15.99943
7	12.01078
8	1.007947
9	15.99943
10	1.007947


Pair Coeffs

1	0.16769152	3.206876
2	0.086879315	3.4806469
3	0.015611343	2.5725815
4	0.16846514	3.0251065
5	0.014090815	1.1034277
6	0.2102061	3.0398122
7	0.10884061	3.3795318
8	0.015779483	2.6445434
9	0.20947353	2.99716
10	1.2326e-05	0.53453923

Bond Coeffs

1 harmonic	390.03554688505	1.390160554689
2 harmonic	505.144496193	1.019481865027
3 harmonic	422.7150220147	1.421786517481
4 harmonic	360.7852444772	1.387193227181
5 harmonic	397.2545789619	1.085358495916
6 harmonic	425.69104206635	1.362945806494
7 harmonic	492.76746816345	1.381897776683
8 harmonic	582.698766451	1.225198386222
9 harmonic	279.1350963404	1.454628925034
10 harmonic	289.73813263395	1.498646816465
11 harmonic	264.62148576755	1.52190126495
12 harmonic	370.04670688625	1.093899492634
13 harmonic	385.7604595587	1.369745182308
14 harmonic	543.5267831885	0.9716763312559


Angle Coeffs

1 harmonic	57.8982893754	126.8062420451
2 harmonic	55.42182150775	117.3465570514
3 harmonic	63.44422595415	115.5071327674
4 harmonic	34.066775159195	129.1835929926
5 harmonic	65.09061609600001	110.3538806181
6 harmonic	53.20531626545	116.5475862634
7 harmonic	14.32262199324	138.3184368373
8 harmonic	48.776492647595	115.6030999533
9 harmonic	201.41175231035	127.4691416191


Dihedral Coeffs

1 fourier 1	3.661930099076	2	180
2 fourier 1	1.193093382682	2	180
3 fourier 1	0.02021088501612	1	0
4 fourier 1	1.532232714475	2	180
5 fourier 1	3.101948770557	2	180
6 fourier 1	-0.4252153282372	1	0
7 fourier 1	1.809047390003	2	180
8 fourier 1	-0.04816277792592	1	0
9 fourier 1	0.9974165607242	2	180
10 fourier 1	2.348375642009	2	180
11 fourier 1	1.256156174911	1	0
12 fourier 1	0.02664938770063	3	0
13 fourier 1	0.1155372516788	3	0
14 fourier 1	0.09223874044423	3	0
15 fourier 1	0.3159935921949	2	180
16 fourier 1	0.3247796806857	1	180
17 fourier 1	0.1040663847541	3	0
18 fourier 1	2.687457892086	2	180
19 fourier 1	2.772607909663	2	180
20 fourier 1	0.09692684957115	1	0


Improper Coeffs

1 0.3666666666666667	-1	2
2 0.3333333333333333	-1	2
3 3.5	-1	2


Atoms

1	1	1	-0.41109401	-5.1680002	0.26899999	0.52399999
2	1	2	0.102524	-3.8280001	-0.134	0.23199999
3	1	2	-0.38582101	-3.572	-0.95700002	-0.79699999
4	1	3	0.22620501	-4.3769999	-1.327	-1.42
5	1	2	-0.223286	-2.184	-1.369	-1.094
6	1	3	0.22721	-1.995	-2.036	-1.926
7	1	2	0.18415301	-1.166	-0.91299999	-0.352
8	1	4	-0.266821	0.13699999	-1.332	-0.65799999
9	1	2	0.18415301	1.308	-0.61000001	-0.384
10	1	2	-0.24459399	1.348	0.73500001	-0.435
11	1	3	0.22721	0.46799999	1.306	-0.69999999
12	1	2	-0.35679099	2.609	1.454	-0.15899999
13	1	3	0.222247	2.618	2.536	-0.19499999
14	1	2	0.167373	3.7279999	0.77100003	0.127
15	1	1	-0.53135002	4.9520001	1.46	0.39399999
16	1	5	0.32041001	4.9990001	2.5039999	0.373
17	1	2	-0.35679099	3.691	-0.70999998	0.16
18	1	3	0.222247	4.5910001	-1.2690001	0.382
19	1	2	-0.24459399	2.5469999	-1.3609999	-0.086000003
20	1	3	0.22721	2.527	-2.4430001	-0.061999999
21	1	2	-0.223286	-1.452	-0.018999999	0.80199999
22	1	3	0.22721	-0.64999998	0.32100001	1.444
23	1	2	-0.38582101	-2.7090001	0.35100001	1.073
24	1	3	0.22620501	-2.9089999	0.99900001	1.9170001
25	1	5	0.373932	-5.3649998	0.90799999	1.326
26	1	2	0.76893902	5.8390002	0.91799998	0.61799997
27	1	6	-0.65490103	5.8940001	0.259	1.691
28	1	2	-0.370011	6.9790001	0.94	-0.315
29	1	2	-0.077747002	6.9050002	1.648	-1.452
30	1	3	0.225509	6.0120001	2.21	-1.696
31	1	2	-0.248108	8.0430002	1.678	-2.3940001
32	1	3	0.215754	7.9310002	2.283	-3.2809999
33	1	2	-0.208661	9.1680002	0.972	-2.1459999
34	1	7	0.025327999	10.394	1.002	-3.075
35	1	7	-0.13124999	10.09	1.52	-4.5019999
36	1	8	0.088436	9.8290005	2.599	-4.487
37	1	8	0.088436	10.98	1.405	-5.158
38	1	8	0.088436	9.25	0.95099998	-4.9559999
39	1	2	-0.123824	10.989	-0.366	-3.198
40	1	2	-0.15098301	10.377	-1.4809999	-3.6229999
41	1	3	0.215188	9.3339996	-1.466	-3.9119999
42	1	2	0.00095399999	11.152	-2.7420001	-3.691
43	1	3	0.21577001	10.654	-3.6429999	-4.0289998
44	1	2	-0.34498101	12.456	-2.7620001	-3.342
45	1	2	0.58656901	13.219	-4.02	-3.4170001
46	1	6	-0.51094902	14.436	-4.0560002	-3.095
47	1	2	0.072209001	13.111	-1.5039999	-2.885
48	1	3	0.209649	14.158	-1.4960001	-2.6129999
49	1	2	-0.18015499	12.384	-0.37799999	-2.8180001
50	1	7	-0.026884001	12.848	0.98299998	-2.4070001
51	1	7	-0.130835	13.877	1.518	-3.4200001
52	1	8	0.092652999	14.786	0.87900001	-3.4319999
53	1	8	0.092652999	13.446	1.533	-4.4450002
54	1	8	0.092652999	14.181	2.552	-3.151
55	1	7	-0.130835	13.46	0.949	-0.99299997
56	1	8	0.092652999	14.389	0.34	-0.977
57	1	8	0.092652999	12.741	0.50999999	-0.26699999
58	1	8	0.092652999	13.713	1.978	-0.66000003
59	1	7	-0.180821	11.544	1.844	-2.4319999
60	1	8	0.130945	11.702	2.802	-2.977
61	1	8	0.130945	11.266	2.1500001	-1.398
62	1	2	-0.248108	9.2489996	0.212	-0.86500001
63	1	3	0.215754	10.151	-0.331	-0.61000001
64	1	2	-0.077747002	8.2209997	0.192	-0.0099999998
65	1	3	0.225509	8.3079996	-0.37	0.912
66	1	1	-0.41109401	-5.9699998	-0.064000003	-0.056000002
67	1	2	0.102524	-6.1139998	0.33899999	-1.421
68	1	2	-0.38582101	-5.217	1.163	-1.9859999
69	1	3	0.22620501	-4.3730001	1.5319999	-1.4170001
70	1	2	-0.223286	-5.3699999	1.575	-3.3970001
71	1	3	0.22721	-4.6389999	2.2409999	-3.8380001
72	1	2	0.18415301	-6.395	1.118	-4.131
73	1	4	-0.266821	-6.5120001	1.5369999	-5.4640002
74	1	2	0.18415301	-7.1399999	0.81599998	-6.4899998
75	1	2	-0.168924	-7.1040001	-0.52999997	-6.5440001
76	1	3	0.22721	-6.5770001	-1.101	-5.7919998
77	1	2	-0.43539301	-7.7610002	-1.249	-7.6550002
78	1	3	0.235028	-7.73	-2.3310001	-7.6750002
79	1	2	0.28302601	-8.3839998	-0.565	-8.6280003
80	1	1	-0.843822	-9.0209999	-1.255	-9.7069998
81	1	5	0.36804199	-9.5039997	-0.722	-10.464
82	1	5	0.36804199	-9.0159998	-2.299	-9.757
83	1	2	-0.43539301	-8.4040003	0.91500002	-8.5830002
84	1	3	0.235028	-8.8959999	1.475	-9.368
85	1	2	-0.168924	-7.8119998	1.566	-7.5739999
86	1	3	0.22721	-7.8280001	2.648	-7.5469999
87	1	2	-0.223286	-7.4000001	0.22400001	-3.4979999
88	1	3	0.22721	-8.2620001	-0.115	-4.0580001
89	1	2	-0.38582101	-7.263	-0.146	-2.2190001
90	1	3	0.22620501	-8.0019999	-0.79400003	-1.7640001
91	1	5	0.373932	-6.6700001	-0.70300001	0.38299999
92	1	2	0.592071	12.738	-4.9299998	-3.7509999
93	1	6	-0.52144003	11.547	-5.1529999	-3.4059999
94	1	2	-0.33351001	13.482	-5.882	-4.5970001
95	1	2	0.006234	12.922	-7.0209999	-5.0349998
96	1	3	0.223389	11.901	-7.276	-4.7800002
97	1	2	-0.241441	13.692	-7.954	-5.882
98	1	3	0.215754	13.197	-8.8529997	-6.2290001
99	1	2	-0.208661	14.975	-7.697	-6.2199998
100	1	7	0.025327999	15.742	-8.6759996	-7.1259999
101	1	7	-0.13124999	17.256001	-8.3769999	-7.21
102	1	8	0.088436	17.708	-8.3470001	-6.1960001
103	1	8	0.088436	17.438999	-7.4060001	-7.7189999
104	1	8	0.088436	17.778999	-9.1619997	-7.7979999
105	1	2	-0.123824	15.573	-10.086	-6.6469998
106	1	2	-0.17032599	15.875	-10.571	-5.4349999
107	1	3	0.215188	16.277	-9.927	-4.6630001
108	1	2	-0.060066	15.65	-12.01	-5.1620002
109	1	3	0.23214801	15.892	-12.391	-4.178
110	1	2	-0.226778	15.157	-12.822	-6.125
111	1	2	0.83597499	14.93	-14.261	-5.869
112	1	6	-0.47701499	15.193	-14.763	-4.743
113	1	9	-0.663764	14.422	-15.075	-6.8769999
114	1	10	0.41897401	14.261	-16.063	-6.7160001
115	1	2	0.0067070001	14.842	-12.251	-7.4650002
116	1	3	0.22491799	14.458	-12.882	-8.2559996
117	1	2	-0.174367	15.042	-10.942	-7.6830001
118	1	7	-0.026884001	14.807	-10.183	-8.9499998
119	1	7	-0.130835	13.345	-10.331	-9.4139996
120	1	8	0.092652999	13.122	-11.383	-9.6929998
121	1	8	0.092652999	12.646	-10.028	-8.6040001
122	1	8	0.092652999	13.157	-9.6890001	-10.301
123	1	7	-0.130835	15.767	-10.68	-10.048
124	1	8	0.092652999	16.823	-10.589	-9.7150002
125	1	8	0.092652999	15.567	-11.745	-10.293
126	1	8	0.092652999	15.637	-10.08	-10.974
127	1	7	-0.180821	15.124	-8.7019997	-8.5640001
128	1	8	0.130945	15.803	-8.2270002	-9.3079996
129	1	8	0.130945	14.197	-8.0869999	-8.599
130	1	2	-0.241441	15.58	-6.4180002	-5.7410002
131	1	3	0.215754	16.593	-6.1459999	-5.9959998
132	1	2	0.006234	14.878	-5.572	-4.9770002
133	1	3	0.223389	15.339	-4.652	-4.6389999

Bonds

1	1	1	2
2	2	1	25
3	3	1	66
4	4	2	3
5	4	2	23
6	5	3	4
7	4	3	5
8	5	5	6
9	4	5	7
10	6	7	8
11	4	7	21
12	6	8	9
13	4	9	10
14	4	9	19
15	5	10	11
16	4	10	12
17	5	12	13
18	4	12	14
19	1	14	15
20	4	14	17
21	2	15	16
22	7	15	26
23	5	17	18
24	4	17	19
25	5	19	20
26	5	21	22
27	4	21	23
28	5	23	24
29	8	26	27
30	9	26	28
31	4	28	29
32	4	28	64
33	5	29	30
34	4	29	31
35	5	31	32
36	4	31	33
37	10	33	34
38	4	33	62
39	11	34	35
40	10	34	39
41	11	34	59
42	12	35	36
43	12	35	37
44	12	35	38
45	4	39	40
46	4	39	49
47	5	40	41
48	4	40	42
49	5	42	43
50	4	42	44
51	9	44	45
52	4	44	47
53	8	45	46
54	9	45	92
55	5	47	48
56	4	47	49
57	10	49	50
58	11	50	51
59	11	50	55
60	11	50	59
61	12	51	52
62	12	51	53
63	12	51	54
64	12	55	56
65	12	55	57
66	12	55	58
67	12	59	60
68	12	59	61
69	5	62	63
70	4	62	64
71	5	64	65
72	1	66	67
73	2	66	91
74	4	67	68
75	4	67	89
76	5	68	69
77	4	68	70
78	5	70	71
79	4	70	72
80	6	72	73
81	4	72	87
82	6	73	74
83	4	74	75
84	4	74	85
85	5	75	76
86	4	75	77
87	5	77	78
88	4	77	79
89	1	79	80
90	4	79	83
91	2	80	81
92	2	80	82
93	5	83	84
94	4	83	85
95	5	85	86
96	5	87	88
97	4	87	89
98	5	89	90
99	8	92	93
100	9	92	94
101	4	94	95
102	4	94	132
103	5	95	96
104	4	95	97
105	5	97	98
106	4	97	99
107	10	99	100
108	4	99	130
109	11	100	101
110	10	100	105
111	11	100	127
112	12	101	102
113	12	101	103
114	12	101	104
115	4	105	106
116	4	105	117
117	5	106	107
118	4	106	108
119	5	108	109
120	4	108	110
121	9	110	111
122	4	110	115
123	8	111	112
124	13	111	113
125	14	113	114
126	5	115	116
127	4	115	117
128	10	117	118
129	11	118	119
130	11	118	123
131	11	118	127
132	12	119	120
133	12	119	121
134	12	119	122
135	12	123	124
136	12	123	125
137	12	123	126
138	12	127	128
139	12	127	129
140	5	130	131
141	4	130	132
142	5	132	133

Angles

1	4	96	95	97
2	6	119	118	127
3	6	101	100	127
4	3	81	80	82
5	1	80	79	83
6	4	84	83	85
7	4	43	42	44
8	1	106	105	117
9	4	67	68	69
10	1	15	26	27
11	4	17	19	20
12	8	36	35	38
13	1	44	45	46
14	1	108	110	115
15	6	105	100	127
16	6	101	100	105
17	4	76	75	77
18	6	50	51	52
19	1	31	33	62
20	4	98	97	99
21	6	119	118	123
22	4	11	10	12
23	8	128	127	129
24	8	103	101	104
25	4	40	42	43
26	4	83	85	86
27	4	62	64	65
28	6	33	34	59
29	1	45	92	94
30	1	95	97	99
31	6	118	127	128
32	4	9	10	11
33	4	74	85	86
34	1	99	130	132
35	1	67	68	70
36	6	34	35	38
37	1	15	26	28
38	6	33	34	39
39	4	18	17	19
40	6	50	55	58
41	8	120	119	121
42	1	70	72	87
43	1	97	99	100
44	1	39	49	50
45	7	115	117	118
46	1	2	23	21
47	6	50	51	53
48	4	109	108	110
49	6	118	123	125
50	6	118	119	120
51	8	121	119	122
52	8	52	51	53
53	4	33	62	63
54	3	14	15	16
55	8	56	55	57
56	4	6	5	7
57	6	33	34	35
58	4	78	77	79
59	9	112	111	113
60	4	63	62	64
61	6	118	127	129
62	1	9	10	12
63	1	66	67	68
64	1	10	9	19
65	6	117	118	119
66	4	28	29	30
67	8	120	119	122
68	4	131	130	132
69	6	118	123	126
70	1	105	117	115
71	8	124	123	126
72	1	2	3	5
73	6	100	101	104
74	1	40	39	49
75	2	2	1	66
76	1	33	62	64
77	7	34	39	40
78	1	74	85	83
79	6	100	127	128
80	6	50	59	60
81	1	27	26	28
82	1	95	94	132
83	1	3	2	23
84	1	73	74	75
85	6	34	59	60
86	1	110	111	113
87	8	60	59	61
88	1	94	95	97
89	1	26	28	64
90	1	12	14	15
91	4	39	40	41
92	1	92	94	132
93	1	93	92	94
94	6	117	118	127
95	1	8	9	10
96	6	100	127	129
97	1	100	105	117
98	7	47	49	50
99	6	50	59	61
100	3	79	80	81
101	6	49	50	59
102	8	102	101	103
103	4	44	47	48
104	4	94	132	133
105	1	15	14	17
106	6	34	59	61
107	4	3	5	6
108	4	69	68	70
109	7	100	105	106
110	6	117	118	123
111	1	10	12	14
112	1	26	28	29
113	1	45	44	47
114	4	13	12	14
115	4	7	21	22
116	1	40	42	44
117	6	49	50	55
118	1	100	99	130
119	6	39	34	59
120	1	1	2	3
121	1	29	28	64
122	3	67	66	91
123	4	75	77	78
124	4	4	3	5
125	8	102	101	104
126	6	49	50	51
127	4	9	19	20
128	6	50	51	54
129	4	68	70	71
130	1	46	45	92
131	4	87	89	90
132	6	118	119	121
133	1	34	39	49
134	8	52	51	54
135	1	1	2	23
136	2	14	15	26
137	8	56	55	58
138	1	7	21	23
139	1	5	7	8
140	1	66	67	89
141	1	39	49	47
142	1	68	67	89
143	1	94	132	130
144	8	125	123	126
145	1	70	72	73
146	4	10	12	13
147	4	29	31	32
148	4	22	21	23
149	1	28	29	31
150	1	34	33	62
151	4	41	40	42
152	8	37	35	38
153	1	68	70	72
154	4	67	89	90
155	4	28	64	65
156	6	118	119	122
157	4	14	17	18
158	1	42	44	47
159	5	72	73	74
160	1	111	110	115
161	6	34	35	36
162	2	1	66	67
163	6	100	127	118
164	6	50	55	56
165	4	116	115	117
166	4	72	87	88
167	1	5	7	21
168	4	79	83	84
169	4	130	132	133
170	1	9	19	17
171	4	107	106	108
172	1	8	7	21
173	6	51	50	59
174	4	48	47	49
175	6	34	59	50
176	3	16	15	26
177	1	73	72	87
178	4	105	106	107
179	3	2	1	25
180	1	39	40	42
181	4	74	75	76
182	6	35	34	59
183	4	2	23	24
184	5	7	8	9
185	1	77	79	83
186	1	45	92	93
187	1	14	17	19
188	1	92	94	95
189	6	35	34	39
190	4	88	87	89
191	4	95	97	98
192	6	51	50	55
193	4	99	130	131
194	4	110	115	116
195	6	99	100	127
196	4	21	23	24
197	6	34	35	37
198	3	79	80	82
199	6	50	55	57
200	1	72	87	89
201	1	79	83	85
202	4	106	108	109
203	1	44	47	49
204	1	67	89	87
205	6	118	123	124
206	1	28	64	62
207	1	3	5	7
208	6	100	101	102
209	1	105	106	108
210	6	99	100	105
211	1	74	75	77
212	1	12	14	17
213	4	71	70	72
214	1	105	117	118
215	6	55	50	59
216	1	75	74	85
217	3	1	66	91
218	4	30	29	31
219	1	108	110	111
220	3	25	1	66
221	1	110	115	117
222	1	75	77	79
223	8	53	51	54
224	6	99	100	101
225	8	57	55	58
226	1	106	108	110
227	1	77	79	80
228	8	124	123	125
229	4	2	3	4
230	5	111	113	114
231	1	42	44	45
232	6	100	101	103
233	4	32	31	33
234	1	44	45	92
235	6	123	118	127
236	1	8	9	19
237	8	36	35	37
238	1	73	74	85
239	1	31	33	34
240	4	94	95	96
241	1	29	31	33
242	1	110	111	112
243	1	97	99	130

Dihedrals

1	1	26	28	29	31
2	2	17	14	15	26
3	1	106	108	110	115
4	17	37	35	34	59
5	17	104	101	100	127
6	9	27	26	28	64
7	17	120	119	118	127
8	13	37	35	34	39
9	12	99	100	105	117
10	12	47	49	50	55
11	4	74	73	72	87
12	1	96	95	97	99
13	2	3	2	1	25
14	12	99	100	105	106
15	1	75	74	85	86
16	1	105	117	115	110
17	17	126	123	118	127
18	1	109	108	110	115
19	13	105	100	127	118
20	17	119	118	127	129
21	13	117	118	119	120
22	1	3	5	7	21
23	12	31	33	34	39
24	1	34	39	49	47
25	17	57	55	50	59
26	17	56	55	50	59
27	1	74	85	83	79
28	17	51	50	55	58
29	12	97	99	100	101
30	13	33	34	35	36
31	1	8	9	10	11
32	9	113	111	110	115
33	1	95	94	132	130
34	17	36	35	34	59
35	17	35	34	59	60
36	1	110	115	117	118
37	1	97	99	130	131
38	7	16	15	26	28
38	8	16	15	26	28
39	9	47	44	45	92
40	13	36	35	34	39
41	2	16	15	14	17
42	13	117	118	127	128
43	13	103	101	100	105
44	1	73	74	75	76
45	1	8	9	19	20
46	1	131	130	132	133
47	1	31	33	62	64
48	1	67	89	87	88
49	1	72	87	89	90
50	1	107	106	105	117
51	1	10	9	19	20
52	12	40	39	34	59
53	18	110	111	113	114
54	17	54	51	50	59
55	9	42	44	45	46
56	12	39	49	50	51
57	1	75	74	85	83
58	1	66	67	68	69
59	17	123	118	127	129
60	1	69	68	70	72
61	14	100	127	118	119
61	15	100	127	118	119
61	16	100	127	118	119
62	9	15	26	28	29
63	1	70	68	67	89
64	9	108	110	111	113
65	1	34	33	62	63
66	1	67	68	70	71
67	14	101	100	127	118
67	15	101	100	127	118
67	16	101	100	127	118
68	9	45	92	94	132
69	2	1	66	67	89
70	12	39	49	50	55
71	1	71	70	72	87
72	1	12	14	17	19
73	14	100	127	118	123
73	15	100	127	118	123
73	16	100	127	118	123
74	1	29	31	33	62
75	1	63	62	64	65
76	4	7	8	9	10
77	1	42	40	39	49
78	1	10	9	19	17
79	12	33	34	39	40
80	17	51	50	55	57
81	1	11	10	12	14
82	9	27	26	28	29
83	1	5	3	2	23
84	1	42	44	47	48
85	1	1	2	3	5
86	13	49	50	51	53
87	13	99	100	101	104
88	1	2	3	5	7
89	10	16	15	26	27
89	11	16	15	26	27
90	1	28	29	31	32
91	1	3	2	23	21
92	1	88	87	89	90
93	1	39	49	47	48
94	1	31	33	62	63
95	14	34	59	50	55
95	15	34	59	50	55
95	16	34	59	50	55
96	1	70	72	87	89
97	1	34	39	49	50
98	1	100	105	106	108
99	13	99	100	127	129
100	1	3	5	7	8
101	1	105	106	108	109
102	19	112	111	113	114
102	20	112	111	113	114
103	17	120	119	118	123
104	1	76	75	74	85
105	1	92	94	95	97
106	12	47	49	50	51
107	1	48	47	49	50
108	3	2	1	66	91
109	12	115	117	118	127
110	1	71	70	72	73
111	1	30	29	28	64
112	1	69	68	70	71
113	1	26	28	64	62
114	2	82	80	79	83
115	1	14	17	19	20
116	1	73	72	87	88
117	12	31	33	34	35
118	1	41	40	39	49
119	17	101	100	127	128
120	1	43	42	44	45
121	12	35	34	39	40
122	1	39	40	42	44
123	2	1	66	67	68
124	1	95	97	99	100
125	4	7	8	9	19
126	13	104	101	100	105
127	1	29	31	33	34
128	1	30	29	31	33
129	12	31	33	34	59
130	1	106	105	117	115
131	17	119	118	123	124
132	1	73	74	85	83
133	1	68	67	89	87
134	12	59	34	33	62
135	17	51	50	59	61
136	1	98	97	99	100
137	2	81	80	79	83
138	9	46	45	92	93
139	1	11	10	12	13
140	1	1	2	3	4
141	1	18	17	19	20
142	13	49	50	55	57
143	17	124	123	118	127
144	1	76	75	77	78
145	17	54	51	50	55
146	13	49	50	51	52
147	1	45	44	47	48
148	17	55	50	59	61
149	1	2	3	5	6
150	12	105	100	99	130
151	13	117	118	119	122
152	1	70	72	87	88
153	1	100	105	106	107
154	1	13	12	14	15
155	1	77	75	74	85
156	13	33	34	35	38
157	1	40	42	44	45
158	1	8	7	21	23
159	1	9	10	12	14
160	1	100	99	130	132
161	1	107	106	108	109
162	1	15	14	17	18
163	1	5	7	21	23
164	1	92	94	95	96
165	1	77	79	83	85
166	1	1	2	23	21
167	1	105	117	115	116
168	12	105	117	118	123
169	1	3	2	23	24
170	2	12	14	15	26
171	12	97	99	100	127
172	1	40	39	49	50
173	12	39	34	33	62
174	1	26	28	29	30
175	1	95	97	99	130
176	1	39	40	42	43
177	1	7	21	23	24
178	1	80	79	83	85
179	1	29	28	64	65
180	13	39	34	59	61
181	13	39	34	59	50
182	1	6	5	7	21
183	1	96	95	97	98
184	13	33	34	59	61
185	1	31	29	28	64
186	12	105	117	118	127
187	1	4	3	5	7
188	1	26	28	64	65
189	1	2	23	21	7
190	2	77	79	80	82
191	1	39	49	47	44
192	17	119	118	127	128
193	14	34	59	50	51
193	15	34	59	50	51
193	16	34	59	50	51
194	12	33	34	39	49
195	9	112	111	110	115
196	1	10	12	14	15
197	4	5	7	8	9
198	1	32	31	33	62
199	13	49	50	59	61
200	13	49	50	55	56
201	12	115	117	118	123
202	1	9	19	17	18
203	4	72	73	74	85
204	17	102	101	100	127
205	1	12	10	9	19
206	3	2	1	66	67
207	12	49	39	34	59
208	1	106	105	117	118
209	1	28	64	62	33
210	13	102	101	100	105
211	13	117	118	119	121
212	1	40	39	49	47
213	1	22	21	23	24
214	1	73	74	85	86
215	1	68	67	89	90
216	7	14	15	26	28
216	8	14	15	26	28
217	1	34	39	40	42
218	13	33	34	35	37
219	13	99	100	127	118
220	1	9	10	12	13
221	12	127	100	99	130
222	17	122	119	118	127
223	12	101	100	105	117
224	1	8	9	10	12
225	1	29	28	64	62
226	1	33	62	64	65
227	9	42	44	45	92
228	1	78	77	79	80
229	12	101	100	105	106
230	1	116	115	117	118
231	17	123	118	127	128
232	1	97	99	130	132
233	9	15	26	28	64
234	2	68	67	66	91
235	2	12	14	15	16
236	12	106	105	100	127
237	1	73	74	75	77
238	13	117	118	123	126
239	1	111	110	115	117
240	1	100	105	117	115
241	1	74	85	83	84
242	12	35	34	39	49
243	1	94	132	130	131
244	12	117	105	100	127
245	1	80	79	83	84
246	13	39	34	59	60
247	1	99	130	132	133
248	1	96	95	94	132
249	1	2	23	21	22
250	17	38	35	34	59
251	1	74	75	77	79
252	1	1	2	23	24
253	1	12	14	17	18
254	17	121	119	118	127
255	13	38	35	34	39
256	3	25	1	66	91
257	2	77	79	80	81
258	17	52	51	50	59
259	1	43	42	44	47
260	17	51	50	55	56
261	1	32	31	33	34
262	1	4	3	2	23
263	17	58	55	50	59
264	13	49	50	59	60
265	1	68	70	72	87
266	13	99	100	101	103
267	12	105	117	118	119
268	1	84	83	85	86
269	1	6	5	7	8
270	4	72	73	74	75
271	1	44	47	49	50
272	9	93	92	94	95
273	13	105	100	127	129
274	1	92	94	132	130
275	17	119	118	123	126
276	5	14	15	26	27
276	6	14	15	26	27
277	13	99	100	127	128
278	1	34	39	40	41
279	1	42	44	47	49
280	12	47	49	50	59
281	1	108	106	105	117
282	17	125	123	118	127
283	13	49	50	51	54
284	9	45	92	94	95
285	17	103	101	100	127
286	2	23	2	1	66
287	13	100	127	118	117
288	1	28	29	31	33
289	1	75	77	79	83
290	1	41	40	42	44
291	1	108	110	115	117
292	13	117	118	123	125
293	1	28	64	62	63
294	1	94	95	97	99
295	1	111	110	115	116
296	1	11	10	9	19
297	1	13	12	14	17
298	12	97	99	100	105
299	1	40	42	44	47
300	9	44	45	92	94
301	1	105	106	108	110
302	1	69	68	67	89
303	9	93	92	94	132
304	1	78	77	79	83
305	1	94	132	130	99
306	2	89	67	66	91
307	1	74	75	77	78
308	1	68	70	72	73
309	13	33	34	59	50
310	1	9	19	17	14
311	12	115	117	118	119
312	1	30	29	31	32
313	1	98	97	99	130
314	1	73	72	87	89
315	1	79	83	85	86
316	1	100	105	117	118
317	13	34	59	50	49
318	17	101	100	127	129
319	1	67	89	87	72
320	17	51	50	59	60
321	1	66	67	89	90
322	17	122	119	118	123
323	4	70	72	73	74
324	12	101	100	99	130
325	13	99	100	101	102
326	17	55	50	59	60
327	2	23	2	1	25
328	1	75	77	79	80
329	13	105	100	127	128
330	1	8	9	19	17
331	17	119	118	123	125
332	12	35	34	33	62
333	1	10	12	14	17
334	1	8	7	21	22
335	9	46	45	92	94
336	1	100	99	130	131
337	1	5	7	21	22
338	1	97	95	94	132
339	12	39	49	50	59
340	13	49	50	55	58
341	2	3	2	1	66
342	1	76	75	77	79
343	1	77	79	83	84
344	17	35	34	59	61
345	1	45	44	47	49
346	14	35	34	59	50
346	15	35	34	59	50
346	16	35	34	59	50
347	17	121	119	118	123
348	1	41	40	42	43
349	1	108	110	115	116
350	13	117	118	127	129
351	17	53	51	50	55
352	1	92	94	132	133
353	13	117	118	123	124
354	3	25	1	66	67
355	17	52	51	50	55
356	1	94	95	97	98
357	9	44	45	92	93
358	4	9	8	7	21
359	1	106	108	110	111
360	1	107	106	108	110
361	1	66	67	89	87
362	1	15	14	17	19
363	1	95	94	132	133
364	13	33	34	59	60
365	1	66	67	68	70
366	1	4	3	5	6
367	9	46	45	44	47
368	1	34	33	62	64
369	17	53	51	50	59
370	9	108	110	111	112
371	1	109	108	110	111
372	1	67	68	70	72

Impropers

2	1	85	74	83	86
5	1	94	92	95	132
7	1	110	111	115	108
11	1	132	94	130	133
14	1	79	80	83	77
16	1	19	17	20	9
18	1	14	15	17	12
19	1	23	2	21	24
23	1	77	78	79	75
28	1	7	8	21	5
32	1	79	77	80	83
33	1	2	3	23	1
34	1	29	28	30	31
35	1	85	83	86	74
38	1	132	133	94	130
45	1	95	94	96	97
53	1	97	95	98	99
59	1	17	14	18	19
71	1	39	49	34	40
72	1	5	6	7	3
77	1	28	26	29	64
78	1	97	98	99	95
83	1	75	77	74	76
87	1	31	32	33	29
88	1	106	105	107	108
89	1	108	106	109	110
92	1	67	66	68	89
96	1	99	130	97	100
98	1	17	19	14	18
110	1	14	12	15	17
114	1	64	28	62	65
115	1	68	70	67	69
118	1	94	95	132	92
119	1	87	89	72	88
120	1	3	2	4	5
131	2	66	91	1	67
146	2	15	16	26	14
149	1	40	41	42	39
161	1	23	21	24	2
164	1	31	33	29	32
170	3	111	112	113	110
172	2	1	25	66	2
174	1	97	99	95	98
184	1	85	86	74	83
187	1	9	19	8	10
190	1	33	62	31	34
197	1	12	14	10	13
200	1	28	29	64	26
203	1	14	17	12	15
204	1	17	18	19	14
208	1	106	108	105	107
222	1	33	31	34	62
223	1	68	67	69	70
226	1	12	10	13	14
230	2	1	2	25	66
232	1	26	27	28	15
234	1	12	13	14	10
242	1	95	97	94	96
246	2	80	81	82	79
251	1	130	132	99	131
256	1	110	115	108	111
257	1	74	85	73	75
260	1	31	29	32	33
271	1	74	73	75	85
273	1	28	64	26	29
276	3	111	110	112	113
277	1	108	109	110	106
282	1	40	42	39	41
285	1	2	23	1	3
288	1	10	9	11	12
292	1	130	99	131	132
301	1	42	44	40	43
303	1	64	65	28	62
306	1	47	49	44	48
307	1	42	40	43	44
309	1	89	67	87	90
319	1	49	50	39	47
323	1	105	117	100	106
328	1	70	72	68	71
330	1	115	116	117	110
333	1	110	108	111	115
335	1	92	93	94	45
338	1	39	40	49	34
341	1	39	34	40	49
344	1	67	68	89	66
345	2	66	1	67	91
348	1	9	8	10	19
349	1	108	110	106	109
351	1	72	87	70	73
355	3	111	113	110	112
357	1	68	69	70	67
360	1	115	117	110	116
362	1	33	34	62	31
372	1	40	39	41	42
373	1	75	74	76	77
378	1	67	89	66	68
380	1	89	87	90	67
384	1	49	39	47	50
385	1	117	115	118	105
387	1	5	7	3	6
389	1	87	88	89	72
390	1	2	1	3	23
392	2	80	79	81	82
394	1	105	106	117	100
405	1	21	7	22	23
415	1	75	76	77	74
419	1	3	5	2	4
421	1	23	24	2	21
423	1	77	75	78	79
424	1	99	97	100	130
430	1	83	79	84	85
431	1	72	73	87	70
436	1	45	46	92	44
437	2	15	14	16	26
438	1	106	107	108	105
442	1	99	100	130	97
445	1	64	62	65	28
446	1	70	71	72	68
458	1	42	43	44	40
461	1	21	22	23	7
464	1	132	130	133	94
479	1	47	44	48	49
481	1	49	47	50	39
483	1	62	33	63	64
484	1	95	96	97	94
490	1	29	30	31	28
491	1	10	12	9	11
493	1	83	84	85	79
502	1	7	5	8	21
508	1	89	90	67	87
511	1	92	94	45	93
515	1	117	105	115	118
527	1	83	85	79	84
528	1	9	10	19	8
532	2	15	26	14	16
533	1	26	28	15	27
535	1	47	48	49	44
537	1	45	44	46	92
541	1	29	31	28	30
544	1	45	92	44	46
545	1	92	45	93	94
546	1	117	118	105	115
551	1	105	100	106	117
552	1	21	23	7	22
553	1	3	4	5	2
562	2	1	66	2	25
565	2	66	67	91	1
566	1	72	70	73	87
569	1	130	131	132	99
570	1	19	20	9	17
574	1	10	11	12	9
577	1	19	9	17	20
581	1	115	110	116	117
586	2	80	82	79	81
589	1	62	63	64	33
591	1	62	64	33	63
596	1	94	132	92	95
597	1	87	72	88	89
598	1	7	21	5	8
602	1	44	42	45	47
608	1	44	45	47	42
611	1	74	75	85	73
612	1	44	47	42	45
614	1	70	68	71	72
616	1	79	83	77	80
619	1	26	15	27	28
622	1	5	3	6	7
624	1	77	79	75	78
