Title

10500 atoms
11375 bonds
20750 angles
41875 dihedrals
9750 impropers

9 atom types
13 bond types
6 angle types
13 dihedral types
2 improper types
-8.283760086 84.42775697 xlo xhi
-8.245941534 84.175273 ylo yhi
-8.342509383 85.34773366 zlo zhi
0.0 0.0 0.0 xy xz yz

Masses

1	15.99943
2	12.01078
3	1.007947
4	12.01078
5	1.007947
6	15.99943
7	15.99943
8	1.007947
9	35.4532


Pair Coeffs

1	0.16846514	3.0251065
2	0.086879315	3.4806469
3	0.015611343	2.5725815
4	0.10884061	3.3795318
5	0.015779483	2.6445434
6	0.2102061	3.0398122
7	0.20947353	2.99716
8	1.2326e-05	0.53453923
9	0.2656001	3.3075278

Bond Coeffs

1 harmonic	425.69104206635	1.362945806494
2 harmonic	300.03137914615	1.451203938761
3 harmonic	360.7852444772	1.387193227181
4 harmonic	397.2545789619	1.085358495916
5 harmonic	289.73813263395	1.498646816465
6 harmonic	264.62148576755	1.52190126495
7 harmonic	301.15400723785	1.345741232799
8 harmonic	370.04670688625	1.093899492634
9 harmonic	582.698766451	1.225198386222
10 harmonic	279.1350963404	1.454628925034
11 harmonic	385.7604595587	1.369745182308
12 harmonic	543.5267831885	0.9716763312559
13 harmonic	218.0227703685	1.746066037062


Angle Coeffs

1 harmonic	57.8982893754	126.8062420451
2 harmonic	65.09061609600001	110.3538806181
3 harmonic	34.066775159195	129.1835929926
4 harmonic	53.20531626545	116.5475862634
5 harmonic	201.41175231035	127.4691416191
6 harmonic	48.776492647595	115.6030999533


Dihedral Coeffs

1 fourier 1	3.661930099076	2	180
2 fourier 1	1.532232714475	2	180
3 fourier 1	0.457973137376	1	0
4 fourier 1	0.02664938770063	3	0
5 fourier 1	0.1155372516788	3	0
6 fourier 1	0.1040663847541	3	0
7 fourier 1	0.09223874044423	3	0
8 fourier 1	0.3159935921949	2	180
9 fourier 1	0.3247796806857	1	180
10 fourier 1	2.779853741805	2	180
11 fourier 1	0.9974165607242	2	180
12 fourier 1	0.1911926717192	3	0
13 fourier 1	0.8283030590042	2	180


Improper Coeffs

1 0.3666666666666667	-1	2
2 3.5	-1	2


Atoms

1	4	1	-0.031969501	1.0096999	2.1900937	-4.3181883
2	4	2	0.2728228	1.1546946	2.2853545	-2.9358161
3	4	2	-0.32933503	0.27083013	1.7111276	-2.1097064
4	4	3	0.22362386	-0.57227963	1.1603851	-2.5058511
5	4	2	-0.17299744	0.44077496	1.8209147	-0.64783279
6	4	3	0.20593251	-0.28362608	1.3217181	-0.017801912
7	4	2	-0.2130321	1.4674871	2.5191336	-0.10888802
8	4	4	-0.029160089	1.6357259	2.5621415	1.4268411
9	4	2	-0.21303211	2.0966909	1.1605481	1.860718
10	4	2	-0.17324586	1.222497	0.17716096	2.1737464
11	4	3	0.2059325	0.15528627	0.33812937	2.1576429
12	4	2	-0.28557828	1.6975377	-1.1789589	2.517213
13	4	3	0.2228955	0.98001583	-1.9385499	2.8009977
14	4	2	0.43307191	3.0011474	-1.4705446	2.4685656
15	4	1	-0.44400278	3.4378418	-2.7511624	2.794397
16	4	2	-0.28557825	3.9673351	-0.43097731	2.0593711
17	4	3	0.22289552	5.0200684	-0.67022659	1.9866629
18	4	2	-0.17324586	3.5428023	0.80292043	1.760712
19	4	3	0.20593253	4.2679921	1.5360109	1.4358794
20	4	4	-0.1281251	0.3062005	3.0664424	2.1056613
21	4	5	0.12201952	-0.50331369	3.265574	1.3695591
22	4	5	0.12201952	-0.10415148	2.3819974	2.8756823
23	4	4	-0.13107121	0.69737088	4.4037097	2.7611426
24	4	5	0.13644846	-0.15613169	5.0963986	2.927577
25	4	4	-0.1564742	1.5075865	4.1023952	4.0279501
26	4	5	0.12411839	1.0186953	3.3402808	4.6731912
27	4	5	0.12411839	1.6611885	5.0344793	4.6174096
28	4	4	-0.15623838	2.8355271	3.6005887	3.4563646
29	4	5	0.12275392	3.0720512	2.5781367	3.8157561
30	4	5	0.12275392	3.6642217	4.2779927	3.7607592
31	4	4	-0.096374414	2.617519	3.6863897	1.9241402
32	4	5	0.13631111	3.5887261	3.7658383	1.4007181
33	4	4	-0.13472144	1.7585295	4.9273207	1.827057
34	4	5	0.12914653	2.2665501	5.8421088	2.2128028
35	4	5	0.12914653	1.3719363	5.1249479	0.80170138
36	4	2	-0.17299741	2.4568113	3.1325287	-1.050432
37	4	3	0.20593253	3.316354	3.6769956	-0.69959272
38	4	2	-0.32933497	2.299723	3.0233998	-2.3756079
39	4	3	0.22362384	3.0225927	3.477179	-3.0427457
40	5	2	0.62624198	4.4556188	-3.0030414	2.7616582
41	5	6	-0.51000309	4.938941	-3.4524145	1.7361396
42	1	1	-0.031969501	0.2363422	1.6903309	-4.7414754
43	1	2	0.2728228	-0.53996872	0.78998134	-4.0142712
44	1	2	-0.32933503	-0.2902554	0.55299613	-2.7206324
45	1	3	0.22362386	0.52150341	1.0630858	-2.2157382
46	1	2	-0.17299744	-1.1227979	-0.40291785	-1.9658672
47	1	3	0.20593251	-0.90095486	-0.54547332	-0.91660577
48	1	2	-0.2130321	-2.1324526	-1.0799101	-2.5605208
49	1	4	-0.029160089	-3.0115585	-2.0316951	-1.7185273
50	1	2	-0.21303211	-3.8758653	-1.1453714	-0.80670045
51	1	2	-0.13572697	-3.4614027	-0.74877695	0.4183851
52	1	3	0.2059325	-2.5111964	-1.0603168	0.82559499
53	1	2	-0.42175364	-4.2848393	0.16122898	1.2393616
54	1	3	0.22869292	-3.9490982	0.43276116	2.2325369
55	1	2	0.42641202	-5.4303655	0.65483689	0.75941689
56	1	7	-0.65247613	-6.1988324	1.5118756	1.5420031
57	1	8	0.43114722	-7.0680468	1.9003738	1.1964188
58	1	2	-0.42175361	-5.8662697	0.29310694	-0.60490489
59	1	3	0.22869294	-6.7759423	0.71679797	-1.0117558
60	1	2	-0.13572697	-5.1302124	-0.54195998	-1.3470207
61	1	3	0.20593253	-5.4577288	-0.76731922	-2.3533647
62	1	4	-0.1281251	-2.1098313	-3.0825357	-0.96727502
63	1	5	0.12201952	-1.0250902	-2.9298442	-1.1542458
64	1	5	0.12201952	-2.2592353	-3.1131677	0.13122856
65	1	4	-0.13107121	-2.5156681	-4.4376311	-1.5783936
66	1	5	0.13644846	-1.7374297	-5.2261929	-1.4913291
67	1	4	-0.1564742	-3.876416	-4.8412563	-1.0011338
68	1	5	0.12411839	-3.9123655	-4.7492884	0.10723595
69	1	5	0.12411839	-4.1214699	-5.8883481	-1.286569
70	1	4	-0.15623838	-4.8284526	-3.8577736	-1.6869195
71	1	5	0.12275392	-5.394211	-3.256948	-0.94593969
72	1	5	0.12275392	-5.5594524	-4.4100019	-2.31874
73	1	4	-0.096374414	-3.8841892	-3.0157859	-2.5823553
74	1	5	0.13631111	-4.4466903	-2.5735675	-3.426621
75	1	4	-0.13472144	-2.8733584	-4.0625085	-2.9933709
76	1	5	0.12914653	-3.325346	-4.905526	-3.5668566
77	1	5	0.12914653	-2.0089595	-3.6514702	-3.5637217
78	1	2	-0.17299741	-2.4086582	-0.7827132	-4.0017628
79	1	3	0.20593253	-3.2133328	-1.2569637	-4.5388497
80	1	2	-0.32933497	-1.6542985	0.091020029	-4.6793413
81	1	3	0.22362384	-1.8642993	0.29174499	-5.7224324
82	2	2	0.46582765	5.0774326	-2.8643361	3.6381053
83	2	6	-0.59050411	4.6165705	-2.3334837	4.6346815
84	2	9	-0.091829008	6.746455	-3.4017924	3.6233127
85	4	1	-0.031969501	4.8712304	0.80347681	16.461765
86	4	2	0.2728228	3.8928151	-0.10512359	16.859508
87	4	2	-0.32933503	2.6724264	0.31153292	17.220699
88	4	3	0.22362386	2.4265825	1.3653158	17.207123
89	4	2	-0.17299744	1.6476432	-0.66507481	17.637911
90	4	3	0.20593251	0.66803957	-0.28662229	17.898762
91	4	2	-0.2130321	1.9184658	-1.9901669	17.691717
92	4	4	-0.029160089	0.79856517	-2.9807977	18.082985
93	4	2	-0.21303211	-0.18541918	-3.0249689	16.901873
94	4	2	-0.17324586	-1.2325698	-2.1748562	16.801694
95	4	3	0.2059325	-1.4422459	-1.4381947	17.56227
96	4	2	-0.28557828	-2.1168421	-2.1968336	15.618363
97	4	3	0.2228955	-2.970667	-1.5321521	15.579228
98	4	2	0.43307191	-1.8606056	-3.0224999	14.598851
99	4	1	-0.44400278	-2.7002794	-3.0352755	13.48906
100	4	2	-0.28557825	-0.68052389	-3.9089707	14.655735
101	4	3	0.22289552	-0.44974153	-4.5557997	13.819597
102	4	2	-0.17324586	0.11553992	-3.9023297	15.731917
103	4	3	0.20593253	0.98871584	-4.5398208	15.734552
104	4	4	-0.1281251	0.16382038	-2.5661113	19.464249
105	4	5	0.12201952	0.61010187	-1.6363121	19.880325
106	4	5	0.12201952	-0.93604971	-2.4264574	19.440403
107	4	4	-0.13107121	0.51472778	-3.7303564	20.408892
108	4	5	0.13644846	0.52225102	-3.45644	21.486342
109	4	4	-0.1564742	-0.4006255	-4.9151713	20.076653
110	4	5	0.12411839	-1.4698314	-4.618632	20.005716
111	4	5	0.12411839	-0.29384055	-5.7119587	20.847084
112	4	4	-0.15623838	0.1517396	-5.3889733	18.730417
113	4	5	0.12275392	-0.62854012	-5.3711403	17.942153
114	4	5	0.12275392	0.53528646	-6.4298447	18.818426
115	4	4	-0.096374414	1.3262057	-4.4128064	18.465221
116	4	5	0.13631111	2.0610404	-4.8720264	17.777718
117	4	4	-0.13472144	1.8425967	-4.1990258	19.87051
118	4	5	0.12914653	2.2015956	-5.1386352	20.352149
119	4	5	0.12914653	2.6363765	-3.4214395	19.942191
120	4	2	-0.17299741	3.2812032	-2.4359648	17.26075
121	4	3	0.20593253	3.5635472	-3.474432	17.246128
122	4	2	-0.32933497	4.203915	-1.5447533	16.877316
123	4	3	0.22362384	5.1865692	-1.8841455	16.572795
124	5	2	0.62624198	-2.5178097	-3.6735248	12.676824
125	5	6	-0.51000309	-1.8304466	-3.2914931	11.744725
126	1	1	-0.031969501	4.6952932	1.8011552	16.435291
127	1	2	0.2728228	3.4013031	2.3178964	16.461412
128	1	2	-0.32933503	2.3371404	1.508195	16.524352
129	1	3	0.22362386	2.4666638	0.43300314	16.559681
130	1	2	-0.17299744	0.97431391	2.0725642	16.551925
131	1	3	0.20593251	0.14451726	1.382521	16.627845
132	1	2	-0.2130321	0.76359392	3.4077318	16.486667
133	1	4	-0.029160089	-0.67830612	3.9566991	16.571721
134	1	2	-0.21303211	-1.1450258	3.7520156	18.022342
135	1	2	-0.13572697	-1.7544286	2.6156954	18.431372
136	1	3	0.2059325	-1.9667668	1.8068585	17.74839
137	1	2	-0.42175364	-2.125415	2.4219763	19.847353
138	1	3	0.22869292	-2.6474112	1.5201044	20.142304
139	1	2	0.42641202	-1.8121268	3.3457949	20.760937
140	1	7	-0.65247613	-2.1667603	3.1529449	22.093057
141	1	8	0.43114722	-1.935703	3.8382974	22.802139
142	1	2	-0.42175361	-1.0813792	4.5616597	20.348729
143	1	3	0.22869294	-0.79492517	5.2973573	21.089836
144	1	2	-0.13572697	-0.75540621	4.7476749	19.064598
145	1	3	0.20593253	-0.195025	5.6330633	18.794705
146	1	4	-0.1281251	-1.5843971	3.276545	15.477122
147	1	5	0.12201952	-1.0369072	2.5191329	14.875858
148	1	5	0.12201952	-2.498549	2.7909943	15.875288
149	1	4	-0.13107121	-1.9839984	4.433922	14.541573
150	1	5	0.13644846	-2.2639262	4.1121411	13.515336
151	1	4	-0.1564742	-3.0553173	5.2756664	15.242658
152	1	5	0.12411839	-3.8755964	4.6537749	15.665301
153	1	5	0.12411839	-3.4891618	6.0159371	14.534347
154	1	4	-0.15623838	-2.2523567	5.9826123	16.337827
155	1	5	0.12275392	-2.6583023	5.7609801	17.345901
156	1	5	0.12275392	-2.2831684	7.0844357	16.184368
157	1	4	-0.096374414	-0.81112612	5.4570744	16.116363
158	1	5	0.13631111	-0.073042251	6.1708945	16.529209
159	1	4	-0.13472144	-0.78009559	5.3377174	14.609336
160	1	5	0.12914653	-0.93683946	6.3122643	14.090157
161	1	5	0.12914653	0.14490169	4.8564567	14.216645
162	1	2	-0.17299741	1.9682612	4.2956342	16.439761
163	1	3	0.20593253	1.8858055	5.3696702	16.416853
164	1	2	-0.32933497	3.202438	3.7778675	16.422261
165	1	3	0.22362384	4.0633436	4.4334561	16.383852
166	2	2	0.46582765	-2.9395779	-4.6715399	12.665479
167	2	6	-0.59050411	-3.5524504	-5.0853811	13.635265
168	2	9	-0.091829008	-2.739949	-5.6920534	11.253596
169	4	1	-0.031969501	0.16241698	-3.7254434	36.767037
170	4	2	0.2728228	-0.32630056	-3.3218181	35.526354
171	4	2	-0.32933503	-0.54754332	-2.0278895	35.261382
172	4	3	0.22362386	-0.347232	-1.2728636	36.01031
173	4	2	-0.17299744	-1.0641431	-1.6180667	33.941087
174	4	3	0.20593251	-1.2058463	-0.5603596	33.762009
175	4	2	-0.2130321	-1.3501384	-2.5302928	32.982881
176	4	4	-0.029160089	-1.8383709	-2.0510925	31.597018
177	4	2	-0.21303211	-0.62937897	-1.4025435	30.90209
178	4	2	-0.17324586	-0.33414045	-0.090063343	31.041668
179	4	3	0.2059325	-0.95046967	0.5723651	31.630256
180	4	2	-0.28557828	0.87531897	0.48574044	30.41849
181	4	3	0.2228955	1.0694512	1.5467299	30.513168
182	4	2	0.43307191	1.7294814	-0.29690023	29.751656
183	4	1	-0.44400278	2.8656258	0.25593372	29.168217
184	4	2	-0.28557825	1.4637217	-1.7461408	29.648058
185	4	3	0.22289552	2.1681364	-2.3895796	29.137607
186	4	2	-0.17324586	0.36201694	-2.2699097	30.199277
187	4	3	0.20593253	0.20726939	-3.3378932	30.133683
188	4	4	-0.1281251	-3.0961326	-1.1155939	31.757118
189	4	5	0.12201952	-3.376718	-0.95115287	32.820624
190	4	5	0.12201952	-2.990327	-0.1190887	31.282178
191	4	4	-0.13107121	-4.2372754	-1.8925404	31.075135
192	4	5	0.13644846	-5.2536591	-1.6122358	31.427808
193	4	4	-0.1564742	-4.0559965	-1.7835364	29.556156
194	4	5	0.12411839	-3.8796079	-0.73732105	29.223756
195	4	5	0.12411839	-4.951839	-2.186339	29.031701
196	4	4	-0.15623838	-2.8380333	-2.6757769	29.306319
197	4	5	0.12275392	-2.0167016	-2.1141257	28.815935
198	4	5	0.12275392	-3.1169461	-3.5301761	28.650211
199	4	4	-0.096374414	-2.4792897	-3.191681	30.723268
200	4	5	0.13631111	-1.9175133	-4.1421838	30.656353
201	4	4	-0.13472144	-3.8558943	-3.3278143	31.334518
202	4	5	0.12914653	-4.5044593	-4.0561852	30.793628
203	4	5	0.12914653	-3.841127	-3.5815536	32.418613
204	4	2	-0.17299741	-1.0726557	-3.968687	33.291986
205	4	3	0.20593253	-1.2446391	-4.7502446	32.572309
206	4	2	-0.32933497	-0.59789288	-4.332533	34.489857
207	4	3	0.22362384	-0.40690878	-5.3782631	34.698429
208	5	2	0.62624198	3.5505205	-0.33912826	28.641714
209	5	6	-0.51000309	4.4944016	-0.84345478	29.226495
210	1	1	-0.031969501	0.36241353	-3.0603126	37.50502
211	1	2	0.2728228	0.49162853	-1.6968644	37.247286
212	1	2	-0.32933503	0.35356576	-1.2140673	36.006373
213	1	3	0.22362386	0.13457465	-1.8793366	35.179619
214	1	2	-0.17299744	0.49291308	0.23242535	35.751794
215	1	3	0.20593251	0.34915211	0.58187371	34.738037
216	1	2	-0.2130321	0.78860685	1.0977314	36.749364
217	1	4	-0.029160089	0.87306832	2.6104939	36.445899
218	1	2	-0.21303211	-0.56414483	3.0905825	36.185212
219	1	2	-0.13572697	-1.1214079	3.0659713	34.952835
220	1	3	0.2059325	-0.57063776	2.7318724	34.086349
221	1	2	-0.42175364	-2.5278609	3.4664843	34.748775
222	1	3	0.22869292	-2.938844	3.4752871	33.746845
223	1	2	0.42641202	-3.292231	3.8062599	35.791137
224	1	7	-0.65247613	-4.6168311	4.1822561	35.587275
225	1	8	0.43114722	-5.214668	4.439652	36.363311
226	1	2	-0.42175361	-2.72527	3.7696836	37.154754
227	1	3	0.22869294	-3.3493353	4.0109314	38.006158
228	1	2	-0.13572697	-1.4475121	3.420677	37.342856
229	1	3	0.20593253	-1.0659934	3.3742733	38.354326
230	1	4	-0.1281251	1.8878354	2.8732088	35.269894
231	1	5	0.12201952	2.3256319	1.9365438	34.86255
232	1	5	0.12201952	1.464963	3.443406	34.417824
233	1	4	-0.13107121	3.0215143	3.6888198	35.92105
234	1	5	0.13644846	3.9942599	3.6199324	35.388053
235	1	4	-0.1564742	2.5275536	5.1242145	36.129429
236	1	5	0.12411839	2.0530426	5.5474552	35.216225
237	1	5	0.12411839	3.3705368	5.7814333	36.438247
238	1	4	-0.15623838	1.5222016	4.9624569	37.272677
239	1	5	0.12275392	0.5147604	5.3234419	36.98134
240	1	5	0.12275392	1.8566002	5.5426728	38.161519
241	1	4	-0.096374414	1.5759809	3.4442784	37.580286
242	1	5	0.13631111	1.247245	3.2497338	38.618956
243	1	4	-0.13472144	3.0388294	3.1547867	37.330067
244	1	5	0.12914653	3.7192187	3.7259357	38.004393
245	1	5	0.12914653	3.2963739	2.0718776	37.379227
246	1	2	-0.17299741	0.91619218	0.53946379	38.132784
247	1	3	0.20593253	1.1202217	1.1661244	38.985161
248	1	2	-0.32933497	0.78154267	-0.7729654	38.358572
249	1	3	0.22362384	0.88100436	-1.1615956	39.364308
250	2	2	0.46582765	3.4199413	-0.50580494	27.579067
251	2	6	-0.59050411	2.429685	-0.075814086	27.011738
252	2	9	-0.091829008	4.6314675	-1.3947331	26.675339
253	4	1	-0.031969501	-1.0074561	3.5074079	53.615265
254	4	2	0.2728228	-1.1773711	2.1620051	53.295779
255	4	2	-0.32933503	-1.1602257	1.7494583	52.02184
256	4	3	0.22362386	-1.0115925	2.4584767	51.217923
257	4	2	-0.17299744	-1.3403913	0.32010016	51.701708
258	4	3	0.20593251	-1.295914	0.027727044	50.660827
259	4	2	-0.2130321	-1.551948	-0.59783391	52.67369
260	4	4	-0.029160089	-1.6818903	-2.0907543	52.295641
261	4	2	-0.21303211	-0.2805088	-2.5639564	51.874438
262	4	2	-0.17324586	0.15918027	-2.474297	50.598551
263	4	3	0.2059325	-0.4649935	-2.0874439	49.807438
264	4	2	-0.28557828	1.5366046	-2.8715034	50.241307
265	4	3	0.2228955	1.8524802	-2.8261737	49.206649
266	4	2	0.43307191	2.390533	-3.2739417	51.187688
267	4	1	-0.44400278	3.6857155	-3.6461493	50.840105
268	4	2	-0.28557825	1.9533471	-3.3109371	52.598063
269	4	3	0.22289552	2.6499409	-3.6045548	53.372221
270	4	2	-0.17324586	0.70203459	-2.9651849	52.924562
271	4	3	0.20593253	0.41757238	-2.9732377	53.967565
272	4	4	-0.1281251	-2.8047403	-2.2802278	51.206576
273	4	5	0.12201952	-3.2671047	-1.3182009	50.894268
274	4	5	0.12201952	-2.4694066	-2.8028942	50.287796
275	4	4	-0.13107121	-3.882384	-3.1224317	51.913917
276	4	5	0.13644846	-4.9001424	-3.018628	51.478741
277	4	4	-0.1564742	-3.3873942	-4.5717395	51.994745
278	4	5	0.12411839	-3.0052685	-4.9447453	51.019544
279	4	5	0.12411839	-4.2069695	-5.2394725	52.34441
280	4	4	-0.15623838	-2.279208	-4.4816932	53.046296
281	4	5	0.12275392	-1.3067972	-4.8310217	52.642687
282	4	5	0.12275392	-2.5363892	-5.1088122	53.928819
283	4	4	-0.096374414	-2.2861592	-2.9830089	53.441895
284	4	5	0.13631111	-1.8591236	-2.8496536	54.453519
285	4	4	-0.13472144	-3.762601	-2.6695104	53.346835
286	4	5	0.12914653	-4.3839963	-3.2735799	54.048754
287	4	5	0.12914653	-4.000356	-1.5898508	53.479775
288	4	2	-0.17299741	-1.5433292	-0.11835132	54.091979
289	4	3	0.20593253	-1.6740053	-0.79066056	54.922202
290	4	2	-0.32933497	-1.3728852	1.179097	54.37527
291	4	3	0.22362384	-1.3738122	1.5096757	55.406893
292	5	2	0.62624198	4.3732701	-3.9635671	51.565984
293	5	6	-0.51000309	5.1020859	-3.151514	52.110614
294	1	1	-0.031969501	-0.869352	4.2131727	52.901234
295	1	2	0.2728228	-0.50412035	3.8764646	51.599179
296	1	2	-0.32933503	-0.32292963	2.5988683	51.242896
297	1	3	0.22362386	-0.46170519	1.8026499	51.964588
298	1	2	-0.17299744	0.062967331	2.2604876	49.859729
299	1	3	0.20593251	0.17473825	1.2139085	49.609398
300	1	2	-0.2130321	0.26957099	3.222706	48.930867
301	1	4	-0.029160089	0.62116935	2.8195475	47.481206
302	1	2	-0.21303211	-0.65439622	2.2200676	46.86673
303	1	2	-0.13572697	-0.95160264	0.90374596	46.960893
304	1	3	0.2059325	-0.29004015	0.20511277	47.450807
305	1	2	-0.42175364	-2.219658	0.37255169	46.422349
306	1	3	0.22869292	-2.4164978	-0.69106756	46.475426
307	1	2	0.42641202	-3.1228328	1.1964902	45.882325
308	1	7	-0.65247613	-4.3149188	0.68494228	45.377599
309	1	8	0.43114722	-5.0146194	1.2918741	44.967787
310	1	2	-0.42175361	-2.8509443	2.6477299	45.835259
311	1	3	0.22869294	-3.5934045	3.3237981	45.430005
312	1	2	-0.13572697	-1.6974115	3.1317258	46.309562
313	1	3	0.20593253	-1.5362542	4.2014877	46.289074
314	1	4	-0.1281251	1.8771844	1.8687183	47.470816
315	1	5	0.12201952	2.2540278	1.643116	48.491614
316	1	5	0.12201952	1.7163414	0.90182421	46.951956
317	1	4	-0.13107121	2.9590997	2.6761091	46.727827
318	1	5	0.13644846	3.9998289	2.3698988	46.969038
319	1	4	-0.1564742	2.6364882	2.6546194	45.230083
320	1	5	0.12411839	2.4175008	1.629431	44.856898
321	1	5	0.12411839	3.4830981	3.0800313	44.646814
322	1	4	-0.15623838	1.4101061	3.5671733	45.145547
323	1	5	0.12275392	0.54109503	3.0391921	44.702625
324	1	5	0.12275392	1.6366473	4.4554612	44.514566
325	1	4	-0.096374414	1.1910197	4.0042306	46.616385
326	1	5	0.13631111	0.63734536	4.9616591	46.655428
327	1	4	-0.13472144	2.6200567	4.0959303	47.101963
328	1	5	0.12914653	3.2238935	4.8497433	46.544285
329	1	5	0.12914653	2.7104714	4.2885617	48.195652
330	1	2	-0.17299741	0.03926452	4.6430836	49.344727
331	1	3	0.20593253	0.15306601	5.4642717	48.656558
332	1	2	-0.32933497	-0.31779696	4.9432954	50.599303
333	1	3	0.22362384	-0.47634211	5.9758942	50.883966
334	2	2	0.46582765	4.4363355	-5.0120566	51.83196
335	2	6	-0.59050411	3.6487772	-5.8108108	51.353311
336	2	9	-0.091829008	5.6696447	-5.5602594	52.951396
337	4	1	-0.031969501	-3.8634267	0.57837149	64.00212
338	4	2	0.2728228	-3.4373981	0.014527305	65.202799
339	4	2	-0.32933503	-2.1540467	-0.31954955	65.389378
340	4	3	0.22362386	-1.4250877	-0.15393142	64.606901
341	4	2	-0.17299744	-1.7200031	-0.91452386	66.668292
342	4	3	0.20593251	-0.66967162	-1.1472678	66.784598
343	4	2	-0.2130321	-2.6015798	-1.1603461	67.66554
344	4	4	-0.029160089	-2.0927415	-1.7350031	69.006984
345	4	2	-0.21303211	-1.3115883	-0.6078804	69.703113
346	4	2	-0.17324586	0.011695594	-0.41446058	69.50122
347	4	3	0.2059325	0.58961126	-1.0606026	68.858085
348	4	2	-0.28557828	0.71675468	0.72156033	70.129744
349	4	3	0.2228955	1.783756	0.83290569	69.983251
350	4	2	0.43307191	0.042848809	1.6114806	70.865053
351	4	1	-0.44400278	0.71694391	2.6777478	71.452863
352	4	2	-0.28557825	-1.4159907	1.4597279	71.039459
353	4	3	0.22289552	-1.971821	2.1948879	71.606351
354	4	2	-0.17324586	-2.0566472	0.42426963	70.483299
355	4	3	0.20593253	-3.1288804	0.3537627	70.602391
356	4	4	-0.1281251	-1.2735639	-3.0574467	68.756294
357	4	5	0.12201952	-1.1883395	-3.3120093	67.67706
358	4	5	0.12201952	-0.2483732	-3.0493364	69.179029
359	4	4	-0.13107121	-2.1052753	-4.1560656	69.443496
360	4	5	0.13644846	-1.928326	-5.1784039	69.044124
361	4	4	-0.1564742	-1.9028307	-4.0387878	70.959182
362	4	5	0.12411839	-0.82977217	-3.959256	71.239163
363	4	5	0.12411839	-2.3501792	-4.9175331	71.476408
364	4	4	-0.15623838	-2.6775629	-2.7626917	71.295804
365	4	5	0.12275392	-2.0254509	-2.0073817	71.780336
366	4	5	0.12275392	-3.5167234	-2.9952725	71.988612
367	4	4	-0.096374414	-3.2352081	-2.3129484	69.921263
368	4	5	0.13631111	-4.1314634	-1.6792279	70.057831
369	4	4	-0.13472144	-3.515826	-3.6512936	69.275288
370	4	5	0.12914653	-4.2659834	-4.2580996	69.834548
371	4	5	0.12914653	-3.823551	-3.5772431	68.207727
372	4	2	-0.17299741	-4.0263765	-0.75703217	67.444603
373	4	3	0.20593253	-4.780931	-0.89124656	68.200235
374	4	2	-0.32933497	-4.4117361	-0.21182793	66.284031
375	4	3	0.22362384	-5.4476251	0.070099229	66.139186
376	5	2	0.62624198	0.20848864	3.3889924	72.032509
377	5	6	-0.51000309	-0.24616391	4.390795	71.506289
378	1	1	-0.031969501	-3.2233918	0.75052145	63.23548
379	1	2	0.2728228	-1.842377	0.76020011	63.422077
380	1	2	-0.32933503	-1.3086737	0.53926242	64.629706
381	1	3	0.22362386	-1.9457912	0.34501689	65.484347
382	1	2	-0.17299744	0.15566078	0.55246058	64.808925
383	1	3	0.20593251	0.54436079	0.34473688	65.796978
384	1	2	-0.2130321	0.9892908	0.81313434	63.775269
385	1	4	-0.029160089	2.5176053	0.76456978	63.997915
386	1	2	-0.21303211	2.890659	-0.71506033	64.186461
387	1	2	-0.13572697	2.8844116	-1.3124041	65.400151
388	1	3	0.2059325	2.6423274	-0.76797674	66.300575
389	1	2	-0.42175364	3.1778539	-2.7529541	65.537513
390	1	3	0.22869292	3.2049135	-3.1990068	66.523999
391	1	2	0.42641202	3.3988526	-3.5042945	64.454521
392	1	7	-0.65247613	3.6746227	-4.8613291	64.595609
393	1	8	0.43114722	3.8412002	-5.4497104	63.788174
394	1	2	-0.42175361	3.3381729	-2.8876534	63.113511
395	1	3	0.22869294	3.4825984	-3.4981557	62.230916
396	1	2	-0.13572697	3.0862279	-1.5800174	62.985195
397	1	3	0.20593253	3.0188241	-1.1599445	61.99032
398	1	4	-0.1281251	2.9238005	1.712024	65.189172
399	1	5	0.12201952	2.048824	2.2089146	65.66082
400	1	5	0.12201952	3.5008096	1.2143044	65.994967
401	1	4	-0.13107121	3.7949823	2.7989884	64.530383
402	1	5	0.13644846	3.8342352	3.7543635	65.09676
403	1	4	-0.1564742	5.1720468	2.198854	64.228209
404	1	5	0.12411839	5.6017278	1.6593354	65.101437
405	1	5	0.12411839	5.8794706	2.996721	63.910583
406	1	4	-0.15623838	4.8688084	1.2514737	63.064408
407	1	5	0.12275392	5.1602999	0.20843222	63.30362
408	1	5	0.12275392	5.427547	1.5697542	62.156101
409	1	4	-0.096374414	3.3462684	1.4383256	62.842282
410	1	5	0.13631111	3.0715419	1.1638136	61.805982
411	1	4	-0.13472144	3.1915994	2.9098075	63.153986
412	1	5	0.12914653	3.7809591	3.5657624	62.471172
413	1	5	0.12914653	2.1324821	3.2553079	63.172371
414	1	2	-0.17299741	0.37219823	1.034827	62.429222
415	1	3	0.20593253	0.96832572	1.2181975	61.550652
416	1	2	-0.32933497	-0.95682527	1.0144804	62.27154
417	1	3	0.22362384	-1.3877504	1.1809442	61.292243
418	2	2	0.46582765	0.087146031	3.2342021	73.098045
419	2	6	-0.59050411	0.46309047	2.1928166	73.609459
420	2	9	-0.091829008	-0.65079648	4.4801503	74.086866
421	4	1	-0.031969501	3.2575995	17.188098	-3.6968358
422	4	2	0.2728228	2.5689542	17.882265	-2.7043894
423	4	2	-0.32933503	1.3892982	17.441864	-2.2484636
424	4	3	0.22362386	0.95231545	16.534741	-2.6450203
425	4	2	-0.17299744	0.67425386	18.189097	-1.1956753
426	4	3	0.20593251	-0.26428711	17.784573	-0.84015545
427	4	2	-0.2130321	1.1726263	19.34035	-0.68739365
428	4	4	-0.029160089	0.41549719	20.060362	0.45144627
429	4	2	-0.21303211	0.58483723	19.194934	1.7114307
430	4	2	-0.17324586	-0.2751517	18.199276	2.0250157
431	4	3	0.2059325	-1.1389157	17.980495	1.4157901
432	4	2	-0.28557828	-0.043338521	17.340197	3.2043974
433	4	3	0.2228955	-0.76639281	16.574473	3.4558098
434	4	2	0.43307191	1.0546242	17.498605	3.9501667
435	4	1	-0.44400278	1.262992	16.684071	5.059205
436	4	2	-0.28557825	2.0434309	18.53288	3.5838397
437	4	3	0.22289552	2.949643	18.643911	4.1645513
438	4	2	-0.17324586	1.8307163	19.322719	2.5241997
439	4	3	0.20593253	2.584743	20.051587	2.2614592
440	4	4	-0.1281251	-1.0768482	20.332476	0.025285589
441	4	5	0.12201952	-1.3139172	19.935971	-0.9863444
442	4	5	0.12201952	-1.835219	19.930229	0.72732314
443	4	4	-0.13107121	-1.1842485	21.867708	-0.024533642
444	4	5	0.13644846	-1.9980324	22.246452	-0.68050161
445	4	4	-0.1564742	-1.2516277	22.394536	1.4141996
446	4	5	0.12411839	-1.9987571	21.849376	2.031263
447	4	5	0.12411839	-1.5003365	23.479884	1.4154388
448	4	4	-0.15623838	0.17702621	22.167901	1.9137297
449	4	5	0.12275392	0.19453271	21.521475	2.8150293
450	4	5	0.12275392	0.65139088	23.140651	2.1725747
451	4	4	-0.096374414	0.88736128	21.542747	0.68604573
452	4	5	0.13631111	1.9786048	21.714145	0.74380695
453	4	4	-0.13472144	0.20400368	22.278849	-0.44460611
454	4	5	0.12914653	0.362442	23.38212	-0.40702126
455	4	5	0.12914653	0.4789678	21.901142	-1.4553469
456	4	2	-0.17299741	2.5038137	19.801402	-1.1942387
457	4	3	0.20593253	2.9806966	20.690022	-0.81836125
458	4	2	-0.32933497	3.1498476	19.114865	-2.1450194
459	4	3	0.22362384	4.1102206	19.465021	-2.5036321
460	5	2	0.62624198	2.117973	16.789255	5.6578108
461	5	6	-0.51000309	3.1219159	16.145118	5.404016
462	1	1	-0.031969501	2.8914094	16.336122	-4.1055658
463	1	2	0.2728228	1.8675455	15.612681	-3.4969201
464	1	2	-0.32933503	1.3266796	16.021827	-2.3427608
465	1	3	0.22362386	1.6763241	16.928555	-1.863537
466	1	2	-0.17299744	0.24292629	15.24393	-1.7127418
467	1	3	0.20593251	-0.18172508	15.624403	-0.79328664
468	1	2	-0.2130321	-0.20990801	14.093548	-2.2631009
469	1	4	-0.029160089	-1.3823532	13.339616	-1.5962927
470	1	2	-0.21303211	-2.6445574	14.184716	-1.8343472
471	1	2	-0.13572697	-3.0327216	15.159392	-0.98039361
472	1	3	0.2059325	-2.4863742	15.371641	-0.07362799
473	1	2	-0.42175364	-4.2096844	16.000871	-1.2750677
474	1	3	0.22869292	-4.5229182	16.748377	-0.55675842
475	1	2	0.42641202	-4.8786416	15.850013	-2.4222225
476	1	7	-0.65247613	-5.9868335	16.648662	-2.6897465
477	1	8	0.43114722	-6.505702	16.553684	-3.5544127
478	1	2	-0.42175361	-4.4281552	14.841049	-3.4026763
479	1	3	0.22869294	-4.9454874	14.737739	-4.3483192
480	1	2	-0.13572697	-3.3705672	14.067065	-3.1337724
481	1	3	0.20593253	-3.0445304	13.356192	-3.8815293
482	1	4	-0.1281251	-1.0507476	13.047053	-0.084273343
483	1	5	0.12201952	-0.065156882	13.455648	0.22652711
484	1	5	0.12201952	-1.8096088	13.421494	0.63259007
485	1	4	-0.13107121	-0.98046063	11.509985	-0.00098425678
486	1	5	0.13644846	-0.37200419	11.128662	0.84721272
487	1	4	-0.1564742	-2.4089376	10.956999	-0.03888209
488	1	5	0.12411839	-3.0853639	11.477036	0.675431
489	1	5	0.12411839	-2.4074446	9.8681466	0.18986379
490	1	4	-0.15623838	-2.8172536	11.202507	-1.4938452
491	1	5	0.12275392	-3.727909	11.832249	-1.55909
492	1	5	0.12275392	-3.026065	10.234391	-2.0014491
493	1	4	-0.096374414	-1.5571137	11.86238	-2.1094723
494	1	5	0.13631111	-1.5385683	11.70952	-3.2053915
495	1	4	-0.13472144	-0.46147589	11.133514	-1.3647087
496	1	5	0.12914653	-0.46763731	10.032904	-1.5449177
497	1	5	0.12914653	0.55915148	11.533187	-1.5647573
498	1	2	-0.17299741	0.39319172	13.666627	-3.5653312
499	1	3	0.20593253	0.066822987	12.779573	-4.0825311
500	1	2	-0.32933497	1.371253	14.380517	-4.1357162
501	1	3	0.22362384	1.8000104	14.055991	-5.0755458
502	2	2	0.46582765	2.1096085	17.469499	6.5011663
503	2	6	-0.59050411	1.1380351	18.178546	6.7028086
504	2	9	-0.091829008	3.4932055	17.551936	7.5752136
505	4	1	-0.031969501	-1.4682153	12.91395	14.016025
506	4	2	0.2728228	-1.7916217	14.205969	14.424859
507	4	2	-0.32933503	-1.3458578	14.690952	15.590833
508	4	3	0.22362386	-0.72325949	14.083895	16.234987
509	4	2	-0.17299744	-1.6970703	16.062467	16.007492
510	4	3	0.20593251	-1.2958288	16.42194	16.945937
511	4	2	-0.2130321	-2.4916975	16.848478	15.244038
512	4	4	-0.029160089	-2.7891448	18.296565	15.694801
513	4	2	-0.21303211	-1.4858767	19.092726	15.513629
514	4	2	-0.17324586	-0.55248426	19.182252	16.488316
515	4	3	0.2059325	-0.69041572	18.717439	17.452698
516	4	2	-0.28557828	0.72053946	19.895157	16.256215
517	4	3	0.2228955	1.4353384	19.985428	17.064462
518	4	2	0.43307191	0.99390008	20.416131	15.055945
519	4	1	-0.44400278	2.1960066	21.085951	14.848266
520	4	2	-0.28557825	0.019321008	20.267488	13.956054
521	4	3	0.22289552	0.24928868	20.658592	12.973747
522	4	2	-0.17324586	-1.1413753	19.634417	14.165658
523	4	3	0.20593253	-1.823428	19.514273	13.335472
524	4	4	-0.1281251	-3.3753333	18.301304	17.157372
525	4	5	0.12201952	-3.4370734	17.282419	17.598819
526	4	5	0.12201952	-2.8197222	18.941479	17.872395
527	4	4	-0.13107121	-4.8085473	18.839033	16.990943
528	4	5	0.13644846	-5.504518	18.54062	17.804921
529	4	4	-0.1564742	-4.7331787	20.353881	16.763796
530	4	5	0.12411839	-4.0791369	20.862238	17.505397
531	4	5	0.12411839	-5.7518799	20.801101	16.809401
532	4	4	-0.15623838	-4.1670309	20.445029	15.344954
533	4	5	0.12275392	-3.221648	21.024859	15.321228
534	4	5	0.12275392	-4.8992422	20.943503	14.671412
535	4	4	-0.096374414	-3.9963528	18.960027	14.934784
536	4	5	0.13631111	-4.0053153	18.86121	13.833112
537	4	4	-0.13472144	-5.1896814	18.335028	15.6222
538	4	5	0.12914653	-6.1639135	18.741989	15.263067
539	4	5	0.12914653	-5.2096492	17.223372	15.561471
540	4	2	-0.17299741	-2.9589352	16.295005	13.933741
541	4	3	0.20593253	-3.5681849	16.868649	13.256916
542	4	2	-0.32933497	-2.6310363	15.052041	13.559307
543	4	3	0.22362384	-2.9813646	14.665571	12.609865
544	5	2	0.62624198	2.4324635	21.501244	13.914454
545	5	6	-0.51000309	3.0358235	20.837611	13.088154
546	1	1	-0.031969501	-0.89262905	12.302116	14.582926
547	1	2	0.2728228	-0.11080942	12.791851	15.627451
548	1	2	-0.32933503	-0.093742642	14.097649	15.921763
549	1	3	0.22362386	-0.69356805	14.796898	15.351393
550	1	2	-0.17299744	0.73931182	14.598642	17.031536
551	1	3	0.20593251	0.70384541	15.657639	17.250065
552	1	2	-0.2130321	1.5218602	13.765738	17.756258
553	1	4	-0.029160089	2.337313	14.326372	18.943019
554	1	2	-0.21303211	1.3281568	14.666816	20.051949
555	1	2	-0.13572697	0.72878554	15.876578	20.13639