Title

133 atoms
142 bonds
243 angles
389 dihedrals
168 impropers

10 atom types
14 bond types
9 angle types
20 dihedral types
3 improper types
-9.50399971 90.49600029 xlo xhi
-16.06299973 83.93700027 ylo yhi
-10.97399998 89.02600002 zlo zhi
0.0 0.0 0.0 xy xz yz

Masses

1	14.00672
2	12.01078
3	1.007947
4	15.99943
5	1.007947
6	15.99943
7	12.01078
8	1.007947
9	15.99943
10	1.007947


Pair Coeffs

1	0.16769152	3.206876
2	0.086879315	3.4806469
3	0.015611343	2.5725815
4	0.16846514	3.0251065
5	0.014090815	1.1034277
6	0.2102061	3.0398122
7	0.10884061	3.3795318
8	0.015779483	2.6445434
9	0.20947353	2.99716
10	1.2326e-05	0.53453923

Bond Coeffs

1 harmonic	390.03554688505	1.390160554689
2 harmonic	505.144496193	1.019481865027
3 harmonic	422.7150220147	1.421786517481
4 harmonic	360.7852444772	1.387193227181
5 harmonic	397.2545789619	1.085358495916
6 harmonic	425.69104206635	1.362945806494
7 harmonic	492.76746816345	1.381897776683
8 harmonic	582.698766451	1.225198386222
9 harmonic	279.1350963404	1.454628925034
10 harmonic	289.73813263395	1.498646816465
11 harmonic	264.62148576755	1.52190126495
12 harmonic	370.04670688625	1.093899492634
13 harmonic	385.7604595587	1.369745182308
14 harmonic	543.5267831885	0.9716763312559


Angle Coeffs

1 harmonic	57.8982893754	126.8062420451
2 harmonic	55.42182150775	117.3465570514
3 harmonic	63.44422595415	115.5071327674
4 harmonic	34.066775159195	129.1835929926
5 harmonic	65.09061609600001	110.3538806181
6 harmonic	53.20531626545	116.5475862634
7 harmonic	14.32262199324	138.3184368373
8 harmonic	48.776492647595	115.6030999533
9 harmonic	201.41175231035	127.4691416191


Dihedral Coeffs

1 fourier 1	3.661930099076	2	180
2 fourier 1	1.193093382682	2	180
3 fourier 1	0.02021088501612	1	0
4 fourier 1	1.532232714475	2	180
5 fourier 1	3.101948770557	2	180
6 fourier 1	-0.4252153282372	1	0
7 fourier 1	1.809047390003	2	180
8 fourier 1	-0.04816277792592	1	0
9 fourier 1	0.9974165607242	2	180
10 fourier 1	2.348375642009	2	180
11 fourier 1	1.256156174911	1	0
12 fourier 1	0.02664938770063	3	0
13 fourier 1	0.1155372516788	3	0
14 fourier 1	0.09223874044423	3	0
15 fourier 1	0.3159935921949	2	180
16 fourier 1	0.3247796806857	1	180
17 fourier 1	0.1040663847541	3	0
18 fourier 1	2.687457892086	2	180
19 fourier 1	2.772607909663	2	180
20 fourier 1	0.09692684957115	1	0


Improper Coeffs

1 0.3666666666666667	-1	2
2 0.3333333333333333	-1	2
3 3.5	-1	2


Atoms

1	1	1	-0.41109401	-5.1680002	0.26899999	0.52399999
2	1	2	0.102524	-3.8280001	-0.134	0.23199999
3	1	2	-0.38582101	-3.572	-0.95700002	-0.79699999
4	1	3	0.22620501	-4.3769999	-1.327	-1.42
5	1	2	-0.223286	-2.184	-1.369	-1.094
6	1	3	0.22721	-1.995	-2.036	-1.926
7	1	2	0.18415301	-1.166	-0.91299999	-0.352
8	1	4	-0.266821	0.13699999	-1.332	-0.65799999
9	1	2	0.18415301	1.308	-0.61000001	-0.384
10	1	2	-0.24459399	1.348	0.73500001	-0.435
11	1	3	0.22721	0.46799999	1.306	-0.69999999
12	1	2	-0.35679099	2.609	1.454	-0.15899999
13	1	3	0.222247	2.618	2.536	-0.19499999
14	1	2	0.167373	3.7279999	0.77100003	0.127
15	1	1	-0.53135002	4.9520001	1.46	0.39399999
16	1	5	0.32041001	4.9990001	2.5039999	0.373
17	1	2	-0.35679099	3.691	-0.70999998	0.16
18	1	3	0.222247	4.5910001	-1.2690001	0.382
19	1	2	-0.24459399	2.5469999	-1.3609999	-0.086000003
20	1	3	0.22721	2.527	-2.4430001	-0.061999999
21	1	2	-0.223286	-1.452	-0.018999999	0.80199999
22	1	3	0.22721	-0.64999998	0.32100001	1.444
23	1	2	-0.38582101	-2.7090001	0.35100001	1.073
24	1	3	0.22620501	-2.9089999	0.99900001	1.9170001
25	1	5	0.373932	-5.3649998	0.90799999	1.326
26	1	2	0.76893902	5.8390002	0.91799998	0.61799997
27	1	6	-0.65490103	5.8940001	0.259	1.691
28	1	2	-0.370011	6.9790001	0.94	-0.315
29	1	2	-0.077747002	6.9050002	1.648	-1.452
30	1	3	0.225509	6.0120001	2.21	-1.696
31	1	2	-0.248108	8.0430002	1.678	-2.3940001
32	1	3	0.215754	7.9310002	2.283	-3.2809999
33	1	2	-0.208661	9.1680002	0.972	-2.1459999
34	1	7	0.025327999	10.394	1.002	-3.075
35	1	7	-0.13124999	10.09	1.52	-4.5019999
36	1	8	0.088436	9.8290005	2.599	-4.487
37	1	8	0.088436	10.98	1.405	-5.158
38	1	8	0.088436	9.25	0.95099998	-4.9559999
39	1	2	-0.123824	10.989	-0.366	-3.198
40	1	2	-0.15098301	10.377	-1.4809999	-3.6229999
41	1	3	0.215188	9.3339996	-1.466	-3.9119999
42	1	2	0.00095399999	11.152	-2.7420001	-3.691
43	1	3	0.21577001	10.654	-3.6429999	-4.0289998
44	1	2	-0.34498101	12.456	-2.7620001	-3.342
45	1	2	0.58656901	13.219	-4.02	-3.4170001
46	1	6	-0.51094902	14.436	-4.0560002	-3.095
47	1	2	0.072209001	13.111	-1.5039999	-2.885
48	1	3	0.209649	14.158	-1.4960001	-2.6129999
49	1	2	-0.18015499	12.384	-0.37799999	-2.8180001
50	1	7	-0.026884001	12.848	0.98299998	-2.4070001
51	1	7	-0.130835	13.877	1.518	-3.4200001
52	1	8	0.092652999	14.786	0.87900001	-3.4319999
53	1	8	0.092652999	13.446	1.533	-4.4450002
54	1	8	0.092652999	14.181	2.552	-3.151
55	1	7	-0.130835	13.46	0.949	-0.99299997
56	1	8	0.092652999	14.389	0.34	-0.977
57	1	8	0.092652999	12.741	0.50999999	-0.26699999
58	1	8	0.092652999	13.713	1.978	-0.66000003
59	1	7	-0.180821	11.544	1.844	-2.4319999
60	1	8	0.130945	11.702	2.802	-2.977
61	1	8	0.130945	11.266	2.1500001	-1.398
62	1	2	-0.248108	9.2489996	0.212	-0.86500001
63	1	3	0.215754	10.151	-0.331	-0.61000001
64	1	2	-0.077747002	8.2209997	0.192	-0.0099999998
65	1	3	0.225509	8.3079996	-0.37	0.912
66	1	1	-0.41109401	-5.9699998	-0.064000003	-0.056000002
67	1	2	0.102524	-6.1139998	0.33899999	-1.421
68	1	2	-0.38582101	-5.217	1.163	-1.9859999
69	1	3	0.22620501	-4.3730001	1.5319999	-1.4170001
70	1	2	-0.223286	-5.3699999	1.575	-3.3970001
71	1	3	0.22721	-4.6389999	2.2409999	-3.8380001
72	1	2	0.18415301	-6.395	1.118	-4.131
73	1	4	-0.266821	-6.5120001	1.5369999	-5.4640002
74	1	2	0.18415301	-7.1399999	0.81599998	-6.4899998
75	1	2	-0.168924	-7.1040001	-0.52999997	-6.5440001
76	1	3	0.22721	-6.5770001	-1.101	-5.7919998
77	1	2	-0.43539301	-7.7610002	-1.249	-7.6550002
78	1	3	0.235028	-7.73	-2.3310001	-7.6750002
79	1	2	0.28302601	-8.3839998	-0.565	-8.6280003
80	1	1	-0.843822	-9.0209999	-1.255	-9.7069998
81	1	5	0.36804199	-9.5039997	-0.722	-10.464
82	1	5	0.36804199	-9.0159998	-2.299	-9.757
83	1	2	-0.43539301	-8.4040003	0.91500002	-8.5830002
84	1	3	0.235028	-8.8959999	1.475	-9.368
85	1	2	-0.168924	-7.8119998	1.566	-7.5739999
86	1	3	0.22721	-7.8280001	2.648	-7.5469999
87	1	2	-0.223286	-7.4000001	0.22400001	-3.4979999
88	1	3	0.22721	-8.2620001	-0.115	-4.0580001
89	1	2	-0.38582101	-7.263	-0.146	-2.2190001
90	1	3	0.22620501	-8.0019999	-0.79400003	-1.7640001
91	1	5	0.373932	-6.6700001	-0.70300001	0.38299999
92	1	2	0.592071	12.738	-4.9299998	-3.7509999
93	1	6	-0.52144003	11.547	-5.1529999	-3.4059999
94	1	2	-0.33351001	13.482	-5.882	-4.5970001
95	1	2	0.006234	12.922	-7.0209999	-5.0349998
96	1	3	0.223389	11.901	-7.276	-4.7800002
97	1	2	-0.241441	13.692	-7.954	-5.882
98	1	3	0.215754	13.197	-8.8529997	-6.2290001
99	1	2	-0.208661	14.975	-7.697	-6.2199998
100	1	7	0.025327999	15.742	-8.6759996	-7.1259999
101	1	7	-0.13124999	17.256001	-8.3769999	-7.21
102	1	8	0.088436	17.708	-8.3470001	-6.1960001
103	1	8	0.088436	17.438999	-7.4060001	-7.7189999
104	1	8	0.088436	17.778999	-9.1619997	-7.7979999
105	1	2	-0.123824	15.573	-10.086	-6.6469998
106	1	2	-0.17032599	15.875	-10.571	-5.4349999
107	1	3	0.215188	16.277	-9.927	-4.6630001
108	1	2	-0.060066	15.65	-12.01	-5.1620002
109	1	3	0.23214801	15.892	-12.391	-4.178
110	1	2	-0.226778	15.157	-12.822	-6.125
111	1	2	0.83597499	14.93	-14.261	-5.869
112	1	6	-0.47701499	15.193	-14.763	-4.743
113	1	9	-0.663764	14.422	-15.075	-6.8769999
114	1	10	0.41897401	14.261	-16.063	-6.7160001
115	1	2	0.0067070001	14.842	-12.251	-7.4650002
116	1	3	0.22491799	14.458	-12.882	-8.2559996
117	1	2	-0.174367	15.042	-10.942	-7.6830001
118	1	7	-0.026884001	14.807	-10.183	-8.9499998
119	1	7	-0.130835	13.345	-10.331	-9.4139996
120	1	8	0.092652999	13.122	-11.383	-9.6929998
121	1	8	0.092652999	12.646	-10.028	-8.6040001
122	1	8	0.092652999	13.157	-9.6890001	-10.301
123	1	7	-0.130835	15.767	-10.68	-10.048
124	1	8	0.092652999	16.823	-10.589	-9.7150002
125	1	8	0.092652999	15.567	-11.745	-10.293
126	1	8	0.092652999	15.637	-10.08	-10.974
127	1	7	-0.180821	15.124	-8.7019997	-8.5640001
128	1	8	0.130945	15.803	-8.2270002	-9.3079996
129	1	8	0.130945	14.197	-8.0869999	-8.599
130	1	2	-0.241441	15.58	-6.4180002	-5.7410002
131	1	3	0.215754	16.593	-6.1459999	-5.9959998
132	1	2	0.006234	14.878	-5.572	-4.9770002
133	1	3	0.223389	15.339	-4.652	-4.6389999

Bonds

1	1	1	2
2	2	1	25
3	3	1	66
4	4	2	3
5	4	2	23
6	5	3	4
7	4	3	5
8	5	5	6
9	4	5	7
10	6	7	8
11	4	7	21
12	6	8	9
13	4	9	10
14	4	9	19
15	5	10	11
16	4	10	12
17	5	12	13
18	4	12	14
19	1	14	15
20	4	14	17
21	2	15	16
22	7	15	26
23	5	17	18
24	4	17	19
25	5	19	20
26	5	21	22
27	4	21	23
28	5	23	24
29	8	26	27
30	9	26	28
31	4	28	29
32	4	28	64
33	5	29	30
34	4	29	31
35	5	31	32
36	4	31	33
37	10	33	34
38	4	33	62
39	11	34	35
40	10	34	39
41	11	34	59
42	12	35	36
43	12	35	37
44	12	35	38
45	4	39	40
46	4	39	49
47	5	40	41
48	4	40	42
49	5	42	43
50	4	42	44
51	9	44	45
52	4	44	47
53	8	45	46
54	9	45	92
55	5	47	48
56	4	47	49
57	10	49	50
58	11	50	51
59	11	50	55
60	11	50	59
61	12	51	52
62	12	51	53
63	12	51	54
64	12	55	56
65	12	55	57
66	12	55	58
67	12	59	60
68	12	59	61
69	5	62	63
70	4	62	64
71	5	64	65
72	1	66	67
73	2	66	91
74	4	67	68
75	4	67	89
76	5	68	69
77	4	68	70
78	5	70	71
79	4	70	72
80	6	72	73
81	4	72	87
82	6	73	74
83	4	74	75
84	4	74	85
85	5	75	76
86	4	75	77
87	5	77	78
88	4	77	79
89	1	79	80
90	4	79	83
91	2	80	81
92	2	80	82
93	5	83	84
94	4	83	85
95	5	85	86
96	5	87	88
97	4	87	89
98	5	89	90
99	8	92	93
100	9	92	94
101	4	94	95
102	4	94	132
103	5	95	96
104	4	95	97
105	5	97	98
106	4	97	99
107	10	99	100
108	4	99	130
109	11	100	101
110	10	100	105
111	11	100	127
112	12	101	102
113	12	101	103
114	12	101	104
115	4	105	106
116	4	105	117
117	5	106	107
118	4	106	108
119	5	108	109
120	4	108	110
121	9	110	111
122	4	110	115
123	8	111	112
124	13	111	113
125	14	113	114
126	5	115	116
127	4	115	117
128	10	117	118
129	11	118	119
130	11	118	123
131	11	118	127
132	12	119	120
133	12	119	121
134	12	119	122
135	12	123	124
136	12	123	125
137	12	123	126
138	12	127	128
139	12	127	129
140	5	130	131
141	4	130	132
142	5	132	133

Angles

1	4	10	12	13
2	6	117	118	123
3	6	35	34	59
4	6	118	119	120
5	6	34	35	37
6	1	97	99	130
7	1	42	44	45
8	1	72	87	89
9	4	32	31	33
10	1	99	130	132
11	3	14	15	16
12	4	4	3	5
13	1	8	9	19
14	8	52	51	53
15	1	105	117	118
16	7	47	49	50
17	6	50	59	61
18	8	53	51	54
19	4	76	75	77
20	8	124	123	125
21	6	50	55	56
22	1	67	68	70
23	1	46	45	92
24	4	6	5	7
25	1	92	94	95
26	8	128	127	129
27	1	10	12	14
28	1	110	111	112
29	6	101	100	105
30	6	34	35	38
31	4	68	70	71
32	8	125	123	126
33	1	39	49	50
34	8	52	51	54
35	4	28	64	65
36	4	2	3	4
37	4	41	40	42
38	1	95	94	132
39	8	37	35	38
40	8	56	55	58
41	3	2	1	25
42	1	66	67	68
43	1	108	110	115
44	6	118	127	128
45	1	94	95	97
46	1	31	33	62
47	4	14	17	18
48	4	94	132	133
49	6	99	100	105
50	8	102	101	103
51	1	105	106	108
52	4	130	132	133
53	4	44	47	48
54	6	55	50	59
55	4	33	62	63
56	1	26	28	29
57	1	105	117	115
58	1	44	45	46
59	1	68	70	72
60	4	43	42	44
61	1	66	67	89
62	7	34	39	40
63	1	95	97	99
64	6	99	100	101
65	6	100	127	128
66	6	34	59	60
67	8	36	35	38
68	1	39	40	42
69	8	60	59	61
70	1	3	5	7
71	1	26	28	64
72	6	100	101	103
73	1	110	115	117
74	4	131	130	132
75	4	67	89	90
76	1	44	47	49
77	1	33	62	64
78	4	21	23	24
79	4	9	10	11
80	1	7	21	23
81	1	28	64	62
82	1	39	49	47
83	4	40	42	43
84	4	48	47	49
85	1	73	72	87
86	6	118	123	124
87	1	100	99	130
88	4	28	29	30
89	3	79	80	81
90	8	120	119	122
91	1	94	132	130
92	4	74	85	86
93	4	79	83	84
94	6	118	119	121
95	4	71	70	72
96	4	87	89	90
97	6	100	101	104
98	4	74	75	76
99	1	111	110	115
100	1	5	7	8
101	1	68	67	89
102	1	97	99	100
103	4	13	12	14
104	1	5	7	21
105	1	40	42	44
106	8	124	123	126
107	4	98	97	99
108	3	1	66	91
109	4	75	77	78
110	6	50	55	57
111	6	119	118	127
112	1	28	29	31
113	3	79	80	82
114	6	50	51	52
115	6	39	34	59
116	1	45	92	93
117	4	11	10	12
118	1	77	79	83
119	1	110	111	113
120	6	105	100	127
121	6	118	119	122
122	5	111	113	114
123	1	100	105	117
124	1	80	79	83
125	1	106	105	117
126	4	109	108	110
127	9	112	111	113
128	8	57	55	58
129	6	119	118	123
130	5	7	8	9
131	4	116	115	117
132	1	74	85	83
133	6	49	50	51
134	2	1	66	67
135	1	27	26	28
136	1	2	3	5
137	1	70	72	73
138	6	101	100	127
139	1	75	77	79
140	6	118	127	129
141	6	50	55	58
142	1	73	74	85
143	8	120	119	121
144	8	102	101	104
145	1	45	92	94
146	1	14	17	19
147	4	106	108	109
148	1	15	26	27
149	6	35	34	39
150	1	44	45	92
151	1	93	92	94
152	7	115	117	118
153	5	72	73	74
154	4	78	77	79
155	1	92	94	132
156	6	100	127	129
157	1	77	79	80
158	1	29	28	64
159	6	34	59	61
160	6	34	35	36
161	6	100	127	118
162	1	12	14	17
163	6	99	100	127
164	2	14	15	26
165	4	72	87	88
166	1	42	44	47
167	2	2	1	66
168	4	99	130	131
169	4	83	85	86
170	6	49	50	59
171	8	121	119	122
172	3	16	15	26
173	4	30	29	31
174	1	40	39	49
175	6	51	50	59
176	6	33	34	39
177	1	9	10	12
178	1	15	26	28
179	4	69	68	70
180	3	25	1	66
181	6	50	59	60
182	3	81	80	82
183	4	88	87	89
184	1	3	2	23
185	6	118	123	125
186	4	2	23	24
187	4	67	68	69
188	3	67	66	91
189	6	49	50	55
190	1	79	83	85
191	4	9	19	20
192	1	67	89	87
193	6	51	50	55
194	6	33	34	35
195	1	34	33	62
196	6	123	118	127
197	7	100	105	106
198	1	74	75	77
199	1	75	74	85
200	6	117	118	119
201	6	118	123	126
202	8	56	55	57
203	4	84	83	85
204	4	107	106	108
205	6	50	51	53
206	4	18	17	19
207	6	33	34	59
208	1	8	7	21
209	1	70	72	87
210	4	105	106	107
211	1	1	2	23
212	4	29	31	32
213	4	22	21	23
214	4	17	19	20
215	1	45	44	47
216	1	8	9	10
217	1	1	2	3
218	1	2	23	21
219	8	103	101	104
220	4	95	97	98
221	4	63	62	64
222	1	9	19	17
223	8	36	35	37
224	1	12	14	15
225	4	39	40	41
226	1	31	33	34
227	6	34	59	50
228	4	3	5	6
229	4	62	64	65
230	4	94	95	96
231	6	100	101	102
232	6	50	51	54
233	6	117	118	127
234	1	73	74	75
235	4	110	115	116
236	1	34	39	49
237	1	106	108	110
238	1	29	31	33
239	4	7	21	22
240	1	108	110	111
241	4	96	95	97
242	1	15	14	17
243	1	10	9	19

Dihedrals

1	12	101	100	105	106
2	1	97	99	130	132
3	1	105	106	108	110
4	12	35	34	33	62
5	1	10	9	19	20
6	1	68	70	72	73
7	1	9	19	17	14
8	14	100	127	118	123
8	15	100	127	118	123
8	16	100	127	118	123
9	1	73	72	87	89
10	1	75	74	85	86
11	1	12	14	17	19
12	17	53	51	50	55
13	1	1	2	23	24
14	13	99	100	127	128
15	1	41	40	42	43
16	1	48	47	49	50
17	1	94	132	130	131
18	1	29	31	33	34
19	1	34	33	62	64
20	1	26	28	29	30
21	9	27	26	28	29
22	12	47	49	50	55
23	12	97	99	100	105
24	17	119	118	127	129
25	1	74	85	83	84
26	17	51	50	55	58
27	17	124	123	118	127
28	17	119	118	123	124
29	1	95	97	99	130
30	14	34	59	50	51
30	15	34	59	50	51
30	16	34	59	50	51
31	1	15	14	17	19
32	2	3	2	1	66
33	1	96	95	94	132
34	1	4	3	5	7
35	1	108	106	105	117
36	9	93	92	94	95
37	1	2	3	5	7
38	1	14	17	19	20
39	17	35	34	59	60
40	13	99	100	101	102
41	1	22	21	23	24
42	12	31	33	34	35
43	17	55	50	59	61
44	4	72	73	74	75
45	1	6	5	7	8
46	1	106	108	110	115
47	1	100	105	117	115
48	1	69	68	67	89
49	1	6	5	7	21
50	13	33	34	59	61
51	13	38	35	34	39
52	1	67	89	87	88
53	1	69	68	70	72
54	1	92	94	132	133
55	1	39	40	42	44
56	1	100	99	130	132
57	1	11	10	12	13
58	1	10	9	19	17
59	1	13	12	14	15
60	1	111	110	115	116
61	1	40	42	44	45
62	12	35	34	39	49
63	17	122	119	118	127
64	13	117	118	127	129
65	13	117	118	123	124
66	17	38	35	34	59
67	1	66	67	68	69
68	1	12	10	9	19
69	9	45	92	94	95
70	13	33	34	35	38
71	1	70	68	67	89
72	13	39	34	59	50
73	9	108	110	111	112
74	1	7	21	23	24
75	17	54	51	50	55
76	1	39	49	47	44
77	1	31	33	62	64
78	1	67	68	70	71
79	1	97	99	130	131
80	12	106	105	100	127
81	1	42	44	47	48
82	12	31	33	34	59
83	1	45	44	47	49
84	1	92	94	95	97
85	9	46	45	92	94
86	1	73	74	85	83
87	1	4	3	2	23
88	2	12	14	15	26
89	1	8	7	21	23
90	1	105	117	115	110
91	1	73	72	87	88
92	2	3	2	1	25
93	1	108	110	115	117
94	1	32	31	33	34
95	1	1	2	3	4
96	1	34	33	62	63
97	9	93	92	94	132
98	17	37	35	34	59
99	1	70	72	87	89
100	17	119	118	127	128
101	13	103	101	100	105
102	1	28	29	31	33
103	1	15	14	17	18
104	3	2	1	66	67
105	12	39	34	33	62
106	1	2	3	5	6
107	12	99	100	105	106
108	4	72	73	74	85
109	12	49	39	34	59
110	1	88	87	89	90
111	13	33	34	59	60
112	1	28	64	62	33
113	1	107	106	105	117
114	12	59	34	33	62
115	1	96	95	97	99
116	1	100	99	130	131
117	9	45	92	94	132
118	12	33	34	39	49
119	13	117	118	127	128
120	1	92	94	95	96
121	14	100	127	118	119
121	15	100	127	118	119
121	16	100	127	118	119
122	1	31	29	28	64
123	13	39	34	59	60
124	2	82	80	79	83
125	12	47	49	50	51
126	12	97	99	100	101
127	2	23	2	1	66
128	1	45	44	47	48
129	17	102	101	100	127
130	1	8	7	21	22
131	2	12	14	15	16
132	12	105	117	118	123
133	1	5	7	21	23
134	1	74	75	77	79
135	2	77	79	80	82
136	1	106	105	117	115
137	1	34	39	40	42
138	1	106	108	110	111
139	1	108	110	115	116
140	13	49	50	59	60
141	13	49	50	51	54
142	1	2	23	21	22
143	1	34	39	49	47
144	1	70	72	87	88
145	12	115	117	118	127
146	2	81	80	79	83
147	1	28	29	31	32
148	1	33	62	64	65
149	1	73	74	85	86
150	17	122	119	118	123
151	12	105	117	118	127
152	17	101	100	127	129
153	12	97	99	100	127
154	9	112	111	110	115
155	1	68	67	89	87
156	1	131	130	132	133
157	13	33	34	59	50
158	13	105	100	127	129
159	17	119	118	123	126
160	1	18	17	19	20
161	1	107	106	108	110
162	17	52	51	50	59
163	12	117	105	100	127
164	1	42	40	39	49
165	13	99	100	101	104
166	1	28	64	62	63
167	3	25	1	66	67
168	1	72	87	89	90
169	2	23	2	1	25
170	1	30	29	28	64
171	17	58	55	50	59
172	9	44	45	92	93
173	1	63	62	64	65
174	7	16	15	26	28
174	8	16	15	26	28
175	1	74	85	83	79
176	1	9	10	12	14
177	1	43	42	44	47
178	1	105	106	108	109
179	1	76	75	77	79
180	1	13	12	14	17
181	3	25	1	66	91
182	13	117	118	123	126
183	1	12	14	17	18
184	1	5	3	2	23
185	1	34	39	40	41
186	1	41	40	39	49
187	2	89	67	66	91
188	12	127	100	99	130
189	1	79	83	85	86
190	13	36	35	34	39
191	13	49	50	51	53
192	17	51	50	55	57
193	1	94	132	130	99
194	1	40	42	44	47
195	18	110	111	113	114
196	1	94	95	97	99
197	1	4	3	5	6
198	1	44	47	49	50
199	13	104	101	100	105
200	4	7	8	9	10
201	17	120	119	118	127
202	19	112	111	113	114
202	20	112	111	113	114
203	17	55	50	59	60
204	1	41	40	42	44
205	1	106	105	117	118
206	17	125	123	118	127
207	2	17	14	15	26
208	13	49	50	55	58
209	17	103	101	100	127
210	1	34	39	49	50
211	13	105	100	127	128
212	1	69	68	70	71
213	1	98	97	99	100
214	12	115	117	118	119
215	1	39	40	42	43
216	1	100	105	106	108
217	1	68	70	72	87
218	1	107	106	108	109
219	12	40	39	34	59
220	2	68	67	66	91
221	4	7	8	9	19
222	1	8	9	19	20
223	1	105	117	115	116
224	17	35	34	59	61
225	12	105	117	118	119
226	13	117	118	119	122
227	1	10	12	14	15
228	13	33	34	35	37
229	1	80	79	83	85
230	1	68	67	89	90
231	1	31	33	62	63
232	17	126	123	118	127
233	12	115	117	118	123
234	1	9	10	12	13
235	1	11	10	12	14
236	9	46	45	92	93
237	12	39	49	50	59
238	1	29	28	64	62
239	1	66	67	68	70
240	1	84	83	85	86
241	1	77	79	83	85
242	2	1	66	67	89
243	1	78	77	79	80
244	17	123	118	127	129
245	9	113	111	110	115
246	9	42	44	45	46
247	17	51	50	59	61
248	12	101	100	105	117
249	1	11	10	9	19
250	17	51	50	55	56
251	1	42	44	47	49
252	9	15	26	28	64
253	13	34	59	50	49
254	1	94	95	97	98
255	17	52	51	50	55
256	1	32	31	33	62
257	1	8	9	19	17
258	1	40	39	49	50
259	14	101	100	127	118
259	15	101	100	127	118
259	16	101	100	127	118
260	1	75	77	79	83
261	12	105	100	99	130
262	1	1	2	3	5
263	1	98	97	99	130
264	13	49	50	55	57
265	1	3	2	23	21
266	13	105	100	127	118
267	1	100	105	106	107
268	1	96	95	97	98
269	1	9	19	17	18
270	1	43	42	44	45
271	9	42	44	45	92
272	13	117	118	119	121
273	13	49	50	51	52
274	7	14	15	26	28
274	8	14	15	26	28
275	17	53	51	50	59
276	12	35	34	39	40
277	1	77	75	74	85
278	13	33	34	35	36
279	1	80	79	83	84
280	12	47	49	50	59
281	1	95	94	132	130
282	17	121	119	118	123
283	1	30	29	31	33
284	14	34	59	50	55
284	15	34	59	50	55
284	16	34	59	50	55
285	1	66	67	89	90
286	1	71	70	72	87
287	17	56	55	50	59
288	9	27	26	28	64
289	17	120	119	118	123
290	1	5	7	21	22
291	1	73	74	75	77
292	12	31	33	34	39
293	1	40	39	49	47
294	1	74	75	77	78
295	1	75	74	85	83
296	2	77	79	80	81
297	1	8	9	10	12
298	1	26	28	64	65
299	1	1	2	23	21
300	1	110	115	117	118
301	1	77	79	83	84
302	1	116	115	117	118
303	13	39	34	59	61
304	17	123	118	127	128
305	1	75	77	79	80
306	2	1	66	67	68
307	17	51	50	59	60
308	1	67	89	87	72
309	1	76	75	74	85
310	17	121	119	118	127
311	13	37	35	34	39
312	4	70	72	73	74
313	9	47	44	45	92
314	1	29	28	64	65
315	12	39	49	50	51
316	17	57	55	50	59
317	1	29	31	33	62
318	4	9	8	7	21
319	17	36	35	34	59
320	17	101	100	127	128
321	13	99	100	127	129
322	1	78	77	79	83
323	13	99	100	127	118
324	1	3	5	7	8
325	17	54	51	50	59
326	1	26	28	29	31
327	13	49	50	59	61
328	1	3	5	7	21
329	13	49	50	55	56
330	17	119	118	123	125
331	1	92	94	132	130
332	17	104	101	100	127
333	1	66	67	89	87
334	12	39	49	50	55
335	12	99	100	105	117
336	2	16	15	14	17
337	1	95	97	99	100
338	13	99	100	101	103
339	13	100	127	118	117
340	13	117	118	119	120
341	1	71	70	72	73
342	14	35	34	59	50
342	15	35	34	59	50
342	16	35	34	59	50
343	1	99	130	132	133
344	5	14	15	26	27
344	6	14	15	26	27
345	9	15	26	28	29
346	1	26	28	64	62
347	1	39	49	47	48
348	12	33	34	39	40
349	1	109	108	110	111
350	1	97	95	94	132
351	10	16	15	26	27
351	11	16	15	26	27
352	1	3	2	23	24
353	12	101	100	99	130
354	4	5	7	8	9
355	1	30	29	31	32
356	1	76	75	77	78
357	3	2	1	66	91
358	1	111	110	115	117
359	4	74	73	72	87
360	13	102	101	100	105
361	13	117	118	123	125
362	1	73	74	75	76
363	1	8	9	10	11
364	1	109	108	110	115
365	1	10	12	14	17
366	1	100	105	117	118
367	9	44	45	92	94
368	9	108	110	111	113
369	1	2	23	21	7
370	9	46	45	44	47
371	1	95	94	132	133
372	1	67	68	70	72

Impropers

5	1	117	115	118	105
16	2	15	26	14	16
24	1	97	95	98	99
26	1	85	83	86	74
28	1	130	99	131	132
29	2	66	1	67	91
35	2	66	67	91	1
46	1	33	31	34	62
55	1	21	23	7	22
57	1	19	20	9	17
59	1	94	132	92	95
61	1	62	64	33	63
65	1	77	78	79	75
66	1	26	15	27	28
68	1	2	23	1	3
69	1	95	94	96	97
70	1	23	21	24	2
73	1	64	62	65	28
78	1	7	5	8	21
80	1	130	132	99	131
81	1	19	9	17	20
84	1	14	15	17	12
87	1	94	95	132	92
88	1	67	66	68	89
94	1	64	28	62	65
102	1	108	106	109	110
103	1	79	80	83	77
104	1	68	70	67	69
109	1	26	27	28	15
110	1	29	28	30	31
118	1	14	17	12	15
121	1	42	43	44	40
124	1	44	45	47	42
128	1	79	77	80	83
129	1	21	7	22	23
133	1	85	86	74	83
135	1	83	85	79	84
136	1	44	42	45	47
144	1	89	90	67	87
145	1	29	30	31	28
148	1	75	76	77	74
150	1	62	33	63	64
151	1	47	49	44	48
152	1	106	108	105	107
158	1	87	72	88	89
174	1	68	67	69	70
175	1	28	64	26	29
179	1	132	130	133	94
187	1	74	73	75	85
188	1	23	24	2	21
198	1	49	39	47	50
200	1	2	3	23	1
201	1	3	2	4	5
202	1	40	41	42	39
203	2	66	91	1	67
205	1	45	44	46	92
206	2	80	81	82	79
208	1	67	89	66	68
212	1	17	18	19	14
213	1	17	19	14	18
217	1	74	85	73	75
225	1	21	22	23	7
226	1	39	34	40	49
227	1	77	79	75	78
229	1	70	71	72	68
233	1	10	12	9	11
234	1	2	1	3	23
235	1	115	116	117	110
237	1	3	5	2	4
238	1	28	29	64	26
239	1	110	108	111	115
249	1	29	31	28	30
252	1	40	39	41	42
262	1	99	100	130	97
270	1	132	94	130	133
271	1	31	33	29	32
272	1	39	40	49	34
279	1	85	74	83	86
281	1	10	11	12	9
283	1	7	21	5	8
285	1	92	94	45	93
287	1	45	92	44	46
296	1	70	72	68	71
297	1	3	4	5	2
299	1	9	8	10	19
307	1	75	77	74	76
308	3	111	113	110	112
309	1	12	10	13	14
312	1	89	67	87	90
313	1	5	6	7	3
324	1	87	89	72	88
331	1	68	69	70	67
336	1	130	131	132	99
340	1	75	74	76	77
343	1	115	110	116	117
346	1	7	8	21	5
352	1	42	44	40	43
353	1	72	73	87	70
357	3	111	110	112	113
361	1	47	48	49	44
362	1	94	92	95	132
363	1	67	68	89	66
366	1	106	105	107	108
368	1	89	87	90	67
376	1	105	117	100	106
385	1	99	97	100	130
386	1	31	32	33	29
387	1	5	7	3	6
392	1	87	88	89	72
396	1	83	79	84	85
398	2	80	79	81	82
399	1	12	14	10	13
410	1	33	34	62	31
412	1	95	97	94	96
413	1	115	117	110	116
415	1	95	96	97	94
416	1	110	111	115	108
421	1	108	109	110	106
425	2	1	2	25	66
428	1	77	75	78	79
430	1	132	133	94	130
447	1	26	28	15	27
452	1	47	44	48	49
457	1	83	84	85	79
463	2	1	66	2	25
467	1	23	2	21	24
470	1	39	49	34	40
477	1	10	9	11	12
479	1	49	47	50	39
486	2	15	14	16	26
489	1	64	65	28	62
492	1	72	87	70	73
493	1	9	19	8	10
494	1	44	47	42	45
504	1	79	83	77	80
505	1	108	110	106	109
507	1	12	13	14	10
511	3	111	112	113	110
517	1	110	115	108	111
528	1	9	10	19	8
531	1	106	107	108	105
532	2	1	25	66	2
536	1	70	68	71	72
538	1	14	12	15	17
544	1	17	14	18	19
551	1	92	93	94	45
554	1	31	29	32	33
555	2	15	16	26	14
559	1	105	100	106	117
564	1	72	70	73	87
565	1	62	63	64	33
568	1	33	62	31	34
576	1	40	42	39	41
578	2	80	82	79	81
579	1	97	99	95	98
580	1	105	106	117	100
583	1	49	50	39	47
586	1	19	17	20	9
595	1	117	118	105	115
596	1	97	98	99	95
602	1	99	130	97	100
603	1	117	105	115	118
604	1	28	26	29	64
607	1	42	40	43	44
611	1	74	75	85	73
616	1	92	45	93	94
620	1	45	46	92	44
621	1	5	3	6	7
