Title

133 atoms
142 bonds
243 angles
389 dihedrals
168 impropers

10 atom types
14 bond types
9 angle types
20 dihedral types
3 improper types
-9.50399971 90.49600029 xlo xhi
-16.06299973 83.93700027 ylo yhi
-10.97399998 89.02600002 zlo zhi
0.0 0.0 0.0 xy xz yz

Masses

1	14.00672
2	12.01078
3	1.007947
4	15.99943
5	1.007947
6	15.99943
7	12.01078
8	1.007947
9	15.99943
10	1.007947


Pair Coeffs

1	0.16769152	3.206876
2	0.086879315	3.4806469
3	0.015611343	2.5725815
4	0.16846514	3.0251065
5	0.014090815	1.1034277
6	0.2102061	3.0398122
7	0.10884061	3.3795318
8	0.015779483	2.6445434
9	0.20947353	2.99716
10	1.2326e-05	0.53453923

Bond Coeffs

1 harmonic	390.03554688505	1.390160554689
2 harmonic	505.144496193	1.019481865027
3 harmonic	422.7150220147	1.421786517481
4 harmonic	360.7852444772	1.387193227181
5 harmonic	397.2545789619	1.085358495916
6 harmonic	425.69104206635	1.362945806494
7 harmonic	492.76746816345	1.381897776683
8 harmonic	582.698766451	1.225198386222
9 harmonic	279.1350963404	1.454628925034
10 harmonic	289.73813263395	1.498646816465
11 harmonic	264.62148576755	1.52190126495
12 harmonic	370.04670688625	1.093899492634
13 harmonic	385.7604595587	1.369745182308
14 harmonic	543.5267831885	0.9716763312559


Angle Coeffs

1 harmonic	57.8982893754	126.8062420451
2 harmonic	55.42182150775	117.3465570514
3 harmonic	63.44422595415	115.5071327674
4 harmonic	34.066775159195	129.1835929926
5 harmonic	65.09061609600001	110.3538806181
6 harmonic	53.20531626545	116.5475862634
7 harmonic	14.32262199324	138.3184368373
8 harmonic	48.776492647595	115.6030999533
9 harmonic	201.41175231035	127.4691416191


Dihedral Coeffs

1 fourier 1	3.661930099076	2	180
2 fourier 1	1.193093382682	2	180
3 fourier 1	0.02021088501612	1	0
4 fourier 1	1.532232714475	2	180
5 fourier 1	3.101948770557	2	180
6 fourier 1	-0.4252153282372	1	0
7 fourier 1	1.809047390003	2	180
8 fourier 1	-0.04816277792592	1	0
9 fourier 1	0.9974165607242	2	180
10 fourier 1	2.348375642009	2	180
11 fourier 1	1.256156174911	1	0
12 fourier 1	0.02664938770063	3	0
13 fourier 1	0.1155372516788	3	0
14 fourier 1	0.09223874044423	3	0
15 fourier 1	0.3159935921949	2	180
16 fourier 1	0.3247796806857	1	180
17 fourier 1	0.1040663847541	3	0
18 fourier 1	2.687457892086	2	180
19 fourier 1	2.772607909663	2	180
20 fourier 1	0.09692684957115	1	0


Improper Coeffs

1 0.3666666666666667	-1	2
2 0.3333333333333333	-1	2
3 3.5	-1	2


Atoms

1	1	1	-0.41109401	-5.1680002	0.26899999	0.52399999
2	1	2	0.102524	-3.8280001	-0.134	0.23199999
3	1	2	-0.38582101	-3.572	-0.95700002	-0.79699999
4	1	3	0.22620501	-4.3769999	-1.327	-1.42
5	1	2	-0.223286	-2.184	-1.369	-1.094
6	1	3	0.22721	-1.995	-2.036	-1.926
7	1	2	0.18415301	-1.166	-0.91299999	-0.352
8	1	4	-0.266821	0.13699999	-1.332	-0.65799999
9	1	2	0.18415301	1.308	-0.61000001	-0.384
10	1	2	-0.24459399	1.348	0.73500001	-0.435
11	1	3	0.22721	0.46799999	1.306	-0.69999999
12	1	2	-0.35679099	2.609	1.454	-0.15899999
13	1	3	0.222247	2.618	2.536	-0.19499999
14	1	2	0.167373	3.7279999	0.77100003	0.127
15	1	1	-0.53135002	4.9520001	1.46	0.39399999
16	1	5	0.32041001	4.9990001	2.5039999	0.373
17	1	2	-0.35679099	3.691	-0.70999998	0.16
18	1	3	0.222247	4.5910001	-1.2690001	0.382
19	1	2	-0.24459399	2.5469999	-1.3609999	-0.086000003
20	1	3	0.22721	2.527	-2.4430001	-0.061999999
21	1	2	-0.223286	-1.452	-0.018999999	0.80199999
22	1	3	0.22721	-0.64999998	0.32100001	1.444
23	1	2	-0.38582101	-2.7090001	0.35100001	1.073
24	1	3	0.22620501	-2.9089999	0.99900001	1.9170001
25	1	5	0.373932	-5.3649998	0.90799999	1.326
26	1	2	0.76893902	5.8390002	0.91799998	0.61799997
27	1	6	-0.65490103	5.8940001	0.259	1.691
28	1	2	-0.370011	6.9790001	0.94	-0.315
29	1	2	-0.077747002	6.9050002	1.648	-1.452
30	1	3	0.225509	6.0120001	2.21	-1.696
31	1	2	-0.248108	8.0430002	1.678	-2.3940001
32	1	3	0.215754	7.9310002	2.283	-3.2809999
33	1	2	-0.208661	9.1680002	0.972	-2.1459999
34	1	7	0.025327999	10.394	1.002	-3.075
35	1	7	-0.13124999	10.09	1.52	-4.5019999
36	1	8	0.088436	9.8290005	2.599	-4.487
37	1	8	0.088436	10.98	1.405	-5.158
38	1	8	0.088436	9.25	0.95099998	-4.9559999
39	1	2	-0.123824	10.989	-0.366	-3.198
40	1	2	-0.15098301	10.377	-1.4809999	-3.6229999
41	1	3	0.215188	9.3339996	-1.466	-3.9119999
42	1	2	0.00095399999	11.152	-2.7420001	-3.691
43	1	3	0.21577001	10.654	-3.6429999	-4.0289998
44	1	2	-0.34498101	12.456	-2.7620001	-3.342
45	1	2	0.58656901	13.219	-4.02	-3.4170001
46	1	6	-0.51094902	14.436	-4.0560002	-3.095
47	1	2	0.072209001	13.111	-1.5039999	-2.885
48	1	3	0.209649	14.158	-1.4960001	-2.6129999
49	1	2	-0.18015499	12.384	-0.37799999	-2.8180001
50	1	7	-0.026884001	12.848	0.98299998	-2.4070001
51	1	7	-0.130835	13.877	1.518	-3.4200001
52	1	8	0.092652999	14.786	0.87900001	-3.4319999
53	1	8	0.092652999	13.446	1.533	-4.4450002
54	1	8	0.092652999	14.181	2.552	-3.151
55	1	7	-0.130835	13.46	0.949	-0.99299997
56	1	8	0.092652999	14.389	0.34	-0.977
57	1	8	0.092652999	12.741	0.50999999	-0.26699999
58	1	8	0.092652999	13.713	1.978	-0.66000003
59	1	7	-0.180821	11.544	1.844	-2.4319999
60	1	8	0.130945	11.702	2.802	-2.977
61	1	8	0.130945	11.266	2.1500001	-1.398
62	1	2	-0.248108	9.2489996	0.212	-0.86500001
63	1	3	0.215754	10.151	-0.331	-0.61000001
64	1	2	-0.077747002	8.2209997	0.192	-0.0099999998
65	1	3	0.225509	8.3079996	-0.37	0.912
66	1	1	-0.41109401	-5.9699998	-0.064000003	-0.056000002
67	1	2	0.102524	-6.1139998	0.33899999	-1.421
68	1	2	-0.38582101	-5.217	1.163	-1.9859999
69	1	3	0.22620501	-4.3730001	1.5319999	-1.4170001
70	1	2	-0.223286	-5.3699999	1.575	-3.3970001
71	1	3	0.22721	-4.6389999	2.2409999	-3.8380001
72	1	2	0.18415301	-6.395	1.118	-4.131
73	1	4	-0.266821	-6.5120001	1.5369999	-5.4640002
74	1	2	0.18415301	-7.1399999	0.81599998	-6.4899998
75	1	2	-0.168924	-7.1040001	-0.52999997	-6.5440001
76	1	3	0.22721	-6.5770001	-1.101	-5.7919998
77	1	2	-0.43539301	-7.7610002	-1.249	-7.6550002
78	1	3	0.235028	-7.73	-2.3310001	-7.6750002
79	1	2	0.28302601	-8.3839998	-0.565	-8.6280003
80	1	1	-0.843822	-9.0209999	-1.255	-9.7069998
81	1	5	0.36804199	-9.5039997	-0.722	-10.464
82	1	5	0.36804199	-9.0159998	-2.299	-9.757
83	1	2	-0.43539301	-8.4040003	0.91500002	-8.5830002
84	1	3	0.235028	-8.8959999	1.475	-9.368
85	1	2	-0.168924	-7.8119998	1.566	-7.5739999
86	1	3	0.22721	-7.8280001	2.648	-7.5469999
87	1	2	-0.223286	-7.4000001	0.22400001	-3.4979999
88	1	3	0.22721	-8.2620001	-0.115	-4.0580001
89	1	2	-0.38582101	-7.263	-0.146	-2.2190001
90	1	3	0.22620501	-8.0019999	-0.79400003	-1.7640001
91	1	5	0.373932	-6.6700001	-0.70300001	0.38299999
92	1	2	0.592071	12.738	-4.9299998	-3.7509999
93	1	6	-0.52144003	11.547	-5.1529999	-3.4059999
94	1	2	-0.33351001	13.482	-5.882	-4.5970001
95	1	2	0.006234	12.922	-7.0209999	-5.0349998
96	1	3	0.223389	11.901	-7.276	-4.7800002
97	1	2	-0.241441	13.692	-7.954	-5.882
98	1	3	0.215754	13.197	-8.8529997	-6.2290001
99	1	2	-0.208661	14.975	-7.697	-6.2199998
100	1	7	0.025327999	15.742	-8.6759996	-7.1259999
101	1	7	-0.13124999	17.256001	-8.3769999	-7.21
102	1	8	0.088436	17.708	-8.3470001	-6.1960001
103	1	8	0.088436	17.438999	-7.4060001	-7.7189999
104	1	8	0.088436	17.778999	-9.1619997	-7.7979999
105	1	2	-0.123824	15.573	-10.086	-6.6469998
106	1	2	-0.17032599	15.875	-10.571	-5.4349999
107	1	3	0.215188	16.277	-9.927	-4.6630001
108	1	2	-0.060066	15.65	-12.01	-5.1620002
109	1	3	0.23214801	15.892	-12.391	-4.178
110	1	2	-0.226778	15.157	-12.822	-6.125
111	1	2	0.83597499	14.93	-14.261	-5.869
112	1	6	-0.47701499	15.193	-14.763	-4.743
113	1	9	-0.663764	14.422	-15.075	-6.8769999
114	1	10	0.41897401	14.261	-16.063	-6.7160001
115	1	2	0.0067070001	14.842	-12.251	-7.4650002
116	1	3	0.22491799	14.458	-12.882	-8.2559996
117	1	2	-0.174367	15.042	-10.942	-7.6830001
118	1	7	-0.026884001	14.807	-10.183	-8.9499998
119	1	7	-0.130835	13.345	-10.331	-9.4139996
120	1	8	0.092652999	13.122	-11.383	-9.6929998
121	1	8	0.092652999	12.646	-10.028	-8.6040001
122	1	8	0.092652999	13.157	-9.6890001	-10.301
123	1	7	-0.130835	15.767	-10.68	-10.048
124	1	8	0.092652999	16.823	-10.589	-9.7150002
125	1	8	0.092652999	15.567	-11.745	-10.293
126	1	8	0.092652999	15.637	-10.08	-10.974
127	1	7	-0.180821	15.124	-8.7019997	-8.5640001
128	1	8	0.130945	15.803	-8.2270002	-9.3079996
129	1	8	0.130945	14.197	-8.0869999	-8.599
130	1	2	-0.241441	15.58	-6.4180002	-5.7410002
131	1	3	0.215754	16.593	-6.1459999	-5.9959998
132	1	2	0.006234	14.878	-5.572	-4.9770002
133	1	3	0.223389	15.339	-4.652	-4.6389999

Bonds

1	1	1	2
2	2	1	25
3	3	1	66
4	4	2	3
5	4	2	23
6	5	3	4
7	4	3	5
8	5	5	6
9	4	5	7
10	6	7	8
11	4	7	21
12	6	8	9
13	4	9	10
14	4	9	19
15	5	10	11
16	4	10	12
17	5	12	13
18	4	12	14
19	1	14	15
20	4	14	17
21	2	15	16
22	7	15	26
23	5	17	18
24	4	17	19
25	5	19	20
26	5	21	22
27	4	21	23
28	5	23	24
29	8	26	27
30	9	26	28
31	4	28	29
32	4	28	64
33	5	29	30
34	4	29	31
35	5	31	32
36	4	31	33
37	10	33	34
38	4	33	62
39	11	34	35
40	10	34	39
41	11	34	59
42	12	35	36
43	12	35	37
44	12	35	38
45	4	39	40
46	4	39	49
47	5	40	41
48	4	40	42
49	5	42	43
50	4	42	44
51	9	44	45
52	4	44	47
53	8	45	46
54	9	45	92
55	5	47	48
56	4	47	49
57	10	49	50
58	11	50	51
59	11	50	55
60	11	50	59
61	12	51	52
62	12	51	53
63	12	51	54
64	12	55	56
65	12	55	57
66	12	55	58
67	12	59	60
68	12	59	61
69	5	62	63
70	4	62	64
71	5	64	65
72	1	66	67
73	2	66	91
74	4	67	68
75	4	67	89
76	5	68	69
77	4	68	70
78	5	70	71
79	4	70	72
80	6	72	73
81	4	72	87
82	6	73	74
83	4	74	75
84	4	74	85
85	5	75	76
86	4	75	77
87	5	77	78
88	4	77	79
89	1	79	80
90	4	79	83
91	2	80	81
92	2	80	82
93	5	83	84
94	4	83	85
95	5	85	86
96	5	87	88
97	4	87	89
98	5	89	90
99	8	92	93
100	9	92	94
101	4	94	95
102	4	94	132
103	5	95	96
104	4	95	97
105	5	97	98
106	4	97	99
107	10	99	100
108	4	99	130
109	11	100	101
110	10	100	105
111	11	100	127
112	12	101	102
113	12	101	103
114	12	101	104
115	4	105	106
116	4	105	117
117	5	106	107
118	4	106	108
119	5	108	109
120	4	108	110
121	9	110	111
122	4	110	115
123	8	111	112
124	13	111	113
125	14	113	114
126	5	115	116
127	4	115	117
128	10	117	118
129	11	118	119
130	11	118	123
131	11	118	127
132	12	119	120
133	12	119	121
134	12	119	122
135	12	123	124
136	12	123	125
137	12	123	126
138	12	127	128
139	12	127	129
140	5	130	131
141	4	130	132
142	5	132	133

Angles

1	6	33	34	59
2	1	97	99	100
3	2	14	15	26
4	4	76	75	77
5	4	30	29	31
6	6	105	100	127
7	6	33	34	39
8	6	50	51	54
9	6	49	50	55
10	1	73	74	75
11	1	10	9	19
12	8	102	101	103
13	1	2	23	21
14	4	10	12	13
15	1	12	14	17
16	4	105	106	107
17	6	118	123	124
18	8	56	55	58
19	1	29	28	64
20	6	33	34	35
21	3	1	66	91
22	3	2	1	25
23	1	92	94	95
24	4	116	115	117
25	5	111	113	114
26	6	123	118	127
27	4	131	130	132
28	1	3	2	23
29	3	79	80	82
30	4	41	40	42
31	1	79	83	85
32	4	130	132	133
33	4	6	5	7
34	1	44	45	46
35	8	102	101	104
36	1	10	12	14
37	1	15	26	27
38	1	105	106	108
39	6	99	100	105
40	4	110	115	116
41	6	118	123	125
42	1	45	92	93
43	1	26	28	29
44	3	16	15	26
45	4	4	3	5
46	5	7	8	9
47	4	29	31	32
48	6	50	55	56
49	1	94	95	97
50	4	43	42	44
51	6	34	35	37
52	6	51	50	59
53	4	69	68	70
54	8	36	35	38
55	6	99	100	101
56	6	118	119	120
57	4	94	132	133
58	6	117	118	123
59	1	111	110	115
60	4	22	21	23
61	4	17	19	20
62	6	51	50	55
63	4	28	64	65
64	1	110	115	117
65	4	74	75	76
66	8	125	123	126
67	1	46	45	92
68	1	29	31	33
69	4	40	42	43
70	6	50	55	57
71	4	71	70	72
72	1	8	7	21
73	4	99	130	131
74	6	117	118	119
75	8	53	51	54
76	1	80	79	83
77	1	66	67	89
78	6	34	35	38
79	1	75	77	79
80	4	95	97	98
81	4	33	62	63
82	1	105	117	118
83	1	8	9	10
84	1	68	67	89
85	1	110	111	112
86	6	118	119	121
87	6	55	50	59
88	1	68	70	72
89	4	7	21	22
90	1	42	44	45
91	1	77	79	83
92	4	3	5	6
93	1	45	44	47
94	1	40	42	44
95	1	99	130	132
96	4	107	106	108
97	1	94	132	130
98	2	2	1	66
99	4	9	19	20
100	3	14	15	16
101	4	106	108	109
102	1	108	110	115
103	1	110	111	113
104	6	100	101	102
105	1	73	72	87
106	1	7	21	23
107	1	1	2	3
108	7	34	39	40
109	1	40	39	49
110	6	119	118	123
111	1	27	26	28
112	1	108	110	111
113	8	128	127	129
114	3	25	1	66
115	6	34	59	60
116	4	18	17	19
117	4	67	89	90
118	6	101	100	127
119	1	70	72	87
120	8	37	35	38
121	1	8	9	19
122	1	15	26	28
123	4	11	10	12
124	6	35	34	59
125	1	106	108	110
126	4	39	40	41
127	1	77	79	80
128	6	118	123	126
129	1	45	92	94
130	6	118	127	128
131	6	35	34	39
132	6	100	127	128
133	6	117	118	127
134	6	50	51	52
135	5	72	73	74
136	8	120	119	121
137	1	9	19	17
138	1	75	74	85
139	1	12	14	15
140	1	92	94	132
141	7	115	117	118
142	8	124	123	125
143	1	39	49	50
144	4	44	47	48
145	4	13	12	14
146	6	34	59	61
147	4	74	85	86
148	4	67	68	69
149	4	2	23	24
150	1	93	92	94
151	4	96	95	97
152	6	39	34	59
153	3	81	80	82
154	1	74	75	77
155	3	67	66	91
156	1	15	14	17
157	6	50	55	58
158	8	103	101	104
159	6	50	51	53
160	1	70	72	73
161	9	112	111	113
162	1	73	74	85
163	1	95	97	99
164	4	28	29	30
165	1	33	62	64
166	1	100	99	130
167	1	28	64	62
168	6	118	119	122
169	1	34	39	49
170	4	9	10	11
171	8	56	55	57
172	1	100	105	117
173	4	109	108	110
174	1	105	117	115
175	1	3	5	7
176	3	79	80	81
177	1	39	49	47
178	6	99	100	127
179	4	79	83	84
180	4	72	87	88
181	4	78	77	79
182	1	74	85	83
183	1	95	94	132
184	1	44	45	92
185	6	119	118	127
186	1	28	29	31
187	1	34	33	62
188	1	5	7	8
189	4	63	62	64
190	6	50	59	60
191	6	100	101	103
192	1	26	28	64
193	4	48	47	49
194	1	9	10	12
195	1	5	7	21
196	1	42	44	47
197	4	62	64	65
198	4	94	95	96
199	6	49	50	51
200	8	52	51	53
201	4	87	89	90
202	6	100	127	118
203	6	34	35	36
204	8	121	119	122
205	4	2	3	4
206	8	60	59	61
207	4	84	83	85
208	8	36	35	37
209	1	31	33	34
210	1	106	105	117
211	1	72	87	89
212	4	14	17	18
213	6	34	59	50
214	1	39	40	42
215	2	1	66	67
216	6	50	59	61
217	6	118	127	129
218	6	100	101	104
219	6	100	127	129
220	1	67	89	87
221	8	52	51	54
222	8	120	119	122
223	4	88	87	89
224	4	83	85	86
225	4	75	77	78
226	1	2	3	5
227	1	66	67	68
228	6	101	100	105
229	4	98	97	99
230	8	124	123	126
231	1	44	47	49
232	1	97	99	130
233	1	1	2	23
234	7	47	49	50
235	4	32	31	33
236	1	14	17	19
237	6	49	50	59
238	4	68	70	71
239	1	31	33	62
240	1	67	68	70
241	8	57	55	58
242	7	100	105	106
243	4	21	23	24

Dihedrals

1	10	16	15	26	27
1	11	16	15	26	27
2	1	77	79	83	84
3	1	10	12	14	15
4	17	35	34	59	60
5	12	99	100	105	106
6	1	105	106	108	109
7	1	40	39	49	50
8	13	33	34	59	60
9	7	14	15	26	28
9	8	14	15	26	28
10	1	111	110	115	117
11	1	92	94	95	97
12	1	2	23	21	22
13	14	34	59	50	55
13	15	34	59	50	55
13	16	34	59	50	55
14	1	76	75	74	85
15	13	100	127	118	117
16	1	29	28	64	65
17	1	94	95	97	99
18	1	71	70	72	73
19	12	47	49	50	51
20	12	97	99	100	105
21	1	31	29	28	64
22	2	16	15	14	17
23	1	73	74	85	86
24	1	3	2	23	24
25	1	26	28	64	65
26	1	43	42	44	47
27	2	77	79	80	81
28	1	108	110	115	117
29	13	104	101	100	105
30	1	15	14	17	18
31	1	106	108	110	115
32	12	115	117	118	123
33	12	47	49	50	55
34	1	9	10	12	13
35	13	33	34	35	36
36	9	15	26	28	29
37	9	47	44	45	92
38	1	67	68	70	72
39	9	42	44	45	92
40	1	30	29	31	33
41	9	45	92	94	132
42	1	99	130	132	133
43	9	46	45	92	94
44	1	68	67	89	90
45	17	103	101	100	127
46	1	92	94	132	130
47	17	101	100	127	128
48	4	70	72	73	74
49	1	29	31	33	62
50	13	99	100	127	128
51	13	49	50	55	57
52	1	12	14	17	19
53	1	74	75	77	79
54	17	119	118	127	129
55	13	117	118	119	120
56	1	100	105	106	108
57	14	35	34	59	50
57	15	35	34	59	50
57	16	35	34	59	50
58	2	68	67	66	91
59	17	102	101	100	127
60	1	48	47	49	50
61	1	111	110	115	116
62	1	8	7	21	23
63	12	127	100	99	130
64	1	94	95	97	98
65	2	3	2	1	66
66	2	12	14	15	16
67	1	75	77	79	83
68	17	121	119	118	123
69	1	22	21	23	24
70	1	1	2	23	21
71	1	13	12	14	17
72	1	67	89	87	72
73	17	52	51	50	59
74	1	68	67	89	87
75	1	67	89	87	88
76	9	27	26	28	64
77	12	97	99	100	127
78	1	39	40	42	43
79	12	33	34	39	40
80	17	36	35	34	59
81	3	2	1	66	91
82	13	36	35	34	39
83	17	57	55	50	59
84	1	68	70	72	87
85	1	74	85	83	84
86	17	119	118	123	126
87	1	80	79	83	85
88	17	51	50	55	56
89	1	67	68	70	71
90	9	93	92	94	95
91	1	30	29	31	32
92	17	104	101	100	127
93	1	110	115	117	118
94	1	70	72	87	89
95	1	40	42	44	47
96	12	40	39	34	59
97	2	89	67	66	91
98	13	99	100	101	104
99	17	55	50	59	61
100	13	49	50	59	61
101	1	75	77	79	80
102	1	12	14	17	18
103	18	110	111	113	114
104	4	72	73	74	85
105	1	88	87	89	90
106	12	97	99	100	101
107	1	100	99	130	131
108	1	107	106	105	117
109	1	11	10	9	19
110	1	73	72	87	89
111	17	122	119	118	123
112	17	119	118	127	128
113	13	117	118	123	124
114	1	96	95	94	132
115	1	100	105	106	107
116	1	5	7	21	22
117	1	8	7	21	22
118	1	11	10	12	14
119	1	92	94	132	133
120	9	46	45	44	47
121	1	2	3	5	6
122	1	106	108	110	111
123	12	115	117	118	119
124	1	41	40	42	44
125	1	34	39	40	42
126	1	26	28	29	31
127	1	29	31	33	34
128	2	3	2	1	25
129	17	53	51	50	59
130	2	1	66	67	68
131	13	105	100	127	129
132	9	108	110	111	112
133	1	8	9	19	17
134	1	94	132	130	99
135	14	100	127	118	119
135	15	100	127	118	119
135	16	100	127	118	119
136	4	72	73	74	75
137	1	78	77	79	83
138	1	6	5	7	8
139	4	7	8	9	10
140	12	105	117	118	119
141	1	6	5	7	21
142	13	49	50	51	52
143	1	45	44	47	49
144	17	38	35	34	59
145	1	1	2	23	24
146	1	44	47	49	50
147	13	38	35	34	39
148	1	96	95	97	99
149	17	119	118	123	125
150	1	80	79	83	84
151	12	39	49	50	59
152	17	51	50	59	60
153	1	105	117	115	110
154	1	107	106	108	110
155	9	112	111	110	115
156	17	37	35	34	59
157	1	69	68	67	89
158	1	94	132	130	131
159	13	37	35	34	39
160	1	70	72	87	88
161	1	66	67	89	87
162	17	120	119	118	127
163	13	99	100	101	103
164	14	100	127	118	123
164	15	100	127	118	123
164	16	100	127	118	123
165	2	23	2	1	66
166	17	55	50	59	60
167	4	7	8	9	19
168	2	81	80	79	83
169	3	2	1	66	67
170	1	4	3	5	7
171	1	32	31	33	62
172	14	101	100	127	118
172	15	101	100	127	118
172	16	101	100	127	118
173	1	66	67	68	70
174	12	105	117	118	123
175	17	58	55	50	59
176	13	99	100	127	118
177	4	5	7	8	9
178	13	33	34	35	38
179	17	126	123	118	127
180	1	28	29	31	33
181	12	101	100	99	130
182	5	14	15	26	27
182	6	14	15	26	27
183	1	92	94	95	96
184	17	52	51	50	55
185	1	106	105	117	115
186	1	98	97	99	130
187	1	70	68	67	89
188	9	45	92	94	95
189	1	1	2	3	5
190	1	10	9	19	17
191	1	11	10	12	13
192	17	124	123	118	127
193	1	78	77	79	80
194	1	75	74	85	86
195	1	8	9	10	12
196	12	39	34	33	62
197	13	117	118	127	129
198	1	34	39	40	41
199	7	16	15	26	28
199	8	16	15	26	28
200	1	42	44	47	49
201	1	31	33	62	64
202	1	108	106	105	117
203	4	74	73	72	87
204	1	105	117	115	116
205	1	97	95	94	132
206	1	95	97	99	130
207	13	117	118	119	122
208	13	105	100	127	128
209	9	113	111	110	115
210	1	108	110	115	116
211	12	35	34	39	40
212	1	73	74	75	77
213	1	109	108	110	115
214	12	33	34	39	49
215	1	45	44	47	48
216	1	79	83	85	86
217	1	76	75	77	79
218	1	63	62	64	65
219	1	96	95	97	98
220	13	39	34	59	61
221	1	107	106	108	109
222	1	97	99	130	132
223	1	33	62	64	65
224	1	18	17	19	20
225	12	31	33	34	59
226	9	46	45	92	93
227	1	8	9	19	20
228	13	34	59	50	49
229	12	31	33	34	39
230	1	95	94	132	130
231	1	75	74	85	83
232	1	68	70	72	73
233	1	131	130	132	133
234	13	49	50	55	56
235	2	23	2	1	25
236	1	34	33	62	64
237	1	28	29	31	32
238	1	74	75	77	78
239	1	39	49	47	48
240	17	51	50	55	58
241	17	53	51	50	55
242	1	12	10	9	19
243	1	2	23	21	7
244	1	66	67	89	90
245	2	12	14	15	26
246	1	1	2	3	4
247	12	115	117	118	127
248	13	117	118	127	128
249	13	99	100	127	129
250	1	100	105	117	115
251	1	32	31	33	34
252	1	42	44	47	48
253	3	25	1	66	91
254	1	5	3	2	23
255	1	31	33	62	63
256	1	71	70	72	87
257	1	74	85	83	79
258	1	4	3	2	23
259	12	99	100	105	117
260	1	10	12	14	17
261	13	117	118	123	126
262	1	69	68	70	72
263	12	39	49	50	55
264	13	117	118	119	121
265	17	54	51	50	55
266	2	82	80	79	83
267	1	43	42	44	45
268	1	106	105	117	118
269	17	123	118	127	129
270	1	10	9	19	20
271	1	34	39	49	50
272	1	42	40	39	49
273	12	105	117	118	127
274	1	73	74	75	76
275	4	9	8	7	21
276	1	76	75	77	78
277	12	101	100	105	117
278	1	30	29	28	64
279	12	101	100	105	106
280	13	39	34	59	60
281	17	54	51	50	59
282	1	97	99	130	131
283	12	35	34	33	62
284	13	49	50	59	60
285	1	39	40	42	44
286	17	121	119	118	127
287	13	49	50	51	54
288	1	34	33	62	63
289	1	73	72	87	88
290	17	51	50	55	57
291	1	40	39	49	47
292	12	117	105	100	127
293	9	44	45	92	94
294	1	95	94	132	133
295	1	34	39	49	47
296	1	116	115	117	118
297	17	125	123	118	127
298	1	29	28	64	62
299	1	98	97	99	100
300	12	47	49	50	59
301	1	41	40	42	43
302	1	109	108	110	111
303	9	15	26	28	64
304	1	28	64	62	33
305	1	100	99	130	132
306	1	26	28	29	30
307	9	27	26	28	29
308	1	77	79	83	85
309	13	117	118	123	125
310	1	73	74	85	83
311	17	35	34	59	61
312	1	69	68	70	71
313	1	13	12	14	15
314	1	105	106	108	110
315	1	5	7	21	23
316	1	3	2	23	21
317	1	7	21	23	24
318	13	33	34	59	61
319	1	26	28	64	62
320	1	95	97	99	100
321	13	33	34	59	50
322	13	105	100	127	118
323	17	120	119	118	123
324	17	123	118	127	128
325	1	9	19	17	14
326	12	31	33	34	35
327	12	35	34	39	49
328	1	2	3	5	7
329	1	14	17	19	20
330	12	105	100	99	130
331	3	25	1	66	67
332	1	100	105	117	118
333	12	59	34	33	62
334	12	106	105	100	127
335	1	41	40	39	49
336	9	93	92	94	132
337	17	119	118	123	124
338	17	122	119	118	127
339	1	39	49	47	44
340	13	39	34	59	50
341	2	77	79	80	82
342	1	40	42	44	45
343	9	108	110	111	113
344	13	99	100	101	102
345	1	9	19	17	18
346	1	15	14	17	19
347	17	56	55	50	59
348	1	4	3	5	6
349	13	103	101	100	105
350	1	66	67	68	69
351	1	9	10	12	14
352	13	49	50	51	53
353	13	33	34	35	37
354	17	51	50	59	61
355	9	42	44	45	46
356	12	39	49	50	51
357	1	77	75	74	85
358	19	112	111	113	114
358	20	112	111	113	114
359	1	3	5	7	8
360	2	17	14	15	26
361	1	3	5	7	21
362	1	84	83	85	86
363	13	102	101	100	105
364	2	1	66	67	89
365	9	44	45	92	93
366	1	72	87	89	90
367	14	34	59	50	51
367	15	34	59	50	51
367	16	34	59	50	51
368	1	28	64	62	63
369	17	101	100	127	129
370	1	8	9	10	11
371	12	49	39	34	59
372	13	49	50	55	58

Impropers

4	1	49	39	47	50
9	1	87	89	72	88
13	1	132	133	94	130
14	2	1	25	66	2
15	1	130	132	99	131
18	1	83	84	85	79
24	1	83	85	79	84
27	1	74	73	75	85
28	1	14	12	15	17
32	1	17	14	18	19
36	1	40	39	41	42
38	2	15	26	14	16
44	1	44	47	42	45
51	1	62	63	64	33
52	1	92	93	94	45
56	1	19	17	20	9
57	1	5	3	6	7
59	1	49	50	39	47
61	1	89	90	67	87
64	1	47	48	49	44
69	1	105	106	117	100
70	1	45	44	46	92
80	1	72	73	87	70
82	1	77	75	78	79
85	1	85	86	74	83
91	1	68	69	70	67
96	1	42	43	44	40
98	1	2	1	3	23
106	2	66	67	91	1
107	1	87	72	88	89
114	1	31	29	32	33
115	1	94	95	132	92
118	3	111	110	112	113
120	1	3	2	4	5
124	1	12	10	13	14
126	1	29	31	28	30
131	1	17	18	19	14
134	1	10	12	9	11
137	1	10	9	11	12
138	1	94	132	92	95
140	1	77	79	75	78
145	1	108	106	109	110
155	1	3	5	2	4
157	1	26	15	27	28
168	1	42	44	40	43
173	1	45	46	92	44
181	1	97	98	99	95
183	1	40	42	39	41
184	1	108	109	110	106
185	1	21	23	7	22
189	1	72	70	73	87
191	1	64	62	65	28
198	1	33	34	62	31
200	1	23	21	24	2
204	2	1	2	25	66
209	1	110	108	111	115
214	1	130	99	131	132
215	1	19	9	17	20
216	2	80	79	81	82
217	1	92	45	93	94
221	1	95	94	96	97
225	1	68	67	69	70
226	2	66	91	1	67
234	1	67	89	66	68
235	2	80	82	79	81
236	1	67	68	89	66
240	2	66	1	67	91
243	1	64	28	62	65
246	1	115	116	117	110
251	2	1	66	2	25
268	1	79	83	77	80
269	1	23	2	21	24
278	1	70	68	71	72
283	1	31	32	33	29
286	1	117	118	105	115
290	1	2	3	23	1
293	1	75	74	76	77
302	1	68	70	67	69
303	1	74	85	73	75
304	1	79	77	80	83
307	1	115	110	116	117
309	1	105	117	100	106
311	1	9	8	10	19
314	1	99	97	100	130
315	1	21	22	23	7
316	1	70	71	72	68
318	1	117	115	118	105
321	1	44	45	47	42
323	1	26	28	15	27
324	1	79	80	83	77
325	1	105	100	106	117
327	1	44	42	45	47
331	1	132	130	133	94
334	1	97	99	95	98
337	1	62	64	33	63
339	1	115	117	110	116
346	1	39	49	34	40
351	1	47	44	48	49
355	1	12	13	14	10
356	1	85	83	86	74
358	1	47	49	44	48
360	1	64	65	28	62
361	1	29	30	31	28
362	1	9	10	19	8
367	1	7	8	21	5
370	1	70	72	68	71
378	1	28	29	64	26
382	2	15	14	16	26
385	1	94	92	95	132
387	1	99	100	130	97
393	1	7	21	5	8
403	1	89	67	87	90
404	1	83	79	84	85
405	1	92	94	45	93
407	1	87	88	89	72
415	1	7	5	8	21
417	1	85	74	83	86
418	1	110	115	108	111
419	1	9	19	8	10
421	2	15	16	26	14
425	1	12	14	10	13
427	1	26	27	28	15
429	1	75	77	74	76
432	1	99	130	97	100
434	3	111	113	110	112
439	1	31	33	29	32
446	1	67	66	68	89
447	1	106	108	105	107
452	1	21	7	22	23
454	1	62	33	63	64
455	1	110	111	115	108
456	1	74	75	85	73
461	1	89	87	90	67
468	1	28	26	29	64
469	1	108	110	106	109
481	1	5	7	3	6
484	1	72	87	70	73
485	1	39	40	49	34
487	1	33	62	31	34
488	1	95	97	94	96
491	2	80	81	82	79
496	1	42	40	43	44
503	1	40	41	42	39
504	1	17	19	14	18
508	1	106	105	107	108
510	1	5	6	7	3
517	1	29	28	30	31
523	1	23	24	2	21
527	1	132	94	130	133
528	1	10	11	12	9
531	1	33	31	34	62
545	1	49	47	50	39
547	1	3	4	5	2
552	1	95	96	97	94
555	1	106	107	108	105
561	1	14	17	12	15
563	1	77	78	79	75
578	1	130	131	132	99
580	1	117	105	115	118
587	3	111	112	113	110
589	1	45	92	44	46
594	1	75	76	77	74
598	1	19	20	9	17
608	1	2	23	1	3
612	1	97	95	98	99
617	1	28	64	26	29
618	1	14	15	17	12
620	1	39	34	40	49
