Title

666 atoms
701 bonds
1220 angles
2321 dihedrals
642 impropers

13 atom types
18 bond types
10 angle types
30 dihedral types
3 improper types
-8.258999825 91.74100018 xlo xhi
-38.87200165 61.12799835 ylo yhi
-3.052000046 96.94799995 zlo zhi
0.0 0.0 0.0 xy xz yz

Masses

1	15.99943
2	12.01078
3	14.00672
4	12.01078
5	1.007947
6	1.007947
7	1.007947
8	15.99943
9	1.007947
10	1.007947
11	12.01078
12	15.99943
13	1.007947


Pair Coeffs

1	0.2102061	3.0398122
2	0.086879315	3.4806469
3	0.16769152	3.206876
4	0.10884061	3.3795318
5	0.014090815	1.1034277
6	0.015779483	2.6445434
7	0.016409246	2.5832257
8	0.16846514	3.0251065
9	0.015611343	2.5725815
10	0.013106998	2.4536265
11	0.21	3.3996695
12	0.20947353	2.99716
13	1.2326e-05	0.53453923

Bond Coeffs

1 harmonic	582.698766451	1.225198386222
2 harmonic	492.76746816345	1.381897776683
3 harmonic	301.15400723785	1.345741232799
4 harmonic	352.0565580496	1.450098586273
5 harmonic	505.144496193	1.019481865027
6 harmonic	264.62148576755	1.52190126495
7 harmonic	370.04670688625	1.093899492634
8 harmonic	279.1350963404	1.454628925034
9 harmonic	425.69104206635	1.362945806494
10 harmonic	360.7852444772	1.387193227181
11 harmonic	397.2545789619	1.085358495916
12 harmonic	382.5450169811	1.379244394267
13 harmonic	505.481965552	1.304826179986
14 harmonic	300.03137914615	1.451203938761
15 harmonic	366.34047229585	1.464762957261
16 harmonic	602.81384337	1.196112346392
17 harmonic	385.7604595587	1.369745182308
18 harmonic	543.5267831885	0.9716763312559


Angle Coeffs

1 harmonic	57.8982893754	126.8062420451
2 harmonic	201.41175231035	127.4691416191
3 harmonic	55.42182150775	117.3465570514
4 harmonic	63.44422595415	115.5071327674
5 harmonic	65.09061609600001	110.3538806181
6 harmonic	53.20531626545	116.5475862634
7 harmonic	48.776492647595	115.6030999533
8 harmonic	34.066775159195	129.1835929926
9 harmonic	55.07882548015	112.8714009681
10 harmonic	33.56981613361	180


Dihedral Coeffs

1 fourier 1	1.809047390003	2	180
2 fourier 1	-0.04816277792592	1	0
3 fourier 1	0.4860993122944	2	180
4 fourier 1	0.8916986138746	1	0
5 fourier 1	1.532232714475	2	180
6 fourier 1	-0.1488678166443	4	180
7 fourier 1	-0.1230328948768	3	180
8 fourier 1	0.2939295466901	2	0
9 fourier 1	-0.3024127022865	1	0
10 fourier 1	0.182238503271	2	0
11 fourier 1	0.02972342374561	3	0
12 fourier 1	2.779853741805	2	180
13 fourier 1	0.1155372516788	3	0
14 fourier 1	0.09223874044423	3	0
15 fourier 1	0.3159935921949	2	180
16 fourier 1	0.3247796806857	1	180
17 fourier 1	0.1040663847541	3	0
18 fourier 1	3.101948770557	2	180
19 fourier 1	-0.4252153282372	1	0
20 fourier 1	0.9974165607242	2	180
21 fourier 1	2.348375642009	2	180
22 fourier 1	1.256156174911	1	0
23 fourier 1	0.1911926717192	3	0
24 fourier 1	3.661930099076	2	180
25 fourier 1	1.550515418264	2	180
26 fourier 1	6.736762477654	2	180
27 fourier 1	0.457973137376	1	0
28 fourier 1	-1.382973039546	1	0
29 fourier 1	0	1	0
30 fourier 1	0.8283030590042	2	180


Improper Coeffs

1 3.5	-1	2
2 0.3333333333333333	-1	2
3 0.3666666666666667	-1	2


Atoms

1	1	1	-0.61483502	4.3569999	-0.79299998	2.1559999
2	1	2	0.80832398	4.2280002	-1.342	1.029
3	1	3	-0.45701101	3.3629999	-0.78799999	0.032000002
4	1	4	0.00080099999	2.552	0.41299999	0.24699999
5	1	4	-0.005196	1.054	0.071000002	0.51599997
6	1	4	-0.20340399	0.30000001	1.416	0.71100003
7	1	4	0.128923	-1.234	1.276	0.70899999
8	1	3	-0.563573	-1.855	2.598	0.86000001
9	1	2	0.56047899	-3.2219999	2.7650001	1.2539999
10	1	1	-0.65593201	-3.95	1.7690001	1.506
11	1	5	0.31760401	-1.288	3.4630001	0.713
12	1	4	-0.206972	-1.705	0.63200003	-0.60600001
13	1	4	-0.025488	-1.071	-0.75700003	-0.87099999
14	1	4	-0.208297	0.48199999	-0.69700003	-0.72000003
15	1	6	0.119933	0.89200002	-1.7309999	-0.74599999
16	1	6	0.119933	0.88200003	-0.19499999	-1.63
17	1	4	-0.169462	-1.7	-1.836	0.045000002
18	1	6	0.081518002	-2.7620001	-2.01	-0.23100001
19	1	6	0.081518002	-1.707	-1.55	1.109
20	1	6	0.081518002	-1.159	-2.802	-0.056000002
21	1	4	-0.169462	-1.395	-1.163	-2.3280001
22	1	6	0.081518002	-0.97899997	-0.42899999	-3.052
23	1	6	0.081518002	-0.963	-2.161	-2.562
24	1	6	0.081518002	-2.494	-1.212	-2.4920001
25	1	6	0.119722	-1.448	1.324	-1.4400001
26	1	6	0.119722	-2.813	0.537	-0.597
27	1	7	0.052457001	-1.543	0.65600002	1.574
28	1	6	0.1182	0.58200002	2.118	-0.106
29	1	6	0.1182	0.61799997	1.888	1.668
30	1	4	-0.16773801	0.98699999	-0.77999997	1.8099999
31	1	6	0.078514002	1.6210001	-0.329	2.6040001
32	1	6	0.078514002	-0.026000001	-0.83999997	2.2390001
33	1	6	0.078514002	1.349	-1.813	1.625
34	1	7	0.080669999	2.641	1.056	-0.65600002
35	1	7	0.080669999	2.967	1.013	1.087
36	1	5	0.33086899	3.2920001	-1.285	-0.884
37	1	8	-0.43978399	5.4260001	-15.343	4.7849998
38	1	2	0.25864601	5.0419998	-14.434	3.803
39	1	2	-0.21096601	5.329	-14.681	2.5179999
40	1	2	-0.16602001	4.9289999	-13.719	1.469
41	1	2	0.193597	4.3060002	-12.577	1.7970001
42	1	2	-0.16602001	3.9560001	-12.324	3.22
43	1	2	-0.21096601	4.3140001	-13.198	4.1690001
44	1	9	0.19516	4.0560002	-13.007	5.2030001
45	1	9	0.192496	3.395	-11.44	3.497
46	1	3	-0.58836699	3.902	-11.676	0.755
47	1	2	0.40508601	3.924	-10.373	0.78299999
48	1	2	-0.28583199	4.552	-9.5699997	1.855
49	1	2	-0.19767	5.7670002	-9.8710003	2.346
50	1	2	-0.19767	6.3800001	-9.0270004	3.392
51	1	2	-0.28583199	5.757	-7.9180002	3.822
52	1	2	-0.19767	4.4169998	-7.5830002	3.277
53	1	2	-0.19767	3.8570001	-8.3549995	2.3380001
54	1	9	0.194804	2.8800001	-8.0979996	1.946
55	1	9	0.194804	3.8770001	-6.7189999	3.6429999
56	1	2	0.40508699	6.3779998	-7.0970001	4.8850002
57	1	3	-0.58836699	6.3709998	-5.7940001	4.9029999
58	1	2	0.193597	5.9439998	-4.9120002	3.8540001
59	1	2	-0.16602001	5.2940001	-3.783	4.1719999
60	1	2	-0.21096601	4.869	-2.8410001	3.1159999
61	1	2	0.244986	5.1609998	-3.0929999	1.83
62	1	2	-0.21096601	5.9180002	-4.3130002	1.477
63	1	2	-0.16602001	6.2989998	-5.1690001	2.4319999
64	1	9	0.192496	6.8800001	-6.0419998	2.1630001
65	1	9	0.19516	6.177	-4.5050001	0.44400001
66	1	8	-0.43853	4.7649999	-2.2179999	0.82099998
67	1	9	0.19516	4.3210001	-1.948	3.3889999
68	1	9	0.192496	5.059	-3.5599999	5.2059999
69	1	10	0.13563301	6.8369999	-7.6149998	5.717
70	1	9	0.194804	7.349	-9.3059998	3.79
71	1	9	0.194804	6.3210001	-10.725	1.977
72	1	10	0.13563301	3.4760001	-9.8369999	-0.043000001
73	1	9	0.192496	5.1599998	-13.938	0.43399999
74	1	9	0.19516	5.855	-15.585	2.24
75	1	1	-0.61483502	6.7179999	-19.091999	13.095
76	1	2	0.80832398	5.4959998	-19.004	13.389
77	1	3	-0.45701101	4.4980001	-18.879	12.371
78	1	4	0.00080099999	4.8109999	-18.813	10.94
79	1	4	-0.005196	4.7189999	-17.357	10.385
80	1	4	-0.20227601	5.0539999	-17.417999	8.8690004
81	1	4	0.13447	4.7389998	-16.117001	8.1079998
82	1	3	-0.53157902	5.0510001	-16.284	6.684
83	1	2	0.82894301	5.2119999	-15.172	5.796
84	1	1	-0.61484098	5.1069999	-13.988	6.2140002
85	1	5	0.32155401	5.1999998	-17.24	6.289
86	1	4	-0.20584901	3.253	-15.755	8.2709999
87	1	4	-0.025488	2.819	-15.593	9.7510004
88	1	4	-0.208297	3.263	-16.827	10.598
89	1	6	0.119933	3.0929999	-16.611	11.676
90	1	6	0.119933	2.572	-17.664	10.35
91	1	4	-0.169462	3.3510001	-14.264	10.341
92	1	6	0.081518002	2.8529999	-13.396	9.8570004
93	1	6	0.081518002	4.4310002	-14.121	10.18
94	1	6	0.081518002	3.1470001	-14.209	11.432
95	1	4	-0.169462	1.274	-15.515	9.7930002
96	1	6	0.081518002	0.81400001	-16.438	9.3769999
97	1	6	0.081518002	0.917	-15.392	10.839
98	1	6	0.081518002	0.90399998	-14.654	9.1940002
99	1	6	0.119722	2.648	-16.558001	7.7919998
100	1	6	0.119722	3.036	-14.815	7.7179999
101	1	7	0.054701	5.3779998	-15.302	8.5019999
102	1	6	0.1182	4.4720001	-18.242001	8.3959999
103	1	6	0.1182	6.131	-17.664	8.7329998
104	1	4	-0.16773801	5.7670002	-16.497	11.137
105	1	6	0.078514002	6.7410002	-17.028	11.187
106	1	6	0.078514002	5.9770002	-15.536	10.64
107	1	6	0.078514002	5.4349999	-16.285	12.176
108	1	7	0.080669999	4.098	-19.473	10.4
109	1	7	0.080669999	5.822	-19.235001	10.747
110	1	5	0.33086899	3.5	-18.808001	12.67
111	1	8	-0.43978399	6.3309999	-11.465	25.799999
112	1	2	0.25864601	5.5120001	-11.911	24.766001
113	1	2	-0.21096601	4.2800002	-12.359	25.039
114	1	2	-0.16602001	3.405	-12.838	23.948
115	1	2	0.193597	3.848	-12.86	22.681999
116	1	2	-0.16602001	5.2030001	-12.326	22.377001
117	1	2	-0.21096601	5.9920001	-11.887	23.365999
118	1	9	0.19516	6.9770002	-11.501	23.136999
119	1	9	0.192496	5.553	-12.274	21.355
120	1	3	-0.58836699	2.9660001	-13.302	21.639
121	1	2	0.40508601	3.276	-14.008	20.587
122	1	2	-0.28583199	4.5910001	-14.646	20.365
123	1	2	-0.19767	5.223	-15.324	21.341
124	1	2	-0.19767	6.52	-15.979	21.075001
125	1	2	-0.28583199	7.0539999	-15.955	19.844
126	1	2	-0.19767	6.355	-15.21	18.764999
127	1	2	-0.19767	5.1849999	-14.607	19.01
128	1	9	0.194804	4.684	-14.068	18.215
129	1	9	0.194804	6.7909999	-15.14	17.777
130	1	2	0.40508699	8.3629999	-16.6	19.603001
131	1	3	-0.58836699	8.6569996	-17.285	18.534
132	1	2	0.193597	7.7600002	-17.700001	17.492001
133	1	2	-0.16602001	8.1870003	-17.695999	16.221001
134	1	2	-0.21096601	7.296	-18.146999	15.132
135	1	2	0.244986	6.0630002	-18.597	15.412
136	1	2	-0.21096601	5.6040001	-18.649	16.816
137	1	2	-0.16602001	6.408	-18.235001	17.802999
138	1	9	0.192496	6.0700002	-18.308001	18.827999
139	1	9	0.19516	4.619	-19.035999	17.046
140	1	8	-0.43853	5.2080002	-19.023001	14.396
141	1	9	0.19516	7.6479998	-18.111	14.108
142	1	9	0.192496	9.1829996	-17.344	15.98
143	1	10	0.13563301	9.1359997	-16.464001	20.349001
144	1	9	0.194804	7.0209999	-16.497	21.884001
145	1	9	0.194804	4.7880001	-15.413	22.329
146	1	10	0.13563301	2.5139999	-14.16	19.834
147	1	9	0.192496	2.408	-13.189	24.184
148	1	9	0.19516	3.9170001	-12.374	26.059
149	1	1	-0.61483502	13.741	-8.2290001	30.205
150	1	2	0.80832398	13.816	-7.2179999	29.457001
151	1	3	-0.45701101	12.681	-6.763	28.712
152	1	4	0.00080099999	11.381	-7.4400001	28.733
153	1	4	-0.005196	11.142	-8.2950001	27.450001
154	1	4	-0.20227601	9.7370005	-8.9440002	27.580999
155	1	4	0.13447	9.2259998	-9.5939999	26.281
156	1	3	-0.53157902	7.882	-10.144	26.493
157	1	2	0.82894301	7.2969999	-11.109	25.611
158	1	1	-0.61484098	7.9320002	-11.542	24.612
159	1	5	0.32155401	7.3270001	-9.8599997	27.332001
160	1	4	-0.20584901	9.1859999	-8.5530005	25.149
161	1	4	-0.025488	10.559	-7.8889999	24.877001
162	1	4	-0.208297	11.191	-7.3540001	26.201
163	1	6	0.119933	12.24	-7.039	26.004999
164	1	6	0.119933	10.646	-6.4219999	26.473
165	1	4	-0.169462	11.508	-8.8629999	24.135
166	1	6	0.081518002	11.137	-9.059	23.106001
167	1	6	0.081518002	11.583	-9.8479996	24.622
168	1	6	0.081518002	12.529	-8.4309998	24.052999
169	1	4	-0.169462	10.331	-6.6820002	23.934999
170	1	6	0.081518002	9.6499996	-5.9349999	24.396999
171	1	6	0.081518002	11.294	-6.1760001	23.705999
172	1	6	0.081518002	9.8719997	-7.0089998	22.976
173	1	6	0.119722	8.4429998	-7.7719998	25.427
174	1	6	0.119722	8.8149996	-9.033	24.216999
175	1	7	0.054701	9.8959999	-10.433	26.007999
176	1	6	0.1182	9	-8.1680002	27.889
177	1	6	0.1182	9.7530003	-9.7119999	28.386999
178	1	4	-0.16773801	12.241	-9.3870001	27.396999
179	1	6	0.078514002	12.355	-9.8699999	28.391001
180	1	6	0.078514002	12.008	-10.204	26.695999
181	1	6	0.078514002	13.221	-8.9510002	27.110001
182	1	7	0.080669999	10.589	-6.664	28.827999
183	1	7	0.080669999	11.292	-8.0760002	29.641001
184	1	5	0.33086899	12.799	-5.921	28.106001
185	1	8	-0.43978399	27.486	-8.5209999	24.660999
186	1	2	0.25864601	26.247	-7.9099998	24.485001
187	1	2	-0.21096601	26.184999	-6.6100001	24.167999
188	1	2	-0.16602001	24.875	-5.9520001	23.983
189	1	2	0.193597	23.738001	-6.6409998	24.162001
190	1	2	-0.16602001	23.809999	-8.0930004	24.476
191	1	2	-0.21096601	24.997999	-8.6890001	24.638
192	1	9	0.19516	25.042999	-9.7460003	24.867001
193	1	9	0.192496	22.905001	-8.6809998	24.558001
194	1	3	-0.58836699	22.48	-5.9840002	23.945
195	1	2	0.40508601	21.377001	-6.1420002	24.622999
196	1	2	-0.28583199	21.271999	-6.915	25.879999
197	1	2	-0.19767	22.18	-6.7919998	26.865
198	1	2	-0.19767	22.024	-7.553	28.122
199	1	2	-0.28583199	20.945999	-8.3290005	28.318001
200	1	2	-0.19767	19.941999	-8.4619999	27.231001
201	1	2	-0.19767	20.089001	-7.7810001	26.087999
202	1	9	0.194804	19.349001	-7.8850002	25.305
203	1	9	0.194804	19.09	-9.118	27.351
204	1	2	0.40508699	20.82	-9.099	29.573999
205	1	3	-0.58836699	19.702	-9.2609997	30.225
206	1	2	0.193597	18.448999	-8.6049995	29.979
207	1	2	-0.16602001	17.309	-9.2969999	30.125999
208	1	2	-0.21096601	16.003	-8.6400003	29.909
209	1	2	0.244986	15.948	-7.336	29.594
210	1	2	-0.21096601	17.198999	-6.5580001	29.476
211	1	2	-0.16602001	18.382999	-7.1529999	29.667
212	1	9	0.192496	19.288	-6.5630002	29.608
213	1	9	0.19516	17.156	-5.5009999	29.247
214	1	8	-0.43853	14.725	-6.7020001	29.381001
215	1	9	0.19516	15.094	-9.2209997	30.006001
216	1	9	0.192496	17.337	-10.347	30.389
217	1	10	0.13563301	21.707001	-9.5860004	29.958
218	1	9	0.194804	22.782	-7.4559999	28.889999
219	1	9	0.194804	23.028	-6.1269999	26.761
220	1	10	0.13563301	20.481001	-5.6570001	24.259001
221	1	9	0.192496	24.841999	-4.902	23.718
222	1	9	0.19516	27.094	-6.0339999	24.047001
223	1	1	-0.61483502	33.771	-14.977	26.558001
224	1	2	0.80832398	33.284	-15.781	25.719999
225	1	3	-0.45701101	32.457001	-15.318	24.646
226	1	4	0.00080099999	32.091999	-13.911	24.459999
227	1	4	-0.005196	30.634001	-13.614	24.93
228	1	4	-0.20227601	30.362	-12.106	24.67
229	1	4	0.13447	28.882	-11.706	24.816999
230	1	3	-0.53157902	28.719	-10.279	24.514999
231	1	2	0.82894301	27.559	-9.5369997	24.908001
232	1	1	-0.61484098	26.625999	-10.086	25.552
233	1	5	0.32155401	29.482	-9.7559996	24.027
234	1	4	-0.20584901	28.011	-12.538	23.860001
235	1	4	-0.025488	28.145	-14.066	24.08
236	1	4	-0.208297	29.646	-14.496	24.099001
237	1	6	0.119933	29.719999	-15.557	24.424999
238	1	6	0.119933	30.006001	-14.483	23.045
239	1	4	-0.169462	27.400999	-14.508	25.364
240	1	6	0.081518002	26.302999	-14.388	25.239
241	1	6	0.081518002	27.672001	-13.91	26.249001
242	1	6	0.081518002	27.603001	-15.578	25.587
243	1	4	-0.169462	27.457001	-14.785	22.895
244	1	6	0.081518002	27.934	-14.512	21.927999
245	1	6	0.081518002	27.524	-15.888	23.013
246	1	6	0.081518002	26.382999	-14.505	22.83
247	1	6	0.119722	28.306999	-12.285	22.816999
248	1	6	0.119722	26.945	-12.24	23.974001
249	1	7	0.054701	28.563999	-11.869	25.865999
250	1	6	0.1182	30.687	-11.847	23.636999
251	1	6	0.1182	30.974001	-11.49	25.365999
252	1	4	-0.16773801	30.554001	-13.924	26.447001
253	1	6	0.078514002	31.424999	-13.487	26.98
254	1	6	0.078514002	29.663	-13.494	26.931999
255	1	6	0.078514002	30.552999	-15.02	26.629
256	1	7	0.080669999	32.202999	-13.665	23.381001
257	1	7	0.080669999	32.811001	-13.252	24.996
258	1	5	0.33086899	32.077	-16.028	23.981001
259	1	8	-0.43978399	30.931999	-27.334999	34.235001
260	1	2	0.25864601	30.664	-26.718	33.015999
261	1	2	-0.21096601	30.625999	-27.448999	31.893999
262	1	2	-0.16602001	30.347	-26.802	30.594999
263	1	2	0.193597	30.160999	-25.476	30.523001
264	1	2	-0.16602001	30.165001	-24.673	31.775
265	1	2	-0.21096601	30.413	-25.261	32.952
266	1	9	0.19516	30.416	-24.67	33.859001
267	1	9	0.192496	29.952	-23.612	31.746
268	1	3	-0.58836699	29.861	-24.878	29.252001
269	1	2	0.40508601	30.274	-23.726999	28.802
270	1	2	-0.28583199	31.295	-22.886	29.465
271	1	2	-0.19767	32.433998	-23.41	29.954
272	1	2	-0.19767	33.449001	-22.535999	30.577999
273	1	2	-0.28583199	33.271	-21.205999	30.613001
274	1	2	-0.19767	32.014999	-20.628	30.07
275	1	2	-0.19767	31.091	-21.421	29.514999
276	1	9	0.194804	30.181	-20.987	29.120001
277	1	9	0.194804	31.832001	-19.563	30.129999
278	1	2	0.40508699	34.289001	-20.35	31.261
279	1	3	-0.58836699	34.673	-19.191999	30.804001
280	1	2	0.193597	34.344002	-18.606001	29.535
281	1	2	-0.16602001	34.127998	-17.284	29.461
282	1	2	-0.21096601	33.818001	-16.649	28.163
283	1	2	0.244986	33.784	-17.386999	27.042
284	1	2	-0.21096601	34.068001	-18.834999	27.110001
285	1	2	-0.16602001	34.342999	-19.413	28.285999
286	1	9	0.192496	34.580002	-20.469	28.316
287	1	9	0.19516	34.067001	-19.427	26.204
288	1	8	-0.43853	33.490002	-16.804001	25.811001
289	1	9	0.19516	33.618999	-15.585	28.127001
290	1	9	0.192496	34.160999	-16.674	30.355
291	1	10	0.13563301	34.716999	-20.695999	32.194
292	1	9	0.194804	34.346001	-22.985001	30.987
293	1	9	0.194804	32.632999	-24.472	29.886
294	1	10	0.13563301	29.863001	-23.368	27.868
295	1	9	0.192496	30.311001	-27.408001	29.698
296	1	9	0.19516	30.801001	-28.517	31.931999
297	1	1	-0.61483502	32.534	-28.403	43.238998
298	1	2	0.80832398	31.468	-27.813	43.558998
299	1	3	-0.45701101	30.384001	-27.691	42.631001
300	1	4	0.00080099999	30.438999	-28.201	41.257999
301	1	4	-0.005196	30.684	-27.063999	40.216999
302	1	4	-0.20227601	30.705999	-27.721001	38.808998
303	1	4	0.13447	30.659	-26.711	37.648998
304	1	3	-0.53157902	30.643999	-27.424	36.366001
305	1	2	0.82894301	30.964001	-26.785	35.125999
306	1	1	-0.61484098	31.292999	-25.569	35.089001
307	1	5	0.32155401	30.427999	-28.447001	36.338001
308	1	4	-0.20584901	29.402	-25.83	37.763
309	1	4	-0.025488	29.312	-25.062	39.105999
310	1	4	-0.208297	29.514999	-26.028999	40.314999
311	1	6	0.119933	29.615	-25.433001	41.249001
312	1	6	0.119933	28.573999	-26.612	40.433998
313	1	4	-0.169462	30.312	-23.879999	39.137001
314	1	6	0.081518002	30.014	-23.1	38.403
315	1	6	0.081518002	31.337999	-24.174999	38.865002
316	1	6	0.081518002	30.334999	-23.41	40.143002
317	1	4	-0.169462	27.893999	-24.452	39.216
318	1	6	0.081518002	27.114	-25.243	39.195999
319	1	6	0.081518002	27.785	-23.884001	40.166
320	1	6	0.081518002	27.694	-23.759001	38.369999
321	1	6	0.119722	28.51	-26.487	37.648998
322	1	6	0.119722	29.378	-25.106001	36.919998
323	1	7	0.054701	31.572001	-26.083	37.675999
324	1	6	0.1182	29.83	-28.402	38.708
325	1	6	0.1182	31.618	-28.35	38.703999
326	1	4	-0.16773801	32.057999	-26.42	40.535
327	1	6	0.078514002	32.823002	-27.205	40.713001
328	1	6	0.078514002	32.451	-25.804001	39.709999
329	1	6	0.078514002	31.997999	-25.784	41.444
330	1	7	0.080669999	29.476	-28.715	41.042
331	1	7	0.080669999	31.226	-28.982	41.167
332	1	5	0.33086899	29.524	-27.190001	42.946999
333	1	8	-0.43978399	36.735001	-17.438	52.286999
334	1	2	0.25864601	35.647999	-17.886	51.541
335	1	2	-0.21096601	34.409	-17.771999	52.036999
336	1	2	-0.16602001	33.249001	-18.247999	51.254002
337	1	2	0.193597	33.429001	-18.827	50.057999
338	1	2	-0.16602001	34.801998	-18.917999	49.493
339	1	2	-0.21096601	35.851002	-18.481001	50.201
340	1	9	0.19516	36.848	-18.549999	49.785
341	1	9	0.192496	34.960999	-19.320999	48.501999
342	1	3	-0.58836699	32.280998	-19.253	49.306
343	1	2	0.40508601	32.172001	-20.320999	48.566002
344	1	2	-0.28583199	33.175999	-21.406	48.508999
345	1	2	-0.19767	33.743999	-21.905001	49.622002
346	1	2	-0.19767	34.716999	-23.011999	49.530998
347	1	2	-0.28583199	35.001999	-23.570999	48.344002
348	1	2	-0.19767	34.372002	-23.021999	47.115002
349	1	2	-0.19767	33.499001	-22.011	47.196999
350	1	9	0.194804	33.044998	-21.622	46.293999
351	1	9	0.194804	34.623001	-23.427999	46.144001
352	1	2	0.40508699	35.993999	-24.665001	48.271
353	1	3	-0.58836699	35.874001	-25.715	47.508999
354	1	2	0.193597	34.721001	-26.112	46.750999
355	1	2	-0.16602001	34.891998	-26.664	45.540001
356	1	2	-0.21096601	33.724998	-27.110001	44.75
357	1	2	0.244986	32.486	-26.995001	45.252998
358	1	2	-0.21096601	32.293999	-26.43	46.605999
359	1	2	-0.16602001	33.349998	-26.021	47.32
360	1	9	0.192496	33.196999	-25.639	48.320999
361	1	9	0.19516	31.298	-26.361	47.023998
362	1	8	-0.43853	31.375	-27.406	44.52
363	1	9	0.19516	33.881001	-27.528	43.764
364	1	9	0.192496	35.886002	-26.771999	45.124001
365	1	10	0.13563301	36.894001	-24.569	48.865002
366	1	9	0.194804	35.179001	-23.379999	50.439999
367	1	9	0.194804	33.487999	-21.516001	50.599998
368	1	10	0.13563301	31.275999	-20.438999	47.971001
369	1	9	0.192496	32.251999	-18.141001	51.665001
370	1	9	0.19516	34.249001	-17.332001	53.013
371	1	1	-0.61483502	45.439999	-15.693	54.724998
372	1	2	0.80832398	45.675999	-15.067	53.658001
373	1	3	-0.45701101	44.612	-14.518	52.872002
374	1	4	0.00080099999	43.195999	-14.665	53.221001
375	1	4	-0.005196	42.486	-15.752	52.355999
376	1	4	-0.20227601	40.999001	-15.802	52.805
377	1	4	0.13447	40.091999	-16.621	51.867001
378	1	3	-0.53157902	38.707001	-16.579	52.348999
379	1	2	0.82894301	37.713001	-17.514999	51.918999
380	1	1	-0.61484098	37.998001	-18.437	51.109001
381	1	5	0.32155401	38.422001	-15.868	53.061001
382	1	4	-0.20584901	40.158001	-16.054001	50.438
383	1	4	-0.025488	41.594002	-16.025	49.855
384	1	4	-0.208297	42.584999	-15.342	50.849998
385	1	6	0.119933	43.625999	-15.485	50.486
386	1	6	0.119933	42.400002	-14.245	50.798
387	1	4	-0.169462	42.060001	-17.448	49.459999
388	1	6	0.081518002	41.467999	-17.827	48.599998
389	1	6	0.081518002	41.926998	-18.186001	50.266998
390	1	6	0.081518002	43.130001	-17.441999	49.161999
391	1	4	-0.169462	41.568001	-15.186	48.555
392	1	6	0.081518002	41.235001	-14.145	48.756001
393	1	6	0.081518002	42.580002	-15.142	48.097
394	1	6	0.081518002	40.867001	-15.627	47.813
395	1	6	0.119722	39.743999	-15.021	50.459
396	1	6	0.119722	39.5	-16.652	49.77
397	1	7	0.054701	40.422001	-17.679001	51.875999
398	1	6	0.1182	40.594002	-14.766	52.855
399	1	6	0.1182	40.931999	-16.226	53.832001
400	1	4	-0.16773801	43.181999	-17.108999	52.634998
401	1	6	0.078514002	43.326	-17.253	53.727001
402	1	6	0.078514002	42.594002	-17.976	52.296001
403	1	6	0.078514002	44.179001	-17.150999	52.146999
404	1	7	0.080669999	42.701	-13.679	53.077999
405	1	7	0.080669999	43.088001	-14.903	54.303001
406	1	5	0.33086899	44.862999	-14.011	51.994999
407	1	8	-0.43978399	57.237999	-22.437	48.803001
408	1	2	0.25864601	56.226002	-21.532	48.494999
409	1	2	-0.21096601	56.495998	-20.465	47.730999
410	1	2	-0.16602001	55.43	-19.496	47.403
411	1	2	0.193597	54.192001	-19.658001	47.893002
412	1	2	-0.16602001	53.884998	-20.863001	48.709
413	1	2	-0.21096601	54.851002	-21.743	49.000999
414	1	9	0.19516	54.620998	-22.617001	49.597
415	1	9	0.192496	52.876999	-21.046	49.057999
416	1	3	-0.58836699	53.167999	-18.718	47.533001
417	1	2	0.40508601	52.209999	-18.261999	48.291
418	1	2	-0.28583199	52.109001	-18.503	49.745998
419	1	2	-0.19767	53.174999	-18.386999	50.558998
420	1	2	-0.19767	53.030998	-18.599001	52.014
421	1	2	-0.28583199	51.825001	-18.853001	52.548
422	1	2	-0.19767	50.647999	-18.976999	51.651001
423	1	2	-0.19767	50.780998	-18.796	50.332001
424	1	9	0.194804	49.914001	-18.886999	49.688999
425	1	9	0.194804	49.674999	-19.226999	52.056
426	1	2	0.40508699	51.705002	-19.083	54.004002
427	1	3	-0.58836699	50.728001	-18.634001	54.738998
428	1	2	0.193597	49.702	-17.707001	54.351002
429	1	2	-0.16602001	48.455002	-17.879999	54.813
430	1	2	-0.21096601	47.386002	-16.924	54.455002
431	1	2	0.244986	47.664001	-15.856	53.691002
432	1	2	-0.21096601	49.047001	-15.635	53.217999
433	1	2	-0.16602001	50.014999	-16.503	53.535999
434	1	9	0.192496	51.028999	-16.311001	53.209
435	1	9	0.19516	49.278999	-14.761	52.623001
436	1	8	-0.43853	46.667999	-14.947	53.341
437	1	9	0.19516	46.380001	-17.094999	54.814999
438	1	9	0.192496	48.216999	-18.731001	55.438
439	1	10	0.13563301	52.462002	-19.693001	54.480999
440	1	9	0.194804	53.909	-18.525	52.644001
441	1	9	0.194804	54.148998	-18.122999	50.166
442	1	10	0.13563301	51.448002	-17.645	47.833
443	1	9	0.192496	55.662998	-18.643999	46.776001
444	1	9	0.19516	57.497002	-20.306	47.351002
445	1	1	-0.61483502	61.557999	-29.671	52.515999
446	1	2	0.80832398	60.710999	-30.485001	52.061001
447	1	3	-0.45701101	59.879002	-30.139999	50.948002
448	1	4	0.00080099999	59.921001	-28.834	50.285999
449	1	4	-0.005196	58.727001	-27.921	50.708
450	1	4	-0.20227601	58.872002	-26.582001	49.933998
451	1	4	0.13447	57.630001	-25.674999	50.019001
452	1	3	-0.53157902	57.846001	-24.457001	49.229
453	1	2	0.82894301	57.049	-23.278999	49.396999
454	1	1	-0.61484098	56.127998	-23.237	50.255001
455	1	5	0.32155401	58.627998	-24.414	48.535999
456	1	4	-0.20584901	56.393002	-26.42	49.488998
457	1	4	-0.025488	56.105	-27.743999	50.242001
458	1	4	-0.208297	57.388	-28.629999	50.32
459	1	6	0.119933	57.201	-29.487	51.005001
460	1	6	0.119933	57.539001	-29.082001	49.313
461	1	4	-0.169462	55.508999	-27.466	51.644001
462	1	6	0.081518002	54.492001	-27.024	51.553001
463	1	6	0.081518002	56.099998	-26.745001	52.23
464	1	6	0.081518002	55.421001	-28.407	52.228001
465	1	4	-0.169462	55.032001	-28.525999	49.445999
466	1	6	0.081518002	55.384998	-28.761	48.418999
467	1	6	0.081518002	54.787998	-29.483999	49.955002
468	1	6	0.081518002	54.096001	-27.933001	49.353001
469	1	6	0.119722	56.556	-26.635	48.409
470	1	6	0.119722	55.502998	-25.757	49.554001
471	1	7	0.054701	57.473	-25.372	51.073002
472	1	6	0.1182	59.067001	-26.797001	48.858002
473	1	6	0.1182	59.754002	-26.021999	50.316002
474	1	4	-0.16773801	58.834	-27.677999	52.235001
475	1	6	0.078514002	59.876999	-27.417999	52.514999
476	1	6	0.078514002	58.215	-26.837	52.585999
477	1	6	0.078514002	58.541	-28.586	52.803001
478	1	7	0.080669999	59.902	-29.003	49.187
479	1	7	0.080669999	60.887001	-28.325001	50.497002
480	1	5	0.33086899	59.191002	-30.851999	50.612999
481	1	8	-0.43978399	56.617001	-37.130001	64.334
482	1	2	0.25864601	56.327999	-36.888	62.993999
483	1	2	-0.21096601	55.873001	-37.882	62.221001
484	1	2	-0.16602001	55.568001	-37.634998	60.796001
485	1	2	0.193597	55.775002	-36.424	60.257
486	1	2	-0.16602001	56.243999	-35.312	61.126999
487	1	2	-0.21096601	56.514999	-35.535999	62.418999
488	1	9	0.19516	56.856998	-34.723	63.047001
489	1	9	0.192496	56.353001	-34.313	60.727001
490	1	3	-0.58836699	55.441002	-36.203999	58.877998
491	1	2	0.40508601	56.088001	-35.473999	58.013
492	1	2	-0.28583199	57.415001	-34.868	58.257999
493	1	2	-0.19767	58.416	-35.561001	58.830002
494	1	2	-0.19767	59.740002	-34.935001	59.027
495	1	2	-0.28583199	59.974998	-33.688999	58.584999
496	1	2	-0.19767	58.869999	-32.924999	57.951
497	1	2	-0.19767	57.667999	-33.487999	57.783001
498	1	9	0.194804	56.872002	-32.921001	57.317001
499	1	9	0.194804	59.026001	-31.903	57.630001
500	1	2	0.40508699	61.299999	-33.071999	58.811001
501	1	3	-0.58836699	61.921001	-32.328999	57.938999
502	1	2	0.193597	61.556999	-32.109001	56.567001
503	1	2	-0.16602001	61.733002	-30.893	56.030998
504	1	2	-0.21096601	61.396	-30.645	54.612999
505	1	2	0.244986	60.942001	-31.646	53.842999
506	1	2	-0.21096601	60.791	-33	54.416
507	1	2	-0.16602001	61.091	-33.224998	55.701
508	1	9	0.192496	61.005001	-34.227001	56.098999
509	1	9	0.19516	60.450001	-33.814999	53.790001
510	1	8	-0.43853	60.616001	-31.429001	52.506001
511	1	9	0.19516	61.519001	-29.65	54.205002
512	1	9	0.192496	62.106998	-30.077	56.637001
513	1	10	0.13563301	61.768002	-33.223	59.776001
514	1	9	0.194804	60.521999	-35.506001	59.513
515	1	9	0.194804	58.275002	-36.588001	59.140999
516	1	10	0.13563301	55.639999	-35.319	57.041
517	1	9	0.192496	55.192001	-38.446999	60.186001
518	1	9	0.19516	55.727001	-38.872002	62.633999
519	1	1	-0.61483502	59.432999	-35.714001	72.986
520	1	2	0.80832398	58.666	-34.726002	73.135002
521	1	3	-0.45701101	57.518002	-34.547001	72.299004
522	1	4	0.00080099999	57.169998	-35.459	71.205002
523	1	4	-0.005196	57.548	-34.875	69.807999
524	1	4	-0.20227601	57.118999	-35.917	68.738998
525	1	4	0.13447	57.165001	-35.383999	67.294998
526	1	3	-0.53157902	56.707001	-36.422001	66.364998
527	1	2	0.82894301	56.973	-36.368	64.959
528	1	1	-0.61484098	57.634998	-35.418999	64.460999
529	1	5	0.32155401	56.195999	-37.259998	66.724998
530	1	4	-0.20584901	56.269001	-34.140999	67.161003
531	1	4	-0.025488	56.654999	-32.998001	68.135002
532	1	4	-0.208297	56.777	-33.530998	69.597
533	1	6	0.119933	57.216999	-32.737	70.240997
534	1	6	0.119933	55.743	-33.685001	69.980003
535	1	4	-0.169462	57.949001	-32.286999	67.667999
536	1	6	0.081518002	57.769001	-31.733999	66.721001
537	1	6	0.081518002	58.773998	-32.985001	67.458
538	1	6	0.081518002	58.292	-31.555	68.43
539	1	4	-0.169462	55.527	-31.938999	68.105003
540	1	6	0.081518002	54.556	-32.377998	68.424004
541	1	6	0.081518002	55.764999	-31.094	68.787003
542	1	6	0.081518002	55.390999	-31.532	67.079002
543	1	6	0.119722	55.216999	-34.452	67.351997
544	1	6	0.119722	56.307999	-33.764999	66.114998
545	1	7	0.054701	58.212002	-35.132999	67.033997
546	1	6	0.1182	56.077	-36.251999	68.948997
547	1	6	0.1182	57.769001	-36.818001	68.811996
548	1	4	-0.16773801	59.084999	-34.674	69.780998
549	1	6	0.078514002	59.602001	-35.570999	70.182999
550	1	6	0.078514002	59.487	-34.530998	68.764999
551	1	6	0.078514002	59.382999	-33.799	70.398003
552	1	7	0.080669999	56.076	-35.653	71.253998
553	1	7	0.080669999	57.66	-36.445999	71.355003
554	1	5	0.33086899	56.917999	-33.709	72.463997
555	1	8	-0.049178001	68.264	-24.552	77.125
556	1	2	0.14620601	66.976997	-24.816	76.665001
557	1	2	-0.263358	65.938004	-24.132	77.164001
558	1	2	-0.16480801	64.568001	-24.408001	76.683998
559	1	2	0.193597	64.348	-25.367001	75.772003
560	1	2	-0.16480801	65.507004	-26.098	75.193001
561	1	2	-0.263358	66.748001	-25.843	75.624001
562	1	9	0.19315	67.586998	-26.379	75.198997
563	1	9	0.192496	65.357002	-26.829	74.408997
564	1	3	-0.58836699	63.009998	-25.593	75.303001
565	1	2	0.40508601	62.457001	-26.737	75.012001
566	1	2	-0.28583199	63.066002	-28.056	75.290001
567	1	2	-0.19767	63.651001	-28.332001	76.469002
568	1	2	-0.19767	64.219002	-29.671	76.725998
569	1	2	-0.28583199	64.105003	-30.645	75.808998
570	1	2	-0.19767	63.455002	-30.341999	74.508003
571	1	2	-0.19767	62.951	-29.125	74.271004
572	1	9	0.194804	62.478001	-28.917	73.319
573	1	9	0.194804	63.394001	-31.1	73.737
574	1	2	0.40508699	64.697998	-31.973	76.077003
575	1	3	-0.58836699	64.135002	-33.105	75.759003
576	1	2	0.193597	62.799	-33.306	75.273003
577	1	2	-0.16602001	62.576	-34.242001	74.338997
578	1	2	-0.21096601	61.207001	-34.492001	73.842003
579	1	2	0.244986	60.169998	-33.804001	74.346001
580	1	2	-0.21096601	60.403	-32.804001	75.408997
581	1	2	-0.16602001	61.643002	-32.573002	75.857002
582	1	9	0.192496	61.794998	-31.861	76.656998
583	1	9	0.19516	59.564999	-32.268002	75.835999
584	1	8	-0.43853	58.874001	-34.025002	73.886002
585	1	9	0.19516	61.049999	-35.233002	73.068001
586	1	9	0.192496	63.401001	-34.811001	73.928001
587	1	10	0.13563301	65.677002	-32.004002	76.536003
588	1	9	0.194804	64.707001	-29.860001	77.675003
589	1	9	0.194804	63.703999	-27.586	77.251999
590	1	10	0.13563301	61.473999	-26.726999	74.558998
591	1	9	0.192496	63.740002	-23.84	77.091003
592	1	9	0.19315	66.097	-23.374001	77.919998
593	1	1	-0.65593201	-4.8800001	3.905	1.466
594	1	2	0.56047899	-3.635	3.7609999	1.3430001