Title

666 atoms
701 bonds
1220 angles
2320 dihedrals
642 impropers

13 atom types
17 bond types
10 angle types
25 dihedral types
3 improper types
-25.63400078 74.36599922 xlo xhi
-3.184000015 96.81599998 ylo yhi
-28.96999931 71.03000069 zlo zhi
0.0 0.0 0.0 xy xz yz

Masses

1	12.01078
2	15.99943
3	14.00672
4	1.007947
5	12.01078
6	1.007947
7	1.007947
8	15.99943
9	1.007947
10	1.007947
11	15.99943
12	1.007947
13	12.01078


Pair Coeffs

1	0.086879315	3.4806469
2	0.2102061	3.0398122
3	0.16769152	3.206876
4	0.014090815	1.1034277
5	0.10884061	3.3795318
6	0.016409246	2.5832257
7	0.015779483	2.6445434
8	0.16846514	3.0251065
9	0.015611343	2.5725815
10	0.013106998	2.4536265
11	0.20947353	2.99716
12	1.2326e-05	0.53453923
13	0.21	3.3996695

Bond Coeffs

1 harmonic	582.698766451	1.225198386222
2 harmonic	492.76746816345	1.381897776683
3 harmonic	301.15400723785	1.345741232799
4 harmonic	505.144496193	1.019481865027
5 harmonic	352.0565580496	1.450098586273
6 harmonic	370.04670688625	1.093899492634
7 harmonic	264.62148576755	1.52190126495
8 harmonic	425.69104206635	1.362945806494
9 harmonic	360.7852444772	1.387193227181
10 harmonic	397.2545789619	1.085358495916
11 harmonic	382.5450169811	1.379244394267
12 harmonic	505.481965552	1.304826179986
13 harmonic	279.1350963404	1.454628925034
14 harmonic	385.7604595587	1.369745182308
15 harmonic	543.5267831885	0.9716763312559
16 harmonic	366.34047229585	1.464762957261
17 harmonic	602.81384337	1.196112346392


Angle Coeffs

1 harmonic	63.44422595415	115.5071327674
2 harmonic	55.42182150775	117.3465570514
3 harmonic	65.09061609600001	110.3538806181
4 harmonic	57.8982893754	126.8062420451
5 harmonic	201.41175231035	127.4691416191
6 harmonic	53.20531626545	116.5475862634
7 harmonic	48.776492647595	115.6030999533
8 harmonic	34.066775159195	129.1835929926
9 harmonic	55.07882548015	112.8714009681
10 harmonic	33.56981613361	180


Dihedral Coeffs

1 fourier 1	0.182238503271	2	0
2 fourier 1	0.02972342374561	3	0
3 fourier 1	-0.1488678166443	4	180
4 fourier 1	-0.1230328948768	3	180
5 fourier 1	0.2939295466901	2	0
6 fourier 1	-0.3024127022865	1	0
7 fourier 1	1.532232714475	2	180
8 fourier 1	0.4860993122944	2	180
9 fourier 1	0.8916986138746	1	0
10 fourier 1	1.809047390003	2	180
11 fourier 1	-0.04816277792592	1	0
12 fourier 1	2.779853741805	2	180
13 fourier 1	0.1155372516788	3	0
14 fourier 1	0.1040663847541	3	0
15 fourier 1	0.09223874044423	3	0
16 fourier 1	0.3159935921949	2	180
17 fourier 1	0.3247796806857	1	180
18 fourier 1	0.1911926717192	3	0
19 fourier 1	3.661930099076	2	180
20 fourier 1	1.550515418264	2	180
21 fourier 1	6.736762477654	2	180
22 fourier 1	0.9974165607242	2	180
23 fourier 1	0.8283030590042	2	180
24 fourier 1	-1.382973039546	1	0
25 fourier 1	0	1	0


Improper Coeffs

1 0.3333333333333333	-1	2
2 3.5	-1	2
3 0.3666666666666667	-1	2


Atoms

1	1	1	0.80802	4.7690001	0.033	-0.29499999
2	1	2	-0.61624902	5.1620002	-1.15	-0.11
3	1	3	-0.457369	3.3759999	0.33399999	-0.40599999
4	1	4	0.33053499	3.118	1.332	-0.55800003
5	1	5	0.00061599998	2.359	-0.72000003	-0.30700001
6	1	6	0.080239996	2.562	-1.4809999	-1.0930001
7	1	6	0.080239996	2.473	-1.225	0.67699999
8	1	5	-0.005386	0.89300001	-0.20200001	-0.45899999
9	1	5	-0.167897	0.75099999	0.49200001	-1.84
10	1	7	0.078107998	-0.30399999	0.70200002	-2.0929999
11	1	7	0.078107998	1.1569999	-0.15700001	-2.6459999
12	1	7	0.078107998	1.294	1.459	-1.872
13	1	5	-0.20247699	0.57800001	0.79400003	0.69
14	1	7	0.117742	0.85799998	0.31900001	1.654
15	1	7	0.117742	1.232	1.689	0.62699997
16	1	5	0.134266	-0.90200001	1.253	0.77499998
17	1	6	0.054117002	-1.1289999	1.378	1.858
18	1	3	-0.531932	-1.08	2.5580001	0.124
19	1	4	0.32121	-0.366	2.911	-0.55199999
20	1	1	0.82863998	-2.2090001	3.3989999	0.38499999
21	1	2	-0.61631602	-3.096	3.0569999	1.211
22	1	5	-0.206053	-1.911	0.23899999	0.19
23	1	7	0.119265	-2.122	0.48899999	-0.87099999
24	1	7	0.119265	-2.8829999	0.36300001	0.71700001
25	1	5	-0.025673	-1.457	-1.235	0.285
26	1	5	-0.169623	-1.425	-1.6849999	1.767
27	1	7	0.081115998	-0.671	-1.132	2.3570001
28	1	7	0.081115998	-2.415	-1.525	2.247
29	1	7	0.081115998	-1.182	-2.767	1.842
30	1	5	-0.169623	-2.5039999	-2.112	-0.43900001
31	1	7	0.081115998	-2.211	-3.184	-0.40000001
32	1	7	0.081115998	-2.5969999	-1.818	-1.506
33	1	7	0.081115998	-3.5039999	-2.007	0.035
34	1	5	-0.20848501	-0.061000001	-1.449	-0.39199999
35	1	7	0.119474	-0.19499999	-1.835	-1.428
36	1	7	0.119474	0.44400001	-2.2920001	0.131
37	1	8	-0.44013	-2.299	4.316	-0.115
38	1	1	0.25769201	-1.591	5.4419999	0.29699999
39	1	1	-0.211796	-0.72899997	5.381	1.399
40	1	9	0.19443899	-0.60100001	4.4510002	1.939
41	1	1	-0.166935	-0.024	6.5180001	1.806
42	1	9	0.191888	0.65100002	6.4250002	2.6440001
43	1	1	0.193203	-0.18099999	7.737	1.114
44	1	3	-0.58927703	0.52499998	8.9370003	1.476
45	1	1	0.40443	1.164	9.1549997	2.586
46	1	10	0.13504601	1.1799999	8.4139996	3.3740001
47	1	1	-0.28622699	1.857	10.438	2.8199999
48	1	1	-0.19838899	2.523	10.651	4.0370002
49	1	9	0.19423699	2.5369999	9.8800001	4.7969999
50	1	1	-0.19838899	3.184	11.858	4.2810001
51	1	9	0.19423699	3.714	11.986	5.2160001
52	1	1	-0.28622699	3.1730001	12.881	3.3180001
53	1	1	0.40443	3.8870001	14.158	3.54
54	1	10	0.13504601	4.487	14.544	2.727
55	1	3	-0.58927703	3.8659999	14.828	4.658
56	1	1	0.193203	3.043	14.581	5.8099999
57	1	1	-0.166935	3.596	14.739	7.0869999
58	1	9	0.191888	4.6399999	15.005	7.197
59	1	1	-0.211796	2.8110001	14.539	8.2259998
60	1	9	0.19443899	3.2550001	14.649	9.2080002
61	1	1	0.24403501	1.457	14.201	8.0979996
62	1	8	-0.43888	0.66500002	13.996	9.2259998
63	1	1	-0.211796	0.89200002	14.074	6.8249998
64	1	9	0.19443899	-0.15700001	13.829	6.7189999
65	1	1	-0.166935	1.675	14.275	5.6849999
66	1	9	0.191888	1.2130001	14.204	4.7090001
67	1	1	-0.19838899	2.5350001	12.659	2.0899999
68	1	9	0.19423699	2.539	13.426	1.326
69	1	1	-0.19838899	1.874	11.452	1.844
70	1	9	0.19423699	1.3789999	11.313	0.89099997
71	1	1	-0.166935	-1.035	7.783	0.003
72	1	9	0.191888	-1.158	8.7069998	-0.54699999
73	1	1	-0.211796	-1.739	6.6440001	-0.40000001
74	1	9	0.19443899	-2.4000001	6.697	-1.256
75	1	1	0.80802	1.058	14.086	10.193
76	1	2	-0.61624902	1.37	13.046	10.833
77	1	3	-0.457369	1.232	15.383	10.771
78	1	4	0.33053499	0.954	16.201	10.188
79	1	5	0.00061599998	1.779	15.547	12.122
80	1	6	0.080239996	1.133	14.989	12.836
81	1	6	0.080239996	2.786	15.074	12.152
82	1	5	-0.005386	1.89	17.035	12.584
83	1	5	-0.167897	0.47600001	17.674999	12.544
84	1	7	0.078107998	0.45100001	18.659	13.046
85	1	7	0.078107998	-0.25999999	17.025	13.063
86	1	7	0.078107998	0.125	17.829	11.503
87	1	5	-0.20247699	2.8629999	17.796	11.642
88	1	7	0.117742	3.8039999	17.211	11.562
89	1	7	0.117742	2.4690001	17.82	10.605
90	1	5	0.134266	3.2130001	19.24	12.086
91	1	6	0.054117002	4.2729998	19.41	11.789
92	1	3	-0.531932	2.382	20.219999	11.373
93	1	4	0.32121	1.498	19.917999	10.905
94	1	1	0.82863998	2.7390001	21.603001	11.272
95	1	2	-0.61631602	3.8069999	22.035	11.782
96	1	5	-0.206053	3.1010001	19.476999	13.609
97	1	7	0.119265	2.095	19.878	13.854
98	1	7	0.119265	3.8150001	20.282	13.896
99	1	5	-0.025673	3.3699999	18.219	14.468
100	1	5	-0.169623	4.8590002	17.806	14.351
101	1	7	0.081115998	5.1269999	17.495001	13.324
102	1	7	0.081115998	5.5229998	18.650999	14.633
103	1	7	0.081115998	5.0830002	16.955	15.029
104	1	5	-0.169623	3.109	18.58	15.948
105	1	7	0.081115998	3.2850001	17.698	16.601999
106	1	7	0.081115998	2.0599999	18.915001	16.094999
107	1	7	0.081115998	3.7820001	19.4	16.281
108	1	5	-0.20848501	2.4300001	17.035999	14.059
109	1	7	0.119474	1.554	16.990999	14.746
110	1	7	0.119474	2.9690001	16.084999	14.273
111	1	8	-0.44013	2.1070001	22.266001	10.765
112	1	1	0.25769201	2.105	22.35	9.3739996
113	1	1	-0.211796	2.9560001	21.542	8.6079998
114	1	9	0.19443899	3.619	20.837	9.0930004
115	1	1	-0.166935	2.948	21.635	7.2129998
116	1	9	0.191888	3.598	20.976999	6.6560001
117	1	1	0.193203	2.089	22.549	6.5669999
118	1	3	-0.58927703	2.026	22.684	5.1360002
119	1	1	0.40443	2.8829999	22.219999	4.276
120	1	10	0.13504601	3.773	21.698999	4.6020002
121	1	1	-0.28622699	2.6849999	22.424999	2.826
122	1	1	-0.19838899	3.638	21.929001	1.923
123	1	9	0.19423699	4.5079999	21.392	2.2820001
124	1	1	-0.19838899	3.473	22.112	0.54699999
125	1	9	0.19423699	4.2069998	21.694	-0.12899999
126	1	1	-0.28622699	2.3610001	22.813	0.052999999
127	1	1	0.40443	2.148	22.997999	-1.399
128	1	10	0.13504601	1.153	22.819	-1.7869999
129	1	3	-0.58927703	3.0840001	23.330999	-2.244
130	1	1	0.193203	4.4260001	23.745001	-1.942
131	1	1	-0.166935	5.473	23.301001	-2.7579999
132	1	9	0.191888	5.2719998	22.622999	-3.579
133	1	1	-0.211796	6.7859998	23.712999	-2.51
134	1	9	0.19443899	7.5890002	23.35	-3.1389999
135	1	1	0.24403501	7.059	24.594999	-1.456
136	1	8	-0.43888	8.3629999	25.011	-1.197
137	1	1	-0.211796	6.0120001	25.068001	-0.65799999
138	1	9	0.19443899	6.2150002	25.761	0.148
139	1	1	-0.166935	4.6989999	24.656	-0.90499997
140	1	9	0.191888	3.898	25.056999	-0.29800001
141	1	1	-0.19838899	1.392	23.282	0.95099998
142	1	9	0.19423699	0.51499999	23.802	0.58700001
143	1	1	-0.19838899	1.556	23.099001	2.3280001
144	1	9	0.19423699	0.79799998	23.483999	2.9990001
145	1	1	-0.166935	1.233	23.341999	7.3429999
146	1	9	0.191888	0.55800003	24.041	6.8629999
147	1	1	-0.211796	1.244	23.247	8.7370005
148	1	9	0.19443899	0.58099997	23.871	9.3240004
149	1	1	0.80802	9.1700001	24.677	-1.777
150	1	2	-0.61624902	9.9049997	23.752001	-1.34
151	1	3	-0.457369	9.4219999	25.275	-3.0510001
152	1	4	0.33053499	8.7749996	26.035	-3.3540001
153	1	5	0.00061599998	10.54	24.833	-3.892
154	1	6	0.080239996	11.485	24.954	-3.316
155	1	6	0.080239996	10.417	23.746	-4.0960002
156	1	5	-0.005386	10.661	25.606001	-5.244
157	1	5	-0.167897	10.84	27.117001	-4.9390001
158	1	7	0.078107998	11.13	27.691	-5.8379998
159	1	7	0.078107998	11.64	27.268999	-4.1830001
160	1	7	0.078107998	9.9069996	27.570999	-4.5479999
161	1	5	-0.20247699	9.3800001	25.365999	-6.0900002
162	1	7	0.117742	9.1899996	24.273001	-6.138
163	1	7	0.117742	8.4860001	25.775	-5.5749998
164	1	5	0.134266	9.434	25.924	-7.5370002
165	1	6	0.054117002	8.8610001	25.208	-8.1689997
166	1	3	-0.531932	8.7659998	27.23	-7.6160002
167	1	4	0.32121	8.5959997	27.787001	-6.7490001
168	1	1	0.82863998	8.3129997	27.788	-8.8540001
169	1	2	-0.61631602	8.4530001	27.16	-9.9370003
170	1	5	-0.206053	10.862	26.035	-8.118
171	1	7	0.119265	11.26	27.056999	-7.941
172	1	7	0.119265	10.803	25.931	-9.224
173	1	5	-0.025673	11.859	24.996	-7.5539999
174	1	5	-0.169623	11.466	23.573999	-8.0279999
175	1	7	0.081115998	10.487	23.254	-7.6269999
176	1	7	0.081115998	11.408	23.534	-9.1379995
177	1	7	0.081115998	12.223	22.829	-7.6999998
178	1	5	-0.169623	13.258	25.304001	-8.1339998
179	1	7	0.081115998	14.009	24.580999	-7.7480001
180	1	7	0.081115998	13.586	26.327999	-7.8530002
181	1	7	0.081115998	13.25	25.238001	-9.2440004
182	1	5	-0.20848501	11.931	25.061001	-5.9910002
183	1	7	0.119474	12.805	25.676001	-5.6760001
184	1	7	0.119474	12.189	24.044001	-5.6209998
185	1	8	-0.44013	7.8540001	28.73	-8.8610001
186	1	1	0.25769201	6.5170002	28.891001	-8.5050001
187	1	1	-0.211796	5.7410002	27.790001	-8.1230001
188	1	9	0.19443899	6.1789999	26.799999	-8.0939999
189	1	1	-0.166935	4.3990002	27.962	-7.7690001
190	1	9	0.191888	3.8410001	27.093	-7.454
191	1	1	0.193203	3.8150001	29.246	-7.802
192	1	3	-0.58927703	2.4449999	29.489	-7.4390001
193	1	1	0.40443	1.51	28.597	-7.2989998
194	1	10	0.13504601	1.706	27.551001	-7.4899998
195	1	1	-0.28622699	0.141	28.992001	-6.9089999
196	1	1	-0.19838899	-0.85100001	28.007	-6.783
197	1	9	0.19423699	-0.616	26.965	-6.961
198	1	1	-0.19838899	-2.154	28.357	-6.4169998
199	1	9	0.19423699	-2.8940001	27.575001	-6.2989998
200	1	1	-0.28622699	-2.4909999	29.702	-6.1900001
201	1	1	0.40443	-3.855	30.097	-5.776
202	1	10	0.13504601	-3.9460001	30.809	-4.9660001
203	1	3	-0.58927703	-4.9499998	29.621	-6.3000002
204	1	1	0.193203	-5.0700002	28.781	-7.4590001
205	1	1	-0.166935	-6.013	27.745001	-7.4520001
206	1	9	0.191888	-6.6110001	27.562	-6.5689998
207	1	1	-0.211796	-6.178	26.931999	-8.5780001
208	1	9	0.19443899	-6.8990002	26.125	-8.5539999
209	1	1	0.24403501	-5.415	27.164	-9.7309999
210	1	8	-0.43888	-5.5679998	26.358999	-10.858
211	1	1	-0.211796	-4.4959998	28.216999	-9.7539997
212	1	9	0.19443899	-3.915	28.410999	-10.647
213	1	1	-0.166935	-4.3309999	29.031	-8.6289997
214	1	9	0.191888	-3.638	29.861	-8.677
215	1	1	-0.19838899	-1.494	30.683001	-6.2849998
216	1	9	0.19423699	-1.729	31.722	-6.0879998
217	1	1	-0.19838899	-0.19	30.334	-6.6500001
218	1	9	0.19423699	0.55599999	31.115	-6.7280002
219	1	1	-0.166935	4.605	30.341999	-8.1730003
220	1	9	0.191888	4.1760001	31.336	-8.1929998
221	1	1	-0.211796	5.9460001	30.166	-8.5270004
222	1	9	0.19443899	6.5419998	31.023001	-8.8170004
223	1	1	0.80802	-6.2490001	25.563	-10.873
224	1	2	-0.61624902	-5.8319998	24.386999	-10.7
225	1	3	-0.457369	-7.638	25.823999	-11.091
226	1	4	0.33053499	-7.9169998	26.819	-11.227
227	1	5	0.00061599998	-8.6219997	24.735001	-11.119
228	1	6	0.080239996	-8.3280001	24.013	-11.913
229	1	6	0.080239996	-8.573	24.194	-10.148
230	1	5	-0.005386	-10.088	25.212	-11.375
231	1	5	-0.167897	-10.138	25.955999	-12.736
232	1	7	0.078107998	-11.175	26.142	-13.07
233	1	7	0.078107998	-9.6429996	25.353001	-13.528
234	1	7	0.078107998	-9.6280003	26.940001	-12.685
235	1	5	-0.20247699	-10.533	26.15	-10.22
236	1	7	0.117742	-10.318	25.646	-9.2539997
237	1	7	0.117742	-9.9069996	27.066999	-10.194
238	1	5	0.134266	-12.03	26.558001	-10.245
239	1	6	0.054117002	-12.35	26.632	-9.1809998
240	1	3	-0.531932	-12.198	27.882	-10.859
241	1	4	0.32121	-11.443	28.284	-11.458
242	1	1	0.82863998	-13.374	28.676001	-10.664
243	1	2	-0.61631602	-14.314	28.271999	-9.9289999
244	1	5	-0.206053	-12.95	25.537001	-10.951
245	1	7	0.119265	-13.08	25.823	-12.016
246	1	7	0.119265	-13.967	25.608999	-10.504
247	1	5	-0.025673	-12.454	24.075001	-10.873
248	1	5	-0.169623	-12.53	23.566999	-9.4110003
249	1	7	0.081115998	-11.848	24.120001	-8.7390003
250	1	7	0.081115998	-13.562	23.676001	-9.0120001
251	1	7	0.081115998	-12.256	22.490999	-9.3559999
252	1	5	-0.169623	-13.405	23.195	-11.715
253	1	7	0.081115998	-13.079	22.132999	-11.692
254	1	7	0.081115998	-13.419	23.528999	-12.775
255	1	7	0.081115998	-14.445	23.25	-11.325
256	1	5	-0.20848501	-10.999	23.934	-11.436
257	1	7	0.119474	-11.032	23.584999	-12.493
258	1	7	0.119474	-10.511	23.086	-10.904
259	1	8	-0.44013	-13.454	29.608	-11.135
260	1	1	0.25769201	-12.823	30.739	-10.622
261	1	1	-0.211796	-12.055	30.660999	-9.4530001
262	1	9	0.19443899	-11.94	29.715	-8.9399996
263	1	1	-0.166935	-11.426	31.802999	-8.9460001
264	1	9	0.191888	-10.821	31.697001	-8.0570002
265	1	1	0.193203	-11.568	33.042999	-9.6029997
266	1	3	-0.58927703	-10.938	34.249001	-9.1379995
267	1	1	0.40443	-10.402	34.442001	-7.9689999
268	1	10	0.13504601	-10.426	33.671001	-7.2119999
269	1	1	-0.28622699	-9.776	35.737	-7.6300001
270	1	1	-0.19838899	-9.2229996	35.921001	-6.3530002
271	1	9	0.19423699	-9.2449999	35.120998	-5.6240001
272	1	1	-0.19838899	-8.6269999	37.137001	-6.0089998
273	1	9	0.19423699	-8.1820002	37.243999	-5.027
274	1	1	-0.28622699	-8.5939999	38.198002	-6.9299998
275	1	1	0.40443	-7.9450002	39.486	-6.5999999
276	1	10	0.13504601	-7.2930002	39.924	-7.3439999
277	1	3	-0.58927703	-8.0839996	40.110001	-5.4629998
278	1	1	0.193203	-8.9910002	39.791	-4.3959999
279	1	1	-0.166935	-8.5530005	39.915001	-3.072
280	1	9	0.191888	-7.5320001	40.209999	-2.8640001
281	1	1	-0.211796	-9.4230003	39.644001	-2.0109999
282	1	9	0.19443899	-9.0670004	39.729	-0.99199998
283	1	1	0.24403501	-10.749	39.269001	-2.267
284	1	8	-0.43888	-11.624	38.993999	-1.219
285	1	1	-0.211796	-11.201	39.174999	-3.5869999
286	1	9	0.19443899	-12.228	38.901001	-3.7909999
287	1	1	-0.166935	-10.332	39.446999	-4.6490002
288	1	9	0.191888	-10.708	39.401001	-5.6620002
289	1	1	-0.19838899	-9.1169996	38.005001	-8.2150002
290	1	9	0.19423699	-9.0769997	38.801998	-8.9469995
291	1	1	-0.19838899	-9.7130003	36.789001	-8.5609999
292	1	9	0.19423699	-10.122	36.673	-9.5570002
293	1	1	-0.166935	-12.327	33.105999	-10.779
294	1	9	0.191888	-12.436	34.047001	-11.304
295	1	1	-0.211796	-12.955	31.962999	-11.284
296	1	9	0.19443899	-13.543	32.028999	-12.19
297	1	1	0.80802	-11.318	39.056	-0.219
298	1	2	-0.61624902	-11.024	38.001999	0.405
299	1	3	-0.457369	-11.238	40.334	0.419
300	1	4	0.33053499	-11.495	41.166	-0.154
301	1	5	0.00061599998	-10.812	40.460999	1.817
302	1	6	0.080239996	-11.496	39.854	2.4519999
303	1	6	0.080239996	-9.7950001	40.019001	1.915
304	1	5	-0.005386	-10.793	41.931999	2.3429999
305	1	5	-0.167897	-12.22	42.527	2.2060001
306	1	7	0.078107998	-12.321	43.490002	2.7409999
307	1	7	0.078107998	-12.974	41.834	2.6359999
308	1	7	0.078107998	-12.488	42.712002	1.146
309	1	5	-0.20247699	-9.7720003	42.759998	1.516
310	1	7	0.117742	-8.8070002	42.209999	1.495
311	1	7	0.117742	-10.078	42.813999	0.44999999
312	1	5	0.134266	-9.5109997	44.195999	2.0420001
313	1	6	0.054117002	-8.4370003	44.411999	1.842
314	1	3	-0.531932	-10.313	45.176998	1.298
315	1	4	0.32121	-11.144	44.866001	0.74599999
316	1	1	0.82863998	-9.9980001	46.573002	1.28
317	1	2	-0.61631602	-8.9919996	47.018002	1.8940001
318	1	5	-0.206053	-9.7580004	44.368	3.5580001
319	1	7	0.119265	-10.795	44.726002	3.7309999
320	1	7	0.119265	-9.1000004	45.182999	3.934
321	1	5	-0.025673	-9.5179996	43.085999	4.3889999
322	1	5	-0.169623	-8.0109997	42.724998	4.3829999
323	1	7	0.081115998	-7.6469998	42.464001	3.372
324	1	7	0.081115998	-7.4029999	43.578999	4.7519999
325	1	7	0.081115998	-7.8150001	41.855	5.046
326	1	5	-0.169623	-9.915	43.376999	5.8540001
327	1	7	0.081115998	-9.7639999	42.476002	6.487
328	1	7	0.081115998	-10.984	43.673	5.9229999
329	1	7	0.081115998	-9.302	44.205002	6.2729998
330	1	5	-0.20848501	-10.379	41.889999	3.8570001
331	1	7	0.119474	-11.307	41.790001	4.4650002
332	1	7	0.119474	-9.8260002	40.950001	4.0799999
333	1	8	-0.44013	-10.609	47.236	0.74599999
334	1	1	0.25769201	-10.496	47.375999	-0.63599998
335	1	1	-0.211796	-9.5570002	46.626999	-1.3559999
336	1	9	0.19443899	-8.9119997	45.924999	-0.84399998
337	1	1	-0.166935	-9.4510002	46.776001	-2.743
338	1	9	0.191888	-8.7340002	46.161999	-3.267
339	1	1	0.193203	-10.284	47.688	-3.425
340	1	3	-0.58927703	-10.232	47.877998	-4.8499999
341	1	1	0.40443	-9.29	47.477001	-5.651
342	1	10	0.13504601	-8.4130001	46.972	-5.27
343	1	1	-0.28622699	-9.3730001	47.734001	-7.1030002
344	1	1	-0.19838899	-8.3310003	47.305	-7.9400001
345	1	9	0.19423699	-7.4759998	46.782001	-7.5289998
346	1	1	-0.19838899	-8.3870001	47.536999	-9.3170004
347	1	9	0.19423699	-7.5840001	47.172001	-9.9440002
348	1	1	-0.28622699	-9.4779997	48.223	-9.8769999
349	1	1	0.40443	-9.5749998	48.459	-11.335
350	1	10	0.13504601	-10.526	48.264	-11.812
351	1	3	-0.58927703	-8.5830002	48.855	-12.083
352	1	1	0.193203	-7.2870002	49.299	-11.653
353	1	1	-0.166935	-6.1589999	48.922001	-12.393
354	1	9	0.191888	-6.2670002	48.271999	-13.253
355	1	1	-0.211796	-4.8870001	49.366001	-12.019
356	1	9	0.19443899	-4.0219998	49.054001	-12.591
357	1	1	0.24403501	-4.7340002	50.213001	-10.913
358	1	8	-0.43888	-3.4719999	50.659	-10.529
359	1	1	-0.211796	-5.8610001	50.618999	-10.19
360	1	9	0.19443899	-5.7509999	51.285	-9.3439999
361	1	1	-0.166935	-7.1329999	50.175999	-10.564
362	1	9	0.191888	-7.9959998	50.527	-10.012
363	1	1	-0.19838899	-10.534	48.624001	-9.0480003
364	1	9	0.19423699	-11.395	49.130001	-9.4659996
365	1	1	-0.19838899	-10.48	48.390999	-7.6700001
366	1	9	0.19423699	-11.304	48.723999	-7.052
367	1	1	-0.166935	-11.23	48.421001	-2.6949999
368	1	9	0.191888	-11.886	49.117001	-3.204
369	1	1	-0.211796	-11.333	48.27	-1.309
370	1	9	0.19443899	-12.064	48.848999	-0.759
371	1	1	0.80802	-2.609	50.375	-11.05
372	1	2	-0.61624902	-1.881	49.457001	-10.588
373	1	3	-0.457369	-2.2720001	51.032001	-12.275
374	1	4	0.33053499	-2.918	51.782001	-12.603
375	1	5	0.00061599998	-1.072	50.66	-13.033
376	1	6	0.080239996	-0.184	50.786999	-12.375
377	1	6	0.080239996	-1.14	49.577999	-13.288
378	1	5	-0.005386	-0.866	51.488998	-14.341
379	1	5	-0.167897	-0.76599997	52.992001	-13.965
380	1	7	0.078107998	-0.42199999	53.611	-14.815
381	1	7	0.078107998	-0.037999999	53.139	-13.138
382	1	7	0.078107998	-1.744	53.400002	-13.639
383	1	5	-0.20247699	-2.062	51.243	-15.301
384	1	7	0.117742	-2.2090001	50.146999	-15.406
385	1	7	0.117742	-3.01	51.603001	-14.849
386	1	5	0.134266	-1.9069999	51.861	-16.716
387	1	6	0.054117002	-2.4000001	51.153	-17.421
388	1	3	-0.531932	-2.612	53.146999	-16.802999
389	1	4	0.32121	-2.8729999	53.662998	-15.933
390	1	1	0.82863998	-2.9790001	53.738998	-18.052999
391	1	2	-0.61631602	-2.727	53.160999	-19.143
392	1	5	-0.206053	-0.44	52.040001	-17.169001
393	1	7	0.119265	-0.094999999	53.066002	-16.921
394	1	7	0.119265	-0.403	51.98	-18.278999
395	1	5	-0.025673	0.54100001	51.012001	-16.562
396	1	5	-0.169623	0.241	49.598999	-17.121
397	1	7	0.081115998	-0.75700003	49.231998	-16.816
398	1	7	0.081115998	0.27599999	49.601002	-18.232
399	1	7	0.081115998	0.99299997	48.866001	-16.757
400	1	5	-0.169623	1.973	51.387001	-17.009001
401	1	7	0.081115998	2.714	50.674	-16.587
402	1	7	0.081115998	2.24	52.409	-16.663
403	1	7	0.081115998	2.0599999	51.366001	-18.117001
404	1	5	-0.20848501	0.47999999	51.015999	-14.997
405	1	7	0.119474	1.303	51.645	-14.586
406	1	7	0.119474	0.74199998	49.993	-14.645
407	1	8	-0.44013	-3.4679999	54.666	-18.063999
408	1	1	0.25769201	-4.835	54.77	-17.816999
409	1	1	-0.211796	-5.6009998	53.630001	-17.544001
410	1	9	0.19443899	-5.1329999	52.653999	-17.514999
411	1	1	-0.166935	-6.973	53.744999	-17.299
412	1	9	0.191888	-7.5250001	52.846001	-17.066
413	1	1	0.193203	-7.5970001	55.009998	-17.334
414	1	3	-0.58927703	-9.0010004	55.195	-17.08
415	1	1	0.40443	-9.9119997	54.268002	-17.052999
416	1	10	0.13504601	-9.6639996	53.237	-17.264999
417	1	1	-0.28622699	-11.322	54.603001	-16.766001
418	1	1	-0.19838899	-12.286	53.583	-16.761999
419	1	9	0.19423699	-12.001	52.556999	-16.959
420	1	1	-0.19838899	-13.626	53.875999	-16.495001
421	1	9	0.19423699	-14.345	53.067001	-16.469999
422	1	1	-0.28622699	-14.028	55.200001	-16.247999
423	1	1	0.40443	-15.435	55.534	-15.937
424	1	10	0.13504601	-15.619	56.209	-15.111
425	1	3	-0.58927703	-16.465	55.043999	-16.569
426	1	1	0.193203	-16.458	54.249001	-17.764999
427	1	1	-0.166935	-17.362	53.183998	-17.878
428	1	9	0.191888	-18.025	52.945999	-17.056
429	1	1	-0.211796	-17.403	52.411999	-19.042999
430	1	9	0.19443899	-18.094999	51.583	-19.111
431	1	1	0.24403501	-16.555	52.714001	-20.117001
432	1	8	-0.43888	-16.584	51.951	-21.282
433	1	1	-0.211796	-15.674	53.797001	-20.023001
434	1	9	0.19443899	-15.028	54.043999	-20.855
435	1	1	-0.166935	-15.633	54.57	-18.858
436	1	9	0.191888	-14.968	55.422001	-18.816
437	1	1	-0.19838899	-13.062	56.214001	-16.221001
438	1	9	0.19423699	-13.349	57.237	-16.006001
439	1	1	-0.19838899	-11.721	55.923	-16.487
440	1	9	0.19423699	-10.999	56.729	-16.472
441	1	1	-0.166935	-6.8179998	56.145	-17.594999
442	1	9	0.191888	-7.2789998	57.125	-17.614
443	1	1	-0.211796	-5.447	56.026001	-17.84
444	1	9	0.19443899	-4.8590002	56.911999	-18.046
445	1	1	0.80802	-17.233	51.134998	-21.386
446	1	2	-0.61624902	-16.791	49.966999	-21.221001
447	1	3	-0.457369	-18.608	51.360001	-21.711
448	1	4	0.33053499	-18.909	52.351002	-21.833
449	1	5	0.00061599998	-19.546	50.243	-21.863001
450	1	6	0.080239996	-19.162001	49.563	-22.656
451	1	6	0.080239996	-19.559999	49.665001	-20.912001
452	1	5	-0.005386	-21.002001	50.681999	-22.225
453	1	5	-0.167897	-20.962999	51.479	-23.556999
454	1	7	0.078107998	-21.975	51.646	-23.969999
455	1	7	0.078107998	-20.382999	50.924	-24.326
456	1	7	0.078107998	-20.495001	52.476002	-23.426001
457	1	5	-0.20247699	-21.575001	51.558998	-21.077999
458	1	7	0.117742	-21.424	51.022999	-20.117001
459	1	7	0.117742	-20.986	52.493	-20.964001
460	1	5	0.134266	-23.077	51.919998	-21.215
461	1	6	0.054117002	-23.489	51.939999	-20.18
462	1	3	-0.531932	-23.240999	53.261002	-21.791
463	1	4	0.32121	-22.452	53.710999	-22.306999
464	1	1	0.82863998	-24.455999	54.007999	-21.667
465	1	2	-0.61631602	-25.438999	53.544998	-21.030001
466	1	5	-0.206053	-23.899	50.898998	-22.034
467	1	7	0.119265	-23.948999	51.223	-23.094999
468	1	7	0.119265	-24.952	50.919998	-21.673
469	1	5	-0.025673	-23.360001	49.452	-21.969
470	1	5	-0.169623	-23.541	48.882	-20.539
471	1	7	0.081115998	-22.937	49.43	-19.792
472	1	7	0.081115998	-24.605	48.943001	-20.225
473	1	7	0.081115998	-23.233999	47.814999	-20.500999
474	1	5	-0.169623	-24.205999	48.576	-22.922001
475	1	7	0.081115998	-23.846001	47.525002	-22.910999
476	1	7	0.081115998	-24.142	48.952999	-23.966
477	1	7	0.081115998	-25.275999	48.582001	-22.618999
478	1	5	-0.20848501	-21.858999	49.380001	-22.410999
479	1	7	0.119474	-21.791	49.073002	-23.48
480	1	7	0.119474	-21.388	48.527	-21.872
481	1	8	-0.44013	-24.528	54.956001	-22.108
482	1	1	0.25769201	-23.983	56.084999	-21.500999
483	1	1	-0.211796	-23.313	55.984001	-20.275
484	1	9	0.19443899	-23.208	55.021999	-19.790001
485	1	1	-0.166935	-22.77	57.124001	-19.673
486	1	9	0.191888	-22.238001	57.001999	-18.740999
487	1	1	0.193203	-22.899	58.384998	-20.292999
488	1	3	-0.58927703	-22.353001	59.591	-19.731001
489	1	1	0.40443	-21.924	59.752998	-18.514
490	1	10	0.13504601	-21.983999	58.952	-17.791
491	1	1	-0.28622699	-21.375	61.051998	-18.075001
492	1	1	-0.19838899	-20.937	61.202999	-16.75
493	1	9	0.19423699	-20.992001	60.373001	-16.056
494	1	1	-0.19838899	-20.415001	62.422001	-16.311001
495	1	9	0.19423699	-20.058001	62.504002	-15.292
496	1	1	-0.28622699	-20.341999	63.52	-17.184999
497	1	1	0.40443	-19.77	64.814003	-16.753
498	1	10	0.13504601	-19.073	65.302002	-17.423
499	1	3	-0.58927703	-20.025	65.387001	-15.61
500	1	1	0.193203	-21.007	64.996002	-14.637
501	1	1	-0.166935	-20.684999	65.080002	-13.276
502	1	9	0.191888	-19.695999	65.399002	-12.971
503	1	1	-0.211796	-21.631001	64.738998	-12.304
504	1	9	0.19443899	-21.365	64.793999	-11.256
505	1	1	0.24403501	-22.917	64.332001	-12.686
506	1	8	-0.43888	-23.867001	63.987999	-11.727
507	1	1	-0.211796	-23.253	64.278	-14.042
508	1	9	0.19443899	-24.249001	63.98	-14.343
509	1	1	-0.166935	-22.308001	64.620003	-15.015
510	1	9	0.191888	-22.596001	64.601997	-16.058001
511	1	1	-0.19838899	-20.75	63.362	-18.516001
512	1	9	0.19423699	-20.676001	64.189003	-19.212
513	1	1	-0.19838899	-21.271	62.141998	-18.958
514	1	9	0.19423699	-21.59	62.054001	-19.988001
515	1	1	-0.166935	-23.559	58.471001	-21.527
516	1	9	0.191888	-23.657	59.428001	-22.021999
517	1	1	-0.211796	-24.101	57.330002	-22.125
518	1	9	0.19443899	-24.614	57.412998	-23.075001
519	1	1	0.80802	-23.648001	64.019997	-10.703
520	1	2	-0.61624902	-23.370001	62.951	-10.096
521	1	3	-0.457369	-23.667	65.272003	-10.013
522	1	4	0.33053499	-23.903	66.117996	-10.574
523	1	5	0.00061599998	-23.364	65.356003	-8.5799999
524	1	6	0.080239996	-24.077	64.703003	-8.0290003
525	1	6	0.080239996	-22.344	64.944	-8.4130001
526	1	5	-0.005386	-23.440001	66.805	-8
527	1	5	-0.167897	-24.871	67.359001	-8.2349997
528	1	7	0.078107998	-25.051001	68.295998	-7.6750002
529	1	7	0.078107998	-25.634001	66.625	-7.8969998
530	1	7	0.078107998	-25.056	67.578003	-9.3059998
531	1	5	-0.20247699	-22.382999	67.697998	-8.7049999
532	1	7	0.117742	-21.402	67.18	-8.665
533	1	7	0.117742	-22.601	67.783997	-9.79
534	1	5	0.134266	-22.219	69.119003	-8.1049995
535	1	6	0.054117002	-21.139999	69.376999	-8.2049999
536	1	3	-0.531932	-22.989	70.102997	-8.8780003
537	1	4	0.32121	-23.76	69.788002	-9.5089998
538	1	1	0.82863998	-22.723	71.508003	-8.816
539	1	2	-0.61631602	-21.788	71.959999	-8.1029997
540	1	5	-0.206053	-22.597	69.221001	-6.6100001
541	1	7	0.119265	-23.657	69.540001	-6.513
542	1	7	0.119265	-22.002001	70.041	-6.1500001
543	1	5	-0.025673	-22.382999	67.915001	-5.8109999
544	1	5	-0.169623	-20.868999	67.602997	-5.7020001
545	1	7	0.081115998	-20.413	67.394997	-6.6880002
546	1	7	0.081115998	-20.323999	68.459999	-5.2509999
547	1	7	0.081115998	-20.698	66.713997	-5.0580001
548	1	5	-0.169623	-22.910999	68.135002	-4.375
549	1	7	0.081115998	-22.782	67.213997	-3.766
550	1	7	0.081115998	-23.992001	68.392998	-4.3860002
551	1	7	0.081115998	-22.365	68.963997	-3.8740001
552	1	5	-0.20848501	-23.153999	66.714996	-6.4580002
553	1	7	0.119474	-24.125	66.560997	-5.9359999
554	1	7	0.119474	-22.589001	65.785004	-6.224
555	1	8	-0.44013	-23.309	72.171997	-9.375
556	1	1	0.25769201	-23.087	72.371002	-10.736
557	1	1	-0.211796	-22.065001	71.682999	-11.402
558	1	9	0.19443899	-21.441	70.981003	-10.863
559	1	1	-0.166935	-21.849001	71.889999	-12.768
560	1	9	0.191888	-21.069	71.320999	-13.251
561	1	1	0.193203	-22.653	72.802002	-13.484
562	1	3	-0.58927703	-22.488001	73.051003	-14.891
563	1	1	0.40443	-21.469	72.712997	-15.623
564	1	10	0.13504601	-20.610001	72.221001	-15.188
565	1	1	-0.28622699	-21.438999	73.025002	-17.066
566	1	1	-0.19838899	-20.316999	72.663002	-17.827
567	1	9	0.19423699	-19.481001	72.152	-17.364
568	1	1	-0.19838899	-20.264999	72.949997	-19.194
569	1	9	0.19423699	-19.4	72.635002	-19.764
570	1	1	-0.28622699	-21.327999	73.622002	-19.819
571	1	1	0.40443	-21.311001	73.913002	-21.27
572	1	10	0.13504601	-22.212	73.708	-21.833
573	1	3	-0.58927703	-20.275	74.371002	-21.916
574	1	1	0.193203	-19.035	74.838997	-21.360001
575	1	1	-0.166935	-17.837	74.527	-22.016001
576	1	9	0.191888	-17.85	73.910004	-22.905001
577	1	1	-0.211796	-16.617001	74.996002	-21.518999
578	1	9	0.19443899	-15.697	74.736	-22.025999
579	1	1	0.25769201	-16.587999	75.802002	-20.372
580	1	8	-0.44013	-15.379	76.273003	-19.865999
581	1	1	-0.211796	-17.784	76.142998	-19.733
582	1	9	0.19443899	-17.768999	76.778	-18.857
583	1	1	-0.166935	-19.004999	75.675003	-20.23
584	1	9	0.191888	-19.922001	75.975998	-19.740999
585	1	1	-0.19838899	-22.462999	73.955002	-19.068001
586	1	9	0.19423699	-23.304001	74.449997	-19.539
587	1	1	-0.19838899	-22.517	73.668999	-17.701
588	1	9	0.19423699	-23.400999	73.949997	-17.143
589	1	1	-0.166935	-23.681999	73.474998	-12.81
590	1	9	0.191888	-24.316999	74.168999	-13.346
591	1	1	-0.211796	-23.895	73.264999	-11.444
592	1	9	0.19443899	-24.688999	73.796997	-10.937
593	1	8	-0.43888	5.4520001	0.77899998	-0.366
594	1	1	0.24403501	6.552	0.84299999	0.486
595	1	1	-0.211796	6.7490001	-0.132	1.473
596	1	9	0.19443899	6.0489998	-0.95099998	1.576
597	1	1	-0.166935	7.8559999	-0.057999998	2.3239999
598	1	9	0.191888	7.9879999	-0.84299999	3.0550001
599	1	1	0.193203	8.7770004	1.003	2.2019999
600	1	3	-0.58927703	9.9399996	1.128	3.039
601	1	1	0.40443	10.17	0.48800001	4.1459999
602	1	10	0.13504601	9.441	-0.199	4.553