Title

873 atoms
891 bonds
1620 angles
2912 dihedrals
423 impropers

11 atom types
17 bond types
10 angle types
44 dihedral types
3 improper types
-20.91200066 79.08799934 xlo xhi
-4.770999908 95.22900009 ylo yhi
-5.294000149 94.70599985 zlo zhi
0.0 0.0 0.0 xy xz yz

Masses

1	12.01078
2	15.99943
3	1.007947
4	15.99943
5	12.01078
6	15.99943
7	1.007947
8	1.007947
9	1.007947
10	14.00672
11	1.007947


Pair Coeffs

1	0.10884061	3.3795318
2	0.20947353	2.99716
3	1.2326e-05	0.53453923
4	0.16846514	3.0251065
5	0.086879315	3.4806469
6	0.2102061	3.0398122
7	0.016409246	2.5832257
8	0.015611343	2.5725815
9	0.015779483	2.6445434
10	0.16769152	3.206876
11	0.014090815	1.1034277

Bond Coeffs

1 harmonic	329.96998057905	1.427343958716
2 harmonic	264.62148576755	1.52190126495
3 harmonic	370.04670688625	1.093899492634
4 harmonic	543.5267831885	0.9716763312559
5 harmonic	366.7408841747	1.425895053732
6 harmonic	301.15400723785	1.345741232799
7 harmonic	582.698766451	1.225198386222
8 harmonic	279.1350963404	1.454628925034
9 harmonic	425.69104206635	1.362945806494
10 harmonic	360.7852444772	1.387193227181
11 harmonic	397.2545789619	1.085358495916
12 harmonic	289.73813263395	1.498646816465
13 harmonic	492.76746816345	1.381897776683
14 harmonic	505.144496193	1.019481865027
15 harmonic	352.0565580496	1.450098586273
16 harmonic	366.34047229585	1.464762957261
17 harmonic	422.7150220147	1.421786517481


Angle Coeffs

1 harmonic	65.09061609600001	110.3538806181
2 harmonic	53.20531626545	116.5475862634
3 harmonic	201.41175231035	127.4691416191
4 harmonic	57.8982893754	126.8062420451
5 harmonic	48.776492647595	115.6030999533
6 harmonic	34.066775159195	129.1835929926
7 harmonic	55.42182150775	117.3465570514
8 harmonic	63.44422595415	115.5071327674
9 harmonic	94.53012429075	110.92021963
10 harmonic	49.015990027215	114.8414599994


Dihedral Coeffs

1 fourier 1	0.1918272375143	3	0
2 fourier 1	0.9202179876409	1	180
3 fourier 1	-0.0309670556842	3	0
4 fourier 1	0.4598191477945	2	0
5 fourier 1	0.1115525666802	3	0
6 fourier 1	0.3432490222662	1	0
7 fourier 1	0.3445382149273	3	0
8 fourier 1	0.1364556373303	1	0
9 fourier 1	0.3026390167484	3	0
10 fourier 1	0.1155372516788	3	0
11 fourier 1	0.1040663847541	3	0
12 fourier 1	1.163809172478	2	180
13 fourier 1	0.1679186987369	1	180
14 fourier 1	2.779853741805	2	180
15 fourier 1	0.9974165607242	2	180
16 fourier 1	0.0473758381877	3	0
17 fourier 1	0.1911926717192	3	0
18 fourier 1	1.532232714475	2	180
19 fourier 1	3.661930099076	2	180
20 fourier 1	0.02664938770063	3	0
21 fourier 1	1.809047390003	2	180
22 fourier 1	-0.04816277792592	1	0
23 fourier 1	-0.1488678166443	4	180
24 fourier 1	-0.1230328948768	3	180
25 fourier 1	0.2939295466901	2	0
26 fourier 1	-0.3024127022865	1	0
27 fourier 1	0.182238503271	2	0
28 fourier 1	0.02972342374561	3	0
29 fourier 1	0.4860993122944	2	180
30 fourier 1	0.8916986138746	1	0
31 fourier 1	0.09223874044423	3	0
32 fourier 1	0.3159935921949	2	180
33 fourier 1	0.3247796806857	1	180
34 fourier 1	0.2036670163956	3	0
35 fourier 1	0.3917343745784	3	0
36 fourier 1	0.9467782973395	2	0
37 fourier 1	0.2726597146827	1	0
38 fourier 1	0.774151252041	3	0
39 fourier 1	1.087509576657	2	0
40 fourier 1	1.518874939494	1	0
41 fourier 1	0.6761465733405	3	0
42 fourier 1	1.653011589151	2	0
43 fourier 1	1.713184811193	1	0
44 fourier 1	1.659715194912	2	180


Improper Coeffs

1 3.5	-1	2
2 0.3666666666666667	-1	2
3 0.3333333333333333	-1	2


Atoms

1	1	1	0.145339	-7.0489998	1.59	-0.42199999
2	1	2	-0.69607902	-8.3540001	1.253	-0.021
3	1	3	0.416848	-8.3050003	0.90700001	0.90899998
4	1	1	0.109072	-6.5170002	2.7750001	0.40000001
5	1	4	-0.48971599	-6.3909998	2.4200001	1.775
6	1	5	0.62937301	-5.9130001	3.3099999	2.7390001
7	1	6	-0.52208298	-5.573	4.4829998	2.4300001
8	1	7	0.100427	-7.2210002	3.631	0.301
9	1	7	0.100427	-5.527	3.0910001	0.003
10	1	7	0.101437	-7.0999999	1.914	-1.485
11	1	1	0.053789001	-6.1240001	0.36500001	-0.35100001
12	1	4	-0.397856	-4.848	0.68800002	-0.89899999
13	1	5	0.19627801	-3.76	-0.19599999	-0.97299999
14	1	5	-0.36454001	-3.8239999	-1.469	-0.54000002
15	1	5	-0.152006	-2.6429999	-2.352	-0.63200003
16	1	5	-0.27230099	-1.471	-1.895	-1.127
17	1	5	-0.152006	-1.426	-0.493	-1.6339999
18	1	5	-0.36454001	-2.4979999	0.30199999	-1.553
19	1	8	0.214366	-2.4430001	1.319	-1.92
20	1	8	0.200867	-0.51599997	-0.103	-2.073
21	1	1	0.0036780001	-0.213	-2.7720001	-1.2690001
22	1	5	-0.27230099	1.007	-1.985	-0.75700003
23	1	5	-0.152006	2.1760001	-1.904	-1.431
24	1	5	-0.36454001	3.319	-1.146	-0.88
25	1	5	0.19627801	3.2219999	-0.53899997	0.317
26	1	5	-0.36454001	1.9630001	-0.64999998	1.079
27	1	5	-0.152006	0.92500001	-1.331	0.58099997
28	1	8	0.200867	0.016000001	-1.401	1.165
29	1	8	0.214366	1.881	-0.178	2.05
30	1	4	-0.397856	4.2729998	0.2	0.88200003
31	1	1	0.053789001	5.539	0.419	0.26100001
32	1	1	0.14876901	6.4159999	1.286	1.175
33	1	2	-0.69607902	5.7740002	2.5	1.471
34	1	3	0.416848	5.6149998	2.973	0.61199999
35	1	1	0.088872999	7.7989998	1.531	0.54799998
36	1	4	-0.483403	8.6619997	2.197	1.47
37	1	5	0.79052001	8.7010002	3.586	1.63
38	1	6	-0.58042902	8.0170002	4.349	0.89700001
39	1	7	0.111253	7.7129998	2.108	-0.39899999
40	1	7	0.111253	8.2600002	0.551	0.30000001
41	1	7	0.101437	6.5650001	0.73400003	2.1289999
42	1	7	0.099841997	6.039	-0.55900002	0.089000002
43	1	7	0.099841997	5.3920002	0.93199998	-0.71499997
44	1	8	0.214366	4.2259998	-1.094	-1.465
45	1	8	0.200867	2.3199999	-2.3800001	-2.3889999
46	1	1	-0.133653	-0.108	-3.165	-2.7620001
47	1	9	0.079397999	-1.0549999	-3.6359999	-3.1059999
48	1	9	0.079397999	0.078000002	-2.2709999	-3.3959999
49	1	9	0.079397999	0.70599997	-3.902	-2.9300001
50	1	1	-0.133653	-0.28099999	-4.079	-0.44
51	1	9	0.079397999	-1.054	-4.7709999	-0.838
52	1	9	0.079397999	0.69199997	-4.6149998	-0.48300001
53	1	9	0.079397999	-0.50700003	-3.8629999	0.62599999
54	1	8	0.200867	-2.7609999	-3.3670001	-0.28299999
55	1	8	0.214366	-4.7329998	-1.873	-0.116
56	1	7	0.099841997	-6.5780001	-0.463	-0.93900001
57	1	7	0.099841997	-6.0089998	0.035	0.70499998
58	1	10	-0.458543	4.276	4.73	12.737
59	1	11	0.33278501	4.8559999	3.9590001	12.334
60	1	1	0.029021	5.1570001	5.7470002	13.311
61	1	1	-0.14133701	5.954	6.5100002	12.238
62	1	1	-0.138071	6.9819999	5.6170001	11.523
63	1	1	-0.137724	7.96	6.4229999	10.653
64	1	1	-0.136483	7.2820001	7.046	9.4239998
65	1	1	-0.136483	8.316	7.7119999	8.5050001
66	1	1	-0.136483	7.6719999	8.4919996	7.3449998
67	1	1	-0.136483	6.8119998	7.6440001	6.3850002
68	1	1	-0.137724	7.5279999	6.4349999	5.756
69	1	1	-0.138071	8.7270002	6.8400002	4.882
70	1	1	-0.14133701	9.4020004	5.6329999	4.211
71	1	1	0.029021	8.5869999	5.072	3.039
72	1	10	-0.458543	9.3319998	4.006	2.3759999
73	1	11	0.33278501	10.14	4.4369998	1.8710001
74	1	7	0.067864001	7.6269999	4.6550002	3.4130001
75	1	7	0.067864001	8.3599997	5.8800001	2.309
76	1	9	0.096198998	9.5839996	4.8319998	4.961
77	1	9	0.096198998	10.392	5.9629998	3.826
78	1	9	0.094764002	8.408	7.573	4.1090002
79	1	9	0.094764002	9.4899998	7.3330002	5.5209999
80	1	9	0.093943	7.8509998	5.7249999	6.5450001
81	1	9	0.093943	6.7810001	5.9039998	5.1300001
82	1	9	0.093943	5.9099998	7.2839999	6.9239998
83	1	9	0.093943	6.4450002	8.3050003	5.5700002
84	1	9	0.093943	8.4720001	9.0039997	6.7690001
85	1	9	0.093943	7.0320001	9.2959995	7.7680001
86	1	9	0.093943	9.0249996	6.9530001	8.1120005
87	1	9	0.093943	8.915	8.434	9.1040001
88	1	9	0.093943	6.5440001	7.8099999	9.7510004
89	1	9	0.093943	6.7470002	6.2480001	8.8640003
90	1	9	0.093943	8.7620001	5.7329998	10.309
91	1	9	0.093943	8.4399996	7.2179999	11.264
92	1	9	0.094764002	7.5770001	5.0669999	12.285
93	1	9	0.094764002	6.4629998	4.8649998	10.891
94	1	9	0.096198998	6.4850001	7.349	12.739
95	1	9	0.096198998	5.2470002	6.947	11.5
96	1	7	0.067864001	5.8520002	5.2709999	14.038
97	1	7	0.067864001	4.5349998	6.474	13.875
98	1	1	0.14876901	1.521	3.6900001	9.2480001
99	1	2	-0.69607902	0.602	3.0120001	10.067
100	1	3	0.416848	1.114	2.5580001	10.786
101	1	1	0.088872999	2.1919999	4.8379998	10.019
102	1	4	-0.483403	2.9760001	4.3309999	11.097
103	1	5	0.79052001	3.7060001	5.1620002	11.95
104	1	6	-0.58042902	3.698	6.4130001	11.802
105	1	7	0.111253	1.406	5.5159998	10.419
106	1	7	0.111253	2.839	5.4239998	9.3299999
107	1	7	0.101437	0.949	4.1399999	8.4060001
108	1	1	0.053789001	2.5420001	2.711	8.6479998
109	1	4	-0.397856	3.372	3.3900001	7.7069998
110	1	5	0.19627801	4.4219999	2.7980001	6.9899998
111	1	5	-0.36454001	4.743	1.4960001	7.1090002
112	1	5	-0.152006	5.8670001	0.92699999	6.3369999
113	1	5	-0.27230099	6.6100001	1.705	5.5170002
114	1	5	-0.152006	6.2199998	3.1370001	5.3699999
115	1	5	-0.36454001	5.1989999	3.6470001	6.0669999
116	1	8	0.214366	4.9369998	4.691	5.9520001
117	1	8	0.200867	6.7670002	3.7820001	4.6939998
118	1	1	0.0036780001	7.7779999	1.1670001	4.6700001
119	1	5	-0.27230099	8.9720001	2.132	4.7930002
120	1	5	-0.152006	9.6850004	2.5710001	3.7309999
121	1	5	-0.36454001	10.832	3.4849999	3.9130001
122	1	5	0.19627801	11.202	3.8789999	5.1459999
123	1	5	-0.36454001	10.453	3.378	6.3140001
124	1	5	-0.152006	9.4119997	2.5550001	6.1529999
125	1	8	0.200867	8.8850002	2.198	7.0289998
126	1	8	0.214366	10.753	3.677	7.3109999
127	1	4	-0.397856	12.277	4.7519999	5.3740001
128	1	1	0.053789001	13.079	5.3390002	4.3509998
129	1	1	0.14876901	14.142	6.2449999	4.9879999
130	1	2	-0.69607902	13.537	7.2270002	5.7909999
131	1	3	0.416848	12.941	7.7670002	5.2080002
132	1	1	0.088872999	15.041	6.8850002	3.9159999
133	1	4	-0.483403	16.122	7.5939999	4.5209999
134	1	5	0.79052001	16.031	8.9189997	4.96
135	1	6	-0.58042902	14.988	9.6009998	4.7729998
136	1	7	0.111253	14.454	7.5549998	3.2490001
137	1	7	0.111253	15.474	6.0809999	3.283
138	1	7	0.101437	14.783	5.6139998	5.6409998
139	1	7	0.099841997	13.581	4.5349998	3.7690001
140	1	7	0.099841997	12.436	5.9359999	3.668
141	1	8	0.214366	11.359	3.825	3.033
142	1	8	0.200867	9.4460001	2.28	2.7190001
143	1	1	-0.133653	7.2509999	1.023	3.2219999
144	1	9	0.079397999	6.329	0.40099999	3.2060001
145	1	9	0.079397999	7.0009999	2.016	2.789
146	1	9	0.079397999	7.9970002	0.52200001	2.5680001
147	1	1	-0.133653	8.2790003	-0.22400001	5.131
148	1	9	0.079397999	7.5170002	-1.011	4.9450002
149	1	9	0.079397999	9.1929998	-0.51200002	4.5669999
150	1	9	0.079397999	8.533	-0.21699999	6.2140002
151	1	8	0.200867	6.066	-0.126	6.4619999
152	1	8	0.214366	4.1919999	0.83899999	7.7680001
153	1	7	0.099841997	1.995	1.892	8.1300001
154	1	7	0.099841997	3.168	2.2709999	9.4549999
155	1	10	-0.458543	16.996	7.4499998	16.841999
156	1	11	0.33278501	17.434	6.8959999	16.070999
157	1	1	0.029021	17.886	8.5500002	17.212
158	1	1	-0.14133701	17.993	9.6169996	16.108999
159	1	1	-0.138071	18.702999	9.0930004	14.849
160	1	1	-0.137724	19.055	10.214	13.859
161	1	1	-0.136483	17.813	10.833	13.2
162	1	1	-0.136483	18.214001	11.84	12.112
163	1	1	-0.136483	17.011	12.607	11.535
164	1	1	-0.136483	15.94	11.729	10.855
165	1	1	-0.137724	16.458	10.816	9.7290001
166	1	1	-0.138071	17.061001	11.603	8.552
167	1	1	-0.14133701	17.524	10.688	7.4070001
168	1	1	0.029021	16.356001	10.126	6.586
169	1	10	-0.458543	16.864	9.3629999	5.4510002
170	1	11	0.33278501	17.285999	10.033	4.7680001
171	1	7	0.067864001	15.74	9.4530001	7.2199998
172	1	7	0.067864001	15.711	10.956	6.2210002
173	1	9	0.096198998	18.136999	9.8529997	7.8099999
174	1	9	0.096198998	18.174999	11.286	6.7309999
175	1	9	0.094764002	16.326	12.345	8.1709995
176	1	9	0.094764002	17.951	12.162	8.9099998
177	1	9	0.093943	17.201	10.095	10.128
178	1	9	0.093943	15.593	10.222	9.3669996
179	1	9	0.093943	15.441	11.101	11.623
180	1	9	0.093943	15.154	12.397	10.439
181	1	9	0.093943	17.382	13.364	10.812
182	1	9	0.093943	16.524	13.176	12.357
183	1	9	0.093943	18.768	11.325	11.299
184	1	9	0.093943	18.909	12.587	12.555
185	1	9	0.093943	17.202999	11.354	13.968
186	1	9	0.093943	17.202999	10.021	12.748
187	1	9	0.093943	19.704	9.7810001	13.067
188	1	9	0.093943	19.641001	11.004	14.379
189	1	9	0.094764002	19.649	8.5909996	15.148
190	1	9	0.094764002	18.066999	8.3389997	14.337
191	1	9	0.096198998	18.568001	10.476	16.52
192	1	9	0.096198998	16.976	9.9809999	15.852
193	1	7	0.067864001	18.893999	8.1479998	17.455999
194	1	7	0.067864001	17.49	9.0299997	18.132999
195	1	1	0.14876901	13.14	6.3099999	14.678
196	1	2	-0.69607902	12.798	5.3309999	15.628
197	1	3	0.416848	13.639	4.9099998	15.945
198	1	1	0.088872999	13.916	7.46	15.339
199	1	4	-0.483403	15.166	7	15.848
200	1	5	0.79052001	16.076	7.8460002	16.483999
201	1	6	-0.58042902	15.824	9.0710001	16.641001
202	1	7	0.111253	13.308	7.8779998	16.172001
203	1	7	0.111253	14.091	8.2700005	14.596
204	1	7	0.101437	12.192	6.7309999	14.277
205	1	1	0.053789001	13.907	5.684	13.503
206	1	4	-0.397856	14.116	6.6599998	12.484
207	1	5	0.19627801	14.8	6.4299998	11.281
208	1	5	-0.36454001	15.322	5.2319999	10.957
209	1	5	-0.152006	16.044001	5.0489998	9.6800003
210	1	5	-0.27230099	16.216	6.0840001	8.8260002
211	1	5	-0.152006	15.603	7.395	9.184
212	1	5	-0.36454001	14.946	7.5549998	10.338
213	1	8	0.214366	14.514	8.5170002	10.582
214	1	8	0.200867	15.686	8.2360001	8.507
215	1	1	0.0036780001	16.938	5.9499998	7.473
216	1	5	-0.27230099	17.907	7.1350002	7.3039999
217	1	5	-0.152006	17.992001	7.8699999	6.1719999
218	1	5	-0.36454001	18.954	8.9870005	6.0630002
219	1	5	0.19627801	19.781	9.2779999	7.0840001
220	1	5	-0.36454001	19.722	8.46	8.3100004
221	1	5	-0.152006	18.85	7.4520001	8.415
222	1	8	0.200867	18.833	6.8639998	9.3240004
223	1	8	0.214366	20.393999	8.677	9.1309996
224	1	4	-0.397856	20.707001	10.332	7.0359998
225	1	1	0.053789001	20.867001	11.225	5.9349999
226	1	1	0.14876901	21.961	12.251	6.2600002
227	1	2	-0.69607902	21.652	12.946	7.4419999
228	1	3	0.416848	20.787001	13.412	7.2979999
229	1	1	0.088872999	22.176001	13.223	5.0869999
230	1	4	-0.483403	23.299999	14.068	5.3319998
231	1	5	0.79052001	23.231001	15.262	6.0570002
232	1	6	-0.58042902	22.131001	15.707	6.48
233	1	7	0.111253	21.263	13.828	4.8959999
234	1	7	0.111253	22.386	12.636	4.1680002
235	1	7	0.101437	22.91	11.696	6.4250002
236	1	7	0.099841997	21.16	10.646	5.0320001
237	1	7	0.099841997	19.906	11.749	5.737
238	1	8	0.214366	18.971001	9.5579996	5.145
239	1	8	0.200867	17.365999	7.677	5.3140001
240	1	1	-0.133653	15.84	5.895	6.3829999
241	1	9	0.079397999	15.11	5.0879998	6.6110001
242	1	9	0.079397999	15.283	6.855	6.3319998
243	1	9	0.079397999	16.271999	5.6750002	5.3839998
244	1	1	-0.133653	17.785999	4.6599998	7.355
245	1	9	0.079397999	17.143999	3.7539999	7.329
246	1	9	0.079397999	18.377001	4.6700001	6.4130001
247	1	9	0.079397999	18.497999	4.572	8.2040005
248	1	8	0.200867	16.426001	4.0619998	9.4689999
249	1	8	0.214366	15.229	4.381	11.617
250	1	7	0.099841997	13.308	4.8429999	13.089
251	1	7	0.099841997	14.886	5.29	13.853
252	1	10	-0.458543	29.663	12.396	15.787
253	1	11	0.33278501	29.778999	12.071	14.801
254	1	1	0.029021	30.458	13.607	15.993
255	1	1	-0.14133701	29.900999	14.815	15.219
256	1	1	-0.138071	30.031	14.648	13.695
257	1	1	-0.137724	29.733	15.949	12.932
258	1	1	-0.136483	28.253	16.353001	13.008
259	1	1	-0.136483	27.971001	17.568001	12.112
260	1	1	-0.136483	26.541	18.114	12.277
261	1	1	-0.136483	25.416	17.120001	11.924
262	1	1	-0.137724	25.493	16.516001	10.51
263	1	1	-0.138071	25.379	17.577	9.4020004
264	1	1	-0.14133701	25.399	16.962999	7.993
265	1	1	0.029021	24.08	16.27	7.6279998
266	1	10	-0.458543	24.122	15.81	6.244
267	1	11	0.33278501	24.09	16.648001	5.619
268	1	7	0.067864001	23.92	15.392	8.29
269	1	7	0.067864001	23.228001	16.974001	7.763
270	1	9	0.096198998	26.240999	16.240999	7.9039998
271	1	9	0.096198998	25.580999	17.782	7.263
272	1	9	0.094764002	24.454	18.177999	9.54
273	1	9	0.094764002	26.246	18.268	9.474
274	1	9	0.093943	26.431	15.935	10.389
275	1	9	0.093943	24.652	15.797	10.417
276	1	9	0.093943	25.413	16.292	12.665
277	1	9	0.093943	24.441	17.642	12.037
278	1	9	0.093943	26.433001	19.028999	11.658
279	1	9	0.093943	26.403	18.434999	13.333
280	1	9	0.093943	28.164	17.313	11.048
281	1	9	0.093943	28.676001	18.384001	12.382
282	1	9	0.093943	27.99	16.608999	14.056
283	1	9	0.093943	27.628	15.496	12.679
284	1	9	0.093943	30.007999	15.79	11.866
285	1	9	0.093943	30.371	16.77	13.325
286	1	9	0.094764002	31.070999	14.339	13.451
287	1	9	0.094764002	29.347	13.849	13.338
288	1	9	0.096198998	30.469999	15.716	15.537
289	1	9	0.096198998	28.837	14.969	15.498
290	1	7	0.067864001	31.513	13.415	15.697
291	1	7	0.067864001	30.457001	13.849	17.077
292	1	1	0.14876901	25.452	10.722	15.225
293	1	2	-0.69607902	25.719999	9.5670004	15.982
294	1	3	0.416848	26.665001	9.309	15.816
295	1	1	0.088872999	26.271	11.914	15.746
296	1	4	-0.483403	27.667	11.684	15.57
297	1	5	0.79052001	28.635	12.618	15.944
298	1	6	-0.58042902	28.309999	13.718	16.465
299	1	7	0.111253	26.052999	12.061	16.827
300	1	7	0.111253	25.973	12.838	15.203
301	1	7	0.101437	24.375999	10.968	15.362
302	1	1	0.053789001	25.686001	10.459	13.729
303	1	4	-0.397856	25.268999	11.59	12.967
304	1	5	0.19627801	25.361	11.694	11.57
305	1	5	-0.36454001	25.844	10.704	10.796
306	1	5	-0.152006	25.927999	10.873	9.3299999
307	1	5	-0.27230099	25.546	12.029	8.7410002
308	1	5	-0.152006	24.981001	13.101	9.6090002
309	1	5	-0.36454001	24.902	12.944	10.935
310	1	8	0.214366	24.495001	13.738	11.548
311	1	8	0.200867	24.628	14.026	9.1700001
312	1	1	0.0036780001	25.589001	12.255	7.2189999
313	1	5	-0.27230099	26.195999	13.641	6.9359999
314	1	5	-0.152006	25.655001	14.528	6.0710001
315	1	5	-0.36454001	26.292999	15.839	5.829
316	1	5	0.19627801	27.441999	16.164	6.4499998
317	1	5	-0.36454001	28.061001	15.19	7.369
318	1	5	-0.152006	27.483999	14.005	7.5949998
319	1	8	0.200867	27.964001	13.308	8.2690001
320	1	8	0.214366	28.993	15.437	7.862
321	1	4	-0.397856	28.084	17.398001	6.2620001
322	1	1	0.053789001	27.6	18.448999	5.4289999
323	1	1	0.14876901	28.563999	19.642	5.493
324	1	2	-0.69607902	28.726999	20.075001	6.8200002
325	1	3	0.416848	27.834	20.347	7.1589999
326	1	1	0.088872999	28.084999	20.792	4.592
327	1	4	-0.483403	29.065001	21.829	4.5310001
328	1	5	0.79052001	29.160999	22.861	5.4699998
329	1	6	-0.58042902	28.320999	22.979	6.401
330	1	7	0.111253	27.107	21.194	4.9400001
331	1	7	0.111253	27.937	20.403999	3.5610001
332	1	7	0.101437	29.554001	19.301001	5.118
333	1	7	0.099841997	27.532	18.086	4.3800001
334	1	7	0.099841997	26.59	18.763	5.7729998
335	1	8	0.214366	25.812	16.521999	5.1430001
336	1	8	0.200867	24.743	14.32	5.5320001
337	1	1	-0.133653	24.136999	12.104	6.704
338	1	9	0.079397999	23.712	11.128	7.0240002
339	1	9	0.079397999	23.486	12.909	7.1079998
340	1	9	0.079397999	24.097	12.131	5.5929999
341	1	1	-0.133653	26.466	11.222	6.4699998
342	1	9	0.079397999	26.018	10.206	6.5079999
343	1	9	0.079397999	26.558001	11.499	5.3969998
344	1	9	0.079397999	27.489	11.181	6.902
345	1	8	0.200867	26.309999	10.038	8.7620001
346	1	8	0.214366	26.181999	9.7709999	11.223
347	1	7	0.099841997	25.091	9.5710001	13.423
348	1	7	0.099841997	26.761999	10.254	13.542
349	1	10	-0.458543	39.632999	20.200001	10.715
350	1	11	0.33278501	39.335999	20.052	9.724
351	1	1	0.029021	40.254002	21.518999	10.841
352	1	1	-0.14133701	39.241001	22.664	10.665
353	1	1	-0.138071	38.689999	22.747999	9.2309999
354	1	1	-0.137724	37.896999	24.040001	8.9779997
355	1	1	-0.136483	36.570999	24.080999	9.7510004
356	1	1	-0.136483	35.743999	25.313	9.3559999
357	1	1	-0.136483	34.481998	25.49	10.22
358	1	1	-0.136483	33.473999	24.325001	10.151
359	1	1	-0.137724	32.987999	23.959999	8.7360001
360	1	1	-0.138071	32.236	25.112	8.0480003
361	1	1	-0.14133701	31.702999	24.722	6.6599998
362	1	1	0.029021	30.476	23.805	6.73
363	1	10	-0.458543	29.952999	23.566	5.388
364	1	11	0.33278501	29.521999	24.454	5.0419998
365	1	7	0.067864001	30.759001	22.83	7.1789999
366	1	7	0.067864001	29.687	24.27	7.362
367	1	9	0.096198998	32.507	24.232	6.0669999
368	1	9	0.096198998	31.417	25.656	6.1269999
369	1	9	0.094764002	31.398001	25.459999	8.691
370	1	9	0.094764002	32.931999	25.965	7.908
371	1	9	0.093943	33.841999	23.629999	8.1079998
372	1	9	0.093943	32.307999	23.087999	8.8400002
373	1	9	0.093943	33.924	23.422001	10.617
374	1	9	0.093943	32.591999	24.589001	10.774
375	1	9	0.093943	33.977001	26.434	9.927
376	1	9	0.093943	34.792	25.618999	11.28
377	1	9	0.093943	35.470001	25.261	8.2810001
378	1	9	0.093943	36.370998	26.223	9.4860001
379	1	9	0.093943	36.777	24.120001	10.842
380	1	9	0.093943	35.993999	23.159	9.5270004
381	1	9	0.093943	37.68	24.1	7.888
382	1	9	0.093943	38.52	24.922001	9.2449999
383	1	9	0.094764002	39.539001	22.722	8.5139999
384	1	9	0.094764002	38.040001	21.871	9.0190001
385	1	9	0.096198998	39.757	23.617001	10.913
386	1	9	0.096198998	38.409	22.531	11.388
387	1	7	0.067864001	41.076	21.615999	10.098
388	1	7	0.067864001	40.709	21.6	11.851
389	1	1	0.14876901	35.910999	17.705	11.591
390	1	2	-0.69607902	36.653	16.548	11.884
391	1	3	0.416848	37.446999	16.538	11.287
392	1	1	0.088872999	36.696999	18.968	11.98
393	1	4	-0.483403	37.879002	19.089001	11.192
394	1	5	0.79052001	38.768002	20.157	11.331
395	1	6	-0.58042902	38.560001	21.07	12.175
396	1	7	0.111253	36.973	18.907	13.056
397	1	7	0.111253	36.057999	19.865999	11.835
398	1	7	0.101437	34.990002	17.677	12.214
399	1	1	0.053789001	35.477001	17.715	10.117
400	1	4	-0.397856	34.604	18.818001	9.875
401	1	5	0.19627801	34.037998	19.134001	8.6300001
402	1	5	-0.36454001	34.255001	18.4	7.5229998
403	1	5	-0.152006	33.641998	18.788	6.2350001
404	1	5	-0.27230099	32.874001	19.896999	6.138
405	1	5	-0.152006	32.617001	20.68	7.381
406	1	5	-0.36454001	33.168999	20.323	8.5450001
407	1	8	0.214366	32.974998	20.909	9.434
408	1	8	0.200867	31.976	21.552	7.3499999
409	1	1	0.0036780001	32.191002	20.339001	4.8309999
410	1	5	-0.27230099	32.401001	21.853001	4.6440001
411	1	5	-0.152006	31.406	22.705999	4.3080001
412	1	5	-0.36454001	31.672001	24.148001	4.1269999
413	1	5	0.19627801	32.917999	24.636	4.2709999
414	1	5	-0.36454001	34.016998	23.709999	4.6009998
415	1	5	-0.152006	33.779999	22.405001	4.7709999
416	1	8	0.200867	34.608002	21.747999	5.007
417	1	8	0.214366	35.026001	24.091	4.704
418	1	4	-0.397856	33.223	25.997999	4.118
419	1	1	0.053789001	32.269001	27.017	3.8239999
420	1	1	0.14876901	32.977001	28.377001	3.75
421	1	2	-0.69607902	33.66	28.645	4.9499998
422	1	3	0.416848	32.987999	28.655001	5.6810002
423	1	1	0.088872999	31.983999	29.503	3.4170001
424	1	4	-0.483403	32.671001	30.733	3.1919999
425	1	5	0.79052001	33.034	31.618	4.2129998
426	1	6	-0.58042902	32.698002	31.409	5.4089999
427	1	7	0.111253	31.223	29.618	4.2210002
428	1	7	0.111253	31.443001	29.24	2.483
429	1	7	0.101437	33.728001	28.327	2.9319999
430	1	7	0.099841997	31.787001	26.799	2.846
431	1	7	0.099841997	31.490999	27.041	4.618
432	1	8	0.214366	30.84	24.792999	3.878
433	1	8	0.200867	30.389	22.372999	4.165
434	1	1	-0.133653	30.702	19.934999	4.9460001
435	1	9	0.079397999	30.612	18.851999	5.184
436	1	9	0.079397999	30.197001	20.504999	5.7550001
437	1	9	0.079397999	30.16	20.108	3.9909999
438	1	1	-0.133653	32.771999	19.649	3.572
439	1	9	0.079397999	32.540001	18.563	3.5610001
440	1	9	0.079397999	32.328999	20.087999	2.651
441	1	9	0.079397999	33.874001	19.782	3.5179999
442	1	8	0.200867	33.84	18.150999	5.3860002
443	1	8	0.214366	34.879002	17.518	7.5469999
444	1	7	0.099841997	34.941002	16.767	9.8920002
445	1	7	0.099841997	36.368999	17.790001	9.4569998
446	1	10	-0.458543	45.005001	30.707001	3.875
447	1	11	0.33278501	44.316002	30.636	3.092
448	1	1	0.029021	45.419998	32.101002	4.027
449	1	1	-0.14133701	44.285999	32.998001	4.553
450	1	1	-0.138071	43.139999	33.154999	3.539
451	1	1	-0.137724	42.143002	34.254002	3.938
452	1	1	-0.136483	41.32	33.882999	5.1799998
453	1	1	-0.136483	40.237	34.936001	5.4549999
454	1	1	-0.136483	39.492001	34.696999	6.7800002
455	1	1	-0.136483	38.738998	33.354	6.875
456	1	1	-0.137724	37.723	33.09	5.7480001
457	1	1	-0.138071	36.585999	34.125	5.7160001
458	1	1	-0.14133701	35.544998	33.824001	4.6259999
459	1	1	0.029021	34.625999	32.650002	4.9899998
460	1	10	-0.458543	33.592999	32.488998	3.9719999
461	1	11	0.33278501	32.93	33.294998	4.0469999
462	1	7	0.067864001	35.217999	31.712	5.0469999
463	1	7	0.067864001	34.151001	32.828999	5.98
464	1	9	0.096198998	36.054001	33.618	3.6589999
465	1	9	0.096198998	34.918999	34.733002	4.4879999
466	1	9	0.094764002	36.089001	34.179001	6.71
467	1	9	0.094764002	37.014	35.125999	5.4970002
468	1	9	0.093943	38.237999	33.056	4.7649999
469	1	9	0.093943	37.296001	32.081001	5.9239998
470	1	9	0.093943	39.474998	32.521999	6.8930001
471	1	9	0.093943	38.206001	33.32	7.8499999
472	1	9	0.093943	38.779999	35.532001	6.947
473	1	9	0.093943	40.226002	34.743999	7.6149998
474	1	9	0.093943	39.516998	34.974998	4.6110001
475	1	9	0.093943	40.717999	35.937	5.5159998
476	1	9	0.093943	41.988998	33.813	6.0640001
477	1	9	0.093943	40.841999	32.894001	5.013
478	1	9	0.093943	41.451	34.415001	3.0829999
479	1	9	0.093943	42.687	35.208	4.1149998
480	1	9	0.094764002	43.567001	33.424	2.5480001
481	1	9	0.094764002	42.597	32.192001	3.4230001
482	1	9	0.096198998	44.716999	34	4.7729998
483	1	9	0.096198998	43.898998	32.577999	5.506
484	1	7	0.067864001	45.793999	32.487	3.0539999
485	1	7	0.067864001	46.265999	32.140999	4.7459998
486	1	1	0.14876901	42.479	27.33	5.6279998
487	1	2	-0.69607902	43.431	26.344	5.3140001
488	1	3	0.416848	43.860001	26.599001	4.4559999
489	1	1	0.088872999	43.167999	28.671	5.9299998
490	1	4	-0.483403	43.834999	29.169001	4.7719998
491	1	5	0.79052001	44.528	30.381001	4.7680001
492	1	6	-0.58042902	44.596001	31.094999	5.8039999
493	1	7	0.111253	43.905998	28.525	6.7490001
494	1	7	0.111253	42.410999	29.412001	6.2719998
495	1	7	0.101437	41.955002	27.006001	6.553
496	1	1	0.053789001	41.429001	27.448999	4.5120001
497	1	4	-0.397856	40.394001	28.344999	4.9120002
498	1	5	0.19627801	39.287998	28.695999	4.1230001
499	1	5	-0.36454001	39.083	28.194	2.891
500	1	5	-0.152006	37.905998	28.608999	2.099
501	1	5	-0.27230099	37.027	29.516001	2.5840001
502	1	5	-0.152006	37.250999	30.035999	3.964
503	1	5	-0.36454001	38.314999	29.656	4.6789999
504	1	8	0.214366	38.463001	30.051001	5.6760001
505	1	8	0.200867	36.548	30.735001	4.401
506	1	1	0.0036780001	35.771999	29.969999	1.817
507	1	5	-0.27230099	35.655998	31.502001	1.91
508	1	5	-0.152006	34.507	32.144001	2.221
509	1	5	-0.36454001	34.452999	33.618999	2.2780001
510	1	5	0.19627801	35.546001	34.354	1.998
511	1	5	-0.36454001	36.794998	33.666	1.622
512	1	5	-0.152006	36.848999	32.331001	1.574
513	1	8	0.200867	37.778	31.853001	1.288
514	1	8	0.214366	37.674999	34.249001	1.38
515	1	4	-0.397856	35.550999	35.757	2.046
516	1	1	0.053789001	34.432999	36.563	2.414
517	1	1	0.14876901	34.828999	38.044998	2.3640001
518	1	2	-0.69607902	35.933998	38.290001	3.197
519	1	3	0.416848	35.672001	38.043999	4.1230001
520	1	1	0.088872999	33.643002	38.950001	2.7390001
521	1	4	-0.483403	33.971001	40.323002	2.5339999
522	1	5	0.79052001	34.625999	41.115002	3.483
523	1	6	-0.58042902	34.901001	40.668999	4.6290002
524	1	7	0.111253	33.320999	38.773998	3.789
525	1	7	0.111253	32.782001	38.703999	2.0810001
526	1	7	0.101437	35.126999	38.283001	1.319
527	1	7	0.099841997	33.597	36.380001	1.704
528	1	7	0.099841997	34.104	36.296001	3.4430001
529	1	8	0.214366	33.516998	34.085999	2.5510001
530	1	8	0.200867	33.594002	31.611	2.4419999
531	1	1	-0.133653	34.57	29.224001	2.447
532	1	9	0.079397999	34.752998	28.127001	2.447
533	1	9	0.079397999	34.41	29.544001	3.4990001
534	1	9	0.079397999	33.637001	29.400999	1.87
535	1	1	-0.133653	35.812	29.615	0.31099999
536	1	9	0.079397999	35.757999	28.516001	0.152
537	1	9	0.079397999	34.943001	30.066	-0.21600001
538	1	9	0.079397999	36.738998	30.002001	-0.16500001
539	1	8	0.200867	37.785999	28.16	1.125
540	1	8	0.214366	39.769001	27.483	2.4519999
541	1	7	0.099841997	40.991001	26.444	4.3210001
542	1	7	0.099841997	41.905998	27.816999	3.5769999
543	1	10	-0.458543	45.143002	43.015999	-1.997
544	1	11	0.33278501	44.193001	42.901001	-2.4170001
545	1	1	0.029021	45.377998	44.432999	-1.719
546	1	1	-0.14133701	44.490002	44.965	-0.58099997
547	1	1	-0.138071	43	44.995998	-0.963
548	1	1	-0.137724	42.146	45.771999	0.052999999
549	1	1	-0.136483	42.035999	45.051998	1.405
550	1	1	-0.136483	41.056999	45.780998	2.336
551	1	1	-0.136483	41.035	45.194	3.7590001
552	1	1	-0.136483	40.605999	43.715	3.8499999
553	1	1	-0.137724	39.240002	43.388	3.22
554	1	1	-0.138071	38.076	44.130001	3.9000001
555	1	1	-0.14133701	36.709	43.755001	3.3039999
556	1	1	0.029021	36.233002	42.363998	3.74
557	1	10	-0.458543	34.884998	42.116001	3.2360001
558	1	11	0.33278501	34.221001	42.730999	3.7609999
559	1	7	0.067864001	36.912998	41.587002	3.3310001
560	1	7	0.067864001	36.237	42.287998	4.8509998
561	1	9	0.096198998	36.75	43.808998	2.194
562	1	9	0.096198998	35.966	44.507	3.6489999
563	1	9	0.094764002	38.081001	43.929001	4.994
564	1	9	0.094764002	38.210999	45.223	3.756
565	1	9	0.093943	39.252998	43.611	2.1329999
566	1	9	0.093943	39.087002	42.292999	3.3239999
567	1	9	0.093943	41.381001	43.078999	3.372
568	1	9	0.093943	40.583	43.424	4.9229999
569	1	9	0.093943	40.363998	45.813	4.3920002
570	1	9	0.093943	42.050999	45.289001	4.1989999
571	1	9	0.093943	40.035999	45.772999	1.901
572	1	9	0.093943	41.366001	46.847	2.4170001
573	1	9	0.093943	43.035	45.013	1.89
574	1	9	0.093943	41.681	44.013	1.232
575	1	9	0.093943	41.126999	45.889999	-0.37599999
576	1	9	0.093943	42.569	46.791	0.199
577	1	9	0.094764002	42.889999	45.493	-1.952
578	1	9	0.094764002	42.606998	43.960999	-1.057
579	1	9	0.096198998	44.826	45.997002	-0.33899999
580	1	9	0.096198998	44.639999	44.338001	0.32300001
581	1	7	0.067864001	45.212002	45.027	-2.645
582	1	7	0.067864001	46.443001	44.563999	-1.429
583	1	1	0.14876901	44.193001	38.941002	-0.17
584	1	2	-0.69607902	45.029999	38.251999	-1.066
585	1	3	0.416848	44.984001	38.716	-1.942
586	1	1	0.088872999	44.744999	40.347	0.114
587	1	4	-0.483403	44.737999	41.141998	-1.0700001
588	1	5	0.79052001	45.173	42.469002	-1.087
589	1	6	-0.58042902	45.601002	43.026001	-0.039999999
590	1	7	0.111253	45.785999	40.258999	0.495
591	1	7	0.111253	44.127998	40.84	0.898
592	1	7	0.101437	44.195999	38.377998	0.78899997
593	1	1	0.053789001	42.747002	38.972	-0.69
594	1	4	-0.397856	41.889	39.542999	0.29699999
595	1	5	0.19627801	40.507999	39.740002	0.141
596	1	5	-0.36454001	39.841999	39.382999	-0.97299999
597	1	5	-0.152006	38.389	39.625	-1.086
598	1	5	-0.27230099	37.705002	40.23	-0.088
599	1	5	-0.152006	38.452	40.588001	1.152
600	1	5	-0.36454001	39.765999	40.363998	1.253
601	1	8	0.214366	40.291	40.638	2.1589999
602	1	8	0.200867	37.931999	41.040001	1.988
603	1	1	0.0036780001	36.188	40.487999	-0.139
604	1	5	-0.27230099	35.91	41.925999	0.33899999