Title

104 atoms
107 bonds
190 angles
303 dihedrals
78 impropers

9 atom types
13 bond types
6 angle types
13 dihedral types
2 improper types
-11.88399982 88.11600018 xlo xhi
-7.572000027 92.42799997 ylo yhi
-4.021999836 95.97800016 zlo zhi
0.0 0.0 0.0 xy xz yz

Masses

1	15.99943
2	12.01078
3	1.007947
4	12.01078
5	1.007947
6	15.99943
7	15.99943
8	1.007947
9	35.4532


Pair Coeffs

1	0.16846514	3.0251065
2	0.086879315	3.4806469
3	0.015611343	2.5725815
4	0.10884061	3.3795318
5	0.015779483	2.6445434
6	0.2102061	3.0398122
7	0.20947353	2.99716
8	1.2326e-05	0.53453923
9	0.2656001	3.3075278

Bond Coeffs

1 harmonic	425.69104206635	1.362945806494
2 harmonic	300.03137914615	1.451203938761
3 harmonic	360.7852444772	1.387193227181
4 harmonic	397.2545789619	1.085358495916
5 harmonic	289.73813263395	1.498646816465
6 harmonic	264.62148576755	1.52190126495
7 harmonic	301.15400723785	1.345741232799
8 harmonic	370.04670688625	1.093899492634
9 harmonic	582.698766451	1.225198386222
10 harmonic	279.1350963404	1.454628925034
11 harmonic	385.7604595587	1.369745182308
12 harmonic	543.5267831885	0.9716763312559
13 harmonic	218.0227703685	1.746066037062


Angle Coeffs

1 harmonic	57.8982893754	126.8062420451
2 harmonic	65.09061609600001	110.3538806181
3 harmonic	34.066775159195	129.1835929926
4 harmonic	53.20531626545	116.5475862634
5 harmonic	201.41175231035	127.4691416191
6 harmonic	48.776492647595	115.6030999533


Dihedral Coeffs

1 fourier 1	3.661930099076	2	180
2 fourier 1	1.532232714475	2	180
3 fourier 1	0.457973137376	1	0
4 fourier 1	0.02664938770063	3	0
5 fourier 1	0.1155372516788	3	0
6 fourier 1	0.09223874044423	3	0
7 fourier 1	0.3159935921949	2	180
8 fourier 1	0.3247796806857	1	180
9 fourier 1	0.1040663847541	3	0
10 fourier 1	2.779853741805	2	180
11 fourier 1	0.9974165607242	2	180
12 fourier 1	0.1911926717192	3	0
13 fourier 1	0.8283030590042	2	180


Improper Coeffs

1 0.3666666666666667	-1	2
2 3.5	-1	2


Atoms

1	1	1	-0.034768999	-2.4779999	-0.81900001	5.276
2	1	2	0.26696	-1.825	-0.63999999	4.059
3	1	2	-0.32867801	-1.449	0.58499998	3.681
4	1	3	0.219175	-1.6440001	1.437	4.3210001
5	1	2	-0.15905499	-0.75599998	0.78899997	2.392
6	1	3	0.20448899	-0.428	1.7920001	2.1659999
7	1	2	-0.25971001	-0.54699999	-0.243	1.54
8	1	4	0.021713	0.244	-0.086000003	0.219
9	1	2	-0.25971001	-0.31900001	-1.086	-0.82800001
10	1	2	-0.162195	0.463	-1.859	-1.62
11	1	3	0.20448899	1.536	-1.864	-1.5470001
12	1	2	-0.28074899	-0.126	-2.7739999	-2.619
13	1	3	0.219576	0.52600002	-3.375	-3.24
14	1	2	0.430145	-1.452	-2.8629999	-2.757
15	1	1	-0.444913	-1.994	-3.727	-3.704
16	1	2	-0.28074899	-2.3299999	-2.0439999	-1.9
17	1	3	0.219577	-3.405	-2.1210001	-1.998
18	1	2	-0.162195	-1.802	-1.214	-0.99400002
19	1	3	0.20448899	-2.473	-0.64200002	-0.36700001
20	1	4	-0.124075	0.149	1.363	-0.38600001
21	1	4	-0.13798399	-1.273	1.891	-0.67199999
22	1	4	-0.1363	-1.252	3.4000001	-0.94700003
23	1	4	-0.121314	-2.648	3.921	-1.275
24	1	5	0.064168997	-3.046	3.4170001	-2.1819999
25	1	5	0.064168997	-3.3369999	3.7379999	-0.42199999
26	1	5	0.064168997	-2.602	5.013	-1.466
27	1	5	0.087407	-0.57700002	3.615	-1.8049999
28	1	5	0.087407	-0.86900002	3.9389999	-0.052999999
29	1	5	0.096809998	-1.952	1.6950001	0.183
30	1	5	0.096809998	-1.679	1.38	-1.5700001
31	1	5	0.101084	0.69099998	1.3890001	-1.3559999
32	1	5	0.101084	0.68199998	2.0769999	0.278
33	1	4	-0.124075	1.738	-0.39300001	0.61799997
34	1	4	-0.13798399	2.8380001	0.178	-0.30899999
35	1	4	-0.1363	4.1939998	-0.47799999	-0.021
36	1	4	-0.121314	5.2919998	0.115	-0.89899999
37	1	5	0.064168997	5.0560002	-0.045000002	-1.973
38	1	5	0.064168997	6.2589998	-0.38100001	-0.67000002
39	1	5	0.064168997	5.3959999	1.204	-0.70499998
40	1	5	0.087407	4.1290002	-1.571	-0.21799999
41	1	5	0.087407	4.4640002	-0.32699999	1.046
42	1	5	0.096809998	2.9289999	1.272	-0.132
43	1	5	0.096809998	2.5869999	0.035	-1.3789999
44	1	5	0.101084	1.947	0.033	1.626
45	1	5	0.101084	1.865	-1.492	0.73500001
46	1	2	-0.15905499	-0.92299998	-1.613	2.0120001
47	1	3	0.20448899	-0.69199997	-2.4809999	1.408
48	1	2	-0.32867801	-1.535	-1.794	3.187
49	1	3	0.219175	-1.804	-2.7939999	3.506
50	1	2	0.62565601	-3.0320001	-3.8139999	-3.8280001
51	1	6	-0.51391399	-3.7079999	-2.8180001	-4.0219998
52	1	1	-0.034768999	-2.77	-1.739	5.5840001
53	1	2	0.26696	-3.9489999	-1.919	6.302
54	1	2	-0.32867801	-4.3070002	-3.1440001	6.698
55	1	3	0.219175	-3.678	-3.9949999	6.4679999
56	1	2	-0.15905499	-5.5560002	-3.348	7.4590001
57	1	3	0.20448899	-5.7639999	-4.3509998	7.7989998
58	1	2	-0.25971001	-6.395	-2.3150001	7.7140002
59	1	4	0.021713	-7.671	-2.4719999	8.5760002
60	1	2	-0.25971001	-8.7480001	-1.473	8.0710001
61	1	2	-0.118023	-9.4960003	-0.69999999	8.8950005
62	1	3	0.20448899	-9.3640003	-0.69400001	9.9619999
63	1	2	-0.41879201	-10.525	0.215	8.3599997
64	1	3	0.22407299	-11.11	0.81599998	9.0450001
65	1	2	0.41933	-10.735	0.30399999	7.0440001
66	1	7	-0.65345401	-11.71	1.169	6.5539999
67	1	8	0.42986801	-11.884	1.252	5.559
68	1	2	-0.41879201	-9.9259996	-0.514	6.1209998
69	1	3	0.22407299	-10.083	-0.43700001	5.052
70	1	2	-0.118023	-8.9940004	-1.345	6.599
71	1	3	0.20448899	-8.4040003	-1.916	5.895
72	1	4	-0.124075	-8.2810001	-3.921	8.5139999
73	1	4	-0.13798399	-8.6429996	-4.4499998	7.1100001
74	1	4	-0.1363	-8.9169998	-5.9580002	7.1459999
75	1	4	-0.121314	-9.3199997	-6.4790001	5.7690001
76	1	5	0.064168997	-10.247	-5.9759998	5.4219999
77	1	5	0.064168997	-8.5059996	-6.2969999	5.0349998
78	1	5	0.064168997	-9.5089998	-7.572	5.8260002
79	1	5	0.087407	-9.7370005	-6.1739998	7.8660002
80	1	5	0.087407	-8.0039997	-6.4970002	7.4790001
81	1	5	0.096809998	-7.8270001	-4.2540002	6.3850002
82	1	5	0.096809998	-9.5620003	-3.9389999	6.7529998
83	1	5	0.101084	-9.2200003	-3.948	9.1079998
84	1	5	0.101084	-7.5890002	-4.6360002	9.0100002
85	1	4	-0.124075	-7.1919999	-2.1659999	10.046
86	1	4	-0.13798399	-8.0579996	-2.7360001	11.195
87	1	4	-0.1363	-7.697	-2.0799999	12.533
88	1	4	-0.121314	-8.5139999	-2.6730001	13.677
89	1	5	0.064168997	-9.599	-2.513	13.5
90	1	5	0.064168997	-8.2329998	-2.178	14.63
91	1	5	0.064168997	-8.3140001	-3.7620001	13.77
92	1	5	0.087407	-7.8969998	-0.98799998	12.479
93	1	5	0.087407	-6.6170001	-2.2309999	12.745
94	1	5	0.096809998	-7.8759999	-3.8299999	11.276
95	1	5	0.096809998	-9.1400003	-2.5940001	11.002
96	1	5	0.101084	-6.1739998	-2.592	10.2
97	1	5	0.101084	-7.0679998	-1.066	10.166
98	1	2	-0.15905499	-5.9450002	-0.94599998	7.3140001
99	1	3	0.20448899	-6.5349998	-0.077	7.5770001
100	1	2	-0.32867801	-4.8049998	-0.764	6.6389999
101	1	3	0.219175	-4.5009999	0.235	6.3530002
102	1	2	0.46533501	-3.5039999	-4.789	-3.7850001
103	1	6	-0.59584498	-2.8199999	-5.7930002	-3.6800001
104	1	9	-0.094379999	-5.25	-4.9229999	-3.8659999

Bonds

1	1	1	2
2	2	1	52
3	3	2	3
4	3	2	48
5	4	3	4
6	3	3	5
7	4	5	6
8	3	5	7
9	5	7	8
10	3	7	46
11	5	8	9
12	6	8	20
13	6	8	33
14	3	9	10
15	3	9	18
16	4	10	11
17	3	10	12
18	4	12	13
19	3	12	14
20	1	14	15
21	3	14	16
22	7	15	50
23	4	16	17
24	3	16	18
25	4	18	19
26	6	20	21
27	8	20	31
28	8	20	32
29	6	21	22
30	8	21	29
31	8	21	30
32	6	22	23
33	8	22	27
34	8	22	28
35	8	23	24
36	8	23	25
37	8	23	26
38	6	33	34
39	8	33	44
40	8	33	45
41	6	34	35
42	8	34	42
43	8	34	43
44	6	35	36
45	8	35	40
46	8	35	41
47	8	36	37
48	8	36	38
49	8	36	39
50	4	46	47
51	3	46	48
52	4	48	49
53	9	50	51
54	10	50	102
55	1	52	53
56	3	53	54
57	3	53	100
58	4	54	55
59	3	54	56
60	4	56	57
61	3	56	58
62	5	58	59
63	3	58	98
64	5	59	60
65	6	59	72
66	6	59	85
67	3	60	61
68	3	60	70
69	4	61	62
70	3	61	63
71	4	63	64
72	3	63	65
73	11	65	66
74	3	65	68
75	12	66	67
76	4	68	69
77	3	68	70
78	4	70	71
79	6	72	73
80	8	72	83
81	8	72	84
82	6	73	74
83	8	73	81
84	8	73	82
85	6	74	75
86	8	74	79
87	8	74	80
88	8	75	76
89	8	75	77
90	8	75	78
91	6	85	86
92	8	85	96
93	8	85	97
94	6	86	87
95	8	86	94
96	8	86	95
97	6	87	88
98	8	87	92
99	8	87	93
100	8	88	89
101	8	88	90
102	8	88	91
103	4	98	99
104	3	98	100
105	4	100	101
106	9	102	103
107	13	102	104

Angles

1	4	73	74	75
2	5	15	50	51
3	1	59	60	70
4	3	2	3	4
5	4	58	59	85
6	4	34	33	44
7	2	2	1	52
8	3	2	48	49
9	4	75	74	79
10	6	92	87	93
11	4	72	73	81
12	3	60	70	71
13	4	20	21	22
14	1	5	7	46
15	4	74	75	77
16	4	86	87	88
17	1	2	3	5
18	4	59	72	83
19	4	34	33	45
20	4	7	8	9
21	4	21	22	27
22	4	7	8	33
23	3	9	18	19
24	6	76	75	77
25	4	21	20	31
26	6	42	34	43
27	4	73	74	79
28	1	52	53	54
29	2	65	66	67
30	4	72	73	82
31	3	46	48	49
32	2	14	15	50
33	4	21	22	23
34	4	59	85	86
35	4	8	33	44
36	4	35	36	38
37	4	22	23	24
38	1	2	48	46
39	1	12	14	15
40	3	10	12	13
41	4	33	34	42
42	4	74	75	78
43	1	60	70	68
44	2	1	52	53
45	4	20	21	30
46	4	59	72	84
47	3	53	100	101
48	4	87	86	95
49	3	57	56	58
50	3	60	61	62
51	4	73	74	80
52	1	1	2	48
53	4	87	88	89
54	4	22	21	29
55	1	53	54	56
56	6	31	20	32
57	4	72	73	74
58	4	8	20	31
59	3	14	16	17
60	3	4	3	5
61	1	63	65	68
62	4	72	59	85
63	1	8	9	10
64	6	24	23	26
65	3	7	46	47
66	4	23	22	27
67	4	8	33	45
68	4	9	8	20
69	6	40	35	41
70	4	58	59	60
71	3	58	98	99
72	1	59	58	98
73	4	22	23	25
74	1	12	14	16
75	6	83	72	84
76	1	10	12	14
77	4	86	87	92
78	3	65	68	69
79	3	64	63	65
80	3	3	5	6
81	4	60	59	72
82	4	74	73	81
83	1	60	61	63
84	6	94	86	95
85	1	8	9	18
86	4	8	20	32
87	1	14	16	18
88	6	44	33	45
89	4	73	72	83
90	1	58	98	100
91	4	23	22	28
92	3	47	46	48
93	1	53	100	98
94	3	61	63	64
95	4	75	74	80
96	6	77	75	78
97	3	99	98	100
98	4	86	87	93
99	1	65	68	70
100	4	33	34	35
101	3	13	12	14
102	4	35	34	42
103	1	54	53	100
104	4	21	22	28
105	4	59	72	73
106	3	6	5	7
107	4	21	20	32
108	6	76	75	78
109	4	34	35	40
110	3	17	16	18
111	3	62	61	63
112	6	89	88	90
113	4	60	59	85
114	4	36	35	40
115	6	90	88	91
116	1	5	7	8
117	3	9	10	11
118	4	59	85	96
119	4	88	87	92
120	4	58	59	72
121	1	9	18	16
122	4	35	36	39
123	4	86	85	96
124	4	33	34	43
125	4	8	33	34
126	4	34	35	36
127	1	50	102	103
128	1	61	60	70
129	6	96	85	97
130	6	25	23	26
131	4	87	88	90
132	4	22	21	30
133	4	20	8	33
134	4	85	86	94
135	4	88	87	93
136	4	8	20	21
137	1	7	46	48
138	3	54	56	57
139	6	79	74	80
140	1	3	2	48
141	4	22	23	26
142	3	16	18	19
143	4	7	8	20
144	3	11	10	12
145	1	103	102	104
146	1	50	102	104
147	1	3	5	7
148	3	98	100	101
149	3	68	70	71
150	4	74	73	82
151	1	56	58	59
152	1	56	58	98
153	4	87	88	91
154	1	59	60	61
155	4	74	75	76
156	1	1	2	3
157	4	85	86	95
158	4	9	8	33
159	6	29	21	30
160	4	73	72	84
161	1	51	50	102
162	1	54	56	58
163	1	66	65	68
164	6	37	36	38
165	1	61	63	65
166	6	38	36	39
167	1	15	50	102
168	6	81	73	82
169	1	8	7	46
170	4	35	34	43
171	1	63	65	66
172	3	69	68	70
173	4	35	36	37
174	1	15	14	16
175	4	20	21	29
176	6	27	22	28
177	4	85	86	87
178	4	87	86	94
179	6	37	36	39
180	1	10	9	18
181	4	34	35	41
182	6	89	88	91
183	4	36	35	41
184	3	53	54	55
185	4	59	85	97
186	1	9	10	12
187	3	55	54	56
188	6	24	23	25
189	4	86	85	97
190	1	52	53	100

Dihedrals

1	6	33	34	35	36
1	7	33	34	35	36
1	8	33	34	35	36
2	1	63	65	68	70
3	2	3	2	1	52
4	9	88	87	86	95
5	5	9	8	33	44
6	1	61	60	70	71
7	12	39	36	35	40
8	12	28	22	21	30
9	1	60	61	63	65
10	9	21	22	23	24
11	9	75	74	73	82
12	13	67	66	65	68
13	5	60	59	72	83
14	1	55	54	56	57
15	1	61	63	65	66
16	5	7	8	33	44
17	1	8	9	18	19
18	6	8	33	34	35
18	7	8	33	34	35
18	8	8	33	34	35
19	12	38	36	35	40
20	1	62	61	63	65
21	9	31	20	8	33
22	5	7	8	20	21
23	1	3	5	7	8
24	12	25	23	22	27
25	1	53	54	56	57
26	1	64	63	65	68
27	1	9	18	16	17
28	1	54	53	100	101
29	1	15	14	16	17
30	12	37	36	35	41
31	9	85	86	87	92
32	12	89	88	87	93
33	1	13	12	14	15
34	6	72	59	85	86
34	7	72	59	85	86
34	8	72	59	85	86
35	9	86	87	88	90
36	2	1	52	53	54
37	5	9	8	20	31
38	12	91	88	87	92
39	1	47	46	48	49
40	12	95	86	85	96
41	5	9	8	33	45
42	12	39	36	35	41
43	12	78	75	74	79
44	9	8	20	21	30
45	12	43	34	33	45
46	5	58	59	85	86
47	9	20	8	33	44
48	6	85	86	87	88
48	7	85	86	87	88
48	8	85	86	87	88
49	9	34	35	36	37
50	1	55	54	56	58
51	12	79	74	73	81
52	12	29	21	20	31
53	1	8	9	10	11
54	9	59	72	73	81
55	1	6	5	7	46
56	1	53	54	56	58
57	1	63	61	60	70
58	12	76	75	74	80
59	1	59	60	70	68
60	9	8	33	34	43
61	1	11	10	12	13
62	12	77	75	74	79
63	1	10	12	14	15
64	1	62	61	60	70
65	5	58	59	72	84
66	1	69	68	70	71
67	12	95	86	85	97
68	12	78	75	74	80
69	12	41	35	34	42
70	1	5	3	2	48
71	2	16	14	15	50
72	12	80	74	73	81
73	1	4	3	2	48
74	9	20	8	33	45
75	12	82	73	72	84
76	9	83	72	59	85
77	1	2	3	5	7
78	12	40	35	34	42
79	1	8	9	10	12
80	1	4	3	5	7
81	12	27	22	21	29
82	1	3	2	48	49
83	1	66	65	68	70
84	9	73	74	75	76
85	1	8	7	46	47
86	1	58	98	100	101
87	1	10	9	18	19
88	12	77	75	74	80
89	9	33	34	35	41
90	12	90	88	87	92
91	1	52	53	54	55
92	1	56	58	98	99
93	1	12	14	16	17
94	4	56	58	59	60
95	4	9	8	7	46
96	1	59	60	61	63
97	11	15	50	102	103
98	12	41	35	34	43
99	1	65	68	70	71
100	1	12	10	9	18
101	9	32	20	8	33
102	1	53	100	98	58
103	12	24	23	22	27
104	3	2	1	52	53
105	1	11	10	9	18
106	12	30	21	20	31
107	6	59	72	73	74
107	7	59	72	73	74
107	8	59	72	73	74
108	4	18	9	8	33
109	9	73	74	75	77
110	9	21	22	23	25
111	5	9	8	33	34
112	5	60	59	72	84
113	5	7	8	33	45
114	4	5	7	8	9
115	12	90	88	87	93
116	12	38	36	35	41
117	4	5	7	8	33
118	1	52	53	54	56
119	1	56	58	98	100
120	1	12	14	16	18
121	12	25	23	22	28
122	4	33	8	7	46
123	4	58	59	60	61
124	11	15	50	102	104
125	5	60	59	85	96
126	1	3	2	48	46
127	9	85	86	87	93
128	1	15	14	16	18
129	9	23	22	21	29
130	4	72	59	58	98
131	4	20	8	7	46
132	1	13	12	14	16
133	1	1	2	3	4
134	1	60	70	68	69
135	4	10	9	8	20
136	12	24	23	22	28
137	5	9	8	20	32
138	1	8	9	18	16
139	6	21	20	8	33
139	7	21	20	8	33
139	8	21	20	8	33
140	1	54	56	58	59
141	1	54	56	58	98
142	4	60	59	58	98
143	4	61	60	59	72
144	1	56	54	53	100
145	5	9	8	20	21
146	13	63	65	66	67
147	12	91	88	87	93
148	1	1	2	48	49
149	5	58	59	72	73
150	9	21	22	23	26
151	1	9	18	16	14
152	2	12	14	15	50
153	1	54	53	100	98
154	9	34	35	36	38
155	4	7	8	9	18
156	1	2	48	46	7
157	1	60	70	68	65
158	12	79	74	73	82
159	6	72	73	74	75
159	7	72	73	74	75
159	8	72	73	74	75
160	6	20	8	33	34
160	7	20	8	33	34
160	8	20	8	33	34
161	12	92	87	86	94
162	12	93	87	86	94
163	9	74	73	72	83
164	12	94	86	85	96
165	12	29	21	20	32
166	9	59	72	73	82
167	5	60	59	85	97
168	12	81	73	72	83
169	1	2	48	46	47
170	1	9	10	12	13
171	4	70	60	59	72
172	9	59	85	86	94
173	1	1	2	3	5
174	1	11	10	12	14
175	9	22	21	20	31
176	9	84	72	59	85
177	1	10	12	14	16
178	11	51	50	102	103
179	4	56	58	59	72
180	1	64	63	65	66
181	12	80	74	73	82
182	1	6	5	7	8
183	9	34	35	36	39
184	1	61	60	70	68
185	1	59	58	98	99
186	12	92	87	86	95
187	12	40	35	34	43
188	9	87	86	85	96
189	1	3	5	7	46
190	1	63	65	68	69
191	9	88	87	86	94
192	9	36	35	34	42
193	12	27	22	21	30
194	1	9	10	12	14
195	1	1	2	48	46
196	1	52	53	100	101
197	9	20	21	22	27
198	12	28	22	21	29
199	9	59	85	86	95
200	1	8	7	46	48
201	12	26	23	22	27
202	1	60	61	63	64
203	5	7	8	20	31
204	5	60	59	72	73
205	4	7	8	9	10
206	5	7	8	33	34
207	11	51	50	102	104
208	4	58	59	60	70
209	9	72	59	85	96
210	12	37	36	35	40
211	6	20	21	22	23
211	7	20	21	22	23
211	8	20	21	22	23
212	1	17	16	18	19
213	9	72	73	74	79
214	1	10	9	18	16
215	4	70	60	59	85
216	12	30	21	20	32
217	9	36	35	34	43
218	1	57	56	58	59
219	5	58	59	85	96
220	9	73	74	75	78
221	9	35	34	33	44
222	1	57	56	58	98
223	9	86	87	88	89
224	9	8	20	21	29
225	9	20	21	22	28
226	12	43	34	33	44
227	1	55	54	53	100
228	12	26	23	22	28
229	12	42	34	33	44
230	1	59	60	70	71
231	6	59	85	86	87
231	7	59	85	86	87
231	8	59	85	86	87
232	5	7	8	20	32
233	4	56	58	59	85
234	1	61	63	65	68
235	9	72	59	85	97
236	1	52	53	100	98
237	1	14	16	18	19
238	9	23	22	21	30
239	12	76	75	74	79
240	5	60	59	85	86
241	9	8	33	34	42
242	9	72	73	74	80
243	1	53	100	98	99
244	6	73	72	59	85
244	7	73	72	59	85
244	8	73	72	59	85
245	1	5	7	46	47
246	5	58	59	72	83
247	2	14	15	50	51
248	5	58	59	85	97
249	9	35	34	33	45
250	12	82	73	72	83
251	12	42	34	33	45
252	1	99	98	100	101
253	2	1	52	53	100
254	12	93	87	86	95
255	1	2	3	5	6
256	12	94	86	85	97
257	9	74	73	72	84
258	9	86	87	88	91
259	12	81	73	72	84
260	1	4	3	5	6
261	4	10	9	8	33
262	1	66	65	68	69
263	4	85	59	58	98
264	9	75	74	73	81
265	9	22	21	20	32
266	4	61	60	59	85
267	4	18	9	8	20
268	1	5	7	46	48
269	10	14	15	50	102
270	9	33	34	35	40
271	2	48	2	1	52
272	1	62	61	63	64
273	1	7	46	48	49
274	4	5	7	8	20
275	1	59	60	61	62
276	12	89	88	87	92
277	6	8	20	21	22
277	7	8	20	21	22
277	8	8	20	21	22
278	1	59	58	98	100
279	9	87	86	85	97

Impropers

14	1	3	5	2	4
20	1	60	59	61	70
22	1	58	98	56	59
54	1	61	60	62	63
65	1	16	17	18	14
66	1	10	11	12	9
73	1	100	101	53	98
75	1	12	14	10	13
82	1	68	69	70	65
85	1	10	12	9	11
90	1	46	47	48	7
100	1	58	59	98	56
120	1	102	50	103	104
126	1	7	5	8	46
134	1	70	68	71	60
145	1	56	58	54	57
148	1	68	65	69	70
154	1	61	63	60	62
159	1	54	56	53	55
162	1	98	100	58	99
166	1	46	7	47	48
167	1	5	6	7	3
191	1	100	53	98	101
199	1	60	61	70	59
200	1	9	18	8	10
204	1	102	103	104	50
210	1	53	100	52	54
214	1	65	66	68	63
216	1	65	68	63	66
228	1	2	1	3	48
234	1	7	8	46	5
242	1	48	46	49	2
248	1	98	58	99	100
250	1	14	12	15	16
251	1	10	9	11	12
263	1	3	4	5	2
269	1	3	2	4	5
271	1	65	63	66	68
274	1	12	10	13	14
316	1	2	3	48	1
318	1	68	70	65	69
319	1	14	16	12	15
331	1	58	56	59	98
355	1	46	48	7	47
361	1	60	70	59	61
373	1	16	14	17	18
374	1	63	61	64	65
378	1	7	46	5	8
406	1	53	54	100	52
408	1	53	52	54	100
409	1	61	62	63	60
413	2	50	15	51	102
423	1	12	13	14	10
437	1	98	99	100	58
442	1	9	8	10	18
443	1	16	18	14	17
455	1	9	10	18	8
458	1	48	2	46	49
462	1	14	15	16	12
466	2	50	102	15	51
467	1	54	55	56	53
470	1	56	54	57	58
491	1	5	3	6	7
496	1	100	98	101	53
499	1	48	49	2	46
504	1	63	64	65	61
512	1	70	71	60	68
519	1	56	57	58	54
521	1	102	104	50	103
524	1	2	48	1	3
534	1	18	9	16	19
541	1	18	19	9	16
558	1	5	7	3	6
562	1	63	65	61	64
569	2	50	51	102	15
577	1	18	16	19	9
581	1	70	60	68	71
585	1	54	53	55	56
