Title

94 atoms
99 bonds
178 angles
291 dihedrals
78 impropers

9 atom types
13 bond types
6 angle types
13 dihedral types
2 improper types
-6.107999802 93.8920002 xlo xhi
-8.142000198 91.8579998 ylo yhi
-7.777999878 92.22200012 zlo zhi
0.0 0.0 0.0 xy xz yz

Masses

1	15.99943
2	12.01078
3	1.007947
4	12.01078
5	1.007947
6	15.99943
7	15.99943
8	1.007947
9	35.4532


Pair Coeffs

1	0.16846514	3.0251065
2	0.086879315	3.4806469
3	0.015611343	2.5725815
4	0.10884061	3.3795318
5	0.015779483	2.6445434
6	0.2102061	3.0398122
7	0.20947353	2.99716
8	1.2326e-05	0.53453923
9	0.2656001	3.3075278

Bond Coeffs

1 harmonic	425.69104206635	1.362945806494
2 harmonic	300.03137914615	1.451203938761
3 harmonic	360.7852444772	1.387193227181
4 harmonic	397.2545789619	1.085358495916
5 harmonic	289.73813263395	1.498646816465
6 harmonic	264.62148576755	1.52190126495
7 harmonic	301.15400723785	1.345741232799
8 harmonic	370.04670688625	1.093899492634
9 harmonic	582.698766451	1.225198386222
10 harmonic	279.1350963404	1.454628925034
11 harmonic	385.7604595587	1.369745182308
12 harmonic	543.5267831885	0.9716763312559
13 harmonic	218.0227703685	1.746066037062


Angle Coeffs

1 harmonic	57.8982893754	126.8062420451
2 harmonic	65.09061609600001	110.3538806181
3 harmonic	34.066775159195	129.1835929926
4 harmonic	53.20531626545	116.5475862634
5 harmonic	201.41175231035	127.4691416191
6 harmonic	48.776492647595	115.6030999533


Dihedral Coeffs

1 fourier 1	3.661930099076	2	180
2 fourier 1	1.532232714475	2	180
3 fourier 1	0.457973137376	1	0
4 fourier 1	0.02664938770063	3	0
5 fourier 1	0.1155372516788	3	0
6 fourier 1	0.1040663847541	3	0
7 fourier 1	0.09223874044423	3	0
8 fourier 1	0.3159935921949	2	180
9 fourier 1	0.3247796806857	1	180
10 fourier 1	2.779853741805	2	180
11 fourier 1	0.9974165607242	2	180
12 fourier 1	0.1911926717192	3	0
13 fourier 1	0.8283030590042	2	180


Improper Coeffs

1 0.3666666666666667	-1	2
2 3.5	-1	2


Atoms

1	1	1	-0.010498	-5.0050001	-1.428	0.45500001
2	1	2	0.083302997	-3.721	-0.88300002	0.412
3	1	2	-0.24361999	-3.346	-0.043000001	1.382
4	1	3	0.223216	-4.0339999	0.204	2.181
5	1	2	-0.190385	-2.0009999	0.56199998	1.3789999
6	1	3	0.21183801	-1.776	1.2359999	2.1889999
7	1	2	-0.15180901	-1.119	0.28999999	0.391
8	1	4	0.012102	0.31099999	0.87800002	0.32300001
9	1	2	-0.15180901	1.289	-0.31600001	0.32600001
10	1	2	-0.191157	1.268	-1.181	1.364
11	1	3	0.21183801	0.57300001	-1.046	2.1830001
12	1	2	-0.215175	2.1849999	-2.335	1.416
13	1	3	0.22355799	2.1440001	-3.003	2.267
14	1	2	0.30619299	3.059	-2.5510001	0.42500001
15	1	1	-0.41852	3.9319999	-3.6370001	0.479
16	1	2	-0.087128997	3.0999999	-1.627	-0.73500001
17	1	4	-0.13306201	4.1090002	-1.8430001	-1.8279999
18	1	5	0.095449999	5.0910001	-1.434	-1.508
19	1	5	0.095449999	4.2199998	-2.9260001	-2.0409999
20	1	5	0.095449999	3.8	-1.3430001	-2.7709999
21	1	2	-0.307749	2.279	-0.56099999	-0.76800001
22	1	3	0.21280999	2.3499999	0.116	-1.607
23	1	4	-0.13072801	0.71200001	1.808	1.523
24	1	5	0.10703	0.347	1.409	2.4920001
25	1	5	0.10703	1.821	1.79	1.633
26	1	4	-0.130494	0.329	3.3	1.368
27	1	5	0.108587	1.217	3.869	1.0140001
28	1	5	0.108587	0.050999999	3.7149999	2.362
29	1	4	-0.15211201	-0.81599998	3.5480001	0.38
30	1	5	0.111386	-1.7640001	3.161	0.80400002
31	1	5	0.111386	-0.95599997	4.645	0.25999999
32	1	4	-0.130494	-0.56099999	2.918	-1.001
33	1	5	0.108587	-0.163	3.6930001	-1.692
34	1	5	0.108587	-1.5319999	2.576	-1.4220001
35	1	4	-0.13072801	0.42699999	1.735	-0.972
36	1	5	0.10703	0.26199999	1.1210001	-1.883
37	1	5	0.10703	1.456	2.155	-1.041
38	1	2	-0.311948	-1.543	-0.65899998	-0.67900002
39	1	3	0.21280999	-0.83999997	-0.91100001	-1.464
40	1	2	-0.074649997	-2.767	-1.216	-0.68099999
41	1	4	-0.136255	-3.1630001	-2.1719999	-1.772
42	1	5	0.095449999	-2.3469999	-2.325	-2.5109999
43	1	5	0.095449999	-3.4159999	-3.1589999	-1.33
44	1	5	0.095449999	-4.0469999	-1.774	-2.313
45	1	2	0.62774199	3.931	-4.309	1.285
46	1	6	-0.49830899	4.9860001	-4.7090001	1.747
47	1	1	-0.010498	-5.3470001	-2.0699999	-0.248
48	1	2	0.083302997	-4.5219998	-2.615	-1.232
49	1	2	-0.24361999	-5.0539999	-3.4549999	-2.125
50	1	3	0.223216	-6.1079998	-3.7019999	-2.076
51	1	2	-0.190385	-4.223	-4.0599999	-3.1830001
52	1	3	0.21183801	-4.7220001	-4.7340002	-3.859
53	1	2	-0.15180901	-2.902	-3.7880001	-3.2679999
54	1	4	0.012102	-1.966	-4.3759999	-4.3520002
55	1	2	-0.15180901	-1.3660001	-3.181	-5.1240001
56	1	2	-0.151417	-2.1960001	-2.316	-5.7480001
57	1	3	0.21183801	-3.2690001	-2.4519999	-5.7049999
58	1	2	-0.37868401	-1.6720001	-1.163	-6.5009999
59	1	3	0.22803099	-2.3670001	-0.495	-6.994
60	1	2	0.28166699	-0.352	-0.94700003	-6.5780001
61	1	7	-0.63872403	0.14300001	0.14	-7.3000002
62	1	8	0.43528301	-0.47099999	0.78899997	-7.7779999
63	1	2	-0.25978899	0.58600003	-1.8710001	-5.8959999
64	1	4	-0.119235	2.069	-1.655	-6.0170002
65	1	5	0.095449999	2.4219999	-2.0639999	-6.987
66	1	5	0.095449999	2.3050001	-0.57099998	-5.973
67	1	5	0.095449999	2.6199999	-2.155	-5.1919999
68	1	2	-0.272742	0.106	-2.937	-5.2290001
69	1	3	0.21280999	0.81	-3.6129999	-4.7680001
70	1	4	-0.13072801	-2.664	-5.3060002	-5.408
71	1	5	0.10703	-3.652	-4.9070001	-5.7179999
72	1	5	0.10703	-2.0669999	-5.2880001	-6.348
73	1	4	-0.130494	-2.779	-6.7979999	-5.0100002
74	1	5	0.108587	-1.952	-7.3670001	-5.4910002
75	1	5	0.108587	-3.7320001	-7.2129998	-5.4039998
76	1	4	-0.15211201	-2.7060001	-7.046	-3.5
77	1	5	0.111386	-3.6240001	-6.6589999	-3.0150001
78	1	5	0.111386	-2.698	-8.1420002	-3.3150001
79	1	4	-0.130494	-1.461	-6.4159999	-2.849
80	1	5	0.108587	-0.67199999	-7.191	-2.737
81	1	5	0.108587	-1.728	-6.073	-1.826
82	1	4	-0.13072801	-0.875	-5.2329998	-3.645
83	1	5	0.10703	-0.259	-4.619	-2.9530001
84	1	5	0.10703	-0.186	-5.6529999	-4.4130001
85	1	2	-0.311948	-2.3199999	-2.839	-2.2739999
86	1	3	0.21280999	-1.2690001	-2.5869999	-2.3440001
87	1	2	-0.074649997	-3.0739999	-2.2809999	-1.309
88	1	4	-0.136255	-2.4579999	-1.325	-0.32499999
89	1	5	0.095449999	-1.373	-1.173	-0.51300001
90	1	5	0.095449999	-2.9619999	-0.33899999	-0.39899999
91	1	5	0.095449999	-2.5769999	-1.723	0.704
92	1	2	0.46730199	2.9909999	-4.6479998	1.707
93	1	6	-0.57453299	1.938	-4.1820002	1.304
94	1	9	-0.084201999	2.984	-5.8670001	2.967

Bonds

1	1	1	2
2	2	1	47
3	3	2	3
4	3	2	40
5	4	3	4
6	3	3	5
7	4	5	6
8	3	5	7
9	5	7	8
10	3	7	38
11	5	8	9
12	6	8	23
13	6	8	35
14	3	9	10
15	3	9	21
16	4	10	11
17	3	10	12
18	4	12	13
19	3	12	14
20	1	14	15
21	3	14	16
22	7	15	45
23	5	16	17
24	3	16	21
25	8	17	18
26	8	17	19
27	8	17	20
28	4	21	22
29	8	23	24
30	8	23	25
31	6	23	26
32	8	26	27
33	8	26	28
34	6	26	29
35	8	29	30
36	8	29	31
37	6	29	32
38	8	32	33
39	8	32	34
40	6	32	35
41	8	35	36
42	8	35	37
43	4	38	39
44	3	38	40
45	5	40	41
46	8	41	42
47	8	41	43
48	8	41	44
49	9	45	46
50	10	45	92
51	1	47	48
52	3	48	49
53	3	48	87
54	4	49	50
55	3	49	51
56	4	51	52
57	3	51	53
58	5	53	54
59	3	53	85
60	5	54	55
61	6	54	70
62	6	54	82
63	3	55	56
64	3	55	68
65	4	56	57
66	3	56	58
67	4	58	59
68	3	58	60
69	11	60	61
70	3	60	63
71	12	61	62
72	5	63	64
73	3	63	68
74	8	64	65
75	8	64	66
76	8	64	67
77	4	68	69
78	8	70	71
79	8	70	72
80	6	70	73
81	8	73	74
82	8	73	75
83	6	73	76
84	8	76	77
85	8	76	78
86	6	76	79
87	8	79	80
88	8	79	81
89	6	79	82
90	8	82	83
91	8	82	84
92	4	85	86
93	3	85	87
94	5	87	88
95	8	88	89
96	8	88	90
97	8	88	91
98	9	92	93
99	13	92	94

Angles

1	1	5	7	8
2	1	8	9	21
3	4	71	70	73
4	4	74	73	76
5	1	5	7	38
6	1	2	3	5
7	1	15	45	92
8	3	56	58	59
9	4	53	54	82
10	3	11	10	12
11	6	65	64	66
12	6	80	79	81
13	4	79	82	83
14	4	28	26	29
15	4	26	29	30
16	2	1	47	48
17	4	87	88	89
18	1	12	14	15
19	1	48	87	85
20	4	78	76	79
21	4	8	35	32
22	3	57	56	58
23	4	24	23	26
24	1	1	2	40
25	4	29	32	35
26	1	14	16	17
27	4	63	64	67
28	4	26	29	31
29	1	1	2	3
30	4	87	88	90
31	6	33	32	34
32	4	76	79	81
33	1	55	68	63
34	3	59	58	60
35	4	77	76	79
36	4	73	76	77
37	1	48	49	51
38	4	23	26	28
39	5	15	45	46
40	6	18	17	20
41	4	8	23	24
42	4	16	17	19
43	1	61	60	63
44	6	83	82	84
45	3	86	85	87
46	1	9	10	12
47	3	16	21	22
48	4	31	29	32
49	4	16	17	18
50	4	33	32	35
51	1	3	2	40
52	4	76	79	82
53	1	2	40	41
54	1	49	51	53
55	1	47	48	49
56	6	66	64	67
57	3	63	68	69
58	4	8	35	36
59	4	23	26	29
60	4	40	41	43
61	6	42	41	43
62	4	8	23	25
63	4	16	17	20
64	6	27	26	28
65	1	58	60	61
66	1	56	55	68
67	4	70	73	74
68	1	9	21	16
69	1	56	58	60
70	3	9	21	22
71	6	65	64	67
72	4	80	79	82
73	2	2	1	47
74	4	9	8	35
75	4	79	82	84
76	6	89	88	90
77	2	14	15	45
78	4	7	8	23
79	4	8	35	37
80	4	25	23	26
81	4	54	70	71
82	4	63	64	65
83	1	93	92	94
84	1	12	14	16
85	1	2	40	38
86	4	55	54	70
87	1	8	7	38
88	2	60	61	62
89	4	70	73	75
90	1	38	40	41
91	4	7	8	35
92	4	32	35	36
93	4	54	82	83
94	3	52	51	53
95	1	51	53	85
96	3	55	56	57
97	4	26	29	32
98	3	7	38	39
99	4	55	54	82
100	4	87	88	91
101	3	3	5	6
102	3	10	12	13
103	1	45	92	93
104	4	54	82	79
105	6	30	29	31
106	4	73	76	78
107	4	34	32	35
108	4	9	8	23
109	6	19	17	20
110	1	17	16	21
111	1	60	63	68
112	3	53	85	86
113	1	54	53	85
114	3	55	68	69
115	6	43	41	44
116	6	71	70	72
117	3	4	3	5
118	1	85	87	88
119	3	2	3	4
120	1	60	63	64
121	1	10	12	14
122	1	51	53	54
123	4	30	29	32
124	4	73	76	79
125	4	29	32	33
126	1	54	55	68
127	4	7	8	9
128	4	40	41	44
129	1	53	85	87
130	4	72	70	73
131	6	42	41	44
132	4	8	23	26
133	1	8	9	10
134	4	27	26	29
135	6	36	35	37
136	3	39	38	40
137	1	15	14	16
138	1	64	63	68
139	4	81	79	82
140	6	24	23	25
141	1	46	45	92
142	3	13	12	14
143	6	89	88	91
144	4	29	32	34
145	4	54	70	72
146	4	63	64	66
147	4	76	79	80
148	1	58	60	63
149	3	50	49	51
150	6	77	76	78
151	3	48	49	50
152	1	49	48	87
153	4	53	54	55
154	4	23	26	27
155	4	70	73	76
156	4	70	54	82
157	1	54	55	56
158	6	18	17	19
159	4	54	82	84
160	4	32	35	37
161	6	74	73	75
162	6	90	88	91
163	3	9	10	11
164	4	23	8	35
165	4	54	70	73
166	1	55	56	58
167	4	75	73	76
168	1	7	38	40
169	1	3	5	7
170	1	45	92	94
171	3	49	51	52
172	3	6	5	7
173	1	48	87	88
174	4	53	54	70
175	1	47	48	87
176	1	10	9	21
177	4	40	41	42
178	1	14	16	21

Dihedrals

1	6	72	70	54	82
2	1	4	3	2	40
3	4	85	87	88	90
4	12	33	32	35	36
5	2	40	2	1	47
6	1	61	60	63	68
7	6	54	70	73	75
8	4	70	54	53	85
9	1	2	40	38	7
10	1	13	12	14	16
11	7	70	54	82	79
11	8	70	54	82	79
11	9	70	54	82	79
12	12	24	23	26	28
13	1	2	3	5	6
14	1	6	5	7	38
15	1	55	56	58	59
16	1	61	60	63	64
17	7	23	26	29	32
17	8	23	26	29	32
17	9	23	26	29	32
18	5	9	8	35	36
19	4	18	17	16	21
20	4	48	87	88	90
21	5	55	54	70	73
22	1	56	55	68	69
23	5	7	8	35	37
24	12	25	23	26	27
25	12	31	29	32	33
26	1	1	2	40	41
27	12	78	76	79	80
28	1	9	10	12	13
29	6	8	23	26	27
30	1	54	53	85	86
31	6	71	70	73	76
32	2	14	15	45	46
33	4	23	8	7	38
34	6	24	23	26	29
35	4	66	64	63	68
36	5	9	8	35	32
37	5	55	54	82	83
38	12	77	76	79	81
39	4	51	53	54	82
40	1	8	9	21	16
41	4	9	8	7	38
42	11	15	45	92	94
43	1	8	9	10	11
44	1	8	9	21	22
45	6	73	76	79	80
46	1	55	56	58	60
47	1	12	14	16	21
48	1	57	56	55	68
49	5	7	8	23	24
50	4	60	63	64	67
51	5	55	54	82	79
52	12	25	23	26	28
53	12	31	29	32	34
54	1	56	58	60	63
55	6	24	23	8	35
56	12	75	73	76	77
57	12	81	79	82	83
58	1	51	53	85	86
59	6	72	70	73	76
60	1	50	49	51	53
61	5	9	8	23	24
62	1	9	10	12	14
63	6	8	23	26	28
64	1	47	48	87	88
65	12	27	26	29	30
66	12	80	79	82	83
67	4	51	53	54	55
68	4	55	54	53	85
69	1	58	56	55	68
70	4	2	40	41	42
71	12	74	73	76	78
72	11	46	45	92	94
73	6	77	76	79	82
74	4	38	40	41	42
75	1	1	2	40	38
76	6	73	76	79	81
77	6	76	79	82	83
78	12	30	29	32	34
79	6	23	8	35	36
80	1	6	5	7	8
81	1	11	10	12	13
82	1	49	48	87	88
83	1	10	12	14	15
84	1	54	55	68	69
85	1	17	16	21	22
86	4	51	53	54	70
87	12	80	79	82	84
88	1	49	51	53	54
89	1	5	3	2	40
90	13	58	60	61	62
91	1	15	14	16	21
92	7	23	8	35	32
92	8	23	8	35	32
92	9	23	8	35	32
93	6	70	54	82	84
94	6	74	73	76	79
95	1	47	48	49	50
96	1	52	51	53	85
97	1	59	58	60	63
98	1	60	63	68	69
99	3	2	1	47	48
100	4	21	9	8	35
101	4	38	40	41	43
102	1	12	10	9	21
103	1	7	38	40	41
104	1	48	87	85	53
105	5	53	54	70	71
106	6	76	79	82	84
107	4	85	87	88	91
108	1	11	10	9	21
109	6	30	29	32	35
110	12	33	32	35	37
111	4	7	8	9	10
112	1	47	48	87	85
113	7	54	70	73	76
113	8	54	70	73	76
113	9	54	70	73	76
114	1	57	56	58	59
115	4	5	7	8	23
116	1	56	55	68	63
117	1	3	2	40	41
118	1	11	10	12	14
119	1	2	3	5	7
120	1	10	12	14	16
121	1	48	49	51	52
122	12	34	32	35	36
123	4	48	87	88	91
124	1	1	2	3	4
125	5	9	8	35	37
126	1	47	48	49	51
127	1	49	51	53	85
128	5	53	54	82	83
129	1	54	55	56	57
130	1	56	58	60	61
131	6	70	73	76	77
132	1	50	49	48	87
133	12	78	76	79	81
134	1	4	3	5	6
135	4	5	7	8	35
136	12	72	70	73	74
137	6	8	35	32	33
138	12	28	26	29	30
139	1	52	51	53	54
140	1	54	53	85	87
141	1	57	56	58	60
142	7	73	70	54	82
142	8	73	70	54	82
142	9	73	70	54	82
143	6	54	82	79	80
144	5	55	54	82	84
145	6	26	29	32	33
146	1	2	40	38	39
147	5	53	54	82	79
148	1	8	9	10	12
149	4	19	17	16	21
150	4	21	9	8	23
151	7	8	35	32	29
151	8	8	35	32	29
151	9	8	35	32	29
152	1	9	21	16	17
153	4	14	16	17	19
154	12	34	32	35	37
155	1	1	2	3	5
156	7	54	82	79	76
156	8	54	82	79	76
156	9	54	82	79	76
157	1	54	55	56	58
158	5	7	8	23	25
159	6	25	23	26	29
160	6	31	29	32	35
161	12	75	73	76	78
162	6	70	73	76	78
163	4	14	16	17	18
164	1	51	53	85	87
165	6	78	76	79	82
166	12	81	79	82	84
167	5	9	8	23	25
168	12	28	26	29	31
169	7	8	23	26	29
169	8	8	23	26	29
169	9	8	23	26	29
170	4	53	54	55	56
171	12	27	26	29	31
172	1	55	68	63	60
173	4	2	40	41	43
174	1	10	9	21	16
175	6	23	26	29	30
176	6	26	29	32	34
177	6	29	32	35	36
178	4	20	17	16	21
179	4	35	8	7	38
180	5	55	54	70	71
181	4	82	54	53	85
182	7	73	76	79	82
182	8	73	76	79	82
182	9	73	76	79	82
183	1	3	5	7	8
184	1	12	14	16	17
185	4	7	8	9	21
186	4	14	16	17	20
187	6	23	8	35	37
188	12	71	70	73	74
189	1	13	12	14	15
190	1	3	5	7	38
191	5	7	8	23	26
192	4	5	7	8	9
193	12	24	23	26	27
194	4	53	54	55	68
195	5	9	8	23	26
196	6	27	26	29	32
197	1	48	87	85	86
198	4	2	40	41	44
199	6	23	26	29	31
200	6	29	32	35	37
201	5	55	54	70	72
202	4	38	40	41	44
203	4	60	63	64	65
204	1	5	7	38	39
205	5	53	54	70	72
206	1	49	48	87	85
207	1	64	63	68	69
208	2	1	47	48	87
209	4	56	55	54	82
210	12	71	70	73	75
211	4	68	55	54	82
212	1	14	16	21	22
213	12	77	76	79	80
214	1	86	85	87	88
215	1	8	7	38	39
216	5	7	8	35	32
217	11	15	45	92	93
218	2	3	2	1	47
219	1	48	49	51	53
220	1	58	60	63	64
221	1	15	14	16	17
222	4	10	9	8	23
223	4	65	64	63	68
224	1	55	68	63	64
225	5	53	54	82	84
226	4	60	63	64	66
227	1	5	7	38	40
228	1	3	2	40	38
229	2	16	14	15	45
230	5	53	54	70	73
231	1	4	3	5	7
232	12	72	70	73	75
233	1	50	49	51	52
234	2	1	47	48	49
235	6	8	35	32	34
236	6	54	82	79	81
237	12	74	73	76	77
238	1	59	58	60	61
239	11	46	45	92	93
240	1	8	7	38	40
241	1	10	9	21	22
242	4	10	9	8	35
243	2	12	14	15	45
244	1	54	55	68	63
245	6	71	70	54	82
246	12	30	29	32	33
247	10	14	15	45	92
248	1	39	38	40	41
249	6	54	70	73	74
250	7	26	23	8	35
250	8	26	23	8	35
250	9	26	23	8	35
251	4	85	87	88	89
252	6	25	23	8	35
253	4	56	55	54	70
254	4	67	64	63	68
255	13	62	61	60	63
256	6	75	73	76	79
257	7	70	73	76	79
257	8	70	73	76	79
257	9	70	73	76	79
258	4	68	55	54	70
259	1	51	49	48	87
260	6	28	26	29	32
261	1	53	85	87	88
262	1	9	21	16	14
263	6	70	54	82	83
264	4	48	87	88	89
265	7	26	29	32	35
265	8	26	29	32	35
265	9	26	29	32	35
266	5	7	8	35	36
267	1	58	60	63	68

Impropers

12	1	3	2	4	5
13	1	40	41	2	38
18	1	12	14	10	13
26	1	10	12	9	11
28	1	87	48	85	88
45	1	92	94	45	93
50	2	45	15	46	92
68	1	58	59	60	56
73	1	85	53	86	87
89	1	3	5	2	4
94	1	38	7	39	40
98	1	48	49	87	47
121	1	58	60	56	59
131	1	68	63	69	55
132	1	2	1	3	40
135	1	53	54	85	51
158	1	55	54	56	68
172	1	63	60	64	68
187	1	9	8	10	21
193	1	87	88	48	85
196	2	45	46	92	15
201	1	14	15	16	12
204	1	63	64	68	60
211	1	9	21	8	10
225	1	60	63	58	61
231	1	21	16	22	9
233	1	60	58	61	63
237	1	51	53	49	52
240	1	85	87	53	86
246	1	14	16	12	15
265	1	53	51	54	85
269	1	16	21	14	17
272	1	53	85	51	54
273	1	7	38	5	8
279	1	92	45	93	94
280	1	2	3	40	1
291	1	87	85	88	48
306	1	2	40	1	3
308	1	21	22	9	16
313	1	10	9	11	12
321	1	3	4	5	2
331	1	49	51	48	50
333	1	12	10	13	14
345	1	10	11	12	9
355	2	45	92	15	46
356	1	5	7	3	6
358	1	58	56	59	60
365	1	7	8	38	5
372	1	63	68	60	64
378	1	51	49	52	53
380	1	92	93	94	45
383	1	5	3	6	7
388	1	14	12	15	16
392	1	16	17	21	14
393	1	49	48	50	51
394	1	48	47	49	87
397	1	68	69	55	63
402	1	55	68	54	56
408	1	40	2	38	41
415	1	16	14	17	21
422	1	7	5	8	38
434	1	55	56	68	54
435	1	38	40	7	39
437	1	56	57	58	55
439	1	51	52	53	49
459	1	60	61	63	58
461	1	12	13	14	10
471	1	40	38	41	2
473	1	21	9	16	22
479	1	56	58	55	57
491	1	48	87	47	49
508	1	85	86	87	53
524	1	5	6	7	3
528	1	68	55	63	69
531	1	9	10	21	8
532	1	49	50	51	48
536	1	38	39	40	7
537	1	56	55	57	58
