Title

10125 atoms
10000 bonds
18625 angles
31875 dihedrals
1500 impropers

8 atom types
11 bond types
5 angle types
27 dihedral types
2 improper types
-7.510099888 92.48990011 xlo xhi
-7.759200096 92.2407999 ylo yhi
-7.825099945 92.17490005 zlo zhi
0.0 0.0 0.0 xy xz yz

Masses

1	15.99943
2	12.01078
3	1.007947
4	1.007947
5	12.01078
6	15.99943
7	15.99943
8	1.007947


Pair Coeffs

1	0.16846514	3.0251065
2	0.10884061	3.3795318
3	0.016409246	2.5832257
4	0.015779483	2.6445434
5	0.086879315	3.4806469
6	0.2102061	3.0398122
7	0.20947353	2.99716
8	1.2326e-05	0.53453923

Bond Coeffs

1 harmonic	366.7408841747	1.425895053732
2 harmonic	300.03137914615	1.451203938761
3 harmonic	264.62148576755	1.52190126495
4 harmonic	370.04670688625	1.093899492634
5 harmonic	301.15400723785	1.345741232799
6 harmonic	582.698766451	1.225198386222
7 harmonic	329.44145381095	1.523435958334
8 harmonic	279.1350963404	1.454628925034
9 harmonic	329.96998057905	1.427343958716
10 harmonic	543.5267831885	0.9716763312559
11 harmonic	385.7604595587	1.369745182308


Angle Coeffs

1 harmonic	53.20531626545	116.5475862634
2 harmonic	65.09061609600001	110.3538806181
3 harmonic	201.41175231035	127.4691416191
4 harmonic	57.8982893754	126.8062420451
5 harmonic	48.776492647595	115.6030999533


Dihedral Coeffs

1 fourier 1	0.1155372516788	3	0
2 fourier 1	0.1115525666802	3	0
3 fourier 1	0.3432490222662	1	0
4 fourier 1	0.0473758381877	3	0
5 fourier 1	0.457973137376	1	0
6 fourier 1	0.09223874044423	3	0
7 fourier 1	0.3159935921949	2	180
8 fourier 1	0.3247796806857	1	180
9 fourier 1	0.1040663847541	3	0
10 fourier 1	0.1918272375143	3	0
11 fourier 1	0.9202179876409	1	180
12 fourier 1	1.163809172478	2	180
13 fourier 1	0.1679186987369	1	180
14 fourier 1	2.779853741805	2	180
15 fourier 1	0.02664938770063	3	0
16 fourier 1	0.1911926717192	3	0
17 fourier 1	-0.3703352413219	2	0
18 fourier 1	0.4541676554336	1	0
19 fourier 1	0.1489710476446	2	0
20 fourier 1	0.02960027280666	3	180
21 fourier 1	0.9974165607242	2	180
22 fourier 1	0.3445382149273	3	0
23 fourier 1	0.1364556373303	1	0
24 fourier 1	0.3026390167484	3	0
25 fourier 1	2.687457892086	2	180
26 fourier 1	2.772607909663	2	180
27 fourier 1	0.09692684957115	1	0


Improper Coeffs

1 3.5	-1	2
2 0.3666666666666667	-1	2


Atoms

1	4	1	-0.179441	2.7767999	-0.0085000005	-7.1405001
2	4	2	0.033062998	2.6673	-0.82620001	-6.0082002
3	4	2	-0.146999	1.9502	-0.078299999	-4.8814998
4	4	2	-0.14206401	1.8609999	-0.9425	-3.6147001
5	4	2	-0.14328	1.0325	-0.28	-2.5037
6	4	2	-0.140845	1.7481	0.92540002	-1.8712
7	4	2	0.13494299	0.97820002	1.4718	-0.66769999
8	4	1	-0.494827	-0.2626	1.9776	-1.0773
9	4	3	0.078571998	0.83350003	0.6649	0.086199999
10	4	3	0.078571998	1.5756	2.2869	-0.2013
11	4	4	0.085640997	1.8618	1.7397	-2.6185999
12	4	4	0.085640997	2.7618999	0.6189	-1.5333
13	4	4	0.081813	0.84829998	-1.0411	-1.7146
14	4	4	0.081813	0.0451	0.030999999	-2.9077001
15	4	4	0.081984997	2.8833001	-1.17	-3.2384
16	4	4	0.081984997	1.375	-1.9088	-3.8734
17	4	4	0.086653002	0.92610002	0.19310001	-5.2205
18	4	4	0.086653002	2.5109	0.85460001	-4.6644001
19	4	3	0.078179002	3.6908	-1.1042	-5.6759
20	4	3	0.078179002	2.1208999	-1.7646	-6.2621999
21	5	5	0.76139098	-0.73000002	2.323	-0.21690001
22	5	6	-0.55656499	-1.9166	2.0922999	-0.044399999
23	5	2	-0.208811	0.045600001	3.1341	0.7802
24	5	2	-0.116142	0.3779	2.3362	2.0501001
25	5	2	-0.130981	-0.84439999	2.1364	2.9602001
26	5	2	-0.097847998	-0.44710001	1.4405	4.2670002
27	5	2	-0.257844	-1.6665	1.2335	5.1725998
28	5	5	0.51674199	-1.2805001	0.53140002	6.4398999
29	5	6	-0.68962097	-0.54119998	1.0724	7.2470999
30	5	4	0.113284	-2.4238999	0.61830002	4.6405001
31	5	4	0.113284	-2.1249001	2.2145	5.4257998
32	5	4	0.076522999	0.3066	2.0616	4.8006001
33	5	4	0.076522999	0.0098000001	0.45249999	4.0349998
34	5	4	0.073706001	-1.2968	3.1255	3.194
35	5	4	0.073706001	-1.6015	1.5143	2.4368
36	5	4	0.085306004	0.80949998	1.3489	1.7721
37	5	4	0.085306004	1.1547	2.8975	2.6134
38	5	4	0.116489	-0.51310003	4.0611	1.0331
39	5	4	0.116489	1.0014	3.441	0.30410001
40	1	1	-0.179441	1.8809	0.0060000001	-7.5689001
41	1	2	0.033062998	0.98570001	0.498	-6.6080999
42	1	2	-0.146999	0.66720003	-0.58670002	-5.5756001
43	1	2	-0.142012	-0.34779999	-0.081699997	-4.5398002
44	1	2	-0.137918	-0.59399998	-1.0942	-3.4108
45	1	2	-0.16892201	-1.386	-2.3248	-3.8814001
46	1	2	0.086245	-1.7544	-3.2404001	-2.7131
47	1	7	-0.68496102	-0.59509999	-3.7729001	-2.1336999
48	1	8	0.37747401	-0.9016	-4.3481002	-1.3851
49	1	3	0.068442002	-2.3346	-2.6703	-1.9536999
50	1	3	0.068442002	-2.3917999	-4.0700002	-3.0950999
51	1	4	0.089005999	-0.78930002	-2.9082999	-4.6155
52	1	4	0.089005999	-2.3232999	-1.9941	-4.3797002
53	1	4	0.081984997	-1.1715	-0.58060002	-2.6113
54	1	4	0.081984997	0.37799999	-1.4114	-2.973
55	1	4	0.081984997	-1.309	0.1653	-5.0409999
56	1	4	0.081984997	0.042800002	0.85369998	-4.0820999
57	1	4	0.086653002	1.6073	-0.8858	-5.0618
58	1	4	0.086653002	0.25830001	-1.472	-6.1083002
59	1	3	0.078179002	0.050299998	0.8046	-7.1241002
60	1	3	0.078179002	1.4136	1.3969001	-6.1085
61	2	5	0.51674199	-1.6709	-0.4589	6.6513
62	2	6	-0.68962097	-2.6703	-0.5686	7.3429999
63	2	2	-0.257844	-0.99580002	-1.6872	6.1115999
64	2	2	-0.097847998	0.2176	-1.3487999	5.2340999
65	2	2	-0.130981	-0.19400001	-0.7385	3.8864
66	2	2	-0.113626	1.0384001	-0.4447	3.0178001
67	2	2	-0.218907	0.66579998	0.22570001	1.6883
68	2	5	0.823493	-0.077799998	-0.70819998	0.78490001
69	2	6	-0.55810201	0.54650003	-1.5844001	0.1284
70	2	7	-0.66582298	-1.4643	-0.62870002	0.69459999
71	2	8	0.393659	-1.9839	-1.2629	0.098200001
72	2	4	0.11751	0.0537	1.1338	1.8775001
73	2	4	0.11751	1.597	0.55220002	1.1765
74	2	4	0.085306004	1.5957	-1.386	2.8185999
75	2	4	0.085306004	1.7165	0.2406	3.5723
76	2	4	0.073706001	-0.75239998	0.20649999	4.0573001
77	2	4	0.073706001	-0.86129999	-1.4509	3.3536999
78	2	4	0.076522999	0.7827	-2.2881999	5.0447001
79	2	4	0.076522999	0.8919	-0.6523	5.7797999
80	2	4	0.113284	-0.65399998	-2.3038001	6.9693999
81	2	4	0.113284	-1.7283	-2.2883	5.5293999
82	4	1	-0.179441	7.1556001	-0.82560003	13.0581
83	4	2	0.033062998	5.8237	-1.0588	12.6917
84	4	2	-0.146999	4.8803	-0.61849999	13.8138
85	4	2	-0.14206401	3.4164	-0.90869999	13.45
86	4	2	-0.14328	2.4282999	-0.36149999	14.4912
87	4	2	-0.140845	2.4642	-1.1490999	15.8116
88	4	2	0.13494299	1.3679	-0.68889999	16.774
89	4	1	-0.494827	1.5871	0.64160001	17.1548
90	4	3	0.078571998	0.3714	-0.78939998	16.287201
91	4	3	0.078571998	1.3871	-1.341	17.6758
92	4	4	0.085640997	3.4495001	-1.0201	16.308901
93	4	4	0.085640997	2.3192999	-2.2312	15.6015
94	4	4	0.081813	1.4055001	-0.4305	14.0611
95	4	4	0.081813	2.6413	0.71249998	14.6814
96	4	4	0.081984997	3.2665999	-2.0044999	13.327
97	4	4	0.081984997	3.187	-0.4262	12.4746
98	4	4	0.086653002	5.0113001	0.47189999	13.991
99	4	4	0.086653002	5.1552	-1.164	14.7405
100	4	3	0.078179002	5.6961999	-2.1472001	12.506
101	4	3	0.078179002	5.5837998	-0.51789999	11.7465
102	5	5	0.76139098	0.80940002	0.88810003	17.7971
103	5	6	-0.55656499	0.2631	1.9747	17.6891
104	5	2	-0.208811	0.39590001	-0.073700003	18.8731
105	5	2	-0.116142	-0.93730003	-0.76740003	18.5553
106	5	2	-0.130981	-2.1466	0.164	18.7349
107	5	2	-0.097847998	-3.4605999	-0.59630001	18.5231
108	5	2	-0.257844	-4.6676002	0.33309999	18.6943
109	5	5	0.51674199	-5.9512	-0.40650001	18.463301
110	5	6	-0.68962097	-6.2968001	-1.2989	19.2215
111	5	4	0.113284	-4.6002002	1.1674	17.9632
112	5	4	0.113284	-4.6756001	0.76340002	19.719601
113	5	4	0.076522999	-3.5283	-1.4273	19.260401
114	5	4	0.076522999	-3.4744999	-1.0312001	17.4986
115	5	4	0.073706001	-2.1327	0.59399998	19.7609
116	5	4	0.073706001	-2.0892999	0.99550003	18.0005
117	5	4	0.085306004	-0.91610003	-1.1659	17.5165
118	5	4	0.085306004	-1.0464	-1.6317	19.246099
119	5	4	0.116489	0.34310001	0.45039999	19.8517
120	5	4	0.116489	1.1816	-0.8549	18.955799
121	1	1	-0.179441	7.3116002	0.15009999	12.9584
122	1	2	0.033062998	6.3822999	0.79110003	13.7903
123	1	2	-0.146999	4.9928999	0.77060002	13.1475
124	1	2	-0.142012	3.9691	1.5085	14.0225
125	1	2	-0.137918	2.5367	1.3972	13.4781
126	1	2	-0.16892201	2.3262999	2.2151	12.1936
127	1	2	0.086245	0.86009997	2.2169001	11.7586
128	1	7	-0.68496102	0.45750001	0.91949999	11.4153
129	1	8	0.37747401	-0.4964	0.98909998	11.1502
130	1	3	0.068442002	0.2218	2.6106999	12.5807
131	1	3	0.068442002	0.74949998	2.8848	10.8743
132	1	4	0.089005999	2.9414999	1.7981	11.3672
133	1	4	0.089005999	2.6441	3.2663	12.3673
134	1	4	0.081984997	1.8434	1.775	14.2611
135	1	4	0.081984997	2.2872	0.329	13.2946
136	1	4	0.081984997	4.2542	2.5788	14.1177
137	1	4	0.081984997	3.9835999	1.0646	15.0422
138	1	4	0.086653002	4.6728001	-0.28560001	13.0087
139	1	4	0.086653002	5.0584998	1.2543	12.1493
140	1	3	0.078179002	6.7082	1.8437001	13.9351
141	1	3	0.078179002	6.3562002	0.29840001	14.7889
142	2	5	0.51674199	-6.5872998	-0.13940001	17.625401
143	2	6	-0.68962097	-7.5100999	0.63859999	17.804199
144	2	2	-0.257844	-6.3501	-0.71810001	16.2598
145	2	2	-0.097847998	-5.1244998	-1.6418	16.221701
146	2	2	-0.130981	-3.8069999	-0.8617	16.3398
147	2	2	-0.113626	-2.5999	-1.8085001	16.2623
148	2	2	-0.218907	-1.2678	-1.0674	16.441401
149	2	5	0.823493	-0.97280002	-0.16760001	15.2819
150	2	6	-0.55810201	-0.52170002	-0.64749998	14.2073
151	2	7	-0.66582298	-1.2273	1.1971	15.3808
152	2	8	0.393659	-1.0463001	1.8178	14.5999
153	2	4	0.11751	-1.2837	-0.4763	17.382401
154	2	4	0.11751	-0.44960001	-1.8146	16.531099
155	2	4	0.085306004	-2.6006999	-2.346	15.289
156	2	4	0.085306004	-2.6839001	-2.5683999	17.07
157	2	4	0.073706001	-3.7795999	-0.31560001	17.306801
158	2	4	0.073706001	-3.7492001	-0.1193	15.514
159	2	4	0.076522999	-5.1314998	-2.1893001	15.2533
160	2	4	0.076522999	-5.1978002	-2.3951001	17.0371
161	2	4	0.113284	-7.2469001	-1.3041	15.9679
162	2	4	0.113284	-6.2262001	0.1061	15.5235
163	4	1	-0.179441	5.7800002	-1.5299	36.126801
164	4	2	0.033062998	4.5925002	-0.79100001	36.0457
165	4	2	-0.146999	3.9405999	-0.98379999	34.6744
166	4	2	-0.14206401	2.6601	-0.14470001	34.548901
167	4	2	-0.14328	1.9040999	-0.4111	33.238499
168	4	2	-0.140845	2.6338	0.1558	32.009102
169	4	2	0.13494299	1.7921	0.017899999	30.7393
170	4	1	-0.494827	1.5951999	-1.3356	30.4352
171	4	3	0.078571998	0.81129998	0.52630001	30.879101
172	4	3	0.078571998	2.3290999	0.51270002	29.8992
173	4	4	0.085640997	3.5971	-0.3761	31.8554
174	4	4	0.085640997	2.8533001	1.2333	32.172901
175	4	4	0.081813	0.90549999	0.0713	33.3158
176	4	4	0.081813	1.7411	-1.5035	33.115601
177	4	4	0.081984997	2.9068999	0.9375	34.628799
178	4	4	0.081984997	1.9813	-0.39809999	35.3927
179	4	4	0.086653002	3.6958001	-2.0603001	34.537102
180	4	4	0.086653002	4.6683002	-0.68300003	33.892101
181	4	3	0.078179002	4.8371	0.28330001	36.1922
182	4	3	0.078179002	3.8915999	-1.0982	36.856899
183	5	5	0.76139098	1.0163	-1.3549	29.5734
184	5	6	-0.55656499	0.0942	-2.1507001	29.4874
185	5	2	-0.208811	1.3448	-0.4366	28.4321
186	5	2	-0.116142	0.34540001	0.72350001	28.3097
187	5	2	-0.130981	-1.0105	0.27869999	27.739
188	5	2	-0.097847998	-1.9359	1.4816	27.5233
189	5	2	-0.257844	-3.2915001	1.0388	26.9613
190	5	5	0.51674199	-4.204	2.2135999	26.7733
191	5	6	-0.68962097	-3.9384999	3.079	25.953899
192	5	4	0.113284	-3.7701001	0.32480001	27.6658
193	5	4	0.113284	-3.1510999	0.52780002	25.9837
194	5	4	0.076522999	-1.457	2.1919	26.8127
195	5	4	0.076522999	-2.0936	2.0046999	28.493
196	5	4	0.073706001	-0.85049999	-0.23999999	26.767799
197	5	4	0.073706001	-1.4978	-0.4287	28.443399
198	5	4	0.085306004	0.20029999	1.2018	29.304001
199	5	4	0.085306004	0.78659999	1.4848	27.630199
200	5	4	0.116489	1.3965	-1.013	27.4832
201	5	4	0.116489	2.3529	-0.0073000002	28.6161
202	1	1	-0.179441	5.5166001	-2.4781001	36.260899
203	1	2	0.033062998	4.7131	-2.829	35.1665
204	1	2	-0.146999	3.3111	-2.2349	35.326099
205	1	2	-0.142012	2.4013	-2.6461	34.159401
206	1	2	-0.137918	1.0259	-1.9635	34.2131
207	1	2	-0.16892201	0.14300001	-2.4993999	35.3517
208	1	2	0.086245	-1.2716	-1.9215	35.289799
209	1	7	-0.68496102	-1.2362	-0.53649998	35.498699
210	1	8	0.37747401	-2.1772001	-0.226	35.440701
211	1	3	0.068442002	-1.73	-2.1479001	34.3013
212	1	3	0.068442002	-1.8892	-2.3999	36.083599
213	1	4	0.089005999	0.5887	-2.2428	36.337002
214	1	4	0.089005999	0.075400002	-3.6068001	35.278599
215	1	4	0.081984997	0.51359999	-2.1507001	33.244099
216	1	4	0.081984997	1.1567	-0.86400002	34.317799
217	1	4	0.081984997	2.2739999	-3.7505	34.1497
218	1	4	0.081984997	2.8908999	-2.3557	33.203899
219	1	4	0.086653002	3.3892	-1.126	35.365601
220	1	4	0.086653002	2.8829	-2.5936	36.286701
221	1	3	0.078179002	4.6431999	-3.9374001	35.123299
222	1	3	0.078179002	5.1792998	-2.4763	34.218399
223	2	5	0.51674199	-5.1150999	2.2911	27.3578
224	2	6	-0.68962097	-6.1627998	1.8846999	26.882
225	2	2	-0.257844	-5.1022	2.8949001	28.733
226	2	2	-0.097847998	-3.6919999	3.3106999	29.174999
227	2	2	-0.130981	-2.7995	2.0987999	29.4804
228	2	2	-0.113626	-1.4087	2.5471001	29.954
229	2	2	-0.218907	-0.4702	1.3592	30.206699
230	2	5	0.823493	-0.90429997	0.55059999	31.3894
231	2	6	-0.55810201	-0.65350002	0.95279998	32.557301
232	2	7	-0.66582298	-1.6138	-0.63139999	31.198799
233	2	8	0.393659	-1.9270999	-1.1832	31.9895
234	2	4	0.11751	-0.42300001	0.71179998	29.304701
235	2	4	0.11751	0.55549997	1.7445	30.3943
236	2	4	0.085306004	-1.5006	3.1547	30.8806
237	2	4	0.085306004	-0.94980001	3.1896	29.1707
238	2	4	0.073706001	-2.6896	1.4744	28.568199
239	2	4	0.073706001	-3.2802999	1.4841	30.272499
240	2	4	0.076522999	-3.7839999	3.9291	30.0951
241	2	4	0.076522999	-3.2237999	3.9423001	28.388
242	2	4	0.113284	-5.7528	3.7946	28.726
243	2	4	0.113284	-5.5289998	2.1703999	29.460899
244	4	1	-0.179441	2.6805	7.1724	46.742599
245	4	2	0.033062998	1.8794	6.2768998	46.022301
246	4	2	-0.146999	1.8144	4.9271998	46.741402
247	4	2	-0.14206401	0.9774	3.9161	45.943401
248	4	2	-0.14328	0.77700001	2.5908999	46.693802
249	4	2	-0.140845	2.0669999	1.7578	46.777699
250	4	2	0.13494299	1.8104	0.37909999	47.3885
251	4	1	-0.494827	1.3924	0.5108	48.719398
252	4	3	0.078571998	1.0369	-0.15899999	46.794998
253	4	3	0.078571998	2.7546	-0.20909999	47.352501
254	4	4	0.085640997	2.8243999	2.2844999	47.396999
255	4	4	0.085640997	2.4861	1.6203001	45.757301
256	4	4	0.081813	0.0062000002	2.003	46.149399
257	4	4	0.081813	0.38640001	2.7937	47.714199
258	4	4	0.081984997	1.4558001	3.7228999	44.957401
259	4	4	0.081984997	-0.0262	4.3548002	45.750198
260	4	4	0.086653002	1.3627	5.0734	47.747398
261	4	4	0.086653002	2.8485999	4.5451002	46.869099
262	4	3	0.078179002	2.3264999	6.1387	45.014301
263	4	3	0.078179002	0.8549	6.6973	45.889801
264	5	5	0.76139098	1.2318	-0.45449999	49.0667
265	5	6	-0.55656499	0.24519999	-0.6918	49.745701
266	5	2	-0.208811	2.2321	-1.5326999	48.765701
267	5	2	-0.116142	1.7268	-2.5172999	47.7005
268	5	2	-0.130981	0.6541	-3.4756999	48.241901
269	5	2	-0.097847998	0.26289999	-4.5145001	47.1847
270	5	2	-0.257844	-0.8125	-5.4664001	47.720501
271	5	5	0.51674199	-1.2114	-6.4668999	46.677502
272	5	6	-0.68962097	-0.4111	-7.2985001	46.2789
273	5	4	0.113284	-1.7107	-4.8827	48.016701
274	5	4	0.113284	-0.43290001	-6.0063	48.615398
275	5	4	0.076522999	1.1628	-5.1016002	46.894501
276	5	4	0.076522999	-0.12530001	-3.9934001	46.280998
277	5	4	0.073706001	1.0461	-3.9984	49.142502
278	5	4	0.073706001	-0.2499	-2.8986001	48.531502
279	5	4	0.085306004	1.3274	-1.9549	46.827301
280	5	4	0.085306004	2.5950999	-3.1155	47.348099
281	5	4	0.116489	2.5049	-2.0697	49.699902
282	5	4	0.116489	3.154	-1.0477	48.379398
283	1	1	-0.179441	2.1375	7.4830999	47.513901
284	1	2	0.033062998	1.7848001	6.3379002	48.242298
285	1	2	-0.146999	0.65930003	5.5826001	47.530399
286	1	2	-0.142012	0.22679999	4.3488998	48.336102
287	1	2	-0.137918	-0.80839998	3.4905	47.593102
288	1	2	-0.16892201	-2.1867001	4.1659002	47.508801
289	1	2	0.086245	-3.2377	3.2321	46.907001
290	1	7	-0.68496102	-2.9135001	2.9349999	45.576698
291	1	8	0.37747401	-3.6259999	2.3261001	45.249901
292	1	3	0.068442002	-3.2983999	2.2952001	47.504501
293	1	3	0.068442002	-4.2291002	3.7384	46.942001
294	1	4	0.089005999	-2.1276	5.0834999	46.884499
295	1	4	0.089005999	-2.5183001	4.46	48.5285
296	1	4	0.081984997	-0.9131	2.5297	48.142799
297	1	4	0.081984997	-0.43650001	3.2551	46.571602
298	1	4	0.081984997	-0.18179999	4.6641002	49.320801
299	1	4	0.081984997	1.1209	3.7163	48.529999
300	1	4	0.086653002	1.0142	5.2660999	46.524799
301	1	4	0.086653002	-0.2018	6.2726998	47.400398
302	1	3	0.078179002	1.4388	6.6552	49.249699
303	1	3	0.078179002	2.6724	5.6781998	48.375301
304	2	5	0.51674199	-2.2221	-6.4640002	46.2822
305	2	6	-0.68962097	-3.0539	-7.2105999	46.771999
306	2	2	-0.257844	-2.6040001	-5.5627999	45.143002
307	2	2	-0.097847998	-1.4397	-4.6715002	44.687901
308	2	2	-0.130981	-1.1160001	-3.5734999	45.711498
309	2	2	-0.113626	0.0274	-2.6775	45.212002
310	2	2	-0.218907	0.4192	-1.6079	46.240601
311	2	5	0.823493	-0.66000003	-0.5855	46.416901
312	2	6	-0.55810201	-0.80519998	0.33410001	45.567299
313	2	7	-0.66582298	-1.5243	-0.66979998	47.504501
314	2	8	0.393659	-2.2688999	0.0065000001	47.6306
315	2	4	0.11751	0.64960003	-2.0847001	47.217701
316	2	4	0.11751	1.3430001	-1.0961	45.8936
317	2	4	0.085306004	-0.26280001	-2.1887	44.256401
318	2	4	0.085306004	0.921	-3.3090999	45.012699
319	2	4	0.073706001	-0.8204	-4.0360999	46.6772
320	2	4	0.073706001	-2.0244999	-2.9549999	45.880299
321	2	4	0.076522999	-1.7244	-4.1918001	43.725399
322	2	4	0.076522999	-0.5395	-5.2978001	44.500702
323	2	4	0.113284	-2.9230001	-6.1956	44.2883
324	2	4	0.113284	-3.4693999	-4.9317002	45.442402
325	4	1	-0.179441	-5.2234998	0.74720001	68.227303
326	4	2	0.033062998	-5.1037998	0.3831	66.879799
327	4	2	-0.146999	-3.6477001	0.50639999	66.424599
328	4	2	-0.14206401	-3.5028999	0.15549999	64.936096
329	4	2	-0.14328	-2.0387001	0.1381	64.472
330	4	2	-0.140845	-1.423	1.5458	64.404503
331	4	2	0.13494299	-0.0209	1.5204999	63.793499
332	4	1	-0.494827	0.85170001	0.7967	64.616997
333	4	3	0.078571998	-0.059099998	1.0628	62.778999
334	4	3	0.078571998	0.3448	2.5671	63.6945
335	4	4	0.085640997	-1.358	1.9856	65.422798
336	4	4	0.085640997	-2.0683999	2.2028999	63.782001
337	4	4	0.081813	-2.007	-0.3152	63.457401
338	4	4	0.081813	-1.4392	-0.50870001	65.148102
339	4	4	0.081984997	-4.0858998	0.87480003	64.318901
340	4	4	0.081984997	-3.9281001	-0.85759997	64.763702
341	4	4	0.086653002	-3.0179999	-0.1803	67.032402
342	4	4	0.086653002	-3.3092999	1.5484999	66.602303
343	4	3	0.078179002	-5.7403998	1.0639	66.274498
344	4	3	0.078179002	-5.4724002	-0.65850002	66.727997
345	5	5	0.76139098	1.7752	0.81480002	64.142799
346	5	6	-0.55656499	2.4463	-0.2042	64.096397
347	5	2	-0.208811	2.2901001	2.0985	63.558899
348	5	2	-0.116142	2.2183001	2.1124001	62.024601
349	5	2	-0.130981	3.2934	1.2275	61.373901
350	5	2	-0.097847998	3.263	1.3607	59.847099
351	5	2	-0.257844	4.3295002	0.47279999	59.196201
352	5	5	0.51674199	4.2828002	0.58590001	57.701801
353	5	6	-0.68962097	4.5597	1.6401	57.1516
354	5	4	0.113284	4.1531	-0.58740002	59.479198
355	5	4	0.113284	5.3410001	0.76819998	59.551399
356	5	4	0.076522999	3.4459	2.4219999	59.566299
357	5	4	0.076522999	2.2584	1.064	59.470501
358	5	4	0.073706001	4.2965999	1.5288	61.7486
359	5	4	0.073706001	3.1169	0.16500001	61.646099
360	5	4	0.085306004	1.2072001	1.7877001	61.692101
361	5	4	0.085306004	2.3649001	3.1607001	61.6847
362	5	4	0.116489	3.3296001	2.2839	63.9058
363	5	4	0.116489	1.6583	2.9279001	63.9426
364	1	1	-0.179441	-4.8751998	-0.0151	68.760201
365	1	2	0.033062998	-3.5492001	-0.2167	68.350899
366	1	2	-0.146999	-3.5150001	-0.92369998	66.993301
367	1	2	-0.142012	-2.0704	-1.1950001	66.548599
368	1	2	-0.137918	-1.9886	-1.7837	65.131798
369	1	2	-0.16892201	-2.4933	-3.2341001	65.063202
370	1	2	0.086245	-2.2572999	-3.8499	63.683399
371	1	7	-0.68496102	-3.0127001	-3.1722	62.7174
372	1	8	0.37747401	-2.8111999	-3.6138999	61.8517
373	1	3	0.068442002	-1.1755	-3.8009	63.426899
374	1	3	0.068442002	-2.5659001	-4.9197001	63.710899
375	1	4	0.089005999	-3.5810001	-3.2737	65.288597
376	1	4	0.089005999	-1.9589	-3.8487	65.820099
377	1	4	0.081984997	-0.92369998	-1.7593	64.812798
378	1	4	0.081984997	-2.5658	-1.1459	64.426804
379	1	4	0.081984997	-1.5743999	-1.8796	67.270599
380	1	4	0.081984997	-1.5078	-0.23559999	66.5541
381	1	4	0.086653002	-4.0240998	-0.28459999	66.238503
382	1	4	0.086653002	-4.0723	-1.8811001	67.079697
383	1	3	0.078179002	-3.0395	-0.84810001	69.110497
384	1	3	0.078179002	-3.0114	0.75709999	68.295898
385	2	5	0.51674199	4.0152998	-0.27739999	57.101101
386	2	6	-0.68962097	4.9015999	-0.97839999	56.640202
387	2	2	-0.257844	2.5771999	-0.6128	56.8269
388	2	2	-0.097847998	1.6092	0.3563	57.520401
389	2	2	-0.130981	1.5755	0.15180001	59.042
390	2	2	-0.113626	0.57270002	1.1099	59.702301
391	2	2	-0.218907	0.56110001	0.97570002	61.231201
392	2	5	0.823493	-0.0031000001	-0.34009999	61.668701
393	2	6	-0.55810201	-1.2502	-0.52219999	61.677799
394	2	7	-0.66582298	0.85299999	-1.3743	62.035599
395	2	8	0.393659	0.48719999	-2.2758	62.3209
396	2	4	0.11751	1.5904	1.0962	61.6325
397	2	4	0.11751	-0.061000001	1.7914	61.659401
398	2	4	0.085306004	-0.44850001	0.92519999	59.303001
399	2	4	0.085306004	0.852	2.1563001	59.449299
400	2	4	0.073706001	2.5857	0.3326	59.4674
401	2	4	0.073706001	1.2836	-0.89850003	59.261002
402	2	4	0.076522999	0.58929998	0.1806	57.112301
403	2	4	0.076522999	1.8935	1.4049	57.281101
404	2	4	0.113284	2.4087999	-0.56050003	55.730701
405	2	4	0.113284	2.3696001	-1.6549	57.154999
406	4	1	-0.179441	4.5741	21.2125	2.6524
407	4	2	0.033062998	3.8364999	20.852301	1.5171
408	4	2	-0.146999	3.1459	19.504499	1.7392
409	4	2	-0.14206401	2.3685999	19.069599	0.48769999
410	4	2	-0.14328	1.553	17.7876	0.71350002
411	4	2	-0.140845	2.4396	16.537399	0.84060001
412	4	2	0.13494299	1.6048	15.2573	0.90789998
413	4	1	-0.494827	0.82340002	15.2511	2.0709
414	4	3	0.078571998	0.95349997	15.1833	0.0077
415	4	3	0.078571998	2.2925999	14.3823	0.91820002
416	4	4	0.085640997	3.0646	16.601601	1.757
417	4	4	0.085640997	3.1166	16.4725	-0.038800001
418	4	4	0.081813	0.8732	17.6572	-0.1565
419	4	4	0.081813	0.9206	17.9009	1.6202
420	4	4	0.081984997	3.0710001	18.924999	-0.3633
421	4	4	0.081984997	1.6608	19.8797	0.2057
422	4	4	0.086653002	2.447	19.5924	2.6001999
423	4	4	0.086653002	3.9195001	18.7479	1.9861
424	4	3	0.078179002	4.5342999	20.7738	0.65560001
425	4	3	0.078179002	3.0845001	21.6409	1.2802
426	5	5	0.76139098	0.28290001	14.3648	2.0488
427	5	6	-0.55656499	-0.8976	14.3736	2.3604
428	5	2	-0.208811	0.96719998	13.0817	1.6758
429	5	2	-0.116142	0.58429998	12.6038	0.26699999
430	5	2	-0.130981	-0.83679998	12.0216	0.20550001
431	5	2	-0.097847998	-1.1358	11.4507	-1.1853
432	5	2	-0.257844	-2.5555999	10.8766	-1.2505
433	5	5	0.51674199	-2.8550999	10.3401	-2.6182001
434	5	6	-0.68962097	-2.2458999	9.3748999	-3.0518999
435	5	4	0.113284	-3.2904	11.6756	-1.0121
436	5	4	0.113284	-2.6712999	10.0587	-0.5061
437	5	4	0.076522999	-0.4025	10.6467	-1.4188
438	5	4	0.076522999	-1.0304	12.2566	-1.9457
439	5	4	0.073706001	-0.93830001	11.2136	0.96350002
440	5	4	0.073706001	-1.5765001	12.8182	0.43439999
441	5	4	0.085306004	0.68150002	13.4448	-0.45519999
442	5	4	0.085306004	1.3069	11.8146	-0.0348
443	5	4	0.116489	0.74349999	12.2979	2.4314001
444	5	4	0.116489	2.0638001	13.2592	1.6950001
445	1	1	-0.179441	3.9196	21.532499	3.3273001
446	1	2	0.033062998	3.0272999	20.474501	3.5525999
447	1	2	-0.146999	2.0367999	20.3598	2.3908
448	1	2	-0.142012	1.0213	19.235201	2.6401999
449	1	2	-0.137918	0.092299998	19.000401	1.4392
450	1	2	-0.16892201	-0.91909999	20.1409	1.2411
451	1	2	0.086245	-1.9315	19.813999	0.1424
452	1	7	-0.68496102	-1.2823	19.7054	-1.0944999
453	1	8	0.37747401	-1.9887	19.4884	-1.7572
454	1	3	0.068442002	-2.4577999	18.863501	0.38319999
455	1	3	0.068442002	-2.6849999	20.6327	0.0942
456	1	4	0.089005999	-0.39089999	21.080299	0.96929997
457	1	4	0.089005999	-1.472	20.315001	2.1898999
458	1	4	0.081984997	-0.46450001	18.0546	1.6179
459	1	4	0.081984997	0.69880003	18.8647	0.51679999
460	1	4	0.081984997	0.41729999	19.4645	3.5450001
461	1	4	0.081984997	1.5743999	18.2903	2.8355999
462	1	4	0.086653002	2.5992	20.1539	1.4535
463	1	4	0.086653002	1.5086	21.3312	2.28
464	1	3	0.078179002	2.4724	20.677601	4.494
465	1	3	0.078179002	3.5869999	19.5203	3.6821001
466	2	5	0.51674199	-3.6283	10.8016	-3.224
467	2	6	-0.68962097	-4.7547002	10.3323	-3.2084999
468	2	2	-0.257844	-3.3280001	11.9985	-4.0802002
469	2	2	-0.097847998	-1.8731	12.4677	-3.9384
470	2	2	-0.130981	-1.6062	13.1244	-2.5762
471	2	2	-0.113626	-0.1538	13.615	-2.4786999
472	2	2	-0.218907	0.16419999	14.2197	-1.1043
473	2	5	0.823493	-0.56529999	15.5079	-0.8822
474	2	6	-0.55810201	-0.1444	16.572399	-1.4096
475	2	7	-0.66582298	-1.7284	15.5235	-0.118
476	2	8	0.393659	-2.2416999	16.385	0.030200001
477	2	4	0.11751	-0.094400004	13.497	-0.30059999
478	2	4	0.11751	1.2572	14.4123	-1.04
479	2	4	0.085306004	0.047400001	14.3662	-3.2732999
480	2	4	0.085306004	0.53049999	12.754	-2.6442001
481	2	4	0.073706001	-1.7984999	12.3927	-1.7627
482	2	4	0.073706001	-2.2976	13.9856	-2.4463
483	2	4	0.076522999	-1.6673	13.2102	-4.7409
484	2	4	0.076522999	-1.1854	11.6064	-4.0896001
485	2	4	0.113284	-3.5122001	11.725	-5.1403999
486	2	4	0.113284	-4.0207	12.8275	-3.8160999
487	4	1	-0.179441	6.8182001	12.6908	13.8394
488	4	2	0.033062998	5.6188002	13.1183	13.2552
489	4	2	-0.146999	4.6487002	13.6074	14.3334
490	4	2	-0.14206401	3.3092999	14.0379	13.7167
491	4	2	-0.14328	2.3555	14.6592	14.7481
492	4	2	-0.140845	1.7948	13.6217	15.7353
493	4	2	0.13494299	0.73159999	14.2304	16.651199
494	4	1	-0.494827	1.3036	15.2154	17.4671
495	4	3	0.078571998	-0.088799998	14.6686	16.038601
496	4	3	0.078571998	0.3039	13.4237	17.287701
497	4	4	0.085640997	2.6122999	13.2107	16.365499
498	4	4	0.085640997	1.3357	12.7822	15.1693
499	4	4	0.081813	1.5087	15.1215	14.1957
500	4	4	0.081813	2.8780999	15.469	15.3013
501	4	4	0.081984997	2.8199999	13.1664	13.2273
502	4	4	0.081984997	3.5050001	14.7993	12.93
503	4	4	0.086653002	5.1058998	14.4682	14.8695
504	4	4	0.086653002	4.4837999	12.7843	15.0595
505	4	3	0.078179002	5.1676002	12.2601	12.7121
506	4	3	0.078179002	5.8182998	13.9279	12.5145
507	5	5	0.76139098	0.53109998	15.587	18.053101
508	5	6	-0.55656499	0.4425	16.790899	18.236601
509	5	2	-0.208811	-0.43849999	14.6401	18.698799
510	5	2	-0.116142	-1.8118	14.6513	18.0105
511	5	2	-0.130981	-2.6242001	15.9159	18.3312
512	5	2	-0.097847998	-4.0289001	15.8343	17.723101
513	5	2	-0.257844	-4.8378	17.098301	18.0355
514	5	5	0.51674199	-6.2031002	17.0273	17.419901
515	5	6	-0.68962097	-7.0106001	16.193399	17.798599
516	5	4	0.113284	-4.3091002	17.987301	17.629
517	5	4	0.113284	-4.9414001	17.223101	19.135599
518	5	4	0.076522999	-4.5581999	14.9468	18.136499
519	5	4	0.076522999	-3.947	15.7142	16.619499
520	5	4	0.073706001	-2.7082	16.0313	19.434601
521	5	4	0.073706001	-2.1048	16.8074	17.919399
522	5	4	0.085306004	-1.682	14.5526	16.9097
523	5	4	0.085306004	-2.3791001	13.763	18.364401
524	5	4	0.116489	-0.53850001	14.8772	19.780001
525	5	4	0.116489	-0.020199999	13.6139	18.6203
526	1	1	-0.179441	7.3246999	13.51	14.0818
527	1	2	0.033062998	6.5071998	14.2423	14.9547
528	1	2	-0.146999	5.3966999	14.9494	14.1732
529	1	2	-0.142012	4.5173001	15.7945	15.1062
530	1	2	-0.137918	3.3124001	16.4146	14.382
531	1	2	-0.16892201	3.7170999	17.540501	13.4168
532	1	2	0.086245	2.4948001	18.2463	12.8277
533	1	7	-0.68496102	1.7592	17.3554	12.035
534	1	8	0.37747401	0.98369998	17.8703	11.6907
535	1	3	0.068442002	1.8568	18.6457	13.6473
536	1	3	0.068442002	2.8411	19.099701	12.2014
537	1	4	0.089005999	4.3270998	17.1311	12.5828
538	1	4	0.089005999	4.3305998	18.291901	13.9601
539	1	4	0.081984997	2.6284001	16.832001	15.1529
540	1	4	0.081984997	2.7571001	15.623	13.8325
541	1	4	0.081984997	5.1268001	16.5956	15.578
542	1	4	0.081984997	4.1297998	15.1432	15.9203
543	1	4	0.086653002	4.7709999	14.1858	13.6606
544	1	4	0.086653002	5.8655	15.5978	13.4021
545	1	3	0.078179002	7.1356001	14.9989	15.4724
546	1	3	0.078179002	6.0710001	13.5699	15.7281
547	2	5	0.51674199	-6.4840002	17.73	16.642
548	2	6	-0.68962097	-7.0904999	18.743799	16.9478
549	2	2	-0.257844	-6.1430998	17.467199	15.2031
550	2	2	-0.097847998	-5.3471999	16.1672	15.0196
551	2	2	-0.130981	-3.9099	16.288401	15.5466
552	2	2	-0.113626	-3.1294	14.9856	15.3164
553	2	2	-0.218907	-1.7072999	15.0511	15.8899
554	2	5	0.823493	-0.84649998	16.0126	15.1311
555	2	6	-0.55810201	-0.34729999	15.6767	14.0235
556	2	7	-0.66582298	-0.62349999	17.2906	15.6349
557	2	8	0.393659	-0.054499999	17.958099	15.1265
558	2	4	0.11751	-1.7414	15.3415	16.962099
559	2	4	0.11751	-1.2493	14.0398	15.833
560	2	4	0.085306004	-3.0840001	14.7572	14.2292
561	2	4	0.085306004	-3.6657	14.1495	15.8169
562	2	4	0.073706001	-3.9268	16.5151	16.634001
563	2	4	0.073706001	-3.3992	17.1241	15.0202
564	2	4	0.076522999	-5.3119998	15.9314	13.933
565	2	4	0.076522999	-5.8731999	15.3307	15.5307
566	2	4	0.113284	-7.0897002	17.389299	14.6281
567	2	4	0.113284	-5.5654001	18.3256	14.7953
568	4	1	-0.179441	-0.89099997	16.8671	23.822001
569	4	2	0.033062998	0.028000001	17.0667	24.8603
570	4	2	-0.146999	-0.54259998	16.544399	26.181101
571	4	2	-0.14206401	0.4321	16.7959	27.3414
572	4	2	-0.14328	-0.043900002	16.168699	28.6604
573	4	2	-0.140845	-1.2574	16.899799	29.2589
574	4	2	0.13494299	-1.6163	16.358801	30.6439
575	4	1	-0.494827	-2.0257001	15.0222	30.549
576	4	3	0.078571998	-0.73689997	16.443399	31.322001
577	4	3	0.078571998	-2.4451001	16.971901	31.063299
578	4	4	0.085640997	-2.1403	16.785801	28.594101
579	4	4	0.085640997	-1.0283999	17.983801	29.3508
580	4	4	0.081813	0.79720002	16.2185	29.3857
581	4	4	0.081813	-0.28580001	15.0961	28.4993
582	4	4	0.081984997	0.5851	17.8897	27.477301
583	4	4	0.081984997	1.4172	16.3475	27.085699
584	4	4	0.086653002	-0.73580003	15.4529	26.0865
585	4	4	0.086653002	-1.5059	17.059401	26.377701
586	4	3	0.078179002	0.2273	18.156601	24.9478
587	4	3	0.078179002	0.9921	16.5583	24.624399
588	5	5	0.76139098	-2.2460001	14.72	31.5177
589	5	6	-0.55656499	-1.8809	13.6196	31.9009
590	5	2	-0.208811	-3.0434	15.619	32.4175
591	5	2	-0.116142	-2.1773	16.276199	33.502602
592	5	2	-0.130981	-1.7757	15.2942	34.614601
593	5	2	-0.097847998	-1.0143	16.014099	35.733299
594	5	2	-0.257844	-0.60619998	15.0346	36.8395
595	5	5	0.51674199	0.1591	15.7357	37.921501
596	5	6	-0.68962097	-0.38319999	16.5816	38.6152
597	5	4	0.113284	0.035300002	14.2353	36.409599
598	5	4	0.113284	-1.5096	14.5607	37.2822
599	5	4	0.076522999	-1.6611	16.8097	36.166199
600	5	4	0.076522999	-0.1019	16.491699	35.311001