Title

133 atoms
142 bonds
243 angles
389 dihedrals
168 impropers

10 atom types
14 bond types
9 angle types
20 dihedral types
3 improper types
-9.50399971 90.49600029 xlo xhi
-16.06299973 83.93700027 ylo yhi
-10.97399998 89.02600002 zlo zhi
0.0 0.0 0.0 xy xz yz

Masses

1	14.00672
2	12.01078
3	1.007947
4	15.99943
5	1.007947
6	15.99943
7	12.01078
8	1.007947
9	15.99943
10	1.007947


Pair Coeffs

1	0.16769152	3.206876
2	0.086879315	3.4806469
3	0.015611343	2.5725815
4	0.16846514	3.0251065
5	0.014090815	1.1034277
6	0.2102061	3.0398122
7	0.10884061	3.3795318
8	0.015779483	2.6445434
9	0.20947353	2.99716
10	1.2326e-05	0.53453923

Bond Coeffs

1 harmonic	390.03554688505	1.390160554689
2 harmonic	505.144496193	1.019481865027
3 harmonic	422.7150220147	1.421786517481
4 harmonic	360.7852444772	1.387193227181
5 harmonic	397.2545789619	1.085358495916
6 harmonic	425.69104206635	1.362945806494
7 harmonic	492.76746816345	1.381897776683
8 harmonic	582.698766451	1.225198386222
9 harmonic	279.1350963404	1.454628925034
10 harmonic	289.73813263395	1.498646816465
11 harmonic	264.62148576755	1.52190126495
12 harmonic	370.04670688625	1.093899492634
13 harmonic	385.7604595587	1.369745182308
14 harmonic	543.5267831885	0.9716763312559


Angle Coeffs

1 harmonic	57.8982893754	126.8062420451
2 harmonic	55.42182150775	117.3465570514
3 harmonic	63.44422595415	115.5071327674
4 harmonic	34.066775159195	129.1835929926
5 harmonic	65.09061609600001	110.3538806181
6 harmonic	53.20531626545	116.5475862634
7 harmonic	14.32262199324	138.3184368373
8 harmonic	48.776492647595	115.6030999533
9 harmonic	201.41175231035	127.4691416191


Dihedral Coeffs

1 fourier 1	3.661930099076	2	180
2 fourier 1	1.193093382682	2	180
3 fourier 1	0.02021088501612	1	0
4 fourier 1	1.532232714475	2	180
5 fourier 1	3.101948770557	2	180
6 fourier 1	-0.4252153282372	1	0
7 fourier 1	1.809047390003	2	180
8 fourier 1	-0.04816277792592	1	0
9 fourier 1	0.9974165607242	2	180
10 fourier 1	2.348375642009	2	180
11 fourier 1	1.256156174911	1	0
12 fourier 1	0.02664938770063	3	0
13 fourier 1	0.1155372516788	3	0
14 fourier 1	0.09223874044423	3	0
15 fourier 1	0.3159935921949	2	180
16 fourier 1	0.3247796806857	1	180
17 fourier 1	0.1040663847541	3	0
18 fourier 1	2.687457892086	2	180
19 fourier 1	2.772607909663	2	180
20 fourier 1	0.09692684957115	1	0


Improper Coeffs

1 0.3666666666666667	-1	2
2 0.3333333333333333	-1	2
3 3.5	-1	2


Atoms

1	1	1	-0.41109401	-5.1680002	0.26899999	0.52399999
2	1	2	0.102524	-3.8280001	-0.134	0.23199999
3	1	2	-0.38582101	-3.572	-0.95700002	-0.79699999
4	1	3	0.22620501	-4.3769999	-1.327	-1.42
5	1	2	-0.223286	-2.184	-1.369	-1.094
6	1	3	0.22721	-1.995	-2.036	-1.926
7	1	2	0.18415301	-1.166	-0.91299999	-0.352
8	1	4	-0.266821	0.13699999	-1.332	-0.65799999
9	1	2	0.18415301	1.308	-0.61000001	-0.384
10	1	2	-0.24459399	1.348	0.73500001	-0.435
11	1	3	0.22721	0.46799999	1.306	-0.69999999
12	1	2	-0.35679099	2.609	1.454	-0.15899999
13	1	3	0.222247	2.618	2.536	-0.19499999
14	1	2	0.167373	3.7279999	0.77100003	0.127
15	1	1	-0.53135002	4.9520001	1.46	0.39399999
16	1	5	0.32041001	4.9990001	2.5039999	0.373
17	1	2	-0.35679099	3.691	-0.70999998	0.16
18	1	3	0.222247	4.5910001	-1.2690001	0.382
19	1	2	-0.24459399	2.5469999	-1.3609999	-0.086000003
20	1	3	0.22721	2.527	-2.4430001	-0.061999999
21	1	2	-0.223286	-1.452	-0.018999999	0.80199999
22	1	3	0.22721	-0.64999998	0.32100001	1.444
23	1	2	-0.38582101	-2.7090001	0.35100001	1.073
24	1	3	0.22620501	-2.9089999	0.99900001	1.9170001
25	1	5	0.373932	-5.3649998	0.90799999	1.326
26	1	2	0.76893902	5.8390002	0.91799998	0.61799997
27	1	6	-0.65490103	5.8940001	0.259	1.691
28	1	2	-0.370011	6.9790001	0.94	-0.315
29	1	2	-0.077747002	6.9050002	1.648	-1.452
30	1	3	0.225509	6.0120001	2.21	-1.696
31	1	2	-0.248108	8.0430002	1.678	-2.3940001
32	1	3	0.215754	7.9310002	2.283	-3.2809999
33	1	2	-0.208661	9.1680002	0.972	-2.1459999
34	1	7	0.025327999	10.394	1.002	-3.075
35	1	7	-0.13124999	10.09	1.52	-4.5019999
36	1	8	0.088436	9.8290005	2.599	-4.487
37	1	8	0.088436	10.98	1.405	-5.158
38	1	8	0.088436	9.25	0.95099998	-4.9559999
39	1	2	-0.123824	10.989	-0.366	-3.198
40	1	2	-0.15098301	10.377	-1.4809999	-3.6229999
41	1	3	0.215188	9.3339996	-1.466	-3.9119999
42	1	2	0.00095399999	11.152	-2.7420001	-3.691
43	1	3	0.21577001	10.654	-3.6429999	-4.0289998
44	1	2	-0.34498101	12.456	-2.7620001	-3.342
45	1	2	0.58656901	13.219	-4.02	-3.4170001
46	1	6	-0.51094902	14.436	-4.0560002	-3.095
47	1	2	0.072209001	13.111	-1.5039999	-2.885
48	1	3	0.209649	14.158	-1.4960001	-2.6129999
49	1	2	-0.18015499	12.384	-0.37799999	-2.8180001
50	1	7	-0.026884001	12.848	0.98299998	-2.4070001
51	1	7	-0.130835	13.877	1.518	-3.4200001
52	1	8	0.092652999	14.786	0.87900001	-3.4319999
53	1	8	0.092652999	13.446	1.533	-4.4450002
54	1	8	0.092652999	14.181	2.552	-3.151
55	1	7	-0.130835	13.46	0.949	-0.99299997
56	1	8	0.092652999	14.389	0.34	-0.977
57	1	8	0.092652999	12.741	0.50999999	-0.26699999
58	1	8	0.092652999	13.713	1.978	-0.66000003
59	1	7	-0.180821	11.544	1.844	-2.4319999
60	1	8	0.130945	11.702	2.802	-2.977
61	1	8	0.130945	11.266	2.1500001	-1.398
62	1	2	-0.248108	9.2489996	0.212	-0.86500001
63	1	3	0.215754	10.151	-0.331	-0.61000001
64	1	2	-0.077747002	8.2209997	0.192	-0.0099999998
65	1	3	0.225509	8.3079996	-0.37	0.912
66	1	1	-0.41109401	-5.9699998	-0.064000003	-0.056000002
67	1	2	0.102524	-6.1139998	0.33899999	-1.421
68	1	2	-0.38582101	-5.217	1.163	-1.9859999
69	1	3	0.22620501	-4.3730001	1.5319999	-1.4170001
70	1	2	-0.223286	-5.3699999	1.575	-3.3970001
71	1	3	0.22721	-4.6389999	2.2409999	-3.8380001
72	1	2	0.18415301	-6.395	1.118	-4.131
73	1	4	-0.266821	-6.5120001	1.5369999	-5.4640002
74	1	2	0.18415301	-7.1399999	0.81599998	-6.4899998
75	1	2	-0.168924	-7.1040001	-0.52999997	-6.5440001
76	1	3	0.22721	-6.5770001	-1.101	-5.7919998
77	1	2	-0.43539301	-7.7610002	-1.249	-7.6550002
78	1	3	0.235028	-7.73	-2.3310001	-7.6750002
79	1	2	0.28302601	-8.3839998	-0.565	-8.6280003
80	1	1	-0.843822	-9.0209999	-1.255	-9.7069998
81	1	5	0.36804199	-9.5039997	-0.722	-10.464
82	1	5	0.36804199	-9.0159998	-2.299	-9.757
83	1	2	-0.43539301	-8.4040003	0.91500002	-8.5830002
84	1	3	0.235028	-8.8959999	1.475	-9.368
85	1	2	-0.168924	-7.8119998	1.566	-7.5739999
86	1	3	0.22721	-7.8280001	2.648	-7.5469999
87	1	2	-0.223286	-7.4000001	0.22400001	-3.4979999
88	1	3	0.22721	-8.2620001	-0.115	-4.0580001
89	1	2	-0.38582101	-7.263	-0.146	-2.2190001
90	1	3	0.22620501	-8.0019999	-0.79400003	-1.7640001
91	1	5	0.373932	-6.6700001	-0.70300001	0.38299999
92	1	2	0.592071	12.738	-4.9299998	-3.7509999
93	1	6	-0.52144003	11.547	-5.1529999	-3.4059999
94	1	2	-0.33351001	13.482	-5.882	-4.5970001
95	1	2	0.006234	12.922	-7.0209999	-5.0349998
96	1	3	0.223389	11.901	-7.276	-4.7800002
97	1	2	-0.241441	13.692	-7.954	-5.882
98	1	3	0.215754	13.197	-8.8529997	-6.2290001
99	1	2	-0.208661	14.975	-7.697	-6.2199998
100	1	7	0.025327999	15.742	-8.6759996	-7.1259999
101	1	7	-0.13124999	17.256001	-8.3769999	-7.21
102	1	8	0.088436	17.708	-8.3470001	-6.1960001
103	1	8	0.088436	17.438999	-7.4060001	-7.7189999
104	1	8	0.088436	17.778999	-9.1619997	-7.7979999
105	1	2	-0.123824	15.573	-10.086	-6.6469998
106	1	2	-0.17032599	15.875	-10.571	-5.4349999
107	1	3	0.215188	16.277	-9.927	-4.6630001
108	1	2	-0.060066	15.65	-12.01	-5.1620002
109	1	3	0.23214801	15.892	-12.391	-4.178
110	1	2	-0.226778	15.157	-12.822	-6.125
111	1	2	0.83597499	14.93	-14.261	-5.869
112	1	6	-0.47701499	15.193	-14.763	-4.743
113	1	9	-0.663764	14.422	-15.075	-6.8769999
114	1	10	0.41897401	14.261	-16.063	-6.7160001
115	1	2	0.0067070001	14.842	-12.251	-7.4650002
116	1	3	0.22491799	14.458	-12.882	-8.2559996
117	1	2	-0.174367	15.042	-10.942	-7.6830001
118	1	7	-0.026884001	14.807	-10.183	-8.9499998
119	1	7	-0.130835	13.345	-10.331	-9.4139996
120	1	8	0.092652999	13.122	-11.383	-9.6929998
121	1	8	0.092652999	12.646	-10.028	-8.6040001
122	1	8	0.092652999	13.157	-9.6890001	-10.301
123	1	7	-0.130835	15.767	-10.68	-10.048
124	1	8	0.092652999	16.823	-10.589	-9.7150002
125	1	8	0.092652999	15.567	-11.745	-10.293
126	1	8	0.092652999	15.637	-10.08	-10.974
127	1	7	-0.180821	15.124	-8.7019997	-8.5640001
128	1	8	0.130945	15.803	-8.2270002	-9.3079996
129	1	8	0.130945	14.197	-8.0869999	-8.599
130	1	2	-0.241441	15.58	-6.4180002	-5.7410002
131	1	3	0.215754	16.593	-6.1459999	-5.9959998
132	1	2	0.006234	14.878	-5.572	-4.9770002
133	1	3	0.223389	15.339	-4.652	-4.6389999

Bonds

1	1	1	2
2	2	1	25
3	3	1	66
4	4	2	3
5	4	2	23
6	5	3	4
7	4	3	5
8	5	5	6
9	4	5	7
10	6	7	8
11	4	7	21
12	6	8	9
13	4	9	10
14	4	9	19
15	5	10	11
16	4	10	12
17	5	12	13
18	4	12	14
19	1	14	15
20	4	14	17
21	2	15	16
22	7	15	26
23	5	17	18
24	4	17	19
25	5	19	20
26	5	21	22
27	4	21	23
28	5	23	24
29	8	26	27
30	9	26	28
31	4	28	29
32	4	28	64
33	5	29	30
34	4	29	31
35	5	31	32
36	4	31	33
37	10	33	34
38	4	33	62
39	11	34	35
40	10	34	39
41	11	34	59
42	12	35	36
43	12	35	37
44	12	35	38
45	4	39	40
46	4	39	49
47	5	40	41
48	4	40	42
49	5	42	43
50	4	42	44
51	9	44	45
52	4	44	47
53	8	45	46
54	9	45	92
55	5	47	48
56	4	47	49
57	10	49	50
58	11	50	51
59	11	50	55
60	11	50	59
61	12	51	52
62	12	51	53
63	12	51	54
64	12	55	56
65	12	55	57
66	12	55	58
67	12	59	60
68	12	59	61
69	5	62	63
70	4	62	64
71	5	64	65
72	1	66	67
73	2	66	91
74	4	67	68
75	4	67	89
76	5	68	69
77	4	68	70
78	5	70	71
79	4	70	72
80	6	72	73
81	4	72	87
82	6	73	74
83	4	74	75
84	4	74	85
85	5	75	76
86	4	75	77
87	5	77	78
88	4	77	79
89	1	79	80
90	4	79	83
91	2	80	81
92	2	80	82
93	5	83	84
94	4	83	85
95	5	85	86
96	5	87	88
97	4	87	89
98	5	89	90
99	8	92	93
100	9	92	94
101	4	94	95
102	4	94	132
103	5	95	96
104	4	95	97
105	5	97	98
106	4	97	99
107	10	99	100
108	4	99	130
109	11	100	101
110	10	100	105
111	11	100	127
112	12	101	102
113	12	101	103
114	12	101	104
115	4	105	106
116	4	105	117
117	5	106	107
118	4	106	108
119	5	108	109
120	4	108	110
121	9	110	111
122	4	110	115
123	8	111	112
124	13	111	113
125	14	113	114
126	5	115	116
127	4	115	117
128	10	117	118
129	11	118	119
130	11	118	123
131	11	118	127
132	12	119	120
133	12	119	121
134	12	119	122
135	12	123	124
136	12	123	125
137	12	123	126
138	12	127	128
139	12	127	129
140	5	130	131
141	4	130	132
142	5	132	133

Angles

1	4	7	21	22
2	6	100	101	103
3	1	106	105	117
4	8	121	119	122
5	1	14	17	19
6	1	40	42	44
7	6	49	50	51
8	4	88	87	89
9	2	1	66	67
10	6	118	123	125
11	3	79	80	82
12	6	50	51	52
13	1	42	44	45
14	1	40	39	49
15	1	10	12	14
16	1	92	94	132
17	6	33	34	35
18	6	34	35	38
19	1	1	2	23
20	6	123	118	127
21	9	112	111	113
22	8	36	35	38
23	4	4	3	5
24	5	7	8	9
25	2	14	15	26
26	4	71	70	72
27	6	50	59	61
28	1	75	74	85
29	1	1	2	3
30	4	9	19	20
31	6	50	55	56
32	1	44	45	46
33	1	67	89	87
34	6	50	51	53
35	1	45	92	94
36	8	52	51	53
37	4	29	31	32
38	4	83	85	86
39	4	22	21	23
40	1	77	79	83
41	6	49	50	59
42	4	68	70	71
43	1	45	44	47
44	1	67	68	70
45	4	87	89	90
46	4	74	75	76
47	1	110	115	117
48	1	105	117	115
49	4	94	132	133
50	1	94	95	97
51	6	51	50	55
52	1	110	111	112
53	1	29	28	64
54	3	2	1	25
55	6	100	127	128
56	7	34	39	40
57	1	31	33	62
58	6	34	59	60
59	8	53	51	54
60	1	74	85	83
61	1	97	99	130
62	4	95	97	98
63	6	101	100	127
64	4	75	77	78
65	1	9	19	17
66	3	81	80	82
67	4	84	83	85
68	6	33	34	39
69	1	66	67	68
70	4	39	40	41
71	4	106	108	109
72	1	15	26	27
73	4	48	47	49
74	5	72	73	74
75	6	118	119	120
76	4	17	19	20
77	6	35	34	39
78	8	56	55	57
79	1	100	99	130
80	8	57	55	58
81	4	21	23	24
82	6	100	127	129
83	1	39	49	50
84	8	60	59	61
85	1	8	7	21
86	4	72	87	88
87	1	77	79	80
88	6	119	118	127
89	1	94	132	130
90	1	73	72	87
91	1	95	97	99
92	1	7	21	23
93	6	99	100	127
94	6	100	101	104
95	4	62	64	65
96	6	119	118	123
97	6	118	123	126
98	4	107	106	108
99	6	51	50	59
100	6	118	119	121
101	4	18	17	19
102	6	33	34	59
103	4	3	5	6
104	1	70	72	87
105	1	12	14	17
106	1	93	92	94
107	4	11	10	12
108	1	72	87	89
109	6	105	100	127
110	4	99	130	131
111	6	35	34	59
112	4	79	83	84
113	1	46	45	92
114	1	100	105	117
115	8	124	123	125
116	4	6	5	7
117	1	44	45	92
118	6	50	55	57
119	1	39	49	47
120	1	3	2	23
121	8	102	101	103
122	4	13	12	14
123	6	50	51	54
124	4	32	31	33
125	7	47	49	50
126	1	68	67	89
127	1	73	74	75
128	8	52	51	54
129	4	2	23	24
130	1	29	31	33
131	6	55	50	59
132	8	128	127	129
133	4	33	62	63
134	1	68	70	72
135	1	95	94	132
136	6	118	127	128
137	4	131	130	132
138	1	79	83	85
139	1	74	75	77
140	4	116	115	117
141	3	67	66	91
142	5	111	113	114
143	1	110	111	113
144	4	130	132	133
145	1	27	26	28
146	6	117	118	119
147	8	120	119	121
148	4	43	42	44
149	4	44	47	48
150	8	102	101	104
151	6	34	59	61
152	6	34	35	36
153	6	100	127	118
154	6	34	59	50
155	1	66	67	89
156	4	9	10	11
157	1	75	77	79
158	1	34	39	49
159	6	118	127	129
160	4	40	42	43
161	1	8	9	10
162	6	99	100	105
163	1	39	40	42
164	1	106	108	110
165	1	15	26	28
166	4	94	95	96
167	3	25	1	66
168	4	28	64	65
169	3	79	80	81
170	8	120	119	122
171	8	37	35	38
172	8	56	55	58
173	1	12	14	15
174	4	10	12	13
175	2	2	1	66
176	4	67	89	90
177	1	44	47	49
178	4	69	68	70
179	7	115	117	118
180	6	99	100	101
181	6	117	118	127
182	1	34	33	62
183	1	26	28	29
184	1	80	79	83
185	1	9	10	12
186	8	125	123	126
187	7	100	105	106
188	6	50	59	60
189	3	14	15	16
190	4	2	3	4
191	4	98	97	99
192	1	105	117	118
193	6	118	119	122
194	6	117	118	123
195	1	45	92	93
196	1	3	5	7
197	4	30	29	31
198	1	26	28	64
199	4	76	75	77
200	4	105	106	107
201	1	92	94	95
202	4	96	95	97
203	4	74	85	86
204	4	67	68	69
205	1	99	130	132
206	6	101	100	105
207	4	110	115	116
208	8	124	123	126
209	1	28	64	62
210	1	8	9	19
211	6	39	34	59
212	4	28	29	30
213	6	50	55	58
214	4	78	77	79
215	1	2	3	5
216	1	70	72	73
217	4	63	62	64
218	4	109	108	110
219	1	73	74	85
220	4	41	40	42
221	6	100	101	102
222	1	105	106	108
223	1	5	7	8
224	1	33	62	64
225	4	14	17	18
226	1	108	110	115
227	1	97	99	100
228	8	103	101	104
229	6	118	123	124
230	1	5	7	21
231	3	1	66	91
232	1	15	14	17
233	1	31	33	34
234	1	10	9	19
235	1	28	29	31
236	1	42	44	47
237	1	2	23	21
238	6	49	50	55
239	6	34	35	37
240	1	108	110	111
241	3	16	15	26
242	8	36	35	37
243	1	111	110	115

Dihedrals

1	4	72	73	74	75
2	1	88	87	89	90
3	1	39	49	47	48
4	13	39	34	59	50
5	1	100	105	106	107
6	10	16	15	26	27
6	11	16	15	26	27
7	4	7	8	9	19
8	1	6	5	7	8
9	1	26	28	64	65
10	1	78	77	79	83
11	1	6	5	7	21
12	2	77	79	80	81
13	17	38	35	34	59
14	1	31	33	62	63
15	1	66	67	68	69
16	1	74	85	83	84
17	1	31	29	28	64
18	13	49	50	55	56
19	1	39	40	42	44
20	13	117	118	123	126
21	1	96	95	97	99
22	12	47	49	50	55
23	1	73	72	87	89
24	1	8	9	10	12
25	1	67	68	70	71
26	2	81	80	79	83
27	12	101	100	105	106
28	9	47	44	45	92
29	1	8	7	21	23
30	12	39	49	50	55
31	12	35	34	33	62
32	1	107	106	105	117
33	1	14	17	19	20
34	13	36	35	34	39
35	13	105	100	127	118
36	17	35	34	59	60
37	1	45	44	47	48
38	13	99	100	101	102
39	17	56	55	50	59
40	1	32	31	33	34
41	1	68	70	72	73
42	13	49	50	59	61
43	9	113	111	110	115
44	13	99	100	127	128
45	1	67	89	87	72
46	1	41	40	42	43
47	12	33	34	39	49
48	12	115	117	118	119
49	9	42	44	45	92
50	1	94	95	97	98
51	1	70	72	87	88
52	2	1	66	67	68
53	1	28	29	31	33
54	1	92	94	132	133
55	12	35	34	39	49
56	17	53	51	50	55
57	17	36	35	34	59
58	1	77	75	74	85
59	1	75	77	79	80
60	9	46	45	92	94
61	1	73	74	85	86
62	1	106	108	110	115
63	1	8	9	19	20
64	12	115	117	118	123
65	17	119	118	123	126
66	12	31	33	34	39
67	1	42	44	47	49
68	1	3	5	7	8
69	4	72	73	74	85
70	13	39	34	59	60
71	1	3	5	7	21
72	4	74	73	72	87
73	13	100	127	118	117
74	12	31	33	34	59
75	17	58	55	50	59
76	9	44	45	92	93
77	1	12	10	9	19
78	9	15	26	28	29
79	13	117	118	123	125
80	1	96	95	97	98
81	1	68	67	89	90
82	1	108	106	105	117
83	1	97	99	130	132
84	1	92	94	95	97
85	2	68	67	66	91
86	1	39	49	47	44
87	1	18	17	19	20
88	12	99	100	105	117
89	1	116	115	117	118
90	12	99	100	105	106
91	13	49	50	59	60
92	1	4	3	2	23
93	1	10	12	14	17
94	12	97	99	100	105
95	13	49	50	51	54
96	2	16	15	14	17
97	12	105	100	99	130
98	1	40	42	44	47
99	1	29	28	64	65
100	9	46	45	92	93
101	1	2	23	21	7
102	1	29	31	33	62
103	17	120	119	118	127
104	14	100	127	118	123
104	15	100	127	118	123
104	16	100	127	118	123
105	3	2	1	66	91
106	2	3	2	1	66
107	1	30	29	28	64
108	13	103	101	100	105
109	1	48	47	49	50
110	13	102	101	100	105
111	9	93	92	94	95
112	13	117	118	119	121
113	1	42	44	47	48
114	12	47	49	50	51
115	1	68	67	89	87
116	1	72	87	89	90
117	17	125	123	118	127
118	1	26	28	29	30
119	1	107	106	108	109
120	2	23	2	1	66
121	12	39	49	50	51
122	1	75	77	79	83
123	1	15	14	17	19
124	17	52	51	50	55
125	1	92	94	95	96
126	14	34	59	50	51
126	15	34	59	50	51
126	16	34	59	50	51
127	1	67	89	87	88
128	17	51	50	59	61
129	1	77	79	83	84
130	1	3	2	23	21
131	17	123	118	127	129
132	17	37	35	34	59
133	13	117	118	127	129
134	19	112	111	113	114
134	20	112	111	113	114
135	1	74	75	77	78
136	12	106	105	100	127
137	18	110	111	113	114
138	17	51	50	55	58
139	13	33	34	35	37
140	1	100	99	130	132
141	1	11	10	12	13
142	1	34	33	62	64
143	9	27	26	28	29
144	1	97	99	130	131
145	1	30	29	31	33
146	1	29	28	64	62
147	17	52	51	50	59
148	9	108	110	111	113
149	14	34	59	50	55
149	15	34	59	50	55
149	16	34	59	50	55
150	1	4	3	5	7
151	13	49	50	55	58
152	1	13	12	14	15
153	1	106	108	110	111
154	12	31	33	34	35
155	17	57	55	50	59
156	1	1	2	3	4
157	1	95	94	132	130
158	2	3	2	1	25
159	1	100	105	117	115
160	1	43	42	44	45
161	12	35	34	39	40
162	1	94	132	130	131
163	9	93	92	94	132
164	1	41	40	39	49
165	1	105	117	115	110
166	1	10	9	19	17
167	1	40	39	49	47
168	2	23	2	1	25
169	17	101	100	127	129
170	1	74	85	83	79
171	1	28	64	62	33
172	1	76	75	77	79
173	13	117	118	119	120
174	1	84	83	85	86
175	1	66	67	89	87
176	12	39	34	33	62
177	1	98	97	99	130
178	1	7	21	23	24
179	12	40	39	34	59
180	1	15	14	17	18
181	17	54	51	50	59
182	2	89	67	66	91
183	1	9	10	12	14
184	1	75	74	85	83
185	1	69	68	70	72
186	17	123	118	127	128
187	2	82	80	79	83
188	12	97	99	100	101
189	1	39	40	42	43
190	1	73	72	87	88
191	1	8	9	10	11
192	17	51	50	55	57
193	17	122	119	118	127
194	13	33	34	35	36
195	1	105	106	108	110
196	1	8	7	21	22
197	1	100	99	130	131
198	4	70	72	73	74
199	1	30	29	31	32
200	1	5	7	21	23
201	1	99	130	132	133
202	1	40	42	44	45
203	1	108	110	115	117
204	4	9	8	7	21
205	9	108	110	111	112
206	13	104	101	100	105
207	17	121	119	118	123
208	17	120	119	118	123
209	1	71	70	72	87
210	14	100	127	118	119
210	15	100	127	118	119
210	16	100	127	118	119
211	1	106	105	117	115
212	1	110	115	117	118
213	17	126	123	118	127
214	1	31	33	62	64
215	1	3	2	23	24
216	1	66	67	68	70
217	1	5	3	2	23
218	1	4	3	5	6
219	1	69	68	67	89
220	3	2	1	66	67
221	1	12	14	17	19
222	1	34	39	49	47
223	1	28	29	31	32
224	1	67	68	70	72
225	17	121	119	118	127
226	12	105	117	118	127
227	17	35	34	59	61
228	12	97	99	100	127
229	17	101	100	127	128
230	13	99	100	127	129
231	1	41	40	42	44
232	1	34	39	40	42
233	1	109	108	110	115
234	1	73	74	75	77
235	1	76	75	77	78
236	17	119	118	123	125
237	1	70	72	87	89
238	9	46	45	44	47
239	1	131	130	132	133
240	1	95	94	132	133
241	1	100	105	117	118
242	12	117	105	100	127
243	12	49	39	34	59
244	1	28	64	62	63
245	1	98	97	99	100
246	1	9	19	17	14
247	1	2	23	21	22
248	1	10	9	19	20
249	1	40	39	49	50
250	17	102	101	100	127
251	13	117	118	123	124
252	1	66	67	89	90
253	17	51	50	55	56
254	13	39	34	59	61
255	1	105	106	108	109
256	9	42	44	45	46
257	7	14	15	26	28
257	8	14	15	26	28
258	1	5	7	21	22
259	1	111	110	115	117
260	1	9	19	17	18
261	1	108	110	115	116
262	1	75	74	85	86
263	3	25	1	66	67
264	9	44	45	92	94
265	13	49	50	51	53
266	1	63	62	64	65
267	1	12	14	17	18
268	12	101	100	105	117
269	12	33	34	39	40
270	12	59	34	33	62
271	13	105	100	127	129
272	1	2	3	5	7
273	17	54	51	50	55
274	3	25	1	66	91
275	1	22	21	23	24
276	13	99	100	101	104
277	9	45	92	94	132
278	1	106	105	117	118
279	17	55	50	59	61
280	1	80	79	83	85
281	14	101	100	127	118
281	15	101	100	127	118
281	16	101	100	127	118
282	9	112	111	110	115
283	1	42	40	39	49
284	1	34	39	40	41
285	1	13	12	14	17
286	1	29	31	33	34
287	17	119	118	127	129
288	1	73	74	75	76
289	12	47	49	50	59
290	17	119	118	123	124
291	1	34	39	49	50
292	17	122	119	118	123
293	1	44	47	49	50
294	2	12	14	15	26
295	12	39	49	50	59
296	1	26	28	64	62
297	1	95	97	99	100
298	1	78	77	79	80
299	12	105	117	118	119
300	17	51	50	59	60
301	1	70	68	67	89
302	9	27	26	28	64
303	13	33	34	59	61
304	13	117	118	127	128
305	13	117	118	119	122
306	13	33	34	59	50
307	1	26	28	29	31
308	2	17	14	15	26
309	1	43	42	44	47
310	17	53	51	50	59
311	1	76	75	74	85
312	1	107	106	108	110
313	1	100	105	106	108
314	5	14	15	26	27
314	6	14	15	26	27
315	1	34	33	62	63
316	7	16	15	26	28
316	8	16	15	26	28
317	1	111	110	115	116
318	1	1	2	23	24
319	1	105	117	115	116
320	12	105	117	118	123
321	1	33	62	64	65
322	2	77	79	80	82
323	13	37	35	34	39
324	1	77	79	83	85
325	13	49	50	55	57
326	1	10	12	14	15
327	13	49	50	51	52
328	12	115	117	118	127
329	1	109	108	110	111
330	1	74	75	77	79
331	13	33	34	35	38
332	1	92	94	132	130
333	1	11	10	12	14
334	1	32	31	33	62
335	4	5	7	8	9
336	17	104	101	100	127
337	1	96	95	94	132
338	1	2	3	5	6
339	13	105	100	127	128
340	1	45	44	47	49
341	13	99	100	101	103
342	14	35	34	59	50
342	15	35	34	59	50
342	16	35	34	59	50
343	17	55	50	59	60
344	1	73	74	85	83
345	1	80	79	83	84
346	1	94	132	130	99
347	13	99	100	127	118
348	1	8	9	19	17
349	1	97	95	94	132
350	17	119	118	127	128
351	2	1	66	67	89
352	1	94	95	97	99
353	12	127	100	99	130
354	1	1	2	3	5
355	9	45	92	94	95
356	1	11	10	9	19
357	12	101	100	99	130
358	2	12	14	15	16
359	9	15	26	28	64
360	1	95	97	99	130
361	4	7	8	9	10
362	1	1	2	23	21
363	1	9	10	12	13
364	1	68	70	72	87
365	1	71	70	72	73
366	1	69	68	70	71
367	13	34	59	50	49
368	17	103	101	100	127
369	17	124	123	118	127
370	13	33	34	59	60
371	13	38	35	34	39
372	1	79	83	85	86

Impropers

6	1	64	28	62	65
8	1	21	22	23	7
10	1	23	2	21	24
12	1	67	66	68	89
20	1	39	40	49	34
21	1	44	47	42	45
23	1	14	17	12	15
31	1	33	62	31	34
35	1	19	9	17	20
50	1	74	73	75	85
51	1	2	23	1	3
55	1	12	13	14	10
58	1	64	62	65	28
66	1	29	31	28	30
70	2	80	81	82	79
73	2	1	25	66	2
76	1	17	18	19	14
77	1	92	93	94	45
79	1	105	106	117	100
80	1	39	49	34	40
85	2	80	82	79	81
92	1	77	75	78	79
93	1	75	74	76	77
94	3	111	110	112	113
96	1	105	100	106	117
98	1	87	72	88	89
99	2	66	91	1	67
103	1	62	63	64	33
110	1	9	10	19	8
120	1	70	68	71	72
121	3	111	113	110	112
125	1	108	106	109	110
143	1	85	83	86	74
144	1	117	105	115	118
145	1	40	39	41	42
146	1	77	78	79	75
150	1	28	26	29	64
161	1	83	85	79	84
173	1	115	110	116	117
175	1	49	50	39	47
177	1	21	23	7	22
182	1	67	89	66	68
184	1	26	15	27	28
187	1	108	109	110	106
188	2	66	1	67	91
190	1	92	94	45	93
192	2	80	79	81	82
202	1	130	99	131	132
203	1	97	99	95	98
208	1	19	20	9	17
211	1	40	41	42	39
212	1	77	79	75	78
215	2	15	26	14	16
217	2	1	66	2	25
222	1	49	39	47	50
224	1	5	7	3	6
225	1	106	108	105	107
228	1	87	88	89	72
230	1	74	85	73	75
233	1	14	15	17	12
235	1	7	5	8	21
236	1	110	111	115	108
241	1	33	31	34	62
242	1	70	71	72	68
243	1	79	77	80	83
245	1	5	6	7	3
248	1	85	74	83	86
251	1	10	12	9	11
254	1	3	5	2	4
265	1	95	96	97	94
267	1	29	28	30	31
269	1	47	49	44	48
272	1	7	8	21	5
290	1	85	86	74	83
292	1	12	14	10	13
302	1	14	12	15	17
303	1	67	68	89	66
308	1	87	89	72	88
309	1	42	44	40	43
310	1	26	27	28	15
313	1	23	21	24	2
320	1	62	64	33	63
321	1	31	32	33	29
325	1	117	115	118	105
328	1	130	132	99	131
330	1	83	84	85	79
334	1	44	42	45	47
337	1	17	19	14	18
341	1	89	90	67	87
352	1	2	1	3	23
353	1	31	29	32	33
360	1	72	70	73	87
361	1	106	107	108	105
368	1	21	7	22	23
373	1	39	34	40	49
385	1	7	21	5	8
386	1	23	24	2	21
387	3	111	112	113	110
389	1	45	92	44	46
393	1	94	92	95	132
396	1	47	44	48	49
397	1	117	118	105	115
401	1	95	97	94	96
403	1	115	117	110	116
406	1	42	40	43	44
407	1	99	100	130	97
413	1	9	19	8	10
415	1	132	133	94	130
416	1	74	75	85	73
421	1	12	10	13	14
427	1	10	11	12	9
428	1	110	115	108	111
433	2	1	2	25	66
439	1	26	28	15	27
447	1	70	72	68	71
448	1	97	98	99	95
450	1	89	67	87	90
455	1	3	2	4	5
463	1	92	45	93	94
466	1	49	47	50	39
468	1	130	131	132	99
472	1	95	94	96	97
473	1	72	87	70	73
475	1	110	108	111	115
476	1	115	116	117	110
479	1	94	95	132	92
480	1	94	132	92	95
483	1	99	130	97	100
484	1	28	29	64	26
485	1	68	67	69	70
488	1	3	4	5	2
494	1	75	77	74	76
497	1	105	117	100	106
498	1	29	30	31	28
502	1	132	94	130	133
504	2	15	14	16	26
507	1	10	9	11	12
509	1	64	65	28	62
510	1	99	97	100	130
513	1	89	87	90	67
520	1	68	70	67	69
530	1	47	48	49	44
531	1	79	83	77	80
535	1	83	79	84	85
539	1	106	105	107	108
540	1	42	43	44	40
549	1	108	110	106	109
552	1	19	17	20	9
554	1	5	3	6	7
562	1	75	76	77	74
563	1	31	33	29	32
564	2	66	67	91	1
566	1	72	73	87	70
571	1	132	130	133	94
573	1	2	3	23	1
577	1	17	14	18	19
578	1	68	69	70	67
580	1	44	45	47	42
587	1	45	46	92	44
590	1	40	42	39	41
591	1	28	64	26	29
601	1	45	44	46	92
602	2	15	16	26	14
609	1	97	95	98	99
611	1	62	33	63	64
613	1	79	80	83	77
614	1	33	34	62	31
621	1	9	8	10	19
