Title

480 atoms
496 bonds
800 angles
1296 dihedrals
432 impropers

8 atom types
12 bond types
7 angle types
23 dihedral types
2 improper types
-5.711709397 22.28905906 xlo xhi
-4.213409194 22.16385906 ylo yhi
-6.204128519 24.28534426 zlo zhi
0.0 0.0 0.0 xy xz yz

Masses

1	12.01078
2	15.99943
3	1.007947
4	15.99943
5	12.01078
6	1.007947
7	15.99943
8	1.007947


Pair Coeffs

1	0.086879315	3.4806469
2	0.2102061	3.0398122
3	0.015611343	2.5725815
4	0.16846514	3.0251065
5	0.10884061	3.3795318
6	0.016409246	2.5832257
7	0.20947353	2.99716
8	1.2326e-05	0.53453923

Bond Coeffs

1 harmonic	582.698766451	1.225198386222
2 harmonic	279.1350963404	1.454628925034
3 harmonic	301.15400723785	1.345741232799
4 harmonic	399.1592953295	1.371688562017
5 harmonic	369.34270398985	1.364116986116
6 harmonic	397.2545789619	1.085358495916
7 harmonic	366.7408841747	1.425895053732
8 harmonic	264.62148576755	1.52190126495
9 harmonic	370.04670688625	1.093899492634
10 harmonic	329.96998057905	1.427343958716
11 harmonic	543.5267831885	0.9716763312559
12 harmonic	385.7604595587	1.369745182308


Angle Coeffs

1 harmonic	39.628116874445	129.8027304608
2 harmonic	65.09061609600001	110.3538806181
3 harmonic	57.8982893754	126.8062420451
4 harmonic	201.41175231035	127.4691416191
5 harmonic	79.1895422237	112.4630193006
6 harmonic	53.20531626545	116.5475862634
7 harmonic	48.776492647595	115.6030999533


Dihedral Coeffs

1 fourier 1	5.294842998052	2	180
2 fourier 1	1.659715194912	2	180
3 fourier 1	0.1918272375143	3	0
4 fourier 1	0.9202179876409	1	180
5 fourier 1	0.0473758381877	3	0
6 fourier 1	0.2347635637734	2	180
7 fourier 1	0.4747469131102	3	0
8 fourier 1	0.9974165607242	2	180
9 fourier 1	1.163809172478	2	180
10 fourier 1	0.1679186987369	1	180
11 fourier 1	2.779853741805	2	180
12 fourier 1	1.163235555439	2	180
13 fourier 1	-0.0309670556842	3	0
14 fourier 1	0.4598191477945	2	0
15 fourier 1	0.1115525666802	3	0
16 fourier 1	0.3432490222662	1	0
17 fourier 1	0.1911926717192	3	0
18 fourier 1	0.3445382149273	3	0
19 fourier 1	0.1364556373303	1	0
20 fourier 1	0.3026390167484	3	0
21 fourier 1	2.687457892086	2	180
22 fourier 1	2.772607909663	2	180
23 fourier 1	0.09692684957115	1	0


Improper Coeffs

1 0.3666666666666667	-1	2
2 3.5	-1	2


Atoms

1	1	1	0.67599564	-1.3298449	-1.1053751	3.5649436
2	1	2	-0.51586932	-0.23645655	-0.80432718	4.0203588
3	1	1	0.23015308	-1.9771309	-0.26562448	2.5537691
4	1	1	-0.2826359	-3.2526175	-0.4905902	2.0798404
5	1	3	0.18643824	-3.9438593	-1.2614635	2.3909755
6	1	1	-0.28263587	-3.4596498	0.44016329	1.1042788
7	1	3	0.18643829	-4.3434396	0.54292671	0.4898609
8	1	1	0.23015311	-2.2935937	1.1707782	1.0212067
9	1	1	0.67623263	-2.0499029	2.176536	-0.019193281
10	1	2	-0.51586932	-0.96776358	2.7391468	-0.10691187
11	1	4	-0.20939625	-1.4207279	0.74466242	1.9124438
12	1	4	-0.49136413	-3.0128043	2.3296622	-0.96770388
13	1	5	0.15122784	-2.8356323	2.7795033	-2.2598336
14	1	5	0.15122789	-3.2846386	1.6819403	-3.242455
15	1	4	-0.49136407	-2.4573055	0.57658384	-3.1461895
16	1	6	0.081371779	-3.1905729	2.0906068	-4.270191
17	1	6	0.081371779	-4.3478659	1.3988544	-3.0792768
18	1	6	0.081371779	-3.4551599	3.6863115	-2.4093575
19	1	6	0.081371779	-1.7726241	3.0383393	-2.4657422
20	1	1	0.67623263	-2.4762499	-0.32009027	-2.1254825
21	1	2	-0.51586932	-3.5339234	-0.71679059	-1.659572
22	1	1	0.23015311	-1.1989009	-0.69998368	-1.5096103
23	1	1	-0.2826359	0.016753902	-0.23936314	-1.9430537
24	1	3	0.18643824	0.20900541	0.39648471	-2.7955664
25	1	1	-0.28263587	0.93418406	-0.72254025	-1.0546491
26	1	3	0.18643829	1.9760177	-0.53893723	-1.1160702
27	1	1	0.23015317	0.23676598	-1.4401679	-0.10221239
28	1	1	0.67623263	0.77190448	-2.104918	1.1266013
29	1	2	-0.51586932	0.030565596	-2.8975363	1.6824861
30	1	4	-0.20939625	-1.0458223	-1.4292243	-0.42178312
31	1	4	-0.49136413	1.9890484	-1.8695726	1.7049301
32	1	5	0.15122784	2.9686158	-0.94699456	1.3668126
33	1	5	0.15122789	2.5084076	0.51082587	1.5627361
34	1	4	-0.49136407	3.4258015	1.3646748	0.9633836
35	1	6	0.081371779	2.3987712	0.75021622	2.6413524
36	1	6	0.081371779	1.5048226	0.64584623	1.1064023
37	1	6	0.081371779	3.8610076	-1.1090081	2.0077905
38	1	6	0.081371779	3.3123182	-1.1535764	0.34005918
39	1	4	-0.48761699	-1.9208398	-2.2926106	3.8653546
40	1	5	0.13156834	-1.4395484	-3.2512169	4.7295286
41	1	5	0.091016005	-1.7898365	-2.888882	6.1672402
42	1	7	-0.67889804	-1.4013945	-3.9149255	7.0375147
43	1	8	0.39369177	-0.41288047	-3.8625933	7.1117806
44	1	6	0.089542317	-2.8918905	-2.7626692	6.2448374
45	1	6	0.089542317	-1.3176688	-1.925665	6.461824
46	1	6	0.088386337	-1.9402056	-4.2134092	4.48328
47	1	6	0.088386337	-0.34452838	-3.3939963	4.5922148
48	1	1	0.67623263	3.0717616	2.0633953	-0.14498795
49	1	2	-0.51586932	2.2187389	2.9357782	-0.071814956
50	1	1	0.23015311	3.4286253	1.4968156	-1.4522434
51	1	1	-0.2826359	4.4190447	0.56038116	-1.6769207
52	1	3	0.18643824	5.1283991	0.17190716	-0.95820634
53	1	1	-0.28606064	4.2805157	0.1750975	-2.9890644
54	1	3	0.18643829	4.8631982	-0.57547917	-3.5070614
55	1	1	0.23778621	3.2051787	0.8901556	-3.4808085
56	1	1	0.72184217	2.6016779	0.73188283	-4.811209
57	1	2	-0.50379503	3.0742712	-0.062536085	-5.6107077
58	1	7	-0.69429732	1.4748496	1.408759	-5.1190053
59	1	8	0.40152737	1.0194729	1.2718356	-5.9619127
60	1	4	-0.21205323	2.727873	1.6865275	-2.5480169
61	2	1	0.67599564	-3.2686433	2.1962805	16.785946
62	2	2	-0.51586932	-3.5455161	1.9415468	15.623198
63	2	1	0.23015308	-2.7209045	1.1634786	17.669086
64	2	1	-0.2826359	-2.4890331	1.3566985	19.014815
65	2	3	0.18643824	-2.6965447	2.2432731	19.59773
66	2	1	-0.28263587	-1.9064276	0.20776253	19.463593
67	2	3	0.18643829	-1.5575417	0.012919494	20.468316
68	2	1	0.23015311	-1.7960341	-0.61765872	18.365013
69	2	1	0.67623263	-1.0781665	-1.8972232	18.392339
70	2	2	-0.51586932	-0.93124024	-2.5562025	17.372825
71	2	4	-0.20939625	-2.3075453	-0.034033449	17.299409
72	2	4	-0.49136413	-0.45107238	-2.228821	19.552983
73	2	5	0.15122784	0.65296833	-3.0444032	19.691785
74	2	5	0.15122789	1.7978952	-2.2391001	20.333989
75	2	4	-0.49136407	2.2188229	-1.231576	19.483533
76	2	6	0.081371779	2.6506413	-2.9321084	20.491029
77	2	6	0.081371779	1.5011429	-1.8267751	21.323505
78	2	6	0.081371779	0.38600666	-3.8965066	20.348386
79	2	6	0.081371779	0.99664653	-3.4458365	18.711929
80	2	1	0.67623263	1.535168	-0.081891668	19.244644
81	2	2	-0.51586932	0.99239663	0.52512856	20.155711
82	2	1	0.23015311	1.3531554	0.34232462	17.851033
83	2	1	-0.2826359	1.8807721	-0.33054112	16.780177
84	2	3	0.18643824	2.5238392	-1.1987872	16.805758
85	2	1	-0.28263587	1.3986408	0.30269057	15.670687
86	2	3	0.18643829	1.6260436	0.01635742	14.676101
87	2	1	0.23015317	0.57796548	1.3229825	16.111156
88	2	1	0.67623263	-0.24871985	2.261378	15.290027
89	2	2	-0.51586932	-0.68795831	3.2433951	15.864088
90	2	4	-0.20939625	0.59415133	1.3361148	17.432839
91	2	4	-0.49136413	-0.59332753	2.0934454	13.976887
92	2	5	0.15122784	-0.34385444	1.0285374	13.123213
93	2	5	0.15122789	-1.0625209	-0.26432705	13.556154
94	2	4	-0.49136407	-0.56316615	-1.3330288	12.822387
95	2	6	0.081371779	-2.1602041	-0.17341548	13.416269
96	2	6	0.081371779	-0.89610468	-0.4338289	14.641155
97	2	6	0.081371779	-0.69779391	1.2867361	12.102662
98	2	6	0.081371779	0.74643956	0.90018093	13.024149
99	2	4	-0.48761699	-3.319675	3.4678815	17.264983
100	2	5	0.13156834	-3.731104	4.5867921	16.574962
101	2	5	0.091016005	-5.2513599	4.6850656	16.587905
102	2	7	-0.67889804	-5.668325	5.8783869	15.985282
103	2	8	0.39369177	-5.5391739	5.7609643	15.008068
104	2	6	0.089542317	-5.5997057	4.6859596	17.643901
105	2	6	0.089542317	-5.7117094	3.8084638	16.080799
106	2	6	0.088386337	-3.3221355	5.4788403	17.098512
107	2	6	0.088386337	-3.3238275	4.5852021	15.539379
108	2	1	0.67623263	0.18060297	-2.2855478	13.44009
109	2	2	-0.51586932	-0.33346795	-3.0199629	14.271005
110	2	1	0.23015311	1.6423027	-2.1521928	13.385947
111	2	1	-0.2826359	2.3460697	-1.4124885	12.455426
112	2	3	0.18643824	1.9482	-0.89955896	11.589834
113	2	1	-0.28606064	3.6507891	-1.4089401	12.887919
114	2	3	0.18643829	4.4831661	-0.89400005	12.426193
115	2	1	0.23778621	3.660684	-2.1353682	14.063365
116	2	1	0.72184217	4.8137196	-2.311795	14.957016
117	2	2	-0.50379503	5.8969822	-1.825893	14.667041
118	2	7	-0.69429732	4.653008	-2.9444184	16.138794
119	2	8	0.40152737	5.3787333	-3.0146866	16.775186
120	2	4	-0.21205323	2.4519677	-2.5844768	14.326871
121	3	1	0.67599564	-0.52156618	16.283475	3.9272031
122	3	2	-0.51586932	-1.7235687	16.377591	3.7275454
123	3	1	0.23015308	0.31157418	15.417997	3.0884785
124	3	1	-0.2826359	1.6498137	15.185353	3.3273837
125	3	3	0.18643824	2.2471639	15.561174	4.1464061
126	3	1	-0.28263587	2.0852269	14.407337	2.2949155
127	3	3	0.18643829	3.0950551	14.055075	2.1358162
128	3	1	0.23015311	0.99537871	14.222582	1.471215
129	3	1	0.67623263	1.0820633	13.565778	0.16184099
130	3	2	-0.51586932	0.10699876	13.500378	-0.57315766
131	3	4	-0.20939625	-0.066104001	14.821507	1.9735254
132	3	4	-0.49136413	2.3190647	13.186701	-0.25819192
133	3	5	0.15122784	2.7405764	13.044402	-1.564111
134	3	5	0.15122789	3.9146062	14.006831	-1.8233001
135	3	4	-0.49136407	3.4914388	15.321919	-1.7394237
136	3	6	0.081371779	4.2740697	13.828967	-2.8583112
137	3	6	0.081371779	4.7600797	13.815433	-1.1263366
138	3	6	0.081371779	3.0773918	11.9997	-1.7178179
139	3	6	0.081371779	1.9243542	13.264086	-2.2886116
140	3	1	0.67623263	3.2050933	15.972388	-0.58135537
141	3	2	-0.51586932	3.9160874	15.840495	0.40363641
142	3	1	0.23015311	1.9512348	16.731835	-0.50188426
143	3	1	-0.2826359	1.078775	16.863857	-1.5503333
144	3	3	0.18643824	1.2059125	16.493105	-2.5575176
145	3	1	-0.28263587	-0.0019172679	17.532582	-1.0510219
146	3	3	0.18643829	-0.85753854	17.790199	-1.6206232
147	3	1	0.23015317	0.24676231	17.761313	0.28851436
148	3	1	0.67623263	-0.65783016	18.391059	1.3001376
149	3	2	-0.51586932	-0.1438929	18.729819	2.3527275
150	3	4	-0.20939625	1.4462126	17.289128	0.58115359
151	3	4	-0.49136413	-2.0070984	18.575394	1.1705743
152	3	5	0.15122784	-2.8628137	18.181061	0.15210573
153	3	5	0.15122789	-2.9838853	16.649124	0.034079819
154	3	4	-0.49136407	-3.6329357	16.331539	-1.1524134
155	3	6	0.081371779	-3.5302575	16.226637	0.90340345
156	3	6	0.081371779	-1.9698235	16.196229	0.048868412
157	3	6	0.081371779	-3.8778579	18.586373	0.34926278
158	3	6	0.081371779	-2.5411826	18.65919	-0.78756219
159	3	4	-0.48761699	0.11154525	17.077613	4.8313966
160	3	5	0.13156834	-0.47842207	18.006715	5.6596906
161	3	5	0.091016005	-1.0537505	17.323203	6.8937132
162	3	7	-0.67889804	-1.5541992	18.275476	7.790239
163	3	8	0.39369177	-2.4037485	18.610274	7.4008935
164	3	6	0.089542317	-0.24065667	16.758803	7.4004717
165	3	6	0.089542317	-1.846463	16.595047	6.612815
166	3	6	0.088386337	0.31138145	18.71534	5.9931152
167	3	6	0.088386337	-1.2498287	18.592291	5.1116551
168	3	1	0.67623263	-2.9470277	15.724995	-2.1542502
169	3	2	-0.51586932	-2.5308381	14.58505	-2.0080778
170	3	1	0.23015311	-2.3916812	16.57635	-3.2144701
171	3	1	-0.2826359	-2.8213024	17.851717	-3.5262156
172	3	3	0.18643824	-3.6697632	18.37746	-3.1086577
173	3	1	-0.28606064	-1.9125632	18.342614	-4.4331709
174	3	3	0.18643829	-1.9079374	19.331649	-4.8724809
175	3	1	0.23778621	-0.97636781	17.341549	-4.6088874
176	3	1	0.72184217	0.25616506	17.444731	-5.4022632
177	3	2	-0.50379503	0.51015758	18.471974	-6.0137401
178	3	7	-0.69429732	1.1466318	16.430069	-5.3891146
179	3	8	0.40152737	1.9961055	16.499556	-5.8475631
180	3	4	-0.21205323	-1.2976423	16.290618	-3.884694
181	4	1	0.67599564	-0.30138396	17.804544	20.020932
182	4	2	-0.51586932	0.3753737	16.862425	20.405564
183	4	1	0.23015308	0.022541692	18.499103	18.772215
184	4	1	-0.2826359	-0.63339443	19.632174	18.338647
185	4	3	0.18643824	-1.4229129	20.169906	18.844977
186	4	1	-0.28263587	-0.10816589	19.9239	17.113936
187	4	3	0.18643829	-0.40714091	20.732603	16.461428
188	4	1	0.23015311	0.82594327	18.943274	16.856645
189	4	1	0.67623263	1.5108138	18.807041	15.566003
190	4	2	-0.51586932	2.2678231	17.870636	15.353087
191	4	4	-0.20939625	0.90419378	18.106419	17.872187
192	4	4	-0.49136413	1.1414676	19.665164	14.577312
193	4	5	0.15122784	1.2223257	19.443542	13.218014
194	4	5	0.15122789	-0.18932061	19.5273	12.608067
195	4	4	-0.49136407	-0.98306433	18.495698	13.078521
196	4	6	0.081371779	-0.089308241	19.407518	11.509091
197	4	6	0.081371779	-0.66110445	20.51488	12.806367
198	4	6	0.081371779	1.8671932	20.224394	12.767581
199	4	6	0.081371779	1.6591194	18.446004	12.986691
200	4	1	0.67623263	-1.5183265	18.435591	14.325961
201	4	2	-0.51586932	-2.0052526	19.427687	14.847272
202	4	1	0.23015311	-1.3798806	17.185239	15.082725
203	4	1	-0.2826359	-0.78603719	16.057651	14.578983
204	4	3	0.18643824	-0.40080432	15.912223	13.579739
205	4	1	-0.28263587	-0.75059557	15.164852	15.611481
206	4	3	0.18643829	-0.34623488	14.187988	15.539864
207	4	1	0.23015317	-1.3046642	15.793548	16.709783
208	4	1	0.67623263	-1.4301997	15.270703	18.105893
209	4	2	-0.51586932	-2.1803408	15.880264	18.849236
210	4	4	-0.20939625	-1.6989318	17.002538	16.348987
211	4	4	-0.49136413	-0.7482472	14.208389	18.632884
212	4	5	0.15122784	0.24357963	13.421139	18.065835
213	4	5	0.15122789	1.5378441	14.207088	17.778463
214	4	4	-0.49136407	2.3745707	13.435242	16.982199
215	4	6	0.081371779	2.0483922	14.488909	18.723269
216	4	6	0.081371779	1.2859395	15.157019	17.260941
217	4	6	0.081371779	0.49760759	12.594235	18.762371
218	4	6	0.081371779	-0.16471184	12.925524	17.169903
219	4	4	-0.48761699	-1.4548732	18.153214	20.650966
220	4	5	0.13156834	-1.9719943	17.576845	21.790154
221	4	5	0.091016005	-1.3009511	18.159786	23.027443
222	4	7	-0.67889804	-1.9011687	17.659426	24.189514
223	4	8	0.39369177	-1.5914419	16.721183	24.285344
224	4	6	0.089542317	-1.428598	19.264338	23.015399
225	4	6	0.089542317	-0.20933314	17.945592	23.027022
226	4	6	0.088386337	-3.0554226	17.824408	21.834943
227	4	6	0.088386337	-1.8788538	16.46867	21.750369
228	4	1	0.67623263	2.6106717	13.803732	15.697476
229	4	2	-0.51586932	3.2322832	14.82889	15.459347
230	4	1	0.23015311	1.7904807	13.184868	14.647916
231	4	1	-0.2826359	1.0985809	11.995252	14.767948
232	4	3	0.18643824	1.1215258	11.30534	15.6011
233	4	1	-0.28606064	0.32458781	11.895478	13.63643
234	4	3	0.18643829	-0.38006717	11.107979	13.402953
235	4	1	0.23778621	0.58145509	13.037217	12.901636
236	4	1	0.72184217	-0.10059419	13.435472	11.662511
237	4	2	-0.50379503	-0.95487427	12.71292	11.170811
238	4	7	-0.69429732	0.16231312	14.639853	11.112068
239	4	8	0.40152737	-0.3214089	14.954968	10.335328
240	4	4	-0.21205323	1.4754115	13.780014	13.519069
241	5	1	0.67599564	18.498441	0.61660366	-3.2704871
242	5	2	-0.51586932	19.462059	0.16048331	-2.6730544
243	5	1	0.23015308	17.174098	0.0050391333	-3.1336017
244	5	1	-0.2826359	16.072208	0.40370029	-3.8609203
245	5	3	0.18643824	16.029443	1.1663801	-4.6260063
246	5	1	-0.28263587	15.026675	-0.3379316	-3.3943072
247	5	3	0.18643829	13.995978	-0.26992086	-3.713984
248	5	1	0.23015311	15.541476	-1.1353759	-2.394583
249	5	1	0.67623263	14.706078	-1.9759387	-1.5291755
250	5	2	-0.51586932	15.195914	-2.6007348	-0.59915344
251	5	4	-0.20939625	16.836986	-0.92915773	-2.2645827
252	5	4	-0.49136413	13.359585	-1.8972501	-1.7054244
253	5	5	0.15122784	12.386583	-2.1450392	-0.75926635
254	5	5	0.15122789	11.545739	-0.87115659	-0.55432608
255	5	4	-0.49136407	12.317098	0.13524148	0.00040713313
256	5	6	0.081371779	10.734438	-1.1145823	0.16305223
257	5	6	0.081371779	11.076658	-0.5350123	-1.5052131
258	5	6	0.081371779	11.735037	-2.9639468	-1.1244386
259	5	6	0.081371779	12.826686	-2.4504093	0.21666381
260	5	1	0.67623263	13.254452	0.85391718	-0.67123123
261	5	2	-0.51586932	13.043349	1.2524836	-1.8068795
262	5	1	0.23015311	14.573945	1.0271787	-0.051427184
263	5	1	-0.2826359	14.894852	0.54800357	1.1916622
264	5	3	0.18643824	14.238951	0.045035802	1.88798
265	5	1	-0.28263587	16.225261	0.80728821	1.3565335
266	5	3	0.18643829	16.777727	0.5542587	2.2246678
267	5	1	0.23015317	16.666364	1.4144873	0.1966822
268	5	1	0.67623263	18.060493	1.8276121	-0.15542527
269	5	2	-0.51586932	18.180821	2.5761067	-1.1104708
270	5	4	-0.20939625	15.638259	1.5567126	-0.62188483
271	5	4	-0.49136413	19.206049	1.4064875	0.46235033
272	5	5	0.15122784	19.37621	0.47614686	1.4775042
273	5	5	0.15122789	18.992088	-0.95318291	1.0475223
274	5	4	-0.49136407	18.93416	-1.768803	2.170599
275	5	6	0.081371779	19.719294	-1.3542373	0.31059111
276	5	6	0.081371779	18.005509	-0.932971	0.5377116
277	5	6	0.081371779	20.443141	0.46145014	1.7855744
278	5	6	0.081371779	18.825497	0.81805073	2.3690461
279	5	4	-0.48761699	18.581505	1.7826673	-3.9650704
280	5	5	0.13156834	19.712092	2.5480145	-4.1477743
281	5	5	0.091016005	20.549871	1.9870342	-5.2898912
282	5	7	-0.67889804	21.640697	2.8250721	-5.5522266
283	5	8	0.39369177	22.289059	2.6834697	-4.8139923
284	5	6	0.089542317	19.918852	1.9374452	-6.2041285
285	5	6	0.089542317	20.895215	0.95461736	-5.0610633
286	5	6	0.088386337	19.386733	3.5738673	-4.4286264
287	5	6	0.088386337	20.295479	2.6241022	-3.2032215
288	5	1	0.67623263	17.737315	-2.2491127	2.5935725
289	5	2	-0.51586932	17.122682	-3.0516749	1.9064231
290	5	1	0.23015311	17.040579	-1.5088099	3.6536632
291	5	1	-0.2826359	17.632475	-0.62962667	4.5396748
292	5	3	0.18643824	18.688409	-0.41964545	4.6471736
293	5	1	-0.28606064	16.599339	-0.027721316	5.2176832
294	5	3	0.18643829	16.683712	0.74824025	5.9673296
295	5	1	0.23778621	15.439663	-0.56670021	4.6941143
296	5	1	0.72184217	14.070185	-0.14840682	5.0239467
297	5	2	-0.50379503	13.877298	0.72485489	5.8569247
298	5	7	-0.69429732	13.02853	-0.67547022	4.3458614
299	5	8	0.40152737	12.122995	-0.36863121	4.4957488
300	5	4	-0.21205323	15.732645	-1.4630418	3.7760387
301	6	1	0.67599564	19.306511	-0.30223244	18.966963
302	6	2	-0.51586932	19.963152	-0.85766354	18.098718
303	6	1	0.23015308	18.467278	0.85511634	18.646238
304	6	1	-0.2826359	17.788417	1.5901006	19.595464
305	6	3	0.18643824	17.798929	1.4502281	20.667467
306	6	1	-0.28263587	17.064326	2.517048	18.904562
307	6	3	0.18643829	16.385972	3.2470876	19.324123
308	6	1	0.23015311	17.324338	2.2864515	17.570544
309	6	1	0.67623263	16.616456	2.974767	16.48496
310	6	2	-0.51586932	16.818113	2.6767703	15.316293
311	6	4	-0.20939625	18.183885	1.2961873	17.435161
312	6	4	-0.49136413	15.620539	3.8298283	16.841778
313	6	5	0.15122784	14.520879	4.1790529	16.085381
314	6	5	0.15122789	13.240489	3.7725642	16.838484
315	6	4	-0.49136407	13.159153	2.3953382	16.948906
316	6	6	0.081371779	12.372675	4.1191058	16.239396
317	6	6	0.081371779	13.184952	4.2561301	17.838632
318	6	6	0.081371779	14.527796	5.2768081	15.932546
319	6	6	0.081371779	14.529264	3.6822407	15.089144
320	6	1	0.67623263	13.905522	1.639563	17.796233
321	6	2	-0.51586932	14.111704	2.0038436	18.944233
322	6	1	0.23015311	14.566194	0.44241431	17.261831
323	6	1	-0.2826359	14.428169	0.01644177	15.966702
324	6	3	0.18643824	13.799087	0.44657898	15.200361
325	6	1	-0.28263587	15.276288	-1.0453367	15.833575
326	6	3	0.18643829	15.401095	-1.5986738	14.93851
327	6	1	0.23015317	15.913893	-1.2091961	17.048123
328	6	1	0.67623263	16.991556	-2.1855352	17.399768
329	6	2	-0.51586932	17.224389	-2.3337258	18.587481
330	6	4	-0.20939625	15.442183	-0.31173423	17.896256
331	6	4	-0.49136413	17.765413	-2.8849034	16.514714
332	6	5	0.15122784	17.805632	-2.8227208	15.129239
333	6	5	0.15122789	18.305032	-1.4612585	14.607282
334	6	4	-0.49136407	18.069304	-1.3808259	13.240587
335	6	6	0.081371779	19.384971	-1.3248922	14.82609
336	6	6	0.081371779	17.770616	-0.64410566	15.13673
337	6	6	0.081371779	18.495433	-3.6049801	14.74752
338	6	6	0.081371779	16.814478	-3.096526	14.732158
339	6	4	-0.48761699	19.213625	-0.8148859	20.222992
340	6	5	0.13156834	19.859912	-1.9336719	20.700481
341	6	5	0.091016005	21.283625	-1.5837955	21.114766
342	6	7	-0.67889804	21.906351	-2.6909944	21.704132
343	6	8	0.39369177	22.120625	-3.3198041	20.966501
344	6	6	0.089542317	21.245494	-0.76352345	21.864548
345	6	6	0.089542317	21.87368	-1.2195453	20.2449
346	6	6	0.088386337	19.31268	-2.2832343	21.603505
347	6	6	0.088386337	19.835687	-2.7551931	19.950263
348	6	1	0.67623263	17.139461	-0.51293046	12.767097
349	6	2	-0.51586932	17.320261	0.69184755	12.866472
350	6	1	0.23015311	15.78944	-1.0315051	12.510573
351	6	1	-0.2826359	15.465199	-2.3592769	12.310049
352	6	3	0.18643824	16.147627	-3.1945561	12.224919
353	6	1	-0.28606064	14.091739	-2.4130982	12.302042
354	6	3	0.18643829	13.480437	-3.3009416	12.205866
355	6	1	0.23778621	13.662049	-1.1166407	12.511888
356	6	1	0.72184217	12.268007	-0.69089375	12.697935
357	6	2	-0.50379503	11.361406	-1.508035	12.634691
358	6	7	-0.69429732	11.998017	0.59244314	13.01855
359	6	8	0.40152737	11.095847	0.88388307	13.212874
360	6	4	-0.21205323	14.696213	-0.30891765	12.612974
361	7	1	0.67599564	17.326448	16.263986	3.8386687
362	7	2	-0.51586932	18.432874	16.676149	3.5232741
363	7	1	0.23015308	16.119214	16.795974	3.2013232
364	7	1	-0.2826359	14.840217	16.452263	3.5861766
365	7	3	0.18643824	14.550259	15.797377	4.3960623
366	7	1	-0.28263587	14.003703	17.080687	2.7108405
367	7	3	0.18643829	12.924749	17.012958	2.6902479
368	7	1	0.23015311	14.81627	17.7584	1.8271967
369	7	1	0.67623263	14.307639	18.440346	0.63153354
370	7	2	-0.51586932	15.073482	18.955364	-0.17064601
371	7	4	-0.20939625	16.083732	17.590961	2.1485653
372	7	4	-0.49136413	12.975993	18.329718	0.37701936
373	7	5	0.15122784	12.361058	18.408192	-0.85547529
374	7	5	0.15122789	11.626745	17.084363	-1.1384177
375	7	4	-0.49136407	12.532231	16.046041	-1.2708754
376	7	6	0.081371779	11.091059	17.195795	-2.1041929
377	7	6	0.081371779	10.874841	16.858812	-0.35039227
378	7	6	0.081371779	11.629457	19.240574	-0.83612791
379	7	6	0.081371779	13.0935	18.598719	-1.6719364
380	7	1	0.67623263	13.200299	15.463188	-0.24121927
381	7	2	-0.51586932	12.632769	15.211254	0.81118542
382	7	1	0.23015311	14.648562	15.264027	-0.37578229
383	7	1	-0.2826359	15.354967	15.586027	-1.5050166
384	7	3	0.18643824	14.960502	15.963751	-2.4376273
385	7	1	-0.28263587	16.666522	15.362847	-1.1977459
386	7	3	0.18643829	17.470367	15.520624	-1.8699362
387	7	1	0.23015317	16.707789	14.934795	0.11510821
388	7	1	0.67623263	17.912363	14.63093	0.9487238
389	7	2	-0.51586932	17.71556	14.022247	1.9868034
390	7	4	-0.20939625	15.47011	14.860258	0.57322888
391	7	4	-0.49136413	19.19744	15.013324	0.67735019
392	7	5	0.15122784	19.689237	15.806177	-0.34956077
393	7	5	0.15122789	19.192027	17.2628	-0.26926376
394	7	4	-0.49136407	19.502329	17.918134	-1.4542293
395	7	6	0.081371779	19.64409	17.788615	0.59785718
396	7	6	0.081371779	18.093674	17.269613	-0.10425134
397	7	6	0.081371779	20.798556	15.824177	-0.29905049
398	7	6	0.081371779	19.454311	15.325672	-1.3133838
399	7	4	-0.48761699	17.176903	15.205525	4.6791137
400	7	5	0.13156834	18.185414	14.519288	5.3189171
401	7	5	0.091016005	18.612016	15.26214	6.578752
402	7	7	-0.67889804	19.556949	14.512891	7.2906209
403	7	8	0.39369177	20.40927	14.581672	6.7864067
404	7	6	0.089542317	17.720019	15.406881	7.2267231
405	7	6	0.089542317	19.016368	16.268304	6.3304735
406	7	6	0.088386337	17.783221	13.527399	5.6214222
407	7	6	0.088386337	19.042008	14.342274	4.631006
408	7	1	0.67623263	18.50759	18.287307	-2.3005425
409	7	2	-0.51586932	17.707019	19.148008	-1.9653785
410	7	1	0.23015311	18.187399	17.383728	-3.4133339
411	7	1	-0.2826359	19.030317	16.419674	-3.9314155
412	7	3	0.18643824	20.063738	16.241507	-3.6650629
413	7	1	-0.28606064	18.268959	15.690069	-4.8130982
414	7	3	0.18643829	18.587866	14.825224	-5.3801499
415	7	1	0.23778621	17.004308	16.245188	-4.7687163
416	7	1	0.72184217	15.812934	15.729803	-5.4573652
417	7	2	-0.50379503	15.895934	14.745917	-6.1775893
418	7	7	-0.69429732	14.610113	16.298669	-5.2287717
419	7	8	0.40152737	13.80024	15.93703	-5.6159795
420	7	4	-0.21205323	16.988686	17.267462	-3.9399581
421	8	1	0.67599564	14.663547	14.003318	19.061544
422	8	2	-0.51586932	13.624518	14.624177	18.892774
423	8	1	0.23015308	15.513744	13.642513	17.92417
424	8	1	-0.2826359	16.639147	12.853003	18.03474
425	8	3	0.18643824	17.025298	12.378675	18.926237
426	8	1	-0.28263587	17.195717	12.817144	16.789819
427	8	3	0.18643829	18.11098	12.315017	16.508187
428	8	1	0.23015311	16.392008	13.601686	15.990486
429	8	1	0.67623263	16.732633	13.949083	14.606053
430	8	2	-0.51586932	16.033588	14.718326	13.961963
431	8	4	-0.20939625	15.375901	14.074236	16.684744
432	8	4	-0.49136413	17.932601	13.51256	14.137199
433	8	5	0.15122784	18.68994	14.091173	13.139708
434	8	5	0.15122789	20.059433	14.496064	13.716206
435	8	4	-0.49136407	19.911507	15.496889	14.660678
436	8	6	0.081371779	20.669874	14.900894	12.882196
437	8	6	0.081371779	20.596381	13.620992	14.144168
438	8	6	0.081371779	18.834355	13.35103	12.327423
439	8	6	0.081371779	18.194367	14.992638	12.714092
440	8	1	0.67623263	19.429439	15.312359	15.917573
441	8	2	-0.51586932	19.766516	14.343815	16.581967
442	8	1	0.23015311	18.395087	16.231651	16.40773
443	8	1	-0.2826359	17.92692	17.298208	15.68583
444	8	3	0.18643824	18.272939	17.636104	14.719322
445	8	1	-0.28263587	16.908236	17.827434	16.425157
446	8	3	0.18643829	16.337039	18.670929	16.133353
447	8	1	0.23015317	16.782339	17.047202	17.558252
448	8	1	0.67623263	15.764801	17.162267	18.648953
449	8	2	-0.51586932	15.995137	16.544417	19.674643
450	8	4	-0.20939625	17.712929	16.10888	17.529417
451	8	4	-0.49136413	14.586149	17.853321	18.581761
452	8	5	0.15122784	14.015943	18.533634	17.515429
453	8	5	0.15122789	13.622915	17.600213	16.353675
454	8	4	-0.49136407	13.311631	18.365709	15.236979
455	8	6	0.081371779	12.764717	16.955089	16.636609
456	8	6	0.081371779	14.468847	16.917382	16.126094
457	8	6	0.081371779	13.095276	19.049938	17.860778
458	8	6	0.081371779	14.697689	19.341862	17.203948
459	8	4	-0.48761699	15.143546	13.749381	20.308207
460	8	5	0.13156834	14.53595	14.073505	21.501159
461	8	5	0.091016005	13.486825	13.028622	21.859709
462	8	7	-0.67889804	12.94672	13.293427	23.124302
463	8	8	0.39369177	12.342658	14.073573	23.015234
464	8	6	0.089542317	13.974139	12.029568	21.889523
465	8	6	0.089542317	12.68366	12.990197	21.09097
466	8	6	0.088386337	15.316516	14.0663	22.293482
467	8	6	0.088386337	14.104268	15.098326	21.459895
468	8	1	0.67623263	14.127462	18.338571	14.152671
469	8	2	-0.51586932	14.235546	17.314767	13.493735
470	8	1	0.23015311	15.140124	19.395734	14.03349
471	8	1	-0.2826359	15.097473	20.622143	14.667858
472	8	3	0.18643824	14.290131	21.021962	15.267015
473	8	1	-0.28606064	16.318412	21.208475	14.433594
474	8	3	0.18643829	16.659391	22.163859	14.810661
475	8	1	0.23778621	17.036334	20.297888	13.682002
476	8	1	0.72184217	18.444364	20.430395	13.283099
477	8	2	-0.50379503	19.077309	21.431863	13.583245
478	8	7	-0.69429732	19.059885	19.407225	12.6531
479	8	8	0.40152737	20.003295	19.441481	12.439996
480	8	4	-0.21205323	16.301842	19.232841	13.440498

Bonds

1	1	1	2
2	2	1	3
3	3	1	39
4	4	3	4
5	5	3	11
6	6	4	5
7	2	4	6
8	6	6	7
9	4	6	8
10	2	8	9
11	5	8	11
12	1	9	10
13	3	9	12
14	7	12	13
15	8	13	14
16	9	13	18
17	9	13	19
18	7	14	15
19	9	14	16
20	9	14	17
21	3	15	20
22	1	20	21
23	2	20	22
24	4	22	23
25	5	22	30
26	6	23	24
27	2	23	25
28	6	25	26
29	4	25	27
30	2	27	28
31	5	27	30
32	1	28	29
33	3	28	31
34	7	31	32
35	8	32	33
36	9	32	37
37	9	32	38
38	7	33	34
39	9	33	35
40	9	33	36
41	3	34	48
42	7	39	40
43	8	40	41
44	9	40	46
45	9	40	47
46	10	41	42
47	9	41	44
48	9	41	45
49	11	42	43
50	1	48	49
51	2	48	50
52	4	50	51
53	5	50	60
54	6	51	52
55	2	51	53
56	6	53	54
57	4	53	55
58	2	55	56
59	5	55	60
60	1	56	57
61	12	56	58
62	11	58	59
63	1	61	62
64	2	61	63
65	3	61	99
66	4	63	64
67	5	63	71
68	6	64	65
69	2	64	66
70	6	66	67
71	4	66	68
72	2	68	69
73	5	68	71
74	1	69	70
75	3	69	72
76	7	72	73
77	8	73	74
78	9	73	78
79	9	73	79
80	7	74	75
81	9	74	76
82	9	74	77
83	3	75	80
84	1	80	81
85	2	80	82
86	4	82	83
87	5	82	90
88	6	83	84
89	2	83	85
90	6	85	86
91	4	85	87
92	2	87	88
93	5	87	90
94	1	88	89
95	3	88	91
96	7	91	92
97	8	92	93
98	9	92	97
99	9	92	98
100	7	93	94
101	9	93	95
102	9	93	96
103	3	94	108
104	7	99	100
105	8	100	101
106	9	100	106
107	9	100	107
108	10	101	102
109	9	101	104
110	9	101	105
111	11	102	103
112	1	108	109
113	2	108	110
114	4	110	111
115	5	110	120
116	6	111	112
117	2	111	113
118	6	113	114
119	4	113	115
120	2	115	116
121	5	115	120
122	1	116	117
123	12	116	118
124	11	118	119
125	1	121	122
126	2	121	123
127	3	121	159
128	4	123	124
129	5	123	131
130	6	124	125
131	2	124	126
132	6	126	127
133	4	126	128
134	2	128	129
135	5	128	131
136	1	129	130
137	3	129	132
138	7	132	133
139	8	133	134
140	9	133	138
141	9	133	139
142	7	134	135
143	9	134	136
144	9	134	137
145	3	135	140
146	1	140	141
147	2	140	142
148	4	142	143
149	5	142	150
150	6	143	144
151	2	143	145
152	6	145	146
153	4	145	147
154	2	147	148
155	5	147	150
156	1	148	149
157	3	148	151
158	7	151	152
159	8	152	153
160	9	152	157
161	9	152	158
162	7	153	154
163	9	153	155
164	9	153	156
165	3	154	168
166	7	159	160
167	8	160	161
168	9	160	166
169	9	160	167
170	10	161	162
171	9	161	164
172	9	161	165
173	11	162	163
174	1	168	169
175	2	168	170
176	4	170	171
177	5	170	180
178	6	171	172
179	2	171	173
180	6	173	174
181	4	173	175
182	2	175	176
183	5	175	180
184	1	176	177
185	12	176	178
186	11	178	179
187	1	181	182
188	2	181	183
189	3	181	219
190	4	183	184
191	5	183	191
192	6	184	185
193	2	184	186
194	6	186	187
195	4	186	188
196	2	188	189
197	5	188	191
198	1	189	190
199	3	189	192
200	7	192	193
201	8	193	194
202	9	193	198
203	9	193	199
204	7	194	195
205	9	194	196
206	9	194	197
207	3	195	200
208	1	200	201
209	2	200	202
210	4	202	203
211	5	202	210
212	6	203	204
213	2	203	205
214	6	205	206
215	4	205	207
216	2	207	208
217	5	207	210
218	1	208	209
219	3	208	211
220	7	211	212
221	8	212	213
222	9	212	217
223	9	212	218
224	7	213	214
225	9	213	215
226	9	213	216
227	3	214	228
228	7	219	220
229	8	220	221
230	9	220	226
231	9	220	227
232	10	221	222
233	9	221	224
234	9	221	225
235	11	222	223
236	1	228	229
237	2	228	230
238	4	230	231
239	5	230	240
240	6	231	232
241	2	231	233
242	6	233	234
243	4	233	235
244	2	235	236
245	5	235	240
246	1	236	237
247	12	236	238
248	11	238	239
249	1	241	242
250	2	241	243
251	3	241	279
252	4	243	244
253	5	243	251
254	6	244	245
255	2	244	246
256	6	246	247
257	4	246	248
258	2	248	249
259	5	248	251
260	1	249	250
261	3	249	252
262	7	252	253
263	8	253	254
264	9	253	258
265	9	253	259
266	7	254	255
267	9	254	256
268	9	254	257
269	3	255	260
270	1	260	261
271	2	260	262
272	4	262	263
273	5	262	270
274	6	263	264
275	2	263	265
276	6	265	266
277	4	265	267
278	2	267	268
279	5	267	270
280	1	268	269