Title

108 atoms
111 bonds
216 angles
464 dihedrals
18 impropers

11 atom types
14 bond types
9 angle types
35 dihedral types
3 improper types
-19.74200058 80.25799942 xlo xhi
-2.825999975 97.17400002 ylo yhi
-4.215000153 95.78499985 zlo zhi
0.0 0.0 0.0 xy xz yz

Masses

1	12.01078
2	15.99943
3	14.00672
4	12.01078
5	1.007947
6	1.007947
7	1.007947
8	15.99943
9	12.01078
10	15.99943
11	1.007947


Pair Coeffs

1	0.086879315	3.4806469
2	0.2102061	3.0398122
3	0.16769152	3.206876
4	0.10884061	3.3795318
5	0.015779483	2.6445434
6	0.014090815	1.1034277
7	0.016409246	2.5832257
8	0.16846514	3.0251065
9	0.21	3.3996695
10	0.20947353	2.99716
11	1.2326e-05	0.53453923

Bond Coeffs

1 harmonic	582.698766451	1.225198386222
2 harmonic	492.76746816345	1.381897776683
3 harmonic	279.1350963404	1.454628925034
4 harmonic	352.0565580496	1.450098586273
5 harmonic	505.144496193	1.019481865027
6 harmonic	264.62148576755	1.52190126495
7 harmonic	370.04670688625	1.093899492634
8 harmonic	301.15400723785	1.345741232799
9 harmonic	366.7408841747	1.425895053732
10 harmonic	300.03137914615	1.451203938761
11 harmonic	366.34047229585	1.464762957261
12 harmonic	602.81384337	1.196112346392
13 harmonic	329.96998057905	1.427343958716
14 harmonic	543.5267831885	0.9716763312559


Angle Coeffs

1 harmonic	55.42182150775	117.3465570514
2 harmonic	63.44422595415	115.5071327674
3 harmonic	57.8982893754	126.8062420451
4 harmonic	53.20531626545	116.5475862634
5 harmonic	48.776492647595	115.6030999533
6 harmonic	65.09061609600001	110.3538806181
7 harmonic	201.41175231035	127.4691416191
8 harmonic	55.07882548015	112.8714009681
9 harmonic	33.56981613361	180


Dihedral Coeffs

1 fourier 1	-0.1488678166443	4	180
2 fourier 1	-0.1230328948768	3	180
3 fourier 1	0.2939295466901	2	0
4 fourier 1	-0.3024127022865	1	0
5 fourier 1	0.182238503271	2	0
6 fourier 1	0.02972342374561	3	0
7 fourier 1	1.809047390003	2	180
8 fourier 1	-0.04816277792592	1	0
9 fourier 1	3.101948770557	2	180
10 fourier 1	-0.4252153282372	1	0
11 fourier 1	2.348375642009	2	180
12 fourier 1	1.256156174911	1	0
13 fourier 1	0.9974165607242	2	180
14 fourier 1	0.1155372516788	3	0
15 fourier 1	0.1040663847541	3	0
16 fourier 1	0.09223874044423	3	0
17 fourier 1	0.3159935921949	2	180
18 fourier 1	0.3247796806857	1	180
19 fourier 1	0.1911926717192	3	0
20 fourier 1	2.779853741805	2	180
21 fourier 1	0.1918272375143	3	0
22 fourier 1	0.9202179876409	1	180
23 fourier 1	0.0473758381877	3	0
24 fourier 1	0.4860993122944	2	180
25 fourier 1	0.8916986138746	1	0
26 fourier 1	1.163809172478	2	180
27 fourier 1	0.1679186987369	1	180
28 fourier 1	0.1115525666802	3	0
29 fourier 1	0.3432490222662	1	0
30 fourier 1	0.457973137376	1	0
31 fourier 1	-1.382973039546	1	0
32 fourier 1	0	1	0
33 fourier 1	0.3445382149273	3	0
34 fourier 1	0.1364556373303	1	0
35 fourier 1	0.3026390167484	3	0


Improper Coeffs

1 0.3333333333333333	-1	2
2 0.3666666666666667	-1	2
3 3.5	-1	2


Atoms

1	1	1	0.54092199	4.0300002	1.353	0.85900003
2	1	2	-0.69468498	3.3570001	1.548	1.906
3	1	3	-0.496966	3.405	1.35	-0.428
4	1	4	0.022568	1.9680001	1.556	-0.611
5	1	4	-0.078571998	1.1670001	0.301	-0.208
6	1	5	0.079108	1.454	0.025	0.83200002
7	1	4	-0.17324799	1.493	-0.89399999	-1.123
8	1	5	0.096574999	2.589	-1.075	-1.151
9	1	5	0.096574999	1.165	-0.66000003	-2.1600001
10	1	4	-0.13338301	0.792	-2.1819999	-0.64600003
11	1	5	0.086289003	1.475	-2.747	0.025
12	1	5	0.086289003	0.59100002	-2.826	-1.53
13	1	4	-0.17324799	-0.528	-1.923	0.107
14	1	5	0.096574999	-0.31600001	-1.802	1.193
15	1	5	0.096574999	-1.186	-2.8110001	-0.0080000004
16	1	4	-0.078433	-1.24	-0.66100001	-0.414
17	1	4	0.019246999	-2.615	-0.49900001	0.26699999
18	1	3	-0.45150799	-3.3870001	0.59200001	-0.331
19	1	1	0.77969998	-4.6739998	0.96100003	0.17200001
20	1	2	-0.61914098	-5.1789999	0.359	1.156
21	1	6	0.322395	-3.0179999	1.1160001	-1.156
22	1	7	0.067285001	-2.4749999	-0.303	1.353
23	1	7	0.067285001	-3.1949999	-1.442	0.15899999
24	1	5	0.079108	-1.416	-0.80500001	-1.505
25	1	4	-0.180401	-0.354	0.602	-0.219
26	1	5	0.101987	-0.59200001	1.317	-1.0369999
27	1	5	0.101987	-0.60799998	1.11	0.73799998
28	1	7	0.061863001	1.768	1.796	-1.678
29	1	7	0.061863001	1.643	2.4300001	-0.0060000001
30	1	6	0.314569	4.0110002	1.255	-1.273
31	1	8	-0.486617	-5.1999998	1.734	-0.278
32	1	4	0.090517998	-6.552	1.535	0.035999998
33	1	4	-0.072934002	-7.1409998	0.36700001	-0.77999997
34	1	5	0.086645998	-6.5679998	-0.54799998	-0.509
35	1	4	-0.16437	-8.6219997	0.107	-0.39399999
36	1	5	0.096142001	-8.8260002	0.426	0.65100002
37	1	5	0.096142001	-8.8249998	-0.986	-0.43700001
38	1	4	-0.163939	-9.5970001	0.81800002	-1.342
39	1	5	0.096763998	-10.637	0.66299999	-0.98100001
40	1	5	0.096763998	-9.4029999	1.9119999	-1.29
41	1	4	-0.072129004	-9.434	0.34099999	-2.813
42	1	4	0.017821999	-10.459	-0.74800003	-3.175
43	1	8	-0.144968	-11.757	-0.221	-3.1300001
44	1	7	0.097482003	-10.372	-1.601	-2.464
45	1	7	0.097482003	-10.255	-1.1210001	-4.204
46	1	5	0.089652002	-9.6339998	1.217	-3.471
47	1	4	-0.163939	-7.9980001	-0.155	-3.1210001
48	1	5	0.096763998	-7.7849998	-0.023	-4.204
49	1	5	0.096763998	-7.8990002	-1.24	-2.8900001
50	1	4	-0.16437	-6.9559999	0.611	-2.3010001
51	1	5	0.096142001	-7.0489998	1.694	-2.5409999
52	1	5	0.096142001	-5.9369998	0.287	-2.6070001
53	1	7	0.097406998	-7.1100001	2.47	-0.18799999
54	1	7	0.097406998	-6.658	1.335	1.127
55	1	1	0.54092199	5.098	1.193	0.93599999
56	1	2	-0.69468498	5.5289998	0.089000002	1.362
57	1	3	-0.496966	6	2.2349999	0.55400002
58	1	4	0.022568	7.4510002	2.056	0.62800002
59	1	4	-0.078808002	8.2060003	3.3469999	0.23800001
60	1	5	0.079108	7.8600001	3.642	-0.778
61	1	4	-0.17324799	7.869	4.5040002	1.2180001
62	1	5	0.096574999	6.927	5.0009999	0.89999998
63	1	5	0.096574999	7.7090001	4.1149998	2.2479999
64	1	4	-0.13349099	8.9870005	5.5489998	1.268
65	1	5	0.086289003	9.1330004	5.9679999	0.24699999
66	1	5	0.086289003	8.6850004	6.3870001	1.933
67	1	4	-0.16896801	10.313	4.9439998	1.772
68	1	5	0.096941002	11.147	5.526	1.3200001
69	1	5	0.096941002	10.38	5.079	2.8740001
70	1	4	-0.055057999	10.466	3.4349999	1.449
71	1	4	0.168143	11.953	3.043	1.393
72	1	3	-0.63235801	12.093	1.592	1.3
73	1	9	0.59848899	12.71	0.91600001	2.184
74	1	2	-0.47908601	13.31	0.25799999	3.0439999
75	1	7	0.060614999	12.436	3.507	0.50599998
76	1	7	0.060614999	12.471	3.428	2.302
77	1	5	0.082576998	9.9949999	2.855	2.2750001
78	1	4	-0.17611	9.7349997	3.0840001	0.13699999
79	1	5	0.102375	9.9309998	2.026	-0.146
80	1	5	0.102375	10.155	3.7090001	-0.68199998
81	1	7	0.061863001	7.737	1.234	-0.063000001
82	1	7	0.061863001	7.7360001	1.7539999	1.66
83	1	6	0.314569	5.5900002	3.1259999	0.19499999
84	1	8	-0.144968	-12.367	-0.97100002	-3.355
85	1	4	0.017821999	-13.639	-0.41100001	-3.5469999
86	1	4	-0.072129004	-14.273	-0.011	-2.2
87	1	5	0.089652002	-13.608	0.75099999	-1.734
88	1	4	-0.16315299	-15.656	0.66100001	-2.4119999
89	1	5	0.096763998	-15.713	1.155	-3.4059999
90	1	5	0.096763998	-15.793	1.4630001	-1.653
91	1	4	-0.156093	-16.809999	-0.34	-2.273
92	1	5	0.096763998	-17.768999	0.17200001	-2.507
93	1	5	0.096763998	-16.68	-1.1339999	-3.0409999
94	1	4	-0.113552	-16.849001	-0.995	-0.86400002
95	1	4	0.079940997	-17.848	-0.28400001	0.066
96	1	10	-0.67217898	-19.153	-0.442	-0.41800001
97	1	11	0.38023499	-19.742001	0.050000001	0.211
98	1	7	0.086240001	-17.597	0.79900002	0.133
99	1	7	0.086240001	-17.783001	-0.727	1.086
100	1	5	0.093252003	-17.205	-2.0420001	-0.99299997
101	1	4	-0.156093	-15.451	-1.056	-0.198
102	1	5	0.096763998	-15.419	-1.906	0.51899999
103	1	5	0.096763998	-15.248	-0.125	0.37799999
104	1	4	-0.16315299	-14.344	-1.23	-1.242
105	1	5	0.096763998	-14.541	-2.1659999	-1.8099999
106	1	5	0.096763998	-13.367	-1.352	-0.72500002
107	1	7	0.097482003	-14.282	-1.158	-4.059
108	1	7	0.097482003	-13.56	0.477	-4.2150002

Bonds

1	1	1	2
2	2	1	3
3	3	1	55
4	4	3	4
5	5	3	30
6	6	4	5
7	7	4	28
8	7	4	29
9	7	5	6
10	6	5	7
11	6	5	25
12	7	7	8
13	7	7	9
14	6	7	10
15	7	10	11
16	7	10	12
17	6	10	13
18	7	13	14
19	7	13	15
20	6	13	16
21	6	16	17
22	7	16	24
23	6	16	25
24	4	17	18
25	7	17	22
26	7	17	23
27	2	18	19
28	5	18	21
29	1	19	20
30	8	19	31
31	7	25	26
32	7	25	27
33	9	31	32
34	6	32	33
35	7	32	53
36	7	32	54
37	7	33	34
38	6	33	35
39	6	33	50
40	7	35	36
41	7	35	37
42	6	35	38
43	7	38	39
44	7	38	40
45	6	38	41
46	6	41	42
47	7	41	46
48	6	41	47
49	9	42	43
50	7	42	44
51	7	42	45
52	10	43	84
53	7	47	48
54	7	47	49
55	6	47	50
56	7	50	51
57	7	50	52
58	1	55	56
59	2	55	57
60	4	57	58
61	5	57	83
62	6	58	59
63	7	58	81
64	7	58	82
65	7	59	60
66	6	59	61
67	6	59	78
68	7	61	62
69	7	61	63
70	6	61	64
71	7	64	65
72	7	64	66
73	6	64	67
74	7	67	68
75	7	67	69
76	6	67	70
77	6	70	71
78	7	70	77
79	6	70	78
80	11	71	72
81	7	71	75
82	7	71	76
83	12	72	73
84	1	73	74
85	7	78	79
86	7	78	80
87	9	84	85
88	6	85	86
89	7	85	107
90	7	85	108
91	7	86	87
92	6	86	88
93	6	86	104
94	7	88	89
95	7	88	90
96	6	88	91
97	7	91	92
98	7	91	93
99	6	91	94
100	6	94	95
101	7	94	100
102	6	94	101
103	13	95	96
104	7	95	98
105	7	95	99
106	14	96	97
107	7	101	102
108	7	101	103
109	6	101	104
110	7	104	105
111	7	104	106

Angles

1	4	96	95	98
2	4	38	41	47
3	4	70	78	80
4	3	2	1	3
5	4	88	91	93
6	4	41	47	50
7	4	67	70	78
8	3	1	55	56
9	4	42	41	46
10	4	64	67	69
11	3	18	19	31
12	4	68	67	70
13	4	33	50	51
14	4	5	25	27
15	4	37	35	38
16	4	71	70	77
17	4	32	33	35
18	4	3	4	5
19	2	19	18	21
20	4	49	47	50
21	4	61	64	65
22	4	86	88	91
23	1	17	18	19
24	4	33	50	47
25	4	5	4	28
26	5	53	32	54
27	3	3	1	55
28	4	47	50	51
29	4	84	85	86
30	4	43	42	44
31	4	88	91	94
32	3	1	55	57
33	6	43	84	85
34	4	70	71	75
35	4	58	59	78
36	4	72	71	75
37	4	31	32	33
38	4	10	13	16
39	5	92	91	93
40	4	7	10	11
41	4	4	5	6
42	4	86	104	101
43	4	57	58	59
44	6	95	96	97
45	4	59	78	79
46	4	91	94	100
47	4	14	13	16
48	4	61	64	66
49	3	2	1	55
50	4	86	85	107
51	4	12	10	13
52	4	6	5	7
53	4	69	67	70
54	4	90	88	91
55	4	85	86	104
56	4	85	86	88
57	4	3	4	29
58	5	39	38	40
59	4	46	41	47
60	4	67	70	71
61	4	16	17	23
62	4	5	7	8
63	4	7	5	25
64	4	7	10	12
65	5	81	58	82
66	7	20	19	31
67	4	91	94	101
68	4	94	95	96
69	4	6	5	25
70	4	94	101	102
71	4	70	71	72
72	5	22	17	23
73	4	8	7	10
74	4	86	85	108
75	5	8	7	9
76	4	13	16	24
77	3	18	19	20
78	4	40	38	41
79	4	95	94	100
80	4	5	25	16
81	4	101	104	105
82	4	41	42	43
83	4	35	38	39
84	4	86	104	105
85	4	39	38	41
86	6	42	43	84
87	4	5	7	10
88	4	96	95	99
89	4	86	88	89
90	4	5	7	9
91	4	61	59	78
92	4	42	41	47
93	5	44	42	45
94	4	64	67	70
95	4	16	25	26
96	4	9	7	10
97	4	59	61	62
98	4	84	85	107
99	4	71	70	78
100	4	35	38	40
101	4	33	35	36
102	5	26	25	27
103	5	75	71	76
104	4	87	86	88
105	4	5	4	29
106	4	43	42	45
107	4	70	71	76
108	4	15	13	16
109	4	16	25	27
110	4	72	71	76
111	4	92	91	94
112	4	60	59	61
113	4	4	5	7
114	4	13	16	17
115	5	89	88	90
116	4	31	32	53
117	4	59	78	80
118	4	24	16	25
119	4	33	35	37
120	4	33	32	53
121	4	33	50	52
122	4	41	47	48
123	4	61	64	67
124	2	17	18	21
125	5	62	61	63
126	5	65	64	66
127	4	103	101	104
128	5	11	10	12
129	2	1	3	30
130	5	48	47	49
131	4	57	58	81
132	5	107	85	108
133	4	47	50	52
134	4	7	10	13
135	4	34	33	50
136	4	94	101	103
137	4	100	94	101
138	4	58	59	60
139	4	31	32	54
140	4	88	91	92
141	4	33	32	54
142	4	41	47	49
143	4	60	59	78
144	1	55	57	58
145	4	13	16	25
146	2	55	57	83
147	4	95	94	101
148	4	10	13	14
149	4	101	104	106
150	5	102	101	103
151	4	38	41	42
152	4	41	42	44
153	4	62	61	64
154	9	72	73	74
155	4	17	16	24
156	4	86	104	106
157	4	57	58	82
158	4	86	88	90
159	4	87	86	104
160	4	94	101	104
161	4	66	64	67
162	4	58	59	61
163	2	58	57	83
164	6	19	31	32
165	5	36	35	37
166	4	94	95	98
167	5	51	50	52
168	4	63	61	64
169	4	59	61	63
170	5	105	104	106
171	4	10	13	15
172	4	84	85	108
173	4	102	101	104
174	4	41	42	45
175	4	18	17	22
176	4	35	38	41
177	4	17	16	25
178	8	71	72	73
179	5	14	13	15
180	4	88	86	104
181	4	59	58	81
182	4	93	91	94
183	4	36	35	38
184	4	4	5	25
185	4	94	95	99
186	4	85	86	87
187	4	3	4	28
188	4	91	94	95
189	5	98	95	99
190	4	59	61	64
191	4	16	17	22
192	3	56	55	57
193	5	28	4	29
194	4	38	41	46
195	4	89	88	91
196	4	18	17	23
197	4	70	78	79
198	4	33	35	38
199	2	4	3	30
200	4	35	33	50
201	4	59	78	70
202	4	64	67	68
203	4	67	70	77
204	5	68	67	69
205	4	5	25	26
206	4	16	17	18
207	4	59	58	82
208	4	32	33	34
209	1	1	3	4
210	4	65	64	67
211	4	11	10	13
212	4	77	70	78
213	4	34	33	35
214	4	48	47	50
215	5	79	78	80
216	4	32	33	50

Dihedrals

1	15	88	91	94	100
2	15	32	33	50	52
3	5	29	4	3	30
3	6	29	4	3	30
4	19	44	42	41	46
5	15	104	86	85	108
6	15	35	33	32	54
7	16	42	41	47	50
7	17	42	41	47	50
7	18	42	41	47	50
8	19	62	61	64	65
9	15	4	5	25	27
10	15	7	5	4	29
11	15	86	104	101	103
12	14	3	4	5	7
13	19	60	59	58	81
14	15	14	13	16	17
15	19	24	16	25	27
16	15	50	33	32	54
17	15	38	41	42	44
18	19	87	86	85	107
19	15	8	7	5	25
20	15	91	94	101	102
21	15	63	61	59	78
22	19	34	33	32	53
23	14	57	58	59	61
24	15	41	47	50	52
25	16	86	88	91	94
25	17	86	88	91	94
25	18	86	88	91	94
26	15	85	86	88	89
27	33	94	95	96	97
27	34	94	95	96	97
28	15	94	101	104	105
29	19	93	91	94	100
30	5	5	4	3	30
30	6	5	4	3	30
31	15	33	50	47	49
32	15	34	33	35	38
33	15	88	86	85	108
34	15	38	41	47	49
35	15	87	86	88	91
36	19	23	17	16	24
37	15	88	86	104	105
38	15	4	5	7	9
39	7	17	18	19	31
39	8	17	18	19	31
40	11	2	1	3	30
40	12	2	1	3	30
41	19	102	101	104	106
42	19	6	5	25	26
43	19	48	47	50	52
44	15	60	59	78	70
45	21	19	31	32	33
45	22	19	31	32	33
46	16	58	59	78	70
46	17	58	59	78	70
46	18	58	59	78	70
47	14	72	71	70	78
48	19	49	47	50	51
49	14	18	17	16	25
50	15	5	7	10	12
51	15	13	16	25	27
52	16	32	33	50	47
52	17	32	33	50	47
52	18	32	33	50	47
53	15	95	94	101	102
54	19	12	10	13	14
55	15	91	94	95	98
56	19	92	91	94	100
57	15	17	16	25	27
58	15	63	61	64	67
59	15	104	86	85	107
60	19	68	67	70	77
61	15	89	88	91	94
62	15	35	33	32	53
63	15	42	41	47	49
64	15	7	5	4	28
65	19	98	95	94	100
66	16	10	7	5	25
66	17	10	7	5	25
66	18	10	7	5	25
67	15	50	33	32	53
68	14	38	41	42	43
69	5	59	58	57	83
69	6	59	58	57	83
70	15	61	59	78	79
71	7	1	55	57	83
71	8	1	55	57	83
72	16	59	61	64	67
72	17	59	61	64	67
72	18	59	61	64	67
73	15	100	94	101	104
74	16	86	104	101	94
74	17	86	104	101	94
74	18	86	104	101	94
75	32	71	72	73	74
76	1	16	17	18	19
76	2	16	17	18	19
76	3	16	17	18	19
76	4	16	17	18	19
77	13	2	1	55	56
78	19	65	64	67	69
79	19	66	64	67	68
80	15	61	64	67	68
81	14	57	58	59	60
82	15	76	71	70	78
83	16	91	94	101	104
83	17	91	94	101	104
83	18	91	94	101	104
84	19	36	35	38	40
85	23	19	31	32	54
86	19	34	33	50	52
87	15	88	86	85	107
88	19	6	5	4	29
89	15	38	41	47	48
90	15	9	7	5	25
91	14	43	42	41	47
92	19	49	47	50	52
93	15	35	38	41	46
94	15	32	33	35	37
95	1	55	57	58	59
95	2	55	57	58	59
95	3	55	57	58	59
95	4	55	57	58	59
96	15	4	5	7	8
97	5	82	58	57	83
97	6	82	58	57	83
98	15	64	67	70	77
99	19	60	59	78	80
100	15	90	88	86	104
101	15	22	17	16	25
102	14	72	71	70	77
103	15	60	59	61	64
104	14	18	17	16	24
105	15	13	16	25	26
106	15	35	33	50	51
107	16	58	59	61	64
107	17	58	59	61	64
107	18	58	59	61	64
108	7	4	3	1	55
108	8	4	3	1	55
109	16	95	94	101	104
109	17	95	94	101	104
109	18	95	94	101	104
110	15	17	16	25	26
111	15	85	86	104	105
112	19	63	61	64	66
113	15	40	38	41	47
114	19	103	101	104	106
115	19	89	88	91	93
116	15	42	41	47	48
117	15	62	61	59	78
118	23	43	84	85	86
119	16	4	5	25	16
119	17	4	5	25	16
119	18	4	5	25	16
120	15	37	35	33	50
121	15	89	88	86	104
122	15	9	7	10	13
123	19	100	94	101	102
124	15	45	42	41	47
125	15	33	35	38	39
126	19	8	7	10	12
127	15	59	61	64	66
128	19	65	64	67	68
129	16	64	61	59	78
129	17	64	61	59	78
129	18	64	61	59	78
130	15	34	33	50	47
131	5	21	18	17	23
131	6	21	18	17	23
132	15	62	61	64	67
133	15	91	94	101	103
134	19	37	35	38	39
135	13	3	1	55	57
136	19	36	35	38	39
137	28	31	32	33	34
137	29	31	32	33	34
138	19	46	41	47	48
139	19	6	5	4	28
140	15	87	86	104	101
141	28	43	42	41	46
141	29	43	42	41	46
142	35	97	96	95	98
143	23	45	42	43	84
144	26	20	19	31	32
144	27	20	19	31	32
145	15	7	10	13	15
146	16	59	78	70	71
146	17	59	78	70	71
146	18	59	78	70	71
147	15	90	88	91	94
148	15	32	33	35	36
149	15	35	33	50	52
150	16	88	91	94	95
150	17	88	91	94	95
150	18	88	91	94	95
151	7	17	18	19	20
151	8	17	18	19	20
152	19	34	33	50	51
153	19	60	59	78	79
154	11	56	55	57	83
154	12	56	55	57	83
155	5	19	18	17	22
155	6	19	18	17	22
156	15	58	59	78	79
157	16	85	86	88	91
157	17	85	86	88	91
157	18	85	86	88	91
158	19	60	59	61	63
159	15	67	70	71	76
160	16	10	13	16	25
160	17	10	13	16	25
160	18	10	13	16	25
161	19	77	70	78	79
162	31	73	72	71	76
163	15	7	5	25	27
164	15	58	59	61	63
165	15	78	59	58	82
166	5	55	57	58	82
166	6	55	57	58	82
167	15	95	94	101	103
168	16	91	88	86	104
168	17	91	88	86	104
168	18	91	88	86	104
169	15	75	71	70	78
170	19	87	86	104	106
171	15	99	95	94	101
172	19	40	38	41	46
173	19	103	101	104	105
174	15	4	5	25	26
175	14	3	4	5	6
176	24	20	19	18	21
176	25	20	19	18	21
177	15	39	38	41	47
178	15	13	16	17	23
179	23	43	84	85	108
180	15	14	13	16	25
181	19	24	16	25	26
182	19	9	7	10	12
183	15	59	78	70	77
184	15	12	10	13	16
185	16	35	38	41	42
185	17	35	38	41	42
185	18	35	38	41	42
186	19	8	7	10	11
187	15	25	5	4	29
188	7	21	18	19	31
188	8	21	18	19	31
189	16	88	91	94	101
189	17	88	91	94	101
189	18	88	91	94	101
190	15	6	5	7	10
191	5	21	18	17	22
191	6	21	18	17	22
192	19	62	61	64	66
193	15	86	88	91	93
194	14	84	85	86	104
195	13	3	1	55	56
196	16	88	86	104	101
196	17	88	86	104	101
196	18	88	86	104	101
197	15	5	25	16	24
198	15	33	50	47	48
199	19	34	33	35	37
200	16	35	33	50	47
200	17	35	33	50	47
200	18	35	33	50	47
201	19	87	86	88	90
202	15	38	41	42	45
203	15	7	10	13	14
204	19	87	86	85	108
205	19	90	88	91	93
206	15	92	91	94	95
207	5	16	17	18	21
207	6	16	17	18	21
208	15	66	64	67	70
209	19	102	101	104	105
210	16	61	64	67	70
210	17	61	64	67	70
210	18	61	64	67	70
211	15	85	86	88	90
212	19	60	59	61	62
213	14	3	4	5	25
214	15	5	7	10	11
215	15	10	13	16	24
216	16	5	25	16	17
216	17	5	25	16	17
216	18	5	25	16	17
217	15	11	10	13	16
218	16	33	50	47	41
218	17	33	50	47	41
218	18	33	50	47	41
219	15	23	17	16	25
220	15	88	86	104	106
221	31	73	72	71	75
222	15	78	59	58	81
223	5	55	57	58	81
223	6	55	57	58	81
224	7	30	3	1	55
224	8	30	3	1	55
225	19	75	71	70	77
226	19	87	86	104	105
227	7	1	55	57	58
227	8	1	55	57	58
228	23	44	42	43	84
229	15	67	70	78	80
230	15	61	59	58	82
231	16	38	35	33	50
231	17	38	35	33	50
231	18	38	35	33	50
232	14	31	32	33	50
233	15	13	16	17	22
234	15	36	35	33	50
235	23	43	84	85	107
236	16	10	13	16	17
236	17	10	13	16	17
236	18	10	13	16	17
237	19	12	10	13	15
238	16	59	78	70	67
238	17	59	78	70	67
238	18	59	78	70	67
239	15	91	94	95	99
240	15	92	91	94	101
241	15	86	104	101	102
242	19	100	94	101	103
243	15	69	67	70	78
244	15	68	67	70	78
245	9	2	1	3	4
245	10	2	1	3	4
246	19	76	71	70	77
247	15	86	88	91	92
248	30	42	43	84	85
249	15	98	95	94	101
250	14	67	70	71	72
251	14	96	95	94	101
252	19	34	33	35	36
253	23	19	31	32	53
254	19	87	86	88	89
255	15	61	59	78	80
256	16	33	35	38	41
256	17	33	35	38	41
256	18	33	35	38	41
257	19	90	88	91	92
258	1	1	3	4	5
258	2	1	3	4	5
258	3	1	3	4	5
258	4	1	3	4	5
259	13	2	1	55	57
260	15	65	64	67	70
261	19	66	64	67	69
262	15	69	67	70	71
263	15	61	64	67	69
264	15	15	13	16	25
265	15	40	38	41	42
266	15	68	67	70	71
267	19	22	17	16	24
268	15	37	35	38	41
269	5	28	4	3	30
269	6	28	4	3	30
270	15	36	35	38	41
271	31	70	71	72	73
272	15	46	41	47	50
273	19	11	10	13	15
274	16	85	86	104	101
274	17	85	86	104	101
274	18	85	86	104	101
275	5	1	3	4	29
275	6	1	3	4	29
276	19	6	5	7	9
277	16	35	38	41	47
277	17	35	38	41	47
277	18	35	38	41	47
278	16	7	5	25	16
278	17	7	5	25	16
278	18	7	5	25	16
279	14	91	94	95	96
280	16	32	33	35	38
280	17	32	33	35	38
280	18	32	33	35	38
281	15	71	70	78	80
282	16	64	67	70	78
282	17	64	67	70	78
282	18	64	67	70	78
283	19	63	61	64	65
284	15	67	70	78	79
285	14	84	85	86	88
286	19	89	88	91	92
287	15	61	59	58	81
288	5	81	58	57	83
288	6	81	58	57	83
289	15	93	91	94	95
290	19	45	42	41	46
291	20	18	19	31	32
292	15	59	61	64	65
293	15	85	86	104	106
294	15	44	42	41	47
295	19	69	67	70	77
296	14	57	58	59	78
297	16	64	67	70	71
297	17	64	67	70	71
297	18	64	67	70	71
298	16	4	5	7	10
298	17	4	5	7	10
298	18	4	5	7	10
299	9	56	55	57	58
299	10	56	55	57	58
300	23	41	42	43	84
301	28	96	95	94	100
301	29	96	95	94	100
302	15	32	33	50	51
303	19	60	59	58	82
304	16	5	25	16	13
304	17	5	25	16	13
304	18	5	25	16	13
305	15	33	35	38	40
306	16	61	59	78	70
306	17	61	59	78	70
306	18	61	59	78	70
307	15	8	7	10	13
308	19	15	13	16	24
309	19	34	33	32	54
310	19	37	35	38	40
311	15	67	70	71	75
312	15	94	101	104	106
313	15	39	38	41	42
314	15	93	91	94	101
315	14	13	16	17	18
316	14	31	32	33	35
317	19	46	41	47	49
318	19	11	10	13	14
319	16	38	41	47	50
319	17	38	41	47	50
319	18	38	41	47	50
320	35	97	96	95	99
321	15	41	47	50	51
322	16	7	10	13	16
322	17	7	10	13	16
322	18	7	10	13	16
323	15	7	5	25	26
324	5	1	3	4	28
324	6	1	3	4	28
325	19	6	5	7	8
326	15	58	59	61	62
327	15	71	70	78	79
328	19	6	5	25	27
329	19	99	95	94	100
330	28	84	85	86	87
330	29	84	85	86	87
331	15	6	5	25	16
332	5	19	18	17	23
332	6	19	18	17	23
333	15	15	13	16	17
334	15	58	59	78	80
335	16	5	7	10	13
335	17	5	7	10	13
335	18	5	7	10	13
336	19	39	38	41	46
337	19	14	13	16	24
338	19	48	47	50	51
339	19	9	7	10	11
340	19	77	70	78	80
341	15	25	5	4	28

Impropers

54	3	19	31	18	20
56	1	57	83	55	58
160	1	18	19	21	17
210	1	18	17	19	21
254	1	3	1	4	30
257	1	57	55	58	83
288	1	3	30	1	4
316	2	1	3	55	2
353	3	19	18	20	31
385	2	55	56	57	1
421	3	19	20	31	18
471	1	3	4	30	1
507	2	1	55	2	3
513	1	18	21	17	19
639	2	55	1	56	57
683	2	55	57	1	56
688	1	57	58	83	55
778	2	1	2	3	55
