Title

108 atoms
111 bonds
216 angles
464 dihedrals
18 impropers

11 atom types
14 bond types
9 angle types
35 dihedral types
3 improper types
-19.74200058 80.25799942 xlo xhi
-2.825999975 97.17400002 ylo yhi
-4.215000153 95.78499985 zlo zhi
0.0 0.0 0.0 xy xz yz

Masses

1	12.01078
2	15.99943
3	14.00672
4	12.01078
5	1.007947
6	1.007947
7	1.007947
8	15.99943
9	12.01078
10	15.99943
11	1.007947


Pair Coeffs

1	0.086879315	3.4806469
2	0.2102061	3.0398122
3	0.16769152	3.206876
4	0.10884061	3.3795318
5	0.015779483	2.6445434
6	0.014090815	1.1034277
7	0.016409246	2.5832257
8	0.16846514	3.0251065
9	0.21	3.3996695
10	0.20947353	2.99716
11	1.2326e-05	0.53453923

Bond Coeffs

1 harmonic	582.698766451	1.225198386222
2 harmonic	492.76746816345	1.381897776683
3 harmonic	279.1350963404	1.454628925034
4 harmonic	352.0565580496	1.450098586273
5 harmonic	505.144496193	1.019481865027
6 harmonic	264.62148576755	1.52190126495
7 harmonic	370.04670688625	1.093899492634
8 harmonic	301.15400723785	1.345741232799
9 harmonic	366.7408841747	1.425895053732
10 harmonic	300.03137914615	1.451203938761
11 harmonic	366.34047229585	1.464762957261
12 harmonic	602.81384337	1.196112346392
13 harmonic	329.96998057905	1.427343958716
14 harmonic	543.5267831885	0.9716763312559


Angle Coeffs

1 harmonic	55.42182150775	117.3465570514
2 harmonic	63.44422595415	115.5071327674
3 harmonic	57.8982893754	126.8062420451
4 harmonic	53.20531626545	116.5475862634
5 harmonic	48.776492647595	115.6030999533
6 harmonic	65.09061609600001	110.3538806181
7 harmonic	201.41175231035	127.4691416191
8 harmonic	55.07882548015	112.8714009681
9 harmonic	33.56981613361	180


Dihedral Coeffs

1 fourier 1	-0.1488678166443	4	180
2 fourier 1	-0.1230328948768	3	180
3 fourier 1	0.2939295466901	2	0
4 fourier 1	-0.3024127022865	1	0
5 fourier 1	0.182238503271	2	0
6 fourier 1	0.02972342374561	3	0
7 fourier 1	1.809047390003	2	180
8 fourier 1	-0.04816277792592	1	0
9 fourier 1	3.101948770557	2	180
10 fourier 1	-0.4252153282372	1	0
11 fourier 1	2.348375642009	2	180
12 fourier 1	1.256156174911	1	0
13 fourier 1	0.9974165607242	2	180
14 fourier 1	0.1155372516788	3	0
15 fourier 1	0.1040663847541	3	0
16 fourier 1	0.09223874044423	3	0
17 fourier 1	0.3159935921949	2	180
18 fourier 1	0.3247796806857	1	180
19 fourier 1	0.1911926717192	3	0
20 fourier 1	2.779853741805	2	180
21 fourier 1	0.1918272375143	3	0
22 fourier 1	0.9202179876409	1	180
23 fourier 1	0.0473758381877	3	0
24 fourier 1	0.4860993122944	2	180
25 fourier 1	0.8916986138746	1	0
26 fourier 1	1.163809172478	2	180
27 fourier 1	0.1679186987369	1	180
28 fourier 1	0.1115525666802	3	0
29 fourier 1	0.3432490222662	1	0
30 fourier 1	0.457973137376	1	0
31 fourier 1	-1.382973039546	1	0
32 fourier 1	0	1	0
33 fourier 1	0.3445382149273	3	0
34 fourier 1	0.1364556373303	1	0
35 fourier 1	0.3026390167484	3	0


Improper Coeffs

1 0.3333333333333333	-1	2
2 0.3666666666666667	-1	2
3 3.5	-1	2


Atoms

1	1	1	0.54092199	4.0300002	1.353	0.85900003
2	1	2	-0.69468498	3.3570001	1.548	1.906
3	1	3	-0.496966	3.405	1.35	-0.428
4	1	4	0.022568	1.9680001	1.556	-0.611
5	1	4	-0.078571998	1.1670001	0.301	-0.208
6	1	5	0.079108	1.454	0.025	0.83200002
7	1	4	-0.17324799	1.493	-0.89399999	-1.123
8	1	5	0.096574999	2.589	-1.075	-1.151
9	1	5	0.096574999	1.165	-0.66000003	-2.1600001
10	1	4	-0.13338301	0.792	-2.1819999	-0.64600003
11	1	5	0.086289003	1.475	-2.747	0.025
12	1	5	0.086289003	0.59100002	-2.826	-1.53
13	1	4	-0.17324799	-0.528	-1.923	0.107
14	1	5	0.096574999	-0.31600001	-1.802	1.193
15	1	5	0.096574999	-1.186	-2.8110001	-0.0080000004
16	1	4	-0.078433	-1.24	-0.66100001	-0.414
17	1	4	0.019246999	-2.615	-0.49900001	0.26699999
18	1	3	-0.45150799	-3.3870001	0.59200001	-0.331
19	1	1	0.77969998	-4.6739998	0.96100003	0.17200001
20	1	2	-0.61914098	-5.1789999	0.359	1.156
21	1	6	0.322395	-3.0179999	1.1160001	-1.156
22	1	7	0.067285001	-2.4749999	-0.303	1.353
23	1	7	0.067285001	-3.1949999	-1.442	0.15899999
24	1	5	0.079108	-1.416	-0.80500001	-1.505
25	1	4	-0.180401	-0.354	0.602	-0.219
26	1	5	0.101987	-0.59200001	1.317	-1.0369999
27	1	5	0.101987	-0.60799998	1.11	0.73799998
28	1	7	0.061863001	1.768	1.796	-1.678
29	1	7	0.061863001	1.643	2.4300001	-0.0060000001
30	1	6	0.314569	4.0110002	1.255	-1.273
31	1	8	-0.486617	-5.1999998	1.734	-0.278
32	1	4	0.090517998	-6.552	1.535	0.035999998
33	1	4	-0.072934002	-7.1409998	0.36700001	-0.77999997
34	1	5	0.086645998	-6.5679998	-0.54799998	-0.509
35	1	4	-0.16437	-8.6219997	0.107	-0.39399999
36	1	5	0.096142001	-8.8260002	0.426	0.65100002
37	1	5	0.096142001	-8.8249998	-0.986	-0.43700001
38	1	4	-0.163939	-9.5970001	0.81800002	-1.342
39	1	5	0.096763998	-10.637	0.66299999	-0.98100001
40	1	5	0.096763998	-9.4029999	1.9119999	-1.29
41	1	4	-0.072129004	-9.434	0.34099999	-2.813
42	1	4	0.017821999	-10.459	-0.74800003	-3.175
43	1	8	-0.144968	-11.757	-0.221	-3.1300001
44	1	7	0.097482003	-10.372	-1.601	-2.464
45	1	7	0.097482003	-10.255	-1.1210001	-4.204
46	1	5	0.089652002	-9.6339998	1.217	-3.471
47	1	4	-0.163939	-7.9980001	-0.155	-3.1210001
48	1	5	0.096763998	-7.7849998	-0.023	-4.204
49	1	5	0.096763998	-7.8990002	-1.24	-2.8900001
50	1	4	-0.16437	-6.9559999	0.611	-2.3010001
51	1	5	0.096142001	-7.0489998	1.694	-2.5409999
52	1	5	0.096142001	-5.9369998	0.287	-2.6070001
53	1	7	0.097406998	-7.1100001	2.47	-0.18799999
54	1	7	0.097406998	-6.658	1.335	1.127
55	1	1	0.54092199	5.098	1.193	0.93599999
56	1	2	-0.69468498	5.5289998	0.089000002	1.362
57	1	3	-0.496966	6	2.2349999	0.55400002
58	1	4	0.022568	7.4510002	2.056	0.62800002
59	1	4	-0.078808002	8.2060003	3.3469999	0.23800001
60	1	5	0.079108	7.8600001	3.642	-0.778
61	1	4	-0.17324799	7.869	4.5040002	1.2180001
62	1	5	0.096574999	6.927	5.0009999	0.89999998
63	1	5	0.096574999	7.7090001	4.1149998	2.2479999
64	1	4	-0.13349099	8.9870005	5.5489998	1.268
65	1	5	0.086289003	9.1330004	5.9679999	0.24699999
66	1	5	0.086289003	8.6850004	6.3870001	1.933
67	1	4	-0.16896801	10.313	4.9439998	1.772
68	1	5	0.096941002	11.147	5.526	1.3200001
69	1	5	0.096941002	10.38	5.079	2.8740001
70	1	4	-0.055057999	10.466	3.4349999	1.449
71	1	4	0.168143	11.953	3.043	1.393
72	1	3	-0.63235801	12.093	1.592	1.3
73	1	9	0.59848899	12.71	0.91600001	2.184
74	1	2	-0.47908601	13.31	0.25799999	3.0439999
75	1	7	0.060614999	12.436	3.507	0.50599998
76	1	7	0.060614999	12.471	3.428	2.302
77	1	5	0.082576998	9.9949999	2.855	2.2750001
78	1	4	-0.17611	9.7349997	3.0840001	0.13699999
79	1	5	0.102375	9.9309998	2.026	-0.146
80	1	5	0.102375	10.155	3.7090001	-0.68199998
81	1	7	0.061863001	7.737	1.234	-0.063000001
82	1	7	0.061863001	7.7360001	1.7539999	1.66
83	1	6	0.314569	5.5900002	3.1259999	0.19499999
84	1	8	-0.144968	-12.367	-0.97100002	-3.355
85	1	4	0.017821999	-13.639	-0.41100001	-3.5469999
86	1	4	-0.072129004	-14.273	-0.011	-2.2
87	1	5	0.089652002	-13.608	0.75099999	-1.734
88	1	4	-0.16315299	-15.656	0.66100001	-2.4119999
89	1	5	0.096763998	-15.713	1.155	-3.4059999
90	1	5	0.096763998	-15.793	1.4630001	-1.653
91	1	4	-0.156093	-16.809999	-0.34	-2.273
92	1	5	0.096763998	-17.768999	0.17200001	-2.507
93	1	5	0.096763998	-16.68	-1.1339999	-3.0409999
94	1	4	-0.113552	-16.849001	-0.995	-0.86400002
95	1	4	0.079940997	-17.848	-0.28400001	0.066
96	1	10	-0.67217898	-19.153	-0.442	-0.41800001
97	1	11	0.38023499	-19.742001	0.050000001	0.211
98	1	7	0.086240001	-17.597	0.79900002	0.133
99	1	7	0.086240001	-17.783001	-0.727	1.086
100	1	5	0.093252003	-17.205	-2.0420001	-0.99299997
101	1	4	-0.156093	-15.451	-1.056	-0.198
102	1	5	0.096763998	-15.419	-1.906	0.51899999
103	1	5	0.096763998	-15.248	-0.125	0.37799999
104	1	4	-0.16315299	-14.344	-1.23	-1.242
105	1	5	0.096763998	-14.541	-2.1659999	-1.8099999
106	1	5	0.096763998	-13.367	-1.352	-0.72500002
107	1	7	0.097482003	-14.282	-1.158	-4.059
108	1	7	0.097482003	-13.56	0.477	-4.2150002

Bonds

1	1	1	2
2	2	1	3
3	3	1	55
4	4	3	4
5	5	3	30
6	6	4	5
7	7	4	28
8	7	4	29
9	7	5	6
10	6	5	7
11	6	5	25
12	7	7	8
13	7	7	9
14	6	7	10
15	7	10	11
16	7	10	12
17	6	10	13
18	7	13	14
19	7	13	15
20	6	13	16
21	6	16	17
22	7	16	24
23	6	16	25
24	4	17	18
25	7	17	22
26	7	17	23
27	2	18	19
28	5	18	21
29	1	19	20
30	8	19	31
31	7	25	26
32	7	25	27
33	9	31	32
34	6	32	33
35	7	32	53
36	7	32	54
37	7	33	34
38	6	33	35
39	6	33	50
40	7	35	36
41	7	35	37
42	6	35	38
43	7	38	39
44	7	38	40
45	6	38	41
46	6	41	42
47	7	41	46
48	6	41	47
49	9	42	43
50	7	42	44
51	7	42	45
52	10	43	84
53	7	47	48
54	7	47	49
55	6	47	50
56	7	50	51
57	7	50	52
58	1	55	56
59	2	55	57
60	4	57	58
61	5	57	83
62	6	58	59
63	7	58	81
64	7	58	82
65	7	59	60
66	6	59	61
67	6	59	78
68	7	61	62
69	7	61	63
70	6	61	64
71	7	64	65
72	7	64	66
73	6	64	67
74	7	67	68
75	7	67	69
76	6	67	70
77	6	70	71
78	7	70	77
79	6	70	78
80	11	71	72
81	7	71	75
82	7	71	76
83	12	72	73
84	1	73	74
85	7	78	79
86	7	78	80
87	9	84	85
88	6	85	86
89	7	85	107
90	7	85	108
91	7	86	87
92	6	86	88
93	6	86	104
94	7	88	89
95	7	88	90
96	6	88	91
97	7	91	92
98	7	91	93
99	6	91	94
100	6	94	95
101	7	94	100
102	6	94	101
103	13	95	96
104	7	95	98
105	7	95	99
106	14	96	97
107	7	101	102
108	7	101	103
109	6	101	104
110	7	104	105
111	7	104	106

Angles

1	4	61	59	78
2	4	72	71	75
3	4	16	17	22
4	4	59	61	62
5	5	92	91	93
6	4	71	70	78
7	4	58	59	78
8	4	10	13	16
9	5	53	32	54
10	3	56	55	57
11	4	32	33	34
12	4	6	5	7
13	4	13	16	25
14	2	17	18	21
15	4	61	64	66
16	4	95	94	101
17	5	39	38	40
18	2	4	3	30
19	4	87	86	88
20	4	16	17	18
21	4	59	78	70
22	4	69	67	70
23	4	38	41	47
24	4	87	86	104
25	4	70	71	76
26	4	86	85	108
27	4	103	101	104
28	4	67	70	71
29	4	41	47	50
30	4	72	71	76
31	4	92	91	94
32	4	7	10	13
33	4	42	41	46
34	3	18	19	31
35	4	33	50	51
36	6	19	31	32
37	4	5	25	27
38	5	22	17	23
39	4	96	95	98
40	3	18	19	20
41	4	37	35	38
42	4	91	94	101
43	4	32	33	35
44	4	70	71	72
45	4	61	64	67
46	4	49	47	50
47	4	68	67	70
48	4	8	7	10
49	4	94	101	102
50	4	101	104	106
51	5	8	7	9
52	4	33	50	47
53	5	62	61	63
54	4	5	4	28
55	5	65	64	66
56	5	81	58	82
57	4	17	16	24
58	4	41	42	43
59	4	47	50	51
60	4	86	104	106
61	2	55	57	83
62	4	57	58	81
63	4	43	42	44
64	5	44	42	45
65	4	96	95	99
66	5	36	35	37
67	4	4	5	6
68	4	88	91	92
69	4	14	13	16
70	4	70	78	79
71	4	5	4	29
72	4	35	38	41
73	4	17	16	25
74	4	47	50	52
75	4	64	67	68
76	4	16	25	26
77	6	95	96	97
78	5	102	101	103
79	3	2	1	55
80	4	59	78	79
81	3	1	55	56
82	4	36	35	38
83	2	58	57	83
84	3	3	1	55
85	4	94	95	98
86	7	20	19	31
87	5	105	104	106
88	2	1	3	30
89	4	6	5	25
90	4	16	17	23
91	4	41	47	48
92	4	7	10	11
93	4	59	61	63
94	5	89	88	90
95	4	46	41	47
96	8	71	72	73
97	4	5	25	16
98	4	35	33	50
99	4	102	101	104
100	4	59	78	80
101	4	39	38	41
102	4	59	58	81
103	3	1	55	57
104	6	42	43	84
105	4	88	86	104
106	4	91	94	95
107	5	48	47	49
108	4	42	41	47
109	4	33	50	52
110	4	89	88	91
111	4	9	7	10
112	4	34	33	50
113	4	60	59	61
114	4	84	85	107
115	5	79	78	80
116	4	86	88	89
117	4	67	70	77
118	4	58	59	60
119	4	33	35	36
120	4	94	101	103
121	4	10	13	14
122	4	62	61	64
123	4	65	64	67
124	6	43	84	85
125	4	35	38	39
126	4	41	42	44
127	4	57	58	82
128	4	43	42	45
129	1	17	18	19
130	4	15	13	16
131	3	2	1	3
132	5	75	71	76
133	4	31	32	53
134	4	4	5	7
135	4	88	91	93
136	9	72	73	74
137	4	18	17	22
138	4	5	7	8
139	4	24	16	25
140	4	33	35	37
141	4	60	59	78
142	4	31	32	33
143	4	94	101	104
144	4	101	104	105
145	4	70	78	80
146	4	63	61	64
147	4	41	42	45
148	4	64	67	69
149	4	16	25	27
150	4	4	5	25
151	5	11	10	12
152	4	13	16	24
153	4	61	64	65
154	4	12	10	13
155	5	51	50	52
156	4	7	5	25
157	5	107	85	108
158	4	86	104	101
159	5	28	4	29
160	4	94	95	99
161	4	85	86	87
162	4	70	71	75
163	4	86	85	107
164	4	41	47	49
165	4	59	61	64
166	4	7	10	12
167	4	40	38	41
168	4	5	25	26
169	4	57	58	59
170	4	91	94	100
171	4	33	32	53
172	4	3	4	28
173	4	38	41	42
174	4	64	67	70
175	4	100	94	101
176	4	11	10	13
177	5	68	67	69
178	4	32	33	50
179	4	59	58	82
180	4	90	88	91
181	4	93	91	94
182	4	85	86	88
183	4	34	33	35
184	4	77	70	78
185	4	48	47	50
186	5	98	95	99
187	4	85	86	104
188	4	84	85	108
189	4	86	88	90
190	4	33	32	54
191	4	3	4	29
192	4	66	64	67
193	4	67	70	78
194	4	58	59	61
195	4	94	95	96
196	5	26	25	27
197	5	14	13	15
198	4	13	16	17
199	4	71	70	77
200	4	86	104	105
201	4	10	13	15
202	1	55	57	58
203	4	35	38	40
204	4	5	7	10
205	4	95	94	100
206	2	19	18	21
207	4	3	4	5
208	4	86	88	91
209	4	31	32	54
210	1	1	3	4
211	4	88	91	94
212	4	38	41	46
213	4	18	17	23
214	4	84	85	86
215	4	5	7	9
216	4	33	35	38

Dihedrals

1	16	88	86	104	101
1	17	88	86	104	101
1	18	88	86	104	101
2	15	86	104	101	102
3	15	71	70	78	80
4	15	63	61	59	78
5	15	88	86	85	107
6	15	69	67	70	71
7	19	46	41	47	48
8	19	60	59	78	80
9	19	89	88	91	92
10	19	77	70	78	79
11	15	59	61	64	66
12	19	14	13	16	24
13	15	60	59	61	64
14	31	70	71	72	73
15	5	55	57	58	81
15	6	55	57	58	81
16	15	34	33	50	47
17	19	34	33	32	53
18	19	36	35	38	40
19	15	90	88	86	104
20	5	1	3	4	28
20	6	1	3	4	28
21	15	67	70	78	79
22	15	104	86	85	108
23	16	58	59	78	70
23	17	58	59	78	70
23	18	58	59	78	70
24	14	91	94	95	96
25	15	13	16	25	26
26	19	6	5	25	27
27	15	14	13	16	17
28	15	7	5	4	28
29	19	60	59	58	81
30	19	49	47	50	52
31	19	48	47	50	52
32	15	38	41	42	44
33	19	39	38	41	46
34	15	32	33	50	52
35	16	59	78	70	71
35	17	59	78	70	71
35	18	59	78	70	71
36	15	35	33	50	51
37	15	86	88	91	93
38	19	9	7	10	11
39	15	75	71	70	78
40	15	63	61	64	67
41	16	10	7	5	25
41	17	10	7	5	25
41	18	10	7	5	25
42	19	102	101	104	106
43	19	69	67	70	77
44	5	21	18	17	23
44	6	21	18	17	23
45	19	62	61	64	66
46	15	5	7	10	11
47	15	17	16	25	26
48	15	85	86	88	90
49	15	61	59	58	82
50	16	42	41	47	50
50	17	42	41	47	50
50	18	42	41	47	50
51	15	38	41	47	49
52	19	93	91	94	100
53	15	7	10	13	15
54	31	73	72	71	75
55	19	11	10	13	15
56	16	64	67	70	78
56	17	64	67	70	78
56	18	64	67	70	78
57	5	16	17	18	21
57	6	16	17	18	21
58	30	42	43	84	85
59	15	78	59	58	81
60	19	6	5	7	9
61	15	60	59	78	70
62	15	59	61	64	65
63	16	88	91	94	101
63	17	88	91	94	101
63	18	88	91	94	101
64	15	67	70	71	75
65	13	2	1	55	57
66	16	91	88	86	104
66	17	91	88	86	104
66	18	91	88	86	104
67	15	66	64	67	70
68	19	36	35	38	39
69	16	64	67	70	71
69	17	64	67	70	71
69	18	64	67	70	71
70	28	31	32	33	34
70	29	31	32	33	34
71	15	92	91	94	101
72	15	45	42	41	47
73	23	43	84	85	108
74	16	86	104	101	94
74	17	86	104	101	94
74	18	86	104	101	94
75	14	3	4	5	6
76	15	35	33	32	54
77	19	99	95	94	100
78	16	32	33	35	38
78	17	32	33	35	38
78	18	32	33	35	38
79	15	104	86	85	107
80	16	85	86	104	101
80	17	85	86	104	101
80	18	85	86	104	101
81	19	102	101	104	105
82	15	4	5	7	9
83	7	17	18	19	20
83	8	17	18	19	20
84	19	98	95	94	100
85	16	10	13	16	17
85	17	10	13	16	17
85	18	10	13	16	17
86	15	50	33	32	54
87	19	48	47	50	51
88	14	18	17	16	25
89	14	38	41	42	43
90	15	32	33	50	51
91	19	90	88	91	92
92	7	1	55	57	83
92	8	1	55	57	83
93	19	63	61	64	66
94	15	65	64	67	70
95	9	2	1	3	4
95	10	2	1	3	4
96	20	18	19	31	32
97	15	61	64	67	69
98	5	21	18	17	22
98	6	21	18	17	22
99	14	57	58	59	61
100	15	91	94	95	99
101	19	62	61	64	65
102	15	13	16	17	23
103	15	40	38	41	42
104	15	85	86	88	89
105	33	94	95	96	97
105	34	94	95	96	97
106	19	34	33	35	36
107	15	25	5	4	29
108	15	7	10	13	14
109	19	11	10	13	14
110	15	8	7	5	25
111	13	3	1	55	57
112	5	29	4	3	30
112	6	29	4	3	30
113	15	7	5	25	27
114	15	91	94	101	102
115	19	6	5	7	8
116	14	3	4	5	25
117	15	12	10	13	16
118	15	4	5	25	27
119	15	100	94	101	104
120	7	21	18	19	31
120	8	21	18	19	31
121	19	40	38	41	46
122	15	88	91	94	100
123	14	72	71	70	78
124	15	94	101	104	106
125	19	15	13	16	24
126	19	37	35	38	40
127	35	97	96	95	98
128	14	84	85	86	88
129	11	56	55	57	83
129	12	56	55	57	83
130	15	39	38	41	42
131	16	59	78	70	67
131	17	59	78	70	67
131	18	59	78	70	67
132	16	35	33	50	47
132	17	35	33	50	47
132	18	35	33	50	47
133	19	92	91	94	100
134	19	45	42	41	46
135	23	43	84	85	107
136	16	61	59	78	70
136	17	61	59	78	70
136	18	61	59	78	70
137	15	41	47	50	51
138	14	57	58	59	78
139	15	46	41	47	50
140	15	58	59	78	79
141	15	32	33	35	37
142	15	89	88	91	94
143	19	87	86	85	108
144	5	28	4	3	30
144	6	28	4	3	30
145	15	6	5	25	16
146	5	5	4	3	30
146	6	5	4	3	30
147	15	58	59	61	63
148	15	15	13	16	17
149	15	95	94	101	103
150	15	33	35	38	39
151	19	87	86	104	106
152	19	65	64	67	69
153	15	61	64	67	68
154	15	91	94	95	98
155	19	44	42	41	46
156	15	13	16	17	22
157	15	94	101	104	105
158	15	25	5	4	28
159	14	31	32	33	50
160	15	36	35	33	50
161	19	24	16	25	27
162	15	9	7	10	13
163	15	8	7	10	13
164	19	23	17	16	24
165	15	7	5	25	26
166	15	71	70	78	79
167	19	12	10	13	15
168	15	4	5	25	26
169	19	60	59	78	79
170	19	100	94	101	103
171	24	20	19	18	21
171	25	20	19	18	21
172	16	5	7	10	13
172	17	5	7	10	13
172	18	5	7	10	13
173	23	43	84	85	86
174	19	60	59	61	63
175	19	37	35	38	39
176	15	59	78	70	77
177	16	32	33	50	47
177	17	32	33	50	47
177	18	32	33	50	47
178	15	33	50	47	49
179	16	35	38	41	47
179	17	35	38	41	47
179	18	35	38	41	47
180	15	61	59	78	80
181	15	86	104	101	103
182	26	20	19	31	32
182	27	20	19	31	32
183	19	87	86	104	105
184	5	19	18	17	23
184	6	19	18	17	23
185	5	59	58	57	83
185	6	59	58	57	83
186	16	59	61	64	67
186	17	59	61	64	67
186	18	59	61	64	67
187	19	6	5	25	26
188	15	14	13	16	25
189	15	58	59	61	62
190	15	93	91	94	95
191	19	49	47	50	51
192	15	95	94	101	102
193	15	36	35	38	41
194	15	86	88	91	92
195	19	75	71	70	77
196	5	1	3	4	29
196	6	1	3	4	29
197	15	13	16	25	27
198	15	61	59	58	81
199	15	42	41	47	49
200	15	7	5	4	29
201	19	34	33	50	52
202	15	38	41	47	48
203	14	84	85	86	104
204	15	87	86	88	91
205	15	88	86	104	106
206	15	68	67	70	78
207	15	90	88	91	94
208	15	64	67	70	77
209	19	6	5	4	29
210	15	9	7	5	25
211	19	24	16	25	26
212	19	8	7	10	12
213	14	43	42	41	47
214	5	81	58	57	83
214	6	81	58	57	83
215	19	103	101	104	106
216	16	7	5	25	16
216	17	7	5	25	16
216	18	7	5	25	16
217	16	4	5	25	16
217	17	4	5	25	16
217	18	4	5	25	16
218	15	62	61	64	67
219	16	85	86	88	91
219	17	85	86	88	91
219	18	85	86	88	91
220	14	96	95	94	101
221	19	60	59	61	62
222	13	2	1	55	56
223	15	34	33	35	38
224	1	55	57	58	59
224	2	55	57	58	59
224	3	55	57	58	59
224	4	55	57	58	59
225	19	66	64	67	69
226	15	5	25	16	24
227	16	7	10	13	16
227	17	7	10	13	16
227	18	7	10	13	16
228	31	73	72	71	76
229	15	11	10	13	16
230	15	33	50	47	48
231	15	68	67	70	71
232	15	78	59	58	82
233	11	2	1	3	30
233	12	2	1	3	30
234	15	61	59	78	79
235	16	91	94	101	104
235	17	91	94	101	104
235	18	91	94	101	104
236	7	1	55	57	58
236	8	1	55	57	58
237	15	35	33	32	53
238	5	19	18	17	22
238	6	19	18	17	22
239	15	4	5	7	8
240	14	13	16	17	18
241	15	67	70	71	76
242	16	10	13	16	25
242	17	10	13	16	25
242	18	10	13	16	25
243	15	22	17	16	25
244	15	50	33	32	53
245	15	37	35	33	50
246	14	18	17	16	24
247	16	5	25	16	17
247	17	5	25	16	17
247	18	5	25	16	17
248	16	33	50	47	41
248	17	33	50	47	41
248	18	33	50	47	41
249	14	31	32	33	35
250	23	19	31	32	54
251	15	88	86	104	105
252	19	63	61	64	65
253	32	71	72	73	74
254	14	3	4	5	7
255	15	99	95	94	101
256	14	57	58	59	60
257	15	89	88	86	104
258	19	103	101	104	105
259	15	76	71	70	78
260	23	45	42	43	84
261	16	88	91	94	95
261	17	88	91	94	95
261	18	88	91	94	95
262	15	98	95	94	101
263	15	42	41	47	48
264	19	34	33	50	51
265	23	44	42	43	84
266	19	87	86	88	90
267	16	33	35	38	41
267	17	33	35	38	41
267	18	33	35	38	41
268	19	68	67	70	77
269	19	90	88	91	93
270	19	6	5	4	28
271	1	16	17	18	19
271	2	16	17	18	19
271	3	16	17	18	19
271	4	16	17	18	19
272	9	56	55	57	58
272	10	56	55	57	58
273	13	3	1	55	56
274	19	8	7	10	11
275	15	92	91	94	95
276	28	43	42	41	46
276	29	43	42	41	46
277	16	61	64	67	70
277	17	61	64	67	70
277	18	61	64	67	70
278	15	87	86	104	101
279	14	72	71	70	77
280	28	96	95	94	100
280	29	96	95	94	100
281	19	34	33	35	37
282	19	66	64	67	68
283	28	84	85	86	87
283	29	84	85	86	87
284	15	85	86	104	106
285	15	91	94	101	103
286	15	88	86	85	108
287	19	46	41	47	49
288	15	32	33	35	36
289	19	89	88	91	93
290	7	30	3	1	55
290	8	30	3	1	55
291	1	1	3	4	5
291	2	1	3	4	5
291	3	1	3	4	5
291	4	1	3	4	5
292	15	62	61	59	78
293	19	87	86	85	107
294	19	77	70	78	80
295	15	40	38	41	47
296	15	15	13	16	25
297	5	55	57	58	82
297	6	55	57	58	82
298	15	10	13	16	24
299	19	22	17	16	24
300	5	82	58	57	83
300	6	82	58	57	83
301	15	37	35	38	41
302	35	97	96	95	99
303	7	4	3	1	55
303	8	4	3	1	55
304	23	41	42	43	84
305	19	34	33	32	54
306	23	19	31	32	53
307	15	41	47	50	52
308	21	19	31	32	33
308	22	19	31	32	33
309	19	65	64	67	68
310	15	67	70	78	80
311	15	58	59	78	80
312	19	76	71	70	77
313	15	6	5	7	10
314	7	17	18	19	31
314	8	17	18	19	31
315	16	38	35	33	50
315	17	38	35	33	50
315	18	38	35	33	50
316	16	58	59	61	64
316	17	58	59	61	64
316	18	58	59	61	64
317	19	60	59	58	82
318	15	38	41	42	45
319	16	95	94	101	104
319	17	95	94	101	104
319	18	95	94	101	104
320	19	87	86	88	89
321	15	39	38	41	47
322	15	33	35	38	40
323	15	35	33	50	52
324	16	35	38	41	42
324	17	35	38	41	42
324	18	35	38	41	42
325	16	86	88	91	94
325	17	86	88	91	94
325	18	86	88	91	94
326	19	9	7	10	12
327	15	69	67	70	78
328	19	12	10	13	14
329	15	85	86	104	105
330	19	100	94	101	102
331	15	5	7	10	12
332	15	44	42	41	47
333	15	17	16	25	27
334	14	67	70	71	72
335	16	4	5	7	10
335	17	4	5	7	10
335	18	4	5	7	10
336	16	38	41	47	50
336	17	38	41	47	50
336	18	38	41	47	50
337	15	93	91	94	101
338	16	64	61	59	78
338	17	64	61	59	78
338	18	64	61	59	78
339	16	5	25	16	13
339	17	5	25	16	13
339	18	5	25	16	13
340	15	35	38	41	46
341	15	23	17	16	25

Impropers

63	1	18	21	17	19
73	1	18	17	19	21
75	1	57	58	83	55
120	2	55	56	57	1
223	2	1	55	2	3
250	2	1	2	3	55
360	1	3	1	4	30
452	1	18	19	21	17
532	3	19	31	18	20
582	1	57	55	58	83
583	1	3	4	30	1
607	3	19	18	20	31
653	2	1	3	55	2
667	1	3	30	1	4
686	2	55	1	56	57
763	2	55	57	1	56
772	3	19	20	31	18
789	1	57	83	55	58
