Title

259 atoms
280 bonds
455 angles
707 dihedrals
408 impropers

10 atom types
14 bond types
9 angle types
19 dihedral types
3 improper types
-11.92599964 88.07400036 xlo xhi
-7.484000206 92.51599979 ylo yhi
-7.18599987 92.81400013 zlo zhi
0.0 0.0 0.0 xy xz yz

Masses

1	14.00672
2	12.01078
3	1.007947
4	15.99943
5	12.01078
6	1.007947
7	18.998403
8	15.99943
9	15.99943
10	1.007947


Pair Coeffs

1	0.16769152	3.206876
2	0.086879315	3.4806469
3	0.015611343	2.5725815
4	0.16846514	3.0251065
5	0.10884061	3.3795318
6	0.014090815	1.1034277
7	0.061	3.1181455
8	0.2102061	3.0398122
9	0.20947353	2.99716
10	1.2326e-05	0.53453923

Bond Coeffs

1 harmonic	390.03554688505	1.390160554689
2 harmonic	505.144496193	1.019481865027
3 harmonic	422.7150220147	1.421786517481
4 harmonic	360.7852444772	1.387193227181
5 harmonic	397.2545789619	1.085358495916
6 harmonic	279.1350963404	1.454628925034
7 harmonic	425.69104206635	1.362945806494
8 harmonic	289.73813263395	1.498646816465
9 harmonic	352.0565580496	1.450098586273
10 harmonic	492.76746816345	1.381897776683
11 harmonic	340.45121009905	1.358690858053
12 harmonic	582.698766451	1.225198386222
13 harmonic	385.7604595587	1.369745182308
14 harmonic	543.5267831885	0.9716763312559


Angle Coeffs

1 harmonic	57.8982893754	126.8062420451
2 harmonic	55.42182150775	117.3465570514
3 harmonic	63.44422595415	115.5071327674
4 harmonic	34.066775159195	129.1835929926
5 harmonic	65.09061609600001	110.3538806181
6 harmonic	53.20531626545	116.5475862634
7 harmonic	14.32262199324	138.3184368373
8 harmonic	39.628116874445	129.8027304608
9 harmonic	201.41175231035	127.4691416191


Dihedral Coeffs

1 fourier 1	3.661930099076	2	180
2 fourier 1	1.193093382682	2	180
3 fourier 1	0.02021088501612	1	0
4 fourier 1	1.163235555439	2	180
5 fourier 1	1.532232714475	2	180
6 fourier 1	0.02664938770063	3	0
7 fourier 1	-0.6891728821899999	2	180
8 fourier 1	0.2727846432367	1	0
9 fourier 1	1.57666786751	2	180
10 fourier 1	3.101948770557	2	180
11 fourier 1	-0.4252153282372	1	0
12 fourier 1	1.809047390003	2	180
13 fourier 1	-0.04816277792592	1	0
14 fourier 1	0.9974165607242	2	180
15 fourier 1	2.348375642009	2	180
16 fourier 1	1.256156174911	1	0
17 fourier 1	2.687457892086	2	180
18 fourier 1	2.772607909663	2	180
19 fourier 1	0.09692684957115	1	0


Improper Coeffs

1 0.3666666666666667	-1	2
2 0.3333333333333333	-1	2
3 3.5	-1	2


Atoms

1	1	1	-0.41144201	-11.091	5.553	1.375
2	1	2	0.127722	-9.9469995	4.915	0.80299997
3	1	2	-0.40568399	-9.927	3.585	0.62400001
4	1	3	0.22256599	-10.778	2.98	0.91399997
5	1	2	-0.112705	-8.7320004	2.9260001	0.052999999
6	1	3	0.204696	-8.7370005	1.847	-0.037
7	1	2	-0.127124	-7.6529999	3.6470001	-0.301
8	1	2	-0.133385	-6.4310002	2.9779999	-0.81800002
9	1	2	-0.12767901	-5.2090001	3.3800001	-0.41299999
10	1	3	0.207976	-5.0939999	4.1919999	0.28999999
11	1	2	-0.294736	-4.0009999	2.6889999	-0.89200002
12	1	3	0.22532099	-3.03	3.007	-0.53500003
13	1	2	0.330486	-4.1040001	1.653	-1.735
14	1	4	-0.270652	-2.9519999	0.97500002	-2.131
15	1	2	0.26646101	-2.3	0.021	-1.335
16	1	2	-0.29162401	-2.8659999	-0.50999999	-0.236
17	1	3	0.23218299	-3.8570001	-0.221	0.082999997
18	1	2	-0.155046	-2.148	-1.524	0.55900002
19	1	3	0.219428	-2.6600001	-1.949	1.409
20	1	2	-0.144814	-0.88999999	-1.8940001	0.236
21	1	5	0.190474	-0.131	-2.9590001	1.048
22	1	2	-0.144814	1.387	-2.723	1.0650001
23	1	2	-0.155046	2.2590001	-3.743	1.211
24	1	3	0.219428	1.918	-4.7639999	1.295
25	1	2	-0.29162401	3.714	-3.494	1.274
26	1	3	0.23218299	4.3990002	-4.3330002	1.3099999
27	1	2	0.26646101	4.1859999	-2.2420001	1.2539999
28	1	4	-0.27065301	5.5700002	-2.033	1.276
29	1	2	0.330486	6.1630001	-0.83499998	0.86199999
30	1	2	-0.294736	6.8610001	-0.119	1.753
31	1	3	0.22532099	6.9809999	-0.48100001	2.7650001
32	1	2	-0.12767901	7.4050002	1.2029999	1.3940001
33	1	3	0.207976	7.9590001	1.757	2.1440001
34	1	2	-0.133385	7.2179999	1.7029999	0.162
35	1	2	-0.127124	7.7150002	3.0539999	-0.191
36	1	2	-0.12676901	8.2810001	3.286	-1.393
37	1	3	0.204696	8.415	2.484	-2.1099999
38	1	2	-0.37367001	8.7510004	4.6399999	-1.751
39	1	3	0.218988	9.1990004	4.8010001	-2.723
40	1	2	0.19994199	8.6000004	5.658	-0.889
41	1	1	-0.53022701	9.0229998	6.9759998	-1.247
42	1	6	0.320025	9.4639997	7.1719999	-2.1719999
43	1	2	-0.37367001	7.9790001	5.4130001	0.43200001
44	1	3	0.218988	7.8590002	6.2280002	1.132
45	1	2	-0.12676901	7.5689998	4.1830001	0.76700002
46	1	3	0.204696	7.1059999	4.0229998	1.732
47	1	2	-0.055178002	6.4879999	0.889	-0.847
48	1	3	0.206985	6.3499999	1.289	-1.8430001
49	1	2	-0.32096499	6.0219998	-0.33899999	-0.54500002
50	1	5	0.76719999	5.3410001	-1.169	-1.614
51	1	7	-0.206387	5.54	-2.5179999	-1.383
52	1	7	-0.206387	5.8530002	-0.87800002	-2.868
53	1	7	-0.206387	3.9849999	-0.89999998	-1.615
54	1	2	-0.29162401	3.233	-1.1059999	1.2460001
55	1	3	0.23218299	3.596	-0.088	1.323
56	1	2	-0.155046	1.92	-1.332	1.166
57	1	3	0.219428	1.247	-0.486	1.1849999
58	1	2	0.086935997	-0.58399999	-3.0179999	2.5009999
59	1	2	-0.050058998	-0.53500003	-2.0669999	3.444
60	1	3	0.21724001	-0.13500001	-1.084	3.2320001
61	1	2	-0.265946	-1.061	-2.3870001	4.7979999
62	1	3	0.22324	-1.039	-1.633	5.573
63	1	2	-0.25053799	-1.58	-3.6040001	5.0580001
64	1	3	0.21469299	-1.9630001	-3.8329999	6.0419998
65	1	2	0.0089880005	-1.628	-4.6399999	3.9979999
66	1	3	0.22065599	-2.046	-5.6209998	4.1900001
67	1	2	-0.236212	-1.1390001	-4.322	2.802
68	1	2	0.68634897	-1.064	-5.0910001	1.594
69	1	8	-0.55164701	-1.4630001	-6.2779999	1.461
70	1	1	-0.44880599	-0.48699999	-4.3140001	0.54400003
71	1	2	0.205943	-0.207	-4.8569999	-0.76200002
72	1	2	-0.33977801	-0.81099999	-4.3629999	-1.862
73	1	3	0.20724	-1.5369999	-3.5669999	-1.788
74	1	2	-0.16403501	-0.53399998	-4.948	-3.191
75	1	3	0.232857	-0.99400002	-4.5180001	-4.0689998
76	1	2	-0.261576	0.271	-6.0110002	-3.303
77	1	3	0.227607	0.46799999	-6.4419999	-4.276
78	1	2	-0.16403501	0.88800001	-6.6030002	-2.0940001
79	1	3	0.232857	1.513	-7.4840002	-2.178
80	1	2	-0.33977801	0.65600002	-6.0609999	-0.88999999
81	1	3	0.20724	1.0779999	-6.52	-0.0089999996
82	1	2	-0.155046	-0.28799999	-1.325	-1.01
83	1	3	0.219428	0.68199998	-1.664	-1.354
84	1	2	-0.29162401	-0.95300001	-0.42300001	-1.739
85	1	3	0.23218299	-0.50800002	-0.026000001	-2.6429999
86	1	2	-0.32096401	-5.4390001	1.2180001	-2.2320001
87	1	5	0.76719999	-5.5479999	0.022	-3.151
88	1	7	-0.206387	-4.552	0.061000001	-4.1110001
89	1	7	-0.206387	-5.4029999	-1.135	-2.408
90	1	7	-0.206387	-6.7680001	-0.016000001	-3.802
91	1	2	-0.055178002	-6.54	1.837	-1.767
92	1	3	0.206985	-7.5229998	1.512	-2.0780001
93	1	2	-0.112705	-7.6890001	5.125	-0.118
94	1	3	0.204696	-6.8390002	5.7340002	-0.40900001
95	1	2	-0.40568399	-8.7690001	5.7199998	0.40400001
96	1	3	0.22256599	-8.7770004	6.7969999	0.542
97	1	6	0.373458	-11.926	5.0009999	1.66
98	1	2	0.756953	8.8610001	7.7870002	-0.579
99	1	8	-0.66714299	9.8540001	8.4689999	-0.213
100	1	2	-0.30790401	7.5050001	8.0389996	-0.043000001
101	1	2	-0.024768	6.6300001	7.0170002	-0.048999999
102	1	3	0.21956301	6.9029999	6.0549998	-0.46900001
103	1	2	-0.31195799	5.3000002	7.1539998	0.56999999
104	1	3	0.22398999	4.6240001	6.3080001	0.56800002
105	1	2	0.216028	4.9299998	8.3059998	1.135
106	1	4	-0.27580401	3.6670001	8.3909998	1.7359999
107	1	2	0.20885099	2.8959999	9.5579996	1.821
108	1	2	-0.30788299	2.076	9.7159996	2.8640001
109	1	3	0.22398999	2.023	8.9560003	3.6329999
110	1	2	-0.003021	1.225	10.914	2.973
111	1	3	0.229825	0.53899997	10.978	3.809
112	1	2	-0.18864	1.247	11.865	2.0209999
113	1	2	0.80227202	0.26300001	12.969	2.1029999
114	1	8	-0.489308	-0.21799999	13.477	1.0549999
115	1	9	-0.66505301	-0.175	13.422	3.345
116	1	10	0.418459	-0.86000001	14.165	3.415
117	1	2	-0.12235	2.1949999	11.72	0.86500001
118	1	2	0.79998499	2.3970001	12.802	-0.126
119	1	8	-0.489308	2.7119999	12.524	-1.3150001
120	1	9	-0.66505301	2.29	14.136	0.25799999
121	1	10	0.418459	2.4400001	14.883	-0.41
122	1	2	-0.080016002	2.941	10.601	0.76599997
123	1	3	0.232381	3.6159999	10.469	-0.07
124	1	2	-0.02971	5.8769999	9.4490004	1.141
125	1	3	0.21494199	5.5640001	10.379	1.6
126	1	2	-0.198494	7.0890002	9.3520002	0.55800003
127	1	2	0.57340199	7.9419999	10.559	0.45699999
128	1	8	-0.53750998	7.7329998	11.567	1.184
129	1	1	-0.41144201	-11.11	6.5840001	1.508
130	1	2	0.127722	-10.168	7.223	2.3740001
131	1	2	-0.40568399	-10.199	8.552	2.552
132	1	3	0.22256599	-10.936	9.1569996	2.0380001
133	1	2	-0.112705	-9.2069998	9.2119999	3.4300001
134	1	3	0.204696	-9.2370005	10.29	3.516
135	1	2	-0.127124	-8.2679996	8.4899998	4.0689998
136	1	2	-0.133385	-7.2360001	9.1590004	4.9029999
137	1	2	-0.12767901	-5.9499998	8.7580004	4.8509998
138	1	3	0.207976	-5.6459999	7.9450002	4.2069998
139	1	2	-0.294736	-4.921	9.448	5.645
140	1	3	0.22532099	-3.8900001	9.1309996	5.5700002
141	1	2	0.330486	-5.2529998	10.484	6.4260001
142	1	4	-0.270652	-4.2550001	11.163	7.1259999
143	1	2	0.26646101	-3.408	12.117	6.54
144	1	2	-0.29162401	-3.6489999	12.648	5.3270001
145	1	3	0.23218299	-4.5139999	12.358	4.7470002
146	1	2	-0.155046	-2.7390001	13.661	4.7620001
147	1	3	0.219428	-2.997	14.086	3.803
148	1	2	-0.144814	-1.619	14.031	5.4200001
149	1	5	0.190474	-0.66600001	15.096	4.849
150	1	2	-0.144814	0.79799998	14.86	5.2509999
151	1	2	-0.155046	1.676	15.881	5.3520002
152	1	3	0.219428	1.372	16.900999	5.177
153	1	2	-0.29162401	3.092	15.631	5.6929998
154	1	3	0.23218299	3.76	16.471001	5.848
155	1	2	0.26646101	3.54	14.38	5.8429999
156	1	4	-0.27065301	4.8769999	14.171	6.2030001
157	1	2	0.330486	5.3319998	12.972	6.7649999
158	1	2	-0.294736	6.2490001	12.257	6.1009998
159	1	3	0.22532099	6.6430001	12.618	5.1609998
160	1	2	-0.12767901	6.6719999	10.934	6.5960002
161	1	3	0.207976	7.4120002	10.381	6.0289998
162	1	2	-0.133385	6.1529999	10.435	7.7290001
163	1	2	-0.127124	6.533	9.0830002	8.2060003
164	1	2	-0.075999998	6.7449999	8.8509998	9.5170002
165	1	3	0.204696	6.6760001	9.6529999	10.243
166	1	2	-0.449864	7.098	7.4970002	9.9910002
167	1	3	0.231134	7.2610002	7.336	11.048
168	1	2	0.31986901	7.191	6.4790001	9.1210003
169	1	1	-0.84418702	7.4980001	5.1609998	9.5810003
170	1	6	0.367347	7.527	4.3660002	8.908
171	1	6	0.367347	7.6669998	4.9650002	10.592
172	1	2	-0.449864	6.9590001	6.724	7.6799998
173	1	3	0.231134	7.0359998	5.9089999	6.974
174	1	2	-0.075999998	6.6570001	7.9549999	7.2449999
175	1	3	0.204696	6.4790001	8.1140003	6.1890001
176	1	2	-0.055178002	5.1719999	11.249	8.4969997
177	1	3	0.206985	4.7649999	10.849	9.4169998
178	1	2	-0.32096499	4.8080001	12.476	8.0780001
179	1	5	0.76719999	3.859	13.307	8.9180002
180	1	7	-0.206387	4.1139998	14.656	8.75
181	1	7	-0.206387	4.0040002	13.015	10.264
182	1	7	-0.206387	2.5539999	13.037	8.5439997
183	1	2	-0.29162401	2.622	13.244	5.5869999
184	1	3	0.23218299	2.9920001	12.225	5.6129999
185	1	2	-0.155046	1.3380001	13.469	5.302
186	1	3	0.219428	0.69599998	12.624	5.0970001
187	1	2	0.086935997	-0.70099998	15.155	3.3269999
188	1	2	-0.050058998	-0.39300001	14.204	2.434
189	1	3	0.21724001	-0.067000002	13.221	2.7490001
190	1	2	-0.265946	-0.52499998	14.525	0.98799998
191	1	3	0.22324	-0.28999999	13.77	0.249
192	1	2	-0.25053799	-0.95200002	15.741	0.59399998
193	1	3	0.21469299	-1.048	15.971	-0.45699999
194	1	2	0.0089880005	-1.291	16.778	1.6
195	1	3	0.22065599	-1.6390001	17.757999	1.3
196	1	2	-0.236212	-1.15	16.459999	2.8840001
197	1	2	0.68634897	-1.4119999	17.229	4.066
198	1	8	-0.55164701	-1.832	18.415001	4.0840001
199	1	1	-0.44880599	-1.147	16.451	5.2350001
200	1	2	0.205943	-1.239	16.995001	6.5679998
201	1	2	-0.33977801	-2.1229999	16.500999	7.4580002
202	1	3	0.20724	-2.8010001	15.704	7.1859999
203	1	2	-0.16403501	-2.223	17.084999	8.8109999
204	1	3	0.232857	-2.908	16.656	9.5290003
205	1	2	-0.261576	-1.48	18.148001	9.1420002
206	1	3	0.227607	-1.5599999	18.58	10.131
207	1	2	-0.16403501	-0.55400002	18.74	8.1499996
208	1	3	0.232857	0.024	19.622	8.4040003
209	1	2	-0.33977801	-0.44400001	18.198	6.9289999
210	1	3	0.20724	0.204	18.657	6.198
211	1	2	-0.155046	-1.385	13.462	6.783
212	1	3	0.219428	-0.54799998	13.801	7.382
213	1	2	-0.29162401	-2.2249999	12.561	7.3010001
214	1	3	0.23218299	-2.0469999	12.164	8.2919998
215	1	2	-0.32096401	-6.6729999	10.919	6.5359998
216	1	5	0.76719999	-7.0310001	12.116	7.3889999
217	1	7	-0.206387	-6.3400002	12.076	8.5869999
218	1	7	-0.206387	-6.6869998	13.272	6.7150002
219	1	7	-0.206387	-8.3839998	12.153	7.678
220	1	2	-0.055178002	-7.6030002	10.301	5.7849998
221	1	3	0.206985	-8.6330004	10.625	5.8119998
222	1	2	-0.112705	-8.2519999	7.013	3.8829999
223	1	3	0.204696	-7.5159998	6.4039998	4.3969998
224	1	2	-0.40568399	-9.1459999	6.4169998	3.0829999
225	1	3	0.22256599	-9.1160002	5.3410001	2.948
226	1	6	0.373458	-11.834	7.1360002	1.0039999
227	1	2	0.58170903	8.7480001	10.607	-0.25999999
228	1	8	-0.53750998	9.6669998	9.7480001	-0.18099999
229	1	2	-0.30915099	8.7550001	11.641	-1.321
230	1	2	0.029092999	9.559	11.486	-2.392
231	1	3	0.214224	10.237	10.645	-2.4649999
232	1	2	-0.31743801	9.4910002	12.42	-3.53
233	1	3	0.22398999	10.137	12.263	-4.3839998
234	1	2	0.20885099	8.6079998	13.423	-3.5320001
235	1	4	-0.27580401	8.5550003	14.276	-4.6430001
236	1	2	0.20885099	7.4159999	14.974	-5.0669999
237	1	2	-0.30788299	7.573	16.122	-5.7309999
238	1	3	0.22398999	8.566	16.511	-5.9190001
239	1	2	-0.003021	6.4000001	16.900999	-6.1659999
240	1	3	0.229825	6.5700002	17.868	-6.625
241	1	2	-0.18864	5.1500001	16.461	-5.9219999
242	1	2	0.80227202	4.006	17.353001	-6.2220001
243	1	8	-0.489308	4.0669999	18.163	-7.1859999
244	1	9	-0.66505301	2.8740001	17.339001	-5.4130001
245	1	10	0.418459	2.092	17.955	-5.6009998
246	1	2	-0.12235	4.9650002	15.119	-5.2740002
247	1	2	0.79998499	3.638	14.469	-5.1700001
248	1	8	-0.489308	2.747	14.695	-6.0320001
249	1	9	-0.66505301	3.3829999	13.563	-4.1440001
250	1	10	0.418459	2.4860001	13.098	-4.072
251	1	2	-0.080016002	6.0489998	14.44	-4.8520002
252	1	3	0.232381	5.9380002	13.453	-4.4200001
253	1	2	-0.082916997	7.7550001	13.641	-2.3380001
254	1	3	0.232381	7.119	14.518	-2.3080001
255	1	2	-0.086291	7.8260002	12.82	-1.274
256	1	2	0.81221002	7.0279999	13.152	-0.07
257	1	8	-0.489308	7.4549999	12.871	1.081
258	1	9	-0.66505301	5.816	13.827	-0.20200001
259	1	10	0.418459	5.2680001	14.077	0.61199999

Bonds

1	1	1	2
2	2	1	97
3	3	1	129
4	4	2	3
5	4	2	95
6	5	3	4
7	4	3	5
8	5	5	6
9	4	5	7
10	6	7	8
11	4	7	93
12	4	8	9
13	4	8	91
14	5	9	10
15	4	9	11
16	5	11	12
17	4	11	13
18	7	13	14
19	4	13	86
20	7	14	15
21	4	15	16
22	4	15	84
23	5	16	17
24	4	16	18
25	5	18	19
26	4	18	20
27	8	20	21
28	4	20	82
29	8	21	22
30	8	21	58
31	9	21	70
32	4	22	23
33	4	22	56
34	5	23	24
35	4	23	25
36	5	25	26
37	4	25	27
38	7	27	28
39	4	27	54
40	7	28	29
41	4	29	30
42	4	29	49
43	5	30	31
44	4	30	32
45	5	32	33
46	4	32	34
47	6	34	35
48	4	34	47
49	4	35	36
50	4	35	45
51	5	36	37
52	4	36	38
53	5	38	39
54	4	38	40
55	1	40	41
56	4	40	43
57	2	41	42
58	10	41	98
59	5	43	44
60	4	43	45
61	5	45	46
62	5	47	48
63	4	47	49
64	8	49	50
65	11	50	51
66	11	50	52
67	11	50	53
68	5	54	55
69	4	54	56
70	5	56	57
71	4	58	59
72	4	58	67
73	5	59	60
74	4	59	61
75	5	61	62
76	4	61	63
77	5	63	64
78	4	63	65
79	5	65	66
80	4	65	67
81	6	67	68
82	12	68	69
83	10	68	70
84	1	70	71
85	4	71	72
86	4	71	80
87	5	72	73
88	4	72	74
89	5	74	75
90	4	74	76
91	5	76	77
92	4	76	78
93	5	78	79
94	4	78	80
95	5	80	81
96	5	82	83
97	4	82	84
98	5	84	85
99	8	86	87
100	4	86	91
101	11	87	88
102	11	87	89
103	11	87	90
104	5	91	92
105	5	93	94
106	4	93	95
107	5	95	96
108	12	98	99
109	6	98	100
110	4	100	101
111	4	100	126
112	5	101	102
113	4	101	103
114	5	103	104
115	4	103	105
116	7	105	106
117	4	105	124
118	7	106	107
119	4	107	108
120	4	107	122
121	5	108	109
122	4	108	110
123	5	110	111
124	4	110	112
125	6	112	113
126	4	112	117
127	12	113	114
128	13	113	115
129	14	115	116
130	6	117	118
131	4	117	122
132	12	118	119
133	13	118	120
134	14	120	121
135	5	122	123
136	5	124	125
137	4	124	126
138	6	126	127
139	12	127	128
140	6	127	227
141	1	129	130
142	2	129	226
143	4	130	131
144	4	130	224
145	5	131	132
146	4	131	133
147	5	133	134
148	4	133	135
149	6	135	136
150	4	135	222
151	4	136	137
152	4	136	220
153	5	137	138
154	4	137	139
155	5	139	140
156	4	139	141
157	7	141	142
158	4	141	215
159	7	142	143
160	4	143	144
161	4	143	213
162	5	144	145
163	4	144	146
164	5	146	147
165	4	146	148
166	8	148	149
167	4	148	211
168	8	149	150
169	8	149	187
170	9	149	199
171	4	150	151
172	4	150	185
173	5	151	152
174	4	151	153
175	5	153	154
176	4	153	155
177	7	155	156
178	4	155	183
179	7	156	157
180	4	157	158
181	4	157	178
182	5	158	159
183	4	158	160
184	5	160	161
185	4	160	162
186	6	162	163
187	4	162	176
188	4	163	164
189	4	163	174
190	5	164	165
191	4	164	166
192	5	166	167
193	4	166	168
194	1	168	169
195	4	168	172
196	2	169	170
197	2	169	171
198	5	172	173
199	4	172	174
200	5	174	175
201	5	176	177
202	4	176	178
203	8	178	179
204	11	179	180
205	11	179	181
206	11	179	182
207	5	183	184
208	4	183	185
209	5	185	186
210	4	187	188
211	4	187	196
212	5	188	189
213	4	188	190
214	5	190	191
215	4	190	192
216	5	192	193
217	4	192	194
218	5	194	195
219	4	194	196
220	6	196	197
221	12	197	198
222	10	197	199
223	1	199	200
224	4	200	201
225	4	200	209
226	5	201	202
227	4	201	203
228	5	203	204
229	4	203	205
230	5	205	206
231	4	205	207
232	5	207	208
233	4	207	209
234	5	209	210
235	5	211	212
236	4	211	213
237	5	213	214
238	8	215	216
239	4	215	220
240	11	216	217
241	11	216	218
242	11	216	219
243	5	220	221
244	5	222	223
245	4	222	224
246	5	224	225
247	12	227	228
248	6	227	229
249	4	229	230
250	4	229	255
251	5	230	231
252	4	230	232
253	5	232	233
254	4	232	234
255	7	234	235
256	4	234	253
257	7	235	236
258	4	236	237
259	4	236	251
260	5	237	238
261	4	237	239
262	5	239	240
263	4	239	241
264	6	241	242
265	4	241	246
266	12	242	243
267	13	242	244
268	14	244	245
269	6	246	247
270	4	246	251
271	12	247	248
272	13	247	249
273	14	249	250
274	5	251	252
275	5	253	254
276	4	253	255
277	6	255	256
278	12	256	257
279	13	256	258
280	14	258	259

Angles

1	1	108	110	112
2	1	35	45	43
3	4	30	32	33
4	4	234	253	254
5	1	1	2	3
6	1	41	98	99
7	1	21	20	82
8	6	49	50	53
9	1	149	148	211
10	1	13	86	87
11	1	22	23	25
12	1	58	59	61
13	6	58	21	70
14	6	20	21	22
15	4	93	95	96
16	1	188	187	196
17	4	163	174	175
18	4	168	172	173
19	1	38	40	43
20	1	139	141	215
21	1	188	190	192
22	4	195	194	196
23	8	198	197	199
24	4	148	211	212
25	4	132	131	133
26	4	150	185	186
27	4	3	5	6
28	1	103	105	106
29	3	130	129	226
30	1	106	105	124
31	1	236	237	239
32	4	158	160	161
33	1	7	8	9
34	4	26	25	27
35	1	107	122	117
36	1	246	247	249
37	1	135	222	224
38	1	130	224	222
39	3	168	169	170
40	1	14	15	16
41	1	239	241	246
42	1	118	117	122
43	4	172	174	175
44	1	255	256	257
45	6	86	87	90
46	4	73	72	74
47	3	42	41	98
48	1	59	58	67
49	2	68	70	71
50	6	148	149	150
51	6	215	216	217
52	1	35	36	38
53	1	108	107	122
54	1	117	118	119
55	4	205	207	208
56	1	40	43	45
57	4	173	172	174
58	4	12	11	13
59	9	243	242	244
60	1	8	91	86
61	3	97	1	129
62	1	99	98	100
63	5	27	28	29
64	4	152	151	153
65	4	144	146	147
66	1	158	157	178
67	1	242	241	246
68	1	8	9	11
69	4	22	56	57
70	8	67	68	69
71	1	70	71	72
72	3	2	1	97
73	6	89	87	90
74	1	150	185	183
75	6	180	179	182
76	4	202	201	203
77	7	194	196	197
78	6	49	50	52
79	4	62	61	63
80	1	124	126	127
81	4	58	59	60
82	4	211	213	214
83	1	47	49	50
84	1	187	188	190
85	4	39	38	40
86	1	30	29	49
87	4	75	74	76
88	3	1	129	226
89	1	9	8	91
90	6	88	87	90
91	1	163	164	166
92	4	188	190	191
93	6	148	149	187
94	4	212	211	213
95	1	235	236	251
96	1	5	7	8
97	6	51	50	52
98	6	217	216	219
99	4	35	45	46
100	1	20	82	84
101	1	235	234	253
102	1	98	100	126
103	1	8	7	93
104	1	199	200	209
105	1	196	197	199
106	1	135	136	137
107	1	149	150	185
108	4	189	188	190
109	1	127	227	229
110	1	34	35	36
111	1	136	135	222
112	1	133	135	222
113	6	181	179	182
114	4	34	47	48
115	1	15	16	18
116	1	164	163	174
117	4	135	222	223
118	9	257	256	258
119	1	21	22	23
120	1	7	93	95
121	4	223	222	224
122	1	25	27	28
123	5	105	106	107
124	4	83	82	84
125	4	215	220	221
126	9	119	118	120
127	4	35	36	37
128	1	235	236	237
129	4	71	72	73
130	6	150	149	199
131	1	232	234	235
132	1	162	163	174
133	4	66	65	67
134	1	112	113	115
135	4	109	108	110
136	4	101	103	104
137	1	139	141	142
138	4	233	232	234
139	1	192	194	196
140	1	23	22	56
141	1	72	74	76
142	5	118	120	121
143	4	159	158	160
144	6	20	21	58
145	4	151	153	154
146	2	21	70	71
147	4	19	18	20
148	1	11	13	14
149	1	239	241	242
150	4	78	80	81
151	1	15	84	82
152	4	117	122	123
153	1	63	65	67
154	1	143	144	146
155	1	58	67	65
156	1	32	34	47
157	1	21	22	56
158	4	131	133	134
159	1	149	150	151
160	1	2	3	5
161	2	2	1	129
162	1	59	61	63
163	4	164	166	167
164	5	242	244	245
165	1	129	130	131
166	4	9	11	12
167	1	157	178	176
168	1	71	80	78
169	1	36	38	40
170	1	41	40	43
171	1	216	215	220
172	1	106	107	122
173	4	229	230	231
174	1	130	131	133
175	2	149	199	197
176	4	15	16	17
177	1	29	30	32
178	1	156	155	183
179	6	178	179	180
180	4	177	176	178
181	1	241	246	251
182	1	230	229	255
183	2	21	70	68
184	4	79	78	80
185	1	237	239	241
186	1	76	78	80
187	1	28	29	30
188	3	40	41	42
189	1	199	200	201
190	1	18	20	21
191	4	82	84	85
192	1	162	163	164
193	4	140	139	141
194	1	253	255	256
195	5	256	258	259
196	1	136	137	139
197	4	61	63	64
198	1	201	203	205
199	4	155	183	184
200	1	187	196	197
201	4	72	74	75
202	1	227	229	255
203	4	108	110	111
204	4	134	133	135
205	1	107	108	110
206	6	218	216	219
207	1	229	255	253
208	6	215	216	219
209	1	100	101	103
210	1	135	136	220
211	4	22	23	24
212	4	154	153	155
213	1	149	187	196
214	1	106	107	108
215	4	193	192	194
216	1	150	151	153
217	1	190	192	194
218	4	2	3	4
219	1	200	201	203
220	4	222	224	225
221	4	107	122	123
222	1	236	251	246
223	1	237	236	251
224	1	16	18	20
225	4	64	63	65
226	4	143	213	214
227	4	59	61	62
228	1	137	136	220
229	1	201	200	209
230	1	30	32	34
231	1	144	143	213
232	1	234	253	255
233	1	136	220	215
234	5	141	142	143
235	4	15	84	85
236	4	36	38	39
237	1	58	67	68
238	1	203	205	207
239	5	155	156	157
240	4	240	239	241
241	1	126	127	227
242	1	101	100	126
243	4	17	16	18
244	1	100	126	124
245	1	27	54	56
246	4	236	237	238
247	1	166	168	169
248	1	246	247	248
249	1	228	227	229
250	4	231	230	232
251	2	1	129	130
252	1	187	196	194
253	7	65	67	68
254	4	8	9	10
255	1	148	211	213
256	4	33	32	34
257	1	157	178	179
258	1	156	157	178
259	6	86	87	89
260	4	204	203	205
261	1	34	35	45
262	1	3	5	7
263	1	21	58	67
264	4	71	80	81
265	4	76	78	79
266	1	156	157	158
267	1	3	2	95
268	1	112	117	122
269	4	167	166	168
270	3	170	169	171
271	1	87	86	91
272	4	40	43	44
273	4	8	91	92
274	4	254	253	255
275	1	16	15	84
276	9	114	113	115
277	4	184	183	185
278	1	142	143	213
279	1	176	178	179
280	1	163	162	176
281	4	136	137	138
282	2	149	199	200
283	4	77	76	78
284	1	158	160	162
285	4	236	251	252
286	1	18	20	82
287	1	146	148	211
288	3	168	169	171
289	1	143	213	211
290	4	190	192	193
291	1	113	112	117
292	1	70	71	80
293	1	110	112	117
294	6	180	179	181
295	4	136	220	221
296	1	247	246	251
297	6	49	50	51
298	1	162	176	178
299	6	215	216	218
300	1	98	100	101
301	1	117	118	120
302	4	44	43	45
303	4	111	110	112
304	4	191	190	192
305	1	230	232	234
306	4	187	188	189
307	1	74	76	78
308	1	157	158	160
309	1	38	40	41
310	4	200	201	202
311	6	22	21	58
312	7	149	187	188
313	4	24	23	25
314	6	88	87	89
315	4	16	18	19
316	1	144	146	148
317	4	43	45	46
318	4	163	164	165
319	1	153	155	183
320	6	217	216	218
321	1	67	68	70
322	1	241	246	247
323	4	20	82	83
324	1	229	255	256
325	1	103	105	124
326	8	196	197	198
327	4	208	207	209
328	4	203	205	206
329	1	127	227	228
330	4	138	137	139
331	6	150	149	187
332	1	126	127	128
333	2	40	41	98
334	9	248	247	249
335	4	27	54	55
336	1	25	27	54
337	1	137	139	141
338	4	246	251	252
339	1	35	34	47
340	1	142	141	215
341	4	147	146	148
342	4	183	185	186
343	1	169	168	172
344	6	51	50	53
345	4	94	93	95
346	4	7	93	94
347	4	161	160	162
348	6	86	87	88
349	1	153	155	156
350	4	60	59	61
351	1	7	8	91
352	1	13	86	91
353	1	200	209	207
354	1	23	25	27
355	1	133	135	136
356	1	100	126	127
357	4	37	36	38
358	6	148	149	199
359	1	34	47	49
360	1	32	34	35
361	1	29	49	47
362	1	112	113	114
363	1	166	168	172
364	6	178	179	182
365	4	192	194	195
366	4	238	237	239
367	1	129	130	224
368	1	28	27	54
369	4	102	101	103
370	1	5	7	93
371	4	162	176	177
372	7	21	58	59
373	1	71	72	74
374	4	63	65	66
375	4	143	144	145
376	6	52	50	53
377	4	230	232	233
378	1	163	174	172
379	4	74	76	77
380	4	157	158	159
381	1	241	242	244
382	1	105	124	126
383	1	101	103	105
384	1	131	130	224
385	5	247	249	250
386	6	20	21	70
387	1	151	153	155
388	1	41	98	100
389	1	141	215	216
390	1	112	117	118
391	4	165	164	166
392	4	4	3	5
393	1	160	162	163
394	1	227	229	230
395	4	2	95	96
396	1	11	13	86
397	5	234	235	236
398	4	86	91	92
399	1	131	133	135
400	1	168	172	174
401	4	130	131	132
402	6	22	21	70
403	4	104	103	105
404	4	29	30	31
405	4	137	139	140
406	4	125	124	126
407	4	31	30	32
408	4	10	9	11
409	1	164	166	168
410	4	48	47	49
411	1	110	112	113
412	5	113	115	116
413	1	9	11	13
414	1	1	2	95
415	4	237	239	240
416	2	197	199	200
417	1	141	215	220
418	1	160	162	176
419	1	14	15	84
420	1	146	148	149
421	1	14	13	86
422	4	23	25	26
423	1	229	230	232
424	1	128	127	227
425	4	206	205	207
426	4	6	5	7
427	4	201	203	204
428	1	72	71	80
429	1	28	29	49
430	6	178	179	181
431	1	22	56	54
432	1	232	234	253
433	1	255	256	258
434	4	107	108	109
435	6	187	149	199
436	4	54	56	57
437	1	151	150	185
438	1	142	143	144
439	4	200	209	210
440	4	100	101	102
441	1	36	35	45
442	1	205	207	209
443	1	2	95	93
444	4	55	54	56
445	4	150	151	152
446	1	29	49	50
447	1	61	63	65
448	5	13	14	15
449	1	241	242	243
450	4	105	124	125
451	4	145	144	146
452	1	155	183	185
453	4	207	209	210
454	4	130	224	225
455	8	69	68	70

Dihedrals

1	1	35	34	47	48
2	6	90	87	86	91
3	1	9	11	13	86
4	4	137	136	135	222
5	1	75	74	76	78
6	1	131	133	135	222
7	2	149	199	200	209
8	1	12	11	13	14
9	1	158	160	162	163
10	1	229	255	253	254
11	1	230	229	255	253
12	14	110	112	113	115
13	1	165	164	166	167
14	14	41	98	100	101
15	1	150	185	183	184
16	14	119	118	117	122
17	1	187	188	190	191
18	1	101	100	126	124
19	1	18	16	15	84
20	14	124	126	127	128
21	1	148	211	213	214
22	4	133	135	136	137
23	1	153	151	150	185
24	14	239	241	242	243
25	1	100	126	124	125
26	6	13	86	87	89
27	6	151	150	149	199
28	1	17	16	18	19
29	1	100	126	124	105
30	14	194	196	197	199
31	1	235	236	251	252
32	4	160	162	163	164
33	2	68	70	71	80
34	2	95	2	1	129
35	1	139	141	215	216
36	1	199	200	201	202
37	1	240	239	241	246
38	1	112	117	122	123
39	1	129	130	131	133
40	6	20	21	58	67
41	1	110	112	117	122
42	1	141	215	220	221
43	1	133	135	222	223
44	1	64	63	65	67
45	2	166	168	169	171
46	1	192	194	196	197
47	1	10	9	11	13
48	1	62	61	63	65
49	2	42	41	40	43
50	1	31	30	32	33
51	1	72	71	80	81
52	1	158	157	178	176
53	1	166	168	172	174
54	1	14	13	86	91
55	1	73	72	74	76
56	1	103	105	124	125
57	1	27	54	56	57
58	1	154	153	155	183
59	1	193	192	194	195
60	1	35	45	43	40
61	1	22	56	54	55
62	6	47	49	50	52
63	5	155	156	157	178
64	1	203	205	207	209
65	1	238	237	236	251
66	1	238	237	239	240
67	1	242	241	246	247
68	1	33	32	34	47
69	1	29	49	47	48
70	1	149	148	211	213
71	5	155	156	157	158
72	9	21	70	68	69
73	6	29	49	50	51
74	1	19	18	20	82
75	2	224	130	129	226
76	1	139	141	215	220
77	1	32	34	47	48
78	6	88	87	86	91
79	7	58	21	70	71
79	8	58	21	70	71
80	1	137	139	141	142
81	1	136	137	139	140
82	1	36	38	40	43
83	4	5	7	8	9
84	14	128	127	227	228
85	1	71	80	78	79
86	1	30	32	34	35
87	1	38	40	43	45
88	1	133	131	130	224
89	1	143	144	146	148
90	5	105	106	107	122
91	1	236	251	246	247
92	1	37	36	38	39
93	1	199	200	209	207
94	1	206	205	207	208
95	1	154	153	155	156
96	1	204	203	205	206
97	1	9	8	91	86
98	12	42	41	98	100
98	13	42	41	98	100
99	1	15	84	82	20
100	6	217	216	215	220
101	5	27	28	29	30
102	6	22	21	58	67
103	1	8	7	93	95
104	1	61	63	65	67
105	1	23	25	27	28
106	1	29	49	47	34
107	4	32	34	35	36
108	1	145	144	143	213
109	1	201	203	205	207
110	1	230	232	234	253
111	5	13	14	15	16
112	14	241	246	247	249
113	1	125	124	126	127
114	1	18	20	82	83
115	1	35	45	43	44
116	1	102	101	100	126
117	1	134	133	135	136
118	1	169	168	172	174
119	1	160	162	176	178
120	14	110	112	113	114
121	17	241	242	244	245
122	1	11	9	8	91
123	1	147	146	148	149
124	2	1	129	130	131
125	14	228	227	229	255
126	1	70	71	72	73
127	1	59	58	67	65
128	1	162	176	178	179
129	1	191	190	192	193
130	1	2	3	5	7
131	14	65	67	68	70
132	6	18	20	21	70
133	3	2	1	129	130
134	14	100	126	127	227
135	1	106	107	108	110
136	14	126	127	227	228
137	5	25	27	28	29
138	1	26	25	27	28
139	1	98	100	126	127
140	1	168	172	174	175
141	6	13	86	87	88
142	1	60	59	61	62
143	4	160	162	163	174
144	1	22	23	25	27
145	1	146	148	211	213
146	1	237	236	251	246
147	1	232	234	253	255
148	14	127	227	229	255
149	1	79	78	80	81
150	7	58	21	70	68
150	8	58	21	70	68
151	1	136	135	222	224
152	1	74	72	71	80
153	9	149	199	197	198
154	1	200	201	203	205
155	1	129	130	131	132
156	1	83	82	84	85
157	18	119	118	120	121
157	19	119	118	120	121
158	2	149	199	200	201
159	1	156	157	178	176
160	1	138	137	136	220
161	2	166	168	169	170
162	1	131	130	224	225
163	5	107	106	105	124
164	1	71	80	78	76
165	6	187	149	148	211
166	5	157	156	155	183
167	1	145	144	146	148
168	1	98	100	101	103
169	1	19	18	20	21
170	1	101	100	126	127
171	1	6	5	7	93
172	1	157	178	176	162
173	5	105	106	107	108
174	1	15	16	18	20
175	2	38	40	41	42
176	5	15	14	13	86
177	1	153	155	183	185
178	1	203	205	207	208
179	1	149	148	211	212
180	1	14	15	16	18
181	1	162	163	164	165
182	1	22	56	54	27
183	1	31	30	29	49
184	2	171	169	168	172
185	1	202	201	200	209
186	1	28	27	54	56
187	6	20	21	58	59
188	1	58	59	61	63
189	1	163	162	176	177
190	4	9	8	7	93
191	2	3	2	1	129
192	1	240	239	241	242
193	1	28	29	30	32
194	1	38	40	43	44
195	1	132	131	133	135
196	1	70	71	80	78
197	1	143	144	146	147
198	1	109	108	110	112
199	1	5	7	93	95
200	1	9	8	91	92
201	1	21	58	59	61
202	1	190	192	194	196
203	1	25	27	54	56
204	4	133	135	136	220
205	1	29	30	32	34
206	1	44	43	45	46
207	1	151	153	155	183
208	1	94	93	95	96
209	1	59	61	63	65
210	1	98	100	126	124
211	1	137	136	220	215
212	1	155	183	185	186
213	1	188	187	196	194
214	1	195	194	196	197
215	1	140	139	141	142
216	1	157	158	160	161
217	1	167	166	168	172
218	17	255	256	258	259
219	1	1	2	3	4
220	1	201	203	205	206
221	1	101	103	105	106
222	1	202	201	203	205
223	14	241	246	247	248
224	1	233	232	234	253
225	1	135	136	137	139
226	1	208	207	209	210
227	1	200	209	207	205
228	1	110	112	117	118
229	1	16	18	20	82
230	4	45	35	34	47
231	1	6	5	7	8
232	1	169	168	172	173
233	14	229	255	256	257
234	1	131	130	224	222
235	1	30	29	49	50
236	1	130	131	133	134
237	1	26	25	27	54
238	1	14	13	86	87
239	6	157	178	179	182
240	1	14	15	84	82
241	2	197	199	200	209
242	1	233	232	234	235
243	6	20	21	22	23
244	14	99	98	100	126
245	1	199	200	209	210