Title

1620 atoms
1674 bonds
2700 angles
4374 dihedrals
1458 impropers

8 atom types
12 bond types
7 angle types
23 dihedral types
2 improper types
-6.338384709 38.64230373 xlo xhi
-5.448019613 38.929868 ylo yhi
-7.999339448 40.38087801 zlo zhi
0.0 0.0 0.0 xy xz yz

Masses

1	12.01078
2	15.99943
3	1.007947
4	15.99943
5	12.01078
6	1.007947
7	15.99943
8	1.007947


Pair Coeffs

1	0.086879315	3.4806469
2	0.2102061	3.0398122
3	0.015611343	2.5725815
4	0.16846514	3.0251065
5	0.10884061	3.3795318
6	0.016409246	2.5832257
7	0.20947353	2.99716
8	1.2326e-05	0.53453923

Bond Coeffs

1 harmonic	582.698766451	1.225198386222
2 harmonic	279.1350963404	1.454628925034
3 harmonic	301.15400723785	1.345741232799
4 harmonic	399.1592953295	1.371688562017
5 harmonic	369.34270398985	1.364116986116
6 harmonic	397.2545789619	1.085358495916
7 harmonic	366.7408841747	1.425895053732
8 harmonic	264.62148576755	1.52190126495
9 harmonic	370.04670688625	1.093899492634
10 harmonic	329.96998057905	1.427343958716
11 harmonic	543.5267831885	0.9716763312559
12 harmonic	385.7604595587	1.369745182308


Angle Coeffs

1 harmonic	39.628116874445	129.8027304608
2 harmonic	65.09061609600001	110.3538806181
3 harmonic	57.8982893754	126.8062420451
4 harmonic	201.41175231035	127.4691416191
5 harmonic	79.1895422237	112.4630193006
6 harmonic	53.20531626545	116.5475862634
7 harmonic	48.776492647595	115.6030999533


Dihedral Coeffs

1 fourier 1	5.294842998052	2	180
2 fourier 1	1.659715194912	2	180
3 fourier 1	0.1918272375143	3	0
4 fourier 1	0.9202179876409	1	180
5 fourier 1	0.0473758381877	3	0
6 fourier 1	0.2347635637734	2	180
7 fourier 1	0.4747469131102	3	0
8 fourier 1	0.9974165607242	2	180
9 fourier 1	1.163809172478	2	180
10 fourier 1	0.1679186987369	1	180
11 fourier 1	2.779853741805	2	180
12 fourier 1	1.163235555439	2	180
13 fourier 1	-0.0309670556842	3	0
14 fourier 1	0.4598191477945	2	0
15 fourier 1	0.1115525666802	3	0
16 fourier 1	0.3432490222662	1	0
17 fourier 1	0.1911926717192	3	0
18 fourier 1	0.3445382149273	3	0
19 fourier 1	0.1364556373303	1	0
20 fourier 1	0.3026390167484	3	0
21 fourier 1	2.687457892086	2	180
22 fourier 1	2.772607909663	2	180
23 fourier 1	0.09692684957115	1	0


Improper Coeffs

1 0.3666666666666667	-1	2
2 3.5	-1	2


Atoms

1	1	1	0.67599564	1.948269	0.88837361	3.3337973
2	1	2	-0.51586932	2.3705206	1.8880033	2.7716807
3	1	1	0.23015308	0.5576639	0.46153707	3.1586918
4	1	1	-0.2826359	-0.008230254	-0.5913961	3.8465723
5	1	3	0.18643824	0.45568639	-1.2080258	4.6038141
6	1	1	-0.28263587	-1.272419	-0.72608144	3.3520304
7	1	3	0.18643829	-1.998875	-1.4743891	3.6374271
8	1	1	0.23015311	-1.4043843	0.23838494	2.3759281
9	1	1	0.67623263	-2.5710534	0.3287146	1.4904397
10	1	2	-0.51586932	-2.6074003	1.14624	0.5818242
11	1	4	-0.20939625	-0.30129946	0.95461822	2.2865594
12	1	4	-0.49136413	-3.5223172	-0.63464214	1.6221212
13	1	5	0.15122784	-4.3931886	-1.0746555	0.64676618
14	1	5	0.15122789	-4.1620007	-2.5778706	0.40450134
15	1	4	-0.49136407	-2.9051087	-2.7950006	-0.13274832
16	1	6	0.081371779	-4.914126	-2.919373	-0.33697125
17	1	6	0.081371779	-4.3037125	-3.1675491	1.3369251
18	1	6	0.081371779	-5.4320446	-0.91156106	0.9969825
19	1	6	0.081371779	-4.2519512	-0.52652833	-0.31187331
20	1	1	0.67623263	-1.7405429	-2.7212278	0.56336225
21	1	2	-0.51586932	-1.6522951	-3.1899801	1.6883514
22	1	1	0.23015311	-0.63241199	-1.9509251	-0.014493918
23	1	1	-0.2826359	-0.6909541	-1.3458945	-1.2426518
24	1	3	0.18643824	-1.5016155	-1.3911949	-1.9559658
25	1	1	-0.28263587	0.47422154	-0.644814	-1.3661544
26	1	3	0.18643829	0.73192659	-0.063467995	-2.2138129
27	1	1	0.23015317	1.1862181	-0.8333757	-0.19738473
28	1	1	0.67623263	2.4918659	-0.218347	0.19666137
29	1	2	-0.51586932	3.0638907	-0.72067449	1.1491789
30	1	4	-0.20939625	0.50188991	-1.6489077	0.58612052
31	1	4	-0.49136413	3.0731083	0.87744055	-0.38013834
32	1	5	0.15122784	2.5964394	1.7107569	-1.3818352
33	1	5	0.15122789	1.3467503	2.504525	-0.95331744
34	1	4	-0.49136407	0.77937245	3.1031001	-2.0712098
35	1	6	0.081371779	1.6049066	3.268312	-0.18995263
36	1	6	0.081371779	0.61750499	1.8159764	-0.47607947
37	1	6	0.081371779	3.3852639	2.4433348	-1.6548729
38	1	6	0.081371779	2.4327922	1.1131787	-2.2935094
39	1	4	-0.48761699	2.7768554	0.057966735	4.0214884
40	1	5	0.13156834	4.1254841	0.2397248	4.2348629
41	1	5	0.091016005	4.3511584	1.185086	5.4080493
42	1	7	-0.67889804	5.717359	1.2840363	5.6991419
43	1	8	0.39369177	6.1184008	1.8430647	4.9835535
44	1	6	0.089542317	3.83178	0.77489334	6.3016163
45	1	6	0.089542317	3.9215018	2.1896242	5.1987475
46	1	6	0.088386337	4.5646158	-0.74801488	4.4968623
47	1	6	0.088386337	4.6277672	0.59922247	3.3092371
48	1	1	0.67623263	-0.42327578	2.6718335	-2.5291272
49	1	2	-0.51586932	-1.4298621	2.8385485	-1.8560416
50	1	1	0.23015311	-0.42574174	1.6851891	-3.6171565
51	1	1	-0.2826359	0.61896602	1.4518233	-4.4903381
52	1	3	0.18643824	1.546116	2.0045051	-4.5650491
53	1	1	-0.28606064	0.26671551	0.33263371	-5.2063613
54	1	3	0.18643829	0.86266042	-0.16700669	-5.9589662
55	1	1	0.23778621	-0.96547273	-0.056352736	-4.7165943
56	1	1	0.72184217	-1.697068	-1.2735038	-5.0941399
57	1	2	-0.50379503	-1.240489	-2.0284831	-5.9398265
58	1	7	-0.69429732	-2.8365108	-1.5967349	-4.4461941
59	1	8	0.40152737	-3.3013148	-2.425919	-4.6279079
60	1	4	-0.21205323	-1.3647226	0.78033102	-3.7824162
61	2	1	0.67599564	0.27440652	0.70591108	20.237512
62	2	2	-0.51586932	0.94576381	1.6912439	19.969315
63	2	1	0.23015308	-0.90501425	0.36303279	19.438741
64	2	1	-0.2826359	-1.7633308	-0.66990871	19.752442
65	2	3	0.18643824	-1.7160677	-1.3276891	20.609155
66	2	1	-0.28263587	-2.6740235	-0.72175626	18.738127
67	2	3	0.18643829	-3.4816989	-1.4330761	18.634018
68	2	1	0.23015311	-2.3121656	0.2687898	17.850285
69	2	1	0.67623263	-2.9505208	0.44410239	16.540653
70	2	2	-0.51586932	-2.539876	1.2811069	15.749423
71	2	4	-0.20939625	-1.258104	0.9224762	18.296851
72	2	4	-0.49136413	-3.898511	-0.46581219	16.188987
73	2	5	0.15122784	-4.2546883	-0.8349039	14.908263
74	2	5	0.15122789	-4.0021341	-2.3435098	14.729041
75	2	4	-0.49136407	-2.6482237	-2.620928	14.803376
76	2	6	0.081371779	-4.3535487	-2.6259327	13.714722
77	2	6	0.081371779	-4.5728195	-2.943403	15.471781
78	2	6	0.081371779	-5.3321809	-0.61999579	14.762327
79	2	6	0.081371779	-3.67436	-0.27591205	14.140065
80	2	1	0.67623263	-1.9196611	-2.6283795	15.95027
81	2	2	-0.51586932	-2.3668489	-3.1247298	16.973391
82	2	1	0.23015311	-0.63897754	-1.9108429	15.965403
83	2	1	-0.2826359	-0.11317147	-1.2780177	14.869537
84	2	3	0.18643824	-0.51711809	-1.2620264	13.867234
85	2	1	-0.28263587	1.0110069	-0.64229607	15.3128
86	2	3	0.18643829	1.646659	-0.059117563	14.697374
87	2	1	0.23015317	1.1121902	-0.89555566	16.667104
88	2	1	0.67623263	2.1251354	-0.36453374	17.631576
89	2	2	-0.51586932	2.1857076	-0.91847125	18.716159
90	2	4	-0.20939625	0.11509318	-1.6867542	17.023587
91	2	4	-0.49136413	2.9489337	0.70799251	17.425822
92	2	5	0.15122784	3.0093626	1.5878764	16.354757
93	2	5	0.15122789	1.734872	2.4427156	16.212133
94	2	4	-0.49136407	1.7568942	3.0958994	14.986262
95	2	6	0.081371779	1.6534257	3.1744322	17.043216
96	2	6	0.081371779	0.84085487	1.7872098	16.280686
97	2	6	0.081371779	3.8664522	2.2796717	16.497167
98	2	6	0.081371779	3.2487983	1.0197435	15.441015
99	2	4	-0.48761699	0.66934369	-0.18465594	21.186176
100	2	5	0.13156834	1.7838727	-0.084798157	21.989431
101	2	5	0.091016005	1.4965688	0.82148185	23.179858
102	2	7	-0.67889804	2.5883372	0.83606251	24.056704
103	2	8	0.39369177	3.2914716	1.3860185	23.622464
104	2	6	0.089542317	0.61397923	0.42314747	23.72652
105	2	6	0.089542317	1.2494236	1.8530854	22.844861
106	2	6	0.088386337	2.0164518	-1.1012732	22.376465
107	2	6	0.088386337	2.6635279	0.26458018	21.404237
108	2	1	0.67623263	0.87223926	2.7437387	14.019096
109	2	2	-0.51586932	-0.32163897	2.9536937	14.176028
110	2	1	0.23015311	1.3185956	1.781715	13.002948
111	2	1	-0.2826359	2.63376	1.5072184	12.681522
112	2	3	0.18643824	3.5174665	2.0074121	13.055039
113	2	1	-0.28606064	2.5951393	0.42515305	11.834765
114	2	3	0.18643829	3.4446255	-0.091972349	11.407963
115	2	1	0.23778621	1.2593513	0.097154073	11.702261
116	2	1	0.72184217	0.72591944	-1.0680449	10.98324
117	2	2	-0.50379503	1.4823341	-1.8301285	10.399537
118	2	7	-0.69429732	-0.59559121	-1.339007	11.036448
119	2	8	0.40152737	-0.96300168	-2.1362915	10.629072
120	2	4	-0.21205323	0.51765357	0.93567007	12.39429
121	3	1	0.67599564	1.3000383	-0.73067137	36.367562
122	3	2	-0.51586932	0.27810728	-0.20935196	36.788767
123	3	1	0.23015308	1.2625662	-1.6196192	35.203517
124	3	1	-0.2826359	2.3579643	-2.3213166	34.745469
125	3	3	0.18643824	3.3502824	-2.3454183	35.173943
126	3	1	-0.28263587	1.9474936	-2.9585666	33.611312
127	3	3	0.18643829	2.554429	-3.5780996	32.965586
128	3	1	0.23015311	0.63008725	-2.5969586	33.426742
129	3	1	0.67623263	-0.13769238	-2.9496001	32.22694
130	3	2	-0.51586932	-1.2766135	-2.5345111	32.066283
131	3	4	-0.20939625	0.23004618	-1.8069571	34.403286
132	3	4	-0.49136413	0.52607958	-3.6120143	31.241591
133	3	5	0.15122784	0.23016232	-3.6008174	29.894129
134	3	5	0.15122789	1.4366031	-3.0419098	29.117007
135	3	4	-0.49136407	1.6441646	-1.7109929	29.43503
136	3	6	0.081371779	1.1972361	-3.1012437	28.03475
137	3	6	0.081371779	2.3541421	-3.6430569	29.301293
138	3	6	0.081371779	0.027087154	-4.6396607	29.565438
139	3	6	0.081371779	-0.66501449	-2.9772658	29.672267
140	3	1	0.67623263	2.18112	-1.2666853	30.601432
141	3	2	-0.51586932	3.1413745	-1.8308736	31.104145
142	3	1	0.23015311	1.5003269	-0.17560667	31.309462
143	3	1	-0.2826359	0.38163764	0.454934	30.831117
144	3	3	0.18643824	-0.10784819	0.28778282	29.882168
145	3	1	-0.28263587	-0.0080771204	1.3161111	31.816459
146	3	3	0.18643829	-0.85141187	1.9542658	31.749787
147	3	1	0.23015317	0.87712892	1.1587892	32.865352
148	3	1	0.67623263	0.84210599	1.8169504	34.208425
149	3	2	-0.51586932	1.8565534	1.7359028	34.880112
150	3	4	-0.20939625	1.7912398	0.27027065	32.515761
151	3	4	-0.49136413	-0.23237159	2.4543471	34.765664
152	3	5	0.15122784	-1.5290191	2.58835	34.290506
153	3	5	0.15122789	-2.2752311	1.2425201	34.204905
154	3	4	-0.49136407	-3.4499847	1.4157917	33.483917
155	3	6	0.081371779	-2.4939177	0.84548268	35.218452
156	3	6	0.081371779	-1.6267224	0.49170847	33.705533
157	3	6	0.081371779	-2.1026004	3.2502822	34.973379
158	3	6	0.081371779	-1.5012805	3.1249613	33.328057
159	3	4	-0.48761699	2.5218382	-0.39949313	36.864126
160	3	5	0.13156834	2.775621	0.47098781	37.901055
161	3	5	0.091016005	2.5941607	-0.23505394	39.238807
162	3	7	-0.67889804	2.9595192	0.61296306	40.291618
163	3	8	0.39369177	2.2312575	1.2816046	40.380878
164	3	6	0.089542317	3.2558782	-1.1283662	39.263243
165	3	6	0.089542317	1.5463911	-0.58691649	39.364825
166	3	6	0.088386337	3.8367978	0.7945656	37.821612
167	3	6	0.088386337	2.1374235	1.3790449	37.820767
168	3	1	0.67623263	-3.5780183	0.84819946	32.257748
169	3	2	-0.51586932	-3.6207816	-0.36843801	32.148119
170	3	1	0.23015311	-3.2700992	1.6780843	31.085674
171	3	1	-0.2826359	-3.2590975	3.0592516	31.06168
172	3	3	0.18643824	-3.553428	3.730563	31.857517
173	3	1	-0.28606064	-2.7381657	3.4091921	29.838763
174	3	3	0.18643829	-2.5449364	4.4124446	29.481899
175	3	1	0.23778621	-2.4504662	2.2198186	29.196821
176	3	1	0.72184217	-1.7686523	2.0828649	27.90237
177	3	2	-0.50379503	-1.4359145	3.0768627	27.273961
178	3	7	-0.69429732	-1.4391653	0.85543747	27.446846
179	3	8	0.40152737	-0.93060256	0.74062851	26.631498
180	3	4	-0.21205323	-2.7965889	1.2018085	29.955757
181	4	1	0.67599564	0.16260793	12.601104	-1.2770452
182	4	2	-0.51586932	0.85692834	12.343499	-0.30488782
183	4	1	0.23015308	-0.99616623	13.489446	-1.1556991
184	4	1	-0.2826359	-1.8794849	13.734166	-2.1862059
185	4	3	0.18643824	-1.8691693	13.303904	-3.1779894
186	4	1	-0.28263587	-2.7585034	14.664147	-1.7136107
187	4	3	0.18643829	-3.5731943	15.116814	-2.2618123
188	4	1	0.23015311	-2.3539239	14.951784	-0.42754447
189	4	1	0.67623263	-2.9480383	16.024064	0.37905945
190	4	2	-0.51586932	-2.5000681	16.300844	1.4826747
191	4	4	-0.20939625	-1.3046425	14.22285	-0.10283505
192	4	4	-0.49136413	-3.8981821	16.792348	-0.21865795
193	4	5	0.15122784	-4.2194525	18.098042	0.090040339
194	4	5	0.15122789	-3.9842836	18.982159	-1.1488411
195	4	4	-0.49136407	-2.6377423	19.024638	-1.4659876
196	4	6	0.081371779	-4.3078601	20.012846	-0.89373078
197	4	6	0.081371779	-4.5870773	18.635841	-2.0171268
198	4	6	0.081371779	-5.28844	18.142925	0.37939175
199	4	6	0.081371779	-3.6068411	18.486276	0.93464789
200	4	1	0.67623263	-1.945812	18.011253	-2.0495187
201	4	2	-0.51586932	-2.4324331	17.367128	-2.966808
202	4	1	0.23015311	-0.65550843	17.6238	-1.4662218
203	4	1	-0.2826359	-0.085960078	18.263646	-0.39660801
204	4	3	0.18643824	-0.4578909	19.139981	0.11500262
205	4	1	-0.28263587	1.0332269	17.544909	-0.087998632
206	4	3	0.18643829	1.6966897	17.78677	0.70207775
207	4	1	0.23015317	1.0879103	16.482258	-0.96907676
208	4	1	0.67623263	2.0779504	15.361092	-1.0015915
209	4	2	-0.51586932	2.0959735	14.68099	-2.0135061
210	4	4	-0.20939625	0.068214593	16.574994	-1.8050784
211	4	4	-0.49136413	2.9239764	15.003505	0.012145232
212	4	5	0.15122784	3.0313964	15.511078	1.2989463
213	4	5	0.15122789	1.7751275	15.246287	2.1516435
214	4	4	-0.49136407	1.845597	16.000011	3.3164727
215	4	6	0.081371779	1.6786814	14.166283	2.3904541
216	4	6	0.081371779	0.86956253	15.522693	1.5709491
217	4	6	0.081371779	3.8939707	15.033422	1.8100969
218	4	6	0.081371779	3.2908154	16.580705	1.2386998
219	4	4	-0.48761699	0.51396446	12.196518	-2.5268089
220	4	5	0.13156834	1.6040616	11.423575	-2.8608911
221	4	5	0.091016005	1.2932265	9.9489004	-2.6379115
222	4	7	-0.67889804	2.3569694	9.15351	-3.0815727
223	4	8	0.39369177	3.0816705	9.2517961	-2.4103336
224	4	6	0.089542317	0.38794179	9.6823504	-3.2260311
225	4	6	0.089542317	1.0724071	9.7457058	-1.566716
226	4	6	0.088386337	1.8089162	11.574238	-3.9436862
227	4	6	0.088386337	2.5068835	11.747632	-2.2967902
228	4	1	0.67623263	0.98656507	17.034093	3.5029689
229	4	2	-0.51586932	-0.20833874	16.819035	3.6444214
230	4	1	0.23015311	1.4500286	18.380322	3.1422058
231	4	1	-0.2826359	2.7703403	18.768038	3.0206596
232	4	3	0.18643824	3.6493415	18.180911	3.2514958
233	4	1	-0.28606064	2.7419748	20.034287	2.4866529
234	4	3	0.18643829	3.596529	20.641295	2.2174256
235	4	1	0.23778621	1.4061972	20.336268	2.3023282
236	4	1	0.72184217	0.87804412	21.541217	1.6478198
237	4	2	-0.50379503	1.6408054	22.406175	1.2432376
238	4	7	-0.69429732	-0.44844181	21.652911	1.4228717
239	4	8	0.40152737	-0.81490023	22.403497	0.93405879
240	4	4	-0.21205323	0.65589511	19.339227	2.720759
241	5	1	0.67599564	-0.40073326	15.92027	20.26694
242	5	2	-0.51586932	0.63688803	16.551984	20.400395
243	5	1	0.23015308	-1.3985329	16.320378	19.271478
244	5	1	-0.2826359	-2.6322202	15.71706	19.144568
245	5	3	0.18643824	-3.0408103	14.920619	19.750871
246	5	1	-0.28263587	-3.2284714	16.305765	18.068095
247	5	3	0.18643829	-4.1966328	16.059797	17.65419
248	5	1	0.23015311	-2.3202064	17.222749	17.58376
249	5	1	0.67623263	-2.5171591	17.96186	16.331445
250	5	2	-0.51586932	-1.6461876	18.701212	15.895535
251	5	4	-0.20939625	-1.2339057	17.230909	18.330524
252	5	4	-0.49136413	-3.6280408	17.662393	15.6058
253	5	5	0.15122784	-3.7857852	17.799105	14.242066
254	5	5	0.15122789	-4.089939	16.419757	13.628318
255	5	4	-0.49136407	-3.0010294	15.57665	13.766182
256	5	6	0.081371779	-4.273158	16.566545	12.54343
257	5	6	0.081371779	-5.0027865	15.967325	14.074673
258	5	6	0.081371779	-4.634212	18.48559	14.048717
259	5	6	0.081371779	-2.8738407	18.217828	13.759977
260	5	1	0.67623263	-2.6214229	14.983393	14.928151
261	5	2	-0.51586932	-3.4503723	14.501188	15.685408
262	5	1	0.23015311	-1.2066941	15.051885	15.314272
263	5	1	-0.2826359	-0.23851982	15.636243	14.540304
264	5	3	0.18643824	-0.35837061	16.062556	13.554437
265	5	1	-0.28263587	0.90449003	15.599307	15.286337
266	5	3	0.18643829	1.8392125	15.978918	14.962161
267	5	1	0.23015317	0.58065688	15.013446	16.494814
268	5	1	0.67623263	1.4619037	14.809522	17.68648
269	5	2	-0.51586932	1.0510593	14.043575	18.54168
270	5	4	-0.20939625	-0.69557571	14.670222	16.468258
271	5	4	-0.49136413	2.6543455	15.436533	17.92361
272	5	5	0.15122784	3.2939445	16.430758	17.197349
273	5	5	0.15122789	2.5112028	17.758385	17.18553
274	5	4	-0.49136407	3.0668178	18.608655	16.237782
275	5	6	0.081371779	2.5205592	18.232883	18.189276
276	5	6	0.081371779	1.4463654	17.557211	16.942005
277	5	6	0.081371779	4.289918	16.629318	17.646876
278	5	6	0.081371779	3.5074569	16.050126	16.185143
279	5	4	-0.48761699	-0.60810801	14.749412	20.926589
280	5	5	0.13156834	0.2383764	14.16472	21.842538
281	5	5	0.091016005	0.045272244	14.794558	23.216226
282	5	7	-0.67889804	0.82174157	14.127977	24.172152
283	5	8	0.39369177	1.7616662	14.406513	24.016033
284	5	6	0.089542317	-1.024153	14.698678	23.505381
285	5	6	0.089542317	0.29417517	15.878603	23.196156
286	5	6	0.088386337	-0.030053648	13.08776	21.914738
287	5	6	0.088386337	1.2956604	14.228413	21.501358
288	5	1	0.67623263	2.3688626	18.913552	15.114422
289	5	2	-0.51586932	1.3432185	19.573963	15.191653
290	5	1	0.23015311	2.6421955	18.125181	13.905686
291	5	1	-0.2826359	3.7905569	17.395366	13.667031
292	5	3	0.18643824	4.6833479	17.360774	14.277255
293	5	1	-0.28606064	3.5445316	16.671461	12.524758
294	5	3	0.18643829	4.2088818	15.956381	12.057313
295	5	1	0.23778621	2.2558469	16.993655	12.144032
296	5	1	0.72184217	1.5054539	16.380476	11.039428
297	5	2	-0.50379503	2.0304667	15.529628	10.336532
298	5	7	-0.69429732	0.20753404	16.702027	10.853279
299	5	8	0.40152737	-0.32796467	16.263396	10.176926
300	5	4	-0.21205323	1.7475385	17.878939	12.974709
301	6	1	0.67599564	-3.0603479	18.427764	31.279143
302	6	2	-0.51586932	-3.1981302	17.564368	30.425273
303	6	1	0.23015308	-2.7464391	18.068051	32.664315
304	6	1	-0.2826359	-2.6844549	18.983813	33.693694
305	6	3	0.18643824	-2.8803484	20.045823	33.642429
306	6	1	-0.28263587	-2.2878604	18.28348	34.795117
307	6	3	0.18643829	-2.1024717	18.685933	35.781432
308	6	1	0.23015311	-2.1102798	16.982361	34.375667
309	6	1	0.67623263	-1.5353197	15.936148	35.229029
310	6	2	-0.51586932	-1.3159397	14.816908	34.788093
311	6	4	-0.20939625	-2.4084255	16.867901	33.09669
312	6	4	-0.49136413	-1.1110927	16.311795	36.465645
313	6	5	0.15122784	-0.12440943	15.70976	37.218876
314	6	5	0.15122789	0.99590076	16.730638	37.491842
315	6	4	-0.49136407	1.629366	17.082608	36.31269
316	6	6	0.081371779	1.7447807	16.241547	38.14916
317	6	6	0.081371779	0.60825482	17.629919	38.019327
318	6	6	0.081371779	-0.56377498	15.376339	38.180261
319	6	6	0.081371779	0.30923269	14.824665	36.701245
320	6	1	0.67623263	1.104289	17.90222	35.364662
321	6	2	-0.51586932	0.50464142	18.919623	35.678398
322	6	1	0.23015311	1.1600901	17.469625	33.962883
323	6	1	-0.2826359	1.760262	16.307955	33.552789
324	6	3	0.18643824	2.3030948	15.601167	34.164201
325	6	1	-0.28263587	1.5021116	16.209645	32.215593
326	6	3	0.18643829	1.8347884	15.412033	31.602371
327	6	1	0.23015317	0.73518081	17.305344	31.869501
328	6	1	0.67623263	0.12837275	17.623423	30.539517
329	6	2	-0.51586932	-0.28502779	18.760598	30.388623
330	6	4	-0.20939625	0.56987471	18.059877	32.942176
331	6	4	-0.49136413	-0.046651554	16.747513	29.503448
332	6	5	0.15122784	0.21006814	15.385496	29.439954
333	6	5	0.15122789	-0.68775879	14.564316	30.385992
334	6	4	-0.49136407	-0.20177506	13.265289	30.464988
335	6	6	0.081371779	-1.7408494	14.566684	30.034232
336	6	6	0.081371779	-0.6907008	15.033879	31.392549
337	6	6	0.081371779	0.028253091	15.026535	28.404795
338	6	6	0.081371779	1.2851231	15.21775	29.616442
339	6	4	-0.48761699	-3.0490212	19.748739	30.956734
340	6	5	0.13156834	-3.2466478	20.287569	29.704548
341	6	5	0.091016005	-4.7364715	20.38431	29.401119
342	6	7	-0.67889804	-4.9441482	21.033861	28.178015
343	6	8	0.39369177	-4.6937053	20.386181	27.468647
344	6	6	0.089542317	-5.2254801	20.981186	30.201795
345	6	6	0.089542317	-5.2080929	19.376818	29.39462
346	6	6	0.088386337	-2.8263715	21.317361	29.707124
347	6	6	0.088386337	-2.7024644	19.701285	28.930955
348	6	1	0.67623263	0.35001708	12.821507	31.622842
349	6	2	-0.51586932	-0.34507872	12.684799	32.618937
350	6	1	0.23015311	1.8111125	12.893365	31.754437
351	6	1	-0.2826359	2.7074071	12.977366	30.706621
352	6	3	0.18643824	2.4864995	12.916409	29.649204
353	6	1	-0.28606064	3.9335631	13.216623	31.279903
354	6	3	0.18643829	4.8692329	13.377946	30.760575
355	6	1	0.23778621	3.7079418	13.277566	32.641832
356	6	1	0.72184217	4.7028547	13.628387	33.664721
357	6	2	-0.50379503	5.8590795	13.861	33.344285
358	6	7	-0.69429732	4.317686	13.771356	34.950741
359	6	8	0.40152737	4.937774	14.06747	35.632222
360	6	4	-0.21205323	2.4354609	13.06115	32.898903
361	7	1	0.67599564	-2.9926579	30.099984	-0.014049166
362	7	2	-0.51586932	-2.1635233	29.206812	0.077117138
363	7	1	0.23015308	-2.8451669	31.340037	0.75220655
364	7	1	-0.2826359	-3.796645	32.338129	0.77643038
365	7	3	0.18643824	-4.7596787	32.341366	0.28508354
366	7	1	-0.28263587	-3.2621425	33.347583	1.5222146
367	7	3	0.18643829	-3.7177784	34.306221	1.7285207
368	7	1	0.23015311	-2.0062342	32.920373	1.8971437
369	7	1	0.67623263	-1.0382623	33.782345	2.5851845
370	7	2	-0.51586932	0.095109233	33.38899	2.8218112
371	7	4	-0.20939625	-1.7801498	31.704364	1.4410948
372	7	4	-0.49136413	-1.4030688	35.075873	2.7949469
373	7	5	0.15122784	-0.56116737	36.161038	2.9251998
374	7	5	0.15122789	-0.87312703	37.178432	1.8119231
375	7	4	-0.49136407	-0.56376764	36.649627	0.57086641
376	7	6	0.081371779	-0.22705476	38.066039	1.9757602
377	7	6	0.081371779	-1.9337202	37.511506	1.8496237
378	7	6	0.081371779	-0.73480919	36.629815	3.9144264
379	7	6	0.081371779	0.50968563	35.864537	2.8563355
380	7	1	0.67623263	-1.2981926	35.706842	-0.075664419
381	7	2	-0.51586932	-2.5187477	35.763411	-0.088397227
382	7	1	0.23015311	-0.59756556	34.54941	-0.64549827
383	7	1	-0.2826359	0.76343512	34.394383	-0.60670749
384	7	3	0.18643824	1.4904906	35.093881	-0.21923691
385	7	1	-0.28263587	1.010376	33.157115	-1.1288101
386	7	3	0.18643829	1.9780113	32.738545	-1.2354889
387	7	1	0.23015317	-0.21335796	32.598934	-1.4441288
388	7	1	0.67623263	-0.49276882	31.227907	-1.9737161
389	7	2	-0.51586932	-1.6091323	31.036718	-2.4253955
390	7	4	-0.20939625	-1.1614766	33.476647	-1.1648997
391	7	4	-0.49136413	0.36820438	30.165089	-1.9528806
392	7	5	0.15122784	1.63532	30.060338	-1.3974788
393	7	5	0.15122789	1.6250587	30.179757	0.13909266
394	7	4	-0.49136407	2.9285872	30.331122	0.59493804
395	7	6	0.081371779	1.150041	29.289659	0.60258567
396	7	6	0.081371779	1.0109695	31.055864	0.43739436
397	7	6	0.081371779	2.0681459	29.070996	-1.6569542
398	7	6	0.081371779	2.2971638	30.797863	-1.8802302
399	7	4	-0.48761699	-3.9984151	30.043566	-0.92746004
400	7	5	0.13156834	-4.2619505	29.003989	-1.7918631
401	7	5	0.091016005	-5.0544455	27.914538	-1.0804904
402	7	7	-0.67889804	-5.4207082	26.908929	-1.9836138
403	7	8	0.39369177	-4.5976054	26.387919	-2.1745691
404	7	6	0.089542317	-5.9815859	28.363587	-0.66187373
405	7	6	0.089542317	-4.4732988	27.487607	-0.23343251
406	7	6	0.088386337	-4.8874532	29.401433	-2.6212575
407	7	6	0.088386337	-3.3206725	28.610113	-2.2358985
408	7	1	0.67623263	3.3211621	31.513538	1.1332863
409	7	2	-0.51586932	2.8440514	31.891709	2.193195
410	7	1	0.23015311	3.9989419	32.473441	0.25210334
411	7	1	-0.2826359	4.636533	32.162092	-0.93316442
412	7	3	0.18643824	4.8092319	31.176503	-1.3447906
413	7	1	-0.28606064	4.9540068	33.365806	-1.5159492
414	7	3	0.18643829	5.4295569	33.512984	-2.4768841
415	7	1	0.23778621	4.4783866	34.338076	-0.65691131
416	7	1	0.72184217	4.4815439	35.785815	-0.90845112
417	7	2	-0.50379503	4.9693995	36.230598	-1.9369496
418	7	7	-0.69429732	3.8720147	36.617185	-0.036705663
419	7	8	0.40152737	3.8004756	37.566281	-0.21194066
420	7	4	-0.21205323	3.9305432	33.777697	0.40043053
421	8	1	0.67599564	-3.1419997	30.284168	16.266726
422	8	2	-0.51586932	-2.3920661	29.387199	15.910948
423	8	1	0.23015308	-2.7319513	31.23728	17.301168
424	8	1	-0.2826359	-3.5680097	32.202675	17.821844
425	8	3	0.18643824	-4.6083506	32.37174	17.581067
426	8	1	-0.28263587	-2.8050185	32.933685	18.684603
427	8	3	0.18643829	-3.1234546	33.797021	19.252408
428	8	1	0.23015311	-1.5400787	32.388375	18.630292
429	8	1	0.67623263	-0.37949625	32.986736	19.299903
430	8	2	-0.51586932	0.74015845	32.517376	19.15387
431	8	4	-0.20939625	-1.519466	31.358302	17.807918
432	8	4	-0.49136413	-0.57990429	34.166855	19.946011
433	8	5	0.15122784	0.36084174	35.146597	20.18777
434	8	5	0.15122789	-0.087497121	36.455025	19.51042
435	8	4	-0.49136407	-0.090178173	36.31244	18.133749
436	8	6	0.081371779	0.65245814	37.240267	19.771112
437	8	6	0.081371779	-1.0842773	36.783836	19.878564
438	8	6	0.081371779	0.43811285	35.303863	21.282197
439	8	6	0.081371779	1.3642716	34.861744	19.798709
440	8	1	0.67623263	-1.0215298	35.619747	17.42736
441	8	2	-0.51586932	-2.2084551	35.702904	17.705587
442	8	1	0.23015311	-0.55725538	34.66953	16.409138
443	8	1	-0.2826359	0.76345772	34.481722	16.0956
444	8	3	0.18643824	1.6127198	35.019274	16.492882
445	8	1	-0.28263587	0.78879849	33.450544	15.200932
446	8	3	0.18643829	1.6732848	33.062537	14.765003
447	8	1	0.23015317	-0.51716555	33.03679	15.022656
448	8	1	0.67623263	-1.0176982	31.891084	14.201026
449	8	2	-0.51586932	-2.2158875	31.865948	13.976203
450	8	4	-0.20939625	-1.3071785	33.811447	15.745888
451	8	4	-0.49136413	-0.26599662	30.852396	13.724202
452	8	5	0.15122784	1.0752106	30.561073	13.927476
453	8	5	0.15122789	1.3956357	30.218842	15.39568
454	8	4	-0.49136407	2.773614	30.200833	15.571021
455	8	6	0.081371779	0.95282302	29.241316	15.680462
456	8	6	0.081371779	0.9348904	30.979357	16.06125
457	8	6	0.081371779	1.3577039	29.684694	13.306491
458	8	6	0.081371779	1.6828997	31.394785	13.539317
459	8	4	-0.48761699	-4.3170352	30.52255	15.625231
460	8	5	0.13156834	-4.8433399	29.792387	14.582528
461	8	5	0.091016005	-5.5609662	28.557517	15.112727
462	8	7	-0.67889804	-6.1924988	27.873418	14.066684
463	8	8	0.39369177	-5.4751986	27.415658	13.55546
464	8	6	0.089542317	-6.3383847	28.881114	15.838936
465	8	6	0.089542317	-4.8550281	27.88625	15.649907
466	8	6	0.088386337	-5.5913496	30.431177	14.063357
467	8	6	0.088386337	-4.0526962	29.528715	13.845188
468	8	1	0.67623263	3.3699939	31.161529	16.321645
469	8	2	-0.51586932	3.1585371	31.21761	17.524224
470	8	1	0.23015311	3.92933	32.325555	15.622026
471	8	1	-0.2826359	4.2767678	32.367166	14.285659
472	8	3	0.18643824	4.2744516	31.544975	13.582351
473	8	1	-0.28606064	4.5682227	33.682792	14.014482
474	8	3	0.18643829	4.8439852	34.098858	13.054248
475	8	1	0.23778621	4.3674871	34.36566	15.198908
476	8	1	0.72184217	4.4427286	35.822376	15.37652
477	8	2	-0.50379503	4.7420109	36.54236	14.435405
478	8	7	-0.69429732	4.1020541	36.369745	16.562678
479	8	8	0.40152737	4.077513	37.329326	16.686008
480	8	4	-0.21205323	4.0058238	33.528003	16.147412
481	9	1	0.67599564	-0.17844969	28.753551	32.351965
482	9	2	-0.51586932	0.81621073	28.811814	31.644302
483	9	1	0.23015308	-0.29312566	29.585043	33.552842
484	9	1	-0.2826359	-1.337292	29.489216	34.448731
485	9	3	0.18643824	-2.1688604	28.798952	34.418808
486	9	1	-0.28263587	-1.1307703	30.47226	35.371692
487	9	3	0.18643829	-1.7713092	30.714318	36.208515
488	9	1	0.23015311	0.016872438	31.127762	34.97975
489	9	1	0.67623263	0.4997657	32.354265	35.624631
490	9	2	-0.51586932	1.4746638	32.950199	35.1891
491	9	4	-0.20939625	0.51670439	30.569118	33.89538
492	9	4	-0.49136413	-0.27464847	32.878674	36.612344
493	9	5	0.15122784	-0.33922544	34.202018	36.996968
494	9	5	0.15122789	-1.779628	34.713035	36.8075
495	9	4	-0.49136407	-2.1165282	34.727766	35.465173
496	9	6	0.081371779	-1.8185622	35.757589	37.180984
497	9	6	0.081371779	-2.5067996	34.109217	37.39388
498	9	6	0.081371779	-0.057722961	34.276227	38.066418
499	9	6	0.081371779	0.35332624	34.839838	36.402881
500	9	1	0.67623263	-2.4033035	33.624887	34.725144
501	9	2	-0.51586932	-3.0958568	32.727248	35.18092
502	9	1	0.23015311	-1.754622	33.477444	33.416438
503	9	1	-0.2826359	-0.91593142	34.417594	32.877387
504	9	3	0.18643824	-0.6646868	35.383874	33.291176
505	9	1	-0.28263587	-0.43547886	33.86748	31.723723
506	9	3	0.18643829	0.244961	34.35205	31.071731
507	9	1	0.23015317	-0.98430337	32.604082	31.618209
508	9	1	0.67623263	-0.71655832	31.566413	30.574271
509	9	2	-0.51586932	-1.4975744	30.63134	30.524393
510	9	4	-0.20939625	-1.7971133	32.41074	32.642531
511	9	4	-0.49136413	0.34370157	31.547585	29.710104
512	9	5	0.15122784	1.434979	32.400245	29.625778
513	9	5	0.15122789	2.3468193	32.326863	30.866173
514	9	4	-0.49136407	3.2526298	33.379558	30.831049
515	9	6	0.081371779	2.8800752	31.353958	30.909008
516	9	6	0.081371779	1.7258619	32.386572	31.78514
517	9	6	0.081371779	2.0462232	32.126076	28.739958
518	9	6	0.081371779	1.07353	33.420923	29.419379
519	9	4	-0.48761699	-1.2700449	28.031475	31.983079
520	9	5	0.13156834	-1.390839	27.247717	30.856804
521	9	5	0.091016005	-0.75893314	25.881974	31.09438
522	9	7	-0.67889804	-0.97821349	25.044719	29.993493
523	9	8	0.39369177	-0.37255195	25.361169	29.27346
524	9	6	0.089542317	-1.2349131	25.419084	31.986372
525	9	6	0.089542317	0.329539	25.97738	31.30327
526	9	6	0.088386337	-2.475484	27.097948	30.661293
527	9	6	0.088386337	-0.95398583	27.758885	29.970137
528	9	1	0.67623263	3.1550745	34.383069	31.739614
529	9	2	-0.51586932	3.3693666	34.160688	32.922272
530	9	1	0.23015311	2.4245692	35.594155	31.343491
531	9	1	-0.2826359	2.1790962	35.993514	30.044039
532	9	3	0.18643824	2.5517019	35.536518	29.136864
533	9	1	-0.28606064	1.3122329	37.056313	30.135485
534	9	3	0.18643829	0.87069837	37.602686	29.312242
535	9	1	0.23778621	1.0711389	37.231624	31.484784
536	9	1	0.72184217	0.11343015	38.178468	32.072585
537	9	2	-0.50379503	-0.52888354	38.929868	31.353922
538	9	7	-0.69429732	-0.11348882	38.160389	33.403307
539	9	8	0.40152737	-0.7873405	38.725689	33.807002
540	9	4	-0.21205323	1.7635575	36.358065	32.184484
541	10	1	0.67599564	19.545515	-2.2081345	-0.77553773
542	10	2	-0.51586932	19.659542	-2.3915599	0.42732723
543	10	1	0.23015308	18.227371	-2.2291029	-1.4148256
544	10	1	-0.2826359	18.040506	-2.1364854	-2.7781259
545	10	3	0.18643824	18.801088	-2.0708675	-3.5436817
546	10	1	-0.28263587	16.69028	-2.1077211	-2.970345
547	10	3	0.18643829	16.176853	-2.0076128	-3.9166669
548	10	1	0.23015311	16.12537	-2.1647412	-1.714156
549	10	1	0.67623263	14.686957	-2.0019696	-1.4736557
550	10	2	-0.51586932	14.24029	-1.9733954	-0.33570911