Title

243 atoms
260 bonds
435 angles
673 dihedrals
330 impropers

11 atom types
15 bond types
9 angle types
21 dihedral types
3 improper types
-17.81999969 82.18000031 xlo xhi
-17.54100037 82.45899963 ylo yhi
-10.87699986 89.12300014 zlo zhi
0.0 0.0 0.0 xy xz yz

Masses

1	14.00672
2	12.01078
3	1.007947
4	15.99943
5	12.01078
6	1.007947
7	1.007947
8	18.998403
9	15.99943
10	15.99943
11	1.007947


Pair Coeffs

1	0.16769152	3.206876
2	0.086879315	3.4806469
3	0.015611343	2.5725815
4	0.16846514	3.0251065
5	0.10884061	3.3795318
6	0.015779483	2.6445434
7	0.014090815	1.1034277
8	0.061	3.1181455
9	0.2102061	3.0398122
10	0.20947353	2.99716
11	1.2326e-05	0.53453923

Bond Coeffs

1 harmonic	390.03554688505	1.390160554689
2 harmonic	505.144496193	1.019481865027
3 harmonic	422.7150220147	1.421786517481
4 harmonic	360.7852444772	1.387193227181
5 harmonic	397.2545789619	1.085358495916
6 harmonic	279.1350963404	1.454628925034
7 harmonic	425.69104206635	1.362945806494
8 harmonic	289.73813263395	1.498646816465
9 harmonic	264.62148576755	1.52190126495
10 harmonic	370.04670688625	1.093899492634
11 harmonic	492.76746816345	1.381897776683
12 harmonic	340.45121009905	1.358690858053
13 harmonic	582.698766451	1.225198386222
14 harmonic	385.7604595587	1.369745182308
15 harmonic	543.5267831885	0.9716763312559


Angle Coeffs

1 harmonic	57.8982893754	126.8062420451
2 harmonic	55.42182150775	117.3465570514
3 harmonic	63.44422595415	115.5071327674
4 harmonic	34.066775159195	129.1835929926
5 harmonic	65.09061609600001	110.3538806181
6 harmonic	53.20531626545	116.5475862634
7 harmonic	14.32262199324	138.3184368373
8 harmonic	48.776492647595	115.6030999533
9 harmonic	201.41175231035	127.4691416191


Dihedral Coeffs

1 fourier 1	3.661930099076	2	180
2 fourier 1	1.193093382682	2	180
3 fourier 1	0.02021088501612	1	0
4 fourier 1	1.163235555439	2	180
5 fourier 1	1.532232714475	2	180
6 fourier 1	0.02664938770063	3	0
7 fourier 1	0.1155372516788	3	0
8 fourier 1	0.09223874044423	3	0
9 fourier 1	0.3159935921949	2	180
10 fourier 1	0.3247796806857	1	180
11 fourier 1	0.1040663847541	3	0
12 fourier 1	3.101948770557	2	180
13 fourier 1	-0.4252153282372	1	0
14 fourier 1	1.809047390003	2	180
15 fourier 1	-0.04816277792592	1	0
16 fourier 1	0.9974165607242	2	180
17 fourier 1	2.348375642009	2	180
18 fourier 1	1.256156174911	1	0
19 fourier 1	2.687457892086	2	180
20 fourier 1	2.772607909663	2	180
21 fourier 1	0.09692684957115	1	0


Improper Coeffs

1 0.3666666666666667	-1	2
2 0.3333333333333333	-1	2
3 3.5	-1	2


Atoms

1	1	1	-0.41179699	11.7	-4.5539999	0.44800001
2	1	2	0.126947	10.391	-4.0219998	0.66500002
3	1	2	-0.40640599	10.143	-2.7179999	0.46799999
4	1	3	0.221799	10.931	-2.05	0.142
5	1	2	-0.113743	8.7860003	-2.174	0.68900001
6	1	3	0.204062	8.6160002	-1.122	0.49599999
7	1	2	-0.127767	7.783	-2.9790001	1.089
8	1	2	-0.134009	6.415	-2.441	1.303
9	1	2	-0.128821	5.335	-3.1589999	0.94599998
10	1	3	0.20734701	5.4400001	-4.1339998	0.48300001
11	1	2	-0.29555401	3.98	-2.612	1.1289999
12	1	3	0.22451299	3.1270001	-3.1900001	0.79799998
13	1	2	0.32960701	3.8039999	-1.393	1.655
14	1	4	-0.27152801	2.506	-0.88499999	1.7589999
15	1	2	0.26551899	2.0109999	0.142	0.94800001
16	1	2	-0.27958199	0.85699999	0.72799999	1.281
17	1	3	0.231415	0.32600001	0.41600001	2.1730001
18	1	2	-0.149129	0.29899999	1.812	0.449
19	1	3	0.217059	-0.62	2.2809999	0.778
20	1	2	-0.25650501	0.91500002	2.2079999	-0.68900001
21	1	5	0.019274	0.32800001	3.3599999	-1.523
22	1	5	-0.13161799	0.93900001	3.4619999	-2.9400001
23	1	6	0.087486997	0.86900002	2.487	-3.4690001
24	1	6	0.087486997	2.0039999	3.7709999	-2.8889999
25	1	6	0.087486997	0.40200001	4.224	-3.5439999
26	1	2	-0.107941	-1.156	3.2090001	-1.666
27	1	2	-0.12546401	-1.814	2.1619999	-2.184
28	1	3	0.216585	-1.276	1.307	-2.573
29	1	2	0.234688	-3.2950001	2.1659999	-2.164
30	1	4	-0.28034699	-3.987	1.059	-2.6630001
31	1	2	0.33350301	-4.777	0.19599999	-1.883
32	1	2	-0.29555401	-4.7270002	0.213	-0.537
33	1	3	0.22451299	-4.0799999	0.90200001	-0.0099999998
34	1	2	-0.128821	-5.5050001	-0.755	0.257
35	1	3	0.20734701	-5.4029999	-0.73400003	1.334
36	1	2	-0.134009	-6.2789998	-1.6720001	-0.35100001
37	1	2	-0.127767	-7.0180001	-2.6960001	0.43200001
38	1	2	-0.127781	-7.6209998	-2.3889999	1.599
39	1	3	0.204062	-7.6030002	-1.3789999	1.988
40	1	2	-0.37445199	-8.3459997	-3.425	2.365
41	1	3	0.21824799	-8.8149996	-3.155	3.3039999
42	1	2	0.19918799	-8.4169998	-4.6820002	1.903
43	1	1	-0.53056401	-9.1190004	-5.6869998	2.6389999
44	1	7	0.31963399	-9.1759996	-6.664	2.277
45	1	2	-0.37445199	-7.7610002	-5.027	0.62199998
46	1	3	0.21824799	-7.8070002	-6.0409999	0.245
47	1	2	-0.127781	-7.1030002	-4.092	-0.071999997
48	1	3	0.204062	-6.6139998	-4.3709998	-0.99699998
49	1	2	-0.056173	-6.3530002	-1.6799999	-1.834
50	1	3	0.206378	-6.9949999	-2.405	-2.316
51	1	2	-0.321702	-5.6529999	-0.79299998	-2.5699999
52	1	5	0.76682597	-5.7179999	-0.796	-4.0809999
53	1	8	-0.207397	-4.4790001	-1.1390001	-4.5890002
54	1	8	-0.207397	-6.0580001	0.46599999	-4.5310001
55	1	8	-0.207397	-6.6550002	-1.6950001	-4.5619998
56	1	2	-0.285579	-3.9579999	3.23	-1.666
57	1	3	0.219772	-5.0409999	3.2420001	-1.655
58	1	2	0.012427	-3.2079999	4.3909998	-1.128
59	1	3	0.214579	-3.7420001	5.2459998	-0.73500001
60	1	2	-0.19716901	-1.865	4.3499999	-1.13
61	1	5	-0.020956	-0.91799998	5.3920002	-0.625
62	1	5	-0.13121	-1.008	6.6550002	-1.5
63	1	6	0.091724999	-0.266	7.4109998	-1.163
64	1	6	0.091724999	-2.0220001	7.1059999	-1.437
65	1	6	0.091724999	-0.796	6.408	-2.5639999
66	1	5	-0.13121	-1.217	5.7399998	0.84600002
67	1	6	0.091724999	-2.211	6.2249999	0.94300002
68	1	6	0.091724999	-1.2130001	4.823	1.475
69	1	6	0.091724999	-0.44999999	6.441	1.239
70	1	5	-0.181288	0.48699999	4.7199998	-0.76599997
71	1	6	0.129935	1.207	5.3920002	-1.285
72	1	6	0.129935	0.93800002	4.553	0.23999999
73	1	2	-0.149129	2.2119999	1.557	-1.046
74	1	3	0.217059	2.7650001	1.852	-1.928
75	1	2	-0.27958199	2.7219999	0.58600003	-0.278
76	1	3	0.231415	3.658	0.123	-0.56699997
77	1	2	-0.321702	4.9819999	-0.60399997	2.122
78	1	5	0.76682597	4.8000002	0.75300002	2.767
79	1	8	-0.207397	3.648	0.773	3.5339999
80	1	8	-0.207397	4.7049999	1.721	1.784
81	1	8	-0.207397	5.8660002	1.0599999	3.5940001
82	1	2	-0.056173	6.2189999	-1.1	1.9170001
83	1	3	0.206378	7.0910001	-0.53500003	2.227
84	1	2	-0.113743	8.0679998	-4.4229999	1.311
85	1	3	0.204062	7.2870002	-5.0900002	1.653
86	1	2	-0.40640599	9.2959995	-4.9120002	1.109
87	1	3	0.221799	9.4919996	-5.9629998	1.2819999
88	1	7	0.37297401	12.491	-3.9400001	0.15000001
89	1	2	0.75664097	-9.5889997	-5.4629998	3.5639999
90	1	9	-0.66862202	-8.9069996	-4.8870001	4.454
91	1	2	-0.31932399	-10.999	-5.8460002	3.809
92	1	2	-0.122965	-11.452	-5.9159999	5.0749998
93	1	3	0.21284699	-10.819	-5.6459999	5.9120002
94	1	2	-0.11628	-12.803	-6.427	5.3699999
95	1	3	0.218218	-13.133	-6.448	6.401
96	1	2	-0.38331601	-13.598	-6.8610001	4.3790002
97	1	2	0.829561	-14.959	-7.381	4.6560001
98	1	9	-0.59696698	-15.869	-7.178	3.806
99	1	2	-0.381726	-15.282	-8.1389999	5.8909998
100	1	2	-0.112272	-16.518	-8.092	6.4130001
101	1	3	0.218218	-17.288	-7.4780002	5.9629998
102	1	2	-0.107599	-16.836	-8.8280001	7.6500001
103	1	3	0.223406	-17.82	-8.6940002	8.0830002
104	1	2	-0.203435	-15.906	-9.5790005	8.2670002
105	1	2	0.80194998	-16.226999	-10.161	9.5900002
106	1	9	-0.49094799	-15.324	-10.318	10.455
107	1	10	-0.66541499	-17.542	-10.492	9.908
108	1	11	0.41793501	-17.777	-10.875	10.816
109	1	2	-0.131644	-14.553	-9.7259998	7.6339998
110	1	2	0.80267	-13.558	-10.703	8.132
111	1	9	-0.49094799	-12.324	-10.477	8.0010004
112	1	10	-0.66541499	-13.975	-11.901	8.7040005
113	1	11	0.41793501	-13.301	-12.582	9.0340004
114	1	2	0.015181	-14.267	-9.0159998	6.5250001
115	1	3	0.242736	-13.307	-9.1370001	6.0359998
116	1	2	0.045864001	-13.129	-6.7470002	2.9779999
117	1	3	0.23082501	-13.799	-7.0419998	2.178
118	1	2	-0.210839	-11.915	-6.2420001	2.687
119	1	2	0.57647502	-11.569	-6.0560002	1.26
120	1	9	-0.53984702	-10.723	-5.1989999	0.89300001
121	1	1	-0.41179699	11.882	-5.5760002	0.57800001
122	1	2	0.126947	12.098	-6.1079998	1.888
123	1	2	-0.40640599	12.365	-7.4120002	2.0580001
124	1	3	0.221799	12.42	-8.0799999	1.207
125	1	2	-0.113743	12.593	-7.9559999	3.414
126	1	3	0.204062	12.831	-9.0080004	3.513
127	1	2	-0.127767	12.538	-7.151	4.493
128	1	2	-0.134009	12.777	-7.6890001	5.8559999
129	1	2	-0.128821	13.463	-6.9710002	6.763
130	1	3	0.20734701	13.867	-5.9959998	6.5149999
131	1	2	-0.29555401	13.726	-7.5180001	8.1049995
132	1	3	0.22451299	14.314	-6.9400001	8.8059998
133	1	2	0.32960701	13.286	-8.7370005	8.4420004
134	1	4	-0.27152801	13.605	-9.2449999	9.7040005
135	1	2	0.26551899	14.533	-10.272	9.9099998
136	1	2	-0.27958199	14.59	-10.858	11.111
137	1	3	0.231415	13.917	-10.546	11.901
138	1	2	-0.149129	15.557	-11.941	11.37
139	1	3	0.217059	15.542	-12.411	12.346
140	1	2	-0.25650501	16.436001	-12.338	10.42
141	1	5	0.019274	17.415001	-13.49	10.707
142	1	5	-0.13161799	18.558001	-13.592	9.6719999
143	1	6	0.087486997	19.082001	-12.616	9.5670004
144	1	6	0.087486997	18.167	-13.901	8.6800003
145	1	6	0.087486997	19.302999	-14.354	9.9849997
146	1	2	-0.107941	18.028	-13.339	12.065
147	1	2	-0.12546401	18.731001	-12.292	12.521
148	1	3	0.216585	18.924999	-11.436	11.886
149	1	2	0.234688	19.188999	-12.296	13.929
150	1	4	-0.28034699	19.885	-11.189	14.424
151	1	2	0.33350301	19.400999	-10.326	15.423
152	1	2	-0.29555401	18.111	-10.343	15.81
153	1	3	0.22451299	17.403999	-11.032	15.367
154	1	2	-0.128821	17.610001	-9.375	16.802
155	1	3	0.20734701	16.558001	-9.3950005	17.052999
156	1	2	-0.134009	18.434999	-8.4580002	17.339001
157	1	2	-0.127767	17.931999	-7.4330001	18.291
158	1	2	-0.077074997	17.021999	-7.7399998	19.238001
159	1	3	0.204062	16.648001	-8.7510004	19.346001
160	1	2	-0.45056599	16.530001	-6.7049999	20.171
161	1	3	0.23033699	15.793	-6.9749999	20.917999
162	1	2	0.31871501	16.990999	-5.447	20.089001
163	1	1	-0.844558	16.521	-4.4429998	20.990999
164	1	7	0.36664	15.809	-4.6630001	21.722
165	1	7	0.36664	16.882	-3.4660001	20.927999
166	1	2	-0.45056599	17.992001	-5.1020002	19.056
167	1	3	0.23033699	18.364	-4.0879998	18.976999
168	1	2	-0.077074997	18.437	-6.0370002	18.209
169	1	3	0.204062	19.155001	-5.7589998	17.447001
170	1	2	-0.056173	19.863001	-8.4499998	16.93
171	1	3	0.206378	20.525999	-7.7249999	17.382999
172	1	2	-0.321702	20.334	-9.3369999	16.031
173	1	5	0.76682597	21.785	-9.3339996	15.605
174	1	8	-0.207397	21.867001	-8.9910002	14.268
175	1	8	-0.207397	22.320999	-10.596	15.782
176	1	8	-0.207397	22.542	-8.4350004	16.337
177	1	2	-0.285579	18.931999	-13.36	14.718
178	1	3	0.219772	19.271	-13.371	15.747
179	1	2	0.012427	18.18	-14.521	14.181
180	1	3	0.214579	17.981001	-15.376	14.814
181	1	2	-0.19716901	17.749001	-14.48	12.91
182	1	5	-0.020956	16.966	-15.522	12.176
183	1	5	-0.13121	17.823999	-16.784	11.978
184	1	6	0.091724999	17.264999	-17.541	11.386
185	1	6	0.091724999	18.09	-17.235001	12.959
186	1	6	0.091724999	18.761999	-16.538	11.436
187	1	5	-0.13121	15.67	-15.87	12.934
188	1	6	0.091724999	15.899	-16.354	13.906
189	1	6	0.091724999	15.073	-14.953	13.132
190	1	6	0.091724999	15.051	-16.57	12.335
191	1	5	-0.181288	16.646	-14.85	10.8
192	1	6	0.129935	16.906	-15.522	9.9519997
193	1	6	0.129935	15.549	-14.683	10.698
194	1	2	-0.149129	16.355	-11.687	9.0780001
195	1	3	0.217059	17.011999	-11.982	8.2700005
196	1	2	-0.27958199	15.464	-10.716	8.842
197	1	3	0.231415	15.436	-10.253	7.8639998
198	1	2	-0.321702	12.463	-9.526	7.4759998
199	1	5	0.76682597	11.912	-10.883	7.8569999
200	1	8	-0.207397	11.556	-10.903	9.1949997
201	1	8	-0.207397	12.873	-11.851	7.6300001
202	1	8	-0.207397	10.785	-11.19	7.1149998
203	1	2	-0.056173	12.258	-9.0299997	6.2399998
204	1	3	0.206378	11.683	-9.5950003	5.5139999
205	1	2	-0.113743	12.236	-5.7069998	4.2950001
206	1	3	0.204062	12.163	-5.04	5.1440001
207	1	2	-0.40640599	12.031	-5.2179999	3.066
208	1	3	0.221799	11.804	-4.1669998	2.937
209	1	7	0.37297401	11.908	-6.1900001	-0.26699999
210	1	2	0.58135301	-12.09	-6.6230001	0.50300002
211	1	9	-0.53984702	-12.807	-7.592	0.87300003
212	1	2	-0.322678	-11.981	-6.2529998	-0.92799997
213	1	2	-0.050985999	-12.888	-6.7270002	-1.804
214	1	3	0.20913801	-13.666	-7.4099998	-1.488
215	1	2	-0.100242	-12.892	-6.277	-3.207
216	1	3	0.218218	-13.665	-6.652	-3.8670001
217	1	2	-0.381726	-11.986	-5.3870001	-3.641
218	1	2	0.829561	-12.001	-4.8889999	-5.0370002
219	1	9	-0.59696698	-11.638	-3.7019999	-5.2600002
220	1	2	-0.381726	-12.418	-5.7399998	-6.1789999
221	1	2	-0.112272	-13.043	-5.197	-7.2350001
222	1	3	0.218218	-13.266	-4.1370001	-7.2639999
223	1	2	-0.107599	-13.432	-6.0320001	-8.3859997
224	1	3	0.223406	-13.886	-5.5430002	-9.2399998
225	1	2	-0.203435	-13.165	-7.3509998	-8.4049997
226	1	2	0.80194998	-13.429	-8.1149998	-9.6459999
227	1	9	-0.49094799	-14.395	-7.7989998	-10.393
228	1	10	-0.66541499	-12.586	-9.1560001	-10.023
229	1	11	0.41793501	-12.751	-9.6759996	-10.877
230	1	2	-0.131644	-12.514	-7.98	-7.2090001
231	1	2	0.80267	-12.355	-9.4469995	-7.0869999
232	1	9	-0.49094799	-11.391	-9.9300003	-6.4330001
233	1	10	-0.66541499	-13.295	-10.305	-7.652
234	1	11	0.41793501	-13.202	-11.309	-7.5619998
235	1	2	0.015181	-12.134	-7.1960001	-6.1810002
236	1	3	0.242736	-11.651	-7.6350002	-5.3150001
237	1	2	0.025892001	-10.975	-4.8670001	-2.6900001
238	1	3	0.242736	-10.223	-4.1789999	-3.0599999
239	1	2	-0.083213001	-10.937	-5.289	-1.411
240	1	2	0.81511998	-9.8269997	-4.823	-0.54699999
241	1	9	-0.49094799	-9.3570004	-5.5700002	0.352
242	1	10	-0.66541499	-9.2580004	-3.569	-0.75700003
243	1	11	0.41793501	-8.4870005	-3.2449999	-0.186

Bonds

1	1	1	2
2	2	1	88
3	3	1	121
4	4	2	3
5	4	2	86
6	5	3	4
7	4	3	5
8	5	5	6
9	4	5	7
10	6	7	8
11	4	7	84
12	4	8	9
13	4	8	82
14	5	9	10
15	4	9	11
16	5	11	12
17	4	11	13
18	7	13	14
19	4	13	77
20	7	14	15
21	4	15	16
22	4	15	75
23	5	16	17
24	4	16	18
25	5	18	19
26	4	18	20
27	8	20	21
28	4	20	73
29	9	21	22
30	8	21	26
31	9	21	70
32	10	22	23
33	10	22	24
34	10	22	25
35	4	26	27
36	4	26	60
37	5	27	28
38	4	27	29
39	7	29	30
40	4	29	56
41	7	30	31
42	4	31	32
43	4	31	51
44	5	32	33
45	4	32	34
46	5	34	35
47	4	34	36
48	6	36	37
49	4	36	49
50	4	37	38
51	4	37	47
52	5	38	39
53	4	38	40
54	5	40	41
55	4	40	42
56	1	42	43
57	4	42	45
58	2	43	44
59	11	43	89
60	5	45	46
61	4	45	47
62	5	47	48
63	5	49	50
64	4	49	51
65	8	51	52
66	12	52	53
67	12	52	54
68	12	52	55
69	5	56	57
70	4	56	58
71	5	58	59
72	4	58	60
73	8	60	61
74	9	61	62
75	9	61	66
76	9	61	70
77	10	62	63
78	10	62	64
79	10	62	65
80	10	66	67
81	10	66	68
82	10	66	69
83	10	70	71
84	10	70	72
85	5	73	74
86	4	73	75
87	5	75	76
88	8	77	78
89	4	77	82
90	12	78	79
91	12	78	80
92	12	78	81
93	5	82	83
94	5	84	85
95	4	84	86
96	5	86	87
97	13	89	90
98	6	89	91
99	4	91	92
100	4	91	118
101	5	92	93
102	4	92	94
103	5	94	95
104	4	94	96
105	6	96	97
106	4	96	116
107	13	97	98
108	6	97	99
109	4	99	100
110	4	99	114
111	5	100	101
112	4	100	102
113	5	102	103
114	4	102	104
115	6	104	105
116	4	104	109
117	13	105	106
118	14	105	107
119	15	107	108
120	6	109	110
121	4	109	114
122	13	110	111
123	14	110	112
124	15	112	113
125	5	114	115
126	5	116	117
127	4	116	118
128	6	118	119
129	13	119	120
130	6	119	210
131	1	121	122
132	2	121	209
133	4	122	123
134	4	122	207
135	5	123	124
136	4	123	125
137	5	125	126
138	4	125	127
139	6	127	128
140	4	127	205
141	4	128	129
142	4	128	203
143	5	129	130
144	4	129	131
145	5	131	132
146	4	131	133
147	7	133	134
148	4	133	198
149	7	134	135
150	4	135	136
151	4	135	196
152	5	136	137
153	4	136	138
154	5	138	139
155	4	138	140
156	8	140	141
157	4	140	194
158	9	141	142
159	8	141	146
160	9	141	191
161	10	142	143
162	10	142	144
163	10	142	145
164	4	146	147
165	4	146	181
166	5	147	148
167	4	147	149
168	7	149	150
169	4	149	177
170	7	150	151
171	4	151	152
172	4	151	172
173	5	152	153
174	4	152	154
175	5	154	155
176	4	154	156
177	6	156	157
178	4	156	170
179	4	157	158
180	4	157	168
181	5	158	159
182	4	158	160
183	5	160	161
184	4	160	162
185	1	162	163
186	4	162	166
187	2	163	164
188	2	163	165
189	5	166	167
190	4	166	168
191	5	168	169
192	5	170	171
193	4	170	172
194	8	172	173
195	12	173	174
196	12	173	175
197	12	173	176
198	5	177	178
199	4	177	179
200	5	179	180
201	4	179	181
202	8	181	182
203	9	182	183
204	9	182	187
205	9	182	191
206	10	183	184
207	10	183	185
208	10	183	186
209	10	187	188
210	10	187	189
211	10	187	190
212	10	191	192
213	10	191	193
214	5	194	195
215	4	194	196
216	5	196	197
217	8	198	199
218	4	198	203
219	12	199	200
220	12	199	201
221	12	199	202
222	5	203	204
223	5	205	206
224	4	205	207
225	5	207	208
226	13	210	211
227	6	210	212
228	4	212	213
229	4	212	239
230	5	213	214
231	4	213	215
232	5	215	216
233	4	215	217
234	6	217	218
235	4	217	237
236	13	218	219
237	6	218	220
238	4	220	221
239	4	220	235
240	5	221	222
241	4	221	223
242	5	223	224
243	4	223	225
244	6	225	226
245	4	225	230
246	13	226	227
247	14	226	228
248	15	228	229
249	6	230	231
250	4	230	235
251	13	231	232
252	14	231	233
253	15	233	234
254	5	235	236
255	5	237	238
256	4	237	239
257	6	239	240
258	13	240	241
259	14	240	242
260	15	242	243

Angles

1	6	181	182	187
2	1	7	84	86
3	1	40	42	43
4	6	183	182	191
5	1	136	135	196
6	4	91	92	93
7	6	182	191	193
8	4	74	73	75
9	6	21	70	72
10	1	162	166	168
11	3	2	1	88
12	1	123	122	207
13	6	182	191	192
14	5	231	233	234
15	4	73	75	76
16	6	61	66	68
17	5	110	112	113
18	4	35	34	36
19	1	218	220	221
20	1	154	156	157
21	1	30	31	32
22	1	220	221	223
23	4	123	125	126
24	1	230	231	232
25	6	77	78	79
26	6	198	199	200
27	1	96	97	98
28	1	29	56	58
29	6	182	183	186
30	1	97	99	114
31	8	188	187	190
32	1	26	60	58
33	1	218	220	235
34	1	128	203	198
35	1	170	172	173
36	6	181	182	183
37	6	182	187	190
38	1	215	217	237
39	6	61	62	64
40	6	54	52	55
41	1	230	231	233
42	4	139	138	140
43	6	183	182	187
44	4	148	147	149
45	1	14	15	16
46	1	100	102	104
47	1	30	31	51
48	6	141	142	144
49	1	225	226	228
50	6	172	173	174
51	1	32	34	36
52	4	103	102	104
53	1	213	215	217
54	4	130	129	131
55	3	42	43	44
56	1	116	118	119
57	8	23	22	24
58	1	157	158	160
59	4	153	152	154
60	8	71	70	72
61	4	8	9	10
62	4	171	170	172
63	1	2	3	5
64	4	100	102	103
65	4	135	136	137
66	1	131	133	134
67	1	134	133	198
68	1	217	237	239
69	4	16	18	19
70	1	30	29	56
71	1	31	51	52
72	6	140	141	146
73	4	28	27	29
74	5	105	107	108
75	4	177	179	180
76	4	59	58	60
77	4	149	177	178
78	1	34	36	49
79	6	140	141	142
80	1	1	2	86
81	1	36	49	51
82	1	213	212	239
83	6	61	62	63
84	1	5	7	8
85	6	141	142	143
86	6	140	141	191
87	4	84	86	87
88	1	118	119	210
89	1	140	194	196
90	4	26	27	28
91	1	99	100	102
92	1	104	105	106
93	1	18	20	73
94	6	61	66	69
95	1	11	13	14
96	1	135	136	138
97	5	240	242	243
98	1	160	162	163
99	8	24	22	25
100	8	64	62	65
101	1	125	127	205
102	6	66	61	70
103	4	15	75	76
104	1	16	18	20
105	6	21	70	61
106	1	5	7	84
107	1	91	118	119
108	8	144	142	145
109	1	14	15	75
110	8	67	66	68
111	6	62	61	70
112	4	29	56	57
113	6	53	52	55
114	1	43	89	91
115	1	20	73	75
116	4	205	207	208
117	5	149	150	151
118	1	97	99	100
119	1	15	16	18
120	1	9	8	82
121	1	151	152	154
122	1	221	223	225
123	1	221	220	235
124	1	78	77	82
125	6	200	199	201
126	1	104	105	107
127	1	99	114	109
128	1	14	13	77
129	6	60	61	66
130	4	146	147	148
131	1	211	210	212
132	1	34	36	37
133	3	162	163	164
134	4	158	160	161
135	4	95	94	96
136	9	227	226	228
137	8	63	62	64
138	4	4	3	5
139	6	26	21	70
140	1	225	226	227
141	6	201	199	202
142	4	12	11	13
143	4	96	116	117
144	1	212	239	237
145	1	11	13	77
146	4	128	129	130
147	1	38	37	47
148	5	226	228	229
149	4	122	123	124
150	4	56	58	59
151	4	224	223	225
152	4	99	114	115
153	1	96	116	118
154	6	22	21	70
155	1	147	149	150
156	4	178	177	179
157	1	149	177	179
158	1	100	99	114
159	6	198	199	201
160	4	33	32	34
161	1	121	122	123
162	1	89	91	92
163	6	20	21	70
164	6	172	173	176
165	7	179	181	182
166	1	154	156	170
167	1	158	160	162
168	4	37	47	48
169	1	163	162	166
170	4	151	152	153
171	1	31	51	49
172	4	126	125	127
173	1	129	131	133
174	6	21	70	71
175	1	2	86	84
176	1	127	128	129
177	1	18	20	21
178	1	3	5	7
179	1	146	147	149
180	6	182	183	184
181	3	162	163	165
182	8	67	66	69
183	1	212	213	215
184	4	92	94	95
185	8	63	62	65
186	4	117	116	118
187	1	151	172	170
188	4	45	47	48
189	1	102	104	105
190	1	133	198	203
191	1	141	140	194
192	1	121	122	207
193	4	85	84	86
194	1	37	47	45
195	4	36	49	50
196	6	61	70	72
197	1	1	2	3
198	1	141	146	181
199	1	218	217	237
200	1	32	31	51
201	1	122	207	205
202	6	142	141	146
203	1	21	20	73
204	1	127	128	203
205	4	7	84	85
206	1	156	157	158
207	1	146	181	182
208	6	60	61	62
209	9	111	110	112
210	1	125	127	128
211	1	49	51	52
212	6	51	52	53
213	3	88	1	121
214	6	22	21	26
215	6	175	173	176
216	7	58	60	61
217	8	68	66	69
218	5	29	30	31
219	4	238	237	239
220	6	80	78	81
221	6	61	62	65
222	6	79	78	81
223	1	96	97	99
224	6	60	61	70
225	6	20	21	26
226	9	232	231	233
227	6	21	22	23
228	1	156	170	172
229	4	127	205	206
230	4	162	166	167
231	4	19	18	20
232	7	21	26	27
233	1	150	151	172
234	4	198	203	204
235	1	120	119	210
236	1	13	77	78
237	6	21	22	25
238	4	152	154	155
239	1	217	218	219
240	1	110	109	114
241	4	15	16	17
242	4	180	179	181
243	4	46	45	47
244	7	141	146	147
245	1	7	8	82
246	4	222	221	223
247	4	109	114	115
248	6	182	187	188
249	4	42	45	46
250	9	241	240	242
251	6	53	52	54
252	6	20	21	22
253	1	89	91	118
254	1	128	129	131
255	4	167	166	168
256	4	161	160	162
257	1	16	15	75
258	8	184	183	185
259	4	206	205	207
260	1	105	104	109
261	4	8	82	83
262	1	150	151	152
263	4	2	86	87
264	1	42	45	47
265	8	189	187	190
266	1	219	218	220
267	4	32	34	35
268	1	92	94	96
269	4	50	49	51
270	4	214	213	215
271	6	79	78	80
272	4	122	207	208
273	1	119	210	211
274	4	136	138	139
275	4	217	237	238
276	1	152	154	156
277	8	192	191	193
278	1	40	42	45
279	4	10	9	11
280	1	36	37	47
281	4	220	221	222
282	1	13	77	82
283	4	9	11	12
284	1	150	149	177
285	6	200	199	202
286	4	195	194	196
287	1	199	198	203
288	4	6	5	7
289	8	23	22	25
290	1	157	168	166
291	1	147	149	177
292	1	134	135	136
293	4	128	203	204
294	1	104	109	110
295	1	225	230	231
296	4	101	100	102
297	4	194	196	197
298	1	133	198	199
299	4	220	235	236
300	1	127	205	207
301	6	51	52	55
302	4	124	123	125
303	1	92	91	118
304	4	135	196	197
305	6	51	52	54
306	1	226	225	230
307	1	134	135	196
308	1	8	82	77
309	4	77	82	83
310	1	27	26	60
311	1	138	140	141
312	6	62	61	66
313	1	37	38	40
314	1	21	26	60
315	1	3	2	86
316	1	104	109	114
317	4	159	158	160
318	6	198	199	202
319	4	137	136	138
320	1	152	151	172
321	1	223	225	230
322	3	1	121	209
323	1	119	210	212
324	1	215	217	218
325	1	38	40	42
326	1	210	212	213
327	1	31	32	34
328	1	26	27	29
329	4	230	235	236
330	1	97	96	116
331	1	135	196	194
332	1	98	97	99
333	1	26	60	61
334	1	56	58	60
335	8	184	183	186
336	8	185	183	186
337	4	132	131	133
338	4	157	158	159
339	6	141	191	182
340	4	216	215	217
341	1	7	8	9
342	4	166	168	169
343	1	94	96	97
344	1	131	133	198
345	1	212	239	240
346	1	90	89	91
347	6	174	173	176
348	1	158	157	168
349	3	122	121	209
350	6	172	173	175
351	4	155	154	156
352	1	136	138	140
353	1	156	157	168
354	4	221	223	224
355	4	31	32	33
356	4	156	170	171
357	8	143	142	145
358	1	15	75	73
359	6	142	141	191
360	2	1	121	122
361	1	223	225	226
362	1	239	240	241
363	4	129	131	132
364	1	147	146	181
365	6	61	70	71
366	6	77	78	81
367	1	109	110	111
368	4	2	3	4
369	4	38	40	41
370	1	43	89	90
371	6	146	141	191
372	1	27	29	56
373	1	37	36	49
374	8	188	187	189
375	4	213	215	216
376	6	182	187	189
377	6	182	183	185
378	1	177	179	181
379	1	160	162	166
380	2	2	1	121
381	1	36	37	38
382	1	217	218	220
383	4	3	5	6
384	1	146	181	179
385	1	157	156	170
386	1	123	125	127
387	1	91	92	94
388	3	44	43	89
389	9	106	105	107
390	1	9	11	13
391	1	151	172	173
392	5	133	134	135
393	4	212	213	214
394	1	109	110	112
395	6	174	173	175
396	4	157	168	169
397	1	27	29	30
398	6	181	182	191
399	2	42	43	89
400	6	141	191	193
401	1	210	212	239
402	4	39	38	40
403	5	13	14	15
404	6	141	142	145
405	4	57	56	58
406	4	140	194	195
407	6	141	191	192
408	1	220	235	230
409	1	231	230	235
410	1	122	123	125
411	1	118	119	120
412	4	93	92	94
413	1	237	239	240
414	4	17	16	18
415	3	164	163	165
416	4	37	38	39
417	1	128	127	205
418	8	143	142	144
419	1	239	240	242
420	1	91	118	116
421	6	77	78	80
422	4	20	73	74
423	1	129	128	203
424	1	43	42	45
425	1	138	140	194
426	1	8	9	11
427	1	102	104	109
428	1	94	96	116
429	6	61	66	67
430	6	187	182	191
431	1	8	7	84
432	6	21	22	24
433	4	41	40	42
434	1	225	230	235
435	4	99	100	101

Dihedrals

1	1	223	225	230	235
2	1	226	225	230	235
3	16	233	231	230	235
4	7	146	141	191	182
5	1	160	162	166	168
6	5	131	133	134	135
7	1	21	20	73	74
8	11	186	183	182	187
9	1	135	196	194	140
10	1	210	212	213	215
11	1	11	9	8	82
12	16	43	89	91	92
13	1	14	15	16	18
14	2	207	122	121	209
15	6	26	60	61	70
16	16	237	239	240	242
17	11	185	183	182	191
18	3	2	1	121	122
19	1	26	60	58	56
20	1	206	205	207	208
21	1	32	31	51	49
22	2	44	43	42	45
23	1	30	29	56	57
24	1	36	49	51	52
25	1	141	140	194	195
26	1	35	34	36	37
27	1	33	32	31	51
28	8	22	21	70	61
28	9	22	21	70	61
28	10	22	21	70	61
29	1	218	220	235	236
30	7	181	182	183	184
31	6	146	141	140	194
32	16	98	97	96	116
33	1	100	99	114	109
34	1	10	9	11	12
35	1	158	160	162	166
36	1	161	160	162	163
37	1	212	239	237	217
38	1	4	3	5	6
39	1	1	2	3	5
40	1	127	128	129	130
41	1	85	84	86	87
42	1	89	91	118	116
43	7	25	22	21	26
44	11	62	61	70	71
45	1	139	138	140	194
46	6	70	21	20	73
47	5	31	30	29	56
48	20	111	110	112	113
48	21	111	110	112	113
49	1	160	158	157	168
50	1	8	82	77	78
51	5	27	29	30	31
52	1	18	16	15	75
53	1	178	177	179	181
54	1	2	3	5	6
55	19	109	110	112	113
56	1	127	128	203	204
57	1	102	104	109	110
58	1	158	160	162	163
59	1	57	56	58	59
60	1	8	7	84	85
61	1	152	154	156	157
62	1	154	152	151	172
63	5	29	30	31	32
64	1	137	136	138	140
65	1	149	177	179	180
66	16	223	225	226	228
67	7	21	70	61	60
68	1	3	2	86	87
69	11	185	183	182	187
70	7	20	21	22	23
71	2	1	121	122	123
72	6	81	78	77	82
73	1	28	27	29	56
74	6	140	141	146	181
75	1	131	133	198	199
76	1	154	156	170	171
77	1	123	125	127	128
78	1	214	213	215	217
79	1	130	129	131	133
80	1	6	5	7	8
81	11	67	66	61	70
82	1	129	131	133	134
83	1	100	99	114	115
84	1	136	135	196	194
85	1	39	38	37	47
86	1	124	123	125	127
87	19	230	231	233	234
88	6	20	21	26	27
89	1	8	82	77	13
90	6	138	140	141	146
91	1	37	47	45	46
92	6	151	172	173	174
93	1	46	45	47	48
94	7	20	21	22	25
95	1	3	5	7	8
96	1	213	215	217	237
97	5	29	30	31	51
98	4	158	157	156	170
99	7	60	61	66	69
100	1	102	104	109	114
101	6	142	141	146	181
102	1	38	37	47	48
103	8	142	141	191	182
103	9	142	141	191	182
103	10	142	141	191	182
104	2	40	42	43	44
105	1	7	8	9	10
106	6	138	140	141	142
107	2	160	162	163	165
108	8	141	191	182	187
108	9	141	191	182	187
108	10	141	191	182	187
109	1	225	230	235	236
110	1	31	32	34	35
111	1	92	94	96	116
112	6	138	140	141	191
113	11	65	62	61	70
114	1	151	172	170	156
115	1	152	151	172	170
116	2	1	121	122	207
117	1	28	27	29	30
118	20	232	231	233	234
118	21	232	231	233	234
119	1	101	100	102	104
120	7	60	61	62	63
121	1	158	157	168	169
122	1	33	32	34	35
123	1	97	99	114	115
124	7	26	21	70	72
125	6	202	199	198	203
126	1	8	9	11	12
127	1	215	217	237	239
128	1	97	96	116	117
129	6	142	141	140	194
130	1	41	40	42	45
131	1	138	140	194	196
132	1	19	18	20	21
133	11	188	187	182	191
134	2	165	163	162	166
135	11	22	21	70	71
136	1	18	20	73	75
137	1	100	102	104	105
138	16	217	218	220	235
139	8	141	191	182	183
139	9	141	191	182	183
139	10	141	191	182	183
140	14	42	43	89	91
140	15	42	43	89	91
141	1	221	220	235	236
142	1	210	212	213	214
143	1	37	38	40	41
144	1	35	34	36	49
145	1	157	158	160	161
146	1	38	37	47	45
147	1	160	162	166	167
148	1	57	56	58	60
149	1	16	15	75	76
150	6	146	181	182	191
151	1	153	152	154	155
152	1	217	237	239	240
153	1	17	16	18	19
154	1	105	104	109	110
155	1	125	123	122	207
156	16	232	231	230	235
157	16	212	239	240	242
158	4	82	8	7	84
159	1	137	136	135	196
160	1	11	13	77	78
161	1	34	36	49	51
162	6	58	60	61	66
163	1	157	156	170	172
164	1	14	13	77	78
165	1	18	20	73	74
166	5	133	134	135	136
167	6	179	181	182	191
168	16	217	218	220	221
169	1	36	37	38	39
170	1	56	58	60	61
171	1	59	58	60	61
172	1	146	147	149	150
173	1	99	114	109	110
174	16	107	105	104	109
175	6	142	141	146	147
176	3	88	1	121	122
177	7	181	182	187	189
178	1	214	213	212	239
179	16	219	218	220	235
180	11	187	182	191	193
181	1	37	47	45	42
182	1	123	122	207	205
183	16	215	217	218	220
184	1	218	220	221	222
185	1	124	123	125	126
186	1	138	140	194	195
187	1	30	31	51	49
188	1	9	11	13	14
189	6	49	51	52	54
190	1	4	3	5	7
191	1	105	104	109	114
192	7	181	182	187	188
193	1	1	2	86	84
194	1	134	135	196	197
195	6	80	78	77	82
196	1	231	230	235	236
197	1	121	122	123	124
198	1	7	84	86	87
199	1	131	129	128	203
200	6	146	181	182	187
201	16	219	218	220	221
202	1	223	221	220	235
203	1	103	102	104	109
204	1	32	34	36	49
205	6	31	51	52	54
206	17	44	43	89	90
206	18	44	43	89	90
207	6	20	21	26	60
208	1	159	158	160	161
209	1	21	20	73	75
210	7	145	142	141	146
211	1	221	223	225	226
212	1	10	9	11	13
213	5	15	14	13	77
214	11	142	141	191	192
215	1	218	220	235	230
216	1	127	128	129	131
217	4	203	128	127	205
218	1	134	135	136	137
219	1	36	37	38	40
220	1	14	15	16	17
221	1	147	146	181	179
222	6	60	26	21	70
223	1	96	116	118	119
224	16	220	218	217	237
225	1	153	152	151	172
226	1	122	123	125	127
227	1	34	32	31	51
228	1	11	13	77	82
229	1	151	152	154	156
230	6	133	198	199	201
231	1	14	13	77	82
232	5	149	150	151	172
233	6	170	172	173	174
234	1	17	16	18	20
235	1	150	151	152	154
236	2	164	163	162	166
237	1	91	118	116	96
238	6	181	146	141	191
239	6	22	21	26	27
240	1	89	91	118	119
241	6	146	181	182	183
242	1	218	220	221	223
243	1	135	136	138	139
244	5	151	150	149	177
245	1	134	135	196	194
246	1	136	138	140	194
247	1	31	51	49	50
248	2	160	162	163	164
249	1	210	212	239	240
250	1	27	26	60	61
251	1	178	177	179	180
252	1	122	207	205	127
253	1	148	147	146	181
254	11	62	61	66	69
255	6	179	181	182	183
256	7	140	141	191	182
257	1	26	27	29	56
258	16	225	230	231	232
259	11	63	62	61	70
260	1	89	91	92	94
261	1	128	129	131	132
262	1	5	7	84	85
263	16	102	104	105	107
264	1	159	158	160	162
265	1	2	86	84	7
266	1	40	38	37	47
267	1	38	40	42	45
268	7	60	61	62	64
269	5	149	150	151	152
270	1	9	11	13	77
271	7	60	61	70	72
272	1	117	116	118	119
273	1	213	212	239	237
274	1	215	213	212	239
275	1	162	166	168	169
276	1	128	203	198	133
277	7	26	21	70	61
278	1	156	157	168	169
279	16	98	97	99	114
280	1	134	133	198	199
281	7	181	182	191	192
282	1	123	122	207	208
283	16	106	105	104	109
284	1	9	8	82	83
285	16	225	230	231	233
286	1	130	129	128	203
287	6	58	60	61	62
288	6	151	172	173	176
289	16	94	96	97	98
290	1	150	149	177	178
291	1	8	9	11	13
292	1	152	154	156	170
293	2	3	2	1	121
294	1	220	221	223	225
295	1	26	27	29	30
296	1	32	34	36	37