Title

87 atoms
86 bonds
161 angles
277 dihedrals
12 impropers

8 atom types
11 bond types
5 angle types
27 dihedral types
2 improper types
-7.256000042 92.74399996 xlo xhi
-9.171999931 90.82800007 ylo yhi
-5.041999817 94.95800018 zlo zhi
0.0 0.0 0.0 xy xz yz

Masses

1	15.99943
2	12.01078
3	1.007947
4	1.007947
5	12.01078
6	15.99943
7	15.99943
8	1.007947


Pair Coeffs

1	0.16846514	3.0251065
2	0.10884061	3.3795318
3	0.016409246	2.5832257
4	0.015779483	2.6445434
5	0.086879315	3.4806469
6	0.2102061	3.0398122
7	0.20947353	2.99716
8	1.2326e-05	0.53453923

Bond Coeffs

1 harmonic	366.7408841747	1.425895053732
2 harmonic	300.03137914615	1.451203938761
3 harmonic	264.62148576755	1.52190126495
4 harmonic	370.04670688625	1.093899492634
5 harmonic	301.15400723785	1.345741232799
6 harmonic	582.698766451	1.225198386222
7 harmonic	329.44145381095	1.523435958334
8 harmonic	279.1350963404	1.454628925034
9 harmonic	329.96998057905	1.427343958716
10 harmonic	543.5267831885	0.9716763312559
11 harmonic	385.7604595587	1.369745182308


Angle Coeffs

1 harmonic	53.20531626545	116.5475862634
2 harmonic	65.09061609600001	110.3538806181
3 harmonic	201.41175231035	127.4691416191
4 harmonic	57.8982893754	126.8062420451
5 harmonic	48.776492647595	115.6030999533


Dihedral Coeffs

1 fourier 1	0.1155372516788	3	0
2 fourier 1	0.1115525666802	3	0
3 fourier 1	0.3432490222662	1	0
4 fourier 1	0.0473758381877	3	0
5 fourier 1	0.457973137376	1	0
6 fourier 1	0.09223874044423	3	0
7 fourier 1	0.3159935921949	2	180
8 fourier 1	0.3247796806857	1	180
9 fourier 1	0.1040663847541	3	0
10 fourier 1	0.1918272375143	3	0
11 fourier 1	0.9202179876409	1	180
12 fourier 1	1.163809172478	2	180
13 fourier 1	0.1679186987369	1	180
14 fourier 1	2.779853741805	2	180
15 fourier 1	0.02664938770063	3	0
16 fourier 1	0.1911926717192	3	0
17 fourier 1	-0.3703352413219	2	0
18 fourier 1	0.4541676554336	1	0
19 fourier 1	0.1489710476446	2	0
20 fourier 1	0.02960027280666	3	180
21 fourier 1	0.9974165607242	2	180
22 fourier 1	0.3445382149273	3	0
23 fourier 1	0.1364556373303	1	0
24 fourier 1	0.3026390167484	3	0
25 fourier 1	2.687457892086	2	180
26 fourier 1	2.772607909663	2	180
27 fourier 1	0.09692684957115	1	0


Improper Coeffs

1 3.5	-1	2
2 0.3666666666666667	-1	2


Atoms

1	1	1	-0.180474	-2.5580001	0.57200003	0.94400001
2	1	2	0.031574	-1.365	0.62599999	0.20999999
3	1	2	-0.146612	-0.671	-0.741	0.23
4	1	2	-0.13923299	0.55199999	-0.81	-0.69999999
5	1	2	0.133855	1.743	0.017999999	-0.205
6	1	1	-0.495184	1.545	1.374	-0.49000001
7	1	3	0.077909999	2.661	-0.33199999	-0.72899997
8	1	3	0.077909999	1.8890001	-0.13	0.889
9	1	4	0.086662002	0.87400001	-1.873	-0.75599998
10	1	4	0.086662002	0.27200001	-0.498	-1.73
11	1	4	0.087626003	-1.399	-1.512	-0.104
12	1	4	0.087626003	-0.37400001	-0.99400002	1.272
13	1	3	0.077503003	-1.572	0.94300002	-0.838
14	1	3	0.077503003	-0.708	1.386	0.68000001
15	1	5	0.761011	2.3759999	1.873	-0.113
16	1	6	-0.55855	3.3239999	2.0899999	-0.85000002
17	1	2	-0.209034	2.421	2.323	1.317
18	1	2	-0.115894	1.124	1.9579999	2.0539999
19	1	2	-0.136565	1.084	2.5039999	3.4909999
20	1	2	-0.14190499	1.974	1.698	4.4520001
21	1	2	-0.14190499	2.0209999	2.2969999	5.8699999
22	1	2	-0.139221	0.67000002	2.3410001	6.6069999
23	1	2	-0.097557001	0.055	0.949	6.816
24	1	2	-0.25804099	-1.184	1.026	7.7160001
25	1	5	0.51640999	-1.8	-0.32800001	7.9109998
26	1	6	-0.692545	-2.7980001	-0.44800001	8.6009998
27	1	4	0.112866	-0.89999998	1.436	8.7089996
28	1	4	0.112866	-1.938	1.7	7.2550001
29	1	4	0.07604	-0.245	0.52399999	5.8340001
30	1	4	0.07604	0.80800003	0.27700001	7.2839999
31	1	4	0.077726997	0.84600002	2.8080001	7.5999999
32	1	4	0.077726997	-0.045000002	2.9960001	6.0650001
33	1	4	0.079599001	2.74	1.706	6.4790001
34	1	4	0.079599001	2.424	3.3310001	5.809
35	1	4	0.079599001	1.635	0.64099997	4.4920001
36	1	4	0.079599001	3.016	1.688	4.0689998
37	1	4	0.077726997	1.383	3.575	3.4979999
38	1	4	0.077726997	0.030999999	2.4430001	3.839
39	1	4	0.084812999	0.26499999	2.3959999	1.498
40	1	4	0.084812999	0.99000001	0.85399997	2.0650001
41	1	4	0.116016	2.5669999	3.425	1.339
42	1	4	0.116016	3.29	1.8380001	1.807
43	1	1	-0.180474	-3.2279999	0.123	0.366
44	1	2	0.031684998	-2.677	0.068999998	-0.92199999
45	1	2	-0.14088	-2.8	1.436	-1.605
46	1	2	-0.16792899	-2.059	1.506	-2.9519999
47	1	2	0.084973998	-2.724	0.67699999	-4.0580001
48	1	7	-0.68535799	-2.4130001	-0.67900002	-3.904
49	1	8	0.37687099	-2.885	-1.155	-4.6350002
50	1	3	0.067685001	-2.3399999	1.027	-5.0419998
51	1	3	0.067685001	-3.8269999	0.82599998	-4.0409999
52	1	4	0.090089001	-2.0510001	2.5680001	-3.2780001
53	1	4	0.090089001	-1	1.193	-2.826
54	1	4	0.087793998	-2.3610001	2.207	-0.93400002
55	1	4	0.087793998	-3.8729999	1.689	-1.747
56	1	3	0.077503003	-1.6109999	-0.248	-0.87199998
57	1	3	0.077503003	-3.2390001	-0.69099998	-1.503
58	1	5	0.51640999	-1.369	-1.2079999	7.4450002
59	1	6	-0.692545	-1.827	-1.617	6.3899999
60	1	2	-0.25804099	-0.206	-1.904	8.0909996
61	1	2	-0.097557001	-0.55900002	-3.3329999	8.5270004
62	1	2	-0.139221	-1.582	-3.3529999	9.6719999
63	1	2	-0.14190499	-1.88	-4.79	10.118
64	1	2	-0.14190499	-2.914	-4.8099999	11.254
65	1	2	-0.136565	-3.142	-6.2189999	11.824
66	1	2	-0.11336	-3.9219999	-7.1290002	10.859
67	1	2	-0.21912999	-4.2119999	-8.5059996	11.47
68	1	5	0.82306802	-5.2199998	-8.4219999	12.575
69	1	6	-0.56018299	-4.8499999	-8.5059996	13.777
70	1	7	-0.66626501	-6.5640001	-8.2250004	12.274
71	1	8	0.39305201	-7.256	-8.1549997	13.01
72	1	4	0.117034	-4.6170001	-9.1719999	10.678
73	1	4	0.117034	-3.27	-8.9650002	11.842
74	1	4	0.084812999	-4.8769999	-6.6420002	10.562
75	1	4	0.084812999	-3.322	-7.2880001	9.9390001
76	1	4	0.077726997	-2.1659999	-6.6849999	12.08
77	1	4	0.077726997	-3.72	-6.1110001	12.767
78	1	4	0.079599001	-3.8789999	-4.3870001	10.897
79	1	4	0.079599001	-2.549	-4.1620002	12.081
80	1	4	0.079599001	-2.2690001	-5.3610001	9.2480001
81	1	4	0.079599001	-0.93800002	-5.2690001	10.466
82	1	4	0.077726997	-2.527	-2.8729999	9.3360004
83	1	4	0.077726997	-1.1799999	-2.776	10.534
84	1	4	0.07604	-0.95200002	-3.904	7.6560001
85	1	4	0.07604	0.37400001	-3.8329999	8.8660002
86	1	4	0.112866	0.133	-1.316	8.9720001
87	1	4	0.112866	0.63499999	-1.941	7.3660002

Bonds

1	1	1	2
2	2	1	43
3	3	2	3
4	4	2	13
5	4	2	14
6	3	3	4
7	4	3	11
8	4	3	12
9	3	4	5
10	4	4	9
11	4	4	10
12	1	5	6
13	4	5	7
14	4	5	8
15	5	6	15
16	6	15	16
17	7	15	17
18	3	17	18
19	4	17	41
20	4	17	42
21	3	18	19
22	4	18	39
23	4	18	40
24	3	19	20
25	4	19	37
26	4	19	38
27	3	20	21
28	4	20	35
29	4	20	36
30	3	21	22
31	4	21	33
32	4	21	34
33	3	22	23
34	4	22	31
35	4	22	32
36	3	23	24
37	4	23	29
38	4	23	30
39	7	24	25
40	4	24	27
41	4	24	28
42	6	25	26
43	8	25	58
44	1	43	44
45	3	44	45
46	4	44	56
47	4	44	57
48	3	45	46
49	4	45	54
50	4	45	55
51	3	46	47
52	4	46	52
53	4	46	53
54	9	47	48
55	4	47	50
56	4	47	51
57	10	48	49
58	6	58	59
59	7	58	60
60	3	60	61
61	4	60	86
62	4	60	87
63	3	61	62
64	4	61	84
65	4	61	85
66	3	62	63
67	4	62	82
68	4	62	83
69	3	63	64
70	4	63	80
71	4	63	81
72	3	64	65
73	4	64	78
74	4	64	79
75	3	65	66
76	4	65	76
77	4	65	77
78	3	66	67
79	4	66	74
80	4	66	75
81	7	67	68
82	4	67	72
83	4	67	73
84	6	68	69
85	11	68	70
86	10	70	71

Angles

1	1	21	22	32
2	1	23	24	27
3	5	72	67	73
4	1	48	47	51
5	1	22	23	24
6	1	61	60	86
7	1	21	20	35
8	1	4	5	7
9	5	50	47	51
10	1	63	62	82
11	1	20	19	38
12	1	19	20	21
13	1	58	60	86
14	1	1	2	13
15	4	59	58	60
16	1	61	60	87
17	1	44	45	55
18	1	21	20	36
19	1	46	47	50
20	1	4	5	8
21	1	15	17	41
22	1	17	18	39
23	1	18	19	20
24	1	63	62	83
25	1	64	65	66
26	5	84	61	85
27	5	76	65	77
28	1	15	17	18
29	1	60	61	84
30	2	68	70	71
31	1	45	44	57
32	1	65	66	74
33	1	58	60	87
34	4	24	25	58
35	4	26	25	58
36	1	62	63	80
37	1	45	46	53
38	1	66	67	73
39	1	3	2	14
40	1	46	47	51
41	1	15	17	42
42	1	17	18	40
43	5	11	3	12
44	1	23	22	31
45	1	61	62	82
46	1	20	21	33
47	1	22	21	33
48	5	37	19	38
49	5	52	46	53
50	4	25	58	59
51	1	22	23	29
52	3	6	15	16
53	1	63	64	65
54	4	67	68	69
55	1	20	21	34
56	1	66	65	76
57	1	23	24	28
58	1	46	45	54
59	1	68	67	72
60	1	65	66	67
61	1	65	64	78
62	1	67	66	74
63	2	2	1	43
64	5	56	44	57
65	1	62	61	84
66	1	62	63	64
67	4	67	68	70
68	1	6	5	7
69	1	1	2	14
70	1	47	46	52
71	1	66	65	77
72	1	64	65	76
73	5	80	63	81
74	5	13	2	14
75	5	27	24	28
76	1	65	64	79
77	1	25	24	27
78	1	2	3	11
79	5	33	21	34
80	1	60	61	85
81	1	63	64	78
82	1	20	21	22
83	1	23	24	25
84	1	58	60	61
85	1	62	61	85
86	1	45	46	47
87	5	86	60	87
88	1	65	66	75
89	1	4	3	11
90	1	43	44	56
91	1	62	63	81
92	1	24	23	29
93	1	23	22	32
94	1	61	62	83
95	1	2	3	12
96	1	21	22	31
97	5	41	17	42
98	1	48	47	50
99	2	5	6	15
100	1	61	62	63
101	1	22	21	34
102	1	18	17	41
103	1	46	47	48
104	1	4	5	6
105	5	35	20	36
106	5	9	4	10
107	1	3	4	5
108	4	25	58	60
109	5	31	22	32
110	3	69	68	70
111	1	22	23	30
112	1	18	19	37
113	4	6	15	17
114	1	24	23	30
115	1	64	63	80
116	4	16	15	17
117	1	60	61	62
118	1	17	18	19
119	1	1	2	3
120	1	46	45	55
121	1	2	3	4
122	1	68	67	73
123	5	82	62	83
124	1	19	18	39
125	1	21	22	23
126	5	29	23	30
127	5	39	18	40
128	1	44	45	54
129	1	18	17	42
130	1	3	4	10
131	1	67	66	75
132	1	3	4	9
133	1	19	20	35
134	1	18	19	38
135	5	54	45	55
136	1	45	44	56
137	1	64	63	81
138	1	6	5	8
139	1	47	46	53
140	2	1	43	44
141	1	45	46	52
142	1	19	18	40
143	1	64	65	77
144	1	43	44	45
145	1	66	67	72
146	1	3	2	13
147	5	78	64	79
148	1	44	45	46
149	2	47	48	49
150	1	25	24	28
151	1	63	64	79
152	1	19	20	36
153	5	74	66	75
154	1	66	67	68
155	1	4	3	12
156	1	20	19	37
157	5	7	5	8
158	1	5	4	10
159	1	43	44	57
160	1	5	4	9
161	4	24	25	26

Dihedrals

1	16	85	61	60	86
2	4	8	5	6	15
3	16	34	21	20	35
4	16	12	3	2	14
5	16	78	64	63	80
6	25	67	68	70	71
7	1	58	60	61	84
8	2	1	2	3	12
8	3	1	2	3	12
9	9	20	21	22	31
10	9	45	46	47	51
11	9	22	23	24	27
12	6	63	64	65	66
12	7	63	64	65	66
12	8	63	64	65	66
13	16	54	45	44	57
14	22	46	47	48	49
14	23	46	47	48	49
15	16	50	47	46	52
16	16	10	4	3	12
17	16	40	18	17	41
18	1	43	44	45	46
19	18	26	25	24	27
19	19	26	25	24	27
19	20	26	25	24	27
20	9	4	3	2	13
21	16	30	23	22	31
22	16	55	45	44	57
23	18	59	58	60	87
23	19	59	58	60	87
23	20	59	58	60	87
24	16	84	61	60	87
25	16	79	64	63	80
26	16	29	23	22	31
27	9	24	23	22	31
28	16	78	64	63	81
29	1	58	60	61	85
30	15	25	58	60	61
31	9	20	21	22	32
32	16	80	63	62	82
33	9	22	23	24	28
34	9	19	18	17	41
35	24	49	48	47	51
36	1	1	2	3	4
37	6	62	63	64	65
37	7	62	63	64	65
37	8	62	63	64	65
38	9	64	63	62	82
39	16	77	65	64	78
40	16	51	47	46	52
41	4	7	5	6	15
42	9	22	21	20	36
43	21	26	25	58	59
44	16	50	47	46	53
45	16	72	67	66	75
46	16	74	66	65	76
47	16	73	67	66	74
48	15	28	24	25	58
49	16	52	46	45	54
50	1	68	67	66	74
51	17	59	58	60	61
52	9	4	3	2	14
53	1	25	24	23	29
54	1	15	17	18	39
55	16	30	23	22	32
56	16	32	22	21	34
57	16	79	64	63	81
58	9	62	61	60	86
59	9	66	65	64	78
60	9	23	22	21	33
61	16	38	19	18	40
62	9	64	63	62	83
63	15	66	67	68	70
64	4	1	43	44	45
65	15	27	24	25	58
66	16	51	47	46	53
67	14	5	6	15	17
68	16	27	24	23	30
69	4	3	2	1	43
70	16	74	66	65	77
71	16	73	67	66	75
72	16	39	18	17	41
73	9	46	45	44	57
74	9	64	65	66	74
75	9	67	66	65	76
76	16	8	5	4	10
77	16	11	3	2	14
78	1	15	17	18	40
79	16	8	5	4	9
80	18	16	15	17	42
80	19	16	15	17	42
80	20	16	15	17	42
81	1	22	23	24	25
82	1	25	24	23	30
83	9	21	20	19	37
84	1	58	60	61	62
85	26	69	68	70	71
85	27	69	68	70	71
86	2	43	44	45	55
86	3	43	44	45	55
87	9	65	64	63	80
88	9	19	20	21	33
89	4	1	43	44	57
90	16	82	62	61	84
91	21	24	25	58	60
92	9	44	45	46	53
93	16	31	22	21	34
94	16	85	61	60	87
95	17	23	24	25	26
96	16	34	21	20	36
97	15	6	15	17	41
98	16	39	18	17	42
99	16	76	65	64	78
100	9	63	64	65	76
101	9	67	66	65	77
102	6	61	62	63	64
102	7	61	62	63	64
102	8	61	62	63	64
103	15	6	15	17	18
104	9	20	19	18	39
105	9	61	62	63	80
106	16	40	18	17	42
107	16	82	62	61	85
108	1	3	4	5	6
109	18	26	25	24	28
109	19	26	25	24	28
109	20	26	25	24	28
110	1	45	46	47	48
111	9	17	18	19	37
112	9	65	66	67	72
113	16	29	23	22	32
114	9	24	23	22	32
115	16	76	65	64	79
116	16	80	63	62	83
117	9	19	18	17	42
118	16	77	65	64	79
119	16	75	66	65	76
120	5	2	1	43	44
121	21	26	25	58	60
122	9	20	19	18	40
123	16	36	20	19	37
124	1	65	66	67	68
125	6	21	22	23	24
125	7	21	22	23	24
125	8	21	22	23	24
126	9	60	61	62	82
127	16	52	46	45	55
128	9	3	4	5	7
129	6	2	3	4	5
129	7	2	3	4	5
129	8	2	3	4	5
130	1	68	67	66	75
131	16	35	20	19	37
132	9	17	18	19	38
133	9	21	22	23	29
134	15	23	24	25	58
135	9	62	63	64	78
136	9	62	61	60	87
137	9	66	65	64	79
138	9	23	22	21	34
139	16	83	62	61	84
140	16	37	19	18	39
141	2	6	5	4	10
141	3	6	5	4	10
142	16	81	63	62	82
143	2	6	5	4	9
143	3	6	5	4	9
144	9	18	19	20	35
145	6	19	20	21	22
145	7	19	20	21	22
145	8	19	20	21	22
146	9	63	62	61	84
147	9	64	65	66	75
148	9	2	3	4	10
149	9	2	3	4	9
150	16	7	5	4	10
151	15	25	58	60	86
152	16	7	5	4	9
153	16	54	45	44	56
154	9	21	20	19	38
155	4	14	2	1	43
156	9	62	63	64	79
157	9	65	64	63	81
158	9	5	4	3	11
159	9	19	20	21	34
160	16	83	62	61	85
161	2	48	47	46	53
161	3	48	47	46	53
162	16	81	63	62	83
163	18	59	58	60	86
163	19	59	58	60	86
163	20	59	58	60	86
164	9	63	62	61	85
165	16	84	61	60	86
166	15	6	15	17	42
167	16	9	4	3	11
168	18	69	68	67	72
168	19	69	68	67	72
168	20	69	68	67	72
169	9	63	64	65	77
170	16	28	24	23	30
171	15	25	58	60	87
172	24	49	48	47	50
173	6	64	65	66	67
173	7	64	65	66	67
173	8	64	65	66	67
174	16	53	46	45	54
175	9	22	21	20	35
176	1	15	17	18	19
177	9	61	62	63	81
178	16	72	67	66	74
179	9	5	4	3	12
180	16	32	22	21	33
181	9	65	66	67	73
182	15	70	68	67	72
183	16	9	4	3	12
184	9	47	46	45	54
185	18	69	68	67	73
185	19	69	68	67	73
185	20	69	68	67	73
186	16	38	19	18	39
187	16	75	66	65	77
188	10	4	5	6	15
188	11	4	5	6	15
189	6	20	21	22	23
189	7	20	21	22	23
189	8	20	21	22	23
190	16	28	24	23	29
191	2	48	47	46	52
191	3	48	47	46	52
192	16	33	21	20	35
193	6	18	19	20	21
193	7	18	19	20	21
193	8	18	19	20	21
194	16	53	46	45	55
195	17	66	67	68	69
196	12	5	6	15	16
196	13	5	6	15	16
197	16	36	20	19	38
198	6	17	18	19	20
198	7	17	18	19	20
198	8	17	18	19	20
199	16	12	3	2	13
200	16	27	24	23	29
201	9	60	61	62	83
202	9	3	4	5	8
203	2	1	2	3	11
203	3	1	2	3	11
204	9	45	46	47	50
205	16	35	20	19	38
206	9	46	45	44	56
207	18	16	15	17	41
207	19	16	15	17	41
207	20	16	15	17	41
208	16	11	3	2	13
209	6	60	61	62	63
209	7	60	61	62	63
209	8	60	61	62	63
210	6	44	45	46	47
210	7	44	45	46	47
210	8	44	45	46	47
211	9	21	22	23	30
212	15	70	68	67	73
213	17	16	15	17	18
214	16	10	4	3	11
215	2	43	44	45	54
215	3	43	44	45	54
216	9	47	46	45	55
217	4	13	2	1	43
218	4	1	43	44	56
219	16	37	19	18	40
220	21	24	25	58	59
221	9	18	19	20	36
222	9	44	45	46	52
223	16	33	21	20	36
224	16	31	22	21	33
225	16	55	45	44	56

Impropers

3	2	25	24	26	58
6	2	58	59	60	25
215	1	68	69	70	67
220	1	68	67	69	70
298	1	68	70	67	69
379	1	15	17	6	16
383	2	58	25	59	60
409	2	25	58	24	26
429	1	15	6	16	17
466	2	25	26	58	24
498	1	15	16	17	6
517	2	58	60	25	59
