Title

87 atoms
86 bonds
161 angles
277 dihedrals
12 impropers

8 atom types
11 bond types
5 angle types
27 dihedral types
2 improper types
-7.256000042 92.74399996 xlo xhi
-9.171999931 90.82800007 ylo yhi
-5.041999817 94.95800018 zlo zhi
0.0 0.0 0.0 xy xz yz

Masses

1	15.99943
2	12.01078
3	1.007947
4	1.007947
5	12.01078
6	15.99943
7	15.99943
8	1.007947


Pair Coeffs

1	0.16846514	3.0251065
2	0.10884061	3.3795318
3	0.016409246	2.5832257
4	0.015779483	2.6445434
5	0.086879315	3.4806469
6	0.2102061	3.0398122
7	0.20947353	2.99716
8	1.2326e-05	0.53453923

Bond Coeffs

1 harmonic	366.7408841747	1.425895053732
2 harmonic	300.03137914615	1.451203938761
3 harmonic	264.62148576755	1.52190126495
4 harmonic	370.04670688625	1.093899492634
5 harmonic	301.15400723785	1.345741232799
6 harmonic	582.698766451	1.225198386222
7 harmonic	329.44145381095	1.523435958334
8 harmonic	279.1350963404	1.454628925034
9 harmonic	329.96998057905	1.427343958716
10 harmonic	543.5267831885	0.9716763312559
11 harmonic	385.7604595587	1.369745182308


Angle Coeffs

1 harmonic	53.20531626545	116.5475862634
2 harmonic	65.09061609600001	110.3538806181
3 harmonic	201.41175231035	127.4691416191
4 harmonic	57.8982893754	126.8062420451
5 harmonic	48.776492647595	115.6030999533


Dihedral Coeffs

1 fourier 1	0.1155372516788	3	0
2 fourier 1	0.1115525666802	3	0
3 fourier 1	0.3432490222662	1	0
4 fourier 1	0.0473758381877	3	0
5 fourier 1	0.457973137376	1	0
6 fourier 1	0.09223874044423	3	0
7 fourier 1	0.3159935921949	2	180
8 fourier 1	0.3247796806857	1	180
9 fourier 1	0.1040663847541	3	0
10 fourier 1	0.1918272375143	3	0
11 fourier 1	0.9202179876409	1	180
12 fourier 1	1.163809172478	2	180
13 fourier 1	0.1679186987369	1	180
14 fourier 1	2.779853741805	2	180
15 fourier 1	0.02664938770063	3	0
16 fourier 1	0.1911926717192	3	0
17 fourier 1	-0.3703352413219	2	0
18 fourier 1	0.4541676554336	1	0
19 fourier 1	0.1489710476446	2	0
20 fourier 1	0.02960027280666	3	180
21 fourier 1	0.9974165607242	2	180
22 fourier 1	0.3445382149273	3	0
23 fourier 1	0.1364556373303	1	0
24 fourier 1	0.3026390167484	3	0
25 fourier 1	2.687457892086	2	180
26 fourier 1	2.772607909663	2	180
27 fourier 1	0.09692684957115	1	0


Improper Coeffs

1 3.5	-1	2
2 0.3666666666666667	-1	2


Atoms

1	1	1	-0.180474	-2.5580001	0.57200003	0.94400001
2	1	2	0.031574	-1.365	0.62599999	0.20999999
3	1	2	-0.146612	-0.671	-0.741	0.23
4	1	2	-0.13923299	0.55199999	-0.81	-0.69999999
5	1	2	0.133855	1.743	0.017999999	-0.205
6	1	1	-0.495184	1.545	1.374	-0.49000001
7	1	3	0.077909999	2.661	-0.33199999	-0.72899997
8	1	3	0.077909999	1.8890001	-0.13	0.889
9	1	4	0.086662002	0.87400001	-1.873	-0.75599998
10	1	4	0.086662002	0.27200001	-0.498	-1.73
11	1	4	0.087626003	-1.399	-1.512	-0.104
12	1	4	0.087626003	-0.37400001	-0.99400002	1.272
13	1	3	0.077503003	-1.572	0.94300002	-0.838
14	1	3	0.077503003	-0.708	1.386	0.68000001
15	1	5	0.761011	2.3759999	1.873	-0.113
16	1	6	-0.55855	3.3239999	2.0899999	-0.85000002
17	1	2	-0.209034	2.421	2.323	1.317
18	1	2	-0.115894	1.124	1.9579999	2.0539999
19	1	2	-0.136565	1.084	2.5039999	3.4909999
20	1	2	-0.14190499	1.974	1.698	4.4520001
21	1	2	-0.14190499	2.0209999	2.2969999	5.8699999
22	1	2	-0.139221	0.67000002	2.3410001	6.6069999
23	1	2	-0.097557001	0.055	0.949	6.816
24	1	2	-0.25804099	-1.184	1.026	7.7160001
25	1	5	0.51640999	-1.8	-0.32800001	7.9109998
26	1	6	-0.692545	-2.7980001	-0.44800001	8.6009998
27	1	4	0.112866	-0.89999998	1.436	8.7089996
28	1	4	0.112866	-1.938	1.7	7.2550001
29	1	4	0.07604	-0.245	0.52399999	5.8340001
30	1	4	0.07604	0.80800003	0.27700001	7.2839999
31	1	4	0.077726997	0.84600002	2.8080001	7.5999999
32	1	4	0.077726997	-0.045000002	2.9960001	6.0650001
33	1	4	0.079599001	2.74	1.706	6.4790001
34	1	4	0.079599001	2.424	3.3310001	5.809
35	1	4	0.079599001	1.635	0.64099997	4.4920001
36	1	4	0.079599001	3.016	1.688	4.0689998
37	1	4	0.077726997	1.383	3.575	3.4979999
38	1	4	0.077726997	0.030999999	2.4430001	3.839
39	1	4	0.084812999	0.26499999	2.3959999	1.498
40	1	4	0.084812999	0.99000001	0.85399997	2.0650001
41	1	4	0.116016	2.5669999	3.425	1.339
42	1	4	0.116016	3.29	1.8380001	1.807
43	1	1	-0.180474	-3.2279999	0.123	0.366
44	1	2	0.031684998	-2.677	0.068999998	-0.92199999
45	1	2	-0.14088	-2.8	1.436	-1.605
46	1	2	-0.16792899	-2.059	1.506	-2.9519999
47	1	2	0.084973998	-2.724	0.67699999	-4.0580001
48	1	7	-0.68535799	-2.4130001	-0.67900002	-3.904
49	1	8	0.37687099	-2.885	-1.155	-4.6350002
50	1	3	0.067685001	-2.3399999	1.027	-5.0419998
51	1	3	0.067685001	-3.8269999	0.82599998	-4.0409999
52	1	4	0.090089001	-2.0510001	2.5680001	-3.2780001
53	1	4	0.090089001	-1	1.193	-2.826
54	1	4	0.087793998	-2.3610001	2.207	-0.93400002
55	1	4	0.087793998	-3.8729999	1.689	-1.747
56	1	3	0.077503003	-1.6109999	-0.248	-0.87199998
57	1	3	0.077503003	-3.2390001	-0.69099998	-1.503
58	1	5	0.51640999	-1.369	-1.2079999	7.4450002
59	1	6	-0.692545	-1.827	-1.617	6.3899999
60	1	2	-0.25804099	-0.206	-1.904	8.0909996
61	1	2	-0.097557001	-0.55900002	-3.3329999	8.5270004
62	1	2	-0.139221	-1.582	-3.3529999	9.6719999
63	1	2	-0.14190499	-1.88	-4.79	10.118
64	1	2	-0.14190499	-2.914	-4.8099999	11.254
65	1	2	-0.136565	-3.142	-6.2189999	11.824
66	1	2	-0.11336	-3.9219999	-7.1290002	10.859
67	1	2	-0.21912999	-4.2119999	-8.5059996	11.47
68	1	5	0.82306802	-5.2199998	-8.4219999	12.575
69	1	6	-0.56018299	-4.8499999	-8.5059996	13.777
70	1	7	-0.66626501	-6.5640001	-8.2250004	12.274
71	1	8	0.39305201	-7.256	-8.1549997	13.01
72	1	4	0.117034	-4.6170001	-9.1719999	10.678
73	1	4	0.117034	-3.27	-8.9650002	11.842
74	1	4	0.084812999	-4.8769999	-6.6420002	10.562
75	1	4	0.084812999	-3.322	-7.2880001	9.9390001
76	1	4	0.077726997	-2.1659999	-6.6849999	12.08
77	1	4	0.077726997	-3.72	-6.1110001	12.767
78	1	4	0.079599001	-3.8789999	-4.3870001	10.897
79	1	4	0.079599001	-2.549	-4.1620002	12.081
80	1	4	0.079599001	-2.2690001	-5.3610001	9.2480001
81	1	4	0.079599001	-0.93800002	-5.2690001	10.466
82	1	4	0.077726997	-2.527	-2.8729999	9.3360004
83	1	4	0.077726997	-1.1799999	-2.776	10.534
84	1	4	0.07604	-0.95200002	-3.904	7.6560001
85	1	4	0.07604	0.37400001	-3.8329999	8.8660002
86	1	4	0.112866	0.133	-1.316	8.9720001
87	1	4	0.112866	0.63499999	-1.941	7.3660002

Bonds

1	1	1	2
2	2	1	43
3	3	2	3
4	4	2	13
5	4	2	14
6	3	3	4
7	4	3	11
8	4	3	12
9	3	4	5
10	4	4	9
11	4	4	10
12	1	5	6
13	4	5	7
14	4	5	8
15	5	6	15
16	6	15	16
17	7	15	17
18	3	17	18
19	4	17	41
20	4	17	42
21	3	18	19
22	4	18	39
23	4	18	40
24	3	19	20
25	4	19	37
26	4	19	38
27	3	20	21
28	4	20	35
29	4	20	36
30	3	21	22
31	4	21	33
32	4	21	34
33	3	22	23
34	4	22	31
35	4	22	32
36	3	23	24
37	4	23	29
38	4	23	30
39	7	24	25
40	4	24	27
41	4	24	28
42	6	25	26
43	8	25	58
44	1	43	44
45	3	44	45
46	4	44	56
47	4	44	57
48	3	45	46
49	4	45	54
50	4	45	55
51	3	46	47
52	4	46	52
53	4	46	53
54	9	47	48
55	4	47	50
56	4	47	51
57	10	48	49
58	6	58	59
59	7	58	60
60	3	60	61
61	4	60	86
62	4	60	87
63	3	61	62
64	4	61	84
65	4	61	85
66	3	62	63
67	4	62	82
68	4	62	83
69	3	63	64
70	4	63	80
71	4	63	81
72	3	64	65
73	4	64	78
74	4	64	79
75	3	65	66
76	4	65	76
77	4	65	77
78	3	66	67
79	4	66	74
80	4	66	75
81	7	67	68
82	4	67	72
83	4	67	73
84	6	68	69
85	11	68	70
86	10	70	71

Angles

1	1	2	3	11
2	1	1	2	3
3	1	61	62	82
4	3	6	15	16
5	1	47	46	53
6	4	67	68	69
7	1	17	18	39
8	1	46	45	55
9	5	86	60	87
10	1	23	24	27
11	3	69	68	70
12	1	3	4	9
13	1	3	4	10
14	1	20	21	34
15	5	11	3	12
16	1	6	5	7
17	1	60	61	84
18	1	17	18	40
19	1	64	63	80
20	2	2	1	43
21	1	20	21	22
22	1	64	65	76
23	1	15	17	42
24	1	24	23	30
25	1	21	22	23
26	5	82	62	83
27	1	15	17	41
28	1	20	19	37
29	1	60	61	85
30	1	1	2	13
31	1	44	45	55
32	5	41	17	42
33	1	46	47	51
34	1	61	62	63
35	1	19	18	39
36	1	25	24	28
37	1	66	65	77
38	1	61	62	83
39	1	4	5	6
40	5	29	23	30
41	5	80	63	81
42	1	17	18	19
43	1	45	46	47
44	2	47	48	49
45	1	64	65	66
46	4	26	25	58
47	1	19	18	40
48	1	21	22	31
49	1	64	63	81
50	1	62	63	64
51	5	74	66	75
52	5	7	5	8
53	1	23	24	25
54	1	68	67	72
55	1	46	47	50
56	1	45	46	53
57	1	48	47	51
58	1	4	5	8
59	1	19	20	21
60	1	63	62	82
61	1	44	45	46
62	5	78	64	79
63	4	16	15	17
64	1	65	64	79
65	1	22	21	33
66	4	24	25	26
67	1	19	20	36
68	4	59	58	60
69	1	22	23	29
70	4	25	58	60
71	1	18	17	42
72	1	21	20	36
73	1	65	66	67
74	1	18	17	41
75	5	37	19	38
76	1	66	67	68
77	4	6	15	17
78	1	47	46	52
79	1	48	47	50
80	1	43	44	45
81	1	46	45	54
82	1	6	5	8
83	5	56	44	57
84	5	27	24	28
85	1	62	63	80
86	5	76	65	77
87	5	84	61	85
88	1	60	61	62
89	1	65	66	74
90	5	31	22	32
91	1	63	64	65
92	1	43	44	57
93	1	65	66	75
94	1	18	19	38
95	1	63	64	79
96	1	64	65	77
97	1	25	24	27
98	1	2	3	12
99	1	5	4	9
100	1	5	4	10
101	4	24	25	58
102	1	63	62	83
103	5	35	20	36
104	1	22	21	34
105	1	19	20	35
106	1	18	19	20
107	1	22	23	30
108	1	44	45	54
109	1	66	67	73
110	5	9	4	10
111	2	1	43	44
112	1	1	2	14
113	1	63	64	78
114	1	3	2	13
115	1	61	60	87
116	1	65	64	78
117	1	2	3	4
118	1	58	60	61
119	1	58	60	87
120	1	23	22	32
121	1	45	44	57
122	1	61	60	86
123	1	43	44	56
124	1	66	65	76
125	1	62	63	81
126	1	4	3	12
127	5	50	47	51
128	4	67	68	70
129	1	67	66	74
130	1	3	4	5
131	1	20	21	33
132	1	45	46	52
133	1	67	66	75
134	1	62	61	85
135	1	68	67	73
136	5	52	46	53
137	1	58	60	86
138	1	20	19	38
139	1	23	22	31
140	1	4	5	7
141	1	22	23	24
142	1	4	3	11
143	2	68	70	71
144	1	46	47	48
145	5	39	18	40
146	1	66	67	72
147	1	15	17	18
148	5	72	67	73
149	2	5	6	15
150	1	23	24	28
151	1	21	20	35
152	1	21	22	32
153	5	54	45	55
154	5	13	2	14
155	1	24	23	29
156	1	3	2	14
157	1	18	19	37
158	4	25	58	59
159	1	62	61	84
160	5	33	21	34
161	1	45	44	56

Dihedrals

1	18	16	15	17	42
1	19	16	15	17	42
1	20	16	15	17	42
2	16	80	63	62	83
3	16	80	63	62	82
4	9	17	18	19	37
5	18	16	15	17	41
5	19	16	15	17	41
5	20	16	15	17	41
6	1	1	2	3	4
7	6	61	62	63	64
7	7	61	62	63	64
7	8	61	62	63	64
8	9	65	66	67	73
9	4	1	43	44	45
10	4	8	5	6	15
11	9	21	20	19	37
12	4	1	43	44	56
13	16	31	22	21	34
14	2	43	44	45	54
14	3	43	44	45	54
15	16	35	20	19	38
16	9	47	46	45	55
17	9	5	4	3	12
18	1	15	17	18	19
19	1	65	66	67	68
20	16	29	23	22	32
21	16	74	66	65	77
22	16	75	66	65	76
23	9	20	19	18	39
24	9	60	61	62	82
25	21	26	25	58	60
26	9	22	23	24	28
27	16	84	61	60	87
28	16	28	24	23	30
29	16	55	45	44	57
30	9	24	23	22	32
31	16	9	4	3	12
32	2	1	2	3	12
32	3	1	2	3	12
33	9	4	3	2	13
34	15	70	68	67	72
35	16	77	65	64	78
36	9	20	19	18	40
37	16	39	18	17	42
38	21	24	25	58	59
39	16	39	18	17	41
40	9	64	63	62	83
41	18	69	68	67	72
41	19	69	68	67	72
41	20	69	68	67	72
42	16	29	23	22	31
43	16	84	61	60	86
44	2	48	47	46	52
44	3	48	47	46	52
45	6	62	63	64	65
45	7	62	63	64	65
45	8	62	63	64	65
46	9	3	4	5	7
47	9	19	20	21	34
48	9	62	63	64	79
49	16	50	47	46	52
50	16	8	5	4	9
51	16	8	5	4	10
52	9	22	23	24	27
53	25	67	68	70	71
54	2	1	2	3	11
54	3	1	2	3	11
55	16	81	63	62	82
56	9	61	62	63	80
57	15	6	15	17	18
58	6	19	20	21	22
58	7	19	20	21	22
58	8	19	20	21	22
59	16	10	4	3	11
60	18	26	25	24	27
60	19	26	25	24	27
60	20	26	25	24	27
61	16	53	46	45	55
62	9	23	22	21	33
63	16	36	20	19	37
64	9	66	65	64	79
65	16	55	45	44	56
66	16	38	19	18	39
67	6	60	61	62	63
67	7	60	61	62	63
67	8	60	61	62	63
68	4	14	2	1	43
69	6	21	22	23	24
69	7	21	22	23	24
69	8	21	22	23	24
70	16	52	46	45	54
71	9	20	21	22	32
72	9	60	61	62	83
73	9	4	3	2	14
74	16	76	65	64	78
75	16	27	24	23	30
76	16	38	19	18	40
77	14	5	6	15	17
78	4	3	2	1	43
79	16	35	20	19	37
80	1	58	60	61	84
81	16	72	67	66	74
82	16	54	45	44	57
83	9	44	45	46	52
84	1	45	46	47	48
85	16	72	67	66	75
86	9	5	4	3	11
87	9	64	65	66	74
88	16	79	64	63	80
89	9	64	65	66	75
90	2	48	47	46	53
90	3	48	47	46	53
91	15	25	58	60	61
92	9	20	21	22	31
93	15	25	58	60	87
94	9	63	64	65	76
95	16	51	47	46	53
96	15	27	24	25	58
97	9	67	66	65	76
98	9	24	23	22	31
99	16	9	4	3	11
100	16	37	19	18	39
101	9	61	62	63	81
102	9	46	45	44	57
103	16	81	63	62	83
104	1	25	24	23	29
105	1	22	23	24	25
106	15	6	15	17	42
107	16	34	21	20	36
108	15	66	67	68	70
109	15	6	15	17	41
110	15	25	58	60	86
111	16	73	67	66	74
112	9	47	46	45	54
113	9	23	22	21	34
114	9	65	66	67	72
115	16	73	67	66	75
116	16	75	66	65	77
117	16	78	64	63	80
118	1	58	60	61	85
119	15	28	24	25	58
120	1	3	4	5	6
121	4	13	2	1	43
122	16	37	19	18	40
123	6	64	65	66	67
123	7	64	65	66	67
123	8	64	65	66	67
124	9	62	63	64	78
125	16	82	62	61	85
126	9	19	18	17	42
127	9	62	61	60	87
128	16	11	3	2	13
129	9	19	18	17	41
130	2	43	44	45	55
130	3	43	44	45	55
131	16	30	23	22	32
132	24	49	48	47	51
133	6	2	3	4	5
133	7	2	3	4	5
133	8	2	3	4	5
134	6	63	64	65	66
134	7	63	64	65	66
134	8	63	64	65	66
135	16	74	66	65	76
136	9	21	22	23	29
137	6	20	21	22	23
137	7	20	21	22	23
137	8	20	21	22	23
138	9	22	21	20	36
139	21	24	25	58	60
140	6	44	45	46	47
140	7	44	45	46	47
140	8	44	45	46	47
141	16	54	45	44	56
142	15	70	68	67	73
143	21	26	25	58	59
144	9	62	61	60	86
145	6	18	19	20	21
145	7	18	19	20	21
145	8	18	19	20	21
146	9	3	4	5	8
147	9	17	18	19	38
148	16	12	3	2	13
149	16	33	21	20	36
150	16	79	64	63	81
151	9	66	65	64	78
152	9	21	20	19	38
153	16	7	5	4	9
154	9	65	64	63	80
155	16	7	5	4	10
156	16	82	62	61	84
157	9	46	45	44	56
158	9	18	19	20	36
159	6	17	18	19	20
159	7	17	18	19	20
159	8	17	18	19	20
160	17	66	67	68	69
161	24	49	48	47	50
162	10	4	5	6	15
162	11	4	5	6	15
163	16	32	22	21	33
164	9	45	46	47	51
165	16	50	47	46	53
166	5	2	1	43	44
167	9	63	62	61	85
168	1	25	24	23	30
169	17	16	15	17	18
170	16	34	21	20	35
171	1	43	44	45	46
172	16	77	65	64	79
173	16	53	46	45	54
174	16	78	64	63	81
175	4	7	5	6	15
176	16	40	18	17	42
177	16	40	18	17	41
178	1	15	17	18	39
179	1	68	67	66	74
180	16	11	3	2	14
181	17	59	58	60	61
182	16	31	22	21	33
183	9	2	3	4	9
184	18	59	58	60	87
184	19	59	58	60	87
184	20	59	58	60	87
185	1	68	67	66	75
186	9	2	3	4	10
187	9	21	22	23	30
188	16	83	62	61	84
189	4	1	43	44	57
190	9	22	21	20	35
191	16	85	61	60	87
192	9	45	46	47	50
193	1	15	17	18	40
194	9	63	62	61	84
195	16	27	24	23	29
196	15	23	24	25	58
197	16	52	46	45	55
198	16	28	24	23	29
199	18	59	58	60	86
199	19	59	58	60	86
199	20	59	58	60	86
200	16	12	3	2	14
201	9	64	63	62	82
202	16	33	21	20	35
203	18	69	68	67	73
203	19	69	68	67	73
203	20	69	68	67	73
204	16	85	61	60	86
205	16	10	4	3	12
206	18	26	25	24	28
206	19	26	25	24	28
206	20	26	25	24	28
207	9	65	64	63	81
208	12	5	6	15	16
208	13	5	6	15	16
209	17	23	24	25	26
210	1	58	60	61	62
211	9	63	64	65	77
212	16	51	47	46	52
213	9	18	19	20	35
214	9	67	66	65	77
215	16	36	20	19	38
216	2	6	5	4	9
216	3	6	5	4	9
217	9	19	20	21	33
218	2	6	5	4	10
218	3	6	5	4	10
219	16	30	23	22	31
220	16	32	22	21	34
221	9	44	45	46	53
222	16	83	62	61	85
223	26	69	68	70	71
223	27	69	68	70	71
224	22	46	47	48	49
224	23	46	47	48	49
225	16	76	65	64	79

Impropers

106	2	58	25	59	60
111	1	68	69	70	67
139	1	15	17	6	16
200	1	15	16	17	6
207	1	15	6	16	17
264	1	68	70	67	69
327	2	25	26	58	24
338	2	25	24	26	58
435	2	25	58	24	26
493	2	58	59	60	25
503	1	68	67	69	70
557	2	58	60	25	59
