Title

62 atoms
61 bonds
108 angles
194 dihedrals
18 impropers

11 atom types
14 bond types
9 angle types
35 dihedral types
3 improper types
-3.444000006 96.55599999 xlo xhi
-2.082000017 97.91799998 ylo yhi
-1.758999944 98.24100006 zlo zhi
0.0 0.0 0.0 xy xz yz

Masses

1	12.01078
2	15.99943
3	14.00672
4	12.01078
5	1.007947
6	1.007947
7	1.007947
8	15.99943
9	12.01078
10	15.99943
11	1.007947


Pair Coeffs

1	0.086879315	3.4806469
2	0.2102061	3.0398122
3	0.16769152	3.206876
4	0.10884061	3.3795318
5	0.014090815	1.1034277
6	0.016409246	2.5832257
7	0.015779483	2.6445434
8	0.16846514	3.0251065
9	0.21	3.3996695
10	0.20947353	2.99716
11	1.2326e-05	0.53453923

Bond Coeffs

1 harmonic	582.698766451	1.225198386222
2 harmonic	492.76746816345	1.381897776683
3 harmonic	279.1350963404	1.454628925034
4 harmonic	352.0565580496	1.450098586273
5 harmonic	505.144496193	1.019481865027
6 harmonic	264.62148576755	1.52190126495
7 harmonic	370.04670688625	1.093899492634
8 harmonic	301.15400723785	1.345741232799
9 harmonic	366.7408841747	1.425895053732
10 harmonic	300.03137914615	1.451203938761
11 harmonic	366.34047229585	1.464762957261
12 harmonic	602.81384337	1.196112346392
13 harmonic	329.96998057905	1.427343958716
14 harmonic	543.5267831885	0.9716763312559


Angle Coeffs

1 harmonic	55.42182150775	117.3465570514
2 harmonic	63.44422595415	115.5071327674
3 harmonic	57.8982893754	126.8062420451
4 harmonic	53.20531626545	116.5475862634
5 harmonic	65.09061609600001	110.3538806181
6 harmonic	201.41175231035	127.4691416191
7 harmonic	48.776492647595	115.6030999533
8 harmonic	55.07882548015	112.8714009681
9 harmonic	33.56981613361	180


Dihedral Coeffs

1 fourier 1	-0.1488678166443	4	180
2 fourier 1	-0.1230328948768	3	180
3 fourier 1	0.2939295466901	2	0
4 fourier 1	-0.3024127022865	1	0
5 fourier 1	0.182238503271	2	0
6 fourier 1	0.02972342374561	3	0
7 fourier 1	1.809047390003	2	180
8 fourier 1	-0.04816277792592	1	0
9 fourier 1	3.101948770557	2	180
10 fourier 1	-0.4252153282372	1	0
11 fourier 1	2.348375642009	2	180
12 fourier 1	1.256156174911	1	0
13 fourier 1	0.9974165607242	2	180
14 fourier 1	0.1155372516788	3	0
15 fourier 1	0.09223874044423	3	0
16 fourier 1	0.3159935921949	2	180
17 fourier 1	0.3247796806857	1	180
18 fourier 1	0.1040663847541	3	0
19 fourier 1	2.779853741805	2	180
20 fourier 1	0.1918272375143	3	0
21 fourier 1	0.9202179876409	1	180
22 fourier 1	0.0473758381877	3	0
23 fourier 1	0.4860993122944	2	180
24 fourier 1	0.8916986138746	1	0
25 fourier 1	1.163809172478	2	180
26 fourier 1	0.1679186987369	1	180
27 fourier 1	0.1911926717192	3	0
28 fourier 1	0.1115525666802	3	0
29 fourier 1	0.3432490222662	1	0
30 fourier 1	0.457973137376	1	0
31 fourier 1	-1.382973039546	1	0
32 fourier 1	0	1	0
33 fourier 1	0.3445382149273	3	0
34 fourier 1	0.1364556373303	1	0
35 fourier 1	0.3026390167484	3	0


Improper Coeffs

1 0.3333333333333333	-1	2
2 0.3666666666666667	-1	2
3 3.5	-1	2


Atoms

1	1	1	0.54637498	3.3410001	1.4349999	0.43399999
2	1	2	-0.66444498	4.3610001	0.736	0.192
3	1	3	-0.51809001	2.036	0.977	0.071000002
4	1	4	0.031977002	1.834	-0.308	-0.60100001
5	1	4	-0.144521	0.34599999	-0.59299999	-0.83999997
6	1	4	-0.143213	-0.39700001	-0.898	0.47099999
7	1	4	0.02619	-1.876	-1.224	0.226
8	1	3	-0.461218	-2.5880001	-0.074000001	-0.331
9	1	1	0.79022801	-2.9430001	1.071	0.44999999
10	1	2	-0.591133	-2.6630001	1.13	1.677
11	1	5	0.330244	-2.9000001	-0.11	-1.327
12	1	6	0.063910998	-2.355	-1.533	1.1799999
13	1	6	0.063910998	-1.952	-2.082	-0.477
14	1	7	0.093823999	-0.31600001	-0.037999999	1.168
15	1	7	0.093823999	0.077	-1.776	0.96200001
16	1	7	0.093823999	-0.117	0.278	-1.353
17	1	7	0.093823999	0.26100001	-1.471	-1.516
18	1	6	0.06027	2.2809999	-1.124	0.0070000002
19	1	6	0.06027	2.355	-0.285	-1.5829999
20	1	5	0.32366401	1.224	1.599	0.28400001
21	1	8	-0.494174	-3.444	1.862	0.003
22	1	4	0.127482	-2.665	2.263	-1.092
23	1	4	-0.131317	-1.431	3.043	-0.62900001
24	1	4	0.045926999	-1.813	4.3470001	0.079999998
25	1	8	-0.15775301	-0.66000003	5.0609999	0.43399999
26	1	6	0.095379002	-2.425	4.1329999	0.98500001
27	1	6	0.095379002	-2.4189999	4.9770002	-0.60500002
28	1	7	0.103695	-0.80599999	3.283	-1.516
29	1	7	0.103695	-0.82700002	2.408	0.056000002
30	1	6	0.092739999	-2.345	1.374	-1.6799999
31	1	6	0.092739999	-3.283	2.9000001	-1.7589999
32	1	1	0.54637498	3.4560001	2.3929999	0.92299998
33	1	2	-0.66444498	2.701	2.6919999	1.886
34	1	3	-0.51809001	4.461	3.3039999	0.47
35	1	4	0.032267999	4.6529999	4.6090002	1.1
36	1	4	-0.139401	5.7909999	5.3800001	0.42300001
37	1	4	-0.12141	5.9970002	6.75	1.079
38	1	4	0.18628401	7.1339998	7.5219998	0.398
39	1	3	-0.61575699	7.369	8.8000002	1.062
40	1	9	0.59495199	6.5209999	9.7489996	1.018
41	1	2	-0.43635601	5.6960001	10.67	0.97500002
42	1	6	0.037650999	8.0679998	6.9229999	0.45500001
43	1	6	0.037650999	6.8979998	7.6929998	-0.676
44	1	7	0.087683998	6.2449999	6.612	2.155
45	1	7	0.087683998	5.0560002	7.3379998	1.005
46	1	7	0.092808001	5.5469999	5.5190001	-0.65399998
47	1	7	0.092808001	6.7290001	4.7870002	0.5
48	1	6	0.06027	3.711	5.1939998	1.021
49	1	6	0.06027	4.8940001	4.4629998	2.1760001
50	1	5	0.32366401	5.0630002	3.01	-0.333
51	1	8	-0.156985	-0.27700001	4.6059999	1.229
52	1	4	0.054357	-0.23800001	5.559	2.257
53	1	4	-0.166354	0.89899999	6.5609999	2.0320001
54	1	4	0.101452	2.2720001	5.8839998	2.072
55	1	10	-0.67680597	3.2869999	6.8390002	1.923
56	1	11	0.391027	3.3080001	7.0840001	0.96200001
57	1	6	0.089459002	2.3510001	5.1129999	1.272
58	1	6	0.089459002	2.408	5.3779998	3.052
59	1	7	0.107729	0.85399997	7.3369999	2.8269999
60	1	7	0.107729	0.759	7.0650001	1.051
61	1	6	0.095256001	-1.209	6.1020002	2.313
62	1	6	0.095256001	-0.092	5.0370002	3.227

Bonds

1	1	1	2
2	2	1	3
3	3	1	32
4	4	3	4
5	5	3	20
6	6	4	5
7	7	4	18
8	7	4	19
9	6	5	6
10	7	5	16
11	7	5	17
12	6	6	7
13	7	6	14
14	7	6	15
15	4	7	8
16	7	7	12
17	7	7	13
18	2	8	9
19	5	8	11
20	1	9	10
21	8	9	21
22	9	21	22
23	6	22	23
24	7	22	30
25	7	22	31
26	6	23	24
27	7	23	28
28	7	23	29
29	9	24	25
30	7	24	26
31	7	24	27
32	10	25	51
33	1	32	33
34	2	32	34
35	4	34	35
36	5	34	50
37	6	35	36
38	7	35	48
39	7	35	49
40	6	36	37
41	7	36	46
42	7	36	47
43	6	37	38
44	7	37	44
45	7	37	45
46	11	38	39
47	7	38	42
48	7	38	43
49	12	39	40
50	1	40	41
51	9	51	52
52	6	52	53
53	7	52	61
54	7	52	62
55	6	53	54
56	7	53	59
57	7	53	60
58	13	54	55
59	7	54	57
60	7	54	58
61	14	55	56

Angles

1	4	5	6	7
2	4	6	7	8
3	4	4	5	17
4	4	51	52	61
5	4	22	23	28
6	4	34	35	49
7	4	53	54	58
8	4	52	53	59
9	4	5	4	18
10	4	55	54	58
11	4	22	23	24
12	8	38	39	40
13	4	6	5	17
14	7	12	7	13
15	4	37	36	47
16	3	33	32	34
17	4	51	52	53
18	5	54	55	56
19	4	52	53	60
20	4	21	22	23
21	4	5	4	19
22	4	6	7	13
23	4	8	7	13
24	3	2	1	3
25	4	53	52	61
26	4	25	24	27
27	4	38	37	45
28	4	53	54	55
29	4	23	24	26
30	4	7	6	15
31	5	24	25	51
32	2	7	8	11
33	4	35	36	37
34	4	24	23	28
35	6	10	9	21
36	4	54	53	59
37	4	53	52	62
38	7	26	24	27
39	4	21	22	31
40	3	8	9	10
41	3	3	1	32
42	4	23	22	31
43	7	42	38	43
44	4	5	6	14
45	7	14	6	15
46	4	3	4	5
47	4	54	53	60
48	4	51	52	62
49	7	16	5	17
50	4	22	23	29
51	4	39	38	42
52	3	2	1	32
53	7	48	35	49
54	4	36	37	38
55	5	25	51	52
56	2	9	8	11
57	3	1	32	33
58	4	37	38	42
59	4	35	36	46
60	4	36	35	48
61	4	23	24	27
62	4	37	38	43
63	7	59	53	60
64	4	36	35	49
65	4	24	23	29
66	5	9	21	22
67	7	30	22	31
68	1	1	3	4
69	4	34	35	36
70	4	37	38	39
71	7	46	36	47
72	4	53	54	57
73	2	1	3	20
74	4	55	54	57
75	2	32	34	50
76	4	5	6	15
77	4	6	5	16
78	4	4	5	6
79	9	39	40	41
80	7	61	52	62
81	4	52	53	54
82	4	37	36	46
83	7	28	23	29
84	4	39	38	43
85	4	6	7	12
86	4	8	7	12
87	4	36	37	44
88	4	3	4	18
89	4	25	24	26
90	4	38	37	44
91	4	23	24	25
92	4	7	6	14
93	3	1	32	34
94	1	32	34	35
95	2	4	3	20
96	4	35	36	47
97	7	18	4	19
98	4	4	5	16
99	2	35	34	50
100	4	36	37	45
101	4	3	4	19
102	4	34	35	48
103	4	21	22	30
104	1	7	8	9
105	4	23	22	30
106	7	44	37	45
107	7	57	54	58
108	3	8	9	21

Dihedrals

1	1	32	34	35	36
1	2	32	34	35	36
1	3	32	34	35	36
1	4	32	34	35	36
2	18	6	5	4	18
3	27	57	54	53	59
4	11	33	32	34	50
4	12	33	32	34	50
5	27	44	37	36	47
6	23	10	9	8	11
6	24	10	9	8	11
7	27	43	38	37	45
8	14	21	22	23	24
9	27	47	36	35	48
10	18	24	23	22	31
11	7	4	3	1	32
11	8	4	3	1	32
12	28	55	54	53	60
12	29	55	54	53	60
13	27	28	23	22	30
14	5	48	35	34	50
14	6	48	35	34	50
15	14	3	4	5	16
16	27	27	24	23	29
17	27	17	5	4	19
18	14	5	6	7	8
19	5	1	3	4	18
19	6	1	3	4	18
20	18	52	53	54	57
21	35	56	55	54	58
22	18	22	23	24	26
23	18	35	36	37	44
24	14	39	38	37	45
25	27	47	36	35	49
26	5	18	4	3	20
26	6	18	4	3	20
27	22	23	24	25	51
28	7	20	3	1	32
28	8	20	3	1	32
29	5	11	8	7	12
29	6	11	8	7	12
30	27	28	23	22	31
31	14	51	52	53	54
32	11	2	1	3	20
32	12	2	1	3	20
33	7	7	8	9	21
33	8	7	8	9	21
34	25	10	9	21	22
34	26	10	9	21	22
35	27	16	5	4	18
36	5	6	7	8	11
36	6	6	7	8	11
37	22	25	51	52	53
38	5	1	3	4	19
38	6	1	3	4	19
39	27	15	6	5	17
40	18	52	53	54	58
41	14	34	35	36	37
42	18	5	6	7	13
43	18	35	36	37	45
44	18	37	36	35	49
45	28	21	22	23	28
45	29	21	22	23	28
46	32	38	39	40	41
47	27	59	53	52	61
48	5	32	34	35	48
48	6	32	34	35	48
49	27	16	5	4	19
50	5	49	35	34	50
50	6	49	35	34	50
51	31	40	39	38	42
52	27	58	54	53	60
53	18	4	5	6	15
54	28	21	22	23	29
54	29	21	22	23	29
55	22	25	51	52	61
56	27	59	53	52	62
57	22	26	24	25	51
58	18	6	5	4	19
59	27	57	54	53	60
60	27	26	24	23	28
61	7	11	8	9	21
61	8	11	8	9	21
62	5	19	4	3	20
62	6	19	4	3	20
63	9	2	1	3	4
63	10	2	1	3	4
64	19	8	9	21	22
65	14	3	4	5	17
66	18	36	37	38	42
67	22	9	21	22	30
68	27	13	7	6	14
69	31	40	39	38	43
70	27	12	7	6	14
71	31	37	38	39	40
72	22	25	51	52	62
73	15	35	36	37	38
73	16	35	36	37	38
73	17	35	36	37	38
74	27	60	53	52	61
75	28	51	52	53	59
75	29	51	52	53	59
76	27	46	36	35	48
77	14	34	35	36	46
78	18	22	23	24	27
79	7	1	32	34	50
79	8	1	32	34	50
80	7	7	8	9	10
80	8	7	8	9	10
81	14	8	7	6	14
82	13	2	1	32	33
83	5	9	8	7	12
83	6	9	8	7	12
84	5	11	8	7	13
84	6	11	8	7	13
85	27	42	38	37	44
86	27	12	7	6	15
87	18	38	37	36	46
88	28	51	52	53	60
88	29	51	52	53	60
89	13	3	1	32	33
90	14	34	35	36	47
91	28	25	24	23	28
91	29	25	24	23	28
92	27	45	37	36	46
93	27	14	6	5	16
94	14	8	7	6	15
95	5	5	4	3	20
95	6	5	4	3	20
96	15	4	5	6	7
96	16	4	5	6	7
96	17	4	5	6	7
97	13	2	1	32	34
98	5	32	34	35	49
98	6	32	34	35	49
99	27	42	38	37	45
100	14	52	53	54	55
101	7	1	32	34	35
101	8	1	32	34	35
102	20	9	21	22	23
102	21	9	21	22	23
103	27	44	37	36	46
104	27	43	38	37	44
105	18	54	53	52	61
106	13	3	1	32	34
107	18	24	23	22	30
108	28	55	54	53	59
108	29	55	54	53	59
109	27	26	24	23	29
110	35	56	55	54	57
111	14	22	23	24	25
112	14	39	38	37	44
113	18	54	53	52	62
114	18	36	37	38	43
115	18	7	6	5	16
116	22	9	21	22	31
117	27	13	7	6	15
118	27	60	53	52	62
119	27	46	36	35	49
120	27	15	6	5	16
121	27	29	23	22	30
122	5	36	35	34	50
122	6	36	35	34	50
123	18	5	6	7	12
124	14	36	37	38	39
125	18	37	36	35	48
126	14	3	4	5	6
127	1	6	7	8	9
127	2	6	7	8	9
127	3	6	7	8	9
127	4	6	7	8	9
128	5	9	8	7	13
128	6	9	8	7	13
129	9	33	32	34	35
129	10	33	32	34	35
130	18	7	6	5	17
131	33	53	54	55	56
131	34	53	54	55	56
132	1	1	3	4	5
132	2	1	3	4	5
132	3	1	3	4	5
132	4	1	3	4	5
133	30	24	25	51	52
134	18	38	37	36	47
135	28	25	24	23	29
135	29	25	24	23	29
136	22	27	24	25	51
137	27	14	6	5	17
138	27	29	23	22	31
139	27	45	37	36	47
140	27	58	54	53	59
141	18	4	5	6	14
142	27	27	24	23	28
143	27	17	5	4	18

Impropers

55	1	3	1	4	20
73	1	8	11	7	9
75	1	3	4	20	1
79	1	8	7	9	11
83	2	32	1	33	34
84	3	9	8	10	21
112	1	34	50	32	35
121	2	1	2	3	32
125	1	3	20	1	4
138	1	8	9	11	7
144	2	32	33	34	1
160	1	34	35	50	32
173	2	32	34	1	33
178	2	1	3	32	2
195	3	9	10	21	8
247	2	1	32	2	3
264	1	34	32	35	50
361	3	9	21	8	10
