Title

5875 atoms
6000 bonds
9625 angles
14625 dihedrals
6000 impropers

8 atom types
12 bond types
6 angle types
20 dihedral types
2 improper types
-7.464129634 77.32702914 xlo xhi
-6.549155839 77.50150747 ylo yhi
-7.322075301 77.64268231 zlo zhi
0.0 0.0 0.0 xy xz yz

Masses

1	15.99943
2	12.01078
3	1.007947
4	12.01078
5	15.99943
6	1.007947
7	15.99943
8	1.007947


Pair Coeffs

1	0.16846514	3.0251065
2	0.10884061	3.3795318
3	0.016409246	2.5832257
4	0.086879315	3.4806469
5	0.2102061	3.0398122
6	0.015611343	2.5725815
7	0.20947353	2.99716
8	1.2326e-05	0.53453923

Bond Coeffs

1 harmonic	366.7408841747	1.425895053732
2 harmonic	300.03137914615	1.451203938761
3 harmonic	264.62148576755	1.52190126495
4 harmonic	370.04670688625	1.093899492634
5 harmonic	301.15400723785	1.345741232799
6 harmonic	582.698766451	1.225198386222
7 harmonic	279.1350963404	1.454628925034
8 harmonic	360.7852444772	1.387193227181
9 harmonic	397.2545789619	1.085358495916
10 harmonic	329.96998057905	1.427343958716
11 harmonic	543.5267831885	0.9716763312559
12 harmonic	385.7604595587	1.369745182308


Angle Coeffs

1 harmonic	53.20531626545	116.5475862634
2 harmonic	65.09061609600001	110.3538806181
3 harmonic	201.41175231035	127.4691416191
4 harmonic	57.8982893754	126.8062420451
5 harmonic	48.776492647595	115.6030999533
6 harmonic	34.066775159195	129.1835929926


Dihedral Coeffs

1 fourier 1	-0.0309670556842	3	0
2 fourier 1	0.4598191477945	2	0
3 fourier 1	0.1115525666802	3	0
4 fourier 1	0.3432490222662	1	0
5 fourier 1	0.0473758381877	3	0
6 fourier 1	0.457973137376	1	0
7 fourier 1	0.1918272375143	3	0
8 fourier 1	0.9202179876409	1	180
9 fourier 1	1.163809172478	2	180
10 fourier 1	0.1679186987369	1	180
11 fourier 1	2.779853741805	2	180
12 fourier 1	0.9974165607242	2	180
13 fourier 1	0.1911926717192	3	0
14 fourier 1	3.661930099076	2	180
15 fourier 1	0.3445382149273	3	0
16 fourier 1	0.1364556373303	1	0
17 fourier 1	0.3026390167484	3	0
18 fourier 1	2.687457892086	2	180
19 fourier 1	2.772607909663	2	180
20 fourier 1	0.09692684957115	1	0


Improper Coeffs

1 3.5	-1	2
2 0.3666666666666667	-1	2


Atoms

1	4	1	-0.12675978	0.71087145	2.2552217	-4.2799722
2	4	2	0.054415855	0.33516321	1.1062786	-3.5710588
3	4	2	0.15935111	1.5735111	0.33789713	-3.1107206
4	4	1	-0.49888399	1.1974946	-0.84540113	-2.4612094
5	4	3	0.095817514	2.1918676	0.076566501	-3.9947882
6	4	3	0.095817514	2.1899257	0.97308008	-2.4335052
7	4	3	0.10351977	-0.2696643	0.45839136	-4.2409026
8	4	3	0.10351977	-0.29644465	1.3804124	-2.6948321
9	5	4	0.77536398	0.87020559	-0.57318696	-1.5139732
10	5	5	-0.5403192	1.7126424	-0.50395779	-0.58131652
11	5	4	-0.13941041	-0.54262864	-0.19256216	-1.3051737
12	5	4	-0.084389337	-1.225365	0.29090264	-2.3596299
13	5	6	0.21751825	-0.76885069	0.33919689	-3.3417971
14	5	4	-0.25358126	-2.5807875	0.84762712	-2.1894931
15	5	6	0.20900695	-3.1080462	1.250791	-3.0451718
16	5	4	-0.24745476	-3.1410398	0.8853521	-0.97903853
17	5	6	0.20900695	-4.1294219	1.3088353	-0.85158744
18	5	4	-0.047273621	-2.4315164	0.31812303	0.18223997
19	5	6	0.20511264	-2.9425662	0.29769844	1.1378147
20	5	4	-0.27887455	-1.2126931	-0.23575286	0.041129818
21	5	4	0.576015	-0.63559595	-0.94031785	1.2062977
22	5	5	-0.57487881	0.16214042	-1.9030999	1.059664
23	1	1	-0.12116227	1.0094177	2.9198605	-3.6050119
24	1	2	0.026420712	0.010229929	3.9002103	-3.5393084
25	1	2	0.098453223	0.099345197	4.8318641	-4.7478095
26	1	7	-0.67392099	-0.85618013	5.8523491	-4.6473819
27	1	8	0.40197438	-1.7313282	5.4455833	-4.8831921
28	1	3	0.10204758	1.1091503	5.2929854	-4.7798835
29	1	3	0.10204758	-0.046828799	4.2547816	-5.688955
30	1	3	0.10422582	0.15471943	4.4921294	-2.610371
31	1	3	0.10422582	-0.99669119	3.4255671	-3.4926111
32	2	4	0.57601494	-0.94806874	-0.67250137	2.2044665
33	2	5	-0.57487887	-1.8941833	0.1489756	2.3340186
34	2	4	-0.28053987	-0.29309689	-1.2789612	3.3868655
35	2	4	-0.047273644	-0.90104504	-1.2142116	4.5889073
36	2	6	0.20511265	-1.8368384	-0.68255599	4.7145824
37	2	4	-0.24745476	-0.34443163	-1.923189	5.7554708
38	2	6	0.20900695	-0.85132197	-1.868044	6.7100777
39	2	4	-0.25358129	0.76752219	-2.650171	5.6287549
40	2	6	0.20900695	1.169825	-3.1793148	6.4834
41	2	4	-0.08688137	1.4647822	-2.713508	4.3319006
42	2	6	0.21751827	2.3939425	-3.2684646	4.278101
43	2	4	-0.11556764	0.99322045	-2.045834	3.2598583
44	2	4	0.80887949	1.7917207	-2.0413561	2.0124464
45	2	5	-0.51554817	2.491473	-3.0443918	1.7041038
46	2	7	-0.67083877	1.816892	-0.9162591	1.1949733
47	2	8	0.4100737	2.3721938	-0.90038801	0.34784229
48	4	1	-0.12675978	-0.66422143	-3.7543597	11.982539
49	4	2	0.054415855	-0.91204915	-2.4173664	12.321383
50	4	2	0.15935111	-2.0125447	-2.3328772	13.378549
51	4	1	-0.49888399	-2.3071696	-0.99373701	13.667249
52	4	3	0.095817514	-2.9303619	-2.8228842	12.991588
53	4	3	0.095817514	-1.6984319	-2.8690952	14.303669
54	4	3	0.10351977	-1.2389103	-1.8750481	11.408521
55	4	3	0.10351977	0.019431001	-1.9328203	12.694761
56	5	4	0.77536398	-1.5381067	-0.64392602	14.271111
57	5	5	-0.5403192	-1.6403911	-0.78064309	15.518183
58	5	4	-0.13941041	-0.31778129	-0.081131646	13.655773
59	5	4	-0.084389337	0.0054284483	-0.48936209	12.414552
60	5	6	0.21751825	-0.64393185	-1.1608123	11.864211
61	5	4	-0.25358126	1.2921319	-0.10366587	11.804887
62	5	6	0.20900695	1.5449626	-0.45744355	10.813097
63	5	4	-0.24745476	2.1560044	0.65034998	12.487302
64	5	6	0.20900695	3.1073634	0.91993446	12.04603
65	5	4	-0.047273621	1.8032133	1.1486504	13.829306
66	5	6	0.20511264	2.494491	1.8183091	14.327708
67	5	4	-0.27887455	0.61535375	0.84608499	14.385782
68	5	4	0.576015	0.25485889	1.5194162	15.652169
69	5	5	-0.57487881	-0.94613319	1.745682	15.954255
70	1	1	-0.12116227	-0.13303268	-4.1417385	12.727
71	1	2	0.026420712	1.1726697	-4.3043568	12.244843
72	1	2	0.098453223	1.2520089	-5.5231807	11.325839
73	1	7	-0.67392099	2.571359	-5.7254215	10.89815
74	1	8	0.40197438	2.7498323	-5.044281	10.197333
75	1	3	0.10204758	0.91764898	-6.4235203	11.883477
76	1	3	0.10204758	0.57678161	-5.3885493	10.450574
77	1	3	0.10422582	1.8539402	-4.4539344	13.10952
78	1	3	0.10422582	1.5020936	-3.3897382	11.7005
79	2	4	0.57601494	1.03232	1.8846733	16.30627
80	2	5	-0.57487887	2.2244288	1.8366897	15.902147
81	2	4	-0.28053987	0.69584599	2.4499283	17.633719
82	2	4	-0.047273644	1.6041507	3.2062902	18.283024
83	2	6	0.20511265	2.5943577	3.3664424	17.873143
84	2	4	-0.24745476	1.2540451	3.8945101	19.538857
85	2	6	0.20900695	1.9928948	4.5054159	20.041001
86	2	4	-0.25358129	0.022854093	3.7839056	20.041785
87	2	6	0.20900695	-0.23673234	4.2982968	20.958451
88	2	4	-0.08688137	-0.97853144	2.9407139	19.36483
89	2	6	0.21751827	-1.9511441	2.829924	19.829545
90	2	4	-0.11556764	-0.67091546	2.2747002	18.233798
91	2	4	0.80887949	-1.6701029	1.3460753	17.656789
92	2	5	-0.51554817	-2.9022532	1.5910685	17.769008
93	2	7	-0.67083877	-1.2634402	0.17302763	17.029634
94	2	8	0.4100737	-1.9415446	-0.47417574	16.645518
95	4	1	-0.12675978	-1.7314006	-1.6110839	25.808447
96	4	2	0.054415855	-1.900857	-1.4382518	27.188736
97	4	2	0.15935111	-1.1528977	-2.5280807	27.955976
98	4	1	-0.49888399	-1.3781928	-2.3949637	29.332555
99	4	3	0.095817514	-1.5212114	-3.5234079	27.630549
100	4	3	0.095817514	-0.062007765	-2.4739907	27.73444
101	4	3	0.10351977	-2.9847473	-1.503313	27.423713
102	4	3	0.10351977	-1.5408102	-0.43078532	27.500551
103	5	4	0.77536398	-0.79059287	-1.6014513	29.654331
104	5	5	-0.5403192	0.39071664	-1.8351655	30.0207
105	5	4	-0.13941041	-1.3187571	-0.22242836	29.591792
106	5	4	-0.084389337	-2.2753805	0.043229149	28.682923
107	5	6	0.21751825	-2.6859555	-0.74525254	28.062346
108	5	4	-0.25358126	-2.7280349	1.4272396	28.446961
109	5	6	0.20900695	-3.4843991	1.6254795	27.697732
110	5	4	-0.24745476	-2.1823428	2.4349182	29.130562
111	5	6	0.20900695	-2.5031208	3.4524783	28.945754
112	5	4	-0.047273621	-1.1672894	2.1629305	30.164694
113	5	6	0.20511264	-0.79648653	2.994255	30.753011
114	5	4	-0.27887455	-0.77280378	0.90299729	30.427697
115	5	4	0.576015	0.11348163	0.68592829	31.591504
116	5	5	-0.57487881	0.096771	-0.39657166	32.233959
117	1	1	-0.12116227	-0.81638166	-1.2906341	25.592813
118	1	2	0.026420712	-0.96794512	-0.075349467	24.911717
119	1	2	0.098453223	-1.4059556	-0.32567633	23.468846
120	1	7	-0.67392099	-1.4915542	0.88561976	22.76889
121	1	8	0.40197438	-2.3307358	1.3263343	23.066369
122	1	3	0.10204758	-0.65660584	-0.97359003	22.966799
123	1	3	0.10204758	-2.3861663	-0.85390875	23.451426
124	1	3	0.10422582	0.0084661048	0.45454591	24.910301
125	1	3	0.10422582	-1.7105634	0.57152845	25.432701
126	2	4	0.57601494	0.74413415	1.4886054	31.943204
127	2	5	-0.57487887	0.60631327	2.6279329	31.423898
128	2	4	-0.28053987	1.7268158	1.2547277	33.026942
129	2	4	-0.047273644	2.2492954	2.3075536	33.688206
130	2	6	0.20511265	2.0006133	3.3240693	33.407112
131	2	4	-0.24745476	3.122855	2.1058836	34.858489
132	2	6	0.20900695	3.525167	2.9628295	35.382933
133	2	4	-0.25358129	3.3968786	0.87107947	35.284131
134	2	6	0.20900695	4.0298243	0.72395835	36.150153
135	2	4	-0.08688137	2.8599405	-0.29554978	34.561159
136	2	6	0.21751827	3.14654	-1.283611	34.901462
137	2	4	-0.11556764	2.0868806	-0.13610393	33.468278
138	2	4	0.80887949	1.6709157	-1.3357165	32.705676
139	2	5	-0.51554817	1.4663728	-2.4273955	33.303345
140	2	7	-0.67083877	1.549015	-1.2842227	31.321036
141	2	8	0.4100737	1.279202	-2.1043921	30.791162
142	4	1	-0.12675978	4.5977208	-0.94844235	43.764458
143	4	2	0.054415855	3.6955872	-0.53749095	44.754942
144	4	2	0.15935111	3.3270322	0.93291319	44.560248
145	4	1	-0.49888399	2.4785399	1.3615652	45.589697
146	4	3	0.095817514	4.250868	1.5479527	44.582335
147	4	3	0.095817514	2.8386568	1.0784924	43.569116
148	4	3	0.10351977	4.1767836	-0.66590535	45.74803
149	4	3	0.10351977	2.7791563	-1.17111	44.731871
150	5	4	0.77536398	1.5374673	0.97641391	45.37871
151	5	5	-0.5403192	0.75767079	1.6506151	44.656414
152	5	4	-0.13941041	1.1731582	-0.37566608	45.851713
153	5	4	-0.084389337	2.1689466	-1.2553012	46.067102
154	5	6	0.21751825	3.2057232	-0.95839158	45.956066
155	5	4	-0.25358126	1.8742845	-2.6675889	46.374798
156	5	6	0.20900695	2.6877616	-3.3663467	46.525534
157	5	4	-0.24745476	0.60970561	-3.089421	46.433141
158	5	6	0.20900695	0.39382774	-4.1295423	46.642963
159	5	4	-0.047273621	-0.49784497	-2.1340214	46.247984
160	5	6	0.20511264	-1.5129843	-2.4924008	46.373556
161	5	4	-0.27887455	-0.25154676	-0.8319049	46.011233
162	5	4	0.576015	-1.4006945	0.09897009	46.010687
163	5	5	-0.57487881	-1.2654662	1.305834	46.34239
164	1	1	-0.12116227	4.0682221	-1.0757151	42.933868
165	1	2	0.026420712	3.9847032	-2.458162	42.720224
166	1	2	0.098453223	5.3052362	-2.9908922	42.164538
167	1	7	-0.67392099	5.1994648	-4.3606922	41.887114
168	1	8	0.40197438	5.2469246	-4.8314271	42.760673
169	1	3	0.10204758	5.5474938	-2.4555154	41.222174
170	1	3	0.10204758	6.1297977	-2.8044203	42.889433
171	1	3	0.10422582	3.1738132	-2.6553165	41.986904
172	1	3	0.10422582	3.7267587	-2.9825742	43.668809
173	2	4	0.57601494	-2.3900639	-0.26954557	45.784743
174	2	5	-0.57487887	-2.5492293	-1.5122581	45.65408
175	2	4	-0.28053987	-3.5315917	0.66625424	45.658087
176	2	4	-0.047273644	-4.7914463	0.18970495	45.724159
177	2	6	0.20511265	-4.9835043	-0.8725738	45.818172
178	2	4	-0.24745476	-5.9455866	1.1068133	45.738664
179	2	6	0.20900695	-6.9491924	0.70680508	45.802083
180	2	4	-0.25358129	-5.7521025	2.4266314	45.698105
181	2	6	0.20900695	-6.5997444	3.0999065	45.719617
182	2	4	-0.08688137	-4.3858718	2.970104	45.597779
183	2	6	0.21751827	-4.2683152	4.0439067	45.512116
184	2	4	-0.11556764	-3.3171823	2.1497889	45.548587
185	2	4	0.80887949	-1.9754253	2.7363001	45.326434
186	2	5	-0.51554817	-1.7015754	3.8816726	45.778028
187	2	7	-0.67083877	-1.022112	2.053521	44.578273
188	2	8	0.4100737	-0.10728213	2.4546635	44.409708
189	4	1	-0.12675978	-0.088518364	2.2586863	64.512277
190	4	2	0.054415855	0.63085287	1.847881	63.381998
191	4	2	0.15935111	1.0189652	0.37486914	63.506223
192	4	1	-0.49888399	1.7960003	-0.017133529	62.408044
193	4	3	0.095817514	1.6140056	0.22984635	64.432036
194	4	3	0.095817514	0.10480164	-0.25826407	63.580334
195	4	3	0.10351977	1.5521354	2.4639684	63.304928
196	4	3	0.10351977	0.028931543	2.0115598	62.458553
197	5	4	0.77536398	1.1430051	-0.13543078	61.609246
198	5	5	-0.5403192	0.59869887	-1.2570491	61.435914
199	5	4	-0.13941041	0.80413938	1.0245722	60.758284
200	5	4	-0.084389337	0.90348382	2.2522301	61.301176
201	5	6	0.21751825	1.279668	2.3847142	62.309305
202	5	4	-0.25358126	0.42234257	3.4406666	60.571669
203	5	6	0.20900695	0.49156545	4.4186662	61.03151
204	5	4	-0.24745476	-0.12765981	3.3062447	59.363392
205	5	6	0.20900695	-0.4955915	4.1767253	58.834836
206	5	4	-0.047273621	-0.20340001	1.9774935	58.729023
207	5	6	0.20511264	-0.58849193	1.9111208	57.718077
208	5	4	-0.27887455	0.27103736	0.88608859	59.358281
209	5	4	0.576015	0.32411397	-0.38091718	58.597394
210	5	5	-0.57487881	1.1917052	-1.2583276	58.846935
211	1	1	-0.12116227	-1.0065817	1.8931469	64.412343
212	1	2	0.026420712	-1.83929	2.97918	64.110833
213	1	2	0.098453223	-2.1182911	3.8005493	65.369367
214	1	7	-0.67392099	-3.0053852	4.8467597	65.081249
215	1	8	0.40197438	-2.4784892	5.5428401	64.607117
216	1	3	0.10204758	-2.5797755	3.1454302	66.138274
217	1	3	0.10204758	-1.166212	4.2023834	65.784362
218	1	3	0.10422582	-2.7988255	2.5894511	63.708872
219	1	3	0.10422582	-1.3727	3.6204431	63.328253
220	2	4	0.57601494	-0.34927586	-0.53782214	57.768158
221	2	5	-0.57487887	-1.0738717	0.42337082	57.39693
222	2	4	-0.28053987	-0.39626035	-1.8453181	57.073107
223	2	4	-0.047273644	-0.96319599	-1.9284347	55.852298
224	2	6	0.20511265	-1.4297322	-1.0653868	55.392241
225	2	4	-0.24745476	-0.90548044	-3.1809569	55.076931
226	2	6	0.20900695	-1.3574113	-3.2263007	54.094609
227	2	4	-0.25358129	-0.27702053	-4.2478151	55.574779
228	2	6	0.20900695	-0.22574062	-5.1640806	55.000247
229	2	4	-0.08688137	0.32609537	-4.1895389	56.918233
230	2	6	0.21751827	0.78084425	-5.0901982	57.313488
231	2	4	-0.11556764	0.25608128	-3.0657156	57.659552
232	2	4	0.80887949	0.76969627	-3.0923737	59.048489
233	2	5	-0.51554817	1.753506	-3.8231504	59.346638
234	2	7	-0.67083877	0.14450743	-2.351755	60.046168
235	2	8	0.4100737	0.48106452	-2.3763412	61.001347
236	4	1	-0.12675978	-0.031850236	19.25722	-2.4815481
237	4	2	0.054415855	-0.23168543	18.565147	-1.279514
238	4	2	0.15935111	-1.6000988	17.884507	-1.2800141
239	4	1	-0.49888399	-1.8273987	17.249584	-0.051740475
240	4	3	0.095817514	-2.389394	18.649356	-1.4357434
241	4	3	0.095817514	-1.6627038	17.148532	-2.1145602
242	4	3	0.10351977	-0.18438817	19.291485	-0.44019211
243	4	3	0.10351977	0.57427553	17.81066	-1.1277678
244	5	4	0.77536398	-1.2633288	16.377664	-0.05922458
245	5	5	-0.5403192	-1.7790256	15.329457	-0.52790357
246	5	4	-0.13941041	0.14349743	16.407902	0.39299066
247	5	4	-0.084389337	0.80658533	17.575952	0.30514168
248	5	6	0.21751825	0.30320329	18.47645	-0.02817516
249	5	4	-0.25358126	2.2549941	17.643217	0.57652034
250	5	6	0.20900695	2.7767775	18.587397	0.48167532
251	5	4	-0.24745476	2.9259109	16.537348	0.90428617
252	5	6	0.20900695	3.9920777	16.583832	1.0876124
253	5	4	-0.047273621	2.2119375	15.256012	1.0531425
254	5	6	0.20511264	2.7713848	14.391461	1.3912005
255	5	4	-0.27887455	0.88258436	15.181445	0.85444433
256	5	4	0.576015	0.20465737	13.910765	1.1903838
257	5	5	-0.57487881	-0.99783651	13.888969	1.5623616
258	1	1	-0.12116227	0.18413115	18.574149	-3.1694522
259	1	2	0.026420712	1.5503089	18.707882	-3.4513259
260	1	2	0.098453223	1.7928434	19.927889	-4.3396705
261	1	7	-0.67392099	3.1499193	20.022346	-4.6772006
262	1	8	0.40197438	3.6181002	20.373005	-3.8742098
263	1	3	0.10204758	1.2012037	19.823085	-5.2736656
264	1	3	0.10204758	1.4569286	20.853855	-3.8201579
265	1	3	0.10422582	1.8937411	17.794881	-3.9829782
266	1	3	0.10422582	2.1345213	18.797208	-2.5068292
267	2	4	0.57601494	0.76195922	12.986085	1.1810086
268	2	5	-0.57487887	2.0083181	13.041535	1.0070668
269	2	4	-0.28053987	0.075211407	11.690643	1.3932749
270	2	4	-0.047273644	0.79888521	10.601681	1.7236606
271	2	6	0.20511265	1.8796541	10.646533	1.7875962
272	2	4	-0.24745476	0.13574198	9.3326094	2.0744275
273	2	6	0.20900695	0.73239158	8.471711	2.3466702
274	2	4	-0.25358129	-1.1963998	9.2527802	2.0795883
275	2	6	0.20900695	-1.6829487	8.3234571	2.3477072
276	2	4	-0.08688137	-2.0078592	10.4215	1.6953465
277	2	6	0.21751827	-3.0846169	10.305715	1.6579728
278	2	4	-0.11556764	-1.4227937	11.582253	1.3378751
279	2	4	0.80887949	-2.273785	12.689453	0.84433719
280	2	5	-0.51554817	-3.4419022	12.840682	1.2953815
281	2	7	-0.67083877	-1.8135217	13.542055	-0.15364393
282	2	8	0.4100737	-2.3952968	14.292511	-0.50662746
283	4	1	-0.12675978	4.1078748	17.612699	14.382913
284	4	2	0.054415855	3.1506859	17.073441	15.252842
285	4	2	0.15935111	1.9119656	17.96745	15.299191
286	4	1	-0.49888399	0.98358306	17.463976	16.220097
287	4	3	0.095817514	2.2091743	18.988697	15.616924
288	4	3	0.095817514	1.4529787	18.040618	14.286263
289	4	3	0.10351977	3.5930105	17.00774	16.269846
290	4	3	0.10351977	2.8712294	16.04357	14.93172
291	5	4	0.77536398	0.52420387	16.651512	15.764744
292	5	5	-0.5403192	-0.50238748	16.853023	15.064855
293	5	4	-0.13941041	1.1292576	15.307514	15.874992
294	5	4	-0.084389337	2.4565537	15.231499	16.085353
295	5	6	0.21751825	3.0479234	16.128459	16.230733
296	5	4	-0.25358126	3.1546372	13.932877	16.037208
297	5	6	0.20900695	4.2261168	13.892182	16.18888
298	5	4	-0.24745476	2.472786	12.816602	15.773549
299	5	6	0.20900695	2.9878677	11.865534	15.722162
300	5	4	-0.047273621	1.0112074	12.869418	15.587166
301	5	6	0.20511264	0.47630005	11.937226	15.447147
302	5	4	-0.27887455	0.34809712	14.037882	15.671997
303	5	4	0.576015	-1.1300213	13.995847	15.650365
304	5	5	-0.57487881	-1.818284	14.868535	16.241587
305	1	1	-0.12116227	3.7951275	17.417009	13.460774
306	1	2	0.026420712	4.6365802	16.416252	12.95657
307	1	2	0.098453223	5.9874951	17.009207	12.556785
308	1	7	-0.67392099	6.8042135	16.021299	11.989763
309	1	8	0.40197438	7.1426419	15.467197	12.741684
310	1	3	0.10204758	5.826517	17.811018	11.805418
311	1	3	0.10204758	6.4855115	17.462163	13.44389
312	1	3	0.10422582	4.1559422	15.966407	12.061698
313	1	3	0.10422582	4.7784829	15.61088	13.713271
314	2	4	0.57601494	-1.6367405	13.169348	15.175138
315	2	5	-0.57487887	-0.94434679	12.2001	14.765393
316	2	4	-0.28053987	-3.1115712	13.17045	15.034702
317	2	4	-0.047273644	-3.7541346	12.015138	14.768123
318	2	6	0.20511265	-3.2058655	11.09479	14.605269
319	2	4	-0.24745476	-5.2271238	11.955792	14.757216
320	2	6	0.20900695	-5.7257331	11.017636	14.551047
321	2	4	-0.25358129	-5.9429264	13.049948	15.024518
322	2	6	0.20900695	-7.0246216	13.003162	15.026887
323	2	4	-0.08688137	-5.263379	14.33016	15.291512
324	2	6	0.21751827	-5.8756188	15.209894	15.451013
325	2	4	-0.11556764	-3.918119	14.416024	15.273161
326	2	4	0.80887949	-3.2845078	15.745843	15.427363
327	2	5	-0.51554817	-3.8283643	16.627578	16.146789
328	2	7	-0.67083877	-2.1123625	16.052309	14.744068
329	2	8	0.4100737	-1.681074	16.964625	14.833027
330	4	1	-0.12675978	-4.0882996	16.494968	32.344357
331	4	2	0.054415855	-2.7343055	16.705502	32.050826
332	4	2	0.15935111	-1.8548901	15.838201	32.950962
333	4	1	-0.49888399	-0.50047966	16.099082	32.704057
334	4	3	0.095817514	-2.0738721	16.073664	34.01343
335	4	3	0.095817514	-2.0790807	14.759538	32.782824
336	4	3	0.10351977	-2.4955785	17.776045	32.227494
337	4	3	0.10351977	-2.5301568	16.479559	30.978854
338	5	4	0.77536398	-0.26342461	15.620692	31.813314
339	5	5	-0.5403192	0.12757498	14.425021	31.856102
340	5	4	-0.13941041	-0.47229971	16.316868	30.526347
341	5	4	-0.084389337	-1.4057593	17.285521	30.480416
342	5	6	0.21751825	-1.940176	17.584451	31.375083
343	5	4	-0.25358126	-1.7874859	17.904816	29.197131
344	5	6	0.20900695	-2.5547373	18.668749	29.175665
345	5	4	-0.24745476	-1.2133479	17.50033	28.062555
346	5	6	0.20900695	-1.5052419	17.943552	27.118716
347	5	4	-0.047273621	-0.1545605	16.474803	28.09423
348	5	6	0.20511264	0.34318146	16.220222	27.165708
349	5	4	-0.27887455	0.2408396	15.929199	29.259647
350	5	4	0.576015	1.4225538	15.040251	29.239861
351	5	5	-0.57487881	2.1758318	14.930525	30.24254
352	1	1	-0.12116227	-4.3350776	15.624305	31.935099
353	1	2	0.026420712	-5.1410996	15.91705	30.826763
354	1	2	0.098453223	-6.5501464	16.298431	31.280118
355	1	7	-0.67392099	-7.3743916	16.524957	30.169348
356	1	8	0.40197438	-7.1265788	17.417217	29.809611
357	1	3	0.10204758	-6.9796224	15.466187	31.877016
358	1	3	0.10204758	-6.5132563	17.204166	31.926979
359	1	3	0.10422582	-5.1969024	15.01501	30.180714
360	1	3	0.10422582	-4.6926719	16.742771	30.228053
361	2	4	0.57601494	1.6884686	14.520755	28.3315
362	2	5	-0.57487887	1.0513824	14.792759	27.279418
363	2	4	-0.28053987	2.7924997	13.532871	28.324483
364	2	4	-0.047273644	3.3396146	13.156746	27.150646
365	2	6	0.20511265	2.9522047	13.526874	26.208797
366	2	4	-0.24745476	4.5261178	12.282453	27.116602
367	2	6	0.20900695	4.9576889	11.998874	26.165506
368	2	4	-0.25358129	5.0803869	11.861943	28.255442
369	2	6	0.20900695	5.9581661	11.228611	28.229868
370	2	4	-0.08688137	4.4839195	12.237191	29.549826
371	2	6	0.21751827	4.9272605	11.833912	30.452614
372	2	4	-0.11556764	3.3790157	13.007651	29.60471
373	2	4	0.80887949	2.7468293	13.25816	30.920477
374	2	5	-0.51554817	3.4562289	13.332932	31.960656
375	2	7	-0.67083877	1.3643044	13.364751	31.030031
376	2	8	0.4100737	0.92366717	13.521432	31.92866
377	4	1	-0.12675978	2.2192344	14.715209	40.78759
378	4	2	0.054415855	1.8583411	15.485625	41.901143
379	4	2	0.15935111	0.40916661	15.954498	41.775135
380	4	1	-0.49888399	0.070124424	16.780564	42.855003
381	4	3	0.095817514	0.29197048	16.53307	40.835053
382	4	3	0.095817514	-0.27584956	15.07666	41.728248
383	4	3	0.10351977	2.526769	16.371623	41.950899
384	4	3	0.10351977	1.9937508	14.899053	42.838932
385	5	4	0.77536398	-0.079779274	16.156052	43.671084
386	5	5	-0.5403192	-1.2295109	15.681743	43.864705
387	5	4	-0.13941041	1.0648624	15.772874	44.524046
388	5	4	-0.084389337	2.2923343	15.787573	43.971921
389	5	6	0.21751825	2.4390515	16.129664	42.953668
390	5	4	-0.25358126	3.4563467	15.257667	44.706995
391	5	6	0.20900695	4.4334364	15.25878	44.240065
392	5	4	-0.24745476	3.299141	14.747322	45.929836
393	5	6	0.20900695	4.1508016	14.343555	46.462872
394	5	4	-0.047273621	1.9727438	14.764328	46.573358
395	5	6	0.20511264	1.8915366	14.409618	47.594288
396	5	4	-0.27887455	0.90592404	15.284523	45.938131
397	5	4	0.576015	-0.35055167	15.42977	46.704447
398	5	5	-0.57487881	-1.1785111	16.339726	46.437433
399	1	1	-0.12116227	1.8023699	13.822534	40.913293
400	1	2	0.026420712	2.8409704	12.936721	41.230192
401	1	2	0.098453223	3.6360871	12.578922	39.974738
402	1	7	-0.67392099	4.6317186	11.640779	40.279879
403	1	8	0.40197438	5.3601948	12.138707	40.736321
404	1	3	0.10204758	2.950174	12.136397	39.221702
405	1	3	0.10204758	4.0889123	13.495417	39.533
406	1	3	0.10422582	2.3997107	12.011756	41.659026
407	1	3	0.10422582	3.51344	13.385487	41.996841
408	2	4	0.57601494	-0.53995316	14.7879	47.5517
409	2	5	-0.57487887	0.38070697	14.018945	47.93619
410	2	4	-0.28053987	-1.8430535	14.833932	48.25502
411	2	4	-0.047273644	-1.9499221	14.304057	49.49054
412	2	6	0.20511265	-1.1118193	13.80056	49.957697
413	2	4	-0.24745476	-3.1915702	14.45347	50.271132
414	2	6	0.20900695	-3.2558181	14.030113	51.265061
415	2	4	-0.25358129	-4.2241252	15.129325	49.763144
416	2	6	0.20900695	-5.1318648	15.247854	50.341261
417	2	4	-0.08688137	-4.1408467	15.693606	48.404224
418	2	6	0.21751827	-5.0167166	16.189156	48.002362
419	2	4	-0.11556764	-3.0281474	15.540189	47.658706
420	2	4	0.80887949	-3.0351142	16.018869	46.257108
421	2	5	-0.51554817	-3.710364	17.035142	45.937675
422	2	7	-0.67083877	-2.3386221	15.326869	45.27183
423	2	8	0.4100737	-2.3506113	15.639794	44.308411
424	4	1	-0.12675978	-2.4132964	10.816525	59.714655
425	4	2	0.054415855	-2.4356813	12.196692	59.956366
426	4	2	0.15935111	-2.0535324	12.487795	61.407244
427	4	1	-0.49888399	-2.1419512	13.861966	61.666634
428	4	3	0.095817514	-2.7520879	11.953032	62.08421
429	4	3	0.095817514	-1.0221815	12.119579	61.614071
430	4	3	0.10351977	-3.4633561	12.573321	59.76584
431	4	3	0.10351977	-1.741612	12.723418	59.261615
432	5	4	0.77536398	-1.305009	14.300105	61.235314
433	5	5	-0.5403192	-0.25139406	14.389709	61.918108
434	5	4	-0.13941041	-1.3431793	14.722445	59.819424
435	5	4	-0.084389337	-2.2058602	14.093829	58.999443
436	5	6	0.21751825	-2.8917507	13.346668	59.382452
437	5	4	-0.25358126	-2.1812805	14.341768	57.545489
438	5	6	0.20900695	-2.8690779	13.812435	56.897824
439	5	4	-0.24745476	-1.2912567	15.189892	57.02679
440	5	6	0.20900695	-1.2625245	15.359568	55.957742
441	5	4	-0.047273621	-0.36857235	15.925612	57.910595
442	5	6	0.20511264	0.29242404	16.661007	57.46676
443	5	4	-0.27887455	-0.40472846	15.748223	59.244554
444	5	4	0.576015	0.42268882	16.642799	60.082517
445	5	5	-0.57487881	0.081021462	16.940575	61.257007
446	1	1	-0.12116227	-1.4577448	10.558684	59.63168
447	1	2	0.026420712	-1.2320452	10.289569	58.275061
448	1	2	0.098453223	-1.8104989	8.9252366	57.900383
449	1	7	-0.67392099	-1.5251804	8.6266068	56.561011
450	1	8	0.40197438	-2.1496537	9.1686386	56.01039
451	1	3	0.10204758	-1.3516577	8.1447969	58.543614
452	1	3	0.10204758	-2.9103375	8.91366	58.074644
453	1	3	0.10422582	-0.13630146	10.284447	58.09206
454	1	3	0.10422582	-1.6838183	11.086514	57.640918
455	2	4	0.57601494	1.3049046	17.10494	59.665591
456	2	5	-0.57487887	1.5273417	16.964532	58.433703
457	2	4	-0.28053987	2.2127576	17.903647	60.521582
458	2	4	-0.047273644	3.0948011	18.747389	59.948173
459	2	6	0.20511265	3.1854697	18.814308	58.870462
460	2	4	-0.24745476	3.9157816	19.654548	60.770604
461	2	6	0.20900695	4.6113377	20.331963	60.292521
462	2	4	-0.25358129	3.7840751	19.657239	62.098628
463	2	6	0.20900695	4.3796251	20.331316	62.701287
464	2	4	-0.08688137	2.8467637	18.724796	62.749789
465	2	6	0.21751827	2.8046807	18.715902	63.832544
466	2	4	-0.11556764	2.1105808	17.862485	62.020482
467	2	4	0.80887949	1.2737143	16.863767	62.724667
468	2	5	-0.51554817	0.7497611	17.146676	63.836532
469	2	7	-0.67083877	1.0970193	15.590682	62.192903
470	2	8	0.4100737	0.53808342	14.897516	62.675972
471	4	1	-0.12675978	-2.4791915	26.380501	2.0040425
472	4	2	0.054415855	-1.7876627	27.589761	2.1565643
473	4	2	0.15935111	-0.27945792	27.342485	2.1563189
474	4	1	-0.49888399	0.40967791	28.542457	2.3767892
475	4	3	0.095817514	-0.024781504	26.632074	2.9703762
476	4	3	0.095817514	0.034877959	26.886715	1.1891004
477	4	3	0.10351977	-2.0834242	28.047592	3.1246451
478	4	3	0.10351977	-2.062326	28.299011	1.3420859
479	5	4	0.77536398	0.37798789	29.071571	1.4837556
480	5	5	-0.5403192	1.287199	28.877908	0.6351269
481	5	4	-0.13941041	-0.76631399	29.961897	1.1965859
482	5	4	-0.084389337	-1.9393053	29.691341	1.7987786
483	5	6	0.21751825	-2.0211154	28.883948	2.5176758
484	5	4	-0.25358126	-3.1629919	30.429226	1.4324774
485	5	6	0.20900695	-4.1024403	30.185031	1.9126175
486	5	4	-0.24745476	-3.1185462	31.37077	0.4880066
487	5	6	0.20900695	-4.0200293	31.901087	0.20769846
488	5	4	-0.047273621	-1.8358571	31.717139	-0.15111599
489	5	6	0.20511264	-1.8193168	32.535644	-0.86138874
490	5	4	-0.27887455	-0.69916299	31.087575	0.20073207
491	5	4	0.576015	0.57356456	31.602287	-0.34909113
492	5	5	-0.57487881	1.6551598	31.484822	0.28430262
493	1	1	-0.12116227	-2.407571	26.131935	1.0451206
494	1	2	0.026420712	-3.6726922	26.344069	0.48098709
495	1	2	0.098453223	-4.6274918	25.218597	0.87856175
496	1	7	-0.67392099	-5.8725063	25.394833	0.25938208
497	1	8	0.40197438	-6.3371847	26.117859	0.75763618
498	1	3	0.10204758	-4.2025556	24.246254	0.55092487
499	1	3	0.10204758	-4.7455266	25.188459	1.9854969
500	1	3	0.10422582	-3.5693649	26.361766	-0.62498772
501	1	3	0.10422582	-4.081937	27.328438	0.80486002
502	2	4	0.57601494	0.57440351	32.14716	-1.2811952
503	2	5	-0.57487887	-0.53404698	32.436502	-1.804989
504	2	4	-0.28053987	1.8500893	32.562771	-1.9094805
505	2	4	-0.047273644	1.8415379	33.519573	-2.8598249
506	2	6	0.20511265	0.91190426	33.954337	-3.2075648
507	2	4	-0.24745476	3.1029804	34.051723	-3.406558
508	2	6	0.20900695	3.0769728	34.826557	-4.1616801
509	2	4	-0.25358129	4.2731098	33.596486	-2.9542784
510	2	6	0.20900695	5.1992083	33.9954	-3.3485723
511	2	4	-0.08688137	4.3076243	32.531598	-1.9360265
512	2	6	0.21751827	5.2739358	32.147593	-1.6310805
513	2	4	-0.11556764	3.1669422	32.005811	-1.4463061
514	2	4	0.80887949	3.2512835	30.856594	-0.51579757
515	2	5	-0.51554817	4.2260236	30.753891	0.27801772
516	2	7	-0.67083877	2.2852143	29.856184	-0.54088644
517	2	8	0.4100737	2.3440265	29.059717	0.082349946
518	4	1	-0.12675978	-1.0169867	29.771066	10.27181
519	4	2	0.054415855	-1.0389778	30.510384	11.462066
520	4	2	0.15935111	-2.2179459	30.07857	12.333501
521	4	1	-0.49888399	-2.2792563	30.864343	13.492056
522	4	3	0.095817514	-3.1617539	30.210967	11.764351
523	4	3	0.095817514	-2.1237541	29.000644	12.600424
524	4	3	0.10351977	-1.1458364	31.586821	11.20883
525	4	3	0.10351977	-0.081333656	30.380631	12.016983
526	5	4	0.77536398	-1.5328089	30.518105	14.125625
527	5	5	-0.5403192	-1.8044161	29.58354	14.923848
528	5	4	-0.13941041	-0.16329405	31.062949	14.015415
529	5	4	-0.084389337	0.21728835	31.570214	12.828156
530	5	6	0.21751825	-0.48109602	31.631951	12.001211
531	5	4	-0.25358126	1.6164998	31.974774	12.594495
532	5	6	0.20900695	1.9099719	32.362325	11.626813
533	5	4	-0.24745476	2.5244238	31.831305	13.561757
534	5	6	0.20900695	3.5548408	32.113132	13.384852
535	5	4	-0.047273621	2.1207129	31.322728	14.885429
536	5	6	0.20511264	2.8656418	31.286498	15.671864
537	5	4	-0.27887455	0.84009198	30.990435	15.13405
538	5	4	0.576015	0.47159892	30.656239	16.526743
539	5	5	-0.57487881	-0.6897109	30.866527	16.96489
540	1	1	-0.12116227	-0.6614362	28.87284	10.502503
541	1	2	0.026420712	0.63520792	28.807939	9.9749798
542	1	2	0.098453223	0.58364657	28.588371	8.4631841
543	1	7	-0.67392099	1.8795563	28.455533	7.9460032
544	1	8	0.40197438	2.2670939	29.369713	7.9137704
545	1	3	0.10204758	0.018508832	27.656777	8.248427
546	1	3	0.10204758	0.054095855	29.434948	7.9702043
547	1	3	0.10422582	1.1689858	27.957084	10.449634
548	1	3	0.10422582	1.1967521	29.741235	10.209465
549	2	4	0.57601494	1.2233576	30.284011	17.206457
550	2	5	-0.57487887	2.4224484	30.268883	16.82085
551	2	4	-0.28053987	0.85020705	29.827964	18.565733
552	2	4	-0.047273644	1.8057299	29.699264	19.508659
553	2	6	0.20511265	2.8491314	29.875585	19.275453
554	2	4	-0.24745476	1.4514721	29.380328	20.903693