Title

193 atoms
206 bonds
341 angles
503 dihedrals
276 impropers

11 atom types
15 bond types
8 angle types
18 dihedral types
3 improper types
-14.54599953 85.45400047 xlo xhi
-3.619999886 96.38000011 ylo yhi
-13.64599991 86.35400009 zlo zhi
0.0 0.0 0.0 xy xz yz

Masses

1	14.00672
2	12.01078
3	1.007947
4	15.99943
5	12.01078
6	1.007947
7	18.998403
8	1.007947
9	15.99943
10	15.99943
11	1.007947


Pair Coeffs

1	0.16769152	3.206876
2	0.086879315	3.4806469
3	0.015611343	2.5725815
4	0.16846514	3.0251065
5	0.10884061	3.3795318
6	0.014090815	1.1034277
7	0.061	3.1181455
8	0.015779483	2.6445434
9	0.2102061	3.0398122
10	0.20947353	2.99716
11	1.2326e-05	0.53453923

Bond Coeffs

1 harmonic	390.03554688505	1.390160554689
2 harmonic	505.144496193	1.019481865027
3 harmonic	422.7150220147	1.421786517481
4 harmonic	360.7852444772	1.387193227181
5 harmonic	397.2545789619	1.085358495916
6 harmonic	279.1350963404	1.454628925034
7 harmonic	425.69104206635	1.362945806494
8 harmonic	289.73813263395	1.498646816465
9 harmonic	264.62148576755	1.52190126495
10 harmonic	492.76746816345	1.381897776683
11 harmonic	340.45121009905	1.358690858053
12 harmonic	370.04670688625	1.093899492634
13 harmonic	582.698766451	1.225198386222
14 harmonic	385.7604595587	1.369745182308
15 harmonic	543.5267831885	0.9716763312559


Angle Coeffs

1 harmonic	57.8982893754	126.8062420451
2 harmonic	55.42182150775	117.3465570514
3 harmonic	63.44422595415	115.5071327674
4 harmonic	34.066775159195	129.1835929926
5 harmonic	65.09061609600001	110.3538806181
6 harmonic	53.20531626545	116.5475862634
7 harmonic	48.776492647595	115.6030999533
8 harmonic	201.41175231035	127.4691416191


Dihedral Coeffs

1 fourier 1	3.661930099076	2	180
2 fourier 1	1.193093382682	2	180
3 fourier 1	0.02021088501612	1	0
4 fourier 1	1.163235555439	2	180
5 fourier 1	1.532232714475	2	180
6 fourier 1	0.02664938770063	3	0
7 fourier 1	0.1155372516788	3	0
8 fourier 1	3.101948770557	2	180
9 fourier 1	-0.4252153282372	1	0
10 fourier 1	1.809047390003	2	180
11 fourier 1	-0.04816277792592	1	0
12 fourier 1	0.9974165607242	2	180
13 fourier 1	2.348375642009	2	180
14 fourier 1	1.256156174911	1	0
15 fourier 1	0.1040663847541	3	0
16 fourier 1	2.687457892086	2	180
17 fourier 1	2.772607909663	2	180
18 fourier 1	0.09692684957115	1	0


Improper Coeffs

1 0.3666666666666667	-1	2
2 0.3333333333333333	-1	2
3 3.5	-1	2


Atoms

1	1	1	-0.41178301	-13.349	3.263	1.046
2	1	2	0.126978	-12.171	2.46	0.949
3	1	2	-0.40637699	-11.284	2.6659999	-0.035999998
4	1	3	0.22183	-11.449	3.4430001	-0.76999998
5	1	2	-0.113702	-10.063	1.84	-0.125
6	1	3	0.204087	-9.3520002	2.053	-0.91399997
7	1	2	-0.12774099	-9.8260002	0.86900002	0.77899998
8	1	2	-0.133984	-8.5900002	0.048	0.70099998
9	1	2	-0.128776	-7.927	-0.30199999	1.817
10	1	3	0.207371	-8.2709999	0.015	2.793
11	1	2	-0.295522	-6.6700001	-1.067	1.73
12	1	3	0.224545	-6.118	-1.283	2.6359999
13	1	2	0.329642	-6.171	-1.424	0.54100001
14	1	4	-0.271494	-4.9200001	-2.052	0.498
15	1	2	0.25878301	-3.776	-1.483	-0.082000002
16	1	2	-0.276932	-3.6960001	-0.17399999	-0.38
17	1	3	0.22877499	-4.5229998	0.495	-0.18099999
18	1	2	-0.14229199	-2.47	0.38299999	-0.98500001
19	1	3	0.216277	-2.4760001	1.438	-1.2130001
20	1	2	-0.258405	-1.398	-0.40400001	-1.234
21	1	5	0.0087829996	-0.090999998	0.116	-1.865
22	1	2	-0.258405	1.115	-0.25799999	-0.98400003
23	1	2	-0.14229199	1.027	-0.197	0.36500001
24	1	3	0.216277	0.098999999	0.068000004	0.85299999
25	1	2	-0.276932	2.197	-0.47799999	1.22
26	1	3	0.22877499	2.082	-0.45899999	2.2969999
27	1	2	0.25878301	3.3929999	-0.72000003	0.67500001
28	1	4	-0.271494	4.487	-0.96899998	1.516
29	1	2	0.329642	5.823	-0.66399997	1.211
30	1	2	-0.295522	6.1420002	0.449	0.52499998
31	1	3	0.224545	5.3720002	1.128	0.185
32	1	2	-0.128776	7.5500002	0.78899997	0.25999999
33	1	3	0.207371	7.7680001	1.683	-0.31099999
34	1	2	-0.133984	8.5380001	-0.001	0.71100003
35	1	2	-0.12774099	9.9580002	0.35100001	0.46399999
36	1	2	-0.12774099	10.853	-0.59600002	0.125
37	1	3	0.204087	10.551	-1.628	0.001
38	1	2	-0.374421	12.269	-0.241	-0.108
39	1	3	0.21827801	12.971	-1.02	-0.38
40	1	2	0.199218	12.678	1.031	0.02
41	1	1	-0.53200501	14.048	1.3789999	-0.198
42	1	6	0.31964901	14.749	0.65700001	-0.477
43	1	2	-0.374421	11.7	2.0769999	0.39399999
44	1	3	0.21827801	12.023	3.105	0.50400001
45	1	2	-0.12774099	10.417	1.7589999	0.60000002
46	1	3	0.204087	9.7189999	2.5350001	0.88700002
47	1	2	-0.056134	8.191	-1.225	1.479
48	1	3	0.206402	8.9919996	-1.834	1.874
49	1	2	-0.32167301	6.9050002	-1.556	1.711
50	1	5	0.76683998	6.546	-2.779	2.523
51	1	7	-0.207357	7.631	-3.6199999	2.7
52	1	7	-0.207357	6.086	-2.382	3.7639999
53	1	7	-0.207357	5.5500002	-3.4909999	1.8789999
54	1	2	-0.276932	3.5220001	-0.75400001	-0.801
55	1	3	0.22877499	4.4790001	-0.96700001	-1.26
56	1	2	-0.14229199	2.4560001	-0.53500003	-1.58
57	1	3	0.216277	2.598	-0.55800003	-2.651
58	1	5	-0.12988099	0.0040000002	-0.51899999	-3.273
59	1	8	0.089360997	0.22	-1.6059999	-3.2060001
60	1	8	0.089360997	-0.95300001	-0.391	-3.823
61	1	8	0.089360997	0.79400003	-0.039000001	-3.8889999
62	1	5	-0.12988099	-0.059	1.654	-2.0350001
63	1	8	0.089360997	-0.847	1.995	-2.74
64	1	8	0.089360997	-0.198	2.1619999	-1.056
65	1	8	0.089360997	0.92000002	1.979	-2.45
66	1	2	-0.14229199	-1.501	-1.853	-0.89499998
67	1	3	0.216277	-0.66399997	-2.5139999	-1.081
68	1	2	-0.276932	-2.6159999	-2.3540001	-0.35100001
69	1	3	0.22877499	-2.6689999	-3.408	-0.109
70	1	2	-0.32167301	-6.9450002	-1.1390001	-0.70599997
71	1	5	0.76683998	-6.467	-1.625	-2.0580001
72	1	7	-0.207357	-7.5419998	-1.8940001	-2.8889999
73	1	7	-0.207357	-5.7309999	-2.789	-1.934
74	1	7	-0.207357	-5.6820002	-0.65100002	-2.6459999
75	1	2	-0.056134	-8.0699997	-0.403	-0.61699998
76	1	3	0.206402	-8.6289997	-0.15899999	-1.513
77	1	2	-0.113702	-10.819	0.63800001	1.8609999
78	1	3	0.204087	-10.667	-0.155	2.5829999
79	1	2	-0.40637699	-11.923	1.391	1.941
80	1	3	0.22183	-12.642	1.2079999	2.7290001
81	1	6	0.37299401	-14.026	3.1199999	1.829
82	1	2	0.76778501	14.373	2.3840001	-0.082000002
83	1	9	-0.65774	15.607	2.635	-0.131
84	1	2	-0.35405701	13.381	3.454	0.133
85	1	2	-0.074716002	13.754	4.7389998	0.285
86	1	3	0.222968	14.798	5.026	0.25400001
87	1	2	-0.243387	12.737	5.7870002	0.498
88	1	3	0.213259	13.046	6.8179998	0.62
89	1	2	-0.022552	11.439	5.4679999	0.542
90	1	3	0.22249299	10.705	6.2490001	0.69999999
91	1	2	-0.29308099	11.01	4.0560002	0.37599999
92	1	2	0.58779103	9.5819998	3.6949999	0.42300001
93	1	9	-0.52578098	8.6990004	4.5749998	0.60399997
94	1	2	0.05638	11.94	3.1040001	0.182
95	1	3	0.240091	11.643	2.069	0.059
96	1	1	-0.41178301	-13.554	4.0089998	0.345
97	1	2	0.126978	-12.51	4.8119998	-0.20900001
98	1	2	-0.40637699	-11.232	4.6059999	0.14300001
99	1	3	0.22183	-10.975	3.8280001	0.85000002
100	1	2	-0.113702	-10.156	5.4320002	-0.44100001
101	1	3	0.204087	-9.132	5.2189999	-0.15899999
102	1	2	-0.12774099	-10.443	6.402	-1.33
103	1	2	-0.133984	-9.3599997	7.224	-1.931
104	1	2	-0.128776	-9.4029999	7.5739999	-3.2279999
105	1	3	0.207371	-10.219	7.257	-3.865
106	1	2	-0.295522	-8.2980003	8.3389997	-3.8329999
107	1	3	0.224545	-8.3219995	8.5539999	-4.8930001
108	1	2	0.329642	-7.2360001	8.6960001	-3.0999999
109	1	4	-0.271494	-6.1599998	9.3240004	-3.7379999
110	1	2	0.25878301	-4.8829999	8.7550001	-3.8670001
111	1	2	-0.276932	-4.6550002	7.4460001	-3.658
112	1	3	0.22877499	-5.4590001	6.777	-3.3800001
113	1	2	-0.14229199	-3.2969999	6.8889999	-3.8099999
114	1	3	0.216277	-3.1789999	5.8330002	-3.615
115	1	2	-0.258405	-2.26	7.6760001	-4.1789999
116	1	5	0.0087829996	-0.81800002	7.1550002	-4.3520002
117	1	2	-0.258405	-0.278	7.5300002	-5.744
118	1	2	-0.14229199	-1.079	7.4689999	-6.8319998
119	1	3	0.216277	-2.1240001	7.204	-6.743
120	1	2	-0.276932	-0.55500001	7.75	-8.1829996
121	1	3	0.22877499	-1.232	7.7309999	-9.0290003
122	1	2	0.25878301	0.74599999	7.9910002	-8.3690004
123	1	4	-0.271494	1.214	8.2410002	-9.6669998
124	1	2	0.329642	2.5039999	7.9359999	-10.13
125	1	2	-0.295522	3.142	6.823	-9.7250004
126	1	3	0.224545	2.677	6.1440001	-9.0229998
127	1	2	-0.128776	4.4710002	6.4829998	-10.261
128	1	3	0.207371	4.9619999	5.5890002	-9.8970003
129	1	2	-0.133984	5.0599999	7.2729998	-11.173
130	1	2	-0.12774099	6.3899999	6.921	-11.731
131	1	2	-0.077032	7.3260002	7.868	-11.928
132	1	3	0.204087	7.138	8.8999996	-11.661
133	1	2	-0.45053801	8.6440001	7.513	-12.495
134	1	3	0.230368	9.3809996	8.2919998	-12.644
135	1	2	0.31876099	8.9189997	6.2410002	-12.823
136	1	1	-0.84454298	10.191	5.8930001	-13.378
137	1	6	0.36666799	10.398	4.9060001	-13.646
138	1	6	0.36666799	10.932	6.6149998	-13.521
139	1	2	-0.45053801	7.895	5.1950002	-12.611
140	1	3	0.230369	8.1070004	4.1659999	-12.877
141	1	2	-0.077032	6.7030001	5.513	-12.093
142	1	3	0.204087	5.96	4.737	-11.958
143	1	2	-0.056134	4.3530002	8.4960003	-11.633
144	1	3	0.206402	4.816	9.1059999	-12.397
145	1	2	-0.32167301	3.1459999	8.8280001	-11.135
146	1	5	0.76683998	2.405	10.051	-11.625
147	1	7	-0.207357	3.224	10.892	-12.359
148	1	7	-0.207357	1.349	9.6540003	-12.423
149	1	7	-0.207357	1.914	10.763	-10.546
150	1	2	-0.276932	1.651	8.026	-7.1950002
151	1	3	0.22877499	2.704	8.2390003	-7.3249998
152	1	2	-0.14229199	1.173	7.8070002	-5.9640002
153	1	3	0.216277	1.87	7.8299999	-5.1389999
154	1	5	-0.12988099	0.021	7.7909999	-3.217
155	1	8	0.089360997	0.16599999	8.8780003	-3.3900001
156	1	8	0.089360997	-0.49000001	7.6630001	-2.237
157	1	8	0.089360997	1.018	7.3109999	-3.1240001
158	1	5	-0.12988099	-0.69999999	5.618	-4.2249999
159	1	8	0.089360997	-0.98400003	5.277	-3.207
160	1	8	0.089360997	-1.345	5.1100001	-4.9749999
161	1	8	0.089360997	0.34900001	5.2930002	-4.4039998
162	1	2	-0.14229199	-2.529	9.125	-4.408
163	1	3	0.216277	-1.724	9.7860003	-4.7030001
164	1	2	-0.276932	-3.7609999	9.6260004	-4.2649999
165	1	3	0.22877499	-3.937	10.68	-4.441
166	1	2	-0.32167301	-7.2160001	8.4110003	-1.632
167	1	5	0.76683998	-6.085	8.8970003	-0.75099999
168	1	7	-0.207357	-6.5409999	9.165	0.528
169	1	7	-0.207357	-5.5320001	10.061	-1.253
170	1	7	-0.207357	-5.1059999	7.9229999	-0.68000001
171	1	2	-0.056134	-8.2110004	7.6739998	-1.101
172	1	3	0.206402	-8.1999998	7.4310002	-0.045000002
173	1	2	-0.113702	-11.863	6.6339998	-1.706
174	1	3	0.204087	-12.124	7.4260001	-2.395
175	1	2	-0.40637699	-12.836	5.881	-1.178
176	1	3	0.22183	-13.866	6.0640001	-1.455
177	1	6	0.37299401	-14.546	4.152	0.050000001
178	1	2	0.58779103	9.276	2.664	0.30199999
179	1	9	-0.52578098	9.5609999	2.066	-0.77100003
180	1	2	-0.288573	8.54	1.987	1.385
181	1	2	-0.022552	8.1429996	0.70599997	1.271
182	1	3	0.22249299	8.3529997	0.132	0.377
183	1	2	-0.24453799	7.4070001	0.056000002	2.3729999
184	1	3	0.213259	7.092	-0.97500002	2.2720001
185	1	2	-0.060513001	7.1300001	0.73500001	3.4920001
186	1	3	0.233421	6.5890002	0.241	4.289
187	1	2	-0.21840701	7.559	2.1489999	3.638
188	1	2	0.83878303	7.2449999	2.8870001	4.881
189	1	9	-0.48739001	7.6009998	4.0890002	5.0229998
190	1	10	-0.66513401	6.5500002	2.256	5.9089999
191	1	11	0.41795501	6.3280001	2.7490001	6.7659998
192	1	2	0.073112004	8.2309999	2.737	2.628
193	1	3	0.25016299	8.5550003	3.7679999	2.7090001

Bonds

1	1	1	2
2	2	1	81
3	3	1	96
4	4	2	3
5	4	2	79
6	5	3	4
7	4	3	5
8	5	5	6
9	4	5	7
10	6	7	8
11	4	7	77
12	4	8	9
13	4	8	75
14	5	9	10
15	4	9	11
16	5	11	12
17	4	11	13
18	7	13	14
19	4	13	70
20	7	14	15
21	4	15	16
22	4	15	68
23	5	16	17
24	4	16	18
25	5	18	19
26	4	18	20
27	8	20	21
28	4	20	66
29	8	21	22
30	9	21	58
31	9	21	62
32	4	22	23
33	4	22	56
34	5	23	24
35	4	23	25
36	5	25	26
37	4	25	27
38	7	27	28
39	4	27	54
40	7	28	29
41	4	29	30
42	4	29	49
43	5	30	31
44	4	30	32
45	5	32	33
46	4	32	34
47	6	34	35
48	4	34	47
49	4	35	36
50	4	35	45
51	5	36	37
52	4	36	38
53	5	38	39
54	4	38	40
55	1	40	41
56	4	40	43
57	2	41	42
58	10	41	82
59	5	43	44
60	4	43	45
61	5	45	46
62	5	47	48
63	4	47	49
64	8	49	50
65	11	50	51
66	11	50	52
67	11	50	53
68	5	54	55
69	4	54	56
70	5	56	57
71	12	58	59
72	12	58	60
73	12	58	61
74	12	62	63
75	12	62	64
76	12	62	65
77	5	66	67
78	4	66	68
79	5	68	69
80	8	70	71
81	4	70	75
82	11	71	72
83	11	71	73
84	11	71	74
85	5	75	76
86	5	77	78
87	4	77	79
88	5	79	80
89	13	82	83
90	6	82	84
91	4	84	85
92	4	84	94
93	5	85	86
94	4	85	87
95	5	87	88
96	4	87	89
97	5	89	90
98	4	89	91
99	6	91	92
100	4	91	94
101	13	92	93
102	6	92	178
103	5	94	95
104	1	96	97
105	2	96	177
106	4	97	98
107	4	97	175
108	5	98	99
109	4	98	100
110	5	100	101
111	4	100	102
112	6	102	103
113	4	102	173
114	4	103	104
115	4	103	171
116	5	104	105
117	4	104	106
118	5	106	107
119	4	106	108
120	7	108	109
121	4	108	166
122	7	109	110
123	4	110	111
124	4	110	164
125	5	111	112
126	4	111	113
127	5	113	114
128	4	113	115
129	8	115	116
130	4	115	162
131	8	116	117
132	9	116	154
133	9	116	158
134	4	117	118
135	4	117	152
136	5	118	119
137	4	118	120
138	5	120	121
139	4	120	122
140	7	122	123
141	4	122	150
142	7	123	124
143	4	124	125
144	4	124	145
145	5	125	126
146	4	125	127
147	5	127	128
148	4	127	129
149	6	129	130
150	4	129	143
151	4	130	131
152	4	130	141
153	5	131	132
154	4	131	133
155	5	133	134
156	4	133	135
157	1	135	136
158	4	135	139
159	2	136	137
160	2	136	138
161	5	139	140
162	4	139	141
163	5	141	142
164	5	143	144
165	4	143	145
166	8	145	146
167	11	146	147
168	11	146	148
169	11	146	149
170	5	150	151
171	4	150	152
172	5	152	153
173	12	154	155
174	12	154	156
175	12	154	157
176	12	158	159
177	12	158	160
178	12	158	161
179	5	162	163
180	4	162	164
181	5	164	165
182	8	166	167
183	4	166	171
184	11	167	168
185	11	167	169
186	11	167	170
187	5	171	172
188	5	173	174
189	4	173	175
190	5	175	176
191	13	178	179
192	6	178	180
193	4	180	181
194	4	180	192
195	5	181	182
196	4	181	183
197	5	183	184
198	4	183	185
199	5	185	186
200	4	185	187
201	6	187	188
202	4	187	192
203	13	188	189
204	14	188	190
205	15	190	191
206	5	192	193

Angles

1	4	35	45	46
2	1	25	27	28
3	1	100	102	173
4	1	102	103	104
5	1	108	166	171
6	6	145	146	148
7	1	178	180	181
8	7	63	62	64
9	4	125	127	128
10	1	13	70	75
11	4	34	47	48
12	1	131	130	141
13	4	7	77	78
14	1	21	22	23
15	4	122	150	151
16	6	20	21	58
17	2	2	1	96
18	5	108	109	110
19	1	83	82	84
20	1	11	13	14
21	5	188	190	191
22	1	84	94	91
23	1	1	2	79
24	4	131	133	134
25	1	16	15	68
26	1	2	3	5
27	1	180	192	187
28	4	97	175	176
29	4	139	141	142
30	6	20	21	62
31	4	117	152	153
32	1	124	145	143
33	4	84	85	86
34	4	19	18	20
35	4	22	23	24
36	6	21	62	65
37	6	49	50	51
38	1	32	34	47
39	1	106	108	109
40	1	21	22	56
41	1	130	131	133
42	1	129	130	141
43	6	70	71	74
44	4	107	106	108
45	4	91	94	95
46	1	102	173	175
47	1	183	185	187
48	1	28	29	30
49	4	121	120	122
50	6	145	146	147
51	7	60	58	61
52	1	82	84	85
53	2	1	96	97
54	1	29	30	32
55	1	125	124	145
56	1	97	175	173
57	1	124	125	127
58	4	134	133	135
59	7	156	154	157
60	4	186	185	187
61	8	189	188	190
62	1	36	38	40
63	1	2	79	77
64	1	97	98	100
65	1	7	8	75
66	1	116	117	152
67	3	1	96	177
68	1	109	108	166
69	1	89	91	92
70	1	18	20	21
71	4	85	87	88
72	4	2	3	4
73	1	187	188	190
74	6	116	154	156
75	7	155	154	157
76	4	118	120	121
77	4	180	192	193
78	4	9	11	12
79	1	185	187	188
80	1	98	97	175
81	3	137	136	138
82	1	8	75	70
83	4	33	32	34
84	1	38	40	43
85	1	106	108	166
86	1	116	117	118
87	3	2	1	81
88	4	39	38	40
89	1	5	7	77
90	6	58	21	62
91	1	13	70	71
92	4	17	16	18
93	6	168	167	170
94	4	101	100	102
95	1	129	130	131
96	4	174	173	175
97	4	67	66	68
98	1	185	187	192
99	1	124	145	146
100	1	30	32	34
101	1	116	115	162
102	1	110	111	113
103	1	3	5	7
104	1	93	92	178
105	1	115	162	164
106	4	36	38	39
107	1	110	164	162
108	5	122	123	124
109	4	15	16	17
110	4	114	113	115
111	4	163	162	164
112	1	27	54	56
113	4	29	30	31
114	6	22	21	58
115	4	8	9	10
116	1	34	35	45
117	1	129	143	145
118	4	98	100	101
119	4	162	164	165
120	1	14	13	70
121	1	20	66	68
122	6	116	158	160
123	6	116	154	155
124	1	123	122	150
125	6	22	21	62
126	3	81	1	96
127	1	41	82	84
128	6	154	116	158
129	1	103	104	106
130	4	2	79	80
131	6	21	58	60
132	1	109	110	111
133	1	117	118	120
134	4	44	43	45
135	4	31	30	32
136	1	123	124	125
137	6	72	71	74
138	1	25	27	54
139	6	166	167	169
140	1	35	34	47
141	4	16	18	19
142	1	96	97	98
143	1	180	181	183
144	1	40	43	45
145	4	30	32	33
146	4	110	111	112
147	6	49	50	53
148	4	115	162	163
149	4	90	89	91
150	1	23	25	27
151	1	133	135	136
152	4	37	36	38
153	2	40	41	82
154	6	147	146	149
155	4	27	54	55
156	1	123	124	145
157	3	40	41	42
158	6	51	50	53
159	1	188	187	192
160	1	82	84	94
161	4	129	143	144
162	1	109	110	164
163	6	73	71	74
164	1	87	89	91
165	6	145	146	149
166	3	135	136	138
167	1	21	20	66
168	4	110	164	165
169	1	167	166	171
170	3	42	41	82
171	1	125	127	129
172	4	66	68	69
173	4	15	68	69
174	1	34	47	49
175	1	32	34	35
176	6	116	158	159
177	1	29	49	47
178	1	41	82	83
179	1	28	27	54
180	4	103	104	105
181	4	78	77	79
182	6	21	62	64
183	6	148	146	149
184	6	21	58	59
185	1	111	113	115
186	4	173	175	176
187	1	89	91	94
188	1	92	91	94
189	1	91	92	178
190	1	131	133	135
191	1	96	97	175
192	4	130	131	132
193	1	130	129	143
194	6	166	167	168
195	1	104	106	108
196	6	70	71	73
197	1	41	40	43
198	4	88	87	89
199	4	48	47	49
200	4	43	45	46
201	4	102	173	174
202	4	40	43	44
203	1	84	85	87
204	4	183	185	186
205	1	143	145	146
206	1	181	180	192
207	4	23	25	26
208	4	87	89	90
209	1	85	84	94
210	1	11	13	70
211	1	136	135	139
212	1	15	68	66
213	6	147	146	148
214	4	6	5	7
215	4	128	127	129
216	1	120	122	123
217	1	28	29	49
218	1	120	122	150
219	4	24	23	25
220	1	5	7	8
221	6	51	50	52
222	4	124	125	126
223	1	113	115	116
224	6	169	167	170
225	4	8	75	76
226	3	97	96	177
227	1	178	180	192
228	4	97	98	99
229	3	135	136	137
230	1	14	15	68
231	1	34	35	36
232	1	71	70	75
233	1	8	7	77
234	1	133	135	139
235	6	117	116	154
236	4	55	54	56
237	1	187	188	189
238	6	115	116	158
239	7	155	154	156
240	4	150	152	153
241	1	179	178	180
242	1	103	102	173
243	1	181	183	185
244	7	59	58	61
245	6	21	62	63
246	4	119	118	120
247	4	111	113	114
248	6	52	50	53
249	1	36	35	45
250	7	159	158	161
251	1	85	87	89
252	1	104	103	171
253	6	20	21	22
254	6	117	116	158
255	4	130	141	142
256	1	3	2	79
257	6	168	167	169
258	1	29	49	50
259	4	166	171	172
260	6	116	154	157
261	4	22	56	57
262	4	104	106	107
263	1	118	120	122
264	6	70	71	72
265	1	35	36	38
266	4	144	143	145
267	7	160	158	161
268	4	182	181	183
269	1	23	22	56
270	1	103	171	166
271	4	132	131	133
272	1	35	45	43
273	4	3	5	6
274	1	1	2	3
275	4	84	94	95
276	4	105	104	106
277	1	135	139	141
278	1	100	102	103
279	1	130	141	139
280	4	10	9	11
281	1	7	8	9
282	4	77	79	80
283	1	92	178	180
284	6	115	116	117
285	1	9	11	13
286	1	18	20	66
287	1	14	15	16
288	1	113	115	162
289	1	127	129	130
290	4	140	139	141
291	7	63	62	65
292	4	4	3	5
293	4	184	183	185
294	1	15	16	18
295	4	12	11	13
296	4	20	66	67
297	4	99	98	100
298	1	9	8	75
299	1	118	117	152
300	1	22	56	54
301	4	26	25	27
302	1	7	77	79
303	4	103	171	172
304	1	122	150	152
305	1	117	152	150
306	4	181	183	184
307	7	59	58	60
308	4	126	125	127
309	1	38	40	41
310	1	98	100	102
311	4	117	118	119
312	7	159	158	160
313	1	111	110	164
314	1	47	49	50
315	5	13	14	15
316	6	116	158	161
317	6	72	71	73
318	5	27	28	29
319	4	70	75	76
320	4	35	36	37
321	4	187	192	193
322	7	64	62	65
323	4	86	85	87
324	1	8	9	11
325	4	180	181	182
326	4	151	150	152
327	1	22	23	25
328	6	49	50	52
329	6	21	58	61
330	1	127	129	143
331	4	54	56	57
332	1	108	166	167
333	4	135	139	140
334	4	112	111	113
335	1	30	29	49
336	6	166	167	170
337	6	115	116	154
338	1	92	178	179
339	1	91	92	93
340	1	16	18	20
341	1	102	103	171

Dihedrals

1	15	58	21	62	64
2	1	2	79	77	78
3	4	127	129	130	131
4	1	127	129	143	145
5	7	20	21	58	61
6	1	36	35	45	46
7	7	115	116	158	159
8	1	109	108	166	167
9	1	28	29	49	47
10	1	99	98	97	175
11	6	108	166	167	168
12	1	23	22	56	57
13	1	26	25	27	28
14	1	2	79	77	7
15	1	180	192	187	188
16	1	116	117	152	153
17	1	136	135	139	141
18	4	104	103	102	173
19	12	93	92	178	179
20	1	124	145	143	129
21	12	89	91	92	178
22	1	8	75	70	71
23	7	22	21	58	60
24	6	62	21	20	66
25	6	118	117	116	154
26	1	120	118	117	152
27	6	13	70	71	73
28	1	129	143	145	146
29	1	119	118	117	152
30	1	11	9	8	75
31	1	84	85	87	89
32	1	107	106	108	109
33	2	3	2	1	96
34	1	105	104	106	107
35	1	16	15	68	66
36	6	74	71	70	75
37	1	34	35	45	46
38	1	14	15	68	66
39	5	124	123	122	150
40	6	29	49	50	52
41	2	133	135	136	137
42	1	41	40	43	45
43	4	100	102	103	171
44	6	170	167	166	171
45	1	167	166	171	172
46	4	9	8	7	77
47	1	32	34	47	49
48	1	85	84	94	95
49	1	96	97	175	176
50	1	14	13	70	71
51	4	100	102	103	104
52	5	108	109	110	164
53	6	20	21	22	56
54	1	185	187	192	193
55	1	37	36	38	39
56	1	123	124	125	126
57	12	91	92	178	180
58	1	140	139	141	142
59	1	135	139	141	142
60	4	171	103	102	173
61	1	21	20	66	68
62	1	113	115	162	164
63	1	23	22	56	54
64	1	25	27	54	55
65	1	118	117	152	153
66	6	143	145	146	148
67	1	99	98	100	101
68	7	20	21	62	65
69	12	94	91	92	178
70	7	117	116	154	156
71	1	134	133	135	136
72	5	15	14	13	70
73	2	79	2	1	96
74	3	81	1	96	97
75	15	58	21	62	63
76	1	127	129	143	144
77	1	16	18	20	66
78	1	182	181	180	192
79	1	87	89	91	92
80	1	180	181	183	184
81	4	45	35	34	47
82	1	3	5	7	8
83	12	41	82	84	85
84	1	82	84	85	87
85	6	154	116	115	162
86	1	15	68	66	67
87	1	38	36	35	45
88	1	18	20	66	68
89	1	129	130	141	142
90	3	81	1	96	177
91	1	136	135	139	140
92	1	104	103	171	172
93	7	117	116	158	161
94	1	111	110	164	165
95	1	9	8	75	76
96	1	98	97	175	176
97	4	131	130	129	143
98	1	183	185	187	188
99	1	109	110	164	165
100	5	110	109	108	166
101	1	184	183	185	187
102	1	8	7	77	79
103	1	15	68	66	20
104	6	124	145	146	149
105	4	5	7	8	9
106	1	178	180	181	182
107	7	22	21	58	59
108	6	13	70	71	72
109	7	115	116	154	157
110	1	102	103	171	172
111	12	185	187	188	189
112	1	130	131	133	135
113	1	84	85	87	88
114	1	108	166	171	172
115	15	60	58	21	62
116	1	110	111	113	114
117	1	2	3	5	7
118	1	31	30	32	34
119	6	29	49	50	51
120	6	56	22	21	58
121	1	32	34	47	48
122	1	4	3	2	79
123	1	100	102	173	175
124	1	116	115	162	164
125	1	117	118	120	122
126	1	112	111	113	115
127	6	73	71	70	75
128	5	13	14	15	68
129	1	35	45	43	40
130	1	126	125	127	129
131	1	30	32	34	35
132	1	30	29	49	47
133	12	179	178	180	181
134	1	182	181	183	185
135	1	24	23	25	27
136	1	86	85	84	94
137	1	21	20	66	67
138	6	47	49	50	53
139	1	16	15	68	69
140	1	113	115	162	163
141	1	97	175	173	102
142	1	7	8	9	11
143	4	5	7	8	75
144	1	14	15	68	69
145	1	27	54	56	57
146	1	124	125	127	129
147	1	110	164	162	163
148	1	129	130	131	133
149	2	3	2	1	81
150	1	9	11	13	70
151	7	20	21	62	64
152	1	88	87	89	91
153	4	32	34	35	36
154	1	29	49	47	48
155	15	156	154	116	158
156	1	174	173	175	176
157	1	35	45	43	44
158	1	90	89	91	94
159	1	123	122	150	152
160	1	130	129	143	144
161	1	28	29	30	32
162	1	132	131	133	135
163	6	23	22	21	62
164	1	34	35	36	37
165	1	4	3	5	6
166	12	93	92	91	94
167	1	17	16	18	19
168	1	102	173	175	176
169	5	120	122	123	124
170	1	5	7	77	79
171	10	42	41	82	84
171	11	42	41	82	84
172	1	36	38	40	41
173	12	92	178	180	192
174	1	188	187	192	193
175	1	144	143	145	146
176	1	178	180	192	187
177	7	117	116	158	160
178	1	134	133	135	139
179	1	35	34	47	48
180	1	131	130	141	142
181	1	85	84	94	91
182	1	116	117	118	120
183	1	8	7	77	78
184	5	27	28	29	30
185	1	33	32	34	35
186	1	13	70	75	76
187	1	12	11	13	14
188	7	115	116	158	161
189	4	75	8	7	77
190	2	79	2	1	81
191	1	114	113	115	162
192	1	29	49	47	34
193	1	96	97	98	99
194	1	119	118	120	121
195	1	19	18	20	21
196	1	1	2	79	77
197	1	181	183	185	187
198	6	108	166	167	170
199	1	39	38	40	41
200	1	131	130	141	139
201	1	31	30	32	33
202	1	8	75	70	13
203	5	13	14	15	16
204	1	133	135	139	140
205	6	152	117	116	154
206	1	28	27	54	56
207	1	11	13	70	75
208	1	186	185	187	192
209	1	100	102	173	174
210	1	116	115	162	163
211	1	32	30	29	49
212	1	112	111	113	114
213	1	88	87	89	90
214	15	154	116	158	159
215	7	22	21	62	63
216	1	87	85	84	94
217	2	43	40	41	82
218	12	83	82	84	85
219	12	89	91	92	93
220	1	182	181	183	184
221	1	102	103	104	106
222	1	24	23	25	26
223	1	22	23	25	27
224	1	130	141	139	140
225	6	47	49	50	52
226	3	2	1	96	97
227	1	29	30	32	34
228	1	44	43	45	46
229	1	120	122	150	151
230	1	40	43	45	46
231	1	181	180	192	187
232	1	23	25	27	28
233	15	59	58	21	62
234	2	1	96	97	175
235	1	109	110	111	112
236	1	110	164	162	115
237	6	152	117	116	158
238	1	1	2	3	4
239	1	111	113	115	162
240	1	3	5	7	77
241	7	20	21	58	60
242	3	2	1	96	177
243	1	30	29	49	50
244	1	123	122	150	151
245	1	26	25	27	54
246	1	101	100	102	103
247	1	97	98	100	102
248	1	183	181	180	192
249	1	5	7	77	78
250	13	42	41	82	83
250	14	42	41	82	83
251	6	168	167	166	171
252	7	117	116	158	159
253	1	112	111	110	164
254	1	24	23	22	56
255	4	36	35	34	47
256	6	113	115	116	158
257	1	117	152	150	122
258	1	178	180	192	193
259	15	58	21	62	65
260	1	71	70	75	76
261	1	37	36	35	45
262	12	41	82	84	94
263	1	87	89	91	94
264	1	92	91	94	95
265	1	35	36	38	40
266	5	122	123	124	125
267	1	89	91	94	95
268	1	14	15	16	18
269	1	10	9	11	13
270	1	126	125	124	145
271	1	16	18	20	21
272	5	25	27	28	29
273	1	41	40	43	44
274	12	93	92	178	180
275	1	3	2	79	77
276	2	137	136	135	139
277	1	38	40	43	45
278	1	28	27	54	55
279	2	42	41	40	43
280	1	106	108	166	171
281	2	175	97	96	177
282	7	22	21	58	61
283	1	125	124	145	143
284	6	13	70	71	74
285	12	91	92	178	179
286	6	117	116	115	162
287	1	31	30	29	49
288	1	1	2	79	80
289	1	98	100	102	103
290	6	23	22	21	58
291	1	105	104	106	108
292	6	18	20	21	22
293	6	115	116	117	152
294	1	103	104	106	108
295	5	122	123	124	145
296	1	103	102	173	175
297	1	29	30	32	33
298	1	82	84	94	91
299	6	29	49	50	53
300	6	143	145	146	147
301	1	78	77	79	80
302	1	128	127	129	130
303	7	117	116	154	155
304	1	181	180	192	193
305	15	157	154	116	158
306	1	103	171	166	108
307	6	18	20	21	62
308	6	113	115	116	117
309	2	1	96	97	98
310	1	84	94	91	89
311	1	22	56	54	55
312	7	20	21	58	59
313	1	97	98	100	101
314	1	82	84	85	86
315	6	115	116	117	118
316	1	18	20	66	67
317	1	35	36	38	39
318	1	12	11	13	70
319	1	82	84	94	95
320	1	127	125	124	145
321	1	25	27	54	56
322	4	32	34	35	45
323	1	48	47	49	50
324	1	99	98	100	102
325	1	10	9	8	75
326	12	92	178	180	181
327	1	7	8	75	70
328	1	186	185	187	188
329	1	11	13	70	71
330	1	184	183	185	186
331	1	101	100	102	173
332	6	124	145	146	148
333	2	38	40	41	42
334	5	108	109	110	111
335	1	133	131	130	141
336	7	115	116	154	156
337	1	6	5	7	8
338	1	9	11	13	14
339	1	100	98	97	175
340	1	130	131	133	134
341	1	180	181	183	185
342	1	14	15	16	17
343	1	106	104	103	171
344	1	10	9	11	12
345	6	20	21	22	23
346	1	21	22	56	54
347	12	190	188	187	192
348	1	113	111	110	164
349	1	5	3	2	79
350	12	189	188	187	192
351	1	2	3	5	6
352	1	7	8	9	10
353	1	86	85	87	89
354	1	36	38	40	43
355	1	121	120	122	123
356	1	121	120	122	150
357	1	38	40	43	44
358	6	158	116	115	162
359	1	128	127	129	143
360	1	117	118	120	121
361	1	8	9	11	13
362	1	178	180	181	183
363	1	15	16	18	20
364	1	105	104	103	171
365	1	126	125	127	128
366	1	123	124	145	146
367	1	109	108	166	171
368	12	185	187	188	190
369	1	55	54	56	57
370	1	39	38	40	43
371	1	25	23	22	56
372	1	103	104	106	107
373	1	103	102	173	174
374	1	132	131	130	141
375	1	110	111	113	115
376	1	124	125	127	128
377	1	129	130	131	132
378	1	104	103	171	166
379	1	85	87	89	91
380	7	20	21	62	63
381	1	7	8	75	76
382	1	3	2	79	80
383	1	9	8	75	70
384	6	113	115	116	154
385	15	155	154	116	158
386	1	131	133	135	139
387	15	154	116	158	161
388	12	83	82	84	94
389	1	98	100	102	173
390	7	22	21	62	65
391	1	125	124	145	146
392	6	118	117	116	158
393	2	98	97	96	177
394	1	36	35	45	43
395	1	125	127	129	130
396	1	102	103	171	166
397	1	28	29	30	31
398	1	132	131	133	134
399	1	22	56	54	27
400	1	163	162	164	165
401	1	180	192	187	185
402	16	187	188	190	191
403	1	116	117	152	150
404	1	122	150	152	153
405	6	169	167	166	171
406	1	103	171	166	167
407	1	14	13	70	75
408	1	118	120	122	123
409	1	30	32	34	47
410	4	141	130	129	143
411	10	40	41	82	84
411	11	40	41	82	84
412	1	21	22	23	25
413	1	106	108	166	167
414	1	116	117	118	119
415	1	118	120	122	150
416	1	124	145	143	144
417	6	124	145	146	147
418	4	127	129	130	141
419	1	104	106	108	109
420	7	115	116	158	160
421	6	22	21	20	66
422	1	130	129	143	145
423	7	115	116	154	155
424	1	123	124	145	143
425	1	97	175	173	174
426	1	181	183	185	186
427	6	108	166	167	169
428	1	34	35	36	38
429	1	4	3	5	7
430	1	130	141	139	135
431	1	17	16	18	20
432	1	34	35	45	43
433	1	86	85	87	88
434	15	61	58	21	62
435	5	27	28	29	49
436	1	84	94	91	92
437	1	35	34	47	49
438	1	96	97	175	173
439	1	117	152	150	151
440	6	18	20	21	58
441	1	85	87	89	90
442	1	131	133	135	136
443	1	8	9	11	12
444	1	15	16	18	19
445	2	138	136	135	139
446	6	58	21	20	66
447	1	107	106	108	166
448	1	28	29	49	50
449	1	96	97	98	100
450	1	119	118	120	122
451	1	23	25	27	54
452	1	114	113	115	116
453	1	125	127	129	143
454	1	102	103	104	105
455	1	115	162	164	165
456	1	20	66	68	69
457	1	129	130	141	139
458	1	22	23	25	26
459	1	18	16	15	68
460	6	47	49	50	51
461	1	21	22	56	57
462	1	34	47	49	50
463	2	133	135	136	138
464	1	118	117	152	150
465	1	133	135	139	141
466	5	11	13	14	15
467	1	33	32	34	47
468	1	183	185	187	192
469	1	151	150	152	153
470	15	154	116	158	160
471	7	22	21	62	64
472	6	72	71	70	75
473	5	106	108	109	110
474	1	123	124	125	127
475	1	90	89	91	92
476	1	17	16	15	68
477	12	179	178	180	192
478	1	7	77	79	80
479	5	29	28	27	54
480	1	120	122	150	152
481	6	143	145	146	149
482	6	56	22	21	62
483	17	189	188	190	191
483	18	189	188	190	191
484	1	109	110	111	113
485	1	6	5	7	77
486	1	19	18	20	66
487	7	117	116	154	157
488	2	38	40	41	82
489	1	1	2	3	5
490	1	111	110	164	162
491	1	98	97	175	173
492	1	37	36	38	40
493	1	104	106	108	166
494	1	67	66	68	69
495	8	40	41	82	83
495	9	40	41	82	83
496	1	21	22	23	24
497	1	109	110	164	162
498	1	111	113	115	116

Impropers

1	1	84	85	94	82
4	1	38	36	39	40
9	1	9	10	11	8
12	1	104	105	106	103
15	1	5	3	6	7
20	1	43	44	45	40
21	1	34	32	35	47
22	1	100	102	98	101
23	1	110	109	111	164
26	1	111	110	112	113
28	2	1	96	2	81
30	1	127	128	129	125
33	2	1	2	81	96
35	2	1	81	96	2
36	1	180	178	181	192
37	1	5	7	3	6
38	1	54	56	27	55
39	1	106	108	104	107
42	1	103	102	104	171
44	1	66	68	20	67
49	1	131	132	133	130
50	1	97	175	96	98
53	1	5	6	7	3
54	1	91	92	94	89
56	1	29	30	49	28
61	1	130	129	131	141
62	1	150	152	122	151
70	1	47	34	48	49
72	1	94	84	91	95
73	1	143	145	129	144
74	1	117	152	116	118
78	1	185	186	187	183
80	1	183	184	185	181
81	1	40	41	43	38
85	1	113	111	114	115
86	2	96	97	177	1
89	1	139	140	141	135
94	1	187	185	188	192
95	1	15	68	14	16
96	1	139	141	135	140
98	1	79	80	2	77
102	1	192	193	180	187
103	1	108	109	166	106
106	1	125	127	124	126
111	1	35	45	34	36
113	2	96	1	97	177
114	1	7	77	5	8
115	1	85	86	87	84
117	1	111	113	110	112
120	1	180	181	192	178
122	1	180	192	178	181
124	1	120	121	122	118
127	1	11	12	13	9
130	1	129	130	143	127
134	1	139	135	140	141
138	1	143	129	144	145
139	1	27	25	28	54
142	1	47	49	34	48
143	1	135	139	133	136
150	1	173	102	174	175
157	1	49	47	50	29
160	1	23	25	22	24
162	1	185	187	183	186
163	1	145	124	143	146