Title

207 atoms
222 bonds
377 angles
599 dihedrals
276 impropers

11 atom types
15 bond types
8 angle types
22 dihedral types
3 improper types
-22.33699989 77.66300011 xlo xhi
-4.140999794 95.85900021 ylo yhi
-24.47699928 75.52300072 zlo zhi
0.0 0.0 0.0 xy xz yz

Masses

1	14.00672
2	12.01078
3	1.007947
4	15.99943
5	12.01078
6	1.007947
7	18.998403
8	1.007947
9	15.99943
10	15.99943
11	1.007947


Pair Coeffs

1	0.16769152	3.206876
2	0.086879315	3.4806469
3	0.015611343	2.5725815
4	0.16846514	3.0251065
5	0.10884061	3.3795318
6	0.014090815	1.1034277
7	0.061	3.1181455
8	0.015779483	2.6445434
9	0.2102061	3.0398122
10	0.20947353	2.99716
11	1.2326e-05	0.53453923

Bond Coeffs

1 harmonic	390.03554688505	1.390160554689
2 harmonic	505.144496193	1.019481865027
3 harmonic	422.7150220147	1.421786517481
4 harmonic	360.7852444772	1.387193227181
5 harmonic	397.2545789619	1.085358495916
6 harmonic	279.1350963404	1.454628925034
7 harmonic	425.69104206635	1.362945806494
8 harmonic	289.73813263395	1.498646816465
9 harmonic	264.62148576755	1.52190126495
10 harmonic	492.76746816345	1.381897776683
11 harmonic	340.45121009905	1.358690858053
12 harmonic	370.04670688625	1.093899492634
13 harmonic	582.698766451	1.225198386222
14 harmonic	385.7604595587	1.369745182308
15 harmonic	543.5267831885	0.9716763312559


Angle Coeffs

1 harmonic	57.8982893754	126.8062420451
2 harmonic	55.42182150775	117.3465570514
3 harmonic	63.44422595415	115.5071327674
4 harmonic	34.066775159195	129.1835929926
5 harmonic	65.09061609600001	110.3538806181
6 harmonic	53.20531626545	116.5475862634
7 harmonic	48.776492647595	115.6030999533
8 harmonic	201.41175231035	127.4691416191


Dihedral Coeffs

1 fourier 1	3.661930099076	2	180
2 fourier 1	1.193093382682	2	180
3 fourier 1	0.02021088501612	1	0
4 fourier 1	1.163235555439	2	180
5 fourier 1	1.532232714475	2	180
6 fourier 1	0.02664938770063	3	0
7 fourier 1	0.1155372516788	3	0
8 fourier 1	0.1040663847541	3	0
9 fourier 1	0.09223874044423	3	0
10 fourier 1	0.3159935921949	2	180
11 fourier 1	0.3247796806857	1	180
12 fourier 1	3.101948770557	2	180
13 fourier 1	-0.4252153282372	1	0
14 fourier 1	1.809047390003	2	180
15 fourier 1	-0.04816277792592	1	0
16 fourier 1	0.9974165607242	2	180
17 fourier 1	2.348375642009	2	180
18 fourier 1	1.256156174911	1	0
19 fourier 1	0.1911926717192	3	0
20 fourier 1	2.687457892086	2	180
21 fourier 1	2.772607909663	2	180
22 fourier 1	0.09692684957115	1	0


Improper Coeffs

1 0.3666666666666667	-1	2
2 0.3333333333333333	-1	2
3 3.5	-1	2


Atoms

1	1	1	-0.41301301	14.317	0.495	-0.056000002
2	1	2	0.124291	12.923	0.41	0.25799999
3	1	2	-0.40888199	12.207	1.527	0.48800001
4	1	3	0.219171	12.682	2.5009999	0.447
5	1	2	-0.1173	10.761	1.434	0.79000002
6	1	3	0.201887	10.206	2.3499999	0.96799999
7	1	2	-0.12997	10.143	0.237	0.81800002
8	1	2	-0.13614701	8.6929998	0.148	1.094
9	1	2	-0.132736	7.8779998	-0.51300001	0.25099999
10	1	3	0.20518699	8.2690001	-1.003	-0.625
11	1	2	-0.29836199	6.421	-0.51300001	0.47499999
12	1	3	0.22174101	5.7909999	-1.021	-0.244
13	1	2	0.32659501	5.8920002	0.12800001	1.536
14	1	4	-0.274533	4.5079999	0.198	1.765
15	1	2	0.25627699	3.5179999	-0.156	0.83899999
16	1	2	-0.27015799	2.7720001	0.80500001	0.26899999
17	1	3	0.22543	2.961	1.845	0.49599999
18	1	2	-0.177453	1.6569999	0.44999999	-0.62599999
19	1	3	0.21574099	1.054	1.252	-1.041
20	1	2	-0.189312	1.349	-0.84500003	-0.87900001
21	1	5	0.014921	0.077	-1.164	-1.6950001
22	1	2	-0.189312	-1.137	-0.59600002	-0.912
23	1	2	-0.177453	-2.2279999	-0.055	-1.507
24	1	3	0.21574099	-2.313	0.028000001	-2.5780001
25	1	2	-0.27015799	-3.3440001	0.49700001	-0.70599997
26	1	3	0.22543	-4.1739998	0.97899997	-1.214
27	1	2	0.25627699	-3.3069999	0.433	0.634
28	1	4	-0.274533	-4.3099999	0.99199998	1.4349999
29	1	2	0.32659501	-5.677	1.028	1.118
30	1	2	-0.29836199	-6.2979999	2.2160001	1.122
31	1	3	0.22174101	-5.7379999	3.122	1.316
32	1	2	-0.132736	-7.75	2.309	0.88099998
33	1	3	0.20518699	-8.2119999	3.283	0.92400002
34	1	2	-0.13614701	-8.4779997	1.2029999	0.65100002
35	1	2	-0.12997	-9.9549999	1.273	0.52600002
36	1	2	-0.131253	-10.613	0.495	-0.354
37	1	3	0.201887	-10.076	-0.15899999	-1.029
38	1	2	-0.37713301	-12.091	0.51800001	-0.41800001
39	1	3	0.21571299	-12.599	-0.131	-1.1160001
40	1	2	0.196602	-12.791	1.306	0.40900001
41	1	1	-0.53317499	-14.219	1.313	0.37599999
42	1	6	0.31829	-14.765	1.936	1.012
43	1	2	-0.37713301	-12.074	2.171	1.369
44	1	3	0.21571299	-12.627	2.813	2.0409999
45	1	2	-0.131253	-10.738	2.161	1.4220001
46	1	3	0.201887	-10.232	2.773	2.1570001
47	1	2	-0.059583999	-7.7940001	-0.113	0.62300003
48	1	3	0.20429599	-8.3909998	-1.001	0.46200001
49	1	2	-0.324231	-6.4720001	-0.22	0.87400001
50	1	5	0.76554102	-5.8189998	-1.5880001	0.94499999
51	1	7	-0.210858	-6.7529998	-2.586	1.1670001
52	1	7	-0.210858	-5.1599998	-1.854	-0.245
53	1	7	-0.210858	-4.9109998	-1.631	1.988
54	1	2	-0.27015799	-2.1619999	-0.222	1.298
55	1	3	0.22543	-2.151	-0.32300001	2.378
56	1	2	-0.177453	-1.1569999	-0.72799999	0.57700002
57	1	3	0.21574099	-0.354	-1.247	1.089
58	1	5	-0.129557	-0.133	-2.698	-1.844
59	1	8	0.109963	-0.29800001	-3.1689999	-0.85100001
60	1	8	0.109963	0.77399999	-3.1570001	-2.293
61	1	5	-0.12931	-1.324	-3.0539999	-2.7509999
62	1	8	0.112121	-1.279	-4.1409998	-2.9719999
63	1	8	0.112121	-2.2780001	-2.8800001	-2.2049999
64	1	5	-0.15088101	-1.352	-2.2709999	-4.0760002
65	1	8	0.114848	-2.237	-1.607	-4.1030002
66	1	8	0.114848	-1.471	-2.9779999	-4.9250002
67	1	5	-0.12931	-0.090999998	-1.438	-4.3130002
68	1	8	0.112121	-0.227	-0.81300002	-5.223
69	1	8	0.112121	0.75599998	-2.131	-4.5139999
70	1	5	-0.129557	0.27200001	-0.52399999	-3.1259999
71	1	8	0.109963	1.342	-0.26699999	-3.2909999
72	1	8	0.109963	-0.25099999	0.45300001	-3.217
73	1	2	-0.177453	2.214	-1.9069999	-0.264
74	1	3	0.21574099	2.0250001	-2.9560001	-0.42699999
75	1	2	-0.27015799	3.2349999	-1.574	0.54500002
76	1	3	0.22543	3.835	-2.349	1.005
77	1	2	-0.324231	6.7930002	0.81199998	2.5090001
78	1	5	0.76554102	6.1960001	1.451	3.7390001
79	1	7	-0.210859	5.6079998	0.47400001	4.5190001
80	1	7	-0.210859	7.1529999	2.115	4.4920001
81	1	7	-0.210859	5.2309999	2.3640001	3.365
82	1	2	-0.059583999	8.1219997	0.81999999	2.2839999
83	1	3	0.20429599	8.8009996	1.303	2.973
84	1	2	-0.117301	10.936	-0.99400002	0.56400001
85	1	3	0.201887	10.46	-1.97	0.58700001
86	1	2	-0.40888199	12.252	-0.91000003	0.31799999
87	1	3	0.219171	12.832	-1.816	0.148
88	1	6	0.371317	14.89	-0.37400001	-0.13600001
89	1	2	0.766666	-14.759	0.68300003	-0.289
90	1	9	-0.66280901	-14.591	0.81900001	-1.53
91	1	2	-0.35553399	-15.687	-0.32800001	0.25299999
92	1	2	-0.077816002	-16.388	-1.1440001	-0.55599999
93	1	3	0.220833	-16.292	-1.082	-1.633
94	1	2	-0.245718	-17.309	-2.1459999	0.017000001
95	1	3	0.210439	-17.868999	-2.7980001	-0.64200002
96	1	2	-0.02617	-17.452	-2.2490001	1.3430001
97	1	3	0.220245	-18.131001	-2.9890001	1.747
98	1	2	-0.294799	-16.686001	-1.357	2.2490001
99	1	2	0.58652103	-16.837	-1.464	3.711
100	1	9	-0.53353101	-17.617001	-2.312	4.2189999
101	1	2	0.053693999	-15.848	-0.44600001	1.723
102	1	3	0.23794401	-15.282	0.213	2.372
103	1	1	-0.41301301	14.755	1.408	-0.28799999
104	1	2	0.124291	15.797	1.493	-1.266
105	1	2	-0.40888199	16.389	0.377	-1.73
106	1	3	0.219171	16.089001	-0.59799999	-1.36
107	1	2	-0.1173	17.450001	0.46900001	-2.7579999
108	1	3	0.201887	17.909	-0.447	-3.1170001
109	1	2	-0.12997	17.82	1.666	-3.2539999
110	1	2	-0.13614701	18.861	1.755	-4.3000002
111	1	2	-0.132736	18.621	2.4159999	-5.447
112	1	3	0.20518699	17.676001	2.9070001	-5.6139998
113	1	2	-0.29836199	19.622999	2.4170001	-6.527
114	1	3	0.22174101	19.381001	2.925	-7.4520001
115	1	2	0.32659501	20.799	1.775	-6.3709998
116	1	4	-0.274533	21.764	1.705	-7.388
117	1	2	0.25627699	21.552999	2.059	-8.7270002
118	1	2	-0.27015799	21.5	1.099	-9.665
119	1	3	0.22543	21.582001	0.057999998	-9.3800001
120	1	2	-0.177453	21.384001	1.4529999	-11.089
121	1	3	0.21574099	21.379	0.65100002	-11.821
122	1	2	-0.189312	21.348	2.7479999	-11.486
123	1	5	0.014921	21.385	3.0669999	-12.997
124	1	2	-0.189312	22.714001	2.4990001	-13.563
125	1	2	-0.177453	22.834	1.9579999	-14.8
126	1	3	0.21574099	21.993999	1.875	-15.471
127	1	2	-0.27015799	24.122999	1.406	-15.275
128	1	3	0.22543	24.167999	0.92400002	-16.246
129	1	2	0.25627699	25.211	1.47	-14.492
130	1	4	-0.274533	26.437	0.91100001	-14.873
131	1	2	0.32659501	26.941999	0.875	-16.183001
132	1	2	-0.29836199	27.292	-0.31200001	-16.695
133	1	3	0.22174101	27.139	-1.219	-16.122
134	1	2	-0.132736	27.908001	-0.40599999	-18.032
135	1	3	0.20518699	28.202	-1.38	-18.391001
136	1	2	-0.13614701	28.125999	0.69999999	-18.764
137	1	2	-0.12997	28.851	0.63	-20.056999
138	1	2	-0.080760002	28.490999	1.408	-21.096001
139	1	3	0.201887	27.631001	2.062	-21.028999
140	1	2	-0.45297101	29.266001	1.385	-22.355
141	1	3	0.22760201	28.974001	2.0339999	-23.167
142	1	2	0.31476101	30.344999	0.597	-22.469999
143	1	1	-0.84583002	31.118	0.58999997	-23.672001
144	1	6	0.36421299	30.875	1.209	-24.476999
145	1	6	0.36421299	31.951	-0.033	-23.766001
146	1	2	-0.45297101	30.737	-0.26800001	-21.337999
147	1	3	0.22760201	31.603001	-0.91000003	-21.419001
148	1	2	-0.080760002	30.032	-0.25799999	-20.202
149	1	3	0.201887	30.356001	-0.87	-19.371
150	1	2	-0.059583999	27.719	2.016	-18.214001
151	1	3	0.20429599	27.921	2.904	-18.798
152	1	2	-0.324231	27.184999	2.1240001	-16.978001
153	1	5	0.76554102	26.877001	3.4909999	-16.398001
154	1	7	-0.210858	27.584999	4.4889998	-17.046
155	1	7	-0.210858	25.523001	3.757	-16.52
156	1	7	-0.210858	27.232	3.5339999	-15.061
157	1	2	-0.27015799	25.118999	2.1259999	-13.172
158	1	3	0.22543	26.007	2.2260001	-12.558
159	1	2	-0.177453	23.958	2.631	-12.745
160	1	3	0.21574099	23.931999	3.1500001	-11.793
161	1	5	-0.129557	21.379999	4.6009998	-13.255
162	1	8	0.109963	22.295	5.072	-12.834
163	1	8	0.109963	20.499001	5.0609999	-12.755
164	1	5	-0.12931	21.297001	4.9569998	-14.749
165	1	8	0.112121	21.087999	6.0450001	-14.835
166	1	8	0.112121	22.283001	4.783	-15.233
167	1	5	-0.15088101	20.215	4.1739998	-15.516
168	1	8	0.114848	20.688999	3.51	-16.264
169	1	8	0.114848	19.579	4.881	-16.09
170	1	5	-0.12931	19.312	3.3410001	-14.604
171	1	8	0.112121	18.634001	2.7160001	-15.227
172	1	8	0.112121	18.671	4.0339999	-14.016
173	1	5	-0.129557	20.091	2.427	-13.638
174	1	8	0.109963	19.354	2.1700001	-12.845
175	1	8	0.109963	20.309	1.451	-14.122
176	1	2	-0.177453	21.371	3.8110001	-10.425
177	1	3	0.21574099	21.341999	4.8590002	-10.673
178	1	2	-0.27015799	21.468	3.477	-9.1260004
179	1	3	0.22543	21.513	4.2529998	-8.3710003
180	1	2	-0.324231	21.099001	1.092	-5.079
181	1	5	0.76554102	22.451	0.45199999	-4.8829999
182	1	7	-0.210859	23.427999	1.429	-4.9330001
183	1	7	-0.210859	22.539	-0.212	-3.6689999
184	1	7	-0.210859	22.684	-0.461	-5.8920002
185	1	2	-0.059583999	20.167	1.0829999	-4.105
186	1	3	0.20429599	20.357	0.60000002	-3.1559999
187	1	2	-0.117301	17.164	2.8970001	-2.74
188	1	3	0.201887	17.451	3.8729999	-3.1210001
189	1	2	-0.40888199	16.223	2.8139999	-1.788
190	1	3	0.219171	15.757	3.72	-1.403
191	1	6	0.371317	14.367	2.277	0.141
192	1	2	0.58652103	-16.275999	-0.81099999	4.3660002
193	1	9	-0.53353101	-15.017	-0.84600002	4.3299999
194	1	2	-0.29030201	-16.990999	0.098999999	5.2810001
195	1	2	-0.02617	-16.329	0.926	6.1100001
196	1	3	0.220245	-15.246	0.94800001	6.131
197	1	2	-0.246868	-17.072001	1.825	7.013
198	1	3	0.210439	-16.531	2.4860001	7.677
199	1	2	-0.063772	-18.41	1.824	7.013
200	1	3	0.23127601	-18.938	2.4909999	7.6830001
201	1	2	-0.220015	-19.160999	0.91900003	6.1059999
202	1	2	0.83761698	-20.639999	0.93000001	6.118
203	1	9	-0.493103	-21.295	0.169	5.3540001
204	1	10	-0.66638499	-21.323999	1.785	6.9770002
205	1	11	0.416136	-22.337	1.803	6.9959998
206	1	2	0.070338003	-18.475	0.101	5.2839999
207	1	3	0.248004	-18.999001	-0.56900001	4.612

Bonds

1	1	1	2
2	2	1	88
3	3	1	103
4	4	2	3
5	4	2	86
6	5	3	4
7	4	3	5
8	5	5	6
9	4	5	7
10	6	7	8
11	4	7	84
12	4	8	9
13	4	8	82
14	5	9	10
15	4	9	11
16	5	11	12
17	4	11	13
18	7	13	14
19	4	13	77
20	7	14	15
21	4	15	16
22	4	15	75
23	5	16	17
24	4	16	18
25	5	18	19
26	4	18	20
27	8	20	21
28	4	20	73
29	8	21	22
30	9	21	58
31	9	21	70
32	4	22	23
33	4	22	56
34	5	23	24
35	4	23	25
36	5	25	26
37	4	25	27
38	7	27	28
39	4	27	54
40	7	28	29
41	4	29	30
42	4	29	49
43	5	30	31
44	4	30	32
45	5	32	33
46	4	32	34
47	6	34	35
48	4	34	47
49	4	35	36
50	4	35	45
51	5	36	37
52	4	36	38
53	5	38	39
54	4	38	40
55	1	40	41
56	4	40	43
57	2	41	42
58	10	41	89
59	5	43	44
60	4	43	45
61	5	45	46
62	5	47	48
63	4	47	49
64	8	49	50
65	11	50	51
66	11	50	52
67	11	50	53
68	5	54	55
69	4	54	56
70	5	56	57
71	12	58	59
72	12	58	60
73	9	58	61
74	12	61	62
75	12	61	63
76	9	61	64
77	12	64	65
78	12	64	66
79	9	64	67
80	12	67	68
81	12	67	69
82	9	67	70
83	12	70	71
84	12	70	72
85	5	73	74
86	4	73	75
87	5	75	76
88	8	77	78
89	4	77	82
90	11	78	79
91	11	78	80
92	11	78	81
93	5	82	83
94	5	84	85
95	4	84	86
96	5	86	87
97	13	89	90
98	6	89	91
99	4	91	92
100	4	91	101
101	5	92	93
102	4	92	94
103	5	94	95
104	4	94	96
105	5	96	97
106	4	96	98
107	6	98	99
108	4	98	101
109	13	99	100
110	6	99	192
111	5	101	102
112	1	103	104
113	2	103	191
114	4	104	105
115	4	104	189
116	5	105	106
117	4	105	107
118	5	107	108
119	4	107	109
120	6	109	110
121	4	109	187
122	4	110	111
123	4	110	185
124	5	111	112
125	4	111	113
126	5	113	114
127	4	113	115
128	7	115	116
129	4	115	180
130	7	116	117
131	4	117	118
132	4	117	178
133	5	118	119
134	4	118	120
135	5	120	121
136	4	120	122
137	8	122	123
138	4	122	176
139	8	123	124
140	9	123	161
141	9	123	173
142	4	124	125
143	4	124	159
144	5	125	126
145	4	125	127
146	5	127	128
147	4	127	129
148	7	129	130
149	4	129	157
150	7	130	131
151	4	131	132
152	4	131	152
153	5	132	133
154	4	132	134
155	5	134	135
156	4	134	136
157	6	136	137
158	4	136	150
159	4	137	138
160	4	137	148
161	5	138	139
162	4	138	140
163	5	140	141
164	4	140	142
165	1	142	143
166	4	142	146
167	2	143	144
168	2	143	145
169	5	146	147
170	4	146	148
171	5	148	149
172	5	150	151
173	4	150	152
174	8	152	153
175	11	153	154
176	11	153	155
177	11	153	156
178	5	157	158
179	4	157	159
180	5	159	160
181	12	161	162
182	12	161	163
183	9	161	164
184	12	164	165
185	12	164	166
186	9	164	167
187	12	167	168
188	12	167	169
189	9	167	170
190	12	170	171
191	12	170	172
192	9	170	173
193	12	173	174
194	12	173	175
195	5	176	177
196	4	176	178
197	5	178	179
198	8	180	181
199	4	180	185
200	11	181	182
201	11	181	183
202	11	181	184
203	5	185	186
204	5	187	188
205	4	187	189
206	5	189	190
207	13	192	193
208	6	192	194
209	4	194	195
210	4	194	206
211	5	195	196
212	4	195	197
213	5	197	198
214	4	197	199
215	5	199	200
216	4	199	201
217	6	201	202
218	4	201	206
219	13	202	203
220	14	202	204
221	15	204	205
222	5	206	207

Angles

1	1	32	34	47
2	1	14	15	75
3	1	21	22	56
4	1	123	124	125
5	6	21	58	59
6	1	78	77	82
7	5	27	28	29
8	6	164	167	168
9	3	2	1	88
10	1	140	142	143
11	1	116	117	178
12	4	114	113	115
13	1	181	180	185
14	1	202	201	206
15	1	131	152	153
16	4	7	84	85
17	6	22	21	70
18	4	201	206	207
19	1	41	89	90
20	1	8	82	77
21	4	104	105	106
22	1	137	148	146
23	1	22	23	25
24	4	158	157	159
25	3	42	41	89
26	1	28	29	30
27	1	124	125	127
28	4	84	86	87
29	1	25	27	28
30	1	130	131	152
31	1	130	131	132
32	6	152	153	156
33	6	79	78	81
34	1	34	35	45
35	1	98	99	192
36	6	123	161	163
37	4	10	9	11
38	4	104	189	190
39	6	163	161	164
40	6	166	164	167
41	2	1	103	104
42	6	180	181	182
43	6	123	173	175
44	1	9	11	13
45	8	203	202	204
46	4	17	16	18
47	4	194	195	196
48	4	16	18	19
49	1	38	40	41
50	1	21	20	73
51	1	138	140	142
52	1	195	194	206
53	4	4	3	5
54	6	21	70	67
55	1	3	5	7
56	1	109	110	185
57	4	6	5	7
58	4	128	127	129
59	4	8	82	83
60	1	35	45	43
61	4	117	118	119
62	4	117	178	179
63	1	118	120	122
64	1	134	136	137
65	6	167	170	172
66	6	58	21	70
67	6	68	67	70
68	6	80	78	81
69	1	25	27	54
70	6	49	50	51
71	4	8	9	10
72	4	15	75	76
73	1	8	7	84
74	1	125	124	159
75	1	2	86	84
76	5	13	14	15
77	6	161	164	166
78	1	98	99	100
79	4	131	132	133
80	4	19	18	20
81	6	124	123	161
82	1	193	192	194
83	1	92	94	96
84	1	30	32	34
85	1	140	142	146
86	5	202	204	205
87	4	124	125	126
88	4	44	43	45
89	1	132	134	136
90	4	98	101	102
91	4	34	47	48
92	6	58	61	64
93	6	61	64	67
94	6	152	153	155
95	6	79	78	80
96	6	69	67	70
97	6	123	161	162
98	1	192	194	206
99	4	180	185	186
100	6	64	67	69
101	4	137	148	149
102	6	123	173	174
103	6	51	50	53
104	4	196	195	197
105	1	40	43	45
106	1	201	202	203
107	1	123	122	176
108	1	36	38	40
109	6	167	170	171
110	7	71	70	72
111	1	18	20	73
112	4	33	32	34
113	4	136	150	151
114	1	195	197	199
115	4	29	30	31
116	4	2	3	4
117	4	77	82	83
118	6	20	21	70
119	4	118	120	121
120	3	40	41	42
121	1	35	34	47
122	6	182	181	183
123	3	104	103	191
124	1	194	206	201
125	4	119	118	120
126	1	118	117	178
127	2	40	41	89
128	1	124	159	157
129	1	1	2	3
130	4	95	94	96
131	7	162	161	163
132	4	157	159	160
133	1	96	98	101
134	6	161	164	165
135	4	91	92	93
136	6	170	173	174
137	4	35	45	46
138	4	24	23	25
139	6	21	58	61
140	1	110	109	187
141	6	164	167	170
142	3	88	1	103
143	4	126	125	127
144	6	122	123	161
145	4	22	56	57
146	1	132	131	152
147	4	132	134	135
148	6	154	153	156
149	1	23	25	27
150	4	2	86	87
151	4	37	36	38
152	1	125	127	129
153	6	77	78	79
154	5	115	116	117
155	3	1	103	191
156	1	107	109	187
157	4	40	43	44
158	1	105	107	109
159	1	8	9	11
160	4	36	38	39
161	1	137	138	140
162	1	41	40	43
163	1	28	27	54
164	4	111	113	114
165	6	20	21	22
166	1	111	110	185
167	4	121	120	122
168	4	200	199	201
169	4	195	197	198
170	1	15	16	18
171	6	172	170	173
172	1	32	34	35
173	1	16	15	75
174	6	180	181	184
175	4	139	138	140
176	6	155	153	156
177	1	199	201	206
178	4	54	56	57
179	6	123	173	170
180	1	38	40	43
181	1	5	7	8
182	6	21	70	72
183	1	27	54	56
184	1	22	56	54
185	1	138	137	148
186	1	99	192	194
187	3	142	143	145
188	1	142	146	148
189	4	43	45	46
190	4	31	30	32
191	1	134	136	150
192	4	22	23	24
193	1	120	122	123
194	1	28	29	49
195	6	49	50	53
196	6	59	58	61
197	6	62	61	64
198	1	109	187	189
199	4	106	105	107
200	1	89	91	92
201	4	124	159	160
202	7	68	67	69
203	4	91	101	102
204	1	122	176	178
205	4	125	127	128
206	1	192	194	195
207	4	93	92	94
208	1	104	105	107
209	4	9	11	12
210	1	20	73	75
211	4	105	107	108
212	6	65	64	67
213	4	138	140	141
214	6	161	123	173
215	1	103	104	105
216	6	122	123	124
217	1	14	13	77
218	1	129	157	159
219	4	3	5	6
220	6	123	161	164
221	6	63	61	64
222	4	133	132	134
223	1	136	137	138
224	6	180	181	183
225	4	198	197	199
226	1	7	8	82
227	1	16	18	20
228	1	116	117	118
229	1	23	22	56
230	6	21	70	71
231	4	27	54	55
232	1	13	77	82
233	6	52	50	53
234	1	96	98	99
235	4	151	150	152
236	6	165	164	167
237	1	117	118	120
238	1	1	2	86
239	3	142	143	144
240	4	142	146	147
241	6	167	170	173
242	1	115	180	185
243	1	18	20	21
244	4	97	96	98
245	4	92	94	95
246	1	14	15	16
247	4	30	32	33
248	6	20	21	58
249	6	49	50	52
250	7	59	58	60
251	7	62	61	63
252	1	29	49	47
253	7	174	173	175
254	1	11	13	14
255	4	109	187	188
256	1	103	104	189
257	1	47	49	50
258	1	3	2	86
259	4	122	176	177
260	1	116	115	180
261	1	197	199	201
262	6	58	61	63
263	6	61	64	66
264	6	152	153	154
265	6	161	164	167
266	4	146	148	149
267	6	168	167	170
268	1	131	132	134
269	1	11	13	77
270	6	64	67	68
271	4	48	47	49
272	6	51	50	52
273	6	22	21	58
274	4	20	73	74
275	1	94	96	98
276	2	2	1	103
277	1	199	201	202
278	1	100	99	192
279	4	194	206	207
280	1	105	104	189
281	7	65	64	66
282	6	169	167	170
283	1	35	36	38
284	4	12	11	13
285	6	171	170	173
286	4	129	157	158
287	1	34	47	49
288	6	124	123	173
289	4	141	140	142
290	1	136	137	148
291	1	34	35	36
292	1	110	111	113
293	6	77	78	81
294	4	147	146	148
295	1	110	185	180
296	4	26	25	27
297	1	113	115	116
298	4	73	75	76
299	1	201	202	204
300	1	92	91	101
301	1	36	35	45
302	1	7	8	9
303	1	136	150	152
304	1	91	101	98
305	6	66	64	67
306	1	131	152	150
307	4	74	73	75
308	6	67	70	72
309	3	144	143	145
310	1	29	30	32
311	4	39	38	40
312	1	2	3	5
313	7	165	164	166
314	4	187	189	190
315	1	5	7	84
316	6	21	58	60
317	1	150	152	153
318	1	30	29	49
319	4	177	176	178
320	6	182	181	184
321	6	164	167	169
322	5	129	130	131
323	4	55	54	56
324	1	127	129	157
325	4	188	187	189
326	1	137	136	150
327	1	89	91	101
328	6	154	153	155
329	6	162	161	164
330	4	23	25	26
331	6	64	67	70
332	1	109	110	111
333	1	7	84	86
334	4	176	178	179
335	4	197	199	200
336	6	58	61	62
337	6	61	64	65
338	1	123	124	159
339	1	91	92	94
340	6	170	173	175
341	7	168	167	169
342	1	41	89	91
343	1	104	189	187
344	4	110	185	186
345	4	94	96	97
346	4	137	138	139
347	1	29	49	50
348	1	113	115	180
349	4	35	36	37
350	1	13	77	78
351	1	127	129	130
352	1	90	89	91
353	1	120	122	176
354	7	171	170	172
355	6	183	181	184
356	4	15	16	17
357	4	110	111	112
358	6	77	78	80
359	4	112	111	113
360	1	107	109	110
361	1	117	178	176
362	1	9	8	82
363	6	122	123	173
364	1	21	22	23
365	4	85	84	86
366	1	99	98	101
367	1	115	180	181
368	1	194	195	197
369	1	143	142	146
370	6	60	58	61
371	4	108	107	109
372	4	135	134	136
373	1	15	75	73
374	1	111	113	115
375	1	130	129	157
376	1	99	192	193
377	6	67	70	71

Dihedrals

1	1	34	35	36	38
2	1	136	137	138	140
3	1	48	47	49	50
4	1	92	94	96	97
5	1	7	8	9	11
6	16	99	192	194	206
7	1	39	38	40	41
8	16	101	98	99	192
9	1	128	127	129	130
10	1	24	23	25	27
11	1	94	96	98	101
12	1	35	36	38	40
13	1	124	125	127	129
14	1	23	22	56	57
15	1	105	104	189	190
16	9	164	167	170	173
16	10	164	167	170	173
16	11	164	167	170	173
17	1	116	117	178	179
18	8	66	64	67	70
19	1	151	150	152	153
20	1	37	36	35	45
21	1	2	3	5	6
22	7	22	21	70	71
23	1	123	122	176	178
24	1	127	125	124	159
25	1	196	195	197	198
26	1	23	25	27	54
27	1	35	34	47	48
28	1	118	120	122	123
29	1	5	3	2	86
30	6	23	22	21	58
31	6	125	124	123	173
32	1	10	9	11	12
33	1	99	98	101	102
34	1	108	107	109	110
35	1	18	16	15	75
36	1	103	104	105	107
37	1	158	157	159	160
38	1	120	122	176	177
39	1	31	30	32	34
40	1	110	185	180	115
41	16	204	202	201	206
42	6	159	124	123	173
43	1	132	131	152	150
44	7	122	123	161	164
45	19	166	164	167	168
46	1	142	146	148	149
47	1	104	105	107	109
48	4	185	110	109	187
49	19	63	61	64	65
50	6	173	123	122	176
51	1	8	7	84	85
52	19	65	64	67	69
53	1	29	49	47	48
54	8	61	64	67	68
55	1	5	7	84	86
56	6	29	49	50	51
57	8	64	67	70	72
58	6	131	152	153	156
59	8	21	58	61	62
60	1	28	27	54	56
61	1	41	40	43	44
62	1	121	120	122	176
63	1	12	11	13	14
64	16	90	89	91	101
65	1	111	110	185	180
66	6	115	180	181	184
67	1	85	84	86	87
68	7	20	21	70	72
69	4	32	34	35	45
70	8	168	167	170	173
71	19	162	161	164	165
72	9	123	161	164	167
72	10	123	161	164	167
72	11	123	161	164	167
73	1	34	47	49	50
74	1	138	137	148	146
75	1	12	11	13	77
76	1	91	101	98	99
77	1	202	201	206	207
78	1	22	56	54	55
79	1	27	54	56	57
80	1	89	91	92	93
81	1	126	125	127	128
82	9	58	21	70	67
82	10	58	21	70	67
82	11	58	21	70	67
83	1	105	107	109	110
84	9	58	61	64	67
84	10	58	61	64	67
84	11	58	61	64	67
85	1	3	2	86	87
86	1	14	15	75	76
87	1	134	132	131	152
88	1	34	35	36	37
89	1	124	159	157	158
90	1	18	20	73	75
91	1	143	142	146	148
92	1	24	23	25	26
93	1	123	124	159	160
94	1	124	125	127	128
95	4	5	7	8	82
96	8	164	167	170	172
97	1	131	132	134	136
98	1	97	96	98	101
99	1	110	111	113	115
100	2	38	40	41	42
101	1	29	49	47	34
102	1	36	35	45	46
103	1	15	16	18	20
104	16	203	202	201	206
105	1	11	9	8	82
106	1	7	84	86	87
107	1	9	8	82	77
108	4	107	109	110	185
109	1	111	110	185	186
110	1	4	3	5	7
111	5	115	116	117	118
112	7	22	21	70	67
113	7	124	123	161	164
114	16	41	89	91	92
115	1	103	104	105	106
116	1	108	107	109	187
117	1	197	199	201	202
118	1	117	178	176	177
119	1	6	5	7	8
120	1	195	194	206	207
121	19	60	58	61	62
122	1	106	105	107	109
123	1	3	5	7	8
124	19	65	64	67	68
125	1	16	15	75	73
126	1	113	111	110	185
127	1	141	140	142	143
128	7	20	21	58	61
129	6	47	49	50	53
130	1	25	27	54	56
131	1	139	138	137	148
132	4	107	109	110	111
133	8	169	167	170	173
134	3	2	1	103	104
135	2	105	104	103	191
136	1	24	23	22	56
137	1	114	113	115	180
138	1	30	29	49	47
139	19	168	167	170	172
140	8	123	161	164	166
141	1	14	13	77	82
142	5	13	14	15	75
143	6	13	77	78	80
144	2	86	2	1	103
145	19	163	161	164	166
146	1	28	29	30	31
147	1	119	118	120	121
148	8	21	70	67	69
149	8	161	164	167	169
150	1	1	2	86	84
151	14	42	41	89	91
151	15	42	41	89	91
152	19	165	164	167	168
153	1	194	195	197	199
154	1	36	35	45	43
155	8	164	167	170	171
156	1	200	199	201	206
157	8	58	61	64	66
158	1	105	107	109	187
159	1	38	40	43	44
160	1	9	8	82	83
161	1	17	16	18	20
162	1	103	104	189	187
163	16	193	192	194	206
164	1	19	18	20	21
165	1	21	22	23	25
166	1	122	176	178	179
167	8	123	173	170	172
168	1	188	187	189	190
169	1	18	20	73	74
170	1	143	142	146	147
171	16	99	192	194	195
172	1	195	197	199	201
173	1	138	137	148	149
174	6	23	22	21	70
175	1	89	91	101	102
176	1	1	2	3	4
177	19	171	170	173	175
178	4	9	8	7	84
179	16	199	201	202	204
180	1	95	94	96	98
181	2	1	103	104	189
182	1	15	75	73	74
183	6	18	20	21	22
184	1	9	11	13	14
185	5	29	28	27	54
186	1	2	86	84	7
187	16	100	99	192	194
188	1	15	16	18	19
189	4	5	7	8	9
190	1	120	118	117	178
191	8	162	161	123	173
192	1	119	118	117	178
193	1	137	136	150	152
194	1	137	138	140	142
195	1	130	129	157	158
196	7	124	123	161	163
197	1	192	194	206	201
198	1	9	11	13	77
199	7	124	123	173	175
200	6	122	123	124	159
201	19	168	167	170	171
202	7	22	21	58	59
203	19	68	67	70	72
204	4	134	136	137	138
205	6	79	78	77	82
206	1	118	117	178	176
207	1	130	131	132	134
208	1	29	30	32	34
209	4	36	35	34	47
210	7	20	21	58	60
211	1	136	150	152	153
212	1	21	20	73	75
213	1	132	134	136	137
214	1	25	27	54	55
215	1	33	32	34	35
216	16	98	99	192	193
217	1	137	148	146	147
218	1	44	43	45	46
219	19	66	64	67	69
220	6	120	122	123	161
221	6	150	152	153	154
222	21	203	202	204	205
222	22	203	202	204	205
223	1	139	138	140	141
224	1	91	92	94	96
225	1	16	18	20	73
226	1	118	120	122	176
227	5	129	130	131	152
228	8	166	164	167	170
229	1	22	23	25	27
230	1	37	36	38	40
231	6	58	21	20	73
232	5	129	130	131	132
233	1	198	197	199	201
234	1	92	91	101	102
235	6	13	77	78	79
236	8	123	173	170	171
237	6	20	21	22	23
238	8	63	61	64	67
239	8	62	61	64	67
240	19	163	161	164	165
241	1	16	15	75	76
242	8	21	70	67	68
243	1	141	140	142	146
244	6	29	49	50	53
245	17	42	41	89	90
245	18	42	41	89	90
246	8	161	164	167	168
247	1	132	134	136	150
248	6	183	181	180	185
249	14	40	41	89	91
249	15	40	41	89	91
250	9	21	58	61	64
250	10	21	58	61	64
250	11	21	58	61	64
251	19	59	58	61	62
252	1	127	129	157	159
253	1	194	195	197	198
254	1	34	35	45	43
255	1	197	195	194	206
256	8	58	61	64	65
257	1	117	178	176	122
258	1	17	16	18	19
259	1	138	140	142	143
260	6	70	21	20	73
261	1	192	194	206	207
262	1	136	137	138	139
263	1	93	92	94	96
264	1	30	29	49	50
265	6	125	124	123	161
266	1	116	117	118	120
267	1	14	15	16	18
268	8	162	161	164	167
269	1	21	22	23	24
270	6	20	21	22	56
271	2	189	104	103	191
272	1	195	197	199	200
273	16	100	99	98	101
274	1	35	36	38	39
275	1	130	131	152	150
276	8	58	21	70	72
277	2	3	2	1	103
278	1	55	54	56	57
279	1	116	115	180	185
280	19	171	170	173	174
281	9	61	58	21	70
281	10	61	58	21	70
281	11	61	58	21	70
282	6	122	123	124	125
283	6	159	124	123	161
284	5	11	13	14	15
285	16	199	201	202	203
286	6	22	21	20	73
287	1	1	2	86	87
288	5	27	28	29	30
289	1	123	122	176	177
290	1	26	25	27	28
291	16	100	99	192	193
292	1	109	110	111	113
293	1	103	104	189	190
294	1	104	189	187	188
295	1	11	13	77	82
296	5	113	115	116	117
297	16	41	89	91	101
298	16	96	98	99	192
299	1	109	110	185	180
300	1	137	138	140	141
301	4	148	137	136	150
302	1	92	94	96	98
303	1	35	45	43	44
304	1	125	127	129	157
305	6	182	181	180	185
306	1	31	30	32	33
307	1	36	38	40	41
308	1	14	13	77	78
309	9	61	64	67	70
309	10	61	64	67	70
309	11	61	64	67	70
310	7	122	123	161	163
311	1	110	185	180	181
312	4	134	136	137	148
313	1	104	105	107	108
314	8	161	123	173	175
315	1	7	8	82	77
316	7	122	123	173	175
317	2	86	2	1	88
318	1	2	3	5	7
319	1	29	30	32	33
320	1	5	7	84	85
321	1	196	195	197	199
322	8	64	67	70	71
323	1	136	137	148	149
324	6	131	152	153	155
325	1	28	27	54	55
326	1	200	199	201	202
327	3	2	1	103	191
328	1	134	136	150	152
329	8	60	58	21	70
330	1	6	5	7	84
331	6	115	180	181	183
332	1	25	23	22	56
333	7	20	21	70	71
334	1	91	92	94	95
335	5	115	116	117	178
336	1	3	5	7	84
337	1	120	122	176	178
338	1	140	138	137	148
339	1	125	127	129	130
340	19	166	164	167	169
341	1	22	23	25	26
342	1	37	36	38	39
343	1	198	197	199	200
344	1	13	77	82	83
345	1	21	22	56	57
346	8	60	58	61	64
347	1	89	91	101	98
348	6	18	20	21	58
349	1	118	117	178	179
350	19	62	61	64	66
351	2	145	143	142	146
352	1	194	206	201	202
353	1	8	82	77	78
354	1	125	124	159	157
355	1	127	129	157	158
356	8	163	161	123	173
357	1	109	110	185	186
358	16	96	98	99	100
359	16	193	192	194	195
360	19	69	67	70	72
361	1	93	92	94	95
362	6	80	78	77	82
363	1	116	117	118	119
364	1	14	15	16	17
365	3	88	1	103	104
366	6	120	122	123	124
367	19	162	161	164	166
368	1	94	96	98	99
369	5	27	28	29	49
370	1	7	8	82	83
371	1	131	132	134	135
372	1	199	201	206	207
373	1	107	109	187	189
374	1	89	91	92	94
375	8	165	164	167	170
376	1	126	125	127	129
377	1	110	111	113	114
378	1	136	137	148	146
379	1	34	35	45	46
380	1	22	56	54	27
381	5	13	14	15	16
382	1	133	132	134	136
383	1	104	189	187	109
384	1	109	110	111	112
385	1	111	113	115	116
386	6	56	22	21	58
387	1	138	140	142	146
388	1	4	3	5	6
389	1	192	194	195	197
390	4	111	110	109	187
391	1	28	29	49	47
392	1	39	38	40	43
393	8	65	64	67	70
394	1	123	124	125	127
395	5	127	129	130	131
396	7	122	123	161	162
397	1	15	75	73	20
398	1	126	125	124	159
399	1	129	157	159	160
400	1	130	131	152	153
401	1	21	22	56	54
402	1	92	91	101	98
403	1	121	120	122	123
404	1	4	3	2	86
405	9	123	173	170	167
405	10	123	173	170	167
405	11	123	173	170	167
406	8	161	123	173	174
407	1	106	105	107	108
408	1	117	118	120	122
409	1	194	206	201	199
410	1	196	195	194	206
411	7	122	123	173	174
412	9	21	70	67	64
412	10	21	70	67	64
412	11	21	70	67	64
413	1	109	187	189	190
414	1	131	152	150	151
415	6	131	152	153	154
416	6	47	49	50	52
417	19	169	167	170	172
418	1	40	43	45	46
419	1	113	115	180	185
420	1	134	136	150	151
421	1	20	73	75	76
422	6	115	180	181	182
423	1	10	9	8	82
424	1	7	8	9	10
425	1	17	16	15	75
426	1	78	77	82	83
427	8	123	161	164	165
428	1	112	111	113	115
429	19	172	170	173	175
430	7	22	21	58	61
431	1	31	30	29	49
432	1	2	86	84	85
433	7	20	21	70	67
434	1	30	32	34	35
435	19	60	58	61	63
436	1	8	9	11	13
437	2	3	2	1	88
438	1	116	115	180	181
439	7	124	123	173	170
440	1	181	180	185	186
441	19	62	61	64	65
442	1	110	109	187	189
443	20	201	202	204	205
444	5	25	27	28	29
445	1	32	34	47	49
446	4	82	8	7	84
447	6	150	152	153	156
448	1	11	13	77	78
449	16	90	89	91	92
450	1	111	113	115	180
451	6	184	181	180	185
452	19	69	67	70	71
453	6	161	123	122	176
454	8	167	170	173	175
455	1	35	45	43	40
456	4	32	34	35	36
457	1	96	98	101	102
458	8	59	58	21	70
459	1	195	194	206	201
460	6	13	77	78	81