Title

92 atoms
95 bonds
166 angles
231 dihedrals
78 impropers

9 atom types
13 bond types
6 angle types
10 dihedral types
2 improper types
-11.90699959 88.09300041 xlo xhi
-2.862999916 97.13700008 ylo yhi
-2.732000113 97.26799989 zlo zhi
0.0 0.0 0.0 xy xz yz

Masses

1	15.99943
2	12.01078
3	1.007947
4	12.01078
5	1.007947
6	15.99943
7	15.99943
8	1.007947
9	35.4532


Pair Coeffs

1	0.16846514	3.0251065
2	0.086879315	3.4806469
3	0.015611343	2.5725815
4	0.10884061	3.3795318
5	0.015779483	2.6445434
6	0.2102061	3.0398122
7	0.20947353	2.99716
8	1.2326e-05	0.53453923
9	0.2656001	3.3075278

Bond Coeffs

1 harmonic	425.69104206635	1.362945806494
2 harmonic	300.03137914615	1.451203938761
3 harmonic	360.7852444772	1.387193227181
4 harmonic	397.2545789619	1.085358495916
5 harmonic	289.73813263395	1.498646816465
6 harmonic	264.62148576755	1.52190126495
7 harmonic	301.15400723785	1.345741232799
8 harmonic	370.04670688625	1.093899492634
9 harmonic	582.698766451	1.225198386222
10 harmonic	279.1350963404	1.454628925034
11 harmonic	385.7604595587	1.369745182308
12 harmonic	543.5267831885	0.9716763312559
13 harmonic	218.0227703685	1.746066037062


Angle Coeffs

1 harmonic	57.8982893754	126.8062420451
2 harmonic	65.09061609600001	110.3538806181
3 harmonic	34.066775159195	129.1835929926
4 harmonic	53.20531626545	116.5475862634
5 harmonic	201.41175231035	127.4691416191
6 harmonic	48.776492647595	115.6030999533


Dihedral Coeffs

1 fourier 1	3.661930099076	2	180
2 fourier 1	1.532232714475	2	180
3 fourier 1	0.457973137376	1	0
4 fourier 1	0.02664938770063	3	0
5 fourier 1	0.1155372516788	3	0
6 fourier 1	2.779853741805	2	180
7 fourier 1	0.9974165607242	2	180
8 fourier 1	0.1911926717192	3	0
9 fourier 1	0.1040663847541	3	0
10 fourier 1	0.8283030590042	2	180


Improper Coeffs

1 0.3666666666666667	-1	2
2 3.5	-1	2


Atoms

1	1	1	-0.017759999	-4.777	1.5319999	-1.724
2	1	2	0.144655	-3.6340001	0.83499998	-1.3279999
3	1	2	-0.26829699	-2.4790001	1.11	-1.942
4	1	3	0.230655	-2.447	1.85	-2.7320001
5	1	2	-0.14950199	-1.235	0.42699999	-1.548
6	1	3	0.21550401	-0.32600001	0.676	-2.0810001
7	1	2	-0.235622	-1.222	-0.47299999	-0.54299998
8	1	4	0.0073520001	0.1	-1.175	-0.169
9	1	2	-0.235622	1.207	-0.125	0.048999999
10	1	2	-0.149799	0.98199999	0.91900003	0.87599999
11	1	3	0.21550401	0.025	1.0369999	1.3710001
12	1	2	-0.238324	2.0250001	1.928	1.133
13	1	3	0.23053101	1.807	2.7539999	1.798
14	1	2	0.34748399	3.2290001	1.8200001	0.55599999
15	1	1	-0.42494699	4.2179999	2.7720001	0.80800003
16	1	2	-0.16814101	3.513	0.67900002	-0.35100001
17	1	4	-0.099769004	4.882	0.52100003	-0.963
18	1	4	-0.102793	5.8060002	-0.25	-0.027000001
19	1	5	0.066937	5.9180002	0.29100001	0.93699998
20	1	5	0.066937	6.8080001	-0.35299999	-0.495
21	1	5	0.066937	5.3979998	-1.265	0.168
22	1	5	0.102827	4.8140001	-0.016000001	-1.9349999
23	1	5	0.102827	5.323	1.518	-1.175
24	1	2	-0.227119	2.562	-0.24699999	-0.57099998
25	1	3	0.208956	2.799	-1.089	-1.205
26	1	4	-0.130071	-0.0080000004	-1.999	1.136
27	1	5	0.088859998	-0.368	-1.37	1.978
28	1	5	0.088859998	-0.69700003	-2.8629999	1.012
29	1	5	0.088859998	0.98699999	-2.4089999	1.418
30	1	4	-0.130071	0.42899999	-2.1630001	-1.313
31	1	5	0.088859998	-0.435	-2.8369999	-1.5039999
32	1	5	0.088859998	0.65399998	-1.622	-2.257
33	1	5	0.088859998	1.2970001	-2.8069999	-1.053
34	1	2	-0.226487	-2.5179999	-0.79400003	0.126
35	1	3	0.208956	-2.552	-1.522	0.92400002
36	1	2	-0.151439	-3.6659999	-0.193	-0.24600001
37	1	4	-0.1011	-4.9499998	-0.53799999	0.472
38	1	4	-0.102793	-5.2340002	0.46399999	1.587
39	1	5	0.066937	-4.4130001	0.447	2.336
40	1	5	0.066937	-6.184	0.19400001	2.096
41	1	5	0.066937	-5.3299999	1.49	1.176
42	1	5	0.102827	-5.7989998	-0.56400001	-0.242
43	1	5	0.102827	-4.8909998	-1.557	0.91399997
44	1	2	0.63007402	4.052	3.589	1.4450001
45	1	6	-0.482757	4.9970002	4.2220001	1.8839999
46	1	1	-0.017759999	-5.6799998	1.405	-1.2869999
47	1	2	0.144655	-6.079	2.102	-0.145
48	1	2	-0.26829699	-7.277	1.827	0.37900001
49	1	3	0.230655	-7.9169998	1.087	-0.086000003
50	1	2	-0.14950199	-7.7399998	2.51	1.599
51	1	3	0.21550401	-8.7220001	2.2620001	1.9809999
52	1	2	-0.235622	-6.96	3.4100001	2.233
53	1	4	0.0073520001	-7.487	4.112	3.5009999
54	1	2	-0.235622	-8.0039997	3.062	4.5050001
55	1	2	-0.110908	-7.2160001	2.0179999	4.8410001
56	1	3	0.21550401	-6.2340002	1.9	4.3990002
57	1	2	-0.39074099	-7.6620002	1.0089999	5.8189998
58	1	3	0.236194	-7.006	0.183	6.0609999
59	1	2	0.32440501	-8.8620005	1.117	6.4050002
60	1	7	-0.63707799	-9.2779999	0.16500001	7.336
61	1	8	0.44032699	-8.6960001	-0.62400001	7.5929999
62	1	2	-0.29676601	-9.7489996	2.2579999	6.0640001
63	1	4	-0.087797999	-11.079	2.4159999	6.757
64	1	4	-0.102793	-10.918	3.187	8.0640001
65	1	5	0.066937	-10.232	2.6459999	8.75
66	1	5	0.066937	-11.907	3.2909999	8.5579996
67	1	5	0.066937	-10.512	4.2020001	7.8639998
68	1	5	0.102827	-11.799	2.9530001	6.1009998
69	1	5	0.102827	-11.519	1.419	6.9710002
70	1	2	-0.189004	-9.3310003	3.184	5.1820002
71	1	3	0.208956	-9.9759998	4.026	4.974
72	1	4	-0.130071	-6.3979998	4.9369998	4.2270002
73	1	5	0.088859998	-5.5139999	4.3070002	4.4679999
74	1	5	0.088859998	-6.0669999	5.8000002	3.6099999
75	1	5	0.088859998	-6.7940001	5.3460002	5.1820002
76	1	4	-0.130071	-8.5889997	5.0999999	3.049
77	1	5	0.088859998	-8.2019997	5.7740002	2.2539999
78	1	5	0.088859998	-9.4689999	4.559	2.6389999
79	1	5	0.088859998	-8.9239998	5.744	3.891
80	1	2	-0.226487	-5.631	3.7309999	1.632
81	1	3	0.208956	-4.9850001	4.4590001	2.1010001
82	1	2	-0.151439	-5.21	3.131	0.50099999
83	1	4	-0.1011	-3.8510001	3.4749999	-0.059999999
84	1	4	-0.102793	-2.8	2.474	0.41
85	1	5	0.066937	-2.723	2.4909999	1.518
86	1	5	0.066937	-1.812	2.743	-0.018999999
87	1	5	0.066937	-3.063	1.447	0.079000004
88	1	5	0.102827	-3.8829999	3.5009999	-1.168
89	1	5	0.102827	-3.5409999	4.494	0.26100001
90	1	2	0.469262	3.039	3.8699999	1.7130001
91	1	6	-0.553294	2.092	3.2939999	1.206
92	1	9	-0.07406	2.7650001	5.1529999	2.8770001

Bonds

1	1	1	2
2	2	1	46
3	3	2	3
4	3	2	36
5	4	3	4
6	3	3	5
7	4	5	6
8	3	5	7
9	5	7	8
10	3	7	34
11	5	8	9
12	6	8	26
13	6	8	30
14	3	9	10
15	3	9	24
16	4	10	11
17	3	10	12
18	4	12	13
19	3	12	14
20	1	14	15
21	3	14	16
22	7	15	44
23	5	16	17
24	3	16	24
25	6	17	18
26	8	17	22
27	8	17	23
28	8	18	19
29	8	18	20
30	8	18	21
31	4	24	25
32	8	26	27
33	8	26	28
34	8	26	29
35	8	30	31
36	8	30	32
37	8	30	33
38	4	34	35
39	3	34	36
40	5	36	37
41	6	37	38
42	8	37	42
43	8	37	43
44	8	38	39
45	8	38	40
46	8	38	41
47	9	44	45
48	10	44	90
49	1	46	47
50	3	47	48
51	3	47	82
52	4	48	49
53	3	48	50
54	4	50	51
55	3	50	52
56	5	52	53
57	3	52	80
58	5	53	54
59	6	53	72
60	6	53	76
61	3	54	55
62	3	54	70
63	4	55	56
64	3	55	57
65	4	57	58
66	3	57	59
67	11	59	60
68	3	59	62
69	12	60	61
70	5	62	63
71	3	62	70
72	6	63	64
73	8	63	68
74	8	63	69
75	8	64	65
76	8	64	66
77	8	64	67
78	4	70	71
79	8	72	73
80	8	72	74
81	8	72	75
82	8	76	77
83	8	76	78
84	8	76	79
85	4	80	81
86	3	80	82
87	5	82	83
88	6	83	84
89	8	83	88
90	8	83	89
91	8	84	85
92	8	84	86
93	8	84	87
94	9	90	91
95	13	90	92

Angles

1	6	65	64	66
2	4	16	17	18
3	4	8	26	29
4	1	60	59	62
5	4	36	37	43
6	1	14	16	17
7	4	36	37	42
8	3	3	5	6
9	1	1	2	3
10	4	84	83	88
11	6	27	26	28
12	1	8	9	10
13	4	53	72	75
14	1	8	7	34
15	2	59	60	61
16	1	50	52	53
17	4	62	63	69
18	1	47	82	83
19	1	53	54	70
20	4	37	38	41
21	3	7	34	35
22	4	84	83	89
23	3	54	55	56
24	1	54	55	57
25	3	2	3	4
26	6	19	18	20
27	4	83	84	87
28	4	82	83	89
29	3	54	70	71
30	1	1	2	36
31	4	52	53	72
32	3	51	50	52
33	4	7	8	26
34	3	4	3	5
35	4	83	84	86
36	6	42	37	43
37	4	26	8	30
38	1	91	90	92
39	1	59	62	63
40	4	18	17	22
41	6	77	76	78
42	1	7	34	36
43	2	14	15	44
44	1	17	16	24
45	3	52	80	81
46	4	54	53	72
47	1	47	48	50
48	1	80	82	83
49	6	65	64	67
50	6	66	64	67
51	1	14	16	24
52	1	50	52	80
53	1	53	52	80
54	4	64	63	68
55	4	37	38	39
56	1	10	12	14
57	1	2	3	5
58	1	48	50	52
59	4	8	30	31
60	1	12	14	16
61	6	20	18	21
62	4	17	18	20
63	4	52	53	76
64	1	3	2	36
65	6	39	38	40
66	3	9	10	11
67	4	53	76	77
68	1	2	36	34
69	1	53	54	55
70	6	31	30	32
71	6	32	30	33
72	6	27	26	29
73	4	62	63	64
74	1	48	47	82
75	1	59	62	70
76	4	54	53	76
77	1	47	82	80
78	3	9	24	25
79	3	81	80	82
80	1	9	10	12
81	1	57	59	60
82	6	31	30	33
83	6	22	17	23
84	1	46	47	82
85	1	55	54	70
86	3	48	50	51
87	4	63	64	66
88	4	16	17	22
89	4	17	18	19
90	4	8	26	27
91	1	55	57	59
92	3	62	70	71
93	4	83	84	85
94	6	19	18	21
95	4	63	64	67
96	3	55	57	58
97	1	3	5	7
98	6	77	76	79
99	4	18	17	23
100	6	88	83	89
101	3	16	24	25
102	4	72	53	76
103	4	52	53	54
104	3	6	5	7
105	1	63	62	70
106	4	9	8	30
107	1	45	44	90
108	1	2	36	37
109	3	13	12	14
110	1	34	36	37
111	2	1	46	47
112	4	64	63	69
113	6	74	72	75
114	6	39	38	41
115	1	57	59	62
116	3	56	55	57
117	4	8	30	32
118	2	2	1	46
119	4	62	63	68
120	4	53	76	78
121	6	28	26	29
122	3	10	12	13
123	4	63	64	65
124	1	12	14	15
125	4	17	18	21
126	1	5	7	8
127	1	54	70	62
128	6	68	63	69
129	6	73	72	75
130	1	15	14	16
131	4	36	37	38
132	1	10	9	24
133	4	37	38	40
134	6	78	76	79
135	1	44	90	91
136	3	49	48	50
137	4	82	83	88
138	4	38	37	43
139	6	85	84	87
140	4	8	30	33
141	3	47	48	49
142	4	38	37	42
143	6	86	84	87
144	1	5	7	34
145	4	53	76	79
146	6	73	72	74
147	4	82	83	84
148	3	35	34	36
149	3	58	57	59
150	1	52	80	82
151	4	53	72	74
152	6	40	38	41
153	4	9	8	26
154	6	85	84	86
155	4	16	17	23
156	4	8	26	28
157	3	11	10	12
158	1	44	90	92
159	5	15	44	45
160	4	53	72	73
161	1	8	9	24
162	4	7	8	9
163	1	15	44	90
164	1	46	47	48
165	4	7	8	30
166	1	9	24	16

Dihedrals

1	1	60	59	62	70
2	8	40	38	37	42
3	4	10	9	8	26
4	1	12	14	16	17
5	1	54	70	62	63
6	4	69	63	62	70
7	4	64	63	62	70
8	5	82	83	84	87
9	5	9	8	30	32
10	4	5	7	8	9
11	4	72	53	52	80
12	2	36	2	1	46
13	1	5	7	34	36
14	1	55	57	59	62
15	5	16	17	18	19
16	2	16	14	15	44
17	1	11	10	12	14
18	1	3	2	36	34
19	1	53	54	55	56
20	4	5	7	8	30
21	1	13	12	14	16
22	4	47	82	83	89
23	1	12	10	9	24
24	5	7	8	30	32
25	4	59	62	63	69
26	5	82	83	84	86
27	8	86	84	83	88
28	1	53	54	70	71
29	4	7	8	9	24
30	5	36	37	38	39
31	8	67	64	63	68
32	4	14	16	17	22
33	4	70	54	53	76
34	1	8	9	10	11
35	1	55	54	70	62
36	1	35	34	36	37
37	4	24	9	8	30
38	5	9	8	30	33
39	1	46	47	48	49
40	1	1	2	36	37
41	10	61	60	59	62
42	1	10	9	24	25
43	4	54	53	52	80
44	4	59	62	63	64
45	1	56	55	57	59
46	4	76	53	52	80
47	4	9	8	7	34
48	8	41	38	37	43
49	2	14	15	44	45
50	8	41	38	37	42
51	8	86	84	83	89
52	5	7	8	30	33
53	4	80	82	83	88
54	1	53	52	80	81
55	8	85	84	83	88
56	6	14	15	44	90
57	5	62	63	64	65
58	1	15	14	16	17
59	4	22	17	16	24
60	1	56	55	57	58
61	5	9	8	26	28
62	4	7	8	9	10
63	4	14	16	17	23
64	8	67	64	63	69
65	1	50	52	80	82
66	9	26	8	30	32
67	1	3	5	7	8
68	1	8	9	10	12
69	2	1	46	47	82
70	5	54	53	76	77
71	1	59	62	70	71
72	1	8	9	24	25
73	1	55	54	70	71
74	9	72	53	76	78
75	4	80	82	83	84
76	1	8	7	34	35
77	5	7	8	26	28
78	1	49	48	47	82
79	5	62	63	64	67
80	9	29	26	8	30
81	1	47	82	80	52
82	5	52	53	76	79
83	5	16	17	18	21
84	4	5	7	8	26
85	4	30	8	7	34
86	4	80	82	83	89
87	5	9	8	26	29
88	8	65	64	63	69
89	1	3	2	36	37
90	5	52	53	72	73
91	1	2	3	5	7
92	5	54	53	76	78
93	8	19	18	17	23
94	4	24	9	8	26
95	9	72	53	76	79
96	1	54	55	57	59
97	5	7	8	26	29
98	1	57	55	54	70
99	7	15	44	90	91
100	1	56	55	54	70
101	9	73	72	53	76
102	4	23	17	16	24
103	4	55	54	53	72
104	1	49	48	50	51
105	1	54	55	57	58
106	1	51	50	52	80
107	3	2	1	46	47
108	1	2	36	34	35
109	1	10	12	14	15
110	7	45	44	90	92
111	4	50	52	53	54
112	5	52	53	72	75
113	4	34	36	37	38
114	1	15	14	16	24
115	1	81	80	82	83
116	7	15	44	90	92
117	1	48	50	52	53
118	9	74	72	53	76
119	1	9	24	16	14
120	1	9	24	16	17
121	1	2	3	5	6
122	1	2	36	34	7
123	1	63	62	70	71
124	1	52	80	82	83
125	5	52	53	72	74
126	1	58	57	59	60
127	4	2	36	37	38
128	1	7	34	36	37
129	1	12	14	16	24
130	8	40	38	37	43
131	8	85	84	83	89
132	8	21	18	17	22
133	1	9	10	12	13
134	5	52	53	76	77
135	1	3	5	7	34
136	4	52	53	54	55
137	4	14	16	17	18
138	5	36	37	38	40
139	4	55	54	53	76
140	4	52	53	54	70
141	4	26	8	7	34
142	8	20	18	17	22
143	7	45	44	90	91
144	9	26	8	30	33
145	1	46	47	48	50
146	1	50	48	47	82
147	1	1	2	3	4
148	8	39	38	37	43
149	1	8	7	34	36
150	1	47	82	80	81
151	8	39	38	37	42
152	1	48	47	82	83
153	1	6	5	7	8
154	1	47	48	50	52
155	1	10	9	24	16
156	1	46	47	82	83
157	5	9	8	30	31
158	9	75	72	53	76
159	1	4	3	5	7
160	4	70	54	53	72
161	4	68	63	62	70
162	5	82	83	84	85
163	1	54	70	62	59
164	9	27	26	8	30
165	1	5	7	34	35
166	1	57	59	62	63
167	2	1	46	47	48
168	8	66	64	63	68
169	1	53	54	70	62
170	4	34	36	37	43
171	4	59	62	63	68
172	4	34	36	37	42
173	5	7	8	30	31
174	5	54	53	76	79
175	1	6	5	7	34
176	2	3	2	1	46
177	1	11	10	12	13
178	1	11	10	9	24
179	8	87	84	83	88
180	1	48	50	52	80
181	1	13	12	14	15
182	1	58	57	59	62
183	5	54	53	72	73
184	4	50	52	53	72
185	1	10	12	14	16
186	1	8	9	24	16
187	4	2	36	37	43
188	4	47	82	83	84
189	4	10	9	8	30
190	4	2	36	37	42
191	1	60	59	62	63
192	1	53	52	80	82
193	1	5	3	2	36
194	8	66	64	63	69
195	1	53	54	55	57
196	10	57	59	60	61
197	1	1	2	3	5
198	1	47	48	50	51
199	1	55	57	59	60
200	1	4	3	5	6
201	8	87	84	83	89
202	5	9	8	26	27
203	1	1	2	36	34
204	9	26	8	30	31
205	9	72	53	76	77
206	1	4	3	2	36
207	1	9	10	12	14
208	5	16	17	18	20
209	1	50	52	80	81
210	5	54	53	72	75
211	1	57	59	62	70
212	5	7	8	26	27
213	1	17	16	24	25
214	5	36	37	38	41
215	8	21	18	17	23
216	5	52	53	76	78
217	1	51	50	52	53
218	4	50	52	53	76
219	4	18	17	16	24
220	9	28	26	8	30
221	2	12	14	15	44
222	5	54	53	72	74
223	8	20	18	17	23
224	1	49	48	50	52
225	1	48	47	82	80
226	1	14	16	24	25
227	5	62	63	64	66
228	8	65	64	63	68
229	4	47	82	83	88
230	8	19	18	17	22
231	1	46	47	82	80

Impropers

5	1	50	52	48	51
6	1	5	3	6	7
9	1	9	8	10	24
17	1	54	53	55	70
21	1	47	46	48	82
23	2	44	45	90	15
31	1	5	7	3	6
48	1	54	70	53	55
49	1	70	71	54	62
50	1	7	34	5	8
68	1	70	54	62	71
70	1	50	51	52	48
71	1	36	2	34	37
80	1	9	10	24	8
83	1	62	70	59	63
85	1	57	59	55	58
93	1	82	80	83	47
94	1	70	62	71	54
98	1	9	24	8	10
104	1	59	57	60	62
108	1	7	5	8	34
109	1	12	14	10	13
111	1	16	24	14	17
126	1	55	56	57	54
128	1	52	53	80	50
131	1	24	9	16	25
132	1	12	10	13	14
135	1	62	59	63	70
157	2	44	90	15	45
162	1	3	4	5	2
166	1	3	5	2	4
170	1	59	62	57	60
177	1	80	82	52	81
186	1	47	48	82	46
194	1	48	49	50	47
200	1	14	12	15	16
207	1	57	58	59	55
212	1	80	81	82	52
223	1	36	34	37	2
229	1	80	52	81	82
238	1	5	6	7	3
254	1	57	55	58	59
264	1	55	57	54	56
288	1	7	8	34	5
290	1	34	36	7	35
292	1	54	55	70	53
301	1	52	80	50	53
311	1	59	60	62	57
315	1	14	16	12	15
316	1	47	82	46	48
343	1	52	50	53	80
346	1	14	15	16	12
352	1	48	47	49	50
353	1	2	1	3	36
355	2	44	15	45	90
360	1	16	17	24	14
367	1	50	48	51	52
374	1	10	12	9	11
377	1	82	83	47	80
391	1	34	35	36	7
393	1	12	13	14	10
401	1	90	44	91	92
406	1	24	25	9	16
412	1	2	3	36	1
417	1	10	9	11	12
423	1	34	7	35	36
425	1	48	50	47	49
437	1	16	14	17	24
439	1	36	37	2	34
443	1	62	63	70	59
456	1	2	36	1	3
465	1	90	91	92	44
469	1	90	92	44	91
470	1	55	54	56	57
472	1	10	11	12	9
482	1	82	47	80	83
485	1	24	16	25	9
490	1	3	2	4	5
