Title

405 atoms
404 bonds
743 angles
1263 dihedrals
102 impropers

11 atom types
14 bond types
10 angle types
36 dihedral types
3 improper types
-10.31999969 89.68000031 xlo xhi
-4.072999954 95.92700005 ylo yhi
-8.30300045 91.69699955 zlo zhi
0.0 0.0 0.0 xy xz yz

Masses

1	15.99943
2	12.01078
3	14.00672
4	12.01078
5	1.007947
6	1.007947
7	1.007947
8	15.99943
9	12.01078
10	15.99943
11	1.007947


Pair Coeffs

1	0.2102061	3.0398122
2	0.086879315	3.4806469
3	0.16769152	3.206876
4	0.10884061	3.3795318
5	0.014090815	1.1034277
6	0.016409246	2.5832257
7	0.015779483	2.6445434
8	0.16846514	3.0251065
9	0.21	3.3996695
10	0.20947353	2.99716
11	1.2326e-05	0.53453923

Bond Coeffs

1 harmonic	582.698766451	1.225198386222
2 harmonic	492.76746816345	1.381897776683
3 harmonic	301.15400723785	1.345741232799
4 harmonic	352.0565580496	1.450098586273
5 harmonic	505.144496193	1.019481865027
6 harmonic	264.62148576755	1.52190126495
7 harmonic	370.04670688625	1.093899492634
8 harmonic	279.1350963404	1.454628925034
9 harmonic	366.7408841747	1.425895053732
10 harmonic	366.34047229585	1.464762957261
11 harmonic	300.03137914615	1.451203938761
12 harmonic	602.81384337	1.196112346392
13 harmonic	329.96998057905	1.427343958716
14 harmonic	543.5267831885	0.9716763312559


Angle Coeffs

1 harmonic	57.8982893754	126.8062420451
2 harmonic	201.41175231035	127.4691416191
3 harmonic	55.42182150775	117.3465570514
4 harmonic	63.44422595415	115.5071327674
5 harmonic	65.09061609600001	110.3538806181
6 harmonic	53.20531626545	116.5475862634
7 harmonic	48.776492647595	115.6030999533
8 harmonic	49.015990027215	114.8414599994
9 harmonic	55.07882548015	112.8714009681
10 harmonic	33.56981613361	180


Dihedral Coeffs

1 fourier 1	1.809047390003	2	180
2 fourier 1	-0.04816277792592	1	0
3 fourier 1	0.4860993122944	2	180
4 fourier 1	0.8916986138746	1	0
5 fourier 1	1.163809172478	2	180
6 fourier 1	0.1679186987369	1	180
7 fourier 1	-0.1488678166443	4	180
8 fourier 1	-0.1230328948768	3	180
9 fourier 1	0.2939295466901	2	0
10 fourier 1	-0.3024127022865	1	0
11 fourier 1	0.182238503271	2	0
12 fourier 1	0.02972342374561	3	0
13 fourier 1	0.1918272375143	3	0
14 fourier 1	0.9202179876409	1	180
15 fourier 1	0.0473758381877	3	0
16 fourier 1	2.779853741805	2	180
17 fourier 1	0.1155372516788	3	0
18 fourier 1	0.09223874044423	3	0
19 fourier 1	0.3159935921949	2	180
20 fourier 1	0.3247796806857	1	180
21 fourier 1	0.1040663847541	3	0
22 fourier 1	3.101948770557	2	180
23 fourier 1	-0.4252153282372	1	0
24 fourier 1	0.9974165607242	2	180
25 fourier 1	2.348375642009	2	180
26 fourier 1	1.256156174911	1	0
27 fourier 1	0.1911926717192	3	0
28 fourier 1	0.2810888471023	3	0
29 fourier 1	0.05324557188047	2	180
30 fourier 1	0.2036670163956	3	0
31 fourier 1	0.457973137376	1	0
32 fourier 1	-1.382973039546	1	0
33 fourier 1	0	1	0
34 fourier 1	0.3445382149273	3	0
35 fourier 1	0.1364556373303	1	0
36 fourier 1	0.3026390167484	3	0


Improper Coeffs

1 3.5	-1	2
2 0.3333333333333333	-1	2
3 0.3666666666666667	-1	2


Atoms

1	1	1	-0.607099	-3.5880001	1.278	1.614
2	1	2	0.78586298	-3.471	1.151	0.366
3	1	3	-0.46520799	-2.415	0.368	-0.19499999
4	1	4	0.024101	-1.444	-0.32800001	0.64999998
5	1	4	-0.144912	-0.366	-1.0369999	-0.184
6	1	4	-0.146213	0.54799998	-0.079000004	-0.97399998
7	1	4	0.029959001	1.441	0.80599999	-0.090000004
8	1	3	-0.52157998	2.2550001	0.0060000001	0.824
9	1	2	0.54352999	3.3870001	-0.755	0.391
10	1	1	-0.682845	3.7420001	-0.75599998	-0.81800002
11	1	5	0.31987101	2.036	0.030999999	1.845
12	1	6	0.054435	2.1029999	1.423	-0.73400003
13	1	6	0.054435	0.81400001	1.513	0.493
14	1	7	0.089501001	1.1950001	-0.68800002	-1.641
15	1	7	0.089501001	-0.063000001	0.57300001	-1.633
16	1	7	0.089501001	-0.866	-1.724	-0.90200001
17	1	7	0.089501001	0.25099999	-1.6720001	0.48699999
18	1	6	0.058015	-0.977	0.38800001	1.358
19	1	6	0.058015	-1.98	-1.091	1.255
20	1	5	0.326453	-2.3729999	0.28200001	-1.2359999
21	1	8	-0.493231	-7.5780001	3.7260001	-1.521
22	1	4	0.088748999	-6.546	3.171	-0.74900001
23	1	4	-0.019464999	-6.506	1.6289999	-0.90799999
24	1	4	0.088748999	-5.3969998	1.036	0.003
25	1	8	-0.493231	-4.151	1.622	-0.25999999
26	1	6	0.093181998	-5.3299999	-0.064999998	-0.155
27	1	6	0.093181998	-5.6570001	1.21	1.072
28	1	4	0.055167001	-6.2750001	1.221	-2.3929999
29	1	3	-0.72416699	-4.9970002	1.768	-2.9159999
30	1	4	0.080353998	-5.2259998	2.7249999	-4.0120001
31	1	6	0.059096001	-5.7129998	2.23	-4.882
32	1	6	0.059096001	-4.2620001	3.1700001	-4.3390002
33	1	6	0.059096001	-5.8699999	3.5599999	-3.664
34	1	4	0.080353998	-4.1009998	0.69400001	-3.375
35	1	6	0.059096001	-3.8889999	-0.0089999996	-2.5420001
36	1	6	0.059096001	-3.1270001	1.12	-3.701
37	1	6	0.059096001	-4.552	0.12899999	-4.2210002
38	1	6	0.082769997	-6.3039999	0.108	-2.4619999
39	1	6	0.082769997	-7.145	1.561	-3.0020001
40	1	4	-0.165894	-7.8600001	1.0420001	-0.44600001
41	1	7	0.077573001	-7.8460002	-0.068000004	-0.50099999
42	1	7	0.077573001	-8.6920004	1.405	-1.087
43	1	7	0.077573001	-8.0799999	1.334	0.60399997
44	1	6	0.093181998	-6.7080002	3.4330001	0.32100001
45	1	6	0.093181998	-5.5749998	3.6170001	-1.061
46	1	1	-0.607099	-6.2820001	7.6609998	5.283
47	1	2	0.78586298	-6.993	8.4940004	4.6620002
48	1	3	-0.46520799	-7.777	8.0939999	3.5350001
49	1	4	0.024101	-7.7969999	6.7059999	3.0699999
50	1	4	-0.144912	-8.6490002	6.5409999	1.802
51	1	4	-0.144912	-8.0819998	7.2680001	0.56599998
52	1	4	0.024101	-6.7470002	6.698	0.061000001
53	1	3	-0.46520799	-6.8460002	5.2670002	-0.22499999
54	1	2	0.78586298	-7.5339999	4.75	-1.368
55	1	1	-0.607099	-8.0819998	5.5229998	-2.198
56	1	5	0.326453	-6.3509998	4.5939999	0.40200001
57	1	6	0.058015	-6.4380002	7.2399998	-0.85900003
58	1	6	0.058015	-5.9520001	6.8720002	0.81599998
59	1	7	0.089501001	-8.8319998	7.2010002	-0.25099999
60	1	7	0.089501001	-7.9499998	8.3479996	0.787
61	1	7	0.089501001	-9.6700001	6.9299998	2.006
62	1	7	0.089501001	-8.7589998	5.4580002	1.579
63	1	6	0.058015	-6.7610002	6.3520002	2.8889999
64	1	6	0.058015	-8.2299995	6.0679998	3.8710001
65	1	5	0.326453	-8.3620005	8.8210001	3.0650001
66	1	8	-0.493231	-6.381	12.894	7.3670001
67	1	4	0.088748999	-6.3080001	11.611	6.8049998
68	1	4	-0.019464999	-7.6960001	10.919	6.8270001
69	1	4	0.088748999	-7.5739999	9.4799995	6.257
70	1	8	-0.493231	-7.0100002	9.4840002	4.974
71	1	6	0.093181998	-8.5810003	9.0039997	6.2189999
72	1	6	0.093181998	-6.9330001	8.8640003	6.9289999
73	1	4	0.055167001	-8.7469997	11.742	6.0250001
74	1	3	-0.72416699	-8.342	11.91	4.6059999
75	1	4	0.080353998	-8.1070004	13.325	4.2740002
76	1	6	0.059096001	-9.0389996	13.923	4.3860002
77	1	6	0.059096001	-7.7399998	13.417	3.2290001
78	1	6	0.059096001	-7.323	13.75	4.9349999
79	1	4	0.080353998	-9.3459997	11.345	3.6900001
80	1	6	0.059096001	-9.4969997	10.266	3.9059999
81	1	6	0.059096001	-8.993	11.422	2.6389999
82	1	6	0.059096001	-10.32	11.874	3.7869999
83	1	6	0.082769997	-9.7349997	11.231	6.112
84	1	6	0.082769997	-8.8970003	12.727	6.526
85	1	4	-0.165894	-8.1780005	10.808	8.2919998
86	1	7	0.077573001	-9.1499996	10.272	8.3459997
87	1	7	0.077573001	-8.3170004	11.814	8.7440004
88	1	7	0.077573001	-7.4400001	10.252	8.9090004
89	1	6	0.093181998	-5.5760002	11	7.382
90	1	6	0.093181998	-5.9310002	11.689	5.7610002
91	1	1	-0.607099	0.56800002	9.2519999	8.7480001
92	1	2	0.78586298	0.85799998	10.437	9.0609999
93	1	3	-0.46520799	-0.168	11.397	9.3260002
94	1	4	0.024101	-1.586	11.041	9.2600002
95	1	4	-0.144912	-2.4920001	12.258	9.5080004
96	1	4	-0.144912	-2.3989999	13.343	8.4169998
97	1	4	0.024101	-2.928	12.897	7.0440001
98	1	3	-0.46520799	-4.3060002	12.415	7.1290002
99	1	2	0.78586298	-5.4239998	13.29	7.309
100	1	1	-0.607099	-5.2639999	14.537	7.3920002
101	1	5	0.326453	-4.4899998	11.395	6.9990001
102	1	6	0.058015	-2.8759999	13.75	6.3330002
103	1	6	0.058015	-2.279	12.097	6.6300001
104	1	7	0.089501001	-2.9809999	14.227	8.7550001
105	1	7	0.089501001	-1.347	13.679	8.3030005
106	1	7	0.089501001	-2.217	12.712	10.485
107	1	7	0.089501001	-3.5439999	11.912	9.6009998
108	1	6	0.058015	-1.816	10.582	8.276
109	1	6	0.058015	-1.798	10.279	10.041
110	1	5	0.326453	0.127	12.362	9.5979996
111	1	8	-0.493231	6.0539999	10.413	9.2939997
112	1	4	0.088748999	4.691	10.147	9.0939999
113	1	4	-0.019464999	3.895	10.329	10.413
114	1	4	0.088748999	2.4030001	9.9689999	10.179
115	1	8	-0.493231	1.854	10.718	9.1280003
116	1	6	0.093181998	1.8200001	10.156	11.111
117	1	6	0.093181998	2.312	8.8859997	9.9329996
118	1	4	0.055167001	4.033	11.781	10.958
119	1	3	-0.72416699	3.5320001	12.781	9.9799995
120	1	4	0.080353998	4.6100001	13.669	9.5139999
121	1	6	0.059096001	5.0310001	14.265	10.354
122	1	6	0.059096001	4.2249999	14.361	8.7340002
123	1	6	0.059096001	5.4239998	13.074	9.0500002
124	1	4	0.080353998	2.437	13.585	10.546
125	1	6	0.059096001	1.601	12.925	10.861
126	1	6	0.059096001	2.0339999	14.28	9.7770004
127	1	6	0.059096001	2.7839999	14.174	11.424
128	1	6	0.082769997	3.4860001	11.847	11.928
129	1	6	0.082769997	5.099	11.969	11.225
130	1	4	-0.165894	4.4549999	9.3549995	11.475
131	1	7	0.077573001	3.872	9.4250002	12.419
132	1	7	0.077573001	5.5159998	9.5869999	11.71
133	1	7	0.077573001	4.4029999	8.3050003	11.114
134	1	6	0.093181998	4.572	9.1029997	8.7259998
135	1	6	0.093181998	4.296	10.828	8.3070002
136	1	1	-0.607099	4.723	4.7090001	3.8940001
137	1	2	0.78586298	5.9349999	4.967	3.668
138	1	3	-0.46520799	6.7249999	5.6719999	4.6290002
139	1	4	0.024101	6.1669998	6.105	5.9109998
140	1	4	-0.144912	7.1859999	6.9070001	6.7360001
141	1	4	-0.144912	7.5819998	8.257	6.1040001
142	1	4	0.024101	6.4359999	9.2790003	6.0380001
143	1	3	-0.46520799	5.8509998	9.5170002	7.3579998
144	1	2	0.78586298	6.5120001	10.278	8.3730001
145	1	1	-0.607099	7.6420002	10.795	8.1630001
146	1	5	0.326453	4.888	9.1619997	7.552
147	1	6	0.058015	6.8169999	10.236	5.6230001
148	1	6	0.058015	5.6490002	8.9200001	5.342
149	1	7	0.089501001	8.4139996	8.6890001	6.6999998
150	1	7	0.089501001	7.9770002	8.0959997	5.079
151	1	7	0.089501001	8.1029997	6.2919998	6.8629999
152	1	7	0.089501001	6.7729998	7.079	7.7529998
153	1	6	0.058015	5.2490001	6.7059999	5.7410002
154	1	6	0.058015	5.8720002	5.2059999	6.493
155	1	5	0.326453	7.7290001	5.8470001	4.4000001
156	1	8	-0.493231	6.842	2.701	-0.92400002
157	1	4	0.088748999	6.3039999	3.26	0.244
158	1	4	-0.019464999	6.9910002	2.6730001	1.505
159	1	4	0.088748999	6.3340001	3.2609999	2.783
160	1	8	-0.493231	6.3629999	4.6630001	2.7739999
161	1	6	0.093181998	6.8660002	2.885	3.6860001
162	1	6	0.093181998	5.2740002	2.925	2.848
163	1	4	0.055167001	8.5220003	2.954	1.493
164	1	3	-0.72416699	8.809	4.4109998	1.452
165	1	4	0.080353998	9.5030003	4.7919998	0.20999999
166	1	6	0.059096001	10.496	4.2940001	0.13600001
167	1	6	0.059096001	9.6450005	5.8930001	0.17299999
168	1	6	0.059096001	8.8920002	4.5110002	-0.67299998
169	1	4	0.080353998	9.6059999	4.835	2.615
170	1	6	0.059096001	9.0690002	4.5900002	3.556
171	1	6	0.059096001	9.7519999	5.9369998	2.598
172	1	6	0.059096001	10.6	4.335	2.6240001
173	1	6	0.082769997	8.9759998	2.473	2.3900001
174	1	6	0.082769997	8.9829998	2.4230001	0.62699997
175	1	4	-0.165894	6.777	1.142	1.525
176	1	7	0.077573001	7.2160001	0.69700003	2.444
177	1	7	0.077573001	7.2579999	0.65899998	0.648
178	1	7	0.077573001	5.6929998	0.89399999	1.505
179	1	6	0.093181998	5.211	3.0480001	0.28099999
180	1	6	0.093181998	6.4299998	4.3649998	0.214
181	1	1	-0.607099	-0.92000002	4.381	-1.538
182	1	2	0.78586298	-0.62300003	4.2010002	-2.7490001
183	1	3	-0.46520799	0.58099997	3.5209999	-3.1140001
184	1	4	0.024101	1.501	2.9960001	-2.105
185	1	4	-0.144912	2.7550001	2.378	-2.7420001
186	1	4	-0.144912	3.6530001	3.3940001	-3.4749999
187	1	4	0.024101	4.3130002	4.4299998	-2.55
188	1	3	-0.46520799	5.0819998	3.7869999	-1.485
189	1	2	0.78586298	6.3410001	3.1459999	-1.716
190	1	1	-0.607099	6.8530002	3.1199999	-2.8659999
191	1	5	0.326453	4.7259998	3.8410001	-0.505
192	1	6	0.058015	4.9819999	5.086	-3.1470001
193	1	6	0.058015	3.5369999	5.086	-2.1040001
194	1	7	0.089501001	4.4489999	2.8329999	-4.0100002
195	1	7	0.089501001	3.0669999	3.9300001	-4.2509999
196	1	7	0.089501001	2.437	1.597	-3.467
197	1	7	0.089501001	3.3440001	1.8609999	-1.954
198	1	6	0.058015	1.785	3.802	-1.396
199	1	6	0.058015	0.97799999	2.2090001	-1.521
200	1	5	0.326453	0.77200001	3.3829999	-4.132
201	1	8	-0.493231	-4.7020001	6.1479998	-5.322
202	1	4	0.088748999	-3.7279999	5.7670002	-4.388
203	1	4	-0.019464999	-3.4920001	4.2340002	-4.4299998
204	1	4	0.088748999	-2.457	3.832	-3.345
205	1	8	-0.493231	-1.261	4.5500002	-3.4879999
206	1	6	0.093181998	-2.2449999	2.74	-3.415
207	1	6	0.093181998	-2.8770001	4.033	-2.3329999
208	1	4	0.055167001	-3.0190001	3.776	-5.8410001
209	1	3	-0.72416699	-1.752	4.4439998	-6.2350001
210	1	4	0.080353998	-1.938	5.3039999	-7.4159999
211	1	6	0.059096001	-2.244	4.7059999	-8.3030005
212	1	6	0.059096001	-0.995	5.8439999	-7.6479998
213	1	6	0.059096001	-2.7130001	6.072	-7.2129998
214	1	4	0.080353998	-0.68599999	3.4630001	-6.4980001
215	1	6	0.059096001	-0.50999999	2.8380001	-5.5970001
216	1	6	0.059096001	0.26800001	3.9860001	-6.7259998
217	1	6	0.059096001	-0.95300001	2.8010001	-7.3520002
218	1	6	0.082769997	-2.9119999	2.6659999	-5.8330002
219	1	6	0.082769997	-3.8310001	3.974	-6.5780001
220	1	4	-0.165894	-4.8210001	3.5139999	-4.1040001
221	1	7	0.077573001	-4.6750002	2.4130001	-4.0780001
222	1	7	0.077573001	-5.5949998	3.7379999	-4.8699999
223	1	7	0.077573001	-5.2119999	3.835	-3.1140001
224	1	6	0.093181998	-4.0609999	6.066	-3.368
225	1	6	0.093181998	-2.78	6.3099999	-4.6040001
226	1	1	-0.607099	-4.789	10.584	1.294
227	1	2	0.78586298	-5.5	11.289	0.52999997
228	1	3	-0.46520799	-6.073	10.734	-0.65700001
229	1	4	0.024101	-5.8740001	9.3299999	-1.02
230	1	4	-0.144912	-6.5229998	8.993	-2.3710001
231	1	4	-0.144912	-5.881	9.7130003	-3.5739999
232	1	4	0.024101	-4.434	9.283	-3.8629999
233	1	3	-0.46520799	-4.3309999	7.8369999	-4.0560002
234	1	2	0.78586298	-4.7950001	7.178	-5.2389998
235	1	1	-0.607099	-5.3099999	7.8309999	-6.1849999
236	1	5	0.326453	-3.8510001	7.2649999	-3.326
237	1	6	0.058015	-4.0669999	9.8059998	-4.7719998
238	1	6	0.058015	-3.773	9.5939999	-3.027
239	1	7	0.089501001	-6.5009999	9.5109997	-4.473
240	1	7	0.089501001	-5.902	10.812	-3.415
241	1	7	0.089501001	-7.5999999	9.2659998	-2.3269999
242	1	7	0.089501001	-6.4790001	7.8940001	-2.529
243	1	6	0.058015	-4.789	9.0959997	-1.043
244	1	6	0.058015	-6.336	8.6899996	-0.23800001
245	1	5	0.326453	-6.6680002	11.357	-1.248
246	1	8	-0.493231	-5.7589998	15.874	2.971
247	1	4	0.088748999	-5.4660001	14.58	2.516
248	1	4	-0.019464999	-6.757	13.727	2.4100001
249	1	4	0.088748999	-6.3979998	12.284	1.964
250	1	8	-0.493231	-5.6700001	12.285	0.76599997
251	1	6	0.093181998	-7.3299999	11.688	1.831
252	1	6	0.093181998	-5.7880001	11.789	2.7539999
253	1	4	0.055167001	-7.777	14.37	1.424
254	1	3	-0.72416699	-7.2059999	14.507	0.059999999
255	1	4	0.080353998	-7.0900002	15.919	-0.34
256	1	6	0.059096001	-8.0900002	16.406	-0.389
257	1	6	0.059096001	-6.598	15.997	-1.3329999
258	1	6	0.059096001	-6.4549999	16.473	0.384
259	1	4	0.080353998	-8.007	13.774	-0.935
260	1	6	0.059096001	-8.0629997	12.698	-0.66299999
261	1	6	0.059096001	-7.526	13.835	-1.9349999
262	1	6	0.059096001	-9.0389996	14.186	-1
263	1	6	0.082769997	-8.7030001	13.749	1.42
264	1	6	0.082769997	-8.1029997	15.356	1.831
265	1	4	-0.165894	-7.4169998	13.64	3.8050001
266	1	7	0.077573001	-8.3199997	12.993	3.773
267	1	7	0.077573001	-7.7290001	14.645	4.1630001
268	1	7	0.077573001	-6.711	13.212	4.5500002
269	1	6	0.093181998	-4.7550001	14.095	3.223
270	1	6	0.093181998	-4.9629998	14.645	1.525
271	1	1	-0.607099	1.307	13.185	5.4819999
272	1	2	0.78586298	1.416	14.412	5.744
273	1	3	-0.46520799	0.26199999	15.254	5.8070002
274	1	4	0.024101	-1.085	14.725	5.5869999
275	1	4	-0.144912	-2.148	15.834	5.6300001
276	1	4	-0.144912	-2.0320001	16.860001	4.4850001
277	1	4	0.024101	-2.3169999	16.278999	3.0910001
278	1	3	-0.46520799	-3.6300001	15.638	3.0339999
279	1	2	0.78586298	-4.8540001	16.379	3.0079999
280	1	1	-0.607099	-4.849	17.639	3.0209999
281	1	5	0.326453	-3.6789999	14.598	2.9549999
282	1	6	0.058015	-2.266	17.091	2.3340001
283	1	6	0.058015	-1.531	15.542	2.822
284	1	7	0.089501001	-2.75	17.684999	4.6830001
285	1	7	0.089501001	-1.0190001	17.315001	4.4829998
286	1	7	0.089501001	-2.0610001	16.372	6.599
287	1	7	0.089501001	-3.1570001	15.369	5.6129999
288	1	6	0.058015	-1.127	14.188	4.6170001
289	1	6	0.058015	-1.313	13.987	6.3860002
290	1	5	0.326453	0.40599999	16.261	6.0450001
291	1	8	-0.493231	6.5019999	15.032	6.638
292	1	4	0.088748999	5.2179999	14.592	6.2859998
293	1	4	-0.019464999	4.2350001	14.749	7.4759998
294	1	4	0.088748999	2.839	14.198	7.0799999
295	1	8	-0.493231	2.3559999	14.815	5.9169998
296	1	6	0.093181998	2.119	14.364	7.914
297	1	6	0.093181998	2.905	13.1	6.902
298	1	4	0.055167001	4.1329999	16.235001	7.9289999
299	1	3	-0.72416699	3.6600001	17.110001	6.8270001
300	1	4	0.080353998	4.6830001	18.096001	6.4400001
301	1	6	0.059096001	4.9169998	18.784	7.283
302	1	6	0.059096001	4.3309999	18.691999	5.5710001
303	1	6	0.059096001	5.6149998	17.579	6.1269999
304	1	4	0.080353998	2.414	17.806	7.1900001
305	1	6	0.059096001	1.623	17.068001	7.4429998
306	1	6	0.059096001	2.043	18.403	6.329
307	1	6	0.059096001	2.5710001	18.481001	8.0620003
308	1	6	0.082769997	3.457	16.288	8.8149996
309	1	6	0.082769997	5.125	16.566	8.316
310	1	4	-0.165894	4.7529998	13.91	8.6669998
311	1	7	0.077573001	4.0440001	13.962	9.5220003
312	1	7	0.077573001	5.7399998	14.282	9.0190001
313	1	7	0.077573001	4.8699999	12.843	8.3789997
314	1	6	0.093181998	5.2680001	13.522	5.9809999
315	1	6	0.093181998	4.8579998	15.175	5.408
316	1	1	-0.607099	6.5650001	8.9169998	1.5319999
317	1	2	0.78586298	7.7589998	9.3079996	1.4450001
318	1	3	-0.46520799	8.3280001	10.156	2.4460001
319	1	4	0.024101	7.5570002	10.589	3.612
320	1	4	-0.144912	8.3579998	11.553	4.5009999
321	1	4	-0.144912	8.6809998	12.903	3.8299999
322	1	4	0.024101	7.4450002	13.773	3.5469999
323	1	3	-0.46520799	6.665	14.012	4.7600002
324	1	2	0.78586298	7.0929999	14.903	5.7950001
325	1	1	-0.607099	8.1750002	15.541	5.6939998
326	1	5	0.326453	5.7309999	13.554	4.855
327	1	6	0.058015	7.7690001	14.746	3.1159999
328	1	6	0.058015	6.8049998	13.283	2.783
329	1	7	0.089501001	9.3699999	13.466	4.4949999
330	1	7	0.089501001	9.2259998	12.735	2.878
331	1	7	0.089501001	9.3129997	11.062	4.7870002
332	1	7	0.089501001	7.7950001	11.729	5.4419999
333	1	6	0.058015	6.6079998	11.063	3.2839999
334	1	6	0.058015	7.29	9.6940002	4.2150002
335	1	5	0.326453	9.3280001	10.438	2.335
336	1	8	-0.15023901	9.5290003	6.9169998	-2.822
337	1	4	0.0019690001	8.7770004	7.4699998	-1.775
338	1	4	-0.020447001	9.3500004	7.0430002	-0.398
339	1	4	0.093318999	8.4650002	7.6160002	0.741
340	1	8	-0.49310899	8.3360004	9.0089998	0.63599998
341	1	6	0.093555003	8.9090004	7.3579998	1.729
342	1	6	0.093555003	7.4499998	7.158	0.69400001
343	1	4	0.060687002	10.827	7.506	-0.235
344	1	3	-0.724401	10.951	8.9829998	-0.34299999
345	1	4	0.080353998	11.758	9.375	-1.51
346	1	6	0.059096001	12.802	8.9980001	-1.421
347	1	6	0.059096001	11.778	10.482	-1.607
348	1	6	0.059096001	11.307	8.9729996	-2.441
349	1	4	0.080353998	11.53	9.5649996	0.87900001
350	1	6	0.059096001	10.902	9.309	1.76
351	1	6	0.059096001	11.552	10.673	0.80299997
352	1	6	0.059096001	12.564	9.1899996	1.051
353	1	6	0.082719997	11.208	7.1339998	0.745
354	1	6	0.082719997	11.457	6.987	-0.995
355	1	4	-0.163403	9.3100004	5.5	-0.296
356	1	7	0.077440999	9.6689997	5.1630001	0.70099998
357	1	7	0.077440999	9.9560003	5.0310001	-1.069
358	1	7	0.077440999	8.2740002	5.1220002	-0.43700001
359	1	6	0.10267	7.7199998	7.1300001	-1.862
360	1	6	0.10267	8.7810001	8.5799999	-1.867
361	1	1	-0.682845	3.786	-1.118	2.3410001
362	1	2	0.54352999	3.9519999	-1.332	1.1109999
363	1	3	-0.52157998	4.868	-2.3329999	0.65499997
364	1	4	0.030251	5.6630001	-3.152	1.567
365	1	4	-0.141083	6.8249998	-2.339	2.145
366	1	4	-0.123047	7.6869998	-3.198	3.0799999
367	1	4	0.18433601	8.8769999	-2.414	3.6400001
368	1	3	-0.63884598	8.415	-1.368	4.5489998
369	1	9	0.593575	8.6829996	-0.14	4.3520002
370	1	1	-0.463678	8.9440002	1.054	4.1589999
371	1	6	0.032804001	9.4799995	-1.99	2.8039999
372	1	6	0.032804001	9.5290003	-3.1099999	4.2080002
373	1	7	0.083384998	8.0780001	-4.073	2.516
374	1	7	0.083384998	7.0679998	-3.579	3.9219999
375	1	7	0.088464998	7.4510002	-1.957	1.309
376	1	7	0.088464998	6.4219999	-1.469	2.7079999
377	1	6	0.054435	5.0149999	-3.5409999	2.3829999
378	1	6	0.054435	6.0689998	-4.0229998	1.008
379	1	5	0.31987101	4.9239998	-2.5220001	-0.37099999
380	1	8	-0.149791	9.1099997	7.2379999	-3.6619999
381	1	4	0.01189	8.4180002	8.4119997	-3.332
382	1	4	-0.054366	7.6810002	9.0120001	-4.5609999
383	1	4	0.071456999	6.5500002	8.066	-5.066
384	1	3	-0.72465402	7.0830002	6.7600002	-5.5320001
385	1	4	0.080353998	6.7909999	6.5370002	-6.9569998
386	1	6	0.059096001	7.2160001	7.3600001	-7.5710001
387	1	6	0.059096001	7.2649999	5.592	-7.302
388	1	6	0.059096001	5.6939998	6.4819999	-7.1389999
389	1	4	0.080353998	6.546	5.6440001	-4.7360001
390	1	6	0.059096001	5.4419999	5.5630002	-4.8520002
391	1	6	0.059096001	7.0170002	4.6880002	-5.0510001
392	1	6	0.059096001	6.7849998	5.789	-3.661
393	1	6	0.082652003	5.9860001	8.5869999	-5.8740001
394	1	6	0.082652003	5.8060002	7.9320002	-4.2449999
395	1	4	-0.15630101	7.0149999	10.332	-4.1040001
396	1	7	0.077276997	7.7750001	11.052	-3.73
397	1	7	0.077276997	6.4710002	10.813	-4.9450002
398	1	7	0.077276997	6.2880001	10.145	-3.2839999
399	1	4	0.065586001	8.6789999	9.3629999	-5.698
400	1	10	-0.67655402	9.3830004	8.2340002	-6.1389999
401	1	11	0.384913	9.9750004	8.5450001	-6.8720002
402	1	6	0.088312	9.4090004	10.122	-5.3330002
403	1	6	0.088312	8.125	9.8079996	-6.5560002
404	1	6	0.102783	9.1440001	9.1569996	-2.9319999
405	1	6	0.102783	7.6810002	8.1879997	-2.527

Bonds

1	1	1	2
2	2	2	3
3	3	2	25
4	4	3	4
5	5	3	20
6	6	4	5
7	7	4	18
8	7	4	19
9	6	5	6
10	7	5	16
11	7	5	17
12	6	6	7
13	7	6	14
14	7	6	15
15	4	7	8
16	7	7	12
17	7	7	13
18	2	8	9
19	5	8	11
20	1	9	10
21	8	9	362
22	9	21	22
23	3	21	54
24	6	22	23
25	7	22	44
26	7	22	45
27	6	23	24
28	6	23	28
29	6	23	40
30	9	24	25
31	7	24	26
32	7	24	27
33	10	28	29
34	7	28	38
35	7	28	39
36	10	29	30
37	10	29	34
38	7	30	31
39	7	30	32
40	7	30	33
41	7	34	35
42	7	34	36
43	7	34	37
44	7	40	41
45	7	40	42
46	7	40	43
47	1	46	47
48	2	47	48
49	3	47	70
50	4	48	49
51	5	48	65
52	6	49	50
53	7	49	63
54	7	49	64
55	6	50	51
56	7	50	61
57	7	50	62
58	6	51	52
59	7	51	59
60	7	51	60
61	4	52	53
62	7	52	57
63	7	52	58
64	2	53	54
65	5	53	56
66	1	54	55
67	9	66	67
68	3	66	99
69	6	67	68
70	7	67	89
71	7	67	90
72	6	68	69
73	6	68	73
74	6	68	85
75	9	69	70
76	7	69	71
77	7	69	72
78	10	73	74
79	7	73	83
80	7	73	84
81	10	74	75
82	10	74	79
83	7	75	76
84	7	75	77
85	7	75	78
86	7	79	80
87	7	79	81
88	7	79	82
89	7	85	86
90	7	85	87
91	7	85	88
92	1	91	92
93	2	92	93
94	3	92	115
95	4	93	94
96	5	93	110
97	6	94	95
98	7	94	108
99	7	94	109
100	6	95	96
101	7	95	106
102	7	95	107
103	6	96	97
104	7	96	104
105	7	96	105
106	4	97	98
107	7	97	102
108	7	97	103
109	2	98	99
110	5	98	101
111	1	99	100
112	9	111	112
113	3	111	144
114	6	112	113
115	7	112	134
116	7	112	135
117	6	113	114
118	6	113	118
119	6	113	130
120	9	114	115
121	7	114	116
122	7	114	117
123	10	118	119
124	7	118	128
125	7	118	129
126	10	119	120
127	10	119	124
128	7	120	121
129	7	120	122
130	7	120	123
131	7	124	125
132	7	124	126
133	7	124	127
134	7	130	131
135	7	130	132
136	7	130	133
137	1	136	137
138	2	137	138
139	3	137	160
140	4	138	139
141	5	138	155
142	6	139	140
143	7	139	153
144	7	139	154
145	6	140	141
146	7	140	151
147	7	140	152
148	6	141	142
149	7	141	149
150	7	141	150
151	4	142	143
152	7	142	147
153	7	142	148
154	2	143	144
155	5	143	146
156	1	144	145
157	9	156	157
158	3	156	189
159	6	157	158
160	7	157	179
161	7	157	180
162	6	158	159
163	6	158	163
164	6	158	175
165	9	159	160
166	7	159	161
167	7	159	162
168	10	163	164
169	7	163	173
170	7	163	174
171	10	164	165
172	10	164	169
173	7	165	166
174	7	165	167
175	7	165	168
176	7	169	170
177	7	169	171
178	7	169	172
179	7	175	176
180	7	175	177
181	7	175	178
182	1	181	182
183	2	182	183
184	3	182	205
185	4	183	184
186	5	183	200
187	6	184	185
188	7	184	198
189	7	184	199
190	6	185	186
191	7	185	196
192	7	185	197
193	6	186	187
194	7	186	194
195	7	186	195
196	4	187	188
197	7	187	192
198	7	187	193
199	2	188	189
200	5	188	191
201	1	189	190
202	9	201	202
203	3	201	234
204	6	202	203
205	7	202	224
206	7	202	225
207	6	203	204
208	6	203	208
209	6	203	220
210	9	204	205
211	7	204	206
212	7	204	207
213	10	208	209
214	7	208	218
215	7	208	219
216	10	209	210
217	10	209	214
218	7	210	211
219	7	210	212
220	7	210	213
221	7	214	215
222	7	214	216
223	7	214	217
224	7	220	221
225	7	220	222
226	7	220	223
227	1	226	227
228	2	227	228
229	3	227	250
230	4	228	229
231	5	228	245
232	6	229	230
233	7	229	243
234	7	229	244
235	6	230	231
236	7	230	241
237	7	230	242
238	6	231	232
239	7	231	239
240	7	231	240
241	4	232	233
242	7	232	237
243	7	232	238
244	2	233	234
245	5	233	236
246	1	234	235
247	9	246	247
248	3	246	279
249	6	247	248
250	7	247	269
251	7	247	270
252	6	248	249
253	6	248	253
254	6	248	265
255	9	249	250
256	7	249	251
257	7	249	252
258	10	253	254
259	7	253	263
260	7	253	264
261	10	254	255
262	10	254	259
263	7	255	256
264	7	255	257
265	7	255	258
266	7	259	260
267	7	259	261
268	7	259	262
269	7	265	266
270	7	265	267
271	7	265	268
272	1	271	272
273	2	272	273
274	3	272	295
275	4	273	274
276	5	273	290
277	6	274	275
278	7	274	288
279	7	274	289
280	6	275	276
281	7	275	286
282	7	275	287
283	6	276	277
284	7	276	284
285	7	276	285
286	4	277	278
287	7	277	282
288	7	277	283
289	2	278	279
290	5	278	281
291	1	279	280
292	9	291	292
293	3	291	324
294	6	292	293
295	7	292	314
296	7	292	315
297	6	293	294
298	6	293	298
299	6	293	310
300	9	294	295
301	7	294	296
302	7	294	297
303	10	298	299
304	7	298	308
305	7	298	309
306	10	299	300
307	10	299	304
308	7	300	301
309	7	300	302
310	7	300	303
311	7	304	305
312	7	304	306
313	7	304	307
314	7	310	311
315	7	310	312
316	7	310	313
317	1	316	317
318	2	317	318
319	3	317	340
320	4	318	319
321	5	318	335
322	6	319	320
323	7	319	333
324	7	319	334
325	6	320	321
326	7	320	331
327	7	320	332
328	6	321	322
329	7	321	329
330	7	321	330
331	4	322	323
332	7	322	327
333	7	322	328
334	2	323	324
335	5	323	326
336	1	324	325
337	9	336	337
338	11	336	380
339	6	337	338
340	7	337	359
341	7	337	360
342	6	338	339
343	6	338	343
344	6	338	355
345	9	339	340
346	7	339	341
347	7	339	342
348	10	343	344
349	7	343	353
350	7	343	354
351	10	344	345
352	10	344	349
353	7	345	346
354	7	345	347
355	7	345	348
356	7	349	350
357	7	349	351
358	7	349	352
359	7	355	356
360	7	355	357
361	7	355	358
362	1	361	362
363	2	362	363
364	4	363	364
365	5	363	379
366	6	364	365
367	7	364	377
368	7	364	378
369	6	365	366
370	7	365	375
371	7	365	376
372	6	366	367
373	7	366	373
374	7	366	374
375	10	367	368
376	7	367	371
377	7	367	372
378	12	368	369
379	1	369	370
380	9	380	381
381	6	381	382
382	7	381	404
383	7	381	405
384	6	382	383
385	6	382	395
386	6	382	399
387	10	383	384
388	7	383	393
389	7	383	394
390	10	384	385
391	10	384	389
392	7	385	386
393	7	385	387
394	7	385	388
395	7	389	390
396	7	389	391
397	7	389	392
398	7	395	396
399	7	395	397
400	7	395	398
401	13	399	400
402	7	399	402
403	7	399	403
404	14	400	401

Angles

1	6	96	97	102
2	4	54	53	56
3	6	111	112	134
4	6	49	50	62
5	6	382	399	402
6	6	202	203	208
7	2	246	279	280
8	6	276	275	287
9	4	317	318	335
10	6	203	202	225
11	6	384	389	390
12	7	121	120	122
13	5	112	111	144
14	6	68	67	90
15	7	86	85	87
16	7	266	265	267
17	6	229	230	231
18	7	350	349	352
19	6	366	365	375
20	7	237	232	238
21	6	321	322	327
22	6	246	247	270
23	6	364	365	366
24	6	23	24	26
25	6	50	51	60
26	6	339	338	343
27	4	142	143	146
28	6	294	293	310
29	6	382	383	384
30	6	113	130	133
31	6	141	140	152
32	6	209	214	216
33	6	209	210	211
34	1	201	234	233
35	4	362	363	379
36	6	185	184	199
37	1	46	47	48
38	4	94	93	110
39	7	126	124	127
40	6	381	382	399
41	6	233	232	238
42	7	391	389	392
43	5	317	340	339
44	6	6	7	8
45	6	8	7	12
46	6	119	118	128
47	6	164	165	166
48	1	156	189	188
49	8	118	119	124
50	6	3	4	18
51	7	177	175	178
52	6	384	383	393
53	6	95	96	97
54	3	232	233	234
55	6	95	94	108
56	6	382	395	397
57	6	4	5	17
58	6	68	73	84
59	6	248	253	264
60	6	344	343	353
61	8	345	344	349
62	4	234	233	236
63	6	321	320	331
64	6	338	355	357
65	6	141	142	143
66	6	277	276	285
67	6	203	204	207
68	6	160	159	162
69	7	80	79	81
70	7	149	141	150
71	6	228	229	230
72	5	227	250	249
73	6	231	232	233
74	6	276	277	282
75	7	211	210	213
76	6	293	292	314
77	6	322	321	329
78	6	7	6	14
79	7	173	163	174
80	6	29	30	31
81	5	337	336	380
82	6	338	343	344
83	2	21	54	55
84	2	226	227	250
85	7	284	276	285
86	7	153	139	154
87	4	272	273	290
88	8	208	209	210
89	6	74	79	80
90	6	203	208	219
91	6	186	185	197
92	8	253	254	259
93	7	31	30	33
94	7	170	169	172
95	6	141	142	147
96	1	10	9	362
97	7	194	186	195
98	1	278	279	280
99	6	68	69	72
100	6	248	249	252
101	7	314	292	315
102	2	136	137	160
103	7	390	389	391
104	7	18	4	19
105	7	167	165	168
106	7	176	175	177
107	7	356	355	357
108	6	113	112	135
109	7	218	208	219
110	6	228	229	243
111	6	22	23	40
112	6	50	49	64
113	1	183	182	205
114	4	137	138	155
115	7	32	30	33
116	7	311	310	313
117	7	241	230	242
118	6	49	50	61
119	2	271	272	295
120	6	119	120	123
121	4	274	273	290
122	6	5	4	19
123	6	276	275	286
124	6	384	385	388
125	10	368	369	370
126	7	38	28	39
127	1	48	47	70
128	6	208	203	220
129	6	186	187	188
130	6	229	230	241
131	1	8	9	362
132	6	344	345	348
133	6	114	113	130
134	3	7	8	9
135	6	23	24	25
136	6	157	158	159
137	6	66	67	89
138	6	50	51	59
139	6	5	6	7
140	8	210	209	214
141	7	71	69	72
142	7	256	255	257
143	6	21	22	45
144	6	382	381	405
145	6	209	208	219
146	6	141	140	151
147	6	209	214	215
148	1	9	362	363
149	7	42	40	43
150	4	9	8	11
151	3	182	183	184
152	6	6	5	17
153	6	292	293	298
154	4	97	98	101
155	6	185	184	198
156	1	53	54	55
157	7	371	367	372
158	6	233	232	237
159	7	359	337	360
160	8	300	299	304
161	6	364	365	376
162	1	1	2	3
163	7	216	214	217
164	6	186	187	192
165	6	23	40	43
166	7	81	79	82
167	7	261	259	262
168	6	157	158	163
169	4	229	228	245
170	6	157	158	175
171	6	4	5	16
172	6	68	73	83
173	6	248	253	263
174	6	299	300	301
175	6	203	220	223
176	6	337	338	355
177	6	74	73	83
178	6	254	253	263
179	6	69	68	73
180	6	249	248	253
181	6	277	276	284
182	6	323	322	328
183	7	347	345	348
184	7	128	118	129
185	6	363	364	365
186	6	380	381	404
187	6	203	204	206
188	6	96	95	106
189	5	399	400	401
190	6	29	28	38
191	6	51	50	62
192	6	158	159	161
193	6	185	186	187
194	1	188	189	190
195	6	96	97	98
196	7	397	395	398
197	7	211	210	212