Title

207 atoms
222 bonds
377 angles
599 dihedrals
276 impropers

11 atom types
15 bond types
8 angle types
22 dihedral types
3 improper types
-22.33699989 77.66300011 xlo xhi
-4.140999794 95.85900021 ylo yhi
-24.47699928 75.52300072 zlo zhi
0.0 0.0 0.0 xy xz yz

Masses

1	14.00672
2	12.01078
3	1.007947
4	15.99943
5	12.01078
6	1.007947
7	18.998403
8	1.007947
9	15.99943
10	15.99943
11	1.007947


Pair Coeffs

1	0.16769152	3.206876
2	0.086879315	3.4806469
3	0.015611343	2.5725815
4	0.16846514	3.0251065
5	0.10884061	3.3795318
6	0.014090815	1.1034277
7	0.061	3.1181455
8	0.015779483	2.6445434
9	0.2102061	3.0398122
10	0.20947353	2.99716
11	1.2326e-05	0.53453923

Bond Coeffs

1 harmonic	390.03554688505	1.390160554689
2 harmonic	505.144496193	1.019481865027
3 harmonic	422.7150220147	1.421786517481
4 harmonic	360.7852444772	1.387193227181
5 harmonic	397.2545789619	1.085358495916
6 harmonic	279.1350963404	1.454628925034
7 harmonic	425.69104206635	1.362945806494
8 harmonic	289.73813263395	1.498646816465
9 harmonic	264.62148576755	1.52190126495
10 harmonic	492.76746816345	1.381897776683
11 harmonic	340.45121009905	1.358690858053
12 harmonic	370.04670688625	1.093899492634
13 harmonic	582.698766451	1.225198386222
14 harmonic	385.7604595587	1.369745182308
15 harmonic	543.5267831885	0.9716763312559


Angle Coeffs

1 harmonic	57.8982893754	126.8062420451
2 harmonic	55.42182150775	117.3465570514
3 harmonic	63.44422595415	115.5071327674
4 harmonic	34.066775159195	129.1835929926
5 harmonic	65.09061609600001	110.3538806181
6 harmonic	53.20531626545	116.5475862634
7 harmonic	48.776492647595	115.6030999533
8 harmonic	201.41175231035	127.4691416191


Dihedral Coeffs

1 fourier 1	3.661930099076	2	180
2 fourier 1	1.193093382682	2	180
3 fourier 1	0.02021088501612	1	0
4 fourier 1	1.163235555439	2	180
5 fourier 1	1.532232714475	2	180
6 fourier 1	0.02664938770063	3	0
7 fourier 1	0.1155372516788	3	0
8 fourier 1	0.1040663847541	3	0
9 fourier 1	0.09223874044423	3	0
10 fourier 1	0.3159935921949	2	180
11 fourier 1	0.3247796806857	1	180
12 fourier 1	3.101948770557	2	180
13 fourier 1	-0.4252153282372	1	0
14 fourier 1	1.809047390003	2	180
15 fourier 1	-0.04816277792592	1	0
16 fourier 1	0.9974165607242	2	180
17 fourier 1	2.348375642009	2	180
18 fourier 1	1.256156174911	1	0
19 fourier 1	0.1911926717192	3	0
20 fourier 1	2.687457892086	2	180
21 fourier 1	2.772607909663	2	180
22 fourier 1	0.09692684957115	1	0


Improper Coeffs

1 0.3666666666666667	-1	2
2 0.3333333333333333	-1	2
3 3.5	-1	2


Atoms

1	1	1	-0.41301301	14.317	0.495	-0.056000002
2	1	2	0.124291	12.923	0.41	0.25799999
3	1	2	-0.40888199	12.207	1.527	0.48800001
4	1	3	0.219171	12.682	2.5009999	0.447
5	1	2	-0.1173	10.761	1.434	0.79000002
6	1	3	0.201887	10.206	2.3499999	0.96799999
7	1	2	-0.12997	10.143	0.237	0.81800002
8	1	2	-0.13614701	8.6929998	0.148	1.094
9	1	2	-0.132736	7.8779998	-0.51300001	0.25099999
10	1	3	0.20518699	8.2690001	-1.003	-0.625
11	1	2	-0.29836199	6.421	-0.51300001	0.47499999
12	1	3	0.22174101	5.7909999	-1.021	-0.244
13	1	2	0.32659501	5.8920002	0.12800001	1.536
14	1	4	-0.274533	4.5079999	0.198	1.765
15	1	2	0.25627699	3.5179999	-0.156	0.83899999
16	1	2	-0.27015799	2.7720001	0.80500001	0.26899999
17	1	3	0.22543	2.961	1.845	0.49599999
18	1	2	-0.177453	1.6569999	0.44999999	-0.62599999
19	1	3	0.21574099	1.054	1.252	-1.041
20	1	2	-0.189312	1.349	-0.84500003	-0.87900001
21	1	5	0.014921	0.077	-1.164	-1.6950001
22	1	2	-0.189312	-1.137	-0.59600002	-0.912
23	1	2	-0.177453	-2.2279999	-0.055	-1.507
24	1	3	0.21574099	-2.313	0.028000001	-2.5780001
25	1	2	-0.27015799	-3.3440001	0.49700001	-0.70599997
26	1	3	0.22543	-4.1739998	0.97899997	-1.214
27	1	2	0.25627699	-3.3069999	0.433	0.634
28	1	4	-0.274533	-4.3099999	0.99199998	1.4349999
29	1	2	0.32659501	-5.677	1.028	1.118
30	1	2	-0.29836199	-6.2979999	2.2160001	1.122
31	1	3	0.22174101	-5.7379999	3.122	1.316
32	1	2	-0.132736	-7.75	2.309	0.88099998
33	1	3	0.20518699	-8.2119999	3.283	0.92400002
34	1	2	-0.13614701	-8.4779997	1.2029999	0.65100002
35	1	2	-0.12997	-9.9549999	1.273	0.52600002
36	1	2	-0.131253	-10.613	0.495	-0.354
37	1	3	0.201887	-10.076	-0.15899999	-1.029
38	1	2	-0.37713301	-12.091	0.51800001	-0.41800001
39	1	3	0.21571299	-12.599	-0.131	-1.1160001
40	1	2	0.196602	-12.791	1.306	0.40900001
41	1	1	-0.53317499	-14.219	1.313	0.37599999
42	1	6	0.31829	-14.765	1.936	1.012
43	1	2	-0.37713301	-12.074	2.171	1.369
44	1	3	0.21571299	-12.627	2.813	2.0409999
45	1	2	-0.131253	-10.738	2.161	1.4220001
46	1	3	0.201887	-10.232	2.773	2.1570001
47	1	2	-0.059583999	-7.7940001	-0.113	0.62300003
48	1	3	0.20429599	-8.3909998	-1.001	0.46200001
49	1	2	-0.324231	-6.4720001	-0.22	0.87400001
50	1	5	0.76554102	-5.8189998	-1.5880001	0.94499999
51	1	7	-0.210858	-6.7529998	-2.586	1.1670001
52	1	7	-0.210858	-5.1599998	-1.854	-0.245
53	1	7	-0.210858	-4.9109998	-1.631	1.988
54	1	2	-0.27015799	-2.1619999	-0.222	1.298
55	1	3	0.22543	-2.151	-0.32300001	2.378
56	1	2	-0.177453	-1.1569999	-0.72799999	0.57700002
57	1	3	0.21574099	-0.354	-1.247	1.089
58	1	5	-0.129557	-0.133	-2.698	-1.844
59	1	8	0.109963	-0.29800001	-3.1689999	-0.85100001
60	1	8	0.109963	0.77399999	-3.1570001	-2.293
61	1	5	-0.12931	-1.324	-3.0539999	-2.7509999
62	1	8	0.112121	-1.279	-4.1409998	-2.9719999
63	1	8	0.112121	-2.2780001	-2.8800001	-2.2049999
64	1	5	-0.15088101	-1.352	-2.2709999	-4.0760002
65	1	8	0.114848	-2.237	-1.607	-4.1030002
66	1	8	0.114848	-1.471	-2.9779999	-4.9250002
67	1	5	-0.12931	-0.090999998	-1.438	-4.3130002
68	1	8	0.112121	-0.227	-0.81300002	-5.223
69	1	8	0.112121	0.75599998	-2.131	-4.5139999
70	1	5	-0.129557	0.27200001	-0.52399999	-3.1259999
71	1	8	0.109963	1.342	-0.26699999	-3.2909999
72	1	8	0.109963	-0.25099999	0.45300001	-3.217
73	1	2	-0.177453	2.214	-1.9069999	-0.264
74	1	3	0.21574099	2.0250001	-2.9560001	-0.42699999
75	1	2	-0.27015799	3.2349999	-1.574	0.54500002
76	1	3	0.22543	3.835	-2.349	1.005
77	1	2	-0.324231	6.7930002	0.81199998	2.5090001
78	1	5	0.76554102	6.1960001	1.451	3.7390001
79	1	7	-0.210859	5.6079998	0.47400001	4.5190001
80	1	7	-0.210859	7.1529999	2.115	4.4920001
81	1	7	-0.210859	5.2309999	2.3640001	3.365
82	1	2	-0.059583999	8.1219997	0.81999999	2.2839999
83	1	3	0.20429599	8.8009996	1.303	2.973
84	1	2	-0.117301	10.936	-0.99400002	0.56400001
85	1	3	0.201887	10.46	-1.97	0.58700001
86	1	2	-0.40888199	12.252	-0.91000003	0.31799999
87	1	3	0.219171	12.832	-1.816	0.148
88	1	6	0.371317	14.89	-0.37400001	-0.13600001
89	1	2	0.766666	-14.759	0.68300003	-0.289
90	1	9	-0.66280901	-14.591	0.81900001	-1.53
91	1	2	-0.35553399	-15.687	-0.32800001	0.25299999
92	1	2	-0.077816002	-16.388	-1.1440001	-0.55599999
93	1	3	0.220833	-16.292	-1.082	-1.633
94	1	2	-0.245718	-17.309	-2.1459999	0.017000001
95	1	3	0.210439	-17.868999	-2.7980001	-0.64200002
96	1	2	-0.02617	-17.452	-2.2490001	1.3430001
97	1	3	0.220245	-18.131001	-2.9890001	1.747
98	1	2	-0.294799	-16.686001	-1.357	2.2490001
99	1	2	0.58652103	-16.837	-1.464	3.711
100	1	9	-0.53353101	-17.617001	-2.312	4.2189999
101	1	2	0.053693999	-15.848	-0.44600001	1.723
102	1	3	0.23794401	-15.282	0.213	2.372
103	1	1	-0.41301301	14.755	1.408	-0.28799999
104	1	2	0.124291	15.797	1.493	-1.266
105	1	2	-0.40888199	16.389	0.377	-1.73
106	1	3	0.219171	16.089001	-0.59799999	-1.36
107	1	2	-0.1173	17.450001	0.46900001	-2.7579999
108	1	3	0.201887	17.909	-0.447	-3.1170001
109	1	2	-0.12997	17.82	1.666	-3.2539999
110	1	2	-0.13614701	18.861	1.755	-4.3000002
111	1	2	-0.132736	18.621	2.4159999	-5.447
112	1	3	0.20518699	17.676001	2.9070001	-5.6139998
113	1	2	-0.29836199	19.622999	2.4170001	-6.527
114	1	3	0.22174101	19.381001	2.925	-7.4520001
115	1	2	0.32659501	20.799	1.775	-6.3709998
116	1	4	-0.274533	21.764	1.705	-7.388
117	1	2	0.25627699	21.552999	2.059	-8.7270002
118	1	2	-0.27015799	21.5	1.099	-9.665
119	1	3	0.22543	21.582001	0.057999998	-9.3800001
120	1	2	-0.177453	21.384001	1.4529999	-11.089
121	1	3	0.21574099	21.379	0.65100002	-11.821
122	1	2	-0.189312	21.348	2.7479999	-11.486
123	1	5	0.014921	21.385	3.0669999	-12.997
124	1	2	-0.189312	22.714001	2.4990001	-13.563
125	1	2	-0.177453	22.834	1.9579999	-14.8
126	1	3	0.21574099	21.993999	1.875	-15.471
127	1	2	-0.27015799	24.122999	1.406	-15.275
128	1	3	0.22543	24.167999	0.92400002	-16.246
129	1	2	0.25627699	25.211	1.47	-14.492
130	1	4	-0.274533	26.437	0.91100001	-14.873
131	1	2	0.32659501	26.941999	0.875	-16.183001
132	1	2	-0.29836199	27.292	-0.31200001	-16.695
133	1	3	0.22174101	27.139	-1.219	-16.122
134	1	2	-0.132736	27.908001	-0.40599999	-18.032
135	1	3	0.20518699	28.202	-1.38	-18.391001
136	1	2	-0.13614701	28.125999	0.69999999	-18.764
137	1	2	-0.12997	28.851	0.63	-20.056999
138	1	2	-0.080760002	28.490999	1.408	-21.096001
139	1	3	0.201887	27.631001	2.062	-21.028999
140	1	2	-0.45297101	29.266001	1.385	-22.355
141	1	3	0.22760201	28.974001	2.0339999	-23.167
142	1	2	0.31476101	30.344999	0.597	-22.469999
143	1	1	-0.84583002	31.118	0.58999997	-23.672001
144	1	6	0.36421299	30.875	1.209	-24.476999
145	1	6	0.36421299	31.951	-0.033	-23.766001
146	1	2	-0.45297101	30.737	-0.26800001	-21.337999
147	1	3	0.22760201	31.603001	-0.91000003	-21.419001
148	1	2	-0.080760002	30.032	-0.25799999	-20.202
149	1	3	0.201887	30.356001	-0.87	-19.371
150	1	2	-0.059583999	27.719	2.016	-18.214001
151	1	3	0.20429599	27.921	2.904	-18.798
152	1	2	-0.324231	27.184999	2.1240001	-16.978001
153	1	5	0.76554102	26.877001	3.4909999	-16.398001
154	1	7	-0.210858	27.584999	4.4889998	-17.046
155	1	7	-0.210858	25.523001	3.757	-16.52
156	1	7	-0.210858	27.232	3.5339999	-15.061
157	1	2	-0.27015799	25.118999	2.1259999	-13.172
158	1	3	0.22543	26.007	2.2260001	-12.558
159	1	2	-0.177453	23.958	2.631	-12.745
160	1	3	0.21574099	23.931999	3.1500001	-11.793
161	1	5	-0.129557	21.379999	4.6009998	-13.255
162	1	8	0.109963	22.295	5.072	-12.834
163	1	8	0.109963	20.499001	5.0609999	-12.755
164	1	5	-0.12931	21.297001	4.9569998	-14.749
165	1	8	0.112121	21.087999	6.0450001	-14.835
166	1	8	0.112121	22.283001	4.783	-15.233
167	1	5	-0.15088101	20.215	4.1739998	-15.516
168	1	8	0.114848	20.688999	3.51	-16.264
169	1	8	0.114848	19.579	4.881	-16.09
170	1	5	-0.12931	19.312	3.3410001	-14.604
171	1	8	0.112121	18.634001	2.7160001	-15.227
172	1	8	0.112121	18.671	4.0339999	-14.016
173	1	5	-0.129557	20.091	2.427	-13.638
174	1	8	0.109963	19.354	2.1700001	-12.845
175	1	8	0.109963	20.309	1.451	-14.122
176	1	2	-0.177453	21.371	3.8110001	-10.425
177	1	3	0.21574099	21.341999	4.8590002	-10.673
178	1	2	-0.27015799	21.468	3.477	-9.1260004
179	1	3	0.22543	21.513	4.2529998	-8.3710003
180	1	2	-0.324231	21.099001	1.092	-5.079
181	1	5	0.76554102	22.451	0.45199999	-4.8829999
182	1	7	-0.210859	23.427999	1.429	-4.9330001
183	1	7	-0.210859	22.539	-0.212	-3.6689999
184	1	7	-0.210859	22.684	-0.461	-5.8920002
185	1	2	-0.059583999	20.167	1.0829999	-4.105
186	1	3	0.20429599	20.357	0.60000002	-3.1559999
187	1	2	-0.117301	17.164	2.8970001	-2.74
188	1	3	0.201887	17.451	3.8729999	-3.1210001
189	1	2	-0.40888199	16.223	2.8139999	-1.788
190	1	3	0.219171	15.757	3.72	-1.403
191	1	6	0.371317	14.367	2.277	0.141
192	1	2	0.58652103	-16.275999	-0.81099999	4.3660002
193	1	9	-0.53353101	-15.017	-0.84600002	4.3299999
194	1	2	-0.29030201	-16.990999	0.098999999	5.2810001
195	1	2	-0.02617	-16.329	0.926	6.1100001
196	1	3	0.220245	-15.246	0.94800001	6.131
197	1	2	-0.246868	-17.072001	1.825	7.013
198	1	3	0.210439	-16.531	2.4860001	7.677
199	1	2	-0.063772	-18.41	1.824	7.013
200	1	3	0.23127601	-18.938	2.4909999	7.6830001
201	1	2	-0.220015	-19.160999	0.91900003	6.1059999
202	1	2	0.83761698	-20.639999	0.93000001	6.118
203	1	9	-0.493103	-21.295	0.169	5.3540001
204	1	10	-0.66638499	-21.323999	1.785	6.9770002
205	1	11	0.416136	-22.337	1.803	6.9959998
206	1	2	0.070338003	-18.475	0.101	5.2839999
207	1	3	0.248004	-18.999001	-0.56900001	4.612

Bonds

1	1	1	2
2	2	1	88
3	3	1	103
4	4	2	3
5	4	2	86
6	5	3	4
7	4	3	5
8	5	5	6
9	4	5	7
10	6	7	8
11	4	7	84
12	4	8	9
13	4	8	82
14	5	9	10
15	4	9	11
16	5	11	12
17	4	11	13
18	7	13	14
19	4	13	77
20	7	14	15
21	4	15	16
22	4	15	75
23	5	16	17
24	4	16	18
25	5	18	19
26	4	18	20
27	8	20	21
28	4	20	73
29	8	21	22
30	9	21	58
31	9	21	70
32	4	22	23
33	4	22	56
34	5	23	24
35	4	23	25
36	5	25	26
37	4	25	27
38	7	27	28
39	4	27	54
40	7	28	29
41	4	29	30
42	4	29	49
43	5	30	31
44	4	30	32
45	5	32	33
46	4	32	34
47	6	34	35
48	4	34	47
49	4	35	36
50	4	35	45
51	5	36	37
52	4	36	38
53	5	38	39
54	4	38	40
55	1	40	41
56	4	40	43
57	2	41	42
58	10	41	89
59	5	43	44
60	4	43	45
61	5	45	46
62	5	47	48
63	4	47	49
64	8	49	50
65	11	50	51
66	11	50	52
67	11	50	53
68	5	54	55
69	4	54	56
70	5	56	57
71	12	58	59
72	12	58	60
73	9	58	61
74	12	61	62
75	12	61	63
76	9	61	64
77	12	64	65
78	12	64	66
79	9	64	67
80	12	67	68
81	12	67	69
82	9	67	70
83	12	70	71
84	12	70	72
85	5	73	74
86	4	73	75
87	5	75	76
88	8	77	78
89	4	77	82
90	11	78	79
91	11	78	80
92	11	78	81
93	5	82	83
94	5	84	85
95	4	84	86
96	5	86	87
97	13	89	90
98	6	89	91
99	4	91	92
100	4	91	101
101	5	92	93
102	4	92	94
103	5	94	95
104	4	94	96
105	5	96	97
106	4	96	98
107	6	98	99
108	4	98	101
109	13	99	100
110	6	99	192
111	5	101	102
112	1	103	104
113	2	103	191
114	4	104	105
115	4	104	189
116	5	105	106
117	4	105	107
118	5	107	108
119	4	107	109
120	6	109	110
121	4	109	187
122	4	110	111
123	4	110	185
124	5	111	112
125	4	111	113
126	5	113	114
127	4	113	115
128	7	115	116
129	4	115	180
130	7	116	117
131	4	117	118
132	4	117	178
133	5	118	119
134	4	118	120
135	5	120	121
136	4	120	122
137	8	122	123
138	4	122	176
139	8	123	124
140	9	123	161
141	9	123	173
142	4	124	125
143	4	124	159
144	5	125	126
145	4	125	127
146	5	127	128
147	4	127	129
148	7	129	130
149	4	129	157
150	7	130	131
151	4	131	132
152	4	131	152
153	5	132	133
154	4	132	134
155	5	134	135
156	4	134	136
157	6	136	137
158	4	136	150
159	4	137	138
160	4	137	148
161	5	138	139
162	4	138	140
163	5	140	141
164	4	140	142
165	1	142	143
166	4	142	146
167	2	143	144
168	2	143	145
169	5	146	147
170	4	146	148
171	5	148	149
172	5	150	151
173	4	150	152
174	8	152	153
175	11	153	154
176	11	153	155
177	11	153	156
178	5	157	158
179	4	157	159
180	5	159	160
181	12	161	162
182	12	161	163
183	9	161	164
184	12	164	165
185	12	164	166
186	9	164	167
187	12	167	168
188	12	167	169
189	9	167	170
190	12	170	171
191	12	170	172
192	9	170	173
193	12	173	174
194	12	173	175
195	5	176	177
196	4	176	178
197	5	178	179
198	8	180	181
199	4	180	185
200	11	181	182
201	11	181	183
202	11	181	184
203	5	185	186
204	5	187	188
205	4	187	189
206	5	189	190
207	13	192	193
208	6	192	194
209	4	194	195
210	4	194	206
211	5	195	196
212	4	195	197
213	5	197	198
214	4	197	199
215	5	199	200
216	4	199	201
217	6	201	202
218	4	201	206
219	13	202	203
220	14	202	204
221	15	204	205
222	5	206	207

Angles

1	1	111	110	185
2	3	142	143	145
3	3	104	103	191
4	6	123	173	174
5	1	132	134	136
6	4	22	23	24
7	1	123	122	176
8	1	41	40	43
9	1	36	38	40
10	1	120	122	176
11	4	138	140	141
12	1	105	107	109
13	4	124	125	126
14	4	119	118	120
15	4	92	94	95
16	4	111	113	114
17	1	127	129	157
18	1	137	136	150
19	1	118	120	122
20	1	192	194	195
21	4	35	36	37
22	4	2	86	87
23	4	129	157	158
24	6	161	164	165
25	1	32	34	35
26	1	99	98	101
27	1	127	129	130
28	1	99	192	194
29	4	137	138	139
30	4	195	197	198
31	4	108	107	109
32	6	49	50	51
33	4	93	92	94
34	1	28	29	49
35	6	68	67	70
36	6	152	153	154
37	1	115	180	181
38	6	154	153	156
39	4	20	73	74
40	6	51	50	53
41	6	58	61	62
42	6	61	64	65
43	1	27	54	56
44	1	131	152	153
45	1	8	7	84
46	1	22	56	54
47	4	24	23	25
48	1	201	202	203
49	5	115	116	117
50	1	1	2	3
51	4	23	25	26
52	4	43	45	46
53	4	2	3	4
54	4	196	195	197
55	1	21	22	56
56	3	2	1	88
57	1	16	18	20
58	1	92	91	101
59	4	104	105	106
60	3	142	143	144
61	1	40	43	45
62	1	35	45	43
63	4	36	38	39
64	1	202	201	206
65	1	90	89	91
66	4	37	36	38
67	4	118	120	121
68	1	11	13	77
69	4	98	101	102
70	1	91	101	98
71	1	41	89	90
72	6	20	21	22
73	7	68	67	69
74	6	124	123	173
75	3	144	143	145
76	1	21	20	73
77	6	154	153	155
78	6	168	167	170
79	4	27	54	55
80	6	77	78	80
81	4	201	206	207
82	6	123	173	170
83	6	164	167	170
84	6	167	170	173
85	6	22	21	58
86	6	122	123	124
87	4	194	206	207
88	4	73	75	76
89	1	100	99	192
90	4	4	3	5
91	1	105	104	189
92	4	176	178	179
93	1	18	20	73
94	1	13	77	82
95	4	16	18	19
96	1	23	22	56
97	1	134	136	150
98	1	30	32	34
99	6	171	170	173
100	4	22	56	57
101	1	29	49	47
102	1	89	91	92
103	4	10	9	11
104	6	21	70	72
105	1	131	132	134
106	4	177	176	178
107	6	21	58	61
108	1	9	11	13
109	4	17	16	18
110	4	44	43	45
111	1	138	137	148
112	1	9	8	82
113	4	31	30	32
114	6	64	67	70
115	4	133	132	134
116	4	125	127	128
117	1	3	5	7
118	1	34	47	49
119	6	180	181	183
120	6	62	61	64
121	4	121	120	122
122	1	199	201	206
123	1	14	15	16
124	6	172	170	173
125	6	123	161	163
126	2	40	41	89
127	3	40	41	42
128	4	147	146	148
129	5	13	14	15
130	6	122	123	161
131	6	58	21	70
132	1	193	192	194
133	6	77	78	79
134	6	161	123	173
135	6	161	164	167
136	1	91	92	94
137	4	158	157	159
138	5	27	28	29
139	6	65	64	67
140	6	164	167	169
141	6	167	170	172
142	1	104	189	187
143	1	8	9	11
144	4	35	45	46
145	7	71	70	72
146	4	74	73	75
147	1	98	99	100
148	6	49	50	53
149	1	194	195	197
150	4	97	96	98
151	5	202	204	205
152	1	136	150	152
153	6	152	153	156
154	6	63	61	64
155	1	109	110	111
156	4	30	32	33
157	6	58	61	64
158	6	61	64	67
159	6	21	70	71
160	4	132	134	135
161	6	67	70	72
162	4	9	11	12
163	6	170	173	175
164	1	5	7	8
165	4	105	107	108
166	1	78	77	82
167	6	52	50	53
168	1	117	178	176
169	1	94	96	98
170	1	181	180	185
171	1	34	35	36
172	4	124	159	160
173	4	3	5	6
174	1	29	49	50
175	6	180	181	182
176	1	35	34	47
177	1	110	111	113
178	1	99	192	193
179	1	140	142	143
180	3	88	1	103
181	6	59	58	61
182	1	28	29	30
183	1	116	117	118
184	1	124	125	127
185	1	122	176	178
186	1	8	82	77
187	6	123	161	162
188	6	20	21	58
189	1	92	94	96
190	1	130	131	132
191	1	132	131	152
192	1	116	117	178
193	1	96	98	99
194	1	13	77	78
195	4	187	189	190
196	4	48	47	49
197	6	51	50	52
198	1	116	115	180
199	4	77	82	83
200	1	34	35	45
201	1	129	157	159
202	1	7	84	86
203	1	113	115	116
204	6	182	181	184
205	7	65	64	66
206	5	129	130	131
207	1	137	138	140
208	6	164	167	168
209	6	167	170	171
210	4	12	11	13
211	1	38	40	41
212	1	118	117	178
213	4	114	113	115
214	4	136	150	151
215	1	36	35	45
216	1	29	30	32
217	4	200	199	201
218	4	39	38	40
219	1	20	73	75
220	1	120	122	123
221	2	2	1	103
222	1	15	75	73
223	6	58	61	63
224	6	61	64	66
225	1	124	159	157
226	1	16	15	75
227	4	40	43	44
228	1	201	202	204
229	1	109	187	189
230	6	67	70	71
231	1	136	137	148
232	1	32	34	47
233	6	170	173	174
234	4	104	189	190
235	1	199	201	202
236	1	113	115	180
237	4	8	82	83
238	4	146	148	149
239	1	123	124	159
240	4	94	96	97
241	6	183	181	184
242	1	197	199	201
243	6	80	78	81
244	1	195	194	206
245	8	203	202	204
246	1	15	16	18
247	1	104	105	107
248	2	1	103	104
249	6	166	164	167
250	1	1	2	86
251	1	109	110	185
252	1	89	91	101
253	4	110	111	112
254	7	59	58	60
255	4	54	56	57
256	4	117	178	179
257	4	122	176	177
258	4	135	134	136
259	4	6	5	7
260	4	85	84	86
261	1	21	22	23
262	1	3	2	86
263	1	7	8	9
264	6	155	153	156
265	1	18	20	21
266	6	124	123	161
267	6	66	64	67
268	6	69	67	70
269	7	168	167	169
270	1	110	185	180
271	4	180	185	186
272	1	123	124	125
273	6	169	167	170
274	4	7	84	85
275	6	21	70	67
276	1	143	142	146
277	6	182	181	183
278	1	5	7	84
279	4	19	18	20
280	1	137	148	146
281	6	79	78	81
282	1	136	137	138
283	4	55	54	56
284	6	20	21	70
285	1	41	89	91
286	4	33	32	34
287	1	110	109	187
288	6	162	161	164
289	1	7	8	82
290	6	165	164	167
291	1	150	152	153
292	3	42	41	89
293	1	117	118	120
294	4	29	30	31
295	7	171	170	172
296	7	174	173	175
297	6	77	78	81
298	1	140	142	146
299	4	131	132	133
300	1	192	194	206
301	4	109	187	188
302	6	21	58	60
303	6	163	161	164
304	4	188	187	189
305	6	60	58	61
306	6	22	21	70
307	1	30	29	49
308	1	142	146	148
309	1	25	27	28
310	1	130	129	157
311	6	64	67	69
312	4	197	199	200
313	1	115	180	185
314	4	110	185	186
315	4	15	75	76
316	4	15	16	17
317	4	34	47	48
318	4	112	111	113
319	1	2	86	84
320	1	107	109	110
321	6	123	173	175
322	7	62	61	63
323	1	22	23	25
324	4	194	195	196
325	4	198	197	199
326	4	126	125	127
327	1	14	13	77
328	1	138	140	142
329	4	8	9	10
330	1	194	206	201
331	1	111	113	115
332	1	125	127	129
333	1	131	152	150
334	6	180	181	184
335	1	35	36	38
336	6	161	164	166
337	4	91	92	93
338	4	139	138	140
339	1	134	136	137
340	1	14	15	75
341	4	95	94	96
342	1	195	197	199
343	1	130	131	152
344	4	151	150	152
345	6	79	78	80
346	6	49	50	52
347	1	103	104	105
348	6	123	161	164
349	4	26	25	27
350	1	28	27	54
351	6	152	153	155
352	7	162	161	163
353	7	165	164	166
354	4	157	159	160
355	1	47	49	50
356	4	117	118	119
357	1	96	98	101
358	4	128	127	129
359	6	122	123	173
360	3	1	103	191
361	1	11	13	14
362	6	21	58	59
363	4	84	86	87
364	1	38	40	43
365	1	107	109	187
366	4	137	148	149
367	4	142	146	147
368	1	125	124	159
369	4	91	101	102
370	1	23	25	27
371	1	25	27	54
372	1	98	99	192
373	1	2	3	5
374	4	141	140	142
375	6	64	67	68
376	1	103	104	189
377	4	106	105	107

Dihedrals

1	19	171	170	173	174
2	1	117	118	120	121
3	1	91	101	98	99
4	19	63	61	64	66
5	1	116	115	180	181
6	1	200	199	201	206
7	8	65	64	67	70
8	1	2	3	5	7
9	1	30	29	49	50
10	16	100	99	192	193
11	1	142	146	148	149
12	1	110	185	180	181
13	16	193	192	194	206
14	1	21	22	56	54
15	6	29	49	50	52
16	6	13	77	78	80
17	1	139	138	140	141
18	1	3	5	7	8
19	1	8	9	11	12
20	1	118	117	178	179
21	1	93	92	94	96
22	1	130	131	152	153
23	1	3	2	86	84
24	7	22	21	58	59
25	6	47	49	50	53
26	1	7	84	86	87
27	1	35	34	47	49
28	1	116	115	180	185
29	1	36	35	45	46
30	1	192	194	206	207
31	1	117	178	176	122
32	19	166	164	167	168
33	19	169	167	170	172
34	1	35	45	43	40
35	6	58	21	20	73
36	5	115	116	117	118
37	16	90	89	91	101
38	6	115	180	181	182
39	1	118	120	122	123
40	5	127	129	130	131
41	9	61	58	21	70
41	10	61	58	21	70
41	11	61	58	21	70
42	1	198	197	199	200
43	1	48	47	49	50
44	1	110	109	187	188
45	1	41	40	43	45
46	1	91	92	94	95
47	1	9	11	13	77
48	4	5	7	8	9
49	1	123	122	176	178
50	1	125	124	159	157
51	7	124	123	173	175
52	19	59	58	61	63
53	1	23	25	27	28
54	1	91	101	98	96
55	1	194	195	197	199
56	1	5	7	84	85
57	1	127	125	124	159
58	1	25	27	54	56
59	1	19	18	20	73
60	1	124	159	157	158
61	1	30	29	49	47
62	1	31	30	29	49
63	7	20	21	58	60
64	7	124	123	161	162
65	1	134	136	150	152
66	5	27	28	29	30
67	6	161	123	122	176
68	1	109	110	185	186
69	6	183	181	180	185
70	6	70	21	20	73
71	8	58	21	70	72
72	1	105	107	109	110
73	4	5	7	8	82
74	1	106	105	107	109
75	1	132	131	152	153
76	1	131	152	150	136
77	1	114	113	115	116
78	19	163	161	164	166
79	1	39	38	40	43
80	19	60	58	61	63
81	8	161	164	167	169
82	19	66	64	67	69
83	19	62	61	64	65
84	19	65	64	67	69
85	1	107	109	187	189
86	8	64	67	70	72
87	19	162	161	164	165
88	1	40	43	45	46
89	1	197	199	201	202
90	1	2	3	5	6
91	1	7	8	9	10
92	1	27	54	56	57
93	1	18	20	73	75
94	1	12	11	13	14
95	5	129	130	131	132
96	1	121	120	122	176
97	1	130	131	132	134
98	1	134	132	131	152
99	1	29	49	47	48
100	6	29	49	50	51
101	9	123	173	170	167
101	10	123	173	170	167
101	11	123	173	170	167
102	8	164	167	170	172
103	6	125	124	123	161
104	1	2	86	84	7
105	1	33	32	34	35
106	1	17	16	18	19
107	6	182	181	180	185
108	5	117	116	115	180
109	2	1	103	104	105
110	1	34	35	45	43
111	8	21	70	67	69
112	6	47	49	50	52
113	1	35	34	47	48
114	4	107	109	110	185
115	4	36	35	34	47
116	1	34	35	36	37
117	16	96	98	99	192
118	1	115	180	185	186
119	1	108	107	109	110
120	1	130	129	157	159
121	1	29	49	47	34
122	6	150	152	153	156
123	1	137	148	146	147
124	1	104	189	187	109
125	1	196	195	197	198
126	1	41	40	43	44
127	16	199	201	202	203
128	1	3	2	86	87
129	1	123	122	176	177
130	1	127	129	157	159
131	5	15	14	13	77
132	1	105	107	109	187
133	19	59	58	61	62
134	6	18	20	21	70
135	8	58	61	64	65
136	1	25	23	22	56
137	1	23	25	27	54
138	1	23	22	56	54
139	1	194	195	197	198
140	2	1	103	104	189
141	1	200	199	201	202
142	1	202	201	206	207
143	6	22	21	20	73
144	2	3	2	1	88
145	1	25	27	54	55
146	1	30	32	34	35
147	1	132	134	136	150
148	1	141	140	142	143
149	1	28	29	49	47
150	8	168	167	170	173
151	16	193	192	194	195
152	1	140	138	137	148
153	1	129	157	159	160
154	1	134	136	150	151
155	2	140	142	143	144
156	1	16	18	20	21
157	16	99	192	194	206
158	1	111	110	185	180
159	6	20	21	22	23
160	6	131	152	153	156
161	1	122	176	178	179
162	8	58	21	70	71
163	1	3	5	7	84
164	1	32	34	47	49
165	2	86	2	1	88
166	1	89	91	101	102
167	1	106	105	107	108
168	1	136	137	138	140
169	1	137	138	140	142
170	1	110	111	113	114
171	1	55	54	56	57
172	19	163	161	164	165
173	6	184	181	180	185
174	19	165	164	167	169
175	19	60	58	61	62
176	9	123	161	164	167
176	10	123	161	164	167
176	11	123	161	164	167
177	8	161	164	167	168
178	19	172	170	173	174
179	19	66	64	67	68
180	1	105	104	189	187
181	1	116	117	178	176
182	1	107	109	187	188
183	8	64	67	70	71
184	9	164	161	123	173
184	10	164	161	123	173
184	11	164	161	123	173
185	9	161	123	173	170
185	10	161	123	173	170
185	11	161	123	173	170
186	1	78	77	82	83
187	1	16	15	75	73
188	9	21	58	61	64
188	10	21	58	61	64
188	11	21	58	61	64
189	1	18	20	73	74
190	1	24	23	22	56
191	1	147	146	148	149
192	1	8	82	77	78
193	1	94	96	98	101
194	1	133	132	134	136
195	6	159	124	123	161
196	1	95	94	96	98
197	8	164	167	170	171
198	3	88	1	103	104
199	1	125	127	129	157
200	1	197	195	194	206
201	8	21	70	67	68
202	1	26	25	27	54
203	1	22	23	25	26
204	1	123	124	125	127
205	16	98	99	192	193
206	16	41	89	91	101
207	1	10	9	11	13
208	8	161	123	173	174
209	1	177	176	178	179
210	1	125	127	129	130
211	4	134	136	137	138
212	1	11	9	8	82
213	1	9	8	82	77
214	1	35	36	38	40
215	7	122	123	161	163
216	6	20	21	22	56
217	1	17	16	15	75
218	1	1	2	86	84
219	1	195	194	206	201
220	1	29	30	32	33
221	5	115	116	117	178
222	1	199	201	206	207
223	8	61	64	67	69
224	1	111	113	115	116
225	7	22	21	70	72
226	1	136	137	148	146
227	1	123	124	159	160
228	19	68	67	70	71
229	1	127	129	157	158
230	1	15	75	73	74
231	7	22	21	58	61
232	1	20	73	75	76
233	6	18	20	21	22
234	8	166	164	167	170
235	1	12	11	13	77
236	1	195	197	199	201
237	1	32	30	29	49
238	6	115	180	181	184
239	1	21	20	73	74
240	19	168	167	170	172
241	1	37	36	38	39
242	1	188	187	189	190
243	5	25	27	28	29
244	1	14	13	77	82
245	1	28	27	54	55
246	6	23	22	21	58
247	6	131	152	153	155
248	4	32	34	35	36
249	1	124	159	157	129
250	1	126	125	127	129
251	4	148	137	136	150
252	1	103	104	105	106
253	1	138	137	148	146
254	1	137	138	140	141
255	1	138	140	142	143
256	1	120	118	117	178
257	1	118	120	122	176
258	1	97	96	98	99
259	19	69	67	70	72
260	6	56	22	21	58
261	19	165	164	167	168
262	1	8	7	84	86
263	1	194	206	201	199
264	5	13	14	15	16
265	1	120	122	176	178
266	1	15	75	73	20
267	1	137	136	150	152
268	1	23	22	56	57
269	19	63	61	64	65
270	8	162	161	123	173
271	16	203	202	201	206
272	1	34	35	45	46
273	1	111	113	115	180
274	1	1	2	3	5
275	1	112	111	113	115
276	1	92	91	101	98
277	1	106	105	104	189
278	1	28	29	49	50
279	1	14	15	75	73
280	7	124	123	161	164
281	8	21	58	61	63
282	8	167	170	173	175
283	1	133	132	134	135
284	6	13	77	78	79
285	1	95	94	96	97
286	1	93	92	94	95
287	1	109	110	111	113
288	1	10	9	8	82
289	7	20	21	70	72
290	1	123	124	159	157
291	6	80	78	77	82
292	7	122	123	173	175
293	7	124	123	173	170
294	2	42	41	40	43
295	6	120	122	123	124
296	1	123	124	125	126
297	1	36	38	40	41
298	1	105	104	189	190
299	8	62	61	64	67
300	1	116	117	118	120
301	1	116	117	178	179
302	1	141	140	142	146
303	8	162	161	164	167
304	5	129	130	131	152
305	1	92	91	101	102
306	1	28	29	30	32
307	1	133	132	131	152
308	1	192	194	195	197
309	16	100	99	98	101
310	19	169	167	170	171
311	1	16	15	75	76
312	16	99	192	194	195
313	1	19	18	20	21
314	1	99	98	101	102
315	1	16	18	20	73
316	1	14	15	16	18
317	16	100	99	192	194
318	7	122	123	161	162
319	1	30	32	34	47
320	1	92	94	96	98
321	1	181	180	185	186
322	1	140	142	146	148
323	1	22	56	54	55
324	6	159	124	123	173
325	1	6	5	7	8
326	6	29	49	50	53
327	9	58	21	70	67
327	10	58	21	70	67
327	11	58	21	70	67
328	1	93	92	91	101
329	1	89	91	101	98
330	1	8	9	11	13
331	1	104	105	107	109
332	8	61	64	67	68
333	7	22	21	70	71
334	1	37	36	35	45
335	7	124	123	173	174
336	4	134	136	137	148
337	8	59	58	21	70
338	1	110	185	180	115
339	1	126	125	124	159
340	14	42	41	89	91
340	15	42	41	89	91
341	19	166	164	167	169
342	6	115	180	181	183
343	7	20	21	58	59
344	14	40	41	89	91
344	15	40	41	89	91
345	19	168	167	170	171
346	1	131	152	150	151
347	1	109	187	189	190
348	5	131	130	129	157
349	1	1	2	86	87
350	4	82	8	7	84
351	1	126	125	127	128
352	1	38	40	43	45
353	1	15	16	18	20
354	1	137	148	146	142
355	1	136	137	148	149
356	1	8	7	84	85
357	9	21	70	67	64
357	10	21	70	67	64
357	11	21	70	67	64
358	9	58	61	64	67
358	10	58	61	64	67
358	11	58	61	64	67
359	3	88	1	103	191
360	1	192	194	195	196
361	1	137	136	150	151
362	1	5	7	84	86
363	1	113	111	110	185
364	2	145	143	142	146
365	1	119	118	120	122
366	19	65	64	67	68
367	1	74	73	75	76
368	1	1	2	3	4
369	4	111	110	109	187
370	2	144	143	142	146
371	7	124	123	161	163
372	6	122	123	124	159
373	1	143	142	146	148
374	6	124	123	122	176
375	1	34	47	49	50
376	1	4	3	5	7
377	5	27	28	29	49
378	6	120	122	123	161
379	1	130	131	132	133
380	1	13	77	82	83
381	1	108	107	109	187
382	2	38	40	41	42
383	1	11	13	77	82
384	1	138	137	148	149
385	1	44	43	45	46
386	5	13	14	15	75
387	8	163	161	123	173
388	8	163	161	164	167
389	1	194	206	201	202
390	16	96	98	99	100
391	6	47	49	50	51
392	8	60	58	61	64
393	9	161	164	167	170
393	10	161	164	167	170
393	11	161	164	167	170
394	8	66	64	67	70
395	1	158	157	159	160
396	1	24	23	25	27
397	19	62	61	64	66
398	1	116	117	118	119
399	19	162	161	164	166
400	3	2	1	103	104
401	16	90	89	91	92
402	1	113	115	180	181
403	1	28	29	30	31
404	1	31	30	32	34
405	1	4	3	2	86
406	1	14	15	75	76
407	1	14	15	16	17
408	1	130	129	157	158
409	1	94	92	91	101
410	1	111	110	185	186
411	1	14	13	77	78
412	1	92	94	96	97
413	1	22	56	54	27
414	1	138	140	142	146
415	1	109	110	185	180
416	1	140	142	146	147
417	1	18	16	15	75
418	6	150	152	153	155
419	6	125	124	123	173
420	9	164	167	170	173
420	10	164	167	170	173
420	11	164	167	170	173
421	1	8	82	77	13
422	6	81	78	77	82
423	1	104	105	107	108
424	1	17	16	18	20
425	1	104	189	187	188
426	6	122	123	124	125
427	6	18	20	21	58
428	1	34	35	36	38
429	1	103	104	189	187
430	1	113	115	180	185
431	21	203	202	204	205
431	22	203	202	204	205
432	4	138	137	136	150
433	1	7	8	9	11
434	17	42	41	89	90
434	18	42	41	89	90
435	1	89	91	92	94
436	6	173	123	122	176
437	2	3	2	1	103
438	12	40	41	89	90
438	13	40	41	89	90
439	8	60	58	21	70
440	1	107	105	104	189
441	8	123	173	170	172
442	1	131	132	134	136
443	1	196	195	197	199
444	1	32	34	47	48
445	1	38	40	43	44
446	1	136	137	138	139
447	16	199	201	202	204
448	1	15	16	18	19
449	5	11	13	14	15
450	2	86	2	1	103
451	1	36	35	45	43
452	1	39	38	40	41
453	1	33	32	34	47
454	8	58	61	64	66