Title

207 atoms
222 bonds
377 angles
599 dihedrals
276 impropers

11 atom types
15 bond types
8 angle types
22 dihedral types
3 improper types
-22.33699989 77.66300011 xlo xhi
-4.140999794 95.85900021 ylo yhi
-24.47699928 75.52300072 zlo zhi
0.0 0.0 0.0 xy xz yz

Masses

1	14.00672
2	12.01078
3	1.007947
4	15.99943
5	12.01078
6	1.007947
7	18.998403
8	1.007947
9	15.99943
10	15.99943
11	1.007947


Pair Coeffs

1	0.16769152	3.206876
2	0.086879315	3.4806469
3	0.015611343	2.5725815
4	0.16846514	3.0251065
5	0.10884061	3.3795318
6	0.014090815	1.1034277
7	0.061	3.1181455
8	0.015779483	2.6445434
9	0.2102061	3.0398122
10	0.20947353	2.99716
11	1.2326e-05	0.53453923

Bond Coeffs

1 harmonic	390.03554688505	1.390160554689
2 harmonic	505.144496193	1.019481865027
3 harmonic	422.7150220147	1.421786517481
4 harmonic	360.7852444772	1.387193227181
5 harmonic	397.2545789619	1.085358495916
6 harmonic	279.1350963404	1.454628925034
7 harmonic	425.69104206635	1.362945806494
8 harmonic	289.73813263395	1.498646816465
9 harmonic	264.62148576755	1.52190126495
10 harmonic	492.76746816345	1.381897776683
11 harmonic	340.45121009905	1.358690858053
12 harmonic	370.04670688625	1.093899492634
13 harmonic	582.698766451	1.225198386222
14 harmonic	385.7604595587	1.369745182308
15 harmonic	543.5267831885	0.9716763312559


Angle Coeffs

1 harmonic	57.8982893754	126.8062420451
2 harmonic	55.42182150775	117.3465570514
3 harmonic	63.44422595415	115.5071327674
4 harmonic	34.066775159195	129.1835929926
5 harmonic	65.09061609600001	110.3538806181
6 harmonic	53.20531626545	116.5475862634
7 harmonic	48.776492647595	115.6030999533
8 harmonic	201.41175231035	127.4691416191


Dihedral Coeffs

1 fourier 1	3.661930099076	2	180
2 fourier 1	1.193093382682	2	180
3 fourier 1	0.02021088501612	1	0
4 fourier 1	1.163235555439	2	180
5 fourier 1	1.532232714475	2	180
6 fourier 1	0.02664938770063	3	0
7 fourier 1	0.1155372516788	3	0
8 fourier 1	0.1040663847541	3	0
9 fourier 1	0.09223874044423	3	0
10 fourier 1	0.3159935921949	2	180
11 fourier 1	0.3247796806857	1	180
12 fourier 1	3.101948770557	2	180
13 fourier 1	-0.4252153282372	1	0
14 fourier 1	1.809047390003	2	180
15 fourier 1	-0.04816277792592	1	0
16 fourier 1	0.9974165607242	2	180
17 fourier 1	2.348375642009	2	180
18 fourier 1	1.256156174911	1	0
19 fourier 1	0.1911926717192	3	0
20 fourier 1	2.687457892086	2	180
21 fourier 1	2.772607909663	2	180
22 fourier 1	0.09692684957115	1	0


Improper Coeffs

1 0.3666666666666667	-1	2
2 0.3333333333333333	-1	2
3 3.5	-1	2


Atoms

1	1	1	-0.41301301	14.317	0.495	-0.056000002
2	1	2	0.124291	12.923	0.41	0.25799999
3	1	2	-0.40888199	12.207	1.527	0.48800001
4	1	3	0.219171	12.682	2.5009999	0.447
5	1	2	-0.1173	10.761	1.434	0.79000002
6	1	3	0.201887	10.206	2.3499999	0.96799999
7	1	2	-0.12997	10.143	0.237	0.81800002
8	1	2	-0.13614701	8.6929998	0.148	1.094
9	1	2	-0.132736	7.8779998	-0.51300001	0.25099999
10	1	3	0.20518699	8.2690001	-1.003	-0.625
11	1	2	-0.29836199	6.421	-0.51300001	0.47499999
12	1	3	0.22174101	5.7909999	-1.021	-0.244
13	1	2	0.32659501	5.8920002	0.12800001	1.536
14	1	4	-0.274533	4.5079999	0.198	1.765
15	1	2	0.25627699	3.5179999	-0.156	0.83899999
16	1	2	-0.27015799	2.7720001	0.80500001	0.26899999
17	1	3	0.22543	2.961	1.845	0.49599999
18	1	2	-0.177453	1.6569999	0.44999999	-0.62599999
19	1	3	0.21574099	1.054	1.252	-1.041
20	1	2	-0.189312	1.349	-0.84500003	-0.87900001
21	1	5	0.014921	0.077	-1.164	-1.6950001
22	1	2	-0.189312	-1.137	-0.59600002	-0.912
23	1	2	-0.177453	-2.2279999	-0.055	-1.507
24	1	3	0.21574099	-2.313	0.028000001	-2.5780001
25	1	2	-0.27015799	-3.3440001	0.49700001	-0.70599997
26	1	3	0.22543	-4.1739998	0.97899997	-1.214
27	1	2	0.25627699	-3.3069999	0.433	0.634
28	1	4	-0.274533	-4.3099999	0.99199998	1.4349999
29	1	2	0.32659501	-5.677	1.028	1.118
30	1	2	-0.29836199	-6.2979999	2.2160001	1.122
31	1	3	0.22174101	-5.7379999	3.122	1.316
32	1	2	-0.132736	-7.75	2.309	0.88099998
33	1	3	0.20518699	-8.2119999	3.283	0.92400002
34	1	2	-0.13614701	-8.4779997	1.2029999	0.65100002
35	1	2	-0.12997	-9.9549999	1.273	0.52600002
36	1	2	-0.131253	-10.613	0.495	-0.354
37	1	3	0.201887	-10.076	-0.15899999	-1.029
38	1	2	-0.37713301	-12.091	0.51800001	-0.41800001
39	1	3	0.21571299	-12.599	-0.131	-1.1160001
40	1	2	0.196602	-12.791	1.306	0.40900001
41	1	1	-0.53317499	-14.219	1.313	0.37599999
42	1	6	0.31829	-14.765	1.936	1.012
43	1	2	-0.37713301	-12.074	2.171	1.369
44	1	3	0.21571299	-12.627	2.813	2.0409999
45	1	2	-0.131253	-10.738	2.161	1.4220001
46	1	3	0.201887	-10.232	2.773	2.1570001
47	1	2	-0.059583999	-7.7940001	-0.113	0.62300003
48	1	3	0.20429599	-8.3909998	-1.001	0.46200001
49	1	2	-0.324231	-6.4720001	-0.22	0.87400001
50	1	5	0.76554102	-5.8189998	-1.5880001	0.94499999
51	1	7	-0.210858	-6.7529998	-2.586	1.1670001
52	1	7	-0.210858	-5.1599998	-1.854	-0.245
53	1	7	-0.210858	-4.9109998	-1.631	1.988
54	1	2	-0.27015799	-2.1619999	-0.222	1.298
55	1	3	0.22543	-2.151	-0.32300001	2.378
56	1	2	-0.177453	-1.1569999	-0.72799999	0.57700002
57	1	3	0.21574099	-0.354	-1.247	1.089
58	1	5	-0.129557	-0.133	-2.698	-1.844
59	1	8	0.109963	-0.29800001	-3.1689999	-0.85100001
60	1	8	0.109963	0.77399999	-3.1570001	-2.293
61	1	5	-0.12931	-1.324	-3.0539999	-2.7509999
62	1	8	0.112121	-1.279	-4.1409998	-2.9719999
63	1	8	0.112121	-2.2780001	-2.8800001	-2.2049999
64	1	5	-0.15088101	-1.352	-2.2709999	-4.0760002
65	1	8	0.114848	-2.237	-1.607	-4.1030002
66	1	8	0.114848	-1.471	-2.9779999	-4.9250002
67	1	5	-0.12931	-0.090999998	-1.438	-4.3130002
68	1	8	0.112121	-0.227	-0.81300002	-5.223
69	1	8	0.112121	0.75599998	-2.131	-4.5139999
70	1	5	-0.129557	0.27200001	-0.52399999	-3.1259999
71	1	8	0.109963	1.342	-0.26699999	-3.2909999
72	1	8	0.109963	-0.25099999	0.45300001	-3.217
73	1	2	-0.177453	2.214	-1.9069999	-0.264
74	1	3	0.21574099	2.0250001	-2.9560001	-0.42699999
75	1	2	-0.27015799	3.2349999	-1.574	0.54500002
76	1	3	0.22543	3.835	-2.349	1.005
77	1	2	-0.324231	6.7930002	0.81199998	2.5090001
78	1	5	0.76554102	6.1960001	1.451	3.7390001
79	1	7	-0.210859	5.6079998	0.47400001	4.5190001
80	1	7	-0.210859	7.1529999	2.115	4.4920001
81	1	7	-0.210859	5.2309999	2.3640001	3.365
82	1	2	-0.059583999	8.1219997	0.81999999	2.2839999
83	1	3	0.20429599	8.8009996	1.303	2.973
84	1	2	-0.117301	10.936	-0.99400002	0.56400001
85	1	3	0.201887	10.46	-1.97	0.58700001
86	1	2	-0.40888199	12.252	-0.91000003	0.31799999
87	1	3	0.219171	12.832	-1.816	0.148
88	1	6	0.371317	14.89	-0.37400001	-0.13600001
89	1	2	0.766666	-14.759	0.68300003	-0.289
90	1	9	-0.66280901	-14.591	0.81900001	-1.53
91	1	2	-0.35553399	-15.687	-0.32800001	0.25299999
92	1	2	-0.077816002	-16.388	-1.1440001	-0.55599999
93	1	3	0.220833	-16.292	-1.082	-1.633
94	1	2	-0.245718	-17.309	-2.1459999	0.017000001
95	1	3	0.210439	-17.868999	-2.7980001	-0.64200002
96	1	2	-0.02617	-17.452	-2.2490001	1.3430001
97	1	3	0.220245	-18.131001	-2.9890001	1.747
98	1	2	-0.294799	-16.686001	-1.357	2.2490001
99	1	2	0.58652103	-16.837	-1.464	3.711
100	1	9	-0.53353101	-17.617001	-2.312	4.2189999
101	1	2	0.053693999	-15.848	-0.44600001	1.723
102	1	3	0.23794401	-15.282	0.213	2.372
103	1	1	-0.41301301	14.755	1.408	-0.28799999
104	1	2	0.124291	15.797	1.493	-1.266
105	1	2	-0.40888199	16.389	0.377	-1.73
106	1	3	0.219171	16.089001	-0.59799999	-1.36
107	1	2	-0.1173	17.450001	0.46900001	-2.7579999
108	1	3	0.201887	17.909	-0.447	-3.1170001
109	1	2	-0.12997	17.82	1.666	-3.2539999
110	1	2	-0.13614701	18.861	1.755	-4.3000002
111	1	2	-0.132736	18.621	2.4159999	-5.447
112	1	3	0.20518699	17.676001	2.9070001	-5.6139998
113	1	2	-0.29836199	19.622999	2.4170001	-6.527
114	1	3	0.22174101	19.381001	2.925	-7.4520001
115	1	2	0.32659501	20.799	1.775	-6.3709998
116	1	4	-0.274533	21.764	1.705	-7.388
117	1	2	0.25627699	21.552999	2.059	-8.7270002
118	1	2	-0.27015799	21.5	1.099	-9.665
119	1	3	0.22543	21.582001	0.057999998	-9.3800001
120	1	2	-0.177453	21.384001	1.4529999	-11.089
121	1	3	0.21574099	21.379	0.65100002	-11.821
122	1	2	-0.189312	21.348	2.7479999	-11.486
123	1	5	0.014921	21.385	3.0669999	-12.997
124	1	2	-0.189312	22.714001	2.4990001	-13.563
125	1	2	-0.177453	22.834	1.9579999	-14.8
126	1	3	0.21574099	21.993999	1.875	-15.471
127	1	2	-0.27015799	24.122999	1.406	-15.275
128	1	3	0.22543	24.167999	0.92400002	-16.246
129	1	2	0.25627699	25.211	1.47	-14.492
130	1	4	-0.274533	26.437	0.91100001	-14.873
131	1	2	0.32659501	26.941999	0.875	-16.183001
132	1	2	-0.29836199	27.292	-0.31200001	-16.695
133	1	3	0.22174101	27.139	-1.219	-16.122
134	1	2	-0.132736	27.908001	-0.40599999	-18.032
135	1	3	0.20518699	28.202	-1.38	-18.391001
136	1	2	-0.13614701	28.125999	0.69999999	-18.764
137	1	2	-0.12997	28.851	0.63	-20.056999
138	1	2	-0.080760002	28.490999	1.408	-21.096001
139	1	3	0.201887	27.631001	2.062	-21.028999
140	1	2	-0.45297101	29.266001	1.385	-22.355
141	1	3	0.22760201	28.974001	2.0339999	-23.167
142	1	2	0.31476101	30.344999	0.597	-22.469999
143	1	1	-0.84583002	31.118	0.58999997	-23.672001
144	1	6	0.36421299	30.875	1.209	-24.476999
145	1	6	0.36421299	31.951	-0.033	-23.766001
146	1	2	-0.45297101	30.737	-0.26800001	-21.337999
147	1	3	0.22760201	31.603001	-0.91000003	-21.419001
148	1	2	-0.080760002	30.032	-0.25799999	-20.202
149	1	3	0.201887	30.356001	-0.87	-19.371
150	1	2	-0.059583999	27.719	2.016	-18.214001
151	1	3	0.20429599	27.921	2.904	-18.798
152	1	2	-0.324231	27.184999	2.1240001	-16.978001
153	1	5	0.76554102	26.877001	3.4909999	-16.398001
154	1	7	-0.210858	27.584999	4.4889998	-17.046
155	1	7	-0.210858	25.523001	3.757	-16.52
156	1	7	-0.210858	27.232	3.5339999	-15.061
157	1	2	-0.27015799	25.118999	2.1259999	-13.172
158	1	3	0.22543	26.007	2.2260001	-12.558
159	1	2	-0.177453	23.958	2.631	-12.745
160	1	3	0.21574099	23.931999	3.1500001	-11.793
161	1	5	-0.129557	21.379999	4.6009998	-13.255
162	1	8	0.109963	22.295	5.072	-12.834
163	1	8	0.109963	20.499001	5.0609999	-12.755
164	1	5	-0.12931	21.297001	4.9569998	-14.749
165	1	8	0.112121	21.087999	6.0450001	-14.835
166	1	8	0.112121	22.283001	4.783	-15.233
167	1	5	-0.15088101	20.215	4.1739998	-15.516
168	1	8	0.114848	20.688999	3.51	-16.264
169	1	8	0.114848	19.579	4.881	-16.09
170	1	5	-0.12931	19.312	3.3410001	-14.604
171	1	8	0.112121	18.634001	2.7160001	-15.227
172	1	8	0.112121	18.671	4.0339999	-14.016
173	1	5	-0.129557	20.091	2.427	-13.638
174	1	8	0.109963	19.354	2.1700001	-12.845
175	1	8	0.109963	20.309	1.451	-14.122
176	1	2	-0.177453	21.371	3.8110001	-10.425
177	1	3	0.21574099	21.341999	4.8590002	-10.673
178	1	2	-0.27015799	21.468	3.477	-9.1260004
179	1	3	0.22543	21.513	4.2529998	-8.3710003
180	1	2	-0.324231	21.099001	1.092	-5.079
181	1	5	0.76554102	22.451	0.45199999	-4.8829999
182	1	7	-0.210859	23.427999	1.429	-4.9330001
183	1	7	-0.210859	22.539	-0.212	-3.6689999
184	1	7	-0.210859	22.684	-0.461	-5.8920002
185	1	2	-0.059583999	20.167	1.0829999	-4.105
186	1	3	0.20429599	20.357	0.60000002	-3.1559999
187	1	2	-0.117301	17.164	2.8970001	-2.74
188	1	3	0.201887	17.451	3.8729999	-3.1210001
189	1	2	-0.40888199	16.223	2.8139999	-1.788
190	1	3	0.219171	15.757	3.72	-1.403
191	1	6	0.371317	14.367	2.277	0.141
192	1	2	0.58652103	-16.275999	-0.81099999	4.3660002
193	1	9	-0.53353101	-15.017	-0.84600002	4.3299999
194	1	2	-0.29030201	-16.990999	0.098999999	5.2810001
195	1	2	-0.02617	-16.329	0.926	6.1100001
196	1	3	0.220245	-15.246	0.94800001	6.131
197	1	2	-0.246868	-17.072001	1.825	7.013
198	1	3	0.210439	-16.531	2.4860001	7.677
199	1	2	-0.063772	-18.41	1.824	7.013
200	1	3	0.23127601	-18.938	2.4909999	7.6830001
201	1	2	-0.220015	-19.160999	0.91900003	6.1059999
202	1	2	0.83761698	-20.639999	0.93000001	6.118
203	1	9	-0.493103	-21.295	0.169	5.3540001
204	1	10	-0.66638499	-21.323999	1.785	6.9770002
205	1	11	0.416136	-22.337	1.803	6.9959998
206	1	2	0.070338003	-18.475	0.101	5.2839999
207	1	3	0.248004	-18.999001	-0.56900001	4.612

Bonds

1	1	1	2
2	2	1	88
3	3	1	103
4	4	2	3
5	4	2	86
6	5	3	4
7	4	3	5
8	5	5	6
9	4	5	7
10	6	7	8
11	4	7	84
12	4	8	9
13	4	8	82
14	5	9	10
15	4	9	11
16	5	11	12
17	4	11	13
18	7	13	14
19	4	13	77
20	7	14	15
21	4	15	16
22	4	15	75
23	5	16	17
24	4	16	18
25	5	18	19
26	4	18	20
27	8	20	21
28	4	20	73
29	8	21	22
30	9	21	58
31	9	21	70
32	4	22	23
33	4	22	56
34	5	23	24
35	4	23	25
36	5	25	26
37	4	25	27
38	7	27	28
39	4	27	54
40	7	28	29
41	4	29	30
42	4	29	49
43	5	30	31
44	4	30	32
45	5	32	33
46	4	32	34
47	6	34	35
48	4	34	47
49	4	35	36
50	4	35	45
51	5	36	37
52	4	36	38
53	5	38	39
54	4	38	40
55	1	40	41
56	4	40	43
57	2	41	42
58	10	41	89
59	5	43	44
60	4	43	45
61	5	45	46
62	5	47	48
63	4	47	49
64	8	49	50
65	11	50	51
66	11	50	52
67	11	50	53
68	5	54	55
69	4	54	56
70	5	56	57
71	12	58	59
72	12	58	60
73	9	58	61
74	12	61	62
75	12	61	63
76	9	61	64
77	12	64	65
78	12	64	66
79	9	64	67
80	12	67	68
81	12	67	69
82	9	67	70
83	12	70	71
84	12	70	72
85	5	73	74
86	4	73	75
87	5	75	76
88	8	77	78
89	4	77	82
90	11	78	79
91	11	78	80
92	11	78	81
93	5	82	83
94	5	84	85
95	4	84	86
96	5	86	87
97	13	89	90
98	6	89	91
99	4	91	92
100	4	91	101
101	5	92	93
102	4	92	94
103	5	94	95
104	4	94	96
105	5	96	97
106	4	96	98
107	6	98	99
108	4	98	101
109	13	99	100
110	6	99	192
111	5	101	102
112	1	103	104
113	2	103	191
114	4	104	105
115	4	104	189
116	5	105	106
117	4	105	107
118	5	107	108
119	4	107	109
120	6	109	110
121	4	109	187
122	4	110	111
123	4	110	185
124	5	111	112
125	4	111	113
126	5	113	114
127	4	113	115
128	7	115	116
129	4	115	180
130	7	116	117
131	4	117	118
132	4	117	178
133	5	118	119
134	4	118	120
135	5	120	121
136	4	120	122
137	8	122	123
138	4	122	176
139	8	123	124
140	9	123	161
141	9	123	173
142	4	124	125
143	4	124	159
144	5	125	126
145	4	125	127
146	5	127	128
147	4	127	129
148	7	129	130
149	4	129	157
150	7	130	131
151	4	131	132
152	4	131	152
153	5	132	133
154	4	132	134
155	5	134	135
156	4	134	136
157	6	136	137
158	4	136	150
159	4	137	138
160	4	137	148
161	5	138	139
162	4	138	140
163	5	140	141
164	4	140	142
165	1	142	143
166	4	142	146
167	2	143	144
168	2	143	145
169	5	146	147
170	4	146	148
171	5	148	149
172	5	150	151
173	4	150	152
174	8	152	153
175	11	153	154
176	11	153	155
177	11	153	156
178	5	157	158
179	4	157	159
180	5	159	160
181	12	161	162
182	12	161	163
183	9	161	164
184	12	164	165
185	12	164	166
186	9	164	167
187	12	167	168
188	12	167	169
189	9	167	170
190	12	170	171
191	12	170	172
192	9	170	173
193	12	173	174
194	12	173	175
195	5	176	177
196	4	176	178
197	5	178	179
198	8	180	181
199	4	180	185
200	11	181	182
201	11	181	183
202	11	181	184
203	5	185	186
204	5	187	188
205	4	187	189
206	5	189	190
207	13	192	193
208	6	192	194
209	4	194	195
210	4	194	206
211	5	195	196
212	4	195	197
213	5	197	198
214	4	197	199
215	5	199	200
216	4	199	201
217	6	201	202
218	4	201	206
219	13	202	203
220	14	202	204
221	15	204	205
222	5	206	207

Angles

1	1	197	199	201
2	6	20	21	22
3	6	165	164	167
4	6	124	123	173
5	6	122	123	124
6	1	2	86	84
7	4	48	47	49
8	1	113	115	180
9	4	43	45	46
10	4	3	5	6
11	6	62	61	64
12	4	110	111	112
13	1	136	137	138
14	4	54	56	57
15	6	21	58	61
16	1	38	40	43
17	1	89	91	101
18	1	94	96	98
19	3	104	103	191
20	6	60	58	61
21	4	30	32	33
22	4	129	157	158
23	4	125	127	128
24	6	167	170	171
25	4	108	107	109
26	1	138	140	142
27	3	144	143	145
28	1	8	82	77
29	6	69	67	70
30	1	123	124	125
31	3	88	1	103
32	1	7	8	82
33	1	116	117	178
34	6	49	50	53
35	6	63	61	64
36	1	131	152	150
37	1	194	195	197
38	6	77	78	79
39	4	157	159	160
40	4	109	187	188
41	6	66	64	67
42	1	117	118	120
43	4	117	178	179
44	4	2	3	4
45	2	1	103	104
46	7	171	170	172
47	7	174	173	175
48	4	85	84	86
49	1	11	13	77
50	5	129	130	131
51	4	9	11	12
52	4	104	105	106
53	3	2	1	88
54	4	188	187	189
55	1	130	129	157
56	4	73	75	76
57	6	22	21	70
58	1	5	7	84
59	4	180	185	186
60	4	151	150	152
61	6	154	153	155
62	1	136	150	152
63	4	84	86	87
64	4	39	38	40
65	7	165	164	166
66	1	99	192	194
67	4	112	111	113
68	4	8	82	83
69	6	79	78	81
70	1	107	109	110
71	7	62	61	63
72	1	136	137	148
73	4	198	197	199
74	1	118	120	122
75	6	21	58	60
76	1	109	110	185
77	1	110	185	180
78	1	30	29	49
79	7	71	70	72
80	4	94	96	97
81	1	47	49	50
82	6	58	61	63
83	1	21	22	23
84	1	35	36	38
85	6	67	70	72
86	6	123	161	163
87	6	49	50	52
88	6	20	21	58
89	1	34	47	49
90	1	29	49	47
91	6	64	67	70
92	1	78	77	82
93	1	14	13	77
94	6	180	181	182
95	6	123	173	175
96	1	22	23	25
97	1	127	129	157
98	4	77	82	83
99	4	194	195	196
100	1	21	22	56
101	6	182	181	184
102	4	117	118	119
103	1	201	202	204
104	4	128	127	129
105	1	91	92	94
106	7	59	58	60
107	4	19	18	20
108	1	115	180	181
109	1	140	142	143
110	4	110	185	186
111	4	95	94	96
112	6	166	164	167
113	1	131	152	153
114	4	136	150	151
115	1	7	84	86
116	1	23	22	56
117	7	68	67	69
118	1	130	131	132
119	1	99	192	193
120	4	141	140	142
121	1	127	129	130
122	1	34	35	36
123	6	79	78	80
124	6	61	64	66
125	4	26	25	27
126	4	158	157	159
127	1	150	152	153
128	1	98	99	192
129	1	115	180	185
130	6	161	164	166
131	6	21	58	59
132	6	122	123	173
133	6	183	181	184
134	1	107	109	187
135	1	202	201	206
136	1	15	16	18
137	1	14	15	75
138	6	162	161	164
139	4	176	178	179
140	4	119	118	120
141	1	18	20	73
142	6	58	61	62
143	6	170	173	174
144	6	163	161	164
145	1	29	30	32
146	6	152	153	155
147	4	187	189	190
148	4	35	36	37
149	1	131	132	134
150	1	32	34	35
151	6	51	50	53
152	6	80	78	81
153	6	123	161	162
154	1	194	206	201
155	4	137	138	139
156	4	34	47	48
157	3	142	143	145
158	1	137	136	150
159	6	123	173	174
160	1	192	194	206
161	4	22	23	24
162	6	167	170	173
163	1	123	122	176
164	1	41	40	43
165	1	98	99	100
166	1	36	38	40
167	6	61	64	65
168	6	182	181	183
169	4	104	189	190
170	4	122	176	177
171	1	138	137	148
172	1	20	73	75
173	1	201	202	203
174	4	91	92	93
175	6	124	123	161
176	6	164	167	169
177	4	33	32	34
178	4	121	120	122
179	1	143	142	146
180	4	111	113	114
181	1	29	49	50
182	3	1	103	191
183	6	172	170	173
184	4	135	134	136
185	4	98	101	102
186	4	197	199	200
187	1	28	29	30
188	1	110	109	187
189	1	120	122	123
190	1	41	89	91
191	4	137	148	149
192	1	111	110	185
193	6	161	164	165
194	1	140	142	146
195	4	8	9	10
196	4	194	206	207
197	6	21	70	72
198	4	15	16	17
199	4	138	140	141
200	4	22	56	57
201	1	195	194	206
202	6	152	153	154
203	1	104	189	187
204	4	131	132	133
205	6	51	50	52
206	6	22	21	58
207	1	16	18	20
208	1	8	7	84
209	1	30	32	34
210	1	125	127	129
211	1	195	197	199
212	1	181	180	185
213	4	36	38	39
214	4	35	45	46
215	4	201	206	207
216	4	15	75	76
217	1	142	146	148
218	6	164	167	168
219	1	137	148	146
220	8	203	202	204
221	4	93	92	94
222	1	193	192	194
223	6	180	181	184
224	1	1	2	3
225	6	58	21	70
226	1	92	94	96
227	1	124	125	127
228	1	25	27	28
229	1	130	131	152
230	1	199	201	206
231	4	106	105	107
232	1	105	104	189
233	4	91	101	102
234	1	27	54	56
235	1	34	35	45
236	1	22	56	54
237	1	134	136	137
238	4	10	9	11
239	1	41	89	90
240	1	96	98	101
241	1	7	8	9
242	6	171	170	173
243	1	9	11	13
244	4	118	120	121
245	1	104	105	107
246	6	168	167	170
247	1	105	107	109
248	1	38	40	41
249	6	21	70	71
250	6	154	153	156
251	6	123	173	170
252	6	161	123	173
253	4	31	30	32
254	4	4	3	5
255	1	134	136	150
256	4	12	11	13
257	1	35	45	43
258	1	15	75	73
259	4	133	132	134
260	6	67	70	71
261	4	147	146	148
262	4	16	18	19
263	1	28	27	54
264	1	25	27	54
265	6	49	50	51
266	4	97	96	98
267	1	89	91	92
268	6	64	67	69
269	4	44	43	45
270	1	23	25	27
271	1	132	134	136
272	1	192	194	195
273	4	195	197	198
274	1	9	8	82
275	1	125	124	159
276	6	65	64	67
277	4	37	36	38
278	6	58	61	64
279	4	17	16	18
280	1	116	117	118
281	1	40	43	45
282	4	142	146	147
283	4	196	195	197
284	1	21	20	73
285	1	8	9	11
286	6	123	161	164
287	5	27	28	29
288	1	13	77	78
289	1	92	91	101
290	6	180	181	183
291	3	42	41	89
292	4	92	94	95
293	4	124	125	126
294	4	124	159	160
295	4	7	84	85
296	6	122	123	161
297	6	77	78	81
298	4	27	54	55
299	1	18	20	21
300	1	118	117	178
301	5	13	14	15
302	2	40	41	89
303	4	6	5	7
304	1	11	13	14
305	3	40	41	42
306	6	59	58	61
307	7	168	167	169
308	1	5	7	8
309	1	13	77	82
310	4	105	107	108
311	5	115	116	117
312	4	146	148	149
313	6	20	21	70
314	6	68	67	70
315	7	162	161	163
316	1	103	104	105
317	1	14	15	16
318	1	100	99	192
319	4	29	30	31
320	4	74	73	75
321	4	55	54	56
322	6	61	64	67
323	1	3	5	7
324	1	110	111	113
325	4	177	176	178
326	2	2	1	103
327	1	35	34	47
328	1	120	122	176
329	6	161	164	167
330	1	113	115	116
331	3	142	143	144
332	6	64	67	68
333	4	23	25	26
334	1	129	157	159
335	4	132	134	135
336	1	124	159	157
337	1	199	201	202
338	6	167	170	172
339	1	36	35	45
340	6	52	50	53
341	7	65	64	66
342	6	170	173	175
343	1	109	110	111
344	1	91	101	98
345	6	152	153	156
346	4	2	86	87
347	1	117	178	176
348	4	40	43	44
349	4	20	73	74
350	4	24	23	25
351	1	32	34	47
352	4	126	125	127
353	1	1	2	86
354	1	137	138	140
355	1	132	131	152
356	6	21	70	67
357	4	114	113	115
358	1	28	29	49
359	5	202	204	205
360	4	200	199	201
361	6	77	78	80
362	1	90	89	91
363	1	109	187	189
364	1	123	124	159
365	6	169	167	170
366	1	122	176	178
367	1	2	3	5
368	1	96	98	99
369	6	164	167	170
370	1	3	2	86
371	1	16	15	75
372	1	116	115	180
373	4	139	138	140
374	6	155	153	156
375	1	103	104	189
376	1	111	113	115
377	1	99	98	101

Dihedrals

1	7	122	123	173	175
2	1	37	36	35	45
3	16	193	192	194	195
4	1	34	35	36	37
5	16	96	98	99	100
6	1	104	105	107	109
7	1	8	9	11	12
8	1	132	134	136	137
9	1	118	120	122	176
10	1	94	96	98	99
11	1	141	140	142	143
12	6	150	152	153	154
13	21	203	202	204	205
13	22	203	202	204	205
14	3	2	1	103	104
15	1	139	138	140	141
16	1	7	8	9	11
17	19	63	61	64	66
18	6	184	181	180	185
19	19	60	58	61	62
20	1	39	38	40	41
21	1	23	25	27	28
22	1	136	137	148	146
23	1	29	49	47	34
24	19	166	164	167	168
25	1	137	138	140	142
26	2	1	103	104	105
27	1	13	77	82	83
28	1	114	113	115	116
29	1	36	38	40	43
30	8	163	161	164	167
31	1	117	118	120	121
32	1	28	29	49	47
33	19	168	167	170	172
34	1	192	194	195	197
35	1	194	195	197	199
36	1	2	86	84	7
37	8	59	58	61	64
38	1	113	115	180	181
39	4	5	7	8	9
40	14	40	41	89	91
40	15	40	41	89	91
41	1	138	140	142	146
42	8	21	70	67	68
43	1	111	113	115	180
44	1	133	132	134	136
45	7	124	123	161	163
46	1	116	117	118	119
47	1	14	15	75	73
48	9	21	58	61	64
48	10	21	58	61	64
48	11	21	58	61	64
49	6	120	122	123	173
50	9	61	64	67	70
50	10	61	64	67	70
50	11	61	64	67	70
51	1	91	92	94	96
52	1	107	109	187	188
53	7	124	123	173	175
54	1	113	111	110	185
55	1	1	2	3	5
56	1	134	136	150	151
57	16	100	99	98	101
58	2	42	41	40	43
59	1	32	30	29	49
60	1	94	92	91	101
61	1	130	131	132	134
62	1	113	115	180	185
63	19	63	61	64	65
64	16	204	202	201	206
65	19	169	167	170	172
66	1	110	185	180	115
67	16	99	192	194	195
68	1	110	111	113	115
69	19	171	170	173	174
70	1	34	35	45	46
71	1	23	25	27	54
72	1	20	73	75	76
73	1	9	11	13	77
74	2	105	104	103	191
75	1	4	3	5	6
76	1	8	7	84	85
77	5	127	129	130	131
78	1	137	136	150	152
79	7	122	123	161	162
80	1	2	3	5	7
81	1	197	199	201	202
82	1	140	142	146	147
83	7	22	21	70	72
84	7	122	123	173	174
85	1	202	201	206	207
86	1	1	2	86	84
87	1	40	43	45	46
88	1	130	131	152	153
89	8	66	64	67	70
90	1	116	115	180	181
91	1	96	98	101	102
92	1	104	105	107	108
93	1	105	107	109	110
94	6	47	49	50	53
95	1	121	120	122	176
96	1	106	105	107	109
97	2	1	103	104	189
98	1	21	22	23	25
99	1	195	194	206	201
100	1	138	140	142	143
101	7	20	21	58	60
102	1	123	122	176	178
103	1	41	40	43	45
104	4	107	109	110	185
105	1	120	122	176	177
106	4	5	7	8	82
107	1	25	23	22	56
108	1	25	27	54	55
109	1	31	30	29	49
110	1	188	187	189	190
111	1	28	29	30	32
112	1	137	148	146	147
113	4	32	34	35	36
114	1	6	5	7	84
115	19	62	61	64	65
116	1	197	199	201	206
117	1	92	91	101	98
118	1	17	16	18	20
119	1	92	94	96	98
120	1	15	16	18	20
121	1	103	104	189	187
122	1	107	105	104	189
123	5	113	115	116	117
124	6	13	77	78	81
125	1	27	54	56	57
126	19	163	161	164	166
127	1	147	146	148	149
128	1	192	194	195	196
129	2	140	142	143	144
130	1	117	178	176	122
131	19	59	58	61	63
132	5	25	27	28	29
133	1	131	152	150	136
134	12	40	41	89	90
134	13	40	41	89	90
135	1	141	140	142	146
136	6	29	49	50	53
137	14	42	41	89	91
137	15	42	41	89	91
138	1	32	34	47	49
139	1	34	35	45	43
140	1	93	92	94	96
141	8	64	67	70	72
142	1	200	199	201	202
143	6	18	20	21	70
144	9	164	167	170	173
144	10	164	167	170	173
144	11	164	167	170	173
145	5	27	28	29	30
146	8	21	58	61	63
147	1	5	3	2	86
148	1	91	92	94	95
149	6	131	152	153	156
150	1	78	77	82	83
151	9	123	161	164	167
151	10	123	161	164	167
151	11	123	161	164	167
152	1	130	131	152	150
153	1	130	129	157	159
154	16	98	99	192	194
155	1	5	7	84	85
156	1	130	131	132	133
157	8	60	58	21	70
158	1	195	194	206	207
159	1	16	15	75	76
160	1	22	56	54	55
161	1	125	124	159	160
162	7	22	21	58	61
163	19	169	167	170	171
164	9	21	70	67	64
164	10	21	70	67	64
164	11	21	70	67	64
165	1	110	111	113	114
166	5	115	116	117	118
167	6	20	21	22	23
168	1	26	25	27	28
169	1	158	157	159	160
170	19	172	170	173	174
171	1	35	45	43	44
172	1	55	54	56	57
173	9	123	173	170	167
173	10	123	173	170	167
173	11	123	173	170	167
174	1	33	32	34	47
175	5	115	116	117	178
176	1	14	15	75	76
177	7	22	21	70	71
178	1	14	15	16	17
179	1	89	91	92	93
180	6	23	22	21	58
181	5	117	116	115	180
182	1	105	104	189	187
183	1	104	189	187	188
184	6	115	180	181	183
185	1	111	110	185	180
186	5	13	14	15	16
187	1	18	20	73	74
188	1	143	142	146	147
189	19	66	64	67	69
190	6	124	123	122	176
191	9	161	164	167	170
191	10	161	164	167	170
191	11	161	164	167	170
192	6	22	21	20	73
193	6	79	78	77	82
194	6	47	49	50	52
195	1	106	105	107	108
196	1	28	27	54	56
197	8	167	170	173	175
198	6	20	21	22	56
199	1	29	30	32	33
200	1	35	34	47	49
201	7	20	21	58	59
202	1	28	29	30	31
203	1	23	22	56	57
204	1	30	32	34	35
205	19	68	67	70	71
206	1	85	84	86	87
207	8	161	123	173	175
208	2	86	2	1	103
209	1	109	110	111	113
210	1	105	107	109	187
211	5	129	130	131	152
212	1	17	16	18	19
213	1	192	194	206	201
214	16	100	99	192	194
215	3	2	1	103	191
216	19	165	164	167	168
217	1	15	16	18	19
218	5	129	130	131	132
219	1	1	2	86	87
220	1	19	18	20	73
221	6	13	77	78	80
222	1	22	23	25	27
223	1	136	137	138	140
224	1	198	197	199	200
225	1	16	18	20	21
226	1	7	8	82	77
227	1	119	118	120	122
228	6	56	22	21	70
229	1	132	134	136	150
230	1	18	16	15	75
231	19	59	58	61	62
232	8	58	61	64	65
233	2	144	143	142	146
234	1	94	96	98	101
235	1	26	25	27	54
236	1	16	15	75	73
237	6	29	49	50	52
238	17	42	41	89	90
238	18	42	41	89	90
239	1	125	124	159	157
240	6	150	152	153	156
241	1	196	195	194	206
242	1	93	92	94	95
243	8	123	173	170	171
244	8	60	58	61	64
245	1	15	75	73	74
246	3	88	1	103	104
247	1	39	38	40	43
248	6	58	21	20	73
249	5	27	28	29	49
250	1	44	43	45	46
251	1	194	206	201	202
252	8	166	164	167	170
253	6	18	20	21	22
254	8	164	167	170	172
255	1	7	84	86	87
256	1	103	104	189	190
257	6	131	152	153	155
258	7	122	123	173	170
259	1	111	110	185	186
260	8	123	161	164	166
261	1	130	129	157	158
262	1	136	150	152	153
263	1	135	134	136	137
264	6	81	78	77	82
265	1	31	30	32	34
266	1	126	125	127	129
267	6	159	124	123	173
268	1	35	36	38	40
269	1	104	189	187	109
270	1	23	22	56	54
271	16	41	89	91	92
272	1	151	150	152	153
273	1	4	3	2	86
274	1	15	75	73	20
275	1	192	194	206	207
276	9	61	58	21	70
276	10	61	58	21	70
276	11	61	58	21	70
277	1	24	23	25	27
278	8	162	161	164	167
279	6	115	180	181	182
280	1	127	125	124	159
281	1	126	125	124	159
282	1	7	8	82	83
283	19	66	64	67	68
284	1	9	8	82	77
285	8	161	164	167	169
286	1	28	27	54	55
287	1	12	11	13	14
288	16	199	201	202	204
289	1	123	124	125	127
290	7	20	21	70	72
291	4	32	34	35	45
292	6	125	124	123	173
293	7	122	123	161	164
294	8	161	123	173	174
295	1	89	91	101	102
296	1	127	129	157	159
297	1	194	206	201	199
298	1	137	138	140	141
299	16	100	99	192	193
300	1	138	137	148	146
301	19	69	67	70	72
302	6	161	123	122	176
303	1	105	104	189	190
304	8	65	64	67	70
305	1	22	23	25	26
306	1	132	131	152	150
307	1	106	105	104	189
308	19	168	167	170	171
309	1	37	36	38	40
310	1	128	127	129	157
311	1	194	195	197	198
312	6	120	122	123	161
313	1	181	180	185	186
314	8	58	21	70	72
315	9	164	161	123	173
315	10	164	161	123	173
315	11	164	161	123	173
316	1	34	47	49	50
317	6	150	152	153	155
318	4	111	110	109	187
319	8	163	161	123	173
320	1	118	117	178	176
321	1	30	32	34	47
322	1	133	132	131	152
323	1	196	195	197	199
324	1	14	13	77	78
325	1	10	9	8	82
326	1	21	22	56	54
327	19	60	58	61	63
328	1	133	132	134	135
329	7	124	123	161	162
330	1	35	45	43	40
331	8	164	167	170	171
332	1	195	197	199	201
333	7	22	21	70	67
334	8	61	64	67	69
335	1	103	104	105	107
336	6	131	152	153	154
337	7	124	123	173	174
338	1	1	2	3	4
339	1	117	118	120	122
340	1	97	96	98	99
341	1	9	8	82	83
342	6	70	21	20	73
343	1	128	127	129	130
344	1	126	125	127	128
345	1	35	36	38	39
346	1	38	40	43	45
347	1	14	13	77	82
348	6	80	78	77	82
349	1	137	148	146	142
350	1	29	49	47	48
351	1	137	136	150	151
352	1	2	3	5	6
353	16	90	89	91	92
354	8	62	61	64	67
355	1	129	157	159	160
356	8	59	58	21	70
357	1	110	185	180	181
358	1	197	195	194	206
359	19	162	161	164	166
360	1	124	159	157	129
361	4	138	137	136	150
362	8	161	164	167	168
363	1	131	152	150	151
364	2	43	40	41	89
365	2	38	40	41	89
366	2	38	40	41	42
367	1	21	22	23	24
368	16	199	201	202	203
369	1	123	124	125	126
370	1	123	122	176	177
371	19	171	170	173	175
372	1	41	40	43	44
373	4	134	136	137	148
374	6	18	20	21	58
375	1	3	5	7	8
376	7	20	21	70	71
377	1	10	9	11	13
378	1	109	110	185	180
379	1	108	107	109	110
380	1	92	94	96	97
381	1	140	142	146	148
382	19	69	67	70	71
383	16	193	192	194	206
384	19	65	64	67	69
385	1	115	180	185	186
386	1	36	38	40	41
387	19	163	161	164	165
388	1	37	36	38	39
389	1	3	2	86	87
390	8	58	21	70	71
391	1	112	111	113	115
392	7	20	21	58	61
393	1	120	122	176	178
394	2	3	2	1	103
395	1	25	27	54	56
396	1	32	34	47	48
397	1	116	117	178	176
398	1	196	195	197	198
399	1	36	35	45	43
400	6	183	181	180	185
401	8	64	67	70	71
402	1	74	73	75	76
403	1	138	137	148	149
404	1	8	82	77	13
405	8	165	164	167	170
406	1	195	197	199	200
407	1	8	82	77	78
408	8	21	58	61	62
409	1	103	104	105	106
410	8	61	64	67	68
411	1	38	36	35	45
412	1	199	201	206	207
413	1	11	13	77	78
414	1	132	131	152	153
415	1	21	20	73	75
416	3	88	1	103	191
417	2	140	142	143	145
418	16	98	99	192	193
419	1	30	29	49	50
420	1	91	101	98	99
421	1	2	86	84	85
422	6	122	123	124	159
423	7	22	21	58	60
424	1	118	117	178	179
425	1	134	132	131	152
426	6	120	122	123	124
427	1	7	8	9	10
428	1	110	109	187	189
429	1	38	40	43	44
430	1	122	176	178	179
431	1	123	124	159	157
432	16	41	89	91	101
433	1	21	22	56	57
434	1	120	118	117	178
435	1	95	94	96	98
436	1	109	110	185	186
437	5	11	13	14	15
438	9	161	123	173	170
438	10	161	123	173	170
438	11	161	123	173	170
439	1	89	91	101	98
440	1	93	92	91	101
441	1	121	120	122	123
442	1	33	32	34	35
443	19	62	61	64	66
444	1	11	13	77	82
445	6	182	181	180	185
446	6	56	22	21	58
447	19	162	161	164	165
448	1	124	125	127	129
449	1	19	18	20	21
450	1	135	134	136	150
451	1	5	7	84	86
452	1	3	2	86	84
453	16	101	98	99	192
454	6	47	49	50	51
455	1	109	187	189	190
456	8	167	170	173	174