Title

79 atoms
78 bonds
145 angles
260 dihedrals
15 impropers

9 atom types
12 bond types
9 angle types
39 dihedral types
3 improper types
-4.103000164 95.89699984 xlo xhi
-11.25800037 88.74199963 ylo yhi
-3.47300005 96.52699995 zlo zhi
0.0 0.0 0.0 xy xz yz

Masses

1	14.00672
2	12.01078
3	1.007947
4	1.007947
5	1.007947
6	12.01078
7	15.99943
8	15.99943
9	1.007947


Pair Coeffs

1	0.16769152	3.206876
2	0.10884061	3.3795318
3	0.014090815	1.1034277
4	0.016409246	2.5832257
5	0.015779483	2.6445434
6	0.086879315	3.4806469
7	0.2102061	3.0398122
8	0.20947353	2.99716
9	1.2326e-05	0.53453923

Bond Coeffs

1 harmonic	366.34047229585	1.464762957261
2 harmonic	505.144496193	1.019481865027
3 harmonic	422.7150220147	1.421786517481
4 harmonic	264.62148576755	1.52190126495
5 harmonic	370.04670688625	1.093899492634
6 harmonic	352.0565580496	1.450098586273
7 harmonic	492.76746816345	1.381897776683
8 harmonic	582.698766451	1.225198386222
9 harmonic	329.44145381095	1.523435958334
10 harmonic	279.1350963404	1.454628925034
11 harmonic	385.7604595587	1.369745182308
12 harmonic	543.5267831885	0.9716763312559


Angle Coeffs

1 harmonic	53.20531626545	116.5475862634
2 harmonic	49.015990027215	114.8414599994
3 harmonic	94.53012429075	110.92021963
4 harmonic	63.44422595415	115.5071327674
5 harmonic	55.42182150775	117.3465570514
6 harmonic	57.8982893754	126.8062420451
7 harmonic	48.776492647595	115.6030999533
8 harmonic	65.09061609600001	110.3538806181
9 harmonic	201.41175231035	127.4691416191


Dihedral Coeffs

1 fourier 1	0.1155372516788	3	0
2 fourier 1	0.2036670163956	3	0
3 fourier 1	0.6761465733405	3	0
4 fourier 1	1.653011589151	2	0
5 fourier 1	1.713184811193	1	0
6 fourier 1	0.774151252041	3	0
7 fourier 1	1.087509576657	2	0
8 fourier 1	1.518874939494	1	0
9 fourier 1	0.09223874044423	3	0
10 fourier 1	0.3159935921949	2	180
11 fourier 1	0.3247796806857	1	180
12 fourier 1	0.1040663847541	3	0
13 fourier 1	0.182238503271	2	0
14 fourier 1	0.02972342374561	3	0
15 fourier 1	-0.1488678166443	4	180
16 fourier 1	-0.1230328948768	3	180
17 fourier 1	0.2939295466901	2	0
18 fourier 1	-0.3024127022865	1	0
19 fourier 1	3.101948770557	2	180
20 fourier 1	-0.4252153282372	1	0
21 fourier 1	1.809047390003	2	180
22 fourier 1	-0.04816277792592	1	0
23 fourier 1	-0.04561822763521	4	0
24 fourier 1	0.1536091026885	2	0
25 fourier 1	0.02664938770063	3	0
26 fourier 1	2.348375642009	2	180
27 fourier 1	1.256156174911	1	0
28 fourier 1	0.1911926717192	3	0
29 fourier 1	0.3917343745784	3	0
30 fourier 1	0.9467782973395	2	0
31 fourier 1	0.2726597146827	1	0
32 fourier 1	-0.3703352413219	2	0
33 fourier 1	0.4541676554336	1	0
34 fourier 1	0.1489710476446	2	0
35 fourier 1	0.02960027280666	3	180
36 fourier 1	0.9974165607242	2	180
37 fourier 1	2.687457892086	2	180
38 fourier 1	2.772607909663	2	180
39 fourier 1	0.09692684957115	1	0


Improper Coeffs

1 0.3333333333333333	-1	2
2 0.3666666666666667	-1	2
3 3.5	-1	2


Atoms

1	1	1	-0.63603801	-3.73	0.76800001	-0.67199999
2	1	2	0.032150999	-3.329	-0.105	0.43099999
3	1	2	-0.154937	-1.973	-0.787	0.18000001
4	1	2	-0.143584	-0.80000001	0.204	0.20299999
5	1	2	-0.143622	0.542	-0.52999997	0.092
6	1	2	-0.14498501	1.7130001	0.45899999	0.102
7	1	2	0.016359	3.0539999	-0.27200001	-0.0060000001
8	1	1	-0.48880699	4.152	0.68900001	-0.017000001
9	1	3	0.31937301	4.223	1.115	0.93599999
10	1	4	0.051217999	3.0769999	-0.861	-0.949
11	1	4	0.051217999	3.1760001	-0.97299999	0.85100001
12	1	5	0.084980004	1.692	1.0470001	1.0470001
13	1	5	0.084980004	1.613	1.163	-0.75300002
14	1	5	0.083866	0.56300002	-1.1160001	-0.85299999
15	1	5	0.083866	0.648	-1.234	0.94700003
16	1	5	0.085364997	-0.89300001	0.912	-0.64899999
17	1	5	0.085364997	-0.824	0.78399998	1.152
18	1	5	0.090706997	-1.819	-1.546	0.97799999
19	1	5	0.090706997	-1.995	-1.323	-0.79400003
20	1	4	0.092005	-3.2950001	0.479	1.376
21	1	4	0.092005	-4.1030002	-0.89200002	0.55500001
22	1	3	0.36234999	-3.1029999	1.604	-0.69499999
23	1	6	0.72728097	5.0560002	0.147	-0.17399999
24	1	7	-0.73519498	5.9450002	0.65200001	-0.83999997
25	1	2	-0.181695	5.2449999	-1.221	0.412
26	1	2	-0.118286	4.0100002	-1.66	1.2079999
27	1	2	-0.092308998	4.2090001	-3.0580001	1.8049999
28	1	2	-0.256717	2.9749999	-3.497	2.5999999
29	1	6	0.51877701	3.164	-4.8649998	3.1860001
30	1	7	-0.671682	2.2750001	-5.3699999	3.8529999
31	1	5	0.115846	2.7869999	-2.777	3.4260001
32	1	5	0.115846	2.086	-3.513	1.932
33	1	5	0.077587999	5.0949998	-3.049	2.477
34	1	5	0.077587999	4.395	-3.786	0.98400003
35	1	5	0.085686997	3.825	-0.93199998	2.029
36	1	5	0.085686997	3.1240001	-1.669	0.53500003
37	1	5	0.118924	6.1329999	-1.205	1.08
38	1	5	0.118924	5.4330001	-1.941	-0.41299999
39	1	1	-0.63603801	-3.625	0.25600001	-1.5779999
40	1	2	0.032150999	-2.984	1.1289999	-2.5599999
41	1	2	-0.154937	-1.72	1.811	-2.007
42	1	2	-0.143659	-0.574	0.81999999	-1.763
43	1	2	-0.142296	0.708	1.554	-1.349
44	1	2	-0.156423	1.851	0.565	-1.0930001
45	1	2	0.029228	3.132	1.296	-0.68199998
46	1	1	-0.97373998	4.198	0.33500001	-0.421
47	1	3	0.38267201	5.027	0.86699998	-0.068999998
48	1	3	0.38267201	4.4850001	-0.090999998	-1.3329999
49	1	4	0.080224	2.9400001	1.885	0.242
50	1	4	0.080224	3.4460001	1.997	-1.489
51	1	5	0.091590002	2.046	-0.023	-2.017
52	1	5	0.091590002	1.559	-0.139	-0.28200001
53	1	5	0.085364997	0.51300001	2.1400001	-0.42399999
54	1	5	0.085364997	1.006	2.2579999	-2.1570001
55	1	5	0.085364997	-0.85799998	0.112	-0.954
56	1	5	0.085364997	-0.38100001	0.23999999	-2.6919999
57	1	5	0.090706997	-1.3890001	2.5699999	-2.75
58	1	5	0.090706997	-1.964	2.3469999	-1.064
59	1	4	0.092005	-2.7349999	0.54500002	-3.473
60	1	4	0.092005	-3.71	1.916	-2.858
61	1	3	0.36234999	-3.0209999	-0.57999998	-1.4119999
62	1	6	0.51877701	4.0840001	-5.4169998	3.027
63	1	7	-0.671682	4.9710002	-5.3649998	3.865
64	1	2	-0.256717	4.2670002	-6.2210002	1.775
65	1	2	-0.091404997	4.3740001	-7.7160001	2.0940001
66	1	2	-0.109706	4.5310001	-8.5430002	0.80900002
67	1	2	-0.218438	4.7059999	-10.039	1.098
68	1	6	0.82609898	3.454	-10.648	1.651
69	1	7	-0.54533702	2.5020001	-10.943	0.88099998
70	1	8	-0.663113	3.332	-10.859	3.0209999
71	1	9	0.39738101	2.487	-11.258	3.4119999
72	1	5	0.120431	5.546	-10.195	1.809
73	1	5	0.120431	4.9699998	-10.561	0.152
74	1	5	0.086560003	5.4310002	-8.1879997	0.259
75	1	5	0.086560003	3.6489999	-8.3900003	0.149
76	1	5	0.077587999	5.2519999	-7.8920002	2.753
77	1	5	0.077587999	3.4560001	-8.0380001	2.6340001
78	1	5	0.115846	3.3970001	-6.0450001	1.1059999
79	1	5	0.115846	5.1859999	-5.8759999	1.253

Bonds

1	1	1	2
2	2	1	22
3	3	1	39
4	4	2	3
5	5	2	20
6	5	2	21
7	4	3	4
8	5	3	18
9	5	3	19
10	4	4	5
11	5	4	16
12	5	4	17
13	4	5	6
14	5	5	14
15	5	5	15
16	4	6	7
17	5	6	12
18	5	6	13
19	6	7	8
20	5	7	10
21	5	7	11
22	2	8	9
23	7	8	23
24	8	23	24
25	9	23	25
26	4	25	26
27	5	25	37
28	5	25	38
29	4	26	27
30	5	26	35
31	5	26	36
32	4	27	28
33	5	27	33
34	5	27	34
35	9	28	29
36	5	28	31
37	5	28	32
38	8	29	30
39	10	29	62
40	1	39	40
41	2	39	61
42	4	40	41
43	5	40	59
44	5	40	60
45	4	41	42
46	5	41	57
47	5	41	58
48	4	42	43
49	5	42	55
50	5	42	56
51	4	43	44
52	5	43	53
53	5	43	54
54	4	44	45
55	5	44	51
56	5	44	52
57	1	45	46
58	5	45	49
59	5	45	50
60	2	46	47
61	2	46	48
62	8	62	63
63	9	62	64
64	4	64	65
65	5	64	78
66	5	64	79
67	4	65	66
68	5	65	76
69	5	65	77
70	4	66	67
71	5	66	74
72	5	66	75
73	9	67	68
74	5	67	72
75	5	67	73
76	8	68	69
77	11	68	70
78	12	70	71

Angles

1	6	67	68	70
2	1	3	4	16
3	1	5	4	17
4	6	24	23	25
5	1	26	27	33
6	1	3	4	5
7	1	6	7	10
8	1	43	42	56
9	1	42	41	57
10	1	66	65	77
11	1	41	40	60
12	3	22	1	39
13	1	23	25	38
14	1	43	44	52
15	1	1	2	3
16	3	45	46	47
17	1	66	67	73
18	1	64	65	66
19	1	29	28	31
20	1	3	4	17
21	7	78	64	79
22	7	57	41	58
23	1	2	3	4
24	1	62	64	79
25	1	28	27	33
26	2	1	39	40
27	1	67	66	74
28	1	3	2	20
29	1	7	6	13
30	1	28	27	34
31	1	25	26	36
32	1	27	26	36
33	1	4	5	14
34	1	43	44	45
35	3	2	1	22
36	1	5	6	7
37	1	45	44	51
38	1	8	7	10
39	1	68	67	72
40	1	65	66	74
41	1	6	7	11
42	1	27	28	32
43	7	74	66	75
44	7	14	5	15
45	1	40	41	57
46	7	33	27	34
47	7	53	43	54
48	1	26	27	34
49	6	30	29	62
50	1	42	41	58
51	6	8	23	24
52	1	39	40	59
53	1	41	42	55
54	1	65	66	75
55	1	64	65	76
56	3	45	46	48
57	1	44	45	49
58	1	6	5	14
59	1	5	6	12
60	1	29	28	32
61	4	7	8	9
62	7	35	26	36
63	1	1	2	20
64	6	29	62	63
65	1	26	27	28
66	7	20	2	21
67	1	27	28	29
68	1	26	25	37
69	7	12	6	13
70	7	51	44	52
71	1	39	40	60
72	3	1	39	61
73	1	42	43	44
74	1	44	45	50
75	1	65	66	67
76	1	6	5	15
77	1	5	6	13
78	3	40	39	61
79	1	62	64	65
80	1	1	2	21
81	1	65	64	78
82	1	4	5	6
83	7	76	65	77
84	1	4	3	18
85	5	7	8	23
86	7	49	45	50
87	1	67	66	75
88	1	3	2	21
89	1	41	42	43
90	1	44	45	46
91	1	26	25	38
92	6	67	68	69
93	1	8	7	11
94	6	28	29	62
95	8	68	70	71
96	1	4	5	15
97	1	6	7	8
98	1	43	42	55
99	1	66	65	76
100	1	40	41	42
101	1	46	45	49
102	9	69	68	70
103	1	2	3	18
104	1	45	44	52
105	1	44	43	53
106	1	23	25	37
107	7	31	28	32
108	1	68	67	73
109	1	40	41	58
110	1	43	44	51
111	1	66	67	72
112	7	37	25	38
113	7	18	3	19
114	1	23	25	26
115	1	62	64	78
116	1	66	67	68
117	6	8	23	25
118	1	46	45	50
119	1	2	3	19
120	1	42	43	53
121	1	44	43	54
122	1	41	42	56
123	6	63	62	64
124	1	64	65	77
125	1	25	26	27
126	7	72	67	73
127	6	29	62	64
128	7	16	4	17
129	6	28	29	30
130	7	10	7	11
131	7	55	42	56
132	4	9	8	23
133	1	7	6	12
134	1	42	43	54
135	1	5	4	16
136	2	2	1	39
137	1	25	26	35
138	1	39	40	41
139	1	27	26	35
140	1	41	40	59
141	1	65	64	79
142	1	4	3	19
143	3	47	46	48
144	7	59	40	60
145	1	27	28	31

Dihedrals

1	1	23	25	26	35
2	28	11	7	6	12
3	12	25	26	27	34
4	36	30	29	62	64
5	28	76	65	64	79
6	28	15	5	4	17
7	28	19	3	2	21
8	12	27	26	25	37
9	12	67	66	65	77
10	1	39	40	41	42
11	12	42	41	40	59
12	21	9	8	23	25
12	22	9	8	23	25
13	1	39	40	41	58
14	28	56	42	41	57
15	28	54	43	42	55
16	12	7	6	5	14
17	33	69	68	67	73
17	34	69	68	67	73
17	35	69	68	67	73
18	28	51	44	43	54
19	1	23	25	26	36
20	1	26	27	28	29
21	28	11	7	6	13
22	12	28	27	26	35
23	12	42	43	44	51
24	28	53	43	42	56
25	28	55	42	41	58
26	32	27	28	29	30
27	28	50	45	44	51
28	2	48	46	45	49
29	1	1	2	3	18
30	28	33	27	26	35
31	12	44	43	42	55
32	12	27	26	25	38
33	28	49	45	44	51
34	28	14	5	4	16
35	9	64	65	66	67
35	10	64	65	66	67
35	11	64	65	66	67
36	33	63	62	64	78
36	34	63	62	64	78
36	35	63	62	64	78
37	12	42	41	40	60
38	28	72	67	66	74
39	25	27	28	29	62
40	12	43	44	45	49
41	2	47	46	45	50
42	2	1	39	40	59
43	12	6	5	4	16
44	12	28	27	26	36
45	12	41	42	43	53
46	28	34	27	26	36
47	1	1	2	3	19
48	28	57	41	40	59
49	9	40	41	42	43
49	10	40	41	42	43
49	11	40	41	42	43
50	12	2	3	4	16
51	12	44	43	42	56
52	2	21	2	1	22
53	2	3	2	1	39
54	25	32	28	29	62
55	2	44	45	46	48
56	28	12	6	5	14
57	15	6	7	8	23
57	16	6	7	8	23
57	17	6	7	8	23
57	18	6	7	8	23
58	12	43	44	45	50
59	25	29	62	64	65
60	25	31	28	29	62
61	28	35	26	25	38
62	12	64	65	66	75
63	1	5	6	7	8
64	1	62	64	65	77
65	25	70	68	67	72
66	12	41	42	43	54
67	1	29	28	27	34
68	33	24	23	25	37
68	34	24	23	25	37
68	35	24	23	25	37
69	28	13	6	5	14
70	12	40	41	42	55
71	28	52	44	43	53
72	28	17	4	3	18
73	2	20	2	1	22
74	28	18	3	2	20
75	1	43	44	45	46
76	28	16	4	3	18
77	3	2	1	39	40
77	4	2	1	39	40
77	5	2	1	39	40
78	28	12	6	5	15
79	9	25	26	27	28
79	10	25	26	27	28
79	11	25	26	27	28
80	32	24	23	25	26
81	28	75	66	65	76
82	25	70	68	67	73
83	28	73	67	66	74
84	13	11	7	8	23
84	14	11	7	8	23
85	28	13	6	5	15
86	12	40	41	42	56
87	28	52	44	43	54
88	28	17	4	3	19
89	28	74	66	65	76
90	28	56	42	41	58
91	28	18	3	2	21
92	28	54	43	42	56
93	12	7	6	5	15
94	1	46	45	44	51
95	28	10	7	6	12
96	12	42	43	44	52
97	6	22	1	39	40
97	7	22	1	39	40
97	8	22	1	39	40
98	12	43	42	41	57
99	25	29	62	64	78
100	28	50	45	44	52
101	2	48	46	45	50
102	28	33	27	26	36
103	38	69	68	70	71
103	39	69	68	70	71
104	36	28	29	62	63
105	25	8	23	25	37
106	28	49	45	44	52
107	28	14	5	4	17
108	28	75	66	65	77
109	28	32	28	27	33
110	9	2	3	4	5
110	10	2	3	4	5
110	11	2	3	4	5
111	33	63	62	64	79
111	34	63	62	64	79
111	35	63	62	64	79
112	28	72	67	66	75
113	28	36	26	25	37
114	28	73	67	66	75
115	33	30	29	28	31
115	34	30	29	28	31
115	35	30	29	28	31
116	2	60	40	39	61
117	2	1	39	40	60
118	12	4	3	2	20
119	12	6	5	4	17
120	12	45	44	43	53
121	1	1	2	3	4
122	28	10	7	6	13
123	12	26	27	28	31
124	12	5	4	3	18
125	23	8	23	25	26
125	24	8	23	25	26
126	1	62	64	65	66
127	2	21	2	1	39
128	12	3	4	5	14
129	28	57	41	40	60
130	12	2	3	4	17
131	13	9	8	7	10
131	14	9	8	7	10
132	12	65	66	67	72
133	28	36	26	25	38
134	1	8	7	6	12
135	33	30	29	28	32
135	34	30	29	28	32
135	35	30	29	28	32
136	1	23	25	26	27
137	2	3	2	1	22
138	28	76	65	64	78
139	28	15	5	4	16
140	12	4	3	2	21
141	28	19	3	2	20
142	9	4	5	6	7
142	10	4	5	6	7
142	11	4	5	6	7
143	12	5	6	7	10
144	28	58	41	40	59
145	2	20	2	1	39
146	19	7	8	23	24
146	20	7	8	23	24
147	1	65	66	67	68
148	2	1	39	40	41
149	33	24	23	25	38
149	34	24	23	25	38
149	35	24	23	25	38
150	9	42	43	44	45
150	10	42	43	44	45
150	11	42	43	44	45
151	12	3	4	5	15
152	26	9	8	23	24
152	27	9	8	23	24
153	2	59	40	39	61
154	6	2	1	39	61
154	7	2	1	39	61
154	8	2	1	39	61
155	33	69	68	67	72
155	34	69	68	67	72
155	35	69	68	67	72
156	12	65	66	67	73
157	28	16	4	3	19
158	28	51	44	43	53
159	37	67	68	70	71
160	1	8	7	6	13
161	28	55	42	41	57
162	28	53	43	42	55
163	12	66	65	64	78
164	28	77	65	64	78
165	28	58	41	40	60
166	21	7	8	23	25
166	22	7	8	23	25
167	32	66	67	68	69
168	28	74	66	65	77
169	12	4	5	6	12
170	28	31	28	27	33
171	2	47	46	45	49
172	29	22	1	39	61
172	30	22	1	39	61
172	31	22	1	39	61
173	1	46	45	44	52
174	1	68	67	66	74
175	13	10	7	8	23
175	14	10	7	8	23
176	12	66	65	64	79
177	12	43	42	41	58
178	25	29	62	64	79
179	28	34	27	26	35
180	28	77	65	64	79
181	36	28	29	62	64
182	25	8	23	25	38
183	9	3	4	5	6
183	10	3	4	5	6
183	11	3	4	5	6
184	28	32	28	27	34
185	13	6	7	8	9
185	14	6	7	8	9
186	25	66	67	68	70
187	12	25	26	27	33
188	2	41	40	39	61
189	2	44	45	46	47
190	12	4	5	6	13
191	36	30	29	62	63
192	28	31	28	27	34
193	13	9	8	7	11
193	14	9	8	7	11
194	28	35	26	25	37
195	12	45	44	43	54
196	12	64	65	66	74
197	1	68	67	66	75
198	12	67	66	65	76
199	12	26	27	28	32
200	1	62	64	65	76
201	12	5	4	3	19
202	1	29	28	27	33
203	32	63	62	64	65
204	9	41	42	43	44
204	10	41	42	43	44
204	11	41	42	43	44
205	1	39	40	41	57
206	12	5	6	7	11

Impropers

68	2	29	28	30	62
111	2	29	30	62	28
190	2	62	64	29	63
207	3	68	70	67	69
225	3	68	69	70	67
237	1	8	23	7	9
249	2	62	29	63	64
288	2	23	8	24	25
295	2	23	24	25	8
298	2	23	25	8	24
405	2	62	63	64	29
427	3	68	67	69	70
433	2	29	62	28	30
483	1	8	7	9	23
495	1	8	9	23	7
