Title

79 atoms
78 bonds
145 angles
260 dihedrals
15 impropers

9 atom types
12 bond types
9 angle types
39 dihedral types
3 improper types
-4.103000164 95.89699984 xlo xhi
-11.25800037 88.74199963 ylo yhi
-3.47300005 96.52699995 zlo zhi
0.0 0.0 0.0 xy xz yz

Masses

1	14.00672
2	12.01078
3	1.007947
4	1.007947
5	1.007947
6	12.01078
7	15.99943
8	15.99943
9	1.007947


Pair Coeffs

1	0.16769152	3.206876
2	0.10884061	3.3795318
3	0.014090815	1.1034277
4	0.016409246	2.5832257
5	0.015779483	2.6445434
6	0.086879315	3.4806469
7	0.2102061	3.0398122
8	0.20947353	2.99716
9	1.2326e-05	0.53453923

Bond Coeffs

1 harmonic	366.34047229585	1.464762957261
2 harmonic	505.144496193	1.019481865027
3 harmonic	422.7150220147	1.421786517481
4 harmonic	264.62148576755	1.52190126495
5 harmonic	370.04670688625	1.093899492634
6 harmonic	352.0565580496	1.450098586273
7 harmonic	492.76746816345	1.381897776683
8 harmonic	582.698766451	1.225198386222
9 harmonic	329.44145381095	1.523435958334
10 harmonic	279.1350963404	1.454628925034
11 harmonic	385.7604595587	1.369745182308
12 harmonic	543.5267831885	0.9716763312559


Angle Coeffs

1 harmonic	53.20531626545	116.5475862634
2 harmonic	49.015990027215	114.8414599994
3 harmonic	94.53012429075	110.92021963
4 harmonic	63.44422595415	115.5071327674
5 harmonic	55.42182150775	117.3465570514
6 harmonic	57.8982893754	126.8062420451
7 harmonic	48.776492647595	115.6030999533
8 harmonic	65.09061609600001	110.3538806181
9 harmonic	201.41175231035	127.4691416191


Dihedral Coeffs

1 fourier 1	0.1155372516788	3	0
2 fourier 1	0.2036670163956	3	0
3 fourier 1	0.6761465733405	3	0
4 fourier 1	1.653011589151	2	0
5 fourier 1	1.713184811193	1	0
6 fourier 1	0.774151252041	3	0
7 fourier 1	1.087509576657	2	0
8 fourier 1	1.518874939494	1	0
9 fourier 1	0.09223874044423	3	0
10 fourier 1	0.3159935921949	2	180
11 fourier 1	0.3247796806857	1	180
12 fourier 1	0.1040663847541	3	0
13 fourier 1	0.182238503271	2	0
14 fourier 1	0.02972342374561	3	0
15 fourier 1	-0.1488678166443	4	180
16 fourier 1	-0.1230328948768	3	180
17 fourier 1	0.2939295466901	2	0
18 fourier 1	-0.3024127022865	1	0
19 fourier 1	3.101948770557	2	180
20 fourier 1	-0.4252153282372	1	0
21 fourier 1	1.809047390003	2	180
22 fourier 1	-0.04816277792592	1	0
23 fourier 1	-0.04561822763521	4	0
24 fourier 1	0.1536091026885	2	0
25 fourier 1	0.02664938770063	3	0
26 fourier 1	2.348375642009	2	180
27 fourier 1	1.256156174911	1	0
28 fourier 1	0.1911926717192	3	0
29 fourier 1	0.3917343745784	3	0
30 fourier 1	0.9467782973395	2	0
31 fourier 1	0.2726597146827	1	0
32 fourier 1	-0.3703352413219	2	0
33 fourier 1	0.4541676554336	1	0
34 fourier 1	0.1489710476446	2	0
35 fourier 1	0.02960027280666	3	180
36 fourier 1	0.9974165607242	2	180
37 fourier 1	2.687457892086	2	180
38 fourier 1	2.772607909663	2	180
39 fourier 1	0.09692684957115	1	0


Improper Coeffs

1 0.3333333333333333	-1	2
2 0.3666666666666667	-1	2
3 3.5	-1	2


Atoms

1	1	1	-0.63603801	-3.73	0.76800001	-0.67199999
2	1	2	0.032150999	-3.329	-0.105	0.43099999
3	1	2	-0.154937	-1.973	-0.787	0.18000001
4	1	2	-0.143584	-0.80000001	0.204	0.20299999
5	1	2	-0.143622	0.542	-0.52999997	0.092
6	1	2	-0.14498501	1.7130001	0.45899999	0.102
7	1	2	0.016359	3.0539999	-0.27200001	-0.0060000001
8	1	1	-0.48880699	4.152	0.68900001	-0.017000001
9	1	3	0.31937301	4.223	1.115	0.93599999
10	1	4	0.051217999	3.0769999	-0.861	-0.949
11	1	4	0.051217999	3.1760001	-0.97299999	0.85100001
12	1	5	0.084980004	1.692	1.0470001	1.0470001
13	1	5	0.084980004	1.613	1.163	-0.75300002
14	1	5	0.083866	0.56300002	-1.1160001	-0.85299999
15	1	5	0.083866	0.648	-1.234	0.94700003
16	1	5	0.085364997	-0.89300001	0.912	-0.64899999
17	1	5	0.085364997	-0.824	0.78399998	1.152
18	1	5	0.090706997	-1.819	-1.546	0.97799999
19	1	5	0.090706997	-1.995	-1.323	-0.79400003
20	1	4	0.092005	-3.2950001	0.479	1.376
21	1	4	0.092005	-4.1030002	-0.89200002	0.55500001
22	1	3	0.36234999	-3.1029999	1.604	-0.69499999
23	1	6	0.72728097	5.0560002	0.147	-0.17399999
24	1	7	-0.73519498	5.9450002	0.65200001	-0.83999997
25	1	2	-0.181695	5.2449999	-1.221	0.412
26	1	2	-0.118286	4.0100002	-1.66	1.2079999
27	1	2	-0.092308998	4.2090001	-3.0580001	1.8049999
28	1	2	-0.256717	2.9749999	-3.497	2.5999999
29	1	6	0.51877701	3.164	-4.8649998	3.1860001
30	1	7	-0.671682	2.2750001	-5.3699999	3.8529999
31	1	5	0.115846	2.7869999	-2.777	3.4260001
32	1	5	0.115846	2.086	-3.513	1.932
33	1	5	0.077587999	5.0949998	-3.049	2.477
34	1	5	0.077587999	4.395	-3.786	0.98400003
35	1	5	0.085686997	3.825	-0.93199998	2.029
36	1	5	0.085686997	3.1240001	-1.669	0.53500003
37	1	5	0.118924	6.1329999	-1.205	1.08
38	1	5	0.118924	5.4330001	-1.941	-0.41299999
39	1	1	-0.63603801	-3.625	0.25600001	-1.5779999
40	1	2	0.032150999	-2.984	1.1289999	-2.5599999
41	1	2	-0.154937	-1.72	1.811	-2.007
42	1	2	-0.143659	-0.574	0.81999999	-1.763
43	1	2	-0.142296	0.708	1.554	-1.349
44	1	2	-0.156423	1.851	0.565	-1.0930001
45	1	2	0.029228	3.132	1.296	-0.68199998
46	1	1	-0.97373998	4.198	0.33500001	-0.421
47	1	3	0.38267201	5.027	0.86699998	-0.068999998
48	1	3	0.38267201	4.4850001	-0.090999998	-1.3329999
49	1	4	0.080224	2.9400001	1.885	0.242
50	1	4	0.080224	3.4460001	1.997	-1.489
51	1	5	0.091590002	2.046	-0.023	-2.017
52	1	5	0.091590002	1.559	-0.139	-0.28200001
53	1	5	0.085364997	0.51300001	2.1400001	-0.42399999
54	1	5	0.085364997	1.006	2.2579999	-2.1570001
55	1	5	0.085364997	-0.85799998	0.112	-0.954
56	1	5	0.085364997	-0.38100001	0.23999999	-2.6919999
57	1	5	0.090706997	-1.3890001	2.5699999	-2.75
58	1	5	0.090706997	-1.964	2.3469999	-1.064
59	1	4	0.092005	-2.7349999	0.54500002	-3.473
60	1	4	0.092005	-3.71	1.916	-2.858
61	1	3	0.36234999	-3.0209999	-0.57999998	-1.4119999
62	1	6	0.51877701	4.0840001	-5.4169998	3.027
63	1	7	-0.671682	4.9710002	-5.3649998	3.865
64	1	2	-0.256717	4.2670002	-6.2210002	1.775
65	1	2	-0.091404997	4.3740001	-7.7160001	2.0940001
66	1	2	-0.109706	4.5310001	-8.5430002	0.80900002
67	1	2	-0.218438	4.7059999	-10.039	1.098
68	1	6	0.82609898	3.454	-10.648	1.651
69	1	7	-0.54533702	2.5020001	-10.943	0.88099998
70	1	8	-0.663113	3.332	-10.859	3.0209999
71	1	9	0.39738101	2.487	-11.258	3.4119999
72	1	5	0.120431	5.546	-10.195	1.809
73	1	5	0.120431	4.9699998	-10.561	0.152
74	1	5	0.086560003	5.4310002	-8.1879997	0.259
75	1	5	0.086560003	3.6489999	-8.3900003	0.149
76	1	5	0.077587999	5.2519999	-7.8920002	2.753
77	1	5	0.077587999	3.4560001	-8.0380001	2.6340001
78	1	5	0.115846	3.3970001	-6.0450001	1.1059999
79	1	5	0.115846	5.1859999	-5.8759999	1.253

Bonds

1	1	1	2
2	2	1	22
3	3	1	39
4	4	2	3
5	5	2	20
6	5	2	21
7	4	3	4
8	5	3	18
9	5	3	19
10	4	4	5
11	5	4	16
12	5	4	17
13	4	5	6
14	5	5	14
15	5	5	15
16	4	6	7
17	5	6	12
18	5	6	13
19	6	7	8
20	5	7	10
21	5	7	11
22	2	8	9
23	7	8	23
24	8	23	24
25	9	23	25
26	4	25	26
27	5	25	37
28	5	25	38
29	4	26	27
30	5	26	35
31	5	26	36
32	4	27	28
33	5	27	33
34	5	27	34
35	9	28	29
36	5	28	31
37	5	28	32
38	8	29	30
39	10	29	62
40	1	39	40
41	2	39	61
42	4	40	41
43	5	40	59
44	5	40	60
45	4	41	42
46	5	41	57
47	5	41	58
48	4	42	43
49	5	42	55
50	5	42	56
51	4	43	44
52	5	43	53
53	5	43	54
54	4	44	45
55	5	44	51
56	5	44	52
57	1	45	46
58	5	45	49
59	5	45	50
60	2	46	47
61	2	46	48
62	8	62	63
63	9	62	64
64	4	64	65
65	5	64	78
66	5	64	79
67	4	65	66
68	5	65	76
69	5	65	77
70	4	66	67
71	5	66	74
72	5	66	75
73	9	67	68
74	5	67	72
75	5	67	73
76	8	68	69
77	11	68	70
78	12	70	71

Angles

1	1	39	40	60
2	3	47	46	48
3	1	5	6	13
4	1	28	27	33
5	1	65	66	67
6	1	3	2	21
7	1	40	41	58
8	1	42	43	54
9	7	49	45	50
10	1	44	43	54
11	7	35	26	36
12	1	39	40	59
13	6	63	62	64
14	1	29	28	32
15	1	6	5	14
16	1	62	64	65
17	9	69	68	70
18	1	25	26	36
19	1	7	6	13
20	1	25	26	27
21	1	26	25	38
22	3	1	39	61
23	1	68	67	73
24	1	6	5	15
25	1	1	2	20
26	1	8	7	10
27	1	41	42	43
28	1	4	5	6
29	1	42	41	58
30	1	65	66	74
31	4	9	8	23
32	6	29	62	63
33	7	16	4	17
34	1	39	40	41
35	1	5	6	7
36	7	57	41	58
37	7	37	25	38
38	1	1	2	3
39	1	26	27	34
40	1	26	25	37
41	1	44	45	49
42	1	65	66	75
43	1	66	67	68
44	2	1	39	40
45	1	66	67	72
46	2	2	1	39
47	1	45	44	51
48	3	2	1	22
49	1	64	65	77
50	1	3	4	16
51	1	6	7	8
52	3	45	46	47
53	1	1	2	21
54	7	78	64	79
55	1	67	66	74
56	1	23	25	26
57	1	4	5	14
58	1	28	27	34
59	1	27	26	36
60	7	74	66	75
61	1	27	28	32
62	1	62	64	78
63	1	43	44	45
64	1	4	5	15
65	1	3	4	17
66	1	7	6	12
67	1	6	7	10
68	7	33	27	34
69	1	26	27	28
70	6	28	29	30
71	6	67	68	70
72	1	29	28	31
73	7	59	40	60
74	6	8	23	24
75	7	12	6	13
76	7	72	67	73
77	5	7	8	23
78	1	44	45	46
79	6	30	29	62
80	1	46	45	49
81	1	66	65	76
82	1	62	64	79
83	1	43	44	51
84	1	5	6	12
85	6	8	23	25
86	1	44	45	50
87	6	24	23	25
88	1	42	43	53
89	1	41	40	59
90	7	14	5	15
91	1	44	43	53
92	1	64	65	66
93	7	20	2	21
94	1	25	26	35
95	1	66	67	73
96	1	40	41	57
97	7	51	44	52
98	1	8	7	11
99	7	18	3	19
100	1	40	41	42
101	1	65	64	79
102	6	28	29	62
103	1	41	42	56
104	8	68	70	71
105	4	7	8	9
106	1	5	4	16
107	1	67	66	75
108	7	55	42	56
109	1	27	28	31
110	1	68	67	72
111	1	42	43	44
112	1	41	42	55
113	1	41	40	60
114	1	3	4	5
115	6	67	68	69
116	1	42	41	57
117	1	65	64	78
118	7	31	28	32
119	7	76	65	77
120	1	5	4	17
121	1	3	2	20
122	3	45	46	48
123	1	26	27	33
124	1	23	25	38
125	1	4	3	18
126	1	4	3	19
127	1	43	42	56
128	3	22	1	39
129	1	27	28	29
130	1	46	45	50
131	1	66	65	77
132	3	40	39	61
133	1	27	26	35
134	7	53	43	54
135	1	2	3	4
136	1	2	3	18
137	1	2	3	19
138	1	45	44	52
139	1	43	44	52
140	1	43	42	55
141	1	64	65	76
142	6	29	62	64
143	1	23	25	37
144	7	10	7	11
145	1	6	7	11

Dihedrals

1	28	54	43	42	56
2	28	14	5	4	17
3	12	43	42	41	57
4	1	29	28	27	34
5	28	36	26	25	37
6	25	70	68	67	72
7	2	60	40	39	61
8	12	65	66	67	73
9	12	64	65	66	74
10	12	7	6	5	14
11	13	9	8	7	10
11	14	9	8	7	10
12	28	32	28	27	33
13	12	41	42	43	53
14	23	8	23	25	26
14	24	8	23	25	26
15	28	54	43	42	55
16	12	7	6	5	15
17	28	52	44	43	53
18	25	27	28	29	62
19	28	51	44	43	53
20	37	67	68	70	71
21	12	45	44	43	53
22	28	10	7	6	12
23	28	13	6	5	15
24	36	30	29	62	64
25	12	43	42	41	58
26	28	31	28	27	33
27	32	63	62	64	65
28	12	42	43	44	52
29	1	68	67	66	74
30	25	70	68	67	73
31	9	64	65	66	67
31	10	64	65	66	67
31	11	64	65	66	67
32	28	16	4	3	18
33	28	16	4	3	19
34	1	8	7	6	12
35	28	32	28	27	34
36	12	43	44	45	49
37	12	26	27	28	32
38	28	73	67	66	74
39	2	41	40	39	61
40	29	22	1	39	61
40	30	22	1	39	61
40	31	22	1	39	61
41	28	72	67	66	74
42	28	31	28	27	34
43	1	68	67	66	75
44	12	25	26	27	33
45	12	5	6	7	11
46	1	46	45	44	52
47	9	3	4	5	6
47	10	3	4	5	6
47	11	3	4	5	6
48	28	75	66	65	77
49	28	73	67	66	75
50	33	63	62	64	79
50	34	63	62	64	79
50	35	63	62	64	79
51	28	50	45	44	52
52	28	18	3	2	20
53	2	20	2	1	39
54	2	1	39	40	59
55	28	11	7	6	13
56	1	62	64	65	66
57	28	35	26	25	38
58	12	67	66	65	76
59	28	33	27	26	35
60	12	6	5	4	16
61	12	4	5	6	13
62	12	28	27	26	35
63	33	30	29	28	32
63	34	30	29	28	32
63	35	30	29	28	32
64	15	6	7	8	23
64	16	6	7	8	23
64	17	6	7	8	23
64	18	6	7	8	23
65	9	2	3	4	5
65	10	2	3	4	5
65	11	2	3	4	5
66	28	13	6	5	14
67	1	5	6	7	8
68	33	24	23	25	37
68	34	24	23	25	37
68	35	24	23	25	37
69	36	30	29	62	63
70	12	42	41	40	60
71	28	56	42	41	57
72	12	66	65	64	79
73	6	22	1	39	40
73	7	22	1	39	40
73	8	22	1	39	40
74	28	34	27	26	35
75	2	59	40	39	61
76	9	40	41	42	43
76	10	40	41	42	43
76	11	40	41	42	43
77	2	47	46	45	49
78	33	63	62	64	78
78	34	63	62	64	78
78	35	63	62	64	78
79	12	64	65	66	75
80	1	26	27	28	29
81	28	17	4	3	18
82	12	6	5	4	17
83	2	44	45	46	47
84	28	17	4	3	19
85	2	48	46	45	49
86	28	58	41	40	59
87	12	42	41	40	59
88	12	66	65	64	78
89	1	43	44	45	46
90	28	49	45	44	52
91	12	3	4	5	14
92	2	1	39	40	60
93	1	23	25	26	35
94	28	57	41	40	59
95	12	41	42	43	54
96	32	24	23	25	26
97	28	18	3	2	21
98	9	4	5	6	7
98	10	4	5	6	7
98	11	4	5	6	7
99	12	3	4	5	15
100	12	43	44	45	50
101	28	52	44	43	54
102	12	5	4	3	18
103	2	3	2	1	39
104	13	6	7	8	9
104	14	6	7	8	9
105	12	5	4	3	19
106	28	10	7	6	13
107	12	26	27	28	31
108	12	45	44	43	54
109	28	51	44	43	54
110	25	8	23	25	38
111	12	44	43	42	56
112	2	21	2	1	39
113	2	20	2	1	22
114	32	27	28	29	30
115	12	27	26	25	38
116	28	72	67	66	75
117	28	74	66	65	76
118	25	31	28	29	62
119	13	9	8	7	11
119	14	9	8	7	11
120	28	76	65	64	79
121	1	8	7	6	13
122	28	58	41	40	60
123	1	62	64	65	76
124	28	15	5	4	16
125	12	25	26	27	34
126	12	44	43	42	55
127	1	46	45	44	51
128	36	28	29	62	64
129	21	7	8	23	25
129	22	7	8	23	25
130	28	19	3	2	20
131	25	8	23	25	37
132	1	29	28	27	33
133	13	10	7	8	23
133	14	10	7	8	23
134	28	36	26	25	38
135	12	40	41	42	56
136	25	29	62	64	65
137	38	69	68	70	71
137	39	69	68	70	71
138	28	35	26	25	37
139	12	67	66	65	77
140	33	30	29	28	31
140	34	30	29	28	31
140	35	30	29	28	31
141	28	74	66	65	77
142	2	1	39	40	41
143	33	69	68	67	72
143	34	69	68	67	72
143	35	69	68	67	72
144	28	76	65	64	78
145	12	5	6	7	10
146	28	56	42	41	58
147	1	62	64	65	77
148	12	40	41	42	55
149	12	4	3	2	20
150	2	47	46	45	50
151	32	66	67	68	69
152	28	55	42	41	57
153	25	32	28	29	62
154	12	42	43	44	51
155	2	48	46	45	50
156	28	57	41	40	60
157	28	33	27	26	36
158	12	28	27	26	36
159	2	3	2	1	22
160	6	2	1	39	61
160	7	2	1	39	61
160	8	2	1	39	61
161	33	69	68	67	73
161	34	69	68	67	73
161	35	69	68	67	73
162	28	77	65	64	78
163	28	34	27	26	36
164	2	21	2	1	22
165	19	7	8	23	24
165	20	7	8	23	24
166	28	49	45	44	51
167	25	29	62	64	79
168	1	1	2	3	4
169	1	1	2	3	18
170	28	19	3	2	21
171	9	25	26	27	28
171	10	25	26	27	28
171	11	25	26	27	28
172	1	1	2	3	19
173	12	2	3	4	16
174	28	12	6	5	14
175	1	39	40	41	57
176	9	42	43	44	45
176	10	42	43	44	45
176	11	42	43	44	45
177	28	55	42	41	58
178	26	9	8	23	24
178	27	9	8	23	24
179	28	11	7	6	12
180	28	53	43	42	56
181	36	28	29	62	63
182	1	39	40	41	42
183	12	4	5	6	12
184	28	12	6	5	15
185	25	66	67	68	70
186	28	14	5	4	16
187	28	50	45	44	51
188	1	65	66	67	68
189	28	75	66	65	76
190	12	65	66	67	72
191	21	9	8	23	25
191	22	9	8	23	25
192	13	11	7	8	23
192	14	11	7	8	23
193	12	4	3	2	21
194	12	27	26	25	37
195	2	44	45	46	48
196	28	53	43	42	55
197	25	29	62	64	78
198	12	2	3	4	17
199	1	39	40	41	58
200	1	23	25	26	36
201	1	23	25	26	27
202	3	2	1	39	40
202	4	2	1	39	40
202	5	2	1	39	40
203	9	41	42	43	44
203	10	41	42	43	44
203	11	41	42	43	44
204	28	77	65	64	79
205	28	15	5	4	17
206	33	24	23	25	38
206	34	24	23	25	38
206	35	24	23	25	38

Impropers

59	2	29	62	28	30
88	2	29	30	62	28
102	1	8	9	23	7
151	2	23	25	8	24
275	2	23	24	25	8
308	2	62	64	29	63
316	2	62	29	63	64
342	3	68	69	70	67
389	3	68	67	69	70
427	2	62	63	64	29
432	1	8	7	9	23
456	2	29	28	30	62
476	1	8	23	7	9
505	2	23	8	24	25
516	3	68	70	67	69
