Title

82 atoms
87 bonds
142 angles
213 dihedrals
114 impropers

9 atom types
13 bond types
6 angle types
8 dihedral types
2 improper types
-11.07499981 88.92500019 xlo xhi
-9.767999649 90.23200035 ylo yhi
-8.82199955 91.17800045 zlo zhi
0.0 0.0 0.0 xy xz yz

Masses

1	15.99943
2	12.01078
3	1.007947
4	12.01078
5	1.007947
6	15.99943
7	15.99943
8	1.007947
9	35.4532


Pair Coeffs

1	0.16846514	3.0251065
2	0.086879315	3.4806469
3	0.015611343	2.5725815
4	0.10884061	3.3795318
5	0.015779483	2.6445434
6	0.2102061	3.0398122
7	0.20947353	2.99716
8	1.2326e-05	0.53453923
9	0.2656001	3.3075278

Bond Coeffs

1 harmonic	425.69104206635	1.362945806494
2 harmonic	300.03137914615	1.451203938761
3 harmonic	360.7852444772	1.387193227181
4 harmonic	397.2545789619	1.085358495916
5 harmonic	289.73813263395	1.498646816465
6 harmonic	264.62148576755	1.52190126495
7 harmonic	301.15400723785	1.345741232799
8 harmonic	370.04670688625	1.093899492634
9 harmonic	582.698766451	1.225198386222
10 harmonic	279.1350963404	1.454628925034
11 harmonic	385.7604595587	1.369745182308
12 harmonic	543.5267831885	0.9716763312559
13 harmonic	218.0227703685	1.746066037062


Angle Coeffs

1 harmonic	57.8982893754	126.8062420451
2 harmonic	65.09061609600001	110.3538806181
3 harmonic	34.066775159195	129.1835929926
4 harmonic	53.20531626545	116.5475862634
5 harmonic	201.41175231035	127.4691416191
6 harmonic	48.776492647595	115.6030999533


Dihedral Coeffs

1 fourier 1	3.661930099076	2	180
2 fourier 1	1.532232714475	2	180
3 fourier 1	0.457973137376	1	0
4 fourier 1	0.02664938770063	3	0
5 fourier 1	0.1155372516788	3	0
6 fourier 1	2.779853741805	2	180
7 fourier 1	0.9974165607242	2	180
8 fourier 1	0.8283030590042	2	180


Improper Coeffs

1 0.3666666666666667	-1	2
2 3.5	-1	2


Atoms

1	1	1	-0.015698999	-0.037	-2.4200001	-4.9910002
2	1	2	0.28362501	0.13	-1.78	-3.7639999
3	1	2	-0.32219699	-0.57499999	-0.68400002	-3.4579999
4	1	3	0.23050199	-1.2920001	-0.27900001	-4.1599998
5	1	2	-0.12575801	-0.38600001	-0.016000001	-2.1530001
6	1	3	0.21243501	-1.012	0.83899999	-1.943
7	1	2	-0.22147	0.52600002	-0.47299999	-1.262
8	1	4	0.115173	0.71899998	0.168	0.133
9	1	2	-0.187627	0.16	1.61	0.164
10	1	2	-0.20423301	-1.021	1.921	0.75099999
11	1	3	0.214834	-1.624	1.178	1.253
12	1	2	-0.21896	-1.546	3.302	0.71799999
13	1	3	0.22388101	-2.4779999	3.5339999	1.216
14	1	2	-0.21216799	-0.87599999	4.2610002	0.072999999
15	1	3	0.22432999	-1.263	5.2709999	0.046
16	1	2	-0.21896	0.384	3.938	-0.61900002
17	1	3	0.22388101	0.90799999	4.711	-1.166
18	1	2	-0.20423301	0.87	2.6919999	-0.58499998
19	1	3	0.214834	1.78	2.4779999	-1.128
20	1	2	-0.22147	0.071999997	-0.70200002	1.237
21	1	2	-0.12825499	-0.89099997	-1.618	0.97299999
22	1	3	0.21243501	-1.239	-1.806	-0.033
23	1	2	-0.27700099	-1.5190001	-2.3959999	2.059
24	1	3	0.230198	-2.266	-3.142	1.817
25	1	2	0.443611	-1.174	-2.1800001	3.332
26	1	1	-0.438712	-1.773	-2.9200001	4.348
27	1	2	-0.27700099	-0.164	-1.151	3.651
28	1	3	0.230198	0.097000003	-0.95300001	4.6820002
29	1	2	-0.12825499	0.41600001	-0.44999999	2.6700001
30	1	3	0.21243501	1.128	0.31900001	2.937
31	1	4	-0.14876699	2.2479999	0.242	0.41800001
32	1	5	0.087503999	2.4809999	0.99400002	1.2029999
33	1	5	0.087503999	2.6459999	-0.73500001	0.76700002
34	1	5	0.087503999	2.819	0.52600002	-0.49200001
35	1	2	-0.12575801	1.275	-1.719	-1.61
36	1	3	0.21243501	1.964	-2.161	-0.90399998
37	1	2	-0.32219699	1.092	-2.325	-2.789
38	1	3	0.23050199	1.642	-3.227	-3.0239999
39	1	2	0.629646	-1.52	-2.766	5.3540001
40	1	6	-0.48727	-0.373	-2.9449999	5.7280002
41	1	1	-0.015698999	-0.69	-2.0769999	-5.6869998
42	1	2	0.28362501	-1.904	-2.717	-5.9320002
43	1	2	-0.32219699	-2.2550001	-3.813	-5.2480001
44	1	3	0.23050199	-1.599	-4.2179999	-4.487
45	1	2	-0.12575801	-3.5450001	-4.4809999	-5.5180001
46	1	3	0.21243501	-3.7939999	-5.336	-4.9070001
47	1	2	-0.22147	-4.3769999	-4.0240002	-6.4850001
48	1	4	0.115173	-5.757	-4.665	-6.7649999
49	1	2	-0.187627	-5.822	-6.1069999	-6.2090001
50	1	2	-0.20423301	-6.4840002	-6.4180002	-5.0679998
51	1	3	0.214834	-7.0229998	-5.6750002	-4.4980001
52	1	2	-0.21896	-6.4840002	-7.7989998	-4.5419998
53	1	3	0.22388101	-7.039	-8.0310001	-3.6429999
54	1	2	-0.21216799	-5.7969999	-8.7580004	-5.1700001
55	1	3	0.22432999	-5.7950001	-9.7679996	-4.7820001
56	1	2	-0.21896	-5.0279999	-8.4350004	-6.3829999
57	1	3	0.22388101	-4.448	-9.2080002	-6.8720002
58	1	2	-0.20423301	-5.0300002	-7.1890001	-6.8709998
59	1	3	0.214834	-4.4310002	-6.9749999	-7.7449999
60	1	2	-0.22147	-6.9000001	-3.796	-6.1890001
61	1	2	-0.074047998	-6.6960001	-2.8789999	-5.2119999
62	1	3	0.21243501	-5.7150002	-2.691	-4.8010001
63	1	2	-0.41608399	-7.8210001	-2.1010001	-4.6529999
64	1	3	0.23597901	-7.6259999	-1.355	-3.8929999
65	1	2	0.43849099	-9.0690002	-2.3169999	-5.0780001
66	1	7	-0.64679098	-10.121	-1.577	-4.5450001
67	1	8	0.43858001	-11.075	-1.726	-4.8499999
68	1	2	-0.41608399	-9.323	-3.346	-6.1059999
69	1	3	0.23597901	-10.336	-3.5439999	-6.4330001
70	1	2	-0.074047998	-8.3070002	-4.0469999	-6.6240001
71	1	3	0.21243501	-8.5290003	-4.816	-7.3509998
72	1	4	-0.14876699	-5.9439998	-4.7389998	-8.3100004
73	1	5	0.087503999	-6.7129998	-5.4910002	-8.5909996
74	1	5	0.087503999	-6.2670002	-3.7620001	-8.7290001
75	1	5	0.087503999	-5	-5.0229998	-8.8219995
76	1	2	-0.12575801	-3.9820001	-2.7780001	-7.21
77	1	3	0.21243501	-4.6430001	-2.336	-7.9419999
78	1	2	-0.32219699	-2.8169999	-2.1719999	-6.9530001
79	1	3	0.23050199	-2.5480001	-1.27	-7.487
80	1	2	0.46869299	-2.2780001	-2.447	6.0609999
81	1	6	-0.55945802	-3.402	-2.1830001	5.6719999
82	1	9	-0.077004001	-1.885	-2.312	7.7649999

Bonds

1	1	1	2
2	2	1	41
3	3	2	3
4	3	2	37
5	4	3	4
6	3	3	5
7	4	5	6
8	3	5	7
9	5	7	8
10	3	7	35
11	5	8	9
12	5	8	20
13	6	8	31
14	3	9	10
15	3	9	18
16	4	10	11
17	3	10	12
18	4	12	13
19	3	12	14
20	4	14	15
21	3	14	16
22	4	16	17
23	3	16	18
24	4	18	19
25	3	20	21
26	3	20	29
27	4	21	22
28	3	21	23
29	4	23	24
30	3	23	25
31	1	25	26
32	3	25	27
33	7	26	39
34	4	27	28
35	3	27	29
36	4	29	30
37	8	31	32
38	8	31	33
39	8	31	34
40	4	35	36
41	3	35	37
42	4	37	38
43	9	39	40
44	10	39	80
45	1	41	42
46	3	42	43
47	3	42	78
48	4	43	44
49	3	43	45
50	4	45	46
51	3	45	47
52	5	47	48
53	3	47	76
54	5	48	49
55	5	48	60
56	6	48	72
57	3	49	50
58	3	49	58
59	4	50	51
60	3	50	52
61	4	52	53
62	3	52	54
63	4	54	55
64	3	54	56
65	4	56	57
66	3	56	58
67	4	58	59
68	3	60	61
69	3	60	70
70	4	61	62
71	3	61	63
72	4	63	64
73	3	63	65
74	11	65	66
75	3	65	68
76	12	66	67
77	4	68	69
78	3	68	70
79	4	70	71
80	8	72	73
81	8	72	74
82	8	72	75
83	4	76	77
84	3	76	78
85	4	78	79
86	9	80	81
87	13	80	82

Angles

1	3	77	76	78
2	1	61	63	65
3	3	35	37	38
4	4	49	48	72
5	3	2	3	4
6	3	42	78	79
7	1	20	29	27
8	1	63	65	66
9	1	39	80	82
10	1	26	25	27
11	3	49	58	59
12	3	3	5	6
13	3	43	45	46
14	1	60	61	63
15	3	53	52	54
16	3	25	27	28
17	1	8	20	21
18	1	2	3	5
19	4	47	48	60
20	1	45	47	76
21	3	55	54	56
22	4	60	48	72
23	1	41	42	43
24	4	48	72	74
25	1	20	21	23
26	3	62	61	63
27	4	8	31	32
28	1	42	43	45
29	3	54	56	57
30	4	7	8	31
31	4	20	8	31
32	1	10	9	18
33	3	14	16	17
34	6	73	72	74
35	3	2	37	38
36	1	48	49	58
37	1	12	14	16
38	3	60	70	71
39	3	56	58	59
40	1	8	7	35
41	3	52	54	55
42	3	4	3	5
43	3	21	23	24
44	1	49	50	52
45	1	14	16	18
46	1	50	52	54
47	3	10	12	13
48	1	8	20	29
49	3	11	10	12
50	3	51	50	52
51	1	41	42	78
52	1	54	56	58
53	1	23	25	26
54	2	2	1	41
55	1	66	65	68
56	1	48	49	50
57	1	45	47	48
58	3	20	21	22
59	3	76	78	79
60	5	26	39	40
61	4	9	8	20
62	4	9	8	31
63	1	5	7	8
64	3	49	50	51
65	3	44	43	45
66	3	17	16	18
67	3	50	52	53
68	3	60	61	62
69	3	42	43	44
70	3	27	29	30
71	2	1	41	42
72	1	26	39	80
73	1	8	9	18
74	4	49	48	60
75	3	20	29	30
76	4	48	72	75
77	3	24	23	25
78	1	21	20	29
79	1	43	42	78
80	1	1	2	37
81	1	50	49	58
82	1	48	60	61
83	4	48	72	73
84	3	47	76	77
85	1	48	47	76
86	3	57	56	58
87	1	3	5	7
88	3	65	68	69
89	3	16	18	19
90	1	25	27	29
91	6	74	72	75
92	3	7	35	36
93	1	2	37	35
94	1	10	12	14
95	1	8	9	10
96	3	6	5	7
97	1	7	35	37
98	1	42	78	76
99	3	36	35	37
100	3	46	45	47
101	3	61	63	64
102	1	21	23	25
103	1	65	68	70
104	1	39	80	81
105	1	49	58	56
106	1	43	45	47
107	1	47	76	78
108	3	68	70	71
109	4	7	8	9
110	4	8	31	34
111	1	52	54	56
112	3	28	27	29
113	3	9	18	19
114	3	13	12	14
115	3	15	14	16
116	4	8	31	33
117	1	23	25	27
118	1	61	60	70
119	1	60	70	68
120	1	1	2	3
121	4	47	48	72
122	1	81	80	82
123	1	48	60	70
124	2	25	26	39
125	4	47	48	49
126	3	9	10	11
127	1	63	65	68
128	2	65	66	67
129	6	33	31	34
130	6	73	72	75
131	3	12	14	15
132	6	32	31	34
133	3	64	63	65
134	3	69	68	70
135	1	3	2	37
136	3	22	21	23
137	6	32	31	33
138	1	40	39	80
139	1	9	18	16
140	1	5	7	35
141	4	7	8	20
142	1	9	10	12

Dihedrals

1	4	20	8	7	35
2	7	26	39	80	82
3	1	62	61	63	64
4	1	66	65	68	69
5	1	24	23	25	26
6	1	48	49	58	59
7	1	23	21	20	29
8	1	9	18	16	14
9	4	47	48	60	61
10	1	48	60	70	68
11	1	61	60	70	68
12	1	64	63	65	68
13	1	45	47	76	78
14	4	5	7	8	9
15	2	37	2	1	41
16	1	47	76	78	79
17	1	46	45	47	76
18	1	1	2	3	4
19	1	3	2	37	38
20	1	5	3	2	37
21	1	8	9	18	19
22	2	25	26	39	40
23	1	41	42	78	79
24	1	8	20	29	30
25	4	47	48	49	50
26	1	62	61	60	70
27	1	66	65	68	70
28	4	61	60	48	72
29	1	63	61	60	70
30	7	40	39	80	82
31	1	20	21	23	25
32	1	3	5	7	35
33	1	63	65	68	69
34	5	7	8	31	32
35	1	8	9	10	11
36	1	21	23	25	26
37	1	43	45	47	48
38	1	52	54	56	58
39	1	44	43	42	78
40	4	7	8	9	10
41	2	3	2	1	41
42	1	48	60	61	62
43	1	49	58	56	54
44	1	14	16	18	19
45	1	50	52	54	56
46	5	9	8	31	32
47	5	60	48	72	73
48	1	11	10	12	14
49	1	48	49	50	51
50	1	45	47	76	77
51	1	50	49	58	59
52	1	62	61	63	65
53	1	1	2	3	5
54	1	48	47	76	78
55	5	47	48	72	75
56	4	29	20	8	31
57	1	64	63	65	66
58	4	58	49	48	60
59	1	43	42	78	76
60	1	48	60	70	71
61	1	63	65	68	70
62	8	67	66	65	68
63	1	49	50	52	54
64	1	8	9	10	12
65	4	47	48	60	70
66	1	52	54	56	57
67	1	6	5	7	8
68	2	23	25	26	39
69	4	5	7	8	20
70	4	5	7	8	31
71	1	5	7	35	37
72	1	4	3	2	37
73	1	44	43	45	47
74	5	47	48	72	73
75	1	23	25	27	28
76	1	60	70	68	65
77	1	60	61	63	64
78	1	77	76	78	79
79	1	9	10	12	13
80	1	2	37	35	36
81	1	69	68	70	71
82	1	60	70	68	69
83	1	48	47	76	77
84	4	9	8	20	29
85	1	42	43	45	47
86	1	49	58	56	57
87	4	45	47	48	72
88	4	72	48	47	76
89	1	2	3	5	6
90	1	22	21	23	24
91	1	46	45	47	48
92	5	60	48	72	75
93	1	61	63	65	68
94	4	45	47	48	49
95	1	49	50	52	53
96	8	63	65	66	67
97	1	21	20	29	30
98	2	27	25	26	39
99	1	20	29	27	28
100	1	1	2	37	38
101	4	50	49	48	60
102	1	53	52	54	56
103	1	20	29	27	25
104	1	12	14	16	17
105	1	48	49	58	56
106	1	7	35	37	38
107	1	4	3	5	6
108	1	9	10	12	14
109	4	10	9	8	20
110	4	10	9	8	31
111	2	1	41	42	43
112	5	20	8	31	34
113	1	42	78	76	47
114	1	15	14	16	17
115	4	18	9	8	20
116	1	50	52	54	55
117	1	10	12	14	15
118	1	8	20	21	23
119	4	60	48	47	76
120	5	20	8	31	33
121	1	55	54	56	57
122	5	49	48	72	75
123	1	2	37	35	7
124	3	2	1	41	42
125	1	5	7	35	36
126	1	11	10	9	18
127	1	61	60	70	71
128	1	8	9	18	16
129	4	49	48	60	61
130	5	9	8	31	33
131	1	3	2	37	35
132	1	61	63	65	66
133	1	60	61	63	65
134	1	15	14	16	18
135	4	7	8	20	21
136	1	41	42	78	76
137	1	8	20	29	27
138	1	25	27	29	30
139	5	49	48	72	73
140	1	54	56	58	59
141	1	9	18	16	17
142	1	41	42	43	45
143	1	28	27	29	30
144	4	70	60	48	72
145	1	50	49	58	56
146	1	26	25	27	29
147	1	55	54	56	58
148	1	3	5	7	8
149	1	52	50	49	58
150	1	13	12	14	15
151	4	45	47	48	60
152	1	2	3	5	7
153	2	1	41	42	78
154	1	12	10	9	18
155	1	51	50	52	54
156	1	8	7	35	36
157	1	24	23	25	27
158	1	45	43	42	78
159	1	65	68	70	71
160	5	7	8	31	34
161	4	7	8	9	18
162	4	18	9	8	31
163	1	20	21	23	24
164	5	60	48	72	74
165	1	4	3	5	7
166	1	8	7	35	37
167	1	8	20	21	22
168	5	7	8	31	33
169	4	49	48	60	70
170	5	9	8	31	34
171	1	6	5	7	35
172	1	48	60	61	63
173	1	10	9	18	19
174	1	13	12	14	16
175	4	31	8	7	35
176	1	43	42	78	79
177	1	22	21	23	25
178	4	49	48	47	76
179	1	12	14	16	18
180	1	48	49	50	52
181	4	9	8	7	35
182	1	26	25	27	28
183	1	36	35	37	38
184	4	7	8	20	29
185	1	10	12	14	16
186	1	17	16	18	19
187	1	11	10	12	13
188	4	21	20	8	31
189	4	9	8	20	21
190	1	21	23	25	27
191	7	40	39	80	81
192	5	47	48	72	74
193	5	49	48	72	74
194	1	51	50	52	53
195	1	22	21	20	29
196	4	50	49	48	72
197	1	1	2	37	35
198	1	43	45	47	76
199	1	23	25	27	29
200	1	21	20	29	27
201	1	44	43	45	46
202	5	20	8	31	32
203	1	41	42	43	44
204	6	25	26	39	80
205	1	57	56	58	59
206	1	10	9	18	16
207	1	42	43	45	46
208	1	42	78	76	77
209	4	47	48	49	58
210	7	26	39	80	81
211	4	58	49	48	72
212	1	53	52	54	55
213	1	51	50	49	58

Impropers

5	1	18	9	16	19
7	1	78	42	76	79
9	1	52	50	53	54
19	1	61	62	63	60
22	1	23	21	24	25
31	1	20	29	8	21
33	1	76	78	47	77
36	1	10	11	12	9
37	1	65	68	63	66
40	1	35	7	36	37
44	1	49	48	50	58
45	1	35	36	37	7
47	1	54	56	52	55
50	1	7	8	35	5
54	1	68	69	70	65
56	2	39	26	40	80
59	1	20	8	21	29
62	1	61	60	62	63
64	1	23	25	21	24
65	1	56	58	54	57
71	1	58	59	49	56
72	1	60	70	48	61
75	1	3	5	2	4
76	1	42	43	78	41
79	1	9	10	18	8
81	1	47	76	45	48
83	1	9	8	10	18
87	1	5	6	7	3
90	1	61	63	60	62
95	1	42	78	41	43
98	1	20	21	29	8
100	1	80	81	82	39
102	1	43	45	42	44
106	1	45	47	43	46
113	1	43	44	45	42
114	1	80	39	81	82
116	1	23	24	25	21
117	1	50	52	49	51
126	1	2	3	37	1
127	1	25	26	27	23
129	1	18	16	19	9
130	1	65	63	66	68
132	1	68	65	69	70
134	1	29	20	27	30
136	1	50	51	52	49
140	1	43	42	44	45
141	1	25	27	23	26
143	1	16	14	17	18
144	1	47	45	48	76
145	1	47	48	76	45
146	1	49	50	58	48
154	1	35	37	7	36
155	1	45	43	46	47
157	1	37	2	35	38
164	1	12	14	10	13
165	1	54	55	56	52
168	1	14	12	15	16
170	1	14	16	12	15
171	1	63	61	64	65
176	1	21	23	20	22
178	1	37	35	38	2
182	1	65	66	68	63
185	1	14	15	16	12
190	1	42	41	43	78
193	1	3	4	5	2
194	1	7	35	5	8
198	1	52	54	50	53
200	1	2	1	3	37
205	1	2	37	1	3
208	1	25	23	26	27
212	1	49	58	48	50
214	1	29	30	20	27
216	1	27	28	29	25
222	1	12	13	14	10
224	1	78	79	42	76
225	1	21	22	23	20
228	1	10	9	11	12
232	1	58	49	56	59
236	1	5	3	6	7
238	1	60	61	70	48
241	2	39	40	80	26
245	1	70	60	68	71
246	1	50	49	51	52
248	1	68	70	65	69
251	1	76	47	77	78
253	1	60	48	61	70
255	1	63	65	61	64
256	1	29	27	30	20
257	1	70	71	60	68
260	1	21	20	22	23
261	1	9	18	8	10
264	1	37	38	2	35
266	1	16	18	14	17
271	1	56	57	58	54
273	1	54	52	55	56
274	1	45	46	47	43
276	2	39	80	26	40
281	1	5	7	3	6
285	1	16	17	18	14
286	1	3	2	4	5
288	1	56	54	57	58
295	1	58	56	59	49
297	1	78	76	79	42
298	1	52	53	54	50
302	1	76	77	78	47
303	1	18	19	9	16
305	1	70	68	71	60
309	1	7	5	8	35
311	1	63	64	65	61
312	1	27	25	28	29
316	1	27	29	25	28
319	1	12	10	13	14
320	1	10	12	9	11
321	1	80	82	39	81
