Title

104 atoms
107 bonds
190 angles
303 dihedrals
78 impropers

9 atom types
13 bond types
6 angle types
13 dihedral types
2 improper types
-11.88399982 88.11600018 xlo xhi
-7.572000027 92.42799997 ylo yhi
-4.021999836 95.97800016 zlo zhi
0.0 0.0 0.0 xy xz yz

Masses

1	15.99943
2	12.01078
3	1.007947
4	12.01078
5	1.007947
6	15.99943
7	15.99943
8	1.007947
9	35.4532


Pair Coeffs

1	0.16846514	3.0251065
2	0.086879315	3.4806469
3	0.015611343	2.5725815
4	0.10884061	3.3795318
5	0.015779483	2.6445434
6	0.2102061	3.0398122
7	0.20947353	2.99716
8	1.2326e-05	0.53453923
9	0.2656001	3.3075278

Bond Coeffs

1 harmonic	425.69104206635	1.362945806494
2 harmonic	300.03137914615	1.451203938761
3 harmonic	360.7852444772	1.387193227181
4 harmonic	397.2545789619	1.085358495916
5 harmonic	289.73813263395	1.498646816465
6 harmonic	264.62148576755	1.52190126495
7 harmonic	301.15400723785	1.345741232799
8 harmonic	370.04670688625	1.093899492634
9 harmonic	582.698766451	1.225198386222
10 harmonic	279.1350963404	1.454628925034
11 harmonic	385.7604595587	1.369745182308
12 harmonic	543.5267831885	0.9716763312559
13 harmonic	218.0227703685	1.746066037062


Angle Coeffs

1 harmonic	57.8982893754	126.8062420451
2 harmonic	65.09061609600001	110.3538806181
3 harmonic	34.066775159195	129.1835929926
4 harmonic	53.20531626545	116.5475862634
5 harmonic	201.41175231035	127.4691416191
6 harmonic	48.776492647595	115.6030999533


Dihedral Coeffs

1 fourier 1	3.661930099076	2	180
2 fourier 1	1.532232714475	2	180
3 fourier 1	0.457973137376	1	0
4 fourier 1	0.02664938770063	3	0
5 fourier 1	0.1155372516788	3	0
6 fourier 1	0.09223874044423	3	0
7 fourier 1	0.3159935921949	2	180
8 fourier 1	0.3247796806857	1	180
9 fourier 1	0.1040663847541	3	0
10 fourier 1	2.779853741805	2	180
11 fourier 1	0.9974165607242	2	180
12 fourier 1	0.1911926717192	3	0
13 fourier 1	0.8283030590042	2	180


Improper Coeffs

1 0.3666666666666667	-1	2
2 3.5	-1	2


Atoms

1	1	1	-0.034768999	-2.4779999	-0.81900001	5.276
2	1	2	0.26696	-1.825	-0.63999999	4.059
3	1	2	-0.32867801	-1.449	0.58499998	3.681
4	1	3	0.219175	-1.6440001	1.437	4.3210001
5	1	2	-0.15905499	-0.75599998	0.78899997	2.392
6	1	3	0.20448899	-0.428	1.7920001	2.1659999
7	1	2	-0.25971001	-0.54699999	-0.243	1.54
8	1	4	0.021713	0.244	-0.086000003	0.219
9	1	2	-0.25971001	-0.31900001	-1.086	-0.82800001
10	1	2	-0.162195	0.463	-1.859	-1.62
11	1	3	0.20448899	1.536	-1.864	-1.5470001
12	1	2	-0.28074899	-0.126	-2.7739999	-2.619
13	1	3	0.219576	0.52600002	-3.375	-3.24
14	1	2	0.430145	-1.452	-2.8629999	-2.757
15	1	1	-0.444913	-1.994	-3.727	-3.704
16	1	2	-0.28074899	-2.3299999	-2.0439999	-1.9
17	1	3	0.219577	-3.405	-2.1210001	-1.998
18	1	2	-0.162195	-1.802	-1.214	-0.99400002
19	1	3	0.20448899	-2.473	-0.64200002	-0.36700001
20	1	4	-0.124075	0.149	1.363	-0.38600001
21	1	4	-0.13798399	-1.273	1.891	-0.67199999
22	1	4	-0.1363	-1.252	3.4000001	-0.94700003
23	1	4	-0.121314	-2.648	3.921	-1.275
24	1	5	0.064168997	-3.046	3.4170001	-2.1819999
25	1	5	0.064168997	-3.3369999	3.7379999	-0.42199999
26	1	5	0.064168997	-2.602	5.013	-1.466
27	1	5	0.087407	-0.57700002	3.615	-1.8049999
28	1	5	0.087407	-0.86900002	3.9389999	-0.052999999
29	1	5	0.096809998	-1.952	1.6950001	0.183
30	1	5	0.096809998	-1.679	1.38	-1.5700001
31	1	5	0.101084	0.69099998	1.3890001	-1.3559999
32	1	5	0.101084	0.68199998	2.0769999	0.278
33	1	4	-0.124075	1.738	-0.39300001	0.61799997
34	1	4	-0.13798399	2.8380001	0.178	-0.30899999
35	1	4	-0.1363	4.1939998	-0.47799999	-0.021
36	1	4	-0.121314	5.2919998	0.115	-0.89899999
37	1	5	0.064168997	5.0560002	-0.045000002	-1.973
38	1	5	0.064168997	6.2589998	-0.38100001	-0.67000002
39	1	5	0.064168997	5.3959999	1.204	-0.70499998
40	1	5	0.087407	4.1290002	-1.571	-0.21799999
41	1	5	0.087407	4.4640002	-0.32699999	1.046
42	1	5	0.096809998	2.9289999	1.272	-0.132
43	1	5	0.096809998	2.5869999	0.035	-1.3789999
44	1	5	0.101084	1.947	0.033	1.626
45	1	5	0.101084	1.865	-1.492	0.73500001
46	1	2	-0.15905499	-0.92299998	-1.613	2.0120001
47	1	3	0.20448899	-0.69199997	-2.4809999	1.408
48	1	2	-0.32867801	-1.535	-1.794	3.187
49	1	3	0.219175	-1.804	-2.7939999	3.506
50	1	2	0.62565601	-3.0320001	-3.8139999	-3.8280001
51	1	6	-0.51391399	-3.7079999	-2.8180001	-4.0219998
52	1	1	-0.034768999	-2.77	-1.739	5.5840001
53	1	2	0.26696	-3.9489999	-1.919	6.302
54	1	2	-0.32867801	-4.3070002	-3.1440001	6.698
55	1	3	0.219175	-3.678	-3.9949999	6.4679999
56	1	2	-0.15905499	-5.5560002	-3.348	7.4590001
57	1	3	0.20448899	-5.7639999	-4.3509998	7.7989998
58	1	2	-0.25971001	-6.395	-2.3150001	7.7140002
59	1	4	0.021713	-7.671	-2.4719999	8.5760002
60	1	2	-0.25971001	-8.7480001	-1.473	8.0710001
61	1	2	-0.118023	-9.4960003	-0.69999999	8.8950005
62	1	3	0.20448899	-9.3640003	-0.69400001	9.9619999
63	1	2	-0.41879201	-10.525	0.215	8.3599997
64	1	3	0.22407299	-11.11	0.81599998	9.0450001
65	1	2	0.41933	-10.735	0.30399999	7.0440001
66	1	7	-0.65345401	-11.71	1.169	6.5539999
67	1	8	0.42986801	-11.884	1.252	5.559
68	1	2	-0.41879201	-9.9259996	-0.514	6.1209998
69	1	3	0.22407299	-10.083	-0.43700001	5.052
70	1	2	-0.118023	-8.9940004	-1.345	6.599
71	1	3	0.20448899	-8.4040003	-1.916	5.895
72	1	4	-0.124075	-8.2810001	-3.921	8.5139999
73	1	4	-0.13798399	-8.6429996	-4.4499998	7.1100001
74	1	4	-0.1363	-8.9169998	-5.9580002	7.1459999
75	1	4	-0.121314	-9.3199997	-6.4790001	5.7690001
76	1	5	0.064168997	-10.247	-5.9759998	5.4219999
77	1	5	0.064168997	-8.5059996	-6.2969999	5.0349998
78	1	5	0.064168997	-9.5089998	-7.572	5.8260002
79	1	5	0.087407	-9.7370005	-6.1739998	7.8660002
80	1	5	0.087407	-8.0039997	-6.4970002	7.4790001
81	1	5	0.096809998	-7.8270001	-4.2540002	6.3850002
82	1	5	0.096809998	-9.5620003	-3.9389999	6.7529998
83	1	5	0.101084	-9.2200003	-3.948	9.1079998
84	1	5	0.101084	-7.5890002	-4.6360002	9.0100002
85	1	4	-0.124075	-7.1919999	-2.1659999	10.046
86	1	4	-0.13798399	-8.0579996	-2.7360001	11.195
87	1	4	-0.1363	-7.697	-2.0799999	12.533
88	1	4	-0.121314	-8.5139999	-2.6730001	13.677
89	1	5	0.064168997	-9.599	-2.513	13.5
90	1	5	0.064168997	-8.2329998	-2.178	14.63
91	1	5	0.064168997	-8.3140001	-3.7620001	13.77
92	1	5	0.087407	-7.8969998	-0.98799998	12.479
93	1	5	0.087407	-6.6170001	-2.2309999	12.745
94	1	5	0.096809998	-7.8759999	-3.8299999	11.276
95	1	5	0.096809998	-9.1400003	-2.5940001	11.002
96	1	5	0.101084	-6.1739998	-2.592	10.2
97	1	5	0.101084	-7.0679998	-1.066	10.166
98	1	2	-0.15905499	-5.9450002	-0.94599998	7.3140001
99	1	3	0.20448899	-6.5349998	-0.077	7.5770001
100	1	2	-0.32867801	-4.8049998	-0.764	6.6389999
101	1	3	0.219175	-4.5009999	0.235	6.3530002
102	1	2	0.46533501	-3.5039999	-4.789	-3.7850001
103	1	6	-0.59584498	-2.8199999	-5.7930002	-3.6800001
104	1	9	-0.094379999	-5.25	-4.9229999	-3.8659999

Bonds

1	1	1	2
2	2	1	52
3	3	2	3
4	3	2	48
5	4	3	4
6	3	3	5
7	4	5	6
8	3	5	7
9	5	7	8
10	3	7	46
11	5	8	9
12	6	8	20
13	6	8	33
14	3	9	10
15	3	9	18
16	4	10	11
17	3	10	12
18	4	12	13
19	3	12	14
20	1	14	15
21	3	14	16
22	7	15	50
23	4	16	17
24	3	16	18
25	4	18	19
26	6	20	21
27	8	20	31
28	8	20	32
29	6	21	22
30	8	21	29
31	8	21	30
32	6	22	23
33	8	22	27
34	8	22	28
35	8	23	24
36	8	23	25
37	8	23	26
38	6	33	34
39	8	33	44
40	8	33	45
41	6	34	35
42	8	34	42
43	8	34	43
44	6	35	36
45	8	35	40
46	8	35	41
47	8	36	37
48	8	36	38
49	8	36	39
50	4	46	47
51	3	46	48
52	4	48	49
53	9	50	51
54	10	50	102
55	1	52	53
56	3	53	54
57	3	53	100
58	4	54	55
59	3	54	56
60	4	56	57
61	3	56	58
62	5	58	59
63	3	58	98
64	5	59	60
65	6	59	72
66	6	59	85
67	3	60	61
68	3	60	70
69	4	61	62
70	3	61	63
71	4	63	64
72	3	63	65
73	11	65	66
74	3	65	68
75	12	66	67
76	4	68	69
77	3	68	70
78	4	70	71
79	6	72	73
80	8	72	83
81	8	72	84
82	6	73	74
83	8	73	81
84	8	73	82
85	6	74	75
86	8	74	79
87	8	74	80
88	8	75	76
89	8	75	77
90	8	75	78
91	6	85	86
92	8	85	96
93	8	85	97
94	6	86	87
95	8	86	94
96	8	86	95
97	6	87	88
98	8	87	92
99	8	87	93
100	8	88	89
101	8	88	90
102	8	88	91
103	4	98	99
104	3	98	100
105	4	100	101
106	9	102	103
107	13	102	104

Angles

1	4	35	36	38
2	3	99	98	100
3	3	10	12	13
4	4	34	33	45
5	4	35	34	42
6	6	27	22	28
7	4	59	85	97
8	1	59	60	70
9	4	88	87	93
10	4	8	20	32
11	1	65	68	70
12	4	87	86	94
13	4	60	59	85
14	1	63	65	66
15	4	73	74	79
16	4	34	35	41
17	1	52	53	100
18	3	60	61	62
19	2	1	52	53
20	6	79	74	80
21	4	86	85	97
22	4	7	8	20
23	4	72	59	85
24	3	55	54	56
25	1	50	102	104
26	1	2	48	46
27	4	33	34	43
28	6	81	73	82
29	3	98	100	101
30	4	35	36	39
31	1	10	12	14
32	4	22	23	24
33	4	73	74	75
34	3	11	10	12
35	4	21	20	32
36	1	1	2	3
37	4	58	59	85
38	1	61	63	65
39	6	29	21	30
40	4	87	86	95
41	1	54	56	58
42	6	38	36	39
43	1	14	16	18
44	3	53	54	55
45	4	20	21	29
46	3	62	61	63
47	1	9	10	12
48	4	75	74	79
49	2	65	66	67
50	4	7	8	9
51	1	60	70	68
52	4	7	8	33
53	4	74	75	76
54	4	85	86	94
55	1	15	50	102
56	1	2	3	5
57	4	36	35	41
58	1	54	53	100
59	4	59	72	83
60	3	69	68	70
61	4	59	85	86
62	4	8	33	44
63	4	75	74	80
64	4	8	20	21
65	1	60	61	63
66	1	66	65	68
67	3	46	48	49
68	6	92	87	93
69	1	15	14	16
70	4	9	8	20
71	4	74	75	77
72	6	31	20	32
73	4	35	34	43
74	3	7	46	47
75	4	59	72	84
76	1	8	9	10
77	3	58	98	99
78	4	23	22	27
79	6	40	35	41
80	4	73	74	80
81	4	20	21	22
82	4	87	88	89
83	4	22	21	29
84	5	15	50	51
85	4	20	8	33
86	1	51	50	102
87	4	86	87	92
88	1	59	58	98
89	1	103	102	104
90	4	22	23	25
91	3	9	18	19
92	6	94	86	95
93	1	5	7	46
94	1	7	46	48
95	4	86	87	88
96	3	3	5	6
97	6	24	23	25
98	4	21	22	27
99	3	16	18	19
100	1	63	65	68
101	6	76	75	77
102	1	52	53	54
103	3	68	70	71
104	6	77	75	78
105	3	53	100	101
106	4	87	88	90
107	4	9	8	33
108	4	73	72	83
109	1	53	54	56
110	4	20	21	30
111	4	21	22	23
112	4	22	23	26
113	4	60	59	72
114	6	83	72	84
115	6	37	36	38
116	4	21	22	28
117	1	59	60	61
118	4	85	86	95
119	4	35	36	37
120	6	76	75	78
121	4	72	73	81
122	1	9	18	16
123	1	1	2	48
124	4	34	33	44
125	2	2	1	52
126	4	73	72	84
127	4	59	72	73
128	4	8	20	31
129	3	65	68	69
130	4	88	87	92
131	4	8	33	45
132	1	10	9	18
133	4	34	35	40
134	4	58	59	60
135	6	89	88	90
136	1	53	100	98
137	1	50	102	103
138	4	33	34	42
139	6	42	34	43
140	4	74	75	78
141	4	72	73	82
142	4	34	35	36
143	4	85	86	87
144	2	14	15	50
145	3	17	16	18
146	4	21	20	31
147	1	8	9	18
148	1	12	14	15
149	3	61	63	64
150	3	54	56	57
151	4	23	22	28
152	6	25	23	26
153	3	47	46	48
154	1	58	98	100
155	1	3	2	48
156	6	89	88	91
157	4	22	21	30
158	4	86	87	93
159	3	60	70	71
160	3	14	16	17
161	6	90	88	91
162	3	9	10	11
163	1	56	58	59
164	1	56	58	98
165	4	72	73	74
166	1	12	14	16
167	3	57	56	58
168	4	74	73	81
169	1	3	5	7
170	6	24	23	26
171	3	64	63	65
172	3	6	5	7
173	3	4	3	5
174	4	87	88	91
175	3	2	3	4
176	4	36	35	40
177	3	2	48	49
178	1	5	7	8
179	4	59	85	96
180	1	61	60	70
181	4	33	34	35
182	4	58	59	72
183	4	86	85	96
184	4	8	33	34
185	1	8	7	46
186	6	44	33	45
187	4	74	73	82
188	6	37	36	39
189	3	13	12	14
190	6	96	85	97

Dihedrals

1	1	53	54	56	57
2	11	51	50	102	104
3	1	3	5	7	8
4	12	25	23	22	27
5	12	29	21	20	31
6	1	9	10	12	13
7	5	7	8	20	31
8	9	75	74	73	82
9	12	89	88	87	93
10	4	5	7	8	9
11	1	13	12	14	16
12	4	5	7	8	33
13	1	52	53	54	56
14	4	85	59	58	98
15	1	69	68	70	71
16	1	59	60	61	63
17	4	18	9	8	20
18	9	59	85	86	95
19	6	73	72	59	85
19	7	73	72	59	85
19	8	73	72	59	85
20	12	39	36	35	41
21	12	77	75	74	79
22	1	2	48	46	7
23	12	43	34	33	45
24	1	8	9	18	16
25	5	60	59	72	73
26	9	34	35	36	37
27	1	55	54	56	58
28	9	36	35	34	42
29	6	72	59	85	86
29	7	72	59	85	86
29	8	72	59	85	86
30	1	61	63	65	66
31	1	54	53	100	101
32	9	21	22	23	24
33	9	22	21	20	32
34	1	2	48	46	47
35	1	53	54	56	58
36	9	59	72	73	81
37	1	63	65	68	70
38	12	92	87	86	95
39	5	9	8	33	45
40	1	10	12	14	15
41	12	29	21	20	32
42	1	9	10	12	14
43	5	7	8	20	32
44	1	3	2	48	49
45	1	12	10	9	18
46	9	20	8	33	45
47	1	66	65	68	69
48	5	60	59	85	97
49	6	20	8	33	34
49	7	20	8	33	34
49	8	20	8	33	34
50	12	38	36	35	40
51	5	60	59	85	86
52	1	56	58	98	99
53	1	17	16	18	19
54	6	59	85	86	87
54	7	59	85	86	87
54	8	59	85	86	87
55	12	82	73	72	84
56	1	1	2	3	5
57	1	15	14	16	17
58	9	20	21	22	27
59	12	37	36	35	40
60	4	56	58	59	85
61	9	83	72	59	85
62	1	2	3	5	7
63	1	5	7	46	47
64	1	56	54	53	100
65	4	58	59	60	70
66	1	63	61	60	70
67	1	10	12	14	16
68	11	15	50	102	104
69	12	76	75	74	79
70	9	73	74	75	76
71	1	8	7	46	47
72	1	62	61	60	70
73	9	74	73	72	84
74	6	20	21	22	23
74	7	20	21	22	23
74	8	20	21	22	23
75	12	90	88	87	92
76	9	8	20	21	30
77	4	18	9	8	33
78	1	66	65	68	70
79	1	54	53	100	98
80	9	88	87	86	94
81	12	26	23	22	27
82	1	12	14	16	18
83	12	38	36	35	41
84	1	62	61	63	64
85	12	30	21	20	31
86	1	56	58	98	100
87	12	27	22	21	29
88	9	31	20	8	33
89	1	53	100	98	58
90	13	63	65	66	67
91	1	3	2	48	46
92	1	64	63	65	68
93	2	48	2	1	52
94	1	8	9	10	11
95	2	14	15	50	51
96	5	9	8	20	31
97	6	59	72	73	74
97	7	59	72	73	74
97	8	59	72	73	74
98	9	72	73	74	79
99	12	76	75	74	80
100	12	95	86	85	97
101	9	73	74	75	77
102	9	86	87	88	89
103	6	33	34	35	36
103	7	33	34	35	36
103	8	33	34	35	36
104	2	1	52	53	100
105	9	35	34	33	44
106	6	8	20	21	22
106	7	8	20	21	22
106	8	8	20	21	22
107	9	36	35	34	43
108	1	61	60	70	71
109	12	42	34	33	44
110	12	41	35	34	42
111	12	25	23	22	28
112	12	30	21	20	32
113	9	88	87	86	95
114	9	32	20	8	33
115	6	72	73	74	75
115	7	72	73	74	75
115	8	72	73	74	75
116	5	9	8	33	34
117	5	7	8	20	21
118	2	3	2	1	52
119	10	14	15	50	102
120	4	61	60	59	72
121	1	7	46	48	49
122	5	60	59	72	83
123	9	72	59	85	96
124	5	7	8	33	44
125	9	8	33	34	42
126	9	34	35	36	38
127	9	86	87	88	90
128	4	10	9	8	20
129	12	93	87	86	94
130	5	58	59	72	83
131	4	70	60	59	72
132	9	21	22	23	25
133	9	59	72	73	82
134	12	81	73	72	83
135	1	99	98	100	101
136	2	16	14	15	50
137	1	55	54	53	100
138	12	91	88	87	92
139	1	4	3	5	6
140	1	59	60	61	62
141	12	78	75	74	79
142	1	6	5	7	46
143	1	61	60	70	68
144	1	54	56	58	59
145	1	65	68	70	71
146	4	7	8	9	10
147	1	54	56	58	98
148	9	8	33	34	43
149	1	15	14	16	18
150	9	20	21	22	28
151	9	33	34	35	40
152	9	34	35	36	39
153	1	5	7	46	48
154	1	1	2	48	49
155	12	37	36	35	41
156	1	59	60	70	71
157	2	1	52	53	54
158	5	58	59	72	84
159	1	3	5	7	46
160	9	21	22	23	26
161	1	59	58	98	99
162	1	61	63	65	68
163	9	87	86	85	96
164	1	4	3	2	48
165	4	5	7	8	20
166	12	94	86	85	96
167	12	28	22	21	29
168	4	60	59	58	98
169	1	8	7	46	48
170	5	58	59	85	96
171	12	90	88	87	93
172	1	14	16	18	19
173	4	9	8	7	46
174	12	91	88	87	93
175	1	4	3	5	7
176	1	11	10	9	18
177	1	60	61	63	64
178	12	78	75	74	80
179	12	26	23	22	28
180	1	62	61	63	65
181	11	51	50	102	103
182	9	85	86	87	92
183	4	20	8	7	46
184	1	8	9	18	19
185	1	58	98	100	101
186	12	27	22	21	30
187	9	33	34	35	41
188	1	9	18	16	17
189	4	70	60	59	85
190	12	40	35	34	42
191	9	75	74	73	81
192	6	8	33	34	35
192	7	8	33	34	35
192	8	8	33	34	35
193	1	52	53	54	55
194	12	24	23	22	27
195	5	9	8	20	32
196	9	59	85	86	94
197	9	72	73	74	80
198	9	84	72	59	85
199	6	85	86	87	88
199	7	85	86	87	88
199	8	85	86	87	88
200	9	73	74	75	78
201	12	43	34	33	44
202	5	9	8	20	21
203	3	2	1	52	53
204	9	35	34	33	45
205	1	1	2	48	46
206	1	59	60	70	68
207	13	67	66	65	68
208	4	72	59	58	98
209	1	47	46	48	49
210	4	56	58	59	60
211	12	42	34	33	45
212	12	41	35	34	43
213	1	63	65	68	69
214	9	85	86	87	93
215	12	92	87	86	94
216	5	9	8	33	44
217	6	21	20	8	33
217	7	21	20	8	33
217	8	21	20	8	33
218	1	53	100	98	99
219	12	40	35	34	43
220	12	79	74	73	81
221	12	24	23	22	28
222	9	20	8	33	44
223	9	23	22	21	29
224	5	60	59	85	96
225	1	52	53	100	101
226	1	5	3	2	48
227	4	58	59	60	61
228	5	60	59	72	84
229	1	57	56	58	59
230	9	72	59	85	97
231	12	82	73	72	83
232	1	57	56	58	98
233	5	7	8	33	45
234	1	1	2	3	4
235	9	86	87	88	91
236	1	9	18	16	14
237	2	12	14	15	50
238	1	2	3	5	6
239	5	7	8	33	34
240	4	33	8	7	46
241	1	64	63	65	66
242	1	10	9	18	19
243	12	93	87	86	95
244	1	60	70	68	69
245	12	81	73	72	84
246	5	58	59	72	73
247	11	15	50	102	103
248	12	80	74	73	81
249	12	79	74	73	82
250	4	61	60	59	85
251	9	74	73	72	83
252	9	8	20	21	29
253	9	23	22	21	30
254	4	7	8	9	18
255	1	11	10	12	13
256	1	60	70	68	65
257	1	12	14	16	17
258	4	10	9	8	33
259	12	89	88	87	92
260	12	77	75	74	80
261	1	59	58	98	100
262	1	13	12	14	15
263	1	8	9	10	12
264	9	87	86	85	97
265	1	52	53	100	98
266	12	94	86	85	97
267	12	39	36	35	40
268	12	80	74	73	82
269	1	6	5	7	8
270	12	28	22	21	30
271	12	95	86	85	96
272	5	58	59	85	97
273	1	55	54	56	57
274	5	58	59	85	86
275	4	56	58	59	72
276	1	60	61	63	65
277	1	10	9	18	16
278	1	11	10	12	14
279	9	22	21	20	31

Impropers

3	1	54	55	56	53
15	1	60	61	70	59
18	1	7	46	5	8
26	1	48	49	2	46
36	1	14	12	15	16
43	1	53	52	54	100
45	1	10	12	9	11
62	1	5	3	6	7
68	1	61	60	62	63
88	1	68	69	70	65
110	1	58	98	56	59
118	1	100	98	101	53
130	1	61	63	60	62
146	1	16	14	17	18
160	1	3	4	5	2
165	1	10	9	11	12
172	1	102	103	104	50
180	1	7	5	8	46
199	1	63	64	65	61
202	1	5	7	3	6
203	1	65	63	66	68
211	2	50	51	102	15
214	1	53	54	100	52
217	1	5	6	7	3
220	1	12	10	13	14
233	1	58	59	98	56
237	1	70	68	71	60
241	1	18	19	9	16
255	1	54	56	53	55
265	1	10	11	12	9
267	1	16	17	18	14
270	1	14	15	16	12
277	1	70	71	60	68
279	1	56	58	54	57
284	1	2	1	3	48
286	1	63	65	61	64
296	1	2	3	48	1
297	1	9	10	18	8
316	1	18	9	16	19
324	1	54	53	55	56
334	1	46	47	48	7
337	1	9	18	8	10
338	1	102	50	103	104
342	2	50	15	51	102
348	1	14	16	12	15
349	1	58	56	59	98
358	1	12	13	14	10
359	1	100	101	53	98
367	1	65	66	68	63
369	1	65	68	63	66
372	1	56	57	58	54
373	1	98	99	100	58
375	1	3	2	4	5
379	1	7	8	46	5
383	1	48	2	46	49
386	1	48	46	49	2
403	1	98	100	58	99
433	1	56	54	57	58
434	1	63	61	64	65
452	1	98	58	99	100
453	1	53	100	52	54
459	1	16	18	14	17
464	1	68	70	65	69
466	1	61	62	63	60
479	1	100	53	98	101
490	1	46	48	7	47
492	1	70	60	68	71
499	1	9	8	10	18
529	1	60	70	59	61
531	1	18	16	19	9
538	1	3	5	2	4
540	2	50	102	15	51
546	1	68	65	69	70
561	1	46	7	47	48
564	1	102	104	50	103
567	1	60	59	61	70
569	1	2	48	1	3
571	1	12	14	10	13
