Title

104 atoms
107 bonds
190 angles
303 dihedrals
78 impropers

9 atom types
13 bond types
6 angle types
13 dihedral types
2 improper types
-11.88399982 88.11600018 xlo xhi
-7.572000027 92.42799997 ylo yhi
-4.021999836 95.97800016 zlo zhi
0.0 0.0 0.0 xy xz yz

Masses

1	15.99943
2	12.01078
3	1.007947
4	12.01078
5	1.007947
6	15.99943
7	15.99943
8	1.007947
9	35.4532


Pair Coeffs

1	0.16846514	3.0251065
2	0.086879315	3.4806469
3	0.015611343	2.5725815
4	0.10884061	3.3795318
5	0.015779483	2.6445434
6	0.2102061	3.0398122
7	0.20947353	2.99716
8	1.2326e-05	0.53453923
9	0.2656001	3.3075278

Bond Coeffs

1 harmonic	425.69104206635	1.362945806494
2 harmonic	300.03137914615	1.451203938761
3 harmonic	360.7852444772	1.387193227181
4 harmonic	397.2545789619	1.085358495916
5 harmonic	289.73813263395	1.498646816465
6 harmonic	264.62148576755	1.52190126495
7 harmonic	301.15400723785	1.345741232799
8 harmonic	370.04670688625	1.093899492634
9 harmonic	582.698766451	1.225198386222
10 harmonic	279.1350963404	1.454628925034
11 harmonic	385.7604595587	1.369745182308
12 harmonic	543.5267831885	0.9716763312559
13 harmonic	218.0227703685	1.746066037062


Angle Coeffs

1 harmonic	57.8982893754	126.8062420451
2 harmonic	65.09061609600001	110.3538806181
3 harmonic	34.066775159195	129.1835929926
4 harmonic	53.20531626545	116.5475862634
5 harmonic	201.41175231035	127.4691416191
6 harmonic	48.776492647595	115.6030999533


Dihedral Coeffs

1 fourier 1	3.661930099076	2	180
2 fourier 1	1.532232714475	2	180
3 fourier 1	0.457973137376	1	0
4 fourier 1	0.02664938770063	3	0
5 fourier 1	0.1155372516788	3	0
6 fourier 1	0.09223874044423	3	0
7 fourier 1	0.3159935921949	2	180
8 fourier 1	0.3247796806857	1	180
9 fourier 1	0.1040663847541	3	0
10 fourier 1	2.779853741805	2	180
11 fourier 1	0.9974165607242	2	180
12 fourier 1	0.1911926717192	3	0
13 fourier 1	0.8283030590042	2	180


Improper Coeffs

1 0.3666666666666667	-1	2
2 3.5	-1	2


Atoms

1	1	1	-0.034768999	-2.4779999	-0.81900001	5.276
2	1	2	0.26696	-1.825	-0.63999999	4.059
3	1	2	-0.32867801	-1.449	0.58499998	3.681
4	1	3	0.219175	-1.6440001	1.437	4.3210001
5	1	2	-0.15905499	-0.75599998	0.78899997	2.392
6	1	3	0.20448899	-0.428	1.7920001	2.1659999
7	1	2	-0.25971001	-0.54699999	-0.243	1.54
8	1	4	0.021713	0.244	-0.086000003	0.219
9	1	2	-0.25971001	-0.31900001	-1.086	-0.82800001
10	1	2	-0.162195	0.463	-1.859	-1.62
11	1	3	0.20448899	1.536	-1.864	-1.5470001
12	1	2	-0.28074899	-0.126	-2.7739999	-2.619
13	1	3	0.219576	0.52600002	-3.375	-3.24
14	1	2	0.430145	-1.452	-2.8629999	-2.757
15	1	1	-0.444913	-1.994	-3.727	-3.704
16	1	2	-0.28074899	-2.3299999	-2.0439999	-1.9
17	1	3	0.219577	-3.405	-2.1210001	-1.998
18	1	2	-0.162195	-1.802	-1.214	-0.99400002
19	1	3	0.20448899	-2.473	-0.64200002	-0.36700001
20	1	4	-0.124075	0.149	1.363	-0.38600001
21	1	4	-0.13798399	-1.273	1.891	-0.67199999
22	1	4	-0.1363	-1.252	3.4000001	-0.94700003
23	1	4	-0.121314	-2.648	3.921	-1.275
24	1	5	0.064168997	-3.046	3.4170001	-2.1819999
25	1	5	0.064168997	-3.3369999	3.7379999	-0.42199999
26	1	5	0.064168997	-2.602	5.013	-1.466
27	1	5	0.087407	-0.57700002	3.615	-1.8049999
28	1	5	0.087407	-0.86900002	3.9389999	-0.052999999
29	1	5	0.096809998	-1.952	1.6950001	0.183
30	1	5	0.096809998	-1.679	1.38	-1.5700001
31	1	5	0.101084	0.69099998	1.3890001	-1.3559999
32	1	5	0.101084	0.68199998	2.0769999	0.278
33	1	4	-0.124075	1.738	-0.39300001	0.61799997
34	1	4	-0.13798399	2.8380001	0.178	-0.30899999
35	1	4	-0.1363	4.1939998	-0.47799999	-0.021
36	1	4	-0.121314	5.2919998	0.115	-0.89899999
37	1	5	0.064168997	5.0560002	-0.045000002	-1.973
38	1	5	0.064168997	6.2589998	-0.38100001	-0.67000002
39	1	5	0.064168997	5.3959999	1.204	-0.70499998
40	1	5	0.087407	4.1290002	-1.571	-0.21799999
41	1	5	0.087407	4.4640002	-0.32699999	1.046
42	1	5	0.096809998	2.9289999	1.272	-0.132
43	1	5	0.096809998	2.5869999	0.035	-1.3789999
44	1	5	0.101084	1.947	0.033	1.626
45	1	5	0.101084	1.865	-1.492	0.73500001
46	1	2	-0.15905499	-0.92299998	-1.613	2.0120001
47	1	3	0.20448899	-0.69199997	-2.4809999	1.408
48	1	2	-0.32867801	-1.535	-1.794	3.187
49	1	3	0.219175	-1.804	-2.7939999	3.506
50	1	2	0.62565601	-3.0320001	-3.8139999	-3.8280001
51	1	6	-0.51391399	-3.7079999	-2.8180001	-4.0219998
52	1	1	-0.034768999	-2.77	-1.739	5.5840001
53	1	2	0.26696	-3.9489999	-1.919	6.302
54	1	2	-0.32867801	-4.3070002	-3.1440001	6.698
55	1	3	0.219175	-3.678	-3.9949999	6.4679999
56	1	2	-0.15905499	-5.5560002	-3.348	7.4590001
57	1	3	0.20448899	-5.7639999	-4.3509998	7.7989998
58	1	2	-0.25971001	-6.395	-2.3150001	7.7140002
59	1	4	0.021713	-7.671	-2.4719999	8.5760002
60	1	2	-0.25971001	-8.7480001	-1.473	8.0710001
61	1	2	-0.118023	-9.4960003	-0.69999999	8.8950005
62	1	3	0.20448899	-9.3640003	-0.69400001	9.9619999
63	1	2	-0.41879201	-10.525	0.215	8.3599997
64	1	3	0.22407299	-11.11	0.81599998	9.0450001
65	1	2	0.41933	-10.735	0.30399999	7.0440001
66	1	7	-0.65345401	-11.71	1.169	6.5539999
67	1	8	0.42986801	-11.884	1.252	5.559
68	1	2	-0.41879201	-9.9259996	-0.514	6.1209998
69	1	3	0.22407299	-10.083	-0.43700001	5.052
70	1	2	-0.118023	-8.9940004	-1.345	6.599
71	1	3	0.20448899	-8.4040003	-1.916	5.895
72	1	4	-0.124075	-8.2810001	-3.921	8.5139999
73	1	4	-0.13798399	-8.6429996	-4.4499998	7.1100001
74	1	4	-0.1363	-8.9169998	-5.9580002	7.1459999
75	1	4	-0.121314	-9.3199997	-6.4790001	5.7690001
76	1	5	0.064168997	-10.247	-5.9759998	5.4219999
77	1	5	0.064168997	-8.5059996	-6.2969999	5.0349998
78	1	5	0.064168997	-9.5089998	-7.572	5.8260002
79	1	5	0.087407	-9.7370005	-6.1739998	7.8660002
80	1	5	0.087407	-8.0039997	-6.4970002	7.4790001
81	1	5	0.096809998	-7.8270001	-4.2540002	6.3850002
82	1	5	0.096809998	-9.5620003	-3.9389999	6.7529998
83	1	5	0.101084	-9.2200003	-3.948	9.1079998
84	1	5	0.101084	-7.5890002	-4.6360002	9.0100002
85	1	4	-0.124075	-7.1919999	-2.1659999	10.046
86	1	4	-0.13798399	-8.0579996	-2.7360001	11.195
87	1	4	-0.1363	-7.697	-2.0799999	12.533
88	1	4	-0.121314	-8.5139999	-2.6730001	13.677
89	1	5	0.064168997	-9.599	-2.513	13.5
90	1	5	0.064168997	-8.2329998	-2.178	14.63
91	1	5	0.064168997	-8.3140001	-3.7620001	13.77
92	1	5	0.087407	-7.8969998	-0.98799998	12.479
93	1	5	0.087407	-6.6170001	-2.2309999	12.745
94	1	5	0.096809998	-7.8759999	-3.8299999	11.276
95	1	5	0.096809998	-9.1400003	-2.5940001	11.002
96	1	5	0.101084	-6.1739998	-2.592	10.2
97	1	5	0.101084	-7.0679998	-1.066	10.166
98	1	2	-0.15905499	-5.9450002	-0.94599998	7.3140001
99	1	3	0.20448899	-6.5349998	-0.077	7.5770001
100	1	2	-0.32867801	-4.8049998	-0.764	6.6389999
101	1	3	0.219175	-4.5009999	0.235	6.3530002
102	1	2	0.46533501	-3.5039999	-4.789	-3.7850001
103	1	6	-0.59584498	-2.8199999	-5.7930002	-3.6800001
104	1	9	-0.094379999	-5.25	-4.9229999	-3.8659999

Bonds

1	1	1	2
2	2	1	52
3	3	2	3
4	3	2	48
5	4	3	4
6	3	3	5
7	4	5	6
8	3	5	7
9	5	7	8
10	3	7	46
11	5	8	9
12	6	8	20
13	6	8	33
14	3	9	10
15	3	9	18
16	4	10	11
17	3	10	12
18	4	12	13
19	3	12	14
20	1	14	15
21	3	14	16
22	7	15	50
23	4	16	17
24	3	16	18
25	4	18	19
26	6	20	21
27	8	20	31
28	8	20	32
29	6	21	22
30	8	21	29
31	8	21	30
32	6	22	23
33	8	22	27
34	8	22	28
35	8	23	24
36	8	23	25
37	8	23	26
38	6	33	34
39	8	33	44
40	8	33	45
41	6	34	35
42	8	34	42
43	8	34	43
44	6	35	36
45	8	35	40
46	8	35	41
47	8	36	37
48	8	36	38
49	8	36	39
50	4	46	47
51	3	46	48
52	4	48	49
53	9	50	51
54	10	50	102
55	1	52	53
56	3	53	54
57	3	53	100
58	4	54	55
59	3	54	56
60	4	56	57
61	3	56	58
62	5	58	59
63	3	58	98
64	5	59	60
65	6	59	72
66	6	59	85
67	3	60	61
68	3	60	70
69	4	61	62
70	3	61	63
71	4	63	64
72	3	63	65
73	11	65	66
74	3	65	68
75	12	66	67
76	4	68	69
77	3	68	70
78	4	70	71
79	6	72	73
80	8	72	83
81	8	72	84
82	6	73	74
83	8	73	81
84	8	73	82
85	6	74	75
86	8	74	79
87	8	74	80
88	8	75	76
89	8	75	77
90	8	75	78
91	6	85	86
92	8	85	96
93	8	85	97
94	6	86	87
95	8	86	94
96	8	86	95
97	6	87	88
98	8	87	92
99	8	87	93
100	8	88	89
101	8	88	90
102	8	88	91
103	4	98	99
104	3	98	100
105	4	100	101
106	9	102	103
107	13	102	104

Angles

1	1	12	14	15
2	3	14	16	17
3	1	2	3	5
4	4	34	33	44
5	4	36	35	40
6	4	23	22	28
7	4	35	34	42
8	1	63	65	68
9	4	85	86	87
10	4	87	86	95
11	3	54	56	57
12	3	68	70	71
13	1	51	50	102
14	4	21	22	23
15	4	9	8	33
16	4	21	22	27
17	4	34	35	36
18	5	15	50	51
19	3	99	98	100
20	4	35	36	37
21	3	55	54	56
22	4	74	73	82
23	6	37	36	39
24	3	2	48	49
25	4	20	21	30
26	4	74	75	76
27	6	81	73	82
28	6	83	72	84
29	4	87	86	94
30	4	75	74	80
31	4	8	33	44
32	1	54	56	58
33	4	58	59	60
34	4	22	23	25
35	1	54	53	100
36	4	60	59	85
37	1	52	53	54
38	4	59	72	73
39	6	92	87	93
40	1	1	2	48
41	3	6	5	7
42	4	21	20	31
43	1	5	7	46
44	3	46	48	49
45	6	76	75	78
46	4	86	87	92
47	6	90	88	91
48	6	40	35	41
49	6	42	34	43
50	1	53	54	56
51	2	14	15	50
52	4	87	88	89
53	1	59	58	98
54	4	88	87	92
55	4	7	8	9
56	4	58	59	85
57	3	61	63	64
58	1	3	5	7
59	1	53	100	98
60	1	8	9	10
61	3	62	61	63
62	4	7	8	20
63	4	74	75	78
64	1	56	58	98
65	1	103	102	104
66	3	11	10	12
67	4	72	73	81
68	1	14	16	18
69	1	63	65	66
70	1	12	14	16
71	1	56	58	59
72	4	34	35	41
73	6	94	86	95
74	1	61	63	65
75	1	50	102	103
76	3	10	12	13
77	4	74	75	77
78	3	69	68	70
79	4	34	33	45
80	4	22	21	29
81	4	35	34	43
82	3	16	18	19
83	1	15	14	16
84	3	58	98	99
85	6	79	74	80
86	4	7	8	33
87	3	47	46	48
88	2	65	66	67
89	4	21	22	28
90	4	75	74	79
91	4	86	85	96
92	4	35	36	38
93	1	15	50	102
94	3	13	12	14
95	3	7	46	47
96	4	85	86	95
97	3	60	61	62
98	4	86	87	88
99	4	59	85	96
100	4	20	21	22
101	4	72	59	85
102	6	27	22	28
103	4	8	33	45
104	1	8	9	18
105	3	65	68	69
106	6	89	88	91
107	4	21	20	32
108	4	73	72	84
109	4	73	74	80
110	4	33	34	42
111	6	24	23	26
112	4	22	21	30
113	3	53	100	101
114	3	64	63	65
115	4	87	88	91
116	6	96	85	97
117	4	85	86	94
118	1	60	61	63
119	4	59	85	97
120	6	31	20	32
121	1	8	7	46
122	1	9	18	16
123	2	2	1	52
124	1	1	2	3
125	1	59	60	70
126	4	73	74	75
127	4	74	73	81
128	6	89	88	90
129	1	60	70	68
130	1	10	9	18
131	4	33	34	43
132	4	23	22	27
133	4	72	73	74
134	1	3	2	48
135	4	20	21	29
136	4	22	23	24
137	4	35	36	39
138	3	98	100	101
139	3	9	10	11
140	1	59	60	61
141	4	72	73	82
142	1	10	12	14
143	4	34	35	40
144	4	33	34	35
145	4	8	33	34
146	4	86	85	97
147	4	59	72	84
148	1	65	68	70
149	6	44	33	45
150	1	50	102	104
151	6	29	21	30
152	3	3	5	6
153	4	8	20	31
154	1	9	10	12
155	3	53	54	55
156	4	73	74	79
157	2	1	52	53
158	3	9	18	19
159	6	37	36	38
160	1	61	60	70
161	4	22	23	26
162	6	24	23	25
163	4	36	35	41
164	6	25	23	26
165	4	86	87	93
166	3	57	56	58
167	4	8	20	21
168	4	60	59	72
169	1	7	46	48
170	6	77	75	78
171	3	17	16	18
172	3	60	70	71
173	4	59	85	86
174	4	59	72	83
175	1	66	65	68
176	4	73	72	83
177	3	2	3	4
178	4	9	8	20
179	3	4	3	5
180	4	87	88	90
181	4	8	20	32
182	4	88	87	93
183	1	58	98	100
184	1	2	48	46
185	1	5	7	8
186	4	58	59	72
187	1	52	53	100
188	6	38	36	39
189	4	20	8	33
190	6	76	75	77

Dihedrals

1	5	9	8	20	21
2	12	43	34	33	45
3	4	61	60	59	85
4	9	33	34	35	40
5	12	80	74	73	82
6	5	60	59	72	73
7	1	69	68	70	71
8	9	59	72	73	82
9	1	59	60	61	62
10	1	66	65	68	69
11	9	74	73	72	84
12	1	54	56	58	98
13	12	81	73	72	83
14	12	42	34	33	44
15	1	1	2	3	4
16	12	25	23	22	27
17	9	72	73	74	79
18	1	8	7	46	48
19	1	56	58	98	100
20	1	8	9	18	19
21	4	72	59	58	98
22	1	5	7	46	48
23	2	1	52	53	54
24	5	60	59	85	96
25	12	40	35	34	43
26	1	1	2	48	46
27	1	63	61	60	70
28	1	54	56	58	59
29	12	93	87	86	94
30	4	56	58	59	85
31	9	8	20	21	29
32	12	37	36	35	41
33	12	39	36	35	40
34	1	59	60	70	71
35	6	73	72	59	85
35	7	73	72	59	85
35	8	73	72	59	85
36	9	73	74	75	78
37	2	48	2	1	52
38	1	59	60	70	68
39	1	59	60	61	63
40	5	7	8	20	31
41	9	32	20	8	33
42	1	57	56	58	59
43	4	33	8	7	46
44	1	60	70	68	65
45	1	52	53	54	55
46	12	42	34	33	45
47	9	8	33	34	42
48	5	7	8	33	44
49	12	94	86	85	97
50	1	9	18	16	14
51	5	9	8	33	34
52	2	1	52	53	100
53	12	89	88	87	93
54	4	70	60	59	72
55	5	7	8	20	21
56	1	55	54	56	57
57	1	7	46	48	49
58	1	15	14	16	18
59	12	78	75	74	80
60	11	15	50	102	104
61	9	34	35	36	37
62	9	23	22	21	30
63	9	72	59	85	97
64	9	73	74	75	77
65	1	59	58	98	99
66	12	79	74	73	81
67	9	21	22	23	26
68	1	60	61	63	65
69	6	85	86	87	88
69	7	85	86	87	88
69	8	85	86	87	88
70	9	75	74	73	82
71	12	78	75	74	79
72	12	91	88	87	92
73	5	7	8	20	32
74	1	10	9	18	16
75	1	3	2	48	49
76	9	21	22	23	25
77	2	16	14	15	50
78	12	26	23	22	27
79	1	52	53	54	56
80	6	72	59	85	86
80	7	72	59	85	86
80	8	72	59	85	86
81	9	86	87	88	91
82	5	7	8	33	45
83	4	56	58	59	60
84	5	58	59	85	96
85	1	8	9	10	12
86	12	37	36	35	40
87	6	59	85	86	87
87	7	59	85	86	87
87	8	59	85	86	87
88	12	76	75	74	80
89	1	55	54	56	58
90	6	33	34	35	36
90	7	33	34	35	36
90	8	33	34	35	36
91	1	12	14	16	17
92	11	51	50	102	104
93	5	9	8	20	32
94	9	35	34	33	45
95	1	4	3	5	6
96	12	27	22	21	29
97	1	66	65	68	70
98	9	20	8	33	44
99	9	22	21	20	31
100	1	56	54	53	100
101	1	12	14	16	18
102	12	26	23	22	28
103	1	57	56	58	98
104	9	87	86	85	97
105	1	53	100	98	99
106	9	31	20	8	33
107	5	58	59	85	97
108	12	77	75	74	80
109	12	92	87	86	95
110	12	79	74	73	82
111	1	10	12	14	16
112	6	8	33	34	35
112	7	8	33	34	35
112	8	8	33	34	35
113	1	17	16	18	19
114	5	60	59	72	84
115	12	77	75	74	79
116	4	58	59	60	70
117	9	74	73	72	83
118	2	14	15	50	51
119	1	1	2	3	5
120	12	25	23	22	28
121	1	64	63	65	68
122	9	20	8	33	45
123	4	5	7	8	9
124	1	2	3	5	6
125	5	60	59	85	97
126	12	38	36	35	41
127	4	70	60	59	85
128	12	30	21	20	31
129	2	12	14	15	50
130	1	64	63	65	66
131	1	13	12	14	16
132	4	5	7	8	20
133	11	15	50	102	103
134	1	4	3	5	7
135	12	28	22	21	29
136	12	89	88	87	92
137	12	27	22	21	30
138	1	65	68	70	71
139	5	60	59	85	86
140	1	62	61	60	70
141	9	88	87	86	95
142	1	1	2	48	49
143	6	21	20	8	33
143	7	21	20	8	33
143	8	21	20	8	33
144	5	9	8	33	44
145	13	67	66	65	68
146	9	8	33	34	43
147	1	61	63	65	68
148	1	56	58	98	99
149	4	58	59	60	61
150	4	85	59	58	98
151	4	10	9	8	20
152	9	8	20	21	30
153	1	62	61	63	65
154	1	11	10	12	13
155	12	41	35	34	42
156	1	53	54	56	57
157	1	61	63	65	66
158	4	20	8	7	46
159	9	34	35	36	38
160	12	82	73	72	84
161	4	7	8	9	10
162	1	3	5	7	8
163	11	51	50	102	103
164	9	33	34	35	41
165	12	76	75	74	79
166	9	59	72	73	81
167	13	63	65	66	67
168	5	58	59	72	84
169	6	72	73	74	75
169	7	72	73	74	75
169	8	72	73	74	75
170	1	4	3	2	48
171	12	29	21	20	31
172	4	60	59	58	98
173	9	88	87	86	94
174	1	2	48	46	7
175	1	2	3	5	7
176	12	38	36	35	40
177	9	85	86	87	93
178	4	5	7	8	33
179	9	36	35	34	42
180	5	9	8	33	45
181	1	62	61	63	64
182	9	86	87	88	90
183	6	20	21	22	23
183	7	20	21	22	23
183	8	20	21	22	23
184	12	43	34	33	44
185	9	84	72	59	85
186	9	20	21	22	27
187	12	28	22	21	30
188	1	52	53	100	98
189	1	5	7	46	47
190	1	12	10	9	18
191	1	53	54	56	58
192	1	63	65	68	69
193	4	10	9	8	33
194	1	54	53	100	98
195	12	95	86	85	96
196	5	58	59	85	86
197	9	22	21	20	32
198	4	18	9	8	20
199	12	29	21	20	32
200	1	61	60	70	68
201	9	87	86	85	96
202	1	47	46	48	49
203	1	2	48	46	47
204	9	59	85	86	95
205	1	6	5	7	8
206	4	61	60	59	72
207	9	20	21	22	28
208	12	92	87	86	94
209	1	9	10	12	13
210	1	55	54	53	100
211	12	93	87	86	95
212	1	59	58	98	100
213	1	10	9	18	19
214	2	3	2	1	52
215	9	72	73	74	80
216	5	60	59	72	83
217	9	23	22	21	29
218	9	21	22	23	24
219	1	3	5	7	46
220	1	60	70	68	69
221	12	95	86	85	97
222	1	10	12	14	15
223	9	75	74	73	81
224	12	24	23	22	27
225	9	34	35	36	39
226	1	9	18	16	17
227	12	94	86	85	96
228	5	7	8	33	34
229	4	7	8	9	18
230	10	14	15	50	102
231	12	30	21	20	32
232	1	8	9	18	16
233	1	11	10	9	18
234	1	3	2	48	46
235	9	59	85	86	94
236	9	72	59	85	96
237	12	80	74	73	81
238	4	56	58	59	72
239	1	99	98	100	101
240	4	18	9	8	33
241	1	60	61	63	64
242	1	5	3	2	48
243	1	13	12	14	15
244	1	14	16	18	19
245	1	9	10	12	14
246	1	15	14	16	17
247	1	53	100	98	58
248	1	58	98	100	101
249	12	24	23	22	28
250	12	90	88	87	93
251	1	8	9	10	11
252	1	8	7	46	47
253	6	59	72	73	74
253	7	59	72	73	74
253	8	59	72	73	74
254	9	85	86	87	92
255	12	41	35	34	43
256	9	86	87	88	89
257	12	91	88	87	93
258	6	8	20	21	22
258	7	8	20	21	22
258	8	8	20	21	22
259	12	82	73	72	83
260	9	73	74	75	76
261	1	6	5	7	46
262	5	9	8	20	31
263	9	35	34	33	44
264	12	39	36	35	41
265	1	52	53	100	101
266	1	11	10	12	14
267	5	58	59	72	73
268	12	81	73	72	84
269	5	58	59	72	83
270	12	90	88	87	92
271	3	2	1	52	53
272	9	83	72	59	85
273	1	61	60	70	71
274	4	9	8	7	46
275	1	54	53	100	101
276	1	63	65	68	70
277	6	20	8	33	34
277	7	20	8	33	34
277	8	20	8	33	34
278	9	36	35	34	43
279	12	40	35	34	42

Impropers

16	1	18	19	9	16
20	1	54	55	56	53
29	1	68	70	65	69
30	1	18	9	16	19
35	1	2	3	48	1
40	1	98	99	100	58
42	1	100	98	101	53
61	1	16	17	18	14
79	1	3	4	5	2
87	1	102	103	104	50
89	1	61	63	60	62
99	1	3	5	2	4
102	1	61	62	63	60
114	1	53	52	54	100
119	1	7	46	5	8
123	1	46	7	47	48
127	1	5	3	6	7
135	1	58	56	59	98
144	1	9	18	8	10
148	1	46	48	7	47
161	1	98	58	99	100
167	1	53	54	100	52
179	1	12	13	14	10
182	1	65	66	68	63
186	1	53	100	52	54
188	1	58	59	98	56
200	2	50	15	51	102
210	1	10	9	11	12
221	1	63	64	65	61
222	1	12	14	10	13
228	1	68	65	69	70
231	1	102	104	50	103
234	1	60	61	70	59
241	1	70	68	71	60
247	1	58	98	56	59
268	2	50	51	102	15
280	1	102	50	103	104
285	1	16	14	17	18
286	1	56	57	58	54
290	1	5	6	7	3
294	1	48	2	46	49
299	1	68	69	70	65
315	1	9	10	18	8
321	1	100	101	53	98
325	1	12	10	13	14
328	1	2	1	3	48
333	2	50	102	15	51
337	1	70	71	60	68
344	1	10	12	9	11
356	1	48	49	2	46
357	1	65	63	66	68
359	1	56	54	57	58
362	1	61	60	62	63
366	1	63	61	64	65
367	1	65	68	63	66
368	1	2	48	1	3
369	1	18	16	19	9
373	1	98	100	58	99
388	1	60	70	59	61
393	1	54	53	55	56
404	1	3	2	4	5
405	1	14	12	15	16
410	1	7	5	8	46
422	1	63	65	61	64
432	1	10	11	12	9
443	1	70	60	68	71
451	1	48	46	49	2
457	1	9	8	10	18
460	1	16	18	14	17
465	1	100	53	98	101
467	1	7	8	46	5
470	1	56	58	54	57
474	1	14	15	16	12
493	1	46	47	48	7
499	1	5	7	3	6
517	1	54	56	53	55
523	1	60	59	61	70
535	1	14	16	12	15
