Title

11500 atoms
11875 bonds
20750 angles
28875 dihedrals
9750 impropers

9 atom types
13 bond types
6 angle types
10 dihedral types
2 improper types
-9.308903732 110.5419437 xlo xhi
-10.0316473 112.4926553 ylo yhi
-11.09292039 112.4942005 zlo zhi
0.0 0.0 0.0 xy xz yz

Masses

1	15.99943
2	12.01078
3	1.007947
4	12.01078
5	1.007947
6	15.99943
7	15.99943
8	1.007947
9	35.4532


Pair Coeffs

1	0.16846514	3.0251065
2	0.086879315	3.4806469
3	0.015611343	2.5725815
4	0.10884061	3.3795318
5	0.015779483	2.6445434
6	0.2102061	3.0398122
7	0.20947353	2.99716
8	1.2326e-05	0.53453923
9	0.2656001	3.3075278

Bond Coeffs

1 harmonic	425.69104206635	1.362945806494
2 harmonic	300.03137914615	1.451203938761
3 harmonic	360.7852444772	1.387193227181
4 harmonic	397.2545789619	1.085358495916
5 harmonic	289.73813263395	1.498646816465
6 harmonic	264.62148576755	1.52190126495
7 harmonic	301.15400723785	1.345741232799
8 harmonic	370.04670688625	1.093899492634
9 harmonic	582.698766451	1.225198386222
10 harmonic	279.1350963404	1.454628925034
11 harmonic	385.7604595587	1.369745182308
12 harmonic	543.5267831885	0.9716763312559
13 harmonic	218.0227703685	1.746066037062


Angle Coeffs

1 harmonic	57.8982893754	126.8062420451
2 harmonic	65.09061609600001	110.3538806181
3 harmonic	34.066775159195	129.1835929926
4 harmonic	53.20531626545	116.5475862634
5 harmonic	201.41175231035	127.4691416191
6 harmonic	48.776492647595	115.6030999533


Dihedral Coeffs

1 fourier 1	3.661930099076	2	180
2 fourier 1	1.532232714475	2	180
3 fourier 1	0.457973137376	1	0
4 fourier 1	0.02664938770063	3	0
5 fourier 1	0.1155372516788	3	0
6 fourier 1	2.779853741805	2	180
7 fourier 1	0.9974165607242	2	180
8 fourier 1	0.1911926717192	3	0
9 fourier 1	0.1040663847541	3	0
10 fourier 1	0.8283030590042	2	180


Improper Coeffs

1 0.3666666666666667	-1	2
2 3.5	-1	2


Atoms

1	4	1	-0.017759873	1.9951639	-1.8534984	-2.659761
2	4	2	0.14465509	0.61699212	-1.6328163	-2.627889
3	4	2	-0.26829663	0.081471095	-0.83154778	-3.5540812
4	4	3	0.23065488	0.71107176	-0.37950152	-4.3103756
5	4	2	-0.14950245	-1.3620889	-0.53932287	-3.5539426
6	4	3	0.21550357	-1.751249	0.10763994	-4.3300641
7	4	2	-0.23562226	-2.176663	-1.0498058	-2.6073327
8	4	4	0.0073520417	-3.6851458	-0.72878431	-2.64963
9	4	2	-0.23562223	-3.893488	0.79439391	-2.7591501
10	4	2	-0.14979908	-3.2646959	1.6172704	-1.8919795
11	4	3	0.21550357	-2.5997394	1.2193839	-1.1341424
12	4	2	-0.23832351	-3.4607789	3.0769436	-1.945689
13	4	3	0.23053129	-2.9362486	3.7057498	-1.2375254
14	4	2	0.34748402	-4.2826839	3.6171399	-2.8550124
15	4	1	-0.424947	-4.4735798	4.9990353	-2.8980586
16	4	2	-0.16814132	-4.9973199	2.7402615	-3.8170756
17	4	4	-0.09976944	-5.9644715	3.3350712	-4.8092894
18	4	4	-0.10279297	-7.3550649	3.4628599	-4.1975437
19	4	5	0.066937092	-7.3249071	4.123488	-3.3046931
20	4	5	0.066937092	-8.0502289	3.9044287	-4.9427961
21	4	5	0.066937092	-7.7392273	2.4633572	-3.900681
22	4	5	0.10282686	-6.0227522	2.7027018	-5.7227933
23	4	5	0.10282686	-5.6120355	4.3374919	-5.1323614
24	4	2	-0.22711912	-4.8257047	1.4072547	-3.7544805
25	4	3	0.20895581	-5.3817015	0.78307166	-4.438843
26	4	4	-0.13007072	-4.4333004	-1.1995589	-1.3798659
27	4	5	0.088860359	-3.9697976	-0.77773326	-0.46256911
28	4	5	0.088860359	-4.4390515	-2.3088854	-1.3026999
29	4	5	0.088860359	-5.4941771	-0.86597012	-1.4100011
30	4	4	-0.13007072	-4.2805681	-1.5022213	-3.8497918
31	4	5	0.088860359	-4.021313	-2.5818246	-3.7827352
32	4	5	0.088860359	-3.8826852	-1.1156619	-4.812446
33	4	5	0.088860359	-5.3898169	-1.4309784	-3.8656517
34	4	2	-0.22648701	-1.5788803	-1.9621204	-1.5872564
35	4	3	0.20895582	-2.2013308	-2.4046243	-0.82260634
36	4	2	-0.15143946	-0.26319507	-2.2560421	-1.5957107
37	4	4	-0.10110026	0.29899779	-3.1709442	-0.53264985
38	4	4	-0.10279297	0.87682766	-2.3646494	0.62661125
39	4	5	0.066937092	0.081862971	-1.747329	1.0980746
40	4	5	0.066937092	1.288746	-3.0569967	1.3917644
41	4	5	0.066937092	1.6916987	-1.6999277	0.27313821
42	4	5	0.10282686	1.0792868	-3.8322854	-0.96282411
43	4	5	0.10282686	-0.49143349	-3.8470284	-0.1385247
44	5	2	0.63007432	-3.9865512	5.647254	-2.2321534
45	5	6	-0.4827573	-4.3902016	6.7884755	-2.0868443
46	1	1	-0.017759873	2.4794882	-2.4193527	-1.9758414
47	1	2	0.14465509	2.9437326	-1.9144771	-0.75980205
48	1	2	-0.26829663	3.5323373	-2.757879	0.093206092
49	1	3	0.23065488	3.649162	-3.8025203	-0.16852175
50	1	2	-0.14950245	4.0166344	-2.2885507	1.4025744
51	1	3	0.21550357	4.49612	-3.0059445	2.0561734
52	1	2	-0.23562226	3.857159	-1.0047773	1.7857838
53	1	4	0.0073520417	4.3894037	-0.5507614	3.1601717
54	1	2	-0.23562223	3.8724361	-1.498143	4.2615425
55	1	2	-0.11090838	2.5522542	-1.7721252	4.3378937
56	1	3	0.21550357	1.8562755	-1.3496215	3.6232494
57	1	2	-0.39074094	2.0147762	-2.6494391	5.3937908
58	1	3	0.23619417	0.951838	-2.8508218	5.4217787
59	1	2	0.32440459	2.8315947	-3.1856034	6.3105216
60	1	7	-0.63707847	2.3189758	-4.0089729	7.3132208
61	1	8	0.44032651	1.3305302	-4.2236588	7.3778676
62	1	2	-0.29676602	4.2873032	-2.8970426	6.2597635
63	1	4	-0.08779848	5.2064576	-3.453751	7.317754
64	1	4	-0.10279297	5.2642206	-2.5234199	8.5259586
65	1	5	0.066937092	4.2537142	-2.4057622	8.9719479
66	1	5	0.066937092	5.9442524	-2.9516913	9.2921919
67	1	5	0.066937092	5.6510446	-1.5260229	8.2249147
68	1	5	0.10282686	6.2324888	-3.5896769	6.9104591
69	1	5	0.10282686	4.8528091	-4.4552086	7.642439
70	1	2	-0.18900413	4.7704662	-2.0838561	5.3029953
71	1	3	0.20895581	5.8273132	-1.8573048	5.3043748
72	1	4	-0.13007072	3.9324044	0.87802368	3.5387834
73	1	5	0.088860359	2.8246422	0.96639422	3.5001764
74	1	5	0.088860359	4.377514	1.6372792	2.8602353
75	1	5	0.088860359	4.257138	1.1275853	4.5724125
76	1	4	-0.13007072	5.933916	-0.5308135	3.0656415
77	1	5	0.088860359	6.2605929	0.083623801	2.1985665
78	1	5	0.088860359	6.3406286	-1.5561334	2.9296819
79	1	5	0.088860359	6.3883866	-0.082236129	3.9756744
80	1	2	-0.22648701	3.2188906	-0.060319721	0.82085046
81	1	3	0.20895582	3.0891196	0.97934954	1.0844948
82	1	2	-0.15143946	2.796914	-0.47462638	-0.39021838
83	1	4	-0.10110026	2.1414976	0.51299198	-1.3256206
84	1	4	-0.10279297	0.62224656	0.45536308	-1.1989032
85	1	5	0.066937092	0.31395689	0.71389973	-0.16352973
86	1	5	0.066937092	0.16267675	1.1842517	-1.8989482
87	1	5	0.066937092	0.24770987	-0.56021338	-1.4474706
88	1	5	0.10282686	2.4436139	0.31502921	-2.3739051
89	1	5	0.10282686	2.4786027	1.5489655	-1.1006294
90	2	2	0.46926191	-3.1237581	5.3013326	-1.6727962
91	2	6	-0.55329413	-2.6666191	4.19095	-1.881862
92	2	9	-0.074060221	-2.3878023	6.3406016	-0.46683196
93	4	1	-0.017759873	-2.2437922	0.57283115	25.859027
94	4	2	0.14465509	-1.8011798	1.5206478	24.934467
95	4	2	-0.26829663	-2.7027534	2.0884768	24.127385
96	4	3	0.23065488	-3.7484128	1.8181256	24.206319
97	4	2	-0.14950245	-2.2912146	3.0742551	23.113414
98	4	3	0.21550357	-3.0588096	3.5142732	22.489272
99	4	2	-0.23562226	-0.9944956	3.4110857	22.954483
100	4	4	0.0073520417	-0.60642795	4.4568011	21.888534
101	4	2	-0.23562223	-1.2217667	4.0717853	20.528904
102	4	2	-0.14979908	-1.042569	2.8232247	20.045712
103	4	3	0.21550357	-0.4888884	2.0841108	20.613115
104	4	2	-0.23832351	-1.5903003	2.4252512	18.736671
105	4	3	0.23053129	-1.4310056	1.4142277	18.383852
106	4	2	0.34748402	-2.2705779	3.3057031	17.990859
107	4	1	-0.424947	-2.7806204	2.9289462	16.747541
108	4	2	-0.16814132	-2.4773444	4.6896842	18.48788
109	4	4	-0.09976944	-3.1961052	5.7019142	17.632052
110	4	4	-0.10279297	-2.2229735	6.3983657	16.687444
111	4	5	0.066937092	-1.7400513	5.6571225	16.015235
112	4	5	0.066937092	-2.772192	7.1368536	16.065647
113	4	5	0.066937092	-1.4393647	6.9328662	17.266219
114	4	5	0.10282686	-3.6973174	6.4640668	18.268987
115	4	5	0.10282686	-3.9914169	5.2039048	17.037998
116	4	2	-0.22711912	-1.9629922	5.051858	19.677228
117	4	3	0.20895581	-2.0925418	6.0728506	20.005679
118	4	4	-0.13007072	0.92323597	4.5615741	21.681614
119	4	5	0.088860359	1.3626858	3.5713687	21.435479
120	4	5	0.088860359	1.4266117	4.9634243	22.588103
121	4	5	0.088860359	1.1534341	5.2547187	20.842443
122	4	4	-0.13007072	-1.0983059	5.8312355	22.400498
123	4	5	0.088860359	-0.71176903	6.0244452	23.425443
124	4	5	0.088860359	-2.2079229	5.8692603	22.442287
125	4	5	0.088860359	-0.7352777	6.6573075	21.751209
126	4	2	-0.22648701	0.0072838239	2.7913636	23.872415
127	4	3	0.20895582	1.0536377	3.0482161	23.788069
128	4	2	-0.15143946	-0.3639847	1.9080471	24.820783
129	4	4	-0.10110026	0.68807085	1.2944401	25.715138
130	4	4	-0.10279297	1.1389204	-0.058542563	25.172867
131	4	5	0.066937092	1.5840133	0.062726402	24.161671
132	4	5	0.066937092	1.9068031	-0.49241171	25.848585
133	4	5	0.066937092	0.28211626	-0.76060504	25.111159
134	4	5	0.10282686	0.30048778	1.1805286	26.748616
135	4	5	0.10282686	1.5747459	1.9614875	25.792991
136	5	2	0.63007432	-2.650955	1.9605525	16.365161
137	5	6	-0.4827573	-2.8298154	1.7442651	15.178711
138	1	1	-0.017759873	-1.6206093	0.075571861	26.481027
139	1	2	0.14465509	-0.9619147	-1.1011536	26.119623
140	1	2	-0.26829663	-0.12490421	-1.6553306	27.0015
141	1	3	0.23065488	0.022290991	-1.1986213	27.972672
142	1	2	-0.14950245	0.61923355	-2.8812167	26.665761
143	1	3	0.21550357	1.2781666	-3.2995306	27.415809
144	1	2	-0.23562226	0.49611319	-3.4619206	25.454159
145	1	4	0.0073520417	1.2836725	-4.7516935	25.146599
146	1	2	-0.23562223	2.7742902	-4.5490979	25.485448
147	1	2	-0.11090838	3.4277871	-3.4734395	24.99588
148	1	3	0.21550357	2.9121973	-2.7425191	24.384705
149	1	2	-0.39074094	4.8599508	-3.2594809	25.272664
150	1	3	0.23619417	5.3502918	-2.3838129	24.86776
151	1	2	0.32440459	5.5467503	-4.1414414	26.011252
152	1	7	-0.63707847	6.9037376	-3.940408	26.264811
153	1	8	0.44032651	7.4030929	-3.1351167	25.905028
154	1	2	-0.29676602	4.8597124	-5.3393347	26.557111
155	1	4	-0.08779848	5.6365145	-6.363708	27.345369
156	1	4	-0.10279297	6.269524	-7.3940165	26.414577
157	1	5	0.066937092	6.9681473	-6.8984374	25.707329
158	1	5	0.066937092	6.8367416	-8.1369638	27.013965
159	1	5	0.066937092	5.4822435	-7.9275726	25.839626
160	1	5	0.10282686	4.972075	-6.883778	28.070043
161	1	5	0.10282686	6.4332513	-5.8659807	27.937723
162	1	2	-0.18900413	3.5562382	-5.5374503	26.289101
163	1	3	0.20895581	3.0830116	-6.4334518	26.665254
164	1	4	-0.13007072	1.2081337	-5.1602535	23.656298
165	1	5	0.088860359	1.5446852	-4.3303953	22.997128
166	1	5	0.088860359	0.17458115	-5.4508073	23.369303
167	1	5	0.088860359	1.8641009	-6.0364253	23.460973
168	1	4	-0.13007072	0.63291757	-5.8890374	25.969896
169	1	5	0.088860359	-0.45965286	-5.9355086	25.769396
170	1	5	0.088860359	0.77298531	-5.7255435	27.060232
171	1	5	0.088860359	1.0590114	-6.8791677	25.697846
172	1	2	-0.22648701	-0.45699686	-2.852269	24.47928
173	1	3	0.20895582	-0.59589943	-3.2981286	23.505023
174	1	2	-0.15143946	-1.1625146	-1.7460118	24.787243
175	1	4	-0.10110026	-2.1014146	-1.1554334	23.762733
176	1	4	-0.10279297	-1.4178861	-0.039020311	22.979207
177	1	5	0.066937092	-0.53317864	-0.43682697	22.437982
178	1	5	0.066937092	-2.1278044	0.38339934	22.237504
179	1	5	0.066937092	-1.091862	0.77424058	23.661683
180	1	5	0.10282686	-3.0185847	-0.77016041	24.252353
181	1	5	0.10282686	-2.4417112	-1.9360887	23.046997
182	2	2	0.46926191	-2.357371	1.1518861	17.026085
183	2	6	-0.55329413	-2.2639536	1.3479318	18.225449
184	2	9	-0.074060221	-2.0163475	-0.43743777	16.36744
185	4	1	-0.017759873	-1.5198285	2.6991773	43.463159
186	4	2	0.14465509	-2.0122906	1.4145065	43.700174
187	4	2	-0.26829663	-3.158739	1.2894983	44.375951
188	4	3	0.23065488	-3.687024	2.1713665	44.716462
189	4	2	-0.14950245	-3.7127213	-0.040818	44.680292
190	4	3	0.21550357	-4.6490345	-0.09137044	45.221709
191	4	2	-0.23562226	-3.06773	-1.1661887	44.309184
192	4	4	0.0073520417	-3.6877944	-2.5403738	44.637055
193	4	2	-0.23562223	-4.0483677	-2.6084172	46.133995
194	4	2	-0.14979908	-3.1196024	-2.2821225	47.058882
195	4	3	0.21550357	-2.1312493	-1.9534133	46.759038
196	4	2	-0.23832351	-3.416441	-2.3621801	48.500221
197	4	3	0.23053129	-2.6487841	-2.0878991	49.21261
198	4	2	0.34748402	-4.6185916	-2.7754115	48.922456
199	4	1	-0.424947	-4.8942851	-2.8588812	50.28809
200	4	2	-0.16814132	-5.6594745	-3.1512389	47.932253
201	4	4	-0.09976944	-6.9971298	-3.6674539	48.399018
202	4	4	-0.10279297	-6.9462425	-5.1748337	48.62157
203	4	5	0.066937092	-6.1891942	-5.4255875	49.395212
204	4	5	0.066937092	-7.9390929	-5.5336873	48.966692
205	4	5	0.066937092	-6.6886177	-5.6960829	47.674658
206	4	5	0.10282686	-7.7868153	-3.4339901	47.650908
207	4	5	0.10282686	-7.2907605	-3.1663415	49.345644
208	4	2	-0.22711912	-5.3785379	-3.0898897	46.617875
209	4	3	0.20895581	-6.1360382	-3.4017143	45.913569
210	4	4	-0.13007072	-2.7247203	-3.7161626	44.34779
211	4	5	0.088860359	-1.7604255	-3.5849357	44.883626
212	4	5	0.088860359	-2.5211114	-3.8126431	43.258833
213	4	5	0.088860359	-3.174206	-4.676259	44.685172
214	4	4	-0.13007072	-4.9186763	-2.7145199	43.716336
215	4	5	0.088860359	-4.63279	-2.5584152	42.652779
216	4	5	0.088860359	-5.7132511	-1.9794094	43.966746
217	4	5	0.088860359	-5.3405808	-3.7398921	43.796137
218	4	2	-0.22648701	-1.7985941	-1.0227774	43.535268
219	4	3	0.20895582	-1.2611631	-1.9003905	43.205257
220	4	2	-0.15143946	-1.2980526	0.19106625	43.22944
221	4	4	-0.10110026	-0.0016182681	0.28586419	42.459066
222	4	4	-0.10279297	1.1811184	0.45999608	43.407062
223	4	5	0.066937092	1.2569845	-0.41366849	44.089914
224	4	5	0.066937092	2.120954	0.53307044	42.818972
225	4	5	0.066937092	1.0664068	1.3840168	44.010254
226	4	5	0.10282686	-0.039224113	1.1286528	41.738257
227	4	5	0.10282686	0.16086733	-0.6304297	41.849796
228	5	2	0.63007432	-4.1815567	-2.6034833	51.014453
229	5	6	-0.4827573	-4.3302828	-2.9661529	52.168917
230	1	1	-0.017759873	-0.64445199	2.8759115	42.98883
231	1	2	0.14465509	0.58648986	2.9065861	43.646869
232	1	2	-0.26829663	1.6893947	3.1046797	42.91902
233	1	3	0.23065488	1.6156361	3.2465608	41.84764
234	1	2	-0.14950245	3.0182043	3.1189043	43.554095
235	1	3	0.21550357	3.8821281	3.2931775	42.925592
236	1	2	-0.23562226	3.1601015	2.9078513	44.879115
237	1	4	0.0073520417	4.5681584	2.9428648	45.507213
238	1	2	-0.23562223	5.5161793	2.0151852	44.720783
239	1	2	-0.11090838	5.1455872	0.7404252	44.472944
240	1	3	0.21550357	4.183074	0.36885408	44.80327
241	1	2	-0.39074094	6.0356792	-0.18623085	43.750084
242	1	3	0.23619417	5.7039879	-1.1996109	43.565104
243	1	2	0.32440459	7.2423682	0.21985706	43.332886
244	1	7	-0.63707847	8.0856385	-0.66162425	42.656124
245	1	8	0.44032651	7.8162475	-1.6192652	42.462098
246	1	2	-0.29676602	7.6835786	1.6128388	43.597209
247	1	4	-0.08779848	9.060239	2.0631118	43.177479
248	1	4	-0.10279297	10.086366	1.7417015	44.260239
249	1	5	0.066937092	10.121685	0.64723944	44.446729
250	1	5	0.066937092	11.091583	2.0797529	43.931251
251	1	5	0.066937092	9.8260836	2.2667971	45.204478
252	1	5	0.10282686	9.0685147	3.1572797	42.977896
253	1	5	0.10282686	9.3548101	1.5603509	42.232035
254	1	2	-0.18900413	6.8734568	2.4499487	44.270316
255	1	3	0.20895581	7.2270869	3.448669	44.484224
256	1	4	-0.13007072	4.5813346	2.4641404	46.978359
257	1	5	0.088860359	4.1368428	1.4492116	47.07208
258	1	5	0.088860359	4.021509	3.1639099	47.635578
259	1	5	0.088860359	5.6242586	2.4146955	47.360441
260	1	4	-0.13007072	5.0332898	4.4188155	45.498591
261	1	5	0.088860359	4.2739865	5.0666532	45.98832
262	1	5	0.088860359	5.177739	4.7876833	44.460201
263	1	5	0.088860359	5.9843795	4.5457287	46.060059
264	1	2	-0.22648701	1.9235516	2.7089388	45.692664
265	1	3	0.20895582	1.9950333	2.5540112	46.759504
266	1	2	-0.15143946	0.70143556	2.7211456	45.12461
267	1	4	-0.10110026	-0.51917481	2.4982312	45.98505
268	1	4	-0.10279297	-0.94088436	1.032266	45.960373
269	1	5	0.066937092	-0.12490793	0.39201329	46.358043
270	1	5	0.066937092	-1.8420203	0.89371993	46.59386
271	1	5	0.066937092	-1.1825529	0.71263361	44.924569
272	1	5	0.10282686	-1.3566483	3.140785	45.645746
273	1	5	0.10282686	-0.31524164	2.7924727	47.0383
274	2	2	0.46926191	-3.312059	-2.0167429	50.737571
275	2	6	-0.55329413	-3.20684	-1.5797633	49.604605
276	2	9	-0.074060221	-2.0574838	-1.6982456	51.921067
277	4	1	-0.017759873	3.6680318	-0.28601469	69.490278
278	4	2	0.14465509	2.5547572	-0.35576998	70.329818
279	4	2	-0.26829663	2.2809493	-1.5211312	70.924468
280	4	3	0.23065488	2.9207801	-2.3788629	70.758225
281	4	2	-0.14950245	1.104125	-1.6627065	71.798712
282	4	3	0.21550357	0.92894082	-2.6236018	72.266004
283	4	2	-0.23562226	0.25879005	-0.63114784	72.002401
284	4	4	0.0073520417	-0.95613587	-0.81738321	72.934944
285	4	2	-0.23562223	-1.747135	-2.0733867	72.519915
286	4	2	-0.14979908	-2.1187874	-2.2314144	71.230966
287	4	3	0.21550357	-1.8488745	-1.4952236	70.482655
288	4	2	-0.23832351	-2.9007774	-3.4039514	70.80012
289	4	3	0.23053129	-3.1765418	-3.4996062	69.757609
290	4	2	0.34748402	-3.2707392	-4.3353554	71.68884
291	4	1	-0.424947	-4.0189046	-5.4403221	71.279907
292	4	2	-0.16814132	-2.8872253	-4.1874266	73.115802
293	4	4	-0.09976944	-3.3441806	-5.2036399	74.131761
294	4	4	-0.10279297	-4.7243559	-4.8449099	74.670966
295	4	5	0.066937092	-5.4675675	-4.8223387	73.845346
296	4	5	0.066937092	-5.0426095	-5.6060165	75.414651
297	4	5	0.066937092	-4.698221	-3.8511206	75.167366
298	4	5	0.10282686	-2.6235222	-5.2594001	74.977526
299	4	5	0.10282686	-3.3809943	-6.2137965	73.671693
300	4	2	-0.22711912	-2.1854974	-3.1079005	73.506287
301	4	3	0.20895581	-1.9469159	-2.999408	74.554331
302	4	4	-0.13007072	-1.9390919	0.37626387	72.883281
303	4	5	0.088860359	-2.2725639	0.57551407	71.842464
304	4	5	0.088860359	-1.4754495	1.2991218	73.295546
305	4	5	0.088860359	-2.8426708	0.15997181	73.495174
306	4	4	-0.13007072	-0.4104728	-0.90394769	74.379894
307	4	5	0.088860359	0.23627244	-0.027047385	74.603544
308	4	5	0.088860359	0.19883475	-1.8218588	74.52351
309	4	5	0.088860359	-1.2363122	-0.90152468	75.124033
310	4	2	-0.22648701	0.5797691	0.67538369	71.354199
311	4	3	0.20895582	-0.063592857	1.5302523	71.50661
312	4	2	-0.15143946	1.6692874	0.82109267	70.573682
313	4	4	-0.10110026	1.9434654	2.1581306	69.925329
314	4	4	-0.10279297	1.391243	2.1948529	68.503504
315	4	5	0.066937092	0.29002423	2.0448735	68.515934
316	4	5	0.066937092	1.6093274	3.1834542	68.045696
317	4	5	0.066937092	1.8588732	1.4040972	67.881539
318	4	5	0.10282686	3.0328378	2.3689857	69.916336
319	4	5	0.10282686	1.4776313	2.9811932	70.510797
320	5	2	0.63007432	-4.3087553	-5.574813	70.280551
321	5	6	-0.4827573	-5.1980647	-6.361641	70.004027
322	1	1	-0.017759873	3.922619	0.54866368	68.979392
323	1	2	0.14465509	3.3968821	0.86492806	67.725298
324	1	2	-0.26829663	3.766248	2.0155352	67.155143
325	1	3	0.23065488	4.4644333	2.672668	67.659264
326	1	2	-0.14950245	3.2229147	2.4156565	65.845964
327	1	3	0.21550357	3.5590809	3.3516767	65.418634
328	1	2	-0.23562226	2.3215116	1.6467083	65.200559
329	1	4	0.0073520417	1.7861419	2.0956988	63.825734
330	1	2	-0.23562223	1.2756304	3.5482594	63.910885
331	1	2	-0.11090838	0.40763452	3.8924439	64.886536
332	1	3	0.21550357	0.081660279	3.165139	65.62028
333	1	2	-0.39074094	-0.1262074	5.2631859	64.984312
334	1	3	0.23619417	-0.81651477	5.5046774	65.782018
335	1	2	0.32440459	0.2343958	6.1962491	64.093011
336	1	7	-0.63707847	-0.27861428	7.4903789	64.183398
337	1	8	0.44032651	-0.9280043	7.7601847	64.913323
338	1	2	-0.29676602	1.1803779	5.8478548	63.002749
339	1	4	-0.08779848	1.5511338	6.877163	61.964878
340	1	4	-0.10279297	0.54102173	6.8779635	60.821075
341	1	5	0.066937092	-0.47401604	7.1199626	61.201874
342	1	5	0.066937092	0.83138472	7.6423333	60.069809
343	1	5	0.066937092	0.51994004	5.8831162	60.326206
344	1	5	0.10282686	2.565702	6.6722726	61.557721
345	1	5	0.10282686	1.5857948	7.8876203	62.424421
346	1	2	-0.18900413	1.6529689	4.5916479	62.909337
347	1	3	0.20895581	2.3121388	4.3486211	62.087944
348	1	4	-0.13007072	0.60577912	1.2278438	63.328549
349	1	5	0.088860359	-0.21504033	1.2027571	64.078257
350	1	5	0.088860359	0.93140966	0.18658535	63.116972
351	1	5	0.088860359	0.19062149	1.642674	62.384259
352	1	4	-0.13007072	2.9419191	1.9270355	62.810557
353	1	5	0.088860359	3.3459495	0.89211689	62.852662
354	1	5	0.088860359	3.7755444	2.6279345	63.031895
355	1	5	0.088860359	2.5934396	2.1012934	61.769346
356	1	2	-0.22648701	1.9279973	0.35101123	65.830479
357	1	3	0.20895582	1.2217411	-0.30022941	65.336162
358	1	2	-0.15143946	2.4402412	-0.036284413	67.015388
359	1	4	-0.10110026	1.9992802	-1.3469326	67.621764
360	1	4	-0.10279297	0.86232556	-1.1304196	68.615725
361	1	5	0.066937092	-0.015211404	-0.68260938	68.10262
362	1	5	0.066937092	0.55935191	-2.1051248	69.052421
363	1	5	0.066937092	1.1853732	-0.45790832	69.438421
364	1	5	0.10282686	2.8513194	-1.8500511	68.122029
365	1	5	0.10282686	1.6520666	-2.0476427	66.830594
366	2	2	0.46926191	-3.816852	-5.0131253	69.493473
367	2	6	-0.55329413	-2.8699786	-4.2928948	69.758676
368	2	9	-0.074060221	-4.3856652	-5.1414324	67.839372
369	4	1	-0.017759873	-1.878155	-2.3155069	88.984527
370	4	2	0.14465509	-0.5791943	-2.4676547	89.47302
371	4	2	-0.26829663	-0.32985041	-3.4826382	90.306256
372	4	3	0.23065488	-1.1225509	-4.1680763	90.579248
373	4	2	-0.14950245	1.0144648	-3.6771391	90.875683
374	4	3	0.21550357	1.1704261	-4.5191868	91.538256
375	4	2	-0.23562226	2.021251	-2.8245786	90.593343
376	4	4	0.0073520417	3.4178557	-3.0704541	91.201129
377	4	2	-0.23562223	3.2993052	-3.2600095	92.726084
378	4	2	-0.14979908	2.6237057	-2.3496496	93.460455
379	4	3	0.21550357	2.1470638	-1.4994318	92.986387
380	4	2	-0.23832351	2.512664	-2.4800536	94.924232
381	4	3	0.23053129	1.9589538	-1.733669	95.479516
382	4	2	0.34748402	3.0952421	-3.5055327	95.559216
383	4	1	-0.424947	2.9961515	-3.6219268	96.946502
384	4	2	-0.16814132	3.854041	-4.5189729	94.783104
385	4	4	-0.09976944	4.5570075	-5.6470961	95.495035
386	4	4	-0.10279297	5.9551858	-5.2227498	95.930168
387	4	5	0.066937092	5.8974325	-4.3575256	96.624842
388	4	5	0.066937092	6.4538402	-6.0659089	96.453679
389	4	5	0.066937092	6.5658911	-4.9418159	95.045392
390	4	5	0.10282686	4.6339497	-6.5373895	94.832287
391	4	5	0.10282686	3.9734669	-5.9581606	96.387309
392	4	2	-0.22711912	3.9642884	-4.387409	93.448633
393	4	3	0.20895581	4.5504601	-5.1143827	92.905493
394	4	4	-0.13007072	4.3901227	-1.8905324	90.964176
395	4	5	0.088860359	3.9622718	-0.93725137	91.341541
396	4	5	0.088860359	4.6292644	-1.7751493	89.88432
397	4	5	0.088860359	5.3504564	-2.0676875	91.497116
398	4	4	-0.13007072	4.0117624	-4.3083773	90.488429
399	4	5	0.088860359	3.98606	-4.1702613	89.385018
400	4	5	0.088860359	3.4332655	-5.225583	90.730332
401	4	5	0.088860359	5.0738877	-4.4681826	90.774981
402	4	2	-0.22648701	1.7449104	-1.704627	89.64489
403	4	3	0.20895582	2.5297136	-1.0103355	89.380339
404	4	2	-0.15143946	0.52427805	-1.5346247	89.098406
405	4	4	-0.10110026	0.28812768	-0.37651653	88.157012
406	4	4	-0.10279297	-0.30014464	0.81744792	88.902847
407	4	5	0.066937092	0.40338117	1.1612622	89.691627
408	4	5	0.066937092	-0.47034142	1.6531495	88.190725
409	4	5	0.066937092	-1.2685184	0.54732167	89.371991
410	4	5	0.10282686	-0.38735702	-0.67970574	87.330531
411	4	5	0.10282686	1.2398316	-0.062572186	87.67441
412	5	2	0.63007432	2.4699918	-2.9229068	97.525588
413	5	6	-0.4827573	2.6486376	-2.8711558	98.730513
414	1	1	-0.017759873	-2.153913	-1.5556027	88.377065
415	1	2	0.14465509	-2.5640781	-0.30908571	88.85365
416	1	2	-0.26829663	-2.8651305	0.64163779	87.964326
417	1	3	0.23065488	-2.798188	0.43444527	86.903188
418	1	2	-0.14950245	-3.2765982	1.9844894	88.407837
419	1	3	0.21550357	-3.5205641	2.7191368	87.651183
420	1	2	-0.23562226	-3.3361424	2.2981069	89.718736
421	1	4	0.0073520417	-3.7834631	3.7120699	90.141784
422	1	2	-0.23562223	-2.9593687	4.7716097	89.382805
423	1	2	-0.11090838	-1.6114554	4.6886206	89.378496
424	1	3	0.21550357	-1.1045439	3.8763769	89.885361
425	1	2	-0.39074094	-0.78695787	5.6979674	88.689363
426	1	3	0.23619417	0.29047399	5.5972721	88.702669
427	1	2	0.32440459	-1.3645335	6.7299955	88.059772
428	1	7	-0.63707847	-0.5813888	7.6878582	87.415331
429	1	8	0.44032651	0.43063394	7.6334791	87.403211
430	1	2	-0.29676602	-2.8441388	6.8551243	88.053289
431	1	4	-0.08779848	-3.5003991	8.0409585	87.392054
432	1	4	-0.10279297	-3.6023918	9.2126431	88.364352
433	1	5	0.066937092	-2.59122	9.5215556	88.704907
434	1	5	0.066937092	-4.0865522	10.074192	87.858096
435	1	5	0.066937092	-4.2157514	8.9279797	89.246292
436	1	5	0.10282686	-4.5184071	7.7730327	87.032915
437	1	5	0.10282686	-2.9156846	8.3534328	86.501058
438	1	2	-0.18900413	-3.5911726	5.9393928	88.696329
439	1	3	0.20895581	-4.6643137	6.0675201	88.710629
440	1	4	-0.13007072	-3.5836379	3.9779856	91.652737
441	1	5	0.088860359	-2.5291045	3.7952114	91.954383
442	1	5	0.088860359	-4.2499722	3.3350919	92.267315
443	1	5	0.088860359	-3.8280114	5.0350204	91.895803
444	1	4	-0.13007072	-5.3002125	3.8147404	89.852333
445	1	5	0.088860359	-5.8443255	2.975044	90.337019
446	1	5	0.088860359	-5.5041844	3.7685066	88.760802
447	1	5	0.088860359	-5.7255513	4.7587134	90.257212
448	1	2	-0.22648701	-3.020446	1.2264977	90.709933
449	1	3	0.20895582	-3.0735703	1.4341155	91.768864
450	1	2	-0.15143946	-2.669113	-0.012934795	90.313986
451	1	4	-0.10110026	-2.3419976	-1.0590032	91.352578
452	1	4	-0.10279297	-0.83838926	-1.1252009	91.602142
453	1	5	0.066937092	-0.46894919	-0.14753142	91.978384
454	1	5	0.066937092	-0.62158556	-1.9037542	92.363323
455	1	5	0.066937092	-0.29807589	-1.3830851	90.666718
456	1	5	0.10282686	-2.7192139	-2.0524217	91.036048
457	1	5	0.10282686	-2.8528259	-0.82999233	92.313885
458	2	2	0.46926191	1.7671057	-2.2460313	97.051516
459	2	6	-0.55329413	1.5227041	-2.3552534	95.86241
460	2	9	-0.074060221	0.98346943	-0.99392178	97.997136
461	4	1	-0.017759873	-0.72150284	19.166142	-0.69908086
462	4	2	0.14465509	0.25064778	19.696644	0.15095727
463	4	2	-0.26829663	0.12071084	19.496327	1.4661134
464	4	3	0.23065488	-0.71712015	18.926434	1.848194
465	4	2	-0.14950245	1.099731	20.055552	2.4137669
466	4	3	0.21550357	0.95782458	19.858376	3.4689232
467	4	2	-0.23562226	2.1366581	20.804227	1.9842759
468	4	4	0.0073520417	3.146695	21.361832	3.0086128
469	4	2	-0.23562223	2.3966968	22.097254	4.1365002
470	4	2	-0.14979908	1.4800133	23.038791	3.8239454
471	4	3	0.21550357	1.2517501	23.267421	2.7893334
472	4	2	-0.23832351	0.76289031	23.78435	4.8736379
473	4	3	0.23053129	0.031190192	24.528395	4.5854742
474	4	2	0.34748402	1.0185984	23.548421	6.1671447
475	4	1	-0.424947	0.34456793	24.262124	7.159234
476	4	2	-0.16814132	2.0277402	22.52683	6.5455224
477	4	4	-0.09976944	2.3597293	22.292178	7.9975523
478	4	4	-0.10279297	3.4475737	23.25278	8.46462
479	4	5	0.066937092	3.1078633	24.304727	8.3527101
480	4	5	0.066937092	3.6750517	23.064994	9.5354269
481	4	5	0.066937092	4.3753316	23.102579	7.8718138
482	4	5	0.10282686	2.7032798	21.245606	8.1538734
483	4	5	0.10282686	1.4532935	22.431517	8.623965
484	4	2	-0.22711912	2.6897644	21.859151	5.5831264
485	4	3	0.20895581	3.445916	21.14584	5.8772548
486	4	4	-0.13007072	4.1350537	22.375208	2.3842084
487	4	5	0.088860359	3.5935302	23.203358	1.879109
488	4	5	0.088860359	4.806836	21.882462	1.6476607
489	4	5	0.088860359	4.7811569	22.821214	3.1724206
490	4	4	-0.13007072	3.9783105	20.163857	3.5247445
491	4	5	0.088860359	4.4198517	19.602107	2.672259
492	4	5	0.088860359	3.3465866	19.458835	4.1063895
493	4	5	0.088860359	4.8204876	20.503517	4.165938
494	4	2	-0.22648701	2.2911511	21.007586	0.51288363
495	4	3	0.20895582	3.1183169	21.58705	0.12822498
496	4	2	-0.15143946	1.414553	20.477243	-0.36335921
497	4	4	-0.10110026	1.6027536	20.724545	-1.8420841
498	4	4	-0.10279297	0.76206703	21.910675	-2.3049297
499	4	5	0.066937092	1.0705067	22.832637	-1.7662436
500	4	5	0.066937092	0.91186265	22.069598	-3.3943267
501	4	5	0.066937092	-0.31530857	21.723459	-2.1177805
502	4	5	0.10282686	1.3358382	19.818353	-2.4241875
503	4	5	0.10282686	2.6709117	20.932248	-2.072527
504	5	2	0.63007432	-0.37241447	24.992145	6.9272465
505	5	6	-0.4827573	-0.71682962	25.799402	7.7735027
506	1	1	-0.017759873	-0.7119202	19.301646	-1.7011056
507	1	2	0.14465509	-1.2774834	20.41511	-2.325214
508	1	2	-0.26829663	-1.1712289	20.519373	-3.6530861
509	1	3	0.23065488	-0.66535557	19.747553	-4.2203701
510	1	2	-0.14950245	-1.723522	21.685413	-4.3634244
511	1	3	0.21550357	-1.6224894	21.721417	-5.4405725
512	1	2	-0.23562226	-2.3271321	22.688701	-3.6930337
513	1	4	0.0073520417	-2.9029465	23.886415	-4.4755143
514	1	2	-0.23562223	-1.830132	24.456877	-5.4249603
515	1	2	-0.11090838	-0.60591363	24.758579	-4.9411825
516	1	3	0.21550357	-0.36377015	24.586426	-3.899385
517	1	2	-0.39074094	0.43760815	25.332993	-5.8098551
518	1	3	0.23619417	1.4089287	25.558233	-5.389166
519	1	2	0.32440459	0.18420682	25.578446	-7.1023723
520	1	7	-0.63707847	1.171126	26.129449	-7.919995
521	1	8	0.44032651	2.094059	26.356646	-7.5680432
522	1	2	-0.29676602	-1.1547113	25.266247	-7.6634081
523	1	4	-0.08779848	-1.4653247	25.587429	-9.1037116
524	1	4	-0.10279297	-1.9602155	27.024355	-9.2413241
525	1	5	0.066937092	-1.184346	27.736041	-8.8872006
526	1	5	0.066937092	-2.1816981	27.240266	-10.307767
527	1	5	0.066937092	-2.8892093	27.169325	-8.6488588
528	1	5	0.10282686	-2.23935	24.893709	-9.4996185
529	1	5	0.10282686	-0.55835355	25.450237	-9.7297999
530	1	2	-0.18900413	-2.1080436	24.756023	-6.8628123
531	1	3	0.20895581	-3.086928	24.569135	-7.2812746
532	1	4	-0.13007072	-3.3556572	25.043784	-3.5540093
533	1	5	0.088860359	-2.5268446	25.373061	-2.8898683
534	1	5	0.088860359	-4.2222731	24.744383	-2.9260326
535	1	5	0.088860359	-3.6736565	25.919953	-4.1600845
536	1	4	-0.13007072	-4.1566756	23.378172	-5.2269821
537	1	5	0.088860359	-4.8588825	22.88598	-4.5193641
538	1	5	0.088860359	-3.8828985	22.635903	-6.0075361
539	1	5	0.088860359	-4.7075446	24.216414	-5.7063755
540	1	2	-0.22648701	-2.463627	22.558056	-2.2115533
541	1	3	0.20895582	-2.9560328	23.33264	-1.6416252
542	1	2	-0.15143946	-1.9853142	21.482082	-1.5558869
543	1	4	-0.10110026	-2.1312398	21.40212	-0.055137167
544	1	4	-0.10279297	-0.87245141	21.910484	0.64093763
545	1	5	0.066937092	-0.69003701	22.97338	0.37474608
546	1	5	0.066937092	-1.0002768	21.836664	1.7412818
547	1	5	0.066937092	0.0097204353	21.304343	0.34458525
548	1	5	0.10282686	-2.3459116	20.360885	0.25967799
549	1	5	0.10282686	-2.9977103	22.00996	0.28729755
550	2	2	0.46926191	-0.80690533	25.028406	5.9338398
551	2	6	-0.55329413	-0.52912203	24.169336	5.1150177
552	2	9	-0.074060221	-1.9085338	26.324542	5.5066318
553	4	1	-0.017759873	3.3590322	21.07359	23.145835
554	4	2	0.14465509	2.3869352	20.889257	22.160886