Title

171 atoms
170 bonds
329 angles
585 dihedrals
12 impropers

8 atom types
11 bond types
5 angle types
27 dihedral types
2 improper types
-19.23900032 80.76099968 xlo xhi
-5.084000111 94.91599989 ylo yhi
-3.451999903 96.5480001 zlo zhi
0.0 0.0 0.0 xy xz yz

Masses

1	15.99943
2	12.01078
3	1.007947
4	1.007947
5	12.01078
6	15.99943
7	15.99943
8	1.007947


Pair Coeffs

1	0.16846514	3.0251065
2	0.10884061	3.3795318
3	0.016409246	2.5832257
4	0.015779483	2.6445434
5	0.086879315	3.4806469
6	0.2102061	3.0398122
7	0.20947353	2.99716
8	1.2326e-05	0.53453923

Bond Coeffs

1 harmonic	366.7408841747	1.425895053732
2 harmonic	300.03137914615	1.451203938761
3 harmonic	264.62148576755	1.52190126495
4 harmonic	370.04670688625	1.093899492634
5 harmonic	301.15400723785	1.345741232799
6 harmonic	582.698766451	1.225198386222
7 harmonic	329.44145381095	1.523435958334
8 harmonic	279.1350963404	1.454628925034
9 harmonic	329.96998057905	1.427343958716
10 harmonic	543.5267831885	0.9716763312559
11 harmonic	385.7604595587	1.369745182308


Angle Coeffs

1 harmonic	53.20531626545	116.5475862634
2 harmonic	65.09061609600001	110.3538806181
3 harmonic	201.41175231035	127.4691416191
4 harmonic	57.8982893754	126.8062420451
5 harmonic	48.776492647595	115.6030999533


Dihedral Coeffs

1 fourier 1	0.1155372516788	3	0
2 fourier 1	0.1115525666802	3	0
3 fourier 1	0.3432490222662	1	0
4 fourier 1	0.0473758381877	3	0
5 fourier 1	0.457973137376	1	0
6 fourier 1	0.09223874044423	3	0
7 fourier 1	0.3159935921949	2	180
8 fourier 1	0.3247796806857	1	180
9 fourier 1	0.1040663847541	3	0
10 fourier 1	0.1918272375143	3	0
11 fourier 1	0.9202179876409	1	180
12 fourier 1	1.163809172478	2	180
13 fourier 1	0.1679186987369	1	180
14 fourier 1	2.779853741805	2	180
15 fourier 1	0.02664938770063	3	0
16 fourier 1	0.1911926717192	3	0
17 fourier 1	-0.3703352413219	2	0
18 fourier 1	0.4541676554336	1	0
19 fourier 1	0.1489710476446	2	0
20 fourier 1	0.02960027280666	3	180
21 fourier 1	0.9974165607242	2	180
22 fourier 1	0.3445382149273	3	0
23 fourier 1	0.1364556373303	1	0
24 fourier 1	0.3026390167484	3	0
25 fourier 1	2.687457892086	2	180
26 fourier 1	2.772607909663	2	180
27 fourier 1	0.09692684957115	1	0


Improper Coeffs

1 3.5	-1	2
2 0.3666666666666667	-1	2


Atoms

1	1	1	-0.18677101	-3.987	2.6689999	0.88
2	1	2	0.031288002	-4.0469999	1.324	0.491
3	1	2	-0.148442	-2.6389999	0.72299999	0.44499999
4	1	2	-0.142078	-2.684	-0.75800002	0.041000001
5	1	2	-0.14444	-1.3049999	-1.431	0.112
6	1	2	-0.14315701	-0.34799999	-0.93300003	-0.98500001
7	1	2	-0.14315701	0.94199997	-1.768	-1.074
8	1	2	-0.14449	1.801	-1.779	0.207
9	1	2	-0.143343	2.217	-0.38999999	0.72399998
10	1	2	-0.142281	3.069	0.39199999	-0.289
11	1	2	0.13318101	3.6340001	1.681	0.315
12	1	1	-0.49735799	2.6040001	2.5910001	0.59600002
13	1	3	0.073875003	4.2350001	1.456	1.227
14	1	3	0.073875003	4.3189998	2.1470001	-0.42399999
15	1	4	0.081938997	2.4590001	0.65499997	-1.179
16	1	4	0.081938997	3.918	-0.242	-0.62400001
17	1	4	0.078290001	2.8110001	-0.54000002	1.652
18	1	4	0.078290001	1.318	0.197	1.006
19	1	4	0.076604001	1.253	-2.3099999	1.013
20	1	4	0.076604001	2.7179999	-2.375	0.0080000004
21	1	4	0.076604001	1.552	-1.3940001	-1.923
22	1	4	0.076604001	0.67199999	-2.8180001	-1.322
23	1	4	0.076604001	-0.861	-1	-1.969
24	1	4	0.076604001	-0.092	0.134	-0.82300001
25	1	4	0.076604001	-1.449	-2.527	-0.0070000002
26	1	4	0.076604001	-0.86299998	-1.2539999	1.1160001
27	1	4	0.078459002	-3.1010001	-0.85900003	-0.98500001
28	1	4	0.078459002	-3.365	-1.3	0.73500001
29	1	4	0.082888	-2.033	1.295	-0.28799999
30	1	4	0.082888	-2.1700001	0.824	1.448
31	1	3	0.073385	-4.6620002	0.77100003	1.233
32	1	3	0.073385	-4.54	1.2309999	-0.50300002
33	1	5	0.75869501	2.289	2.4000001	1.567
34	1	6	-0.57064903	1.643	1.391	1.804
35	1	2	-0.210392	2.6440001	3.3540001	2.6700001
36	1	2	-0.117051	1.401	4.0089998	3.2869999
37	1	2	-0.13771699	0.69499999	4.954	2.303
38	1	2	-0.14305601	-0.514	5.631	2.961
39	1	2	-0.14315701	-1.229	6.5619998	1.97
40	1	2	-0.14315701	-2.3610001	7.3699999	2.625
41	1	2	-0.14315701	-3.5829999	6.5009999	2.971
42	1	2	-0.14315701	-4.743	7.3239999	3.5550001
43	1	2	-0.14315701	-5.5500002	8.0579996	2.47
44	1	2	-0.14315701	-6.6269999	8.9919996	3.053
45	1	2	-0.14315701	-7.71	8.2980003	3.898
46	1	2	-0.14315701	-8.5249996	7.2670002	3.098
47	1	2	-0.14305601	-9.6859999	6.665	3.908
48	1	2	-0.140366	-10.837	7.6420002	4.2220001
49	1	2	-0.098674998	-11.571	8.1660004	2.967
50	1	2	-0.25923899	-11.177	9.6040001	2.592
51	1	5	0.51438898	-11.696	10.61	3.579
52	1	6	-0.71036398	-11.46	11.796	3.4189999
53	1	4	0.110322	-11.605	9.8400002	1.594
54	1	4	0.110322	-10.074	9.6999998	2.5179999
55	1	4	0.073100999	-11.379	7.4990001	2.098
56	1	4	0.073100999	-12.669	8.1339998	3.1440001
57	1	4	0.074739002	-11.575	7.0830002	4.8390002
58	1	4	0.074739002	-10.479	8.4720001	4.8649998
59	1	4	0.076604001	-10.099	5.8000002	3.3440001
60	1	4	0.076604001	-9.2889996	6.2620001	4.8649998
61	1	4	0.076604001	-8.901	7.7129998	2.154
62	1	4	0.076604001	-7.8559999	6.4260001	2.8169999
63	1	4	0.076604001	-7.256	7.8150001	4.789
64	1	4	0.076604001	-8.3850002	9.0939999	4.2740002
65	1	4	0.076604001	-6.1290002	9.7629995	3.6800001
66	1	4	0.076604001	-7.1199999	9.5290003	2.2130001
67	1	4	0.076604001	-6.0120001	7.323	1.777
68	1	4	0.076604001	-4.868	8.6859999	1.862
69	1	4	0.076604001	-5.4180002	6.619	4.086
70	1	4	0.076604001	-4.355	8.0500002	4.3039999
71	1	4	0.076604001	-3.2869999	5.7509999	3.734
72	1	4	0.076604001	-3.9289999	5.947	2.0699999
73	1	4	0.076604001	-2.661	8.1630001	1.909
74	1	4	0.076604001	-1.982	7.8730001	3.5420001
75	1	4	0.076604001	-1.631	5.9720001	1.118
76	1	4	0.076604001	-0.48800001	7.283	1.5599999
77	1	4	0.076604001	-1.217	4.8449998	3.3110001
78	1	4	0.076604001	-0.171	6.2179999	3.8410001
79	1	4	0.074739002	0.35100001	4.3779998	1.416
80	1	4	0.074739002	1.413	5.7319999	1.962
81	1	4	0.081809998	0.69400001	3.2219999	3.632
82	1	4	0.081809998	1.722	4.5900002	4.1799998
83	1	4	0.113136	3.1919999	2.7969999	3.46
84	1	4	0.113136	3.325	4.138	2.276
85	1	1	-0.18677101	-3.677	3.1800001	0.088
86	1	2	0.031288002	-3.9849999	4.526	0.333
87	1	2	-0.148442	-2.9820001	5.1259999	1.322
88	1	2	-0.142078	-3.289	6.6079998	1.5880001
89	1	2	-0.14444	-2.2279999	7.2800002	2.4719999
90	1	2	-0.14315701	-2.27	6.7820001	3.927
91	1	2	-0.14315701	-1.383	7.6170001	4.868
92	1	2	-0.14444	0.118	7.6279998	4.5100002
93	1	2	-0.13799401	0.77399999	6.2389998	4.4130001
94	1	2	-0.17036501	0.71200001	5.4569998	5.7350001
95	1	2	0.084386997	1.5369999	4.1680002	5.6750002
96	1	7	-0.687778	0.97100002	3.2579999	4.77
97	1	8	0.37320301	1.38	3.441	3.8840001
98	1	3	0.063074	2.5969999	4.3930001	5.4120002
99	1	3	0.063074	1.539	3.7019999	6.6830001
100	1	4	0.085239999	-0.34	5.1939998	5.974
101	1	4	0.085239999	1.109	6.092	6.5570002
102	1	4	0.078459002	1.84	6.3889999	4.1339998
103	1	4	0.078459002	0.30500001	5.652	3.596
104	1	4	0.076604001	0.26199999	8.1590004	3.5450001
105	1	4	0.076604001	0.65600002	8.224	5.2789998
106	1	4	0.076604001	-1.511	7.244	5.9060001
107	1	4	0.076604001	-1.749	8.6669998	4.8660002
108	1	4	0.076604001	-3.3139999	6.849	4.302
109	1	4	0.076604001	-1.972	5.7150002	3.9820001
110	1	4	0.076604001	-2.415	8.3760004	2.461
111	1	4	0.076604001	-1.222	7.1030002	2.0339999
112	1	4	0.078459002	-4.2919998	6.7080002	2.059
113	1	4	0.078459002	-3.3180001	7.1490002	0.61699998
114	1	4	0.082888	-3.0350001	4.5539999	2.2720001
115	1	4	0.082888	-1.957	5.0250001	0.903
116	1	3	0.073385	-3.934	5.0780001	-0.63
117	1	3	0.073385	-5.0219998	4.618	0.72899997
118	1	5	0.51438898	-12.281	10.297	4.4380002
119	1	6	-0.71036398	-11.851	9.4230003	5.1729999
120	1	2	-0.25923899	-13.606	10.944	4.7150002
121	1	2	-0.098674998	-14.763	9.9379997	4.6690001
122	1	2	-0.140366	-14.972	9.3559999	3.2620001
123	1	2	-0.14305601	-16.171	8.3950005	3.2360001
124	1	2	-0.14315701	-16.499001	7.8860002	1.8200001
125	1	2	-0.14315701	-15.377	7.0739999	1.138
126	1	2	-0.14315701	-14.883	5.848	1.928
127	1	2	-0.14315701	-15.98	4.7839999	2.118
128	1	2	-0.14315701	-15.458	3.527	2.8369999
129	1	2	-0.14315701	-14.635	2.5880001	1.926
130	1	2	-0.14315701	-15.429	1.378	1.405
131	1	2	-0.14315701	-16.533001	1.771	0.40900001
132	1	2	-0.14305601	-17.214001	0.54900002	-0.23
133	1	2	-0.13771699	-16.339001	-0.116	-1.309
134	1	2	-0.11452	-17.098	-1.187	-2.109
135	1	2	-0.220485	-17.400999	-2.4419999	-1.275
136	1	5	0.82047898	-17.99	-3.513	-2.1370001
137	1	6	-0.57286203	-19.239	-3.6210001	-2.247
138	1	7	-0.668957	-17.153	-4.3629999	-2.852
139	1	8	0.38935599	-17.534	-5.0840001	-3.4519999
140	1	4	0.114133	-16.464001	-2.8280001	-0.81699997
141	1	4	0.114133	-18.114	-2.2	-0.45899999
142	1	4	0.081809998	-18.045	-0.76300001	-2.5090001
143	1	4	0.081809998	-16.465	-1.475	-2.977
144	1	4	0.074739002	-15.437	-0.57499999	-0.85000002
145	1	4	0.074739002	-15.994	0.66299999	-2.023
146	1	4	0.076604001	-17.476	-0.184	0.56199998
147	1	4	0.076604001	-18.162001	0.89099997	-0.69999999
148	1	4	0.076604001	-16.121	2.4330001	-0.38499999
149	1	4	0.076604001	-17.313	2.3399999	0.95599997
150	1	4	0.076604001	-14.707	0.69499999	0.91100001
151	1	4	0.076604001	-15.878	0.82499999	2.26
152	1	4	0.076604001	-13.787	2.1900001	2.526
153	1	4	0.076604001	-14.183	3.1329999	1.069
154	1	4	0.076604001	-16.322001	2.9760001	3.27
155	1	4	0.076604001	-14.832	3.8399999	3.701
156	1	4	0.076604001	-16.416	4.5159998	1.1339999
157	1	4	0.076604001	-16.791	5.2119999	2.743
158	1	4	0.076604001	-14.475	6.1609998	2.9130001
159	1	4	0.076604001	-14.036	5.4060001	1.36
160	1	4	0.076604001	-15.748	6.7350001	0.145
161	1	4	0.076604001	-14.513	7.7399998	0.93400002
162	1	4	0.076604001	-16.738001	8.7580004	1.174
163	1	4	0.076604001	-17.423	7.2719998	1.8660001
164	1	4	0.076604001	-15.992	7.54	3.921
165	1	4	0.076604001	-17.068001	8.9300003	3.618
166	1	4	0.074739002	-15.149	10.187	2.5439999
167	1	4	0.074739002	-14.056	8.809	2.957
168	1	4	0.073100999	-15.69	10.463	4.987
169	1	4	0.073100999	-14.572	9.1160002	5.395
170	1	4	0.110322	-13.57	11.413	5.724
171	1	4	0.110322	-13.786	11.752	3.9719999

Bonds

1	1	1	2
2	2	1	85
3	3	2	3
4	4	2	31
5	4	2	32
6	3	3	4
7	4	3	29
8	4	3	30
9	3	4	5
10	4	4	27
11	4	4	28
12	3	5	6
13	4	5	25
14	4	5	26
15	3	6	7
16	4	6	23
17	4	6	24
18	3	7	8
19	4	7	21
20	4	7	22
21	3	8	9
22	4	8	19
23	4	8	20
24	3	9	10
25	4	9	17
26	4	9	18
27	3	10	11
28	4	10	15
29	4	10	16
30	1	11	12
31	4	11	13
32	4	11	14
33	5	12	33
34	6	33	34
35	7	33	35
36	3	35	36
37	4	35	83
38	4	35	84
39	3	36	37
40	4	36	81
41	4	36	82
42	3	37	38
43	4	37	79
44	4	37	80
45	3	38	39
46	4	38	77
47	4	38	78
48	3	39	40
49	4	39	75
50	4	39	76
51	3	40	41
52	4	40	73
53	4	40	74
54	3	41	42
55	4	41	71
56	4	41	72
57	3	42	43
58	4	42	69
59	4	42	70
60	3	43	44
61	4	43	67
62	4	43	68
63	3	44	45
64	4	44	65
65	4	44	66
66	3	45	46
67	4	45	63
68	4	45	64
69	3	46	47
70	4	46	61
71	4	46	62
72	3	47	48
73	4	47	59
74	4	47	60
75	3	48	49
76	4	48	57
77	4	48	58
78	3	49	50
79	4	49	55
80	4	49	56
81	7	50	51
82	4	50	53
83	4	50	54
84	6	51	52
85	8	51	118
86	1	85	86
87	3	86	87
88	4	86	116
89	4	86	117
90	3	87	88
91	4	87	114
92	4	87	115
93	3	88	89
94	4	88	112
95	4	88	113
96	3	89	90
97	4	89	110
98	4	89	111
99	3	90	91
100	4	90	108
101	4	90	109
102	3	91	92
103	4	91	106
104	4	91	107
105	3	92	93
106	4	92	104
107	4	92	105
108	3	93	94
109	4	93	102
110	4	93	103
111	3	94	95
112	4	94	100
113	4	94	101
114	9	95	96
115	4	95	98
116	4	95	99
117	10	96	97
118	6	118	119
119	7	118	120
120	3	120	121
121	4	120	170
122	4	120	171
123	3	121	122
124	4	121	168
125	4	121	169
126	3	122	123
127	4	122	166
128	4	122	167
129	3	123	124
130	4	123	164
131	4	123	165
132	3	124	125
133	4	124	162
134	4	124	163
135	3	125	126
136	4	125	160
137	4	125	161
138	3	126	127
139	4	126	158
140	4	126	159
141	3	127	128
142	4	127	156
143	4	127	157
144	3	128	129
145	4	128	154
146	4	128	155
147	3	129	130
148	4	129	152
149	4	129	153
150	3	130	131
151	4	130	150
152	4	130	151
153	3	131	132
154	4	131	148
155	4	131	149
156	3	132	133
157	4	132	146
158	4	132	147
159	3	133	134
160	4	133	144
161	4	133	145
162	3	134	135
163	4	134	142
164	4	134	143
165	7	135	136
166	4	135	140
167	4	135	141
168	6	136	137
169	11	136	138
170	10	138	139

Angles

1	5	63	45	64
2	1	123	124	163
3	1	1	2	31
4	5	102	93	103
5	1	9	8	20
6	1	131	132	146
7	5	148	131	149
8	5	98	95	99
9	1	36	37	38
10	1	89	90	109
11	1	93	92	105
12	5	19	8	20
13	1	132	133	144
14	1	3	2	31
15	1	94	95	96
16	1	35	36	37
17	5	27	4	28
18	1	49	50	51
19	1	85	86	87
20	1	41	40	74
21	1	131	130	150
22	1	126	127	156
23	1	136	135	140
24	1	89	88	113
25	1	41	42	70
26	5	57	48	58
27	5	67	43	68
28	1	39	38	77
29	1	127	128	154
30	1	38	39	40
31	1	41	42	43
32	3	137	136	138
33	1	11	10	16
34	1	36	35	84
35	1	87	86	116
36	1	93	94	100
37	1	35	36	81
38	1	88	87	114
39	5	15	10	16
40	1	48	49	50
41	1	118	120	121
42	1	4	3	30
43	1	9	10	16
44	1	1	2	3
45	5	114	87	115
46	1	9	8	19
47	5	160	125	161
48	1	40	39	75
49	1	89	90	108
50	1	93	92	104
51	1	45	44	65
52	1	94	93	103
53	1	129	130	151
54	1	96	95	99
55	1	134	135	141
56	1	132	133	134
57	1	36	37	79
58	5	166	122	167
59	1	126	125	161
60	5	81	36	82
61	1	39	40	41
62	1	42	43	44
63	1	92	93	103
64	5	23	6	24
65	5	53	50	54
66	1	133	132	147
67	1	122	123	165
68	1	124	125	161
69	1	129	128	155
70	1	85	86	117
71	1	2	3	30
72	1	134	133	145
73	1	8	9	10
74	1	4	5	6
75	1	11	10	15
76	1	36	35	83
77	1	49	50	54
78	1	130	129	153
79	2	136	138	139
80	1	46	45	64
81	5	71	41	72
82	1	130	131	149
83	1	120	121	122
84	1	48	49	56
85	1	127	126	159
86	1	122	121	169
87	1	42	43	68
88	1	37	36	82
89	1	9	10	15
90	1	47	48	58
91	4	51	118	120
92	1	90	91	107
93	1	8	7	21
94	1	90	89	111
95	1	125	126	159
96	1	118	120	171
97	5	100	94	101
98	1	33	35	84
99	1	133	134	142
100	1	86	87	115
101	1	6	7	22
102	1	123	124	125
103	1	7	6	24
104	1	94	93	102
105	4	50	51	52
106	1	129	130	150
107	1	5	4	28
108	1	86	87	88
109	1	89	90	91
110	5	152	129	153
111	1	134	135	140
112	1	7	8	20
113	1	42	41	72
114	5	61	46	62
115	1	4	5	25
116	1	37	38	78
117	1	126	125	160
118	1	47	46	62
119	1	122	123	124
120	1	10	11	13
121	5	17	9	18
122	1	123	122	167
123	1	38	37	80
124	1	128	127	157
125	1	133	134	135
126	1	43	42	70
127	1	133	132	146
128	1	38	39	76
129	4	34	33	35
130	1	91	90	109
131	1	51	50	53
132	1	43	44	66
133	1	122	123	164
134	5	25	5	26
135	1	85	86	116
136	1	94	95	98
137	1	2	3	29
138	1	132	131	148
139	1	134	133	144
140	1	5	6	24
141	1	95	94	100
142	1	3	4	5
143	1	12	11	14
144	1	46	45	63
145	1	128	129	152
146	1	130	131	148
147	1	46	47	59
148	1	127	126	158
149	1	91	92	104
150	5	158	126	159
151	1	42	43	67
152	4	12	33	35
153	1	47	48	57
154	4	51	118	119
155	1	90	91	106
156	1	123	124	162
157	5	116	86	117
158	1	135	134	143
159	4	52	51	118
160	1	118	120	170
161	1	87	88	89
162	1	6	7	8
163	1	33	35	83
164	1	86	87	114
165	1	6	7	21
166	5	170	120	171
167	1	128	127	156
168	1	130	131	132
169	1	7	6	23
170	1	5	4	27
171	5	142	134	143
172	1	7	8	19
173	1	33	35	36
174	5	168	121	169
175	1	40	41	42
176	1	43	44	45
177	1	37	38	77
178	1	47	46	61
179	1	10	11	12
180	5	140	135	141
181	1	123	122	166
182	1	90	91	92
183	1	93	94	95
184	1	41	40	73
185	1	124	123	165
186	1	89	88	112
187	1	41	42	69
188	1	43	44	65
189	5	75	39	76
190	2	1	85	86
191	1	92	91	107
192	1	87	88	113
193	1	9	10	11
194	1	121	122	123
195	1	120	121	169
196	1	12	11	13
197	1	48	47	60
198	1	88	89	111
199	1	126	127	128
200	5	29	3	30
201	1	39	40	74
202	1	134	135	136
203	1	49	48	58
204	1	4	3	29
205	1	44	45	64
206	1	39	38	78
207	1	3	4	28
208	1	87	86	117
209	5	106	91	107
210	4	119	118	120
211	1	135	134	142
212	1	44	45	46
213	1	47	48	49
214	1	50	49	56
215	1	93	94	101
216	1	45	46	62
217	4	135	136	138
218	1	35	36	82
219	1	121	122	167
220	1	88	87	115
221	1	10	9	18
222	5	108	90	109
223	5	154	128	155
224	1	96	95	98
225	5	104	92	105
226	5	150	130	151
227	1	5	6	7
228	1	44	43	68
229	1	92	93	102
230	1	125	124	163
231	1	40	39	76
232	5	146	132	147
233	1	124	123	164
234	1	45	44	66
235	5	59	47	60
236	1	40	41	72
237	5	21	7	22
238	1	121	120	171
239	5	69	42	70
240	5	55	49	56
241	1	124	125	160
242	1	88	89	90
243	1	7	8	9
244	2	11	12	33
245	1	46	47	48
246	1	129	128	154
247	1	92	91	106
248	1	36	37	80
249	1	87	88	112
250	1	120	121	168
251	1	49	50	53
252	1	130	129	152
253	5	156	127	157
254	1	48	47	59
255	1	88	89	110
256	1	48	49	55
257	1	125	126	127
258	1	128	129	130
259	1	91	92	93
260	1	39	40	73
261	1	122	121	168
262	1	49	48	57
263	5	65	44	66
264	1	37	36	81
265	1	8	9	18
266	1	44	45	63
267	1	3	4	27
268	1	124	125	126
269	1	90	89	110
270	1	125	126	158
271	5	162	124	163
272	1	50	49	55
273	5	112	88	113
274	1	45	46	61
275	4	135	136	137
276	1	121	122	166
277	1	10	9	17
278	1	6	5	26
279	5	144	133	145
280	5	110	89	111
281	4	50	51	118
282	1	42	41	71
283	1	8	7	22
284	1	2	3	4
285	1	44	43	67
286	5	164	123	165
287	5	83	35	84
288	1	1	2	32
289	1	127	128	129
290	1	131	132	147
291	1	125	124	162
292	1	133	134	143
293	1	38	37	79
294	2	2	1	85
295	1	43	42	69
296	1	38	39	75
297	1	37	38	39
298	1	40	41	71
299	1	91	90	108
300	1	45	46	47
301	1	121	120	170
302	1	132	133	145
303	1	129	130	131
304	1	3	2	32
305	1	4	5	26
306	1	5	6	23
307	1	10	11	14
308	5	79	37	80
309	1	92	93	94
310	5	73	40	74
311	1	131	130	151
312	1	136	135	141
313	1	51	50	54
314	5	31	2	32
315	5	13	11	14
316	5	77	38	78
317	3	12	33	34
318	1	94	95	99
319	1	132	131	149
320	1	8	9	17
321	1	127	128	155
322	1	95	94	101
323	2	95	96	97
324	1	126	127	157
325	1	131	132	133
326	1	128	129	153
327	1	46	47	60
328	1	6	5	25
329	1	91	92	105

Dihedrals

1	16	63	45	44	65
2	9	44	45	46	61
3	14	11	12	33	35
4	9	95	94	93	103
5	9	132	131	130	150
6	9	50	49	48	58
7	21	52	51	118	119
8	9	122	123	124	162
9	16	141	135	134	142
10	1	136	135	134	142
11	16	167	122	121	168
12	9	88	89	90	108
13	9	8	7	6	24
14	16	21	7	6	23
15	15	51	118	120	171
16	9	123	122	121	168
17	9	130	129	128	155
18	9	133	132	131	148
19	9	11	10	9	18
20	1	33	35	36	81
21	16	82	36	35	84
22	17	49	50	51	52
23	9	120	121	122	167
24	15	12	33	35	84
25	16	58	48	47	60
26	9	43	42	41	71
27	6	123	124	125	126
27	7	123	124	125	126
27	8	123	124	125	126
28	9	40	39	38	77
29	9	47	46	45	63
30	16	13	11	10	16
31	9	94	93	92	105
32	16	156	127	126	158
33	9	44	43	42	69
34	16	147	132	131	148
35	6	35	36	37	38
35	7	35	36	37	38
35	8	35	36	37	38
36	9	127	128	129	152
37	9	45	46	47	60
38	9	4	3	2	32
39	16	106	91	90	109
40	16	98	95	94	101
41	18	52	51	50	53
41	19	52	51	50	53
41	20	52	51	50	53
42	16	148	131	130	151
43	6	44	45	46	47
43	7	44	45	46	47
43	8	44	45	46	47
44	9	128	129	130	151
45	16	70	42	41	72
46	9	122	121	120	170
47	4	1	85	86	87
48	9	3	4	5	25
49	6	128	129	130	131
49	7	128	129	130	131
49	8	128	129	130	131
50	9	88	87	86	116
51	16	103	93	92	105
52	18	137	136	135	141
52	19	137	136	135	141
52	20	137	136	135	141
53	2	85	86	87	115
53	3	85	86	87	115
54	16	140	135	134	143
55	9	134	133	132	147
56	9	8	9	10	16
57	16	71	41	40	74
58	9	38	39	40	73
59	16	100	94	93	102
60	9	48	49	50	53
61	16	154	128	127	157
62	9	5	4	3	29
63	16	25	5	4	28
64	9	6	7	8	19
65	6	39	40	41	42
65	7	39	40	41	42
65	8	39	40	41	42
66	16	56	49	48	57
67	6	37	38	39	40
67	7	37	38	39	40
67	8	37	38	39	40
68	1	85	86	87	88
69	9	2	3	4	28
70	9	121	122	123	165
71	16	16	10	9	18
72	9	36	37	38	78
73	16	17	9	8	20
74	16	168	121	120	170
75	9	125	126	127	157
76	9	45	44	43	68
77	16	65	44	43	68
78	16	15	10	9	18
79	16	28	4	3	29
80	6	4	5	6	7
80	7	4	5	6	7
80	8	4	5	6	7
81	16	68	43	42	69
82	16	150	130	129	153
83	16	164	123	122	166
84	16	64	45	44	66
85	1	93	94	95	96
86	6	41	42	43	44
86	7	41	42	43	44
86	8	41	42	43	44
87	16	23	6	5	26
88	12	11	12	33	34
88	13	11	12	33	34
89	9	7	8	9	18
90	9	50	49	48	57
91	9	43	44	45	64
92	16	142	134	133	145
93	9	128	127	126	159
94	4	14	11	12	33
95	9	40	41	42	70
96	9	125	124	123	165
97	9	8	7	6	23
98	15	51	118	120	170
99	9	130	129	128	154
100	9	11	10	9	17
101	16	54	50	49	56
102	16	109	90	89	111
103	9	120	121	122	166
104	16	81	36	35	83
105	16	159	126	125	161
106	16	19	8	7	22
107	6	40	41	42	43
107	7	40	41	42	43
107	8	40	41	42	43
108	1	1	2	3	4
109	16	75	39	38	77
110	10	10	11	12	33
110	11	10	11	12	33
111	16	13	11	10	15
112	9	94	93	92	104
113	16	154	128	127	156
114	1	118	120	121	169
115	16	111	89	88	112
116	15	12	33	35	36
117	16	67	43	42	69
118	16	105	92	91	106
119	16	160	125	124	162
120	16	148	131	130	150
121	6	124	125	126	127
121	7	124	125	126	127
121	8	124	125	126	127
122	1	133	134	135	136
123	9	125	126	127	156
124	16	153	129	128	155
125	16	103	93	92	104
126	6	121	122	123	124
126	7	121	122	123	124
126	8	121	122	123	124
127	16	30	3	2	31
128	9	41	42	43	68
129	16	140	135	134	142
130	16	163	124	123	165
131	16	69	42	41	72
132	9	35	36	37	79
133	9	134	133	132	146
134	9	48	47	46	62
135	16	162	124	123	165
136	9	37	36	35	84
137	16	157	127	126	159
138	9	124	125	126	158
139	16	59	47	46	62
140	16	53	50	49	56
141	9	9	8	7	22
142	16	108	90	89	111
143	4	1	85	86	117
144	9	2	3	4	27
145	9	132	133	134	142
146	9	126	125	124	163
147	9	36	37	38	77
148	6	126	127	128	129
148	7	126	127	128	129
148	8	126	127	128	129
149	9	92	91	90	109
150	16	17	9	8	19
151	9	45	44	43	67
152	9	123	124	125	160
153	6	91	92	93	94
153	7	91	92	93	94
153	8	91	92	93	94
154	16	61	46	45	64
155	9	39	40	41	72
156	2	96	95	94	101
156	3	96	95	94	101
157	16	55	49	48	58
158	16	113	88	87	114
159	16	151	130	129	152
160	6	6	7	8	9
160	7	6	7	8	9
160	8	6	7	8	9
161	9	47	48	49	55
162	16	150	130	129	152
163	17	119	118	120	121
164	6	46	47	48	49
164	7	46	47	48	49
164	8	46	47	48	49
165	9	9	10	11	13
166	16	64	45	44	65
167	9	10	9	8	19
168	6	86	87	88	89
168	7	86	87	88	89
168	8	86	87	88	89
169	6	132	133	134	135
169	7	132	133	134	135
169	8	132	133	134	135
170	16	27	4	3	30
171	16	22	7	6	24
172	15	53	50	51	118
173	9	46	45	44	66
174	9	7	8	9	17
175	9	87	88	89	111
176	16	165	123	122	167
177	9	38	37	36	82
178	9	40	41	42	69
179	9	125	124	123	164
180	16	155	128	127	157
181	9	4	5	6	23
182	9	130	131	132	147
183	9	93	94	95	99
184	9	90	91	92	105
185	16	114	87	86	116
186	1	118	120	121	168
187	9	90	89	88	113
188	16	76	39	38	78
189	16	77	38	37	80
190	9	89	90	91	107
191	16	149	131	130	151
192	9	41	42	43	67
193	16	166	122	121	169
194	16	163	124	123	164
195	9	86	87	88	113
196	16	80	37	36	82
197	16	110	89	88	113
198	16	143	134	133	145
199	6	92	93	94	95
199	7	92	93	94	95
199	8	92	93	94	95
200	16	104	92	91	107
201	9	37	36	35	83
202	16	157	127	126	158
203	16	59	47	46	61
204	16	53	50	49	55
205	9	6	5	4	28
206	16	108	90	89	110
207	16	101	94	93	102
208	21	50	51	118	120
209	16	18	9	8	19
210	16	66	44	43	68
211	9	124	123	122	167
212	16	102	93	92	104
213	9	135	134	133	145
214	6	87	88	89	90
214	7	87	88	89	90
214	8	87	88	89	90
215	2	96	95	94	100
215	3	96	95	94	100
216	16	14	11	10	15
217	16	55	49	48	57
218	9	89	88	87	115
219	16	155	128	127	156
220	9	7	6	5	25
221	16	60	47	46	62
222	25	135	136	138	139
223	9	93	92	91	107
224	1	9	10	11	12
225	6	130	131	132	133
225	7	130	131	132	133
225	8	130	131	132	133
226	9	95	94	93	102
227	16	79	37	36	82
228	9	46	45	44	65
229	5	2	1	85	86
230	16	29	3	2	32
231	18	119	118	120	171
231	19	119	118	120	171
231	20	119	118	120	171
232	16	112	88	87	115
233	16	145	133	132	147
234	16	24	6	5	26
235	16	115	87	86	117
236	9	39	38	37	80
237	6	45	46	47	48
237	7	45	46	47	48
237	8	45	46	47	48
238	4	32	2	1	85
239	6	43	44	45	46
239	7	43	44	45	46
239	8	43	44	45	46
240	15	134	135	136	138
241	16	82	36	35	83
242	15	12	33	35	83
243	16	20	8	7	22
244	22	94	95	96	97
244	23	94	95	96	97
245	16	58	48	47	59
246	15	49	50	51	118
247	6	8	9	10	11
247	7	8	9	10	11
247	8	8	9	10	11
248	9	92	93	94	101
249	9	90	91	92	104
250	9	127	126	125	161
251	16	76	39	38	77
252	6	38	39	40	41
252	7	38	39	40	41
252	8	38	39	40	41
253	9	45	46	47	59
254	9	4	3	2	31
255	16	106	91	90	108
256	16	98	95	94	100
257	9	128	129	130	150
258	16	167	122	121	169
259	16	70	42	41	71
260	18	34	33	35	84
260	19	34	33	35	84
260	20	34	33	35	84
261	9	133	132	131	149
262	1	33	35	36	82
263	16	77	38	37	79
264	18	137	136	135	140
264	19	137	136	135	140
264	20	137	136	135	140
265	16	152	129	128	155
266	2	85	86	87	114
266	3	85	86	87	114
267	16	149	131	130	150
268	16	166	122	121	168
269	9	86	87	88	112
270	15	54	50	51	118
271	9	8	9	10	15
272	16	71	41	40	73
273	16	110	89	88	112
274	9	131	132	133	145
275	16	146	132	131	149
276	16	143	134	133	144
277	16	104	92	91	106
278	9	40	39	38	78
279	16	25	5	4	27
280	16	156	127	126	159
281	9	121	122	123	164
282	9	44	43	42	70
283	16	16	10	9	17
284	18	52	51	50	54
284	19	52	51	50	54
284	20	52	51	50	54
285	16	65	44	43	67
286	9	91	92	93	103
287	4	3	2	1	85
288	9	42	43	44	66
289	9	122	121	120	171
290	4	31	2	1	85
291	16	15	10	9	17
292	9	3	4	5	26
293	9	88	87	86	117
294	6	36	37	38	39
294	7	36	37	38	39
294	8	36	37	38	39
295	2	1	2	3	30
295	3	1	2	3	30
296	1	51	50	49	56
297	9	89	88	87	114
298	16	100	94	93	103
299	9	5	4	3	30
300	9	93	92	91	106
301	9	131	130	129	153
302	16	56	49	48	58
303	24	97	96	95	99
304	16	23	6	5	25
305	16	79	37	36	81
306	9	41	40	39	76
307	9	43	44	45	63
308	16	142	134	133	144
309	6	7	8	9	10
309	7	7	8	9	10
309	8	7	8	9	10
310	16	73	40	39	76
311	16	29	3	2	31
312	9	128	127	126	158
313	6	129	130	131	132
313	7	129	130	131	132
313	8	129	130	131	132
314	16	112	88	87	114
315	16	145	133	132	146
316	6	3	4	5	6
316	7	3	4	5	6
316	8	3	4	5	6
317	16	115	87	86	116
318	9	39	38	37	79
319	16	62	46	45	64
320	9	42	41	40	74
321	16	54	50	49	55
322	17	134	135	136	137
323	16	109	90	89	110
324	9	46	47	48	58
325	16	159	126	125	160
326	16	20	8	7	21
327	16	19	8	7	21
328	9	126	127	128	155
329	6	47	48	49	50
329	7	47	48	49	50
329	8	47	48	49	50
330	9	127	126	125	160
331	16	26	5	4	28
332	9	91	90	89	111
333	26	137	136	138	139
333	27	137	136	138	139
334	6	127	128	129	130
334	7	127	128	129	130
334	8	127	128	129	130
335	16	57	48	47	60
336	18	34	33	35	83
336	19	34	33	35	83
336	20	34	33	35	83
337	16	153	129	128	154
338	9	37	38	39	76
339	16	99	95	94	101
340	16	152	129	128	154
341	16	81	36	35	84
342	16	69	42	41	71
343	16	144	133	132	147
344	9	48	47	46	61
345	6	42	43	44	45
345	7	42	43	44	45
345	8	42	43	44	45
346	16	162	124	123	164
347	1	48	49	50	51
348	9	131	132	133	144
349	16	146	132	131	148
350	16	169	121	120	171
351	16	75	39	38	78
352	16	78	38	37	80
353	15	138	136	135	141
354	17	34	33	35	36
355	9	9	8	7	21
356	4	1	85	86	116
357	9	126	125	124	162
358	16	72	41	40	74
359	16	111	89	88	113
360	9	129	130	131	149
361	9	92	91	90	108
362	16	161	125	124	163
363	16	67	43	42	70
364	16	105	92	91	107
365	16	160	125	124	163
366	9	91	92	93	102
367	9	5	6	7	22
368	9	42	43	44	65
369	16	61	46	45	63
370	9	39	40	41	71
371	16	30	3	2	32
372	2	1	2	3	29
372	3	1	2	3	29
373	1	51	50	49	55
374	9	35	36	37	80
375	6	125	126	127	128
375	7	125	126	127	128
375	8	125	126	127	128
376	9	124	125	126	159
377	9	131	130	129	152
378	9	49	48	47	60
379	24	97	96	95	98
380	9	132	133	134	143
381	16	27	4	3	29
382	16	22	7	6	23
383	9	41	40	39	75
384	9	87	88	89	110
385	16	165	123	122	166
386	16	73	40	39	75
387	9	38	37	36	81
388	9	123	124	125	161
389	2	12	11	10	16
389	3	12	11	10	16
390	9	133	134	135	141
391	16	62	46	45	63
392	16	158	126	125	161
393	9	42	41	40	73
394	9	46	47	48	57
395	16	74	40	39	76
396	16	113	88	87	115
397	16	151	130	129	153
398	9	47	48	49	56
399	16	107	91	90	109
400	9	9	10	11	14
401	9	10	9	8	20
402	16	63	45	44	66
403	9	126	127	128	154
404	9	130	131	132	146
405	9	93	94	95	98
406	9	44	45	46	62
407	15	51	118	120	121
408	9	129	128	127	157
409	9	132	131	130	151
410	9	90	89	88	112
411	6	90	91	92	93
411	7	90	91	92	93
411	8	90	91	92	93
412	16	26	5	4	27
413	21	52	51	118	120
414	9	91	90	89	110
415	9	122	123	124	163
416	16	141	135	134	143
417	1	136	135	134	143
418	16	57	48	47	59
419	9	88	89	90	109
420	16	21	7	6	24
421	9	123	122	121	169
422	9	37	38	39	75
423	9	89	90	91	106
424	16	99	95	94	100
425	9	4	5	6	24
426	6	88	89	90	91
426	7	88	89	90	91
426	8	88	89	90	91
427	16	144	133	132	146
428	9	43	42	41	72
429	16	80	37	36	81
430	6	122	123	124	125
430	7	122	123	124	125
430	8	122	123	124	125
431	16	169	121	120	170
432	6	131	132	133	134
432	7	131	132	133	134
432	8	131	132	133	134
433	16	78	38	37	79
434	15	138	136	135	140
435	9	47	46	45	64
436	9	6	5	4	27
437	16	72	41	40	73
438	16	114	87	86	117
439	16	147	132	131	149
440	9	129	130	131	148
441	9	127	128	129	153
442	16	161	125	124	162
443	6	2	3	4	5
443	7	2	3	4	5
443	8	2	3	4	5
444	21	50	51	118	119
445	6	5	6	7	8
445	7	5	6	7	8
445	8	5	6	7	8
446	16	66	44	43	67
447	9	5	6	7	21
448	9	124	123	122	166
449	9	135	134	133	144
450	1	118	120	121	122
451	4	13	11	12	33
452	9	38	39	40	74
453	9	48	49	50	54
454	6	89	90	91	92
454	7	89	90	91	92
454	8	89	90	91	92
455	16	60	47	46	61
456	9	6	7	8	20
457	9	49	48	47	59
458	1	33	35	36	37
459	16	101	94	93	103
460	6	120	121	122	123
460	7	120	121	122	123
460	8	120	121	122	123
461	16	168	121	120	171
462	16	18	9	8	20
463	9	129	128	127	156
464	18	119	118	120	170
464	19	119	118	120	170
464	20	119	118	120	170
465	2	12	11	10	15
465	3	12	11	10	15
466	9	133	134	135	140
467	16	24	6	5	25
468	16	28	4	3	30
469	16	102	93	92	105
470	16	158	126	125	160
471	16	14	11	10	16
472	16	74	40	39	75
473	9	7	6	5	26
474	16	68	43	42	70
475	9	92	93	94	100
476	16	164	123	122	167
477	16	107	91	90	108

Impropers

4	1	33	34	35	12
37	2	118	119	120	51
59	1	33	35	12	34
136	1	33	12	34	35
187	1	136	135	137	138
327	1	136	137	138	135
424	2	51	50	52	118
638	2	118	51	119	120
913	2	51	118	50	52
1058	2	51	52	118	50
1168	1	136	138	135	137
1189	2	118	120	51	119
