Title

81 atoms
80 bonds
149 angles
255 dihedrals
12 impropers

8 atom types
11 bond types
5 angle types
27 dihedral types
2 improper types
-3.872999907 96.12700009 xlo xhi
-1.873000026 98.12699997 ylo yhi
-9.625 90.375 zlo zhi
0.0 0.0 0.0 xy xz yz

Masses

1	15.99943
2	12.01078
3	1.007947
4	1.007947
5	12.01078
6	15.99943
7	15.99943
8	1.007947


Pair Coeffs

1	0.16846514	3.0251065
2	0.10884061	3.3795318
3	0.016409246	2.5832257
4	0.015779483	2.6445434
5	0.086879315	3.4806469
6	0.2102061	3.0398122
7	0.20947353	2.99716
8	1.2326e-05	0.53453923

Bond Coeffs

1 harmonic	366.7408841747	1.425895053732
2 harmonic	300.03137914615	1.451203938761
3 harmonic	264.62148576755	1.52190126495
4 harmonic	370.04670688625	1.093899492634
5 harmonic	301.15400723785	1.345741232799
6 harmonic	582.698766451	1.225198386222
7 harmonic	329.44145381095	1.523435958334
8 harmonic	279.1350963404	1.454628925034
9 harmonic	329.96998057905	1.427343958716
10 harmonic	543.5267831885	0.9716763312559
11 harmonic	385.7604595587	1.369745182308


Angle Coeffs

1 harmonic	53.20531626545	116.5475862634
2 harmonic	65.09061609600001	110.3538806181
3 harmonic	201.41175231035	127.4691416191
4 harmonic	57.8982893754	126.8062420451
5 harmonic	48.776492647595	115.6030999533


Dihedral Coeffs

1 fourier 1	0.1155372516788	3	0
2 fourier 1	0.1115525666802	3	0
3 fourier 1	0.3432490222662	1	0
4 fourier 1	0.0473758381877	3	0
5 fourier 1	0.457973137376	1	0
6 fourier 1	0.09223874044423	3	0
7 fourier 1	0.3159935921949	2	180
8 fourier 1	0.3247796806857	1	180
9 fourier 1	0.1040663847541	3	0
10 fourier 1	0.1918272375143	3	0
11 fourier 1	0.9202179876409	1	180
12 fourier 1	1.163809172478	2	180
13 fourier 1	0.1679186987369	1	180
14 fourier 1	2.779853741805	2	180
15 fourier 1	0.02664938770063	3	0
16 fourier 1	0.1911926717192	3	0
17 fourier 1	-0.3703352413219	2	0
18 fourier 1	0.4541676554336	1	0
19 fourier 1	0.1489710476446	2	0
20 fourier 1	0.02960027280666	3	180
21 fourier 1	0.9974165607242	2	180
22 fourier 1	0.3445382149273	3	0
23 fourier 1	0.1364556373303	1	0
24 fourier 1	0.3026390167484	3	0
25 fourier 1	2.687457892086	2	180
26 fourier 1	2.772607909663	2	180
27 fourier 1	0.09692684957115	1	0


Improper Coeffs

1 3.5	-1	2
2 0.3666666666666667	-1	2


Atoms

1	1	1	-0.17965899	-2.5580001	0.57200003	0.94400001
2	1	2	0.031771999	-1.365	0.62599999	0.20999999
3	1	2	-0.146448	-0.671	-0.741	0.23
4	1	2	-0.13906901	0.55199999	-0.81	-0.69999999
5	1	2	0.134051	1.743	0.017999999	-0.205
6	1	1	-0.49490201	1.545	1.374	-0.49000001
7	1	3	0.078432001	2.661	-0.33199999	-0.72899997
8	1	3	0.078432001	1.8890001	-0.13	0.889
9	1	4	0.087076999	0.87400001	-1.873	-0.75599998
10	1	4	0.087076999	0.27200001	-0.498	-1.73
11	1	4	0.088049002	-1.399	-1.512	-0.104
12	1	4	0.088049002	-0.37400001	-0.99400002	1.272
13	1	3	0.078036003	-1.572	0.94300002	-0.838
14	1	3	0.078036003	-0.708	1.386	0.68000001
15	1	5	0.76130998	2.375	1.872	-0.113
16	1	6	-0.55698401	3.1070001	1.308	0.685
17	1	2	-0.208858	2.6600001	3.2820001	-0.54100001
18	1	2	-0.115744	3.9879999	3.402	-1.306
19	1	2	-0.136416	4.039	2.5829999	-2.609
20	1	2	-0.14165699	3.049	3.0940001	-3.6700001
21	1	2	-0.139073	3.2939999	2.4749999	-5.0549998
22	1	2	-0.097411998	2.934	0.98000002	-5.105
23	1	2	-0.25788599	3.0940001	0.396	-6.5159998
24	1	5	0.51667202	2.072	0.94	-7.4710002
25	1	6	-0.690238	0.88499999	0.70899999	-7.3070002
26	1	4	0.113196	2.9820001	-0.70899999	-6.4679999
27	1	4	0.113196	4.1129999	0.61500001	-6.9000001
28	1	4	0.076421	3.6110001	0.417	-4.428
29	1	4	0.076421	1.892	0.82499999	-4.7509999
30	1	4	0.078114003	4.3569999	2.619	-5.3499999
31	1	4	0.078114003	2.6659999	3.026	-5.7880001
32	1	4	0.079986997	2.0050001	2.8800001	-3.3540001
33	1	4	0.079986997	3.155	4.197	-3.7639999
34	1	4	0.078114003	5.073	2.655	-3.0139999
35	1	4	0.078114003	3.8429999	1.5140001	-2.3840001
36	1	4	0.085202001	4.8169999	3.0680001	-0.64399999
37	1	4	0.085202001	4.1729999	4.474	-1.539
38	1	4	0.116389	1.822	3.658	-1.165
39	1	4	0.116389	2.707	3.925	0.36399999
40	1	1	-0.17965899	-3.2279999	0.123	0.366
41	1	2	0.031883001	-2.677	0.068999998	-0.92199999
42	1	2	-0.140715	-2.8	1.436	-1.605
43	1	2	-0.16776399	-2.059	1.506	-2.9519999
44	1	2	0.085180998	-2.724	0.67699999	-4.0580001
45	1	7	-0.68504399	-2.4130001	-0.67900002	-3.904
46	1	8	0.37734699	-2.885	-1.155	-4.6350002
47	1	3	0.068282001	-2.3399999	1.027	-5.0419998
48	1	3	0.068282001	-3.8269999	0.82599998	-4.0409999
49	1	4	0.090512	-2.0510001	2.5680001	-3.2780001
50	1	4	0.090512	-1	1.193	-2.826
51	1	4	0.088216998	-2.3610001	2.207	-0.93400002
52	1	4	0.088216998	-3.8729999	1.689	-1.747
53	1	3	0.078036003	-1.6109999	-0.248	-0.87199998
54	1	3	0.078036003	-3.2390001	-0.69099998	-1.503
55	1	5	0.51667202	2.3900001	1.535	-8.323
56	1	6	-0.690238	1.545	2.03	-9.052
57	1	2	-0.25788599	3.846	1.751	-8.6110001
58	1	2	-0.097411998	4.7280002	1.046	-7.5749998
59	1	2	-0.139073	6.217	1.286	-7.8660002
60	1	2	-0.14165699	7.1469998	0.45100001	-6.967
61	1	2	-0.136416	7.0240002	0.73699999	-5.4590001
62	1	2	-0.11321	7.3769999	2.1860001	-5.0929999
63	1	2	-0.218954	7.4190001	2.3729999	-3.5739999
64	1	5	0.823403	7.7399998	3.793	-3.23
65	1	6	-0.558541	8.9390001	4.1529999	-3.0829999
66	1	7	-0.66591603	6.7150002	4.7270002	-3.115
67	1	8	0.39353099	6.9159999	5.6960001	-2.8989999
68	1	4	0.11741	8.1879997	1.704	-3.1300001
69	1	4	0.11741	6.4330001	2.108	-3.1340001
70	1	4	0.085202001	6.612	2.8729999	-5.5149999
71	1	4	0.085202001	8.3690004	2.447	-5.5229998
72	1	4	0.078114003	7.724	0.052999999	-4.9299998
73	1	4	0.078114003	6.0009999	0.49200001	-5.1030002
74	1	4	0.079986997	8.198	0.63200003	-7.2810001
75	1	4	0.079986997	6.9400001	-0.62800002	-7.1399999
76	1	4	0.078114003	6.4549999	2.3659999	-7.7680001
77	1	4	0.078114003	6.427	1.002	-8.9200001
78	1	4	0.076421	4.5180001	-0.046	-7.5949998
79	1	4	0.076421	4.4780002	1.441	-6.5669999
80	1	4	0.113196	4.0560002	2.8429999	-8.5979996
81	1	4	0.113196	4.073	1.357	-9.625

Bonds

1	1	1	2
2	2	1	40
3	3	2	3
4	4	2	13
5	4	2	14
6	3	3	4
7	4	3	11
8	4	3	12
9	3	4	5
10	4	4	9
11	4	4	10
12	1	5	6
13	4	5	7
14	4	5	8
15	5	6	15
16	6	15	16
17	7	15	17
18	3	17	18
19	4	17	38
20	4	17	39
21	3	18	19
22	4	18	36
23	4	18	37
24	3	19	20
25	4	19	34
26	4	19	35
27	3	20	21
28	4	20	32
29	4	20	33
30	3	21	22
31	4	21	30
32	4	21	31
33	3	22	23
34	4	22	28
35	4	22	29
36	7	23	24
37	4	23	26
38	4	23	27
39	6	24	25
40	8	24	55
41	1	40	41
42	3	41	42
43	4	41	53
44	4	41	54
45	3	42	43
46	4	42	51
47	4	42	52
48	3	43	44
49	4	43	49
50	4	43	50
51	9	44	45
52	4	44	47
53	4	44	48
54	10	45	46
55	6	55	56
56	7	55	57
57	3	57	58
58	4	57	80
59	4	57	81
60	3	58	59
61	4	58	78
62	4	58	79
63	3	59	60
64	4	59	76
65	4	59	77
66	3	60	61
67	4	60	74
68	4	60	75
69	3	61	62
70	4	61	72
71	4	61	73
72	3	62	63
73	4	62	70
74	4	62	71
75	7	63	64
76	4	63	68
77	4	63	69
78	6	64	65
79	11	64	66
80	10	66	67

Angles

1	1	64	63	68
2	1	43	44	45
3	1	58	57	81
4	1	2	3	4
5	5	36	18	37
6	1	62	63	69
7	1	60	61	62
8	1	20	21	31
9	1	42	43	49
10	1	60	59	77
11	1	3	2	13
12	1	45	44	48
13	1	15	17	38
14	1	19	18	36
15	1	41	42	52
16	2	44	45	46
17	1	21	22	29
18	5	80	57	81
19	1	58	59	77
20	4	6	15	17
21	1	6	5	7
22	2	5	6	15
23	1	3	4	9
24	1	3	4	10
25	1	24	23	27
26	5	13	2	14
27	1	2	3	11
28	1	18	17	38
29	1	19	18	37
30	1	1	2	14
31	1	62	63	68
32	1	42	43	50
33	1	20	21	22
34	4	63	64	66
35	1	43	42	52
36	1	4	5	7
37	1	17	18	37
38	1	57	58	59
39	1	59	60	75
40	1	22	21	31
41	1	63	62	71
42	1	60	61	72
43	5	68	63	69
44	1	45	44	47
45	1	22	23	24
46	5	9	4	10
47	1	58	59	60
48	4	16	15	17
49	1	41	42	51
50	1	44	43	49
51	1	61	62	71
52	1	4	3	11
53	2	2	1	40
54	1	59	58	78
55	5	70	62	71
56	1	17	18	36
57	5	28	22	29
58	1	20	19	34
59	1	19	20	21
60	1	21	22	28
61	1	41	42	43
62	1	43	44	48
63	1	15	17	39
64	4	24	55	56
65	1	20	19	35
66	3	6	15	16
67	5	74	60	75
68	1	3	4	5
69	4	25	24	55
70	1	64	63	69
71	1	40	41	42
72	1	3	2	14
73	1	62	63	64
74	5	32	20	33
75	5	38	17	39
76	1	62	61	73
77	1	43	42	51
78	4	63	64	65
79	1	63	62	70
80	4	56	55	57
81	1	18	17	39
82	1	61	60	75
83	1	61	62	63
84	1	59	58	79
85	1	4	5	6
86	1	44	43	50
87	2	1	40	41
88	5	47	44	48
89	1	2	3	12
90	1	18	19	34
91	5	11	3	12
92	1	17	18	19
93	1	61	62	70
94	5	76	59	77
95	1	23	22	29
96	1	59	60	74
97	1	18	19	35
98	5	53	41	54
99	1	55	57	58
100	5	51	42	52
101	5	30	21	31
102	1	22	23	26
103	1	57	58	79
104	1	62	61	72
105	5	72	61	73
106	1	43	44	47
107	1	1	2	3
108	1	15	17	18
109	1	40	41	54
110	1	24	23	26
111	1	19	20	32
112	3	65	64	66
113	1	40	41	53
114	1	57	58	78
115	4	23	24	25
116	1	1	2	13
117	4	24	55	57
118	5	49	43	50
119	1	21	20	33
120	1	4	3	12
121	1	5	4	9
122	1	42	43	44
123	5	7	5	8
124	1	5	4	10
125	4	23	24	55
126	1	60	59	76
127	1	6	5	8
128	1	19	20	33
129	1	22	23	27
130	1	55	57	80
131	1	18	19	20
132	1	55	57	81
133	1	21	22	23
134	2	64	66	67
135	1	42	41	54
136	1	60	61	73
137	5	78	58	79
138	1	61	60	74
139	5	34	19	35
140	1	21	20	32
141	1	42	41	53
142	1	20	21	30
143	1	23	22	28
144	5	26	23	27
145	1	59	60	61
146	1	22	21	30
147	1	58	59	76
148	1	4	5	8
149	1	58	57	80

Dihedrals

1	9	41	42	43	49
2	15	26	23	24	55
3	15	66	64	63	69
4	15	27	23	24	55
5	16	78	58	57	80
6	16	10	4	3	11
7	6	17	18	19	20
7	7	17	18	19	20
7	8	17	18	19	20
8	9	61	62	63	69
9	16	11	3	2	14
10	9	20	19	18	37
11	16	70	62	61	72
12	16	76	59	58	78
13	16	69	63	62	71
14	16	78	58	57	81
15	17	62	63	64	65
16	18	25	24	23	27
16	19	25	24	23	27
16	20	25	24	23	27
17	1	55	57	58	79
18	16	51	42	41	53
19	4	8	5	6	15
20	6	20	21	22	23
20	7	20	21	22	23
20	8	20	21	22	23
21	16	48	44	43	49
22	9	62	61	60	75
23	9	63	62	61	72
24	9	42	43	44	47
25	9	59	60	61	73
26	1	24	23	22	29
27	9	19	18	17	38
28	16	52	42	41	54
29	18	65	64	63	69
29	19	65	64	63	69
29	20	65	64	63	69
30	1	55	57	58	78
31	25	63	64	66	67
32	15	24	55	57	58
33	16	52	42	41	53
34	6	19	20	21	22
34	7	19	20	21	22
34	8	19	20	21	22
35	9	22	21	20	33
36	1	21	22	23	24
37	17	22	23	24	25
38	9	3	4	5	7
39	9	59	58	57	80
40	9	4	3	2	13
41	16	27	23	22	28
42	16	68	63	62	71
43	9	60	61	62	71
44	16	36	18	17	38
45	6	58	59	60	61
45	7	58	59	60	61
45	8	58	59	60	61
46	9	21	20	19	34
47	9	59	58	57	81
48	16	73	61	60	74
49	6	18	19	20	21
49	7	18	19	20	21
49	8	18	19	20	21
50	2	40	41	42	51
50	3	40	41	42	51
51	9	19	18	17	39
52	16	30	21	20	32
53	9	41	42	43	50
54	18	16	15	17	38
54	19	16	15	17	38
54	20	16	15	17	38
55	16	28	22	21	31
56	15	22	23	24	55
57	16	32	20	19	34
58	6	59	60	61	62
58	7	59	60	61	62
58	8	59	60	61	62
59	15	66	64	63	68
60	1	40	41	42	43
61	1	15	17	18	37
62	9	2	3	4	9
63	9	61	62	63	68
64	9	2	3	4	10
65	15	6	15	17	38
66	4	7	5	6	15
67	16	69	63	62	70
68	16	79	58	57	80
69	9	22	21	20	32
70	16	48	44	43	50
71	16	79	58	57	81
72	16	51	42	41	54
73	16	72	61	60	74
74	2	1	2	3	12
74	3	1	2	3	12
75	16	9	4	3	12
76	16	30	21	20	33
77	16	74	60	59	76
78	15	24	55	57	80
79	6	57	58	59	60
79	7	57	58	59	60
79	8	57	58	59	60
80	18	65	64	63	68
80	19	65	64	63	68
80	20	65	64	63	68
81	15	24	55	57	81
82	1	42	43	44	45
83	16	35	19	18	37
84	1	15	17	18	36
85	16	34	19	18	36
86	6	60	61	62	63
86	7	60	61	62	63
86	8	60	61	62	63
87	1	64	63	62	71
88	14	5	6	15	17
89	9	57	58	59	77
90	16	68	63	62	70
91	9	60	61	62	70
92	9	62	61	60	74
93	1	24	23	22	28
94	24	46	45	44	48
95	5	2	1	40	41
96	1	1	2	3	4
97	16	12	3	2	13
98	9	21	20	19	35
99	16	8	5	4	9
100	9	17	18	19	34
101	9	23	22	21	30
102	16	8	5	4	10
103	9	21	22	23	26
104	16	31	21	20	32
105	9	44	43	42	52
106	16	34	19	18	37
107	16	35	19	18	36
108	16	49	43	42	52
109	17	56	55	57	58
110	9	18	19	20	32
111	9	44	43	42	51
112	4	3	2	1	40
113	16	32	20	19	35
114	9	59	60	61	72
115	9	5	4	3	11
116	16	26	23	22	29
117	16	49	43	42	51
118	1	61	62	63	64
119	16	36	18	17	39
120	2	45	44	43	49
120	3	45	44	43	49
121	9	58	59	60	75
122	6	2	3	4	5
122	7	2	3	4	5
122	8	2	3	4	5
123	16	11	3	2	13
124	9	42	43	44	48
125	9	19	20	21	30
126	18	16	15	17	39
126	19	16	15	17	39
126	20	16	15	17	39
127	4	13	2	1	40
128	9	20	21	22	29
129	21	25	24	55	56
130	2	6	5	4	9
130	3	6	5	4	9
131	16	50	43	42	52
132	2	6	5	4	10
132	3	6	5	4	10
133	1	15	17	18	19
134	16	37	18	17	38
135	4	1	40	41	42
136	21	23	24	55	56
137	16	47	44	43	49
138	9	43	42	41	54
139	9	20	21	22	28
140	16	29	22	21	30
141	16	75	60	59	76
142	15	6	15	17	39
143	1	64	63	62	70
144	16	7	5	4	9
145	9	43	42	41	53
146	16	7	5	4	10
147	16	31	21	20	33
148	9	4	3	2	14
149	9	61	60	59	76
150	9	18	19	20	33
151	9	19	20	21	31
152	2	1	2	3	11
152	3	1	2	3	11
153	16	33	20	19	34
154	16	10	4	3	12
155	9	21	22	23	27
156	16	37	18	17	39
157	16	77	59	58	79
158	12	5	6	15	16
158	13	5	6	15	16
159	16	29	22	21	31
160	24	46	45	44	47
161	16	33	20	19	35
162	18	56	55	57	80
162	19	56	55	57	80
162	20	56	55	57	80
163	18	56	55	57	81
163	19	56	55	57	81
163	20	56	55	57	81
164	26	65	64	66	67
164	27	65	64	66	67
165	2	45	44	43	50
165	3	45	44	43	50
166	15	62	63	64	66
167	16	71	62	61	73
168	16	77	59	58	78
169	1	3	4	5	6
170	9	60	59	58	79
171	6	41	42	43	44
171	7	41	42	43	44
171	8	41	42	43	44
172	16	74	60	59	77
173	16	75	60	59	77
174	9	17	18	19	35
175	16	47	44	43	50
176	4	1	40	41	54
177	9	61	60	59	77
178	16	26	23	22	28
179	10	4	5	6	15
179	11	4	5	6	15
180	9	60	59	58	78
181	9	23	22	21	31
182	4	1	40	41	53
183	16	50	43	42	51
184	17	16	15	17	18
185	16	28	22	21	30
186	9	3	4	5	8
187	22	43	44	45	46
187	23	43	44	45	46
188	16	73	61	60	75
189	16	27	23	22	29
190	18	25	24	23	26
190	19	25	24	23	26
190	20	25	24	23	26
191	16	70	62	61	73
192	9	58	59	60	74
193	9	20	19	18	36
194	15	6	15	17	18
195	16	71	62	61	72
196	1	55	57	58	59
197	21	25	24	55	57
198	4	14	2	1	40
199	2	40	41	42	52
199	3	40	41	42	52
200	9	63	62	61	73
201	9	5	4	3	12
202	16	12	3	2	14
203	21	23	24	55	57
204	16	9	4	3	11
205	9	57	58	59	76
206	16	76	59	58	79
207	16	72	61	60	75

Impropers

30	1	64	63	65	66
95	2	24	23	25	55
129	2	24	55	23	25
278	1	64	65	66	63
281	1	64	66	63	65
323	1	15	17	6	16
339	2	55	56	57	24
384	2	55	57	24	56
426	1	15	16	17	6
465	2	55	24	56	57
494	1	15	6	16	17
525	2	24	25	55	23
