Title

369 atoms
368 bonds
671 angles
1281 dihedrals
102 impropers

11 atom types
14 bond types
9 angle types
39 dihedral types
3 improper types
-8.996999741 91.00300026 xlo xhi
-2.134000063 97.86599994 ylo yhi
-10.68000031 89.31999969 zlo zhi
0.0 0.0 0.0 xy xz yz

Masses

1	15.99943
2	12.01078
3	14.00672
4	12.01078
5	1.007947
6	1.007947
7	1.007947
8	15.99943
9	12.01078
10	15.99943
11	1.007947


Pair Coeffs

1	0.2102061	3.0398122
2	0.086879315	3.4806469
3	0.16769152	3.206876
4	0.10884061	3.3795318
5	0.014090815	1.1034277
6	0.016409246	2.5832257
7	0.015779483	2.6445434
8	0.16846514	3.0251065
9	0.21	3.3996695
10	0.20947353	2.99716
11	1.2326e-05	0.53453923

Bond Coeffs

1 harmonic	582.698766451	1.225198386222
2 harmonic	492.76746816345	1.381897776683
3 harmonic	301.15400723785	1.345741232799
4 harmonic	352.0565580496	1.450098586273
5 harmonic	505.144496193	1.019481865027
6 harmonic	264.62148576755	1.52190126495
7 harmonic	370.04670688625	1.093899492634
8 harmonic	279.1350963404	1.454628925034
9 harmonic	366.7408841747	1.425895053732
10 harmonic	300.03137914615	1.451203938761
11 harmonic	366.34047229585	1.464762957261
12 harmonic	602.81384337	1.196112346392
13 harmonic	329.96998057905	1.427343958716
14 harmonic	543.5267831885	0.9716763312559


Angle Coeffs

1 harmonic	57.8982893754	126.8062420451
2 harmonic	201.41175231035	127.4691416191
3 harmonic	55.42182150775	117.3465570514
4 harmonic	63.44422595415	115.5071327674
5 harmonic	65.09061609600001	110.3538806181
6 harmonic	53.20531626545	116.5475862634
7 harmonic	48.776492647595	115.6030999533
8 harmonic	55.07882548015	112.8714009681
9 harmonic	33.56981613361	180


Dihedral Coeffs

1 fourier 1	1.809047390003	2	180
2 fourier 1	-0.04816277792592	1	0
3 fourier 1	0.4860993122944	2	180
4 fourier 1	0.8916986138746	1	0
5 fourier 1	1.163809172478	2	180
6 fourier 1	0.1679186987369	1	180
7 fourier 1	-0.1488678166443	4	180
8 fourier 1	-0.1230328948768	3	180
9 fourier 1	0.2939295466901	2	0
10 fourier 1	-0.3024127022865	1	0
11 fourier 1	0.182238503271	2	0
12 fourier 1	0.02972342374561	3	0
13 fourier 1	0.1918272375143	3	0
14 fourier 1	0.9202179876409	1	180
15 fourier 1	0.0473758381877	3	0
16 fourier 1	2.779853741805	2	180
17 fourier 1	0.1155372516788	3	0
18 fourier 1	0.09223874044423	3	0
19 fourier 1	0.3159935921949	2	180
20 fourier 1	0.3247796806857	1	180
21 fourier 1	0.1040663847541	3	0
22 fourier 1	3.101948770557	2	180
23 fourier 1	-0.4252153282372	1	0
24 fourier 1	0.9974165607242	2	180
25 fourier 1	2.348375642009	2	180
26 fourier 1	1.256156174911	1	0
27 fourier 1	0.1911926717192	3	0
28 fourier 1	-0.0309670556842	3	0
29 fourier 1	0.4598191477945	2	0
30 fourier 1	0.1115525666802	3	0
31 fourier 1	0.3432490222662	1	0
32 fourier 1	0.4552156463534	3	0
33 fourier 1	-0.03687743385131	2	180
34 fourier 1	0.457973137376	1	0
35 fourier 1	-1.382973039546	1	0
36 fourier 1	0	1	0
37 fourier 1	0.3445382149273	3	0
38 fourier 1	0.1364556373303	1	0
39 fourier 1	0.3026390167484	3	0


Improper Coeffs

1 3.5	-1	2
2 0.3333333333333333	-1	2
3 0.3666666666666667	-1	2


Atoms

1	1	1	-0.609837	5.5929999	0.308	0.098999999
2	1	2	0.78493202	4.6459999	1.073	-0.22499999
3	1	3	-0.46589199	3.2980001	0.59799999	-0.25600001
4	1	4	0.025178	2.967	-0.78899997	0.072999999
5	1	4	-0.144425	1.454	-1.039	0.015
6	1	4	-0.142309	0.71100003	-0.33000001	1.16
7	1	4	-0.142309	-0.78399998	-0.685	1.204
8	1	4	-0.14571001	-1.574	-0.057999998	0.045000002
9	1	4	0.030995	-3.075	-0.32100001	0.199
10	1	3	-0.52217901	-3.812	0.237	-0.93300003
11	1	2	0.54304302	-4.0619998	1.6390001	-1.0779999
12	1	1	-0.68599999	-3.6559999	2.4619999	-0.215
13	1	5	0.31922001	-4.224	-0.41499999	-1.637
14	1	6	0.053435002	-3.25	-1.419	0.237
15	1	6	0.053435002	-3.454	0.119	1.148
16	1	7	0.088270999	-1.39	1.038	0.024
17	1	7	0.088270999	-1.2359999	-0.491	-0.92000002
18	1	7	0.087063	-0.90899998	-1.79	1.194
19	1	7	0.087063	-1.197	-0.308	2.165
20	1	7	0.087063	1.164	-0.64300001	2.1270001
21	1	7	0.087063	0.82999998	0.77100003	1.076
22	1	7	0.088270999	1.278	-2.1340001	0.089000002
23	1	7	0.088270999	1.0700001	-0.69599998	-0.97000003
24	1	6	0.057004001	3.467	-1.461	-0.65700001
25	1	6	0.057004001	3.3499999	-1.0369999	1.087
26	1	5	0.32580301	2.55	1.27	-0.54100001
27	1	8	-0.496889	5.6989999	7.3109999	-2.7219999
28	1	4	0.10487	5.4780002	5.9790001	-2.348
29	1	4	0.078043997	6.802	5.302	-1.989
30	1	8	-0.48773801	6.5819998	3.9430001	-1.66
31	1	4	0.078043997	6.5019999	3.7780001	-0.259
32	1	4	0.104871	6.1149998	2.339	0.059
33	1	8	-0.496889	4.849	2.0599999	-0.47099999
34	1	6	0.091054	6.8709998	1.648	-0.37799999
35	1	6	0.091054	6.099	2.2030001	1.163
36	1	6	0.083247997	7.4920001	3.984	0.207
37	1	6	0.083247997	5.7379999	4.4549999	0.18700001
38	1	6	0.083247997	7.4650002	5.3330002	-2.8789999
39	1	6	0.083247997	7.323	5.8800001	-1.188
40	1	6	0.091054	4.9759998	5.4219999	-3.171
41	1	6	0.091054	4.8039999	5.967	-1.467
42	1	1	-0.609837	14.403	11.034	-7.296
43	1	2	0.78493202	13.835	10.311	-6.4349999
44	1	3	-0.46589199	12.41	10.206	-6.3909998
45	1	4	0.025178	11.558	10.937	-7.3299999
46	1	4	-0.144425	10.073	10.621	-7.1110001
47	1	4	-0.142309	9.724	9.1829996	-7.5320001
48	1	4	-0.142309	8.217	8.8950005	-7.4559999
49	1	4	-0.144425	7.7049999	8.802	-6.0110002
50	1	4	0.025178	6.2319999	8.3800001	-5.9770002
51	1	3	-0.46589199	5.7420001	8.342	-4.5999999
52	1	2	0.78493202	6.0749998	7.29	-3.688
53	1	1	-0.609837	6.8119998	6.3330002	-4.0450001
54	1	5	0.32580301	5.0749998	9.0810003	-4.283
55	1	6	0.057004001	5.6290002	9.1149998	-6.5539999
56	1	6	0.057004001	6.0999999	7.382	-6.4499998
57	1	7	0.088270999	8.3149996	8.0620003	-5.4499998
58	1	7	0.088270999	7.8010001	9.7889996	-5.5120001
59	1	7	0.087063	7.6539998	9.6800003	-8.0080004
60	1	7	0.087063	8.0279999	7.9250002	-7.9660001
61	1	7	0.087063	10.048	9.0299997	-8.585
62	1	7	0.087063	10.276	8.4519997	-6.9029999
63	1	7	0.088270999	9.4709997	11.333	-7.7179999
64	1	7	0.088270999	9.823	10.786	-6.0419998
65	1	6	0.057004001	11.716	12.028	-7.184
66	1	6	0.057004001	11.847	10.685	-8.3739996
67	1	5	0.32580301	11.988	9.6020002	-5.6500001
68	1	8	-0.496889	17.226	7.4429998	-1.284
69	1	4	0.10487	16.5	8.1470003	-2.253
70	1	4	0.078043997	17.448999	8.9169998	-3.1730001
71	1	8	-0.48773801	16.709999	9.6669998	-4.119
72	1	4	0.078043997	16.624001	8.9709997	-5.3460002
73	1	4	0.104871	15.7	9.7270002	-6.2919998
74	1	8	-0.496889	14.41	9.7860003	-5.75
75	1	6	0.091054	16.094	10.756	-6.4499998
76	1	6	0.091054	15.672	9.1990004	-7.2719998
77	1	6	0.083247997	17.629	8.9040003	-5.8200002
78	1	6	0.083247997	16.216999	7.9439998	-5.2010002
79	1	6	0.083247997	18.033001	9.632	-2.5550001
80	1	6	0.083247997	18.188999	8.2189999	-3.632
81	1	6	0.091054	15.784	8.8500004	-1.7690001
82	1	6	0.091054	15.912	7.4200001	-2.8510001
83	1	1	-0.609837	26.511	10.33	2.7160001
84	1	2	0.78493202	25.732	10.182	1.7359999
85	1	3	-0.46589199	24.389	9.7309999	1.9299999
86	1	4	0.025178	23.872	9.415	3.2620001
87	1	4	-0.144425	22.395	9.0019999	3.2119999
88	1	4	-0.142309	21.478001	10.188	2.8670001
89	1	4	-0.142309	19.987	9.8269997	2.9530001
90	1	4	-0.144425	19.537001	8.8990002	1.8150001
91	1	4	0.025178	18.021999	8.6730003	1.859
92	1	3	-0.46589199	17.611	7.7509999	0.80199999
93	1	2	0.78493202	17.524	8.1379995	-0.57300001
94	1	1	-0.609837	17.797001	9.3129997	-0.93400002
95	1	5	0.32580301	17.312	6.7849998	1.0650001
96	1	6	0.057004001	17.747	8.2379999	2.845
97	1	6	0.057004001	17.48	9.6379995	1.747
98	1	7	0.088270999	19.816	9.3500004	0.83899999
99	1	7	0.088270999	20.042999	7.915	1.908
100	1	7	0.087063	19.77	9.3549995	3.937
101	1	7	0.087063	19.403	10.772	2.898
102	1	7	0.087063	21.673	11.012	3.589
103	1	7	0.087063	21.709999	10.574	1.85
104	1	7	0.088270999	22.111	8.6009998	4.2090001
105	1	7	0.088270999	22.274	8.1859999	2.467
106	1	6	0.057004001	24.462999	8.5749998	3.688
107	1	6	0.057004001	23.993999	10.295	3.931
108	1	5	0.32580301	23.787001	9.6140003	1.084
109	1	8	-0.496889	27.865999	10.61	-4.7069998
110	1	4	0.10487	27.451	10.376	-3.3889999
111	1	4	0.078043997	28.594	10.657	-2.414
112	1	8	-0.48773801	28.187	10.371	-1.089
113	1	4	0.078043997	27.780001	11.552	-0.42899999
114	1	4	0.104871	27.205999	11.197	0.93599999
115	1	8	-0.496889	26.072001	10.39	0.77899998
116	1	6	0.091054	27.976	10.658	1.5319999
117	1	6	0.091054	26.929001	12.134	1.47
118	1	6	0.083247997	28.653	12.226	-0.27500001
119	1	6	0.083247997	26.997999	12.093	-1.011
120	1	6	0.083247997	29.441	9.9820004	-2.6619999
121	1	6	0.083247997	28.971001	11.699	-2.5539999
122	1	6	0.091054	27.099001	9.3249998	-3.2739999
123	1	6	0.091054	26.596001	11.048	-3.165
124	1	1	-0.609837	37.669998	9.4829998	-8.3339996
125	1	2	0.78493202	36.861	9.8710003	-7.4489999
126	1	3	-0.46589199	35.459	9.6230001	-7.579
127	1	4	0.025178	34.909	8.9230003	-8.7410002
128	1	4	-0.144425	33.389999	8.7370005	-8.6219997
129	1	4	-0.142309	33.02	7.723	-7.526
130	1	4	-0.142309	31.514999	7.4159999	-7.4899998
131	1	4	-0.144425	30.684999	8.5909996	-6.9530001
132	1	4	0.025178	29.211	8.1990004	-6.8049998
133	1	3	-0.46589199	28.422001	9.3389997	-6.3410001
134	1	2	0.78493202	28.447001	9.7959995	-4.9850001
135	1	1	-0.609837	29.158001	9.2200003	-4.1199999
136	1	5	0.32580301	27.768	9.8050003	-7.0089998
137	1	6	0.057004001	28.820999	7.869	-7.7930002
138	1	6	0.057004001	29.101	7.3520002	-6.0939999
139	1	7	0.088270999	31.084999	8.9060001	-5.9650002
140	1	7	0.088270999	30.753	9.4519997	-7.652
141	1	7	0.087063	31.163	7.1360002	-8.507
142	1	7	0.087063	31.361	6.5359998	-6.8270001
143	1	7	0.087063	33.557999	6.77	-7.724
144	1	7	0.087063	33.348999	8.092	-6.5310001
145	1	7	0.088270999	33.006001	8.3719997	-9.6000004
146	1	7	0.088270999	32.922001	9.7229996	-8.4160004
147	1	6	0.057004001	35.125	9.5179996	-9.6540003
148	1	6	0.057004001	35.402	7.9320002	-8.8500004
149	1	5	0.32580301	34.830002	9.9750004	-6.823
150	1	8	-0.496889	38.738998	13.946	-2.3380001
151	1	4	0.10487	38.314999	13.23	-3.4649999
152	1	4	0.078043997	39.511002	12.874	-4.3499999
153	1	8	-0.48773801	39.073002	12.194	-5.5120001
154	1	4	0.078043997	39.203999	10.797	-5.348
155	1	4	0.104871	38.588001	10.088	-6.5469999
156	1	8	-0.496889	37.219002	10.377	-6.618
157	1	6	0.091054	39.096001	10.426	-7.4780002
158	1	6	0.091054	38.734001	8.9899998	-6.4359999
159	1	6	0.083247997	40.279999	10.517	-5.2940001
160	1	6	0.083247997	38.686001	10.446	-4.4260001
161	1	6	0.083247997	40.000999	13.816	-4.6719999
162	1	6	0.083247997	40.271	12.309	-3.7579999
163	1	6	0.091054	37.573002	13.823	-4.0469999
164	1	6	0.091054	37.814999	12.299	-3.1240001
165	1	1	-0.609837	47.103001	20.302999	-1.908
166	1	2	0.78493202	46.555	19.228001	-2.27
167	1	3	-0.46589199	45.167999	18.99	-2.0139999
168	1	4	0.025178	44.338001	19.974001	-1.317
169	1	4	-0.144425	42.880001	19.507999	-1.209
170	1	4	-0.142309	42.173	19.514	-2.575
171	1	4	-0.142309	40.674	19.190001	-2.4660001
172	1	4	-0.144425	40.411999	17.716999	-2.1199999
173	1	4	0.025178	38.911999	17.405001	-2.154
174	1	3	-0.46589199	38.669998	16.014	-1.776
175	1	2	0.78493202	38.93	14.915	-2.6559999
176	1	1	-0.609837	39.379002	15.108	-3.8169999
177	1	5	0.32580301	38.236	15.812	-0.84799999
178	1	6	0.057004001	38.384998	18.07	-1.437
179	1	6	0.057004001	38.497002	17.596001	-3.168
180	1	7	0.088270999	40.942001	17.066	-2.848
181	1	7	0.088270999	40.796001	17.493999	-1.102
182	1	7	0.087063	40.201	19.849001	-1.705
183	1	7	0.087063	40.202999	19.417	-3.448
184	1	7	0.087063	42.271	20.527	-3.0239999
185	1	7	0.087063	42.66	18.792999	-3.266
186	1	7	0.088270999	42.344002	20.197001	-0.51899999
187	1	7	0.088270999	42.858002	18.490999	-0.76300001
188	1	6	0.057004001	44.741001	20.122999	-0.292
189	1	6	0.057004001	44.382999	20.948999	-1.85
190	1	5	0.32580301	44.764	18.077999	-2.3239999
191	1	8	-0.496889	50.113998	13.967	-4.7010002
192	1	4	0.10487	49.393002	14.988	-4.066
193	1	4	0.078043997	50.307999	16.176001	-3.766
194	1	8	-0.48773801	49.589001	17.184	-3.0799999
195	1	4	0.078043997	49.148998	18.18	-3.9809999
196	1	4	0.104871	48.254002	19.167999	-3.2449999
197	1	8	-0.496889	47.118	18.507999	-2.7590001
198	1	6	0.091054	48.819	19.621	-2.4000001
199	1	6	0.091054	47.948002	19.975	-3.947
200	1	6	0.083247997	50.021999	18.738001	-4.3899999
201	1	6	0.083247997	48.569	17.738001	-4.823
202	1	6	0.083247997	51.125	15.829	-3.099
203	1	6	0.083247997	50.797001	16.531	-4.7049999
204	1	6	0.091054	48.932999	14.611	-3.1240001
205	1	6	0.091054	48.573002	15.312	-4.7410002
206	1	1	-0.609837	60.344002	11.943	-3.3640001
207	1	2	0.78493202	59.394001	12.755	-3.5250001
208	1	3	-0.46589199	58.041	12.297	-3.585
209	1	4	0.025178	57.707001	10.877	-3.4719999
210	1	4	-0.144425	56.189999	10.647	-3.516
211	1	4	-0.142309	55.494999	11.164	-2.2449999
212	1	4	-0.142309	53.999001	10.814	-2.2060001
213	1	4	-0.144425	53.175999	11.624	-3.2190001
214	1	4	0.025178	51.678001	11.346	-3.056
215	1	3	-0.46589199	50.909	12.084	-4.0560002
216	1	2	0.78493202	50.667999	13.492	-3.964
217	1	1	-0.609837	51.112	14.163	-2.9949999
218	1	5	0.32580301	50.466	11.556	-4.8410001
219	1	6	0.057004001	51.493	10.258	-3.1900001
220	1	6	0.057004001	51.337002	11.629	-2.036
221	1	7	0.088270999	53.369999	12.708	-3.0699999
222	1	7	0.088270999	53.474998	11.351	-4.2529998
223	1	7	0.087063	53.862	9.7259998	-2.3900001
224	1	7	0.087063	53.623001	11.033	-1.183
225	1	7	0.087063	55.978001	10.698	-1.358
226	1	7	0.087063	55.622002	12.265	-2.155
227	1	7	0.088270999	56.006001	9.5550003	-3.6129999
228	1	7	0.088270999	55.776001	11.146	-4.4180002
229	1	6	0.057004001	58.174999	10.329	-4.3189998
230	1	6	0.057004001	58.123001	10.467	-2.526
231	1	5	0.32580301	57.291	13.01	-3.7309999
232	1	8	-0.496889	60.424999	19.309999	-5.02
233	1	4	0.10487	60.202999	17.934999	-4.8579998
234	1	4	0.078043997	61.532001	17.202999	-4.6599998
235	1	8	-0.48773801	61.308998	15.81	-4.5479999
236	1	4	0.078043997	61.276001	15.421	-3.1900001
237	1	4	0.104871	60.884998	13.952	-3.0940001
238	1	8	-0.496889	59.598999	13.768	-3.6159999
239	1	6	0.091054	61.618	13.336	-3.6630001
240	1	6	0.091054	60.904999	13.639	-2.026
241	1	6	0.083247997	62.283001	15.544	-2.7320001
242	1	6	0.083247997	60.535	16.021	-2.6129999
243	1	6	0.083247997	62.162998	17.374001	-5.5570002
244	1	6	0.083247997	62.085999	17.641001	-3.796
245	1	6	0.091054	59.667	17.521	-5.7420001
246	1	6	0.091054	59.558998	17.785	-3.967
247	1	1	-0.609837	69.003998	23.681999	-9.2419996
248	1	2	0.78493202	68.458	22.832001	-8.4890003
249	1	3	-0.46589199	67.033997	22.728001	-8.4110003
250	1	4	0.025178	66.158997	23.605	-9.1890001
251	1	4	-0.144425	64.678001	23.264999	-8.9709997
252	1	4	-0.142309	64.301003	21.915001	-9.6059999
253	1	4	-0.142309	62.793999	21.625999	-9.5240002
254	1	4	-0.144425	62.331001	21.302999	-8.0950003
255	1	4	0.025178	60.855999	20.888	-8.0769997
256	1	3	-0.46589199	60.414001	20.631001	-6.7080002
257	1	2	0.78493202	60.765999	19.444	-5.9899998
258	1	1	-0.609837	61.480999	18.552999	-6.5219998
259	1	5	0.32580301	59.764999	21.311001	-6.2519999
260	1	6	0.057004001	60.242001	21.709	-8.5059996
261	1	6	0.057004001	60.698002	19.98	-8.6990004
262	1	7	0.088270999	62.952	20.479	-7.6830001
263	1	7	0.088270999	62.455002	22.195999	-7.447
264	1	7	0.087063	62.221001	22.492001	-9.9209995
265	1	7	0.087063	62.577	20.750999	-10.176
266	1	7	0.087063	64.586998	21.933001	-10.68
267	1	7	0.087063	64.865997	21.089001	-9.1230001
268	1	7	0.088270999	64.064003	24.068001	-9.4329996
269	1	7	0.088270999	64.467003	23.256001	-7.881
270	1	6	0.057004001	66.333	24.657	-8.875
271	1	6	0.057004001	66.408997	23.523001	-10.27
272	1	5	0.32580301	66.632004	22.014	-7.763
273	1	8	-0.496889	71.995003	19.153999	-3.9920001
274	1	4	0.10487	71.242996	20.009001	-4.809
275	1	4	0.078043997	72.167999	20.913	-5.6259999
276	1	8	-0.48773801	71.404999	21.809	-6.4120002
277	1	4	0.078043997	71.268997	21.32	-7.73
278	1	4	0.104871	70.320999	22.224001	-8.5089998
279	1	8	-0.496889	69.052002	22.201	-7.9180002
280	1	6	0.091054	70.720001	23.263	-8.5120001
281	1	6	0.091054	70.253998	21.861	-9.559
282	1	6	0.083247997	72.257004	21.326	-8.2449999
283	1	6	0.083247997	70.857002	20.285	-7.7389998
284	1	6	0.083247997	72.779999	21.514999	-4.9219999
285	1	6	0.083247997	72.885002	20.294001	-6.217
286	1	6	0.091054	70.552002	20.627001	-4.1919999
287	1	6	0.091054	70.627998	19.389999	-5.4949999
288	1	1	-0.609837	81.442001	21.313	0.086000003
289	1	2	0.78493202	80.628998	21.329	-0.87599999
290	1	3	-0.46589199	79.289001	20.858999	-0.70999998
291	1	4	0.025178	78.814003	20.334999	0.57200003
292	1	4	-0.144425	77.332001	19.941	0.50800002
293	1	4	-0.142309	76.417	21.172001	0.39199999
294	1	4	-0.142309	74.926003	20.809	0.472
295	1	4	-0.144425	74.427002	20.079	-0.78299999
296	1	4	0.025178	72.912003	19.856001	-0.72299999
297	1	3	-0.46589199	72.456001	19.118	-1.899
298	1	2	0.78493202	72.324997	19.723	-3.1900001
299	1	1	-0.609837	72.597	20.940001	-3.3659999
300	1	5	0.32580301	72.155998	18.124001	-1.785
301	1	6	0.057004001	72.667	19.268999	0.189
302	1	6	0.057004001	72.375999	20.829	-0.65899998
303	1	7	0.088270999	74.677002	20.681	-1.684
304	1	7	0.088270999	74.926003	19.091	-0.86900002
305	1	7	0.087063	74.737999	20.184999	1.374
306	1	7	0.087063	74.348999	21.753	0.59100002
307	1	7	0.087063	76.643997	21.867001	1.23
308	1	7	0.087063	76.616997	21.716	-0.55699998
309	1	7	0.088270999	77.078003	19.386	1.437
310	1	7	0.088270999	77.177002	19.257999	-0.35299999
311	1	6	0.057004001	79.411003	19.434	0.83499998
312	1	6	0.057004001	78.968002	21.094	1.369
313	1	5	0.32580301	78.656998	20.882999	-1.5420001
314	1	8	-0.14748199	82.542999	22.783001	-7.2379999
315	1	4	0.02861	82.170998	22.34	-5.9619999
316	1	4	0.078952	83.350998	22.455	-4.9949999
317	1	8	-0.49012199	82.986	21.961	-3.72
318	1	4	0.078166999	82.613998	23.021999	-2.8640001
319	1	4	0.104871	82.084	22.452999	-1.554
320	1	8	-0.496889	80.936996	21.687	-1.799
321	1	6	0.091054	82.869003	21.820999	-1.081
322	1	6	0.091054	81.835999	23.292	-0.86699998
323	1	6	0.083247997	83.499001	23.657	-2.635
324	1	6	0.083247997	81.818001	23.653	-3.322
325	1	6	0.084696002	84.181	21.825001	-5.3790002
326	1	6	0.084696002	83.733002	23.504	-4.9790001
327	1	6	0.088532999	81.813004	21.285999	-6.0040002
328	1	6	0.088532999	81.332001	22.971001	-5.6009998
329	1	1	-0.68599999	-5.77	1.549	-2.1619999
330	1	2	0.54304302	-4.6149998	1.998	-1.936
331	1	3	-0.52217901	-4.026	2.9749999	-2.799
332	1	4	0.030995	-4.7350001	3.4860001	-3.9719999
333	1	4	-0.14571001	-3.8829999	4.5229998	-4.7150002
334	1	4	-0.142125	-4.645	5.2210002	-5.8540001
335	1	4	-0.137922	-5.0100002	4.2800002	-7.0219998
336	1	4	-0.122112	-6.4879999	3.8599999	-6.9879999
337	1	4	0.18437301	-6.8109999	2.8859999	-8.1219997
338	1	3	-0.64280599	-8.2259998	2.5339999	-8.0780001
339	1	9	0.59333903	-8.6169996	1.332	-7.934
340	1	1	-0.46836299	-8.9969997	0.163	-7.7930002
341	1	6	0.031973001	-6.5939999	3.3659999	-9.1000004
342	1	6	0.031973001	-6.171	1.978	-8.0290003
343	1	7	0.081906997	-7.1279998	4.763	-7.092
344	1	7	0.081906997	-6.7280002	3.3759999	-6.0180001
345	1	7	0.085781999	-4.8249998	4.8150001	-7.9790001
346	1	7	0.085781999	-4.3559999	3.3800001	-7.02
347	1	7	0.087063	-3.9820001	6.0219998	-6.25
348	1	7	0.087063	-5.546	5.7319999	-5.4489999
349	1	7	0.088270999	-3.559	5.302	-3.9920001
350	1	7	0.088270999	-2.9679999	4.0349998	-5.1170001
351	1	6	0.053435002	-5.6890001	3.954	-3.645
352	1	6	0.053435002	-4.961	2.6359999	-4.6500001
353	1	5	0.31922001	-3.0639999	3.3139999	-2.5710001
354	1	8	-0.14748199	83.081001	22.054001	-7.6459999
355	1	4	0.02861	83.228996	21.066	-6.6630001
356	1	4	0.079076	81.940002	20.254999	-6.5279999
357	1	8	-0.48791701	82.075996	19.291	-5.5
358	1	4	0.051217001	82.417	18.032	-6.0419998
359	1	4	0.073430002	82.704002	17.055	-4.9089999
360	1	10	-0.68184799	83.801003	17.503	-4.1630001
361	1	11	0.38869199	83.936996	16.832001	-3.444
362	1	6	0.084841996	81.806999	16.973	-4.2540002
363	1	6	0.084841996	82.927002	16.052999	-5.3400002
364	1	6	0.085591003	81.568001	17.629999	-6.6409998
365	1	6	0.085591003	83.321999	18.099001	-6.6869998
366	1	6	0.084696002	81.119003	20.945	-6.2389998
367	1	6	0.084696002	81.653999	19.820999	-7.5159998
368	1	6	0.088532999	83.494003	21.528	-5.684
369	1	6	0.088532999	84.061996	20.395	-6.96

Bonds

1	1	1	2
2	2	2	3
3	3	2	33
4	4	3	4
5	5	3	26
6	6	4	5
7	7	4	24
8	7	4	25
9	6	5	6
10	7	5	22
11	7	5	23
12	6	6	7
13	7	6	20
14	7	6	21
15	6	7	8
16	7	7	18
17	7	7	19
18	6	8	9
19	7	8	16
20	7	8	17
21	4	9	10
22	7	9	14
23	7	9	15
24	2	10	11
25	5	10	13
26	1	11	12
27	8	11	330
28	9	27	28
29	3	27	52
30	6	28	29
31	7	28	40
32	7	28	41
33	9	29	30
34	7	29	38
35	7	29	39
36	9	30	31
37	6	31	32
38	7	31	36
39	7	31	37
40	9	32	33
41	7	32	34
42	7	32	35
43	1	42	43
44	2	43	44
45	3	43	74
46	4	44	45
47	5	44	67
48	6	45	46
49	7	45	65
50	7	45	66
51	6	46	47
52	7	46	63
53	7	46	64
54	6	47	48
55	7	47	61
56	7	47	62
57	6	48	49
58	7	48	59
59	7	48	60
60	6	49	50
61	7	49	57
62	7	49	58
63	4	50	51
64	7	50	55
65	7	50	56
66	2	51	52
67	5	51	54
68	1	52	53
69	9	68	69
70	3	68	93
71	6	69	70
72	7	69	81
73	7	69	82
74	9	70	71
75	7	70	79
76	7	70	80
77	9	71	72
78	6	72	73
79	7	72	77
80	7	72	78
81	9	73	74
82	7	73	75
83	7	73	76
84	1	83	84
85	2	84	85
86	3	84	115
87	4	85	86
88	5	85	108
89	6	86	87
90	7	86	106
91	7	86	107
92	6	87	88
93	7	87	104
94	7	87	105
95	6	88	89
96	7	88	102
97	7	88	103
98	6	89	90
99	7	89	100
100	7	89	101
101	6	90	91
102	7	90	98
103	7	90	99
104	4	91	92
105	7	91	96
106	7	91	97
107	2	92	93
108	5	92	95
109	1	93	94
110	9	109	110
111	3	109	134
112	6	110	111
113	7	110	122
114	7	110	123
115	9	111	112
116	7	111	120
117	7	111	121
118	9	112	113
119	6	113	114
120	7	113	118
121	7	113	119
122	9	114	115
123	7	114	116
124	7	114	117
125	1	124	125
126	2	125	126
127	3	125	156
128	4	126	127
129	5	126	149
130	6	127	128
131	7	127	147
132	7	127	148
133	6	128	129
134	7	128	145
135	7	128	146
136	6	129	130
137	7	129	143
138	7	129	144
139	6	130	131
140	7	130	141
141	7	130	142
142	6	131	132
143	7	131	139
144	7	131	140
145	4	132	133
146	7	132	137
147	7	132	138
148	2	133	134
149	5	133	136
150	1	134	135
151	9	150	151
152	3	150	175
153	6	151	152
154	7	151	163
155	7	151	164
156	9	152	153
157	7	152	161
158	7	152	162
159	9	153	154
160	6	154	155
161	7	154	159
162	7	154	160
163	9	155	156
164	7	155	157
165	7	155	158
166	1	165	166
167	2	166	167
168	3	166	197
169	4	167	168
170	5	167	190
171	6	168	169
172	7	168	188
173	7	168	189
174	6	169	170
175	7	169	186
176	7	169	187
177	6	170	171
178	7	170	184
179	7	170	185
180	6	171	172
181	7	171	182
182	7	171	183
183	6	172	173
184	7	172	180
185	7	172	181
186	4	173	174
187	7	173	178
188	7	173	179
189	2	174	175
190	5	174	177
191	1	175	176
192	9	191	192
193	3	191	216
194	6	192	193
195	7	192	204
196	7	192	205
197	9	193	194
198	7	193	202
199	7	193	203
200	9	194	195
201	6	195	196
202	7	195	200
203	7	195	201
204	9	196	197
205	7	196	198
206	7	196	199
207	1	206	207
208	2	207	208
209	3	207	238
210	4	208	209
211	5	208	231
212	6	209	210
213	7	209	229
214	7	209	230
215	6	210	211
216	7	210	227
217	7	210	228
218	6	211	212
219	7	211	225
220	7	211	226
221	6	212	213
222	7	212	223
223	7	212	224
224	6	213	214
225	7	213	221
226	7	213	222
227	4	214	215
228	7	214	219
229	7	214	220
230	2	215	216
231	5	215	218
232	1	216	217
233	9	232	233
234	3	232	257
235	6	233	234
236	7	233	245
237	7	233	246
238	9	234	235
239	7	234	243
240	7	234	244
241	9	235	236
242	6	236	237
243	7	236	241
244	7	236	242
245	9	237	238
246	7	237	239
247	7	237	240
248	1	247	248
249	2	248	249
250	3	248	279
251	4	249	250
252	5	249	272
253	6	250	251
254	7	250	270
255	7	250	271
256	6	251	252
257	7	251	268
258	7	251	269
259	6	252	253
260	7	252	266
261	7	252	267
262	6	253	254
263	7	253	264
264	7	253	265
265	6	254	255
266	7	254	262
267	7	254	263
268	4	255	256
269	7	255	260
270	7	255	261
271	2	256	257
272	5	256	259
273	1	257	258
274	9	273	274
275	3	273	298
276	6	274	275
277	7	274	286
278	7	274	287
279	9	275	276
280	7	275	284
281	7	275	285
282	9	276	277
283	6	277	278
284	7	277	282
285	7	277	283
286	9	278	279
287	7	278	280
288	7	278	281
289	1	288	289
290	2	289	290
291	3	289	320
292	4	290	291
293	5	290	313
294	6	291	292
295	7	291	311
296	7	291	312
297	6	292	293
298	7	292	309
299	7	292	310
300	6	293	294
301	7	293	307
302	7	293	308
303	6	294	295
304	7	294	305
305	7	294	306
306	6	295	296
307	7	295	303
308	7	295	304
309	4	296	297
310	7	296	301
311	7	296	302
312	2	297	298
313	5	297	300
314	1	298	299
315	9	314	315
316	10	314	354
317	6	315	316
318	7	315	327
319	7	315	328
320	9	316	317
321	7	316	325
322	7	316	326
323	9	317	318
324	6	318	319
325	7	318	323
326	7	318	324
327	9	319	320
328	7	319	321
329	7	319	322
330	1	329	330
331	2	330	331
332	4	331	332
333	5	331	353
334	6	332	333
335	7	332	351
336	7	332	352
337	6	333	334
338	7	333	349
339	7	333	350
340	6	334	335
341	7	334	347
342	7	334	348
343	6	335	336
344	7	335	345
345	7	335	346
346	6	336	337
347	7	336	343
348	7	336	344
349	11	337	338
350	7	337	341
351	7	337	342
352	12	338	339
353	1	339	340
354	9	354	355
355	6	355	356
356	7	355	368
357	7	355	369
358	9	356	357
359	7	356	366
360	7	356	367
361	9	357	358
362	6	358	359
363	7	358	364
364	7	358	365
365	13	359	360
366	7	359	362
367	7	359	363
368	14	360	361

Angles

1	6	86	87	105
2	6	316	315	328
3	6	253	252	267
4	6	338	337	342
5	6	292	293	307
6	6	278	277	282
7	6	28	29	30
8	6	355	356	357
9	6	294	295	296
10	7	96	91	97
11	6	171	172	180
12	6	74	73	75
13	6	249	250	251
14	5	69	68	93
15	5	234	235	236
16	6	85	86	106
17	1	133	134	135
18	7	286	274	287
19	6	354	355	368
20	7	245	233	246
21	6	49	50	56
22	7	243	234	244
23	7	221	213	222
24	3	84	85	86
25	6	49	48	60
26	6	4	5	23
27	6	169	170	185
28	6	293	292	310
29	7	57	49	58
30	7	325	316	326
31	7	323	318	324
32	6	3	4	24
33	6	49	48	59
34	7	147	127	148
35	6	113	114	115
36	6	291	292	310
37	6	90	91	96
38	6	213	212	223
39	7	34	32	35
40	6	316	315	327
41	6	133	132	137
42	1	124	125	126
43	6	7	8	9
44	6	236	237	239
45	4	250	249	272
46	6	251	250	270
47	7	137	132	138
48	7	20	6	21
49	6	27	28	41
50	7	188	168	189
51	6	293	294	305
52	1	85	84	115
53	6	336	337	341
54	6	250	251	268
55	6	112	113	119
56	6	154	155	157
57	6	253	254	262
58	6	336	335	345
59	6	152	151	163
60	7	223	212	224
61	6	151	152	153
62	6	357	356	367
63	7	100	89	101
64	6	297	296	302
65	6	173	172	180
66	6	236	237	238
67	6	169	170	171
68	6	279	278	281
69	6	51	50	55
70	6	194	195	196
71	6	71	72	73
72	7	307	293	308
73	4	175	174	177
74	7	36	31	37
75	5	152	153	154
76	4	9	10	13
77	6	28	29	38
78	6	74	73	76
79	7	347	334	348
80	6	274	275	285
81	6	110	111	121
82	6	44	45	65
83	6	252	251	268
84	7	264	253	265
85	6	338	337	341
86	6	334	333	350
87	1	329	330	331
88	6	112	113	118
89	1	165	166	167
90	6	332	333	349
91	7	98	90	99
92	6	292	291	312
93	6	337	336	344
94	2	27	52	53
95	7	351	332	352
96	6	32	31	37
97	6	113	114	116
98	6	194	193	202
99	6	209	210	211
100	4	127	126	149
101	7	143	129	144
102	6	212	211	225
103	6	232	233	234
104	9	338	339	340
105	6	46	47	62
106	7	280	278	281
107	6	292	293	308
108	6	297	296	301
109	7	270	250	271
110	7	309	292	310
111	6	27	28	29
112	6	30	29	38
113	6	236	237	240
114	7	122	110	123
115	2	109	134	135
116	1	126	125	156
117	7	40	28	41
118	6	156	155	157
119	6	70	69	82
120	6	332	333	334
121	6	335	336	344
122	6	71	72	77
123	6	71	70	79
124	5	70	71	72
125	4	132	133	136
126	7	301	296	302
127	6	8	9	14
128	6	30	31	37
129	6	296	295	303
130	6	195	196	199
131	1	150	175	174
132	6	294	295	303
133	6	114	113	118
134	7	362	359	363
135	6	295	296	297
136	6	109	110	123
137	7	18	7	19
138	6	30	29	39
139	6	319	318	324
140	1	10	11	12
141	6	196	195	201
142	7	182	171	183
143	7	202	193	203
144	2	124	125	156
145	6	235	236	242
146	6	293	294	306
147	6	315	316	317
148	6	150	151	163
149	6	129	128	145
150	6	212	213	221
151	6	253	254	255
152	1	249	248	279
153	5	28	27	52
154	6	232	233	245
155	6	193	192	204
156	6	212	211	226
157	4	2	3	26
158	6	254	255	261
159	6	317	318	319
160	6	192	193	194
161	7	225	211	226
162	6	290	291	292
163	6	73	72	77
164	6	7	6	21
165	6	128	129	143
166	7	219	214	220
167	4	93	92	95
168	6	132	131	140
169	6	254	253	265
170	1	290	289	320
171	6	356	355	369
172	6	168	169	170
173	6	254	255	256
174	6	250	251	269
175	6	129	130	131
176	6	130	131	139
177	6	237	236	242
178	6	249	250	271
179	6	335	336	337
180	7	345	335	346
181	6	51	50	56
182	3	330	331	332
183	6	8	9	15
184	6	131	130	141
185	6	48	49	57
186	6	29	28	40
187	6	335	334	347
188	7	145	128	146
189	2	191	216	217
190	4	91	92	95
191	6	170	171	182
192	5	193	194	195
193	6	87	86	107
194	2	247	248	279
195	6	68	69	81
196	6	153	154	159
197	6	336	337	342
198	6	278	277	283
199	6	131	132	137
200	6	7	8	16
201	6	195	196	198
202	3	2	3	4
203	6	192	193	203
204	1	167	166	197
205	6	91	90	99
206	4	125	126	149
207	6	172	173	179
208	7	178	173	179
209	6	115	114	117
210	6	211	210	228
211	6	89	90	91
212	6	112	113	114
213	4	291	290	313
214	6	44	45	46
215	4	207	208	231
216	6	358	359	360
217	6	89	88	102
218	6	256	255	261
219	6	45	46	64
220	6	154	155	158
221	6	87	88	102
222	6	318	319	322
223	1	10	11	330
224	6	333	334	348
225	6	170	169	186
226	2	83	84	115
227	6	170	169	187
228	1	191	216	215
229	7	321	319	322
230	6	331	332	352
231	7	227	210	228
232	6	5	6	7
233	7	305	294	306
234	6	358	359	362
235	7	159	154	160
236	6	87	88	103
237	6	110	111	112
238	7	55	50	56
239	6	210	211	225
240	5	192	191	216
241	6	153	154	155
242	6	6	5	23
243	6	210	209	230
244	5	125	156	155
245	6	90	91	97
246	6	133	132	138
247	7	260	255	261
248	6	255	254	263
249	6	48	49	50
250	6	153	154	160
251	6	235	234	243
252	6	277	278	281
253	6	109	110	111
254	4	134	133	136
255	6	72	73	75
256	7	106	86	107
257	6	168	169	186
258	6	360	359	362
259	6	71	72	78
260	6	233	234	243
261	6	112	111	121
262	1	174	175	176
263	6	234	233	245
264	6	356	355	368
265	6	213	214	220
266	6	156	155	158
267	6	50	49	58
268	7	61	47	62
269	6	213	214	219
270	6	45	46	63
271	1	256	257	258
272	4	332	331	353
273	1	206	207	208
274	6	276	277	282
275	6	72	73	74
276	6	210	211	212
277	6	334	335	346
278	6	92	91	96
279	6	355	356	367
280	7	161	152	162
281	6	276	277	278
282	6	295	296	302
283	1	92	93	94
284	6	5	6	20
285	1	288	289	290
286	7	77	72	78
287	6	276	275	284
288	5	110	109	134
289	6	71	70	80
290	1	51	52	53
291	6	235	236	241
292	7	157	155	158
293	6	31	32	35
294	6	293	294	295
295	6	128	129	130
296	7	120	111	121
297	6	73	72	78
298	6	172	171	182
299	6	174	173	178
300	6	210	209	229
301	4	330	331	353
302	7	63	46	64
303	6	50	49	57
304	6	4	5	22
305	6	294	293	308
306	6	70	69	81
307	6	90	89	101
308	6	154	155	156
309	6	131	130	142
310	6	296	295	304
311	6	293	292	309
312	5	233	232	257
313	6	255	254	262
314	6	294	295	304
315	6	114	113	119
316	6	275	274	286
317	6	291	292	309
318	6	215	214	220
319	6	295	294	305
320	6	89	90	98