Title

585 atoms
593 bonds
1121 angles
2298 dihedrals
102 impropers

11 atom types
14 bond types
9 angle types
39 dihedral types
3 improper types
-8.258999825 91.74100018 xlo xhi
-12.97099972 87.02900028 ylo yhi
-63.9280014 36.0719986 zlo zhi
0.0 0.0 0.0 xy xz yz

Masses

1	15.99943
2	12.01078
3	14.00672
4	12.01078
5	1.007947
6	1.007947
7	1.007947
8	15.99943
9	12.01078
10	15.99943
11	1.007947


Pair Coeffs

1	0.2102061	3.0398122
2	0.086879315	3.4806469
3	0.16769152	3.206876
4	0.10884061	3.3795318
5	0.014090815	1.1034277
6	0.015779483	2.6445434
7	0.016409246	2.5832257
8	0.16846514	3.0251065
9	0.21	3.3996695
10	0.20947353	2.99716
11	1.2326e-05	0.53453923

Bond Coeffs

1 harmonic	582.698766451	1.225198386222
2 harmonic	492.76746816345	1.381897776683
3 harmonic	301.15400723785	1.345741232799
4 harmonic	352.0565580496	1.450098586273
5 harmonic	505.144496193	1.019481865027
6 harmonic	264.62148576755	1.52190126495
7 harmonic	370.04670688625	1.093899492634
8 harmonic	279.1350963404	1.454628925034
9 harmonic	366.7408841747	1.425895053732
10 harmonic	300.03137914615	1.451203938761
11 harmonic	366.34047229585	1.464762957261
12 harmonic	602.81384337	1.196112346392
13 harmonic	329.96998057905	1.427343958716
14 harmonic	543.5267831885	0.9716763312559


Angle Coeffs

1 harmonic	57.8982893754	126.8062420451
2 harmonic	201.41175231035	127.4691416191
3 harmonic	55.42182150775	117.3465570514
4 harmonic	63.44422595415	115.5071327674
5 harmonic	65.09061609600001	110.3538806181
6 harmonic	53.20531626545	116.5475862634
7 harmonic	48.776492647595	115.6030999533
8 harmonic	55.07882548015	112.8714009681
9 harmonic	33.56981613361	180


Dihedral Coeffs

1 fourier 1	1.809047390003	2	180
2 fourier 1	-0.04816277792592	1	0
3 fourier 1	0.4860993122944	2	180
4 fourier 1	0.8916986138746	1	0
5 fourier 1	1.163809172478	2	180
6 fourier 1	0.1679186987369	1	180
7 fourier 1	-0.1488678166443	4	180
8 fourier 1	-0.1230328948768	3	180
9 fourier 1	0.2939295466901	2	0
10 fourier 1	-0.3024127022865	1	0
11 fourier 1	0.182238503271	2	0
12 fourier 1	0.02972342374561	3	0
13 fourier 1	0.1918272375143	3	0
14 fourier 1	0.9202179876409	1	180
15 fourier 1	0.0473758381877	3	0
16 fourier 1	2.779853741805	2	180
17 fourier 1	0.1155372516788	3	0
18 fourier 1	0.09223874044423	3	0
19 fourier 1	0.3159935921949	2	180
20 fourier 1	0.3247796806857	1	180
21 fourier 1	0.1040663847541	3	0
22 fourier 1	3.101948770557	2	180
23 fourier 1	-0.4252153282372	1	0
24 fourier 1	0.9974165607242	2	180
25 fourier 1	2.348375642009	2	180
26 fourier 1	1.256156174911	1	0
27 fourier 1	0.1911926717192	3	0
28 fourier 1	-0.0309670556842	3	0
29 fourier 1	0.4598191477945	2	0
30 fourier 1	0.1115525666802	3	0
31 fourier 1	0.3432490222662	1	0
32 fourier 1	0.4552156463534	3	0
33 fourier 1	-0.03687743385131	2	180
34 fourier 1	0.457973137376	1	0
35 fourier 1	-1.382973039546	1	0
36 fourier 1	0	1	0
37 fourier 1	0.3445382149273	3	0
38 fourier 1	0.1364556373303	1	0
39 fourier 1	0.3026390167484	3	0


Improper Coeffs

1 3.5	-1	2
2 0.3333333333333333	-1	2
3 0.3666666666666667	-1	2


Atoms

1	1	1	-0.61098897	4.3569999	-0.79299998	2.1559999
2	1	2	0.783867	4.2280002	-1.342	1.029
3	1	3	-0.44053	3.3629999	-0.78799999	0.032000002
4	1	4	-0.0041490002	2.552	0.41299999	0.24699999
5	1	4	-0.0080819996	1.054	0.071000002	0.51599997
6	1	4	-0.20644499	0.30000001	1.416	0.71100003
7	1	4	0.12591299	-1.234	1.276	0.70899999
8	1	3	-0.56840301	-1.855	2.598	0.86000001
9	1	2	0.55658799	-3.2219999	2.7650001	1.2539999
10	1	1	-0.68113601	-3.95	1.7690001	1.506
11	1	5	0.312168	-1.288	3.4630001	0.713
12	1	4	-0.21005	-1.705	0.63200003	-0.60600001
13	1	4	-0.028294999	-1.071	-0.75700003	-0.87099999
14	1	4	-0.211152	0.48199999	-0.69700003	-0.72000003
15	1	6	0.11296	0.89200002	-1.7309999	-0.74599999
16	1	6	0.11296	0.88200003	-0.19499999	-1.63
17	1	4	-0.17190599	-1.7	-1.836	0.045000002
18	1	6	0.075402997	-2.7620001	-2.01	-0.23100001
19	1	6	0.075402997	-1.707	-1.55	1.109
20	1	6	0.075402997	-1.159	-2.802	-0.056000002
21	1	4	-0.17190599	-1.395	-1.163	-2.3280001
22	1	6	0.075402997	-0.97899997	-0.42899999	-3.052
23	1	6	0.075402997	-0.963	-2.161	-2.562
24	1	6	0.075402997	-2.494	-1.212	-2.4920001
25	1	6	0.112775	-1.448	1.324	-1.4400001
26	1	6	0.112775	-2.813	0.537	-0.597
27	1	7	0.043697	-1.543	0.65600002	1.574
28	1	6	0.111233	0.58200002	2.118	-0.106
29	1	6	0.111233	0.61799997	1.888	1.668
30	1	4	-0.17014299	0.98699999	-0.77999997	1.8099999
31	1	6	0.072342001	1.6210001	-0.329	2.6040001
32	1	6	0.072342001	-0.026000001	-0.83999997	2.2390001
33	1	6	0.072342001	1.349	-1.813	1.625
34	1	7	0.074144997	2.641	1.056	-0.65600002
35	1	7	0.074144997	2.967	1.013	1.087
36	1	5	0.323901	3.2920001	-1.285	-0.884
37	1	8	-0.49813101	8.4829998	1.265	-2.381
38	1	4	0.108239	8.0279999	1.0930001	-3.6960001
39	1	4	0.078116	8.7740002	-0.050999999	-4.381
40	1	8	-0.487939	8.5710001	-1.245	-3.6570001
41	1	4	0.058713	9.2259998	-2.3110001	-4.3150001
42	1	4	0.058970001	9.0120001	-3.602	-3.5309999
43	1	8	-0.48804799	7.6269999	-3.858	-3.421
44	1	4	0.058970001	7.3969998	-5.0469999	-2.6819999
45	1	4	0.058713	7.303	-4.757	-1.176
46	1	8	-0.487939	6.5760002	-3.569	-0.91900003
47	1	4	0.078116	5.1859999	-3.8310001	-0.88700002
48	1	4	0.104817	4.447	-2.5539999	-0.50099999
49	1	8	-0.49712399	4.7600002	-2.21	0.82300001
50	1	7	0.090916999	3.3499999	-2.7290001	-0.59299999
51	1	7	0.090916999	4.7410002	-1.73	-1.188
52	1	7	0.083113998	4.8249998	-4.1500001	-1.893
53	1	7	0.083113998	4.9349999	-4.618	-0.132
54	1	7	0.084388003	8.3290005	-4.6149998	-0.77899998
55	1	7	0.084388003	6.8940001	-5.6459999	-0.63700002
56	1	7	0.084388003	6.4330001	-5.4790001	-3.0239999
57	1	7	0.084388003	8.1630001	-5.842	-2.8729999
58	1	7	0.084388003	9.4770002	-3.484	-2.527
59	1	7	0.084388003	9.5240002	-4.4289999	-4.079
60	1	7	0.084388003	8.8210001	-2.4549999	-5.3439999
61	1	7	0.084388003	10.324	-2.1199999	-4.3759999
62	1	7	0.083113998	9.8559999	0.20200001	-4.4299998
63	1	7	0.083113998	8.3739996	-0.145	-5.4180002
64	1	7	0.090916999	6.9419999	0.85600001	-3.6730001
65	1	7	0.090916999	8.158	2.0339999	-4.2800002
66	1	1	-0.61098897	12.165	9.1129999	-5.461
67	1	2	0.783867	13.072	8.5080004	-6.092
68	1	3	-0.44053	12.925	7.132	-6.4590001
69	1	4	-0.0041490002	11.751	6.3270001	-6.1100001
70	1	4	-0.0080819996	12.03	5.368	-4.9109998
71	1	4	-0.20533299	10.727	4.5640001	-4.6469998
72	1	4	0.127827	10.912	3.3770001	-3.6830001
73	1	3	-0.51780897	9.6409998	2.6589999	-3.527
74	1	2	0.80608398	9.3950005	1.756	-2.444
75	1	1	-0.60765702	10.268	1.553	-1.558
76	1	5	0.31524399	8.8599997	2.8239999	-4.2020001
77	1	4	-0.20894299	11.984	2.4170001	-4.223
78	1	4	-0.028294999	13.357	3.098	-4.4549999
79	1	4	-0.211152	13.197	4.401	-5.2989998
80	1	6	0.11296	14.161	4.9549999	-5.3060002
81	1	6	0.11296	13.024	4.0910001	-6.355
82	1	4	-0.17190599	14.077	3.365	-3.1099999
83	1	6	0.075402997	14.371	2.408	-2.628
84	1	6	0.075402997	13.442	3.8889999	-2.3770001
85	1	6	0.075402997	14.999	3.964	-3.2690001
86	1	4	-0.17190599	14.251	2.118	-5.2529998
87	1	6	0.075402997	13.797	1.8710001	-6.2360001
88	1	6	0.075402997	15.253	2.5639999	-5.4380002
89	1	6	0.075402997	14.391	1.165	-4.697
90	1	6	0.112775	11.613	1.9910001	-5.1830001
91	1	6	0.112775	12.109	1.564	-3.52
92	1	7	0.045818999	11.207	3.7620001	-2.6860001
93	1	6	0.111233	10.34	4.165	-5.612
94	1	6	0.111233	9.9449997	5.2420001	-4.2399998
95	1	4	-0.17014299	12.386	6.2410002	-3.6800001
96	1	6	0.072342001	11.668	7.0840001	-3.5810001
97	1	6	0.072342001	12.331	5.691	-2.727
98	1	6	0.072342001	13.407	6.6669998	-3.776
99	1	7	0.074144997	11.455	5.7399998	-7.007
100	1	7	0.074144997	10.885	6.987	-5.881
101	1	5	0.323901	13.708	6.678	-6.98
102	1	8	-0.49813101	11.653	9.3610001	-11.906
103	1	4	0.108239	12.282	8.3030005	-12.576
104	1	4	0.078116	13.566	8.7790003	-13.254
105	1	8	-0.487939	14.444	9.3050003	-12.282
106	1	4	0.058713	15.648	9.7049999	-12.905
107	1	4	0.058970001	16.597	10.279	-11.857
108	1	8	-0.48804799	16.847	9.3000002	-10.868
109	1	4	0.058970001	17.716	9.8109999	-9.8710003
110	1	4	0.058713	16.93	10.513	-8.7519999
111	1	8	-0.487939	15.751	9.802	-8.4200001
112	1	4	0.078116	16.034	8.7779999	-7.4850001
113	1	4	0.104817	14.728	8.1079998	-7.0689998
114	1	8	-0.49712399	13.939	9.0179996	-6.3509998
115	1	7	0.090916999	14.961	7.2270002	-6.4289999
116	1	7	0.090916999	14.18	7.763	-7.9749999
117	1	7	0.083113998	16.691	8.0010004	-7.9419999
118	1	7	0.083113998	16.521	9.1859999	-6.5640001
119	1	7	0.084388003	16.624001	11.517	-9.1120005
120	1	7	0.084388003	17.591999	10.699	-7.8730001
121	1	7	0.084388003	18.271999	8.9549999	-9.4320002
122	1	7	0.084388003	18.502001	10.499	-10.277
123	1	7	0.084388003	16.125	11.183	-11.413
124	1	7	0.084388003	17.544001	10.571	-12.37
125	1	7	0.084388003	16.15	8.8409996	-13.397
126	1	7	0.084388003	15.452	10.498	-13.666
127	1	7	0.083113998	13.308	9.5509996	-14.012
128	1	7	0.083113998	14.024	7.9029999	-13.768
129	1	7	0.090916999	12.533	7.5089998	-11.839
130	1	7	0.090916999	11.595	7.8579998	-13.333
131	1	1	-0.61098897	5.2220001	8.7150002	-18.452999
132	1	2	0.783867	5.9749999	9.2229996	-19.325001
133	1	3	-0.44053	7.3979998	9.224	-19.162001
134	1	4	-0.0041490002	8.0740004	8.677	-17.982
135	1	4	-0.0080819996	8.5509996	9.7959995	-17.004999
136	1	4	-0.20533299	9.2600002	9.0979996	-15.812
137	1	4	0.127827	10.035	10.064	-14.896
138	1	3	-0.51780897	10.699	9.3109999	-13.826
139	1	2	0.80608398	11.182	9.9350004	-12.631
140	1	1	-0.60765702	11.038	11.173	-12.443
141	1	5	0.31524399	10.803	8.2740002	-13.902
142	1	4	-0.20894299	11.086	10.838	-15.71
143	1	4	-0.028294999	10.479	11.638	-16.891001
144	1	4	-0.211152	9.5530005	10.731	-17.76
145	1	6	0.11296	9.0019999	11.363	-18.492001
146	1	6	0.11296	10.213	10.075	-18.372
147	1	4	-0.17190599	9.7410002	12.901	-16.382999
148	1	6	0.075402997	10.464	13.629	-15.956
149	1	6	0.075402997	9.0190001	12.685	-15.579
150	1	6	0.075402997	9.2019997	13.403	-17.215
151	1	4	-0.17190599	11.642	12.13	-17.785999
152	1	6	0.075402997	12.228	11.275	-18.188
153	1	6	0.075402997	11.253	12.716	-18.646999
154	1	6	0.075402997	12.34	12.776	-17.209999
155	1	6	0.112775	11.828	10.105	-16.1
156	1	6	0.112775	11.639	11.531	-15.04
157	1	7	0.045818999	9.3210001	10.767	-14.423
158	1	6	0.111233	9.9799995	8.3430004	-16.202
159	1	6	0.111233	8.5100002	8.5459995	-15.203
160	1	4	-0.17014299	7.296	10.564	-16.516001
161	1	6	0.072342001	6.4959998	9.8520002	-16.219999
162	1	6	0.072342001	7.4860001	11.184	-15.625
163	1	6	0.072342001	6.895	11.221	-17.316999
164	1	7	0.074144997	8.9429998	8.0760002	-18.329
165	1	7	0.074144997	7.4050002	7.9619999	-17.452
166	1	5	0.323901	7.9759998	9.6599998	-19.915001
167	1	8	-0.49813101	7.223	4.6360002	-23.056999
168	1	4	0.108239	8.4259996	5.0079999	-23.674999
169	1	4	0.078116	8.1680002	5.5339999	-25.086
170	1	8	-0.487939	7.3099999	6.6539998	-25.021
171	1	4	0.058713	7.1069999	7.1659999	-26.322001
172	1	4	0.058970001	6.1760001	8.3730001	-26.254
173	1	8	-0.48804799	6.7459998	9.3559999	-25.414
174	1	4	0.058970001	5.8940001	10.485	-25.32
175	1	4	0.058713	4.8769999	10.324	-24.177999
176	1	8	-0.487939	5.4699998	9.7419996	-23.032
177	1	4	0.078116	6.0999999	10.731	-22.24
178	1	4	0.104817	6.6300001	10.084	-20.964001
179	1	8	-0.49712399	5.5560002	9.6470003	-20.174999
180	1	7	0.090916999	7.2290001	10.835	-20.4
181	1	7	0.090916999	7.2839999	9.2229996	-21.226
182	1	7	0.083113998	6.9640002	11.178	-22.785999
183	1	7	0.083113998	5.3829999	11.538	-21.945999
184	1	7	0.084388003	4.0689998	9.6440001	-24.518999
185	1	7	0.084388003	4.3769999	11.299	-23.965
186	1	7	0.084388003	6.527	11.373	-25.110001
187	1	7	0.084388003	5.3610001	10.72	-26.277
188	1	7	0.084388003	5.191	8.0349998	-25.864
189	1	7	0.084388003	6.046	8.7679996	-27.290001
190	1	7	0.084388003	8.0710001	7.4920001	-26.778999
191	1	7	0.084388003	6.632	6.3979998	-26.978001
192	1	7	0.083113998	7.7129998	4.724	-25.695999
193	1	7	0.083113998	9.151	5.816	-25.528999
194	1	7	0.090916999	8.908	5.8070002	-23.070999
195	1	7	0.090916999	9.1269999	4.1420002	-23.716
196	1	1	-0.61098897	10.301	-3.9909999	-23.919001
197	1	2	0.783867	10.099	-4.0009999	-25.162001
198	1	3	-0.44053	9.9940004	-2.78	-25.903999
199	1	4	-0.0041490002	10.078	-1.454	-25.285999
200	1	4	-0.0080819996	8.6750002	-0.78899997	-25.125
201	1	4	-0.20533299	8.8959999	0.60699999	-24.479
202	1	4	0.127827	7.6479998	1.5089999	-24.504999
203	1	3	-0.51780897	7.9629998	2.8139999	-23.910999
204	1	2	0.80608398	6.9499998	3.721	-23.462999
205	1	1	-0.60765702	5.7290001	3.4219999	-23.549
206	1	5	0.31524399	8.9589996	3.0969999	-23.768
207	1	4	-0.20894299	7.1659999	1.705	-25.952999
208	1	4	-0.028294999	6.842	0.373	-26.677
209	1	4	-0.211152	8.0240002	-0.63700002	-26.539
210	1	6	0.11296	7.7010002	-1.633	-26.915001
211	1	6	0.11296	8.8269997	-0.30199999	-27.233
212	1	4	-0.17190599	5.507	-0.22400001	-26.167
213	1	6	0.075402997	4.652	0.419	-26.469
214	1	6	0.075402997	5.4580002	-0.296	-25.069
215	1	6	0.075402997	5.3410001	-1.2359999	-26.594
216	1	4	-0.17190599	6.6479998	0.67900002	-28.181999
217	1	6	0.075402997	7.5679998	1.12	-28.622999
218	1	6	0.075402997	6.4070001	-0.25	-28.742001
219	1	6	0.075402997	5.8200002	1.405	-28.336
220	1	6	0.112775	7.9619999	2.2479999	-26.51
221	1	6	0.112775	6.2659998	2.358	-25.959999
222	1	7	0.045818999	6.8499999	1.043	-23.893999
223	1	6	0.111233	9.7139997	1.136	-25.018
224	1	6	0.111233	9.2299995	0.48300001	-23.424999
225	1	4	-0.17014299	7.829	-1.691	-24.190001
226	1	6	0.072342001	8.4230003	-1.993	-23.299999
227	1	6	0.072342001	6.9349999	-1.186	-23.791
228	1	6	0.072342001	7.5029998	-2.6129999	-24.716
229	1	7	0.074144997	10.731	-0.81699997	-25.923
230	1	7	0.074144997	10.589	-1.5190001	-24.299999
231	1	5	0.323901	9.8240004	-2.846	-26.931999
232	1	8	-0.49813101	15.645	-4.0279999	-27.566
233	1	4	0.108239	15.467	-3.507	-28.855
234	1	4	0.078116	15.467	-4.6269999	-29.895
235	1	8	-0.487939	14.424	-5.5339999	-29.608999
236	1	4	0.058713	14.398	-6.5450001	-30.596001
237	1	4	0.058970001	13.274	-7.5289998	-30.285999
238	1	8	-0.48804799	12.042	-6.836	-30.249001
239	1	4	0.058970001	10.98	-7.7249999	-29.947001
240	1	4	0.058713	10.774	-7.8540001	-28.429001
241	1	8	-0.487939	10.905	-6.6030002	-27.778999
242	1	4	0.078116	9.6829996	-5.8909998	-27.816
243	1	4	0.104817	9.8330002	-4.6030002	-27.013
244	1	8	-0.49712399	10.008	-4.9099998	-25.655001
245	1	7	0.090916999	8.9130001	-3.987	-27.142
246	1	7	0.090916999	10.709	-4.0279999	-27.388
247	1	7	0.083113998	9.4209995	-5.6160002	-28.865
248	1	7	0.083113998	8.8479996	-6.4840002	-27.364
249	1	7	0.084388003	11.557	-8.5270004	-28.023001
250	1	7	0.084388003	9.802	-8.3599997	-28.214001
251	1	7	0.084388003	10.053	-7.3130002	-30.399
252	1	7	0.084388003	11.107	-8.7399998	-30.405001
253	1	7	0.084388003	13.49	-8.0129995	-29.308001
254	1	7	0.084388003	13.264	-8.3059998	-31.087999
255	1	7	0.084388003	14.216	-6.1129999	-31.607
256	1	7	0.084388003	15.36	-7.1100001	-30.606001
257	1	7	0.083113998	16.452999	-5.1399999	-29.872999
258	1	7	0.083113998	15.321	-4.1599998	-30.896999
259	1	7	0.090916999	14.493	-2.9719999	-28.896
260	1	7	0.090916999	16.27	-2.77	-29.091999
261	1	1	-0.61098897	23.931	-0.044	-27.893
262	1	2	0.783867	24.375	-0.89899999	-28.704
263	1	3	-0.44053	23.488001	-1.6849999	-29.507999
264	1	4	-0.0041490002	22.028	-1.5829999	-29.431
265	1	4	-0.0080819996	21.396999	-2.7620001	-28.627001
266	1	4	-0.20533299	19.858	-2.552	-28.629
267	1	4	0.127827	19.062	-3.7690001	-28.120001
268	1	3	-0.51780897	17.622999	-3.4920001	-28.195999
269	1	2	0.80608398	16.653	-4.2579999	-27.473
270	1	1	-0.60765702	17.004	-5.2049999	-26.719999
271	1	5	0.31524399	17.274	-2.687	-28.764
272	1	4	-0.20894299	19.393	-5.0100002	-28.966999
273	1	4	-0.028294999	20.903	-5.3610001	-28.978001
274	1	4	-0.211152	21.763	-4.1079998	-29.334
275	1	6	0.11296	22.837999	-4.342	-29.17
276	1	6	0.11296	21.66	-3.938	-30.43
277	1	4	-0.17190599	21.333	-5.994	-27.632
278	1	6	0.075402997	20.864	-6.993	-27.503
279	1	6	0.075402997	21.025	-5.401	-26.756001
280	1	6	0.075402997	22.436001	-6.1279998	-27.594999
281	1	4	-0.17190599	21.139999	-6.4310002	-30.070999
282	1	6	0.075402997	20.847	-6.0510001	-31.073999
283	1	6	0.075402997	22.212999	-6.7179999	-30.111
284	1	6	0.075402997	20.540001	-7.3449998	-29.868
285	1	6	0.112775	19.048	-4.8179998	-30.007999
286	1	6	0.112775	18.813	-5.882	-28.591999
287	1	7	0.045818999	19.316999	-3.951	-27.056999
288	1	6	0.111233	19.518	-2.329	-29.666
289	1	6	0.111233	19.6	-1.666	-28.006001
290	1	4	-0.17014299	21.951	-2.697	-27.18
291	1	6	0.072342001	21.908001	-1.656	-26.794001
292	1	6	0.072342001	21.370001	-3.303	-26.466
293	1	6	0.072342001	23.007999	-3.036	-27.143999
294	1	7	0.074144997	21.627001	-1.571	-30.469
295	1	7	0.074144997	21.733	-0.60900003	-28.982
296	1	5	0.323901	23.909	-2.382	-30.163
297	1	8	-0.49813101	25.037001	2.1619999	-33.874001
298	1	4	0.108239	24.997999	1.175	-34.868999
299	1	4	0.078116	26.406	0.85500002	-35.368
300	1	8	-0.487939	27.195	0.39899999	-34.289001
301	1	4	0.058713	28.483999	0.061999999	-34.759998
302	1	4	0.058970001	29.339001	-0.426	-33.594002
303	1	8	-0.48804799	28.718	-1.545	-32.993999
304	1	4	0.058970001	29.485001	-2.0109999	-31.896
305	1	4	0.058713	29.091	-1.293	-30.594999
306	1	8	-0.487939	27.688999	-1.117	-30.503
307	1	4	0.078116	27.075001	-2.2750001	-29.969999
308	1	4	0.104817	25.584999	-2.0079999	-29.783001
309	1	8	-0.49712399	25.4	-1.035	-28.789
310	1	7	0.090916999	25.083	-2.9549999	-29.478001
311	1	7	0.090916999	25.145	-1.6569999	-30.743
312	1	7	0.083113998	27.187	-3.135	-30.671
313	1	7	0.083113998	27.504999	-2.5450001	-28.972
314	1	7	0.084388003	29.556	-0.285	-30.594
315	1	7	0.084388003	29.525	-1.824	-29.715
316	1	7	0.084388003	29.285	-3.0969999	-31.778
317	1	7	0.084388003	30.59	-1.928	-32.060001
318	1	7	0.084388003	29.450001	0.40799999	-32.866001
319	1	7	0.084388003	30.344999	-0.70099998	-33.993999
320	1	7	0.084388003	28.431999	-0.75099999	-35.52
321	1	7	0.084388003	28.985001	0.95300001	-35.208
322	1	7	0.083113998	26.846001	1.771	-35.819
323	1	7	0.083113998	26.318001	0.067000002	-36.152
324	1	7	0.090916999	24.544001	0.25299999	-34.444
325	1	7	0.090916999	24.360001	1.507	-35.721001
326	1	1	-0.61098897	21.127001	7.6220002	-40.161999
327	1	2	0.783867	22.194	7.7199998	-40.824001
328	1	3	-0.44053	23.238001	6.7490001	-40.692001
329	1	4	-0.0041490002	23.166	5.6090002	-39.773998
330	1	4	-0.0080819996	24.017	5.836	-38.486
331	1	4	-0.20533299	23.874001	4.5640001	-37.605999
332	1	4	0.127827	24.868	4.5029998	-36.431
333	1	3	-0.51780897	24.683001	3.253	-35.685001
334	1	2	0.80608398	25.187	3.0680001	-34.356998
335	1	1	-0.60765702	25.804001	3.9909999	-33.763
336	1	5	0.31524399	24.135	2.4690001	-36.105
337	1	4	-0.20894299	26.312	4.5819998	-36.955002
338	1	4	-0.028294999	26.594	5.8569999	-37.790001
339	1	4	-0.211152	25.511	6.046	-38.898998
340	1	6	0.11296	25.636999	7.046	-39.368
341	1	6	0.11296	25.732	5.3099999	-39.705002
342	1	4	-0.17190599	26.709999	7.1020002	-36.876999
343	1	6	0.075402997	27.618999	7.0359998	-36.242001
344	1	6	0.075402997	25.863001	7.2090001	-36.181
345	1	6	0.075402997	26.785999	8.0299997	-37.485001
346	1	4	-0.17190599	27.965	5.6830001	-38.486
347	1	6	0.075402997	27.964001	4.7989998	-39.159
348	1	6	0.075402997	28.212	6.5799999	-39.094002
349	1	6	0.075402997	28.774	5.5349998	-37.737
350	1	6	0.112775	26.502001	3.6789999	-37.577999
351	1	6	0.112775	27.021	4.5370002	-36.098999
352	1	7	0.045818999	24.664	5.3449998	-35.738998
353	1	6	0.111233	24.033001	3.6600001	-38.237
354	1	6	0.111233	22.837	4.5009999	-37.206001
355	1	4	-0.17014299	23.440001	7.072	-37.749001
356	1	6	0.072342001	22.332001	7.0100002	-37.696999
357	1	6	0.072342001	23.782	7.1539998	-36.705002
358	1	6	0.072342001	23.709	8.0109997	-38.277
359	1	7	0.074144997	23.525	4.7069998	-40.314999
360	1	7	0.074144997	22.107	5.3979998	-39.502998
361	1	5	0.323901	24.103001	6.8800001	-41.264
362	1	8	-0.49813101	21.077	4.6279998	-45.896
363	1	4	0.108239	22.347	4.27	-46.372002
364	1	4	0.078116	22.771	5.184	-47.521
365	1	8	-0.487939	22.799999	6.5219998	-47.070999
366	1	4	0.058713	23.233999	7.3600001	-48.123001
367	1	4	0.058970001	23.261	8.8079996	-47.640999
368	1	8	-0.48804799	24.125999	8.9130001	-46.528
369	1	4	0.058970001	24.16	10.247	-46.048
370	1	4	0.058713	23.052	10.496	-45.012001
371	1	8	-0.487939	22.903	9.3929996	-44.136002
372	1	4	0.078116	23.827	9.4770002	-43.068001
373	1	4	0.104817	23.563999	8.3360004	-42.09
374	1	8	-0.49712399	22.315001	8.5179996	-41.477001
375	1	7	0.090916999	24.364	8.3299999	-41.316002
376	1	7	0.090916999	23.58	7.3649998	-42.634998
377	1	7	0.083113998	24.872	9.375	-43.445
378	1	7	0.083113998	23.723	10.441	-42.508999
379	1	7	0.084388003	22.09	10.63	-45.549
380	1	7	0.084388003	23.233	11.459	-44.477001
381	1	7	0.084388003	25.145	10.41	-45.563
382	1	7	0.084388003	24.101	11.013	-46.863998
383	1	7	0.084388003	22.225	9.1079998	-47.370998
384	1	7	0.084388003	23.622999	9.4460001	-48.481998
385	1	7	0.084388003	24.26	7.0830002	-48.458
386	1	7	0.084388003	22.535	7.2969999	-48.991001
387	1	7	0.083113998	22.051001	5.0650001	-48.360001
388	1	7	0.083113998	23.782	4.8579998	-47.858002
389	1	7	0.090916999	23.080999	4.3639998	-45.542
390	1	7	0.090916999	22.35	3.2079999	-46.710999
391	1	1	-0.61098897	18.25	-3.2839999	-49.644001
392	1	2	0.783867	18.35	-2.832	-50.814999
393	1	3	-0.44053	19.179001	-1.702	-51.104
394	1	4	-0.0041490002	19.936001	-0.97600001	-50.078999
395	1	4	-0.0080819996	19.250999	0.36899999	-49.682999
396	1	4	-0.20533299	20.146999	1.0470001	-48.611
397	1	4	0.127827	19.764999	2.51	-48.313999
398	1	3	-0.51780897	20.688	3.075	-47.321999
399	1	2	0.80608398	20.388	4.263	-46.581001
400	1	1	-0.60765702	19.296	4.8699999	-46.743
401	1	5	0.31524399	21.587999	2.5880001	-47.106998
402	1	4	-0.20894299	19.822001	3.3440001	-49.605
403	1	4	-0.028294999	18.903	2.8	-50.729
404	1	4	-0.211152	19.145	1.274	-50.953999
405	1	6	0.11296	18.363001	0.87699997	-51.638
406	1	6	0.11296	20.105	1.17	-51.508999
407	1	4	-0.17190599	17.417	3.112	-50.428001
408	1	6	0.075402997	17.23	4.2059999	-50.485001
409	1	6	0.075402997	17.107	2.8050001	-49.417
410	1	6	0.075402997	16.753	2.6140001	-51.167
411	1	4	-0.17190599	19.259001	3.54	-52.041
412	1	6	0.075402997	20.320999	3.368	-52.323002
413	1	6	0.075402997	18.618	3.184	-52.876999
414	1	6	0.075402997	19.113001	4.6360002	-51.93
415	1	6	0.112775	20.878	3.3570001	-49.960999
416	1	6	0.112775	19.546	4.3979998	-49.380001
417	1	7	0.045818999	18.745001	2.5380001	-47.882999
418	1	6	0.111233	21.207001	1.031	-48.952999
419	1	6	0.111233	20.104	0.46399999	-47.664001
420	1	4	-0.17014299	17.857	0.034000002	-49.091999
421	1	6	0.072342001	17.934999	-0.80199999	-48.363998
422	1	6	0.072342001	17.409	0.87199998	-48.534
423	1	6	0.072342001	17.148001	-0.26899999	-49.890999
424	1	7	0.074144997	20.957001	-0.78299999	-50.474998
425	1	7	0.074144997	20.077	-1.615	-49.179001
426	1	5	0.323901	19.224001	-1.3660001	-52.091999
427	1	8	-0.49813101	23.034	-5.8390002	-53.172001
428	1	4	0.108239	23.49	-5.013	-54.209999
429	1	4	0.078116	23.013	-5.5359998	-55.563999
430	1	8	-0.487939	21.601999	-5.5739999	-55.583
431	1	4	0.058713	21.162001	-6.0159998	-56.852001
432	1	4	0.058970001	19.636999	-6.0630002	-56.872002
433	1	8	-0.48804799	19.125999	-4.777	-56.585999
434	1	4	0.058970001	17.708	-4.7950001	-56.584
435	1	4	0.058713	17.156	-5.151	-55.195
436	1	8	-0.487939	17.893999	-4.5190001	-54.164001
437	1	4	0.078116	17.417	-3.2060001	-53.942001
438	1	4	0.104817	18.160999	-2.599	-52.757
439	1	8	-0.49712399	17.820999	-3.289	-51.583
440	1	7	0.090916999	17.872	-1.528	-52.658001
441	1	7	0.090916999	19.257999	-2.664	-52.931
442	1	7	0.083113998	17.607	-2.5639999	-54.834999
443	1	7	0.083113998	16.323999	-3.2019999	-53.702999
444	1	7	0.084388003	17.247999	-6.2470002	-55.049
445	1	7	0.084388003	16.062	-4.9330001	-55.146
446	1	7	0.084388003	17.355	-3.7780001	-56.858002
447	1	7	0.084388003	17.271999	-5.4790001	-57.356998
448	1	7	0.084388003	19.298	-6.8060002	-56.116001
449	1	7	0.084388003	19.315001	-6.3979998	-57.888
450	1	7	0.084388003	21.502001	-5.3239999	-57.657001
451	1	7	0.084388003	21.544001	-7.0430002	-57.064999
452	1	7	0.083113998	23.438	-6.5500002	-55.73
453	1	7	0.083113998	23.4	-4.8449998	-56.349998
454	1	7	0.090916999	23.091	-3.987	-54.055
455	1	7	0.090916999	24.603001	-4.9510002	-54.198002
456	1	1	-0.61098897	31.844	-8.3290005	-52.269001
457	1	2	0.783867	31.82	-9.0129995	-53.326
458	1	3	-0.44053	30.83	-8.7810001	-54.334
459	1	4	-0.0041490002	29.771	-7.776	-54.205002
460	1	4	-0.0080819996	28.396	-8.4139996	-53.833
461	1	4	-0.20533299	27.358999	-7.2600002	-53.742001
462	1	4	0.127827	25.898001	-7.7389998	-53.658001
463	1	3	-0.51780897	24.995001	-6.5830002	-53.615002
464	1	2	0.80608398	23.636	-6.684	-53.176998
465	1	1	-0.60765702	23.16	-7.7839999	-52.790001
466	1	5	0.31524399	25.347	-5.6339998	-53.875999
467	1	4	-0.20894299	25.556999	-8.6140003	-54.876999
468	1	4	-0.028294999	26.486	-9.8459997	-55.027
469	1	4	-0.211152	27.987	-9.4230003	-54.956001
470	1	6	0.11296	28.622	-10.334	-54.895
471	1	6	0.11296	28.242001	-8.9469995	-55.93
472	1	4	-0.17190599	26.141001	-10.931	-53.977001
473	1	6	0.075402997	25.139999	-11.368	-54.183998
474	1	6	0.075402997	26.091999	-10.538	-52.950001
475	1	6	0.075402997	26.885	-11.755	-54.004002
476	1	4	-0.17190599	26.231001	-10.473	-56.418999
477	1	6	0.075402997	26.452999	-9.7480001	-57.231998
478	1	6	0.075402997	26.874001	-11.367	-56.569
479	1	6	0.075402997	25.169001	-10.785	-56.525002
480	1	6	0.112775	25.632	-7.9790001	-55.787998
481	1	6	0.112775	24.500999	-8.9540005	-54.806999
482	1	7	0.045818999	25.757999	-8.3140001	-52.721001
483	1	6	0.111233	27.455999	-6.6069999	-54.639
484	1	6	0.111233	27.583	-6.6259999	-52.855
485	1	4	-0.17014299	28.554001	-9.1099997	-52.457001
486	1	6	0.072342001	29.084999	-8.4440002	-51.743999
487	1	6	0.072342001	27.591	-9.349	-51.978001
488	1	6	0.072342001	29.138	-10.05	-52.551998
489	1	7	0.074144997	29.690001	-7.2340002	-55.173
490	1	7	0.074144997	30.056	-7.0089998	-53.451
491	1	5	0.323901	30.853001	-9.3789997	-55.189999
492	1	8	-0.14770199	35.291	-5.9099998	-57.181
493	1	4	0.028554	34.858002	-6.3239999	-58.449001
494	1	4	0.079025	35.830002	-7.3400002	-59.047001
495	1	8	-0.490134	35.921001	-8.4619999	-58.195
496	1	4	0.058970001	36.786999	-9.4189997	-58.771
497	1	4	0.058970001	36.890999	-10.63	-57.848999
498	1	8	-0.48804799	35.603001	-11.178	-57.648998
499	1	4	0.058970001	35.667999	-12.298	-56.782001
500	1	4	0.058713	35.542999	-11.873	-55.310001
501	1	8	-0.487939	34.57	-10.857	-55.143002
502	1	4	0.078116	33.278	-11.42	-55.02
503	1	4	0.104817	32.276001	-10.307	-54.731998
504	1	8	-0.49712399	32.530998	-9.757	-53.466999
505	1	7	0.090916999	31.246	-10.732	-54.755001
506	1	7	0.090916999	32.359001	-9.5179996	-55.513
507	1	7	0.083113998	32.976002	-11.921	-55.970001
508	1	7	0.083113998	33.229	-12.155	-54.176998
509	1	7	0.084388003	36.518002	-11.461	-54.978001
510	1	7	0.084388003	35.359001	-12.765	-54.665001
511	1	7	0.084388003	34.82	-12.971	-57.032001
512	1	7	0.084388003	36.59	-12.917	-56.925999
513	1	7	0.084388003	37.339001	-10.302	-56.884998
514	1	7	0.084388003	37.566002	-11.377	-58.332001
515	1	7	0.084388003	36.403	-9.7629995	-59.758999
516	1	7	0.084388003	37.812	-8.9949999	-58.902
517	1	7	0.084559999	36.824001	-6.8579998	-59.172001
518	1	7	0.084559999	35.439999	-7.6360002	-60.048
519	1	7	0.088395998	33.855	-6.7950001	-58.351002
520	1	7	0.088395998	34.757	-5.448	-59.131001
521	1	1	-0.68113703	-4.8800001	3.905	1.466
522	1	2	0.55658799	-3.635	3.7609999	1.3430001
523	1	3	-0.56840301	-2.76	4.895	1.325
524	1	4	0.125662	-3.2539999	6.2729998	1.426
525	1	4	-0.21005	-2.1059999	7.224	1.798
526	1	4	-0.028829001	-2.6170001	8.6639996	2.096
527	1	4	-0.17190599	-1.485	9.6820002	1.822
528	1	6	0.075402997	-1.809	10.711	2.089
529	1	6	0.075402997	-1.181	9.6890001	0.759
530	1	6	0.075402997	-0.58700001	9.4359999	2.4289999
531	1	4	-0.17190599	-2.973	8.7729998	3.599
532	1	6	0.075402997	-3.3670001	9.7860003	3.835
533	1	6	0.075402997	-2.0780001	8.5950003	4.2350001
534	1	6	0.075402997	-3.7460001	8.0279999	3.882
535	1	4	-0.209829	-3.8900001	9.0170002	1.251
536	1	4	0.024272	-4.0500002	8.2480001	-0.101
537	1	4	-0.206403	-3.9100001	6.697	0.093000002
538	1	6	0.111109	-3.329	6.2600002	-0.75
539	1	6	0.111109	-4.902	6.1999998	0.043000001
540	1	4	-0.16867299	-2.9920001	8.7399998	-1.1210001
541	1	6	0.068925999	-3.223	8.3579998	-2.1400001
542	1	6	0.068925999	-1.978	8.375	-0.87599999
543	1	6	0.068925999	-2.9719999	9.8500004	-1.169
544	1	4	0.143122	-5.4439998	8.5819998	-0.71200001
545	1	3	-0.62933099	-6.5370002	8.1540003	0.161
546	1	9	0.60047299	-7.4109998	8.9700003	0.597
547	1	1	-0.46897501	-8.2589998	9.7639999	1.022
548	1	7	0.068294004	-5.513	9.6759996	-0.91799998
549	1	7	0.068294004	-5.5599999	8.059	-1.686
550	1	6	0.111647	-4.7859998	8.7869997	1.867
551	1	6	0.111647	-3.941	10.114	1.0700001
552	1	6	0.112775	-1.564	6.8179998	2.681
553	1	6	0.112775	-1.365	7.2270002	0.97000003
554	1	7	0.043697	-4.0159998	6.316	2.2349999
555	1	5	0.312168	-1.733	4.7119999	1.2640001
556	1	8	-0.14770199	36.032001	-5.2659998	-57.328999
557	1	4	0.028554	37.216	-6.0170002	-57.375
558	1	4	0.079025	37.354	-6.7249999	-58.721001
559	1	8	-0.490134	37.368999	-5.7670002	-59.757999
560	1	4	0.058970001	37.540001	-6.421	-60.999001
561	1	4	0.058970001	37.550999	-5.3870001	-62.120998
562	1	8	-0.48804799	38.595001	-4.4619999	-61.895
563	1	4	0.058970001	38.618999	-3.4790001	-62.916
564	1	4	0.058970001	37.706001	-2.2920001	-62.57
565	1	8	-0.48590899	37.800999	-1.9450001	-61.201
566	1	4	0.051165	38.896999	-1.0779999	-60.98
567	1	4	0.073374003	38.900002	-0.63999999	-59.519001
568	1	10	-0.68193102	37.776001	0.15800001	-59.263
569	1	11	0.38857001	37.832001	0.41600001	-58.304001
570	1	7	0.084689997	39.827999	-0.057	-59.319
571	1	7	0.084689997	38.887001	-1.5369999	-58.861
572	1	7	0.085455999	39.859001	-1.603	-61.187
573	1	7	0.085455999	38.827	-0.15899999	-61.616001
574	1	7	0.084388003	36.654999	-2.586	-62.77
575	1	7	0.084388003	37.911999	-1.434	-63.255001
576	1	7	0.084388003	39.662998	-3.1099999	-63.008999
577	1	7	0.084388003	38.355999	-3.8829999	-63.928001
578	1	7	0.084388003	36.562	-4.8769999	-62.139
579	1	7	0.084388003	37.703999	-5.9260001	-63.087002
580	1	7	0.084388003	38.505001	-6.9780002	-61.027
581	1	7	0.084388003	36.700001	-7.1300001	-61.189999
582	1	7	0.084559999	36.504002	-7.4299998	-58.847
583	1	7	0.084559999	38.307999	-7.303	-58.705002
584	1	7	0.088395998	38.081001	-5.3330002	-57.233002