Title

136 atoms
143 bonds
288 angles
716 dihedrals
18 impropers

11 atom types
14 bond types
9 angle types
35 dihedral types
3 improper types
-12.76500034 87.23499966 xlo xhi
-3.025000095 96.9749999 ylo yhi
-9.368000031 90.63199997 zlo zhi
0.0 0.0 0.0 xy xz yz

Masses

1	12.01078
2	15.99943
3	14.00672
4	12.01078
5	1.007947
6	1.007947
7	1.007947
8	15.99943
9	12.01078
10	15.99943
11	1.007947


Pair Coeffs

1	0.086879315	3.4806469
2	0.2102061	3.0398122
3	0.16769152	3.206876
4	0.10884061	3.3795318
5	0.015779483	2.6445434
6	0.014090815	1.1034277
7	0.016409246	2.5832257
8	0.16846514	3.0251065
9	0.21	3.3996695
10	0.20947353	2.99716
11	1.2326e-05	0.53453923

Bond Coeffs

1 harmonic	582.698766451	1.225198386222
2 harmonic	492.76746816345	1.381897776683
3 harmonic	279.1350963404	1.454628925034
4 harmonic	352.0565580496	1.450098586273
5 harmonic	505.144496193	1.019481865027
6 harmonic	264.62148576755	1.52190126495
7 harmonic	370.04670688625	1.093899492634
8 harmonic	301.15400723785	1.345741232799
9 harmonic	366.7408841747	1.425895053732
10 harmonic	300.03137914615	1.451203938761
11 harmonic	366.34047229585	1.464762957261
12 harmonic	602.81384337	1.196112346392
13 harmonic	329.96998057905	1.427343958716
14 harmonic	543.5267831885	0.9716763312559


Angle Coeffs

1 harmonic	55.42182150775	117.3465570514
2 harmonic	63.44422595415	115.5071327674
3 harmonic	57.8982893754	126.8062420451
4 harmonic	53.20531626545	116.5475862634
5 harmonic	48.776492647595	115.6030999533
6 harmonic	65.09061609600001	110.3538806181
7 harmonic	201.41175231035	127.4691416191
8 harmonic	55.07882548015	112.8714009681
9 harmonic	33.56981613361	180


Dihedral Coeffs

1 fourier 1	-0.1488678166443	4	180
2 fourier 1	-0.1230328948768	3	180
3 fourier 1	0.2939295466901	2	0
4 fourier 1	-0.3024127022865	1	0
5 fourier 1	0.182238503271	2	0
6 fourier 1	0.02972342374561	3	0
7 fourier 1	1.809047390003	2	180
8 fourier 1	-0.04816277792592	1	0
9 fourier 1	3.101948770557	2	180
10 fourier 1	-0.4252153282372	1	0
11 fourier 1	2.348375642009	2	180
12 fourier 1	1.256156174911	1	0
13 fourier 1	0.9974165607242	2	180
14 fourier 1	0.1155372516788	3	0
15 fourier 1	0.1040663847541	3	0
16 fourier 1	0.09223874044423	3	0
17 fourier 1	0.3159935921949	2	180
18 fourier 1	0.3247796806857	1	180
19 fourier 1	0.1911926717192	3	0
20 fourier 1	2.779853741805	2	180
21 fourier 1	0.1918272375143	3	0
22 fourier 1	0.9202179876409	1	180
23 fourier 1	0.0473758381877	3	0
24 fourier 1	0.4860993122944	2	180
25 fourier 1	0.8916986138746	1	0
26 fourier 1	1.163809172478	2	180
27 fourier 1	0.1679186987369	1	180
28 fourier 1	0.1115525666802	3	0
29 fourier 1	0.3432490222662	1	0
30 fourier 1	0.457973137376	1	0
31 fourier 1	-1.382973039546	1	0
32 fourier 1	0	1	0
33 fourier 1	0.3445382149273	3	0
34 fourier 1	0.1364556373303	1	0
35 fourier 1	0.3026390167484	3	0


Improper Coeffs

1 0.3333333333333333	-1	2
2 0.3666666666666667	-1	2
3 3.5	-1	2


Atoms

1	1	1	0.53752899	4.0289998	0.48899999	1.378
2	1	2	-0.725784	4.243	-0.71499997	1.679
3	1	3	-0.49659199	2.914	0.85399997	0.56
4	1	4	-0.0043299999	1.977	-0.15700001	0.055
5	1	4	-0.012649	0.87	0.421	-0.88499999
6	1	4	-0.173559	1.567	1.123	-2.082
7	1	5	0.063574001	2.2520001	0.419	-2.602
8	1	5	0.063574001	0.82099998	1.485	-2.823
9	1	5	0.063574001	2.151	2.0090001	-1.763
10	1	4	-0.209675	-0.037	1.4579999	-0.167
11	1	5	0.101336	0.574	2.2349999	0.338
12	1	5	0.101336	-0.65399998	1.99	-0.92699999
13	1	4	0.123433	-0.98799998	0.82499999	0.86299998
14	1	3	-0.523835	-1.8049999	1.867	1.4960001
15	1	1	0.79958999	-2.503	1.655	2.7279999
16	1	2	-0.63373798	-2.428	0.55299997	3.3340001
17	1	6	0.307827	-1.867	2.8169999	1.064
18	1	7	0.033202998	-0.382	0.33899999	1.655
19	1	4	-0.213337	-1.905	-0.20100001	0.17399999
20	1	5	0.102906	-2.5439999	0.345	-0.55699998
21	1	5	0.102906	-2.5910001	-0.65200001	0.926
22	1	4	-0.032281999	-1.128	-1.3279999	-0.55500001
23	1	4	-0.175377	-2.1259999	-2.092	-1.46
24	1	5	0.066716999	-1.614	-2.924	-1.99
25	1	5	0.066716999	-2.575	-1.419	-2.2219999
26	1	5	0.066716999	-2.9590001	-2.52	-0.86000001
27	1	4	-0.175377	-0.56800002	-2.3559999	0.463
28	1	5	0.066716999	-0.152	-1.8839999	1.37
29	1	5	0.066716999	0.212	-2.9949999	-0.0040000002
30	1	5	0.066716999	-1.375	-3.0250001	0.833
31	1	4	-0.21520799	-0.011	-0.73100001	-1.473
32	1	5	0.103055	-0.51999998	-0.32600001	-2.378
33	1	5	0.103055	0.64200002	-1.549	-1.851
34	1	7	0.060205001	2.556	-0.926	-0.50099999
35	1	7	0.060205001	1.536	-0.66000003	0.92799997
36	1	6	0.30894199	2.7869999	1.869	0.36199999
37	1	8	-0.500081	-3.075	2.4200001	3.132
38	1	4	0.142364	-2.586	3.6170001	2.5880001
39	1	4	-0.098866999	-3.04	3.7709999	1.126
40	1	5	0.103471	-2.6630001	2.905	0.53600001
41	1	4	-0.16011199	-2.5109999	5.0539999	0.48699999
42	1	5	0.108343	-2.431	5.8660002	1.243
43	1	5	0.108343	-1.502	4.8870001	0.050999999
44	1	4	-0.078328997	-3.5220001	5.4159999	-0.60799998
45	1	5	0.119973	-3.1140001	5.1339998	-1.605
46	1	4	-0.108217	-3.9920001	6.8930001	-0.57300001
47	1	5	0.114368	-3.1789999	7.6329999	-0.412
48	1	4	-0.161633	-4.8390002	7.164	-1.831
49	1	5	0.108291	-4.3249998	6.8270001	-2.7579999
50	1	5	0.108291	-5.046	8.2550001	-1.9170001
51	1	4	-0.063846998	-6.1279998	6.348	-1.5650001
52	1	4	0.060532	-7.4000001	7.21	-1.6339999
53	1	8	-0.14788701	-8.5270004	6.408	-1.413
54	1	7	0.089335002	-7.369	8.0279999	-0.88099998
55	1	7	0.089335002	-7.4679999	7.6690001	-2.6459999
56	1	5	0.113924	-6.2259998	5.5359998	-2.319
57	1	4	-0.095218003	-5.8649998	5.7680001	-0.15000001
58	1	5	0.124463	-6.777	5.4660001	0.40799999
59	1	4	-0.14078701	-5.0570002	6.875	0.5
60	1	5	0.102723	-5.605	7.8400002	0.58200002
61	1	5	0.102723	-4.6659999	6.6090002	1.506
62	1	4	-0.074270003	-4.8130002	4.6389999	-0.30000001
63	1	5	0.119127	-5.0650001	3.9400001	-1.13
64	1	4	-0.16124199	-4.5599999	3.835	0.98100001
65	1	5	0.108343	-4.9879999	2.813	0.89499998
66	1	5	0.108343	-5.0209999	4.329	1.864
67	1	7	0.081229001	-2.9660001	4.4650002	3.197
68	1	7	0.081229001	-1.474	3.635	2.6429999
69	1	1	0.550192	4.698	1.256	1.745
70	1	2	-0.71475798	4.2490001	2.158	2.5009999
71	1	3	-0.57569999	6.0770001	1.2359999	1.36
72	1	4	0.121387	7.0419998	2.2379999	1.83
73	1	7	0.031254001	6.5580001	3.2320001	1.76
74	1	4	-0.214422	7.4299998	1.9349999	3.289
75	1	5	0.102906	6.52	1.96	3.928
76	1	5	0.102906	7.8239999	0.89399999	3.3299999
77	1	4	-0.032809999	8.4890003	2.9130001	3.862
78	1	4	-0.175377	9.0039997	2.3329999	5.2010002
79	1	5	0.066716999	9.7609997	3.0090001	5.6550002
80	1	5	0.066716999	8.1709995	2.2049999	5.9260001
81	1	5	0.066716999	9.4759998	1.337	5.053
82	1	4	-0.175377	7.8559999	4.29	4.1830001
83	1	5	0.066716999	7.23	4.6789999	3.365
84	1	5	0.066716999	7.1830001	4.2140002	5.0640001
85	1	5	0.066716999	8.6420002	5.039	4.4190001
86	1	4	-0.21378601	9.7060003	3.0380001	2.8929999
87	1	5	0.101747	10.292	2.095	2.9849999
88	1	5	0.101747	10.391	3.8369999	3.25
89	1	4	0.020422	9.3879995	3.2290001	1.373
90	1	4	-0.172012	10.675	2.908	0.57099998
91	1	5	0.060297001	10.5	3.0209999	-0.52100003
92	1	5	0.060297001	11.504	3.5880001	0.86500001
93	1	5	0.060297001	11.011	1.864	0.75199997
94	1	4	0.139331	8.9680004	4.684	1.0089999
95	1	3	-0.67512602	9.9189997	5.6589999	1.533
96	1	9	0.597799	9.7629995	6.9060001	1.335
97	1	2	-0.52157003	9.6110001	8.1190004	1.142
98	1	7	0.06098	7.9569998	4.9299998	1.372
99	1	7	0.06098	8.9189997	4.7880001	-0.098999999
100	1	4	-0.21062499	8.2919998	2.2219999	0.93099999
101	1	5	0.101204	8.7130003	1.191	0.94199997
102	1	5	0.101204	7.987	2.4349999	-0.118
103	1	6	0.304447	6.3790002	0.49200001	0.69099998
104	1	8	-0.146227	-9.3120003	7.013	-1.476
105	1	4	0.060679	-8.8199997	8.2720003	-1.849
106	1	4	-0.090939	-8.4350004	8.2819996	-3.3369999
107	1	5	0.106275	-7.658	7.5040002	-3.517
108	1	4	-0.16102301	-7.8730001	9.632	-3.7820001
109	1	5	0.108235	-8.3520002	10.463	-3.2179999
110	1	5	0.108235	-6.777	9.6789999	-3.5999999
111	1	4	-0.077661999	-8.1809998	9.7320004	-5.2810001
112	1	5	0.119973	-7.2589998	9.5200005	-5.869
113	1	4	-0.108217	-8.8380003	11.07	-5.704
114	1	5	0.114368	-8.3800001	11.975	-5.25
115	1	4	-0.156112	-8.9069996	11.115	-7.243
116	1	5	0.108291	-7.927	10.873	-7.7090001
117	1	5	0.108291	-9.2180004	12.13	-7.5760002
118	1	4	-0.106418	-9.9759998	10.043	-7.5739999
119	1	4	0.13828599	-11.135	10.602	-8.415
120	1	10	-0.68325597	-12.048	9.5790005	-8.7019997
121	1	11	0.371564	-12.765	9.9949999	-9.2480001
122	1	7	0.07271	-11.654	11.428	-7.8800001
123	1	7	0.07271	-10.726	11.007	-9.368
124	1	5	0.113979	-9.5120001	9.2080002	-8.1459999
125	1	4	-0.088822	-10.42	9.5740004	-6.1630001
126	1	5	0.124463	-11.422	9.0950003	-6.125
127	1	4	-0.14078701	-10.292	10.849	-5.3520002
128	1	5	0.102723	-10.953	11.673	-5.7030001
129	1	5	0.102723	-10.465	10.704	-4.263
130	1	4	-0.073608004	-9.2790003	8.6999998	-5.5830002
131	1	5	0.119127	-8.9209995	7.9400001	-6.3150001
132	1	4	-0.16215999	-9.6219997	8.007	-4.2600002
133	1	5	0.108235	-9.7550001	6.914	-4.4099998
134	1	5	0.108235	-10.562	8.4119997	-3.825
135	1	7	0.089459002	-9.6070004	9.033	-1.653
136	1	7	0.089459002	-7.9349999	8.5349998	-1.227

Bonds

1	1	1	2
2	2	1	3
3	3	1	69
4	4	3	4
5	5	3	36
6	6	4	5
7	7	4	34
8	7	4	35
9	6	5	6
10	6	5	10
11	6	5	31
12	7	6	7
13	7	6	8
14	7	6	9
15	7	10	11
16	7	10	12
17	6	10	13
18	4	13	14
19	7	13	18
20	6	13	19
21	2	14	15
22	5	14	17
23	1	15	16
24	8	15	37
25	7	19	20
26	7	19	21
27	6	19	22
28	6	22	23
29	6	22	27
30	6	22	31
31	7	23	24
32	7	23	25
33	7	23	26
34	7	27	28
35	7	27	29
36	7	27	30
37	7	31	32
38	7	31	33
39	9	37	38
40	6	38	39
41	7	38	67
42	7	38	68
43	7	39	40
44	6	39	41
45	6	39	64
46	7	41	42
47	7	41	43
48	6	41	44
49	7	44	45
50	6	44	46
51	6	44	62
52	7	46	47
53	6	46	48
54	6	46	59
55	7	48	49
56	7	48	50
57	6	48	51
58	6	51	52
59	7	51	56
60	6	51	57
61	9	52	53
62	7	52	54
63	7	52	55
64	10	53	104
65	7	57	58
66	6	57	59
67	6	57	62
68	7	59	60
69	7	59	61
70	7	62	63
71	6	62	64
72	7	64	65
73	7	64	66
74	1	69	70
75	2	69	71
76	4	71	72
77	5	71	103
78	7	72	73
79	6	72	74
80	6	72	100
81	7	74	75
82	7	74	76
83	6	74	77
84	6	77	78
85	6	77	82
86	6	77	86
87	7	78	79
88	7	78	80
89	7	78	81
90	7	82	83
91	7	82	84
92	7	82	85
93	7	86	87
94	7	86	88
95	6	86	89
96	6	89	90
97	6	89	94
98	6	89	100
99	7	90	91
100	7	90	92
101	7	90	93
102	11	94	95
103	7	94	98
104	7	94	99
105	12	95	96
106	1	96	97
107	7	100	101
108	7	100	102
109	9	104	105
110	6	105	106
111	7	105	135
112	7	105	136
113	7	106	107
114	6	106	108
115	6	106	132
116	7	108	109
117	7	108	110
118	6	108	111
119	7	111	112
120	6	111	113
121	6	111	130
122	7	113	114
123	6	113	115
124	6	113	127
125	7	115	116
126	7	115	117
127	6	115	118
128	6	118	119
129	7	118	124
130	6	118	125
131	13	119	120
132	7	119	122
133	7	119	123
134	14	120	121
135	7	125	126
136	6	125	127
137	6	125	130
138	7	127	128
139	7	127	129
140	7	130	131
141	6	130	132
142	7	132	133
143	7	132	134

Angles

1	4	5	4	35
2	4	108	111	113
3	5	54	52	55
4	4	86	89	100
5	4	52	51	56
6	4	111	130	132
7	4	72	100	89
8	4	111	113	115
9	4	22	31	33
10	4	89	90	91
11	4	126	125	130
12	4	105	106	107
13	4	46	48	50
14	4	22	27	28
15	4	104	105	136
16	4	114	113	127
17	4	19	22	23
18	4	77	86	89
19	4	74	77	86
20	5	79	78	80
21	4	77	82	84
22	4	23	22	31
23	5	34	4	35
24	4	39	41	43
25	2	4	3	36
26	4	14	13	19
27	4	77	78	79
28	5	83	82	84
29	4	125	130	132
30	4	113	115	117
31	6	52	53	104
32	4	45	44	46
33	4	44	62	63
34	4	89	100	102
35	5	91	90	92
36	4	72	74	76
37	4	5	31	22
38	4	10	13	14
39	4	58	57	62
40	4	72	100	101
41	4	111	113	127
42	4	74	77	82
43	4	23	22	27
44	4	108	111	130
45	4	37	38	68
46	4	3	4	5
47	4	106	132	133
48	5	87	86	88
49	4	48	51	56
50	7	16	15	37
51	4	39	41	44
52	4	74	77	78
53	5	83	82	85
54	4	4	5	10
55	4	44	46	47
56	4	106	105	135
57	4	51	57	62
58	4	107	106	108
59	4	74	72	100
60	2	1	3	36
61	4	44	62	64
62	5	91	90	93
63	5	135	105	136
64	4	51	57	58
65	4	72	100	102
66	4	40	39	64
67	4	59	57	62
68	4	63	62	64
69	4	111	130	125
70	4	57	62	63
71	4	115	118	119
72	4	13	19	20
73	5	28	27	29
74	4	88	86	89
75	4	106	108	111
76	4	115	113	127
77	4	42	41	44
78	4	118	119	122
79	5	29	27	30
80	4	50	48	51
81	4	71	72	100
82	4	124	118	125
83	1	13	14	15
84	4	87	86	89
85	4	58	57	59
86	3	14	15	37
87	5	101	100	102
88	4	104	105	106
89	5	20	19	21
90	5	65	64	66
91	4	44	46	48
92	5	116	115	117
93	4	117	115	118
94	4	53	52	55
95	5	24	23	25
96	4	39	38	67
97	4	78	77	86
98	4	10	13	18
99	4	12	10	13
100	4	51	52	53
101	4	77	86	87
102	4	95	94	98
103	6	15	37	38
104	4	125	127	129
105	5	28	27	30
106	4	51	57	59
107	2	69	71	103
108	4	127	125	130
109	4	21	19	22
110	4	107	106	132
111	4	78	77	82
112	4	130	132	133
113	4	52	51	57
114	4	45	44	62
115	4	119	118	124
116	5	92	90	93
117	4	116	115	118
118	4	46	59	60
119	4	89	90	92
120	4	46	48	51
121	4	22	27	29
122	4	37	38	39
123	4	40	39	41
124	4	10	13	19
125	4	51	52	54
126	4	90	89	100
127	4	22	23	24
128	4	38	39	40
129	4	57	59	60
130	5	79	78	81
131	4	77	82	85
132	4	5	10	11
133	4	77	78	80
134	4	113	115	118
135	4	126	125	127
136	4	4	5	31
137	4	27	22	31
138	4	6	5	10
139	4	72	74	77
140	4	18	13	19
141	4	5	6	7
142	6	53	104	105
143	4	120	119	122
144	5	7	6	8
145	4	6	5	31
146	4	105	106	132
147	4	89	94	98
148	5	25	23	26
149	5	84	82	85
150	4	71	72	73
151	4	39	64	65
152	4	118	125	130
153	4	22	27	30
154	4	113	127	128
155	4	73	72	74
156	4	106	132	134
157	4	38	39	41
158	4	57	59	61
159	4	48	51	57
160	4	44	46	59
161	4	115	118	124
162	4	94	89	100
163	5	133	132	134
164	5	109	108	110
165	4	106	105	136
166	4	112	111	113
167	5	49	48	50
168	4	118	125	126
169	4	43	41	44
170	4	105	106	108
171	5	7	6	9
172	4	41	39	64
173	4	106	132	130
174	4	57	62	64
175	5	75	74	76
176	4	41	44	45
177	4	13	19	21
178	4	38	39	64
179	5	60	59	61
180	4	76	74	77
181	4	86	89	94
182	4	71	72	74
183	4	39	64	66
184	4	4	5	6
185	4	118	119	123
186	5	11	10	12
187	5	80	78	81
188	5	8	6	9
189	4	111	130	131
190	4	5	4	34
191	4	108	111	112
192	4	111	113	114
193	4	89	94	95
194	4	20	19	22
195	4	22	31	32
196	4	86	89	90
197	1	69	71	72
198	4	39	64	62
199	5	24	23	26
200	4	39	38	68
201	4	104	105	135
202	4	44	62	57
203	4	77	86	88
204	3	70	69	71
205	4	95	94	99
206	4	75	74	77
207	4	62	64	65
208	4	41	44	46
209	4	77	82	83
210	4	13	19	22
211	4	39	41	42
212	4	125	130	131
213	4	46	44	62
214	5	98	94	99
215	4	5	31	32
216	4	3	4	34
217	2	13	14	17
218	3	1	69	70
219	3	2	1	69
220	4	130	132	134
221	5	122	119	123
222	4	119	118	125
223	2	15	14	17
224	4	47	46	59
225	4	46	59	61
226	4	89	90	93
227	4	106	108	109
228	4	10	5	31
229	4	118	119	120
230	4	47	46	48
231	4	56	51	57
232	1	1	3	4
233	4	51	52	55
234	4	22	23	25
235	4	37	38	67
236	6	119	120	121
237	3	2	1	3
238	4	62	64	66
239	4	48	46	59
240	4	5	10	12
241	4	77	78	81
242	5	67	38	68
243	3	3	1	69
244	4	5	31	33
245	4	46	59	57
246	4	110	108	111
247	4	82	77	86
248	4	3	4	35
249	3	1	69	71
250	4	5	6	8
251	4	120	119	123
252	4	89	94	99
253	4	113	111	130
254	5	128	127	129
255	4	131	130	132
256	9	95	96	97
257	4	106	108	110
258	5	42	41	43
259	4	113	127	129
260	4	22	23	26
261	4	115	118	125
262	4	73	72	100
263	4	5	10	13
264	5	32	31	33
265	4	109	108	111
266	4	49	48	51
267	4	108	106	132
268	3	14	15	16
269	4	19	22	31
270	4	46	48	49
271	4	53	52	54
272	4	113	127	125
273	4	118	125	127
274	4	5	6	9
275	4	112	111	130
276	4	114	113	115
277	2	72	71	103
278	4	48	51	52
279	4	125	127	128
280	4	14	13	18
281	8	94	95	96
282	4	113	115	116
283	4	11	10	13
284	4	41	44	62
285	4	89	100	101
286	4	19	22	27
287	4	72	74	75
288	4	90	89	94

Dihedrals

1	16	4	5	10	13
1	17	4	5	10	13
1	18	4	5	10	13
2	16	52	51	57	62
2	17	52	51	57	62
2	18	52	51	57	62
3	15	87	86	89	90
4	15	21	19	22	31
5	28	53	52	51	56
5	29	53	52	51	56
6	15	113	115	118	124
7	15	127	125	130	131
8	15	114	113	127	125
9	19	107	106	132	133
10	16	106	132	130	125
10	17	106	132	130	125
10	18	106	132	130	125
11	14	71	72	74	76
12	16	106	108	111	113
12	17	106	108	111	113
12	18	106	108	111	113
13	16	77	74	72	100
13	17	77	74	72	100
13	18	77	74	72	100
14	35	121	120	119	122
15	16	108	111	130	125
15	17	108	111	130	125
15	18	108	111	130	125
16	14	71	72	100	102
17	15	11	10	5	31
18	5	5	4	3	36
18	6	5	4	3	36
19	7	13	14	15	16
19	8	13	14	15	16
20	15	74	77	82	85
21	15	78	77	82	83
22	15	4	5	6	8
23	16	118	125	130	132
23	17	118	125	130	132
23	18	118	125	130	132
24	13	3	1	69	71
25	15	124	118	125	127
26	19	116	115	118	124
27	16	46	59	57	62
27	17	46	59	57	62
27	18	46	59	57	62
28	15	109	108	106	132
29	23	54	52	53	104
30	1	15	14	13	19
30	2	15	14	13	19
30	3	15	14	13	19
30	4	15	14	13	19
31	16	72	74	77	78
31	17	72	74	77	78
31	18	72	74	77	78
32	15	80	78	77	86
33	15	47	46	48	51
34	15	51	57	62	63
35	15	46	44	62	63
36	15	49	48	51	57
37	15	114	113	115	118
38	23	53	104	105	106
39	15	98	94	89	100
40	19	43	41	44	45
41	19	42	41	44	45
42	16	44	41	39	64
42	17	44	41	39	64
42	18	44	41	39	64
43	15	93	90	89	94
44	15	118	125	127	129
45	16	77	86	89	100
45	17	77	86	89	100
45	18	77	86	89	100
46	15	76	74	72	100
47	15	86	89	90	91
48	16	59	46	44	62
48	17	59	46	44	62
48	18	59	46	44	62
49	15	108	106	132	134
50	15	38	39	64	65
51	19	18	13	19	21
52	15	23	22	31	33
53	16	52	51	57	59
53	17	52	51	57	59
53	18	52	51	57	59
54	16	48	51	57	59
54	17	48	51	57	59
54	18	48	51	57	59
55	14	14	13	19	20
56	15	23	22	27	28
57	15	20	19	22	27
58	15	112	111	130	132
59	5	1	3	4	34
59	6	1	3	4	34
60	15	117	115	118	119
61	15	117	115	113	127
62	15	106	132	130	131
63	15	107	106	132	130
64	19	47	46	59	60
65	19	122	119	118	124
66	19	131	130	132	133
67	16	106	132	130	111
67	17	106	132	130	111
67	18	106	132	130	111
68	15	90	89	100	102
69	15	10	13	19	21
70	15	51	57	59	60
71	15	108	111	130	131
72	20	14	15	37	38
73	14	37	38	39	64
74	15	90	89	94	99
75	15	132	106	105	136
76	14	120	119	118	125
77	15	86	89	94	98
78	16	44	46	59	57
78	17	44	46	59	57
78	18	44	46	59	57
79	15	110	108	111	113
80	15	38	39	41	42
81	15	76	74	77	78
82	14	3	4	5	6
83	19	40	39	41	43
84	16	6	5	10	13
84	17	6	5	10	13
84	18	6	5	10	13
85	15	4	5	10	12
86	15	73	72	74	77
87	19	49	48	51	56
88	15	20	19	22	31
89	15	112	111	130	125
90	15	125	130	132	134
91	15	114	113	111	130
92	19	58	57	59	61
93	15	115	118	119	123
94	15	106	108	111	112
95	14	12	10	13	14
96	16	13	19	22	31
96	17	13	19	22	31
96	18	13	19	22	31
97	13	2	1	69	71
98	7	17	14	15	37
98	8	17	14	15	37
99	15	10	5	31	33
100	14	71	72	100	101
101	15	48	51	52	54
102	15	8	6	5	10
103	15	27	22	31	33
104	15	41	44	46	47
105	16	74	77	86	89
105	17	74	77	86	89
105	18	74	77	86	89
106	15	28	27	22	31
107	15	93	90	89	100
108	15	111	113	115	117
109	16	41	44	62	64
109	17	41	44	62	64
109	18	41	44	62	64
110	19	63	62	64	66
111	15	78	77	86	87
112	16	41	39	64	62
112	17	41	39	64	62
112	18	41	39	64	62
113	7	1	69	71	103
113	8	1	69	71	103
114	13	3	1	69	70
115	19	124	118	125	126
116	15	76	74	77	82
117	32	94	95	96	97
118	19	40	39	64	65
119	14	104	105	106	108
120	15	115	118	125	126
121	15	117	115	118	125
122	15	21	19	22	23
123	15	19	22	23	26
124	19	114	113	127	128
125	15	73	72	100	89
126	23	15	37	38	67
127	19	114	113	115	117
128	15	112	111	113	115
129	16	44	46	48	51
129	17	44	46	48	51
129	18	44	46	48	51
130	15	43	41	44	62
131	1	10	13	14	15
131	2	10	13	14	15
131	3	10	13	14	15
131	4	10	13	14	15
132	24	16	15	14	17
132	25	16	15	14	17
133	15	110	108	111	130
134	15	41	39	64	66
135	15	118	125	127	128
136	14	86	89	94	95
137	15	124	118	125	130
138	14	11	10	13	14
139	14	104	105	106	132
140	16	77	86	89	90
140	17	77	86	89	90
140	18	77	86	89	90
141	15	56	51	57	59
142	23	53	104	105	136
143	19	18	13	19	20
144	15	23	22	31	32
145	15	52	51	57	58
146	15	64	39	38	68
147	19	112	111	130	131
148	15	21	19	22	27
149	19	73	72	100	102
150	19	45	44	46	47
151	16	48	46	44	62
151	17	48	46	44	62
151	18	48	46	44	62
152	23	51	52	53	104
153	19	107	106	105	135
154	15	75	74	77	86
155	19	109	108	111	112
156	23	55	52	53	104
157	15	10	13	19	20
158	15	7	6	5	10
159	15	41	39	38	67
160	15	4	5	31	33
161	19	40	39	41	42
162	16	46	48	51	57
162	17	46	48	51	57
162	18	46	48	51	57
163	15	6	5	10	12
164	15	4	5	10	11
165	15	92	90	89	94
166	19	73	72	74	76
167	15	80	78	77	82
168	16	48	51	57	62
168	17	48	51	57	62
168	18	48	51	57	62
169	15	79	78	77	86
170	15	91	90	89	94
171	5	74	72	71	103
171	6	74	72	71	103
172	15	111	113	127	129
173	15	115	118	119	122
174	15	25	23	22	31
175	15	128	127	125	130
176	19	126	125	127	129
177	13	2	1	69	70
178	15	12	10	5	31
179	28	37	38	39	40
179	29	37	38	39	40
180	15	27	22	31	32
181	14	48	51	52	53
182	11	2	1	3	36
182	12	2	1	3	36
183	15	111	113	115	116
184	19	63	62	64	65
185	15	44	46	59	60
186	15	74	77	78	80
187	19	107	106	108	109
188	16	108	106	132	130
188	17	108	106	132	130
188	18	108	106	132	130
189	16	72	100	89	94
189	17	72	100	89	94
189	18	72	100	89	94
190	14	3	4	5	31
191	15	31	5	4	35
192	15	81	78	77	86
193	15	108	106	105	136
194	16	113	127	125	130
194	17	113	127	125	130
194	18	113	127	125	130
195	15	54	52	51	57
196	15	20	19	22	23
197	15	19	22	27	30
198	15	110	108	106	132
199	15	19	22	23	25
200	7	4	3	1	69
200	8	4	3	1	69
201	21	15	37	38	39
201	22	15	37	38	39
202	16	111	130	125	118
202	17	111	130	125	118
202	18	111	130	125	118
203	5	34	4	3	36
203	6	34	4	3	36
204	15	85	82	77	86
205	16	44	62	57	59
205	17	44	62	57	59
205	18	44	62	57	59
206	19	50	48	51	56
207	16	5	10	13	19
207	17	5	10	13	19
207	18	5	10	13	19
208	16	74	72	100	89
208	17	74	72	100	89
208	18	74	72	100	89
209	14	90	89	94	95
210	15	41	39	64	65
211	15	78	77	82	85
212	15	60	59	57	62
213	1	69	71	72	74
213	2	69	71	72	74
213	3	69	71	72	74
213	4	69	71	72	74
214	19	56	51	57	58
215	23	53	104	105	135
216	15	92	90	89	100
217	15	49	48	51	52
218	15	64	39	38	67
219	16	119	118	125	127
219	17	119	118	125	127
219	18	119	118	125	127
220	16	113	115	118	119
220	17	113	115	118	119
220	18	113	115	118	119
221	16	118	115	113	127
221	17	118	115	113	127
221	18	118	115	113	127
222	19	123	119	118	124
223	15	9	6	5	31
224	15	82	77	86	88
225	7	36	3	1	69
225	8	36	3	1	69
226	15	8	6	5	31
227	16	113	111	130	132
227	17	113	111	130	132
227	18	113	111	130	132
228	15	75	74	72	100
229	15	86	89	100	101
230	16	13	19	22	27
230	17	13	19	22	27
230	18	13	19	22	27
231	15	74	72	100	102
232	5	73	72	71	103
232	6	73	72	71	103
233	16	41	44	46	59
233	17	41	44	46	59
233	18	41	44	46	59
234	15	57	62	64	66
235	15	86	89	90	93
236	15	30	27	22	31
237	15	56	51	57	62
238	31	96	95	94	99
239	14	14	13	19	22
240	15	23	22	27	30
241	15	10	5	4	35
242	14	71	72	74	75
243	15	58	57	62	64
244	16	113	111	130	125
244	17	113	111	130	125
244	18	113	111	130	125
245	15	44	62	64	66
246	33	118	119	120	121
246	34	118	119	120	121
247	16	10	5	31	22
247	17	10	5	31	22
247	18	10	5	31	22
248	15	42	41	39	64
249	15	74	77	82	84
250	15	74	77	78	79
251	15	4	5	6	7
252	15	118	125	130	131
253	1	69	71	72	100
253	2	69	71	72	100
253	3	69	71	72	100
253	4	69	71	72	100
254	15	88	86	89	90
255	16	38	39	41	44
255	17	38	39	41	44
255	18	38	39	41	44
256	16	72	74	77	86
256	17	72	74	77	86
256	18	72	74	77	86
257	5	15	14	13	18
257	6	15	14	13	18
258	7	1	69	71	72
258	8	1	69	71	72
259	15	31	5	4	34
260	15	108	106	105	135
261	15	29	27	22	31
262	19	47	46	48	50
263	16	113	115	118	125
263	17	113	115	118	125
263	18	113	115	118	125
264	15	19	22	27	29
265	16	108	111	113	115
265	17	108	111	113	115
265	18	108	111	113	115
266	15	19	22	23	24
267	15	126	125	130	132
268	15	48	46	59	61
269	15	94	89	100	102
270	15	45	44	46	59
271	16	44	62	57	51
271	17	44	62	57	51
271	18	44	62	57	51
272	15	75	74	77	82
273	5	100	72	71	103
273	6	100	72	71	103
274	7	13	14	15	37
274	8	13	14	15	37
275	35	121	120	119	123
276	15	44	62	57	58
277	15	24	23	22	27
278	15	5	10	13	18
279	16	5	31	22	27
279	17	5	31	22	27
279	18	5	31	22	27
280	16	78	77	86	89
280	17	78	77	86	89
280	18	78	77	86	89
281	16	41	44	62	57
281	17	41	44	62	57
281	18	41	44	62	57
282	15	78	77	82	84
283	15	88	86	89	94
284	16	59	57	62	64
284	17	59	57	62	64
284	18	59	57	62	64
285	16	51	48	46	59
285	17	51	48	46	59
285	18	51	48	46	59
286	15	108	106	132	133
287	5	69	71	72	73
287	6	69	71	72	73
288	15	48	51	57	58
289	15	79	78	77	82
290	26	16	15	37	38
290	27	16	15	37	38
291	16	111	113	127	125
291	17	111	113	127	125
291	18	111	113	127	125
292	16	46	44	62	64
292	17	46	44	62	64
292	18	46	44	62	64
293	15	82	77	86	87
294	14	53	52	51	57
295	15	42	41	44	46
296	15	25	23	22	27
297	15	90	89	100	101
298	15	113	111	130	131
299	15	74	72	100	101
300	15	24	23	22	31
301	5	10	13	14	17
301	6	10	13	14	17
302	15	90	89	94	98
303	15	132	106	105	135
304	28	120	119	118	124
304	29	120	119	118	124
305	16	4	5	31	22
305	17	4	5	31	22
305	18	4	5	31	22
306	15	61	59	57	62
307	31	89	94	95	96
308	15	57	62	64	65
309	15	86	89	90	92
310	16	105	106	108	111
310	17	105	106	108	111
310	18	105	106	108	111
311	19	110	108	111	112
312	16	127	113	111	130
312	17	127	113	111	130
312	18	127	113	111	130
313	16	39	64	62	44
313	17	39	64	62	44
313	18	39	64	62	44
314	15	38	39	64	66
315	16	72	100	89	90
315	17	72	100	89	90
315	18	72	100	89	90
316	15	81	78	77	82
317	31	96	95	94	98
318	15	113	127	125	126
319	15	23	22	27	29
320	16	119	118	125	130
320	17	119	118	125	130
320	18	119	118	125	130
321	5	1	3	4	35
321	6	1	3	4	35
322	15	129	127	125	130
323	15	10	5	4	34
324	15	6	5	31	33
325	28	104	105	106	107
325	29	104	105	106	107
326	16	105	106	132	130
326	17	105	106	132	130
326	18	105	106	132	130
327	15	125	130	132	133
328	16	6	5	31	22
328	17	6	5	31	22
328	18	6	5	31	22
329	16	46	44	62	57
329	17	46	44	62	57
329	18	46	44	62	57
330	15	49	48	46	59
331	19	58	57	59	60
332	19	58	57	62	63
333	16	10	13	19	22
333	17	10	13	19	22
333	18	10	13	19	22
334	15	51	57	59	61
335	15	10	5	31	32
336	15	45	44	62	64
337	15	74	77	86	88
338	15	50	48	51	52
339	16	46	48	51	52
339	17	46	48	51	52
339	18	46	48	51	52
340	30	52	53	104	105
341	15	41	44	62	63
342	15	74	77	82	83
343	15	88	86	89	100
344	15	6	5	4	35
345	15	40	39	41	44
346	16	13	10	5	31
346	17	13	10	5	31
346	18	13	10	5	31
347	15	55	52	51	57
348	19	47	46	48	49
349	15	19	22	31	33
350	16	115	113	127	125
350	17	115	113	127	125
350	18	115	113	127	125
351	19	117	115	118	124
352	15	19	22	27	28
353	15	108	111	113	114
354	15	105	106	132	134
355	19	126	125	130	131
356	15	47	46	44	62
357	19	114	113	115	116
358	15	48	46	59	60
359	15	94	89	100	101
360	16	111	130	125	127
360	17	111	130	125	127
360	18	111	130	125	127
361	19	112	111	113	114
362	15	44	46	48	50
363	15	48	51	52	55
364	16	13	19	22	23
364	17	13	19	22	23
364	18	13	19	22	23
365	15	26	23	22	31
366	16	41	44	46	48
366	17	41	44	46	48
366	18	41	44	46	48
367	1	1	3	4	5
367	2	1	3	4	5
367	3	1	3	4	5
367	4	1	3	4	5
368	15	46	48	51	56
369	15	45	44	62	57
370	16	111	113	115	118
370	17	111	113	115	118
370	18	111	113	115	118
371	15	78	77	86	88
372	15	59	57	62	63
373	15	107	106	108	111
374	19	40	39	64	66
375	16	39	64	62	57
375	17	39	64	62	57
375	18	39	64	62	57
376	15	87	86	89	94
377	15	91	90	89	100
378	16	108	111	113	127
378	17	108	111	113	127
378	18	108	111	113	127
379	15	115	113	127	129
380	16	115	118	125	127
380	17	115	118	125	127
380	18	115	118	125	127
381	9	2	1	3	4
381	10	2	1	3	4
382	19	73	72	100	101
383	19	114	113	127	129
384	19	40	39	38	68
385	15	84	82	77	86
386	15	112	111	113	127
387	15	43	41	39	64
388	23	15	37	38	68
389	15	12	10	13	19
390	16	39	41	44	46
390	17	39	41	44	46
390	18	39	41	44	46
391	16	39	41	44	62
391	17	39	41	44	62
391	18	39	41	44	62
392	15	4	5	31	32
393	16	5	31	22	19
393	17	5	31	22	19
393	18	5	31	22	19
394	19	55	52	51	56
395	19	54	52	51	56
396	15	105	106	108	110
397	15	116	115	118	119
398	15	116	115	113	127
399	16	72	74	77	82
399	17	72	74	77	82
399	18	72	74	77	82
400	15	6	5	10	11
401	19	73	72	74	75
402	15	111	130	132	134
403	14	3	4	5	10
404	15	45	44	46	48
405	15	6	5	31	32
406	15	99	94	89	100
407	14	95	94	89	100
408	15	111	113	127	128
409	16	106	108	111	130
409	17	106	108	111	130
409	18	106	108	111	130
410	19	107	106	105	136
411	16	48	46	59	57
411	17	48	46	59	57
411	18	48	46	59	57
412	15	109	108	111	113
413	15	75	74	77	78
414	5	17	14	13	19
414	6	17	14	13	19
415	19	126	125	127	128
416	15	41	39	38	68
417	15	83	82	77	86
418	19	45	44	62	63
419	15	74	77	86	87
420	14	5	10	13	14
421	16	5	31	22	23
421	17	5	31	22	23
421	18	5	31	22	23
422	15	11	10	13	19
423	15	6	5	4	34
424	11	70	69	71	103
424	12	70	69	71	103
425	16	111	108	106	132
425	17	111	108	106	132
425	18	111	108	106	132
426	15	39	64	62	63
427	15	87	86	89	100
428	9	70	69	71	72
428	10	70	69	71	72
429	16	113	127	125	118
429	17	113	127	125	118
429	18	113	127	125	118
430	15	19	22	31	32
431	16	115	113	111	130
431	17	115	113	111	130
431	18	115	113	111	130
432	15	105	106	132	133
433	16	127	125	130	132
433	17	127	125	130	132
433	18	127	125	130	132
434	19	107	106	132	134
435	15	7	6	5	31
436	14	71	72	74	77
437	15	111	130	125	126
438	15	9	6	5	10
439	15	44	46	48	49
440	14	37	38	39	41
441	15	44	46	59	61
442	15	74	77	78	81
443	15	4	5	6	9
444	15	116	115	118	125
445	19	107	106	108	110
446	16	38	39	64	62
446	17	38	39	64	62
446	18	38	39	64	62
447	16	72	100	89	86
447	17	72	100	89	86
447	18	72	100	89	86
448	15	50	48	46	59
449	15	115	113	127	128
450	15	119	118	125	126
451	19	40	39	38	67
452	16	51	57	62	64
452	17	51	57	62	64
452	18	51	57	62	64
453	15	47	46	59	57
454	15	109	108	111	130
455	19	12	10	13	18
456	5	35	4	3	36
456	6	35	4	3	36
457	15	43	41	44	46
458	15	39	41	44	45
459	15	42	41	44	62
460	15	76	74	77	86
461	15	105	106	108	109
462	15	18	13	19	22
463	15	111	130	132	133
464	14	14	13	19	21
465	16	115	118	125	130
465	17	115	118	125	130
465	18	115	118	125	130
466	19	47	46	59	61
467	15	123	119	118	125
468	15	122	119	118	125
469	16	82	77	86	89
469	17	82	77	86	89
469	18	82	77	86	89
470	19	131	130	132	134
471	14	115	118	119	120
472	15	86	89	100	102
473	5	17	14	13	18
473	6	17	14	13	18
474	16	108	111	130	132
474	17	108	111	130	132
474	18	108	111	130	132
475	15	44	62	64	65
476	15	26	23	22	27
477	14	71	72	100	89
478	16	46	59	57	51
478	17	46	59	57	51
478	18	46	59	57	51
479	15	86	89	94	99
480	19	11	10	13	18
481	15	38	39	41	43
482	16	77	86	89	94
482	17	77	86	89	94
482	18	77	86	89	94
483	15	50	48	51	57
484	15	46	59	57	58
485	15	40	39	64	62

Impropers

27	1	71	72	103	69
58	1	3	36	1	4
217	2	69	71	1	70
355	2	1	69	2	3
415	1	14	15	17	13
423	2	69	1	70	71
462	3	15	14	16	37
511	2	1	2	3	69
540	1	3	1	4	36
637	1	14	13	15	17
645	1	71	103	69	72
670	2	69	70	71	1
672	2	1	3	69	2
810	1	71	69	72	103
815	1	3	4	36	1
860	1	14	17	13	15
947	3	15	16	37	14
991	3	15	37	14	16
