Title

136 atoms
143 bonds
288 angles
716 dihedrals
18 impropers

11 atom types
14 bond types
9 angle types
35 dihedral types
3 improper types
-12.76500034 87.23499966 xlo xhi
-3.025000095 96.9749999 ylo yhi
-9.368000031 90.63199997 zlo zhi
0.0 0.0 0.0 xy xz yz

Masses

1	12.01078
2	15.99943
3	14.00672
4	12.01078
5	1.007947
6	1.007947
7	1.007947
8	15.99943
9	12.01078
10	15.99943
11	1.007947


Pair Coeffs

1	0.086879315	3.4806469
2	0.2102061	3.0398122
3	0.16769152	3.206876
4	0.10884061	3.3795318
5	0.015779483	2.6445434
6	0.014090815	1.1034277
7	0.016409246	2.5832257
8	0.16846514	3.0251065
9	0.21	3.3996695
10	0.20947353	2.99716
11	1.2326e-05	0.53453923

Bond Coeffs

1 harmonic	582.698766451	1.225198386222
2 harmonic	492.76746816345	1.381897776683
3 harmonic	279.1350963404	1.454628925034
4 harmonic	352.0565580496	1.450098586273
5 harmonic	505.144496193	1.019481865027
6 harmonic	264.62148576755	1.52190126495
7 harmonic	370.04670688625	1.093899492634
8 harmonic	301.15400723785	1.345741232799
9 harmonic	366.7408841747	1.425895053732
10 harmonic	300.03137914615	1.451203938761
11 harmonic	366.34047229585	1.464762957261
12 harmonic	602.81384337	1.196112346392
13 harmonic	329.96998057905	1.427343958716
14 harmonic	543.5267831885	0.9716763312559


Angle Coeffs

1 harmonic	55.42182150775	117.3465570514
2 harmonic	63.44422595415	115.5071327674
3 harmonic	57.8982893754	126.8062420451
4 harmonic	53.20531626545	116.5475862634
5 harmonic	48.776492647595	115.6030999533
6 harmonic	65.09061609600001	110.3538806181
7 harmonic	201.41175231035	127.4691416191
8 harmonic	55.07882548015	112.8714009681
9 harmonic	33.56981613361	180


Dihedral Coeffs

1 fourier 1	-0.1488678166443	4	180
2 fourier 1	-0.1230328948768	3	180
3 fourier 1	0.2939295466901	2	0
4 fourier 1	-0.3024127022865	1	0
5 fourier 1	0.182238503271	2	0
6 fourier 1	0.02972342374561	3	0
7 fourier 1	1.809047390003	2	180
8 fourier 1	-0.04816277792592	1	0
9 fourier 1	3.101948770557	2	180
10 fourier 1	-0.4252153282372	1	0
11 fourier 1	2.348375642009	2	180
12 fourier 1	1.256156174911	1	0
13 fourier 1	0.9974165607242	2	180
14 fourier 1	0.1155372516788	3	0
15 fourier 1	0.1040663847541	3	0
16 fourier 1	0.09223874044423	3	0
17 fourier 1	0.3159935921949	2	180
18 fourier 1	0.3247796806857	1	180
19 fourier 1	0.1911926717192	3	0
20 fourier 1	2.779853741805	2	180
21 fourier 1	0.1918272375143	3	0
22 fourier 1	0.9202179876409	1	180
23 fourier 1	0.0473758381877	3	0
24 fourier 1	0.4860993122944	2	180
25 fourier 1	0.8916986138746	1	0
26 fourier 1	1.163809172478	2	180
27 fourier 1	0.1679186987369	1	180
28 fourier 1	0.1115525666802	3	0
29 fourier 1	0.3432490222662	1	0
30 fourier 1	0.457973137376	1	0
31 fourier 1	-1.382973039546	1	0
32 fourier 1	0	1	0
33 fourier 1	0.3445382149273	3	0
34 fourier 1	0.1364556373303	1	0
35 fourier 1	0.3026390167484	3	0


Improper Coeffs

1 0.3333333333333333	-1	2
2 0.3666666666666667	-1	2
3 3.5	-1	2


Atoms

1	1	1	0.53752899	4.0289998	0.48899999	1.378
2	1	2	-0.725784	4.243	-0.71499997	1.679
3	1	3	-0.49659199	2.914	0.85399997	0.56
4	1	4	-0.0043299999	1.977	-0.15700001	0.055
5	1	4	-0.012649	0.87	0.421	-0.88499999
6	1	4	-0.173559	1.567	1.123	-2.082
7	1	5	0.063574001	2.2520001	0.419	-2.602
8	1	5	0.063574001	0.82099998	1.485	-2.823
9	1	5	0.063574001	2.151	2.0090001	-1.763
10	1	4	-0.209675	-0.037	1.4579999	-0.167
11	1	5	0.101336	0.574	2.2349999	0.338
12	1	5	0.101336	-0.65399998	1.99	-0.92699999
13	1	4	0.123433	-0.98799998	0.82499999	0.86299998
14	1	3	-0.523835	-1.8049999	1.867	1.4960001
15	1	1	0.79958999	-2.503	1.655	2.7279999
16	1	2	-0.63373798	-2.428	0.55299997	3.3340001
17	1	6	0.307827	-1.867	2.8169999	1.064
18	1	7	0.033202998	-0.382	0.33899999	1.655
19	1	4	-0.213337	-1.905	-0.20100001	0.17399999
20	1	5	0.102906	-2.5439999	0.345	-0.55699998
21	1	5	0.102906	-2.5910001	-0.65200001	0.926
22	1	4	-0.032281999	-1.128	-1.3279999	-0.55500001
23	1	4	-0.175377	-2.1259999	-2.092	-1.46
24	1	5	0.066716999	-1.614	-2.924	-1.99
25	1	5	0.066716999	-2.575	-1.419	-2.2219999
26	1	5	0.066716999	-2.9590001	-2.52	-0.86000001
27	1	4	-0.175377	-0.56800002	-2.3559999	0.463
28	1	5	0.066716999	-0.152	-1.8839999	1.37
29	1	5	0.066716999	0.212	-2.9949999	-0.0040000002
30	1	5	0.066716999	-1.375	-3.0250001	0.833
31	1	4	-0.21520799	-0.011	-0.73100001	-1.473
32	1	5	0.103055	-0.51999998	-0.32600001	-2.378
33	1	5	0.103055	0.64200002	-1.549	-1.851
34	1	7	0.060205001	2.556	-0.926	-0.50099999
35	1	7	0.060205001	1.536	-0.66000003	0.92799997
36	1	6	0.30894199	2.7869999	1.869	0.36199999
37	1	8	-0.500081	-3.075	2.4200001	3.132
38	1	4	0.142364	-2.586	3.6170001	2.5880001
39	1	4	-0.098866999	-3.04	3.7709999	1.126
40	1	5	0.103471	-2.6630001	2.905	0.53600001
41	1	4	-0.16011199	-2.5109999	5.0539999	0.48699999
42	1	5	0.108343	-2.431	5.8660002	1.243
43	1	5	0.108343	-1.502	4.8870001	0.050999999
44	1	4	-0.078328997	-3.5220001	5.4159999	-0.60799998
45	1	5	0.119973	-3.1140001	5.1339998	-1.605
46	1	4	-0.108217	-3.9920001	6.8930001	-0.57300001
47	1	5	0.114368	-3.1789999	7.6329999	-0.412
48	1	4	-0.161633	-4.8390002	7.164	-1.831
49	1	5	0.108291	-4.3249998	6.8270001	-2.7579999
50	1	5	0.108291	-5.046	8.2550001	-1.9170001
51	1	4	-0.063846998	-6.1279998	6.348	-1.5650001
52	1	4	0.060532	-7.4000001	7.21	-1.6339999
53	1	8	-0.14788701	-8.5270004	6.408	-1.413
54	1	7	0.089335002	-7.369	8.0279999	-0.88099998
55	1	7	0.089335002	-7.4679999	7.6690001	-2.6459999
56	1	5	0.113924	-6.2259998	5.5359998	-2.319
57	1	4	-0.095218003	-5.8649998	5.7680001	-0.15000001
58	1	5	0.124463	-6.777	5.4660001	0.40799999
59	1	4	-0.14078701	-5.0570002	6.875	0.5
60	1	5	0.102723	-5.605	7.8400002	0.58200002
61	1	5	0.102723	-4.6659999	6.6090002	1.506
62	1	4	-0.074270003	-4.8130002	4.6389999	-0.30000001
63	1	5	0.119127	-5.0650001	3.9400001	-1.13
64	1	4	-0.16124199	-4.5599999	3.835	0.98100001
65	1	5	0.108343	-4.9879999	2.813	0.89499998
66	1	5	0.108343	-5.0209999	4.329	1.864
67	1	7	0.081229001	-2.9660001	4.4650002	3.197
68	1	7	0.081229001	-1.474	3.635	2.6429999
69	1	1	0.550192	4.698	1.256	1.745
70	1	2	-0.71475798	4.2490001	2.158	2.5009999
71	1	3	-0.57569999	6.0770001	1.2359999	1.36
72	1	4	0.121387	7.0419998	2.2379999	1.83
73	1	7	0.031254001	6.5580001	3.2320001	1.76
74	1	4	-0.214422	7.4299998	1.9349999	3.289
75	1	5	0.102906	6.52	1.96	3.928
76	1	5	0.102906	7.8239999	0.89399999	3.3299999
77	1	4	-0.032809999	8.4890003	2.9130001	3.862
78	1	4	-0.175377	9.0039997	2.3329999	5.2010002
79	1	5	0.066716999	9.7609997	3.0090001	5.6550002
80	1	5	0.066716999	8.1709995	2.2049999	5.9260001
81	1	5	0.066716999	9.4759998	1.337	5.053
82	1	4	-0.175377	7.8559999	4.29	4.1830001
83	1	5	0.066716999	7.23	4.6789999	3.365
84	1	5	0.066716999	7.1830001	4.2140002	5.0640001
85	1	5	0.066716999	8.6420002	5.039	4.4190001
86	1	4	-0.21378601	9.7060003	3.0380001	2.8929999
87	1	5	0.101747	10.292	2.095	2.9849999
88	1	5	0.101747	10.391	3.8369999	3.25
89	1	4	0.020422	9.3879995	3.2290001	1.373
90	1	4	-0.172012	10.675	2.908	0.57099998
91	1	5	0.060297001	10.5	3.0209999	-0.52100003
92	1	5	0.060297001	11.504	3.5880001	0.86500001
93	1	5	0.060297001	11.011	1.864	0.75199997
94	1	4	0.139331	8.9680004	4.684	1.0089999
95	1	3	-0.67512602	9.9189997	5.6589999	1.533
96	1	9	0.597799	9.7629995	6.9060001	1.335
97	1	2	-0.52157003	9.6110001	8.1190004	1.142
98	1	7	0.06098	7.9569998	4.9299998	1.372
99	1	7	0.06098	8.9189997	4.7880001	-0.098999999
100	1	4	-0.21062499	8.2919998	2.2219999	0.93099999
101	1	5	0.101204	8.7130003	1.191	0.94199997
102	1	5	0.101204	7.987	2.4349999	-0.118
103	1	6	0.304447	6.3790002	0.49200001	0.69099998
104	1	8	-0.146227	-9.3120003	7.013	-1.476
105	1	4	0.060679	-8.8199997	8.2720003	-1.849
106	1	4	-0.090939	-8.4350004	8.2819996	-3.3369999
107	1	5	0.106275	-7.658	7.5040002	-3.517
108	1	4	-0.16102301	-7.8730001	9.632	-3.7820001
109	1	5	0.108235	-8.3520002	10.463	-3.2179999
110	1	5	0.108235	-6.777	9.6789999	-3.5999999
111	1	4	-0.077661999	-8.1809998	9.7320004	-5.2810001
112	1	5	0.119973	-7.2589998	9.5200005	-5.869
113	1	4	-0.108217	-8.8380003	11.07	-5.704
114	1	5	0.114368	-8.3800001	11.975	-5.25
115	1	4	-0.156112	-8.9069996	11.115	-7.243
116	1	5	0.108291	-7.927	10.873	-7.7090001
117	1	5	0.108291	-9.2180004	12.13	-7.5760002
118	1	4	-0.106418	-9.9759998	10.043	-7.5739999
119	1	4	0.13828599	-11.135	10.602	-8.415
120	1	10	-0.68325597	-12.048	9.5790005	-8.7019997
121	1	11	0.371564	-12.765	9.9949999	-9.2480001
122	1	7	0.07271	-11.654	11.428	-7.8800001
123	1	7	0.07271	-10.726	11.007	-9.368
124	1	5	0.113979	-9.5120001	9.2080002	-8.1459999
125	1	4	-0.088822	-10.42	9.5740004	-6.1630001
126	1	5	0.124463	-11.422	9.0950003	-6.125
127	1	4	-0.14078701	-10.292	10.849	-5.3520002
128	1	5	0.102723	-10.953	11.673	-5.7030001
129	1	5	0.102723	-10.465	10.704	-4.263
130	1	4	-0.073608004	-9.2790003	8.6999998	-5.5830002
131	1	5	0.119127	-8.9209995	7.9400001	-6.3150001
132	1	4	-0.16215999	-9.6219997	8.007	-4.2600002
133	1	5	0.108235	-9.7550001	6.914	-4.4099998
134	1	5	0.108235	-10.562	8.4119997	-3.825
135	1	7	0.089459002	-9.6070004	9.033	-1.653
136	1	7	0.089459002	-7.9349999	8.5349998	-1.227

Bonds

1	1	1	2
2	2	1	3
3	3	1	69
4	4	3	4
5	5	3	36
6	6	4	5
7	7	4	34
8	7	4	35
9	6	5	6
10	6	5	10
11	6	5	31
12	7	6	7
13	7	6	8
14	7	6	9
15	7	10	11
16	7	10	12
17	6	10	13
18	4	13	14
19	7	13	18
20	6	13	19
21	2	14	15
22	5	14	17
23	1	15	16
24	8	15	37
25	7	19	20
26	7	19	21
27	6	19	22
28	6	22	23
29	6	22	27
30	6	22	31
31	7	23	24
32	7	23	25
33	7	23	26
34	7	27	28
35	7	27	29
36	7	27	30
37	7	31	32
38	7	31	33
39	9	37	38
40	6	38	39
41	7	38	67
42	7	38	68
43	7	39	40
44	6	39	41
45	6	39	64
46	7	41	42
47	7	41	43
48	6	41	44
49	7	44	45
50	6	44	46
51	6	44	62
52	7	46	47
53	6	46	48
54	6	46	59
55	7	48	49
56	7	48	50
57	6	48	51
58	6	51	52
59	7	51	56
60	6	51	57
61	9	52	53
62	7	52	54
63	7	52	55
64	10	53	104
65	7	57	58
66	6	57	59
67	6	57	62
68	7	59	60
69	7	59	61
70	7	62	63
71	6	62	64
72	7	64	65
73	7	64	66
74	1	69	70
75	2	69	71
76	4	71	72
77	5	71	103
78	7	72	73
79	6	72	74
80	6	72	100
81	7	74	75
82	7	74	76
83	6	74	77
84	6	77	78
85	6	77	82
86	6	77	86
87	7	78	79
88	7	78	80
89	7	78	81
90	7	82	83
91	7	82	84
92	7	82	85
93	7	86	87
94	7	86	88
95	6	86	89
96	6	89	90
97	6	89	94
98	6	89	100
99	7	90	91
100	7	90	92
101	7	90	93
102	11	94	95
103	7	94	98
104	7	94	99
105	12	95	96
106	1	96	97
107	7	100	101
108	7	100	102
109	9	104	105
110	6	105	106
111	7	105	135
112	7	105	136
113	7	106	107
114	6	106	108
115	6	106	132
116	7	108	109
117	7	108	110
118	6	108	111
119	7	111	112
120	6	111	113
121	6	111	130
122	7	113	114
123	6	113	115
124	6	113	127
125	7	115	116
126	7	115	117
127	6	115	118
128	6	118	119
129	7	118	124
130	6	118	125
131	13	119	120
132	7	119	122
133	7	119	123
134	14	120	121
135	7	125	126
136	6	125	127
137	6	125	130
138	7	127	128
139	7	127	129
140	7	130	131
141	6	130	132
142	7	132	133
143	7	132	134

Angles

1	4	107	106	132
2	4	89	90	93
3	1	1	3	4
4	4	5	6	8
5	5	24	23	26
6	4	44	46	48
7	4	77	82	84
8	4	22	27	30
9	4	4	5	6
10	4	82	77	86
11	5	84	82	85
12	2	13	14	17
13	8	94	95	96
14	5	28	27	30
15	4	10	5	31
16	4	57	59	60
17	4	130	132	133
18	4	104	105	136
19	4	105	106	132
20	4	108	111	112
21	4	112	111	113
22	4	89	100	101
23	4	77	78	80
24	4	22	31	32
25	4	5	31	32
26	4	109	108	111
27	4	72	74	77
28	4	113	111	130
29	4	5	10	13
30	4	39	38	67
31	4	40	39	41
32	4	62	64	66
33	4	86	89	100
34	4	106	132	134
35	4	46	44	62
36	4	13	19	21
37	5	91	90	93
38	4	127	125	130
39	4	5	6	9
40	4	77	82	83
41	4	87	86	89
42	4	106	108	111
43	5	11	10	12
44	4	73	72	74
45	5	8	6	9
46	4	4	5	31
47	4	57	59	61
48	5	67	38	68
49	4	111	130	132
50	4	3	4	35
51	4	118	125	126
52	4	126	125	130
53	4	77	86	87
54	4	48	51	56
55	4	113	127	129
56	2	72	71	103
57	4	107	106	108
58	4	50	48	51
59	4	57	62	64
60	4	118	125	130
61	4	76	74	77
62	4	13	19	22
63	4	10	13	14
64	4	72	100	101
65	9	95	96	97
66	4	41	39	64
67	4	48	51	52
68	5	34	4	35
69	4	51	57	59
70	6	52	53	104
71	6	119	120	121
72	5	135	105	136
73	2	1	3	36
74	4	39	41	42
75	4	112	111	130
76	4	77	86	89
77	4	113	115	117
78	4	125	127	129
79	4	5	31	22
80	4	131	130	132
81	4	111	113	115
82	4	89	100	102
83	5	79	78	80
84	4	89	90	92
85	4	23	22	31
86	5	116	115	117
87	4	39	64	65
88	4	22	23	25
89	4	52	51	56
90	4	46	59	60
91	4	72	100	89
92	4	74	77	86
93	4	106	105	135
94	4	105	106	107
95	4	108	106	132
96	4	119	118	124
97	4	46	48	49
98	3	14	15	37
99	4	90	89	94
100	4	44	62	63
101	4	6	5	10
102	4	23	22	27
103	4	37	38	39
104	4	124	118	125
105	4	130	132	134
106	5	29	27	30
107	5	80	78	81
108	4	19	22	31
109	2	69	71	103
110	4	38	39	64
111	4	113	127	125
112	3	1	69	70
113	4	3	4	5
114	4	5	4	34
115	4	51	52	53
116	4	22	23	26
117	4	89	94	98
118	6	15	37	38
119	4	77	78	81
120	4	10	13	18
121	4	19	22	27
122	4	22	31	33
123	4	5	31	33
124	5	128	127	129
125	4	106	108	109
126	5	7	6	8
127	5	20	19	21
128	4	125	130	132
129	4	72	100	102
130	4	44	62	64
131	4	39	38	68
132	4	95	94	98
133	4	111	113	127
134	4	39	64	62
135	4	115	118	124
136	4	38	39	40
137	4	37	38	67
138	5	83	82	84
139	4	18	13	19
140	4	19	22	23
141	4	77	82	85
142	4	118	119	122
143	5	122	119	123
144	4	45	44	46
145	3	1	69	71
146	4	51	52	54
147	3	2	1	69
148	4	11	10	13
149	4	90	89	100
150	4	111	130	131
151	4	113	115	118
152	5	101	100	102
153	5	49	48	50
154	4	108	111	113
155	5	133	132	134
156	4	45	44	62
157	4	120	119	123
158	4	10	13	19
159	4	116	115	118
160	4	71	72	73
161	4	48	51	57
162	4	88	86	89
163	4	41	44	45
164	4	47	46	59
165	4	20	19	22
166	4	125	130	131
167	4	22	27	28
168	5	42	41	43
169	4	126	125	127
170	1	13	14	15
171	4	43	41	44
172	7	16	15	37
173	4	71	72	100
174	4	38	39	41
175	4	37	38	68
176	4	104	105	106
177	5	109	108	110
178	5	25	23	26
179	4	72	74	75
180	4	39	41	43
181	4	5	10	11
182	4	6	5	31
183	4	41	44	46
184	5	91	90	92
185	4	5	6	7
186	2	15	14	17
187	4	44	46	47
188	5	79	78	81
189	4	78	77	82
190	4	42	41	44
191	4	53	52	54
192	5	87	86	88
193	4	89	90	91
194	4	39	64	66
195	4	52	51	57
196	5	28	27	29
197	4	46	59	61
198	4	41	44	62
199	5	54	52	55
200	4	104	105	135
201	4	106	108	110
202	4	77	78	79
203	4	106	105	136
204	4	27	22	31
205	5	98	94	99
206	4	46	48	50
207	4	74	72	100
208	4	72	74	76
209	4	113	127	128
210	4	108	111	130
211	4	39	41	44
212	4	58	57	62
213	4	62	64	65
214	4	114	113	127
215	4	46	59	57
216	4	44	46	59
217	3	2	1	3
218	4	13	19	20
219	5	60	59	61
220	4	111	130	125
221	4	117	115	118
222	4	5	4	35
223	4	53	52	55
224	4	115	118	119
225	6	53	104	105
226	4	106	132	133
227	4	3	4	34
228	5	92	90	93
229	4	118	119	120
230	4	77	86	88
231	4	113	115	116
232	4	74	77	82
233	4	51	57	62
234	4	73	72	100
235	4	119	118	125
236	4	46	48	51
237	4	114	113	115
238	1	69	71	72
239	4	120	119	122
240	5	7	6	9
241	4	89	94	95
242	4	125	127	128
243	5	75	74	76
244	4	110	108	111
245	3	3	1	69
246	4	12	10	13
247	4	47	46	48
248	4	59	57	62
249	3	14	15	16
250	4	63	62	64
251	4	57	62	63
252	4	111	113	114
253	5	32	31	33
254	4	74	77	78
255	4	51	57	58
256	4	4	5	10
257	4	51	52	55
258	4	14	13	18
259	4	48	46	59
260	4	89	94	99
261	4	21	19	22
262	4	49	48	51
263	4	86	89	90
264	4	58	57	59
265	4	118	125	127
266	4	40	39	64
267	4	71	72	74
268	4	78	77	86
269	4	94	89	100
270	5	24	23	25
271	2	4	3	36
272	4	56	51	57
273	4	22	27	29
274	3	70	69	71
275	4	75	74	77
276	4	95	94	99
277	4	115	118	125
278	4	115	113	127
279	4	22	23	24
280	4	44	62	57
281	5	83	82	85
282	4	86	89	94
283	4	106	132	130
284	4	118	119	123
285	4	105	106	108
286	5	65	64	66
287	4	14	13	19
288	4	5	10	12

Dihedrals

1	15	127	125	130	131
2	15	86	89	94	98
3	16	108	111	113	127
3	17	108	111	113	127
3	18	108	111	113	127
4	19	18	13	19	21
5	15	19	22	23	24
6	23	51	52	53	104
7	15	86	89	90	91
8	15	113	115	118	124
9	15	42	41	39	64
10	16	41	44	62	64
10	17	41	44	62	64
10	18	41	44	62	64
11	16	41	44	46	59
11	17	41	44	46	59
11	18	41	44	46	59
12	15	94	89	100	102
13	15	117	115	118	119
14	31	96	95	94	99
15	35	121	120	119	122
16	16	39	41	44	62
16	17	39	41	44	62
16	18	39	41	44	62
17	15	80	78	77	86
18	19	40	39	64	65
19	16	127	113	111	130
19	17	127	113	111	130
19	18	127	113	111	130
20	15	115	118	119	122
21	15	6	5	10	11
22	15	74	72	100	101
23	1	10	13	14	15
23	2	10	13	14	15
23	3	10	13	14	15
23	4	10	13	14	15
24	15	49	48	51	52
25	14	115	118	119	120
26	15	107	106	132	130
27	16	5	10	13	19
27	17	5	10	13	19
27	18	5	10	13	19
28	15	48	46	59	60
29	14	14	13	19	20
30	19	47	46	59	60
31	19	55	52	51	56
32	14	71	72	100	101
33	15	117	115	113	127
34	16	46	44	62	64
34	17	46	44	62	64
34	18	46	44	62	64
35	28	120	119	118	124
35	29	120	119	118	124
36	23	15	37	38	67
37	16	41	44	62	57
37	17	41	44	62	57
37	18	41	44	62	57
38	16	44	46	48	51
38	17	44	46	48	51
38	18	44	46	48	51
39	15	91	90	89	100
40	23	53	104	105	136
41	16	72	100	89	94
41	17	72	100	89	94
41	18	72	100	89	94
42	15	107	106	108	111
43	15	19	22	27	28
44	15	45	44	46	59
45	15	108	111	113	114
46	19	50	48	51	56
47	15	75	74	77	86
48	15	84	82	77	86
49	15	126	125	130	132
50	15	82	77	86	87
51	16	48	51	57	62
51	17	48	51	57	62
51	18	48	51	57	62
52	15	21	19	22	31
53	23	55	52	53	104
54	5	34	4	3	36
54	6	34	4	3	36
55	15	86	89	100	101
56	15	113	127	125	126
57	15	42	41	44	46
58	15	86	89	94	99
59	14	3	4	5	31
60	16	46	44	62	57
60	17	46	44	62	57
60	18	46	44	62	57
61	19	54	52	51	56
62	15	79	78	77	86
63	15	125	130	132	134
64	15	118	125	130	131
65	16	52	51	57	62
65	17	52	51	57	62
65	18	52	51	57	62
66	15	57	62	64	65
67	15	25	23	22	31
68	35	121	120	119	123
69	15	74	77	82	83
70	16	5	31	22	27
70	17	5	31	22	27
70	18	5	31	22	27
71	15	90	89	100	101
72	15	94	89	100	101
73	15	80	78	77	82
74	15	6	5	31	32
75	15	108	106	105	135
76	15	115	118	119	123
77	16	106	108	111	130
77	17	106	108	111	130
77	18	106	108	111	130
78	15	78	77	82	83
79	15	24	23	22	27
80	16	48	46	59	57
80	17	48	46	59	57
80	18	48	46	59	57
81	19	58	57	62	63
82	15	98	94	89	100
83	5	5	4	3	36
83	6	5	4	3	36
84	19	45	44	62	63
85	16	44	62	57	59
85	17	44	62	57	59
85	18	44	62	57	59
86	15	46	59	57	58
87	16	72	74	77	86
87	17	72	74	77	86
87	18	72	74	77	86
88	15	20	19	22	31
89	15	47	46	48	51
90	14	71	72	74	76
91	5	35	4	3	36
91	6	35	4	3	36
92	14	120	119	118	125
93	19	110	108	111	112
94	15	10	5	4	34
95	15	129	127	125	130
96	15	49	48	46	59
97	15	44	62	64	66
98	5	74	72	71	103
98	6	74	72	71	103
99	15	24	23	22	31
100	15	111	113	115	116
101	16	48	51	57	59
101	17	48	51	57	59
101	18	48	51	57	59
102	15	88	86	89	100
103	15	75	74	77	82
104	16	4	5	10	13
104	17	4	5	10	13
104	18	4	5	10	13
105	26	16	15	37	38
105	27	16	15	37	38
106	15	46	44	62	63
107	15	92	90	89	94
108	16	77	86	89	90
108	17	77	86	89	90
108	18	77	86	89	90
109	7	13	14	15	37
109	8	13	14	15	37
110	16	46	59	57	51
110	17	46	59	57	51
110	18	46	59	57	51
111	19	107	106	105	136
112	15	44	46	48	50
113	15	59	57	62	63
114	16	52	51	57	59
114	17	52	51	57	59
114	18	52	51	57	59
115	16	106	132	130	111
115	17	106	132	130	111
115	18	106	132	130	111
116	15	39	41	44	45
117	15	12	10	13	19
118	16	72	74	77	78
118	17	72	74	77	78
118	18	72	74	77	78
119	19	123	119	118	124
120	1	1	3	4	5
120	2	1	3	4	5
120	3	1	3	4	5
120	4	1	3	4	5
121	15	106	132	130	131
122	15	79	78	77	82
123	31	89	94	95	96
124	15	51	57	62	63
125	16	13	10	5	31
125	17	13	10	5	31
125	18	13	10	5	31
126	14	71	72	100	89
127	19	73	72	100	102
128	16	115	113	127	125
128	17	115	113	127	125
128	18	115	113	127	125
129	16	105	106	132	130
129	17	105	106	132	130
129	18	105	106	132	130
130	15	111	130	132	133
131	15	28	27	22	31
132	15	76	74	77	86
133	19	114	113	115	116
134	19	42	41	44	45
135	15	119	118	125	126
136	15	31	5	4	35
137	15	19	22	31	32
138	15	60	59	57	62
139	16	118	125	130	132
139	17	118	125	130	132
139	18	118	125	130	132
140	19	112	111	130	131
141	15	64	39	38	68
142	16	72	74	77	82
142	17	72	74	77	82
142	18	72	74	77	82
143	15	112	111	113	115
144	19	40	39	38	68
145	15	110	108	111	113
146	15	109	108	106	132
147	16	106	132	130	125
147	17	106	132	130	125
147	18	106	132	130	125
148	14	53	52	51	57
149	16	38	39	41	44
149	17	38	39	41	44
149	18	38	39	41	44
150	14	48	51	52	53
151	15	111	113	115	117
152	15	10	5	31	33
153	24	16	15	14	17
153	25	16	15	14	17
154	15	44	62	57	58
155	19	47	46	48	50
156	19	107	106	132	134
157	16	111	108	106	132
157	17	111	108	106	132
157	18	111	108	106	132
158	15	8	6	5	31
159	16	41	44	46	48
159	17	41	44	46	48
159	18	41	44	46	48
160	14	71	72	74	75
161	16	118	115	113	127
161	17	118	115	113	127
161	18	118	115	113	127
162	16	77	86	89	100
162	17	77	86	89	100
162	18	77	86	89	100
163	15	112	111	130	125
164	14	11	10	13	14
165	7	13	14	15	16
165	8	13	14	15	16
166	15	99	94	89	100
167	15	7	6	5	31
168	15	50	48	51	52
169	15	116	115	118	119
170	15	123	119	118	125
171	15	78	77	86	87
172	15	44	62	64	65
173	16	48	46	44	62
173	17	48	46	44	62
173	18	48	46	44	62
174	15	48	51	57	58
175	15	21	19	22	27
176	15	27	22	31	33
177	15	19	22	23	26
178	7	4	3	1	69
178	8	4	3	1	69
179	15	42	41	44	62
180	16	113	127	125	130
180	17	113	127	125	130
180	18	113	127	125	130
181	15	23	22	31	32
182	15	111	130	125	126
183	15	6	5	4	35
184	14	95	94	89	100
185	16	44	62	57	51
185	17	44	62	57	51
185	18	44	62	57	51
186	19	63	62	64	66
187	15	20	19	22	23
188	19	114	113	115	117
189	19	107	106	105	135
190	15	76	74	77	82
191	15	52	51	57	58
192	15	74	77	86	87
193	19	12	10	13	18
194	15	25	23	22	27
195	11	70	69	71	103
195	12	70	69	71	103
196	19	11	10	13	18
197	15	116	115	113	127
198	16	6	5	10	13
198	17	6	5	10	13
198	18	6	5	10	13
199	16	5	31	22	23
199	17	5	31	22	23
199	18	5	31	22	23
200	15	10	13	19	20
201	19	107	106	108	109
202	15	45	44	46	48
203	15	88	86	89	90
204	5	10	13	14	17
204	6	10	13	14	17
205	15	115	113	127	128
206	33	118	119	120	121
206	34	118	119	120	121
207	15	113	111	130	131
208	14	14	13	19	22
209	15	109	108	111	113
210	15	110	108	106	132
211	15	75	74	72	100
212	16	115	113	111	130
212	17	115	113	111	130
212	18	115	113	111	130
213	5	1	3	4	35
213	6	1	3	4	35
214	15	47	46	44	62
215	19	126	125	127	128
216	19	117	115	118	124
217	15	20	19	22	27
218	15	31	5	4	34
219	15	85	82	77	86
220	16	113	115	118	125
220	17	113	115	118	125
220	18	113	115	118	125
221	15	128	127	125	130
222	16	51	48	46	59
222	17	51	48	46	59
222	18	51	48	46	59
223	15	4	5	6	8
224	15	43	41	44	46
225	15	19	22	27	30
226	19	40	39	38	67
227	15	74	77	78	81
228	16	46	48	51	57
228	17	46	48	51	57
228	18	46	48	51	57
229	5	15	14	13	18
229	6	15	14	13	18
230	23	53	104	105	106
231	15	26	23	22	31
232	13	3	1	69	71
233	16	127	125	130	132
233	17	127	125	130	132
233	18	127	125	130	132
234	28	53	52	51	56
234	29	53	52	51	56
235	19	18	13	19	20
236	16	113	111	130	125
236	17	113	111	130	125
236	18	113	111	130	125
237	15	75	74	77	78
238	15	86	89	90	92
239	11	2	1	3	36
239	12	2	1	3	36
240	5	100	72	71	103
240	6	100	72	71	103
241	15	41	44	62	63
242	16	111	130	125	127
242	17	111	130	125	127
242	18	111	130	125	127
243	16	77	86	89	94
243	17	77	86	89	94
243	18	77	86	89	94
244	14	37	38	39	41
245	19	47	46	48	49
246	19	131	130	132	134
247	15	124	118	125	130
248	15	87	86	89	100
249	15	108	111	130	131
250	15	105	106	108	110
251	15	9	6	5	31
252	15	50	48	46	59
253	15	5	10	13	18
254	16	108	111	113	115
254	17	108	111	113	115
254	18	108	111	113	115
255	15	115	113	127	129
256	15	27	22	31	32
257	15	19	22	23	25
258	19	122	119	118	124
259	15	6	5	4	34
260	15	91	90	89	94
261	15	23	22	27	30
262	13	2	1	69	71
263	19	124	118	125	126
264	16	119	118	125	130
264	17	119	118	125	130
264	18	119	118	125	130
265	14	3	4	5	10
266	15	125	130	132	133
267	1	69	71	72	74
267	2	69	71	72	74
267	3	69	71	72	74
267	4	69	71	72	74
268	16	13	19	22	27
268	17	13	19	22	27
268	18	13	19	22	27
269	19	40	39	64	66
270	16	72	100	89	86
270	17	72	100	89	86
270	18	72	100	89	86
271	28	104	105	106	107
271	29	104	105	106	107
272	15	105	106	132	134
273	23	53	104	105	135
274	19	126	125	127	129
275	15	74	77	86	88
276	15	117	115	118	125
277	15	38	39	64	66
278	16	74	72	100	89
278	17	74	72	100	89
278	18	74	72	100	89
279	7	36	3	1	69
279	8	36	3	1	69
280	19	45	44	46	47
281	5	17	14	13	19
281	6	17	14	13	19
282	20	14	15	37	38
283	15	82	77	86	88
284	15	56	51	57	62
285	32	94	95	96	97
286	16	108	111	130	125
286	17	108	111	130	125
286	18	108	111	130	125
287	16	113	111	130	132
287	17	113	111	130	132
287	18	113	111	130	132
288	19	47	46	59	61
289	16	113	115	118	119
289	17	113	115	118	119
289	18	113	115	118	119
290	14	3	4	5	6
291	5	1	3	4	34
291	6	1	3	4	34
292	15	61	59	57	62
293	15	74	72	100	102
294	16	39	64	62	44
294	17	39	64	62	44
294	18	39	64	62	44
295	15	86	89	90	93
296	16	13	19	22	31
296	17	13	19	22	31
296	18	13	19	22	31
297	15	110	108	111	130
298	16	10	5	31	22
298	17	10	5	31	22
298	18	10	5	31	22
299	21	15	37	38	39
299	22	15	37	38	39
300	15	114	113	127	125
301	15	43	41	39	64
302	15	4	5	6	7
303	15	118	125	127	128
304	15	74	77	82	84
305	15	76	74	72	100
306	15	19	22	27	29
307	14	71	72	100	102
308	15	41	39	38	68
309	15	50	48	51	57
310	15	74	77	78	80
311	15	49	48	51	57
312	19	126	125	130	131
313	15	40	39	41	44
314	15	78	77	82	84
315	16	105	106	108	111
315	17	105	106	108	111
315	18	105	106	108	111
316	15	21	19	22	23
317	15	108	106	132	133
318	15	29	27	22	31
319	16	39	64	62	57
319	17	39	64	62	57
319	18	39	64	62	57
320	15	122	119	118	125
321	28	37	38	39	40
321	29	37	38	39	40
322	15	54	52	51	57
323	15	87	86	89	94
324	16	59	46	44	62
324	17	59	46	44	62
324	18	59	46	44	62
325	15	57	62	64	66
326	16	44	41	39	64
326	17	44	41	39	64
326	18	44	41	39	64
327	15	76	74	77	78
328	15	124	118	125	127
329	14	12	10	13	14
330	15	86	89	100	102
331	16	5	31	22	19
331	17	5	31	22	19
331	18	5	31	22	19
332	15	73	72	74	77
333	16	74	77	86	89
333	17	74	77	86	89
333	18	74	77	86	89
334	16	108	111	130	132
334	17	108	111	130	132
334	18	108	111	130	132
335	15	88	86	89	94
336	15	56	51	57	59
337	15	11	10	5	31
338	19	58	57	59	61
339	15	58	57	62	64
340	16	82	77	86	89
340	17	82	77	86	89
340	18	82	77	86	89
341	15	48	51	52	55
342	15	4	5	10	12
343	14	37	38	39	64
344	15	45	44	62	64
345	15	115	118	125	126
346	15	90	89	100	102
347	15	23	22	27	29
348	19	73	72	100	101
349	15	81	78	77	86
350	14	71	72	74	77
351	13	2	1	69	70
352	15	87	86	89	90
353	15	43	41	44	62
354	5	69	71	72	73
354	6	69	71	72	73
355	15	44	46	48	49
356	14	104	105	106	108
357	15	10	5	4	35
358	16	119	118	125	127
358	17	119	118	125	127
358	18	119	118	125	127
359	15	38	39	64	65
360	15	132	106	105	136
361	15	90	89	94	98
362	15	109	108	111	130
363	15	118	125	127	129
364	5	17	14	13	18
364	6	17	14	13	18
365	15	74	77	82	85
366	15	26	23	22	27
367	15	106	108	111	112
368	15	93	90	89	100
369	16	44	46	59	57
369	17	44	46	59	57
369	18	44	46	59	57
370	7	1	69	71	103
370	8	1	69	71	103
371	16	41	39	64	62
371	17	41	39	64	62
371	18	41	39	64	62
372	15	83	82	77	86
373	15	78	77	82	85
374	15	39	64	62	63
375	15	45	44	62	57
376	19	114	113	127	128
377	19	107	106	132	133
378	16	59	57	62	64
378	17	59	57	62	64
378	18	59	57	62	64
379	15	112	111	130	132
380	15	92	90	89	100
381	16	4	5	31	22
381	17	4	5	31	22
381	18	4	5	31	22
382	16	39	41	44	46
382	17	39	41	44	46
382	18	39	41	44	46
383	15	8	6	5	10
384	15	64	39	38	67
385	16	10	13	19	22
385	17	10	13	19	22
385	18	10	13	19	22
386	15	41	39	38	67
387	15	112	111	113	127
388	15	74	77	78	79
389	19	49	48	51	56
390	16	51	57	62	64
390	17	51	57	62	64
390	18	51	57	62	64
391	30	52	53	104	105
392	19	116	115	118	124
393	15	30	27	22	31
394	15	7	6	5	10
395	19	40	39	41	43
396	14	5	10	13	14
397	23	54	52	53	104
398	15	44	46	59	61
399	15	41	39	64	66
400	15	38	39	41	43
401	15	10	5	31	32
402	15	4	5	31	33
403	15	19	22	31	33
404	15	41	44	46	47
405	16	13	19	22	23
405	17	13	19	22	23
405	18	13	19	22	23
406	15	111	113	127	128
407	16	115	118	125	127
407	17	115	118	125	127
407	18	115	118	125	127
408	15	40	39	64	62
409	16	72	100	89	90
409	17	72	100	89	90
409	18	72	100	89	90
410	16	38	39	64	62
410	17	38	39	64	62
410	18	38	39	64	62
411	9	70	69	71	72
411	10	70	69	71	72
412	15	81	78	77	82
413	19	73	72	74	76
414	15	51	57	59	61
415	15	78	77	86	88
416	15	90	89	94	99
417	19	56	51	57	58
418	15	47	46	59	57
419	19	58	57	59	60
420	15	18	13	19	22
421	16	111	130	125	118
421	17	111	130	125	118
421	18	111	130	125	118
422	15	114	113	111	130
423	15	48	51	52	54
424	15	111	130	132	134
425	15	4	5	10	11
426	7	1	69	71	72
426	8	1	69	71	72
427	16	106	108	111	113
427	17	106	108	111	113
427	18	106	108	111	113
428	14	86	89	94	95
429	16	77	74	72	100
429	17	77	74	72	100
429	18	77	74	72	100
430	15	23	22	27	28
431	19	63	62	64	65
432	19	112	111	113	114
433	19	114	113	127	129
434	5	73	72	71	103
434	6	73	72	71	103
435	15	132	106	105	135
436	15	6	5	10	12
437	15	93	90	89	94
438	16	111	113	115	118
438	17	111	113	115	118
438	18	111	113	115	118
439	16	46	48	51	52
439	17	46	48	51	52
439	18	46	48	51	52
440	14	90	89	94	95
441	15	48	46	59	61
442	14	14	13	19	21
443	15	55	52	51	57
444	16	113	127	125	118
444	17	113	127	125	118
444	18	113	127	125	118
445	15	116	115	118	125
446	15	23	22	31	33
447	15	108	106	132	134
448	31	96	95	94	98
449	16	46	59	57	62
449	17	46	59	57	62
449	18	46	59	57	62
450	15	73	72	100	89
451	23	15	37	38	68
452	19	131	130	132	133
453	15	12	10	5	31
454	19	43	41	44	45
455	9	2	1	3	4
455	10	2	1	3	4
456	15	11	10	13	19
457	16	108	106	132	130
457	17	108	106	132	130
457	18	108	106	132	130
458	15	10	13	19	21
459	15	111	113	127	129
460	15	46	48	51	56
461	15	9	6	5	10
462	19	40	39	41	42
463	15	114	113	115	118
464	13	3	1	69	70
465	16	6	5	31	22
465	17	6	5	31	22
465	18	6	5	31	22
466	15	44	46	59	60
467	16	78	77	86	89
467	17	78	77	86	89
467	18	78	77	86	89
468	15	41	39	64	65
469	15	38	39	41	42
470	15	105	106	108	109
471	15	4	5	31	32
472	16	115	118	125	130
472	17	115	118	125	130
472	18	115	118	125	130
473	19	107	106	108	110
474	1	69	71	72	100
474	2	69	71	72	100
474	3	69	71	72	100
474	4	69	71	72	100
475	15	105	106	132	133
476	15	4	5	6	9
477	7	17	14	15	37
477	8	17	14	15	37
478	14	104	105	106	132
479	16	111	113	127	125
479	17	111	113	127	125
479	18	111	113	127	125
480	19	73	72	74	75
481	15	51	57	59	60
482	15	6	5	31	33
483	15	108	106	105	136
484	19	109	108	111	112
485	1	15	14	13	19
485	2	15	14	13	19
485	3	15	14	13	19
485	4	15	14	13	19

Impropers

19	2	69	1	70	71
136	1	71	103	69	72
154	2	69	71	1	70
161	2	1	3	69	2
182	1	71	72	103	69
209	1	14	13	15	17
350	1	14	15	17	13
408	2	69	70	71	1
458	1	3	4	36	1
490	3	15	16	37	14
508	3	15	14	16	37
516	3	15	37	14	16
533	2	1	69	2	3
564	2	1	2	3	69
812	1	71	69	72	103
897	1	14	17	13	15
1047	1	3	1	4	36
1054	1	3	36	1	4
