Title

7000 atoms
7375 bonds
11750 angles
16875 dihedrals
9750 impropers

9 atom types
12 bond types
6 angle types
7 dihedral types
2 improper types
-7.853608487 83.89237037 xlo xhi
-8.061285609 84.21815644 ylo yhi
-8.016194999 83.83578782 zlo zhi
0.0 0.0 0.0 xy xz yz

Masses

1	15.99943
2	12.01078
3	1.007947
4	12.01078
5	1.007947
6	15.99943
7	15.99943
8	1.007947
9	35.4532


Pair Coeffs

1	0.16846514	3.0251065
2	0.086879315	3.4806469
3	0.015611343	2.5725815
4	0.10884061	3.3795318
5	0.015779483	2.6445434
6	0.2102061	3.0398122
7	0.20947353	2.99716
8	1.2326e-05	0.53453923
9	0.2656001	3.3075278

Bond Coeffs

1 harmonic	425.69104206635	1.362945806494
2 harmonic	300.03137914615	1.451203938761
3 harmonic	360.7852444772	1.387193227181
4 harmonic	397.2545789619	1.085358495916
5 harmonic	289.73813263395	1.498646816465
6 harmonic	370.04670688625	1.093899492634
7 harmonic	301.15400723785	1.345741232799
8 harmonic	582.698766451	1.225198386222
9 harmonic	279.1350963404	1.454628925034
10 harmonic	385.7604595587	1.369745182308
11 harmonic	543.5267831885	0.9716763312559
12 harmonic	218.0227703685	1.746066037062


Angle Coeffs

1 harmonic	57.8982893754	126.8062420451
2 harmonic	65.09061609600001	110.3538806181
3 harmonic	34.066775159195	129.1835929926
4 harmonic	53.20531626545	116.5475862634
5 harmonic	201.41175231035	127.4691416191
6 harmonic	48.776492647595	115.6030999533


Dihedral Coeffs

1 fourier 1	3.661930099076	2	180
2 fourier 1	1.532232714475	2	180
3 fourier 1	0.457973137376	1	0
4 fourier 1	0.02664938770063	3	0
5 fourier 1	2.779853741805	2	180
6 fourier 1	0.9974165607242	2	180
7 fourier 1	0.8283030590042	2	180


Improper Coeffs

1 0.3666666666666667	-1	2
2 3.5	-1	2


Atoms

1	4	1	-0.022610991	-1.1422304	3.8681195	-2.2855995
2	4	2	0.27758426	-0.13881813	3.2319765	-1.559561
3	4	2	-0.31276038	0.54912481	3.9147802	-0.63554178
4	4	3	0.22639617	0.32698818	4.9590159	-0.45055181
5	4	2	-0.14918791	1.6152358	3.249043	0.14120227
6	4	3	0.21549188	2.1488655	3.8154191	0.89375421
7	4	2	-0.22872846	1.911702	1.9563088	-0.084069056
8	4	4	-0.051319989	2.9673946	1.2562106	0.72731285
9	4	2	-0.22872846	2.3596558	0.6631956	1.9697334
10	4	2	-0.14688504	1.8370016	-0.57681783	1.9554059
11	4	3	0.21549185	1.8693125	-1.1800149	1.0565103
12	4	2	-0.26308226	1.2069431	-1.1338807	3.1709141
13	4	3	0.22634821	0.7990759	-2.135817	3.1485739
14	4	2	0.43873	1.1379412	-0.40122219	4.2903534
15	4	1	-0.44095978	0.54008913	-0.93386602	5.429171
16	4	2	-0.26308221	1.6961841	0.97035027	4.3065942
17	4	3	0.22634825	1.6363147	1.5678721	5.2077958
18	4	2	-0.14688507	2.2716096	1.4744543	3.2089655
19	4	3	0.21549185	2.6726234	2.4800306	3.2281784
20	4	5	0.12490592	3.7755367	1.9668091	1.0061804
21	4	5	0.12490592	3.4491686	0.46171046	0.11629052
22	4	2	-0.14918792	1.1405945	1.1999235	-1.1011013
23	4	3	0.21549192	1.358274	0.15467923	-1.2806953
24	4	2	-0.31276026	0.17198627	1.8038638	-1.8005191
25	4	3	0.22639623	-0.38613528	1.246799	-2.5422799
26	5	2	0.62820011	0.4745939	-0.3792131	6.3167855
27	5	6	-0.49692804	1.186578	-0.66028903	7.2656221
28	1	1	-0.022610991	-1.6758115	3.370489	-2.9889373
29	1	2	0.27758426	-1.9125831	2.0026992	-2.8799629
30	1	2	-0.31276038	-2.6209773	1.3731586	-3.8266711
31	1	3	0.22639617	-3.0080637	1.9220687	-4.6750122
32	1	2	-0.14918791	-2.8755177	-0.079795583	-3.7216073
33	1	3	0.21549188	-3.437447	-0.57254139	-4.5058248
34	1	2	-0.22872846	-2.4103496	-0.77545793	-2.6690407
35	1	4	-0.051319989	-2.628791	-2.2611317	-2.5708534
36	1	2	-0.22872846	-1.5119453	-2.9969471	-3.2591937
37	1	2	-0.1071037	-0.38935385	-3.3233032	-2.5936314
38	1	3	0.21549185	-0.28160439	-3.0854685	-1.5415222
39	1	2	-0.40697744	0.71747227	-4.0106653	-3.2902714
40	1	3	0.23166321	1.6118474	-4.2757745	-2.7395009
41	1	2	0.43154532	0.61645801	-4.2992818	-4.5937167
42	1	7	-0.64920598	1.6656281	-4.9451652	-5.2433109
43	1	8	0.43542245	1.6116039	-5.17294	-6.2287763
44	1	2	-0.40697744	-0.60879272	-3.9270464	-5.3367978
45	1	3	0.23166321	-0.69230063	-4.1530861	-6.3928089
46	1	2	-0.10710367	-1.6150811	-3.309147	-4.7063099
47	1	3	0.21549185	-2.5059403	-3.0361137	-5.25844
48	1	5	0.12490592	-3.6026699	-2.5389282	-3.0293281
49	1	5	0.12490592	-2.689211	-2.5635776	-1.5021617
50	1	2	-0.14918792	-1.6176013	-0.075378192	-1.6277937
51	1	3	0.21549192	-1.2234511	-0.62728669	-0.7830738
52	1	2	-0.31276026	-1.3839966	1.2394199	-1.7272362
53	1	3	0.22639623	-0.80542807	1.7428626	-0.96415433
54	2	2	0.46747574	-0.22765902	0.44433061	6.3908501
55	2	6	-0.57264727	-0.8764404	0.78115216	5.4147585
56	2	9	-0.083301886	-0.43024371	1.2891328	7.9140572
57	4	1	-0.022610991	-4.2731226	1.4628933	15.466429
58	4	2	0.27758426	-2.9367405	1.8399559	15.569154
59	4	2	-0.31276038	-2.6166907	3.0078052	16.140988
60	4	3	0.22639617	-3.3932368	3.6588963	16.52446
61	4	2	-0.14918791	-1.2016191	3.4170485	16.255976
62	4	3	0.21549188	-0.96409312	4.3582291	16.735181
63	4	2	-0.22872846	-0.22581762	2.6259076	15.774615
64	4	4	-0.051319989	1.2206231	3.0123612	15.920997
65	4	2	-0.22872846	1.7652485	2.5016437	17.227586
66	4	2	-0.14688504	2.296446	1.268376	17.316388
67	4	3	0.21549185	2.3661312	0.63223279	16.442678
68	4	2	-0.26308226	2.7920012	0.76223132	18.613691
69	4	3	0.22634821	3.2255548	-0.22755132	18.669302
70	4	2	0.43873	2.700612	1.5224503	19.712968
71	4	1	-0.44095978	3.1677233	1.035635	20.930695
72	4	2	-0.26308221	2.1012412	2.8737452	19.624272
73	4	3	0.22634825	2.019775	3.4884724	20.512109
74	4	2	-0.14688507	1.6569138	3.3357749	18.44991
75	4	3	0.21549185	1.2154592	4.3229334	18.395129
76	4	5	0.12490592	1.3325749	4.1173384	15.873006
77	4	5	0.12490592	1.8094316	2.6030032	15.071047
78	4	2	-0.14918792	-0.58314135	1.3279732	15.151104
79	4	3	0.21549192	0.19359751	0.67460644	14.774325
80	4	2	-0.31276026	-1.865621	0.95707287	15.05206
81	4	3	0.22639623	-2.1199389	0.0093421497	14.594721
82	5	2	0.62820011	3.1068176	1.6125505	21.804336
83	5	6	-0.49692804	4.1137887	2.1105209	22.277887
84	1	1	-0.022610991	-4.537915	0.5833572	15.038258
85	1	2	0.27758426	-3.6965736	-0.52495959	15.088889
86	1	2	-0.31276038	-4.0747512	-1.6735445	14.512578
87	1	3	0.22639617	-5.0291579	-1.7429874	14.007497
88	1	2	-0.14918791	-3.1871839	-2.8555063	14.558355
89	1	3	0.21549188	-3.5052038	-3.7701494	14.072709
90	1	2	-0.22872846	-2.0020844	-2.7896511	15.190356
91	1	4	-0.051319989	-1.0730544	-3.9733374	15.209697
92	1	2	-0.22872846	-0.17300973	-3.9469491	14.004788
93	1	2	-0.1071037	0.99783598	-3.2851752	14.03426
94	1	3	0.21549185	1.3257645	-2.7819288	14.936654
95	1	2	-0.40697744	1.8551793	-3.2326013	12.832163
96	1	3	0.23166321	2.7998168	-2.7039034	12.873108
97	1	2	0.43154532	1.4643462	-3.8306214	11.699867
98	1	7	-0.64920598	2.2774905	-3.7740311	10.570491
99	1	8	0.43542245	2.0020507	-4.2184976	9.7030095
100	1	2	-0.40697744	0.16866002	-4.5455622	11.654866
101	1	3	0.23166321	-0.15433949	-5.0255558	10.739168
102	1	2	-0.10710367	-0.60714299	-4.59912	12.74445
103	1	3	0.21549185	-1.555657	-5.1201846	12.70158
104	1	5	0.12490592	-1.6551415	-4.9203018	15.225288
105	1	5	0.12490592	-0.46852332	-3.9630155	16.143325
106	1	2	-0.14918792	-1.5832065	-1.5120101	15.818792
107	1	3	0.21549192	-0.62394815	-1.4410296	16.317084
108	1	2	-0.31276026	-2.3861789	-0.44140224	15.772016
109	1	3	0.22639623	-2.0740434	0.48646245	16.23259
110	2	2	0.46747574	2.1474993	1.7654188	22.287253
111	2	6	-0.57264727	1.1292808	1.3417468	21.766816
112	2	9	-0.083301886	2.0621461	2.6200032	23.816073
113	4	1	-0.022610991	3.2297737	3.1963665	33.940275
114	4	2	0.27758426	2.0735297	2.9259482	33.213213
115	4	2	-0.31276038	1.993216	3.295778	31.928661
116	4	3	0.22639617	2.8244201	3.8031286	31.453594
117	4	2	-0.14918791	0.77123806	3.0127667	31.147761
118	4	3	0.21549188	0.73305015	3.306962	30.106671
119	4	2	-0.22872846	-0.27440427	2.3941377	31.725456
120	4	4	-0.051319989	-1.5085424	2.0647136	30.930882
121	4	2	-0.22872846	-1.3629404	0.7155641	30.28033
122	4	2	-0.14688504	-1.7292097	-0.40455737	30.930084
123	4	3	0.21549185	-2.1606759	-0.35223688	31.922054
124	4	2	-0.26308226	-1.5446402	-1.7273391	30.29689
125	4	3	0.22634821	-1.8522173	-2.6194007	30.826374
126	4	2	0.43873	-0.9964239	-1.8204	29.078082
127	4	1	-0.44095978	-0.82430308	-3.0710713	28.491364
128	4	2	-0.26308221	-0.57577617	-0.59211644	28.365702
129	4	3	0.22634825	-0.12626057	-0.6640287	27.38308
130	4	2	-0.14688507	-0.74683255	0.60652746	28.934926
131	4	3	0.21549185	-0.43173723	1.4990363	28.409086
132	4	5	0.12490592	-1.6867512	2.8396526	30.154015
133	4	5	0.12490592	-2.4007291	2.0788847	31.594574
134	4	2	-0.14918792	-0.17816894	1.9764077	33.14578
135	4	3	0.21549192	-1.0063439	1.4633144	33.618046
136	4	2	-0.31276026	0.93169124	2.229766	33.85016
137	4	3	0.22639623	0.99516824	1.9236454	34.88664
138	5	2	0.62820011	-0.39759831	-3.1685956	27.538368
139	5	6	-0.49692804	-1.0973602	-3.4603749	26.583688
140	1	1	-0.022610991	3.3124566	2.9247947	34.913128
141	1	2	0.27758426	2.6473555	1.8061238	35.408103
142	1	2	-0.31276038	2.776121	1.4734232	36.699277
143	1	3	0.22639617	3.3927142	2.0703048	37.358342
144	1	2	-0.14918791	2.0716157	0.28885045	37.235341
145	1	3	0.21549188	2.1767948	0.046117547	38.285854
146	1	2	-0.22872846	1.3092606	-0.46972381	36.428121
147	1	4	-0.051319989	0.5559268	-1.6542783	36.970249
148	1	2	-0.22872846	-0.79799407	-1.2260465	37.466331
149	1	2	-0.1071037	-1.8559652	-1.1906114	36.636189
150	1	3	0.21549185	-1.7567613	-1.4965303	35.600969
151	1	2	-0.40697744	-3.1721023	-0.73024401	37.124741
152	1	3	0.23166321	-4.0174958	-0.7157718	36.447513
153	1	2	0.43154532	-3.3165922	-0.32996557	38.39414
154	1	7	-0.64920598	-4.5602729	0.1049375	38.845819
155	1	8	0.43542245	-4.6929306	0.4127887	39.801628
156	1	2	-0.40697744	-2.1524175	-0.3493027	39.30863
157	1	3	0.23166321	-2.2633152	-0.020541999	40.334712
158	1	2	-0.10710367	-0.960311	-0.77124135	38.869561
159	1	3	0.21549185	-0.11276246	-0.77773719	39.543834
160	1	5	0.12490592	1.1276528	-2.1296596	37.796658
161	1	5	0.12490592	0.44980959	-2.4282294	36.178438
162	1	2	-0.14918792	1.1617968	-0.091347424	35.000591
163	1	3	0.21549192	0.53769779	-0.68474995	34.343413
164	1	2	-0.31276026	1.7966174	0.98449743	34.518186
165	1	3	0.22639623	1.6844225	1.2539241	33.476403
166	2	2	0.46747574	0.66702422	-3.0106623	27.402336
167	2	6	-0.57264727	1.3513282	-2.6336252	28.338654
168	2	9	-0.083301886	1.4029038	-3.2990999	25.837032
169	4	1	-0.022610991	-4.3834052	-0.75106971	50.84203
170	4	2	0.27758426	-3.3284668	-1.2356785	50.073327
171	4	2	-0.31276038	-3.5611458	-1.6920241	48.836028
172	4	3	0.22639617	-4.5661994	-1.6843641	48.431303
173	4	2	-0.14918791	-2.4486905	-2.2075123	48.011501
174	4	3	0.21549188	-2.6564831	-2.5577372	47.008485
175	4	2	-0.22872846	-1.1966929	-2.2349687	48.502978
176	4	4	-0.051319989	-0.049393379	-2.7201325	47.659601
177	4	2	-0.22872846	0.53149599	-1.5802301	46.867255
178	4	2	-0.14688504	1.5043414	-0.80792671	47.385063
179	4	3	0.21549185	1.9052578	-1.0103833	48.370548
180	4	2	-0.26308226	2.0395753	0.33349024	46.613412
181	4	3	0.22634821	2.8283828	0.94065632	47.037515
182	4	2	0.43873	1.5479734	0.61609232	45.399675
183	4	1	-0.44095978	2.0568812	1.6949408	44.681942
184	4	2	-0.26308221	0.46544584	-0.22013472	44.832252
185	4	3	0.22634825	0.061136546	0.0093537256	43.854167
186	4	2	-0.14688507	-0.016735985	-1.2569429	45.526913
187	4	3	0.21549185	-0.8117542	-1.8599668	45.106588
188	4	5	0.12490592	-0.38878419	-3.5231952	46.969879
189	4	5	0.12490592	0.73041391	-3.1762689	48.30808
190	4	2	-0.14918792	-0.94068689	-1.718964	49.870194
191	4	3	0.21549192	0.064840817	-1.7204258	50.271549
192	4	2	-0.31276026	-1.9493826	-1.248137	50.613824
193	4	3	0.22639623	-1.7562575	-0.87430483	51.611312
194	5	2	0.62820011	1.6878558	1.9352309	43.73017
195	5	6	-0.49692804	2.3598272	1.7049151	42.7394
196	1	1	-0.022610991	-4.2300244	-0.40024378	51.78034
197	1	2	0.27758426	-3.0217173	0.19074148	52.140222
198	1	2	-0.31276038	-2.8493109	0.64414901	53.38886
199	1	3	0.22639617	-3.6433803	0.55185815	54.118077
200	1	2	-0.14918791	-1.5687652	1.270814	53.781796
201	1	3	0.21549188	-1.4443579	1.6168946	54.800772
202	1	2	-0.22872846	-0.57498772	1.4025322	52.885537
203	1	4	-0.051319989	0.74644504	2.0023494	53.283807
204	1	2	-0.22872846	1.6666524	0.93245578	53.804505
205	1	2	-0.1071037	2.4628252	0.24215551	52.968271
206	1	3	0.21549185	2.4748251	0.46410006	51.907278
207	1	2	-0.40697744	3.3333367	-0.83370437	53.485546
208	1	3	0.23166321	3.9762056	-1.3750412	52.802017
209	1	2	0.43154532	3.3235814	-1.1393856	54.788979
210	1	7	-0.64920598	4.1455067	-2.1567449	55.267847
211	1	8	0.43542245	4.1543462	-2.4055931	56.249651
212	1	2	-0.40697744	2.436647	-0.39591058	55.712321
213	1	3	0.23166321	2.4209853	-0.64399118	56.766568
214	1	2	-0.10710367	1.6511741	0.58293305	55.246672
215	1	3	0.21549185	1.0018752	1.1186552	55.928169
216	1	5	0.12490592	0.59711307	2.782846	54.061197
217	1	5	0.12490592	1.2061993	2.5153989	52.410519
218	1	2	-0.14918792	-0.7672284	0.8896967	51.506117
219	1	3	0.21549192	0.031265724	0.9750737	50.77905
220	1	2	-0.31276026	-1.9257521	0.31810991	51.153604
221	1	3	0.22639623	-2.0585294	-0.053182586	50.146131
222	2	2	0.46747574	0.70819736	2.3897455	43.627433
223	2	6	-0.57264727	0.00035440589	2.5395942	44.609077
224	2	9	-0.083301886	0.14426963	2.9097644	42.050583
225	4	1	-0.022610991	-4.477703	0.94690604	66.782396
226	4	2	0.27758426	-3.1726022	1.3645797	67.029189
227	4	2	-0.31276038	-2.8261333	1.7763776	68.255435
228	4	3	0.22639617	-3.5568855	1.7845512	69.05539
229	4	2	-0.14918791	-1.443656	2.2206962	68.528322
230	4	3	0.21549188	-1.1809901	2.535459	69.530224
231	4	2	-0.22872846	-0.52702732	2.2278758	67.543669
232	4	4	-0.051319989	0.89354038	2.6399959	67.81773
233	4	2	-0.22872846	1.7050536	1.4498443	68.25317
234	4	2	-0.14688504	2.3210572	0.66854571	67.347014
235	4	3	0.21549185	2.2660454	0.89868892	66.290173
236	4	2	-0.26308226	3.0824397	-0.52077376	67.783556
237	4	3	0.22634821	3.5809752	-1.1350831	67.045438
238	4	2	0.43873	3.1505762	-0.83749926	69.083454
239	4	1	-0.44095978	3.867918	-1.961239	69.484293
240	4	2	-0.26308221	2.4602412	0.0091340295	70.083334
241	4	3	0.22634825	2.5077218	-0.24758522	71.134344
242	4	2	-0.14688507	1.7749478	1.0890638	69.690717
243	4	3	0.21549185	1.268991	1.6995956	70.428025
244	4	5	0.12490592	0.92377497	3.4242747	68.605006
245	4	5	0.12490592	1.3373481	3.0971332	66.906278
246	4	2	-0.14918792	-0.91142616	1.7611487	66.188869
247	4	3	0.21549192	-0.17908447	1.7466299	65.3916
248	4	2	-0.31276026	-2.1633958	1.3546918	65.944951
249	4	3	0.22639623	-2.4380008	1.0166013	64.953832
250	5	2	0.62820011	3.9353006	-2.2287968	70.496055
251	5	6	-0.49692804	4.9793712	-2.061855	71.102902
252	1	1	-0.022610991	-4.7614538	0.6306194	65.862354
253	1	2	0.27758426	-3.8565876	0.016164859	65.0007
254	1	2	-0.31276038	-4.2621007	-0.3902687	63.790422
255	1	3	0.22639617	-5.2879026	-0.24196683	63.479685
256	1	2	-0.14918791	-3.3081374	-1.0413256	62.866851
257	1	3	0.21549188	-3.6526025	-1.3485763	61.8868
258	1	2	-0.22872846	-2.0321784	-1.2424385	63.240624
259	1	4	-0.051319989	-1.0424237	-1.8677919	62.29516
260	1	2	-0.22872846	-0.38793677	-0.80763119	61.452374
261	1	2	-0.1071037	0.72300394	-0.17895342	61.876954
262	1	3	0.21549185	1.1816054	-0.44511652	62.822444
263	1	2	-0.40697744	1.3344929	0.88863766	61.058927
264	1	3	0.23166321	2.2343526	1.379894	61.408867
265	1	2	0.43154532	0.77715308	1.2484334	59.896003
266	1	7	-0.64920598	1.3587049	2.2575866	59.13226
267	1	8	0.43542245	0.95435075	2.5466443	58.249715
268	1	2	-0.40697744	-0.45567408	0.57322814	59.431027
269	1	3	0.23166321	-0.91342353	0.86532923	58.493813
270	1	2	-0.10710367	-1.0082831	-0.39809764	60.167967
271	1	3	0.21549185	-1.9127905	-0.88362272	59.822776
272	1	5	0.12490592	-1.5496311	-2.6100077	61.641198
273	1	5	0.12490592	-0.2753972	-2.4313954	62.870701
274	1	2	-0.14918792	-1.5852272	-0.78145598	64.578715
275	1	3	0.21549192	-0.55604152	-0.92290799	64.885761
276	1	2	-0.31276026	-2.4493564	-0.18768403	65.411703
277	1	3	0.22639623	-2.1162057	0.14549386	66.385609
278	2	2	0.46747574	3.0758405	-2.655117	71.002462
279	2	6	-0.57264727	2.0072102	-2.7409179	70.421266
280	2	9	-0.083301886	3.2244513	-3.2216838	72.65528
281	4	1	-0.022610991	-2.1799758	20.116442	1.9339916
282	4	2	0.27758426	-2.1037159	18.726967	1.8872074
283	4	2	-0.31276038	-3.2273501	17.999747	1.8436764
284	4	3	0.22639617	-4.1943577	18.488511	1.8436448
285	4	2	-0.14918791	-3.1576677	16.524726	1.7928064
286	4	3	0.21549188	-4.0778007	15.956617	1.7429618
287	4	2	-0.22872846	-1.9654734	15.901548	1.8039288
288	4	4	-0.051319989	-1.8798663	14.402465	1.7123599
289	4	2	-0.22872846	-1.8344728	13.971663	0.27119
290	4	2	-0.14688504	-0.66147417	13.875219	-0.38132735
291	4	3	0.21549185	0.27254178	14.079556	0.12736173
292	4	2	-0.26308226	-0.63199838	13.489694	-1.8079508
293	4	3	0.22634821	0.31852358	13.406541	-2.318171
294	4	2	0.43873	-1.7745899	13.249426	-2.4647992
295	4	1	-0.44095978	-1.7364272	12.8896	-3.8090875
296	4	2	-0.26308221	-3.0692295	13.370832	-1.756083
297	4	3	0.22634825	-3.9951727	13.183738	-2.2856169
298	4	2	-0.14688507	-3.097754	13.714531	-0.46337972
299	4	3	0.21549185	-4.0490133	13.805933	0.04565507
300	4	5	0.12490592	-2.75192	13.9336	2.2178289
301	4	5	0.12490592	-0.97682691	14.041483	2.2517085
302	4	2	-0.14918792	-0.72238535	16.710493	1.8416309
303	4	3	0.21549192	0.24371818	16.221852	1.8346506
304	4	2	-0.31276026	-0.78776148	18.046958	1.8830805
305	4	3	0.22639623	0.12296812	18.63157	1.911896
306	5	2	0.62820011	-2.6177229	12.696665	-4.343768
307	5	6	-0.49692804	-2.9106758	11.552066	-4.6442447
308	1	1	-0.022610991	-1.3425909	20.686314	1.9665839
309	1	2	0.27758426	-0.15669006	20.259147	1.3750156
310	1	2	-0.31276038	0.93363349	21.034968	1.435822
311	1	3	0.22639617	0.89694737	21.989995	1.943165
312	1	2	-0.14918791	2.1987036	20.589077	0.81317912
313	1	3	0.21549188	3.0729297	21.224548	0.88710352
314	1	2	-0.22872846	2.2593105	19.409643	0.17015025
315	1	4	-0.051319989	3.5507901	18.92709	-0.43301404
316	1	2	-0.22872846	4.3420679	18.152505	0.58506214
317	1	2	-0.1071037	4.1561913	16.829212	0.74010305
318	1	3	0.21549185	3.4518102	16.292938	0.11451058
319	1	2	-0.40697744	4.910251	16.085925	1.7705188
320	1	3	0.23166321	4.7572864	15.018871	1.8779244
321	1	2	0.43154532	5.7727223	16.728306	2.5679921
322	1	7	-0.64920598	6.4776224	16.020382	3.5384849
323	1	8	0.43542245	7.134723	16.485412	4.1532273
324	1	2	-0.40697744	5.9691205	18.187754	2.4149981
325	1	3	0.23166321	6.6612863	18.712567	3.0620716
326	1	2	-0.10710367	5.2910293	18.862212	1.4783929
327	1	3	0.21549185	5.4371331	19.930509	1.3763149
328	1	5	0.12490592	4.1499357	19.788042	-0.80124684
329	1	5	0.12490592	3.3381306	18.292065	-1.3211273
330	1	2	-0.14918792	1.0513278	18.549186	0.11403413
331	1	3	0.21549192	1.0912324	17.58954	-0.38695993
332	1	2	-0.31276026	-0.091951691	18.952508	0.6827149
333	1	3	0.22639623	-0.96843165	18.319871	0.63751132
334	2	2	0.46747574	-3.2683501	13.51608	-4.6303213
335	2	6	-0.57264727	-3.0213865	14.649755	-4.2549404
336	2	9	-0.083301886	-4.6732603	13.209923	-5.6340078
337	4	1	-0.022610991	-4.4333861	15.803531	17.666717
338	4	2	0.27758426	-3.3225565	15.252243	17.033641
339	4	2	-0.31276038	-3.4693747	14.62093	15.861811
340	4	3	0.22639617	-4.4483465	14.5388	15.404796
341	4	2	-0.14918791	-2.2970379	14.033241	15.181093
342	4	3	0.21549188	-2.4356842	13.540337	14.22731
343	4	2	-0.22872846	-1.0763213	14.116057	15.740372
344	4	4	-0.051319989	0.1311473	13.556922	15.038693
345	4	2	-0.22872846	0.7293826	14.594404	14.127447
346	4	2	-0.14688504	1.6498003	15.463134	14.584771
347	4	3	0.21549185	1.9961437	15.413024	15.60968
348	4	2	-0.26308226	2.2012024	16.503468	13.691231
349	4	3	0.22634821	2.9477262	17.189605	14.06892
350	4	2	0.43873	1.7759702	16.59817	12.424384
351	4	1	-0.44095978	2.29946	17.583191	11.591477
352	4	2	-0.26308221	0.75067453	15.655625	11.920908
353	4	3	0.22634825	0.39982195	15.733405	10.899324
354	4	2	-0.14688507	0.25417217	14.709897	12.726581
355	4	3	0.21549185	-0.49887928	14.028178	12.351699
356	4	5	0.12490592	-0.14610855	12.654968	14.45097
357	4	5	0.12490592	0.88209987	13.221537	15.787206
358	4	2	-0.14918792	-0.91548521	14.825244	17.033533
359	4	3	0.21549192	0.064004586	14.913056	17.486372
360	4	2	-0.31276026	-1.978325	15.360948	17.646333
361	4	3	0.22639623	-1.8545806	15.87596	18.590515
362	5	2	0.62820011	1.981974	17.676493	10.596346
363	5	6	-0.49692804	2.7174885	17.33328	9.6867092
364	1	1	-0.022610991	-4.3451895	16.286227	18.553428
365	1	2	0.27758426	-3.1758059	16.961403	18.893228
366	1	2	-0.31276038	-3.0897364	17.589376	20.073331
367	1	3	0.22639617	-3.9233446	17.572887	20.763002
368	1	2	-0.14918791	-1.8511389	18.306864	20.444803
369	1	3	0.21549188	-1.796551	18.795105	21.410309
370	1	2	-0.22872846	-0.80926382	18.345822	19.595566
371	1	4	-0.051319989	0.47049319	19.038841	19.978359
372	1	2	-0.22872846	1.3846519	18.08292	20.694676
373	1	2	-0.1071037	2.2464768	17.310048	20.009388
374	1	3	0.21549185	2.3161981	17.382713	18.930051
375	1	2	-0.40697744	3.1113988	16.346091	20.720397
376	1	3	0.23166321	3.8073703	15.736762	20.156588
377	1	2	0.43154532	3.0315546	16.224305	22.051286
378	1	7	-0.64920598	3.8488107	15.311294	22.713403
379	1	8	0.43542245	3.8052908	15.201694	23.719403
380	1	2	-0.40697744	2.0726179	17.058885	22.810157
381	1	3	0.23166321	2.000304	16.959293	23.886298
382	1	2	-0.10710367	1.2919193	17.936827	22.168551
383	1	3	0.21549185	0.58979421	18.540102	22.730783
384	1	5	0.12490592	0.25538858	19.914359	20.628751
385	1	5	0.12490592	0.96848299	19.440619	19.06852
386	1	2	-0.14918792	-0.90581997	17.640201	18.29344
387	1	3	0.21549192	-0.067750354	17.650293	17.607112
388	1	2	-0.31276026	-2.0264537	16.986907	17.960964
389	1	3	0.22639623	-2.0894452	16.475032	17.009908
390	2	2	0.46747574	0.99905011	18.079434	10.376419
391	2	6	-0.57264727	0.23031283	18.340543	11.286356
392	2	9	-0.083301886	0.51733707	18.356261	8.7132259
393	4	1	-0.022610991	0.97178325	20.778763	34.549916
394	4	2	0.27758426	0.06114189	20.009784	33.830159
395	4	2	-0.31276038	-0.44062356	20.475867	32.679379
396	4	3	0.22639617	-0.13981841	21.447707	32.306501
397	4	2	-0.14918791	-1.4068279	19.667521	31.907267
398	4	3	0.21549188	-1.7886587	20.056728	30.972067
399	4	2	-0.22872846	-1.7998229	18.463883	32.361814
400	4	4	-0.051319989	-2.752159	17.614077	31.565667
401	4	2	-0.22872846	-1.9912531	16.746262	30.599985
402	4	2	-0.14688504	-1.540802	15.534044	30.972311
403	4	3	0.21549185	-1.7418313	15.150515	31.964983
404	4	2	-0.26308226	-0.76018881	14.707004	30.028171
405	4	3	0.22634821	-0.41212882	13.730177	30.337032
406	4	2	0.43873	-0.48239727	15.166153	28.800691
407	4	1	-0.44095978	0.25586485	14.380733	27.91971
408	4	2	-0.26308221	-0.96097921	16.506597	28.391693
409	4	3	0.22634825	-0.73268994	16.883666	27.40251
410	4	2	-0.14688507	-1.6722188	17.254564	29.24299
411	4	3	0.21549185	-2.0138127	18.235542	28.93744
412	4	5	0.12490592	-3.470496	18.255047	31.009825
413	4	5	0.12490592	-3.3620852	16.985756	32.25115
414	4	2	-0.14918792	-1.2340647	17.945954	33.631753
415	4	3	0.21549192	-1.5296919	16.971844	34.000384
416	4	2	-0.31276026	-0.35530381	18.678061	34.327404
417	4	3	0.22639623	0.052830325	18.295115	35.254123
418	5	2	0.62820011	0.48543192	14.719043	26.95398
419	5	6	-0.49692804	-0.08526134	14.241112	25.988523
420	1	1	-0.022610991	1.3646438	20.44537	35.422578
421	1	2	0.27758426	1.5454927	19.085048	35.65838
422	1	2	-0.31276038	2.0666527	18.675671	36.822512
423	1	3	0.22639617	2.3458553	19.396538	37.579623
424	1	2	-0.14918791	2.2601009	17.233026	37.083772
425	1	3	0.21549188	2.668724	16.922276	38.037722
426	1	2	-0.22872846	1.927845	16.324166	36.150067
427	1	4	-0.051319989	2.0829486	14.851747	36.419342
428	1	2	-0.22872846	0.83743755	14.307525	37.063629
429	1	2	-0.1071037	-0.18436275	13.855719	36.314303
430	1	3	0.21549185	-0.11652218	13.850812	35.232415
431	1	2	-0.40697744	-1.4188008	13.360417	36.95748
432	1	3	0.23166321	-2.2299746	12.990851	36.341886
433	1	2	0.43154532	-1.5345859	13.372856	38.291239
434	1	7	-0.64920598	-2.7027749	12.906445	38.889312
435	1	8	0.43542245	-2.8128517	12.906864	39.896201
436	1	2	-0.40697744	-0.42109323	13.885365	39.121562
437	1	3	0.23166321	-0.51285537	13.903004	40.20068
438	1	2	-0.10710367	0.70041556	14.329484	38.541125
439	1	3	0.21549185	1.5083136	14.707128	39.155707
440	1	5	0.12490592	2.9591753	14.670486	37.079025
441	1	5	0.12490592	2.2918041	14.314389	35.468105
442	1	2	-0.14918792	1.3415986	16.782099	34.865789
443	1	3	0.21549192	1.0547155	16.059236	34.111682
444	1	2	-0.31276026	1.1626475	18.088606	34.633045
445	1	3	0.22639623	0.73489397	18.414805	33.69437
446	2	2	0.46747574	1.2316818	15.493912	26.814132
447	2	6	-0.57264727	1.7386466	16.033244	27.78327
448	2	9	-0.083301886	1.7091868	15.968903	25.1951
449	4	1	-0.022610991	1.5772503	12.466108	47.908166
450	4	2	0.27758426	0.44970731	13.269944	48.053566
451	4	2	-0.31276038	-0.71062388	12.725217	48.441125
452	4	3	0.22639617	-0.77451266	11.662543	48.642708
453	4	2	-0.14918791	-1.9129015	13.569363	48.599477
454	4	3	0.21549188	-2.8370144	13.111268	48.928174
455	4	2	-0.22872846	-1.8538124	14.888467	48.342039
456	4	4	-0.051319989	-3.0602585	15.765495	48.537681
457	4	2	-0.22872846	-3.1075329	16.276122	49.952476
458	4	2	-0.14688504	-2.4769513	17.414785	50.294265
459	4	3	0.21549185	-1.9473192	17.997928	49.55107
460	4	2	-0.26308226	-2.4967729	17.885815	51.695154
461	4	3	0.22634821	-1.9938078	18.807989	51.954679
462	4	2	0.43873	-3.1294127	17.173232	52.636795
463	4	1	-0.44095978	-3.1400487	17.623908	53.95392
464	4	2	-0.26308221	-3.810393	15.910558	52.269329
465	4	3	0.22634825	-4.3172035	15.328603	53.0291
466	4	2	-0.14688507	-3.7980934	15.485204	51.000887
467	4	3	0.21549185	-4.2942057	14.558271	50.741981
468	4	5	0.12490592	-3.99024	15.200418	48.31045
469	4	5	0.12490592	-3.0301252	16.61559	47.821361
470	4	2	-0.14918792	-0.56425809	15.490562	47.922979
471	4	3	0.21549192	-0.49927753	16.553614	47.728371
472	4	2	-0.31276026	0.52492768	14.724637	47.784539
473	4	3	0.22639623	1.4626515	15.169792	47.477063
474	5	2	0.62820011	-3.6287162	17.083078	54.707908
475	5	6	-0.49692804	-4.679548	17.493727	55.169791
476	1	1	-0.022610991	2.4655514	12.857327	47.616793
477	1	2	0.27758426	2.8104323	14.170656	47.925027
478	1	2	-0.31276038	3.9918861	14.659089	47.525027
479	1	3	0.22639617	4.6775211	14.038648	46.963084
480	1	2	-0.14918791	4.3663499	16.053497	47.844883
481	1	3	0.21549188	5.3198424	16.433761	47.498746
482	1	2	-0.22872846	3.5305252	16.835271	48.550893
483	1	4	-0.051319989	3.8830422	18.267668	48.848473
484	1	2	-0.22872846	3.4105085	19.161084	47.734425
485	1	2	-0.1071037	2.1683317	19.677382	47.745622
486	1	3	0.21549185	1.4952579	19.480311	48.572207
487	1	2	-0.40697744	1.7013733	20.521211	46.626363
488	1	3	0.23166321	0.70180859	20.937974	46.653146
489	1	2	0.43154532	2.5070263	20.764659	45.585148
490	1	7	-0.64920598	2.0579578	21.55914	44.532992
491	1	8	0.43542245	2.6496871	21.756251	43.734903
492	1	2	-0.40697744	3.8690882	20.185006	45.557617
493	1	3	0.23166321	4.522055	20.374285	44.714388
494	1	2	-0.10710367	4.296165	19.424703	46.573233
495	1	3	0.21549185	5.2923069	19.000664	46.542936
496	1	5	0.12490592	4.9818124	18.375476	48.978441
497	1	5	0.12490592	3.4227495	18.576788	49.812736
498	1	2	-0.14918792	2.218504	16.292695	48.98329
499	1	3	0.21549192	1.5292546	16.917166	49.5387
500	1	2	-0.31276026	1.8791706	15.03132	48.688432
501	1	3	0.22639623	0.92109233	14.642788	49.007209
502	2	2	0.46747574	-3.1983947	16.15838	55.077538
503	2	6	-0.57264727	-2.1947993	15.702429	54.555978
504	2	9	-0.083301886	-3.9452802	15.321286	56.42525
505	4	1	-0.022610991	-1.1542795	19.953318	63.161774
506	4	2	0.27758426	-0.14179984	19.435961	63.965436
507	4	2	-0.31276038	0.57144925	20.255896	64.747919
508	4	3	0.22639617	0.36275062	21.319065	64.758462
509	4	2	-0.14918791	1.6473981	19.71712	65.605348
510	4	3	0.21549188	2.2017386	20.395366	66.241403
511	4	2	-0.22872846	1.9273008	18.401308	65.595575
512	4	4	-0.051319989	2.9932423	17.834624	66.493129
513	4	2	-0.22872846	2.4061422	17.466834	67.829043
514	4	2	-0.14688504	1.8720132	16.248733	68.033839
515	4	3	0.21549185	1.8800813	15.502487	67.249011
516	4	2	-0.26308226	1.2623662	15.912128	69.337595
517	4	3	0.22634821	0.84499937	14.925905	69.49219
518	4	2	0.43873	1.2233935	16.823559	70.318651
519	4	1	-0.44095978	0.64456918	16.497712	71.542101
520	4	2	-0.26308221	1.7943419	18.171209	70.092892
521	4	3	0.22634825	1.7587187	18.912594	70.881473
522	4	2	-0.14688507	2.3513434	18.476138	68.915271
523	4	3	0.21549185	2.7618266	19.465509	68.757111
524	4	5	0.12490592	3.8134687	18.571863	66.632838
525	4	5	0.12490592	3.4549112	16.942654	66.015702
526	4	2	-0.14918792	1.1282992	17.494231	64.735407
527	4	3	0.21549192	1.332645	16.431032	64.730437
528	4	2	-0.31276026	0.15087557	17.983893	63.962746
529	4	3	0.22639623	-0.42764066	17.316948	63.336222
530	5	2	0.62820011	0.60264745	17.194626	72.324623
531	5	6	-0.49692804	1.3316562	17.068386	73.293553
532	1	1	-0.022610991	-1.7069188	19.351114	62.562633
533	1	2	0.27758426	-1.9538351	18.02425	62.905047
534	1	2	-0.31276038	-2.6875171	17.25325	62.091615
535	1	3	0.22639617	-3.0871748	17.656335	61.170411
536	1	2	-0.14918791	-2.9530561	15.842007	62.444865
537	1	3	0.21549188	-3.5356771	15.231359	61.765732
538	1	2	-0.22872846	-2.4724198	15.327673	63.590585
539	1	4	-0.051319989	-2.7023108	13.882571	63.941886
540	1	2	-0.22872846	-1.6068105	13.02749	63.366302
541	1	2	-0.1071037	-0.47361694	12.803806	64.05589
542	1	3	0.21549185	-0.34180093	13.213969	65.050626
543	1	2	-0.40697744	0.61213536	11.995212	63.464151
544	1	3	0.23166321	1.5153382	11.815428	64.034624
545	1	2	0.43154532	0.48135197	11.492608	62.23015
546	1	7	-0.64920598	1.510822	10.733536	61.67888
547	1	8	0.43542245	1.4341979	10.343835	60.747106
548	1	2	-0.40697744	-0.75567124	11.749748	61.458386
549	1	3	0.23166321	-0.86322569	11.350252	60.457355
550	1	2	-0.10710367	-1.742924	12.477485	61.994727
551	1	3	0.21549185	-2.6425679	12.664806	61.421511
552	1	5	0.12490592	-3.6880259	13.543766	63.55538
553	1	5	0.12490592	-2.7432036	13.765097	65.047216
554	1	2	-0.14918792	-1.6517919	16.183057	64.483694
555	1	3	0.21549192	-1.2451751	15.776319	65.401701
556	1	2	-0.31276026	-1.4083264	17.459335	64.159666
557	1	3	0.22639623	-0.80941328	18.076761	64.81585
558	2	2	0.46747574	-0.090367961	18.027601	72.272167
559	2	6	-0.57264727	-0.75624975	18.20341	71.26578
560	2	9	-0.083301886	-0.25345183	19.119197	73.634779
561	4	1	-0.022610991	4.0237958	33.334633	-2.2808937
562	4	2	0.27758426	3.3272874	32.639259	-1.2960188