Title

92 atoms
95 bonds
166 angles
259 dihedrals
78 impropers

9 atom types
13 bond types
6 angle types
13 dihedral types
2 improper types
-5.728000164 94.27199984 xlo xhi
-14.28299999 85.71700001 ylo yhi
-4.202000141 95.79799986 zlo zhi
0.0 0.0 0.0 xy xz yz

Masses

1	15.99943
2	12.01078
3	1.007947
4	12.01078
5	1.007947
6	15.99943
7	15.99943
8	1.007947
9	35.4532


Pair Coeffs

1	0.16846514	3.0251065
2	0.086879315	3.4806469
3	0.015611343	2.5725815
4	0.10884061	3.3795318
5	0.015779483	2.6445434
6	0.2102061	3.0398122
7	0.20947353	2.99716
8	1.2326e-05	0.53453923
9	0.2656001	3.3075278

Bond Coeffs

1 harmonic	425.69104206635	1.362945806494
2 harmonic	300.03137914615	1.451203938761
3 harmonic	360.7852444772	1.387193227181
4 harmonic	397.2545789619	1.085358495916
5 harmonic	289.73813263395	1.498646816465
6 harmonic	264.62148576755	1.52190126495
7 harmonic	301.15400723785	1.345741232799
8 harmonic	370.04670688625	1.093899492634
9 harmonic	582.698766451	1.225198386222
10 harmonic	279.1350963404	1.454628925034
11 harmonic	385.7604595587	1.369745182308
12 harmonic	543.5267831885	0.9716763312559
13 harmonic	218.0227703685	1.746066037062


Angle Coeffs

1 harmonic	57.8982893754	126.8062420451
2 harmonic	65.09061609600001	110.3538806181
3 harmonic	34.066775159195	129.1835929926
4 harmonic	53.20531626545	116.5475862634
5 harmonic	201.41175231035	127.4691416191
6 harmonic	48.776492647595	115.6030999533


Dihedral Coeffs

1 fourier 1	3.661930099076	2	180
2 fourier 1	1.532232714475	2	180
3 fourier 1	0.457973137376	1	0
4 fourier 1	0.02664938770063	3	0
5 fourier 1	0.1155372516788	3	0
6 fourier 1	0.09223874044423	3	0
7 fourier 1	0.3159935921949	2	180
8 fourier 1	0.3247796806857	1	180
9 fourier 1	0.1040663847541	3	0
10 fourier 1	2.779853741805	2	180
11 fourier 1	0.9974165607242	2	180
12 fourier 1	0.1911926717192	3	0
13 fourier 1	0.8283030590042	2	180


Improper Coeffs

1 0.3666666666666667	-1	2
2 3.5	-1	2


Atoms

1	1	1	-0.029348999	2.3180001	-3.7939999	-3.8670001
2	1	2	0.271696	1.7359999	-2.98	-2.898
3	1	2	-0.324862	1.425	-3.4630001	-1.688
4	1	3	0.222394	1.6160001	-4.5	-1.446
5	1	2	-0.15568	0.80800003	-2.586	-0.671
6	1	3	0.207166	0.52600002	-3.043	0.26699999
7	1	2	-0.25739899	0.59600002	-1.271	-0.91500002
8	1	4	0.026458001	-0.109	-0.35100001	0.112
9	1	2	-0.25739899	0.39300001	1.096	-0.119
10	1	2	-0.158951	1.699	1.3839999	0.093999997
11	1	3	0.207166	2.382	0.62300003	0.44999999
12	1	2	-0.27686501	2.2349999	2.7379999	-0.148
13	1	3	0.22259501	3.277	2.944	0.061999999
14	1	2	0.433972	1.441	3.7	-0.625
15	1	1	-0.443151	1.954	4.9749999	-0.84799999
16	1	2	-0.27686501	0.026000001	3.4000001	-0.92000002
17	1	3	0.22259501	-0.611	4.1690001	-1.3380001
18	1	2	-0.158951	-0.46799999	2.177	-0.69400001
19	1	3	0.207166	-1.498	1.999	-0.96399999
20	1	4	-0.130539	0.233	-0.80800003	1.586
21	1	4	-0.13032	0.131	0.273	2.6889999
22	1	4	-0.122608	0.114	-0.35800001	4.079
23	1	5	0.066003002	-0.78600001	-0.99800003	4.1999998
24	1	5	0.066003002	1.026	-0.972	4.2350001
25	1	5	0.066003002	0.086000003	0.44	4.8499999
26	1	5	0.087996997	1.008	0.95099998	2.6370001
27	1	5	0.087996997	-0.77399999	0.89700001	2.5769999
28	1	5	0.103596	-0.42199999	-1.665	1.862
29	1	5	0.103596	1.277	-1.191	1.624
30	1	4	-0.130539	-1.641	-0.54400003	-0.171
31	1	4	-0.13032	-2.6159999	0.114	0.824
32	1	4	-0.122608	-4.0549998	0.021	0.322
33	1	5	0.066003002	-4.164	0.56999999	-0.63800001
34	1	5	0.066003002	-4.7399998	0.47600001	1.069
35	1	5	0.066003002	-4.3449998	-1.041	0.17399999
36	1	5	0.087996997	-2.3740001	1.183	0.98199999
37	1	5	0.087996997	-2.563	-0.41	1.802
38	1	5	0.103596	-1.87	-0.20299999	-1.205
39	1	5	0.103596	-1.869	-1.6339999	-0.164
40	1	2	-0.15568	0.903	-0.76800001	-2.2920001
41	1	3	0.207166	0.67699999	0.25299999	-2.5699999
42	1	2	-0.324862	1.449	-1.569	-3.2130001
43	1	3	0.222394	1.668	-1.1849999	-4.2020001
44	1	2	0.62678999	1.351	5.7449999	-1.225
45	1	6	-0.50634199	1.852	6.8070002	-1.556
46	1	1	-0.029348999	2.5280001	-4.77	-3.688
47	1	2	0.271696	1.663	-5.585	-2.96
48	1	2	-0.324862	0.51700002	-5.1020002	-2.4619999
49	1	3	0.222394	0.249	-4.0640001	-2.6129999
50	1	2	-0.15568	-0.38999999	-5.9780002	-1.693
51	1	3	0.207166	-1.271	-5.5209999	-1.266
52	1	2	-0.25739899	-0.115	-7.2940001	-1.522
53	1	4	0.026458001	-1.0190001	-8.2139997	-0.66299999
54	1	2	-0.25739899	-0.86900002	-9.6599998	-1.196
55	1	2	-0.114434	-1.285	-9.948	-2.4519999
56	1	3	0.207166	-1.745	-9.1879997	-3.0699999
57	1	2	-0.41571999	-1.131	-11.302	-3.0190001
58	1	3	0.227457	-1.502	-11.508	-4.0149999
59	1	2	0.42477599	-0.53399998	-12.264	-2.3110001
60	1	7	-0.65156001	-0.39500001	-13.539	-2.8529999
61	1	8	0.43234399	0.056000002	-14.283	-2.3340001
62	1	2	-0.41571999	-0.02	-11.964	-0.95999998
63	1	3	0.227457	0.493	-12.733	-0.396
64	1	2	-0.114434	-0.16500001	-10.741	-0.43599999
65	1	3	0.207166	0.26300001	-10.563	0.53799999
66	1	4	-0.130539	-2.5280001	-7.756	-0.76899999
67	1	4	-0.13032	-3.6010001	-8.8369999	-0.49399999
68	1	4	-0.122608	-4.9710002	-8.2060003	-0.25799999
69	1	5	0.066003002	-4.9489999	-7.566	0.64899999
70	1	5	0.066003002	-5.2690001	-7.592	-1.135
71	1	5	0.066003002	-5.7280002	-9.0050001	-0.11
72	1	5	0.087996997	-3.687	-9.5150003	-1.369
73	1	5	0.087996997	-3.348	-9.4610004	0.38100001
74	1	5	0.103596	-2.697	-6.9000001	-0.079000004
75	1	5	0.103596	-2.73	-7.3730001	-1.794
76	1	4	-0.130539	-0.498	-8.0209999	0.80400002
77	1	4	-0.13032	-1.326	-8.6780005	1.925
78	1	4	-0.122608	-0.60399997	-8.5860004	3.266
79	1	5	0.066003002	0.36199999	-9.1339998	3.2219999
80	1	5	0.066003002	-1.233	-9.04	4.0599999
81	1	5	0.066003002	-0.41100001	-7.5240002	3.529
82	1	5	0.087996997	-1.52	-9.7469997	1.71
83	1	5	0.087996997	-2.3010001	-8.1549997	2.026
84	1	5	0.103596	0.55900002	-8.3610001	0.86799997
85	1	5	0.103596	-0.46799999	-6.9310002	1.031
86	1	2	-0.15568	1.196	-7.7969999	-2.0420001
87	1	3	0.207166	1.506	-8.8170004	-1.863
88	1	2	-0.324862	2.02	-6.9949999	-2.727
89	1	3	0.222394	2.961	-7.3790002	-3.098
90	1	2	0.46628901	0.28	5.598	-1.319
91	1	6	-0.58550298	-0.20999999	4.5089998	-1.072
92	1	9	-0.089441001	-0.74599999	6.927	-1.8279999

Bonds

1	1	1	2
2	2	1	46
3	3	2	3
4	3	2	42
5	4	3	4
6	3	3	5
7	4	5	6
8	3	5	7
9	5	7	8
10	3	7	40
11	5	8	9
12	6	8	20
13	6	8	30
14	3	9	10
15	3	9	18
16	4	10	11
17	3	10	12
18	4	12	13
19	3	12	14
20	1	14	15
21	3	14	16
22	7	15	44
23	4	16	17
24	3	16	18
25	4	18	19
26	6	20	21
27	8	20	28
28	8	20	29
29	6	21	22
30	8	21	26
31	8	21	27
32	8	22	23
33	8	22	24
34	8	22	25
35	6	30	31
36	8	30	38
37	8	30	39
38	6	31	32
39	8	31	36
40	8	31	37
41	8	32	33
42	8	32	34
43	8	32	35
44	4	40	41
45	3	40	42
46	4	42	43
47	9	44	45
48	10	44	90
49	1	46	47
50	3	47	48
51	3	47	88
52	4	48	49
53	3	48	50
54	4	50	51
55	3	50	52
56	5	52	53
57	3	52	86
58	5	53	54
59	6	53	66
60	6	53	76
61	3	54	55
62	3	54	64
63	4	55	56
64	3	55	57
65	4	57	58
66	3	57	59
67	11	59	60
68	3	59	62
69	12	60	61
70	4	62	63
71	3	62	64
72	4	64	65
73	6	66	67
74	8	66	74
75	8	66	75
76	6	67	68
77	8	67	72
78	8	67	73
79	8	68	69
80	8	68	70
81	8	68	71
82	6	76	77
83	8	76	84
84	8	76	85
85	6	77	78
86	8	77	82
87	8	77	83
88	8	78	79
89	8	78	80
90	8	78	81
91	4	86	87
92	3	86	88
93	4	88	89
94	9	90	91
95	13	90	92

Angles

1	2	14	15	44
2	1	1	2	3
3	3	9	10	11
4	1	1	2	42
5	1	48	47	88
6	3	87	86	88
7	1	9	18	16
8	3	7	40	41
9	1	57	59	60
10	4	66	53	76
11	3	62	64	65
12	4	77	78	80
13	6	70	68	71
14	1	50	52	86
15	1	44	90	91
16	1	5	7	8
17	4	22	21	26
18	5	15	44	45
19	4	31	30	39
20	1	46	47	48
21	4	31	32	33
22	4	54	53	76
23	6	23	22	25
24	1	5	7	40
25	3	6	5	7
26	4	53	66	67
27	4	21	20	29
28	1	3	2	42
29	6	74	66	75
30	6	33	32	35
31	2	1	46	47
32	1	44	90	92
33	3	47	88	89
34	4	7	8	9
35	4	20	21	26
36	4	32	31	37
37	1	2	3	5
38	4	20	21	22
39	4	52	53	76
40	3	14	16	17
41	1	47	48	50
42	4	76	77	83
43	3	2	42	43
44	1	15	14	16
45	4	53	66	75
46	4	20	21	27
47	6	26	21	27
48	6	72	67	73
49	1	60	59	62
50	1	8	7	40
51	6	36	31	37
52	1	52	86	88
53	1	53	54	55
54	1	10	9	18
55	1	47	88	86
56	4	8	30	38
57	2	2	1	46
58	1	8	9	18
59	1	9	10	12
60	6	69	68	70
61	3	3	5	6
62	1	91	90	92
63	4	21	22	23
64	3	40	42	43
65	4	67	68	69
66	3	86	88	89
67	1	7	40	42
68	6	80	78	81
69	3	48	50	51
70	3	41	40	42
71	6	84	76	85
72	4	20	8	30
73	3	4	3	5
74	1	2	42	40
75	3	59	62	63
76	4	22	21	27
77	4	8	30	39
78	6	24	22	25
79	6	69	68	71
80	4	68	67	72
81	1	45	44	90
82	6	34	32	35
83	1	46	47	88
84	3	56	55	57
85	4	31	32	34
86	1	53	52	86
87	4	8	20	28
88	6	79	78	81
89	1	57	59	62
90	4	7	8	30
91	3	11	10	12
92	1	15	44	90
93	4	54	53	66
94	4	78	77	82
95	1	8	9	10
96	2	59	60	61
97	6	28	20	29
98	4	53	76	77
99	4	66	67	72
100	1	12	14	15
101	4	8	30	31
102	3	51	50	52
103	1	53	54	64
104	4	77	78	81
105	4	31	32	35
106	4	30	31	36
107	3	54	55	56
108	1	55	54	64
109	3	17	16	18
110	1	14	16	18
111	4	66	67	68
112	3	55	57	58
113	4	30	31	32
114	3	10	12	13
115	3	54	64	65
116	4	77	78	79
117	4	67	66	74
118	3	16	18	19
119	4	7	8	20
120	4	31	30	38
121	1	50	52	53
122	4	77	76	84
123	1	3	5	7
124	1	55	57	59
125	4	9	8	30
126	4	21	22	24
127	4	67	68	70
128	1	10	12	14
129	4	53	76	84
130	6	23	22	24
131	1	48	50	52
132	1	54	55	57
133	4	21	20	28
134	6	33	32	34
135	4	76	77	78
136	4	52	53	54
137	4	67	66	75
138	1	59	62	64
139	1	54	64	62
140	4	32	31	36
141	4	77	76	85
142	6	38	30	39
143	4	68	67	73
144	3	2	3	4
145	3	9	18	19
146	4	21	22	25
147	4	67	68	71
148	4	8	20	29
149	4	53	76	85
150	3	13	12	14
151	3	58	57	59
152	3	49	48	50
153	4	78	77	83
154	4	52	53	66
155	6	82	77	83
156	3	47	48	49
157	4	76	77	82
158	4	53	66	74
159	4	66	67	73
160	1	12	14	16
161	3	63	62	64
162	6	79	78	80
163	4	30	31	37
164	4	9	8	20
165	3	52	86	87
166	4	8	20	21

Dihedrals

1	1	63	62	64	65
2	12	35	32	31	36
3	1	58	57	59	60
4	9	76	77	78	80
5	9	75	66	53	76
6	1	56	55	57	58
7	1	8	9	18	16
8	4	7	8	9	18
9	1	8	9	10	12
10	1	47	48	50	52
11	1	5	7	40	42
12	1	57	55	54	64
13	9	66	53	76	85
14	9	28	20	8	30
15	1	17	16	18	19
16	5	52	53	66	75
17	1	51	50	52	86
18	4	18	9	8	20
19	1	5	3	2	42
20	12	36	31	30	38
21	1	9	18	16	17
22	1	46	47	88	86
23	5	7	8	20	28
24	9	20	8	30	39
25	9	22	21	20	28
26	4	5	7	8	9
27	1	1	2	42	40
28	12	35	32	31	37
29	9	78	77	76	84
30	11	15	44	90	91
31	1	56	55	57	59
32	2	16	14	15	44
33	12	26	21	20	28
34	9	53	76	77	82
35	12	79	78	77	83
36	2	42	2	1	46
37	6	8	20	21	22
37	7	8	20	21	22
37	8	8	20	21	22
38	4	55	54	53	66
39	12	80	78	77	82
40	1	50	52	86	87
41	4	5	7	8	30
42	5	52	53	66	67
43	5	54	53	76	84
44	12	71	68	67	72
45	5	7	8	20	29
46	6	67	66	53	76
46	7	67	66	53	76
46	8	67	66	53	76
47	1	53	52	86	87
48	1	12	14	16	17
49	12	73	67	66	75
50	9	22	21	20	29
51	9	78	77	76	85
52	9	68	67	66	75
53	11	15	44	90	92
54	1	1	2	3	4
55	9	30	31	32	35
56	10	14	15	44	90
57	5	54	53	76	77
58	12	83	77	76	85
59	12	37	31	30	39
60	12	70	68	67	72
61	1	53	54	64	65
62	9	53	76	77	83
63	1	41	40	42	43
64	11	45	44	90	91
65	1	50	52	86	88
66	12	27	21	20	29
67	5	9	8	30	38
68	12	34	32	31	36
69	5	54	53	76	85
70	1	57	59	62	64
71	1	53	52	86	88
72	1	2	3	5	7
73	2	3	2	1	46
74	5	7	8	20	21
75	1	2	42	40	7
76	1	1	2	3	5
77	12	24	22	21	26
78	1	54	55	57	58
79	1	48	50	52	53
80	1	60	59	62	63
81	1	8	7	40	41
82	1	15	14	16	17
83	1	4	3	2	42
84	1	13	12	14	15
85	1	49	48	50	51
86	1	52	86	88	89
87	1	55	57	59	60
88	4	64	54	53	66
89	9	8	20	21	26
90	1	46	47	48	49
91	11	45	44	90	92
92	4	52	53	54	55
93	5	54	53	66	74
94	9	8	30	31	36
95	12	23	22	21	26
96	1	87	86	88	89
97	1	3	5	7	8
98	9	32	31	30	38
99	2	1	46	47	48
100	9	20	21	22	23
101	1	53	54	64	62
102	1	54	55	57	59
103	1	60	59	62	64
104	9	66	67	68	69
105	12	36	31	30	39
106	1	50	48	47	88
107	1	53	54	55	56
108	1	15	14	16	18
109	6	8	30	31	32
109	7	8	30	31	32
109	8	8	30	31	32
110	12	72	67	66	74
111	1	13	12	14	16
112	1	49	48	50	52
113	4	10	9	8	30
114	1	3	5	7	40
115	1	10	12	14	15
116	6	21	20	8	30
116	7	21	20	8	30
116	8	21	20	8	30
117	1	58	57	59	62
118	9	8	20	21	27
119	4	50	52	53	54
120	12	26	21	20	29
121	1	6	5	7	8
122	5	54	53	66	75
123	9	74	66	53	76
124	9	8	30	31	37
125	12	23	22	21	27
126	5	9	8	30	31
127	1	9	18	16	14
128	4	9	8	7	40
129	1	3	2	42	43
130	4	55	54	53	76
131	2	1	46	47	88
132	9	66	67	68	70
133	1	56	55	54	64
134	1	4	3	5	6
135	12	69	68	67	72
136	5	52	53	76	84
137	9	76	77	78	81
138	12	80	78	77	83
139	12	81	78	77	82
140	12	71	68	67	73
141	1	6	5	7	40
142	9	53	66	67	72
143	12	82	77	76	84
144	1	9	10	12	13
145	2	14	15	44	45
146	1	53	54	55	57
147	12	72	67	66	75
148	4	50	52	53	66
149	1	10	9	18	19
150	1	12	14	16	18
151	4	76	53	52	86
152	1	10	12	14	16
153	12	33	32	31	36
154	1	59	62	64	65
155	12	25	22	21	26
156	1	11	10	12	13
157	5	52	53	76	77
158	1	55	54	64	65
159	6	53	66	67	68
159	7	53	66	67	68
159	8	53	66	67	68
160	5	54	53	66	67
161	12	70	68	67	73
162	1	48	47	88	89
163	4	52	53	54	64
164	9	76	77	78	79
165	12	69	68	67	73
166	5	52	53	76	85
167	12	81	78	77	83
168	12	82	77	76	85
169	5	9	8	30	39
170	12	34	32	31	37
171	4	5	7	8	20
172	4	66	53	52	86
173	1	47	48	50	51
174	1	5	7	40	41
175	9	66	53	76	84
176	1	3	2	42	40
177	12	33	32	31	37
178	5	9	8	20	28
179	4	10	9	8	20
180	12	25	22	21	27
181	5	7	8	30	38
182	12	24	22	21	27
183	1	8	7	40	42
184	4	64	54	53	76
185	9	20	8	30	38
186	6	66	53	76	77
186	7	66	53	76	77
186	8	66	53	76	77
187	1	10	9	18	16
188	1	51	50	52	53
189	1	49	48	47	88
190	1	46	47	48	50
191	13	57	59	60	61
192	1	11	10	9	18
193	9	29	20	8	30
194	9	30	31	32	33
195	1	7	40	42	43
196	1	55	54	64	62
197	1	48	47	88	86
198	6	53	76	77	78
198	7	53	76	77	78
198	8	53	76	77	78
199	9	32	31	30	39
200	9	20	21	22	24
201	5	9	8	20	29
202	1	54	64	62	59
203	12	79	78	77	82
204	5	7	8	30	39
205	1	12	10	9	18
206	1	47	88	86	52
207	1	55	57	59	62
208	12	73	67	66	74
209	1	14	16	18	19
210	9	68	67	66	74
211	1	2	42	40	41
212	1	8	9	18	19
213	1	54	64	62	63
214	4	18	9	8	30
215	9	30	31	32	34
216	4	20	8	7	40
217	12	83	77	76	84
218	12	37	31	30	38
219	9	20	21	22	25
220	1	47	88	86	87
221	9	66	67	68	71
222	3	2	1	46	47
223	1	4	3	5	7
224	5	9	8	20	21
225	5	7	8	30	31
226	12	27	21	20	28
227	4	30	8	7	40
228	9	53	66	67	73
229	1	9	10	12	14
230	1	48	50	52	86
231	1	46	47	88	89
232	2	12	14	15	44
233	1	8	9	10	11
234	4	50	52	53	76
235	1	57	59	62	63
236	1	2	3	5	6
237	1	1	2	42	43
238	4	7	8	9	10
239	6	20	8	30	31
239	7	20	8	30	31
239	8	20	8	30	31
240	4	54	53	52	86
241	1	11	10	12	14
242	5	52	53	66	74
243	13	61	60	59	62

Impropers

27	1	57	59	55	58
39	1	5	7	3	6
44	1	42	40	43	2
54	1	90	92	44	91
57	1	18	16	19	9
83	1	88	89	47	86
93	1	52	53	86	50
97	1	47	48	88	46
102	2	44	45	90	15
107	1	16	17	18	14
110	1	62	59	63	64
112	1	50	48	51	52
114	1	7	5	8	40
138	1	10	9	11	12
141	1	9	10	18	8
142	1	16	14	17	18
146	1	14	15	16	12
148	1	55	56	57	54
152	1	90	91	92	44
163	1	16	18	14	17
166	1	52	86	50	53
187	1	90	44	91	92
192	1	48	50	47	49
193	1	47	88	46	48
205	1	64	65	54	62
207	1	62	63	64	59
216	1	18	19	9	16
218	1	57	58	59	55
220	1	9	8	10	18
235	1	10	11	12	9
249	1	5	6	7	3
251	1	10	12	9	11
260	1	12	13	14	10
262	1	48	47	49	50
269	1	40	7	41	42
274	2	44	90	15	45
280	1	42	2	40	43
282	1	54	53	55	64
288	1	88	47	86	89
293	1	3	4	5	2
294	1	50	51	52	48
311	1	9	18	8	10
325	1	64	62	65	54
326	1	59	60	62	57
334	1	52	50	53	86
348	1	18	9	16	19
352	1	50	52	48	51
354	1	62	64	59	63
356	1	5	3	6	7
359	1	86	87	88	52
360	1	88	86	89	47
370	1	55	57	54	56
371	1	2	3	42	1
376	1	42	43	2	40
402	1	59	57	60	62
409	1	48	49	50	47
412	1	7	8	40	5
419	1	3	2	4	5
421	1	55	54	56	57
422	1	2	42	1	3
424	1	40	41	42	7
429	1	14	16	12	15
430	1	64	54	62	65
437	1	47	46	48	88
442	1	3	5	2	4
447	1	54	55	64	53
450	1	59	62	57	60
458	1	14	12	15	16
459	1	54	64	53	55
461	1	86	88	52	87
462	2	44	15	45	90
470	1	7	40	5	8
473	1	57	55	58	59
476	1	40	42	7	41
480	1	86	52	87	88
484	1	2	1	3	42
485	1	12	14	10	13
486	1	12	10	13	14
