Title

253 atoms
276 bonds
463 angles
711 dihedrals
384 impropers

10 atom types
14 bond types
8 angle types
18 dihedral types
3 improper types
-14.00399971 85.99600029 xlo xhi
-7.171999931 92.82800007 ylo yhi
-16.79999924 83.20000076 zlo zhi
0.0 0.0 0.0 xy xz yz

Masses

1	14.00672
2	12.01078
3	1.007947
4	15.99943
5	1.007947
6	12.01078
7	18.998403
8	15.99943
9	15.99943
10	1.007947


Pair Coeffs

1	0.16769152	3.206876
2	0.086879315	3.4806469
3	0.015611343	2.5725815
4	0.16846514	3.0251065
5	0.014090815	1.1034277
6	0.10884061	3.3795318
7	0.061	3.1181455
8	0.2102061	3.0398122
9	0.20947353	2.99716
10	1.2326e-05	0.53453923

Bond Coeffs

1 harmonic	390.03554688505	1.390160554689
2 harmonic	505.144496193	1.019481865027
3 harmonic	422.7150220147	1.421786517481
4 harmonic	360.7852444772	1.387193227181
5 harmonic	397.2545789619	1.085358495916
6 harmonic	279.1350963404	1.454628925034
7 harmonic	425.69104206635	1.362945806494
8 harmonic	289.73813263395	1.498646816465
9 harmonic	492.76746816345	1.381897776683
10 harmonic	340.45121009905	1.358690858053
11 harmonic	582.698766451	1.225198386222
12 harmonic	264.62148576755	1.52190126495
13 harmonic	385.7604595587	1.369745182308
14 harmonic	543.5267831885	0.9716763312559


Angle Coeffs

1 harmonic	57.8982893754	126.8062420451
2 harmonic	55.42182150775	117.3465570514
3 harmonic	63.44422595415	115.5071327674
4 harmonic	34.066775159195	129.1835929926
5 harmonic	65.09061609600001	110.3538806181
6 harmonic	53.20531626545	116.5475862634
7 harmonic	79.1895422237	112.4630193006
8 harmonic	201.41175231035	127.4691416191


Dihedral Coeffs

1 fourier 1	3.661930099076	2	180
2 fourier 1	1.193093382682	2	180
3 fourier 1	0.02021088501612	1	0
4 fourier 1	1.163235555439	2	180
5 fourier 1	1.532232714475	2	180
6 fourier 1	0.02664938770063	3	0
7 fourier 1	1.659715194912	2	180
8 fourier 1	3.101948770557	2	180
9 fourier 1	-0.4252153282372	1	0
10 fourier 1	1.809047390003	2	180
11 fourier 1	-0.04816277792592	1	0
12 fourier 1	0.9974165607242	2	180
13 fourier 1	2.348375642009	2	180
14 fourier 1	1.256156174911	1	0
15 fourier 1	0.1155372516788	3	0
16 fourier 1	2.687457892086	2	180
17 fourier 1	2.772607909663	2	180
18 fourier 1	0.09692684957115	1	0


Improper Coeffs

1 0.3666666666666667	-1	2
2 0.3333333333333333	-1	2
3 3.5	-1	2


Atoms

1	1	1	-0.41235799	13.227	3.1159999	2.0409999
2	1	2	0.12572099	11.882	2.905	1.597
3	1	2	-0.40754801	11.631	2.575	0.324
4	1	3	0.220586	12.443	2.473	-0.384
5	1	2	-0.115384	10.238	2.3789999	-0.14399999
6	1	3	0.203058	10.074	2.151	-1.188
7	1	2	-0.128783	9.2060003	2.516	0.70999998
8	1	2	-0.134996	7.802	2.3659999	0.24600001
9	1	2	-0.13062701	6.8449998	3.201	0.69
10	1	3	0.20635	7.0780001	3.997	1.388
11	1	2	-0.29685	5.454	3.0599999	0.23100001
12	1	3	0.223234	4.7010002	3.7360001	0.61500001
13	1	2	0.328217	5.1170001	2.1040001	-0.64499998
14	1	4	-0.28226301	3.777	2.0009999	-1.031
15	1	2	0.299685	2.9119999	0.96200001	-0.65700001
16	1	2	-0.32100099	3.2809999	-0.028999999	0.178
17	1	3	0.229662	4.2740002	-0.056000002	0.61299998
18	1	2	-0.105631	2.3269999	-1.104	0.51999998
19	1	3	0.21263599	2.6570001	-1.891	1.1900001
20	1	2	-0.11134	1.0779999	-1.114	0.003
21	1	2	0.242171	0.66799998	0.0089999996	-0.88599998
22	1	2	-0.32354099	1.54	0.97299999	-1.201
23	1	3	0.226096	1.24	1.777	-1.862
24	1	4	-0.30535299	-0.625	0.082000002	-1.398
25	1	2	0.242171	-1.573	-0.91900003	-1.189
26	1	2	-0.32354099	-2.7909999	-0.78399998	-1.7309999
27	1	3	0.226096	-3.029	0.098999999	-2.309
28	1	2	0.299685	-3.7950001	-1.8609999	-1.596
29	1	4	-0.28226301	-5.0539999	-1.728	-2.1889999
30	1	2	0.328217	-6.006	-0.76800001	-1.806
31	1	2	-0.29685	-5.9879999	-0.212	-0.579
32	1	3	0.223234	-5.2199998	-0.47	0.138
33	1	2	-0.13062701	-7.0580001	0.70999998	-0.15800001
34	1	3	0.20635	-7.02	1.1289999	0.83999997
35	1	2	-0.134996	-8.0629997	1.017	-0.99599999
36	1	2	-0.128783	-9.1610003	1.921	-0.57499999
37	1	2	-0.129384	-9.7209997	1.813	0.64600003
38	1	3	0.203058	-9.3870001	1.063	1.349
39	1	2	-0.375689	-10.835	2.6989999	1.04
40	1	3	0.217078	-11.273	2.5910001	2.023
41	1	2	0.19799501	-11.309	3.612	0.178
42	1	1	-0.532552	-12.397	4.4619999	0.551
43	1	5	0.319013	-12.83	4.3930001	1.5
44	1	2	-0.375689	-10.697	3.7379999	-1.1619999
45	1	3	0.217079	-11.065	4.48	-1.859
46	1	2	-0.129384	-9.6809998	2.9430001	-1.518
47	1	3	0.203058	-9.2340002	3.0569999	-2.4990001
48	1	2	-0.057746999	-8.0600004	0.442	-2.3670001
49	1	3	0.20541701	-8.8620005	0.70999998	-3.0439999
50	1	2	-0.322869	-7.0890002	-0.40799999	-2.7609999
51	1	6	0.76623303	-7.0609999	-0.98500001	-4.158
52	1	7	-0.208994	-5.9159999	-0.56400001	-4.802
53	1	7	-0.208994	-8.1549997	-0.58499998	-4.9109998
54	1	7	-0.208994	-7.0580001	-2.368	-4.0929999
55	1	2	-0.32100099	-3.4879999	-2.973	-0.91900003
56	1	3	0.229662	-4.2189999	-3.7639999	-0.81900001
57	1	2	-0.105631	-2.171	-3.0999999	-0.264
58	1	3	0.21263599	-1.982	-3.9779999	0.34099999
59	1	2	-0.11134	-1.238	-2.132	-0.389
60	1	6	0.098811001	0.090999998	-2.223	0.35800001
61	1	2	0.044	-0.163	-2.237	1.854
62	1	2	-0.13353799	-0.713	-1.271	2.5999999
63	1	3	0.215716	-1.034	-0.34099999	2.151
64	1	2	-0.26161999	-0.87099999	-1.5039999	4.059
65	1	3	0.221221	-1.3049999	-0.73000002	4.678
66	1	2	-0.231949	-0.472	-2.6670001	4.612
67	1	3	0.21593601	-0.59500003	-2.8269999	5.6750002
68	1	2	-0.170858	0.133	-3.7309999	3.773
69	1	3	0.202398	0.45699999	-4.664	4.2160001
70	1	2	-0.014798	0.264	-3.494	2.4619999
71	1	2	-0.014798	0.81400001	-4.3299999	1.415
72	1	2	-0.170858	1.334	-5.5599999	1.48
73	1	3	0.202398	1.385	-6.1009998	2.4159999
74	1	2	-0.231949	1.824	-6.1760001	0.222
75	1	3	0.21593601	2.2460001	-7.1719999	0.243
76	1	2	-0.26161999	1.742	-5.5029998	-0.94499999
77	1	3	0.221221	2.098	-5.9590001	-1.86
78	1	2	-0.13353799	1.16	-4.1360002	-0.986
79	1	3	0.215716	1.0779999	-3.5999999	-1.923
80	1	2	0.044	0.72500002	-3.5910001	0.15700001
81	1	2	-0.322869	6.1729999	1.201	-1.204
82	1	6	0.76623303	5.849	0.134	-2.2279999
83	1	7	-0.208994	4.73	0.47099999	-2.9649999
84	1	7	-0.208994	6.9029999	-0.02	-3.1099999
85	1	7	-0.208994	5.6199999	-1.068	-1.582
86	1	2	-0.057746999	7.4349999	1.312	-0.73900002
87	1	3	0.20541701	8.2019997	0.62599999	-1.08
88	1	2	-0.115384	9.493	2.852	2.1289999
89	1	3	0.203058	8.6809998	2.9419999	2.8380001
90	1	2	-0.40754801	10.754	3.0369999	2.5450001
91	1	3	0.220586	10.942	3.2750001	3.5840001
92	1	5	0.37221	14.027	3.0569999	1.374
93	1	2	0.767802	-12.779	5.184	-0.131
94	1	8	-0.66011	-14.004	5.1589999	-0.42199999
95	1	2	-0.37224501	-11.882	6.1929998	-0.722
96	1	2	-0.086355999	-10.58	6.2069998	-0.40099999
97	1	3	0.221908	-10.174	5.4829998	0.294
98	1	2	-0.249303	-9.6719999	7.2150002	-0.98699999
99	1	3	0.20973501	-8.6429996	7.184	-0.66600001
100	1	2	-0.040073	-10.122	8.125	-1.881
101	1	6	-0.26354399	-9.2259998	9.2320004	-2.4920001
102	1	2	-0.040073	-9.5679998	9.3789997	-3.997
103	1	2	-0.247539	-9.6450005	8.276	-4.7779999
104	1	3	0.20973501	-9.5059996	7.2870002	-4.3600001
105	1	2	-0.0054279999	-9.9289999	8.3760004	-6.223
106	1	3	0.21976601	-10.001	7.4650002	-6.8049998
107	1	2	-0.335944	-10.091	9.5740004	-6.803
108	1	2	0.59161597	-10.374	9.665	-8.2460003
109	1	8	-0.529405	-10.528	10.783	-8.8050003
110	1	2	-0.0054279999	-9.9779997	10.796	-5.9749999
111	1	3	0.21976601	-10.092	11.772	-6.428
112	1	2	-0.247539	-9.7270002	10.708	-4.6630001
113	1	3	0.20973501	-9.6470003	11.631	-4.1100001
114	1	6	0.75240803	-9.5170002	10.535	-1.676
115	1	7	-0.20260499	-9.4209995	10.285	-0.31600001
116	1	7	-0.20260499	-8.6110001	11.538	-1.98
117	1	7	-0.20260499	-10.797	11.001	-1.929
118	1	6	0.75240803	-7.6929998	8.9130001	-2.4089999
119	1	7	-0.20260499	-7.4289999	7.6339998	-2.872
120	1	7	-0.20260499	-6.973	9.8030005	-3.1900001
121	1	7	-0.20260499	-7.2199998	9.0190001	-1.112
122	1	2	-0.249303	-11.58	8.1140003	-2.2060001
123	1	3	0.20973501	-11.992	8.8470001	-2.888
124	1	2	-0.086355999	-12.402	7.2059999	-1.669
125	1	3	0.221908	-13.453	7.2220001	-1.929
126	1	1	-0.41235799	13.426	3.362	3.0380001
127	1	2	0.12572099	12.355	3.573	3.9649999
128	1	2	-0.40754801	12.613	3.9030001	5.237
129	1	3	0.220586	13.635	4.0050001	5.5780001
130	1	2	-0.115384	11.507	4.099	6.204
131	1	3	0.203058	11.757	4.3270001	7.2309999
132	1	2	-0.128783	10.226	3.9619999	5.8119998
133	1	2	-0.134996	9.1079998	4.112	6.7810001
134	1	2	-0.13062701	8.0539999	3.277	6.7389998
135	1	3	0.20635	8.0010004	2.4809999	6.0050001
136	1	2	-0.29685	6.9460001	3.418	7.697
137	1	3	0.223234	6.1040001	2.7420001	7.632
138	1	2	0.328217	6.9720001	4.3740001	8.6350002
139	1	4	-0.28226301	5.8839998	4.4770002	9.507
140	1	2	0.299685	4.941	5.5159998	9.4940004
141	1	2	-0.32100099	4.961	6.507	8.5810003
142	1	3	0.229662	5.71	6.5339999	7.7979999
143	1	2	-0.105631	3.9489999	7.5819998	8.632
144	1	3	0.21263599	3.9949999	8.3690004	7.8870001
145	1	2	-0.11134	2.9949999	7.5910001	9.5900002
146	1	2	0.242171	2.957	6.4689999	10.568
147	1	2	-0.32354099	3.8840001	5.5040002	10.524
148	1	3	0.226096	3.8610001	4.7010002	11.249
149	1	4	-0.30535299	1.961	6.3959999	11.538
150	1	2	0.242171	1.005	7.3969998	11.709
151	1	2	-0.32354099	0.089000002	7.2620001	12.678
152	1	3	0.226096	0.092	6.3790002	13.303
153	1	2	0.299685	-0.889	8.3389997	12.939
154	1	4	-0.28226301	-1.824	8.2060003	13.97
155	1	2	0.328217	-2.8499999	7.2459998	13.983
156	1	2	-0.29685	-3.3050001	6.6900001	12.843
157	1	3	0.223234	-2.872	6.948	11.886
158	1	2	-0.13062701	-4.454	5.7680001	12.866
159	1	3	0.20635	-4.803	5.349	11.93
160	1	2	-0.134996	-5.0599999	5.461	14.026
161	1	2	-0.128783	-6.2350001	4.5570002	14.059
162	1	2	-0.078776002	-7.2220001	4.665	13.148
163	1	3	0.203058	-7.184	5.415	12.37
164	1	2	-0.45167601	-8.4020004	3.779	13.212
165	1	3	0.229075	-9.184	3.8870001	12.473
166	1	2	0.31689101	-8.5089998	2.8659999	14.19
167	1	1	-0.84514499	-9.6560001	2.016	14.264
168	1	5	0.36552	-9.7440004	1.307	15.027
169	1	5	0.36552	-10.42	2.085	13.554
170	1	2	-0.45167601	-7.428	2.74	15.191
171	1	3	0.229075	-7.5	1.998	15.977
172	1	2	-0.078775004	-6.3530002	3.5350001	15.13
173	1	3	0.203058	-5.5640001	3.421	15.863
174	1	2	-0.057746999	-4.5300002	6.0359998	15.29
175	1	3	0.20541701	-5.0110002	5.7680001	16.224001
176	1	2	-0.322869	-3.483	6.8860002	15.281
177	1	6	0.76623303	-2.9200001	7.4629998	16.559999
178	1	7	-0.208994	-1.615	7.0419998	16.714001
179	1	7	-0.208994	-3.6400001	7.0630002	17.674999
180	1	7	-0.208994	-2.9419999	8.8459997	16.497999
181	1	2	-0.32100099	-0.86699998	9.4510002	12.197
182	1	3	0.229662	-1.579	10.242	12.385
183	1	2	-0.105631	0.097000003	9.5780001	11.085
184	1	3	0.21263599	0.039999999	10.456	10.454
185	1	2	-0.11134	1.007	8.6099997	10.842
186	1	6	0.098811001	1.947	8.7010002	9.6420002
187	1	2	0.044	1.137	8.7150002	8.3579998
188	1	2	-0.13353799	0.34200001	7.7490001	7.881
189	1	3	0.215716	0.219	6.8189998	8.4189997
190	1	2	-0.26161999	-0.36399999	7.9819999	6.5949998
191	1	3	0.221221	-1.003	7.2080002	6.1900001
192	1	2	-0.231949	-0.20900001	9.1450005	5.9310002
193	1	3	0.21593601	-0.73100001	9.3050003	4.9970002
194	1	2	-0.170858	0.67299998	10.209	6.473
195	1	3	0.202398	0.801	11.142	5.9390001
196	1	2	-0.014798	1.298	9.9720001	7.632
197	1	2	-0.014798	2.207	10.808	8.3879995
198	1	2	-0.170858	2.6630001	12.038	8.1269999
199	1	3	0.202398	2.3499999	12.578	7.244
200	1	2	-0.231949	3.599	12.654	9.1009998
201	1	3	0.21593601	3.98	13.65	8.9189997
202	1	2	-0.26161999	3.971	11.981	10.21
203	1	3	0.221221	4.652	12.437	10.917
204	1	2	-0.13353799	3.45	10.614	10.472
205	1	3	0.215716	3.7349999	10.078	11.368
206	1	2	0.044	2.609	10.068	9.5839996
207	1	2	-0.322869	8.1619997	5.276	8.7449999
208	1	6	0.76623303	8.2559996	6.3429999	9.8149996
209	1	7	-0.208994	7.507	6.007	10.926
210	1	7	-0.208994	9.5679998	6.4980001	10.224
211	1	7	-0.208994	7.7969999	7.546	9.3070002
212	1	2	-0.057746999	9.1479998	5.1659999	7.8309999
213	1	3	0.20541701	9.9870005	5.8520002	7.8509998
214	1	2	-0.115384	9.9449997	3.6259999	4.3920002
215	1	3	0.203058	8.9230003	3.536	4.0489998
216	1	2	-0.40754801	10.949	3.441	3.5239999
217	1	3	0.220586	10.724	3.2019999	2.4909999
218	1	5	0.37221	14.421	3.421	3.346
219	1	2	0.59161597	-10.453	8.7659998	-8.8439999
220	1	8	-0.529405	-11.427	7.9889998	-8.6520004
221	1	2	-0.335944	-9.4280005	8.4729996	-9.8620005
222	1	2	-0.0054279999	-9.4860001	7.3670001	-10.623
223	1	3	0.21976601	-10.292	6.6529999	-10.507
224	1	2	-0.247539	-8.4449997	7.0960002	-11.636
225	1	3	0.20973501	-8.54	6.1789999	-12.193
226	1	2	-0.040073	-7.428	7.9660001	-11.842
227	1	6	-0.26354399	-6.2849998	7.7140002	-12.856
228	1	2	-0.040073	-5.994	9.0410004	-13.599
229	1	2	-0.248262	-4.744	9.4779997	-13.88
230	1	3	0.20973501	-3.8640001	8.9379997	-13.573
231	1	2	-0.057803001	-4.5250001	10.731	-14.63
232	1	3	0.232565	-3.5050001	11.05	-14.811
233	1	2	-0.26510099	-5.5650001	11.455	-15.077
234	1	2	0.838278	-5.3590002	12.712	-15.83
235	1	8	-0.49006101	-4.1950002	13.136	-16.066999
236	1	9	-0.66571897	-6.4549999	13.44	-16.284
237	1	10	0.41710499	-6.329	14.303	-16.799999
238	1	2	-0.057803001	-6.9390001	10.971	-14.812
239	1	3	0.232565	-7.7940001	11.527	-15.175
240	1	2	-0.248262	-7.1399999	9.8400002	-14.127
241	1	3	0.20973501	-8.1569996	9.5100002	-13.956
242	1	6	0.75240803	-6.6500001	6.6620002	-13.959
243	1	7	-0.20260499	-6.6999998	5.3779998	-13.44
244	1	7	-0.20260499	-7.875	6.9559999	-14.534
245	1	7	-0.20260499	-5.697	6.6680002	-14.965
246	1	6	0.75240803	-5.0669999	7.1830001	-12.026
247	1	7	-0.20260499	-5.4640002	6.145	-11.197
248	1	7	-0.20260499	-4.0640001	6.698	-12.849
249	1	7	-0.20260499	-4.54	8.184	-11.228
250	1	2	-0.247539	-7.3639998	9.1759996	-10.968
251	1	3	0.20973501	-6.5500002	9.8809996	-11.073
252	1	2	-0.0054279999	-8.3039999	9.4139996	-10.047
253	1	3	0.21976601	-8.2340002	10.303	-9.4320002

Bonds

1	1	1	2
2	2	1	92
3	3	1	126
4	4	2	3
5	4	2	90
6	5	3	4
7	4	3	5
8	5	5	6
9	4	5	7
10	6	7	8
11	4	7	88
12	4	8	9
13	4	8	86
14	5	9	10
15	4	9	11
16	5	11	12
17	4	11	13
18	7	13	14
19	4	13	81
20	7	14	15
21	4	15	16
22	4	15	22
23	5	16	17
24	4	16	18
25	5	18	19
26	4	18	20
27	4	20	21
28	8	20	60
29	4	21	22
30	7	21	24
31	5	22	23
32	7	24	25
33	4	25	26
34	4	25	59
35	5	26	27
36	4	26	28
37	7	28	29
38	4	28	55
39	7	29	30
40	4	30	31
41	4	30	50
42	5	31	32
43	4	31	33
44	5	33	34
45	4	33	35
46	6	35	36
47	4	35	48
48	4	36	37
49	4	36	46
50	5	37	38
51	4	37	39
52	5	39	40
53	4	39	41
54	1	41	42
55	4	41	44
56	2	42	43
57	9	42	93
58	5	44	45
59	4	44	46
60	5	46	47
61	5	48	49
62	4	48	50
63	8	50	51
64	10	51	52
65	10	51	53
66	10	51	54
67	5	55	56
68	4	55	57
69	5	57	58
70	4	57	59
71	8	59	60
72	8	60	61
73	8	60	80
74	4	61	62
75	4	61	70
76	5	62	63
77	4	62	64
78	5	64	65
79	4	64	66
80	5	66	67
81	4	66	68
82	5	68	69
83	4	68	70
84	6	70	71
85	4	71	72
86	4	71	80
87	5	72	73
88	4	72	74
89	5	74	75
90	4	74	76
91	5	76	77
92	4	76	78
93	5	78	79
94	4	78	80
95	8	81	82
96	4	81	86
97	10	82	83
98	10	82	84
99	10	82	85
100	5	86	87
101	5	88	89
102	4	88	90
103	5	90	91
104	11	93	94
105	6	93	95
106	4	95	96
107	4	95	124
108	5	96	97
109	4	96	98
110	5	98	99
111	4	98	100
112	8	100	101
113	4	100	122
114	8	101	102
115	12	101	114
116	12	101	118
117	4	102	103
118	4	102	112
119	5	103	104
120	4	103	105
121	5	105	106
122	4	105	107
123	6	107	108
124	4	107	110
125	11	108	109
126	6	108	219
127	5	110	111
128	4	110	112
129	5	112	113
130	10	114	115
131	10	114	116
132	10	114	117
133	10	118	119
134	10	118	120
135	10	118	121
136	5	122	123
137	4	122	124
138	5	124	125
139	1	126	127
140	2	126	218
141	4	127	128
142	4	127	216
143	5	128	129
144	4	128	130
145	5	130	131
146	4	130	132
147	6	132	133
148	4	132	214
149	4	133	134
150	4	133	212
151	5	134	135
152	4	134	136
153	5	136	137
154	4	136	138
155	7	138	139
156	4	138	207
157	7	139	140
158	4	140	141
159	4	140	147
160	5	141	142
161	4	141	143
162	5	143	144
163	4	143	145
164	4	145	146
165	8	145	186
166	4	146	147
167	7	146	149
168	5	147	148
169	7	149	150
170	4	150	151
171	4	150	185
172	5	151	152
173	4	151	153
174	7	153	154
175	4	153	181
176	7	154	155
177	4	155	156
178	4	155	176
179	5	156	157
180	4	156	158
181	5	158	159
182	4	158	160
183	6	160	161
184	4	160	174
185	4	161	162
186	4	161	172
187	5	162	163
188	4	162	164
189	5	164	165
190	4	164	166
191	1	166	167
192	4	166	170
193	2	167	168
194	2	167	169
195	5	170	171
196	4	170	172
197	5	172	173
198	5	174	175
199	4	174	176
200	8	176	177
201	10	177	178
202	10	177	179
203	10	177	180
204	5	181	182
205	4	181	183
206	5	183	184
207	4	183	185
208	8	185	186
209	8	186	187
210	8	186	206
211	4	187	188
212	4	187	196
213	5	188	189
214	4	188	190
215	5	190	191
216	4	190	192
217	5	192	193
218	4	192	194
219	5	194	195
220	4	194	196
221	6	196	197
222	4	197	198
223	4	197	206
224	5	198	199
225	4	198	200
226	5	200	201
227	4	200	202
228	5	202	203
229	4	202	204
230	5	204	205
231	4	204	206
232	8	207	208
233	4	207	212
234	10	208	209
235	10	208	210
236	10	208	211
237	5	212	213
238	5	214	215
239	4	214	216
240	5	216	217
241	11	219	220
242	6	219	221
243	4	221	222
244	4	221	252
245	5	222	223
246	4	222	224
247	5	224	225
248	4	224	226
249	8	226	227
250	4	226	250
251	8	227	228
252	12	227	242
253	12	227	246
254	4	228	229
255	4	228	240
256	5	229	230
257	4	229	231
258	5	231	232
259	4	231	233
260	6	233	234
261	4	233	238
262	11	234	235
263	13	234	236
264	14	236	237
265	5	238	239
266	4	238	240
267	5	240	241
268	10	242	243
269	10	242	244
270	10	242	245
271	10	246	247
272	10	246	248
273	10	246	249
274	5	250	251
275	4	250	252
276	5	252	253

Angles

1	6	20	60	61
2	1	226	250	252
3	4	3	5	6
4	1	221	252	250
5	1	35	36	46
6	1	3	2	90
7	1	16	15	22
8	1	130	132	133
9	1	161	162	164
10	4	153	181	182
11	1	29	28	55
12	6	116	114	117
13	1	197	198	200
14	1	141	143	145
15	6	52	51	53
16	1	139	140	147
17	1	198	197	206
18	4	152	151	153
19	4	37	39	40
20	6	185	186	206
21	6	179	177	180
22	6	81	82	84
23	4	181	183	184
24	1	8	9	11
25	6	207	208	210
26	1	155	176	174
27	4	140	141	142
28	4	30	31	32
29	4	12	11	13
30	4	89	88	90
31	4	215	214	216
32	1	14	15	16
33	1	134	133	212
34	4	35	48	49
35	4	165	164	166
36	1	36	35	48
37	1	150	185	186
38	1	160	161	172
39	1	55	57	59
40	1	224	226	227
41	1	174	176	177
42	4	64	66	67
43	1	13	81	86
44	4	129	128	130
45	1	37	36	46
46	1	107	108	109
47	4	99	98	100
48	4	36	46	47
49	4	250	252	253
50	1	227	228	240
51	4	65	64	66
52	1	233	234	236
53	1	96	95	124
54	1	160	174	176
55	1	20	21	22
56	3	168	167	169
57	6	227	246	248
58	6	176	177	179
59	4	79	78	80
60	4	74	76	77
61	1	25	59	60
62	6	115	114	116
63	4	110	112	113
64	4	251	250	252
65	6	100	101	118
66	1	132	214	216
67	1	102	103	105
68	1	228	229	231
69	5	153	154	155
70	4	161	162	163
71	1	151	153	181
72	1	161	160	174
73	1	151	150	185
74	6	119	118	121
75	3	43	42	93
76	1	39	41	44
77	6	178	177	179
78	1	14	15	22
79	1	5	7	8
80	4	6	5	7
81	4	141	143	144
82	1	72	71	80
83	1	187	188	190
84	4	10	9	11
85	1	150	185	183
86	4	128	130	131
87	4	21	22	23
88	4	88	90	91
89	1	5	7	88
90	1	7	8	9
91	1	18	20	21
92	6	120	118	121
93	4	221	252	253
94	4	195	194	196
95	6	83	82	85
96	4	190	192	193
97	6	209	208	211
98	4	61	62	63
99	4	142	141	143
100	1	228	240	238
101	4	32	31	33
102	4	73	72	74
103	1	68	70	71
104	1	167	166	170
105	1	154	153	181
106	4	56	55	57
107	4	123	122	124
108	4	19	18	20
109	2	1	126	127
110	1	151	153	154
111	4	106	105	107
112	1	15	16	18
113	4	232	231	233
114	1	61	70	68
115	4	69	68	70
116	1	31	33	35
117	6	61	60	80
118	1	72	74	76
119	4	205	204	206
120	1	25	59	57
121	4	200	202	203
122	6	53	51	54
123	1	134	136	138
124	4	45	44	46
125	6	228	227	246
126	4	214	216	217
127	1	155	176	177
128	1	164	166	167
129	1	26	28	55
130	1	33	35	48
131	1	71	80	78
132	1	103	105	107
133	1	229	231	233
134	1	233	238	240
135	1	14	13	81
136	6	84	82	85
137	6	210	208	211
138	7	21	24	25
139	1	66	68	70
140	5	138	139	140
141	1	24	25	59
142	6	50	51	54
143	1	231	233	238
144	1	188	190	192
145	4	132	214	215
146	4	140	147	148
147	1	7	8	86
148	4	228	229	230
149	1	25	26	28
150	3	1	126	218
151	6	242	227	246
152	6	119	118	120
153	1	76	78	80
154	1	186	187	196
155	3	41	42	43
156	1	162	164	166
157	1	48	50	51
158	1	155	156	158
159	1	198	200	202
160	1	141	140	147
161	1	107	108	219
162	1	166	170	172
163	4	182	181	183
164	1	161	172	170
165	1	13	81	82
166	6	83	82	84
167	6	209	208	210
168	6	243	242	245
169	5	234	236	237
170	6	101	118	121
171	4	49	48	50
172	6	101	114	116
173	5	28	29	30
174	1	7	88	90
175	1	188	187	196
176	1	196	197	206
177	1	28	55	57
178	4	41	44	45
179	1	154	155	176
180	1	95	96	98
181	1	221	222	224
182	4	63	62	64
183	4	122	124	125
184	1	154	155	156
185	1	93	95	124
186	1	162	161	172
187	1	133	212	207
188	4	199	198	200
189	1	194	196	197
190	6	145	186	206
191	8	235	234	236
192	1	101	102	103
193	1	133	134	136
194	1	158	160	161
195	1	227	228	229
196	4	31	33	34
197	4	201	200	202
198	1	98	100	101
199	4	134	136	137
200	1	62	61	70
201	6	100	101	114
202	1	62	64	66
203	4	228	240	241
204	1	94	93	95
205	1	132	133	212
206	1	11	13	14
207	4	44	46	47
208	1	183	185	186
209	4	229	231	232
210	4	135	134	136
211	1	36	37	39
212	1	60	61	70
213	1	61	70	71
214	4	66	68	69
215	1	127	128	130
216	1	2	3	5
217	6	227	242	243
218	6	20	60	80
219	1	82	81	86
220	1	100	122	124
221	1	208	207	212
222	4	157	156	158
223	1	95	124	122
224	1	30	50	48
225	4	225	224	226
226	4	104	103	105
227	4	226	250	251
228	1	42	93	95
229	1	147	146	149
230	4	25	26	27
231	4	8	9	10
232	1	164	166	170
233	3	166	167	169
234	6	247	246	249
235	4	197	198	199
236	4	76	78	79
237	1	156	158	160
238	1	138	207	208
239	4	189	188	190
240	1	108	107	110
241	1	20	21	24
242	4	133	212	213
243	4	162	164	165
244	1	126	127	216
245	4	155	156	157
246	1	96	98	100
247	1	222	224	226
248	4	40	39	41
249	2	41	42	93
250	6	228	227	242
251	1	105	107	108
252	1	186	206	204
253	6	243	242	244
254	4	238	240	241
255	6	101	118	120
256	6	81	82	83
257	1	29	30	31
258	6	207	208	209
259	6	101	114	115
260	1	70	71	80
261	4	7	88	89
262	1	15	22	21
263	1	145	146	147
264	4	159	158	160
265	1	8	7	88
266	4	95	96	97
267	4	221	222	223
268	1	138	207	212
269	1	229	228	240
270	1	31	30	50
271	6	52	51	54
272	4	55	57	58
273	6	145	186	185
274	6	226	227	246
275	1	231	233	234
276	1	37	39	41
277	2	2	1	126
278	4	161	172	173
279	6	185	186	187
280	1	186	206	197
281	3	127	126	218
282	1	233	234	235
283	1	227	226	250
284	4	36	37	38
285	1	149	150	185
286	4	160	174	175
287	1	35	48	50
288	6	227	246	247
289	1	109	108	219
290	4	2	3	4
291	6	176	177	178
292	1	219	221	222
293	1	8	86	81
294	1	126	127	128
295	1	16	18	20
296	4	171	170	172
297	6	20	60	59
298	1	9	8	86
299	1	102	112	110
300	4	27	26	28
301	4	102	103	104
302	1	60	80	78
303	3	166	167	168
304	1	202	204	206
305	1	197	206	204
306	6	247	246	248
307	1	1	2	3
308	1	224	226	250
309	6	227	242	244
310	4	163	162	164
311	1	139	138	207
312	4	187	188	189
313	1	136	138	207
314	4	96	98	99
315	6	115	114	117
316	4	95	124	125
317	4	222	224	225
318	1	30	50	51
319	1	107	110	112
320	1	29	30	50
321	1	35	36	37
322	3	2	1	92
323	4	81	86	87
324	4	207	212	213
325	6	101	118	119
326	1	60	80	71
327	1	156	155	176
328	4	97	96	98
329	4	223	222	224
330	1	18	20	60
331	6	178	177	180
332	1	71	72	74
333	4	15	16	17
334	1	2	90	88
335	4	111	110	112
336	1	133	132	214
337	1	187	196	197
338	1	101	102	112
339	6	248	246	249
340	1	108	219	221
341	4	77	76	78
342	4	8	86	87
343	4	72	74	75
344	1	234	233	238
345	1	150	151	153
346	1	190	192	194
347	1	61	62	64
348	1	70	71	72
349	1	11	13	81
350	4	38	37	39
351	1	33	35	36
352	4	127	216	217
353	4	103	105	106
354	1	132	133	134
355	4	233	238	239
356	4	4	3	5
357	1	158	160	174
358	6	187	186	206
359	6	50	51	53
360	1	200	202	204
361	4	16	18	19
362	1	42	41	44
363	1	128	130	132
364	4	193	192	194
365	4	188	190	191
366	6	59	60	61
367	4	137	136	138
368	6	102	101	114
369	4	202	204	205
370	1	9	11	13
371	1	219	221	252
372	4	17	16	18
373	1	101	100	122
374	1	22	21	24
375	1	39	41	42
376	1	192	194	196
377	1	187	196	194
378	1	26	28	29
379	1	103	102	112
380	6	227	242	245
381	4	203	202	204
382	6	226	227	242
383	4	198	200	201
384	4	102	112	113
385	4	166	170	171
386	4	107	110	111
387	1	3	5	7
388	1	136	138	139
389	1	220	219	221
390	6	102	101	118
391	4	28	55	56
392	1	57	59	60
393	1	127	216	214
394	4	71	72	73
395	1	186	187	188
396	4	133	134	135
397	3	92	1	126
398	1	108	219	220
399	1	130	132	214
400	4	230	229	231
401	1	128	127	216
402	5	13	14	15
403	4	150	151	152
404	1	105	107	110
405	4	67	66	68
406	4	62	64	65
407	6	100	101	102
408	6	226	227	228
409	6	81	82	85
410	1	181	183	185
411	6	207	208	211
412	6	101	114	117
413	4	239	238	240
414	1	24	25	26
415	1	140	141	143
416	4	131	130	132
417	4	15	22	23
418	1	30	31	33
419	1	145	146	149
420	4	175	174	176
421	1	41	44	46
422	4	170	172	173
423	1	36	46	44
424	1	196	197	198
425	1	153	181	183
426	4	146	147	148
427	4	191	190	192
428	4	2	90	91
429	6	114	101	118
430	4	127	128	129
431	1	143	145	146
432	1	98	100	122
433	1	222	221	252
434	1	146	145	186
435	1	139	140	141
436	4	184	183	185
437	6	145	186	187
438	1	93	95	96
439	1	160	161	162
440	4	100	122	123
441	6	50	51	52
442	6	59	60	80
443	1	64	66	68
444	6	244	242	245
445	1	140	147	146
446	1	42	93	94
447	4	75	74	76
448	1	26	25	59
449	7	146	149	150
450	4	9	11	12
451	1	1	2	90
452	4	156	158	159
453	4	58	57	59
454	1	21	20	60
455	1	149	150	151
456	1	143	145	186
457	4	192	194	195
458	1	60	61	62
459	6	227	246	249
460	6	176	177	180
461	4	144	143	145
462	4	34	33	35
463	1	74	76	78

Dihedrals

1	12	42	93	95	124
2	1	224	226	250	251
3	5	153	154	155	176
4	1	198	200	202	204
5	6	13	81	82	85
6	1	8	86	81	82
7	2	3	2	1	126
8	5	153	154	155	156
9	6	224	226	227	242
10	1	141	140	147	148
11	1	132	133	134	135
12	13	43	42	93	94
12	14	43	42	93	94
13	1	107	110	112	113
14	1	164	166	170	171
15	1	227	226	250	252
16	1	190	192	194	195
17	1	35	36	37	38
18	1	3	5	7	8
19	1	151	153	181	183
20	6	226	227	228	240
21	1	17	16	18	20
22	6	59	60	80	71
23	1	133	132	214	215
24	1	136	138	207	212
25	1	162	161	172	173
26	1	1	2	90	91
27	15	102	101	114	117
28	1	190	188	187	196
29	2	1	126	127	216
30	6	146	145	186	187
31	1	34	33	35	48
32	6	145	186	206	204
33	1	25	26	28	29
34	1	167	166	170	171
35	1	187	196	194	192
36	1	40	39	41	42
37	1	199	198	200	201
38	17	235	234	236	237
38	18	235	234	236	237
39	6	103	102	101	114
40	1	126	127	216	214
41	1	150	151	153	154
42	1	197	198	200	201
43	1	10	9	11	13
44	1	223	222	224	226
45	1	137	136	138	207
46	1	96	98	100	122
47	1	60	61	62	64
48	1	234	233	238	239
49	1	72	71	80	78
50	1	39	37	36	46
51	1	30	31	33	34
52	1	45	44	46	47
53	1	127	216	214	132
54	1	4	3	2	90
55	1	135	134	136	138
56	1	215	214	216	217
57	12	94	93	95	124
58	1	101	100	122	123
59	1	18	20	21	24
60	1	130	128	127	216
61	4	172	161	160	174
62	1	67	66	68	70
63	6	145	186	206	197
64	1	19	18	20	60
65	1	104	103	105	106
66	1	193	192	194	195
67	6	25	59	60	80
68	1	29	28	55	56
69	4	9	8	7	88
70	15	100	101	114	117
71	1	142	141	143	145
72	1	189	188	190	192
73	1	111	110	112	113
74	1	82	81	86	87
75	1	105	107	110	112
76	1	74	76	78	80
77	6	145	186	187	196
78	1	151	153	181	182
79	12	231	233	234	235
80	15	114	101	118	120
81	1	126	127	128	129
82	7	147	146	149	150
83	1	156	158	160	161
84	2	3	2	1	92
85	1	139	140	141	143
86	1	33	31	30	50
87	1	96	95	124	122
88	1	188	190	192	194
89	1	165	164	166	167
90	6	174	176	177	178
91	1	28	55	57	58
92	1	138	207	212	213
93	6	48	50	51	52
94	1	155	176	174	160
95	15	242	227	246	248
96	12	107	108	219	220
97	1	10	9	8	86
98	1	186	187	188	189
99	1	9	11	13	81
100	2	1	126	127	128
101	1	230	229	228	240
102	1	14	13	81	82
103	1	23	22	21	24
104	1	134	136	138	207
105	1	2	3	5	6
106	1	7	8	9	10
107	7	22	21	24	25
108	1	129	128	130	131
109	12	110	107	108	219
110	12	105	107	108	109
111	1	29	30	31	33
112	6	196	187	186	206
113	1	143	145	146	149
114	2	43	42	41	44
115	6	13	81	82	84
116	1	56	55	57	59
117	1	7	8	86	81
118	4	68	70	71	80
119	1	226	250	252	253
120	1	160	161	172	170
121	1	197	206	204	202
122	1	156	158	160	174
123	1	227	226	250	251
124	1	186	187	196	194
125	1	98	100	122	124
126	1	71	72	74	76
127	1	38	37	39	40
128	1	161	160	174	176
129	1	227	228	240	238
130	1	7	88	90	91
131	1	17	16	18	19
132	12	220	219	221	222
133	1	101	102	103	104
134	15	102	101	114	116
135	1	103	105	107	108
136	1	208	207	212	213
137	1	157	156	158	160
138	15	226	227	242	244
139	1	154	155	176	177
140	1	231	233	238	239
141	1	161	162	164	166
142	4	33	35	36	37
143	4	187	196	197	198
144	6	112	102	101	114
145	1	155	156	158	159
146	1	222	221	252	250
147	1	184	183	185	186
148	1	150	185	183	184
149	1	230	229	231	233
150	6	18	20	60	59
151	6	83	82	81	86
152	12	42	93	95	96
153	6	100	101	102	103
154	1	60	61	62	63
155	1	65	64	66	68
156	5	26	28	29	30
157	1	102	112	110	111
158	1	9	8	86	87
159	1	98	96	95	124
160	1	137	136	138	139
161	1	135	134	136	137
162	1	11	13	81	82
163	15	102	101	118	121
164	6	155	176	177	180
165	1	130	132	214	216
166	15	228	227	242	244
167	1	15	16	18	20
168	1	36	46	44	41
169	1	151	150	185	183
170	6	143	145	186	187
171	6	185	186	206	204
172	1	150	185	183	181
173	15	243	242	227	246
174	1	49	48	50	51
175	6	98	100	101	114
176	12	236	234	233	238
177	15	100	101	118	121
178	1	37	39	41	42
179	1	227	228	229	230
180	15	100	101	114	116
181	1	14	15	22	21
182	1	8	9	11	13
183	4	134	133	132	214
184	1	142	141	143	144
185	5	151	153	154	155
186	1	16	18	20	21
187	1	105	107	110	111
188	1	133	212	207	138
189	1	158	160	174	175
190	1	74	76	78	79
191	1	189	188	190	191
192	5	30	29	28	55
193	1	75	74	76	78
194	15	114	101	118	119
195	1	62	64	66	68
196	6	229	228	227	246
197	1	14	15	16	18
198	1	154	155	156	158
199	1	26	28	55	57
200	1	141	143	145	146
201	1	188	190	192	193
202	6	145	186	185	150
203	6	242	227	226	250
204	1	106	105	107	108
205	6	138	207	208	211
206	1	203	202	204	205
207	1	161	172	170	171
208	6	209	208	207	212
209	1	2	90	88	89
210	6	240	228	227	246
211	15	242	227	246	247
212	1	164	162	161	172
213	12	94	93	95	96
214	1	186	206	197	198
215	6	226	227	228	229
216	2	39	41	42	43
217	1	131	130	132	214
218	1	182	181	183	185
219	6	59	60	61	62
220	1	105	103	102	112
221	6	185	186	206	197
222	1	163	162	164	166
223	1	8	86	81	13
224	1	127	216	214	215
225	1	29	30	31	32
226	1	149	150	151	153
227	1	134	136	138	139
228	1	35	36	46	44
229	6	185	186	187	196
230	1	98	100	122	123
231	1	61	62	64	66
232	1	70	71	72	74
233	1	139	138	207	212
234	12	235	234	233	238
235	1	71	72	74	75
236	1	36	35	48	50
237	1	95	96	98	100
238	1	141	143	145	186
239	1	147	146	145	186
240	1	96	95	124	125
241	1	152	151	150	185
242	1	161	160	174	175
243	1	165	164	166	170
244	1	39	41	44	45
245	1	200	202	204	206
246	1	3	5	7	88
247	1	73	72	74	75
248	15	226	227	246	248
249	1	17	16	15	22
250	15	226	227	242	243
251	10	41	42	93	95
251	11	41	42	93	95
252	15	245	242	227	246
253	1	196	197	206	204
254	1	229	231	233	238
255	1	161	162	164	165
256	1	142	141	140	147
257	1	102	103	105	107
258	1	108	107	110	112
259	12	220	219	221	252
260	1	230	229	231	232
261	1	160	161	172	173
262	1	197	206	204	205
263	4	68	70	71	72