Title

7375 atoms
7500 bonds
12625 angles
19375 dihedrals
6000 impropers

9 atom types
12 bond types
6 angle types
23 dihedral types
2 improper types
-6.312900066 93.68709993 xlo xhi
-7.697299957 92.30270004 ylo yhi
-7.392399788 92.60760021 zlo zhi
0.0 0.0 0.0 xy xz yz

Masses

1	15.99943
2	12.01078
3	1.007947
4	1.007947
5	12.01078
6	15.99943
7	1.007947
8	15.99943
9	1.007947


Pair Coeffs

1	0.16846514	3.0251065
2	0.10884061	3.3795318
3	0.016409246	2.5832257
4	0.015779483	2.6445434
5	0.086879315	3.4806469
6	0.2102061	3.0398122
7	0.015611343	2.5725815
8	0.20947353	2.99716
9	1.2326e-05	0.53453923

Bond Coeffs

1 harmonic	366.7408841747	1.425895053732
2 harmonic	300.03137914615	1.451203938761
3 harmonic	264.62148576755	1.52190126495
4 harmonic	370.04670688625	1.093899492634
5 harmonic	301.15400723785	1.345741232799
6 harmonic	582.698766451	1.225198386222
7 harmonic	279.1350963404	1.454628925034
8 harmonic	360.7852444772	1.387193227181
9 harmonic	397.2545789619	1.085358495916
10 harmonic	329.96998057905	1.427343958716
11 harmonic	543.5267831885	0.9716763312559
12 harmonic	385.7604595587	1.369745182308


Angle Coeffs

1 harmonic	53.20531626545	116.5475862634
2 harmonic	65.09061609600001	110.3538806181
3 harmonic	201.41175231035	127.4691416191
4 harmonic	57.8982893754	126.8062420451
5 harmonic	48.776492647595	115.6030999533
6 harmonic	34.066775159195	129.1835929926


Dihedral Coeffs

1 fourier 1	0.1155372516788	3	0
2 fourier 1	0.1115525666802	3	0
3 fourier 1	0.3432490222662	1	0
4 fourier 1	0.0473758381877	3	0
5 fourier 1	0.457973137376	1	0
6 fourier 1	0.09223874044423	3	0
7 fourier 1	0.3159935921949	2	180
8 fourier 1	0.3247796806857	1	180
9 fourier 1	0.1040663847541	3	0
10 fourier 1	0.1918272375143	3	0
11 fourier 1	0.9202179876409	1	180
12 fourier 1	1.163809172478	2	180
13 fourier 1	0.1679186987369	1	180
14 fourier 1	2.779853741805	2	180
15 fourier 1	0.9974165607242	2	180
16 fourier 1	0.1911926717192	3	0
17 fourier 1	3.661930099076	2	180
18 fourier 1	0.3445382149273	3	0
19 fourier 1	0.1364556373303	1	0
20 fourier 1	0.3026390167484	3	0
21 fourier 1	2.687457892086	2	180
22 fourier 1	2.772607909663	2	180
23 fourier 1	0.09692684957115	1	0


Improper Coeffs

1 3.5	-1	2
2 0.3666666666666667	-1	2


Atoms

1	4	1	-0.156973	-0.82050002	0.55419999	3.6903999
2	4	2	0.037280999	0.0407	-0.465	3.2607
3	4	2	-0.141881	-0.1026	-1.6935	4.1666999
4	4	2	-0.135263	0.93660003	-2.7873001	3.8682001
5	4	2	0.14067701	0.70270002	-3.5037999	2.5336001
6	4	1	-0.50378197	1.1597	-2.7151999	1.4713
7	4	3	0.084694996	1.2679	-4.4631	2.5418
8	4	3	0.084694996	-0.37830001	-3.7379	2.4044001
9	4	4	0.098622002	0.87150002	-3.5453	4.6794
10	4	4	0.098622002	1.9639	-2.3627	3.8985
11	4	4	0.099806003	0.032400001	-1.372	5.2224002
12	4	4	0.099806003	-1.1312	-2.1077001	4.0746999
13	4	3	0.092873	1.0944999	-0.1028	3.2585001
14	4	3	0.092873	-0.2375	-0.73250002	2.2209001
15	5	5	0.79046601	0.95459998	-3.2506001	0.60549998
16	5	6	-0.56145698	0.93739998	-4.5081	0.65719998
17	5	5	-0.30493599	0.68739998	-2.5422001	-0.65880001
18	5	5	-0.104703	0.70829999	-1.1993999	-0.6965
19	5	7	0.21234301	0.92110002	-0.62370002	0.1964
20	5	5	-0.061322	0.4418	-0.48210001	-1.9608001
21	5	7	0.19512101	0.4659	0.60070002	-1.961
22	5	5	-0.36668	0.17470001	-1.1644	-3.0869999
23	5	5	0.58130598	-0.090499997	-0.44069999	-4.3432999
24	5	6	-0.59319401	-0.34240001	-1.066	-5.4078999
25	5	5	-0.061322	0.1503	-2.6482999	-3.0471001
26	5	7	0.19512101	-0.063100003	-3.2151	-3.9447999
27	5	5	-0.104703	0.39250001	-3.2978001	-1.9022
28	5	7	0.21234301	0.37059999	-4.3808999	-1.8916
29	1	1	-0.156973	-0.39199999	0.97500002	4.4802999
30	1	2	0.037393998	0.92699999	0.50199997	4.5226002
31	1	2	-0.13614	1.7851	1.2421	3.49
32	1	2	-0.163192	3.2012999	0.65600002	3.3513999
33	1	2	0.090948999	4.0936999	0.92199999	4.5702
34	1	8	-0.67632502	3.7780001	0.036699999	5.6073999
35	1	9	0.39056399	4.3748002	0.2735	6.3634
36	1	3	0.084895	5.1546998	0.76730001	4.2726002
37	1	3	0.084895	3.977	1.9753	4.9108
38	1	4	0.102271	3.6782	1.1311001	2.4677
39	1	4	0.102271	3.1485	-0.43560001	3.1489999
40	1	4	0.099986002	1.2869	1.1677999	2.4981999
41	1	4	0.099986002	1.8433	2.3202	3.7543001
42	1	3	0.092873	0.94910002	-0.59500003	4.3344998
43	1	3	0.092873	1.3248	0.68830001	5.5415001
44	2	5	0.58130598	-0.070799999	0.64130002	-4.3639002
45	2	6	-0.59319401	0.63630003	1.2214	-5.2302999
46	2	5	-0.36668	-0.86119998	1.4168	-3.391
47	2	5	-0.061322	-1.6093	0.78259999	-2.4737
48	2	7	0.19512101	-1.642	-0.29969999	-2.4373
49	2	5	-0.102107	-2.4057	1.552	-1.4946001
50	2	7	0.21234301	-2.9974999	1.0075001	-0.76990002
51	2	5	-0.294103	-2.3903	2.8984001	-1.5088
52	2	5	0.82879901	-3.1810999	3.6837001	-0.53570002
53	2	6	-0.53708303	-3.8896999	3.1057999	0.3328
54	2	8	-0.67601001	-3.1479001	5.0756998	-0.57270002
55	2	9	0.402134	-3.684	5.6264	0.0876
56	2	5	-0.102107	-1.5626	3.5983	-2.5237
57	2	7	0.21234301	-1.5337	4.6801	-2.5553
58	2	5	-0.061322	-0.84149998	2.9001999	-3.4103999
59	2	7	0.19512101	-0.2447	3.4300001	-4.1427999
60	4	1	-0.156973	-2.0929	-3.1902001	15.6592
61	4	2	0.037280999	-1.3762	-2.8388	14.5068
62	4	2	-0.141881	-2.1355	-3.2927001	13.2546
63	4	2	-0.135263	-1.3296	-3.1022	11.9586
64	4	2	0.14067701	-1.1569	-1.6331	11.5573
65	4	1	-0.50378197	-0.1516	-1.0338	12.3251
66	4	3	0.084694996	-0.86650002	-1.5901999	10.4833
67	4	3	0.084694996	-2.1173	-1.0829999	11.6804
68	4	4	0.098622002	-1.8787	-3.618	11.1406
69	4	4	0.098622002	-0.33570001	-3.5933001	12.0462
70	4	4	0.099806003	-2.3699	-4.3747001	13.356
71	4	4	0.099806003	-3.1034	-2.7481999	13.1867
72	4	3	0.092873	-0.35929999	-3.2936001	14.5326
73	4	3	0.092873	-1.2638	-1.7355	14.4968
74	5	5	0.79046601	-0.1025	-0.044199999	12.0143
75	5	6	-0.56145698	-0.41240001	0.237	10.8273
76	5	5	-0.30493599	0.32260001	1.0082	12.9542
77	5	5	-0.104703	0.6487	0.69120002	14.2184
78	5	7	0.21234301	0.60439998	-0.33590001	14.5608
79	5	5	-0.061322	1.0763	1.7410001	15.1666
80	5	7	0.19512101	1.3336999	1.4556	16.179199
81	5	5	-0.36668	1.143	3.0248001	14.7756
82	5	5	0.58130598	1.5700001	4.0653	15.7282
83	5	6	-0.59319401	1.6379	5.2735	15.377
84	5	5	-0.061322	0.78210002	3.3771	13.3794
85	5	7	0.19512101	0.82990003	4.4064002	13.0462
86	5	5	-0.104703	0.39570001	2.4260001	12.5205
87	5	7	0.21234301	0.13600001	2.7014	11.5054
88	1	1	-0.156973	-1.9378	-4.1591001	15.8067
89	1	2	0.037393998	-0.88480002	-4.5318999	14.9597
90	1	2	-0.13614	0.45469999	-4.0855999	15.557
91	1	2	-0.163192	1.6422	-4.2996998	14.6019
92	1	2	0.090948999	2.0037	-5.7765002	14.3993
93	1	8	-0.67632502	1.1131001	-6.3772001	13.5019
94	1	9	0.39056399	1.3914	-7.3264999	13.4309
95	1	3	0.084895	3.0332	-5.8347001	13.9811
96	1	3	0.084895	1.9924001	-6.3133998	15.3743
97	1	4	0.102271	2.5251999	-3.7883	15.0412
98	1	4	0.102271	1.4389	-3.8192999	13.6205
99	1	4	0.099986002	0.39430001	-2.9990001	15.7875
100	1	4	0.099986002	0.63499999	-4.6202998	16.5147
101	1	3	0.092873	-1.0283999	-4.0888	13.9485
102	1	3	0.092873	-0.90020001	-5.6368999	14.8606
103	2	5	0.58130598	1.8315001	3.8	16.744499
104	2	6	-0.59319401	2.9349999	4.1894002	17.2111
105	2	5	-0.36668	0.90619999	2.9963	17.563299
106	2	5	-0.061322	-0.266	2.5889001	17.050301
107	2	7	0.19512101	-0.54549998	2.8445001	16.0352
108	2	5	-0.102107	-1.2004	1.7832	17.8643
109	2	7	0.21234301	-2.1366999	1.4728	17.418301
110	2	5	-0.294103	-0.88779998	1.446	19.1299
111	2	5	0.82879901	-1.8114001	0.63950002	19.958
112	2	6	-0.53708303	-2.9166	0.2482	19.4937
113	2	8	-0.67601001	-1.4638	0.30509999	21.2647
114	2	9	0.402134	-2.086	-0.24680001	21.843399
115	2	5	-0.102107	0.40880001	1.897	19.695801
116	2	7	0.21234301	0.68279999	1.6386	20.7108
117	2	5	-0.061322	1.2546	2.6271999	18.9575
118	2	7	0.19512101	2.1952	2.9465001	19.3894
119	4	1	-0.156973	1.1717	-1.8523999	27.778299
120	4	2	0.037280999	0.6304	-2.5216999	28.884701
121	4	2	-0.141881	1.3058	-3.8872001	29.057501
122	4	2	-0.135263	0.64349997	-4.7547002	30.1411
123	4	2	0.14067701	0.8818	-4.2403002	31.5651
124	4	1	-0.50378197	0.031500001	-3.1635001	31.842199
125	4	3	0.084694996	0.66670001	-5.0653	32.2813
126	4	3	0.084694996	1.9453	-3.9363999	31.693701
127	4	4	0.098622002	1.0786	-5.7756	30.068899
128	4	4	0.098622002	-0.4474	-4.8491001	29.946899
129	4	4	0.099806003	1.2433	-4.4370999	28.0933
130	4	4	0.099806003	2.3847001	-3.7437999	29.2887
131	4	3	0.092873	-0.47009999	-2.6438999	28.759899
132	4	3	0.092873	0.8114	-1.8983001	29.784
133	5	5	0.79046601	0.25870001	-2.8577001	32.808201
134	5	6	-0.56145698	0.69029999	-3.7077	33.6301
135	5	5	-0.30493599	0.077699997	-1.4493001	33.202202
136	5	5	-0.104703	-0.3827	-0.55430001	32.312302
137	5	7	0.21234301	-0.62589997	-0.85479999	31.299999
138	5	5	-0.061322	-0.56720001	0.85979998	32.7001
139	5	7	0.19512101	-0.9404	1.5585999	31.9615
140	5	5	-0.36668	-0.27579999	1.2668999	33.946899
141	5	5	0.58130598	-0.46250001	2.6793001	34.324799
142	5	6	-0.59319401	-0.19400001	3.0768001	35.490002
143	5	5	-0.061322	0.2339	0.27959999	34.931499
144	5	7	0.19512101	0.47400001	0.58929998	35.941002
145	5	5	-0.104703	0.40009999	-1.0012	34.580299
146	5	7	0.21234301	0.77310002	-1.7079999	35.311699
147	1	1	-0.156973	0.76120001	-2.2581	26.971201
148	1	2	0.037393998	-0.30919999	-3.0464001	27.4167
149	1	2	-0.13614	-1.5131	-2.1585	27.752001
150	1	2	-0.163192	-2.6661	-2.9315	28.416401
151	1	2	0.090948999	-3.3910999	-3.8868001	27.459999
152	1	8	-0.67632502	-2.6452	-5.0580001	27.283501
153	1	9	0.39056399	-3.1585	-5.6184001	26.646099
154	1	3	0.084895	-4.3778	-4.1492	27.9025
155	1	3	0.084895	-3.5694001	-3.3894999	26.480301
156	1	4	0.102271	-3.4052	-2.1868999	28.7819
157	1	4	0.102271	-2.2953999	-3.4893	29.3034
158	1	4	0.099986002	-1.1819	-1.3663	28.459101
159	1	4	0.099986002	-1.8746001	-1.6532	26.830299
160	1	3	0.092873	-0.0043000001	-3.6429	28.305799
161	1	3	0.092873	-0.57870001	-3.7495	26.6019
162	2	5	0.58130598	-0.83459997	3.3928001	33.601002
163	2	6	-0.59319401	-1.8195	4.1156001	33.908798
164	2	5	-0.36668	-0.19410001	3.5116	32.278801
165	2	5	-0.061322	0.85470003	2.7330999	31.9667
166	2	7	0.19512101	1.2416	2.0132	32.677799
167	2	5	-0.102107	1.5037	2.8459001	30.6434
168	2	7	0.21234301	2.3471	2.2028	30.4265
169	2	5	-0.294103	1.051	3.7291999	29.7335
170	2	5	0.82879901	1.6887	3.8543	28.404301
171	2	6	-0.53708303	2.6745999	3.1322	28.0933
172	2	8	-0.67601001	1.2009	4.7767	27.4816
173	2	9	0.402134	1.6273	4.8731999	26.567499
174	2	5	-0.102107	-0.1089	4.5892	30.08
175	2	7	0.21234301	-0.4912	5.3069	29.365299
176	2	5	-0.061322	-0.69599998	4.4864001	31.2792
177	2	7	0.19512101	-1.5405999	5.1234002	31.5123
178	4	1	-0.156973	-3.2067001	-1.5842	45.017899
179	4	2	0.037280999	-2.5000999	-0.60589999	44.304699
180	4	2	-0.141881	-3.4734001	0.27829999	43.5163
181	4	2	-0.135263	-2.7637	1.2611001	42.569901
182	4	2	0.14067701	-2.0276	2.3892	43.300999
183	4	1	-0.50378197	-0.80830002	1.9258	43.808701
184	4	3	0.084694996	-1.8293999	3.2114999	42.577
185	4	3	0.084694996	-2.6599	2.7944	44.123299
186	4	4	0.098622002	-3.5388999	1.7233	41.919998
187	4	4	0.098622002	-2.0603001	0.71560001	41.903301
188	4	4	0.099806003	-4.1276999	-0.37729999	42.901402
189	4	4	0.099806003	-4.1296	0.83359998	44.222698
190	4	3	0.092873	-1.7654999	-1.0858999	43.618
191	4	3	0.092873	-1.9404	0.013	45.0354
192	5	5	0.79046601	-0.37650001	2.7309999	44.301998
193	5	6	-0.56145698	-0.63200003	3.8972001	43.903301
194	5	5	-0.30493599	0.51859999	2.5039001	45.4505
195	5	5	-0.104703	0.77990001	1.2527	45.864201
196	5	7	0.21234301	0.33919999	0.39989999	45.3615
197	5	5	-0.061322	1.6768	1.017	47.0149
198	5	7	0.19512101	1.8695	-0.0024999999	47.3255
199	5	5	-0.36668	2.2407	2.0513	47.661098
200	5	5	0.58130598	3.1335001	1.8069	48.807999
201	5	6	-0.59319401	3.6701	2.766	49.4245
202	5	5	-0.061322	1.9524	3.4347	47.206001
203	5	7	0.19512101	2.3977001	4.2807002	47.714401
204	5	5	-0.104703	1.1407	3.6479001	46.1633
205	5	7	0.21234301	0.94150001	4.6641002	45.844898
206	1	1	-0.156973	-3.4575	-2.2876	44.364498
207	1	2	0.037393998	-2.7234001	-2.0332999	43.197498
208	1	2	-0.13614	-1.2779	-2.5141001	43.369499
209	1	2	-0.163192	-0.36430001	-2.1091001	42.1992
210	1	2	0.090948999	-0.66610003	-2.8656001	40.899399
211	1	8	-0.67632502	-1.7921	-2.3222001	40.27
212	1	9	0.39056399	-1.9399	-2.8645999	39.452801
213	1	3	0.084895	0.2105	-2.7674	40.2211
214	1	3	0.084895	-0.82429999	-3.947	41.110699
215	1	4	0.102271	0.68229997	-2.3376999	42.493301
216	1	4	0.102271	-0.42460001	-1.0131	42.0247
217	1	4	0.099986002	-0.86339998	-2.0624001	44.297699
218	1	4	0.099986002	-1.263	-3.6178999	43.5
219	1	3	0.092873	-2.7474	-0.94669998	42.956501
220	1	3	0.092873	-3.2042	-2.5852001	42.3638
221	2	5	0.58130598	3.3385999	0.79519999	49.133598
222	2	6	-0.59319401	4.5365	0.43180001	49.2752
223	2	5	-0.36668	2.2291999	-0.1364	49.405102
224	2	5	-0.061322	0.95789999	0.26699999	49.2486
225	2	7	0.19512101	0.73259997	1.2757	48.923801
226	2	5	-0.102107	-0.161	-0.6602	49.519402
227	2	7	0.21234301	-1.1729	-0.30050001	49.383202
228	2	5	-0.294103	0.079800002	-1.9215	49.924702
229	2	5	0.82879901	-1.0285	-2.8624001	50.199402
230	2	6	-0.53708303	-2.2286	-2.5014999	50.058399
231	2	8	-0.67601001	-0.7518	-4.1616001	50.618301
232	2	9	0.402134	-1.5003999	-4.8169999	50.8097
233	2	5	-0.102107	1.4859999	-2.3662	50.097198
234	2	7	0.21234301	1.7051001	-3.3754001	50.4221
235	2	5	-0.061322	2.4990001	-1.5253	49.851898
236	2	7	0.19512101	3.5174999	-1.8694	49.984299
237	4	1	-0.156973	-2.7718	1.1236	59.438301
238	4	2	0.037280999	-1.4624	0.8829	58.999699
239	4	2	-0.141881	-1.1005	1.8479	57.864601
240	4	2	-0.135263	0.25470001	1.5289	57.210999
241	4	2	0.14067701	1.455	1.8344001	58.1138
242	4	1	-0.50378197	1.6214	0.81879997	59.0625
243	4	3	0.084694996	2.3694	1.8924	57.481098
244	4	3	0.084694996	1.3186001	2.8173001	58.619099
245	4	4	0.098622002	0.345	2.1566999	56.297501
246	4	4	0.098622002	0.28459999	0.4668	56.882702
247	4	4	0.099806003	-1.8841	1.7794	57.078899
248	4	4	0.099806003	-1.1042	2.8927	58.247101
249	4	3	0.092873	-1.358	-0.1737	58.661499
250	4	3	0.092873	-0.77890003	1.0424	59.858501
251	5	5	0.79046601	2.434	1.0987999	59.645199
252	5	6	-0.56145698	3.3405001	1.8022	59.127899
253	5	5	-0.30493599	2.5163	0.6767	61.054798
254	5	5	-0.104703	1.5395	-0.072999999	61.592098
255	5	7	0.21234301	0.68419999	-0.37549999	60.999401
256	5	5	-0.061322	1.6153001	-0.50050002	63.0047
257	5	7	0.19512101	0.8132	-1.1047	63.4104
258	5	5	-0.36668	2.6616001	-0.1436	63.768299
259	5	5	0.58130598	2.7286999	-0.57410002	65.176399
260	5	6	-0.59319401	3.7032001	-0.24789999	65.905502
261	5	5	-0.061322	3.7416	0.68550003	63.176701
262	5	7	0.19512101	4.5927	0.98269999	63.776699
263	5	5	-0.104703	3.6731999	1.0718	61.896999
264	5	7	0.21234301	4.4703999	1.6766	61.4818
265	1	1	-0.156973	-3.3768001	0.7076	58.770802
266	1	2	0.037393998	-2.5778999	-0.1057	57.954899
267	1	2	-0.13614	-2.2493	-1.4166	58.678699
268	1	2	-0.163192	-1.2298	-2.2850001	57.9203
269	1	2	0.090948999	-1.7941999	-2.9087999	56.637699
270	1	8	-0.67632502	-1.824	-1.9615	55.6077
271	1	9	0.39056399	-2.2124	-2.4224999	54.820099
272	1	3	0.084895	-1.1349	-3.7523999	56.334702
273	1	3	0.084895	-2.8148999	-3.3127	56.822399
274	1	4	0.102271	-0.92159998	-3.1112001	58.596001
275	1	4	0.102271	-0.31799999	-1.6938	57.687
276	1	4	0.099986002	-1.8155	-1.1719	59.673302
277	1	4	0.099986002	-3.1837001	-1.9922	58.8545
278	1	3	0.092873	-1.6433001	0.43009999	57.674
279	1	3	0.092873	-3.1463001	-0.3233	57.027199
280	2	5	0.58130598	1.9371001	-1.1785001	65.600098
281	2	6	-0.59319401	2.2388	-2.2458999	66.197502
282	2	5	-0.36668	0.53130001	-0.75319999	65.476501
283	2	5	-0.061322	0.227	0.3872	64.835999
284	2	7	0.19512101	1.0053	1.0057	64.405403
285	2	5	-0.102107	-1.1799999	0.82190001	64.707802
286	2	7	0.21234301	-1.3881	1.747	64.185501
287	2	5	-0.294103	-2.1747	0.079599999	65.230103
288	2	5	0.82879901	-3.5882001	0.5	65.110199
289	2	6	-0.53708303	-3.8933001	1.5677	64.512703
290	2	8	-0.67601001	-4.5978999	-0.28619999	65.660202
291	2	9	0.402134	-5.5702	-0.0111	65.585602
292	2	5	-0.102107	-1.8367	-1.1812	65.937897
293	2	7	0.21234301	-2.6187	-1.7952	66.366302
294	2	5	-0.061322	-0.56160003	-1.5741	66.053703
295	2	7	0.19512101	-0.33649999	-2.4969001	66.574303
296	4	1	-0.156973	-0.22669999	17.797001	-3.0098
297	4	2	0.037280999	-0.39089999	16.409901	-3.1278999
298	4	2	-0.141881	0.1674	15.9251	-4.4710002
299	4	2	-0.135263	-0.13609999	14.4435	-4.7507
300	4	2	0.14067701	0.65060002	13.4795	-3.8557999
301	4	1	-0.50378197	0.065899998	13.4073	-2.5862
302	4	3	0.084694996	0.63230002	12.4681	-4.3211999
303	4	3	0.084694996	1.7121	13.8061	-3.7748001
304	4	4	0.098622002	0.1433	14.2352	-5.8067999
305	4	4	0.098622002	-1.2268	14.2482	-4.6560001
306	4	4	0.099806003	-0.29300001	16.5282	-5.2835999
307	4	4	0.099806003	1.265	16.103901	-4.5057998
308	4	3	0.092873	-1.4680001	16.1404	-3.0330999
309	4	3	0.092873	0.1628	15.9276	-2.2966001
310	5	5	0.79046601	0.65630001	12.756	-2.0332999
311	5	6	-0.56145698	1.2733999	11.8368	-2.632
312	5	5	-0.30493599	0.76609999	12.9133	-0.5722
313	5	5	-0.104703	0.1019	13.9008	0.051199999
314	5	7	0.21234301	-0.51959997	14.5896	-0.50870001
315	5	5	-0.061322	0.2067	14.0646	1.5161999
316	5	7	0.19512101	-0.3405	14.8694	1.9914
317	5	5	-0.36668	0.96820003	13.2283	2.2416
318	5	5	0.58130598	1.0673	13.3994	3.7021999
319	5	6	-0.59319401	1.7769001	12.6234	4.3964
320	5	5	-0.061322	1.7036	12.137	1.5544
321	5	7	0.19512101	2.322	11.4533	2.1224
322	5	5	-0.104703	1.6078	11.9884	0.22759999
323	5	7	0.21234301	2.1514001	11.1864	-0.25709999
324	1	1	-0.156973	-0.93889999	18.2159	-3.5592
325	1	2	0.037393998	-1.8446	17.1978	-3.8887
326	1	2	-0.13614	-2.7541001	16.894699	-2.6923001
327	1	2	-0.163192	-3.6556001	15.6677	-2.9157
328	1	2	0.090948999	-4.7659001	15.9059	-3.9468
329	1	8	-0.67632502	-4.2505002	15.8223	-5.2455001
330	1	9	0.39056399	-5.0110998	16.002001	-5.8562002
331	1	3	0.084895	-5.5450001	15.1223	-3.8153999
332	1	3	0.084895	-5.2392001	16.899599	-3.7809
333	1	4	0.102271	-4.1367998	15.4212	-1.9452
334	1	4	0.102271	-3.0434	14.7884	-3.2114999
335	1	4	0.099986002	-2.1147001	16.691	-1.8051
336	1	4	0.099986002	-3.3754001	17.7862	-2.4583001
337	1	3	0.092873	-1.2964	16.281799	-4.2044001
338	1	3	0.092873	-2.4574001	17.5487	-4.7445002
339	2	5	0.58130598	0.52780002	14.1976	4.1954999
340	2	6	-0.59319401	-0.2044	13.919	5.1822
341	2	5	-0.36668	0.65310001	15.5855	3.7154
342	2	5	-0.061322	1.4375	15.865	2.6619
343	2	7	0.19512101	1.9855	15.0797	2.1551001
344	2	5	-0.102107	1.5697	17.254	2.174
345	2	7	0.21234301	2.2112999	17.4424	1.3226
346	2	5	-0.294103	0.90429997	18.256599	2.7783
347	2	5	0.82879901	1.025	19.6523	2.3022001
348	2	6	-0.53708303	1.757	19.934099	1.3148
349	2	8	-0.67601001	0.32620001	20.6709	2.9458001
350	2	9	0.402134	0.3989	21.6311	2.6307001
351	2	5	-0.102107	0.037099998	17.945999	3.9428999
352	2	7	0.21234301	-0.50800002	18.7349	4.4454999
353	2	5	-0.061322	-0.081799999	16.687201	4.3843999
354	2	7	0.19512101	-0.7191	16.4821	5.2357998
355	4	1	-0.156973	-0.5848	14.7104	19.156
356	4	2	0.037280999	0.58710003	15.3242	18.6926
357	4	2	-0.141881	1.7842	14.8865	19.5448
358	4	2	-0.135263	3.0746	15.654	19.211201
359	4	2	0.14067701	3.6665001	15.2886	17.8454
360	4	1	-0.50378197	2.9632001	15.9341	16.8218
361	4	3	0.084694996	4.7293	15.6195	17.819099
362	4	3	0.084694996	3.6417	14.1854	17.6957
363	4	4	0.098622002	3.8282001	15.4017	19.989201
364	4	4	0.098622002	2.898	16.750299	19.269699
365	4	4	0.099806003	1.543	15.0709	20.6143
366	4	4	0.099806003	1.9479001	13.7925	19.4252
367	4	3	0.092873	0.4761	16.432699	18.7162
368	4	3	0.092873	0.74360001	15.0125	17.639799
369	5	5	0.79046601	3.4036	15.629	15.9323
370	5	6	-0.56145698	4.6248002	15.324	15.9311
371	5	5	-0.30493599	2.6047001	15.5553	14.6961
372	5	5	-0.104703	1.302	15.883	14.715
373	5	7	0.21234301	0.8251	16.204399	15.6334
374	5	5	-0.061322	0.49450001	15.8119	13.4793
375	5	7	0.19512101	-0.55320001	16.082701	13.5247
376	5	5	-0.36668	1.0537	15.4179	12.3228
377	5	5	0.58130598	0.24070001	15.3496	11.0954
378	5	6	-0.59319401	0.75019997	14.9822	10.0031
379	5	5	-0.061322	2.4928999	15.0545	12.3002
380	5	7	0.19512101	2.9609001	14.7348	11.3775
381	5	5	-0.104703	3.2242999	15.1197	13.4193
382	5	7	0.21234301	4.2730999	14.8508	13.3843
383	1	1	-0.156973	-0.86559999	15.2082	19.9671
384	1	2	0.037393998	-0.1018	16.383301	20.0028
385	1	2	-0.13614	-0.6649	17.4076	19.010799
386	1	2	-0.163192	0.22409999	18.6549	18.862
387	1	2	0.090948999	0.2167	19.560699	20.099899
388	1	8	-0.67632502	1.0455	19.031099	21.0958
389	1	9	0.39056399	0.98089999	19.6513	21.8671
390	1	3	0.084895	0.59869999	20.563801	19.8067
391	1	3	0.084895	-0.82139999	19.681101	20.483101
392	1	4	0.102271	-0.1628	19.244801	18.003901
393	1	4	0.102271	1.266	18.358101	18.6136
394	1	4	0.099986002	-0.74489999	16.9249	18.011801
395	1	4	0.099986002	-1.6900001	17.705299	19.3207
396	1	3	0.092873	0.963	16.1579	19.7691
397	1	3	0.092873	-0.15270001	16.793301	21.032499
398	2	5	0.58130598	-0.80809999	15.6163	11.1204
399	2	6	-0.59319401	-1.2437	16.4538	10.2862
400	2	5	-0.36668	-1.7058001	15.0052	12.1169
401	2	5	-0.061322	-1.225	14.1143	12.9993
402	2	7	0.19512101	-0.17839999	13.8345	12.9899
403	2	5	-0.102107	-2.1180999	13.4959	14.0016
404	2	7	0.21234301	-1.6961	12.7814	14.6968
405	2	5	-0.294103	-3.4247	13.8187	14.0441
406	2	5	0.82879901	-4.3320999	13.2094	15.0413
407	2	6	-0.53708303	-3.8989	12.3709	15.8776
408	2	8	-0.67601001	-5.6799002	13.5604	15.063
409	2	9	0.402134	-6.3129001	13.1516	15.7403
410	2	5	-0.102107	-3.9549999	14.8039	13.0678
411	2	7	0.21234301	-5.0018001	15.0797	13.0819
412	2	5	-0.061322	-3.1449001	15.3635	12.1599
413	2	7	0.19512101	-3.5518999	16.079599	11.4564
414	4	1	-0.156973	1.4296	15.6794	34.444302
415	4	2	0.037280999	0.2823	16.384701	34.055199
416	4	2	-0.141881	0.2218	17.734501	34.7798
417	4	2	-0.135263	-1.0972	18.488501	34.540901
418	4	2	0.14067701	-1.2417001	19.0291	33.113998
419	4	1	-0.50378197	-1.6169	18.0021	32.2402
420	4	3	0.084694996	-2.0309999	19.814501	33.110199
421	4	3	0.084694996	-0.28709999	19.493601	32.777802
422	4	4	0.098622002	-1.1226	19.353901	35.238899
423	4	4	0.098622002	-1.9642	17.839199	34.792702
424	4	4	0.099806003	0.31990001	17.5539	35.872398
425	4	4	0.099806003	1.0844001	18.364599	34.468601
426	4	3	0.092873	-0.63069999	15.7841	34.272499
427	4	3	0.092873	0.3373	16.5502	32.9599
428	5	5	0.79046601	-1.6781	18.433399	31.297501
429	5	6	-0.56145698	-1.9826	19.6511	31.203899
430	5	5	-0.30493599	-1.4095	17.626499	30.093901
431	5	5	-0.104703	-1.0843	16.3283	30.211399
432	5	7	0.21234301	-1.0164	15.8606	31.1866
433	5	5	-0.061322	-0.81410003	15.5127	29.0091
434	5	7	0.19512101	-0.55470002	14.4687	29.134701
435	5	5	-0.36668	-0.88959998	16.060301	27.784401
436	5	5	0.58130598	-0.61790001	15.2395	26.590799
437	5	6	-0.59319401	-0.6846	15.738	25.435499
438	5	5	-0.061322	-1.2478	17.4949	27.6525
439	5	7	0.19512101	-1.3135999	17.9536	26.6737
440	5	5	-0.104703	-1.4934	18.233299	28.7416
441	5	7	0.21234301	-1.7535	19.278601	28.6266
442	1	1	-0.156973	1.237	15.2929	35.337601
443	1	2	0.037393998	-0.14139999	15.4361	35.549702
444	1	2	-0.13614	-0.90859997	14.3638	34.767502
445	1	2	-0.163192	-2.4339001	14.5647	34.806198
446	1	2	0.090948999	-3.0520999	14.2803	36.180901
447	1	8	-0.67632502	-2.8405001	15.3623	37.043301
448	1	9	0.39056399	-3.2465999	15.1066	37.911301
449	1	3	0.084895	-4.1469002	14.1288	36.051998
450	1	3	0.084895	-2.6196001	13.35	36.6129
451	1	4	0.102271	-2.8857999	13.8606	34.075298
452	1	4	0.102271	-2.6956	15.5934	34.476398
453	1	4	0.099986002	-0.58639997	14.4043	33.703499
454	1	4	0.099986002	-0.64719999	13.3563	35.157299
455	1	3	0.092873	-0.47420001	16.4541	35.245998
456	1	3	0.092873	-0.33469999	15.3165	36.6357
457	2	5	0.58130598	-0.35730001	14.1942	26.695601
458	2	6	-0.59319401	-0.99940002	13.3368	26.0324
459	2	5	-0.36668	0.73250002	13.788	27.601101
460	2	5	-0.061322	1.4066	14.7148	28.3011
461	2	7	0.19512101	1.1605	15.766	28.2094
462	2	5	-0.102107	2.5013001	14.3168	29.210899
463	2	7	0.21234301	3.0232999	15.0909	29.758801
464	2	5	-0.294103	2.8359001	13.02	29.351
465	2	5	0.82879901	3.9286001	12.6046	30.2579
466	2	6	-0.53708303	4.573	13.4605	30.923
467	2	8	-0.67601001	4.2549	11.2563	30.383699
468	2	9	0.402134	5.0005002	10.9571	31.001101
469	2	5	-0.102107	2.0895	11.9963	28.5765
470	2	7	0.21234301	2.3397999	10.9473	28.672001
471	2	5	-0.061322	1.0979	12.358	27.752199
472	2	7	0.19512101	0.56629997	11.5956	27.195999
473	4	1	-0.156973	0.53399998	11.8005	45.379101
474	4	2	0.037280999	-0.32440001	12.6489	44.6661
475	4	2	-0.141881	-1.5228	11.8571	44.1297
476	4	2	-0.135263	-2.4166	12.6809	43.187401
477	4	2	0.14067701	-3.2144001	13.7756	43.904499
478	4	1	-0.50378197	-2.3961999	14.88	44.1688
479	4	3	0.084694996	-4.0518999	14.095	43.2439
480	4	3	0.084694996	-3.6487999	13.3807	44.8508
481	4	4	0.098622002	-3.142	11.983	42.714401
482	4	4	0.098622002	-1.8088	13.1255	42.369099
483	4	4	0.099806003	-1.1417	10.981	43.5611
484	4	4	0.099806003	-2.1228001	11.4652	44.980701
485	4	3	0.092873	0.2256	13.1383	43.8297
486	4	3	0.092873	-0.67820001	13.4391	45.359299
487	5	5	0.79046601	-2.993	15.5685	44.667
488	5	6	-0.56145698	-4.2291002	15.586	44.430698
489	5	5	-0.30493599	-2.395	16.5051	45.634899
490	5	5	-0.104703	-1.0739	16.4722	45.876801
491	5	7	0.21234301	-0.435	15.7615	45.365898
492	5	5	-0.061322	-0.46689999	17.4086	46.8456
493	5	7	0.19512101	0.60100001	17.3592	47.019798
494	5	5	-0.36668	-1.2294	18.3032	47.496601
495	5	5	0.58130598	-0.61559999	19.232901	48.461601
496	5	6	-0.59319401	-1.3169	20.0776	49.079899
497	5	5	-0.061322	-2.6896	18.340401	47.2314
498	5	7	0.19512101	-3.3199999	19.054501	47.746498
499	5	5	-0.104703	-3.2390001	17.4928	46.353199
500	5	7	0.21234301	-4.3063002	17.534201	46.1721
501	1	1	-0.156973	1.0565	11.2926	44.7057
502	1	2	0.037393998	0.83710003	11.9181	43.470299
503	1	2	-0.13614	1.6827	13.1927	43.368
504	1	2	-0.163192	1.3631999	14.0297	42.116699
505	1	2	0.090948999	1.8357	13.379	40.810501
506	1	8	-0.67632502	0.94770002	12.3701	40.419899
507	1	9	0.39056399	1.3193001	11.9833	39.585602
508	1	3	0.084895	1.8681999	14.1594	40.017899
509	1	3	0.084895	2.8617001	12.9655	40.935001
510	1	4	0.102271	1.8839999	15.0054	42.2211
511	1	4	0.102271	0.2737	14.2428	42.063499
512	1	4	0.099986002	1.4799	13.824	44.2612
513	1	4	0.099986002	2.7623	12.9287	43.384102
514	1	3	0.092873	-0.24339999	12.1553	43.3452
515	1	3	0.092873	1.1324	11.2085	42.6702
516	2	5	0.58130598	0.4499	19.1992	48.6492
517	2	6	-0.59319401	1.1169	20.264799	48.567001
518	2	5	-0.36668	1.1028	17.9238	48.9949
519	2	5	-0.061322	0.377	16.797001	49.0779
520	2	7	0.19512101	-0.69059998	16.8106	48.893799
521	2	5	-0.102107	1.0231	15.5136	49.424702
522	2	7	0.21234301	0.4068	14.6255	49.483101
523	2	5	-0.294103	2.3477001	15.4573	49.6605
524	2	5	0.82879901	3.0100999	14.1809	50.008202
525	2	6	-0.53708303	2.3450999	13.1127	50.091099
526	2	8	-0.67601001	4.3818998	14.1505	50.247898
527	2	9	0.402134	4.8491001	13.2837	50.486698
528	2	5	-0.102107	3.1489	16.704	49.568298
529	2	7	0.21234301	4.2154002	16.684401	49.753399
530	2	5	-0.061322	2.5625	17.8664	49.2542
531	2	7	0.19512101	3.165	18.7644	49.1926
532	4	1	-0.156973	3.5954001	15.6404	60.536301
533	4	2	0.037280999	3.0811999	16.5625	61.458302
534	4	2	-0.141881	3.6982	17.945801	61.221001
535	4	2	-0.135263	3.3187001	18.969299	62.304401
536	4	2	0.14067701	1.8493	19.401501	62.2481
537	4	1	-0.50378197	1.0314	18.4214	62.822201
538	4	3	0.084694996	1.7358	20.3493	62.821301
539	4	3	0.084694996	1.5425	19.593	61.194901
540	4	4	0.098622002	3.9475	19.873501	62.149799
541	4	4	0.098622002	3.5609	18.570801	63.3139
542	4	4	0.099806003	4.8053002	17.8435	61.219398
543	4	4	0.099806003	3.3980999	18.321699	60.217701
544	4	3	0.092873	3.2823999	16.219	62.4991
545	4	3	0.092873	1.9825	16.6134	61.315102
546	5	5	0.79046601	0.057399999	18.7705	62.7337
547	5	6	-0.56145698	-0.1459	20.0126	62.727901
548	5	5	-0.30493599	-1.063	17.820499	62.615601
549	5	5	-0.104703	-0.82859999	16.497601	62.622101
550	5	7	0.21234301	0.18080001	16.114599	62.714401
551	5	5	-0.061322	-1.9471	15.5389	62.504501
552	5	7	0.19512101	-1.7278	14.4783	62.513199
553	5	5	-0.36668	-3.2112999	15.9791	62.388802
554	5	5	0.58130598	-4.3206	15.0157	62.2715
555	5	6	-0.59319401	-5.5114999	15.4125	62.162498
556	5	5	-0.061322	-3.4721999	17.4405	62.380501
557	5	7	0.19512101	-4.4844999	17.8139	62.2882
558	5	5	-0.104703	-2.4591999	18.308701	62.4879
559	5	7	0.21234301	-2.6681001	19.3717	62.48
560	1	1	-0.156973	4.5005002	15.3909	60.857399
561	1	2	0.037393998	4.6111002	15.8775	62.167599
562	1	2	-0.13614	3.8622	14.9554	63.1367
563	1	2	-0.163192	3.7865	15.5177	64.5672
564	1	2	0.090948999	5.1353002	15.5109	65.2976
565	1	8	-0.67632502	5.9271002	16.5823	64.868103
566	1	9	0.39056399	6.7834001	16.5082	65.363098
567	1	3	0.084895	4.947	15.6148	66.389397
568	1	3	0.084895	5.6623998	14.5458	65.124802
569	1	4	0.102271	3.082	14.8807	65.143402
570	1	4	0.102271	3.3650999	16.546101	64.555298
571	1	4	0.099986002	2.8215001	14.8242	62.766499
572	1	4	0.099986002	4.3418999	13.9527	63.1464
573	1	3	0.092873	4.2117	16.9149	62.228199
574	1	3	0.092873	5.6880999	15.9033	62.433201
575	2	5	0.58130598	-4.1217999	13.9517	62.2784
576	2	6	-0.59319401	-4.7600002	13.2179	63.079399
577	2	5	-0.36668	-3.1196001	13.3779	61.362598
578	2	5	-0.061322	-2.4479001	14.1744	60.5154
579	2	7	0.19512101	-2.6329999	15.2416	60.493599
580	2	5	-0.102107	-1.4416	13.6075	59.592899
581	2	7	0.21234301	-0.91970003	14.2794	58.9235
582	2	5	-0.294103	-1.1842999	12.2858	59.591
583	2	5	0.82879901	-0.17990001	11.7024	58.674599
584	2	6	-0.53708303	0.4605	12.4344	57.871899
585	2	8	-0.67601001	0.066600002	10.3316	58.6926
586	2	9	0.402134	0.75169998	9.9181004	58.071098
587	2	5	-0.102107	-1.9277	11.4063	60.5284
588	2	7	0.21234301	-1.7386	10.3405	60.545799
589	2	5	-0.061322	-2.8394001	11.9209	61.363701
590	2	7	0.19512101	-3.3710001	11.2619	62.0392
591	4	1	-0.156973	1.6748	32.733002	2.9093001
592	4	2	0.037280999	0.53119999	31.941	3.0824001
593	4	2	-0.141881	-0.36070001	32.534801	4.1788998
594	4	2	-0.135263	-1.5452	31.626801	4.5503001
595	4	2	0.14067701	-2.6155	31.541401	3.4565001
596	4	1	-0.50378197	-2.2054	30.669201	2.4414001
597	4	3	0.084694996	-3.5558	31.1535	3.9094
598	4	3	0.084694996	-2.8222001	32.552299	3.0378001
599	4	4	0.098622002	-2.0211	32.048801	5.4625001
600	4	4	0.098622002	-1.1838	30.607901	4.8109999
601	4	4	0.099806003	0.25479999	32.685299	5.0924001
602	4	4	0.099806003	-0.73049998	33.534401	3.8592999
603	4	3	0.092873	0.82190001	30.8964	3.3392
604	4	3	0.092873	-0.0208	31.922001	2.1206
605	5	5	0.79046601	-2.9642999	30.6744	1.7327