Title

96 atoms
103 bonds
190 angles
327 dihedrals
78 impropers

9 atom types
13 bond types
7 angle types
12 dihedral types
2 improper types
-4.860000134 95.13999987 xlo xhi
-3.539000034 96.46099997 ylo yhi
-5.835000038 94.16499996 zlo zhi
0.0 0.0 0.0 xy xz yz

Masses

1	15.99943
2	12.01078
3	1.007947
4	12.01078
5	1.007947
6	15.99943
7	15.99943
8	1.007947
9	35.4532


Pair Coeffs

1	0.16846514	3.0251065
2	0.086879315	3.4806469
3	0.015611343	2.5725815
4	0.10884061	3.3795318
5	0.015779483	2.6445434
6	0.2102061	3.0398122
7	0.20947353	2.99716
8	1.2326e-05	0.53453923
9	0.2656001	3.3075278

Bond Coeffs

1 harmonic	425.69104206635	1.362945806494
2 harmonic	300.03137914615	1.451203938761
3 harmonic	360.7852444772	1.387193227181
4 harmonic	397.2545789619	1.085358495916
5 harmonic	289.73813263395	1.498646816465
6 harmonic	264.62148576755	1.52190126495
7 harmonic	301.15400723785	1.345741232799
8 harmonic	370.04670688625	1.093899492634
9 harmonic	582.698766451	1.225198386222
10 harmonic	279.1350963404	1.454628925034
11 harmonic	385.7604595587	1.369745182308
12 harmonic	543.5267831885	0.9716763312559
13 harmonic	218.0227703685	1.746066037062


Angle Coeffs

1 harmonic	57.8982893754	126.8062420451
2 harmonic	65.09061609600001	110.3538806181
3 harmonic	34.066775159195	129.1835929926
4 harmonic	14.32262199324	138.3184368373
5 harmonic	53.20531626545	116.5475862634
6 harmonic	201.41175231035	127.4691416191
7 harmonic	48.776492647595	115.6030999533


Dihedral Coeffs

1 fourier 1	3.661930099076	2	180
2 fourier 1	1.532232714475	2	180
3 fourier 1	0.457973137376	1	0
4 fourier 1	0.02664938770063	3	0
5 fourier 1	0.1155372516788	3	0
6 fourier 1	0.09223874044423	3	0
7 fourier 1	0.3159935921949	2	180
8 fourier 1	0.3247796806857	1	180
9 fourier 1	2.779853741805	2	180
10 fourier 1	0.9974165607242	2	180
11 fourier 1	0.1040663847541	3	0
12 fourier 1	0.8283030590042	2	180


Improper Coeffs

1 0.3666666666666667	-1	2
2 3.5	-1	2


Atoms

1	1	1	-0.054409001	2.1949999	3.237	-2.8929999
2	1	2	0.227448	2.24	2.1010001	-2.0899999
3	1	2	-0.357133	3.3900001	1.41	-1.973
4	1	3	0.20014501	4.2779999	1.737	-2.5
5	1	2	-0.022936	3.4519999	0.199	-1.12
6	1	3	0.19457901	4.3829999	-0.34200001	-1.012
7	1	2	-0.23407	2.339	-0.20299999	-0.48699999
8	1	2	-0.058975998	1.105	0.54299998	-0.60500002
9	1	2	-0.240145	1.028	1.65	-1.359
10	1	3	0.194024	0.103	2.2079999	-1.429
11	1	4	0.110443	0.032000002	-0.063000001	0.23899999
12	1	2	-0.063528001	-1.251	-0.252	-0.50199997
13	1	2	-0.210271	-1.432	-0.84600002	-1.691
14	1	3	0.19274899	-0.58899999	-1.24	-2.2460001
15	1	2	0.392068	-2.812	-0.963	-2.2290001
16	1	1	-0.45482299	-3.036	-1.562	-3.4649999
17	1	2	-0.296556	-3.852	-0.491	-1.516
18	1	3	0.201839	-4.8600001	-0.57800001	-1.9
19	1	2	-0.026254	-3.6259999	0.148	-0.197
20	1	3	0.19457901	-4.4660001	0.50700003	0.382
21	1	2	-0.23407	-2.369	0.26300001	0.259
22	1	4	-0.030873001	-1.9170001	0.838	1.566
23	1	4	-0.139019	-2.3559999	-0.079999998	2.721
24	1	5	0.078598	-3.464	-0.132	2.78
25	1	5	0.078598	-1.965	-1.11	2.575
26	1	5	0.078598	-1.972	0.308	3.6900001
27	1	4	-0.139019	-2.471	2.26	1.772
28	1	5	0.078598	-2.2179999	2.908	0.90399998
29	1	5	0.078598	-3.576	2.243	1.885
30	1	5	0.078598	-2.0350001	2.7119999	2.688
31	1	4	-0.161973	-0.361	0.85600001	1.436
32	1	5	0.110972	-0.012	1.895	1.24
33	1	5	0.110972	0.138	0.551	2.382
34	1	4	-0.161973	0.64399999	-1.42	0.704
35	1	5	0.110972	0.192	-2.2539999	0.12
36	1	5	0.110972	0.41100001	-1.6440001	1.768
37	1	4	-0.030873001	2.1830001	-1.367	0.442
38	1	4	-0.139019	2.948	-1.099	1.751
39	1	5	0.078598	4.0380001	-1.011	1.556
40	1	5	0.078598	2.5999999	-0.154	2.223
41	1	5	0.078598	2.7869999	-1.931	2.47
42	1	4	-0.139019	2.678	-2.6719999	-0.20900001
43	1	5	0.078598	2.1800001	-2.832	-1.1900001
44	1	5	0.078598	3.776	-2.641	-0.375
45	1	5	0.078598	2.4489999	-3.539	0.44800001
46	1	2	0.62335998	-2.2420001	-1.938	-4.0380001
47	1	6	-0.53470099	-1.659	-2.948	-3.6830001
48	1	1	-0.054409001	1.341	3.773	-2.9949999
49	1	2	0.227448	1.108	4.9089999	-2.2249999
50	1	2	-0.357133	-0.037	5.5999999	-2.382
51	1	3	0.20014501	-0.77600002	5.2729998	-3.102
52	1	2	-0.022936	-0.29699999	6.8109999	-1.567
53	1	3	0.19457901	-1.227	7.3520002	-1.681
54	1	2	-0.23407	0.63499999	7.2129998	-0.69
55	1	2	-0.058975998	1.863	6.467	-0.514
56	1	2	-0.240145	2.115	5.3610001	-1.23
57	1	3	0.194024	3.03	4.802	-1.08
58	1	4	0.110443	2.707	7.073	0.55800003
59	1	2	-0.013702	4.1290002	7.2620001	0.139
60	1	2	-0.404071	4.5840001	7.8559999	-0.97399998
61	1	3	0.199672	3.8959999	8.25	-1.711
62	1	2	0.35016799	6.052	7.973	-1.1720001
63	1	7	-0.65965199	6.5609999	8.5719995	-2.3210001
64	1	8	0.42391601	5.9450002	8.9350004	-3.039
65	1	2	-0.43064001	6.895	7.5009999	-0.235
66	1	3	0.205424	7.9650002	7.5879998	-0.37099999
67	1	2	0.044915002	6.3649998	6.8629999	0.995
68	1	3	0.19457901	7.0450001	6.5029998	1.755
69	1	2	-0.23407	5.0359998	6.7470002	1.142
70	1	4	-0.030873001	4.289	6.1719999	2.306
71	1	4	-0.139019	4.4439998	7.0900002	3.5320001
72	1	5	0.078598	5.5079999	7.1420002	3.8499999
73	1	5	0.078598	4.098	8.1199999	3.2980001
74	1	5	0.078598	3.8440001	6.7020001	4.3829999
75	1	4	-0.139019	4.7789998	4.75	2.6359999
76	1	5	0.078598	4.7379999	4.1020002	1.733
77	1	5	0.078598	5.8270001	4.7670002	3.006
78	1	5	0.078598	4.1399999	4.2979999	3.424
79	1	4	-0.161973	2.8069999	6.1539998	1.814
80	1	5	0.110972	2.5150001	5.1149998	1.5420001
81	1	5	0.110972	2.0999999	6.4590001	2.6159999
82	1	4	-0.161973	2.003	8.4300003	0.866
83	1	5	0.110972	2.579	9.2639999	0.405
84	1	5	0.110972	1.979	8.6540003	1.955
85	1	4	-0.030873001	0.56900001	8.3769999	0.25
86	1	4	-0.139019	-0.48199999	8.1090002	1.342
87	1	5	0.078598	-1.4960001	8.0209999	0.89600003
88	1	5	0.078598	-0.255	7.165	1.882
89	1	5	0.078598	-0.49599999	8.941	2.079
90	1	4	-0.139019	0.241	9.6820002	-0.5
91	1	5	0.078598	0.95499998	9.8430004	-1.336
92	1	5	0.078598	-0.787	9.651	-0.91900003
93	1	5	0.078598	0.308	10.549	0.192
94	1	2	0.462715	-1.9400001	-1.428	-4.9460001
95	1	6	-0.62423402	-2.5769999	-0.47	-5.349
96	1	9	-0.107936	-0.53299999	-1.9809999	-5.835

Bonds

1	1	1	2
2	2	1	48
3	3	2	3
4	3	2	9
5	4	3	4
6	3	3	5
7	4	5	6
8	3	5	7
9	3	7	8
10	5	7	37
11	3	8	9
12	5	8	11
13	4	9	10
14	5	11	12
15	6	11	34
16	6	11	31
17	3	12	13
18	3	12	21
19	4	13	14
20	3	13	15
21	1	15	16
22	3	15	17
23	7	16	46
24	4	17	18
25	3	17	19
26	4	19	20
27	3	19	21
28	5	21	22
29	6	22	23
30	6	22	27
31	6	22	31
32	8	23	24
33	8	23	25
34	8	23	26
35	8	27	28
36	8	27	29
37	8	27	30
38	8	31	32
39	8	31	33
40	8	34	35
41	8	34	36
42	6	34	37
43	6	37	38
44	6	37	42
45	8	38	39
46	8	38	40
47	8	38	41
48	8	42	43
49	8	42	44
50	8	42	45
51	9	46	47
52	10	46	94
53	1	48	49
54	3	49	50
55	3	49	56
56	4	50	51
57	3	50	52
58	4	52	53
59	3	52	54
60	3	54	55
61	5	54	85
62	3	55	56
63	5	55	58
64	4	56	57
65	5	58	59
66	6	58	82
67	6	58	79
68	3	59	60
69	3	59	69
70	4	60	61
71	3	60	62
72	11	62	63
73	3	62	65
74	12	63	64
75	4	65	66
76	3	65	67
77	4	67	68
78	3	67	69
79	5	69	70
80	6	70	71
81	6	70	75
82	6	70	79
83	8	71	72
84	8	71	73
85	8	71	74
86	8	75	76
87	8	75	77
88	8	75	78
89	8	79	80
90	8	79	81
91	8	82	83
92	8	82	84
93	6	82	85
94	6	85	86
95	6	85	90
96	8	86	87
97	8	86	88
98	8	86	89
99	8	90	91
100	8	90	92
101	8	90	93
102	9	94	95
103	13	94	96

Angles

1	5	59	58	79
2	3	3	5	6
3	5	70	71	74
4	7	28	27	30
5	7	77	75	78
6	5	70	75	77
7	1	50	49	56
8	3	66	65	67
9	5	22	23	25
10	5	21	22	27
11	7	32	31	33
12	3	18	17	19
13	1	49	50	52
14	5	85	90	92
15	1	3	5	7
16	4	19	21	22
17	5	71	70	79
18	5	58	82	83
19	5	70	75	76
20	3	8	9	10
21	1	58	59	60
22	5	58	79	70
23	5	21	22	23
24	5	82	85	86
25	5	31	11	34
26	5	85	90	91
27	7	88	86	89
28	1	9	8	11
29	6	16	46	47
30	5	22	23	24
31	1	1	2	3
32	5	55	58	79
33	5	37	38	40
34	5	69	70	75
35	3	12	13	14
36	5	58	82	85
37	5	54	85	82
38	3	65	67	68
39	5	75	70	79
40	5	58	79	80
41	5	37	38	41
42	1	58	59	69
43	5	37	42	45
44	5	36	34	37
45	5	85	90	93
46	7	43	42	44
47	5	11	31	22
48	7	80	79	81
49	5	11	34	36
50	5	70	79	80
51	1	60	59	69
52	1	2	9	8
53	1	11	12	21
54	1	13	15	16
55	1	49	56	55
56	3	17	19	20
57	1	17	19	21
58	5	54	85	86
59	1	55	54	85
60	3	68	67	69
61	3	51	50	52
62	1	7	8	11
63	5	55	58	59
64	4	52	54	85
65	5	23	22	31
66	7	43	42	45
67	5	12	11	34
68	5	35	34	37
69	5	22	27	28
70	1	2	3	5
71	1	50	52	54
72	5	79	58	82
73	7	29	27	30
74	5	12	11	31
75	1	16	46	94
76	1	8	7	37
77	1	13	15	17
78	5	59	58	82
79	1	48	49	50
80	7	92	90	93
81	1	54	55	58
82	5	69	70	79
83	1	3	2	9
84	5	8	11	12
85	7	72	71	74
86	5	38	37	42
87	3	62	65	66
88	5	85	86	89
89	5	70	71	73
90	5	27	22	31
91	5	8	11	34
92	5	58	82	84
93	5	85	86	88
94	1	65	67	69
95	1	13	12	21
96	1	5	7	8
97	7	39	38	40
98	2	1	48	49
99	5	11	31	33
100	7	24	23	26
101	3	14	13	15
102	7	28	27	29
103	5	58	79	81
104	5	82	85	90
105	1	47	46	94
106	7	76	75	78
107	5	83	82	85
108	7	39	38	41
109	1	60	62	65
110	3	2	3	4
111	4	5	7	37
112	4	67	69	70
113	3	15	17	18
114	7	83	82	84
115	1	15	17	19
116	1	63	62	65
117	3	49	50	51
118	7	87	86	88
119	5	23	22	27
120	1	54	55	56
121	1	12	13	15
122	1	60	62	63
123	5	34	37	42
124	1	11	12	13
125	3	6	5	7
126	1	52	54	55
127	7	44	42	45
128	7	76	75	77
129	1	46	94	96
130	3	59	60	61
131	7	91	90	93
132	1	16	15	17
133	7	24	23	25
134	1	12	21	22
135	5	11	31	32
136	5	21	22	31
137	5	22	27	29
138	1	95	94	96
139	5	34	37	38
140	1	48	49	56
141	5	70	71	72
142	5	37	42	43
143	2	2	1	48
144	5	54	85	90
145	5	7	37	34
146	1	59	69	70
147	7	35	34	36
148	5	37	38	39
149	5	8	11	31
150	3	61	60	62
151	7	91	90	92
152	7	40	38	41
153	1	12	21	19
154	5	69	70	71
155	1	56	55	58
156	5	84	82	85
157	3	2	9	10
158	3	53	52	54
159	1	1	2	9
160	5	7	37	42
161	5	11	34	35
162	7	87	86	89
163	3	20	19	21
164	1	46	94	95
165	2	62	63	64
166	5	11	34	37
167	1	59	60	62
168	5	22	23	26
169	5	71	70	75
170	5	22	31	32
171	7	73	71	74
172	5	37	42	44
173	3	4	3	5
174	5	70	79	81
175	5	55	58	82
176	7	72	71	73
177	1	62	65	67
178	3	50	52	53
179	1	7	8	9
180	1	59	69	67
181	5	22	27	30
182	5	70	75	78
183	5	85	86	87
184	5	7	37	38
185	7	25	23	26
186	5	86	85	90
187	3	49	56	57
188	5	22	31	33
189	3	55	56	57
190	2	15	16	46

Dihedrals

1	11	71	70	75	76
2	5	11	31	22	21
3	2	15	16	46	47
4	1	51	50	49	56
5	5	54	85	82	84
6	4	60	59	58	82
7	5	8	11	31	32
8	4	9	8	11	31
9	1	11	12	21	19
10	10	16	46	94	95
11	1	60	62	65	66
12	6	11	34	37	38
12	7	11	34	37	38
12	8	11	34	37	38
13	1	68	67	69	70
14	1	18	17	19	20
15	1	18	17	19	21
16	5	12	11	31	33
17	1	49	56	55	54
18	5	69	70	71	74
19	4	8	11	12	21
20	4	8	7	37	38
21	1	49	50	52	53
22	4	21	12	11	34
23	6	58	79	70	75
23	7	58	79	70	75
23	8	58	79	70	75
24	5	8	11	31	33
25	5	55	58	82	85
26	5	58	79	70	69
27	4	55	54	85	82
28	11	29	27	22	31
29	5	54	85	90	92
30	1	59	60	62	63
31	1	48	49	50	51
32	11	32	31	11	34
33	1	60	59	69	70
34	11	34	37	38	40
35	11	24	23	22	27
36	11	25	23	22	27
37	1	48	49	56	57
38	4	55	58	59	69
39	2	3	2	1	48
40	1	12	13	15	17
41	10	16	46	94	96
42	11	72	71	70	75
43	11	23	22	31	32
44	11	87	86	85	90
45	1	58	59	60	61
46	5	59	58	82	83
47	2	1	48	49	56
48	4	7	8	11	31
49	5	69	70	75	76
50	5	7	37	34	36
51	11	34	37	38	41
52	1	11	12	13	15
53	11	34	37	42	45
54	5	54	85	86	87
55	5	54	85	90	91
56	4	59	69	70	79
57	11	82	85	86	88
58	11	71	70	79	80
59	5	55	58	79	80
60	11	40	38	37	42
61	4	8	7	37	34
62	1	2	9	8	7
63	4	13	12	11	31
64	1	2	3	5	6
65	4	54	55	58	82
66	1	58	59	69	70
67	4	55	54	85	86
68	2	9	2	1	48
69	5	7	37	42	44
70	1	60	59	69	67
71	4	67	69	70	75
72	11	79	58	82	83
73	9	15	16	46	94
74	11	89	86	85	90
75	5	12	11	31	32
76	11	83	82	85	90
77	4	8	7	37	42
78	1	4	3	5	6
79	11	31	11	34	35
80	6	79	58	82	85
80	7	79	58	82	85
80	8	79	58	82	85
81	1	54	55	56	57
82	4	12	21	22	31
83	1	56	55	54	85
84	1	2	9	8	11
85	5	59	58	82	85
86	1	62	65	67	69
87	6	31	11	34	37
87	7	31	11	34	37
87	8	31	11	34	37
88	1	58	59	60	62
89	1	61	60	59	69
90	4	19	21	22	31
91	4	60	59	58	79
92	4	56	55	58	59
93	4	52	54	85	90
94	5	54	85	90	93
95	1	59	60	62	65
96	1	13	15	17	18
97	11	38	37	42	45
98	1	13	15	17	19
99	1	50	49	56	57
100	5	54	85	82	83
101	5	55	58	79	70
102	1	61	60	62	63
103	5	21	22	27	29
104	1	58	59	69	67
105	11	75	70	79	81
106	5	7	37	42	45
107	1	62	60	59	69
108	5	69	70	79	80
109	1	14	13	12	21
110	5	69	70	75	77
111	11	84	82	85	90
112	1	57	56	55	58
113	1	51	50	52	54
114	1	59	69	67	68
115	12	60	62	63	64
116	1	4	3	5	7
117	1	20	19	21	22
118	11	28	27	22	31
119	4	56	55	58	79
120	6	58	82	85	90
120	7	58	82	85	90
120	8	58	82	85	90
121	11	72	71	70	79
122	4	59	69	70	71
123	4	21	12	11	31
124	1	6	5	7	8
125	11	35	34	37	42
126	11	82	85	86	89
127	1	3	2	9	8
128	4	9	8	11	12
129	5	55	58	82	84
130	1	66	65	67	68
131	1	1	2	9	8
132	3	2	1	48	49
133	11	78	75	70	79
134	1	3	5	7	8
135	4	69	59	58	82
136	4	5	7	37	38
137	1	4	3	2	9
138	11	34	37	42	43
139	11	26	23	22	31
140	5	59	58	79	70
141	5	21	22	31	32
142	1	7	8	9	10
143	4	8	11	12	13
144	1	63	62	65	66
145	6	11	31	22	23
145	7	11	31	22	23
145	8	11	31	22	23
146	11	35	34	37	38
147	1	50	52	54	85
148	1	65	67	69	70
149	6	22	31	11	34
149	7	22	31	11	34
149	8	22	31	11	34
150	4	67	69	70	79
151	11	27	22	31	33
152	1	60	62	65	67
153	1	11	8	7	37
154	5	21	22	27	30
155	5	21	22	31	33
156	1	48	49	50	52
157	1	61	60	62	65
158	4	7	8	11	12
159	5	69	70	71	73
160	5	8	11	31	22
161	1	1	2	3	5
162	11	33	31	11	34
163	1	52	50	49	56
164	5	54	85	82	58
165	11	76	75	70	79
166	1	13	12	21	22
167	4	5	7	37	34
168	5	7	37	38	40
169	1	49	50	52	54
170	4	12	21	22	27
171	5	12	11	34	35
172	11	39	38	37	42
173	5	59	58	82	84
174	1	2	3	5	7
175	1	15	13	12	21
176	5	12	11	34	37
177	4	19	21	22	27
178	5	59	58	79	80
179	4	67	69	70	71
180	1	9	8	7	37
181	11	74	71	70	75
182	5	7	37	38	41
183	1	17	19	21	22
184	4	5	7	37	42
185	1	13	12	21	19
186	1	58	55	54	85
187	2	13	15	16	46
188	4	12	21	22	23
189	10	47	46	94	95
190	11	84	82	85	86
191	4	19	21	22	23
192	1	53	52	54	85
193	11	23	22	27	28
194	5	21	22	23	26
195	5	8	11	34	35
196	6	11	31	22	27
196	7	11	31	22	27
196	8	11	31	22	27
197	4	55	54	85	90
198	11	79	58	82	84
199	5	7	37	34	11
200	1	10	9	8	11
201	11	27	22	31	32
202	4	54	55	58	59
203	11	86	85	90	92
204	5	8	11	34	37
205	1	5	7	8	9
206	11	73	71	70	75
207	11	31	11	34	36
208	5	54	85	86	89
209	2	17	15	16	46
210	11	36	34	37	42
211	6	58	79	70	71
211	7	58	79	70	71
211	8	58	79	70	71
212	1	11	12	13	14
213	1	66	65	67	69
214	11	82	85	90	93
215	1	50	49	56	55
216	1	12	21	19	20
217	11	34	37	38	39
218	11	80	79	58	82
219	4	9	8	11	34
220	11	26	23	22	27
221	1	52	54	55	58
222	5	12	11	34	36
223	1	6	5	7	37
224	5	7	37	34	35
225	4	52	54	85	82
226	11	75	70	79	80
227	1	15	17	19	20
228	10	47	46	94	96
229	11	77	75	70	79
230	1	15	17	19	21
231	4	54	55	58	79
232	11	86	85	90	91
233	11	81	79	58	82
234	11	23	22	27	29
235	11	30	27	22	31
236	11	88	86	85	90
237	1	3	5	7	37
238	1	12	13	15	16
239	5	54	85	86	88
240	5	12	11	31	22
241	1	1	2	3	4
242	11	41	38	37	42
243	1	48	49	56	55
244	1	49	56	55	58
245	4	59	69	70	75
246	11	36	34	37	38
247	6	70	79	58	82
247	7	70	79	58	82
247	8	70	79	58	82
248	11	71	70	79	81
249	11	82	85	90	92
250	1	50	52	54	55
251	5	55	58	79	81
252	11	34	37	42	44
253	2	1	48	49	50
254	11	83	82	85	86
255	11	74	71	70	79
256	11	71	70	75	78
257	4	56	55	58	82
258	5	21	22	23	25
259	5	8	11	34	36
260	11	24	23	22	31
261	11	25	23	22	31
262	11	38	37	42	43
263	1	14	13	15	16
264	5	69	70	71	72
265	11	82	85	86	87
266	4	52	54	85	86
267	1	5	7	8	11
268	11	82	85	90	91
269	4	7	8	11	34
270	5	7	37	42	43
271	11	86	85	90	93
272	1	12	21	19	17
273	1	51	50	52	53
274	1	16	15	17	18
275	5	7	37	38	39
276	1	16	15	17	19
277	12	64	63	62	65
278	4	13	12	11	34
279	11	73	71	70	79
280	5	59	58	79	81
281	1	3	2	9	10
282	11	23	22	27	30
283	1	63	62	65	67
284	6	58	82	85	86
284	7	58	82	85	86
284	8	58	82	85	86
285	11	71	70	75	77
286	1	1	2	9	10
287	1	5	3	2	9
288	11	38	37	42	44
289	1	14	13	15	17
290	1	59	69	67	65
291	11	23	22	31	33
292	5	69	70	79	81
293	6	11	34	37	42
293	7	11	34	37	42
293	8	11	34	37	42
294	1	11	12	21	22
295	5	21	22	23	24
296	1	52	54	55	56
297	4	69	59	58	79
298	5	21	22	27	28
299	1	53	52	54	55
300	1	62	65	67	68
301	5	55	58	82	83
302	5	69	70	75	78
303	4	55	58	59	60

Impropers

11	1	65	62	66	67
13	1	7	37	5	8
14	1	3	5	2	4
41	1	49	48	50	56
45	1	55	54	56	58
47	1	21	12	19	22
56	1	19	21	17	20
59	1	59	60	69	58
65	1	62	63	65	60
71	1	56	57	49	55
80	1	12	21	11	13
81	1	52	50	53	54
90	1	17	19	15	18
102	1	94	46	95	96
127	1	15	13	16	17
130	1	69	70	59	67
132	1	15	16	17	13
139	1	5	6	7	3
153	1	3	2	4	5
158	1	49	50	56	48
166	1	69	59	67	70
167	1	49	56	48	50
169	1	17	15	18	19
172	1	67	69	65	68
179	1	2	3	9	1
186	1	56	49	55	57
190	1	50	49	51	52
219	1	60	61	62	59
221	1	54	85	52	55
223	1	55	58	54	56
233	1	12	11	13	21
245	1	9	10	2	8
250	1	5	7	3	6
257	1	94	95	96	46
259	1	2	1	3	9
265	1	55	56	58	54
272	1	13	15	12	14
274	1	65	67	62	66
285	1	13	12	14	15
287	1	8	7	9	11
293	1	60	59	61	62
295	2	46	47	94	16
310	1	5	3	6	7
316	1	54	52	55	85
321	1	7	5	8	37
322	1	9	8	10	2
329	1	59	58	60	69
333	1	60	62	59	61
345	1	19	20	21	17
350	1	3	4	5	2
351	1	56	55	57	49
354	1	69	67	70	59
361	1	94	96	46	95
376	1	13	14	15	12
378	1	21	22	12	19
382	1	52	54	50	53
387	1	62	65	60	63
388	1	59	69	58	60
400	1	2	9	1	3
403	1	17	18	19	15
404	1	8	9	11	7
409	1	9	2	8	10
410	1	15	17	13	16
422	2	46	16	47	94
436	1	8	11	7	9
438	1	12	13	21	11
443	1	54	55	85	52
448	1	52	53	54	50
459	1	19	17	20	21
460	1	50	51	52	49
472	1	50	52	49	51
547	1	65	66	67	62
548	1	7	8	37	5
563	1	62	60	63	65
578	1	21	19	22	12
579	1	67	65	68	69
585	1	67	68	69	65
586	2	46	94	16	47
