Title

61 atoms
62 bonds
103 angles
161 dihedrals
48 impropers

8 atom types
12 bond types
6 angle types
22 dihedral types
2 improper types
-5.84100008 94.15899992 xlo xhi
-3.665999889 96.33400011 ylo yhi
-4.78399992 95.21600008 zlo zhi
0.0 0.0 0.0 xy xz yz

Masses

1	15.99943
2	12.01078
3	1.007947
4	12.01078
5	15.99943
6	1.007947
7	15.99943
8	1.007947


Pair Coeffs

1	0.16846514	3.0251065
2	0.10884061	3.3795318
3	0.016409246	2.5832257
4	0.086879315	3.4806469
5	0.2102061	3.0398122
6	0.015611343	2.5725815
7	0.20947353	2.99716
8	1.2326e-05	0.53453923

Bond Coeffs

1 harmonic	366.7408841747	1.425895053732
2 harmonic	300.03137914615	1.451203938761
3 harmonic	264.62148576755	1.52190126495
4 harmonic	370.04670688625	1.093899492634
5 harmonic	301.15400723785	1.345741232799
6 harmonic	582.698766451	1.225198386222
7 harmonic	279.1350963404	1.454628925034
8 harmonic	360.7852444772	1.387193227181
9 harmonic	397.2545789619	1.085358495916
10 harmonic	329.96998057905	1.427343958716
11 harmonic	543.5267831885	0.9716763312559
12 harmonic	385.7604595587	1.369745182308


Angle Coeffs

1 harmonic	53.20531626545	116.5475862634
2 harmonic	65.09061609600001	110.3538806181
3 harmonic	201.41175231035	127.4691416191
4 harmonic	57.8982893754	126.8062420451
5 harmonic	48.776492647595	115.6030999533
6 harmonic	34.066775159195	129.1835929926


Dihedral Coeffs

1 fourier 1	-0.0309670556842	3	0
2 fourier 1	0.4598191477945	2	0
3 fourier 1	0.1115525666802	3	0
4 fourier 1	0.3432490222662	1	0
5 fourier 1	0.0473758381877	3	0
6 fourier 1	0.457973137376	1	0
7 fourier 1	0.4552156463534	3	0
8 fourier 1	-0.03687743385131	2	180
9 fourier 1	0.1918272375143	3	0
10 fourier 1	0.9202179876409	1	180
11 fourier 1	1.163809172478	2	180
12 fourier 1	0.1679186987369	1	180
13 fourier 1	2.779853741805	2	180
14 fourier 1	0.9974165607242	2	180
15 fourier 1	0.1911926717192	3	0
16 fourier 1	3.661930099076	2	180
17 fourier 1	0.3445382149273	3	0
18 fourier 1	0.1364556373303	1	0
19 fourier 1	0.3026390167484	3	0
20 fourier 1	2.687457892086	2	180
21 fourier 1	2.772607909663	2	180
22 fourier 1	0.09692684957115	1	0


Improper Coeffs

1 3.5	-1	2
2 0.3666666666666667	-1	2


Atoms

1	1	1	-0.139686	-3.3380001	-0.667	0.119
2	1	2	0.030563001	-2.119	-0.0080000004	-0.086999997
3	1	2	0.080770001	-1.089	-0.46000001	0.949
4	1	1	-0.48679999	0.102	0.29300001	0.81599998
5	1	2	0.078233004	1.05	-0.41	0.041000001
6	1	2	0.13516399	2.2609999	0.486	-0.20200001
7	1	1	-0.50356197	3.2379999	-0.20200001	-0.93400002
8	1	3	0.087472998	1.95	1.41	-0.74000001
9	1	3	0.087472998	2.6949999	0.78600001	0.77499998
10	1	3	0.087963	0.62300003	-0.70200002	-0.94599998
11	1	3	0.087963	1.3890001	-1.322	0.583
12	1	3	0.089519002	-1.5039999	-0.26499999	1.961
13	1	3	0.089519002	-0.93199998	-1.563	0.88
14	1	3	0.093405999	-2.2850001	1.086	0.017000001
15	1	3	0.093405999	-1.745	-0.20100001	-1.118
16	1	4	0.79019898	2.915	-0.21600001	-1.92
17	1	5	-0.56467098	3.7460001	0.024	-2.8369999
18	1	4	-0.23955999	1.503	-0.51499999	-2.224
19	1	4	-0.095210999	1.0470001	-0.542	-3.49
20	1	6	0.213333	1.705	-0.345	-4.3270001
21	1	4	-0.26635799	-0.37200001	-0.84399998	-3.7620001
22	1	6	0.18686	-0.73000002	-0.86400002	-4.7839999
23	1	4	-0.056423999	-1.214	-1.0930001	-2.7520001
24	1	6	0.201443	-2.2520001	-1.313	-2.9679999
25	1	4	-0.304759	-0.727	-1.067	-1.35
26	1	4	0.57590097	-1.646	-1.34	-0.23100001
27	1	5	-0.59835899	-2.8610001	-1.6	-0.442
28	1	4	0.044142999	0.56699997	-0.79100001	-1.107
29	1	6	0.229946	0.93800002	-0.76899999	-0.089000002
30	1	1	-0.139686	-3.2249999	-1.589	-0.233
31	1	2	0.030563001	-2.3540001	-2.2479999	0.64499998
32	1	2	0.080894001	-0.91299999	-1.796	0.403
33	1	1	-0.48457	-0.023	-2.549	1.205
34	1	2	0.053043999	0.296	-1.845	2.3870001
35	1	2	0.075419001	1.138	-2.7420001	3.29
36	1	7	-0.67891198	1.506	-2.053	4.454
37	1	8	0.39301801	0.70599997	-2.04	5.0409999
38	1	3	0.090213999	0.57300001	-3.6659999	3.546
39	1	3	0.090213999	2.0610001	-3.0420001	2.7490001
40	1	3	0.090398997	-0.62599999	-1.553	2.941
41	1	3	0.090398997	0.88700002	-0.93300003	2.1440001
42	1	3	0.089519002	-0.66100001	-1.9910001	-0.66100001
43	1	3	0.089519002	-0.82599998	-0.69199997	0.55000001
44	1	3	0.093405999	-2.4289999	-3.3410001	0.463
45	1	3	0.093405999	-2.651	-2.0550001	1.7
46	1	4	0.57590097	-1.285	-1.319	0.78899997
47	1	5	-0.59835899	-0.373	-2.1199999	1.1289999
48	1	4	-0.304759	-1.864	-0.36300001	1.751
49	1	4	-0.056423999	-1.441	-0.30700001	3.027
50	1	6	0.201443	-0.66100001	-0.96600002	3.3870001
51	1	4	-0.26635799	-2.04	0.66100001	3.9660001
52	1	6	0.18686	-1.693	0.69800001	4.9910002
53	1	4	-0.091038004	-3.006	1.49	3.5550001
54	1	6	0.213333	-3.4330001	2.1930001	4.2589998
55	1	4	-0.233463	-3.487	1.4450001	2.151
56	1	4	0.827865	-4.5560002	2.368	1.711
57	1	5	-0.54089099	-4.9780002	2.3440001	0.523
58	1	7	-0.676844	-5.1079998	3.2739999	2.612
59	1	8	0.400922	-5.8410001	3.9119999	2.325
60	1	4	0.047134001	-2.9360001	0.55800003	1.298
61	1	6	0.229946	-3.2690001	0.505	0.26899999

Bonds

1	1	1	2
2	2	1	30
3	3	2	3
4	4	2	14
5	4	2	15
6	1	3	4
7	4	3	12
8	4	3	13
9	1	4	5
10	3	5	6
11	4	5	10
12	4	5	11
13	1	6	7
14	4	6	8
15	4	6	9
16	5	7	16
17	6	16	17
18	7	16	18
19	8	18	19
20	8	18	28
21	9	19	20
22	8	19	21
23	9	21	22
24	8	21	23
25	9	23	24
26	8	23	25
27	7	25	26
28	8	25	28
29	6	26	27
30	7	26	46
31	9	28	29
32	1	30	31
33	3	31	32
34	4	31	44
35	4	31	45
36	1	32	33
37	4	32	42
38	4	32	43
39	1	33	34
40	3	34	35
41	4	34	40
42	4	34	41
43	10	35	36
44	4	35	38
45	4	35	39
46	11	36	37
47	6	46	47
48	7	46	48
49	8	48	49
50	8	48	60
51	9	49	50
52	8	49	51
53	9	51	52
54	8	51	53
55	9	53	54
56	8	53	55
57	7	55	56
58	8	55	60
59	6	56	57
60	12	56	58
61	11	58	59
62	9	60	61

Angles

1	4	23	25	28
2	6	18	19	20
3	4	26	46	48
4	6	20	19	21
5	6	51	53	54
6	1	4	3	12
7	1	6	5	10
8	2	2	1	30
9	4	17	16	18
10	1	5	6	7
11	6	18	28	29
12	1	35	34	41
13	4	49	51	53
14	2	1	30	31
15	4	18	28	25
16	4	51	53	55
17	5	44	31	45
18	1	4	3	13
19	1	5	6	8
20	1	2	3	12
21	6	55	60	61
22	6	48	49	50
23	1	33	32	42
24	6	50	49	51
25	5	38	35	39
26	1	30	31	32
27	1	33	34	35
28	1	7	6	8
29	1	2	3	4
30	1	33	32	43
31	3	7	16	17
32	4	25	26	27
33	1	3	2	14
34	1	4	5	10
35	1	6	5	11
36	1	34	35	38
37	4	18	19	21
38	4	25	26	46
39	6	22	21	23
40	6	21	23	24
41	6	48	60	61
42	1	3	2	15
43	6	25	28	29
44	4	46	48	60
45	4	16	18	19
46	1	30	31	44
47	4	23	25	26
48	1	36	35	38
49	1	5	6	9
50	4	26	25	28
51	1	2	3	13
52	1	1	2	14
53	4	21	23	25
54	5	8	6	9
55	6	52	51	53
56	4	55	56	57
57	4	48	49	51
58	1	31	32	42
59	1	30	31	45
60	4	27	26	46
61	1	36	35	39
62	2	35	36	37
63	5	42	32	43
64	1	7	6	9
65	2	32	33	34
66	4	47	46	48
67	4	53	55	60
68	4	55	56	58
69	1	4	5	11
70	4	49	48	60
71	5	40	34	41
72	6	49	51	52
73	1	31	32	43
74	4	7	16	18
75	4	53	55	56
76	2	56	58	59
77	1	34	35	39
78	4	19	18	28
79	1	33	34	40
80	1	32	31	44
81	4	16	18	28
82	6	24	23	25
83	4	46	48	49
84	6	19	21	22
85	2	3	4	5
86	4	48	60	55
87	1	4	5	6
88	5	12	3	13
89	1	1	2	3
90	3	57	56	58
91	1	33	34	41
92	1	32	31	45
93	4	19	21	23
94	4	56	55	60
95	1	34	35	36
96	5	10	5	11
97	4	26	46	47
98	2	6	7	16
99	1	1	2	15
100	1	31	32	33
101	5	14	2	15
102	6	54	53	55
103	1	35	34	40

Dihedrals

1	6	2	1	30	31
2	16	24	23	25	28
3	7	3	4	5	6
3	8	3	4	5	6
4	3	7	6	5	11
4	4	7	6	5	11
5	5	15	2	1	30
6	5	1	30	31	45
7	14	26	46	48	49
8	16	51	49	48	60
9	15	8	6	5	10
10	15	42	32	31	44
11	16	48	60	55	53
12	16	16	18	28	25
13	15	39	35	34	40
14	16	49	51	53	54
15	14	47	46	48	49
16	14	28	25	26	46
17	14	27	26	46	47
18	14	23	25	26	46
19	17	34	35	36	37
19	18	34	35	36	37
20	15	9	6	5	10
21	15	42	32	31	45
22	14	25	26	46	48
23	11	6	7	16	17
23	12	6	7	16	17
24	3	30	31	32	43
24	4	30	31	32	43
25	15	38	35	34	41
26	15	39	35	34	41
27	16	16	18	19	20
28	16	53	55	60	61
29	16	23	25	28	29
30	15	43	32	31	44
31	1	4	5	6	7
31	2	4	5	6	7
32	20	55	56	58	59
33	16	16	18	28	29
34	16	54	53	55	60
35	21	57	56	58	59
35	22	57	56	58	59
36	16	20	19	18	28
37	16	50	49	48	60
38	7	2	3	4	5
38	8	2	3	4	5
39	14	23	25	26	27
40	16	18	28	25	26
41	15	8	6	5	11
42	16	54	53	55	56
43	16	52	51	53	54
44	15	13	3	2	14
45	5	5	4	3	12
46	7	32	33	34	35
46	8	32	33	34	35
47	15	12	3	2	14
48	1	30	31	32	33
48	2	30	31	32	33
49	3	36	35	34	40
49	4	36	35	34	40
50	16	46	48	60	55
51	3	33	32	31	44
51	4	33	32	31	44
52	14	17	16	18	19
53	5	14	2	1	30
54	15	9	6	5	11
55	16	49	51	53	55
56	19	37	36	35	38
57	16	49	48	60	55
58	14	27	26	46	48
59	15	12	3	2	15
60	3	36	35	34	41
60	4	36	35	34	41
61	14	58	56	55	60
62	16	18	28	25	23
63	16	19	18	28	29
64	3	33	34	35	38
64	4	33	34	35	38
65	14	57	56	55	60
66	13	6	7	16	18
67	16	24	23	25	26
68	16	19	21	23	24
69	16	19	18	28	25
70	19	37	36	35	39
71	3	4	3	2	14
71	4	4	3	2	14
72	16	16	18	19	21
73	3	1	2	3	12
73	4	1	2	3	12
74	16	18	19	21	22
75	3	33	34	35	39
75	4	33	34	35	39
76	14	53	55	56	57
77	15	43	32	31	45
78	3	4	5	6	8
78	4	4	5	6	8
79	16	21	23	25	28
80	16	50	49	51	52
81	5	8	6	7	16
82	5	1	30	31	32
83	14	17	16	18	28
84	16	48	49	51	52
85	5	34	33	32	42
86	14	7	16	18	19
87	1	1	2	3	4
87	2	1	2	3	4
88	9	5	6	7	16
88	10	5	6	7	16
89	3	7	6	5	10
89	4	7	6	5	10
90	14	27	26	25	28
91	16	52	51	53	55
92	3	4	5	6	9
92	4	4	5	6	9
93	5	5	4	3	13
94	15	13	3	2	15
95	14	26	46	48	60
96	5	9	6	7	16
97	16	50	49	51	53
98	1	33	34	35	36
98	2	33	34	35	36
99	3	33	32	31	45
99	4	33	32	31	45
100	16	51	53	55	60
101	16	48	49	51	53
102	14	25	26	46	47
103	16	26	25	28	29
104	5	3	2	1	30
105	3	30	31	32	42
105	4	30	31	32	42
106	5	34	33	32	43
107	15	38	35	34	40
108	16	46	48	60	61
109	14	47	46	48	60
110	16	22	21	23	24
111	16	20	19	21	22
112	16	46	48	49	50
113	16	51	53	55	56
114	16	56	55	60	61
115	5	3	4	5	10
116	5	32	33	34	40
117	16	49	48	60	61
118	7	31	32	33	34
118	8	31	32	33	34
119	5	3	4	5	11
120	16	48	60	55	56
121	16	21	19	18	28
122	16	19	21	23	25
123	16	21	23	25	26
124	5	1	30	31	44
125	16	22	21	23	25
126	3	4	3	2	15
126	4	4	3	2	15
127	16	20	19	21	23
128	16	46	48	49	51
129	14	7	16	18	28
130	5	32	33	34	41
131	3	1	2	3	13
131	4	1	2	3	13
132	16	18	19	21	23
133	14	53	55	56	58

Impropers

19	2	19	18	20	21
25	2	51	52	53	49
30	2	53	54	55	51
41	2	48	60	46	49
42	2	46	47	48	26
51	1	16	7	17	18
54	2	60	61	48	55
55	1	16	18	7	17
56	2	46	48	26	47
59	2	28	25	29	18
62	2	26	46	25	27
65	2	48	46	49	60
70	2	60	48	55	61
74	2	48	49	60	46
75	2	23	24	25	21
81	2	28	29	18	25
93	2	18	19	28	16
109	2	18	16	19	28
119	1	56	57	58	55
124	2	25	26	28	23
128	2	49	51	48	50
131	2	25	23	26	28
137	2	55	53	56	60
145	2	26	27	46	25
147	1	16	17	18	7
148	2	21	22	23	19
149	2	51	49	52	53
162	2	23	21	24	25
166	2	49	48	50	51
173	2	51	53	49	52
181	2	19	20	21	18
187	2	18	28	16	19
190	1	56	58	55	57
203	2	46	26	47	48
207	2	49	50	51	48
216	2	25	28	23	26
222	2	19	21	18	20
225	2	23	25	21	24
231	2	21	23	19	22
232	2	26	25	27	46
242	2	55	60	53	56
244	2	60	55	61	48
263	2	28	18	25	29
264	2	21	19	22	23
272	1	56	55	57	58
275	2	53	51	54	55
282	2	55	56	60	53
285	2	53	55	51	54
