Title

99 atoms
98 bonds
185 angles
321 dihedrals
12 impropers

8 atom types
11 bond types
5 angle types
27 dihedral types
2 improper types
-4.046999931 95.95300007 xlo xhi
-1.682999969 98.31700003 ylo yhi
-5.56799984 94.43200016 zlo zhi
0.0 0.0 0.0 xy xz yz

Masses

1	15.99943
2	12.01078
3	1.007947
4	1.007947
5	12.01078
6	15.99943
7	15.99943
8	1.007947


Pair Coeffs

1	0.16846514	3.0251065
2	0.10884061	3.3795318
3	0.016409246	2.5832257
4	0.015779483	2.6445434
5	0.086879315	3.4806469
6	0.2102061	3.0398122
7	0.20947353	2.99716
8	1.2326e-05	0.53453923

Bond Coeffs

1 harmonic	366.7408841747	1.425895053732
2 harmonic	300.03137914615	1.451203938761
3 harmonic	264.62148576755	1.52190126495
4 harmonic	370.04670688625	1.093899492634
5 harmonic	301.15400723785	1.345741232799
6 harmonic	582.698766451	1.225198386222
7 harmonic	329.44145381095	1.523435958334
8 harmonic	279.1350963404	1.454628925034
9 harmonic	329.96998057905	1.427343958716
10 harmonic	543.5267831885	0.9716763312559
11 harmonic	385.7604595587	1.369745182308


Angle Coeffs

1 harmonic	53.20531626545	116.5475862634
2 harmonic	65.09061609600001	110.3538806181
3 harmonic	201.41175231035	127.4691416191
4 harmonic	57.8982893754	126.8062420451
5 harmonic	48.776492647595	115.6030999533


Dihedral Coeffs

1 fourier 1	0.1155372516788	3	0
2 fourier 1	0.1115525666802	3	0
3 fourier 1	0.3432490222662	1	0
4 fourier 1	0.0473758381877	3	0
5 fourier 1	0.457973137376	1	0
6 fourier 1	0.09223874044423	3	0
7 fourier 1	0.3159935921949	2	180
8 fourier 1	0.3247796806857	1	180
9 fourier 1	0.1040663847541	3	0
10 fourier 1	0.1918272375143	3	0
11 fourier 1	0.9202179876409	1	180
12 fourier 1	1.163809172478	2	180
13 fourier 1	0.1679186987369	1	180
14 fourier 1	2.779853741805	2	180
15 fourier 1	0.02664938770063	3	0
16 fourier 1	0.1911926717192	3	0
17 fourier 1	-0.3703352413219	2	0
18 fourier 1	0.4541676554336	1	0
19 fourier 1	0.1489710476446	2	0
20 fourier 1	0.02960027280666	3	180
21 fourier 1	0.9974165607242	2	180
22 fourier 1	0.3445382149273	3	0
23 fourier 1	0.1364556373303	1	0
24 fourier 1	0.3026390167484	3	0
25 fourier 1	2.687457892086	2	180
26 fourier 1	2.772607909663	2	180
27 fourier 1	0.09692684957115	1	0


Improper Coeffs

1 3.5	-1	2
2 0.3666666666666667	-1	2


Atoms

1	1	1	-0.18184499	-3.8510001	0.213	1.086
2	1	2	0.032481	-3.0139999	-0.426	0.162
3	1	2	-0.14747301	-1.5880001	0.119	0.273
4	1	2	-0.14251401	-0.64399999	-0.602	-0.70099998
5	1	2	-0.14373	0.76700002	0.0049999999	-0.71600002
6	1	2	-0.141316	1.551	-0.289	0.574
7	1	2	0.13436501	3.0009999	0.18799999	0.47499999
8	1	1	-0.495657	3.043	1.5829999	0.35100001
9	1	3	0.077032	3.497	-0.28999999	-0.40000001
10	1	3	0.077032	3.5420001	-0.119	1.398
11	1	4	0.084426999	1.0700001	0.21600001	1.439
12	1	4	0.084426999	1.551	-1.3839999	0.76599997
13	1	4	0.080656998	1.318	-0.43200001	-1.577
14	1	4	0.080656998	0.70099998	1.102	-0.88099998
15	1	4	0.080829002	-0.58700001	-1.683	-0.44299999
16	1	4	0.080829002	-1.061	-0.523	-1.729
17	1	4	0.085418001	-1.597	1.2079999	0.046
18	1	4	0.085418001	-1.2359999	-0.023	1.316
19	1	3	0.076606996	-3.013	-1.515	0.384
20	1	3	0.076606996	-3.405	-0.28600001	-0.87300003
21	1	5	0.76050699	4.0489998	1.835	0.28299999
22	1	6	-0.56118399	4.7020001	1.426	-0.66299999
23	1	2	-0.20932899	4.6999998	2.691	1.3279999
24	1	2	-0.116146	3.6949999	3.102	2.414
25	1	2	-0.13681599	4.296	4.0739999	3.4419999
26	1	2	-0.14215501	5.2360001	3.372	4.4380002
27	1	2	-0.14215501	5.9219999	4.3509998	5.408
28	1	2	-0.13947099	4.9689999	5.1360002	6.3280001
29	1	2	-0.097800002	4.1399999	4.2270002	7.2490001
30	1	2	-0.258302	3.3540001	5.0539999	8.2729998
31	1	5	0.51596999	2.529	4.1739998	9.1639996
32	1	6	-0.69642401	1.8380001	4.6700001	10.039
33	1	4	0.112313	4.059	5.6399999	8.9020004
34	1	4	0.112313	2.6789999	5.7600002	7.7420001
35	1	4	0.075400002	3.421	3.638	6.6399999
36	1	4	0.075400002	4.8169999	3.526	7.7849998
37	1	4	0.077076003	5.5910001	5.8109999	6.9559999
38	1	4	0.077076003	4.2969999	5.7839999	5.7270002
39	1	4	0.078947	6.6370001	3.78	6.039
40	1	4	0.078947	6.5209999	5.079	4.8179998
41	1	4	0.078947	4.6799998	2.595	5.0040002
42	1	4	0.078947	6.04	2.8499999	3.8789999
43	1	4	0.077076003	4.835	4.8940001	2.9189999
44	1	4	0.077076003	3.451	4.526	4.0029998
45	1	4	0.084159002	2.8340001	3.6099999	1.925
46	1	4	0.084159002	3.303	2.198	2.931
47	1	4	0.115389	5.1139998	3.599	0.838
48	1	4	0.115389	5.5359998	2.1159999	1.777
49	1	1	-0.18184499	-4.0469999	1.114	0.71700001
50	1	2	0.032481	-2.8110001	1.7539999	0.546
51	1	2	-0.14747301	-2.099	1.209	-0.69499999
52	1	2	-0.142463	-0.76300001	1.9299999	-0.926
53	1	2	-0.138368	0.044	1.323	-2.0840001
54	1	2	-0.169396	-0.57999998	1.6160001	-3.4579999
55	1	2	0.085635997	0.31900001	1.14	-4.5999999
56	1	7	-0.685884	0.44499999	-0.255	-4.5650001
57	1	8	0.376073	1.04	-0.49599999	-5.322
58	1	3	0.066682003	1.321	1.617	-4.5170002
59	1	3	0.066682003	-0.139	1.446	-5.5679998
60	1	4	0.087770998	-1.566	1.1109999	-3.5480001
61	1	4	0.087770998	-0.73900002	2.711	-3.5669999
62	1	4	0.080829002	1.066	1.76	-2.0539999
63	1	4	0.080829002	0.14300001	0.22499999	-1.937
64	1	4	0.080829002	-0.94400001	3.01	-1.118
65	1	4	0.080829002	-0.149	1.851	-0.0020000001
66	1	4	0.085418001	-1.9170001	0.12	-0.56
67	1	4	0.085418001	-2.7639999	1.35	-1.574
68	1	3	0.076606996	-2.994	2.8429999	0.41999999
69	1	3	0.076606996	-2.177	1.614	1.451
70	1	5	0.51596999	2.5369999	3.095	9.0439997
71	1	6	-0.69642401	1.654	2.5539999	8.3990002
72	1	2	-0.258302	3.6400001	2.2820001	9.6569996
73	1	2	-0.097800002	3.118	1.321	10.734
74	1	2	-0.13947099	2.589	2.0669999	11.968
75	1	2	-0.14215501	2.118	1.082	13.045
76	1	2	-0.14215501	1.576	1.829	14.273
77	1	2	-0.13681599	1.2180001	0.88499999	15.432
78	1	2	-0.113612	-0.048999999	0.057999998	15.153
79	1	2	-0.21942499	-0.44100001	-0.82200003	16.347
80	1	5	0.82250398	-0.94400001	-0.0049999999	17.497999
81	1	6	-0.56294298	-0.212	0.191	18.504
82	1	7	-0.66685098	-2.2149999	0.56	17.441999
83	1	8	0.392248	-2.5669999	1.123	18.207001
84	1	4	0.116402	-1.248	-1.516	16.032
85	1	4	0.116402	0.42699999	-1.441	16.666
86	1	4	0.084159002	-0.89499998	0.73199999	14.891
87	1	4	0.084159002	0.132	-0.61199999	14.286
88	1	4	0.077076003	2.0739999	0.207	15.644
89	1	4	0.077076003	1.052	1.5089999	16.336
90	1	4	0.078947	0.68400002	2.4300001	13.988
91	1	4	0.078947	2.355	2.5350001	14.636
92	1	4	0.078947	1.321	0.43700001	12.617
93	1	4	0.078947	2.971	0.43799999	13.351
94	1	4	0.077076003	1.737	2.717	11.672
95	1	4	0.077076003	3.3959999	2.7090001	12.384
96	1	4	0.075400002	2.3180001	0.67699999	10.306
97	1	4	0.075400002	3.9560001	0.65899998	11.043
98	1	4	0.112313	4.4000001	2.9630001	10.098
99	1	4	0.112313	4.138	1.696	8.8549995

Bonds

1	1	1	2
2	2	1	49
3	3	2	3
4	4	2	19
5	4	2	20
6	3	3	4
7	4	3	17
8	4	3	18
9	3	4	5
10	4	4	15
11	4	4	16
12	3	5	6
13	4	5	13
14	4	5	14
15	3	6	7
16	4	6	11
17	4	6	12
18	1	7	8
19	4	7	9
20	4	7	10
21	5	8	21
22	6	21	22
23	7	21	23
24	3	23	24
25	4	23	47
26	4	23	48
27	3	24	25
28	4	24	45
29	4	24	46
30	3	25	26
31	4	25	43
32	4	25	44
33	3	26	27
34	4	26	41
35	4	26	42
36	3	27	28
37	4	27	39
38	4	27	40
39	3	28	29
40	4	28	37
41	4	28	38
42	3	29	30
43	4	29	35
44	4	29	36
45	7	30	31
46	4	30	33
47	4	30	34
48	6	31	32
49	8	31	70
50	1	49	50
51	3	50	51
52	4	50	68
53	4	50	69
54	3	51	52
55	4	51	66
56	4	51	67
57	3	52	53
58	4	52	64
59	4	52	65
60	3	53	54
61	4	53	62
62	4	53	63
63	3	54	55
64	4	54	60
65	4	54	61
66	9	55	56
67	4	55	58
68	4	55	59
69	10	56	57
70	6	70	71
71	7	70	72
72	3	72	73
73	4	72	98
74	4	72	99
75	3	73	74
76	4	73	96
77	4	73	97
78	3	74	75
79	4	74	94
80	4	74	95
81	3	75	76
82	4	75	92
83	4	75	93
84	3	76	77
85	4	76	90
86	4	76	91
87	3	77	78
88	4	77	88
89	4	77	89
90	3	78	79
91	4	78	86
92	4	78	87
93	7	79	80
94	4	79	84
95	4	79	85
96	6	80	81
97	11	80	82
98	10	82	83

Angles

1	5	9	7	10
2	5	90	76	91
3	1	3	2	19
4	1	4	5	6
5	1	26	25	43
6	4	71	70	72
7	1	21	23	47
8	5	96	73	97
9	1	51	50	69
10	1	25	24	46
11	5	68	50	69
12	1	21	23	24
13	1	28	29	35
14	1	6	5	13
15	1	27	28	29
16	5	33	30	34
17	1	73	74	95
18	4	22	21	23
19	1	75	74	95
20	5	13	5	14
21	1	25	26	42
22	1	2	3	17
23	1	26	27	40
24	5	45	24	46
25	5	39	27	40
26	1	52	51	67
27	1	21	23	48
28	1	3	4	16
29	1	49	50	68
30	1	3	4	5
31	1	28	29	36
32	1	6	5	14
33	1	54	55	58
34	5	17	3	18
35	1	74	75	76
36	3	81	80	82
37	1	53	52	65
38	1	1	2	20
39	1	49	50	69
40	1	78	77	88
41	1	5	6	11
42	1	31	30	33
43	1	70	72	73
44	5	92	75	93
45	1	54	55	59
46	1	30	29	35
47	5	58	55	59
48	1	28	27	39
49	1	78	79	84
50	1	23	24	25
51	5	11	6	12
52	1	4	3	17
53	5	15	4	16
54	1	27	26	41
55	1	7	6	11
56	1	79	78	86
57	1	29	30	33
58	1	4	5	13
59	1	24	23	47
60	5	35	29	36
61	1	52	53	54
62	1	74	75	92
63	1	27	28	37
64	1	78	77	89
65	5	84	79	85
66	1	3	2	20
67	1	30	29	36
68	1	26	25	44
69	4	32	31	70
70	1	56	55	58
71	1	78	79	85
72	1	24	25	43
73	4	31	70	71
74	1	54	53	62
75	1	5	4	15
76	1	6	7	8
77	1	51	52	64
78	4	30	31	32
79	1	51	52	53
80	1	73	72	98
81	1	23	24	45
82	1	2	3	18
83	1	29	30	31
84	1	79	78	87
85	1	29	30	34
86	1	75	76	90
87	1	74	75	93
88	5	43	25	44
89	1	5	6	7
90	5	88	77	89
91	1	56	55	59
92	3	8	21	22
93	1	52	53	62
94	1	53	54	55
95	2	80	82	83
96	1	51	52	65
97	1	50	51	66
98	1	77	78	79
99	5	62	53	63
100	1	75	76	91
101	5	47	23	48
102	1	28	29	30
103	2	55	56	57
104	1	76	75	92
105	1	29	28	37
106	5	37	28	38
107	1	74	73	96
108	1	52	53	63
109	1	5	6	12
110	1	31	30	34
111	1	76	77	88
112	1	73	74	75
113	1	28	27	40
114	1	51	50	68
115	1	80	79	84
116	1	25	24	45
117	5	19	2	20
118	5	64	52	65
119	1	4	3	18
120	1	73	74	94
121	1	77	76	90
122	1	27	26	42
123	1	54	55	56
124	2	2	1	49
125	1	7	6	12
126	1	76	75	93
127	1	75	74	94
128	1	70	72	98
129	1	72	73	96
130	1	25	26	41
131	1	55	54	60
132	2	1	49	50
133	1	24	23	48
134	1	4	5	14
135	1	77	78	86
136	1	27	28	38
137	1	76	77	89
138	1	49	50	51
139	1	52	51	66
140	1	3	4	15
141	1	80	79	85
142	1	24	25	44
143	4	31	70	72
144	1	6	7	10
145	1	54	53	63
146	1	5	4	16
147	1	6	7	9
148	5	94	74	95
149	1	77	76	91
150	1	73	72	99
151	1	8	7	10
152	1	23	24	46
153	1	8	7	9
154	1	70	72	99
155	1	72	73	97
156	1	53	54	60
157	1	55	54	61
158	1	1	2	3
159	1	24	25	26
160	1	26	27	28
161	1	72	73	74
162	1	75	76	77
163	1	77	78	87
164	1	53	52	64
165	1	76	77	78
166	1	1	2	19
167	4	79	80	81
168	5	86	78	87
169	5	98	72	99
170	4	8	21	23
171	2	7	8	21
172	1	50	51	67
173	1	2	3	4
174	4	30	31	70
175	5	60	54	61
176	1	53	54	61
177	1	78	79	80
178	5	66	51	67
179	4	79	80	82
180	1	50	51	52
181	5	41	26	42
182	1	29	28	38
183	1	74	73	97
184	1	25	26	27
185	1	26	27	39

Dihedrals

1	2	1	2	3	17
1	3	1	2	3	17
2	16	9	7	6	11
3	9	26	25	24	45
4	16	38	28	27	40
5	22	54	55	56	57
5	23	54	55	56	57
6	9	25	24	23	47
7	16	62	53	52	64
8	16	42	26	25	44
9	16	66	51	50	69
10	16	40	27	26	42
11	4	20	2	1	49
12	9	50	51	52	64
13	6	75	76	77	78
13	7	75	76	77	78
13	8	75	76	77	78
14	6	27	28	29	30
14	7	27	28	29	30
14	8	27	28	29	30
15	6	4	5	6	7
15	7	4	5	6	7
15	8	4	5	6	7
16	16	13	5	4	16
17	18	32	31	30	34
17	19	32	31	30	34
17	20	32	31	30	34
18	9	29	28	27	39
19	16	67	51	50	69
20	16	90	76	75	92
21	16	88	77	76	90
22	2	8	7	6	11
22	3	8	7	6	11
23	9	28	27	26	42
24	16	35	29	28	37
25	1	28	29	30	31
26	9	6	5	4	16
27	9	28	29	30	34
28	9	5	6	7	10
29	16	33	30	29	35
30	16	86	78	77	89
31	9	5	6	7	9
32	9	26	25	24	46
33	4	1	49	50	69
34	16	62	53	52	65
35	16	46	24	23	47
36	9	74	73	72	98
37	15	8	21	23	48
38	16	60	54	53	63
39	15	31	70	72	99
40	9	24	25	26	41
41	16	64	52	51	66
42	4	10	7	8	21
43	9	75	74	73	97
44	16	93	75	74	95
45	16	18	3	2	19
46	16	96	73	72	98
47	6	73	74	75	76
47	7	73	74	75	76
47	8	73	74	75	76
48	16	11	6	5	14
49	16	39	27	26	42
50	1	21	23	24	25
51	17	29	30	31	32
52	1	49	50	51	52
53	16	14	5	4	15
54	26	81	80	82	83
54	27	81	80	82	83
55	16	87	78	77	89
56	16	33	30	29	36
57	6	2	3	4	5
57	7	2	3	4	5
57	8	2	3	4	5
58	9	74	73	72	99
59	16	46	24	23	48
60	6	3	4	5	6
60	7	3	4	5	6
60	8	3	4	5	6
61	9	55	54	53	62
62	16	63	53	52	64
63	9	26	27	28	37
64	2	56	55	54	60
64	3	56	55	54	60
65	9	54	53	52	65
66	9	74	75	76	91
67	16	18	3	2	20
68	16	97	73	72	98
69	9	5	4	3	17
70	16	17	3	2	20
71	16	34	30	29	36
72	18	71	70	72	98
72	19	71	70	72	98
72	20	71	70	72	98
73	6	25	26	27	28
73	7	25	26	27	28
73	8	25	26	27	28
74	16	96	73	72	99
75	9	53	54	55	59
76	14	7	8	21	23
77	16	95	74	73	96
78	5	2	1	49	50
79	9	30	29	28	37
80	6	52	53	54	55
80	7	52	53	54	55
80	8	52	53	54	55
81	16	14	5	4	16
82	6	50	51	52	53
82	7	50	51	52	53
82	8	50	51	52	53
83	16	37	28	27	39
84	1	70	72	73	96
85	1	21	23	24	45
86	16	41	26	25	43
87	16	94	74	73	97
88	10	6	7	8	21
88	11	6	7	8	21
89	15	31	70	72	73
90	16	89	77	76	90
91	16	10	7	6	11
92	15	82	80	79	84
93	9	26	27	28	38
94	2	1	2	3	18
94	3	1	2	3	18
95	9	27	26	25	43
96	1	31	30	29	35
97	9	73	74	75	92
98	9	77	76	75	92
99	18	71	70	72	99
99	19	71	70	72	99
99	20	71	70	72	99
100	16	97	73	72	99
101	16	9	7	6	12
102	9	4	3	2	19
103	21	32	31	70	71
104	9	25	24	23	48
105	17	78	79	80	81
106	9	50	51	52	65
107	1	77	78	79	80
108	6	24	25	26	27
108	7	24	25	26	27
108	8	24	25	26	27
109	16	41	26	25	44
110	9	25	26	27	39
111	9	29	28	27	40
112	16	58	55	54	60
113	16	90	76	75	93
114	16	88	77	76	91
115	16	15	4	3	17
116	2	8	7	6	12
116	3	8	7	6	12
117	1	53	54	55	56
118	16	92	75	74	95
119	9	51	52	53	62
120	9	23	24	25	43
121	9	7	6	5	13
122	9	27	26	25	44
123	16	35	29	28	38
124	9	77	76	75	93
125	9	76	75	74	94
126	16	65	52	51	66
127	21	32	31	70	72
128	9	27	28	29	35
129	18	22	21	23	47
129	19	22	21	23	47
129	20	22	21	23	47
130	9	24	25	26	42
131	16	64	52	51	67
132	9	77	78	79	84
133	6	74	75	76	77
133	7	74	75	76	77
133	8	74	75	76	77
134	16	12	6	5	13
135	16	44	25	24	45
136	16	59	55	54	60
137	16	84	79	78	86
138	16	16	4	3	17
139	9	25	26	27	40
140	17	22	21	23	24
141	16	43	25	24	45
142	16	91	76	75	92
143	16	15	4	3	18
144	6	72	73	74	75
144	7	72	73	74	75
144	8	72	73	74	75
145	9	4	5	6	11
146	4	19	2	1	49
147	17	71	70	72	73
148	9	7	6	5	14
149	6	51	52	53	54
149	7	51	52	53	54
149	8	51	52	53	54
150	9	52	51	50	68
151	9	72	73	74	94
152	9	76	75	74	95
153	16	85	79	78	86
154	9	55	54	53	63
155	16	63	53	52	65
156	4	9	7	8	21
157	9	52	53	54	60
158	2	56	55	54	61
158	3	56	55	54	61
159	4	1	49	50	51
160	16	12	6	5	14
161	18	81	80	79	84
161	19	81	80	79	84
161	20	81	80	79	84
162	9	5	4	3	18
163	16	16	4	3	18
164	21	30	31	70	71
165	16	43	25	24	46
166	16	66	51	50	68
167	16	91	76	75	93
168	16	42	26	25	43
169	16	95	74	73	97
170	9	30	29	28	38
171	16	40	27	26	41
172	9	79	78	77	88
173	16	37	28	27	40
174	1	70	72	73	97
175	4	3	2	1	49
176	1	21	23	24	46
177	18	32	31	30	33
177	19	32	31	30	33
177	20	32	31	30	33
178	16	85	79	78	87
179	16	67	51	50	68
180	16	36	29	28	37
181	16	89	77	76	91
182	16	10	7	6	12
183	1	70	72	73	74
184	15	82	80	79	85
185	9	52	53	54	61
186	15	33	30	31	70
187	1	31	30	29	36
188	9	53	52	51	66
189	1	80	79	78	86
190	9	6	5	4	15
191	16	61	54	53	62
192	9	28	29	30	33
193	9	73	74	75	93
194	21	30	31	70	72
195	18	81	80	79	85
195	19	81	80	79	85
195	20	81	80	79	85
196	9	4	3	2	20
197	1	5	6	7	8
198	4	1	49	50	68
199	16	86	78	77	88
200	16	92	75	74	94
201	2	49	50	51	66
201	3	49	50	51	66
202	15	78	79	80	82
203	15	8	21	23	47
204	16	60	54	53	62
205	9	79	78	77	89
206	15	31	70	72	98
207	9	78	77	76	90
208	15	34	30	31	70
209	15	8	21	23	24
210	9	75	74	73	96
211	16	93	75	74	94
212	16	36	29	28	38
213	1	1	2	3	4
214	16	58	55	54	61
215	16	11	6	5	13
216	16	39	27	26	41
217	24	57	56	55	58
218	9	75	76	77	88
219	9	51	52	53	63
220	9	2	3	4	15
221	16	87	78	77	88
222	9	23	24	25	44
223	9	53	52	51	67
224	1	80	79	78	87
225	9	3	4	5	13
226	16	61	54	53	63
227	9	76	77	78	86
228	16	65	52	51	67
229	2	49	50	51	67
229	3	49	50	51	67
230	16	45	24	23	47
231	9	27	28	29	36
232	18	22	21	23	48
232	19	22	21	23	48
232	20	22	21	23	48
233	9	54	53	52	64
234	9	74	75	76	90
235	9	77	78	79	85
236	9	78	77	76	91
237	16	59	55	54	61
238	16	44	25	24	46
239	25	79	80	82	83
240	6	76	77	78	79
240	7	76	77	78	79
240	8	76	77	78	79
241	16	84	79	78	87
242	6	23	24	25	26
242	7	23	24	25	26
242	8	23	24	25	26
243	16	17	3	2	19
244	16	34	30	29	35
245	16	38	28	27	39
246	9	53	54	55	58
247	24	57	56	55	59
248	9	4	5	6	12
249	12	7	8	21	22
249	13	7	8	21	22
250	9	75	76	77	89
251	6	26	27	28	29
251	7	26	27	28	29
251	8	26	27	28	29
252	15	29	30	31	70
253	9	2	3	4	16
254	16	13	5	4	15
255	9	3	4	5	14
256	9	52	51	50	69
257	9	76	77	78	87
258	9	72	73	74	95
259	16	94	74	73	96
260	16	45	24	23	48
261	9	28	27	26	41

Impropers

18	1	80	79	81	82
43	2	70	31	71	72
146	2	31	32	70	30
153	1	21	22	23	8
164	2	70	71	72	31
242	1	80	82	79	81
315	1	21	23	8	22
346	2	31	30	32	70
373	1	21	8	22	23
487	1	80	81	82	79
497	2	31	70	30	32
574	2	70	72	31	71
