Title

12375 atoms
13000 bonds
20375 angles
30875 dihedrals
20250 impropers

7 atom types
11 bond types
6 angle types
17 dihedral types
3 improper types
-16.38105947 155.3334113 xlo xhi
-16.7391709 157.6067335 ylo yhi
-15.28640407 160.9783597 zlo zhi
0.0 0.0 0.0 xy xz yz

Masses

1	14.00672
2	12.01078
3	1.007947
4	15.99943
5	1.007947
6	15.99943
7	1.007947


Pair Coeffs

1	0.16769152	3.206876
2	0.086879315	3.4806469
3	0.015611343	2.5725815
4	0.2102061	3.0398122
5	0.014090815	1.1034277
6	0.20947353	2.99716
7	1.2326e-05	0.53453923

Bond Coeffs

1 harmonic	390.03554688505	1.390160554689
2 harmonic	505.144496193	1.019481865027
3 harmonic	422.7150220147	1.421786517481
4 harmonic	360.7852444772	1.387193227181
5 harmonic	397.2545789619	1.085358495916
6 harmonic	279.1350963404	1.454628925034
7 harmonic	399.1592953295	1.371688562017
8 harmonic	582.698766451	1.225198386222
9 harmonic	492.76746816345	1.381897776683
10 harmonic	385.7604595587	1.369745182308
11 harmonic	543.5267831885	0.9716763312559


Angle Coeffs

1 harmonic	57.8982893754	126.8062420451
2 harmonic	55.42182150775	117.3465570514
3 harmonic	63.44422595415	115.5071327674
4 harmonic	34.066775159195	129.1835929926
5 harmonic	65.09061609600001	110.3538806181
6 harmonic	201.41175231035	127.4691416191


Dihedral Coeffs

1 fourier 1	3.661930099076	2	180
2 fourier 1	1.193093382682	2	180
3 fourier 1	0.02021088501612	1	0
4 fourier 1	1.163235555439	2	180
5 fourier 1	5.294842998052	2	180
6 fourier 1	0.2347635637734	2	180
7 fourier 1	0.4747469131102	3	0
8 fourier 1	0.9974165607242	2	180
9 fourier 1	3.101948770557	2	180
10 fourier 1	-0.4252153282372	1	0
11 fourier 1	1.809047390003	2	180
12 fourier 1	-0.04816277792592	1	0
13 fourier 1	2.348375642009	2	180
14 fourier 1	1.256156174911	1	0
15 fourier 1	2.687457892086	2	180
16 fourier 1	2.772607909663	2	180
17 fourier 1	0.09692684957115	1	0


Improper Coeffs

1 0.3666666666666667	-1	2
2 0.3333333333333333	-1	2
3 3.5	-1	2


Atoms

1	4	1	-0.41257324	-2.180838	-4.3906369	5.0045317
2	4	2	0.11945538	-1.5207932	-3.929295	3.8222092
3	4	2	-0.41350945	-0.2115603	-3.633712	3.8456378
4	4	3	0.23429867	0.36271546	-3.7417075	4.7575514
5	4	2	-0.084705128	0.46036104	-3.1477255	2.6246166
6	4	3	0.22772046	1.511645	-2.8889461	2.6568686
7	4	2	-0.2817313	-0.22841491	-3.0126337	1.4864919
8	4	3	0.22092307	0.27027852	-2.6292185	0.60514138
9	4	2	-0.081061102	-1.6720352	-3.3663536	1.4378217
10	4	2	0.037333504	-2.4624677	-3.1779154	0.2015638
11	4	2	-0.46015214	-2.0602838	-3.5211779	-1.0314492
12	4	2	0.60438032	-0.85227905	-4.3235483	-1.336271
13	4	4	-0.56143825	-0.45402988	-5.1880806	-0.50971289
14	4	2	-0.46015214	-0.13033114	-4.2014626	-2.6198022
15	4	2	0.037333504	-0.31804104	-3.1837733	-3.4746825
16	4	2	-0.08781781	0.39613948	-3.0460364	-4.7676851
17	4	2	-0.2817313	1.5896466	-3.6280119	-5.0132708
18	4	3	0.22092307	2.0978814	-4.2207347	-4.2660205
19	4	2	-0.10217459	2.2591348	-3.4375762	-6.3158873
20	4	3	0.22772046	3.2116972	-3.9153787	-6.5037264
21	4	2	-0.388664	1.6956099	-2.6739734	-7.2576243
22	4	3	0.23186281	2.1945561	-2.5376092	-8.2091443
23	4	2	0.21910522	0.39792112	-2.0124543	-6.9993506
24	4	1	-0.53251337	-0.19513753	-1.1900084	-8.007565
25	4	5	0.32465238	-1.1105986	-0.71344303	-7.8463897
26	4	2	-0.34078636	-0.2126762	-2.1880603	-5.8170252
27	4	3	0.22919568	-1.1644692	-1.7055824	-5.6235693
28	4	3	0.21749076	-1.0506533	-2.421691	-3.2429348
29	4	3	0.17714817	0.58381767	-4.9793428	-2.8481549
30	4	3	0.17714817	-2.7054254	-3.2526465	-1.8577343
31	4	3	0.21749076	-3.4379207	-2.7168937	0.30199909
32	4	2	-0.33917966	-2.2850674	-3.7722088	2.5619973
33	4	3	0.22929629	-3.3445592	-4.0019307	2.5549304
34	4	5	0.37916348	-3.199149	-4.6194147	4.9860522
35	5	2	0.77190513	0.28985419	-1.050652	-8.9441748
36	5	4	-0.63908499	1.0707721	-1.9449754	-9.3648003
37	5	2	-0.34862309	0.038023021	0.17626006	-9.7226526
38	5	2	-0.06330651	0.63243236	0.38872003	-10.911361
39	5	3	0.23082651	1.3158718	-0.33726929	-11.333593
40	5	2	-0.23480751	0.36025236	1.6276122	-11.667291
41	5	3	0.22363385	0.8432837	1.7893424	-12.622968
42	5	2	-0.0092404067	-0.47930922	2.5458128	-11.176432
43	5	3	0.23076656	-0.66853034	3.4492004	-11.742255
44	5	2	-0.28676056	-1.1426691	2.3269626	-9.8666697
45	5	2	0.59246416	-2.0692953	3.3337379	-9.3172589
46	5	4	-0.49725615	-2.3143406	4.3968554	-9.9467929
47	5	2	0.066262924	-0.89229928	1.1974605	-9.1810042
48	5	3	0.24799159	-1.3692247	1.023254	-8.2230777
49	1	1	-0.41257327	-1.6602323	-4.5081275	5.9023254
50	1	2	0.11945538	-0.88363127	-3.439933	6.451066
51	1	2	-0.41350945	-0.80820217	-2.2582397	5.8177948
52	1	3	0.23429867	-1.3328957	-2.0989684	4.8836464
53	1	2	-0.084705114	0.00378646	-1.1629147	6.3836135
54	1	3	0.22772046	0.079255176	-0.22230524	5.8552309
55	1	2	-0.2817313	0.65621797	-1.3380503	7.5392193
56	1	3	0.22092307	1.2691191	-0.53554866	7.9286501
57	1	2	-0.081061102	0.55497452	-2.6293197	8.2683064
58	1	2	0.037333504	1.3065857	-2.8593047	9.5204312
59	1	2	-0.46015214	1.402829	-1.9848044	10.53405
60	1	2	0.60438032	0.61293522	-0.73683362	10.654586
61	1	4	-0.56143825	-0.54728209	-0.68421761	10.164941
62	1	2	-0.46015214	1.108524	0.43716766	11.401579
63	1	2	0.037333504	2.3890014	0.58558974	11.774703
64	1	2	-0.035101897	2.9033609	1.7571546	12.526138
65	1	2	-0.2817313	2.2954042	2.9616973	12.513865
66	1	3	0.22092307	1.3978721	3.1409412	11.937486
67	1	2	-0.03606858	2.867116	4.0954232	13.268288
68	1	3	0.22772046	2.3664402	5.0549187	13.257644
69	1	2	-0.45048331	4.0020417	3.9408495	13.958609
70	1	3	0.23839017	4.4160564	4.7774384	14.507502
71	1	2	0.32031281	4.6935373	2.6333103	13.967725
72	1	1	-0.84762191	5.9112396	2.4765379	14.700345
73	1	5	0.37570078	6.3172991	3.2788904	15.230756
74	1	5	0.37570078	6.4154804	1.5615475	14.71921
75	1	2	-0.4053977	4.1709725	1.6010963	13.283729
76	1	3	0.23898887	4.6749077	0.64148132	13.288862
77	1	3	0.21749076	3.1023348	-0.19696849	11.551958
78	1	3	0.17714817	0.38169401	1.2030788	11.635757
79	1	3	0.17714817	2.0531209	-2.249289	11.358576
80	1	3	0.21749076	1.8291354	-3.8029179	9.6202559
81	1	2	-0.33917966	-0.15478956	-3.6347567	7.7270705
82	1	3	0.22929632	-0.21259927	-4.5942617	8.2267457
83	1	5	0.37916348	-1.7184517	-5.4267161	6.3948816
84	2	2	0.59246416	-2.5497991	3.1686935	-8.3623738
85	2	4	-0.49725615	-3.2994444	2.1647825	-8.2218053
86	2	2	-0.28221204	-2.3193786	4.1139165	-7.2531317
87	2	2	-0.0092404495	-2.8993938	3.9421977	-6.0513481
88	2	3	0.23076654	-3.5547462	3.1013404	-5.8616237
89	2	2	-0.23596183	-2.650372	4.9056692	-4.9616248
90	2	3	0.22363385	-3.1213542	4.7585686	-3.9984114
91	2	2	-0.048515941	-1.8463197	5.9550485	-5.1617376
92	2	3	0.24131619	-1.6754395	6.6510552	-4.3498173
93	2	2	-0.21248948	-1.19652	6.1634819	-6.4800209
94	2	2	0.84307344	-0.30912079	7.3302448	-6.6856443
95	2	4	-0.46636286	0.25223121	7.523433	-7.7994806
96	2	6	-0.66053205	-0.085867808	8.2274605	-5.6458424
97	2	7	0.42464981	0.51878407	9.0306635	-5.7716401
98	2	2	0.08332225	-1.4286822	5.279598	-7.4714814
99	2	3	0.25810836	-0.96583669	5.4088408	-8.4427504
100	4	1	-0.41257324	-4.2190213	5.1346445	35.840361
101	4	2	0.11945538	-3.0110798	4.4280815	35.543666
102	4	2	-0.41350945	-2.3306413	4.688018	34.416082
103	4	3	0.23429867	-2.6848231	5.4359136	33.717333
104	4	2	-0.084705128	-1.0909372	3.947243	34.111221
105	4	3	0.22772046	-0.55978335	4.1457577	33.18836
106	4	2	-0.2817313	-0.63265483	3.0238513	34.962875
107	4	3	0.22092307	0.26299117	2.468503	34.714103
108	4	2	-0.081061102	-1.3589677	2.7477929	36.230861
109	4	2	0.037333504	-0.89500276	1.6964372	37.162533
110	4	2	-0.46015214	0.37915336	1.5032842	37.535521
111	4	2	0.60438032	1.4987265	2.427496	37.238236
112	4	4	-0.56143825	1.2750274	3.6638539	37.135305
113	4	2	-0.46015214	2.8965468	1.9605263	37.130515
114	4	2	0.037333504	3.2315193	0.66693505	37.003384
115	4	2	-0.08781781	4.6287699	0.18009974	36.895853
116	4	2	-0.2817313	5.6450852	0.95488156	36.459638
117	4	3	0.22092307	5.4877565	1.9784138	36.150388
118	4	2	-0.10217459	7.0121856	0.4053871	36.357745
119	4	3	0.22772046	7.8198713	1.0382845	36.014177
120	4	2	-0.388664	7.2517209	-0.86933165	36.682141
121	4	3	0.23186281	8.2567271	-1.2649218	36.602117
122	4	2	0.21910522	6.1472081	-1.7387024	37.143178
123	4	1	-0.53251337	6.4085426	-3.1035281	37.480205
124	4	5	0.32465238	5.64362	-3.7350363	37.807698
125	4	2	-0.34078636	4.9052486	-1.2388597	37.239375
126	4	3	0.22919568	4.0925918	-1.8723706	37.577566
127	4	3	0.21749076	2.4552775	-0.087141402	37.007176
128	4	3	0.17714817	3.6628385	2.7219362	37.147918
129	4	3	0.17714817	0.58972779	0.64544225	38.160685
130	4	3	0.21749076	-1.6440155	1.0250218	37.565421
131	4	2	-0.33917966	-2.506229	3.3991395	36.483522
132	4	3	0.22929629	-3.0682544	3.1872213	37.386053
133	4	5	0.37916348	-4.7483075	4.9314558	36.716836
134	5	2	0.77190513	7.3930923	-3.4992103	37.402923
135	5	4	-0.63908499	8.3742791	-2.7169135	37.511813
136	5	2	-0.34862309	7.5848941	-4.9431611	37.172753
137	5	2	-0.06330651	8.8142921	-5.4811195	37.069456
138	5	3	0.23082651	9.7028338	-4.8679154	37.152548
139	5	2	-0.23480751	8.9739585	-6.9308001	36.838591
140	5	3	0.22363385	9.9673499	-7.3542613	36.757048
141	5	2	-0.0092404067	7.8983957	-7.718626	36.731848
142	5	3	0.23076656	8.0316392	-8.7795594	36.562329
143	5	2	-0.28676056	6.5355352	-7.1409755	36.842974
144	5	2	0.59246416	5.3439163	-8.0014807	36.726098
145	5	4	-0.49725615	5.4592629	-9.2402104	36.529062
146	5	2	0.066262924	6.3940142	-5.8202242	37.053176
147	5	3	0.24799159	5.4051712	-5.3835859	37.136636
148	1	1	-0.41257327	-4.591385	5.8632993	35.191304
149	1	2	0.11945538	-4.8023577	5.5798238	33.80552
150	1	2	-0.41350945	-4.5232168	4.3636477	33.309418
151	1	3	0.23429867	-4.1340064	3.582591	33.951111
152	1	2	-0.084705114	-4.732866	4.080283	31.875903
153	1	3	0.22772046	-4.4826683	3.1058465	31.479035
154	1	2	-0.2817313	-5.2172086	5.0305027	31.06704
155	1	3	0.22092307	-5.3406744	4.8170507	30.013234
156	1	2	-0.081061102	-5.5622142	6.3709219	31.608744
157	1	2	0.037333504	-6.0520918	7.4485789	30.723134
158	1	2	-0.46015214	-6.9808179	7.2979986	29.765935
159	1	2	0.60438032	-7.8104242	6.0853477	29.573261
160	1	4	-0.56143825	-8.1160307	5.3750554	30.568607
161	1	2	-0.46015214	-8.3636129	5.7136152	28.255048
162	1	2	0.037333504	-7.9409774	6.2521143	27.100808
163	1	2	-0.035101897	-8.4861522	5.8913962	25.768723
164	1	2	-0.2817313	-9.0962316	4.7139445	25.519533
165	1	3	0.22092307	-9.2086385	3.9575065	26.284433
166	1	2	-0.03606858	-9.6019593	4.4055571	24.166581
167	1	3	0.22772046	-10.096815	3.4611867	23.980293
168	1	2	-0.45048331	-9.4455718	5.2862557	23.172395
169	1	3	0.23839017	-9.8172369	5.0519394	22.182681
170	1	2	0.32031281	-8.7616297	6.573895	23.421626
171	1	1	-0.84762191	-8.5895386	7.5076958	22.352744
172	1	5	0.37570078	-8.9438628	7.2882433	21.395516
173	1	5	0.37570078	-8.1088218	8.4224226	22.50769
174	1	2	-0.4053977	-8.3046252	6.855345	24.653829
175	1	3	0.23898887	-7.8035334	7.7982762	24.839909
176	1	3	0.21749076	-7.1785167	7.0196858	27.119376
177	1	3	0.17714817	-9.1392236	4.9598536	28.251525
178	1	3	0.17714817	-7.1879022	8.1536754	29.135374
179	1	3	0.21749076	-5.6176939	8.4326818	30.850684
180	1	2	-0.33917966	-5.3319241	6.6332771	32.907105
181	1	3	0.22929632	-5.5452183	7.6148454	33.312932
182	1	5	0.37916348	-4.808354	6.808986	35.57654
183	2	2	0.59246416	4.353348	-7.5748752	36.808019
184	2	4	-0.49725615	4.0269792	-6.9904797	37.876444
185	2	2	-0.28221204	3.4125782	-7.6844364	35.67669
186	2	2	-0.0092404495	2.1723914	-7.1667752	35.741132
187	2	3	0.23076654	1.8267277	-6.6517098	36.628684
188	2	2	-0.23596183	1.253719	-7.2935387	34.593196
189	2	3	0.22363385	0.25824634	-6.8734304	34.654728
190	2	2	-0.048515941	1.6483785	-7.923242	33.481684
191	2	3	0.24131619	0.96015801	-8.0058798	32.6496
192	2	2	-0.21248948	3.0122823	-8.5018985	33.389607
193	2	2	0.84307344	3.4340487	-9.1961005	32.152154
194	2	4	-0.46636286	4.5898641	-9.6939298	32.055584
195	2	6	-0.66053205	2.5539497	-9.3049244	31.079955
196	2	7	0.42464981	2.8283398	-9.7772986	30.226646
197	2	2	0.08332225	3.8464558	-8.382883	34.442286
198	2	3	0.25810836	4.8474085	-8.7959176	34.399988
199	4	1	-0.41257324	-4.2683095	1.0262969	72.706656
200	4	2	0.11945538	-3.1419866	1.1844742	71.839039
201	4	2	-0.41350945	-3.1137049	2.1767774	70.935411
202	4	3	0.23429867	-3.9406328	2.8712064	70.851741
203	4	2	-0.084705128	-1.9530625	2.3271684	70.036053
204	4	3	0.22772046	-1.9474704	3.1158751	69.293681
205	4	2	-0.2817313	-0.91880366	1.4844597	70.126278
206	4	3	0.22092307	-0.085947044	1.5892173	69.442277
207	4	2	-0.081061102	-0.92249231	0.39992046	71.143768
208	4	2	0.037333504	0.18983847	-0.57188733	71.22705
209	4	2	-0.46015214	1.4933968	-0.25936351	71.172584
210	4	2	0.60438032	2.0375497	1.1181007	71.222384
211	4	4	-0.56143825	1.4195561	2.0089104	71.865625
212	4	2	-0.46015214	3.3305851	1.4757481	70.602938
213	4	2	0.037333504	3.9650765	0.68878455	69.719844
214	4	2	-0.08781781	5.263875	1.0307097	69.089692
215	4	2	-0.2817313	5.7081815	2.2997356	68.964664
216	4	3	0.22092307	5.1266191	3.1425939	69.31018
217	4	2	-0.10217459	7.0030666	2.5763149	68.310396
218	4	3	0.22772046	7.3521323	3.5968409	68.223025
219	4	2	-0.388664	7.7391465	1.5725833	67.822311
220	4	3	0.23186281	8.6863251	1.7844787	67.341805
221	4	2	0.21910522	7.2593247	0.17761628	67.932524
222	4	1	-0.53251337	8.0472811	-0.89049038	67.400636
223	4	5	0.32465238	7.727558	-1.8827031	67.467359
224	4	2	-0.34078636	6.0842882	-0.074634868	68.530202
225	4	3	0.22919568	5.7289205	-1.0958284	68.613853
226	4	3	0.21749076	3.5383315	-0.27087689	69.458816
227	4	3	0.17714817	3.7554272	2.4275823	70.887142
228	4	3	0.17714817	2.2011148	-1.0779765	71.164096
229	4	3	0.21749076	-0.072367489	-1.6182369	71.329703
230	4	2	-0.33917966	-1.9982967	0.2463847	71.933306
231	4	3	0.22929629	-2.0345807	-0.55925064	72.657861
232	4	5	0.37916348	-4.2902626	0.25391183	73.408494
233	5	2	0.77190513	8.9781757	-0.68966615	66.926316
234	5	4	-0.63908499	9.6182238	0.34451214	67.254015
235	5	2	-0.34862309	9.4940586	-1.6197819	65.904793
236	5	2	-0.06330651	10.667242	-1.4001702	65.282779
237	5	3	0.23082651	11.26994	-0.53094807	65.514377
238	5	2	-0.23480751	11.157185	-2.3499456	64.263835
239	5	3	0.22363385	12.102472	-2.1645969	63.768986
240	5	2	-0.0092404067	10.439201	-3.4348378	63.953341
241	5	3	0.23076656	10.811518	-4.121777	63.203965
242	5	2	-0.28676056	9.1430529	-3.6913762	64.629807
243	5	2	0.59246416	8.344346	-4.8843605	64.293741
244	5	4	-0.49725615	8.7450964	-5.7062036	63.427397
245	5	2	0.066262924	8.6999958	-2.8241122	65.55725
246	5	3	0.24799159	7.7553007	-2.997857	66.060035
247	1	1	-0.41257327	-5.0839905	1.6766705	72.656191
248	1	2	0.11945538	-5.7557938	1.9242258	71.418184
249	1	2	-0.41350945	-5.3473685	1.3216289	70.289828
250	1	3	0.23429867	-4.5041142	0.64186714	70.302082
251	1	2	-0.084705114	-6.0380459	1.5894971	69.012948
252	1	3	0.22772046	-5.6878888	1.1192345	68.104172
253	1	2	-0.2817313	-7.0849772	2.4228217	68.977324
254	1	3	0.22092307	-7.5649487	2.6305522	68.029807
255	1	2	-0.081061102	-7.5691293	3.071036	70.224164
256	1	2	0.037333504	-8.6924743	4.0317808	70.197815
257	1	2	-0.46015214	-9.8388612	3.8598096	69.521309
258	1	2	0.60438032	-10.250923	2.6002262	68.858326
259	1	4	-0.56143825	-9.8747274	1.4946909	69.332555
260	1	2	-0.46015214	-11.159132	2.586581	67.693484
261	1	2	0.037333504	-11.448561	3.6809012	66.972675
262	1	2	-0.035101897	-12.359156	3.6853392	65.801102
263	1	2	-0.2817313	-12.618424	2.5821474	65.068687
264	1	3	0.22092307	-12.15941	1.6287398	65.292798
265	1	2	-0.03606858	-13.520333	2.6546772	63.901364
266	1	3	0.22772046	-13.727331	1.76162	63.326019
267	1	2	-0.45048331	-14.07633	3.8195488	63.551458
268	1	3	0.23839017	-14.73485	3.8650287	62.693055
269	1	2	0.32031281	-13.788225	5.0436271	64.330262
270	1	1	-0.84762191	-14.378563	6.2878175	63.946075
271	1	5	0.37570078	-15.013307	6.3398357	63.1188
272	1	5	0.37570078	-14.187539	7.1639777	64.482428
273	1	2	-0.4053977	-12.970054	4.976292	65.39443
274	1	3	0.23898887	-12.757374	5.8713308	65.967588
275	1	3	0.21749076	-11.028415	4.6351751	67.261977
276	1	3	0.17714817	-11.588497	1.6304695	67.42658
277	1	3	0.17714817	-10.545186	4.6806472	69.523544
278	1	3	0.21749076	-8.5739935	4.9505008	70.759371
279	1	2	-0.33917966	-6.9108541	2.8523422	71.375881
280	1	3	0.22929632	-7.22798	3.342259	72.288613
281	1	5	0.37916348	-5.4017235	2.1455029	73.533145
282	2	2	0.59246416	7.4006511	-5.0660693	64.790078
283	2	4	-0.49725615	7.3875848	-5.2099411	66.042554
284	2	2	-0.28221204	6.1583928	-5.140657	63.997494
285	2	2	-0.0092404495	4.9660499	-5.3652348	64.578934
286	2	3	0.23076654	4.8823752	-5.4978313	65.650353
287	2	2	-0.23596183	3.7410471	-5.4356499	63.759059
288	2	3	0.22363385	2.7866537	-5.6163851	64.236249
289	2	2	-0.048515941	3.8084459	-5.2761851	62.433249
290	2	3	0.24131619	2.8985786	-5.3308448	61.848447
291	2	2	-0.21248948	5.1137668	-5.0277393	61.771458
292	2	2	0.84307344	5.1716439	-4.8534066	60.302666
293	2	4	-0.46636286	6.2723733	-4.6410264	59.722701
294	2	6	-0.66053205	4.0056795	-4.922405	59.546496
295	2	7	0.42464981	4.0295871	-4.8052353	58.540383
296	2	2	0.08332225	6.2292013	-4.9650136	62.526452
297	2	3	0.25810836	7.1941219	-4.7840538	62.067677
298	4	1	-0.41257324	-4.4319213	-2.371224	105.75058
299	4	2	0.11945538	-3.5285919	-2.3855815	104.64144
300	4	2	-0.41350945	-2.242362	-2.727682	104.81634
301	4	3	0.23429867	-1.8714846	-2.9987315	105.79717
302	4	2	-0.084705128	-1.3135168	-2.7296024	103.66926
303	4	3	0.22772046	-0.27184003	-2.9840912	103.82207
304	4	2	-0.2817313	-1.7517088	-2.4039623	102.44863
305	4	3	0.22092307	-1.0538944	-2.38292	101.62093
306	4	2	-0.081061102	-3.1809711	-2.0534877	102.23438
307	4	2	0.037333504	-3.6744423	-1.6434868	100.90133
308	4	2	-0.46015214	-3.3712767	-2.25286	99.745196
309	4	2	0.60438032	-2.660554	-3.5481443	99.630733
310	4	4	-0.56143825	-2.7922599	-4.4130553	100.53837
311	4	2	-0.46015214	-1.853268	-3.9000589	98.444137
312	4	2	0.037333504	-1.4621481	-3.0002123	97.528141
313	4	2	-0.08781781	-0.653464	-3.3356722	96.330486
314	4	2	-0.2817313	0.14281815	-4.4241873	96.26313
315	4	3	0.22092307	0.24266208	-5.1081236	97.093954
316	4	2	-0.10217459	0.93791987	-4.6934913	95.047985
317	4	3	0.22772046	1.5664481	-5.5731928	95.002912
318	4	2	-0.388664	0.88748776	-3.8524771	94.009876
319	4	3	0.23186281	1.475691	-4.0561901	93.123619
320	4	2	0.21910522	0.036006022	-2.6444696	94.073165
321	4	1	-0.53251337	-0.0066685096	-1.7444677	92.962847
322	4	5	0.32465238	-0.60079642	-0.88561569	92.986219
323	4	2	-0.34078636	-0.68954291	-2.4011086	95.17585
324	4	3	0.22919568	-1.315705	-1.5170906	95.226379
325	4	3	0.21749076	-1.7678712	-1.9672631	97.631806
326	4	3	0.17714817	-1.5714897	-4.9380684	98.342214
327	4	3	0.17714817	-3.7366159	-1.7991667	98.833191
328	4	3	0.21749076	-4.3230518	-0.77657597	100.85765
329	4	2	-0.33917966	-4.0116766	-2.0176515	103.28934
330	4	3	0.22929629	-5.0491719	-1.7312874	103.15917
331	4	5	0.37916348	-5.4317887	-2.1041752	105.61424
332	5	2	0.77190513	0.56934286	-1.9376326	92.089478
333	5	4	-0.63908499	0.87236734	-3.1279937	91.81057
334	5	2	-0.34862309	0.99565216	-0.816251	91.231851
335	5	2	-0.06330651	1.7248985	-1.0202752	90.119168
336	5	3	0.23082651	2.0216559	-2.017383	89.818933
337	5	2	-0.23480751	2.1369384	0.12328035	89.280795
338	5	3	0.22363385	2.7234751	-0.051129303	88.38729
339	5	2	-0.0092404067	1.7873082	1.368675	89.620868
340	5	3	0.23076656	2.0972049	2.196837	88.996223
341	5	2	-0.28676056	0.98357775	1.6108037	90.845127
342	5	2	0.59246416	0.59387331	2.9802424	91.228341
343	5	4	-0.49725615	0.93564123	3.9687337	90.526445
344	5	2	0.066262924	0.6101888	0.56684822	91.606267
345	5	3	0.24799159	0.022941792	0.72766061	92.503323
346	1	1	-0.41257327	-4.1113477	-2.62723	106.71108
347	1	2	0.11945538	-2.9768831	-1.9906951	107.30528
348	1	2	-0.41350945	-2.2976778	-1.0461314	106.63476
349	1	3	0.23429867	-2.5989037	-0.75497806	105.63586
350	1	2	-0.084705114	-1.1209333	-0.40035853	107.24914
351	1	3	0.22772046	-0.56455358	0.34198558	106.69326
352	1	2	-0.2817313	-0.73505959	-0.74278525	108.48429
353	1	3	0.22092307	0.1451592	-0.28042972	108.91179
354	1	2	-0.081061102	-1.497123	-1.7626009	109.25139
355	1	2	0.037333504	-1.0587054	-2.1897274	110.59711
356	1	2	-0.46015214	-0.65464623	-1.3639417	111.57499
357	1	2	0.60438032	-0.77209977	0.11282828	111.53968
358	1	4	-0.56143825	-1.7215981	0.64723449	110.90605
359	1	2	-0.46015214	0.14749651	0.99191711	112.2903
360	1	2	0.037333504	1.3076489	0.56770807	112.81467
361	1	2	-0.035101897	2.242176	1.4364123	113.57217
362	1	2	-0.2817313	2.2760303	2.7778089	113.43006
363	1	3	0.22092307	1.624531	3.293942	112.73792
364	1	2	-0.03606858	3.2428411	3.5869551	114.19941
365	1	3	0.22772046	3.2554901	4.6629555	114.08329
366	1	2	-0.45048331	4.1040387	2.9940598	115.03326
367	1	3	0.23839017	4.8112668	3.5940027	115.59225
368	1	2	0.32031281	4.0953711	1.5229724	115.18732
369	1	1	-0.84762191	5.0243767	0.89404294	116.07361
370	1	5	0.37570078	5.7101925	1.4656717	116.6148
371	1	5	0.37570078	5.035043	-0.14357078	116.19635
372	1	2	-0.4053977	3.2130731	0.78750207	114.48945
373	1	3	0.23898887	3.2037277	-0.29065044	114.60053
374	1	3	0.21749076	1.5860041	-0.47349764	112.71841
375	1	3	0.17714817	-0.15156971	2.0258079	112.39693
376	1	3	0.17714817	-0.28272344	-1.8166204	112.48572
377	1	3	0.21749076	-1.052749	-3.2530849	110.80367
378	1	2	-0.33917966	-2.544079	-2.3739663	108.67025
379	1	3	0.22929632	-3.0912457	-3.1439413	109.20073
380	1	5	0.37916348	-4.6389886	-3.3616501	107.23264
381	2	2	0.59246416	0.008068678	3.1504853	92.121526
382	2	4	-0.49725615	-1.1348476	2.6257945	92.211007
383	2	2	-0.28221204	0.55452869	3.9859932	93.207927
384	2	2	-0.0092404495	-0.14410477	4.2205594	94.333573
385	2	3	0.23076654	-1.1320107	3.8008412	94.476407
386	2	2	-0.23596183	0.42903194	5.0616418	95.402161
387	2	3	0.22363385	-0.14072884	5.2441182	96.304002
388	2	2	-0.048515941	1.6464786	5.5954273	95.258499
389	2	3	0.24131619	2.0503634	6.2096092	96.053796
390	2	2	-0.21248948	2.434177	5.3495463	94.024551
391	2	2	0.84307344	3.7804921	5.9477438	93.880712
392	2	4	-0.46636286	4.4648833	5.7493543	92.838926
393	2	6	-0.66053205	4.3043643	6.7374356	94.899521
394	2	7	0.42464981	5.2242719	7.1536639	94.81533
395	2	2	0.08332225	1.9043808	4.5804654	93.051939
396	2	3	0.25810836	2.4593292	4.3852179	92.141882
397	4	1	-0.41257324	2.2902948	5.5758229	138.06394
398	4	2	0.11945538	1.6471597	4.8143121	137.03785
399	4	2	-0.41350945	0.31991069	4.6157049	137.06906
400	4	3	0.23429867	-0.28175941	5.0297056	137.86884
401	4	2	-0.084705128	-0.33528207	3.8196379	136.01287
402	4	3	0.22772046	-1.4031556	3.6438902	136.05718
403	4	2	-0.2817313	0.38776008	3.3042534	135.01308
404	4	3	0.22092307	-0.10120355	2.6994178	134.2597
405	4	2	-0.081061102	1.8542205	3.5426978	134.94855
406	4	2	0.037333504	2.6786649	2.9408113	133.87773
407	4	2	-0.46015214	2.3535882	2.9138233	132.57638
408	4	2	0.60438032	1.2212092	3.6528509	131.97013
409	4	4	-0.56143825	0.85394552	4.7498037	132.47116
410	4	2	-0.46015214	0.54542609	3.1864785	130.74156
411	4	2	0.037333504	0.69281803	1.9473924	130.2469
412	4	2	-0.08781781	0.024014444	1.4628056	129.01452
413	4	2	-0.2817313	-1.1125144	2.0095883	128.53203
414	4	3	0.22092307	-1.606069	2.8302847	129.0329
415	4	2	-0.10217459	-1.7402565	1.4694074	127.30915
416	4	3	0.22772046	-2.646701	1.9209565	126.92782
417	4	2	-0.388664	-1.1961791	0.42374036	126.67822
418	4	3	0.23186281	-1.6643949	0.032331693	125.78351
419	4	2	0.21910522	0.037807256	-0.20076312	127.20317
420	4	1	-0.53251337	0.60971933	-1.3243513	126.52857
421	4	5	0.32465238	1.4803765	-1.7807323	126.88188
422	4	2	-0.34078636	0.61070535	0.29198591	128.31247
423	4	3	0.22919568	1.51581	-0.1622486	128.70052
424	4	3	0.21749076	1.3574345	1.2516617	130.74232
425	4	3	0.17714817	-0.099772185	3.8972015	130.24573
426	4	3	0.17714817	3.010588	2.369294	131.91087
427	4	3	0.21749076	3.61273	2.4772183	134.17225
428	4	2	-0.33917966	2.4488197	4.2364177	135.93318
429	4	3	0.22929629	3.5217086	4.3917612	135.9221
430	4	5	0.37916348	3.3225466	5.729151	138.03976
431	5	2	0.77190513	0.15457858	-1.7148544	125.6498
432	5	4	-0.63908499	-0.54073451	-0.9483031	124.93181
433	5	2	-0.34862309	0.34738535	-3.1331763	125.29491
434	5	2	-0.06330651	-0.21182454	-3.6638346	124.19165
435	5	3	0.23082651	-0.8222886	-3.0633811	123.52891
436	5	2	-0.23480751	-0.0005433403	-5.0878303	123.86307
437	5	3	0.22363385	-0.45459125	-5.5055334	122.97304
438	5	2	-0.0092404067	0.74857761	-5.8590076	124.65869
439	5	3	0.23076656	0.8940229	-6.9012982	124.40463
440	5	2	-0.28676056	1.3720051	-5.2892844	125.87941
441	5	2	0.59246416	2.1989861	-6.1317839	126.76281
442	5	4	-0.49725615	2.3909482	-7.3485581	126.49977
443	5	2	0.066262924	1.1773089	-3.9919693	126.1755
444	5	3	0.24799159	1.6260957	-3.5613696	127.06353
445	1	1	-0.41257327	1.7433799	5.9914563	138.85071
446	1	2	0.11945538	0.86867822	5.1882068	139.64755
447	1	2	-0.41350945	0.73275258	3.8759895	139.39709
448	1	3	0.23429867	1.2821644	3.4093099	138.58859
449	1	2	-0.084705114	-0.17990152	3.0541973	140.21619
450	1	3	0.22772046	-0.30247438	2.0031587	139.99276
451	1	2	-0.2817313	-0.86450575	3.6108932	141.22276
452	1	3	0.22092307	-1.550068	3.002163	141.79788
453	1	2	-0.081061102	-0.69874182	5.0550317	141.53289
454	1	2	0.037333504	-1.4821038	5.6990234	142.60864
455	1	2	-0.46015214	-1.6836824	5.1827102	143.83103
456	1	2	0.60438032	-0.99308139	3.9878859	144.3708
457	1	4	-0.56143825	0.17922659	3.7217646	143.99199
458	1	2	-0.46015214	-1.6036473	3.1284374	145.40542
459	1	2	0.037333504	-2.9057678	3.1748042	145.72668
460	1	2	-0.035101897	-3.5350411	2.3201056	146.76364
461	1	2	-0.2817313	-3.0171082	1.1364729	147.1528
462	1	3	0.22092307	-2.1122946	0.7386003	146.71358
463	1	2	-0.03606858	-3.7008771	0.32194806	148.17767
464	1	3	0.22772046	-3.2719335	-0.62209818	148.48784
465	1	2	-0.45048331	-4.8487214	0.74478738	148.71818
466	1	3	0.23839017	-5.3451326	0.14090714	149.4675
467	1	2	0.32031281	-5.4422118	2.0301573	148.28981
468	1	1	-0.84762191	-6.674111	2.472753	148.86482
469	1	5	0.37570078	-7.1593262	1.8953173	149.58671
470	1	5	0.37570078	-7.1102091	3.3772097	148.57569
471	1	2	-0.4053977	-4.8177482	2.7725117	147.35957
472	1	3	0.23898887	-5.2497054	3.7151769	147.04392
473	1	3	0.21749076	-3.5500399	3.891639	145.23483
474	1	3	0.17714817	-0.94517309	2.430141	145.90396
475	1	3	0.17714817	-2.3460393	5.7231514	144.49577
476	1	3	0.21749076	-1.9376618	6.6564518	142.38677
477	1	2	-0.33917966	0.10444742	5.8047578	140.75803
478	1	3	0.22929632	0.21198583	6.8660086	140.94737
479	1	5	0.37916348	1.8486161	7.0116179	139.04565
480	2	2	0.59246416	2.650791	-5.7110271	127.65093
481	2	4	-0.49725615	3.4656841	-4.7569231	127.52764
482	2	2	-0.28221204	2.3064044	-6.257669	128.97741
483	2	2	-0.0092404495	2.8477464	-5.7609187	130.10452
484	2	3	0.23076654	3.5547037	-4.9413826	130.07143
485	2	2	-0.23596183	2.4842849	-6.3297961	131.41679
486	2	3	0.22363385	2.9249442	-5.9230063	132.31767
487	2	2	-0.048515941	1.61428	-7.3421699	131.49381
488	2	3	0.24131619	1.3596851	-7.7460988	132.46585
489	2	2	-0.21248948	1.0054779	-7.9053715	130.26267
490	2	2	0.84307344	0.044034175	-9.0262176	130.36477
491	2	4	-0.46636286	-0.48388782	-9.5176017	129.32895
492	2	6	-0.66053205	-0.28684392	-9.5488349	131.61113
493	2	7	0.42464981	-0.94313557	-10.315978	131.69678
494	2	2	0.08332225	1.3422757	-7.3811824	129.06687
495	2	3	0.25810836	0.9113644	-7.7739238	128.15343
496	4	1	-0.41257324	2.2296891	27.028005	-0.77891295
497	4	2	0.11945538	1.6175674	28.281145	-1.0972345
498	4	2	-0.41350945	2.2853416	29.202843	-1.8089643
499	4	3	0.23429867	3.2941591	29.01057	-2.1529993
500	4	2	-0.084705128	1.6514013	30.497943	-2.1242271
501	4	3	0.22772046	2.2047216	31.245906	-2.6788374
502	4	2	-0.2817313	0.40461331	30.753808	-1.7142969
503	4	3	0.22092307	-0.038584528	31.718196	-1.9288015
504	4	2	-0.081061102	-0.35855981	29.729928	-0.95221871
505	4	2	0.037333504	-1.7205404	30.012103	-0.44822213
506	4	2	-0.46015214	-2.6964186	30.60539	-1.1521924
507	4	2	0.60438032	-2.6389669	30.892944	-2.6047769
508	4	4	-0.56143825	-1.9756769	30.135796	-3.3637163
509	4	2	-0.46015214	-3.3988209	32.002332	-3.2175138
510	4	2	0.037333504	-3.9551426	32.994109	-2.5043294
511	4	2	-0.08781781	-4.7225136	34.114228	-3.1021219
512	4	2	-0.2817313	-4.5634804	34.512762	-4.3824916
513	4	3	0.22092307	-3.8504481	34.038116	-5.0415078
514	4	2	-0.10217459	-5.3450491	35.647808	-4.9136313
515	4	3	0.22772046	-5.2145155	35.952994	-5.9435715
516	4	2	-0.388664	-6.2057804	36.300341	-4.1256844
517	4	3	0.23186281	-6.773076	37.133177	-4.5225393
518	4	2	0.21910522	-6.3788237	35.890542	-2.7148586
519	4	1	-0.53251337	-7.2945689	36.598201	-1.8750605
520	4	5	0.32465238	-7.4322149	36.325936	-0.87601774
521	4	2	-0.34078636	-5.6714207	34.856817	-2.232621
522	4	3	0.22919568	-5.7955709	34.552476	-1.1991398
523	4	3	0.21749076	-3.878518	32.981767	-1.4248974
524	4	3	0.17714817	-3.4846511	31.99207	-4.2944441
525	4	3	0.17714817	-3.6209428	30.824058	-0.63401964
526	4	3	0.21749076	-1.9407331	29.725191	0.57321509
527	4	2	-0.33917966	0.23826729	28.568584	-0.63697938
528	4	3	0.22929629	-0.28943051	27.823295	-0.052664762
529	4	5	0.37916348	1.7103682	26.311994	-0.22459143
530	5	2	0.77190513	-7.8543298	37.417983	-2.2578149
531	5	4	-0.63908499	-8.106795	37.460308	-3.4911205
532	5	2	-0.34862309	-8.3188099	38.477071	-1.3427461
533	5	2	-0.06330651	-9.0292734	39.529526	-1.7889169
534	5	3	0.23082651	-9.2822436	39.630837	-2.836854
535	5	2	-0.23480751	-9.4801075	40.574297	-0.84787086
536	5	3	0.22363385	-10.051389	41.417231	-1.2165099
537	5	2	-0.0092404067	-9.186534	40.481023	0.45367186
538	5	3	0.23076656	-9.5238322	41.255133	1.1312068
539	5	2	-0.28676056	-8.4034607	39.326891	0.96180058
540	5	2	0.59246416	-8.0745643	39.215778	2.3948275
541	5	4	-0.49725615	-8.4499423	40.096591	3.2132651
542	5	2	0.066262924	-7.9944969	38.377323	0.1017623
543	5	3	0.24799159	-7.42183	37.528357	0.45776454
544	1	1	-0.41257327	3.2004651	26.806086	-1.0938957
545	1	2	0.11945538	4.2879001	27.692408	-0.81607437
546	1	2	-0.41350945	4.0797376	28.834431	-0.14111392
547	1	3	0.23429867	3.0866167	29.099707	0.20041729
548	1	2	-0.084705114	5.2043344	29.750532	0.13321297
549	1	3	0.22772046	5.0244191	30.680009	0.65602413
550	1	2	-0.2817313	6.440002	29.438933	-0.2764159
551	1	3	0.22092307	7.2501449	30.1324	-0.091795406
552	1	2	-0.081061102	6.6912289	28.162465	-0.99524033
553	1	2	0.037333504	8.039229	27.82294	-1.4984778
554	1	2	-0.46015214	9.1805238	27.972102	-0.80809082