Title

84 atoms
91 bonds
166 angles
335 dihedrals
78 impropers

9 atom types
13 bond types
6 angle types
13 dihedral types
2 improper types
-6.797999859 93.20200014 xlo xhi
-3.950000048 96.04999995 ylo yhi
-3.582000017 96.41799998 zlo zhi
0.0 0.0 0.0 xy xz yz

Masses

1	15.99943
2	12.01078
3	1.007947
4	12.01078
5	1.007947
6	15.99943
7	15.99943
8	1.007947
9	35.4532


Pair Coeffs

1	0.16846514	3.0251065
2	0.086879315	3.4806469
3	0.015611343	2.5725815
4	0.10884061	3.3795318
5	0.015779483	2.6445434
6	0.2102061	3.0398122
7	0.20947353	2.99716
8	1.2326e-05	0.53453923
9	0.2656001	3.3075278

Bond Coeffs

1 harmonic	425.69104206635	1.362945806494
2 harmonic	300.03137914615	1.451203938761
3 harmonic	360.7852444772	1.387193227181
4 harmonic	397.2545789619	1.085358495916
5 harmonic	289.73813263395	1.498646816465
6 harmonic	264.62148576755	1.52190126495
7 harmonic	301.15400723785	1.345741232799
8 harmonic	370.04670688625	1.093899492634
9 harmonic	582.698766451	1.225198386222
10 harmonic	279.1350963404	1.454628925034
11 harmonic	385.7604595587	1.369745182308
12 harmonic	543.5267831885	0.9716763312559
13 harmonic	218.0227703685	1.746066037062


Angle Coeffs

1 harmonic	57.8982893754	126.8062420451
2 harmonic	65.09061609600001	110.3538806181
3 harmonic	34.066775159195	129.1835929926
4 harmonic	53.20531626545	116.5475862634
5 harmonic	201.41175231035	127.4691416191
6 harmonic	48.776492647595	115.6030999533


Dihedral Coeffs

1 fourier 1	3.661930099076	2	180
2 fourier 1	1.532232714475	2	180
3 fourier 1	0.457973137376	1	0
4 fourier 1	0.02664938770063	3	0
5 fourier 1	0.1155372516788	3	0
6 fourier 1	0.1040663847541	3	0
7 fourier 1	0.09223874044423	3	0
8 fourier 1	0.3159935921949	2	180
9 fourier 1	0.3247796806857	1	180
10 fourier 1	2.779853741805	2	180
11 fourier 1	0.9974165607242	2	180
12 fourier 1	0.1911926717192	3	0
13 fourier 1	0.8283030590042	2	180


Improper Coeffs

1 0.3666666666666667	-1	2
2 3.5	-1	2


Atoms

1	1	1	-0.031970002	4.4000001	2.227	-2.5639999
2	1	2	0.27282301	3.375	1.5779999	-1.8789999
3	1	2	-0.329335	3.075	1.9069999	-0.616
4	1	3	0.22362401	3.6259999	2.687	-0.107
5	1	2	-0.172997	1.985	1.21	0.093999997
6	1	3	0.205933	1.761	1.524	1.105
7	1	2	-0.21303201	1.285	0.213	-0.49599999
8	1	4	-0.02916	0.117	-0.45199999	0.26699999
9	1	2	-0.21303201	-1.0190001	0.583	0.32600001
10	1	2	-0.173246	-1.125	1.483	1.33
11	1	3	0.20593201	-0.428	1.501	2.154
12	1	2	-0.28557801	-2.187	2.51	1.319
13	1	3	0.22289599	-2.2739999	3.1949999	2.1530001
14	1	2	0.433072	-3.0280001	2.6010001	0.28400001
15	1	1	-0.44400299	-4.0250001	3.572	0.28400001
16	1	2	-0.28557801	-2.885	1.674	-0.85699999
17	1	3	0.22289599	-3.5420001	1.7640001	-1.712
18	1	2	-0.173246	-1.933	0.73299998	-0.84500003
19	1	3	0.205933	-1.832	0.086999997	-1.706
20	1	4	-0.128125	0.61199999	-0.97899997	1.6670001
21	1	5	0.12202	1.684	-0.75199997	1.857
22	1	5	0.12202	0.032000002	-0.59799999	2.5320001
23	1	4	-0.131071	0.45500001	-2.5079999	1.575
24	1	5	0.136448	1.1109999	-3.076	2.27
25	1	4	-0.15647399	-1.034	-2.8499999	1.709
26	1	5	0.124118	-1.511	-2.3380001	2.573
27	1	5	0.124118	-1.168	-3.95	1.818
28	1	4	-0.156238	-1.603	-2.3670001	0.373
29	1	5	0.122754	-2.404	-1.614	0.52100003
30	1	5	0.122754	-2.03	-3.224	-0.19400001
31	1	4	-0.096373998	-0.35699999	-1.813	-0.36399999
32	1	5	0.13631099	-0.51999998	-1.824	-1.4579999
33	1	4	-0.134721	0.708	-2.7750001	0.113
34	1	5	0.12914699	0.505	-3.832	-0.17900001
35	1	5	0.12914699	1.738	-2.4960001	-0.205
36	1	2	-0.172997	1.6210001	-0.122	-1.916
37	1	3	0.205933	1.09	-0.88099998	-2.464
38	1	2	-0.329335	2.6070001	0.51899999	-2.556
39	1	3	0.22362401	2.8399999	0.26100001	-3.582
40	1	2	0.62624198	-4.6950002	3.6630001	-0.51800001
41	1	6	-0.51000297	-4.4299998	4.401	-1.452
42	1	1	-0.031970002	4.9499998	2.961	-2.1329999
43	1	2	0.27282301	4.527	3.609	-0.97399998
44	1	2	-0.329335	3.3710001	3.2809999	-0.384
45	1	3	0.22362401	2.7449999	2.5	-0.79900002
46	1	2	-0.172997	2.9389999	3.977	0.84299999
47	1	3	0.205933	2.01	3.6630001	1.3
48	1	2	-0.21303201	3.677	4.974	1.3839999
49	1	4	-0.02916	3.2119999	5.6389999	2.6989999
50	1	2	-0.21303201	3.424	4.605	3.8169999
51	1	2	-0.135727	2.474	3.704	4.1570001
52	1	3	0.20593201	1.508	3.687	3.675
53	1	2	-0.421754	2.7360001	2.678	5.1859999
54	1	3	0.22869299	1.946	1.993	5.4679999
55	1	2	0.42641199	3.9400001	2.5869999	5.7589998
56	1	7	-0.65247601	4.1760001	1.6160001	6.7280002
57	1	8	0.43114701	5.0819998	1.527	7.1719999
58	1	2	-0.421754	5.0149999	3.5139999	5.3499999
59	1	3	0.22869299	6.0019999	3.4230001	5.7859998
60	1	2	-0.135727	4.7779999	4.454	4.428
61	1	3	0.205933	5.5910001	5.1009998	4.1259999
62	1	4	-0.128125	1.735	6.1659999	2.549
63	1	5	0.12202	1.2970001	5.9400001	1.553
64	1	5	0.12202	1.0319999	5.7859998	3.3180001
65	1	4	-0.131071	1.862	7.6960001	2.681
66	1	5	0.136448	1.0319999	8.2629995	2.207
67	1	4	-0.15647399	2.0840001	8.0380001	4.158
68	1	5	0.124118	1.357	7.526	4.8270001
69	1	5	0.124118	2.01	9.1370001	4.3150001
70	1	4	-0.156238	3.517	7.5539999	4.395
71	1	5	0.122754	3.562	6.802	5.2090001
72	1	5	0.122754	4.1690001	8.4110003	4.6760001
73	1	4	-0.096373998	3.938	7	3.01
74	1	5	0.13631099	5.04	7.0120001	2.9089999
75	1	4	-0.134721	3.2219999	7.9619999	2.089
76	1	5	0.12914699	3.5539999	9.0190001	2.217
77	1	5	0.12914699	3.2869999	7.684	1.012
78	1	2	-0.172997	4.9770002	5.309	0.72100002
79	1	3	0.205933	5.6360002	6.0689998	1.107
80	1	2	-0.329335	5.3670001	4.6690001	-0.38800001
81	1	3	0.22362401	6.3080001	4.9260001	-0.85799998
82	1	2	0.465828	-5.6220002	3.102	-0.51700002
83	1	6	-0.59050399	-5.8470001	2.2980001	0.37200001
84	1	9	-0.091829002	-6.7979999	3.349	-1.794

Bonds

1	1	1	2
2	2	1	42
3	3	2	3
4	3	2	38
5	4	3	4
6	3	3	5
7	4	5	6
8	3	5	7
9	5	7	8
10	3	7	36
11	5	8	9
12	6	8	20
13	6	8	31
14	3	9	10
15	3	9	18
16	4	10	11
17	3	10	12
18	4	12	13
19	3	12	14
20	1	14	15
21	3	14	16
22	7	15	40
23	4	16	17
24	3	16	18
25	4	18	19
26	8	20	21
27	8	20	22
28	6	20	23
29	8	23	24
30	6	23	25
31	6	23	33
32	8	25	26
33	8	25	27
34	6	25	28
35	8	28	29
36	8	28	30
37	6	28	31
38	8	31	32
39	6	31	33
40	8	33	34
41	8	33	35
42	4	36	37
43	3	36	38
44	4	38	39
45	9	40	41
46	10	40	82
47	1	42	43
48	3	43	44
49	3	43	80
50	4	44	45
51	3	44	46
52	4	46	47
53	3	46	48
54	5	48	49
55	3	48	78
56	5	49	50
57	6	49	62
58	6	49	73
59	3	50	51
60	3	50	60
61	4	51	52
62	3	51	53
63	4	53	54
64	3	53	55
65	11	55	56
66	3	55	58
67	12	56	57
68	4	58	59
69	3	58	60
70	4	60	61
71	8	62	63
72	8	62	64
73	6	62	65
74	8	65	66
75	6	65	67
76	6	65	75
77	8	67	68
78	8	67	69
79	6	67	70
80	8	70	71
81	8	70	72
82	6	70	73
83	8	73	74
84	6	73	75
85	8	75	76
86	8	75	77
87	4	78	79
88	3	78	80
89	4	80	81
90	9	82	83
91	13	82	84

Angles

1	4	21	20	23
2	1	3	5	7
3	4	73	75	76
4	4	65	75	76
5	4	22	20	23
6	4	49	62	63
7	1	2	3	5
8	3	54	53	55
9	4	62	65	66
10	4	68	67	70
11	1	46	48	78
12	4	70	73	74
13	3	47	46	48
14	4	48	49	73
15	1	12	14	15
16	3	9	18	19
17	3	36	38	39
18	6	29	28	30
19	4	65	75	77
20	3	44	46	47
21	4	62	65	67
22	1	43	44	46
23	4	20	23	33
24	4	23	33	34
25	4	70	73	75
26	1	1	2	3
27	1	15	14	16
28	4	65	75	73
29	1	10	9	18
30	1	55	58	60
31	4	25	28	30
32	1	50	60	58
33	1	12	14	16
34	4	8	31	32
35	4	9	8	20
36	2	1	42	43
37	4	8	20	21
38	6	26	25	27
39	4	65	67	70
40	2	2	1	42
41	4	67	65	75
42	4	8	31	28
43	4	49	73	74
44	1	9	18	16
45	1	49	48	78
46	1	53	55	58
47	4	48	49	50
48	4	20	23	25
49	1	3	2	38
50	3	10	12	13
51	4	25	28	31
52	4	23	25	27
53	4	62	65	75
54	6	71	70	72
55	5	15	40	41
56	3	59	58	60
57	4	49	73	70
58	1	9	10	12
59	1	50	51	53
60	3	37	36	38
61	3	11	10	12
62	4	49	73	75
63	4	48	49	62
64	4	73	75	77
65	1	41	40	82
66	4	72	70	73
67	3	6	5	7
68	4	49	62	64
69	3	13	12	14
70	3	48	78	79
71	4	66	65	67
72	4	7	8	20
73	4	69	67	70
74	4	7	8	9
75	4	28	31	32
76	4	67	70	71
77	3	51	53	54
78	1	8	7	36
79	6	63	62	64
80	4	29	28	31
81	3	58	60	61
82	1	42	43	44
83	1	42	43	80
84	4	64	62	65
85	1	49	50	51
86	1	40	82	83
87	1	44	46	48
88	1	53	55	56
89	3	43	80	81
90	4	23	33	35
91	4	31	33	34
92	4	66	65	75
93	4	67	70	72
94	3	14	16	17
95	4	8	31	33
96	4	63	62	65
97	4	74	73	75
98	1	8	9	10
99	4	20	8	31
100	4	8	20	22
101	4	23	33	31
102	1	56	55	58
103	4	26	25	28
104	4	50	49	73
105	1	15	40	82
106	1	40	82	84
107	6	76	75	77
108	1	44	43	80
109	2	55	56	57
110	4	32	31	33
111	1	8	9	18
112	1	5	7	36
113	1	10	12	14
114	4	23	25	28
115	4	71	70	73
116	3	45	44	46
117	3	2	3	4
118	1	43	80	78
119	3	4	3	5
120	4	8	20	23
121	4	7	8	31
122	6	34	33	35
123	1	51	50	60
124	3	7	36	37
125	1	49	50	60
126	4	49	62	65
127	3	52	51	53
128	3	50	60	61
129	1	48	78	80
130	4	65	67	68
131	3	43	44	45
132	4	27	25	28
133	4	30	28	31
134	4	28	31	33
135	3	2	38	39
136	1	1	2	38
137	3	55	58	59
138	4	25	28	29
139	1	51	53	55
140	4	24	23	25
141	1	46	48	49
142	1	7	36	38
143	2	14	15	40
144	3	16	18	19
145	3	17	16	18
146	4	65	67	69
147	6	21	20	22
148	4	50	49	62
149	3	3	5	6
150	4	25	23	33
151	4	62	49	73
152	4	31	33	35
153	4	20	23	24
154	4	67	70	73
155	3	79	78	80
156	1	14	16	18
157	4	23	25	26
158	4	9	8	31
159	1	83	82	84
160	3	78	80	81
161	6	68	67	69
162	3	9	10	11
163	3	50	51	52
164	1	2	38	36
165	1	5	7	8
166	4	24	23	33

Dihedrals

1	6	62	65	75	76
2	1	2	38	36	37
3	6	21	20	8	31
4	1	3	5	7	8
5	5	7	8	20	22
6	4	18	9	8	31
7	7	67	65	75	73
7	8	67	65	75	73
7	9	67	65	75	73
8	6	69	67	70	73
9	12	74	73	75	76
10	4	73	49	48	78
11	4	5	7	8	31
12	7	20	8	31	33
12	8	20	8	31	33
12	9	20	8	31	33
13	6	24	23	33	31
14	7	23	25	28	31
14	8	23	25	28	31
14	9	23	25	28	31
15	6	27	25	23	33
16	1	6	5	7	36
17	6	28	31	33	34
18	12	68	67	70	71
19	4	5	7	8	20
20	1	50	60	58	59
21	5	50	49	73	74
22	4	50	49	48	78
23	1	55	58	60	61
24	7	65	62	49	73
24	8	65	62	49	73
24	9	65	62	49	73
25	1	52	51	53	54
26	5	48	49	73	74
27	5	50	49	62	63
28	1	6	5	7	8
29	11	41	40	82	83
30	1	50	60	58	55
31	13	53	55	56	57
32	5	48	49	62	63
33	1	9	18	16	14
34	5	50	49	73	70
35	6	62	65	75	77
36	6	68	67	65	75
37	6	49	73	75	76
38	7	20	23	25	28
38	8	20	23	25	28
38	9	20	23	25	28
39	11	15	40	82	84
40	12	32	31	33	35
41	1	4	3	5	6
42	5	48	49	73	70
43	6	64	62	49	73
44	12	63	62	65	66
45	12	71	70	73	74
46	1	48	78	80	81
47	1	8	9	18	16
48	7	62	65	75	73
48	8	62	65	75	73
48	9	62	65	75	73
49	1	5	7	36	38
50	1	2	3	5	6
51	5	7	8	31	32
52	1	12	14	16	18
53	6	24	23	25	28
54	1	52	51	53	55
55	1	53	51	50	60
56	4	20	8	7	36
57	1	49	48	78	79
58	6	62	65	67	69
59	6	25	23	33	34
60	1	47	46	48	49
61	1	45	44	46	47
62	5	48	49	62	64
63	1	8	9	10	12
64	1	42	43	44	46
65	12	66	65	75	76
66	6	8	20	23	24
67	6	49	73	75	77
68	5	7	8	31	28
69	12	22	20	23	24
70	7	28	25	23	33
70	8	28	25	23	33
70	9	28	25	23	33
71	1	53	55	58	59
72	1	54	53	55	56
73	7	67	70	73	75
73	8	67	70	73	75
73	9	67	70	73	75
74	12	72	70	73	74
75	12	26	25	28	29
76	6	8	31	28	29
77	4	10	9	8	31
78	6	49	73	70	72
79	1	43	80	78	79
80	4	46	48	49	73
81	1	13	12	14	16
82	1	15	14	16	17
83	1	46	48	78	79
84	7	62	49	73	75
84	8	62	49	73	75
84	9	62	49	73	75
85	7	62	65	67	70
85	8	62	65	67	70
85	9	62	65	67	70
86	4	18	9	8	20
87	1	42	43	80	81
88	6	25	23	33	35
89	1	43	80	78	48
90	12	66	65	67	68
91	7	8	31	28	25
91	8	8	31	28	25
91	9	8	31	28	25
92	1	45	44	46	48
93	6	26	25	23	33
94	4	48	49	50	51
95	12	27	25	28	30
96	6	22	20	23	25
97	2	14	15	40	41
98	4	31	8	7	36
99	6	65	67	70	71
100	2	16	14	15	40
101	12	21	20	23	24
102	7	25	23	33	31
102	8	25	23	33	31
102	9	25	23	33	31
103	4	51	50	49	73
104	2	12	14	15	40
105	5	7	8	20	23
106	12	74	73	75	77
107	1	15	14	16	18
108	6	63	62	65	75
109	2	38	2	1	42
110	6	28	31	33	35
111	7	49	73	75	65
111	8	49	73	75	65
111	9	49	73	75	65
112	6	70	73	75	76
113	1	10	12	14	15
114	1	12	10	9	18
115	12	66	65	67	69
116	12	68	67	70	72
117	1	79	78	80	81
118	1	10	9	18	19
119	1	49	50	51	52
120	1	47	46	48	78
121	5	50	49	73	75
122	6	8	31	33	34
123	5	48	49	73	75
124	12	30	28	31	32
125	5	50	49	62	64
126	1	1	2	38	39
127	4	46	48	49	50
128	1	59	58	60	61
129	7	65	75	73	70
129	8	65	75	73	70
129	9	65	75	73	70
130	11	41	40	82	84
131	1	42	43	80	78
132	7	8	20	23	33
132	8	8	20	23	33
132	9	8	20	23	33
133	5	9	8	31	32
134	12	29	28	31	32
135	6	22	20	23	33
136	1	49	50	60	61
137	6	63	62	49	73
138	1	4	3	5	7
139	3	2	1	42	43
140	5	9	8	20	21
141	6	63	62	65	67
142	1	50	51	53	54
143	1	10	12	14	16
144	6	68	67	70	73
145	6	71	70	73	75
146	1	43	44	46	47
147	1	3	2	38	39
148	1	46	44	43	80
149	1	51	50	60	61
150	1	2	3	5	7
151	5	7	8	31	33
152	1	1	2	3	4
153	5	9	8	31	28
154	4	7	8	9	10
155	4	10	9	8	20
156	6	25	28	31	32
157	4	46	48	49	62
158	1	52	51	50	60
159	5	50	49	62	65
160	13	57	56	55	58
161	12	69	67	70	71
162	1	49	48	78	80
163	4	48	49	50	60
164	6	23	25	28	29
165	4	60	50	49	73
166	5	48	49	62	65
167	6	49	62	65	66
168	1	10	9	18	16
169	1	4	3	2	38
170	12	66	65	75	77
171	7	8	20	23	25
171	8	8	20	23	25
171	9	8	20	23	25
172	1	53	55	58	60
173	7	23	20	8	31
173	8	23	20	8	31
173	9	23	20	8	31
174	6	72	70	73	75
175	6	21	20	23	33
176	6	23	33	31	32
177	12	24	23	33	34
178	6	20	23	33	34
179	12	26	25	28	30
180	1	44	43	80	81
181	1	50	51	53	55
182	6	8	31	28	30
183	6	69	67	65	75
184	1	8	7	36	37
185	1	37	36	38	39
186	1	43	44	46	48
187	4	7	8	9	18
188	1	44	46	48	49
189	1	51	53	55	58
190	1	1	2	3	5
191	7	25	28	31	33
191	8	25	28	31	33
191	9	25	28	31	33
192	6	66	65	75	73
193	4	51	50	49	62
194	1	49	50	60	58
195	10	14	15	40	82
196	6	20	23	25	26
197	1	56	55	58	59
198	1	46	48	78	80
199	1	17	16	18	19
200	7	23	33	31	28
200	8	23	33	31	28
200	9	23	33	31	28
201	6	65	75	73	74
202	1	9	18	16	17
203	1	3	2	38	36
204	12	24	23	25	26
205	1	3	5	7	36
206	6	27	25	28	31
207	1	11	10	9	18
208	1	54	53	55	58
209	7	8	31	33	23
209	8	8	31	33	23
209	9	8	31	33	23
210	6	20	23	33	35
211	6	26	25	28	31
212	6	65	67	70	72
213	6	21	20	23	25
214	1	8	7	36	38
215	4	9	8	7	36
216	12	64	62	65	66
217	4	5	7	8	9
218	6	20	23	25	27
219	11	15	40	82	83
220	1	56	55	58	60
221	12	32	31	33	34
222	1	9	10	12	13
223	6	70	73	75	77
224	7	20	23	33	31
224	8	20	23	33	31
224	9	20	23	33	31
225	1	44	43	80	78
226	6	66	65	67	70
227	1	7	36	38	39
228	1	49	50	51	53
229	1	5	7	36	37
230	12	24	23	25	27
231	6	8	31	33	35
232	1	12	14	16	17
233	1	11	10	12	13
234	6	30	28	31	33
235	7	65	67	70	73
235	8	65	67	70	73
235	9	65	67	70	73
236	6	62	65	67	68
237	7	49	62	65	75
237	8	49	62	65	75
237	9	49	62	65	75
238	4	60	50	49	62
239	5	9	8	31	33
240	6	29	28	31	33
241	6	64	62	65	67
242	1	8	9	10	11
243	1	2	38	36	7
244	1	42	43	44	45
245	1	44	46	48	78
246	4	62	49	48	78
247	6	67	70	73	74
248	6	67	65	75	76
249	5	9	8	20	22
250	1	9	10	12	14
251	1	1	2	38	36
252	7	70	67	65	75
252	8	70	67	65	75
252	9	70	67	65	75
253	6	22	20	8	31
254	6	49	73	70	71
255	1	5	3	2	38
256	1	51	53	55	56
257	1	13	12	14	15
258	5	7	8	20	21
259	1	11	10	12	14
260	12	69	67	70	72
261	2	3	2	1	42
262	2	1	42	43	80
263	2	1	42	43	44
264	6	20	8	31	32
265	6	62	49	73	74
266	6	23	25	28	30
267	1	45	44	43	80
268	7	49	62	65	67
268	8	49	62	65	67
268	9	49	62	65	67
269	7	49	73	70	67
269	8	49	73	70	67
269	9	49	73	70	67
270	1	51	50	60	58
271	6	67	65	75	77
272	12	27	25	28	29
273	12	24	23	33	35
274	5	9	8	20	23
275	1	14	16	18	19
276	7	20	8	31	28
276	8	20	8	31	28
276	9	20	8	31	28
277	7	62	49	73	70
277	8	62	49	73	70
277	9	62	49	73	70
278	1	8	9	18	19
279	6	64	62	65	75

Impropers

7	1	3	4	5	2
9	1	48	49	78	46
10	1	58	59	60	55
11	1	82	84	40	83
13	1	7	5	8	36
32	1	55	56	58	53
42	1	53	51	54	55
45	1	2	38	1	3
60	1	38	2	36	39
69	1	78	48	79	80
75	1	38	39	2	36
88	1	80	43	78	81
94	1	48	78	46	49
105	1	3	2	4	5
110	1	14	15	16	12
111	2	40	82	15	41
115	1	36	37	38	7
120	1	60	61	50	58
124	1	10	11	12	9
125	1	18	16	19	9
127	1	58	60	55	59
131	1	46	44	47	48
133	1	82	83	84	40
141	1	10	9	11	12
145	1	44	45	46	43
153	2	40	15	41	82
163	1	38	36	39	2
169	1	80	81	43	78
171	1	14	12	15	16
173	1	12	14	10	13
182	1	60	50	58	61
191	1	7	8	36	5
192	1	48	46	49	78
195	1	43	80	42	44
204	1	51	50	52	53
205	1	50	51	60	49
211	1	9	18	8	10
215	1	43	44	80	42
220	1	60	58	61	50
225	1	46	47	48	44
232	1	53	54	55	51
243	1	2	1	3	38
250	1	5	7	3	6
252	1	50	60	49	51
270	1	78	79	80	48
272	1	51	53	50	52
273	1	2	3	38	1
276	1	82	40	83	84
281	1	16	17	18	14
282	1	78	80	48	79
287	1	53	55	51	54
291	1	36	7	37	38
294	1	7	36	5	8
303	1	50	49	51	60
309	1	9	8	10	18
314	1	12	13	14	10
327	1	43	42	44	80
345	1	16	18	14	17
346	1	14	16	12	15
370	1	80	78	81	43
384	1	46	48	44	47
385	1	18	9	16	19
397	1	55	53	56	58
400	1	58	55	59	60
401	1	36	38	7	37
406	1	18	19	9	16
417	1	3	5	2	4
423	1	5	3	6	7
424	1	44	43	45	46
426	1	16	14	17	18
445	1	12	10	13	14
446	1	5	6	7	3
450	1	10	12	9	11
451	1	44	46	43	45
480	1	51	52	53	50
481	1	9	10	18	8
482	2	40	41	82	15
491	1	55	58	53	56
