Title

873 atoms
962 bonds
1562 angles
2474 dihedrals
1533 impropers

9 atom types
15 bond types
10 angle types
21 dihedral types
3 improper types
-33.13000107 66.86999893 xlo xhi
-47.5870018 52.4129982 ylo yhi
-33.80400085 66.19599915 zlo zhi
0.0 0.0 0.0 xy xz yz

Masses

1	15.99943
2	12.01078
3	14.00672
4	1.007947
5	1.007947
6	15.99943
7	12.01078
8	15.99943
9	1.007947


Pair Coeffs

1	0.2102061	3.0398122
2	0.086879315	3.4806469
3	0.16769152	3.206876
4	0.015611343	2.5725815
5	0.014090815	1.1034277
6	0.16846514	3.0251065
7	0.21	3.3996695
8	0.20947353	2.99716
9	1.2326e-05	0.53453923

Bond Coeffs

1 harmonic	582.698766451	1.225198386222
2 harmonic	492.76746816345	1.381897776683
3 harmonic	301.15400723785	1.345741232799
4 harmonic	390.03554688505	1.390160554689
5 harmonic	505.144496193	1.019481865027
6 harmonic	360.7852444772	1.387193227181
7 harmonic	397.2545789619	1.085358495916
8 harmonic	279.1350963404	1.454628925034
9 harmonic	445.3060766333	1.328776712165
10 harmonic	425.69104206635	1.362945806494
11 harmonic	300.03137914615	1.451203938761
12 harmonic	382.5450169811	1.379244394267
13 harmonic	602.81384337	1.196112346392
14 harmonic	385.7604595587	1.369745182308
15 harmonic	543.5267831885	0.9716763312559


Angle Coeffs

1 harmonic	57.8982893754	126.8062420451
2 harmonic	201.41175231035	127.4691416191
3 harmonic	55.42182150775	117.3465570514
4 harmonic	63.44422595415	115.5071327674
5 harmonic	65.09061609600001	110.3538806181
6 harmonic	34.066775159195	129.1835929926
7 harmonic	14.32262199324	138.3184368373
8 harmonic	39.628116874445	129.8027304608
9 harmonic	55.07882548015	112.8714009681
10 harmonic	33.56981613361	180


Dihedral Coeffs

1 fourier 1	1.809047390003	2	180
2 fourier 1	-0.04816277792592	1	0
3 fourier 1	0.4860993122944	2	180
4 fourier 1	0.8916986138746	1	0
5 fourier 1	1.532232714475	2	180
6 fourier 1	1.193093382682	2	180
7 fourier 1	2.779853741805	2	180
8 fourier 1	3.661930099076	2	180
9 fourier 1	0.9974165607242	2	180
10 fourier 1	1.57666786751	2	180
11 fourier 1	1.163235555439	2	180
12 fourier 1	3.731869940596	2	180
13 fourier 1	5.913282223828	2	180
14 fourier 1	3.101948770557	2	180
15 fourier 1	-0.4252153282372	1	0
16 fourier 1	2.348375642009	2	180
17 fourier 1	1.256156174911	1	0
18 fourier 1	0.457973137376	1	0
19 fourier 1	1.550515418264	2	180
20 fourier 1	0	1	0
21 fourier 1	0.8283030590042	2	180


Improper Coeffs

1 3.5	-1	2
2 0.3333333333333333	-1	2
3 0.3666666666666667	-1	2


Atoms

1	1	1	-0.56598002	-11.707	-7.0689998	-0.89700001
2	1	2	0.84087801	-12.347	-6.1069999	-0.39399999
3	1	3	-0.49044999	-11.679	-4.9239998	0.059999999
4	1	2	0.265977	-10.252	-4.796	0.192
5	1	2	-0.14318299	-9.6789999	-3.5840001	0.032000002
6	1	2	-0.168874	-8.2189999	-3.4660001	0.17900001
7	1	2	0.712735	-7.3520002	-2.299	0.055
8	1	3	-0.52899897	-5.993	-2.678	0.28799999
9	1	2	0.71617401	-6.0770001	-4.0799999	0.55000001
10	1	2	-0.246446	-7.467	-4.5159998	0.46900001
11	1	2	0.115627	-8.0620003	-5.8439999	0.68400002
12	1	2	-0.37383401	-9.3950005	-5.974	0.56099999
13	1	4	0.214707	-9.8439999	-6.9380002	0.75999999
14	1	4	0.218986	-7.4439998	-6.6880002	0.95999998
15	1	1	-0.52914	-5.0960002	-4.8130002	0.847
16	1	2	0.241033	-4.8179998	-1.85	0.26800001
17	1	2	-0.34619501	-4.855	-0.597	0.75
18	1	2	-0.147708	-3.6440001	0.248	0.73900002
19	1	2	-0.192003	-2.4879999	-0.215	0.222
20	1	2	-0.147708	-2.451	-1.604	-0.308
21	1	2	-0.34619501	-3.5450001	-2.3740001	-0.28
22	1	4	0.20839	-3.5009999	-3.375	-0.68900001
23	1	4	0.21642201	-1.5369999	-2.0050001	-0.727
24	1	2	0.36390701	-1.2539999	0.61299998	0.19499999
25	1	3	-0.70702499	-0.093999997	0.022	0.133
26	1	2	0.36390701	1.151	0.745	0.097000003
27	1	2	-0.192003	2.428	-0.0099999998	0.026000001
28	1	2	-0.147708	2.5179999	-1.239	0.56699997
29	1	2	-0.34619501	3.783	-1.999	0.50099999
30	1	2	0.241033	4.8600001	-1.4809999	-0.113
31	1	2	-0.34619501	4.7620001	-0.134	-0.727
32	1	2	-0.147708	3.619	0.55800003	-0.66299999
33	1	4	0.21642201	3.5699999	1.529	-1.136
34	1	4	0.20839	5.6199999	0.30399999	-1.219
35	1	3	-0.52899897	6.0890002	-2.224	-0.191
36	1	2	0.712735	6.6739998	-3.0829999	0.79299998
37	1	2	-0.168874	7.9450002	-3.6029999	0.30199999
38	1	2	-0.246446	8.1630001	-3.1040001	-0.90399998
39	1	2	0.71617401	7.039	-2.2449999	-1.2589999
40	1	1	-0.52914	6.895	-1.646	-2.358
41	1	2	0.115627	9.3649998	-3.4590001	-1.673
42	1	2	-0.38209099	10.258	-4.2930002	-1.113
43	1	2	0.23897301	10.035	-4.842	0.26699999
44	1	2	-0.142362	8.9060001	-4.5209999	0.93599999
45	1	4	0.22177	8.7069998	-4.9190001	1.923
46	1	3	-0.50352901	10.971	-5.756	0.86500001
47	1	2	0.57747	12.386	-5.724	0.63599998
48	1	1	-0.57274598	12.933	-4.7470002	0.061000001
49	1	5	0.32888299	10.62	-6.4460001	1.569
50	1	4	0.214707	11.127	-4.5879998	-1.686
51	1	4	0.218986	9.5179996	-3.0699999	-2.671
52	1	1	-0.52914	6.1830001	-3.3080001	1.9299999
53	1	4	0.20839	3.816	-2.9909999	0.93099999
54	1	4	0.21642201	1.6720001	-1.689	1.071
55	1	2	-0.33101201	1.13	2.0880001	0.15000001
56	1	2	0.01953	-0.163	2.809	0.206
57	1	2	-0.33101201	-1.304	2.098	0.212
58	1	4	0.209942	-2.2579999	2.609	0.186
59	1	2	-0.123135	-0.18099999	4.2940001	0.227
60	1	2	-0.167348	-1.043	4.9699998	1.011
61	1	2	-0.167348	-1.025	6.4460001	1.051
62	1	2	-0.055427	-0.14300001	7.1409998	0.308
63	1	2	-0.167348	0.80800003	6.3969998	-0.55699998
64	1	2	-0.167348	0.78899997	5.059	-0.597
65	1	4	0.216115	1.488	4.54	-1.2410001
66	1	4	0.216115	1.5369999	6.9310002	-1.154
67	1	2	-0.057445001	-0.11	8.625	0.36000001
68	1	2	-0.162901	0.104	9.3500004	-0.75599998
69	1	2	-0.17572901	0.13600001	10.827	-0.69599998
70	1	2	-0.21737801	-0.045000002	11.456	0.47
71	1	2	-0.17572901	-0.273	10.676	1.7029999
72	1	2	-0.162901	-0.30599999	9.3380003	1.653
73	1	4	0.218256	-0.456	8.7819996	2.569
74	1	4	0.23517799	-0.41100001	11.19	2.645
75	1	4	0.23794299	-0.017999999	12.537	0.51499999
76	1	4	0.23517799	0.30899999	11.397	-1.599
77	1	4	0.218256	0.23	8.8690004	-1.7180001
78	1	4	0.216115	-1.743	6.954	1.683
79	1	4	0.216115	-1.7460001	4.4460001	1.646
80	1	4	0.209942	2.052	2.654	0.184
81	1	4	0.21642201	-3.7130001	1.232	1.179
82	1	4	0.20839	-5.7639999	-0.198	1.182
83	1	1	-0.52914	-7.7259998	-1.138	-0.259
84	1	4	0.22177	-10.271	-2.711	-0.213
85	1	5	0.33297601	-12.274	-4.0809999	0.23199999
86	1	6	-0.43517601	-17.643	-8.4200001	-0.89099997
87	1	2	0.375949	-16.254	-8.4139996	-0.98699999
88	1	2	-0.237973	-15.566	-7.322	-0.62400001
89	1	2	0.375949	-14.089	-7.3049998	-0.722
90	1	6	-0.43517601	-13.392	-6.1599998	-0.34
91	1	2	-0.283571	-13.439	-8.3879995	-1.176
92	1	2	-0.046804	-14.195	-9.5930004	-1.576
93	1	2	-0.283571	-15.531	-9.6070004	-1.487
94	1	4	0.244679	-16.082001	-10.491	-1.781
95	1	4	0.241559	-13.666	-10.464	-1.942
96	1	4	0.244679	-12.359	-8.3889999	-1.253
97	1	4	0.242373	-16.087999	-6.447	-0.25799999
98	1	1	-0.56598002	-8.4119997	-31.106001	-4.5760002
99	1	2	0.84087801	-8.9799995	-32.063999	-3.9849999
100	1	3	-0.49044999	-10.235	-31.888	-3.3180001
101	1	2	0.265977	-10.852	-30.613001	-3.069
102	1	2	-0.14318299	-12.199	-30.530001	-3.01
103	1	2	-0.168874	-12.818	-29.221001	-2.7449999
104	1	2	0.712735	-14.224	-28.849001	-2.6370001
105	1	3	-0.52899897	-14.335	-27.448999	-2.3659999
106	1	2	0.71617401	-12.977	-27.009001	-2.3169999
107	1	2	-0.246446	-12.082	-28.136	-2.5580001
108	1	2	0.115627	-10.613	-28.197001	-2.5799999
109	1	2	-0.37383401	-10.026	-29.384001	-2.8150001
110	1	4	0.214707	-8.9469995	-29.444	-2.79
111	1	4	0.218986	-10.02	-27.312	-2.3870001
112	1	1	-0.52914	-12.615	-25.829	-2.0610001
113	1	2	0.241033	-15.527	-26.666	-2.1830001
114	1	2	-0.34619501	-16.584999	-27.172001	-1.529
115	1	2	-0.147708	-17.804001	-26.362	-1.332
116	1	2	-0.192003	-17.885	-25.111	-1.8279999
117	1	2	-0.147708	-16.709999	-24.554001	-2.549
118	1	2	-0.34619501	-15.6	-25.284	-2.711
119	1	4	0.20839	-14.764	-24.865999	-3.256
120	1	4	0.21642201	-16.743999	-23.552	-2.9560001
121	1	2	0.36390701	-19.099001	-24.273001	-1.647
122	1	3	-0.70702499	-18.992001	-22.976	-1.712
123	1	2	0.36390701	-20.115	-22.089001	-1.5549999
124	1	2	-0.192003	-19.900999	-20.622	-1.6440001
125	1	2	-0.147708	-18.719999	-20.087999	-1.283
126	1	2	-0.34619501	-18.496	-18.629999	-1.368
127	1	2	0.241033	-19.462999	-17.816	-1.823
128	1	2	-0.34619501	-20.76	-18.400999	-2.2409999
129	1	2	-0.147708	-20.966999	-19.719999	-2.158
130	1	4	0.21642201	-21.916	-20.121	-2.4879999
131	1	4	0.20839	-21.555	-17.761999	-2.6029999
132	1	3	-0.52899897	-19.243	-16.398001	-1.921
133	1	2	0.712735	-18.511	-15.547	-1.034
134	1	2	-0.168874	-18.577	-14.168	-1.5039999
135	1	2	-0.246446	-19.308001	-14.137	-2.6059999
136	1	2	0.71617401	-19.743	-15.496	-2.911
137	1	1	-0.52914	-20.416	-15.84	-3.9189999
138	1	2	0.115627	-19.546	-12.88	-3.3310001
139	1	2	-0.37383401	-19.017	-11.748	-2.8369999
140	1	2	0.265977	-18.209999	-11.767	-1.5700001
141	1	2	-0.14318299	-17.985001	-12.942	-0.94300002
142	1	4	0.22177	-17.388	-12.991	-0.039999999
143	1	3	-0.49044999	-17.618999	-10.565	-1.046
144	1	2	0.84087801	-18.202	-9.2609997	-1.168
145	1	1	-0.56598002	-19.389999	-9.1099997	-1.556
146	1	5	0.33297601	-16.743999	-10.643	-0.47600001
147	1	4	0.214707	-19.156	-10.825	-3.3840001
148	1	4	0.218986	-20.118999	-12.871	-4.25
149	1	1	-0.52914	-17.943001	-15.932	0.021
150	1	4	0.20839	-17.528999	-18.236	-1.085
151	1	4	0.21642201	-17.917	-20.712	-0.91000003
152	1	2	-0.33101201	-21.33	-22.608	-1.3099999
153	1	2	0.01953	-21.509001	-24.077999	-1.242
154	1	2	-0.33101201	-20.440001	-24.872999	-1.419
155	1	4	0.209942	-20.563999	-25.947001	-1.437
156	1	2	-0.123135	-22.861	-24.646	-1.006
157	1	2	-0.167348	-23.040001	-25.707001	-0.19599999
158	1	2	-0.167348	-24.393999	-26.24	0.059
159	1	2	-0.055427	-25.472	-25.671	-0.51099998
160	1	2	-0.167348	-25.277	-24.500999	-1.406
161	1	2	-0.167348	-24.049999	-24.021	-1.64
162	1	4	0.216115	-23.933001	-23.172001	-2.302
163	1	4	0.216115	-26.128	-24.017	-1.867
164	1	2	-0.057445001	-26.837	-26.193001	-0.242
165	1	2	-0.162901	-27.759001	-26.250999	-1.224
166	1	2	-0.17572901	-29.115	-26.771	-0.94800001
167	1	2	-0.21737801	-29.438999	-27.187	0.28099999
168	1	2	-0.17572901	-28.441999	-27.122999	1.368
169	1	2	-0.162901	-27.212	-26.655001	1.123
170	1	4	0.218256	-26.499001	-26.598	1.936
171	1	4	0.23517799	-28.712	-27.452999	2.3629999
172	1	4	0.23794299	-30.433001	-27.565001	0.48300001
173	1	4	0.23517799	-29.847	-26.812	-1.745
174	1	4	0.218256	-27.518	-25.944	-2.234
175	1	4	0.216115	-24.495001	-27.103001	0.70499998
176	1	4	0.216115	-22.201	-26.173	0.30599999
177	1	4	0.209942	-22.181	-21.964001	-1.1289999
178	1	4	0.21642201	-18.611	-26.798	-0.75999999
179	1	4	0.20839	-16.549	-28.169001	-1.109
180	1	1	-0.52914	-15.202	-29.624001	-2.806
181	1	4	0.22177	-12.822	-31.402	-3.1670001
182	1	5	0.33297601	-10.763	-32.757	-3.069
183	1	6	-0.43517601	-5.0040002	-36.112999	-5.184
184	1	2	0.375949	-5.5320001	-34.825001	-5.1799998
185	1	2	-0.237973	-6.7259998	-34.596001	-4.6149998
186	1	2	0.375949	-7.2979999	-33.230999	-4.605
187	1	6	-0.43517601	-8.54	-33.014999	-4.013
188	1	2	-0.283571	-6.6149998	-32.219002	-5.164
189	1	2	-0.046804	-5.2979999	-32.469002	-5.7870002
190	1	2	-0.283571	-4.783	-33.703999	-5.7950001
191	1	4	0.244679	-3.8180001	-33.883999	-6.2519999
192	1	4	0.241559	-4.7519999	-31.649	-6.2360001
193	1	4	0.244679	-7.0209999	-31.215	-5.164
194	1	4	0.242373	-7.2789998	-35.410999	-4.164
195	1	1	-0.56598002	11.832	-19.063999	-11.456
196	1	2	0.84087801	13.012	-19.242001	-11.052
197	1	3	-0.49044999	13.418	-20.481001	-10.457
198	1	2	0.265977	12.514	-21.531	-10.07
199	1	2	-0.14318299	12.939	-22.812	-10.095
200	1	2	-0.168874	12.007	-23.875999	-9.6870003
201	1	2	0.712735	12.197	-25.322001	-9.6260004
202	1	3	-0.52899897	10.998	-25.948	-9.1639996
203	1	2	0.71617401	10.106	-24.851999	-8.9560003
204	1	2	-0.246446	10.774	-23.599001	-9.2939997
205	1	2	0.115627	10.289	-22.212999	-9.2200003
206	1	2	-0.37383401	11.126	-21.224001	-9.5830002
207	1	4	0.214707	10.791	-20.200001	-9.4899998
208	1	4	0.218986	9.2930002	-21.993999	-8.8599997
209	1	1	-0.52914	8.934	-24.958	-8.5059996
210	1	2	0.241033	10.745	-27.348	-8.9540005
211	1	2	-0.34619501	11.701	-28.149	-8.4560003
212	1	2	-0.147708	11.435	-29.584999	-8.2299995
213	1	2	-0.192003	10.238	-30.118999	-8.5439997
214	1	2	-0.147708	9.1820002	-29.226999	-9.092
215	1	2	-0.34619501	9.4200001	-27.923	-9.2790003
216	1	4	0.20839	8.6429996	-27.297001	-9.698
217	1	4	0.21642201	8.21	-29.627001	-9.3509998
218	1	2	0.36390701	9.9429998	-31.559999	-8.3299999
219	1	3	-0.70702499	8.7030001	-31.941999	-8.198
220	1	2	0.36390701	8.3249998	-33.316002	-7.9949999
221	1	2	-0.192003	6.888	-33.660999	-7.8540001
222	1	2	-0.147708	6.0250001	-32.768002	-7.3369999
223	1	2	-0.34619501	4.592	-33.102001	-7.1939998
224	1	2	0.241033	4.1259999	-34.297001	-7.5939999
225	1	2	-0.34619501	5.0689998	-35.278	-8.1820002
226	1	2	-0.147708	6.368	-34.980999	-8.3059998
227	1	4	0.21642201	7.0289998	-35.709	-8.757
228	1	4	0.20839	4.7160001	-36.249001	-8.5030003
229	1	3	-0.52899897	2.73	-34.618999	-7.4699998
230	1	2	0.712735	1.825	-34.266998	-6.4190001
231	1	2	-0.168874	0.509	-34.834999	-6.6869998
232	1	2	-0.246446	0.57099998	-35.512001	-7.823
233	1	2	0.71617401	1.927	-35.407001	-8.3509998
234	1	1	-0.52914	2.326	-35.891998	-9.4429998
235	1	2	0.115627	-0.611	-36.192001	-8.3730001
236	1	2	-0.37383401	-1.763	-36.127998	-7.6830001
237	1	2	0.265977	-1.837	-35.387001	-6.3790002
238	1	2	-0.14318299	-0.741	-34.748001	-5.915
239	1	4	0.22177	-0.76899999	-34.187	-4.9889998
240	1	3	-0.49044999	-3.0710001	-35.291	-5.6459999
241	1	2	0.84087801	-4.073	-36.314999	-5.619
242	1	1	-0.56598002	-3.839	-37.470001	-6.0630002
243	1	5	0.33297601	-3.227	-34.457001	-5.033
244	1	4	0.214707	-2.6459999	-36.594002	-8.099
245	1	4	0.218986	-0.55800003	-36.716	-9.3179998
246	1	1	-0.52914	2.1400001	-33.608002	-5.3930001
247	1	4	0.20839	3.924	-32.354	-6.79
248	1	4	0.21642201	6.3639998	-31.796	-7.0029998
249	1	2	-0.33101201	9.2849998	-34.254002	-7.9130001
250	1	2	0.01953	10.709	-33.874001	-8.0710001
251	1	2	-0.33101201	11.019	-32.584	-8.2860003
252	1	4	0.209942	12.046	-32.299999	-8.4689999
253	1	2	-0.123135	11.762	-34.919998	-8.0170002
254	1	2	-0.167348	12.93	-34.701	-7.3839998
255	1	2	-0.167348	13.954	-35.763	-7.3049998
256	1	2	-0.055427	13.735	-36.969002	-7.8610001
257	1	2	-0.167348	12.447	-37.212002	-8.5609999
258	1	2	-0.167348	11.521	-36.248001	-8.6359997
259	1	4	0.216115	10.594	-36.448002	-9.158
260	1	4	0.216115	12.24	-38.176998	-9.0050001
261	1	2	-0.057445001	14.756	-38.043999	-7.7680001
262	1	2	-0.162901	14.988	-38.867001	-8.809
263	1	2	-0.17572901	16.004	-39.936001	-8.7089996
264	1	2	-0.21737801	16.701	-40.096001	-7.579
265	1	2	-0.17572901	16.454	-39.207001	-6.4260001
266	1	2	-0.162901	15.536	-38.236	-6.513
267	1	4	0.218256	15.354	-37.605999	-5.6529999
268	1	4	0.23517799	17.014999	-39.346001	-5.5110002
269	1	4	0.23794299	17.444	-40.880001	-7.5040002
270	1	4	0.23517799	16.181999	-40.59	-9.5530005
271	1	4	0.218256	14.456	-38.745998	-9.7449999
272	1	4	0.216115	14.887	-35.543999	-6.7989998
273	1	4	0.216115	13.131	-33.755001	-6.8959999
274	1	4	0.209942	9.0340004	-35.285	-7.7010002
275	1	4	0.21642201	12.221	-30.177999	-7.7849998
276	1	4	0.20839	12.669	-27.75	-8.1829996
277	1	1	-0.52914	13.239	-25.938	-9.974
278	1	4	0.22177	13.941	-23.063999	-10.42
279	1	5	0.33297601	14.447	-20.650999	-10.374
280	1	6	-0.43517601	15.08	-14.032	-12.541
281	1	2	0.375949	14.092	-15.001	-12.388
282	1	2	-0.237973	14.41	-16.201	-11.882
283	1	2	0.375949	13.369	-17.239	-11.714
284	1	6	-0.43517601	13.719	-18.48	-11.186
285	1	2	-0.283571	12.101	-16.975	-12.071
286	1	2	-0.046804	11.749	-15.653	-12.629
287	1	2	-0.283571	12.693	-14.715	-12.78
288	1	4	0.244679	12.431	-13.748	-13.189
289	1	4	0.241559	10.726	-15.445	-12.916
290	1	4	0.244679	11.329	-17.725	-11.954
291	1	4	0.242373	15.431	-16.416	-11.593
292	1	1	-0.56598002	-7.711	-4.671	-15.074
293	1	2	0.84087801	-7.914	-3.5150001	-14.617
294	1	3	-0.49044999	-6.8309999	-2.6849999	-14.181
295	1	2	0.265977	-5.4759998	-3.138	-14.015
296	1	2	-0.14318299	-4.46	-2.266	-14.195
297	1	2	-0.168874	-3.079	-2.74	-14.013
298	1	2	0.712735	-1.813	-2.027	-14.149
299	1	3	-0.52899897	-0.72600001	-2.9130001	-13.868
300	1	2	0.71617401	-1.372	-4.151	-13.566
301	1	2	-0.246446	-2.819	-3.993	-13.671
302	1	2	0.115627	-3.901	-4.9590001	-13.432
303	1	2	-0.37383401	-5.1719999	-4.546	-13.588
304	1	4	0.214707	-5.974	-5.2389998	-13.372
305	1	4	0.218986	-3.6800001	-5.9699998	-13.115
306	1	1	-0.52914	-0.77399999	-5.2049999	-13.221
307	1	2	0.241033	0.68300003	-2.6289999	-13.881
308	1	2	-0.34619501	1.149	-1.45	-13.439
309	1	2	-0.147708	2.598	-1.165	-13.442
310	1	2	-0.192003	3.4760001	-2.0739999	-13.914
311	1	2	-0.147708	2.9560001	-3.3800001	-14.4
312	1	2	-0.34619501	1.643	-3.642	-14.379
313	1	4	0.20839	1.285	-4.5900002	-14.757
314	1	4	0.21642201	3.635	-4.1300001	-14.782
315	1	2	0.36390701	4.9390001	-1.8150001	-13.932
316	1	3	-0.70702499	5.763	-2.825	-13.945
317	1	2	0.36390701	7.1939998	-2.6670001	-13.97
318	1	2	-0.192003	8.0579996	-3.8740001	-13.983
319	1	2	-0.147708	7.638	-5.0139999	-13.404
320	1	2	-0.34619501	8.4899998	-6.2210002	-13.412
321	1	2	0.241033	9.6920004	-6.204	-14.013
322	1	2	-0.34619501	10.153	-4.9569998	-14.669
323	1	2	-0.147708	9.3850002	-3.8610001	-14.657
324	1	4	0.21642201	9.7390003	-2.971	-15.16
325	1	4	0.20839	11.12	-4.9200001	-15.151
326	1	3	-0.52899897	10.517	-7.382	-14.035
327	1	2	0.712735	10.693	-8.3649998	-13.011
328	1	2	-0.168874	11.653	-9.3719997	-13.451
329	1	2	-0.246446	12.068	-9.0489998	-14.666
330	1	2	0.71617401	11.391	-7.8239999	-15.076
331	1	1	-0.52914	11.515	-7.2600002	-16.195999
332	1	2	0.115627	13.035	-9.8879995	-15.39
333	1	2	-0.37383401	13.508	-10.989	-14.782
334	1	2	0.265977	13.065	-11.348	-13.392
335	1	2	-0.14318299	12.154	-10.574	-12.764
336	1	4	0.22177	11.798	-10.82	-11.771
337	1	3	-0.49044999	13.546	-12.538	-12.742
338	1	2	0.84087801	14.855	-13.087	-12.935
339	1	1	-0.56598002	15.757	-12.436	-13.524
340	1	5	0.33297601	12.937	-13	-12.027
341	1	4	0.214707	14.191	-11.63	-15.322
342	1	4	0.218986	13.344	-9.632	-16.396
343	1	1	-0.52914	10.139	-8.3299999	-11.881
344	1	4	0.20839	8.1140003	-7.1240001	-12.952
345	1	4	0.21642201	6.6760001	-5.0650001	-12.909
346	1	2	-0.33101201	7.7160001	-1.428	-13.958
347	1	2	0.01953	6.823	-0.24600001	-13.958
348	1	2	-0.33101201	5.4920001	-0.43599999	-13.961
349	1	4	0.209942	4.8260002	0.41499999	-14.028
350	1	2	-0.123135	7.4060001	1.12	-13.982
351	1	2	-0.167348	6.8800001	2.1159999	-13.243
352	1	2	-0.167348	7.4920001	3.46	-13.247
353	1	2	-0.055427	8.5880003	3.7119999	-13.985
354	1	2	-0.167348	9.1689997	2.615	-14.802
355	1	2	-0.167348	8.6120005	1.398	-14.802
356	1	4	0.216115	9.0500002	0.61699998	-15.411
357	1	4	0.216115	10.058	2.7869999	-15.395
358	1	2	-0.057445001	9.2159996	5.0580001	-13.977
359	1	2	-0.162901	9.7189999	5.592	-15.108
360	1	2	-0.17572901	10.343	6.9310002	-15.092
361	1	2	-0.21737801	10.417	7.625	-13.951
362	1	2	-0.17572901	9.8780003	7.0500002	-12.702
363	1	2	-0.162901	9.309	5.8379998	-12.712
364	1	4	0.218256	8.9359999	5.4250002	-11.784
365	1	4	0.23517799	9.9469995	7.612	-11.779
366	1	4	0.23794299	10.877	8.6040001	-13.938
367	1	4	0.23517799	10.742	7.349	-16.007
368	1	4	0.218256	9.651	5.0640001	-16.052
369	1	4	0.216115	7.0310001	4.2379999	-12.65
370	1	4	0.216115	6.0170002	1.9450001	-12.611
371	1	4	0.209942	8.7869997	-1.28	-13.916
372	1	4	0.21642201	2.927	-0.22	-13.034
373	1	4	0.20839	0.47299999	-0.70200002	-13.043
374	1	1	-0.52914	-1.684	-0.82700002	-14.508
375	1	4	0.22177	-4.6469998	-1.239	-14.482
376	1	5	0.33297601	-7.0380001	-1.6670001	-14.051
377	1	6	-0.43517601	-13.686	-3.516	-15.187
378	1	2	0.375949	-12.412	-4.0739999	-15.245
379	1	2	-0.237973	-11.347	-3.339	-14.897
380	1	2	0.375949	-9.9879999	-3.921	-14.956
381	1	6	-0.43517601	-8.8929996	-3.1400001	-14.59
382	1	2	-0.283571	-9.8240004	-5.191	-15.359
383	1	2	-0.046804	-10.997	-6.0040002	-15.744
384	1	2	-0.283571	-12.226	-5.4749999	-15.69
385	1	4	0.244679	-13.083	-6.073	-15.972
386	1	4	0.241559	-10.86	-7.027	-16.068001
387	1	4	0.244679	-8.835	-5.6300001	-15.407
388	1	4	0.242373	-11.476	-2.3139999	-14.572
389	1	1	-0.56598002	-14.349	-28.122	-17.938
390	1	2	0.84087801	-15.262	-28.746	-17.334
391	1	3	-0.49044999	-16.348	-28.054001	-16.707001
392	1	2	0.265977	-16.400999	-26.629999	-16.513
393	1	2	-0.14318299	-17.601	-26.01	-16.493
394	1	2	-0.168874	-17.642	-24.552999	-16.284
395	1	2	0.712735	-18.780001	-23.642	-16.225
396	1	3	-0.52899897	-18.32	-22.306999	-16
397	1	2	0.71617401	-16.9	-22.448999	-15.927
398	1	2	-0.246446	-16.533001	-23.85	-16.110001
399	1	2	0.115627	-15.213	-24.497999	-16.09
400	1	2	-0.37383401	-15.153	-25.829	-16.274
401	1	4	0.214707	-14.19	-26.318001	-16.216999
402	1	4	0.218986	-14.317	-23.92	-15.908
403	1	1	-0.52914	-16.097	-21.506001	-15.697
404	1	2	0.241033	-19.097	-21.104	-15.872
405	1	2	-0.34619501	-20.277	-21.115999	-15.232
406	1	2	-0.147708	-21.068001	-19.875999	-15.092
407	1	2	-0.192003	-20.631001	-18.718	-15.627
408	1	2	-0.147708	-19.322001	-18.709	-16.333
409	1	2	-0.34619501	-18.599001	-19.830999	-16.443001
410	1	4	0.20839	-17.659	-19.806	-16.978001
411	1	4	0.21642201	-18.944	-17.795	-16.771
412	1	2	0.36390701	-21.406	-17.455999	-15.505
413	1	3	-0.70702499	-20.783001	-16.316	-15.606
414	1	2	0.36390701	-21.455	-15.046	-15.506
415	1	2	-0.192003	-20.666	-13.794	-15.633
416	1	2	-0.147708	-19.375	-13.768	-15.256
417	1	2	-0.34619501	-18.58	-12.528	-15.379
418	1	2	0.241033	-19.131001	-11.411	-15.885
419	1	2	-0.34619501	-20.549	-11.44	-16.319
420	1	2	-0.147708	-21.271	-12.56	-16.202
421	1	4	0.21642201	-22.297001	-12.556	-16.545
422	1	4	0.20839	-21.013	-10.549	-16.722
423	1	3	-0.52899897	-18.357	-10.207	-16.018999
424	1	2	0.712735	-17.355	-9.6899996	-15.138
425	1	2	-0.168874	-16.853001	-8.4189997	-15.651
426	1	2	-0.246446	-17.496	-8.1389999	-16.774
427	1	2	0.71617401	-18.438	-9.2189999	-17.049
428	1	1	-0.52914	-19.179001	-9.3009996	-18.063999
429	1	2	0.115627	-17.195999	-6.9219999	-17.542
430	1	2	-0.37383401	-16.261999	-6.0809999	-17.068001
431	1	2	0.265977	-15.548	-6.3740001	-15.78
432	1	2	-0.14318299	-15.823	-7.5159998	-15.112
433	1	4	0.22177	-15.308	-7.7659998	-14.192
434	1	3	-0.49044999	-14.528	-5.493	-15.277
435	1	2	0.84087801	-14.534	-4.0710001	-15.454
436	1	1	-0.56598002	-15.555	-3.4690001	-15.877
437	1	5	0.33297601	-13.767	-5.895	-14.681
438	1	4	0.214707	-16.01	-5.2020001	-17.646
439	1	4	0.218986	-17.705999	-6.7179999	-18.475
440	1	1	-0.52914	-17.003	-10.23	-14.057
441	1	4	0.20839	-17.541	-12.546	-15.082
442	1	4	0.21642201	-18.896999	-14.647	-14.843
443	1	2	-0.33101201	-22.778999	-15.022	-15.278
444	1	2	0.01953	-23.537001	-16.291	-15.17
445	1	2	-0.33101201	-22.877001	-17.455999	-15.295
446	1	4	0.209942	-23.424999	-18.389	-15.284
447	1	2	-0.123135	-25.007	-16.257999	-14.954
448	1	2	-0.167348	-25.608	-17.125	-14.118
449	1	2	-0.167348	-27.065001	-17.056999	-13.884
450	1	2	-0.055427	-27.815001	-16.124001	-14.499
451	1	2	-0.167348	-27.153	-15.167	-15.423
452	1	2	-0.167348	-25.834	-15.232	-15.639
453	1	4	0.216115	-25.375999	-14.528	-16.322001
454	1	4	0.216115	-27.731001	-14.399	-15.921
455	1	2	-0.057445001	-29.278	-16.041	-14.252
456	1	2	-0.162901	-30.132	-15.76	-15.255
457	1	2	-0.17572901	-31.586	-15.679	-15.001
458	1	2	-0.21737801	-32.066002	-15.882	-13.769
459	1	2	-0.17572901	-31.142	-16.183001	-12.658
460	1	2	-0.162901	-29.823999	-16.261	-12.884
461	1	4	0.218256	-29.159	-16.464001	-12.054
462	1	4	0.23517799	-31.534	-16.339001	-11.661
463	1	4	0.23794299	-33.130001	-15.82	-13.582
464	1	4	0.23517799	-32.262001	-15.453	-15.815
465	1	4	0.218256	-29.775999	-15.616	-16.268
466	1	4	0.216115	-27.514	-17.780001	-13.214
467	1	4	0.216115	-25.035	-17.868999	-13.58
468	1	4	0.209942	-23.299999	-14.083	-15.14
469	1	4	0.21642201	-21.989	-19.927999	-14.529
470	1	4	0.20839	-20.652	-22.025	-14.781
471	1	1	-0.52914	-19.985001	-23.964001	-16.396999
472	1	4	0.22177	-18.52	-26.562	-16.641001
473	1	5	0.33297601	-17.184999	-28.625999	-16.445999
474	1	6	-0.43517601	-13.243	-34.096001	-18.302999
475	1	2	0.375949	-13.207	-32.706001	-18.351999
476	1	2	-0.237973	-14.214	-31.993999	-17.827
477	1	2	0.375949	-14.186	-30.514999	-17.872999
478	1	6	-0.43517601	-15.243	-29.794001	-17.322001
479	1	2	-0.283571	-13.146	-29.886	-18.444
480	1	2	-0.046804	-12.034	-30.669001	-19.023001
481	1	2	-0.283571	-12.062	-32.006001	-18.981001
482	1	4	0.244679	-11.246	-32.577	-19.406
483	1	4	0.241559	-11.198	-30.157	-19.482
484	1	4	0.244679	-13.112	-28.805	-18.485001
485	1	4	0.242373	-15.054	-32.499001	-17.365999
486	1	1	-0.56598002	9.1169996	-25.528	-24.629999
487	1	2	0.84087801	10.12	-26.15	-24.188999
488	1	3	-0.49044999	9.9840002	-27.423	-23.546
489	1	2	0.265977	8.7290001	-28.004	-23.152
490	1	2	-0.14318299	8.6009998	-29.349001	-23.127001
491	1	2	-0.168874	7.3140001	-29.931	-22.712999
492	1	2	0.712735	6.9039998	-31.327	-22.604
493	1	3	-0.52899897	5.5479999	-31.399	-22.155001
494	1	2	0.71617401	5.1719999	-30.028999	-22.004
495	1	2	-0.246446	6.2930002	-29.165001	-22.361
496	1	2	0.115627	6.408	-27.698999	-22.343
497	1	2	-0.37383401	7.5770001	-27.146	-22.712
498	1	4	0.214707	7.6820002	-26.070999	-22.66
499	1	4	0.218986	5.5799999	-27.084	-22.016001
500	1	1	-0.52914	4.0500002	-29.636999	-21.583
501	1	2	0.241033	4.7490001	-32.569	-21.91
502	1	2	-0.34619501	5.2940001	-33.667999	-21.363001
503	1	2	-0.147708	4.4689999	-34.865002	-21.101
504	1	2	-0.192003	3.1619999	-34.883999	-21.431
505	1	2	-0.147708	2.562	-33.662998	-22.034
506	1	2	-0.34619501	3.3080001	-32.574001	-22.253
507	1	4	0.20839	2.8559999	-31.704	-22.712
508	1	4	0.21642201	1.515	-33.646999	-22.306
509	1	2	0.36390701	2.3080001	-36.074001	-21.181
510	1	3	-0.70702499	1.018	-35.918999	-21.072001
511	1	2	0.36390701	0.115	-37.014999	-20.837
512	1	2	-0.192003	-1.341	-36.747002	-20.725
513	1	2	-0.147708	-1.777	-35.563	-20.257999
514	1	2	-0.34619501	-3.223	-35.285	-20.143999
515	1	2	0.241033	-4.1269999	-36.206001	-20.52
516	1	2	-0.34619501	-3.6530001	-37.506001	-21.052999
517	1	2	-0.147708	-2.3429999	-37.761002	-21.150999
518	1	4	0.21642201	-2.027	-38.710999	-21.561001
519	1	4	0.20839	-4.3639998	-38.264	-21.354
520	1	3	-0.52899897	-5.5359998	-35.932999	-20.424
521	1	2	0.712735	-6.2350001	-35.206001	-19.409
522	1	2	-0.168874	-7.665	-35.207001	-19.695
523	1	2	-0.246446	-7.868	-35.894001	-20.808001
524	1	2	0.71617401	-6.5780001	-36.363998	-21.302999
525	1	1	-0.52914	-6.395	-37.009998	-22.368
526	1	2	0.115627	-9.2159996	-36.060001	-21.368999
527	1	2	-0.37383401	-10.253	-35.511002	-20.712999
528	1	2	0.265977	-10.038	-34.754002	-19.434
529	1	2	-0.14318299	-8.783	-34.592999	-18.959999
530	1	4	0.22177	-8.5939999	-34.033001	-18.052
531	1	3	-0.49044999	-11.137	-34.140999	-18.738001
532	1	2	0.84087801	-12.468	-34.673	-18.707001
533	1	1	-0.56598002	-12.715	-35.84	-19.110001
534	1	5	0.33297601	-10.951	-33.292	-18.155001
535	1	4	0.214707	-11.244	-35.598	-21.138
536	1	4	0.218986	-9.3669996	-36.598	-22.296
537	1	1	-0.52914	-5.6939998	-34.691002	-18.395
538	1	4	0.20839	-3.539	-34.317001	-19.780001
539	1	4	0.21642201	-1.0779999	-34.797001	-19.945
540	1	2	-0.33101201	0.61400002	-38.256001	-20.702
541	1	2	0.01953	2.072	-38.488998	-20.833
542	1	2	-0.33101201	2.878	-37.442001	-21.077999
543	1	4	0.209942	3.9360001	-37.603001	-21.240999
544	1	2	-0.123135	2.6129999	-39.868	-20.719
545	1	2	-0.167348	3.7620001	-40.113998	-20.061001
546	1	2	-0.167348	4.2690001	-41.493999	-19.923
547	1	2	-0.055427	3.589	-42.529999	-20.448
548	1	2	-0.167348	2.322	-42.259998	-21.174999
549	1	2	-0.167348	1.864	-41.008999	-21.304001
550	1	4	0.216115	0.94199997	-40.838001	-21.844
551	1	4	0.216115	1.748	-43.076	-21.594999
552	1	2	-0.057445001	4.0879998	-43.921001	-20.295
553	1	2	-0.162901	3.9809999	-44.806999	-21.305
554	1	2	-0.17572901	4.4790001	-46.188999	-21.145
555	1	2	-0.21737801	5.0380001	-46.573002	-19.992001
556	1	2	-0.17572901	5.1550002	-45.617001	-18.874001
557	1	2	-0.162901	4.7080002	-44.362	-19.014999
558	1	4	0.218256	4.7849998	-43.679001	-18.179001
559	1	4	0.23517799	5.6009998	-45.935001	-17.940001
560	1	4	0.23794299	5.4000001	-47.587002	-19.874001
561	1	4	0.23517799	4.3870001	-46.890999	-21.964001
562	1	4	0.218256	3.5550001	-44.518002	-22.257999
563	1	4	0.216115	5.204	-41.648998	-19.399
564	1	4	0.216115	4.3210001	-39.311001	-19.597
565	1	4	0.209942	-0.034000002	-39.09	-20.466
566	1	4	0.21642201	4.9429998	-35.707001	-20.618
567	1	4	0.20839	6.3379998	-33.681999	-21.076
568	1	1	-0.52914	7.612	-32.324001	-22.903999
569	1	4	0.22177	9.4200001	-29.995001	-23.417999
570	1	5	0.33297601	10.856	-27.99	-23.431
571	1	6	-0.43517601	14.133	-22.275	-25.778
572	1	2	0.375949	12.836	-22.757999	-25.622
573	1	2	-0.237973	12.636	-23.964001	-25.072001
574	1	2	0.375949	11.263	-24.487	-24.902
575	1	6	-0.43517601	11.076	-25.743	-24.327
576	1	2	-0.283571	10.214	-23.749001	-25.299999
577	1	2	-0.046804	10.432	-22.419001	-25.907
578	1	2	-0.283571	11.676	-21.948	-26.061001
579	1	4	0.244679	11.832	-20.973	-26.506001
580	1	4	0.241559	9.5839996	-21.827999	-26.226999
581	1	4	0.244679	9.2040005	-24.120001	-25.181999
582	1	4	0.242373	13.48	-24.561001	-24.75
583	1	1	-0.56598002	-2.9100001	-4.6329999	-29.204
584	1	2	0.84087801	-2.635	-3.4760001	-28.788
585	1	3	-0.49044999	-1.3150001	-3.1359999	-28.348
586	1	2	0.265977	-0.25999999	-4.0900002	-28.131001
587	1	2	-0.14318299	1.023	-3.7090001	-28.311001
588	1	2	-0.168874	2.0940001	-4.691	-28.077
589	1	2	0.712735	3.5409999	-4.5539999	-28.200001
590	1	3	-0.52899897	4.1750002	-5.7909999	-27.863001
591	1	2	0.71617401	3.0810001	-6.652	-27.542
592	1	2	-0.246446	1.822	-5.928	-27.691
593	1	2	0.115627	0.43900001	-6.3670001	-27.452
594	1	2	-0.37383401	-0.55500001	-5.4840002	-27.653999
595	1	4	0.214707	-1.571	-5.7859998	-27.438999
596	1	4	0.218986	0.23	-7.368	-27.099001
597	1	1	-0.52914	3.198	-7.8429999	-27.149
598	1	2	0.241033	5.579	-6.0999999	-27.847
599	1	2	-0.34619501	6.4749999	-5.1919999	-27.427999
600	1	2	-0.147708	7.9159999	-5.5159998	-27.400999
601	1	2	-0.192003	8.3579998	-6.7179999	-27.822001
602	1	2	-0.147708	7.362	-7.7220001	-28.282
603	1	2	-0.34619501	6.0549998	-7.4320002	-28.289
604	1	4	0.20839	5.349	-8.1700001	-28.646999
605	1	4	0.21642201	7.6849999	-8.6969995	-28.622999
606	1	2	0.36390701	9.802	-7.072	-27.808001
607	1	3	-0.70702499	10.148	-8.3280001	-27.768999
608	1	2	0.36390701	11.521	-8.7609997	-27.76
609	1	2	-0.192003	11.825	-10.213	-27.712999
610	1	2	-0.147708	10.974	-11.064	-27.112
611	1	2	-0.34619501	11.266	-12.511	-27.061001