Title

243 atoms
260 bonds
435 angles
673 dihedrals
330 impropers

11 atom types
15 bond types
9 angle types
21 dihedral types
3 improper types
-17.81999969 82.18000031 xlo xhi
-17.54100037 82.45899963 ylo yhi
-10.87699986 89.12300014 zlo zhi
0.0 0.0 0.0 xy xz yz

Masses

1	14.00672
2	12.01078
3	1.007947
4	15.99943
5	12.01078
6	1.007947
7	1.007947
8	18.998403
9	15.99943
10	15.99943
11	1.007947


Pair Coeffs

1	0.16769152	3.206876
2	0.086879315	3.4806469
3	0.015611343	2.5725815
4	0.16846514	3.0251065
5	0.10884061	3.3795318
6	0.015779483	2.6445434
7	0.014090815	1.1034277
8	0.061	3.1181455
9	0.2102061	3.0398122
10	0.20947353	2.99716
11	1.2326e-05	0.53453923

Bond Coeffs

1 harmonic	390.03554688505	1.390160554689
2 harmonic	505.144496193	1.019481865027
3 harmonic	422.7150220147	1.421786517481
4 harmonic	360.7852444772	1.387193227181
5 harmonic	397.2545789619	1.085358495916
6 harmonic	279.1350963404	1.454628925034
7 harmonic	425.69104206635	1.362945806494
8 harmonic	289.73813263395	1.498646816465
9 harmonic	264.62148576755	1.52190126495
10 harmonic	370.04670688625	1.093899492634
11 harmonic	492.76746816345	1.381897776683
12 harmonic	340.45121009905	1.358690858053
13 harmonic	582.698766451	1.225198386222
14 harmonic	385.7604595587	1.369745182308
15 harmonic	543.5267831885	0.9716763312559


Angle Coeffs

1 harmonic	57.8982893754	126.8062420451
2 harmonic	55.42182150775	117.3465570514
3 harmonic	63.44422595415	115.5071327674
4 harmonic	34.066775159195	129.1835929926
5 harmonic	65.09061609600001	110.3538806181
6 harmonic	53.20531626545	116.5475862634
7 harmonic	14.32262199324	138.3184368373
8 harmonic	48.776492647595	115.6030999533
9 harmonic	201.41175231035	127.4691416191


Dihedral Coeffs

1 fourier 1	3.661930099076	2	180
2 fourier 1	1.193093382682	2	180
3 fourier 1	0.02021088501612	1	0
4 fourier 1	1.163235555439	2	180
5 fourier 1	1.532232714475	2	180
6 fourier 1	0.02664938770063	3	0
7 fourier 1	0.1155372516788	3	0
8 fourier 1	0.09223874044423	3	0
9 fourier 1	0.3159935921949	2	180
10 fourier 1	0.3247796806857	1	180
11 fourier 1	0.1040663847541	3	0
12 fourier 1	3.101948770557	2	180
13 fourier 1	-0.4252153282372	1	0
14 fourier 1	1.809047390003	2	180
15 fourier 1	-0.04816277792592	1	0
16 fourier 1	0.9974165607242	2	180
17 fourier 1	2.348375642009	2	180
18 fourier 1	1.256156174911	1	0
19 fourier 1	2.687457892086	2	180
20 fourier 1	2.772607909663	2	180
21 fourier 1	0.09692684957115	1	0


Improper Coeffs

1 0.3666666666666667	-1	2
2 0.3333333333333333	-1	2
3 3.5	-1	2


Atoms

1	1	1	-0.41179699	11.7	-4.5539999	0.44800001
2	1	2	0.126947	10.391	-4.0219998	0.66500002
3	1	2	-0.40640599	10.143	-2.7179999	0.46799999
4	1	3	0.221799	10.931	-2.05	0.142
5	1	2	-0.113743	8.7860003	-2.174	0.68900001
6	1	3	0.204062	8.6160002	-1.122	0.49599999
7	1	2	-0.127767	7.783	-2.9790001	1.089
8	1	2	-0.134009	6.415	-2.441	1.303
9	1	2	-0.128821	5.335	-3.1589999	0.94599998
10	1	3	0.20734701	5.4400001	-4.1339998	0.48300001
11	1	2	-0.29555401	3.98	-2.612	1.1289999
12	1	3	0.22451299	3.1270001	-3.1900001	0.79799998
13	1	2	0.32960701	3.8039999	-1.393	1.655
14	1	4	-0.27152801	2.506	-0.88499999	1.7589999
15	1	2	0.26551899	2.0109999	0.142	0.94800001
16	1	2	-0.27958199	0.85699999	0.72799999	1.281
17	1	3	0.231415	0.32600001	0.41600001	2.1730001
18	1	2	-0.149129	0.29899999	1.812	0.449
19	1	3	0.217059	-0.62	2.2809999	0.778
20	1	2	-0.25650501	0.91500002	2.2079999	-0.68900001
21	1	5	0.019274	0.32800001	3.3599999	-1.523
22	1	5	-0.13161799	0.93900001	3.4619999	-2.9400001
23	1	6	0.087486997	0.86900002	2.487	-3.4690001
24	1	6	0.087486997	2.0039999	3.7709999	-2.8889999
25	1	6	0.087486997	0.40200001	4.224	-3.5439999
26	1	2	-0.107941	-1.156	3.2090001	-1.666
27	1	2	-0.12546401	-1.814	2.1619999	-2.184
28	1	3	0.216585	-1.276	1.307	-2.573
29	1	2	0.234688	-3.2950001	2.1659999	-2.164
30	1	4	-0.28034699	-3.987	1.059	-2.6630001
31	1	2	0.33350301	-4.777	0.19599999	-1.883
32	1	2	-0.29555401	-4.7270002	0.213	-0.537
33	1	3	0.22451299	-4.0799999	0.90200001	-0.0099999998
34	1	2	-0.128821	-5.5050001	-0.755	0.257
35	1	3	0.20734701	-5.4029999	-0.73400003	1.334
36	1	2	-0.134009	-6.2789998	-1.6720001	-0.35100001
37	1	2	-0.127767	-7.0180001	-2.6960001	0.43200001
38	1	2	-0.127781	-7.6209998	-2.3889999	1.599
39	1	3	0.204062	-7.6030002	-1.3789999	1.988
40	1	2	-0.37445199	-8.3459997	-3.425	2.365
41	1	3	0.21824799	-8.8149996	-3.155	3.3039999
42	1	2	0.19918799	-8.4169998	-4.6820002	1.903
43	1	1	-0.53056401	-9.1190004	-5.6869998	2.6389999
44	1	7	0.31963399	-9.1759996	-6.664	2.277
45	1	2	-0.37445199	-7.7610002	-5.027	0.62199998
46	1	3	0.21824799	-7.8070002	-6.0409999	0.245
47	1	2	-0.127781	-7.1030002	-4.092	-0.071999997
48	1	3	0.204062	-6.6139998	-4.3709998	-0.99699998
49	1	2	-0.056173	-6.3530002	-1.6799999	-1.834
50	1	3	0.206378	-6.9949999	-2.405	-2.316
51	1	2	-0.321702	-5.6529999	-0.79299998	-2.5699999
52	1	5	0.76682597	-5.7179999	-0.796	-4.0809999
53	1	8	-0.207397	-4.4790001	-1.1390001	-4.5890002
54	1	8	-0.207397	-6.0580001	0.46599999	-4.5310001
55	1	8	-0.207397	-6.6550002	-1.6950001	-4.5619998
56	1	2	-0.285579	-3.9579999	3.23	-1.666
57	1	3	0.219772	-5.0409999	3.2420001	-1.655
58	1	2	0.012427	-3.2079999	4.3909998	-1.128
59	1	3	0.214579	-3.7420001	5.2459998	-0.73500001
60	1	2	-0.19716901	-1.865	4.3499999	-1.13
61	1	5	-0.020956	-0.91799998	5.3920002	-0.625
62	1	5	-0.13121	-1.008	6.6550002	-1.5
63	1	6	0.091724999	-0.266	7.4109998	-1.163
64	1	6	0.091724999	-2.0220001	7.1059999	-1.437
65	1	6	0.091724999	-0.796	6.408	-2.5639999
66	1	5	-0.13121	-1.217	5.7399998	0.84600002
67	1	6	0.091724999	-2.211	6.2249999	0.94300002
68	1	6	0.091724999	-1.2130001	4.823	1.475
69	1	6	0.091724999	-0.44999999	6.441	1.239
70	1	5	-0.181288	0.48699999	4.7199998	-0.76599997
71	1	6	0.129935	1.207	5.3920002	-1.285
72	1	6	0.129935	0.93800002	4.553	0.23999999
73	1	2	-0.149129	2.2119999	1.557	-1.046
74	1	3	0.217059	2.7650001	1.852	-1.928
75	1	2	-0.27958199	2.7219999	0.58600003	-0.278
76	1	3	0.231415	3.658	0.123	-0.56699997
77	1	2	-0.321702	4.9819999	-0.60399997	2.122
78	1	5	0.76682597	4.8000002	0.75300002	2.767
79	1	8	-0.207397	3.648	0.773	3.5339999
80	1	8	-0.207397	4.7049999	1.721	1.784
81	1	8	-0.207397	5.8660002	1.0599999	3.5940001
82	1	2	-0.056173	6.2189999	-1.1	1.9170001
83	1	3	0.206378	7.0910001	-0.53500003	2.227
84	1	2	-0.113743	8.0679998	-4.4229999	1.311
85	1	3	0.204062	7.2870002	-5.0900002	1.653
86	1	2	-0.40640599	9.2959995	-4.9120002	1.109
87	1	3	0.221799	9.4919996	-5.9629998	1.2819999
88	1	7	0.37297401	12.491	-3.9400001	0.15000001
89	1	2	0.75664097	-9.5889997	-5.4629998	3.5639999
90	1	9	-0.66862202	-8.9069996	-4.8870001	4.454
91	1	2	-0.31932399	-10.999	-5.8460002	3.809
92	1	2	-0.122965	-11.452	-5.9159999	5.0749998
93	1	3	0.21284699	-10.819	-5.6459999	5.9120002
94	1	2	-0.11628	-12.803	-6.427	5.3699999
95	1	3	0.218218	-13.133	-6.448	6.401
96	1	2	-0.38331601	-13.598	-6.8610001	4.3790002
97	1	2	0.829561	-14.959	-7.381	4.6560001
98	1	9	-0.59696698	-15.869	-7.178	3.806
99	1	2	-0.381726	-15.282	-8.1389999	5.8909998
100	1	2	-0.112272	-16.518	-8.092	6.4130001
101	1	3	0.218218	-17.288	-7.4780002	5.9629998
102	1	2	-0.107599	-16.836	-8.8280001	7.6500001
103	1	3	0.223406	-17.82	-8.6940002	8.0830002
104	1	2	-0.203435	-15.906	-9.5790005	8.2670002
105	1	2	0.80194998	-16.226999	-10.161	9.5900002
106	1	9	-0.49094799	-15.324	-10.318	10.455
107	1	10	-0.66541499	-17.542	-10.492	9.908
108	1	11	0.41793501	-17.777	-10.875	10.816
109	1	2	-0.131644	-14.553	-9.7259998	7.6339998
110	1	2	0.80267	-13.558	-10.703	8.132
111	1	9	-0.49094799	-12.324	-10.477	8.0010004
112	1	10	-0.66541499	-13.975	-11.901	8.7040005
113	1	11	0.41793501	-13.301	-12.582	9.0340004
114	1	2	0.015181	-14.267	-9.0159998	6.5250001
115	1	3	0.242736	-13.307	-9.1370001	6.0359998
116	1	2	0.045864001	-13.129	-6.7470002	2.9779999
117	1	3	0.23082501	-13.799	-7.0419998	2.178
118	1	2	-0.210839	-11.915	-6.2420001	2.687
119	1	2	0.57647502	-11.569	-6.0560002	1.26
120	1	9	-0.53984702	-10.723	-5.1989999	0.89300001
121	1	1	-0.41179699	11.882	-5.5760002	0.57800001
122	1	2	0.126947	12.098	-6.1079998	1.888
123	1	2	-0.40640599	12.365	-7.4120002	2.0580001
124	1	3	0.221799	12.42	-8.0799999	1.207
125	1	2	-0.113743	12.593	-7.9559999	3.414
126	1	3	0.204062	12.831	-9.0080004	3.513
127	1	2	-0.127767	12.538	-7.151	4.493
128	1	2	-0.134009	12.777	-7.6890001	5.8559999
129	1	2	-0.128821	13.463	-6.9710002	6.763
130	1	3	0.20734701	13.867	-5.9959998	6.5149999
131	1	2	-0.29555401	13.726	-7.5180001	8.1049995
132	1	3	0.22451299	14.314	-6.9400001	8.8059998
133	1	2	0.32960701	13.286	-8.7370005	8.4420004
134	1	4	-0.27152801	13.605	-9.2449999	9.7040005
135	1	2	0.26551899	14.533	-10.272	9.9099998
136	1	2	-0.27958199	14.59	-10.858	11.111
137	1	3	0.231415	13.917	-10.546	11.901
138	1	2	-0.149129	15.557	-11.941	11.37
139	1	3	0.217059	15.542	-12.411	12.346
140	1	2	-0.25650501	16.436001	-12.338	10.42
141	1	5	0.019274	17.415001	-13.49	10.707
142	1	5	-0.13161799	18.558001	-13.592	9.6719999
143	1	6	0.087486997	19.082001	-12.616	9.5670004
144	1	6	0.087486997	18.167	-13.901	8.6800003
145	1	6	0.087486997	19.302999	-14.354	9.9849997
146	1	2	-0.107941	18.028	-13.339	12.065
147	1	2	-0.12546401	18.731001	-12.292	12.521
148	1	3	0.216585	18.924999	-11.436	11.886
149	1	2	0.234688	19.188999	-12.296	13.929
150	1	4	-0.28034699	19.885	-11.189	14.424
151	1	2	0.33350301	19.400999	-10.326	15.423
152	1	2	-0.29555401	18.111	-10.343	15.81
153	1	3	0.22451299	17.403999	-11.032	15.367
154	1	2	-0.128821	17.610001	-9.375	16.802
155	1	3	0.20734701	16.558001	-9.3950005	17.052999
156	1	2	-0.134009	18.434999	-8.4580002	17.339001
157	1	2	-0.127767	17.931999	-7.4330001	18.291
158	1	2	-0.077074997	17.021999	-7.7399998	19.238001
159	1	3	0.204062	16.648001	-8.7510004	19.346001
160	1	2	-0.45056599	16.530001	-6.7049999	20.171
161	1	3	0.23033699	15.793	-6.9749999	20.917999
162	1	2	0.31871501	16.990999	-5.447	20.089001
163	1	1	-0.844558	16.521	-4.4429998	20.990999
164	1	7	0.36664	15.809	-4.6630001	21.722
165	1	7	0.36664	16.882	-3.4660001	20.927999
166	1	2	-0.45056599	17.992001	-5.1020002	19.056
167	1	3	0.23033699	18.364	-4.0879998	18.976999
168	1	2	-0.077074997	18.437	-6.0370002	18.209
169	1	3	0.204062	19.155001	-5.7589998	17.447001
170	1	2	-0.056173	19.863001	-8.4499998	16.93
171	1	3	0.206378	20.525999	-7.7249999	17.382999
172	1	2	-0.321702	20.334	-9.3369999	16.031
173	1	5	0.76682597	21.785	-9.3339996	15.605
174	1	8	-0.207397	21.867001	-8.9910002	14.268
175	1	8	-0.207397	22.320999	-10.596	15.782
176	1	8	-0.207397	22.542	-8.4350004	16.337
177	1	2	-0.285579	18.931999	-13.36	14.718
178	1	3	0.219772	19.271	-13.371	15.747
179	1	2	0.012427	18.18	-14.521	14.181
180	1	3	0.214579	17.981001	-15.376	14.814
181	1	2	-0.19716901	17.749001	-14.48	12.91
182	1	5	-0.020956	16.966	-15.522	12.176
183	1	5	-0.13121	17.823999	-16.784	11.978
184	1	6	0.091724999	17.264999	-17.541	11.386
185	1	6	0.091724999	18.09	-17.235001	12.959
186	1	6	0.091724999	18.761999	-16.538	11.436
187	1	5	-0.13121	15.67	-15.87	12.934
188	1	6	0.091724999	15.899	-16.354	13.906
189	1	6	0.091724999	15.073	-14.953	13.132
190	1	6	0.091724999	15.051	-16.57	12.335
191	1	5	-0.181288	16.646	-14.85	10.8
192	1	6	0.129935	16.906	-15.522	9.9519997
193	1	6	0.129935	15.549	-14.683	10.698
194	1	2	-0.149129	16.355	-11.687	9.0780001
195	1	3	0.217059	17.011999	-11.982	8.2700005
196	1	2	-0.27958199	15.464	-10.716	8.842
197	1	3	0.231415	15.436	-10.253	7.8639998
198	1	2	-0.321702	12.463	-9.526	7.4759998
199	1	5	0.76682597	11.912	-10.883	7.8569999
200	1	8	-0.207397	11.556	-10.903	9.1949997
201	1	8	-0.207397	12.873	-11.851	7.6300001
202	1	8	-0.207397	10.785	-11.19	7.1149998
203	1	2	-0.056173	12.258	-9.0299997	6.2399998
204	1	3	0.206378	11.683	-9.5950003	5.5139999
205	1	2	-0.113743	12.236	-5.7069998	4.2950001
206	1	3	0.204062	12.163	-5.04	5.1440001
207	1	2	-0.40640599	12.031	-5.2179999	3.066
208	1	3	0.221799	11.804	-4.1669998	2.937
209	1	7	0.37297401	11.908	-6.1900001	-0.26699999
210	1	2	0.58135301	-12.09	-6.6230001	0.50300002
211	1	9	-0.53984702	-12.807	-7.592	0.87300003
212	1	2	-0.322678	-11.981	-6.2529998	-0.92799997
213	1	2	-0.050985999	-12.888	-6.7270002	-1.804
214	1	3	0.20913801	-13.666	-7.4099998	-1.488
215	1	2	-0.100242	-12.892	-6.277	-3.207
216	1	3	0.218218	-13.665	-6.652	-3.8670001
217	1	2	-0.381726	-11.986	-5.3870001	-3.641
218	1	2	0.829561	-12.001	-4.8889999	-5.0370002
219	1	9	-0.59696698	-11.638	-3.7019999	-5.2600002
220	1	2	-0.381726	-12.418	-5.7399998	-6.1789999
221	1	2	-0.112272	-13.043	-5.197	-7.2350001
222	1	3	0.218218	-13.266	-4.1370001	-7.2639999
223	1	2	-0.107599	-13.432	-6.0320001	-8.3859997
224	1	3	0.223406	-13.886	-5.5430002	-9.2399998
225	1	2	-0.203435	-13.165	-7.3509998	-8.4049997
226	1	2	0.80194998	-13.429	-8.1149998	-9.6459999
227	1	9	-0.49094799	-14.395	-7.7989998	-10.393
228	1	10	-0.66541499	-12.586	-9.1560001	-10.023
229	1	11	0.41793501	-12.751	-9.6759996	-10.877
230	1	2	-0.131644	-12.514	-7.98	-7.2090001
231	1	2	0.80267	-12.355	-9.4469995	-7.0869999
232	1	9	-0.49094799	-11.391	-9.9300003	-6.4330001
233	1	10	-0.66541499	-13.295	-10.305	-7.652
234	1	11	0.41793501	-13.202	-11.309	-7.5619998
235	1	2	0.015181	-12.134	-7.1960001	-6.1810002
236	1	3	0.242736	-11.651	-7.6350002	-5.3150001
237	1	2	0.025892001	-10.975	-4.8670001	-2.6900001
238	1	3	0.242736	-10.223	-4.1789999	-3.0599999
239	1	2	-0.083213001	-10.937	-5.289	-1.411
240	1	2	0.81511998	-9.8269997	-4.823	-0.54699999
241	1	9	-0.49094799	-9.3570004	-5.5700002	0.352
242	1	10	-0.66541499	-9.2580004	-3.569	-0.75700003
243	1	11	0.41793501	-8.4870005	-3.2449999	-0.186

Bonds

1	1	1	2
2	2	1	88
3	3	1	121
4	4	2	3
5	4	2	86
6	5	3	4
7	4	3	5
8	5	5	6
9	4	5	7
10	6	7	8
11	4	7	84
12	4	8	9
13	4	8	82
14	5	9	10
15	4	9	11
16	5	11	12
17	4	11	13
18	7	13	14
19	4	13	77
20	7	14	15
21	4	15	16
22	4	15	75
23	5	16	17
24	4	16	18
25	5	18	19
26	4	18	20
27	8	20	21
28	4	20	73
29	9	21	22
30	8	21	26
31	9	21	70
32	10	22	23
33	10	22	24
34	10	22	25
35	4	26	27
36	4	26	60
37	5	27	28
38	4	27	29
39	7	29	30
40	4	29	56
41	7	30	31
42	4	31	32
43	4	31	51
44	5	32	33
45	4	32	34
46	5	34	35
47	4	34	36
48	6	36	37
49	4	36	49
50	4	37	38
51	4	37	47
52	5	38	39
53	4	38	40
54	5	40	41
55	4	40	42
56	1	42	43
57	4	42	45
58	2	43	44
59	11	43	89
60	5	45	46
61	4	45	47
62	5	47	48
63	5	49	50
64	4	49	51
65	8	51	52
66	12	52	53
67	12	52	54
68	12	52	55
69	5	56	57
70	4	56	58
71	5	58	59
72	4	58	60
73	8	60	61
74	9	61	62
75	9	61	66
76	9	61	70
77	10	62	63
78	10	62	64
79	10	62	65
80	10	66	67
81	10	66	68
82	10	66	69
83	10	70	71
84	10	70	72
85	5	73	74
86	4	73	75
87	5	75	76
88	8	77	78
89	4	77	82
90	12	78	79
91	12	78	80
92	12	78	81
93	5	82	83
94	5	84	85
95	4	84	86
96	5	86	87
97	13	89	90
98	6	89	91
99	4	91	92
100	4	91	118
101	5	92	93
102	4	92	94
103	5	94	95
104	4	94	96
105	6	96	97
106	4	96	116
107	13	97	98
108	6	97	99
109	4	99	100
110	4	99	114
111	5	100	101
112	4	100	102
113	5	102	103
114	4	102	104
115	6	104	105
116	4	104	109
117	13	105	106
118	14	105	107
119	15	107	108
120	6	109	110
121	4	109	114
122	13	110	111
123	14	110	112
124	15	112	113
125	5	114	115
126	5	116	117
127	4	116	118
128	6	118	119
129	13	119	120
130	6	119	210
131	1	121	122
132	2	121	209
133	4	122	123
134	4	122	207
135	5	123	124
136	4	123	125
137	5	125	126
138	4	125	127
139	6	127	128
140	4	127	205
141	4	128	129
142	4	128	203
143	5	129	130
144	4	129	131
145	5	131	132
146	4	131	133
147	7	133	134
148	4	133	198
149	7	134	135
150	4	135	136
151	4	135	196
152	5	136	137
153	4	136	138
154	5	138	139
155	4	138	140
156	8	140	141
157	4	140	194
158	9	141	142
159	8	141	146
160	9	141	191
161	10	142	143
162	10	142	144
163	10	142	145
164	4	146	147
165	4	146	181
166	5	147	148
167	4	147	149
168	7	149	150
169	4	149	177
170	7	150	151
171	4	151	152
172	4	151	172
173	5	152	153
174	4	152	154
175	5	154	155
176	4	154	156
177	6	156	157
178	4	156	170
179	4	157	158
180	4	157	168
181	5	158	159
182	4	158	160
183	5	160	161
184	4	160	162
185	1	162	163
186	4	162	166
187	2	163	164
188	2	163	165
189	5	166	167
190	4	166	168
191	5	168	169
192	5	170	171
193	4	170	172
194	8	172	173
195	12	173	174
196	12	173	175
197	12	173	176
198	5	177	178
199	4	177	179
200	5	179	180
201	4	179	181
202	8	181	182
203	9	182	183
204	9	182	187
205	9	182	191
206	10	183	184
207	10	183	185
208	10	183	186
209	10	187	188
210	10	187	189
211	10	187	190
212	10	191	192
213	10	191	193
214	5	194	195
215	4	194	196
216	5	196	197
217	8	198	199
218	4	198	203
219	12	199	200
220	12	199	201
221	12	199	202
222	5	203	204
223	5	205	206
224	4	205	207
225	5	207	208
226	13	210	211
227	6	210	212
228	4	212	213
229	4	212	239
230	5	213	214
231	4	213	215
232	5	215	216
233	4	215	217
234	6	217	218
235	4	217	237
236	13	218	219
237	6	218	220
238	4	220	221
239	4	220	235
240	5	221	222
241	4	221	223
242	5	223	224
243	4	223	225
244	6	225	226
245	4	225	230
246	13	226	227
247	14	226	228
248	15	228	229
249	6	230	231
250	4	230	235
251	13	231	232
252	14	231	233
253	15	233	234
254	5	235	236
255	5	237	238
256	4	237	239
257	6	239	240
258	13	240	241
259	14	240	242
260	15	242	243

Angles

1	4	123	125	126
2	1	147	149	177
3	1	151	172	173
4	4	19	18	20
5	4	73	75	76
6	1	150	149	177
7	1	217	218	219
8	4	220	221	222
9	4	31	32	33
10	1	133	198	199
11	1	218	217	237
12	4	33	32	34
13	6	182	191	192
14	4	152	154	155
15	4	214	213	215
16	5	240	242	243
17	1	97	99	100
18	8	23	22	25
19	4	136	138	139
20	1	96	116	118
21	2	1	121	122
22	1	128	127	205
23	1	223	225	226
24	1	32	34	36
25	1	104	105	107
26	4	129	131	132
27	6	21	70	71
28	6	26	21	70
29	4	149	177	178
30	6	51	52	54
31	9	241	240	242
32	4	38	40	41
33	1	147	149	150
34	3	164	163	165
35	4	167	166	168
36	6	181	182	191
37	4	57	56	58
38	1	129	128	203
39	1	26	60	61
40	1	14	15	75
41	6	141	142	144
42	6	142	141	191
43	1	151	152	154
44	4	15	16	17
45	1	14	13	77
46	1	223	225	230
47	1	104	109	114
48	1	13	77	78
49	1	119	210	212
50	1	150	151	172
51	6	182	183	186
52	1	110	109	114
53	3	44	43	89
54	1	133	198	203
55	1	151	172	170
56	1	150	151	152
57	1	136	135	196
58	4	180	179	181
59	4	162	166	167
60	8	24	22	25
61	1	100	99	114
62	4	198	203	204
63	6	146	141	191
64	1	221	223	225
65	7	21	26	27
66	9	111	110	112
67	1	2	3	5
68	4	84	86	87
69	1	31	51	52
70	4	230	235	236
71	6	77	78	79
72	3	42	43	44
73	1	38	37	47
74	6	79	78	81
75	4	46	45	47
76	1	13	77	82
77	8	185	183	186
78	1	177	179	181
79	4	155	154	156
80	4	222	221	223
81	6	142	141	146
82	6	22	21	26
83	1	34	36	49
84	1	123	122	207
85	8	188	187	189
86	6	140	141	142
87	1	109	110	111
88	5	231	233	234
89	4	127	205	206
90	1	43	89	91
91	4	132	131	133
92	4	42	45	46
93	4	171	170	172
94	4	194	196	197
95	4	166	168	169
96	4	56	58	59
97	1	7	8	9
98	8	23	22	24
99	1	18	20	21
100	1	40	42	45
101	1	160	162	166
102	1	91	118	119
103	1	15	75	73
104	1	225	226	228
105	1	104	105	106
106	1	78	77	82
107	1	91	92	94
108	6	21	70	61
109	4	161	160	162
110	6	51	52	53
111	4	124	123	125
112	1	116	118	119
113	1	135	136	138
114	8	71	70	72
115	1	26	27	29
116	6	141	142	143
117	1	125	127	205
118	4	85	84	86
119	6	201	199	202
120	5	29	30	31
121	4	93	92	94
122	6	20	21	70
123	1	21	26	60
124	4	238	237	239
125	1	7	8	82
126	6	62	61	70
127	1	8	7	84
128	4	135	196	197
129	4	221	223	224
130	1	157	158	160
131	4	77	82	83
132	1	127	128	129
133	4	99	114	115
134	6	198	199	201
135	6	61	66	69
136	6	61	62	64
137	6	79	78	80
138	1	91	118	116
139	1	225	230	235
140	6	53	52	55
141	6	182	187	190
142	4	177	179	180
143	3	2	1	88
144	4	156	170	171
145	4	8	9	10
146	4	109	114	115
147	4	95	94	96
148	6	181	182	187
149	1	92	94	96
150	1	212	239	237
151	1	43	89	90
152	4	178	177	179
153	5	133	134	135
154	4	101	100	102
155	6	21	22	23
156	8	192	191	193
157	3	1	121	209
158	8	64	62	65
159	1	225	226	227
160	1	104	109	110
161	1	29	56	58
162	1	118	119	120
163	1	121	122	123
164	4	91	92	93
165	1	9	8	82
166	5	110	112	113
167	1	218	220	235
168	6	172	173	176
169	6	183	182	191
170	1	212	213	215
171	1	237	239	240
172	1	140	194	196
173	1	135	196	194
174	1	100	102	104
175	6	20	21	22
176	1	210	212	213
177	7	141	146	147
178	4	213	215	216
179	1	8	82	77
180	6	66	61	70
181	1	120	119	210
182	1	217	237	239
183	1	158	160	162
184	4	206	205	207
185	4	15	75	76
186	4	195	194	196
187	6	141	191	193
188	1	128	203	198
189	6	200	199	201
190	4	16	18	19
191	1	239	240	242
192	4	37	47	48
193	4	35	34	36
194	4	4	3	5
195	6	20	21	26
196	1	1	2	3
197	1	32	31	51
198	1	97	96	116
199	4	157	158	159
200	4	159	158	160
201	1	154	156	157
202	1	157	156	170
203	8	63	62	65
204	4	36	49	50
205	1	128	129	131
206	1	37	47	45
207	6	198	199	200
208	6	61	66	68
209	6	61	62	63
210	6	80	78	81
211	4	7	84	85
212	1	134	135	136
213	1	220	235	230
214	1	20	73	75
215	1	131	133	134
216	1	210	212	239
217	1	226	225	230
218	1	147	146	181
219	4	59	58	60
220	1	98	97	99
221	4	92	94	95
222	1	134	133	198
223	1	154	156	170
224	4	8	82	83
225	6	77	78	81
226	1	219	218	220
227	4	50	49	51
228	6	140	141	191
229	4	96	116	117
230	1	123	125	127
231	4	32	34	35
232	1	21	20	73
233	1	158	157	168
234	4	29	56	57
235	1	146	181	182
236	6	62	61	66
237	6	172	173	175
238	4	212	213	214
239	1	213	212	239
240	6	60	61	70
241	4	28	27	29
242	4	140	194	195
243	1	146	147	149
244	1	131	133	198
245	4	100	102	103
246	1	212	239	240
247	9	232	231	233
248	1	30	31	32
249	1	152	154	156
250	4	151	152	153
251	1	127	128	203
252	4	128	203	204
253	1	37	38	40
254	1	136	138	140
255	5	13	14	15
256	4	158	160	161
257	1	122	123	125
258	1	225	230	231
259	4	220	235	236
260	1	119	210	211
261	6	182	183	185
262	6	141	191	192
263	1	94	96	97
264	1	129	131	133
265	1	9	11	13
266	1	149	177	179
267	9	227	226	228
268	4	2	86	87
269	6	51	52	55
270	1	141	140	194
271	1	138	140	141
272	6	181	182	183
273	6	141	142	145
274	4	2	3	4
275	8	63	62	64
276	7	58	60	61
277	6	61	70	72
278	1	15	16	18
279	1	3	5	7
280	6	61	66	67
281	4	139	138	140
282	1	30	29	56
283	4	216	215	217
284	1	96	97	99
285	4	20	73	74
286	1	141	146	181
287	1	146	181	179
288	4	6	5	7
289	1	160	162	163
290	4	10	9	11
291	4	148	147	149
292	4	41	40	42
293	8	67	66	69
294	1	162	166	168
295	1	157	168	166
296	6	183	182	187
297	1	5	7	8
298	4	122	207	208
299	4	126	125	127
300	8	143	142	145
301	1	156	157	158
302	1	16	15	75
303	1	92	91	118
304	4	17	16	18
305	4	205	207	208
306	6	77	78	80
307	6	187	182	191
308	6	174	173	176
309	1	11	13	14
310	1	2	86	84
311	6	172	173	174
312	8	188	187	190
313	4	135	136	137
314	1	99	100	102
315	1	109	110	112
316	1	127	205	207
317	6	54	52	55
318	4	26	27	28
319	1	1	2	86
320	1	56	58	60
321	8	68	66	69
322	4	37	38	39
323	8	184	183	186
324	6	21	22	25
325	4	122	123	124
326	8	144	142	145
327	6	182	183	184
328	6	141	191	182
329	4	9	11	12
330	4	153	152	154
331	7	179	181	182
332	2	2	1	121
333	1	215	217	218
334	4	45	47	48
335	1	102	104	105
336	1	3	2	86
337	1	36	37	38
338	1	122	207	205
339	1	105	104	109
340	6	60	61	62
341	1	89	91	92
342	1	49	51	52
343	5	226	228	229
344	3	162	163	165
345	4	130	129	131
346	1	125	127	128
347	6	61	70	71
348	4	3	5	6
349	4	103	102	104
350	9	106	105	107
351	1	199	198	203
352	6	53	52	54
353	6	182	187	189
354	1	96	97	98
355	1	27	29	30
356	1	18	20	73
357	1	30	31	51
358	1	121	122	207
359	1	94	96	116
360	2	42	43	89
361	1	218	220	221
362	8	67	66	68
363	1	42	45	47
364	1	102	104	109
365	1	156	157	168
366	1	134	135	196
367	8	143	142	144
368	6	60	61	66
369	1	170	172	173
370	5	149	150	151
371	6	198	199	202
372	1	230	231	233
373	6	61	62	65
374	1	152	151	172
375	1	40	42	43
376	1	36	37	47
377	6	174	173	175
378	1	156	170	172
379	4	137	136	138
380	4	157	168	169
381	1	14	15	16
382	1	217	218	220
383	1	220	221	223
384	1	31	32	34
385	4	99	100	101
386	1	26	60	58
387	6	182	191	193
388	4	39	38	40
389	1	34	36	37
390	1	99	114	109
391	4	217	237	238
392	8	184	183	185
393	6	21	22	24
394	4	74	73	75
395	1	211	210	212
396	1	215	217	237
397	1	118	119	210
398	6	21	70	72
399	5	105	107	108
400	1	43	42	45
401	1	38	40	42
402	1	8	9	11
403	1	239	240	241
404	1	231	230	235
405	6	140	141	146
406	1	27	26	60
407	4	12	11	13
408	1	89	91	118
409	1	213	215	217
410	3	162	163	164
411	1	97	99	114
412	8	189	187	190
413	1	5	7	84
414	1	31	51	49
415	4	128	129	130
416	4	224	223	225
417	3	122	121	209
418	1	163	162	166
419	3	88	1	121
420	6	182	187	188
421	6	200	199	202
422	1	16	18	20
423	1	11	13	77
424	1	27	29	56
425	1	37	36	49
426	4	146	147	148
427	1	221	220	235
428	6	22	21	70
429	1	36	49	51
430	4	117	116	118
431	1	138	140	194
432	6	175	173	176
433	1	90	89	91
434	1	230	231	232
435	1	7	84	86

Dihedrals

1	1	212	239	237	217
2	2	123	122	121	209
3	1	213	215	217	218
4	1	147	146	181	179
5	1	8	82	77	13
6	1	97	99	100	101
7	6	58	60	61	62
8	2	160	162	163	165
9	6	80	78	77	82
10	1	2	3	5	7
11	1	95	94	96	116
12	1	148	147	149	177
13	1	3	2	86	84
14	16	211	210	212	239
15	1	134	135	136	137
16	1	136	138	140	141
17	1	42	45	47	48
18	1	3	5	7	8
19	4	47	37	36	49
20	1	128	203	198	199
21	1	15	16	18	19
22	1	10	9	11	13
23	1	126	125	127	128
24	7	60	61	62	63
25	1	122	207	205	206
26	1	37	38	40	42
27	6	181	146	141	191
28	19	230	231	233	234
29	1	16	18	20	73
30	1	141	146	181	182
31	6	138	140	141	146
32	1	125	127	205	207
33	17	44	43	89	90
33	18	44	43	89	90
34	1	11	13	77	78
35	2	3	2	1	121
36	1	21	26	60	61
37	6	31	51	52	55
38	1	141	140	194	195
39	1	238	237	239	240
40	1	218	217	237	239
41	1	130	129	131	133
42	5	135	134	133	198
43	11	62	61	66	69
44	1	210	212	213	215
45	1	167	166	168	169
46	16	98	97	99	114
47	1	17	16	15	75
48	1	34	32	31	51
49	1	36	37	38	39
50	7	181	182	183	185
51	1	148	147	149	150
52	1	30	31	51	52
53	6	22	21	26	60
54	1	221	220	235	236
55	1	224	223	225	230
56	1	14	15	75	76
57	1	226	225	230	235
58	6	81	78	77	82
59	1	153	152	151	172
60	12	42	43	89	90
60	13	42	43	89	90
61	1	39	38	40	41
62	3	2	1	121	209
63	1	214	213	215	217
64	16	223	225	226	228
65	16	104	109	110	112
66	11	65	62	61	70
67	1	8	9	11	12
68	11	66	61	70	72
69	4	5	7	8	9
70	1	123	122	207	208
71	1	216	215	217	237
72	1	136	138	140	194
73	5	151	150	149	177
74	1	9	11	13	77
75	11	143	142	141	191
76	1	133	198	203	204
77	1	206	205	207	208
78	1	122	123	125	127
79	1	12	11	13	77
80	1	26	27	29	30
81	6	146	181	182	183
82	3	88	1	121	122
83	7	20	21	70	71
84	11	64	62	61	66
85	7	140	141	142	144
86	6	49	51	52	53
87	4	34	36	37	38
88	1	92	91	118	119
89	11	188	187	182	191
90	16	94	96	97	99
91	11	183	182	191	192
92	6	13	77	78	81
93	1	19	18	20	73
94	1	152	151	172	173
95	1	135	136	138	140
96	1	1	2	3	5
97	1	101	100	102	103
98	1	212	213	215	216
99	1	9	11	13	14
100	1	178	177	179	181
101	6	142	141	146	181
102	6	18	20	21	26
103	1	141	146	181	179
104	1	97	99	114	109
105	7	145	142	141	146
106	1	213	215	217	237
107	1	27	29	56	58
108	1	34	36	49	50
109	1	7	8	9	10
110	1	222	221	223	224
111	1	218	220	221	223
112	7	141	191	182	181
113	1	127	128	203	198
114	7	24	22	21	26
115	4	5	7	8	82
116	2	160	162	163	164
117	1	2	3	5	6
118	2	44	43	42	45
119	11	142	141	191	193
120	1	92	94	96	97
121	1	46	45	47	48
122	1	139	138	140	141
123	16	98	97	99	100
124	16	90	89	91	92
125	5	29	30	31	32
126	1	15	75	73	74
127	1	32	31	51	52
128	20	227	226	228	229
128	21	227	226	228	229
129	1	43	42	45	47
130	11	185	183	182	191
131	1	153	152	154	156
132	19	225	226	228	229
133	1	125	127	205	206
134	16	118	119	210	212
135	1	11	9	8	82
136	11	69	66	61	70
137	16	102	104	105	107
138	6	151	172	173	176
139	1	21	26	27	29
140	1	100	99	114	115
141	6	31	51	52	54
142	16	111	110	109	114
143	1	147	146	181	182
144	1	99	114	109	104
145	1	218	217	237	238
146	1	130	129	131	132
147	11	62	61	66	68
148	1	103	102	104	109
149	6	142	141	146	147
150	1	15	75	73	20
151	1	36	49	51	52
152	1	3	2	86	87
153	1	18	20	73	75
154	2	45	42	43	89
155	1	151	172	170	156
156	1	152	151	172	170
157	7	181	182	187	189
158	7	181	182	183	184
159	1	154	156	170	171
160	1	215	217	237	239
161	6	200	199	198	203
162	20	241	240	242	243
162	21	241	240	242	243
163	1	39	38	37	47
164	7	60	61	66	67
165	16	107	105	104	109
166	1	96	116	118	119
167	2	40	42	43	89
168	4	125	127	128	129
169	1	151	152	154	155
170	11	66	61	70	71
171	1	210	212	239	240
172	1	138	140	194	196
173	1	150	149	177	179
174	1	171	170	172	173
175	1	31	32	34	35
176	1	147	149	177	179
177	8	141	191	182	187
177	9	141	191	182	187
177	10	141	191	182	187
178	7	140	141	142	143
179	16	219	218	220	235
180	7	20	21	70	61
181	7	26	21	70	61
182	7	146	141	191	193
183	1	4	3	5	7
184	16	237	239	240	241
185	4	158	157	156	170
186	1	37	47	45	46
187	16	225	230	231	232
188	1	74	73	75	76
189	16	94	96	97	98
190	1	136	135	196	194
191	1	128	127	205	206
192	6	13	77	78	80
193	1	14	15	16	18
194	6	133	198	199	201
195	1	156	157	158	160
196	1	1	2	3	4
197	7	20	21	22	23
198	16	120	119	210	212
199	1	26	27	29	56
200	1	130	129	128	203
201	1	94	92	91	118
202	1	38	40	42	45
203	1	129	131	133	134
204	1	137	136	138	139
205	6	138	140	141	142
206	1	158	157	168	169
207	1	3	5	7	84
208	11	25	22	21	70
209	1	127	128	203	204
210	1	102	104	109	114
211	16	43	89	91	118
212	1	231	230	235	236
213	1	218	220	221	222
214	1	99	114	109	110
215	16	96	97	99	100
216	1	137	136	135	196
217	1	7	8	82	83
218	7	140	141	191	193
219	1	131	133	198	203
220	1	100	102	104	109
221	1	41	40	42	45
222	11	142	141	191	192
223	1	8	82	77	78
224	1	5	7	84	86
225	1	26	60	58	56
226	6	26	60	61	70
227	1	220	235	230	225
228	11	183	182	187	190
229	19	104	105	107	108
230	1	32	34	36	37
231	6	142	141	140	194
232	1	33	32	34	36
233	1	224	223	225	226
234	1	226	225	230	231
235	6	22	21	20	73
236	16	212	239	240	242
237	11	65	62	61	66
238	1	91	92	94	96
239	1	153	152	154	155
240	1	210	212	239	237
241	1	199	198	203	204
242	1	135	196	194	195
243	1	163	162	166	168
244	1	38	37	47	48
245	16	102	104	105	106
246	1	31	51	49	50
247	6	60	26	21	70
248	1	140	194	196	197
249	1	157	158	160	161
250	1	21	26	27	28
251	1	141	146	147	149
252	1	37	36	49	51
253	1	1	2	86	84
254	1	17	16	18	20
255	1	129	131	133	198
256	1	156	170	172	173
257	16	219	218	220	221
258	1	38	37	47	45
259	1	221	223	225	230
260	7	181	182	191	193
261	1	177	179	181	182
262	16	91	118	119	120
263	7	181	182	187	188
264	1	89	91	92	94
265	7	60	61	70	71
266	1	129	128	203	204
267	1	93	92	94	96
268	1	154	152	151	172
269	7	60	61	62	65
270	6	191	141	140	194
271	1	30	29	56	57
272	1	78	77	82	83
273	1	18	16	15	75
274	11	22	21	70	72
275	1	157	168	166	162
276	1	20	73	75	76
277	20	111	110	112	113
277	21	111	110	112	113
278	6	18	20	21	22
279	16	116	118	119	120
280	1	157	156	170	171
281	1	150	149	177	178
282	1	105	104	109	114
283	1	94	96	116	118
284	1	158	157	168	166
285	1	7	8	9	11
286	5	27	29	30	31
287	1	160	162	166	167
288	1	29	56	58	60
289	11	144	142	141	191
290	1	149	177	179	181
291	5	29	30	31	51
292	1	147	149	177	178
293	1	220	221	223	225
294	11	187	182	191	192
295	3	88	1	121	209
296	6	140	141	146	147
297	7	26	21	70	71
298	1	134	133	198	203
299	1	220	235	230	231
300	1	225	230	235	236
301	1	138	136	135	196
302	11	186	183	182	191