Title

57 atoms
56 bonds
101 angles
167 dihedrals
12 impropers

8 atom types
11 bond types
5 angle types
27 dihedral types
2 improper types
-2.105000019 97.89499998 xlo xhi
-1.297000051 98.70299995 ylo yhi
-1.378000021 98.62199998 zlo zhi
0.0 0.0 0.0 xy xz yz

Masses

1	15.99943
2	12.01078
3	1.007947
4	1.007947
5	12.01078
6	15.99943
7	15.99943
8	1.007947


Pair Coeffs

1	0.16846514	3.0251065
2	0.10884061	3.3795318
3	0.016409246	2.5832257
4	0.015779483	2.6445434
5	0.086879315	3.4806469
6	0.2102061	3.0398122
7	0.20947353	2.99716
8	1.2326e-05	0.53453923

Bond Coeffs

1 harmonic	366.7408841747	1.425895053732
2 harmonic	300.03137914615	1.451203938761
3 harmonic	264.62148576755	1.52190126495
4 harmonic	370.04670688625	1.093899492634
5 harmonic	301.15400723785	1.345741232799
6 harmonic	582.698766451	1.225198386222
7 harmonic	329.44145381095	1.523435958334
8 harmonic	279.1350963404	1.454628925034
9 harmonic	329.96998057905	1.427343958716
10 harmonic	543.5267831885	0.9716763312559
11 harmonic	385.7604595587	1.369745182308


Angle Coeffs

1 harmonic	53.20531626545	116.5475862634
2 harmonic	65.09061609600001	110.3538806181
3 harmonic	201.41175231035	127.4691416191
4 harmonic	57.8982893754	126.8062420451
5 harmonic	48.776492647595	115.6030999533


Dihedral Coeffs

1 fourier 1	0.1155372516788	3	0
2 fourier 1	0.1115525666802	3	0
3 fourier 1	0.3432490222662	1	0
4 fourier 1	0.0473758381877	3	0
5 fourier 1	0.457973137376	1	0
6 fourier 1	0.1040663847541	3	0
7 fourier 1	0.1918272375143	3	0
8 fourier 1	0.9202179876409	1	180
9 fourier 1	1.163809172478	2	180
10 fourier 1	0.1679186987369	1	180
11 fourier 1	2.779853741805	2	180
12 fourier 1	0.02664938770063	3	0
13 fourier 1	0.1911926717192	3	0
14 fourier 1	-0.3703352413219	2	0
15 fourier 1	0.4541676554336	1	0
16 fourier 1	0.1489710476446	2	0
17 fourier 1	0.02960027280666	3	180
18 fourier 1	0.09223874044423	3	0
19 fourier 1	0.3159935921949	2	180
20 fourier 1	0.3247796806857	1	180
21 fourier 1	0.9974165607242	2	180
22 fourier 1	0.3445382149273	3	0
23 fourier 1	0.1364556373303	1	0
24 fourier 1	0.3026390167484	3	0
25 fourier 1	2.687457892086	2	180
26 fourier 1	2.772607909663	2	180
27 fourier 1	0.09692684957115	1	0


Improper Coeffs

1 3.5	-1	2
2 0.3666666666666667	-1	2


Atoms

1	1	1	-0.17807899	-1.834	0.66500002	-0.51800001
2	1	2	0.040878002	-1.288	-0.54500002	-0.064999998
3	1	2	-0.13552099	0.113	-0.331	0.51700002
4	1	2	0.14587	1.099	0.17299999	-0.54100001
5	1	1	-0.49427399	2.3800001	0.29899999	0.012
6	1	3	0.080020003	0.76099998	1.15	-0.95499998
7	1	3	0.080020003	1.149	-0.55599999	-1.378
8	1	4	0.092398003	0.48199999	-1.2970001	0.926
9	1	4	0.092398003	0.057	0.39899999	1.354
10	1	3	0.082124002	-1.949	-0.99699998	0.70999998
11	1	3	0.082124002	-1.2359999	-1.258	-0.91600001
12	1	5	0.76250899	2.3710001	1.164	0.58899999
13	1	6	-0.55071902	1.354	1.837	0.63700002
14	1	2	-0.20913801	3.586	1.589	1.359
15	1	2	-0.112833	4.744	0.60399997	1.158
16	1	2	-0.091990001	5.9829998	1.044	1.946
17	1	2	-0.25734299	7.1409998	0.059	1.7460001
18	1	5	0.51771897	8.3559999	0.48500001	2.5150001
19	1	6	-0.68101197	9.3730001	-0.18799999	2.4679999
20	1	4	0.114513	6.8340001	-0.95200002	2.0910001
21	1	4	0.114513	7.401	0.0040000002	0.667
22	1	4	0.076049998	5.7309999	1.098	3.029
23	1	4	0.076049998	6.2979999	2.0550001	1.604
24	1	4	0.084991001	4.4289999	-0.40700001	1.5
25	1	4	0.084991001	4.9959998	0.55000001	0.075999998
26	1	4	0.11788	3.326	1.6440001	2.438
27	1	4	0.11788	3.8929999	2.6010001	1.0140001
28	1	1	-0.177351	-2.105	1.174	0.28999999
29	1	2	0.049295001	-1.397	2.3840001	0.25799999
30	1	2	-0.170763	0.071999997	2.1700001	0.639
31	1	2	0.096166998	0.22	1.666	2.0780001
32	1	7	-0.68461001	1.576	1.54	2.4100001
33	1	8	0.379246	1.901	0.71399999	1.965
34	1	3	0.074516997	-0.29899999	0.68800002	2.2049999
35	1	3	0.074516997	-0.24600001	2.395	2.776
36	1	4	0.096240997	0.61299998	3.135	0.53500003
37	1	4	0.096240997	0.53299999	1.4400001	-0.061999999
38	1	3	0.081970997	-1.456	2.836	-0.75800002
39	1	3	0.081970997	-1.868	3.0969999	0.96799999
40	1	5	0.51771897	8.3459997	1.387	3.118
41	1	6	-0.68101197	8.1000004	1.312	4.3109999
42	1	2	-0.25734299	8.6149998	2.717	2.4790001
43	1	2	-0.091990001	9.908	3.3340001	3.0220001
44	1	2	-0.110309	10.2	4.6820002	2.345
45	1	2	-0.219147	11.454	5.3590002	2.914
46	1	5	0.82474399	12.7	4.6090002	2.556
47	1	6	-0.55197603	13.2	4.7280002	1.405
48	1	7	-0.66452199	13.289	3.7579999	3.4849999
49	1	8	0.39544499	14.124	3.234	3.2539999
50	1	4	0.118912	11.372	5.4460001	4.0190001
51	1	4	0.118912	11.526	6.3889999	2.5020001
52	1	4	0.084991001	9.335	5.362	2.5079999
53	1	4	0.084991001	10.317	4.539	1.248
54	1	4	0.076049998	9.8120003	3.4879999	4.119
55	1	4	0.076049998	10.751	2.6340001	2.835
56	1	4	0.114513	8.7049999	2.573	1.38
57	1	4	0.114513	7.756	3.3940001	2.675

Bonds

1	1	1	2
2	2	1	28
3	3	2	3
4	4	2	10
5	4	2	11
6	3	3	4
7	4	3	8
8	4	3	9
9	1	4	5
10	4	4	6
11	4	4	7
12	5	5	12
13	6	12	13
14	7	12	14
15	3	14	15
16	4	14	26
17	4	14	27
18	3	15	16
19	4	15	24
20	4	15	25
21	3	16	17
22	4	16	22
23	4	16	23
24	7	17	18
25	4	17	20
26	4	17	21
27	6	18	19
28	8	18	40
29	1	28	29
30	3	29	30
31	4	29	38
32	4	29	39
33	3	30	31
34	4	30	36
35	4	30	37
36	9	31	32
37	4	31	34
38	4	31	35
39	10	32	33
40	6	40	41
41	7	40	42
42	3	42	43
43	4	42	56
44	4	42	57
45	3	43	44
46	4	43	54
47	4	43	55
48	3	44	45
49	4	44	52
50	4	44	53
51	7	45	46
52	4	45	50
53	4	45	51
54	6	46	47
55	11	46	48
56	10	48	49

Angles

1	5	38	29	39
2	1	5	4	6
3	4	5	12	14
4	5	36	30	37
5	2	1	28	29
6	5	34	31	35
7	5	52	44	53
8	1	16	17	20
9	4	45	46	47
10	4	17	18	40
11	5	54	43	55
12	1	40	42	57
13	4	18	40	41
14	1	43	44	45
15	1	3	2	11
16	2	31	32	33
17	1	45	44	52
18	1	44	45	46
19	1	3	4	5
20	1	1	2	11
21	1	12	14	15
22	1	16	15	24
23	1	28	29	39
24	4	13	12	14
25	1	15	16	17
26	1	30	31	34
27	1	42	43	55
28	1	30	31	32
29	2	46	48	49
30	1	28	29	38
31	1	44	43	54
32	1	42	43	44
33	1	43	44	53
34	5	50	45	51
35	1	17	16	22
36	1	44	45	50
37	1	1	2	3
38	1	29	30	37
39	4	17	18	19
40	5	20	17	21
41	5	8	3	9
42	1	30	31	35
43	1	14	15	25
44	1	3	2	10
45	4	19	18	40
46	1	4	3	9
47	1	32	31	35
48	1	46	45	51
49	1	28	29	30
50	1	1	2	10
51	1	14	15	16
52	1	17	16	23
53	1	16	15	25
54	1	16	17	18
55	1	44	43	55
56	5	10	2	11
57	1	32	31	34
58	1	2	3	4
59	5	6	4	7
60	3	5	12	13
61	2	2	1	28
62	1	43	44	52
63	2	4	5	12
64	1	4	3	8
65	1	18	17	21
66	1	2	3	8
67	5	26	14	27
68	1	29	30	36
69	1	31	30	37
70	4	45	46	48
71	4	18	40	42
72	1	30	29	39
73	1	43	42	56
74	1	2	3	9
75	1	12	14	27
76	1	42	43	54
77	1	29	30	31
78	5	22	16	23
79	5	56	42	57
80	1	12	14	26
81	3	47	46	48
82	1	15	14	27
83	1	16	17	21
84	1	3	4	6
85	1	44	45	51
86	1	14	15	24
87	1	15	14	26
88	1	40	42	56
89	1	45	44	53
90	1	18	17	20
91	1	5	4	7
92	1	46	45	50
93	1	15	16	23
94	1	40	42	43
95	5	24	15	25
96	1	31	30	36
97	4	41	40	42
98	1	3	4	7
99	1	43	42	57
100	1	15	16	22
101	1	30	29	38

Dihedrals

1	13	54	43	42	57
2	2	1	2	3	8
2	3	1	2	3	8
3	13	6	4	3	8
4	2	28	29	30	36
4	3	28	29	30	36
5	6	15	16	17	20
6	13	24	15	14	27
7	1	43	44	45	46
8	24	33	32	31	35
9	6	45	44	43	55
10	13	9	3	2	10
11	21	17	18	40	42
12	13	8	3	2	11
13	13	36	30	29	39
14	2	5	4	3	9
14	3	5	4	3	9
15	13	6	4	3	9
16	1	46	45	44	52
17	14	13	12	14	15
18	1	28	29	30	31
19	15	41	40	42	56
19	16	41	40	42	56
19	17	41	40	42	56
20	13	37	30	29	38
21	6	43	44	45	50
22	15	19	18	17	21
22	16	19	18	17	21
22	17	19	18	17	21
23	24	33	32	31	34
24	12	48	46	45	51
25	14	41	40	42	43
26	6	17	16	15	25
27	13	23	16	15	25
28	13	52	44	43	55
29	13	51	45	44	52
30	6	42	43	44	53
31	21	19	18	40	42
32	15	47	46	45	51
32	16	47	46	45	51
32	17	47	46	45	51
33	13	53	44	43	54
34	2	5	4	3	8
34	3	5	4	3	8
35	6	44	43	42	56
36	12	20	17	18	40
37	1	12	14	15	16
38	4	6	4	5	12
39	5	2	1	28	29
40	4	1	28	29	39
41	1	40	42	43	55
42	12	16	17	18	40
43	1	18	17	16	22
44	1	40	42	43	44
45	4	1	28	29	38
46	13	8	3	2	10
47	12	5	12	14	15
48	6	4	3	2	11
49	13	36	30	29	38
50	15	41	40	42	57
50	16	41	40	42	57
50	17	41	40	42	57
51	12	21	17	18	40
52	2	32	31	30	37
52	3	32	31	30	37
53	1	12	14	15	24
54	1	15	16	17	18
55	13	22	16	15	25
56	9	4	5	12	13
56	10	4	5	12	13
57	13	55	43	42	56
58	14	44	45	46	47
59	15	19	18	17	20
59	16	19	18	17	20
59	17	19	18	17	20
60	22	30	31	32	33
60	23	30	31	32	33
61	7	3	4	5	12
61	8	3	4	5	12
62	6	14	15	16	23
63	6	2	3	4	7
64	26	47	46	48	49
64	27	47	46	48	49
65	6	44	43	42	57
66	1	18	17	16	23
67	6	42	43	44	52
68	13	25	15	14	27
69	6	45	44	43	54
70	13	34	31	30	37
71	4	1	28	29	30
72	21	17	18	40	41
73	13	35	31	30	37
74	6	14	15	16	22
75	14	16	17	18	19
76	13	34	31	30	36
77	13	25	15	14	26
78	6	31	30	29	39
79	13	50	45	44	53
80	13	20	17	16	23
81	6	31	30	29	38
82	15	13	12	14	27
82	16	13	12	14	27
82	17	13	12	14	27
83	6	2	3	4	6
84	12	48	46	45	50
85	6	4	3	2	10
86	6	17	16	15	24
87	13	23	16	15	24
88	13	52	44	43	54
89	1	1	2	3	4
90	4	7	4	5	12
91	13	7	4	3	8
92	6	43	44	45	51
93	13	55	43	42	57
94	12	18	40	42	56
95	13	20	17	16	22
96	21	19	18	40	41
97	15	47	46	45	50
97	16	47	46	45	50
97	17	47	46	45	50
98	15	13	12	14	26
98	16	13	12	14	26
98	17	13	12	14	26
99	2	28	29	30	37
99	3	28	29	30	37
100	2	32	31	30	36
100	3	32	31	30	36
101	4	11	2	1	28
102	13	21	17	16	23
103	6	15	16	17	21
104	12	18	40	42	43
105	13	54	43	42	56
106	1	2	3	4	5
107	13	53	44	43	55
108	13	21	17	16	22
109	6	29	30	31	34
110	1	29	30	31	32
111	4	3	2	1	28
112	13	7	4	3	9
113	1	40	42	43	54
114	25	45	46	48	49
115	13	9	3	2	11
116	1	46	45	44	53
117	18	42	43	44	45
117	19	42	43	44	45
117	20	42	43	44	45
118	13	37	30	29	39
119	18	14	15	16	17
119	19	14	15	16	17
119	20	14	15	16	17
120	2	1	2	3	9
120	3	1	2	3	9
121	13	24	15	14	26
122	13	35	31	30	36
123	13	22	16	15	24
124	11	4	5	12	14
125	6	16	15	14	27
126	12	5	12	14	27
127	13	50	45	44	52
128	4	10	2	1	28
129	13	51	45	44	53
130	6	29	30	31	35
131	1	12	14	15	25
132	12	18	40	42	57
133	6	16	15	14	26
134	12	5	12	14	26
135	12	44	45	46	48

Impropers

11	1	46	48	45	47
25	1	12	13	14	5
85	2	18	17	19	40
90	2	18	40	17	19
108	2	40	41	42	18
153	1	46	47	48	45
172	2	40	42	18	41
183	2	40	18	41	42
261	1	12	5	13	14
272	1	46	45	47	48
296	1	12	14	5	13
338	2	18	19	40	17
