Title

83 atoms
86 bonds
141 angles
217 dihedrals
84 impropers

8 atom types
13 bond types
6 angle types
21 dihedral types
2 improper types
-24.27000046 75.72999954 xlo xhi
-1.483999968 98.51600003 ylo yhi
-9.944999695 90.05500031 zlo zhi
0.0 0.0 0.0 xy xz yz

Masses

1	15.99943
2	12.01078
3	1.007947
4	12.01078
5	15.99943
6	1.007947
7	15.99943
8	1.007947


Pair Coeffs

1	0.16846514	3.0251065
2	0.10884061	3.3795318
3	0.016409246	2.5832257
4	0.086879315	3.4806469
5	0.2102061	3.0398122
6	0.015611343	2.5725815
7	0.20947353	2.99716
8	1.2326e-05	0.53453923

Bond Coeffs

1 harmonic	366.7408841747	1.425895053732
2 harmonic	300.03137914615	1.451203938761
3 harmonic	264.62148576755	1.52190126495
4 harmonic	370.04670688625	1.093899492634
5 harmonic	301.15400723785	1.345741232799
6 harmonic	582.698766451	1.225198386222
7 harmonic	279.1350963404	1.454628925034
8 harmonic	360.7852444772	1.387193227181
9 harmonic	397.2545789619	1.085358495916
10 harmonic	425.69104206635	1.362945806494
11 harmonic	329.96998057905	1.427343958716
12 harmonic	543.5267831885	0.9716763312559
13 harmonic	385.7604595587	1.369745182308


Angle Coeffs

1 harmonic	53.20531626545	116.5475862634
2 harmonic	65.09061609600001	110.3538806181
3 harmonic	201.41175231035	127.4691416191
4 harmonic	57.8982893754	126.8062420451
5 harmonic	48.776492647595	115.6030999533
6 harmonic	34.066775159195	129.1835929926


Dihedral Coeffs

1 fourier 1	-0.0309670556842	3	0
2 fourier 1	0.4598191477945	2	0
3 fourier 1	0.1115525666802	3	0
4 fourier 1	0.3432490222662	1	0
5 fourier 1	0.0473758381877	3	0
6 fourier 1	0.457973137376	1	0
7 fourier 1	0.1918272375143	3	0
8 fourier 1	0.9202179876409	1	180
9 fourier 1	1.163809172478	2	180
10 fourier 1	0.1679186987369	1	180
11 fourier 1	2.779853741805	2	180
12 fourier 1	0.9974165607242	2	180
13 fourier 1	0.1911926717192	3	0
14 fourier 1	3.661930099076	2	180
15 fourier 1	1.532232714475	2	180
16 fourier 1	0.3445382149273	3	0
17 fourier 1	0.1364556373303	1	0
18 fourier 1	0.3026390167484	3	0
19 fourier 1	2.687457892086	2	180
20 fourier 1	2.772607909663	2	180
21 fourier 1	0.09692684957115	1	0


Improper Coeffs

1 3.5	-1	2
2 0.3666666666666667	-1	2


Atoms

1	1	1	-0.13587099	1.576	-0.336	0.85699999
2	1	2	0.052143998	0.63599998	-0.419	-0.17900001
3	1	2	0.157198	-0.71899998	0.11	0.28999999
4	1	1	-0.50239599	-1.675	-0.035999998	-0.72399998
5	1	3	0.090286002	-1.051	-0.46900001	1.177
6	1	3	0.090286002	-0.63099998	1.1799999	0.58899999
7	1	3	0.097847	0.52999997	-1.484	-0.477
8	1	3	0.097847	0.98699999	0.154	-1.068
9	1	4	0.79209501	-1.49	0.71399999	-1.4170001
10	1	5	-0.55410999	-0.32300001	1.177	-1.518
11	1	4	-0.29929999	-2.5899999	1.2180001	-2.26
12	1	4	0.026013	-2.392	2.1889999	-3.1700001
13	1	6	0.220603	-1.414	2.632	-3.3110001
14	1	4	-0.35890001	-3.5150001	2.6719999	-4
15	1	6	0.20582099	-3.336	3.4549999	-4.7270002
16	1	4	0.213102	-4.744	2.1559999	-3.858
17	1	1	-0.41791001	-5.7740002	2.652	-4.6719999
18	1	2	0.085055001	-7.1490002	2.283	-4.5749998
19	1	2	0.085055001	-7.809	2.9679999	-3.3759999
20	1	1	-0.41791001	-9.184	2.599	-3.28
21	1	4	0.213102	-10.214	3.095	-4.0939999
22	1	4	-0.362656	-11.443	2.5780001	-3.951
23	1	6	0.20582099	-11.622	1.796	-3.2249999
24	1	4	0.060970001	-12.565	3.062	-4.7810001
25	1	6	0.20413101	-13.543	2.619	-4.6399999
26	1	4	-0.369082	-12.368	4.033	-5.691
27	1	4	0.58321398	-13.467	4.5359998	-6.5349998
28	1	5	-0.58139002	-14.635	4.073	-6.434
29	1	4	0.060970001	-11.013	4.6110001	-5.849
30	1	6	0.20413101	-10.84	5.3959999	-6.5749998
31	1	4	-0.362656	-9.9949999	4.1729999	-5.0970001
32	1	6	0.20582099	-9.0200005	4.618	-5.2329998
33	1	3	0.083714999	-7.7010002	4.072	-3.4400001
34	1	3	0.083714999	-7.3010001	2.645	-2.4449999
35	1	3	0.083714999	-7.257	1.179	-4.5120001
36	1	3	0.083714999	-7.6570001	2.6059999	-5.507
37	1	4	-0.35890001	-4.9619999	1.0779999	-2.855
38	1	6	0.20582099	-5.9369998	0.63200003	-2.7190001
39	1	4	0.026013	-3.9449999	0.63999999	-2.1029999
40	1	6	0.220603	-4.118	-0.145	-1.377
41	1	1	-0.130217	1.845	0.61799997	0.92000002
42	1	2	0.024096999	3.148	0.70099998	0.41100001
43	1	2	0.096118003	4.1529999	0.17200001	1.434
44	1	7	-0.67734998	5.461	0.31799999	0.95200002
45	1	8	0.39691499	5.5970001	-0.40000001	0.27900001
46	1	3	0.095734	4.0549998	0.75199997	2.3759999
47	1	3	0.095734	3.941	-0.89700001	1.663
48	1	3	0.098540001	3.3759999	1.766	0.192
49	1	3	0.098540001	3.23	0.12800001	-0.54100001
50	1	4	0.58321398	-13.274	5.3189998	-7.2579999
51	1	5	-0.58139002	-12.358	5.1529999	-8.1070004
52	1	4	-0.369082	-14.082	6.552	-7.2329998
53	1	4	0.060970001	-13.874	7.5489998	-8.1120005
54	1	6	0.20413101	-13.102	7.474	-8.868
55	1	4	-0.362656	-14.7	8.7740002	-8.0629997
56	1	6	0.20582099	-14.493	9.5530005	-8.7819996
57	1	4	0.213102	-15.673	8.9029999	-7.1389999
58	1	1	-0.41791001	-16.490999	10.042	-7.039
59	1	2	0.085055001	-16.527	11.132	-7.9619999
60	1	2	0.085055001	-17.249001	10.734	-9.2519999
61	1	1	-0.41791001	-18.542999	10.197	-8.9689999
62	1	4	0.213102	-19.672001	10.932	-8.5699997
63	1	4	-0.35890001	-19.704	12.279	-8.5480003
64	1	6	0.20582099	-18.851999	12.871	-8.8459997
65	1	4	0.029988	-20.926001	12.991	-8.1190004
66	1	6	0.220603	-20.915001	14.073	-8.1110001
67	1	4	-0.28846699	-22.023001	12.305	-7.7480001
68	1	4	0.830553	-23.249001	13.011	-7.3169999
69	1	5	-0.528382	-24.27	12.356	-6.973
70	1	7	-0.674106	-23.289	14.403	-7.2859998
71	1	8	0.40490499	-24.125999	14.892	-6.9920001
72	1	4	0.029988	-21.987	10.821	-7.7789998
73	1	6	0.220603	-22.857	10.245	-7.4879999
74	1	4	-0.35890001	-20.879	10.178	-8.1680002
75	1	6	0.20582099	-20.864	9.0959997	-8.1859999
76	1	3	0.083714999	-16.659	9.9549999	-9.7749996
77	1	3	0.083714999	-17.323999	11.599	-9.9449997
78	1	3	0.083714999	-15.502	11.499	-8.1800003
79	1	3	0.083714999	-17.070999	11.971	-7.4819999
80	1	4	-0.362656	-15.895	7.8070002	-6.171
81	1	6	0.20582099	-16.671	7.9029999	-5.4219999
82	1	4	0.060970001	-15.147	6.698	-6.2140002
83	1	6	0.20413101	-15.326	5.9050002	-5.4970002

Bonds

1	1	1	2
2	2	1	41
3	3	2	3
4	4	2	7
5	4	2	8
6	1	3	4
7	4	3	5
8	4	3	6
9	5	4	9
10	6	9	10
11	7	9	11
12	8	11	12
13	8	11	39
14	9	12	13
15	8	12	14
16	9	14	15
17	8	14	16
18	10	16	17
19	8	16	37
20	1	17	18
21	3	18	19
22	4	18	35
23	4	18	36
24	1	19	20
25	4	19	33
26	4	19	34
27	10	20	21
28	8	21	22
29	8	21	31
30	9	22	23
31	8	22	24
32	9	24	25
33	8	24	26
34	7	26	27
35	8	26	29
36	6	27	28
37	7	27	50
38	9	29	30
39	8	29	31
40	9	31	32
41	9	37	38
42	8	37	39
43	9	39	40
44	1	41	42
45	3	42	43
46	4	42	48
47	4	42	49
48	11	43	44
49	4	43	46
50	4	43	47
51	12	44	45
52	6	50	51
53	7	50	52
54	8	52	53
55	8	52	82
56	9	53	54
57	8	53	55
58	9	55	56
59	8	55	57
60	10	57	58
61	8	57	80
62	1	58	59
63	3	59	60
64	4	59	78
65	4	59	79
66	1	60	61
67	4	60	76
68	4	60	77
69	10	61	62
70	8	62	63
71	8	62	74
72	9	63	64
73	8	63	65
74	9	65	66
75	8	65	67
76	7	67	68
77	8	67	72
78	6	68	69
79	13	68	70
80	12	70	71
81	9	72	73
82	8	72	74
83	9	74	75
84	9	80	81
85	8	80	82
86	9	82	83

Angles

1	1	3	2	8
2	6	37	39	40
3	6	53	55	56
4	4	28	27	50
5	4	63	62	74
6	5	46	43	47
7	5	7	2	8
8	1	44	43	46
9	4	12	14	16
10	1	58	59	60
11	6	52	82	83
12	4	55	57	58
13	1	20	19	34
14	1	41	42	49
15	4	14	16	17
16	4	27	50	51
17	4	22	21	31
18	1	1	2	3
19	2	60	61	62
20	1	61	60	76
21	2	68	70	71
22	1	42	43	47
23	4	62	63	65
24	6	30	29	31
25	4	16	37	39
26	4	24	26	29
27	4	20	21	31
28	4	27	50	52
29	1	59	60	61
30	4	67	72	74
31	6	29	31	32
32	4	53	52	82
33	4	62	74	72
34	4	67	68	69
35	6	52	53	54
36	4	52	82	80
37	1	59	60	77
38	1	61	60	77
39	5	48	42	49
40	6	21	31	32
41	6	25	24	26
42	5	35	18	36
43	6	63	65	66
44	1	17	18	36
45	6	56	55	57
46	1	43	42	49
47	1	19	18	36
48	4	52	53	55
49	4	58	57	80
50	1	42	43	44
51	4	53	55	57
52	4	65	67	68
53	4	50	52	53
54	4	68	67	72
55	1	2	3	6
56	6	15	14	16
57	1	41	42	43
58	1	44	43	47
59	1	4	3	6
60	4	51	50	52
61	2	19	20	21
62	6	11	39	40
63	4	21	31	29
64	1	60	59	78
65	6	81	80	82
66	1	1	2	7
67	6	66	65	67
68	3	69	68	70
69	4	14	16	37
70	6	54	53	55
71	6	21	22	23
72	6	38	37	39
73	6	11	12	13
74	2	1	41	42
75	1	18	19	20
76	1	58	59	78
77	6	22	24	25
78	4	65	67	72
79	4	67	68	70
80	1	1	2	8
81	4	12	11	39
82	2	16	17	18
83	4	10	9	11
84	4	11	39	37
85	4	50	52	82
86	6	26	29	30
87	6	57	80	81
88	1	3	2	7
89	5	76	60	77
90	4	61	62	74
91	1	58	59	79
92	4	63	65	67
93	6	12	14	15
94	1	41	42	48
95	4	17	16	37
96	4	26	29	31
97	4	57	80	82
98	4	24	26	27
99	6	72	74	75
100	5	5	3	6
101	1	18	19	33
102	1	17	18	19
103	5	78	59	79
104	1	2	3	4
105	4	26	27	50
106	1	17	18	35
107	4	55	57	80
108	6	62	74	75
109	1	19	18	35
110	6	13	12	14
111	2	3	4	9
112	6	64	63	65
113	2	43	44	45
114	1	42	43	46
115	6	62	63	64
116	6	16	37	38
117	1	60	59	79
118	6	67	72	73
119	1	18	19	34
120	4	9	11	39
121	1	59	60	76
122	1	2	3	5
123	4	21	22	24
124	1	4	3	5
125	6	23	22	24
126	4	11	12	14
127	4	26	27	28
128	2	57	58	59
129	3	4	9	10
130	4	61	62	63
131	4	9	11	12
132	4	27	26	29
133	4	22	24	26
134	4	20	21	22
135	1	43	42	48
136	6	73	72	74
137	5	33	19	34
138	6	80	82	83
139	2	2	1	41
140	1	20	19	33
141	4	4	9	11

Dihedrals

1	13	47	43	42	48
2	14	54	53	55	57
3	14	63	62	74	75
4	14	13	12	14	15
5	14	50	52	82	83
6	14	11	12	14	16
7	14	20	21	22	24
8	5	1	41	42	43
9	14	62	63	65	67
10	13	5	3	2	8
11	12	4	9	11	12
12	3	4	3	2	8
12	4	4	3	2	8
13	14	64	63	62	74
14	7	16	17	18	19
14	8	16	17	18	19
15	14	27	26	29	30
16	12	24	26	27	50
17	9	3	4	9	10
17	10	3	4	9	10
18	14	25	24	26	27
19	5	8	2	1	41
20	14	23	22	24	25
21	14	11	39	37	16
22	14	55	53	52	82
23	13	76	60	59	79
24	7	57	58	59	60
24	8	57	58	59	60
25	5	16	17	18	35
26	15	19	20	21	31
27	13	46	43	42	49
28	14	13	12	14	16
29	1	1	2	3	4
29	2	1	2	3	4
30	14	57	80	82	83
31	14	53	52	82	83
32	5	5	3	4	9
33	14	14	16	37	39
34	1	41	42	43	44
34	2	41	42	43	44
35	12	69	68	67	72
36	14	61	62	74	75
37	14	12	11	39	40
38	14	63	62	74	72
39	15	60	61	62	74
40	14	27	26	29	31
41	14	50	52	53	54
42	14	50	52	82	80
43	14	65	67	72	74
44	14	61	62	63	64
45	14	22	24	26	27
46	14	55	57	80	81
47	1	17	18	19	20
47	2	17	18	19	20
48	14	12	14	16	37
49	13	34	19	18	36
50	14	16	37	39	40
51	20	69	68	70	71
51	21	69	68	70	71
52	3	61	60	59	78
52	4	61	60	59	78
53	14	14	12	11	39
54	15	14	16	17	18
55	14	15	14	16	17
56	12	51	50	52	53
57	5	62	61	60	76
58	14	23	22	21	31
59	14	21	22	24	26
60	14	50	52	53	55
61	14	53	55	57	80
62	5	7	2	1	41
63	14	53	52	82	80
64	14	9	11	12	13
65	14	55	57	80	82
66	5	21	20	19	33
67	3	44	43	42	48
67	4	44	43	42	48
68	12	10	9	11	12
69	13	77	60	59	78
70	13	6	3	2	7
71	14	12	11	39	37
72	14	21	31	29	30
73	14	65	63	62	74
74	5	1	41	42	48
75	14	81	80	82	83
76	15	18	17	16	37
77	14	30	29	31	32
78	13	47	43	42	49
79	14	64	63	65	66
80	14	9	11	39	37
81	3	20	19	18	36
81	4	20	19	18	36
82	6	2	1	41	42
83	14	21	31	29	26
84	11	3	4	9	11
85	14	15	14	16	37
86	14	9	11	12	14
87	19	67	68	70	71
88	13	33	19	18	35
89	14	62	74	72	73
90	13	77	60	59	79
91	13	6	3	2	8
92	12	28	27	26	29
93	5	1	41	42	49
94	14	23	22	24	26
95	14	26	29	31	32
96	15	60	61	62	63
97	14	20	21	31	32
98	12	24	26	27	28
99	12	51	50	52	82
100	12	70	68	67	72
101	3	1	2	3	5
101	4	1	2	3	5
102	12	10	9	11	39
103	14	58	57	80	81
104	12	26	27	50	51
105	14	68	67	72	73
106	15	59	58	57	80
107	14	56	55	57	58
108	12	65	67	68	69
109	14	24	22	21	31
110	14	63	65	67	72
111	14	17	16	37	38
112	14	25	24	26	29
113	14	61	62	63	65
114	14	61	62	74	72
115	14	52	53	55	56
116	14	63	65	67	68
117	5	57	58	59	78
118	3	61	60	59	79
118	4	61	60	59	79
119	12	26	27	50	52
120	3	41	42	43	46
120	4	41	42	43	46
121	3	58	59	60	76
121	4	58	59	60	76
122	5	62	61	60	77
123	12	27	50	52	53
124	12	65	67	68	70
125	14	24	26	29	30
126	5	16	17	18	36
127	14	11	12	14	15
128	14	20	21	22	23
129	14	22	24	26	29
130	7	18	19	20	21
130	8	18	19	20	21
131	3	17	18	19	33
131	4	17	18	19	33
132	5	21	20	19	34
133	3	44	43	42	49
133	4	44	43	42	49
134	13	34	19	18	35
135	3	4	3	2	7
135	4	4	3	2	7
136	5	57	58	59	79
137	18	45	44	43	46
138	3	58	59	60	77
138	4	58	59	60	77
139	7	59	60	61	62
139	8	59	60	61	62
140	13	76	60	59	78
141	14	64	63	65	67
142	13	46	43	42	48
143	14	24	26	29	31
144	14	66	65	67	68
145	14	62	74	72	67
146	3	1	2	3	6
146	4	1	2	3	6
147	14	14	16	37	38
148	3	17	18	19	34
148	4	17	18	19	34
149	5	6	3	4	9
150	15	55	57	58	59
151	12	29	26	27	50
152	12	28	27	50	51
153	14	12	14	16	17
154	14	22	21	31	32
155	14	54	53	52	82
156	14	65	67	72	73
157	18	45	44	43	47
158	3	20	19	18	35
158	4	20	19	18	35
159	14	53	55	57	58
160	12	27	50	52	82
161	15	19	20	21	22
162	14	52	82	80	81
163	16	42	43	44	45
163	17	42	43	44	45
164	14	58	57	80	82
165	14	54	53	55	56
166	14	68	67	72	74
167	14	67	72	74	75
168	14	20	21	31	29
169	5	3	2	1	41
170	14	17	16	37	39
171	14	21	22	24	25
172	12	28	27	50	52
173	14	13	12	11	39
174	14	62	63	65	66
175	14	38	37	39	40
176	14	9	11	39	40
177	14	66	65	67	72
178	14	52	82	80	57
179	13	33	19	18	36
180	14	52	53	55	57
181	13	5	3	2	7
182	14	11	39	37	38
183	1	58	59	60	61
183	2	58	59	60	61
184	14	56	55	57	80
185	14	73	72	74	75
186	3	41	42	43	47
186	4	41	42	43	47
187	7	2	3	4	9
187	8	2	3	4	9
188	14	22	21	31	29
189	12	4	9	11	39

Impropers

3	2	52	50	53	82
9	2	29	26	30	31
10	2	57	55	58	80
19	2	55	56	57	53
22	2	82	52	80	83
23	2	27	26	28	50
27	2	63	62	64	65
30	2	26	27	29	24
32	2	12	14	11	13
33	2	65	67	63	66
35	2	52	82	50	53
36	2	62	63	74	61
38	2	16	17	37	14
48	2	67	68	72	65
53	2	22	24	21	23
54	1	9	11	4	10
55	2	65	66	67	63
56	2	55	57	53	56
64	2	31	21	29	32
72	2	14	15	16	12
90	2	12	13	14	11
94	2	12	11	13	14
95	2	27	28	50	26
96	2	11	9	12	39
109	2	53	52	54	55
111	1	68	69	70	67
112	2	16	14	17	37
113	2	55	53	56	57
117	2	16	37	14	17
121	2	63	64	65	62
123	1	9	10	11	4
124	2	50	51	52	27
125	2	11	39	9	12
139	2	74	75	62	72
140	2	26	24	27	29
142	1	68	67	69	70
143	2	72	74	67	73
152	2	80	81	82	57
155	2	50	52	27	51
158	2	65	63	66	67
161	2	72	73	74	67
164	2	74	62	72	75
172	2	53	55	52	54
176	2	31	29	32	21
178	2	72	67	73	74
179	2	29	31	26	30
187	2	57	58	80	55
189	2	22	23	24	21
191	2	82	80	83	52
194	2	11	12	39	9
200	2	21	31	20	22
201	2	80	82	57	81
203	2	50	27	51	52
209	2	22	21	23	24
211	2	37	16	38	39
222	2	21	20	22	31
226	2	24	22	25	26
237	2	21	22	31	20
241	2	37	39	16	38
243	2	24	25	26	22
244	2	80	57	81	82
245	1	9	4	10	11
248	2	62	61	63	74
251	2	26	29	24	27
252	2	24	26	22	25
257	2	82	83	52	80
260	2	31	32	21	29
262	2	74	72	75	62
264	2	39	37	40	11
270	2	27	50	26	28
285	2	14	12	15	16
295	2	67	65	68	72
303	2	39	11	37	40
305	2	39	40	11	37
325	1	68	70	67	69
327	2	53	54	55	52
329	2	52	53	82	50
330	2	67	72	65	68
331	2	63	65	62	64
335	2	57	80	55	58
346	2	37	38	39	16
355	2	29	30	31	26
356	2	14	16	12	15
359	2	62	74	61	63
