Title

91 atoms
94 bonds
185 angles
377 dihedrals
12 impropers

8 atom types
11 bond types
5 angle types
27 dihedral types
2 improper types
-6.796999931 93.20300007 xlo xhi
-2.424999952 97.57500005 ylo yhi
-7.896999836 92.10300016 zlo zhi
0.0 0.0 0.0 xy xz yz

Masses

1	15.99943
2	12.01078
3	1.007947
4	1.007947
5	12.01078
6	15.99943
7	15.99943
8	1.007947


Pair Coeffs

1	0.16846514	3.0251065
2	0.10884061	3.3795318
3	0.015779483	2.6445434
4	0.016409246	2.5832257
5	0.086879315	3.4806469
6	0.2102061	3.0398122
7	0.20947353	2.99716
8	1.2326e-05	0.53453923

Bond Coeffs

1 harmonic	366.7408841747	1.425895053732
2 harmonic	300.03137914615	1.451203938761
3 harmonic	264.62148576755	1.52190126495
4 harmonic	370.04670688625	1.093899492634
5 harmonic	301.15400723785	1.345741232799
6 harmonic	582.698766451	1.225198386222
7 harmonic	329.44145381095	1.523435958334
8 harmonic	279.1350963404	1.454628925034
9 harmonic	329.96998057905	1.427343958716
10 harmonic	543.5267831885	0.9716763312559
11 harmonic	385.7604595587	1.369745182308


Angle Coeffs

1 harmonic	53.20531626545	116.5475862634
2 harmonic	65.09061609600001	110.3538806181
3 harmonic	48.776492647595	115.6030999533
4 harmonic	201.41175231035	127.4691416191
5 harmonic	57.8982893754	126.8062420451


Dihedral Coeffs

1 fourier 1	0.1115525666802	3	0
2 fourier 1	0.3432490222662	1	0
3 fourier 1	0.1155372516788	3	0
4 fourier 1	0.0473758381877	3	0
5 fourier 1	0.457973137376	1	0
6 fourier 1	0.1040663847541	3	0
7 fourier 1	0.09223874044423	3	0
8 fourier 1	0.3159935921949	2	180
9 fourier 1	0.3247796806857	1	180
10 fourier 1	0.1911926717192	3	0
11 fourier 1	0.1918272375143	3	0
12 fourier 1	0.9202179876409	1	180
13 fourier 1	1.163809172478	2	180
14 fourier 1	0.1679186987369	1	180
15 fourier 1	2.779853741805	2	180
16 fourier 1	0.02664938770063	3	0
17 fourier 1	0.4541676554336	1	0
18 fourier 1	0.1489710476446	2	0
19 fourier 1	0.02960027280666	3	180
20 fourier 1	-0.3703352413219	2	0
21 fourier 1	0.9974165607242	2	180
22 fourier 1	0.3445382149273	3	0
23 fourier 1	0.1364556373303	1	0
24 fourier 1	0.3026390167484	3	0
25 fourier 1	2.687457892086	2	180
26 fourier 1	2.772607909663	2	180
27 fourier 1	0.09692684957115	1	0


Improper Coeffs

1 3.5	-1	2
2 0.3666666666666667	-1	2


Atoms

1	1	1	-0.154956	3.734	0.289	0.2
2	1	2	0.014841	2.721	-0.61799997	-0.14300001
3	1	2	-0.074804999	1.439	0.125	-0.56800002
4	1	3	0.083659999	1.692	0.74000001	-1.461
5	1	2	-0.166711	0.33199999	-0.87400001	-1.003
6	1	3	0.089565001	0.77499998	-1.819	-1.388
7	1	3	0.089565001	-0.249	-0.43200001	-1.842
8	1	2	-0.16711999	-0.63700002	-1.1950001	0.142
9	1	3	0.088926002	-1.3609999	-1.967	-0.197
10	1	3	0.088926002	-0.057	-1.648	0.97600001
11	1	2	-0.075319998	-1.369	0.075000003	0.66100001
12	1	2	0.104018	-2.76	0.23	0.023
13	1	1	-0.471201	-3.592	-0.82700002	0.419
14	1	4	0.090292998	-2.6689999	0.244	-1.086
15	1	4	0.090292998	-3.214	1.191	0.354
16	1	3	0.080844998	-1.518	-0.052000001	1.757
17	1	2	-0.16711999	-0.53899997	1.367	0.44999999
18	1	3	0.088926002	-0.82700002	2.1210001	1.215
19	1	3	0.088926002	-0.74699998	1.809	-0.55000001
20	1	2	-0.166711	0.963	1.087	0.55299997
21	1	3	0.089565001	1.1720001	0.65499997	1.557
22	1	3	0.089565001	1.521	2.046	0.479
23	1	4	0.090875	2.5079999	-1.2640001	0.736
24	1	4	0.090875	3.073	-1.28	-0.96700001
25	1	5	0.69810998	-4.5019999	-0.67199999	-0.057999998
26	1	6	-0.52775699	-5.5370002	-0.76300001	0.58399999
27	1	2	-0.15242399	-4.5300002	-0.34599999	-1.528
28	1	3	0.1285	-3.477	-0.36000001	-1.89
29	1	2	-0.131458	-5.3099999	-1.414	-2.313
30	1	3	0.095968999	-6.375	-1.4	-1.99
31	1	3	0.095968999	-4.9039998	-2.425	-2.0880001
32	1	2	-0.107637	-5.2410002	-1.171	-3.836
33	1	3	0.088376001	-6.177	-1.568	-4.2880001
34	1	3	0.088376001	-4.3990002	-1.7589999	-4.2620001
35	1	2	-0.220404	-5.039	0.31799999	-4.2129998
36	1	5	0.49355099	-5.5440001	0.59899998	-5.6040001
37	1	6	-0.65797299	-6.7290001	0.48100001	-5.8759999
38	1	3	0.108475	-3.947	0.53500003	-4.2080002
39	1	2	-0.107637	-5.7059999	1.25	-3.187
40	1	3	0.088376001	-6.7969999	1.033	-3.151
41	1	3	0.088376001	-5.585	2.3110001	-3.5
42	1	2	-0.131458	-5.1090002	1.0700001	-1.774
43	1	3	0.095968999	-5.9060001	1.304	-1.034
44	1	3	0.095968999	-4.2969999	1.814	-1.624
45	1	1	-0.154956	4.0710001	0.67400002	-0.64999998
46	1	2	0.014841	3.0969999	1.581	-1.0930001
47	1	2	-0.074804999	1.8710001	0.838	-1.661
48	1	3	0.083659999	1.4450001	0.223	-0.83600003
49	1	2	-0.165925	0.76599997	1.837	-2.0999999
50	1	3	0.089565001	0.82499999	2.7820001	-1.517
51	1	3	0.089565001	-0.23199999	1.395	-1.887
52	1	2	-0.158859	0.84299999	2.158	-3.598
53	1	3	0.089565001	0.083999999	2.9300001	-3.8469999
54	1	3	0.089565001	1.836	2.6110001	-3.8099999
55	1	2	-0.11625	0.66500002	0.88800001	-4.4780002
56	1	2	0.077036001	-0.78600001	0.73400003	-4.9650002
57	1	7	-0.67630601	-1.122	1.79	-5.822
58	1	8	0.37401801	-2.0669999	1.642	-6.086
59	1	4	0.079031996	-1.479	0.71899998	-4.0929999
60	1	4	0.079031996	-0.89099997	-0.228	-5.5170002
61	1	3	0.087334998	1.306	1.015	-5.3800001
62	1	2	-0.158859	1.126	-0.40400001	-3.756
63	1	3	0.089565001	1.439	-1.158	-4.5110002
64	1	3	0.089565001	0.28999999	-0.84600002	-3.1689999
65	1	2	-0.165925	2.2909999	-0.124	-2.803
66	1	3	0.089565001	3.131	0.308	-3.3929999
67	1	3	0.089565001	2.648	-1.0829999	-2.368
68	1	4	0.090875	3.543	2.227	-1.88
69	1	4	0.090875	2.79	2.243	-0.25099999
70	1	5	0.49355	-4.8499999	0.91600001	-6.375
71	1	6	-0.657974	-5.007	0.52399999	-7.5209999
72	1	2	-0.220404	-3.7130001	1.839	-6.0229998
73	1	3	0.108475	-3.8080001	2.0829999	-4.941
74	1	2	-0.107637	-2.3440001	1.147	-6.2459998
75	1	3	0.088376001	-2.1140001	0.52600002	-5.3530002
76	1	3	0.088376001	-2.3870001	0.45899999	-7.119
77	1	2	-0.126636	-1.187	2.141	-6.4840002
78	1	3	0.095968999	-0.242	1.7	-6.0949998
79	1	3	0.095968999	-1.0599999	2.296	-7.579
80	1	2	-0.17300799	-1.451	3.4979999	-5.8080001
81	1	5	0.76756001	-0.264	4.4109998	-5.9450002
82	1	6	-0.52959102	0.219	4.6659999	-7.0809999
83	1	7	-0.64938301	0.292	4.9949999	-4.8109999
84	1	8	0.39486	1.087	5.619	-4.8839998
85	1	3	0.130758	-1.607	3.3069999	-4.7220001
86	1	2	-0.126636	-2.7279999	4.1680002	-6.3730001
87	1	3	0.095968999	-2.4820001	4.8070002	-7.2490001
88	1	3	0.095968999	-3.1500001	4.8369999	-5.5900002
89	1	2	-0.107637	-3.809	3.1559999	-6.8119998
90	1	3	0.088376001	-4.8130002	3.6129999	-6.6700001
91	1	3	0.088376001	-3.687	2.9419999	-7.8969998

Bonds

1	1	1	2
2	2	1	45
3	3	2	3
4	4	2	23
5	4	2	24
6	4	3	4
7	3	3	5
8	3	3	20
9	4	5	6
10	4	5	7
11	3	5	8
12	4	8	9
13	4	8	10
14	3	8	11
15	3	11	12
16	4	11	16
17	3	11	17
18	1	12	13
19	4	12	14
20	4	12	15
21	5	13	25
22	4	17	18
23	4	17	19
24	3	17	20
25	4	20	21
26	4	20	22
27	6	25	26
28	7	25	27
29	4	27	28
30	3	27	29
31	3	27	42
32	4	29	30
33	4	29	31
34	3	29	32
35	4	32	33
36	4	32	34
37	3	32	35
38	7	35	36
39	4	35	38
40	3	35	39
41	6	36	37
42	8	36	70
43	4	39	40
44	4	39	41
45	3	39	42
46	4	42	43
47	4	42	44
48	1	45	46
49	3	46	47
50	4	46	68
51	4	46	69
52	4	47	48
53	3	47	49
54	3	47	65
55	4	49	50
56	4	49	51
57	3	49	52
58	4	52	53
59	4	52	54
60	3	52	55
61	3	55	56
62	4	55	61
63	3	55	62
64	9	56	57
65	4	56	59
66	4	56	60
67	10	57	58
68	4	62	63
69	4	62	64
70	3	62	65
71	4	65	66
72	4	65	67
73	6	70	71
74	7	70	72
75	4	72	73
76	3	72	74
77	3	72	89
78	4	74	75
79	4	74	76
80	3	74	77
81	4	77	78
82	4	77	79
83	3	77	80
84	7	80	81
85	4	80	85
86	3	80	86
87	6	81	82
88	11	81	83
89	10	83	84
90	4	86	87
91	4	86	88
92	3	86	89
93	4	89	90
94	4	89	91

Angles

1	1	27	42	43
2	1	56	55	62
3	1	81	80	85
4	1	86	89	90
5	1	64	62	65
6	1	13	12	15
7	1	50	49	52
8	1	72	74	75
9	1	17	20	22
10	1	32	35	36
11	1	8	11	16
12	1	29	32	35
13	1	3	5	7
14	1	47	65	66
15	1	49	52	54
16	1	48	47	65
17	1	77	80	86
18	1	86	89	91
19	3	9	8	10
20	1	39	42	44
21	1	47	49	50
22	1	19	17	20
23	5	71	70	72
24	1	74	77	79
25	1	79	77	80
26	1	2	3	20
27	1	13	12	14
28	1	8	11	12
29	5	35	36	37
30	1	5	8	10
31	5	36	70	71
32	1	17	20	21
33	1	52	55	56
34	1	57	56	60
35	1	72	74	77
36	3	6	5	7
37	1	2	3	5
38	1	11	12	15
39	1	49	52	53
40	1	55	56	60
41	2	81	83	84
42	1	16	11	17
43	5	36	70	72
44	1	46	47	48
45	1	47	49	51
46	1	55	56	57
47	1	70	72	73
48	1	46	47	65
49	1	3	20	22
50	1	77	80	81
51	1	3	2	23
52	1	11	17	20
53	3	14	12	15
54	1	45	46	47
55	1	11	12	14
56	1	27	29	31
57	1	11	12	13
58	1	1	2	24
59	1	45	46	68
60	1	54	52	55
61	1	31	29	32
62	1	11	17	19
63	3	53	52	54
64	1	1	2	23
65	1	32	35	38
66	1	47	46	68
67	5	80	81	83
68	1	36	35	38
69	3	78	77	79
70	1	39	42	43
71	3	23	2	24
72	1	47	65	67
73	1	87	86	89
74	1	3	20	21
75	1	28	27	42
76	1	5	8	11
77	4	13	25	26
78	1	4	3	5
79	1	8	11	17
80	1	27	29	30
81	1	3	5	8
82	1	29	32	33
83	1	63	62	65
84	1	10	8	11
85	1	35	39	42
86	1	72	74	76
87	1	55	62	63
88	1	12	11	16
89	3	63	62	64
90	1	27	42	39
91	1	49	52	55
92	1	27	29	32
93	1	28	27	29
94	1	81	80	86
95	3	87	86	88
96	5	80	81	82
97	1	34	32	35
98	4	82	81	83
99	1	73	72	89
100	1	85	80	86
101	1	76	74	77
102	1	3	2	24
103	1	47	49	52
104	1	6	5	8
105	1	47	65	62
106	1	49	47	65
107	1	80	86	89
108	1	5	8	9
109	1	27	42	44
110	3	50	49	51
111	1	45	46	69
112	1	48	47	49
113	1	4	3	20
114	1	52	55	62
115	1	33	32	35
116	1	47	46	69
117	1	18	17	20
118	1	72	89	90
119	1	35	39	41
120	1	32	35	39
121	2	2	1	45
122	1	25	27	29
123	1	55	62	64
124	1	74	77	78
125	1	88	86	89
126	1	72	89	91
127	1	80	86	88
128	2	1	45	46
129	1	55	56	59
130	1	53	52	55
131	1	62	65	66
132	1	77	80	85
133	3	33	32	34
134	1	3	5	6
135	5	26	25	27
136	1	70	72	74
137	1	46	47	49
138	1	52	55	61
139	1	78	77	80
140	1	75	74	77
141	1	7	5	8
142	1	29	27	42
143	2	56	57	58
144	1	11	17	18
145	1	12	11	17
146	1	40	39	42
147	1	74	77	80
148	1	74	72	89
149	1	25	27	42
150	1	5	3	20
151	1	70	72	89
152	1	80	86	87
153	1	72	89	86
154	3	90	89	91
155	5	35	36	70
156	1	1	2	3
157	3	30	29	31
158	1	55	62	65
159	3	68	46	69
160	1	36	35	39
161	3	18	17	19
162	1	61	55	62
163	1	35	39	40
164	5	37	36	70
165	1	57	56	59
166	1	2	3	4
167	1	56	55	61
168	1	51	49	52
169	1	73	72	74
170	3	40	39	41
171	1	41	39	42
172	1	38	35	39
173	1	62	65	67
174	1	29	32	34
175	3	75	74	76
176	1	3	20	17
177	1	25	27	28
178	3	21	20	22
179	5	13	25	27
180	1	30	29	32
181	2	12	13	25
182	3	43	42	44
183	3	66	65	67
184	3	59	56	60
185	1	9	8	11

Dihedrals

1	10	28	27	29	31
2	20	82	81	80	86
3	16	77	80	81	83
4	10	34	32	35	38
5	6	85	80	86	89
6	7	74	72	89	86
6	8	74	72	89	86
6	9	74	72	89	86
7	6	33	32	35	39
8	3	81	80	86	88
9	6	16	11	17	20
10	7	47	49	52	55
10	8	47	49	52	55
10	9	47	49	52	55
11	6	65	47	46	68
12	3	70	72	89	86
13	24	58	57	56	60
14	6	46	47	65	67
15	10	78	77	80	85
16	6	47	65	62	63
17	10	38	35	39	40
18	3	25	27	42	44
19	7	29	27	42	39
19	8	29	27	42	39
19	9	29	27	42	39
20	10	4	3	5	7
21	10	18	17	20	22
22	3	45	46	47	49
23	6	55	62	65	66
24	7	32	35	39	42
24	8	32	35	39	42
24	9	32	35	39	42
25	7	47	65	62	55
25	8	47	65	62	55
25	9	47	65	62	55
26	3	70	72	89	90
27	6	73	72	74	77
28	6	74	72	89	90
29	1	13	12	11	16
29	2	13	12	11	16
30	4	23	2	1	45
31	3	74	77	80	81
32	10	79	77	80	85
33	10	59	56	55	61
34	4	14	12	13	25
35	16	83	81	80	85
36	6	72	74	77	79
37	10	31	29	32	33
38	20	71	70	72	74
39	6	80	86	89	91
40	10	19	17	20	22
41	10	15	12	11	16
42	25	80	81	83	84
43	6	3	5	8	9
44	6	5	3	20	22
45	3	52	55	56	57
46	10	53	52	55	61
47	6	4	3	20	17
48	6	29	27	42	44
49	20	77	80	81	82
50	10	6	5	8	10
51	6	47	65	62	64
52	10	18	17	20	21
53	10	51	49	52	54
54	10	4	3	20	22
55	6	28	27	42	39
56	6	28	27	29	32
57	10	10	8	11	16
58	6	5	8	11	16
59	10	76	74	77	78
60	6	2	3	20	21
61	6	80	86	89	90
62	7	46	47	49	52
62	8	46	47	49	52
62	9	46	47	49	52
63	10	30	29	32	33
64	10	48	47	65	66
65	10	40	39	42	44
66	7	46	47	65	62
66	8	46	47	65	62
66	9	46	47	65	62
67	10	73	72	74	75
68	7	77	80	86	89
68	8	77	80	86	89
68	9	77	80	86	89
69	7	2	3	5	8
69	8	2	3	5	8
69	9	2	3	5	8
70	6	27	29	32	34
71	10	48	47	49	50
72	6	49	47	65	66
73	3	57	56	55	62
74	10	54	52	55	61
75	6	20	3	2	24
76	10	61	55	62	64
77	4	1	45	46	68
78	6	79	77	80	86
79	6	2	3	5	6
80	6	20	3	2	23
81	3	33	32	35	36
82	10	50	49	52	54
83	6	53	52	55	62
84	10	60	56	55	61
85	10	51	49	52	53
86	3	25	27	42	43
87	6	65	47	46	69
88	10	85	80	86	87
89	10	73	72	74	76
90	3	70	72	74	75
91	4	24	2	1	45
92	20	32	35	36	37
93	6	55	62	65	67
94	6	77	80	86	88
95	7	8	11	17	20
95	8	8	11	17	20
95	9	8	11	17	20
96	7	32	29	27	42
96	8	32	29	27	42
96	9	32	29	27	42
97	6	76	74	77	80
98	10	7	5	8	10
99	10	16	11	17	19
100	6	76	74	72	89
101	6	6	5	8	11
102	10	88	86	89	90
103	6	4	3	5	8
104	10	48	47	49	51
105	6	75	74	72	89
106	6	54	52	55	62
107	1	57	56	55	61
107	2	57	56	55	61
108	6	52	55	56	60
109	3	13	12	11	17
110	10	28	27	29	30
111	6	5	3	2	24
112	6	29	27	42	43
113	7	27	29	32	35
113	8	27	29	32	35
113	9	27	29	32	35
114	10	50	49	52	53
115	6	51	49	47	65
116	10	85	80	86	88
117	7	29	32	35	39
117	8	29	32	35	39
117	9	29	32	35	39
118	6	5	3	2	23
119	10	88	86	89	91
120	6	60	56	55	62
121	6	3	20	17	18
122	10	87	86	89	91
123	16	36	70	72	89
124	10	75	74	77	79
125	17	37	36	35	38
125	18	37	36	35	38
125	19	37	36	35	38
126	6	15	12	11	17
127	10	4	3	2	24
128	4	15	12	13	25
129	5	2	1	45	46
130	3	70	72	74	77
131	20	71	70	72	89
132	6	31	29	27	42
133	10	4	3	2	23
134	10	40	39	42	43
135	10	48	47	46	68
136	26	82	81	83	84
136	27	82	81	83	84
137	6	49	47	46	69
138	6	49	52	55	61
139	4	3	2	1	45
140	6	49	47	46	68
141	10	9	8	11	16
142	10	48	47	65	67
143	6	10	8	11	17
144	7	5	8	11	17
144	8	5	8	11	17
144	9	5	8	11	17
145	6	50	49	47	65
146	10	19	17	20	21
147	6	10	8	11	12
148	7	5	8	11	12
148	8	5	8	11	12
148	9	5	8	11	12
149	7	12	11	17	20
149	8	12	11	17	20
149	9	12	11	17	20
150	10	33	32	35	38
151	6	5	3	20	21
152	4	1	45	46	69
153	6	32	35	39	41
154	10	16	11	17	18
155	11	11	12	13	25
155	12	11	12	13	25
156	21	35	36	70	71
157	6	49	47	65	67
158	10	6	5	8	9
159	15	12	13	25	27
160	6	7	5	8	11
161	3	36	35	39	42
162	6	51	49	52	55
163	16	83	81	80	86
164	10	28	27	42	44
165	6	12	11	17	19
166	6	30	29	27	42
167	6	32	35	39	40
168	10	4	3	20	21
169	21	35	36	70	72
170	6	34	32	35	39
171	21	37	36	70	71
172	10	61	55	62	63
173	6	56	55	62	63
174	1	1	2	3	4
174	2	1	2	3	4
175	3	25	27	29	31
176	6	38	35	39	42
177	10	41	39	42	43
178	7	49	52	55	62
178	8	49	52	55	62
178	9	49	52	55	62
179	6	72	89	86	87
180	6	27	42	39	41
181	1	45	46	47	48
181	2	45	46	47	48
182	17	82	81	80	85
182	18	82	81	80	85
182	19	82	81	80	85
183	7	27	42	39	35
183	8	27	42	39	35
183	9	27	42	39	35
184	21	37	36	70	72
185	6	8	11	12	15
186	3	45	46	47	65
187	16	13	25	27	42
188	6	72	74	77	78
189	6	50	49	52	55
190	10	87	86	89	90
191	10	63	62	65	66
192	6	8	11	17	19
193	6	53	52	55	56
194	6	27	42	39	40
195	3	29	32	35	36
196	16	36	70	72	73
197	16	39	35	36	70
198	3	70	72	74	76
199	10	4	3	5	6
200	3	81	80	86	89
201	6	52	55	62	63
202	7	49	47	65	62
202	8	49	47	65	62
202	9	49	47	65	62
203	6	8	11	12	14
204	10	64	62	65	66
205	6	11	17	20	22
206	3	8	11	12	13
207	10	76	74	77	79
208	6	47	49	52	54
209	3	25	27	29	30
210	10	7	5	8	9
211	6	27	29	32	33
212	3	36	35	39	41
213	10	48	47	46	69
214	7	52	49	47	65
214	8	52	49	47	65
214	9	52	49	47	65
215	7	3	5	8	11
215	8	3	5	8	11
215	9	3	5	8	11
216	16	13	25	27	29
217	6	72	89	86	88
218	10	73	72	89	91
219	6	54	52	55	56
220	6	78	77	80	86
221	6	77	80	86	87
222	24	58	57	56	59
223	10	30	29	32	34
224	3	25	27	29	32
225	10	38	35	39	41
226	6	35	39	42	44
227	10	41	39	42	44
228	10	28	27	42	43
229	7	72	74	77	80
229	8	72	74	77	80
229	9	72	74	77	80
230	6	9	8	11	17
231	6	6	5	3	20
232	6	3	5	8	10
233	6	11	17	20	21
234	6	9	8	11	12
235	20	26	25	27	42
236	6	46	47	65	66
237	7	2	3	20	17
237	8	2	3	20	17
237	9	2	3	20	17
238	3	1	2	3	20
239	6	8	11	17	18
240	3	34	32	35	36
241	10	14	12	11	16
242	6	47	49	52	53
243	16	13	25	27	28
244	7	52	55	62	65
244	8	52	55	62	65
244	9	52	55	62	65
245	6	46	47	49	50
246	6	31	29	32	35
247	6	52	55	56	59
248	6	75	74	77	80
249	6	2	3	20	22
250	22	55	56	57	58
250	23	55	56	57	58
251	16	36	70	72	74
252	6	14	12	11	17
253	6	52	55	62	64
254	7	5	3	20	17
254	8	5	3	20	17
254	9	5	3	20	17
255	6	74	72	89	91
256	3	70	72	89	91
257	6	29	32	35	38
258	6	74	77	80	85
259	20	26	25	27	29
260	3	1	2	3	5
261	13	12	13	25	26
261	14	12	13	25	26
262	10	63	62	65	67
263	6	48	47	49	52
264	6	73	72	89	86
265	3	78	77	80	81
266	6	48	47	65	62
267	6	30	29	32	35
268	7	74	77	80	86
268	8	74	77	80	86
268	9	74	77	80	86
269	7	8	5	3	20
269	8	8	5	3	20
269	9	8	5	3	20
270	17	71	70	72	73
270	18	71	70	72	73
270	19	71	70	72	73
271	10	75	74	77	78
272	10	31	29	32	34
273	6	2	3	5	7
274	10	73	72	89	90
275	3	79	77	80	81
276	3	81	80	86	87
277	6	46	47	49	51
278	10	64	62	65	67
279	7	49	52	55	56
279	8	49	52	55	56
279	9	49	52	55	56
280	6	7	5	3	20
281	20	37	36	35	39
282	4	1	45	46	47
283	6	61	55	62	65
284	6	12	11	17	18
285	3	25	27	42	39
286	7	56	55	62	65
286	8	56	55	62	65
286	9	56	55	62	65
287	6	59	56	55	62
288	7	77	74	72	89
288	8	77	74	72	89
288	9	77	74	72	89
289	17	26	25	27	28
289	18	26	25	27	28
289	19	26	25	27	28
290	6	3	20	17	19
291	16	32	35	36	70
292	7	72	89	86	80
292	8	72	89	86	80
292	9	72	89	86	80
293	6	35	39	42	43
294	7	3	20	17	11
294	8	3	20	17	11
294	9	3	20	17	11
295	3	36	35	39	40
296	16	38	35	36	70
297	6	56	55	62	64

Impropers

28	2	70	36	71	72
119	1	25	13	26	27
168	2	36	37	70	35
339	1	25	27	13	26
401	2	70	71	72	36
517	1	25	26	27	13
532	1	81	83	80	82
558	1	81	82	83	80
666	1	81	80	82	83
668	2	36	70	35	37
669	2	70	72	36	71
671	2	36	35	37	70
