Title

239 atoms
260 bonds
439 angles
669 dihedrals
348 impropers

11 atom types
15 bond types
9 angle types
19 dihedral types
3 improper types
-14.62699986 85.37300014 xlo xhi
-7.171999931 92.82800007 ylo yhi
-11.65600014 88.34399986 zlo zhi
0.0 0.0 0.0 xy xz yz

Masses

1	14.00672
2	12.01078
3	1.007947
4	15.99943
5	1.007947
6	12.01078
7	18.998403
8	15.99943
9	1.007947
10	15.99943
11	1.007947


Pair Coeffs

1	0.16769152	3.206876
2	0.086879315	3.4806469
3	0.015611343	2.5725815
4	0.16846514	3.0251065
5	0.014090815	1.1034277
6	0.10884061	3.3795318
7	0.061	3.1181455
8	0.2102061	3.0398122
9	0.015779483	2.6445434
10	0.20947353	2.99716
11	1.2326e-05	0.53453923

Bond Coeffs

1 harmonic	390.03554688505	1.390160554689
2 harmonic	505.144496193	1.019481865027
3 harmonic	422.7150220147	1.421786517481
4 harmonic	360.7852444772	1.387193227181
5 harmonic	397.2545789619	1.085358495916
6 harmonic	279.1350963404	1.454628925034
7 harmonic	425.69104206635	1.362945806494
8 harmonic	289.73813263395	1.498646816465
9 harmonic	492.76746816345	1.381897776683
10 harmonic	340.45121009905	1.358690858053
11 harmonic	582.698766451	1.225198386222
12 harmonic	264.62148576755	1.52190126495
13 harmonic	370.04670688625	1.093899492634
14 harmonic	385.7604595587	1.369745182308
15 harmonic	543.5267831885	0.9716763312559


Angle Coeffs

1 harmonic	57.8982893754	126.8062420451
2 harmonic	55.42182150775	117.3465570514
3 harmonic	63.44422595415	115.5071327674
4 harmonic	34.066775159195	129.1835929926
5 harmonic	65.09061609600001	110.3538806181
6 harmonic	53.20531626545	116.5475862634
7 harmonic	79.1895422237	112.4630193006
8 harmonic	48.776492647595	115.6030999533
9 harmonic	201.41175231035	127.4691416191


Dihedral Coeffs

1 fourier 1	3.661930099076	2	180
2 fourier 1	1.193093382682	2	180
3 fourier 1	0.02021088501612	1	0
4 fourier 1	1.163235555439	2	180
5 fourier 1	1.532232714475	2	180
6 fourier 1	0.02664938770063	3	0
7 fourier 1	1.659715194912	2	180
8 fourier 1	3.101948770557	2	180
9 fourier 1	-0.4252153282372	1	0
10 fourier 1	1.809047390003	2	180
11 fourier 1	-0.04816277792592	1	0
12 fourier 1	0.9974165607242	2	180
13 fourier 1	2.348375642009	2	180
14 fourier 1	1.256156174911	1	0
15 fourier 1	0.1155372516788	3	0
16 fourier 1	0.1040663847541	3	0
17 fourier 1	2.687457892086	2	180
18 fourier 1	2.772607909663	2	180
19 fourier 1	0.09692684957115	1	0


Improper Coeffs

1 0.3666666666666667	-1	2
2 0.3333333333333333	-1	2
3 3.5	-1	2


Atoms

1	1	1	-0.413721	13.227	3.1159999	2.0409999
2	1	2	0.122744	11.882	2.905	1.597
3	1	2	-0.41032401	11.631	2.575	0.324
4	1	3	0.21764	12.443	2.473	-0.384
5	1	2	-0.119372	10.238	2.3789999	-0.14399999
6	1	3	0.20062099	10.074	2.151	-1.188
7	1	2	-0.13125201	9.2060003	2.516	0.70999998
8	1	2	-0.137392	7.802	2.3659999	0.24600001
9	1	2	-0.135015	6.8449998	3.201	0.69
10	1	3	0.20393001	7.0780001	3.997	1.388
11	1	2	-0.29999599	5.454	3.0599999	0.23100001
12	1	3	0.220127	4.7010002	3.7360001	0.61500001
13	1	2	0.32484099	5.1170001	2.1040001	-0.64499998
14	1	4	-0.285658	3.777	2.0009999	-1.031
15	1	2	0.29642501	2.9119999	0.96200001	-0.65700001
16	1	2	-0.32477099	3.2809999	-0.028999999	0.178
17	1	3	0.226696	4.2740002	-0.056000002	0.61299998
18	1	2	-0.108716	2.3269999	-1.104	0.51999998
19	1	3	0.20975301	2.6570001	-1.891	1.1900001
20	1	2	-0.115887	1.0779999	-1.114	0.003
21	1	2	0.23927601	0.66799998	0.0089999996	-0.88599998
22	1	2	-0.32694799	1.54	0.97299999	-1.201
23	1	3	0.22353099	1.24	1.777	-1.862
24	1	4	-0.30851501	-0.625	0.082000002	-1.398
25	1	2	0.23927601	-1.573	-0.91900003	-1.189
26	1	2	-0.32694799	-2.7909999	-0.78399998	-1.7309999
27	1	3	0.22353099	-3.029	0.098999999	-2.309
28	1	2	0.29642501	-3.7950001	-1.8609999	-1.596
29	1	4	-0.285658	-5.0539999	-1.728	-2.1889999
30	1	2	0.32484099	-6.006	-0.76800001	-1.806
31	1	2	-0.29999599	-5.9879999	-0.212	-0.579
32	1	3	0.220127	-5.2199998	-0.47	0.138
33	1	2	-0.135015	-7.0580001	0.70999998	-0.15800001
34	1	3	0.20393001	-7.02	1.1289999	0.83999997
35	1	2	-0.137392	-8.0629997	1.017	-0.99599999
36	1	2	-0.13125201	-9.1610003	1.921	-0.57499999
37	1	2	-0.133274	-9.7209997	1.813	0.64600003
38	1	3	0.20062099	-9.3870001	1.063	1.349
39	1	2	-0.378694	-10.835	2.6989999	1.04
40	1	3	0.214237	-11.273	2.5910001	2.023
41	1	2	0.195097	-11.309	3.612	0.178
42	1	1	-0.533849	-12.397	4.4619999	0.551
43	1	5	0.317507	-12.83	4.3930001	1.5
44	1	2	-0.378694	-10.697	3.7379999	-1.1619999
45	1	3	0.214237	-11.065	4.48	-1.859
46	1	2	-0.133274	-9.6809998	2.9430001	-1.518
47	1	3	0.20062099	-9.2340002	3.0569999	-2.4990001
48	1	2	-0.06157	-8.0600004	0.442	-2.3670001
49	1	3	0.20308401	-8.8620005	0.70999998	-3.0439999
50	1	2	-0.325703	-7.0890002	-0.40799999	-2.7609999
51	1	6	0.76479298	-7.0609999	-0.98500001	-4.158
52	1	7	-0.212874	-5.9159999	-0.56400001	-4.802
53	1	7	-0.212874	-8.1549997	-0.58499998	-4.9109998
54	1	7	-0.212874	-7.0580001	-2.368	-4.0929999
55	1	2	-0.32477099	-3.4879999	-2.973	-0.91900003
56	1	3	0.226696	-4.2189999	-3.7639999	-0.81900001
57	1	2	-0.108716	-2.171	-3.0999999	-0.264
58	1	3	0.20975301	-1.982	-3.9779999	0.34099999
59	1	2	-0.115887	-1.238	-2.132	-0.389
60	1	6	0.097942002	0.090999998	-2.223	0.35800001
61	1	2	0.039854001	-0.163	-2.237	1.854
62	1	2	-0.136764	-0.713	-1.271	2.5999999
63	1	3	0.212589	-1.034	-0.34099999	2.151
64	1	2	-0.26502001	-0.87099999	-1.5039999	4.059
65	1	3	0.218265	-1.3049999	-0.73000002	4.678
66	1	2	-0.23485699	-0.472	-2.6670001	4.612
67	1	3	0.21286	-0.59500003	-2.8269999	5.6750002
68	1	2	-0.175347	0.133	-3.7309999	3.773
69	1	3	0.19972201	0.45699999	-4.664	4.2160001
70	1	2	-0.017553	0.264	-3.494	2.4619999
71	1	2	-0.017553	0.81400001	-4.3299999	1.415
72	1	2	-0.175347	1.334	-5.5599999	1.48
73	1	3	0.19972201	1.385	-6.1009998	2.4159999
74	1	2	-0.23485699	1.824	-6.1760001	0.222
75	1	3	0.21286	2.2460001	-7.1719999	0.243
76	1	2	-0.26502001	1.742	-5.5029998	-0.94499999
77	1	3	0.218265	2.098	-5.9590001	-1.86
78	1	2	-0.136764	1.16	-4.1360002	-0.986
79	1	3	0.212589	1.0779999	-3.5999999	-1.923
80	1	2	0.039854001	0.72500002	-3.5910001	0.15700001
81	1	2	-0.325703	6.1729999	1.201	-1.204
82	1	6	0.76479298	5.849	0.134	-2.2279999
83	1	7	-0.212874	4.73	0.47099999	-2.9649999
84	1	7	-0.212874	6.9029999	-0.02	-3.1099999
85	1	7	-0.212874	5.6199999	-1.068	-1.582
86	1	2	-0.06157	7.4349999	1.312	-0.73900002
87	1	3	0.20308401	8.2019997	0.62599999	-1.08
88	1	2	-0.119372	9.493	2.852	2.1289999
89	1	3	0.20062099	8.6809998	2.9419999	2.8380001
90	1	2	-0.41032401	10.754	3.0369999	2.5450001
91	1	3	0.21764	10.942	3.2750001	3.5840001
92	1	5	0.370352	14.027	3.0569999	1.374
93	1	2	0.76619703	-12.778	5.184	-0.131
94	1	8	-0.66572601	-13.249	6.2610002	0.32300001
95	1	2	-0.35068101	-12.749	4.9089999	-1.581
96	1	2	0.052742999	-13.22	5.796	-2.471
97	1	3	0.236709	-13.636	6.7389998	-2.1370001
98	1	2	-0.28657699	-13.179	5.4959998	-3.921
99	1	2	0.58557701	-13.698	6.4710002	-4.8990002
100	1	8	-0.537992	-14.183	7.5700002	-4.5229998
101	1	2	0.012299	-12.665	4.329	-4.3429999
102	1	3	0.211483	-12.645	4.1329999	-5.4060001
103	1	2	-0.29629299	-12.131	3.322	-3.3740001
104	1	6	-0.065413997	-11.535	1.973	-3.829
105	1	6	-0.13418099	-10.064	1.872	-3.368
106	1	9	0.088656999	-9.4750004	2.7260001	-3.767
107	1	9	0.088656999	-9.6009998	0.92900002	-3.7309999
108	1	9	0.088656999	-9.9809999	1.878	-2.2620001
109	1	6	-0.13418099	-11.558	1.799	-5.3660002
110	1	9	0.088656999	-10.957	2.5910001	-5.8629999
111	1	9	0.088656999	-11.122	0.81900001	-5.658
112	1	9	0.088656999	-12.599	1.8279999	-5.7529998
113	1	6	-0.13418099	-12.347	0.81099999	-3.2149999
114	1	9	0.088656999	-13.418	0.89399999	-3.5020001
115	1	9	0.088656999	-12.283	0.80800003	-2.1070001
116	1	9	0.088656999	-11.964	-0.17	-3.572
117	1	2	-0.038729999	-12.184	3.6259999	-2.0569999
118	1	3	0.21556699	-11.812	2.9319999	-1.317
119	1	1	-0.413721	13.426	3.362	3.0380001
120	1	2	0.122744	12.355	3.573	3.9649999
121	1	2	-0.41032401	12.613	3.9030001	5.237
122	1	3	0.21764	13.635	4.0050001	5.5780001
123	1	2	-0.119372	11.507	4.099	6.204
124	1	3	0.20062099	11.757	4.3270001	7.2309999
125	1	2	-0.13125201	10.226	3.9619999	5.8119998
126	1	2	-0.137392	9.1079998	4.112	6.7810001
127	1	2	-0.135015	8.0539999	3.277	6.7389998
128	1	3	0.20393001	8.0010004	2.4809999	6.0050001
129	1	2	-0.29999599	6.9460001	3.418	7.697
130	1	3	0.220127	6.1040001	2.7420001	7.632
131	1	2	0.32484099	6.9720001	4.3740001	8.6350002
132	1	4	-0.285658	5.8839998	4.4770002	9.507
133	1	2	0.29642501	4.941	5.5159998	9.4940004
134	1	2	-0.32477099	4.961	6.507	8.5810003
135	1	3	0.226696	5.71	6.5339999	7.7979999
136	1	2	-0.108716	3.9489999	7.5819998	8.632
137	1	3	0.20975301	3.9949999	8.3690004	7.8870001
138	1	2	-0.115887	2.9949999	7.5910001	9.5900002
139	1	2	0.23927601	2.957	6.4689999	10.568
140	1	2	-0.32694799	3.8840001	5.5040002	10.524
141	1	3	0.22353099	3.8610001	4.7010002	11.249
142	1	4	-0.30851501	1.961	6.3959999	11.538
143	1	2	0.23927601	1.005	7.3969998	11.709
144	1	2	-0.32694799	0.089000002	7.2620001	12.678
145	1	3	0.22353099	0.092	6.3790002	13.303
146	1	2	0.29642501	-0.889	8.3389997	12.939
147	1	4	-0.285658	-1.824	8.2060003	13.97
148	1	2	0.32484099	-2.8499999	7.2459998	13.983
149	1	2	-0.29999599	-3.3050001	6.6900001	12.843
150	1	3	0.220127	-2.872	6.948	11.886
151	1	2	-0.135015	-4.454	5.7680001	12.866
152	1	3	0.20393001	-4.803	5.349	11.93
153	1	2	-0.137392	-5.0599999	5.461	14.026
154	1	2	-0.13125201	-6.2350001	4.5570002	14.059
155	1	2	-0.082906	-7.2220001	4.665	13.148
156	1	3	0.20062099	-7.184	5.415	12.37
157	1	2	-0.45437199	-8.4020004	3.779	13.212
158	1	3	0.22600999	-9.184	3.8870001	12.473
159	1	2	0.31245899	-8.5089998	2.8659999	14.19
160	1	1	-0.84657103	-9.6560001	2.016	14.264
161	1	5	0.36280099	-9.7440004	1.307	15.027
162	1	5	0.36280099	-10.42	2.085	13.554
163	1	2	-0.45437199	-7.428	2.74	15.191
164	1	3	0.22601099	-7.5	1.998	15.977
165	1	2	-0.082906	-6.3530002	3.5350001	15.13
166	1	3	0.20062099	-5.5640001	3.421	15.863
167	1	2	-0.06157	-4.5300002	6.0359998	15.29
168	1	3	0.20308401	-5.0110002	5.7680001	16.224001
169	1	2	-0.325703	-3.483	6.8860002	15.281
170	1	6	0.76479298	-2.9200001	7.4629998	16.559999
171	1	7	-0.212874	-1.615	7.0419998	16.714001
172	1	7	-0.212874	-3.6400001	7.0630002	17.674999
173	1	7	-0.212874	-2.9419999	8.8459997	16.497999
174	1	2	-0.32477099	-0.86699998	9.4510002	12.197
175	1	3	0.226696	-1.579	10.242	12.385
176	1	2	-0.108716	0.097000003	9.5780001	11.085
177	1	3	0.20975301	0.039999999	10.456	10.454
178	1	2	-0.115887	1.007	8.6099997	10.842
179	1	6	0.097942002	1.947	8.7010002	9.6420002
180	1	2	0.039854001	1.137	8.7150002	8.3579998
181	1	2	-0.136764	0.34200001	7.7490001	7.881
182	1	3	0.212589	0.219	6.8189998	8.4189997
183	1	2	-0.26502001	-0.36399999	7.9819999	6.5949998
184	1	3	0.218265	-1.003	7.2080002	6.1900001
185	1	2	-0.23485699	-0.20900001	9.1450005	5.9310002
186	1	3	0.21286	-0.73100001	9.3050003	4.9970002
187	1	2	-0.175347	0.67299998	10.209	6.473
188	1	3	0.19972201	0.801	11.142	5.9390001
189	1	2	-0.017553	1.298	9.9720001	7.632
190	1	2	-0.017553	2.207	10.808	8.3879995
191	1	2	-0.175347	2.6630001	12.038	8.1269999
192	1	3	0.19972201	2.3499999	12.578	7.244
193	1	2	-0.23485699	3.599	12.654	9.1009998
194	1	3	0.21286	3.98	13.65	8.9189997
195	1	2	-0.26502001	3.971	11.981	10.21
196	1	3	0.218265	4.652	12.437	10.917
197	1	2	-0.136764	3.45	10.614	10.472
198	1	3	0.212589	3.7349999	10.078	11.368
199	1	2	0.039854001	2.609	10.068	9.5839996
200	1	2	-0.325703	8.1619997	5.276	8.7449999
201	1	6	0.76479298	8.2559996	6.3429999	9.8149996
202	1	7	-0.212874	7.507	6.007	10.926
203	1	7	-0.212874	9.5679998	6.4980001	10.224
204	1	7	-0.212874	7.7969999	7.546	9.3070002
205	1	2	-0.06157	9.1479998	5.1659999	7.8309999
206	1	3	0.20308401	9.9870005	5.8520002	7.8509998
207	1	2	-0.119372	9.9449997	3.6259999	4.3920002
208	1	3	0.20062099	8.9230003	3.536	4.0489998
209	1	2	-0.41032401	10.949	3.441	3.5239999
210	1	3	0.21764	10.724	3.2019999	2.4909999
211	1	5	0.370352	14.421	3.421	3.346
212	1	2	0.58557701	-13.666	6.25	-5.9590001
213	1	8	-0.537992	-14.627	6.619	-6.6859999
214	1	2	-0.28217599	-12.509	5.5279999	-6.5229998
215	1	2	0.062684998	-12.436	5.237	-7.8309999
216	1	3	0.24676199	-13.236	5.5320001	-8.5
217	1	2	-0.21625599	-11.267	4.5120001	-8.3780003
218	1	2	0.83741498	-11.208	4.2020001	-9.8249998
219	1	8	-0.496391	-10.221	3.585	-10.311
220	1	10	-0.66710401	-12.248	4.5910001	-10.665
221	1	11	0.41508999	-12.221	4.3850002	-11.656
222	1	2	-0.011532	-10.274	4.1459999	-7.5469999
223	1	3	0.224439	-9.4180002	3.6170001	-7.9429998
224	1	2	-0.29410499	-10.325	4.4549999	-6.0869999
225	1	6	-0.065413997	-9.1549997	4.0089998	-5.1849999
226	1	6	-0.13418099	-9.0129995	2.474	-5.257
227	1	9	0.088656999	-8.1990004	2.1210001	-4.586
228	1	9	0.088656999	-8.7650003	2.1329999	-6.2839999
229	1	9	0.088656999	-9.96	1.983	-4.9460001
230	1	6	-0.13418099	-7.8499999	4.6690001	-5.6810002
231	1	9	0.088656999	-7.9510002	5.776	-5.677
232	1	9	0.088656999	-7.5939999	4.3460002	-6.711
233	1	9	0.088656999	-6.9949999	4.3940001	-5.0250001
234	1	6	-0.13418099	-9.3389997	4.3940001	-3.6960001
235	1	9	0.088656999	-10.25	3.9170001	-3.273
236	1	9	0.088656999	-8.4720001	4.052	-3.0899999
237	1	9	0.088656999	-9.4130001	5.4970002	-3.5780001
238	1	2	0.012299	-11.408	5.119	-5.6199999
239	1	3	0.211483	-11.51	5.375	-4.5760002

Bonds

1	1	1	2
2	2	1	92
3	3	1	119
4	4	2	3
5	4	2	90
6	5	3	4
7	4	3	5
8	5	5	6
9	4	5	7
10	6	7	8
11	4	7	88
12	4	8	9
13	4	8	86
14	5	9	10
15	4	9	11
16	5	11	12
17	4	11	13
18	7	13	14
19	4	13	81
20	7	14	15
21	4	15	16
22	4	15	22
23	5	16	17
24	4	16	18
25	5	18	19
26	4	18	20
27	4	20	21
28	8	20	60
29	4	21	22
30	7	21	24
31	5	22	23
32	7	24	25
33	4	25	26
34	4	25	59
35	5	26	27
36	4	26	28
37	7	28	29
38	4	28	55
39	7	29	30
40	4	30	31
41	4	30	50
42	5	31	32
43	4	31	33
44	5	33	34
45	4	33	35
46	6	35	36
47	4	35	48
48	4	36	37
49	4	36	46
50	5	37	38
51	4	37	39
52	5	39	40
53	4	39	41
54	1	41	42
55	4	41	44
56	2	42	43
57	9	42	93
58	5	44	45
59	4	44	46
60	5	46	47
61	5	48	49
62	4	48	50
63	8	50	51
64	10	51	52
65	10	51	53
66	10	51	54
67	5	55	56
68	4	55	57
69	5	57	58
70	4	57	59
71	8	59	60
72	8	60	61
73	8	60	80
74	4	61	62
75	4	61	70
76	5	62	63
77	4	62	64
78	5	64	65
79	4	64	66
80	5	66	67
81	4	66	68
82	5	68	69
83	4	68	70
84	6	70	71
85	4	71	72
86	4	71	80
87	5	72	73
88	4	72	74
89	5	74	75
90	4	74	76
91	5	76	77
92	4	76	78
93	5	78	79
94	4	78	80
95	8	81	82
96	4	81	86
97	10	82	83
98	10	82	84
99	10	82	85
100	5	86	87
101	5	88	89
102	4	88	90
103	5	90	91
104	11	93	94
105	6	93	95
106	4	95	96
107	4	95	117
108	5	96	97
109	4	96	98
110	6	98	99
111	4	98	101
112	11	99	100
113	6	99	212
114	5	101	102
115	4	101	103
116	8	103	104
117	4	103	117
118	12	104	105
119	12	104	109
120	12	104	113
121	13	105	106
122	13	105	107
123	13	105	108
124	13	109	110
125	13	109	111
126	13	109	112
127	13	113	114
128	13	113	115
129	13	113	116
130	5	117	118
131	1	119	120
132	2	119	211
133	4	120	121
134	4	120	209
135	5	121	122
136	4	121	123
137	5	123	124
138	4	123	125
139	6	125	126
140	4	125	207
141	4	126	127
142	4	126	205
143	5	127	128
144	4	127	129
145	5	129	130
146	4	129	131
147	7	131	132
148	4	131	200
149	7	132	133
150	4	133	134
151	4	133	140
152	5	134	135
153	4	134	136
154	5	136	137
155	4	136	138
156	4	138	139
157	8	138	179
158	4	139	140
159	7	139	142
160	5	140	141
161	7	142	143
162	4	143	144
163	4	143	178
164	5	144	145
165	4	144	146
166	7	146	147
167	4	146	174
168	7	147	148
169	4	148	149
170	4	148	169
171	5	149	150
172	4	149	151
173	5	151	152
174	4	151	153
175	6	153	154
176	4	153	167
177	4	154	155
178	4	154	165
179	5	155	156
180	4	155	157
181	5	157	158
182	4	157	159
183	1	159	160
184	4	159	163
185	2	160	161
186	2	160	162
187	5	163	164
188	4	163	165
189	5	165	166
190	5	167	168
191	4	167	169
192	8	169	170
193	10	170	171
194	10	170	172
195	10	170	173
196	5	174	175
197	4	174	176
198	5	176	177
199	4	176	178
200	8	178	179
201	8	179	180
202	8	179	199
203	4	180	181
204	4	180	189
205	5	181	182
206	4	181	183
207	5	183	184
208	4	183	185
209	5	185	186
210	4	185	187
211	5	187	188
212	4	187	189
213	6	189	190
214	4	190	191
215	4	190	199
216	5	191	192
217	4	191	193
218	5	193	194
219	4	193	195
220	5	195	196
221	4	195	197
222	5	197	198
223	4	197	199
224	8	200	201
225	4	200	205
226	10	201	202
227	10	201	203
228	10	201	204
229	5	205	206
230	5	207	208
231	4	207	209
232	5	209	210
233	11	212	213
234	6	212	214
235	4	214	215
236	4	214	238
237	5	215	216
238	4	215	217
239	6	217	218
240	4	217	222
241	11	218	219
242	14	218	220
243	15	220	221
244	5	222	223
245	4	222	224
246	8	224	225
247	4	224	238
248	12	225	226
249	12	225	230
250	12	225	234
251	13	226	227
252	13	226	228
253	13	226	229
254	13	230	231
255	13	230	232
256	13	230	233
257	13	234	235
258	13	234	236
259	13	234	237
260	5	238	239

Angles

1	6	104	113	116
2	4	154	165	166
3	6	103	104	105
4	1	60	80	78
5	6	104	105	106
6	1	191	190	199
7	1	37	39	41
8	4	164	163	165
9	4	135	134	136
10	1	15	16	18
11	7	21	24	25
12	6	224	225	230
13	8	232	230	233
14	4	74	76	77
15	7	139	142	143
16	1	212	214	238
17	6	200	201	203
18	4	139	140	141
19	4	3	5	6
20	4	177	176	178
21	1	155	157	159
22	1	179	199	197
23	1	143	178	176
24	4	128	127	129
25	4	180	181	182
26	1	146	174	176
27	3	2	1	92
28	8	115	113	116
29	1	134	136	138
30	1	16	15	22
31	1	25	59	57
32	1	36	35	48
33	4	182	181	183
34	1	22	21	24
35	1	98	101	103
36	6	50	51	52
37	1	148	169	170
38	4	102	101	103
39	4	195	197	198
40	8	235	234	236
41	9	219	218	220
42	4	89	88	90
43	1	101	103	117
44	4	159	163	164
45	1	96	95	117
46	4	61	62	63
47	5	131	132	133
48	1	142	143	144
49	1	153	154	165
50	1	189	190	199
51	4	217	222	223
52	1	189	190	191
53	1	214	238	224
54	1	39	41	44
55	1	76	78	80
56	8	106	105	107
57	1	93	95	96
58	1	144	146	174
59	4	153	167	168
60	1	126	127	129
61	6	180	179	199
62	4	28	55	56
63	1	35	36	37
64	1	64	66	68
65	1	131	200	201
66	4	37	39	40
67	1	222	224	225
68	4	184	183	185
69	1	138	139	140
70	4	32	31	33
71	3	159	160	162
72	6	200	201	204
73	8	227	226	228
74	1	225	224	238
75	1	214	215	217
76	3	41	42	43
77	1	95	96	98
78	6	225	230	233
79	1	42	93	94
80	4	200	205	206
81	1	167	169	170
82	6	200	201	202
83	1	180	189	190
84	6	203	201	204
85	1	2	3	5
86	4	10	9	11
87	1	149	151	153
88	4	145	144	146
89	1	120	209	207
90	4	45	44	46
91	4	65	64	66
92	1	125	126	205
93	4	193	195	196
94	1	72	71	80
95	6	104	109	112
96	4	15	16	17
97	6	105	104	109
98	6	225	226	229
99	1	66	68	70
100	1	96	98	99
101	1	190	191	193
102	4	72	74	75
103	3	43	42	93
104	1	217	218	220
105	1	98	99	100
106	4	8	86	87
107	1	143	144	146
108	6	109	104	113
109	4	149	151	152
110	4	58	57	59
111	1	62	61	70
112	4	97	96	98
113	1	70	71	72
114	3	92	1	119
115	4	88	90	91
116	4	163	165	166
117	1	11	13	14
118	1	26	25	59
119	4	40	39	41
120	4	66	68	69
121	1	70	71	80
122	6	104	105	108
123	1	121	123	125
124	1	8	9	11
125	1	42	41	44
126	4	186	185	187
127	1	37	36	46
128	6	178	179	199
129	1	60	61	70
130	4	62	64	65
131	1	151	153	167
132	1	3	2	90
133	4	7	88	89
134	1	60	61	62
135	1	195	197	199
136	1	127	126	205
137	1	136	138	139
138	6	104	113	115
139	1	155	154	165
140	8	107	105	108
141	6	138	179	180
142	1	218	217	222
143	1	71	72	74
144	8	110	109	112
145	6	103	104	109
146	4	49	48	50
147	5	146	147	148
148	1	36	46	44
149	1	215	217	222
150	1	72	74	76
151	1	151	153	154
152	1	132	133	140
153	4	56	55	57
154	1	13	81	86
155	8	231	230	233
156	1	42	93	95
157	2	41	42	93
158	1	7	8	86
159	4	155	157	158
160	4	133	140	141
161	6	81	82	83
162	6	226	225	234
163	6	52	51	53
164	1	61	70	71
165	1	2	90	88
166	6	50	51	53
167	4	143	144	145
168	1	8	7	88
169	1	29	30	50
170	8	114	113	116
171	6	169	170	171
172	1	176	178	179
173	1	33	35	36
174	6	225	234	237
175	6	224	225	226
176	4	146	174	175
177	1	101	103	104
178	6	171	170	173
179	4	17	16	18
180	4	191	193	194
181	6	104	105	107
182	5	218	220	221
183	4	64	66	67
184	1	8	86	81
185	1	187	189	190
186	4	35	48	49
187	1	139	138	179
188	6	105	104	113
189	1	26	28	29
190	4	130	129	131
191	4	77	76	78
192	4	67	66	68
193	1	181	180	189
194	6	104	113	114
195	1	212	214	215
196	1	31	30	50
197	1	123	125	207
198	1	179	199	190
199	4	175	174	176
200	1	125	207	209
201	4	194	193	195
202	4	69	68	70
203	6	225	234	235
204	4	223	222	224
205	1	136	138	179
206	4	181	183	184
207	1	201	200	205
208	1	55	57	59
209	1	16	18	20
210	6	225	226	227
211	4	36	37	38
212	1	29	30	31
213	1	153	154	155
214	4	55	57	58
215	4	137	136	138
216	6	59	60	80
217	4	19	18	20
218	5	13	14	15
219	1	7	88	90
220	4	36	46	47
221	1	126	125	207
222	8	227	226	229
223	4	71	72	73
224	1	104	103	117
225	1	185	187	189
226	1	26	28	55
227	1	3	5	7
228	4	133	134	135
229	1	82	81	86
230	1	7	8	9
231	4	148	149	150
232	1	61	62	64
233	4	95	117	118
234	1	148	169	167
235	6	59	60	61
236	1	133	140	139
237	3	120	119	211
238	4	31	33	34
239	1	41	44	46
240	1	96	98	101
241	4	126	205	206
242	1	30	31	33
243	1	126	205	200
244	1	74	76	78
245	4	95	96	97
246	4	183	185	186
247	1	71	80	78
248	4	188	187	189
249	1	217	218	219
250	6	103	104	113
251	4	207	209	210
252	4	4	3	5
253	8	228	226	229
254	4	63	62	64
255	4	9	11	12
256	4	190	191	192
257	4	127	129	130
258	1	57	59	60
259	4	76	78	79
260	4	156	155	157
261	1	134	133	140
262	6	52	51	54
263	4	134	136	137
264	2	1	119	120
265	1	144	143	178
266	6	50	51	54
267	4	224	238	239
268	4	16	18	19
269	6	171	170	172
270	1	159	163	165
271	1	39	41	42
272	1	190	199	197
273	6	172	170	173
274	1	132	131	200
275	1	215	214	238
276	4	120	121	122
277	6	104	109	111
278	1	99	98	101
279	4	154	155	156
280	6	169	170	173
281	6	225	234	236
282	4	168	167	169
283	1	119	120	209
284	6	53	51	54
285	1	14	15	16
286	1	60	80	71
287	1	35	36	46
288	1	99	212	213
289	1	31	33	35
290	1	94	93	95
291	1	15	22	21
292	1	13	81	82
293	4	125	207	208
294	1	213	212	214
295	1	127	129	131
296	6	224	225	234
297	1	95	117	103
298	1	217	222	224
299	4	126	127	128
300	6	104	109	110
301	1	148	149	151
302	6	226	225	230
303	4	2	3	4
304	1	132	133	134
305	1	98	99	212
306	6	20	60	59
307	1	48	50	51
308	1	9	8	86
309	5	28	29	30
310	6	225	230	232
311	4	158	157	159
312	4	12	11	13
313	4	75	74	76
314	1	129	131	200
315	3	161	160	162
316	1	154	155	157
317	1	149	148	169
318	8	114	113	115
319	1	14	13	81
320	1	181	183	185
321	6	230	225	234
322	1	5	7	88
323	4	174	176	177
324	1	180	181	183
325	4	21	22	23
326	1	68	70	71
327	8	236	234	237
328	4	198	197	199
329	1	20	21	22
330	1	61	70	68
331	4	122	121	123
332	6	84	82	85
333	4	121	123	124
334	1	9	11	13
335	8	110	109	111
336	1	62	64	66
337	6	83	82	84
338	1	25	59	60
339	1	174	176	178
340	4	150	149	151
341	1	129	131	132
342	1	18	20	60
343	4	98	101	102
344	1	125	126	127
345	1	24	25	59
346	1	33	35	48
347	1	5	7	8
348	6	20	60	80
349	1	120	121	123
350	1	35	48	50
351	4	216	215	217
352	4	6	5	7
353	1	93	95	117
354	1	222	224	238
355	1	20	21	24
356	4	34	33	35
357	6	61	60	80
358	6	225	226	228
359	1	18	20	21
360	2	2	1	119
361	6	20	60	61
362	6	138	179	178
363	8	235	234	237
364	4	152	151	153
365	4	44	46	47
366	6	83	82	85
367	4	124	123	125
368	1	30	50	48
369	1	183	185	187
370	1	157	159	163
371	6	202	201	203
372	6	169	170	172
373	1	1	2	3
374	1	11	13	81
375	6	81	82	84
376	1	154	165	163
377	3	159	160	161
378	1	160	159	163
379	1	28	55	57
380	1	153	167	169
381	1	191	193	195
382	1	131	200	205
383	1	157	159	160
384	1	30	50	51
385	1	24	25	26
386	4	27	26	28
387	6	225	230	231
388	4	2	90	91
389	1	25	26	28
390	1	121	120	209
391	4	192	191	193
392	4	208	207	209
393	1	99	212	214
394	1	140	139	142
395	4	38	37	39
396	4	30	31	32
397	1	29	28	55
398	4	73	72	74
399	4	41	44	45
400	8	111	109	112
401	1	193	195	197
402	4	15	22	23
403	1	123	125	126
404	4	8	9	10
405	1	180	189	187
406	1	143	178	179
407	1	144	146	147
408	1	21	20	60
409	1	133	134	136
410	8	231	230	232
411	6	81	82	85
412	3	1	119	211
413	1	179	180	189
414	8	106	105	108
415	4	79	78	80
416	1	100	99	212
417	4	214	238	239
418	4	25	26	27
419	4	196	195	197
420	4	81	86	87
421	1	179	180	181
422	1	138	139	142
423	1	154	153	167
424	4	185	187	188
425	1	147	148	149
426	1	147	146	174
427	6	178	179	180
428	6	202	201	204
429	6	138	179	199
430	1	119	120	121
431	1	142	143	178
432	1	147	148	169
433	4	120	209	210
434	4	103	117	118
435	1	215	217	218
436	4	214	215	216
437	1	1	2	90
438	1	14	15	22
439	1	36	37	39

Dihedrals

1	1	148	149	151	153
2	4	68	70	71	72
3	1	93	95	96	97
4	6	70	61	60	80
5	1	7	8	9	11
6	1	124	123	125	126
7	1	153	154	155	156
8	1	60	61	62	64
9	1	102	101	103	104
10	16	226	225	230	231
11	4	68	70	71	80
12	5	129	131	132	133
13	1	194	193	195	196
14	1	62	64	66	68
15	16	229	226	225	234
16	5	146	147	148	149
17	1	143	178	176	177
18	1	75	74	76	78
19	1	7	88	90	91
20	6	59	60	80	78
21	18	219	218	220	221
21	19	219	218	220	221
22	5	146	147	148	169
23	1	189	190	199	197
24	1	201	200	205	206
25	1	138	139	140	141
26	1	120	121	123	124
27	1	148	149	151	152
28	1	147	148	149	151
29	1	126	127	129	130
30	6	105	104	103	117
31	1	45	44	46	47
32	1	32	31	33	34
33	6	136	138	179	178
34	12	213	212	214	238
35	1	31	33	35	36
36	1	144	143	178	179
37	1	63	62	64	65
38	15	103	104	113	116
39	1	134	136	138	139
40	1	3	2	90	88
41	6	181	180	179	199
42	1	146	174	176	177
43	1	30	31	33	34
44	15	103	104	113	115
45	1	93	95	117	103
46	1	97	96	95	117
47	1	128	127	129	131
48	1	28	55	57	59
49	1	148	169	167	168
50	1	60	80	71	72
51	1	20	21	22	23
52	6	138	179	178	176
53	1	153	154	155	157
54	6	101	103	104	113
55	15	103	104	105	108
56	1	24	25	59	57
57	1	10	9	11	12
58	6	57	59	60	80
59	1	73	72	74	75
60	6	222	224	225	226
61	6	204	201	200	205
62	1	190	191	193	194
63	7	138	139	142	143
64	1	34	33	35	36
65	1	223	222	224	225
66	2	162	160	159	163
67	1	17	16	18	20
68	1	145	144	143	178
69	1	142	143	144	145
70	1	15	16	18	20
71	12	220	218	217	222
72	15	103	104	105	106
73	1	192	191	193	194
74	1	1	2	90	91
75	1	190	199	197	195
76	6	30	50	51	54
77	1	121	120	209	210
78	2	3	2	1	119
79	6	57	59	60	61
80	1	126	127	129	131
81	1	153	154	165	163
82	1	95	96	98	99
83	1	150	149	148	169
84	1	196	195	197	199
85	6	148	169	170	173
86	1	151	149	148	169
87	1	133	134	136	138
88	15	224	225	234	237
89	1	214	215	217	222
90	1	95	117	103	101
91	1	181	180	189	190
92	1	147	148	169	167
93	16	105	104	109	111
94	5	28	29	30	50
95	6	109	104	103	117
96	1	8	9	11	13
97	1	27	26	28	29
98	16	106	105	104	113
99	1	131	200	205	206
100	7	21	24	25	59
101	12	98	99	212	214
102	1	125	207	209	210
103	1	60	61	70	71
104	1	215	217	222	223
105	1	4	3	5	7
106	1	122	121	123	124
107	2	90	2	1	92
108	1	135	134	136	137
109	1	9	8	86	87
110	1	19	18	20	60
111	16	110	109	104	113
112	1	132	133	134	136
113	1	11	9	8	86
114	16	227	226	225	234
115	1	26	28	55	57
116	1	144	143	178	176
117	1	149	151	153	154
118	15	224	225	226	229
119	6	136	138	179	199
120	7	22	21	24	25
121	16	226	225	230	232
122	6	101	103	104	105
123	1	30	31	33	35
124	16	226	225	234	236
125	1	77	76	78	79
126	1	36	35	48	50
127	1	36	37	39	41
128	16	231	230	225	234
129	1	132	131	200	201
130	1	151	153	167	168
131	1	216	215	214	238
132	1	29	30	50	48
133	1	125	126	205	200
134	1	179	199	190	191
135	6	20	60	80	71
136	1	98	96	95	117
137	15	224	225	230	233
138	1	127	126	205	206
139	1	61	70	68	69
140	7	139	142	143	178
141	1	99	98	101	103
142	6	148	169	170	171
143	1	74	76	78	80
144	1	41	44	46	47
145	1	180	181	183	185
146	16	105	104	109	110
147	1	136	134	133	140
148	1	191	193	195	196
149	1	19	18	20	21
150	1	29	30	50	51
151	1	63	62	64	66
152	1	10	9	8	86
153	1	14	13	81	86
154	1	73	72	74	76
155	6	139	138	179	180
156	1	196	195	197	198
157	15	224	225	234	235
158	1	3	2	90	91
159	1	17	16	18	19
160	1	157	159	163	164
161	1	15	16	18	19
162	6	21	20	60	80
163	12	219	218	217	222
164	1	144	146	174	176
165	4	123	125	126	205
166	1	36	46	44	45
167	1	188	187	189	190
168	4	37	36	35	48
169	1	135	134	133	140
170	4	151	153	154	165
171	1	133	140	139	142
172	1	29	30	31	32
173	7	21	24	25	26
174	2	1	119	120	209
175	1	208	207	209	210
176	1	99	98	101	102
177	1	134	136	138	179
178	3	2	1	119	211
179	1	217	222	224	238
180	1	132	131	200	205
181	6	18	20	60	59
182	3	92	1	119	211
183	6	21	20	60	61
184	1	156	155	157	159
185	1	10	9	11	13
186	1	15	22	21	24
187	1	154	153	167	169
188	5	28	29	30	31
189	1	151	153	167	169
190	6	138	179	199	190
191	1	149	148	169	167
192	1	181	183	185	186
193	1	60	80	78	76
194	1	153	154	165	166
195	1	148	169	167	153
196	1	60	80	71	70
197	2	157	159	160	162
198	15	103	104	109	112
199	1	145	144	146	174
200	1	37	39	41	42
201	1	58	57	59	60
202	1	97	96	98	99
203	1	56	55	57	59
204	1	156	155	157	158
205	1	40	39	41	44
206	1	29	28	55	57
207	5	131	132	133	140
208	1	180	181	183	184
209	1	62	61	70	71
210	12	100	99	212	213
211	1	136	138	139	142
212	7	140	139	142	143
213	2	44	41	42	93
214	1	2	3	5	6
215	1	18	20	21	22
216	1	143	144	146	174
217	1	16	15	22	21
218	1	36	37	39	40
219	8	41	42	93	94
219	9	41	42	93	94
220	16	228	226	225	230
221	5	133	132	131	200
222	1	64	66	68	70
223	1	179	180	181	182
224	1	192	191	190	199
225	6	48	50	51	52
226	7	139	142	143	144
227	1	39	41	44	45
228	12	96	98	99	212
229	1	218	217	222	223
230	1	33	31	30	50
231	6	180	179	199	190
232	13	43	42	93	94
232	14	43	42	93	94
233	6	230	225	224	238
234	6	59	60	61	70
235	1	70	71	72	74
236	1	179	180	181	183
237	6	59	60	61	62
238	6	13	81	82	83
239	1	32	31	30	50
240	1	191	190	199	197
241	6	167	169	170	173
242	12	100	99	98	101
243	5	131	132	133	134
244	1	14	15	22	21
245	5	15	14	13	81
246	1	182	181	183	185
247	6	18	20	60	80
248	7	20	21	24	25
249	4	9	8	7	88
250	1	62	64	66	67
251	12	94	93	95	96
252	1	125	126	127	129
253	1	217	215	214	238
254	16	229	226	225	230
255	1	65	64	66	68
256	1	121	120	209	207
257	1	71	80	78	79
258	1	3	5	7	88
259	1	65	64	66	67
260	12	215	217	218	220
261	1	18	20	21	24
262	6	222	224	225	234
263	6	61	60	80	71
264	1	225	224	238	239
265	1	2	90	88	89
266	1	153	167	169	170
267	1	64	66	68	69
268	1	6	5	7	88
269	4	33	35	36	37
270	6	131	200	201	203
271	1	190	199	197	198
272	12	94	93	95	117
273	1	26	25	59	57
274	6	18	20	60	61
275	1	121	123	125	126
276	1	180	189	187	188
277	1	126	125	207	209
278	1	154	155	157	159
279	1	61	62	64	65
280	1	182	181	180	189
281	1	69	68	70	71
282	1	143	178	176	174
283	1	39	37	36	46
284	1	28	55	57	58
285	1	119	120	121	122
286	1	194	193	195	197
287	1	26	25	59	60
288	6	167	169	170	171
289	1	25	26	28	29
290	16	109	104	113	114
291	1	3	5	7	8
292	1	35	36	46	44
293	6	178	179	199	190
294	1	145	144	146	147
295	1	98	101	103	117
296	1	23	22	21	24
297	1	222	224	238	239
298	1	215	214	238	239
299	1	182	181	183	184
300	1	159	163	165	166
301	6	138	179	178	143
302	6	20	60	59	25
303	1	31	33	35	48
304	1	6	5	7	8
305	5	26	28	29	30
306	1	26	28	55	56
307	1	164	163	165	166
308	1	137	136	138	179
309	1	67	66	68	70
310	1	25	59	57	58
311	4	127	126	125	207
312	1	49	48	50	51
313	5	30	29	28	55
314	1	142	139	138	179
315	1	1	2	3	5
316	1	141	140	139	142
317	1	149	151	153	167
318	1	143	144	146	147
319	16	107	105	104	109
320	1	71	72	74	76
321	1	179	180	189	187