Title

115 atoms
114 bonds
217 angles
392 dihedrals
15 impropers

9 atom types
12 bond types
9 angle types
39 dihedral types
3 improper types
-4.103000164 95.89699984 xlo xhi
-1.546000004 98.454 ylo yhi
-3.47300005 96.52699995 zlo zhi
0.0 0.0 0.0 xy xz yz

Masses

1	14.00672
2	12.01078
3	1.007947
4	1.007947
5	1.007947
6	12.01078
7	15.99943
8	15.99943
9	1.007947


Pair Coeffs

1	0.16769152	3.206876
2	0.10884061	3.3795318
3	0.014090815	1.1034277
4	0.016409246	2.5832257
5	0.015779483	2.6445434
6	0.086879315	3.4806469
7	0.2102061	3.0398122
8	0.20947353	2.99716
9	1.2326e-05	0.53453923

Bond Coeffs

1 harmonic	366.34047229585	1.464762957261
2 harmonic	505.144496193	1.019481865027
3 harmonic	422.7150220147	1.421786517481
4 harmonic	264.62148576755	1.52190126495
5 harmonic	370.04670688625	1.093899492634
6 harmonic	352.0565580496	1.450098586273
7 harmonic	492.76746816345	1.381897776683
8 harmonic	582.698766451	1.225198386222
9 harmonic	329.44145381095	1.523435958334
10 harmonic	279.1350963404	1.454628925034
11 harmonic	385.7604595587	1.369745182308
12 harmonic	543.5267831885	0.9716763312559


Angle Coeffs

1 harmonic	53.20531626545	116.5475862634
2 harmonic	49.015990027215	114.8414599994
3 harmonic	94.53012429075	110.92021963
4 harmonic	63.44422595415	115.5071327674
5 harmonic	55.42182150775	117.3465570514
6 harmonic	57.8982893754	126.8062420451
7 harmonic	48.776492647595	115.6030999533
8 harmonic	65.09061609600001	110.3538806181
9 harmonic	201.41175231035	127.4691416191


Dihedral Coeffs

1 fourier 1	0.1155372516788	3	0
2 fourier 1	0.2036670163956	3	0
3 fourier 1	0.6761465733405	3	0
4 fourier 1	1.653011589151	2	0
5 fourier 1	1.713184811193	1	0
6 fourier 1	0.774151252041	3	0
7 fourier 1	1.087509576657	2	0
8 fourier 1	1.518874939494	1	0
9 fourier 1	0.09223874044423	3	0
10 fourier 1	0.3159935921949	2	180
11 fourier 1	0.3247796806857	1	180
12 fourier 1	0.1040663847541	3	0
13 fourier 1	0.182238503271	2	0
14 fourier 1	0.02972342374561	3	0
15 fourier 1	-0.1488678166443	4	180
16 fourier 1	-0.1230328948768	3	180
17 fourier 1	0.2939295466901	2	0
18 fourier 1	-0.3024127022865	1	0
19 fourier 1	3.101948770557	2	180
20 fourier 1	-0.4252153282372	1	0
21 fourier 1	1.809047390003	2	180
22 fourier 1	-0.04816277792592	1	0
23 fourier 1	-0.04561822763521	4	0
24 fourier 1	0.1536091026885	2	0
25 fourier 1	0.02664938770063	3	0
26 fourier 1	2.348375642009	2	180
27 fourier 1	1.256156174911	1	0
28 fourier 1	0.1911926717192	3	0
29 fourier 1	0.3917343745784	3	0
30 fourier 1	0.9467782973395	2	0
31 fourier 1	0.2726597146827	1	0
32 fourier 1	-0.3703352413219	2	0
33 fourier 1	0.4541676554336	1	0
34 fourier 1	0.1489710476446	2	0
35 fourier 1	0.02960027280666	3	180
36 fourier 1	0.9974165607242	2	180
37 fourier 1	2.687457892086	2	180
38 fourier 1	2.772607909663	2	180
39 fourier 1	0.09692684957115	1	0


Improper Coeffs

1 0.3333333333333333	-1	2
2 0.3666666666666667	-1	2
3 3.5	-1	2


Atoms

1	1	1	-0.63876998	-3.73	0.76800001	-0.67199999
2	1	2	0.030637	-3.329	-0.105	0.43099999
3	1	2	-0.156077	-1.973	-0.787	0.18000001
4	1	2	-0.144658	-0.80000001	0.204	0.20299999
5	1	2	-0.14467999	0.542	-0.52999997	0.092
6	1	2	-0.14607801	1.7130001	0.45899999	0.102
7	1	2	0.015006	3.0539999	-0.27200001	-0.0060000001
8	1	1	-0.49108201	4.152	0.68900001	-0.017000001
9	1	3	0.31691301	4.223	1.115	0.93599999
10	1	4	0.047361001	3.0769999	-0.861	-0.949
11	1	4	0.047361001	3.1760001	-0.97299999	0.85100001
12	1	5	0.082171001	1.692	1.0470001	1.0470001
13	1	5	0.082171001	1.613	1.163	-0.75300002
14	1	5	0.081137002	0.56300002	-1.1160001	-0.85299999
15	1	5	0.081137002	0.648	-1.234	0.94700003
16	1	5	0.082622997	-0.89300001	0.912	-0.64899999
17	1	5	0.082622997	-0.824	0.78399998	1.152
18	1	5	0.087687999	-1.819	-1.546	0.97799999
19	1	5	0.087687999	-1.995	-1.323	-0.79400003
20	1	4	0.088146999	-3.2950001	0.479	1.376
21	1	4	0.088146999	-4.1030002	-0.89200002	0.55500001
22	1	3	0.35957801	-3.1029999	1.604	-0.69499999
23	1	6	0.72516698	5.0549998	0.147	-0.17399999
24	1	7	-0.74527699	5.368	-0.189	-1.3049999
25	1	2	-0.18189199	5.9250002	-0.211	0.99599999
26	1	2	-0.121351	7.3000002	0.46700001	0.921
27	1	2	-0.137044	7.204	1.99	1.089
28	1	2	-0.1416	8.5950003	2.6359999	1.057
29	1	2	-0.141699	8.5	4.158	1.22
30	1	2	-0.141699	9.8950005	4.8000002	1.2
31	1	2	-0.1416	9.8380003	6.336	1.23
32	1	2	-0.138918	9.3500004	6.8829999	2.5829999
33	1	2	-0.097259998	9.5439997	8.4029999	2.7090001
34	1	2	-0.25772399	8.6120005	9.1949997	1.781
35	1	6	0.51694602	8.7259998	10.667	2.0409999
36	1	7	-0.68782502	9.7700005	11.257	1.811
37	1	5	0.11354	8.8669996	9.0019999	0.71799999
38	1	5	0.11354	7.559	8.8830004	1.954
39	1	5	0.076819003	9.3299999	8.6899996	3.7620001
40	1	5	0.076819003	10.604	8.665	2.497
41	1	5	0.078518003	9.9250002	6.3959999	3.4000001
42	1	5	0.078518003	8.2770004	6.638	2.7320001
43	1	5	0.080392003	10.863	6.7189999	1.033
44	1	5	0.080392003	9.1789999	6.6950002	0.41100001
45	1	5	0.080392003	10.496	4.4289999	2.059
46	1	5	0.080392003	10.417	4.4959998	0.26699999
47	1	5	0.080392003	7.9980001	4.3839998	2.1849999
48	1	5	0.080392003	7.8860002	4.5780001	0.39300001
49	1	5	0.080392003	9.2139997	2.2160001	1.88
50	1	5	0.080392003	9.0869999	2.3989999	0.088
51	1	5	0.078518003	6.7129998	2.223	2.059
52	1	5	0.078518003	6.586	2.4170001	0.26899999
53	1	5	0.084591001	7.9359999	0.052999999	1.734
54	1	5	0.084591001	7.7880001	0.221	-0.048
55	1	5	0.116501	5.414	0.079000004	1.939
56	1	5	0.116501	6.0630002	-1.314	1.012
57	1	1	-0.63876998	-3.625	0.25600001	-1.5779999
58	1	2	0.030637	-2.984	1.1289999	-2.5599999
59	1	2	-0.156077	-1.72	1.811	-2.007
60	1	2	-0.14473499	-0.574	0.81999999	-1.763
61	1	2	-0.143373	0.708	1.554	-1.349
62	1	2	-0.15755901	1.851	0.565	-1.0930001
63	1	2	0.027682001	3.132	1.296	-0.68199998
64	1	1	-0.97581899	4.198	0.33500001	-0.421
65	1	3	0.37936601	5.027	0.86699998	-0.068999998
66	1	3	0.37936601	4.4850001	-0.090999998	-1.3329999
67	1	4	0.076180004	2.9400001	1.885	0.242
68	1	4	0.076180004	3.4460001	1.997	-1.489
69	1	5	0.088555001	2.046	-0.023	-2.017
70	1	5	0.088555001	1.559	-0.139	-0.28200001
71	1	5	0.082622997	0.51300001	2.1400001	-0.42399999
72	1	5	0.082622997	1.006	2.2579999	-2.1570001
73	1	5	0.082622997	-0.85799998	0.112	-0.954
74	1	5	0.082622997	-0.38100001	0.23999999	-2.6919999
75	1	5	0.087687999	-1.3890001	2.5699999	-2.75
76	1	5	0.087687999	-1.964	2.3469999	-1.064
77	1	4	0.088146999	-2.7349999	0.54500002	-3.473
78	1	4	0.088146999	-3.71	1.916	-2.858
79	1	3	0.35957801	-3.0209999	-0.57999998	-1.4119999
80	1	6	0.51694602	7.8720002	11.218	2.4219999
81	1	7	-0.68782502	7.1059999	10.673	3.201
82	1	2	-0.25772399	7.6220002	12.623	1.957
83	1	2	-0.097259998	7.9650002	13.664	3.033
84	1	2	-0.138918	6.928	13.709	4.165
85	1	2	-0.1416	7.243	14.838	5.1539998
86	1	2	-0.141699	6.2150002	14.879	6.29
87	1	2	-0.141699	6.5300002	16.007999	7.2779999
88	1	2	-0.1416	5.5009999	16.049	8.4139996
89	1	2	-0.13626	5.8169999	17.179001	9.4020004
90	1	2	-0.113053	4.7880001	17.219	10.539
91	1	2	-0.218771	5.1030002	18.347	11.525
92	1	6	0.82375401	4.0960002	18.372999	12.631
93	1	7	-0.55682403	3.05	19.066	12.516
94	1	8	-0.66555202	4.2940001	17.594999	13.767
95	1	9	0.394032	3.6140001	17.587999	14.517
96	1	5	0.117802	6.1149998	18.195999	11.961
97	1	5	0.117802	5.0960002	19.326	10.996
98	1	5	0.085608996	3.773	17.378	10.111
99	1	5	0.085608996	4.796	16.246	11.078
100	1	5	0.078518003	5.8080001	18.152	8.8629999
101	1	5	0.078518003	6.8309999	17.02	9.8299999
102	1	5	0.080392003	4.487	16.207001	7.9860001
103	1	5	0.080392003	5.5100002	15.076	8.9530001
104	1	5	0.080392003	6.5209999	16.982	6.7389998
105	1	5	0.080392003	7.5450001	15.85	7.7059999
106	1	5	0.080392003	6.223	13.906	6.829
107	1	5	0.080392003	5.1999998	15.037	5.862
108	1	5	0.080392003	7.2350001	15.812	4.6160002
109	1	5	0.080392003	8.2580004	14.679	5.5819998
110	1	5	0.078518003	6.9289999	12.742	4.7119999
111	1	5	0.078518003	5.9159999	13.872	3.733
112	1	5	0.076819003	8.9750004	13.454	3.451
113	1	5	0.076819003	8.0039997	14.662	2.5439999
114	1	5	0.11354	8.2679996	12.812	1.073
115	1	5	0.11354	6.566	12.732	1.627

Bonds

1	1	1	2
2	2	1	22
3	3	1	57
4	4	2	3
5	5	2	20
6	5	2	21
7	4	3	4
8	5	3	18
9	5	3	19
10	4	4	5
11	5	4	16
12	5	4	17
13	4	5	6
14	5	5	14
15	5	5	15
16	4	6	7
17	5	6	12
18	5	6	13
19	6	7	8
20	5	7	10
21	5	7	11
22	2	8	9
23	7	8	23
24	8	23	24
25	9	23	25
26	4	25	26
27	5	25	55
28	5	25	56
29	4	26	27
30	5	26	53
31	5	26	54
32	4	27	28
33	5	27	51
34	5	27	52
35	4	28	29
36	5	28	49
37	5	28	50
38	4	29	30
39	5	29	47
40	5	29	48
41	4	30	31
42	5	30	45
43	5	30	46
44	4	31	32
45	5	31	43
46	5	31	44
47	4	32	33
48	5	32	41
49	5	32	42
50	4	33	34
51	5	33	39
52	5	33	40
53	9	34	35
54	5	34	37
55	5	34	38
56	8	35	36
57	10	35	80
58	1	57	58
59	2	57	79
60	4	58	59
61	5	58	77
62	5	58	78
63	4	59	60
64	5	59	75
65	5	59	76
66	4	60	61
67	5	60	73
68	5	60	74
69	4	61	62
70	5	61	71
71	5	61	72
72	4	62	63
73	5	62	69
74	5	62	70
75	1	63	64
76	5	63	67
77	5	63	68
78	2	64	65
79	2	64	66
80	8	80	81
81	9	80	82
82	4	82	83
83	5	82	114
84	5	82	115
85	4	83	84
86	5	83	112
87	5	83	113
88	4	84	85
89	5	84	110
90	5	84	111
91	4	85	86
92	5	85	108
93	5	85	109
94	4	86	87
95	5	86	106
96	5	86	107
97	4	87	88
98	5	87	104
99	5	87	105
100	4	88	89
101	5	88	102
102	5	88	103
103	4	89	90
104	5	89	100
105	5	89	101
106	4	90	91
107	5	90	98
108	5	90	99
109	9	91	92
110	5	91	96
111	5	91	97
112	8	92	93
113	11	92	94
114	12	94	95

Angles

1	1	23	25	56
2	1	85	84	111
3	1	60	61	72
4	1	90	89	101
5	1	87	88	102
6	1	6	7	8
7	7	47	29	48
8	1	7	6	13
9	1	86	87	105
10	1	29	30	46
11	1	88	87	105
12	7	69	62	70
13	6	35	80	82
14	7	102	88	103
15	6	35	80	81
16	1	4	3	18
17	1	32	31	43
18	5	7	8	23
19	1	28	27	51
20	1	27	28	49
21	1	27	26	53
22	1	34	33	40
23	1	26	27	28
24	1	29	30	31
25	1	4	5	14
26	7	51	27	52
27	1	23	25	26
28	1	87	88	103
29	6	8	23	25
30	7	43	31	44
31	3	63	64	65
32	1	86	85	108
33	1	30	29	48
34	1	29	28	49
35	7	96	91	97
36	1	25	26	27
37	1	28	29	30
38	1	28	27	52
39	1	63	62	69
40	1	25	26	54
41	7	73	60	74
42	7	110	84	111
43	1	35	34	38
44	1	1	2	21
45	1	89	90	98
46	1	27	26	54
47	7	16	4	17
48	1	30	31	44
49	1	89	88	102
50	1	62	61	71
51	7	10	7	11
52	1	85	86	87
53	1	57	58	77
54	4	9	8	23
55	1	5	4	16
56	1	59	58	77
57	1	32	33	34
58	1	31	30	46
59	1	62	63	67
60	3	63	64	66
61	1	84	85	108
62	1	87	86	106
63	1	29	28	50
64	1	82	83	112
65	1	26	27	52
66	1	61	62	69
67	7	53	26	54
68	1	84	83	112
69	1	84	85	86
70	1	31	32	42
71	6	34	35	36
72	1	33	34	37
73	1	58	59	75
74	1	83	82	114
75	1	3	4	16
76	2	1	57	58
77	6	24	23	25
78	1	60	61	62
79	1	85	86	106
80	1	91	90	98
81	1	84	85	109
82	1	83	84	110
83	1	90	91	96
84	1	6	7	10
85	3	22	1	57
86	7	45	30	46
87	6	36	35	80
88	1	61	62	70
89	1	82	83	113
90	1	80	82	114
91	1	8	7	10
92	1	4	5	6
93	1	89	90	91
94	1	26	25	55
95	7	98	90	99
96	1	59	60	61
97	1	62	63	64
98	1	88	89	100
99	3	1	57	79
100	7	106	86	107
101	1	90	91	92
102	1	80	82	83
103	1	4	3	19
104	1	32	31	44
105	7	112	83	113
106	7	18	3	19
107	1	3	4	17
108	1	2	3	18
109	1	27	28	50
110	1	85	86	107
111	1	91	90	99
112	1	4	5	15
113	1	64	63	67
114	7	39	33	40
115	1	80	82	115
116	1	59	60	73
117	1	26	25	56
118	1	61	60	73
119	1	88	89	101
120	8	92	94	95
121	1	86	85	109
122	7	55	25	56
123	1	33	32	41
124	1	63	62	70
125	1	87	88	89
126	1	35	34	37
127	1	60	59	75
128	1	89	90	99
129	1	28	29	47
130	1	89	88	103
131	1	62	61	72
132	1	3	2	20
133	1	85	84	110
134	1	57	58	78
135	1	60	61	71
136	1	5	4	17
137	1	59	58	78
138	1	90	89	100
139	1	87	86	107
140	1	62	63	68
141	1	3	4	5
142	1	86	87	88
143	9	93	92	94
144	7	75	59	76
145	7	49	28	50
146	1	84	83	113
147	1	29	30	45
148	6	81	80	82
149	7	100	89	101
150	7	108	85	109
151	1	58	59	60
152	1	5	6	7
153	1	92	91	96
154	1	6	7	11
155	7	14	5	15
156	1	1	2	3
157	1	83	82	115
158	1	58	59	76
159	1	8	7	11
160	1	34	33	39
161	6	34	35	80
162	1	57	58	59
163	1	83	84	111
164	7	41	32	42
165	1	90	91	97
166	6	91	92	93
167	7	20	2	21
168	6	8	23	24
169	1	92	91	97
170	3	2	1	22
171	7	104	87	105
172	1	31	32	33
173	1	30	29	47
174	7	67	63	68
175	1	6	5	14
176	7	37	34	38
177	1	88	89	90
178	1	5	6	12
179	1	25	26	53
180	1	2	3	19
181	7	77	58	78
182	1	1	2	20
183	1	32	33	39
184	1	83	84	85
185	3	58	57	79
186	1	30	31	43
187	6	91	92	94
188	1	27	28	29
189	1	30	31	32
190	1	23	25	55
191	1	33	34	35
192	1	64	63	68
193	7	12	6	13
194	1	61	62	63
195	1	59	60	74
196	1	31	30	45
197	1	61	60	74
198	1	2	3	4
199	1	82	83	84
200	1	6	5	15
201	1	26	27	51
202	1	5	6	13
203	1	33	32	42
204	1	7	6	12
205	1	86	87	104
206	1	60	59	76
207	1	32	33	40
208	1	28	29	48
209	1	31	32	41
210	7	71	61	72
211	1	88	87	104
212	2	2	1	57
213	7	114	82	115
214	4	7	8	9
215	3	65	64	66
216	1	33	34	38
217	1	3	2	21

Dihedrals

1	28	37	34	33	40
2	12	62	61	60	74
3	9	84	85	86	87
3	10	84	85	86	87
3	11	84	85	86	87
4	9	82	83	84	85
4	10	82	83	84	85
4	11	82	83	84	85
5	12	2	3	4	17
6	28	73	60	59	75
7	12	29	30	31	43
8	9	88	89	90	91
8	10	88	89	90	91
8	11	88	89	90	91
9	28	70	62	61	71
10	33	93	92	91	97
10	34	93	92	91	97
10	35	93	92	91	97
11	28	39	33	32	41
12	25	38	34	35	80
13	28	15	5	4	16
14	36	34	35	80	81
15	28	111	84	83	112
16	28	107	86	85	109
17	28	51	27	26	53
18	1	35	34	33	39
19	12	88	87	86	107
20	28	102	88	87	105
21	1	92	91	90	99
22	12	29	28	27	51
23	12	89	88	87	104
24	1	5	6	7	8
25	28	47	29	28	50
26	25	94	92	91	96
27	25	35	80	82	115
28	28	74	60	59	76
29	12	30	31	32	41
30	32	24	23	25	26
31	1	57	58	59	60
32	2	66	64	63	68
33	28	17	4	3	19
34	36	36	35	80	82
35	12	61	60	59	76
36	9	3	4	5	6
36	10	3	4	5	6
36	11	3	4	5	6
37	2	21	2	1	57
38	28	37	34	33	39
39	2	77	58	57	79
40	1	80	82	83	112
41	12	2	3	4	16
42	13	9	8	7	10
42	14	9	8	7	10
43	28	50	28	27	52
44	12	31	32	33	40
45	28	49	28	27	52
46	2	20	2	1	22
47	12	4	3	2	21
48	12	83	84	85	108
49	19	7	8	23	24
49	20	7	8	23	24
50	12	27	26	25	56
51	28	98	90	89	100
52	28	67	63	62	69
53	12	86	87	88	103
54	28	19	3	2	21
55	28	75	59	58	78
56	28	110	84	83	113
57	28	107	86	85	108
58	21	9	8	23	25
58	22	9	8	23	25
59	28	96	91	90	99
60	12	88	87	86	106
61	28	69	62	61	72
62	1	92	91	90	98
63	9	25	26	27	28
63	10	25	26	27	28
63	11	25	26	27	28
64	13	10	7	8	23
64	14	10	7	8	23
65	9	4	5	6	7
65	10	4	5	6	7
65	11	4	5	6	7
66	12	89	90	91	97
67	2	3	2	1	22
68	12	60	59	58	78
69	1	64	63	62	70
70	12	5	4	3	19
71	25	35	80	82	114
72	3	2	1	57	58
72	4	2	1	57	58
72	5	2	1	57	58
73	1	32	33	34	35
74	12	5	6	7	11
75	28	74	60	59	75
76	9	30	31	32	33
76	10	30	31	32	33
76	11	30	31	32	33
77	12	91	90	89	100
78	12	33	32	31	44
79	2	1	57	58	77
80	9	29	30	31	32
80	10	29	30	31	32
80	11	29	30	31	32
81	2	66	64	63	67
82	12	30	29	28	50
83	28	16	4	3	18
84	12	4	5	6	13
85	36	36	35	80	81
86	28	109	85	84	111
87	28	72	61	60	74
88	12	59	60	61	72
89	28	103	88	87	105
90	28	71	61	60	74
91	1	1	2	3	19
92	28	101	89	88	103
93	28	38	34	33	40
94	9	86	87	88	89
94	10	86	87	88	89
94	11	86	87	88	89
95	2	59	58	57	79
96	1	80	82	83	84
97	33	24	23	25	56
97	34	24	23	25	56
97	35	24	23	25	56
98	12	28	29	30	46
99	28	53	26	25	56
100	28	50	28	27	51
101	12	25	26	27	52
102	12	31	32	33	39
103	1	61	62	63	64
104	12	85	84	83	113
105	28	45	30	29	48
106	12	27	26	25	55
107	28	11	7	6	12
108	12	34	33	32	42
109	12	86	87	88	102
110	28	108	85	84	111
111	28	99	90	89	101
112	28	110	84	83	112
113	1	57	58	59	76
114	12	84	85	86	107
115	12	63	62	61	71
116	28	76	59	58	78
117	12	28	27	26	54
118	12	89	90	91	96
119	28	113	83	82	115
120	12	84	83	82	115
121	12	90	89	88	102
122	12	61	62	63	68
123	28	46	30	29	47
124	12	5	4	3	18
125	23	8	23	25	26
125	24	8	23	25	26
126	28	40	33	32	41
127	12	3	4	5	15
128	12	86	85	84	110
129	12	87	86	85	109
130	28	18	3	2	21
131	28	42	32	31	44
132	12	30	29	28	49
133	9	85	86	87	88
133	10	85	86	87	88
133	11	85	86	87	88
134	9	83	84	85	86
134	10	83	84	85	86
134	11	83	84	85	86
135	12	4	5	6	12
136	28	72	61	60	73
137	28	68	63	62	69
138	25	90	91	92	94
139	28	13	6	5	14
140	28	103	88	87	104
141	9	59	60	61	62
141	10	59	60	61	62
141	11	59	60	61	62
142	1	1	2	3	18
143	28	101	89	88	102
144	1	8	7	6	13
145	12	62	61	60	73
146	2	78	58	57	79
147	33	24	23	25	55
147	34	24	23	25	55
147	35	24	23	25	55
148	12	82	83	84	111
149	28	53	26	25	55
150	9	2	3	4	5
150	10	2	3	4	5
150	11	2	3	4	5
151	12	25	26	27	51
152	12	88	89	90	99
153	12	87	88	89	101
154	33	81	80	82	115
154	34	81	80	82	115
154	35	81	80	82	115
155	9	87	88	89	90
155	10	87	88	89	90
155	11	87	88	89	90
156	12	31	30	29	48
157	28	105	87	86	107
158	28	45	30	29	47
159	28	41	32	31	44
160	33	93	92	91	96
160	34	93	92	91	96
160	35	93	92	91	96
161	25	35	80	82	83
162	12	6	5	4	17
163	12	34	33	32	41
164	28	44	31	30	46
165	28	108	85	84	110
166	12	7	6	5	15
167	28	99	90	89	100
168	29	22	1	57	79
168	30	22	1	57	79
168	31	22	1	57	79
169	12	32	33	34	38
170	28	100	89	88	103
171	1	57	58	59	75
172	28	102	88	87	104
173	12	84	85	86	106
174	12	28	27	26	53
175	28	113	83	82	114
176	9	58	59	60	61
176	10	58	59	60	61
176	11	58	59	60	61
177	12	84	83	82	114
178	12	61	62	63	67
179	28	70	62	61	72
180	12	26	27	28	50
181	28	47	29	28	49
182	28	15	5	4	17
183	28	14	5	4	17
184	1	1	2	3	4
185	36	34	35	80	82
186	28	52	27	26	54
187	12	3	4	5	14
188	28	51	27	26	54
189	1	35	34	33	40
190	15	6	7	8	23
190	16	6	7	8	23
190	17	6	7	8	23
190	18	6	7	8	23
191	12	87	86	85	108
192	12	32	31	30	46
193	28	17	4	3	18
194	12	58	59	60	74
195	12	85	86	87	105
196	12	29	28	27	52
197	12	89	88	87	105
198	2	62	63	64	66
199	12	61	60	59	75
200	32	90	91	92	93
201	25	8	23	25	56
202	1	8	7	6	12
203	12	30	31	32	42
204	28	10	7	6	13
205	12	82	83	84	110
206	12	27	28	29	48
207	2	1	57	58	59
208	28	49	28	27	51
209	12	4	3	2	20
210	1	89	90	91	92
211	12	87	88	89	100
212	9	26	27	28	29
212	10	26	27	28	29
212	11	26	27	28	29
213	12	31	30	29	47
214	28	105	87	86	106
215	28	54	26	25	56
216	25	37	34	35	80
217	25	33	34	35	80
218	28	41	32	31	43
219	28	48	29	28	50
220	1	23	25	26	27
221	1	23	25	26	54
222	2	21	2	1	22
223	28	19	3	2	20
224	12	5	6	7	10
225	12	7	6	5	14
226	28	75	59	58	77
227	26	9	8	23	24
227	27	9	8	23	24
228	9	31	32	33	34
228	10	31	32	33	34
228	11	31	32	33	34
229	28	96	91	90	98
230	28	100	89	88	102
231	1	80	82	83	113
232	28	69	62	61	71
233	6	22	1	57	58
233	7	22	1	57	58
233	8	22	1	57	58
234	2	3	2	1	57
235	12	83	84	85	109
236	38	93	92	94	95
236	39	93	92	94	95
237	21	7	8	23	25
237	22	7	8	23	25
238	12	60	59	58	77
239	28	112	83	82	115
240	12	26	27	28	49
241	28	98	90	89	101
242	28	43	31	30	46
243	1	64	63	62	69
244	28	67	63	62	70
245	28	104	87	86	107
246	28	14	5	4	16
247	37	91	92	94	95
248	28	52	27	26	53
249	13	6	7	8	9
249	14	6	7	8	9
250	13	9	8	7	11
250	14	9	8	7	11
251	12	33	32	31	43
252	12	32	31	30	45
253	12	58	59	60	73
254	12	85	86	87	104
255	28	109	85	84	110
256	2	62	63	64	65
257	13	11	7	8	23
257	14	11	7	8	23
258	6	2	1	57	79
258	7	2	1	57	79
258	8	2	1	57	79
259	12	59	60	61	71
260	28	71	61	60	73
261	25	8	23	25	55
262	2	65	64	63	68
263	28	38	34	33	39
264	28	12	6	5	15
265	12	91	90	89	101
266	28	10	7	6	12
267	12	28	29	30	45
268	2	1	57	58	78
269	12	27	28	29	47
270	28	16	4	3	19
271	28	106	86	85	109
272	28	97	91	90	99
273	28	54	26	25	55
274	12	85	84	83	112
275	28	48	29	28	49
276	1	23	25	26	53
277	12	60	61	62	70
278	9	28	29	30	31
278	10	28	29	30	31
278	11	28	29	30	31
279	28	73	60	59	76
280	28	76	59	58	77
281	12	29	30	31	44
282	28	112	83	82	114
283	28	43	31	30	45
284	32	33	34	35	36
285	28	11	7	6	13
286	28	39	33	32	42
287	28	104	87	86	106
288	28	111	84	83	113
289	9	60	61	62	63
289	10	60	61	62	63
289	11	60	61	62	63
290	33	36	35	34	38
290	34	36	35	34	38
290	35	36	35	34	38
291	28	18	3	2	20
292	12	63	62	61	72
293	28	42	32	31	43
294	32	81	80	82	83
295	12	90	89	88	103
296	28	46	30	29	48
297	25	94	92	91	97
298	28	40	33	32	42
299	12	32	33	34	37
300	2	65	64	63	67
301	28	12	6	5	14
302	12	86	85	84	111
303	9	27	28	29	30
303	10	27	28	29	30
303	11	27	28	29	30
304	2	20	2	1	57
305	12	88	89	90	98
306	28	106	86	85	108
307	33	81	80	82	114
307	34	81	80	82	114
307	35	81	80	82	114
308	28	97	91	90	98
309	28	68	63	62	70
310	28	13	6	5	15
311	12	6	5	4	16
312	28	44	31	30	45
313	12	60	61	62	69
314	33	36	35	34	37
314	34	36	35	34	37
314	35	36	35	34	37

Impropers

30	1	8	23	7	9
149	1	8	7	9	23
247	2	35	36	80	34
259	2	80	82	35	81
339	2	80	81	82	35
383	2	23	8	24	25
439	2	23	24	25	8
480	3	92	91	93	94
541	3	92	93	94	91
562	2	80	35	81	82
589	2	35	34	36	80
595	2	35	80	34	36
662	2	23	25	8	24
716	3	92	94	91	93
774	1	8	9	23	7
