Title

90 atoms
89 bonds
162 angles
262 dihedrals
18 impropers

11 atom types
14 bond types
10 angle types
36 dihedral types
3 improper types
-9.373000145 90.62699986 xlo xhi
-2.082000017 97.91799998 ylo yhi
-8.086999893 91.91300011 zlo zhi
0.0 0.0 0.0 xy xz yz

Masses

1	12.01078
2	15.99943
3	14.00672
4	12.01078
5	1.007947
6	1.007947
7	1.007947
8	15.99943
9	12.01078
10	15.99943
11	1.007947


Pair Coeffs

1	0.086879315	3.4806469
2	0.2102061	3.0398122
3	0.16769152	3.206876
4	0.10884061	3.3795318
5	0.014090815	1.1034277
6	0.016409246	2.5832257
7	0.015779483	2.6445434
8	0.16846514	3.0251065
9	0.21	3.3996695
10	0.20947353	2.99716
11	1.2326e-05	0.53453923

Bond Coeffs

1 harmonic	582.698766451	1.225198386222
2 harmonic	492.76746816345	1.381897776683
3 harmonic	279.1350963404	1.454628925034
4 harmonic	352.0565580496	1.450098586273
5 harmonic	505.144496193	1.019481865027
6 harmonic	264.62148576755	1.52190126495
7 harmonic	370.04670688625	1.093899492634
8 harmonic	301.15400723785	1.345741232799
9 harmonic	366.7408841747	1.425895053732
10 harmonic	300.03137914615	1.451203938761
11 harmonic	366.34047229585	1.464762957261
12 harmonic	602.81384337	1.196112346392
13 harmonic	329.96998057905	1.427343958716
14 harmonic	543.5267831885	0.9716763312559


Angle Coeffs

1 harmonic	55.42182150775	117.3465570514
2 harmonic	63.44422595415	115.5071327674
3 harmonic	57.8982893754	126.8062420451
4 harmonic	53.20531626545	116.5475862634
5 harmonic	65.09061609600001	110.3538806181
6 harmonic	201.41175231035	127.4691416191
7 harmonic	48.776492647595	115.6030999533
8 harmonic	49.015990027215	114.8414599994
9 harmonic	55.07882548015	112.8714009681
10 harmonic	33.56981613361	180


Dihedral Coeffs

1 fourier 1	-0.1488678166443	4	180
2 fourier 1	-0.1230328948768	3	180
3 fourier 1	0.2939295466901	2	0
4 fourier 1	-0.3024127022865	1	0
5 fourier 1	0.182238503271	2	0
6 fourier 1	0.02972342374561	3	0
7 fourier 1	1.809047390003	2	180
8 fourier 1	-0.04816277792592	1	0
9 fourier 1	3.101948770557	2	180
10 fourier 1	-0.4252153282372	1	0
11 fourier 1	2.348375642009	2	180
12 fourier 1	1.256156174911	1	0
13 fourier 1	0.9974165607242	2	180
14 fourier 1	0.1155372516788	3	0
15 fourier 1	0.09223874044423	3	0
16 fourier 1	0.3159935921949	2	180
17 fourier 1	0.3247796806857	1	180
18 fourier 1	0.1040663847541	3	0
19 fourier 1	2.779853741805	2	180
20 fourier 1	0.1918272375143	3	0
21 fourier 1	0.9202179876409	1	180
22 fourier 1	0.0473758381877	3	0
23 fourier 1	0.4860993122944	2	180
24 fourier 1	0.8916986138746	1	0
25 fourier 1	1.163809172478	2	180
26 fourier 1	0.1679186987369	1	180
27 fourier 1	0.1911926717192	3	0
28 fourier 1	0.2810888471023	3	0
29 fourier 1	0.05324557188047	2	180
30 fourier 1	0.457973137376	1	0
31 fourier 1	0.2036670163956	3	0
32 fourier 1	-1.382973039546	1	0
33 fourier 1	0	1	0
34 fourier 1	0.3445382149273	3	0
35 fourier 1	0.1364556373303	1	0
36 fourier 1	0.3026390167484	3	0


Improper Coeffs

1 0.3333333333333333	-1	2
2 0.3666666666666667	-1	2
3 3.5	-1	2


Atoms

1	1	1	0.54567897	3.3410001	1.4349999	0.43399999
2	1	2	-0.66894299	4.3610001	0.736	0.192
3	1	3	-0.51894301	2.036	0.977	0.071000002
4	1	4	0.031484	1.834	-0.308	-0.60100001
5	1	4	-0.144934	0.34599999	-0.59299999	-0.83999997
6	1	4	-0.143629	-0.39700001	-0.898	0.47099999
7	1	4	0.025679	-1.876	-1.224	0.226
8	1	3	-0.46219301	-2.5880001	-0.074000001	-0.331
9	1	1	0.78843498	-2.9430001	1.071	0.44999999
10	1	2	-0.59503597	-2.6630001	1.13	1.677
11	1	5	0.329317	-2.9000001	-0.11	-1.327
12	1	6	0.06247	-2.355	-1.533	1.1799999
13	1	6	0.06247	-1.952	-2.082	-0.477
14	1	7	0.092767	-0.31600001	-0.037999999	1.168
15	1	7	0.092767	0.077	-1.776	0.96200001
16	1	7	0.092767	-0.117	0.278	-1.353
17	1	7	0.092767	0.26100001	-1.471	-1.516
18	1	6	0.058844	2.2809999	-1.124	0.0070000002
19	1	6	0.058844	2.355	-0.285	-1.5829999
20	1	5	0.32273701	1.224	1.599	0.28400001
21	1	8	-0.49055901	-3.444	1.862	0.003
22	1	4	0.094889998	-2.4649999	2.8150001	-0.31600001
23	1	4	-0.018448001	-3.0999999	4.0580001	-0.99299997
24	1	4	-0.16204201	-1.961	5.0450001	-1.3329999
25	1	7	0.081142999	-1.223	4.5700002	-2.016
26	1	7	0.081142999	-2.349	5.9559999	-1.835
27	1	7	0.081142999	-1.428	5.3600001	-0.41
28	1	4	0.003643	-3.816	3.6099999	-2.296
29	1	8	-0.14343999	-4.263	4.7119999	-3.0380001
30	1	6	0.106794	-3.1129999	3.016	-2.9230001
31	1	6	0.106794	-4.684	2.9579999	-2.046
32	1	4	0.062316	-4.1040001	4.717	-0.001
33	1	3	-0.721775	-4.6890001	5.961	-0.56300002
34	1	4	0.082092002	-4.3010001	7.1440001	0.222
35	1	6	0.064262003	-4.697	7.085	1.26
36	1	6	0.064262003	-3.194	7.2309999	0.26300001
37	1	6	0.064262003	-4.6849999	8.0670004	-0.26199999
38	1	4	0.082092002	-6.1570001	5.8779998	-0.64499998
39	1	6	0.064262003	-6.4559999	5.0120001	-1.274
40	1	6	0.064262003	-6.566	6.7909999	-1.127
41	1	6	0.064262003	-6.6079998	5.7639999	0.366
42	1	6	0.086902998	-4.895	3.974	0.25400001
43	1	6	0.086902998	-3.579	4.9130001	0.96399999
44	1	6	0.097585	-1.933	3.1199999	0.61400002
45	1	6	0.097585	-1.715	2.3529999	-0.99800003
46	1	1	0.54567897	3.4560001	2.3929999	0.92299998
47	1	2	-0.66894299	2.701	2.6919999	1.886
48	1	3	-0.51894301	4.461	3.3039999	0.47
49	1	4	0.031775001	4.6529999	4.6090002	1.1
50	1	4	-0.13981199	5.7909999	5.3800001	0.42300001
51	1	4	-0.12181	5.9970002	6.75	1.079
52	1	4	0.185808	7.1339998	7.5219998	0.398
53	1	3	-0.62140101	7.369	8.8000002	1.062
54	1	9	0.59461498	6.5209999	9.7489996	1.018
55	1	2	-0.44303599	5.6960001	10.67	0.97500002
56	1	6	0.036465999	8.0679998	6.9229999	0.45500001
57	1	6	0.036465999	6.8979998	7.6929998	-0.676
58	1	7	0.086632997	6.2449999	6.612	2.155
59	1	7	0.086632997	5.0560002	7.3379998	1.005
60	1	7	0.091746002	5.5469999	5.5190001	-0.65399998
61	1	7	0.091746002	6.7290001	4.7870002	0.5
62	1	6	0.058844	3.711	5.1939998	1.021
63	1	6	0.058844	4.8940001	4.4629998	2.1760001
64	1	5	0.32273701	5.0630002	3.01	-0.333
65	1	8	-0.142987	-4.724	4.3410001	-3.835
66	1	4	0.013579	-6.079	4.6719999	-3.6930001
67	1	4	-0.052379001	-6.9109998	4.1370001	-4.888
68	1	4	-0.154928	-8.3809996	4.5609999	-4.6700001
69	1	7	0.080971003	-8.4639997	5.6669998	-4.6090002
70	1	7	0.080971003	-9.0299997	4.217	-5.5029998
71	1	7	0.080971003	-8.776	4.1290002	-3.7249999
72	1	4	0.067317002	-6.369	4.7690001	-6.1989999
73	1	10	-0.67397702	-7.1880002	4.4549999	-7.2940001
74	1	11	0.38873899	-6.7639999	4.8740001	-8.0869999
75	1	6	0.092849001	-6.3249998	5.8769999	-6.0900002
76	1	6	0.092849001	-5.335	4.4039998	-6.3959999
77	1	4	0.073104002	-6.7979999	2.5840001	-4.928
78	1	3	-0.72202802	-7.638	2.0039999	-6.007
79	1	4	0.082092002	-8.7139997	1.16	-5.461
80	1	6	0.064262003	-8.2980003	0.28200001	-4.9180002
81	1	6	0.064262003	-9.3470001	1.749	-4.7639999
82	1	6	0.064262003	-9.3730001	0.80199999	-6.2810001
83	1	4	0.082092002	-6.829	1.225	-6.9590001
84	1	6	0.064262003	-6.0440001	1.869	-7.4089999
85	1	6	0.064262003	-7.467	0.85500002	-7.7909999
86	1	6	0.064262003	-6.3439999	0.35800001	-6.4580002
87	1	6	0.086832002	-5.7259998	2.306	-5.052
88	1	6	0.086832002	-7.0819998	2.178	-3.928
89	1	6	0.106902	-6.4650002	4.2410002	-2.7409999
90	1	6	0.106902	-6.1799998	5.7800002	-3.6270001

Bonds

1	1	1	2
2	2	1	3
3	3	1	46
4	4	3	4
5	5	3	20
6	6	4	5
7	7	4	18
8	7	4	19
9	6	5	6
10	7	5	16
11	7	5	17
12	6	6	7
13	7	6	14
14	7	6	15
15	4	7	8
16	7	7	12
17	7	7	13
18	2	8	9
19	5	8	11
20	1	9	10
21	8	9	21
22	9	21	22
23	6	22	23
24	7	22	44
25	7	22	45
26	6	23	24
27	6	23	28
28	6	23	32
29	7	24	25
30	7	24	26
31	7	24	27
32	9	28	29
33	7	28	30
34	7	28	31
35	10	29	65
36	11	32	33
37	7	32	42
38	7	32	43
39	11	33	34
40	11	33	38
41	7	34	35
42	7	34	36
43	7	34	37
44	7	38	39
45	7	38	40
46	7	38	41
47	1	46	47
48	2	46	48
49	4	48	49
50	5	48	64
51	6	49	50
52	7	49	62
53	7	49	63
54	6	50	51
55	7	50	60
56	7	50	61
57	6	51	52
58	7	51	58
59	7	51	59
60	11	52	53
61	7	52	56
62	7	52	57
63	12	53	54
64	1	54	55
65	9	65	66
66	6	66	67
67	7	66	89
68	7	66	90
69	6	67	68
70	6	67	72
71	6	67	77
72	7	68	69
73	7	68	70
74	7	68	71
75	13	72	73
76	7	72	75
77	7	72	76
78	14	73	74
79	11	77	78
80	7	77	87
81	7	77	88
82	11	78	79
83	11	78	83
84	7	79	80
85	7	79	81
86	7	79	82
87	7	83	84
88	7	83	85
89	7	83	86

Angles

1	7	30	28	31
2	7	70	68	71
3	2	1	3	20
4	7	18	4	19
5	4	65	66	90
6	5	29	65	66
7	4	78	79	82
8	4	78	83	86
9	4	67	77	88
10	4	3	4	19
11	4	6	5	17
12	4	7	6	14
13	4	50	49	62
14	4	65	66	67
15	4	68	67	77
16	4	67	72	73
17	4	52	51	59
18	2	4	3	20
19	3	8	9	21
20	7	56	52	57
21	7	16	5	17
22	4	33	34	35
23	8	32	33	38
24	4	8	7	12
25	4	67	66	89
26	4	53	52	57
27	4	73	72	75
28	4	5	4	18
29	4	22	23	32
30	3	47	46	48
31	4	78	77	88
32	4	72	67	77
33	7	44	22	45
34	4	48	49	63
35	4	23	24	25
36	4	33	38	41
37	4	22	23	28
38	4	33	34	36
39	3	1	46	48
40	7	62	49	63
41	4	67	66	90
42	4	23	32	42
43	7	39	38	40
44	4	73	72	76
45	4	5	4	19
46	4	49	50	61
47	4	22	23	24
48	4	23	28	31
49	4	23	24	26
50	7	69	68	70
51	4	5	6	15
52	4	23	32	43
53	7	39	38	41
54	4	4	5	6
55	4	51	52	53
56	4	50	51	52
57	10	53	54	55
58	4	78	83	84
59	4	24	23	32
60	4	7	6	15
61	7	36	34	37
62	4	23	32	33
63	2	49	48	64
64	4	50	49	63
65	3	8	9	10
66	7	75	72	76
67	8	79	78	83
68	7	12	7	13
69	4	23	22	44
70	4	67	68	69
71	3	2	1	3
72	7	84	83	85
73	9	52	53	54
74	4	24	23	28
75	7	26	24	27
76	4	8	7	13
77	4	67	77	78
78	4	66	67	68
79	4	6	7	12
80	4	33	32	42
81	2	46	48	64
82	3	3	1	46
83	4	67	72	75
84	4	23	22	45
85	5	9	21	22
86	4	78	79	80
87	7	25	24	26
88	8	77	78	83
89	4	21	22	44
90	4	51	52	56
91	4	4	5	16
92	4	29	28	30
93	4	28	23	32
94	6	10	9	21
95	4	33	34	37
96	1	7	8	9
97	7	85	83	86
98	7	58	51	59
99	8	77	78	79
100	4	5	6	7
101	4	33	32	43
102	4	78	79	81
103	4	49	50	51
104	4	6	5	16
105	5	28	29	65
106	4	29	28	31
107	2	9	8	11
108	7	14	6	15
109	4	23	24	27
110	7	69	68	71
111	4	52	51	58
112	4	66	67	72
113	4	68	67	72
114	7	60	50	61
115	4	3	4	5
116	4	6	7	8
117	4	33	38	39
118	4	66	67	77
119	7	89	66	90
120	4	51	50	60
121	4	53	52	56
122	7	35	34	36
123	4	50	51	58
124	4	78	77	87
125	4	48	49	62
126	4	67	68	70
127	7	80	79	81
128	7	84	83	86
129	7	81	79	82
130	3	2	1	46
131	4	23	28	29
132	4	33	38	40
133	1	46	48	49
134	3	1	46	47
135	4	21	22	23
136	4	6	7	13
137	4	51	50	61
138	2	7	8	11
139	7	35	34	37
140	4	49	50	60
141	4	50	51	59
142	4	67	72	76
143	4	67	68	71
144	4	65	66	89
145	7	80	79	82
146	7	25	24	27
147	4	78	83	85
148	8	32	33	34
149	4	21	22	45
150	4	51	52	57
151	4	4	5	17
152	4	3	4	18
153	4	67	77	87
154	5	72	73	74
155	7	87	77	88
156	4	23	28	30
157	7	40	38	41
158	4	5	6	14
159	8	34	33	38
160	7	42	32	43
161	1	1	3	4
162	4	48	49	50

Dihedrals

1	31	83	78	77	88
2	27	59	51	50	60
3	18	72	67	77	87
4	31	34	33	32	43
5	5	63	49	48	64
5	6	63	49	48	64
6	7	7	8	9	21
6	8	7	8	9	21
7	18	22	23	28	31
8	18	22	23	32	42
9	18	27	24	23	32
10	27	14	6	5	16
11	22	31	28	29	65
12	18	66	67	72	75
13	5	19	4	3	20
13	6	19	4	3	20
14	14	8	7	6	15
15	18	5	6	7	13
16	13	3	1	46	47
17	27	56	52	51	58
18	1	6	7	8	9
18	2	6	7	8	9
18	3	6	7	8	9
18	4	6	7	8	9
19	18	27	24	23	28
20	18	28	23	22	45
21	18	66	67	68	70
22	18	24	23	22	45
23	5	46	48	49	63
23	6	46	48	49	63
24	33	52	53	54	55
25	28	67	77	78	79
25	29	67	77	78	79
26	18	71	68	67	72
27	27	16	5	4	18
28	18	72	67	77	88
29	31	77	78	83	85
30	18	22	23	32	43
31	31	38	33	32	42
32	31	79	78	83	86
33	31	81	79	78	83
34	18	66	67	72	76
35	18	71	68	67	77
36	22	29	65	66	90
37	18	31	28	23	32
38	5	50	49	48	64
38	6	50	49	48	64
39	27	57	52	51	59
40	14	22	23	32	33
41	22	29	65	66	67
42	27	56	52	51	59
43	19	8	9	21	22
44	18	66	67	68	71
45	18	69	68	67	72
46	34	67	72	73	74
46	35	67	72	73	74
47	18	51	50	49	62
48	31	32	33	34	37
49	7	20	3	1	46
49	8	20	3	1	46
50	18	24	23	28	30
51	27	13	7	6	14
52	18	66	67	77	87
53	18	68	67	72	75
54	18	72	67	66	89
55	31	77	78	79	80
56	31	34	33	38	40
57	18	52	51	50	60
58	30	28	29	65	66
59	18	7	6	5	16
60	31	79	78	77	88
61	36	74	73	72	75
62	18	28	23	32	42
63	18	49	50	51	58
64	27	58	51	50	60
65	18	22	23	24	26
66	23	10	9	8	11
66	24	10	9	8	11
67	14	3	4	5	16
68	18	66	67	77	88
69	22	30	28	29	65
70	31	32	33	38	39
71	18	24	23	28	31
72	18	24	23	32	42
73	28	67	77	78	83
73	29	67	77	78	83
74	18	68	67	72	76
75	14	72	67	77	78
76	18	72	67	66	90
77	31	77	78	79	81
78	31	34	33	38	41
79	5	9	8	7	13
79	6	9	8	7	13
80	13	2	1	46	48
81	18	68	67	77	87
82	7	7	8	9	10
82	8	7	8	9	10
83	18	7	6	5	17
84	1	1	3	4	5
84	2	1	3	4	5
84	3	1	3	4	5
84	4	1	3	4	5
85	31	37	34	33	38
86	14	48	49	50	51
87	36	74	73	72	76
88	27	59	51	50	61
89	5	6	7	8	11
89	6	6	7	8	11
90	7	4	3	1	46
90	8	4	3	1	46
91	18	22	23	24	27
92	14	53	52	51	58
93	27	14	6	5	17
94	22	9	21	22	44
95	27	58	51	50	61
96	14	65	66	67	72
97	14	3	4	5	17
98	27	15	6	5	16
99	5	62	49	48	64
99	6	62	49	48	64
100	27	60	50	49	62
101	18	24	23	32	43
102	13	3	1	46	48
103	7	11	8	9	21
103	8	11	8	9	21
104	18	30	28	23	32
105	25	10	9	21	22
105	26	10	9	21	22
106	5	18	4	3	20
106	6	18	4	3	20
107	14	65	66	67	68
108	14	29	28	23	32
109	7	1	46	48	64
109	8	1	46	48	64
110	14	24	23	32	33
111	18	50	51	52	56
112	31	77	78	83	86
113	31	32	33	34	35
114	27	16	5	4	19
115	31	79	78	83	84
116	31	38	33	32	43
117	14	53	52	51	59
118	18	69	68	67	77
119	18	25	24	23	28
120	27	15	6	5	17
121	31	80	79	78	83
122	14	66	67	77	78
123	18	4	5	6	14
124	14	22	23	28	29
125	7	1	46	48	49
125	8	1	46	48	49
126	27	17	5	4	18
127	5	1	3	4	18
127	6	1	3	4	18
128	18	77	67	66	89
129	18	68	67	66	89
130	14	66	67	72	73
131	18	50	51	52	57
132	11	47	46	48	64
132	12	47	46	48	64
133	32	51	52	53	54
134	18	51	50	49	63
135	27	13	7	6	15
136	18	32	23	22	44
137	18	6	5	4	18
138	14	48	49	50	60
139	18	52	51	50	61
140	18	28	23	32	43
141	31	83	78	77	87
142	14	50	51	52	53
143	18	70	68	67	72
144	5	5	4	3	20
144	6	5	4	3	20
145	14	73	72	67	77
146	31	34	33	32	42
147	18	49	50	51	59
148	27	17	5	4	19
149	1	46	48	49	50
149	2	46	48	49	50
149	3	46	48	49	50
149	4	46	48	49	50
150	5	1	3	4	19
150	6	1	3	4	19
151	9	47	46	48	49
151	10	47	46	48	49
152	18	75	72	67	77
153	14	28	23	32	33
154	18	5	6	7	12
155	31	32	33	38	40
156	31	77	78	79	82
157	18	32	23	22	45
158	18	68	67	77	88
159	14	48	49	50	61
160	14	65	66	67	77
161	18	25	24	23	32
162	18	28	23	22	44
163	20	9	21	22	23
163	21	9	21	22	23
164	18	66	67	68	69
165	18	24	23	22	44
166	5	46	48	49	62
166	6	46	48	49	62
167	14	68	67	72	73
168	31	79	78	83	85
169	32	54	53	52	56
170	5	11	8	7	12
170	6	11	8	7	12
171	22	9	21	22	45
172	18	26	24	23	32
173	31	36	34	33	38
174	27	60	50	49	63
175	22	29	65	66	89
176	31	32	33	38	41
177	27	57	52	51	58
178	27	61	50	49	62
179	14	21	22	23	32
180	18	26	24	23	28
181	31	82	79	78	83
182	31	77	78	83	84
183	31	32	33	34	36
184	14	24	23	28	29
185	14	3	4	5	6
186	32	54	53	52	57
187	5	11	8	7	13
187	6	11	8	7	13
188	9	2	1	3	4
188	10	2	1	3	4
189	31	34	33	38	39
190	15	49	50	51	52
190	16	49	50	51	52
190	17	49	50	51	52
191	28	23	32	33	38
191	29	23	32	33	38
192	14	21	22	23	28
193	27	12	7	6	14
194	31	79	78	77	87
195	11	2	1	3	20
195	12	2	1	3	20
196	22	23	28	29	65
197	18	4	5	6	15
198	27	61	50	49	63
199	14	5	6	7	8
200	18	22	23	28	30
201	18	77	67	66	90
202	18	22	23	24	25
203	15	4	5	6	7
203	16	4	5	6	7
203	17	4	5	6	7
204	14	68	67	77	78
205	18	68	67	66	90
206	31	35	34	33	38
207	28	23	32	33	34
207	29	23	32	33	34
208	14	21	22	23	24
209	18	70	68	67	77
210	14	8	7	6	14
211	18	6	5	4	19
212	5	9	8	7	12
212	6	9	8	7	12
213	13	2	1	46	47
214	27	12	7	6	15
215	18	76	72	67	77

Impropers

4	1	3	1	4	20
38	3	9	10	21	8
129	2	1	2	3	46
162	3	9	8	10	21
202	2	46	47	48	1
204	2	1	3	46	2
230	1	8	7	9	11
231	2	1	46	2	3
287	3	9	21	8	10
312	1	3	20	1	4
351	2	46	48	1	47
386	1	48	49	64	46
418	2	46	1	47	48
428	1	48	64	46	49
436	1	8	11	7	9
457	1	48	46	49	64
461	1	3	4	20	1
569	1	8	9	11	7
