Title

90 atoms
89 bonds
162 angles
262 dihedrals
18 impropers

11 atom types
14 bond types
10 angle types
36 dihedral types
3 improper types
-9.373000145 90.62699986 xlo xhi
-2.082000017 97.91799998 ylo yhi
-8.086999893 91.91300011 zlo zhi
0.0 0.0 0.0 xy xz yz

Masses

1	12.01078
2	15.99943
3	14.00672
4	12.01078
5	1.007947
6	1.007947
7	1.007947
8	15.99943
9	12.01078
10	15.99943
11	1.007947


Pair Coeffs

1	0.086879315	3.4806469
2	0.2102061	3.0398122
3	0.16769152	3.206876
4	0.10884061	3.3795318
5	0.014090815	1.1034277
6	0.016409246	2.5832257
7	0.015779483	2.6445434
8	0.16846514	3.0251065
9	0.21	3.3996695
10	0.20947353	2.99716
11	1.2326e-05	0.53453923

Bond Coeffs

1 harmonic	582.698766451	1.225198386222
2 harmonic	492.76746816345	1.381897776683
3 harmonic	279.1350963404	1.454628925034
4 harmonic	352.0565580496	1.450098586273
5 harmonic	505.144496193	1.019481865027
6 harmonic	264.62148576755	1.52190126495
7 harmonic	370.04670688625	1.093899492634
8 harmonic	301.15400723785	1.345741232799
9 harmonic	366.7408841747	1.425895053732
10 harmonic	300.03137914615	1.451203938761
11 harmonic	366.34047229585	1.464762957261
12 harmonic	602.81384337	1.196112346392
13 harmonic	329.96998057905	1.427343958716
14 harmonic	543.5267831885	0.9716763312559


Angle Coeffs

1 harmonic	55.42182150775	117.3465570514
2 harmonic	63.44422595415	115.5071327674
3 harmonic	57.8982893754	126.8062420451
4 harmonic	53.20531626545	116.5475862634
5 harmonic	65.09061609600001	110.3538806181
6 harmonic	201.41175231035	127.4691416191
7 harmonic	48.776492647595	115.6030999533
8 harmonic	49.015990027215	114.8414599994
9 harmonic	55.07882548015	112.8714009681
10 harmonic	33.56981613361	180


Dihedral Coeffs

1 fourier 1	-0.1488678166443	4	180
2 fourier 1	-0.1230328948768	3	180
3 fourier 1	0.2939295466901	2	0
4 fourier 1	-0.3024127022865	1	0
5 fourier 1	0.182238503271	2	0
6 fourier 1	0.02972342374561	3	0
7 fourier 1	1.809047390003	2	180
8 fourier 1	-0.04816277792592	1	0
9 fourier 1	3.101948770557	2	180
10 fourier 1	-0.4252153282372	1	0
11 fourier 1	2.348375642009	2	180
12 fourier 1	1.256156174911	1	0
13 fourier 1	0.9974165607242	2	180
14 fourier 1	0.1155372516788	3	0
15 fourier 1	0.09223874044423	3	0
16 fourier 1	0.3159935921949	2	180
17 fourier 1	0.3247796806857	1	180
18 fourier 1	0.1040663847541	3	0
19 fourier 1	2.779853741805	2	180
20 fourier 1	0.1918272375143	3	0
21 fourier 1	0.9202179876409	1	180
22 fourier 1	0.0473758381877	3	0
23 fourier 1	0.4860993122944	2	180
24 fourier 1	0.8916986138746	1	0
25 fourier 1	1.163809172478	2	180
26 fourier 1	0.1679186987369	1	180
27 fourier 1	0.1911926717192	3	0
28 fourier 1	0.2810888471023	3	0
29 fourier 1	0.05324557188047	2	180
30 fourier 1	0.457973137376	1	0
31 fourier 1	0.2036670163956	3	0
32 fourier 1	-1.382973039546	1	0
33 fourier 1	0	1	0
34 fourier 1	0.3445382149273	3	0
35 fourier 1	0.1364556373303	1	0
36 fourier 1	0.3026390167484	3	0


Improper Coeffs

1 0.3333333333333333	-1	2
2 0.3666666666666667	-1	2
3 3.5	-1	2


Atoms

1	1	1	0.54567897	3.3410001	1.4349999	0.43399999
2	1	2	-0.66894299	4.3610001	0.736	0.192
3	1	3	-0.51894301	2.036	0.977	0.071000002
4	1	4	0.031484	1.834	-0.308	-0.60100001
5	1	4	-0.144934	0.34599999	-0.59299999	-0.83999997
6	1	4	-0.143629	-0.39700001	-0.898	0.47099999
7	1	4	0.025679	-1.876	-1.224	0.226
8	1	3	-0.46219301	-2.5880001	-0.074000001	-0.331
9	1	1	0.78843498	-2.9430001	1.071	0.44999999
10	1	2	-0.59503597	-2.6630001	1.13	1.677
11	1	5	0.329317	-2.9000001	-0.11	-1.327
12	1	6	0.06247	-2.355	-1.533	1.1799999
13	1	6	0.06247	-1.952	-2.082	-0.477
14	1	7	0.092767	-0.31600001	-0.037999999	1.168
15	1	7	0.092767	0.077	-1.776	0.96200001
16	1	7	0.092767	-0.117	0.278	-1.353
17	1	7	0.092767	0.26100001	-1.471	-1.516
18	1	6	0.058844	2.2809999	-1.124	0.0070000002
19	1	6	0.058844	2.355	-0.285	-1.5829999
20	1	5	0.32273701	1.224	1.599	0.28400001
21	1	8	-0.49055901	-3.444	1.862	0.003
22	1	4	0.094889998	-2.4649999	2.8150001	-0.31600001
23	1	4	-0.018448001	-3.0999999	4.0580001	-0.99299997
24	1	4	-0.16204201	-1.961	5.0450001	-1.3329999
25	1	7	0.081142999	-1.223	4.5700002	-2.016
26	1	7	0.081142999	-2.349	5.9559999	-1.835
27	1	7	0.081142999	-1.428	5.3600001	-0.41
28	1	4	0.003643	-3.816	3.6099999	-2.296
29	1	8	-0.14343999	-4.263	4.7119999	-3.0380001
30	1	6	0.106794	-3.1129999	3.016	-2.9230001
31	1	6	0.106794	-4.684	2.9579999	-2.046
32	1	4	0.062316	-4.1040001	4.717	-0.001
33	1	3	-0.721775	-4.6890001	5.961	-0.56300002
34	1	4	0.082092002	-4.3010001	7.1440001	0.222
35	1	6	0.064262003	-4.697	7.085	1.26
36	1	6	0.064262003	-3.194	7.2309999	0.26300001
37	1	6	0.064262003	-4.6849999	8.0670004	-0.26199999
38	1	4	0.082092002	-6.1570001	5.8779998	-0.64499998
39	1	6	0.064262003	-6.4559999	5.0120001	-1.274
40	1	6	0.064262003	-6.566	6.7909999	-1.127
41	1	6	0.064262003	-6.6079998	5.7639999	0.366
42	1	6	0.086902998	-4.895	3.974	0.25400001
43	1	6	0.086902998	-3.579	4.9130001	0.96399999
44	1	6	0.097585	-1.933	3.1199999	0.61400002
45	1	6	0.097585	-1.715	2.3529999	-0.99800003
46	1	1	0.54567897	3.4560001	2.3929999	0.92299998
47	1	2	-0.66894299	2.701	2.6919999	1.886
48	1	3	-0.51894301	4.461	3.3039999	0.47
49	1	4	0.031775001	4.6529999	4.6090002	1.1
50	1	4	-0.13981199	5.7909999	5.3800001	0.42300001
51	1	4	-0.12181	5.9970002	6.75	1.079
52	1	4	0.185808	7.1339998	7.5219998	0.398
53	1	3	-0.62140101	7.369	8.8000002	1.062
54	1	9	0.59461498	6.5209999	9.7489996	1.018
55	1	2	-0.44303599	5.6960001	10.67	0.97500002
56	1	6	0.036465999	8.0679998	6.9229999	0.45500001
57	1	6	0.036465999	6.8979998	7.6929998	-0.676
58	1	7	0.086632997	6.2449999	6.612	2.155
59	1	7	0.086632997	5.0560002	7.3379998	1.005
60	1	7	0.091746002	5.5469999	5.5190001	-0.65399998
61	1	7	0.091746002	6.7290001	4.7870002	0.5
62	1	6	0.058844	3.711	5.1939998	1.021
63	1	6	0.058844	4.8940001	4.4629998	2.1760001
64	1	5	0.32273701	5.0630002	3.01	-0.333
65	1	8	-0.142987	-4.724	4.3410001	-3.835
66	1	4	0.013579	-6.079	4.6719999	-3.6930001
67	1	4	-0.052379001	-6.9109998	4.1370001	-4.888
68	1	4	-0.154928	-8.3809996	4.5609999	-4.6700001
69	1	7	0.080971003	-8.4639997	5.6669998	-4.6090002
70	1	7	0.080971003	-9.0299997	4.217	-5.5029998
71	1	7	0.080971003	-8.776	4.1290002	-3.7249999
72	1	4	0.067317002	-6.369	4.7690001	-6.1989999
73	1	10	-0.67397702	-7.1880002	4.4549999	-7.2940001
74	1	11	0.38873899	-6.7639999	4.8740001	-8.0869999
75	1	6	0.092849001	-6.3249998	5.8769999	-6.0900002
76	1	6	0.092849001	-5.335	4.4039998	-6.3959999
77	1	4	0.073104002	-6.7979999	2.5840001	-4.928
78	1	3	-0.72202802	-7.638	2.0039999	-6.007
79	1	4	0.082092002	-8.7139997	1.16	-5.461
80	1	6	0.064262003	-8.2980003	0.28200001	-4.9180002
81	1	6	0.064262003	-9.3470001	1.749	-4.7639999
82	1	6	0.064262003	-9.3730001	0.80199999	-6.2810001
83	1	4	0.082092002	-6.829	1.225	-6.9590001
84	1	6	0.064262003	-6.0440001	1.869	-7.4089999
85	1	6	0.064262003	-7.467	0.85500002	-7.7909999
86	1	6	0.064262003	-6.3439999	0.35800001	-6.4580002
87	1	6	0.086832002	-5.7259998	2.306	-5.052
88	1	6	0.086832002	-7.0819998	2.178	-3.928
89	1	6	0.106902	-6.4650002	4.2410002	-2.7409999
90	1	6	0.106902	-6.1799998	5.7800002	-3.6270001

Bonds

1	1	1	2
2	2	1	3
3	3	1	46
4	4	3	4
5	5	3	20
6	6	4	5
7	7	4	18
8	7	4	19
9	6	5	6
10	7	5	16
11	7	5	17
12	6	6	7
13	7	6	14
14	7	6	15
15	4	7	8
16	7	7	12
17	7	7	13
18	2	8	9
19	5	8	11
20	1	9	10
21	8	9	21
22	9	21	22
23	6	22	23
24	7	22	44
25	7	22	45
26	6	23	24
27	6	23	28
28	6	23	32
29	7	24	25
30	7	24	26
31	7	24	27
32	9	28	29
33	7	28	30
34	7	28	31
35	10	29	65
36	11	32	33
37	7	32	42
38	7	32	43
39	11	33	34
40	11	33	38
41	7	34	35
42	7	34	36
43	7	34	37
44	7	38	39
45	7	38	40
46	7	38	41
47	1	46	47
48	2	46	48
49	4	48	49
50	5	48	64
51	6	49	50
52	7	49	62
53	7	49	63
54	6	50	51
55	7	50	60
56	7	50	61
57	6	51	52
58	7	51	58
59	7	51	59
60	11	52	53
61	7	52	56
62	7	52	57
63	12	53	54
64	1	54	55
65	9	65	66
66	6	66	67
67	7	66	89
68	7	66	90
69	6	67	68
70	6	67	72
71	6	67	77
72	7	68	69
73	7	68	70
74	7	68	71
75	13	72	73
76	7	72	75
77	7	72	76
78	14	73	74
79	11	77	78
80	7	77	87
81	7	77	88
82	11	78	79
83	11	78	83
84	7	79	80
85	7	79	81
86	7	79	82
87	7	83	84
88	7	83	85
89	7	83	86

Angles

1	8	77	78	79
2	4	23	24	25
3	4	33	38	39
4	3	1	46	47
5	4	5	6	14
6	7	39	38	41
7	2	49	48	64
8	5	72	73	74
9	5	29	65	66
10	7	16	5	17
11	4	68	67	72
12	4	51	52	56
13	4	22	23	24
14	4	49	50	60
15	4	23	32	43
16	3	2	1	3
17	4	78	83	84
18	4	7	6	14
19	2	46	48	64
20	8	34	33	38
21	7	70	68	71
22	7	89	66	90
23	4	6	7	12
24	4	33	38	40
25	4	67	68	69
26	6	10	9	21
27	3	47	46	48
28	4	21	22	44
29	7	35	34	36
30	4	51	52	57
31	4	23	22	44
32	4	33	34	35
33	4	78	83	85
34	7	42	32	43
35	4	7	6	15
36	7	81	79	82
37	7	60	50	61
38	4	23	28	30
39	4	67	77	78
40	4	22	23	32
41	7	12	7	13
42	4	73	72	76
43	2	7	8	11
44	7	25	24	27
45	4	33	32	42
46	7	75	72	76
47	4	21	22	45
48	7	35	34	37
49	7	87	77	88
50	4	4	5	17
51	4	22	23	28
52	4	3	4	19
53	4	51	50	60
54	4	23	28	31
55	4	6	7	8
56	4	50	49	62
57	4	29	28	30
58	4	23	24	26
59	4	68	67	77
60	4	48	49	50
61	3	1	46	48
62	4	5	6	15
63	5	28	29	65
64	4	50	51	58
65	4	52	51	58
66	10	53	54	55
67	7	69	68	70
68	3	3	1	46
69	4	66	67	72
70	7	30	28	31
71	4	49	50	61
72	4	65	66	89
73	4	67	72	75
74	4	24	23	32
75	7	62	49	63
76	4	5	4	18
77	4	67	77	87
78	4	78	79	80
79	4	23	32	33
80	2	9	8	11
81	4	8	7	12
82	4	66	67	68
83	4	23	24	27
84	4	6	7	13
85	4	33	38	41
86	4	50	51	59
87	7	26	24	27
88	4	67	68	70
89	4	24	23	28
90	4	23	22	45
91	4	33	34	36
92	4	78	77	87
93	4	65	66	90
94	4	72	67	77
95	4	78	83	86
96	8	79	78	83
97	4	67	77	88
98	4	49	50	51
99	4	78	79	81
100	7	18	4	19
101	7	58	51	59
102	4	53	52	56
103	4	28	23	32
104	4	6	5	16
105	7	40	38	41
106	5	9	21	22
107	4	33	32	43
108	3	8	9	21
109	4	33	34	37
110	7	39	38	40
111	9	52	53	54
112	7	84	83	85
113	4	5	6	7
114	7	85	83	86
115	4	51	50	61
116	4	67	66	89
117	4	53	52	57
118	4	6	5	17
119	3	8	9	10
120	4	23	32	42
121	4	4	5	6
122	4	50	51	52
123	4	50	49	63
124	4	66	67	77
125	4	29	28	31
126	7	80	79	81
127	4	48	49	62
128	7	14	6	15
129	4	65	66	67
130	4	3	4	5
131	7	84	83	86
132	4	52	51	59
133	7	69	68	71
134	4	67	66	90
135	4	67	72	76
136	4	21	22	23
137	4	5	4	19
138	7	80	79	82
139	4	48	49	63
140	4	8	7	13
141	4	23	28	29
142	7	36	34	37
143	7	56	52	57
144	2	4	3	20
145	3	2	1	46
146	4	73	72	75
147	8	32	33	38
148	4	67	68	71
149	7	44	22	45
150	7	25	24	26
151	4	4	5	16
152	1	46	48	49
153	4	78	77	88
154	8	32	33	34
155	1	1	3	4
156	4	78	79	82
157	1	7	8	9
158	8	77	78	83
159	4	3	4	18
160	2	1	3	20
161	4	51	52	53
162	4	67	72	73

Dihedrals

1	14	48	49	50	51
2	14	65	66	67	68
3	22	9	21	22	44
4	18	26	24	23	32
5	5	1	3	4	19
5	6	1	3	4	19
6	19	8	9	21	22
7	18	7	6	5	16
8	27	13	7	6	15
9	18	52	51	50	61
10	13	3	1	46	47
11	31	34	33	38	39
12	5	46	48	49	63
12	6	46	48	49	63
13	18	70	68	67	72
14	18	32	23	22	44
15	18	26	24	23	28
16	14	68	67	72	73
17	18	72	67	77	88
18	31	77	78	83	85
19	31	77	78	79	80
20	9	47	46	48	49
20	10	47	46	48	49
21	18	68	67	66	90
22	14	3	4	5	6
23	18	69	68	67	77
24	14	66	67	72	73
25	14	8	7	6	14
26	28	23	32	33	34
26	29	23	32	33	34
27	27	59	51	50	61
28	22	29	65	66	67
29	22	31	28	29	65
30	14	53	52	51	59
31	27	17	5	4	18
32	18	7	6	5	17
33	22	30	28	29	65
34	27	14	6	5	16
35	31	36	34	33	38
36	18	24	23	32	43
37	7	1	46	48	64
37	8	1	46	48	64
38	18	51	50	49	63
39	18	25	24	23	32
40	18	28	23	32	42
41	18	6	5	4	18
42	5	11	8	7	12
42	6	11	8	7	12
43	31	35	34	33	38
44	27	58	51	50	60
45	7	7	8	9	21
45	8	7	8	9	21
46	18	76	72	67	77
47	18	22	23	32	42
48	31	80	79	78	83
49	18	75	72	67	77
50	18	25	24	23	28
51	27	15	6	5	17
52	31	34	33	32	42
53	7	1	46	48	49
53	8	1	46	48	49
54	18	49	50	51	58
55	27	57	52	51	59
56	27	14	6	5	17
57	14	65	66	67	77
58	14	68	67	77	78
59	31	83	78	77	87
60	18	50	51	52	56
61	18	28	23	32	43
62	11	47	46	48	64
62	12	47	46	48	64
63	14	3	4	5	16
64	18	24	23	28	30
65	25	10	9	21	22
65	26	10	9	21	22
66	5	18	4	3	20
66	6	18	4	3	20
67	27	60	50	49	62
68	14	66	67	77	78
69	14	29	28	23	32
70	18	72	67	66	90
71	18	77	67	66	90
72	31	32	33	34	37
73	28	23	32	33	38
73	29	23	32	33	38
74	18	31	28	23	32
75	14	22	23	28	29
76	18	24	23	22	45
77	31	34	33	32	43
78	18	30	28	23	32
79	18	4	5	6	15
80	18	70	68	67	77
81	31	82	79	78	83
82	22	9	21	22	45
83	18	24	23	28	31
84	9	2	1	3	4
84	10	2	1	3	4
85	18	71	68	67	72
86	31	79	78	83	84
87	1	6	7	8	9
87	2	6	7	8	9
87	3	6	7	8	9
87	4	6	7	8	9
88	14	73	72	67	77
89	7	11	8	9	21
89	8	11	8	9	21
90	11	2	1	3	20
90	12	2	1	3	20
91	13	3	1	46	48
92	31	34	33	38	40
93	23	10	9	8	11
93	24	10	9	8	11
94	18	32	23	22	45
95	14	50	51	52	53
96	34	67	72	73	74
96	35	67	72	73	74
97	31	77	78	83	86
98	31	77	78	79	81
99	14	72	67	77	78
100	31	32	33	38	39
101	1	1	3	4	5
101	2	1	3	4	5
101	3	1	3	4	5
101	4	1	3	4	5
102	18	5	6	7	12
103	7	20	3	1	46
103	8	20	3	1	46
104	13	2	1	46	47
105	14	8	7	6	15
106	5	5	4	3	20
106	6	5	4	3	20
107	18	22	23	24	25
108	18	66	67	68	69
109	27	17	5	4	19
110	32	54	53	52	56
111	30	28	29	65	66
112	31	79	78	83	85
113	18	68	67	77	87
114	14	48	49	50	60
115	7	7	8	9	10
115	8	7	8	9	10
116	31	34	33	38	41
117	18	6	5	4	19
118	5	9	8	7	12
118	6	9	8	7	12
119	5	11	8	7	13
119	6	11	8	7	13
120	14	24	23	32	33
121	27	56	52	51	58
122	27	58	51	50	61
123	18	66	67	77	87
124	18	68	67	72	75
125	22	29	65	66	89
126	18	22	23	32	43
127	31	32	33	38	40
128	15	49	50	51	52
128	16	49	50	51	52
128	17	49	50	51	52
129	18	66	67	72	75
130	13	2	1	46	48
131	18	28	23	22	44
132	18	66	67	68	70
133	1	46	48	49	50
133	2	46	48	49	50
133	3	46	48	49	50
133	4	46	48	49	50
134	32	54	53	52	57
135	36	74	73	72	75
136	18	49	50	51	59
137	14	48	49	50	61
138	5	19	4	3	20
138	6	19	4	3	20
139	31	83	78	77	88
140	18	50	51	52	57
141	15	4	5	6	7
141	16	4	5	6	7
141	17	4	5	6	7
142	27	56	52	51	59
143	14	3	4	5	17
144	28	67	77	78	79
144	29	67	77	78	79
145	27	60	50	49	63
146	27	12	7	6	14
147	27	13	7	6	14
148	18	66	67	72	76
149	5	46	48	49	62
149	6	46	48	49	62
150	14	5	6	7	8
151	18	22	23	28	30
152	18	71	68	67	77
153	5	6	7	8	11
153	6	6	7	8	11
154	31	77	78	83	84
155	18	72	67	77	87
156	7	4	3	1	46
156	8	4	3	1	46
157	18	68	67	66	89
158	27	59	51	50	60
159	14	53	52	51	58
160	5	63	49	48	64
160	6	63	49	48	64
161	27	61	50	49	62
162	27	12	7	6	15
163	14	21	22	23	32
164	5	62	49	48	64
164	6	62	49	48	64
165	18	24	23	32	42
166	27	16	5	4	18
167	18	51	50	49	62
168	18	22	23	28	31
169	18	69	68	67	72
170	22	23	28	29	65
171	18	27	24	23	32
172	31	77	78	79	82
173	32	51	52	53	54
174	31	38	33	32	42
175	18	5	6	7	13
176	31	32	33	34	35
177	14	21	22	23	28
178	33	52	53	54	55
179	18	22	23	24	26
180	31	79	78	77	87
181	28	67	77	78	83
181	29	67	77	78	83
182	27	15	6	5	16
183	31	37	34	33	38
184	27	61	50	49	63
185	18	27	24	23	28
186	31	79	78	83	86
187	18	68	67	77	88
188	27	57	52	51	58
189	27	16	5	4	19
190	5	50	49	48	64
190	6	50	49	48	64
191	14	21	22	23	24
192	5	9	8	7	13
192	6	9	8	7	13
193	18	66	67	77	88
194	18	68	67	72	76
195	5	1	3	4	18
195	6	1	3	4	18
196	14	24	23	28	29
197	14	28	23	32	33
198	18	77	67	66	89
199	22	29	65	66	90
200	31	32	33	38	41
201	31	38	33	32	43
202	20	9	21	22	23
202	21	9	21	22	23
203	18	72	67	66	89
204	31	32	33	34	36
205	14	22	23	32	33
206	18	28	23	22	45
207	18	52	51	50	60
208	14	65	66	67	72
209	18	22	23	24	27
210	18	66	67	68	71
211	31	79	78	77	88
212	18	24	23	22	44
213	36	74	73	72	76
214	18	4	5	6	14
215	31	81	79	78	83

Impropers

54	1	3	1	4	20
59	2	46	1	47	48
73	1	8	9	11	7
96	1	48	49	64	46
159	1	48	46	49	64
166	2	46	47	48	1
211	1	3	4	20	1
215	2	1	3	46	2
247	2	1	2	3	46
266	3	9	10	21	8
358	3	9	8	10	21
414	3	9	21	8	10
422	1	3	20	1	4
478	2	46	48	1	47
505	2	1	46	2	3
516	1	48	64	46	49
534	1	8	11	7	9
546	1	8	7	9	11
