Title

12375 atoms
12250 bonds
23125 angles
40125 dihedrals
1500 impropers

8 atom types
11 bond types
5 angle types
27 dihedral types
2 improper types
-12.55360031 87.44639969 xlo xhi
-12.34609985 87.65390015 ylo yhi
-13.07689953 86.92310047 zlo zhi
0.0 0.0 0.0 xy xz yz

Masses

1	15.99943
2	12.01078
3	1.007947
4	1.007947
5	12.01078
6	15.99943
7	15.99943
8	1.007947


Pair Coeffs

1	0.16846514	3.0251065
2	0.10884061	3.3795318
3	0.016409246	2.5832257
4	0.015779483	2.6445434
5	0.086879315	3.4806469
6	0.2102061	3.0398122
7	0.20947353	2.99716
8	1.2326e-05	0.53453923

Bond Coeffs

1 harmonic	366.7408841747	1.425895053732
2 harmonic	300.03137914615	1.451203938761
3 harmonic	264.62148576755	1.52190126495
4 harmonic	370.04670688625	1.093899492634
5 harmonic	301.15400723785	1.345741232799
6 harmonic	582.698766451	1.225198386222
7 harmonic	329.44145381095	1.523435958334
8 harmonic	279.1350963404	1.454628925034
9 harmonic	329.96998057905	1.427343958716
10 harmonic	543.5267831885	0.9716763312559
11 harmonic	385.7604595587	1.369745182308


Angle Coeffs

1 harmonic	53.20531626545	116.5475862634
2 harmonic	65.09061609600001	110.3538806181
3 harmonic	201.41175231035	127.4691416191
4 harmonic	57.8982893754	126.8062420451
5 harmonic	48.776492647595	115.6030999533


Dihedral Coeffs

1 fourier 1	0.1155372516788	3	0
2 fourier 1	0.1115525666802	3	0
3 fourier 1	0.3432490222662	1	0
4 fourier 1	0.0473758381877	3	0
5 fourier 1	0.457973137376	1	0
6 fourier 1	0.09223874044423	3	0
7 fourier 1	0.3159935921949	2	180
8 fourier 1	0.3247796806857	1	180
9 fourier 1	0.1040663847541	3	0
10 fourier 1	0.1918272375143	3	0
11 fourier 1	0.9202179876409	1	180
12 fourier 1	1.163809172478	2	180
13 fourier 1	0.1679186987369	1	180
14 fourier 1	2.779853741805	2	180
15 fourier 1	0.02664938770063	3	0
16 fourier 1	0.1911926717192	3	0
17 fourier 1	-0.3703352413219	2	0
18 fourier 1	0.4541676554336	1	0
19 fourier 1	0.1489710476446	2	0
20 fourier 1	0.02960027280666	3	180
21 fourier 1	0.9974165607242	2	180
22 fourier 1	0.3445382149273	3	0
23 fourier 1	0.1364556373303	1	0
24 fourier 1	0.3026390167484	3	0
25 fourier 1	2.687457892086	2	180
26 fourier 1	2.772607909663	2	180
27 fourier 1	0.09692684957115	1	0


Improper Coeffs

1 3.5	-1	2
2 0.3666666666666667	-1	2


Atoms

1	4	1	-0.18184499	-1.8177	0.070200004	-6.6504998
2	4	2	0.032481	-0.4939	0.021400001	-7.1064
3	4	2	-0.14747301	0.45039999	0.6128	-6.0570002
4	4	2	-0.14251401	1.9128	0.52649999	-6.5190001
5	4	2	-0.14373	2.8805001	1.2284	-5.5544
6	4	2	-0.141316	3.0467999	0.46939999	-4.2272
7	4	2	0.13436501	4.1285	1.0992	-3.3478999
8	4	1	-0.495657	3.7476001	2.3922	-2.9655001
9	4	3	0.077032	5.0939999	1.1318001	-3.9017999
10	4	3	0.077032	4.2637	0.4686	-2.4408
11	4	4	0.084426999	2.0890999	0.46700001	-3.6638
12	4	4	0.084426999	3.3304	-0.58490002	-4.4363999
13	4	4	0.080656998	3.8713	1.2970001	-6.0538998
14	4	4	0.080656998	2.5295999	2.2648001	-5.3600998
15	4	4	0.080829002	2.2090001	-0.53920001	-6.6416001
16	4	4	0.080829002	2.0044999	1.0176001	-7.5125999
17	4	4	0.085418001	0.1771	1.6768	-5.8814998
18	4	4	0.085418001	0.3195	0.051899999	-5.1082001
19	4	3	0.076606996	-0.2251	-1.0412	-7.2901001
20	4	3	0.076606996	-0.39829999	0.57249999	-8.0712004
21	5	5	0.76050699	4.5244999	2.7592001	-2.3807001
22	5	6	-0.56118399	5.6283998	2.9026999	-2.8800001
23	5	2	-0.20932899	4.3025999	3.1122999	-0.94029999
24	5	2	-0.116146	2.8440001	2.8671	-0.52700001
25	5	2	-0.13681599	2.5493	3.3247001	0.91060001
26	5	2	-0.14215501	3.1148	2.3570001	1.9651999
27	5	2	-0.14215501	2.914	2.8569	3.4073
28	5	2	-0.13947099	1.4468	3.0234001	3.8436999
29	5	2	-0.097800002	0.6541	1.7076	3.7974999
30	5	2	-0.258302	-0.73610002	1.8825999	4.4196
31	5	5	0.51596999	-1.5218	0.60659999	4.3618999
32	5	6	-0.69642401	-2.6545	0.5679	4.8141999
33	5	4	0.112313	-0.63480002	2.1928999	5.4822998
34	5	4	0.112313	-1.2934	2.6717999	3.8694999
35	5	4	0.075400002	0.53320003	1.3839	2.7414
36	5	4	0.075400002	1.2091	0.92070001	4.3541002
37	5	4	0.077076003	1.4499	3.4033999	4.8888998
38	5	4	0.077076003	0.94309998	3.7936001	3.2227001
39	5	4	0.078947	3.4137001	2.1458001	4.1002002
40	5	4	0.078947	3.4287	3.8361001	3.5218999
41	5	4	0.078947	2.6630001	1.3503	1.8399
42	5	4	0.078947	4.2073998	2.2414999	1.8094
43	5	4	0.077076003	2.9531	4.3477998	1.0734
44	5	4	0.077076003	1.4455	3.3729	1.0224
45	5	4	0.084159002	2.181	3.4412999	-1.2119
46	5	4	0.084159002	2.5927	1.7891001	-0.64069998
47	5	4	0.115389	4.5584998	4.184	-0.7924
48	5	4	0.115389	4.9856	2.4942999	-0.32170001
49	1	1	-0.18184499	-2.118	1.0118001	-6.7484002
50	1	2	0.032481	-1.2358	1.7941999	-5.9893999
51	1	2	-0.14747301	0.095700003	1.9586999	-6.7270002
52	1	2	-0.142463	1.0601	2.8513	-5.9324999
53	1	2	-0.138368	2.4537001	2.934	-6.5742998
54	1	2	-0.169396	2.4577999	3.7483001	-7.8779998
55	1	2	0.085635997	3.8759	3.9498	-8.4139996
56	1	7	-0.685884	4.4356999	2.7163	-8.7721004
57	1	8	0.376073	5.3498001	2.9154999	-9.1035995
58	1	3	0.066682003	4.5054002	4.4461002	-7.6422
59	1	3	0.066682003	3.8299999	4.6093998	-9.3102999
60	1	4	0.087770998	1.8541	3.2323	-8.6555996
61	1	4	0.087770998	2.0053999	4.7470002	-7.6926999
62	1	4	0.080829002	3.1371	3.4214001	-5.8450999
63	1	4	0.080829002	2.8404	1.9086	-6.7645001
64	1	4	0.080829002	0.63209999	3.872	-5.8280001
65	1	4	0.080829002	1.1781	2.4298	-4.9101
66	1	4	0.085418001	0.55330002	0.9562	-6.8776999
67	1	4	0.085418001	-0.1057	2.4087999	-7.7228999
68	1	3	0.076606996	-1.6983	2.7925999	-5.8323002
69	1	3	0.076606996	-1.0721	1.3298	-4.9903998
70	2	5	0.51596999	-1.0965	-0.2906	3.9226999
71	2	6	-0.69642401	-1.3529	-0.574	2.7641001
72	2	2	-0.258302	-0.18629999	-1.1634001	4.737
73	2	2	-0.097800002	-0.77789998	-2.5616	4.9629002
74	2	2	-0.13947099	-2.023	-2.5248001	5.8615999
75	2	2	-0.14215501	-2.5644	-3.9382999	6.1079001
76	2	2	-0.14215501	-3.8178	-3.8994	6.9951
77	2	2	-0.13681599	-4.3165998	-5.3014002	7.3800001
78	2	2	-0.113612	-4.9584999	-6.0474	6.1975002
79	2	2	-0.21942499	-5.5229001	-7.4127002	6.6114001
80	2	5	0.82250398	-6.7329998	-7.2723999	7.4837999
81	2	6	-0.56294298	-6.6473999	-7.4752002	8.7238998
82	2	7	-0.66685098	-7.9491	-6.8913002	6.9236999
83	2	8	0.392248	-8.7748003	-6.7824998	7.5002999
84	2	4	0.116402	-5.8133998	-7.9728999	5.6982002
85	2	4	0.116402	-4.7399998	-8.0066996	7.1335001
86	2	4	0.084159002	-5.7674999	-5.4282999	5.7491999
87	2	4	0.084159002	-4.1921	-6.2234998	5.4134002
88	2	4	0.077076003	-3.4755001	-5.9001002	7.7941999
89	2	4	0.077076003	-5.0718002	-5.1810002	8.1858997
90	2	4	0.078947	-4.6297002	-3.3394001	6.48
91	2	4	0.078947	-3.5761001	-3.3534999	7.9335999
92	2	4	0.078947	-2.8123	-4.4026999	5.1294999
93	2	4	0.078947	-1.7796	-4.5502	6.6036
94	2	4	0.077076003	-2.8134	-1.9119999	5.3761001
95	2	4	0.077076003	-1.7604001	-2.0564001	6.8354001
96	2	4	0.075400002	-1.0287	-3.0253999	3.9832001
97	2	4	0.075400002	-0.00079999998	-3.1924	5.4468002
98	2	4	0.112313	0.0131	-0.67729998	5.7167001
99	2	4	0.112313	0.7845	-1.2593	4.2049999
100	4	1	-0.18184499	-4.5721998	4.1468	29.849199
101	4	2	0.032481	-5.5784998	3.8821001	28.9112
102	4	2	-0.14747301	-4.9608002	3.4672	27.573601
103	4	2	-0.14251401	-6.0493999	3.1278999	26.5443
104	4	2	-0.14373	-5.4748001	2.8348999	25.1502
105	4	2	-0.141316	-4.7213998	1.4955	25.090599
106	4	2	0.13436501	-4.2940001	1.1508	23.662901
107	4	1	-0.495657	-3.3687	2.0932	23.195
108	4	3	0.077032	-5.1862998	1.126	22.997101
109	4	3	0.077032	-3.8266001	0.1406	23.663799
110	4	4	0.084426999	-3.8148999	1.5362	25.731899
111	4	4	0.084426999	-5.3793001	0.68330002	25.468901
112	4	4	0.080656998	-6.3221998	2.8010001	24.4314
113	4	4	0.080656998	-4.8038001	3.6645999	24.8398
114	4	4	0.080829002	-6.6461	2.2572999	26.8971
115	4	4	0.080829002	-6.7400999	3.9949	26.4541
116	4	4	0.085418001	-4.3319998	4.3009	27.1901
117	4	4	0.085418001	-4.3119998	2.5829	27.7437
118	4	3	0.076606996	-6.2115998	3.0553	29.299601
119	4	3	0.076606996	-6.2273998	4.7795	28.7789
120	5	5	0.76050699	-3.1287	1.8033	22.2262
121	5	6	-0.56118399	-4.0035	1.7881	21.375799
122	5	2	-0.20932899	-1.7277	1.4078	21.8664
123	5	2	-0.116146	-0.79229999	1.5125	23.0797
124	5	2	-0.13681599	0.67540002	1.2255	22.7246
125	5	2	-0.14215501	0.94959998	-0.27469999	22.517799
126	5	2	-0.14215501	2.3915	-0.56419998	22.062799
127	5	2	-0.13947099	3.4883001	-0.14749999	23.0599
128	5	2	-0.097800002	3.3773	-0.8714	24.4109
129	5	2	-0.258302	4.5931001	-0.5715	25.295401
130	5	5	0.51596999	4.4829001	-1.2609	26.622601
131	5	6	-0.69642401	5.3678002	-1.1294	27.452499
132	5	4	0.112313	5.52	-0.91729999	24.7882
133	5	4	0.112313	4.6680002	0.52460003	25.466
134	5	4	0.075400002	2.4605	-0.53259999	24.939501
135	5	4	0.075400002	3.3097	-1.9682	24.2393
136	5	4	0.077076003	4.4700999	-0.3955	22.599899
137	5	4	0.077076003	3.4737	0.95190001	23.214399
138	5	4	0.078947	2.4865999	-1.6533999	21.8626
139	5	4	0.078947	2.5747001	-0.040800001	21.0987
140	5	4	0.078947	0.7191	-0.83600003	23.4478
141	5	4	0.078947	0.27419999	-0.66640002	21.7293
142	5	4	0.077076003	0.96460003	1.7968	21.8155
143	5	4	0.077076003	1.2975	1.5914	23.568501
144	5	4	0.084159002	-0.85079998	2.5481	23.483
145	5	4	0.084159002	-1.1308	0.81950003	23.8818
146	5	4	0.115389	-1.3655	2.0766001	21.0555
147	5	4	0.115389	-1.7474999	0.3655	21.4863
148	1	1	-0.18184499	-4.1957002	5.0366998	29.6194
149	1	2	0.032481	-3.7225001	4.9432001	28.3027
150	1	2	-0.14747301	-4.8913002	4.9885001	27.3148
151	1	2	-0.142463	-4.3902998	4.9335999	25.864201
152	1	2	-0.138368	-5.5370002	4.8435998	24.8456
153	1	2	-0.169396	-6.3320999	6.1543002	24.731701
154	1	2	0.085635997	-7.3638	6.0932999	23.604401
155	1	7	-0.685884	-8.3325005	5.1219001	23.8895
156	1	8	0.376073	-8.9628	5.1293998	23.122801
157	1	3	0.066682003	-6.8585	5.8586001	22.6411
158	1	3	0.066682003	-7.8540001	7.0890999	23.513
159	1	4	0.087770998	-6.8607001	6.3674002	25.6859
160	1	4	0.087770998	-5.6338	6.9947	24.5259
161	1	4	0.080829002	-5.0948	4.6052999	23.853701
162	1	4	0.080829002	-6.2177	4.0079002	25.120199
163	1	4	0.080829002	-3.7620001	5.8246999	25.646799
164	1	4	0.080829002	-3.7502999	4.0324998	25.740299
165	1	4	0.085418001	-5.5650001	4.1251998	27.509899
166	1	4	0.085418001	-5.4611001	5.9271998	27.4849
167	1	3	0.076606996	-3.0427001	5.8016	28.1122
168	1	3	0.076606996	-3.1373999	4.0047998	28.170099
169	2	5	0.51596999	3.6235001	-1.8808	26.8591
170	2	6	-0.69642401	2.6995001	-1.4099	27.5016
171	2	2	-0.258302	3.5723	-3.3029001	26.381001
172	2	2	-0.097800002	3.5627	-4.3028002	27.5455
173	2	2	-0.13947099	4.8906999	-4.3052001	28.3172
174	2	2	-0.14215501	4.8692002	-5.3453002	29.444
175	2	2	-0.14215501	6.1924	-5.3371	30.224199
176	2	2	-0.13681599	6.2684002	-6.4551001	31.276199
177	2	2	-0.113612	5.3488002	-6.1973	32.482498
178	2	2	-0.21942499	5.4913001	-7.2788	33.561199
179	2	5	0.82250398	6.8164001	-7.1992002	34.256302
180	2	6	-0.56294298	7.7231998	-8.0314999	33.989601
181	2	7	-0.66685098	7.0528002	-6.1852999	35.1805
182	2	8	0.392248	7.9461002	-6.1110001	35.652401
183	2	4	0.116402	4.691	-7.1392999	34.3176
184	2	4	0.116402	5.3541002	-8.2872	33.111
185	2	4	0.084159002	5.5669999	-5.1985998	32.922501
186	2	4	0.084159002	4.2907	-6.1954999	32.145199
187	2	4	0.077076003	6.0139999	-7.4313998	30.807699
188	2	4	0.077076003	7.3202	-6.5156002	31.6285
189	2	4	0.078947	6.3375001	-4.3488002	30.7143
190	2	4	0.078947	7.0314002	-5.4839001	29.5089
191	2	4	0.078947	4.0278001	-5.112	30.1311
192	2	4	0.078947	4.7034001	-6.3544998	29.0082
193	2	4	0.077076003	5.0678	-3.2986	28.7547
194	2	4	0.077076003	5.7227998	-4.5380998	27.617201
195	2	4	0.075400002	2.7217	-4.0674	28.2349
196	2	4	0.075400002	3.3845	-5.3179998	27.128799
197	2	4	0.112313	4.4446998	-3.5028999	25.721701
198	2	4	0.112313	2.6524	-3.4410999	25.773399
199	4	1	-0.18184499	0.5722	6.7965002	54.563
200	4	2	0.032481	1.1858	6.6508002	55.813999
201	4	2	-0.14747301	0.78490001	5.3169999	56.448898
202	4	2	-0.14251401	1.4842	5.1173	57.801998
203	4	2	-0.14373	1.0077	3.8534999	58.533501
204	4	2	-0.141316	1.5010999	2.5604999	57.862801
205	4	2	0.13436501	1.1483001	1.324	58.691399
206	4	1	-0.495657	-0.2427	1.1716	58.763
207	4	3	0.077032	1.5768	1.4202	59.714699
208	4	3	0.077032	1.5953	0.42829999	58.2048
209	4	4	0.084426999	1.0461	2.4533	56.854698
210	4	4	0.084426999	2.6056001	2.6032	57.743599
211	4	4	0.080656998	1.402	3.8906	59.5723
212	4	4	0.080656998	-0.1019	3.8522	58.595001
213	4	4	0.080829002	2.5866001	5.0759001	57.6562
214	4	4	0.080829002	1.2635	5.9923	58.452099
215	4	4	0.085418001	-0.31799999	5.3007998	56.5933
216	4	4	0.085418001	1.0638	4.4973998	55.754299
217	4	3	0.076606996	2.2874	6.6764002	55.669601
218	4	3	0.076606996	0.90619999	7.4994001	56.4813
219	5	5	0.76050699	-0.40920001	0.32359999	59.340401
220	5	6	-0.56118399	-0.042199999	0.31490001	60.504002
221	5	2	-0.20932899	-1.0921	-0.87940001	58.7617
222	5	2	-0.116146	-1.4782	-0.64590001	57.2938
223	5	2	-0.13681599	-2.2823	-1.8128999	56.698502
224	5	2	-0.14215501	-1.4008	-3.0325	56.3759
225	5	2	-0.14215501	-2.21	-4.2421999	55.874298
226	5	2	-0.13947099	-2.9791	-4.0152998	54.559799
227	5	2	-0.097800002	-2.0585999	-3.6736	53.377499
228	5	2	-0.258302	-2.8436	-3.6472001	52.060902
229	5	5	0.51596999	-1.9546	-3.2972	50.905102
230	5	6	-0.69642401	-2.4184	-3.2309	49.778301
231	5	4	0.112313	-3.2967	-4.6451998	51.874699
232	5	4	0.112313	-3.6578	-2.8931999	52.128101
233	5	4	0.075400002	-1.6016999	-2.6737001	53.539501
234	5	4	0.075400002	-1.2487	-4.4326	53.3069
235	5	4	0.077076003	-3.5279	-4.9541998	54.327099
236	5	4	0.077076003	-3.7427001	-3.22	54.6903
237	5	4	0.078947	-1.5158	-5.0994	55.7379
238	5	4	0.078947	-2.938	-4.5373998	56.661598
239	5	4	0.078947	-0.62290001	-2.7548001	55.633499
240	5	4	0.078947	-0.86870003	-3.3547001	57.2948
241	5	4	0.077076003	-3.0999	-2.1041	57.3936
242	5	4	0.077076003	-2.7484	-1.448	55.758999
243	5	4	0.084159002	-2.1087	0.26930001	57.235199
244	5	4	0.084159002	-0.56489998	-0.465	56.684502
245	5	4	0.115389	-2.0046999	-1.0934	59.359402
246	5	4	0.115389	-0.4016	-1.7441	58.8437
247	1	1	-0.18184499	-0.3757	7.0363998	54.737099
248	1	2	0.032481	-0.91659999	5.9970002	55.507599
249	1	2	-0.14747301	-0.43970001	6.1090002	56.958199
250	1	2	-0.142463	-1.058	5.0056	57.828999
251	1	2	-0.138368	-0.50269997	5.0022998	59.2616
252	1	2	-0.169396	-0.98940003	6.2037001	60.088001
253	1	2	0.085635997	-0.55400002	6.0973001	61.550201
254	1	7	-0.685884	0.84289998	6.1539001	61.6427
255	1	8	0.376073	1.0576	6.0745001	62.608501
256	1	3	0.066682003	-0.92830002	5.1452999	61.9884
257	1	3	0.066682003	-0.99720001	6.9463	62.118801
258	1	4	0.087770998	-0.58660001	7.1494002	59.665401
259	1	4	0.087770998	-2.0996001	6.2522998	60.053001
260	1	4	0.080829002	-0.84100002	4.066	59.756901
261	1	4	0.080829002	0.60900003	4.9850998	59.232899
262	1	4	0.080829002	-2.1638	5.1178002	57.8535
263	1	4	0.080829002	-0.83020002	4.0180001	57.370998
264	1	4	0.085418001	0.66930002	6.0265999	56.982899
265	1	4	0.085418001	-0.72890002	7.1083002	57.348701
266	1	3	0.076606996	-2.0246999	6.0755	55.474602
267	1	3	0.076606996	-0.62849998	5.0103002	55.078602
268	2	5	0.51596999	-0.89719999	-3.1015999	51.054401
269	2	6	-0.69642401	-0.50620002	-1.9506	51.158699
270	2	2	-0.258302	0.069799997	-4.2459998	51.147301
271	2	2	-0.097800002	1.0852	-4.2379999	49.9963
272	2	2	-0.13947099	0.4249	-4.5271001	48.639999
273	2	2	-0.14215501	1.4687001	-4.5591002	47.5168
274	2	2	-0.14215501	0.80559999	-4.8341999	46.158798
275	2	2	-0.13681599	1.8273	-5.0095	45.0238
276	2	2	-0.113612	2.5046	-3.6863999	44.626598
277	2	2	-0.21942499	3.4633999	-3.8594	43.441502
278	2	5	0.82250398	2.7265999	-4.1367998	42.1665
279	2	6	-0.56294298	2.7009001	-5.3023	41.689899
280	2	7	-0.66685098	2.0473001	-3.1066999	41.522099
281	2	8	0.392248	1.5362	-3.2787001	40.6646
282	2	4	0.116402	4.0465002	-2.9238999	43.311699
283	2	4	0.116402	4.1869998	-4.6781001	43.6525
284	2	4	0.084159002	1.7343	-2.9231	44.376499
285	2	4	0.084159002	3.0959001	-3.3032	45.484901
286	2	4	0.077076003	2.5974	-5.7549	45.3218
287	2	4	0.077076003	1.2867	-5.4187002	44.143799
288	2	4	0.078947	0.1012	-4.0106001	45.906898
289	2	4	0.078947	0.2131	-5.7726002	46.232498
290	2	4	0.078947	1.9926	-3.5797	47.486301
291	2	4	0.078947	2.2144001	-5.355	47.731998
292	2	4	0.077076003	-0.3256	-3.7379	48.416599
293	2	4	0.077076003	-0.096299998	-5.5082998	48.6861
294	2	4	0.075400002	1.6078	-3.2562001	49.964199
295	2	4	0.075400002	1.8477	-5.0205002	50.201698
296	2	4	0.112313	-0.49169999	-5.2055001	51.145802
297	2	4	0.112313	0.61290002	-4.1753001	52.113998
298	4	1	-0.18184499	3.9008999	4.8018999	83.374901
299	4	2	0.032481	3.9909999	5.5900998	82.2202
300	4	2	-0.14747301	3.8143001	4.7231002	80.971298
301	4	2	-0.14251401	3.8640001	5.5764999	79.695099
302	4	2	-0.14373	3.8234999	4.7291002	78.414597
303	4	2	-0.141316	2.4460001	4.0897002	78.171898
304	4	2	0.13436501	2.3824	3.3817999	76.817398
305	4	1	-0.495657	3.277	2.3037	76.793602
306	4	3	0.077032	2.6270001	4.1012998	76.003304
307	4	3	0.077032	1.3463	3.0079	76.657799
308	4	4	0.084426999	2.2204001	3.3498001	78.969498
309	4	4	0.084426999	1.6623	4.8779001	78.196404
310	4	4	0.080656998	4.0654998	5.3937998	77.5569
311	4	4	0.080656998	4.6066999	3.9421	78.461403
312	4	4	0.080829002	3.0218999	6.3041	79.692902
313	4	4	0.080829002	4.8116002	6.1587	79.689796
314	4	4	0.085418001	4.6236	3.9604001	80.941498
315	4	4	0.085418001	2.8371999	4.2009001	81.039497
316	4	3	0.076606996	3.1877999	6.3573999	82.2556
317	4	3	0.076606996	4.9720001	6.1198001	82.191002
318	5	5	0.76050699	3.1863999	1.8763	75.850601
319	5	6	-0.56118399	3.4800999	2.5366001	74.8675
320	5	2	-0.20932899	2.7031	0.46610001	75.688301
321	5	2	-0.116146	2.4052	-0.1788	77.049797
322	5	2	-0.13681599	2.0167	-1.6614	76.932297
323	5	2	-0.14215501	0.58039999	-1.8555	76.414803
324	5	2	-0.14215501	0.2157	-3.3352001	76.196999
325	5	2	-0.13947099	0.24690001	-4.21	77.463799
326	5	2	-0.097800002	-0.7446	-3.7421	78.540604
327	5	2	-0.258302	-0.81599998	-4.7484002	79.694901
328	5	5	0.51596999	-1.7691	-4.2894001	80.757896
329	5	6	-0.69642401	-1.9471999	-4.9733	81.752701
330	5	4	0.112313	-1.1557	-5.7350998	79.311501
331	5	4	0.112313	0.1928	-4.8695998	80.146103
332	5	4	0.075400002	-0.4179	-2.7598	78.944504
333	5	4	0.075400002	-1.755	-3.6280999	78.089798
334	5	4	0.077076003	-0.0163	-5.2470999	77.1605
335	5	4	0.077076003	1.2744	-4.2480998	77.882797
336	5	4	0.078947	-0.8021	-3.3863001	75.753304
337	5	4	0.078947	0.91619998	-3.7706001	75.450996
338	5	4	0.078947	-0.1427	-1.3787	77.109802
339	5	4	0.078947	0.47060001	-1.3451999	75.4356
340	5	4	0.077076003	2.7370999	-2.1912999	76.2714
341	5	4	0.077076003	2.0961001	-2.1054001	77.946999
342	5	4	0.084159002	3.3203001	-0.1135	77.679802
343	5	4	0.084159002	1.5983	0.38460001	77.569
344	5	4	0.115389	3.4855001	-0.1204	75.159302
345	5	4	0.115389	1.7866	0.48249999	75.063004
346	1	1	-0.18184499	4.7624002	4.3144002	83.454803
347	1	2	0.032481	4.9101	3.5669999	82.277496
348	1	2	-0.14747301	5.3319998	4.4772	81.121002
349	1	2	-0.142463	5.5437002	3.6698	79.8321
350	1	2	-0.138368	5.8390002	4.5623999	78.616997
351	1	2	-0.169396	7.2339001	5.2055001	78.679802
352	1	2	0.085635997	7.5668998	5.9597998	77.3918
353	1	7	-0.685884	6.6918001	7.0415001	77.226501
354	1	8	0.376073	6.9562001	7.4812002	76.376801
355	1	3	0.066682003	7.4937	5.2715998	76.520302
356	1	3	0.066682003	8.6128998	6.3368001	77.457497
357	1	4	0.087770998	7.2915001	5.9159999	79.5326
358	1	4	0.087770998	8.0001001	4.4147	78.833801
359	1	4	0.080829002	5.7771001	3.9293001	77.705002
360	1	4	0.080829002	5.0594001	5.3512001	78.5327
361	1	4	0.080829002	6.3706002	2.9403	79.973999
362	1	4	0.080829002	4.6185002	3.0915	79.615799
363	1	4	0.085418001	4.5429001	5.2437	80.956001
364	1	4	0.085418001	6.2736001	4.9947	81.404404
365	1	3	0.076606996	5.6925998	2.7960999	82.446899
366	1	3	0.076606996	3.9581001	3.0431001	82.0327
367	2	5	0.51596999	-2.3083999	-3.3526001	80.656303
368	2	6	-0.69642401	-1.8792	-2.3483	81.199898
369	2	2	-0.258302	-3.5648999	-3.2976	79.8368
370	2	2	-0.097800002	-4.7936001	-2.9482	80.687798
371	2	2	-0.13947099	-5.1457	-4.0650001	81.681702
372	2	2	-0.14215501	-6.4029999	-3.7091999	82.484596
373	2	2	-0.14215501	-6.7463002	-4.8203001	83.488297
374	2	2	-0.13681599	-8.0745001	-4.5697999	84.2201
375	2	2	-0.113612	-7.9798999	-3.4266	85.2453
376	2	2	-0.21942499	-9.2877998	-3.2377	86.024696
377	2	5	0.82250398	-9.5429001	-4.3752999	86.966103
378	2	6	-0.56294298	-10.4041	-5.2501001	86.684601
379	2	7	-0.66685098	-8.8060999	-4.4779	88.1427
380	2	8	0.392248	-8.9589996	-5.2456999	88.785599
381	2	4	0.116402	-9.2205	-2.3018	86.617699
382	2	4	0.116402	-10.1402	-3.1256001	85.318199
383	2	4	0.084159002	-7.1451001	-3.6189001	85.955803
384	2	4	0.084159002	-7.7627001	-2.4746001	84.7164
385	2	4	0.077076003	-8.8765001	-4.3505998	83.481003
386	2	4	0.077076003	-8.3509998	-5.5078001	84.747299
387	2	4	0.078947	-5.9232998	-4.9295001	84.229103
388	2	4	0.078947	-6.835	-5.7838998	82.940002
389	2	4	0.078947	-6.2241001	-2.7563	83.027199
390	2	4	0.078947	-7.2557998	-3.5660999	81.785797
391	2	4	0.077076003	-4.2972999	-4.2184	82.383698
392	2	4	0.077076003	-5.3200998	-5.0117002	81.125099
393	2	4	0.075400002	-4.6132998	-1.9954	81.233299
394	2	4	0.075400002	-5.6547999	-2.7881999	80.003197
395	2	4	0.112313	-3.7221	-4.277	79.3349
396	2	4	0.112313	-3.4393001	-2.5293	79.043999
397	4	1	-0.18184499	-5.4716001	-1.2134	111.1245
398	4	2	0.032481	-5.1226001	-0.2247	112.0536
399	4	2	-0.14747301	-3.6110001	0.0147	112.0305
400	4	2	-0.14251401	-3.2133999	1.1289001	113.0105
401	4	2	-0.14373	-1.6916	1.3095	113.1153
402	4	2	-0.141316	-1.0813	1.9326	111.8486
403	4	2	0.13436501	0.4043	2.2467	112.033
404	4	1	-0.495657	1.1283	1.0623	112.2233
405	4	3	0.077032	0.54159999	2.9245999	112.9058
406	4	3	0.077032	0.77560002	2.7662001	111.1214
407	4	4	0.084426999	-1.1928	1.239	110.9878
408	4	4	0.084426999	-1.6153001	2.8770001	111.6063
409	4	4	0.080656998	-1.4855	1.9791	113.9784
410	4	4	0.080656998	-1.212	0.32980001	113.328
411	4	4	0.080829002	-3.6870999	2.0885999	112.7054
412	4	4	0.080829002	-3.5975001	0.8707	114.0218
413	4	4	0.085418001	-3.0899	-0.92839998	112.3072
414	4	4	0.085418001	-3.3136001	0.2947	110.9985
415	4	3	0.076606996	-5.6508999	0.71450001	111.7816
416	4	3	0.076606996	-5.4541998	-0.52249998	113.0759
417	5	5	0.76050699	2.1197	1.3486	112.3469
418	5	6	-0.56118399	2.4228001	2.0466001	113.3006
419	5	2	-0.20932899	3.1731999	0.91399997	111.3722
420	5	2	-0.116146	2.5752001	0.035700001	110.2635
421	5	2	-0.13681599	3.6422	-0.52399999	109.3089
422	5	2	-0.14215501	4.1661	0.53570002	108.3235
423	5	2	-0.14215501	5.3065	0.0136	107.4309
424	5	2	-0.13947099	4.9298	-1.1595	106.5075
425	5	2	-0.097800002	3.8160999	-0.80409998	105.5099
426	5	2	-0.258302	3.6110001	-1.9319	104.492
427	5	5	0.51596999	2.5134001	-1.599	103.5259
428	5	6	-0.69642401	2.2165	-2.3900001	102.6454
429	5	4	0.112313	4.5511999	-2.0980999	103.9223
430	5	4	0.112313	3.3467	-2.8710001	105.0251
431	5	4	0.075400002	2.8635001	-0.64270002	106.0589
432	5	4	0.075400002	4.0848999	0.13160001	104.9722
433	5	4	0.077076003	5.8424001	-1.4442	105.9393
434	5	4	0.077076003	4.6348	-2.0457001	107.1079
435	5	4	0.078947	5.6788001	0.85399997	106.806
436	5	4	0.078947	6.1513	-0.30630001	108.0797
437	5	4	0.078947	3.3326001	0.9199	107.6983
438	5	4	0.078947	4.5671	1.4	108.8924
439	5	4	0.077076003	4.4850001	-0.95469999	109.8925
440	5	4	0.077076003	3.1709001	-1.3482	108.733
441	5	4	0.084159002	2.0539	-0.8258	110.7373
442	5	4	0.084159002	1.8173	0.6128	109.6884
443	5	4	0.115389	3.9538	0.34400001	111.9214
444	5	4	0.115389	3.6370001	1.8218	110.934
445	1	1	-0.18184499	-5.2146001	-2.0847001	111.5259
446	1	2	0.032481	-3.8371	-2.0174	111.7804
447	1	2	-0.14747301	-3.5688	-1.1668	113.0247
448	1	2	-0.142463	-2.0682001	-1.1185	113.3472
449	1	2	-0.138368	-1.7436	-0.1682	114.51
450	1	2	-0.169396	-2.2211001	-0.70880002	115.8675
451	1	2	0.085635997	-1.7506	0.17380001	117.0244
452	1	7	-0.685884	-2.3348	1.4439	116.9304
453	1	8	0.376073	-1.9866	1.9639	117.7007
454	1	3	0.066682003	-0.64130002	0.26050001	117.0076
455	1	3	0.066682003	-2.0534	-0.30250001	117.9846
456	1	4	0.087770998	-3.3310001	-0.76319999	115.8907
457	1	4	0.087770998	-1.8196	-1.7344	116.0201
458	1	4	0.080829002	-0.6401	-0.0359	114.5451
459	1	4	0.080829002	-2.1961999	0.82920003	114.3167
460	1	4	0.080829002	-1.6982	-2.1405001	113.5809
461	1	4	0.080829002	-1.5202	-0.75989997	112.4483
462	1	4	0.085418001	-3.9459	-0.1355	112.8475
463	1	4	0.085418001	-4.1272998	-1.6054	113.8794
464	1	3	0.076606996	-3.4604001	-3.0494001	111.9486
465	1	3	0.076606996	-3.3032999	-1.5957	110.8985
466	2	5	0.51596999	1.9753	-0.65869999	103.5959
467	2	6	-0.69642401	0.90259999	-0.62019998	104.1759
468	2	2	-0.258302	2.5613999	0.58560002	102.9948
469	2	2	-0.097800002	1.6968	1.1368001	101.8526
470	2	2	-0.13947099	1.6865	0.20379999	100.6325
471	2	2	-0.14215501	0.85409999	0.80129999	99.491402
472	2	2	-0.14215501	0.83270001	-0.1389	98.276802
473	2	2	-0.13681599	0.1234	0.47799999	97.060699
474	2	2	-0.113612	-1.4015	0.5654	97.245399
475	2	2	-0.21942499	-2.1062	1.1093	95.995796
476	2	5	0.82250398	-2.0637	0.1294	94.862999
477	2	6	-0.56294298	-1.2715	0.30739999	93.9002
478	2	7	-0.66685098	-2.8847001	-0.99449998	94.889503
479	2	8	0.392248	-2.8618	-1.6719	94.136703
480	2	4	0.116402	-3.1691999	1.3122	96.242699
481	2	4	0.116402	-1.6445	2.0734999	95.686798
482	2	4	0.084159002	-1.8132	-0.43650001	97.500999
483	2	4	0.084159002	-1.6319	1.2517999	98.087502
484	2	4	0.077076003	0.53869998	1.4893	96.855202
485	2	4	0.077076003	0.34599999	-0.1617	96.180199
486	2	4	0.078947	0.3434	-1.1002001	98.550003
487	2	4	0.078947	1.8803999	-0.3671	97.9814
488	2	4	0.078947	-0.18279999	0.96890002	99.853699
489	2	4	0.078947	1.2895	1.7799	99.193497
490	2	4	0.077076003	1.2556	-0.77960002	100.9207
491	2	4	0.077076003	2.7298	0.044100001	100.2824
492	2	4	0.075400002	0.65789998	1.302	102.2148
493	2	4	0.075400002	2.1105001	2.1234	101.5502
494	2	4	0.112313	3.585	0.3682	102.6195
495	2	4	0.112313	2.6510999	1.3566999	103.7898
496	4	1	-0.18184499	4.2526999	29.7617	-4.5327001
497	4	2	0.032481	3.5651	30.982201	-4.5114002
498	4	2	-0.14747301	2.1018	30.7596	-4.1216002
499	4	2	-0.14251401	1.3413	32.092201	-4.0476999
500	4	2	-0.14373	-0.161	31.902599	-3.7895999
501	4	2	-0.141316	-0.45950001	31.4245	-2.3587
502	4	2	0.13436501	-1.9624	31.392599	-2.0755999
503	4	1	-0.495657	-2.5885999	30.446501	-2.8978
504	4	3	0.077032	-2.4008999	32.401402	-2.2488999
505	4	3	0.077032	-2.1192999	31.1185	-1.0082999
506	4	4	0.084426999	-0.047400001	30.4048	-2.2009001
507	4	4	0.084426999	0.0232	32.111698	-1.6302
508	4	4	0.080656998	-0.66189998	32.881802	-3.9514
509	4	4	0.080656998	-0.57999998	31.184799	-4.5272002
510	4	4	0.080829002	1.7821	32.736401	-3.2544999
511	4	4	0.080829002	1.457	32.625198	-5.0169001
512	4	4	0.085418001	1.6219	30.0979	-4.8762002
513	4	4	0.085418001	2.0725999	30.2521	-3.135
514	4	3	0.076606996	4.0510998	31.6457	-3.7639
515	4	3	0.076606996	3.6315999	31.479099	-5.5075002
516	5	5	0.76050699	-3.5992999	30.482401	-2.6585
517	5	6	-0.56118399	-4.2206998	31.513901	-2.8545001
518	5	2	-0.20932899	-4.296	29.287001	-2.0804
519	5	2	-0.116146	-3.3320999	28.1007	-1.9317
520	5	2	-0.13681599	-4.0346999	26.821501	-1.4493999
521	5	2	-0.14215501	-4.3713999	26.8638	0.0517
522	5	2	-0.14215501	-5.165	25.632	0.5237
523	5	2	-0.13947099	-4.434	24.285299	0.37220001
524	5	2	-0.097800002	-3.1307001	24.2155	1.1835001
525	5	2	-0.258302	-2.5425999	22.799999	1.1558
526	5	5	0.51596999	-1.261	22.7288	1.9313999
527	5	6	-0.69642401	-0.65640002	21.6719	2.0127001
528	5	4	0.112313	-3.2688	22.083599	1.5979
529	5	4	0.112313	-2.3420999	22.5007	0.104
530	5	4	0.075400002	-2.3864999	24.9186	0.7518
531	5	4	0.075400002	-3.3339	24.5082	2.2370999
532	5	4	0.077076003	-5.1226001	23.488899	0.73070002
533	5	4	0.077076003	-4.2280998	24.0749	-0.6983
534	5	4	0.078947	-5.4337001	25.7736	1.5929
535	5	4	0.078947	-6.119	25.580799	-0.045699999
536	5	4	0.078947	-3.4410999	26.9744	0.648
537	5	4	0.078947	-4.9973998	27.755301	0.26280001
538	5	4	0.077076003	-4.9577999	26.6481	-2.0446
539	5	4	0.077076003	-3.3436	25.9732	-1.6388
540	5	4	0.084159002	-2.8773	27.888	-2.9249001
541	5	4	0.084159002	-2.5071001	28.3664	-1.2338001
542	5	4	0.115389	-5.1363001	29.004801	-2.7514
543	5	4	0.115389	-4.7101998	29.570801	-1.091
544	1	1	-0.18184499	3.9839001	29.2981	-5.3688002
545	1	2	0.032481	2.5899999	29.153999	-5.3161998
546	1	2	-0.14747301	1.9069	30.487801	-5.6297002
547	1	2	-0.142463	0.3784	30.3403	-5.6222
548	1	2	-0.138368	-0.34619999	31.683201	-5.8017001
549	1	2	-0.169396	-0.2078	32.2449	-7.2259998
550	1	2	0.085635997	-1.0634	33.4967	-7.4253001
551	1	7	-0.685884	-0.60600001	34.5303	-6.5973001
552	1	8	0.376073	-1.2024	35.304699	-6.7698998
553	1	3	0.066682003	-2.1285	33.267399	-7.1982999
554	1	3	0.066682003	-0.98970002	33.815399	-8.4899998
555	1	4	0.087770998	0.85280001	32.502399	-7.4362998
556	1	4	0.087770998	-0.53119999	31.4757	-7.9608002
557	1	4	0.080829002	-1.4244	31.5214	-5.5834999
558	1	4	0.080829002	0.039999999	32.419399	-5.0627999
559	1	4	0.080829002	0.062600002	29.632099	-6.4189
560	1	4	0.080829002	0.064999998	29.909599	-4.6458998
561	1	4	0.085418001	2.2130001	31.239799	-4.8694
562	1	4	0.085418001	2.2504001	30.8344	-6.6279998
563	1	3	0.076606996	2.2867	28.396	-6.0704002
564	1	3	0.076606996	2.2792001	28.784401	-4.3125
565	2	5	0.51596999	-0.85960001	23.6075	2.4267001
566	2	6	-0.69642401	0.0033	24.2693	1.8737
567	2	2	-0.258302	-1.3796999	24.009001	3.7764001
568	2	2	-0.097800002	-0.29460001	23.9312	4.8590999
569	2	2	-0.13947099	0.1433	22.485399	5.1367002
570	2	2	-0.14215501	1.1928	22.434401	6.2539001
571	2	2	-0.14215501	1.6404999	20.9895	6.5211
572	2	2	-0.13681599	2.5908	20.875099	7.7238002
573	2	2	-0.113612	3.9899001	21.443701	7.4298
574	2	2	-0.21942499	4.9521999	21.253201	8.6092997
575	2	5	0.82250398	5.3203001	19.813101	8.7990999
576	2	6	-0.56294298	4.809	19.1465	9.7374001
577	2	7	-0.66685098	6.2107	19.205	7.9187002
578	2	8	0.392248	6.4631	18.2299	8.0265999
579	2	4	0.116402	5.8808999	21.8281	8.4116001
580	2	4	0.116402	4.4990001	21.6595	9.5409002
581	2	4	0.084159002	4.4137001	20.9636	6.5195999
582	2	4	0.084159002	3.9105	22.533701	7.2326999
583	2	4	0.077076003	2.1487999	21.3923	8.6037998
584	2	4	0.077076003	2.6833999	19.797899	7.9789
585	2	4	0.078947	2.1296999	20.5702	5.6139002
586	2	4	0.078947	0.74229997	20.3696	6.7356
587	2	4	0.078947	2.0683	23.0481	5.9514999
588	2	4	0.078947	0.76020002	22.865101	7.1831002
589	2	4	0.077076003	0.57480001	22.0441	4.2119999
590	2	4	0.077076003	-0.74250001	21.8836	5.4361