Title

88 atoms
93 bonds
166 angles
289 dihedrals
78 impropers

9 atom types
13 bond types
6 angle types
13 dihedral types
2 improper types
-3.970000029 96.02999997 xlo xhi
-4.987999916 95.01200008 ylo yhi
-6.973999977 93.02600002 zlo zhi
0.0 0.0 0.0 xy xz yz

Masses

1	15.99943
2	12.01078
3	1.007947
4	12.01078
5	1.007947
6	15.99943
7	15.99943
8	1.007947
9	35.4532


Pair Coeffs

1	0.16846514	3.0251065
2	0.086879315	3.4806469
3	0.015611343	2.5725815
4	0.10884061	3.3795318
5	0.015779483	2.6445434
6	0.2102061	3.0398122
7	0.20947353	2.99716
8	1.2326e-05	0.53453923
9	0.2656001	3.3075278

Bond Coeffs

1 harmonic	425.69104206635	1.362945806494
2 harmonic	300.03137914615	1.451203938761
3 harmonic	360.7852444772	1.387193227181
4 harmonic	397.2545789619	1.085358495916
5 harmonic	289.73813263395	1.498646816465
6 harmonic	264.62148576755	1.52190126495
7 harmonic	301.15400723785	1.345741232799
8 harmonic	370.04670688625	1.093899492634
9 harmonic	582.698766451	1.225198386222
10 harmonic	279.1350963404	1.454628925034
11 harmonic	385.7604595587	1.369745182308
12 harmonic	543.5267831885	0.9716763312559
13 harmonic	218.0227703685	1.746066037062


Angle Coeffs

1 harmonic	57.8982893754	126.8062420451
2 harmonic	65.09061609600001	110.3538806181
3 harmonic	34.066775159195	129.1835929926
4 harmonic	53.20531626545	116.5475862634
5 harmonic	201.41175231035	127.4691416191
6 harmonic	48.776492647595	115.6030999533


Dihedral Coeffs

1 fourier 1	3.661930099076	2	180
2 fourier 1	1.532232714475	2	180
3 fourier 1	0.457973137376	1	0
4 fourier 1	0.02664938770063	3	0
5 fourier 1	0.1155372516788	3	0
6 fourier 1	0.1040663847541	3	0
7 fourier 1	0.09223874044423	3	0
8 fourier 1	0.3159935921949	2	180
9 fourier 1	0.3247796806857	1	180
10 fourier 1	2.779853741805	2	180
11 fourier 1	0.9974165607242	2	180
12 fourier 1	0.1911926717192	3	0
13 fourier 1	0.8283030590042	2	180


Improper Coeffs

1 0.3666666666666667	-1	2
2 3.5	-1	2


Atoms

1	1	1	-0.027495001	1.107	5.5170002	-1.563
2	1	2	0.274037	0.73799998	4.2399998	-1.145
3	1	2	-0.32396001	-0.011	4.0630002	-0.048999999
4	1	3	0.223369	-0.34400001	4.9159999	0.52899998
5	1	2	-0.159788	-0.39399999	2.704	0.384
6	1	3	0.208307	-1.0190001	2.6359999	1.26
7	1	2	-0.25086999	0.026000001	1.61	-0.29699999
8	1	4	-0.031257	-0.37200001	0.163	0.082000002
9	1	2	-0.25086999	0.91500002	-0.69499999	-0.022
10	1	2	-0.160373	1.9349999	-0.47600001	0.84299999
11	1	3	0.208307	1.865	0.285	1.607
12	1	2	-0.274717	3.187	-1.253	0.76499999
13	1	3	0.22372299	3.973	-1.072	1.487
14	1	2	0.43748799	3.352	-2.171	-0.192
15	1	1	-0.44254801	4.5359998	-2.901	-0.255
16	1	2	-0.274717	2.2780001	-2.398	-1.178
17	1	3	0.22372299	2.4189999	-3.1210001	-1.971
18	1	2	-0.160373	1.137	-1.701	-1.108
19	1	3	0.208307	0.398	-1.883	-1.873
20	1	4	-0.133017	-0.95300001	0.078000002	1.5420001
21	1	5	0.110593	-1.915	0.63099998	1.61
22	1	5	0.110593	-0.264	0.59100002	2.247
23	1	4	-0.150313	-1.173	-1.355	2.0739999
24	1	5	0.107468	-1.008	-1.352	3.1730001
25	1	5	0.107468	-0.42699999	-2.066	1.664
26	1	4	-0.150304	-2.5880001	-1.904	1.824
27	1	5	0.105427	-2.5599999	-3.007	1.965
28	1	5	0.105427	-3.2750001	-1.499	2.599
29	1	4	-0.150304	-3.1860001	-1.5930001	0.442
30	1	5	0.105427	-3.711	-0.61299998	0.47099999
31	1	5	0.105427	-3.97	-2.3540001	0.234
32	1	4	-0.150313	-2.161	-1.6210001	-0.70200002
33	1	5	0.107468	-2.7060001	-1.88	-1.636
34	1	5	0.107468	-1.421	-2.4300001	-0.53799999
35	1	4	-0.133017	-1.488	-0.248	-0.93300003
36	1	5	0.110593	-1.0829999	-0.22499999	-1.967
37	1	5	0.110593	-2.2820001	0.53200001	-0.93400002
38	1	2	-0.159788	0.838	1.834	-1.533
39	1	3	0.208307	1.159	0.99400002	-2.135
40	1	2	-0.32396001	1.175	3.0680001	-1.924
41	1	3	0.223369	1.766	3.2090001	-2.8199999
42	1	2	0.62717801	4.6880002	-3.625	-0.99900001
43	1	6	-0.50375098	5.7649999	-4.1890001	-1.089
44	1	1	-0.027495001	0.82499999	6.3470001	-1.054
45	1	2	0.274037	0.98500001	7.625	-1.5880001
46	1	2	-0.32396001	1.5190001	7.8010001	-2.8039999
47	1	3	0.223369	1.8329999	6.948	-3.392
48	1	2	-0.159788	1.683	9.1610003	-3.358
49	1	3	0.208307	2.0969999	9.2290001	-4.3520002
50	1	2	-0.25086999	1.3279999	10.255	-2.641
51	1	4	-0.031257	1.439	11.701	-3.1789999
52	1	2	-0.25086999	2.0320001	12.559	-2.0320001
53	1	2	-0.11622	3.3039999	12.34	-1.624
54	1	3	0.208307	3.9159999	11.58	-2.0869999
55	1	2	-0.41404501	3.9000001	13.118	-0.51899999
56	1	3	0.228444	4.9289999	12.936	-0.234
57	1	2	0.423439	3.175	14.036	0.126
58	1	7	-0.650913	3.747	14.766	1.165
59	1	8	0.433191	3.2149999	15.465	1.669
60	1	2	-0.41404501	1.77	14.262	-0.264
61	1	3	0.228444	1.1720001	14.986	0.27500001
62	1	2	-0.11622	1.226	13.566	-1.27
63	1	3	0.208307	0.186	13.748	-1.492
64	1	4	-0.133017	2.372	11.786	-4.4439998
65	1	5	0.110593	1.921	11.233	-5.2969999
66	1	5	0.110593	3.3340001	11.273	-4.2319999
67	1	4	-0.150313	2.7060001	13.22	-4.9130001
68	1	5	0.107468	3.727	13.216	-5.3530002
69	1	5	0.107468	2.7520001	13.93	-4.0619998
70	1	4	-0.150304	1.7460001	13.768	-5.9819999
71	1	5	0.105427	1.88	14.871	-6.0320001
72	1	5	0.105427	2.0409999	13.363	-6.974
73	1	4	-0.150304	0.257	13.457	-5.7579999
74	1	5	0.105427	0.0040000002	12.478	-6.2199998
75	1	5	0.105427	-0.33500001	14.218	-6.3140001
76	1	4	-0.150313	-0.17200001	13.485	-4.283
77	1	5	0.107468	-1.253	13.745	-4.2529998
78	1	5	0.107468	0.35800001	14.294	-3.7420001
79	1	4	-0.133017	-0.012	12.113	-3.5910001
80	1	5	0.110593	-0.676	12.089	-2.7
81	1	5	0.110593	-0.433	11.332	-4.2639999
82	1	2	-0.159788	0.70700002	10.03	-1.299
83	1	3	0.208307	0.366	10.87	-0.708
84	1	2	-0.32396001	0.55500001	8.7959995	-0.80599999
85	1	3	0.223369	0.106	8.6560001	0.169
86	1	2	0.466616	3.8870001	-3.872	-1.687
87	1	6	-0.58196598	2.783	-3.3740001	-1.5420001
88	1	9	-0.087751999	4.1789999	-4.9879999	-3.0079999

Bonds

1	1	1	2
2	2	1	44
3	3	2	3
4	3	2	40
5	4	3	4
6	3	3	5
7	4	5	6
8	3	5	7
9	5	7	8
10	3	7	38
11	5	8	9
12	6	8	20
13	6	8	35
14	3	9	10
15	3	9	18
16	4	10	11
17	3	10	12
18	4	12	13
19	3	12	14
20	1	14	15
21	3	14	16
22	7	15	42
23	4	16	17
24	3	16	18
25	4	18	19
26	8	20	21
27	8	20	22
28	6	20	23
29	8	23	24
30	8	23	25
31	6	23	26
32	8	26	27
33	8	26	28
34	6	26	29
35	8	29	30
36	8	29	31
37	6	29	32
38	8	32	33
39	8	32	34
40	6	32	35
41	8	35	36
42	8	35	37
43	4	38	39
44	3	38	40
45	4	40	41
46	9	42	43
47	10	42	86
48	1	44	45
49	3	45	46
50	3	45	84
51	4	46	47
52	3	46	48
53	4	48	49
54	3	48	50
55	5	50	51
56	3	50	82
57	5	51	52
58	6	51	64
59	6	51	79
60	3	52	53
61	3	52	62
62	4	53	54
63	3	53	55
64	4	55	56
65	3	55	57
66	11	57	58
67	3	57	60
68	12	58	59
69	4	60	61
70	3	60	62
71	4	62	63
72	8	64	65
73	8	64	66
74	6	64	67
75	8	67	68
76	8	67	69
77	6	67	70
78	8	70	71
79	8	70	72
80	6	70	73
81	8	73	74
82	8	73	75
83	6	73	76
84	8	76	77
85	8	76	78
86	6	76	79
87	8	79	80
88	8	79	81
89	4	82	83
90	3	82	84
91	4	84	85
92	9	86	87
93	13	86	88

Angles

1	1	1	2	3
2	4	8	35	36
3	1	2	40	38
4	2	1	44	45
5	4	71	70	73
6	1	51	50	82
7	3	82	84	85
8	3	2	3	4
9	1	46	45	84
10	1	55	57	60
11	4	8	35	32
12	2	14	15	42
13	4	34	32	35
14	4	50	51	52
15	3	56	55	57
16	6	30	29	31
17	4	50	51	79
18	3	7	38	39
19	2	57	58	59
20	4	8	35	37
21	4	70	73	76
22	4	51	79	80
23	4	20	8	35
24	1	2	3	5
25	3	17	16	18
26	4	50	51	64
27	1	42	86	87
28	1	50	82	84
29	4	76	79	81
30	4	8	20	23
31	3	9	18	19
32	4	26	29	32
33	3	38	40	41
34	4	29	32	33
35	4	51	79	76
36	3	52	62	63
37	3	46	48	49
38	4	64	67	69
39	6	36	35	37
40	3	39	38	40
41	4	65	64	67
42	4	68	67	70
43	6	77	76	78
44	1	12	14	15
45	3	10	12	13
46	3	57	60	61
47	6	74	73	75
48	4	73	76	77
49	1	5	7	38
50	1	48	50	51
51	4	20	23	24
52	4	23	26	27
53	6	80	79	81
54	4	29	32	34
55	1	46	48	50
56	4	64	67	70
57	3	4	3	5
58	4	52	51	64
59	1	8	9	10
60	4	51	64	65
61	1	12	14	16
62	1	14	16	18
63	1	10	12	14
64	4	74	73	76
65	4	73	76	78
66	3	3	5	6
67	4	32	35	36
68	4	7	8	9
69	3	49	48	50
70	4	20	23	25
71	4	23	26	28
72	3	52	53	54
73	4	69	67	70
74	1	8	9	18
75	1	44	45	84
76	4	67	70	71
77	4	8	20	21
78	3	47	46	48
79	4	26	29	30
80	1	7	38	40
81	1	51	52	53
82	4	9	8	35
83	4	32	35	37
84	5	15	42	43
85	1	87	86	88
86	1	52	53	55
87	4	51	79	81
88	1	42	86	88
89	4	67	70	72
90	1	45	84	82
91	3	83	82	84
92	3	45	84	85
93	4	9	8	20
94	1	55	57	58
95	1	5	7	8
96	3	9	10	11
97	4	77	76	79
98	6	33	32	34
99	1	9	18	16
100	4	72	70	73
101	4	75	73	76
102	1	57	60	62
103	1	1	2	40
104	1	52	62	60
105	4	70	73	74
106	4	22	20	23
107	4	29	32	35
108	4	7	8	20
109	3	13	12	14
110	4	33	32	35
111	4	51	64	66
112	1	15	42	86
113	6	21	20	22
114	4	30	29	32
115	3	16	18	19
116	3	45	46	47
117	1	51	52	62
118	3	11	10	12
119	4	73	76	79
120	1	53	52	62
121	3	54	53	55
122	1	3	5	7
123	4	70	73	75
124	3	61	60	62
125	3	6	5	7
126	4	20	23	26
127	4	23	26	29
128	3	53	55	56
129	4	78	76	79
130	1	3	2	40
131	1	44	45	46
132	6	24	23	25
133	6	27	26	28
134	3	50	82	83
135	4	76	79	80
136	4	8	20	22
137	4	51	64	67
138	4	21	20	23
139	1	43	42	86
140	4	26	29	31
141	1	45	46	48
142	3	2	40	41
143	6	65	64	66
144	4	64	67	68
145	6	68	67	69
146	3	60	62	63
147	1	58	57	60
148	4	7	8	35
149	1	53	55	57
150	1	15	14	16
151	1	10	9	18
152	4	64	51	79
153	4	24	23	26
154	4	27	26	29
155	4	31	29	32
156	4	67	70	73
157	4	66	64	67
158	2	2	1	44
159	6	71	70	72
160	4	25	23	26
161	4	28	26	29
162	1	8	7	38
163	1	9	10	12
164	1	48	50	82
165	3	14	16	17
166	4	52	51	79

Dihedrals

1	1	8	9	10	12
2	5	7	8	35	36
3	1	4	3	5	7
4	12	68	67	70	72
5	5	50	51	64	67
6	7	26	29	32	35
6	8	26	29	32	35
6	9	26	29	32	35
7	1	46	45	84	82
8	1	46	45	84	85
9	6	29	32	35	37
10	1	55	57	60	62
11	6	20	23	26	28
12	4	20	8	7	38
13	12	34	32	35	36
14	12	24	23	26	27
15	12	71	70	73	74
16	1	12	14	16	17
17	1	48	50	82	84
18	2	1	44	45	46
19	5	7	8	35	32
20	1	52	53	55	56
21	11	43	42	86	87
22	7	8	20	23	26
22	8	8	20	23	26
22	9	8	20	23	26
23	1	12	10	9	18
24	1	15	14	16	17
25	5	9	8	35	37
26	1	46	48	50	51
27	2	16	14	15	42
28	1	56	55	57	58
29	6	69	67	70	73
30	5	9	8	20	23
31	1	51	52	53	55
32	1	11	10	9	18
33	1	47	46	48	49
34	12	75	73	76	78
35	6	68	67	70	73
36	7	51	79	76	73
36	8	51	79	76	73
36	9	51	79	76	73
37	7	67	70	73	76
37	8	67	70	73	76
37	9	67	70	73	76
38	2	14	15	42	43
39	12	74	73	76	78
40	4	5	7	8	9
41	6	51	64	67	68
42	1	55	53	52	62
43	12	24	23	26	28
44	5	50	51	79	76
45	1	8	7	38	40
46	12	71	70	73	75
47	1	12	14	16	18
48	12	30	29	32	33
49	4	79	51	50	82
50	1	52	53	55	57
51	5	7	8	20	23
52	11	43	42	86	88
53	1	15	14	16	18
54	6	64	67	70	72
55	1	7	38	40	41
56	1	10	12	14	15
57	4	62	52	51	79
58	6	64	51	79	80
59	1	53	55	57	60
60	4	53	52	51	79
61	1	10	9	18	19
62	6	22	20	23	26
63	1	47	46	48	50
64	6	75	73	76	79
65	1	44	45	84	82
66	1	39	38	40	41
67	1	44	45	84	85
68	4	48	50	51	52
69	1	9	18	16	14
70	1	47	46	45	84
71	6	8	35	32	33
72	12	31	29	32	34
73	6	74	73	76	79
74	12	33	32	35	36
75	4	10	9	8	35
76	1	17	16	18	19
77	12	72	70	73	74
78	7	64	51	79	76
78	8	64	51	79	76
78	9	64	51	79	76
79	12	27	26	29	30
80	1	9	10	12	13
81	6	21	20	8	35
82	6	70	73	76	77
83	7	64	67	70	73
83	8	64	67	70	73
83	9	64	67	70	73
84	1	11	10	12	14
85	4	52	51	50	82
86	1	10	12	14	16
87	7	23	20	8	35
87	8	23	20	8	35
87	9	23	20	8	35
88	6	64	51	79	81
89	1	51	50	82	83
90	4	48	50	51	64
91	6	51	79	76	77
92	4	10	9	8	20
93	1	5	7	38	39
94	5	52	51	64	67
95	1	2	3	5	6
96	10	14	15	42	86
97	11	15	42	86	87
98	6	8	35	32	34
99	1	44	45	46	47
100	2	12	14	15	42
101	5	50	51	79	80
102	1	58	57	60	61
103	5	7	8	35	37
104	1	10	9	18	16
105	12	25	23	26	27
106	1	54	53	55	56
107	1	9	10	12	14
108	6	67	70	73	74
109	6	73	76	79	80
110	12	78	76	79	80
111	1	1	2	40	41
112	1	3	2	40	38
113	7	20	23	26	29
113	8	20	23	26	29
113	9	20	23	26	29
114	12	34	32	35	37
115	1	5	3	2	40
116	1	45	46	48	49
117	6	20	8	35	36
118	12	21	20	23	24
119	6	51	79	76	78
120	12	65	64	67	68
121	1	53	52	62	63
122	1	5	7	38	40
123	1	6	5	7	38
124	5	52	51	79	80
125	1	44	45	46	48
126	5	50	51	79	81
127	1	50	82	84	85
128	1	53	55	57	58
129	7	20	8	35	32
129	8	20	8	35	32
129	9	20	8	35	32
130	1	3	5	7	38
131	1	54	53	55	57
132	1	8	9	18	19
133	13	55	57	58	59
134	1	13	12	14	15
135	5	52	51	79	76
136	6	51	64	67	69
137	12	66	64	67	68
138	6	24	23	26	29
139	6	71	70	73	76
140	6	20	8	35	37
141	12	30	29	32	34
142	12	65	64	67	69
143	4	62	52	51	64
144	5	50	51	64	65
145	6	26	29	32	33
146	4	7	8	9	10
147	4	53	52	51	64
148	1	56	55	57	60
149	1	14	16	18	19
150	1	45	84	82	50
151	7	67	64	51	79
151	8	67	64	51	79
151	9	67	64	51	79
152	6	28	26	29	32
153	4	35	8	7	38
154	6	22	20	8	35
155	4	9	8	7	38
156	7	23	26	29	32
156	8	23	26	29	32
156	9	23	26	29	32
157	1	13	12	14	16
158	1	1	2	3	4
159	6	8	20	23	24
160	6	31	29	32	35
161	12	33	32	35	37
162	12	66	64	67	69
163	12	69	67	70	71
164	6	30	29	32	35
165	12	72	70	73	75
166	5	9	8	20	21
167	12	27	26	29	31
168	4	7	8	9	18
169	3	2	1	44	45
170	1	4	3	5	6
171	12	68	67	70	71
172	5	50	51	64	66
173	6	26	29	32	34
174	6	70	73	76	78
175	6	29	32	35	36
176	1	55	57	60	61
177	6	20	23	26	27
178	12	77	76	79	80
179	1	49	48	50	82
180	1	51	50	82	84
181	4	5	7	8	20
182	1	2	3	5	7
183	5	7	8	20	21
184	11	15	42	86	88
185	6	8	20	23	25
186	1	58	57	60	62
187	4	18	9	8	35
188	12	69	67	70	72
189	5	9	8	20	22
190	1	51	52	53	54
191	12	22	20	23	24
192	12	25	23	26	28
193	12	75	73	76	77
194	4	50	51	52	53
195	6	67	70	73	75
196	6	73	76	79	81
197	1	6	5	7	8
198	6	65	64	51	79
199	7	70	73	76	79
199	8	70	73	76	79
199	9	70	73	76	79
200	12	78	76	79	81
201	1	46	48	50	82
202	2	3	2	1	44
203	7	8	35	32	29
203	8	8	35	32	29
203	9	8	35	32	29
204	5	9	8	35	32
205	4	64	51	50	82
206	12	74	73	76	77
207	12	77	76	79	81
208	1	8	7	38	39
209	1	45	46	48	50
210	12	21	20	23	25
211	1	2	40	38	39
212	1	3	5	7	8
213	4	18	9	8	20
214	1	51	52	62	63
215	5	7	8	20	22
216	1	9	18	16	17
217	5	52	51	79	81
218	1	52	62	60	61
219	1	1	2	40	38
220	6	64	67	70	71
221	1	4	3	2	40
222	1	57	60	62	63
223	12	22	20	23	25
224	6	25	23	26	29
225	6	66	64	51	79
226	1	54	53	52	62
227	1	53	52	62	60
228	12	28	26	29	30
229	5	52	51	64	65
230	1	83	82	84	85
231	6	23	26	29	30
232	12	31	29	32	33
233	7	51	64	67	70
233	8	51	64	67	70
233	9	51	64	67	70
234	1	52	62	60	57
235	4	5	7	8	35
236	1	45	84	82	83
237	6	21	20	23	26
238	6	65	64	67	70
239	1	8	9	10	11
240	1	2	40	38	7
241	1	8	9	18	16
242	1	11	10	12	13
243	13	59	58	57	60
244	2	40	2	1	44
245	1	48	46	45	84
246	1	61	60	62	63
247	6	66	64	67	70
248	1	48	50	82	83
249	2	1	44	45	84
250	12	28	26	29	31
251	1	51	52	62	60
252	5	52	51	64	66
253	6	23	26	29	31
254	1	3	2	40	41
255	1	1	2	3	5
256	4	48	50	51	79
257	5	9	8	35	36
258	1	49	48	50	51
259	6	72	70	73	76
260	6	27	26	29	32
261	4	50	51	52	62

Impropers

16	1	5	7	3	6
20	1	55	57	53	56
29	1	9	18	8	10
32	1	40	2	38	41
33	1	60	61	62	57
36	1	5	6	7	3
39	1	10	12	9	11
62	1	84	85	45	82
77	1	52	53	62	51
103	1	50	48	51	82
110	1	55	53	56	57
114	1	52	51	53	62
115	1	45	44	46	84
116	1	7	38	5	8
123	1	84	82	85	45
125	1	60	57	61	62
139	1	82	83	84	50
141	1	86	87	88	42
145	1	50	82	48	51
150	1	53	55	52	54
170	1	46	48	45	47
173	1	10	11	12	9
176	1	14	12	15	16
179	1	7	5	8	38
186	1	12	14	10	13
188	1	62	63	52	60
189	1	3	4	5	2
190	1	48	50	46	49
191	1	3	2	4	5
194	1	12	10	13	14
202	1	9	10	18	8
204	1	40	38	41	2
218	1	18	19	9	16
228	1	52	62	51	53
239	1	38	39	40	7
248	2	42	15	43	86
250	1	14	16	12	15
262	1	7	8	38	5
268	1	46	45	47	48
273	1	38	7	39	40
282	1	3	5	2	4
284	1	53	54	55	52
293	1	50	51	82	48
295	1	82	84	50	83
305	1	86	42	87	88
306	1	38	40	7	39
321	2	42	86	15	43
325	1	86	88	42	87
329	1	84	45	82	85
333	1	60	62	57	61
334	1	48	49	50	46
335	1	9	8	10	18
336	1	16	18	14	17
343	1	10	9	11	12
349	1	14	15	16	12
356	1	57	55	58	60
357	1	2	1	3	40
361	1	62	60	63	52
362	1	45	84	44	46
364	1	46	47	48	45
368	1	16	17	18	14
371	1	5	3	6	7
376	1	2	3	40	1
395	1	40	41	2	38
402	1	12	13	14	10
405	1	18	9	16	19
409	1	45	46	84	44
410	1	62	52	60	63
419	1	2	40	1	3
421	2	42	43	86	15
425	1	53	52	54	55
428	1	48	46	49	50
430	1	57	60	55	58
453	1	18	16	19	9
465	1	16	14	17	18
467	1	55	56	57	53
478	1	82	50	83	84
485	1	57	58	60	55
