Title

88 atoms
93 bonds
166 angles
289 dihedrals
78 impropers

9 atom types
13 bond types
6 angle types
13 dihedral types
2 improper types
-3.970000029 96.02999997 xlo xhi
-4.987999916 95.01200008 ylo yhi
-6.973999977 93.02600002 zlo zhi
0.0 0.0 0.0 xy xz yz

Masses

1	15.99943
2	12.01078
3	1.007947
4	12.01078
5	1.007947
6	15.99943
7	15.99943
8	1.007947
9	35.4532


Pair Coeffs

1	0.16846514	3.0251065
2	0.086879315	3.4806469
3	0.015611343	2.5725815
4	0.10884061	3.3795318
5	0.015779483	2.6445434
6	0.2102061	3.0398122
7	0.20947353	2.99716
8	1.2326e-05	0.53453923
9	0.2656001	3.3075278

Bond Coeffs

1 harmonic	425.69104206635	1.362945806494
2 harmonic	300.03137914615	1.451203938761
3 harmonic	360.7852444772	1.387193227181
4 harmonic	397.2545789619	1.085358495916
5 harmonic	289.73813263395	1.498646816465
6 harmonic	264.62148576755	1.52190126495
7 harmonic	301.15400723785	1.345741232799
8 harmonic	370.04670688625	1.093899492634
9 harmonic	582.698766451	1.225198386222
10 harmonic	279.1350963404	1.454628925034
11 harmonic	385.7604595587	1.369745182308
12 harmonic	543.5267831885	0.9716763312559
13 harmonic	218.0227703685	1.746066037062


Angle Coeffs

1 harmonic	57.8982893754	126.8062420451
2 harmonic	65.09061609600001	110.3538806181
3 harmonic	34.066775159195	129.1835929926
4 harmonic	53.20531626545	116.5475862634
5 harmonic	201.41175231035	127.4691416191
6 harmonic	48.776492647595	115.6030999533


Dihedral Coeffs

1 fourier 1	3.661930099076	2	180
2 fourier 1	1.532232714475	2	180
3 fourier 1	0.457973137376	1	0
4 fourier 1	0.02664938770063	3	0
5 fourier 1	0.1155372516788	3	0
6 fourier 1	0.1040663847541	3	0
7 fourier 1	0.09223874044423	3	0
8 fourier 1	0.3159935921949	2	180
9 fourier 1	0.3247796806857	1	180
10 fourier 1	2.779853741805	2	180
11 fourier 1	0.9974165607242	2	180
12 fourier 1	0.1911926717192	3	0
13 fourier 1	0.8283030590042	2	180


Improper Coeffs

1 0.3666666666666667	-1	2
2 3.5	-1	2


Atoms

1	1	1	-0.027495001	1.107	5.5170002	-1.563
2	1	2	0.274037	0.73799998	4.2399998	-1.145
3	1	2	-0.32396001	-0.011	4.0630002	-0.048999999
4	1	3	0.223369	-0.34400001	4.9159999	0.52899998
5	1	2	-0.159788	-0.39399999	2.704	0.384
6	1	3	0.208307	-1.0190001	2.6359999	1.26
7	1	2	-0.25086999	0.026000001	1.61	-0.29699999
8	1	4	-0.031257	-0.37200001	0.163	0.082000002
9	1	2	-0.25086999	0.91500002	-0.69499999	-0.022
10	1	2	-0.160373	1.9349999	-0.47600001	0.84299999
11	1	3	0.208307	1.865	0.285	1.607
12	1	2	-0.274717	3.187	-1.253	0.76499999
13	1	3	0.22372299	3.973	-1.072	1.487
14	1	2	0.43748799	3.352	-2.171	-0.192
15	1	1	-0.44254801	4.5359998	-2.901	-0.255
16	1	2	-0.274717	2.2780001	-2.398	-1.178
17	1	3	0.22372299	2.4189999	-3.1210001	-1.971
18	1	2	-0.160373	1.137	-1.701	-1.108
19	1	3	0.208307	0.398	-1.883	-1.873
20	1	4	-0.133017	-0.95300001	0.078000002	1.5420001
21	1	5	0.110593	-1.915	0.63099998	1.61
22	1	5	0.110593	-0.264	0.59100002	2.247
23	1	4	-0.150313	-1.173	-1.355	2.0739999
24	1	5	0.107468	-1.008	-1.352	3.1730001
25	1	5	0.107468	-0.42699999	-2.066	1.664
26	1	4	-0.150304	-2.5880001	-1.904	1.824
27	1	5	0.105427	-2.5599999	-3.007	1.965
28	1	5	0.105427	-3.2750001	-1.499	2.599
29	1	4	-0.150304	-3.1860001	-1.5930001	0.442
30	1	5	0.105427	-3.711	-0.61299998	0.47099999
31	1	5	0.105427	-3.97	-2.3540001	0.234
32	1	4	-0.150313	-2.161	-1.6210001	-0.70200002
33	1	5	0.107468	-2.7060001	-1.88	-1.636
34	1	5	0.107468	-1.421	-2.4300001	-0.53799999
35	1	4	-0.133017	-1.488	-0.248	-0.93300003
36	1	5	0.110593	-1.0829999	-0.22499999	-1.967
37	1	5	0.110593	-2.2820001	0.53200001	-0.93400002
38	1	2	-0.159788	0.838	1.834	-1.533
39	1	3	0.208307	1.159	0.99400002	-2.135
40	1	2	-0.32396001	1.175	3.0680001	-1.924
41	1	3	0.223369	1.766	3.2090001	-2.8199999
42	1	2	0.62717801	4.6880002	-3.625	-0.99900001
43	1	6	-0.50375098	5.7649999	-4.1890001	-1.089
44	1	1	-0.027495001	0.82499999	6.3470001	-1.054
45	1	2	0.274037	0.98500001	7.625	-1.5880001
46	1	2	-0.32396001	1.5190001	7.8010001	-2.8039999
47	1	3	0.223369	1.8329999	6.948	-3.392
48	1	2	-0.159788	1.683	9.1610003	-3.358
49	1	3	0.208307	2.0969999	9.2290001	-4.3520002
50	1	2	-0.25086999	1.3279999	10.255	-2.641
51	1	4	-0.031257	1.439	11.701	-3.1789999
52	1	2	-0.25086999	2.0320001	12.559	-2.0320001
53	1	2	-0.11622	3.3039999	12.34	-1.624
54	1	3	0.208307	3.9159999	11.58	-2.0869999
55	1	2	-0.41404501	3.9000001	13.118	-0.51899999
56	1	3	0.228444	4.9289999	12.936	-0.234
57	1	2	0.423439	3.175	14.036	0.126
58	1	7	-0.650913	3.747	14.766	1.165
59	1	8	0.433191	3.2149999	15.465	1.669
60	1	2	-0.41404501	1.77	14.262	-0.264
61	1	3	0.228444	1.1720001	14.986	0.27500001
62	1	2	-0.11622	1.226	13.566	-1.27
63	1	3	0.208307	0.186	13.748	-1.492
64	1	4	-0.133017	2.372	11.786	-4.4439998
65	1	5	0.110593	1.921	11.233	-5.2969999
66	1	5	0.110593	3.3340001	11.273	-4.2319999
67	1	4	-0.150313	2.7060001	13.22	-4.9130001
68	1	5	0.107468	3.727	13.216	-5.3530002
69	1	5	0.107468	2.7520001	13.93	-4.0619998
70	1	4	-0.150304	1.7460001	13.768	-5.9819999
71	1	5	0.105427	1.88	14.871	-6.0320001
72	1	5	0.105427	2.0409999	13.363	-6.974
73	1	4	-0.150304	0.257	13.457	-5.7579999
74	1	5	0.105427	0.0040000002	12.478	-6.2199998
75	1	5	0.105427	-0.33500001	14.218	-6.3140001
76	1	4	-0.150313	-0.17200001	13.485	-4.283
77	1	5	0.107468	-1.253	13.745	-4.2529998
78	1	5	0.107468	0.35800001	14.294	-3.7420001
79	1	4	-0.133017	-0.012	12.113	-3.5910001
80	1	5	0.110593	-0.676	12.089	-2.7
81	1	5	0.110593	-0.433	11.332	-4.2639999
82	1	2	-0.159788	0.70700002	10.03	-1.299
83	1	3	0.208307	0.366	10.87	-0.708
84	1	2	-0.32396001	0.55500001	8.7959995	-0.80599999
85	1	3	0.223369	0.106	8.6560001	0.169
86	1	2	0.466616	3.8870001	-3.872	-1.687
87	1	6	-0.58196598	2.783	-3.3740001	-1.5420001
88	1	9	-0.087751999	4.1789999	-4.9879999	-3.0079999

Bonds

1	1	1	2
2	2	1	44
3	3	2	3
4	3	2	40
5	4	3	4
6	3	3	5
7	4	5	6
8	3	5	7
9	5	7	8
10	3	7	38
11	5	8	9
12	6	8	20
13	6	8	35
14	3	9	10
15	3	9	18
16	4	10	11
17	3	10	12
18	4	12	13
19	3	12	14
20	1	14	15
21	3	14	16
22	7	15	42
23	4	16	17
24	3	16	18
25	4	18	19
26	8	20	21
27	8	20	22
28	6	20	23
29	8	23	24
30	8	23	25
31	6	23	26
32	8	26	27
33	8	26	28
34	6	26	29
35	8	29	30
36	8	29	31
37	6	29	32
38	8	32	33
39	8	32	34
40	6	32	35
41	8	35	36
42	8	35	37
43	4	38	39
44	3	38	40
45	4	40	41
46	9	42	43
47	10	42	86
48	1	44	45
49	3	45	46
50	3	45	84
51	4	46	47
52	3	46	48
53	4	48	49
54	3	48	50
55	5	50	51
56	3	50	82
57	5	51	52
58	6	51	64
59	6	51	79
60	3	52	53
61	3	52	62
62	4	53	54
63	3	53	55
64	4	55	56
65	3	55	57
66	11	57	58
67	3	57	60
68	12	58	59
69	4	60	61
70	3	60	62
71	4	62	63
72	8	64	65
73	8	64	66
74	6	64	67
75	8	67	68
76	8	67	69
77	6	67	70
78	8	70	71
79	8	70	72
80	6	70	73
81	8	73	74
82	8	73	75
83	6	73	76
84	8	76	77
85	8	76	78
86	6	76	79
87	8	79	80
88	8	79	81
89	4	82	83
90	3	82	84
91	4	84	85
92	9	86	87
93	13	86	88

Angles

1	2	1	44	45
2	1	14	16	18
3	3	47	46	48
4	4	51	64	66
5	1	1	2	3
6	4	8	20	23
7	3	54	53	55
8	3	7	38	39
9	3	13	12	14
10	4	31	29	32
11	4	64	67	70
12	4	32	35	37
13	3	53	55	56
14	1	46	45	84
15	4	7	8	9
16	3	49	48	50
17	1	51	52	62
18	1	55	57	60
19	6	65	64	66
20	6	68	67	69
21	3	60	62	63
22	4	69	67	70
23	4	67	70	72
24	1	15	14	16
25	3	57	60	61
26	4	26	29	30
27	1	43	42	86
28	1	3	2	40
29	1	7	38	40
30	3	9	10	11
31	4	70	73	74
32	6	36	35	37
33	4	73	76	77
34	1	87	86	88
35	3	82	84	85
36	4	29	32	35
37	4	20	23	26
38	1	57	60	62
39	4	22	20	23
40	4	26	29	31
41	4	28	26	29
42	4	74	73	76
43	6	33	32	34
44	6	71	70	72
45	4	64	67	69
46	4	77	76	79
47	1	8	7	38
48	1	9	10	12
49	1	46	48	50
50	4	70	73	75
51	3	2	3	4
52	4	8	20	21
53	4	73	76	78
54	4	64	51	79
55	1	12	14	16
56	3	83	82	84
57	1	10	12	14
58	4	21	20	23
59	4	50	51	52
60	1	3	5	7
61	4	23	26	27
62	3	61	60	62
63	4	33	32	35
64	4	51	64	67
65	4	34	32	35
66	1	44	45	84
67	1	2	3	5
68	4	50	51	64
69	3	45	46	47
70	4	52	51	64
71	1	53	55	57
72	4	65	64	67
73	4	68	67	70
74	3	6	5	7
75	3	39	38	40
76	1	42	86	87
77	4	51	79	80
78	4	67	70	73
79	4	50	51	79
80	1	5	7	38
81	3	45	84	85
82	4	52	51	79
83	6	80	79	81
84	3	17	16	18
85	1	51	50	82
86	4	51	79	76
87	6	24	23	25
88	6	27	26	28
89	3	38	40	41
90	4	7	8	35
91	3	50	82	83
92	4	75	73	76
93	3	52	62	63
94	3	2	40	41
95	4	78	76	79
96	4	64	67	68
97	4	26	29	32
98	1	53	52	62
99	1	55	57	58
100	4	71	70	73
101	3	14	16	17
102	3	4	3	5
103	4	7	8	20
104	1	8	9	10
105	2	14	15	42
106	4	8	35	36
107	4	24	23	26
108	4	70	73	76
109	4	9	8	20
110	1	1	2	40
111	4	8	20	22
112	1	50	82	84
113	2	57	58	59
114	4	73	76	79
115	1	45	84	82
116	3	11	10	12
117	4	23	26	28
118	4	32	35	36
119	4	8	35	32
120	1	48	50	82
121	3	56	55	57
122	4	72	70	73
123	1	8	9	18
124	1	52	62	60
125	5	15	42	43
126	4	29	32	33
127	4	20	23	24
128	1	2	40	38
129	4	8	35	37
130	1	44	45	46
131	3	9	18	19
132	4	67	70	71
133	6	30	29	31
134	3	52	53	54
135	4	66	64	67
136	1	45	46	48
137	4	23	26	29
138	4	76	79	80
139	1	58	57	60
140	1	5	7	8
141	1	51	52	53
142	4	9	8	35
143	1	42	86	88
144	4	51	79	81
145	4	20	8	35
146	4	20	23	25
147	4	29	32	34
148	1	48	50	51
149	4	30	29	32
150	1	52	53	55
151	6	74	73	75
152	2	2	1	44
153	6	77	76	78
154	4	25	23	26
155	1	10	9	18
156	4	27	26	29
157	3	46	48	49
158	4	51	64	65
159	1	9	18	16
160	4	76	79	81
161	1	12	14	15
162	3	10	12	13
163	1	15	42	86
164	6	21	20	22
165	3	3	5	6
166	3	16	18	19

Dihedrals

1	12	66	64	67	68
2	1	6	5	7	8
3	2	3	2	1	44
4	1	53	55	57	60
5	5	9	8	35	37
6	1	54	53	55	56
7	12	21	20	23	24
8	1	8	9	10	11
9	6	71	70	73	76
10	1	4	3	5	6
11	1	1	2	3	4
12	5	52	51	64	67
13	1	8	9	18	16
14	7	51	79	76	73
14	8	51	79	76	73
14	9	51	79	76	73
15	12	27	26	29	30
16	6	69	67	70	73
17	12	77	76	79	80
18	6	25	23	26	29
19	1	3	2	40	38
20	1	49	48	50	82
21	1	48	46	45	84
22	12	22	20	23	24
23	5	9	8	20	23
24	6	26	29	32	33
25	7	8	20	23	26
25	8	8	20	23	26
25	9	8	20	23	26
26	6	24	23	26	29
27	7	23	20	8	35
27	8	23	20	8	35
27	9	23	20	8	35
28	6	23	26	29	30
29	1	52	53	55	57
30	4	53	52	51	79
31	6	64	51	79	81
32	1	54	53	55	57
33	1	4	3	5	7
34	1	45	46	48	49
35	12	27	26	29	31
36	1	53	52	62	63
37	1	56	55	57	60
38	1	7	38	40	41
39	6	67	70	73	74
40	1	13	12	14	15
41	5	7	8	20	21
42	12	34	32	35	36
43	1	5	7	38	39
44	5	50	51	79	80
45	1	2	3	5	6
46	6	29	32	35	36
47	1	44	45	46	48
48	11	15	42	86	87
49	1	47	46	48	49
50	6	70	73	76	77
51	4	62	52	51	64
52	11	43	42	86	87
53	6	23	26	29	31
54	6	30	29	32	35
55	1	48	50	82	84
56	6	51	64	67	68
57	12	75	73	76	77
58	6	68	67	70	73
59	1	12	14	16	17
60	5	50	51	79	76
61	6	64	67	70	72
62	1	51	50	82	83
63	12	74	73	76	77
64	1	45	46	48	50
65	1	1	2	40	38
66	4	5	7	8	9
67	1	55	53	52	62
68	1	5	3	2	40
69	6	67	70	73	75
70	12	65	64	67	68
71	5	7	8	20	22
72	4	53	52	51	64
73	1	3	5	7	38
74	1	8	7	38	40
75	1	54	53	52	62
76	1	15	14	16	18
77	1	61	60	62	63
78	4	62	52	51	79
79	7	20	23	26	29
79	8	20	23	26	29
79	9	20	23	26	29
80	11	43	42	86	88
81	12	28	26	29	30
82	5	7	8	35	32
83	4	9	8	7	38
84	4	50	51	52	53
85	2	12	14	15	42
86	12	78	76	79	80
87	12	75	73	76	78
88	12	25	23	26	27
89	1	11	10	9	18
90	1	39	38	40	41
91	4	79	51	50	82
92	1	57	60	62	63
93	5	9	8	20	21
94	7	64	67	70	73
94	8	64	67	70	73
94	9	64	67	70	73
95	12	66	64	67	69
96	12	24	23	26	27
97	5	52	51	79	80
98	7	67	64	51	79
98	8	67	64	51	79
98	9	67	64	51	79
99	1	9	18	16	14
100	1	47	46	45	84
101	1	55	57	60	61
102	6	20	8	35	36
103	6	21	20	8	35
104	12	21	20	23	25
105	1	8	9	10	12
106	5	50	51	64	65
107	4	52	51	50	82
108	1	6	5	7	38
109	2	40	2	1	44
110	1	1	2	3	5
111	12	72	70	73	74
112	1	9	10	12	13
113	5	52	51	79	76
114	12	28	26	29	31
115	6	51	79	76	77
116	1	45	84	82	83
117	2	1	44	45	84
118	12	77	76	79	81
119	7	20	8	35	32
119	8	20	8	35	32
119	9	20	8	35	32
120	12	22	20	23	25
121	6	26	29	32	34
122	5	9	8	20	22
123	12	31	29	32	33
124	1	46	45	84	85
125	4	18	9	8	20
126	2	14	15	42	43
127	1	51	52	62	63
128	6	65	64	51	79
129	4	48	50	51	79
130	6	21	20	23	26
131	5	50	51	64	66
132	12	72	70	73	75
133	5	7	8	35	36
134	2	1	44	45	46
135	6	27	26	29	32
136	1	52	62	60	61
137	1	13	12	14	16
138	1	53	55	57	58
139	12	34	32	35	37
140	1	58	57	60	61
141	1	5	7	38	40
142	1	12	10	9	18
143	6	22	20	23	26
144	1	2	3	5	7
145	7	26	29	32	35
145	8	26	29	32	35
145	9	26	29	32	35
146	4	20	8	7	38
147	6	29	32	35	37
148	11	15	42	86	88
149	1	46	48	50	51
150	1	47	46	48	50
151	6	70	73	76	78
152	4	50	51	52	62
153	12	71	70	73	74
154	6	73	76	79	80
155	5	52	51	64	65
156	6	51	64	67	69
157	7	23	26	29	32
157	8	23	26	29	32
157	9	23	26	29	32
158	4	48	50	51	52
159	1	83	82	84	85
160	1	53	52	62	60
161	12	69	67	70	71
162	1	52	62	60	57
163	1	12	14	16	18
164	6	8	20	23	24
165	1	51	50	82	84
166	12	74	73	76	78
167	1	8	9	18	19
168	5	7	8	35	37
169	1	46	45	84	82
170	5	50	51	79	81
171	7	8	35	32	29
171	8	8	35	32	29
171	9	8	35	32	29
172	7	67	70	73	76
172	8	67	70	73	76
172	9	67	70	73	76
173	12	65	64	67	69
174	1	10	9	18	19
175	5	9	8	35	36
176	4	18	9	8	35
177	6	73	76	79	81
178	1	11	10	12	13
179	4	48	50	51	64
180	7	70	73	76	79
180	8	70	73	76	79
180	9	70	73	76	79
181	1	10	12	14	15
182	1	46	48	50	82
183	1	51	52	53	54
184	5	52	51	64	66
185	7	51	64	67	70
185	8	51	64	67	70
185	9	51	64	67	70
186	10	14	15	42	86
187	4	10	9	8	35
188	12	78	76	79	81
189	1	56	55	57	58
190	6	75	73	76	79
191	12	69	67	70	72
192	1	44	45	84	85
193	12	25	23	26	28
194	5	9	8	35	32
195	6	66	64	67	70
196	6	74	73	76	79
197	12	24	23	26	28
198	5	52	51	79	81
199	6	22	20	8	35
200	4	5	7	8	35
201	12	30	29	32	33
202	1	52	53	55	56
203	6	64	51	79	80
204	6	65	64	67	70
205	6	66	64	51	79
206	1	55	57	60	62
207	6	20	8	35	37
208	12	68	67	70	71
209	4	10	9	8	20
210	1	11	10	12	14
211	1	10	12	14	16
212	1	51	52	53	55
213	1	9	10	12	14
214	13	59	58	57	60
215	6	28	26	29	32
216	4	64	51	50	82
217	6	51	79	76	78
218	4	7	8	9	10
219	7	64	51	79	76
219	8	64	51	79	76
219	9	64	51	79	76
220	1	10	9	18	16
221	4	5	7	8	20
222	1	44	45	46	47
223	12	31	29	32	34
224	3	2	1	44	45
225	1	1	2	40	41
226	6	20	23	26	27
227	1	45	84	82	50
228	6	8	35	32	33
229	12	30	29	32	34
230	4	35	8	7	38
231	1	2	40	38	39
232	12	33	32	35	36
233	1	48	50	82	83
234	1	44	45	84	82
235	12	68	67	70	72
236	1	3	5	7	8
237	5	50	51	64	67
238	6	64	67	70	71
239	6	72	70	73	76
240	4	7	8	9	18
241	1	50	82	84	85
242	1	14	16	18	19
243	1	51	52	62	60
244	1	3	2	40	41
245	5	7	8	20	23
246	1	58	57	60	62
247	1	8	7	38	39
248	1	17	16	18	19
249	6	31	29	32	35
250	1	15	14	16	17
251	13	55	57	58	59
252	12	71	70	73	75
253	6	20	23	26	28
254	2	16	14	15	42
255	1	9	18	16	17
256	6	8	35	32	34
257	12	33	32	35	37
258	1	49	48	50	51
259	1	2	40	38	7
260	1	4	3	2	40
261	6	8	20	23	25

Impropers

2	1	3	5	2	4
9	1	9	10	18	8
13	1	57	58	60	55
14	1	18	19	9	16
32	1	16	14	17	18
34	1	52	53	62	51
37	1	5	7	3	6
39	1	55	56	57	53
47	1	62	60	63	52
53	1	86	42	87	88
63	1	7	5	8	38
65	1	16	17	18	14
66	1	14	15	16	12
68	1	40	38	41	2
74	1	3	2	4	5
83	1	60	57	61	62
85	1	16	18	14	17
87	1	14	16	12	15
90	1	10	12	9	11
96	1	9	8	10	18
98	1	53	54	55	52
106	1	84	45	82	85
109	1	12	13	14	10
116	1	48	46	49	50
121	1	60	62	57	61
133	1	86	87	88	42
144	1	18	16	19	9
149	1	45	84	44	46
152	1	46	47	48	45
154	1	38	40	7	39
158	1	82	50	83	84
159	1	57	55	58	60
161	1	2	1	3	40
162	1	5	3	6	7
164	1	40	2	38	41
168	1	57	60	55	58
169	1	45	44	46	84
176	1	7	8	38	5
192	1	5	6	7	3
194	2	42	43	86	15
235	1	12	10	13	14
237	1	10	11	12	9
243	1	2	3	40	1
252	1	62	52	60	63
267	1	50	51	82	48
289	1	46	45	47	48
299	1	53	52	54	55
320	1	52	51	53	62
323	1	86	88	42	87
332	1	60	61	62	57
335	1	48	49	50	46
341	1	18	9	16	19
342	1	14	12	15	16
354	1	84	85	45	82
363	1	84	82	85	45
366	1	55	57	53	56
376	1	55	53	56	57
378	1	45	46	84	44
381	1	62	63	52	60
384	1	48	50	46	49
385	1	82	84	50	83
390	1	50	82	48	51
392	1	53	55	52	54
405	1	9	18	8	10
418	2	42	86	15	43
419	1	50	48	51	82
431	1	40	41	2	38
434	1	52	62	51	53
438	1	46	48	45	47
455	1	7	38	5	8
463	1	12	14	10	13
467	1	3	4	5	2
471	1	38	39	40	7
473	2	42	15	43	86
476	1	82	83	84	50
478	1	10	9	11	12
480	1	38	7	39	40
484	1	2	40	1	3
