Title

65 atoms
64 bonds
115 angles
195 dihedrals
12 impropers

8 atom types
11 bond types
5 angle types
31 dihedral types
2 improper types
-3.338000059 96.66199994 xlo xhi
-3.665999889 96.33400011 ylo yhi
-9.850000381 90.14999962 zlo zhi
0.0 0.0 0.0 xy xz yz

Masses

1	15.99943
2	12.01078
3	1.007947
4	12.01078
5	15.99943
6	1.007947
7	15.99943
8	1.007947


Pair Coeffs

1	0.16846514	3.0251065
2	0.10884061	3.3795318
3	0.016409246	2.5832257
4	0.086879315	3.4806469
5	0.2102061	3.0398122
6	0.015779483	2.6445434
7	0.20947353	2.99716
8	1.2326e-05	0.53453923

Bond Coeffs

1 harmonic	366.7408841747	1.425895053732
2 harmonic	300.03137914615	1.451203938761
3 harmonic	264.62148576755	1.52190126495
4 harmonic	370.04670688625	1.093899492634
5 harmonic	301.15400723785	1.345741232799
6 harmonic	582.698766451	1.225198386222
7 harmonic	329.44145381095	1.523435958334
8 harmonic	279.1350963404	1.454628925034
9 harmonic	329.96998057905	1.427343958716
10 harmonic	543.5267831885	0.9716763312559
11 harmonic	385.7604595587	1.369745182308


Angle Coeffs

1 harmonic	53.20531626545	116.5475862634
2 harmonic	65.09061609600001	110.3538806181
3 harmonic	201.41175231035	127.4691416191
4 harmonic	57.8982893754	126.8062420451
5 harmonic	48.776492647595	115.6030999533


Dihedral Coeffs

1 fourier 1	-0.0309670556842	3	0
2 fourier 1	0.4598191477945	2	0
3 fourier 1	0.1115525666802	3	0
4 fourier 1	0.3432490222662	1	0
5 fourier 1	0.0473758381877	3	0
6 fourier 1	0.457973137376	1	0
7 fourier 1	0.4552156463534	3	0
8 fourier 1	-0.03687743385131	2	180
9 fourier 1	0.1918272375143	3	0
10 fourier 1	0.9202179876409	1	180
11 fourier 1	1.163809172478	2	180
12 fourier 1	0.1679186987369	1	180
13 fourier 1	2.779853741805	2	180
14 fourier 1	0.02664938770063	3	0
15 fourier 1	0.1911926717192	3	0
16 fourier 1	0.1155372516788	3	0
17 fourier 1	-0.3703352413219	2	0
18 fourier 1	0.4541676554336	1	0
19 fourier 1	0.1489710476446	2	0
20 fourier 1	0.02960027280666	3	180
21 fourier 1	0.09223874044423	3	0
22 fourier 1	0.3159935921949	2	180
23 fourier 1	0.3247796806857	1	180
24 fourier 1	0.1040663847541	3	0
25 fourier 1	0.9974165607242	2	180
26 fourier 1	0.3445382149273	3	0
27 fourier 1	0.1364556373303	1	0
28 fourier 1	0.3026390167484	3	0
29 fourier 1	2.687457892086	2	180
30 fourier 1	2.772607909663	2	180
31 fourier 1	0.09692684957115	1	0


Improper Coeffs

1 3.5	-1	2
2 0.3666666666666667	-1	2


Atoms

1	1	1	-0.152963	-3.3380001	-0.667	0.119
2	1	2	0.027236	-2.119	-0.0080000004	-0.086999997
3	1	2	0.077674001	-1.089	-0.46000001	0.949
4	1	1	-0.49245799	0.102	0.29300001	0.81599998
5	1	2	0.077133	1.05	-0.41	0.041000001
6	1	2	0.129531	2.2609999	0.486	-0.20200001
7	1	1	-0.491097	3.2379999	-0.20200001	-0.93400002
8	1	3	0.087079003	1.95	1.41	-0.74000001
9	1	3	0.087079003	2.6949999	0.78600001	0.77499998
10	1	3	0.079931997	0.62300003	-0.70200002	-0.94599998
11	1	3	0.079931997	1.3890001	-1.322	0.583
12	1	3	0.081306003	-1.5039999	-0.26499999	1.961
13	1	3	0.081306003	-0.93199998	-1.563	0.88
14	1	3	0.085107997	-2.2850001	1.086	0.017000001
15	1	3	0.085107997	-1.745	-0.20100001	-1.118
16	1	4	0.76372403	2.915	-0.21600001	-1.9220001
17	1	5	-0.54155302	1.919	-0.85799998	-2.214
18	1	2	-0.20811	3.655	0.54000002	-2.9849999
19	1	2	-0.111963	4.869	1.273	-2.4030001
20	1	2	-0.091142997	5.6220002	2.0439999	-3.493
21	1	2	-0.256437	6.835	2.777	-2.911
22	1	4	0.51924998	7.5749998	3.5339999	-3.974
23	1	5	-0.667512	8.5710001	4.1760001	-3.6819999
24	1	6	0.116441	6.4990001	3.494	-2.1300001
25	1	6	0.116441	7.527	2.0420001	-2.4460001
26	1	6	0.078275003	4.9349999	2.7839999	-3.961
27	1	6	0.078275003	5.9640002	1.3329999	-4.2779999
28	1	6	0.087260999	4.526	1.984	-1.619
29	1	6	0.087260999	5.5549998	0.53299999	-1.9349999
30	1	6	0.120063	2.9630001	1.275	-3.45
31	1	6	0.120063	3.9909999	-0.176	-3.766
32	1	1	-0.152963	-3.2249999	-1.589	-0.233
33	1	2	0.027236	-2.3540001	-2.2479999	0.64499998
34	1	2	0.077798001	-0.91299999	-1.796	0.403
35	1	1	-0.49026999	-0.023	-2.549	1.205
36	1	2	0.049931999	0.296	-1.845	2.3870001
37	1	2	0.072031997	1.138	-2.7420001	3.29
38	1	7	-0.68391198	1.506	-2.053	4.454
39	1	8	0.38565099	0.70599997	-2.04	5.0409999
40	1	3	0.081064999	0.57300001	-3.6659999	3.546
41	1	3	0.081064999	2.0610001	-3.0420001	2.7490001
42	1	3	0.082212001	-0.62599999	-1.553	2.941
43	1	3	0.082212001	0.88700002	-0.93300003	2.1440001
44	1	3	0.081306003	-0.66100001	-1.9910001	-0.66100001
45	1	3	0.081306003	-0.82599998	-0.69199997	0.55000001
46	1	3	0.085107997	-2.4289999	-3.3410001	0.463
47	1	3	0.085107997	-2.651	-2.0550001	1.7
48	1	4	0.51924998	7.2379999	3.5190001	-5.0050001
49	1	5	-0.667512	6.5209999	4.4180002	-5.4169998
50	1	2	-0.256437	7.6370001	2.3900001	-5.908
51	1	2	-0.091142997	8.526	2.8900001	-7.0510001
52	1	2	-0.109436	8.9589996	1.729	-7.9580002
53	1	2	-0.21812101	9.7980003	2.2049999	-9.1520004
54	1	4	0.82670498	11.138	2.717	-8.7209997
55	1	5	-0.54237002	12.061	1.908	-8.4379997
56	1	7	-0.66248298	11.352	4.0869999	-8.6020002
57	1	8	0.39824599	12.248	4.448	-8.2980003
58	1	6	0.12111	9.2530003	2.9990001	-9.7080002
59	1	6	0.12111	9.948	1.354	-9.8500004
60	1	6	0.087260999	8.052	1.221	-8.3529997
61	1	6	0.087260999	9.5369997	0.98299998	-7.3699999
62	1	6	0.078275003	7.9660001	3.6389999	-7.6539998
63	1	6	0.078275003	9.4259996	3.3840001	-6.6220002
64	1	6	0.116441	8.191	1.6339999	-5.3099999
65	1	6	0.116441	6.7210002	1.9119999	-6.3169999

Bonds

1	1	1	2
2	2	1	32
3	3	2	3
4	4	2	14
5	4	2	15
6	1	3	4
7	4	3	12
8	4	3	13
9	1	4	5
10	3	5	6
11	4	5	10
12	4	5	11
13	1	6	7
14	4	6	8
15	4	6	9
16	5	7	16
17	6	16	17
18	7	16	18
19	3	18	19
20	4	18	30
21	4	18	31
22	3	19	20
23	4	19	28
24	4	19	29
25	3	20	21
26	4	20	26
27	4	20	27
28	7	21	22
29	4	21	24
30	4	21	25
31	6	22	23
32	8	22	48
33	1	32	33
34	3	33	34
35	4	33	46
36	4	33	47
37	1	34	35
38	4	34	44
39	4	34	45
40	1	35	36
41	3	36	37
42	4	36	42
43	4	36	43
44	9	37	38
45	4	37	40
46	4	37	41
47	10	38	39
48	6	48	49
49	7	48	50
50	3	50	51
51	4	50	64
52	4	50	65
53	3	51	52
54	4	51	62
55	4	51	63
56	3	52	53
57	4	52	60
58	4	52	61
59	7	53	54
60	4	53	58
61	4	53	59
62	6	54	55
63	11	54	56
64	10	56	57

Angles

1	5	26	20	27
2	2	1	32	33
3	5	46	33	47
4	1	4	3	13
5	1	52	51	63
6	1	35	36	43
7	1	6	5	10
8	1	34	33	46
9	1	5	6	9
10	1	1	2	14
11	5	42	36	43
12	1	53	52	61
13	1	22	21	24
14	1	33	34	44
15	1	2	3	4
16	1	50	51	62
17	4	53	54	55
18	1	35	34	44
19	1	16	18	30
20	5	14	2	15
21	1	1	2	15
22	1	16	18	19
23	1	32	33	47
24	5	60	52	61
25	5	8	6	9
26	1	52	53	54
27	1	18	19	20
28	1	36	37	40
29	1	3	2	14
30	1	4	5	11
31	1	22	21	25
32	1	33	34	45
33	1	19	20	27
34	1	50	51	63
35	4	21	22	23
36	1	20	21	24
37	5	30	18	31
38	1	37	36	42
39	1	16	18	31
40	1	2	3	12
41	4	49	48	50
42	1	36	37	41
43	1	5	6	7
44	5	12	3	13
45	4	22	48	49
46	1	6	5	11
47	5	58	53	59
48	1	48	50	51
49	1	35	36	37
50	1	1	2	3
51	1	4	5	6
52	1	19	18	30
53	1	18	19	28
54	5	44	34	45
55	1	21	20	26
56	1	2	3	13
57	1	7	6	8
58	4	23	22	48
59	3	55	54	56
60	1	52	53	58
61	2	34	35	36
62	1	34	33	47
63	4	17	16	18
64	4	22	48	50
65	2	6	7	16
66	1	19	18	31
67	3	7	16	17
68	5	24	21	25
69	1	18	19	29
70	5	40	37	41
71	1	20	19	28
72	1	51	50	64
73	1	7	6	9
74	2	54	56	57
75	4	53	54	56
76	1	35	34	45
77	1	52	53	59
78	1	51	52	60
79	1	50	51	52
80	4	21	22	48
81	1	48	50	64
82	1	19	20	21
83	4	7	16	18
84	1	20	19	29
85	1	38	37	40
86	1	3	2	15
87	1	20	21	25
88	2	37	38	39
89	1	37	36	43
90	1	48	50	65
91	1	54	53	58
92	1	52	51	62
93	1	35	36	42
94	2	3	4	5
95	1	5	6	8
96	5	62	51	63
97	1	32	33	34
98	1	51	52	53
99	5	10	5	11
100	1	36	37	38
101	1	53	52	60
102	1	21	20	27
103	1	54	53	59
104	1	20	21	22
105	2	2	1	32
106	5	28	19	29
107	1	32	33	46
108	1	51	50	65
109	1	19	20	26
110	1	33	34	35
111	1	51	52	61
112	1	4	3	12
113	1	4	5	10
114	5	64	50	65
115	1	38	37	41

Dihedrals

1	3	1	2	3	12
1	4	1	2	3	12
2	3	32	33	34	44
2	4	32	33	34	44
3	29	53	54	56	57
4	18	55	54	53	58
4	19	55	54	53	58
4	20	55	54	53	58
5	3	7	6	5	11
5	4	7	6	5	11
6	15	45	34	33	46
7	15	24	21	20	26
8	24	52	51	50	64
9	15	28	19	18	31
10	5	3	4	5	10
11	3	4	3	2	14
11	4	4	3	2	14
12	21	50	51	52	53
12	22	50	51	52	53
12	23	50	51	52	53
13	16	16	18	19	29
14	15	27	20	19	28
15	5	5	4	3	12
16	18	23	22	21	24
16	19	23	22	21	24
16	20	23	22	21	24
17	1	1	2	3	4
17	2	1	2	3	4
18	14	7	16	18	30
19	3	32	33	34	45
19	4	32	33	34	45
20	14	25	21	22	48
21	15	8	6	5	11
22	7	34	35	36	37
22	8	34	35	36	37
23	15	45	34	33	47
24	15	24	21	20	27
25	6	2	1	32	33
26	15	9	6	5	10
27	24	52	51	50	65
28	18	49	48	50	64
28	19	49	48	50	64
28	20	49	48	50	64
29	17	20	21	22	23
30	15	62	51	50	64
31	5	15	2	1	32
32	3	4	3	2	15
32	4	4	3	2	15
33	28	39	38	37	40
34	18	23	22	21	25
34	19	23	22	21	25
34	20	23	22	21	25
35	15	59	53	52	61
36	18	17	16	18	30
36	19	17	16	18	30
36	20	17	16	18	30
37	14	56	54	53	58
38	17	17	16	18	19
39	5	36	35	34	45
40	24	50	51	52	61
41	7	3	4	5	6
41	8	3	4	5	6
42	24	19	20	21	24
43	15	26	20	19	28
44	15	40	37	36	42
45	11	6	7	16	17
45	12	6	7	16	17
46	5	9	6	7	16
47	15	62	51	50	65
48	3	38	37	36	42
48	4	38	37	36	42
49	25	23	22	48	49
50	24	20	19	18	30
51	5	1	32	33	34
52	18	17	16	18	31
52	19	17	16	18	31
52	20	17	16	18	31
53	24	53	52	51	63
54	14	56	54	53	59
55	3	35	36	37	40
55	4	35	36	37	40
56	15	60	52	51	63
57	15	41	37	36	43
58	16	48	50	51	62
59	5	3	2	1	32
60	15	25	21	20	27
61	3	1	2	3	13
61	4	1	2	3	13
62	24	19	20	21	25
63	15	26	20	19	29
64	14	22	48	50	51
65	30	55	54	56	57
65	31	55	54	56	57
66	13	6	7	16	18
67	14	7	16	18	19
68	5	3	4	5	11
69	24	51	52	53	58
70	5	1	32	33	46
71	1	4	5	6	7
71	2	4	5	6	7
72	15	13	3	2	14
73	14	24	21	22	48
74	18	55	54	53	59
74	19	55	54	53	59
74	20	55	54	53	59
75	3	35	36	37	41
75	4	35	36	37	41
76	5	34	35	36	42
77	3	35	34	33	46
77	4	35	34	33	46
78	14	20	21	22	48
79	16	22	21	20	26
80	16	51	52	53	54
81	15	9	6	5	11
82	5	5	4	3	13
83	15	27	20	19	29
84	24	21	20	19	28
85	14	7	16	18	31
86	21	18	19	20	21
86	22	18	19	20	21
86	23	18	19	20	21
87	15	29	19	18	30
88	24	51	52	53	59
89	5	1	32	33	47
90	3	4	5	6	8
90	4	4	5	6	8
91	15	13	3	2	15
92	15	58	53	52	60
93	16	19	20	21	22
94	18	49	48	50	65
94	19	49	48	50	65
94	20	49	48	50	65
95	5	34	35	36	43
96	28	39	38	37	41
97	15	12	3	2	14
98	14	22	48	50	64
99	16	22	21	20	27
100	15	61	52	51	62
101	15	63	51	50	64
102	5	14	2	1	32
103	15	58	53	52	61
104	7	33	34	35	36
104	8	33	34	35	36
105	15	40	37	36	43
106	16	54	53	52	60
107	3	38	37	36	43
107	4	38	37	36	43
108	15	12	3	2	15
109	25	21	22	48	49
110	15	63	51	50	65
111	15	61	52	51	63
112	25	23	22	48	50
113	24	20	19	18	31
114	5	8	6	7	16
115	15	28	19	18	30
116	15	44	34	33	46
117	16	48	50	51	63
118	17	52	53	54	55
119	16	16	18	19	28
120	16	48	50	51	52
121	3	7	6	5	10
121	4	7	6	5	10
122	16	54	53	52	61
123	1	32	33	34	35
123	2	32	33	34	35
124	25	21	22	48	50
125	24	18	19	20	26
126	15	44	34	33	47
127	3	35	34	33	47
127	4	35	34	33	47
128	15	8	6	5	10
129	14	52	53	54	56
130	7	2	3	4	5
130	8	2	3	4	5
131	24	21	20	19	29
132	15	59	53	52	60
133	16	16	18	19	20
134	26	36	37	38	39
134	27	36	37	38	39
135	5	36	35	34	44
136	1	35	36	37	38
136	2	35	36	37	38
137	15	29	19	18	31
138	24	50	51	52	60
139	3	4	5	6	9
139	4	4	5	6	9
140	9	5	6	7	16
140	10	5	6	7	16
141	24	18	19	20	27
142	14	22	48	50	65
143	24	53	52	51	62
144	15	60	52	51	62
145	17	49	48	50	51
146	15	41	37	36	42
147	15	25	21	20	26

Impropers

17	1	54	55	56	53
48	2	48	50	22	49
57	1	16	7	17	18
61	2	22	48	21	23
66	2	48	22	49	50
81	1	16	18	7	17
141	2	22	21	23	48
147	1	54	53	55	56
248	1	54	56	53	55
331	2	22	23	48	21
348	1	16	17	18	7
385	2	48	49	50	22
