Title

11125 atoms
11000 bonds
20375 angles
35375 dihedrals
1500 impropers

8 atom types
11 bond types
5 angle types
31 dihedral types
2 improper types
-11.98910472 127.4130147 xlo xhi
-12.45400007 127.6131068 ylo yhi
-12.9435193 127.508511 zlo zhi
0.0 0.0 0.0 xy xz yz

Masses

1	15.99943
2	12.01078
3	1.007947
4	12.01078
5	15.99943
6	1.007947
7	15.99943
8	1.007947


Pair Coeffs

1	0.16846514	3.0251065
2	0.10884061	3.3795318
3	0.016409246	2.5832257
4	0.086879315	3.4806469
5	0.2102061	3.0398122
6	0.015779483	2.6445434
7	0.20947353	2.99716
8	1.2326e-05	0.53453923

Bond Coeffs

1 harmonic	366.7408841747	1.425895053732
2 harmonic	300.03137914615	1.451203938761
3 harmonic	264.62148576755	1.52190126495
4 harmonic	370.04670688625	1.093899492634
5 harmonic	301.15400723785	1.345741232799
6 harmonic	582.698766451	1.225198386222
7 harmonic	329.44145381095	1.523435958334
8 harmonic	279.1350963404	1.454628925034
9 harmonic	329.96998057905	1.427343958716
10 harmonic	543.5267831885	0.9716763312559
11 harmonic	385.7604595587	1.369745182308


Angle Coeffs

1 harmonic	53.20531626545	116.5475862634
2 harmonic	65.09061609600001	110.3538806181
3 harmonic	201.41175231035	127.4691416191
4 harmonic	57.8982893754	126.8062420451
5 harmonic	48.776492647595	115.6030999533


Dihedral Coeffs

1 fourier 1	-0.0309670556842	3	0
2 fourier 1	0.4598191477945	2	0
3 fourier 1	0.1115525666802	3	0
4 fourier 1	0.3432490222662	1	0
5 fourier 1	0.0473758381877	3	0
6 fourier 1	0.457973137376	1	0
7 fourier 1	0.4552156463534	3	0
8 fourier 1	-0.03687743385131	2	180
9 fourier 1	0.1918272375143	3	0
10 fourier 1	0.9202179876409	1	180
11 fourier 1	1.163809172478	2	180
12 fourier 1	0.1679186987369	1	180
13 fourier 1	2.779853741805	2	180
14 fourier 1	0.02664938770063	3	0
15 fourier 1	0.1911926717192	3	0
16 fourier 1	0.1155372516788	3	0
17 fourier 1	-0.3703352413219	2	0
18 fourier 1	0.4541676554336	1	0
19 fourier 1	0.1489710476446	2	0
20 fourier 1	0.02960027280666	3	180
21 fourier 1	0.09223874044423	3	0
22 fourier 1	0.3159935921949	2	180
23 fourier 1	0.3247796806857	1	180
24 fourier 1	0.1040663847541	3	0
25 fourier 1	0.9974165607242	2	180
26 fourier 1	0.3445382149273	3	0
27 fourier 1	0.1364556373303	1	0
28 fourier 1	0.3026390167484	3	0
29 fourier 1	2.687457892086	2	180
30 fourier 1	2.772607909663	2	180
31 fourier 1	0.09692684957115	1	0


Improper Coeffs

1 3.5	-1	2
2 0.3666666666666667	-1	2


Atoms

1	4	1	-0.15795371	6.506508	-1.2576423	-0.087407889
2	4	2	0.025985074	5.347384	-0.99030114	-0.82743384
3	4	2	0.07651015	5.3394692	0.46572616	-1.2947901
4	4	1	-0.49458456	4.1148734	0.76697128	-1.9372817
5	4	2	0.075981055	4.2486485	0.65538258	-3.3384206
6	4	2	0.12829657	2.8811292	0.84497013	-3.9882925
7	4	1	-0.49276355	2.991055	0.78149668	-5.3838513
8	4	3	0.083974894	2.1721021	0.070375429	-3.6178539
9	4	3	0.083974894	2.4791724	1.841553	-3.70876
10	4	3	0.076913718	4.6396438	-0.3480742	-3.6247056
11	4	3	0.076913718	4.9343961	1.4442622	-3.7229307
12	4	3	0.078218688	5.4245693	1.1192491	-0.40032951
13	4	3	0.078218688	6.238316	0.67324755	-1.9233029
14	4	3	0.081988532	4.4629384	-1.1699653	-0.17883167
15	4	3	0.081988532	5.2781989	-1.6796252	-1.6992892
16	5	4	0.76196926	3.0880358	-0.22395226	-5.6294855
17	5	5	-0.55066991	3.4340853	-0.53023733	-6.7585051
18	5	2	-0.20814875	2.8090934	-1.2952255	-4.6167704
19	5	2	-0.11514046	2.4025317	-0.6873768	-3.2657066
20	5	2	-0.13581533	2.2189568	-1.7495671	-2.1695856
21	5	2	-0.14115517	0.9050963	-2.5352696	-2.3232187
22	5	2	-0.14115517	0.75991958	-3.6679489	-1.2908305
23	5	2	-0.1384757	0.71735696	-3.2118852	0.17891785
24	5	2	-0.096828338	-0.46510076	-2.281416	0.48582161
25	5	2	-0.25726095	-0.57554905	-2.0113602	1.9904787
26	5	4	0.51772684	-1.7186257	-1.0897926	2.2956821
27	5	5	-0.68093908	-1.9492918	-0.76735176	3.4500529
28	5	6	0.11452371	-0.73410021	-2.9694759	2.5314499
29	5	6	0.11452371	0.3668888	-1.5484201	2.3558749
30	5	6	0.077954788	-0.32149495	-1.3134445	-0.040033334
31	5	6	0.077954788	-1.4079116	-2.7491649	0.12696275
32	5	6	0.079673078	0.62932509	-4.1243339	0.80905489
33	5	6	0.079673078	1.6728288	-2.7195963	0.45788622
34	5	6	0.081549589	-0.17187329	-4.2325623	-1.516101
35	5	6	0.081549589	1.6056875	-4.3783291	-1.4168094
36	5	6	0.081549589	0.038293838	-1.8442001	-2.2622062
37	5	6	0.081549589	0.87260431	-3.0037711	-3.3283747
38	5	6	0.079673078	3.0848139	-2.4471219	-2.1679638
39	5	6	0.079673078	2.2087064	-1.2185942	-1.1940341
40	5	6	0.086769108	3.2049337	0.0099216467	-2.9361448
41	5	6	0.086769108	1.4679396	-0.096020536	-3.3799621
42	5	6	0.1178921	3.7237396	-1.9131805	-4.4894129
43	5	6	0.1178921	1.9942465	-1.9395097	-5.0080867
44	1	1	-0.15795371	7.2470608	-1.3484218	-0.74322619
45	1	2	0.025985074	7.4853547	-0.066554932	-1.2568791
46	1	2	0.076634605	6.4045425	0.30860371	-2.2719899
47	1	1	-0.49241215	6.7122667	1.5498031	-2.8778306
48	1	2	0.048762787	6.0193565	2.6000458	-2.2364519
49	1	2	0.070758719	6.4832256	3.932327	-2.8185465
50	1	7	-0.68579072	5.7797935	4.9922028	-2.2295748
51	1	8	0.38288265	6.1758724	5.1307082	-1.3303108
52	1	3	0.077625629	7.578186	4.0572942	-2.6636857
53	1	3	0.077625629	6.287283	3.9413414	-3.9122262
54	1	3	0.079134505	6.2227637	2.6042072	-1.1406087
55	1	3	0.079134505	4.92386	2.5005058	-2.4098106
56	1	3	0.078218688	6.3912851	-0.46538666	-3.0684748
57	1	3	0.078218688	5.3972778	0.28137575	-1.7896305
58	1	3	0.081988532	8.4750641	-0.066152447	-1.7607374
59	1	3	0.081988532	7.520565	0.67918644	-0.43158337
60	2	4	0.51772689	-2.3482113	-0.70188134	1.5018604
61	2	5	-0.68093908	-2.1263706	0.40823321	1.0440325
62	2	2	-0.25726098	-3.4737335	-1.5366169	0.96327876
63	2	2	-0.096828338	-4.8435682	-0.89620853	1.2260164
64	2	2	-0.1384757	-5.1930388	-0.86836487	2.7207458
65	2	2	-0.14115517	-6.5851927	-0.26696454	2.949539
66	2	2	-0.14115517	-6.9277524	-0.22832214	4.4466404
67	2	2	-0.13581533	-8.3661802	0.24084501	4.7141131
68	2	2	-0.11260442	-8.5577184	1.7442825	4.4482903
69	2	2	-0.21824672	-9.9761455	2.2176965	4.7932998
70	2	4	0.82475418	-10.22008	2.20987	6.2719426
71	2	5	-0.55192411	-10.919144	1.3001757	6.7929097
72	2	7	-0.66451139	-9.6500403	3.1940295	7.0724571
73	2	8	0.39546033	-9.7962062	3.197791	8.0747881
74	2	6	0.1189236	-10.108616	3.2565069	4.4234208
75	2	6	0.1189236	-10.727085	1.5807457	4.2764128
76	2	6	0.086769108	-7.8149714	2.3333622	5.0307611
77	2	6	0.086769108	-8.3864398	1.9523302	3.370991
78	2	6	0.079673078	-9.077084	-0.34725977	4.0930281
79	2	6	0.079673078	-8.5977474	0.029866305	5.7801566
80	2	6	0.081549589	-6.2106694	0.43162764	4.9823374
81	2	6	0.081549589	-6.8196146	-1.2525557	4.8653191
82	2	6	0.081549589	-6.6023853	0.76244809	2.5340465
83	2	6	0.081549589	-7.3413255	-0.88087947	2.4128943
84	2	6	0.079673078	-4.4393677	-0.26048198	3.2684157
85	2	6	0.079673078	-5.1696942	-1.9054621	3.1225234
86	2	6	0.077954788	-4.859615	0.13685769	0.81205303
87	2	6	0.077954788	-5.6128	-1.4893725	0.6849204
88	2	6	0.11452371	-3.4368899	-2.5472467	1.4244555
89	2	6	0.11452371	-3.3328204	-1.6604335	-0.13148695
90	4	1	-0.15795371	-1.4906269	-1.5898343	32.442432
91	4	2	0.025985074	-1.8160292	-1.7127854	31.085349
92	4	2	0.07651015	-1.3665002	-3.0738198	30.552424
93	4	1	-0.49458456	-1.5860493	-3.1496731	29.156278
94	4	2	0.075981055	-2.8056401	-3.8054022	28.880315
95	4	2	0.12829657	-3.0793682	-3.7424653	27.380482
96	4	1	-0.49276355	-4.2644263	-4.4236496	27.071739
97	4	3	0.083974894	-3.1422114	-2.681463	27.048419
98	4	3	0.083974894	-2.2404731	-4.2246045	26.835797
99	4	3	0.076913718	-3.6527684	-3.3169838	29.414715
100	4	3	0.076913718	-2.7436088	-4.8754263	29.183019
101	4	3	0.078218688	-0.27464845	-3.1748015	30.731467
102	4	3	0.078218688	-1.8574723	-3.894183	31.128592
103	4	3	0.081988532	-1.2943761	-0.90980107	30.521166
104	4	3	0.081988532	-2.9115777	-1.5789629	30.937189
105	5	4	0.76196926	-5.0478035	-3.799497	27.349988
106	5	5	-0.55066991	-6.1795332	-4.2518983	27.402589
107	5	2	-0.20814875	-4.8028309	-2.3578523	27.685661
108	5	2	-0.11514046	-3.3118635	-2.0073141	27.566141
109	5	2	-0.13581533	-3.0040659	-0.56865171	28.012168
110	5	2	-0.14115517	-3.4348736	0.47747486	26.969486
111	5	2	-0.14115517	-3.2233057	1.9246992	27.449741
112	5	2	-0.1384757	-1.7614348	2.3106144	27.739515
113	5	2	-0.096828338	-0.85357507	2.1964584	26.506256
114	5	2	-0.25726095	0.53810965	2.7707705	26.793486
115	5	4	0.51772684	1.4352582	2.6474187	25.598091
116	5	5	-0.68093908	2.5843799	3.0549422	25.65458
117	5	6	0.11452371	0.45018655	3.8450236	27.065559
118	5	6	0.11452371	0.99771243	2.2245446	27.645788
119	5	6	0.077954788	-0.74610688	1.1277847	26.222527
120	5	6	0.077954788	-1.3105507	2.749796	25.656872
121	5	6	0.079673078	-1.7583146	3.3658854	28.091336
122	5	6	0.079673078	-1.3569378	1.6938721	28.569641
123	5	6	0.081549589	-3.6278119	2.6150339	26.676704
124	5	6	0.081549589	-3.8220042	2.0873821	28.372199
125	5	6	0.081549589	-2.8978342	0.30596962	26.013024
126	5	6	0.081549589	-4.5171972	0.3594003	26.756127
127	5	6	0.079673078	-3.4936668	-0.36085448	28.988592
128	5	6	0.079673078	-1.9056566	-0.49721957	28.160938
129	5	6	0.086769108	-2.7328208	-2.6993204	28.217694
130	5	6	0.086769108	-2.9671016	-2.1612576	26.520359
131	5	6	0.1178921	-5.1499153	-2.1689957	28.724185
132	5	6	0.1178921	-5.4006426	-1.7327352	26.98992
133	1	1	-0.15795371	-2.1566755	-2.1299333	32.943859
134	1	2	0.025985074	-1.8706806	-3.4737653	32.667945
135	1	2	0.076634605	-2.3672475	-3.8466717	31.270193
136	1	1	-0.49241215	-2.1870303	-5.2312363	31.040376
137	1	2	0.048762787	-0.99131986	-5.4638317	30.32576
138	1	2	0.070758719	-0.75673955	-6.9682309	30.222138
139	1	7	-0.68579072	0.402897	-7.2300759	29.479359
140	1	8	0.38288265	1.1716755	-7.0484047	30.079953
141	1	3	0.077625629	-0.67767976	-7.4142916	31.23866
142	1	3	0.077625629	-1.6215031	-7.4383016	29.706554
143	1	3	0.079134505	-0.11809442	-5.0058517	30.845371
144	1	3	0.079134505	-1.0709078	-5.0464801	29.296412
145	1	3	0.078218688	-3.4556624	-3.6314836	31.2185
146	1	3	0.078218688	-1.8809323	-3.1966476	30.502756
147	1	3	0.081988532	-2.3878968	-4.1066843	33.419809
148	1	3	0.081988532	-0.77725657	-3.6612781	32.755956
149	2	4	0.51772689	1.0774986	2.1984871	24.677507
150	2	5	-0.68093908	1.3129128	1.0222952	24.448757
151	2	2	-0.25726098	0.28477548	3.0199171	23.702573
152	2	2	-0.096828338	1.0116579	3.1825886	22.360641
153	2	2	-0.1384757	2.2830984	4.033399	22.489799
154	2	2	-0.14115517	2.9625146	4.2183762	21.127338
155	2	2	-0.14115517	4.2412927	5.0592645	21.260704
156	2	2	-0.13581533	4.8818936	5.3842358	19.902485
157	2	2	-0.11260442	5.5424678	4.1569178	19.250561
158	2	2	-0.21824672	6.2464997	4.5090387	17.933201
159	2	4	0.82475418	7.4731113	5.3387219	18.163418
160	2	5	-0.55192411	7.4548721	6.5752529	17.921965
161	2	7	-0.66451139	8.6243797	4.7457151	18.670629
162	2	8	0.39546033	9.4589574	5.2936241	18.841865
163	2	6	0.1189236	6.5512306	3.5692746	17.425787
164	2	6	0.1189236	5.5436528	5.0417358	17.255685
165	2	6	0.086769108	6.2723632	3.6970049	19.953194
166	2	6	0.086769108	4.7647574	3.3973803	19.023706
167	2	6	0.079673078	4.1176525	5.8119926	19.216951
168	2	6	0.079673078	5.6552774	6.1639127	20.071499
169	2	6	0.081549589	4.9762246	4.5310756	21.906928
170	2	6	0.081549589	3.987254	6.0211807	21.756911
171	2	6	0.081549589	3.2122738	3.2186905	20.713975
172	2	6	0.081549589	2.2572542	4.7254133	20.432977
173	2	6	0.079673078	2.9941713	3.5374492	23.186859
174	2	6	0.079673078	2.0171228	5.0299193	22.906626
175	2	6	0.077954788	1.2646204	2.180367	21.947833
176	2	6	0.077954788	0.31600715	3.6763593	21.647475
177	2	6	0.11452371	0.08081405	4.0198683	24.142927
178	2	6	0.11452371	-0.69293667	2.5219625	23.529891
179	4	1	-0.15795371	1.3541313	1.0202693	58.773946
180	4	2	0.025985074	1.7949368	0.52367833	57.540347
181	4	2	0.07651015	2.7705103	1.5056253	56.890319
182	4	1	-0.49458456	3.1208621	1.0611418	55.593065
183	4	2	0.075981055	4.3472964	0.36217291	55.622034
184	4	2	0.12829657	4.6219209	-0.22395533	54.240216
185	4	1	-0.49276355	5.8556815	-0.88832877	54.228386
186	4	3	0.083974894	3.8020668	-0.91986295	53.951265
187	4	3	0.083974894	4.6543015	0.59834404	53.494789
188	4	3	0.076913718	4.3152116	-0.47246597	56.359672
189	4	3	0.076913718	5.1787749	1.0558302	55.882633
190	4	3	0.078218688	2.2603251	2.4872507	56.787768
191	4	3	0.078218688	3.6485489	1.6751466	57.558398
192	4	3	0.081988532	0.91395574	0.39110612	56.875888
193	4	3	0.081988532	2.2756177	-0.47186515	57.674231
194	5	4	0.76196926	5.7072189	-1.8005767	54.704235
195	5	5	-0.55066991	6.6759925	-2.4654744	55.032312
196	5	2	-0.20814875	4.3232949	-2.3045769	54.990181
197	5	2	-0.11514046	3.2598973	-1.3073689	54.505508
198	5	2	-0.13581533	1.8319671	-1.7344219	54.882429
199	5	2	-0.14115517	1.3049766	-2.8777019	53.997922
200	5	2	-0.14115517	-0.083836015	-3.3800975	54.432275
201	5	2	-0.1384757	-1.211938	-2.3356641	54.351586
202	5	2	-0.096828338	-1.4412472	-1.80694	52.928197
203	5	2	-0.25726095	-2.6908523	-0.9216749	52.86563
204	5	4	0.51772684	-2.9114359	-0.38838309	51.481432
205	5	5	-0.68093908	-3.8649219	0.33881894	51.253861
206	5	6	0.11452371	-3.5827768	-1.512345	53.167877
207	5	6	0.11452371	-2.5766486	-0.066241542	53.566492
208	5	6	0.077954788	-0.56285461	-1.2059453	52.609847
209	5	6	0.077954788	-1.5631776	-2.6634283	52.229611
210	5	6	0.079673078	-2.1454568	-2.8245443	54.70785
211	5	6	0.079673078	-1.0066934	-1.4919096	55.043721
212	5	6	0.081549589	-0.35805483	-4.2509753	53.796548
213	5	6	0.081549589	-0.019610617	-3.7518828	55.477973
214	5	6	0.081549589	1.2847251	-2.558774	52.934663
215	5	6	0.081549589	1.9988541	-3.7410607	54.061433
216	5	6	0.079673078	1.7942985	-2.0299471	55.953662
217	5	6	0.079673078	1.1768455	-0.84703985	54.751636
218	5	6	0.086769108	3.4587799	-0.32036246	54.979796
219	5	6	0.086769108	3.3367631	-1.1738886	53.404375
220	5	6	0.1178921	4.219135	-2.4603573	56.08542
221	5	6	0.1178921	4.1960189	-3.280507	54.476793
222	1	1	-0.15795371	2.0972224	0.87995052	59.41806
223	1	2	0.025985074	3.1126572	1.7761307	59.058117
224	1	2	0.076634605	3.8588299	1.2661307	57.82423
225	1	1	-0.49241215	4.9584555	2.1083801	57.53483
226	1	2	0.048762787	4.6141634	3.0489901	56.539232
227	1	2	0.070758719	5.7706954	4.0277648	56.356432
228	1	7	-0.68579072	5.4734309	4.9486156	55.342179
229	1	8	0.38288265	4.8431372	5.6078399	55.733192
230	1	3	0.077625629	5.9802084	4.555862	57.313382
231	1	3	0.077625629	6.6838499	3.4646049	56.067278
232	1	3	0.079134505	3.7062549	3.6264321	56.829967
233	1	3	0.079134505	4.4306789	2.5331174	55.56955
234	1	3	0.078218688	4.2554112	0.25373661	58.05096
235	1	3	0.078218688	3.1501477	1.1425909	56.969536
236	1	3	0.081988532	3.8250677	1.8619014	59.905768
237	1	3	0.081988532	2.6856846	2.7856641	58.865711
238	2	4	0.51772689	-2.2326263	-0.63966758	50.673299
239	2	5	-0.68093908	-1.3376023	0.13539782	50.374335
240	2	2	-0.25726098	-2.3886627	-1.9412542	49.94174
241	2	2	-0.096828338	-2.7427662	-1.7327736	48.462974
242	2	2	-0.1384757	-4.1427189	-1.1290455	48.281961
243	2	2	-0.14115517	-4.4881687	-0.97569578	46.7956
244	2	2	-0.14115517	-5.8841337	-0.35972857	46.616661
245	2	2	-0.13581533	-6.3276256	-0.31245974	45.14635
246	2	2	-0.11260442	-5.5608846	0.74288174	44.33024
247	2	2	-0.21824672	-6.0655561	0.83607751	42.883966
248	2	4	0.82475418	-7.43657	1.4369492	42.811688
249	2	5	-0.55192411	-8.4387828	0.70262443	42.601979
250	2	7	-0.66451139	-7.6038121	2.8041895	43.004102
251	2	8	0.39546033	-8.5244485	3.2251739	42.968792
252	2	6	0.1189236	-5.3718749	1.4788432	42.301604
253	2	6	0.1189236	-6.0620827	-0.17144797	42.413149
254	2	6	0.086769108	-5.6429378	1.7386949	44.819712
255	2	6	0.086769108	-4.4850546	0.46997324	44.294118
256	2	6	0.079673078	-6.2025541	-1.3151134	44.681548
257	2	6	0.079673078	-7.4110525	-0.06663577	45.127894
258	2	6	0.081549589	-5.9044129	0.66458018	47.049204
259	2	6	0.081549589	-6.621713	-0.97567504	47.175791
260	2	6	0.081549589	-3.7266915	-0.32466657	46.31713
261	2	6	0.081549589	-4.459752	-1.9750565	46.308684
262	2	6	0.079673078	-4.183856	-0.13034055	48.770203
263	2	6	0.079673078	-4.8934405	-1.7907938	48.767808
264	2	6	0.077954788	-1.9809032	-1.0776509	47.984196
265	2	6	0.077954788	-2.7059162	-2.7213031	47.955237
266	2	6	0.11452371	-3.1777192	-2.5492537	50.434832
267	2	6	0.11452371	-1.4347673	-2.5058709	50.012385
268	4	1	-0.15795371	5.9356454	1.6158898	76.084495
269	4	2	0.025985074	5.0848793	0.6001166	76.539555
270	4	2	0.07651015	4.4915061	-0.16569234	75.356362
271	4	1	-0.49458456	3.5411805	-1.1104952	75.811783
272	4	2	0.075981055	4.128918	-2.3888957	75.929234
273	4	2	0.12829657	3.120675	-3.3474507	76.556134
274	4	1	-0.49276355	3.6633092	-4.6363269	76.645819
275	4	3	0.083974894	2.8207192	-2.9802037	77.563655
276	4	3	0.083974894	2.2116123	-3.3884199	75.919886
277	4	3	0.076913718	5.0345631	-2.3552342	76.577644
278	4	3	0.076913718	4.4070895	-2.7777491	74.92333
279	4	3	0.078218688	3.9634681	0.55983375	74.701243
280	4	3	0.078218688	5.3070837	-0.6122745	74.738773
281	4	3	0.081988532	4.2609871	1.0628311	77.124624
282	4	3	0.081988532	5.6369068	-0.09257533	77.214484
283	5	4	0.76196926	4.3190635	-4.6278728	77.452407
284	5	5	-0.55066991	5.0942148	-5.5583777	77.599195
285	5	2	-0.20814875	4.3224381	-3.4907719	78.431191
286	5	2	-0.11514046	3.2802725	-2.4286077	78.049295
287	5	2	-0.13581533	3.3312972	-1.1933471	78.963055
288	5	2	-0.14115517	2.7044042	-1.4541949	80.34368
289	5	2	-0.14115517	2.8410999	-0.25565374	81.300067
290	5	2	-0.1384757	2.1343802	1.032281	80.839918
291	5	2	-0.096828338	0.61670425	0.86117545	80.680069
292	5	2	-0.25726095	-0.062631876	2.2083009	80.410111
293	5	4	0.51772684	-1.543383	2.0461452	80.236498
294	5	5	-0.68093908	-2.2406362	3.0224373	80.011912
295	5	6	0.11452371	0.12439634	2.8983611	81.261352
296	5	6	0.11452371	0.36026608	2.6601403	79.486522
297	5	6	0.077954788	0.40805086	0.18005471	79.82763
298	5	6	0.077954788	0.19393315	0.41652588	81.607438
299	5	6	0.079673078	2.3288569	1.8125102	81.608557
300	5	6	0.079673078	2.5792933	1.3983531	79.890633
301	5	6	0.081549589	2.4353477	-0.54961172	82.293408
302	5	6	0.081549589	3.9208034	-0.03448677	81.445531
303	5	6	0.081549589	1.636918	-1.7374892	80.230262
304	5	6	0.081549589	3.2160533	-2.3140915	80.82293
305	5	6	0.079673078	4.382334	-0.84928471	79.078105
306	5	6	0.079673078	2.762664	-0.38466239	78.456672
307	5	6	0.086769108	3.4831499	-2.0929243	77.007738
308	5	6	0.086769108	2.2605983	-2.8714691	78.0682
309	5	6	0.1178921	5.3352686	-3.0339743	78.444471
310	5	6	0.1178921	4.1016082	-3.8995324	79.439335
311	1	1	-0.15795371	6.7801937	1.1742353	75.804429
312	1	2	0.025985074	6.4877159	0.45649343	74.636907
313	1	2	0.076634605	5.7297022	-0.82737235	74.978159
314	1	1	-0.49241215	5.5417632	-1.6086504	73.813429
315	1	2	0.048762787	4.2604096	-1.380996	73.264969
316	1	2	0.070758719	4.1464625	-2.1255525	71.937704
317	1	7	-0.68579072	2.8675878	-1.9521412	71.390484
318	1	8	0.38288265	2.8480324	-1.0409507	70.997945
319	1	3	0.077625629	4.9257756	-1.7663142	71.229074
320	1	3	0.077625629	4.3134054	-3.2102158	72.111616
321	1	3	0.079134505	4.0922815	-0.2955366	73.075827
322	1	3	0.079134505	3.4735345	-1.7635223	73.953863
323	1	3	0.078218688	6.3466853	-1.4175823	75.688517
324	1	3	0.078218688	4.7801354	-0.58304766	75.51353
325	1	3	0.081988532	7.4429475	0.19377989	74.134998
326	1	3	0.081988532	5.8939703	1.0850997	73.936333
327	2	4	0.51772689	-2.0084513	1.0685468	80.307342
328	2	5	-0.68093908	-2.2452555	0.43799882	79.288761
329	2	2	-0.25726098	-2.3416628	0.49365468	81.653493
330	2	2	-0.096828338	-3.8529964	0.30327709	81.841185
331	2	2	-0.1384757	-4.6021771	1.6418824	81.904313
332	2	2	-0.14115517	-6.1018588	1.4229167	82.13911
333	2	2	-0.14115517	-6.8515482	2.7629171	82.189284
334	2	2	-0.13581533	-8.3343399	2.5996448	82.557258
335	2	2	-0.11260442	-9.1613359	1.9748823	81.419971
336	2	2	-0.21824672	-10.653449	1.8887705	81.768212
337	2	4	0.82475418	-11.294283	3.2429924	81.805144
338	2	5	-0.55192411	-11.564073	3.7852025	82.91007
339	2	7	-0.66451139	-11.56574	3.9126382	80.616773
340	2	8	0.39546033	-11.989105	4.8328332	80.623815
341	2	6	0.1189236	-11.168705	1.2800193	80.995284
342	2	6	0.1189236	-10.78814	1.3729862	82.744231
343	2	6	0.086769108	-9.029169	2.5617422	80.483975
344	2	6	0.086769108	-8.8008659	0.94238987	81.227059
345	2	6	0.079673078	-8.4294848	1.982821	83.477842
346	2	6	0.079673078	-8.7388696	3.6088954	82.786066
347	2	6	0.081549589	-6.761518	3.2841315	81.211049
348	2	6	0.081549589	-6.378074	3.4095435	82.959827
349	2	6	0.081549589	-6.5050803	0.79807003	81.314732
350	2	6	0.081549589	-6.2463154	0.88215307	83.100007
351	2	6	0.079673078	-4.460033	2.1939146	80.949043
352	2	6	0.079673078	-4.1859757	2.2567221	82.732739
353	2	6	0.077954788	-4.2575773	-0.32066738	81.013021
354	2	6	0.077954788	-4.017116	-0.24913983	82.792104
355	2	6	0.11452371	-1.945691	1.162109	82.448345
356	2	6	0.11452371	-1.834591	-0.48920999	81.756227
357	4	1	-0.15795371	-6.2365365	2.2362586	104.90338
358	4	2	0.025985074	-5.190488	1.7182499	104.1287
359	4	2	0.07651015	-5.4338645	0.23863587	103.82869
360	4	1	-0.49458456	-4.3207028	-0.31289447	103.15055
361	4	2	0.075981055	-4.5447768	-0.32542816	101.75658
362	4	2	0.12829657	-3.2747819	-0.79016813	101.04981
363	4	1	-0.49276355	-3.4820107	-0.85311107	99.665331
364	4	3	0.083974894	-2.4326104	-0.10124897	101.28662
365	4	3	0.083974894	-3.0038951	-1.8032643	101.4147
366	4	3	0.076913718	-4.8043645	0.69203304	101.38355
367	4	3	0.076913718	-5.3671947	-1.0334309	101.506
368	4	3	0.078218688	-5.5448907	-0.29907387	104.79457
369	4	3	0.078218688	-6.3994969	0.11005052	103.28368
370	4	3	0.081988532	-4.2416097	1.823746	104.69766
371	4	3	0.081988532	-5.0881161	2.2959133	103.18218
372	5	4	0.76196926	-3.448254	0.124842	99.314422
373	5	5	-0.55066991	-3.8317887	0.36431082	98.181372
374	5	2	-0.20814875	-2.9365472	1.2375241	100.18109
375	5	2	-0.11514046	-2.5206474	0.71499929	101.56462
376	5	2	-0.13581533	-2.0978465	1.84206	102.52086
377	5	2	-0.14115517	-0.6983063	2.3945991	102.1997
378	5	2	-0.14115517	-0.30790209	3.5903785	103.08714
379	5	2	-0.1384757	-0.21929562	3.2855766	104.59353
380	5	2	-0.096828338	0.833047	2.219152	104.9304
381	5	2	-0.25726095	1.0187544	2.0901532	106.44632
382	5	4	0.51772684	2.0334495	1.0384115	106.78291
383	5	5	-0.68093908	2.3027972	0.80355418	107.94997
384	5	6	0.11452371	1.3584717	3.0621982	106.86524
385	5	6	0.11452371	0.049503837	1.8187455	106.91845
386	5	6	0.077954788	0.50778292	1.236646	104.52667
387	5	6	0.077954788	1.8038821	2.4958939	104.46419
388	5	6	0.079673078	0.05106225	4.232785	105.11034
389	5	6	0.079673078	-1.2124318	2.9785357	104.98405
390	5	6	0.081549589	0.67672711	3.9776377	102.74318
391	5	6	0.081549589	-1.0467296	4.4067648	102.93391
392	5	6	0.081549589	0.059074512	1.587297	102.28504
393	5	6	0.081549589	-0.67504821	2.7473737	101.14808
394	5	6	0.079673078	-2.8484811	2.6619776	102.49685
395	5	6	0.079673078	-2.0904782	1.4182494	103.54754
396	5	6	0.086769108	-3.3891977	0.18792796	102.01904
397	5	6	0.086769108	-1.6952965	-0.022719905	101.46077
398	5	6	0.1178921	-3.7372889	1.9996218	100.29373
399	5	6	0.1178921	-2.0683407	1.7042726	99.670635
400	1	1	-0.15795371	-7.0041725	2.3734443	104.28802
401	1	2	0.025985074	-7.4681908	1.0984356	103.93753
402	1	2	0.076634605	-6.536604	0.45857082	102.90696
403	1	1	-0.49241215	-7.0702253	-0.77511075	102.4647
404	1	2	0.048762787	-6.4923223	-1.8491581	103.17671
405	1	2	0.070758719	-7.1915067	-3.1456916	102.7778
406	1	7	-0.68579072	-6.6087149	-4.2361831	103.43828
407	1	8	0.38288265	-6.9499656	-4.2190961	104.36994
408	1	3	0.077625629	-8.2775773	-3.0828187	103.0124
409	1	3	0.077625629	-7.0844424	-3.2965176	101.68218
410	1	3	0.079134505	-6.608524	-1.7099	104.27642
411	1	3	0.079134505	-5.4109111	-1.9389863	102.9266
412	1	3	0.078218688	-6.4710339	1.1357936	102.02907
413	1	3	0.078218688	-5.5020197	0.37826843	103.3207
414	1	3	0.081988532	-8.4831726	1.2001803	103.49837
415	1	3	0.081988532	-7.5490022	0.45531543	104.84215
416	2	4	0.51772689	2.5354033	0.47859237	106.00083
417	2	5	-0.68093908	2.1172911	-0.62450814	105.68535
418	2	2	-0.25726098	3.7266312	1.0692601	105.30387
419	2	2	-0.096828338	5.0031221	0.25427795	105.55282
420	2	2	-0.1384757	5.4594915	0.32518561	107.017
421	2	2	-0.14115517	6.7611155	-0.45839214	107.22653
422	2	2	-0.14115517	7.2092605	-0.39678133	108.6947
423	2	2	-0.13581533	8.5790303	-1.0536582	108.92487
424	2	2	-0.11260442	8.5253346	-2.5877857	108.81884
425	2	2	-0.21824672	9.8807691	-3.2378229	109.12761
426	2	4	0.82475418	10.237098	-3.1171337	110.57827
427	2	5	-0.55192411	11.101062	-2.2785625	110.94976
428	2	7	-0.66451139	9.5918278	-3.9140824	111.51786
429	2	8	0.39546033	9.8131131	-3.8382026	112.50342
430	2	6	0.1189236	9.8293536	-4.316854	108.86966
431	2	6	0.1189236	10.675143	-2.7811757	108.49734
432	2	6	0.086769108	7.7511902	-2.9919744	109.50825
433	2	6	0.086769108	8.2422074	-2.8755435	107.78432
434	2	6	0.079673078	9.3186392	-0.64942646	108.19922
435	2	6	0.079673078	8.9211619	-0.77352157	109.94421
436	2	6	0.081549589	6.446332	-0.87936093	109.34414
437	2	6	0.081549589	7.2863005	0.66912967	109.0012
438	2	6	0.081549589	6.5938861	-1.5149582	106.92934
439	2	6	0.081549589	7.555678	-0.027201704	106.57895
440	2	6	0.079673078	4.6691017	-0.099334879	107.67469
441	2	6	0.079673078	5.620726	1.388858	107.3001
442	2	6	0.077954788	4.8343422	-0.80554439	105.25763
443	2	6	0.077954788	5.8071917	0.662592	104.90236
444	2	6	0.11452371	3.8752544	2.1150789	105.64969
445	2	6	0.11452371	3.5210805	1.1011034	104.2128
446	4	1	-0.15795371	5.407008	27.64041	3.5447969
447	4	2	0.025985074	4.3968682	26.711423	3.2632333
448	4	2	0.07651015	4.93926	25.588863	2.3776983
449	4	1	-0.49458456	3.8915543	24.717591	1.9951062
450	4	2	0.075981055	3.8487192	23.589883	2.843621
451	4	2	0.12829657	2.6250632	22.747568	2.4949699
452	4	1	-0.49276355	2.5804698	21.597498	3.2943741
453	4	3	0.083974894	1.6975612	23.349534	2.6265673
454	4	3	0.083974894	2.6863936	22.437871	1.430446
455	4	3	0.076913718	3.7740511	23.89566	3.9125866
456	4	3	0.076913718	4.7596108	22.965525	2.6991127
457	4	3	0.078218688	5.3575557	26.044407	1.4547124
458	4	3	0.078218688	5.788007	25.072767	2.8869051
459	4	3	0.081988532	3.5742222	27.232973	2.7280266
460	4	3	0.081988532	3.9804955	26.295209	4.2084774
461	5	4	0.76196926	2.240787	21.898028	4.2297705
462	5	5	-0.55066991	2.3355889	21.129726	5.1726226
463	5	2	-0.20814875	1.6394901	23.257771	4.4311905
464	5	2	-0.11514046	1.6306086	24.058788	3.1202985
465	5	2	-0.13581533	1.1269229	25.498895	3.3095674
466	5	2	-0.14115517	-0.40040084	25.572368	3.479993
467	5	2	-0.14115517	-0.9030978	26.998071	3.7707339
468	5	2	-0.1384757	-0.63191969	28.026875	2.6580837
469	5	2	-0.096828338	-1.3055963	27.664281	1.326598
470	5	2	-0.25726095	-1.1685471	28.805597	0.31282416
471	5	4	0.51772684	-1.8101194	28.451455	-0.9956208
472	5	5	-0.68093908	-1.7911737	29.24963	-1.9188241
473	5	6	0.11452371	-1.6546467	29.721587	0.71337837
474	5	6	0.11452371	-0.091980191	29.021567	0.13853215
475	5	6	0.077954788	-0.82782451	26.754288	0.90497996
476	5	6	0.077954788	-2.3838922	27.456246	1.5011265
477	5	6	0.079673078	-1.0277289	29.00659	3.005762
478	5	6	0.079673078	0.46102647	28.15602	2.5101361
479	5	6	0.081549589	-1.9991876	26.954085	3.9562749
480	5	6	0.081549589	-0.43142438	27.359839	4.7101393
481	5	6	0.081549589	-0.90458045	25.161502	2.5801942
482	5	6	0.081549589	-0.70533683	24.93767	4.3373496
483	5	6	0.079673078	1.6329561	25.966555	4.1822178
484	5	6	0.079673078	1.415712	26.07131	2.4025506
485	5	6	0.086769108	2.6715054	24.10846	2.729464
486	5	6	0.086769108	1.0094038	23.537486	2.3596618
487	5	6	0.1178921	2.232885	23.800686	5.1978663
488	5	6	0.1178921	0.60346029	23.127159	4.8077391
489	1	1	-0.15795371	5.9885542	27.22641	4.2355687
490	1	2	0.025985074	6.6806449	26.184759	3.603289
491	1	2	0.076634605	5.7619967	24.977438	3.4088389
492	1	1	-0.49241215	6.4929748	23.886557	2.8816176
493	1	2	0.048762787	6.3419897	23.819958	1.4790239
494	1	2	0.070758719	7.2540205	22.726186	0.93052935
495	1	7	-0.68579072	7.0928882	22.608404	-0.4569881
496	1	8	0.38288265	7.5862178	23.366435	-0.8653426
497	1	3	0.077625629	8.3146758	22.950192	1.1822611
498	1	3	0.077625629	6.9860426	21.756383	1.4019942
499	1	3	0.079134505	6.6222819	24.786139	0.9992381
500	1	3	0.079134505	5.289563	23.567428	1.2169152
501	1	3	0.078218688	5.3686913	24.675585	4.4027307
502	1	3	0.078218688	4.8750728	25.263803	2.7929211
503	1	3	0.081988532	7.5388937	25.890778	4.2439001
504	1	3	0.081988532	7.0849566	26.52837	2.6250527
505	2	4	0.51772689	-2.2939383	27.490672	-1.1364103
506	2	5	-0.68093908	-1.6815978	26.579603	-1.6713557
507	2	2	-0.25726098	-3.7024649	27.284601	-0.65971159
508	2	2	-0.096828338	-4.6679214	27.001501	-1.818741
509	2	2	-0.1384757	-4.8473812	28.220774	-2.7343223
510	2	2	-0.14115517	-5.8518427	27.924749	-3.8548345
511	2	2	-0.14115517	-6.0204369	29.141678	-4.7772306
512	2	2	-0.13581533	-7.1172609	28.937805	-5.8337092
513	2	2	-0.11260442	-6.7056673	27.938953	-6.9294092
514	2	2	-0.21824672	-7.775953	27.80227	-8.0206903
515	2	4	0.82475418	-7.8751436	29.040152	-8.8595935
516	2	5	-0.55192411	-8.8354344	29.839472	-8.6965885
517	2	7	-0.66451139	-6.889512	29.319263	-9.80032
518	2	8	0.39546033	-6.9356087	30.156584	-10.368488
519	2	6	0.1189236	-7.5075493	26.952395	-8.6833805
520	2	6	0.1189236	-8.761537	27.56927	-7.5612087
521	2	6	0.086769108	-5.7413299	28.250746	-7.3885369
522	2	6	0.086769108	-6.5573527	26.936016	-6.4762928
523	2	6	0.079673078	-8.0555053	28.596863	-5.3433475
524	2	6	0.079673078	-7.3226089	29.924112	-6.3023385
525	2	6	0.081549589	-5.0547616	29.374694	-5.2771182
526	2	6	0.081549589	-6.3009324	30.022788	-4.159973
527	2	6	0.081549589	-5.4861816	27.05652	-4.4422777
528	2	6	0.081549589	-6.834514	27.662678	-3.405066
529	2	6	0.079673078	-3.8684531	28.494942	-3.1860032
530	2	6	0.079673078	-5.2117216	29.081904	-2.1316192
531	2	6	0.077954788	-4.2996077	26.132935	-2.4093228
532	2	6	0.077954788	-5.6544971	26.723511	-1.3877701
533	2	6	0.11452371	-4.038737	28.18546	-0.10222813
534	2	6	0.11452371	-3.7176324	26.426693	0.045598066
535	4	1	-0.15795371	3.4969024	23.488879	31.126634
536	4	2	0.025985074	2.4368691	24.32445	30.751364
537	4	2	0.07651015	1.1014564	23.600839	30.929014
538	4	1	-0.49458456	0.04224198	24.400281	30.436941
539	4	2	0.075981055	-0.57202421	25.113343	31.489442
540	4	2	0.12829657	-1.6095516	26.069076	30.907637
541	4	1	-0.49276355	-2.2661407	26.760488	31.934544
542	4	3	0.083974894	-1.1198831	26.783769	30.208081
543	4	3	0.083974894	-2.3613989	25.48674	30.334492
544	4	3	0.076913718	0.17691589	25.709691	32.059722