Title

162 atoms
167 bonds
292 angles
469 dihedrals
126 impropers

12 atom types
18 bond types
10 angle types
34 dihedral types
3 improper types
-5.857999802 94.1420002 xlo xhi
-10.31999969 89.68000031 ylo yhi
-15.5909996 84.4090004 zlo zhi
0.0 0.0 0.0 xy xz yz

Masses

1	12.01078
2	15.99943
3	14.00672
4	1.007947
5	12.01078
6	1.007947
7	1.007947
8	15.99943
9	1.007947
10	12.01078
11	15.99943
12	1.007947


Pair Coeffs

1	0.086879315	3.4806469
2	0.2102061	3.0398122
3	0.16769152	3.206876
4	0.015611343	2.5725815
5	0.10884061	3.3795318
6	0.015779483	2.6445434
7	0.014090815	1.1034277
8	0.16846514	3.0251065
9	0.016409246	2.5832257
10	0.21	3.3996695
11	0.20947353	2.99716
12	1.2326e-05	0.53453923

Bond Coeffs

1 harmonic	582.698766451	1.225198386222
2 harmonic	492.76746816345	1.381897776683
3 harmonic	279.1350963404	1.454628925034
4 harmonic	390.03554688505	1.390160554689
5 harmonic	505.144496193	1.019481865027
6 harmonic	360.7852444772	1.387193227181
7 harmonic	397.2545789619	1.085358495916
8 harmonic	289.73813263395	1.498646816465
9 harmonic	370.04670688625	1.093899492634
10 harmonic	301.15400723785	1.345741232799
11 harmonic	366.7408841747	1.425895053732
12 harmonic	264.62148576755	1.52190126495
13 harmonic	425.69104206635	1.362945806494
14 harmonic	300.03137914615	1.451203938761
15 harmonic	382.5450169811	1.379244394267
16 harmonic	602.81384337	1.196112346392
17 harmonic	329.96998057905	1.427343958716
18 harmonic	543.5267831885	0.9716763312559


Angle Coeffs

1 harmonic	55.42182150775	117.3465570514
2 harmonic	63.44422595415	115.5071327674
3 harmonic	57.8982893754	126.8062420451
4 harmonic	34.066775159195	129.1835929926
5 harmonic	53.20531626545	116.5475862634
6 harmonic	48.776492647595	115.6030999533
7 harmonic	65.09061609600001	110.3538806181
8 harmonic	201.41175231035	127.4691416191
9 harmonic	55.07882548015	112.8714009681
10 harmonic	33.56981613361	180


Dihedral Coeffs

1 fourier 1	1.193093382682	2	180
2 fourier 1	1.809047390003	2	180
3 fourier 1	-0.04816277792592	1	0
4 fourier 1	3.101948770557	2	180
5 fourier 1	-0.4252153282372	1	0
6 fourier 1	2.348375642009	2	180
7 fourier 1	1.256156174911	1	0
8 fourier 1	0.9974165607242	2	180
9 fourier 1	3.661930099076	2	180
10 fourier 1	0.02664938770063	3	0
11 fourier 1	2.779853741805	2	180
12 fourier 1	0.1918272375143	3	0
13 fourier 1	0.9202179876409	1	180
14 fourier 1	0.0473758381877	3	0
15 fourier 1	0.4860993122944	2	180
16 fourier 1	0.8916986138746	1	0
17 fourier 1	1.163809172478	2	180
18 fourier 1	0.1679186987369	1	180
19 fourier 1	0.1155372516788	3	0
20 fourier 1	0.1115525666802	3	0
21 fourier 1	0.3432490222662	1	0
22 fourier 1	0.09223874044423	3	0
23 fourier 1	0.3159935921949	2	180
24 fourier 1	0.3247796806857	1	180
25 fourier 1	0.1040663847541	3	0
26 fourier 1	1.532232714475	2	180
27 fourier 1	1.163235555439	2	180
28 fourier 1	0.457973137376	1	0
29 fourier 1	0.1911926717192	3	0
30 fourier 1	1.550515418264	2	180
31 fourier 1	0	1	0
32 fourier 1	0.3445382149273	3	0
33 fourier 1	0.1364556373303	1	0
34 fourier 1	0.3026390167484	3	0


Improper Coeffs

1 0.3333333333333333	-1	2
2 0.3666666666666667	-1	2
3 3.5	-1	2


Atoms

1	1	1	0.56950998	-2.8110001	-2.158	1.946
2	1	2	-0.62127501	-3.0179999	-1.198	2.734
3	1	3	-0.52852798	-1.829	-2.0699999	0.90499997
4	1	1	0.227309	-1.138	-0.86500001	0.53500003
5	1	1	-0.414094	-1.747	0.333	0.55400002
6	1	4	0.212504	-2.7850001	0.428	0.84100002
7	1	1	-0.25486299	-1.017	1.548	0.14300001
8	1	4	0.219666	-1.529	2.5009999	0.192
9	1	1	-0.282083	0.25299999	1.469	-0.29300001
10	1	5	-0.144898	0.98400003	2.7160001	-0.70899999
11	1	6	0.095550999	1.506	2.5439999	-1.674
12	1	6	0.095550999	0.292	3.5739999	-0.847
13	1	6	0.095550999	1.73	2.984	0.068000004
14	1	1	0.17054901	0.93099999	0.141	-0.34299999
15	1	3	-0.469993	2.3080001	0.048999999	-0.75400001
16	1	1	0.81941301	2.829	-1	-1.58
17	1	2	-0.56132001	2.066	-1.844	-2.1210001
18	1	7	0.32443899	2.9590001	0.82599998	-0.505
19	1	1	-0.480625	0.26100001	-0.95700002	0.057999998
20	1	4	0.209447	0.75199997	-1.9220001	0.077
21	1	7	0.318997	-1.53	-2.9660001	0.458
22	1	8	-0.489057	3.849	-1.049	-1.76
23	1	5	0.124749	4.1750002	0.079000004	-2.526
24	1	5	-0.13337	3.6760001	-0.068999998	-3.971
25	1	5	-0.136043	4.1669998	-1.35	-4.6729999
26	1	5	-0.13644999	5.6960001	-1.482	-4.7849998
27	1	5	-0.137064	6.3340001	-0.35800001	-5.6160002
28	1	5	0.080086	7.8210001	-0.61400002	-5.862
29	1	8	-0.404039	8.5270004	-0.61000001	-4.6240001
30	1	1	0.218144	9.9069996	-0.81800002	-4.5079999
31	1	1	-0.34607899	10.459	-0.801	-3.2880001
32	1	4	0.220447	9.842	-0.63	-2.415
33	1	1	-0.1201	11.91	-1.0190001	-3.115
34	1	4	0.200187	12.315	-1.023	-2.1099999
35	1	1	-0.113812	12.702	-1.235	-4.1830001
36	1	1	-0.113812	14.16	-1.47	-4.027
37	1	1	-0.1201	14.892	-0.76499999	-3.142
38	1	4	0.200187	14.436	0.0020000001	-2.529
39	1	1	-0.34607899	16.344	-1.001	-3.01
40	1	4	0.220447	16.893999	-0.41299999	-2.2880001
41	1	1	0.218144	16.957001	-1.923	-3.7780001
42	1	8	-0.404039	18.333	-2.1860001	-3.697
43	1	5	0.080086	19.240999	-1.508	-2.8299999
44	1	5	-0.137064	20.662001	-2.0409999	-3.033
45	1	5	-0.136397	21.15	-1.975	-4.494
46	1	5	-0.134762	21.158001	-0.56699997	-5.1149998
47	1	5	-0.13932601	22.098	0.40400001	-4.382
48	1	5	0.042500999	22.198	1.748	-5.105
49	1	8	-0.14047199	22.829	1.584	-6.3449998
50	1	9	0.103665	21.181	2.177	-5.2459998
51	1	9	0.103665	22.792999	2.4489999	-4.4780002
52	1	6	0.106666	23.114	-0.041999999	-4.2969999
53	1	6	0.106666	21.712999	0.59399998	-3.358
54	1	6	0.100729	20.128	-0.153	-5.1420002
55	1	6	0.100729	21.493999	-0.66900003	-6.1700001
56	1	6	0.100539	22.179001	-2.3940001	-4.5409999
57	1	6	0.100539	20.507999	-2.6329999	-5.1199999
58	1	6	0.105926	21.362	-1.488	-2.3710001
59	1	6	0.105926	20.687	-3.1040001	-2.7079999
60	1	9	0.090650998	18.944	-1.684	-1.774
61	1	9	0.090650998	19.214001	-0.41499999	-3.0239999
62	1	1	-0.34607899	16.156	-2.698	-4.7490001
63	1	4	0.220448	16.639999	-3.447	-5.3639998
64	1	1	-0.1201	14.84	-2.487	-4.869
65	1	4	0.200187	14.273	-3.079	-5.5760002
66	1	1	-0.1201	12.09	-1.2539999	-5.5359998
67	1	4	0.200187	12.707	-1.409	-6.4120002
68	1	1	-0.34607899	10.775	-1.057	-5.6919999
69	1	4	0.220448	10.357	-1.069	-6.6890001
70	1	9	0.090650998	8.2189999	0.191	-6.5170002
71	1	9	0.090650998	7.9549999	-1.5930001	-6.3730001
72	1	6	0.105926	6.2280002	0.61400002	-5.0890002
73	1	6	0.105926	5.8189998	-0.28400001	-6.599
74	1	6	0.100539	5.914	-2.457	-5.2740002
75	1	6	0.100539	6.1529999	-1.5190001	-3.773
76	1	6	0.100539	3.7739999	-2.2349999	-4.1269999
77	1	6	0.100539	3.7279999	-1.383	-5.6939998
78	1	6	0.105326	2.5650001	-0.085000001	-3.9579999
79	1	6	0.105326	3.974	0.82599998	-4.5560002
80	1	9	0.10324	5.2750001	0.222	-2.5139999
81	1	9	0.10324	3.7249999	0.991	-2.073
82	1	1	0.56950998	-3.3599999	-3.0810001	2.0829999
83	1	2	-0.62127501	-4.618	-3.0610001	2.03
84	1	3	-0.529324	-2.645	-4.29	2.3699999
85	1	1	0.217842	-3.2449999	-5.5960002	2.437
86	1	1	-0.45609	-4.2399998	-5.9590001	1.609
87	1	4	0.212504	-4.618	-5.2789998	0.85799998
88	1	1	-0.225823	-4.8130002	-7.316	1.681
89	1	4	0.20437001	-5.6170001	-7.5760002	1.003
90	1	1	-0.17677601	-4.3410001	-8.2110004	2.566
91	1	5	-0.142059	-4.915	-9.6000004	2.6199999
92	1	6	0.087706998	-5.1389999	-9.8739996	3.6719999
93	1	6	0.087706998	-5.8579998	-9.6809998	2.0380001
94	1	6	0.087706998	-4.178	-10.32	2.2060001
95	1	1	0.38573799	-3.211	-7.8369999	3.461
96	1	3	-0.36961699	-2.6960001	-8.8219995	4.3759999
97	1	10	0.61720902	-1.734	-8.6199999	5.1869998
98	1	2	-0.33012301	-0.80000001	-8.4239998	5.974
99	1	1	-0.41798899	-2.697	-6.5900002	3.388
100	1	4	0.206296	-1.876	-6.2919998	4.027
101	1	7	0.318997	-1.642	-4.1939998	2.6459999
102	1	8	-0.14047199	22.851999	2.484	-6.763
103	1	5	0.042500999	21.596001	2.6830001	-7.3540001
104	1	5	-0.13932601	21.443001	1.841	-8.6280003
105	1	5	-0.134762	22.561001	2.0650001	-9.6639996
106	1	5	-0.136397	22.687	3.51	-10.179
107	1	5	-0.137064	21.426001	3.9960001	-10.911
108	1	5	0.080086	21.646	5.3590002	-11.566
109	1	8	-0.404039	21.900999	6.3439999	-10.568
110	1	1	0.218144	22.146	7.6950002	-10.844
111	1	1	-0.34607899	22.382	8.5270004	-9.8210001
112	1	4	0.220447	22.384001	8.1520004	-8.8050003
113	1	1	-0.1201	22.648001	9.96	-10.062
114	1	4	0.200187	22.861	10.595	-9.2119999
115	1	1	-0.113812	22.655001	10.453	-11.316
116	1	1	-0.113812	22.934	11.888	-11.579
117	1	1	-0.1201	22.431999	12.855	-10.787
118	1	4	0.200187	21.799	12.611	-9.9429998
119	1	1	-0.34607899	22.707001	14.279	-11.071
120	1	4	0.220447	22.285	15.023	-10.411
121	1	1	0.218144	23.462999	14.627	-12.131
122	1	8	-0.404039	23.754	15.962	-12.45
123	1	5	0.080086	23.277	17.094999	-11.724
124	1	5	-0.137064	23.775999	18.388	-12.376
125	1	5	-0.136397	23.422001	18.509001	-13.871
126	1	5	-0.130667	21.917	18.454	-14.19
127	1	5	-0.16125099	21.127001	19.603001	-13.544
128	1	5	0.096124999	19.665001	19.608	-13.996
129	1	11	-0.66998303	19.583	19.907	-15.362
130	1	12	0.40017799	18.618	19.884001	-15.591
131	1	9	0.096978001	19.204	18.615999	-13.792
132	1	9	0.096978001	19.113001	20.379999	-13.415
133	1	6	0.109028	21.593	20.579	-13.803
134	1	6	0.109028	21.143	19.49	-12.439
135	1	6	0.100729	21.493	17.476	-13.878
136	1	6	0.100729	21.808001	18.516001	-15.295
137	1	6	0.100539	23.834999	19.466999	-14.254
138	1	6	0.100539	23.931	17.695	-14.431
139	1	6	0.105926	23.377001	19.26	-11.816
140	1	6	0.105926	24.882	18.424	-12.279
141	1	9	0.090650998	23.659	17.052999	-10.681
142	1	9	0.090650998	22.167	17.09	-11.69
143	1	1	-0.34607899	24.016001	13.568	-13
144	1	4	0.220448	24.629999	13.84	-13.85
145	1	1	-0.1201	23.768	12.278	-12.744
146	1	4	0.200187	24.198	11.52	-13.387
147	1	1	-0.1201	22.391001	9.5299997	-12.45
148	1	4	0.200187	22.374001	9.9049997	-13.466
149	1	1	-0.34607899	22.150999	8.2320004	-12.23
150	1	4	0.220448	21.955	7.5840001	-13.074
151	1	9	0.090650998	20.73	5.6360002	-12.132
152	1	9	0.090650998	22.502001	5.303	-12.273
153	1	6	0.105926	20.579	4.0809999	-10.197
154	1	6	0.105926	21.148001	3.263	-11.699
155	1	6	0.100539	23.546	3.5409999	-10.885
156	1	6	0.100539	22.933001	4.1950002	-9.3409996
157	1	6	0.100729	23.534	1.762	-9.2189999
158	1	6	0.100729	22.381001	1.39	-10.528
159	1	6	0.106666	21.447001	0.76700002	-8.3409996
160	1	6	0.106666	20.451	2.0420001	-9.085
161	1	9	0.103665	21.472	3.76	-7.5900002
162	1	9	0.103665	20.789	2.415	-6.6350002

Bonds

1	1	1	2
2	2	1	3
3	3	1	82
4	4	3	4
5	5	3	21
6	6	4	5
7	6	4	19
8	7	5	6
9	6	5	7
10	7	7	8
11	6	7	9
12	8	9	10
13	6	9	14
14	9	10	11
15	9	10	12
16	9	10	13
17	4	14	15
18	6	14	19
19	2	15	16
20	5	15	18
21	1	16	17
22	10	16	22
23	7	19	20
24	11	22	23
25	12	23	24
26	9	23	80
27	9	23	81
28	12	24	25
29	9	24	78
30	9	24	79
31	12	25	26
32	9	25	76
33	9	25	77
34	12	26	27
35	9	26	74
36	9	26	75
37	12	27	28
38	9	27	72
39	9	27	73
40	11	28	29
41	9	28	70
42	9	28	71
43	13	29	30
44	6	30	31
45	6	30	68
46	7	31	32
47	6	31	33
48	7	33	34
49	6	33	35
50	3	35	36
51	6	35	66
52	6	36	37
53	6	36	64
54	7	37	38
55	6	37	39
56	7	39	40
57	6	39	41
58	13	41	42
59	6	41	62
60	11	42	43
61	12	43	44
62	9	43	60
63	9	43	61
64	12	44	45
65	9	44	58
66	9	44	59
67	12	45	46
68	9	45	56
69	9	45	57
70	12	46	47
71	9	46	54
72	9	46	55
73	12	47	48
74	9	47	52
75	9	47	53
76	11	48	49
77	9	48	50
78	9	48	51
79	14	49	102
80	7	62	63
81	6	62	64
82	7	64	65
83	7	66	67
84	6	66	68
85	7	68	69
86	1	82	83
87	2	82	84
88	4	84	85
89	5	84	101
90	6	85	86
91	6	85	99
92	7	86	87
93	6	86	88
94	7	88	89
95	6	88	90
96	8	90	91
97	6	90	95
98	9	91	92
99	9	91	93
100	9	91	94
101	15	95	96
102	6	95	99
103	16	96	97
104	1	97	98
105	7	99	100
106	11	102	103
107	12	103	104
108	9	103	161
109	9	103	162
110	12	104	105
111	9	104	159
112	9	104	160
113	12	105	106
114	9	105	157
115	9	105	158
116	12	106	107
117	9	106	155
118	9	106	156
119	12	107	108
120	9	107	153
121	9	107	154
122	11	108	109
123	9	108	151
124	9	108	152
125	13	109	110
126	6	110	111
127	6	110	149
128	7	111	112
129	6	111	113
130	7	113	114
131	6	113	115
132	3	115	116
133	6	115	147
134	6	116	117
135	6	116	145
136	7	117	118
137	6	117	119
138	7	119	120
139	6	119	121
140	13	121	122
141	6	121	143
142	11	122	123
143	12	123	124
144	9	123	141
145	9	123	142
146	12	124	125
147	9	124	139
148	9	124	140
149	12	125	126
150	9	125	137
151	9	125	138
152	12	126	127
153	9	126	135
154	9	126	136
155	12	127	128
156	9	127	133
157	9	127	134
158	17	128	129
159	9	128	131
160	9	128	132
161	18	129	130
162	7	143	144
163	6	143	145
164	7	145	146
165	7	147	148
166	6	147	149
167	7	149	150

Angles

1	5	27	26	75
2	5	25	26	27
3	3	36	64	62
4	3	37	36	64
5	4	111	113	114
6	3	31	30	68
7	4	115	147	148
8	3	3	4	19
9	6	159	104	160
10	7	16	22	23
11	5	102	103	104
12	3	116	117	119
13	3	5	7	9
14	5	122	123	142
15	5	44	45	46
16	9	95	96	97
17	5	126	125	138
18	6	93	91	94
19	5	122	123	141
20	4	95	99	100
21	5	9	10	11
22	3	85	86	88
23	5	27	28	29
24	5	124	123	141
25	3	85	99	95
26	3	36	35	66
27	6	72	27	73
28	5	125	126	127
29	5	107	108	151
30	2	1	3	21
31	5	105	104	160
32	5	107	106	155
33	3	33	35	66
34	3	35	36	64
35	5	45	46	54
36	6	137	125	138
37	3	111	113	115
38	6	133	127	134
39	5	43	44	45
40	5	90	91	94
41	3	29	30	68
42	5	104	103	162
43	4	110	111	112
44	4	116	145	146
45	5	125	126	135
46	3	84	85	99
47	5	124	125	138
48	4	66	68	69
49	6	70	28	71
50	5	103	104	159
51	4	117	119	120
52	4	36	37	38
53	3	110	149	147
54	3	3	1	82
55	5	9	10	12
56	5	22	23	24
57	3	42	41	62
58	4	67	66	68
59	5	106	107	153
60	7	108	109	110
61	4	121	143	144
62	3	96	95	99
63	4	86	88	89
64	5	107	106	156
65	5	25	24	78
66	3	2	1	3
67	3	7	9	10
68	5	105	106	107
69	3	110	111	113
70	5	127	128	131
71	3	30	31	33
72	3	5	4	19
73	2	14	15	18
74	6	155	106	156
75	5	129	128	132
76	6	161	103	162
77	3	2	1	82
78	3	1	82	84
79	6	50	48	51
80	4	118	117	119
81	3	36	37	39
82	5	47	48	49
83	5	126	127	133
84	5	106	107	154
85	5	46	47	52
86	6	56	45	57
87	6	139	124	140
88	5	46	45	56
89	6	78	24	79
90	3	121	143	145
91	5	24	23	81
92	5	48	47	52
93	3	31	33	35
94	4	35	66	67
95	3	116	145	143
96	5	25	24	79
97	5	43	44	58
98	5	42	43	44
99	5	23	24	78
100	5	45	46	47
101	5	47	46	54
102	3	109	110	149
103	5	26	27	72
104	5	46	47	48
105	5	25	26	75
106	3	119	121	143
107	3	35	36	37
108	5	42	43	60
109	7	121	122	123
110	6	153	107	154
111	8	17	16	22
112	5	127	126	135
113	3	7	9	14
114	4	89	88	90
115	5	47	48	50
116	6	92	91	93
117	5	109	108	151
118	3	115	147	149
119	5	27	28	70
120	5	46	45	57
121	4	85	99	100
122	4	144	143	145
123	4	14	19	20
124	3	35	66	68
125	4	62	64	65
126	5	22	23	80
127	5	44	45	56
128	4	120	119	121
129	5	106	105	157
130	5	104	105	106
131	7	41	42	43
132	5	26	27	73
133	4	8	7	9
134	3	15	16	17
135	6	76	25	77
136	5	124	123	142
137	4	30	68	69
138	3	3	4	5
139	5	107	108	152
140	5	45	46	55
141	3	88	90	95
142	4	41	62	63
143	5	109	108	152
144	5	123	124	139
145	5	105	106	155
146	6	157	105	158
147	5	103	104	105
148	5	106	107	108
149	5	122	123	124
150	5	125	126	136
151	5	22	23	81
152	3	33	35	36
153	6	52	47	53
154	5	107	108	109
155	5	104	105	157
156	3	117	119	121
157	4	37	39	40
158	3	88	90	91
159	6	80	23	81
160	7	49	102	103
161	5	102	103	161
162	5	103	104	160
163	5	9	10	13
164	3	115	116	117
165	4	32	31	33
166	4	38	37	39
167	3	115	116	145
168	3	122	121	143
169	3	86	88	90
170	2	85	84	101
171	2	4	3	21
172	5	28	27	72
173	3	90	95	99
174	3	41	62	64
175	5	26	25	76
176	3	10	9	14
177	5	105	106	156
178	6	11	10	12
179	5	49	48	50
180	5	45	44	58
181	5	127	128	132
182	7	28	29	30
183	5	29	28	70
184	3	30	68	66
185	4	30	31	32
186	4	34	33	35
187	5	104	105	158
188	3	116	115	147
189	5	44	43	60
190	3	37	39	41
191	4	4	19	20
192	5	102	103	162
193	5	125	124	139
194	5	126	127	134
195	5	46	47	53
196	5	90	91	92
197	7	128	129	130
198	6	141	123	142
199	3	86	85	99
200	4	147	149	150
201	5	48	47	53
202	4	116	117	118
203	5	28	27	73
204	5	24	25	76
205	5	43	44	59
206	4	87	86	88
207	3	113	115	116
208	5	23	24	79
209	5	108	107	153
210	6	11	10	13
211	1	1	3	4
212	3	109	110	111
213	5	47	46	55
214	4	85	86	87
215	6	60	43	61
216	4	63	62	64
217	5	45	44	59
218	3	117	116	145
219	5	42	43	61
220	7	48	49	102
221	3	90	95	96
222	5	105	104	159
223	3	1	82	83
224	5	44	43	61
225	3	83	82	84
226	5	127	126	136
227	6	92	91	94
228	5	47	48	51
229	4	110	149	150
230	5	125	124	140
231	3	15	16	22
232	5	27	28	71
233	5	123	124	125
234	5	90	91	93
235	4	148	147	149
236	3	9	14	19
237	3	29	30	31
238	5	104	103	161
239	5	127	128	129
240	4	4	5	6
241	1	14	15	16
242	5	44	45	57
243	5	24	25	77
244	5	106	105	158
245	5	124	125	137
246	6	58	44	59
247	5	108	107	154
248	4	114	113	115
249	10	96	97	98
250	3	113	115	147
251	6	54	46	55
252	3	9	14	15
253	4	40	39	41
254	4	36	64	65
255	5	128	127	133
256	3	119	121	122
257	5	123	124	140
258	4	112	111	113
259	1	82	84	85
260	6	135	126	136
261	2	16	15	18
262	5	24	25	26
263	6	131	128	132
264	3	4	5	7
265	2	82	84	101
266	6	12	10	13
267	5	129	128	131
268	5	27	26	74
269	6	151	108	152
270	3	91	90	95
271	3	39	41	62
272	5	124	125	126
273	4	143	145	146
274	3	111	110	149
275	5	24	23	80
276	5	23	24	25
277	3	15	14	19
278	5	26	27	28
279	4	31	33	34
280	4	5	7	8
281	3	39	41	42
282	6	74	26	75
283	5	128	127	134
284	5	26	25	77
285	4	6	5	7
286	3	84	85	86
287	5	126	125	137
288	3	4	19	14
289	5	126	127	128
290	5	49	48	51
291	5	25	26	74
292	5	29	28	71

Dihedrals

1	20	29	28	27	72
1	21	29	28	27	72
2	9	29	30	31	33
3	26	123	122	121	143
4	2	14	15	16	17
4	3	14	15	16	17
5	9	118	117	119	121
6	9	114	113	115	147
7	9	36	35	66	67
8	9	38	37	36	64
9	1	82	84	85	86
10	20	22	23	24	78
10	21	22	23	24	78
11	22	25	26	27	28
11	23	25	26	27	28
11	24	25	26	27	28
12	29	137	125	124	140
13	25	125	124	123	142
14	9	85	86	88	90
15	25	46	47	48	50
16	29	158	105	104	159
17	9	4	19	14	15
18	9	113	115	147	148
19	30	90	95	96	97
20	9	40	39	41	62
21	29	57	45	44	58
22	25	108	107	106	156
23	9	117	116	145	143
24	10	13	10	9	14
25	29	152	108	107	154
26	25	23	24	25	76
27	9	40	39	41	42
28	9	6	5	7	8
29	8	3	1	82	83
30	10	92	91	90	95
31	29	59	44	43	60
32	25	25	24	23	81
33	20	49	48	47	53
33	21	49	48	47	53
34	9	117	119	121	143
35	25	126	125	124	140
36	9	3	4	19	14
37	29	131	128	127	133
38	9	42	41	62	64
39	10	12	10	9	14
40	19	126	127	128	129
41	1	82	84	85	99
42	10	11	10	9	14
43	20	109	108	107	153
43	21	109	108	107	153
44	9	111	110	149	150
45	2	18	15	16	22
45	3	18	15	16	22
46	9	116	145	143	144
47	9	36	64	62	41
48	27	33	35	36	64
49	2	4	3	1	82
49	3	4	3	1	82
50	25	127	126	125	137
51	9	29	30	31	32
52	29	79	24	23	81
53	9	96	95	99	100
54	9	39	41	62	64
55	9	122	121	143	145
56	25	125	126	127	133
57	25	26	25	24	78
58	27	113	115	116	117
59	9	30	31	33	35
60	22	43	44	45	46
60	23	43	44	45	46
60	24	43	44	45	46
61	25	24	25	26	75
62	29	159	104	103	161
63	6	83	82	84	101
63	7	83	82	84	101
64	25	45	46	47	53
65	9	6	5	4	19
66	29	136	126	125	138
67	9	9	14	19	20
68	25	106	107	108	151
69	9	35	36	64	65
70	29	136	126	125	137
71	27	33	35	36	37
72	25	123	124	125	138
73	29	153	107	106	156
74	34	130	129	128	131
75	29	76	25	24	79
76	9	3	4	19	20
77	29	51	48	47	53
78	9	119	121	143	144
79	26	108	109	110	111
80	9	117	119	121	122
81	9	115	116	117	118
82	9	88	90	95	99
83	1	18	15	14	19
84	25	105	106	107	154
85	25	125	124	123	141
86	2	1	82	84	101
86	3	1	82	84	101
87	9	10	9	14	15
88	22	103	104	105	106
88	23	103	104	105	106
88	24	103	104	105	106
89	29	152	108	107	153
90	25	106	105	104	159
91	25	48	47	46	54
92	20	49	48	47	52
92	21	49	48	47	52
93	29	55	46	45	57
94	9	42	41	62	63
95	26	43	42	41	62
96	9	7	9	14	15
97	9	119	117	116	145
98	25	103	104	105	157
99	12	16	22	23	24
99	13	16	22	23	24
100	9	33	35	66	68
101	9	35	36	37	38
102	1	5	4	3	21
103	29	132	128	127	134
104	9	110	111	113	115
105	14	51	48	49	102
106	9	32	31	33	35
107	29	140	124	123	141
108	14	50	48	49	102
109	29	79	24	23	80
110	9	122	121	143	144
111	9	117	116	145	146
112	29	75	26	25	77
113	14	121	122	123	142
114	29	70	28	27	73
115	25	43	44	45	56
116	29	157	105	104	159
117	25	24	25	26	74
118	9	29	30	68	66
119	9	7	9	14	19
120	22	24	25	26	27
120	23	24	25	26	27
120	24	24	25	26	27
121	25	126	127	128	132
122	25	45	46	47	52
123	9	63	62	64	65
124	9	85	99	95	96
125	8	2	1	82	84
126	20	42	43	44	58
126	21	42	43	44	58
127	25	104	105	106	156
128	9	114	113	115	116
129	14	49	102	103	162
130	25	123	124	125	137
131	29	76	25	24	78
132	9	5	4	19	14
133	29	51	48	47	52
134	9	84	85	86	87
135	20	102	103	104	160
135	21	102	103	104	160
136	14	49	102	103	104
137	25	44	45	46	55
138	9	7	5	4	19
139	25	45	44	43	60
140	9	34	33	35	36
141	9	39	37	36	64
142	30	97	96	95	99
143	29	138	125	124	140
144	10	7	9	10	13
145	9	112	111	113	115
146	1	9	14	15	18
147	25	105	106	107	153
148	25	26	27	28	70
149	9	116	117	119	121
150	25	107	106	105	158
151	9	90	95	99	100
152	10	93	91	90	95
153	9	4	5	7	9
154	14	16	22	23	81
155	9	36	37	39	41
156	9	33	35	66	67
157	29	50	48	47	52
158	9	38	37	39	40
159	29	132	128	127	133
160	9	5	7	9	10
161	27	145	116	115	147
162	9	110	111	113	114
163	9	32	31	33	34
164	25	105	104	103	161
165	9	86	85	99	95
166	29	78	24	23	81
167	14	110	109	108	151
168	29	75	26	25	76
169	9	84	85	99	95
170	25	27	26	25	76
171	29	52	47	46	55
172	25	46	45	44	59
173	9	32	31	30	68
174	11	15	16	22	23
175	9	31	30	68	66
176	25	126	127	128	131
177	29	58	44	43	61
178	29	160	104	103	161
179	25	104	105	106	155
180	14	49	102	103	161
181	29	154	107	106	155
182	1	86	85	84	101
183	9	87	86	88	90
184	9	109	110	111	113
185	19	26	27	28	29
186	9	67	66	68	69
187	14	41	42	43	61
188	20	129	128	127	134
188	21	129	128	127	134
189	9	29	30	68	69
190	9	118	117	119	120
191	29	156	106	105	158
192	20	102	103	104	159
192	21	102	103	104	159
193	29	54	46	45	57
194	9	3	4	5	7
195	25	44	45	46	54
196	9	34	33	35	66
197	29	77	25	24	79
198	14	47	48	49	102
199	9	35	66	68	69
200	29	133	127	126	136
201	9	30	68	66	35
202	25	128	127	126	136
203	29	71	28	27	73
204	29	137	125	124	139
205	9	85	86	88	89
206	19	46	47	48	49
207	9	116	117	119	120
208	22	125	126	127	128
208	23	125	126	127	128
208	24	125	126	127	128
209	25	108	107	106	155
210	25	28	27	26	75
211	9	91	90	95	99
212	9	115	147	149	150
213	25	25	24	23	80
214	9	4	5	7	8
215	9	113	111	110	149
216	25	126	125	124	139
217	9	36	35	66	68
218	9	115	116	145	143
219	22	44	45	46	47
219	23	44	45	46	47
219	24	44	45	46	47
220	2	21	3	1	82
220	3	21	3	1	82
221	25	124	125	126	136
222	9	36	37	39	40
223	22	45	46	47	48
223	23	45	46	47	48
223	24	45	46	47	48
224	9	33	31	30	68
225	29	155	106	105	158
226	29	158	105	104	160
227	19	102	103	104	105
228	9	113	115	147	149
229	9	120	119	121	143
230	9	39	41	62	63
231	29	57	45	44	59
232	29	78	24	23	80
233	29	59	44	43	61
234	10	88	90	91	94
235	2	14	15	16	22
235	3	14	15	16	22
236	9	30	31	33	34
237	29	131	128	127	134
238	9	109	110	149	150
239	22	123	124	125	126
239	23	123	124	125	126
239	24	123	124	125	126
240	12	121	122	123	124
240	13	121	122	123	124
241	29	58	44	43	60
242	20	109	108	107	154
242	21	109	108	107	154
243	9	37	36	64	65
244	14	30	29	28	71
245	9	112	111	110	149
246	1	19	4	3	21
247	25	127	126	125	138
248	9	87	86	88	89
249	9	109	110	111	112
250	9	91	90	95	96
251	27	117	116	115	147
252	9	111	113	115	147
253	31	95	96	97	98
254	29	153	107	106	155
255	22	104	105	106	107
255	23	104	105	106	107
255	24	104	105	106	107
256	26	119	121	122	123
257	9	144	143	145	146
258	29	159	104	103	162
259	9	31	30	68	69
260	29	54	46	45	56
261	26	28	29	30	68
262	20	122	123	124	140
262	21	122	123	124	140
263	29	133	127	126	135
264	25	128	127	126	135
265	1	1	3	4	19
266	25	25	26	27	73
267	9	110	149	147	115
268	29	74	26	25	77
269	29	53	47	46	55
270	29	71	28	27	72
271	9	87	86	85	99
272	9	116	115	147	149
273	6	2	1	3	21
273	7	2	1	3	21
274	9	84	85	99	100
275	34	130	129	128	132
276	9	120	119	121	122
277	29	55	46	45	56
278	9	119	121	143	145
279	9	121	143	145	146
280	12	41	42	43	44
280	13	41	42	43	44
281	9	109	110	149	147
282	9	30	68	66	67
283	9	89	88	90	95
284	10	94	91	90	95
285	25	124	125	126	135
286	9	8	7	9	14
287	9	37	36	64	62
288	9	115	116	117	119
289	9	148	147	149	150
290	29	155	106	105	157
291	9	88	86	85	99
292	9	31	33	35	36
293	8	2	1	82	83
294	25	106	105	104	160
295	14	121	122	123	141
296	1	16	15	14	19
297	25	48	47	46	55
298	29	70	28	27	72
299	9	5	4	19	20
300	10	88	90	91	93
301	9	110	149	147	148
302	15	17	16	15	18
302	16	17	16	15	18
303	22	105	106	107	108
303	23	105	106	107	108
303	24	105	106	107	108
304	9	115	116	145	146
305	12	27	28	29	30
305	13	27	28	29	30
306	25	103	104	105	158
307	19	106	107	108	109
308	29	73	27	26	75
309	9	35	36	37	39
310	25	47	46	45	57
311	14	30	29	28	70
312	9	36	64	62	63
313	1	1	3	4	5
314	9	15	14	19	20
315	29	140	124	123	142
316	29	139	124	123	142
317	9	41	62	64	65
318	25	43	44	45	57
319	27	37	36	35	66
320	12	107	108	109	110
320	13	107	108	109	110
321	29	157	105	104	160
322	29	135	126	125	138
323	29	72	27	26	75
324	29	151	108	107	154
325	26	28	29	30	31
326	26	39	41	42	43
327	20	122	123	124	139
327	21	122	123	124	139
328	20	42	43	44	59
328	21	42	43	44	59
329	25	25	26	27	72
330	29	56	45	44	59
331	29	74	26	25	76
332	29	53	47	46	54
333	29	138	125	124	139
334	10	7	9	10	12
335	9	112	111	113	114
336	9	116	115	147	148
337	26	108	109	110	149
338	29	134	127	126	136
339	9	116	145	143	121
340	25	107	106	105	157
341	20	29	28	27	73
341	21	29	28	27	73
342	22	23	24	25	26
342	23	23	24	25	26
342	24	23	24	25	26
343	9	84	85	86	88
344	17	17	16	22	23
344	18	17	16	22	23
345	14	16	22	23	80
346	9	86	88	90	91
347	32	127	128	129	130
347	33	127	128	129	130
348	4	83	82	84	85
348	5	83	82	84	85
349	9	31	33	35	66
350	9	111	110	149	147
351	25	45	44	43	61
352	9	85	99	95	90
353	9	5	7	9	14
354	20	22	23	24	79
354	21	22	23	24	79
355	22	124	125	126	127
355	23	124	125	126	127
355	24	124	125	126	127
356	19	122	123	124	125
357	25	46	47	48	51
358	25	26	27	28	71
359	25	23	24	25	77
360	4	2	1	3	4
360	5	2	1	3	4
361	29	52	47	46	54
362	9	6	5	7	9
363	25	46	45	44	58
364	10	88	90	91	92
365	9	86	88	90	95
366	1	99	85	84	101
367	9	111	113	115	116
368	29	73	27	26	74
369	9	8	7	9	10
370	25	47	46	45	56
371	9	38	37	39	41
372	29	50	48	47	53
373	27	113	115	116	145
374	19	42	43	44	45
375	19	22	23	24	25
376	9	10	9	14	19
377	29	139	124	123	141
378	25	105	104	103	162
379	8	3	1	82	84
380	25	125	126	127	134
381	27	64	36	35	66
382	2	1	82	84	85
382	3	1	82	84	85
383	25	26	25	24	79
384	14	110	109	108	152
385	9	35	36	64	62
386	28	48	49	102	103
387	25	27	26	25	77
388	14	41	42	43	60
389	29	135	126	125	137
390	29	72	27	26	74
391	20	129	128	127	133
391	21	129	128	127	133
392	9	37	39	41	62
393	29	156	106	105	157
394	9	3	4	5	6
395	29	151	108	107	153
396	9	89	88	90	91
397	9	37	39	41	42
398	29	77	25	24	78
399	29	160	104	103	162
400	29	56	45	44	58
401	9	4	19	14	9
402	10	7	9	10	11
403	9	88	90	95	96
404	1	9	14	15	16
405	9	118	117	116	145
406	29	154	107	106	156
407	9	86	85	99	100
408	29	134	127	126	135
409	25	106	107	108	152
410	25	28	27	26	74

Impropers

20	2	99	85	95	100
21	2	66	68	35	67
23	1	84	101	82	85
24	2	143	144	145	121
25	1	3	1	4	21
49	3	16	17	22	15
51	2	68	30	66	69
69	2	7	9	5	8
71	2	111	112	113	110
72	2	121	143	119	122
83	2	90	88	91	95
87	2	149	110	147	150
90	2	119	120	121	117
94	3	16	15	17	22
101	2	35	36	66	33
102	2	64	36	62	65
103	2	14	15	19	9
105	1	84	85	101	82
131	2	116	115	117	145
140	2	1	3	82	2
158	2	9	7	10	14
160	2	14	9	15	19
172	2	110	111	149	109
174	2	143	145	121	144
175	2	116	145	115	117
185	2	99	100	85	95
188	2	116	117	145	115
192	2	147	149	115	148
200	2	31	33	30	32
210	2	37	39	36	38
219	2	82	84	1	83
223	2	30	31	68	29
224	2	5	6	7	4
226	2	41	39	42	62
227	2	145	143	146	116
238	2	119	117	120	121
239	2	82	83	84	1
240	2	115	113	116	147
247	1	15	18	14	16
252	2	86	85	87	88
259	2	36	64	35	37
262	2	5	7	4	6
273	2	36	35	37	64
279	2	19	14	20	4
281	2	7	5	8	9
283	2	37	38	39	36
285	2	66	35	67	68
293	2	4	19	3	5
306	2	149	150	110	147
311	2	115	116	147	113
316	2	88	89	90	86
318	2	62	64	41	63
320	2	7	8	9	5
322	2	37	36	38	39
328	2	111	113	110	112
335	2	30	29	31	68
339	2	95	90	96	99
357	2	117	118	119	116
367	1	84	82	85	101
379	2	145	116	143	146
395	2	90	95	88	91
400	2	35	33	36	66
413	2	39	40	41	37
425	2	41	42	62	39
433	2	85	99	84	86
442	2	115	147	113	116
443	2	86	88	85	87
454	2	30	68	29	31
458	2	64	62	65	36
460	2	68	69	30	66
462	2	82	1	83	84
469	2	9	14	7	10
470	2	14	19	9	15
471	1	15	14	16	18
483	2	143	121	144	145
500	2	62	63	64	41
501	1	3	21	1	4
503	2	1	2	3	82
508	2	62	41	63	64
510	2	111	110	112	113
513	2	31	30	32	33
517	1	15	16	18	14
522	2	1	82	2	3
534	2	66	67	68	35
549	2	31	32	33	30
552	2	35	66	33	36
554	2	19	4	14	20
557	2	5	4	6	7
560	2	117	116	118	119
566	2	88	90	86	89
570	2	147	115	148	149
573	2	4	5	19	3
575	2	121	122	143	119
581	2	4	3	5	19
585	2	113	115	111	114
587	2	149	147	150	110
594	2	64	65	36	62
601	2	121	119	122	143
614	3	16	22	15	17
615	2	99	95	100	85
625	2	33	34	35	31
643	2	113	114	115	111
659	2	85	86	99	84
678	2	110	109	111	149
684	2	113	111	114	115
689	2	9	10	14	7
693	2	110	149	109	111
695	2	36	37	64	35
730	2	19	20	4	14
738	2	119	121	117	120
739	2	39	37	40	41
756	2	33	31	34	35
763	2	68	66	69	30
766	2	90	91	95	88
770	2	85	84	86	99
780	2	41	62	39	42
786	2	39	41	37	40
806	2	86	87	88	85
809	2	145	146	116	143
812	2	33	35	31	34
831	2	95	99	90	96
837	2	117	119	116	118
841	2	95	96	99	90
845	1	3	4	21	1
847	2	147	148	149	115
863	2	88	86	89	90
