Title

162 atoms
167 bonds
292 angles
469 dihedrals
126 impropers

12 atom types
18 bond types
10 angle types
34 dihedral types
3 improper types
-5.857999802 94.1420002 xlo xhi
-10.31999969 89.68000031 ylo yhi
-15.5909996 84.4090004 zlo zhi
0.0 0.0 0.0 xy xz yz

Masses

1	12.01078
2	15.99943
3	14.00672
4	1.007947
5	12.01078
6	1.007947
7	1.007947
8	15.99943
9	1.007947
10	12.01078
11	15.99943
12	1.007947


Pair Coeffs

1	0.086879315	3.4806469
2	0.2102061	3.0398122
3	0.16769152	3.206876
4	0.015611343	2.5725815
5	0.10884061	3.3795318
6	0.015779483	2.6445434
7	0.014090815	1.1034277
8	0.16846514	3.0251065
9	0.016409246	2.5832257
10	0.21	3.3996695
11	0.20947353	2.99716
12	1.2326e-05	0.53453923

Bond Coeffs

1 harmonic	582.698766451	1.225198386222
2 harmonic	492.76746816345	1.381897776683
3 harmonic	279.1350963404	1.454628925034
4 harmonic	390.03554688505	1.390160554689
5 harmonic	505.144496193	1.019481865027
6 harmonic	360.7852444772	1.387193227181
7 harmonic	397.2545789619	1.085358495916
8 harmonic	289.73813263395	1.498646816465
9 harmonic	370.04670688625	1.093899492634
10 harmonic	301.15400723785	1.345741232799
11 harmonic	366.7408841747	1.425895053732
12 harmonic	264.62148576755	1.52190126495
13 harmonic	425.69104206635	1.362945806494
14 harmonic	300.03137914615	1.451203938761
15 harmonic	382.5450169811	1.379244394267
16 harmonic	602.81384337	1.196112346392
17 harmonic	329.96998057905	1.427343958716
18 harmonic	543.5267831885	0.9716763312559


Angle Coeffs

1 harmonic	55.42182150775	117.3465570514
2 harmonic	63.44422595415	115.5071327674
3 harmonic	57.8982893754	126.8062420451
4 harmonic	34.066775159195	129.1835929926
5 harmonic	53.20531626545	116.5475862634
6 harmonic	48.776492647595	115.6030999533
7 harmonic	65.09061609600001	110.3538806181
8 harmonic	201.41175231035	127.4691416191
9 harmonic	55.07882548015	112.8714009681
10 harmonic	33.56981613361	180


Dihedral Coeffs

1 fourier 1	1.193093382682	2	180
2 fourier 1	1.809047390003	2	180
3 fourier 1	-0.04816277792592	1	0
4 fourier 1	3.101948770557	2	180
5 fourier 1	-0.4252153282372	1	0
6 fourier 1	2.348375642009	2	180
7 fourier 1	1.256156174911	1	0
8 fourier 1	0.9974165607242	2	180
9 fourier 1	3.661930099076	2	180
10 fourier 1	0.02664938770063	3	0
11 fourier 1	2.779853741805	2	180
12 fourier 1	0.1918272375143	3	0
13 fourier 1	0.9202179876409	1	180
14 fourier 1	0.0473758381877	3	0
15 fourier 1	0.4860993122944	2	180
16 fourier 1	0.8916986138746	1	0
17 fourier 1	1.163809172478	2	180
18 fourier 1	0.1679186987369	1	180
19 fourier 1	0.1155372516788	3	0
20 fourier 1	0.1115525666802	3	0
21 fourier 1	0.3432490222662	1	0
22 fourier 1	0.09223874044423	3	0
23 fourier 1	0.3159935921949	2	180
24 fourier 1	0.3247796806857	1	180
25 fourier 1	0.1040663847541	3	0
26 fourier 1	1.532232714475	2	180
27 fourier 1	1.163235555439	2	180
28 fourier 1	0.457973137376	1	0
29 fourier 1	0.1911926717192	3	0
30 fourier 1	1.550515418264	2	180
31 fourier 1	0	1	0
32 fourier 1	0.3445382149273	3	0
33 fourier 1	0.1364556373303	1	0
34 fourier 1	0.3026390167484	3	0


Improper Coeffs

1 0.3333333333333333	-1	2
2 0.3666666666666667	-1	2
3 3.5	-1	2


Atoms

1	1	1	0.56950998	-2.8110001	-2.158	1.946
2	1	2	-0.62127501	-3.0179999	-1.198	2.734
3	1	3	-0.52852798	-1.829	-2.0699999	0.90499997
4	1	1	0.227309	-1.138	-0.86500001	0.53500003
5	1	1	-0.414094	-1.747	0.333	0.55400002
6	1	4	0.212504	-2.7850001	0.428	0.84100002
7	1	1	-0.25486299	-1.017	1.548	0.14300001
8	1	4	0.219666	-1.529	2.5009999	0.192
9	1	1	-0.282083	0.25299999	1.469	-0.29300001
10	1	5	-0.144898	0.98400003	2.7160001	-0.70899999
11	1	6	0.095550999	1.506	2.5439999	-1.674
12	1	6	0.095550999	0.292	3.5739999	-0.847
13	1	6	0.095550999	1.73	2.984	0.068000004
14	1	1	0.17054901	0.93099999	0.141	-0.34299999
15	1	3	-0.469993	2.3080001	0.048999999	-0.75400001
16	1	1	0.81941301	2.829	-1	-1.58
17	1	2	-0.56132001	2.066	-1.844	-2.1210001
18	1	7	0.32443899	2.9590001	0.82599998	-0.505
19	1	1	-0.480625	0.26100001	-0.95700002	0.057999998
20	1	4	0.209447	0.75199997	-1.9220001	0.077
21	1	7	0.318997	-1.53	-2.9660001	0.458
22	1	8	-0.489057	3.849	-1.049	-1.76
23	1	5	0.124749	4.1750002	0.079000004	-2.526
24	1	5	-0.13337	3.6760001	-0.068999998	-3.971
25	1	5	-0.136043	4.1669998	-1.35	-4.6729999
26	1	5	-0.13644999	5.6960001	-1.482	-4.7849998
27	1	5	-0.137064	6.3340001	-0.35800001	-5.6160002
28	1	5	0.080086	7.8210001	-0.61400002	-5.862
29	1	8	-0.404039	8.5270004	-0.61000001	-4.6240001
30	1	1	0.218144	9.9069996	-0.81800002	-4.5079999
31	1	1	-0.34607899	10.459	-0.801	-3.2880001
32	1	4	0.220447	9.842	-0.63	-2.415
33	1	1	-0.1201	11.91	-1.0190001	-3.115
34	1	4	0.200187	12.315	-1.023	-2.1099999
35	1	1	-0.113812	12.702	-1.235	-4.1830001
36	1	1	-0.113812	14.16	-1.47	-4.027
37	1	1	-0.1201	14.892	-0.76499999	-3.142
38	1	4	0.200187	14.436	0.0020000001	-2.529
39	1	1	-0.34607899	16.344	-1.001	-3.01
40	1	4	0.220447	16.893999	-0.41299999	-2.2880001
41	1	1	0.218144	16.957001	-1.923	-3.7780001
42	1	8	-0.404039	18.333	-2.1860001	-3.697
43	1	5	0.080086	19.240999	-1.508	-2.8299999
44	1	5	-0.137064	20.662001	-2.0409999	-3.033
45	1	5	-0.136397	21.15	-1.975	-4.494
46	1	5	-0.134762	21.158001	-0.56699997	-5.1149998
47	1	5	-0.13932601	22.098	0.40400001	-4.382
48	1	5	0.042500999	22.198	1.748	-5.105
49	1	8	-0.14047199	22.829	1.584	-6.3449998
50	1	9	0.103665	21.181	2.177	-5.2459998
51	1	9	0.103665	22.792999	2.4489999	-4.4780002
52	1	6	0.106666	23.114	-0.041999999	-4.2969999
53	1	6	0.106666	21.712999	0.59399998	-3.358
54	1	6	0.100729	20.128	-0.153	-5.1420002
55	1	6	0.100729	21.493999	-0.66900003	-6.1700001
56	1	6	0.100539	22.179001	-2.3940001	-4.5409999
57	1	6	0.100539	20.507999	-2.6329999	-5.1199999
58	1	6	0.105926	21.362	-1.488	-2.3710001
59	1	6	0.105926	20.687	-3.1040001	-2.7079999
60	1	9	0.090650998	18.944	-1.684	-1.774
61	1	9	0.090650998	19.214001	-0.41499999	-3.0239999
62	1	1	-0.34607899	16.156	-2.698	-4.7490001
63	1	4	0.220448	16.639999	-3.447	-5.3639998
64	1	1	-0.1201	14.84	-2.487	-4.869
65	1	4	0.200187	14.273	-3.079	-5.5760002
66	1	1	-0.1201	12.09	-1.2539999	-5.5359998
67	1	4	0.200187	12.707	-1.409	-6.4120002
68	1	1	-0.34607899	10.775	-1.057	-5.6919999
69	1	4	0.220448	10.357	-1.069	-6.6890001
70	1	9	0.090650998	8.2189999	0.191	-6.5170002
71	1	9	0.090650998	7.9549999	-1.5930001	-6.3730001
72	1	6	0.105926	6.2280002	0.61400002	-5.0890002
73	1	6	0.105926	5.8189998	-0.28400001	-6.599
74	1	6	0.100539	5.914	-2.457	-5.2740002
75	1	6	0.100539	6.1529999	-1.5190001	-3.773
76	1	6	0.100539	3.7739999	-2.2349999	-4.1269999
77	1	6	0.100539	3.7279999	-1.383	-5.6939998
78	1	6	0.105326	2.5650001	-0.085000001	-3.9579999
79	1	6	0.105326	3.974	0.82599998	-4.5560002
80	1	9	0.10324	5.2750001	0.222	-2.5139999
81	1	9	0.10324	3.7249999	0.991	-2.073
82	1	1	0.56950998	-3.3599999	-3.0810001	2.0829999
83	1	2	-0.62127501	-4.618	-3.0610001	2.03
84	1	3	-0.529324	-2.645	-4.29	2.3699999
85	1	1	0.217842	-3.2449999	-5.5960002	2.437
86	1	1	-0.45609	-4.2399998	-5.9590001	1.609
87	1	4	0.212504	-4.618	-5.2789998	0.85799998
88	1	1	-0.225823	-4.8130002	-7.316	1.681
89	1	4	0.20437001	-5.6170001	-7.5760002	1.003
90	1	1	-0.17677601	-4.3410001	-8.2110004	2.566
91	1	5	-0.142059	-4.915	-9.6000004	2.6199999
92	1	6	0.087706998	-5.1389999	-9.8739996	3.6719999
93	1	6	0.087706998	-5.8579998	-9.6809998	2.0380001
94	1	6	0.087706998	-4.178	-10.32	2.2060001
95	1	1	0.38573799	-3.211	-7.8369999	3.461
96	1	3	-0.36961699	-2.6960001	-8.8219995	4.3759999
97	1	10	0.61720902	-1.734	-8.6199999	5.1869998
98	1	2	-0.33012301	-0.80000001	-8.4239998	5.974
99	1	1	-0.41798899	-2.697	-6.5900002	3.388
100	1	4	0.206296	-1.876	-6.2919998	4.027
101	1	7	0.318997	-1.642	-4.1939998	2.6459999
102	1	8	-0.14047199	22.851999	2.484	-6.763
103	1	5	0.042500999	21.596001	2.6830001	-7.3540001
104	1	5	-0.13932601	21.443001	1.841	-8.6280003
105	1	5	-0.134762	22.561001	2.0650001	-9.6639996
106	1	5	-0.136397	22.687	3.51	-10.179
107	1	5	-0.137064	21.426001	3.9960001	-10.911
108	1	5	0.080086	21.646	5.3590002	-11.566
109	1	8	-0.404039	21.900999	6.3439999	-10.568
110	1	1	0.218144	22.146	7.6950002	-10.844
111	1	1	-0.34607899	22.382	8.5270004	-9.8210001
112	1	4	0.220447	22.384001	8.1520004	-8.8050003
113	1	1	-0.1201	22.648001	9.96	-10.062
114	1	4	0.200187	22.861	10.595	-9.2119999
115	1	1	-0.113812	22.655001	10.453	-11.316
116	1	1	-0.113812	22.934	11.888	-11.579
117	1	1	-0.1201	22.431999	12.855	-10.787
118	1	4	0.200187	21.799	12.611	-9.9429998
119	1	1	-0.34607899	22.707001	14.279	-11.071
120	1	4	0.220447	22.285	15.023	-10.411
121	1	1	0.218144	23.462999	14.627	-12.131
122	1	8	-0.404039	23.754	15.962	-12.45
123	1	5	0.080086	23.277	17.094999	-11.724
124	1	5	-0.137064	23.775999	18.388	-12.376
125	1	5	-0.136397	23.422001	18.509001	-13.871
126	1	5	-0.130667	21.917	18.454	-14.19
127	1	5	-0.16125099	21.127001	19.603001	-13.544
128	1	5	0.096124999	19.665001	19.608	-13.996
129	1	11	-0.66998303	19.583	19.907	-15.362
130	1	12	0.40017799	18.618	19.884001	-15.591
131	1	9	0.096978001	19.204	18.615999	-13.792
132	1	9	0.096978001	19.113001	20.379999	-13.415
133	1	6	0.109028	21.593	20.579	-13.803
134	1	6	0.109028	21.143	19.49	-12.439
135	1	6	0.100729	21.493	17.476	-13.878
136	1	6	0.100729	21.808001	18.516001	-15.295
137	1	6	0.100539	23.834999	19.466999	-14.254
138	1	6	0.100539	23.931	17.695	-14.431
139	1	6	0.105926	23.377001	19.26	-11.816
140	1	6	0.105926	24.882	18.424	-12.279
141	1	9	0.090650998	23.659	17.052999	-10.681
142	1	9	0.090650998	22.167	17.09	-11.69
143	1	1	-0.34607899	24.016001	13.568	-13
144	1	4	0.220448	24.629999	13.84	-13.85
145	1	1	-0.1201	23.768	12.278	-12.744
146	1	4	0.200187	24.198	11.52	-13.387
147	1	1	-0.1201	22.391001	9.5299997	-12.45
148	1	4	0.200187	22.374001	9.9049997	-13.466
149	1	1	-0.34607899	22.150999	8.2320004	-12.23
150	1	4	0.220448	21.955	7.5840001	-13.074
151	1	9	0.090650998	20.73	5.6360002	-12.132
152	1	9	0.090650998	22.502001	5.303	-12.273
153	1	6	0.105926	20.579	4.0809999	-10.197
154	1	6	0.105926	21.148001	3.263	-11.699
155	1	6	0.100539	23.546	3.5409999	-10.885
156	1	6	0.100539	22.933001	4.1950002	-9.3409996
157	1	6	0.100729	23.534	1.762	-9.2189999
158	1	6	0.100729	22.381001	1.39	-10.528
159	1	6	0.106666	21.447001	0.76700002	-8.3409996
160	1	6	0.106666	20.451	2.0420001	-9.085
161	1	9	0.103665	21.472	3.76	-7.5900002
162	1	9	0.103665	20.789	2.415	-6.6350002

Bonds

1	1	1	2
2	2	1	3
3	3	1	82
4	4	3	4
5	5	3	21
6	6	4	5
7	6	4	19
8	7	5	6
9	6	5	7
10	7	7	8
11	6	7	9
12	8	9	10
13	6	9	14
14	9	10	11
15	9	10	12
16	9	10	13
17	4	14	15
18	6	14	19
19	2	15	16
20	5	15	18
21	1	16	17
22	10	16	22
23	7	19	20
24	11	22	23
25	12	23	24
26	9	23	80
27	9	23	81
28	12	24	25
29	9	24	78
30	9	24	79
31	12	25	26
32	9	25	76
33	9	25	77
34	12	26	27
35	9	26	74
36	9	26	75
37	12	27	28
38	9	27	72
39	9	27	73
40	11	28	29
41	9	28	70
42	9	28	71
43	13	29	30
44	6	30	31
45	6	30	68
46	7	31	32
47	6	31	33
48	7	33	34
49	6	33	35
50	3	35	36
51	6	35	66
52	6	36	37
53	6	36	64
54	7	37	38
55	6	37	39
56	7	39	40
57	6	39	41
58	13	41	42
59	6	41	62
60	11	42	43
61	12	43	44
62	9	43	60
63	9	43	61
64	12	44	45
65	9	44	58
66	9	44	59
67	12	45	46
68	9	45	56
69	9	45	57
70	12	46	47
71	9	46	54
72	9	46	55
73	12	47	48
74	9	47	52
75	9	47	53
76	11	48	49
77	9	48	50
78	9	48	51
79	14	49	102
80	7	62	63
81	6	62	64
82	7	64	65
83	7	66	67
84	6	66	68
85	7	68	69
86	1	82	83
87	2	82	84
88	4	84	85
89	5	84	101
90	6	85	86
91	6	85	99
92	7	86	87
93	6	86	88
94	7	88	89
95	6	88	90
96	8	90	91
97	6	90	95
98	9	91	92
99	9	91	93
100	9	91	94
101	15	95	96
102	6	95	99
103	16	96	97
104	1	97	98
105	7	99	100
106	11	102	103
107	12	103	104
108	9	103	161
109	9	103	162
110	12	104	105
111	9	104	159
112	9	104	160
113	12	105	106
114	9	105	157
115	9	105	158
116	12	106	107
117	9	106	155
118	9	106	156
119	12	107	108
120	9	107	153
121	9	107	154
122	11	108	109
123	9	108	151
124	9	108	152
125	13	109	110
126	6	110	111
127	6	110	149
128	7	111	112
129	6	111	113
130	7	113	114
131	6	113	115
132	3	115	116
133	6	115	147
134	6	116	117
135	6	116	145
136	7	117	118
137	6	117	119
138	7	119	120
139	6	119	121
140	13	121	122
141	6	121	143
142	11	122	123
143	12	123	124
144	9	123	141
145	9	123	142
146	12	124	125
147	9	124	139
148	9	124	140
149	12	125	126
150	9	125	137
151	9	125	138
152	12	126	127
153	9	126	135
154	9	126	136
155	12	127	128
156	9	127	133
157	9	127	134
158	17	128	129
159	9	128	131
160	9	128	132
161	18	129	130
162	7	143	144
163	6	143	145
164	7	145	146
165	7	147	148
166	6	147	149
167	7	149	150

Angles

1	4	30	31	32
2	5	46	47	52
3	6	92	91	94
4	2	85	84	101
5	5	47	46	55
6	5	43	44	58
7	6	70	28	71
8	4	8	7	9
9	3	15	16	17
10	5	42	43	44
11	5	122	123	142
12	5	109	108	152
13	5	108	107	153
14	6	76	25	77
15	3	3	4	5
16	5	105	106	155
17	5	26	25	77
18	5	29	28	70
19	3	35	66	68
20	5	46	45	57
21	5	28	27	73
22	5	27	26	74
23	5	42	43	60
24	3	90	95	96
25	5	24	25	76
26	5	102	103	104
27	5	103	104	159
28	3	115	147	149
29	3	33	35	66
30	5	23	24	79
31	3	117	116	145
32	3	85	86	88
33	5	46	47	53
34	6	161	103	162
35	3	83	82	84
36	4	144	143	145
37	4	36	64	65
38	4	67	66	68
39	5	25	26	27
40	3	91	90	95
41	5	43	44	59
42	3	31	33	35
43	3	29	30	31
44	4	41	62	63
45	5	106	107	153
46	4	4	5	6
47	5	125	126	127
48	5	105	106	156
49	4	117	119	120
50	4	38	37	39
51	5	22	23	81
52	5	25	26	74
53	3	33	35	36
54	3	39	41	62
55	5	24	25	77
56	5	42	43	61
57	3	31	30	68
58	6	80	23	81
59	4	37	39	40
60	5	129	128	131
61	5	24	25	26
62	5	27	28	29
63	5	127	126	135
64	3	39	41	42
65	6	159	104	160
66	6	135	126	136
67	5	48	47	52
68	3	121	143	145
69	5	126	125	137
70	3	116	145	143
71	3	41	62	64
72	5	106	107	154
73	4	114	113	115
74	3	4	5	7
75	6	50	48	51
76	3	115	116	117
77	3	36	64	62
78	6	72	27	73
79	5	126	127	133
80	5	127	128	132
81	7	121	122	123
82	6	11	10	13
83	1	1	3	4
84	5	129	128	132
85	5	105	104	159
86	5	44	43	60
87	5	125	126	135
88	3	36	35	66
89	5	127	126	136
90	5	47	48	49
91	3	111	113	115
92	5	123	124	139
93	5	24	23	80
94	5	107	106	156
95	6	153	107	154
96	5	49	48	50
97	1	82	84	85
98	3	1	82	84
99	5	48	47	53
100	3	85	99	95
101	5	44	45	56
102	5	126	125	138
103	3	3	1	82
104	3	3	4	19
105	3	15	16	22
106	4	86	88	89
107	5	104	103	162
108	3	9	14	19
109	2	14	15	18
110	3	30	31	33
111	4	87	86	88
112	7	128	129	130
113	4	116	117	118
114	5	126	127	134
115	5	106	105	157
116	5	9	10	11
117	5	44	43	61
118	4	120	119	121
119	5	125	126	136
120	5	25	24	78
121	5	47	48	50
122	5	108	107	154
123	5	123	124	140
124	3	9	14	15
125	3	88	90	91
126	5	29	28	71
127	2	1	3	21
128	5	49	48	51
129	5	90	91	92
130	5	103	104	160
131	5	27	26	75
132	5	127	128	129
133	5	44	45	57
134	3	86	88	90
135	3	109	110	149
136	3	115	116	145
137	6	131	128	132
138	3	84	85	99
139	5	102	103	161
140	3	111	110	149
141	6	137	125	138
142	6	12	10	13
143	3	113	115	147
144	3	116	117	119
145	5	103	104	105
146	5	22	23	24
147	5	128	127	133
148	6	52	47	53
149	5	23	24	25
150	3	15	14	19
151	5	26	27	28
152	6	58	44	59
153	4	5	7	8
154	7	16	22	23
155	5	25	26	75
156	7	49	102	103
157	10	96	97	98
158	3	117	119	121
159	5	122	123	124
160	5	125	124	139
161	4	40	39	41
162	3	4	19	14
163	6	78	24	79
164	3	119	121	122
165	4	112	111	113
166	3	29	30	68
167	6	155	106	156
168	5	102	103	162
169	3	5	4	19
170	6	93	91	94
171	4	110	111	112
172	5	124	123	141
173	9	95	96	97
174	3	2	1	3
175	4	95	99	100
176	3	37	39	41
177	5	128	127	134
178	5	124	125	137
179	3	5	7	9
180	6	60	43	61
181	5	45	44	58
182	4	85	99	100
183	3	109	110	111
184	7	48	49	102
185	2	16	15	18
186	4	89	88	90
187	5	105	104	160
188	6	74	26	75
189	5	24	23	81
190	5	26	25	76
191	4	30	68	69
192	5	45	46	54
193	4	110	149	150
194	4	34	33	35
195	3	86	85	99
196	4	115	147	148
197	3	2	1	82
198	3	7	9	14
199	5	107	108	151
200	4	118	117	119
201	6	139	124	140
202	5	44	45	46
203	3	113	115	116
204	5	26	27	72
205	4	14	19	20
206	5	124	125	138
207	5	104	105	157
208	6	157	105	158
209	5	104	105	106
210	5	45	44	59
211	5	123	124	125
212	5	106	105	158
213	5	9	10	12
214	4	31	33	34
215	3	122	121	143
216	5	25	24	79
217	5	47	48	51
218	5	45	46	55
219	5	46	47	48
220	2	82	84	101
221	3	88	90	95
222	3	10	9	14
223	5	22	23	80
224	5	90	91	93
225	4	143	145	146
226	5	107	108	152
227	4	116	145	146
228	3	7	9	10
229	5	27	28	70
230	4	147	149	150
231	4	36	37	38
232	5	106	107	108
233	5	26	27	73
234	6	133	127	134
235	6	141	123	142
236	5	43	44	45
237	3	42	41	62
238	3	84	85	86
239	5	104	105	158
240	4	148	147	149
241	3	30	68	66
242	3	110	149	147
243	4	62	64	65
244	6	151	108	152
245	4	121	143	144
246	6	56	45	57
247	5	9	10	13
248	4	66	68	69
249	4	32	31	33
250	1	14	15	16
251	7	41	42	43
252	3	35	36	37
253	5	90	91	94
254	5	105	106	107
255	6	92	91	93
256	7	108	109	110
257	3	90	95	99
258	5	45	46	47
259	5	124	125	126
260	5	125	124	140
261	5	127	128	131
262	5	47	46	54
263	6	11	10	12
264	5	27	28	71
265	7	28	29	30
266	3	36	37	39
267	3	96	95	99
268	5	122	123	141
269	5	109	108	151
270	4	111	113	114
271	2	4	3	21
272	4	6	5	7
273	3	110	111	113
274	5	107	106	155
275	5	124	123	142
276	4	35	66	67
277	5	46	45	56
278	5	28	27	72
279	8	17	16	22
280	4	63	62	64
281	3	1	82	83
282	4	4	19	20
283	3	35	36	64
284	5	107	108	109
285	3	116	115	147
286	6	54	46	55
287	5	23	24	78
288	3	119	121	143
289	3	37	36	64
290	5	126	127	128
291	5	104	103	161
292	4	85	86	87

Dihedrals

1	2	14	15	16	17
1	3	14	15	16	17
2	25	107	106	105	157
3	26	119	121	122	123
4	9	119	117	116	145
5	12	41	42	43	44
5	13	41	42	43	44
6	9	3	4	19	20
7	8	3	1	82	83
8	29	54	46	45	56
9	9	84	85	99	100
10	1	86	85	84	101
11	29	140	124	123	142
12	9	34	33	35	36
13	29	157	105	104	159
14	9	9	14	19	20
15	14	49	102	103	104
16	29	56	45	44	58
17	29	154	107	106	155
18	29	135	126	125	138
19	29	50	48	47	52
20	9	35	36	64	65
21	9	35	36	37	38
22	29	153	107	106	155
23	29	77	25	24	79
24	29	160	104	103	162
25	29	76	25	24	79
26	25	46	45	44	58
27	29	72	27	26	74
28	25	108	107	106	156
29	9	85	86	88	90
30	9	118	117	116	145
31	9	87	86	88	89
32	9	122	121	143	145
33	9	86	85	99	95
34	25	43	44	45	57
35	25	105	106	107	154
36	9	33	35	66	68
37	29	70	28	27	73
38	25	28	27	26	74
39	1	18	15	14	19
40	28	48	49	102	103
41	9	85	99	95	90
42	9	6	5	7	9
43	10	88	90	91	94
44	26	123	122	121	143
45	29	58	44	43	61
46	20	29	28	27	73
46	21	29	28	27	73
47	12	107	108	109	110
47	13	107	108	109	110
48	9	4	5	7	9
49	29	132	128	127	133
50	29	131	128	127	133
51	25	26	25	24	78
52	29	73	27	26	74
53	14	110	109	108	151
54	9	116	145	143	121
55	9	7	9	14	19
56	22	24	25	26	27
56	23	24	25	26	27
56	24	24	25	26	27
57	9	89	88	90	91
58	20	129	128	127	134
58	21	129	128	127	134
59	29	52	47	46	55
60	29	156	106	105	157
61	9	31	33	35	36
62	9	120	119	121	122
63	9	29	30	31	32
64	29	79	24	23	81
65	14	47	48	49	102
66	25	105	104	103	162
67	25	126	127	128	131
68	9	116	117	119	120
69	27	37	36	35	66
70	9	42	41	62	64
71	10	92	91	90	95
72	29	139	124	123	142
73	9	35	36	64	62
74	25	104	105	106	155
75	9	7	5	4	19
76	14	30	29	28	70
77	9	84	85	86	87
78	20	42	43	44	59
78	21	42	43	44	59
79	9	111	110	149	150
80	9	111	113	115	116
81	29	74	26	25	77
82	25	103	104	105	158
83	9	112	111	113	114
84	29	158	105	104	160
85	25	46	47	48	51
86	9	37	39	41	62
87	29	135	126	125	137
88	9	38	37	39	40
89	29	77	25	24	78
90	29	160	104	103	161
91	9	39	37	36	64
92	4	83	82	84	85
92	5	83	82	84	85
93	29	152	108	107	154
94	25	108	107	106	155
95	1	82	84	85	86
96	9	85	86	88	89
97	20	22	23	24	79
97	21	22	23	24	79
98	29	159	104	103	162
99	25	127	126	125	138
100	9	40	39	41	62
101	9	87	86	85	99
102	9	85	99	95	96
103	9	40	39	41	42
104	25	105	106	107	153
105	27	33	35	36	37
106	25	43	44	45	56
107	1	1	3	4	19
108	9	118	117	119	121
109	10	7	9	10	13
110	1	9	14	15	18
111	9	10	9	14	15
112	9	6	5	7	8
113	8	2	1	82	84
114	9	112	111	110	149
115	2	14	15	16	22
115	3	14	15	16	22
116	14	16	22	23	81
117	14	41	42	43	60
118	9	148	147	149	150
119	22	45	46	47	48
119	23	45	46	47	48
119	24	45	46	47	48
120	19	102	103	104	105
121	20	129	128	127	133
121	21	129	128	127	133
122	9	109	110	111	113
123	9	8	7	9	14
124	19	42	43	44	45
125	9	119	121	143	145
126	10	93	91	90	95
127	29	51	48	47	52
128	25	26	27	28	71
129	29	79	24	23	80
130	27	113	115	116	145
131	9	5	7	9	10
132	22	125	126	127	128
132	23	125	126	127	128
132	24	125	126	127	128
133	25	105	104	103	161
134	22	123	124	125	126
134	23	123	124	125	126
134	24	123	124	125	126
135	25	48	47	46	54
136	25	106	107	108	152
137	27	145	116	115	147
138	29	55	46	45	57
139	25	126	125	124	140
140	1	82	84	85	99
141	29	139	124	123	141
142	9	91	90	95	99
143	9	38	37	39	41
144	9	113	111	110	149
145	11	15	16	22	23
146	9	36	35	66	67
147	25	45	46	47	52
148	29	71	28	27	73
149	29	57	45	44	58
150	20	42	43	44	58
150	21	42	43	44	58
151	32	127	128	129	130
151	33	127	128	129	130
152	19	106	107	108	109
153	27	117	116	115	147
154	9	144	143	145	146
155	27	64	36	35	66
156	29	158	105	104	159
157	9	29	30	68	66
158	26	28	29	30	31
159	19	26	27	28	29
160	25	106	105	104	160
161	20	49	48	47	53
161	21	49	48	47	53
162	9	115	116	117	119
163	9	36	64	62	41
164	9	116	115	147	148
165	25	124	125	126	135
166	29	152	108	107	153
167	29	136	126	125	138
168	9	7	9	14	15
169	9	3	4	5	7
170	9	88	90	95	96
171	29	75	26	25	77
172	20	22	23	24	78
172	21	22	23	24	78
173	34	130	129	128	132
174	9	6	5	4	19
175	25	125	126	127	134
176	22	43	44	45	46
176	23	43	44	45	46
176	24	43	44	45	46
177	9	118	117	119	120
178	10	7	9	10	12
179	29	138	125	124	139
180	20	122	123	124	139
180	21	122	123	124	139
181	14	16	22	23	80
182	25	44	45	46	55
183	9	91	90	95	96
184	9	30	68	66	35
185	9	32	31	33	34
186	29	59	44	43	61
187	9	84	85	99	95
188	25	25	24	23	81
189	14	121	122	123	142
190	9	34	33	35	66
191	9	30	31	33	34
192	1	16	15	14	19
193	29	53	47	46	55
194	9	109	110	111	112
195	9	39	41	62	64
196	29	155	106	105	158
197	9	115	116	145	146
198	9	119	121	143	144
199	25	26	27	28	70
200	9	31	30	68	66
201	1	19	4	3	21
202	9	109	110	149	150
203	25	23	24	25	76
204	25	125	124	123	142
205	9	113	115	147	149
206	25	126	125	124	139
207	25	24	25	26	75
208	1	99	85	84	101
209	9	5	4	19	14
210	9	115	147	149	150
211	29	151	108	107	154
212	29	71	28	27	72
213	29	140	124	123	141
214	9	117	119	121	143
215	29	134	127	126	136
216	29	133	127	126	136
217	6	83	82	84	101
217	7	83	82	84	101
218	25	27	26	25	77
219	25	106	105	104	159
220	9	30	68	66	67
221	19	122	123	124	125
222	20	49	48	47	52
222	21	49	48	47	52
223	26	43	42	41	62
224	26	108	109	110	111
225	9	114	113	115	116
226	29	76	25	24	78
227	9	38	37	36	64
228	29	54	46	45	57
229	9	3	4	5	6
230	9	88	86	85	99
231	22	25	26	27	28
231	23	25	26	27	28
231	24	25	26	27	28
232	9	122	121	143	144
233	9	115	116	145	143
234	9	29	30	68	69
235	9	33	35	66	67
236	29	70	28	27	72
237	25	45	44	43	61
238	10	88	90	91	93
239	9	109	110	149	147
240	2	1	82	84	101
240	3	1	82	84	101
241	29	58	44	43	60
242	29	154	107	106	156
243	20	29	28	27	72
243	21	29	28	27	72
244	9	4	5	7	8
245	25	44	45	46	54
246	9	5	4	19	20
247	22	124	125	126	127
247	23	124	125	126	127
247	24	124	125	126	127
248	29	72	27	26	75
249	12	16	22	23	24
249	13	16	22	23	24
250	9	88	90	95	99
251	29	137	125	124	140
252	9	87	86	88	90
253	29	52	47	46	54
254	9	39	41	62	63
255	29	155	106	105	157
256	10	94	91	90	95
257	9	110	111	113	115
258	29	78	24	23	81
259	25	125	124	123	141
260	25	128	127	126	136
261	9	111	113	115	147
262	9	113	115	147	148
263	22	104	105	106	107
263	23	104	105	106	107
263	24	104	105	106	107
264	25	24	25	26	74
265	9	42	41	62	63
266	29	131	128	127	134
267	22	44	45	46	47
267	23	44	45	46	47
267	24	44	45	46	47
268	9	36	37	39	40
269	9	37	36	64	62
270	25	26	25	24	79
271	15	17	16	15	18
271	16	17	16	15	18
272	9	86	88	90	91
273	29	151	108	107	153
274	2	4	3	1	82
274	3	4	3	1	82
275	30	97	96	95	99
276	29	134	127	126	135
277	9	86	85	99	100
278	29	74	26	25	76
279	25	103	104	105	157
280	9	117	116	145	143
281	9	29	30	31	33
282	25	46	47	48	50
283	9	31	30	68	69
284	1	1	3	4	5
285	9	116	117	119	121
286	9	15	14	19	20
287	25	27	26	25	76
288	4	2	1	3	4
288	5	2	1	3	4
289	9	67	66	68	69
290	10	13	10	9	14
291	25	104	105	106	156
292	25	25	26	27	73
293	9	110	149	147	148
294	14	30	29	28	71
295	29	159	104	103	161
296	9	84	85	86	88
297	25	127	126	125	137
298	9	112	111	113	115
299	26	28	29	30	68
300	25	45	44	43	60
301	10	88	90	91	92
302	8	2	1	82	83
303	9	36	64	62	63
304	14	49	102	103	162
305	9	120	119	121	143
306	9	86	88	90	95
307	12	27	28	29	30
307	13	27	28	29	30
308	22	23	24	25	26
308	23	23	24	25	26
308	24	23	24	25	26
309	9	36	37	39	41
310	9	96	95	99	100
311	17	17	16	22	23
311	18	17	16	22	23
312	27	113	115	116	117
313	27	33	35	36	64
314	29	137	125	124	139
315	20	102	103	104	160
315	21	102	103	104	160
316	9	110	111	113	114
317	9	5	7	9	14
318	9	116	145	143	144
319	29	78	24	23	80
320	9	121	143	145	146
321	19	22	23	24	25
322	26	39	41	42	43
323	19	126	127	128	129
324	25	106	107	108	151
325	25	128	127	126	135
326	29	55	46	45	56
327	9	33	31	30	68
328	9	63	62	64	65
329	2	21	3	1	82
329	3	21	3	1	82
330	9	32	31	30	68
331	14	41	42	43	61
332	6	2	1	3	21
332	7	2	1	3	21
333	31	95	96	97	98
334	25	47	46	45	57
335	20	109	108	107	154
335	21	109	108	107	154
336	12	121	122	123	124
336	13	121	122	123	124
337	9	8	7	9	10
338	1	5	4	3	21
339	29	51	48	47	53
340	25	123	124	125	138
341	19	46	47	48	49
342	25	48	47	46	55
343	25	107	106	105	158
344	9	115	116	117	118
345	30	90	95	96	97
346	9	37	36	64	65
347	9	90	95	99	100
348	8	3	1	82	84
349	25	25	26	27	72
350	9	36	35	66	68
351	25	45	46	47	53
352	29	136	126	125	137
353	29	75	26	25	76
354	9	31	33	35	66
355	29	57	45	44	59
356	34	130	129	128	131
357	9	117	116	145	146
358	25	125	126	127	133
359	29	157	105	104	160
360	9	4	19	14	9
361	10	7	9	10	11
362	9	41	62	64	65
363	29	56	45	44	59
364	1	9	14	15	16
365	14	49	102	103	161
366	9	37	39	41	42
367	9	110	149	147	115
368	29	50	48	47	53
369	9	117	119	121	122
370	9	35	36	37	39
371	29	153	107	106	156
372	10	11	10	9	14
373	9	89	88	90	95
374	9	116	115	147	149
375	25	124	125	126	136
376	25	46	45	44	59
377	9	3	4	19	14
378	14	50	48	49	102
379	29	59	44	43	60
380	25	25	24	23	80
381	14	121	122	123	141
382	22	105	106	107	108
382	23	105	106	107	108
382	24	105	106	107	108
383	22	103	104	105	106
383	23	103	104	105	106
383	24	103	104	105	106
384	26	108	109	110	149
385	29	53	47	46	54
386	20	102	103	104	159
386	21	102	103	104	159
387	25	28	27	26	75
388	29	138	125	124	140
389	20	122	123	124	140
389	21	122	123	124	140
390	9	4	19	14	15
391	29	132	128	127	134
392	2	1	82	84	85
392	3	1	82	84	85
393	29	73	27	26	75
394	14	110	109	108	152
395	9	32	31	33	35
396	14	51	48	49	102
397	10	12	10	9	14
398	9	30	31	33	35
399	25	47	46	45	56
400	20	109	108	107	153
400	21	109	108	107	153
401	9	114	113	115	147
402	9	111	110	149	147
403	29	156	106	105	158
404	2	18	15	16	22
404	3	18	15	16	22
405	29	133	127	126	135
406	25	123	124	125	137
407	25	126	127	128	132
408	9	10	9	14	19
409	25	23	24	25	77
410	9	35	66	68	69

Impropers

1	1	84	82	85	101
7	2	119	117	120	121
9	2	68	66	69	30
15	2	143	144	145	121
19	2	88	90	86	89
20	3	16	15	17	22
31	2	14	15	19	9
38	2	145	146	116	143
49	2	62	63	64	41
54	2	113	115	111	114
56	1	3	4	21	1
58	2	82	1	83	84
69	2	99	100	85	95
75	2	9	7	10	14
83	2	39	37	40	41
88	2	147	148	149	115
89	2	64	36	62	65
92	2	30	31	68	29
99	2	116	117	145	115
105	2	68	69	30	66
109	2	35	33	36	66
115	2	111	112	113	110
128	2	1	82	2	3
132	2	66	35	67	68
139	2	5	7	4	6
146	2	99	95	100	85
147	2	119	121	117	120
155	2	19	14	20	4
157	2	19	20	4	14
172	1	15	18	14	16
174	2	19	4	14	20
177	2	4	19	3	5
186	2	95	90	96	99
189	2	121	122	143	119
200	2	9	14	7	10
203	2	31	30	32	33
215	2	7	5	8	9
218	2	41	39	42	62
221	2	33	31	34	35
229	2	110	149	109	111
239	2	31	33	30	32
254	1	15	16	18	14
258	2	113	111	114	115
259	2	117	119	116	118
261	2	117	116	118	119
265	2	110	109	111	149
268	2	39	41	37	40
282	2	41	42	62	39
297	2	90	95	88	91
301	2	86	87	88	85
318	2	66	68	35	67
322	2	85	86	99	84
341	2	149	110	147	150
348	2	116	145	115	117
351	2	86	85	87	88
355	2	39	40	41	37
366	2	143	145	121	144
373	2	149	147	150	110
379	3	16	22	15	17
381	2	33	35	31	34
385	2	5	4	6	7
391	2	36	37	64	35
401	2	33	34	35	31
409	2	145	116	143	146
417	2	36	64	35	37
418	2	111	113	110	112
420	2	115	147	113	116
425	2	5	6	7	4
426	2	37	38	39	36
433	2	37	36	38	39
436	2	4	5	19	3
437	2	82	83	84	1
446	2	88	86	89	90
447	2	143	121	144	145
470	1	15	14	16	18
483	2	37	39	36	38
491	2	88	89	90	86
492	2	66	67	68	35
496	2	116	115	117	145
497	2	4	3	5	19
504	2	95	96	99	90
508	2	119	120	121	117
519	2	64	62	65	36
528	2	110	111	149	109
529	2	14	19	9	15
533	2	90	91	95	88
534	2	147	115	148	149
540	1	3	21	1	4
553	2	1	3	82	2
562	2	62	64	41	63
577	2	30	29	31	68
590	2	115	113	116	147
594	2	117	118	119	116
604	2	147	149	115	148
605	1	84	101	82	85
616	2	31	32	33	30
618	2	85	99	84	86
625	2	95	99	90	96
645	2	62	41	63	64
647	2	36	35	37	64
656	2	149	150	110	147
657	2	85	84	86	99
677	2	121	119	122	143
695	2	14	9	15	19
710	1	84	85	101	82
727	2	7	9	5	8
733	2	9	10	14	7
743	2	35	66	33	36
766	2	121	143	119	122
768	2	64	65	36	62
779	2	35	36	66	33
785	2	1	2	3	82
790	2	111	110	112	113
794	2	115	116	147	113
797	2	68	30	66	69
812	2	145	143	146	116
823	1	3	1	4	21
832	2	90	88	91	95
844	2	113	114	115	111
846	2	82	84	1	83
849	3	16	17	22	15
858	2	99	85	95	100
859	2	7	8	9	5
862	2	30	68	29	31
863	2	86	88	85	87
875	2	41	62	39	42
