Title

193 atoms
206 bonds
341 angles
503 dihedrals
276 impropers

11 atom types
15 bond types
8 angle types
18 dihedral types
3 improper types
-14.54599953 85.45400047 xlo xhi
-3.619999886 96.38000011 ylo yhi
-13.64599991 86.35400009 zlo zhi
0.0 0.0 0.0 xy xz yz

Masses

1	14.00672
2	12.01078
3	1.007947
4	15.99943
5	12.01078
6	1.007947
7	18.998403
8	1.007947
9	15.99943
10	15.99943
11	1.007947


Pair Coeffs

1	0.16769152	3.206876
2	0.086879315	3.4806469
3	0.015611343	2.5725815
4	0.16846514	3.0251065
5	0.10884061	3.3795318
6	0.014090815	1.1034277
7	0.061	3.1181455
8	0.015779483	2.6445434
9	0.2102061	3.0398122
10	0.20947353	2.99716
11	1.2326e-05	0.53453923

Bond Coeffs

1 harmonic	390.03554688505	1.390160554689
2 harmonic	505.144496193	1.019481865027
3 harmonic	422.7150220147	1.421786517481
4 harmonic	360.7852444772	1.387193227181
5 harmonic	397.2545789619	1.085358495916
6 harmonic	279.1350963404	1.454628925034
7 harmonic	425.69104206635	1.362945806494
8 harmonic	289.73813263395	1.498646816465
9 harmonic	264.62148576755	1.52190126495
10 harmonic	492.76746816345	1.381897776683
11 harmonic	340.45121009905	1.358690858053
12 harmonic	370.04670688625	1.093899492634
13 harmonic	582.698766451	1.225198386222
14 harmonic	385.7604595587	1.369745182308
15 harmonic	543.5267831885	0.9716763312559


Angle Coeffs

1 harmonic	57.8982893754	126.8062420451
2 harmonic	55.42182150775	117.3465570514
3 harmonic	63.44422595415	115.5071327674
4 harmonic	34.066775159195	129.1835929926
5 harmonic	65.09061609600001	110.3538806181
6 harmonic	53.20531626545	116.5475862634
7 harmonic	48.776492647595	115.6030999533
8 harmonic	201.41175231035	127.4691416191


Dihedral Coeffs

1 fourier 1	3.661930099076	2	180
2 fourier 1	1.193093382682	2	180
3 fourier 1	0.02021088501612	1	0
4 fourier 1	1.163235555439	2	180
5 fourier 1	1.532232714475	2	180
6 fourier 1	0.02664938770063	3	0
7 fourier 1	0.1155372516788	3	0
8 fourier 1	3.101948770557	2	180
9 fourier 1	-0.4252153282372	1	0
10 fourier 1	1.809047390003	2	180
11 fourier 1	-0.04816277792592	1	0
12 fourier 1	0.9974165607242	2	180
13 fourier 1	2.348375642009	2	180
14 fourier 1	1.256156174911	1	0
15 fourier 1	0.1040663847541	3	0
16 fourier 1	2.687457892086	2	180
17 fourier 1	2.772607909663	2	180
18 fourier 1	0.09692684957115	1	0


Improper Coeffs

1 0.3666666666666667	-1	2
2 0.3333333333333333	-1	2
3 3.5	-1	2


Atoms

1	1	1	-0.41178301	-13.349	3.263	1.046
2	1	2	0.126978	-12.171	2.46	0.949
3	1	2	-0.40637699	-11.284	2.6659999	-0.035999998
4	1	3	0.22183	-11.449	3.4430001	-0.76999998
5	1	2	-0.113702	-10.063	1.84	-0.125
6	1	3	0.204087	-9.3520002	2.053	-0.91399997
7	1	2	-0.12774099	-9.8260002	0.86900002	0.77899998
8	1	2	-0.133984	-8.5900002	0.048	0.70099998
9	1	2	-0.128776	-7.927	-0.30199999	1.817
10	1	3	0.207371	-8.2709999	0.015	2.793
11	1	2	-0.295522	-6.6700001	-1.067	1.73
12	1	3	0.224545	-6.118	-1.283	2.6359999
13	1	2	0.329642	-6.171	-1.424	0.54100001
14	1	4	-0.271494	-4.9200001	-2.052	0.498
15	1	2	0.25878301	-3.776	-1.483	-0.082000002
16	1	2	-0.276932	-3.6960001	-0.17399999	-0.38
17	1	3	0.22877499	-4.5229998	0.495	-0.18099999
18	1	2	-0.14229199	-2.47	0.38299999	-0.98500001
19	1	3	0.216277	-2.4760001	1.438	-1.2130001
20	1	2	-0.258405	-1.398	-0.40400001	-1.234
21	1	5	0.0087829996	-0.090999998	0.116	-1.865
22	1	2	-0.258405	1.115	-0.25799999	-0.98400003
23	1	2	-0.14229199	1.027	-0.197	0.36500001
24	1	3	0.216277	0.098999999	0.068000004	0.85299999
25	1	2	-0.276932	2.197	-0.47799999	1.22
26	1	3	0.22877499	2.082	-0.45899999	2.2969999
27	1	2	0.25878301	3.3929999	-0.72000003	0.67500001
28	1	4	-0.271494	4.487	-0.96899998	1.516
29	1	2	0.329642	5.823	-0.66399997	1.211
30	1	2	-0.295522	6.1420002	0.449	0.52499998
31	1	3	0.224545	5.3720002	1.128	0.185
32	1	2	-0.128776	7.5500002	0.78899997	0.25999999
33	1	3	0.207371	7.7680001	1.683	-0.31099999
34	1	2	-0.133984	8.5380001	-0.001	0.71100003
35	1	2	-0.12774099	9.9580002	0.35100001	0.46399999
36	1	2	-0.12774099	10.853	-0.59600002	0.125
37	1	3	0.204087	10.551	-1.628	0.001
38	1	2	-0.374421	12.269	-0.241	-0.108
39	1	3	0.21827801	12.971	-1.02	-0.38
40	1	2	0.199218	12.678	1.031	0.02
41	1	1	-0.53200501	14.048	1.3789999	-0.198
42	1	6	0.31964901	14.749	0.65700001	-0.477
43	1	2	-0.374421	11.7	2.0769999	0.39399999
44	1	3	0.21827801	12.023	3.105	0.50400001
45	1	2	-0.12774099	10.417	1.7589999	0.60000002
46	1	3	0.204087	9.7189999	2.5350001	0.88700002
47	1	2	-0.056134	8.191	-1.225	1.479
48	1	3	0.206402	8.9919996	-1.834	1.874
49	1	2	-0.32167301	6.9050002	-1.556	1.711
50	1	5	0.76683998	6.546	-2.779	2.523
51	1	7	-0.207357	7.631	-3.6199999	2.7
52	1	7	-0.207357	6.086	-2.382	3.7639999
53	1	7	-0.207357	5.5500002	-3.4909999	1.8789999
54	1	2	-0.276932	3.5220001	-0.75400001	-0.801
55	1	3	0.22877499	4.4790001	-0.96700001	-1.26
56	1	2	-0.14229199	2.4560001	-0.53500003	-1.58
57	1	3	0.216277	2.598	-0.55800003	-2.651
58	1	5	-0.12988099	0.0040000002	-0.51899999	-3.273
59	1	8	0.089360997	0.22	-1.6059999	-3.2060001
60	1	8	0.089360997	-0.95300001	-0.391	-3.823
61	1	8	0.089360997	0.79400003	-0.039000001	-3.8889999
62	1	5	-0.12988099	-0.059	1.654	-2.0350001
63	1	8	0.089360997	-0.847	1.995	-2.74
64	1	8	0.089360997	-0.198	2.1619999	-1.056
65	1	8	0.089360997	0.92000002	1.979	-2.45
66	1	2	-0.14229199	-1.501	-1.853	-0.89499998
67	1	3	0.216277	-0.66399997	-2.5139999	-1.081
68	1	2	-0.276932	-2.6159999	-2.3540001	-0.35100001
69	1	3	0.22877499	-2.6689999	-3.408	-0.109
70	1	2	-0.32167301	-6.9450002	-1.1390001	-0.70599997
71	1	5	0.76683998	-6.467	-1.625	-2.0580001
72	1	7	-0.207357	-7.5419998	-1.8940001	-2.8889999
73	1	7	-0.207357	-5.7309999	-2.789	-1.934
74	1	7	-0.207357	-5.6820002	-0.65100002	-2.6459999
75	1	2	-0.056134	-8.0699997	-0.403	-0.61699998
76	1	3	0.206402	-8.6289997	-0.15899999	-1.513
77	1	2	-0.113702	-10.819	0.63800001	1.8609999
78	1	3	0.204087	-10.667	-0.155	2.5829999
79	1	2	-0.40637699	-11.923	1.391	1.941
80	1	3	0.22183	-12.642	1.2079999	2.7290001
81	1	6	0.37299401	-14.026	3.1199999	1.829
82	1	2	0.76778501	14.373	2.3840001	-0.082000002
83	1	9	-0.65774	15.607	2.635	-0.131
84	1	2	-0.35405701	13.381	3.454	0.133
85	1	2	-0.074716002	13.754	4.7389998	0.285
86	1	3	0.222968	14.798	5.026	0.25400001
87	1	2	-0.243387	12.737	5.7870002	0.498
88	1	3	0.213259	13.046	6.8179998	0.62
89	1	2	-0.022552	11.439	5.4679999	0.542
90	1	3	0.22249299	10.705	6.2490001	0.69999999
91	1	2	-0.29308099	11.01	4.0560002	0.37599999
92	1	2	0.58779103	9.5819998	3.6949999	0.42300001
93	1	9	-0.52578098	8.6990004	4.5749998	0.60399997
94	1	2	0.05638	11.94	3.1040001	0.182
95	1	3	0.240091	11.643	2.069	0.059
96	1	1	-0.41178301	-13.554	4.0089998	0.345
97	1	2	0.126978	-12.51	4.8119998	-0.20900001
98	1	2	-0.40637699	-11.232	4.6059999	0.14300001
99	1	3	0.22183	-10.975	3.8280001	0.85000002
100	1	2	-0.113702	-10.156	5.4320002	-0.44100001
101	1	3	0.204087	-9.132	5.2189999	-0.15899999
102	1	2	-0.12774099	-10.443	6.402	-1.33
103	1	2	-0.133984	-9.3599997	7.224	-1.931
104	1	2	-0.128776	-9.4029999	7.5739999	-3.2279999
105	1	3	0.207371	-10.219	7.257	-3.865
106	1	2	-0.295522	-8.2980003	8.3389997	-3.8329999
107	1	3	0.224545	-8.3219995	8.5539999	-4.8930001
108	1	2	0.329642	-7.2360001	8.6960001	-3.0999999
109	1	4	-0.271494	-6.1599998	9.3240004	-3.7379999
110	1	2	0.25878301	-4.8829999	8.7550001	-3.8670001
111	1	2	-0.276932	-4.6550002	7.4460001	-3.658
112	1	3	0.22877499	-5.4590001	6.777	-3.3800001
113	1	2	-0.14229199	-3.2969999	6.8889999	-3.8099999
114	1	3	0.216277	-3.1789999	5.8330002	-3.615
115	1	2	-0.258405	-2.26	7.6760001	-4.1789999
116	1	5	0.0087829996	-0.81800002	7.1550002	-4.3520002
117	1	2	-0.258405	-0.278	7.5300002	-5.744
118	1	2	-0.14229199	-1.079	7.4689999	-6.8319998
119	1	3	0.216277	-2.1240001	7.204	-6.743
120	1	2	-0.276932	-0.55500001	7.75	-8.1829996
121	1	3	0.22877499	-1.232	7.7309999	-9.0290003
122	1	2	0.25878301	0.74599999	7.9910002	-8.3690004
123	1	4	-0.271494	1.214	8.2410002	-9.6669998
124	1	2	0.329642	2.5039999	7.9359999	-10.13
125	1	2	-0.295522	3.142	6.823	-9.7250004
126	1	3	0.224545	2.677	6.1440001	-9.0229998
127	1	2	-0.128776	4.4710002	6.4829998	-10.261
128	1	3	0.207371	4.9619999	5.5890002	-9.8970003
129	1	2	-0.133984	5.0599999	7.2729998	-11.173
130	1	2	-0.12774099	6.3899999	6.921	-11.731
131	1	2	-0.077032	7.3260002	7.868	-11.928
132	1	3	0.204087	7.138	8.8999996	-11.661
133	1	2	-0.45053801	8.6440001	7.513	-12.495
134	1	3	0.230368	9.3809996	8.2919998	-12.644
135	1	2	0.31876099	8.9189997	6.2410002	-12.823
136	1	1	-0.84454298	10.191	5.8930001	-13.378
137	1	6	0.36666799	10.398	4.9060001	-13.646
138	1	6	0.36666799	10.932	6.6149998	-13.521
139	1	2	-0.45053801	7.895	5.1950002	-12.611
140	1	3	0.230369	8.1070004	4.1659999	-12.877
141	1	2	-0.077032	6.7030001	5.513	-12.093
142	1	3	0.204087	5.96	4.737	-11.958
143	1	2	-0.056134	4.3530002	8.4960003	-11.633
144	1	3	0.206402	4.816	9.1059999	-12.397
145	1	2	-0.32167301	3.1459999	8.8280001	-11.135
146	1	5	0.76683998	2.405	10.051	-11.625
147	1	7	-0.207357	3.224	10.892	-12.359
148	1	7	-0.207357	1.349	9.6540003	-12.423
149	1	7	-0.207357	1.914	10.763	-10.546
150	1	2	-0.276932	1.651	8.026	-7.1950002
151	1	3	0.22877499	2.704	8.2390003	-7.3249998
152	1	2	-0.14229199	1.173	7.8070002	-5.9640002
153	1	3	0.216277	1.87	7.8299999	-5.1389999
154	1	5	-0.12988099	0.021	7.7909999	-3.217
155	1	8	0.089360997	0.16599999	8.8780003	-3.3900001
156	1	8	0.089360997	-0.49000001	7.6630001	-2.237
157	1	8	0.089360997	1.018	7.3109999	-3.1240001
158	1	5	-0.12988099	-0.69999999	5.618	-4.2249999
159	1	8	0.089360997	-0.98400003	5.277	-3.207
160	1	8	0.089360997	-1.345	5.1100001	-4.9749999
161	1	8	0.089360997	0.34900001	5.2930002	-4.4039998
162	1	2	-0.14229199	-2.529	9.125	-4.408
163	1	3	0.216277	-1.724	9.7860003	-4.7030001
164	1	2	-0.276932	-3.7609999	9.6260004	-4.2649999
165	1	3	0.22877499	-3.937	10.68	-4.441
166	1	2	-0.32167301	-7.2160001	8.4110003	-1.632
167	1	5	0.76683998	-6.085	8.8970003	-0.75099999
168	1	7	-0.207357	-6.5409999	9.165	0.528
169	1	7	-0.207357	-5.5320001	10.061	-1.253
170	1	7	-0.207357	-5.1059999	7.9229999	-0.68000001
171	1	2	-0.056134	-8.2110004	7.6739998	-1.101
172	1	3	0.206402	-8.1999998	7.4310002	-0.045000002
173	1	2	-0.113702	-11.863	6.6339998	-1.706
174	1	3	0.204087	-12.124	7.4260001	-2.395
175	1	2	-0.40637699	-12.836	5.881	-1.178
176	1	3	0.22183	-13.866	6.0640001	-1.455
177	1	6	0.37299401	-14.546	4.152	0.050000001
178	1	2	0.58779103	9.276	2.664	0.30199999
179	1	9	-0.52578098	9.5609999	2.066	-0.77100003
180	1	2	-0.288573	8.54	1.987	1.385
181	1	2	-0.022552	8.1429996	0.70599997	1.271
182	1	3	0.22249299	8.3529997	0.132	0.377
183	1	2	-0.24453799	7.4070001	0.056000002	2.3729999
184	1	3	0.213259	7.092	-0.97500002	2.2720001
185	1	2	-0.060513001	7.1300001	0.73500001	3.4920001
186	1	3	0.233421	6.5890002	0.241	4.289
187	1	2	-0.21840701	7.559	2.1489999	3.638
188	1	2	0.83878303	7.2449999	2.8870001	4.881
189	1	9	-0.48739001	7.6009998	4.0890002	5.0229998
190	1	10	-0.66513401	6.5500002	2.256	5.9089999
191	1	11	0.41795501	6.3280001	2.7490001	6.7659998
192	1	2	0.073112004	8.2309999	2.737	2.628
193	1	3	0.25016299	8.5550003	3.7679999	2.7090001

Bonds

1	1	1	2
2	2	1	81
3	3	1	96
4	4	2	3
5	4	2	79
6	5	3	4
7	4	3	5
8	5	5	6
9	4	5	7
10	6	7	8
11	4	7	77
12	4	8	9
13	4	8	75
14	5	9	10
15	4	9	11
16	5	11	12
17	4	11	13
18	7	13	14
19	4	13	70
20	7	14	15
21	4	15	16
22	4	15	68
23	5	16	17
24	4	16	18
25	5	18	19
26	4	18	20
27	8	20	21
28	4	20	66
29	8	21	22
30	9	21	58
31	9	21	62
32	4	22	23
33	4	22	56
34	5	23	24
35	4	23	25
36	5	25	26
37	4	25	27
38	7	27	28
39	4	27	54
40	7	28	29
41	4	29	30
42	4	29	49
43	5	30	31
44	4	30	32
45	5	32	33
46	4	32	34
47	6	34	35
48	4	34	47
49	4	35	36
50	4	35	45
51	5	36	37
52	4	36	38
53	5	38	39
54	4	38	40
55	1	40	41
56	4	40	43
57	2	41	42
58	10	41	82
59	5	43	44
60	4	43	45
61	5	45	46
62	5	47	48
63	4	47	49
64	8	49	50
65	11	50	51
66	11	50	52
67	11	50	53
68	5	54	55
69	4	54	56
70	5	56	57
71	12	58	59
72	12	58	60
73	12	58	61
74	12	62	63
75	12	62	64
76	12	62	65
77	5	66	67
78	4	66	68
79	5	68	69
80	8	70	71
81	4	70	75
82	11	71	72
83	11	71	73
84	11	71	74
85	5	75	76
86	5	77	78
87	4	77	79
88	5	79	80
89	13	82	83
90	6	82	84
91	4	84	85
92	4	84	94
93	5	85	86
94	4	85	87
95	5	87	88
96	4	87	89
97	5	89	90
98	4	89	91
99	6	91	92
100	4	91	94
101	13	92	93
102	6	92	178
103	5	94	95
104	1	96	97
105	2	96	177
106	4	97	98
107	4	97	175
108	5	98	99
109	4	98	100
110	5	100	101
111	4	100	102
112	6	102	103
113	4	102	173
114	4	103	104
115	4	103	171
116	5	104	105
117	4	104	106
118	5	106	107
119	4	106	108
120	7	108	109
121	4	108	166
122	7	109	110
123	4	110	111
124	4	110	164
125	5	111	112
126	4	111	113
127	5	113	114
128	4	113	115
129	8	115	116
130	4	115	162
131	8	116	117
132	9	116	154
133	9	116	158
134	4	117	118
135	4	117	152
136	5	118	119
137	4	118	120
138	5	120	121
139	4	120	122
140	7	122	123
141	4	122	150
142	7	123	124
143	4	124	125
144	4	124	145
145	5	125	126
146	4	125	127
147	5	127	128
148	4	127	129
149	6	129	130
150	4	129	143
151	4	130	131
152	4	130	141
153	5	131	132
154	4	131	133
155	5	133	134
156	4	133	135
157	1	135	136
158	4	135	139
159	2	136	137
160	2	136	138
161	5	139	140
162	4	139	141
163	5	141	142
164	5	143	144
165	4	143	145
166	8	145	146
167	11	146	147
168	11	146	148
169	11	146	149
170	5	150	151
171	4	150	152
172	5	152	153
173	12	154	155
174	12	154	156
175	12	154	157
176	12	158	159
177	12	158	160
178	12	158	161
179	5	162	163
180	4	162	164
181	5	164	165
182	8	166	167
183	4	166	171
184	11	167	168
185	11	167	169
186	11	167	170
187	5	171	172
188	5	173	174
189	4	173	175
190	5	175	176
191	13	178	179
192	6	178	180
193	4	180	181
194	4	180	192
195	5	181	182
196	4	181	183
197	5	183	184
198	4	183	185
199	5	185	186
200	4	185	187
201	6	187	188
202	4	187	192
203	13	188	189
204	14	188	190
205	15	190	191
206	5	192	193

Angles

1	4	107	106	108
2	6	51	50	53
3	1	27	54	56
4	2	40	41	82
5	4	103	171	172
6	1	109	110	164
7	1	34	35	36
8	4	124	125	126
9	1	130	131	133
10	4	140	139	141
11	5	188	190	191
12	1	23	22	56
13	6	116	158	159
14	4	12	11	13
15	1	41	82	84
16	1	133	135	136
17	4	39	38	40
18	4	77	79	80
19	1	116	117	152
20	1	111	110	164
21	1	180	192	187
22	1	180	181	183
23	4	117	152	153
24	4	7	77	78
25	6	145	146	149
26	1	16	18	20
27	6	117	116	158
28	1	92	178	179
29	4	110	111	112
30	1	102	103	171
31	4	151	150	152
32	1	143	145	146
33	4	22	56	57
34	4	103	104	105
35	1	117	118	120
36	4	102	173	174
37	1	34	35	45
38	1	188	187	192
39	7	155	154	157
40	1	102	103	104
41	4	26	25	27
42	1	5	7	77
43	1	116	117	118
44	6	21	62	63
45	4	8	9	10
46	6	49	50	53
47	1	82	84	85
48	1	87	89	91
49	6	20	21	58
50	1	7	8	75
51	1	123	122	150
52	1	21	22	23
53	1	38	40	43
54	6	169	167	170
55	6	166	167	170
56	4	134	133	135
57	7	59	58	60
58	1	84	85	87
59	6	22	21	62
60	4	130	131	132
61	4	105	104	106
62	1	91	92	178
63	6	72	71	74
64	4	30	32	33
65	1	106	108	109
66	1	178	180	192
67	4	173	175	176
68	4	119	118	120
69	2	1	96	97
70	3	42	41	82
71	1	136	135	139
72	1	29	49	47
73	1	125	127	129
74	4	128	127	129
75	1	103	102	173
76	1	167	166	171
77	1	97	98	100
78	4	16	18	19
79	1	92	91	94
80	1	179	178	180
81	7	159	158	161
82	1	108	166	167
83	4	20	66	67
84	8	189	188	190
85	4	36	38	39
86	1	122	150	152
87	1	100	102	103
88	4	117	118	119
89	6	21	62	64
90	2	2	1	96
91	1	2	3	5
92	1	123	124	145
93	1	187	188	189
94	1	15	68	66
95	1	25	27	54
96	1	92	178	180
97	1	104	106	108
98	5	27	28	29
99	7	155	154	156
100	4	150	152	153
101	4	129	143	144
102	6	72	71	73
103	1	89	91	94
104	4	121	120	122
105	1	113	115	116
106	4	66	68	69
107	1	16	15	68
108	1	118	120	122
109	4	40	43	44
110	6	21	58	59
111	1	115	162	164
112	1	110	164	162
113	4	101	100	102
114	6	168	167	169
115	1	36	35	45
116	7	160	158	161
117	6	52	50	53
118	6	116	154	157
119	1	85	87	89
120	4	31	30	32
121	1	106	108	166
122	4	8	75	76
123	4	29	30	31
124	4	84	85	86
125	6	117	116	154
126	7	156	154	157
127	1	20	66	68
128	6	115	116	158
129	1	36	38	40
130	1	32	34	35
131	4	139	141	142
132	1	118	117	152
133	1	131	133	135
134	4	183	185	186
135	4	125	127	128
136	6	70	71	72
137	1	34	47	49
138	1	8	75	70
139	4	48	47	49
140	4	97	98	99
141	4	182	181	183
142	1	111	113	115
143	7	159	158	160
144	1	104	103	171
145	4	181	183	184
146	4	122	150	151
147	6	116	158	161
148	6	21	58	60
149	1	9	8	75
150	4	132	131	133
151	1	127	129	130
152	1	181	180	192
153	4	2	3	4
154	6	20	21	62
155	4	4	3	5
156	1	113	115	162
157	1	100	102	173
158	1	98	100	102
159	4	112	111	113
160	4	104	106	107
161	3	40	41	42
162	1	120	122	150
163	4	10	9	11
164	1	14	13	70
165	1	29	30	32
166	4	22	23	24
167	1	124	145	143
168	1	82	84	94
169	6	51	50	52
170	1	9	11	13
171	1	127	129	143
172	1	120	122	123
173	4	17	16	18
174	6	49	50	51
175	1	116	115	162
176	6	115	116	117
177	1	131	130	141
178	1	183	185	187
179	1	185	187	192
180	1	178	180	181
181	1	3	5	7
182	4	6	5	7
183	4	186	185	187
184	1	91	92	93
185	4	44	43	45
186	4	110	164	165
187	3	135	136	138
188	7	63	62	65
189	1	23	25	27
190	4	86	85	87
191	1	130	129	143
192	1	97	175	173
193	1	13	70	71
194	1	41	82	83
195	3	2	1	81
196	4	162	164	165
197	4	131	133	134
198	1	28	27	54
199	4	184	183	185
200	6	70	71	74
201	4	99	98	100
202	3	1	96	177
203	4	91	94	95
204	5	13	14	15
205	6	145	146	148
206	4	78	77	79
207	4	111	113	114
208	1	8	7	77
209	1	28	29	30
210	4	37	36	38
211	1	1	2	3
212	6	154	116	158
213	1	38	40	41
214	6	49	50	52
215	7	64	62	65
216	1	185	187	188
217	6	20	21	22
218	4	27	54	55
219	4	88	87	89
220	4	187	192	193
221	1	35	36	38
222	1	129	130	131
223	1	35	45	43
224	4	87	89	90
225	6	115	116	154
226	1	22	23	25
227	6	58	21	62
228	1	102	173	175
229	6	147	146	149
230	6	166	167	169
231	1	47	49	50
232	5	108	109	110
233	1	14	15	16
234	3	135	136	137
235	1	124	145	146
236	4	130	141	142
237	4	2	79	80
238	3	97	96	177
239	1	21	20	66
240	4	33	32	34
241	1	98	97	175
242	7	60	58	61
243	6	145	146	147
244	1	11	13	70
245	1	8	9	11
246	4	97	175	176
247	6	148	146	149
248	1	21	22	56
249	1	41	40	43
250	1	71	70	75
251	7	59	58	61
252	1	22	56	54
253	3	137	136	138
254	1	129	130	141
255	4	118	120	121
256	4	115	162	163
257	1	5	7	8
258	1	135	139	141
259	1	130	141	139
260	1	2	79	77
261	4	67	66	68
262	1	13	70	75
263	4	114	113	115
264	4	70	75	76
265	6	116	154	156
266	4	85	87	88
267	1	30	32	34
268	6	147	146	148
269	1	29	49	50
270	1	129	143	145
271	1	84	94	91
272	1	15	16	18
273	6	166	167	168
274	6	21	62	65
275	6	73	71	74
276	4	34	47	48
277	4	54	56	57
278	6	168	167	170
279	1	32	34	47
280	1	25	27	28
281	1	93	92	178
282	1	85	84	94
283	1	40	43	45
284	1	96	97	98
285	1	7	8	9
286	1	83	82	84
287	4	84	94	95
288	1	117	152	150
289	4	24	23	25
290	6	116	158	160
291	4	19	18	20
292	1	11	13	14
293	4	35	45	46
294	4	43	45	46
295	4	98	100	101
296	4	163	162	164
297	1	123	124	125
298	1	124	125	127
299	1	7	77	79
300	1	125	124	145
301	4	174	173	175
302	1	89	91	92
303	1	1	2	79
304	1	35	34	47
305	1	103	171	166
306	6	22	21	58
307	1	110	111	113
308	4	135	139	140
309	4	15	68	69
310	4	9	11	12
311	6	70	71	73
312	1	187	188	190
313	1	103	104	106
314	1	18	20	66
315	3	81	1	96
316	1	133	135	139
317	4	90	89	91
318	1	109	110	111
319	7	63	62	64
320	4	126	125	127
321	4	23	25	26
322	4	180	181	182
323	4	55	54	56
324	1	3	2	79
325	6	116	154	155
326	1	30	29	49
327	4	166	171	172
328	1	14	15	68
329	1	28	29	49
330	4	15	16	17
331	4	3	5	6
332	6	21	58	61
333	1	96	97	175
334	1	108	166	171
335	1	109	108	166
336	5	122	123	124
337	1	181	183	185
338	4	144	143	145
339	1	18	20	21
340	4	180	192	193
341	4	35	36	37

Dihedrals

1	1	97	175	173	102
2	1	125	127	129	130
3	7	115	116	154	155
4	1	15	68	66	20
5	1	21	20	66	67
6	1	26	25	27	54
7	1	38	36	35	45
8	1	22	56	54	27
9	1	48	47	49	50
10	7	20	21	58	60
11	1	136	135	139	141
12	1	103	171	166	167
13	1	2	79	77	7
14	1	109	110	164	165
15	1	97	98	100	101
16	1	98	97	175	173
17	1	41	40	43	44
18	1	109	108	166	167
19	10	40	41	82	84
19	11	40	41	82	84
20	1	82	84	94	95
21	1	105	104	103	171
22	1	182	181	183	184
23	1	90	89	91	94
24	1	101	100	102	173
25	1	128	127	129	143
26	1	130	141	139	135
27	15	58	21	62	64
28	6	117	116	115	162
29	1	11	13	70	71
30	1	34	47	49	50
31	1	125	124	145	143
32	1	3	2	79	77
33	6	29	49	50	52
34	1	125	127	129	143
35	1	132	131	133	135
36	1	28	29	30	32
37	1	130	131	133	135
38	6	18	20	21	58
39	2	38	40	41	42
40	1	116	115	162	163
41	1	118	117	152	150
42	1	184	183	185	187
43	4	32	34	35	36
44	1	105	104	106	107
45	6	108	166	167	169
46	1	33	32	34	47
47	1	34	35	45	43
48	5	11	13	14	15
49	1	131	130	141	139
50	16	187	188	190	191
51	1	84	94	91	92
52	6	23	22	21	62
53	5	110	109	108	166
54	6	143	145	146	148
55	1	98	100	102	103
56	1	22	56	54	55
57	2	3	2	1	81
58	6	115	116	117	152
59	6	62	21	20	66
60	2	98	97	96	177
61	1	182	181	180	192
62	1	35	34	47	48
63	1	6	5	7	77
64	1	21	20	66	68
65	1	84	85	87	89
66	1	109	110	164	162
67	1	100	102	173	174
68	1	3	5	7	77
69	15	60	58	21	62
70	1	115	162	164	165
71	1	126	125	127	129
72	1	15	68	66	67
73	1	7	77	79	80
74	1	180	181	183	185
75	5	122	123	124	125
76	1	7	8	75	76
77	4	32	34	35	45
78	1	2	3	5	7
79	5	25	27	28	29
80	7	115	116	158	159
81	6	118	117	116	154
82	4	100	102	103	171
83	12	89	91	92	178
84	10	42	41	82	84
84	11	42	41	82	84
85	1	8	9	11	12
86	1	117	118	120	122
87	1	24	23	25	26
88	1	133	135	139	141
89	1	111	113	115	116
90	6	115	116	117	118
91	1	10	9	8	75
92	12	179	178	180	192
93	12	41	82	84	94
94	1	99	98	100	102
95	1	14	15	68	66
96	6	152	117	116	154
97	1	16	18	20	66
98	1	7	8	75	70
99	1	44	43	45	46
100	1	114	113	115	162
101	1	132	131	133	134
102	1	36	38	40	43
103	1	38	40	43	45
104	2	1	96	97	98
105	4	45	35	34	47
106	7	117	116	154	157
107	1	130	131	133	134
108	6	13	70	71	73
109	4	5	7	8	75
110	1	120	122	150	152
111	1	21	22	23	25
112	1	8	7	77	79
113	6	108	166	167	168
114	6	72	71	70	75
115	4	5	7	8	9
116	1	30	32	34	35
117	1	98	97	175	176
118	6	74	71	70	75
119	6	113	115	116	158
120	1	35	45	43	40
121	1	178	180	181	182
122	1	127	125	124	145
123	1	18	16	15	68
124	1	31	30	32	34
125	1	106	108	166	167
126	1	25	23	22	56
127	1	125	124	145	146
128	1	3	2	79	80
129	6	143	145	146	147
130	5	13	14	15	68
131	1	86	85	87	89
132	1	24	23	22	56
133	1	1	2	3	5
134	1	18	20	66	67
135	12	185	187	188	189
136	1	103	104	106	107
137	1	33	32	34	35
138	5	13	14	15	16
139	1	19	18	20	21
140	12	83	82	84	94
141	1	98	100	102	173
142	3	2	1	96	97
143	1	30	29	49	47
144	1	131	130	141	142
145	7	117	116	158	161
146	1	82	84	94	91
147	1	29	49	47	48
148	1	129	143	145	146
149	12	93	92	178	179
150	1	126	125	127	128
151	4	75	8	7	77
152	1	36	35	45	43
153	1	135	139	141	142
154	1	11	13	70	75
155	1	2	3	5	6
156	15	154	116	158	160
157	1	104	103	171	166
158	6	124	145	146	148
159	1	39	38	40	43
160	1	130	129	143	144
161	6	47	49	50	53
162	6	18	20	21	62
163	1	23	22	56	57
164	6	22	21	20	66
165	1	118	120	122	150
166	2	38	40	41	82
167	2	1	96	97	175
168	13	42	41	82	83
168	14	42	41	82	83
169	15	61	58	21	62
170	1	116	117	118	120
171	4	171	103	102	173
172	1	117	118	120	121
173	1	133	135	139	140
174	1	16	15	68	66
175	6	20	21	22	56
176	15	59	58	21	62
177	1	118	120	122	123
178	1	15	16	18	20
179	1	85	87	89	91
180	1	82	84	85	87
181	1	40	43	45	46
182	1	132	131	130	141
183	1	5	7	77	79
184	1	102	103	104	106
185	1	178	180	181	183
186	7	117	116	154	156
187	7	115	116	154	157
188	2	175	97	96	177
189	1	104	106	108	109
190	6	113	115	116	117
191	1	96	97	98	99
192	1	116	117	152	153
193	1	120	122	150	151
194	1	34	35	36	38
195	1	108	166	171	172
196	1	22	23	25	26
197	1	186	185	187	188
198	1	67	66	68	69
199	2	79	2	1	96
200	4	127	129	130	141
201	1	180	192	187	188
202	1	4	3	5	7
203	1	13	70	75	76
204	1	14	13	70	71
205	1	96	97	175	176
206	1	134	133	135	136
207	1	21	22	56	54
208	1	9	11	13	70
209	1	1	2	79	77
210	1	37	36	38	39
211	1	31	30	29	49
212	1	106	104	103	171
213	1	123	124	125	127
214	1	133	131	130	141
215	1	123	122	150	152
216	1	35	36	38	39
217	1	104	103	171	172
218	1	103	102	173	175
219	1	1	2	3	4
220	1	117	152	150	151
221	1	129	130	131	132
222	1	29	30	32	34
223	5	108	109	110	111
224	5	27	28	29	30
225	1	122	150	152	153
226	1	110	164	162	163
227	7	117	116	158	160
228	2	133	135	136	137
229	1	28	29	49	50
230	7	22	21	62	65
231	1	25	27	54	55
232	1	8	75	70	13
233	1	124	145	143	144
234	15	154	116	158	159
235	6	124	145	146	147
236	12	89	91	92	93
237	1	78	77	79	80
238	2	43	40	41	82
239	1	7	8	9	11
240	12	179	178	180	181
241	1	113	111	110	164
242	1	87	89	91	92
243	1	116	117	152	150
244	1	180	192	187	185
245	12	93	92	178	180
246	4	141	130	129	143
247	1	32	34	47	49
248	7	20	21	62	65
249	4	104	103	102	173
250	1	116	117	118	119
251	1	136	135	139	140
252	6	18	20	21	22
253	1	8	75	70	71
254	1	109	110	111	113
255	1	113	115	162	164
256	1	10	9	11	13
257	5	122	123	124	145
258	1	23	25	27	54
259	1	104	106	108	166
260	1	96	97	175	173
261	8	40	41	82	83
261	9	40	41	82	83
262	15	157	154	116	158
263	12	93	92	91	94
264	1	181	183	185	186
265	1	88	87	89	91
266	6	113	115	116	154
267	1	35	45	43	44
268	1	110	111	113	115
269	1	5	7	77	78
270	1	37	36	38	40
271	1	103	171	166	108
272	2	3	2	1	96
273	7	115	116	158	161
274	1	123	124	125	126
275	1	163	162	164	165
276	1	35	36	38	40
277	1	151	150	152	153
278	5	27	28	29	49
279	1	37	36	35	45
280	1	97	175	173	174
281	1	180	181	183	184
282	1	101	100	102	103
283	1	14	15	68	69
284	7	22	21	58	61
285	1	97	98	100	102
286	1	4	3	5	6
287	4	127	129	130	131
288	12	189	188	187	192
289	1	87	85	84	94
290	1	178	180	192	193
291	1	119	118	120	122
292	1	9	11	13	14
293	7	20	21	58	61
294	15	156	154	116	158
295	1	26	25	27	28
296	1	25	27	54	56
297	1	16	18	20	21
298	6	158	116	115	162
299	1	41	40	43	45
300	1	116	115	162	164
301	6	56	22	21	58
302	1	5	3	2	79
303	1	105	104	106	108
304	6	108	166	167	170
305	1	84	85	87	88
306	1	112	111	113	115
307	6	29	49	50	53
308	17	189	188	190	191
308	18	189	188	190	191
309	1	134	133	135	139
310	1	186	185	187	192
311	4	36	35	34	47
312	1	185	187	192	193
313	3	2	1	96	177
314	1	1	2	79	80
315	1	130	141	139	140
316	1	178	180	192	187
317	1	181	180	192	193
318	1	181	183	185	187
319	1	9	8	75	76
320	6	143	145	146	149
321	1	182	181	183	185
322	1	111	113	115	162
323	1	131	133	135	136
324	1	129	130	141	139
325	1	124	125	127	129
326	12	94	91	92	178
327	1	110	164	162	115
328	5	15	14	13	70
329	12	190	188	187	192
330	6	47	49	50	51
331	1	31	30	32	33
332	1	38	40	43	44
333	1	121	120	122	123
334	1	109	110	111	112
335	1	100	102	173	175
336	1	113	115	162	163
337	1	10	9	11	12
338	6	13	70	71	72
339	1	14	13	70	75
340	1	23	22	56	54
341	1	34	35	45	46
342	1	102	103	171	166
343	1	90	89	91	92
344	1	88	87	89	90
345	1	99	98	100	101
346	1	110	111	113	114
347	5	106	108	109	110
348	1	35	34	47	49
349	1	181	180	192	187
350	1	14	15	16	18
351	1	16	15	68	69
352	1	92	91	94	95
353	6	73	71	70	75
354	1	119	118	117	152
355	1	8	7	77	78
356	1	188	187	192	193
357	1	8	9	11	13
358	1	18	20	66	68
359	1	183	181	180	192
360	1	111	110	164	162
361	1	29	49	47	34
362	1	30	32	34	47
363	2	137	136	135	139
364	1	167	166	171	172
365	1	39	38	40	41
366	1	119	118	120	121
367	1	107	106	108	109
368	6	168	167	166	171
369	1	124	145	143	129
370	1	21	22	23	24
371	1	24	23	25	27
372	1	86	85	87	88
373	1	102	173	175	176
374	1	21	22	56	57
375	1	2	79	77	78
376	1	127	129	143	145
377	1	23	25	27	28
378	1	114	113	115	116
379	6	47	49	50	52
380	1	6	5	7	8
381	1	28	27	54	55
382	1	112	111	113	114
383	1	109	108	166	171
384	1	102	103	171	172
385	1	27	54	56	57
386	1	117	152	150	122
387	1	3	5	7	8
388	6	20	21	22	23
389	1	17	16	18	20
390	6	58	21	20	66
391	4	9	8	7	77
392	1	34	35	36	37
393	1	100	98	97	175
394	1	86	85	84	94
395	1	99	98	97	175
396	7	22	21	62	63
397	1	124	125	127	128
398	1	12	11	13	70
399	1	103	104	106	108
400	12	91	92	178	179
401	12	92	178	180	181
402	6	13	70	71	74
403	7	20	21	62	63
404	1	55	54	56	57
405	1	15	16	18	19
406	1	85	87	89	90
407	1	82	84	85	86
408	5	108	109	110	164
409	1	123	124	145	146
410	6	23	22	21	58
411	12	92	178	180	192
412	1	144	143	145	146
413	1	126	125	124	145
414	1	29	30	32	33
415	1	102	103	104	105
416	6	124	145	146	149
417	2	138	136	135	139
418	1	130	129	143	145
419	15	154	116	158	161
420	1	183	185	187	192
421	1	131	133	135	139
422	1	129	130	141	142
423	7	117	116	154	155
424	1	14	15	16	17
425	1	20	66	68	69
426	7	115	116	154	156
427	6	154	116	115	162
428	1	71	70	75	76
429	1	107	106	108	166
430	1	87	89	91	94
431	6	56	22	21	62
432	1	4	3	2	79
433	2	42	41	40	43
434	1	28	29	49	47
435	1	85	84	94	91
436	7	22	21	58	59
437	4	131	130	129	143
438	1	28	27	54	56
439	1	30	29	49	50
440	12	41	82	84	85
441	1	174	173	175	176
442	4	100	102	103	104
443	1	84	94	91	89
444	1	123	122	150	151
445	1	112	111	110	164
446	1	36	35	45	46
447	1	103	102	173	174
448	1	19	18	20	66
449	6	118	117	116	158
450	7	20	21	58	59
451	1	96	97	98	100
452	1	7	8	9	10
453	7	22	21	62	64
454	1	89	91	94	95
455	1	120	118	117	152
456	1	127	129	143	144
457	15	58	21	62	65
458	1	111	110	164	165
459	1	85	84	94	95
460	3	81	1	96	97
461	15	58	21	62	63
462	5	124	123	122	150
463	7	117	116	158	159
464	15	155	154	116	158
465	6	170	167	166	171
466	1	32	34	47	48
467	1	183	185	187	188
468	6	29	49	50	51
469	6	169	167	166	171
470	6	152	117	116	158
471	1	17	16	18	19
472	7	20	21	62	64
473	1	36	38	40	41
474	3	81	1	96	177
475	1	28	29	30	31
476	1	11	9	8	75
477	1	123	124	145	143
478	1	22	23	25	27
479	1	184	183	185	186
480	12	185	187	188	190
481	1	121	120	122	150
482	1	118	117	152	153
483	1	129	130	131	133
484	12	83	82	84	85
485	5	120	122	123	124
486	1	12	11	13	14
487	2	79	2	1	81
488	1	140	139	141	142
489	2	133	135	136	138
490	1	106	108	166	171
491	1	17	16	15	68
492	7	22	21	58	60
493	1	128	127	129	130
494	1	32	30	29	49
495	12	91	92	178	180
496	1	9	8	75	70
497	5	29	28	27	54
498	7	115	116	158	160

Impropers

1	1	100	102	98	101
3	1	79	80	2	77
5	1	85	86	87	84
6	1	185	186	187	183
9	1	7	77	5	8
12	1	145	143	146	124
13	1	104	105	106	103
20	1	27	25	28	54
21	1	111	112	113	110
24	1	139	135	140	141
27	1	127	129	125	128
28	1	124	123	125	145
30	1	139	140	141	135
34	1	49	50	29	47
37	1	54	27	55	56
39	1	56	54	57	22
41	1	118	117	119	120
42	1	13	11	14	70
43	1	3	2	4	5
45	1	45	46	35	43
47	1	104	103	105	106
48	1	7	5	8	77
55	1	129	127	130	143
61	2	96	177	1	97
62	1	89	90	91	87
63	1	85	87	84	86
64	1	87	88	89	85
65	2	136	137	138	135
66	1	11	13	9	12
68	1	30	29	31	32
73	2	96	97	177	1
74	1	131	133	130	132
75	1	35	36	45	34
78	1	122	120	123	150
80	2	1	81	96	2
87	1	79	2	77	80
93	1	183	185	181	184
94	1	84	94	82	85
97	1	13	70	11	14
107	1	36	37	38	35
109	1	5	6	7	3
110	3	188	189	190	187
111	2	136	135	137	138
114	1	143	129	144	145
119	1	106	107	108	104
120	1	82	84	41	83
122	1	178	179	180	92
128	1	187	192	185	188
130	1	43	40	44	45
135	1	66	20	67	68
137	1	68	66	69	15
138	1	92	178	91	93
143	1	25	27	23	26
150	1	38	36	39	40
152	1	89	91	87	90
153	3	188	187	189	190
155	1	87	89	85	88
156	1	120	118	121	122
157	1	164	165	110	162
158	1	16	17	18	15
160	1	115	162	113	116
161	1	180	181	192	178
164	1	110	109	111	164
171	1	18	20	16	19
175	1	129	130	143	127