Title

9250 atoms
9625 bonds
16250 angles
24125 dihedrals
9750 impropers

9 atom types
13 bond types
6 angle types
13 dihedral types
2 improper types
-11.23285468 111.7964606 xlo xhi
-10.97811816 111.0219425 ylo yhi
-11.31465022 112.3187045 zlo zhi
0.0 0.0 0.0 xy xz yz

Masses

1	15.99943
2	12.01078
3	1.007947
4	12.01078
5	1.007947
6	15.99943
7	15.99943
8	1.007947
9	35.4532


Pair Coeffs

1	0.16846514	3.0251065
2	0.086879315	3.4806469
3	0.015611343	2.5725815
4	0.10884061	3.3795318
5	0.015779483	2.6445434
6	0.2102061	3.0398122
7	0.20947353	2.99716
8	1.2326e-05	0.53453923
9	0.2656001	3.3075278

Bond Coeffs

1 harmonic	425.69104206635	1.362945806494
2 harmonic	300.03137914615	1.451203938761
3 harmonic	360.7852444772	1.387193227181
4 harmonic	397.2545789619	1.085358495916
5 harmonic	289.73813263395	1.498646816465
6 harmonic	264.62148576755	1.52190126495
7 harmonic	301.15400723785	1.345741232799
8 harmonic	370.04670688625	1.093899492634
9 harmonic	582.698766451	1.225198386222
10 harmonic	279.1350963404	1.454628925034
11 harmonic	385.7604595587	1.369745182308
12 harmonic	543.5267831885	0.9716763312559
13 harmonic	218.0227703685	1.746066037062


Angle Coeffs

1 harmonic	57.8982893754	126.8062420451
2 harmonic	65.09061609600001	110.3538806181
3 harmonic	34.066775159195	129.1835929926
4 harmonic	53.20531626545	116.5475862634
5 harmonic	201.41175231035	127.4691416191
6 harmonic	48.776492647595	115.6030999533


Dihedral Coeffs

1 fourier 1	3.661930099076	2	180
2 fourier 1	1.532232714475	2	180
3 fourier 1	0.457973137376	1	0
4 fourier 1	0.02664938770063	3	0
5 fourier 1	0.1155372516788	3	0
6 fourier 1	0.1040663847541	3	0
7 fourier 1	2.779853741805	2	180
8 fourier 1	0.9974165607242	2	180
9 fourier 1	0.09223874044423	3	0
10 fourier 1	0.3159935921949	2	180
11 fourier 1	0.3247796806857	1	180
12 fourier 1	0.1911926717192	3	0
13 fourier 1	0.8283030590042	2	180


Improper Coeffs

1 0.3666666666666667	-1	2
2 3.5	-1	2


Atoms

1	4	1	-0.021128151	2.5168314	-1.5558643	1.9862061
2	4	2	0.27888006	1.7676653	-0.52892457	1.4162413
3	4	2	-0.31907442	0.98217107	-0.75729366	0.35477988
4	4	3	0.22727692	0.91588451	-1.7486556	-0.074857837
5	4	2	-0.1472729	0.19324026	0.34154774	-0.24091279
6	4	3	0.21122621	-0.44229569	0.087931238	-1.0755922
7	4	2	-0.26100197	0.27236384	1.6010432	0.25043907
8	4	4	0.0178798	-0.55956865	2.7781246	-0.30185591
9	4	2	-0.26100194	0.34206947	4.0291058	-0.36139363
10	4	2	-0.14994505	1.5006388	3.9819786	-1.0575905
11	4	3	0.21122621	1.8089475	3.0718225	-1.5566404
12	4	2	-0.27097294	2.3804147	5.1639527	-1.1551948
13	4	3	0.22717412	3.3058144	5.0952245	-1.7134956
14	4	2	0.43977705	2.0366282	6.3101181	-0.56090897
15	4	1	-0.44047761	2.8726648	7.4192028	-0.6585362
16	4	2	-0.27097288	0.77050363	6.3906109	0.1961534
17	4	3	0.22717416	0.48786978	7.3194865	0.6754198
18	4	2	-0.14994509	-0.031138962	5.322543	0.29119626
19	4	3	0.21122621	-0.94762148	5.4275438	0.85278031
20	4	4	-0.13213398	-1.7522532	2.9470915	0.67143526
21	4	5	0.085471534	-2.3478184	2.0091715	0.71852403
22	4	5	0.085471534	-2.4384004	3.7595522	0.35693936
23	4	5	0.085471534	-1.3968099	3.1736618	1.7000338
24	4	4	-0.13483997	-1.1194624	2.4943426	-1.7384824
25	4	4	-0.11428056	-1.7662926	3.6999478	-2.4361305
26	4	5	0.065777608	-2.1308072	3.387894	-3.4377425
27	4	5	0.065777608	-1.0332063	4.5194312	-2.583821
28	4	5	0.065777608	-2.6360192	4.0805121	-1.8633824
29	4	5	0.10080972	-1.888691	1.6929036	-1.6956354
30	4	5	0.10080972	-0.29870195	2.1315268	-2.3956422
31	4	2	-0.14727291	1.1313093	1.8248857	1.4529836
32	4	3	0.2112262	1.187729	2.8070972	1.9063471
33	4	2	-0.31907436	1.8372075	0.8252367	1.9924671
34	4	3	0.22727698	2.4561625	1.0087669	2.8615847
35	5	2	0.62851036	2.6227789	8.3290785	-0.20054366
36	5	6	-0.49485633	2.0695223	8.3334026	0.88547543
37	1	1	-0.021128151	2.4952643	-2.5005998	1.6186904
38	1	2	0.27888006	1.3476097	-3.0326512	1.0323141
39	1	2	-0.31907442	0.2258588	-2.3076639	0.93140617
40	1	3	0.22727692	0.19604537	-1.2902392	1.3021327
41	1	2	-0.1472729	-0.98334329	-2.8846893	0.30883248
42	1	3	0.21122621	-1.8461364	-2.2411424	0.23042623
43	1	2	-0.26100197	-0.99285353	-4.1620997	-0.14016331
44	1	4	0.0178798	-2.2116015	-4.8048925	-0.83776049
45	1	2	-0.26100194	-2.3640173	-6.250359	-0.32180803
46	1	2	-0.10697363	-2.4857213	-6.4740017	1.0065651
47	1	3	0.21122621	-2.4590514	-5.6517378	1.709988
48	1	2	-0.4110603	-2.6541893	-7.841559	1.5377973
49	1	3	0.23258902	-2.7419117	-7.9906419	2.6065185
50	1	2	0.43303523	-2.7004772	-8.8864473	0.70587736
51	1	7	-0.64868784	-2.8595687	-10.17215	1.2161843
52	1	8	0.43609986	-2.8967065	-10.978118	0.60421558
53	1	2	-0.41106024	-2.5811787	-8.667481	-0.75039549
54	1	3	0.23258902	-2.6215542	-9.5120821	-1.426575
55	1	2	-0.10697366	-2.4246668	-7.4308484	-1.238805
56	1	3	0.21122621	-2.3440857	-7.3180065	-2.3098901
57	1	4	-0.13213398	-1.9122314	-4.7398001	-2.3559612
58	1	5	0.085471534	-1.7642693	-3.6853462	-2.6758364
59	1	5	0.085471534	-2.7398187	-5.1578162	-2.9641058
60	1	5	0.085471534	-0.98517384	-5.3017225	-2.6024758
61	1	4	-0.13483997	-3.5433163	-4.0270872	-0.55446089
62	1	4	-0.11428056	-4.8225729	-4.7306633	-1.0308317
63	1	5	0.065777608	-5.699324	-4.0940158	-0.78616589
64	1	5	0.065777608	-4.9594086	-5.705216	-0.51981794
65	1	5	0.065777608	-4.813574	-4.8861653	-2.1284606
66	1	5	0.10080972	-3.515434	-3.0319804	-1.0493296
67	1	5	0.10080972	-3.6484447	-3.8507353	0.53888123
68	1	2	-0.14727291	0.27868811	-4.9417951	-0.043918941
69	1	3	0.2112262	0.32790478	-5.9518149	-0.43280268
70	1	2	-0.31907436	1.3725071	-4.4119471	0.51382397
71	1	3	0.22727698	2.282692	-4.9944362	0.57690162
72	2	2	0.46773687	2.8588693	9.2663727	-0.69316421
73	2	6	-0.5698179	3.3314328	9.2627254	-1.8169478
74	2	9	-0.081950776	2.5582146	10.787507	0.1268981
75	4	1	-0.021128151	-0.076530557	0.36475266	26.284026
76	4	2	0.27888006	-0.4914567	-0.026901034	25.013137
77	4	2	-0.31907442	0.034866619	0.53172514	23.914604
78	4	3	0.22727692	0.7960242	1.2966989	23.999665
79	4	2	-0.1472729	-0.4151024	0.10762018	22.572078
80	4	3	0.21122621	0.067528094	0.57392025	21.726768
81	4	2	-0.26100197	-1.3858244	-0.82528302	22.425769
82	4	4	0.0178798	-1.8651678	-1.3386428	21.051231
83	4	2	-0.26100194	-3.4013408	-1.4803774	21.090392
84	4	2	-0.14994505	-4.1604085	-0.40973029	21.41708
85	4	3	0.21122621	-3.7005471	0.53784704	21.668304
86	4	2	-0.27097294	-5.6340651	-0.49979518	21.445709
87	4	3	0.22717412	-6.2163636	0.37177692	21.717882
88	4	2	0.43977705	-6.24465	-1.6472071	21.136368
89	4	1	-0.44047761	-7.6346181	-1.7224132	21.166199
90	4	2	-0.27097288	-5.4382279	-2.8281236	20.765135
91	4	3	0.22717416	-5.9308914	-3.7580354	20.510312
92	4	2	-0.14994509	-4.1016625	-2.7549127	20.739326
93	4	3	0.21122621	-3.55274	-3.6421364	20.460292
94	4	4	-0.13213398	-1.1457601	-2.6921628	20.830373
95	4	5	0.085471534	-0.042926908	-2.5515731	20.854917
96	4	5	0.085471534	-1.3998031	-3.1473644	19.851572
97	4	5	0.085471534	-1.4116575	-3.4184896	21.62877
98	4	4	-0.13483997	-1.4804826	-0.36820309	19.881542
99	4	4	-0.11428056	-2.1135239	-0.70173993	18.522646
100	4	5	0.065777608	-1.771938	0.040549876	17.770449
101	4	5	0.065777608	-3.2205684	-0.64820691	18.571305
102	4	5	0.065777608	-1.8070394	-1.7068749	18.169001
103	4	5	0.10080972	-0.37851971	-0.36714368	19.734812
104	4	5	0.10080972	-1.7814181	0.67042394	20.141991
105	4	2	-0.14727291	-1.9359228	-1.4555639	23.664374
106	4	3	0.2112262	-2.6809315	-2.2386095	23.591829
107	4	2	-0.31907436	-1.5196473	-1.073213	24.876461
108	4	3	0.22727698	-1.9330891	-1.5398619	25.761594
109	5	2	0.62851036	-8.1351375	-2.612488	20.92678
110	5	6	-0.49485633	-7.6642861	-3.6857923	21.261244
111	1	1	-0.021128151	0.62861153	1.0807196	26.419022
112	1	2	0.27888006	1.6730811	1.2604847	25.513045
113	1	2	-0.31907442	1.780575	0.48902686	24.423361
114	1	3	0.22727692	1.0504985	-0.28690339	24.2274
115	1	2	-0.1472729	2.8933054	0.68981522	23.472445
116	1	3	0.21122621	2.9087753	0.056362331	22.598826
117	1	2	-0.26100197	3.8407197	1.6304394	23.698492
118	1	4	0.0178798	5.0012821	1.9148894	22.720048
119	1	2	-0.26100194	6.2879789	2.1400961	23.540111
120	1	2	-0.10697363	6.7031206	1.1853297	24.403524
121	1	3	0.21122621	6.1324888	0.27528262	24.53704
122	1	2	-0.4110603	7.9406983	1.3548529	25.19122
123	1	3	0.23258902	8.2443663	0.57668934	25.879939
124	1	2	0.43303523	8.6811536	2.4588013	25.053203
125	1	7	-0.64868784	9.8464476	2.6096271	25.800261
126	1	8	0.43609986	10.422186	3.4379945	25.711926
127	1	2	-0.41106024	8.2551527	3.5115537	24.108139
128	1	3	0.23258902	8.8550211	4.405383	23.992264
129	1	2	-0.10697366	7.1324989	3.3662217	23.393418
130	1	3	0.21122621	6.8612105	4.1601245	22.713292
131	1	4	-0.13213398	4.5775463	3.1683983	21.91509
132	1	5	0.085471534	3.6234733	2.9778635	21.377013
133	1	5	0.085471534	5.3343957	3.4546155	21.156976
134	1	5	0.085471534	4.4183997	4.0381557	22.589002
135	1	4	-0.13483997	5.2440036	0.73303259	21.718546
136	1	4	-0.11428056	6.5167086	0.85152229	20.867295
137	1	5	0.065777608	6.5864809	-0.029591921	20.194507
138	1	5	0.065777608	7.4254541	0.86448407	21.502611
139	1	5	0.065777608	6.4954874	1.7603971	20.232829
140	1	5	0.10080972	4.3878856	0.64910409	21.014325
141	1	5	0.10080972	5.3072216	-0.22570852	22.279232
142	1	2	-0.14727291	3.6837222	2.4987111	24.904918
143	1	3	0.2112262	4.3938743	3.2936123	25.098848
144	1	2	-0.31907436	2.6703348	2.317457	25.75841
145	1	3	0.22727698	2.5762641	2.9549218	26.628179
146	2	2	0.46773687	-9.0732134	-2.5770901	20.383002
147	2	6	-0.5698179	-9.4999404	-1.5118047	19.971553
148	2	9	-0.081950776	-9.9748386	-4.0536328	20.093798
149	4	1	-0.021128151	-1.025263	3.2893771	46.390173
150	4	2	0.27888006	-0.20034159	2.278541	45.90188
151	4	2	-0.31907442	-0.45949976	0.99062217	46.166372
152	4	3	0.22727692	-1.3196612	0.71601696	46.763444
153	4	2	-0.1472729	0.42450348	-0.07203276	45.642906
154	4	3	0.21122621	0.14626507	-1.0907668	45.865799
155	4	2	-0.26100197	1.5260778	0.23375905	44.91693
156	4	4	0.0178798	2.4608555	-0.83319423	44.308273
157	4	2	-0.26100194	3.9204276	-0.36667418	44.491189
158	4	2	-0.14994505	4.3768562	-0.079342819	45.731475
159	4	3	0.21122621	3.7242072	-0.15592485	46.592098
160	4	2	-0.27097294	5.7726361	0.35037526	45.94996
161	4	3	0.22717412	6.1087494	0.58086708	46.953299
162	4	2	0.43977705	6.6151395	0.45227685	44.918038
163	4	1	-0.44047761	7.929332	0.85826792	45.13397
164	4	2	-0.27097288	6.1439882	0.13310835	43.554644
165	4	3	0.22717416	6.8259425	0.2112382	42.717254
166	4	2	-0.14994509	4.8793051	-0.25475382	43.348313
167	4	3	0.21122621	4.5790929	-0.47981595	42.335613
168	4	4	-0.13213398	2.0540049	-0.95250961	42.818783
169	4	5	0.085471534	0.9847477	-1.2456844	42.733072
170	4	5	0.085471534	2.6510009	-1.7167227	42.28085
171	4	5	0.085471534	2.1813094	0.018593706	42.293007
172	4	4	-0.13483997	2.2932658	-2.2354923	44.988995
173	4	4	-0.11428056	3.3409604	-3.2843638	44.588008
174	4	5	0.065777608	3.1262224	-4.234878	45.120817
175	4	5	0.065777608	4.3629864	-2.9607038	44.87347
176	4	5	0.065777608	3.3094551	-3.4924973	43.49944
177	4	5	0.10080972	1.2965093	-2.661517	44.742353
178	4	5	0.10080972	2.3418048	-2.1235834	46.094555
179	4	2	-0.14727291	1.7774579	1.6746848	44.609445
180	4	3	0.2112262	2.6214681	1.9605808	43.993513
181	4	2	-0.31907436	0.96996878	2.6315905	45.079472
182	4	3	0.22727698	1.1712756	3.6699255	44.848193
183	5	2	0.62851036	8.6080781	0.9448376	44.339059
184	5	6	-0.49485633	8.2296712	1.3570131	43.256253
185	1	1	-0.021128151	-1.8397545	3.0865119	46.95895
186	1	2	0.27888006	-2.5864435	1.9225931	46.780693
187	1	2	-0.31907442	-2.2496048	1.0241256	45.846129
188	1	3	0.22727692	-1.3844981	1.1882293	45.215146
189	1	2	-0.1472729	-3.0507063	-0.20429157	45.667373
190	1	3	0.21122621	-2.7116527	-0.90311094	44.918103
191	1	2	-0.26100197	-4.1549062	-0.43034993	46.417776
192	1	4	0.0178798	-5.0058422	-1.7143155	46.305922
193	1	2	-0.26100194	-6.4953334	-1.3221528	46.386144
194	1	2	-0.10697363	-6.9947719	-0.4206106	45.510253
195	1	3	0.21122621	-6.3564296	0.040193228	44.767412
196	1	2	-0.4110603	-8.4198888	-0.0347956	45.541723
197	1	3	0.23258902	-8.7898149	0.69489148	44.832641
198	1	2	0.43303523	-9.246795	-0.58376757	46.436643
199	1	7	-0.64868784	-10.588907	-0.2136233	46.458592
200	1	8	0.43609986	-11.232855	-0.61643363	47.128327
201	1	2	-0.41106024	-8.7280986	-1.5795454	47.397002
202	1	3	0.23258902	-9.3967307	-2.0280139	48.120885
203	1	2	-0.10697366	-7.4365623	-1.9314226	47.376596
204	1	3	0.21122621	-7.1021197	-2.6646634	48.095593
205	1	4	-0.13213398	-4.561166	-2.619529	47.481356
206	1	5	0.085471534	-3.4736933	-2.8394627	47.409814
207	1	5	0.085471534	-5.0962205	-3.5906921	47.487428
208	1	5	0.085471534	-4.7421022	-2.1199711	48.457914
209	1	4	-0.13483997	-4.7597442	-2.4809566	44.960411
210	1	4	-0.11428056	-5.7284903	-3.6402341	44.684634
211	1	5	0.065777608	-5.4618212	-4.1131039	43.715534
212	1	5	0.065777608	-6.7746171	-3.2804374	44.608627
213	1	5	0.065777608	-5.6609942	-4.4191077	45.470669
214	1	5	0.10080972	-3.7321662	-2.9049849	44.946506
215	1	5	0.10080972	-4.8375532	-1.7724547	44.106292
216	1	2	-0.14727291	-4.494156	0.57138379	47.473923
217	1	3	0.2112262	-5.3427686	0.40668271	48.12701
218	1	2	-0.31907436	-3.7611398	1.6779813	47.636358
219	1	3	0.22727698	-4.0255144	2.3928455	48.404983
220	2	2	0.46773687	9.6475783	0.66917081	44.481821
221	2	6	-0.5698179	10.008206	0.17449138	45.536078
222	2	9	-0.081950776	10.809102	0.93324638	43.194238
223	4	1	-0.021128151	2.476173	-2.2865924	67.061832
224	4	2	0.27888006	1.4235859	-1.7983289	67.832788
225	4	2	-0.31907442	1.1368657	-0.48947603	67.856236
226	4	3	0.22727692	1.7199979	0.20993584	67.270949
227	4	2	-0.1472729	0.01786765	0.015488392	68.679381
228	4	3	0.21122621	-0.1811676	1.0752881	68.633266
229	4	2	-0.26100197	-0.7157228	-0.82469521	69.447465
230	4	4	0.0178798	-1.9216701	-0.36221353	70.292724
231	4	2	-0.26100194	-1.871429	-1.0866964	71.65436
232	4	2	-0.14994505	-0.76461083	-0.9805024	72.42434
233	4	3	0.21122621	0.090677686	-0.40859655	72.086858
234	4	2	-0.27097294	-0.6860031	-1.6419557	73.742254
235	4	3	0.22717412	0.21567519	-1.5456406	74.334274
236	4	2	0.43977705	-1.7200345	-2.352327	74.201831
237	4	1	-0.44047761	-1.6365233	-2.9723929	75.445656
238	4	2	-0.27097288	-2.9448133	-2.4741509	73.384659
239	4	3	0.22717416	-3.7855696	-3.0461218	73.756635
240	4	2	-0.14994509	-3.0226441	-1.8793828	72.187736
241	4	3	0.21122621	-3.9378207	-1.993537	71.625808
242	4	4	-0.13213398	-3.1810936	-0.72636757	69.468354
243	4	5	0.085471534	-3.1543237	-0.21989226	68.47872
244	4	5	0.085471534	-4.117775	-0.41554246	69.974135
245	4	5	0.085471534	-3.2337755	-1.8216694	69.28607
246	4	4	-0.13483997	-1.9173489	1.1847903	70.547026
247	4	4	-0.11428056	-2.9592326	1.6820256	71.559855
248	4	5	0.065777608	-2.8723422	2.7847819	71.65912
249	4	5	0.065777608	-2.7886137	1.2382819	72.562233
250	4	5	0.065777608	-3.991028	1.4530661	71.224788
251	4	5	0.10080972	-2.1052254	1.7274177	69.595128
252	4	5	0.10080972	-0.91726717	1.5009196	70.917217
253	4	2	-0.14727291	-0.39664112	-2.283403	69.3814
254	4	3	0.2112262	-0.98764361	-2.9958568	69.944061
255	4	2	-0.31907436	0.6123125	-2.7356321	68.628981
256	4	3	0.22727698	0.82944165	-3.7958246	68.597344
257	5	2	0.62851036	-2.4359133	-3.5345461	75.826489
258	5	6	-0.49485633	-3.1117032	-4.2186395	75.077574
259	1	1	-0.021128151	3.0567229	-1.6735275	66.500431
260	1	2	0.27888006	2.54597	-0.51772874	65.91112
261	1	2	-0.31907442	1.2612366	-0.17345482	66.06939
262	1	3	0.22727692	0.59842178	-0.78960148	66.664806
263	1	2	-0.1472729	0.73315524	1.0534405	65.438055
264	1	3	0.21122621	-0.30223877	1.2923411	65.626729
265	1	2	-0.26100197	1.5240008	1.8332797	64.663537
266	1	4	0.0178798	1.040157	3.1482396	64.013962
267	1	2	-0.26100194	1.6069392	3.2233077	62.581505
268	1	2	-0.10697363	1.3548142	2.2184217	61.711999
269	1	3	0.21122621	0.7758505	1.356189	62.01694
270	1	2	-0.4110603	1.862459	2.2633516	60.325969
271	1	3	0.23258902	1.6508272	1.440961	59.654425
272	1	2	0.43303523	2.5752341	3.311833	59.903283
273	1	7	-0.64868784	3.049654	3.3451592	58.594632
274	1	8	0.43609986	3.5920865	4.1293079	58.253534
275	1	2	-0.41106024	2.8546913	4.4276568	60.83051
276	1	3	0.23258902	3.4292267	5.2795948	60.489467
277	1	2	-0.10697366	2.4006926	4.3920461	62.089445
278	1	3	0.21122621	2.6270474	5.2307221	62.73119
279	1	4	-0.13213398	1.562842	4.2866416	64.924805
280	1	5	0.085471534	1.1672819	4.1681317	65.957071
281	1	5	0.085471534	1.2521581	5.2878547	64.563522
282	1	5	0.085471534	2.6729063	4.2703623	64.983579
283	1	4	-0.13483997	-0.52344734	3.2407659	63.94127
284	1	4	-0.11428056	-1.0687854	4.4129738	63.112426
285	1	5	0.065777608	-2.1790726	4.3860581	63.132723
286	1	5	0.065777608	-0.74821976	4.3399049	62.053412
287	1	5	0.065777608	-0.74663181	5.3879513	63.530382
288	1	5	0.10080972	-0.9467002	3.3406904	64.964393
289	1	5	0.10080972	-0.93383208	2.3043579	63.50278
290	1	2	-0.14727291	2.9608445	1.4453957	64.525579
291	1	3	0.2112262	3.6390309	2.0662969	63.952571
292	1	2	-0.31907436	3.4353186	0.3377339	65.10542
293	1	3	0.22727698	4.4784907	0.072549974	64.990623
294	2	2	0.46773687	-2.6596152	-3.5082801	76.887715
295	2	6	-0.5698179	-2.0414741	-2.7576357	77.623007
296	2	9	-0.081950776	-3.9128311	-4.5446219	77.545127
297	4	1	-0.021128151	-2.5265137	-1.6050251	89.025241
298	4	2	0.27888006	-1.8831339	-1.1024687	90.154052
299	4	2	-0.31907442	-0.57980732	-0.79229736	90.122628
300	4	3	0.22727692	-0.0064518792	-0.92548042	89.214164
301	4	2	-0.1472729	0.090849929	-0.26081397	91.327807
302	4	3	0.21122621	1.1343087	-0.0026120892	91.230634
303	4	2	-0.26100197	-0.58605805	-0.10785031	92.490741
304	4	4	0.0178798	0.049233243	0.48229776	93.767765
305	4	2	-0.26100194	-0.44096319	-0.33565752	94.981069
306	4	2	-0.14994505	-0.24496464	-1.6736472	95.004779
307	4	3	0.21122621	0.23485716	-2.1767639	94.174638
308	4	2	-0.27097294	-0.6812059	-2.4880933	96.156719
309	4	3	0.22717412	-0.51771025	-3.5585733	96.145327
310	4	2	0.43977705	-1.271436	-1.9086796	97.20599
311	4	1	-0.44047761	-1.6793156	-2.6849246	98.287486
312	4	2	-0.27097288	-1.4867979	-0.44707006	97.209283
313	4	3	0.22717416	-1.9614459	0.025305219	98.060141
314	4	2	-0.14994509	-1.0962703	0.29765509	96.167503
315	4	3	0.21122621	-1.2719232	1.3622385	96.213873
316	4	4	-0.13213398	-0.40503925	1.9618441	93.821814
317	4	5	0.085471534	-0.070624703	2.501824	92.909017
318	4	5	0.085471534	0.015736245	2.4980951	94.69656
319	4	5	0.085471534	-1.5130869	2.0358179	93.871284
320	4	4	-0.13483997	1.616009	0.43849336	93.73307
321	4	4	-0.11428056	2.3079432	0.80282416	95.05484
322	4	5	0.065777608	3.4084688	0.74506941	94.917062
323	4	5	0.065777608	2.0310141	0.093793846	95.861913
324	4	5	0.065777608	2.0605229	1.8366834	95.36982
325	4	5	0.10080972	1.999328	1.1411165	92.961552
326	4	5	0.10080972	1.9562027	-0.58209707	93.450571
327	4	2	-0.14727291	-2.0452058	-0.43171599	92.492972
328	4	3	0.2112262	-2.6349062	-0.2805809	93.389004
329	4	2	-0.31907436	-2.6485707	-0.90525554	91.39737
330	4	3	0.22727698	-3.7058866	-1.136991	91.420513
331	5	2	0.62851036	-2.144173	-2.251503	99.121829
332	5	6	-0.49485633	-2.9203852	-1.3235227	98.973855
333	1	1	-0.021128151	-2.0342249	-1.7542247	88.151485
334	1	2	0.27888006	-0.97591934	-0.9362639	87.75784
335	1	2	-0.31907442	-0.56834895	0.081435454	88.527443
336	1	3	0.22727692	-1.0553504	0.28142451	89.474182
337	1	2	-0.1472729	0.55363894	0.94095203	88.09721
338	1	3	0.21122621	0.85422835	1.7259441	88.774075
339	1	2	-0.26100197	1.1681301	0.73950129	86.907553
340	1	4	0.0178798	2.3724503	1.5770558	86.424556
341	1	2	-0.26100194	2.190641	1.8733257	84.921898
342	1	2	-0.10697363	1.0644095	2.4895008	84.496065
343	1	3	0.21122621	0.28399996	2.7594624	85.195861
344	1	2	-0.4110603	0.86251874	2.8087529	83.068438
345	1	3	0.23258902	-0.052372983	3.2959915	82.755935
346	1	2	0.43303523	1.8026242	2.500947	82.169838
347	1	7	-0.64868784	1.6031994	2.8059205	80.825972
348	1	8	0.43609986	2.301852	2.5812432	80.128208
349	1	2	-0.41106024	3.0468674	1.8377038	82.611285
350	1	3	0.23258902	3.8112952	1.5901992	81.885619
351	1	2	-0.10697366	3.2351378	1.5420778	83.903361
352	1	3	0.21122621	4.1606637	1.0594512	84.180712
353	1	4	-0.13213398	3.6282779	0.71931548	86.717765
354	1	5	0.085471534	3.6953841	0.49096913	87.803786
355	1	5	0.085471534	4.5654413	1.2369351	86.429195
356	1	5	0.085471534	3.5856567	-0.24742983	86.170455
357	1	4	-0.13483997	2.502754	2.9377007	87.192912
358	1	4	-0.11428056	3.5386904	3.9143095	86.617137
359	1	5	0.065777608	3.5518405	4.8361289	87.236774
360	1	5	0.065777608	3.2807784	4.2081976	85.579484
361	1	5	0.065777608	4.5583611	3.4796183	86.63627
362	1	5	0.10080972	2.7845504	2.7511594	88.252017
363	1	5	0.10080972	1.520584	3.4600627	87.198304
364	1	2	-0.14727291	0.71596461	-0.41982266	86.079592
365	1	3	0.2112262	1.2108609	-0.64447498	85.142361
366	1	2	-0.31907436	-0.29527691	-1.1991753	86.477406
367	1	3	0.22727698	-0.60979058	-2.0319872	85.861602
368	2	2	0.46773687	-1.9351941	-2.6310087	100.11643
369	2	6	-0.5698179	-1.0937571	-3.4990222	100.27377
370	2	9	-0.081950776	-2.8067781	-1.9935705	101.49873
371	4	1	-0.021128151	2.409211	23.264319	-2.5730899
372	4	2	0.27888006	1.8125169	22.682842	-1.4565971
373	4	2	-0.31907442	0.84537342	23.320228	-0.78263318
374	4	3	0.22727692	0.51020749	24.299429	-1.0998226
375	4	2	-0.1472729	0.2213084	22.692316	0.40099857
376	4	3	0.21122621	-0.57185997	23.243036	0.88318975
377	4	2	-0.26100197	0.63396303	21.481454	0.84545869
378	4	4	0.0178798	-0.008825959	20.757896	2.0479344
379	4	2	-0.26100194	1.1135803	20.112705	2.8878055
380	4	2	-0.14994505	2.1180782	20.884673	3.3613499
381	4	3	0.21122621	2.1512958	21.944474	3.1417885
382	4	2	-0.27097294	3.1992514	20.308388	4.1857013
383	4	3	0.22717412	3.994789	20.949106	4.5454073
384	4	2	0.43977705	3.1952243	19.006797	4.4872047
385	4	1	-0.44047761	4.218971	18.472569	5.2650864
386	4	2	-0.27097288	2.1029321	18.144368	3.9914143
387	4	3	0.22717416	2.0954251	17.089992	4.2376314
388	4	2	-0.14994509	1.1205598	18.65908	3.2414483
389	4	3	0.21122621	0.34167761	17.99207	2.902654
390	4	4	-0.13213398	-0.97904159	19.712792	1.4439633
391	4	5	0.085471534	-1.7424607	20.215583	0.8107165
392	4	5	0.085471534	-1.5207798	19.14246	2.2256537
393	4	5	0.085471534	-0.43283577	18.987317	0.80284336
394	4	4	-0.13483997	-0.82622993	21.73103	2.9659589
395	4	4	-0.11428056	-1.3061987	21.126066	4.2934507
396	4	5	0.065777608	-1.874861	21.894587	4.858671
397	4	5	0.065777608	-0.44972504	20.808716	4.9231511
398	4	5	0.065777608	-1.9809162	20.262653	4.1244267
399	4	5	0.10080972	-1.7297399	22.092295	2.4283622
400	4	5	0.10080972	-0.2079121	22.622355	3.2116509
401	4	2	-0.14727291	1.6924903	20.776902	0.05988108
402	4	3	0.2112262	2.0198079	19.78684	0.3533122
403	4	2	-0.31907436	2.2484339	21.346646	-1.0148057
404	4	3	0.22727698	3.0162171	20.821082	-1.5683813
405	5	2	0.62851036	4.2359424	17.45393	5.5144085
406	5	6	-0.49485633	3.8664796	16.621617	4.7042843
407	1	1	-0.021128151	2.1363528	24.181597	-2.9080629
408	1	2	0.27888006	0.82795831	24.647339	-2.7847126
409	1	2	-0.31907442	-0.1206129	23.894099	-2.2129113
410	1	3	0.22727692	0.11819054	22.908518	-1.832015
411	1	2	-0.1472729	-1.503312	24.399836	-2.090032
412	1	3	0.21122621	-2.2151599	23.758212	-1.5937431
413	1	2	-0.26100197	-1.8460108	25.614817	-2.5797715
414	1	4	0.0178798	-3.262958	26.21364	-2.4425035
415	1	2	-0.26100194	-3.6327199	26.904028	-3.7712066
416	1	2	-0.10697363	-3.595872	26.195454	-4.9227135
417	1	3	0.21122621	-3.2927292	25.15635	-4.9225543
418	1	2	-0.4110603	-3.962637	26.815139	-6.2120062
419	1	3	0.23258902	-3.9167287	26.225145	-7.118585
420	1	2	0.43303523	-4.3504627	28.093188	-6.2589861
421	1	7	-0.64868784	-4.6943137	28.66872	-7.4793481
422	1	8	0.43609986	-4.9903492	29.635353	-7.5381274
423	1	2	-0.41106024	-4.4099562	28.885514	-5.0133582
424	1	3	0.23258902	-4.7268664	29.920182	-5.0484426
425	1	2	-0.10697366	-4.0754874	28.33131	-3.8414842
426	1	3	0.21122621	-4.1361893	28.947447	-2.956532
427	1	4	-0.13213398	-3.1897942	27.203722	-1.253732
428	1	5	0.085471534	-2.8759682	26.67375	-0.32813576
429	1	5	0.085471534	-4.1684667	27.681951	-1.0464267
430	1	5	0.085471534	-2.4480263	28.007836	-1.4515784
431	1	4	-0.13483997	-4.3453295	25.124831	-2.1236459
432	1	4	-0.11428056	-5.799921	25.612533	-2.1926108
433	1	5	0.065777608	-6.4778176	24.767889	-1.945818
434	1	5	0.065777608	-6.0574671	25.966005	-3.2116002
435	1	5	0.065777608	-5.9896049	26.42317	-1.4605325
436	1	5	0.10080972	-4.186358	24.718203	-1.1012506
437	1	5	0.10080972	-4.2448569	24.277041	-2.8368826
438	1	2	-0.14727291	-0.76476463	26.449361	-3.1867713
439	1	3	0.2112262	-0.98602451	27.445997	-3.5494739
440	1	2	-0.31907436	0.48681446	25.989556	-3.2886797
441	1	3	0.22727698	1.2548364	26.60842	-3.7346153
442	2	2	0.46773687	4.5844423	17.141471	6.493107
443	2	6	-0.5698179	4.8703527	17.976513	7.3340456
444	2	9	-0.081950776	4.7342115	15.434091	6.8661611
445	4	1	-0.021128151	1.7404867	24.940459	20.542535
446	4	2	0.27888006	1.5480047	23.898812	21.44732
447	4	2	-0.31907442	0.42683436	23.819236	22.177045
448	4	3	0.22727692	-0.35037585	24.565186	22.070817
449	4	2	-0.1472729	0.23572586	22.709275	23.134218
450	4	3	0.21122621	-0.7004778	22.68451	23.670712
451	4	2	-0.26100197	1.1976909	21.773565	23.316114
452	4	4	0.0178798	1.0367965	20.56919	24.268088
453	4	2	-0.26100194	2.3692907	20.35575	25.016655
454	4	2	-0.14994505	2.9033186	21.374196	25.728539
455	4	3	0.21122621	2.4152193	22.340152	25.76283
456	4	2	-0.27097294	4.165966	21.203249	26.474926
457	4	3	0.22717412	4.5741478	22.038338	27.030626
458	4	2	0.43977705	4.7991709	20.026797	26.466423
459	4	1	-0.44047761	5.9891513	19.875268	27.173206
460	4	2	-0.27097288	4.2303672	18.895305	25.705579
461	4	3	0.22717416	4.7396765	17.939814	25.700298
462	4	2	-0.14994509	3.087321	19.043306	25.024423
463	4	3	0.21122621	2.7073067	18.188875	24.484165
464	4	4	-0.13213398	0.6573102	19.36663	23.369099
465	4	5	0.085471534	-0.28251677	19.580741	22.814581
466	4	5	0.085471534	0.49189244	18.440172	23.955709
467	4	5	0.085471534	1.4530212	19.163856	22.619822
468	4	4	-0.13483997	-0.1021218	20.787136	25.323206
469	4	4	-0.11428056	-0.17105235	19.730824	26.435878
470	4	5	0.065777608	-1.0106255	19.977461	27.11981
471	4	5	0.065777608	0.7615207	19.718867	27.036666
472	4	5	0.065777608	-0.357776	18.719065	26.022634
473	4	5	0.10080972	-1.0926	20.792053	24.818447
474	4	5	0.10080972	0.025410565	21.777523	25.813116
475	4	2	-0.14727291	2.4258567	21.866182	22.469334
476	4	3	0.2112262	3.2002574	21.112955	22.549425
477	4	2	-0.31907436	2.590187	22.868591	21.599388
478	4	3	0.22727698	3.4887292	22.919597	20.997579
479	5	2	0.62851036	6.5029813	18.960942	27.181
480	5	6	-0.49485633	6.5388234	18.273011	26.175508
481	1	1	-0.021128151	1.0466937	25.667763	20.409346
482	1	2	0.27888006	-0.31762557	25.411688	20.540059
483	1	2	-0.31907442	-0.76223853	24.186986	20.850765
484	1	3	0.22727692	-0.063475467	23.374714	21.010213
485	1	2	-0.1472729	-2.2108695	23.929625	20.984778
486	1	3	0.21122621	-2.5048343	22.929874	21.265482
487	1	2	-0.26100197	-3.1155933	24.912817	20.765068
488	1	4	0.0178798	-4.6380991	24.714638	20.932017
489	1	2	-0.26100194	-5.3552486	25.440087	19.775198
490	1	2	-0.10697363	-5.0383835	25.131164	18.497088
491	1	3	0.21122621	-4.2755663	24.394673	18.279548
492	1	2	-0.4110603	-5.7172305	25.788756	17.362389
493	1	3	0.23258902	-5.4375753	25.526338	16.349958
494	1	2	0.43303523	-6.670799	26.698624	17.583459
495	1	7	-0.64868784	-7.3051818	27.313289	16.507123
496	1	8	0.43609986	-8.0298717	28.005697	16.651574
497	1	2	-0.41106024	-7.0431376	27.045364	18.970559
498	1	3	0.23258902	-7.8175544	27.779866	19.152175
499	1	2	-0.10697366	-6.429471	26.455849	20.00409
500	1	3	0.21122621	-6.7356231	26.738537	21.000487
501	1	4	-0.13213398	-4.9913678	25.305457	22.319435
502	1	5	0.085471534	-4.4190142	24.785258	23.118116
503	1	5	0.085471534	-6.0685493	25.196571	22.558813
504	1	5	0.085471534	-4.7347955	26.386092	22.368011
505	1	4	-0.13483997	-5.0514912	23.202248	20.909931
506	1	4	-0.11428056	-6.563595	22.941104	20.848355
507	1	5	0.065777608	-6.7424617	21.844816	20.842614
508	1	5	0.065777608	-7.0065868	23.360702	19.922445
509	1	5	0.065777608	-7.0830941	23.363704	21.73186
510	1	5	0.10080972	-4.6693608	22.689991	21.81959
511	1	5	0.10080972	-4.5915675	22.701322	20.029538
512	1	2	-0.14727291	-2.5951779	26.277786	20.448788
513	1	3	0.2112262	-3.2829849	27.103428	20.31084
514	1	2	-0.31907436	-1.2825104	26.506809	20.336056
515	1	3	0.22727698	-0.92602252	27.501973	20.103089
516	2	2	0.46773687	7.0042183	18.628872	28.084009
517	2	6	-0.5698179	6.8952536	19.272108	29.11386
518	2	9	-0.081950776	7.9697459	17.164618	28.06252
519	4	1	-0.021128151	-0.11662066	22.624076	41.919738
520	4	2	0.27888006	0.1435383	22.20144	43.221433
521	4	2	-0.31907442	0.14107966	23.071133	44.240983
522	4	3	0.22727692	-0.067364101	24.119024	44.067036
523	4	2	-0.1472729	0.41970089	22.609586	45.617231
524	4	3	0.21122621	0.37428322	23.352636	46.398724
525	4	2	-0.26100197	0.71344756	21.311994	45.870183
526	4	4	0.0178798	0.96988054	20.764231	47.290345
527	4	2	-0.26100194	2.1503327	19.772314	47.22644
528	4	2	-0.14994505	3.3370397	20.18154	46.722997
529	4	3	0.21122621	3.4604194	21.19014	46.348841
530	4	2	-0.27097294	4.4960368	19.268407	46.663769
531	4	3	0.22717412	5.4321038	19.621118	46.248845
532	4	2	0.43977705	4.3914067	18.017129	47.120296
533	4	1	-0.44047761	5.4897173	17.163514	47.0602
534	4	2	-0.27097288	3.1090139	17.549395	47.685439
535	4	3	0.22717416	3.0228686	16.536974	48.059567
536	4	2	-0.14994509	2.0530887	18.370644	47.740252
537	4	3	0.21122621	1.1364859	17.986921	48.163262
538	4	4	-0.13213398	-0.35351674	20.090448	47.729637
539	4	5	0.085471534	-1.1849915	20.828768	47.717735
540	4	5	0.085471534	-0.29275888	19.676747	48.756748
541	4	5	0.085471534	-0.62645699	19.263005	47.039324
542	4	4	-0.13483997	1.3214797	21.897227	48.315336
543	4	4	-0.11428056	1.8030298	21.407416	49.688937
544	4	5	0.065777608	2.0176167	22.286037	50.333492
545	4	5	0.065777608	2.738399	20.817576	49.599748
546	4	5	0.065777608	1.0281352	20.797569	50.195808
547	4	5	0.10080972	0.43136246	22.539004	48.493287
548	4	5	0.10080972	2.120577	22.547307	47.895834
549	4	2	-0.14727291	0.6803307	20.355662	44.721994
550	4	3	0.2112262	0.86404981	19.300875	44.886714
551	4	2	-0.31907436	0.42022658	20.777609	43.479842
552	4	3	0.22727698	0.40422374	20.069394	42.661106
553	5	2	0.62851036	5.4306034	16.177555	47.412994
554	5	6	-0.49485633	4.4080492	15.533485	47.254546
555	1	1	-0.021128151	-0.31173134	23.594933	41.701961