Title

96 atoms
103 bonds
190 angles
327 dihedrals
78 impropers

9 atom types
13 bond types
7 angle types
12 dihedral types
2 improper types
-5.531000137 94.46899986 xlo xhi
-3.653000116 96.34699988 ylo yhi
-10.05200005 89.94799995 zlo zhi
0.0 0.0 0.0 xy xz yz

Masses

1	15.99943
2	12.01078
3	1.007947
4	12.01078
5	1.007947
6	15.99943
7	15.99943
8	1.007947
9	35.4532


Pair Coeffs

1	0.16846514	3.0251065
2	0.086879315	3.4806469
3	0.015611343	2.5725815
4	0.10884061	3.3795318
5	0.015779483	2.6445434
6	0.2102061	3.0398122
7	0.20947353	2.99716
8	1.2326e-05	0.53453923
9	0.2656001	3.3075278

Bond Coeffs

1 harmonic	425.69104206635	1.362945806494
2 harmonic	300.03137914615	1.451203938761
3 harmonic	360.7852444772	1.387193227181
4 harmonic	397.2545789619	1.085358495916
5 harmonic	289.73813263395	1.498646816465
6 harmonic	264.62148576755	1.52190126495
7 harmonic	370.04670688625	1.093899492634
8 harmonic	301.15400723785	1.345741232799
9 harmonic	582.698766451	1.225198386222
10 harmonic	279.1350963404	1.454628925034
11 harmonic	385.7604595587	1.369745182308
12 harmonic	543.5267831885	0.9716763312559
13 harmonic	218.0227703685	1.746066037062


Angle Coeffs

1 harmonic	57.8982893754	126.8062420451
2 harmonic	65.09061609600001	110.3538806181
3 harmonic	34.066775159195	129.1835929926
4 harmonic	53.20531626545	116.5475862634
5 harmonic	14.32262199324	138.3184368373
6 harmonic	48.776492647595	115.6030999533
7 harmonic	201.41175231035	127.4691416191


Dihedral Coeffs

1 fourier 1	3.661930099076	2	180
2 fourier 1	1.532232714475	2	180
3 fourier 1	0.457973137376	1	0
4 fourier 1	0.02664938770063	3	0
5 fourier 1	0.1155372516788	3	0
6 fourier 1	0.09223874044423	3	0
7 fourier 1	0.3159935921949	2	180
8 fourier 1	0.3247796806857	1	180
9 fourier 1	0.1040663847541	3	0
10 fourier 1	2.779853741805	2	180
11 fourier 1	0.9974165607242	2	180
12 fourier 1	0.8283030590042	2	180


Improper Coeffs

1 0.3666666666666667	-1	2
2 3.5	-1	2


Atoms

1	1	1	-0.052894998	-4.9489999	2.0250001	-1.646
2	1	2	0.23270801	-3.6989999	1.541	-1.266
3	1	2	-0.36475199	-2.5780001	2.2490001	-1.516
4	1	3	0.201014	-2.6340001	3.2060001	-2.0179999
5	1	2	-0.063865997	-1.255	1.7180001	-1.112
6	1	3	0.197161	-0.352	2.273	-1.331
7	1	2	-0.10101	-1.2	0.53500003	-0.48100001
8	1	2	-0.207416	-2.4000001	-0.22400001	-0.20200001
9	1	2	-0.18360899	-3.6059999	0.228	-0.57999998
10	1	3	0.194233	-4.5009999	-0.35299999	-0.39500001
11	1	4	-0.037239	-2.076	-1.524	0.46700001
12	1	4	-0.138813	-2.3150001	-2.6889999	-0.50999999
13	1	5	0.079107001	-3.3889999	-2.7509999	-0.79000002
14	1	5	0.079107001	-2.02	-3.6530001	-0.041999999
15	1	5	0.079107001	-1.72	-2.552	-1.439
16	1	4	-0.138813	-2.9119999	-1.717	1.7460001
17	1	5	0.079107001	-3.99	-1.8329999	1.501
18	1	5	0.079107001	-2.799	-0.84299999	2.4230001
19	1	5	0.079107001	-2.5780001	-2.628	2.2880001
20	1	4	-0.161714	-0.55699998	-1.391	0.80500001
21	1	5	0.111543	-0.0060000001	-2.3380001	0.62
22	1	5	0.111543	-0.43200001	-1.183	1.892
23	1	4	0.118568	0.016000001	-0.20100001	-0.025
24	1	2	-0.10101	0.94199997	0.64999998	0.78200001
25	1	2	-0.062687002	0.639	1.415	1.841
26	1	3	0.197161	-0.38	1.492	2.198
27	1	2	-0.30265701	1.7309999	2.1500001	2.523
28	1	3	0.20265301	1.5	2.7780001	3.3740001
29	1	2	0.39660999	3.0009999	2.0309999	2.092
30	1	1	-0.454337	4.0180001	2.721	2.7449999
31	1	2	-0.14665	3.3099999	1.164	0.92500001
32	1	3	0.19289701	4.3309999	1.049	0.58700001
33	1	2	-0.207387	2.303	0.52600002	0.308
34	1	4	-0.037239	2.3900001	-0.41499999	-0.85399997
35	1	4	-0.138813	3.145	0.22499999	-2.0350001
36	1	5	0.079107001	4.2129998	0.39199999	-1.779
37	1	5	0.079107001	2.6919999	1.204	-2.3039999
38	1	5	0.079107001	3.0999999	-0.44100001	-2.924
39	1	4	-0.138813	3.082	-1.72	-0.421
40	1	5	0.079107001	3.096	-2.447	-1.26
41	1	5	0.079107001	4.131	-1.523	-0.111
42	1	5	0.079107001	2.546	-2.1819999	0.43599999
43	1	4	-0.161714	0.89499998	-0.67900002	-1.221
44	1	5	0.111543	0.713	-1.745	-1.479
45	1	5	0.111543	0.62599999	-0.103	-2.1359999
46	1	2	0.62367499	5.0149999	2.6440001	2.4289999
47	1	6	-0.53260201	5.6259999	1.6	2.585
48	1	1	-0.052894998	-5.0539999	2.9170001	-2.1170001
49	1	2	0.23270801	-4.0869999	3.401	-2.994
50	1	2	-0.36475199	-2.9660001	2.6930001	-3.247
51	1	3	0.201014	-2.802	1.7359999	-2.7690001
52	1	2	-0.063865997	-1.942	3.224	-4.177
53	1	3	0.197161	-1.0319999	2.668	-4.3649998
54	1	2	-0.10101	-2.1619999	4.4060001	-4.7709999
55	1	2	-0.207416	-3.3670001	5.165	-4.5110002
56	1	2	-0.18360899	-4.296	4.7140002	-3.654
57	1	3	0.194233	-5.184	5.2940001	-3.4389999
58	1	4	-0.037239	-3.359	6.4650002	-5.2540002
59	1	4	-0.138813	-3.158	7.631	-4.2680001
60	1	5	0.079107001	-4.0100002	7.6929998	-3.5569999
61	1	5	0.079107001	-3.0910001	8.5939999	-4.8179998
62	1	5	0.079107001	-2.223	7.493	-3.6830001
63	1	4	-0.138813	-4.6620002	6.6589999	-6.053
64	1	5	0.079107001	-5.5310001	6.7750001	-5.3720002
65	1	5	0.079107001	-4.849	5.7849998	-6.7140002
66	1	5	0.079107001	-4.5910001	7.5700002	-6.6859999
67	1	4	-0.161714	-2.131	6.3319998	-6.2090001
68	1	5	0.111543	-1.553	7.2800002	-6.277
69	1	5	0.111543	-2.4809999	6.125	-7.2449999
70	1	4	0.118568	-1.257	5.1430001	-5.7030001
71	1	2	-0.10101	-0.76499999	4.2919998	-6.8270001
72	1	2	-0.003731	-1.4910001	3.527	-7.6560001
73	1	3	0.197161	-2.5650001	3.45	-7.5440001
74	1	2	-0.43636501	-0.796	2.7920001	-8.7390003
75	1	3	0.20634601	-1.368	2.164	-9.4099998
76	1	2	0.35635501	0.537	2.9100001	-8.8920002
77	1	7	-0.65912598	1.178	2.221	-9.9169998
78	1	8	0.424604	2.1789999	2.2950001	-10.052
79	1	2	-0.37185699	1.3150001	3.7780001	-7.9689999
80	1	3	0.20003401	2.3829999	3.8929999	-8.099
81	1	2	-0.177999	0.66799998	4.4159999	-6.9809999
82	1	4	-0.037239	1.243	5.3559999	-5.967
83	1	4	-0.138813	2.4300001	4.717	-5.2210002
84	1	5	0.079107001	3.286	4.5500002	-5.9089999
85	1	5	0.079107001	2.1359999	3.7379999	-4.7849998
86	1	5	0.079107001	2.7690001	5.3829999	-4.3990002
87	1	4	-0.138813	1.684	6.6609998	-6.6550002
88	1	5	0.079107001	2.0550001	7.3889999	-5.901
89	1	5	0.079107001	2.5	6.4640002	-7.3829999
90	1	5	0.079107001	0.833	7.1240001	-7.2010002
91	1	4	-0.161714	0.048999999	5.6199999	-4.9970002
92	1	5	0.111543	-0.0070000002	6.6869998	-4.6859999
93	1	5	0.111543	0.19599999	5.0450001	-4.0549998
94	1	2	0.46297899	5.5029998	3.493	1.9630001
95	1	6	-0.62136799	4.868	4.507	1.727
96	1	9	-0.106567	7.2049999	3.408	1.55

Bonds

1	1	1	2
2	2	1	48
3	3	2	3
4	3	2	9
5	4	3	4
6	3	3	5
7	4	5	6
8	3	5	7
9	3	7	8
10	5	7	23
11	3	8	9
12	5	8	11
13	4	9	10
14	6	11	12
15	6	11	16
16	6	11	20
17	7	12	13
18	7	12	14
19	7	12	15
20	7	16	17
21	7	16	18
22	7	16	19
23	7	20	21
24	7	20	22
25	6	20	23
26	5	23	24
27	6	23	43
28	3	24	25
29	3	24	33
30	4	25	26
31	3	25	27
32	4	27	28
33	3	27	29
34	1	29	30
35	3	29	31
36	8	30	46
37	4	31	32
38	3	31	33
39	5	33	34
40	6	34	35
41	6	34	39
42	6	34	43
43	7	35	36
44	7	35	37
45	7	35	38
46	7	39	40
47	7	39	41
48	7	39	42
49	7	43	44
50	7	43	45
51	9	46	47
52	10	46	94
53	1	48	49
54	3	49	50
55	3	49	56
56	4	50	51
57	3	50	52
58	4	52	53
59	3	52	54
60	3	54	55
61	5	54	70
62	3	55	56
63	5	55	58
64	4	56	57
65	6	58	59
66	6	58	63
67	6	58	67
68	7	59	60
69	7	59	61
70	7	59	62
71	7	63	64
72	7	63	65
73	7	63	66
74	7	67	68
75	7	67	69
76	6	67	70
77	5	70	71
78	6	70	91
79	3	71	72
80	3	71	81
81	4	72	73
82	3	72	74
83	4	74	75
84	3	74	76
85	11	76	77
86	3	76	79
87	12	77	78
88	4	79	80
89	3	79	81
90	5	81	82
91	6	82	83
92	6	82	87
93	6	82	91
94	7	83	84
95	7	83	85
96	7	83	86
97	7	87	88
98	7	87	89
99	7	87	90
100	7	91	92
101	7	91	93
102	9	94	95
103	13	94	96

Angles

1	3	51	50	52
2	4	7	23	24
3	4	11	20	23
4	6	13	12	14
5	4	23	43	34
6	4	11	16	18
7	4	81	82	91
8	1	2	3	5
9	1	27	29	30
10	6	17	16	18
11	4	20	23	43
12	6	60	59	61
13	4	58	67	69
14	5	56	55	58
15	4	58	63	64
16	1	70	71	81
17	4	7	23	20
18	3	49	50	51
19	1	25	27	29
20	1	3	5	7
21	1	24	33	31
22	4	59	58	67
23	4	81	82	87
24	1	25	24	33
25	1	47	46	94
26	3	72	74	75
27	7	30	46	47
28	4	7	23	43
29	6	17	16	19
30	3	28	27	29
31	4	59	58	63
32	6	60	59	62
33	4	58	67	70
34	6	64	63	66
35	4	58	63	65
36	1	49	50	52
37	1	5	7	23
38	1	2	9	8
39	3	80	79	81
40	6	36	35	38
41	3	8	9	10
42	3	73	72	74
43	1	30	29	31
44	3	55	56	57
45	4	82	87	89
46	2	76	77	78
47	4	82	83	84
48	2	1	48	49
49	1	74	76	79
50	1	48	49	50
51	4	87	82	91
52	1	29	31	33
53	4	71	70	91
54	4	11	12	13
55	4	34	39	42
56	4	67	70	71
57	6	44	43	45
58	4	12	11	20
59	1	49	56	55
60	1	46	94	95
61	1	8	7	23
62	4	70	91	92
63	3	6	5	7
64	1	7	8	9
65	6	13	12	15
66	4	12	11	16
67	4	11	16	19
68	4	8	11	20
69	6	61	59	62
70	4	11	12	14
71	4	34	43	44
72	4	58	59	60
73	1	54	55	58
74	4	33	34	43
75	4	67	70	91
76	1	46	94	96
77	4	8	11	16
78	1	23	24	25
79	1	50	49	56
80	2	2	1	48
81	1	77	76	79
82	4	83	82	91
83	1	72	74	76
84	4	70	91	93
85	3	24	25	26
86	4	82	91	92
87	4	63	58	67
88	6	37	35	38
89	6	14	12	15
90	4	34	35	36
91	6	84	83	85
92	4	33	34	39
93	1	52	54	70
94	4	8	11	12
95	6	18	16	19
96	4	83	82	87
97	4	58	63	66
98	3	2	9	10
99	4	58	59	61
100	4	11	20	21
101	3	50	52	53
102	4	54	70	71
103	4	33	34	35
104	6	40	39	41
105	4	34	39	40
106	1	24	25	27
107	6	21	20	22
108	4	82	87	90
109	4	34	35	37
110	4	82	83	85
111	6	92	91	93
112	1	95	94	96
113	3	71	72	73
114	4	54	70	67
115	5	79	81	82
116	4	23	43	44
117	4	11	20	22
118	3	4	3	5
119	6	89	87	90
120	1	27	29	31
121	1	50	52	54
122	3	2	3	4
123	6	40	39	42
124	4	35	34	43
125	1	5	7	8
126	1	48	49	56
127	4	58	67	68
128	3	76	79	80
129	1	7	8	11
130	4	21	20	23
131	3	75	74	76
132	4	54	70	91
133	1	71	72	74
134	1	1	2	9
135	6	68	67	69
136	3	53	52	54
137	4	35	34	39
138	3	32	31	33
139	4	23	43	45
140	4	70	91	82
141	4	11	12	15
142	4	34	43	45
143	4	55	58	67
144	6	85	83	86
145	1	76	79	81
146	1	74	76	77
147	6	64	63	65
148	4	16	11	20
149	2	29	30	46
150	3	26	25	27
151	3	49	56	57
152	1	70	71	72
153	4	68	67	70
154	6	36	35	37
155	4	55	58	63
156	5	31	33	34
157	1	71	81	79
158	1	72	71	81
159	1	52	54	55
160	1	71	81	82
161	4	82	91	93
162	6	88	87	89
163	4	82	87	88
164	1	23	24	33
165	6	65	63	66
166	6	84	83	86
167	1	3	2	9
168	1	1	2	3
169	4	24	23	43
170	4	81	82	83
171	4	55	58	59
172	4	20	23	24
173	4	58	59	62
174	5	9	8	11
175	4	11	16	17
176	1	24	33	34
177	3	29	31	32
178	4	34	39	41
179	4	69	67	70
180	6	88	87	90
181	3	25	27	28
182	4	34	35	38
183	1	54	55	56
184	4	82	83	86
185	3	3	5	6
186	1	55	54	70
187	4	22	20	23
188	4	39	34	43
189	6	41	39	42
190	1	30	46	94

Dihedrals

1	9	22	20	23	43
2	4	54	55	58	59
3	9	66	63	58	67
4	1	51	50	52	53
5	1	76	79	81	82
6	1	56	55	54	70
7	9	40	39	34	43
8	5	81	82	91	93
9	1	27	29	31	32
10	1	6	5	7	23
11	12	78	77	76	79
12	1	75	74	76	79
13	5	81	82	87	88
14	1	4	3	5	6
15	4	52	54	70	67
16	4	31	33	34	43
17	9	87	82	91	93
18	5	55	58	63	64
19	4	71	81	82	91
20	1	70	71	81	79
21	9	35	34	43	45
22	1	70	71	81	82
23	5	54	70	91	93
24	1	10	9	8	11
25	9	18	16	11	20
26	9	35	34	39	40
27	5	70	91	82	81
28	9	61	59	58	67
29	4	55	54	70	71
30	9	42	39	34	43
31	9	86	83	82	91
32	4	8	7	23	24
33	2	1	48	49	56
34	5	33	34	43	44
35	4	7	23	24	33
36	1	1	2	9	8
37	4	71	81	82	87
38	6	23	43	34	39
38	7	23	43	34	39
38	8	23	43	34	39
39	9	64	63	58	67
40	9	85	83	82	91
41	5	8	11	20	22
42	1	27	29	31	33
43	5	33	34	39	41
44	5	8	11	16	17
45	5	22	20	23	24
46	9	61	59	58	63
47	5	33	34	35	36
48	5	7	23	43	44
49	4	54	55	58	67
50	5	55	58	67	70
51	5	54	70	67	69
52	1	32	31	33	34
53	9	36	35	34	43
54	5	55	58	63	65
55	4	55	54	70	67
56	5	69	67	70	71
57	4	79	81	82	91
58	1	49	50	52	53
59	5	8	11	12	14
60	9	86	83	82	87
61	4	71	81	82	83
62	1	71	72	74	75
63	6	23	43	34	35
63	7	23	43	34	35
63	8	23	43	34	35
64	9	20	23	43	44
65	11	47	46	94	95
66	9	85	83	82	87
67	1	28	27	29	30
68	1	25	27	29	31
69	1	70	71	72	74
70	1	52	50	49	56
71	5	81	82	83	84
72	4	79	81	82	87
73	1	1	2	9	10
74	1	26	25	27	28
75	9	65	63	58	67
76	4	67	70	71	72
77	9	83	82	91	92
78	9	67	70	91	92
79	5	8	11	20	23
80	9	17	16	11	20
81	4	5	7	23	20
82	5	33	34	39	42
83	5	58	67	70	71
84	9	59	58	63	64
85	5	7	23	43	45
86	9	39	34	43	45
87	1	72	74	76	79
88	9	83	82	87	90
89	4	79	81	82	83
90	1	49	50	52	54
91	5	8	11	12	15
92	1	24	25	27	29
93	1	71	72	74	76
94	9	15	12	11	20
95	5	24	23	43	45
96	9	20	23	43	45
97	9	69	67	70	91
98	4	5	7	23	43
99	1	11	8	7	23
100	9	37	35	34	43
101	1	58	55	54	70
102	1	50	49	56	55
103	1	57	56	55	58
104	9	15	12	11	16
105	5	7	23	20	21
106	6	59	58	67	70
106	7	59	58	67	70
106	8	59	58	67	70
107	5	54	70	91	82
108	9	12	11	20	22
109	6	16	11	20	23
109	7	16	11	20	23
109	8	16	11	20	23
110	9	59	58	63	65
111	9	12	11	16	17
112	1	23	24	33	34
113	1	48	49	50	51
114	1	51	50	52	54
115	6	58	67	70	91
115	7	58	67	70	91
115	8	58	67	70	91
116	9	37	35	34	39
117	6	11	20	23	43
117	7	11	20	23	43
117	8	11	20	23	43
118	4	52	54	70	91
119	1	52	54	55	56
120	1	53	52	54	70
121	4	20	23	24	33
122	1	3	5	7	23
123	1	4	3	5	7
124	9	19	16	11	20
125	1	23	24	25	26
126	4	25	24	23	43
127	1	51	50	49	56
128	4	54	70	71	72
129	5	21	20	23	24
130	5	81	82	87	89
131	5	68	67	70	71
132	2	1	48	49	50
133	1	48	49	56	55
134	4	56	55	58	59
135	5	54	70	67	58
136	5	55	58	59	60
137	1	73	72	74	75
138	1	4	3	2	9
139	4	5	7	23	24
140	5	7	23	20	22
141	9	35	34	39	41
142	1	7	8	9	10
143	6	12	11	20	23
143	7	12	11	20	23
143	8	12	11	20	23
144	1	9	8	7	23
145	9	12	11	16	18
146	4	67	70	71	81
147	5	33	34	43	45
148	1	53	52	54	55
149	9	62	59	58	63
150	1	48	49	50	52
151	1	49	56	55	58
152	9	63	58	67	68
153	1	50	52	54	70
154	4	52	54	70	71
155	4	9	8	11	20
156	4	55	54	70	91
157	5	8	11	16	18
158	5	71	70	91	92
159	5	81	82	87	90
160	5	33	34	35	37
161	1	23	24	25	27
162	9	83	82	91	93
163	5	11	20	23	24
164	1	23	24	33	31
165	5	55	58	63	66
166	5	7	23	43	34
167	9	88	87	82	91
168	5	55	58	59	61
169	1	6	5	7	8
170	1	49	56	55	54
171	9	35	34	39	42
172	11	47	46	94	96
173	9	21	20	23	43
174	4	9	8	11	16
175	1	28	27	29	31
176	5	24	23	43	34
177	1	26	25	24	33
178	9	14	12	11	20
179	6	20	23	43	34
179	7	20	23	43	34
179	8	20	23	43	34
180	1	25	27	29	30
181	1	50	52	54	55
182	1	75	74	76	77
183	5	81	82	83	85
184	4	56	55	58	67
185	1	26	25	27	29
186	9	38	35	34	43
187	9	67	70	91	93
188	1	30	29	31	32
189	12	74	76	77	78
190	1	1	2	3	4
191	9	60	59	58	67
192	5	8	11	16	19
193	4	9	8	11	12
194	5	71	70	91	93
195	1	2	3	5	6
196	5	33	34	35	38
197	9	14	12	11	16
198	9	89	87	82	91
199	1	5	3	2	9
200	4	56	55	58	63
201	1	80	79	81	82
202	2	27	29	30	46
203	2	31	29	30	46
204	9	38	35	34	39
205	6	70	91	82	87
205	7	70	91	82	87
205	8	70	91	82	87
206	4	54	70	71	81
207	5	81	82	91	92
208	9	60	59	58	63
209	1	77	76	79	80
210	1	25	24	33	34
211	1	73	72	71	81
212	5	81	82	83	86
213	5	55	58	67	68
214	9	62	59	58	67
215	9	87	82	91	92
216	1	3	2	9	8
217	9	35	34	43	44
218	1	30	29	31	33
219	1	29	31	33	34
220	5	54	70	91	92
221	5	23	43	34	33
222	1	1	2	3	5
223	2	3	2	1	48
224	6	70	91	82	83
224	7	70	91	82	83
224	8	70	91	82	83
225	9	59	58	63	66
226	1	24	33	31	29
227	5	7	23	20	11
228	10	29	30	46	94
229	1	2	9	8	11
230	4	7	8	11	12
231	4	72	71	70	91
232	5	8	11	20	21
233	5	33	34	39	40
234	9	41	39	34	43
235	1	74	76	79	80
236	1	77	76	79	81
237	4	24	33	34	39
238	5	55	58	67	69
239	9	13	12	11	16
240	1	3	2	9	10
241	5	54	70	67	68
242	1	72	74	76	77
243	9	83	82	87	88
244	9	84	83	82	91
245	4	33	24	23	43
246	5	8	11	12	13
247	1	73	72	74	76
248	1	50	49	56	57
249	1	5	7	8	9
250	1	24	33	31	32
251	9	68	67	70	91
252	1	25	24	33	31
253	9	12	11	16	19
254	4	24	33	34	35
255	2	29	30	46	47
256	1	54	55	56	57
257	1	70	71	72	73
258	4	31	33	34	39
259	9	84	83	82	87
260	9	63	58	67	69
261	1	5	7	8	11
262	1	52	54	55	58
263	11	30	46	94	95
264	9	59	58	67	68
265	6	67	70	91	82
265	7	67	70	91	82
265	8	67	70	91	82
266	1	74	76	79	81
267	3	2	1	48	49
268	9	16	11	20	21
269	9	39	34	43	44
270	1	71	81	79	76
271	5	71	70	91	82
272	9	83	82	87	89
273	4	8	7	23	20
274	1	48	49	56	57
275	4	7	8	11	20
276	4	31	33	34	35
277	1	24	25	27	28
278	5	55	58	59	62
279	4	81	71	70	91
280	1	3	5	7	8
281	5	24	23	43	44
282	1	71	81	79	80
283	1	74	72	71	81
284	1	27	25	24	33
285	2	9	2	1	48
286	4	54	55	58	63
287	9	36	35	34	39
288	6	63	58	67	70
288	7	63	58	67	70
288	8	63	58	67	70
289	4	7	8	11	16
290	4	7	23	24	25
291	9	90	87	82	91
292	4	8	7	23	43
293	1	2	9	8	7
294	9	13	12	11	20
295	11	30	46	94	96
296	9	59	58	67	69
297	1	72	71	81	79
298	1	72	71	81	82
299	4	24	33	34	43
300	9	12	11	20	21
301	9	16	11	20	22
302	1	2	3	5	7
303	4	20	23	24	25

Impropers

1	1	76	79	74	77
6	1	24	33	23	25
7	1	5	6	7	3
10	1	2	1	3	9
28	1	55	54	56	58
31	1	52	50	53	54
34	1	79	76	80	81
39	1	9	10	2	8
47	1	74	76	72	75
48	1	5	3	6	7
59	1	33	34	24	31
64	1	55	56	58	54
75	2	46	47	94	30
79	1	49	50	56	48
83	1	54	70	52	55
101	1	49	56	48	50
102	1	72	74	71	73
113	1	3	5	2	4
136	1	79	80	81	76
155	1	7	8	23	5
167	1	3	2	4	5
181	1	2	9	1	3
197	1	50	49	51	52
207	1	9	8	10	2
209	1	79	81	76	80
218	1	76	74	77	79
247	1	71	81	70	72
258	1	74	72	75	76
263	1	29	27	30	31
264	1	71	70	72	81
269	1	81	79	82	71
270	1	5	7	3	6
286	1	50	52	49	51
287	1	52	53	54	50
293	1	24	23	25	33
299	1	27	25	28	29
311	1	74	75	76	72
313	1	25	26	27	24
317	1	33	24	31	34
318	1	52	54	50	53
336	1	56	55	57	49
342	1	29	31	27	30
348	1	72	73	74	71
377	2	46	30	47	94
380	1	71	72	81	70
388	1	8	7	9	11
390	1	55	58	54	56
395	1	81	82	71	79
405	1	31	32	33	29
414	1	25	27	24	26
421	1	7	5	8	23
429	1	94	46	95	96
437	1	29	30	31	27
438	1	27	29	25	28
447	1	50	51	52	49
451	1	31	33	29	32
455	1	31	29	32	33
458	2	46	94	30	47
459	1	8	11	7	9
470	1	7	23	5	8
473	1	72	71	73	74
489	1	56	49	55	57
501	1	49	48	50	56
504	1	9	2	8	10
513	1	8	9	11	7
516	1	54	55	70	52
524	1	25	24	26	27
525	1	81	71	79	82
547	1	24	25	33	23
562	1	94	95	96	46
563	1	94	96	46	95
566	1	56	57	49	55
570	1	27	28	29	25
573	1	33	31	34	24
574	1	3	4	5	2
576	1	54	52	55	70
581	1	2	3	9	1
587	1	76	77	79	74
