Title

11500 atoms
11875 bonds
20750 angles
32375 dihedrals
9750 impropers

9 atom types
13 bond types
6 angle types
13 dihedral types
2 improper types
-8.776727469 109.6107845 xlo xhi
-9.326050193 109.2417051 ylo yhi
-11.14097141 110.551169 zlo zhi
0.0 0.0 0.0 xy xz yz

Masses

1	15.99943
2	12.01078
3	1.007947
4	12.01078
5	1.007947
6	15.99943
7	15.99943
8	1.007947
9	35.4532


Pair Coeffs

1	0.16846514	3.0251065
2	0.086879315	3.4806469
3	0.015611343	2.5725815
4	0.10884061	3.3795318
5	0.015779483	2.6445434
6	0.2102061	3.0398122
7	0.20947353	2.99716
8	1.2326e-05	0.53453923
9	0.2656001	3.3075278

Bond Coeffs

1 harmonic	425.69104206635	1.362945806494
2 harmonic	300.03137914615	1.451203938761
3 harmonic	360.7852444772	1.387193227181
4 harmonic	397.2545789619	1.085358495916
5 harmonic	289.73813263395	1.498646816465
6 harmonic	264.62148576755	1.52190126495
7 harmonic	301.15400723785	1.345741232799
8 harmonic	370.04670688625	1.093899492634
9 harmonic	582.698766451	1.225198386222
10 harmonic	279.1350963404	1.454628925034
11 harmonic	385.7604595587	1.369745182308
12 harmonic	543.5267831885	0.9716763312559
13 harmonic	218.0227703685	1.746066037062


Angle Coeffs

1 harmonic	57.8982893754	126.8062420451
2 harmonic	65.09061609600001	110.3538806181
3 harmonic	34.066775159195	129.1835929926
4 harmonic	53.20531626545	116.5475862634
5 harmonic	201.41175231035	127.4691416191
6 harmonic	48.776492647595	115.6030999533


Dihedral Coeffs

1 fourier 1	3.661930099076	2	180
2 fourier 1	1.532232714475	2	180
3 fourier 1	0.457973137376	1	0
4 fourier 1	0.02664938770063	3	0
5 fourier 1	0.1155372516788	3	0
6 fourier 1	0.09223874044423	3	0
7 fourier 1	0.3159935921949	2	180
8 fourier 1	0.3247796806857	1	180
9 fourier 1	0.1040663847541	3	0
10 fourier 1	2.779853741805	2	180
11 fourier 1	0.9974165607242	2	180
12 fourier 1	0.1911926717192	3	0
13 fourier 1	0.8283030590042	2	180


Improper Coeffs

1 0.3666666666666667	-1	2
2 3.5	-1	2


Atoms

1	4	1	-0.0293487	2.5142058	2.8259884	0.44173874
2	4	2	0.27169639	1.7694933	1.7496743	0.91842772
3	4	2	-0.32486192	1.4893638	0.70268278	0.13137869
4	4	3	0.22239423	1.8334301	0.68013944	-0.89405985
5	4	2	-0.15568026	0.69804979	-0.43144824	0.6526041
6	4	3	0.20716585	0.45374782	-1.2218233	-0.04298257
7	4	2	-0.25739897	0.28890239	-0.46633567	1.9429863
8	4	4	0.026457728	-0.59649564	-1.6128641	2.4904321
9	4	2	-0.25739897	-0.3231159	-1.7442214	4.0093734
10	4	2	-0.15895108	0.90995236	-2.114929	4.4289775
11	4	3	0.20716585	1.690346	-2.3467078	3.7151075
12	4	2	-0.27686477	1.232196	-2.2177973	5.8659024
13	4	3	0.22259538	2.2181335	-2.5473104	6.1686374
14	4	2	0.43397239	0.31525242	-1.9039002	6.7846472
15	4	1	-0.44315058	0.62664975	-2.006149	8.1378286
16	4	2	-0.27686471	-1.0199657	-1.4424302	6.3562923
17	4	3	0.22259542	-1.7536765	-1.1556396	7.0987704
18	4	2	-0.15895117	-1.3210651	-1.3559674	5.0552526
19	4	3	0.20716585	-2.2971338	-0.97516287	4.7949416
20	4	4	-0.1305394	-0.24781389	-2.9725073	1.7636031
21	4	4	-0.13031988	-0.56743192	-4.2746124	2.5368693
22	4	4	-0.12260785	-0.54147286	-5.4867961	1.609245
23	4	5	0.066003082	-1.3318178	-5.3949136	0.83390417
24	4	5	0.066003082	0.44963521	-5.5739009	1.1160984
25	4	5	0.066003082	-0.72896052	-6.4095955	2.1968832
26	4	5	0.087996987	0.1912652	-4.440174	3.3296398
27	4	5	0.087996987	-1.5550768	-4.2330341	3.0306038
28	4	5	0.1035959	-0.7683166	-3.0025987	0.77982391
29	4	5	0.1035959	0.84147895	-3.0056665	1.53908
30	4	4	-0.1305394	-2.0647165	-1.1775491	2.1451927
31	4	4	-0.13031988	-3.1731662	-2.2147266	2.4082824
32	4	4	-0.12260785	-4.5564911	-1.5954959	2.2229734
33	4	5	0.066003082	-4.7116014	-0.77386103	2.9549153
34	4	5	0.066003082	-5.3360896	-2.3692162	2.3898334
35	4	5	0.066003082	-4.6664884	-1.1962758	1.1922592
36	4	5	0.087996987	-3.1120465	-2.62152	3.4364227
37	4	5	0.087996987	-3.0780366	-3.0550498	1.6880906
38	4	5	0.1035959	-2.3018188	-0.22908735	2.6763056
39	4	5	0.1035959	-2.1155765	-0.92770448	1.0611614
40	4	2	-0.15568024	0.56887811	0.73900087	2.7868847
41	4	3	0.20716584	0.19435845	0.8027578	3.8000338
42	4	2	-0.32486186	1.2739981	1.7685441	2.3064636
43	4	3	0.22239429	1.4699742	2.6293786	2.9342337
44	5	2	0.62679034	-0.075404519	-1.7620674	8.8768698
45	5	6	-0.50634152	0.2627378	-1.711623	10.047989
46	1	1	-0.0293487	2.8698932	2.8498766	-0.50780474
47	1	2	0.27169639	2.1166457	2.3870899	-1.5852465
48	1	2	-0.32486192	0.88833239	1.8848312	-1.4019665
49	1	3	0.22239423	0.46435678	1.8245649	-0.40764174
50	1	2	-0.15568026	0.1017009	1.3987777	-2.5536387
51	1	3	0.20716585	-0.85812849	0.9509144	-2.3403666
52	1	2	-0.25739897	0.57619685	1.5000437	-3.8190718
53	1	4	0.026457728	-0.2042068	0.93587811	-5.0332317
54	1	2	-0.25739897	0.19726047	1.7599852	-6.2811005
55	1	2	-0.11443436	-0.11439777	3.0767302	-6.3319694
56	1	3	0.20716585	-0.66373352	3.5464152	-5.5265191
57	1	2	-0.41572011	0.27772617	3.9134149	-7.4829336
58	1	3	0.22745658	-0.01354496	4.9558344	-7.5077475
59	1	2	0.42477551	0.9907116	3.3899839	-8.4833279
60	1	7	-0.65156037	1.354363	4.1861745	-9.5661706
61	1	8	0.43234446	1.8964075	3.809959	-10.334902
62	1	2	-0.41572005	1.393127	1.9706778	-8.4282905
63	1	3	0.22745658	1.9984329	1.5514154	-9.2222992
64	1	2	-0.11443442	1.0326265	1.2038634	-7.3922572
65	1	3	0.20716585	1.3855117	0.18460397	-7.3810197
66	1	4	-0.1305394	-1.7612504	1.0544531	-4.7890262
67	1	4	-0.13031988	-2.6581427	1.106598	-6.0493357
68	1	4	-0.12260785	-4.1200754	0.84390605	-5.6964864
69	1	5	0.066003082	-4.2386778	-0.18034691	-5.2846948
70	1	5	0.066003082	-4.4754536	1.585078	-4.9486231
71	1	5	0.066003082	-4.7450925	0.93342198	-6.6101027
72	1	5	0.087996987	-2.5979229	2.1129823	-6.5143832
73	1	5	0.087996987	-2.3454628	0.37302317	-6.8129516
74	1	5	0.1035959	-2.093683	0.20854539	-4.1476794
75	1	5	0.1035959	-1.9788167	1.9828723	-4.2155973
76	1	4	-0.1305394	0.21736725	-0.57331382	-5.1066758
77	1	4	-0.13031988	-0.54110228	-1.4558414	-6.116499
78	1	4	-0.12260785	0.10013082	-2.8357725	-6.2289241
79	1	5	0.066003082	1.1423129	-2.7469851	-6.6049153
80	1	5	0.066003082	-0.48085101	-3.4600853	-6.9394778
81	1	5	0.066003082	0.10964934	-3.3393885	-5.2387008
82	1	5	0.087996987	-0.55249663	-0.99729797	-7.1245814
83	1	5	0.087996987	-1.5905485	-1.5938911	-5.7789195
84	1	5	0.1035959	1.3115172	-0.64219339	-5.2938563
85	1	5	0.1035959	0.063157225	-1.0355332	-4.1051262
86	1	2	-0.15568024	1.9713594	2.0154082	-3.9924236
87	1	3	0.20716584	2.4327071	2.041265	-4.9696803
88	1	2	-0.32486186	2.68445	2.4423754	-2.943326
89	1	3	0.22239429	3.6894372	2.8151468	-3.0903638
90	2	2	0.46628919	-1.1042324	-1.5560921	8.6001508
91	2	6	-0.5855034	-1.4236929	-1.5197593	7.4238622
92	2	9	-0.089441033	-2.3073307	-1.2737589	9.8454782
93	4	1	-0.0293487	-0.96747282	1.3480519	25.781462
94	4	2	0.27169639	-1.2369547	1.0654046	24.444386
95	4	2	-0.32486192	-0.70723042	-0.0098976279	23.846702
96	4	3	0.22239423	-0.053106891	-0.67503327	24.394544
97	4	2	-0.15568026	-1.0032389	-0.29566706	22.427257
98	4	3	0.20716585	-0.50334093	-1.14398	21.981517
99	4	2	-0.25739897	-1.8544159	0.48306011	21.718183
100	4	4	0.026457728	-2.1260485	0.23946498	20.213181
101	4	2	-0.25739897	-3.5426686	0.77618387	19.890234
102	4	2	-0.15895108	-4.6183408	0.1917949	20.469344
103	4	3	0.20716585	-4.4975454	-0.65941281	21.127523
104	4	2	-0.27686477	-5.9862291	0.68973455	20.224162
105	4	3	0.22259538	-6.8277194	0.18093092	20.677277
106	4	2	0.43397239	-6.1832499	1.7611996	19.451793
107	4	1	-0.44315058	-7.4768724	2.2227357	19.223653
108	4	2	-0.27686471	-5.0248567	2.4528448	18.852625
109	4	3	0.22259542	-5.1796723	3.3411024	18.253556
110	4	2	-0.15895117	-3.7831319	2.0007183	19.063675
111	4	3	0.20716585	-2.9687514	2.565696	18.63581
112	4	4	-0.1305394	-2.0497666	-1.3044489	19.883029
113	4	4	-0.13031988	-2.8385834	-1.788628	18.6425
114	4	4	-0.12260785	-2.3938876	-3.185869	18.217632
115	4	5	0.066003082	-1.3264592	-3.1729316	17.909946
116	4	5	0.066003082	-2.5272224	-3.904015	19.054031
117	4	5	0.066003082	-3.0056003	-3.5255068	17.355957
118	4	5	0.087996987	-3.9220736	-1.8363763	18.87763
119	4	5	0.087996987	-2.7188083	-1.1064932	17.781517
120	4	5	0.1035959	-0.98233413	-1.5989257	19.766748
121	4	5	0.1035959	-2.4404052	-1.8890695	20.745403
122	4	4	-0.1305394	-0.9729878	1.0068534	19.474311
123	4	4	-0.13031988	-0.86911199	0.79845843	17.951355
124	4	4	-0.12260785	0.15462805	1.7507469	17.337778
125	4	5	0.066003082	-0.15971166	2.805361	17.49225
126	4	5	0.066003082	0.23158659	1.5613067	16.245785
127	4	5	0.066003082	1.153498	1.5930042	17.797369
128	4	5	0.087996987	-1.842356	0.96924784	17.451439
129	4	5	0.087996987	-0.53784343	-0.23998191	17.737412
130	4	5	0.1035959	-1.0490854	2.093228	19.702077
131	4	5	0.1035959	0.001741772	0.68401641	19.90537
132	4	2	-0.15568024	-2.3913147	1.7077926	22.392836
133	4	3	0.20716584	-3.0093543	2.4109685	21.850276
134	4	2	-0.32486186	-2.1097959	1.9690654	23.673633
135	4	3	0.22239429	-2.5116734	2.8577664	24.14506
136	5	2	0.62679034	-7.6559084	3.0635485	18.623971
137	5	6	-0.50634152	-8.7767275	3.541167	18.560322
138	1	1	-0.0293487	-0.36994279	0.75117008	26.343073
139	1	2	0.27169639	0.78781202	0.17478638	25.823631
140	1	2	-0.32486192	1.1517593	0.38610829	24.551824
141	1	3	0.22239423	0.54408284	1.0053389	23.90425
142	1	2	-0.15568026	2.381794	-0.23100388	24.015565
143	1	3	0.20716585	2.5951854	-0.073718912	22.968157
144	1	2	-0.25739897	3.1950598	-0.97346309	24.80555
145	1	4	0.026457728	4.4536013	-1.6838263	24.246127
146	1	2	-0.25739897	5.4695394	-1.8338156	25.404953
147	1	2	-0.11443436	5.9993071	-0.72193991	25.967638
148	1	3	0.20716585	5.7425086	0.26162121	25.596442
149	1	2	-0.41572011	6.9439783	-0.81060799	27.098237
150	1	3	0.22745658	7.3738822	0.095589403	27.505769
151	1	2	0.42477551	7.2618298	-1.9989438	27.6178
152	1	7	-0.65156037	8.1555609	-2.0732824	28.682896
153	1	8	0.43234446	8.4092808	-2.9641116	29.093198
154	1	2	-0.41572005	6.6560848	-3.2246869	27.061002
155	1	3	0.22745658	6.886937	-4.1870113	27.500621
156	1	2	-0.11443442	5.80627	-3.1522504	26.029548
157	1	3	0.20716585	5.3611899	-4.0727698	25.685904
158	1	4	-0.1305394	5.0923585	-0.83151936	23.078375
159	1	4	-0.13031988	6.6018595	-1.0445867	22.810935
160	1	4	-0.12260785	7.0078978	-0.46986665	21.456097
161	1	5	0.066003082	6.4790436	-1.0023908	20.637889
162	1	5	0.066003082	6.7646665	0.61340266	21.40819
163	1	5	0.066003082	8.1018994	-0.59505872	21.311731
164	1	5	0.087996987	7.2001699	-0.52801111	23.590601
165	1	5	0.087996987	6.8820404	-2.1122375	22.836044
166	1	5	0.1035959	4.5310948	-1.0260762	22.137882
167	1	5	0.1035959	4.9665427	0.25235084	23.296352
168	1	4	-0.1305394	3.9206894	-3.0497424	23.688402
169	1	4	-0.13031988	4.9218737	-3.9121406	22.89608
170	1	4	-0.12260785	4.338723	-5.2886958	22.591023
171	1	5	0.066003082	4.1266309	-5.8352837	23.535297
172	1	5	0.066003082	5.0669463	-5.8785999	21.99613
173	1	5	0.066003082	3.3993078	-5.1895571	22.006273
174	1	5	0.087996987	5.8656999	-4.0538522	23.457981
175	1	5	0.087996987	5.1569443	-3.4192637	21.928522
176	1	5	0.1035959	3.4881425	-3.6452909	24.52217
177	1	5	0.1035959	3.067345	-2.8459058	23.002265
178	1	2	-0.15568024	2.7395439	-1.2385224	26.207113
179	1	3	0.20716584	3.3053198	-1.8910697	26.857206
180	1	2	-0.32486186	1.6169575	-0.68704211	26.683636
181	1	3	0.22239429	1.3073379	-0.88774112	27.700707
182	2	2	0.46628919	-6.8440116	3.5082132	18.057771
183	2	6	-0.5855034	-5.7071738	3.0868295	18.188406
184	2	9	-0.089441033	-7.1672054	4.8345139	16.955741
185	4	1	-0.0293487	-1.5983943	2.7244617	42.580257
186	4	2	0.27169639	-1.5988714	1.4691046	43.183879
187	4	2	-0.32486192	-0.99740999	1.2714591	44.364256
188	4	3	0.22239423	-0.49361624	2.0867589	44.866144
189	4	2	-0.15568026	-1.0071086	-0.066734382	44.991353
190	4	3	0.20716585	-0.45767364	-0.18123803	45.915056
191	4	2	-0.25739897	-1.6665874	-1.1031057	44.421505
192	4	4	0.026457728	-1.633423	-2.5275429	45.028162
193	4	2	-0.25739897	-2.9337239	-3.256541	44.607504
194	4	2	-0.15895108	-4.1255013	-2.7892813	45.049413
195	4	3	0.20716585	-4.1727055	-1.9349342	45.712896
196	4	2	-0.27686477	-5.3954344	-3.425104	44.646703
197	4	3	0.22259538	-6.3296385	-3.0470384	45.042467
198	4	2	0.43397239	-5.3914778	-4.4566246	43.798553
199	4	1	-0.44315058	-6.5935651	-5.0521313	43.425886
200	4	2	-0.27686471	-4.1107996	-4.95164	43.256268
201	4	3	0.22259542	-4.1076182	-5.7659244	42.542977
202	4	2	-0.15895117	-2.9556446	-4.3853537	43.624748
203	4	3	0.20716585	-2.0510889	-4.7586417	43.168767
204	4	4	-0.1305394	-1.5471778	-2.452413	46.604679
205	4	4	-0.13031988	-2.0827046	-3.6751719	47.388035
206	4	4	-0.12260785	-1.6114013	-3.648928	48.839839
207	4	5	0.066003082	-0.50386028	-3.7227273	48.88618
208	4	5	0.066003082	-1.938819	-2.7103227	49.334706
209	4	5	0.066003082	-2.0459082	-4.5106686	49.388141
210	4	5	0.087996987	-3.1923834	-3.6650944	47.393355
211	4	5	0.087996987	-1.7648283	-4.631208	46.934278
212	4	5	0.1035959	-0.48988989	-2.2705939	46.902562
213	4	5	0.1035959	-2.1267706	-1.5746671	46.967589
214	4	4	-0.1305394	-0.32665841	-3.1743854	44.446507
215	4	4	-0.13031988	0.07877604	-4.5465734	45.017765
216	4	4	-0.12260785	1.2401138	-5.1459969	44.228234
217	4	5	0.066003082	0.93920824	-5.3189824	43.172576
218	4	5	0.066003082	1.5317944	-6.1197218	44.67661
219	4	5	0.066003082	2.1175462	-4.4653518	44.254362
220	4	5	0.087996987	-0.7648724	-5.2632916	44.988416
221	4	5	0.087996987	0.40898555	-4.4303695	46.071961
222	4	5	0.1035959	-0.40834872	-3.2362032	43.338633
223	4	5	0.1035959	0.52701841	-2.4859746	44.640051
224	4	2	-0.15568024	-2.2853951	-0.87000962	43.077581
225	4	3	0.20716584	-2.7535945	-1.6820038	42.536974
226	4	2	-0.32486186	-2.262411	0.3396362	42.508207
227	4	3	0.22239429	-2.7197514	0.48905149	41.537613
228	5	2	0.62679034	-6.6156681	-5.8605686	42.759119
229	5	6	-0.50634152	-7.6817652	-6.2682106	42.328223
230	1	1	-0.0293487	-1.1503058	3.5246353	43.013449
231	1	2	0.27169639	0.067559208	3.4109004	43.681509
232	1	2	-0.32486192	0.69124037	2.2294632	43.78069
233	1	3	0.22239423	0.25161013	1.3402946	43.3469
234	1	2	-0.15568026	1.9817744	2.1245746	44.491257
235	1	3	0.20716585	2.4103472	1.1377517	44.590479
236	1	2	-0.25739897	2.5889389	3.2210609	45.006807
237	1	4	0.026457728	3.9087198	3.1226026	45.813021
238	1	2	-0.25739897	4.6601724	4.4678775	45.661167
239	1	2	-0.11443436	5.1035942	4.8429207	44.437952
240	1	3	0.20716585	4.9638758	4.2005865	43.578295
241	1	2	-0.41572011	5.793323	6.1318855	44.234569
242	1	3	0.22745658	6.1633345	6.3887482	43.250086
243	1	2	0.42477551	5.9550201	6.9769215	45.255786
244	1	7	-0.65156037	6.6088294	8.1897753	45.055215
245	1	8	0.43234446	6.740897	8.8461849	45.815466
246	1	2	-0.41572005	5.4319521	6.6191891	46.589137
247	1	3	0.22745658	5.5330692	7.3159028	47.411932
248	1	2	-0.11443442	4.8141554	5.4477847	46.782706
249	1	3	0.20716585	4.4157185	5.2518067	47.765754
250	1	4	-0.1305394	4.803145	1.9421405	45.261121
251	1	4	-0.13031988	6.3267182	2.0525523	45.510217
252	1	4	-0.12260785	7.0216997	0.71346355	45.276553
253	1	5	0.066003082	6.6523786	-0.043386547	46.000095
254	1	5	0.066003082	6.8327659	0.35641038	44.241301
255	1	5	0.066003082	8.1168459	0.83332857	45.4167
256	1	5	0.087996987	6.7712845	2.7910893	44.810483
257	1	5	0.087996987	6.5570228	2.3918739	46.535318
258	1	5	0.1035959	4.4393524	0.98112599	45.687152
259	1	5	0.1035959	4.6747307	1.8613495	44.158805
260	1	4	-0.1305394	3.4520147	2.8128805	47.281446
261	1	4	-0.13031988	4.56216	2.4769778	48.295655
262	1	4	-0.12260785	4.0042687	2.3989795	49.713648
263	1	5	0.066003082	3.5839636	3.3821789	50.017059
264	1	5	0.066003082	4.8168987	2.1280195	50.419627
265	1	5	0.066003082	3.208463	1.6261138	49.773928
266	1	5	0.087996987	5.3654113	3.2393603	48.282158
267	1	5	0.087996987	5.0077593	1.4894149	48.049656
268	1	5	0.1035959	2.8368797	3.6574617	47.662545
269	1	5	0.1035959	2.7649212	1.9364603	47.263578
270	1	2	-0.15568024	1.8472117	4.5195211	44.929529
271	1	3	0.20716584	2.2441337	5.4104365	45.395644
272	1	2	-0.32486186	0.67162209	4.6058526	44.295541
273	1	3	0.22239429	0.15354929	5.5544551	44.24725
274	2	2	0.46628919	-5.6896138	-6.3365137	42.453528
275	2	6	-0.5855034	-4.6195068	-5.8756062	42.813341
276	2	9	-0.089441033	-5.7324601	-7.7681845	41.440374
277	4	1	-0.0293487	-3.741833	0.13881683	66.366944
278	4	2	0.27169639	-2.4306665	0.56072511	66.159299
279	4	2	-0.32486192	-1.4073863	-0.29887135	66.249307
280	4	3	0.22239423	-1.5841827	-1.3380836	66.492607
281	4	2	-0.15568026	-0.022040657	0.16487044	66.025996
282	4	3	0.20716585	0.76800148	-0.55898297	66.167723
283	4	2	-0.25739897	0.24002831	1.445451	65.672247
284	4	4	0.026457728	1.6877955	1.9669424	65.498549
285	4	2	-0.25739897	1.6547591	3.1418242	64.489721
286	4	2	-0.15895108	1.2854265	2.9025625	63.20898
287	4	3	0.20716585	1.043922	1.8991721	62.881521
288	4	2	-0.27686477	1.2012089	3.9939756	62.218576
289	4	3	0.22259538	0.9333175	3.765012	61.194803
290	4	2	0.43397239	1.4507569	5.2540092	62.583884
291	4	1	-0.44315058	1.3715495	6.277101	61.642856
292	4	2	-0.27686471	1.8007584	5.5522848	63.98666
293	4	3	0.22259542	1.9707806	6.5767192	64.292406
294	4	2	-0.15895117	1.8877298	4.5660444	64.886997
295	4	3	0.20716585	2.1076406	4.8420565	65.907262
296	4	4	-0.1305394	2.6249469	0.81740189	64.95193
297	4	4	-0.13031988	3.8913278	1.262095	64.18115
298	4	4	-0.12260785	4.882588	0.10986465	64.038607
299	4	5	0.066003082	5.2380301	-0.21782521	65.038868
300	4	5	0.066003082	4.405344	-0.74734853	63.518512
301	4	5	0.066003082	5.7587436	0.44361648	63.444478
302	4	5	0.087996987	3.6148858	1.5975537	63.16009
303	4	5	0.087996987	4.4046223	2.1058643	64.676657
304	4	5	0.1035959	2.9319709	0.16467096	65.800062
305	4	5	0.1035959	2.0499987	0.16892357	64.254091
306	4	4	-0.1305394	2.1334883	2.3845713	66.944684
307	4	4	-0.13031988	3.6116536	2.7795062	67.125426
308	4	4	-0.12260785	3.8580131	3.3524634	68.519127
309	4	5	0.066003082	3.2626084	4.2793336	68.665026
310	4	5	0.066003082	4.9344354	3.6022116	68.634018
311	4	5	0.066003082	3.5802005	2.6098928	69.297109
312	4	5	0.087996987	3.9227501	3.5376653	66.380642
313	4	5	0.087996987	4.2558182	1.8821573	67.008439
314	4	5	0.1035959	1.4764965	3.2049453	67.309686
315	4	5	0.1035959	1.9472813	1.5303231	67.634409
316	4	2	-0.15568024	-0.91487944	2.3982376	65.630142
317	4	3	0.20716584	-0.75570169	3.4505152	65.434757
318	4	2	-0.32486186	-2.1652122	1.9763253	65.846049
319	4	3	0.22239429	-2.9876967	2.6802404	65.806542
320	5	2	0.62679034	1.5596864	7.2738755	61.906832
321	5	6	-0.50634152	1.3373986	8.1696306	61.108949
322	1	1	-0.0293487	-3.9633411	-0.82625834	66.586674
323	1	2	0.27169639	-3.1675686	-1.584927	67.44318
324	1	2	-0.32486192	-2.0696767	-1.0632422	68.006285
325	1	3	0.22239423	-1.7798912	-0.041376165	67.796801
326	1	2	-0.15568026	-1.2364834	-1.8793478	68.912456
327	1	3	0.20716585	-0.33200067	-1.4259624	69.291523
328	1	2	-0.25739897	-1.5898369	-3.1465438	69.238152
329	1	4	0.026457728	-0.69529719	-4.0411158	70.133158
330	1	2	-0.25739897	-1.6109304	-5.0640858	70.849156
331	1	2	-0.11443436	-2.5370354	-4.6185575	71.730842
332	1	3	0.20716585	-2.6209476	-3.5640284	71.958989
333	1	2	-0.41572011	-3.457464	-5.5498842	72.41199
334	1	3	0.22745658	-4.1659524	-5.1655678	73.134789
335	1	2	0.42477551	-3.4201577	-6.8556347	72.134969
336	1	7	-0.65156037	-4.2907292	-7.7272073	72.78395
337	1	8	0.43234446	-4.2805229	-8.7210406	72.587764
338	1	2	-0.41572005	-2.4586198	-7.3627752	71.136145
339	1	3	0.22745658	-2.4475852	-8.4162553	70.885777
340	1	2	-0.11443442	-1.6145389	-6.5251469	70.521949
341	1	3	0.20716585	-0.95945065	-6.9400081	69.772087
342	1	4	-0.1305394	0.066769487	-3.1613681	71.202447
343	1	4	-0.13031988	0.51149482	-3.878832	72.499744
344	1	4	-0.12260785	1.5395465	-3.0483052	73.264004
345	1	5	0.066003082	2.461295	-2.9236791	72.657719
346	1	5	0.066003082	1.1218788	-2.0481401	73.509263
347	1	5	0.066003082	1.8049288	-3.5644042	74.210876
348	1	5	0.087996987	-0.36341748	-4.0309598	73.166146
349	1	5	0.087996987	0.94631361	-4.8732204	72.296928
350	1	5	0.1035959	0.95912869	-2.7006059	70.724127
351	1	5	0.1035959	-0.58406324	-2.3176345	71.522835
352	1	4	-0.1305394	0.32990177	-4.6926936	69.140589
353	1	4	-0.13031988	1.4789025	-5.5060202	69.766825
354	1	4	-0.12260785	2.2748454	-6.2454253	68.695478
355	1	5	0.066003082	1.6233943	-6.9729815	68.164753
356	1	5	0.066003082	3.112214	-6.7993633	69.168933
357	1	5	0.066003082	2.6949494	-5.5259316	67.960561
358	1	5	0.087996987	1.0973165	-6.2527182	70.490328
359	1	5	0.087996987	2.1752264	-4.8225213	70.298161
360	1	5	0.1035959	-0.21773915	-5.3204814	68.40376
361	1	5	0.1035959	0.80594099	-3.8852168	68.539011
362	1	2	-0.15568024	-2.790713	-3.7239602	68.555058
363	1	3	0.20716584	-3.0723463	-4.7556755	68.712498
364	1	2	-0.32486186	-3.5346066	-2.9834765	67.72457
365	1	3	0.22239429	-4.4010443	-3.4182869	67.244149
366	2	2	0.46628919	1.954403	7.5089264	62.889907
367	2	6	-0.5855034	2.0939955	6.6249697	63.718257
368	2	9	-0.089441033	2.3900424	9.161204	63.287644
369	4	1	-0.0293487	1.0767924	3.639872	89.722216
370	4	2	0.27169639	0.61868257	2.5447178	88.993482
371	4	2	-0.32486192	-0.19105502	1.6352641	89.551451
372	4	3	0.22239423	-0.49773113	1.734514	90.584172
373	4	2	-0.15568026	-0.66833043	0.47902849	88.764409
374	4	3	0.20716585	-1.2723982	-0.25276766	89.281897
375	4	2	-0.25739897	-0.3482387	0.34170909	87.455826
376	4	4	0.026457728	-0.78307304	-0.8954116	86.632051
377	4	2	-0.25739897	-0.88483806	-0.46870745	85.146541
378	4	2	-0.15895108	-1.8112346	0.45068063	84.785343
379	4	3	0.20716585	-2.4946939	0.86359705	85.516594
380	4	2	-0.27686477	-1.9234771	0.91880353	83.389836
381	4	3	0.22259538	-2.6953332	1.6312471	83.127229
382	4	2	0.43397239	-1.0774014	0.46886844	82.459716
383	4	1	-0.44315058	-1.1918487	0.91362131	81.145326
384	4	2	-0.27686471	-0.021189872	-0.49135537	82.836063
385	4	3	0.22259542	0.68646945	-0.83183484	82.090982
386	4	2	-0.15895117	0.07980738	-0.92647684	84.097535
387	4	3	0.20716585	0.8937811	-1.5969343	84.328657
388	4	4	-0.1305394	-2.184654	-1.4261717	87.134399
389	4	4	-0.13031988	-3.0289807	-2.2282022	86.114873
390	4	4	-0.12260785	-4.1549949	-2.9895453	86.809854
391	4	5	0.066003082	-3.7350456	-3.7416876	87.511399
392	4	5	0.066003082	-4.8069373	-2.2868888	87.370497
393	4	5	0.066003082	-4.7701575	-3.5182436	86.052172
394	4	5	0.087996987	-3.4921468	-1.5374234	85.380149
395	4	5	0.087996987	-2.4170554	-2.9511974	85.545865
396	4	5	0.1035959	-2.0322521	-2.0503116	88.043725
397	4	5	0.1035959	-2.8163718	-0.56657242	87.45077
398	4	4	-0.1305394	0.33056941	-1.9663938	86.909827
399	4	4	-0.13031988	0.077642129	-3.3843985	86.363106
400	4	4	-0.12260785	1.3166899	-4.2618539	86.524991
401	4	5	0.066003082	2.1637582	-3.8434486	85.939931
402	4	5	0.066003082	1.0997961	-5.2850291	86.150386
403	4	5	0.066003082	1.6058497	-4.3288759	87.595384
404	4	5	0.087996987	-0.19206612	-3.362796	85.28929
405	4	5	0.087996987	-0.75192982	-3.8607658	86.927689
406	4	5	0.1035959	1.3074636	-1.5867996	86.536379
407	4	5	0.1035959	0.45733172	-2.0696005	88.011378
408	4	2	-0.15568024	0.60032379	1.3421451	86.870383
409	4	3	0.20716584	0.95660343	1.2362974	85.854183
410	4	2	-0.32486186	1.0398996	2.3793778	87.590716
411	4	3	0.22239429	1.7220197	3.0948926	87.147671
412	5	2	0.62679034	-0.53728857	0.57724776	80.398974
413	5	6	-0.50634152	-0.55628518	1.091128	79.292641
414	1	1	-0.0293487	0.81061983	3.7859119	90.689967
415	1	2	0.27169639	0.71431192	2.7278839	91.59204
416	1	2	-0.32486192	0.96639414	1.4696126	91.207571
417	1	3	0.22239423	1.242997	1.2553007	90.183056
418	1	2	-0.15568026	0.86081266	0.35867227	92.175067
419	1	3	0.20716585	1.0184038	-0.64078894	91.796146
420	1	2	-0.25739897	0.56413726	0.58931302	93.477185
421	1	4	0.026457728	0.38329094	-0.56733057	94.492551
422	1	2	-0.25739897	0.73434012	-0.024252776	95.899439
423	1	2	-0.11443436	2.001114	0.38031666	96.154672
424	1	3	0.20716585	2.770403	0.29959398	95.397835
425	1	2	-0.41572011	2.377557	0.93885195	97.468007
426	1	3	0.22745658	3.4057471	1.2243813	97.650739
427	1	2	0.42477551	1.45603	1.0956546	98.421589
428	1	7	-0.65156037	1.8205802	1.621337	99.658307
429	1	8	0.43234446	1.1374004	1.7502628	100.39515
430	1	2	-0.41572005	0.055145046	0.71549479	98.152522
431	1	3	0.22745658	-0.7004962	0.87112074	98.912399
432	1	2	-0.11443442	-0.29117532	0.19938491	96.967185
433	1	3	0.20716585	-1.3341636	-0.024833511	96.807669
434	1	4	-0.1305394	1.3382443	-1.7728892	94.12817
435	1	4	-0.13031988	1.7323742	-2.7193573	95.287641
436	1	4	-0.12260785	2.3274767	-4.0216269	94.757827
437	1	5	0.066003082	1.5725055	-4.5750533	94.160775
438	1	5	0.066003082	3.2154245	-3.8100711	94.124011
439	1	5	0.066003082	2.6431963	-4.6600647	95.609925
440	1	5	0.087996987	2.4980711	-2.2334392	95.928186
441	1	5	0.087996987	0.87198121	-2.9656497	95.934228
442	1	5	0.1035959	0.87042468	-2.3746448	93.317965
443	1	5	0.1035959	2.2921878	-1.379791	93.711536
444	1	4	-0.1305394	-1.1163499	-0.99984491	94.335109
445	1	4	-0.13031988	-1.5554653	-2.2657973	95.095646
446	1	4	-0.12260785	-3.0676962	-2.4541436	95.020067
447	1	5	0.066003082	-3.5872763	-1.5979491	95.502108
448	1	5	0.066003082	-3.3542459	-3.3863818	95.550175
449	1	5	0.066003082	-3.3950365	-2.5321783	93.961285
450	1	5	0.087996987	-1.2667877	-2.215566	96.163712
451	1	5	0.087996987	-1.0772805	-3.1600496	94.641766
452	1	5	0.1035959	-1.7768588	-0.1479878	94.608993
453	1	5	0.1035959	-1.3204406	-1.1923073	93.257225
454	1	2	-0.15568024	0.2350677	1.9962894	93.869945
455	1	3	0.20716584	-0.088630057	2.2273366	94.875121
456	1	2	-0.32486186	0.31983746	2.9972565	92.985477
457	1	3	0.22239429	0.081832967	4.0076846	93.290382
458	2	2	0.46628919	0.15635308	-0.23009022	80.610049
459	2	6	-0.5855034	0.23772759	-0.68465471	81.738667
460	2	9	-0.089441033	1.1617557	-0.87993936	79.327528
461	4	1	-0.0293487	0.89839675	22.646455	-3.6891423
462	4	2	0.27169639	0.17373788	22.096468	-2.6343132
463	4	2	-0.32486192	-0.16578996	22.836959	-1.5710616
464	4	3	0.22239423	0.12509097	23.877308	-1.5121075
465	4	2	-0.15568026	-0.93496159	22.238186	-0.46022708
466	4	3	0.20716585	-1.1313932	22.866478	0.39702509
467	4	2	-0.25739897	-1.3607111	20.95387	-0.51476003
468	4	4	0.026457728	-2.1099686	20.288867	0.66614566
469	4	2	-0.25739897	-3.0129986	19.170096	0.089897216
470	4	2	-0.15895108	-4.0312065	19.503957	-0.7381959
471	4	3	0.20716585	-4.234491	20.540926	-0.97424206
472	4	2	-0.27686477	-4.8967578	18.472748	-1.3436738
473	4	3	0.22259538	-5.7219863	18.774156	-1.9764857
474	4	2	0.43397239	-4.6613753	17.178323	-1.1146153
475	4	1	-0.44315058	-5.4841526	16.212253	-1.6875632
476	4	2	-0.27686471	-3.5237125	16.782503	-0.26121027
477	4	3	0.22259542	-3.310914	15.733232	-0.10120448
478	4	2	-0.15895117	-2.7411161	17.712942	0.29795625
479	4	3	0.20716585	-1.8992944	17.370083	0.88042374
480	4	4	-0.1305394	-2.9960811	21.354763	1.4258555
481	4	4	-0.13031988	-4.2161455	20.811877	2.2083466
482	4	4	-0.12260785	-4.755727	21.856762	3.1818035
483	4	5	0.066003082	-3.9896377	22.099956	3.9487486
484	4	5	0.066003082	-5.0378102	22.78226	2.6368641
485	4	5	0.066003082	-5.6552802	21.457946	3.6953978
486	4	5	0.087996987	-5.0335184	20.553446	1.5036255
487	4	5	0.087996987	-3.9712964	19.89697	2.777503
488	4	5	0.1035959	-2.3500635	21.932729	2.1246158
489	4	5	0.1035959	-3.399657	22.091242	0.69592821
490	4	4	-0.1305394	-0.97150934	19.762348	1.6101006
491	4	4	-0.13031988	-1.4102346	19.204102	2.9773953
492	4	4	-0.12260785	-0.23752024	18.546921	3.701432
493	4	5	0.066003082	0.14236561	17.683434	3.1140997
494	4	5	0.066003082	-0.57239525	18.178734	4.6946871
495	4	5	0.066003082	0.58354229	19.279727	3.8520956
496	4	5	0.087996987	-2.2145756	18.450784	2.8685966
497	4	5	0.087996987	-1.7835969	20.031774	3.617261
498	4	5	0.1035959	-0.36686236	19.001517	1.0684217
499	4	5	0.1035959	-0.26883742	20.600204	1.8207757
500	4	2	-0.15568024	-0.92329466	20.132758	-1.6885696
501	4	3	0.20716584	-1.1632029	19.079191	-1.7455041
502	4	2	-0.32486186	-0.21599452	20.675882	-2.684913
503	4	3	0.22239429	0.086914823	20.066333	-3.5276668
504	5	2	0.62679034	-5.316972	15.190371	-1.5249398
505	5	6	-0.50634152	-5.9510101	14.359731	-2.1545735
506	1	1	-0.0293487	1.1863175	23.618987	-3.6888658
507	1	2	0.27169639	1.6395969	24.249582	-2.531575
508	1	2	-0.32486192	1.7057975	23.589133	-1.3679457
509	1	3	0.22239423	1.3994719	22.552441	-1.3087512
510	1	2	-0.15568026	2.1888861	24.27058	-0.14989751
511	1	3	0.20716585	2.1660948	23.706792	0.77149434
512	1	2	-0.25739897	2.6264431	25.552599	-0.1910427
513	1	4	0.026457728	3.0739767	26.305924	1.0871244
514	1	2	-0.25739897	4.0985829	27.388151	0.66703715
515	1	2	-0.11443436	5.2835463	27.005516	0.13507042
516	1	3	0.20716585	5.5295679	25.956926	0.029923862
517	1	2	-0.41572011	6.2786231	27.998771	-0.31413812
518	1	3	0.22745658	7.2293502	27.660722	-0.70648214
519	1	2	0.42477551	6.0062444	29.304041	-0.24205943
520	1	7	-0.65156037	6.9517664	30.23404	-0.66608774
521	1	8	0.43234446	6.7652728	31.228803	-0.62174366
522	1	2	-0.41572005	4.6996958	29.749278	0.28147879
523	1	3	0.22745658	4.4632291	30.805598	0.31142594
524	1	2	-0.11443442	3.796641	28.854285	0.69958111
525	1	3	0.20716585	2.8429735	29.229579	1.0360578
526	1	4	-0.1305394	3.7406591	25.303277	2.1109963
527	1	4	-0.13031988	4.7399286	25.910928	3.1247691
528	1	4	-0.12260785	5.0192771	24.942262	4.2712449
529	1	5	0.066003082	4.0892771	24.746834	4.8453887
530	1	5	0.066003082	5.4173239	23.982577	3.8769183
531	1	5	0.066003082	5.7728844	25.384589	4.9566475
532	1	5	0.087996987	5.70552	26.126005	2.6207051
533	1	5	0.087996987	4.373608	26.861162	3.551238
534	1	5	0.1035959	2.9405637	24.771442	2.6717061
535	1	5	0.1035959	4.3021571	24.520561	1.5540453
536	1	4	-0.1305394	1.7466006	26.887548	1.6875951
537	1	4	-0.13031988	1.8450347	27.54489	3.0775905
538	1	4	-0.12260785	0.53931276	28.24174	3.4484265
539	1	5	0.066003082	0.31925932	29.057538	2.7263141
540	1	5	0.066003082	0.62675073	28.681503	4.4638849
541	1	5	0.066003082	-0.30076741	27.514742	3.446889
542	1	5	0.087996987	2.6588456	28.295298	3.1125321
543	1	5	0.087996987	2.0471332	26.768031	3.8457065
544	1	5	0.1035959	1.2963431	27.602285	0.96415578
545	1	5	0.1035959	1.0055816	26.061274	1.7808203
546	1	2	-0.15568024	2.4927251	26.284726	-1.4903652
547	1	3	0.20716584	2.7481963	27.332635	-1.5622087
548	1	2	-0.32486186	2.0418916	25.665498	-2.5879583
549	1	3	0.22239429	1.9566984	26.21126	-3.5182614
550	2	2	0.46628919	-4.5807606	14.871167	-0.7944691
551	2	6	-0.5855034	-3.8850403	15.697575	-0.22873682
552	2	9	-0.089441033	-4.3906412	13.165809	-0.42894699
553	4	1	-0.0293487	3.2494337	24.271439	22.86964
554	4	2	0.27169639	2.1386567	23.904354	22.113528