Title

53 atoms
54 bonds
89 angles
133 dihedrals
48 impropers

9 atom types
12 bond types
6 angle types
20 dihedral types
2 improper types
-6.324999809 93.67500019 xlo xhi
-3.943000078 96.05699992 ylo yhi
-1.378000021 98.62199998 zlo zhi
0.0 0.0 0.0 xy xz yz

Masses

1	15.99943
2	12.01078
3	1.007947
4	1.007947
5	12.01078
6	15.99943
7	1.007947
8	15.99943
9	1.007947


Pair Coeffs

1	0.16846514	3.0251065
2	0.10884061	3.3795318
3	0.016409246	2.5832257
4	0.015779483	2.6445434
5	0.086879315	3.4806469
6	0.2102061	3.0398122
7	0.015611343	2.5725815
8	0.20947353	2.99716
9	1.2326e-05	0.53453923

Bond Coeffs

1 harmonic	366.7408841747	1.425895053732
2 harmonic	300.03137914615	1.451203938761
3 harmonic	264.62148576755	1.52190126495
4 harmonic	370.04670688625	1.093899492634
5 harmonic	301.15400723785	1.345741232799
6 harmonic	582.698766451	1.225198386222
7 harmonic	279.1350963404	1.454628925034
8 harmonic	360.7852444772	1.387193227181
9 harmonic	397.2545789619	1.085358495916
10 harmonic	329.96998057905	1.427343958716
11 harmonic	543.5267831885	0.9716763312559
12 harmonic	385.7604595587	1.369745182308


Angle Coeffs

1 harmonic	53.20531626545	116.5475862634
2 harmonic	65.09061609600001	110.3538806181
3 harmonic	201.41175231035	127.4691416191
4 harmonic	57.8982893754	126.8062420451
5 harmonic	48.776492647595	115.6030999533
6 harmonic	34.066775159195	129.1835929926


Dihedral Coeffs

1 fourier 1	0.1155372516788	3	0
2 fourier 1	0.1115525666802	3	0
3 fourier 1	0.3432490222662	1	0
4 fourier 1	0.0473758381877	3	0
5 fourier 1	0.457973137376	1	0
6 fourier 1	0.1040663847541	3	0
7 fourier 1	0.1918272375143	3	0
8 fourier 1	0.9202179876409	1	180
9 fourier 1	1.163809172478	2	180
10 fourier 1	0.1679186987369	1	180
11 fourier 1	2.779853741805	2	180
12 fourier 1	0.9974165607242	2	180
13 fourier 1	0.1911926717192	3	0
14 fourier 1	3.661930099076	2	180
15 fourier 1	0.3445382149273	3	0
16 fourier 1	0.1364556373303	1	0
17 fourier 1	0.3026390167484	3	0
18 fourier 1	2.687457892086	2	180
19 fourier 1	2.772607909663	2	180
20 fourier 1	0.09692684957115	1	0


Improper Coeffs

1 3.5	-1	2
2 0.3666666666666667	-1	2


Atoms

1	1	1	-0.15749501	-1.834	0.66500002	-0.51800001
2	1	2	0.045991	-1.288	-0.54500002	-0.064999998
3	1	2	-0.131915	0.113	-0.331	0.51700002
4	1	2	0.15113001	1.099	0.17299999	-0.54100001
5	1	1	-0.50393897	2.3800001	0.29899999	0.012
6	1	3	0.087163001	0.76099998	1.15	-0.95499998
7	1	3	0.087163001	1.149	-0.55599999	-1.378
8	1	4	0.103839	0.48199999	-1.2970001	0.926
9	1	4	0.103839	0.057	0.39899999	1.354
10	1	3	0.095546998	-1.949	-0.99699998	0.70999998
11	1	3	0.095546998	-1.2359999	-1.258	-0.91600001
12	1	5	0.790811	2.3710001	1.1619999	0.588
13	1	6	-0.55979502	3.467	1.651	0.97100002
14	1	5	-0.30437699	1.092	1.8	0.949
15	1	5	-0.103742	-0.068000004	1.266	0.53299999
16	1	7	0.21310399	-0.079000004	0.36500001	-0.068999998
17	1	5	-0.060291	-1.354	1.899	0.89099997
18	1	7	0.19592901	-2.2739999	1.446	0.54100001
19	1	5	-0.36607799	-1.3789999	3.017	1.636
20	1	5	0.581738	-2.6659999	3.642	1.988
21	1	6	-0.59052402	-2.7049999	4.6900001	2.6860001
22	1	5	-0.060291	-0.097999997	3.609	2.0969999
23	1	7	0.19592901	-0.096000001	4.5089998	2.698
24	1	5	-0.103742	1.068	3.0350001	1.773
25	1	7	0.21310499	1.992	3.4809999	2.118
26	1	1	-0.156727	-2.105	1.174	0.28999999
27	1	2	0.054421999	-1.397	2.3840001	0.25799999
28	1	2	-0.166298	0.071999997	2.1700001	0.639
29	1	2	0.101519	0.22	1.666	2.0780001
30	1	8	-0.67670703	1.576	1.54	2.4100001
31	1	9	0.391177	1.901	0.71399999	1.965
32	1	3	0.089648999	-0.29899999	0.68800002	2.2049999
33	1	3	0.089648999	-0.24600001	2.395	2.776
34	1	4	0.107875	0.61299998	3.135	0.53500003
35	1	4	0.107875	0.53299999	1.4400001	-0.061999999
36	1	3	0.095423996	-1.456	2.836	-0.75800002
37	1	3	0.095423996	-1.868	3.0969999	0.96799999
38	1	5	0.581738	-3.596	3.204	1.648
39	1	6	-0.59052402	-4.4299998	3.934	1.051
40	1	5	-0.36607799	-3.8740001	1.776	1.8839999
41	1	5	-0.060291	-2.973	1.011	2.523
42	1	7	0.19592901	-2.0369999	1.431	2.8699999
43	1	5	-0.101131	-3.244	-0.421	2.7639999
44	1	7	0.21310399	-2.4949999	-1.007	3.2820001
45	1	5	-0.29354501	-4.3959999	-0.97899997	2.346
46	1	5	0.82919598	-4.6830001	-2.4119999	2.5799999
47	1	6	-0.535115	-3.849	-3.145	3.178
48	1	8	-0.67558002	-5.882	-2.9630001	2.138
49	1	9	0.40276101	-6.092	-3.9430001	2.2909999
50	1	5	-0.101131	-5.3909998	-0.132	1.64
51	1	7	0.21310499	-6.3249998	-0.55800003	1.295
52	1	5	-0.060291	-5.145	1.166	1.423
53	1	7	0.19592901	-5.8839998	1.766	0.90600002

Bonds

1	1	1	2
2	2	1	26
3	3	2	3
4	4	2	10
5	4	2	11
6	3	3	4
7	4	3	8
8	4	3	9
9	1	4	5
10	4	4	6
11	4	4	7
12	5	5	12
13	6	12	13
14	7	12	14
15	8	14	15
16	8	14	24
17	9	15	16
18	8	15	17
19	9	17	18
20	8	17	19
21	7	19	20
22	8	19	22
23	6	20	21
24	7	20	38
25	9	22	23
26	8	22	24
27	9	24	25
28	1	26	27
29	3	27	28
30	4	27	36
31	4	27	37
32	3	28	29
33	4	28	34
34	4	28	35
35	10	29	30
36	4	29	32
37	4	29	33
38	11	30	31
39	6	38	39
40	7	38	40
41	8	40	41
42	8	40	52
43	9	41	42
44	8	41	43
45	9	43	44
46	8	43	45
47	7	45	46
48	8	45	50
49	6	46	47
50	12	46	48
51	11	48	49
52	9	50	51
53	8	50	52
54	9	52	53

Angles

1	4	38	40	52
2	1	5	4	6
3	6	18	17	19
4	1	4	3	9
5	4	14	24	22
6	6	45	50	51
7	2	1	26	27
8	4	13	12	14
9	4	5	12	14
10	5	32	29	33
11	1	29	28	35
12	1	28	27	36
13	5	10	2	11
14	1	30	29	32
15	1	5	4	7
16	4	46	45	50
17	1	28	29	30
18	1	2	3	9
19	4	14	15	17
20	4	43	45	50
21	4	17	19	22
22	6	51	50	52
23	1	27	28	29
24	2	46	48	49
25	1	28	27	37
26	6	44	43	45
27	1	1	2	10
28	4	12	14	15
29	1	3	4	5
30	1	26	27	28
31	4	19	20	38
32	4	38	40	41
33	4	40	41	43
34	3	47	46	48
35	6	23	22	24
36	6	15	17	18
37	2	4	5	12
38	6	22	24	25
39	4	45	50	52
40	1	26	27	36
41	4	45	46	47
42	6	19	22	23
43	5	36	27	37
44	4	20	38	39
45	4	12	14	24
46	1	30	29	33
47	4	41	40	52
48	1	27	28	34
49	4	21	20	38
50	6	41	43	44
51	1	26	27	37
52	4	45	46	48
53	4	20	19	22
54	4	19	22	24
55	1	1	2	11
56	1	28	29	32
57	5	34	28	35
58	1	3	2	10
59	1	1	2	3
60	1	2	3	4
61	6	40	52	53
62	1	3	2	11
63	6	16	15	17
64	4	19	20	21
65	4	17	19	20
66	3	5	12	13
67	1	29	28	34
68	4	15	17	19
69	1	2	3	8
70	2	2	1	26
71	1	3	4	6
72	5	8	3	9
73	6	14	15	16
74	4	39	38	40
75	6	42	41	43
76	4	20	38	40
77	4	40	52	50
78	1	27	28	35
79	6	14	24	25
80	4	41	43	45
81	2	29	30	31
82	1	3	4	7
83	4	15	14	24
84	5	6	4	7
85	1	4	3	8
86	6	50	52	53
87	6	40	41	42
88	1	28	29	33
89	4	43	45	46

Dihedrals

1	2	1	2	3	8
1	3	1	2	3	8
2	14	43	45	50	52
3	13	9	3	2	10
4	14	19	22	24	25
5	1	2	3	4	5
6	4	1	26	27	36
7	12	21	20	38	40
8	14	23	22	24	25
9	13	35	28	27	36
10	13	9	3	2	11
11	12	39	38	40	52
12	14	14	15	17	19
13	14	20	19	22	24
14	2	30	29	28	34
14	3	30	29	28	34
15	9	4	5	12	13
15	10	4	5	12	13
16	12	43	45	46	47
17	14	16	15	14	24
18	2	5	4	3	9
18	3	5	4	3	9
19	4	1	26	27	37
20	14	40	41	43	44
21	12	5	12	14	15
22	12	22	19	20	38
23	12	43	45	46	48
24	2	30	29	28	35
24	3	30	29	28	35
25	11	4	5	12	14
26	19	47	46	48	49
26	20	47	46	48	49
27	14	38	40	52	53
28	14	17	19	22	24
29	13	33	29	28	35
30	14	38	40	41	42
31	12	17	19	20	38
32	14	15	17	19	22
33	14	40	41	43	45
34	6	29	28	27	36
35	18	45	46	48	49
36	14	12	14	15	16
37	17	31	30	29	32
38	12	39	38	40	41
39	2	1	2	3	9
39	3	1	2	3	9
40	6	29	28	27	37
41	14	18	17	19	20
42	12	48	46	45	50
43	14	15	14	24	25
44	12	47	46	45	50
45	12	5	12	14	24
46	13	35	28	27	37
47	13	6	4	3	8
48	14	40	52	50	45
49	14	41	40	52	53
50	14	14	24	22	23
51	13	32	29	28	34
52	6	4	3	2	10
53	1	26	27	28	29
54	12	20	38	40	52
55	14	15	14	24	22
56	2	26	27	28	34
56	3	26	27	28	34
57	12	13	12	14	15
58	14	14	24	22	19
59	14	42	41	40	52
60	6	2	3	4	6
61	4	3	2	1	26
62	14	17	15	14	24
63	14	42	41	43	44
64	14	38	40	41	43
65	4	10	2	1	26
66	14	51	50	52	53
67	14	46	45	50	51
68	13	32	29	28	35
69	4	7	4	5	12
70	14	43	41	40	52
71	14	38	40	52	50
72	14	41	43	45	50
73	12	19	20	38	39
74	13	8	3	2	10
75	14	16	15	17	18
76	4	11	2	1	26
77	14	12	14	15	17
78	14	41	43	45	46
79	15	28	29	30	31
79	16	28	29	30	31
80	14	46	45	50	52
81	6	27	28	29	32
82	17	31	30	29	33
83	13	34	28	27	36
84	12	19	20	38	40
85	12	21	20	19	22
86	14	14	15	17	18
87	5	2	1	26	27
88	14	16	15	17	19
89	14	15	17	19	20
90	14	44	43	45	50
91	2	5	4	3	8
91	3	5	4	3	8
92	13	6	4	3	9
93	12	20	38	40	41
94	12	13	12	14	24
95	6	27	28	29	33
96	6	4	3	2	11
97	14	12	14	24	25
98	14	17	19	22	23
99	13	34	28	27	37
100	14	44	43	45	46
101	13	33	29	28	34
102	14	18	17	19	22
103	13	7	4	3	8
104	14	40	52	50	51
105	1	1	2	3	4
106	4	1	26	27	28
107	4	6	4	5	12
108	14	41	40	52	50
109	14	43	45	50	51
110	12	17	19	20	21
111	2	26	27	28	35
111	3	26	27	28	35
112	6	2	3	4	7
113	7	3	4	5	12
113	8	3	4	5	12
114	14	42	41	43	45
115	12	21	20	38	39
116	13	8	3	2	11
117	13	7	4	3	9
118	14	45	50	52	53
119	14	20	19	22	23
120	1	27	28	29	30
121	14	12	14	24	22

Impropers

4	2	19	17	20	22
7	2	14	24	12	15
14	2	41	40	42	43
20	2	17	18	19	15
29	2	38	40	20	39
33	2	43	41	44	45
34	2	52	50	53	40
44	2	14	12	15	24
45	2	52	53	40	50
54	2	38	20	39	40
55	1	46	47	48	45
59	2	41	43	40	42
69	2	19	20	22	17
98	2	50	45	51	52
105	2	15	17	14	16
106	2	22	19	23	24
114	2	45	46	50	43
126	2	20	38	19	21
127	2	43	45	41	44
131	2	43	44	45	41
133	1	46	48	45	47
135	2	20	21	38	19
144	2	19	22	17	20
150	2	20	19	21	38
151	1	12	5	13	14
152	2	50	52	45	51
155	2	52	40	50	53
157	2	41	42	43	40
159	2	22	23	24	19
160	2	22	24	19	23
164	2	45	43	46	50
174	2	24	22	25	14
182	2	50	51	52	45
183	2	15	16	17	14
186	2	40	52	38	41
187	1	12	14	5	13
197	2	45	50	43	46
202	2	40	41	52	38
205	2	40	38	41	52
209	2	38	39	40	20
212	2	15	14	16	17
214	2	17	19	15	18
216	2	24	25	14	22
230	1	46	45	47	48
231	2	14	15	24	12
233	1	12	13	14	5
235	2	17	15	18	19
239	2	24	14	22	25
