Title

83 atoms
86 bonds
141 angles
217 dihedrals
84 impropers

8 atom types
13 bond types
6 angle types
21 dihedral types
2 improper types
-24.27000046 75.72999954 xlo xhi
-1.483999968 98.51600003 ylo yhi
-9.944999695 90.05500031 zlo zhi
0.0 0.0 0.0 xy xz yz

Masses

1	15.99943
2	12.01078
3	1.007947
4	12.01078
5	15.99943
6	1.007947
7	15.99943
8	1.007947


Pair Coeffs

1	0.16846514	3.0251065
2	0.10884061	3.3795318
3	0.016409246	2.5832257
4	0.086879315	3.4806469
5	0.2102061	3.0398122
6	0.015611343	2.5725815
7	0.20947353	2.99716
8	1.2326e-05	0.53453923

Bond Coeffs

1 harmonic	366.7408841747	1.425895053732
2 harmonic	300.03137914615	1.451203938761
3 harmonic	264.62148576755	1.52190126495
4 harmonic	370.04670688625	1.093899492634
5 harmonic	301.15400723785	1.345741232799
6 harmonic	582.698766451	1.225198386222
7 harmonic	279.1350963404	1.454628925034
8 harmonic	360.7852444772	1.387193227181
9 harmonic	397.2545789619	1.085358495916
10 harmonic	425.69104206635	1.362945806494
11 harmonic	329.96998057905	1.427343958716
12 harmonic	543.5267831885	0.9716763312559
13 harmonic	385.7604595587	1.369745182308


Angle Coeffs

1 harmonic	53.20531626545	116.5475862634
2 harmonic	65.09061609600001	110.3538806181
3 harmonic	201.41175231035	127.4691416191
4 harmonic	57.8982893754	126.8062420451
5 harmonic	48.776492647595	115.6030999533
6 harmonic	34.066775159195	129.1835929926


Dihedral Coeffs

1 fourier 1	-0.0309670556842	3	0
2 fourier 1	0.4598191477945	2	0
3 fourier 1	0.1115525666802	3	0
4 fourier 1	0.3432490222662	1	0
5 fourier 1	0.0473758381877	3	0
6 fourier 1	0.457973137376	1	0
7 fourier 1	0.1918272375143	3	0
8 fourier 1	0.9202179876409	1	180
9 fourier 1	1.163809172478	2	180
10 fourier 1	0.1679186987369	1	180
11 fourier 1	2.779853741805	2	180
12 fourier 1	0.9974165607242	2	180
13 fourier 1	0.1911926717192	3	0
14 fourier 1	3.661930099076	2	180
15 fourier 1	1.532232714475	2	180
16 fourier 1	0.3445382149273	3	0
17 fourier 1	0.1364556373303	1	0
18 fourier 1	0.3026390167484	3	0
19 fourier 1	2.687457892086	2	180
20 fourier 1	2.772607909663	2	180
21 fourier 1	0.09692684957115	1	0


Improper Coeffs

1 3.5	-1	2
2 0.3666666666666667	-1	2


Atoms

1	1	1	-0.13587099	1.576	-0.336	0.85699999
2	1	2	0.052143998	0.63599998	-0.419	-0.17900001
3	1	2	0.157198	-0.71899998	0.11	0.28999999
4	1	1	-0.50239599	-1.675	-0.035999998	-0.72399998
5	1	3	0.090286002	-1.051	-0.46900001	1.177
6	1	3	0.090286002	-0.63099998	1.1799999	0.58899999
7	1	3	0.097847	0.52999997	-1.484	-0.477
8	1	3	0.097847	0.98699999	0.154	-1.068
9	1	4	0.79209501	-1.49	0.71399999	-1.4170001
10	1	5	-0.55410999	-0.32300001	1.177	-1.518
11	1	4	-0.29929999	-2.5899999	1.2180001	-2.26
12	1	4	0.026013	-2.392	2.1889999	-3.1700001
13	1	6	0.220603	-1.414	2.632	-3.3110001
14	1	4	-0.35890001	-3.5150001	2.6719999	-4
15	1	6	0.20582099	-3.336	3.4549999	-4.7270002
16	1	4	0.213102	-4.744	2.1559999	-3.858
17	1	1	-0.41791001	-5.7740002	2.652	-4.6719999
18	1	2	0.085055001	-7.1490002	2.283	-4.5749998
19	1	2	0.085055001	-7.809	2.9679999	-3.3759999
20	1	1	-0.41791001	-9.184	2.599	-3.28
21	1	4	0.213102	-10.214	3.095	-4.0939999
22	1	4	-0.362656	-11.443	2.5780001	-3.951
23	1	6	0.20582099	-11.622	1.796	-3.2249999
24	1	4	0.060970001	-12.565	3.062	-4.7810001
25	1	6	0.20413101	-13.543	2.619	-4.6399999
26	1	4	-0.369082	-12.368	4.033	-5.691
27	1	4	0.58321398	-13.467	4.5359998	-6.5349998
28	1	5	-0.58139002	-14.635	4.073	-6.434
29	1	4	0.060970001	-11.013	4.6110001	-5.849
30	1	6	0.20413101	-10.84	5.3959999	-6.5749998
31	1	4	-0.362656	-9.9949999	4.1729999	-5.0970001
32	1	6	0.20582099	-9.0200005	4.618	-5.2329998
33	1	3	0.083714999	-7.7010002	4.072	-3.4400001
34	1	3	0.083714999	-7.3010001	2.645	-2.4449999
35	1	3	0.083714999	-7.257	1.179	-4.5120001
36	1	3	0.083714999	-7.6570001	2.6059999	-5.507
37	1	4	-0.35890001	-4.9619999	1.0779999	-2.855
38	1	6	0.20582099	-5.9369998	0.63200003	-2.7190001
39	1	4	0.026013	-3.9449999	0.63999999	-2.1029999
40	1	6	0.220603	-4.118	-0.145	-1.377
41	1	1	-0.130217	1.845	0.61799997	0.92000002
42	1	2	0.024096999	3.148	0.70099998	0.41100001
43	1	2	0.096118003	4.1529999	0.17200001	1.434
44	1	7	-0.67734998	5.461	0.31799999	0.95200002
45	1	8	0.39691499	5.5970001	-0.40000001	0.27900001
46	1	3	0.095734	4.0549998	0.75199997	2.3759999
47	1	3	0.095734	3.941	-0.89700001	1.663
48	1	3	0.098540001	3.3759999	1.766	0.192
49	1	3	0.098540001	3.23	0.12800001	-0.54100001
50	1	4	0.58321398	-13.274	5.3189998	-7.2579999
51	1	5	-0.58139002	-12.358	5.1529999	-8.1070004
52	1	4	-0.369082	-14.082	6.552	-7.2329998
53	1	4	0.060970001	-13.874	7.5489998	-8.1120005
54	1	6	0.20413101	-13.102	7.474	-8.868
55	1	4	-0.362656	-14.7	8.7740002	-8.0629997
56	1	6	0.20582099	-14.493	9.5530005	-8.7819996
57	1	4	0.213102	-15.673	8.9029999	-7.1389999
58	1	1	-0.41791001	-16.490999	10.042	-7.039
59	1	2	0.085055001	-16.527	11.132	-7.9619999
60	1	2	0.085055001	-17.249001	10.734	-9.2519999
61	1	1	-0.41791001	-18.542999	10.197	-8.9689999
62	1	4	0.213102	-19.672001	10.932	-8.5699997
63	1	4	-0.35890001	-19.704	12.279	-8.5480003
64	1	6	0.20582099	-18.851999	12.871	-8.8459997
65	1	4	0.029988	-20.926001	12.991	-8.1190004
66	1	6	0.220603	-20.915001	14.073	-8.1110001
67	1	4	-0.28846699	-22.023001	12.305	-7.7480001
68	1	4	0.830553	-23.249001	13.011	-7.3169999
69	1	5	-0.528382	-24.27	12.356	-6.973
70	1	7	-0.674106	-23.289	14.403	-7.2859998
71	1	8	0.40490499	-24.125999	14.892	-6.9920001
72	1	4	0.029988	-21.987	10.821	-7.7789998
73	1	6	0.220603	-22.857	10.245	-7.4879999
74	1	4	-0.35890001	-20.879	10.178	-8.1680002
75	1	6	0.20582099	-20.864	9.0959997	-8.1859999
76	1	3	0.083714999	-16.659	9.9549999	-9.7749996
77	1	3	0.083714999	-17.323999	11.599	-9.9449997
78	1	3	0.083714999	-15.502	11.499	-8.1800003
79	1	3	0.083714999	-17.070999	11.971	-7.4819999
80	1	4	-0.362656	-15.895	7.8070002	-6.171
81	1	6	0.20582099	-16.671	7.9029999	-5.4219999
82	1	4	0.060970001	-15.147	6.698	-6.2140002
83	1	6	0.20413101	-15.326	5.9050002	-5.4970002

Bonds

1	1	1	2
2	2	1	41
3	3	2	3
4	4	2	7
5	4	2	8
6	1	3	4
7	4	3	5
8	4	3	6
9	5	4	9
10	6	9	10
11	7	9	11
12	8	11	12
13	8	11	39
14	9	12	13
15	8	12	14
16	9	14	15
17	8	14	16
18	10	16	17
19	8	16	37
20	1	17	18
21	3	18	19
22	4	18	35
23	4	18	36
24	1	19	20
25	4	19	33
26	4	19	34
27	10	20	21
28	8	21	22
29	8	21	31
30	9	22	23
31	8	22	24
32	9	24	25
33	8	24	26
34	7	26	27
35	8	26	29
36	6	27	28
37	7	27	50
38	9	29	30
39	8	29	31
40	9	31	32
41	9	37	38
42	8	37	39
43	9	39	40
44	1	41	42
45	3	42	43
46	4	42	48
47	4	42	49
48	11	43	44
49	4	43	46
50	4	43	47
51	12	44	45
52	6	50	51
53	7	50	52
54	8	52	53
55	8	52	82
56	9	53	54
57	8	53	55
58	9	55	56
59	8	55	57
60	10	57	58
61	8	57	80
62	1	58	59
63	3	59	60
64	4	59	78
65	4	59	79
66	1	60	61
67	4	60	76
68	4	60	77
69	10	61	62
70	8	62	63
71	8	62	74
72	9	63	64
73	8	63	65
74	9	65	66
75	8	65	67
76	7	67	68
77	8	67	72
78	6	68	69
79	13	68	70
80	12	70	71
81	9	72	73
82	8	72	74
83	9	74	75
84	9	80	81
85	8	80	82
86	9	82	83

Angles

1	1	1	2	7
2	4	20	21	31
3	4	27	50	52
4	6	66	65	67
5	4	57	80	82
6	5	76	60	77
7	6	52	53	54
8	4	52	82	80
9	1	61	60	77
10	6	11	12	13
11	1	58	59	79
12	6	26	29	30
13	5	48	42	49
14	1	60	59	79
15	6	25	24	26
16	6	73	72	74
17	2	68	70	71
18	1	1	2	8
19	4	16	37	39
20	1	59	60	61
21	4	11	39	37
22	4	52	53	55
23	1	59	60	77
24	4	11	12	14
25	4	26	29	31
26	3	4	9	10
27	1	58	59	60
28	4	61	62	63
29	4	55	57	58
30	4	51	50	52
31	1	4	3	6
32	4	17	16	37
33	6	67	72	73
34	4	22	21	31
35	1	41	42	48
36	5	7	2	8
37	4	24	26	29
38	1	43	42	48
39	1	18	19	33
40	4	14	16	37
41	6	62	74	75
42	4	50	52	53
43	4	68	67	72
44	1	2	3	6
45	6	13	12	14
46	4	67	72	74
47	1	42	43	46
48	6	62	63	64
49	1	41	42	49
50	5	33	19	34
51	1	18	19	34
52	6	54	53	55
53	4	9	11	39
54	4	28	27	50
55	1	19	18	35
56	6	23	22	24
57	4	63	62	74
58	5	78	59	79
59	6	21	22	23
60	2	57	58	59
61	4	62	63	65
62	4	9	11	12
63	6	29	31	32
64	4	62	74	72
65	6	21	31	32
66	1	20	19	33
67	4	4	9	11
68	6	22	24	25
69	1	19	18	36
70	4	27	26	29
71	6	53	55	56
72	4	50	52	82
73	1	17	18	19
74	2	19	20	21
75	1	3	2	7
76	1	44	43	46
77	1	17	18	35
78	5	35	18	36
79	1	20	19	34
80	4	67	68	69
81	6	12	14	15
82	2	1	41	42
83	1	43	42	49
84	3	69	68	70
85	1	1	2	3
86	4	53	55	57
87	4	21	31	29
88	4	55	57	80
89	2	60	61	62
90	1	3	2	8
91	2	43	44	45
92	1	17	18	36
93	1	2	3	4
94	1	4	3	5
95	1	58	59	78
96	6	11	39	40
97	6	63	65	66
98	1	42	43	47
99	6	56	55	57
100	6	30	29	31
101	4	65	67	72
102	4	67	68	70
103	6	64	63	65
104	2	3	4	9
105	4	58	57	80
106	4	10	9	11
107	4	12	11	39
108	4	53	52	82
109	2	16	17	18
110	6	16	37	38
111	4	20	21	22
112	6	80	82	83
113	4	65	67	68
114	4	26	27	50
115	1	2	3	5
116	4	24	26	27
117	6	15	14	16
118	4	21	22	24
119	1	59	60	76
120	4	63	65	67
121	1	18	19	20
122	5	5	3	6
123	6	37	39	40
124	5	46	43	47
125	6	72	74	75
126	1	42	43	44
127	6	81	80	82
128	4	22	24	26
129	6	52	82	83
130	2	2	1	41
131	4	14	16	17
132	4	27	50	51
133	4	26	27	28
134	4	61	62	74
135	6	38	37	39
136	6	57	80	81
137	1	41	42	43
138	1	44	43	47
139	1	61	60	76
140	4	12	14	16
141	1	60	59	78

Dihedrals

1	13	34	19	18	35
2	1	41	42	43	44
2	2	41	42	43	44
3	14	14	16	37	38
4	14	20	21	22	24
5	5	7	2	1	41
6	14	16	37	39	40
7	15	60	61	62	74
8	7	2	3	4	9
8	8	2	3	4	9
9	15	19	20	21	31
10	3	4	3	2	8
10	4	4	3	2	8
11	14	23	22	24	26
12	14	21	31	29	30
13	5	8	2	1	41
14	7	59	60	61	62
14	8	59	60	61	62
15	3	1	2	3	5
15	4	1	2	3	5
16	5	6	3	4	9
17	12	27	50	52	82
18	5	5	3	4	9
19	14	14	16	37	39
20	14	21	31	29	26
21	14	55	57	80	82
22	12	28	27	50	51
23	14	54	53	55	56
24	14	55	53	52	82
25	14	24	26	29	31
26	14	12	14	16	17
27	3	44	43	42	48
27	4	44	43	42	48
28	11	3	4	9	11
29	14	52	53	55	57
30	14	50	52	53	54
31	5	57	58	59	78
32	14	30	29	31	32
33	12	65	67	68	70
34	18	45	44	43	47
35	14	17	16	37	38
36	5	1	41	42	43
37	12	28	27	50	52
38	14	54	53	55	57
39	14	50	52	82	80
40	14	22	24	26	27
41	14	21	22	24	25
42	14	38	37	39	40
43	14	9	11	12	14
44	15	55	57	58	59
45	14	67	72	74	75
46	3	58	59	60	76
46	4	58	59	60	76
47	3	44	43	42	49
47	4	44	43	42	49
48	1	17	18	19	20
48	2	17	18	19	20
49	13	6	3	2	8
50	13	33	19	18	35
51	14	56	55	57	80
52	14	22	21	31	32
53	12	4	9	11	39
54	14	11	12	14	15
55	13	77	60	59	78
56	13	5	3	2	8
57	14	14	12	11	39
58	7	18	19	20	21
58	8	18	19	20	21
59	15	60	61	62	63
60	13	47	43	42	48
61	14	25	24	26	27
62	14	63	62	74	75
63	14	17	16	37	39
64	14	26	29	31	32
65	12	70	68	67	72
66	14	50	52	53	55
67	13	46	43	42	49
68	1	58	59	60	61
68	2	58	59	60	61
69	13	34	19	18	36
70	5	21	20	19	33
71	14	58	57	80	81
72	3	58	59	60	77
72	4	58	59	60	77
73	12	4	9	11	12
74	12	29	26	27	50
75	13	33	19	18	36
76	14	62	74	72	67
77	14	64	63	62	74
78	14	64	63	65	66
79	6	2	1	41	42
80	12	26	27	50	51
81	14	73	72	74	75
82	14	22	21	31	29
83	5	21	20	19	34
84	3	41	42	43	46
84	4	41	42	43	46
85	14	58	57	80	82
86	14	65	67	72	73
87	3	17	18	19	33
87	4	17	18	19	33
88	3	20	19	18	35
88	4	20	19	18	35
89	12	24	26	27	50
90	3	61	60	59	78
90	4	61	60	59	78
91	14	53	55	57	58
92	14	63	62	74	72
93	15	14	16	17	18
94	12	51	50	52	53
95	5	62	61	60	76
96	14	13	12	11	39
97	14	9	11	39	40
98	14	24	22	21	31
99	19	67	68	70	71
100	14	64	63	65	67
101	5	1	41	42	48
102	14	66	65	67	72
103	7	16	17	18	19
103	8	16	17	18	19
104	14	11	39	37	38
105	14	12	14	16	37
106	5	57	58	59	79
107	14	15	14	16	17
108	14	68	67	72	73
109	5	16	17	18	35
110	3	20	19	18	36
110	4	20	19	18	36
111	3	61	60	59	79
111	4	61	60	59	79
112	14	62	63	65	66
113	13	76	60	59	78
114	15	18	17	16	37
115	14	66	65	67	68
116	12	24	26	27	28
117	14	13	12	14	15
118	3	1	2	3	6
118	4	1	2	3	6
119	14	21	22	24	26
120	14	27	26	29	30
121	5	1	41	42	49
122	14	12	11	39	40
123	14	63	65	67	72
124	14	65	63	62	74
125	15	59	58	57	80
126	14	11	12	14	16
127	13	77	60	59	79
128	14	9	11	39	37
129	13	47	43	42	49
130	14	62	63	65	67
131	13	76	60	59	79
132	7	57	58	59	60
132	8	57	58	59	60
133	14	63	65	67	68
134	20	69	68	70	71
134	21	69	68	70	71
135	14	20	21	31	32
136	12	51	50	52	82
137	14	53	52	82	83
138	14	22	24	26	29
139	16	42	43	44	45
139	17	42	43	44	45
140	14	27	26	29	31
141	14	55	57	80	81
142	12	28	27	26	29
143	14	24	26	29	30
144	15	19	20	21	22
145	14	25	24	26	29
146	14	62	74	72	73
147	14	61	62	74	75
148	14	12	11	39	37
149	12	26	27	50	52
150	14	50	52	82	83
151	14	52	53	55	56
152	14	61	62	63	64
153	3	41	42	43	47
153	4	41	42	43	47
154	14	52	82	80	81
155	14	65	67	72	74
156	3	17	18	19	34
156	4	17	18	19	34
157	14	54	53	52	82
158	14	56	55	57	58
159	14	57	80	82	83
160	18	45	44	43	46
161	12	65	67	68	69
162	5	62	61	60	77
163	14	20	21	31	29
164	12	27	50	52	53
165	9	3	4	9	10
165	10	3	4	9	10
166	14	53	52	82	80
167	12	10	9	11	39
168	14	9	11	12	13
169	14	20	21	22	23
170	12	69	68	67	72
171	14	23	22	21	31
172	13	6	3	2	7
173	14	52	82	80	57
174	14	53	55	57	80
175	14	61	62	63	65
176	13	5	3	2	7
177	14	68	67	72	74
178	3	4	3	2	7
178	4	4	3	2	7
179	14	23	22	24	25
180	14	11	39	37	16
181	5	16	17	18	36
182	14	81	80	82	83
183	5	3	2	1	41
184	14	61	62	74	72
185	12	10	9	11	12
186	14	15	14	16	37
187	14	13	12	14	16
188	1	1	2	3	4
188	2	1	2	3	4
189	13	46	43	42	48

Impropers

5	2	63	65	62	64
11	2	37	39	16	38
14	2	52	50	53	82
21	2	37	38	39	16
22	2	62	61	63	74
23	2	53	54	55	52
24	2	53	52	54	55
33	2	14	16	12	15
36	2	39	40	11	37
51	2	55	56	57	53
53	2	82	52	80	83
57	2	31	32	21	29
61	2	52	82	50	53
62	2	67	68	72	65
64	2	29	26	30	31
69	1	68	69	70	67
70	2	62	63	74	61
82	2	16	17	37	14
83	1	9	11	4	10
91	2	55	57	53	56
92	2	80	57	81	82
94	2	26	24	27	29
98	2	39	11	37	40
104	2	72	74	67	73
105	1	9	4	10	11
118	2	14	15	16	12
119	2	50	27	51	52
122	2	72	73	74	67
133	2	24	22	25	26
136	2	63	64	65	62
140	2	16	14	17	37
151	2	16	37	14	17
154	2	50	51	52	27
155	2	11	12	39	9
157	2	63	62	64	65
163	2	12	14	11	13
172	1	68	67	69	70
180	2	53	55	52	54
183	2	65	63	66	67
198	2	62	74	61	63
204	2	21	22	31	20
208	2	65	66	67	63
211	2	21	31	20	22
216	2	82	80	83	52
217	2	22	21	23	24
219	2	67	72	65	68
223	2	37	16	38	39
225	1	68	70	67	69
226	2	31	21	29	32
232	2	52	53	82	50
236	2	27	50	26	28
237	2	29	31	26	30
242	2	57	80	55	58
246	2	12	13	14	11
247	2	27	28	50	26
249	2	12	11	13	14
250	2	11	9	12	39
252	2	57	58	80	55
257	2	21	20	22	31
261	2	29	30	31	26
263	2	27	26	28	50
271	2	55	53	56	57
278	2	24	25	26	22
281	2	11	39	9	12
284	2	50	52	27	51
288	1	9	10	11	4
293	2	74	72	75	62
295	2	74	75	62	72
302	2	74	62	72	75
303	2	39	37	40	11
308	2	22	24	21	23
310	2	31	29	32	21
318	2	24	26	22	25
323	2	80	81	82	57
325	2	57	55	58	80
326	2	14	12	15	16
334	2	67	65	68	72
339	2	22	23	24	21
346	2	65	67	63	66
350	2	82	83	52	80
354	2	80	82	57	81
355	2	72	67	73	74
357	2	26	27	29	24
358	2	26	29	24	27
