Title

92 atoms
93 bonds
162 angles
298 dihedrals
60 impropers

12 atom types
17 bond types
10 angle types
37 dihedral types
3 improper types
-12.58300018 87.41699982 xlo xhi
-2.082000017 97.91799998 ylo yhi
-4.849999905 95.1500001 zlo zhi
0.0 0.0 0.0 xy xz yz

Masses

1	12.01078
2	15.99943
3	14.00672
4	12.01078
5	1.007947
6	1.007947
7	1.007947
8	15.99943
9	1.007947
10	12.01078
11	15.99943
12	1.007947


Pair Coeffs

1	0.086879315	3.4806469
2	0.2102061	3.0398122
3	0.16769152	3.206876
4	0.10884061	3.3795318
5	0.014090815	1.1034277
6	0.016409246	2.5832257
7	0.015779483	2.6445434
8	0.16846514	3.0251065
9	0.015611343	2.5725815
10	0.21	3.3996695
11	0.20947353	2.99716
12	1.2326e-05	0.53453923

Bond Coeffs

1 harmonic	582.698766451	1.225198386222
2 harmonic	492.76746816345	1.381897776683
3 harmonic	279.1350963404	1.454628925034
4 harmonic	352.0565580496	1.450098586273
5 harmonic	505.144496193	1.019481865027
6 harmonic	264.62148576755	1.52190126495
7 harmonic	370.04670688625	1.093899492634
8 harmonic	301.15400723785	1.345741232799
9 harmonic	366.7408841747	1.425895053732
10 harmonic	366.34047229585	1.464762957261
11 harmonic	390.03554688505	1.390160554689
12 harmonic	360.7852444772	1.387193227181
13 harmonic	397.2545789619	1.085358495916
14 harmonic	300.03137914615	1.451203938761
15 harmonic	602.81384337	1.196112346392
16 harmonic	329.96998057905	1.427343958716
17 harmonic	543.5267831885	0.9716763312559


Angle Coeffs

1 harmonic	55.42182150775	117.3465570514
2 harmonic	63.44422595415	115.5071327674
3 harmonic	57.8982893754	126.8062420451
4 harmonic	53.20531626545	116.5475862634
5 harmonic	65.09061609600001	110.3538806181
6 harmonic	201.41175231035	127.4691416191
7 harmonic	48.776492647595	115.6030999533
8 harmonic	34.066775159195	129.1835929926
9 harmonic	55.07882548015	112.8714009681
10 harmonic	33.56981613361	180


Dihedral Coeffs

1 fourier 1	-0.1488678166443	4	180
2 fourier 1	-0.1230328948768	3	180
3 fourier 1	0.2939295466901	2	0
4 fourier 1	-0.3024127022865	1	0
5 fourier 1	0.182238503271	2	0
6 fourier 1	0.02972342374561	3	0
7 fourier 1	1.809047390003	2	180
8 fourier 1	-0.04816277792592	1	0
9 fourier 1	3.101948770557	2	180
10 fourier 1	-0.4252153282372	1	0
11 fourier 1	2.348375642009	2	180
12 fourier 1	1.256156174911	1	0
13 fourier 1	0.9974165607242	2	180
14 fourier 1	0.1155372516788	3	0
15 fourier 1	0.09223874044423	3	0
16 fourier 1	0.3159935921949	2	180
17 fourier 1	0.3247796806857	1	180
18 fourier 1	0.1040663847541	3	0
19 fourier 1	2.779853741805	2	180
20 fourier 1	0.1918272375143	3	0
21 fourier 1	0.9202179876409	1	180
22 fourier 1	0.0473758381877	3	0
23 fourier 1	0.4860993122944	2	180
24 fourier 1	0.8916986138746	1	0
25 fourier 1	1.163809172478	2	180
26 fourier 1	0.1679186987369	1	180
27 fourier 1	0.1911926717192	3	0
28 fourier 1	0.1115525666802	3	0
29 fourier 1	0.3432490222662	1	0
30 fourier 1	1.193093382682	2	180
31 fourier 1	3.661930099076	2	180
32 fourier 1	0.457973137376	1	0
33 fourier 1	-1.382973039546	1	0
34 fourier 1	0	1	0
35 fourier 1	0.3445382149273	3	0
36 fourier 1	0.1364556373303	1	0
37 fourier 1	0.3026390167484	3	0


Improper Coeffs

1 0.3333333333333333	-1	2
2 0.3666666666666667	-1	2
3 3.5	-1	2


Atoms

1	1	1	0.54967499	3.3410001	1.4349999	0.43399999
2	1	2	-0.64309299	4.3610001	0.736	0.192
3	1	3	-0.51403898	2.036	0.977	0.071000002
4	1	4	0.034318998	1.834	-0.308	-0.60100001
5	1	4	-0.14255799	0.34599999	-0.59299999	-0.83999997
6	1	4	-0.141241	-0.39700001	-0.898	0.47099999
7	1	4	0.028612999	-1.876	-1.224	0.226
8	1	3	-0.456588	-2.5880001	-0.074000001	-0.331
9	1	1	0.793356	-2.9430001	1.071	0.44999999
10	1	2	-0.572604	-2.6630001	1.13	1.677
11	1	5	0.33464199	-2.9000001	-0.11	-1.327
12	1	6	0.070753001	-2.355	-1.533	1.1799999
13	1	6	0.070753001	-1.952	-2.082	-0.477
14	1	7	0.098840997	-0.31600001	-0.037999999	1.168
15	1	7	0.098840997	0.077	-1.776	0.96200001
16	1	7	0.098840997	-0.117	0.278	-1.353
17	1	7	0.098840997	0.26100001	-1.471	-1.516
18	1	6	0.067041002	2.2809999	-1.124	0.0070000002
19	1	6	0.067041002	2.355	-0.285	-1.5829999
20	1	5	0.328067	1.224	1.599	0.28400001
21	1	8	-0.49408299	-3.444	1.862	0.003
22	1	4	0.117517	-4.5120001	2.187	0.85000002
23	1	4	0.15391301	-5.645	1.168	0.69
24	1	3	-0.661156	-6.7449999	1.46	1.624
25	1	1	0.27388901	-6.7729998	0.87300003	2.9590001
26	1	1	-0.43431601	-7.902	0.87	3.7049999
27	1	9	0.211803	-8.8280001	1.291	3.3440001
28	1	1	-0.13426299	-7.9219999	0.26899999	5.0549998
29	1	9	0.21642999	-8.8369999	0.278	5.6329999
30	1	1	-0.27877101	-6.8179998	-0.28400001	5.5609999
31	1	9	0.2138	-6.8330002	-0.72399998	6.5500002
32	1	1	-0.13426299	-5.5749998	-0.29499999	4.7709999
33	1	9	0.21642999	-4.6799998	-0.74199998	5.1869998
34	1	1	-0.43431601	-5.5479999	0.24699999	3.5480001
35	1	9	0.211803	-4.6139998	0.22400001	3.006
36	1	4	0.155588	-7.7989998	2.3759999	1.154
37	1	4	0.038943999	-8.9230003	1.601	0.461
38	1	8	-0.135077	-9.9420004	2.4760001	0.063000001
39	1	6	0.101974	-8.5179996	1.098	-0.44299999
40	1	6	0.101974	-9.3330002	0.80900002	1.126
41	1	6	0.081964999	-8.1940002	2.9849999	1.9960001
42	1	6	0.081964999	-7.375	3.105	0.42899999
43	1	6	0.083636999	-6.013	1.212	-0.359
44	1	6	0.083636999	-5.2719998	0.132	0.83499998
45	1	6	0.095992997	-4.1659999	2.2390001	1.906
46	1	6	0.095992997	-4.8860002	3.1960001	0.574
47	1	1	0.54967499	3.4560001	2.3929999	0.92299998
48	1	2	-0.64309299	2.701	2.6919999	1.886
49	1	3	-0.51403898	4.461	3.3039999	0.47
50	1	4	0.034607999	4.6529999	4.6090002	1.1
51	1	4	-0.137449	5.7909999	5.3800001	0.42300001
52	1	4	-0.11951	5.9970002	6.75	1.079
53	1	4	0.188545	7.1339998	7.5219998	0.398
54	1	3	-0.58896202	7.369	8.8000002	1.062
55	1	10	0.59654999	6.5209999	9.7489996	1.018
56	1	2	-0.40465099	5.6960001	10.67	0.97500002
57	1	6	0.043274	8.0679998	6.9229999	0.45500001
58	1	6	0.043274	6.8979998	7.6929998	-0.676
59	1	7	0.092671998	6.2449999	6.612	2.155
60	1	7	0.092671998	5.0560002	7.3379998	1.005
61	1	7	0.097847998	5.5469999	5.5190001	-0.65399998
62	1	7	0.097847998	6.7290001	4.7870002	0.5
63	1	6	0.067041002	3.711	5.1939998	1.021
64	1	6	0.067041002	4.8940001	4.4629998	2.1760001
65	1	5	0.328067	5.0630002	3.01	-0.333
66	1	8	-0.135077	-10.458	2.701	0.88099998
67	1	4	0.038943999	-11.176	3.869	0.59200001
68	1	4	0.156747	-10.249	5.0879998	0.64600003
69	1	3	-0.65294701	-10.977	6.3130002	0.27700001
70	1	1	0.275576	-11.038	6.7620001	-1.109
71	1	1	-0.43431601	-11.42	8.0209999	-1.427
72	1	9	0.211803	-11.687	8.7460003	-0.67299998
73	1	1	-0.13426299	-11.474	8.4689999	-2.8340001
74	1	9	0.21642999	-11.783	9.4809999	-3.0639999
75	1	1	-0.27877101	-11.144	7.632	-3.819
76	1	9	0.2138	-11.183	7.96	-4.8499999
77	1	1	-0.13426299	-10.724	6.256	-3.503
78	1	9	0.21642999	-10.459	5.579	-4.3049998
79	1	1	-0.43431601	-10.672	5.8429999	-2.2309999
80	1	9	0.211803	-10.366	4.8239999	-2.0439999
81	1	4	0.124673	-11.648	7.0489998	1.364
82	1	4	0.084954001	-10.705	8.0889997	1.977
83	1	11	-0.67266899	-11.368	8.8149996	2.9749999
84	1	12	0.39808401	-11.955	9.467	2.5079999
85	1	6	0.095049001	-9.8369999	7.5710001	2.4360001
86	1	6	0.095049001	-10.307	8.7779999	1.199
87	1	6	0.088739999	-12.583	7.5240002	0.99800003
88	1	6	0.088739999	-11.961	6.3439999	2.165
89	1	6	0.081964999	-9.8470001	5.1799998	1.679
90	1	6	0.081964999	-9.3640003	4.9450002	-0.0099999998
91	1	6	0.101974	-11.667	3.7839999	-0.403
92	1	6	0.101974	-11.978	3.9849999	1.35

Bonds

1	1	1	2
2	2	1	3
3	3	1	47
4	4	3	4
5	5	3	20
6	6	4	5
7	7	4	18
8	7	4	19
9	6	5	6
10	7	5	16
11	7	5	17
12	6	6	7
13	7	6	14
14	7	6	15
15	4	7	8
16	7	7	12
17	7	7	13
18	2	8	9
19	5	8	11
20	1	9	10
21	8	9	21
22	9	21	22
23	6	22	23
24	7	22	45
25	7	22	46
26	10	23	24
27	7	23	43
28	7	23	44
29	11	24	25
30	10	24	36
31	12	25	26
32	12	25	34
33	13	26	27
34	12	26	28
35	13	28	29
36	12	28	30
37	13	30	31
38	12	30	32
39	13	32	33
40	12	32	34
41	13	34	35
42	6	36	37
43	7	36	41
44	7	36	42
45	9	37	38
46	7	37	39
47	7	37	40
48	14	38	66
49	1	47	48
50	2	47	49
51	4	49	50
52	5	49	65
53	6	50	51
54	7	50	63
55	7	50	64
56	6	51	52
57	7	51	61
58	7	51	62
59	6	52	53
60	7	52	59
61	7	52	60
62	10	53	54
63	7	53	57
64	7	53	58
65	15	54	55
66	1	55	56
67	9	66	67
68	6	67	68
69	7	67	91
70	7	67	92
71	10	68	69
72	7	68	89
73	7	68	90
74	11	69	70
75	10	69	81
76	12	70	71
77	12	70	79
78	13	71	72
79	12	71	73
80	13	73	74
81	12	73	75
82	13	75	76
83	12	75	77
84	13	77	78
85	12	77	79
86	13	79	80
87	6	81	82
88	7	81	87
89	7	81	88
90	16	82	83
91	7	82	85
92	7	82	86
93	17	83	84

Angles

1	4	66	67	91
2	2	47	49	65
3	4	69	81	82
4	7	16	5	17
5	4	4	5	6
6	4	51	52	53
7	7	85	82	86
8	4	24	23	43
9	7	45	22	46
10	7	89	68	90
11	4	53	52	60
12	4	82	81	87
13	3	71	73	75
14	4	22	23	44
15	4	24	36	42
16	4	5	4	19
17	4	8	7	12
18	4	49	50	63
19	3	28	30	32
20	1	1	3	4
21	4	24	23	44
22	8	27	26	28
23	8	74	73	75
24	3	75	77	79
25	7	14	6	15
26	4	51	52	59
27	1	70	69	81
28	3	70	79	77
29	7	59	52	60
30	8	30	32	33
31	8	70	79	80
32	4	81	82	83
33	8	32	34	35
34	4	38	37	40
35	4	52	51	62
36	10	54	55	56
37	4	36	37	39
38	2	7	8	11
39	5	82	83	84
40	4	22	23	43
41	4	52	53	54
42	4	6	7	12
43	4	24	36	41
44	4	52	53	57
45	3	73	75	77
46	1	47	49	50
47	4	52	53	58
48	3	2	1	47
49	4	4	5	16
50	4	50	51	62
51	4	68	67	92
52	2	50	49	65
53	4	3	4	19
54	1	23	24	25
55	8	26	28	29
56	8	31	30	32
57	3	69	70	79
58	4	5	6	15
59	7	61	51	62
60	3	70	71	73
61	7	63	50	64
62	4	53	52	59
63	4	22	23	24
64	8	25	34	35
65	3	1	47	48
66	3	1	47	49
67	7	87	81	88
68	5	38	66	67
69	4	67	68	89
70	4	4	5	17
71	3	25	26	28
72	4	50	51	61
73	4	67	68	90
74	4	3	4	5
75	5	37	38	66
76	4	69	81	88
77	4	51	50	63
78	7	41	36	42
79	4	68	67	91
80	7	57	53	58
81	4	21	22	23
82	1	25	24	36
83	4	38	37	39
84	3	3	1	47
85	8	76	75	77
86	8	33	32	34
87	3	24	25	26
88	4	5	4	18
89	8	25	26	27
90	3	8	9	10
91	4	5	6	14
92	4	81	82	86
93	3	2	1	3
94	2	4	3	20
95	4	69	81	87
96	8	73	75	76
97	2	1	3	20
98	5	9	21	22
99	4	52	51	61
100	8	72	71	73
101	1	68	69	81
102	4	36	37	40
103	3	8	9	21
104	8	75	77	78
105	3	24	25	34
106	9	53	54	55
107	4	50	51	52
108	7	12	7	13
109	8	71	73	74
110	4	66	67	68
111	6	10	9	21
112	4	49	50	64
113	4	8	7	13
114	4	7	6	15
115	2	9	8	11
116	1	68	69	70
117	4	81	82	85
118	7	43	23	44
119	3	26	28	30
120	3	69	70	71
121	4	37	36	42
122	7	91	67	92
123	4	21	22	46
124	4	21	22	45
125	7	18	4	19
126	4	3	4	18
127	4	36	37	38
128	4	54	53	57
129	8	28	30	31
130	4	51	52	60
131	4	54	53	58
132	4	66	67	92
133	4	69	68	89
134	7	39	37	40
135	3	26	25	34
136	4	5	6	7
137	4	69	68	90
138	4	51	50	64
139	4	6	5	16
140	4	83	82	85
141	4	24	36	37
142	8	70	71	72
143	4	6	7	8
144	3	48	47	49
145	4	23	22	46
146	4	6	7	13
147	8	78	77	79
148	4	82	81	88
149	1	7	8	9
150	4	23	22	45
151	4	67	68	69
152	3	25	34	32
153	3	30	32	34
154	8	77	79	80
155	4	7	6	14
156	4	37	36	41
157	3	71	70	79
158	4	83	82	86
159	1	23	24	36
160	8	29	28	30
161	4	6	5	17
162	4	49	50	51

Dihedrals

1	37	84	83	82	85
2	31	71	73	75	76
3	31	24	25	26	27
4	27	60	52	51	61
5	5	67	68	69	70
5	6	67	68	69	70
6	27	86	82	81	87
7	30	26	25	24	36
8	27	13	7	6	15
9	5	68	69	81	87
9	6	68	69	81	87
10	7	7	8	9	21
10	8	7	8	9	21
11	33	52	53	54	55
12	30	68	69	70	79
13	30	23	24	25	34
14	5	63	50	49	65
14	6	63	50	49	65
15	5	70	69	81	88
15	6	70	69	81	88
16	18	53	52	51	61
17	31	27	26	28	30
18	14	66	67	68	69
19	27	14	6	5	17
20	22	38	66	67	68
21	27	40	37	36	41
22	18	7	6	5	16
23	31	72	71	73	74
24	22	40	37	38	66
25	27	61	51	50	64
26	25	10	9	21	22
26	26	10	9	21	22
27	31	72	71	70	79
28	31	29	28	30	32
29	37	84	83	82	86
30	31	31	30	32	33
31	7	1	47	49	50
31	8	1	47	49	50
32	14	49	50	51	52
33	27	39	37	36	42
34	31	24	25	26	28
35	20	9	21	22	23
35	21	9	21	22	23
36	31	75	77	79	80
37	28	83	82	81	87
37	29	83	82	81	87
38	14	8	7	6	15
39	27	59	52	51	61
40	32	37	38	66	67
41	5	68	69	81	82
41	6	68	69	81	82
42	27	57	53	52	60
43	27	62	51	50	63
44	30	68	69	70	71
45	5	47	49	50	63
45	6	47	49	50	63
46	14	3	4	5	16
47	31	25	34	32	30
48	31	73	71	70	79
49	18	52	51	50	64
50	31	25	26	28	29
51	11	48	47	49	65
51	12	48	47	49	65
52	33	55	54	53	57
53	31	73	75	77	78
54	33	55	54	53	58
55	27	57	53	52	59
56	27	58	53	52	60
57	5	1	3	4	18
57	6	1	3	4	18
58	13	3	1	47	48
59	13	3	1	47	49
60	27	13	7	6	14
61	27	16	5	4	18
62	5	5	4	3	20
62	6	5	4	3	20
63	14	5	6	7	8
64	5	23	24	36	37
64	6	23	24	36	37
65	1	6	7	8	9
65	2	6	7	8	9
65	3	6	7	8	9
65	4	6	7	8	9
66	18	6	5	4	19
67	18	5	6	7	13
68	31	26	28	30	31
69	7	11	8	9	21
69	8	11	8	9	21
70	35	81	82	83	84
70	36	81	82	83	84
71	5	11	8	7	13
71	6	11	8	7	13
72	30	71	70	69	81
73	14	69	68	67	92
74	14	3	4	5	17
75	27	39	37	36	41
76	5	25	24	36	42
76	6	25	24	36	42
77	27	89	68	67	92
78	31	69	70	71	73
79	31	70	71	73	74
80	31	24	25	34	32
81	22	38	66	67	91
82	14	8	7	6	14
83	22	9	21	22	46
84	7	4	3	1	47
84	8	4	3	1	47
85	14	24	36	37	39
86	31	25	34	32	33
87	31	27	26	28	29
88	22	9	21	22	45
89	31	26	25	34	32
90	5	19	4	3	20
90	6	19	4	3	20
91	5	51	50	49	65
91	6	51	50	49	65
92	23	10	9	8	11
92	24	10	9	8	11
93	7	1	47	49	65
93	8	1	47	49	65
94	31	33	32	34	35
95	9	2	1	3	4
95	10	2	1	3	4
96	5	18	4	3	20
96	6	18	4	3	20
97	28	21	22	23	44
97	29	21	22	23	44
98	14	69	81	82	85
99	5	25	24	36	37
99	6	25	24	36	37
100	31	70	79	77	78
101	27	85	82	81	88
102	28	38	37	36	42
102	29	38	37	36	42
103	27	12	7	6	15
104	27	17	5	4	18
105	5	70	69	81	87
105	6	70	69	81	87
106	31	72	71	73	75
107	7	20	3	1	47
107	8	20	3	1	47
108	31	76	75	77	79
109	5	23	24	36	42
109	6	23	24	36	42
110	19	8	9	21	22
111	31	69	70	79	77
112	34	53	54	55	56
113	18	4	5	6	15
114	14	54	53	52	60
115	5	9	8	7	13
115	6	9	8	7	13
116	31	69	70	79	80
117	14	69	68	67	91
118	27	89	68	67	91
119	5	22	23	24	36
119	6	22	23	24	36
120	5	47	49	50	64
120	6	47	49	50	64
121	14	69	81	82	86
122	5	25	24	36	41
122	6	25	24	36	41
123	27	85	82	81	87
124	31	28	30	32	34
125	27	15	6	5	17
126	5	25	24	23	43
126	6	25	24	23	43
127	27	58	53	52	59
128	28	66	67	68	89
128	29	66	67	68	89
129	5	70	69	81	82
129	6	70	69	81	82
130	18	50	51	52	60
131	18	52	51	50	63
132	5	81	69	68	89
132	6	81	69	68	89
133	28	66	67	68	90
133	29	66	67	68	90
134	14	24	23	22	46
135	31	26	28	30	32
136	5	70	69	68	89
136	6	70	69	68	89
137	5	81	69	68	90
137	6	81	69	68	90
138	27	86	82	81	88
139	14	24	23	22	45
140	31	71	70	79	77
141	5	6	7	8	11
141	6	6	7	8	11
142	28	21	22	23	43
142	29	21	22	23	43
143	5	70	69	68	90
143	6	70	69	68	90
144	5	25	24	23	44
144	6	25	24	23	44
145	27	44	23	22	46
146	31	71	70	79	80
147	1	1	3	4	5
147	2	1	3	4	5
147	3	1	3	4	5
147	4	1	3	4	5
148	28	38	37	36	41
148	29	38	37	36	41
149	27	44	23	22	45
150	18	53	52	51	62
151	18	5	6	7	12
152	5	23	24	36	41
152	6	23	24	36	41
153	22	36	37	38	66
154	13	2	1	47	48
155	13	2	1	47	49
156	27	90	68	67	92
157	31	73	75	77	79
158	5	36	24	23	44
158	6	36	24	23	44
159	27	15	6	5	16
160	5	64	50	49	65
160	6	64	50	49	65
161	31	74	73	75	77
162	31	76	75	77	78
163	18	4	5	6	14
164	31	70	71	73	75
165	30	79	70	69	81
166	27	61	51	50	63
167	28	83	82	81	88
167	29	83	82	81	88
168	14	49	50	51	62
169	27	59	52	51	62
170	18	6	5	4	18
171	14	21	22	23	24
172	9	48	47	49	50
172	10	48	47	49	50
173	31	28	26	25	34
174	31	74	73	75	76
175	5	1	3	4	19
175	6	1	3	4	19
176	14	24	36	37	40
177	27	16	5	4	19
178	27	62	51	50	64
179	31	78	77	79	80
180	31	29	28	30	31
181	31	28	30	32	33
182	15	50	51	52	53
182	16	50	51	52	53
182	17	50	51	52	53
183	14	54	53	52	59
184	1	47	49	50	51
184	2	47	49	50	51
184	3	47	49	50	51
184	4	47	49	50	51
185	31	24	25	34	35
186	22	39	37	38	66
187	31	26	25	34	35
188	27	40	37	36	42
189	27	60	52	51	62
190	5	9	8	7	12
190	6	9	8	7	12
191	31	69	70	71	72
192	31	31	30	32	34
193	31	70	79	77	75
194	14	69	81	82	83
195	31	25	26	28	30
196	31	27	26	25	34
197	5	22	23	24	25
197	6	22	23	24	25
198	14	49	50	51	61
199	5	68	69	81	88
199	6	68	69	81	88
200	30	34	25	24	36
201	27	90	68	67	91
202	5	36	24	23	43
202	6	36	24	23	43
203	31	30	32	34	35
204	27	43	23	22	46
205	27	43	23	22	45
206	22	38	66	67	92
207	18	50	51	52	59
208	14	3	4	5	6
209	31	71	73	75	77
210	30	23	24	25	26
211	27	12	7	6	14
212	14	51	52	53	54
213	11	2	1	3	20
213	12	2	1	3	20
214	27	14	6	5	16
215	14	24	36	37	38
216	5	67	68	69	81
216	6	67	68	69	81
217	18	51	52	53	57
218	18	51	52	53	58
219	18	7	6	5	17
220	7	7	8	9	10
220	8	7	8	9	10
221	5	11	8	7	12
221	6	11	8	7	12
222	27	17	5	4	19
223	15	4	5	6	7
223	16	4	5	6	7
223	17	4	5	6	7

Impropers

11	2	79	77	80	70
12	1	24	36	23	25
16	1	69	70	81	68
23	2	75	76	77	73
55	2	28	26	29	30
56	2	47	1	48	49
66	2	1	3	47	2
67	3	9	8	10	21
92	2	25	26	34	24
97	1	49	47	50	65
99	2	70	71	79	69
107	2	34	32	35	25
112	2	28	29	30	26
114	2	32	33	34	30
117	1	3	1	4	20
130	2	1	2	3	47
135	2	73	75	71	74
138	2	71	72	73	70
141	3	9	21	8	10
151	2	73	74	75	71
153	2	26	27	28	25
165	1	8	11	7	9
178	2	34	35	25	32
191	2	71	70	72	73
202	2	28	30	26	29
206	2	1	47	2	3
212	1	8	9	11	7
216	1	69	68	70	81
222	2	70	69	71	79
234	2	30	32	28	31
236	2	75	77	73	76
240	2	30	28	31	32
241	2	79	70	77	80
264	1	3	4	20	1
286	2	75	73	76	77
288	2	79	80	70	77
295	2	30	31	32	28
297	1	8	7	9	11
301	2	77	79	75	78
312	1	49	65	47	50
317	2	47	48	49	1
333	1	69	81	68	70
336	2	32	34	30	33
347	2	25	34	24	26
352	2	32	30	33	34
359	2	73	71	74	75
360	2	34	25	32	35
391	2	26	28	25	27
409	2	77	78	79	75
412	1	24	23	25	36
414	3	9	10	21	8
437	2	71	73	70	72
444	2	77	75	78	79
450	2	70	79	69	71
455	1	3	20	1	4
458	1	24	25	36	23
473	2	26	25	27	28
474	2	25	24	26	34
491	1	49	50	65	47
496	2	47	49	1	48
