Title

82 atoms
87 bonds
154 angles
267 dihedrals
78 impropers

9 atom types
13 bond types
6 angle types
13 dihedral types
2 improper types
-8.088999748 91.91100025 xlo xhi
-10.18400002 89.81599998 ylo yhi
-8.121999741 91.87800026 zlo zhi
0.0 0.0 0.0 xy xz yz

Masses

1	15.99943
2	12.01078
3	1.007947
4	12.01078
5	1.007947
6	15.99943
7	15.99943
8	1.007947
9	35.4532


Pair Coeffs

1	0.16846514	3.0251065
2	0.086879315	3.4806469
3	0.015611343	2.5725815
4	0.10884061	3.3795318
5	0.015779483	2.6445434
6	0.2102061	3.0398122
7	0.20947353	2.99716
8	1.2326e-05	0.53453923
9	0.2656001	3.3075278

Bond Coeffs

1 harmonic	425.69104206635	1.362945806494
2 harmonic	300.03137914615	1.451203938761
3 harmonic	360.7852444772	1.387193227181
4 harmonic	397.2545789619	1.085358495916
5 harmonic	289.73813263395	1.498646816465
6 harmonic	264.62148576755	1.52190126495
7 harmonic	301.15400723785	1.345741232799
8 harmonic	370.04670688625	1.093899492634
9 harmonic	582.698766451	1.225198386222
10 harmonic	279.1350963404	1.454628925034
11 harmonic	385.7604595587	1.369745182308
12 harmonic	543.5267831885	0.9716763312559
13 harmonic	218.0227703685	1.746066037062


Angle Coeffs

1 harmonic	57.8982893754	126.8062420451
2 harmonic	65.09061609600001	110.3538806181
3 harmonic	34.066775159195	129.1835929926
4 harmonic	53.20531626545	116.5475862634
5 harmonic	201.41175231035	127.4691416191
6 harmonic	48.776492647595	115.6030999533


Dihedral Coeffs

1 fourier 1	3.661930099076	2	180
2 fourier 1	1.532232714475	2	180
3 fourier 1	0.457973137376	1	0
4 fourier 1	0.02664938770063	3	0
5 fourier 1	0.1155372516788	3	0
6 fourier 1	0.1040663847541	3	0
7 fourier 1	0.09223874044423	3	0
8 fourier 1	0.3159935921949	2	180
9 fourier 1	0.3247796806857	1	180
10 fourier 1	2.779853741805	2	180
11 fourier 1	0.9974165607242	2	180
12 fourier 1	0.1911926717192	3	0
13 fourier 1	0.8283030590042	2	180


Improper Coeffs

1 0.3666666666666667	-1	2
2 3.5	-1	2


Atoms

1	1	1	-0.030766999	-4.2859998	-2.971	1.785
2	1	2	0.27457699	-3.2720001	-2.145	1.306
3	1	2	-0.313173	-2.1900001	-1.918	2.0550001
4	1	3	0.220791	-2.099	-2.3699999	3.0339999
5	1	2	-0.185461	-1.11	-1.044	1.5549999
6	1	3	0.20830099	-0.257	-0.87	2.1989999
7	1	2	-0.19701201	-1.177	-0.47499999	0.329
8	1	4	0.012397	-0.030999999	0.45500001	-0.134
9	1	2	-0.19701201	1.306	-0.30700001	0.025
10	1	2	-0.187895	1.441	-1.528	-0.54299998
11	1	3	0.20830099	0.61900002	-1.98	-1.085
12	1	2	-0.26746899	2.7049999	-2.2839999	-0.44400001
13	1	3	0.22106101	2.773	-3.2650001	-0.89700001
14	1	2	0.43577501	3.756	-1.758	0.198
15	1	1	-0.44361201	4.9559999	-2.4579999	0.301
16	1	2	-0.26746899	3.6440001	-0.41800001	0.80199999
17	1	3	0.22106101	4.4970002	0.013	1.311
18	1	2	-0.187896	2.4979999	0.271	0.72000003
19	1	3	0.20830099	2.474	1.25	1.171
20	1	4	-0.131789	-0.122	1.743	0.75999999
21	1	5	0.104372	-1.188	1.966	0.99599999
22	1	5	0.104372	0.36000001	1.59	1.749
23	1	4	-0.131566	0.44499999	2.993	0.068999998
24	1	5	0.105384	0.419	3.852	0.77399999
25	1	5	0.105384	1.506	2.822	-0.20999999
26	1	4	-0.153228	-0.35800001	3.346	-1.198
27	1	5	0.10825	-1.171	4.0570002	-0.935
28	1	5	0.10825	0.31600001	3.865	-1.914
29	1	4	-0.131566	-0.98100001	2.1140001	-1.882
30	1	5	0.105384	-2.0050001	1.957	-1.483
31	1	5	0.105384	-1.074	2.3039999	-2.973
32	1	4	-0.131789	-0.131	0.85500002	-1.65
33	1	5	0.104372	0.884	1.08	-2.0510001
34	1	5	0.104372	-0.50099999	0.013	-2.273
35	1	2	-0.185461	-2.4059999	-0.727	-0.48699999
36	1	3	0.20830099	-2.543	-0.285	-1.461
37	1	2	-0.313173	-3.385	-1.516	-0.025
38	1	3	0.220791	-4.2659998	-1.6900001	-0.62900001
39	1	2	0.62649399	5.0760002	-3.4130001	-0.116
40	1	6	-0.508322	6.0549998	-4.0830002	0.167
41	1	1	-0.030766999	-5.1160002	-3.1559999	1.235
42	1	2	0.27457699	-5.0669999	-3.9809999	0.114
43	1	2	-0.313173	-6.178	-4.2090001	-0.59200001
44	1	3	0.220791	-7.1160002	-3.756	-0.29499999
45	1	2	-0.185461	-6.1370001	-5.0819998	-1.7819999
46	1	3	0.20830099	-7.0619998	-5.256	-2.3180001
47	1	2	-0.19701201	-4.9809999	-5.651	-2.1960001
48	1	4	0.012397	-4.9990001	-6.5819998	-3.4319999
49	1	2	-0.19701201	-5.664	-5.8200002	-4.6020002
50	1	2	-0.147756	-5.1939998	-4.599	-4.947
51	1	3	0.20830099	-4.375	-4.1469998	-4.4000001
52	1	2	-0.408811	-5.776	-3.8429999	-6.073
53	1	3	0.225471	-5.3850002	-2.862	-6.3119998
54	1	2	0.423143	-6.7750001	-4.369	-6.7919998
55	1	7	-0.65205598	-7.3369999	-3.6689999	-7.8590002
56	1	8	0.43169701	-7.0100002	-2.7460001	-8.1219997
57	1	2	-0.408811	-7.289	-5.7090001	-6.4549999
58	1	3	0.225471	-8.0889997	-6.1399999	-7.0440001
59	1	2	-0.147756	-6.7680001	-6.3979998	-5.4310002
60	1	3	0.20830099	-7.1750002	-7.3769999	-5.2340002
61	1	4	-0.131789	-5.7880001	-7.8699999	-3.0009999
62	1	5	0.104372	-5.5910001	-8.0930004	-1.927
63	1	5	0.104372	-6.8860002	-7.717	-3.0610001
64	1	4	-0.131566	-5.3709998	-9.1199999	-3.7909999
65	1	5	0.105384	-6.0110002	-9.9779997	-3.494
66	1	5	0.105384	-5.526	-8.9490004	-4.8769999
67	1	4	-0.153228	-3.892	-9.4729996	-3.5439999
68	1	5	0.10825	-3.819	-10.184	-2.6919999
69	1	5	0.10825	-3.494	-9.9919996	-4.4429998
70	1	4	-0.131566	-3.0190001	-8.2410002	-3.2349999
71	1	5	0.105384	-2.99	-8.0839996	-2.1359999
72	1	5	0.105384	-1.978	-8.4309998	-3.573
73	1	4	-0.131789	-3.563	-6.9819999	-3.928
74	1	5	0.104372	-3.5880001	-7.2069998	-5.0190001
75	1	5	0.104372	-2.845	-6.1399999	-3.8299999
76	1	2	-0.185461	-3.7520001	-5.4000001	-1.38
77	1	3	0.20830099	-2.8010001	-5.842	-1.632
78	1	2	-0.313173	-3.7969999	-4.6110001	-0.29899999
79	1	3	0.220791	-2.898	-4.4369998	0.27900001
80	1	2	0.46603999	4.3299999	-3.8039999	-0.79799998
81	1	6	-0.58820897	3.309	-3.1730001	-1.013
82	1	9	-0.090732999	4.5910001	-5.3449998	-1.594

Bonds

1	1	1	2
2	2	1	41
3	3	2	3
4	3	2	37
5	4	3	4
6	3	3	5
7	4	5	6
8	3	5	7
9	5	7	8
10	3	7	35
11	5	8	9
12	6	8	20
13	6	8	32
14	3	9	10
15	3	9	18
16	4	10	11
17	3	10	12
18	4	12	13
19	3	12	14
20	1	14	15
21	3	14	16
22	7	15	39
23	4	16	17
24	3	16	18
25	4	18	19
26	8	20	21
27	8	20	22
28	6	20	23
29	8	23	24
30	8	23	25
31	6	23	26
32	8	26	27
33	8	26	28
34	6	26	29
35	8	29	30
36	8	29	31
37	6	29	32
38	8	32	33
39	8	32	34
40	4	35	36
41	3	35	37
42	4	37	38
43	9	39	40
44	10	39	80
45	1	41	42
46	3	42	43
47	3	42	78
48	4	43	44
49	3	43	45
50	4	45	46
51	3	45	47
52	5	47	48
53	3	47	76
54	5	48	49
55	6	48	61
56	6	48	73
57	3	49	50
58	3	49	59
59	4	50	51
60	3	50	52
61	4	52	53
62	3	52	54
63	11	54	55
64	3	54	57
65	12	55	56
66	4	57	58
67	3	57	59
68	4	59	60
69	8	61	62
70	8	61	63
71	6	61	64
72	8	64	65
73	8	64	66
74	6	64	67
75	8	67	68
76	8	67	69
77	6	67	70
78	8	70	71
79	8	70	72
80	6	70	73
81	8	73	74
82	8	73	75
83	4	76	77
84	3	76	78
85	4	78	79
86	9	80	81
87	13	80	82

Angles

1	1	7	35	37
2	3	76	78	79
3	1	49	59	57
4	3	54	57	58
5	1	52	54	57
6	4	27	26	29
7	4	9	8	20
8	1	39	80	82
9	1	5	7	8
10	6	24	23	25
11	1	14	16	18
12	3	58	57	59
13	3	2	37	38
14	4	64	67	68
15	3	46	45	47
16	4	48	61	64
17	4	67	70	73
18	2	1	41	42
19	1	2	3	5
20	4	70	73	75
21	1	3	5	7
22	4	48	61	62
23	4	71	70	73
24	4	7	8	32
25	1	54	57	59
26	4	21	20	23
27	3	14	16	17
28	3	11	10	12
29	1	42	43	45
30	4	20	23	25
31	3	4	3	5
32	1	41	42	78
33	4	49	48	73
34	6	68	67	69
35	4	47	48	49
36	3	6	5	7
37	3	77	76	78
38	3	3	5	6
39	3	49	50	51
40	6	21	20	22
41	3	35	37	38
42	4	25	23	26
43	4	72	70	73
44	3	9	10	11
45	1	5	7	35
46	4	29	32	33
47	1	48	49	59
48	1	48	49	50
49	3	49	59	60
50	6	30	29	31
51	4	48	73	74
52	1	45	47	76
53	1	39	80	81
54	1	8	9	18
55	1	10	9	18
56	1	50	52	54
57	4	26	29	31
58	1	43	45	47
59	1	47	76	78
60	4	7	8	20
61	3	17	16	18
62	3	42	43	44
63	1	15	39	80
64	1	43	42	78
65	1	41	42	43
66	4	69	67	70
67	1	49	50	52
68	3	42	78	79
69	4	68	67	70
70	6	27	26	28
71	3	7	35	36
72	3	44	43	45
73	4	24	23	26
74	1	3	2	37
75	3	50	52	53
76	1	40	39	80
77	4	26	29	30
78	4	67	70	71
79	4	63	61	64
80	4	20	8	32
81	4	8	32	34
82	1	50	49	59
83	4	8	32	29
84	4	31	29	32
85	6	71	70	72
86	4	23	26	29
87	4	61	64	67
88	1	2	37	35
89	1	8	7	35
90	4	61	48	73
91	4	49	48	61
92	4	20	23	26
93	4	61	64	66
94	1	52	54	55
95	3	47	76	77
96	6	62	61	63
97	6	65	64	66
98	1	9	18	16
99	4	30	29	32
100	1	9	10	12
101	1	55	54	57
102	3	10	12	13
103	1	42	78	76
104	1	81	80	82
105	1	12	14	15
106	4	8	20	23
107	4	22	20	23
108	5	15	39	40
109	4	48	73	70
110	6	74	73	75
111	1	45	47	48
112	4	28	26	29
113	1	12	14	16
114	4	47	48	73
115	1	1	2	3
116	4	61	64	65
117	1	1	2	37
118	2	2	1	41
119	4	20	23	24
120	1	8	9	10
121	3	36	35	37
122	3	43	45	46
123	4	8	20	22
124	4	67	70	72
125	4	64	67	70
126	1	48	47	76
127	4	66	64	67
128	4	47	48	61
129	4	9	8	32
130	1	15	14	16
131	2	54	55	56
132	3	2	3	4
133	3	16	18	19
134	4	70	73	74
135	4	29	32	34
136	4	65	64	67
137	4	62	61	64
138	4	64	67	69
139	2	14	15	39
140	4	48	61	63
141	4	8	20	21
142	6	33	32	34
143	3	53	52	54
144	3	51	50	52
145	4	48	73	75
146	4	7	8	9
147	3	57	59	60
148	4	26	29	32
149	3	13	12	14
150	4	23	26	28
151	1	10	12	14
152	3	9	18	19
153	4	23	26	27
154	4	8	32	33

Dihedrals

1	12	66	64	67	69
2	12	27	26	29	31
3	6	21	20	23	26
4	1	41	42	43	45
5	4	50	49	48	73
6	1	48	49	59	60
7	5	9	8	20	23
8	5	49	48	73	74
9	7	8	32	29	26
9	8	8	32	29	26
9	9	8	32	29	26
10	4	10	9	8	32
11	4	5	7	8	32
12	12	68	67	70	71
13	1	1	2	37	38
14	5	49	48	61	62
15	5	47	48	61	64
16	6	48	73	70	72
17	5	7	8	20	23
18	4	45	47	48	61
19	1	45	43	42	78
20	1	10	9	18	16
21	1	11	10	9	18
22	12	68	67	70	72
23	1	1	2	3	5
24	6	26	29	32	33
25	5	47	48	61	62
26	7	23	26	29	32
26	8	23	26	29	32
26	9	23	26	29	32
27	5	49	48	73	70
28	12	27	26	29	30
29	4	50	49	48	61
30	1	9	10	12	13
31	12	31	29	32	33
32	4	59	49	48	73
33	1	12	14	16	18
34	12	71	70	73	75
35	1	4	3	2	37
36	11	40	39	80	81
37	5	7	8	20	22
38	12	72	70	73	75
39	4	32	8	7	35
40	12	21	20	23	24
41	1	9	18	16	17
42	1	13	12	14	16
43	1	11	10	12	14
44	1	49	59	57	54
45	1	53	52	54	55
46	1	6	5	7	35
47	1	43	45	47	48
48	1	50	49	59	60
49	6	21	20	8	32
50	1	14	16	18	19
51	4	49	48	47	76
52	5	9	8	20	21
53	2	3	2	1	41
54	2	14	15	39	40
55	1	15	14	16	18
56	1	12	14	16	17
57	1	41	42	43	44
58	4	59	49	48	61
59	12	30	29	32	34
60	12	66	64	67	68
61	6	69	67	70	73
62	6	61	48	73	75
63	5	7	8	20	21
64	1	4	3	5	6
65	4	10	9	8	20
66	4	5	7	8	20
67	6	67	70	73	75
68	5	47	48	73	74
69	6	8	32	29	31
70	1	44	43	42	78
71	1	46	45	47	76
72	7	48	73	70	67
72	8	48	73	70	67
72	9	48	73	70	67
73	6	24	23	26	29
74	5	49	48	73	75
75	7	61	48	73	70
75	8	61	48	73	70
75	9	61	48	73	70
76	1	51	50	52	54
77	1	5	7	35	36
78	5	9	8	32	33
79	1	42	78	76	77
80	12	22	20	23	25
81	4	47	48	49	59
82	7	64	67	70	73
82	8	64	67	70	73
82	9	64	67	70	73
83	1	15	14	16	17
84	12	69	67	70	71
85	1	5	3	2	37
86	4	47	48	49	50
87	4	18	9	8	32
88	7	8	20	23	26
88	8	8	20	23	26
88	9	8	20	23	26
89	5	7	8	32	33
90	1	53	52	54	57
91	6	22	20	8	32
92	1	3	2	37	38
93	1	42	43	45	46
94	1	8	9	18	19
95	3	2	1	41	42
96	1	55	54	57	59
97	12	28	26	29	31
98	1	46	45	47	48
99	1	48	49	50	51
100	1	10	9	18	19
101	1	48	47	76	78
102	11	15	39	80	82
103	1	2	3	5	7
104	4	9	8	7	35
105	1	9	10	12	14
106	6	20	8	32	34
107	1	51	50	52	53
108	6	62	61	48	73
109	7	20	8	32	29
109	8	20	8	32	29
109	9	20	8	32	29
110	1	50	52	54	57
111	7	64	61	48	73
111	8	64	61	48	73
111	9	64	61	48	73
112	1	48	49	59	57
113	6	22	20	23	26
114	4	7	8	9	18
115	7	20	23	26	29
115	8	20	23	26	29
115	9	20	23	26	29
116	1	49	50	52	54
117	1	51	50	49	59
118	4	20	8	7	35
119	1	44	43	45	47
120	4	45	47	48	49
121	1	50	52	54	55
122	1	12	10	9	18
123	4	73	48	47	76
124	1	43	42	78	76
125	1	55	54	57	58
126	1	2	3	5	6
127	6	8	20	23	24
128	1	10	12	14	15
129	5	49	48	61	63
130	1	1	2	37	35
131	1	43	42	78	79
132	12	25	23	26	28
133	6	23	26	29	31
134	6	61	64	67	69
135	12	25	23	26	27
136	1	48	49	50	52
137	1	49	50	52	53
138	2	16	14	15	39
139	1	9	18	16	14
140	4	18	9	8	20
141	6	27	26	29	32
142	4	7	8	9	10
143	12	22	20	23	24
144	1	50	49	59	57
145	1	45	47	76	78
146	1	49	59	57	58
147	6	26	29	32	34
148	1	2	37	35	36
149	1	48	47	76	77
150	5	47	48	73	70
151	12	69	67	70	72
152	6	23	26	29	30
153	1	7	35	37	38
154	12	31	29	32	34
155	6	8	32	29	30
156	1	8	7	35	36
157	7	23	20	8	32
157	8	23	20	8	32
157	9	23	20	8	32
158	13	52	54	55	56
159	6	68	67	70	73
160	1	52	54	57	59
161	6	48	61	64	65
162	6	63	61	48	73
163	6	64	67	70	71
164	12	30	29	32	33
165	11	15	39	80	81
166	1	8	9	10	11
167	12	65	64	67	69
168	1	47	76	78	79
169	5	49	48	61	64
170	7	61	64	67	70
170	8	61	64	67	70
170	9	61	64	67	70
171	6	48	73	70	71
172	12	28	26	29	30
173	2	1	41	42	78
174	1	41	42	78	76
175	13	56	55	54	57
176	4	5	7	8	9
177	6	61	64	67	68
178	2	37	2	1	41
179	1	1	2	3	4
180	7	48	61	64	67
180	8	48	61	64	67
180	9	48	61	64	67
181	1	8	9	18	16
182	1	52	50	49	59
183	1	54	57	59	60
184	1	41	42	78	79
185	1	8	9	10	12
186	1	52	54	57	58
187	1	10	12	14	16
188	1	3	5	7	35
189	1	3	5	7	8
190	1	42	78	76	47
191	5	47	48	61	63
192	6	48	61	64	66
193	5	47	48	73	75
194	12	71	70	73	74
195	1	3	2	37	35
196	1	43	45	47	76
197	11	40	39	80	82
198	2	12	14	15	39
199	1	45	47	76	77
200	12	62	61	64	65
201	5	9	8	32	34
202	5	9	8	20	22
203	6	20	23	26	28
204	5	9	8	32	29
205	12	63	61	64	66
206	6	25	23	26	29
207	4	61	48	47	76
208	12	63	61	64	65
209	1	13	12	14	15
210	12	72	70	73	74
211	6	20	23	26	27
212	1	11	10	12	13
213	1	44	43	45	46
214	6	20	8	32	33
215	5	7	8	32	34
216	12	21	20	23	25
217	1	5	7	35	37
218	5	7	8	32	29
219	1	4	3	5	7
220	1	2	37	35	7
221	6	65	64	67	70
222	1	6	5	7	8
223	6	66	64	67	70
224	6	62	61	64	67
225	10	14	15	39	80
226	6	28	26	29	32
227	6	61	48	73	74
228	6	63	61	64	67
229	4	45	47	48	73
230	1	77	76	78	79
231	6	8	20	23	25
232	2	1	41	42	43
233	1	17	16	18	19
234	12	24	23	26	28
235	1	42	43	45	47
236	12	65	64	67	68
237	1	8	7	35	37
238	12	62	61	64	66
239	6	67	70	73	74
240	12	24	23	26	27
241	6	64	67	70	72
242	1	36	35	37	38
243	1	58	57	59	60

Impropers

4	1	35	7	36	37
14	1	52	54	50	53
25	1	35	36	37	7
39	1	7	5	8	35
42	1	10	9	11	12
47	1	12	10	13	14
51	1	42	43	78	41
54	1	54	52	55	57
55	1	50	51	52	49
57	1	14	15	16	12
59	1	43	44	45	42
63	1	45	43	46	47
66	1	49	59	48	50
67	1	14	12	15	16
71	1	47	45	48	76
72	1	59	60	49	57
75	1	42	41	43	78
76	1	59	49	57	60
77	1	16	14	17	18
78	1	12	14	10	13
85	1	35	37	7	36
91	2	39	40	80	15
97	1	3	4	5	2
107	1	76	47	77	78
112	1	7	35	5	8
120	1	54	57	52	55
128	1	3	2	4	5
159	1	59	57	60	49
162	1	12	13	14	10
176	1	78	42	76	79
179	1	7	8	35	5
182	1	57	54	58	59
184	1	10	11	12	9
191	1	18	16	19	9
193	1	50	52	49	51
200	1	5	3	6	7
206	1	9	8	10	18
213	1	2	1	3	37
214	2	39	15	40	80
217	1	18	9	16	19
218	1	2	3	37	1
227	1	37	38	2	35
230	1	5	7	3	6
233	1	43	42	44	45
234	1	47	48	76	45
235	1	45	47	43	46
238	1	52	53	54	50
243	1	80	82	39	81
260	1	9	18	8	10
264	1	45	46	47	43
292	1	3	5	2	4
294	1	43	45	42	44
296	1	47	76	45	48
300	1	54	55	57	52
304	1	2	37	1	3
308	1	57	58	59	54
310	1	14	16	12	15
312	1	80	39	81	82
314	1	49	48	50	59
323	1	78	76	79	42
325	1	57	59	54	58
337	1	16	17	18	14
342	1	37	2	35	38
351	1	49	50	59	48
354	1	76	78	47	77
368	1	50	49	51	52
369	2	39	80	15	40
372	1	37	35	38	2
386	1	80	81	82	39
388	1	9	10	18	8
396	1	76	77	78	47
405	1	18	19	9	16
406	1	42	78	41	43
411	1	10	12	9	11
426	1	16	18	14	17
431	1	5	6	7	3
435	1	52	50	53	54
437	1	78	79	42	76
