Title

10206 atoms
11151 bonds
18738 angles
29187 dihedrals
15552 impropers

10 atom types
13 bond types
8 angle types
17 dihedral types
3 improper types
-20.38644713 121.7316 xlo xhi
-21.48222788 127.5093269 ylo yhi
-22.71995688 126.9762603 zlo zhi
0.0 0.0 0.0 xy xz yz

Masses

1	12.01078
2	15.99943
3	1.007947
4	12.01078
5	18.998403
6	14.00672
7	15.99943
8	1.007947
9	15.99943
10	1.007947


Pair Coeffs

1	0.086879315	3.4806469
2	0.2102061	3.0398122
3	0.015611343	2.5725815
4	0.10884061	3.3795318
5	0.061	3.1181455
6	0.16769152	3.206876
7	0.16846514	3.0251065
8	0.014090815	1.1034277
9	0.20947353	2.99716
10	1.2326e-05	0.53453923

Bond Coeffs

1 harmonic	582.698766451	1.225198386222
2 harmonic	279.1350963404	1.454628925034
3 harmonic	492.76746816345	1.381897776683
4 harmonic	360.7852444772	1.387193227181
5 harmonic	397.2545789619	1.085358495916
6 harmonic	289.73813263395	1.498646816465
7 harmonic	264.62148576755	1.52190126495
8 harmonic	340.45121009905	1.358690858053
9 harmonic	390.03554688505	1.390160554689
10 harmonic	505.144496193	1.019481865027
11 harmonic	425.69104206635	1.362945806494
12 harmonic	385.7604595587	1.369745182308
13 harmonic	543.5267831885	0.9716763312559


Angle Coeffs

1 harmonic	57.8982893754	126.8062420451
2 harmonic	55.42182150775	117.3465570514
3 harmonic	63.44422595415	115.5071327674
4 harmonic	34.066775159195	129.1835929926
5 harmonic	53.20531626545	116.5475862634
6 harmonic	65.09061609600001	110.3538806181
7 harmonic	79.1895422237	112.4630193006
8 harmonic	201.41175231035	127.4691416191


Dihedral Coeffs

1 fourier 1	3.661930099076	2	180
2 fourier 1	1.193093382682	2	180
3 fourier 1	0.9974165607242	2	180
4 fourier 1	3.101948770557	2	180
5 fourier 1	-0.4252153282372	1	0
6 fourier 1	2.348375642009	2	180
7 fourier 1	1.256156174911	1	0
8 fourier 1	1.809047390003	2	180
9 fourier 1	-0.04816277792592	1	0
10 fourier 1	0.02664938770063	3	0
11 fourier 1	0.1155372516788	3	0
12 fourier 1	1.163235555439	2	180
13 fourier 1	1.532232714475	2	180
14 fourier 1	1.659715194912	2	180
15 fourier 1	2.687457892086	2	180
16 fourier 1	2.772607909663	2	180
17 fourier 1	0.09692684957115	1	0


Improper Coeffs

1 0.3666666666666667	-1	2
2 0.3333333333333333	-1	2
3 3.5	-1	2


Atoms

1	1	1	0.76873004	-6.2594682	2.3260293	-9.1473677
2	1	2	-0.65585858	-5.9676616	3.4859815	-8.8951878
3	1	1	-0.37103647	-7.06529	2.0936856	-10.38403
4	1	1	-0.084072608	-8.1098935	1.15997	-10.382115
5	1	3	0.22371834	-8.2813512	0.52484388	-9.5214348
6	1	1	-0.24719671	-9.0182322	1.1023439	-11.447879
7	1	3	0.21177779	-9.8270421	0.39701751	-11.353804
8	1	1	-0.037998593	-8.8892874	1.9484424	-12.578071
9	1	4	-0.26243046	-9.9033316	1.9553927	-13.761041
10	1	1	-0.037998612	-10.247971	3.4289648	-14.139509
11	1	1	-0.24719674	-10.73367	4.3090824	-13.151284
12	1	3	0.2117778	-10.869113	3.9771619	-12.131567
13	1	1	-0.084072585	-11.041145	5.6382103	-13.450073
14	1	3	0.22371836	-11.423824	6.2594527	-12.653024
15	1	1	-0.37103644	-10.872043	6.1518404	-14.751233
16	1	1	0.76873004	-11.199205	7.5784709	-15.084368
17	1	2	-0.65585858	-11.633734	7.8170287	-16.202492
18	1	1	-0.084072555	-10.42424	5.2788607	-15.750987
19	1	3	0.22371836	-10.297029	5.6333166	-16.766298
20	1	1	-0.24719674	-10.102637	3.949992	-15.451641
21	1	3	0.21177776	-9.7461862	3.3514899	-16.272605
22	1	4	0.753497	-9.2394888	1.1680757	-14.937901
23	1	5	-0.19978312	-8.9008266	-0.11080019	-14.527143
24	1	5	-0.19978312	-10.1004	1.0468393	-16.017317
25	1	5	-0.19978312	-8.0786551	1.7920785	-15.359951
26	1	4	0.753497	-11.263755	1.2476765	-13.407847
27	1	5	-0.19978312	-11.835372	1.7912904	-12.270244
28	1	5	-0.19978312	-12.16654	1.4076706	-14.44647
29	1	5	-0.19978312	-11.107418	-0.11252265	-13.20345
30	1	1	-0.24719677	-7.7948806	2.8422658	-12.589538
31	1	3	0.21177779	-7.6455502	3.5160541	-13.423977
32	1	1	-0.084072585	-6.9184839	2.9327238	-11.5008
33	1	3	0.22371834	-6.1330606	3.6778617	-11.522841
34	1	6	-0.53157109	-11.093837	8.6158574	-14.192846
35	1	1	0.20018817	-10.368629	8.5780051	-12.961533
36	1	1	-0.37341449	-10.793939	9.3488252	-11.874306
37	1	3	0.21922938	-11.676247	9.9707198	-11.96283
38	1	1	-0.1264382	-10.106827	9.2986971	-10.654783
39	1	3	0.20490318	-10.483705	9.903091	-9.8426518
40	1	1	-0.12691441	-8.9474257	8.5038739	-10.505473
41	1	1	-0.13318123	-8.1985498	8.4367564	-9.2073521
42	1	1	-0.12730587	-6.835875	8.0819983	-9.1803676
43	1	3	0.20818214	-6.2850162	7.8616909	-10.081819
44	1	1	-0.29446793	-6.1326652	8.0326033	-7.9817329
45	1	3	0.22558553	-5.0837664	7.7660704	-7.9935424
46	1	1	0.33077326	-6.7632821	8.3153435	-6.7700703
47	1	7	-0.2796934	-6.0132847	8.2371094	-5.6461164
48	1	1	0.30215269	-6.0843802	7.2549243	-4.7100273
49	1	1	-0.31814742	-6.915021	6.1277479	-4.8497956
50	1	3	0.23190665	-7.5392651	5.9999391	-5.7246523
51	1	1	-0.1032956	-6.9478934	5.1510847	-3.8516943
52	1	3	0.21481801	-7.5971476	4.2944106	-3.9787201
53	1	1	-0.10789854	-6.1556549	5.281239	-2.6933321
54	1	1	0.2443622	-5.3206682	6.4091235	-2.5635944
55	1	1	-0.3209621	-5.2898421	7.3804371	-3.5683435
56	1	3	0.2280381	-4.6445835	8.242571	-3.4574181
57	1	7	-0.3029593	-4.537151	6.5767102	-1.4779492
58	1	1	0.2443622	-4.5055445	5.7273322	-0.42597822
59	1	1	-0.32096213	-3.6646064	6.0175564	0.64694395
60	1	3	0.22803805	-3.0486622	6.90896	0.62600592
61	1	1	0.30215266	-3.6153349	5.1740088	1.7652018
62	1	7	-0.27969337	-2.8040863	5.473021	2.7971691
63	1	1	0.33077329	-1.464244	5.2544597	2.8336465
64	1	1	-0.29446793	-0.84126956	4.3365623	1.9644381
65	1	3	0.22558552	-1.4205694	3.7856627	1.2345098
66	1	1	-0.12730591	0.53635151	4.1069042	2.0388315
67	1	3	0.20818212	0.97489034	3.3919295	1.3550736
68	1	1	-0.13318122	1.3322701	4.812665	2.9578849
69	1	1	-0.12691443	2.8078389	4.5842355	3.0498774
70	1	1	-0.12643819	3.3721405	3.3247859	2.7618072
71	1	3	0.20490321	2.75071	2.4899432	2.4645397
72	1	1	-0.37341446	4.7492368	3.1104556	2.9034522
73	1	3	0.2192294	5.1564486	2.1264257	2.7053422
74	1	1	0.2001881	5.6000927	4.1593796	3.2815353
75	1	6	-0.53157103	6.9975212	3.9203201	3.4539708
76	1	8	0.32015356	7.2507609	3.0011885	3.8497268
77	1	1	-0.37341452	5.0408201	5.4179117	3.5573634
78	1	3	0.21922943	5.6627537	6.24124	3.883147
79	1	1	-0.12643819	3.6662831	5.6237513	3.4553083
80	1	3	0.20490321	3.288643	6.6109698	3.6810109
81	1	1	-0.054853058	0.7052215	5.7386948	3.8153346
82	1	3	0.20718354	1.2953215	6.2721778	4.5451235
83	1	1	-0.32072333	-0.68346041	5.9511192	3.7746111
84	1	4	0.76732284	-1.3438717	6.9200734	4.7330926
85	1	5	-0.2060573	-1.979571	7.9191115	4.0193593
86	1	5	-0.2060573	-0.4280833	7.5092483	5.5885776
87	1	5	-0.2060573	-2.2772619	6.2428328	5.4969682
88	1	1	-0.31814742	-4.4179675	4.0276637	1.8001135
89	1	3	0.23190666	-4.3889351	3.3751326	2.6640801
90	1	1	-0.10329566	-5.2501889	3.7212988	0.72185279
91	1	3	0.21481801	-5.8553536	2.8246791	0.76623426
92	1	1	-0.10789859	-5.3064866	4.5647197	-0.40843072
93	1	4	0.09946866	-6.1974412	4.2224644	-1.5960226
94	1	1	0.047139318	-5.8160431	2.8714747	-2.1500471
95	1	1	-0.13109616	-4.5939465	2.4863624	-2.7085132
96	1	3	0.21808256	-3.7771642	3.1920496	-2.7895386
97	1	1	-0.25904572	-4.4478625	1.1659388	-3.1605476
98	1	3	0.22345835	-3.5083665	0.84814792	-3.5944396
99	1	1	-0.22974778	-5.5142744	0.25308058	-3.0495675
100	1	3	0.21826391	-5.3906516	-0.7635378	-3.3999608
101	1	1	-0.16745995	-6.7376817	0.65365029	-2.4865902
102	1	3	0.20442319	-7.5592496	-0.044607776	-2.3989387
103	1	1	-0.012711983	-6.8603211	1.9721443	-2.0430779
104	1	1	-0.012712059	-7.9868426	2.6487429	-1.4306014
105	1	1	-0.16745988	-9.257827	2.1637061	-1.1230305
106	1	3	0.2044232	-9.5321991	1.1393234	-1.3383466
107	1	1	-0.22974785	-10.177971	3.0411131	-0.52839257
108	1	3	0.21826394	-11.171991	2.6901867	-0.28177619
109	1	1	-0.25904563	-9.8154014	4.3741712	-0.25227587
110	1	3	0.22345833	-10.533916	5.0421671	0.20497703
111	1	1	-0.13109623	-8.528506	4.8421518	-0.56771597
112	1	3	0.21808257	-8.2475236	5.8665486	-0.35850749
113	1	1	0.047139333	-7.6227649	3.9583232	-1.1602741
114	1	1	-0.32072339	-8.1369893	8.6693738	-6.757422
115	1	4	0.76732284	-8.9115875	9.0051864	-5.498118
116	1	5	-0.2060573	-8.1205669	9.0536228	-4.3677861
117	1	5	-0.2060573	-9.5081064	10.245147	-5.6443003
118	1	5	-0.2060573	-9.898573	8.0554934	-5.3056785
119	1	1	-0.054853025	-8.8327332	8.7266936	-7.9803766
120	1	3	0.20718354	-9.8812401	8.9874124	-7.9578414
121	1	1	-0.12643823	-8.5010916	7.7739042	-11.624374
122	1	3	0.20490323	-7.6258905	7.1430565	-11.584824
123	1	1	-0.37341443	-9.1982901	7.8093615	-12.825376
124	1	3	0.21922943	-8.8097199	7.2331255	-13.652785
125	1	8	0.32015356	-11.523798	9.5179964	-14.449828
126	1	1	0.76873004	8.0116303	4.8175256	3.2406658
127	1	2	-0.65585864	9.1185823	4.5469267	3.6865967
128	1	1	-0.37103647	7.8950778	6.0584479	2.3982642
129	1	1	-0.084072593	6.9365965	6.1717167	1.3758779
130	1	3	0.22371834	6.2317687	5.3798208	1.1741168
131	1	1	-0.24719671	6.8940354	7.2874625	0.54253956
132	1	3	0.21177779	6.1383084	7.2803919	-0.22383879
133	1	1	-0.037998593	7.8256558	8.3395039	0.67648869
134	1	4	-0.26243046	7.8489132	9.5653745	-0.27987186
135	1	1	-0.037998612	7.8421932	10.864465	0.56461577
136	1	1	-0.24719674	6.8184293	11.066541	1.5097288
137	1	3	0.2117778	6.0426508	10.327438	1.6542132
138	1	1	-0.084072585	6.7794114	12.215624	2.2953383
139	1	3	0.22371836	5.9593683	12.320266	2.9906486
140	1	1	-0.37103644	7.7669744	13.213195	2.1773125
141	1	1	0.76873004	7.7337714	14.44981	3.0224651
142	1	2	-0.65585858	8.1444602	15.491475	2.5292129
143	1	1	-0.084072555	8.7712563	13.040729	1.2170759
144	1	3	0.22371836	9.5393047	13.793532	1.0863602
145	1	1	-0.24719674	8.8199611	11.881666	0.43456009
146	1	3	0.21177776	9.6329943	11.812584	-0.2682555
147	1	4	0.753497	9.1328529	9.4217893	-1.1731351
148	1	5	-0.19978312	9.1165467	8.2071249	-1.8389974
149	1	5	-0.19978312	9.2037322	10.423275	-2.1270967
150	1	5	-0.19978312	10.288842	9.4598477	-0.41259958
151	1	4	0.753497	6.6066906	9.6265917	-1.2440298
152	1	5	-0.19978312	5.4132703	9.6217132	-0.54195697
153	1	5	-0.19978312	6.6410076	10.790939	-1.9925764
154	1	5	-0.19978312	6.5901992	8.5614734	-2.1293117
155	1	1	-0.24719677	8.7860907	8.2260044	1.7068831
156	1	3	0.21177779	9.5194335	9.0048294	1.8628507
157	1	1	-0.0840726	8.8230761	7.1054801	2.5474379
158	1	3	0.22371834	9.586949	7.0546749	3.3136585
159	1	6	-0.53157109	7.2179281	14.487472	4.2914759
160	1	1	0.20018817	6.9516595	13.346614	5.1102699
161	1	1	-0.37341449	5.9030922	13.377065	6.0355116
162	1	3	0.21922938	5.2879459	14.264006	6.1277069
163	1	1	-0.1264382	5.6182605	12.256173	6.8239453
164	1	3	0.20490318	4.7912087	12.328602	7.5145431
165	1	1	-0.12691441	6.4058054	11.08545	6.7349656
166	1	1	-0.13318123	6.1177358	9.8789806	7.5771677
167	1	1	-0.12730587	7.1332109	8.9479563	7.8680529
168	1	3	0.20818214	8.143677	9.0728381	7.510516
169	1	1	-0.29446793	6.878253	7.8387437	8.6652693
170	1	3	0.22558553	7.6812556	7.1451756	8.8814619
171	1	1	0.33077326	5.6044676	7.6068403	9.1811107
172	1	7	-0.2796934	5.4353028	6.5021012	9.9400448
173	1	1	0.30215269	4.7748889	5.3768149	9.5674992
174	1	1	-0.31814742	4.2527155	5.1909425	8.2739694
175	1	3	0.23190665	4.3617638	5.9514741	7.5125436
176	1	1	-0.1032956	3.5801297	4.008892	7.952957
177	1	3	0.21481801	3.1825375	3.8881704	6.9520855
178	1	1	-0.10789854	3.4097836	2.9952403	8.9185954
179	1	1	0.2443622	3.9419637	3.1918275	10.208245
180	1	1	-0.3209621	4.6189836	4.3695876	10.519311
181	1	3	0.2280381	5.0228119	4.5083406	11.515184
182	1	7	-0.3029593	3.8116498	2.2524193	11.168753
183	1	1	0.2443622	3.1479363	1.0905759	11.004747
184	1	1	-0.32096213	3.0647664	0.21307264	12.087154
185	1	3	0.22803805	3.5320059	0.47448418	13.029634
186	1	1	0.30215266	2.3765366	-0.99567579	11.967237
187	1	7	-0.27969337	2.2930643	-1.8214454	13.033226
188	1	1	0.33077329	3.219565	-2.7492841	13.392861
189	1	1	-0.29446793	4.2719918	-3.1197701	12.5388
190	1	3	0.22558552	4.3777088	-2.6648098	11.562346
191	1	1	-0.12730591	5.2041383	-4.082596	12.929515
192	1	3	0.20818212	5.9935676	-4.3047052	12.228799
193	1	1	-0.13318122	5.1269069	-4.7078726	14.19281
194	1	1	-0.12691443	6.1644324	-5.7178223	14.632633
195	1	1	-0.12643819	7.0832806	-6.2979113	13.720457
196	1	3	0.20490321	7.0496545	-6.0866207	12.664836
197	1	1	-0.37341446	8.1012684	-7.1575893	14.158636
198	1	3	0.2192294	8.8098332	-7.5522444	13.442208
199	1	1	0.2001881	8.2486997	-7.443366	15.51851
200	1	6	-0.53157103	9.3736444	-8.2043832	15.976894
201	1	8	0.32015356	9.6995264	-8.9779486	15.377372
202	1	1	-0.37341452	7.2913536	-6.9418143	16.416836
203	1	3	0.21922943	7.3468682	-7.1735229	17.472524
204	1	1	-0.12643819	6.2782836	-6.093289	15.988375
205	1	3	0.20490321	5.6327583	-5.7111979	16.759741
206	1	1	-0.054853058	4.0665088	-4.3169419	15.045658
207	1	3	0.20718354	3.9532504	-4.7572687	16.019878
208	1	1	-0.32072333	3.1169539	-3.3535687	14.658206
209	1	4	0.76732284	1.996017	-2.9481253	15.592923
210	1	5	-0.2060573	2.0815164	-1.5916436	15.852142
211	1	5	-0.2060573	2.05062	-3.6246355	16.799855
212	1	5	-0.2060573	0.77696105	-3.2186056	14.99642
213	1	1	-0.31814742	1.7664313	-1.3315782	10.755021
214	1	3	0.23190666	1.2269782	-2.2647746	10.661192
215	1	1	-0.10329566	1.8555927	-0.46336075	9.661395
216	1	3	0.21481801	1.3825199	-0.74431536	8.7287662
217	1	1	-0.10789859	2.5475102	0.76027694	9.7706014
218	1	4	0.09946866	2.6658118	1.7087839	8.5790238
219	1	1	0.047139318	3.3330357	1.0058649	7.4207526
220	1	1	-0.13109616	4.6199413	0.46579808	7.369726
221	1	3	0.21808256	5.2765542	0.52090097	8.2293476
222	1	1	-0.25904572	5.04366	-0.15306588	6.1838694
223	1	3	0.22345835	6.0368425	-0.57860488	6.1261278
224	1	1	-0.22974778	4.1831578	-0.22186548	5.069651
225	1	3	0.21826391	4.5191054	-0.7015805	4.1604581
226	1	1	-0.16745995	2.891579	0.32655892	5.1347954
227	1	3	0.20442319	2.2276933	0.27504425	4.2820463
228	1	1	-0.012711983	2.4909416	0.93570098	6.3249809
229	1	1	-0.012712059	1.236352	1.5724788	6.6676076
230	1	1	-0.16745988	0.091265666	1.7576403	5.8928603
231	1	3	0.2044232	0.043028818	1.4028842	4.8717005
232	1	1	-0.22974785	-1.0019487	2.4216396	6.4706253
233	1	3	0.21826394	-1.9019654	2.5806011	5.8903297
234	1	1	-0.25904563	-0.93303068	2.8845892	7.8002903
235	1	3	0.22345833	-1.7821357	3.3964533	8.2352039
236	1	1	-0.13109623	0.22986999	2.6871421	8.5633452
237	1	3	0.21808257	0.28816047	3.0436612	9.5836016
238	1	1	0.047139333	1.3116719	2.0249833	7.9761796
239	1	1	-0.32072339	4.5529099	8.5180308	8.9027022
240	1	4	0.76732284	3.1375626	8.3659512	9.4246578
241	1	5	-0.2060573	2.9877273	7.3042345	10.294499
242	1	5	-0.2060573	2.7728738	9.5158352	10.100929
243	1	5	-0.2060573	2.2763348	8.1836815	8.356548
244	1	1	-0.054853025	4.8301043	9.6440256	8.1045406
245	1	3	0.20718354	4.0202447	10.327118	7.8912175
246	1	1	-0.12643823	7.4870143	11.084582	5.8333318
247	1	3	0.20490323	8.1281198	10.225365	5.7088797
248	1	1	-0.37341443	7.7527188	12.191606	5.0374267
249	1	3	0.21922943	8.5986109	12.139435	4.365793
250	1	8	0.32015356	7.0559694	15.413094	4.7195279
251	1	6	-0.53157109	-5.9841768	1.375889	-8.2046976
252	1	1	0.20018817	-5.7991008	-0.029263875	-8.4069509
253	1	1	-0.37341449	-6.0155241	-0.91724611	-7.3435368
254	1	3	0.21922938	-6.4453692	-0.557333	-6.4168865
255	1	1	-0.1264382	-5.6454453	-2.2655746	-7.4426835
256	1	3	0.20490318	-5.8043971	-2.9053261	-6.5846874
257	1	1	-0.12691441	-4.9831742	-2.7461236	-8.5895953
258	1	1	-0.13318123	-4.436841	-4.144699	-8.6262949
259	1	1	-0.12730587	-3.2292644	-4.4113555	-9.2989337
260	1	3	0.20818214	-2.6881914	-3.6253005	-9.8063807
261	1	1	-0.29446793	-2.668631	-5.689831	-9.2874616
262	1	3	0.22558553	-1.7283507	-5.86206	-9.7982699
263	1	1	0.33077326	-3.3047819	-6.7477729	-8.6330359
264	1	7	-0.2796934	-2.7172772	-7.971779	-8.6822434
265	1	1	0.30215269	-3.1232793	-9.0027867	-9.4732709
266	1	1	-0.31814742	-4.1658489	-8.8594747	-10.405349
267	1	3	0.23190665	-4.6803876	-7.9159122	-10.525373
268	1	1	-0.1032956	-4.5586586	-9.9370725	-11.196941
269	1	3	0.21481801	-5.3644147	-9.7958036	-11.905134
270	1	1	-0.10789854	-3.9240196	-11.187185	-11.075834
271	1	1	0.2443622	-2.8754551	-11.335832	-10.146122
272	1	1	-0.3209621	-2.4812813	-10.24463	-9.3559693
273	1	3	0.2280381	-1.6750832	-10.366602	-8.6428322
274	1	7	-0.3029593	-2.2361352	-12.521306	-10.005065
275	1	1	0.2443622	-2.5581117	-13.64448	-10.690626
276	1	1	-0.32096213	-1.8367253	-14.820405	-10.448937
277	1	3	0.22803805	-1.031276	-14.817764	-9.7245352
278	1	1	0.30215266	-2.1540373	-16.003206	-11.128112
279	1	7	-0.27969337	-1.4582205	-17.13559	-10.875685
280	1	1	0.33077329	-0.21905917	-17.416761	-11.362394
281	1	1	-0.29446793	0.29982349	-16.75092	-12.486511
282	1	3	0.22558552	-0.27794872	-15.988849	-12.993682
283	1	1	-0.12730591	1.5648588	-17.06982	-12.983615
284	1	3	0.20818212	1.9195839	-16.528969	-13.849512
285	1	1	-0.13318122	2.364986	-18.042137	-12.35268
286	1	1	-0.12691443	3.7298451	-18.379092	-12.874407
287	1	1	-0.075649026	4.0471448	-18.21263	-14.239951
288	1	3	0.20490321	3.3136663	-17.853607	-14.947516
289	1	1	-0.44963485	5.3146107	-18.546523	-14.727092
290	1	3	0.23139505	5.526967	-18.427298	-15.781937
291	1	1	0.32024562	6.3005549	-19.032859	-13.861508
292	1	6	-0.84406513	7.5865259	-19.366134	-14.355144
293	1	8	0.3675788	8.3190591	-19.717004	-13.720788
294	1	8	0.3675788	7.8069433	-19.267482	-15.357104
295	1	1	-0.44963491	6.0052865	-19.189048	-12.503042
296	1	3	0.23139509	6.7607854	-19.556276	-11.818816
297	1	1	-0.075649011	4.7333439	-18.875622	-12.014899
298	1	3	0.20490321	4.5566981	-19.003964	-10.95679
299	1	1	-0.054853058	1.8432102	-18.700081	-11.219888
300	1	3	0.20718354	2.427166	-19.466553	-10.731085
301	1	1	-0.32072333	0.554824	-18.411332	-10.730443
302	1	4	0.76732284	-0.0061850354	-19.156202	-9.5386365
303	1	5	-0.2060573	-0.29902375	-18.25968	-8.5273069
304	1	5	-0.2060573	0.88365395	-20.095882	-9.0477747
305	1	5	-0.2060573	-1.1659364	-19.811402	-9.9126905
306	1	1	-0.31814742	-3.1995404	-16.012302	-12.054874
307	1	3	0.23190666	-3.4527563	-16.925671	-12.578591
308	1	1	-0.10329566	-3.9125397	-14.840773	-12.316967
309	1	3	0.21481801	-4.7109159	-14.866417	-13.048502
310	1	1	-0.10789859	-3.6010884	-13.643103	-11.63968
311	1	4	0.09946866	-4.3660826	-12.360531	-11.941584
312	1	1	0.047139318	-4.226012	-12.011758	-13.402745
313	1	1	-0.13109616	-3.0553971	-11.712002	-14.105246
314	1	3	0.21808256	-2.0963543	-11.709597	-13.603632
315	1	1	-0.25904572	-3.1499431	-11.414614	-15.472692
316	1	3	0.22345835	-2.2548795	-11.18098	-16.034454
317	1	1	-0.22974778	-4.4026538	-11.419637	-16.118273
318	1	3	0.21826391	-4.4641261	-11.189219	-17.173044
319	1	1	-0.16745995	-5.571063	-11.722066	-15.398655
320	1	3	0.20442319	-6.5346841	-11.727389	-15.890495
321	1	1	-0.012711983	-5.4531607	-12.016385	-14.039815
322	1	1	-0.012712059	-6.4732027	-12.359162	-13.068347
323	1	1	-0.16745988	-7.8521803	-12.481135	-13.231957
324	1	3	0.2044232	-8.3182907	-12.313934	-14.194334
325	1	1	-0.22974785	-8.6261029	-12.82406	-12.111996
326	1	3	0.21826394	-9.6995739	-12.923147	-12.211615
327	1	1	-0.25904563	-8.0142476	-13.037434	-10.860835
328	1	3	0.22345833	-8.6208629	-13.299418	-10.004627
329	1	1	-0.13109623	-6.621676	-12.909967	-10.717865
330	1	3	0.21808257	-6.1482274	-13.070876	-9.7578459
331	1	1	0.047139333	-5.8630402	-12.567768	-11.841111
332	1	1	-0.32072339	-4.5299917	-6.5125383	-7.9545032
333	1	4	0.76732284	-5.3016667	-7.5916824	-7.2169289
334	1	5	-0.2060573	-4.6489561	-8.807445	-7.1896497
335	1	5	-0.2060573	-5.5103622	-7.1956336	-5.9093784
336	1	5	-0.2060573	-6.5282019	-7.7671978	-7.8330976
337	1	1	-0.054853025	-5.0705952	-5.2070585	-7.9516025
338	1	3	0.20718354	-6.0009692	-5.0300474	-7.4285878
339	1	1	-0.12643823	-4.7812202	-1.8509592	-9.662759
340	1	3	0.20490323	-4.2730228	-2.1734141	-10.56199
341	1	1	-0.37341443	-5.2071583	-0.51517078	-9.5843121
342	1	3	0.21922943	-4.986683	0.15107775	-10.406604
343	1	8	0.32015356	-5.6815401	1.7099938	-7.2751633
344	1	1	0.76873004	10.042557	-7.9751934	17.158204
345	1	2	-0.65585864	10.858934	-8.8019948	17.538872
346	1	1	-0.37103647	9.8408537	-6.7421514	17.991913
347	1	1	-0.084072593	9.9574114	-6.7889899	19.388178
348	1	3	0.22371834	10.228901	-7.7125275	19.883249
349	1	1	-0.24719671	9.6599335	-5.6595782	20.168091
350	1	3	0.21177779	9.7238024	-5.7757231	21.23456
351	1	1	-0.037998593	9.2617205	-4.4369195	19.570444
352	1	4	-0.26243046	8.8320927	-3.191988	20.399158
353	1	1	-0.037998612	9.0255006	-1.9052513	19.540153
354	1	1	-0.24615613	7.9882093	-0.98031757	19.266902
355	1	3	0.2117778	6.9942894	-1.0932041	19.665952
356	1	1	-0.055427666	8.2109925	0.1311638	18.44813
357	1	3	0.23438294	7.3906614	0.81329994	18.26031
358	1	1	-0.26377738	9.4667266	0.35014609	17.861146
359	1	1	0.8392443	9.6943138	1.5049007	16.957785
360	1	2	-0.48526913	8.7964324	2.3055855	16.739352
361	1	9	-0.66466999	10.88971	1.6634405	16.349565
362	1	10	0.41863054	11.051834	2.3935815	15.735402
363	1	1	-0.05542774	10.504047	-0.55165324	18.130062
364	1	3	0.23438291	11.483378	-0.41692991	17.688747
365	1	1	-0.24615617	10.290187	-1.6519608	18.961464
366	1	3	0.21177776	11.115364	-2.3329182	19.119165
367	1	4	0.753497	9.6793376	-3.0031745	21.70413
368	1	5	-0.19978312	9.4459956	-4.0029872	22.63109
369	1	5	-0.19978312	11.032944	-2.9830953	21.427446
370	1	5	-0.19978312	9.3428046	-1.8033502	22.310787
371	1	4	0.753497	7.3365626	-3.4327723	20.798761
372	1	5	-0.19978312	7.1968165	-4.6193964	21.499459
373	1	5	-0.19978312	6.850136	-2.414161	21.600847
374	1	5	-0.19978312	6.546044	-3.5277056	19.662971
375	1	1	-0.24719677	9.2096613	-4.3985575	18.161447
376	1	3	0.21177779	8.906046	-3.5127351	17.622678
377	1	1	-0.0840726	9.512643	-5.5126175	17.396367
378	1	3	0.22371834	9.4546871	-5.4030859	16.323021
379	2	1	0.76873004	3.7595522	-0.74487998	41.035122
380	2	2	-0.65585858	3.8423693	0.47215033	41.113948
381	2	1	-0.37103647	4.2405242	-1.3661975	39.764179
382	2	1	-0.084072608	3.5267026	-2.4196415	39.177886
383	2	3	0.22371834	2.6792383	-2.8630285	39.686576
384	2	1	-0.24719671	3.8267776	-2.8494252	37.87808
385	2	3	0.21177779	3.2020265	-3.627272	37.471695
386	2	1	-0.037998593	4.8832449	-2.2697971	37.131253
387	2	4	-0.26243046	5.2195187	-2.6794133	35.666027
388	2	1	-0.037998612	5.4534687	-1.3964827	34.809998
389	2	1	-0.24719674	4.4591982	-0.39845376	34.760346
390	2	3	0.2117778	3.535182	-0.50872526	35.310229
391	2	1	-0.084072585	4.6383384	0.76880121	34.014811
392	2	3	0.22371836	3.8334909	1.4897606	34.004266
393	2	1	-0.37103644	5.823638	0.99572566	33.287488
394	2	1	0.76873004	6.0275281	2.246237	32.482541
395	2	2	-0.65585858	6.680389	2.1600635	31.451876
396	2	1	-0.084072555	6.8051045	-0.003634059	33.299005
397	2	3	0.22371836	7.7228138	0.12811246	32.739425
398	2	1	-0.24719674	6.6339914	-1.1684222	34.055919
399	2	3	0.21177776	7.444339	-1.876746	34.026626
400	2	4	0.753497	6.4791872	-3.6041377	35.726648
401	2	5	-0.19978312	6.2342774	-4.693187	36.54697
402	2	5	-0.19978312	6.812496	-4.0912303	34.472594
403	2	5	-0.19978312	7.5678241	-2.9262818	36.246669
404	2	4	0.753497	4.0585116	-3.4829327	34.971203
405	2	5	-0.19978312	2.8622953	-2.7880829	35.022696
406	2	5	-0.19978312	4.3607768	-3.6962098	33.636098
407	2	5	-0.19978312	3.8612495	-4.7237266	35.552477
408	2	1	-0.24719677	5.6306886	-1.2495464	37.761487
409	2	3	0.21177779	6.4476724	-0.76629781	37.240346
410	2	1	-0.084072585	5.2963193	-0.78770452	39.040745
411	2	3	0.22371834	5.8534877	0.04122783	39.459124
412	2	6	-0.53157109	5.4783684	3.4614789	32.804561
413	2	1	0.20018817	4.9280419	3.8094466	34.077176
414	2	1	-0.37341449	3.8807685	4.7334338	34.1583
415	2	3	0.21922938	3.4823414	5.1817915	33.256475
416	2	1	-0.1264382	3.3158994	5.0612863	35.397376
417	2	3	0.20490318	2.5009275	5.7702723	35.404126
418	2	1	-0.12691441	3.8152995	4.5010949	36.595305
419	2	1	-0.13318123	3.2231792	4.8394152	37.931483
420	2	1	-0.12730587	3.9828863	4.7055994	39.109788
421	2	3	0.20818214	5.0091114	4.3721681	39.093003
422	2	1	-0.29446793	3.4443387	5.0318413	40.349627
423	2	3	0.22558553	4.0556652	4.9278033	41.236658
424	2	1	0.33077326	2.1293451	5.4833863	40.462077
425	2	7	-0.2796934	1.6755074	5.7719793	41.704105
426	2	1	0.30215269	0.79534513	5.026186	42.421818
427	2	1	-0.31814742	0.3040174	3.7862321	41.973334
428	2	3	0.23190665	0.61532711	3.3738771	41.022314
429	2	1	-0.1032956	-0.60214582	3.0653687	42.754604
430	2	3	0.21481801	-0.96973621	2.1156438	42.38792
431	2	1	-0.10789854	-1.0385172	3.568645	43.99665
432	2	1	0.2443622	-0.53653945	4.8076674	44.442744
433	2	1	-0.3209621	0.37318959	5.52158	43.657478
434	2	3	0.2280381	0.75172328	6.4723487	44.010591
435	2	7	-0.3029593	-0.91671026	5.3293399	45.627623
436	2	1	0.2443622	-1.8152393	4.7527253	46.457831
437	2	1	-0.32096213	-2.1394164	5.3981423	47.649853
438	2	3	0.22803805	-1.6706725	6.3430894	47.898409
439	2	1	0.30215266	-3.0796095	4.8446726	48.529744
440	2	7	-0.27969337	-3.3881023	5.4849421	49.67315
441	2	1	0.33077329	-2.6367855	5.481045	50.804426
442	2	1	-0.29446793	-1.6587628	4.4937367	51.038626
443	2	3	0.22558552	-1.4757793	3.7131903	50.311207
444	2	1	-0.12730591	-0.91609283	4.4932776	52.223767
445	2	3	0.20818212	-0.17686778	3.7158112	52.36562
446	2	1	-0.13318122	-1.105582	5.4975882	53.189012
447	2	1	-0.12691443	-0.31825682	5.5167744	54.460899
448	2	1	-0.12643819	0.12989611	4.3226054	55.061526
449	2	3	0.20490321	-0.083474384	3.3597203	54.615621
450	2	1	-0.37341446	0.82015418	4.3519617	56.280164
451	2	3	0.2192294	1.1286999	3.4200158	56.738051
452	2	1	0.2001881	1.1264748	5.573169	56.898196
453	2	6	-0.53157103	1.8020469	5.5886481	58.156391
454	2	8	0.32015356	1.5518686	4.8300248	58.810193
455	2	1	-0.37341452	0.69098788	6.7644445	56.294886
456	2	3	0.21922943	0.8808734	7.7227314	56.760112
457	2	1	-0.12643819	-0.030057625	6.7361981	55.102647
458	2	3	0.20490321	-0.34259324	7.6818014	54.682754
459	2	1	-0.054853058	-2.0759136	6.4894794	52.942944
460	2	3	0.20718354	-2.2539689	7.2548206	53.683189
461	2	1	-0.32072333	-2.8536224	6.4792798	51.772352
462	2	4	0.76732284	-3.9202919	7.5303015	51.54592
463	2	5	-0.2060573	-3.6380702	8.2377056	50.391997
464	2	5	-0.2060573	-3.9984882	8.42578	52.59932
465	2	5	-0.2060573	-5.1501142	6.911762	51.410553
466	2	1	-0.31814742	-3.6950651	3.6297084	48.206292
467	2	3	0.23190666	-4.4269355	3.1999838	48.879182
468	2	1	-0.10329566	-3.3629461	2.9688368	47.022213
469	2	3	0.21481801	-3.8444009	2.0257371	46.796635
470	2	1	-0.10789859	-2.417391	3.5184382	46.130062
471	2	4	0.09946866	-2.0367173	2.7897069	44.84735
472	2	1	0.047139318	-1.4947808	1.42046	45.177575
473	2	1	-0.13109616	-0.3558734	1.104871	45.923906
474	2	3	0.21808256	0.26328782	1.8871821	46.343813
475	2	1	-0.25904572	-0.032922093	-0.24683254	46.118312
476	2	3	0.22345835	0.84421241	-0.51140123	46.694979
477	2	1	-0.22974778	-0.84464735	-1.258879	45.570841
478	2	3	0.21826391	-0.58745416	-2.2984614	45.727975
479	2	1	-0.16745995	-1.9864752	-0.92758296	44.822111
480	2	3	0.20442319	-2.6130733	-1.7019571	44.40028
481	2	1	-0.012711983	-2.2888089	0.42381613	44.641875
482	2	1	-0.012712059	-3.3861547	1.0464225	43.927622
483	2	1	-0.16745988	-4.4364216	0.4603301	43.221437
484	2	3	0.2044232	-4.5254082	-0.61526512	43.142841
485	2	1	-0.22974785	-5.3773028	1.3028666	42.609083
486	2	3	0.21826394	-6.2008611	0.87322139	42.053023
487	2	1	-0.25904563	-5.2549532	2.7024685	42.713421
488	2	3	0.22345833	-5.9856354	3.3422749	42.235599
489	2	1	-0.13109623	-4.1905152	3.2727201	43.432025
490	2	3	0.21808257	-4.0927134	4.3479334	43.512395
491	2	1	0.047139333	-3.2605036	2.4223348	44.03582
492	2	1	-0.32072339	1.331422	5.6237851	39.297527
493	2	4	0.76732284	-0.10257429	6.1158424	39.309906
494	2	5	-0.2060573	-0.52504774	6.5339335	40.55587
495	2	5	-0.2060573	-0.22610145	7.1887658	38.444872
496	2	5	-0.2060573	-0.93513822	5.0984108	38.880068
497	2	1	-0.054853025	1.8945399	5.3008086	38.047908
498	2	3	0.20718354	1.2743615	5.4017186	37.168678
499	2	1	-0.12643823	4.9042007	3.6124347	36.502643
500	2	3	0.20490323	5.3365252	3.1433836	37.373617
501	2	1	-0.37341443	5.4469148	3.2731275	35.269727
502	2	3	0.21922943	6.2836891	2.5895523	35.256501
503	2	8	0.32015356	5.510828	4.2087961	32.093769
504	2	1	0.76873004	2.6624972	6.5548532	58.609123
505	2	2	-0.65585864	2.9437263	6.5584866	59.800055
506	2	1	-0.37103647	3.3802482	7.5431178	57.730898
507	2	1	-0.084072593	3.6318959	7.2802491	56.372825
508	2	3	0.22371834	3.296679	6.3678645	55.904025
509	2	1	-0.24719671	4.3748827	8.1609579	55.589578
510	2	3	0.21177779	4.5325944	7.869819	54.565432
511	2	1	-0.037998593	4.9241362	9.3421954	56.133314
512	2	4	-0.26243046	5.8147709	10.311024	55.305023
513	2	1	-0.037998612	5.2606794	11.75112	55.446262
514	2	1	-0.24719674	3.9152885	12.006798	55.119585
515	2	3	0.2117778	3.2669728	11.212655	54.776065
516	2	1	-0.084072585	3.3746491	13.2844	55.240161
517	2	3	0.22371836	2.3407426	13.420203	54.958253
518	2	1	-0.37103644	4.152821	14.364769	55.700172
519	2	1	0.76873004	3.5764905	15.740926	55.836687
520	2	2	-0.65585858	4.3126973	16.69392	55.620283
521	2	1	-0.084072555	5.5013925	14.131319	55.995531
522	2	3	0.22371836	6.1354149	14.940608	56.337238
523	2	1	-0.24719674	6.0444205	12.846236	55.886844
524	2	3	0.21177776	7.083458	12.741953	56.150038
525	2	4	0.753497	7.2799132	10.161864	55.85105
526	2	5	-0.19978312	7.6859769	8.8398557	55.770705
527	2	5	-0.19978312	8.1759912	10.922191	55.118256
528	2	5	-0.19978312	7.3690353	10.540794	57.179449
529	2	4	0.753497	5.8455505	9.9691177	53.769244
530	2	5	-0.19978312	4.5727593	9.945686	53.224601
531	2	5	-0.19978312	6.5715618	10.927093	53.081933
532	2	5	-0.19978312	6.4402603	8.7417322	53.527752
533	2	1	-0.24719677	4.6672591	9.606933	57.497483
534	2	3	0.21177779	5.0547488	10.500648	57.966323
535	2	1	-0.0840726	3.9147444	8.7224205	58.281597
536	2	3	0.22371834	3.7565818	8.958993	59.326678
537	2	6	-0.53157109	2.2613882	15.986347	56.13363
538	2	1	0.20018817	1.3430069	15.032455	56.671726
539	2	1	-0.37341449	-0.017540292	15.114708	56.357658
540	2	3	0.21922938	-0.37519864	15.898535	55.70095
541	2	1	-0.1264382	-0.92096873	14.170465	56.859035
542	2	3	0.20490318	-1.9583443	14.273147	56.577088
543	2	1	-0.12691441	-0.48951814	13.139593	57.724997
544	2	1	-0.13318123	-1.445741	12.124554	58.275624
545	2	1	-0.12730587	-1.1579036	11.44374	59.474061
546	2	3	0.20818214	-0.25747853	11.633172	60.037816
547	2	1	-0.29446793	-2.0493673	10.517144	60.000961
548	2	3	0.22558553	-1.806732	10.016745	60.93011
549	2	1	0.33077326	-3.2432983	10.221276	59.34568
550	2	7	-0.2796934	-4.0525787	9.303078	59.91754
551	2	1	0.30215269	-4.256652	8.0377735	59.471934