Title

11875 atoms
12000 bonds
21625 angles
35875 dihedrals
6000 impropers

9 atom types
12 bond types
6 angle types
23 dihedral types
2 improper types
-7.340099812 92.65990019 xlo xhi
-7.751699924 92.24830008 ylo yhi
-8.011699677 91.98830032 zlo zhi
0.0 0.0 0.0 xy xz yz

Masses

1	15.99943
2	12.01078
3	1.007947
4	1.007947
5	12.01078
6	15.99943
7	1.007947
8	15.99943
9	1.007947


Pair Coeffs

1	0.16846514	3.0251065
2	0.10884061	3.3795318
3	0.016409246	2.5832257
4	0.015779483	2.6445434
5	0.086879315	3.4806469
6	0.2102061	3.0398122
7	0.015611343	2.5725815
8	0.20947353	2.99716
9	1.2326e-05	0.53453923

Bond Coeffs

1 harmonic	366.7408841747	1.425895053732
2 harmonic	300.03137914615	1.451203938761
3 harmonic	264.62148576755	1.52190126495
4 harmonic	370.04670688625	1.093899492634
5 harmonic	301.15400723785	1.345741232799
6 harmonic	582.698766451	1.225198386222
7 harmonic	279.1350963404	1.454628925034
8 harmonic	360.7852444772	1.387193227181
9 harmonic	397.2545789619	1.085358495916
10 harmonic	329.96998057905	1.427343958716
11 harmonic	543.5267831885	0.9716763312559
12 harmonic	385.7604595587	1.369745182308


Angle Coeffs

1 harmonic	53.20531626545	116.5475862634
2 harmonic	65.09061609600001	110.3538806181
3 harmonic	201.41175231035	127.4691416191
4 harmonic	57.8982893754	126.8062420451
5 harmonic	48.776492647595	115.6030999533
6 harmonic	34.066775159195	129.1835929926


Dihedral Coeffs

1 fourier 1	0.1155372516788	3	0
2 fourier 1	0.1115525666802	3	0
3 fourier 1	0.3432490222662	1	0
4 fourier 1	0.0473758381877	3	0
5 fourier 1	0.457973137376	1	0
6 fourier 1	0.09223874044423	3	0
7 fourier 1	0.3159935921949	2	180
8 fourier 1	0.3247796806857	1	180
9 fourier 1	0.1040663847541	3	0
10 fourier 1	0.1918272375143	3	0
11 fourier 1	0.9202179876409	1	180
12 fourier 1	1.163809172478	2	180
13 fourier 1	0.1679186987369	1	180
14 fourier 1	2.779853741805	2	180
15 fourier 1	0.9974165607242	2	180
16 fourier 1	0.1911926717192	3	0
17 fourier 1	3.661930099076	2	180
18 fourier 1	0.3445382149273	3	0
19 fourier 1	0.1364556373303	1	0
20 fourier 1	0.3026390167484	3	0
21 fourier 1	2.687457892086	2	180
22 fourier 1	2.772607909663	2	180
23 fourier 1	0.09692684957115	1	0


Improper Coeffs

1 3.5	-1	2
2 0.3666666666666667	-1	2


Atoms

1	4	1	-0.166511	-1.2019	-2.7855	-0.061999999
2	4	2	0.036194999	-0.59899998	-2.5876	-1.3115
3	4	2	-0.144453	0.19769999	-1.2795	-1.3135
4	4	2	-0.138291	0.84990001	-1.0325	-2.6817999
5	4	2	-0.14072201	1.5476	0.33340001	-2.7649
6	4	2	-0.139448	2.8185999	0.4005	-1.9004
7	4	2	-0.139448	3.6508999	1.6684999	-2.1624999
8	4	2	-0.140772	2.9224	2.9972999	-1.8753999
9	4	2	-0.13956299	2.3570001	3.1352	-0.45030001
10	4	2	-0.139011	3.4468	3.0666001	0.63200003
11	4	2	0.13922299	2.8938	3.4001999	2.0208001
12	4	1	-0.50694197	1.9941	2.4121001	2.4477
13	4	3	0.078734003	2.4175	4.4085002	2.0211999
14	4	3	0.078734003	3.7397001	3.4353001	2.7388999
15	4	4	0.092173003	3.8917	2.0495	0.66240001
16	4	4	0.092173003	4.2529998	3.7921	0.38999999
17	4	4	0.088026002	1.8474	4.1213999	-0.384
18	4	4	0.088026002	1.5848	2.3585999	-0.2694
19	4	4	0.086240999	2.0933001	3.1269	-2.6019001
20	4	4	0.086240999	3.6324999	3.8324001	-2.0599
21	4	4	0.086240999	4.5788999	1.6188	-1.5549999
22	4	4	0.086240999	3.9739001	1.6707	-3.2268
23	4	4	0.086240999	3.46	-0.47729999	-2.1331
24	4	4	0.086240999	2.5604	0.33899999	-0.82349998
25	4	4	0.086240999	1.8246	0.51590002	-3.8261001
26	4	4	0.086240999	0.83350003	1.128	-2.4593
27	4	4	0.088203996	1.5778	-1.8426	-2.9070001
28	4	4	0.088203996	0.0614	-1.0619	-3.467
29	4	4	0.093292996	0.98030001	-1.3396	-0.52880001
30	4	4	0.093292996	-0.48710001	-0.43889999	-1.0673
31	4	3	0.086635001	-1.3974	-2.5364001	-2.0825
32	4	3	0.086635001	0.0656	-3.4456999	-1.5599
33	5	5	0.78733701	1.053	2.7005	2.1205001
34	5	6	-0.57653999	0.551	3.7636001	2.5701001
35	5	5	-0.31001401	0.32069999	1.8721	1.1459
36	5	5	-0.113425	0.87129998	0.7396	0.67659998
37	5	7	0.205429	1.8526	0.4228	1.0065
38	5	5	-0.070676997	0.1434	-0.095700003	-0.30160001
39	5	7	0.187793	0.6117	-1.0041	-0.66299999
40	5	5	-0.37214801	-1.0766	0.2669	-0.73329997
41	5	5	0.57739002	-1.7948999	-0.5715	-1.7082
42	5	6	-0.617428	-2.9387	-0.24590001	-2.1221001
43	5	5	-0.070676997	-1.686	1.5175	-0.2155
44	5	7	0.187793	-2.6675999	1.8273	-0.55110002
45	5	5	-0.113425	-1.0265	2.2753	0.67030001
46	5	7	0.205429	-1.4867001	3.1842	1.0369999
47	1	1	-0.166511	-0.48660001	-3.0934999	0.5528
48	1	2	0.036194999	-1.1283	-3.6594999	1.6638
49	1	2	-0.144453	-1.6716	-2.5580001	2.5781
50	1	2	-0.138291	-2.3606	-3.1572001	3.8139999
51	1	2	-0.14072201	-2.8024001	-2.0843	4.8203001
52	1	2	-0.139448	-3.9774001	-1.237	4.3024001
53	1	2	-0.139448	-4.5815001	-0.3294	5.3891001
54	1	2	-0.14072201	-3.605	0.69999999	5.9958
55	1	2	-0.134206	-2.9277	1.6336	4.9766002
56	1	2	-0.16637699	-3.9345	2.4916999	4.1935
57	1	2	0.089523003	-3.2358999	3.5472	3.3313
58	1	8	-0.67999101	-2.5039999	2.9405	2.2999001
59	1	9	0.38500699	-1.5918	2.7728	2.6543
60	1	3	0.077909999	-2.5845001	4.1982999	3.9598999
61	1	3	0.077909999	-4.0098	4.1987	2.8733001
62	1	4	0.095648997	-4.5531998	1.8475	3.5337999
63	1	4	0.095648997	-4.6097999	3.0107	4.9084001
64	1	4	0.088203996	-2.2435999	2.3060999	5.5391002
65	1	4	0.088203996	-2.2992001	1.0433	4.2776999
66	1	4	0.086240999	-2.8176	0.1662	6.5693002
67	1	4	0.086240999	-4.1630998	1.3192	6.7314
68	1	4	0.086240999	-5.4596	0.2018	4.9650002
69	1	4	0.086240999	-4.9703002	-0.9677	6.2124
70	1	4	0.086240999	-4.7823	-1.9151	3.9454
71	1	4	0.086240999	-3.6612999	-0.62180001	3.4353001
72	1	4	0.086240999	-3.1136999	-2.5978	5.7561002
73	1	4	0.086240999	-1.9359	-1.4322	5.0632
74	1	4	0.088203996	-3.2377999	-3.7655001	3.5005
75	1	4	0.088203996	-1.6471	-3.8366001	4.3294001
76	1	4	0.093292996	-2.3966	-1.9449	2.0028
77	1	4	0.093292996	-0.82959998	-1.9059	2.8977001
78	1	3	0.086635001	-0.38850001	-4.2740002	2.2203
79	1	3	0.086635001	-1.9536999	-4.3297	1.3319
80	2	5	0.57739002	-1.3433	-1.4837	-2.0815001
81	2	6	-0.617428	-2.0018001	-2.5558	-2.0274
82	2	5	-0.37214801	0.018999999	-1.4612	-2.6403999
83	2	5	-0.070676997	0.70770001	-0.3096	-2.6907001
84	2	7	0.187793	0.2735	0.61290002	-2.3227
85	2	5	-0.11097	2.075	-0.2782	-3.2507
86	2	7	0.205429	2.6015	0.66860002	-3.2748001
87	2	5	-0.29916599	2.6491001	-1.4037	-3.7174001
88	2	5	0.82519799	4.0170999	-1.3896	-4.2810998
89	2	6	-0.55494702	4.6782999	-0.317	-4.3365998
90	2	8	-0.67992002	4.5861001	-2.5671	-4.7577
91	2	9	0.396447	5.5214	-2.5727999	-5.1457
92	2	5	-0.11097	1.8859	-2.6760001	-3.6610999
93	2	7	0.205429	2.3257	-3.5945001	-4.0307002
94	2	5	-0.070676997	0.64789999	-2.7035	-3.154
95	2	7	0.187793	0.1087	-3.642	-3.1222999
96	4	1	-0.166511	-0.17120001	-0.0060000001	19.077299
97	4	2	0.036194999	-0.97320002	1.0562	18.6385
98	4	2	-0.144453	-1.1008	1.0276999	17.112499
99	4	2	-0.138291	-1.9593	2.1970999	16.6085
100	4	2	-0.14072201	-2.0016	2.28	15.0752
101	4	2	-0.139448	-2.8050001	1.1296	14.4439
102	4	2	-0.139448	-3.0571001	1.3347	12.9394
103	4	2	-0.140772	-1.7849	1.4335001	12.0729
104	4	2	-0.13956299	-0.82059997	0.2396	12.1933
105	4	2	-0.139011	-1.4619	-1.0897	11.7631
106	4	2	0.13922299	-0.43610001	-2.2253001	11.7031
107	4	1	-0.50694197	0.041200001	-2.5318	12.9861
108	4	3	0.078734003	0.3994	-1.9628	11.0127
109	4	3	0.078734003	-0.93239999	-3.1285999	11.2907
110	4	4	0.092173003	-2.2651999	-1.3746001	12.4751
111	4	4	0.092173003	-1.9159	-0.97119999	10.7557
112	4	4	0.088026002	0.053399999	0.44499999	11.5373
113	4	4	0.088026002	-0.43560001	0.1636	13.2317
114	4	4	0.086240999	-1.2355	2.3629	12.3304
115	4	4	0.086240999	-2.0929999	1.5375	11.0099
116	4	4	0.086240999	-3.6925001	0.50389999	12.5669
117	4	4	0.086240999	-3.6477001	2.2667	12.7994
118	4	4	0.086240999	-3.7951	1.0634	14.9452
119	4	4	0.086240999	-2.2911999	0.1604	14.6079
120	4	4	0.086240999	-2.4755001	3.2456999	14.7944
121	4	4	0.086240999	-0.963	2.2843001	14.6804
122	4	4	0.088203996	-2.9925001	2.1103001	17.0105
123	4	4	0.088203996	-1.5294	3.1501999	16.990499
124	4	4	0.093292996	-1.5637	0.064400002	16.8132
125	4	4	0.093292996	-0.085299999	1.0872999	16.6637
126	4	3	0.086635001	-0.49649999	2.0093	18.952801
127	4	3	0.086635001	-1.9795001	1.0016	19.1119
128	5	5	0.78733701	0.87220001	-1.9327	13.1492
129	5	6	-0.57653999	1.8858	-2.0848999	12.4187
130	5	5	-0.31001401	0.85890001	-0.92269999	14.2226
131	5	5	-0.113425	-0.2317	-0.77399999	14.9936
132	5	7	0.205429	-1.1082	-1.3901	14.8381
133	5	5	-0.070676997	-0.25260001	0.23729999	16.071301
134	5	7	0.187793	-1.1457	0.3353	16.6779
135	5	5	-0.37214801	0.81739998	1.0197001	16.2927
136	5	5	0.57739002	0.78799999	2.0249	17.3689
137	5	6	-0.617428	1.7824	2.7651999	17.589399
138	5	5	-0.070676997	2.0228	0.85610002	15.4419
139	5	7	0.187793	2.8949001	1.4769	15.6038
140	5	5	-0.113425	2.0421	-0.059500001	14.4646
141	5	7	0.205429	2.9301	-0.1646	13.854
142	1	1	-0.166511	-0.73210001	-0.82319999	19.0308
143	1	2	0.036194999	-0.093999997	-1.7932	19.8172
144	1	2	-0.144453	1.1088001	-2.3731999	19.068199
145	1	2	-0.138291	1.8103	-3.4546001	19.904699
146	1	2	-0.14072201	2.9414001	-4.1529999	19.1355
147	1	2	-0.139448	4.1531	-3.2339001	18.9035
148	1	2	-0.139448	5.3768001	-3.9890001	18.354099
149	1	2	-0.14072201	5.1573	-4.6841998	16.994101
150	1	2	-0.134206	4.6719999	-3.7609999	15.8622
151	1	2	-0.16637699	5.6657	-2.6313	15.5471
152	1	2	0.089523003	5.2602	-1.8469	14.2957
153	1	8	-0.67999101	4.0711002	-1.1368999	14.5184
154	1	9	0.38500699	3.3243001	-1.738	14.26
155	1	3	0.077909999	5.1651001	-2.5294001	13.419
156	1	3	0.077909999	6.0633001	-1.1171	14.0599
157	1	4	0.095648997	5.7266002	-1.9267	16.403099
158	1	4	0.095648997	6.6754999	-3.0657001	15.3793
159	1	4	0.088203996	4.5381999	-4.3860002	14.9521
160	1	4	0.088203996	3.6767001	-3.3392	16.114401
161	1	4	0.086240999	4.4267998	-5.5117998	17.1178
162	1	4	0.086240999	6.1153998	-5.1556001	16.684299
163	1	4	0.086240999	6.2280002	-3.2807	18.2722
164	1	4	0.086240999	5.6824999	-4.7606001	19.094101
165	1	4	0.086240999	4.4485998	-2.7741001	19.871201
166	1	4	0.086240999	3.8866999	-2.4045	18.216801
167	1	4	0.086240999	3.2671001	-5.0352998	19.7286
168	1	4	0.086240999	2.5483	-4.5233998	18.1642
169	1	4	0.088203996	2.2102001	-3.0079	20.8419
170	1	4	0.088203996	1.064	-4.2272	20.191999
171	1	4	0.093292996	1.8191	-1.5494	18.845699
172	1	4	0.093292996	0.75950003	-2.8104999	18.107401
173	1	3	0.086635001	-0.82300001	-2.6031001	20.034599
174	1	3	0.086635001	0.2299	-1.351	20.7869
175	2	5	0.57739002	-0.096000001	2.1380999	17.9863
176	2	6	-0.617428	0.028899999	2.1127999	19.239201
177	2	5	-0.37214801	-1.4177999	2.3171999	17.3622
178	2	5	-0.070676997	-1.5336	2.3418	16.0247
179	2	7	0.187793	-0.66180003	2.2305	15.3903
180	2	5	-0.11097	-2.8563001	2.5218	15.3904
181	2	7	0.205429	-2.9124	2.536	14.3083
182	2	5	-0.29916599	-3.9632001	2.6629	16.1448
183	2	5	0.82519799	-5.2948999	2.8440001	15.5256
184	2	6	-0.55494702	-5.4222002	2.8699	14.2712
185	2	8	-0.67992002	-6.4224	2.9886999	16.328899
186	2	9	0.396447	-7.3400998	3.1129	15.9194
187	2	5	-0.11097	-3.8329999	2.6356001	17.623501
188	2	7	0.205429	-4.7083998	2.7474999	18.2519
189	2	5	-0.070676997	-2.6350999	2.4727001	18.196899
190	2	7	0.187793	-2.5623	2.4558001	19.277201
191	4	1	-0.166511	2.747	-1.211	32.5369
192	4	2	0.036194999	2.5467999	-1.1808	31.1502
193	4	2	-0.144453	1.2632	-0.41440001	30.8174
194	4	2	-0.138291	1.0135	-0.3876	29.3022
195	4	2	-0.14072201	-0.33219999	0.257	28.937401
196	4	2	-0.139448	-0.34720001	1.7747	29.189301
197	4	2	-0.139448	-1.5939	2.4631	28.605301
198	4	2	-0.140772	-2.9389999	1.9674	29.1745
199	4	2	-0.13956299	-3.0704999	2.0562999	30.7057
200	4	2	-0.139011	-2.9517	3.4962001	31.2311
201	4	2	0.13922299	-3.2788999	3.5878	32.724499
202	4	1	-0.50694197	-2.3113999	2.9168	33.487
203	4	3	0.078734003	-4.3009	3.1900001	32.926998
204	4	3	0.078734003	-3.2771001	4.6574001	33.021801
205	4	4	0.092173003	-1.9214	3.8782001	31.0697
206	4	4	0.092173003	-3.6566999	4.151	30.674999
207	4	4	0.088026002	-4.0700998	1.6551	30.9818
208	4	4	0.088026002	-2.3143001	1.405	31.1919
209	4	4	0.086240999	-3.1050999	0.91509998	28.863001
210	4	4	0.086240999	-3.7555001	2.5627	28.711201
211	4	4	0.086240999	-1.5067	3.5580001	28.7675
212	4	4	0.086240999	-1.6038001	2.3103001	27.5037
213	4	4	0.086240999	0.54540002	2.2293999	28.707199
214	4	4	0.086240999	-0.27590001	1.9895999	30.2752
215	4	4	0.086240999	-0.52359998	0.069799997	27.858299
216	4	4	0.086240999	-1.1426001	-0.236	29.5161
217	4	4	0.088203996	1.8412	0.15099999	28.790701
218	4	4	0.088203996	1.0066	-1.4331	28.92
219	4	4	0.093292996	1.3594	0.62239999	31.201401
220	4	4	0.093292996	0.40669999	-0.90399998	31.33
221	4	3	0.086635001	2.4593	-2.2265999	30.785299
222	4	3	0.086635001	3.4202001	-0.71100003	30.643999
223	5	5	0.78733701	-2.6329999	1.9355	33.5854
224	5	6	-0.57653999	-3.7030001	1.7045	34.206501
225	5	5	-0.31001401	-1.8427	0.83459997	33.005699
226	5	5	-0.113425	-0.7022	1.0992	32.346199
227	5	7	0.205429	-0.35089999	2.1170001	32.233398
228	5	5	-0.070676997	0.094999999	0.00050000002	31.761499
229	5	7	0.187793	1.011	0.2431	31.2349
230	5	5	-0.37214801	-0.3109	-1.275	31.881901
231	5	5	0.57739002	0.48980001	-2.3638	31.2962
232	5	6	-0.617428	0.1235	-3.5639999	31.400801
233	5	5	-0.070676997	-1.5704	-1.5686001	32.6105
234	5	7	0.187793	-1.9148	-2.5894001	32.718201
235	5	5	-0.113425	-2.2937	-0.57340002	33.139801
236	5	7	0.205429	-3.2098	-0.8064	33.6679
237	1	1	-0.166511	3.0862	-0.31479999	32.794399
238	1	2	0.036194999	3.6508	-0.45070001	34.070801
239	1	2	-0.144453	2.5487001	-0.52310002	35.1311
240	1	2	-0.138291	3.1472001	-0.65079999	36.540699
241	1	2	-0.14072201	2.0782001	-0.59359998	37.641998
242	1	2	-0.139448	1.1878999	-1.848	37.6665
243	1	2	-0.139448	0.28049999	-1.91	38.908401
244	1	2	-0.14072201	-0.70929998	-0.7349	39.052101
245	1	2	-0.134206	-1.6388	-0.51569998	37.845001
246	1	2	-0.16637699	-2.5390999	-1.7282	37.5583
247	1	2	0.089523003	-3.5873001	-1.4198	36.484901
248	1	8	-0.67999101	-2.9760001	-1.2085	35.240299
249	1	9	0.38500699	-2.7753999	-0.23810001	35.1791
250	1	3	0.077909999	-4.2083001	-0.54329997	36.784
251	1	3	0.077909999	-4.2690001	-2.2918999	36.395199
252	1	4	0.095648997	-1.9246	-2.5878999	37.217201
253	1	4	0.095648997	-3.0664001	-2.0237999	38.4916
254	1	4	0.088203996	-2.2813001	0.3635	38.070301
255	1	4	0.088203996	-1.0415	-0.25830001	36.945599
256	1	4	0.086240999	-0.14300001	0.2018	39.241299
257	1	4	0.086240999	-1.3328	-0.912	39.955299
258	1	4	0.086240999	-0.28349999	-2.8664	38.892799
259	1	4	0.086240999	0.92030001	-1.9394	39.817402
260	1	4	0.086240999	1.8357	-2.7509	37.678299
261	1	4	0.086240999	0.56830001	-1.9037	36.748199
262	1	4	0.086240999	2.5973001	-0.50129998	38.620899
263	1	4	0.086240999	1.4562	0.31650001	37.500599
264	1	4	0.088203996	3.7239001	-1.5987	36.622501
265	1	4	0.088203996	3.8559	0.18960001	36.707802
266	1	4	0.093292996	1.905	-1.4013	34.914299
267	1	4	0.093292996	1.9273	0.3969	35.069801
268	1	3	0.086635001	4.2961998	0.43290001	34.2644
269	1	3	0.086635001	4.2905998	-1.3614	34.114101
270	2	5	0.57739002	1.4088	-2.1413	30.7659
271	2	6	-0.617428	2.4614999	-2.7526	31.0886
272	2	5	-0.37214801	1.4177999	-1.1387	29.6873
273	2	5	-0.070676997	0.28659999	-0.49590001	29.355499
274	2	7	0.187793	-0.64219999	-0.70429999	29.873699
275	2	5	-0.11097	0.28690001	0.51120001	28.2738
276	2	7	0.205429	-0.64410001	1.0109	28.0333
277	2	5	-0.29916599	1.4213001	0.79830003	27.6068
278	2	5	0.82519799	1.4387	1.8039	26.521299
279	2	6	-0.55494702	0.3856	2.4168999	26.196199
280	2	8	-0.67992002	2.6248	2.0804999	25.847401
281	2	9	0.396447	2.6521001	2.7664001	25.1029
282	2	5	-0.11097	2.6709001	0.086300001	27.975
283	2	7	0.205429	3.5961001	0.29929999	27.4529
284	2	5	-0.070676997	2.6698	-0.82539999	28.954399
285	2	7	0.187793	3.5922	-1.3332	29.2071
286	4	1	-0.166511	2.6888001	1.3388	48.573898
287	4	2	0.036194999	2.7248001	0.78500003	47.287102
288	4	2	-0.144453	1.3433	0.24600001	46.903999
289	4	2	-0.138291	1.3659	-0.38519999	45.504101
290	4	2	-0.14072201	0.033	-1.0549001	45.137299
291	4	2	-0.139448	-1.0944	-0.035100002	44.900299
292	4	2	-0.139448	-2.3596001	-0.67460001	44.300598
293	4	2	-0.140772	-3.0107999	-1.7699	45.169601
294	4	2	-0.13956299	-3.3800001	-1.3333	46.5989
295	4	2	-0.139011	-4.3985	-0.182	46.625702
296	4	2	0.13922299	-4.8987999	0.1045	48.044601
297	4	1	-0.50694197	-3.8629999	0.61089998	48.8437
298	4	3	0.078734003	-5.3460999	-0.81220001	48.495201
299	4	3	0.078734003	-5.7017002	0.86930001	47.988602
300	4	4	0.092173003	-3.9398999	0.74349999	46.217602
301	4	4	0.092173003	-5.2714	-0.447	45.991001
302	4	4	0.088026002	-3.8199999	-2.2135	47.116798
303	4	4	0.088026002	-2.4646001	-1.0513	47.16
304	4	4	0.086240999	-2.3311999	-2.6454	45.2286
305	4	4	0.086240999	-3.931	-2.1229999	44.655499
306	4	4	0.086240999	-3.1027	0.1252	44.098301
307	4	4	0.086240999	-2.1024001	-1.1188999	43.313999
308	4	4	0.086240999	-0.73710001	0.73830003	44.1861
309	4	4	0.086240999	-1.3513	0.48730001	45.844501
310	4	4	0.086240999	0.1868	-1.6435	44.206699
311	4	4	0.086240999	-0.25400001	-1.7637	45.943501
312	4	4	0.088203996	1.6229	0.3854	44.7444
313	4	4	0.088203996	2.1600001	-1.1647	45.473301
314	4	4	0.093292996	0.61659998	1.0844001	46.927299
315	4	4	0.093292996	1.0315	-0.51419997	47.653
316	4	3	0.086635001	3.4614	-0.046999998	47.283401
317	4	3	0.086635001	3.0615001	1.5466	46.548
318	5	5	0.78733701	-3.3985	-0.2041	49.2864
319	5	6	-0.57653999	-4.0567002	-0.92089999	50.084702
320	5	5	-0.31001401	-1.9893	-0.51029998	48.9818
321	5	5	-0.113425	-1.3012	0.266	48.127499
322	5	7	0.205429	-1.7693	1.1206	47.6558
323	5	5	-0.070676997	0.112	-0.035399999	47.816502
324	5	7	0.187793	0.64270002	0.60780001	47.123798
325	5	5	-0.37214801	0.72509998	-1.0884	48.383499
326	5	5	0.57739002	2.1336999	-1.3814	48.067902
327	5	6	-0.617428	2.7225001	-2.3636999	48.591202
328	5	5	-0.070676997	-0.0339	-1.9464	49.327599
329	5	7	0.187793	0.44170001	-2.7995999	49.794498
330	5	5	-0.113425	-1.3147	-1.6744	49.6091
331	5	7	0.205429	-1.8525	-2.3111999	50.300201
332	1	1	-0.166511	2.247	2.2232001	48.490002
333	1	2	0.036194999	2.5523	2.9368999	49.658001
334	1	2	-0.144453	1.6973	2.4329	50.823799
335	1	2	-0.138291	2.0011001	3.2170999	52.109901
336	1	2	-0.14072201	1.0707	2.8309	53.269199
337	1	2	-0.139448	1.3494	1.4154	53.803501
338	1	2	-0.139448	0.5952	1.1133	55.111
339	1	2	-0.14072201	-0.94270003	1.1884	55.0089
340	1	2	-0.134206	-1.5678	0.2879	53.928398
341	1	2	-0.16637699	-1.2822	-1.2049	54.158298
342	1	2	0.089523003	-2.0711999	-2.0926001	53.191399
343	1	8	-0.67999101	-1.6265	-1.9092	51.873798
344	1	9	0.38500699	-2.1717	-1.1759	51.485401
345	1	3	0.077909999	-3.1647999	-1.8935	53.280102
346	1	3	0.077909999	-1.9056	-3.1545999	53.470798
347	1	4	0.095648997	-0.1992	-1.4112	54.0257
348	1	4	0.095648997	-1.5652	-1.4777	55.198502
349	1	4	0.088203996	-2.6677001	0.45070001	53.949699
350	1	4	0.088203996	-1.2142	0.59729999	52.922798
351	1	4	0.086240999	-1.2477	2.2393999	54.818001
352	1	4	0.086240999	-1.3721	0.91189998	55.996399
353	1	4	0.086240999	0.89130002	0.1055	55.471001
354	1	4	0.086240999	0.92790002	1.8336	55.890099
355	1	4	0.086240999	2.4363999	1.3151	54.011799
356	1	4	0.086240999	1.0925	0.65329999	53.0396
357	1	4	0.086240999	1.224	3.563	54.0919
358	1	4	0.086240999	0.0145	2.914	52.9333
359	1	4	0.088203996	3.0615001	3.0595	52.407501
360	1	4	0.088203996	1.8658	4.3024998	51.9095
361	1	4	0.093292996	1.9112	1.3549	50.980598
362	1	4	0.093292996	0.6232	2.5474999	50.560001
363	1	3	0.086635001	2.3389001	4.0123	49.477402
364	1	3	0.086635001	3.6349001	2.8357	49.899399
365	2	5	0.57739002	2.6814001	-0.74980003	47.377701
366	2	6	-0.617428	3.7950001	-0.2814	47.733299
367	2	5	-0.37214801	2.1249001	-0.44839999	46.048
368	2	5	-0.070676997	0.93599999	-0.9558	45.684399
369	2	7	0.187793	0.3732	-1.5894001	46.360199
370	2	5	-0.11097	0.3707	-0.65890002	44.351501
371	2	7	0.205429	-0.59140003	-1.0848	44.092201
372	2	5	-0.29916599	1.0396	0.1248	43.484001
373	2	5	0.82519799	0.48769999	0.43180001	42.145802
374	2	6	-0.55494702	-0.62720001	-0.036400001	41.787498
375	2	8	-0.67992002	1.2005	1.2437	41.268101
376	2	9	0.396447	0.83530003	1.4628	40.3494
377	2	5	-0.11097	2.3540001	0.6846	43.887798
378	2	7	0.205429	2.9115	1.3171999	43.207401
379	2	5	-0.070676997	2.8650999	0.4152	45.094601
380	2	7	0.187793	3.8254001	0.83359998	45.369202
381	4	1	-0.166511	-2.7744	0.79079998	63.250801
382	4	2	0.036194999	-2.9195001	0.331	64.566597
383	4	2	-0.144453	-1.5451	0.081900001	65.194901
384	4	2	-0.138291	-1.682	-0.4434	66.6315
385	4	2	-0.14072201	-0.33000001	-0.83060002	67.249298
386	4	2	-0.139448	0.5553	0.39230001	67.545998
387	4	2	-0.139448	1.7994	0.038600001	68.3806
388	4	2	-0.140772	2.7571001	-0.977	67.724701
389	4	2	-0.13956299	3.2688	-0.5812	66.327797
390	4	2	-0.139011	4.0676999	0.73229998	66.336304
391	4	2	0.13922299	4.7308002	1.0058	64.983101
392	4	1	-0.50694197	3.7641001	1.257	63.998001
393	4	3	0.078734003	5.3934002	0.15719999	64.692596
394	4	3	0.078734003	5.3726001	1.9065	65.079597
395	4	4	0.092173003	3.3994	1.5845	66.582497
396	4	4	0.092173003	4.8608999	0.67650002	67.112602
397	4	4	0.088026002	3.9288001	-1.4	65.9664
398	4	4	0.088026002	2.4196999	-0.51130003	65.616203
399	4	4	0.086240999	2.2544999	-1.9641	67.653702
400	4	4	0.086240999	3.6305001	-1.1191	68.397598
401	4	4	0.086240999	2.3539	0.97289997	68.6092
402	4	4	0.086240999	1.4683	-0.37529999	69.358299
403	4	4	0.086240999	-0.0372	1.1352	68.1231
404	4	4	0.086240999	0.86629999	0.88559997	66.602501
405	4	4	0.086240999	-0.52710003	-1.3710001	68.200798
406	4	4	0.086240999	0.1979	-1.5295	66.565399
407	4	4	0.088203996	-2.1835999	0.31830001	67.267899
408	4	4	0.088203996	-2.3264999	-1.351	66.6231
409	4	4	0.093292996	-0.97729999	1.0355	65.195198
410	4	4	0.093292996	-0.99360001	-0.65869999	64.575699
411	4	3	0.086635001	-3.4949	-0.61940002	64.544998
412	4	3	0.086635001	-3.494	1.0678999	65.172203
413	5	5	0.78733701	3.5214	0.34189999	63.5742
414	5	6	-0.57653999	4.4102001	-0.29629999	62.952099
415	5	5	-0.31001401	2.1545999	-0.19490001	63.701199
416	5	5	-0.113425	1.2177	0.5	64.368301
417	5	7	0.205429	1.4526	1.4567	64.817398
418	5	5	-0.070676997	-0.1548	-0.032400001	64.500504
419	5	7	0.187793	-0.89039999	0.54970002	65.043999
420	5	5	-0.37214801	-0.48190001	-1.2168	63.9561
421	5	5	0.57739002	-1.852	-1.7398	64.092598
422	5	6	-0.617428	-2.1745	-2.8474	63.587898
423	5	5	-0.070676997	0.55220002	-1.9852	63.218601
424	5	7	0.187793	0.30899999	-2.9414999	62.773102
425	5	5	-0.113425	1.7962	-1.5037	63.099201
426	5	7	0.205429	2.5374	-2.0781	62.5578
427	1	1	-0.166511	-2.5085001	1.7448	63.311199
428	1	2	0.036194999	-2.7414	2.3072	62.047798
429	1	2	-0.144453	-1.6391	1.8881	61.071499
430	1	2	-0.138291	-1.8638	2.5116999	59.6852
431	1	2	-0.14072201	-0.70910001	2.2221999	58.714802
432	1	2	-0.139448	-0.65439999	0.74589998	58.285599
433	1	2	-0.139448	0.33809999	0.4964	57.135799
434	1	2	-0.14072201	1.8048	0.85860002	57.450199
435	1	2	-0.134206	2.3943999	0.1653	58.691601
436	1	2	-0.16637699	2.4071	-1.3669	58.568802
437	1	2	0.089523003	3.1719999	-2.0256	59.720699
438	1	8	-0.67999101	2.4991	-1.8351001	60.9366
439	1	9	0.38500699	2.8427999	-0.98909998	61.326302
440	1	3	0.077909999	4.2157001	-1.6363	59.771198
441	1	3	0.077909999	3.2360001	-3.1168001	59.524601
442	1	4	0.095648997	1.3679	-1.7581	58.563599
443	1	4	0.095648997	2.8938999	-1.6553	57.6115
444	1	4	0.088203996	3.4398	0.52469999	58.813
445	1	4	0.088203996	1.8381	0.47420001	59.601101
446	1	4	0.086240999	1.8922	1.9583	57.5802
447	1	4	0.086240999	2.4261999	0.597	56.566299
448	1	4	0.086240999	0.27869999	-0.57120001	56.8363
449	1	4	0.086240999	0.015699999	1.0874	56.250801
450	1	4	0.086240999	-1.6615	0.4341	57.933899
451	1	4	0.086240999	-0.3962	0.098899998	59.1488
452	1	4	0.086240999	-0.85210001	2.8547001	57.811501
453	1	4	0.086240999	0.25060001	2.5204	59.1894
454	1	4	0.088203996	-2.8210001	2.1424	59.254799
455	1	4	0.088203996	-1.9487	3.6148	59.7967
456	1	4	0.093292996	-1.6387	0.7809	60.990799
457	1	4	0.093292996	-0.65579998	2.2154	61.474701
458	1	3	0.086635001	-2.7456	3.4135001	62.1521
459	1	3	0.086635001	-3.7388	1.993	61.6642
460	2	5	0.57739002	-2.6017001	-1.1724	64.632401
461	2	6	-0.617428	-3.7079999	-0.9418	64.076698
462	2	5	-0.37214801	-2.3229001	-0.68229997	65.992798
463	2	5	-0.070676997	-1.1381	-0.93690002	66.570999
464	2	7	0.187793	-0.3757	-1.5024	66.047897
465	2	5	-0.11097	-0.85049999	-0.4492	67.936203
466	2	7	0.205429	0.1164	-0.67269999	68.3713
467	2	5	-0.29916599	-1.7721	0.25749999	68.6185
468	2	5	0.82519799	-1.5001	0.75300002	69.986
469	2	6	-0.55494702	-0.39309999	0.52289999	70.544601
470	2	8	-0.67992002	-2.4709001	1.4799	70.669098
471	2	9	0.396447	-2.2988	1.8257999	71.605202
472	2	5	-0.11097	-3.0816	0.5377	67.977501
473	2	7	0.205429	-3.8394001	1.1036	68.505997
474	2	5	-0.070676997	-3.3412001	0.095799997	66.741501
475	2	7	0.187793	-4.3027	0.31119999	66.292397
476	4	1	-0.166511	2.4784	17.7843	0.2218
477	4	2	0.036194999	2.2543001	17.589001	-1.1477
478	4	2	-0.144453	0.91600001	16.8776	-1.3688
479	4	2	-0.138291	0.66060001	16.634501	-2.8636
480	4	2	-0.14072201	-0.60769999	15.8061	-3.1182001
481	4	2	-0.139448	-1.8954999	16.585199	-2.7990999
482	4	2	-0.139448	-3.1652999	15.8578	-3.2763
483	4	2	-0.140772	-3.3943	14.4672	-2.6498001
484	4	2	-0.13956299	-3.4326	14.4445	-1.1111
485	4	2	-0.139011	-4.5662999	15.3057	-0.53070003
486	4	2	0.13922299	-4.7101998	15.1158	0.98220003
487	4	1	-0.50694197	-3.5864999	15.6184	1.6549
488	4	3	0.078734003	-4.8818002	14.0417	1.2279
489	4	3	0.078734003	-5.6030998	15.6789	1.3257999
490	4	4	0.092173003	-4.3740001	16.3799	-0.7367
491	4	4	0.092173003	-5.5268998	15.0252	-1.0141
492	4	4	0.088026002	-3.5848999	13.3898	-0.79339999
493	4	4	0.088026002	-2.4535	14.7685	-0.70029998
494	4	4	0.086240999	-2.6017001	13.7721	-2.997
495	4	4	0.086240999	-4.355	14.0632	-3.0366001
496	4	4	0.086240999	-4.0453	16.503201	-3.0715001
497	4	4	0.086240999	-3.1156001	15.7389	-4.381
498	4	4	0.086240999	-1.8582	17.570101	-3.3134999
499	4	4	0.086240999	-1.9679	16.788401	-1.7111
500	4	4	0.086240999	-0.62029999	15.5147	-4.191
501	4	4	0.086240999	-0.56330001	14.8745	-2.5142
502	4	4	0.088203996	0.59069997	17.6064	-3.3996
503	4	4	0.088203996	1.5244	16.077	-3.2904
504	4	4	0.093292996	0.1057	17.507	-0.94580001
505	4	4	0.093292996	0.92930001	15.9064	-0.82779998
506	4	3	0.086635001	3.0781	16.962999	-1.5525
507	4	3	0.086635001	2.2671001	18.564501	-1.6842
508	5	5	0.78733701	-2.9063001	14.8388	1.729
509	5	6	-0.57653999	-3.2165	13.8217	2.4024
510	5	5	-0.31001401	-1.5987	14.929	1.0549999
511	5	5	-0.113425	-1.2835	16.0226	0.3405
512	5	7	0.205429	-1.9807	16.846201	0.2518
513	5	5	-0.070676997	0.0255	16.119699	-0.3389
514	5	7	0.187793	0.25299999	17.0138	-0.90829998
515	5	5	-0.37214801	0.91530001	15.1165	-0.2507
516	5	5	0.57739002	2.2176001	15.2217	-0.93089998
517	5	6	-0.617428	3.0623	14.2909	-0.85750002
518	5	5	-0.070676997	0.56849998	13.908	0.53850001
519	5	7	0.187793	1.2714	13.0887	0.62159997
520	5	5	-0.113425	-0.6178	13.819	1.1537
521	5	7	0.205429	-0.85350001	12.9299	1.725
522	1	1	-0.166511	1.9045	18.5452	0.49770001
523	1	2	0.036194999	2.3989	18.994499	1.7307
524	1	2	-0.144453	1.9669	18.0446	2.8510001
525	1	2	-0.138291	2.4807	18.530899	4.2150998
526	1	2	-0.14072201	1.9577	17.6775	5.3800001
527	1	2	-0.139448	2.5738001	16.268	5.4025998
528	1	2	-0.139448	2.2455001	15.4952	6.6928
529	1	2	-0.14072201	0.74169999	15.2602	6.9473
530	1	2	-0.134206	-0.0066999998	14.5438	5.809
531	1	2	-0.16637699	0.54699999	13.1384	5.5236001
532	1	2	0.089523003	-0.32960001	12.3705	4.5297999
533	1	8	-0.67999101	-0.2814	12.9671	3.2613001
534	1	9	0.38500699	-1.012	13.6387	3.2309999
535	1	3	0.077909999	-1.3777	12.3009	4.9039998
536	1	3	0.077909999	0.059099998	11.3338	4.4428
537	1	4	0.095648997	1.5745	13.2099	5.1087999
538	1	4	0.095648997	0.5927	12.5612	6.473
539	1	4	0.088203996	-1.0733	14.4552	6.1110001
540	1	4	0.088203996	0.0186	15.1621	4.8875999
541	1	4	0.086240999	0.24529999	16.2344	7.1433001
542	1	4	0.086240999	0.63459998	14.661	7.8776002
543	1	4	0.086240999	2.7718	14.5178	6.6689
544	1	4	0.086240999	2.6622	16.053301	7.5595999
545	1	4	0.086240999	3.6796	16.3557	5.3357
546	1	4	0.086240999	2.2395999	15.6829	4.5215001
547	1	4	0.086240999	2.2132001	18.1973	6.3291001
548	1	4	0.086240999	0.85009998	17.6119	5.3165002
549	1	4	0.088203996	3.5933001	18.536501	4.2203002
550	1	4	0.088203996	2.1384001	19.5765	4.3762999
551	1	4	0.093292996	2.3715	17.033701	2.6347001
552	1	4	0.093292996	0.85659999	17.987	2.8677001
553	1	3	0.086635001	1.9888	20.009001	1.9239
554	1	3	0.086635001	3.5093999	19.072201	1.6952
555	2	5	0.57739002	2.4635999	16.1078	-1.5051
556	2	6	-0.617428	3.5497999	16.701599	-1.2733001
557	2	5	-0.37214801	1.5371	16.603001	-2.5369999
558	2	5	-0.070676997	0.3829	15.9582	-2.7716
559	2	7	0.187793	0.1189	15.0706	-2.2083001
560	2	5	-0.11097	-0.55220002	16.4482	-3.8059001
561	2	7	0.205429	-1.4748	15.9032	-3.9677999
562	2	5	-0.29916599	-0.26010001	17.548	-4.5265002
563	2	5	0.82519799	-1.1853	18.0518	-5.5655999
564	2	6	-0.55494702	-2.2734001	17.4585	-5.7995
565	2	8	-0.67992002	-0.8581	19.190201	-6.2965999
566	2	9	0.396447	-1.4815	19.546801	-7.0105
567	2	5	-0.11097	1.0167	18.259399	-4.2656999
568	2	7	0.205429	1.2745	19.146099	-4.8323998
569	2	5	-0.070676997	1.8628	17.8151	-3.3292
570	2	7	0.187793	2.7887001	18.3489	-3.1549001
571	4	1	-0.166511	2.4138999	16.305901	17.8682
572	4	2	0.036194999	1.6811	15.2073	18.337299
573	4	2	-0.144453	0.53939998	14.8806	17.3699
574	4	2	-0.138291	-0.29010001	13.6916	17.8766
575	4	2	-0.14072201	-1.523	13.4172	17.0023
576	4	2	-0.139448	-1.1523	12.8532	15.6196
577	4	2	-0.139448	-2.3766999	12.351	14.8336
578	4	2	-0.140772	-3.4447	13.4232	14.5358
579	4	2	-0.13956299	-2.9287	14.6665	13.789
580	4	2	-0.139011	-2.3425	14.331	12.4079
581	4	2	0.13922299	-2.0167	15.5934	11.6042
582	4	1	-0.50694197	-0.96719998	16.306299	12.2028
583	4	3	0.078734003	-2.9247	16.2304	11.4896
584	4	3	0.078734003	-1.6961	15.2908	10.5853
585	4	4	0.092173003	-1.4133	13.7336	12.522
586	4	4	0.092173003	-3.0764999	13.7266	11.8326
587	4	4	0.088026002	-3.7878001	15.3597	13.6551
588	4	4	0.088026002	-2.1765001	15.1984	14.4082
589	4	4	0.086240999	-3.915	13.7484	15.4871
590	4	4	0.086240999	-4.2522998	12.9543	13.9327
591	4	4	0.086240999	-2.0294001	11.9024	13.8792
592	4	4	0.086240999	-2.8580999	11.5293	15.408
593	4	4	0.086240999	-0.4623	11.992	15.7544
594	4	4	0.086240999	-0.61080003	13.6142	15.0215
595	4	4	0.086240999	-2.1643	12.6791	17.5315
596	4	4	0.086240999	-2.1076	14.3554	16.8899