Title

257 atoms
274 bonds
465 angles
717 dihedrals
324 impropers

11 atom types
15 bond types
9 angle types
21 dihedral types
3 improper types
-19.02799988 80.97200012 xlo xhi
-17.54100037 82.45899963 ylo yhi
-10.82900047 89.17099953 zlo zhi
0.0 0.0 0.0 xy xz yz

Masses

1	14.00672
2	12.01078
3	1.007947
4	15.99943
5	12.01078
6	1.007947
7	1.007947
8	18.998403
9	15.99943
10	15.99943
11	1.007947


Pair Coeffs

1	0.16769152	3.206876
2	0.086879315	3.4806469
3	0.015611343	2.5725815
4	0.16846514	3.0251065
5	0.10884061	3.3795318
6	0.015779483	2.6445434
7	0.014090815	1.1034277
8	0.061	3.1181455
9	0.2102061	3.0398122
10	0.20947353	2.99716
11	1.2326e-05	0.53453923

Bond Coeffs

1 harmonic	390.03554688505	1.390160554689
2 harmonic	505.144496193	1.019481865027
3 harmonic	422.7150220147	1.421786517481
4 harmonic	360.7852444772	1.387193227181
5 harmonic	397.2545789619	1.085358495916
6 harmonic	279.1350963404	1.454628925034
7 harmonic	425.69104206635	1.362945806494
8 harmonic	289.73813263395	1.498646816465
9 harmonic	264.62148576755	1.52190126495
10 harmonic	370.04670688625	1.093899492634
11 harmonic	492.76746816345	1.381897776683
12 harmonic	340.45121009905	1.358690858053
13 harmonic	582.698766451	1.225198386222
14 harmonic	385.7604595587	1.369745182308
15 harmonic	543.5267831885	0.9716763312559


Angle Coeffs

1 harmonic	57.8982893754	126.8062420451
2 harmonic	55.42182150775	117.3465570514
3 harmonic	63.44422595415	115.5071327674
4 harmonic	34.066775159195	129.1835929926
5 harmonic	65.09061609600001	110.3538806181
6 harmonic	53.20531626545	116.5475862634
7 harmonic	14.32262199324	138.3184368373
8 harmonic	48.776492647595	115.6030999533
9 harmonic	201.41175231035	127.4691416191


Dihedral Coeffs

1 fourier 1	3.661930099076	2	180
2 fourier 1	1.193093382682	2	180
3 fourier 1	0.02021088501612	1	0
4 fourier 1	1.163235555439	2	180
5 fourier 1	1.532232714475	2	180
6 fourier 1	0.02664938770063	3	0
7 fourier 1	0.1155372516788	3	0
8 fourier 1	0.09223874044423	3	0
9 fourier 1	0.3159935921949	2	180
10 fourier 1	0.3247796806857	1	180
11 fourier 1	0.1040663847541	3	0
12 fourier 1	3.101948770557	2	180
13 fourier 1	-0.4252153282372	1	0
14 fourier 1	1.809047390003	2	180
15 fourier 1	-0.04816277792592	1	0
16 fourier 1	0.9974165607242	2	180
17 fourier 1	2.348375642009	2	180
18 fourier 1	1.256156174911	1	0
19 fourier 1	2.687457892086	2	180
20 fourier 1	2.772607909663	2	180
21 fourier 1	0.09692684957115	1	0


Improper Coeffs

1 0.3666666666666667	-1	2
2 0.3333333333333333	-1	2
3 3.5	-1	2


Atoms

1	1	1	-0.41166899	11.7	-4.5539999	0.44800001
2	1	2	0.12722699	10.391	-4.0219998	0.66500002
3	1	2	-0.40614501	10.143	-2.7179999	0.46799999
4	1	3	0.222076	10.931	-2.05	0.142
5	1	2	-0.113368	8.7860003	-2.174	0.68900001
6	1	3	0.204291	8.6160002	-1.122	0.49599999
7	1	2	-0.127535	7.783	-2.9790001	1.089
8	1	2	-0.133783	6.415	-2.441	1.303
9	1	2	-0.128408	5.335	-3.1589999	0.94599998
10	1	3	0.20757399	5.4400001	-4.1339998	0.48300001
11	1	2	-0.29525799	3.98	-2.612	1.1289999
12	1	3	0.224805	3.1270001	-3.1900001	0.79799998
13	1	2	0.329925	3.8039999	-1.393	1.655
14	1	4	-0.27121201	2.506	-0.88499999	1.7589999
15	1	2	0.26585901	2.0109999	0.142	0.94800001
16	1	2	-0.27924299	0.85699999	0.72799999	1.281
17	1	3	0.231692	0.32600001	0.41600001	2.1730001
18	1	2	-0.14882401	0.29899999	1.812	0.449
19	1	3	0.21731099	-0.62	2.2809999	0.778
20	1	2	-0.25622401	0.91500002	2.2079999	-0.68900001
21	1	5	0.019377001	0.32800001	3.3599999	-1.523
22	1	5	-0.131551	0.93900001	3.4619999	-2.9400001
23	1	6	0.08766	0.86900002	2.487	-3.4690001
24	1	6	0.08766	2.0039999	3.7709999	-2.8889999
25	1	6	0.08766	0.40200001	4.224	-3.5439999
26	1	2	-0.107642	-1.156	3.2090001	-1.666
27	1	2	-0.125007	-1.814	2.1619999	-2.184
28	1	3	0.216847	-1.276	1.307	-2.573
29	1	2	0.235017	-3.2950001	2.1659999	-2.164
30	1	4	-0.28003499	-3.987	1.059	-2.6630001
31	1	2	0.333823	-4.777	0.19599999	-1.883
32	1	2	-0.29525799	-4.7270002	0.213	-0.537
33	1	3	0.224805	-4.0799999	0.90200001	-0.0099999998
34	1	2	-0.128408	-5.5050001	-0.755	0.257
35	1	3	0.20757399	-5.4029999	-0.73400003	1.334
36	1	2	-0.133783	-6.2789998	-1.6720001	-0.35100001
37	1	2	-0.127535	-7.0180001	-2.6960001	0.43200001
38	1	2	-0.127416	-7.6209998	-2.3889999	1.599
39	1	3	0.204291	-7.6030002	-1.3789999	1.988
40	1	2	-0.37416899	-8.3459997	-3.425	2.365
41	1	3	0.21851601	-8.8149996	-3.155	3.3039999
42	1	2	0.19946	-8.4169998	-4.6820002	1.903
43	1	1	-0.530442	-9.1190004	-5.6869998	2.6389999
44	1	7	0.31977499	-9.1759996	-6.664	2.277
45	1	2	-0.37416899	-7.7610002	-5.027	0.62199998
46	1	3	0.21851601	-7.8070002	-6.0409999	0.245
47	1	2	-0.127416	-7.1030002	-4.092	-0.071999997
48	1	3	0.204291	-6.6139998	-4.3709998	-0.99699998
49	1	2	-0.055813	-6.3530002	-1.6799999	-1.834
50	1	3	0.206597	-6.9949999	-2.405	-2.316
51	1	2	-0.321435	-5.6529999	-0.79299998	-2.5699999
52	1	5	0.76696098	-5.7179999	-0.796	-4.0809999
53	1	8	-0.207032	-4.4790001	-1.1390001	-4.5890002
54	1	8	-0.207032	-6.0580001	0.46599999	-4.5310001
55	1	8	-0.207032	-6.6550002	-1.6950001	-4.5619998
56	1	2	-0.285254	-3.9579999	3.23	-1.666
57	1	3	0.220043	-5.0409999	3.2420001	-1.655
58	1	2	0.012826	-3.2079999	4.3909998	-1.128
59	1	3	0.214837	-3.7420001	5.2459998	-0.73500001
60	1	2	-0.19690999	-1.865	4.3499999	-1.13
61	1	5	-0.02087	-0.91799998	5.3920002	-0.625
62	1	5	-0.13114201	-1.008	6.6550002	-1.5
63	1	6	0.091894001	-0.266	7.4109998	-1.163
64	1	6	0.091894001	-2.0220001	7.1059999	-1.437
65	1	6	0.091894001	-0.796	6.408	-2.5639999
66	1	5	-0.13114201	-1.217	5.7399998	0.84600002
67	1	6	0.091894001	-2.211	6.2249999	0.94300002
68	1	6	0.091894001	-1.2130001	4.823	1.475
69	1	6	0.091894001	-0.44999999	6.441	1.239
70	1	5	-0.18120299	0.48699999	4.7199998	-0.76599997
71	1	6	0.130119	1.207	5.3920002	-1.285
72	1	6	0.130119	0.93800002	4.553	0.23999999
73	1	2	-0.14882401	2.2119999	1.557	-1.046
74	1	3	0.21731099	2.7650001	1.852	-1.928
75	1	2	-0.27924299	2.7219999	0.58600003	-0.278
76	1	3	0.231692	3.658	0.123	-0.56699997
77	1	2	-0.321435	4.9819999	-0.60399997	2.122
78	1	5	0.76696098	4.8000002	0.75300002	2.767
79	1	8	-0.207032	3.648	0.773	3.5339999
80	1	8	-0.207032	4.7049999	1.721	1.784
81	1	8	-0.207032	5.8660002	1.0599999	3.5940001
82	1	2	-0.055813	6.2189999	-1.1	1.9170001
83	1	3	0.206597	7.0910001	-0.53500003	2.227
84	1	2	-0.113368	8.0679998	-4.4229999	1.311
85	1	3	0.204291	7.2870002	-5.0900002	1.653
86	1	2	-0.40614501	9.2959995	-4.9120002	1.109
87	1	3	0.222076	9.4919996	-5.9629998	1.2819999
88	1	7	0.37314901	12.491	-3.9400001	0.15000001
89	1	2	0.75675398	-9.5889997	-5.4629998	3.5639999
90	1	9	-0.66808701	-8.948	-5.6999998	4.6230001
91	1	2	-0.28425601	-10.948	-4.8709998	3.608
92	1	2	-0.107963	-11.398	-4.3410001	4.7579999
93	1	3	0.218183	-10.795	-4.3610001	5.6570001
94	1	2	-0.27741301	-12.708	-3.675	4.8260002
95	1	3	0.2111	-13.005	-3.2460001	5.7750001
96	1	2	-0.043882001	-13.514	-3.5929999	3.7460001
97	1	5	-0.27202401	-14.863	-2.8340001	3.8529999
98	1	2	-0.058927	-15.607	-3.312	5.125
99	1	2	-0.27405301	-16.315001	-2.484	5.921
100	1	3	0.2111	-16.375	-1.423	5.7379999
101	1	2	-0.089855999	-17.016001	-2.99	7.1139998
102	1	3	0.227474	-17.489	-2.2690001	7.77
103	1	2	-0.172664	-17.004999	-4.2979999	7.4219999
104	1	2	0.80206603	-17.584	-4.7259998	8.7159996
105	1	9	-0.49035501	-17.101999	-5.711	9.3369999
106	1	10	-0.66528398	-18.635	-4.0100002	9.283
107	1	11	0.41812399	-19.028	-4.2820001	10.176
108	1	2	-0.170157	-16.334	-5.256	6.4860001
109	1	2	0.802876	-16.462	-6.724	6.6329999
110	1	9	-0.49035501	-17.502001	-7.2290001	7.1329999
111	1	10	-0.66528398	-15.45	-7.5630002	6.1719999
112	1	11	0.41812399	-15.532	-8.5699997	6.25
113	1	2	-0.051686998	-15.662	-4.7729998	5.4239998
114	1	3	0.222426	-15.191	-5.461	4.7319999
115	1	5	0.75313598	-14.514	-1.3049999	3.8729999
116	1	8	-0.20072	-13.622	-1	2.8559999
117	1	8	-0.20072	-13.923	-0.949	5.0749998
118	1	8	-0.20072	-15.64	-0.51999998	3.687
119	1	5	0.75313598	-15.82	-3.118	2.648
120	1	8	-0.20072	-17.082001	-2.605	2.901
121	1	8	-0.20072	-15.955	-4.48	2.4349999
122	1	8	-0.20072	-15.357	-2.529	1.483
123	1	2	-0.013437	-13.012	-4.1760001	2.4660001
124	1	3	0.211953	-13.626	-4.132	1.582
125	1	2	-0.248611	-11.816	-4.7989998	2.3889999
126	1	2	0.58001202	-11.407	-5.4349999	1.112
127	1	9	-0.539002	-12.018	-5.1919999	0.037
128	1	1	-0.41166899	11.882	-5.5760002	0.57800001
129	1	2	0.12722699	12.098	-6.1079998	1.888
130	1	2	-0.40614501	12.365	-7.4120002	2.0580001
131	1	3	0.222076	12.42	-8.0799999	1.207
132	1	2	-0.113368	12.593	-7.9559999	3.414
133	1	3	0.204291	12.831	-9.0080004	3.513
134	1	2	-0.127535	12.538	-7.151	4.493
135	1	2	-0.133783	12.777	-7.6890001	5.8559999
136	1	2	-0.128408	13.463	-6.9710002	6.763
137	1	3	0.20757399	13.867	-5.9959998	6.5149999
138	1	2	-0.29525799	13.726	-7.5180001	8.1049995
139	1	3	0.224805	14.314	-6.9400001	8.8059998
140	1	2	0.329925	13.286	-8.7370005	8.4420004
141	1	4	-0.27121201	13.605	-9.2449999	9.7040005
142	1	2	0.26585901	14.533	-10.272	9.9099998
143	1	2	-0.27924299	14.59	-10.858	11.111
144	1	3	0.231692	13.917	-10.546	11.901
145	1	2	-0.14882401	15.557	-11.941	11.37
146	1	3	0.21731099	15.542	-12.411	12.346
147	1	2	-0.25622401	16.436001	-12.338	10.42
148	1	5	0.019377001	17.415001	-13.49	10.707
149	1	5	-0.131551	18.558001	-13.592	9.6719999
150	1	6	0.08766	19.082001	-12.616	9.5670004
151	1	6	0.08766	18.167	-13.901	8.6800003
152	1	6	0.08766	19.302999	-14.354	9.9849997
153	1	2	-0.107642	18.028	-13.339	12.065
154	1	2	-0.125007	18.731001	-12.292	12.521
155	1	3	0.216847	18.924999	-11.436	11.886
156	1	2	0.235017	19.188999	-12.296	13.929
157	1	4	-0.28003499	19.885	-11.189	14.424
158	1	2	0.333823	19.400999	-10.326	15.423
159	1	2	-0.29525799	18.111	-10.343	15.81
160	1	3	0.224805	17.403999	-11.032	15.367
161	1	2	-0.128408	17.610001	-9.375	16.802
162	1	3	0.20757399	16.558001	-9.3950005	17.052999
163	1	2	-0.133783	18.434999	-8.4580002	17.339001
164	1	2	-0.127535	17.931999	-7.4330001	18.291
165	1	2	-0.076687001	17.021999	-7.7399998	19.238001
166	1	3	0.204291	16.648001	-8.7510004	19.346001
167	1	2	-0.45031199	16.530001	-6.7049999	20.171
168	1	3	0.230625	15.793	-6.9749999	20.917999
169	1	2	0.319132	16.990999	-5.447	20.089001
170	1	1	-0.844423	16.521	-4.4429998	20.990999
171	1	7	0.366896	15.809	-4.6630001	21.722
172	1	7	0.366896	16.882	-3.4660001	20.927999
173	1	2	-0.45031199	17.992001	-5.1020002	19.056
174	1	3	0.230625	18.364	-4.0879998	18.976999
175	1	2	-0.076687001	18.437	-6.0370002	18.209
176	1	3	0.204291	19.155001	-5.7589998	17.447001
177	1	2	-0.055813	19.863001	-8.4499998	16.93
178	1	3	0.206597	20.525999	-7.7249999	17.382999
179	1	2	-0.321435	20.334	-9.3369999	16.031
180	1	5	0.76696098	21.785	-9.3339996	15.605
181	1	8	-0.207032	21.867001	-8.9910002	14.268
182	1	8	-0.207032	22.320999	-10.596	15.782
183	1	8	-0.207032	22.542	-8.4350004	16.337
184	1	2	-0.285254	18.931999	-13.36	14.718
185	1	3	0.220043	19.271	-13.371	15.747
186	1	2	0.012826	18.18	-14.521	14.181
187	1	3	0.214837	17.981001	-15.376	14.814
188	1	2	-0.19690999	17.749001	-14.48	12.91
189	1	5	-0.02087	16.966	-15.522	12.176
190	1	5	-0.13114201	17.823999	-16.784	11.978
191	1	6	0.091894001	17.264999	-17.541	11.386
192	1	6	0.091894001	18.09	-17.235001	12.959
193	1	6	0.091894001	18.761999	-16.538	11.436
194	1	5	-0.13114201	15.67	-15.87	12.934
195	1	6	0.091894001	15.899	-16.354	13.906
196	1	6	0.091894001	15.073	-14.953	13.132
197	1	6	0.091894001	15.051	-16.57	12.335
198	1	5	-0.18120299	16.646	-14.85	10.8
199	1	6	0.130119	16.906	-15.522	9.9519997
200	1	6	0.130119	15.549	-14.683	10.698
201	1	2	-0.14882401	16.355	-11.687	9.0780001
202	1	3	0.21731099	17.011999	-11.982	8.2700005
203	1	2	-0.27924299	15.464	-10.716	8.842
204	1	3	0.231692	15.436	-10.253	7.8639998
205	1	2	-0.321435	12.463	-9.526	7.4759998
206	1	5	0.76696098	11.912	-10.883	7.8569999
207	1	8	-0.207032	11.556	-10.903	9.1949997
208	1	8	-0.207032	12.873	-11.851	7.6300001
209	1	8	-0.207032	10.785	-11.19	7.1149998
210	1	2	-0.055813	12.258	-9.0299997	6.2399998
211	1	3	0.206597	11.683	-9.5950003	5.5139999
212	1	2	-0.113368	12.236	-5.7069998	4.2950001
213	1	3	0.204291	12.163	-5.04	5.1440001
214	1	2	-0.40614501	12.031	-5.2179999	3.066
215	1	3	0.222076	11.804	-4.1669998	2.937
216	1	7	0.37314901	11.908	-6.1900001	-0.26699999
217	1	2	0.58148098	-10.583	-6.1329999	1.077
218	1	9	-0.539002	-10.165	-6.6160002	2.1630001
219	1	2	-0.28257799	-9.9840002	-6.526	-0.219
220	1	2	-0.047536999	-9.2080002	-7.6230001	-0.28600001
221	1	3	0.214229	-8.9709997	-8.1929998	0.60299999
222	1	2	-0.271153	-8.7080002	-8.1230001	-1.579
223	1	3	0.2111	-8.0819998	-8.9989996	-1.55
224	1	2	-0.058927	-9.0500002	-7.5209999	-2.7379999
225	1	5	-0.27202401	-8.5389996	-7.9949999	-4.1230001
226	1	2	-0.058927	-9.6969995	-7.8800001	-5.1479998
227	1	2	-0.27405301	-10.915	-8.3739996	-4.8379998
228	1	3	0.2111	-11.105	-8.8190002	-3.8699999
229	1	2	-0.089855999	-12.042	-8.2790003	-5.7789998
230	1	3	0.227474	-13.018	-8.6049995	-5.4390001
231	1	2	-0.172664	-11.883	-7.73	-6.994
232	1	2	0.80206603	-13.082	-7.506	-7.8340001
233	1	9	-0.49035501	-13.133	-6.5279999	-8.6280003
234	1	10	-0.66528398	-14.185	-8.3479996	-7.7179999
235	1	11	0.41812399	-15.018	-8.1949997	-8.2749996
236	1	2	-0.170157	-10.516	-7.289	-7.415
237	1	2	0.802876	-10.223	-6.8889999	-8.8120003
238	1	9	-0.49035501	-9.3260002	-6.0370002	-9.0539999
239	1	10	-0.66528398	-10.905	-7.4829998	-9.8699999
240	1	11	0.41812399	-10.703	-7.2259998	-10.829
241	1	2	-0.051686998	-9.5019999	-7.3439999	-6.5279999
242	1	3	0.222426	-8.5179996	-7.046	-6.855
243	1	5	0.75313598	-7.3189998	-7.079	-4.4790001
244	1	8	-0.20072	-6.4349999	-7.0170002	-3.414
245	1	8	-0.20072	-7.7360001	-5.7880001	-4.757
246	1	8	-0.20072	-6.6199999	-7.566	-5.5710001
247	1	5	0.75313598	-8.073	-9.4919996	-4.1370001
248	1	8	-0.20072	-9.0229998	-10.31	-3.55
249	1	8	-0.20072	-7.8860002	-9.9259996	-5.4400001
250	1	8	-0.20072	-6.8709998	-9.658	-3.467
251	1	2	-0.040800001	-9.8579998	-6.2690001	-2.655
252	1	3	0.222426	-10.062	-5.723	-3.5680001
253	1	2	-0.113514	-10.289	-5.777	-1.478
254	1	2	0.81496501	-10.995	-4.4749999	-1.4630001
255	1	9	-0.49035501	-11.728	-4.1389999	-2.4330001
256	1	10	-0.66528398	-10.819	-3.589	-0.403
257	1	11	0.41812399	-11.287	-2.691	-0.39300001

Bonds

1	1	1	2
2	2	1	88
3	3	1	128
4	4	2	3
5	4	2	86
6	5	3	4
7	4	3	5
8	5	5	6
9	4	5	7
10	6	7	8
11	4	7	84
12	4	8	9
13	4	8	82
14	5	9	10
15	4	9	11
16	5	11	12
17	4	11	13
18	7	13	14
19	4	13	77
20	7	14	15
21	4	15	16
22	4	15	75
23	5	16	17
24	4	16	18
25	5	18	19
26	4	18	20
27	8	20	21
28	4	20	73
29	9	21	22
30	8	21	26
31	9	21	70
32	10	22	23
33	10	22	24
34	10	22	25
35	4	26	27
36	4	26	60
37	5	27	28
38	4	27	29
39	7	29	30
40	4	29	56
41	7	30	31
42	4	31	32
43	4	31	51
44	5	32	33
45	4	32	34
46	5	34	35
47	4	34	36
48	6	36	37
49	4	36	49
50	4	37	38
51	4	37	47
52	5	38	39
53	4	38	40
54	5	40	41
55	4	40	42
56	1	42	43
57	4	42	45
58	2	43	44
59	11	43	89
60	5	45	46
61	4	45	47
62	5	47	48
63	5	49	50
64	4	49	51
65	8	51	52
66	12	52	53
67	12	52	54
68	12	52	55
69	5	56	57
70	4	56	58
71	5	58	59
72	4	58	60
73	8	60	61
74	9	61	62
75	9	61	66
76	9	61	70
77	10	62	63
78	10	62	64
79	10	62	65
80	10	66	67
81	10	66	68
82	10	66	69
83	10	70	71
84	10	70	72
85	5	73	74
86	4	73	75
87	5	75	76
88	8	77	78
89	4	77	82
90	12	78	79
91	12	78	80
92	12	78	81
93	5	82	83
94	5	84	85
95	4	84	86
96	5	86	87
97	13	89	90
98	6	89	91
99	4	91	92
100	4	91	125
101	5	92	93
102	4	92	94
103	5	94	95
104	4	94	96
105	8	96	97
106	4	96	123
107	8	97	98
108	9	97	115
109	9	97	119
110	4	98	99
111	4	98	113
112	5	99	100
113	4	99	101
114	5	101	102
115	4	101	103
116	6	103	104
117	4	103	108
118	13	104	105
119	14	104	106
120	15	106	107
121	6	108	109
122	4	108	113
123	13	109	110
124	14	109	111
125	15	111	112
126	5	113	114
127	12	115	116
128	12	115	117
129	12	115	118
130	12	119	120
131	12	119	121
132	12	119	122
133	5	123	124
134	4	123	125
135	6	125	126
136	13	126	127
137	6	126	217
138	1	128	129
139	2	128	216
140	4	129	130
141	4	129	214
142	5	130	131
143	4	130	132
144	5	132	133
145	4	132	134
146	6	134	135
147	4	134	212
148	4	135	136
149	4	135	210
150	5	136	137
151	4	136	138
152	5	138	139
153	4	138	140
154	7	140	141
155	4	140	205
156	7	141	142
157	4	142	143
158	4	142	203
159	5	143	144
160	4	143	145
161	5	145	146
162	4	145	147
163	8	147	148
164	4	147	201
165	9	148	149
166	8	148	153
167	9	148	198
168	10	149	150
169	10	149	151
170	10	149	152
171	4	153	154
172	4	153	188
173	5	154	155
174	4	154	156
175	7	156	157
176	4	156	184
177	7	157	158
178	4	158	159
179	4	158	179
180	5	159	160
181	4	159	161
182	5	161	162
183	4	161	163
184	6	163	164
185	4	163	177
186	4	164	165
187	4	164	175
188	5	165	166
189	4	165	167
190	5	167	168
191	4	167	169
192	1	169	170
193	4	169	173
194	2	170	171
195	2	170	172
196	5	173	174
197	4	173	175
198	5	175	176
199	5	177	178
200	4	177	179
201	8	179	180
202	12	180	181
203	12	180	182
204	12	180	183
205	5	184	185
206	4	184	186
207	5	186	187
208	4	186	188
209	8	188	189
210	9	189	190
211	9	189	194
212	9	189	198
213	10	190	191
214	10	190	192
215	10	190	193
216	10	194	195
217	10	194	196
218	10	194	197
219	10	198	199
220	10	198	200
221	5	201	202
222	4	201	203
223	5	203	204
224	8	205	206
225	4	205	210
226	12	206	207
227	12	206	208
228	12	206	209
229	5	210	211
230	5	212	213
231	4	212	214
232	5	214	215
233	13	217	218
234	6	217	219
235	4	219	220
236	4	219	253
237	5	220	221
238	4	220	222
239	5	222	223
240	4	222	224
241	8	224	225
242	4	224	251
243	8	225	226
244	9	225	243
245	9	225	247
246	4	226	227
247	4	226	241
248	5	227	228
249	4	227	229
250	5	229	230
251	4	229	231
252	6	231	232
253	4	231	236
254	13	232	233
255	14	232	234
256	15	234	235
257	6	236	237
258	4	236	241
259	13	237	238
260	14	237	239
261	15	239	240
262	5	241	242
263	12	243	244
264	12	243	245
265	12	243	246
266	12	247	248
267	12	247	249
268	12	247	250
269	5	251	252
270	4	251	253
271	6	253	254
272	13	254	255
273	14	254	256
274	15	256	257

Angles

1	1	103	104	106
2	1	92	94	96
3	6	26	21	70
4	1	157	156	184
5	1	224	251	253
6	1	101	103	104
7	1	219	253	251
8	1	229	231	236
9	6	97	119	122
10	6	147	148	153
11	6	97	115	117
12	4	134	212	213
13	5	13	14	15
14	4	164	175	176
15	6	148	198	200
16	3	129	128	216
17	1	169	173	175
18	4	147	201	202
19	6	21	70	61
20	6	207	206	209
21	1	26	60	61
22	3	2	1	88
23	1	98	113	108
24	4	129	130	131
25	1	21	26	60
26	4	124	123	125
27	4	205	210	211
28	4	156	184	185
29	6	149	148	153
30	4	2	3	4
31	4	26	27	28
32	1	29	56	58
33	1	222	224	225
34	5	109	111	112
35	6	77	78	81
36	4	174	173	175
37	6	189	198	199
38	1	135	134	212
39	1	8	7	84
40	4	56	58	59
41	6	179	180	181
42	8	150	149	151
43	1	236	237	239
44	1	3	5	7
45	3	88	1	128
46	6	226	225	243
47	6	51	52	54
48	4	73	75	76
49	6	121	119	122
50	4	223	222	224
51	1	40	42	43
52	2	2	1	128
53	1	136	135	210
54	6	190	189	194
55	4	108	113	114
56	4	252	251	253
57	1	5	7	8
58	4	159	161	162
59	1	135	210	205
60	4	15	16	17
61	1	11	13	77
62	5	232	234	235
63	4	187	186	188
64	4	74	73	75
65	6	225	247	250
66	1	132	134	212
67	4	213	212	214
68	4	136	138	139
69	4	160	159	161
70	4	50	49	51
71	4	45	47	48
72	6	61	62	64
73	1	145	147	148
74	1	164	165	167
75	7	186	188	189
76	1	159	158	179
77	4	137	136	138
78	6	60	61	62
79	1	142	143	145
80	1	184	186	188
81	1	8	82	77
82	1	32	31	51
83	1	206	205	210
84	4	219	220	221
85	6	97	119	121
86	6	97	115	116
87	1	153	154	156
88	6	21	22	25
89	6	148	198	199
90	6	61	66	69
91	1	13	77	78
92	4	169	173	174
93	3	171	170	172
94	6	207	206	208
95	1	37	47	45
96	1	9	11	13
97	1	18	20	73
98	6	244	243	246
99	1	129	214	212
100	1	140	205	206
101	6	226	225	247
102	4	135	210	211
103	5	156	157	158
104	8	68	66	69
105	4	28	27	29
106	2	1	128	129
107	1	219	253	254
108	4	36	49	50
109	4	29	56	57
110	8	192	190	193
111	6	225	243	246
112	4	16	18	19
113	6	66	61	70
114	4	4	3	5
115	6	77	78	80
116	4	144	143	145
117	6	181	180	182
118	1	225	226	227
119	6	224	225	247
120	3	169	170	171
121	3	1	128	216
122	1	145	147	201
123	4	99	101	102
124	1	9	8	82
125	1	236	237	238
126	1	49	51	52
127	6	189	194	195
128	1	21	20	73
129	1	14	15	16
130	1	130	132	134
131	1	226	227	229
132	1	142	203	201
133	6	20	21	26
134	6	205	206	209
135	4	8	82	83
136	2	42	43	89
137	5	254	256	257
138	6	189	190	193
139	6	148	198	189
140	4	7	84	85
141	6	147	148	149
142	4	212	214	215
143	1	78	77	82
144	4	131	130	132
145	1	43	89	91
146	6	243	225	247
147	1	34	36	49
148	1	237	236	241
149	4	143	145	146
150	4	184	186	187
151	6	62	61	70
152	1	170	169	173
153	1	253	254	256
154	4	162	161	163
155	6	208	206	209
156	4	230	229	231
157	6	120	119	121
158	4	153	154	155
159	6	21	22	24
160	9	238	237	239
161	6	20	21	70
162	6	61	66	68
163	1	123	125	126
164	8	67	66	68
165	4	185	184	186
166	6	249	247	250
167	1	38	40	42
168	1	225	224	251
169	5	140	141	142
170	6	194	189	198
171	1	30	31	32
172	4	9	11	12
173	1	91	92	94
174	1	8	9	11
175	4	84	86	87
176	6	79	78	81
177	1	163	164	165
178	1	31	32	34
179	1	92	91	125
180	1	227	229	231
181	6	225	243	245
182	4	85	84	86
183	6	248	247	250
184	4	37	38	39
185	4	236	241	242
186	8	191	190	192
187	4	37	47	48
188	1	103	108	113
189	4	129	214	215
190	4	226	227	228
191	1	98	99	101
192	1	227	226	241
193	6	148	149	151
194	4	173	175	176
195	6	224	225	243
196	8	23	22	25
197	4	6	5	7
198	1	1	2	86
199	8	195	194	197
200	6	179	180	183
201	1	104	103	108
202	4	166	165	167
203	1	161	163	164
204	1	2	86	84
205	4	35	34	36
206	6	80	78	81
207	1	43	89	90
208	1	40	42	45
209	4	98	113	114
210	1	43	42	45
211	1	103	104	105
212	4	92	94	95
213	1	108	109	111
214	4	142	203	204
215	9	105	104	106
216	1	138	140	141
217	1	3	2	86
218	4	224	251	252
219	1	165	167	169
220	1	253	254	255
221	1	157	158	179
222	6	61	70	72
223	1	157	158	159
224	6	182	180	183
225	6	61	66	67
226	1	97	98	113
227	1	27	29	30
228	6	153	148	198
229	1	32	34	36
230	1	125	126	217
231	4	91	92	93
232	1	153	188	186
233	6	188	189	198
234	4	77	82	83
235	1	218	217	219
236	6	20	21	22
237	4	168	167	169
238	6	79	78	80
239	1	163	164	175
240	4	31	32	33
241	1	130	129	214
242	4	227	229	230
243	1	222	224	251
244	1	134	212	214
245	1	177	179	180
246	1	148	153	188
247	1	220	222	224
248	1	154	153	188
249	4	3	5	6
250	4	155	154	156
251	1	36	37	47
252	6	51	52	53
253	4	228	227	229
254	6	22	21	26
255	1	129	130	132
256	4	178	177	179
257	1	163	177	179
258	4	146	145	147
259	1	158	179	177
260	1	156	184	186
261	5	237	239	240
262	4	10	9	11
263	1	15	75	73
264	6	62	61	66
265	1	2	3	5
266	6	148	149	150
267	1	42	45	47
268	1	7	8	9
269	1	143	142	203
270	8	23	22	24
271	6	225	247	249
272	1	56	58	60
273	8	195	194	196
274	6	61	62	63
275	1	231	232	234
276	1	138	140	205
277	8	150	149	152
278	1	97	98	99
279	4	164	165	166
280	1	154	156	184
281	6	189	194	197
282	1	7	8	82
283	6	116	115	118
284	1	164	163	177
285	4	46	45	47
286	6	60	61	70
287	8	63	62	65
288	1	15	16	18
289	4	12	11	13
290	1	91	125	126
291	4	142	143	144
292	4	33	32	34
293	1	20	73	75
294	1	27	29	56
295	6	98	97	115
296	4	95	94	96
297	4	133	132	134
298	6	147	148	198
299	6	22	21	70
300	1	18	20	21
301	6	97	119	120
302	6	224	225	226
303	1	5	7	84
304	6	96	97	119
305	1	231	236	241
306	5	104	106	107
307	4	2	86	87
308	4	59	58	60
309	6	188	189	190
310	7	148	153	154
311	6	244	243	245
312	4	19	18	20
313	1	103	108	109
314	1	154	156	157
315	1	141	142	143
316	1	96	123	125
317	6	149	148	198
318	4	39	38	40
319	6	98	97	119
320	4	41	40	42
321	1	219	220	222
322	6	77	78	79
323	3	42	43	44
324	8	64	62	65
325	1	27	26	60
326	6	53	52	55
327	1	217	219	220
328	4	220	222	223
329	6	21	70	72
330	8	24	22	25
331	1	167	169	170
332	1	141	142	203
333	4	130	132	133
334	1	153	188	189
335	1	141	140	205
336	4	100	99	101
337	4	163	177	178
338	1	91	125	123
339	6	205	206	208
340	8	196	194	197
341	4	221	220	222
342	1	101	103	108
343	1	36	49	51
344	1	34	36	37
345	6	189	190	192
346	1	31	51	49
347	1	158	159	161
348	1	14	15	75
349	4	42	45	46
350	6	225	247	248
351	1	16	18	20
352	6	181	180	183
353	1	128	129	130
354	1	14	13	77
355	3	169	170	172
356	1	30	29	56
357	1	99	101	103
358	1	231	232	233
359	1	135	136	138
360	5	29	30	31
361	6	189	194	196
362	9	110	109	111
363	6	116	115	117
364	8	63	62	64
365	4	8	9	10
366	1	134	135	210
367	6	188	189	194
368	1	16	15	75
369	8	199	198	200
370	1	158	179	180
371	1	37	36	49
372	6	225	243	244
373	4	15	75	76
374	4	20	73	74
375	1	126	217	219
376	1	225	226	241
377	1	7	84	86
378	1	99	98	113
379	1	90	89	91
380	1	134	135	136
381	1	164	175	173
382	6	21	22	23
383	1	127	126	217
384	1	161	163	177
385	6	96	97	98
386	4	102	101	103
387	1	94	96	97
388	1	217	219	253
389	4	38	40	41
390	6	245	243	246
391	6	190	189	198
392	1	26	60	58
393	8	151	149	152
394	7	58	60	61
395	1	165	164	175
396	4	202	201	203
397	4	96	123	124
398	1	143	145	147
399	6	117	115	118
400	1	30	31	51
401	6	120	119	122
402	6	97	115	118
403	6	248	247	249
404	6	53	52	54
405	1	38	37	47
406	8	67	66	69
407	1	109	108	113
408	1	220	219	253
409	6	21	70	71
410	1	147	201	203
411	1	226	241	236
412	1	11	13	14
413	1	128	129	214
414	6	60	61	66
415	1	36	37	38
416	1	148	147	201
417	1	232	231	236
418	6	205	206	207
419	1	1	2	3
420	4	57	56	58
421	4	98	99	100
422	1	89	91	92
423	6	189	190	191
424	4	158	159	160
425	1	26	27	29
426	4	93	92	94
427	6	189	198	200
428	8	71	70	72
429	1	94	96	123
430	6	96	97	115
431	4	139	138	140
432	1	13	77	82
433	1	37	38	40
434	6	179	180	182
435	1	231	236	237
436	3	44	43	89
437	8	191	190	193
438	4	135	136	137
439	6	51	52	55
440	1	167	169	173
441	1	132	134	135
442	6	54	52	55
443	4	17	16	18
444	1	140	205	210
445	6	115	97	119
446	1	159	161	163
447	1	108	109	110
448	1	89	91	125
449	4	165	167	168
450	1	126	217	218
451	6	148	149	152
452	1	31	51	52
453	1	125	126	127
454	1	251	253	254
455	1	229	231	232
456	4	201	203	204
457	1	136	138	140
458	7	21	26	27
459	6	61	70	71
460	6	61	62	65
461	4	32	34	35
462	4	226	241	242
463	1	97	96	123
464	9	255	254	256
465	9	233	232	234

Dihedrals

1	4	34	36	37	47
2	1	1	2	86	84
3	19	103	104	106	107
4	1	39	38	40	42
5	1	9	8	82	77
6	5	156	157	158	179
7	16	126	217	219	253
8	2	167	169	170	171
9	6	226	225	224	251
10	5	156	157	158	159
11	2	40	42	43	44
12	1	133	132	134	135
13	1	131	130	132	133
14	2	45	42	43	89
15	1	129	130	132	134
16	1	227	229	231	236
17	1	30	31	51	49
18	6	94	96	97	115
19	6	153	188	189	190
20	1	135	134	212	214
21	1	37	38	40	42
22	1	8	9	11	12
23	1	164	175	173	169
24	5	142	141	140	205
25	1	228	227	229	231
26	11	68	66	61	70
27	1	134	135	210	211
28	1	12	11	13	14
29	1	16	15	75	76
30	6	145	147	148	198
31	1	166	165	167	169
32	1	99	101	103	104
33	1	232	231	236	241
34	1	128	129	130	131
35	1	185	184	186	188
36	1	14	13	77	82
37	1	129	214	212	134
38	6	227	226	225	243
39	7	153	148	198	200
40	11	190	189	194	196
41	7	60	61	62	65
42	1	157	158	159	161
43	1	138	140	205	210
44	7	147	148	149	152
45	7	147	148	198	189
46	1	3	5	7	84
47	6	188	153	148	198
48	1	37	47	45	46
49	1	228	227	226	241
50	1	92	94	96	97
51	16	101	103	104	105
52	1	19	18	20	73
53	6	60	26	21	70
54	7	98	97	119	120
55	1	159	158	179	180
56	1	36	37	47	48
57	1	21	26	27	28
58	6	31	51	52	54
59	1	91	125	123	124
60	16	105	104	103	108
61	11	193	190	189	194
62	1	29	56	58	60
63	1	34	36	49	51
64	1	97	98	99	101
65	11	191	190	189	194
66	6	22	21	26	27
67	1	2	3	5	6
68	7	96	97	119	121
69	1	26	27	29	30
70	1	148	147	201	203
71	7	96	97	115	116
72	1	43	42	45	46
73	1	100	99	101	103
74	1	230	229	231	236
75	6	247	225	224	251
76	1	89	91	92	94
77	1	40	42	45	46
78	1	137	136	138	140
79	1	252	251	253	254
80	1	163	164	165	167
81	1	135	136	138	140
82	1	165	164	175	173
83	16	103	108	109	110
84	1	20	73	75	76
85	16	127	126	217	218
86	1	17	16	18	19
87	1	1	2	3	5
88	1	134	212	214	215
89	16	43	89	91	92
90	1	4	3	5	7
91	1	16	15	75	73
92	1	27	29	56	57
93	1	94	92	91	125
94	1	141	140	205	206
95	11	23	22	21	70
96	6	222	224	225	247
97	20	233	232	234	235
97	21	233	232	234	235
98	2	44	43	42	45
99	6	140	205	206	209
100	1	157	156	184	186
101	7	224	225	247	249
102	19	231	232	234	235
103	4	132	134	135	210
104	4	9	8	7	84
105	8	22	21	70	61
105	9	22	21	70	61
105	10	22	21	70	61
106	1	92	94	96	123
107	2	86	2	1	88
108	1	165	167	169	173
109	11	195	194	189	198
110	1	91	92	94	96
111	6	186	188	189	194
112	16	43	89	91	125
113	4	47	37	36	49
114	16	123	125	126	127
115	1	143	142	203	204
116	11	65	62	61	66
117	1	135	134	212	213
118	1	158	179	177	163
119	1	40	38	37	47
120	1	160	159	161	163
121	1	131	130	129	214
122	1	228	227	229	230
123	16	238	237	236	241
124	11	62	61	66	69
125	1	36	37	47	45
126	1	145	143	142	203
127	1	146	145	147	148
128	1	9	11	13	77
129	1	144	143	145	146
130	1	185	184	186	187
131	1	10	9	11	13
132	7	20	21	22	24
133	6	158	179	180	183
134	11	190	189	198	200
135	1	221	220	222	224
136	7	60	61	66	69
137	11	190	189	194	195
138	2	3	2	1	88
139	1	225	224	251	252
140	6	198	148	147	201
141	1	157	158	159	160
142	1	229	227	226	241
143	1	16	18	20	21
144	3	88	1	128	129
145	1	37	36	49	51
146	1	74	73	75	76
147	1	30	31	51	52
148	2	86	2	1	128
149	7	147	148	149	151
150	6	26	60	61	70
151	16	106	104	103	108
152	1	142	203	201	147
153	1	101	103	108	109
154	11	151	149	148	198
155	1	155	154	153	188
156	6	115	97	96	123
157	6	149	148	153	188
158	7	98	97	115	118
159	1	26	27	29	56
160	1	33	32	34	36
161	1	225	226	241	242
162	1	102	101	103	108
163	1	167	169	173	174
164	6	241	226	225	247
165	1	29	56	58	59
166	1	34	36	49	50
167	6	49	51	52	53
168	1	145	147	201	203
169	6	149	148	147	201
170	1	21	20	73	75
171	7	243	225	247	250
172	7	96	97	119	120
173	1	225	226	227	229
174	1	148	147	201	202
175	1	158	159	161	163
176	1	154	156	184	186
177	2	3	2	1	128
178	1	100	99	101	102
179	1	10	9	8	82
180	1	32	34	36	37
181	7	150	149	148	153
182	1	11	13	77	82
183	1	89	91	92	93
184	7	115	97	119	122
185	1	227	229	231	232
186	1	163	164	165	166
187	6	177	179	180	182
188	16	91	125	126	127
189	1	103	108	113	114
190	1	143	142	203	201
191	1	141	142	203	204
192	7	224	225	243	244
193	20	105	104	106	107
193	21	105	104	106	107
194	7	147	148	198	199
195	1	99	98	113	108
196	1	202	201	203	204
197	1	184	186	188	189
198	1	93	92	94	96
199	16	251	253	254	256
200	1	4	3	5	6
201	1	146	145	147	201
202	1	155	154	156	184
203	16	231	236	237	239
204	7	226	225	243	245
205	1	2	86	84	7
206	1	7	8	9	10
207	1	153	154	156	184
208	1	219	253	251	224
209	14	44	43	89	91
209	15	44	43	89	91
210	1	232	231	236	237
211	1	91	125	123	96
212	4	34	36	37	38
213	7	153	148	198	189
214	1	31	51	49	50
215	16	218	217	219	220
216	1	3	2	86	84
217	1	14	13	77	78
218	1	124	123	125	126
219	6	140	205	206	208
220	1	157	156	184	185
221	1	148	153	154	155
222	1	14	15	75	73
223	7	26	21	70	72
224	7	224	225	247	248
225	7	226	225	247	249
226	6	113	98	97	119
227	11	22	21	70	71
228	1	148	153	188	189
229	1	78	77	82	83
230	1	156	184	186	188
231	1	162	161	163	164
232	1	138	140	205	206
233	1	91	92	94	95
234	1	165	164	175	176
235	1	36	37	38	39
236	1	37	47	45	42