Title

74 atoms
77 bonds
130 angles
193 dihedrals
78 impropers

9 atom types
13 bond types
6 angle types
13 dihedral types
2 improper types
-13.93200016 86.06799984 xlo xhi
-2.431999922 97.56800008 ylo yhi
-5.782000065 94.21799994 zlo zhi
0.0 0.0 0.0 xy xz yz

Masses

1	15.99943
2	12.01078
3	1.007947
4	12.01078
5	1.007947
6	15.99943
7	15.99943
8	1.007947
9	35.4532


Pair Coeffs

1	0.16846514	3.0251065
2	0.086879315	3.4806469
3	0.015611343	2.5725815
4	0.10884061	3.3795318
5	0.015779483	2.6445434
6	0.2102061	3.0398122
7	0.20947353	2.99716
8	1.2326e-05	0.53453923
9	0.2656001	3.3075278

Bond Coeffs

1 harmonic	425.69104206635	1.362945806494
2 harmonic	300.03137914615	1.451203938761
3 harmonic	360.7852444772	1.387193227181
4 harmonic	397.2545789619	1.085358495916
5 harmonic	289.73813263395	1.498646816465
6 harmonic	264.62148576755	1.52190126495
7 harmonic	301.15400723785	1.345741232799
8 harmonic	370.04670688625	1.093899492634
9 harmonic	582.698766451	1.225198386222
10 harmonic	279.1350963404	1.454628925034
11 harmonic	385.7604595587	1.369745182308
12 harmonic	543.5267831885	0.9716763312559
13 harmonic	218.0227703685	1.746066037062


Angle Coeffs

1 harmonic	57.8982893754	126.8062420451
2 harmonic	65.09061609600001	110.3538806181
3 harmonic	34.066775159195	129.1835929926
4 harmonic	53.20531626545	116.5475862634
5 harmonic	201.41175231035	127.4691416191
6 harmonic	48.776492647595	115.6030999533


Dihedral Coeffs

1 fourier 1	3.661930099076	2	180
2 fourier 1	1.532232714475	2	180
3 fourier 1	0.457973137376	1	0
4 fourier 1	0.02664938770063	3	0
5 fourier 1	0.1155372516788	3	0
6 fourier 1	0.1040663847541	3	0
7 fourier 1	2.779853741805	2	180
8 fourier 1	0.9974165607242	2	180
9 fourier 1	0.09223874044423	3	0
10 fourier 1	0.3159935921949	2	180
11 fourier 1	0.3247796806857	1	180
12 fourier 1	0.1911926717192	3	0
13 fourier 1	0.8283030590042	2	180


Improper Coeffs

1 0.3666666666666667	-1	2
2 3.5	-1	2


Atoms

1	1	1	-0.021128001	-4.618	0.39399999	2.8280001
2	1	2	0.27888	-3.573	0.257	1.9170001
3	1	2	-0.319074	-3.6110001	0.87400001	0.72799999
4	1	3	0.227277	-4.46	1.488	0.456
5	1	2	-0.147273	-2.4949999	0.72100002	-0.229
6	1	3	0.211226	-2.598	1.219	-1.181
7	1	2	-0.261002	-1.403	-0.015	0.086999997
8	1	4	0.01788	-0.228	-0.24600001	-0.88700002
9	1	2	-0.261002	1.092	-0.145	-0.093999997
10	1	2	-0.14994501	1.359	0.97600001	0.61400002
11	1	3	0.211226	0.64899999	1.793	0.64399999
12	1	2	-0.270973	2.6199999	1.119	1.369
13	1	3	0.227174	2.8039999	2.0250001	1.933
14	1	2	0.43977699	3.5280001	0.139	1.355
15	1	1	-0.440478	4.7140002	0.28299999	2.0699999
16	1	2	-0.270973	3.2650001	-1.091	0.57999998
17	1	3	0.227174	4.0009999	-1.885	0.56400001
18	1	2	-0.14994501	2.1229999	-1.229	-0.105
19	1	3	0.211226	1.974	-2.1440001	-0.65899998
20	1	4	-0.13213401	-0.45300001	-1.652	-1.4960001
21	1	5	0.085472003	-1.434	-1.694	-2.0179999
22	1	5	0.085472003	0.32800001	-1.918	-2.237
23	1	5	0.085472003	-0.458	-2.4319999	-0.704
24	1	4	-0.13484	-0.197	0.80599999	-2.049
25	1	4	-0.114281	1.064	0.773	-2.925
26	1	5	0.065778002	0.97899997	1.55	-3.714
27	1	5	0.065778002	1.973	0.995	-2.329
28	1	5	0.065778002	1.182	-0.208	-3.428
29	1	5	0.10081	-1.066	0.65200001	-2.7249999
30	1	5	0.10081	-0.28200001	1.832	-1.628
31	1	2	-0.147273	-1.397	-0.71799999	1.406
32	1	3	0.211226	-0.56400001	-1.354	1.6799999
33	1	2	-0.319074	-2.4130001	-0.58200002	2.2650001
34	1	3	0.227277	-2.388	-1.097	3.217
35	1	2	0.62851	5.441	-0.47299999	2.073
36	1	6	-0.494856	5.1030002	-1.6440001	2.0810001
37	1	1	-0.021128001	-5.4330001	0.96200001	2.625
38	1	2	0.27888	-5.9260001	1.099	1.3279999
39	1	2	-0.319074	-5.3340001	0.48199999	0.29699999
40	1	3	0.227277	-4.4559999	-0.132	0.45699999
41	1	2	-0.147273	-5.868	0.63499999	-1.072
42	1	3	0.211226	-5.3299999	0.13699999	-1.864
43	1	2	-0.261002	-6.98	1.3710001	-1.307
44	1	4	0.01788	-7.559	1.602	-2.72
45	1	2	-0.261002	-9.0959997	1.501	-2.641
46	1	2	-0.106974	-9.665	0.38	-2.142
47	1	3	0.211226	-9.0530005	-0.43700001	-1.7819999
48	1	2	-0.41106001	-11.133	0.237	-2.069
49	1	3	0.23258901	-11.56	-0.66900003	-1.658
50	1	2	0.43303499	-11.928	1.217	-2.5090001
51	1	7	-0.64868802	-13.311	1.073	-2.4360001
52	1	8	0.43610001	-13.932	1.803	-2.763
53	1	2	-0.41106001	-11.331	2.447	-3.069
54	1	3	0.23258901	-11.973	3.2409999	-3.4289999
55	1	2	-0.106974	-10.001	2.585	-3.135
56	1	3	0.211226	-9.6090002	3.5	-3.5539999
57	1	4	-0.13213401	-7.073	3.0079999	-3.151
58	1	5	0.085472003	-5.9619999	3.05	-3.1500001
59	1	5	0.085472003	-7.414	3.2739999	-4.1719999
60	1	5	0.085472003	-7.4419999	3.7880001	-2.45
61	1	4	-0.13484	-7.039	0.55000001	-3.76
62	1	4	-0.114281	-7.7399998	0.583	-5.1259999
63	1	5	0.065778002	-7.2930002	-0.19400001	-5.7820001
64	1	5	0.065778002	-8.8219995	0.361	-5.0279999
65	1	5	0.065778002	-7.6069999	1.564	-5.625
66	1	5	0.10081	-5.954	0.704	-3.947
67	1	5	0.10081	-7.1620002	-0.47600001	-3.348
68	1	2	-0.147273	-7.6059999	2.0739999	-0.146
69	1	3	0.211226	-8.4700003	2.71	-0.29699999
70	1	2	-0.319074	-7.1139998	1.938	1.09
71	1	3	0.227277	-7.5840001	2.4530001	1.918
72	1	2	0.46773699	6.494	-0.212	2.0710001
73	1	6	-0.56981802	6.8330002	0.95499998	1.974
74	1	9	-0.081951	7.7090001	-1.47	2.2049999

Bonds

1	1	1	2
2	2	1	37
3	3	2	3
4	3	2	33
5	4	3	4
6	3	3	5
7	4	5	6
8	3	5	7
9	5	7	8
10	3	7	31
11	5	8	9
12	6	8	20
13	6	8	24
14	3	9	10
15	3	9	18
16	4	10	11
17	3	10	12
18	4	12	13
19	3	12	14
20	1	14	15
21	3	14	16
22	7	15	35
23	4	16	17
24	3	16	18
25	4	18	19
26	8	20	21
27	8	20	22
28	8	20	23
29	6	24	25
30	8	24	29
31	8	24	30
32	8	25	26
33	8	25	27
34	8	25	28
35	4	31	32
36	3	31	33
37	4	33	34
38	9	35	36
39	10	35	72
40	1	37	38
41	3	38	39
42	3	38	70
43	4	39	40
44	3	39	41
45	4	41	42
46	3	41	43
47	5	43	44
48	3	43	68
49	5	44	45
50	6	44	57
51	6	44	61
52	3	45	46
53	3	45	55
54	4	46	47
55	3	46	48
56	4	48	49
57	3	48	50
58	11	50	51
59	3	50	53
60	12	51	52
61	4	53	54
62	3	53	55
63	4	55	56
64	8	57	58
65	8	57	59
66	8	57	60
67	6	61	62
68	8	61	66
69	8	61	67
70	8	62	63
71	8	62	64
72	8	62	65
73	4	68	69
74	3	68	70
75	4	70	71
76	9	72	73
77	13	72	74

Angles

1	3	47	46	48
2	1	8	7	31
3	4	8	24	30
4	1	38	39	41
5	2	50	51	52
6	1	1	2	33
7	1	48	50	53
8	3	68	70	71
9	6	58	57	59
10	6	66	61	67
11	4	9	8	24
12	1	46	48	50
13	1	44	45	46
14	4	44	57	60
15	4	7	8	9
16	6	29	24	30
17	4	8	20	21
18	3	16	18	19
19	3	9	10	11
20	1	39	38	70
21	4	61	62	63
22	6	21	20	22
23	3	39	41	42
24	6	58	57	60
25	3	7	31	32
26	4	57	44	61
27	4	24	25	26
28	4	44	61	66
29	1	2	33	31
30	3	2	33	34
31	4	25	24	29
32	3	50	53	54
33	4	8	20	22
34	1	15	35	72
35	5	15	35	36
36	4	45	44	61
37	1	35	72	74
38	3	43	68	69
39	4	44	61	62
40	1	5	7	8
41	6	21	20	23
42	3	40	39	41
43	2	1	37	38
44	3	13	12	14
45	4	45	44	57
46	3	69	68	70
47	4	24	25	27
48	4	43	44	45
49	3	11	10	12
50	4	43	44	61
51	3	54	53	55
52	1	43	68	70
53	3	42	41	43
54	1	44	45	55
55	3	45	46	47
56	3	2	3	4
57	4	43	44	57
58	1	41	43	68
59	3	45	55	56
60	3	49	48	50
61	3	14	16	17
62	1	1	2	3
63	1	10	9	18
64	4	20	8	24
65	1	9	10	12
66	1	41	43	44
67	4	61	62	64
68	6	26	25	27
69	1	39	41	43
70	6	59	57	60
71	1	7	31	33
72	4	44	61	67
73	3	10	12	13
74	4	25	24	30
75	1	50	53	55
76	4	8	20	23
77	1	48	50	51
78	1	45	55	53
79	4	7	8	24
80	6	27	25	28
81	3	32	31	33
82	4	61	62	65
83	4	44	57	58
84	1	5	7	31
85	2	2	1	37
86	3	4	3	5
87	1	3	2	33
88	4	7	8	20
89	4	24	25	28
90	4	62	61	66
91	3	6	5	7
92	4	8	24	29
93	3	38	39	40
94	1	15	14	16
95	3	38	70	71
96	6	64	62	65
97	1	37	38	70
98	3	46	48	49
99	1	45	46	48
100	4	8	24	25
101	1	8	9	10
102	1	37	38	39
103	1	2	3	5
104	3	17	16	18
105	6	63	62	64
106	1	12	14	15
107	4	62	61	67
108	3	9	18	19
109	3	3	5	6
110	3	53	55	56
111	1	14	16	18
112	1	36	35	72
113	1	8	9	18
114	1	44	43	68
115	1	38	70	68
116	6	63	62	65
117	1	12	14	16
118	1	35	72	73
119	1	51	50	53
120	1	3	5	7
121	4	9	8	20
122	6	26	25	28
123	2	14	15	35
124	1	73	72	74
125	1	9	18	16
126	3	31	33	34
127	1	10	12	14
128	1	46	45	55
129	6	22	20	23
130	4	44	57	59

Dihedrals

1	6	57	44	61	66
2	1	10	9	18	16
3	4	41	43	44	45
4	5	7	8	24	29
5	1	2	33	31	32
6	6	22	20	8	24
7	1	48	50	53	54
8	4	55	45	44	57
9	1	39	41	43	68
10	1	41	43	68	70
11	4	41	43	44	61
12	4	46	45	44	57
13	6	20	8	24	29
14	9	57	44	61	62
14	10	57	44	61	62
14	11	57	44	61	62
15	1	4	3	5	6
16	1	44	43	68	70
17	4	45	44	43	68
18	1	2	3	5	7
19	5	45	44	61	67
20	5	7	8	24	25
21	4	7	8	9	10
22	12	28	25	24	29
23	1	44	45	46	48
24	12	64	62	61	67
25	12	26	25	24	30
26	4	41	43	44	57
27	9	20	8	24	25
27	10	20	8	24	25
27	11	20	8	24	25
28	1	9	10	12	13
29	1	50	53	55	56
30	6	59	57	44	61
31	1	49	48	50	51
32	5	7	8	24	30
33	1	47	46	48	49
34	8	36	35	72	74
35	3	2	1	37	38
36	1	5	7	31	33
37	1	37	38	70	71
38	5	45	44	57	58
39	2	3	2	1	37
40	4	18	9	8	20
41	12	63	62	61	66
42	4	7	8	9	18
43	1	42	41	43	68
44	1	40	39	38	70
45	1	48	46	45	55
46	4	5	7	8	9
47	1	69	68	70	71
48	1	44	45	55	53
49	1	46	45	55	56
50	13	52	51	50	53
51	1	8	7	31	33
52	1	9	18	16	17
53	1	7	31	33	34
54	1	15	14	16	18
55	1	47	46	48	50
56	5	9	8	20	23
57	1	13	12	14	16
58	4	43	44	45	46
59	1	42	41	43	44
60	5	9	8	24	29
61	1	37	38	39	41
62	1	37	38	70	68
63	6	58	57	44	61
64	1	8	9	18	19
65	5	43	44	57	58
66	1	17	16	18	19
67	5	9	8	24	25
68	1	12	14	16	17
69	6	60	57	44	61
70	1	3	5	7	31
71	1	1	2	3	5
72	4	57	44	43	68
73	6	57	44	61	67
74	6	23	20	8	24
75	12	27	25	24	29
76	4	18	9	8	24
77	1	9	18	16	14
78	6	21	20	8	24
79	1	54	53	55	56
80	1	48	50	53	55
81	4	20	8	7	31
82	1	4	3	2	33
83	6	20	8	24	30
84	1	4	3	5	7
85	5	43	44	57	59
86	1	51	50	53	54
87	1	45	55	53	50
88	12	28	25	24	30
89	1	8	9	10	11
90	5	7	8	20	21
91	12	64	62	61	66
92	6	8	24	25	26
93	1	38	39	41	42
94	1	43	68	70	71
95	12	27	25	24	30
96	1	9	10	12	14
97	2	12	14	15	35
98	6	44	61	62	63
99	5	9	8	20	21
100	4	43	44	45	55
101	5	45	44	57	59
102	1	40	39	41	42
103	1	6	5	7	8
104	1	11	10	9	18
105	12	63	62	61	67
106	1	51	50	53	55
107	2	33	2	1	37
108	2	1	37	38	70
109	1	8	9	10	12
110	5	7	8	20	22
111	1	38	70	68	43
112	1	11	10	12	13
113	6	8	24	25	27
114	1	41	39	38	70
115	1	10	12	14	15
116	1	38	39	41	43
117	1	45	46	48	49
118	1	10	9	18	19
119	1	49	48	50	53
120	6	44	61	62	64
121	2	1	37	38	39
122	12	65	62	61	66
123	1	47	46	45	55
124	5	43	44	61	66
125	5	45	44	57	60
126	1	46	45	55	53
127	5	9	8	24	30
128	1	45	55	53	54
129	5	43	44	61	62
130	1	41	43	68	69
131	1	45	46	48	50
132	1	39	38	70	71
133	4	5	7	8	24
134	4	24	8	7	31
135	1	44	43	68	69
136	5	45	44	61	66
137	1	46	48	50	53
138	1	12	14	16	18
139	5	43	44	61	67
140	12	26	25	24	29
141	1	5	3	2	33
142	4	5	7	8	20
143	1	8	9	18	16
144	1	12	10	9	18
145	5	45	44	61	62
146	4	61	44	43	68
147	2	16	14	15	35
148	8	36	35	72	73
149	1	5	7	31	32
150	1	3	2	33	31
151	1	44	45	55	56
152	1	3	2	33	34
153	8	15	35	72	73
154	5	43	44	57	60
155	1	1	2	33	31
156	1	1	2	33	34
157	7	14	15	35	72
158	2	14	15	35	36
159	1	8	7	31	32
160	1	39	38	70	68
161	1	32	31	33	34
162	1	15	14	16	17
163	1	39	41	43	44
164	5	9	8	20	22
165	13	48	50	51	52
166	1	13	12	14	15
167	1	40	39	41	43
168	1	6	5	7	31
169	4	10	9	8	24
170	8	15	35	72	74
171	1	2	33	31	7
172	1	37	38	39	40
173	5	7	8	20	23
174	1	11	10	12	14
175	6	8	24	25	28
176	1	10	12	14	16
177	1	14	16	18	19
178	1	38	70	68	69
179	4	10	9	8	20
180	6	44	61	62	65
181	12	65	62	61	67
182	1	2	3	5	6
183	1	3	5	7	8
184	4	9	8	7	31
185	1	46	48	50	51
186	4	55	45	44	61
187	1	1	2	3	4
188	1	44	45	46	47
189	4	46	45	44	61

Impropers

2	1	12	10	13	14
3	1	46	45	47	48
6	1	16	17	18	14
7	1	5	6	7	3
9	2	35	72	15	36
11	1	7	8	31	5
13	1	55	45	53	56
15	2	35	36	72	15
19	1	18	16	19	9
27	1	9	10	18	8
28	1	53	50	54	55
29	1	41	39	42	43
30	1	50	53	48	51
33	1	48	50	46	49
36	1	45	46	55	44
39	1	48	46	49	50
43	1	72	74	35	73
44	1	2	1	3	33
48	1	38	37	39	70
55	1	39	40	41	38
59	1	12	13	14	10
63	1	5	7	3	6
67	1	33	2	31	34
82	1	14	15	16	12
83	1	43	41	44	68
92	1	18	19	9	16
98	1	46	48	45	47
99	1	5	3	6	7
101	1	55	56	45	53
110	1	72	35	73	74
115	1	7	31	5	8
122	1	70	68	71	38
123	1	16	18	14	17
124	1	45	55	44	46
127	1	68	69	70	43
132	1	16	14	17	18
154	1	39	38	40	41
157	1	2	3	33	1
159	1	18	9	16	19
165	1	48	49	50	46
169	1	45	44	46	55
177	1	41	42	43	39
180	1	70	71	38	68
182	1	68	70	43	69
194	1	31	32	33	7
196	1	68	43	69	70
198	1	38	39	70	37
201	1	55	53	56	45
208	1	39	41	38	40
219	1	41	43	39	42
223	1	14	12	15	16
225	1	7	5	8	31
226	1	14	16	12	15
227	1	31	7	32	33
229	1	72	73	74	35
230	1	3	5	2	4
241	1	50	51	53	48
244	1	10	11	12	9
248	1	43	44	68	41
249	1	2	33	1	3
252	1	9	18	8	10
258	2	35	15	36	72
260	1	10	12	9	11
261	1	53	54	55	50
264	1	10	9	11	12
272	1	33	31	34	2
288	1	50	48	51	53
289	1	9	8	10	18
300	1	33	34	2	31
302	1	12	14	10	13
309	1	53	55	50	54
312	1	31	33	7	32
327	1	70	38	68	71
330	1	43	68	41	44
343	1	46	47	48	45
344	1	3	4	5	2
346	1	3	2	4	5
348	1	38	70	37	39
