Title

7500 atoms
7750 bonds
12500 angles
20250 dihedrals
6750 impropers

8 atom types
12 bond types
7 angle types
23 dihedral types
2 improper types
-8.128294328 72.38656538 xlo xhi
-7.979863355 72.81580094 ylo yhi
-7.85121576 73.48530022 zlo zhi
0.0 0.0 0.0 xy xz yz

Masses

1	12.01078
2	15.99943
3	1.007947
4	15.99943
5	12.01078
6	1.007947
7	15.99943
8	1.007947


Pair Coeffs

1	0.086879315	3.4806469
2	0.2102061	3.0398122
3	0.015611343	2.5725815
4	0.16846514	3.0251065
5	0.10884061	3.3795318
6	0.016409246	2.5832257
7	0.20947353	2.99716
8	1.2326e-05	0.53453923

Bond Coeffs

1 harmonic	582.698766451	1.225198386222
2 harmonic	279.1350963404	1.454628925034
3 harmonic	301.15400723785	1.345741232799
4 harmonic	399.1592953295	1.371688562017
5 harmonic	369.34270398985	1.364116986116
6 harmonic	397.2545789619	1.085358495916
7 harmonic	366.7408841747	1.425895053732
8 harmonic	264.62148576755	1.52190126495
9 harmonic	370.04670688625	1.093899492634
10 harmonic	329.96998057905	1.427343958716
11 harmonic	543.5267831885	0.9716763312559
12 harmonic	385.7604595587	1.369745182308


Angle Coeffs

1 harmonic	39.628116874445	129.8027304608
2 harmonic	65.09061609600001	110.3538806181
3 harmonic	57.8982893754	126.8062420451
4 harmonic	201.41175231035	127.4691416191
5 harmonic	79.1895422237	112.4630193006
6 harmonic	53.20531626545	116.5475862634
7 harmonic	48.776492647595	115.6030999533


Dihedral Coeffs

1 fourier 1	5.294842998052	2	180
2 fourier 1	1.659715194912	2	180
3 fourier 1	0.1918272375143	3	0
4 fourier 1	0.9202179876409	1	180
5 fourier 1	0.0473758381877	3	0
6 fourier 1	0.2347635637734	2	180
7 fourier 1	0.4747469131102	3	0
8 fourier 1	0.9974165607242	2	180
9 fourier 1	1.163809172478	2	180
10 fourier 1	0.1679186987369	1	180
11 fourier 1	2.779853741805	2	180
12 fourier 1	1.163235555439	2	180
13 fourier 1	-0.0309670556842	3	0
14 fourier 1	0.4598191477945	2	0
15 fourier 1	0.1115525666802	3	0
16 fourier 1	0.3432490222662	1	0
17 fourier 1	0.1911926717192	3	0
18 fourier 1	0.3445382149273	3	0
19 fourier 1	0.1364556373303	1	0
20 fourier 1	0.3026390167484	3	0
21 fourier 1	2.687457892086	2	180
22 fourier 1	2.772607909663	2	180
23 fourier 1	0.09692684957115	1	0


Improper Coeffs

1 0.3666666666666667	-1	2
2 3.5	-1	2


Atoms

1	1	1	0.67599564	-1.0745752	-1.1424391	-3.6385829
2	1	2	-0.51586932	-1.1110095	-2.2908985	-3.2223564
3	1	1	0.23015308	-1.5847201	-0.034821121	-2.8264446
4	1	1	-0.2826359	-1.6708971	1.2650195	-3.2792932
5	1	3	0.18643824	-1.4186633	1.6375055	-4.2623996
6	1	1	-0.28263587	-2.1085671	2.0031916	-2.2189008
7	1	3	0.18643829	-2.262343	3.0732954	-2.1992862
8	1	1	0.23015311	-2.2476833	1.1188088	-1.1706165
9	1	1	0.67623263	-2.5535253	1.5424088	0.20065652
10	1	2	-0.51586932	-2.5825294	0.73212653	1.1159993
11	1	4	-0.20939625	-1.9463979	-0.10430494	-1.5591944
12	1	4	-0.49136413	-2.6378548	2.88066	0.42928594
13	1	5	0.15122784	-2.4018844	3.5314672	1.6226484
14	1	5	0.15122789	-1.2455396	4.5307383	1.4325954
15	1	4	-0.49136407	-0.064146738	3.8606783	1.1663428
16	1	6	0.081371779	-1.1173328	5.0833219	2.3866984
17	1	6	0.081371779	-1.4728586	5.2699594	0.63316112
18	1	6	0.081371779	-3.319519	4.0787957	1.9173537
19	1	6	0.081371779	-2.1365924	2.8198228	2.4366284
20	1	1	0.67623263	0.24272369	3.2699697	-0.018190835
21	1	2	-0.51586932	-0.015660702	3.8201866	-1.0781983
22	1	1	0.23015311	0.77107602	1.900445	0.0038083687
23	1	1	-0.2826359	1.0212875	1.20436	1.1573771
24	1	3	0.18643824	0.92392677	1.5635373	2.1720463
25	1	1	-0.28263587	1.3875254	-0.049938228	0.76113626
26	1	3	0.18643829	1.6465833	-0.83246117	1.4270543
27	1	1	0.23015317	1.3237856	-0.073586547	-0.61868075
28	1	1	0.67623263	1.5559676	-1.2348102	-1.5329565
29	1	2	-0.51586932	1.7048066	-0.97477769	-2.7149316
30	1	4	-0.20939625	0.97463556	1.1278734	-1.0451386
31	1	4	-0.49136413	1.5680794	-2.5543622	-1.1725028
32	1	5	0.15122784	1.308142	-3.1405525	0.057879039
33	1	5	0.15122789	-0.15230998	-2.9511686	0.5124468
34	1	4	-0.49136407	-0.26848877	-3.3238448	1.8456789
35	1	6	0.081371779	-0.84460787	-3.544814	-0.12083815
36	1	6	0.081371779	-0.44357425	-1.8868689	0.38561928
37	1	6	0.081371779	1.5030265	-4.2319437	-0.0080705313
38	1	6	0.081371779	2.0380342	-2.7633063	0.79270732
39	1	4	-0.48761699	-0.43577856	-0.82780891	-4.7970287
40	1	5	0.13156834	0.17323603	-1.7101712	-5.661842
41	1	5	0.091016005	-0.86088778	-2.3432605	-6.5842242
42	1	7	-0.67889804	-0.23290682	-3.1545739	-7.5373456
43	1	8	0.39369177	0.058156171	-3.9754973	-7.0611302
44	1	6	0.089542317	-1.4057164	-1.5340281	-7.1178708
45	1	6	0.089542317	-1.6081355	-2.9278879	-6.0034139
46	1	6	0.088386337	0.88877892	-1.1333882	-6.2882841
47	1	6	0.088386337	0.75429105	-2.4761804	-5.1015608
48	1	1	0.67623263	-0.51245848	-2.3803307	2.7902963
49	1	2	-0.51586932	-1.5815486	-1.787901	2.801583
50	1	1	0.23015311	0.63848593	-1.8267917	3.5156944
51	1	1	-0.2826359	1.8751523	-2.4302181	3.6375665
52	1	3	0.18643824	2.1572893	-3.4193387	3.3018804
53	1	1	-0.28606064	2.6946996	-1.4923045	4.2189574
54	1	3	0.18643829	3.7498548	-1.6005089	4.4337696
55	1	1	0.23778621	1.9111927	-0.36915954	4.4037074
56	1	1	0.72184217	2.3783377	0.93614173	4.8907322
57	1	2	-0.50379503	3.5474274	1.0907056	5.2116423
58	1	7	-0.69429732	1.5300974	1.9863179	4.9068667
59	1	8	0.40152737	1.829424	2.871635	5.1583151
60	1	4	-0.21205323	0.68271186	-0.60307454	3.9935275
61	2	1	0.67599564	3.0253347	0.76835586	13.907832
62	2	2	-0.51586932	2.8600799	1.9560186	14.143796
63	2	1	0.23015308	2.9272322	-0.22851488	14.977065
64	2	1	-0.2826359	3.2075435	-1.567032	14.798511
65	2	3	0.18643824	3.5557005	-2.0519692	13.897129
66	2	1	-0.28263587	2.92154	-2.1717829	15.987361
67	2	3	0.18643829	2.9928623	-3.2284038	16.205579
68	2	1	0.23015311	2.4639137	-1.1743926	16.821733
69	2	1	0.67623263	1.9032417	-1.4364188	18.15228
70	2	2	-0.51586932	1.4298182	-0.53038953	18.823273
71	2	4	-0.20939625	2.4918618	-0.01037995	16.203617
72	2	4	-0.49136413	1.7864177	-2.7386216	18.527672
73	2	5	0.15122784	0.87808277	-3.2615842	19.424769
74	2	5	0.15122789	0.0059268187	-4.3087958	18.707491
75	2	4	-0.49136407	-0.77605791	-3.7064591	17.73731
76	2	6	0.081371779	-0.67231915	-4.7572043	19.463143
77	2	6	0.081371779	0.62401673	-5.1241017	18.271076
78	2	6	0.081371779	1.4335802	-3.7465238	20.252253
79	2	6	0.081371779	0.21954	-2.4731897	19.85388
80	2	1	0.67623263	-0.31755714	-3.258004	16.539441
81	2	2	-0.51586932	0.48406709	-3.9131161	15.890331
82	2	1	0.23015311	-0.70623772	-1.9102094	16.106295
83	2	1	-0.2826359	-1.5494967	-1.0996963	16.820329
84	2	3	0.18643824	-2.0712581	-1.3427676	17.735054
85	2	1	-0.28263587	-1.5688009	0.092576543	16.155112
86	2	3	0.18643829	-2.1338153	0.93538223	16.460623
87	2	1	0.23015317	-0.71797063	-0.032984205	15.073983
88	2	1	0.67623263	-0.33216793	1.0140476	14.077424
89	2	2	-0.51586932	0.21972691	0.62209369	13.063215
90	2	4	-0.20939625	-0.23471758	-1.2632312	15.058592
91	2	4	-0.49136413	-0.49790981	2.3641948	14.222072
92	2	5	0.15122784	-0.97427389	3.0887315	15.305193
93	2	5	0.15122789	-0.054647975	2.9926813	16.53827
94	2	4	-0.49136407	-0.71613977	3.5121498	17.643926
95	2	6	0.081371779	0.89935428	3.5333526	16.364215
96	2	6	0.081371779	0.2136256	1.9298029	16.71708
97	2	6	0.081371779	-1.0514498	4.1602419	15.02346
98	2	6	0.081371779	-2.00901	2.7730835	15.516658
99	2	4	-0.48761699	3.1622052	0.31050304	12.63477
100	2	5	0.13156834	3.2012304	1.0749334	11.489568
101	2	5	0.091016005	4.6025263	1.6331017	11.27551
102	2	7	-0.67889804	4.6743344	2.3167307	10.055459
103	2	8	0.39369177	4.194476	3.1760136	10.185007
104	2	6	0.089542317	5.3228439	0.78652134	11.245209
105	2	6	0.089542317	4.8988326	2.2991916	12.115769
106	2	6	0.088386337	2.9574603	0.41256743	10.629941
107	2	6	0.088386337	2.4342686	1.8804293	11.525007
108	2	1	0.67623263	-1.1012091	2.6850899	18.648782
109	2	2	-0.51586932	-0.26019394	2.1287392	19.339594
110	2	1	0.23015311	-2.4806105	2.1810254	18.627528
111	2	1	-0.2826359	-3.5347428	2.7580001	17.946187
112	2	3	0.18643824	-3.5311024	3.6958631	17.406701
113	2	1	-0.28606064	-4.5761413	1.8659017	18.041079
114	2	3	0.18643829	-5.555849	1.9662697	17.59241
115	2	1	0.23778621	-4.0892943	0.7929242	18.763
116	2	1	0.72184217	-4.8036046	-0.46429141	19.024531
117	2	2	-0.50379503	-5.9479785	-0.61670815	18.623505
118	2	7	-0.69429732	-4.1635915	-1.4813304	19.639882
119	2	8	0.40152737	-4.5881865	-2.3421515	19.763637
120	2	4	-0.21205323	-2.8417389	1.0161435	19.117835
121	3	1	0.67599564	3.3326495	0.66591551	30.659755
122	3	2	-0.51586932	3.9583749	0.30901025	31.646982
123	3	1	0.23015308	2.1191208	-0.042818086	30.245414
124	3	1	-0.2826359	1.4298058	0.2412625	29.085144
125	3	3	0.18643824	1.6863091	0.97012639	28.328949
126	3	1	-0.28263587	0.32816767	-0.56318547	29.097056
127	3	3	0.18643829	-0.4585929	-0.58820673	28.355749
128	3	1	0.23015311	0.39334395	-1.2810137	30.272156
129	3	1	0.67623263	-0.69006622	-2.1530816	30.740222
130	3	2	-0.51586932	-0.62607743	-2.7033916	31.830321
131	3	4	-0.20939625	1.485847	-0.96875512	30.940516
132	3	4	-0.49136413	-1.8235724	-2.1871918	29.989024
133	3	5	0.15122784	-3.0984511	-2.4766548	30.429752
134	3	5	0.15122789	-4.0123054	-1.2664688	30.161208
135	3	4	-0.49136407	-3.6205254	-0.18305619	30.928206
136	3	6	0.081371779	-5.0418008	-1.5470826	30.466974
137	3	6	0.081371779	-4.0326343	-1.0028399	29.08079
138	3	6	0.081371779	-3.4766044	-3.3570055	29.872567
139	3	6	0.081371779	-3.11681	-2.7110074	31.517927
140	3	1	0.67623263	-2.5243294	0.58260459	30.686661
141	3	2	-0.51586932	-2.2355569	0.92209945	29.548913
142	3	1	0.23015311	-1.6241214	0.88157379	31.807144
143	3	1	-0.2826359	-1.8573461	0.47430212	33.094621
144	3	3	0.18643824	-2.7240233	-0.05338487	33.46672
145	3	1	-0.28263587	-0.75183329	0.84343543	33.805945
146	3	3	0.18643829	-0.62491849	0.66619965	34.842951
147	3	1	0.23015317	0.12064151	1.441322	32.917218
148	3	1	0.67623263	1.5023641	1.9501077	33.182225
149	3	2	-0.51586932	1.9894312	2.6708509	32.327749
150	3	4	-0.20939625	-0.44827621	1.4724601	31.724473
151	3	4	-0.49136413	2.2802677	1.6431427	34.264782
152	3	5	0.15122784	2.0370865	0.76630485	35.312181
153	3	5	0.15122789	1.960704	-0.7034238	34.85449
154	3	4	-0.49136407	1.4592889	-1.4800647	35.891459
155	3	6	0.081371779	2.9588819	-1.0721986	34.537651
156	3	6	0.081371779	1.2998042	-0.77943845	33.965059
157	3	6	0.081371779	2.8584978	0.84687765	36.05532
158	3	6	0.081371779	1.1322827	1.0956378	35.848744
159	3	4	-0.48761699	3.6487051	1.8091055	29.994717
160	3	5	0.13156834	4.7002955	2.6541169	30.273065
161	3	5	0.091016005	5.9847208	2.1201321	29.651683
162	3	7	-0.67889804	7.0317313	3.0315562	29.836359
163	3	8	0.39369177	7.2956413	2.9682063	30.791216
164	3	6	0.089542317	5.8243415	1.9880342	28.559299
165	3	6	0.089542317	6.2502804	1.1270734	30.076915
166	3	6	0.088386337	4.4759079	3.6403368	29.810322
167	3	6	0.088386337	4.8031845	2.8099513	31.370079
168	3	1	0.67623263	0.22687871	-2.0376756	35.780656
169	3	2	-0.51586932	0.022636477	-2.9104364	34.949615
170	3	1	0.23015311	-0.90489625	-1.3168804	36.378
171	3	1	-0.2826359	-0.81278091	-0.36241236	37.372397
172	3	3	0.18643824	0.074706349	-0.066102807	37.915732
173	3	1	-0.28606064	-2.07025	0.18021591	37.489364
174	3	3	0.18643829	-2.3672865	0.98692573	38.146778
175	3	1	0.23778621	-2.8494733	-0.46702663	36.549492
176	3	1	0.72184217	-4.2450228	-0.14638304	36.219555
177	3	2	-0.50379503	-4.832579	0.73840618	36.824179
178	3	7	-0.69429732	-4.8511143	-0.77801965	35.191776
179	3	8	0.40152737	-5.7455285	-0.53832126	34.910392
180	3	4	-0.21205323	-2.1334833	-1.3699849	35.913762
181	4	1	0.67599564	-3.3487089	-1.9685347	49.826202
182	4	2	-0.51586932	-3.5874295	-1.9550742	48.627719
183	4	1	0.23015308	-1.9908999	-2.2181999	50.316769
184	4	1	-0.2826359	-1.6764848	-2.3525839	51.652871
185	4	3	0.18643824	-2.3548922	-2.3279228	52.494311
186	4	1	-0.28263587	-0.3202359	-2.4887664	51.706984
187	4	3	0.18643829	0.28183621	-2.5852818	52.599927
188	4	1	0.23015311	0.12272398	-2.410963	50.403865
189	4	1	0.67623263	1.5438206	-2.3585909	50.041777
190	4	2	-0.51586932	1.8898633	-2.2026992	48.879364
191	4	4	-0.20939625	-0.89672675	-2.2670509	49.580589
192	4	4	-0.49136413	2.4407077	-2.3254835	51.06393
193	4	5	0.15122784	3.7077373	-1.7804248	51.034046
194	4	5	0.15122789	3.8003282	-0.66028476	52.086903
195	4	4	-0.49136407	2.9651801	0.39113955	51.751352
196	4	6	0.081371779	4.8437613	-0.28167801	52.085381
197	4	6	0.081371779	3.5721469	-1.0399916	53.107184
198	4	6	0.081371779	4.4428872	-2.5747558	51.272931
199	4	6	0.081371779	3.9534405	-1.3591664	50.03327
200	4	1	0.67623263	1.6121629	0.37722467	51.875356
201	4	2	-0.51586932	1.0785073	-0.10375759	52.863781
202	4	1	0.23015311	0.80468641	0.83354502	50.737379
203	4	1	-0.2826359	1.342461	1.3225919	49.575702
204	4	3	0.18643824	2.3880279	1.4884146	49.358139
205	4	1	-0.28263587	0.28576838	1.5262422	48.735269
206	4	3	0.18643829	0.37407508	1.9026583	47.748652
207	4	1	0.23015317	-0.85200667	1.1313618	49.412066
208	4	1	0.67623263	-2.258199	1.0845432	48.90346
209	4	2	-0.51586932	-3.1351488	0.9560711	49.74089
210	4	4	-0.20939625	-0.50623888	0.74395269	50.627647
211	4	4	-0.49136413	-2.6421593	1.1240003	47.591092
212	4	5	0.15122784	-1.8676298	1.1418124	46.440087
213	4	5	0.15122789	-1.0603745	-0.15636994	46.243925
214	4	4	-0.49136407	-0.12387552	0.035127286	45.235862
215	4	6	0.081371779	-1.7307627	-1.0065509	45.997931
216	4	6	0.081371779	-0.55083992	-0.42168963	47.194522
217	4	6	0.081371779	-2.5283509	1.2660845	45.55608
218	4	6	0.081371779	-1.2332944	2.0431993	46.452348
219	4	4	-0.48761699	-4.2902292	-1.6138467	50.740962
220	4	5	0.13156834	-5.5982712	-1.2709185	50.478683
221	4	5	0.091016005	-6.4496335	-2.5238581	50.316426
222	4	7	-0.67889804	-7.7984254	-2.1806118	50.161596
223	4	8	0.39369177	-7.8939607	-1.8205293	49.241472
224	4	6	0.089542317	-6.3495065	-3.1443308	51.233738
225	4	6	0.089542317	-6.0995592	-3.1347701	49.45518
226	4	6	0.088386337	-5.9828349	-0.70207816	51.353692
227	4	6	0.088386337	-5.6624355	-0.60697883	49.587966
228	4	1	0.67623263	1.1980525	0.068079901	45.541578
229	4	2	-0.51586932	1.7568683	-0.93928117	45.950238
230	4	1	0.23015311	1.8189731	1.3833294	45.746169
231	4	1	-0.2826359	1.3261881	2.5847199	45.274848
232	4	3	0.18643824	0.47523853	2.7332592	44.623336
233	4	1	-0.28606064	2.1017392	3.5611916	45.853102
234	4	3	0.18643829	1.9821286	4.6311056	45.74273
235	4	1	0.23778621	3.0116552	2.8962061	46.652676
236	4	1	0.72184217	3.9789216	3.5247189	47.562948
237	4	2	-0.50379503	4.0561345	4.7423856	47.633447
238	4	7	-0.69429732	4.726767	2.7531316	48.380275
239	4	8	0.40152737	5.3216431	3.1434587	49.036305
240	4	4	-0.21205323	2.8334309	1.5959247	46.554527
241	5	1	0.67599564	0.4855137	-3.8461872	66.212121
242	5	2	-0.51586932	0.27121916	-4.0819309	65.032276
243	5	1	0.23015308	1.3106765	-2.7026348	66.609649
244	5	1	-0.2826359	1.6777634	-2.4450654	67.913868
245	5	3	0.18643824	1.4510071	-3.0360549	68.790327
246	5	1	-0.28263587	2.3612063	-1.264833	67.884848
247	5	3	0.18643829	2.773028	-0.73846758	68.734846
248	5	1	0.23015311	2.3583355	-0.85523898	66.568561
249	5	1	0.67623263	2.8608151	0.45351562	66.134924
250	5	2	-0.51586932	2.7596107	0.80983331	64.969571
251	5	4	-0.20939625	1.7387213	-1.7408337	65.813861
252	5	4	-0.49136413	3.2868108	1.3044234	67.106923
253	5	5	0.15122784	3.3076834	2.682605	67.047545
254	5	5	0.15122789	2.419891	3.2497493	68.170919
255	5	4	-0.49136407	1.093922	2.9159113	67.956633
256	5	6	0.081371779	2.5029084	4.356208	68.140014
257	5	6	0.081371779	2.7602339	2.905671	69.172415
258	5	6	0.081371779	4.3508029	3.0294406	67.189249
259	5	6	0.081371779	2.9384704	3.0601633	66.067488
260	5	1	0.67623263	0.56364038	1.6802814	68.1522
261	5	2	-0.51586932	0.86817861	1.0155783	69.131252
262	5	1	0.23015311	-0.28037762	1.1103026	67.094847
263	5	1	-0.2826359	-0.60564297	1.7786333	65.943588
264	5	3	0.18643824	-0.34730392	2.7950007	65.682247
265	5	1	-0.28263587	-1.2962502	0.88340695	65.17806
266	5	3	0.18643829	-1.6879158	1.0993973	64.217411
267	5	1	0.23015317	-1.3442881	-0.30224641	65.885475
268	5	1	0.67623263	-1.9215389	-1.6124709	65.45149
269	5	2	-0.51586932	-2.0908129	-2.4475165	66.323775
270	5	4	-0.20939625	-0.74505403	-0.12284518	67.049954
271	5	4	-0.49136413	-2.2288018	-1.972051	64.167908
272	5	5	0.15122784	-2.0282438	-1.2821619	62.980956
273	5	5	0.15122789	-0.53587559	-1.086057	62.649598
274	5	4	-0.49136407	-0.41433433	-0.17418373	61.608633
275	5	6	0.081371779	-0.059469929	-2.0521015	62.380272
276	5	6	0.081371779	-0.0035859279	-0.71242958	63.55
277	5	6	0.081371779	-2.4884995	-1.8503239	62.145001
278	5	6	0.081371779	-2.5862674	-0.3324959	63.023075
279	5	4	-0.48761699	-0.14228507	-4.5392924	67.199301
280	5	5	0.13156834	-1.0119066	-5.5945172	67.033099
281	5	5	0.091016005	-0.23646302	-6.8897929	66.828279
282	5	7	-0.67889804	-1.1136928	-7.9798634	66.77132
283	5	8	0.39369177	-1.5599695	-7.9367314	65.885662
284	5	6	0.089542317	0.44794941	-7.0361608	67.692357
285	5	6	0.089542317	0.38666581	-6.8399705	65.908096
286	5	6	0.088386337	-1.6097395	-5.6928261	67.965859
287	5	6	0.088386337	-1.7187645	-5.3969421	66.196662
288	5	1	0.67623263	0.12335618	1.0495342	61.844102
289	5	2	-0.51586932	1.3025829	1.1513053	62.149259
290	5	1	0.23015311	-0.79930178	2.161452	62.107962
291	5	1	-0.2826359	-2.1331914	2.1985767	61.750638
292	5	3	0.18643824	-2.673091	1.4717845	61.158247
293	5	1	-0.28606064	-2.652328	3.3190925	62.354208
294	5	3	0.18643829	-3.6826483	3.6490904	62.326884
295	5	1	0.23778621	-1.606336	3.889603	63.054128
296	5	1	0.72184217	-1.7020627	5.04788	63.953272
297	5	2	-0.50379503	-2.770279	5.621671	64.105987
298	5	7	-0.69429732	-0.62402956	5.4271727	64.672037
299	5	8	0.40152737	-0.67796338	6.1429986	65.321109
300	5	4	-0.21205323	-0.50683069	3.1891947	62.873448
301	6	1	0.67599564	2.6077545	16.234094	2.9808935
302	6	2	-0.51586932	1.9106877	15.376794	3.5030679
303	6	1	0.23015308	2.8506936	16.224341	1.5360684
304	6	1	-0.2826359	3.7110505	17.09638	0.9024935
305	6	3	0.18643824	4.3290468	17.857975	1.3573786
306	6	1	-0.28263587	3.6007451	16.829459	-0.43072476
307	6	3	0.18643829	4.1091437	17.344056	-1.2343882
308	6	1	0.23015311	2.6654568	15.822815	-0.54157766
309	6	1	0.67623263	2.1441795	15.350865	-1.8295603
310	6	2	-0.51586932	1.2521504	14.515858	-1.8774988
311	6	4	-0.20939625	2.2393779	15.459015	0.65168653
312	6	4	-0.49136413	2.5773488	15.99724	-2.9452943
313	6	5	0.15122784	1.9066769	16.114159	-4.1452422
314	6	5	0.15122789	1.6672868	17.605378	-4.4464964
315	6	4	-0.49136407	0.80463701	18.156133	-3.5147967
316	6	6	0.081371779	1.1832425	17.674466	-5.4430033
317	6	6	0.081371779	2.6237673	18.171695	-4.4870867
318	6	6	0.081371779	2.5304023	15.670036	-4.9466126
319	6	6	0.081371779	0.9268219	15.586101	-4.1247497
320	6	1	0.67623263	1.1386862	18.46166	-2.2336681
321	6	2	-0.51586932	2.2098111	18.98944	-1.9743291
322	6	1	0.23015311	0.24101152	18.024121	-1.1575744
323	6	1	-0.2826359	-0.94267351	17.369995	-1.3786396
324	6	3	0.18643824	-1.3946277	17.140482	-2.3331565
325	6	1	-0.28263587	-1.4184721	17.037261	-0.14279788
326	6	3	0.18643829	-2.3262866	16.51709	0.025115689
327	6	1	0.23015317	-0.49306585	17.483029	0.78101549
328	6	1	0.67623263	-0.50943046	17.298743	2.2656096
329	6	2	-0.51586932	0.26060366	17.992438	2.9080027
330	6	4	-0.20939625	0.48328565	18.098254	0.13641186
331	6	4	-0.49136413	-1.2693617	16.395674	2.9571749
332	6	5	0.15122784	-2.1263813	15.411668	2.4857148
333	6	5	0.15122789	-1.3923167	14.307315	1.7002392
334	6	4	-0.49136407	-2.3258618	13.515115	1.0438814
335	6	6	0.081371779	-0.76364833	13.690976	2.3767325
336	6	6	0.081371779	-0.70162188	14.773317	0.96577568
337	6	6	0.081371779	-2.6400065	14.931016	3.3451492
338	6	6	0.081371779	-2.9303932	15.889956	1.9027606
339	6	4	-0.48761699	3.0640272	17.303589	3.6859078
340	6	5	0.13156834	2.8791578	17.536806	5.0308231
341	6	5	0.091016005	3.9026851	16.757394	5.8468573
342	6	7	-0.67889804	3.7905148	17.07858	7.2052708
343	6	8	0.39369177	2.9694855	16.628228	7.5346763
344	6	6	0.089542317	4.9220266	17.039485	5.5035767
345	6	6	0.089542317	3.7849749	15.662052	5.6923249
346	6	6	0.088386337	3.0440257	18.621443	5.213826
347	6	6	0.088386337	1.8359088	17.296534	5.3344858
348	6	1	0.67623263	-2.4070193	13.55117	-0.31042853
349	6	2	-0.51586932	-1.4832077	13.12868	-0.99022872
350	6	1	0.23015311	-3.4106184	14.439715	-0.91089205
351	6	1	-0.2826359	-4.5343839	14.927366	-0.27240285
352	6	3	0.18643824	-4.8902069	14.668687	0.71609167
353	6	1	-0.28606064	-5.0772388	15.857603	-1.1264063
354	6	3	0.18643829	-5.947939	16.473359	-0.94220321
355	6	1	0.23778621	-4.2435901	15.890415	-2.2279612
356	6	1	0.72184217	-4.3507894	16.819021	-3.3617281
357	6	2	-0.50379503	-5.2612768	17.633061	-3.4064038
358	6	7	-0.69429732	-3.3944123	16.823968	-4.3145977
359	6	8	0.40152737	-3.4046309	17.470105	-5.0350229
360	6	4	-0.21205323	-3.267728	15.019507	-2.0818692
361	7	1	0.67599564	-2.7427977	15.189061	13.734492
362	7	2	-0.51586932	-2.7561346	14.10214	14.293021
363	7	1	0.23015308	-2.6680489	16.429329	14.510883
364	7	1	-0.2826359	-2.7572145	17.685885	13.949455
365	7	3	0.18643824	-2.9202487	17.931933	12.909385
366	7	1	-0.28263587	-2.5612963	18.567895	14.971492
367	7	3	0.18643829	-2.5321947	19.646038	14.894576
368	7	1	0.23015311	-2.3439179	17.803513	16.097926
369	7	1	0.67623263	-1.938438	18.373606	17.387866
370	7	2	-0.51586932	-1.6725851	17.650735	18.33762
371	7	4	-0.20939625	-2.4302666	16.520962	15.805728
372	7	4	-0.49136413	-1.7154435	19.714875	17.427497
373	7	5	0.15122784	-0.87838161	20.388052	18.293237
374	7	5	0.15122789	0.20255377	21.124292	17.480018
375	7	4	-0.49136407	1.0281259	20.217792	16.837953
376	7	6	0.081371779	0.82315362	21.705955	18.193195
377	7	6	0.081371779	-0.24796041	21.836231	16.753797
378	7	6	0.081371779	-1.4763898	21.124569	18.866301
379	7	6	0.081371779	-0.38383334	19.696617	19.01207
380	7	1	0.67623263	0.68274846	19.497095	15.739073
381	7	2	-0.51586932	0.060674848	20.012151	14.822089
382	7	1	0.23015311	0.95912028	18.055272	15.737796
383	7	1	-0.2826359	1.5945812	17.4057	16.763518
384	7	3	0.18643824	2.0150572	17.84687	17.656048
385	7	1	-0.28263587	1.5575677	16.079326	16.441393
386	7	3	0.18643829	1.9700312	15.309481	17.041487
387	7	1	0.23015317	0.88047471	15.972549	15.241951
388	7	1	0.67623263	0.50695011	14.727479	14.501324
389	7	2	-0.51586932	0.14730724	14.870052	13.344965
390	7	4	-0.20939625	0.55674245	17.186525	14.831174
391	7	4	-0.49136413	0.48654861	13.459791	15.01498
392	7	5	0.15122784	0.7222744	13.023513	16.310788
393	7	5	0.15122789	-0.33533823	13.528031	17.311955
394	7	4	-0.49136407	0.10438069	13.279414	18.606069
395	7	6	0.081371779	-1.3160953	13.039672	17.13206
396	7	6	0.081371779	-0.49392085	14.617364	17.164107
397	7	6	0.081371779	0.70560846	11.913226	16.332008
398	7	6	0.081371779	1.7500903	13.299923	16.597532
399	7	4	-0.48761699	-2.6516416	15.290176	12.381526
400	7	5	0.13156834	-2.6298835	14.247049	11.482206
401	7	5	0.091016005	-4.0473568	13.767279	11.19656
402	7	7	-0.67889804	-4.0380195	12.783742	10.199767
403	7	8	0.39369177	-3.6877981	11.956814	10.622792
404	7	6	0.089542317	-4.648889	14.628746	10.832544
405	7	6	0.089542317	-4.5320319	13.38321	12.121271
406	7	6	0.088386337	-2.1947447	14.626509	10.531536
407	7	6	0.088386337	-1.9781679	13.422574	11.848018
408	7	1	0.67623263	0.4493415	14.316016	19.411364
409	7	2	-0.51586932	-0.40254416	15.106705	19.789722
410	7	1	0.23015311	1.870152	14.68125	19.483355
411	7	1	-0.2826359	2.9278768	13.856088	19.15374
412	7	3	0.18643824	2.8824125	12.809825	18.88187
413	7	1	-0.28606064	4.0478815	14.652439	19.181463
414	7	3	0.18643829	5.0592349	14.353798	18.938188
415	7	1	0.23778621	3.6029673	15.917985	19.512999
416	7	1	0.72184217	4.4233683	17.136439	19.552233
417	7	2	-0.50379503	5.6210335	17.079727	19.315535
418	7	7	-0.69429732	3.8352512	18.331618	19.772021
419	7	8	0.40152737	4.3409404	19.155982	19.735793
420	7	4	-0.21205323	2.3013861	15.902569	19.707364
421	8	1	0.67599564	-0.085336284	15.978818	28.752682
422	8	2	-0.51586932	-0.061899033	14.766744	28.907139
423	8	1	0.23015308	-0.90290543	16.829025	29.621799
424	8	1	-0.2826359	-1.0566012	18.186555	29.433189
425	8	3	0.18643824	-0.64457659	18.791213	28.637268
426	8	1	-0.28263587	-1.8105104	18.627639	30.481021
427	8	3	0.18643829	-2.1037457	19.649624	30.677779
428	8	1	0.23015311	-2.0604957	17.52035	31.263201
429	8	1	0.67623263	-2.7144046	17.596112	32.5747
430	8	2	-0.51586932	-2.8383295	16.599692	33.272584
431	8	4	-0.20939625	-1.5231678	16.4453	30.721613
432	8	4	-0.49136413	-3.0218275	18.836521	33.040721
433	8	5	0.15122784	-3.1425942	19.216435	34.361489
434	8	5	0.15122789	-2.1140595	20.321828	34.664836
435	8	4	-0.49136407	-0.82565052	19.826141	34.565556
436	8	6	0.081371779	-2.2732685	20.652058	35.712547
437	8	6	0.081371779	-2.2541402	21.202517	34.000019
438	8	6	0.081371779	-4.1662829	19.6076	34.527396
439	8	6	0.081371779	-2.9726409	18.362248	35.05493
440	8	1	0.67623263	-0.19007461	19.545905	33.397764
441	8	2	-0.51586932	-0.27786431	20.299748	32.440096
442	8	1	0.23015311	0.49523981	18.253754	33.271552
443	8	1	-0.2826359	0.57359392	17.33645	34.286576
444	8	3	0.18643824	0.20836237	17.4472	35.297705
445	8	1	-0.28263587	1.1794763	16.238054	33.747286
446	8	3	0.18643829	1.38539	15.348148	34.284471
447	8	1	0.23015317	1.425652	16.522939	32.418093
448	8	1	0.67623263	2.0041598	15.621668	31.373445
449	8	2	-0.51586932	2.3749111	16.154017	30.340981
450	8	4	-0.20939625	1.0248716	17.757991	32.170506
451	8	4	-0.49136413	2.1092598	14.260045	31.452361
452	8	5	0.15122784	1.6632044	13.391256	32.43789
453	8	5	0.15122789	0.12652646	13.355378	32.550812
454	8	4	-0.49136407	-0.23129198	12.681993	33.712024
455	8	6	0.081371779	-0.32489648	12.86749	31.661473
456	8	6	0.081371779	-0.26648981	14.393962	32.573932
457	8	6	0.081371779	2.0091917	12.362399	32.202922
458	8	6	0.081371779	2.156908	13.649065	33.389111
459	8	4	-0.48761699	0.74658955	16.59795	27.873122
460	8	5	0.13156834	1.6418143	15.986232	27.023571
461	8	5	0.091016005	0.92903468	15.498328	25.768621
462	8	7	-0.67889804	1.852775	14.977117	24.854251
463	8	8	0.39369177	2.1365429	14.095516	25.211559
464	8	6	0.089542317	0.41422489	16.361344	25.292544
465	8	6	0.089542317	0.15523761	14.739462	26.019358
466	8	6	0.088386337	2.3960741	16.745302	26.720229
467	8	6	0.088386337	2.1800882	15.162025	27.542466
468	8	1	0.67623263	-0.79935139	13.364119	34.738696
469	8	2	-0.51586932	-1.9127475	13.851244	34.607882
470	8	1	0.23015311	0.080256102	13.828808	35.819268
471	8	1	-0.2826359	1.3276478	13.31419	36.115076
472	8	3	0.18643824	1.804115	12.452744	35.666149
473	8	1	-0.28606064	1.8683799	14.158177	37.055635
474	8	3	0.18643829	2.8549041	14.088682	37.495119
475	8	1	0.23778621	0.92311402	15.143912	37.266034
476	8	1	0.72184217	1.0959358	16.337771	38.105118
477	8	2	-0.50379503	2.1346987	16.508372	38.726014
478	8	7	-0.69429732	0.13490491	17.28575	38.125065
479	8	8	0.40152737	0.25261123	18.111971	38.615078
480	8	4	-0.21205323	-0.1429343	14.911791	36.52997
481	9	1	0.67599564	0.40828721	17.947704	52.647078
482	9	2	-0.51586932	1.3509621	17.19189	52.83049
483	9	1	0.23015308	0.22062596	18.611119	51.354291
484	9	1	-0.2826359	-0.75707644	19.554484	51.117134
485	9	3	0.18643824	-1.4745578	19.950313	51.822404
486	9	1	-0.28263587	-0.66264292	19.867475	49.792745
487	9	3	0.18643829	-1.2957106	20.553193	49.246695
488	9	1	0.23015311	0.35396665	19.085114	49.287967
489	9	1	0.67623263	0.67225422	19.008723	47.857504
490	9	2	-0.51586932	1.5254593	18.236038	47.44489
491	9	4	-0.20939625	0.88550817	18.350205	50.244599
492	9	4	-0.49136413	-0.12939716	19.706325	47.008384
493	9	5	0.15122784	-0.37768308	19.417947	45.682285
494	9	5	0.15122789	-1.8858617	19.169875	45.493464
495	9	4	-0.49136407	-2.2788597	18.030069	46.173137
496	9	6	0.081371779	-2.0669293	19.001843	44.4113
497	9	6	0.081371779	-2.4867272	20.050195	45.811604
498	9	6	0.081371779	-0.064716083	20.283608	45.064907
499	9	6	0.081371779	0.1834954	18.518559	45.342341
500	9	1	0.67623263	-2.4264045	17.94267	47.521031
501	9	2	-0.51586932	-2.9540744	18.845339	48.153383
502	9	1	0.23015311	-1.8201014	16.799494	48.214417
503	9	1	-0.2826359	-1.1581976	15.787637	47.569522
504	9	3	0.18643824	-1.0390908	15.659678	46.502994
505	9	1	-0.28263587	-0.65008743	14.990406	48.554737
506	9	3	0.18643829	-0.080078527	14.114949	48.377071
507	9	1	0.23015317	-1.0045261	15.562026	49.761443
508	9	1	0.67623263	-0.62758608	15.116664	51.139056
509	9	2	-0.51586932	-1.2588	15.60617	52.060353
510	9	4	-0.20939625	-1.7333983	16.638044	49.520177
511	9	4	-0.49136413	0.38480952	14.253826	51.458206
512	9	5	0.15122784	1.3291046	13.651968	50.638999
513	9	5	0.15122789	2.2943203	14.666691	49.995483
514	9	4	-0.49136407	3.027201	14.033062	48.999846
515	9	6	0.081371779	2.9706221	15.108382	50.757235
516	9	6	0.081371779	1.7118624	15.508786	49.565048
517	9	6	0.081371779	1.9360068	12.94211	51.240028
518	9	6	0.081371779	0.80810933	13.025712	49.896438
519	9	4	-0.48761699	-0.57578643	18.092177	53.57432
520	9	5	0.13156834	-0.6246631	17.497331	54.815743
521	9	5	0.091016005	0.21719343	18.285104	55.811582
522	9	7	-0.67889804	0.080299344	17.748893	57.097959
523	9	8	0.39369177	0.59908182	16.902613	57.107405
524	9	6	0.089542317	-0.14383454	19.336662	55.830535
525	9	6	0.089542317	1.2865213	18.30026	55.505285
526	9	6	0.088386337	-1.681369	17.519332	55.162151
527	9	6	0.088386337	-0.30937854	16.431766	54.756773
528	9	1	0.67623263	2.8176453	14.357682	47.698788
529	9	2	-0.51586932	3.1142319	15.47096	47.290495
530	9	1	0.23015311	1.8950771	13.516413	46.925215
531	9	1	-0.2826359	1.535744	12.220403	47.240741
532	9	3	0.18643824	1.9338752	11.605728	48.037179
533	9	1	-0.28606064	0.52217452	11.890169	46.372999
534	9	3	0.18643829	-0.032494617	10.961159	46.350911
535	9	1	0.23778621	0.3158561	13.009959	45.590072
536	9	1	0.72184217	-0.74830914	13.177924	44.590788
537	9	2	-0.50379503	-1.5278745	12.264756	44.362652
538	9	7	-0.69429732	-0.91203661	14.372139	43.98277
539	9	8	0.40152737	-1.6458805	14.529812	43.371852
540	9	4	-0.21205323	1.1626458	13.959244	45.927613
541	10	1	0.67599564	-1.1673458	12.619288	66.049571
542	10	2	-0.51586932	-0.18906229	12.483479	66.769327
543	10	1	0.23015308	-1.9534063	13.855353	66.079339
544	10	1	-0.2826359	-3.1256006	14.029695	65.373896
545	10	3	0.18643824	-3.6323529	13.306187	64.750515
546	10	1	-0.28263587	-3.5055554	15.321637	65.591623
547	10	3	0.18643829	-4.3668632	15.81936	65.167861
548	10	1	0.23015311	-2.5358542	15.872486	66.401951
549	10	1	0.67623263	-2.4922671	17.29874	66.744393