Title

68 atoms
71 bonds
118 angles
171 dihedrals
78 impropers

10 atom types
14 bond types
6 angle types
9 dihedral types
2 improper types
-8.710000038 91.28999996 xlo xhi
-3.022000074 96.97799993 ylo yhi
-8.418999672 91.58100033 zlo zhi
0.0 0.0 0.0 xy xz yz

Masses

1	15.99943
2	12.01078
3	79.9041
4	1.007947
5	12.01078
6	1.007947
7	15.99943
8	15.99943
9	1.007947
10	35.4532


Pair Coeffs

1	0.16846514	3.0251065
2	0.086879315	3.4806469
3	0.32189864	3.5097963
4	0.015611343	2.5725815
5	0.10884061	3.3795318
6	0.015779483	2.6445434
7	0.2102061	3.0398122
8	0.20947353	2.99716
9	1.2326e-05	0.53453923
10	0.2656001	3.3075278

Bond Coeffs

1 harmonic	425.69104206635	1.362945806494
2 harmonic	300.03137914615	1.451203938761
3 harmonic	360.7852444772	1.387193227181
4 harmonic	203.9927893677	1.911636491655
5 harmonic	397.2545789619	1.085358495916
6 harmonic	289.73813263395	1.498646816465
7 harmonic	264.62148576755	1.52190126495
8 harmonic	301.15400723785	1.345741232799
9 harmonic	370.04670688625	1.093899492634
10 harmonic	582.698766451	1.225198386222
11 harmonic	279.1350963404	1.454628925034
12 harmonic	385.7604595587	1.369745182308
13 harmonic	543.5267831885	0.9716763312559
14 harmonic	218.0227703685	1.746066037062


Angle Coeffs

1 harmonic	57.8982893754	126.8062420451
2 harmonic	65.09061609600001	110.3538806181
3 harmonic	34.066775159195	129.1835929926
4 harmonic	53.20531626545	116.5475862634
5 harmonic	201.41175231035	127.4691416191
6 harmonic	48.776492647595	115.6030999533


Dihedral Coeffs

1 fourier 1	3.661930099076	2	180
2 fourier 1	1.532232714475	2	180
3 fourier 1	0.457973137376	1	0
4 fourier 1	0.02664938770063	3	0
5 fourier 1	0.1155372516788	3	0
6 fourier 1	2.779853741805	2	180
7 fourier 1	0.9974165607242	2	180
8 fourier 1	0.1040663847541	3	0
9 fourier 1	0.8283030590042	2	180


Improper Coeffs

1 0.3666666666666667	-1	2
2 3.5	-1	2


Atoms

1	1	1	-0.111357	-4.8080001	1.377	1.409
2	1	2	0.372325	-3.6400001	0.81199998	0.89499998
3	1	2	-0.22159199	-2.6459999	0.47799999	1.7309999
4	1	3	-0.065408997	-2.806	0.76300001	3.6170001
5	1	2	-0.0090469997	-1.402	-0.119	1.207
6	1	4	0.21256299	-0.625	-0.38699999	1.913
7	1	2	-0.25849101	-1.225	-0.32300001	-0.116
8	1	5	0.020431001	0.082999997	-0.96700001	-0.61799997
9	1	2	-0.25849101	1.295	-0.221	-0.027000001
10	1	2	0.0080859996	1.367	1.124	-0.133
11	1	4	0.21256299	0.57099998	1.679	-0.61299998
12	1	2	-0.223452	2.52	1.878	0.40200001
13	1	3	-0.065889999	2.4949999	3.786	0.22
14	1	2	0.62412798	3.5369999	1.221	0.99199998
15	1	1	-0.43842199	4.6459999	1.891	1.5140001
16	1	2	-0.223452	3.4890001	-0.25400001	1.0930001
17	1	3	-0.065889999	4.9330001	-1.205	1.9119999
18	1	2	0.0080859996	2.4400001	-0.93400002	0.61199999
19	1	4	0.21256299	2.447	-2.01	0.70099998
20	1	5	-0.1296	0.041999999	-2.4590001	-0.20900001
21	1	6	0.090103	0.89300001	-3.0220001	-0.65100002
22	1	6	0.090103	0.071999997	-2.572	0.89600003
23	1	6	0.090103	-0.89399999	-2.9349999	-0.57499999
24	1	5	-0.1296	0.221	-0.91399997	-2.1589999
25	1	6	0.090103	1.217	-1.299	-2.471
26	1	6	0.090103	0.127	0.12800001	-2.533
27	1	6	0.090103	-0.54799998	-1.544	-2.655
28	1	2	-0.0090460004	-2.3469999	0.035	-1.034
29	1	4	0.21256299	-2.267	-0.132	-2.098
30	1	2	-0.22159199	-3.48	0.57200003	-0.56199998
31	1	3	-0.065408997	-4.875	1.01	-1.801
32	1	2	0.628838	4.757	2.9330001	1.482
33	1	7	-0.477321	5.8720002	3.428	1.48
34	1	1	-0.111357	-5.585	1.647	0.82099998
35	1	2	0.372325	-5.4070001	2.2119999	-0.442
36	1	2	-0.22159199	-6.4809999	2.546	-1.173
37	1	3	-0.065408997	-8.2530003	2.26	-0.50700003
38	1	2	-0.0090469997	-6.3150001	3.1429999	-2.513
39	1	4	0.21256299	-7.2049999	3.411	-3.0680001
40	1	2	-0.25849101	-5.0890002	3.3469999	-3.0420001
41	1	5	0.020431001	-4.96	3.9909999	-4.4359999
42	1	2	-0.25849101	-5.8579998	3.2449999	-5.4429998
43	1	2	0.044445999	-5.776	1.9	-5.5409999
44	1	4	0.21256299	-5.0970001	1.345	-4.9050002
45	1	2	-0.28644601	-6.6030002	1.145	-6.506
46	1	3	-0.074332997	-6.421	-0.76300001	-6.5310001
47	1	2	0.59815001	-7.447	1.802	-7.3249998
48	1	8	-0.63617998	-8.25	1.132	-8.2510004
49	1	9	0.43444699	-8.2489996	0.127	-8.3620005
50	1	2	-0.28644601	-7.5310001	3.277	-7.2509999
51	1	3	-0.074332997	-8.71	4.2290001	-8.4189997
52	1	2	0.044445999	-6.7839999	3.957	-6.3720002
53	1	4	0.21256299	-6.8709998	5.0339999	-6.355
54	1	5	-0.1296	-5.3429999	5.4829998	-4.2859998
55	1	6	0.090103	-5.1479998	6.0450001	-5.2249999
56	1	6	0.090103	-6.414	5.5960002	-4.0159998
57	1	6	0.090103	-4.737	5.9580002	-3.484
58	1	5	-0.1296	-3.5150001	3.937	-4.9879999
59	1	6	0.090103	-3.484	4.323	-6.0300002
60	1	6	0.090103	-3.1289999	2.895	-4.9990001
61	1	6	0.090103	-2.829	4.5679998	-4.382
62	1	2	-0.0090460004	-3.901	2.9890001	-2.211
63	1	4	0.21256299	-2.898	3.1559999	-2.576
64	1	2	-0.22159199	-4.0479999	2.4519999	-0.99199998
65	1	3	-0.065408997	-2.477	2.0139999	0.015
66	1	2	0.46994701	3.881	3.5710001	1.451
67	1	7	-0.54587001	2.77	3.076	1.365
68	1	10	-0.070514999	4.0619998	5.3130002	1.527

Bonds

1	1	1	2
2	2	1	34
3	3	2	3
4	3	2	30
5	4	3	4
6	3	3	5
7	5	5	6
8	3	5	7
9	6	7	8
10	3	7	28
11	6	8	9
12	7	8	20
13	7	8	24
14	3	9	10
15	3	9	18
16	5	10	11
17	3	10	12
18	4	12	13
19	3	12	14
20	1	14	15
21	3	14	16
22	8	15	32
23	4	16	17
24	3	16	18
25	5	18	19
26	9	20	21
27	9	20	22
28	9	20	23
29	9	24	25
30	9	24	26
31	9	24	27
32	5	28	29
33	3	28	30
34	4	30	31
35	10	32	33
36	11	32	66
37	1	34	35
38	3	35	36
39	3	35	64
40	4	36	37
41	3	36	38
42	5	38	39
43	3	38	40
44	6	40	41
45	3	40	62
46	6	41	42
47	7	41	54
48	7	41	58
49	3	42	43
50	3	42	52
51	5	43	44
52	3	43	45
53	4	45	46
54	3	45	47
55	12	47	48
56	3	47	50
57	13	48	49
58	4	50	51
59	3	50	52
60	5	52	53
61	9	54	55
62	9	54	56
63	9	54	57
64	9	58	59
65	9	58	60
66	9	58	61
67	5	62	63
68	3	62	64
69	4	64	65
70	10	66	67
71	14	66	68

Angles

1	1	3	5	7
2	1	43	42	52
3	1	15	32	66
4	4	8	20	22
5	3	16	18	19
6	1	14	16	17
7	1	36	35	64
8	4	42	41	58
9	1	43	45	46
10	6	55	54	57
11	1	8	7	28
12	3	39	38	40
13	1	9	10	12
14	4	9	8	20
15	3	7	28	29
16	1	35	64	65
17	4	40	41	58
18	1	41	40	62
19	1	2	3	4
20	4	42	41	54
21	1	12	14	15
22	6	21	20	22
23	6	60	58	61
24	4	41	58	59
25	4	41	54	57
26	1	38	40	62
27	1	28	30	31
28	4	7	8	24
29	4	40	41	54
30	4	8	20	21
31	6	59	58	61
32	3	44	43	45
33	3	42	52	53
34	1	32	66	68
35	6	21	20	23
36	1	47	50	51
37	3	29	28	30
38	1	8	9	18
39	1	5	7	8
40	1	36	38	40
41	1	5	7	28
42	3	63	62	64
43	1	9	18	16
44	3	42	43	44
45	1	15	14	16
46	1	4	3	5
47	4	8	24	25
48	1	2	30	28
49	1	67	66	68
50	4	8	24	26
51	4	8	20	23
52	1	14	16	18
53	1	7	28	30
54	1	62	64	65
55	1	38	40	41
56	1	10	12	13
57	1	51	50	52
58	4	7	8	9
59	1	43	45	47
60	1	45	47	48
61	6	59	58	60
62	1	42	43	45
63	3	9	18	19
64	1	3	2	30
65	1	35	36	37
66	6	22	20	23
67	1	1	2	3
68	1	41	42	52
69	4	8	24	27
70	1	2	30	31
71	6	25	24	26
72	1	1	2	30
73	1	35	64	62
74	4	7	8	20
75	1	8	9	10
76	3	3	5	6
77	4	41	58	60
78	6	56	54	57
79	1	35	36	38
80	1	41	42	43
81	1	2	3	5
82	1	37	36	38
83	2	1	34	35
84	6	55	54	56
85	3	11	10	12
86	2	14	15	32
87	1	48	47	50
88	3	36	38	39
89	3	40	62	63
90	4	41	58	61
91	3	9	10	11
92	1	47	50	52
93	1	34	35	36
94	5	15	32	33
95	2	2	1	34
96	2	47	48	49
97	6	25	24	27
98	1	42	52	50
99	4	9	8	24
100	6	26	24	27
101	1	40	62	64
102	1	33	32	66
103	4	40	41	42
104	1	17	16	18
105	1	10	9	18
106	1	10	12	14
107	4	54	41	58
108	3	6	5	7
109	4	41	54	56
110	1	12	14	16
111	1	32	66	67
112	1	34	35	64
113	1	45	47	50
114	1	13	12	14
115	1	46	45	47
116	3	50	52	53
117	4	41	54	55
118	4	20	8	24

Dihedrals

1	1	38	40	62	63
2	1	1	2	3	4
3	1	9	10	12	13
4	4	40	41	42	43
5	1	10	9	18	19
6	1	44	43	45	47
7	8	57	54	41	58
8	7	15	32	66	67
9	1	12	10	9	18
10	1	38	40	62	64
11	1	8	7	28	29
12	1	34	35	64	62
13	4	43	42	41	54
14	4	54	41	40	62
15	5	7	8	24	27
16	1	41	42	43	45
17	4	18	9	8	20
18	1	41	42	52	50
19	1	4	3	2	30
20	1	37	36	35	64
21	1	3	5	7	8
22	1	2	30	28	29
23	1	3	5	7	28
24	5	9	8	24	27
25	5	42	41	54	55
26	4	7	8	9	10
27	5	42	41	58	59
28	1	15	14	16	18
29	1	35	64	62	40
30	1	63	62	64	65
31	1	10	12	14	16
32	2	14	15	32	33
33	4	5	7	8	20
34	1	46	45	47	50
35	1	29	28	30	31
36	1	3	2	30	28
37	1	6	5	7	28
38	5	42	41	54	56
39	1	8	9	18	16
40	8	56	54	41	58
41	7	33	32	66	67
42	4	10	9	8	24
43	1	14	16	18	19
44	1	34	35	36	37
45	1	35	64	62	63
46	2	1	34	35	36
47	2	3	2	1	34
48	1	11	10	12	14
49	8	54	41	58	61
50	1	2	3	5	7
51	1	11	10	9	18
52	4	5	7	8	9
53	1	34	35	64	65
54	1	38	36	35	64
55	4	38	40	41	42
56	1	36	35	64	65
57	4	24	8	7	28
58	2	16	14	15	32
59	1	8	7	28	30
60	8	20	8	24	27
61	5	40	41	54	55
62	1	9	10	12	14
63	5	40	41	58	59
64	1	44	43	42	52
65	1	8	9	18	19
66	1	1	2	30	31
67	1	45	47	50	51
68	5	42	41	54	57
69	1	12	14	16	17
70	7	15	32	66	68
71	9	49	48	47	50
72	1	34	35	36	38
73	1	42	52	50	51
74	1	3	2	30	31
75	1	43	45	47	50
76	1	4	3	5	6
77	8	23	20	8	24
78	2	30	2	1	34
79	1	5	3	2	30
80	1	42	43	45	47
81	1	13	12	14	15
82	1	1	2	3	5
83	1	43	42	52	53
84	1	35	36	38	40
85	5	40	41	54	56
86	4	18	9	8	24
87	4	52	42	41	54
88	1	7	28	30	31
89	1	6	5	7	8
90	1	48	47	50	51
91	1	51	50	52	53
92	8	54	41	58	60
93	2	1	34	35	64
94	6	14	15	32	66
95	5	42	41	58	60
96	4	58	41	40	62
97	5	7	8	20	22
98	4	7	8	9	18
99	4	42	41	40	62
100	1	35	36	38	39
101	5	9	8	20	22
102	5	42	41	58	61
103	4	10	9	8	20
104	1	44	43	45	46
105	4	9	8	7	28
106	5	40	41	54	57
107	1	2	30	28	7
108	1	41	42	52	53
109	1	37	36	38	40
110	7	33	32	66	68
111	4	52	42	41	58
112	5	7	8	24	25
113	5	7	8	24	26
114	4	40	41	42	52
115	1	17	16	18	19
116	5	7	8	20	23
117	1	2	3	5	6
118	4	38	40	41	58
119	8	21	20	8	24
120	8	22	20	8	24
121	1	5	7	28	29
122	1	39	38	40	62
123	1	41	42	43	44
124	1	37	36	38	39
125	2	12	14	15	32
126	1	41	40	62	63
127	1	47	50	52	53
128	1	12	14	16	18
129	1	36	38	40	62
130	1	5	7	28	30
131	3	2	1	34	35
132	5	40	41	58	60
133	1	46	45	47	48
134	1	45	47	50	52
135	1	42	43	45	46
136	5	7	8	20	21
137	1	9	18	16	14
138	1	10	12	14	15
139	8	55	54	41	58
140	1	45	43	42	52
141	9	45	47	48	49
142	1	36	35	64	62
143	1	41	40	62	64
144	1	42	52	50	47
145	1	15	14	16	17
146	5	9	8	20	21
147	1	4	3	5	7
148	4	38	40	41	54
149	5	40	41	58	61
150	8	54	41	58	59
151	1	8	9	10	11
152	4	20	8	7	28
153	1	13	12	14	16
154	4	5	7	8	24
155	1	10	9	18	16
156	1	9	18	16	17
157	1	40	62	64	65
158	1	39	38	40	41
159	1	48	47	50	52
160	8	20	8	24	25
161	1	43	42	52	50
162	8	20	8	24	26
163	1	1	2	30	28
164	4	43	42	41	58
165	5	9	8	24	25
166	1	11	10	12	13
167	5	9	8	24	26
168	1	8	9	10	12
169	1	36	38	40	41
170	5	9	8	20	23
171	1	43	45	47	48

Impropers

10	1	52	53	42	50
11	1	43	44	45	42
18	1	35	36	64	34
24	1	2	1	3	30
27	1	36	38	35	37
28	1	45	46	47	43
33	1	64	62	65	35
38	1	47	48	50	45
40	1	18	16	19	9
42	1	30	2	28	31
43	1	16	17	18	14
48	1	47	50	45	48
52	1	3	5	2	4
54	1	66	32	67	68
59	1	43	42	44	45
60	1	10	9	11	12
61	1	42	43	52	41
73	1	38	36	39	40
81	1	9	8	10	18
91	1	62	40	63	64
93	1	2	3	30	1
99	1	2	30	1	3
102	1	64	65	35	62
104	1	5	7	3	6
114	1	12	10	13	14
123	1	66	68	32	67
124	1	18	9	16	19
128	1	43	45	42	44
132	1	38	39	40	36
134	1	42	52	41	43
138	1	36	35	37	38
140	1	28	30	7	29
143	1	7	5	8	28
150	2	32	15	33	66
153	1	50	51	52	47
159	1	12	13	14	10
163	1	45	47	43	46
164	1	66	67	68	32
175	1	7	8	28	5
177	1	35	64	34	36
182	1	3	2	4	5
183	1	30	28	31	2
184	1	50	47	51	52
189	1	52	50	53	42
190	1	35	34	36	64
192	1	40	62	38	41
194	1	47	45	48	50
197	1	10	11	12	9
200	1	5	3	6	7
201	1	28	7	29	30
202	1	62	63	64	40
206	1	36	37	38	35
211	1	40	41	62	38
217	1	9	18	8	10
220	1	18	19	9	16
222	1	10	12	9	11
226	1	45	43	46	47
234	2	32	66	15	33
235	1	16	14	17	18
236	1	28	29	30	7
238	1	14	16	12	15
241	1	64	35	62	65
242	1	38	40	36	39
248	1	16	18	14	17
253	1	14	12	15	16
254	1	7	28	5	8
255	1	9	10	18	8
260	1	50	52	47	51
267	1	52	42	50	53
272	1	30	31	2	28
273	1	42	41	43	52
277	1	40	38	41	62
280	1	62	64	40	63
282	2	32	33	66	15
286	1	14	15	16	12
290	1	12	14	10	13
294	1	3	4	5	2
298	1	5	6	7	3
