Title

11750 atoms
12375 bonds
22250 angles
36375 dihedrals
9750 impropers

9 atom types
13 bond types
6 angle types
13 dihedral types
2 improper types
-6.775166047 74.32181947 xlo xhi
-6.994775151 74.01499437 ylo yhi
-6.894544795 74.10029237 zlo zhi
0.0 0.0 0.0 xy xz yz

Masses

1	15.99943
2	12.01078
3	1.007947
4	12.01078
5	1.007947
6	15.99943
7	15.99943
8	1.007947
9	35.4532


Pair Coeffs

1	0.16846514	3.0251065
2	0.086879315	3.4806469
3	0.015611343	2.5725815
4	0.10884061	3.3795318
5	0.015779483	2.6445434
6	0.2102061	3.0398122
7	0.20947353	2.99716
8	1.2326e-05	0.53453923
9	0.2656001	3.3075278

Bond Coeffs

1 harmonic	425.69104206635	1.362945806494
2 harmonic	300.03137914615	1.451203938761
3 harmonic	360.7852444772	1.387193227181
4 harmonic	397.2545789619	1.085358495916
5 harmonic	289.73813263395	1.498646816465
6 harmonic	264.62148576755	1.52190126495
7 harmonic	301.15400723785	1.345741232799
8 harmonic	370.04670688625	1.093899492634
9 harmonic	582.698766451	1.225198386222
10 harmonic	279.1350963404	1.454628925034
11 harmonic	385.7604595587	1.369745182308
12 harmonic	543.5267831885	0.9716763312559
13 harmonic	218.0227703685	1.746066037062


Angle Coeffs

1 harmonic	57.8982893754	126.8062420451
2 harmonic	65.09061609600001	110.3538806181
3 harmonic	34.066775159195	129.1835929926
4 harmonic	53.20531626545	116.5475862634
5 harmonic	201.41175231035	127.4691416191
6 harmonic	48.776492647595	115.6030999533


Dihedral Coeffs

1 fourier 1	3.661930099076	2	180
2 fourier 1	1.532232714475	2	180
3 fourier 1	0.457973137376	1	0
4 fourier 1	0.02664938770063	3	0
5 fourier 1	0.1155372516788	3	0
6 fourier 1	0.1040663847541	3	0
7 fourier 1	0.09223874044423	3	0
8 fourier 1	0.3159935921949	2	180
9 fourier 1	0.3247796806857	1	180
10 fourier 1	2.779853741805	2	180
11 fourier 1	0.9974165607242	2	180
12 fourier 1	0.1911926717192	3	0
13 fourier 1	0.8283030590042	2	180


Improper Coeffs

1 0.3666666666666667	-1	2
2 3.5	-1	2


Atoms

1	4	1	-0.010497937	0.88072888	-3.587206	3.1807325
2	4	2	0.083302797	0.49446691	-3.3451016	1.8617491
3	4	2	-0.24362028	0.60338162	-4.3332343	0.96796159
4	4	3	0.22321573	0.98450604	-5.3000193	1.2726335
5	4	2	-0.19038546	0.20476401	-4.1280914	-0.43705776
6	4	3	0.21183787	0.31313024	-4.9742936	-1.0952367
7	4	2	-0.15180933	-0.28932083	-2.9401795	-0.85274692
8	4	4	0.012102021	-0.72050747	-2.6456801	-2.309667
9	4	2	-0.15180932	0.14013056	-1.4634116	-2.803299
10	4	2	-0.1911574	1.485862	-1.5862632	-2.8082458
11	4	3	0.21183787	1.9596893	-2.4978229	-2.4668405
12	4	2	-0.21517528	2.3520364	-0.48725635	-3.2743303
13	4	3	0.22355846	3.4259373	-0.62446754	-3.2703345
14	4	2	0.30619326	1.8163434	0.66355728	-3.7000932
15	4	1	-0.41852015	2.6352937	1.6989525	-4.1492236
16	4	2	-0.087129443	0.34275653	0.8355631	-3.6965071
17	4	4	-0.13306245	-0.26273473	2.1103812	-4.2138129
18	4	5	0.095450447	-0.301408	2.0753169	-5.3234434
19	4	5	0.095450447	0.34805858	2.981698	-3.9002567
20	4	5	0.095450447	-1.2915504	2.2601157	-3.8215784
21	4	2	-0.30774942	-0.44611611	-0.17785251	-3.2938227
22	4	3	0.21281047	-1.517162	-0.040914867	-3.3312367
23	4	4	-0.13072799	-0.51045758	-3.8263201	-3.3234072
24	4	5	0.10702975	0.45187476	-4.3508579	-3.1497305
25	4	5	0.10702975	-0.39629361	-3.4011053	-4.3473525
26	4	4	-0.13049365	-1.6760236	-4.840949	-3.4170136
27	4	5	0.10858662	-2.3088496	-4.5884366	-4.2964394
28	4	5	0.10858662	-1.2653929	-5.8597979	-3.5927246
29	4	4	-0.15211235	-2.5775047	-4.8675009	-2.1779415
30	4	5	0.11138625	-2.0238351	-5.3063106	-1.3240417
31	4	5	0.11138625	-3.4358263	-5.5478619	-2.3723689
32	4	4	-0.13049364	-3.1132576	-3.4753629	-1.7984593
33	4	5	0.10858662	-4.1408673	-3.3523191	-2.2051392
34	4	5	0.10858662	-3.1932911	-3.413547	-0.6908405
35	4	4	-0.13072802	-2.2416189	-2.3122986	-2.3122701
36	4	5	0.10702975	-2.4627533	-1.41352	-1.6979097
37	4	5	0.10702975	-2.563996	-2.0856018	-3.3537515
38	4	2	-0.31194809	-0.39395693	-1.8404802	0.14974487
39	4	3	0.21281044	-0.76129009	-0.87291099	-0.17090162
40	4	2	-0.07465019	-0.030056634	-2.0200725	1.4318339
41	4	4	-0.13625474	-0.14414555	-0.89031294	2.417562
42	4	5	0.095450447	-0.545847	0.034421952	1.949708
43	4	5	0.095450447	0.8580081	-0.65671188	2.8354861
44	4	5	0.095450447	-0.82718194	-1.1833428	3.2422654
45	5	2	0.62774193	3.6807993	1.6104505	-4.1667248
46	5	6	-0.4983089	4.3125706	2.0297879	-5.1214448
47	1	1	-0.010497937	0.82363777	-2.880641	3.9024275
48	1	2	0.083302797	0.52281854	-1.5469914	3.6253129
49	1	2	-0.24362028	0.46544172	-0.67651145	4.6377582
50	1	3	0.22321573	0.65163206	-1.0110918	5.6515211
51	1	2	-0.19038546	0.1541725	0.74503569	4.3963763
52	1	3	0.21183787	0.13547926	1.3861514	5.2617515
53	1	2	-0.15180933	-0.069608361	1.2032546	3.1448942
54	1	4	0.012102021	-0.40912373	2.6764336	2.8111743
55	1	2	-0.15180932	-1.784963	2.6729122	2.1104155
56	1	2	-0.15141743	-2.8537384	2.1601906	2.7595201
57	1	3	0.21183787	-2.7501253	1.7507388	3.7561582
58	1	2	-0.3786844	-4.1881618	2.138018	2.1351672
59	1	3	0.2280311	-5.0225717	1.7255789	2.6882966
60	1	2	0.28166723	-4.3669629	2.6262169	0.90038907
61	1	7	-0.63872409	-5.6335979	2.6134708	0.31442721
62	1	8	0.43528304	-6.442297	2.2388618	0.79645922
63	1	2	-0.25978926	-3.2132209	3.1864853	0.15626356
64	1	4	-0.11923466	-3.4199384	3.7738976	-1.2122395
65	1	5	0.095450447	-3.8161227	4.8063575	-1.1129683
66	1	5	0.095450447	-4.1444987	3.1612257	-1.7887233
67	1	5	0.095450447	-2.4700735	3.8050744	-1.7875748
68	1	2	-0.27274194	-2.0001711	3.2275534	0.73804403
69	1	3	0.21281047	-1.1827418	3.6694145	0.18878896
70	1	4	-0.13072799	-0.52286203	3.6355683	4.0498689
71	1	5	0.10702975	-1.0443056	3.1491119	4.9001052
72	1	5	0.10702975	-1.1922783	4.4845216	3.7824867
73	1	4	-0.13049365	0.80529651	4.277798	4.5202186
74	1	5	0.10858662	0.87949862	5.3065721	4.1016867
75	1	5	0.10858662	0.79610016	4.3765448	5.6273927
76	1	4	-0.15211235	2.056004	3.5034116	4.0924459
77	1	5	0.11138625	2.1104857	2.5478149	4.6506437
78	1	5	0.11138625	2.9571408	4.0840534	4.3862359
79	1	4	-0.13049364	2.1033928	3.2317276	2.5776297
80	1	5	0.10858662	2.7435992	3.9961831	2.0862707
81	1	5	0.10858662	2.5854363	2.2448442	2.4068604
82	1	4	-0.13072802	0.71859504	3.2450228	1.9003858
83	1	5	0.10702975	0.79324118	2.6828168	0.94452574
84	1	5	0.10702975	0.48098703	4.3021979	1.641797
85	1	2	-0.31194809	-0.015777224	0.22100644	2.0225521
86	1	3	0.21281044	-0.22049164	0.56450637	1.016021
87	1	2	-0.07465019	0.26387572	-1.0777792	2.2371567
88	1	4	-0.13625474	0.30638539	-2.0432481	1.0848934
89	1	5	0.095450447	0.088553941	-1.5461815	0.11476598
90	1	5	0.095450447	-0.44889492	-2.8414111	1.2403778
91	1	5	0.095450447	1.3158843	-2.4993477	1.0193871
92	2	2	0.46730167	4.1995226	1.1459616	-3.334991
93	2	6	-0.57453316	3.5634776	0.6479839	-2.4207487
94	2	9	-0.084202438	5.9520725	1.1121034	-3.3028583
95	4	1	-0.010497937	1.7632881	-3.5832434	17.141484
96	4	2	0.083302797	0.61913796	-3.1729585	16.455833
97	4	2	-0.24362028	-0.31907856	-4.0810219	16.168961
98	4	3	0.22321573	-0.18420291	-5.1129016	16.468605
99	4	2	-0.19038546	-1.5476394	-3.6962576	15.449479
100	4	3	0.21183787	-2.2608991	-4.4821013	15.263169
101	4	2	-0.15180933	-1.7593471	-2.4154206	15.071738
102	4	4	0.012102021	-3.0169741	-1.9364029	14.307419
103	4	2	-0.15180932	-2.5289539	-1.3231601	12.977795
104	4	2	-0.1911574	-1.8163986	-2.0891053	12.122399
105	4	3	0.21183787	-1.5836713	-3.118501	12.363632
106	4	2	-0.21517528	-1.3310924	-1.5513805	10.837627
107	4	3	0.22355846	-0.76903348	-2.1968268	10.174608
108	4	2	0.30619326	-1.585797	-0.28244184	10.494796
109	4	1	-0.41852015	-1.1345843	0.2228102	9.2759567
110	4	2	-0.087129443	-2.3553737	0.58896977	11.416452
111	4	4	-0.13306245	-2.6791067	2.0009023	11.015167
112	4	5	0.095450447	-3.5577456	1.9977415	10.33547
113	4	5	0.095450447	-1.8164369	2.4591779	10.489465
114	4	5	0.095450447	-2.9098503	2.6321669	11.900036
115	4	2	-0.30774942	-2.8180079	0.08851098	12.577054
116	4	3	0.21281047	-3.4040185	0.7325763	13.216634
117	4	4	-0.13072799	-4.0517994	-3.0609153	13.946435
118	4	5	0.10702975	-3.5478494	-3.9907502	13.610535
119	4	5	0.10702975	-4.6310438	-2.7382353	13.050523
120	4	4	-0.13049365	-5.1046233	-3.374212	15.037391
121	4	5	0.10858662	-6.0489393	-2.8374934	14.79693
122	4	5	0.10858662	-5.3360311	-4.462263	15.025538
123	4	4	-0.15211235	-4.6752676	-2.9654669	16.450633
124	4	5	0.11138625	-3.8548692	-3.6256711	16.796069
125	4	5	0.11138625	-5.5246847	-3.1369663	17.14812
126	4	4	-0.13049364	-4.2386217	-1.4922369	16.540187
127	4	5	0.10858662	-5.0861179	-0.87873078	16.916844
128	4	5	0.10858662	-3.4195771	-1.4076171	17.287884
129	4	4	-0.13072802	-3.7659856	-0.90097021	15.197245
130	4	5	0.10702975	-3.1325267	-0.013738694	15.411002
131	4	5	0.10702975	-4.6677368	-0.53751756	14.654337
132	4	2	-0.31194809	-0.69995291	-1.4130061	15.384989
133	4	3	0.21281044	-0.83900329	-0.38707268	15.065515
134	4	2	-0.07465019	0.42365442	-1.7575556	16.03861
135	4	4	-0.13625474	1.4746457	-0.72417488	16.336225
136	4	5	0.095450447	1.1903114	0.28236199	15.960162
137	4	5	0.095450447	2.4312811	-1.0143397	15.852288
138	4	5	0.095450447	1.6250931	-0.65156004	17.433783
139	5	2	0.62774193	-0.58916894	-0.36609935	8.5999918
140	5	6	-0.4983089	-0.82681287	-0.3024921	7.405861
141	1	1	-0.010497937	2.5087783	-2.9447411	17.386221
142	1	2	0.083302797	2.5581711	-1.6325143	16.915554
143	1	2	-0.24362028	3.5778686	-0.85317363	17.288271
144	1	3	0.22321573	4.3472531	-1.2438031	17.943849
145	1	2	-0.19038546	3.6769329	0.54053559	16.81529
146	1	3	0.21183787	4.5324063	1.1020745	17.151582
147	1	2	-0.15180933	2.7450956	1.0591879	15.985273
148	1	4	0.012102021	2.7745553	2.5124504	15.452304
149	1	2	-0.15180932	1.4665848	3.1883416	15.917485
150	1	2	-0.15141743	1.1957853	3.2596025	17.239638
151	1	3	0.21183787	1.8816213	2.844252	17.966816
152	1	2	-0.3786844	-0.036702167	3.8983706	17.733545
153	1	3	0.2280311	-0.21670045	3.9430577	18.80027
154	1	2	0.28166723	-0.92088879	4.4210132	16.873287
155	1	7	-0.63872409	-2.0830067	5.0345182	17.343364
156	1	8	0.43528304	-2.2905605	5.1001452	18.332957
157	1	2	-0.25978926	-0.659463	4.3503357	15.41541
158	1	4	-0.11923466	-1.6292838	4.9741736	14.450599
159	1	5	0.095450447	-1.4436306	6.0676032	14.398307
160	1	5	0.095450447	-2.6729221	4.7991232	14.786552
161	1	5	0.095450447	-1.5241551	4.5407013	13.433114
162	1	2	-0.27274194	0.47849176	3.7877924	14.967918
163	1	3	0.21281047	0.66138088	3.7770428	13.904175
164	1	4	-0.13072799	3.9635679	3.3949563	15.976395
165	1	5	0.10702975	4.1619403	3.2196091	17.054053
166	1	5	0.10702975	3.6572258	4.4649589	15.936622
167	1	4	-0.13049365	5.2748835	3.3010692	15.15827
168	1	5	0.10858662	5.328959	4.1649413	14.458376
169	1	5	0.10858662	6.1452731	3.3832114	15.844815
170	1	4	-0.15211235	5.4019912	2.016795	14.33279
171	1	5	0.11138625	5.550202	1.152657	15.010298
172	1	5	0.11138625	6.3190616	2.0796263	13.707859
173	1	4	-0.13049364	4.1867	1.7682819	13.420631
174	1	5	0.10858662	4.4180666	2.1251327	12.393588
175	1	5	0.10858662	4.009466	0.67310083	13.352561
176	1	4	-0.13072802	2.897034	2.4630422	13.900809
177	1	5	0.10702975	2.0294483	1.9436029	13.439513
178	1	5	0.10702975	2.907003	3.5031171	13.501948
179	1	2	-0.31194809	1.6036582	0.18497037	15.584991
180	1	3	0.21281044	0.83225285	0.59239103	14.94316
181	1	2	-0.07465019	1.5059682	-1.0860174	16.016444
182	1	4	-0.13625474	0.34077361	-1.9398332	15.598152
183	1	5	0.095450447	-0.36079621	-1.3923715	14.932
184	1	5	0.095450447	-0.2220482	-2.2671681	16.496913
185	1	5	0.095450447	0.71098402	-2.831261	15.050697
186	2	2	0.46730167	0.18643721	-1.0314146	8.963854
187	2	6	-0.57453316	0.36550493	-1.1611878	10.163632
188	2	9	-0.084202438	1.1844219	-1.9192257	7.8283241
189	4	1	-0.010497937	-3.1933719	0.50138631	32.341518
190	4	2	0.083302797	-3.0971016	0.16227556	30.991234
191	4	2	-0.24362028	-4.0997326	-0.51746605	30.425719
192	4	3	0.22321573	-4.9663652	-0.79389603	31.013331
193	4	2	-0.19038546	-4.0467972	-0.89581858	29.001252
194	4	3	0.21183787	-4.8967424	-1.4342696	28.615681
195	4	2	-0.15180933	-2.9887764	-0.55617059	28.231003
196	4	4	0.012102021	-2.8566136	-0.92369193	26.733429
197	4	2	-0.15180932	-1.5718677	-1.7666794	26.58876
198	4	2	-0.1911574	-1.4578215	-2.9173832	27.288034
199	4	3	0.21183787	-2.2519048	-3.2459764	27.946418
200	4	2	-0.21517528	-0.25240499	-3.7605078	27.181165
201	4	3	0.22355846	-0.19945791	-4.679284	27.751387
202	4	2	0.30619326	0.76131207	-3.3955477	26.38631
203	4	1	-0.41852015	1.8969021	-4.1975923	26.278603
204	4	2	-0.087129443	0.67317317	-2.1319983	25.613826
205	4	4	-0.13306245	1.7914421	-1.7415482	24.688402
206	4	5	0.095450447	1.6877574	-2.2964943	23.731694
207	4	5	0.095450447	2.7723085	-1.9869569	25.144751
208	4	5	0.095450447	1.7809851	-0.65095107	24.475755
209	4	2	-0.30774942	-0.43817073	-1.3770742	25.694389
210	4	3	0.21281047	-0.49276905	-0.47830297	25.097295
211	4	4	-0.13072799	-4.0375661	-1.7746892	26.144484
212	4	5	0.10702975	-4.375305	-2.5566123	26.855762
213	4	5	0.10702975	-3.6572679	-2.3582788	25.274369
214	4	4	-0.13049365	-5.243844	-0.96354485	25.611834
215	4	5	0.10858662	-5.1556731	-0.86267538	24.507446
216	4	5	0.10858662	-6.1835419	-1.5235852	25.813991
217	4	4	-0.15211235	-5.3576806	0.4439054	26.207483
218	4	5	0.11138625	-5.644249	0.37400901	27.275772
219	4	5	0.11138625	-6.1873707	0.98324758	25.699415
220	4	4	-0.13049364	-4.0614226	1.2610831	26.062494
221	4	5	0.10858662	-4.1428764	1.9274893	25.176053
222	4	5	0.10858662	-3.9522912	1.9181487	26.953225
223	4	4	-0.13072802	-2.7947687	0.39592649	25.908982
224	4	5	0.10702975	-1.9153067	1.0126056	26.192523
225	4	5	0.10702975	-2.6868638	0.1470486	24.828974
226	4	2	-0.31194809	-1.8696078	0.19045271	28.875435
227	4	3	0.21281044	-1.0006942	0.44696335	28.281188
228	4	2	-0.07465019	-1.9104111	0.53647663	30.174293
229	4	4	-0.13625474	-0.76428775	1.2858432	30.795488
230	4	5	0.095450447	0.048229091	1.4887921	30.064726
231	4	5	0.095450447	-0.33606158	0.68943239	31.62883
232	4	5	0.095450447	-1.1252394	2.259619	31.187937
233	5	2	0.62774193	1.9915605	-5.0979299	26.809313
234	5	6	-0.4983089	2.4603999	-6.0817748	26.262771
235	1	1	-0.010497937	-2.4681594	1.0133452	32.826597
236	1	2	0.083302797	-1.2253142	1.2804931	32.252251
237	1	2	-0.24362028	-0.32265497	1.9651377	32.961152
238	1	3	0.22321573	-0.56196183	2.3012447	33.963195
239	1	2	-0.19038546	1.0067804	2.2703814	32.399567
240	1	3	0.21183787	1.6824509	2.8177063	33.035301
241	1	2	-0.15180933	1.3476778	1.8557504	31.159357
242	1	4	0.012102021	2.7177359	2.1424161	30.497799
243	1	2	-0.15180932	2.4344803	2.9323824	29.201755
244	1	2	-0.15141743	1.7802989	4.1124588	29.279004
245	1	3	0.21183787	1.4520028	4.5001599	30.23482
246	1	2	-0.3786844	1.4902448	4.9054794	28.071536
247	1	3	0.2280311	0.97018182	5.8497038	28.17289
248	1	2	0.28166723	1.8694107	4.4653311	26.864271
249	1	7	-0.63872409	1.6026263	5.2225674	25.722651
250	1	8	0.43528304	1.1202403	6.1122855	25.771503
251	1	2	-0.25978926	2.5798257	3.1694269	26.743082
252	1	4	-0.11923466	3.0441158	2.6943554	25.394258
253	1	5	0.095450447	3.9954144	3.2036722	25.13269
254	1	5	0.095450447	2.2828264	2.9282892	24.620694
255	1	5	0.095450447	3.2083121	1.5956299	25.386028
256	1	2	-0.27274194	2.8648549	2.4585099	27.84988
257	1	3	0.21281047	3.4110918	1.5341418	27.739056
258	1	4	-0.13072799	3.7104333	3.0040681	31.357652
259	1	5	0.10702975	3.1890072	3.83204	31.881123
260	1	5	0.10702975	4.4129724	3.5288195	30.67106
261	1	4	-0.13049365	4.6002482	2.2095068	32.344867
262	1	5	0.10858662	5.60095	2.0500043	31.884209
263	1	5	0.10858662	4.7580329	2.8110933	33.266208
264	1	4	-0.15211235	4.0334269	0.83865317	32.727499
265	1	5	0.11138625	3.1350012	0.97194571	33.36215
266	1	5	0.11138625	4.7781642	0.30356139	33.35563
267	1	4	-0.13049364	3.689369	-0.030073234	31.503708
268	1	5	0.10858662	4.5250195	-0.73617049	31.306719
269	1	5	0.10858662	2.7938469	-0.64383957	31.742032
270	1	4	-0.13072802	3.4224029	0.78181061	30.220713
271	1	5	0.10702975	2.828983	0.1492286	29.525725
272	1	5	0.10702975	4.4055555	0.97240062	29.732829
273	1	2	-0.31194809	0.3283436	1.1029559	30.370929
274	1	3	0.21281044	0.5735896	0.78731857	29.364334
275	1	2	-0.07465019	-0.88744601	0.8249425	30.876566
276	1	4	-0.13625474	-1.893948	0.067960135	30.05463
277	1	5	0.095450447	-1.4979863	-0.19913026	29.050862
278	1	5	0.095450447	-2.8017422	0.69037845	29.912528
279	1	5	0.095450447	-2.169635	-0.8712417	30.577413
280	2	2	0.46730167	1.6723966	-5.1531165	27.844539
281	2	6	-0.57453316	1.1232278	-4.1963541	28.365494
282	2	9	-0.084202438	1.9470798	-6.6163211	28.770386
283	4	1	-0.010497937	1.7358443	-2.396853	46.912816
284	4	2	0.083302797	2.1033937	-1.8944657	45.663799
285	4	2	-0.24362028	3.4013963	-1.7139627	45.399729
286	4	3	0.22321573	4.1456082	-1.95729	46.147857
287	4	2	-0.19038546	3.8404917	-1.1892494	44.093234
288	4	3	0.21183787	4.9031575	-1.080321	43.952248
289	4	2	-0.15180933	2.9427083	-0.88776262	43.128276
290	4	4	0.012102021	3.324506	-0.32591944	41.737654
291	4	2	-0.15180932	2.6176648	1.0386048	41.594203
292	4	2	-0.1911574	2.8757476	2.0112454	42.496131
293	4	3	0.21183787	3.5645331	1.8395162	43.313502
294	4	2	-0.21517528	2.2293764	3.3334978	42.400414
295	4	3	0.22355846	2.4658582	4.0904825	43.137405
296	4	2	0.30619326	1.3642179	3.5947347	41.412553
297	4	1	-0.41852015	0.76030623	4.8479868	41.317206
298	4	2	-0.087129443	1.0496834	2.5449741	40.412489
299	4	4	-0.13306245	0.11150279	2.8495332	39.278273
300	4	5	0.095450447	0.66113887	3.3973365	38.483404
301	4	5	0.095450447	-0.73140768	3.4770107	39.633734
302	4	5	0.095450447	-0.31780126	1.9205721	38.845307
303	4	2	-0.30774942	1.6595782	1.3475581	40.488048
304	4	3	0.21281047	1.4394078	0.61040772	39.72948
305	4	4	-0.13072799	4.8586446	-0.078686023	41.511832
306	4	5	0.10702975	5.3417151	0.35578354	42.411424
307	4	5	0.10702975	4.981998	0.71480208	40.738873
308	4	4	-0.13049365	5.662113	-1.2971511	40.995538
309	4	5	0.10858662	5.7861294	-1.2109918	39.893351
310	4	5	0.10858662	6.6816408	-1.28246	41.440389
311	4	4	-0.15211235	5.001774	-2.6478044	41.292794
312	4	5	0.11138625	5.0440725	-2.8513453	42.381385
313	4	5	0.11138625	5.594166	-3.4527911	40.804453
314	4	4	-0.13049364	3.5457711	-2.7229095	40.799336
315	4	5	0.10858662	3.5166602	-3.2360615	39.813264
316	4	5	0.10858662	2.9605993	-3.3491288	41.508187
317	4	4	-0.13072802	2.8664593	-1.3466697	40.654514
318	4	5	0.10702975	1.7660297	-1.497419	40.676227
319	4	5	0.10702975	3.1236789	-0.9495457	39.64648
320	4	2	-0.31194809	1.4963059	-1.0802647	43.438341
321	4	3	0.21281044	0.76045964	-0.81771645	42.68765
322	4	2	-0.07465019	1.0889949	-1.5560454	44.628366
323	4	4	-0.13625474	-0.37684551	-1.7352908	44.91159
324	4	5	0.095450447	-1.0095887	-1.4367451	44.047939
325	4	5	0.095450447	-0.66788536	-1.1111538	45.782963
326	4	5	0.095450447	-0.58457986	-2.8021618	45.137806
327	5	2	0.62774193	0.96117825	5.6135547	42.006247
328	5	6	-0.4983089	1.1140585	6.7591035	41.617899
329	1	1	-0.010497937	0.7710531	-2.5541584	47.173143
330	1	2	0.083302797	-0.29829142	-2.1247028	46.387028
331	1	2	-0.24362028	-1.5436264	-2.3743285	46.802842
332	1	3	0.22321573	-1.708388	-2.9008169	47.735574
333	1	2	-0.19038546	-2.7078764	-1.9382141	46.008942
334	1	3	0.21183787	-3.6789216	-2.167949	46.414585
335	1	2	-0.15180933	-2.5433428	-1.2664265	44.84796
336	1	4	0.012102021	-3.7123402	-0.78280656	43.955518
337	1	2	-0.15180932	-3.5304135	-1.4509651	42.57549
338	1	2	-0.15141743	-3.5056285	-2.7997942	42.494577
339	1	3	0.21183787	-3.6059046	-3.4081654	43.384242
340	1	2	-0.3786844	-3.3388474	-3.4844336	41.200573
341	1	3	0.2280311	-3.3307287	-4.5667948	41.173624
342	1	2	0.28166723	-3.2034653	-2.7760947	40.071453
343	1	7	-0.63872409	-3.0555659	-3.4263358	38.845406
344	1	8	0.43528304	-3.0441897	-4.4369909	38.773796
345	1	2	-0.25978926	-3.2156856	-1.2943415	40.126245
346	1	4	-0.11923466	-3.1071309	-0.49805498	38.855525
347	1	5	0.095450447	-4.1009327	-0.4559588	38.362193
348	1	5	0.095450447	-2.3790775	-0.97282496	38.164714
349	1	5	0.095450447	-2.7584758	0.53776166	39.054898
350	1	2	-0.27274194	-3.3922973	-0.67155178	41.306324
351	1	3	0.21281047	-3.4298562	0.40715267	41.316275
352	1	4	-0.13072799	-5.1481345	-1.1615492	44.467659
353	1	5	0.10702975	-5.1808678	-2.1937658	44.873741
354	1	5	0.10702975	-5.838595	-1.2009165	43.594706
355	1	4	-0.13049365	-5.7855049	-0.16289878	45.464729
356	1	5	0.10858662	-6.4801018	0.50876135	44.912046
357	1	5	0.10858662	-6.3949753	-0.721248	46.208007
358	1	4	-0.15211235	-4.7684619	0.71409104	46.201917
359	1	5	0.11138625	-4.1895696	0.093305673	46.914116
360	1	5	0.11138625	-5.31574	1.4604792	46.817462
361	1	4	-0.13049364	-3.8112604	1.4521563	45.248108
362	1	5	0.10858662	-4.1778957	2.4893336	45.088321
363	1	5	0.10858662	-2.814163	1.5303901	45.733024
364	1	4	-0.13072802	-3.6561221	0.77113848	43.873827
365	1	5	0.10702975	-2.7052883	1.121437	43.417185
366	1	5	0.10702975	-4.4853381	1.1329167	43.223856
367	1	2	-0.31194809	-1.1487885	-1.0036904	44.385846
368	1	3	0.21281044	-0.99728192	-0.4916415	43.443585
369	1	2	-0.07465019	-0.082805083	-1.4025653	45.103957
370	1	4	-0.13625474	1.3099295	-1.1260557	44.608497
371	1	5	0.095450447	1.3084636	-0.58464109	43.637651
372	1	5	0.095450447	1.8517522	-2.0843495	44.467823
373	1	5	0.095450447	1.8510975	-0.50254115	45.349963
374	2	2	0.46730167	1.0325464	5.3855932	43.064333
375	2	6	-0.57453316	0.96708731	4.2283193	43.444867
376	2	9	-0.084202438	1.240101	6.6799109	44.228495
377	4	1	-0.010497937	-0.55366542	3.5002338	54.038944
378	4	2	0.083302797	-0.064976253	2.2054665	54.21864
379	4	2	-0.24362028	0.12586699	1.4349674	53.142984
380	4	3	0.22321573	-0.096843762	1.818648	52.155086
381	4	2	-0.19038546	0.64403257	0.061040513	53.280419
382	4	3	0.21183787	0.77984783	-0.49437893	52.367148
383	4	2	-0.15180933	0.94777887	-0.44869137	54.495311
384	4	4	0.012102021	1.4867996	-1.8817828	54.721084
385	4	2	-0.15180932	0.4814284	-2.6000648	55.645978
386	4	2	-0.1911574	-0.80526621	-2.7211032	55.251166
387	4	3	0.21183787	-1.1332787	-2.3170604	54.301867
388	4	2	-0.21517528	-1.8033962	-3.4023853	56.096684
389	4	3	0.22355846	-2.8236368	-3.4862664	55.744293
390	4	2	0.30619326	-1.4508006	-3.9133948	57.282921
391	4	1	-0.41852015	-2.3927863	-4.5654253	58.07788
392	4	2	-0.087129443	-0.048819976	-3.7873189	57.751549
393	4	4	-0.13306245	0.35903007	-4.3973043	59.063403
394	4	5	0.095450447	0.53703631	-5.4848716	58.923703
395	4	5	0.095450447	-0.44060427	-4.255524	59.81909
396	4	5	0.095450447	1.2852428	-3.9281257	59.459297
397	4	2	-0.30774942	0.86525024	-3.1868175	56.9671
398	4	3	0.21281047	1.8867864	-3.1361799	57.315225
399	4	4	-0.13072799	1.6304556	-2.7566995	53.425097
400	4	5	0.10702975	0.77266093	-2.6140395	52.735732
401	4	5	0.10702975	1.5610911	-3.831737	53.711083
402	4	4	-0.13049365	2.971443	-2.6093233	52.665616
403	4	5	0.10858662	3.6453766	-3.447268	52.950717
404	4	5	0.10858662	2.787812	-2.69641	51.571888
405	4	4	-0.15211235	3.705423	-1.2944837	52.950472
406	4	5	0.11138625	3.147357	-0.45088144	52.497541
407	4	5	0.11138625	4.6952369	-1.3181721	52.443406
408	4	4	-0.13049364	3.9148788	-1.0403194	54.454006
409	4	5	0.10858662	4.9412332	-1.3568273	54.741981
410	4	5	0.10858662	3.8476176	0.053531112	54.643777
411	4	4	-0.13072802	2.9049013	-1.7772164	55.355894
412	4	5	0.10702975	2.8741332	-1.2605824	56.338892
413	4	5	0.10702975	3.3008984	-2.8022913	55.535922
414	4	2	-0.31194809	0.71830433	0.41487547	55.689828
415	4	3	0.21281044	0.92935492	0.013976807	56.674042
416	4	2	-0.07465019	0.24386353	1.6676329	55.571787
417	4	4	-0.13625474	0.019856327	2.5118368	56.795786
418	4	5	0.095450447	0.29031621	1.974254	57.73026
419	4	5	0.095450447	-1.051382	2.7976472	56.861383
420	4	5	0.095450447	0.64200626	3.4292697	56.734244
421	5	2	0.62774193	-3.3921113	-4.6738092	57.776511
422	5	6	-0.4983089	-3.9728675	-5.7303043	57.958195
423	1	1	-0.010497937	-0.72032265	4.1307043	54.812294
424	1	2	0.083302797	-0.64943614	3.7208379	56.143793
425	1	2	-0.24362028	-0.88222909	4.6180818	57.106515
426	1	3	0.22321573	-1.1215658	5.642481	56.846419
427	1	2	-0.19038546	-0.82230579	4.2336053	58.529378
428	1	3	0.21183787	-1.0311278	5.0103295	59.245859
429	1	2	-0.15180933	-0.54141465	2.9627895	58.893215
430	1	4	0.012102021	-0.45275036	2.4834812	60.36267
431	1	2	-0.15180932	0.97246064	1.9263073	60.568436
432	1	2	-0.15141743	2.0335778	2.7352932	60.35379
433	1	3	0.21183787	1.8910824	3.7601433	60.035904
434	1	2	-0.3786844	3.4128198	2.2518376	60.540756
435	1	3	0.2280311	4.2379954	2.9307153	60.36609
436	1	2	0.28166723	3.6421428	0.98940113	60.926308
437	1	7	-0.63872409	4.9489258	0.53606456	61.112539
438	1	8	0.43528304	5.7503714	1.1375295	60.962187
439	1	2	-0.25978926	2.5005961	0.072386413	61.160186
440	1	4	-0.11923466	2.754207	-1.3316897	61.634356
441	1	5	0.095450447	2.9303634	-1.3231838	62.730571
442	1	5	0.095450447	3.6467674	-1.7541043	61.126823
443	1	5	0.095450447	1.8922869	-1.9964253	61.411991
444	1	2	-0.27274194	1.241086	0.52330973	61.012039
445	1	3	0.21281047	0.42634738	-0.1537377	61.219212
446	1	4	-0.13072799	-0.6748724	3.5986284	61.446343
447	1	5	0.10702975	-0.17614204	4.5495129	61.166109
448	1	5	0.10702975	-0.15326373	3.2945524	62.382183
449	1	4	-0.13049365	-2.1482574	3.8536308	61.848592
450	1	5	0.10858662	-2.3672281	3.3053603	62.792256
451	1	5	0.10858662	-2.2915401	4.9355391	62.059813
452	1	4	-0.15211235	-3.1666568	3.4052588	60.795616
453	1	5	0.11138625	-3.1038695	4.0697888	59.911209
454	1	5	0.11138625	-4.1910363	3.535264	61.207016
455	1	4	-0.13049364	-2.9783577	1.9385717	60.366549
456	1	5	0.10858662	-3.6892443	1.2959409	60.929892
457	1	5	0.10858662	-3.2382682	1.8454219	59.28987
458	1	4	-0.13072802	-1.5504739	1.403404	60.59292
459	1	5	0.10702975	-1.4003751	0.52206867	59.932591
460	1	5	0.10702975	-1.4904231	1.0399896	61.644238
461	1	2	-0.31194809	-0.27052209	1.9712538	57.811163
462	1	3	0.21281044	-0.015721387	0.95469687	58.084465
463	1	2	-0.07465019	-0.31994328	2.3171327	56.511536
464	1	4	-0.13625474	-0.037634427	1.2950734	55.445073
465	1	5	0.095450447	0.1961393	0.29667476	55.874285
466	1	5	0.095450447	0.83224399	1.6214693	54.83806
467	1	5	0.095450447	-0.9256819	1.1884496	54.788256
468	2	2	0.46730167	-3.9085486	-3.8454935	57.303446
469	2	6	-0.57453316	-3.3036895	-2.8187853	57.041931
470	2	9	-0.084202438	-5.613024	-3.980694	56.916026
471	4	1	-0.010497937	-1.4791061	15.838707	-4.3984467
472	4	2	0.083302797	-0.51916211	15.052945	-3.7592166
473	4	2	-0.24362028	0.14109738	14.136028	-4.4736713
474	4	3	0.22321573	-0.072023437	14.01426	-5.5284253
475	4	2	-0.19038546	1.1673966	13.283844	-3.8447427
476	4	3	0.21183787	1.6625605	12.574956	-4.4876206
477	4	2	-0.15180933	1.4722574	13.415815	-2.5341339
478	4	4	0.012102021	2.5290298	12.554449	-1.8016385
479	4	2	-0.15180932	1.7981998	11.825022	-0.65448876
480	4	2	-0.1911574	0.7610734	11.010061	-0.94828782
481	4	3	0.21183787	0.43950936	10.870793	-1.9725983
482	4	2	-0.21517528	0.032921966	10.287274	0.11127916
483	4	3	0.22355846	-0.78864959	9.6376018	-0.1626784
484	4	2	0.30619326	0.38623319	10.430424	1.394748
485	4	1	-0.41852015	-0.29664859	9.7397888	2.3953163
486	4	2	-0.087129443	1.5129629	11.326756	1.7526949
487	4	4	-0.13306245	1.9387653	11.456154	3.1884297
488	4	5	0.095450447	2.5814464	10.591957	3.4606977
489	4	5	0.095450447	1.0510331	11.470791	3.8534833
490	4	5	0.095450447	2.5059236	12.395979	3.3610305
491	4	2	-0.30774942	2.1912788	11.965909	0.78168699
492	4	3	0.21281047	3.0287953	12.587297	1.0640587
493	4	4	-0.13072799	3.22482	11.454845	-2.6805287
494	4	5	0.10702975	2.5025814	10.950023	-3.3550014
495	4	5	0.10702975	3.5772884	10.634944	-2.0128211
496	4	4	-0.13049365	4.4731333	11.921435	-3.4684282
497	4	5	0.10858662	5.3880965	11.631891	-2.9057316
498	4	5	0.10858662	4.5111574	11.392961	-4.446597
499	4	4	-0.15211235	4.5256398	13.433878	-3.7101539
500	4	5	0.11138625	3.7369503	13.722967	-4.4330964
501	4	5	0.11138625	5.495353	13.687352	-4.1926645
502	4	4	-0.13049364	4.3778064	14.251838	-2.4147105
503	4	5	0.10858662	5.3849179	14.552122	-2.051302
504	4	5	0.10858662	3.8237249	15.188269	-2.6452248
505	4	4	-0.13072802	3.6542542	13.497121	-1.2818604
506	4	5	0.10702975	3.2588216	14.245233	-0.56206612
507	4	5	0.10702975	4.416676	12.89204	-0.74094328
508	4	2	-0.31194809	0.72001167	14.432677	-1.7433154
509	4	3	0.21281044	0.93061012	14.533731	-0.68531046
510	4	2	-0.07465019	-0.21863288	15.211302	-2.3099894
511	4	4	-0.13625474	-0.96220339	16.224743	-1.4847176
512	4	5	0.095450447	-0.63293481	16.222886	-0.42313162
513	4	5	0.095450447	-2.0495847	15.999769	-1.5077512
514	4	5	0.095450447	-0.78817424	17.240684	-1.8971713
515	5	2	0.62774193	-1.0968189	9.0967859	2.1773812
516	5	6	-0.4983089	-1.1928421	8.0259197	2.7522674
517	1	1	-0.010497937	-2.0126412	16.547739	-3.9126982
518	1	2	0.083302797	-1.9756314	16.696907	-2.5262332
519	1	2	-0.24362028	-2.7102379	17.660806	-1.962918
520	1	3	0.22321573	-3.3205165	18.308603	-2.5811776
521	1	2	-0.19038546	-2.7075828	17.857195	-0.50094185
522	1	3	0.21183787	-3.3324074	18.648362	-0.12159808
523	1	2	-0.15180933	-1.9710006	17.060424	0.30457211
524	1	4	0.012102021	-1.9093674	17.20751	1.8445277
525	1	2	-0.15180932	-0.4315536	17.461117	2.2129822
526	1	2	-0.15141743	0.20338969	18.533249	1.689647
527	1	3	0.21183787	-0.31195992	19.205333	1.0155605
528	1	2	-0.3786844	1.6116488	18.820483	2.0141425
529	1	3	0.2280311	2.0853993	19.692613	1.581423
530	1	2	0.28166723	2.2953784	18.01479	2.8377672
531	1	7	-0.63872409	3.6262758	18.293932	3.1518845
532	1	8	0.43528304	4.1081293	19.099845	2.7710939
533	1	2	-0.25978926	1.6317384	16.823892	3.4209387
534	1	4	-0.11923466	2.3840575	15.94266	4.3790786
535	1	5	0.095450447	2.3724275	16.403823	5.3890209
536	1	5	0.095450447	3.4367307	15.823366	4.0469098
537	1	5	0.095450447	1.9313332	14.929904	4.4390159
538	1	2	-0.27274194	0.3383106	16.577095	3.1420465
539	1	3	0.21281047	-0.13180446	15.722292	3.6040157
540	1	4	-0.13072799	-2.7454036	18.397229	2.4385402
541	1	5	0.10702975	-2.6627811	19.310343	1.8133674
542	1	5	0.10702975	-2.2916025	18.701618	3.4089757
543	1	4	-0.13049365	-4.2292466	18.080591	2.7478029
544	1	5	0.10858662	-4.3335382	17.852367	3.8322787
545	1	5	0.10858662	-4.8493135	18.980228	2.5432522
546	1	4	-0.15211235	-4.7884972	16.891744	1.959886
547	1	5	0.11138625	-4.8819713	17.165655	0.89032831
548	1	5	0.11138625	-5.8198779	16.677642	2.3147369
549	1	4	-0.13049364	-3.9316984	15.620686	2.1049182
550	1	5	0.10858662	-4.3774644	14.962838	2.8822328
551	1	5	0.10858662	-3.9617284	15.058645	1.1464432
552	1	4	-0.13072802	-2.463969	15.900686	2.484222
553	1	5	0.10702975	-1.8554905	15.015981	2.1972274