Title

112 atoms
113 bonds
216 angles
442 dihedrals
18 impropers

11 atom types
14 bond types
9 angle types
35 dihedral types
3 improper types
-3.075000048 96.92499995 xlo xhi
-3.025000095 96.9749999 ylo yhi
-2.822999954 97.17700005 zlo zhi
0.0 0.0 0.0 xy xz yz

Masses

1	12.01078
2	15.99943
3	14.00672
4	12.01078
5	1.007947
6	1.007947
7	1.007947
8	15.99943
9	12.01078
10	15.99943
11	1.007947


Pair Coeffs

1	0.086879315	3.4806469
2	0.2102061	3.0398122
3	0.16769152	3.206876
4	0.10884061	3.3795318
5	0.015779483	2.6445434
6	0.014090815	1.1034277
7	0.016409246	2.5832257
8	0.16846514	3.0251065
9	0.21	3.3996695
10	0.20947353	2.99716
11	1.2326e-05	0.53453923

Bond Coeffs

1 harmonic	582.698766451	1.225198386222
2 harmonic	492.76746816345	1.381897776683
3 harmonic	279.1350963404	1.454628925034
4 harmonic	352.0565580496	1.450098586273
5 harmonic	505.144496193	1.019481865027
6 harmonic	264.62148576755	1.52190126495
7 harmonic	370.04670688625	1.093899492634
8 harmonic	301.15400723785	1.345741232799
9 harmonic	366.7408841747	1.425895053732
10 harmonic	300.03137914615	1.451203938761
11 harmonic	366.34047229585	1.464762957261
12 harmonic	602.81384337	1.196112346392
13 harmonic	329.96998057905	1.427343958716
14 harmonic	543.5267831885	0.9716763312559


Angle Coeffs

1 harmonic	55.42182150775	117.3465570514
2 harmonic	63.44422595415	115.5071327674
3 harmonic	57.8982893754	126.8062420451
4 harmonic	53.20531626545	116.5475862634
5 harmonic	48.776492647595	115.6030999533
6 harmonic	65.09061609600001	110.3538806181
7 harmonic	201.41175231035	127.4691416191
8 harmonic	55.07882548015	112.8714009681
9 harmonic	33.56981613361	180


Dihedral Coeffs

1 fourier 1	-0.1488678166443	4	180
2 fourier 1	-0.1230328948768	3	180
3 fourier 1	0.2939295466901	2	0
4 fourier 1	-0.3024127022865	1	0
5 fourier 1	0.182238503271	2	0
6 fourier 1	0.02972342374561	3	0
7 fourier 1	1.809047390003	2	180
8 fourier 1	-0.04816277792592	1	0
9 fourier 1	3.101948770557	2	180
10 fourier 1	-0.4252153282372	1	0
11 fourier 1	2.348375642009	2	180
12 fourier 1	1.256156174911	1	0
13 fourier 1	0.9974165607242	2	180
14 fourier 1	0.1155372516788	3	0
15 fourier 1	0.1040663847541	3	0
16 fourier 1	0.09223874044423	3	0
17 fourier 1	0.3159935921949	2	180
18 fourier 1	0.3247796806857	1	180
19 fourier 1	0.1911926717192	3	0
20 fourier 1	2.779853741805	2	180
21 fourier 1	0.1918272375143	3	0
22 fourier 1	0.9202179876409	1	180
23 fourier 1	0.0473758381877	3	0
24 fourier 1	0.4860993122944	2	180
25 fourier 1	0.8916986138746	1	0
26 fourier 1	1.163809172478	2	180
27 fourier 1	0.1679186987369	1	180
28 fourier 1	0.1115525666802	3	0
29 fourier 1	0.3432490222662	1	0
30 fourier 1	0.457973137376	1	0
31 fourier 1	-1.382973039546	1	0
32 fourier 1	0	1	0
33 fourier 1	0.3445382149273	3	0
34 fourier 1	0.1364556373303	1	0
35 fourier 1	0.3026390167484	3	0


Improper Coeffs

1 0.3333333333333333	-1	2
2 0.3666666666666667	-1	2
3 3.5	-1	2


Atoms

1	1	1	0.54276103	4.0289998	0.48899999	1.378
2	1	2	-0.69160098	4.243	-0.71499997	1.679
3	1	3	-0.49039301	2.914	0.85399997	0.56
4	1	4	-0.00066700001	1.977	-0.15700001	0.055
5	1	4	-0.0087550003	0.87	0.421	-0.88499999
6	1	4	-0.17030101	1.567	1.123	-2.082
7	1	5	0.071938001	2.2520001	0.419	-2.602
8	1	5	0.071938001	0.82099998	1.485	-2.823
9	1	5	0.071938001	2.151	2.0090001	-1.763
10	1	4	-0.205533	-0.037	1.4579999	-0.167
11	1	5	0.110777	0.574	2.2349999	0.338
12	1	5	0.110777	-0.65399998	1.99	-0.92699999
13	1	4	0.127625	-0.98799998	0.82499999	0.86299998
14	1	3	-0.51815599	-1.8049999	1.867	1.4960001
15	1	1	0.80865699	-2.503	1.655	2.7279999
16	1	2	-0.60912001	-2.428	0.55299997	3.3340001
17	1	6	0.31490201	-1.867	2.8169999	1.064
18	1	7	0.045237999	-0.382	0.33899999	1.655
19	1	4	-0.20914499	-1.905	-0.20100001	0.17399999
20	1	5	0.11232	-2.5439999	0.345	-0.55699998
21	1	5	0.11232	-2.5910001	-0.65200001	0.926
22	1	4	-0.028478	-1.128	-1.3279999	-0.55500001
23	1	4	-0.172066	-2.1259999	-2.092	-1.46
24	1	5	0.075002998	-1.614	-2.924	-1.99
25	1	5	0.075002998	-2.575	-1.419	-2.2219999
26	1	5	0.075002998	-2.9590001	-2.52	-0.86000001
27	1	4	-0.172066	-0.56800002	-2.3559999	0.463
28	1	5	0.075002998	-0.152	-1.8839999	1.37
29	1	5	0.075002998	0.212	-2.9949999	-0.0040000002
30	1	5	0.075002998	-1.375	-3.0250001	0.833
31	1	4	-0.211339	-0.011	-0.73100001	-1.473
32	1	5	0.112504	-0.51999998	-0.32600001	-2.378
33	1	5	0.112504	0.64200002	-1.549	-1.851
34	1	7	0.068994999	2.556	-0.926	-0.50099999
35	1	7	0.068994999	1.536	-0.66000003	0.92799997
36	1	6	0.31568599	2.7869999	1.869	0.36199999
37	1	8	-0.498909	-3.075	2.4200001	3.132
38	1	4	0.117531	-2.184	3.444	3.484
39	1	4	-0.13864	-1.734	4.2059999	2.2349999
40	1	4	-0.141027	-0.792	5.362	2.6040001
41	1	4	-0.139807	-0.212	6.0700002	1.369
42	1	4	-0.144628	-1.2640001	6.902	0.61699998
43	1	4	0.035980001	-0.634	7.7199998	-0.51200002
44	1	8	-0.167399	-0.101	6.8660002	-1.487
45	1	7	0.086053997	0.16500001	8.3789997	-0.103
46	1	7	0.086053997	-1.419	8.3620005	-0.97100002
47	1	5	0.092836998	-2.04	6.2379999	0.182
48	1	5	0.092836998	-1.7589999	7.6020002	1.325
49	1	5	0.087777004	0.60100001	6.7459998	1.7130001
50	1	5	0.087777004	0.241	5.3200002	0.685
51	1	5	0.087599002	-1.3279999	6.098	3.243
52	1	5	0.087599002	0.057	4.9569998	3.197
53	1	5	0.091724001	-1.211	3.503	1.55
54	1	5	0.091724001	-2.6340001	4.6009998	1.7180001
55	1	7	0.086061001	-2.7049999	4.1409998	4.1750002
56	1	7	0.086061001	-1.304	3.0209999	4.02
57	1	1	0.55542397	4.698	1.256	1.745
58	1	2	-0.68095303	4.2490001	2.158	2.5009999
59	1	3	-0.56915599	6.0770001	1.2359999	1.36
60	1	4	0.12546501	7.0419998	2.2379999	1.83
61	1	7	0.043124001	6.5580001	3.2320001	1.76
62	1	4	-0.210251	7.4299998	1.9349999	3.289
63	1	5	0.11232	6.52	1.96	3.928
64	1	5	0.11232	7.8239999	0.89399999	3.3299999
65	1	4	-0.029012	8.4890003	2.9130001	3.862
66	1	4	-0.172066	9.0039997	2.3329999	5.2010002
67	1	5	0.075002998	9.7609997	3.0090001	5.6550002
68	1	5	0.075002998	8.1709995	2.2049999	5.9260001
69	1	5	0.075002998	9.4759998	1.337	5.053
70	1	4	-0.172066	7.8559999	4.29	4.1830001
71	1	5	0.075002998	7.23	4.6789999	3.365
72	1	5	0.075002998	7.1830001	4.2140002	5.0640001
73	1	5	0.075002998	8.6420002	5.039	4.4190001
74	1	4	-0.21001101	9.7060003	3.0380001	2.8929999
75	1	5	0.11119	10.292	2.095	2.9849999
76	1	5	0.11119	10.391	3.8369999	3.25
77	1	4	0.024095001	9.3879995	3.2290001	1.373
78	1	4	-0.168827	10.675	2.908	0.57099998
79	1	5	0.068529002	10.5	3.0209999	-0.52100003
80	1	5	0.068529002	11.504	3.5880001	0.86500001
81	1	5	0.068529002	11.011	1.864	0.75199997
82	1	4	0.142947	8.9680004	4.684	1.0089999
83	1	3	-0.631441	9.9189997	5.6589999	1.533
84	1	9	0.60034901	9.7629995	6.9060001	1.335
85	1	2	-0.471398	9.6110001	8.1190004	1.142
86	1	7	0.067956999	7.9569998	4.9299998	1.372
87	1	7	0.067956999	8.9189997	4.7880001	-0.098999999
88	1	4	-0.206598	8.2919998	2.2219999	0.93099999
89	1	5	0.110653	8.7130003	1.191	0.94199997
90	1	5	0.110653	7.987	2.4349999	-0.118
91	1	6	0.311813	6.3790002	0.49200001	0.69099998
92	1	8	-0.167399	0.294	7.4549999	-2.1819999
93	1	4	0.035980001	0.074000001	8.7740002	-1.762
94	1	4	-0.144628	1.053	9.1450005	-0.64499998
95	1	4	-0.139755	0.86000001	10.603	-0.20299999
96	1	4	-0.13565999	1.733	10.975	1.006
97	1	4	-0.16655201	3.2249999	11.072	0.64999998
98	1	4	0.089298002	4.053	11.595	1.826
99	1	10	-0.68033201	4.006	10.685	2.8900001
100	1	11	0.38449001	4.5539999	11.083	3.6159999
101	1	7	0.077260002	3.664	12.586	2.151
102	1	7	0.077260002	5.1069999	11.722	1.493
103	1	5	0.095192999	3.6159999	10.075	0.35699999
104	1	5	0.095192999	3.3570001	11.765	-0.20900001
105	1	5	0.087777004	1.3890001	11.963	1.385
106	1	5	0.087777004	1.582	10.232	1.8200001
107	1	5	0.087777004	1.0779999	11.289	-1.051
108	1	5	0.087777004	-0.204	10.751	0.085000001
109	1	5	0.092836998	0.889	8.467	0.221
110	1	5	0.092836998	2.0880001	8.9969997	-1.02
111	1	7	0.086053997	0.23	9.4499998	-2.631
112	1	7	0.086053997	-0.977	8.8979998	-1.414

Bonds

1	1	1	2
2	2	1	3
3	3	1	57
4	4	3	4
5	5	3	36
6	6	4	5
7	7	4	34
8	7	4	35
9	6	5	6
10	6	5	10
11	6	5	31
12	7	6	7
13	7	6	8
14	7	6	9
15	7	10	11
16	7	10	12
17	6	10	13
18	4	13	14
19	7	13	18
20	6	13	19
21	2	14	15
22	5	14	17
23	1	15	16
24	8	15	37
25	7	19	20
26	7	19	21
27	6	19	22
28	6	22	23
29	6	22	27
30	6	22	31
31	7	23	24
32	7	23	25
33	7	23	26
34	7	27	28
35	7	27	29
36	7	27	30
37	7	31	32
38	7	31	33
39	9	37	38
40	6	38	39
41	7	38	55
42	7	38	56
43	6	39	40
44	7	39	53
45	7	39	54
46	6	40	41
47	7	40	51
48	7	40	52
49	6	41	42
50	7	41	49
51	7	41	50
52	6	42	43
53	7	42	47
54	7	42	48
55	9	43	44
56	7	43	45
57	7	43	46
58	10	44	92
59	1	57	58
60	2	57	59
61	4	59	60
62	5	59	91
63	7	60	61
64	6	60	62
65	6	60	88
66	7	62	63
67	7	62	64
68	6	62	65
69	6	65	66
70	6	65	70
71	6	65	74
72	7	66	67
73	7	66	68
74	7	66	69
75	7	70	71
76	7	70	72
77	7	70	73
78	7	74	75
79	7	74	76
80	6	74	77
81	6	77	78
82	6	77	82
83	6	77	88
84	7	78	79
85	7	78	80
86	7	78	81
87	11	82	83
88	7	82	86
89	7	82	87
90	12	83	84
91	1	84	85
92	7	88	89
93	7	88	90
94	9	92	93
95	6	93	94
96	7	93	111
97	7	93	112
98	6	94	95
99	7	94	109
100	7	94	110
101	6	95	96
102	7	95	107
103	7	95	108
104	6	96	97
105	7	96	105
106	7	96	106
107	6	97	98
108	7	97	103
109	7	97	104
110	13	98	99
111	7	98	101
112	7	98	102
113	14	99	100

Angles

1	4	95	96	105
2	4	63	62	65
3	4	6	5	10
4	4	77	78	79
5	4	99	98	101
6	4	4	5	31
7	4	62	65	66
8	2	13	14	17
9	5	89	88	90
10	4	96	97	104
11	4	60	88	90
12	4	83	82	86
13	4	5	31	33
14	4	3	4	5
15	4	65	74	77
16	5	25	23	26
17	4	41	42	48
18	4	74	77	88
19	4	77	78	80
20	4	22	31	33
21	5	79	78	80
22	4	95	96	106
23	5	109	94	110
24	4	5	6	7
25	4	59	60	61
26	1	13	14	15
27	4	39	40	41
28	4	20	19	22
29	4	5	10	11
30	5	72	70	73
31	5	63	62	64
32	4	43	42	48
33	4	40	41	49
34	4	65	74	76
35	4	39	38	56
36	3	1	57	59
37	4	98	97	104
38	5	53	39	54
39	4	27	22	31
40	2	4	3	36
41	4	66	65	74
42	4	93	94	109
43	4	65	74	75
44	4	60	62	63
45	5	29	27	30
46	5	24	23	25
47	4	19	22	27
48	4	39	40	52
49	4	60	62	65
50	5	20	19	21
51	4	62	60	88
52	4	64	62	65
53	4	5	4	35
54	5	55	38	56
55	4	83	82	87
56	5	51	40	52
57	4	78	77	82
58	5	107	95	108
59	4	13	19	21
60	4	42	41	49
61	4	5	10	13
62	4	99	98	102
63	2	57	59	91
64	4	94	93	111
65	4	5	31	22
66	4	23	22	27
67	6	98	99	100
68	5	105	96	106
69	4	40	41	50
70	4	18	13	19
71	4	37	38	39
72	4	41	40	52
73	4	43	42	47
74	4	39	40	51
75	4	77	78	81
76	4	19	22	23
77	5	79	78	81
78	5	45	43	46
79	3	14	15	16
80	4	74	77	82
81	4	74	77	78
82	4	12	10	13
83	4	60	62	64
84	4	21	19	22
85	4	65	66	68
86	4	60	88	77
87	4	94	95	107
88	6	15	37	38
89	5	11	10	12
90	5	111	93	112
91	4	70	65	74
92	2	15	14	17
93	4	3	4	35
94	3	14	15	37
95	4	76	74	77
96	4	94	93	112
97	4	38	39	53
98	5	24	23	26
99	3	58	57	59
100	4	94	95	108
101	5	28	27	29
102	4	6	5	31
103	4	42	41	50
104	4	59	60	88
105	4	14	13	19
106	3	1	57	58
107	2	60	59	91
108	4	61	60	88
109	4	77	88	89
110	4	44	43	45
111	5	68	66	69
112	4	40	39	54
113	5	67	66	68
114	4	5	31	32
115	4	41	42	47
116	3	2	1	3
117	7	16	15	37
118	4	42	43	44
119	4	95	94	110
120	4	5	4	34
121	4	39	38	55
122	4	22	31	32
123	4	4	5	6
124	4	59	60	62
125	4	65	70	73
126	4	14	13	18
127	4	77	88	90
128	4	4	5	10
129	4	37	38	56
130	4	42	43	45
131	6	43	44	92
132	4	66	65	70
133	5	80	78	81
134	4	82	77	88
135	4	97	98	101
136	5	71	70	73
137	4	22	27	29
138	5	7	6	8
139	5	32	31	33
140	9	83	84	85
141	4	62	65	74
142	5	103	97	104
143	4	92	93	112
144	4	65	70	71
145	4	19	22	31
146	4	5	6	8
147	4	41	40	51
148	5	28	27	30
149	4	10	13	19
150	4	60	88	89
151	4	94	95	96
152	4	95	96	97
153	5	8	6	9
154	4	97	98	99
155	8	82	83	84
156	4	37	38	55
157	6	44	92	93
158	4	22	23	24
159	4	22	23	25
160	4	78	77	88
161	4	13	19	20
162	4	3	4	34
163	4	93	94	95
164	4	96	95	107
165	5	7	6	9
166	4	95	94	109
167	4	5	10	12
168	4	23	22	31
169	4	38	39	40
170	2	1	3	36
171	4	77	82	83
172	4	44	43	46
173	5	34	4	35
174	4	92	93	111
175	5	101	98	102
176	4	62	65	70
177	5	47	42	48
178	4	38	39	54
179	4	5	6	9
180	4	10	13	18
181	4	96	95	108
182	4	75	74	77
183	4	92	93	94
184	4	96	97	98
185	4	96	97	103
186	5	86	82	87
187	4	97	96	105
188	4	65	66	69
189	1	1	3	4
190	1	57	59	60
191	4	61	60	62
192	4	77	82	87
193	4	22	27	30
194	4	22	27	28
195	4	40	41	42
196	4	40	39	53
197	4	97	98	102
198	5	49	41	50
199	3	2	1	57
200	5	75	74	76
201	4	42	43	46
202	4	65	70	72
203	4	65	66	67
204	4	13	19	22
205	4	10	13	14
206	4	77	82	86
207	4	11	10	13
208	4	41	42	43
209	5	71	70	72
210	3	3	1	57
211	5	67	66	69
212	4	97	96	106
213	4	98	97	103
214	4	93	94	110
215	4	22	23	26
216	4	10	5	31

Dihedrals

1	16	95	96	97	98
1	17	95	96	97	98
1	18	95	96	97	98
2	16	6	5	10	13
2	17	6	5	10	13
2	18	6	5	10	13
3	15	80	78	77	82
4	15	78	77	88	90
5	19	108	95	94	109
6	15	21	19	22	31
7	5	1	3	4	34
7	6	1	3	4	34
8	14	14	13	19	20
9	7	36	3	1	57
9	8	36	3	1	57
10	5	88	60	59	91
10	6	88	60	59	91
11	23	46	43	44	92
12	5	10	13	14	17
12	6	10	13	14	17
13	15	20	19	22	23
14	15	23	22	27	29
15	15	30	27	22	31
16	15	62	65	70	73
17	15	87	82	77	88
18	15	69	66	65	74
19	1	57	59	60	62
19	2	57	59	60	62
19	3	57	59	60	62
19	4	57	59	60	62
20	31	84	83	82	87
21	19	54	39	38	55
22	14	92	93	94	95
23	14	96	97	98	99
24	15	63	62	65	66
25	15	20	19	22	31
26	19	61	60	62	64
27	15	62	65	70	71
28	15	4	5	6	7
29	15	78	77	82	86
30	15	18	13	19	22
31	15	4	5	10	11
32	9	2	1	3	4
32	10	2	1	3	4
33	15	76	74	77	78
34	16	5	31	22	19
34	17	5	31	22	19
34	18	5	31	22	19
35	14	11	10	13	14
36	15	75	74	77	78
37	15	62	60	88	90
38	1	15	14	13	19
38	2	15	14	13	19
38	3	15	14	13	19
38	4	15	14	13	19
39	15	12	10	5	31
40	13	2	1	57	59
41	15	19	22	27	29
42	5	62	60	59	91
42	6	62	60	59	91
43	28	92	93	94	110
43	29	92	93	94	110
44	16	4	5	10	13
44	17	4	5	10	13
44	18	4	5	10	13
45	19	101	98	97	104
46	5	15	14	13	18
46	6	15	14	13	18
47	23	44	92	93	112
48	19	109	94	93	111
49	16	39	40	41	42
49	17	39	40	41	42
49	18	39	40	41	42
50	19	102	98	97	104
51	11	2	1	3	36
51	12	2	1	3	36
52	19	101	98	97	103
53	15	66	65	70	71
54	15	74	77	78	80
55	14	3	4	5	6
56	14	83	82	77	88
57	23	44	92	93	111
58	5	34	4	3	36
58	6	34	4	3	36
59	19	48	42	41	50
60	15	98	97	96	106
61	14	3	4	5	10
62	15	23	22	31	33
63	15	78	77	88	89
64	19	103	97	96	105
65	15	67	66	65	74
66	20	14	15	37	38
67	15	25	23	22	27
68	15	6	5	4	35
69	31	77	82	83	84
70	5	57	59	60	61
70	6	57	59	60	61
71	15	64	62	65	66
72	19	107	95	94	110
73	15	6	5	31	33
74	15	72	70	65	74
75	15	12	10	13	19
76	15	8	6	5	31
77	15	71	70	65	74
78	15	31	5	4	35
79	13	3	1	57	59
80	19	51	40	39	54
81	15	82	77	88	90
82	15	31	5	4	34
83	16	93	94	95	96
83	17	93	94	95	96
83	18	93	94	95	96
84	15	19	22	31	33
85	15	68	66	65	74
86	15	4	5	6	9
87	15	63	62	65	70
88	19	49	41	40	51
89	15	73	70	65	74
90	23	45	43	44	92
91	14	3	4	5	31
92	19	45	43	42	47
93	15	29	27	22	31
94	14	41	42	43	44
95	14	59	60	88	89
96	16	65	74	77	82
96	17	65	74	77	82
96	18	65	74	77	82
97	15	11	10	5	31
98	15	23	22	31	32
99	19	110	94	93	112
100	19	61	60	62	63
101	15	24	23	22	27
102	15	42	41	40	52
103	15	25	23	22	31
104	15	96	95	94	109
105	15	6	5	31	32
106	15	4	5	31	33
107	19	110	94	93	111
108	16	60	62	65	74
108	17	60	62	65	74
108	18	60	62	65	74
109	15	98	97	96	105
110	15	38	39	40	51
111	15	28	27	22	31
112	11	58	57	59	91
112	12	58	57	59	91
113	15	94	95	96	106
114	15	69	66	65	70
115	19	53	39	38	56
116	15	70	65	74	76
117	15	19	22	31	32
118	19	47	42	41	49
119	15	61	60	88	77
120	19	105	96	95	107
121	19	50	41	40	52
122	15	79	78	77	82
123	15	7	6	5	10
124	19	46	43	42	48
125	14	59	60	62	64
126	14	14	13	19	22
127	15	74	77	78	79
128	15	64	62	65	70
129	15	82	77	88	89
130	15	40	41	42	47
131	5	17	14	13	19
131	6	17	14	13	19
132	15	19	22	23	26
133	15	62	65	66	67
134	35	100	99	98	101
135	14	59	60	62	65
136	15	4	5	6	8
137	19	109	94	93	112
138	19	45	43	42	48
139	19	106	96	95	107
140	19	49	41	40	52
141	5	17	14	13	18
141	6	17	14	13	18
142	15	4	5	31	32
143	15	62	65	74	76
144	15	97	96	95	107
145	15	39	40	41	49
146	15	40	39	38	55
147	19	108	95	94	110
148	15	62	65	66	69
149	15	76	74	77	88
150	15	66	65	74	76
151	15	75	74	77	88
152	14	74	77	82	83
153	23	15	37	38	55
154	15	95	94	93	111
155	35	100	99	98	102
156	15	41	42	43	45
157	15	86	82	77	88
158	15	96	97	98	101
159	9	58	57	59	60
159	10	58	57	59	60
160	15	74	77	82	87
161	15	38	39	40	52
162	15	43	42	41	50
163	15	95	96	97	103
164	16	60	88	77	82
164	17	60	88	77	82
164	18	60	88	77	82
165	15	94	95	96	105
166	28	44	43	42	47
166	29	44	43	42	47
167	16	6	5	31	22
167	17	6	5	31	22
167	18	6	5	31	22
168	15	41	40	39	53
169	15	6	5	4	34
170	14	12	10	13	14
171	19	61	60	88	90
172	15	68	66	65	70
173	16	38	39	40	41
173	17	38	39	40	41
173	18	38	39	40	41
174	16	65	74	77	78
174	17	65	74	77	78
174	18	65	74	77	78
175	19	54	39	38	56
176	15	40	41	42	48
177	15	81	78	77	88
178	15	96	97	98	102
179	15	41	42	43	46
180	33	97	98	99	100
180	34	97	98	99	100
181	15	10	5	31	33
182	19	12	10	13	18
183	15	6	5	10	12
184	15	78	77	82	87
185	30	43	44	92	93
186	15	62	65	70	72
187	15	62	60	88	89
188	19	104	97	96	106
189	28	37	38	39	53
189	29	37	38	39	53
190	31	84	83	82	86
191	7	13	14	15	37
191	8	13	14	15	37
192	15	19	22	23	24
193	14	59	60	62	63
194	14	37	38	39	40
195	1	1	3	4	5
195	2	1	3	4	5
195	3	1	3	4	5
195	4	1	3	4	5
196	15	41	40	39	54
197	15	93	94	95	108
198	16	5	31	22	27
198	17	5	31	22	27
198	18	5	31	22	27
199	15	23	22	27	30
200	19	18	13	19	21
201	15	10	13	19	21
202	15	23	22	27	28
203	21	15	37	38	39
203	22	15	37	38	39
204	16	5	10	13	19
204	17	5	10	13	19
204	18	5	10	13	19
205	13	2	1	57	58
206	19	105	96	95	108
207	15	80	78	77	88
208	7	13	14	15	16
208	8	13	14	15	16
209	16	4	5	31	22
209	17	4	5	31	22
209	18	4	5	31	22
210	14	59	60	88	77
211	15	66	65	70	72
212	7	17	14	15	37
212	8	17	14	15	37
213	19	47	42	41	50
214	15	5	10	13	18
215	15	9	6	5	10
216	28	44	43	42	48
216	29	44	43	42	48
217	15	27	22	31	33
218	15	93	94	95	107
219	15	63	62	65	74
220	28	37	38	39	54
220	29	37	38	39	54
221	15	74	77	88	90
222	23	44	92	93	94
223	15	10	5	4	35
224	15	10	5	31	32
225	15	19	22	27	30
226	15	19	22	27	28
227	15	4	5	10	12
228	16	62	65	74	77
228	17	62	65	74	77
228	18	62	65	74	77
229	28	92	93	94	109
229	29	92	93	94	109
230	24	16	15	14	17
230	25	16	15	14	17
231	15	74	77	82	86
232	15	26	23	22	27
233	19	106	96	95	108
234	15	63	62	60	88
235	5	1	3	4	35
235	6	1	3	4	35
236	16	66	65	74	77
236	17	66	65	74	77
236	18	66	65	74	77
237	16	5	31	22	23
237	17	5	31	22	23
237	18	5	31	22	23
238	15	62	65	74	75
239	19	103	97	96	106
240	15	97	96	95	108
241	15	74	77	78	81
242	15	66	65	74	75
243	19	18	13	19	20
244	15	10	13	19	20
245	15	24	23	22	31
246	19	104	97	96	105
247	16	60	62	65	66
247	17	60	62	65	66
247	18	60	62	65	66
248	13	3	1	57	58
249	15	39	40	41	50
250	15	95	94	93	112
251	16	60	88	77	78
251	17	60	88	77	78
251	18	60	88	77	78
252	19	107	95	94	109
253	15	96	95	94	110
254	15	9	6	5	31
255	7	1	57	59	91
255	8	1	57	59	91
256	15	64	62	60	88
257	16	10	13	19	22
257	17	10	13	19	22
257	18	10	13	19	22
258	15	27	22	31	32
259	15	62	65	66	68
260	16	13	19	22	27
260	17	13	19	22	27
260	18	13	19	22	27
261	1	57	59	60	88
261	2	57	59	60	88
261	3	57	59	60	88
261	4	57	59	60	88
262	15	64	62	65	74
263	15	11	10	13	19
264	15	8	6	5	10
265	15	67	66	65	70
266	15	61	60	62	65
267	15	7	6	5	31
268	15	26	23	22	31
269	14	59	60	88	90
270	15	95	96	97	104
271	15	66	65	70	73
272	19	11	10	13	18
273	1	10	13	14	15
273	2	10	13	14	15
273	3	10	13	14	15
273	4	10	13	14	15
274	15	42	41	40	51
275	19	51	40	39	53
276	32	82	83	84	85
277	15	74	77	88	89
278	19	102	98	97	103
279	15	76	74	77	82
280	15	19	22	23	25
281	19	52	40	39	53
282	15	75	74	77	82
283	23	42	43	44	92
284	26	16	15	37	38
284	27	16	15	37	38
285	5	61	60	59	91
285	6	61	60	59	91
286	14	78	77	82	83
287	16	13	10	5	31
287	17	13	10	5	31
287	18	13	10	5	31
288	16	10	5	31	22
288	17	10	5	31	22
288	18	10	5	31	22
289	19	48	42	41	49
290	16	13	19	22	23
290	17	13	19	22	23
290	18	13	19	22	23
291	19	53	39	38	55
292	19	50	41	40	51
293	7	4	3	1	57
293	8	4	3	1	57
294	28	99	98	97	104
294	29	99	98	97	104
295	15	43	42	41	49
296	16	60	88	77	74
296	17	60	88	77	74
296	18	60	88	77	74
297	7	1	57	59	60
297	8	1	57	59	60
298	16	70	65	74	77
298	17	70	65	74	77
298	18	70	65	74	77
299	16	13	19	22	31
299	17	13	19	22	31
299	18	13	19	22	31
300	16	65	74	77	88
300	17	65	74	77	88
300	18	65	74	77	88
301	28	99	98	97	103
301	29	99	98	97	103
302	15	21	19	22	27
303	14	14	13	19	21
304	16	65	62	60	88
304	17	65	62	60	88
304	18	65	62	60	88
305	15	40	39	38	56
306	19	46	43	42	47
307	15	81	78	77	82
308	14	5	10	13	14
309	16	60	62	65	70
309	17	60	62	65	70
309	18	60	62	65	70
310	15	70	65	74	75
311	16	62	60	88	77
311	17	62	60	88	77
311	18	62	60	88	77
312	19	52	40	39	54
313	23	15	37	38	56
314	16	94	95	96	97
314	17	94	95	96	97
314	18	94	95	96	97
315	5	35	4	3	36
315	6	35	4	3	36
316	15	20	19	22	27
317	15	6	5	10	11
318	5	5	4	3	36
318	6	5	4	3	36
319	15	79	78	77	88
320	15	21	19	22	23
321	19	61	60	88	89
322	16	40	41	42	43
322	17	40	41	42	43
322	18	40	41	42	43
323	15	10	5	4	34

Impropers

22	1	59	57	60	91
46	2	1	57	2	3
91	3	15	14	16	37
92	2	1	3	57	2
103	2	57	1	58	59
124	1	14	17	13	15
150	1	3	36	1	4
199	2	1	2	3	57
309	1	59	91	57	60
376	1	14	15	17	13
385	1	59	60	91	57
422	3	15	16	37	14
505	2	57	58	59	1
546	1	3	1	4	36
561	3	15	37	14	16
590	1	14	13	15	17
594	1	3	4	36	1
699	2	57	59	1	58
