Title

112 atoms
113 bonds
216 angles
442 dihedrals
18 impropers

11 atom types
14 bond types
9 angle types
35 dihedral types
3 improper types
-3.075000048 96.92499995 xlo xhi
-3.025000095 96.9749999 ylo yhi
-2.822999954 97.17700005 zlo zhi
0.0 0.0 0.0 xy xz yz

Masses

1	12.01078
2	15.99943
3	14.00672
4	12.01078
5	1.007947
6	1.007947
7	1.007947
8	15.99943
9	12.01078
10	15.99943
11	1.007947


Pair Coeffs

1	0.086879315	3.4806469
2	0.2102061	3.0398122
3	0.16769152	3.206876
4	0.10884061	3.3795318
5	0.015779483	2.6445434
6	0.014090815	1.1034277
7	0.016409246	2.5832257
8	0.16846514	3.0251065
9	0.21	3.3996695
10	0.20947353	2.99716
11	1.2326e-05	0.53453923

Bond Coeffs

1 harmonic	582.698766451	1.225198386222
2 harmonic	492.76746816345	1.381897776683
3 harmonic	279.1350963404	1.454628925034
4 harmonic	352.0565580496	1.450098586273
5 harmonic	505.144496193	1.019481865027
6 harmonic	264.62148576755	1.52190126495
7 harmonic	370.04670688625	1.093899492634
8 harmonic	301.15400723785	1.345741232799
9 harmonic	366.7408841747	1.425895053732
10 harmonic	300.03137914615	1.451203938761
11 harmonic	366.34047229585	1.464762957261
12 harmonic	602.81384337	1.196112346392
13 harmonic	329.96998057905	1.427343958716
14 harmonic	543.5267831885	0.9716763312559


Angle Coeffs

1 harmonic	55.42182150775	117.3465570514
2 harmonic	63.44422595415	115.5071327674
3 harmonic	57.8982893754	126.8062420451
4 harmonic	53.20531626545	116.5475862634
5 harmonic	48.776492647595	115.6030999533
6 harmonic	65.09061609600001	110.3538806181
7 harmonic	201.41175231035	127.4691416191
8 harmonic	55.07882548015	112.8714009681
9 harmonic	33.56981613361	180


Dihedral Coeffs

1 fourier 1	-0.1488678166443	4	180
2 fourier 1	-0.1230328948768	3	180
3 fourier 1	0.2939295466901	2	0
4 fourier 1	-0.3024127022865	1	0
5 fourier 1	0.182238503271	2	0
6 fourier 1	0.02972342374561	3	0
7 fourier 1	1.809047390003	2	180
8 fourier 1	-0.04816277792592	1	0
9 fourier 1	3.101948770557	2	180
10 fourier 1	-0.4252153282372	1	0
11 fourier 1	2.348375642009	2	180
12 fourier 1	1.256156174911	1	0
13 fourier 1	0.9974165607242	2	180
14 fourier 1	0.1155372516788	3	0
15 fourier 1	0.1040663847541	3	0
16 fourier 1	0.09223874044423	3	0
17 fourier 1	0.3159935921949	2	180
18 fourier 1	0.3247796806857	1	180
19 fourier 1	0.1911926717192	3	0
20 fourier 1	2.779853741805	2	180
21 fourier 1	0.1918272375143	3	0
22 fourier 1	0.9202179876409	1	180
23 fourier 1	0.0473758381877	3	0
24 fourier 1	0.4860993122944	2	180
25 fourier 1	0.8916986138746	1	0
26 fourier 1	1.163809172478	2	180
27 fourier 1	0.1679186987369	1	180
28 fourier 1	0.1115525666802	3	0
29 fourier 1	0.3432490222662	1	0
30 fourier 1	0.457973137376	1	0
31 fourier 1	-1.382973039546	1	0
32 fourier 1	0	1	0
33 fourier 1	0.3445382149273	3	0
34 fourier 1	0.1364556373303	1	0
35 fourier 1	0.3026390167484	3	0


Improper Coeffs

1 0.3333333333333333	-1	2
2 0.3666666666666667	-1	2
3 3.5	-1	2


Atoms

1	1	1	0.54276103	4.0289998	0.48899999	1.378
2	1	2	-0.69160098	4.243	-0.71499997	1.679
3	1	3	-0.49039301	2.914	0.85399997	0.56
4	1	4	-0.00066700001	1.977	-0.15700001	0.055
5	1	4	-0.0087550003	0.87	0.421	-0.88499999
6	1	4	-0.17030101	1.567	1.123	-2.082
7	1	5	0.071938001	2.2520001	0.419	-2.602
8	1	5	0.071938001	0.82099998	1.485	-2.823
9	1	5	0.071938001	2.151	2.0090001	-1.763
10	1	4	-0.205533	-0.037	1.4579999	-0.167
11	1	5	0.110777	0.574	2.2349999	0.338
12	1	5	0.110777	-0.65399998	1.99	-0.92699999
13	1	4	0.127625	-0.98799998	0.82499999	0.86299998
14	1	3	-0.51815599	-1.8049999	1.867	1.4960001
15	1	1	0.80865699	-2.503	1.655	2.7279999
16	1	2	-0.60912001	-2.428	0.55299997	3.3340001
17	1	6	0.31490201	-1.867	2.8169999	1.064
18	1	7	0.045237999	-0.382	0.33899999	1.655
19	1	4	-0.20914499	-1.905	-0.20100001	0.17399999
20	1	5	0.11232	-2.5439999	0.345	-0.55699998
21	1	5	0.11232	-2.5910001	-0.65200001	0.926
22	1	4	-0.028478	-1.128	-1.3279999	-0.55500001
23	1	4	-0.172066	-2.1259999	-2.092	-1.46
24	1	5	0.075002998	-1.614	-2.924	-1.99
25	1	5	0.075002998	-2.575	-1.419	-2.2219999
26	1	5	0.075002998	-2.9590001	-2.52	-0.86000001
27	1	4	-0.172066	-0.56800002	-2.3559999	0.463
28	1	5	0.075002998	-0.152	-1.8839999	1.37
29	1	5	0.075002998	0.212	-2.9949999	-0.0040000002
30	1	5	0.075002998	-1.375	-3.0250001	0.833
31	1	4	-0.211339	-0.011	-0.73100001	-1.473
32	1	5	0.112504	-0.51999998	-0.32600001	-2.378
33	1	5	0.112504	0.64200002	-1.549	-1.851
34	1	7	0.068994999	2.556	-0.926	-0.50099999
35	1	7	0.068994999	1.536	-0.66000003	0.92799997
36	1	6	0.31568599	2.7869999	1.869	0.36199999
37	1	8	-0.498909	-3.075	2.4200001	3.132
38	1	4	0.117531	-2.184	3.444	3.484
39	1	4	-0.13864	-1.734	4.2059999	2.2349999
40	1	4	-0.141027	-0.792	5.362	2.6040001
41	1	4	-0.139807	-0.212	6.0700002	1.369
42	1	4	-0.144628	-1.2640001	6.902	0.61699998
43	1	4	0.035980001	-0.634	7.7199998	-0.51200002
44	1	8	-0.167399	-0.101	6.8660002	-1.487
45	1	7	0.086053997	0.16500001	8.3789997	-0.103
46	1	7	0.086053997	-1.419	8.3620005	-0.97100002
47	1	5	0.092836998	-2.04	6.2379999	0.182
48	1	5	0.092836998	-1.7589999	7.6020002	1.325
49	1	5	0.087777004	0.60100001	6.7459998	1.7130001
50	1	5	0.087777004	0.241	5.3200002	0.685
51	1	5	0.087599002	-1.3279999	6.098	3.243
52	1	5	0.087599002	0.057	4.9569998	3.197
53	1	5	0.091724001	-1.211	3.503	1.55
54	1	5	0.091724001	-2.6340001	4.6009998	1.7180001
55	1	7	0.086061001	-2.7049999	4.1409998	4.1750002
56	1	7	0.086061001	-1.304	3.0209999	4.02
57	1	1	0.55542397	4.698	1.256	1.745
58	1	2	-0.68095303	4.2490001	2.158	2.5009999
59	1	3	-0.56915599	6.0770001	1.2359999	1.36
60	1	4	0.12546501	7.0419998	2.2379999	1.83
61	1	7	0.043124001	6.5580001	3.2320001	1.76
62	1	4	-0.210251	7.4299998	1.9349999	3.289
63	1	5	0.11232	6.52	1.96	3.928
64	1	5	0.11232	7.8239999	0.89399999	3.3299999
65	1	4	-0.029012	8.4890003	2.9130001	3.862
66	1	4	-0.172066	9.0039997	2.3329999	5.2010002
67	1	5	0.075002998	9.7609997	3.0090001	5.6550002
68	1	5	0.075002998	8.1709995	2.2049999	5.9260001
69	1	5	0.075002998	9.4759998	1.337	5.053
70	1	4	-0.172066	7.8559999	4.29	4.1830001
71	1	5	0.075002998	7.23	4.6789999	3.365
72	1	5	0.075002998	7.1830001	4.2140002	5.0640001
73	1	5	0.075002998	8.6420002	5.039	4.4190001
74	1	4	-0.21001101	9.7060003	3.0380001	2.8929999
75	1	5	0.11119	10.292	2.095	2.9849999
76	1	5	0.11119	10.391	3.8369999	3.25
77	1	4	0.024095001	9.3879995	3.2290001	1.373
78	1	4	-0.168827	10.675	2.908	0.57099998
79	1	5	0.068529002	10.5	3.0209999	-0.52100003
80	1	5	0.068529002	11.504	3.5880001	0.86500001
81	1	5	0.068529002	11.011	1.864	0.75199997
82	1	4	0.142947	8.9680004	4.684	1.0089999
83	1	3	-0.631441	9.9189997	5.6589999	1.533
84	1	9	0.60034901	9.7629995	6.9060001	1.335
85	1	2	-0.471398	9.6110001	8.1190004	1.142
86	1	7	0.067956999	7.9569998	4.9299998	1.372
87	1	7	0.067956999	8.9189997	4.7880001	-0.098999999
88	1	4	-0.206598	8.2919998	2.2219999	0.93099999
89	1	5	0.110653	8.7130003	1.191	0.94199997
90	1	5	0.110653	7.987	2.4349999	-0.118
91	1	6	0.311813	6.3790002	0.49200001	0.69099998
92	1	8	-0.167399	0.294	7.4549999	-2.1819999
93	1	4	0.035980001	0.074000001	8.7740002	-1.762
94	1	4	-0.144628	1.053	9.1450005	-0.64499998
95	1	4	-0.139755	0.86000001	10.603	-0.20299999
96	1	4	-0.13565999	1.733	10.975	1.006
97	1	4	-0.16655201	3.2249999	11.072	0.64999998
98	1	4	0.089298002	4.053	11.595	1.826
99	1	10	-0.68033201	4.006	10.685	2.8900001
100	1	11	0.38449001	4.5539999	11.083	3.6159999
101	1	7	0.077260002	3.664	12.586	2.151
102	1	7	0.077260002	5.1069999	11.722	1.493
103	1	5	0.095192999	3.6159999	10.075	0.35699999
104	1	5	0.095192999	3.3570001	11.765	-0.20900001
105	1	5	0.087777004	1.3890001	11.963	1.385
106	1	5	0.087777004	1.582	10.232	1.8200001
107	1	5	0.087777004	1.0779999	11.289	-1.051
108	1	5	0.087777004	-0.204	10.751	0.085000001
109	1	5	0.092836998	0.889	8.467	0.221
110	1	5	0.092836998	2.0880001	8.9969997	-1.02
111	1	7	0.086053997	0.23	9.4499998	-2.631
112	1	7	0.086053997	-0.977	8.8979998	-1.414

Bonds

1	1	1	2
2	2	1	3
3	3	1	57
4	4	3	4
5	5	3	36
6	6	4	5
7	7	4	34
8	7	4	35
9	6	5	6
10	6	5	10
11	6	5	31
12	7	6	7
13	7	6	8
14	7	6	9
15	7	10	11
16	7	10	12
17	6	10	13
18	4	13	14
19	7	13	18
20	6	13	19
21	2	14	15
22	5	14	17
23	1	15	16
24	8	15	37
25	7	19	20
26	7	19	21
27	6	19	22
28	6	22	23
29	6	22	27
30	6	22	31
31	7	23	24
32	7	23	25
33	7	23	26
34	7	27	28
35	7	27	29
36	7	27	30
37	7	31	32
38	7	31	33
39	9	37	38
40	6	38	39
41	7	38	55
42	7	38	56
43	6	39	40
44	7	39	53
45	7	39	54
46	6	40	41
47	7	40	51
48	7	40	52
49	6	41	42
50	7	41	49
51	7	41	50
52	6	42	43
53	7	42	47
54	7	42	48
55	9	43	44
56	7	43	45
57	7	43	46
58	10	44	92
59	1	57	58
60	2	57	59
61	4	59	60
62	5	59	91
63	7	60	61
64	6	60	62
65	6	60	88
66	7	62	63
67	7	62	64
68	6	62	65
69	6	65	66
70	6	65	70
71	6	65	74
72	7	66	67
73	7	66	68
74	7	66	69
75	7	70	71
76	7	70	72
77	7	70	73
78	7	74	75
79	7	74	76
80	6	74	77
81	6	77	78
82	6	77	82
83	6	77	88
84	7	78	79
85	7	78	80
86	7	78	81
87	11	82	83
88	7	82	86
89	7	82	87
90	12	83	84
91	1	84	85
92	7	88	89
93	7	88	90
94	9	92	93
95	6	93	94
96	7	93	111
97	7	93	112
98	6	94	95
99	7	94	109
100	7	94	110
101	6	95	96
102	7	95	107
103	7	95	108
104	6	96	97
105	7	96	105
106	7	96	106
107	6	97	98
108	7	97	103
109	7	97	104
110	13	98	99
111	7	98	101
112	7	98	102
113	14	99	100

Angles

1	4	65	74	76
2	4	62	65	66
3	2	60	59	91
4	4	78	77	88
5	4	59	60	61
6	3	14	15	37
7	5	24	23	26
8	4	4	5	6
9	4	5	4	34
10	5	51	40	52
11	4	38	39	40
12	5	80	78	81
13	4	77	78	79
14	4	65	74	77
15	5	103	97	104
16	5	11	10	12
17	4	59	60	62
18	4	99	98	101
19	4	12	10	13
20	5	29	27	30
21	5	68	66	69
22	5	45	43	46
23	4	23	22	31
24	4	62	65	74
25	4	22	31	32
26	4	65	70	72
27	4	96	95	107
28	4	22	23	26
29	4	42	43	44
30	4	5	4	35
31	3	1	57	58
32	4	41	42	47
33	4	4	5	31
34	4	65	66	69
35	4	77	78	80
36	4	13	19	22
37	4	3	4	34
38	4	18	13	19
39	4	74	77	82
40	4	96	97	103
41	6	44	92	93
42	5	7	6	8
43	6	15	37	38
44	4	62	65	70
45	4	70	65	74
46	5	86	82	87
47	5	55	38	56
48	4	95	96	105
49	4	42	41	50
50	4	41	42	43
51	9	83	84	85
52	4	5	10	11
53	4	39	40	51
54	4	22	31	33
55	4	43	42	47
56	4	6	5	31
57	4	65	70	73
58	4	74	77	78
59	4	92	93	111
60	5	109	94	110
61	4	42	43	45
62	1	13	14	15
63	3	58	57	59
64	3	3	1	57
65	4	61	60	62
66	4	66	65	74
67	4	10	13	19
68	4	20	19	22
69	4	14	13	19
70	4	22	27	28
71	4	78	77	82
72	4	66	65	70
73	4	94	95	96
74	4	5	10	12
75	5	49	41	50
76	4	39	40	52
77	4	38	39	53
78	3	2	1	57
79	4	60	62	63
80	4	93	94	95
81	4	96	97	98
82	4	22	27	29
83	5	79	78	80
84	4	98	97	103
85	5	28	27	29
86	5	67	66	68
87	4	44	43	45
88	4	60	88	89
89	4	93	94	109
90	7	16	15	37
91	2	57	59	91
92	5	71	70	72
93	4	97	96	105
94	4	19	22	27
95	4	95	94	109
96	4	11	10	13
97	4	60	62	64
98	5	101	98	102
99	4	99	98	102
100	4	5	6	7
101	4	94	93	111
102	4	39	38	55
103	5	111	93	112
104	4	21	19	22
105	4	97	98	101
106	2	4	3	36
107	4	96	95	108
108	4	5	31	32
109	4	19	22	23
110	5	75	74	76
111	4	44	43	46
112	4	94	95	107
113	3	1	57	59
114	4	40	41	49
115	4	41	42	48
116	4	39	40	41
117	4	77	82	86
118	4	41	40	51
119	5	71	70	73
120	4	77	78	81
121	4	3	4	35
122	4	93	94	110
123	4	96	97	104
124	4	97	98	99
125	4	62	60	88
126	5	7	6	9
127	6	43	44	92
128	8	82	83	84
129	4	40	39	53
130	5	72	70	73
131	5	89	88	90
132	4	5	6	8
133	4	95	96	106
134	4	74	77	88
135	4	97	98	102
136	4	76	74	77
137	4	60	88	77
138	5	105	96	106
139	4	43	42	48
140	4	65	74	75
141	4	5	31	33
142	4	83	82	86
143	4	92	93	112
144	4	82	77	88
145	4	42	43	46
146	4	75	74	77
147	5	34	4	35
148	4	77	82	87
149	5	25	23	26
150	2	1	3	36
151	4	92	93	94
152	4	61	60	88
153	3	14	15	16
154	4	19	22	31
155	5	63	62	64
156	4	22	23	24
157	4	77	82	83
158	5	53	39	54
159	4	77	88	89
160	4	65	66	67
161	4	5	10	13
162	4	13	19	20
163	4	38	39	54
164	4	83	82	87
165	4	27	22	31
166	4	40	41	50
167	2	13	14	17
168	5	107	95	108
169	5	47	42	48
170	1	57	59	60
171	4	59	60	88
172	5	8	6	9
173	4	37	38	39
174	4	40	41	42
175	4	42	41	49
176	4	63	62	65
177	4	22	27	30
178	3	2	1	3
179	4	65	70	71
180	5	79	78	81
181	4	98	97	104
182	4	22	23	25
183	4	10	5	31
184	5	28	27	30
185	5	32	31	33
186	4	60	88	90
187	5	67	66	69
188	6	98	99	100
189	4	77	88	90
190	4	65	66	68
191	4	13	19	21
192	4	97	96	106
193	4	95	94	110
194	4	60	62	65
195	1	1	3	4
196	4	94	93	112
197	4	39	38	56
198	4	95	96	97
199	4	37	38	55
200	4	4	5	10
201	4	5	31	22
202	4	94	95	108
203	2	15	14	17
204	4	10	13	18
205	4	41	40	52
206	4	23	22	27
207	5	20	19	21
208	4	14	13	18
209	4	40	39	54
210	5	24	23	25
211	4	5	6	9
212	4	3	4	5
213	4	64	62	65
214	4	10	13	14
215	4	6	5	10
216	4	37	38	56

Dihedrals

1	16	39	40	41	42
1	17	39	40	41	42
1	18	39	40	41	42
2	15	98	97	96	106
3	19	45	43	42	48
4	15	74	77	88	90
5	28	99	98	97	103
5	29	99	98	97	103
6	15	74	77	82	87
7	23	44	92	93	94
8	15	75	74	77	88
9	15	30	27	22	31
10	19	61	60	62	64
11	16	62	65	74	77
11	17	62	65	74	77
11	18	62	65	74	77
12	15	62	65	70	72
13	1	57	59	60	88
13	2	57	59	60	88
13	3	57	59	60	88
13	4	57	59	60	88
14	19	52	40	39	53
15	15	10	13	19	21
16	14	96	97	98	99
17	28	92	93	94	110
17	29	92	93	94	110
18	28	37	38	39	53
18	29	37	38	39	53
19	15	23	22	31	32
20	19	110	94	93	112
21	15	96	97	98	102
22	19	107	95	94	109
23	16	66	65	74	77
23	17	66	65	74	77
23	18	66	65	74	77
24	15	66	65	70	72
25	15	93	94	95	108
26	15	82	77	88	90
27	15	64	62	65	70
28	5	88	60	59	91
28	6	88	60	59	91
29	16	13	19	22	23
29	17	13	19	22	23
29	18	13	19	22	23
30	7	13	14	15	37
30	8	13	14	15	37
31	5	57	59	60	61
31	6	57	59	60	61
32	5	34	4	3	36
32	6	34	4	3	36
33	19	51	40	39	54
34	5	1	3	4	35
34	6	1	3	4	35
35	15	78	77	82	87
36	15	63	62	65	74
37	15	41	40	39	54
38	15	4	5	6	7
39	15	95	96	97	104
40	19	53	39	38	56
41	19	61	60	88	89
42	15	8	6	5	31
43	16	70	65	74	77
43	17	70	65	74	77
43	18	70	65	74	77
44	15	43	42	41	49
45	1	10	13	14	15
45	2	10	13	14	15
45	3	10	13	14	15
45	4	10	13	14	15
46	15	69	66	65	70
47	19	109	94	93	112
48	14	37	38	39	40
49	15	78	77	88	90
50	15	98	97	96	105
51	19	49	41	40	52
52	19	45	43	42	47
53	15	12	10	5	31
54	15	74	77	88	89
55	14	59	60	88	77
56	5	61	60	59	91
56	6	61	60	59	91
57	19	50	41	40	51
58	26	16	15	37	38
58	27	16	15	37	38
59	15	74	77	82	86
60	15	62	65	74	76
61	15	86	82	77	88
62	15	41	42	43	45
63	31	77	82	83	84
64	15	40	39	38	56
65	16	65	62	60	88
65	17	65	62	60	88
65	18	65	62	60	88
66	15	23	22	27	30
67	19	110	94	93	111
68	14	3	4	5	10
69	15	66	65	74	76
70	15	4	5	10	12
71	15	93	94	95	107
72	19	18	13	19	21
73	15	21	19	22	27
74	23	42	43	44	92
75	15	67	66	65	74
76	28	44	43	42	47
76	29	44	43	42	47
77	32	82	83	84	85
78	23	44	92	93	111
79	15	97	96	95	107
80	19	47	42	41	49
81	14	3	4	5	6
82	16	6	5	10	13
82	17	6	5	10	13
82	18	6	5	10	13
83	16	5	31	22	23
83	17	5	31	22	23
83	18	5	31	22	23
84	5	17	14	13	19
84	6	17	14	13	19
85	19	51	40	39	53
86	5	1	3	4	34
86	6	1	3	4	34
87	15	73	70	65	74
88	16	62	60	88	77
88	17	62	60	88	77
88	18	62	60	88	77
89	16	60	88	77	78
89	17	60	88	77	78
89	18	60	88	77	78
90	15	63	62	60	88
91	15	94	95	96	106
92	15	20	19	22	31
93	15	79	78	77	82
94	15	4	5	31	33
95	15	95	96	97	103
96	14	59	60	62	65
97	15	62	65	66	67
98	19	106	96	95	108
99	15	70	65	74	76
100	15	26	23	22	31
101	15	62	60	88	90
102	19	49	41	40	51
103	16	60	88	77	82
103	17	60	88	77	82
103	18	60	88	77	82
104	33	97	98	99	100
104	34	97	98	99	100
105	15	64	62	65	66
106	14	5	10	13	14
107	15	63	62	65	66
108	19	46	43	42	48
109	14	41	42	43	44
110	19	102	98	97	103
111	13	2	1	57	58
112	15	19	22	31	33
113	15	95	94	93	111
114	15	6	5	4	34
115	15	40	41	42	48
116	15	40	39	38	55
117	15	23	22	27	29
118	19	11	10	13	18
119	19	105	96	95	108
120	15	4	5	10	11
121	9	2	1	3	4
121	10	2	1	3	4
122	23	15	37	38	55
123	7	4	3	1	57
123	8	4	3	1	57
124	15	5	10	13	18
125	19	18	13	19	20
126	14	78	77	82	83
127	15	63	62	65	70
128	15	79	78	77	88
129	15	81	78	77	82
130	15	10	5	31	33
131	15	9	6	5	10
132	14	14	13	19	21
133	14	83	82	77	88
134	16	93	94	95	96
134	17	93	94	95	96
134	18	93	94	95	96
135	5	17	14	13	18
135	6	17	14	13	18
136	19	104	97	96	106
137	15	76	74	77	82
138	16	38	39	40	41
138	17	38	39	40	41
138	18	38	39	40	41
139	15	94	95	96	105
140	15	4	5	31	32
141	14	59	60	62	64
142	15	19	22	27	29
143	15	19	22	23	24
144	15	7	6	5	31
145	15	80	78	77	82
146	15	27	22	31	33
147	15	12	10	13	19
148	15	6	5	31	33
149	15	21	19	22	23
150	15	74	77	78	81
151	19	61	60	62	63
152	15	67	66	65	70
153	19	54	39	38	56
154	15	62	65	70	71
155	5	62	60	59	91
155	6	62	60	59	91
156	14	92	93	94	95
157	15	10	13	19	20
158	15	43	42	41	50
159	15	40	41	42	47
160	15	42	41	40	52
161	28	92	93	94	109
161	29	92	93	94	109
162	5	10	13	14	17
162	6	10	13	14	17
163	15	87	82	77	88
164	13	3	1	57	59
165	15	96	97	98	101
166	16	5	31	22	19
166	17	5	31	22	19
166	18	5	31	22	19
167	19	105	96	95	107
168	14	59	60	88	90
169	15	66	65	70	71
170	15	76	74	77	88
171	15	82	77	88	89
172	16	60	88	77	74
172	17	60	88	77	74
172	18	60	88	77	74
173	28	99	98	97	104
173	29	99	98	97	104
174	15	20	19	22	27
175	19	108	95	94	110
176	15	10	5	31	32
177	15	68	66	65	74
178	11	58	57	59	91
178	12	58	57	59	91
179	16	65	74	77	82
179	17	65	74	77	82
179	18	65	74	77	82
180	16	13	19	22	31
180	17	13	19	22	31
180	18	13	19	22	31
181	7	17	14	15	37
181	8	17	14	15	37
182	14	14	13	19	20
183	15	80	78	77	88
184	28	37	38	39	54
184	29	37	38	39	54
185	15	23	22	31	33
186	15	8	6	5	10
187	7	13	14	15	16
187	8	13	14	15	16
188	15	26	23	22	27
189	19	107	95	94	110
190	15	72	70	65	74
191	15	78	77	82	86
192	15	41	40	39	53
193	21	15	37	38	39
193	22	15	37	38	39
194	15	75	74	77	82
195	16	4	5	31	22
195	17	4	5	31	22
195	18	4	5	31	22
196	14	59	60	62	63
197	19	53	39	38	55
198	15	24	23	22	27
199	15	19	22	27	28
200	19	47	42	41	50
201	1	15	14	13	19
201	2	15	14	13	19
201	3	15	14	13	19
201	4	15	14	13	19
202	15	31	5	4	35
203	19	109	94	93	111
204	16	13	10	5	31
204	17	13	10	5	31
204	18	13	10	5	31
205	14	11	10	13	14
206	15	38	39	40	52
207	15	78	77	88	89
208	19	12	10	13	18
209	23	46	43	44	92
210	31	84	83	82	87
211	15	74	77	78	80
212	16	65	74	77	88
212	17	65	74	77	88
212	18	65	74	77	88
213	15	62	65	74	75
214	15	25	23	22	31
215	19	54	39	38	55
216	15	24	23	22	31
217	15	62	65	66	69
218	19	101	98	97	104
219	13	3	1	57	58
220	15	71	70	65	74
221	15	66	65	74	75
222	14	59	60	88	89
223	15	29	27	22	31
224	15	76	74	77	78
225	19	50	41	40	52
226	16	60	62	65	74
226	17	60	62	65	74
226	18	60	62	65	74
227	19	108	95	94	109
228	16	10	5	31	22
228	17	10	5	31	22
228	18	10	5	31	22
229	15	41	42	43	46
230	5	5	4	3	36
230	6	5	4	3	36
231	15	6	5	10	12
232	16	4	5	10	13
232	17	4	5	10	13
232	18	4	5	10	13
233	19	103	97	96	106
234	15	18	13	19	22
235	5	35	4	3	36
235	6	35	4	3	36
236	28	44	43	42	48
236	29	44	43	42	48
237	15	28	27	22	31
238	15	96	95	94	110
239	23	44	92	93	112
240	15	97	96	95	108
241	19	106	96	95	107
242	5	15	14	13	18
242	6	15	14	13	18
243	14	3	4	5	31
244	15	70	65	74	75
245	15	31	5	4	34
246	16	40	41	42	43
246	17	40	41	42	43
246	18	40	41	42	43
247	15	10	5	4	35
248	24	16	15	14	17
248	25	16	15	14	17
249	20	14	15	37	38
250	15	62	60	88	89
251	15	38	39	40	51
252	15	64	62	65	74
253	15	81	78	77	88
254	16	6	5	31	22
254	17	6	5	31	22
254	18	6	5	31	22
255	15	20	19	22	23
256	31	84	83	82	86
257	15	74	77	78	79
258	19	46	43	42	47
259	15	4	5	6	9
260	15	68	66	65	70
261	15	62	65	66	68
262	16	65	74	77	78
262	17	65	74	77	78
262	18	65	74	77	78
263	15	19	22	31	32
264	19	101	98	97	103
265	15	19	22	23	26
266	16	13	19	22	27
266	17	13	19	22	27
266	18	13	19	22	27
267	35	100	99	98	102
268	15	23	22	27	28
269	16	94	95	96	97
269	17	94	95	96	97
269	18	94	95	96	97
270	15	61	60	62	65
271	15	75	74	77	78
272	19	102	98	97	104
273	15	62	65	70	73
274	13	2	1	57	59
275	7	36	3	1	57
275	8	36	3	1	57
276	15	95	94	93	112
277	15	6	5	4	35
278	19	52	40	39	54
279	16	10	13	19	22
279	17	10	13	19	22
279	18	10	13	19	22
280	9	58	57	59	60
280	10	58	57	59	60
281	15	69	66	65	74
282	15	11	10	13	19
283	30	43	44	92	93
284	15	7	6	5	10
285	11	2	1	3	36
285	12	2	1	3	36
286	15	6	5	10	11
287	19	48	42	41	49
288	19	104	97	96	105
289	15	66	65	70	73
290	19	103	97	96	105
291	15	11	10	5	31
292	14	12	10	13	14
293	23	15	37	38	56
294	16	5	10	13	19
294	17	5	10	13	19
294	18	5	10	13	19
295	16	95	96	97	98
295	17	95	96	97	98
295	18	95	96	97	98
296	16	60	62	65	66
296	17	60	62	65	66
296	18	60	62	65	66
297	15	96	95	94	109
298	15	25	23	22	27
299	14	14	13	19	22
300	15	61	60	88	77
301	15	10	5	4	34
302	1	57	59	60	62
302	2	57	59	60	62
302	3	57	59	60	62
302	4	57	59	60	62
303	15	27	22	31	32
304	19	48	42	41	50
305	15	39	40	41	49
306	1	1	3	4	5
306	2	1	3	4	5
306	3	1	3	4	5
306	4	1	3	4	5
307	15	64	62	60	88
308	15	21	19	22	31
309	15	6	5	31	32
310	16	60	62	65	70
310	17	60	62	65	70
310	18	60	62	65	70
311	15	9	6	5	31
312	14	74	77	82	83
313	15	4	5	6	8
314	15	19	22	27	30
315	7	1	57	59	91
315	8	1	57	59	91
316	15	19	22	23	25
317	19	61	60	88	90
318	35	100	99	98	101
319	15	42	41	40	51
320	7	1	57	59	60
320	8	1	57	59	60
321	15	39	40	41	50
322	23	45	43	44	92
323	16	5	31	22	27
323	17	5	31	22	27
323	18	5	31	22	27

Impropers

3	1	3	36	1	4
22	3	15	37	14	16
61	3	15	14	16	37
73	1	3	4	36	1
96	1	14	13	15	17
99	2	57	1	58	59
214	1	59	57	60	91
223	2	1	2	3	57
386	3	15	16	37	14
388	2	1	57	2	3
394	2	57	58	59	1
453	1	14	17	13	15
454	1	59	91	57	60
500	1	59	60	91	57
524	1	14	15	17	13
534	1	3	1	4	36
613	2	57	59	1	58
744	2	1	3	57	2
