Title

8125 atoms
8000 bonds
14375 angles
24375 dihedrals
1500 impropers

8 atom types
11 bond types
5 angle types
31 dihedral types
2 improper types
-8.473999977 91.52600002 xlo xhi
-10.40480042 89.59519958 ylo yhi
-10.79279995 89.20720005 zlo zhi
0.0 0.0 0.0 xy xz yz

Masses

1	15.99943
2	12.01078
3	1.007947
4	12.01078
5	15.99943
6	1.007947
7	15.99943
8	1.007947


Pair Coeffs

1	0.16846514	3.0251065
2	0.10884061	3.3795318
3	0.016409246	2.5832257
4	0.086879315	3.4806469
5	0.2102061	3.0398122
6	0.015779483	2.6445434
7	0.20947353	2.99716
8	1.2326e-05	0.53453923

Bond Coeffs

1 harmonic	366.7408841747	1.425895053732
2 harmonic	300.03137914615	1.451203938761
3 harmonic	264.62148576755	1.52190126495
4 harmonic	370.04670688625	1.093899492634
5 harmonic	301.15400723785	1.345741232799
6 harmonic	582.698766451	1.225198386222
7 harmonic	329.44145381095	1.523435958334
8 harmonic	279.1350963404	1.454628925034
9 harmonic	329.96998057905	1.427343958716
10 harmonic	543.5267831885	0.9716763312559
11 harmonic	385.7604595587	1.369745182308


Angle Coeffs

1 harmonic	53.20531626545	116.5475862634
2 harmonic	65.09061609600001	110.3538806181
3 harmonic	201.41175231035	127.4691416191
4 harmonic	57.8982893754	126.8062420451
5 harmonic	48.776492647595	115.6030999533


Dihedral Coeffs

1 fourier 1	-0.0309670556842	3	0
2 fourier 1	0.4598191477945	2	0
3 fourier 1	0.1115525666802	3	0
4 fourier 1	0.3432490222662	1	0
5 fourier 1	0.0473758381877	3	0
6 fourier 1	0.457973137376	1	0
7 fourier 1	0.4552156463534	3	0
8 fourier 1	-0.03687743385131	2	180
9 fourier 1	0.1918272375143	3	0
10 fourier 1	0.9202179876409	1	180
11 fourier 1	1.163809172478	2	180
12 fourier 1	0.1679186987369	1	180
13 fourier 1	2.779853741805	2	180
14 fourier 1	0.02664938770063	3	0
15 fourier 1	0.1911926717192	3	0
16 fourier 1	0.1155372516788	3	0
17 fourier 1	-0.3703352413219	2	0
18 fourier 1	0.4541676554336	1	0
19 fourier 1	0.1489710476446	2	0
20 fourier 1	0.02960027280666	3	180
21 fourier 1	0.09223874044423	3	0
22 fourier 1	0.3159935921949	2	180
23 fourier 1	0.3247796806857	1	180
24 fourier 1	0.1040663847541	3	0
25 fourier 1	0.9974165607242	2	180
26 fourier 1	0.3445382149273	3	0
27 fourier 1	0.1364556373303	1	0
28 fourier 1	0.3026390167484	3	0
29 fourier 1	2.687457892086	2	180
30 fourier 1	2.772607909663	2	180
31 fourier 1	0.09692684957115	1	0


Improper Coeffs

1 3.5	-1	2
2 0.3666666666666667	-1	2


Atoms

1	4	1	-0.152963	3.5683999	-6.3975	2.8106999
2	4	2	0.027236	2.7581	-5.5908999	2.0009999
3	4	2	0.077674001	3.5802	-4.9843998	0.86309999
4	4	1	-0.49245799	2.7384	-4.2690001	-0.021600001
5	4	2	0.077133	2.7486	-2.8915	0.28819999
6	4	2	0.129531	1.7255	-2.1740999	-0.58759999
7	4	1	-0.491097	1.7442	-0.79659998	-0.3312
8	4	3	0.087079003	0.70889997	-2.5904	-0.40560001
9	4	3	0.087079003	1.9793	-2.3399	-1.6558
10	4	3	0.079931997	2.4818001	-2.7193	1.3563
11	4	3	0.079931997	3.7541001	-2.4590001	0.082599998
12	4	3	0.081306003	4.0488	-5.8137999	0.29139999
13	4	3	0.081306003	4.4182	-4.3737998	1.2766
14	4	3	0.085107997	1.9484	-6.2192998	1.5713
15	4	3	0.085107997	2.2823999	-4.7880998	2.6087
16	5	4	0.76372403	1.2372	-0.65369999	0.565
17	5	5	-0.54155302	1.7226	-1.0833	1.5991
18	5	2	-0.20811	-0.076099999	0.069700003	0.60009998
19	5	2	-0.111963	-0.49919999	0.52219999	-0.8021
20	5	2	-0.091142997	-1.8415999	1.2609	-0.76109999
21	5	2	-0.256437	-2.2646999	1.7125	-2.1626999
22	5	4	0.51924998	-3.5787001	2.4354999	-2.1280999
23	5	5	-0.667512	-4.0640998	2.8652	-3.1621001
24	5	6	0.116441	-2.3619001	0.82620001	-2.8275001
25	5	6	0.116441	-1.4924001	2.3914001	-2.5847001
26	5	6	0.078275003	-2.6203001	0.58530003	-0.34189999
27	5	6	0.078275003	-1.7523	2.1513	-0.099399999
28	5	6	0.087260999	-0.58899999	-0.36860001	-1.4626
29	5	6	0.087260999	0.27959999	1.197	-1.2207
30	5	6	0.120063	-0.84829998	-0.6092	1.022
31	5	6	0.120063	0.020400001	0.95569998	1.2644
32	1	1	-0.152963	4.1044002	-5.7825999	3.3776
33	1	2	0.027236	5.0258999	-5.1564999	2.5274
34	1	2	0.077798001	4.3348999	-4.0689001	1.7034
35	1	1	-0.49026999	5.2873001	-3.3577001	0.9357
36	1	2	0.049931999	5.3434	-3.8669	-0.3804
37	1	2	0.072031997	6.4765	-3.1765001	-1.1345
38	1	7	-0.68391198	6.5282998	-3.6322999	-2.4591
39	1	8	0.38565099	6.9537001	-4.5283999	-2.4345
40	1	3	0.081064999	7.4463	-3.3606	-0.62059999
41	1	3	0.081064999	6.2947001	-2.0804	-1.1437
42	1	3	0.082212001	5.539	-4.9642	-0.37779999
43	1	3	0.082212001	4.3874002	-3.6619999	-0.91329998
44	1	3	0.081306003	3.8578	-3.3513999	2.4043
45	1	3	0.081306003	3.5088	-4.5124002	1.0962
46	1	3	0.085107997	5.8217001	-4.6935	3.1485
47	1	3	0.085107997	5.5053	-5.9061999	1.8592
48	2	4	0.51924998	-4.1075001	2.5848999	-1.1928
49	2	5	-0.667512	-4.9798999	1.7965	-0.86199999
50	2	2	-0.256437	-3.7523999	3.7419	-0.3071
51	2	2	-0.091142997	-4.9218998	4.7248001	-0.1936
52	2	2	-0.109436	-4.5474	5.9243002	0.68889999
53	2	2	-0.21812101	-5.7199001	6.8969998	0.87690002
54	2	4	0.82670498	-6.0651002	7.6044998	-0.3973
55	2	5	-0.54237002	-5.3656001	8.5761995	-0.78860003
56	2	7	-0.66248298	-7.1399002	7.1662998	-1.1652
57	2	8	0.39824599	-7.3769002	7.6252999	-2.0362
58	2	6	0.12111	-6.6107001	6.3505998	1.2571
59	2	6	0.12111	-5.4425001	7.6531	1.642
60	2	6	0.087260999	-4.2409	5.5538001	1.6917
61	2	6	0.087260999	-3.6817	6.4647999	0.2475
62	2	6	0.078275003	-5.8007998	4.2038002	0.2471
63	2	6	0.078275003	-5.1968002	5.0815001	-1.2111
64	2	6	0.116441	-2.8698001	4.2628999	-0.73799998
65	2	6	0.116441	-3.4770999	3.3573999	0.69849998
66	4	1	-0.152963	0.5668	7.6971998	23.018101
67	4	2	0.027236	0.40509999	6.4963999	22.3148
68	4	2	0.077674001	-1.061	6.0622001	22.334999
69	4	1	-0.49245799	-1.2435	4.9164	21.5245
70	4	2	0.077133	-1.2204	3.7435999	22.310301
71	4	2	0.129531	-1.2751	2.5255001	21.3929
72	4	1	-0.491097	-1.2966	1.3458	22.149
73	4	3	0.087079003	-0.40220001	2.5290999	20.701599
74	4	3	0.087079003	-2.1998999	2.5713	20.7801
75	4	3	0.079931997	-0.28780001	3.6867001	22.917601
76	4	3	0.079931997	-2.1052999	3.7163999	22.986
77	4	3	0.081306003	-1.6737	6.8839002	21.906099
78	4	3	0.081306003	-1.408	5.9267998	23.3873
79	4	3	0.085107997	0.72369999	6.6560001	21.2621
80	4	3	0.085107997	1.0525	5.7027001	22.751801
81	5	4	0.76372403	-0.3242	1.1868	22.4804
82	5	5	-0.54155302	0.1652	1.9629	23.2852
83	5	2	-0.20811	0.47830001	0.0217	21.9828
84	5	2	-0.111963	-0.3242	-0.82029998	20.9844
85	5	2	-0.091142997	0.49990001	-2.0097001	20.478701
86	5	2	-0.256437	-0.30219999	-2.8508	19.480499
87	5	4	0.51924998	0.5007	-4.0159998	18.981899
88	5	5	-0.667512	0.0113	-4.7921	18.177099
89	5	6	0.116441	-0.59539998	-2.2211001	18.6119
90	5	6	0.116441	-1.2235	-3.2332001	19.970699
91	5	6	0.078275003	1.4231	-1.6334	19.9841
92	5	6	0.078275003	0.79570001	-2.6468	21.3421
93	5	6	0.087260999	-0.61870003	-0.18279999	20.1215
94	5	6	0.087260999	-1.247	-1.1957999	21.479099
95	5	6	0.120063	1.3996	0.40400001	21.492599
96	5	6	0.120063	0.7719	-0.6081	22.850401
97	1	1	-0.152963	0.5334	7.4671001	23.983801
98	1	2	0.027236	-0.7924	7.1097002	24.2638
99	1	2	0.077798001	-1.0845	5.7014999	23.743299
100	1	1	-0.49026999	-2.3831	5.2958999	24.132401
101	1	2	0.049931999	-3.3073001	5.5239	23.089199
102	1	2	0.072031997	-4.7140002	5.2115002	23.591801
103	1	7	-0.68391198	-5.6490998	5.3881998	22.5625
104	1	8	0.38565099	-5.7887998	6.3663001	22.4709
105	1	3	0.081064999	-4.9631	5.8607001	24.4606
106	1	3	0.081064999	-4.7547998	4.1538	23.9298
107	1	3	0.082212001	-3.2804	6.5868001	22.7549
108	1	3	0.082212001	-3.0843	4.8578	22.2251
109	1	3	0.081306003	-0.35620001	5.0015998	24.2052
110	1	3	0.081306003	-0.91049999	5.6547999	22.6408
111	1	3	0.085107997	-0.93879998	7.1296	25.3645
112	1	3	0.085107997	-1.4938999	7.8456998	23.811399
113	2	4	0.51924998	1.5152	-4.1819	19.3281
114	2	5	-0.667512	2.4528	-3.7586	18.669399
115	2	2	-0.256437	1.7582	-4.9096999	20.616699
116	2	2	-0.091142997	2.4847	-6.2354999	20.369101
117	2	2	-0.109436	2.7063	-6.9942999	21.6856
118	2	2	-0.21812101	3.4906001	-8.2979002	21.481001
119	2	4	0.82670498	2.6928	-9.3134003	20.7222
120	2	5	-0.54237002	1.8009	-9.9814997	21.309299
121	2	7	-0.66248298	2.9156001	-9.4945002	19.360399
122	2	8	0.39824599	2.3743999	-10.167	18.830799
123	2	6	0.12111	4.4419999	-8.0895996	20.944401
124	2	6	0.12111	3.7546999	-8.7199001	22.4739
125	2	6	0.087260999	3.2844	-6.3484998	22.382401
126	2	6	0.087260999	1.7279	-7.2189999	22.1637
127	2	6	0.078275003	3.4686999	-6.0337	19.890499
128	2	6	0.078275003	1.8767	-6.8592	19.676701
129	2	6	0.116441	0.77890003	-5.1082001	21.104099
130	2	6	0.116441	2.3612001	-4.2631001	21.2899
131	4	1	-0.152963	2.6508	2.0318	36.1134
132	4	2	0.027236	2.6352	1.5048	37.4114
133	4	2	0.077674001	2.1282001	0.062199999	37.393002
134	4	1	-0.49245799	2.2269001	-0.50779998	38.6847
135	4	2	0.077133	0.99040002	-0.4224	39.360901
136	4	2	0.129531	1.1693	-0.91299999	40.794701
137	4	1	-0.491097	-0.0537	-0.8793	41.4781
138	4	3	0.087079003	1.9263	-0.28780001	41.320099
139	4	3	0.087079003	1.5385	-1.96	40.7789
140	4	3	0.079931997	0.62199998	0.62879997	39.390701
141	4	3	0.079931997	0.23289999	-1.0669	38.859501
142	4	3	0.081306003	2.7774999	-0.5266	36.7104
143	4	3	0.081306003	1.0991	0.021199999	36.962399
144	4	3	0.085107997	3.671	1.5223	37.8139
145	4	3	0.085107997	1.9992	2.1328001	38.0756
146	5	4	0.76372403	-0.229	0.1149	41.726101
147	5	5	-0.54155302	-0.44440001	0.92159998	40.835999
148	5	2	-0.20811	-0.2193	0.56519997	43.156502
149	5	2	-0.111963	0.069600001	-0.60350001	44.1054
150	5	2	-0.091142997	0.078400001	-0.13850001	45.565899
151	5	2	-0.256437	0.3678	-1.3067	46.514099
152	5	4	0.51924998	0.37830001	-0.85640001	47.945099
153	5	5	-0.667512	0.59369999	-1.6631	48.835201
154	5	6	0.116441	1.3592	-1.7483	46.271198
155	5	6	0.116441	-0.41119999	-2.0896001	46.389801
156	5	6	0.078275003	0.85869998	0.64399999	45.6978
157	5	6	0.078275003	-0.91159999	0.303	45.8181
158	5	6	0.087260999	1.0598	-1.0437	43.853001
159	5	6	0.087260999	-0.71020001	-1.3855	43.972801
160	5	6	0.120063	0.55970001	1.3480999	43.2808
161	5	6	0.120063	-1.2099	1.0069	43.399899
162	1	1	-0.152963	1.7089	2.2490001	35.884201
163	1	2	0.027236	1.0445	1.0257	35.723598
164	1	2	0.077798001	0.74730003	0.39930001	37.086899
165	1	1	-0.49026999	-0.0285	-0.77340001	36.927799
166	1	2	0.049931999	0.79650003	-1.9195	36.9417
167	1	2	0.072031997	-0.0513	-3.1482	36.624699
168	1	7	-0.68391198	0.73470002	-4.3079	36.674
169	1	8	0.38565099	1.2625	-4.329	35.8339
170	1	3	0.081064999	-0.52340001	-3.0395	35.622799
171	1	3	0.081064999	-0.86210001	-3.2374001	37.3792
172	1	3	0.082212001	1.604	-1.8417	36.177502
173	1	3	0.082212001	1.2514	-2.0539	37.949299
174	1	3	0.081306003	0.1512	1.1243	37.680698
175	1	3	0.081306003	1.6977	0.23630001	37.6511
176	1	3	0.085107997	0.087800004	1.2105	35.190601
177	1	3	0.085107997	1.6552	0.33379999	35.101601
178	2	4	0.51924998	0.19499999	0.1811	48.203701
179	2	5	-0.667512	1.1407	0.93610001	48.369999
180	2	2	-0.256437	-1.2119	0.68370003	48.335701
181	2	2	-0.091142997	-1.5081	1.1122	49.776299
182	2	2	-0.109436	-2.9579	1.5984	49.9174
183	2	2	-0.21812101	-3.2688999	2.0971999	51.3354
184	2	4	0.82670498	-3.2678001	0.97829998	52.3311
185	2	5	-0.54237002	-4.263	0.2112	52.4189
186	2	7	-0.66248298	-2.1524999	0.76709998	53.136398
187	2	8	0.39824599	-2.131	0.0060999999	53.804199
188	2	6	0.12111	-2.5294001	2.8706	51.637798
189	2	6	0.12111	-4.2708998	2.5769	51.3377
190	2	6	0.087260999	-3.1278	2.4391999	49.209702
191	2	6	0.087260999	-3.6607001	0.7802	49.647499
192	2	6	0.078275003	-0.81489998	1.9324	50.067699
193	2	6	0.078275003	-1.3368	0.2475	50.4552
194	2	6	0.116441	-1.9101	-0.12899999	48.038898
195	2	6	0.116441	-1.3566999	1.5414	47.6441
196	4	1	-0.152963	-1.4318	-5.2742	70.449501
197	4	2	0.027236	-0.73070002	-4.5226002	69.497597
198	4	2	0.077674001	-0.236	-3.2133	70.113701
199	4	1	-0.49245799	0.5733	-2.5118999	69.188499
200	4	2	0.077133	-0.18340001	-1.5315	68.510201
201	4	2	0.129531	0.68000001	-0.89569998	67.424599
202	4	1	-0.491097	-0.033199999	0.1124	66.7621
203	4	3	0.087079003	1.0179	-1.6727	66.702103
204	4	3	0.087079003	1.5808001	-0.44490001	67.8918
205	4	3	0.079931997	-1.0818	-1.9815	68.028603
206	4	3	0.079931997	-0.50269997	-0.73409998	69.2192
207	4	3	0.081306003	0.39129999	-3.4591	70.997101
208	4	3	0.081306003	-1.0991	-2.6175001	70.496101
209	4	3	0.085107997	0.14309999	-5.1153998	69.150703
210	4	3	0.085107997	-1.3775001	-4.3175998	68.614601
211	5	4	0.76372403	-0.68889999	-0.36480001	66.111801
212	5	5	-0.54155302	-1.6057	-1.0272	66.570297
213	5	2	-0.20811	-0.52069998	-0.2491	64.626099
214	5	2	-0.111963	0.68709999	0.62480003	64.2696
215	5	2	-0.091142997	0.8549	0.74019998	62.750401
216	5	2	-0.256437	2.0625	1.6131999	62.394299
217	5	4	0.51924998	2.2314	1.7285	60.908199
218	5	5	-0.667512	3.1482	2.3908999	60.449699
219	5	6	0.116441	2.9858	1.1676	62.825401
220	5	6	0.116441	1.9255	2.6307001	62.820099
221	5	6	0.078275003	0.99529999	-0.27559999	62.318001
222	5	6	0.078275003	-0.064599998	1.1877	62.311001
223	5	6	0.087260999	1.6058	0.1762	64.708603
224	5	6	0.087260999	0.54640001	1.6397001	64.702499
225	5	6	0.120063	-0.38370001	-1.2666	64.200302
226	5	6	0.120063	-1.4433	0.19599999	64.194504
227	1	1	-0.152963	-2.3259001	-4.8513999	70.542297
228	1	2	0.027236	-2.1229	-3.6256001	71.190399
229	1	2	0.077798001	-1.5491	-2.5971	70.2146
230	1	1	-0.49026999	-1.4584	-1.3296	70.837303
231	1	2	0.049931999	-0.1531	-1.1117001	71.330597
232	1	2	0.072031997	-0.1293	0.1952	72.118202
233	1	7	-0.68391198	1.1661	0.45919999	72.584297
234	1	8	0.38565099	1.3126	-0.1337	73.366501
235	1	3	0.081064999	-0.84630001	0.1434	72.967697
236	1	3	0.081064999	-0.44330001	1.0283	71.4534
237	1	3	0.082212001	0.16230001	-1.9378999	72.008904
238	1	3	0.082212001	0.56840003	-1.0292	70.486397
239	1	3	0.081306003	-2.2467	-2.5053999	69.355202
240	1	3	0.081306003	-0.57999998	-2.9625001	69.795898
241	1	3	0.085107997	-3.1004	-3.2613001	71.571404
242	1	3	0.085107997	-1.4432	-3.7579	72.0616
243	2	4	0.51924998	1.5469	1.2307	60.229698
244	2	5	-0.667512	1.8362	0.13169999	59.781799
245	2	2	-0.256437	0.2473	1.8832999	59.863098
246	2	2	-0.091142997	0.2066	2.2237	58.370098
247	2	2	-0.109436	-1.1118	2.9191999	58.001202
248	2	2	-0.21812101	-1.2129	3.2155001	56.498501
249	2	4	0.82670498	-0.23270001	4.2645998	56.071499
250	2	5	-0.54237002	-0.47409999	5.4807	56.2934
251	2	7	-0.66248298	0.95999998	3.8917999	55.459
252	2	8	0.39824599	1.6390001	4.5885	55.177601
253	2	6	0.12111	-1.0451	2.2841001	55.914501
254	2	6	0.12111	-2.2399001	3.5710001	56.268799
255	2	6	0.087260999	-1.9605	2.2572999	58.2812
256	2	6	0.087260999	-1.2155	3.8656001	58.5756
257	2	6	0.078275003	0.30860001	1.2889	57.7752
258	2	6	0.078275003	1.062	2.8922	58.126301
259	2	6	0.116441	0.1355	2.8148999	60.459599
260	2	6	0.116441	-0.58819997	1.1979001	60.122002
261	4	1	-0.152963	2.5732999	-0.41100001	79.025597
262	4	2	0.027236	1.711	-0.49990001	80.126198
263	4	2	0.077674001	1.0239	0.84380001	80.372704
264	4	1	-0.49245799	0.064999998	0.72100002	81.406403
265	4	2	0.077133	0.60909998	1.1384	82.640602
266	4	2	0.129531	-0.39860001	0.85890001	83.751801
267	4	1	-0.491097	0.0986	1.3029	84.984398
268	4	3	0.087079003	-0.62779999	-0.23	83.7938
269	4	3	0.087079003	-1.3425	1.4012001	83.533501
270	4	3	0.079931997	1.55	0.58740002	82.8703
271	4	3	0.079931997	0.81580001	2.2326	82.618896
272	4	3	0.081306003	0.4883	1.1368001	79.444397
273	4	3	0.081306003	1.7862	1.6373	80.560402
274	4	3	0.085107997	0.93919998	-1.2701	79.911003
275	4	3	0.085107997	2.2728	-0.82209998	81.032097
276	5	4	0.76372403	0.79809999	0.59909999	85.294403
277	5	5	-0.54155302	1.8353	0.4725	84.663902
278	5	2	-0.20811	0.54710001	-0.257	86.499901
279	5	2	-0.111963	-0.80879998	0.065300003	87.138199
280	5	2	-0.091142997	-1.0608	-0.81190002	88.369598
281	5	2	-0.256437	-2.4163001	-0.49000001	89.007103
282	5	4	0.51924998	-2.668	-1.3468	90.212601
283	5	5	-0.667512	-3.7052	-1.2201999	90.843102
284	5	6	0.116441	-3.2282	-0.66610003	88.2677
285	5	6	0.116441	-2.4396	0.57779998	89.3144
286	5	6	0.078275003	-1.0414	-1.883	88.0681
287	5	6	0.078275003	-0.2534	-0.63990003	89.116096
288	5	6	0.087260999	-1.6152	-0.1077	86.391403
289	5	6	0.087260999	-0.82779998	1.136	87.438904
290	5	6	0.120063	0.5704	-1.3249	86.192596
291	5	6	0.120063	1.3583	-0.081600003	87.239304
292	1	1	-0.152963	3.3834	0.071199998	79.338303
293	1	2	0.027236	2.9993	1.4021	79.550598
294	1	2	0.077798001	2.2130001	1.5264	80.856598
295	1	1	-0.49026999	1.9308	2.8857999	81.130096
296	1	2	0.049931999	0.63059998	3.2203	80.692001
297	1	2	0.072031997	0.41460001	4.7203999	80.870499
298	1	7	-0.68391198	-0.88520002	5.0746999	80.483002
299	1	8	0.38565099	-0.89170003	5.0883002	79.490799
300	1	3	0.081064999	1.1665	5.2886	80.278503
301	1	3	0.081064999	0.54939997	4.9842	81.941399
302	1	3	0.082212001	0.49380001	2.9700999	79.614601
303	1	3	0.082212001	-0.13079999	2.6787	81.297897
304	1	3	0.081306003	2.8455	1.1368001	81.682297
305	1	3	0.081306003	1.3047	0.87690002	80.822403
306	1	3	0.085107997	3.9144001	2.0281	79.6147
307	1	3	0.085107997	2.3919001	1.7695	78.693604
308	2	4	0.51924998	-1.9378	-2.0810001	90.536102
309	2	5	-0.667512	-2.0511999	-3.2423	90.174797
310	2	2	-0.256437	-0.78890002	-1.6635	91.404999
311	2	2	-0.091142997	-0.87379998	-2.3276	92.782799
312	2	2	-0.109436	0.2861	-1.8763	93.682297
313	2	2	-0.21812101	0.2678	-2.5739999	95.0494
314	2	4	0.82670498	-0.8976	-2.1354001	95.881798
315	2	5	-0.54237002	-0.8617	-1.0298001	96.4841
316	2	7	-0.66248298	-2.0330999	-2.9359	95.962502
317	2	8	0.39824599	-2.8346	-2.6463001	96.509598
318	2	6	0.12111	0.23899999	-3.6773	94.913498
319	2	6	0.12111	1.2063	-2.3306	95.591599
320	2	6	0.087260999	1.2484	-2.1213	93.181602
321	2	6	0.087260999	0.2489	-0.77429998	93.8256
322	2	6	0.078275003	-0.83780003	-3.4333	92.662804
323	2	6	0.078275003	-1.8423001	-2.0555999	93.258301
324	2	6	0.116441	-0.81459999	-0.55830002	91.523102
325	2	6	0.116441	0.1636	-1.9413	90.904503
326	4	1	-0.152963	-6.9331002	19.469101	-2.9875
327	4	2	0.027236	-5.9763999	19.9004	-2.0592999
328	4	2	0.077674001	-5.8179998	21.419901	-2.1266999
329	4	1	-0.49245799	-4.9425001	21.866501	-1.1083
330	4	2	0.077133	-3.6348	22.031	-1.6147
331	4	2	0.129531	-2.6921	22.372499	-0.46439999
332	4	1	-0.491097	-1.3927	22.583599	-0.9447
333	4	3	0.087079003	-2.7	21.5543	0.29089999
334	4	3	0.087079003	-3.0427999	23.302099	0.031300001
335	4	3	0.079931997	-3.2734001	21.096201	-2.1018
336	4	3	0.079931997	-3.6101	22.8664	-2.3508
337	4	3	0.081306003	-6.8123999	21.8822	-1.9478
338	4	3	0.081306003	-5.5067	21.729401	-3.1530001
339	4	3	0.085107997	-6.316	19.613899	-1.0405
340	4	3	0.085107997	-5.0007	19.3983	-2.2486999
341	5	4	0.76372403	-0.99040002	21.644699	-1.1379
342	5	5	-0.54155302	-1.459	20.9702	-2.0406001
343	5	2	-0.20811	0.1517	21.113701	-0.3238
344	5	2	-0.111963	0.5826	22.118099	0.7511
345	5	2	-0.091142997	1.7499	21.571199	1.5803
346	5	2	-0.256437	2.1801	22.575001	2.6549001
347	5	4	0.51924998	3.322	22.0438	3.47
348	5	5	-0.667512	3.7906001	22.7183	4.3727002
349	5	6	0.116441	1.3243999	22.7857	3.3334
350	5	6	0.116441	2.4949	23.525499	2.1724999
351	5	6	0.078275003	1.4401	20.620199	2.0685
352	5	6	0.078275003	2.6119001	21.3596	0.90880001
353	5	6	0.087260999	-0.27950001	22.3283	1.4223
354	5	6	0.087260999	0.89160001	23.068501	0.2626
355	5	6	0.120063	-0.1631	20.1632	0.1586
356	5	6	0.120063	1.0072	20.9027	-1.0013
357	1	1	-0.152963	-6.4952998	19.494801	-3.8787999
358	1	2	0.027236	-6.3252001	20.8479	-4.2016001
359	1	2	0.077798001	-5.1511002	21.4375	-3.4184999
360	1	1	-0.49026999	-4.9046998	22.7675	-3.8341999
361	1	2	0.049931999	-5.5293002	23.684099	-2.9598999
362	1	2	0.072031997	-5.3649998	25.095501	-3.5165999
363	1	7	-0.68391198	-5.9390998	26.032101	-2.6458001
364	1	8	0.38565099	-6.9207001	25.982401	-2.7827001
365	1	3	0.081064999	-5.8291001	25.1656	-4.5256
366	1	3	0.081064999	-4.2824998	25.3242	-3.6192999
367	1	3	0.082212001	-6.6184001	23.4678	-2.8634
368	1	3	0.082212001	-5.0524998	23.6427	-1.9543999
369	1	3	0.081306003	-4.2449002	20.836399	-3.6445999
370	1	3	0.081306003	-5.3306999	21.3358	-2.3206
371	1	3	0.085107997	-6.1153002	20.9279	-5.2891998
372	1	3	0.085107997	-7.2589002	21.4151	-3.9899001
373	2	4	0.51924998	3.7419	21.064199	3.2679999
374	2	5	-0.667512	3.3518	20.098801	3.9066999
375	2	2	-0.256437	4.7796001	20.8992	2.1979001
376	2	2	-0.091142997	6.1198001	20.4606	2.7967
377	2	2	-0.109436	7.1898999	20.3211	1.7042
378	2	2	-0.21812101	8.5290003	19.8193	2.2620001
379	2	4	0.82670498	9.1821003	20.8402	3.1422
380	2	5	-0.54237002	9.7979002	21.8125	2.6307001
381	2	7	-0.66248298	9.0797005	20.7309	4.5258999
382	2	8	0.39824599	9.5037003	21.4209	5.1339002
383	2	6	0.12111	8.3753004	18.875799	2.8302
384	2	6	0.12111	9.2096996	19.589701	1.4148
385	2	6	0.087260999	6.8367	19.591101	0.94319999
386	2	6	0.087260999	7.3410001	21.2973	1.1938
387	2	6	0.078275003	5.9914999	19.4834	3.3131001
388	2	6	0.078275003	6.4475002	21.2153	3.5457001
389	2	6	0.116441	4.9075999	21.870701	1.6727
390	2	6	0.116441	4.4247999	20.145901	1.462
391	4	1	-0.152963	2.6094	14.3043	20.4112
392	4	2	0.027236	2.5716	15.7047	20.413
393	4	2	0.077674001	3.1126001	16.2491	21.735701
394	4	1	-0.49245799	3.1868	17.6618	21.689899
395	4	2	0.077133	2.0465	18.2386	22.2904
396	4	2	0.129531	2.0899999	19.751499	22.096399
397	4	1	-0.491097	0.99019998	20.355301	22.720301
398	4	3	0.087079003	2.1046	19.9965	21.010201
399	4	3	0.087079003	3.0202999	20.1513	22.552
400	4	3	0.079931997	1.1102999	17.85	21.8274
401	4	3	0.079931997	2.0371001	18.0231	23.382999
402	4	3	0.081306003	4.1429	15.8584	21.877899
403	4	3	0.081306003	2.5072999	15.8595	22.5888
404	4	3	0.085107997	3.2042999	16.0779	19.579
405	4	3	0.085107997	1.5315	16.063299	20.240601
406	5	4	0.76372403	0.17039999	20.191601	22.1024
407	5	5	-0.54155302	-0.24789999	19.054399	21.9566
408	5	2	-0.20811	-0.49880001	21.330601	21.392599
409	5	2	-0.111963	0.1839	22.6647	21.715
410	5	2	-0.091142997	-0.50340003	23.8256	20.987499
411	5	2	-0.256437	0.1795	25.1588	21.309401
412	5	4	0.51924998	-0.4892	26.298401	20.5989
413	5	5	-0.667512	-0.071000002	27.4356	20.744699
414	5	6	0.116441	1.2456	25.118099	20.995199
415	5	6	0.116441	0.1376	25.3444	22.404499
416	5	6	0.078275003	-0.46250001	23.6472	19.8897
417	5	6	0.078275003	-1.571	23.875	21.2983
418	5	6	0.087260999	1.2508	22.614599	21.403299
419	5	6	0.087260999	0.14309999	22.8423	22.8123
420	5	6	0.120063	-0.4569	21.1451	20.2976
421	5	6	0.120063	-1.5644	21.371901	21.7061
422	1	1	-0.152963	1.8502001	13.9994	20.974701
423	1	2	0.027236	2.1781001	14.3254	22.297501
424	1	2	0.077798001	1.9796	15.8223	22.5408
425	1	1	-0.49026999	2.1942	16.128799	23.905399
426	1	2	0.049931999	3.5104001	16.599199	24.1071
427	1	2	0.072031997	3.7512	16.7817	25.603001
428	1	7	-0.68391198	5.0377998	17.289499	25.8305
429	1	8	0.38565099	5.6666002	16.5301	25.7183
430	1	3	0.081064999	3.6148	15.8131	26.133699
431	1	3	0.081064999	3.0090001	17.503	26.007299
432	1	3	0.082212001	4.2600002	15.8733	23.715401
433	1	3	0.082212001	3.6487999	17.582899	23.603901
434	1	3	0.081306003	0.92699999	16.0783	22.295401
435	1	3	0.081306003	2.6187999	16.414101	21.841299
436	1	3	0.085107997	1.512	13.7537	22.9778
437	1	3	0.085107997	3.2282	14.0306	22.5184
438	2	4	0.51924998	-1.3449	26.127399	19.954399
439	2	5	-0.667512	-1.1756001	25.993	18.752199
440	2	2	-0.256437	-2.7212999	26.0383	20.543301
441	2	2	-0.091142997	-3.6024001	27.1924	20.054899
442	2	2	-0.109436	-5.0022998	27.117701	20.6817
443	2	2	-0.21812101	-5.9320002	28.2232	20.1625
444	2	4	0.82670498	-5.5029998	29.5781	20.6355
445	2	5	-0.54237002	-5.7707	29.9505	21.808599
446	2	7	-0.66248298	-4.7797999	30.412201	19.788
447	2	8	0.39824599	-4.4703999	31.325199	20.0982
448	2	6	0.12111	-5.9619002	28.204901	19.051001
449	2	6	0.12111	-6.9633999	28.0277	20.5257
450	2	6	0.087260999	-5.4590001	26.1353	20.430799
451	2	6	0.087260999	-4.9264998	27.184	21.789
452	2	6	0.078275003	-3.6923001	27.1451	18.9468
453	2	6	0.078275003	-3.1217999	28.1577	20.329
454	2	6	0.116441	-2.6382	26.0776	21.6513
455	2	6	0.116441	-3.1747	25.064301	20.2593
456	4	1	-0.152963	-2.5843999	22.076099	50.606499
457	4	2	0.027236	-2.0353	21.5369	49.435902
458	4	2	0.077674001	-0.52990001	21.800301	49.3848
459	4	1	-0.49245799	0.042800002	21.152201	48.2645
460	4	2	0.077133	0.1751	22.051901	47.184299
461	4	2	0.129531	0.6591	21.289301	45.954399
462	4	1	-0.491097	0.84030002	22.1663	44.876598
463	4	3	0.087079003	-0.070699997	20.491301	45.688801
464	4	3	0.087079003	1.631	20.8043	46.184799
465	4	3	0.079931997	-0.80080003	22.531601	46.941002
466	4	3	0.079931997	0.92439997	22.8386	47.4291
467	4	3	0.081306003	-0.069499999	21.369499	50.299599
468	4	3	0.081306003	-0.32969999	22.898001	49.418301
469	4	3	0.085107997	-2.2139001	20.439899	49.432701
470	4	3	0.085107997	-2.5367999	21.967899	48.539902
471	5	4	0.76372403	-0.1064	22.380301	44.504398
472	5	5	-0.54155302	-0.88510001	23.022301	45.190601
473	5	2	-0.20811	-0.52270001	21.910801	43.1422
474	5	2	-0.111963	0.60219997	21.1271	42.456402
475	5	2	-0.091142997	0.17219999	20.6495	41.0648
476	5	2	-0.256437	1.2965	19.865801	40.379799
477	5	4	0.51924998	0.88010001	19.395399	39.017502
478	5	5	-0.667512	1.6588	18.7533	38.331299
479	5	6	0.116441	1.5647	18.9804	40.997101
480	5	6	0.116441	2.1937001	20.5137	40.277199
481	5	6	0.078275003	-0.72469997	19.9977	41.1609
482	5	6	0.078275003	-0.095899999	21.5303	40.4394
483	5	6	0.087260999	0.8689	20.246599	43.082001
484	5	6	0.087260999	1.4985	21.7789	42.361198
485	5	6	0.120063	-1.4198999	21.262899	43.244801
486	5	6	0.120063	-0.79100001	22.7952	42.5247
487	1	1	-0.152963	-2.6489999	23.056999	50.463799
488	1	2	0.027236	-1.3369	23.5492	50.471001
489	1	2	0.077798001	-0.64240003	23.2302	49.146099
490	1	1	-0.49026999	0.63800001	23.8314	49.107899
491	1	2	0.049931999	1.6335	22.902399	49.4823
492	1	2	0.072031997	2.9777	23.619699	49.5695
493	1	7	-0.68391198	3.9937	22.7115	49.898102
494	1	8	0.38565099	3.9108	22.532499	50.870602
495	1	3	0.081064999	2.9272001	24.4375	50.322601
496	1	3	0.081064999	3.214	24.0742	48.5835
497	1	3	0.082212001	1.4087	22.452801	50.4771
498	1	3	0.082212001	1.7122999	22.0947	48.719799
499	1	3	0.081306003	-1.2476	23.6646	48.3223
500	1	3	0.081306003	-0.6257	22.126101	48.976299
501	1	3	0.085107997	-1.3735	24.6507	50.6078
502	1	3	0.085107997	-0.76740003	23.116501	51.323601
503	2	4	0.51924998	-0.1078	19.618999	38.629101
504	2	5	-0.667512	-1.0039001	18.7985	38.754799
505	2	2	-0.256437	-0.37029999	20.935699	37.960701
506	2	2	-0.091142997	-0.7148	20.740299	36.480801
507	2	2	-0.109436	-0.95389998	22.090599	35.789799
508	2	2	-0.21812101	-1.3657	21.927299	34.320099
509	2	4	0.82670498	-0.2418	21.3981	33.483299
510	2	5	-0.54237002	0.6796	22.1688	33.1045
511	2	7	-0.66248298	-0.1996	20.0469	33.152401
512	2	8	0.39824599	0.56120002	19.6714	32.5994
513	2	6	0.12111	-2.2434001	21.2488	34.243698
514	2	6	0.12111	-1.6746	22.916401	33.919701
515	2	6	0.087260999	-1.7699	22.6287	36.320099
516	2	6	0.087260999	-0.037300002	22.7169	35.852699
517	2	6	0.078275003	-1.6313	20.1152	36.394299
518	2	6	0.078275003	0.124	20.208	35.979599
519	2	6	0.116441	0.5395	21.568399	38.0499
520	2	6	0.116441	-1.2067	21.447201	38.4837
521	4	1	-0.152963	-3.3405001	23.2577	71.724602
522	4	2	0.027236	-2.5013001	23.3689	70.608299
523	4	2	0.077674001	-3.2098999	24.125799	69.4842
524	4	1	-0.49245799	-2.3213	24.3428	68.404198
525	4	2	0.077133	-2.4956999	23.3542	67.4114
526	4	2	0.129531	-1.4296	23.533199	66.334396
527	4	1	-0.491097	-1.605	22.5902	65.312798
528	4	3	0.087079003	-0.41479999	23.4375	66.7826
529	4	3	0.087079003	-1.5188	24.5502	65.897903
530	4	3	0.079931997	-2.3941	22.3316	67.8423
531	4	3	0.079931997	-3.4977	23.4589	66.936699
532	4	3	0.081306003	-3.5204999	25.118601	69.874496
533	4	3	0.081306003	-4.1473999	23.5942	69.193497
534	4	3	0.085107997	-1.5879	23.9282	70.905296
535	4	3	0.085107997	-2.1861999	22.359301	70.259804
536	5	4	0.76372403	-1.2403001	21.6868	65.675499
537	5	5	-0.54155302	-1.823	21.1355	66.595299
538	5	2	-0.20811	-0.0134	21.0585	65.084702
539	5	2	-0.111963	0.5564	21.9137	63.947201
540	5	2	-0.091142997	1.8099	21.2675	63.3466
541	5	2	-0.256437	2.3794999	22.1227	62.210098
542	5	4	0.51924998	3.6073	21.494801	61.619301
543	5	5	-0.667512	4.1900001	22.046101	60.6996
544	5	6	0.116441	2.645	23.130699	62.5979
545	5	6	0.116441	1.6155	22.238001	61.411201
546	5	6	0.078275003	2.5804	21.151699	64.141197
547	5	6	0.078275003	1.5523	20.258499	62.9538
548	5	6	0.087260999	0.81419998	22.921801	64.341003
549	5	6	0.087260999	-0.21430001	22.029499	63.1535
550	5	6	0.120063	0.75059998	20.943199	65.883499
551	5	6	0.120063	-0.278	20.0509	64.696999
552	1	1	-0.152963	-4.0014	22.547001	71.512802
553	1	2	0.027236	-4.8492999	23.070499	70.527496
554	1	2	0.077798001	-4.1507001	23.063601	69.166901
555	1	1	-0.49026999	-5.0479002	23.4785	68.154404
556	1	2	0.049931999	-4.8778	24.8521	67.873299
557	1	2	0.072031997	-5.9531999	25.296101	66.885803
558	1	7	-0.68391198	-5.7824001	26.6476	66.555099
559	1	8	0.38565099	-6.1262999	27.173401	67.323196
560	1	3	0.081064999	-6.9643002	25.125401	67.318398
561	1	3	0.081064999	-5.8695002	24.690901	65.957703
562	1	3	0.082212001	-4.974	25.465599	68.798798
563	1	3	0.082212001	-3.8796	25.0298	67.412804
564	1	3	0.081306003	-3.8396001	22.0217	68.940498
565	1	3	0.081306003	-3.2132001	23.669399	69.212402
566	1	3	0.085107997	-5.7605	22.438	70.473
567	1	3	0.085107997	-5.1643	24.1028	70.798599
568	2	4	0.51924998	3.9875	20.552	61.997799
569	2	5	-0.667512	4.8726001	20.5543	62.8396
570	2	2	-0.256437	3.4133999	19.2584	61.5014
571	2	2	-0.091142997	4.4647999	18.450399	60.734402
572	2	2	-0.109436	3.8682001	17.139999	60.2005
573	2	2	-0.21812101	4.9131999	16.2749	59.4823
574	2	4	0.82670498	5.3660002	16.900801	58.199001
575	2	5	-0.54237002	4.6436	16.823	57.170101
576	2	7	-0.66248298	6.5704002	17.5965	58.153301
577	2	8	0.39824599	6.8832002	18.0373	57.296902
578	2	6	0.12111	5.7881999	16.104401	60.146999
579	2	6	0.12111	4.4678001	15.2822	59.258301
580	2	6	0.087260999	3.461	16.554001	61.053501
581	2	6	0.087260999	3.0269001	17.360399	59.507702
582	2	6	0.078275003	5.3175001	18.218	61.4104
583	2	6	0.078275003	4.8439999	19.061001	59.885101
584	2	6	0.116441	2.5555999	19.4832	60.8307
585	2	6	0.116441	3.0378001	18.672501	62.367699
586	4	1	-0.152963	0.6778	22.8332	94.146301
587	4	2	0.027236	0.45840001	23.091	92.786797
588	4	2	0.077674001	-1.0005	22.813601	92.422096
589	4	1	-0.49245799	-1.2495	23.1887	91.080299
590	4	2	0.077133	-1.1597	22.067801	90.226501
591	4	2	0.129531	-1.2904	22.530199	88.778198
592	4	1	-0.491097	-1.2474	21.431499	87.9095