Title

5875 atoms
6000 bonds
9625 angles
14625 dihedrals
6000 impropers

8 atom types
12 bond types
6 angle types
20 dihedral types
2 improper types
-7.506605546 97.11129223 xlo xhi
-9.677589808 96.51973761 ylo yhi
-9.711631118 97.4317364 zlo zhi
0.0 0.0 0.0 xy xz yz

Masses

1	15.99943
2	12.01078
3	1.007947
4	12.01078
5	15.99943
6	1.007947
7	15.99943
8	1.007947


Pair Coeffs

1	0.16846514	3.0251065
2	0.10884061	3.3795318
3	0.016409246	2.5832257
4	0.086879315	3.4806469
5	0.2102061	3.0398122
6	0.015611343	2.5725815
7	0.20947353	2.99716
8	1.2326e-05	0.53453923

Bond Coeffs

1 harmonic	366.7408841747	1.425895053732
2 harmonic	300.03137914615	1.451203938761
3 harmonic	264.62148576755	1.52190126495
4 harmonic	370.04670688625	1.093899492634
5 harmonic	301.15400723785	1.345741232799
6 harmonic	582.698766451	1.225198386222
7 harmonic	279.1350963404	1.454628925034
8 harmonic	360.7852444772	1.387193227181
9 harmonic	397.2545789619	1.085358495916
10 harmonic	329.96998057905	1.427343958716
11 harmonic	543.5267831885	0.9716763312559
12 harmonic	385.7604595587	1.369745182308


Angle Coeffs

1 harmonic	53.20531626545	116.5475862634
2 harmonic	65.09061609600001	110.3538806181
3 harmonic	201.41175231035	127.4691416191
4 harmonic	57.8982893754	126.8062420451
5 harmonic	48.776492647595	115.6030999533
6 harmonic	34.066775159195	129.1835929926


Dihedral Coeffs

1 fourier 1	-0.0309670556842	3	0
2 fourier 1	0.4598191477945	2	0
3 fourier 1	0.1115525666802	3	0
4 fourier 1	0.3432490222662	1	0
5 fourier 1	0.0473758381877	3	0
6 fourier 1	0.457973137376	1	0
7 fourier 1	0.1918272375143	3	0
8 fourier 1	0.9202179876409	1	180
9 fourier 1	1.163809172478	2	180
10 fourier 1	0.1679186987369	1	180
11 fourier 1	2.779853741805	2	180
12 fourier 1	0.9974165607242	2	180
13 fourier 1	0.1911926717192	3	0
14 fourier 1	3.661930099076	2	180
15 fourier 1	0.3445382149273	3	0
16 fourier 1	0.1364556373303	1	0
17 fourier 1	0.3026390167484	3	0
18 fourier 1	2.687457892086	2	180
19 fourier 1	2.772607909663	2	180
20 fourier 1	0.09692684957115	1	0


Improper Coeffs

1 3.5	-1	2
2 0.3666666666666667	-1	2


Atoms

1	4	1	-0.13678703	5.9977268	-0.95095945	-0.55963998
2	4	2	0.051915468	4.8652136	-0.57825409	-1.296043
3	4	2	0.15698117	3.7766935	-0.047618653	-0.36363912
4	4	1	-0.50268954	2.6709713	0.38798282	-1.1059852
5	4	3	0.0897293	4.1767215	0.8113037	0.2146895
6	4	3	0.0897293	3.4711471	-0.83871281	0.35944901
7	4	3	0.097276097	5.1549903	0.22013328	-2.0121939
8	4	3	0.097276097	4.4817622	-1.4445604	-1.8828388
9	5	4	0.79180795	2.1609139	-0.46493644	-1.4073906
10	5	5	-0.55548841	2.8222844	-1.4661768	-1.7894035
11	5	4	-0.30292675	0.68731678	-0.4947491	-1.3847238
12	5	4	-0.10125147	-0.0018011798	0.58241523	-0.97478912
13	5	6	0.21507832	0.51166673	1.4817399	-0.65603715
14	5	4	-0.057620408	-1.4792814	0.5601925	-0.9500453
15	5	6	0.19802104	-2.0090536	1.4435399	-0.61385948
16	5	4	-0.36451665	-2.1504118	-0.53800874	-1.3375334
17	5	4	0.582856	-3.6238859	-0.55137943	-1.3092411
18	5	5	-0.58360529	-4.2661382	-1.5723625	-1.6697402
19	5	4	-0.057620423	-1.3899996	-1.7292288	-1.7919925
20	5	6	0.19802104	-1.9124033	-2.6226876	-2.1079618
21	5	4	-0.10125149	-0.051124437	-1.7091319	-1.8138903
22	5	6	0.21507838	0.48683932	-2.5874883	-2.1486665
23	1	1	-0.13112821	5.7839111	-1.8214305	-0.13184455
24	1	2	0.023862857	6.5276534	-2.7951382	-0.81193271
25	1	2	0.095883032	7.9920294	-2.745718	-0.37655309
26	1	7	-0.6776948	8.7217051	-3.7635696	-1.0058825
27	1	8	0.39640659	8.8725767	-3.4671019	-1.9419881
28	1	3	0.095099127	8.0515554	-2.8937567	0.72249614
29	1	3	0.095099127	8.4300095	-1.7500245	-0.61511937
30	1	3	0.097968524	6.1081911	-3.7949569	-0.56989159
31	1	3	0.097968524	6.4482005	-2.6452513	-1.913104
32	2	4	0.58285594	-4.1704737	0.32173842	-0.97674155
33	2	5	-0.58360541	-5.0856439	0.78334826	-1.70968
34	2	4	-0.36451668	-3.8458606	0.9548156	0.31380934
35	2	4	-0.057620453	-2.8673275	0.44980275	1.0840482
36	2	6	0.19802104	-2.3088444	-0.4237441	0.76765203
37	2	4	-0.098600203	-2.5349018	1.078029	2.3790073
38	2	6	0.21507835	-1.7399776	0.64425446	2.9736703
39	2	4	-0.29209936	-3.2072742	2.164037	2.8057459
40	2	4	0.83022404	-2.8865815	2.8041927	4.0996918
41	2	5	-0.53001487	-1.9716532	2.3445298	4.8356553
42	2	7	-0.67446333	-3.5970101	3.9263768	4.5166318
43	2	8	0.40438473	-3.3889542	4.3757851	5.4010372
44	2	4	-0.098600196	-4.2880068	2.7202161	1.9530796
45	2	6	0.21507837	-4.843258	3.593037	2.2738378
46	2	4	-0.057620453	-4.5890435	2.1509853	0.7790224
47	2	6	0.19802104	-5.3808982	2.5725334	0.17363128
48	4	1	-0.13678703	0.12603367	1.1047187	13.447575
49	4	2	0.051915468	-0.74989468	0.78317616	14.493111
50	4	2	0.15698117	-0.13726479	1.1732989	15.837847
51	4	1	-0.50268954	-1.0409396	0.91418565	16.876924
52	4	3	0.0897293	0.096237948	2.2585106	15.832758
53	4	3	0.0897293	0.81367929	0.61604232	16.002819
54	4	3	0.097276097	-1.6979013	1.3435425	14.346353
55	4	3	0.097276097	-0.98767904	-0.30545084	14.478939
56	5	4	0.79180795	-1.0255155	-0.11209994	17.034959
57	5	5	-0.55548841	-0.97289578	-0.88034492	16.038536
58	5	4	-0.30292675	-1.0642637	-0.65204211	18.406036
59	5	4	-0.10125147	-1.1207647	0.18203742	19.456908
60	5	6	0.21507832	-1.1373212	1.2558642	19.313175
61	5	4	-0.057620408	-1.1606158	-0.35195489	20.834339
62	5	6	0.19802104	-1.2052388	0.34456069	21.663108
63	5	4	-0.36451665	-1.1408972	-1.6782727	21.051367
64	5	4	0.582856	-1.180581	-2.2019287	22.428435
65	5	5	-0.58360529	-1.1633674	-3.4415546	22.647262
66	5	4	-0.057620423	-1.0795299	-2.601635	19.890591
67	5	6	0.19802104	-1.0630208	-3.6725699	20.044984
68	5	4	-0.10125149	-1.0429159	-2.1175979	18.642458
69	5	6	0.21507838	-0.99846062	-2.8063838	17.807839
70	1	1	-0.13112821	0.83760948	0.41182865	13.450622
71	1	2	0.023862857	0.60783558	-0.40291313	12.333851
72	1	2	0.095883032	1.0630139	0.30409139	11.05739
73	1	7	-0.6776948	0.89608782	-0.53720856	9.948853
74	1	8	0.39640659	-0.074524394	-0.53796273	9.7370504
75	1	3	0.095099127	2.1391231	0.56344485	11.147349
76	1	3	0.095099127	0.49062341	1.2489744	10.916993
77	1	3	0.097968524	1.1858784	-1.3436839	12.456272
78	1	3	0.097968524	-0.47188911	-0.66841378	12.26271
79	2	4	0.58285594	-1.2255998	-1.5215318	23.269079
80	2	5	-0.58360541	-2.121125	-1.6873482	24.139917
81	2	4	-0.36451668	-0.25162111	-0.42205883	23.388271
82	2	4	-0.057620453	0.69773574	-0.25925358	22.451228
83	2	6	0.19802104	0.75840108	-0.9304297	21.602149
84	2	4	-0.098600203	1.6779877	0.84022145	22.56238
85	2	6	0.21507835	2.4292532	0.94154922	21.788415
86	2	4	-0.29209936	1.6345463	1.6935718	23.603298
87	2	4	0.83022404	2.6088323	2.7989755	23.728951
88	2	5	-0.53001487	3.5064189	2.9674187	22.859473
89	2	7	-0.67446333	2.5409506	3.6671786	24.81498
90	2	8	0.40438473	3.2018952	4.4291392	24.914962
91	2	4	-0.098600196	0.58479145	1.5117215	24.63737
92	2	6	0.21507837	0.52859306	2.1848661	25.483965
93	2	4	-0.057620453	-0.30405177	0.51532078	24.536372
94	2	6	0.19802104	-1.0605309	0.40081207	25.301789
95	4	1	-0.13678703	-2.7376811	-5.3788696	39.761037
96	4	2	0.051915468	-1.6128137	-4.7966847	39.161438
97	4	2	0.15698117	-1.3124072	-3.4412235	39.800428
98	4	1	-0.50268954	-0.14849654	-2.8906953	39.247546
99	4	3	0.0897293	-1.1574956	-3.5769454	40.891215
100	4	3	0.0897293	-2.1745153	-2.7496087	39.657306
101	4	3	0.097276097	-0.74300789	-5.4718771	39.309148
102	4	3	0.097276097	-1.7749593	-4.6788314	38.065231
103	5	4	0.79180795	-0.40913945	-2.52342	38.311784
104	5	5	-0.55548841	-1.1928549	-3.1958139	37.591018
105	5	4	-0.30292675	0.1333216	-1.2354011	37.843133
106	5	4	-0.10125147	0.96827369	-0.53190931	38.624905
107	5	6	0.21507832	1.2521026	-0.89765195	39.604553
108	5	4	-0.057620408	1.5166862	0.75982432	38.161524
109	5	6	0.19802104	2.1875566	1.3061738	38.813764
110	5	4	-0.36451665	1.1863926	1.2454583	36.952526
111	5	4	0.582856	1.7377817	2.5347013	36.498734
112	5	5	-0.58360529	1.4380231	3.0018951	35.368809
113	5	4	-0.057620423	0.26430536	0.46837074	36.0867
114	5	6	0.19802104	-0.013252019	0.84269819	35.110047
115	5	4	-0.10125149	-0.23298019	-0.70191986	36.506934
116	5	6	0.21507838	-0.90416796	-1.2550959	35.861572
117	1	1	-0.13112821	-3.5306775	-4.9055926	39.395508
118	1	2	0.023862857	-4.1614732	-5.7990456	38.51937
119	1	2	0.095883032	-4.9393459	-6.8543093	39.305327
120	1	7	-0.6776948	-5.6251758	-7.7066013	38.429119
121	1	8	0.39640659	-4.9483186	-8.3261498	38.048366
122	1	3	0.095099127	-5.6796009	-6.3492098	39.961273
123	1	3	0.095099127	-4.2467434	-7.4388918	39.952406
124	1	3	0.097968524	-4.8662812	-5.2283924	37.877677
125	1	3	0.097968524	-3.4108837	-6.2881274	37.856972
126	2	4	0.58285594	2.409754	3.0946709	37.136336
127	2	5	-0.58360541	3.5129796	3.4827904	36.667214
128	2	4	-0.36451668	2.0340663	3.3963031	38.529016
129	2	4	-0.057620453	0.85348368	2.9756727	39.013916
130	2	6	0.19802104	0.1676289	2.4134189	38.390564
131	2	4	-0.098600203	0.46873166	3.2731578	40.40875
132	2	6	0.21507835	-0.49044316	2.9181744	40.766045
133	2	4	-0.29209936	1.2943323	3.9696993	41.213
134	2	4	0.83022404	0.92350548	4.2757754	42.611479
135	2	5	-0.53001487	-0.17986766	3.8891891	43.083861
136	2	7	-0.67446333	1.7960252	4.997184	43.421493
137	2	8	0.40438473	1.5556505	5.2149669	44.381816
138	2	4	-0.098600196	2.5981535	4.4334198	40.675067
139	2	6	0.21507837	3.2797957	4.9951003	41.301872
140	2	4	-0.057620453	2.9470972	4.163374	39.4108
141	2	6	0.19802104	3.9020168	4.5114772	39.039064
142	4	1	-0.13678703	0.48246056	-5.8836129	59.861107
143	4	2	0.051915468	-0.44647787	-4.9274291	59.429169
144	4	2	0.15698117	0.26943136	-3.7619391	58.747308
145	4	1	-0.50268954	-0.66358194	-2.839326	58.255658
146	4	3	0.0897293	0.86922122	-4.1478866	57.896702
147	4	3	0.0897293	0.96468122	-3.2662965	59.463556
148	4	3	0.097276097	-1.1378135	-5.4072039	58.703816
149	4	3	0.097276097	-1.0515519	-4.5583786	60.289133
150	5	4	0.79180795	-1.0090091	-2.3014162	59.074076
151	5	5	-0.55548841	-1.2335128	-2.9117851	60.152443
152	5	4	-0.30292675	-1.2295544	-0.84789172	58.966757
153	5	4	-0.10125147	-0.98534566	-0.21340496	57.80874
154	5	6	0.21507832	-0.62422329	-0.75652948	56.943499
155	5	4	-0.057620408	-1.2048085	1.2435048	57.693398
156	5	6	0.19802104	-0.99867257	1.7291183	56.746999
157	5	4	-0.36451665	-1.6513713	1.9503324	58.745817
158	5	4	0.582856	-1.8670482	3.4029911	58.621837
159	5	5	-0.58360529	-2.2854981	4.0780574	59.598586
160	5	4	-0.057620423	-1.9228172	1.2501258	60.026361
161	5	6	0.19802104	-2.2829262	1.8018832	60.884787
162	5	4	-0.10125149	-1.7234238	-0.070020137	60.130893
163	5	6	0.21507838	-1.9270246	-0.56395079	61.073002
164	1	1	-0.13112821	0.90531789	-5.5175588	60.681864
165	1	2	0.023862857	0.39961172	-6.2594992	61.757766
166	1	2	0.095883032	1.0691021	-7.6322825	61.818127
167	1	7	-0.6776948	0.61294224	-8.3478209	62.933666
168	1	8	0.39640659	-0.29691157	-8.6762255	62.707248
169	1	3	0.095099127	2.1680853	-7.4991509	61.906896
170	1	3	0.095099127	0.86453411	-8.2005721	60.882529
171	1	3	0.097968524	0.61084569	-5.7084192	62.698968
172	1	3	0.097968524	-0.70484175	-6.3735918	61.665449
173	2	4	0.58285594	-1.6668979	3.905549	57.684274
174	2	5	-0.58360541	-2.5601715	4.6399674	57.183763
175	2	4	-0.36451668	-0.36832391	3.7308317	57.00984
176	2	4	-0.057620453	0.57403261	2.9445508	57.55716
177	2	6	0.19802104	0.39173742	2.4329458	58.495309
178	2	4	-0.098600203	1.8784492	2.7633581	56.888011
179	2	6	0.21507835	2.6143855	2.1219791	57.357819
180	2	4	-0.29209936	2.1416151	3.3832177	55.721768
181	2	4	0.83022404	3.4425854	3.2121855	55.03974
182	2	5	-0.53001487	4.3387171	2.4782958	55.538117
183	2	7	-0.67446333	3.6882632	3.8642069	53.834602
184	2	8	0.40438473	4.5751234	3.7570511	53.35562
185	2	4	-0.098600196	1.0989507	4.2514584	55.118969
186	2	6	0.21507837	1.2861099	4.7606643	54.181586
187	2	4	-0.057620453	-0.083637074	4.4153539	55.725336
188	2	6	0.19802104	-0.82911824	5.0532204	55.268588
189	4	1	-0.13678703	-0.18299669	-1.4330588	83.699737
190	4	2	0.051915468	-0.22395408	-2.0083965	82.422594
191	4	2	0.15698117	0.39987678	-1.0646578	81.394966
192	4	1	-0.50268954	0.42021712	-1.6681175	80.130501
193	4	3	0.0897293	1.4434402	-0.83447126	81.695338
194	4	3	0.0897293	-0.16845368	-0.10668345	81.358488
195	4	3	0.097276097	0.35103605	-2.9587762	82.443325
196	4	3	0.097276097	-1.2746112	-2.2477501	82.138551
197	5	4	0.79180795	-0.54930335	-1.6178198	79.761753
198	5	5	-0.55548841	-1.5106031	-1.8306955	80.546873
199	5	4	-0.30292675	-0.78726968	-1.3013303	78.34186
200	5	4	-0.10125147	0.24990262	-1.0776599	77.518781
201	5	6	0.21507832	1.2688803	-1.1250621	77.884123
202	5	4	-0.057620408	0.019139676	-0.76054772	76.093915
203	5	6	0.19802104	0.87489646	-0.58399558	75.453219
204	5	4	-0.36451665	-1.2311307	-0.69242286	75.605252
205	5	4	0.582856	-1.4518925	-0.37518621	74.183025
206	5	5	-0.58360529	-2.6170252	-0.30852731	73.710927
207	5	4	-0.057620423	-2.378712	-0.94050375	76.5137
208	5	6	0.19802104	-3.3926362	-0.89035614	76.138928
209	5	4	-0.10125149	-2.1694758	-1.2273618	77.80498
210	5	6	0.21507838	-3.0189012	-1.4055555	78.452833
211	1	1	-0.13112821	-0.90270158	-0.74910577	83.725798
212	1	2	0.023862857	-1.9170257	-1.2662232	84.542814
213	1	2	0.095883032	-1.5220593	-1.1550831	86.015242
214	1	7	-0.6776948	-2.5644782	-1.6095253	86.834601
215	1	8	0.39640659	-2.549304	-2.6017982	86.78863
216	1	3	0.095099127	-1.3168643	-0.09122558	86.259107
217	1	3	0.095099127	-0.59376255	-1.7389987	86.208771
218	1	3	0.097968524	-2.845417	-0.68150681	84.368554
219	1	3	0.097968524	-2.1240623	-2.328707	84.278956
220	2	4	0.58285594	-0.60935983	-0.19601478	73.527521
221	2	5	-0.58360541	-0.5336379	-0.83488057	72.444038
222	2	4	-0.36451668	0.42818712	0.78153872	73.901108
223	2	4	-0.057620453	0.33235043	1.4551281	75.059955
224	2	6	0.19802104	-0.50391667	1.288919	75.729377
225	2	4	-0.098600203	1.3678298	2.4366454	75.442708
226	2	6	0.21507835	1.2583637	2.9610851	76.384339
227	2	4	-0.29209936	2.420919	2.6704413	74.636516
228	2	4	0.83022404	3.4655852	3.6500063	75.005384
229	2	5	-0.53001487	3.3925834	4.2912313	76.088678
230	2	7	-0.67446333	4.5441146	3.8720315	74.153724
231	2	8	0.40438473	5.2676624	4.5404621	74.392695
232	2	4	-0.098600196	2.5246748	1.9250691	73.356667
233	2	6	0.21507837	3.3620669	2.0949553	72.691145
234	2	4	-0.057620453	1.5862451	1.0350268	73.009923
235	2	6	0.19802104	1.6813837	0.50325431	72.072159
236	4	1	-0.13678703	-4.6867651	16.875052	2.9370624
237	4	2	0.051915468	-3.3137777	17.128731	3.056801
238	4	2	0.15698117	-2.9068332	18.287857	2.1475976
239	4	1	-0.50268954	-1.5482076	18.585319	2.3181872
240	4	3	0.0897293	-3.5028429	19.186518	2.4110656
241	4	3	0.0897293	-3.1175363	18.033383	1.0832235
242	4	3	0.097276097	-3.0935022	17.396582	4.1122628
243	4	3	0.097276097	-2.7271483	16.215697	2.803649
244	5	4	0.79180795	-1.0173256	17.849154	1.8135087
245	5	5	-0.55548841	-1.4154207	16.656441	1.8826825
246	5	4	-0.30292675	0.18073425	18.203254	1.0311043
247	5	4	-0.10125147	0.59116605	19.480312	0.96881863
248	5	6	0.21507832	0.050900048	20.263066	1.4879017
249	5	4	-0.057620408	1.7917749	19.842787	0.18702283
250	5	6	0.19802104	2.0992531	20.881221	0.15395935
251	5	4	-0.36451665	2.486837	18.898796	-0.47053242
252	5	4	0.582856	3.6827588	19.26943	-1.2480326
253	5	5	-0.58360529	4.3441651	18.396276	-1.8685141
254	5	4	-0.057620423	2.0349541	17.48641	-0.40174422
255	5	6	0.19802104	2.5814111	16.712166	-0.92418311
256	5	4	-0.10125149	0.94667794	17.158151	0.30633143
257	5	6	0.21507838	0.63200702	16.122555	0.34524352
258	1	1	-0.13112821	-4.8119862	16.391898	2.0783846
259	1	2	0.023862857	-5.1079515	15.062095	2.4067257
260	1	2	0.095883032	-6.5552758	14.941738	2.8833404
261	1	7	-0.6776948	-6.8713222	13.601871	3.1467318
262	1	8	0.39640659	-6.4473532	13.376188	4.0163676
263	1	3	0.095099127	-7.234033	15.316918	2.0884213
264	1	3	0.095099127	-6.7125926	15.563617	3.7936502
265	1	3	0.097968524	-4.9681199	14.433718	1.5013199
266	1	3	0.097968524	-4.4114692	14.692471	3.1939026
267	2	4	0.58285594	4.00545	20.301679	-1.2925547
268	2	5	-0.58360541	5.2037265	20.577902	-1.0175041
269	2	4	-0.36451668	3.0544424	21.361956	-1.6708114
270	2	4	-0.057620453	1.7799917	21.05061	-1.9617953
271	2	6	0.19802104	1.4384024	20.022574	-1.9223834
272	2	4	-0.098600203	0.81973411	22.106891	-2.3416229
273	2	6	0.21507835	-0.19970174	21.819479	-2.5692938
274	2	4	-0.29209936	1.2075204	23.395132	-2.4021347
275	2	4	0.83022404	0.2583142	24.463978	-2.7809674
276	2	5	-0.53001487	-0.94133412	24.190883	-3.0571718
277	2	7	-0.67446333	0.68544348	25.787787	-2.8351514
278	2	8	0.40438473	0.046650301	26.531174	-3.093505
279	2	4	-0.098600196	2.6160854	23.736729	-2.0802438
280	2	6	0.21507837	2.9525055	24.765387	-2.1213565
281	2	4	-0.057620453	3.4864234	22.779268	-1.7355182
282	2	6	0.19802104	4.5085368	23.050524	-1.5054328
283	4	1	-0.13678703	-1.8392178	17.912277	13.834624
284	4	2	0.051915468	-0.92303121	17.554135	14.832683
285	4	2	0.15698117	-1.39269	18.067596	16.19342
286	4	1	-0.50268954	-0.51168089	17.651204	17.200341
287	4	3	0.0897293	-2.4007345	17.657137	16.411603
288	4	3	0.0897293	-1.4679966	19.17943	16.179288
289	4	3	0.097276097	-0.84925029	16.446086	14.865073
290	4	3	0.097276097	0.087405195	17.959703	14.595229
291	5	4	0.79180795	0.32800837	18.258204	17.129999
292	5	5	-0.55548841	0.76967019	18.555821	15.988865
293	5	4	-0.30292675	0.98538322	18.759162	18.350569
294	5	4	-0.10125147	0.50098076	18.431272	19.559311
295	5	6	0.21507832	-0.37419853	17.799504	19.654003
296	5	4	-0.057620408	1.155136	18.929125	20.78743
297	5	6	0.19802104	0.74200728	18.649075	21.749136
298	5	4	-0.36451665	2.2423035	19.715588	20.709001
299	5	4	0.582856	2.8879957	20.2078	21.939007
300	5	5	-0.58360529	3.9071441	20.944594	21.881348
301	5	4	-0.057620423	2.7796172	20.078054	19.373457
302	5	6	0.19802104	3.654059	20.710004	19.289784
303	5	4	-0.10125149	2.18644	19.627251	18.260628
304	5	6	0.21507838	2.5925916	19.901892	17.294915
305	1	1	-0.13112821	-1.6912943	18.876245	13.646661
306	1	2	0.023862857	-1.0672265	18.948717	12.394037
307	1	2	0.095883032	-2.0849385	18.711166	11.278588
308	1	7	-0.6776948	-1.4744992	18.850985	10.024667
309	1	8	0.39640659	-0.9459229	18.023649	9.8727756
310	1	3	0.095099127	-2.9001036	19.460763	11.362124
311	1	3	0.095099127	-2.5358098	17.69794	11.379751
312	1	3	0.097968524	-0.62555051	19.961212	12.275936
313	1	3	0.097968524	-0.24227922	18.202783	12.327703
314	2	4	0.58285594	2.4897981	19.938366	22.908797
315	2	5	-0.58360541	3.2664382	19.448321	23.771644
316	2	4	-0.36451668	1.0620349	20.145145	23.209491
317	2	4	-0.057620453	0.24711884	20.669459	22.278449
318	2	6	0.19802104	0.6276538	20.945115	21.301566
319	2	4	-0.098600203	-1.1854363	20.87998	22.570956
320	2	6	0.21507835	-1.8129413	21.304563	21.796581
321	2	4	-0.29209936	-1.6943169	20.550388	23.773459
322	2	4	0.83022404	-3.126081	20.75524	24.081722
323	2	5	-0.53001487	-3.9058218	21.245747	23.220656
324	2	7	-0.67446333	-3.6262257	20.405203	25.332791
325	2	8	0.40438473	-4.605065	20.540016	25.558904
326	2	4	-0.098600196	-0.79205311	19.971284	24.80055
327	2	6	0.21507837	-1.1771077	19.697758	25.77519
328	2	4	-0.057620453	0.50644438	19.780054	24.535234
329	2	6	0.19802104	1.1463013	19.357049	25.298703
330	4	1	-0.13678703	1.2305483	19.265225	44.857746
331	4	2	0.051915468	0.20571108	19.563923	43.94985
332	4	2	0.15698117	0.4661692	18.876033	42.61015
333	4	1	-0.50268954	-0.59246834	19.119521	41.725024
334	4	3	0.0897293	0.54970406	17.780874	42.771032
335	4	3	0.0897293	1.4267836	19.235467	42.174178
336	4	3	0.097276097	-0.75628056	19.198181	44.368264
337	4	3	0.097276097	0.12251115	20.666071	43.807731
338	5	4	0.79180795	-0.47464364	20.092459	41.381535
339	5	5	-0.55548841	-0.11337801	20.984705	42.193453
340	5	4	-0.30292675	-0.72757611	20.414826	39.965557
341	5	4	-0.10125147	-1.1127175	19.450754	39.113826
342	5	6	0.21507832	-1.2409301	18.429504	39.45242
343	5	4	-0.057620408	-1.3688365	19.766536	37.693003
344	5	6	0.19802104	-1.6777685	18.968515	37.028393
345	5	4	-0.36451665	-1.2194509	21.021986	37.236781
346	5	4	0.582856	-1.4767008	21.327727	35.818172
347	5	5	-0.58360529	-1.3416028	22.49887	35.376555
348	5	4	-0.057620423	-0.79476848	22.089056	38.177404
349	5	6	0.19802104	-0.66921565	23.105864	37.829053
350	5	4	-0.10125149	-0.56222571	21.802667	39.464794
351	5	6	0.21507838	-0.25325595	22.594082	40.136501
352	1	1	-0.13112821	2.0111043	19.821388	44.597244
353	1	2	0.023862857	2.1301186	20.824319	45.568708
354	1	2	0.095883032	2.7445766	20.255477	46.847479
355	1	7	-0.6776948	2.9262756	21.272567	47.794589
356	1	8	0.39640659	2.0303258	21.46714	48.177165
357	1	3	0.095099127	3.7339774	19.810125	46.610592
358	1	3	0.095099127	2.0942304	19.451744	47.261253
359	1	3	0.097968524	2.7891581	21.625861	45.172012
360	1	3	0.097968524	1.1340912	21.273378	45.786958
361	2	4	0.58285594	-1.7863662	20.543654	35.139213
362	2	5	-0.58360541	-2.8142607	20.720679	34.432166
363	2	4	-0.36451668	-1.0133222	19.29244	35.046761
364	2	4	-0.057620453	0.080980033	19.119539	35.807314
365	2	6	0.19802104	0.4063483	19.893321	36.493239
366	2	4	-0.098600203	0.86178416	17.868511	35.721477
367	2	6	0.21507835	1.7381842	17.763453	36.349629
368	2	4	-0.29209936	0.48882566	16.885021	34.880494
369	2	4	0.83022404	1.2600299	15.626989	34.782834
370	2	5	-0.53001487	2.289289	15.446854	35.488669
371	2	7	-0.67446333	0.85198478	14.626183	33.90549
372	2	8	0.40438473	1.3704777	13.758735	33.827213
373	2	4	-0.098600196	-0.72052835	17.078303	34.041171
374	2	6	0.21507837	-1.0413098	16.302242	33.357187
375	2	4	-0.057620453	-1.4285509	18.212171	34.119307
376	2	6	0.19802104	-2.3064671	18.332246	33.497954
377	4	1	-0.13678703	-2.1558351	24.873698	56.582456
378	4	2	0.051915468	-2.4773158	23.758836	57.368278
379	4	2	0.15698117	-1.210204	22.991994	57.745384
380	4	1	-0.50268954	-1.5253016	21.916777	58.586852
381	4	3	0.0897293	-0.51692212	23.672185	58.282911
382	4	3	0.0897293	-0.69413361	22.627714	56.827225
383	4	3	0.097276097	-2.9812583	24.110856	58.29369
384	4	3	0.097276097	-3.184359	23.09141	56.823774
385	5	4	0.79180795	-1.9340959	21.177139	57.983282
386	5	5	-0.55548841	-2.7265303	21.511536	57.06347
387	5	4	-0.30292675	-1.5867202	19.76201	58.206061
388	5	4	-0.10125147	-0.74025984	19.42355	59.192045
389	5	6	0.21507832	-0.30281137	20.180265	59.832403
390	5	4	-0.057620408	-0.38789609	18.006837	59.421868
391	5	6	0.19802104	0.29823746	17.763145	60.22425
392	5	4	-0.36451665	-0.91042744	17.040804	58.647046
393	5	4	0.582856	-0.55313722	15.630601	58.883221
394	5	5	-0.58360529	-1.035006	14.714909	58.166168
395	5	4	-0.057620423	-1.8471763	17.413319	57.557322
396	5	6	0.19802104	-2.2783254	16.649884	56.923059
397	5	4	-0.10125149	-2.1660075	18.697202	57.348848
398	5	6	0.21507838	-2.8512616	18.950153	56.549203
399	1	1	-0.13112821	-1.9581948	24.530958	55.67146
400	1	2	0.023862857	-3.0389231	24.902869	54.860604
401	1	2	0.095883032	-2.9522257	26.387482	54.507331
402	1	7	-0.6776948	-3.995145	26.743598	53.641303
403	1	8	0.39640659	-4.8159291	26.807989	54.197285
404	1	3	0.095099127	-1.9850879	26.586101	53.99884
405	1	3	0.095099127	-2.988815	27.005137	55.433241
406	1	3	0.097968524	-3.0044875	24.302533	53.926483
407	1	3	0.097968524	-4.0029797	24.685258	55.374994
408	2	4	0.58285594	0.13045774	15.367778	59.680259
409	2	5	-0.58360541	-0.21173327	14.482797	60.509436
410	2	4	-0.36451668	1.4391946	16.03663	59.787623
411	2	4	-0.057620453	1.7892869	16.978004	58.894828
412	2	6	0.19802104	1.1178561	17.254711	58.090025
413	2	4	-0.098600203	3.0989636	17.653898	58.994874
414	2	6	0.21507835	3.3477305	18.408056	58.257956
415	2	4	-0.29209936	3.9597923	17.336282	59.980622
416	2	4	0.83022404	5.274606	18.003605	60.094128
417	2	5	-0.53001487	5.6202251	18.889303	59.265809
418	2	7	-0.67446333	6.1453147	17.656547	61.123333
419	2	8	0.40438473	7.0499095	18.104809	61.213877
420	2	4	-0.098600196	3.5708387	16.295896	60.965848
421	2	6	0.21507837	4.2453878	16.022815	61.76798
422	2	4	-0.057620453	2.3834558	15.683526	60.875398
423	2	6	0.19802104	2.1205059	14.927679	61.60395
424	4	1	-0.13678703	2.0626169	23.403581	73.620976
425	4	2	0.051915468	1.2161213	23.311265	74.733949
426	4	2	0.15698117	1.5966948	22.104957	75.591743
427	4	1	-0.50268954	0.79431149	22.05224	76.739283
428	4	3	0.0897293	2.6577315	22.19815	75.904393
429	4	3	0.0897293	1.4916667	21.165477	75.001495
430	4	3	0.097276097	1.3220432	24.237832	75.337703
431	4	3	0.097276097	0.15351459	23.232564	74.407568
432	5	4	0.79180795	-0.13229051	21.693271	76.43758
433	5	5	-0.55548841	-0.61608594	22.098124	75.347688
434	5	4	-0.30292675	-0.86196268	20.72575	77.276848
435	5	4	-0.10125147	-0.33110845	20.305276	78.43642
436	5	6	0.21507832	0.63451227	20.667528	78.768665
437	5	4	-0.057620408	-1.057103	19.335991	79.283459
438	5	6	0.19802104	-0.60428635	19.013782	80.213577
439	5	4	-0.36451665	-2.2568908	18.86416	78.903335
440	5	4	0.582856	-2.9736233	17.897478	79.754174
441	5	5	-0.58360529	-4.0982723	17.447291	79.41161
442	5	4	-0.057620423	-2.8455306	19.328882	77.622202
443	5	6	0.19802104	-3.8104537	18.960632	77.299207
444	5	4	-0.10125149	-2.1873143	20.206851	76.854484
445	5	6	0.21507838	-2.6323724	20.534744	75.923141
446	1	1	-0.13112821	1.7611481	22.70998	72.977175
447	1	2	0.023862857	1.1336624	23.38769	71.923254
448	1	2	0.095883032	2.1764543	24.028943	71.007954
449	1	7	-0.6776948	1.5515551	24.648727	69.917141
450	1	8	0.39640659	1.1633706	25.497525	70.25744
451	1	3	0.095099127	2.8600199	23.241779	70.625227
452	1	3	0.095099127	2.7848562	24.767549	71.577561
453	1	3	0.097968524	0.53445484	22.657261	71.338794
454	1	3	0.097968524	0.43985066	24.164151	72.3196
455	2	4	0.58285594	-2.5372554	17.56417	80.686985
456	2	5	-0.58360541	-3.2247441	17.634202	81.740681
457	2	4	-0.36451668	-1.1615699	17.036675	80.71733
458	2	4	-0.057620453	-0.44182894	16.968049	79.584591
459	2	6	0.19802104	-0.86176872	17.29738	78.641042
460	2	4	-0.098600203	0.93798275	16.441009	79.605621
461	2	6	0.21507835	1.4888421	16.400545	78.673631
462	2	4	-0.29209936	1.4932698	16.021849	80.758689
463	2	4	0.83022404	2.873214	15.491481	80.796147
464	2	5	-0.53001487	3.5636882	15.419705	79.743475
465	2	7	-0.67446333	3.4231736	15.065435	82.001914
466	2	8	0.40438473	4.3674291	14.699246	82.04333
467	2	4	-0.098600196	0.69615563	16.098597	82.008919
468	2	6	0.21507837	1.1202124	15.768018	82.949079
469	2	4	-0.057620453	-0.55446825	16.576756	81.989913
470	2	6	0.19802104	-1.1177712	16.623276	82.912822
471	4	1	-0.13678703	0.55742914	44.657968	1.8923331
472	4	2	0.051915468	1.2188003	43.670415	1.1499643
473	4	2	0.15698117	0.22431243	42.616711	0.66362104
474	4	1	-0.50268954	0.87474694	41.666753	-0.13510394
475	4	3	0.0897293	-0.56445412	43.109721	0.057796493
476	4	3	0.0897293	-0.26665151	42.121681	1.5330719
477	4	3	0.097276097	1.7018134	44.150649	0.27227504
478	4	3	0.097276097	2.016991	43.193103	1.7638992
479	5	4	0.79180795	1.3981137	41.044109	0.51055658
480	5	5	-0.55548841	1.9932468	41.552594	1.4970082
481	5	4	-0.30292675	1.4380309	39.590464	0.26928554
482	5	4	-0.10125147	0.79795408	39.065501	-0.7880359
483	5	6	0.21507832	0.2460937	39.698048	-1.4731431
484	5	4	-0.057620408	0.83411048	37.609177	-1.0367692
485	5	6	0.19802104	0.30788769	37.213376	-1.8972419
486	5	4	-0.36451665	1.5079421	36.793298	-0.20797448
487	5	4	0.582856	1.5383075	35.342138	-0.46354877
488	5	5	-0.58360529	2.1656841	34.56567	0.30349102
489	5	4	-0.057620423	2.2169375	37.372295	0.96072231
490	5	6	0.19802104	2.7649712	36.731757	1.6392355
491	5	4	-0.10125149	2.1836756	38.691949	1.1862859
492	5	6	0.21507838	2.7069862	39.096534	2.043868
493	1	1	-0.13112821	0.36862913	44.263503	2.7840716
494	1	2	0.023862857	1.2422807	44.881962	3.6885163
495	1	2	0.095883032	0.75458264	46.292465	4.0187087
496	1	7	-0.6776948	1.5906549	46.885378	4.9747113
497	1	8	0.39640659	2.4169093	47.16099	4.4969133
498	1	3	0.095099127	-0.27415864	46.235585	4.4332254
499	1	3	0.095099127	0.72074449	46.91304	3.0946484
500	1	3	0.097968524	1.2731023	44.278573	4.6207942
501	1	3	0.097968524	2.2733498	44.91977	3.2680118
502	2	4	0.58285594	1.0188258	34.928373	-1.3182919
503	2	5	-0.58360541	1.6466299	34.169183	-2.1039846
504	2	4	-0.36451668	-0.39996773	35.250292	-1.5529718
505	2	4	-0.057620453	-1.055372	36.061178	-0.70518497
506	2	6	0.19802104	-0.55180485	36.485231	0.15603125
507	2	4	-0.098600203	-2.4775088	36.389573	-0.93273127
508	2	6	0.21507835	-2.9740186	37.046805	-0.229017
509	2	4	-0.29209936	-3.1366716	35.881195	-1.9913437
510	2	4	0.83022404	-4.5603722	36.200205	-2.2326908
511	2	5	-0.53001487	-5.1915805	36.959244	-1.4481766
512	2	7	-0.67446333	-5.2176774	35.661484	-3.3352216
513	2	8	0.40438473	-6.1933197	35.870631	-3.5135673
514	2	4	-0.098600196	-2.4105036	34.985511	-2.926644
515	2	6	0.21507837	-2.9182298	34.564149	-3.7855238
516	2	4	-0.057620453	-1.1212408	34.68818	-2.7206023
517	2	6	0.19802104	-0.61141182	34.032739	-3.4146526
518	4	1	-0.13678703	1.6902203	42.047868	14.50964
519	4	2	0.051915468	0.55655495	41.644617	15.227955
520	4	2	0.15698117	0.93548537	41.299228	16.667728
521	4	1	-0.50268954	-0.20822677	40.961577	17.403501
522	4	3	0.0897293	1.4150522	42.181041	17.141705
523	4	3	0.0897293	1.6674713	40.458954	16.681221
524	4	3	0.097276097	-0.17588817	42.479945	15.232499
525	4	3	0.097276097	0.076329426	40.768283	14.734729
526	5	4	0.79180795	-0.47156289	39.998491	17.117854
527	5	5	-0.55548841	-0.38648023	39.679682	15.902556
528	5	4	-0.30292675	-0.93560471	39.027006	18.124717
529	5	4	-0.10125147	-1.0206306	39.384451	19.416311
530	5	6	0.21507832	-0.75021142	40.384235	19.734656
531	5	4	-0.057620408	-1.4856922	38.416154	20.431285
532	5	6	0.19802104	-1.5436233	38.732013	21.466109
533	5	4	-0.36451665	-1.8290096	37.166819	20.073649
534	5	4	0.582856	-2.2913815	36.207667	21.092641
535	5	5	-0.58360529	-2.6168991	35.034417	20.772676
536	5	4	-0.057620423	-1.7365651	36.770511	18.646008
537	5	6	0.19802104	-2.0086701	35.769311	18.338487
538	5	4	-0.10125149	-1.3146412	37.64791	17.726431
539	5	6	0.21507838	-1.2537584	37.341054	16.68955
540	1	1	-0.13112821	2.1987885	41.22205	14.295562
541	1	2	0.023862857	2.0317933	40.993505	12.923098
542	1	2	0.095883032	2.9090101	41.949042	12.114497
543	1	7	-0.6776948	2.7934106	41.674959	10.744819
544	1	8	0.39640659	1.9206661	42.049539	10.453347
545	1	3	0.095099127	3.9695577	41.814241	12.415222
546	1	3	0.095099127	2.6219527	43.004326	12.324544
547	1	3	0.097968524	2.3291007	39.946786	12.699138
548	1	3	0.097968524	0.96225735	41.117022	12.636404
549	2	4	0.58285594	-2.3561029	36.5051	22.131387
550	2	5	-0.58360541	-3.4332461	36.309323	22.755288
551	2	4	-0.36451668	-1.1993344	37.127021	22.799805