Title

103 atoms
106 bonds
175 angles
282 dihedrals
126 impropers

9 atom types
14 bond types
8 angle types
30 dihedral types
3 improper types
-14.77400017 85.22599983 xlo xhi
-10.47399998 89.52600002 ylo yhi
-2.579999924 97.42000008 zlo zhi
0.0 0.0 0.0 xy xz yz

Masses

1	14.00672
2	12.01078
3	1.007947
4	15.99943
5	1.007947
6	12.01078
7	1.007947
8	15.99943
9	1.007947


Pair Coeffs

1	0.16769152	3.206876
2	0.086879315	3.4806469
3	0.015611343	2.5725815
4	0.2102061	3.0398122
5	0.014090815	1.1034277
6	0.10884061	3.3795318
7	0.015779483	2.6445434
8	0.20947353	2.99716
9	1.2326e-05	0.53453923

Bond Coeffs

1 harmonic	390.03554688505	1.390160554689
2 harmonic	505.144496193	1.019481865027
3 harmonic	422.7150220147	1.421786517481
4 harmonic	360.7852444772	1.387193227181
5 harmonic	397.2545789619	1.085358495916
6 harmonic	279.1350963404	1.454628925034
7 harmonic	399.1592953295	1.371688562017
8 harmonic	582.698766451	1.225198386222
9 harmonic	492.76746816345	1.381897776683
10 harmonic	329.44145381095	1.523435958334
11 harmonic	264.62148576755	1.52190126495
12 harmonic	370.04670688625	1.093899492634
13 harmonic	385.7604595587	1.369745182308
14 harmonic	543.5267831885	0.9716763312559


Angle Coeffs

1 harmonic	57.8982893754	126.8062420451
2 harmonic	55.42182150775	117.3465570514
3 harmonic	63.44422595415	115.5071327674
4 harmonic	34.066775159195	129.1835929926
5 harmonic	53.20531626545	116.5475862634
6 harmonic	48.776492647595	115.6030999533
7 harmonic	65.09061609600001	110.3538806181
8 harmonic	201.41175231035	127.4691416191


Dihedral Coeffs

1 fourier 1	3.661930099076	2	180
2 fourier 1	1.193093382682	2	180
3 fourier 1	0.02021088501612	1	0
4 fourier 1	1.163235555439	2	180
5 fourier 1	5.294842998052	2	180
6 fourier 1	0.2347635637734	2	180
7 fourier 1	0.4747469131102	3	0
8 fourier 1	0.9974165607242	2	180
9 fourier 1	3.101948770557	2	180
10 fourier 1	-0.4252153282372	1	0
11 fourier 1	1.809047390003	2	180
12 fourier 1	-0.04816277792592	1	0
13 fourier 1	-0.04561822763521	4	0
14 fourier 1	0.1536091026885	2	0
15 fourier 1	0.02664938770063	3	0
16 fourier 1	2.348375642009	2	180
17 fourier 1	1.256156174911	1	0
18 fourier 1	0.1155372516788	3	0
19 fourier 1	-0.3703352413219	2	0
20 fourier 1	0.4541676554336	1	0
21 fourier 1	0.1489710476446	2	0
22 fourier 1	0.02960027280666	3	180
23 fourier 1	0.09223874044423	3	0
24 fourier 1	0.3159935921949	2	180
25 fourier 1	0.3247796806857	1	180
26 fourier 1	0.1040663847541	3	0
27 fourier 1	0.1911926717192	3	0
28 fourier 1	2.687457892086	2	180
29 fourier 1	2.772607909663	2	180
30 fourier 1	0.09692684957115	1	0


Improper Coeffs

1 0.3666666666666667	-1	2
2 0.3333333333333333	-1	2
3 3.5	-1	2


Atoms

1	1	1	-0.41415599	-6.9429998	-0.057	-0.81300002
2	1	2	0.1166	-5.6259999	-0.13500001	-0.25999999
3	1	2	-0.41706699	-5.3800001	-0.917	0.80299997
4	1	3	0.231056	-6.1729999	-1.5	1.255
5	1	2	-0.087844998	-4.0209999	-0.98400003	1.375
6	1	3	0.224242	-3.835	-1.599	2.247
7	1	2	-0.28601599	-3.026	-0.27700001	0.829
8	1	3	0.218116	-2.04	-0.31400001	1.275
9	1	2	-0.083169997	-3.277	0.56900001	-0.368
10	1	2	0.031440999	-2.201	1.396	-0.95700002
11	1	2	-0.46325701	-0.94400001	0.98299998	-1.179
12	1	2	0.60329902	-0.479	-0.419	-1.0599999
13	1	4	-0.56862599	-1.279	-1.363	-1.301
14	1	2	-0.46325701	0.92299998	-0.75800002	-0.73900002
15	1	2	0.031440999	1.802	0.133	-0.25400001
16	1	2	-0.089933001	3.2130001	-0.189	0.071999997
17	1	2	-0.28601599	3.6340001	-1.4400001	0.35699999
18	1	3	0.218116	2.9530001	-2.279	0.375
19	1	2	-0.10526	5.0500002	-1.693	0.69199997
20	1	3	0.224242	5.3769999	-2.701	0.91100001
21	1	2	-0.393132	5.9239998	-0.68199998	0.73100001
22	1	3	0.22874101	6.96	-0.87599999	0.98000002
23	1	2	0.18354701	5.4770002	0.69800001	0.44100001
24	1	1	-0.49380299	6.415	1.776	0.493
25	1	5	0.31284401	6.1209998	2.7579999	0.292
26	1	2	-0.33811301	4.191	0.92799997	0.133
27	1	3	0.226408	3.859	1.938	-0.081
28	1	3	0.213864	1.495	1.161	-0.112
29	1	3	0.174807	1.222	-1.783	-0.90399998
30	1	3	0.174807	-0.236	1.717	-1.541
31	1	3	0.213864	-2.448	2.418	-1.219
32	1	2	-0.342471	-4.5240002	0.65399998	-0.86000001
33	1	3	0.226555	-4.7340002	1.2920001	-1.711
34	1	5	0.377018	-7.1339998	0.55199999	-1.6390001
35	1	2	0.76191097	7.4349999	1.5930001	0.73799998
36	1	4	-0.662889	8.2049999	2.536	0.829
37	1	6	-0.182173	7.9330001	0.197	0.97100002
38	1	6	-0.109997	6.8060002	-0.829	0.80699998
39	1	6	-0.083463997	7.3189998	-2.2539999	1.046
40	1	6	-0.24722099	6.1929998	-3.279	0.88200003
41	1	2	0.53482598	6.6900001	-4.6750002	1.115
42	1	4	-0.53022403	5.921	-5.618	1.024
43	1	7	0.13604601	5.381	-3.062	1.61
44	1	7	0.13604601	5.776	-3.2149999	-0.147
45	1	7	0.100896	7.7360001	-2.3269999	2.075
46	1	7	0.100896	8.1309996	-2.48	0.31900001
47	1	7	0.109262	5.9949999	-0.60299999	1.534
48	1	7	0.109262	6.3899999	-0.75599998	-0.223
49	1	7	0.140405	8.3500004	0.132	2
50	1	7	0.140405	8.7440004	-0.02	0.243
51	1	1	-0.41415599	-7.7329998	-0.60500002	-0.405
52	1	2	0.1166	-8.0430002	-0.528	0.98900002
53	1	2	-0.41706699	-7.3189998	0.255	1.8049999
54	1	3	0.231056	-6.4910002	0.83700001	1.419
55	1	2	-0.087844998	-7.6370001	0.322	3.2449999
56	1	3	0.224242	-7.0339999	0.93599999	3.9000001
57	1	2	-0.28601599	-8.6590004	-0.38600001	3.7409999
58	1	3	0.218116	-8.8640003	-0.34799999	4.803
59	1	2	-0.083169997	-9.4899998	-1.2309999	2.8440001
60	1	2	0.031440999	-10.592	-2.0580001	3.3800001
61	1	2	-0.46325701	-11.5	-1.645	4.2779999
62	1	2	0.60329902	-11.672	-0.243	4.7259998
63	1	4	-0.56862599	-11.407	0.70099998	3.934
64	1	2	-0.46325701	-12.221	0.094999999	6.0549998
65	1	2	0.031440999	-12.334	-0.79500002	7.053
66	1	2	-0.037234001	-12.884	-0.47299999	8.3929996
67	1	2	-0.28601599	-12.895	0.77700001	8.901
68	1	3	0.218116	-12.486	1.617	8.3559999
69	1	2	-0.039227001	-13.44	1.031	10.25
70	1	3	0.224242	-13.451	2.039	10.644
71	1	2	-0.453805	-13.914	0.02	10.986
72	1	3	0.23504201	-14.31	0.214	11.975
73	1	2	0.31619999	-13.892	-1.36	10.454
74	1	1	-0.84927201	-14.392	-2.438	11.249
75	1	5	0.37255901	-14.774	-2.2590001	12.204
76	1	5	0.37255901	-14.385	-3.4200001	10.892
77	1	2	-0.408613	-13.399	-1.59	9.2250004
78	1	3	0.23625199	-13.382	-2.5999999	8.8319998
79	1	3	0.213864	-12.041	-1.823	6.8850002
80	1	3	0.174807	-12.529	1.1210001	6.204
81	1	3	0.174807	-12.205	-2.3800001	4.6459999
82	1	3	0.213864	-10.663	-3.0799999	3.0280001
83	1	2	-0.342471	-9.1700001	-1.317	1.541
84	1	3	0.226555	-9.743	-1.954	0.87800002
85	1	5	0.377018	-8.2959995	-1.214	-1.039
86	1	2	0.53482598	7.7290001	-4.862	1.365
87	1	4	-0.53022403	8.0570002	-4.9710002	2.536
88	1	6	-0.24722099	8.7539997	-4.9660001	0.27500001
89	1	6	-0.082534	9.3529997	-6.375	0.219
90	1	6	-0.10056	10.382	-6.4899998	-0.91600001
91	1	6	-0.207691	11.049	-7.8709998	-0.958
92	1	2	0.846654	10.085	-8.9420004	-1.3660001
93	1	4	-0.44467899	9.7810001	-9.0889997	-2.5799999
94	1	8	-0.64173901	9.5	-9.7539997	-0.40000001
95	1	9	0.42672899	8.8360004	-10.474	-0.65799999
96	1	7	0.143462	11.484	-8.1149998	0.035999998
97	1	7	0.143462	11.885	-7.8449998	-1.6900001
98	1	7	0.110356	11.175	-5.7259998	-0.764
99	1	7	0.110356	9.8929996	-6.2810001	-1.893
100	1	7	0.100896	9.849	-6.605	1.188
101	1	7	0.100896	8.5349998	-7.1110001	0.057
102	1	7	0.13604601	8.2679996	-4.73	-0.69599998
103	1	7	0.13604601	9.5550003	-4.217	0.458

Bonds

1	1	1	2
2	2	1	34
3	3	1	51
4	4	2	3
5	4	2	32
6	5	3	4
7	4	3	5
8	5	5	6
9	4	5	7
10	5	7	8
11	4	7	9
12	6	9	10
13	4	9	32
14	7	10	11
15	5	10	31
16	6	11	12
17	5	11	30
18	8	12	13
19	6	12	14
20	7	14	15
21	5	14	29
22	6	15	16
23	5	15	28
24	4	16	17
25	4	16	26
26	5	17	18
27	4	17	19
28	5	19	20
29	4	19	21
30	5	21	22
31	4	21	23
32	1	23	24
33	4	23	26
34	2	24	25
35	9	24	35
36	5	26	27
37	5	32	33
38	8	35	36
39	10	35	37
40	11	37	38
41	12	37	49
42	12	37	50
43	11	38	39
44	12	38	47
45	12	38	48
46	11	39	40
47	12	39	45
48	12	39	46
49	10	40	41
50	12	40	43
51	12	40	44
52	8	41	42
53	6	41	86
54	1	51	52
55	2	51	85
56	4	52	53
57	4	52	83
58	5	53	54
59	4	53	55
60	5	55	56
61	4	55	57
62	5	57	58
63	4	57	59
64	6	59	60
65	4	59	83
66	7	60	61
67	5	60	82
68	6	61	62
69	5	61	81
70	8	62	63
71	6	62	64
72	7	64	65
73	5	64	80
74	6	65	66
75	5	65	79
76	4	66	67
77	4	66	77
78	5	67	68
79	4	67	69
80	5	69	70
81	4	69	71
82	5	71	72
83	4	71	73
84	1	73	74
85	4	73	77
86	2	74	75
87	2	74	76
88	5	77	78
89	5	83	84
90	8	86	87
91	10	86	88
92	11	88	89
93	12	88	102
94	12	88	103
95	11	89	90
96	12	89	100
97	12	89	101
98	11	90	91
99	12	90	98
100	12	90	99
101	10	91	92
102	12	91	96
103	12	91	97
104	8	92	93
105	13	92	94
106	14	94	95

Angles

1	5	39	40	41
2	5	41	40	44
3	6	96	91	97
4	4	59	83	84
5	1	61	62	64
6	5	35	37	49
7	6	102	88	103
8	1	63	62	64
9	1	36	35	37
10	1	12	14	15
11	4	59	60	82
12	1	17	19	21
13	4	8	7	9
14	1	15	16	17
15	1	57	59	83
16	4	3	5	6
17	4	66	67	68
18	1	51	52	53
19	5	40	39	45
20	5	91	90	99
21	4	66	65	79
22	4	60	61	81
23	4	53	55	56
24	1	52	53	55
25	6	100	89	101
26	1	65	66	67
27	5	35	37	38
28	5	86	88	89
29	1	42	41	86
30	6	43	40	44
31	2	23	24	35
32	4	15	14	29
33	1	3	5	7
34	5	89	90	98
35	4	6	5	7
36	8	93	92	94
37	1	24	35	37
38	5	38	39	46
39	1	55	57	59
40	1	74	73	77
41	1	91	92	93
42	1	60	61	62
43	5	38	37	49
44	1	40	41	86
45	1	57	59	60
46	1	2	3	5
47	6	45	39	46
48	6	98	90	99
49	1	21	23	26
50	1	11	12	13
51	4	9	32	33
52	1	15	16	26
53	5	89	88	102
54	5	37	38	39
55	1	10	9	32
56	1	41	86	88
57	5	38	37	50
58	4	19	21	22
59	4	58	57	59
60	1	16	17	19
61	1	66	77	73
62	5	88	89	100
63	1	51	52	83
64	5	35	37	50
65	4	62	64	80
66	5	89	90	91
67	1	11	12	14
68	1	52	83	59
69	4	72	71	73
70	3	75	74	76
71	4	67	69	70
72	4	73	77	78
73	2	2	1	51
74	4	11	10	31
75	1	66	67	69
76	5	40	39	46
77	1	19	21	23
78	5	37	38	47
79	1	1	2	3
80	1	53	55	57
81	4	10	11	30
82	1	7	9	32
83	4	12	11	30
84	3	34	1	51
85	4	69	71	72
86	1	24	23	26
87	5	90	91	96
88	5	86	88	102
89	5	39	38	48
90	3	25	24	35
91	5	38	39	40
92	4	61	60	82
93	3	23	24	25
94	5	91	90	98
95	5	90	91	92
96	4	5	7	8
97	1	13	12	14
98	7	92	94	95
99	1	91	92	94
100	5	90	91	97
101	5	88	89	90
102	4	12	14	29
103	4	62	61	81
104	5	90	89	100
105	4	54	53	55
106	4	16	15	28
107	1	53	52	83
108	5	41	40	43
109	1	5	7	9
110	4	9	10	31
111	4	20	19	21
112	1	61	62	63
113	1	64	65	66
114	6	49	37	50
115	4	68	67	69
116	5	89	88	103
117	1	9	10	11
118	1	1	2	32
119	4	52	83	84
120	4	66	77	78
121	3	73	74	75
122	4	23	26	27
123	5	89	90	99
124	5	92	91	96
125	4	2	32	33
126	4	22	21	23
127	4	70	69	71
128	1	71	73	77
129	1	62	64	65
130	5	39	40	43
131	4	52	53	54
132	1	65	66	77
133	5	88	89	101
134	1	67	69	71
135	4	16	26	27
136	3	73	74	76
137	2	1	51	52
138	1	21	23	24
139	5	92	91	97
140	1	3	2	32
141	1	7	9	10
142	1	14	15	16
143	1	24	35	36
144	5	38	39	45
145	5	39	40	44
146	4	55	57	58
147	1	16	26	23
148	4	64	65	79
149	1	69	71	73
150	3	2	1	34
151	1	60	59	83
152	5	86	88	103
153	4	4	3	5
154	4	65	64	80
155	4	2	3	4
156	1	71	73	74
157	1	2	32	9
158	1	17	16	26
159	4	14	15	28
160	1	40	41	42
161	4	17	19	20
162	1	41	86	87
163	4	56	55	57
164	6	47	38	48
165	4	18	17	19
166	1	59	60	61
167	1	10	11	12
168	1	67	66	77
169	5	39	38	47
170	3	1	51	85
171	1	87	86	88
172	5	90	89	101
173	4	16	17	18
174	3	52	51	85
175	5	37	38	48

Dihedrals

1	4	14	15	16	26
2	2	21	23	24	25
3	5	59	60	61	62
4	1	51	52	83	59
5	1	69	71	73	77
6	1	66	67	69	70
7	5	81	61	60	82
8	20	36	35	37	50
8	21	36	35	37	50
8	22	36	35	37	50
9	1	65	66	77	73
10	5	62	61	60	82
11	1	69	67	66	77
12	27	97	91	90	98
13	1	18	17	16	26
14	4	67	66	65	79
15	15	43	40	41	86
16	1	1	2	3	4
17	1	70	69	71	72
18	1	19	21	23	24
19	18	41	40	39	46
20	1	17	19	21	22
21	4	26	16	15	28
22	27	48	38	37	49
23	1	58	57	59	60
24	2	76	74	73	77
25	28	91	92	94	95
26	26	38	39	40	44
27	15	41	86	88	103
28	1	2	3	5	6
29	2	32	2	1	51
30	1	21	23	26	27
31	16	25	24	35	36
31	17	25	24	35	36
32	27	46	39	38	48
33	1	54	53	55	56
34	20	87	86	88	103
34	21	87	86	88	103
34	22	87	86	88	103
35	8	14	12	11	30
36	8	40	41	86	87
37	1	1	2	32	9
38	5	62	64	65	79
39	18	86	88	89	90
40	1	69	71	73	74
41	1	52	53	55	56
42	23	37	38	39	40
42	24	37	38	39	40
42	25	37	38	39	40
43	1	70	69	71	73
44	2	3	2	1	51
45	1	18	17	19	21
46	1	20	19	21	22
47	18	92	91	90	98
48	5	12	14	15	16
49	1	15	16	17	19
50	1	51	52	53	55
51	26	88	89	90	99
52	4	7	9	10	11
53	1	56	55	57	59
54	27	101	89	88	102
55	18	35	37	38	48
56	1	8	7	9	10
57	11	25	24	35	37
57	12	25	24	35	37
58	27	43	40	39	46
59	2	1	51	52	83
60	8	42	41	86	87
61	5	66	65	64	80
62	8	40	41	86	88
63	1	52	53	55	57
64	27	45	39	38	47
65	18	38	39	40	41
66	1	51	52	83	84
67	5	12	14	15	28
68	9	23	24	35	36
68	10	23	24	35	36
69	8	63	62	61	81
70	26	40	39	38	47
71	1	66	77	73	74
72	13	24	35	37	38
72	14	24	35	37	38
73	8	11	12	14	15
74	27	97	91	90	99
75	1	5	3	2	32
76	1	68	67	69	70
77	18	86	88	89	101
78	27	99	90	89	101
79	15	44	40	41	86
80	1	7	9	32	33
81	1	17	16	26	27
82	1	71	73	77	78
83	2	21	23	24	35
84	6	13	12	14	15
84	7	13	12	14	15
85	1	67	66	77	73
86	1	65	66	77	78
87	4	57	59	60	61
88	6	10	11	12	13
88	7	10	11	12	13
89	1	16	26	23	24
90	4	31	10	9	32
91	1	66	67	69	71
92	1	19	17	16	26
93	1	16	17	19	20
94	1	17	16	26	23
95	1	67	66	77	78
96	1	6	5	7	8
97	15	41	86	88	89
98	27	96	91	90	98
99	2	53	52	51	85
100	1	57	59	83	84
101	1	22	21	23	26
102	19	87	86	88	89
103	4	57	59	60	82
104	1	1	2	3	5
105	5	30	11	10	31
106	1	3	5	7	8
107	3	34	1	51	52
108	6	60	61	62	63
108	7	60	61	62	63
109	15	94	92	91	96
110	1	17	19	21	23
111	4	64	65	66	67
112	4	7	9	10	31
113	15	24	35	37	49
114	27	48	38	37	50
115	5	59	60	61	81
116	8	61	62	64	80
117	5	9	10	11	30
118	20	93	92	91	96
118	21	93	92	91	96
118	22	93	92	91	96
119	1	3	2	32	33
120	26	37	38	39	45
121	1	2	32	9	7
122	1	16	17	19	21
123	1	24	23	26	27
124	1	2	3	5	7
125	19	90	91	92	93
126	5	12	11	10	31
127	2	83	52	51	85
128	27	100	89	88	102
129	1	54	53	55	57
130	1	16	26	23	21
131	8	61	62	64	65
132	2	25	24	23	26
133	29	93	92	94	95
133	30	93	92	94	95
134	4	61	60	59	83
135	1	5	7	9	32
136	1	19	21	23	26
137	19	39	40	41	42
138	1	52	83	59	60
139	1	20	19	21	23
140	8	60	61	62	64
141	1	4	3	5	6
142	26	91	90	89	100
143	15	94	92	91	97
144	15	24	35	37	50
145	1	72	71	73	77
146	1	10	9	32	33
147	2	32	2	1	34
148	26	89	90	91	96
149	26	39	38	37	49
150	26	37	38	39	46
151	27	98	90	89	100
152	27	101	89	88	103
153	1	4	3	2	32
154	5	16	15	14	29
155	3	34	1	51	85
156	3	2	1	51	52
157	20	42	41	40	43
157	21	42	41	40	43
157	22	42	41	40	43
158	27	44	40	39	45
159	1	53	52	83	59
160	27	46	39	38	47
161	5	28	15	14	29
162	2	3	2	1	34
163	8	64	62	61	81
164	2	71	73	74	75
165	8	42	41	86	88
166	1	8	7	9	32
167	1	74	73	77	78
168	27	100	89	88	103
169	8	63	62	64	80
170	18	89	90	91	92
171	27	47	38	37	49
172	1	58	57	59	83
173	2	1	51	52	53
174	11	23	24	35	37
174	12	23	24	35	37
175	26	90	89	88	102
176	20	36	35	37	49
176	21	36	35	37	49
176	22	36	35	37	49
177	1	54	53	52	83
178	1	67	69	71	72
179	1	68	67	69	71
180	26	88	89	90	98
181	18	35	37	38	47
182	5	62	64	65	66
183	6	63	62	64	65
183	7	63	62	64	65
184	18	41	40	39	45
185	1	52	83	59	57
186	1	65	66	67	68
187	8	10	11	12	14
188	4	14	15	16	17
189	1	55	57	59	83
190	1	66	77	73	71
191	1	3	2	32	9
192	1	72	71	73	74
193	2	75	74	73	77
194	18	92	91	90	99
195	20	42	41	40	44
195	21	42	41	40	44
195	22	42	41	40	44
196	26	38	39	40	43
197	2	26	23	24	35
198	15	41	86	88	102
199	1	6	5	7	9
200	27	47	38	37	50
201	3	2	1	51	85
202	1	55	53	52	83
203	26	90	89	88	103
204	1	67	69	71	73
205	5	79	65	64	80
206	19	36	35	37	38
207	20	87	86	88	102
207	21	87	86	88	102
207	22	87	86	88	102
208	1	3	5	7	9
209	4	64	65	66	77
210	1	18	17	19	20
211	27	45	39	38	48
212	18	35	37	38	39
213	1	60	59	83	84
214	8	13	12	11	30
215	1	65	66	67	69
216	4	82	60	59	83
217	1	15	16	17	18
218	1	51	52	53	54
219	26	40	39	38	48
220	1	53	55	57	58
221	4	77	66	65	79
222	20	93	92	91	97
222	21	93	92	91	97
222	22	93	92	91	97
223	1	56	55	57	58
224	15	39	40	41	86
225	15	90	91	92	94
226	8	11	12	14	29
227	1	53	52	83	84
228	27	43	40	39	45
229	8	13	12	14	29
230	4	17	16	15	28
231	1	5	7	9	10
232	1	15	16	26	27
233	1	1	2	32	33
234	23	88	89	90	91
234	24	88	89	90	91
234	25	88	89	90	91
235	1	55	57	59	60
236	1	4	3	5	7
237	26	91	90	89	101
238	27	96	91	90	99
239	1	53	55	57	59
240	1	68	67	66	77
241	1	22	21	23	24
242	27	98	90	89	101
243	26	89	90	91	97
244	26	39	38	37	50
245	1	2	32	9	10
246	18	86	88	89	100
247	27	99	90	89	100
248	1	15	16	26	23
249	4	11	10	9	32
250	27	44	40	39	46
251	2	71	73	74	76
252	5	9	10	11	12

Impropers

1	1	66	65	67	77
6	1	12	14	11	13
9	1	52	51	53	83
13	1	61	81	60	62
21	1	23	26	21	24
22	1	15	28	14	16
23	1	26	27	16	23
28	1	26	16	23	27
35	2	1	51	2	34
36	1	64	62	65	80
39	1	10	31	9	11
41	2	24	35	23	25
44	1	15	16	28	14
48	1	60	82	59	61
50	1	12	13	14	11
53	1	61	62	81	60
57	1	67	66	68	69
58	1	3	5	2	4
68	1	9	7	10	32
69	1	17	16	18	19
70	1	60	59	61	82
71	1	86	41	87	88
78	2	74	73	75	76
79	1	73	77	71	74
86	1	21	19	22	23
87	1	19	17	20	21
89	1	69	70	71	67
97	1	73	74	77	71
101	1	69	67	70	71
102	1	3	2	4	5
106	1	19	20	21	17
108	1	2	32	1	3
112	1	5	6	7	3
121	1	32	9	33	2
122	1	11	12	30	10
124	1	64	65	80	62
128	1	41	86	40	42
131	1	59	60	83	57
132	1	55	57	53	56
133	1	23	21	24	26
136	1	2	1	3	32
138	1	35	37	24	36
140	1	66	67	77	65
144	1	17	19	16	18
149	3	92	91	93	94
150	1	10	11	31	9
151	1	65	64	66	79
159	1	9	10	32	7
160	1	41	42	86	40
161	1	57	55	58	59
166	1	83	52	59	84
172	1	5	7	3	6
173	1	26	23	27	16
181	1	71	69	72	73
182	1	53	52	54	55
185	1	59	83	57	60
186	1	64	80	62	65
187	1	21	22	23	19
189	1	83	84	52	59
190	1	7	9	5	8
191	1	14	12	15	29
195	2	24	25	35	23
198	1	52	53	83	51
201	1	62	63	64	61
216	1	2	3	32	1
219	1	61	60	62	81
221	1	12	11	13	14
223	1	62	61	63	64
225	1	16	15	17	26
228	1	55	53	56	57
235	1	57	59	55	58
243	1	62	64	61	63
244	1	21	23	19	22
251	1	53	54	55	52
253	1	65	79	64	66
274	1	71	72	73	69
275	1	15	14	16	28
284	1	77	66	73	78
288	1	53	55	52	54
289	1	71	73	69	72
290	1	11	30	10	12
291	1	32	33	2	9
294	1	60	61	82	59
297	3	92	93	94	91
303	1	19	21	17	20
304	2	74	76	73	75
308	1	7	5	8	9
310	1	32	2	9	33
315	1	14	29	12	15
317	1	35	24	36	37
319	1	11	10	12	30
322	1	67	69	66	68
323	1	59	57	60	83
327	1	5	3	6	7
328	1	10	9	11	31
330	2	1	2	34	51
331	1	17	18	19	16
332	1	7	8	9	5
336	1	69	71	67	70
343	2	74	75	76	73
344	1	66	77	65	67
346	1	77	73	78	66
347	1	9	32	7	10
348	1	73	71	74	77
350	1	23	24	26	21
359	1	65	66	79	64
360	1	86	87	88	41
361	2	24	23	25	35
364	2	51	52	85	1
365	1	41	40	42	86
366	1	35	36	37	24
368	1	16	17	26	15
370	1	86	88	41	87
381	1	16	26	15	17
383	1	67	68	69	66
387	1	3	4	5	2
398	1	14	15	29	12
407	3	92	94	91	93
414	2	1	34	51	2
415	1	52	83	51	53
416	2	51	1	52	85
419	2	51	85	1	52
425	1	57	58	59	55
426	1	55	56	57	53
435	1	83	59	84	52
443	1	77	78	66	73
