Title

207 atoms
222 bonds
377 angles
599 dihedrals
276 impropers

11 atom types
15 bond types
8 angle types
22 dihedral types
3 improper types
-19.53199959 80.46800041 xlo xhi
-5.046000004 94.954 ylo yhi
-24.47699928 75.52300072 zlo zhi
0.0 0.0 0.0 xy xz yz

Masses

1	14.00672
2	12.01078
3	1.007947
4	15.99943
5	12.01078
6	1.007947
7	18.998403
8	1.007947
9	15.99943
10	15.99943
11	1.007947


Pair Coeffs

1	0.16769152	3.206876
2	0.086879315	3.4806469
3	0.015611343	2.5725815
4	0.16846514	3.0251065
5	0.10884061	3.3795318
6	0.014090815	1.1034277
7	0.061	3.1181455
8	0.015779483	2.6445434
9	0.2102061	3.0398122
10	0.20947353	2.99716
11	1.2326e-05	0.53453923

Bond Coeffs

1 harmonic	390.03554688505	1.390160554689
2 harmonic	505.144496193	1.019481865027
3 harmonic	422.7150220147	1.421786517481
4 harmonic	360.7852444772	1.387193227181
5 harmonic	397.2545789619	1.085358495916
6 harmonic	279.1350963404	1.454628925034
7 harmonic	425.69104206635	1.362945806494
8 harmonic	289.73813263395	1.498646816465
9 harmonic	264.62148576755	1.52190126495
10 harmonic	492.76746816345	1.381897776683
11 harmonic	340.45121009905	1.358690858053
12 harmonic	370.04670688625	1.093899492634
13 harmonic	582.698766451	1.225198386222
14 harmonic	385.7604595587	1.369745182308
15 harmonic	543.5267831885	0.9716763312559


Angle Coeffs

1 harmonic	57.8982893754	126.8062420451
2 harmonic	55.42182150775	117.3465570514
3 harmonic	63.44422595415	115.5071327674
4 harmonic	34.066775159195	129.1835929926
5 harmonic	65.09061609600001	110.3538806181
6 harmonic	53.20531626545	116.5475862634
7 harmonic	48.776492647595	115.6030999533
8 harmonic	201.41175231035	127.4691416191


Dihedral Coeffs

1 fourier 1	3.661930099076	2	180
2 fourier 1	1.193093382682	2	180
3 fourier 1	0.02021088501612	1	0
4 fourier 1	1.163235555439	2	180
5 fourier 1	1.532232714475	2	180
6 fourier 1	0.02664938770063	3	0
7 fourier 1	0.1155372516788	3	0
8 fourier 1	0.1040663847541	3	0
9 fourier 1	0.09223874044423	3	0
10 fourier 1	0.3159935921949	2	180
11 fourier 1	0.3247796806857	1	180
12 fourier 1	3.101948770557	2	180
13 fourier 1	-0.4252153282372	1	0
14 fourier 1	1.809047390003	2	180
15 fourier 1	-0.04816277792592	1	0
16 fourier 1	0.9974165607242	2	180
17 fourier 1	2.348375642009	2	180
18 fourier 1	1.256156174911	1	0
19 fourier 1	0.1911926717192	3	0
20 fourier 1	2.687457892086	2	180
21 fourier 1	2.772607909663	2	180
22 fourier 1	0.09692684957115	1	0


Improper Coeffs

1 0.3666666666666667	-1	2
2 0.3333333333333333	-1	2
3 3.5	-1	2


Atoms

1	1	1	-0.412494	14.317	0.495	-0.056000002
2	1	2	0.12542599	12.923	0.41	0.25799999
3	1	2	-0.40782401	12.207	1.527	0.48800001
4	1	3	0.220294	12.682	2.5009999	0.447
5	1	2	-0.115781	10.761	1.434	0.79000002
6	1	3	0.20281599	10.206	2.3499999	0.96799999
7	1	2	-0.12902901	10.143	0.237	0.81800002
8	1	2	-0.135234	8.6929998	0.148	1.094
9	1	2	-0.131063	7.8779998	-0.51300001	0.25099999
10	1	3	0.20611	8.2690001	-1.003	-0.625
11	1	2	-0.297162	6.421	-0.51300001	0.47499999
12	1	3	0.22292501	5.7909999	-1.021	-0.244
13	1	2	0.32788199	5.8920002	0.12800001	1.536
14	1	4	-0.273249	4.5079999	0.198	1.765
15	1	2	0.25766799	3.5179999	-0.156	0.83899999
16	1	2	-0.26884699	2.7720001	0.80500001	0.26899999
17	1	3	0.226559	2.961	1.845	0.49599999
18	1	2	-0.17621	1.6569999	0.44999999	-0.62599999
19	1	3	0.216739	1.054	1.252	-1.041
20	1	2	-0.188279	1.349	-0.84500003	-0.87900001
21	1	5	0.01526	0.077	-1.164	-1.6950001
22	1	2	-0.188279	-1.137	-0.59600002	-0.912
23	1	2	-0.17621	-2.2279999	-0.055	-1.507
24	1	3	0.216739	-2.313	0.028000001	-2.5780001
25	1	2	-0.26884699	-3.3440001	0.49700001	-0.70599997
26	1	3	0.226559	-4.1739998	0.97899997	-1.214
27	1	2	0.25766799	-3.3069999	0.433	0.634
28	1	4	-0.273249	-4.3099999	0.99199998	1.4349999
29	1	2	0.32788199	-5.677	1.028	1.118
30	1	2	-0.297162	-6.2979999	2.2160001	1.122
31	1	3	0.22292501	-5.7379999	3.122	1.316
32	1	2	-0.131063	-7.75	2.309	0.88099998
33	1	3	0.20611	-8.2119999	3.283	0.92400002
34	1	2	-0.135234	-8.4779997	1.2029999	0.65100002
35	1	2	-0.12902901	-9.9549999	1.273	0.52600002
36	1	2	-0.12977	-10.613	0.495	-0.354
37	1	3	0.20281599	-10.076	-0.15899999	-1.029
38	1	2	-0.37598801	-12.091	0.51800001	-0.41800001
39	1	3	0.216796	-12.599	-0.131	-1.1160001
40	1	2	0.197707	-12.791	1.306	0.40900001
41	1	1	-0.53268099	-14.219	1.313	0.37599999
42	1	6	0.31886399	-14.765	1.936	1.012
43	1	2	-0.37598801	-12.074	2.171	1.369
44	1	3	0.216796	-12.627	2.813	2.0409999
45	1	2	-0.12977	-10.738	2.161	1.4220001
46	1	3	0.20281599	-10.232	2.773	2.1570001
47	1	2	-0.058127001	-7.7940001	-0.113	0.62300003
48	1	3	0.205185	-8.3909998	-1.001	0.46200001
49	1	2	-0.32315001	-6.4720001	-0.22	0.87400001
50	1	5	0.76608998	-5.8189998	-1.5880001	0.94499999
51	1	7	-0.20938	-6.7529998	-2.586	1.1670001
52	1	7	-0.20938	-5.1599998	-1.854	-0.245
53	1	7	-0.20938	-4.9109998	-1.631	1.988
54	1	2	-0.26884699	-2.1619999	-0.222	1.298
55	1	3	0.226559	-2.151	-0.32300001	2.378
56	1	2	-0.17621	-1.1569999	-0.72799999	0.57700002
57	1	3	0.216739	-0.354	-1.247	1.089
58	1	5	-0.12925699	-0.133	-2.698	-1.844
59	1	8	0.110712	-0.29800001	-3.1689999	-0.85100001
60	1	8	0.110712	0.77399999	-3.1570001	-2.293
61	1	5	-0.129007	-1.324	-3.0539999	-2.7509999
62	1	8	0.113025	-1.279	-4.1409998	-2.9719999
63	1	8	0.113025	-2.2780001	-2.8800001	-2.2049999
64	1	5	-0.150567	-1.352	-2.2709999	-4.0760002
65	1	8	0.115732	-2.237	-1.607	-4.1030002
66	1	8	0.115732	-1.471	-2.9779999	-4.9250002
67	1	5	-0.129007	-0.090999998	-1.438	-4.3130002
68	1	8	0.113025	-0.227	-0.81300002	-5.223
69	1	8	0.113025	0.75599998	-2.131	-4.5139999
70	1	5	-0.12925699	0.27200001	-0.52399999	-3.1259999
71	1	8	0.110712	1.342	-0.26699999	-3.2909999
72	1	8	0.110712	-0.25099999	0.45300001	-3.217
73	1	2	-0.17621	2.214	-1.9069999	-0.264
74	1	3	0.216739	2.0250001	-2.9560001	-0.42699999
75	1	2	-0.26884699	3.2349999	-1.574	0.54500002
76	1	3	0.226559	3.835	-2.349	1.005
77	1	2	-0.32315001	6.7930002	0.81199998	2.5090001
78	1	5	0.76608998	6.1960001	1.451	3.7390001
79	1	7	-0.20938	5.6079998	0.47400001	4.5190001
80	1	7	-0.20938	7.1529999	2.115	4.4920001
81	1	7	-0.20938	5.2309999	2.3640001	3.365
82	1	2	-0.058127001	8.1219997	0.81999999	2.2839999
83	1	3	0.205185	8.8009996	1.303	2.973
84	1	2	-0.115781	10.936	-0.99400002	0.56400001
85	1	3	0.20281599	10.46	-1.97	0.58700001
86	1	2	-0.40782401	12.252	-0.91000003	0.31799999
87	1	3	0.220294	12.832	-1.816	0.148
88	1	6	0.37202501	14.89	-0.37400001	-0.13600001
89	1	2	0.76767999	-14.76	0.68300003	-0.289
90	1	9	-0.66066802	-14.704	0.91299999	-1.526
91	1	2	-0.38191	-15.558	-0.43900001	0.236
92	1	2	-0.103797	-15.606	-0.67000002	1.559
93	1	3	0.21828499	-15.063	-0.039000001	2.2520001
94	1	2	-0.040495001	-16.405001	-1.793	2.0940001
95	1	3	0.21415301	-16.424999	-1.955	3.165
96	1	2	-0.35247901	-17.091	-2.596	1.263
97	1	2	0.59147799	-17.885	-3.7130001	1.8049999
98	1	9	-0.530258	-18.534	-4.474	1.04
99	1	2	-0.040495001	-17.039	-2.342	-0.199
100	1	3	0.21415301	-17.586	-2.9779999	-0.884
101	1	2	-0.103797	-16.316	-1.325	-0.68300003
102	1	3	0.21828499	-16.289	-1.155	-1.752
103	1	1	-0.41249299	14.755	1.408	-0.28799999
104	1	2	0.12542599	15.797	1.493	-1.266
105	1	2	-0.40782401	16.389	0.377	-1.73
106	1	3	0.220294	16.089001	-0.59799999	-1.36
107	1	2	-0.115781	17.450001	0.46900001	-2.7579999
108	1	3	0.20281599	17.909	-0.447	-3.1170001
109	1	2	-0.12902901	17.82	1.666	-3.2539999
110	1	2	-0.135234	18.861	1.755	-4.3000002
111	1	2	-0.131063	18.621	2.4159999	-5.447
112	1	3	0.20611	17.676001	2.9070001	-5.6139998
113	1	2	-0.297162	19.622999	2.4170001	-6.527
114	1	3	0.22292501	19.381001	2.925	-7.4520001
115	1	2	0.32788199	20.799	1.775	-6.3709998
116	1	4	-0.273249	21.764	1.705	-7.388
117	1	2	0.25766799	21.552999	2.059	-8.7270002
118	1	2	-0.26884699	21.5	1.099	-9.665
119	1	3	0.226559	21.582001	0.057999998	-9.3800001
120	1	2	-0.17621	21.384001	1.4529999	-11.089
121	1	3	0.216739	21.379	0.65100002	-11.821
122	1	2	-0.188279	21.348	2.7479999	-11.486
123	1	5	0.01526	21.385	3.0669999	-12.997
124	1	2	-0.188279	22.714001	2.4990001	-13.563
125	1	2	-0.17621	22.834	1.9579999	-14.8
126	1	3	0.216739	21.993999	1.875	-15.471
127	1	2	-0.26884699	24.122999	1.406	-15.275
128	1	3	0.226559	24.167999	0.92400002	-16.246
129	1	2	0.25766799	25.211	1.47	-14.492
130	1	4	-0.273249	26.437	0.91100001	-14.873
131	1	2	0.32788199	26.941999	0.875	-16.183001
132	1	2	-0.297162	27.292	-0.31200001	-16.695
133	1	3	0.22292501	27.139	-1.219	-16.122
134	1	2	-0.131063	27.908001	-0.40599999	-18.032
135	1	3	0.20611	28.202	-1.38	-18.391001
136	1	2	-0.135234	28.125999	0.69999999	-18.764
137	1	2	-0.12902901	28.851	0.63	-20.056999
138	1	2	-0.079186	28.490999	1.408	-21.096001
139	1	3	0.20281599	27.631001	2.062	-21.028999
140	1	2	-0.45194399	29.266001	1.385	-22.355
141	1	3	0.228771	28.974001	2.0339999	-23.167
142	1	2	0.31645	30.344999	0.597	-22.469999
143	1	1	-0.84528601	31.118	0.58999997	-23.672001
144	1	6	0.36524999	30.875	1.209	-24.476999
145	1	6	0.36524999	31.951	-0.033	-23.766001
146	1	2	-0.45194399	30.737	-0.26800001	-21.337999
147	1	3	0.228771	31.603001	-0.91000003	-21.419001
148	1	2	-0.079186	30.032	-0.25799999	-20.202
149	1	3	0.20281599	30.356001	-0.87	-19.371
150	1	2	-0.058127001	27.719	2.016	-18.214001
151	1	3	0.205185	27.921	2.904	-18.798
152	1	2	-0.32315001	27.184999	2.1240001	-16.978001
153	1	5	0.76608998	26.877001	3.4909999	-16.398001
154	1	7	-0.20938	27.584999	4.4889998	-17.046
155	1	7	-0.20938	25.523001	3.757	-16.52
156	1	7	-0.20938	27.232	3.5339999	-15.061
157	1	2	-0.26884699	25.118999	2.1259999	-13.172
158	1	3	0.226559	26.007	2.2260001	-12.558
159	1	2	-0.17621	23.958	2.631	-12.745
160	1	3	0.216739	23.931999	3.1500001	-11.793
161	1	5	-0.12925699	21.379999	4.6009998	-13.255
162	1	8	0.110712	22.295	5.072	-12.834
163	1	8	0.110712	20.499001	5.0609999	-12.755
164	1	5	-0.129007	21.297001	4.9569998	-14.749
165	1	8	0.113025	21.087999	6.0450001	-14.835
166	1	8	0.113025	22.283001	4.783	-15.233
167	1	5	-0.150567	20.215	4.1739998	-15.516
168	1	8	0.115732	20.688999	3.51	-16.264
169	1	8	0.115732	19.579	4.881	-16.09
170	1	5	-0.129007	19.312	3.3410001	-14.604
171	1	8	0.113025	18.634001	2.7160001	-15.227
172	1	8	0.113025	18.671	4.0339999	-14.016
173	1	5	-0.12925699	20.091	2.427	-13.638
174	1	8	0.110712	19.354	2.1700001	-12.845
175	1	8	0.110712	20.309	1.451	-14.122
176	1	2	-0.17621	21.371	3.8110001	-10.425
177	1	3	0.216739	21.341999	4.8590002	-10.673
178	1	2	-0.26884699	21.468	3.477	-9.1260004
179	1	3	0.226559	21.513	4.2529998	-8.3710003
180	1	2	-0.32315001	21.099001	1.092	-5.079
181	1	5	0.76608998	22.451	0.45199999	-4.8829999
182	1	7	-0.20938	23.427999	1.429	-4.9330001
183	1	7	-0.20938	22.539	-0.212	-3.6689999
184	1	7	-0.20938	22.684	-0.461	-5.8920002
185	1	2	-0.058127001	20.167	1.0829999	-4.105
186	1	3	0.205185	20.357	0.60000002	-3.1559999
187	1	2	-0.115781	17.164	2.8970001	-2.74
188	1	3	0.20281599	17.451	3.8729999	-3.1210001
189	1	2	-0.40782401	16.223	2.8139999	-1.788
190	1	3	0.220294	15.757	3.72	-1.403
191	1	6	0.37202501	14.367	2.277	0.141
192	1	2	0.59147799	-17.917999	-3.891	2.872
193	1	9	-0.530258	-17.660999	-5.046	3.3050001
194	1	2	-0.35247901	-18.259001	-2.796	3.7980001
195	1	2	-0.037025999	-18.531	-1.571	3.3199999
196	1	3	0.21415301	-18.503	-1.373	2.2550001
197	1	2	-0.079089001	-18.874001	-0.46700001	4.2410002
198	1	3	0.230298	-19.087	0.50800002	3.8199999
199	1	2	-0.280954	-18.917999	-0.67500001	5.5700002
200	1	2	0.83815199	-19.26	0.419	6.506
201	1	9	-0.49068999	-19.518	1.577	6.0749998
202	1	10	-0.665856	-19.299	0.178	7.8759999
203	1	11	0.41690499	-19.532	0.917	8.5279999
204	1	2	-0.079089001	-18.618	-2.03	6.0970001
205	1	3	0.230298	-18.646999	-2.2219999	7.1620002
206	1	2	-0.037025999	-18.306999	-3.03	5.2620001
207	1	3	0.21415301	-18.091999	-4.0110002	5.6669998

Bonds

1	1	1	2
2	2	1	88
3	3	1	103
4	4	2	3
5	4	2	86
6	5	3	4
7	4	3	5
8	5	5	6
9	4	5	7
10	6	7	8
11	4	7	84
12	4	8	9
13	4	8	82
14	5	9	10
15	4	9	11
16	5	11	12
17	4	11	13
18	7	13	14
19	4	13	77
20	7	14	15
21	4	15	16
22	4	15	75
23	5	16	17
24	4	16	18
25	5	18	19
26	4	18	20
27	8	20	21
28	4	20	73
29	8	21	22
30	9	21	58
31	9	21	70
32	4	22	23
33	4	22	56
34	5	23	24
35	4	23	25
36	5	25	26
37	4	25	27
38	7	27	28
39	4	27	54
40	7	28	29
41	4	29	30
42	4	29	49
43	5	30	31
44	4	30	32
45	5	32	33
46	4	32	34
47	6	34	35
48	4	34	47
49	4	35	36
50	4	35	45
51	5	36	37
52	4	36	38
53	5	38	39
54	4	38	40
55	1	40	41
56	4	40	43
57	2	41	42
58	10	41	89
59	5	43	44
60	4	43	45
61	5	45	46
62	5	47	48
63	4	47	49
64	8	49	50
65	11	50	51
66	11	50	52
67	11	50	53
68	5	54	55
69	4	54	56
70	5	56	57
71	12	58	59
72	12	58	60
73	9	58	61
74	12	61	62
75	12	61	63
76	9	61	64
77	12	64	65
78	12	64	66
79	9	64	67
80	12	67	68
81	12	67	69
82	9	67	70
83	12	70	71
84	12	70	72
85	5	73	74
86	4	73	75
87	5	75	76
88	8	77	78
89	4	77	82
90	11	78	79
91	11	78	80
92	11	78	81
93	5	82	83
94	5	84	85
95	4	84	86
96	5	86	87
97	13	89	90
98	6	89	91
99	4	91	92
100	4	91	101
101	5	92	93
102	4	92	94
103	5	94	95
104	4	94	96
105	6	96	97
106	4	96	99
107	13	97	98
108	6	97	192
109	5	99	100
110	4	99	101
111	5	101	102
112	1	103	104
113	2	103	191
114	4	104	105
115	4	104	189
116	5	105	106
117	4	105	107
118	5	107	108
119	4	107	109
120	6	109	110
121	4	109	187
122	4	110	111
123	4	110	185
124	5	111	112
125	4	111	113
126	5	113	114
127	4	113	115
128	7	115	116
129	4	115	180
130	7	116	117
131	4	117	118
132	4	117	178
133	5	118	119
134	4	118	120
135	5	120	121
136	4	120	122
137	8	122	123
138	4	122	176
139	8	123	124
140	9	123	161
141	9	123	173
142	4	124	125
143	4	124	159
144	5	125	126
145	4	125	127
146	5	127	128
147	4	127	129
148	7	129	130
149	4	129	157
150	7	130	131
151	4	131	132
152	4	131	152
153	5	132	133
154	4	132	134
155	5	134	135
156	4	134	136
157	6	136	137
158	4	136	150
159	4	137	138
160	4	137	148
161	5	138	139
162	4	138	140
163	5	140	141
164	4	140	142
165	1	142	143
166	4	142	146
167	2	143	144
168	2	143	145
169	5	146	147
170	4	146	148
171	5	148	149
172	5	150	151
173	4	150	152
174	8	152	153
175	11	153	154
176	11	153	155
177	11	153	156
178	5	157	158
179	4	157	159
180	5	159	160
181	12	161	162
182	12	161	163
183	9	161	164
184	12	164	165
185	12	164	166
186	9	164	167
187	12	167	168
188	12	167	169
189	9	167	170
190	12	170	171
191	12	170	172
192	9	170	173
193	12	173	174
194	12	173	175
195	5	176	177
196	4	176	178
197	5	178	179
198	8	180	181
199	4	180	185
200	11	181	182
201	11	181	183
202	11	181	184
203	5	185	186
204	5	187	188
205	4	187	189
206	5	189	190
207	13	192	193
208	6	192	194
209	4	194	195
210	4	194	206
211	5	195	196
212	4	195	197
213	5	197	198
214	4	197	199
215	6	199	200
216	4	199	204
217	13	200	201
218	14	200	202
219	15	202	203
220	5	204	205
221	4	204	206
222	5	206	207

Angles

1	1	197	199	200
2	1	107	109	187
3	4	17	16	18
4	5	200	202	203
5	1	20	73	75
6	6	161	123	173
7	1	195	194	206
8	6	123	161	162
9	1	29	30	32
10	4	99	101	102
11	1	124	125	127
12	1	35	45	43
13	1	140	142	146
14	4	35	36	37
15	4	92	94	95
16	1	132	134	136
17	6	49	50	51
18	6	60	58	61
19	1	181	180	185
20	4	77	82	83
21	6	63	61	64
22	6	66	64	67
23	4	93	92	94
24	4	117	118	119
25	6	51	50	53
26	1	14	13	77
27	4	105	107	108
28	1	40	43	45
29	4	131	132	133
30	4	19	18	20
31	1	16	18	20
32	6	180	181	183
33	1	193	192	194
34	4	196	195	197
35	4	10	9	11
36	1	97	96	99
37	1	1	2	3
38	1	7	8	9
39	4	33	32	34
40	1	25	27	28
41	4	136	150	151
42	1	195	197	199
43	4	106	105	107
44	4	22	56	57
45	4	7	84	85
46	1	34	35	45
47	1	115	180	185
48	4	204	206	207
49	6	79	78	80
50	3	40	41	42
51	1	41	89	90
52	1	35	34	47
53	1	142	146	148
54	6	182	181	183
55	6	21	58	59
56	1	94	96	99
57	4	137	148	149
58	1	199	204	206
59	1	199	200	201
60	1	7	8	82
61	6	161	164	166
62	4	194	206	207
63	4	157	159	160
64	1	103	104	105
65	3	42	41	89
66	6	20	21	70
67	4	15	75	76
68	4	20	73	74
69	1	27	54	56
70	2	2	1	103
71	4	29	30	31
72	3	104	103	191
73	4	124	125	126
74	6	58	61	64
75	4	118	120	121
76	1	132	131	152
77	1	11	13	77
78	1	25	27	54
79	1	111	110	185
80	6	22	21	58
81	4	132	134	135
82	6	154	153	156
83	1	23	25	27
84	1	192	194	206
85	4	37	36	38
86	1	96	99	101
87	1	125	127	129
88	1	91	101	99
89	4	139	138	140
90	6	124	123	161
91	1	21	20	73
92	4	35	45	46
93	4	16	18	19
94	1	28	27	54
95	4	100	99	101
96	4	8	82	83
97	4	4	3	5
98	6	122	123	161
99	4	195	197	198
100	1	8	7	84
101	6	58	21	70
102	6	77	78	81
103	1	32	34	35
104	1	118	117	178
105	6	61	64	67
106	6	155	153	156
107	1	134	136	137
108	4	142	146	147
109	1	103	104	189
110	1	2	3	5
111	6	164	167	170
112	1	38	40	43
113	1	89	91	101
114	6	52	50	53
115	4	199	204	205
116	1	110	111	113
117	1	138	137	148
118	6	161	164	165
119	1	125	124	159
120	4	55	54	56
121	4	27	54	55
122	5	115	116	117
123	1	97	192	194
124	1	105	104	189
125	4	31	30	32
126	1	134	136	150
127	1	96	97	98
128	1	109	110	185
129	1	3	5	7
130	6	162	161	164
131	6	64	67	70
132	4	6	5	7
133	1	123	124	159
134	1	2	86	84
135	6	167	170	173
136	1	120	122	176
137	3	142	143	144
138	1	104	189	187
139	1	5	7	8
140	1	194	195	197
141	1	124	159	157
142	6	152	153	155
143	6	68	67	70
144	1	13	77	82
145	4	36	38	39
146	4	96	99	100
147	4	125	127	128
148	6	170	173	175
149	1	115	180	181
150	6	123	161	164
151	4	8	9	10
152	4	138	140	141
153	4	126	125	127
154	1	1	2	86
155	6	21	70	67
156	1	9	8	82
157	6	59	58	61
158	6	65	64	67
159	1	28	29	49
160	4	119	118	120
161	1	92	91	101
162	1	200	199	204
163	4	111	113	114
164	6	49	50	53
165	1	129	157	159
166	1	36	35	45
167	6	77	78	80
168	1	90	89	91
169	1	109	110	111
170	4	74	73	75
171	4	44	43	45
172	4	91	101	102
173	1	136	137	138
174	1	122	176	178
175	2	40	41	89
176	1	117	178	176
177	4	198	197	199
178	4	30	32	33
179	1	110	185	180
180	1	14	15	75
181	1	123	124	125
182	6	21	70	71
183	4	110	111	112
184	6	22	21	70
185	4	146	148	149
186	1	109	187	189
187	5	13	14	15
188	6	122	123	124
189	1	97	192	193
190	4	3	5	6
191	6	64	67	69
192	6	67	70	72
193	6	167	170	172
194	4	147	146	148
195	4	54	56	57
196	6	123	173	175
197	1	18	20	73
198	1	22	23	25
199	1	47	49	50
200	1	192	194	195
201	4	108	107	109
202	6	152	153	154
203	6	123	161	163
204	4	48	47	49
205	6	51	50	52
206	4	43	45	46
207	4	2	86	87
208	4	40	43	44
209	4	24	23	25
210	5	27	28	29
211	1	116	117	118
212	1	35	36	38
213	6	163	161	164
214	6	180	181	182
215	4	104	189	190
216	7	65	64	66
217	6	21	58	61
218	4	124	159	160
219	4	133	132	134
220	4	129	157	158
221	1	137	138	140
222	4	12	11	13
223	1	136	137	148
224	6	165	164	167
225	1	116	115	180
226	1	117	118	120
227	4	114	113	115
228	1	150	152	153
229	4	128	127	129
230	3	88	1	103
231	1	96	97	192
232	1	5	7	84
233	4	151	150	152
234	4	176	178	179
235	1	136	150	152
236	1	131	152	150
237	4	84	86	87
238	1	13	77	78
239	4	109	187	188
240	6	168	167	170
241	6	171	170	173
242	6	20	21	22
243	6	79	78	81
244	4	117	178	179
245	4	141	140	142
246	2	1	103	104
247	7	174	173	175
248	4	177	176	178
249	6	80	78	81
250	6	182	181	184
251	5	129	130	131
252	1	9	11	13
253	6	58	61	63
254	1	127	129	157
255	6	166	164	167
256	1	137	136	150
257	4	188	187	189
258	4	73	75	76
259	6	154	153	155
260	4	23	25	26
261	1	21	22	23
262	8	201	200	202
263	6	69	67	70
264	1	118	120	122
265	1	143	142	146
266	1	23	22	56
267	4	180	185	186
268	6	169	167	170
269	1	30	29	49
270	1	8	9	11
271	1	127	129	130
272	6	21	58	60
273	4	137	138	139
274	1	110	109	187
275	1	123	122	176
276	1	197	199	204
277	7	165	164	166
278	1	21	22	56
279	1	15	16	18
280	1	91	92	94
281	6	61	64	66
282	1	3	2	86
283	1	16	15	75
284	3	2	1	88
285	4	2	3	4
286	6	164	167	169
287	1	94	96	97
288	1	34	47	49
289	1	113	115	116
290	1	130	129	157
291	1	29	49	50
292	1	32	34	47
293	6	124	123	173
294	1	104	105	107
295	7	168	167	169
296	7	171	170	172
297	1	34	35	36
298	7	162	161	163
299	1	107	109	110
300	4	9	11	12
301	6	58	61	62
302	1	140	142	143
303	1	78	77	82
304	6	122	123	173
305	4	95	94	96
306	6	62	61	64
307	4	121	120	122
308	1	8	82	77
309	4	194	195	196
310	1	131	152	153
311	7	68	67	69
312	7	71	70	72
313	6	170	173	174
314	3	144	143	145
315	1	113	115	180
316	4	112	111	113
317	4	85	84	86
318	4	158	157	159
319	6	172	170	173
320	4	110	185	186
321	1	92	94	96
322	3	142	143	145
323	6	183	181	184
324	1	130	131	152
325	7	59	58	60
326	1	130	131	132
327	6	49	50	52
328	6	20	21	58
329	6	152	153	156
330	1	29	49	47
331	1	116	117	178
332	1	22	56	54
333	6	77	78	79
334	1	41	40	43
335	1	36	38	40
336	4	15	16	17
337	4	122	176	177
338	4	26	25	27
339	4	91	92	93
340	6	61	64	65
341	1	105	107	109
342	1	131	132	134
343	6	164	167	168
344	1	38	40	41
345	1	98	97	192
346	1	138	140	142
347	6	180	181	184
348	1	137	148	146
349	1	14	15	16
350	6	123	173	170
351	4	34	47	48
352	1	11	13	14
353	1	18	20	21
354	1	111	113	115
355	1	194	206	204
356	1	28	29	30
357	4	39	38	40
358	4	104	105	106
359	1	7	84	86
360	1	15	75	73
361	1	120	122	123
362	4	187	189	190
363	1	41	89	91
364	6	64	67	68
365	6	67	70	71
366	1	30	32	34
367	6	167	170	171
368	1	89	91	92
369	1	199	200	202
370	6	123	173	174
371	6	21	70	72
372	7	62	61	63
373	3	1	103	191
374	4	22	23	24
375	6	161	164	167
376	4	135	134	136
377	4	205	204	206

Dihedrals

1	1	111	113	115	116
2	6	120	122	123	124
3	1	17	16	18	20
4	1	116	117	178	179
5	16	41	89	91	101
6	1	21	22	56	57
7	19	169	167	170	172
8	1	107	105	104	189
9	1	34	35	36	38
10	6	56	22	21	58
11	1	39	38	40	43
12	1	104	189	187	188
13	5	27	28	29	49
14	21	201	200	202	203
14	22	201	200	202	203
15	1	31	30	29	49
16	3	2	1	103	191
17	1	95	94	96	99
18	1	127	125	124	159
19	1	14	15	75	73
20	1	132	134	136	150
21	19	172	170	173	175
22	8	59	58	21	70
23	4	185	110	109	187
24	1	130	131	132	134
25	1	138	140	142	143
26	1	14	13	77	82
27	1	200	199	204	205
28	4	32	34	35	36
29	1	33	32	34	35
30	5	13	14	15	16
31	1	8	82	77	13
32	1	29	30	32	34
33	5	115	116	117	118
34	1	140	138	137	148
35	5	15	14	13	77
36	1	192	194	206	207
37	1	111	113	115	180
38	1	103	104	189	190
39	19	166	164	167	168
40	2	140	142	143	145
41	19	168	167	170	172
42	6	29	49	50	51
43	1	30	29	49	50
44	1	22	56	54	55
45	1	140	142	146	148
46	8	164	167	170	171
47	8	167	170	173	175
48	1	114	113	115	116
49	6	120	122	123	161
50	1	3	2	86	84
51	6	13	77	78	79
52	7	22	21	58	60
53	1	110	111	113	115
54	1	137	136	150	151
55	1	118	117	178	176
56	1	89	91	101	99
57	1	120	118	117	178
58	19	66	64	67	68
59	7	122	123	161	164
60	19	65	64	67	69
61	1	116	117	178	176
62	1	21	22	56	54
63	1	78	77	82	83
64	1	12	11	13	14
65	1	36	35	45	43
66	1	113	115	180	185
67	6	183	181	180	185
68	1	143	142	146	147
69	8	165	164	167	170
70	7	20	21	58	60
71	1	92	91	101	102
72	7	124	123	173	170
73	1	195	197	199	200
74	1	117	118	120	122
75	1	125	124	159	160
76	1	35	34	47	49
77	1	136	137	148	149
78	7	20	21	70	67
79	3	88	1	103	191
80	9	123	173	170	167
80	10	123	173	170	167
80	11	123	173	170	167
81	19	62	61	64	65
82	1	126	125	127	128
83	1	105	107	109	187
84	9	61	58	21	70
84	10	61	58	21	70
84	11	61	58	21	70
85	1	17	16	18	19
86	1	124	125	127	128
87	1	92	94	96	97
88	7	122	123	173	175
89	8	21	70	67	69
90	1	23	22	56	57
91	2	42	41	40	43
92	9	58	21	70	67
92	10	58	21	70	67
92	11	58	21	70	67
93	1	36	38	40	41
94	1	22	23	25	27
95	16	197	199	200	202
96	1	121	120	122	176
97	16	90	89	91	101
98	2	86	2	1	88
99	1	124	159	157	158
100	8	64	67	70	72
101	1	89	91	92	93
102	6	18	20	21	70
103	16	96	97	192	194
104	7	22	21	58	59
105	6	150	152	153	156
106	2	105	104	103	191
107	19	172	170	173	174
108	1	32	30	29	49
109	8	58	61	64	66
110	19	162	161	164	166
111	2	43	40	41	89
112	1	8	7	84	86
113	1	96	99	101	102
114	8	123	173	170	171
115	1	130	131	132	133
116	1	15	16	18	20
117	1	142	146	148	149
118	1	6	5	7	84
119	1	109	187	189	190
120	1	107	109	187	189
121	1	112	111	113	115
122	1	109	110	111	113
123	1	38	36	35	45
124	1	29	30	32	33
125	1	3	5	7	84
126	4	36	35	34	47
127	1	108	107	109	110
128	9	61	64	67	70
128	10	61	64	67	70
128	11	61	64	67	70
129	4	107	109	110	111
130	1	103	104	105	107
131	14	42	41	89	91
131	15	42	41	89	91
132	16	193	192	194	206
133	1	30	32	34	35
134	2	140	142	143	144
135	1	141	140	142	143
136	19	168	167	170	171
137	1	177	176	178	179
138	1	14	15	16	17
139	1	26	25	27	54
140	5	131	130	129	157
141	1	137	138	140	142
142	1	37	36	38	39
143	20	199	200	202	203
144	1	13	77	82	83
145	1	18	20	73	74
146	5	13	14	15	75
147	1	120	122	176	178
148	1	25	27	54	56
149	7	124	123	161	164
150	1	91	101	99	100
151	1	133	132	134	136
152	1	23	22	56	54
153	1	15	75	73	74
154	1	23	25	27	28
155	19	60	58	61	63
156	8	59	58	61	64
157	19	68	67	70	72
158	1	119	118	120	122
159	6	22	21	20	73
160	1	37	36	35	45
161	1	28	29	49	47
162	1	55	54	56	57
163	7	22	21	70	72
164	1	35	34	47	48
165	1	100	99	101	102
166	1	3	2	86	87
167	6	125	124	123	173
168	6	122	123	124	159
169	1	104	105	107	108
170	1	7	8	9	11
171	1	9	11	13	14
172	1	123	122	176	177
173	1	89	91	101	102
174	1	14	13	77	78
175	1	117	178	176	177
176	1	122	176	178	179
177	1	131	132	134	135
178	19	63	61	64	66
179	1	197	199	204	206
180	1	22	23	25	26
181	6	159	124	123	173
182	1	132	131	152	150
183	1	11	9	8	82
184	1	36	35	45	46
185	1	15	75	73	20
186	1	48	47	49	50
187	1	95	94	96	97
188	1	116	117	118	120
189	8	64	67	70	71
190	1	91	92	94	96
191	6	173	123	122	176
192	4	82	8	7	84
193	16	96	97	192	193
194	6	18	20	21	22
195	6	150	152	153	155
196	1	139	138	140	142
197	1	118	120	122	176
198	1	192	194	195	197
199	1	16	18	20	73
200	1	5	7	84	86
201	8	58	61	64	65
202	19	162	161	164	165
203	1	2	3	5	7
204	1	15	16	18	19
205	4	32	34	35	45
206	1	105	104	189	187
207	8	163	161	123	173
208	1	107	109	187	188
209	1	12	11	13	77
210	1	8	9	11	12
211	1	134	136	150	151
212	1	21	20	73	74
213	2	1	103	104	105
214	1	138	137	148	146
215	19	171	170	173	175
216	16	99	96	97	192
217	1	113	115	180	181
218	1	103	104	105	106
219	1	10	9	8	82
220	17	42	41	89	90
220	18	42	41	89	90
221	1	1	2	86	84
222	1	9	8	82	83
223	16	97	192	194	206
224	5	115	116	117	178
225	1	137	138	140	141
226	1	19	18	20	21
227	1	137	148	146	147
228	19	69	67	70	72
229	1	194	195	197	198
230	1	38	40	43	45
231	6	115	180	181	182
232	1	106	105	107	109
233	1	17	16	15	75
234	1	108	107	109	187
235	1	32	34	47	49
236	1	7	8	82	77
237	1	120	122	176	177
238	8	161	164	167	168
239	1	25	27	54	55
240	6	122	123	124	125
241	8	58	21	70	72
242	1	133	132	134	135
243	1	110	185	180	181
244	19	60	58	61	62
245	19	59	58	61	63
246	1	119	118	120	121
247	8	166	164	167	170
248	1	141	140	142	146
249	6	29	49	50	53
250	2	38	40	41	89
251	9	164	167	170	173
251	10	164	167	170	173
251	11	164	167	170	173
252	2	38	40	41	42
253	1	93	92	91	101
254	9	21	58	61	64
254	10	21	58	61	64
254	11	21	58	61	64
255	1	119	118	117	178
256	4	107	109	110	185
257	1	194	206	204	199
258	7	22	21	70	71
259	19	163	161	164	166
260	1	104	189	187	109
261	6	47	49	50	51
262	1	93	92	94	95
263	2	3	2	1	88
264	1	44	43	45	46
265	6	13	77	78	81
266	14	40	41	89	91
266	15	40	41	89	91
267	6	80	78	77	82
268	8	66	64	67	70
269	16	98	97	96	99
270	1	34	35	45	43
271	19	169	167	170	171
272	1	34	35	36	37
273	19	63	61	64	65
274	1	133	132	131	152
275	6	20	21	22	23
276	1	116	117	118	119
277	4	5	7	8	9
278	1	123	124	125	127
279	8	161	123	173	175
280	1	28	29	49	50
281	2	1	103	104	189
282	1	5	7	84	85
283	9	164	161	123	173
283	10	164	161	123	173
283	11	164	161	123	173
284	8	62	61	64	67
285	6	23	22	21	58
286	1	35	45	43	44
287	4	45	35	34	47
288	1	7	8	82	83
289	6	70	21	20	73
290	1	91	101	99	96
291	6	20	21	22	56
292	1	36	38	40	43
293	1	132	131	152	153
294	7	20	21	58	59
295	1	130	129	157	159
296	1	116	115	180	185
297	4	5	7	8	82
298	5	27	28	29	30
299	16	193	192	194	195
300	1	117	178	176	122
301	1	140	142	146	147
302	8	167	170	173	174
303	4	138	137	136	150
304	1	9	11	13	77
305	1	115	180	185	186
306	1	131	152	150	136
307	1	110	109	187	189
308	1	34	47	49	50
309	1	38	40	43	44
310	6	79	78	77	82
311	1	110	111	113	114
312	1	136	137	138	140
313	1	32	34	47	48
314	1	105	104	189	190
315	1	33	32	34	47
316	19	65	64	67	68
317	1	74	73	75	76
318	7	122	123	161	163
319	1	2	86	84	85
320	6	184	181	180	185
321	9	21	70	67	64
321	10	21	70	67	64
321	11	21	70	67	64
322	1	188	187	189	190
323	1	196	195	194	206
324	1	25	23	22	56
325	1	138	137	148	149
326	1	113	111	110	185
327	1	5	3	2	86
328	6	56	22	21	70
329	6	18	20	21	58
330	1	112	111	110	185
331	1	1	2	86	87
332	19	165	164	167	169
333	1	109	110	185	180
334	6	29	49	50	52
335	8	168	167	170	173
336	1	11	13	77	82
337	1	117	118	120	121
338	9	123	161	164	167
338	10	123	161	164	167
338	11	123	161	164	167
339	8	21	58	61	63
340	1	134	132	131	152
341	5	29	28	27	54
342	19	163	161	164	165
343	1	22	56	54	27
344	6	13	77	78	80
345	1	27	54	56	57
346	7	22	21	58	61
347	1	94	96	99	101
348	1	195	194	206	204
349	19	66	64	67	69
350	7	122	123	173	174
351	8	21	70	67	68
352	1	10	9	11	13
353	1	39	38	40	41
354	16	197	199	200	201
355	1	143	142	146	148
356	5	113	115	116	117
357	6	120	122	123	173
358	1	123	124	125	126
359	8	161	123	173	174
360	1	19	18	20	73
361	1	1	2	3	5
362	1	35	36	38	40
363	1	41	40	43	45
364	1	7	8	9	10
365	6	131	152	153	156
366	5	117	116	115	180
367	1	136	150	152	153
368	16	94	96	97	98
369	1	132	134	136	137
370	1	8	7	84	85
371	1	24	23	25	27
372	6	58	21	20	73
373	19	62	61	64	66
374	1	126	125	127	129
375	1	199	204	206	207
376	1	16	15	75	73
377	1	8	82	77	78
378	1	128	127	129	157
379	1	34	35	45	46
380	1	124	125	127	129
381	1	7	84	86	87
382	1	23	25	27	54
383	1	112	111	113	114
384	16	41	89	91	92
385	1	109	110	111	112
386	1	106	105	104	189
387	1	151	150	152	153
388	1	130	129	157	158
389	1	196	195	197	199
390	8	61	64	67	69
391	1	158	157	159	160
392	4	134	136	137	138
393	1	89	91	92	94
394	1	31	30	32	34
395	1	109	110	185	186
396	7	124	123	173	175
397	1	126	125	124	159
398	16	97	192	194	195
399	1	18	16	15	75
400	5	11	13	14	15
401	4	9	8	7	84
402	7	22	21	70	67
403	7	20	21	70	72
404	9	58	61	64	67
404	10	58	61	64	67
404	11	58	61	64	67
405	1	127	129	157	159
406	6	161	123	122	176
407	1	110	109	187	188
408	8	162	161	164	167
409	8	162	161	123	173
410	1	97	96	99	101
411	8	123	173	170	172
412	1	139	138	137	148
413	1	21	22	23	25
414	1	136	137	138	139
415	7	122	123	161	162
416	1	28	27	54	56
417	7	124	123	161	163
418	1	28	29	30	32
419	6	125	124	123	161
420	1	20	73	75	76
421	1	128	127	129	130
422	19	68	67	70	71
423	1	130	131	152	150
424	1	30	32	34	47
425	5	129	130	131	152
426	6	159	124	123	161
427	16	98	97	192	194
428	19	165	164	167	168
429	1	123	124	159	157
430	1	14	15	16	18
431	8	123	161	164	166
432	8	21	58	61	62
433	1	37	36	38	40
434	5	129	130	131	132
435	1	135	134	136	137
436	1	181	180	185	186
437	6	115	180	181	184
438	1	16	18	20	21
439	5	25	27	28	29
440	1	121	120	122	123
441	1	94	96	99	100
442	1	18	20	73	75
443	1	35	45	43	40
444	4	148	137	136	150
445	9	161	164	167	170
445	10	161	164	167	170
445	11	161	164	167	170
446	1	125	127	129	157
447	6	182	181	180	185
448	6	23	22	21	70
449	2	189	104	103	191
450	1	10	9	11	12
451	16	202	200	199	204
452	1	197	199	204	205
453	8	60	58	61	64
454	1	85	84	86	87
455	1	116	115	180	181
456	3	88	1	103	104
457	1	91	92	94	95