Title

59 atoms
62 bonds
101 angles
157 dihedrals
72 impropers

8 atom types
12 bond types
6 angle types
20 dihedral types
2 improper types
-2.443000078 97.55699992 xlo xhi
-1.483999968 98.51600003 ylo yhi
-7.367000103 92.6329999 zlo zhi
0.0 0.0 0.0 xy xz yz

Masses

1	15.99943
2	12.01078
3	1.007947
4	12.01078
5	15.99943
6	1.007947
7	15.99943
8	1.007947


Pair Coeffs

1	0.16846514	3.0251065
2	0.10884061	3.3795318
3	0.016409246	2.5832257
4	0.086879315	3.4806469
5	0.2102061	3.0398122
6	0.015611343	2.5725815
7	0.20947353	2.99716
8	1.2326e-05	0.53453923

Bond Coeffs

1 harmonic	366.7408841747	1.425895053732
2 harmonic	300.03137914615	1.451203938761
3 harmonic	264.62148576755	1.52190126495
4 harmonic	370.04670688625	1.093899492634
5 harmonic	301.15400723785	1.345741232799
6 harmonic	582.698766451	1.225198386222
7 harmonic	279.1350963404	1.454628925034
8 harmonic	360.7852444772	1.387193227181
9 harmonic	397.2545789619	1.085358495916
10 harmonic	329.96998057905	1.427343958716
11 harmonic	543.5267831885	0.9716763312559
12 harmonic	385.7604595587	1.369745182308


Angle Coeffs

1 harmonic	53.20531626545	116.5475862634
2 harmonic	65.09061609600001	110.3538806181
3 harmonic	201.41175231035	127.4691416191
4 harmonic	57.8982893754	126.8062420451
5 harmonic	48.776492647595	115.6030999533
6 harmonic	34.066775159195	129.1835929926


Dihedral Coeffs

1 fourier 1	-0.0309670556842	3	0
2 fourier 1	0.4598191477945	2	0
3 fourier 1	0.1115525666802	3	0
4 fourier 1	0.3432490222662	1	0
5 fourier 1	0.0473758381877	3	0
6 fourier 1	0.457973137376	1	0
7 fourier 1	0.1918272375143	3	0
8 fourier 1	0.9202179876409	1	180
9 fourier 1	1.163809172478	2	180
10 fourier 1	0.1679186987369	1	180
11 fourier 1	2.779853741805	2	180
12 fourier 1	0.9974165607242	2	180
13 fourier 1	0.1911926717192	3	0
14 fourier 1	3.661930099076	2	180
15 fourier 1	0.3445382149273	3	0
16 fourier 1	0.1364556373303	1	0
17 fourier 1	0.3026390167484	3	0
18 fourier 1	2.687457892086	2	180
19 fourier 1	2.772607909663	2	180
20 fourier 1	0.09692684957115	1	0


Improper Coeffs

1 3.5	-1	2
2 0.3666666666666667	-1	2


Atoms

1	1	1	-0.12907501	1.576	-0.336	0.85699999
2	1	2	0.053839002	0.63599998	-0.419	-0.17900001
3	1	2	0.158804	-0.71899998	0.11	0.28999999
4	1	1	-0.50022298	-1.675	-0.035999998	-0.72399998
5	1	3	0.094411999	-1.051	-0.46900001	1.177
6	1	3	0.094411999	-0.63099998	1.1799999	0.58899999
7	1	3	0.102078	0.52999997	-1.484	-0.477
8	1	3	0.102078	0.98699999	0.154	-1.068
9	1	4	0.79458499	-1.49	0.71499997	-1.4170001
10	1	5	-0.54388398	-2.4430001	1.1390001	-2.1240001
11	1	4	-0.268291	-0.133	1.27	-1.5650001
12	1	4	-0.080402002	0.87099999	0.80400002	-0.801
13	1	6	0.22331899	0.69599998	0.021	-0.072999999
14	1	4	-0.22758099	2.2360001	1.353	-0.94099998
15	1	6	0.1927	3.03	0.963	-0.31600001
16	1	4	-0.12873299	2.4809999	2.323	-1.835
17	1	4	0.015873	3.8299999	2.8970001	-2.0039999
18	1	6	0.20278899	4.6420002	2.523	-1.39
19	1	4	-0.330641	4.0500002	3.8710001	-2.9100001
20	1	4	0.58187002	5.395	4.4530001	-3.089
21	1	5	-0.56496102	6.3769999	4.0599999	-2.404
22	1	4	-0.047529999	2.938	4.3850002	-3.7539999
23	1	6	0.20557299	3.138	5.1690001	-4.4749999
24	1	4	-0.22186799	1.692	3.9089999	-3.651
25	1	6	0.1927	0.912	4.3130002	-4.2859998
26	1	4	-0.15161	1.381	2.8429999	-2.681
27	1	4	-0.023523999	0.141	2.345	-2.5550001
28	1	6	0.213506	-0.662	2.7260001	-3.174
29	1	1	-0.123463	1.845	0.61799997	0.92000002
30	1	2	0.025830001	3.148	0.70099998	0.41100001
31	1	2	0.097860001	4.1529999	0.17200001	1.434
32	1	7	-0.67479199	5.461	0.31799999	0.95200002
33	1	8	0.40068901	5.5970001	-0.40000001	0.27900001
34	1	3	0.100443	4.0549998	0.75199997	2.3759999
35	1	3	0.100443	3.941	-0.89700001	1.663
36	1	3	0.102781	3.3759999	1.766	0.192
37	1	3	0.102781	3.23	0.12800001	-0.54100001
38	1	4	0.58187002	5.5479999	5.2350001	-3.822
39	1	5	-0.56496203	6.6609998	5.3109999	-4.408
40	1	4	-0.330641	4.4679999	6.191	-4.125
41	1	4	-0.047529999	3.286	6.0939999	-3.49
42	1	6	0.20557299	3.115	5.3179998	-2.753
43	1	4	-0.22186799	2.1960001	7.046	-3.786
44	1	6	0.1927	1.253	6.9489999	-3.2620001
45	1	4	-0.15161	2.3800001	8.0170002	-4.6929998
46	1	4	-0.019121001	1.316	8.9870005	-5.0159998
47	1	6	0.213506	0.36399999	8.908	-4.5029998
48	1	4	-0.261195	1.522	9.9549999	-5.9310002
49	1	4	0.83400297	0.447	10.923	-6.2470002
50	1	5	-0.51627201	0.639	11.828	-7.1030002
51	1	7	-0.67145503	-0.787	10.846	-5.6040001
52	1	8	0.40876001	-1.526	11.505	-5.816
53	1	4	-0.072910003	2.8329999	10.059	-6.6339998
54	1	6	0.22331899	2.987	10.841	-7.3670001
55	1	4	-0.22758099	3.8399999	9.2110004	-6.3870001
56	1	6	0.1927	4.776	9.3249998	-6.9219999
57	1	4	-0.12873299	3.678	8.132	-5.3979998
58	1	4	0.015873	4.6690001	7.2670002	-5.1300001
59	1	6	0.20278899	5.618	7.3530002	-5.6469998

Bonds

1	1	1	2
2	2	1	29
3	3	2	3
4	4	2	7
5	4	2	8
6	1	3	4
7	4	3	5
8	4	3	6
9	5	4	9
10	6	9	10
11	7	9	11
12	8	11	12
13	8	11	27
14	9	12	13
15	8	12	14
16	9	14	15
17	8	14	16
18	8	16	17
19	8	16	26
20	9	17	18
21	8	17	19
22	7	19	20
23	8	19	22
24	6	20	21
25	7	20	38
26	9	22	23
27	8	22	24
28	9	24	25
29	8	24	26
30	8	26	27
31	9	27	28
32	1	29	30
33	3	30	31
34	4	30	36
35	4	30	37
36	10	31	32
37	4	31	34
38	4	31	35
39	11	32	33
40	6	38	39
41	7	38	40
42	8	40	41
43	8	40	58
44	9	41	42
45	8	41	43
46	9	43	44
47	8	43	45
48	8	45	46
49	8	45	57
50	9	46	47
51	8	46	48
52	7	48	49
53	8	48	53
54	6	49	50
55	12	49	51
56	11	51	52
57	9	53	54
58	8	53	55
59	9	55	56
60	8	55	57
61	8	57	58
62	9	58	59

Angles

1	4	46	48	53
2	1	32	31	35
3	5	36	30	37
4	1	2	3	5
5	1	30	31	32
6	4	12	14	16
7	2	31	32	33
8	4	45	57	55
9	4	48	53	55
10	1	30	31	35
11	1	1	2	3
12	4	46	45	57
13	4	40	58	57
14	1	2	3	4
15	6	57	58	59
16	4	10	9	11
17	4	43	45	57
18	6	47	46	48
19	4	20	38	40
20	6	19	22	23
21	4	21	20	38
22	6	45	46	47
23	1	3	2	7
24	6	40	58	59
25	4	38	40	58
26	1	4	3	6
27	2	1	29	30
28	4	12	11	27
29	6	41	43	44
30	6	53	55	56
31	6	18	17	19
32	1	1	2	8
33	4	19	20	38
34	4	46	48	49
35	3	50	49	51
36	6	16	17	18
37	2	49	51	52
38	4	17	19	20
39	4	48	49	50
40	4	19	20	21
41	4	11	12	14
42	4	9	11	12
43	4	40	41	43
44	4	38	40	41
45	1	29	30	37
46	4	17	16	26
47	6	13	12	14
48	6	26	27	28
49	4	14	16	26
50	4	4	9	11
51	4	19	22	24
52	6	40	41	42
53	4	16	17	19
54	6	22	24	25
55	6	25	24	26
56	2	2	1	29
57	4	43	45	46
58	1	4	3	5
59	1	29	30	36
60	4	45	57	58
61	4	20	38	39
62	4	53	55	57
63	4	45	46	48
64	4	55	57	58
65	4	49	48	53
66	3	4	9	10
67	1	3	2	8
68	6	12	14	15
69	4	39	38	40
70	6	23	22	24
71	4	16	26	24
72	6	44	43	45
73	1	1	2	7
74	2	3	4	9
75	5	5	3	6
76	4	22	24	26
77	6	11	27	28
78	1	31	30	37
79	4	17	19	22
80	4	24	26	27
81	5	34	31	35
82	6	56	55	57
83	6	11	12	13
84	4	48	49	51
85	4	14	16	17
86	4	9	11	27
87	4	20	19	22
88	1	31	30	36
89	4	11	27	26
90	4	16	26	27
91	6	54	53	55
92	4	41	43	45
93	5	7	2	8
94	6	42	41	43
95	1	29	30	31
96	1	32	31	34
97	6	48	53	54
98	4	41	40	58
99	6	15	14	16
100	1	2	3	6
101	1	30	31	34

Dihedrals

1	14	45	57	58	59
2	14	40	58	57	55
3	14	43	45	46	48
4	12	17	19	20	38
5	14	42	41	40	58
6	14	48	53	55	56
7	19	50	49	51	52
7	20	50	49	51	52
8	1	1	2	3	4
8	2	1	2	3	4
9	14	46	45	57	55
10	14	49	48	53	55
11	14	16	26	24	22
12	5	6	3	4	9
13	12	21	20	19	22
14	14	12	11	27	28
15	5	1	29	30	37
16	11	3	4	9	11
17	12	17	19	20	21
18	17	33	32	31	35
19	14	22	24	26	27
20	14	9	11	27	26
21	14	44	43	45	46
22	12	19	20	38	40
23	14	17	19	22	23
24	12	22	19	20	38
25	14	12	14	16	17
26	12	46	48	49	50
27	14	47	46	48	53
28	14	14	16	17	18
29	14	17	16	26	24
30	12	20	38	40	41
31	14	45	46	48	49
32	5	1	29	30	36
33	14	12	11	27	26
34	14	42	41	43	44
35	14	18	17	19	20
36	14	18	17	16	26
37	14	24	26	27	28
38	14	38	40	58	57
39	14	48	53	55	57
40	14	53	55	57	58
41	14	16	26	27	28
42	12	19	20	38	39
43	7	2	3	4	9
43	8	2	3	4	9
44	13	6	3	2	8
45	17	33	32	31	34
46	14	45	57	55	53
47	5	5	3	4	9
48	15	30	31	32	33
48	16	30	31	32	33
49	14	11	12	14	15
50	12	39	38	40	58
51	14	23	22	24	26
52	5	3	2	1	29
53	14	20	19	22	23
54	3	4	3	2	8
54	4	4	3	2	8
55	14	38	40	41	43
56	14	16	17	19	20
57	14	19	17	16	26
58	14	19	22	24	26
59	14	11	27	26	24
60	12	21	20	38	40
61	12	4	9	11	12
62	14	38	40	58	59
63	14	40	41	43	45
64	14	41	43	45	57
65	13	35	31	30	37
66	14	23	22	24	25
67	13	34	31	30	37
68	1	29	30	31	32
68	2	29	30	31	32
69	14	41	40	58	57
70	14	43	45	57	55
71	14	42	41	43	45
72	14	45	57	55	56
73	9	3	4	9	10
73	10	3	4	9	10
74	14	19	22	24	25
75	3	29	30	31	35
75	4	29	30	31	35
76	12	4	9	11	27
77	14	46	45	57	58
78	14	14	16	17	19
79	14	18	17	19	22
80	14	9	11	12	14
81	5	8	2	1	29
82	5	1	29	30	31
83	14	47	46	48	49
84	14	15	14	16	26
85	12	51	49	48	53
86	14	45	46	48	53
87	13	5	3	2	8
88	13	34	31	30	36
89	12	39	38	40	41
90	5	7	2	1	29
91	14	40	58	57	45
92	14	17	16	26	27
93	14	25	24	26	27
94	14	54	53	55	56
95	14	14	16	26	24
96	14	13	12	14	16
97	14	11	27	26	16
98	14	46	48	53	54
99	3	32	31	30	37
99	4	32	31	30	37
100	14	14	12	11	27
101	14	43	41	40	58
102	14	43	45	46	47
103	12	10	9	11	12
104	3	1	2	3	6
104	4	1	2	3	6
105	3	29	30	31	34
105	4	29	30	31	34
106	12	20	38	40	58
107	14	16	17	19	22
108	14	38	40	41	42
109	14	20	19	22	24
110	14	17	19	22	24
111	12	50	49	48	53
112	14	43	45	57	58
113	3	32	31	30	36
113	4	32	31	30	36
114	12	46	48	49	51
115	12	10	9	11	27
116	14	9	11	27	28
117	14	46	48	53	55
118	6	2	1	29	30
119	18	48	49	51	52
120	14	56	55	57	58
121	14	47	46	45	57
122	14	14	16	26	27
123	13	35	31	30	36
124	14	15	14	16	17
125	14	55	57	58	59
126	14	41	43	45	46
127	14	9	11	12	13
128	12	21	20	38	39
129	14	54	53	55	57
130	14	12	14	16	26
131	14	40	41	43	44
132	13	5	3	2	7
133	13	6	3	2	7
134	14	48	46	45	57
135	14	13	12	11	27
136	14	41	40	58	59
137	14	16	26	24	25
138	14	49	48	53	54
139	14	13	12	14	15
140	14	44	43	45	57
141	3	1	2	3	5
141	4	1	2	3	5
142	3	4	3	2	7
142	4	4	3	2	7
143	14	11	12	14	16

Impropers

1	2	26	27	16	24
3	2	45	57	43	46
5	2	57	58	45	55
8	2	46	45	47	48
9	2	43	44	45	41
11	2	11	27	9	12
13	1	49	48	50	51
14	2	55	56	57	53
19	2	57	45	55	58
20	2	17	18	19	16
22	1	9	4	10	11
24	2	48	46	49	53
28	2	24	25	26	22
30	2	55	53	56	57
32	2	55	57	53	56
36	2	26	24	27	16
41	2	58	40	57	59
46	2	14	15	16	12
63	2	17	19	16	18
64	2	27	28	11	26
68	2	46	48	45	47
74	2	57	55	58	45
75	2	27	26	28	11
79	2	22	23	24	19
82	2	16	17	26	14
91	2	53	54	55	48
104	2	20	38	19	21
105	2	24	26	22	25
106	2	43	45	41	44
107	2	45	46	57	43
108	2	17	16	18	19
115	2	20	21	38	19
118	2	38	20	39	40
124	2	12	13	14	11
127	2	48	53	46	49
129	2	19	17	20	22
130	2	20	19	21	38
134	2	27	11	26	28
136	2	40	38	41	58
144	2	26	16	24	27
145	2	19	22	17	20
147	2	45	43	46	57
148	2	41	43	40	42
151	2	38	39	40	20
154	2	16	14	17	26
155	2	22	19	23	24
159	2	58	57	59	40
160	1	49	51	48	50
166	2	40	41	58	38
167	1	49	50	51	48
176	2	12	14	11	13
182	2	22	24	19	23
183	2	24	22	25	26
185	2	16	26	14	17
187	2	19	20	22	17
188	2	11	12	27	9
190	2	14	16	12	15
191	2	53	48	54	55
194	2	58	59	40	57
196	2	40	58	38	41
200	2	38	40	20	39
203	2	12	11	13	14
206	2	43	41	44	45
209	2	11	9	12	27
210	1	9	11	4	10
219	2	53	55	48	54
225	2	48	49	53	46
226	1	9	10	11	4
227	2	41	42	43	40
230	2	41	40	42	43
231	2	14	12	15	16
233	2	46	47	48	45
