Title

59 atoms
62 bonds
101 angles
157 dihedrals
72 impropers

8 atom types
12 bond types
6 angle types
20 dihedral types
2 improper types
-2.443000078 97.55699992 xlo xhi
-1.483999968 98.51600003 ylo yhi
-7.367000103 92.6329999 zlo zhi
0.0 0.0 0.0 xy xz yz

Masses

1	15.99943
2	12.01078
3	1.007947
4	12.01078
5	15.99943
6	1.007947
7	15.99943
8	1.007947


Pair Coeffs

1	0.16846514	3.0251065
2	0.10884061	3.3795318
3	0.016409246	2.5832257
4	0.086879315	3.4806469
5	0.2102061	3.0398122
6	0.015611343	2.5725815
7	0.20947353	2.99716
8	1.2326e-05	0.53453923

Bond Coeffs

1 harmonic	366.7408841747	1.425895053732
2 harmonic	300.03137914615	1.451203938761
3 harmonic	264.62148576755	1.52190126495
4 harmonic	370.04670688625	1.093899492634
5 harmonic	301.15400723785	1.345741232799
6 harmonic	582.698766451	1.225198386222
7 harmonic	279.1350963404	1.454628925034
8 harmonic	360.7852444772	1.387193227181
9 harmonic	397.2545789619	1.085358495916
10 harmonic	329.96998057905	1.427343958716
11 harmonic	543.5267831885	0.9716763312559
12 harmonic	385.7604595587	1.369745182308


Angle Coeffs

1 harmonic	53.20531626545	116.5475862634
2 harmonic	65.09061609600001	110.3538806181
3 harmonic	201.41175231035	127.4691416191
4 harmonic	57.8982893754	126.8062420451
5 harmonic	48.776492647595	115.6030999533
6 harmonic	34.066775159195	129.1835929926


Dihedral Coeffs

1 fourier 1	-0.0309670556842	3	0
2 fourier 1	0.4598191477945	2	0
3 fourier 1	0.1115525666802	3	0
4 fourier 1	0.3432490222662	1	0
5 fourier 1	0.0473758381877	3	0
6 fourier 1	0.457973137376	1	0
7 fourier 1	0.1918272375143	3	0
8 fourier 1	0.9202179876409	1	180
9 fourier 1	1.163809172478	2	180
10 fourier 1	0.1679186987369	1	180
11 fourier 1	2.779853741805	2	180
12 fourier 1	0.9974165607242	2	180
13 fourier 1	0.1911926717192	3	0
14 fourier 1	3.661930099076	2	180
15 fourier 1	0.3445382149273	3	0
16 fourier 1	0.1364556373303	1	0
17 fourier 1	0.3026390167484	3	0
18 fourier 1	2.687457892086	2	180
19 fourier 1	2.772607909663	2	180
20 fourier 1	0.09692684957115	1	0


Improper Coeffs

1 3.5	-1	2
2 0.3666666666666667	-1	2


Atoms

1	1	1	-0.12907501	1.576	-0.336	0.85699999
2	1	2	0.053839002	0.63599998	-0.419	-0.17900001
3	1	2	0.158804	-0.71899998	0.11	0.28999999
4	1	1	-0.50022298	-1.675	-0.035999998	-0.72399998
5	1	3	0.094411999	-1.051	-0.46900001	1.177
6	1	3	0.094411999	-0.63099998	1.1799999	0.58899999
7	1	3	0.102078	0.52999997	-1.484	-0.477
8	1	3	0.102078	0.98699999	0.154	-1.068
9	1	4	0.79458499	-1.49	0.71499997	-1.4170001
10	1	5	-0.54388398	-2.4430001	1.1390001	-2.1240001
11	1	4	-0.268291	-0.133	1.27	-1.5650001
12	1	4	-0.080402002	0.87099999	0.80400002	-0.801
13	1	6	0.22331899	0.69599998	0.021	-0.072999999
14	1	4	-0.22758099	2.2360001	1.353	-0.94099998
15	1	6	0.1927	3.03	0.963	-0.31600001
16	1	4	-0.12873299	2.4809999	2.323	-1.835
17	1	4	0.015873	3.8299999	2.8970001	-2.0039999
18	1	6	0.20278899	4.6420002	2.523	-1.39
19	1	4	-0.330641	4.0500002	3.8710001	-2.9100001
20	1	4	0.58187002	5.395	4.4530001	-3.089
21	1	5	-0.56496102	6.3769999	4.0599999	-2.404
22	1	4	-0.047529999	2.938	4.3850002	-3.7539999
23	1	6	0.20557299	3.138	5.1690001	-4.4749999
24	1	4	-0.22186799	1.692	3.9089999	-3.651
25	1	6	0.1927	0.912	4.3130002	-4.2859998
26	1	4	-0.15161	1.381	2.8429999	-2.681
27	1	4	-0.023523999	0.141	2.345	-2.5550001
28	1	6	0.213506	-0.662	2.7260001	-3.174
29	1	1	-0.123463	1.845	0.61799997	0.92000002
30	1	2	0.025830001	3.148	0.70099998	0.41100001
31	1	2	0.097860001	4.1529999	0.17200001	1.434
32	1	7	-0.67479199	5.461	0.31799999	0.95200002
33	1	8	0.40068901	5.5970001	-0.40000001	0.27900001
34	1	3	0.100443	4.0549998	0.75199997	2.3759999
35	1	3	0.100443	3.941	-0.89700001	1.663
36	1	3	0.102781	3.3759999	1.766	0.192
37	1	3	0.102781	3.23	0.12800001	-0.54100001
38	1	4	0.58187002	5.5479999	5.2350001	-3.822
39	1	5	-0.56496203	6.6609998	5.3109999	-4.408
40	1	4	-0.330641	4.4679999	6.191	-4.125
41	1	4	-0.047529999	3.286	6.0939999	-3.49
42	1	6	0.20557299	3.115	5.3179998	-2.753
43	1	4	-0.22186799	2.1960001	7.046	-3.786
44	1	6	0.1927	1.253	6.9489999	-3.2620001
45	1	4	-0.15161	2.3800001	8.0170002	-4.6929998
46	1	4	-0.019121001	1.316	8.9870005	-5.0159998
47	1	6	0.213506	0.36399999	8.908	-4.5029998
48	1	4	-0.261195	1.522	9.9549999	-5.9310002
49	1	4	0.83400297	0.447	10.923	-6.2470002
50	1	5	-0.51627201	0.639	11.828	-7.1030002
51	1	7	-0.67145503	-0.787	10.846	-5.6040001
52	1	8	0.40876001	-1.526	11.505	-5.816
53	1	4	-0.072910003	2.8329999	10.059	-6.6339998
54	1	6	0.22331899	2.987	10.841	-7.3670001
55	1	4	-0.22758099	3.8399999	9.2110004	-6.3870001
56	1	6	0.1927	4.776	9.3249998	-6.9219999
57	1	4	-0.12873299	3.678	8.132	-5.3979998
58	1	4	0.015873	4.6690001	7.2670002	-5.1300001
59	1	6	0.20278899	5.618	7.3530002	-5.6469998

Bonds

1	1	1	2
2	2	1	29
3	3	2	3
4	4	2	7
5	4	2	8
6	1	3	4
7	4	3	5
8	4	3	6
9	5	4	9
10	6	9	10
11	7	9	11
12	8	11	12
13	8	11	27
14	9	12	13
15	8	12	14
16	9	14	15
17	8	14	16
18	8	16	17
19	8	16	26
20	9	17	18
21	8	17	19
22	7	19	20
23	8	19	22
24	6	20	21
25	7	20	38
26	9	22	23
27	8	22	24
28	9	24	25
29	8	24	26
30	8	26	27
31	9	27	28
32	1	29	30
33	3	30	31
34	4	30	36
35	4	30	37
36	10	31	32
37	4	31	34
38	4	31	35
39	11	32	33
40	6	38	39
41	7	38	40
42	8	40	41
43	8	40	58
44	9	41	42
45	8	41	43
46	9	43	44
47	8	43	45
48	8	45	46
49	8	45	57
50	9	46	47
51	8	46	48
52	7	48	49
53	8	48	53
54	6	49	50
55	12	49	51
56	11	51	52
57	9	53	54
58	8	53	55
59	9	55	56
60	8	55	57
61	8	57	58
62	9	58	59

Angles

1	5	7	2	8
2	4	16	26	27
3	4	14	16	17
4	4	16	26	24
5	6	53	55	56
6	5	5	3	6
7	4	45	46	48
8	4	19	20	38
9	3	50	49	51
10	6	26	27	28
11	6	48	53	54
12	1	31	30	37
13	6	42	41	43
14	6	22	24	25
15	6	11	27	28
16	4	17	19	20
17	4	40	41	43
18	1	1	2	7
19	6	40	41	42
20	4	48	49	50
21	2	3	4	9
22	1	30	31	32
23	4	19	22	24
24	6	19	22	23
25	6	45	46	47
26	4	45	57	58
27	4	41	40	58
28	4	43	45	46
29	4	48	49	51
30	4	11	27	26
31	4	39	38	40
32	1	1	2	8
33	4	12	14	16
34	4	45	57	55
35	4	12	11	27
36	6	15	14	16
37	4	48	53	55
38	6	25	24	26
39	6	16	17	18
40	4	10	9	11
41	2	2	1	29
42	1	32	31	35
43	6	11	12	13
44	4	19	20	21
45	4	21	20	38
46	4	46	48	53
47	1	2	3	6
48	1	30	31	34
49	1	4	3	6
50	1	29	30	36
51	4	9	11	12
52	4	17	19	22
53	4	20	38	39
54	4	41	43	45
55	1	1	2	3
56	1	32	31	34
57	4	9	11	27
58	6	41	43	44
59	6	40	58	59
60	1	2	3	4
61	4	40	58	57
62	6	44	43	45
63	1	30	31	35
64	5	34	31	35
65	4	46	45	57
66	4	20	38	40
67	5	36	30	37
68	2	31	32	33
69	4	14	16	26
70	4	43	45	57
71	6	12	14	15
72	4	49	48	53
73	1	29	30	37
74	4	22	24	26
75	4	38	40	41
76	4	24	26	27
77	3	4	9	10
78	1	3	2	8
79	6	57	58	59
80	4	38	40	58
81	4	17	16	26
82	1	29	30	31
83	6	23	22	24
84	1	3	2	7
85	4	55	57	58
86	4	4	9	11
87	4	16	17	19
88	1	31	30	36
89	6	47	46	48
90	4	53	55	57
91	4	46	48	49
92	6	54	53	55
93	4	11	12	14
94	2	1	29	30
95	2	49	51	52
96	6	56	55	57
97	4	20	19	22
98	6	18	17	19
99	1	2	3	5
100	6	13	12	14
101	1	4	3	5

Dihedrals

1	14	22	24	26	27
2	12	46	48	49	50
3	13	34	31	30	37
4	14	16	17	19	22
5	14	48	53	55	56
6	14	48	46	45	57
7	12	51	49	48	53
8	13	6	3	2	8
9	3	32	31	30	37
9	4	32	31	30	37
10	14	14	16	17	19
11	12	22	19	20	38
12	14	47	46	48	49
13	14	19	22	24	26
14	14	46	45	57	58
15	14	9	11	27	26
16	3	1	2	3	6
16	4	1	2	3	6
17	12	46	48	49	51
18	3	4	3	2	8
18	4	4	3	2	8
19	14	43	45	46	48
20	14	56	55	57	58
21	14	11	12	14	15
22	12	17	19	20	38
23	14	41	43	45	57
24	14	45	46	48	53
25	14	46	45	57	55
26	14	12	14	16	26
27	1	1	2	3	4
27	2	1	2	3	4
28	3	4	3	2	7
28	4	4	3	2	7
29	14	46	48	53	55
30	14	54	53	55	57
31	14	41	40	58	57
32	14	9	11	12	13
33	12	20	38	40	58
34	12	21	20	38	40
35	14	19	22	24	25
36	14	12	11	27	28
37	15	30	31	32	33
37	16	30	31	32	33
38	12	10	9	11	12
39	5	1	29	30	36
40	12	39	38	40	41
41	14	17	19	22	24
42	14	16	26	24	22
43	14	18	17	16	26
44	19	50	49	51	52
44	20	50	49	51	52
45	12	10	9	11	27
46	14	40	58	57	55
47	14	13	12	14	16
48	14	17	16	26	27
49	12	39	38	40	58
50	7	2	3	4	9
50	8	2	3	4	9
51	12	19	20	38	39
52	14	17	16	26	24
53	14	42	41	40	58
54	14	47	46	45	57
55	14	44	43	45	46
56	14	54	53	55	56
57	12	21	20	38	39
58	1	29	30	31	32
58	2	29	30	31	32
59	14	25	24	26	27
60	6	2	1	29	30
61	14	43	45	46	47
62	17	33	32	31	34
63	14	45	57	58	59
64	5	8	2	1	29
65	14	43	41	40	58
66	14	45	57	55	56
67	9	3	4	9	10
67	10	3	4	9	10
68	14	20	19	22	24
69	14	14	16	26	24
70	14	23	22	24	26
71	5	6	3	4	9
72	12	20	38	40	41
73	14	41	40	58	59
74	13	35	31	30	36
75	12	19	20	38	40
76	14	44	43	45	57
77	11	3	4	9	11
78	14	15	14	16	17
79	17	33	32	31	35
80	5	1	29	30	37
81	12	21	20	19	22
82	14	13	12	11	27
83	14	11	12	14	16
84	14	16	26	27	28
85	12	17	19	20	21
86	14	23	22	24	25
87	14	53	55	57	58
88	5	7	2	1	29
89	14	12	14	16	17
90	14	14	16	17	18
91	14	17	19	22	23
92	3	1	2	3	5
92	4	1	2	3	5
93	5	1	29	30	31
94	14	45	46	48	49
95	13	5	3	2	8
96	14	47	46	48	53
97	12	4	9	11	12
98	14	16	17	19	20
99	3	29	30	31	34
99	4	29	30	31	34
100	14	14	16	26	27
101	12	50	49	48	53
102	14	12	11	27	26
103	12	4	9	11	27
104	14	9	11	27	28
105	13	35	31	30	37
106	14	9	11	12	14
107	14	45	57	55	53
108	13	5	3	2	7
109	14	20	19	22	23
110	14	11	27	26	16
111	5	5	3	4	9
112	14	41	43	45	46
113	14	14	12	11	27
114	13	34	31	30	36
115	3	29	30	31	35
115	4	29	30	31	35
116	14	38	40	41	43
117	14	38	40	41	42
118	14	55	57	58	59
119	14	16	26	24	25
120	3	32	31	30	36
120	4	32	31	30	36
121	14	49	48	53	54
122	14	11	27	26	24
123	14	40	41	43	45
124	14	40	41	43	44
125	14	40	58	57	45
126	13	6	3	2	7
127	14	49	48	53	55
128	14	48	53	55	57
129	14	18	17	19	20
130	14	42	41	43	45
131	14	42	41	43	44
132	14	15	14	16	26
133	14	43	45	57	58
134	14	38	40	58	59
135	14	46	48	53	54
136	18	48	49	51	52
137	14	13	12	14	15
138	14	19	17	16	26
139	14	38	40	58	57
140	14	24	26	27	28
141	14	43	45	57	55
142	14	18	17	19	22
143	5	3	2	1	29

Impropers

3	2	41	43	40	42
7	2	19	17	20	22
8	2	22	23	24	19
11	2	19	20	22	17
19	2	17	19	16	18
21	1	49	50	51	48
22	2	57	45	55	58
25	2	11	27	9	12
27	2	48	49	53	46
30	2	55	53	56	57
41	2	40	58	38	41
43	2	40	38	41	58
46	1	9	10	11	4
47	2	46	48	45	47
54	2	20	21	38	19
56	2	48	53	46	49
58	2	17	16	18	19
59	2	43	44	45	41
60	2	43	41	44	45
61	2	55	57	53	56
66	2	22	19	23	24
67	2	24	26	22	25
72	2	24	25	26	22
77	2	46	47	48	45
78	2	12	13	14	11
80	2	11	9	12	27
84	1	49	48	50	51
85	2	26	16	24	27
93	2	27	28	11	26
94	1	49	51	48	50
95	2	16	26	14	17
96	1	9	11	4	10
97	2	53	55	48	54
99	2	20	19	21	38
111	2	16	14	17	26
112	2	45	43	46	57
117	2	26	24	27	16
122	2	12	11	13	14
125	2	19	22	17	20
129	1	9	4	10	11
141	2	38	20	39	40
142	2	26	27	16	24
151	2	20	38	19	21
154	2	58	40	57	59
159	2	48	46	49	53
163	2	57	58	45	55
164	2	17	18	19	16
166	2	45	46	57	43
168	2	38	40	20	39
169	2	58	57	59	40
172	2	45	57	43	46
174	2	38	39	40	20
175	2	22	24	19	23
180	2	55	56	57	53
182	2	41	42	43	40
186	2	14	15	16	12
190	2	41	40	42	43
191	2	58	59	40	57
194	2	43	45	41	44
206	2	14	16	12	15
208	2	27	26	28	11
209	2	53	48	54	55
210	2	11	12	27	9
211	2	53	54	55	48
216	2	14	12	15	16
220	2	24	22	25	26
221	2	12	14	11	13
224	2	27	11	26	28
229	2	16	17	26	14
238	2	57	55	58	45
239	2	46	45	47	48
240	2	40	41	58	38
