Title

882 atoms
971 bonds
1580 angles
2510 dihedrals
1560 impropers

9 atom types
14 bond types
10 angle types
19 dihedral types
3 improper types
-37.04199982 62.95800018 xlo xhi
-63.00899887 36.99100113 ylo yhi
-65.08499908 34.91500092 zlo zhi
0.0 0.0 0.0 xy xz yz

Masses

1	15.99943
2	12.01078
3	14.00672
4	1.007947
5	1.007947
6	15.99943
7	12.01078
8	15.99943
9	1.007947


Pair Coeffs

1	0.2102061	3.0398122
2	0.086879315	3.4806469
3	0.16769152	3.206876
4	0.015611343	2.5725815
5	0.014090815	1.1034277
6	0.16846514	3.0251065
7	0.21	3.3996695
8	0.20947353	2.99716
9	1.2326e-05	0.53453923

Bond Coeffs

1 harmonic	582.698766451	1.225198386222
2 harmonic	492.76746816345	1.381897776683
3 harmonic	301.15400723785	1.345741232799
4 harmonic	390.03554688505	1.390160554689
5 harmonic	505.144496193	1.019481865027
6 harmonic	360.7852444772	1.387193227181
7 harmonic	397.2545789619	1.085358495916
8 harmonic	279.1350963404	1.454628925034
9 harmonic	425.69104206635	1.362945806494
10 harmonic	300.03137914615	1.451203938761
11 harmonic	382.5450169811	1.379244394267
12 harmonic	602.81384337	1.196112346392
13 harmonic	385.7604595587	1.369745182308
14 harmonic	543.5267831885	0.9716763312559


Angle Coeffs

1 harmonic	57.8982893754	126.8062420451
2 harmonic	201.41175231035	127.4691416191
3 harmonic	55.42182150775	117.3465570514
4 harmonic	63.44422595415	115.5071327674
5 harmonic	65.09061609600001	110.3538806181
6 harmonic	34.066775159195	129.1835929926
7 harmonic	14.32262199324	138.3184368373
8 harmonic	39.628116874445	129.8027304608
9 harmonic	55.07882548015	112.8714009681
10 harmonic	33.56981613361	180


Dihedral Coeffs

1 fourier 1	1.809047390003	2	180
2 fourier 1	-0.04816277792592	1	0
3 fourier 1	0.4860993122944	2	180
4 fourier 1	0.8916986138746	1	0
5 fourier 1	1.532232714475	2	180
6 fourier 1	1.193093382682	2	180
7 fourier 1	2.779853741805	2	180
8 fourier 1	3.661930099076	2	180
9 fourier 1	0.9974165607242	2	180
10 fourier 1	1.57666786751	2	180
11 fourier 1	1.163235555439	2	180
12 fourier 1	3.101948770557	2	180
13 fourier 1	-0.4252153282372	1	0
14 fourier 1	2.348375642009	2	180
15 fourier 1	1.256156174911	1	0
16 fourier 1	0.457973137376	1	0
17 fourier 1	1.550515418264	2	180
18 fourier 1	0	1	0
19 fourier 1	0.8283030590042	2	180


Improper Coeffs

1 3.5	-1	2
2 0.3333333333333333	-1	2
3 0.3666666666666667	-1	2


Atoms

1	1	1	-0.57263601	13.021	-5.007	0.74199998
2	1	2	0.839315	12.508	-5.8629999	-0.026000001
3	1	3	-0.49205801	11.169	-5.7189999	-0.51499999
4	1	2	0.26267201	10.381	-4.5240002	-0.38299999
5	1	2	-0.146935	9.0369997	-4.625	-0.30599999
6	1	2	-0.17116199	8.2390003	-3.3940001	-0.191
7	1	2	0.71148902	6.7940001	-3.2130001	-0.1
8	1	3	-0.53022599	6.4819999	-1.819	-0.017000001
9	1	2	0.71493798	7.7649999	-1.188	-0.071000002
10	1	2	-0.24860001	8.8120003	-2.201	-0.169
11	1	2	0.111859	10.27	-2.052	-0.28200001
12	1	2	-0.37717599	11.019	-3.164	-0.39199999
13	1	4	0.211541	12.088	-3.0599999	-0.51700002
14	1	4	0.21572401	10.727	-1.0700001	-0.29800001
15	1	1	-0.53739297	7.9499998	0.057	-0.089000002
16	1	2	0.238041	5.1830001	-1.201	-0.012
17	1	2	-0.34424701	4.967	-0.061999999	0.667
18	1	2	-0.15437099	3.625	0.55900002	0.68300003
19	1	2	-0.138638	2.599	-0.011	0.026000001
20	1	2	-0.15437099	2.8440001	-1.262	-0.73799998
21	1	2	-0.34424701	4.059	-1.821	-0.75400001
22	1	4	0.20525301	4.2199998	-2.7160001	-1.34
23	1	4	0.212862	2.0450001	-1.7180001	-1.3099999
24	1	2	-0.089028999	1.243	0.59299999	0.050999999
25	1	2	-0.14111499	0.15000001	-0.185	0.15099999
26	1	2	-0.089028999	-1.2130001	0.40700001	0.155
27	1	2	-0.138638	-2.414	-0.47099999	0.227
28	1	2	-0.15437099	-2.437	-1.659	-0.40700001
29	1	2	-0.34424701	-3.631	-2.526	-0.34
30	1	2	0.238041	-4.717	-2.1400001	0.34900001
31	1	2	-0.34424701	-4.698	-0.83499998	1.052
32	1	2	-0.15437099	-3.615	-0.050000001	0.99800003
33	1	4	0.212862	-3.6140001	0.88499999	1.543
34	1	4	0.20525301	-5.553	-0.52100003	1.636
35	1	3	-0.53022701	-5.8870001	-2.974	0.40099999
36	1	2	0.71148902	-7.2579999	-2.5680001	0.405
37	1	2	-0.17116199	-8.1219997	-3.7409999	0.46599999
38	1	2	-0.24860001	-7.3579998	-4.822	0.50099999
39	1	2	0.71493798	-5.9619999	-4.401	0.46599999
40	1	1	-0.53739297	-4.9640002	-5.1669998	0.537
41	1	2	0.111859	-7.9439998	-6.1690001	0.58700001
42	1	2	-0.38551199	-9.2840004	-6.2800002	0.61900002
43	1	2	0.235687	-10.157	-5.0640001	0.55400002
44	1	2	-0.14624301	-9.5909996	-3.8369999	0.498
45	1	4	0.21855199	-10.186	-2.9319999	0.50800002
46	1	3	-0.50510901	-11.583	-5.2319999	0.62400001
47	1	2	0.57613701	-12.531	-4.3979998	-0.055
48	1	1	-0.58092999	-12.164	-3.563	-0.92299998
49	1	5	0.327113	-11.957	-6.0710001	1.12
50	1	4	0.211541	-9.7360001	-7.2610002	0.685
51	1	4	0.21572401	-7.3130002	-7.0479999	0.62800002
52	1	1	-0.53739297	-7.6500001	-1.375	0.31999999
53	1	4	0.20525301	-3.625	-3.461	-0.884
54	1	4	0.212862	-1.596	-1.992	-1
55	1	2	-0.14111499	-1.341	1.744	0.082999997
56	1	2	-0.089028999	-0.147	2.622	-0.011
57	1	2	-0.14111499	1.077	2.0650001	-0.037
58	1	4	0.20603301	1.957	2.691	-0.11
59	1	2	-0.075186998	-0.30899999	4.0949998	-0.086000003
60	1	2	-0.17150401	-1.21	4.7249999	0.69
61	1	2	-0.17150401	-1.3609999	6.1929998	0.62699997
62	1	2	-0.058269002	-0.597	6.9239998	-0.206
63	1	2	-0.17150401	0.39300001	6.23	-1.068
64	1	2	-0.17150401	0.528	4.9000001	-1.013
65	1	4	0.213249	1.251	4.415	-1.656
66	1	4	0.213249	1.023	6.7969999	-1.7410001
67	1	2	-0.060162999	-0.741	8.3999996	-0.28600001
68	1	2	-0.16737901	-0.90899998	9.1470003	0.824
69	1	2	-0.178771	-1.031	10.616	0.72500002
70	1	2	-0.22091199	-0.97899997	11.216	-0.46900001
71	1	2	-0.178771	-0.79799998	10.41	-1.693
72	1	2	-0.16737901	-0.68300003	9.0780001	-1.608
73	1	4	0.21547601	-0.56800002	8.4980001	-2.516
74	1	4	0.231718	-0.76200002	10.897	-2.6589999
75	1	4	0.234659	-1.071	12.292	-0.542
76	1	4	0.231718	-1.165	11.207	1.622
77	1	4	0.21547601	-0.935	8.691	1.804
78	1	4	0.213249	-2.1110001	6.6609998	1.251
79	1	4	0.213249	-1.822	4.171	1.392
80	1	4	0.20603301	-2.325	2.197	0.046999998
81	1	4	0.20603301	0.25999999	-1.255	0.26300001
82	1	4	0.212862	3.4809999	1.461	1.2640001
83	1	4	0.20525301	5.7610002	0.40400001	1.235
84	1	1	-0.53739297	5.9439998	-4.1409998	-0.052999999
85	1	4	0.21855099	8.5469999	-5.5900002	-0.31799999
86	1	5	0.331278	10.719	-6.5689998	-0.92500001
87	1	6	-0.43689299	15.913	-9.3070002	-3.2160001
88	1	2	0.372132	15.199	-8.1440001	-2.938
89	1	2	-0.24166	14.52	-8.0380001	-1.7869999
90	1	2	0.372132	13.758	-6.8070002	-1.482
91	1	6	-0.43689299	13.059	-6.7160001	-0.28
92	1	2	-0.287837	13.749	-5.7930002	-2.3629999
93	1	2	-0.050297	14.497	-5.908	-3.632
94	1	2	-0.287837	15.186	-7.0229998	-3.9070001
95	1	4	0.241308	15.732	-7.1040001	-4.8369999
96	1	4	0.238215	14.486	-5.0890002	-4.3390002
97	1	4	0.241308	13.196	-4.8870001	-2.1530001
98	1	4	0.239373	14.526	-8.8540001	-1.075
99	1	1	-0.57263601	33.827999	-15.262	-21.931999
100	1	2	0.839315	32.82	-16.016001	-21.927
101	1	3	-0.49205801	31.59	-15.614	-21.312
102	1	2	0.26267201	31.308001	-14.278	-20.861
103	1	2	-0.146935	30.466	-14.097	-19.820999
104	1	2	-0.17116199	30.169001	-12.725	-19.381001
105	1	2	0.71148902	29.305	-12.247	-18.306999
106	1	3	-0.53022599	29.322001	-10.817	-18.268
107	1	2	0.71493798	30.202	-10.466	-19.34
108	1	2	-0.24860001	30.702	-11.676	-19.987
109	1	2	0.111859	31.597	-11.834	-21.143
110	1	2	-0.37717599	31.879999	-13.08	-21.563999
111	1	4	0.211541	32.505001	-13.203	-22.438999
112	1	4	0.21572401	32.001999	-10.969	-21.653
113	1	1	-0.53739297	30.455	-9.2880001	-19.702
114	1	2	0.238041	28.541	-9.9440002	-17.433001
115	1	2	-0.34424701	29.035	-8.7639999	-17.02
116	1	2	-0.15437099	28.233999	-7.8800001	-16.146999
117	1	2	-0.138638	27.003	-8.2449999	-15.747
118	1	2	-0.15437099	26.452	-9.5419998	-16.218
119	1	2	-0.34424701	27.176001	-10.34	-17.01
120	1	4	0.20525301	26.743	-11.267	-17.363001
121	1	4	0.212862	25.445999	-9.8400002	-15.945
122	1	2	-0.089028999	26.197001	-7.3730001	-14.855
123	1	2	-0.14111499	25.459999	-7.9050002	-13.864
124	1	2	-0.089028999	24.632	-7.0450001	-12.978
125	1	2	-0.138638	23.791	-7.6529999	-11.911
126	1	2	-0.15437099	23.167	-8.8299999	-12.112
127	1	2	-0.34424701	22.327999	-9.4289999	-11.054
128	1	2	0.238041	22.167999	-8.8059998	-9.875
129	1	2	-0.34424701	22.855	-7.5120001	-9.6440001
130	1	2	-0.15437099	23.621	-6.9710002	-10.6
131	1	4	0.212862	24.134001	-6.039	-10.397
132	1	4	0.20525301	22.761	-7.0110002	-8.6899996
133	1	3	-0.53022701	21.337999	-9.3789997	-8.8509998
134	1	2	0.71148902	20.483999	-8.698	-7.928
135	1	2	-0.17116199	19.823	-9.665	-7.059
136	1	2	-0.24860001	20.226999	-10.879	-7.4000001
137	1	2	0.71493798	21.171	-10.756	-8.5059996
138	1	1	-0.53739297	21.792999	-11.71	-9.0459995
139	1	2	0.111859	19.747	-12.073	-6.6859999
140	1	2	-0.37717599	18.874001	-11.903	-5.678
141	1	2	0.26267201	18.392	-10.536	-5.3000002
142	1	2	-0.146935	18.865999	-9.4540005	-5.96
143	1	4	0.21855199	18.587	-8.4469995	-5.6799998
144	1	3	-0.49205801	17.483	-10.403	-4.1939998
145	1	2	0.83931601	16.450001	-9.4130001	-4.1079998
146	1	1	-0.57263601	16.145	-8.698	-5.099
147	1	5	0.331278	17.507	-11.132	-3.4460001
148	1	4	0.211541	18.511	-12.768	-5.1370001
149	1	4	0.21572401	20.091999	-13.061	-6.9619999
150	1	1	-0.53739297	20.301001	-7.4530001	-7.908
151	1	4	0.20525301	21.82	-10.361	-11.261
152	1	4	0.212862	23.243	-9.3470001	-13.059
153	1	2	-0.14111499	24.65	-5.7129998	-13.165
154	1	2	-0.089028999	25.469999	-5.1040001	-14.244
155	1	2	-0.14111499	26.193001	-5.902	-15.049
156	1	4	0.20603301	26.792999	-5.474	-15.842
157	1	2	-0.075186998	25.479	-3.632	-14.432
158	1	2	-0.17150401	25.534	-2.8069999	-13.371
159	1	2	-0.17150401	25.559	-1.342	-13.559
160	1	2	-0.058269002	25.528999	-0.80900002	-14.795
161	1	2	-0.17150401	25.461	-1.719	-15.966
162	1	2	-0.17150401	25.437	-3.046	-15.796
163	1	4	0.213249	25.379	-3.6889999	-16.666
164	1	4	0.213249	25.443001	-1.3150001	-16.969999
165	1	2	-0.060162999	25.546	0.66100001	-15
166	1	2	-0.16737901	26.346001	1.46	-14.266
167	1	2	-0.178771	26.364	2.9189999	-14.498
168	1	2	-0.22091199	25.580999	3.4590001	-15.439
169	1	2	-0.178771	24.698	2.596	-16.247999
170	1	2	-0.16737901	24.681999	1.272	-16.044001
171	1	4	0.21547601	24.016001	0.65399998	-16.634001
172	1	4	0.231718	24.062	3.036	-17.006001
173	1	4	0.234659	25.591999	4.5279999	-15.607
174	1	4	0.231718	27.01	3.5510001	-13.903
175	1	4	0.21547601	27.004	1.049	-13.511
176	1	4	0.213249	25.580999	-0.70999998	-12.679
177	1	4	0.213249	25.587	-3.201	-12.363
178	1	4	0.20603301	24.027	-5.0689998	-12.558
179	1	4	0.20603301	25.490999	-8.9720001	-13.682
180	1	4	0.212862	28.674999	-6.9499998	-15.811
181	1	4	0.20525301	30.035	-8.4560003	-17.294001
182	1	1	-0.53739297	28.671	-12.978	-17.500999
183	1	4	0.21855099	30.021999	-14.94	-19.308001
184	1	5	0.331278	30.891001	-16.365	-21.114
185	1	6	-0.43689299	32.298	-20.184	-25.924999
186	1	2	0.372132	32.167999	-18.891001	-25.424999
187	1	2	-0.24166	32.587002	-18.612	-24.183001
188	1	2	0.372132	32.453999	-17.242001	-23.642
189	1	6	-0.43689299	32.896	-16.972	-22.347
190	1	2	-0.287837	31.912001	-16.275	-24.4
191	1	2	-0.050297	31.450001	-16.580999	-25.77
192	1	2	-0.287837	31.570999	-17.820999	-26.257999
193	1	4	0.241308	31.231001	-18.042	-27.261999
194	1	4	0.238215	31.013	-15.798	-26.378
195	1	4	0.241308	31.809	-15.268	-24.017
196	1	4	0.239373	33.025002	-19.389999	-23.569
197	1	1	-0.57263601	29.528	-30.274	-50.363998
198	1	2	0.839315	28.778999	-30.802999	-49.501999
199	1	3	-0.49205801	28.471001	-30.136999	-48.271
200	1	2	0.26267201	28.775	-28.76	-47.997002
201	1	2	-0.146935	29.011999	-28.377001	-46.723999
202	1	2	-0.17116199	29.302999	-26.961	-46.452
203	1	2	0.71148902	29.586	-26.282	-45.192001
204	1	3	-0.53022599	29.792999	-24.886	-45.425999
205	1	2	0.71493798	29.618	-24.757	-46.84
206	1	2	-0.24860001	29.327	-26.063	-47.424999
207	1	2	0.111859	29.041	-26.438	-48.818001
208	1	2	-0.37717599	28.77	-27.728001	-49.088001
209	1	4	0.211541	28.518	-28.003	-50.103001
210	1	4	0.21572401	29.028999	-25.691	-49.601002
211	1	1	-0.53739297	29.653	-23.667999	-47.470001
212	1	2	0.238041	29.999001	-23.844999	-44.453999
213	1	2	-0.34424701	30.768999	-22.781	-44.738998
214	1	2	-0.15437099	30.990999	-21.724001	-43.73
215	1	2	-0.138638	30.433001	-21.816	-42.508999
216	1	2	-0.15437099	29.569	-22.983999	-42.201
217	1	2	-0.34424701	29.365999	-23.938	-43.116001
218	1	4	0.20525301	28.711	-24.766001	-42.879002
219	1	4	0.212862	29.075001	-23.059999	-41.240002
220	1	2	-0.089028999	30.665001	-20.768999	-41.480999
221	1	2	-0.14111499	30.853001	-21.107	-40.192001
222	1	2	-0.089028999	31.065001	-20.068001	-39.151001
223	1	2	-0.138638	31.232	-20.457001	-37.723999
224	1	2	-0.15437099	30.534	-21.485001	-37.203999
225	1	2	-0.34424701	30.695999	-21.865	-35.785999
226	1	2	0.238041	31.539	-21.188	-34.988998
227	1	2	-0.34424701	32.313	-20.056999	-35.554001
228	1	2	-0.15437099	32.172001	-19.715	-36.841
229	1	4	0.212862	32.77	-18.903999	-37.237999
230	1	4	0.20525301	33.018002	-19.518999	-34.935001
231	1	3	-0.53022701	31.684	-21.545	-33.604
232	1	2	0.71148902	31.885	-20.676001	-32.487
233	1	2	-0.17116199	31.982	-21.458	-31.26
234	1	2	-0.24860001	31.854	-22.74	-31.57
235	1	2	0.71493798	31.67	-22.848	-33.014
236	1	1	-0.53739297	31.568001	-23.924999	-33.66
237	1	2	0.111859	31.929001	-23.785999	-30.539
238	1	2	-0.37717599	32.120998	-23.409	-29.263
239	1	2	0.26267201	32.242001	-21.962	-28.898001
240	1	2	-0.146935	32.192001	-21.021	-29.870001
241	1	4	0.21855199	32.332001	-19.969999	-29.656
242	1	3	-0.49205801	32.479	-21.610001	-27.525
243	1	2	0.83931601	31.978001	-20.426001	-26.892
244	1	1	-0.57263601	31.124001	-19.694	-27.459
245	1	5	0.331278	32.966	-22.305	-26.915001
246	1	4	0.211541	32.182999	-24.164	-28.488001
247	1	4	0.21572401	31.836	-24.832001	-30.802
248	1	1	-0.53739297	31.924	-19.42	-32.557999
249	1	4	0.20525301	30.099001	-22.679001	-35.395
250	1	4	0.212862	29.82	-22.035	-37.801998
251	1	2	-0.14111499	31.093	-18.775	-39.52
252	1	2	-0.089028999	30.903999	-18.382	-40.939999
253	1	2	-0.14111499	30.690001	-19.336	-41.862999
254	1	4	0.20603301	30.547001	-19.065001	-42.902
255	1	2	-0.075186998	30.941999	-16.950001	-41.327
256	1	2	-0.17150401	31.862	-16.122	-40.799999
257	1	2	-0.17150401	31.909	-14.7	-41.196999
258	1	2	-0.058269002	31.033001	-14.21	-42.095001
259	1	2	-0.17150401	30.013	-15.122	-42.673
260	1	2	-0.17150401	29.969	-16.409	-42.311001
261	1	4	0.213249	29.211	-17.052	-42.740002
262	1	4	0.213249	29.302	-14.753	-43.401001
263	1	2	-0.060162999	31.063	-12.782	-42.5
264	1	2	-0.16737901	32.23	-12.144	-42.724998
265	1	2	-0.178771	32.238998	-10.727	-43.146
266	1	2	-0.22091199	31.086	-10.066	-43.304001
267	1	2	-0.178771	29.802	-10.752	-43.057999
268	1	2	-0.16737901	29.789	-12.037	-42.68
269	1	4	0.21547601	28.84	-12.522	-42.487
270	1	4	0.231718	28.871	-10.214	-43.181
271	1	4	0.234659	31.093	-9.0279999	-43.610001
272	1	4	0.231718	33.18	-10.225	-43.325001
273	1	4	0.21547601	33.175999	-12.659	-42.624001
274	1	4	0.213249	32.650002	-14.06	-40.735001
275	1	4	0.213249	32.598999	-16.487	-40.096001
276	1	4	0.20603301	31.208	-17.997999	-38.775002
277	1	4	0.20603301	30.884001	-22.150999	-39.909
278	1	4	0.212862	31.639999	-20.896	-43.985001
279	1	4	0.20525301	31.261	-22.694	-45.698002
280	1	1	-0.53739297	29.681	-26.841	-44.068001
281	1	4	0.21855099	29.003	-29.094	-45.914001
282	1	5	0.331278	28.069	-30.722	-47.502998
283	1	6	-0.43689299	24.981001	-34.893002	-51.077
284	1	2	0.372132	25.417	-33.587002	-50.873001
285	1	2	-0.24166	26.648001	-33.362999	-50.393002
286	1	2	0.372132	27.122	-31.979	-50.172001
287	1	6	-0.43689299	28.405001	-31.767	-49.672001
288	1	2	-0.287837	26.313	-30.944	-50.455002
289	1	2	-0.050297	24.955999	-31.188999	-50.985001
290	1	2	-0.287837	24.528999	-32.442001	-51.183998
291	1	4	0.241308	23.534	-32.618	-51.571999
292	1	4	0.238215	24.308001	-30.351999	-51.212002
293	1	4	0.241308	26.646999	-29.926001	-50.299
294	1	4	0.239373	27.302	-34.195	-50.164001
295	1	1	-0.57263601	3.835	-44.928001	-63.681999
296	1	2	0.839315	3.9189999	-45.264999	-62.472
297	1	3	-0.49205801	4.7080002	-44.513	-61.541
298	1	2	0.26267201	5.2719998	-43.220001	-61.816002
299	1	2	-0.146935	6.4180002	-42.855999	-61.202
300	1	2	-0.17116199	6.9770002	-41.522999	-61.476002
301	1	2	0.71148902	8.177	-40.879002	-60.953999
302	1	3	-0.53022599	8.302	-39.563999	-61.502998
303	1	2	0.71493798	7.152	-39.445	-62.345001
304	1	2	-0.24860001	6.375	-40.679001	-62.299999
305	1	2	0.111859	5.1079998	-41.028999	-62.959999
306	1	2	-0.37717599	4.5780001	-42.242001	-62.722
307	1	4	0.211541	3.6270001	-42.491001	-63.171001
308	1	4	0.21572401	4.6059999	-40.32	-63.605999
309	1	1	-0.53739297	6.835	-38.405998	-62.980999
310	1	2	0.238041	9.2810001	-38.560001	-61.181
311	1	2	-0.34424701	9.7010002	-37.686001	-62.112999
312	1	2	-0.15437099	10.721	-36.667999	-61.780998
313	1	2	-0.138638	11.249	-36.605	-60.544998
314	1	2	-0.15437099	10.771	-37.560001	-59.512001
315	1	2	-0.34424701	9.8470001	-38.479	-59.813
316	1	4	0.20525301	9.4940004	-39.146	-59.036999
317	1	4	0.212862	11.149	-37.502998	-58.499001
318	1	2	-0.089028999	12.286	-35.598999	-60.206001
319	1	2	-0.14111499	13.328	-35.929001	-59.421001
320	1	2	-0.089028999	14.361	-34.924999	-59.056999
321	1	2	-0.138638	15.486	-35.297001	-58.155998
322	1	2	-0.15437099	15.292	-36.141998	-57.125
323	1	2	-0.34424701	16.408001	-36.505001	-56.227001
324	1	2	0.238041	17.634001	-35.992001	-56.419998
325	1	2	-0.34424701	17.856001	-35.063999	-57.554001
326	1	2	-0.15437099	16.848	-34.737999	-58.373001
327	1	4	0.212862	17.042	-34.081001	-59.210999
328	1	4	0.20525301	18.844	-34.664001	-57.743
329	1	3	-0.53022701	18.716999	-36.330002	-55.536999
330	1	2	0.71148902	19.778999	-35.487	-55.085999
331	1	2	-0.17116199	20.663	-36.235001	-54.198002
332	1	2	-0.24860001	20.198999	-37.471001	-54.091
333	1	2	0.71493798	18.993999	-37.583	-54.905998
334	1	1	-0.53739297	18.322001	-38.634998	-55.077999
335	1	2	0.111859	20.893	-38.479	-53.273998
336	1	2	-0.37717599	22.011	-38.112	-52.624001
337	1	2	0.26267201	22.530001	-36.709999	-52.719002
338	1	2	-0.146935	21.885	-35.808998	-53.494999
339	1	4	0.21855199	22.259001	-34.803001	-53.634998
340	1	3	-0.49205801	23.747	-36.374001	-52.032001
341	1	2	0.83931601	24.023001	-35.092999	-51.451
342	1	1	-0.57263601	23.125	-34.217999	-51.34
343	1	5	0.331278	24.440001	-37.134998	-51.855
344	1	4	0.211541	22.539	-38.839001	-52.019001
345	1	4	0.21572401	20.514999	-39.491001	-53.201
346	1	1	-0.53739297	19.899	-34.269001	-55.377998
347	1	4	0.20525301	16.209	-37.165001	-55.393002
348	1	4	0.212862	14.313	-36.550999	-56.915001
349	1	2	-0.14111499	14.256	-33.676998	-59.549
350	1	2	-0.089028999	13.124	-33.297001	-60.431
351	1	2	-0.14111499	12.186	-34.214001	-60.728001
352	1	4	0.20603301	11.352	-33.950001	-61.367001
353	1	2	-0.075186998	13.027	-31.916	-60.965
354	1	2	-0.17150401	14.122	-31.280001	-61.421001
355	1	2	-0.17150401	14.024	-29.910999	-61.966999
356	1	2	-0.058269002	12.836	-29.278999	-62.02
357	1	2	-0.17150401	11.628	-29.976999	-61.512001
358	1	2	-0.17150401	11.718	-31.216	-61.014
359	1	4	0.213249	10.824	-31.701	-60.641998
360	1	4	0.213249	10.662	-29.492001	-61.549
361	1	2	-0.060162999	12.722	-27.900999	-62.560001
362	1	2	-0.16737901	13.398	-27.524	-63.664001
363	1	2	-0.178771	13.256	-26.153	-64.197998
364	1	2	-0.22091199	12.456	-25.274	-63.585999
365	1	2	-0.178771	11.712	-25.672001	-62.374001
366	1	2	-0.16737901	11.834	-26.914	-61.889
367	1	4	0.21547601	11.295	-27.187	-60.990002
368	1	4	0.231718	11.069	-24.957001	-61.876999
369	1	4	0.234659	12.354	-24.268999	-63.974998
370	1	4	0.231718	13.803	-25.862	-65.084999
371	1	4	0.21547601	14.038	-28.219999	-64.191002
372	1	4	0.213249	14.93	-29.424	-62.304001
373	1	4	0.213249	15.089	-31.768999	-61.417999
374	1	4	0.20603301	14.976	-32.917999	-59.268002
375	1	4	0.20603301	13.438	-36.948002	-59.073002
376	1	4	0.212862	11.056	-36	-62.563999
377	1	4	0.20525301	9.3240004	-37.731998	-63.125
378	1	1	-0.53739297	9.0100002	-41.411999	-60.174
379	1	4	0.21855099	6.9299998	-43.530998	-60.528999
380	1	5	0.331278	4.9439998	-44.978001	-60.634998
381	1	6	-0.43689299	-0.23199999	-48.528	-60.073002
382	1	2	0.372132	0.359	-47.334	-60.478001
383	1	2	-0.24166	1.554	-47.355	-61.084999
384	1	2	0.372132	2.1919999	-46.092999	-61.52
385	1	6	-0.43689299	3.4349999	-46.134998	-62.148998
386	1	2	-0.287837	1.568	-44.922001	-61.304001
387	1	2	-0.050297	0.25099999	-44.896999	-60.634998
388	1	2	-0.287837	-0.324	-46.041	-60.243
389	1	4	0.241308	-1.29	-46.019001	-59.752998
390	1	4	0.238215	-0.248	-43.952	-60.464001
391	1	4	0.241308	2.023	-43.991001	-61.617001
392	1	4	0.239373	2.059	-48.297001	-61.259998
393	1	1	-0.57263601	-24.708	-54.355999	-51.488998
394	1	2	0.839315	-23.792999	-54.666	-50.681999
395	1	3	-0.49205801	-22.495001	-54.064999	-50.759998
396	1	2	0.26267201	-22.176001	-52.924999	-51.575001
397	1	2	-0.146935	-20.922001	-52.787998	-52.056
398	1	2	-0.17116199	-20.601999	-51.608002	-52.874001
399	1	2	0.71148902	-19.347	-51.209999	-53.504002
400	1	3	-0.53022599	-19.518999	-49.966	-54.188999
401	1	2	0.71493798	-20.889	-49.638	-53.942001
402	1	2	-0.24860001	-21.511999	-50.682999	-53.136002
403	1	2	0.111859	-22.879	-50.784	-52.602001
404	1	2	-0.37717599	-23.193001	-51.854	-51.849998
405	1	4	0.211541	-24.183001	-51.914001	-51.419998
406	1	4	0.21572401	-23.607	-50.006001	-52.793999
407	1	1	-0.53739297	-21.448999	-48.575001	-54.319
408	1	2	0.238041	-18.518	-49.176998	-54.855
409	1	2	-0.34424701	-18.83	-48.438	-55.933998
410	1	2	-0.15437099	-17.794001	-47.641998	-56.625
411	1	2	-0.138638	-16.52	-47.653	-56.189999
412	1	2	-0.15437099	-16.179001	-48.457001	-54.987999
413	1	2	-0.34424701	-17.118999	-49.174	-54.362
414	1	4	0.20525301	-16.854	-49.729	-53.473
415	1	4	0.212862	-15.171	-48.448002	-54.592999
416	1	2	-0.089028999	-15.467	-46.872002	-56.887001
417	1	2	-0.14111499	-14.235	-47.387001	-57.056999
418	1	2	-0.089028999	-13.166	-46.608002	-57.734001
419	1	2	-0.138638	-11.798	-47.175999	-57.879002
420	1	2	-0.15437099	-11.259	-47.931	-56.903
421	1	2	-0.34424701	-9.8990002	-48.488998	-57.044998
422	1	2	0.238041	-9.1739998	-48.247002	-58.150002
423	1	2	-0.34424701	-9.7609997	-47.418999	-59.23
424	1	2	-0.15437099	-10.996	-46.917	-59.105999
425	1	4	0.212862	-11.414	-46.34	-59.919998
426	1	4	0.20525301	-9.2019997	-47.237	-60.139
427	1	3	-0.53022701	-7.8429999	-48.773998	-58.282001
428	1	2	0.71148902	-6.7090001	-48.155998	-58.894001
429	1	2	-0.17116199	-5.5539999	-49.042999	-58.808998
430	1	2	-0.24860001	-5.9239998	-50.153	-58.188
431	1	2	0.71493798	-7.3369999	-50.037998	-57.842999
432	1	1	-0.53739297	-8.0310001	-50.932999	-57.290001
433	1	2	0.111859	-4.9770002	-51.257	-57.967999
434	1	2	-0.37717599	-3.714	-51.109001	-58.404999
435	1	2	0.26267201	-3.279	-49.848	-59.085999
436	1	2	-0.146935	-4.177	-48.856998	-59.294998
437	1	4	0.21855199	-3.9170001	-47.955002	-59.834
438	1	3	-0.49205801	-1.927	-49.75	-59.563999
439	1	2	0.83931601	-1.164	-48.536999	-59.597
440	1	1	-0.57263601	-1.573	-47.492001	-59.025002
441	1	5	0.331278	-1.427	-50.632	-59.813999
442	1	4	0.211541	-3.0009999	-51.910999	-58.255001
443	1	4	0.21572401	-5.29	-52.166	-57.471001
444	1	1	-0.53739297	-6.7049999	-46.998001	-59.388
445	1	4	0.20525301	-9.4879999	-49.069	-56.23
446	1	4	0.212862	-11.797	-48.123001	-55.984001
447	1	2	-0.14111499	-13.455	-45.380001	-58.203999
448	1	2	-0.089028999	-14.813	-44.800999	-58.041
449	1	2	-0.14111499	-15.759	-45.513	-57.403999
450	1	4	0.20603301	-16.753	-45.102001	-57.275002
451	1	2	-0.075186998	-15.113	-43.445999	-58.569
452	1	2	-0.17150401	-14.655	-43.064999	-59.775002
453	1	2	-0.17150401	-14.966	-41.722	-60.306999
454	1	2	-0.058269002	-15.715	-40.860001	-59.594002
455	1	2	-0.17150401	-16.216	-41.278	-58.259998
456	1	2	-0.17150401	-15.932	-42.493	-57.777
457	1	4	0.213249	-16.301001	-42.771999	-56.798
458	1	4	0.213249	-16.825001	-40.605	-57.671001
459	1	2	-0.060162999	-16.031	-39.505001	-60.111
460	1	2	-0.16737901	-16.361	-39.310001	-61.403999
461	1	2	-0.178771	-16.691	-37.956001	-61.896
462	1	2	-0.22091199	-16.662001	-36.911999	-61.061001
463	1	2	-0.178771	-16.299999	-37.111	-59.643002
464	1	2	-0.16737901	-16.004	-38.337002	-59.192001
465	1	4	0.21547601	-15.724	-38.465	-58.153
466	1	4	0.231718	-16.271999	-36.264	-58.970001
467	1	4	0.234659	-16.902	-35.919998	-61.422001
468	1	4	0.231718	-16.955	-37.811001	-62.936001
469	1	4	0.21547601	-16.410999	-40.138	-62.098
470	1	4	0.213249	-14.561	-41.444	-61.271999
471	1	4	0.213249	-14.072	-43.742001	-60.387001
472	1	4	0.20603301	-12.684	-44.778	-58.667
473	1	4	0.20603301	-14.023	-48.395	-56.727001
474	1	4	0.212862	-18.076	-47.082001	-57.507
475	1	4	0.20525301	-19.836	-48.435001	-56.330002
476	1	1	-0.53739297	-18.281	-51.880001	-53.491001
477	1	4	0.21855099	-20.163	-53.533001	-51.858002
478	1	5	0.331278	-21.719999	-54.541	-50.243999
479	1	6	-0.43689299	-25.131001	-56.926998	-45.512001
480	1	2	0.372132	-24.902	-55.894001	-46.417
481	1	2	-0.24166	-24.566999	-56.179001	-47.682999
482	1	2	0.372132	-24.322001	-55.09	-48.653
483	1	6	-0.43689299	-23.975	-55.407001	-49.965
484	1	2	-0.287837	-24.437	-53.810001	-48.262001
485	1	2	-0.050297	-24.806999	-53.493	-46.866001
486	1	2	-0.287837	-25.028	-54.480999	-45.990002
487	1	4	0.241308	-25.299	-54.244999	-44.969002
488	1	4	0.238215	-24.899	-52.459999	-46.556
489	1	4	0.241308	-24.261	-53.002998	-48.960999
490	1	4	0.239373	-24.474001	-57.209999	-48.000999
491	1	1	-0.57263601	-35.583	-57.311001	-21.072001
492	1	2	0.839315	-34.416	-57.778999	-21.139
493	1	3	-0.49205801	-33.547001	-57.462002	-22.233
494	1	2	0.26267201	-33.810001	-56.438	-23.207001
495	1	2	-0.146935	-33.324001	-56.577	-24.458
496	1	2	-0.17116199	-33.582001	-55.514	-25.441999
497	1	2	0.71148902	-33.175999	-55.403	-26.839001
498	1	3	-0.53022599	-33.653	-54.172001	-27.389
499	1	2	0.71493798	-34.335999	-53.560001	-26.291
500	1	2	-0.24860001	-34.27	-54.429001	-25.120001
501	1	2	0.111859	-34.786999	-54.229	-23.757999
502	1	2	-0.37717599	-34.560001	-55.188	-22.841999
503	1	4	0.211541	-34.901001	-55.028999	-21.827999
504	1	4	0.21572401	-35.319	-53.324001	-23.495001
505	1	1	-0.53739297	-34.861	-52.417	-26.322001
506	1	2	0.238041	-33.396	-53.626999	-28.695
507	1	2	-0.34424701	-34.316002	-52.872002	-29.319
508	1	2	-0.15437099	-34.053001	-52.328999	-30.667999
509	1	2	-0.138638	-32.890999	-52.589001	-31.296
510	1	2	-0.15437099	-31.868	-53.41	-30.598
511	1	2	-0.34424701	-32.105999	-53.897999	-29.375999
512	1	4	0.20525301	-31.336	-54.469002	-28.875999
513	1	4	0.212862	-30.908001	-53.597	-31.063999
514	1	2	-0.089028999	-32.624001	-52.064999	-32.659
515	1	2	-0.14111499	-31.997	-52.827	-33.573002
516	1	2	-0.089028999	-31.704	-52.306999	-34.933998
517	1	2	-0.138638	-30.975	-53.148998	-35.921001
518	1	2	-0.15437099	-29.983	-53.970001	-35.526001
519	1	2	-0.34424701	-29.256001	-54.800999	-36.507
520	1	2	0.238041	-29.569	-54.747002	-37.813
521	1	2	-0.34424701	-30.662001	-53.848999	-38.255001
522	1	2	-0.15437099	-31.327	-53.098999	-37.366001
523	1	4	0.212862	-32.139999	-52.473	-37.709
524	1	4	0.20525301	-30.948	-53.813999	-39.298
525	1	3	-0.53022701	-28.851	-55.541	-38.771999
526	1	2	0.71148902	-28.485001	-55.188999	-40.108002
527	1	2	-0.17116199	-27.763	-56.292999	-40.731998
528	1	2	-0.24860001	-27.676001	-57.283001	-39.855999
529	1	2	0.71493798	-28.337999	-56.868	-38.624001
530	1	1	-0.53739297	-28.489	-57.584	-37.598
531	1	2	0.111859	-27.016001	-58.551998	-40.201
532	1	2	-0.37717599	-26.49	-58.681	-41.431999
533	1	2	0.26267201	-26.561001	-57.558998	-42.421001
534	1	2	-0.146935	-27.194	-56.410999	-42.084
535	1	4	0.21855199	-27.316999	-55.598999	-42.789001
536	1	3	-0.49205801	-26.013	-57.756001	-43.735001
537	1	2	0.83931601	-25.393999	-56.728001	-44.518002
538	1	1	-0.57263601	-25.117001	-55.605	-44.021
539	1	5	0.331278	-25.972	-58.73	-44.110001
540	1	4	0.211541	-26.002001	-59.608002	-41.708
541	1	4	0.21572401	-26.959	-59.362	-39.485001
542	1	1	-0.53739297	-28.714001	-54.073002	-40.640999
543	1	4	0.20525301	-28.445999	-55.428001	-36.158001
544	1	4	0.212862	-29.677	-54.018002	-34.488998
545	1	2	-0.14111499	-32.099998	-51.061001	-35.251999
546	1	2	-0.089028999	-32.807999	-50.209	-34.263
547	1	2	-0.14111499	-33.042	-50.689999	-33.028999
548	1	4	0.20603301	-33.554001	-50.080002	-32.294998
549	1	2	-0.075186998	-33.240002	-48.838001	-34.633999
550	1	2	-0.17150401	-33.789001	-48.596001	-35.838001
551	1	2	-0.17150401	-34.233002	-47.235001	-36.201
552	1	2	-0.058269002	-34.098	-46.216	-35.332001
553	1	2	-0.17150401	-33.486	-46.48	-34.006001
554	1	2	-0.17150401	-33.081001	-47.713001	-33.676998
555	1	4	0.213249	-32.631001	-47.880001	-32.707001
556	1	4	0.213249	-33.372002	-45.678001	-33.287998
557	1	2	-0.060162999	-34.532001	-44.841	-35.685001
558	1	2	-0.16737901	-35.687	-44.620998	-36.346001
559	1	2	-0.178771	-36.112999	-43.243999	-36.672001
560	1	2	-0.22091199	-35.352001	-42.202999	-36.313999
561	1	2	-0.178771	-34.084	-42.43	-35.592999
562	1	2	-0.16737901	-33.695999	-43.675999	-35.292
563	1	4	0.21547601	-32.755001	-43.827999	-34.777
564	1	4	0.231718	-33.466999	-41.587002	-35.308998
565	1	4	0.234659	-35.661999	-41.195	-36.555
566	1	4	0.231718	-37.042	-43.077999	-37.202
567	1	4	0.21547601	-36.332001	-45.442001	-36.631001
568	1	4	0.213249	-34.650002	-47.075001	-37.188
569	1	4	0.213249	-33.938	-49.396999	-36.550999
570	1	4	0.20603301	-31.865	-50.645	-36.223999
571	1	4	0.20603301	-31.729	-53.847	-33.331001
572	1	4	0.212862	-34.828999	-51.75	-31.152
573	1	4	0.20525301	-35.275002	-52.674	-28.858
574	1	1	-0.53739297	-32.541	-56.278	-27.485001
575	1	4	0.21855099	-32.763	-57.456001	-24.745001
576	1	5	0.331278	-32.709	-58.071999	-22.365
577	1	6	-0.43689299	-31.723	-59.557999	-16.320999
578	1	2	0.372132	-32.124001	-58.622002	-17.27
579	1	2	-0.24166	-32.875999	-59.008999	-18.309999
580	1	2	0.372132	-33.308998	-58.022999	-19.326
581	1	6	-0.43689299	-34.09	-58.445	-20.4
582	1	2	-0.287837	-32.945	-56.736	-19.202
583	1	2	-0.050297	-32.116001	-56.306999	-18.056
584	1	2	-0.287837	-31.726	-57.201	-17.139
585	1	4	0.241308	-31.118999	-56.883999	-16.299999
586	1	4	0.238215	-31.825001	-55.269001	-17.961
587	1	4	0.241308	-33.254002	-56.004002	-19.937
588	1	4	0.239373	-33.171001	-60.046001	-18.412001
589	1	1	-0.57263601	-20.518	-57.035	7.6550002
590	1	2	0.839315	-19.853001	-57.736	6.8470001
591	1	3	-0.49205801	-20.055	-57.638	5.4320002
592	1	2	0.26267201	-20.832001	-56.612	4.7930002
593	1	2	-0.146935	-21.455999	-56.886002	3.628