Title

882 atoms
971 bonds
1580 angles
2509 dihedrals
1560 impropers

9 atom types
13 bond types
10 angle types
14 dihedral types
3 improper types
-31.48399925 68.51600075 xlo xhi
-11.85200024 88.14799976 ylo yhi
-2.426000118 97.57399988 zlo zhi
0.0 0.0 0.0 xy xz yz

Masses

1	12.01078
2	15.99943
3	14.00672
4	1.007947
5	1.007947
6	15.99943
7	15.99943
8	1.007947
9	12.01078


Pair Coeffs

1	0.086879315	3.4806469
2	0.2102061	3.0398122
3	0.16769152	3.206876
4	0.014090815	1.1034277
5	0.015611343	2.5725815
6	0.16846514	3.0251065
7	0.20947353	2.99716
8	1.2326e-05	0.53453923
9	0.21	3.3996695

Bond Coeffs

1 harmonic	582.698766451	1.225198386222
2 harmonic	492.76746816345	1.381897776683
3 harmonic	301.15400723785	1.345741232799
4 harmonic	505.144496193	1.019481865027
5 harmonic	390.03554688505	1.390160554689
6 harmonic	360.7852444772	1.387193227181
7 harmonic	397.2545789619	1.085358495916
8 harmonic	279.1350963404	1.454628925034
9 harmonic	425.69104206635	1.362945806494
10 harmonic	385.7604595587	1.369745182308
11 harmonic	543.5267831885	0.9716763312559
12 harmonic	382.5450169811	1.379244394267
13 harmonic	602.81384337	1.196112346392


Angle Coeffs

1 harmonic	63.44422595415	115.5071327674
2 harmonic	55.42182150775	117.3465570514
3 harmonic	65.09061609600001	110.3538806181
4 harmonic	57.8982893754	126.8062420451
5 harmonic	201.41175231035	127.4691416191
6 harmonic	34.066775159195	129.1835929926
7 harmonic	14.32262199324	138.3184368373
8 harmonic	39.628116874445	129.8027304608
9 harmonic	55.07882548015	112.8714009681
10 harmonic	33.56981613361	180


Dihedral Coeffs

1 fourier 1	1.193093382682	2	180
2 fourier 1	1.532232714475	2	180
3 fourier 1	0.4860993122944	2	180
4 fourier 1	0.8916986138746	1	0
5 fourier 1	1.809047390003	2	180
6 fourier 1	-0.04816277792592	1	0
7 fourier 1	2.779853741805	2	180
8 fourier 1	3.661930099076	2	180
9 fourier 1	0.9974165607242	2	180
10 fourier 1	1.57666786751	2	180
11 fourier 1	1.163235555439	2	180
12 fourier 1	0.8283030590042	2	180
13 fourier 1	1.550515418264	2	180
14 fourier 1	0	1	0


Improper Coeffs

1 0.3333333333333333	-1	2
2 3.5	-1	2
3 0.3666666666666667	-1	2


Atoms

1	1	1	0.83923298	13.077	-4.5650001	-0.69999999
2	1	2	-0.57298601	12.633	-5.4590001	-1.4680001
3	1	3	-0.49214301	12.199	-3.6300001	-0.059
4	1	4	0.33118901	12.64	-2.777	0.354
5	1	1	0.26249799	10.764	-3.714	-0.079999998
6	1	1	-0.377352	10.095	-4.967	-0.063000001
7	1	5	0.211375	10.654	-5.8909998	-0.016000001
8	1	1	0.111661	8.6899996	-5.0320001	-0.075999998
9	1	5	0.215553	8.1780005	-5.9850001	-0.067000002
10	1	1	-0.248713	7.9780002	-3.8369999	-0.088
11	1	1	-0.17128301	8.618	-2.618	-0.071999997
12	1	1	-0.14713199	10.007	-2.523	-0.061999999
13	1	5	0.218383	10.49	-1.554	-0.055
14	1	1	0.71142298	7.5929999	-1.579	-0.071999997
15	1	2	-0.537826	7.8109999	-0.338	-0.1
16	1	3	-0.53029102	6.2909999	-2.1760001	-0.089000002
17	1	1	0.237884	5.0180001	-1.508	-0.093999997
18	1	1	-0.344419	3.951	-2.017	-0.85000002
19	1	5	0.205088	4.0819998	-2.9030001	-1.456
20	1	1	-0.154605	2.7130001	-1.369	-0.85399997
21	1	5	0.212713	1.914	-1.773	-1.464
22	1	1	-0.138794	2.516	-0.199	-0.1
23	1	1	-0.089170001	1.197	0.48500001	-0.094999999
24	1	1	-0.141339	1.124	1.887	-0.14399999
25	1	5	0.20589299	2.036	2.47	-0.19400001
26	1	1	-0.089170001	-0.117	2.5439999	-0.126
27	1	1	-0.075343996	-0.182	4.026	-0.163
28	1	1	-0.17172199	-1.044	4.7220001	0.70200002
29	1	5	0.213099	-1.665	4.1859999	1.409
30	1	1	-0.17172199	-1.097	6.118	0.676
31	1	5	0.213099	-1.777	6.6279998	1.347
32	1	1	-0.058417998	-0.29499999	6.8470001	-0.21799999
33	1	1	-0.060306001	-0.34900001	8.3299999	-0.241
34	1	1	-0.167614	-0.39700001	9.0609999	0.95999998
35	1	5	0.21533	-0.37799999	8.5539999	1.916
36	1	1	-0.178931	-0.44299999	10.458	0.93699998
37	1	5	0.231536	-0.46900001	11.014	1.8660001
38	1	1	-0.22109801	-0.44600001	11.139	-0.28200001
39	1	5	0.234487	-0.484	12.221	-0.296
40	1	1	-0.178931	-0.40000001	10.425	-1.4809999
41	1	5	0.231537	-0.40599999	10.953	-2.4260001
42	1	1	-0.167614	-0.35100001	9.0270004	-1.4630001
43	1	5	0.21533	-0.33399999	8.4919996	-2.4030001
44	1	1	-0.17172199	0.56	6.1500001	-1.0880001
45	1	5	0.213099	1.197	6.6859999	-1.781
46	1	1	-0.17172199	0.62	4.7540002	-1.058
47	1	5	0.213099	1.283	4.2410002	-1.744
48	1	1	-0.141339	-1.296	1.783	-0.068999998
49	1	5	0.20589299	-2.256	2.286	-0.057
50	1	1	-0.089170001	-1.244	0.38	-0.029999999
51	1	1	-0.138794	-2.4960001	-0.41600001	0.017000001
52	1	1	-0.154605	-3.5940001	-0.068999998	-0.78899997
53	1	5	0.212713	-3.5369999	0.773	-1.467
54	1	1	-0.344419	-4.7709999	-0.82200003	-0.74699998
55	1	5	0.205088	-5.5929999	-0.54699999	-1.3940001
56	1	1	0.237884	-4.875	-1.9349999	0.102
57	1	3	-0.53029102	-6.0879998	-2.7060001	0.149
58	1	1	0.71487302	-6.2210002	-4.1230001	0.31400001
59	1	2	-0.537826	-5.2529998	-4.9260001	0.40099999
60	1	1	-0.248713	-7.631	-4.4970002	0.308
61	1	1	0.111662	-8.243	-5.7410002	0.43799999
62	1	5	0.215553	-7.6570001	-6.6399999	0.57999998
63	1	1	-0.377352	-9.6470003	-5.7969999	0.39300001
64	1	5	0.211375	-10.133	-6.7529998	0.53200001
65	1	1	0.26249799	-10.414	-4.6170001	0.205
66	1	3	-0.49214301	-11.851	-4.6570001	0.176
67	1	4	0.33118901	-12.377	-3.819	0.509
68	1	1	0.83923298	-12.616	-5.7220001	-0.40099999
69	1	2	-0.57298601	-12.067	-6.6269999	-1.082
70	1	1	-0.14713199	-9.7600002	-3.372	0.097999997
71	1	5	0.218383	-10.323	-2.4560001	-0.029999999
72	1	1	-0.17128301	-8.368	-3.346	0.14300001
73	1	1	0.71142298	-7.4349999	-2.23	0.045000002
74	1	2	-0.537826	-7.757	-1.016	-0.066
75	1	1	-0.344419	-3.78	-2.2820001	0.90899998
76	1	5	0.205088	-3.8429999	-3.118	1.592
77	1	1	-0.154605	-2.602	-1.531	0.866
78	1	5	0.212713	-1.78	-1.8099999	1.5140001
79	1	1	-0.141339	0.0070000002	-0.25999999	-0.037
80	1	5	0.20589299	0.055	-1.341	0.003
81	1	1	-0.154605	3.5880001	0.308	0.65499997
82	1	5	0.212713	3.4619999	1.193	1.2640001
83	1	1	-0.344419	4.8260002	-0.34	0.65700001
84	1	5	0.205088	5.6269999	0.057999998	1.266
85	1	1	0.71487302	6.5419998	-3.586	-0.096000001
86	1	2	-0.537826	5.6459999	-4.4710002	-0.067000002
87	1	6	-0.43698299	-13.657	-5.73	-0.28600001
88	1	1	0.371932	-14.404	-4.5549998	-0.33700001
89	1	1	-0.28806099	-15.793	-4.612	-0.178
90	1	1	-0.050480001	-16.554001	-3.4400001	-0.226
91	1	1	-0.28806099	-15.929	-2.207	-0.433
92	1	1	0.37193099	-14.537	-2.1429999	-0.59299999
93	1	6	-0.43698299	-13.901	-0.921	-0.80000001
94	1	1	-0.241853	-13.777	-3.3180001	-0.54400003
95	1	5	0.24113099	-16.282	-5.5650001	-0.017000001
96	1	5	0.238039	-17.628	-3.4879999	-0.103
97	1	5	0.24113099	-16.525	-1.304	-0.47
98	1	5	0.239216	-12.702	-3.2679999	-0.66799998
99	1	1	0.83923298	-14.441	-0.023	-0.84200001
100	1	2	-0.57298601	-15.357	0.103	-1.698
101	1	3	-0.49214301	-14.094	1.051	0.041000001
102	1	4	0.33118901	-13.18	0.972	0.542
103	1	1	0.26249799	-14.835	2.277	0.163
104	1	1	-0.377352	-16.25	2.303	0.039999999
105	1	5	0.211375	-16.805	1.392	-0.133
106	1	1	0.111661	-16.961	3.5090001	0.171
107	1	5	0.215553	-18.038	3.5320001	0.074000001
108	1	1	-0.248713	-16.240999	4.6690001	0.44
109	1	1	-0.17128301	-14.873	4.6490002	0.59299999
110	1	1	-0.14713199	-14.142	3.47	0.46599999
111	1	5	0.218383	-13.067	3.477	0.58600003
112	1	1	0.71142298	-14.438	6.0110002	0.88200003
113	1	2	-0.537826	-13.243	6.3779998	1.0420001
114	1	3	-0.53029102	-15.569	6.8899999	0.90700001
115	1	1	0.237884	-15.575	8.3059998	1.155
116	1	1	-0.344419	-16.444	9.1490002	0.44600001
117	1	5	0.205088	-17.1	8.7449999	-0.31299999
118	1	1	-0.154605	-16.452	10.525	0.68699998
119	1	5	0.212713	-17.118	11.153	0.109
120	1	1	-0.138794	-15.591	11.087	1.646
121	1	1	-0.089170001	-15.605	12.549	1.913
122	1	1	-0.141339	-14.402	13.246	2.1110001
123	1	5	0.20589299	-13.46	12.715	2.0610001
124	1	1	-0.089170001	-14.406	14.626	2.3759999
125	1	1	-0.075343996	-13.13	15.35	2.5999999
126	1	1	-0.17172199	-13.007	16.264	3.6589999
127	1	5	0.213099	-13.839	16.445999	4.329
128	1	1	-0.17172199	-11.803	16.938	3.8770001
129	1	5	0.213099	-11.739	17.645	4.6950002
130	1	1	-0.058417998	-10.698	16.716	3.0380001
131	1	1	-0.060306001	-9.4180002	17.427999	3.273
132	1	1	-0.167614	-8.9180002	17.584999	4.579
133	1	5	0.21533	-9.4510002	17.174999	5.427
134	1	1	-0.178931	-7.7090001	18.253	4.7989998
135	1	5	0.231536	-7.3260002	18.360001	5.8070002
136	1	1	-0.22109801	-6.9889998	18.773001	3.7219999
137	1	5	0.234487	-6.0549998	19.291	3.8970001
138	1	1	-0.178931	-7.4759998	18.625999	2.421
139	1	5	0.231537	-6.9190001	19.032	1.586
140	1	1	-0.167614	-8.6829996	17.955999	2.1960001
141	1	5	0.21533	-9.0509996	17.868	1.182
142	1	1	-0.17172199	-10.824	15.808	1.973
143	1	5	0.213099	-9.9870005	15.61	1.316
144	1	1	-0.17172199	-12.027	15.128	1.7589999
145	1	5	0.213099	-12.098	14.437	0.92699999
146	1	1	-0.141339	-15.63	15.311	2.4319999
147	1	5	0.20589299	-15.638	16.375	2.635
148	1	1	-0.089170001	-16.843	14.633	2.2260001
149	1	1	-0.138794	-18.131001	15.369	2.273
150	1	1	-0.154605	-18.257999	16.629	1.664
151	1	5	0.212713	-17.423	17.073	1.137
152	1	1	-0.344419	-19.473	17.319	1.707
153	1	5	0.205088	-19.549	18.277	1.21
154	1	1	0.237884	-20.584	16.764999	2.3599999
155	1	3	-0.53029102	-21.833	17.478001	2.4070001
156	1	1	0.71487302	-23.156	16.933001	2.3429999
157	1	2	-0.537826	-23.419001	15.711	2.1849999
158	1	1	-0.248713	-24.142	18.004999	2.428
159	1	1	0.111662	-25.534	17.965	2.4100001
160	1	5	0.215553	-26.065001	17.025	2.332
161	1	1	-0.377352	-26.233	19.181	2.5109999
162	1	5	0.211375	-27.313999	19.156	2.5380001
163	1	1	0.26249799	-25.535	20.413	2.612
164	1	3	-0.49214301	-26.238001	21.660999	2.734
165	1	4	0.33118901	-25.780001	22.438999	3.2609999
166	1	1	0.83923298	-27.473	21.959999	2.072
167	1	2	-0.57298601	-27.943001	21.194	1.191
168	1	1	-0.14713199	-24.125	20.413	2.6470001
169	1	5	0.218383	-23.57	21.337999	2.74
170	1	1	-0.17128301	-23.458	19.194	2.543
171	1	1	0.71142298	-22.032	18.889999	2.5350001
172	1	2	-0.537826	-21.104	19.733999	2.668
173	1	1	-0.344419	-20.459	15.507	2.97
174	1	5	0.205088	-21.292999	15.07	3.5050001
175	1	1	-0.154605	-19.246	14.816	2.928
176	1	5	0.212713	-19.173	13.856	3.424
177	1	1	-0.141339	-16.820999	13.251	1.973
178	1	5	0.20589299	-17.753	12.72	1.823
179	1	1	-0.154605	-14.721	10.24	2.3540001
180	1	5	0.212713	-14.063	10.637	3.115
181	1	1	-0.344419	-14.713	8.8640003	2.1099999
182	1	5	0.205088	-14.051	8.2309999	2.6860001
183	1	1	0.71487302	-16.690001	6.0430002	0.63300002
184	1	2	-0.537826	-17.889	6.4289999	0.60900003
185	1	6	-0.43698299	-27.976999	22.849001	2.2969999
186	1	1	0.371932	-27.288	24.038	2.53
187	1	1	-0.28806099	-28.002001	25.204	2.8280001
188	1	1	-0.050480001	-27.322001	26.402	3.063
189	1	1	-0.28806099	-25.926001	26.440001	3.0020001
190	1	1	0.37193099	-25.204	25.275	2.7030001
191	1	6	-0.43698299	-23.813	25.298	2.6389999
192	1	1	-0.241853	-25.886999	24.076	2.4679999
193	1	5	0.24113099	-29.083	25.18	2.8770001
194	1	5	0.238039	-27.877001	27.302999	3.2939999
195	1	5	0.24113099	-25.406	27.372	3.1849999
196	1	5	0.239216	-25.329	23.176001	2.2379999
197	1	1	0.83923298	-23.271999	26.179001	2.8099999
198	1	2	-0.57298601	-23.502001	27.190001	2.0940001
199	1	3	-0.49214301	-22.254	26.198	3.819
200	1	4	0.33118901	-21.947001	25.273001	4.1960001
201	1	1	0.26249799	-21.534	27.374001	4.2290001
202	1	1	-0.377352	-22.16	28.649	4.2680001
203	1	5	0.211375	-23.202	28.761	4.0050001
204	1	1	0.111661	-21.445	29.788	4.6789999
205	1	5	0.215553	-21.917	30.761	4.7059999
206	1	1	-0.248713	-20.115999	29.625999	5.0609999
207	1	1	-0.17128301	-19.511	28.389	5.0570002
208	1	1	-0.14713199	-20.194	27.243999	4.652
209	1	5	0.218383	-19.698	26.282	4.6529999
210	1	1	0.71142298	-18.139999	28.563999	5.5240002
211	1	2	-0.537826	-17.275999	27.65	5.612
212	1	3	-0.53029102	-17.896999	29.944	5.822
213	1	1	0.237884	-16.681	30.537001	6.3070002
214	1	1	-0.344419	-16.274	31.799999	5.8509998
215	1	5	0.205088	-16.858999	32.328999	5.1110001
216	1	1	-0.154605	-15.093	32.377998	6.322
217	1	5	0.212713	-14.793	33.344002	5.9359999
218	1	1	-0.138794	-14.294	31.704	7.263
219	1	1	-0.089170001	-13.043	32.320999	7.7740002
220	1	1	-0.141339	-11.888	31.542	7.9549999
221	1	5	0.20589299	-11.911	30.486	7.7119999
222	1	1	-0.089170001	-10.704	32.112999	8.4499998
223	1	1	-0.075343996	-9.4960003	31.277	8.6520004
224	1	1	-0.17172199	-8.7410002	31.389999	9.8310003
225	1	5	0.213099	-9.0360003	32.084	10.609
226	1	1	-0.17172199	-7.6079998	30.594999	10.027
227	1	5	0.213099	-7.04	30.711	10.942
228	1	1	-0.058417998	-7.204	29.674	9.0459995
229	1	1	-0.060306001	-6.0040002	28.827	9.2580004
230	1	1	-0.167614	-5.7649999	28.228001	10.508
231	1	5	0.21533	-6.4590001	28.364	11.327
232	1	1	-0.178931	-4.6360002	27.426001	10.705
233	1	5	0.231536	-4.4640002	26.961	11.668
234	1	1	-0.22109801	-3.7349999	27.216	9.6590004
235	1	5	0.234487	-2.862	26.596001	9.816
236	1	1	-0.178931	-3.961	27.806	8.4139996
237	1	5	0.231537	-3.2609999	27.645	7.6040001
238	1	1	-0.167614	-5.0900002	28.606001	8.2119999
239	1	5	0.21533	-5.2379999	29.068001	7.244
240	1	1	-0.17172199	-7.954	29.566999	7.8629999
241	1	5	0.213099	-7.6719999	28.858999	7.0939999
242	1	1	-0.17172199	-9.092	30.357	7.6700001
243	1	5	0.213099	-9.6479998	30.259001	6.7449999
244	1	1	-0.141339	-10.679	33.483002	8.7550001
245	1	5	0.20589299	-9.7670002	33.929001	9.1359997
246	1	1	-0.089170001	-11.819	34.282001	8.5710001
247	1	1	-0.138794	-11.779	35.733002	8.8839998
248	1	1	-0.154605	-10.669	36.513	8.5150003
249	1	5	0.212713	-9.8360004	36.07	7.9829998
250	1	1	-0.344419	-10.633	37.879002	8.8079996
251	1	5	0.205088	-9.7779999	38.459999	8.493
252	1	1	0.237884	-11.704	38.492001	9.4750004
253	1	3	-0.53029102	-11.665	39.897999	9.7799997
254	1	1	0.71487302	-12.755	40.827999	9.7690001
255	1	2	-0.537826	-13.936	40.542	9.4359999
256	1	1	-0.248713	-12.281	42.155998	10.143
257	1	1	0.111662	-12.964	43.362999	10.272
258	1	5	0.215553	-14.029	43.424	10.094
259	1	1	-0.377352	-12.232	44.500999	10.654
260	1	5	0.211375	-12.76	45.433998	10.794
261	1	1	0.26249799	-10.833	44.419998	10.886
262	1	3	-0.49214301	-10.076	45.570999	11.295
263	1	4	0.33118901	-9.2329998	45.424	11.893
264	1	1	0.83923298	-10.324	46.904999	10.832
265	1	2	-0.57298601	-11.127	47.131001	9.8909998
266	1	1	-0.14713199	-10.179	43.175999	10.766
267	1	5	0.218383	-9.1169996	43.084999	10.953
268	1	1	-0.17128301	-10.928	42.066002	10.383
269	1	1	0.71142298	-10.529	40.68	10.167
270	1	2	-0.537826	-9.3690004	40.217999	10.339
271	1	1	-0.344419	-12.813	37.715	9.8459997
272	1	5	0.205088	-13.64	38.157001	10.386
273	1	1	-0.154605	-12.85	36.348999	9.5530005
274	1	5	0.212713	-13.709	35.77	9.8669996
275	1	1	-0.141339	-12.998	33.691002	8.0860004
276	1	5	0.20589299	-13.885	34.299	7.9510002
277	1	1	-0.154605	-14.704	30.438	7.7160001
278	1	5	0.212713	-14.124	29.903999	8.4569998
279	1	1	-0.344419	-15.885	29.861	7.243
280	1	5	0.205088	-16.190001	28.896	7.6269999
281	1	1	0.71487302	-19.138	30.599001	5.533
282	1	2	-0.537826	-19.355	31.827	5.7069998
283	1	6	-0.43698299	-9.7989998	47.705002	11.26
284	1	1	0.371932	-8.4569998	47.588001	11.614
285	1	1	-0.28806099	-7.7950001	48.682999	12.183
286	1	1	-0.050480001	-6.448	48.578999	12.543
287	1	1	-0.28806099	-5.7579999	47.381001	12.336
288	1	1	0.37193099	-6.415	46.280998	11.766
289	1	6	-0.43698299	-5.7389998	45.081001	11.554
290	1	1	-0.241853	-7.7639999	46.387001	11.406
291	1	5	0.24113099	-8.3249998	49.612999	12.345
292	1	5	0.238039	-5.9390001	49.426998	12.982
293	1	5	0.24113099	-4.7150002	47.307999	12.617
294	1	5	0.239216	-8.2709999	45.536999	10.967
295	1	1	0.83923298	-4.73	44.969002	11.812
296	1	2	-0.57298601	-3.8770001	45.748001	11.308
297	1	3	-0.49214301	-4.3400002	43.907001	12.692
298	1	4	0.33118901	-5.0479999	43.159	12.87
299	1	1	0.26249799	-3.0120001	43.727001	13.215
300	1	1	-0.377352	-2.187	44.838001	13.538
301	1	5	0.211375	-2.549	45.848	13.414
302	1	1	0.111661	-0.89399999	44.645	14.056
303	1	5	0.215553	-0.26100001	45.488998	14.3
304	1	1	-0.248713	-0.45500001	43.34	14.257
305	1	1	-0.17128301	-1.2589999	42.257999	13.976
306	1	1	-0.14713199	-2.543	42.417999	13.46
307	1	5	0.218383	-3.1570001	41.554001	13.242
308	1	1	0.71142298	-0.51300001	41.050999	14.313
309	1	2	-0.537826	-0.92199999	39.869999	14.149
310	1	3	-0.53029102	0.78299999	41.401001	14.813
311	1	1	0.237884	1.823	40.512001	15.255
312	1	1	-0.344419	3.168	40.798	14.978
313	1	5	0.205088	3.4349999	41.678001	14.408
314	1	1	-0.154605	4.1799998	39.936001	15.409
315	1	5	0.212713	5.2080002	40.172001	15.162
316	1	1	-0.138794	3.8659999	38.769001	16.128
317	1	1	-0.089170001	4.941	37.855999	16.596001
318	1	1	-0.141339	4.776	36.464001	16.514
319	1	5	0.20589299	3.862	36.056	16.099001
320	1	1	-0.089170001	5.7810001	35.591999	16.966
321	1	1	-0.075343996	5.5900002	34.123001	16.889
322	1	1	-0.17172199	5.9229999	33.304001	17.98
323	1	5	0.213099	6.316	33.735001	18.893
324	1	1	-0.17172199	5.7329998	31.921	17.913
325	1	5	0.213099	6.007	31.313	18.766001
326	1	1	-0.058417998	5.211	31.327999	16.750999
327	1	1	-0.060306001	5.0040002	29.860001	16.683001
328	1	1	-0.167614	4.4640002	29.163	17.778999
329	1	5	0.21533	4.178	29.688999	18.681
330	1	1	-0.178931	4.2659998	27.781	17.711
331	1	5	0.231536	3.8410001	27.253	18.556
332	1	1	-0.22109801	4.6059999	27.08	16.552999
333	1	5	0.234487	4.4530001	26.009001	16.504999
334	1	1	-0.178931	5.1440001	27.76	15.459
335	1	5	0.231537	5.4109998	27.216	14.561
336	1	1	-0.167614	5.342	29.143	15.52
337	1	5	0.21533	5.776	29.649	14.667
338	1	1	-0.17172199	4.8850002	32.146999	15.657
339	1	5	0.213099	4.4720001	31.718	14.752
340	1	1	-0.17172199	5.0679998	33.530998	15.726
341	1	5	0.213099	4.8150001	34.138	14.865
342	1	1	-0.141339	6.9660001	36.126999	17.495001
343	1	5	0.20589299	7.7449999	35.459	17.844
344	1	1	-0.089170001	7.1550002	37.516998	17.576
345	1	1	-0.138794	8.4169998	38.071999	18.125
346	1	1	-0.154605	9.6569996	37.511002	17.775
347	1	5	0.212713	9.71	36.675999	17.087
348	1	1	-0.344419	10.845	38.036999	18.290001
349	1	5	0.205088	11.787	37.601002	17.986
350	1	1	0.237884	10.818	39.132999	19.165001
351	1	3	-0.53029102	12.041	39.672001	19.698
352	1	1	0.71487302	12.351	41.044998	19.966
353	1	2	-0.537826	11.582	42.013	19.719999
354	1	1	-0.248713	13.702	41.155998	20.504999
355	1	1	0.111662	14.431	42.27	20.912001
356	1	5	0.215553	14.005	43.264	20.865
357	1	1	-0.377352	15.734	42.068001	21.399
358	1	5	0.211375	16.294001	42.923	21.754
359	1	1	0.26249799	16.292	40.763	21.459
360	1	3	-0.49214301	17.615999	40.540001	21.973
361	1	4	0.33118901	17.82	39.629002	22.441
362	1	1	0.83923298	18.719	41.432999	21.774
363	1	2	-0.57298601	18.636999	42.404999	20.979
364	1	1	-0.14713199	15.516	39.655998	21.058001
365	1	5	0.218383	15.912	38.650002	21.108999
366	1	1	-0.17128301	14.229	39.886002	20.577
367	1	1	0.71142298	13.219	38.956001	20.086
368	1	2	-0.537826	13.337	37.702	20.048
369	1	1	-0.344419	9.5799999	39.695	19.517
370	1	5	0.205088	9.5290003	40.522999	20.212
371	1	1	-0.154605	8.3920002	39.169998	19.002001
372	1	5	0.212713	7.4510002	39.611	19.306
373	1	1	-0.141339	6.1339998	38.373001	17.129999
374	1	5	0.20589299	6.2680001	39.445999	17.198
375	1	1	-0.154605	2.517	38.485001	16.402
376	1	5	0.212713	2.244	37.606998	16.973
377	1	1	-0.344419	1.506	39.347	15.969
378	1	5	0.205088	0.47799999	39.118	16.214001
379	1	1	0.71487302	0.80900002	42.832001	14.777
380	1	2	-0.537826	1.77	43.539001	15.18
381	1	6	-0.43698299	19.622999	41.254002	22.271
382	1	1	0.371932	20.112	39.962002	22.451
383	1	1	-0.28806099	21.325001	39.769001	23.121
384	1	1	-0.050480001	21.826	38.477001	23.308001
385	1	1	-0.28806099	21.115999	37.374001	22.826
386	1	1	0.37193099	19.899	37.560001	22.153
387	1	6	-0.43698299	19.181999	36.470001	21.667999
388	1	1	-0.241853	19.4	38.855	21.966999
389	1	5	0.24113099	21.879	40.619999	23.497
390	1	5	0.238039	22.764	38.332001	23.827
391	1	5	0.24113099	21.51	36.376999	22.975
392	1	5	0.239216	18.459999	38.998001	21.448
393	1	1	0.83923298	19.528	35.487999	21.790001
394	1	2	-0.57298601	20.660999	35.174999	21.334999
395	1	3	-0.49214301	18.688	34.518002	22.427999
396	1	4	0.33118901	17.683001	34.773998	22.552999
397	1	1	0.26249799	19.098	33.18	22.764
398	1	1	-0.377352	20.426001	32.894001	23.179001
399	1	5	0.211375	21.158001	33.683998	23.268999
400	1	1	0.111661	20.808001	31.583	23.511999
401	1	5	0.215553	21.82	31.361	23.825001
402	1	1	-0.248713	19.846001	30.580999	23.438
403	1	1	-0.17128301	18.548	30.854	23.068001
404	1	1	-0.14713199	18.141001	32.141998	22.73
405	1	5	0.218383	17.117001	32.334	22.437
406	1	1	0.71142298	17.801001	29.601	23.110001
407	1	2	-0.537826	16.589001	29.462	22.792999
408	1	3	-0.53029102	18.662001	28.532	23.517
409	1	1	0.237884	18.322001	27.145	23.684999
410	1	1	-0.344419	19.229	26.139999	23.315001
411	1	5	0.205088	20.184	26.398001	22.877001
412	1	1	-0.154605	18.9	24.792	23.479
413	1	5	0.212713	19.611	24.039	23.165001
414	1	1	-0.138794	17.656	24.421	24.018999
415	1	1	-0.089170001	17.308001	22.989	24.204
416	1	1	-0.141339	16.016001	22.527	23.905001
417	1	5	0.20589299	15.273	23.219999	23.528999
418	1	1	-0.089170001	15.673	21.177	24.089001
419	1	1	-0.075343996	14.301	20.704	23.785
420	1	1	-0.17172199	13.626	19.854	24.677999
421	1	5	0.213099	14.097	19.541	25.601
422	1	1	-0.17172199	12.329	19.416	24.398001
423	1	5	0.213099	11.837	18.754	25.099001
424	1	1	-0.058417998	11.681	19.813999	23.216
425	1	1	-0.060306001	10.301	19.354	22.922001
426	1	1	-0.167614	9.3269997	19.323999	23.936001
427	1	5	0.21533	9.5649996	19.650999	24.940001
428	1	1	-0.178931	8.026	18.893999	23.657
429	1	5	0.231536	7.2800002	18.882999	24.441
430	1	1	-0.22109801	7.6859999	18.486	22.365999
431	1	5	0.234487	6.678	18.150999	22.153999
432	1	1	-0.178931	8.6440001	18.509001	21.351
433	1	5	0.231537	8.3809996	18.190001	20.35
434	1	1	-0.167614	9.9460001	18.941999	21.625
435	1	5	0.21533	10.678	18.936001	20.827999
436	1	1	-0.17172199	12.359	20.658001	22.319
437	1	5	0.213099	11.88	20.988001	21.406
438	1	1	-0.17172199	13.654	21.101999	22.603001
439	1	5	0.213099	14.155	21.746	21.891001
440	1	1	-0.141339	16.643	20.282	24.568001
441	1	5	0.20589299	16.382999	19.24	24.711
442	1	1	-0.089170001	17.944	20.722	24.863001
443	1	1	-0.138794	18.966	19.764999	25.357
444	1	1	-0.154605	19.086	18.488001	24.782
445	1	5	0.212713	18.445999	18.190001	23.961
446	1	1	-0.344419	20.051001	17.589001	25.246
447	1	5	0.205088	20.136999	16.622	24.771
448	1	1	0.237884	20.914	17.948	26.292999
449	1	3	-0.53029102	21.903999	17.021	26.771999
450	1	1	0.71487302	23.229	17.313999	27.233999
451	1	2	-0.537826	23.745001	18.462999	27.242001
452	1	1	-0.248713	23.902	16.083	27.632999
453	1	1	0.111662	25.18	15.868	28.141001
454	1	5	0.215553	25.860001	16.693001	28.309999
455	1	1	-0.377352	25.561001	14.549	28.441
456	1	5	0.211375	26.538	14.376	28.872
457	1	1	0.26249799	24.669001	13.467	28.216
458	1	3	-0.49214301	25.039	12.115	28.535999
459	1	4	0.33118901	24.285999	11.448	28.816999
460	1	1	0.83923298	26.358999	11.58	28.372
461	1	2	-0.57298601	27.254999	12.225	27.767
462	1	1	-0.14713199	23.374001	13.725	27.719999
463	1	5	0.218383	22.67	12.919	27.556
464	1	1	-0.17128301	23.024	15.041	27.429001
465	1	1	0.71142298	21.785	15.6	26.900999
466	1	2	-0.537826	20.742001	14.943	26.638
467	1	1	-0.344419	20.794001	19.223	26.868999
468	1	5	0.205088	21.429001	19.514999	27.695999
469	1	1	-0.154605	19.830999	20.122999	26.406
470	1	5	0.212713	19.747999	21.091999	26.881001
471	1	1	-0.141339	18.264999	22.077999	24.684
472	1	5	0.20589299	19.264	22.426001	24.919001
473	1	1	-0.154605	16.749001	25.43	24.386999
474	1	5	0.212713	15.794	25.177999	24.827
475	1	1	-0.344419	17.079	26.778	24.221001
476	1	5	0.205088	16.372999	27.535	24.535
477	1	1	0.71487302	19.936001	29.153	23.722
478	1	2	-0.537826	20.965	28.554001	24.132
479	1	6	-0.43698299	26.573	10.619	28.729
480	1	1	0.371932	25.646999	9.5830002	28.632
481	1	1	-0.28806099	25.976999	8.3140001	29.122999
482	1	1	-0.050480001	25.056	7.2659998	29.031
483	1	1	-0.28806099	23.802999	7.4819999	28.448999
484	1	1	0.37193099	23.466999	8.7510004	27.955
485	1	6	-0.43698299	22.223	8.9790001	27.372999
486	1	1	-0.241853	24.391001	9.7989998	28.048
487	1	5	0.24113099	26.945	8.1409998	29.573999
488	1	5	0.238039	25.313999	6.2859998	29.410999
489	1	5	0.24113099	23.096001	6.665	28.381001
490	1	5	0.239216	24.131001	10.779	27.666
491	1	1	0.83923298	21.51	8.2159996	27.288
492	1	2	-0.57298601	21.809	7.1630001	26.665001
493	1	3	-0.49214301	20.201	8.4090004	27.84
494	1	4	0.33118901	19.945	9.3839998	28.115999
495	1	1	0.26249799	19.183001	7.3940001	27.896
496	1	1	-0.377352	19.509001	6.0279999	28.108
497	1	5	0.211375	20.535999	5.7220001	28.25
498	1	1	0.111661	18.502001	5.0500002	28.169001
499	1	5	0.215553	18.747	4.0079999	28.327
500	1	1	-0.248713	17.179001	5.461	28.032
501	1	1	-0.17128301	16.851	6.7870002	27.858
502	1	1	-0.14713199	17.827999	7.777	27.792
503	1	5	0.218383	17.548	8.8129997	27.65
504	1	1	0.71142298	15.398	6.8759999	27.768999
505	1	2	-0.537826	14.742	7.934	27.568001
506	1	3	-0.53029102	14.819	5.572	27.891001
507	1	1	0.237884	13.424	5.223	27.856001
508	1	1	-0.344419	13.002	4.0440001	27.224001
509	1	5	0.205088	13.718	3.398	26.733999
510	1	1	-0.154605	11.647	3.7030001	27.191
511	1	5	0.212713	11.348	2.7980001	26.677
512	1	1	-0.138794	10.687	4.5339999	27.792999
513	1	1	-0.089170001	9.2469997	4.1690001	27.768999
514	1	1	-0.141339	8.2679996	5.1500001	27.540001
515	1	5	0.20589299	8.5679998	6.177	27.371
516	1	1	-0.089170001	6.9039998	4.8169999	27.528
517	1	1	-0.075343996	5.8779998	5.8639998	27.299999
518	1	1	-0.17172199	4.7270002	5.9200001	28.104
519	1	5	0.213099	4.579	5.204	28.903
520	1	1	-0.17172199	3.7650001	6.9130001	27.896999
521	1	5	0.213099	2.8840001	6.9260001	28.525
522	1	1	-0.058417998	3.9319999	7.8670001	26.879
523	1	1	-0.060306001	2.9130001	8.9239998	26.664
524	1	1	-0.167614	2.3299999	9.5869999	27.759001
525	1	5	0.21533	2.628	9.3479996	28.771999
526	1	1	-0.178931	1.373	10.586	27.555
527	1	5	0.231536	0.93699998	11.099	28.403
528	1	1	-0.22109801	0.986	10.931	26.257999
529	1	5	0.234487	0.243	11.703	26.104
530	1	1	-0.178931	1.5549999	10.278	25.163
531	1	5	0.231537	1.252	10.543	24.158001
532	1	1	-0.167614	2.5150001	9.2799997	25.362
533	1	5	0.21533	2.9319999	8.7749996	24.5
534	1	1	-0.17172199	5.079	7.8049998	26.07
535	1	5	0.213099	5.2379999	8.533	25.284
536	1	1	-0.17172199	6.0450001	6.8169999	26.281
537	1	5	0.213099	6.9159999	6.789	25.638
538	1	1	-0.141339	6.5209999	3.4820001	27.738001
539	1	5	0.20589299	5.4699998	3.22	27.729
540	1	1	-0.089170001	7.4850001	2.484	27.959
541	1	1	-0.138794	7.0710001	1.074	28.167999
542	1	1	-0.154605	6.0619998	0.5	27.375
543	1	5	0.212713	5.585	1.073	26.59
544	1	1	-0.344419	5.677	-0.829	27.57
545	1	5	0.205088	4.914	-1.252	26.931
546	1	1	0.237884	6.289	-1.61	28.562
547	1	3	-0.53029102	5.888	-2.9760001	28.764999
548	1	1	0.71487302	6.717	-4.0900002	29.121
549	1	2	-0.537826	7.967	-4.0320001	29.268
550	1	1	-0.248713	5.9089999	-5.3000002	29.229
551	1	1	0.111662	6.2659998	-6.6069999	29.549
552	1	5	0.215553	7.2909999	-6.8649998	29.781
553	1	1	-0.377352	5.2540002	-7.5819998	29.577
554	1	5	0.211375	5.5149999	-8.592	29.862
555	1	1	0.26249799	3.9100001	-7.2420001	29.27
556	1	3	-0.49214301	2.862	-8.2250004	29.313
557	1	4	0.33118901	1.896	-7.9109998	29.558001
558	1	1	0.83923298	3.0239999	-9.5930004	28.917
559	1	2	-0.57298601	4.0689998	-9.9860001	28.336
560	1	1	-0.14713199	3.582	-5.9029999	28.971001
561	1	5	0.218383	2.562	-5.6149998	28.75
562	1	1	-0.17128301	4.605	-4.9580002	28.948
563	1	1	0.71142298	4.5710001	-3.5280001	28.662001
564	1	2	-0.537826	3.5339999	-2.859	28.407
565	1	1	-0.344419	7.296	-1.038	29.355
566	1	5	0.205088	7.7649999	-1.61	30.145
567	1	1	-0.154605	7.684	0.28999999	29.160999
568	1	5	0.212713	8.4490004	0.71100003	29.799999
569	1	1	-0.141339	8.8450003	2.8380001	27.979
570	1	5	0.20589299	9.5930004	2.076	28.159
571	1	1	-0.154605	11.114	5.7160001	28.424999
572	1	5	0.212713	10.402	6.3649998	28.917999
573	1	1	-0.344419	12.469	6.0560002	28.455
574	1	5	0.205088	12.773	6.9580002	28.969
575	1	1	0.71487302	15.938	4.6950002	28.058001
576	1	2	-0.537826	15.851	3.4519999	28.243999
577	1	6	-0.43698299	2.244	-10.273	29.08
578	1	1	0.371932	0.91100001	-9.9049997	28.91
579	1	1	-0.28806099	-0.1	-10.846	29.139
580	1	1	-0.050480001	-1.442	-10.489	28.972
581	1	1	-0.28806099	-1.778	-9.191	28.575001
582	1	1	0.37193099	-0.76999998	-8.2440004	28.344999
583	1	6	-0.43698299	-1.091	-6.947	27.950001
584	1	1	-0.241853	0.57300001	-8.6029997	28.513
585	1	5	0.24113099	0.155	-11.852	29.445
586	1	5	0.238039	-2.221	-11.219	29.149
587	1	5	0.24113099	-2.819	-8.9219999	28.448
588	1	5	0.239216	1.351	-7.8709998	28.334
589	1	1	0.83923298	-2.085	-6.6459999	27.815001
590	1	2	-0.57298601	-2.809	-7.2690001	26.993
591	1	3	-0.49214301	-2.582	-5.5089998	28.532
592	1	4	0.33118901	-1.872	-4.8979998	28.997
593	1	1	0.26249799	-3.954	-5.0770001	28.525999
594	1	1	-0.377352	-5.0240002	-6.0100002	28.466
595	1	5	0.211375	-4.8280001	-7.073	28.440001
596	1	1	0.111661	-6.3600001	-5.572	28.469
597	1	5	0.215553	-7.177	-6.2800002	28.42
598	1	1	-0.248713	-6.6020002	-4.204	28.549999
599	1	1	-0.17128301	-5.572	-3.2950001	28.641001
600	1	1	-0.14713199	-4.2399998	-3.6989999	28.638
601	1	5	0.218383	-3.4449999	-2.967	28.705999
602	1	1	0.71142298	-6.1620002	-1.964	28.729
603	1	2	-0.537826	-5.5190001	-0.88099998	28.784
604	1	3	-0.53029102	-7.5910001	-2.0580001	28.690001
605	1	1	0.237884	-8.5450001	-0.98400003	28.75
606	1	1	-0.344419	-9.7139997	-1.027	27.976
607	1	5	0.205088	-9.8990002	-1.858	27.308001
608	1	1	-0.154605	-10.643	0.016000001	28.035
609	1	5	0.212713	-11.526	-0.035	27.41
610	1	1	-0.138794	-10.42	1.123	28.871
611	1	1	-0.089170001	-11.411	2.2279999	28.943001
612	1	1	-0.141339	-10.982	3.5650001	28.993
613	1	5	0.20589299	-9.9219999	3.789	28.969
614	1	1	-0.089170001	-11.91	4.6160002	29.073999
615	1	1	-0.075343996	-11.446	6.0229998	29.142
616	1	1	-0.17172199	-12.014	6.9169998	30.065001
617	1	5	0.213099	-12.792	6.5879998	30.742001
618	1	1	-0.17172199	-11.569	8.2399998	30.136999
619	1	5	0.213099	-12.032	8.9090004	30.851
620	1	1	-0.058417998	-10.551	8.698	29.284
621	1	1	-0.060306001	-10.076	10.102	29.365
622	1	1	-0.167614	-9.8739996	10.716	30.614
623	1	5	0.21533	-10.047	10.17	31.532
624	1	1	-0.178931	-9.4219999	12.037	30.688999
625	1	5	0.231536	-9.2600002	12.5	31.653999
626	1	1	-0.22109801	-9.1700001	12.759	29.52
627	1	5	0.234487	-8.8219995	13.782	29.582001
628	1	1	-0.178931	-9.368	12.161	28.274
629	1	5	0.231537	-9.1759996	12.721	27.368
630	1	1	-0.167614	-9.8170004	10.839	28.194
631	1	5	0.21533	-9.9809999	10.399	27.218
632	1	1	-0.17172199	-9.9890003	7.8060002	28.355