Title

504 atoms
512 bonds
986 angles
2073 dihedrals
102 impropers

11 atom types
14 bond types
9 angle types
35 dihedral types
3 improper types
-8.258999825 91.74100018 xlo xhi
-36.77099991 63.22900009 ylo yhi
-89.8259964 10.1740036 zlo zhi
0.0 0.0 0.0 xy xz yz

Masses

1	15.99943
2	12.01078
3	14.00672
4	12.01078
5	1.007947
6	1.007947
7	1.007947
8	15.99943
9	12.01078
10	15.99943
11	1.007947


Pair Coeffs

1	0.2102061	3.0398122
2	0.086879315	3.4806469
3	0.16769152	3.206876
4	0.10884061	3.3795318
5	0.014090815	1.1034277
6	0.015779483	2.6445434
7	0.016409246	2.5832257
8	0.16846514	3.0251065
9	0.21	3.3996695
10	0.20947353	2.99716
11	1.2326e-05	0.53453923

Bond Coeffs

1 harmonic	582.698766451	1.225198386222
2 harmonic	492.76746816345	1.381897776683
3 harmonic	301.15400723785	1.345741232799
4 harmonic	352.0565580496	1.450098586273
5 harmonic	505.144496193	1.019481865027
6 harmonic	264.62148576755	1.52190126495
7 harmonic	370.04670688625	1.093899492634
8 harmonic	279.1350963404	1.454628925034
9 harmonic	366.7408841747	1.425895053732
10 harmonic	300.03137914615	1.451203938761
11 harmonic	366.34047229585	1.464762957261
12 harmonic	602.81384337	1.196112346392
13 harmonic	329.96998057905	1.427343958716
14 harmonic	543.5267831885	0.9716763312559


Angle Coeffs

1 harmonic	57.8982893754	126.8062420451
2 harmonic	201.41175231035	127.4691416191
3 harmonic	55.42182150775	117.3465570514
4 harmonic	63.44422595415	115.5071327674
5 harmonic	65.09061609600001	110.3538806181
6 harmonic	53.20531626545	116.5475862634
7 harmonic	48.776492647595	115.6030999533
8 harmonic	55.07882548015	112.8714009681
9 harmonic	33.56981613361	180


Dihedral Coeffs

1 fourier 1	1.809047390003	2	180
2 fourier 1	-0.04816277792592	1	0
3 fourier 1	0.4860993122944	2	180
4 fourier 1	0.8916986138746	1	0
5 fourier 1	1.163809172478	2	180
6 fourier 1	0.1679186987369	1	180
7 fourier 1	-0.1488678166443	4	180
8 fourier 1	-0.1230328948768	3	180
9 fourier 1	0.2939295466901	2	0
10 fourier 1	-0.3024127022865	1	0
11 fourier 1	0.182238503271	2	0
12 fourier 1	0.02972342374561	3	0
13 fourier 1	0.1918272375143	3	0
14 fourier 1	0.9202179876409	1	180
15 fourier 1	0.0473758381877	3	0
16 fourier 1	2.779853741805	2	180
17 fourier 1	0.1155372516788	3	0
18 fourier 1	0.09223874044423	3	0
19 fourier 1	0.3159935921949	2	180
20 fourier 1	0.3247796806857	1	180
21 fourier 1	0.1040663847541	3	0
22 fourier 1	3.101948770557	2	180
23 fourier 1	-0.4252153282372	1	0
24 fourier 1	0.9974165607242	2	180
25 fourier 1	2.348375642009	2	180
26 fourier 1	1.256156174911	1	0
27 fourier 1	0.1911926717192	3	0
28 fourier 1	0.1115525666802	3	0
29 fourier 1	0.3432490222662	1	0
30 fourier 1	0.457973137376	1	0
31 fourier 1	-1.382973039546	1	0
32 fourier 1	0	1	0
33 fourier 1	0.3445382149273	3	0
34 fourier 1	0.1364556373303	1	0
35 fourier 1	0.3026390167484	3	0


Improper Coeffs

1 3.5	-1	2
2 0.3333333333333333	-1	2
3 0.3666666666666667	-1	2


Atoms

1	1	1	-0.62585598	4.3569999	-0.79299998	2.1559999
2	1	2	0.78208798	4.2280002	-1.342	1.029
3	1	3	-0.44425601	3.3629999	-0.78799999	0.032000002
4	1	4	-0.0060859998	2.552	0.41299999	0.24699999
5	1	4	-0.010078	1.054	0.071000002	0.51599997
6	1	4	-0.20854899	0.30000001	1.416	0.71100003
7	1	4	0.123832	-1.234	1.276	0.70899999
8	1	3	-0.57174402	-1.855	2.598	0.86000001
9	1	2	0.55389601	-3.2219999	2.7650001	1.2539999
10	1	1	-0.69857103	-3.95	1.7690001	1.506
11	1	5	0.30840799	-1.288	3.4630001	0.713
12	1	4	-0.21217901	-1.705	0.63200003	-0.60600001
13	1	4	-0.030236	-1.071	-0.75700003	-0.87099999
14	1	4	-0.213128	0.48199999	-0.69700003	-0.72000003
15	1	6	0.108137	0.89200002	-1.7309999	-0.74599999
16	1	6	0.108137	0.88200003	-0.19499999	-1.63
17	1	4	-0.17359599	-1.7	-1.836	0.045000002
18	1	6	0.071174003	-2.7620001	-2.01	-0.23100001
19	1	6	0.071174003	-1.707	-1.55	1.109
20	1	6	0.071174003	-1.159	-2.802	-0.056000002
21	1	4	-0.17359599	-1.395	-1.163	-2.3280001
22	1	6	0.071174003	-0.97899997	-0.42899999	-3.052
23	1	6	0.071174003	-0.963	-2.161	-2.562
24	1	6	0.071174003	-2.494	-1.212	-2.4920001
25	1	6	0.107969	-1.448	1.324	-1.4400001
26	1	6	0.107969	-2.813	0.537	-0.597
27	1	7	0.037638001	-1.543	0.65600002	1.574
28	1	6	0.106413	0.58200002	2.118	-0.106
29	1	6	0.106413	0.61799997	1.888	1.668
30	1	4	-0.17180701	0.98699999	-0.77999997	1.8099999
31	1	6	0.068071999	1.6210001	-0.329	2.6040001
32	1	6	0.068071999	-0.026000001	-0.83999997	2.2390001
33	1	6	0.068071999	1.349	-1.813	1.625
34	1	7	0.069631003	2.641	1.056	-0.65600002
35	1	7	0.069631003	2.967	1.013	1.087
36	1	5	0.320398	3.2920001	-1.285	-0.884
37	1	8	-0.50170499	5.3080001	-2.4660001	-6.4860001
38	1	4	0.115772	4.1230001	-2.8640001	-5.8509998
39	1	4	-0.14008699	4.3909998	-3.2869999	-4.4029999
40	1	4	-0.142461	4.9159999	-2.1199999	-3.5569999
41	1	4	-0.142461	5.152	-2.5550001	-2.1059999
42	1	4	-0.14008699	5.6760001	-1.388	-1.26
43	1	4	0.112607	5.9450002	-1.811	0.18799999
44	1	8	-0.500853	4.7589998	-2.2090001	0.82300001
45	1	7	0.081347004	6.4120002	-0.96600002	0.74400002
46	1	7	0.081347004	6.664	-2.658	0.204
47	1	6	0.087991998	4.9400001	-0.55500001	-1.267
48	1	6	0.087991998	6.6259999	-1.012	-1.699
49	1	6	0.084048003	4.1950002	-2.924	-1.675
50	1	6	0.084048003	5.8920002	-3.385	-2.0869999
51	1	6	0.084048003	5.8730001	-1.751	-3.9879999
52	1	6	0.084048003	4.1760001	-1.29	-3.576
53	1	6	0.087991998	5.1279998	-4.1199999	-4.3959999
54	1	6	0.087991998	3.441	-3.6630001	-3.964
55	1	7	0.081347004	3.6559999	-3.7090001	-6.4070001
56	1	7	0.081347004	3.404	-2.017	-5.8670001
57	1	1	-0.62585598	13.891	-5.3590002	-8.099
58	1	2	0.78208798	13.549	-5.9770002	-9.1420002
59	1	3	-0.44425601	12.341	-5.6440001	-9.8360004
60	1	4	-0.0060859998	11.411	-4.6069999	-9.3800001
61	1	4	-0.010078	10.151	-5.21	-8.6829996
62	1	4	-0.20744701	9.2419996	-4.0229998	-8.2620001
63	1	4	0.125687	7.8309999	-4.447	-7.8130002
64	1	3	-0.521483	7.0370002	-3.26	-7.474
65	1	2	0.80578399	5.8400002	-3.3329999	-6.6929998
66	1	1	-0.62312198	5.4229999	-4.434	-6.2449999
67	1	5	0.31163201	7.3590002	-2.312	-7.7740002
68	1	4	-0.21108299	7.131	-5.2319999	-8.9359999
69	1	4	-0.030236	7.9169998	-6.4889998	-9.3879995
70	1	4	-0.213128	9.4040003	-6.132	-9.7019997
71	1	6	0.108137	9.9809999	-7.0700002	-9.8579998
72	1	6	0.108137	9.4169998	-5.6079998	-10.685
73	1	4	-0.17359599	7.8039999	-7.6209998	-8.3369999
74	1	6	0.071174003	6.7610002	-8.0030003	-8.2889996
75	1	6	0.071174003	8.0509996	-7.289	-7.3169999
76	1	6	0.071174003	8.467	-8.4709997	-8.6020002
77	1	4	-0.17359599	7.2680001	-7.0190001	-10.689
78	1	6	0.071174003	7.3049998	-6.256	-11.496
79	1	6	0.071174003	7.7979999	-7.928	-11.049
80	1	6	0.071174003	6.1999998	-7.2810001	-10.521
81	1	6	0.107969	6.9959998	-4.546	-9.802
82	1	6	0.107969	6.1139998	-5.5320001	-8.6009998
83	1	7	0.039675001	7.9130001	-5.0710001	-6.901
84	1	6	0.106413	9.132	-3.3210001	-9.1199999
85	1	6	0.106413	9.7270002	-3.4530001	-7.4390001
86	1	4	-0.17180701	10.631	-5.994	-7.4349999
87	1	6	0.068071999	11.368	-5.3940001	-6.8600001
88	1	6	0.068071999	9.8179998	-6.223	-6.7270002
89	1	6	0.068071999	11.116	-6.9489999	-7.7270002
90	1	7	0.069631003	11.106	-4.0040002	-10.263
91	1	7	0.069631003	11.928	-3.9000001	-8.6940002
92	1	5	0.320398	12.103	-6.1890001	-10.694
93	1	8	-0.50170499	12.589	-7.244	-16.650999
94	1	4	0.115772	11.74	-7.8249998	-15.699
95	1	4	-0.14008699	12.495	-8.1199999	-14.398
96	1	4	-0.142461	13.008	-6.835	-13.734
97	1	4	-0.142461	13.735	-7.1469998	-12.421
98	1	4	-0.14008699	14.247	-5.862	-11.757
99	1	4	0.112607	15.003	-6.1560001	-10.457
100	1	8	-0.500853	14.154	-6.7379999	-9.5039997
101	1	7	0.081347004	15.438	-5.2129998	-10.057
102	1	7	0.081347004	15.845	-6.8520002	-10.662
103	1	6	0.087991998	13.394	-5.1830001	-11.54
104	1	6	0.087991998	14.937	-5.3369999	-12.454
105	1	6	0.084048003	13.036	-7.6669998	-11.73
106	1	6	0.084048003	14.595	-7.822	-12.629
107	1	6	0.084048003	13.707	-6.3150001	-14.425
108	1	6	0.084048003	12.148	-6.1599998	-13.527
109	1	6	0.087991998	13.349	-8.7989998	-14.616
110	1	6	0.087991998	11.806	-8.6450005	-13.701
111	1	7	0.081347004	11.305	-8.7690001	-16.099001
112	1	7	0.081347004	10.898	-7.1300001	-15.494
113	1	1	-0.62585598	20.719	-8.5530005	-20.752001
114	1	2	0.78208798	20.215	-9.2740002	-21.653
115	1	3	-0.44425601	18.816999	-9.2080002	-21.955999
116	1	4	-0.0060859998	17.878	-8.342	-21.236
117	1	4	-0.010078	17.017	-9.1359997	-20.205
118	1	4	-0.20744701	16.058001	-8.1210003	-19.524
119	1	4	0.125687	14.949	-8.7799997	-18.681
120	1	3	-0.521483	14.075	-7.7470002	-18.113001
121	1	2	0.80578399	13.194	-8.0050001	-17.013
122	1	1	-0.62312198	13.148	-9.1420002	-16.473
123	1	5	0.31163201	14.105	-6.7709999	-18.486
124	1	4	-0.21108299	14.118	-9.7349997	-19.554001
125	1	4	-0.030236	14.966	-10.844	-20.23
126	1	4	-0.213128	16.198999	-10.23	-20.966
127	1	6	0.108137	16.875999	-11.05	-21.292999
128	1	6	0.108137	15.823	-9.7620001	-21.903999
129	1	4	-0.17359599	15.385	-11.924	-19.202
130	1	6	0.071174003	14.496	-12.493	-18.851999
131	1	6	0.071174003	15.85	-11.502	-18.297001
132	1	6	0.071174003	16.094	-12.647	-19.659
133	1	4	-0.17359599	14.081	-11.549	-21.285
134	1	6	0.071174003	13.734	-10.833	-22.061001
135	1	6	0.071174003	14.649	-12.359	-21.792999
136	1	6	0.071174003	13.181	-11.998	-20.812
137	1	6	0.107969	13.606	-9.1300001	-20.336
138	1	6	0.107969	13.321	-10.205	-18.937
139	1	7	0.039675001	15.413	-9.3319998	-17.84
140	1	6	0.106413	15.57	-7.4949999	-20.305
141	1	6	0.106413	16.642	-7.4310002	-18.875
142	1	4	-0.17180701	17.982	-9.7539997	-19.16
143	1	6	0.068071999	18.724001	-8.9989996	-18.823
144	1	6	0.068071999	17.471001	-10.096	-18.246
145	1	6	0.068071999	18.535999	-10.615	-19.591
146	1	7	0.069631003	17.218	-7.8509998	-21.985001
147	1	7	0.069631003	18.424999	-7.5180001	-20.728001
148	1	5	0.320398	18.450001	-9.8290005	-22.711
149	1	8	-0.50170499	17.374001	-11.064	-28.555
150	1	4	0.115772	16.968	-11.747	-27.399
151	1	4	-0.14008699	18.112	-11.831	-26.382
152	1	4	-0.142461	18.535999	-10.441	-25.888
153	1	4	-0.142461	19.660999	-10.547	-24.851
154	1	4	-0.14008699	20.084999	-9.158	-24.356001
155	1	4	0.112607	21.229	-9.2410002	-23.34
156	1	8	-0.500853	20.823	-9.9239998	-22.184
157	1	7	0.081347004	21.570999	-8.2139997	-23.077999
158	1	7	0.081347004	22.093	-9.776	-23.790001
159	1	6	0.087991998	19.218	-8.6409998	-23.891001
160	1	6	0.087991998	20.426001	-8.5469999	-25.221001
161	1	6	0.084048003	19.308001	-11.154	-23.989
162	1	6	0.084048003	20.535999	-11.058	-25.309
163	1	6	0.084048003	18.889	-9.8339996	-26.75
164	1	6	0.084048003	17.660999	-9.9300003	-25.43
165	1	6	0.087991998	18.979	-12.347	-26.848
166	1	6	0.087991998	17.771	-12.441	-25.517
167	1	7	0.081347004	16.625999	-12.774	-27.660999
168	1	7	0.081347004	16.105	-11.212	-26.948999
169	1	1	-0.62585598	24.049999	-11.024	-34.883999
170	1	2	0.78208798	23.454	-11.87	-35.602001
171	1	3	-0.44425601	22.042999	-12.082	-35.478001
172	1	4	-0.0060859998	21.205	-11.374	-34.506001
173	1	4	-0.010078	20.853001	-12.264	-33.272999
174	1	4	-0.20744701	19.955999	-11.414	-32.330002
175	1	4	0.125687	19.291	-12.227	-31.204
176	1	3	-0.521483	18.437	-11.351	-30.393999
177	1	2	0.80578399	17.982	-11.714	-29.086
178	1	1	-0.62312198	18.316	-12.812	-28.565001
179	1	5	0.31163201	18.167999	-10.406	-30.750999
180	1	4	-0.21108299	18.443001	-13.363	-31.802
181	1	4	-0.030236	19.254999	-14.325	-32.707001
182	1	4	-0.213128	20.076	-13.528	-33.769001
183	1	6	0.108137	20.774	-14.221	-34.287998
184	1	6	0.108137	19.361	-13.185	-34.549999
185	1	4	-0.17359599	20.156	-15.256	-31.858
186	1	6	0.071174003	19.535	-15.963	-31.266001
187	1	6	0.071174003	20.773001	-14.711	-31.127001
188	1	6	0.071174003	20.827	-15.854	-32.509998
189	1	4	-0.17359599	18.254999	-15.234	-33.459999
190	1	6	0.071174003	17.565001	-14.635	-34.092999
191	1	6	0.071174003	18.796	-15.947	-34.120998
192	1	6	0.071174003	17.636	-15.82	-32.747002
193	1	6	0.107969	17.618	-12.904	-32.391998
194	1	6	0.107969	17.966	-13.943	-30.981001
195	1	7	0.039675001	20.077	-12.641	-30.542
196	1	6	0.106413	19.15	-10.93	-32.926998
197	1	6	0.106413	20.559999	-10.596	-31.877001
198	1	4	-0.17180701	22.181	-12.638	-32.566002
199	1	6	0.068071999	22.829	-11.742	-32.456001
200	1	6	0.068071999	22.035	-13.025	-31.545
201	1	6	0.068071999	22.740999	-13.4	-33.148998
202	1	7	0.069631003	20.274	-11.052	-35.022999
203	1	7	0.069631003	21.707001	-10.438	-34.174999
204	1	5	0.320398	21.6	-12.798	-36.097
205	1	8	-0.50170499	19.128	-14.496	-41.373001
206	1	4	0.115772	19.216999	-15.186	-40.154999
207	1	4	-0.14008699	20.601	-15.004	-39.521999
208	1	4	-0.142461	20.874001	-13.537	-39.162998
209	1	4	-0.142461	22.25	-13.379	-38.505001
210	1	4	-0.14008699	22.523001	-11.913	-38.146
211	1	4	0.112607	23.906	-11.731	-37.513
212	1	8	-0.500853	23.995001	-12.42	-36.294998
213	1	7	0.081347004	24.104	-10.646	-37.354
214	1	7	0.081347004	24.688	-12.115	-38.202999
215	1	6	0.087991998	21.745001	-11.546	-37.439999
216	1	6	0.087991998	22.472	-11.292	-39.067001
217	1	6	0.084048003	22.288	-14	-37.583
218	1	6	0.084048003	23.035	-13.739	-39.206001
219	1	6	0.084048003	20.836	-12.917	-40.084999
220	1	6	0.084048003	20.087999	-13.178	-38.462002
221	1	6	0.087991998	21.378	-15.371	-40.228001
222	1	6	0.087991998	20.650999	-15.624	-38.601002
223	1	7	0.081347004	19.018999	-16.27	-40.313999
224	1	7	0.081347004	18.436001	-14.801	-39.465
225	1	1	-0.62585598	23.532	-13.516	-49.390999
226	1	2	0.78208798	22.927999	-14.492	-49.908001
227	1	3	-0.44425601	21.683001	-14.959	-49.375
228	1	4	-0.0060859998	21.044001	-14.373	-48.193001
229	1	4	-0.010078	21.246	-15.252	-46.918999
230	1	4	-0.20744701	20.516001	-14.541	-45.745998
231	1	4	0.125687	20.378	-15.408	-44.480999
232	1	3	-0.521483	19.643999	-14.668	-43.446999
233	1	2	0.80578399	19.67	-15.047	-42.066002
234	1	1	-0.62312198	20.347	-16.035	-41.676998
235	1	5	0.31163201	19.106001	-13.809	-43.700001
236	1	4	-0.21108299	19.629	-16.711	-44.811001
237	1	4	-0.030236	20.312	-17.546	-45.924
238	1	4	-0.213128	20.618	-16.662001	-47.174
239	1	6	0.108137	21.254999	-17.236	-47.882
240	1	6	0.108137	19.653999	-16.497999	-47.706001
241	1	4	-0.17359599	21.583	-18.249001	-45.388
242	1	6	0.071174003	21.312	-19.030001	-44.645
243	1	6	0.071174003	22.27	-17.563	-44.867001
244	1	6	0.071174003	22.138	-18.742001	-46.214001
245	1	4	-0.17359599	19.332001	-18.662001	-46.356998
246	1	6	0.071174003	18.385	-18.235001	-46.751999
247	1	6	0.071174003	19.784	-19.292999	-47.153
248	1	6	0.071174003	19.073	-19.318001	-45.497002
249	1	6	0.107969	18.596001	-16.443001	-45.127998
250	1	6	0.107969	19.534	-17.327999	-43.890999
251	1	7	0.039675001	21.386999	-15.635	-44.084
252	1	6	0.106413	19.493	-14.245	-46.074001
253	1	6	0.106413	21.055	-13.603	-45.484001
254	1	4	-0.17180701	22.768	-15.336	-46.638
255	1	6	0.068071999	23.233999	-14.33	-46.716999
256	1	6	0.068071999	23.004	-15.693	-45.623001
257	1	6	0.068071999	23.27	-16.006001	-47.367001
258	1	7	0.069631003	19.959999	-14.257	-48.409
259	1	7	0.069631003	21.43	-13.345	-48.015999
260	1	5	0.320398	21.226	-15.774	-49.841
261	1	8	-0.50170499	17.702999	-18.160999	-54.167999
262	1	4	0.115772	18.274	-18.761999	-53.036999
263	1	4	-0.14008699	19.719999	-18.292999	-52.839001
264	1	4	-0.142461	19.796	-16.785	-52.563
265	1	4	-0.142461	21.246	-16.34	-52.34
266	1	4	-0.14008699	21.323	-14.833	-52.063999
267	1	4	0.112607	22.768	-14.364	-51.866001
268	1	8	-0.500853	23.34	-14.964	-50.735001
269	1	7	0.081347004	22.790001	-13.255	-51.764
270	1	7	0.081347004	23.374001	-14.629	-52.758999
271	1	6	0.087991998	20.729	-14.584	-51.157001
272	1	6	0.087991998	20.886999	-14.279	-52.924
273	1	6	0.084048003	21.67	-16.896999	-51.474998
274	1	6	0.084048003	21.848	-16.58	-53.243999
275	1	6	0.084048003	19.372	-16.229	-53.428001
276	1	6	0.084048003	19.195	-16.546	-51.659
277	1	6	0.087991998	20.313	-18.542	-53.745998
278	1	6	0.087991998	20.155001	-18.847	-51.979
279	1	7	0.081347004	18.252001	-19.870001	-53.139
280	1	7	0.081347004	17.669001	-18.497	-52.144001
281	1	1	-0.62585598	19.302999	-16.766001	-63.118999
282	1	2	0.78208798	18.775	-17.862	-63.444
283	1	3	-0.44425601	17.855	-18.527	-62.570999
284	1	4	-0.0060859998	17.488001	-18.014999	-61.248001
285	1	4	-0.010078	18.216999	-18.777	-60.098
286	1	4	-0.20744701	17.738001	-18.159	-58.756001
287	1	4	0.125687	18.143999	-18.974001	-57.514
288	1	3	-0.521483	17.615999	-18.334999	-56.303001
289	1	2	0.80578399	18.115	-18.634001	-54.994999
290	1	1	-0.62312198	19.052999	-19.458	-54.832001
291	1	5	0.31163201	16.871	-17.605	-56.379002
292	1	4	-0.21108299	17.599001	-20.408001	-57.619999
293	1	4	-0.030236	18.077	-21.153999	-58.891998
294	1	4	-0.213128	17.827999	-20.290001	-60.168999
295	1	6	0.108137	18.329	-20.768999	-61.039001
296	1	6	0.108137	16.738001	-20.336	-60.391998
297	1	4	-0.17359599	19.559999	-21.579	-58.761002
298	1	6	0.071174003	19.673	-22.360001	-57.978001
299	1	6	0.071174003	20.222	-20.752001	-58.459999
300	1	6	0.071174003	19.934	-21.999001	-59.719002
301	1	4	-0.17359599	17.247999	-22.454	-59.026001
302	1	6	0.071174003	16.163	-22.231001	-59.119999
303	1	6	0.071174003	17.562	-23.027	-59.925999
304	1	6	0.071174003	17.382999	-23.104	-58.133999
305	1	6	0.107969	16.487	-20.355	-57.615002
306	1	6	0.107969	17.896999	-20.987	-56.719002
307	1	7	0.039675001	19.25	-18.987	-57.435001
308	1	6	0.106413	16.627001	-18.077	-58.764999
309	1	6	0.106413	18.136999	-17.125	-58.655998
310	1	4	-0.17180701	19.742001	-18.559999	-60.279999
311	1	6	0.068071999	19.959999	-17.49	-60.484001
312	1	6	0.068071999	20.327	-18.816999	-59.382999
313	1	6	0.068071999	20.129999	-19.16	-61.131001
314	1	7	0.069631003	16.386	-18.115	-61.132999
315	1	7	0.069631003	17.701	-16.924999	-61.183998
316	1	5	0.320398	17.448999	-19.436001	-62.889
317	1	8	-0.50170499	13.349	-22.65	-66.002998
318	1	4	0.115772	14.33	-23.076	-65.097
319	1	4	-0.14008699	15.652	-22.336	-65.330002
320	1	4	-0.142461	15.512	-20.829	-65.075996
321	1	4	-0.142461	16.85	-20.110001	-65.287003
322	1	4	-0.14008699	16.709999	-18.603001	-65.032997
323	1	4	0.112607	18.031	-17.862	-65.265999
324	1	8	-0.500853	19.011999	-18.289	-64.360001
325	1	7	0.081347004	17.867001	-16.766001	-65.165001
326	1	7	0.081347004	18.389	-18.052	-66.301003
327	1	6	0.087991998	16.370001	-18.426001	-63.988998
328	1	6	0.087991998	15.944	-18.183001	-65.721001
329	1	6	0.084048003	17.606001	-20.534	-64.591003
330	1	6	0.084048003	17.195999	-20.275999	-66.331001
331	1	6	0.084048003	14.755	-20.405001	-65.772003
332	1	6	0.084048003	15.165	-20.662001	-64.032997
333	1	6	0.087991998	15.992	-22.513	-66.374001
334	1	6	0.087991998	16.417999	-22.756001	-64.641998
335	1	7	0.081347004	14.495	-24.173	-65.197998
336	1	7	0.081347004	13.972	-22.886999	-64.061996
337	1	1	-0.62585598	11.971	-21.417999	-75.014999
338	1	2	0.78208798	11.595	-22.608999	-75.18
339	1	3	-0.44425601	11.116	-23.391001	-74.080002
340	1	4	-0.0060859998	11.057	-22.892	-72.703003
341	1	4	-0.010078	12.223	-23.447001	-71.827003
342	1	4	-0.20744701	12.045	-22.865	-70.397003
343	1	4	0.125687	12.946	-23.527	-69.337997
344	1	3	-0.521483	12.68	-22.941	-68.018997
345	1	2	0.80578399	13.586	-23.076	-66.918999
346	1	1	-0.62312198	14.672	-23.701	-67.047997
347	1	5	0.31163201	11.819	-22.368	-67.864998
348	1	4	-0.21108299	12.682	-25.042	-69.291
349	1	4	-0.030236	12.903	-25.746	-70.653999
350	1	4	-0.213128	12.131	-25.007999	-71.792999
351	1	6	0.108137	12.44	-25.426001	-72.776001
352	1	6	0.108137	11.054	-25.268	-71.683998
353	1	4	-0.17359599	14.413	-25.879	-70.970001
354	1	6	0.071174003	14.898	-26.586	-70.262001
355	1	6	0.071174003	14.96	-24.927999	-70.871002
356	1	6	0.071174003	14.566	-26.268	-71.999001
357	1	4	-0.17359599	12.339	-27.184	-70.549004
358	1	6	0.071174003	11.252	-27.173	-70.316002
359	1	6	0.071174003	12.482	-27.731001	-71.505997
360	1	6	0.071174003	12.851	-27.753	-69.741997
361	1	6	0.107969	11.631	-25.198	-68.957001
362	1	6	0.107969	13.336	-25.51	-68.523003
363	1	7	0.039675001	14.007	-23.33	-69.587997
364	1	6	0.106413	10.986	-22.993	-70.077003
365	1	6	0.106413	12.249	-21.77	-70.411003
366	1	4	-0.17180701	13.557	-22.958	-72.447998
367	1	6	0.068071999	13.495	-21.877001	-72.697998
368	1	6	0.068071999	14.416	-23.055	-71.765999
369	1	6	0.068071999	13.788	-23.514	-73.380997
370	1	7	0.069631003	10.078	-23.191	-72.268997
371	1	7	0.069631003	11.065	-21.780001	-72.695
372	1	5	0.320398	10.818	-24.374001	-74.272003
373	1	8	-0.50170499	6.6919999	-28.448	-76.065002
374	1	4	0.115772	7.9580002	-28.638	-75.491997
375	1	4	-0.14008699	8.9849997	-27.674999	-76.098999
376	1	4	-0.142461	8.6359997	-26.211	-75.802002
377	1	4	-0.142461	9.6890001	-25.264	-76.391998
378	1	4	-0.14008699	9.3400002	-23.799999	-76.094002
379	1	4	0.112607	10.367	-22.837	-76.700996
380	1	8	-0.500853	11.632	-23.028	-76.127998
381	1	7	0.081347004	10.03	-21.787001	-76.545998
382	1	7	0.081347004	10.438	-23.007	-77.796997
383	1	6	0.087991998	9.2910004	-23.639	-74.995003
384	1	6	0.087991998	8.3409996	-23.565001	-76.522003
385	1	6	0.084048003	10.683	-25.504999	-75.954002
386	1	6	0.084048003	9.7419996	-25.414	-77.492996
387	1	6	0.084048003	7.6420002	-25.971001	-76.239998
388	1	6	0.084048003	8.5830002	-26.061001	-74.700996
389	1	6	0.087991998	9.033	-27.836	-77.197998
390	1	6	0.087991998	9.9840002	-27.91	-75.670998
391	1	7	0.081347004	8.2950001	-29.688	-75.647003
392	1	7	0.081347004	7.8870001	-28.468	-74.397003
393	1	1	-0.62585598	2.5380001	-27.938	-84.258003
394	1	2	0.78208798	2.368	-29.184999	-84.314003
395	1	3	-0.44425601	2.3900001	-29.988001	-83.128998
396	1	4	-0.0060859998	2.6400001	-29.443001	-81.792
397	1	4	-0.010078	4.0949998	-29.725	-81.303001
398	1	4	-0.20744701	4.2319999	-29.118	-79.879997
399	1	4	0.125687	5.513	-29.547001	-79.139
400	1	3	-0.521483	5.5339999	-28.957001	-77.795998
401	1	2	0.80578399	6.73	-28.865999	-77.014
402	1	1	-0.62312198	7.8309999	-29.282	-77.462997
403	1	5	0.31163201	4.6609998	-28.549	-77.389
404	1	4	-0.21108299	5.572	-31.08	-79.029999
405	1	4	-0.030236	5.5180001	-31.796	-80.403999
406	1	4	-0.213128	4.3210001	-31.271999	-81.257004
407	1	6	0.108137	4.4050002	-31.673	-82.291
408	1	6	0.108137	3.3940001	-31.724001	-80.837997
409	1	4	-0.17359599	6.8670001	-31.659	-81.153
410	1	6	0.071174003	7.664	-32.227001	-80.625999
411	1	6	0.071174003	7.2249999	-30.618999	-81.210999
412	1	6	0.071174003	6.7859998	-32.062	-82.184998
413	1	4	-0.17359599	5.2989998	-33.306999	-80.150002
414	1	6	0.071174003	4.3470001	-33.488998	-79.606003
415	1	6	0.071174003	5.2600002	-33.863998	-81.111
416	1	6	0.071174003	6.1240001	-33.73	-79.535004
417	1	6	0.107969	4.7150002	-31.414	-78.402
418	1	6	0.107969	6.4990001	-31.379	-78.492996
419	1	7	0.039675001	6.3959999	-29.167	-79.691002
420	1	6	0.106413	3.358	-29.426001	-79.262001
421	1	6	0.106413	4.2069998	-28.007	-79.943001
422	1	4	-0.17180701	5.0689998	-29.025999	-82.287003
423	1	6	0.068071999	4.7290001	-27.989	-82.498001
424	1	6	0.068071999	6.092	-28.927	-81.889
425	1	6	0.068071999	5.1220002	-29.573999	-83.250999
426	1	7	0.069631003	1.9069999	-29.898001	-81.089996
427	1	7	0.069631003	2.4349999	-28.349001	-81.776001
428	1	5	0.320398	2.2460001	-31.017	-83.233002
429	1	8	-0.174789	-1.353	-35.875	-83.764
430	1	4	0.034189999	0.035999998	-35.797001	-83.592003
431	1	4	-0.146083	0.63499999	-34.688999	-84.466003
432	1	4	-0.141192	0.112	-33.303001	-84.067001
433	1	4	-0.14241	0.74299997	-32.207001	-84.931999
434	1	4	-0.14008699	0.219	-30.820999	-84.532997
435	1	4	0.112607	0.81800002	-29.712999	-85.406998
436	1	8	-0.500853	2.2079999	-29.635	-85.235001
437	1	7	0.081347004	0.345	-28.739	-85.150002
438	1	7	0.081347004	0.59799999	-29.92	-86.475998
439	1	6	0.087991998	0.463	-30.618	-83.467003
440	1	6	0.087991998	-0.88700002	-30.799	-84.643997
441	1	6	0.084048003	1.848	-32.235001	-84.809998
442	1	6	0.084048003	0.50099999	-32.396999	-86.000999
443	1	6	0.084223002	-0.99400002	-33.276001	-84.189003
444	1	6	0.084223002	0.354	-33.112999	-82.998001
445	1	6	0.089042	0.39199999	-34.891998	-85.531998
446	1	6	0.089042	1.7410001	-34.710999	-84.355003
447	1	7	0.081220999	0.50999999	-36.771	-83.848999
448	1	7	0.081220999	0.25600001	-35.59	-82.523003
449	1	1	-0.69857103	-4.8800001	3.905	1.466
450	1	2	0.55389601	-3.635	3.7609999	1.3430001
451	1	3	-0.57174402	-2.76	4.895	1.325
452	1	4	0.12358	-3.2539999	6.2729998	1.426
453	1	4	-0.21217901	-2.1059999	7.224	1.798
454	1	4	-0.030768	-2.6170001	8.6639996	2.096
455	1	4	-0.17359599	-1.485	9.6820002	1.822
456	1	6	0.071174003	-1.809	10.711	2.089
457	1	6	0.071174003	-1.181	9.6890001	0.759
458	1	6	0.071174003	-0.58700001	9.4359999	2.4289999
459	1	4	-0.17359599	-2.973	8.7729998	3.599
460	1	6	0.071174003	-3.3670001	9.7860003	3.835
461	1	6	0.071174003	-2.0780001	8.5950003	4.2350001
462	1	6	0.071174003	-3.7460001	8.0279999	3.882
463	1	4	-0.21175601	-3.8900001	9.0170002	1.251
464	1	4	0.022397	-4.0500002	8.2480001	-0.101
465	1	4	-0.208459	-3.9100001	6.697	0.093000002
466	1	6	0.106286	-3.329	6.2600002	-0.75
467	1	6	0.106286	-4.902	6.1999998	0.043000001
468	1	4	-0.17029899	-2.9920001	8.7399998	-1.1210001
469	1	6	0.064723998	-3.223	8.3579998	-2.1400001
470	1	6	0.064723998	-1.978	8.375	-0.87599999
471	1	6	0.064723998	-2.9719999	9.8500004	-1.169
472	1	4	0.141276	-5.4439998	8.5819998	-0.71200001
473	1	3	-0.65163201	-6.5370002	8.1540003	0.161
474	1	9	0.59917098	-7.4109998	8.9700003	0.597
475	1	1	-0.494587	-8.2589998	9.7639999	1.022
476	1	7	0.064732	-5.513	9.6759996	-0.91799998
477	1	7	0.064732	-5.5599999	8.059	-1.686
478	1	6	0.106826	-4.7859998	8.7869997	1.867
479	1	6	0.106826	-3.941	10.114	1.0700001
480	1	6	0.107969	-1.564	6.8179998	2.681
481	1	6	0.107969	-1.365	7.2270002	0.97000003
482	1	7	0.037638001	-4.0159998	6.316	2.2349999
483	1	5	0.30840799	-1.733	4.7119999	1.2640001
484	1	8	-0.174789	-1.507	-36.306	-84.644997
485	1	4	0.034189999	-1.728	-35.271	-85.565002
486	1	4	-0.146083	-0.41800001	-34.556999	-85.913002
487	1	4	-0.14114	0.574	-35.495998	-86.612
488	1	4	-0.137045	1.867	-34.757	-86.977997
489	1	4	-0.168007	2.858	-35.696999	-87.677002
490	1	4	0.087425001	4.1690001	-34.983002	-88.025002
491	1	10	-0.68317199	3.947	-33.948002	-88.945
492	1	11	0.38018399	3.7939999	-34.377998	-89.825996
493	1	7	0.071849003	4.8940001	-35.716999	-88.443001
494	1	7	0.071849003	4.619	-34.556	-87.103996
495	1	6	0.091395997	2.4030001	-36.102001	-88.607002
496	1	6	0.091395997	3.0899999	-36.553001	-87.005997
497	1	6	0.084223002	1.624	-33.907001	-87.652
498	1	6	0.084223002	2.3329999	-34.353001	-86.053001
499	1	6	0.084223002	0.81699997	-36.346001	-85.938004
500	1	6	0.084223002	0.107	-35.901001	-87.537003
501	1	6	0.089042	0.037999999	-34.152	-84.982002
502	1	6	0.089042	-0.64999998	-33.701	-86.584
503	1	7	0.081220999	-2.454	-34.535999	-85.147003
504	1	7	0.081220999	-2.1789999	-35.696999	-86.486

Bonds

1	1	1	2
2	2	2	3
3	3	2	44
4	4	3	4
5	5	3	36
6	6	4	5
7	7	4	34
8	7	4	35
9	6	5	6
10	6	5	30
11	6	5	14
12	6	6	7
13	7	6	28
14	7	6	29
15	4	7	8
16	6	7	12
17	7	7	27
18	2	8	9
19	5	8	11
20	1	9	10
21	8	9	450
22	6	12	13
23	7	12	25
24	7	12	26
25	6	13	14
26	6	13	17
27	6	13	21
28	7	14	15
29	7	14	16
30	7	17	18
31	7	17	19
32	7	17	20
33	7	21	22
34	7	21	23
35	7	21	24
36	7	30	31
37	7	30	32
38	7	30	33
39	9	37	38
40	3	37	65
41	6	38	39
42	7	38	55
43	7	38	56
44	6	39	40
45	7	39	53
46	7	39	54
47	6	40	41
48	7	40	51
49	7	40	52
50	6	41	42
51	7	41	49
52	7	41	50
53	6	42	43
54	7	42	47
55	7	42	48
56	9	43	44
57	7	43	45
58	7	43	46
59	1	57	58
60	2	58	59
61	3	58	100
62	4	59	60
63	5	59	92
64	6	60	61
65	7	60	90
66	7	60	91
67	6	61	62
68	6	61	86
69	6	61	70
70	6	62	63
71	7	62	84
72	7	62	85
73	4	63	64
74	6	63	68
75	7	63	83
76	2	64	65
77	5	64	67
78	1	65	66
79	6	68	69
80	7	68	81
81	7	68	82
82	6	69	70
83	6	69	73
84	6	69	77
85	7	70	71
86	7	70	72
87	7	73	74
88	7	73	75
89	7	73	76
90	7	77	78
91	7	77	79
92	7	77	80
93	7	86	87
94	7	86	88
95	7	86	89
96	9	93	94
97	3	93	121
98	6	94	95
99	7	94	111
100	7	94	112
101	6	95	96
102	7	95	109
103	7	95	110
104	6	96	97
105	7	96	107
106	7	96	108
107	6	97	98
108	7	97	105
109	7	97	106
110	6	98	99
111	7	98	103
112	7	98	104
113	9	99	100
114	7	99	101
115	7	99	102
116	1	113	114
117	2	114	115
118	3	114	156
119	4	115	116
120	5	115	148
121	6	116	117
122	7	116	146
123	7	116	147
124	6	117	118
125	6	117	142
126	6	117	126
127	6	118	119
128	7	118	140
129	7	118	141
130	4	119	120
131	6	119	124
132	7	119	139
133	2	120	121
134	5	120	123
135	1	121	122
136	6	124	125
137	7	124	137
138	7	124	138
139	6	125	126
140	6	125	129
141	6	125	133
142	7	126	127
143	7	126	128
144	7	129	130
145	7	129	131
146	7	129	132
147	7	133	134
148	7	133	135
149	7	133	136
150	7	142	143
151	7	142	144
152	7	142	145
153	9	149	150
154	3	149	177
155	6	150	151
156	7	150	167
157	7	150	168
158	6	151	152
159	7	151	165
160	7	151	166
161	6	152	153
162	7	152	163
163	7	152	164
164	6	153	154
165	7	153	161
166	7	153	162
167	6	154	155
168	7	154	159
169	7	154	160
170	9	155	156
171	7	155	157
172	7	155	158
173	1	169	170
174	2	170	171
175	3	170	212
176	4	171	172
177	5	171	204
178	6	172	173
179	7	172	202
180	7	172	203
181	6	173	174
182	6	173	198
183	6	173	182
184	6	174	175
185	7	174	196
186	7	174	197
187	4	175	176
188	6	175	180
189	7	175	195
190	2	176	177
191	5	176	179
192	1	177	178
193	6	180	181
194	7	180	193
195	7	180	194
196	6	181	182
197	6	181	185
198	6	181	189
199	7	182	183
200	7	182	184
201	7	185	186
202	7	185	187
203	7	185	188
204	7	189	190
205	7	189	191
206	7	189	192
207	7	198	199
208	7	198	200
209	7	198	201
210	9	205	206
211	3	205	233
212	6	206	207
213	7	206	223
214	7	206	224
215	6	207	208
216	7	207	221
217	7	207	222
218	6	208	209
219	7	208	219
220	7	208	220
221	6	209	210
222	7	209	217
223	7	209	218
224	6	210	211
225	7	210	215
226	7	210	216
227	9	211	212
228	7	211	213
229	7	211	214
230	1	225	226
231	2	226	227
232	3	226	268
233	4	227	228
234	5	227	260
235	6	228	229
236	7	228	258
237	7	228	259
238	6	229	230
239	6	229	254
240	6	229	238
241	6	230	231
242	7	230	252
243	7	230	253
244	4	231	232
245	6	231	236
246	7	231	251
247	2	232	233
248	5	232	235
249	1	233	234
250	6	236	237
251	7	236	249
252	7	236	250
253	6	237	238
254	6	237	241
255	6	237	245
256	7	238	239
257	7	238	240
258	7	241	242
259	7	241	243
260	7	241	244
261	7	245	246
262	7	245	247
263	7	245	248
264	7	254	255
265	7	254	256
266	7	254	257
267	9	261	262
268	3	261	289
269	6	262	263
270	7	262	279
271	7	262	280
272	6	263	264
273	7	263	277
274	7	263	278
275	6	264	265
276	7	264	275
277	7	264	276
278	6	265	266
279	7	265	273
280	7	265	274
281	6	266	267
282	7	266	271
283	7	266	272
284	9	267	268
285	7	267	269
286	7	267	270
287	1	281	282
288	2	282	283
289	3	282	324
290	4	283	284
291	5	283	316
292	6	284	285