Title

129 atoms
128 bonds
245 angles
431 dihedrals
12 impropers

8 atom types
11 bond types
5 angle types
27 dihedral types
2 improper types
-19.92200089 80.07799911 xlo xhi
-1.297000051 98.70299995 ylo yhi
-8.510000229 91.48999977 zlo zhi
0.0 0.0 0.0 xy xz yz

Masses

1	15.99943
2	12.01078
3	1.007947
4	1.007947
5	12.01078
6	15.99943
7	15.99943
8	1.007947


Pair Coeffs

1	0.16846514	3.0251065
2	0.10884061	3.3795318
3	0.016409246	2.5832257
4	0.015779483	2.6445434
5	0.086879315	3.4806469
6	0.2102061	3.0398122
7	0.20947353	2.99716
8	1.2326e-05	0.53453923

Bond Coeffs

1 harmonic	366.7408841747	1.425895053732
2 harmonic	300.03137914615	1.451203938761
3 harmonic	264.62148576755	1.52190126495
4 harmonic	370.04670688625	1.093899492634
5 harmonic	301.15400723785	1.345741232799
6 harmonic	582.698766451	1.225198386222
7 harmonic	329.44145381095	1.523435958334
8 harmonic	279.1350963404	1.454628925034
9 harmonic	329.96998057905	1.427343958716
10 harmonic	543.5267831885	0.9716763312559
11 harmonic	385.7604595587	1.369745182308


Angle Coeffs

1 harmonic	53.20531626545	116.5475862634
2 harmonic	65.09061609600001	110.3538806181
3 harmonic	201.41175231035	127.4691416191
4 harmonic	57.8982893754	126.8062420451
5 harmonic	48.776492647595	115.6030999533


Dihedral Coeffs

1 fourier 1	0.1155372516788	3	0
2 fourier 1	0.1115525666802	3	0
3 fourier 1	0.3432490222662	1	0
4 fourier 1	0.0473758381877	3	0
5 fourier 1	0.457973137376	1	0
6 fourier 1	0.1040663847541	3	0
7 fourier 1	0.1918272375143	3	0
8 fourier 1	0.9202179876409	1	180
9 fourier 1	1.163809172478	2	180
10 fourier 1	0.1679186987369	1	180
11 fourier 1	2.779853741805	2	180
12 fourier 1	0.02664938770063	3	0
13 fourier 1	0.1911926717192	3	0
14 fourier 1	-0.3703352413219	2	0
15 fourier 1	0.4541676554336	1	0
16 fourier 1	0.1489710476446	2	0
17 fourier 1	0.02960027280666	3	180
18 fourier 1	0.09223874044423	3	0
19 fourier 1	0.3159935921949	2	180
20 fourier 1	0.3247796806857	1	180
21 fourier 1	0.9974165607242	2	180
22 fourier 1	0.3445382149273	3	0
23 fourier 1	0.1364556373303	1	0
24 fourier 1	0.3026390167484	3	0
25 fourier 1	2.687457892086	2	180
26 fourier 1	2.772607909663	2	180
27 fourier 1	0.09692684957115	1	0


Improper Coeffs

1 3.5	-1	2
2 0.3666666666666667	-1	2


Atoms

1	1	1	-0.18686	-1.834	0.66500002	-0.51800001
2	1	2	0.038697999	-1.288	-0.54500002	-0.064999998
3	1	2	-0.137413	0.113	-0.331	0.51700002
4	1	2	0.143718	1.099	0.17299999	-0.54100001
5	1	1	-0.49729699	2.3800001	0.29899999	0.012
6	1	3	0.074413002	0.76099998	1.15	-0.95499998
7	1	3	0.074413002	1.149	-0.55599999	-1.378
8	1	4	0.087517001	0.48199999	-1.2970001	0.926
9	1	4	0.087517001	0.057	0.39899999	1.354
10	1	3	0.076398	-1.949	-0.99699998	0.70999998
11	1	3	0.076398	-1.2359999	-1.258	-0.91600001
12	1	5	0.75929701	2.3710001	1.163	0.58899999
13	1	6	-0.567505	1.571	1.268	1.505
14	1	2	-0.210039	3.349	2.2650001	0.30199999
15	1	2	-0.11675	2.6489999	3.556	-0.14300001
16	1	2	-0.137418	1.972	3.4059999	-1.513
17	1	2	-0.142757	1.323	4.723	-1.954
18	1	2	-0.142858	0.63200003	4.566	-3.3169999
19	1	2	-0.142858	0.089000002	5.8959999	-3.865
20	1	2	-0.142858	-1.145	6.3940001	-3.0929999
21	1	2	-0.142858	-1.732	7.684	-3.6889999
22	1	2	-0.142858	-2.5969999	7.4169998	-4.9330001
23	1	2	-0.142858	-3.076	8.71	-5.619
24	1	2	-0.142858	-3.9649999	9.6210003	-4.7519999
25	1	2	-0.142858	-5.2729998	8.941	-4.3150001
26	1	2	-0.142757	-6.2150002	9.8909998	-3.556
27	1	2	-0.14006899	-6.8390002	11.012	-4.4120002
28	1	2	-0.098384	-7.7589998	10.496	-5.5409999
29	1	2	-0.25892699	-7.1009998	10.546	-6.9289999
30	1	5	0.51491398	-6.9250002	11.954	-7.4229999
31	1	6	-0.705733	-6.4099998	12.157	-8.5100002
32	1	4	0.110983	-7.7490001	10.002	-7.6490002
33	1	4	0.110983	-6.1149998	10.04	-6.9120002
34	1	4	0.073864996	-8.085	9.4540005	-5.3309999
35	1	4	0.073864996	-8.6870003	11.11	-5.566
36	1	4	0.075515002	-7.4559999	11.634	-3.7279999
37	1	4	0.075515002	-6.0510001	11.689	-4.8010001
38	1	4	0.077381998	-7.0359998	9.29	-3.1070001
39	1	4	0.077381998	-5.6589999	10.354	-2.7119999
40	1	4	0.077381998	-5.7940001	8.4949999	-5.1880002
41	1	4	0.077381998	-5.027	8.1079998	-3.6229999
42	1	4	0.077381998	-3.404	9.9750004	-3.862
43	1	4	0.077381998	-4.198	10.518	-5.3629999
44	1	4	0.077381998	-2.187	9.2919998	-5.9460001
45	1	4	0.077381998	-3.638	8.434	-6.5380001
46	1	4	0.077381998	-3.4649999	6.7789998	-4.664
47	1	4	0.077381998	-2.0050001	6.8509998	-5.6820002
48	1	4	0.077381998	-2.3659999	8.1540003	-2.908
49	1	4	0.077381998	-0.91299999	8.3950005	-3.9349999
50	1	4	0.077381998	-0.84899998	6.6139998	-2.0450001
51	1	4	0.077381998	-1.926	5.6020002	-3.063
52	1	4	0.077381998	-0.18099999	5.7329998	-4.9289999
53	1	4	0.077381998	0.889	6.6680002	-3.8380001
54	1	4	0.077381998	-0.19400001	3.825	-3.24
55	1	4	0.077381998	1.3710001	4.171	-4.0489998
56	1	4	0.077381998	0.57700002	5.0279999	-1.189
57	1	4	0.077381998	2.1040001	5.5110002	-2.023
58	1	4	0.075515002	1.191	2.6159999	-1.4579999
59	1	4	0.075515002	2.7309999	3.099	-2.266
60	1	4	0.082589999	1.898	3.858	0.62099999
61	1	4	0.082589999	3.4130001	4.362	-0.20299999
62	1	4	0.113884	3.937	2.4679999	1.223
63	1	4	0.113884	4.0599999	1.933	-0.48500001
64	1	1	-0.186149	-2.105	1.174	0.28999999
65	1	2	0.047107998	-1.397	2.3840001	0.25799999
66	1	2	-0.172668	0.071999997	2.1700001	0.639
67	1	2	0.093883999	0.22	1.666	2.0780001
68	1	7	-0.68798101	1.576	1.54	2.4100001
69	1	8	0.374156	1.901	0.71399999	1.965
70	1	3	0.068061002	-0.29899999	0.68800002	2.2049999
71	1	3	0.068061002	-0.24600001	2.395	2.776
72	1	4	0.091278002	0.61299998	3.135	0.53500003
73	1	4	0.091278002	0.53299999	1.4400001	-0.061999999
74	1	3	0.076232001	-1.456	2.836	-0.75800002
75	1	3	0.076232001	-1.868	3.0969999	0.96799999
76	1	5	0.51491398	-7.2490001	12.799	-6.8239999
77	1	6	-0.705733	-6.882	12.892	-5.664
78	1	2	-0.25892699	-8.1409998	13.844	-7.428
79	1	2	-0.098384	-9.4910002	13.941	-6.7069998
80	1	2	-0.14006899	-10.33	12.664	-6.8699999
81	1	2	-0.142757	-11.698	12.812	-6.184
82	1	2	-0.142858	-12.623	11.607	-6.4289999
83	1	2	-0.142858	-12.101	10.258	-5.8920002
84	1	2	-0.142858	-11.764	10.238	-4.3889999
85	1	2	-0.142858	-12.997	10.481	-3.5020001
86	1	2	-0.142858	-12.67	10.379	-2.0009999
87	1	2	-0.142858	-12.529	8.9259996	-1.494
88	1	2	-0.142858	-13.779	8.3990002	-0.76800001
89	1	2	-0.142858	-14.98	8.21	-1.7079999
90	1	2	-0.142757	-16.173	7.5320001	-1.012
91	1	2	-0.137418	-15.96	6.02	-0.81699997
92	1	2	-0.114218	-17.231001	5.3010001	-0.33700001
93	1	2	-0.22013301	-17.598	5.6539998	1.113
94	1	5	0.82115102	-18.739	4.8099999	1.584
95	1	6	-0.56956702	-19.922001	5.2259998	1.476
96	1	7	-0.66825801	-18.493	3.5450001	2.1059999
97	1	8	0.39031601	-19.254	2.9530001	2.4170001
98	1	4	0.114887	-16.725	5.4790001	1.779
99	1	4	0.114887	-17.884001	6.7249999	1.188
100	1	4	0.082589999	-18.083	5.5430002	-1.011
101	1	4	0.082589999	-17.049	4.2059999	-0.405
102	1	4	0.075515002	-15.141	5.8330002	-0.090999998
103	1	4	0.075515002	-15.66	5.5710001	-1.788
104	1	4	0.077381998	-16.360001	8.0270004	-0.035
105	1	4	0.077381998	-17.073999	7.6880002	-1.645
106	1	4	0.077381998	-14.682	7.6230001	-2.605
107	1	4	0.077381998	-15.318	9.21	-2.052
108	1	4	0.077381998	-13.509	7.427	-0.30700001
109	1	4	0.077381998	-14.055	9.0930004	0.056000002
110	1	4	0.077381998	-11.69	8.901	-0.764
111	1	4	0.077381998	-12.251	8.2259998	-2.312
112	1	4	0.077381998	-13.458	10.909	-1.423
113	1	4	0.077381998	-11.724	10.93	-1.801
114	1	4	0.077381998	-13.801	9.7650003	-3.773
115	1	4	0.077381998	-13.379	11.506	-3.6900001
116	1	4	0.077381998	-10.972	10.982	-4.1599998
117	1	4	0.077381998	-11.335	9.2390003	-4.158
118	1	4	0.077381998	-12.87	9.4799995	-6.0960002
119	1	4	0.077381998	-11.199	9.9580002	-6.4650002
120	1	4	0.077381998	-12.792	11.503	-7.5229998
121	1	4	0.077381998	-13.616	11.822	-5.9819999
122	1	4	0.077381998	-11.564	12.981	-5.0949998
123	1	4	0.077381998	-12.206	13.715	-6.5890002
124	1	4	0.075515002	-10.48	12.459	-7.9520001
125	1	4	0.075515002	-9.7819996	11.812	-6.4169998
126	1	4	0.073864996	-10.05	14.801	-7.1370001
127	1	4	0.073864996	-9.323	14.15	-5.6269999
128	1	4	0.110983	-7.625	14.829	-7.3720002
129	1	4	0.110983	-8.3079996	13.611	-8.5030003

Bonds

1	1	1	2
2	2	1	64
3	3	2	3
4	4	2	10
5	4	2	11
6	3	3	4
7	4	3	8
8	4	3	9
9	1	4	5
10	4	4	6
11	4	4	7
12	5	5	12
13	6	12	13
14	7	12	14
15	3	14	15
16	4	14	62
17	4	14	63
18	3	15	16
19	4	15	60
20	4	15	61
21	3	16	17
22	4	16	58
23	4	16	59
24	3	17	18
25	4	17	56
26	4	17	57
27	3	18	19
28	4	18	54
29	4	18	55
30	3	19	20
31	4	19	52
32	4	19	53
33	3	20	21
34	4	20	50
35	4	20	51
36	3	21	22
37	4	21	48
38	4	21	49
39	3	22	23
40	4	22	46
41	4	22	47
42	3	23	24
43	4	23	44
44	4	23	45
45	3	24	25
46	4	24	42
47	4	24	43
48	3	25	26
49	4	25	40
50	4	25	41
51	3	26	27
52	4	26	38
53	4	26	39
54	3	27	28
55	4	27	36
56	4	27	37
57	3	28	29
58	4	28	34
59	4	28	35
60	7	29	30
61	4	29	32
62	4	29	33
63	6	30	31
64	8	30	76
65	1	64	65
66	3	65	66
67	4	65	74
68	4	65	75
69	3	66	67
70	4	66	72
71	4	66	73
72	9	67	68
73	4	67	70
74	4	67	71
75	10	68	69
76	6	76	77
77	7	76	78
78	3	78	79
79	4	78	128
80	4	78	129
81	3	79	80
82	4	79	126
83	4	79	127
84	3	80	81
85	4	80	124
86	4	80	125
87	3	81	82
88	4	81	122
89	4	81	123
90	3	82	83
91	4	82	120
92	4	82	121
93	3	83	84
94	4	83	118
95	4	83	119
96	3	84	85
97	4	84	116
98	4	84	117
99	3	85	86
100	4	85	114
101	4	85	115
102	3	86	87
103	4	86	112
104	4	86	113
105	3	87	88
106	4	87	110
107	4	87	111
108	3	88	89
109	4	88	108
110	4	88	109
111	3	89	90
112	4	89	106
113	4	89	107
114	3	90	91
115	4	90	104
116	4	90	105
117	3	91	92
118	4	91	102
119	4	91	103
120	3	92	93
121	4	92	100
122	4	92	101
123	7	93	94
124	4	93	98
125	4	93	99
126	6	94	95
127	11	94	96
128	10	96	97

Angles

1	1	27	28	34
2	1	19	20	50
3	1	68	67	71
4	1	89	88	109
5	1	87	88	108
6	1	30	29	32
7	1	83	84	117
8	1	20	19	52
9	1	91	92	100
10	5	126	79	127
11	1	80	81	82
12	5	8	3	9
13	1	91	90	104
14	5	10	2	11
15	5	128	78	129
16	1	82	81	122
17	1	89	88	108
18	1	84	85	86
19	5	118	83	119
20	1	14	15	61
21	1	66	67	70
22	1	89	90	105
23	1	90	89	107
24	1	23	22	47
25	1	68	67	70
26	1	18	17	57
27	1	93	92	100
28	5	116	84	117
29	1	86	87	111
30	1	30	29	33
31	1	80	81	123
32	1	92	91	103
33	5	72	66	73
34	1	3	2	11
35	1	85	84	116
36	1	20	21	48
37	5	40	25	41
38	1	3	4	7
39	5	32	29	33
40	1	18	19	53
41	1	19	20	51
42	1	1	2	11
43	1	15	16	59
44	2	1	64	65
45	1	94	93	98
46	5	110	87	111
47	1	5	4	7
48	1	65	66	73
49	1	22	23	24
50	1	21	20	51
51	1	27	26	39
52	1	26	27	36
53	5	122	81	123
54	1	17	18	54
55	1	28	29	32
56	1	85	86	112
57	1	22	23	44
58	1	84	85	115
59	5	48	21	49
60	1	26	25	40
61	5	70	67	71
62	5	104	90	105
63	1	23	24	42
64	1	14	15	16
65	1	16	15	60
66	1	79	80	125
67	1	25	26	27
68	1	3	4	5
69	1	21	20	50
70	1	23	24	25
71	2	67	68	69
72	1	87	86	112
73	1	88	87	110
74	1	24	23	44
75	1	89	90	104
76	1	16	17	56
77	4	31	30	76
78	1	85	84	117
79	5	38	26	39
80	1	90	91	92
81	1	82	83	118
82	1	91	92	93
83	5	120	82	121
84	1	3	4	6
85	1	79	80	81
86	1	66	65	75
87	1	1	2	3
88	1	15	16	58
89	1	26	27	28
90	4	29	30	31
91	1	81	82	120
92	1	86	85	115
93	1	5	4	6
94	1	92	93	99
95	3	95	94	96
96	1	21	22	46
97	1	19	18	55
98	1	64	65	75
99	1	25	26	39
100	5	100	92	101
101	5	114	85	115
102	1	28	29	30
103	1	25	24	43
104	1	81	82	121
105	4	29	30	76
106	5	50	20	51
107	1	2	3	4
108	1	89	90	91
109	1	12	14	62
110	1	82	81	123
111	4	93	94	95
112	5	58	16	59
113	1	84	83	119
114	1	82	83	84
115	1	15	14	63
116	1	20	19	53
117	1	93	92	101
118	1	22	21	48
119	1	22	23	45
120	1	65	66	72
121	1	85	86	87
122	4	93	94	96
123	2	4	5	12
124	1	29	28	35
125	5	56	17	57
126	1	79	80	124
127	1	12	14	63
128	5	74	65	75
129	5	34	28	35
130	1	4	3	9
131	3	5	12	13
132	1	18	19	20
133	5	46	22	47
134	1	94	93	99
135	1	2	3	9
136	1	28	27	36
137	1	24	23	45
138	1	19	20	21
139	1	76	78	128
140	1	81	80	125
141	1	23	22	46
142	5	52	19	53
143	4	5	12	14
144	1	18	17	56
145	1	65	66	67
146	5	44	23	45
147	1	21	22	23
148	1	28	29	33
149	1	3	2	10
150	1	26	27	37
151	1	23	24	43
152	1	88	89	90
153	1	16	17	18
154	1	20	21	49
155	1	78	79	127
156	1	76	78	129
157	1	1	2	10
158	1	12	14	15
159	1	79	78	129
160	1	15	14	62
161	1	66	65	74
162	1	84	83	118
163	1	88	89	106
164	1	85	86	113
165	5	42	24	43
166	4	77	76	78
167	2	2	1	64
168	1	27	26	38
169	1	64	65	74
170	1	17	18	55
171	1	18	19	52
172	1	22	21	49
173	1	86	87	110
174	1	66	67	71
175	1	80	81	122
176	1	86	85	114
177	1	87	88	89
178	1	16	15	61
179	1	24	25	26
180	1	88	87	111
181	1	92	93	94
182	4	30	76	78
183	1	15	16	17
184	5	60	15	61
185	1	83	82	120
186	1	87	86	113
187	1	20	21	22
188	5	124	80	125
189	1	90	91	102
190	1	78	79	80
191	5	102	91	103
192	5	36	27	37
193	1	24	25	41
194	4	13	12	14
195	1	64	65	66
196	1	83	82	121
197	1	91	92	101
198	1	92	93	98
199	4	30	76	77
200	1	24	25	40
201	5	6	4	7
202	1	81	80	124
203	1	91	90	105
204	1	27	28	29
205	1	25	24	42
206	1	16	17	57
207	1	27	28	35
208	1	84	85	114
209	5	62	14	63
210	1	78	79	126
211	1	83	84	116
212	1	17	16	58
213	5	98	93	99
214	1	90	89	106
215	1	79	78	128
216	1	86	87	88
217	1	80	79	126
218	1	83	84	85
219	5	54	18	55
220	1	4	3	8
221	5	106	89	107
222	1	17	18	19
223	1	2	3	8
224	1	82	83	119
225	1	14	15	60
226	1	67	66	73
227	1	25	26	38
228	1	88	89	107
229	1	17	16	59
230	1	21	22	47
231	1	19	18	54
232	2	94	96	97
233	1	67	66	72
234	1	80	79	127
235	1	90	91	103
236	1	66	67	68
237	1	87	88	109
238	1	29	28	34
239	1	26	25	41
240	1	76	78	79
241	1	92	91	102
242	1	28	27	37
243	5	112	86	113
244	5	108	88	109
245	1	81	82	83

Dihedrals

1	12	96	94	93	99
2	6	85	84	83	119
3	1	94	93	92	101
4	6	28	27	26	39
5	6	84	85	86	112
6	6	22	21	20	50
7	13	6	4	3	8
8	18	83	84	85	86
8	19	83	84	85	86
8	20	83	84	85	86
9	5	2	1	64	65
10	18	18	19	20	21
10	19	18	19	20	21
10	20	18	19	20	21
11	6	18	17	16	59
12	13	118	83	82	121
13	13	54	18	17	57
14	2	1	2	3	8
14	3	1	2	3	8
15	13	113	86	85	115
16	13	127	79	78	128
17	6	21	22	23	44
18	6	17	18	19	52
19	13	70	67	66	72
20	1	12	14	15	61
21	6	85	84	83	118
22	13	50	20	19	53
23	6	83	84	85	115
24	14	92	93	94	95
25	6	89	90	91	103
26	13	53	19	18	55
27	6	29	28	27	37
28	18	19	20	21	22
28	19	19	20	21	22
28	20	19	20	21	22
29	18	84	85	86	87
29	19	84	85	86	87
29	20	84	85	86	87
30	12	92	93	94	96
31	18	22	23	24	25
31	19	22	23	24	25
31	20	22	23	24	25
32	6	89	90	91	102
33	13	109	88	87	111
34	6	80	79	78	129
35	2	5	4	3	8
35	3	5	4	3	8
36	1	12	14	15	16
37	6	67	66	65	74
38	6	83	82	81	122
39	6	87	86	85	114
40	6	91	90	89	106
41	13	34	28	27	37
42	6	27	28	29	33
43	18	16	17	18	19
43	19	16	17	18	19
43	20	16	17	18	19
44	6	88	87	86	112
45	13	99	93	92	100
46	13	117	84	83	119
47	6	14	15	16	59
48	13	7	4	3	8
49	13	54	18	17	56
50	6	21	20	19	53
51	13	33	29	28	35
52	13	52	19	18	55
53	6	29	28	27	36
54	6	22	23	24	43
55	6	27	26	25	41
56	9	4	5	12	13
56	10	4	5	12	13
57	6	78	79	80	125
58	6	86	85	84	116
59	18	90	91	92	93
59	19	90	91	92	93
59	20	90	91	92	93
60	12	96	94	93	98
61	13	35	28	27	36
62	6	65	66	67	70
63	6	18	19	20	51
64	6	87	88	89	106
65	11	4	5	12	14
66	13	43	24	23	44
67	13	46	22	21	49
68	18	78	79	80	81
68	19	78	79	80	81
68	20	78	79	80	81
69	13	51	20	19	52
70	13	50	20	19	52
71	13	117	84	83	118
72	6	88	89	90	104
73	13	53	19	18	54
74	13	8	3	2	11
75	13	38	26	25	40
76	12	28	29	30	76
77	13	34	28	27	36
78	13	61	15	14	63
79	13	59	16	15	60
80	13	123	81	80	124
81	18	81	82	83	84
81	19	81	82	83	84
81	20	81	82	83	84
82	13	125	80	79	126
83	13	44	23	22	46
84	1	1	2	3	4
85	21	31	30	76	78
86	13	72	66	65	74
87	18	89	90	91	92
87	19	89	90	91	92
87	20	89	90	91	92
88	12	5	12	14	62
89	13	127	79	78	129
90	18	17	18	19	20
90	19	17	18	19	20
90	20	17	18	19	20
91	6	18	17	16	58
92	13	32	29	28	35
93	13	56	17	16	58
94	4	3	2	1	64
95	14	13	12	14	15
96	6	90	91	92	101
97	13	52	19	18	54
98	13	47	22	21	48
99	6	21	20	19	52
100	6	27	28	29	32
101	6	83	82	81	123
102	18	21	22	23	24
102	19	21	22	23	24
102	20	21	22	23	24
103	13	126	79	78	128
104	6	67	66	65	75
105	24	69	68	67	71
106	13	32	29	28	34
107	6	86	87	88	108
108	13	40	25	24	42
109	6	82	81	80	124
110	13	112	86	85	114
111	6	24	23	22	47
112	13	111	87	86	112
113	6	4	3	2	10
114	6	79	80	81	122
115	1	76	78	79	127
116	4	11	2	1	64
117	13	39	26	25	41
118	13	60	15	14	63
119	12	30	76	78	79
120	15	77	76	78	128
120	16	77	76	78	128
120	17	77	76	78	128
121	6	16	17	18	55
122	13	100	92	91	103
123	13	37	27	26	38
124	13	124	80	79	127
125	13	110	87	86	112
126	21	29	30	76	77
127	1	76	78	79	80
128	6	89	88	87	110
129	13	100	92	91	102
130	13	51	20	19	53
131	6	23	22	21	49
132	6	84	85	86	113
133	13	108	88	87	110
134	13	106	89	88	109
135	4	1	64	65	74
136	12	32	29	30	76
137	13	72	66	65	75
138	18	87	88	89	90
138	19	87	88	89	90
138	20	87	88	89	90
139	6	23	24	25	41
140	18	20	21	22	23
140	19	20	21	22	23
140	20	20	21	22	23
141	4	1	64	65	66
142	6	91	92	93	98
143	6	19	18	17	57
144	6	85	86	87	110
145	13	6	4	3	9
146	13	98	93	92	101
147	6	82	83	84	116
148	13	71	67	66	73
149	6	17	16	15	60
150	6	18	19	20	50
151	14	28	29	30	31
152	13	36	27	26	38
153	13	9	3	2	11
154	13	103	91	90	105
155	6	89	88	87	111
156	13	48	21	20	50
157	6	16	17	18	54
158	13	37	27	26	39
159	2	64	65	66	73
159	3	64	65	66	73
160	6	87	86	85	115
161	13	122	81	80	124
162	6	19	20	21	49
163	18	80	81	82	83
163	19	80	81	82	83
163	20	80	81	82	83
164	6	27	26	25	40
165	22	66	67	68	69
165	23	66	67	68	69
166	6	79	80	81	123
167	13	126	79	78	129
168	6	20	21	22	47
169	6	88	87	86	113
170	13	33	29	28	34
171	12	30	76	78	129
172	13	48	21	20	51
173	13	59	16	15	61
174	13	61	15	14	62
175	6	22	23	24	42
176	1	30	29	28	35
177	13	71	67	66	72
178	6	90	89	88	108
179	13	121	82	81	123
180	13	103	91	90	104
181	2	5	4	3	9
181	3	5	4	3	9
182	15	31	30	29	33
182	16	31	30	29	33
182	17	31	30	29	33
183	13	115	85	84	117
184	13	107	89	88	108
185	6	85	86	87	111
186	6	86	87	88	109
187	12	5	12	14	15
188	6	20	19	18	55
189	2	64	65	66	72
189	3	64	65	66	72
190	6	19	18	17	56
191	1	30	29	28	34
192	15	95	94	93	99
192	16	95	94	93	99
192	17	95	94	93	99
193	1	76	78	79	126
194	13	7	4	3	9
195	13	42	24	23	45
196	6	16	15	14	62
197	24	69	68	67	70
198	1	94	93	92	100
199	13	49	21	20	51
200	13	8	3	2	10
201	6	25	24	23	45
202	13	124	80	79	126
203	13	36	27	26	39
204	13	99	93	92	101
205	6	65	66	67	71
206	4	1	64	65	75
207	13	41	25	24	42
208	21	29	30	76	78
209	6	91	92	93	99
210	6	16	15	14	63
211	1	27	28	29	30
212	13	73	66	65	74
213	13	55	18	17	57
214	13	120	82	81	122
215	2	68	67	66	73
215	3	68	67	66	73
216	13	45	23	22	47
217	12	33	29	30	76
218	13	57	17	16	59
219	6	15	16	17	57
220	13	46	22	21	48
221	6	26	25	24	43
222	18	82	83	84	85
222	19	82	83	84	85
222	20	82	83	84	85
223	13	60	15	14	62
224	1	65	66	67	68
225	6	4	3	2	11
226	6	84	83	82	120
227	18	15	16	17	18
227	19	15	16	17	18
227	20	15	16	17	18
228	6	81	80	79	127
229	6	81	82	83	119
230	13	40	25	24	43
231	18	79	80	81	82
231	19	79	80	81	82
231	20	79	80	81	82
232	18	26	27	28	29
232	19	26	27	28	29
232	20	26	27	28	29
233	18	23	24	25	26
233	19	23	24	25	26
233	20	23	24	25	26
234	6	26	27	28	35
235	6	80	81	82	120
236	13	39	26	25	40
237	13	123	81	80	125
238	13	121	82	81	122
239	1	91	92	93	94
240	13	112	86	85	115
241	18	86	87	88	89
241	19	86	87	88	89
241	20	86	87	88	89
242	18	24	25	26	27
242	19	24	25	26	27
242	20	24	25	26	27
243	13	58	16	15	60
244	6	20	19	18	54
245	25	93	94	96	97
246	2	68	67	66	72
246	3	68	67	66	72
247	13	104	90	89	107
248	13	43	24	23	45
249	13	125	80	79	127
250	13	111	87	86	113
251	13	113	86	85	114
252	14	77	76	78	79
253	21	31	30	76	77
254	6	24	23	22	46
255	6	81	82	83	118
256	6	14	15	16	58
257	6	26	27	28	34
258	6	83	84	85	114
259	13	110	87	86	113
260	6	86	85	84	117
261	13	56	17	16	59
262	13	119	83	82	120
263	13	55	18	17	56
264	15	95	94	93	98
264	16	95	94	93	98
264	17	95	94	93	98
265	6	78	79	80	124
266	18	88	89	90	91
266	19	88	89	90	91
266	20	88	89	90	91
267	6	17	16	15	61
268	6	23	24	25	40
269	6	15	16	17	56
270	13	105	90	89	107
271	6	22	21	20	51
272	6	25	26	27	37
273	6	90	89	88	109
274	13	42	24	23	44
275	6	82	81	80	125
276	6	25	24	23	44
277	1	12	14	15	60
278	13	116	84	83	119
279	13	107	89	88	109
280	2	1	2	3	9
280	3	1	2	3	9
281	13	120	82	81	123
282	13	118	83	82	120
283	13	73	66	65	75
284	13	35	28	27	37
285	13	114	85	84	117
286	18	14	15	16	17
286	19	14	15	16	17
286	20	14	15	16	17
287	6	93	92	91	103
288	13	108	88	87	111
289	6	93	92	91	102
290	13	116	84	83	118
291	6	23	22	21	48
292	13	9	3	2	10
293	6	88	89	90	105
294	6	24	25	26	38
295	6	25	26	27	36
296	13	106	89	88	108
297	6	90	91	92	100
298	13	47	22	21	49
299	13	49	21	20	50
300	13	57	17	16	58
301	15	77	76	78	129
301	16	77	76	78	129
301	17	77	76	78	129
302	13	44	23	22	47
303	6	21	22	23	45
304	13	104	90	89	106
305	6	20	21	22	46
306	18	25	26	27	28
306	19	25	26	27	28
306	20	25	26	27	28
307	6	81	80	79	126
308	13	101	92	91	103
309	6	2	3	4	7
310	6	28	27	26	38
311	13	38	26	25	41
312	1	64	65	66	67
313	13	101	92	91	102
314	6	84	83	82	121
315	6	80	79	78	128
316	26	95	94	96	97
316	27	95	94	96	97
317	18	85	86	87	88
317	19	85	86	87	88
317	20	85	86	87	88
318	13	102	91	90	105
319	4	6	4	5	12
320	6	17	18	19	53
321	6	80	81	82	121
322	13	114	85	84	116
323	13	41	25	24	43
324	6	2	3	4	6
325	13	122	81	80	125
326	6	19	20	21	48
327	13	105	90	89	106
328	6	91	90	89	107
329	6	92	91	90	105
330	12	5	12	14	63
331	6	24	25	26	39
332	13	102	91	90	104
333	4	10	2	1	64
334	13	58	16	15	61
335	15	13	12	14	62
335	16	13	12	14	62
335	17	13	12	14	62
336	13	70	67	66	73
337	7	3	4	5	12
337	8	3	4	5	12
338	1	2	3	4	5
339	13	45	23	22	46
340	13	115	85	84	116
341	6	26	25	24	42
342	13	119	83	82	121
343	6	82	83	84	117
344	6	87	88	89	107
345	4	7	4	5	12
346	15	31	30	29	32
346	16	31	30	29	32
346	17	31	30	29	32
347	13	109	88	87	110
348	15	13	12	14	63
348	16	13	12	14	63
348	17	13	12	14	63
349	12	30	76	78	128
350	13	98	93	92	100
351	6	92	91	90	104

Impropers

57	1	94	93	95	96
75	2	30	31	76	29
297	1	94	95	96	93
345	2	30	76	29	31
375	1	12	13	14	5
377	1	12	14	5	13
660	1	94	96	93	95
833	2	76	77	78	30
866	2	76	78	30	77
871	2	30	29	31	76
896	1	12	5	13	14
903	2	76	30	77	78
