Title

129 atoms
128 bonds
245 angles
431 dihedrals
12 impropers

8 atom types
11 bond types
5 angle types
27 dihedral types
2 improper types
-19.92200089 80.07799911 xlo xhi
-1.297000051 98.70299995 ylo yhi
-8.510000229 91.48999977 zlo zhi
0.0 0.0 0.0 xy xz yz

Masses

1	15.99943
2	12.01078
3	1.007947
4	1.007947
5	12.01078
6	15.99943
7	15.99943
8	1.007947


Pair Coeffs

1	0.16846514	3.0251065
2	0.10884061	3.3795318
3	0.016409246	2.5832257
4	0.015779483	2.6445434
5	0.086879315	3.4806469
6	0.2102061	3.0398122
7	0.20947353	2.99716
8	1.2326e-05	0.53453923

Bond Coeffs

1 harmonic	366.7408841747	1.425895053732
2 harmonic	300.03137914615	1.451203938761
3 harmonic	264.62148576755	1.52190126495
4 harmonic	370.04670688625	1.093899492634
5 harmonic	301.15400723785	1.345741232799
6 harmonic	582.698766451	1.225198386222
7 harmonic	329.44145381095	1.523435958334
8 harmonic	279.1350963404	1.454628925034
9 harmonic	329.96998057905	1.427343958716
10 harmonic	543.5267831885	0.9716763312559
11 harmonic	385.7604595587	1.369745182308


Angle Coeffs

1 harmonic	53.20531626545	116.5475862634
2 harmonic	65.09061609600001	110.3538806181
3 harmonic	201.41175231035	127.4691416191
4 harmonic	57.8982893754	126.8062420451
5 harmonic	48.776492647595	115.6030999533


Dihedral Coeffs

1 fourier 1	0.1155372516788	3	0
2 fourier 1	0.1115525666802	3	0
3 fourier 1	0.3432490222662	1	0
4 fourier 1	0.0473758381877	3	0
5 fourier 1	0.457973137376	1	0
6 fourier 1	0.1040663847541	3	0
7 fourier 1	0.1918272375143	3	0
8 fourier 1	0.9202179876409	1	180
9 fourier 1	1.163809172478	2	180
10 fourier 1	0.1679186987369	1	180
11 fourier 1	2.779853741805	2	180
12 fourier 1	0.02664938770063	3	0
13 fourier 1	0.1911926717192	3	0
14 fourier 1	-0.3703352413219	2	0
15 fourier 1	0.4541676554336	1	0
16 fourier 1	0.1489710476446	2	0
17 fourier 1	0.02960027280666	3	180
18 fourier 1	0.09223874044423	3	0
19 fourier 1	0.3159935921949	2	180
20 fourier 1	0.3247796806857	1	180
21 fourier 1	0.9974165607242	2	180
22 fourier 1	0.3445382149273	3	0
23 fourier 1	0.1364556373303	1	0
24 fourier 1	0.3026390167484	3	0
25 fourier 1	2.687457892086	2	180
26 fourier 1	2.772607909663	2	180
27 fourier 1	0.09692684957115	1	0


Improper Coeffs

1 3.5	-1	2
2 0.3666666666666667	-1	2


Atoms

1	1	1	-0.18686	-1.834	0.66500002	-0.51800001
2	1	2	0.038697999	-1.288	-0.54500002	-0.064999998
3	1	2	-0.137413	0.113	-0.331	0.51700002
4	1	2	0.143718	1.099	0.17299999	-0.54100001
5	1	1	-0.49729699	2.3800001	0.29899999	0.012
6	1	3	0.074413002	0.76099998	1.15	-0.95499998
7	1	3	0.074413002	1.149	-0.55599999	-1.378
8	1	4	0.087517001	0.48199999	-1.2970001	0.926
9	1	4	0.087517001	0.057	0.39899999	1.354
10	1	3	0.076398	-1.949	-0.99699998	0.70999998
11	1	3	0.076398	-1.2359999	-1.258	-0.91600001
12	1	5	0.75929701	2.3710001	1.163	0.58899999
13	1	6	-0.567505	1.571	1.268	1.505
14	1	2	-0.210039	3.349	2.2650001	0.30199999
15	1	2	-0.11675	2.6489999	3.556	-0.14300001
16	1	2	-0.137418	1.972	3.4059999	-1.513
17	1	2	-0.142757	1.323	4.723	-1.954
18	1	2	-0.142858	0.63200003	4.566	-3.3169999
19	1	2	-0.142858	0.089000002	5.8959999	-3.865
20	1	2	-0.142858	-1.145	6.3940001	-3.0929999
21	1	2	-0.142858	-1.732	7.684	-3.6889999
22	1	2	-0.142858	-2.5969999	7.4169998	-4.9330001
23	1	2	-0.142858	-3.076	8.71	-5.619
24	1	2	-0.142858	-3.9649999	9.6210003	-4.7519999
25	1	2	-0.142858	-5.2729998	8.941	-4.3150001
26	1	2	-0.142757	-6.2150002	9.8909998	-3.556
27	1	2	-0.14006899	-6.8390002	11.012	-4.4120002
28	1	2	-0.098384	-7.7589998	10.496	-5.5409999
29	1	2	-0.25892699	-7.1009998	10.546	-6.9289999
30	1	5	0.51491398	-6.9250002	11.954	-7.4229999
31	1	6	-0.705733	-6.4099998	12.157	-8.5100002
32	1	4	0.110983	-7.7490001	10.002	-7.6490002
33	1	4	0.110983	-6.1149998	10.04	-6.9120002
34	1	4	0.073864996	-8.085	9.4540005	-5.3309999
35	1	4	0.073864996	-8.6870003	11.11	-5.566
36	1	4	0.075515002	-7.4559999	11.634	-3.7279999
37	1	4	0.075515002	-6.0510001	11.689	-4.8010001
38	1	4	0.077381998	-7.0359998	9.29	-3.1070001
39	1	4	0.077381998	-5.6589999	10.354	-2.7119999
40	1	4	0.077381998	-5.7940001	8.4949999	-5.1880002
41	1	4	0.077381998	-5.027	8.1079998	-3.6229999
42	1	4	0.077381998	-3.404	9.9750004	-3.862
43	1	4	0.077381998	-4.198	10.518	-5.3629999
44	1	4	0.077381998	-2.187	9.2919998	-5.9460001
45	1	4	0.077381998	-3.638	8.434	-6.5380001
46	1	4	0.077381998	-3.4649999	6.7789998	-4.664
47	1	4	0.077381998	-2.0050001	6.8509998	-5.6820002
48	1	4	0.077381998	-2.3659999	8.1540003	-2.908
49	1	4	0.077381998	-0.91299999	8.3950005	-3.9349999
50	1	4	0.077381998	-0.84899998	6.6139998	-2.0450001
51	1	4	0.077381998	-1.926	5.6020002	-3.063
52	1	4	0.077381998	-0.18099999	5.7329998	-4.9289999
53	1	4	0.077381998	0.889	6.6680002	-3.8380001
54	1	4	0.077381998	-0.19400001	3.825	-3.24
55	1	4	0.077381998	1.3710001	4.171	-4.0489998
56	1	4	0.077381998	0.57700002	5.0279999	-1.189
57	1	4	0.077381998	2.1040001	5.5110002	-2.023
58	1	4	0.075515002	1.191	2.6159999	-1.4579999
59	1	4	0.075515002	2.7309999	3.099	-2.266
60	1	4	0.082589999	1.898	3.858	0.62099999
61	1	4	0.082589999	3.4130001	4.362	-0.20299999
62	1	4	0.113884	3.937	2.4679999	1.223
63	1	4	0.113884	4.0599999	1.933	-0.48500001
64	1	1	-0.186149	-2.105	1.174	0.28999999
65	1	2	0.047107998	-1.397	2.3840001	0.25799999
66	1	2	-0.172668	0.071999997	2.1700001	0.639
67	1	2	0.093883999	0.22	1.666	2.0780001
68	1	7	-0.68798101	1.576	1.54	2.4100001
69	1	8	0.374156	1.901	0.71399999	1.965
70	1	3	0.068061002	-0.29899999	0.68800002	2.2049999
71	1	3	0.068061002	-0.24600001	2.395	2.776
72	1	4	0.091278002	0.61299998	3.135	0.53500003
73	1	4	0.091278002	0.53299999	1.4400001	-0.061999999
74	1	3	0.076232001	-1.456	2.836	-0.75800002
75	1	3	0.076232001	-1.868	3.0969999	0.96799999
76	1	5	0.51491398	-7.2490001	12.799	-6.8239999
77	1	6	-0.705733	-6.882	12.892	-5.664
78	1	2	-0.25892699	-8.1409998	13.844	-7.428
79	1	2	-0.098384	-9.4910002	13.941	-6.7069998
80	1	2	-0.14006899	-10.33	12.664	-6.8699999
81	1	2	-0.142757	-11.698	12.812	-6.184
82	1	2	-0.142858	-12.623	11.607	-6.4289999
83	1	2	-0.142858	-12.101	10.258	-5.8920002
84	1	2	-0.142858	-11.764	10.238	-4.3889999
85	1	2	-0.142858	-12.997	10.481	-3.5020001
86	1	2	-0.142858	-12.67	10.379	-2.0009999
87	1	2	-0.142858	-12.529	8.9259996	-1.494
88	1	2	-0.142858	-13.779	8.3990002	-0.76800001
89	1	2	-0.142858	-14.98	8.21	-1.7079999
90	1	2	-0.142757	-16.173	7.5320001	-1.012
91	1	2	-0.137418	-15.96	6.02	-0.81699997
92	1	2	-0.114218	-17.231001	5.3010001	-0.33700001
93	1	2	-0.22013301	-17.598	5.6539998	1.113
94	1	5	0.82115102	-18.739	4.8099999	1.584
95	1	6	-0.56956702	-19.922001	5.2259998	1.476
96	1	7	-0.66825801	-18.493	3.5450001	2.1059999
97	1	8	0.39031601	-19.254	2.9530001	2.4170001
98	1	4	0.114887	-16.725	5.4790001	1.779
99	1	4	0.114887	-17.884001	6.7249999	1.188
100	1	4	0.082589999	-18.083	5.5430002	-1.011
101	1	4	0.082589999	-17.049	4.2059999	-0.405
102	1	4	0.075515002	-15.141	5.8330002	-0.090999998
103	1	4	0.075515002	-15.66	5.5710001	-1.788
104	1	4	0.077381998	-16.360001	8.0270004	-0.035
105	1	4	0.077381998	-17.073999	7.6880002	-1.645
106	1	4	0.077381998	-14.682	7.6230001	-2.605
107	1	4	0.077381998	-15.318	9.21	-2.052
108	1	4	0.077381998	-13.509	7.427	-0.30700001
109	1	4	0.077381998	-14.055	9.0930004	0.056000002
110	1	4	0.077381998	-11.69	8.901	-0.764
111	1	4	0.077381998	-12.251	8.2259998	-2.312
112	1	4	0.077381998	-13.458	10.909	-1.423
113	1	4	0.077381998	-11.724	10.93	-1.801
114	1	4	0.077381998	-13.801	9.7650003	-3.773
115	1	4	0.077381998	-13.379	11.506	-3.6900001
116	1	4	0.077381998	-10.972	10.982	-4.1599998
117	1	4	0.077381998	-11.335	9.2390003	-4.158
118	1	4	0.077381998	-12.87	9.4799995	-6.0960002
119	1	4	0.077381998	-11.199	9.9580002	-6.4650002
120	1	4	0.077381998	-12.792	11.503	-7.5229998
121	1	4	0.077381998	-13.616	11.822	-5.9819999
122	1	4	0.077381998	-11.564	12.981	-5.0949998
123	1	4	0.077381998	-12.206	13.715	-6.5890002
124	1	4	0.075515002	-10.48	12.459	-7.9520001
125	1	4	0.075515002	-9.7819996	11.812	-6.4169998
126	1	4	0.073864996	-10.05	14.801	-7.1370001
127	1	4	0.073864996	-9.323	14.15	-5.6269999
128	1	4	0.110983	-7.625	14.829	-7.3720002
129	1	4	0.110983	-8.3079996	13.611	-8.5030003

Bonds

1	1	1	2
2	2	1	64
3	3	2	3
4	4	2	10
5	4	2	11
6	3	3	4
7	4	3	8
8	4	3	9
9	1	4	5
10	4	4	6
11	4	4	7
12	5	5	12
13	6	12	13
14	7	12	14
15	3	14	15
16	4	14	62
17	4	14	63
18	3	15	16
19	4	15	60
20	4	15	61
21	3	16	17
22	4	16	58
23	4	16	59
24	3	17	18
25	4	17	56
26	4	17	57
27	3	18	19
28	4	18	54
29	4	18	55
30	3	19	20
31	4	19	52
32	4	19	53
33	3	20	21
34	4	20	50
35	4	20	51
36	3	21	22
37	4	21	48
38	4	21	49
39	3	22	23
40	4	22	46
41	4	22	47
42	3	23	24
43	4	23	44
44	4	23	45
45	3	24	25
46	4	24	42
47	4	24	43
48	3	25	26
49	4	25	40
50	4	25	41
51	3	26	27
52	4	26	38
53	4	26	39
54	3	27	28
55	4	27	36
56	4	27	37
57	3	28	29
58	4	28	34
59	4	28	35
60	7	29	30
61	4	29	32
62	4	29	33
63	6	30	31
64	8	30	76
65	1	64	65
66	3	65	66
67	4	65	74
68	4	65	75
69	3	66	67
70	4	66	72
71	4	66	73
72	9	67	68
73	4	67	70
74	4	67	71
75	10	68	69
76	6	76	77
77	7	76	78
78	3	78	79
79	4	78	128
80	4	78	129
81	3	79	80
82	4	79	126
83	4	79	127
84	3	80	81
85	4	80	124
86	4	80	125
87	3	81	82
88	4	81	122
89	4	81	123
90	3	82	83
91	4	82	120
92	4	82	121
93	3	83	84
94	4	83	118
95	4	83	119
96	3	84	85
97	4	84	116
98	4	84	117
99	3	85	86
100	4	85	114
101	4	85	115
102	3	86	87
103	4	86	112
104	4	86	113
105	3	87	88
106	4	87	110
107	4	87	111
108	3	88	89
109	4	88	108
110	4	88	109
111	3	89	90
112	4	89	106
113	4	89	107
114	3	90	91
115	4	90	104
116	4	90	105
117	3	91	92
118	4	91	102
119	4	91	103
120	3	92	93
121	4	92	100
122	4	92	101
123	7	93	94
124	4	93	98
125	4	93	99
126	6	94	95
127	11	94	96
128	10	96	97

Angles

1	1	18	17	56
2	1	28	27	36
3	1	29	28	35
4	1	65	66	72
5	1	25	26	38
6	1	66	67	68
7	1	76	78	79
8	1	85	84	116
9	1	3	4	6
10	1	27	28	34
11	5	114	85	115
12	1	25	26	27
13	1	2	3	9
14	1	87	88	108
15	1	26	25	41
16	1	82	81	123
17	1	22	23	44
18	1	89	90	104
19	5	124	80	125
20	5	54	18	55
21	1	79	78	129
22	1	22	23	24
23	1	94	93	98
24	1	68	67	71
25	1	21	22	46
26	1	30	29	33
27	1	90	91	103
28	5	40	25	41
29	1	25	26	39
30	5	106	89	107
31	1	17	18	19
32	1	20	21	22
33	5	46	22	47
34	1	20	21	49
35	1	87	88	109
36	1	24	25	26
37	1	22	23	45
38	1	3	2	10
39	5	118	83	119
40	1	88	89	90
41	1	21	22	47
42	1	14	15	16
43	1	64	65	75
44	2	94	96	97
45	5	58	16	59
46	1	92	93	99
47	1	90	91	92
48	4	13	12	14
49	1	27	26	38
50	1	90	89	106
51	1	15	14	62
52	1	25	24	42
53	5	110	87	111
54	1	67	66	73
55	1	18	19	52
56	5	32	29	33
57	1	85	86	112
58	1	80	81	82
59	1	83	84	85
60	4	29	30	76
61	1	21	22	23
62	5	116	84	117
63	1	20	19	52
64	1	87	86	112
65	5	48	21	49
66	1	17	18	54
67	1	5	4	7
68	1	22	21	48
69	1	28	29	30
70	1	15	16	58
71	2	4	5	12
72	5	70	67	71
73	1	19	18	54
74	1	84	83	119
75	1	86	85	114
76	1	14	15	60
77	1	81	82	120
78	1	91	90	104
79	3	5	12	13
80	1	23	24	25
81	1	16	15	60
82	1	23	22	47
83	1	27	26	39
84	1	83	82	120
85	1	19	20	50
86	1	86	87	110
87	1	90	89	107
88	5	98	93	99
89	5	108	88	109
90	1	76	78	128
91	1	78	79	126
92	1	85	86	113
93	1	18	17	57
94	1	28	27	37
95	1	65	66	73
96	2	2	1	64
97	1	85	84	117
98	1	91	92	100
99	1	1	2	10
100	1	3	4	7
101	1	16	17	56
102	1	17	18	55
103	1	27	28	35
104	1	83	84	116
105	5	128	78	129
106	1	89	90	105
107	1	84	85	86
108	1	26	27	36
109	1	82	83	118
110	1	91	92	93
111	1	81	82	121
112	1	94	93	99
113	1	12	14	62
114	1	79	80	124
115	1	3	2	11
116	1	12	14	15
117	5	44	23	45
118	1	86	87	111
119	2	67	68	69
120	1	66	67	70
121	1	3	4	5
122	1	86	87	88
123	1	91	92	101
124	5	72	66	73
125	5	34	28	35
126	1	79	80	81
127	5	100	92	101
128	5	126	79	127
129	1	92	91	102
130	5	6	4	7
131	1	17	16	58
132	1	4	3	8
133	1	26	27	28
134	1	1	2	3
135	1	2	3	4
136	1	89	88	108
137	5	56	17	57
138	1	78	79	80
139	1	21	20	50
140	1	88	87	110
141	1	80	79	126
142	1	93	92	100
143	1	67	66	72
144	1	15	14	63
145	1	25	24	43
146	1	81	80	124
147	1	92	91	103
148	1	18	19	53
149	1	88	89	106
150	5	120	82	121
151	1	80	81	122
152	1	20	19	53
153	1	87	86	113
154	5	104	90	105
155	1	16	17	18
156	1	89	88	109
157	1	24	23	44
158	1	15	16	59
159	5	60	15	61
160	1	82	81	122
161	1	19	18	55
162	1	86	85	115
163	1	89	90	91
164	1	88	87	111
165	1	1	2	11
166	1	65	66	67
167	1	14	15	61
168	5	8	3	9
169	1	24	25	40
170	1	66	65	74
171	1	84	85	114
172	4	5	12	14
173	1	91	90	105
174	1	68	67	70
175	1	16	15	61
176	1	83	82	121
177	1	93	92	101
178	1	19	20	51
179	1	15	16	17
180	4	30	76	77
181	1	81	80	125
182	1	82	83	84
183	1	76	78	129
184	1	78	79	127
185	5	74	65	75
186	1	23	24	42
187	1	88	89	107
188	1	90	91	102
189	1	80	81	123
190	1	16	17	57
191	1	83	84	117
192	4	29	30	31
193	1	28	29	32
194	1	24	23	45
195	4	77	76	78
196	5	102	91	103
197	1	20	21	48
198	4	31	30	76
199	1	26	27	37
200	1	82	83	119
201	1	81	82	83
202	1	24	25	41
203	1	66	65	75
204	1	84	85	115
205	1	12	14	63
206	5	52	19	53
207	1	85	86	87
208	2	1	64	65
209	1	64	65	74
210	4	30	76	78
211	1	79	80	125
212	4	93	94	95
213	3	95	94	96
214	1	23	24	43
215	5	62	14	63
216	1	92	93	98
217	1	66	67	71
218	5	38	26	39
219	1	28	29	33
220	1	19	20	21
221	5	122	81	123
222	1	17	16	59
223	1	29	28	34
224	1	92	93	94
225	1	4	3	9
226	5	112	86	113
227	1	22	21	49
228	1	5	4	6
229	1	2	3	8
230	1	26	25	40
231	4	93	94	96
232	1	18	19	20
233	1	64	65	66
234	1	84	83	118
235	1	21	20	51
236	5	42	24	43
237	1	80	79	127
238	1	79	78	128
239	5	36	27	37
240	5	50	20	51
241	1	27	28	29
242	1	23	22	46
243	5	10	2	11
244	1	30	29	32
245	1	87	88	89

Dihedrals

1	6	25	26	27	36
2	6	2	3	4	7
3	13	34	28	27	36
4	18	87	88	89	90
4	19	87	88	89	90
4	20	87	88	89	90
5	1	12	14	15	60
6	13	105	90	89	107
7	6	22	21	20	50
8	6	19	20	21	48
9	13	42	24	23	45
10	1	65	66	67	68
11	2	68	67	66	72
11	3	68	67	66	72
12	6	87	86	85	114
13	18	84	85	86	87
13	19	84	85	86	87
13	20	84	85	86	87
14	12	96	94	93	98
15	15	13	12	14	63
15	16	13	12	14	63
15	17	13	12	14	63
16	2	5	4	3	9
16	3	5	4	3	9
17	13	118	83	82	121
18	6	25	24	23	44
19	1	76	78	79	127
20	6	89	90	91	103
21	6	86	85	84	116
22	13	108	88	87	110
23	6	90	91	92	100
24	6	26	27	28	35
25	12	30	76	78	129
26	13	121	82	81	122
27	13	123	81	80	125
28	13	49	21	20	50
29	18	17	18	19	20
29	19	17	18	19	20
29	20	17	18	19	20
30	1	76	78	79	80
31	13	102	91	90	104
32	18	15	16	17	18
32	19	15	16	17	18
32	20	15	16	17	18
33	25	93	94	96	97
34	18	90	91	92	93
34	19	90	91	92	93
34	20	90	91	92	93
35	13	73	66	65	74
36	6	79	80	81	123
37	6	28	27	26	38
38	6	85	86	87	111
39	18	22	23	24	25
39	19	22	23	24	25
39	20	22	23	24	25
40	2	1	2	3	9
40	3	1	2	3	9
41	13	48	21	20	50
42	13	72	66	65	74
43	13	7	4	3	9
44	6	80	81	82	121
45	13	104	90	89	106
46	13	43	24	23	44
47	13	122	81	80	124
48	6	85	84	83	118
49	13	6	4	3	9
50	13	35	28	27	37
51	6	81	82	83	118
52	7	3	4	5	12
52	8	3	4	5	12
53	6	89	88	87	111
54	13	37	27	26	38
55	13	116	84	83	118
56	6	90	89	88	108
57	6	26	25	24	43
58	13	57	17	16	58
59	6	91	90	89	107
60	13	41	25	24	43
61	6	88	87	86	113
62	2	64	65	66	73
62	3	64	65	66	73
63	13	9	3	2	11
64	13	51	20	19	53
65	6	82	83	84	117
66	13	42	24	23	44
67	12	33	29	30	76
68	6	17	18	19	53
69	13	36	27	26	39
70	18	81	82	83	84
70	19	81	82	83	84
70	20	81	82	83	84
71	13	39	26	25	41
72	13	119	83	82	120
73	15	13	12	14	62
73	16	13	12	14	62
73	17	13	12	14	62
74	13	70	67	66	73
75	14	13	12	14	15
76	13	118	83	82	120
77	13	59	16	15	61
78	1	12	14	15	16
79	13	112	86	85	115
80	13	115	85	84	116
81	18	79	80	81	82
81	19	79	80	81	82
81	20	79	80	81	82
82	6	16	15	14	63
83	18	86	87	88	89
83	19	86	87	88	89
83	20	86	87	88	89
84	12	30	76	78	128
85	13	123	81	80	124
86	15	95	94	93	99
86	16	95	94	93	99
86	17	95	94	93	99
87	13	52	19	18	54
88	6	20	19	18	55
89	13	8	3	2	10
90	6	82	81	80	125
91	6	17	16	15	61
92	1	91	92	93	94
93	13	127	79	78	129
94	6	85	86	87	110
95	13	54	18	17	57
96	13	44	23	22	47
97	6	86	87	88	109
98	13	126	79	78	128
99	13	7	4	3	8
100	6	80	81	82	120
101	13	38	26	25	41
102	13	35	28	27	36
103	6	89	88	87	110
104	6	92	91	90	105
105	13	32	29	28	35
106	6	27	28	29	32
107	6	29	28	27	37
108	6	87	88	89	106
109	13	117	84	83	119
110	13	41	25	24	42
111	6	88	87	86	112
112	2	64	65	66	72
112	3	64	65	66	72
113	13	111	87	86	113
114	24	69	68	67	71
115	4	10	2	1	64
116	13	51	20	19	52
117	6	19	18	17	57
118	6	23	22	21	49
119	6	67	66	65	75
120	1	94	93	92	100
121	18	89	90	91	92
121	19	89	90	91	92
121	20	89	90	91	92
122	12	92	93	94	96
123	6	78	79	80	124
124	13	36	27	26	38
125	13	53	19	18	55
126	13	106	89	88	109
127	13	56	17	16	58
128	6	24	23	22	46
129	13	59	16	15	60
130	13	100	92	91	103
131	6	14	15	16	59
132	13	58	16	15	60
133	13	112	86	85	114
134	6	18	19	20	51
135	13	124	80	79	127
136	15	95	94	93	98
136	16	95	94	93	98
136	17	95	94	93	98
137	6	81	80	79	126
138	6	65	66	67	70
139	13	103	91	90	104
140	6	18	17	16	58
141	6	82	81	80	124
142	13	120	82	81	123
143	6	17	16	15	60
144	13	99	93	92	101
145	13	127	79	78	128
146	13	114	85	84	117
147	13	110	87	86	112
148	6	83	84	85	115
149	13	98	93	92	101
150	6	20	21	22	47
151	13	38	26	25	40
152	6	21	22	23	45
153	6	4	3	2	11
154	6	92	91	90	104
155	13	32	29	28	34
156	18	80	81	82	83
156	19	80	81	82	83
156	20	80	81	82	83
157	6	29	28	27	36
158	4	1	64	65	66
159	13	117	84	83	118
160	13	111	87	86	112
161	6	27	26	25	41
162	6	2	3	4	6
163	6	19	18	17	56
164	13	105	90	89	106
165	6	84	83	82	121
166	1	1	2	3	4
167	18	18	19	20	21
167	19	18	19	20	21
167	20	18	19	20	21
168	6	67	66	65	74
169	6	24	25	26	39
170	6	84	85	86	113
171	13	8	3	2	11
172	13	107	89	88	109
173	6	88	89	90	105
174	6	93	92	91	103
175	13	45	23	22	47
176	12	28	29	30	76
177	6	80	79	78	129
178	5	2	1	64	65
179	6	91	92	93	99
180	18	16	17	18	19
180	19	16	17	18	19
180	20	16	17	18	19
181	13	53	19	18	54
182	13	106	89	88	108
183	18	25	26	27	28
183	19	25	26	27	28
183	20	25	26	27	28
184	6	23	24	25	41
185	2	5	4	3	8
185	3	5	4	3	8
186	13	34	28	27	37
187	1	76	78	79	126
188	13	100	92	91	102
189	6	22	21	20	51
190	15	31	30	29	33
190	16	31	30	29	33
190	17	31	30	29	33
191	12	32	29	30	76
192	6	89	90	91	102
193	12	5	12	14	63
194	13	46	22	21	49
195	6	26	27	28	34
196	2	68	67	66	73
196	3	68	67	66	73
197	6	21	20	19	53
198	4	3	2	1	64
199	13	99	93	92	100
200	6	79	80	81	122
201	13	60	15	14	63
202	12	96	94	93	99
203	13	114	85	84	116
204	13	9	3	2	10
205	18	88	89	90	91
205	19	88	89	90	91
205	20	88	89	90	91
206	6	25	24	23	45
207	13	55	18	17	57
208	2	1	2	3	8
208	3	1	2	3	8
209	6	83	84	85	114
210	13	98	93	92	100
211	1	2	3	4	5
212	6	20	21	22	46
213	13	6	4	3	8
214	13	121	82	81	123
215	13	49	21	20	51
216	6	26	25	24	42
217	6	15	16	17	57
218	13	102	91	90	105
219	14	77	76	78	79
220	6	91	90	89	106
221	13	33	29	28	35
222	11	4	5	12	14
223	18	82	83	84	85
223	19	82	83	84	85
223	20	82	83	84	85
224	6	27	26	25	40
225	13	72	66	65	75
226	4	7	4	5	12
227	6	84	83	82	120
228	4	6	4	5	12
229	6	85	84	83	119
230	6	24	25	26	38
231	13	47	22	21	49
232	6	82	83	84	116
233	13	71	67	66	73
234	13	57	17	16	59
235	6	17	18	19	52
236	6	93	92	91	102
237	13	45	23	22	46
238	13	39	26	25	40
239	13	70	67	66	72
240	6	23	24	25	40
241	15	31	30	29	32
241	16	31	30	29	32
241	17	31	30	29	32
242	13	125	80	79	127
243	6	16	15	14	62
244	18	20	21	22	23
244	19	20	21	22	23
244	20	20	21	22	23
245	12	5	12	14	62
246	13	101	92	91	103
247	12	5	12	14	15
248	6	20	19	18	54
249	6	21	20	19	52
250	21	31	30	76	78
251	6	22	23	24	43
252	21	29	30	76	78
253	13	60	15	14	62
254	13	119	83	82	121
255	1	64	65	66	67
256	13	55	18	17	56
257	13	54	18	17	56
258	6	23	22	21	48
259	13	44	23	22	46
260	6	86	87	88	108
261	13	115	85	84	117
262	13	47	22	21	48
263	18	83	84	85	86
263	19	83	84	85	86
263	20	83	84	85	86
264	13	109	88	87	111
265	13	52	19	18	55
266	6	15	16	17	56
267	13	61	15	14	63
268	4	1	64	65	75
269	13	33	29	28	34
270	1	30	29	28	35
271	9	4	5	12	13
271	10	4	5	12	13
272	24	69	68	67	70
273	18	23	24	25	26
273	19	23	24	25	26
273	20	23	24	25	26
274	15	77	76	78	129
274	16	77	76	78	129
274	17	77	76	78	129
275	18	78	79	80	81
275	19	78	79	80	81
275	20	78	79	80	81
276	13	126	79	78	129
277	13	113	86	85	115
278	6	27	28	29	33
279	6	83	82	81	123
280	13	71	67	66	72
281	14	92	93	94	95
282	6	87	88	89	107
283	13	50	20	19	53
284	13	40	25	24	43
285	6	16	17	18	55
286	6	25	26	27	37
287	1	12	14	15	61
288	6	14	15	16	58
289	26	95	94	96	97
289	27	95	94	96	97
290	18	85	86	87	88
290	19	85	86	87	88
290	20	85	86	87	88
291	6	18	19	20	50
292	13	125	80	79	126
293	13	124	80	79	126
294	6	4	3	2	10
295	13	101	92	91	102
296	1	94	93	92	101
297	6	78	79	80	125
298	13	120	82	81	122
299	21	31	30	76	77
300	14	28	29	30	31
301	6	87	86	85	115
302	6	22	23	24	42
303	21	29	30	76	77
304	13	56	17	16	59
305	6	24	23	22	47
306	12	30	76	78	79
307	13	58	16	15	61
308	6	86	85	84	117
309	6	21	22	23	44
310	13	108	88	87	111
311	6	90	91	92	101
312	13	109	88	87	110
313	18	21	22	23	24
313	19	21	22	23	24
313	20	21	22	23	24
314	18	19	20	21	22
314	19	19	20	21	22
314	20	19	20	21	22
315	1	27	28	29	30
316	22	66	67	68	69
316	23	66	67	68	69
317	6	19	20	21	49
318	6	81	80	79	127
319	6	65	66	67	71
320	13	103	91	90	105
321	13	61	15	14	62
322	6	18	17	16	59
323	4	1	64	65	74
324	4	11	2	1	64
325	13	73	66	65	75
326	1	30	29	28	34
327	6	28	27	26	39
328	13	110	87	86	113
329	13	48	21	20	51
330	15	77	76	78	128
330	16	77	76	78	128
330	17	77	76	78	128
331	13	104	90	89	107
332	18	14	15	16	17
332	19	14	15	16	17
332	20	14	15	16	17
333	13	43	24	23	45
334	13	122	81	80	125
335	13	46	22	21	48
336	6	81	82	83	119
337	13	37	27	26	39
338	13	116	84	83	119
339	13	113	86	85	114
340	6	84	85	86	112
341	18	26	27	28	29
341	19	26	27	28	29
341	20	26	27	28	29
342	6	90	89	88	109
343	18	24	25	26	27
343	19	24	25	26	27
343	20	24	25	26	27
344	6	83	82	81	122
345	13	107	89	88	108
346	6	88	89	90	104
347	6	80	79	78	128
348	13	50	20	19	52
349	6	91	92	93	98
350	13	40	25	24	42
351	6	16	17	18	54

Impropers

71	1	12	13	14	5
77	2	76	78	30	77
254	1	94	93	95	96
359	2	30	31	76	29
526	2	30	29	31	76
585	1	12	14	5	13
704	2	76	30	77	78
759	1	94	95	96	93
773	1	12	5	13	14
791	1	94	96	93	95
874	2	30	76	29	31
881	2	76	77	78	30
