Title

11000 atoms
11125 bonds
21000 angles
45000 dihedrals
2250 impropers

11 atom types
14 bond types
9 angle types
37 dihedral types
3 improper types
-8.541604224 88.91352469 xlo xhi
-8.335016554 88.93622189 ylo yhi
-8.664353399 89.64037184 zlo zhi
0.0 0.0 0.0 xy xz yz

Masses

1	12.01078
2	15.99943
3	14.00672
4	12.01078
5	1.007947
6	1.007947
7	1.007947
8	15.99943
9	12.01078
10	15.99943
11	1.007947


Pair Coeffs

1	0.086879315	3.4806469
2	0.2102061	3.0398122
3	0.16769152	3.206876
4	0.10884061	3.3795318
5	0.015779483	2.6445434
6	0.014090815	1.1034277
7	0.016409246	2.5832257
8	0.16846514	3.0251065
9	0.21	3.3996695
10	0.20947353	2.99716
11	1.2326e-05	0.53453923

Bond Coeffs

1 harmonic	582.698766451	1.225198386222
2 harmonic	492.76746816345	1.381897776683
3 harmonic	279.1350963404	1.454628925034
4 harmonic	352.0565580496	1.450098586273
5 harmonic	505.144496193	1.019481865027
6 harmonic	264.62148576755	1.52190126495
7 harmonic	370.04670688625	1.093899492634
8 harmonic	301.15400723785	1.345741232799
9 harmonic	366.7408841747	1.425895053732
10 harmonic	300.03137914615	1.451203938761
11 harmonic	366.34047229585	1.464762957261
12 harmonic	602.81384337	1.196112346392
13 harmonic	329.96998057905	1.427343958716
14 harmonic	543.5267831885	0.9716763312559


Angle Coeffs

1 harmonic	55.42182150775	117.3465570514
2 harmonic	63.44422595415	115.5071327674
3 harmonic	57.8982893754	126.8062420451
4 harmonic	53.20531626545	116.5475862634
5 harmonic	48.776492647595	115.6030999533
6 harmonic	65.09061609600001	110.3538806181
7 harmonic	201.41175231035	127.4691416191
8 harmonic	55.07882548015	112.8714009681
9 harmonic	33.56981613361	180


Dihedral Coeffs

1 fourier 1	-0.1488678166443	4	180
2 fourier 1	-0.1230328948768	3	180
3 fourier 1	0.2939295466901	2	0
4 fourier 1	-0.3024127022865	1	0
5 fourier 1	0.182238503271	2	0
6 fourier 1	0.02972342374561	3	0
7 fourier 1	1.809047390003	2	180
8 fourier 1	-0.04816277792592	1	0
9 fourier 1	3.101948770557	2	180
10 fourier 1	-0.4252153282372	1	0
11 fourier 1	2.348375642009	2	180
12 fourier 1	1.256156174911	1	0
13 fourier 1	0.9974165607242	2	180
14 fourier 1	0.1155372516788	3	0
15 fourier 1	0.1040663847541	3	0
16 fourier 1	0.09223874044423	3	0
17 fourier 1	0.3159935921949	2	180
18 fourier 1	0.3247796806857	1	180
19 fourier 1	0.1911926717192	3	0
20 fourier 1	2.779853741805	2	180
21 fourier 1	0.1918272375143	3	0
22 fourier 1	0.9202179876409	1	180
23 fourier 1	0.0473758381877	3	0
24 fourier 1	0.4860993122944	2	180
25 fourier 1	0.8916986138746	1	0
26 fourier 1	1.163809172478	2	180
27 fourier 1	0.1679186987369	1	180
28 fourier 1	-0.0309670556842	3	0
29 fourier 1	0.4598191477945	2	0
30 fourier 1	0.1115525666802	3	0
31 fourier 1	0.3432490222662	1	0
32 fourier 1	0.457973137376	1	0
33 fourier 1	-1.382973039546	1	0
34 fourier 1	0	1	0
35 fourier 1	0.3445382149273	3	0
36 fourier 1	0.1364556373303	1	0
37 fourier 1	0.3026390167484	3	0


Improper Coeffs

1 0.3333333333333333	-1	2
2 0.3666666666666667	-1	2
3 3.5	-1	2


Atoms

1	6	1	0.5441925	1.7643426	-0.57988815	0.65280467
2	6	2	-0.68225038	2.785194	-0.44551236	1.3779382
3	6	3	-0.48869708	0.52414654	-1.027429	1.2070563
4	6	4	0.00033472005	0.3955216	-1.3327476	2.6372141
5	6	4	-0.0076896903	-1.0105366	-1.8825646	3.0419789
6	6	4	-0.16940926	-1.2874045	-3.1660321	2.2128363
7	6	5	0.074225712	-0.47362201	-3.9085564	2.3599986
8	6	5	0.074225712	-2.2445726	-3.6417468	2.5197009
9	6	5	0.074225712	-1.3744096	-2.9514742	1.1292275
10	6	4	-0.20439996	-2.1494024	-0.86288737	2.7648779
11	6	5	0.1133597	-2.0976613	-0.48618026	1.7220502
12	6	5	0.1133597	-3.131948	-1.3789454	2.8628636
13	6	4	0.12877147	-2.1407638	0.33604336	3.7284548
14	6	3	-0.51618743	-3.2411241	1.2498773	3.3997349
15	6	1	0.80748636	-3.2781701	2.6058162	3.8580244
16	6	2	-0.60083258	-2.3441542	3.0787488	4.5588911
17	6	6	0.31683728	-4.0211204	0.92806329	2.7824752
18	6	7	0.04853041	-1.1880047	0.88941976	3.5991465
19	6	4	-0.20799857	-2.2928057	-0.1522473	5.1799166
20	6	5	0.11489541	-3.2926543	-0.63335432	5.2780846
21	6	5	0.11489541	-2.2879409	0.72167465	5.8696541
22	6	4	-0.027437924	-1.1896137	-1.1537336	5.6103717
23	6	4	-0.17115988	-1.6269759	-1.8059575	6.9453036
24	6	5	0.077269788	-0.8540584	-2.5204795	7.3021297
25	6	5	0.077269788	-2.5838386	-2.3591102	6.8286422
26	6	5	0.077269788	-1.780481	-1.0353234	7.7324708
27	6	4	-0.17115988	0.14527592	-0.41393387	5.8887135
28	6	5	0.077269788	0.36319734	0.3775774	5.1508049
29	6	5	0.077269788	0.99722548	-1.1267381	5.9187476
30	6	5	0.077269788	0.10936155	0.11017217	6.8683731
31	6	4	-0.2102808	-1.0281966	-2.2939599	4.5517639
32	6	5	0.11508838	-1.8881595	-2.9887198	4.6928444
33	6	5	0.11508838	-0.12548798	-2.9006207	4.7873415
34	6	7	0.071398969	1.1677334	-2.0856737	2.9065266
35	6	7	0.071398969	0.63920585	-0.41453582	3.1914019
36	6	6	0.31753126	-0.28427645	-1.1020214	0.55402781
37	7	8	-0.49826875	-4.0819848	3.2108779	3.6062165
38	7	4	0.13095346	-4.3837937	2.9380186	2.2647322
39	7	4	0.051001231	-3.3671448	3.612867	1.3446884
40	7	8	-0.14711511	-3.7068107	3.3970621	0.0023995463
41	7	7	0.090845103	-3.3661996	4.7058797	1.5390604
42	7	7	0.090845103	-2.3441281	3.2248765	1.5524219
43	7	7	0.091766293	-5.3977521	3.3341201	2.0418937
44	7	7	0.091766293	-4.3960125	1.8395201	2.0850166
45	4	1	0.55685574	1.8281373	-0.35216324	-0.40294653
46	4	2	-0.6717059	1.1120496	0.56703099	-0.88152916
47	4	3	-0.56736612	2.7181792	-1.1026636	-1.2365176
48	4	4	0.12658024	2.8635193	-0.83930336	-2.6737534
49	4	7	0.046371068	1.8491981	-0.6945287	-3.0949241
50	4	4	-0.2091105	3.713585	0.42759947	-2.8820306
51	4	5	0.11489541	3.2177309	1.2925648	-2.3890705
52	4	5	0.11489541	4.6876291	0.27613955	-2.3634789
53	4	4	-0.027973048	3.9678026	0.76183359	-4.375334
54	4	4	-0.17115986	5.0589878	1.8569122	-4.4436261
55	4	5	0.077269803	5.2673477	2.1365495	-5.4993392
56	4	5	0.077269803	4.7404265	2.7709714	-3.8968974
57	4	5	0.077269803	6.0099255	1.5064384	-3.9858164
58	4	4	-0.17115986	2.6969508	1.3524844	-5.0355812
59	4	5	0.077269803	1.7871194	0.77205777	-4.8173318
60	4	5	0.077269803	2.4976721	2.3759986	-4.6514293
61	4	5	0.077269803	2.8216289	1.4210402	-6.1375106
62	4	4	-0.20897817	4.4972504	-0.49205885	-5.1389529
63	4	5	0.11377377	5.5559079	-0.63984624	-4.8250865
64	4	5	0.11377377	4.5487492	-0.27579906	-6.2278306
65	4	4	0.025099187	3.754661	-1.8455323	-4.8846391
66	4	4	-0.16795549	4.6700099	-2.9939218	-5.3805746
67	4	5	0.070780302	4.1902855	-3.9829309	-5.2144918
68	4	5	0.070780302	4.8854549	-2.8870971	-6.4660463
69	4	5	0.070780302	5.6410651	-2.9955093	-4.8396103
70	4	4	0.14393637	2.4066858	-1.9636792	-5.6559531
71	4	3	-0.6194908	2.5737935	-1.6468576	-7.0706266
72	4	9	0.6010471	1.5922764	-1.6951502	-7.8786124
73	4	2	-0.45767289	0.63723874	-1.7424381	-8.6643534
74	4	7	0.069865982	1.6228471	-1.3178513	-5.2282744
75	4	7	0.069865982	2.0179461	-3.0034553	-5.5630651
76	4	4	-0.20549613	3.5270972	-2.0463559	-3.3619725
77	4	5	0.11323718	4.5059431	-2.2332092	-2.8647104
78	4	5	0.11323718	2.9006749	-2.9504483	-3.1916575
79	4	6	0.3138274	3.2487379	-1.8855259	-0.79161867
80	5	8	-0.14139315	-3.446463	2.4620813	-0.20980347
81	5	4	0.021228264	-4.2728912	1.6318642	0.5602815
82	5	4	0.093235741	-3.8001394	1.6155315	2.0135715
83	5	10	-0.68158173	-4.58433	0.73236886	2.7690361
84	5	11	0.39067173	-5.44815	1.1925454	2.9377061
85	5	7	0.087942216	-2.7440718	1.2736853	2.0516692
86	5	7	0.087942216	-3.8468532	2.641659	2.4442759
87	5	7	0.091523501	-4.2226076	0.60188906	0.1473943
88	5	7	0.091523501	-5.3306627	1.9757732	0.50254103
89	6	1	0.5441925	-1.8516244	0.66074529	17.822685
90	6	2	-0.68225038	-2.8130295	1.3556953	17.399887
91	6	3	-0.48869708	-1.4733484	-0.54902155	17.160155
92	6	4	0.00033472005	-2.1821482	-1.0143823	15.961758
93	6	4	-0.0076896903	-1.6787115	-2.3935628	15.425525
94	6	4	-0.16940926	-1.8369909	-3.4427609	16.559347
95	6	5	0.074225712	-2.8889019	-3.4752187	16.916657
96	6	5	0.074225712	-1.5647385	-4.460511	16.203391
97	6	5	0.074225712	-1.1796189	-3.2241939	17.424161
98	6	4	-0.20439996	-0.18619848	-2.3550061	14.996037
99	6	5	0.1133597	0.44632321	-1.9286606	15.802399
100	6	5	0.1133597	0.17315524	-3.3971287	14.834301
101	6	4	0.12877147	0.054345516	-1.5598902	13.701464
102	6	3	-0.51618743	1.4833113	-1.5692394	13.366932
103	6	1	0.80748636	2.0658213	-0.63316419	12.453467
104	6	2	-0.60083258	1.3653728	0.25925473	11.905539
105	6	6	0.31683728	2.1231818	-2.2566197	13.826325
106	6	7	0.04853041	-0.24943841	-0.50624977	13.869551
107	6	4	-0.20799857	-0.74962311	-2.1792001	12.544582
108	6	5	0.11489541	-0.35864754	-3.2067189	12.365302
109	6	5	0.11489541	-0.56772783	-1.5992157	11.611826
110	6	4	-0.027437924	-2.2742874	-2.2441527	12.82113
111	6	4	-0.17115988	-2.9180476	-3.161025	11.751718
112	6	5	0.077269788	-4.0177251	-3.222029	11.900902
113	6	5	0.077269788	-2.5031441	-4.1908404	11.801811
114	6	5	0.077269788	-2.7253505	-2.7727348	10.727427
115	6	4	-0.17115988	-2.921734	-0.84361975	12.659797
116	6	5	0.077269788	-2.3082278	-0.031608397	13.087274
117	6	5	0.077269788	-3.9323896	-0.81624798	13.120922
118	6	5	0.077269788	-3.0341189	-0.58204183	11.585248
119	6	4	-0.2102808	-2.5598238	-2.873328	14.224494
120	6	5	0.11508838	-2.4054877	-3.9723599	14.122316
121	6	5	0.11508838	-3.6371831	-2.7555097	14.477145
122	6	7	0.071398969	-3.264331	-1.0950667	16.202815
123	6	7	0.071398969	-2.0838438	-0.22954069	15.197573
124	6	6	0.31753126	-0.65958647	-1.0672222	17.553624
125	7	8	-0.49826875	3.0798842	-0.68527473	12.242314
126	7	4	0.13095346	3.7291977	-0.94351848	13.45756
127	7	4	0.051001231	3.7959319	0.32741109	14.303586
128	7	8	-0.14711511	4.5041078	0.086791946	15.488606
129	7	7	0.090845103	4.3207661	1.1210345	13.731599
130	7	7	0.090845103	2.7684411	0.69029867	14.53343
131	7	7	0.091766293	4.7614918	-1.2927796	13.240648
132	7	7	0.091766293	3.2027823	-1.7502253	14.015464
133	4	1	0.55685574	-1.3051701	0.98548884	18.698167
134	4	2	-0.6717059	-0.077537507	1.2493804	18.598065
135	4	3	-0.56736612	-1.9841062	1.1024493	19.953409
136	4	4	0.12658024	-1.3074008	1.5483407	21.1779
137	4	7	0.046371068	-0.32815708	1.0329647	21.229489
138	4	4	-0.2091105	-1.1054491	3.0740584	21.128556
139	4	5	0.11489541	-0.48999682	3.3385522	20.240689
140	4	5	0.11489541	-2.1029102	3.5474821	20.981793
141	4	4	-0.027973048	-0.4410425	3.6504668	22.406292
142	4	4	-0.17115986	-0.56619767	5.1921126	22.359278
143	4	5	0.077269803	-0.092393673	5.6507554	23.254431
144	4	5	0.077269803	-0.071598762	5.6042118	21.452943
145	4	5	0.077269803	-1.6319512	5.5086409	22.333138
146	4	4	-0.17115986	1.0728758	3.3236818	22.439786
147	4	5	0.077269803	1.2922646	2.2686521	22.213729
148	4	5	0.077269803	1.6162374	3.9132957	21.670384
149	4	5	0.077269803	1.5078509	3.5749754	23.430817
150	4	4	-0.20897817	-1.1785427	3.1475288	23.686457
151	4	5	0.11377377	-2.1434823	3.7013742	23.743517
152	4	5	0.11377377	-0.61529119	3.4591846	24.592379
153	4	4	0.025099187	-1.5246871	1.623232	23.755074
154	4	4	-0.16795549	-2.5922125	1.4244207	24.861183
155	4	5	0.070780302	-2.8806941	0.35414759	24.945752
156	4	5	0.070780302	-2.2069028	1.7622487	25.847837
157	4	5	0.070780302	-3.5136528	2.0050646	24.638937
158	4	4	0.14393637	-0.30390007	0.7297812	24.125676
159	4	3	-0.6194908	0.37746488	1.2274026	25.316355
160	4	9	0.6010471	1.3957433	0.6313445	25.792141
161	4	2	-0.45767289	2.3861874	0.051096945	26.254802
162	4	7	0.069865982	0.42025338	0.64836079	23.299009
163	4	7	0.069865982	-0.65256166	-0.31049945	24.318373
164	4	4	-0.20549613	-2.1461723	1.1605727	22.409588
165	4	5	0.11323718	-3.1574352	1.6130888	22.296012
166	4	5	0.11323718	-2.2859016	0.056417464	22.420172
167	4	6	0.3138274	-2.9902798	0.821437	19.984194
168	5	8	-0.14139315	3.8917159	-0.41509387	16.088679
169	5	4	0.021228264	3.6702984	-1.6603037	15.483946
170	5	4	0.093235741	2.6900057	-1.5167387	14.320233
171	5	10	-0.68158173	2.4157218	-2.7719742	13.759153
172	5	11	0.39067173	3.2061852	-3.0165645	13.209844
173	5	7	0.087942216	1.7396262	-1.0795357	14.693356
174	5	7	0.087942216	3.1070927	-0.8296471	13.549149
175	5	7	0.091523501	3.2407197	-2.3498177	16.241498
176	5	7	0.091523501	4.6316624	-2.0949882	15.127131
177	6	1	0.5441925	-1.7910332	-0.7858569	35.219553
178	6	2	-0.68225038	-2.5697238	-1.6950085	34.828276
179	6	3	-0.48869708	-0.98438403	-0.96267353	36.387297
180	6	4	0.00033472005	-1.0269742	-2.2099944	37.160273
181	6	4	-0.0076896903	-0.137629	-2.1875965	38.445457
182	6	4	-0.16940926	-0.60716622	-1.0088179	39.340687
183	6	5	0.074225712	-1.6917127	-1.0984537	39.566442
184	6	5	0.074225712	-0.056286879	-0.99603125	40.306611
185	6	5	0.074225712	-0.42881949	-0.025403263	38.862251
186	6	4	-0.20439996	1.3689235	-1.9896428	38.121951
187	6	5	0.1133597	1.5186704	-1.1136854	37.456858
188	6	5	0.1133597	1.9172359	-1.7638299	39.065177
189	6	4	0.12877147	2.0196973	-3.2237184	37.474231
190	6	3	-0.51618743	3.4361057	-2.9556591	37.19878
191	6	1	0.80748636	4.2051478	-3.7454849	36.285149
192	6	2	-0.60083258	3.6823412	-4.7064261	35.660225
193	6	6	0.31683728	3.9119303	-2.1425294	37.651968
194	6	7	0.04853041	1.5163057	-3.4244349	36.506241
195	6	4	-0.20799857	1.8980659	-4.4378881	38.411933
196	6	5	0.11489541	2.4798348	-4.2184337	39.336153
197	6	5	0.11489541	2.3735043	-5.3252183	37.936428
198	6	4	-0.027437924	0.43289358	-4.7792161	38.788847
199	6	4	-0.17115988	0.4614201	-5.7869115	39.964628
200	6	5	0.077269788	-0.57150928	-6.0748567	40.256882
201	6	5	0.077269788	0.96591786	-5.3528552	40.854713
202	6	5	0.077269788	1.0151816	-6.7096733	39.68368
203	6	4	-0.17115988	-0.28700081	-5.4855447	37.610051
204	6	5	0.077269788	-0.04964483	-5.0395768	36.628591
205	6	5	0.077269788	-1.3887512	-5.4793594	37.754681
206	6	5	0.077269788	0.036464232	-6.5459212	37.528308
207	6	4	-0.2102808	-0.33011859	-3.5021813	39.272393
208	6	5	0.11508838	0.018880926	-3.2917593	40.309723
209	6	5	0.11508838	-1.4150991	-3.7281475	39.373257
210	6	7	0.071398969	-2.0809563	-2.404751	37.455111
211	6	7	0.071398969	-0.72981249	-3.0247975	36.483952
212	6	6	0.31753126	-0.35131187	-0.17670926	36.646214
213	7	8	-0.49826875	5.2059218	-3.5218843	36.129975
214	7	4	0.13095346	5.2987591	-2.1246065	36.065811
215	7	4	0.051001231	4.7993937	-1.6216735	34.711865
216	7	8	-0.14711511	4.954919	-0.23196948	34.621209
217	7	7	0.090845103	5.3916456	-2.0984288	33.902915
218	7	7	0.090845103	3.7311999	-1.9019436	34.568117
219	7	7	0.091766293	6.363569	-1.833884	36.193582
220	7	7	0.091766293	4.7131696	-1.658176	36.889627
221	4	1	0.55685574	-1.7321231	0.14001383	34.662927
222	4	2	-0.6717059	-0.63752756	0.47787679	34.139048
223	4	3	-0.56736612	-2.8949577	0.96613417	34.538
224	4	4	0.12658024	-2.8891885	2.2283204	33.787679
225	4	7	0.046371068	-1.9619789	2.7740112	34.051679
226	4	4	-0.2091105	-2.9211241	1.9300362	32.277367
227	4	5	0.11489541	-2.0313511	1.3230954	31.999927
228	4	5	0.11489541	-3.8170959	1.3014195	32.070791
229	4	4	-0.027973048	-2.9691649	3.2062944	31.396941
230	4	4	-0.17115986	-3.2954229	2.777386	29.946375
231	4	5	0.077269803	-3.3300313	3.6627923	29.274811
232	4	5	0.077269803	-2.5276807	2.0739107	29.557027
233	4	5	0.077269803	-4.2801951	2.263762	29.890535
234	4	4	-0.17115986	-1.5874577	3.9057626	31.358359
235	4	5	0.077269803	-1.1339093	4.021724	32.354937
236	4	5	0.077269803	-0.86248051	3.3048575	30.768285
237	4	5	0.077269803	-1.6662975	4.9067692	30.882688
238	4	4	-0.20897817	-4.1002378	4.167235	31.879581
239	4	5	0.11377377	-5.0674435	3.7157085	31.560605
240	4	5	0.11377377	-4.0375182	5.1297646	31.327605
241	4	4	0.025099187	-4.2050553	4.4254425	33.419175
242	4	4	-0.16795549	-5.6009674	5.0341372	33.708197
243	4	5	0.070780302	-5.7306624	5.229953	34.794795
244	4	5	0.070780302	-5.73529	5.9926742	33.161168
245	4	5	0.070780302	-6.4131499	4.3447306	33.39091
246	4	4	0.14393637	-3.1429096	5.4339472	33.948973
247	4	3	-0.6194908	-3.1263109	6.6564809	33.152268
248	4	9	0.6010471	-2.3349814	7.6137247	33.428005
249	4	2	-0.45767289	-1.5651571	8.544801	33.696686
250	4	7	0.069865982	-2.130078	5.000282	33.971616
251	4	7	0.069865982	-3.3773197	5.6958961	35.006004
252	4	4	-0.20549613	-4.1069905	3.0807901	34.189189
253	4	5	0.11323718	-5.0263551	2.4809083	34.001483
254	4	5	0.11323718	-4.0673337	3.276776	35.284092
255	4	6	0.3138274	-3.7601159	0.65765787	35.036643
256	5	8	-0.14139315	4.2281798	0.17138393	35.165411
257	5	4	0.021228264	4.4820254	-0.18300243	36.497795
258	5	4	0.093235741	4.090136	-1.6399412	36.741855
259	5	10	-0.68158173	4.2796765	-1.9740686	38.090221
260	5	11	0.39067173	5.256783	-2.0983568	38.217548
261	5	7	0.087942216	3.0173971	-1.7781865	36.489449
262	5	7	0.087942216	4.6886719	-2.3135699	36.087176
263	5	7	0.091523501	3.8785848	0.47414963	37.159508
264	5	7	0.091523501	5.5571161	-0.026418013	36.743049
265	6	1	0.5441925	0.080660804	-1.8481658	52.491468
266	6	2	-0.68225038	-0.27765761	-2.7671352	51.70845
267	6	3	-0.48869708	0.94633808	-0.80040876	52.046067
268	6	4	0.00033472005	1.4354499	-0.75338552	50.662711
269	6	4	-0.0076896903	2.4318081	0.41831319	50.384277
270	6	4	-0.16940926	3.6363626	0.27239079	51.353388
271	6	5	0.074225712	4.1052255	-0.72941112	51.244753
272	6	5	0.074225712	4.414023	1.0390011	51.143165
273	6	5	0.074225712	3.3381841	0.40691798	52.412069
274	6	4	-0.20439996	1.7860295	1.8133078	50.609004
275	6	5	0.1133597	1.2966497	1.8667571	51.603853
276	6	5	0.1133597	2.5860716	2.5887035	50.611674
277	6	4	0.12877147	0.75875881	2.189836	49.527832
278	6	3	-0.51618743	0.19539715	3.514714	49.812901
279	6	1	0.80748636	-1.0231817	3.9764917	49.219774
280	6	2	-0.60083258	-1.6775957	3.2446959	48.430166
281	6	6	0.31683728	0.66917672	4.1480739	50.496535
282	6	7	0.04853041	-0.070950342	1.4539005	49.553863
283	6	4	-0.20799857	1.4303859	2.2026875	48.143261
284	6	5	0.11489541	2.2027197	3.0053695	48.142979
285	6	5	0.11489541	0.68060619	2.4783357	47.367794
286	6	4	-0.027437924	2.0871839	0.84932496	47.766001
287	6	4	-0.17115988	2.9881059	1.0810128	46.527702
288	6	5	0.077269788	3.46665	0.12958315	46.209826
289	6	5	0.077269788	3.7911539	1.8175827	46.746225
290	6	5	0.077269788	2.3954807	1.4765155	45.673626
291	6	4	-0.17115988	1.010035	-0.18655812	47.349583
292	6	5	0.077269788	0.11200066	-0.15836022	47.990853
293	6	5	0.077269788	1.4259117	-1.2170184	47.352438
294	6	5	0.077269788	0.63604507	0.023344667	46.324018
295	6	4	-0.2102808	2.9961255	0.32804476	48.927429
296	6	5	0.11508838	3.9323372	0.932095	48.899824
297	6	5	0.11508838	3.3192719	-0.71497661	48.71272
298	6	7	0.071398969	1.9406497	-1.7172366	50.43577
299	6	7	0.071398969	0.5553173	-0.69287684	50.005958
300	6	6	0.31753126	1.1911432	-0.063871115	52.74115
301	7	8	-0.49826875	-1.3769665	4.9247848	49.446052
302	7	4	0.13095346	-1.1776528	5.1089147	50.821367
303	7	4	0.051001231	-2.2308343	4.3391751	51.617474
304	7	8	-0.14711511	-2.0739289	4.5769694	52.989523
305	7	7	0.090845103	-3.2422868	4.6797496	51.311809
306	7	7	0.090845103	-2.1543871	3.2491949	51.402178
307	7	7	0.091766293	-1.2662449	6.1925932	51.050403
308	7	7	0.091766293	-0.15590772	4.7775554	51.113572
309	4	1	0.55685574	-0.27306031	-1.8525351	53.513916
310	4	2	-0.6717059	-0.97618975	-0.89333253	53.928983
311	4	3	-0.56736612	0.069482554	-2.9426062	54.376862
312	4	4	0.12658024	-0.38589467	-3.0186228	55.770771
313	4	7	0.046371068	-0.25917618	-2.0152013	56.222744
314	4	4	-0.2091105	-1.867401	-3.43681	55.806721
315	4	5	0.11489541	-2.477359	-2.6906043	55.251586
316	4	5	0.11489541	-1.9644821	-4.4026942	55.260606
317	4	4	-0.027973048	-2.4294628	-3.5951191	57.243842
318	4	4	-0.17115986	-3.8067292	-4.2938912	57.146886
319	4	5	0.077269803	-4.2538354	-4.4195963	58.157052
320	4	5	0.077269803	-4.5113902	-3.7002784	56.524813
321	4	5	0.077269803	-3.7154708	-5.3003282	56.682708
322	4	4	-0.17115986	-2.6724409	-2.2128493	57.899701
323	4	5	0.077269803	-1.8203082	-1.5249019	57.786039
324	4	5	0.077269803	-3.5354394	-1.700905	57.422195
325	4	5	0.077269803	-2.8995927	-2.3250659	58.981507
326	4	4	-0.20897817	-1.4927003	-4.4974995	58.106316
327	4	5	0.11377377	-1.6422526	-5.5454582	57.759148
328	4	5	0.11377377	-1.8355468	-4.4941834	59.163444
329	4	4	0.025099187	0.042861254	-4.2076962	58.028407
330	4	4	-0.16795549	0.7917426	-5.4405926	58.595643
331	4	5	0.070780302	1.8922968	-5.2888908	58.555332
332	4	5	0.070780302	0.50244541	-5.6270092	59.652825
333	4	5	0.070780302	0.55645109	-6.3568706	58.011978
334	4	4	0.14393637	0.4809366	-2.9733456	58.871253
335	4	3	-0.6194908	-0.029101969	-3.053176	60.236203
336	4	9	0.6010471	0.22646196	-2.1460371	61.0908
337	4	2	-0.45767289	0.47546339	-1.2634573	61.921927
338	4	7	0.069865982	0.15903949	-2.022189	58.417282
339	4	7	0.069865982	1.5933315	-2.924868	58.904546
340	4	4	-0.20549613	0.47396586	-4.0329694	56.547107
341	4	5	0.11323718	0.40646629	-5.0146792	56.025559
342	4	5	0.11323718	1.5397162	-3.7154292	56.500854
343	4	6	0.3138274	0.69684789	-3.6836313	53.990086
344	5	8	-0.14139315	-1.2939621	4.0367482	53.284163
345	5	4	0.021228264	-0.16914935	4.575458	52.643957
346	5	4	0.093235741	-0.13495115	4.1406892	51.179164
347	5	10	-0.68158173	1.0253057	4.6226348	50.556918
348	5	11	0.39067173	0.8742226	5.5887593	50.38321
349	5	7	0.087942216	-0.13135973	3.0312937	51.126082
350	5	7	0.087942216	-1.0419526	4.509041	50.647853
351	5	7	0.091523501	0.7424013	4.2027615	53.157792
352	5	7	0.091523501	-0.17638066	5.6868464	52.716425
353	6	1	0.5441925	-0.57012129	1.0737884	69.337821
354	6	2	-0.68225038	-0.65641408	1.2886599	68.09992
355	6	3	-0.48869708	-1.3935874	0.090817387	69.97126
356	6	4	0.00033472005	-2.3555497	-0.70720724	69.20126
357	6	4	-0.0076896903	-3.2198913	-1.6718672	70.076176
358	6	4	-0.16940926	-3.9803084	-0.82186187	71.130063
359	6	5	0.074225712	-4.5831652	-0.031755137	70.632533
360	6	5	0.074225712	-4.6717416	-1.4533567	71.729876
361	6	5	0.074225712	-3.2915174	-0.33633463	71.849537
362	6	4	-0.20439996	-2.3593603	-2.7273774	70.82379
363	6	5	0.1133597	-1.5298003	-2.2405389	71.377769
364	6	5	0.1133597	-2.9902313	-3.2360411	71.588365
365	6	4	0.12877147	-1.7732981	-3.8038152	69.89438
366	6	3	-0.51618743	-0.97495416	-4.7570749	70.674049
367	6	1	0.80748636	-0.018901309	-5.635108	70.069903
368	6	2	-0.60083258	0.18862402	-5.6110255	68.827479
369	6	6	0.31683728	-1.0695148	-4.7898322	71.7147
370	6	7	0.04853041	-1.0992366	-3.3131762	69.162526
371	6	4	-0.20799857	-2.9076608	-4.5517262	69.17179
372	6	5	0.11489541	-3.5106272	-5.0873778	69.940104
373	6	5	0.11489541	-2.4746727	-5.3299121	68.503621
374	6	4	-0.027437924	-3.8300933	-3.6186751	68.344848
375	6	4	-0.17115988	-5.0910773	-4.4229632	67.942647
376	6	5	0.077269788	-5.7747499	-3.7962119	67.33024
377	6	5	0.077269788	-5.648769	-4.7718285	68.838441
378	6	5	0.077269788	-4.8160006	-5.322509	67.349163
379	6	4	-0.17115988	-3.134655	-3.1862629	67.027239
380	6	5	0.077269788	-2.0662738	-2.9433394	67.161547
381	6	5	0.077269788	-3.6508115	-2.3139006	66.571852
382	6	5	0.077269788	-3.1489915	-4.0124812	66.283688
383	6	4	-0.2102808	-4.2965232	-2.3951128	69.200511
384	6	5	0.11508838	-5.0862507	-2.7683209	69.892737
385	6	5	0.11508838	-4.810953	-1.6545317	68.548347
386	6	7	0.071398969	-3.0311678	-0.012948574	68.656023
387	6	7	0.071398969	-1.7867268	-1.2611402	68.440196
388	6	6	0.31753126	-1.2601955	-0.046682456	70.995398
389	7	8	-0.49826875	0.51550692	-6.297722	70.662335
390	7	4	0.13095346	0.87330929	-5.5980276	71.823165
391	7	4	0.051001231	2.0370914	-4.6507528	71.533756
392	7	8	-0.14711511	2.4396406	-4.0010485	72.708287
393	7	7	0.090845103	2.895099	-5.2344625	71.13934
394	7	7	0.090845103	1.742586	-3.905429	70.760444
395	7	7	0.091766293	1.1832862	-6.3317505	72.59791
396	7	7	0.091766293	0.0020188751	-5.0283011	72.217387
397	4	1	0.55685574	0.13773127	1.6405507	69.92796
398	4	2	-0.6717059	1.0649615	1.036325	70.529538
399	4	3	-0.56736612	0.0039550732	3.063189	70.019993
400	4	4	0.12658024	0.93511302	3.8948685	70.792898
401	4	7	0.046371068	1.1206999	3.3856347	71.75904
402	4	4	-0.2091105	2.2527163	4.0547858	70.012269
403	4	5	0.11489541	2.7021241	3.0532531	69.833353
404	4	5	0.11489541	2.0095335	4.4820287	69.012807
405	4	4	-0.027973048	3.2871388	4.9635371	70.726716
406	4	4	-0.17115986	4.4222573	5.2801471	69.723816
407	4	5	0.077269803	5.195194	5.9235762	70.19785
408	4	5	0.077269803	4.9133198	4.347304	69.370886
409	4	5	0.077269803	4.0317131	5.8128747	68.829176
410	4	4	-0.17115986	3.9383386	4.2274912	71.924228
411	4	5	0.077269803	3.2044815	3.7255703	72.573728
412	4	5	0.077269803	4.6181926	3.4249047	71.565732
413	4	5	0.077269803	4.5381593	4.931562	72.539852
414	4	4	-0.20897817	2.6327482	6.3145306	71.153641
415	4	5	0.11377377	2.5015976	6.9185428	70.226777
416	4	5	0.11377377	3.3446579	6.8972868	71.777063
417	4	4	0.025099187	1.2328922	6.2383731	71.848341
418	4	4	-0.16795549	0.59648846	7.6508493	71.79819
419	4	5	0.070780302	-0.40834834	7.6498964	72.273753
420	4	5	0.070780302	1.2343063	8.3909495	72.328772
421	4	5	0.070780302	0.47253577	7.9984125	70.749654
422	4	4	0.14393637	1.3100087	5.8196384	73.346552
423	4	3	-0.6194908	2.2799387	6.6299654	74.076078
424	4	9	0.6010471	2.4858202	6.4537499	75.319102
425	4	2	-0.45767289	2.6856761	6.2821536	76.528372
426	4	7	0.069865982	1.5601157	4.7534985	73.469833
427	4	7	0.069865982	0.30835343	5.9458859	73.817327
428	4	4	-0.20549613	0.304187	5.273235	71.063074
429	4	5	0.11323718	0.041005602	5.7315095	70.082746
430	4	5	0.11323718	-0.64911304	5.1328025	71.620114
431	4	6	0.3138274	-0.81441444	3.5015317	69.539963
432	5	8	-0.14139315	1.7635747	-3.2958486	72.888919
433	5	4	0.021228264	0.56219247	-3.9578214	73.178311
434	5	4	0.093235741	-0.076442118	-4.4818404	71.89248
435	5	10	-0.68158173	-1.3110731	-5.0835167	72.174135
436	5	11	0.39067173	-1.1104693	-5.9722505	72.569493
437	5	7	0.087942216	-0.24575573	-3.6339428	71.195349
438	5	7	0.087942216	0.60467002	-5.2084411	71.393717
439	5	7	0.091523501	-0.13022749	-3.2376014	73.663791
440	5	7	0.091523501	0.74238665	-4.7962192	73.88902
441	6	1	0.5441925	0.95964521	17.353606	-1.6789996
442	6	2	-0.68225038	1.1302693	17.488927	-2.9193982
443	6	3	-0.48869708	1.3170163	18.398954	-0.77064522
444	6	4	0.00033472005	1.8815546	19.665755	-1.2519199
445	6	4	-0.0076896903	2.2826588	20.65351	-0.10885841
446	6	4	-0.16940926	3.3155192	19.942667	0.80728738
447	6	5	0.074225712	4.1867985	19.591259	0.21346415
448	6	5	0.074225712	3.6930409	20.631693	1.594282
449	6	5	0.074225712	2.8761198	19.072262	1.3337254
450	6	4	-0.20439996	1.0678088	21.081872	0.75958146
451	6	5	0.1133597	0.50070601	20.19477	1.1110364
452	6	5	0.1133597	1.4383921	21.598975	1.674232
453	6	4	0.12877147	0.10331691	22.032632	0.030335357
454	6	3	-0.51618743	-1.0137006	22.386528	0.91406128
455	6	1	0.80748636	-2.2389776	22.939799	0.42155771
456	6	2	-0.60083258	-2.4139994	23.131872	-0.81121972
457	6	6	0.31683728	-0.94475845	22.206047	1.9415055
458	6	7	0.04853041	-0.31420248	21.507044	-0.85291457
459	6	4	-0.20799857	0.84567339	23.310595	-0.39862195
460	6	5	0.11489541	1.1798551	23.839997	0.52271065
461	6	5	0.11489541	0.13987326	23.993425	-0.92311252
462	6	4	-0.027437924	2.0684647	23.034117	-1.3116611
463	6	4	-0.17115988	2.9028052	24.335634	-1.4046941
464	6	5	0.077269788	3.7831071	24.188295	-2.0669839
465	6	5	0.077269788	3.2698635	24.650935	-0.4041804
466	6	5	0.077269788	2.2926652	25.17022	-1.8148991
467	6	4	-0.17115988	1.6105698	22.690761	-2.7535857
468	6	5	0.077269788	0.72870865	22.027391	-2.7809782
469	6	5	0.077269788	2.4352301	22.222433	-3.3327355
470	6	5	0.077269788	1.2956098	23.608077	-3.2967625
471	6	4	-0.2102808	2.9826907	21.923315	-0.69755018
472	6	5	0.11508838	3.5534329	22.398681	0.13336033
473	6	5	0.11508838	3.75378	21.618251	-1.4396916
474	6	7	0.071398969	2.7812574	19.439271	-1.864274
475	6	7	0.071398969	1.1416606	20.118103	-1.9283498
476	6	6	0.31753126	1.1352087	18.227047	0.24076565
477	7	8	-0.49826875	-2.9968401	23.181817	1.086912
478	7	4	0.13095346	-3.0490754	22.144859	2.0287772
479	7	4	0.051001231	-3.7340117	20.917562	1.4287108
480	7	8	-0.14711511	-3.8473448	19.90448	2.3902222
481	7	7	0.090845103	-4.7523568	21.197208	1.086323
482	7	7	0.090845103	-3.161954	20.551478	0.54610906
483	7	7	0.091766293	-3.6306597	22.49426	2.9087452
484	7	7	0.091766293	-2.0241694	21.882873	2.3752985
485	4	1	0.55685574	0.53592698	16.434082	-1.2975838
486	4	2	-0.6717059	-0.55840606	16.469261	-0.67473657
487	4	3	-0.56736612	1.2285942	15.197532	-1.5011042
488	4	4	0.12658024	0.70575839	13.912048	-1.0212045
489	4	7	0.046371068	0.32731348	14.064588	0.0086998765
490	4	4	-0.2091105	-0.43369688	13.442358	-1.9442792
491	4	5	0.11489541	-1.2462435	14.201836	-1.9469927
492	4	5	0.11489541	-0.035226512	13.393101	-2.9832176
493	4	4	-0.027973048	-1.0199651	12.061952	-1.5479681
494	4	4	-0.17115986	-1.9284452	11.576296	-2.7026751
495	4	5	0.077269803	-2.3805312	10.5907	-2.4569932
496	4	5	0.077269803	-2.7508434	12.299623	-2.8933515
497	4	5	0.077269803	-1.3531388	11.46557	-3.6479086
498	4	4	-0.17115986	-1.9169055	12.180691	-0.29048735
499	4	5	0.077269803	-1.4487749	12.759067	0.52108938
500	4	5	0.077269803	-2.8599855	12.715972	-0.53326461
501	4	5	0.077269803	-2.1867069	11.174861	0.096816744
502	4	4	-0.20897817	0.11941888	11.012255	-1.3592452
503	4	5	0.11377377	0.48583481	10.744863	-2.3767668
504	4	5	0.11377377	-0.30174712	10.069032	-0.94933654
505	4	4	0.025099187	1.3681875	11.45968	-0.52955069
506	4	4	-0.16795549	2.5178341	10.461207	-0.81934202
507	4	5	0.070780302	3.4358601	10.740017	-0.25778047
508	4	5	0.070780302	2.2280455	9.4286618	-0.52617002
509	4	5	0.070780302	2.7753435	10.448176	-1.9005969
510	4	4	0.14393637	1.1230772	11.447815	1.0085329
511	4	3	-0.6194908	0.5563505	10.176546	1.4470496
512	4	9	0.6010471	0.2916566	9.9591089	2.6722873
513	4	2	-0.45767289	0.034482267	9.7478933	3.8643323
514	4	7	0.069865982	0.46587166	12.270732	1.3330236
515	4	7	0.069865982	2.0892211	11.613259	1.5377543
516	4	4	-0.20549613	1.8353094	12.865972	-0.99298158
517	4	5	0.11323718	2.2644606	12.792327	-2.0180321
518	4	5	0.11323718	2.6498335	13.229655	-0.32733881
519	4	6	0.3138274	2.1561499	15.238967	-1.9809213
520	5	8	-0.14139315	-2.9460134	19.496557	2.4807789
521	5	4	0.021228264	-2.1122182	20.484432	3.0231471
522	5	4	0.093235741	-1.7317283	21.503717	1.9497883
523	5	10	-0.68158173	-0.84326085	22.452657	2.4749505
524	5	11	0.39067173	-1.3851613	23.072427	3.0304925
525	5	7	0.087942216	-1.2335504	20.979601	1.1067523
526	5	7	0.087942216	-2.6448758	22.00406	1.5542582
527	5	7	0.091523501	-1.191213	19.99731	3.4082636
528	5	7	0.091523501	-2.6166128	20.992645	3.8762551
529	6	1	0.5441925	-0.50833988	17.956255	15.834253
530	6	2	-0.68225038	-1.3379639	17.908961	14.887945