Title

96 atoms
103 bonds
190 angles
327 dihedrals
78 impropers

9 atom types
13 bond types
7 angle types
12 dihedral types
2 improper types
-5.531000137 94.46899986 xlo xhi
-3.653000116 96.34699988 ylo yhi
-10.05200005 89.94799995 zlo zhi
0.0 0.0 0.0 xy xz yz

Masses

1	15.99943
2	12.01078
3	1.007947
4	12.01078
5	1.007947
6	15.99943
7	15.99943
8	1.007947
9	35.4532


Pair Coeffs

1	0.16846514	3.0251065
2	0.086879315	3.4806469
3	0.015611343	2.5725815
4	0.10884061	3.3795318
5	0.015779483	2.6445434
6	0.2102061	3.0398122
7	0.20947353	2.99716
8	1.2326e-05	0.53453923
9	0.2656001	3.3075278

Bond Coeffs

1 harmonic	425.69104206635	1.362945806494
2 harmonic	300.03137914615	1.451203938761
3 harmonic	360.7852444772	1.387193227181
4 harmonic	397.2545789619	1.085358495916
5 harmonic	289.73813263395	1.498646816465
6 harmonic	264.62148576755	1.52190126495
7 harmonic	370.04670688625	1.093899492634
8 harmonic	301.15400723785	1.345741232799
9 harmonic	582.698766451	1.225198386222
10 harmonic	279.1350963404	1.454628925034
11 harmonic	385.7604595587	1.369745182308
12 harmonic	543.5267831885	0.9716763312559
13 harmonic	218.0227703685	1.746066037062


Angle Coeffs

1 harmonic	57.8982893754	126.8062420451
2 harmonic	65.09061609600001	110.3538806181
3 harmonic	34.066775159195	129.1835929926
4 harmonic	53.20531626545	116.5475862634
5 harmonic	14.32262199324	138.3184368373
6 harmonic	48.776492647595	115.6030999533
7 harmonic	201.41175231035	127.4691416191


Dihedral Coeffs

1 fourier 1	3.661930099076	2	180
2 fourier 1	1.532232714475	2	180
3 fourier 1	0.457973137376	1	0
4 fourier 1	0.02664938770063	3	0
5 fourier 1	0.1155372516788	3	0
6 fourier 1	0.09223874044423	3	0
7 fourier 1	0.3159935921949	2	180
8 fourier 1	0.3247796806857	1	180
9 fourier 1	0.1040663847541	3	0
10 fourier 1	2.779853741805	2	180
11 fourier 1	0.9974165607242	2	180
12 fourier 1	0.8283030590042	2	180


Improper Coeffs

1 0.3666666666666667	-1	2
2 3.5	-1	2


Atoms

1	1	1	-0.052894998	-4.9489999	2.0250001	-1.646
2	1	2	0.23270801	-3.6989999	1.541	-1.266
3	1	2	-0.36475199	-2.5780001	2.2490001	-1.516
4	1	3	0.201014	-2.6340001	3.2060001	-2.0179999
5	1	2	-0.063865997	-1.255	1.7180001	-1.112
6	1	3	0.197161	-0.352	2.273	-1.331
7	1	2	-0.10101	-1.2	0.53500003	-0.48100001
8	1	2	-0.207416	-2.4000001	-0.22400001	-0.20200001
9	1	2	-0.18360899	-3.6059999	0.228	-0.57999998
10	1	3	0.194233	-4.5009999	-0.35299999	-0.39500001
11	1	4	-0.037239	-2.076	-1.524	0.46700001
12	1	4	-0.138813	-2.3150001	-2.6889999	-0.50999999
13	1	5	0.079107001	-3.3889999	-2.7509999	-0.79000002
14	1	5	0.079107001	-2.02	-3.6530001	-0.041999999
15	1	5	0.079107001	-1.72	-2.552	-1.439
16	1	4	-0.138813	-2.9119999	-1.717	1.7460001
17	1	5	0.079107001	-3.99	-1.8329999	1.501
18	1	5	0.079107001	-2.799	-0.84299999	2.4230001
19	1	5	0.079107001	-2.5780001	-2.628	2.2880001
20	1	4	-0.161714	-0.55699998	-1.391	0.80500001
21	1	5	0.111543	-0.0060000001	-2.3380001	0.62
22	1	5	0.111543	-0.43200001	-1.183	1.892
23	1	4	0.118568	0.016000001	-0.20100001	-0.025
24	1	2	-0.10101	0.94199997	0.64999998	0.78200001
25	1	2	-0.062687002	0.639	1.415	1.841
26	1	3	0.197161	-0.38	1.492	2.198
27	1	2	-0.30265701	1.7309999	2.1500001	2.523
28	1	3	0.20265301	1.5	2.7780001	3.3740001
29	1	2	0.39660999	3.0009999	2.0309999	2.092
30	1	1	-0.454337	4.0180001	2.721	2.7449999
31	1	2	-0.14665	3.3099999	1.164	0.92500001
32	1	3	0.19289701	4.3309999	1.049	0.58700001
33	1	2	-0.207387	2.303	0.52600002	0.308
34	1	4	-0.037239	2.3900001	-0.41499999	-0.85399997
35	1	4	-0.138813	3.145	0.22499999	-2.0350001
36	1	5	0.079107001	4.2129998	0.39199999	-1.779
37	1	5	0.079107001	2.6919999	1.204	-2.3039999
38	1	5	0.079107001	3.0999999	-0.44100001	-2.924
39	1	4	-0.138813	3.082	-1.72	-0.421
40	1	5	0.079107001	3.096	-2.447	-1.26
41	1	5	0.079107001	4.131	-1.523	-0.111
42	1	5	0.079107001	2.546	-2.1819999	0.43599999
43	1	4	-0.161714	0.89499998	-0.67900002	-1.221
44	1	5	0.111543	0.713	-1.745	-1.479
45	1	5	0.111543	0.62599999	-0.103	-2.1359999
46	1	2	0.62367499	5.0149999	2.6440001	2.4289999
47	1	6	-0.53260201	5.6259999	1.6	2.585
48	1	1	-0.052894998	-5.0539999	2.9170001	-2.1170001
49	1	2	0.23270801	-4.0869999	3.401	-2.994
50	1	2	-0.36475199	-2.9660001	2.6930001	-3.247
51	1	3	0.201014	-2.802	1.7359999	-2.7690001
52	1	2	-0.063865997	-1.942	3.224	-4.177
53	1	3	0.197161	-1.0319999	2.668	-4.3649998
54	1	2	-0.10101	-2.1619999	4.4060001	-4.7709999
55	1	2	-0.207416	-3.3670001	5.165	-4.5110002
56	1	2	-0.18360899	-4.296	4.7140002	-3.654
57	1	3	0.194233	-5.184	5.2940001	-3.4389999
58	1	4	-0.037239	-3.359	6.4650002	-5.2540002
59	1	4	-0.138813	-3.158	7.631	-4.2680001
60	1	5	0.079107001	-4.0100002	7.6929998	-3.5569999
61	1	5	0.079107001	-3.0910001	8.5939999	-4.8179998
62	1	5	0.079107001	-2.223	7.493	-3.6830001
63	1	4	-0.138813	-4.6620002	6.6589999	-6.053
64	1	5	0.079107001	-5.5310001	6.7750001	-5.3720002
65	1	5	0.079107001	-4.849	5.7849998	-6.7140002
66	1	5	0.079107001	-4.5910001	7.5700002	-6.6859999
67	1	4	-0.161714	-2.131	6.3319998	-6.2090001
68	1	5	0.111543	-1.553	7.2800002	-6.277
69	1	5	0.111543	-2.4809999	6.125	-7.2449999
70	1	4	0.118568	-1.257	5.1430001	-5.7030001
71	1	2	-0.10101	-0.76499999	4.2919998	-6.8270001
72	1	2	-0.003731	-1.4910001	3.527	-7.6560001
73	1	3	0.197161	-2.5650001	3.45	-7.5440001
74	1	2	-0.43636501	-0.796	2.7920001	-8.7390003
75	1	3	0.20634601	-1.368	2.164	-9.4099998
76	1	2	0.35635501	0.537	2.9100001	-8.8920002
77	1	7	-0.65912598	1.178	2.221	-9.9169998
78	1	8	0.424604	2.1789999	2.2950001	-10.052
79	1	2	-0.37185699	1.3150001	3.7780001	-7.9689999
80	1	3	0.20003401	2.3829999	3.8929999	-8.099
81	1	2	-0.177999	0.66799998	4.4159999	-6.9809999
82	1	4	-0.037239	1.243	5.3559999	-5.967
83	1	4	-0.138813	2.4300001	4.717	-5.2210002
84	1	5	0.079107001	3.286	4.5500002	-5.9089999
85	1	5	0.079107001	2.1359999	3.7379999	-4.7849998
86	1	5	0.079107001	2.7690001	5.3829999	-4.3990002
87	1	4	-0.138813	1.684	6.6609998	-6.6550002
88	1	5	0.079107001	2.0550001	7.3889999	-5.901
89	1	5	0.079107001	2.5	6.4640002	-7.3829999
90	1	5	0.079107001	0.833	7.1240001	-7.2010002
91	1	4	-0.161714	0.048999999	5.6199999	-4.9970002
92	1	5	0.111543	-0.0070000002	6.6869998	-4.6859999
93	1	5	0.111543	0.19599999	5.0450001	-4.0549998
94	1	2	0.46297899	5.5029998	3.493	1.9630001
95	1	6	-0.62136799	4.868	4.507	1.727
96	1	9	-0.106567	7.2049999	3.408	1.55

Bonds

1	1	1	2
2	2	1	48
3	3	2	3
4	3	2	9
5	4	3	4
6	3	3	5
7	4	5	6
8	3	5	7
9	3	7	8
10	5	7	23
11	3	8	9
12	5	8	11
13	4	9	10
14	6	11	12
15	6	11	16
16	6	11	20
17	7	12	13
18	7	12	14
19	7	12	15
20	7	16	17
21	7	16	18
22	7	16	19
23	7	20	21
24	7	20	22
25	6	20	23
26	5	23	24
27	6	23	43
28	3	24	25
29	3	24	33
30	4	25	26
31	3	25	27
32	4	27	28
33	3	27	29
34	1	29	30
35	3	29	31
36	8	30	46
37	4	31	32
38	3	31	33
39	5	33	34
40	6	34	35
41	6	34	39
42	6	34	43
43	7	35	36
44	7	35	37
45	7	35	38
46	7	39	40
47	7	39	41
48	7	39	42
49	7	43	44
50	7	43	45
51	9	46	47
52	10	46	94
53	1	48	49
54	3	49	50
55	3	49	56
56	4	50	51
57	3	50	52
58	4	52	53
59	3	52	54
60	3	54	55
61	5	54	70
62	3	55	56
63	5	55	58
64	4	56	57
65	6	58	59
66	6	58	63
67	6	58	67
68	7	59	60
69	7	59	61
70	7	59	62
71	7	63	64
72	7	63	65
73	7	63	66
74	7	67	68
75	7	67	69
76	6	67	70
77	5	70	71
78	6	70	91
79	3	71	72
80	3	71	81
81	4	72	73
82	3	72	74
83	4	74	75
84	3	74	76
85	11	76	77
86	3	76	79
87	12	77	78
88	4	79	80
89	3	79	81
90	5	81	82
91	6	82	83
92	6	82	87
93	6	82	91
94	7	83	84
95	7	83	85
96	7	83	86
97	7	87	88
98	7	87	89
99	7	87	90
100	7	91	92
101	7	91	93
102	9	94	95
103	13	94	96

Angles

1	4	67	70	71
2	5	79	81	82
3	1	70	71	72
4	4	58	59	62
5	3	50	52	53
6	3	6	5	7
7	3	8	9	10
8	6	40	39	41
9	1	74	76	79
10	1	95	94	96
11	4	11	20	22
12	3	76	79	80
13	4	83	82	91
14	4	82	83	85
15	4	22	20	23
16	3	71	72	73
17	4	8	11	20
18	6	18	16	19
19	3	49	50	51
20	6	84	83	85
21	1	49	50	52
22	3	72	74	75
23	4	20	23	24
24	3	73	72	74
25	4	34	43	45
26	2	2	1	48
27	4	11	20	21
28	1	46	94	95
29	4	82	83	84
30	1	48	49	50
31	4	11	16	18
32	4	55	58	67
33	1	7	8	11
34	4	81	82	83
35	4	21	20	23
36	1	29	31	33
37	4	11	20	23
38	4	82	87	89
39	1	52	54	55
40	4	54	70	71
41	1	23	24	33
42	3	49	56	57
43	6	13	12	14
44	4	58	63	65
45	4	33	34	35
46	4	12	11	16
47	4	11	12	15
48	4	58	67	70
49	3	80	79	81
50	4	11	12	13
51	1	54	55	58
52	4	16	11	20
53	6	64	63	65
54	1	48	49	56
55	4	71	70	91
56	1	1	2	9
57	6	37	35	38
58	4	58	67	69
59	3	2	3	4
60	1	72	71	81
61	1	76	79	81
62	6	89	87	90
63	4	34	39	40
64	4	55	58	59
65	1	71	72	74
66	1	30	29	31
67	6	68	67	69
68	4	58	59	61
69	1	49	56	55
70	4	11	16	17
71	4	34	35	38
72	4	87	82	91
73	6	88	87	90
74	4	70	91	93
75	1	46	94	96
76	4	34	35	36
77	4	82	91	92
78	3	32	31	33
79	6	36	35	37
80	3	24	25	26
81	2	1	48	49
82	7	30	46	47
83	4	34	35	37
84	4	82	87	90
85	1	25	24	33
86	4	23	43	34
87	3	53	52	54
88	4	59	58	67
89	1	72	74	76
90	4	83	82	87
91	1	52	54	70
92	4	23	43	45
93	3	28	27	29
94	1	71	81	79
95	6	17	16	18
96	1	7	8	9
97	6	13	12	15
98	1	23	24	25
99	1	3	5	7
100	3	4	3	5
101	4	34	43	44
102	4	8	11	16
103	6	92	91	93
104	4	7	23	43
105	4	68	67	70
106	1	54	55	56
107	4	70	91	82
108	4	33	34	39
109	2	76	77	78
110	1	50	52	54
111	4	69	67	70
112	1	47	46	94
113	4	58	59	60
114	4	58	63	66
115	4	54	70	67
116	4	55	58	63
117	1	3	2	9
118	4	34	39	42
119	6	41	39	42
120	6	44	43	45
121	6	36	35	38
122	4	33	34	43
123	3	25	27	28
124	4	58	63	64
125	1	8	7	23
126	6	64	63	66
127	4	81	82	91
128	6	60	59	62
129	1	77	76	79
130	6	84	83	86
131	3	2	9	10
132	1	24	33	34
133	4	35	34	39
134	6	40	39	42
135	1	1	2	3
136	1	25	27	29
137	6	65	63	66
138	1	71	81	82
139	4	35	34	43
140	5	31	33	34
141	6	85	83	86
142	4	63	58	67
143	3	3	5	6
144	1	24	25	27
145	4	20	23	43
146	4	82	87	88
147	6	21	20	22
148	3	29	31	32
149	4	12	11	20
150	1	2	3	5
151	4	23	43	44
152	4	8	11	12
153	4	67	70	91
154	4	11	16	19
155	2	29	30	46
156	4	7	23	24
157	1	24	33	31
158	3	51	50	52
159	6	14	12	15
160	4	82	91	93
161	4	59	58	63
162	6	17	16	19
163	1	27	29	30
164	1	70	71	81
165	6	88	87	89
166	3	75	74	76
167	1	74	76	77
168	4	7	23	20
169	6	61	59	62
170	4	70	91	92
171	4	82	83	86
172	4	24	23	43
173	3	55	56	57
174	1	5	7	23
175	4	58	67	68
176	4	39	34	43
177	5	9	8	11
178	6	60	59	61
179	1	50	49	56
180	4	34	39	41
181	4	11	12	14
182	1	2	9	8
183	1	27	29	31
184	1	30	46	94
185	1	5	7	8
186	1	55	54	70
187	4	54	70	91
188	5	56	55	58
189	4	81	82	87
190	3	26	25	27

Dihedrals

1	1	25	24	33	31
2	1	50	52	54	55
3	9	22	20	23	43
4	4	54	55	58	63
5	9	87	82	91	92
6	1	52	54	55	58
7	9	65	63	58	67
8	9	86	83	82	87
9	9	89	87	82	91
10	1	2	3	5	7
11	1	25	27	29	30
12	1	24	33	31	32
13	4	5	7	23	43
14	9	16	11	20	22
15	4	24	33	34	35
16	5	7	23	20	22
17	1	74	72	71	81
18	5	8	11	20	21
19	9	85	83	82	87
20	9	60	59	58	63
21	1	57	56	55	58
22	1	5	3	2	9
23	1	51	50	49	56
24	1	26	25	24	33
25	5	33	34	35	38
26	5	7	23	20	21
27	9	12	11	20	21
28	1	1	2	3	4
29	5	58	67	70	71
30	5	55	58	59	62
31	1	70	71	81	82
32	1	72	71	81	82
33	6	20	23	43	34
33	7	20	23	43	34
33	8	20	23	43	34
34	1	29	31	33	34
35	5	33	34	35	36
36	6	16	11	20	23
36	7	16	11	20	23
36	8	16	11	20	23
37	9	61	59	58	67
38	6	70	91	82	87
38	7	70	91	82	87
38	8	70	91	82	87
39	4	71	81	82	87
40	4	5	7	23	20
41	5	81	82	91	93
42	9	20	23	43	45
43	1	49	56	55	58
44	9	14	12	11	16
45	4	31	33	34	35
46	9	35	34	39	41
47	5	33	34	35	37
48	1	73	72	71	81
49	9	63	58	67	68
50	1	53	52	54	55
51	4	20	23	24	25
52	1	24	33	31	29
53	2	9	2	1	48
54	5	7	23	43	44
55	1	70	71	72	74
56	5	81	82	83	84
57	1	27	25	24	33
58	1	32	31	33	34
59	5	8	11	12	15
60	5	68	67	70	71
61	5	81	82	87	89
62	5	54	70	91	92
63	9	83	82	87	90
64	4	9	8	11	16
65	1	4	3	5	7
66	1	26	25	27	28
67	9	15	12	11	20
68	4	31	33	34	39
69	1	74	76	79	80
70	5	8	11	12	13
71	1	28	27	29	30
72	2	1	48	49	50
73	4	54	70	71	81
74	1	50	52	54	70
75	9	67	70	91	92
76	9	19	16	11	20
77	9	69	67	70	91
78	1	73	72	74	75
79	1	5	7	8	9
80	1	49	50	52	54
81	5	8	11	20	22
82	9	41	39	34	43
83	6	23	43	34	35
83	7	23	43	34	35
83	8	23	43	34	35
84	9	35	34	39	40
85	1	52	54	55	56
86	1	72	74	76	77
87	9	59	58	63	65
88	4	7	23	24	33
89	9	63	58	67	69
90	4	31	33	34	43
91	5	55	58	63	65
92	4	71	81	82	83
93	9	61	59	58	63
94	5	8	11	16	19
95	6	11	20	23	43
95	7	11	20	23	43
95	8	11	20	23	43
96	9	12	11	20	22
97	1	2	3	5	6
98	1	27	29	31	32
99	4	7	8	11	16
100	4	55	54	70	67
101	5	22	20	23	24
102	4	25	24	23	43
103	1	26	25	27	29
104	9	13	12	11	16
105	9	59	58	67	68
106	9	62	59	58	67
107	2	27	29	30	46
108	1	28	27	29	31
109	5	33	34	39	42
110	5	54	70	67	68
111	4	5	7	23	24
112	9	12	11	16	19
113	5	55	58	67	68
114	1	3	5	7	23
115	4	24	33	34	39
116	11	30	46	94	95
117	4	56	55	58	59
118	5	8	11	20	23
119	5	11	20	23	24
120	2	1	48	49	56
121	5	33	34	43	45
122	5	81	82	83	85
123	1	80	79	81	82
124	1	25	27	29	31
125	1	75	74	76	77
126	1	3	5	7	8
127	1	71	81	79	80
128	6	12	11	20	23
128	7	12	11	20	23
128	8	12	11	20	23
129	4	24	33	34	43
130	4	54	70	71	72
131	5	55	58	59	61
132	1	3	2	9	10
133	4	79	81	82	91
134	1	53	52	54	70
135	9	59	58	67	69
136	1	72	74	76	79
137	9	83	82	91	92
138	5	55	58	67	69
139	5	71	70	91	82
140	5	81	82	87	90
141	4	67	70	71	72
142	4	56	55	58	67
143	1	77	76	79	80
144	4	55	54	70	91
145	9	17	16	11	20
146	1	48	49	56	57
147	1	74	76	79	81
148	1	1	2	9	10
149	5	33	34	43	44
150	9	18	16	11	20
151	4	8	7	23	43
152	1	51	50	52	54
153	6	63	58	67	70
153	7	63	58	67	70
153	8	63	58	67	70
154	1	10	9	8	11
155	9	62	59	58	63
156	9	64	63	58	67
157	9	20	23	43	44
158	1	23	24	25	26
159	1	4	3	5	6
160	1	23	24	33	34
161	4	79	81	82	87
162	4	67	70	71	81
163	9	35	34	43	45
164	5	71	70	91	93
165	9	39	34	43	45
166	1	11	8	7	23
167	6	70	91	82	83
167	7	70	91	82	83
167	8	70	91	82	83
168	1	56	55	54	70
169	4	7	23	24	25
170	4	52	54	70	67
171	9	83	82	87	88
172	5	54	70	91	82
173	12	78	77	76	79
174	6	23	43	34	39
174	7	23	43	34	39
174	8	23	43	34	39
175	1	6	5	7	23
176	11	30	46	94	96
177	1	54	55	56	57
178	1	71	72	74	75
179	11	47	46	94	95
180	10	29	30	46	94
181	9	36	35	34	39
182	6	67	70	91	82
182	7	67	70	91	82
182	8	67	70	91	82
183	1	4	3	2	9
184	1	1	2	3	5
185	1	23	24	25	27
186	1	48	49	56	55
187	4	56	55	58	63
188	1	71	81	79	76
189	5	8	11	16	18
190	9	15	12	11	16
191	1	24	25	27	28
192	1	6	5	7	8
193	1	49	56	55	54
194	6	59	58	67	70
194	7	59	58	67	70
194	8	59	58	67	70
195	9	35	34	43	44
196	5	55	58	67	70
197	5	55	58	59	60
198	9	39	34	43	44
199	5	55	58	63	66
200	9	59	58	63	66
201	9	84	83	82	91
202	4	55	54	70	71
203	9	42	39	34	43
204	9	36	35	34	43
205	9	59	58	63	64
206	1	9	8	7	23
207	5	81	82	91	92
208	9	12	11	16	18
209	1	27	29	31	33
210	5	54	70	91	93
211	5	55	58	63	64
212	3	2	1	48	49
213	1	77	76	79	81
214	1	30	29	31	32
215	9	85	83	82	91
216	1	76	79	81	82
217	12	74	76	77	78
218	5	33	34	39	41
219	5	54	70	67	69
220	9	67	70	91	93
221	5	69	67	70	71
222	4	52	54	70	91
223	1	2	9	8	7
224	1	3	2	9	8
225	9	87	82	91	93
226	5	54	70	67	58
227	4	54	55	58	59
228	1	24	25	27	29
229	9	84	83	82	87
230	9	14	12	11	20
231	1	49	50	52	53
232	9	68	67	70	91
233	4	33	24	23	43
234	1	50	49	56	57
235	9	40	39	34	43
236	4	71	81	82	91
237	1	1	2	9	8
238	2	31	29	30	46
239	2	29	30	46	47
240	5	23	43	34	33
241	5	24	23	43	34
242	9	35	34	39	42
243	5	7	23	43	34
244	1	30	29	31	33
245	4	8	7	23	24
246	9	90	87	82	91
247	4	9	8	11	12
248	5	24	23	43	45
249	5	33	34	39	40
250	5	7	23	43	45
251	5	8	11	16	17
252	4	9	8	11	20
253	5	70	91	82	81
254	5	71	70	91	92
255	1	75	74	76	79
256	1	25	24	33	34
257	1	70	71	81	79
258	9	16	11	20	21
259	4	54	55	58	67
260	1	72	71	81	79
261	9	88	87	82	91
262	11	47	46	94	96
263	9	66	63	58	67
264	1	73	72	74	76
265	9	21	20	23	43
266	9	38	35	34	39
267	5	7	23	20	11
268	4	8	7	23	20
269	9	12	11	16	17
270	1	48	49	50	51
271	1	48	49	50	52
272	1	7	8	9	10
273	1	52	50	49	56
274	4	20	23	24	33
275	1	2	9	8	11
276	9	86	83	82	91
277	4	7	8	11	12
278	9	83	82	91	93
279	5	81	82	87	88
280	4	7	8	11	20
281	9	60	59	58	67
282	5	24	23	43	44
283	9	37	35	34	39
284	5	21	20	23	24
285	9	38	35	34	43
286	1	50	49	56	55
287	4	52	54	70	71
288	9	13	12	11	20
289	6	58	67	70	91
289	7	58	67	70	91
289	8	58	67	70	91
290	1	71	72	74	76
291	4	72	71	70	91
292	5	8	11	12	14
293	5	81	82	83	86
294	1	70	71	72	73
295	4	79	81	82	83
296	2	3	2	1	48
297	1	23	24	33	31
298	1	58	55	54	70
299	1	5	7	8	11
300	4	81	71	70	91
301	1	51	50	52	53
302	9	37	35	34	43
303	9	83	82	87	89

Impropers

2	1	71	70	72	81
5	1	55	58	54	56
19	1	24	33	23	25
33	1	25	24	26	27
38	1	52	54	50	53
40	1	24	25	33	23
41	1	79	76	80	81
43	1	5	3	6	7
61	1	33	34	24	31
68	1	54	70	52	55
81	1	7	5	8	23
90	1	31	29	32	33
92	1	2	1	3	9
106	1	49	50	56	48
137	1	24	23	25	33
142	1	31	32	33	29
147	1	27	29	25	28
154	1	29	27	30	31
158	1	2	3	9	1
159	1	5	6	7	3
169	1	27	28	29	25
181	1	9	2	8	10
182	1	94	96	46	95
183	1	74	75	76	72
195	1	8	11	7	9
211	1	55	56	58	54
217	1	56	57	49	55
228	1	74	72	75	76
229	1	29	30	31	27
231	1	50	49	51	52
239	1	76	77	79	74
242	1	81	79	82	71
248	1	56	49	55	57
259	1	2	9	1	3
262	1	5	7	3	6
263	1	71	72	81	70
268	1	49	56	48	50
281	1	76	74	77	79
284	1	72	71	73	74
286	1	3	4	5	2
301	1	9	8	10	2
306	1	49	48	50	56
334	2	46	94	30	47
338	1	3	2	4	5
354	1	7	8	23	5
355	1	33	24	31	34
367	1	25	27	24	26
376	1	31	33	29	32
380	1	8	9	11	7
381	1	27	25	28	29
399	1	9	10	2	8
411	1	79	80	81	76
414	1	54	55	70	52
422	1	7	23	5	8
430	1	72	73	74	71
435	1	94	95	96	46
436	1	55	54	56	58
448	1	56	55	57	49
451	1	54	52	55	70
453	1	50	51	52	49
456	1	79	81	76	80
471	2	46	47	94	30
490	1	52	50	53	54
492	1	94	46	95	96
493	1	25	26	27	24
494	1	81	71	79	82
515	2	46	30	47	94
524	1	33	31	34	24
525	1	3	5	2	4
529	1	74	76	72	75
536	1	50	52	49	51
539	1	81	82	71	79
541	1	29	31	27	30
547	1	72	74	71	73
551	1	76	79	74	77
564	1	8	7	9	11
577	1	52	53	54	50
581	1	71	81	70	72
