Title

96 atoms
103 bonds
190 angles
327 dihedrals
78 impropers

9 atom types
13 bond types
7 angle types
12 dihedral types
2 improper types
-5.531000137 94.46899986 xlo xhi
-3.653000116 96.34699988 ylo yhi
-10.05200005 89.94799995 zlo zhi
0.0 0.0 0.0 xy xz yz

Masses

1	15.99943
2	12.01078
3	1.007947
4	12.01078
5	1.007947
6	15.99943
7	15.99943
8	1.007947
9	35.4532


Pair Coeffs

1	0.16846514	3.0251065
2	0.086879315	3.4806469
3	0.015611343	2.5725815
4	0.10884061	3.3795318
5	0.015779483	2.6445434
6	0.2102061	3.0398122
7	0.20947353	2.99716
8	1.2326e-05	0.53453923
9	0.2656001	3.3075278

Bond Coeffs

1 harmonic	425.69104206635	1.362945806494
2 harmonic	300.03137914615	1.451203938761
3 harmonic	360.7852444772	1.387193227181
4 harmonic	397.2545789619	1.085358495916
5 harmonic	289.73813263395	1.498646816465
6 harmonic	264.62148576755	1.52190126495
7 harmonic	370.04670688625	1.093899492634
8 harmonic	301.15400723785	1.345741232799
9 harmonic	582.698766451	1.225198386222
10 harmonic	279.1350963404	1.454628925034
11 harmonic	385.7604595587	1.369745182308
12 harmonic	543.5267831885	0.9716763312559
13 harmonic	218.0227703685	1.746066037062


Angle Coeffs

1 harmonic	57.8982893754	126.8062420451
2 harmonic	65.09061609600001	110.3538806181
3 harmonic	34.066775159195	129.1835929926
4 harmonic	53.20531626545	116.5475862634
5 harmonic	14.32262199324	138.3184368373
6 harmonic	48.776492647595	115.6030999533
7 harmonic	201.41175231035	127.4691416191


Dihedral Coeffs

1 fourier 1	3.661930099076	2	180
2 fourier 1	1.532232714475	2	180
3 fourier 1	0.457973137376	1	0
4 fourier 1	0.02664938770063	3	0
5 fourier 1	0.1155372516788	3	0
6 fourier 1	0.09223874044423	3	0
7 fourier 1	0.3159935921949	2	180
8 fourier 1	0.3247796806857	1	180
9 fourier 1	0.1040663847541	3	0
10 fourier 1	2.779853741805	2	180
11 fourier 1	0.9974165607242	2	180
12 fourier 1	0.8283030590042	2	180


Improper Coeffs

1 0.3666666666666667	-1	2
2 3.5	-1	2


Atoms

1	1	1	-0.052894998	-4.9489999	2.0250001	-1.646
2	1	2	0.23270801	-3.6989999	1.541	-1.266
3	1	2	-0.36475199	-2.5780001	2.2490001	-1.516
4	1	3	0.201014	-2.6340001	3.2060001	-2.0179999
5	1	2	-0.063865997	-1.255	1.7180001	-1.112
6	1	3	0.197161	-0.352	2.273	-1.331
7	1	2	-0.10101	-1.2	0.53500003	-0.48100001
8	1	2	-0.207416	-2.4000001	-0.22400001	-0.20200001
9	1	2	-0.18360899	-3.6059999	0.228	-0.57999998
10	1	3	0.194233	-4.5009999	-0.35299999	-0.39500001
11	1	4	-0.037239	-2.076	-1.524	0.46700001
12	1	4	-0.138813	-2.3150001	-2.6889999	-0.50999999
13	1	5	0.079107001	-3.3889999	-2.7509999	-0.79000002
14	1	5	0.079107001	-2.02	-3.6530001	-0.041999999
15	1	5	0.079107001	-1.72	-2.552	-1.439
16	1	4	-0.138813	-2.9119999	-1.717	1.7460001
17	1	5	0.079107001	-3.99	-1.8329999	1.501
18	1	5	0.079107001	-2.799	-0.84299999	2.4230001
19	1	5	0.079107001	-2.5780001	-2.628	2.2880001
20	1	4	-0.161714	-0.55699998	-1.391	0.80500001
21	1	5	0.111543	-0.0060000001	-2.3380001	0.62
22	1	5	0.111543	-0.43200001	-1.183	1.892
23	1	4	0.118568	0.016000001	-0.20100001	-0.025
24	1	2	-0.10101	0.94199997	0.64999998	0.78200001
25	1	2	-0.062687002	0.639	1.415	1.841
26	1	3	0.197161	-0.38	1.492	2.198
27	1	2	-0.30265701	1.7309999	2.1500001	2.523
28	1	3	0.20265301	1.5	2.7780001	3.3740001
29	1	2	0.39660999	3.0009999	2.0309999	2.092
30	1	1	-0.454337	4.0180001	2.721	2.7449999
31	1	2	-0.14665	3.3099999	1.164	0.92500001
32	1	3	0.19289701	4.3309999	1.049	0.58700001
33	1	2	-0.207387	2.303	0.52600002	0.308
34	1	4	-0.037239	2.3900001	-0.41499999	-0.85399997
35	1	4	-0.138813	3.145	0.22499999	-2.0350001
36	1	5	0.079107001	4.2129998	0.39199999	-1.779
37	1	5	0.079107001	2.6919999	1.204	-2.3039999
38	1	5	0.079107001	3.0999999	-0.44100001	-2.924
39	1	4	-0.138813	3.082	-1.72	-0.421
40	1	5	0.079107001	3.096	-2.447	-1.26
41	1	5	0.079107001	4.131	-1.523	-0.111
42	1	5	0.079107001	2.546	-2.1819999	0.43599999
43	1	4	-0.161714	0.89499998	-0.67900002	-1.221
44	1	5	0.111543	0.713	-1.745	-1.479
45	1	5	0.111543	0.62599999	-0.103	-2.1359999
46	1	2	0.62367499	5.0149999	2.6440001	2.4289999
47	1	6	-0.53260201	5.6259999	1.6	2.585
48	1	1	-0.052894998	-5.0539999	2.9170001	-2.1170001
49	1	2	0.23270801	-4.0869999	3.401	-2.994
50	1	2	-0.36475199	-2.9660001	2.6930001	-3.247
51	1	3	0.201014	-2.802	1.7359999	-2.7690001
52	1	2	-0.063865997	-1.942	3.224	-4.177
53	1	3	0.197161	-1.0319999	2.668	-4.3649998
54	1	2	-0.10101	-2.1619999	4.4060001	-4.7709999
55	1	2	-0.207416	-3.3670001	5.165	-4.5110002
56	1	2	-0.18360899	-4.296	4.7140002	-3.654
57	1	3	0.194233	-5.184	5.2940001	-3.4389999
58	1	4	-0.037239	-3.359	6.4650002	-5.2540002
59	1	4	-0.138813	-3.158	7.631	-4.2680001
60	1	5	0.079107001	-4.0100002	7.6929998	-3.5569999
61	1	5	0.079107001	-3.0910001	8.5939999	-4.8179998
62	1	5	0.079107001	-2.223	7.493	-3.6830001
63	1	4	-0.138813	-4.6620002	6.6589999	-6.053
64	1	5	0.079107001	-5.5310001	6.7750001	-5.3720002
65	1	5	0.079107001	-4.849	5.7849998	-6.7140002
66	1	5	0.079107001	-4.5910001	7.5700002	-6.6859999
67	1	4	-0.161714	-2.131	6.3319998	-6.2090001
68	1	5	0.111543	-1.553	7.2800002	-6.277
69	1	5	0.111543	-2.4809999	6.125	-7.2449999
70	1	4	0.118568	-1.257	5.1430001	-5.7030001
71	1	2	-0.10101	-0.76499999	4.2919998	-6.8270001
72	1	2	-0.003731	-1.4910001	3.527	-7.6560001
73	1	3	0.197161	-2.5650001	3.45	-7.5440001
74	1	2	-0.43636501	-0.796	2.7920001	-8.7390003
75	1	3	0.20634601	-1.368	2.164	-9.4099998
76	1	2	0.35635501	0.537	2.9100001	-8.8920002
77	1	7	-0.65912598	1.178	2.221	-9.9169998
78	1	8	0.424604	2.1789999	2.2950001	-10.052
79	1	2	-0.37185699	1.3150001	3.7780001	-7.9689999
80	1	3	0.20003401	2.3829999	3.8929999	-8.099
81	1	2	-0.177999	0.66799998	4.4159999	-6.9809999
82	1	4	-0.037239	1.243	5.3559999	-5.967
83	1	4	-0.138813	2.4300001	4.717	-5.2210002
84	1	5	0.079107001	3.286	4.5500002	-5.9089999
85	1	5	0.079107001	2.1359999	3.7379999	-4.7849998
86	1	5	0.079107001	2.7690001	5.3829999	-4.3990002
87	1	4	-0.138813	1.684	6.6609998	-6.6550002
88	1	5	0.079107001	2.0550001	7.3889999	-5.901
89	1	5	0.079107001	2.5	6.4640002	-7.3829999
90	1	5	0.079107001	0.833	7.1240001	-7.2010002
91	1	4	-0.161714	0.048999999	5.6199999	-4.9970002
92	1	5	0.111543	-0.0070000002	6.6869998	-4.6859999
93	1	5	0.111543	0.19599999	5.0450001	-4.0549998
94	1	2	0.46297899	5.5029998	3.493	1.9630001
95	1	6	-0.62136799	4.868	4.507	1.727
96	1	9	-0.106567	7.2049999	3.408	1.55

Bonds

1	1	1	2
2	2	1	48
3	3	2	3
4	3	2	9
5	4	3	4
6	3	3	5
7	4	5	6
8	3	5	7
9	3	7	8
10	5	7	23
11	3	8	9
12	5	8	11
13	4	9	10
14	6	11	12
15	6	11	16
16	6	11	20
17	7	12	13
18	7	12	14
19	7	12	15
20	7	16	17
21	7	16	18
22	7	16	19
23	7	20	21
24	7	20	22
25	6	20	23
26	5	23	24
27	6	23	43
28	3	24	25
29	3	24	33
30	4	25	26
31	3	25	27
32	4	27	28
33	3	27	29
34	1	29	30
35	3	29	31
36	8	30	46
37	4	31	32
38	3	31	33
39	5	33	34
40	6	34	35
41	6	34	39
42	6	34	43
43	7	35	36
44	7	35	37
45	7	35	38
46	7	39	40
47	7	39	41
48	7	39	42
49	7	43	44
50	7	43	45
51	9	46	47
52	10	46	94
53	1	48	49
54	3	49	50
55	3	49	56
56	4	50	51
57	3	50	52
58	4	52	53
59	3	52	54
60	3	54	55
61	5	54	70
62	3	55	56
63	5	55	58
64	4	56	57
65	6	58	59
66	6	58	63
67	6	58	67
68	7	59	60
69	7	59	61
70	7	59	62
71	7	63	64
72	7	63	65
73	7	63	66
74	7	67	68
75	7	67	69
76	6	67	70
77	5	70	71
78	6	70	91
79	3	71	72
80	3	71	81
81	4	72	73
82	3	72	74
83	4	74	75
84	3	74	76
85	11	76	77
86	3	76	79
87	12	77	78
88	4	79	80
89	3	79	81
90	5	81	82
91	6	82	83
92	6	82	87
93	6	82	91
94	7	83	84
95	7	83	85
96	7	83	86
97	7	87	88
98	7	87	89
99	7	87	90
100	7	91	92
101	7	91	93
102	9	94	95
103	13	94	96

Angles

1	3	75	74	76
2	4	11	20	23
3	3	8	9	10
4	6	37	35	38
5	4	54	70	71
6	6	61	59	62
7	2	76	77	78
8	4	82	91	93
9	1	71	81	82
10	3	24	25	26
11	3	72	74	75
12	4	58	59	61
13	4	70	91	82
14	1	3	5	7
15	1	2	3	5
16	1	5	7	8
17	1	23	24	33
18	6	21	20	22
19	1	95	94	96
20	4	68	67	70
21	3	73	72	74
22	6	40	39	42
23	1	49	56	55
24	6	84	83	86
25	1	30	29	31
26	4	11	16	19
27	6	40	39	41
28	4	24	23	43
29	3	50	52	53
30	4	70	91	92
31	3	53	52	54
32	1	48	49	50
33	4	58	59	60
34	1	7	8	11
35	1	49	50	52
36	3	80	79	81
37	1	47	46	94
38	4	34	35	38
39	1	52	54	70
40	1	2	9	8
41	4	7	23	43
42	4	81	82	87
43	4	33	34	43
44	1	46	94	95
45	4	23	43	45
46	6	44	43	45
47	6	84	83	85
48	1	5	7	23
49	6	60	59	61
50	4	7	23	20
51	6	13	12	14
52	4	58	67	68
53	4	22	20	23
54	4	34	35	36
55	4	23	43	44
56	6	89	87	90
57	4	11	20	22
58	2	2	1	48
59	1	50	49	56
60	4	34	35	37
61	6	41	39	42
62	1	72	74	76
63	1	54	55	56
64	1	46	94	96
65	3	32	31	33
66	1	24	33	31
67	4	82	83	85
68	4	58	63	66
69	1	3	2	9
70	4	23	43	34
71	6	64	63	66
72	2	29	30	46
73	4	69	67	70
74	1	24	25	27
75	1	23	24	25
76	1	8	7	23
77	3	51	50	52
78	3	76	79	80
79	4	54	70	91
80	4	16	11	20
81	4	11	12	15
82	4	35	34	39
83	1	72	71	81
84	4	83	82	91
85	4	58	67	70
86	3	4	3	5
87	6	68	67	69
88	6	36	35	38
89	1	7	8	9
90	4	34	43	45
91	6	88	87	89
92	6	17	16	18
93	1	25	27	29
94	4	20	23	24
95	4	34	43	44
96	4	70	91	93
97	1	74	76	79
98	1	76	79	81
99	5	9	8	11
100	4	58	63	64
101	4	67	70	71
102	4	87	82	91
103	4	11	16	18
104	1	55	54	70
105	6	36	35	37
106	5	31	33	34
107	1	27	29	30
108	4	8	11	12
109	4	82	91	92
110	1	30	46	94
111	6	88	87	90
112	4	82	87	90
113	6	92	91	93
114	6	64	63	65
115	1	29	31	33
116	6	18	16	19
117	4	55	58	67
118	3	28	27	29
119	1	27	29	31
120	4	55	58	63
121	4	82	87	88
122	3	3	5	6
123	4	58	59	62
124	3	25	27	28
125	4	11	20	21
126	1	77	76	79
127	3	6	5	7
128	3	2	9	10
129	6	85	83	86
130	4	20	23	43
131	4	11	12	13
132	6	14	12	15
133	5	79	81	82
134	4	81	82	91
135	4	59	58	67
136	1	70	71	81
137	4	33	34	39
138	6	65	63	66
139	4	58	67	69
140	4	82	87	89
141	4	34	39	42
142	6	13	12	15
143	3	2	3	4
144	3	49	56	57
145	4	59	58	63
146	4	12	11	16
147	4	34	39	40
148	4	82	83	84
149	1	1	2	9
150	4	33	34	35
151	6	60	59	62
152	4	67	70	91
153	3	29	31	32
154	4	8	11	16
155	4	54	70	67
156	3	26	25	27
157	4	63	58	67
158	4	12	11	20
159	4	11	16	17
160	4	55	58	59
161	3	71	72	73
162	5	56	55	58
163	6	17	16	19
164	1	52	54	55
165	4	21	20	23
166	1	54	55	58
167	4	8	11	20
168	4	11	12	14
169	4	35	34	43
170	7	30	46	47
171	1	74	76	77
172	1	70	71	72
173	4	83	82	87
174	1	71	81	79
175	4	82	83	86
176	1	25	24	33
177	1	1	2	3
178	1	71	72	74
179	3	49	50	51
180	4	71	70	91
181	2	1	48	49
182	1	48	49	56
183	4	39	34	43
184	1	50	52	54
185	4	58	63	65
186	4	81	82	83
187	1	24	33	34
188	3	55	56	57
189	4	34	39	41
190	4	7	23	24

Dihedrals

1	4	54	70	71	81
2	9	40	39	34	43
3	9	63	58	67	68
4	4	31	33	34	35
5	9	62	59	58	63
6	9	86	83	82	87
7	4	8	7	23	43
8	11	47	46	94	96
9	5	71	70	91	92
10	9	19	16	11	20
11	1	25	24	33	31
12	9	59	58	63	66
13	5	81	82	83	84
14	4	71	81	82	83
15	4	24	33	34	35
16	4	8	7	23	20
17	1	54	55	56	57
18	5	8	11	20	22
19	9	15	12	11	20
20	5	23	43	34	33
21	9	36	35	34	39
22	5	55	58	67	70
23	1	25	27	29	30
24	1	26	25	27	29
25	1	2	9	8	11
26	1	73	72	74	76
27	11	30	46	94	95
28	5	55	58	63	65
29	5	7	23	43	44
30	1	24	25	27	28
31	4	52	54	70	67
32	5	55	58	67	69
33	5	54	70	91	82
34	6	16	11	20	23
34	7	16	11	20	23
34	8	16	11	20	23
35	1	76	79	81	82
36	5	54	70	67	69
37	1	3	5	7	8
38	5	33	34	43	44
39	9	83	82	91	93
40	1	72	74	76	77
41	4	9	8	11	16
42	6	23	43	34	35
42	7	23	43	34	35
42	8	23	43	34	35
43	11	30	46	94	96
44	1	52	54	55	58
45	1	53	52	54	55
46	9	64	63	58	67
47	1	1	2	3	4
48	5	7	23	43	34
49	5	55	58	59	61
50	1	23	24	25	26
51	9	39	34	43	44
52	9	12	11	20	22
53	5	7	23	20	22
54	1	11	8	7	23
55	1	24	33	31	32
56	9	59	58	63	64
57	5	8	11	12	15
58	1	73	72	71	81
59	5	81	82	83	86
60	4	9	8	11	20
61	4	31	33	34	39
62	1	74	76	79	80
63	5	54	70	67	58
64	9	68	67	70	91
65	1	2	3	5	6
66	5	54	70	91	92
67	4	7	23	24	33
68	1	58	55	54	70
69	2	31	29	30	46
70	1	74	72	71	81
71	4	54	70	71	72
72	1	26	25	27	28
73	1	52	50	49	56
74	4	55	54	70	67
75	1	70	71	72	73
76	9	59	58	67	68
77	1	3	5	7	23
78	5	8	11	16	18
79	9	38	35	34	43
80	4	71	81	82	87
81	1	27	29	31	32
82	9	37	35	34	43
83	9	35	34	43	45
84	6	20	23	43	34
84	7	20	23	43	34
84	8	20	23	43	34
85	5	55	58	59	60
86	1	74	76	79	81
87	9	88	87	82	91
88	5	71	70	91	93
89	9	69	67	70	91
90	5	81	82	83	85
91	5	81	82	91	93
92	9	35	34	43	44
93	1	50	49	56	57
94	4	52	54	70	71
95	1	52	54	55	56
96	9	36	35	34	43
97	1	28	27	29	30
98	6	23	43	34	39
98	7	23	43	34	39
98	8	23	43	34	39
99	9	84	83	82	87
100	6	70	91	82	83
100	7	70	91	82	83
100	8	70	91	82	83
101	9	16	11	20	22
102	4	20	23	24	33
103	9	17	16	11	20
104	1	26	25	24	33
105	4	33	24	23	43
106	1	70	71	72	74
107	9	35	34	39	40
108	1	70	71	81	79
109	9	89	87	82	91
110	1	2	9	8	7
111	2	1	48	49	50
112	9	87	82	91	92
113	1	80	79	81	82
114	9	12	11	16	18
115	2	29	30	46	47
116	1	48	49	50	51
117	5	8	11	20	21
118	4	7	8	11	12
119	1	1	2	9	8
120	6	59	58	67	70
120	7	59	58	67	70
120	8	59	58	67	70
121	6	63	58	67	70
121	7	63	58	67	70
121	8	63	58	67	70
122	9	16	11	20	21
123	5	7	23	20	11
124	1	23	24	25	27
125	9	85	83	82	91
126	9	86	83	82	91
127	9	67	70	91	93
128	1	24	33	31	29
129	1	49	56	55	58
130	4	55	54	70	71
131	1	4	3	2	9
132	4	7	23	24	25
133	5	8	11	12	13
134	5	21	20	23	24
135	5	22	20	23	24
136	1	70	71	81	82
137	1	75	74	76	79
138	4	7	8	11	16
139	1	48	49	56	57
140	1	4	3	5	6
141	9	12	11	16	17
142	1	6	5	7	8
143	9	90	87	82	91
144	5	58	67	70	71
145	4	24	33	34	43
146	5	24	23	43	45
147	1	1	2	3	5
148	1	53	52	54	70
149	1	72	71	81	79
150	5	24	23	43	44
151	9	12	11	20	21
152	1	3	2	9	8
153	5	7	23	20	21
154	5	11	20	23	24
155	4	7	8	11	20
156	5	55	58	63	64
157	1	32	31	33	34
158	1	30	29	31	33
159	9	35	34	39	42
160	2	3	2	1	48
161	4	54	55	58	67
162	2	27	29	30	46
163	2	9	2	1	48
164	9	60	59	58	67
165	5	24	23	43	34
166	4	5	7	23	24
167	4	20	23	24	25
168	9	83	82	91	92
169	9	83	82	87	90
170	1	51	50	52	54
171	4	54	55	58	63
172	1	72	71	81	82
173	9	60	59	58	63
174	5	55	58	67	68
175	5	8	11	16	17
176	9	18	16	11	20
177	4	52	54	70	91
178	5	70	91	82	81
179	5	54	70	67	68
180	1	48	49	50	52
181	1	71	72	74	75
182	1	72	74	76	79
183	4	56	55	58	67
184	1	9	8	7	23
185	5	55	58	63	66
186	9	42	39	34	43
187	9	13	12	11	20
188	5	33	34	39	42
189	5	33	34	35	37
190	1	71	81	79	76
191	4	79	81	82	91
192	9	83	82	87	88
193	1	10	9	8	11
194	1	50	52	54	55
195	1	2	3	5	7
196	1	49	50	52	53
197	1	50	49	56	55
198	5	55	58	59	62
199	1	5	3	2	9
200	4	67	70	71	81
201	5	8	11	12	14
202	9	59	58	63	65
203	1	5	7	8	11
204	4	56	55	58	63
205	9	59	58	67	69
206	4	31	33	34	43
207	9	14	12	11	16
208	5	33	34	39	40
209	1	25	24	33	34
210	9	61	59	58	67
211	9	63	58	67	69
212	9	65	63	58	67
213	1	77	76	79	80
214	4	79	81	82	83
215	6	11	20	23	43
215	7	11	20	23	43
215	8	11	20	23	43
216	9	38	35	34	39
217	4	72	71	70	91
218	4	81	71	70	91
219	3	2	1	48	49
220	9	37	35	34	39
221	5	54	70	91	93
222	5	81	82	91	92
223	1	49	50	52	54
224	5	81	82	87	90
225	1	50	52	54	70
226	1	57	56	55	58
227	9	61	59	58	63
228	4	5	7	23	43
229	9	14	12	11	20
230	9	41	39	34	43
231	9	12	11	16	19
232	1	28	27	29	31
233	1	51	50	52	53
234	9	83	82	87	89
235	4	55	54	70	91
236	9	84	83	82	91
237	5	7	23	43	45
238	4	5	7	23	20
239	6	67	70	91	82
239	7	67	70	91	82
239	8	67	70	91	82
240	4	9	8	11	12
241	4	8	7	23	24
242	1	56	55	54	70
243	9	66	63	58	67
244	5	8	11	20	23
245	1	23	24	33	34
246	1	1	2	9	10
247	6	58	67	70	91
247	7	58	67	70	91
247	8	58	67	70	91
248	1	29	31	33	34
249	6	70	91	82	87
249	7	70	91	82	87
249	8	70	91	82	87
250	5	33	34	43	45
251	1	71	81	79	80
252	1	77	76	79	81
253	5	81	82	87	88
254	1	27	25	24	33
255	1	30	29	31	32
256	1	73	72	74	75
257	12	74	76	77	78
258	1	23	24	33	31
259	9	35	34	39	41
260	5	68	67	70	71
261	1	25	27	29	31
262	1	48	49	56	55
263	9	13	12	11	16
264	2	1	48	49	56
265	4	54	55	58	59
266	9	39	34	43	45
267	1	71	72	74	76
268	5	33	34	35	38
269	1	6	5	7	23
270	4	25	24	23	43
271	9	87	82	91	93
272	5	71	70	91	82
273	1	49	56	55	54
274	9	67	70	91	92
275	1	24	25	27	29
276	5	33	34	35	36
277	9	21	20	23	43
278	9	20	23	43	45
279	9	22	20	23	43
280	1	3	2	9	10
281	1	51	50	49	56
282	6	12	11	20	23
282	7	12	11	20	23
282	8	12	11	20	23
283	5	8	11	16	19
284	1	5	7	8	9
285	4	67	70	71	72
286	1	75	74	76	77
287	1	7	8	9	10
288	9	20	23	43	44
289	11	47	46	94	95
290	5	69	67	70	71
291	1	4	3	5	7
292	9	62	59	58	67
293	4	56	55	58	59
294	5	33	34	39	41
295	4	79	81	82	87
296	4	24	33	34	39
297	5	81	82	87	89
298	12	78	77	76	79
299	10	29	30	46	94
300	9	85	83	82	87
301	4	71	81	82	91
302	1	27	29	31	33
303	9	15	12	11	16

Impropers

2	1	27	29	25	28
14	1	27	28	29	25
19	1	49	56	48	50
26	1	76	77	79	74
32	1	7	5	8	23
38	1	79	81	76	80
46	1	33	31	34	24
47	1	81	71	79	82
56	1	2	1	3	9
69	1	9	10	2	8
77	1	24	23	25	33
82	1	8	9	11	7
85	1	5	6	7	3
88	1	3	2	4	5
89	1	2	3	9	1
92	1	29	31	27	30
93	1	29	30	31	27
96	1	25	27	24	26
99	1	56	49	55	57
101	1	71	81	70	72
113	1	24	25	33	23
123	1	50	52	49	51
125	1	55	58	54	56
134	1	79	76	80	81
137	1	71	72	81	70
140	1	25	26	27	24
151	1	76	79	74	77
156	1	50	51	52	49
159	1	55	56	58	54
162	1	7	23	5	8
165	1	54	55	70	52
174	1	31	33	29	32
175	1	74	72	75	76
176	1	52	50	53	54
211	1	81	79	82	71
213	1	25	24	26	27
214	2	46	47	94	30
218	1	29	27	30	31
240	1	79	80	81	76
242	1	81	82	71	79
243	1	33	24	31	34
257	1	72	73	74	71
258	1	31	29	32	33
268	1	33	34	24	31
272	1	54	52	55	70
279	1	24	33	23	25
306	1	50	49	51	52
313	1	71	70	72	81
314	1	9	8	10	2
315	2	46	94	30	47
337	1	52	54	50	53
338	1	55	54	56	58
339	1	8	7	9	11
374	1	76	74	77	79
377	1	72	74	71	73
392	2	46	30	47	94
408	1	2	9	1	3
410	1	7	8	23	5
415	1	49	50	56	48
421	1	9	2	8	10
430	1	49	48	50	56
437	1	5	7	3	6
442	1	3	4	5	2
444	1	54	70	52	55
460	1	94	95	96	46
486	1	52	53	54	50
487	1	56	55	57	49
502	1	5	3	6	7
510	1	31	32	33	29
511	1	74	75	76	72
519	1	3	5	2	4
522	1	27	25	28	29
539	1	74	76	72	75
549	1	94	96	46	95
553	1	94	46	95	96
558	1	56	57	49	55
570	1	8	11	7	9
577	1	72	71	73	74
