Title

11500 atoms
11625 bonds
20250 angles
37250 dihedrals
7500 impropers

12 atom types
17 bond types
10 angle types
37 dihedral types
3 improper types
-10.62016148 121.0142433 xlo xhi
-12.3382666 119.3726254 ylo yhi
-11.86882483 121.0065597 zlo zhi
0.0 0.0 0.0 xy xz yz

Masses

1	12.01078
2	15.99943
3	14.00672
4	12.01078
5	1.007947
6	1.007947
7	1.007947
8	15.99943
9	1.007947
10	12.01078
11	15.99943
12	1.007947


Pair Coeffs

1	0.086879315	3.4806469
2	0.2102061	3.0398122
3	0.16769152	3.206876
4	0.10884061	3.3795318
5	0.014090815	1.1034277
6	0.016409246	2.5832257
7	0.015779483	2.6445434
8	0.16846514	3.0251065
9	0.015611343	2.5725815
10	0.21	3.3996695
11	0.20947353	2.99716
12	1.2326e-05	0.53453923

Bond Coeffs

1 harmonic	582.698766451	1.225198386222
2 harmonic	492.76746816345	1.381897776683
3 harmonic	279.1350963404	1.454628925034
4 harmonic	352.0565580496	1.450098586273
5 harmonic	505.144496193	1.019481865027
6 harmonic	264.62148576755	1.52190126495
7 harmonic	370.04670688625	1.093899492634
8 harmonic	301.15400723785	1.345741232799
9 harmonic	366.7408841747	1.425895053732
10 harmonic	366.34047229585	1.464762957261
11 harmonic	390.03554688505	1.390160554689
12 harmonic	360.7852444772	1.387193227181
13 harmonic	397.2545789619	1.085358495916
14 harmonic	300.03137914615	1.451203938761
15 harmonic	602.81384337	1.196112346392
16 harmonic	329.96998057905	1.427343958716
17 harmonic	543.5267831885	0.9716763312559


Angle Coeffs

1 harmonic	55.42182150775	117.3465570514
2 harmonic	63.44422595415	115.5071327674
3 harmonic	57.8982893754	126.8062420451
4 harmonic	53.20531626545	116.5475862634
5 harmonic	65.09061609600001	110.3538806181
6 harmonic	201.41175231035	127.4691416191
7 harmonic	48.776492647595	115.6030999533
8 harmonic	34.066775159195	129.1835929926
9 harmonic	55.07882548015	112.8714009681
10 harmonic	33.56981613361	180


Dihedral Coeffs

1 fourier 1	-0.1488678166443	4	180
2 fourier 1	-0.1230328948768	3	180
3 fourier 1	0.2939295466901	2	0
4 fourier 1	-0.3024127022865	1	0
5 fourier 1	0.182238503271	2	0
6 fourier 1	0.02972342374561	3	0
7 fourier 1	1.809047390003	2	180
8 fourier 1	-0.04816277792592	1	0
9 fourier 1	3.101948770557	2	180
10 fourier 1	-0.4252153282372	1	0
11 fourier 1	2.348375642009	2	180
12 fourier 1	1.256156174911	1	0
13 fourier 1	0.9974165607242	2	180
14 fourier 1	0.1155372516788	3	0
15 fourier 1	0.09223874044423	3	0
16 fourier 1	0.3159935921949	2	180
17 fourier 1	0.3247796806857	1	180
18 fourier 1	0.1040663847541	3	0
19 fourier 1	2.779853741805	2	180
20 fourier 1	0.1918272375143	3	0
21 fourier 1	0.9202179876409	1	180
22 fourier 1	0.0473758381877	3	0
23 fourier 1	0.4860993122944	2	180
24 fourier 1	0.8916986138746	1	0
25 fourier 1	1.163809172478	2	180
26 fourier 1	0.1679186987369	1	180
27 fourier 1	0.1911926717192	3	0
28 fourier 1	0.1115525666802	3	0
29 fourier 1	0.3432490222662	1	0
30 fourier 1	1.193093382682	2	180
31 fourier 1	3.661930099076	2	180
32 fourier 1	0.457973137376	1	0
33 fourier 1	-1.382973039546	1	0
34 fourier 1	0	1	0
35 fourier 1	0.3445382149273	3	0
36 fourier 1	0.1364556373303	1	0
37 fourier 1	0.3026390167484	3	0


Improper Coeffs

1 0.3333333333333333	-1	2
2 0.3666666666666667	-1	2
3 3.5	-1	2


Atoms

1	6	1	0.54967522	-2.2953979	0.9959976	-7.0387976
2	6	2	-0.64309311	-2.3841304	0.86043042	-8.2883228
3	6	3	-0.51403874	-1.3695438	0.21314871	-6.2808399
4	6	4	0.034319387	-0.50102993	-0.7777669	-6.9191054
5	6	4	-0.14255785	0.4317526	-1.4493469	-5.9035331
6	6	4	-0.14124114	1.5156309	-0.48458048	-5.3953712
7	6	4	0.028613126	2.4731891	-1.1693843	-4.4115684
8	6	3	-0.4565883	1.7740673	-1.5946887	-3.1991173
9	6	1	0.79335558	1.3487782	-0.67736359	-2.1868649
10	6	2	-0.57260424	1.5761262	0.55716344	-2.2948735
11	6	5	0.33464235	1.6256045	-2.6155036	-3.0361702
12	6	6	0.070753453	3.2961657	-0.4726424	-4.1426847
13	6	6	0.070753453	2.9340745	-2.0541584	-4.9023926
14	6	7	0.098840816	1.048464	0.3963315	-4.9078067
15	6	7	0.098840816	2.1092199	-0.11603352	-6.2605107
16	6	7	0.098840816	-0.16988557	-1.8373831	-5.0528637
17	6	7	0.098840816	0.92218329	-2.3159584	-6.3970383
18	6	6	0.067041455	0.099411413	-0.29157001	-7.7181121
19	6	6	0.067041455	-1.135307	-1.5590724	-7.3919143
20	6	5	0.32806662	-1.3424944	0.35594761	-5.2462028
21	7	8	-0.49408323	0.85192788	-1.0325874	-1.3481475
22	7	4	0.11751712	1.4633483	-0.43300399	-0.23894828
23	7	4	0.1539129	2.8002731	-1.1173827	0.064214557
24	7	3	-0.66115636	3.4842241	-0.45244836	1.1856838
25	7	1	0.27388936	4.4120219	0.64881967	0.95335186
26	7	1	-0.43431571	5.2744626	1.0591097	1.9120093
27	7	9	0.21180261	5.3199393	0.58685443	2.8815169
28	7	1	-0.13426331	6.2139583	2.1730817	1.6660112
29	7	9	0.21642956	6.8949419	2.4834559	2.4478803
30	7	1	-0.27877093	6.2252013	2.7945855	0.48522011
31	7	9	0.2138	6.9134325	3.610654	0.30545374
32	7	1	-0.13426331	5.2975046	2.3687487	-0.57652935
33	7	9	0.21642957	5.3076017	2.8783344	-1.5326206
34	7	1	-0.43431568	4.4435457	1.3612404	-0.36227917
35	7	9	0.2118026	3.7756138	1.0860363	-1.1652603
36	7	4	0.15558824	3.1784376	-0.93987776	2.5420684
37	7	4	0.038943691	4.1386611	-2.0621667	2.9454148
38	7	8	-0.13507733	3.8706163	-2.4831582	4.2543488
39	7	6	0.10197411	3.999278	-2.9269546	2.262067
40	7	6	0.10197411	5.1981153	-1.7350704	2.8551169
41	7	6	0.081964886	3.2093	-0.10501149	3.2754958
42	7	6	0.081964886	2.1394764	-1.3348012	2.5799782
43	7	6	0.083637459	2.6017251	-2.1827776	0.31575671
44	7	6	0.083637459	3.4506579	-1.1366979	-0.83582798
45	7	6	0.095993219	1.601953	0.65651723	-0.41583312
46	7	6	0.095993219	0.78923251	-0.5431307	0.63716419
47	4	1	0.54967528	-2.9280069	1.7144539	-6.5350751
48	4	2	-0.64309317	-2.4238144	2.496102	-5.6855981
49	4	3	-0.5140388	-4.324246	1.7661435	-6.8400331
50	4	4	0.034608109	-5.2173183	2.7200112	-6.184787
51	4	4	-0.13744931	-6.6536787	2.562023	-6.6944167
52	4	4	-0.1195101	-7.5954565	3.5594941	-6.0104737
53	4	4	0.18854539	-9.0334319	3.397747	-6.5189799
54	4	3	-0.58896202	-9.9169294	4.3878864	-5.9119696
55	4	10	0.59655016	-10.211573	4.3597987	-4.673407
56	4	2	-0.40465096	-10.496546	4.331746	-3.4697798
57	4	6	0.043274229	-9.0504522	3.5444024	-7.6201649
58	4	6	0.043274229	-9.4091585	2.3732193	-6.300839
59	4	7	0.092672309	-7.250928	4.5969173	-6.218746
60	4	7	0.092672309	-7.5720581	3.3924816	-4.9112648
61	4	7	0.097848071	-7.0014608	1.5249236	-6.4888481
62	4	7	0.097848071	-6.6705813	2.7298737	-7.793945
63	4	6	0.067041455	-5.1927914	2.5473377	-5.0868743
64	4	6	0.067041455	-4.8628738	3.7537203	-6.3921216
65	4	5	0.32806664	-4.6954531	1.0965599	-7.5524319
66	5	8	-0.13507733	4.2543025	-1.7942819	4.8578713
67	5	4	0.038943691	3.636774	-1.9658123	6.1038668
68	5	4	0.1567474	2.2190259	-1.3848782	6.0771797
69	5	3	-0.65294677	1.5352914	-1.620108	7.3593435
70	5	1	0.2755757	0.74401833	-2.8251138	7.5788108
71	5	1	-0.43431571	-0.1332767	-2.9162564	8.6055413
72	5	9	0.21180261	-0.29065723	-2.1031908	9.2980626
73	5	1	-0.13426331	-0.93474919	-4.1393853	8.8173584
74	5	9	0.21642956	-1.6300721	-4.1891582	9.6459558
75	5	1	-0.27877093	-0.80411291	-5.1797525	7.992577
76	5	9	0.2138	-1.3914928	-6.0759405	8.1471664
77	5	1	-0.13426331	0.14250934	-5.1090487	6.8662825
78	5	9	0.21642957	0.24737585	-5.9559838	6.2003532
79	5	1	-0.43431568	0.87154589	-4.0043949	6.6675294
80	5	9	0.2118026	1.559069	-3.9973414	5.8343258
81	5	4	0.12467342	1.6999497	-0.5954584	8.4064762
82	5	4	0.084953731	0.60431995	0.46979089	8.2994364
83	5	11	-0.67266947	0.74177712	1.4107238	9.328222
84	5	12	0.3980836	0.39129494	0.98131352	10.153165
85	5	6	0.095048738	0.69845982	0.99562585	7.3262642
86	5	6	0.095048738	-0.4081202	0.0089598618	8.3311965
87	5	6	0.088740362	1.7068273	-1.0616521	9.4146538
88	5	6	0.088740362	2.6872438	-0.095303799	8.298353
89	5	6	0.081964886	2.2889102	-0.29297558	5.8771252
90	5	6	0.081964886	1.6306571	-1.8082808	5.2354183
91	5	6	0.10197411	3.6221253	-3.0431091	6.3823413
92	5	6	0.10197411	4.2367599	-1.4322748	6.869751
93	6	1	0.54967522	6.9895496	2.5466133	25.385263
94	6	2	-0.64309311	8.0252395	3.0465897	25.899981
95	6	3	-0.51403874	5.7998973	2.3687641	26.158344
96	6	4	0.034319387	5.7401634	2.7475068	27.571355
97	6	4	-0.14255785	4.3464362	2.5035584	28.163389
98	6	4	-0.14124114	3.3084706	3.4956535	27.613689
99	6	4	0.028613126	1.9241786	3.2774386	28.238076
100	6	3	-0.4565883	1.3851285	1.9633484	27.888384
101	6	1	0.79335558	0.87550131	1.6552576	26.587472
102	6	2	-0.57260424	0.85759008	2.5252376	25.676306
103	6	5	0.33464235	1.3175949	1.2333982	28.632203
104	6	6	0.070753453	1.2272177	4.0707505	27.891753
105	6	6	0.070753453	2.0017787	3.3630459	29.343879
106	6	7	0.098840816	3.2371853	3.4053826	26.509723
107	6	7	0.098840816	3.636835	4.5321957	27.846923
108	6	7	0.098840816	4.0338482	1.4584577	27.948372
109	6	7	0.098840816	4.4085368	2.6202183	29.266846
110	6	6	0.067041455	6.0156637	3.8182586	27.685018
111	6	6	0.067041455	6.47947	2.1395887	28.137178
112	6	5	0.32806662	4.9717481	1.9397819	25.687451
113	7	8	-0.49408323	0.50893059	0.70458723	26.391659
114	7	4	0.11751712	-0.72348708	0.87748082	25.747522
115	7	4	0.1539129	-1.8041866	1.260366	26.763955
116	7	3	-0.66115636	-3.088902	1.5110759	26.089959
117	7	1	0.27388936	-3.4430815	2.8457752	25.620159
118	7	1	-0.43431571	-4.7166378	3.1630037	25.290634
119	7	9	0.21180261	-5.5229942	2.4497729	25.368923
120	7	1	-0.13426331	-5.0668525	4.5193339	24.819658
121	7	9	0.21642956	-6.0924987	4.7499206	24.562229
122	7	1	-0.27877093	-4.1243302	5.4578453	24.712377
123	7	9	0.2138	-4.3812279	6.4512201	24.367187
124	7	1	-0.13426331	-2.7298597	5.1403899	25.064434
125	7	9	0.21642957	-1.9671178	5.904382	24.972614
126	7	1	-0.43431568	-2.4040082	3.9149837	25.491543
127	7	9	0.2118026	-1.3686919	3.7227539	25.731994
128	7	4	0.15558824	-3.9849354	0.35654615	25.902724
129	7	4	0.038943691	-4.9261735	0.19950156	27.100078
130	7	8	-0.13507733	-5.8060119	-0.86989752	26.888749
131	7	6	0.10197411	-4.3273932	-0.012237564	28.011604
132	7	6	0.10197411	-5.4961829	1.1362809	27.287488
133	7	6	0.081964886	-4.5574158	0.45358005	24.954715
134	7	6	0.081964886	-3.388222	-0.57622203	25.799193
135	7	6	0.083637459	-1.912124	0.42783224	27.494023
136	7	6	0.083637459	-1.4946976	2.1450534	27.35977
137	7	6	0.095993219	-0.63687035	1.644654	24.946585
138	7	6	0.095993219	-1.0033667	-0.080504812	25.259604
139	4	1	0.54967528	7.0023511	2.2493173	24.345281
140	4	2	-0.64309317	6.0459897	2.5788447	23.594562
141	4	3	-0.5140388	8.1021468	1.488147	23.839095
142	4	4	0.034608109	8.1624819	1.0643589	22.4414
143	4	4	-0.13744931	9.4420844	0.26731349	22.167265
144	4	4	-0.1195101	9.5110097	-0.18053545	20.702904
145	4	4	0.18854539	10.790607	-0.98125553	20.430889
146	4	3	-0.58896202	10.884167	-1.3547135	19.023345
147	4	10	0.59655016	10.087805	-2.1958584	18.494267
148	4	2	-0.40465096	9.313048	-3.0127652	17.981305
149	4	6	0.043274229	11.673648	-0.35665916	20.684907
150	4	6	0.043274229	10.819071	-1.8946721	21.065927
151	4	7	0.092672309	9.4943143	0.71372029	20.040822
152	4	7	0.092672309	8.625005	-0.81073399	20.469352
153	4	7	0.097848071	9.46292	-0.62759804	22.828691
154	4	7	0.097848071	10.324375	0.90251135	22.402869
155	4	6	0.067041455	7.2766381	0.43254477	22.213537
156	4	6	0.067041455	8.138845	1.9628482	21.786166
157	4	5	0.32806664	8.872048	1.2391307	24.501585
158	5	8	-0.13507733	-6.4971638	-0.54698979	26.253104
159	5	4	0.038943691	-7.1052663	-1.6869164	25.710843
160	5	4	0.1567474	-6.1959669	-2.3198192	24.652157
161	5	3	-0.65294677	-6.7937998	-3.5569265	24.124018
162	5	1	0.2755757	-6.5164307	-4.848484	24.741483
163	5	1	-0.43431571	-6.7896743	-6.009809	24.102115
164	5	9	0.21180261	-7.2148962	-6.0309233	23.110062
165	5	1	-0.13426331	-6.5005445	-7.3140979	24.733387
166	5	9	0.21642956	-6.7281418	-8.2300058	24.202503
167	5	1	-0.27877093	-5.9613503	-7.3659272	25.952516
168	5	9	0.2138	-5.7489381	-8.3213675	26.415205
169	5	1	-0.13426331	-5.6528041	-6.1183163	26.672168
170	5	9	0.21642957	-5.2172895	-6.1642957	27.662103
171	5	1	-0.43431568	-5.9112443	-4.93308	26.106765
172	5	9	0.2118026	-5.6764898	-4.0430072	26.67212
173	5	4	0.12467342	-7.6901963	-3.4265961	22.960835
174	5	4	0.084953731	-6.9010837	-3.5416105	21.652901
175	5	11	-0.67266947	-7.768785	-3.4652403	20.555673
176	5	12	0.3980836	-8.2166202	-4.3498187	20.486922
177	5	6	0.095048738	-6.1760263	-2.7034841	21.587596
178	5	6	0.095048738	-6.3177695	-4.4886749	21.617935
179	5	6	0.088740362	-8.5031482	-4.1822316	23.004768
180	5	6	0.088740362	-8.1966863	-2.4367825	22.979051
181	5	6	0.081964886	-6.048791	-1.5860654	23.829295
182	5	6	0.081964886	-5.1833501	-2.5180999	25.06362
183	5	6	0.10197411	-7.3477752	-2.4152266	26.5165
184	5	6	0.10197411	-8.0619288	-1.3833413	25.237701
185	6	1	0.54967522	7.254192	-0.48085025	47.686669
186	6	2	-0.64309311	8.4639021	-0.158236	47.544942
187	6	3	-0.51403874	6.3079382	0.44405952	48.228613
188	6	4	0.034319387	6.7047999	1.789622	48.647631
189	6	4	-0.14255785	5.5044329	2.6027268	49.1481
190	6	4	-0.14124114	4.5549337	2.9878075	48.00182
191	6	4	0.028613126	3.37697	3.8365943	48.497506
192	6	3	-0.4565883	2.5330734	3.0834746	49.425052
193	6	1	0.79335558	1.6415844	2.0493598	48.997425
194	6	2	-0.57260424	1.5353746	1.7491274	47.778413
195	6	5	0.33464235	2.5385491	3.3457073	50.435923
196	6	6	0.070753453	2.7687763	4.176184	47.631586
197	6	6	0.070753453	3.7666348	4.7450785	49.006394
198	6	7	0.098840816	4.1708856	2.0764411	47.497946
199	6	7	0.098840816	5.1175079	3.5791845	47.246555
200	6	7	0.098840816	4.9601607	2.0166621	49.920418
201	6	7	0.098840816	5.8844727	3.5296904	49.629134
202	6	6	0.067041455	7.1911371	2.3187283	47.79978
203	6	6	0.067041455	7.4464838	1.7045242	49.471619
204	6	5	0.32806662	5.3191881	0.12387587	48.335631
205	7	8	-0.49408323	1.0687331	1.5429652	49.698779
206	7	4	0.11751712	-0.23945651	1.5118726	49.197449
207	7	4	0.1539129	-0.91440422	2.8736548	49.391472
208	7	3	-0.66115636	-2.2659515	2.8739326	48.807571
209	7	1	0.27388936	-2.4851857	3.2685736	47.42057
210	7	1	-0.43431571	-3.7203832	3.5757479	46.961117
211	7	9	0.21180261	-4.5909757	3.5512286	47.598695
212	7	1	-0.13426331	-3.9322494	3.9788015	45.555143
213	7	9	0.21642956	-4.9293768	4.2203286	45.210482
214	7	1	-0.27877093	-2.8998297	4.0463995	44.712409
215	7	9	0.2138	-3.0554463	4.3415273	43.682541
216	7	1	-0.13426331	-1.5442939	3.7177308	45.185452
217	7	9	0.21642957	-0.7093431	3.7706168	44.497011
218	7	1	-0.43431568	-1.3435228	3.351781	46.456669
219	7	9	0.2118026	-0.33488636	3.1122991	46.759902
220	7	4	0.15558824	-3.373904	2.4472033	49.680048
221	7	4	0.038943691	-3.9662525	3.6432271	50.430315
222	7	8	-0.13507733	-5.0499431	3.2337169	51.21791
223	7	6	0.10197411	-3.191143	4.0780635	51.096927
224	7	6	0.10197411	-4.2831905	4.4423656	49.724257
225	7	6	0.081964886	-4.1549859	1.9178285	49.092218
226	7	6	0.081964886	-3.00819	1.7089444	50.427088
227	7	6	0.083637459	-0.9695384	3.0874703	50.481887
228	7	6	0.083637459	-0.29872524	3.6887607	48.955592
229	7	6	0.095993219	-0.23565184	1.2156806	48.125156
230	7	6	0.095993219	-0.81116929	0.73797107	49.752746
231	4	1	0.54967528	6.9292763	-1.4701307	47.393643
232	4	2	-0.64309317	5.8814855	-1.6002938	46.70663
233	4	3	-0.5140388	7.6921101	-2.6130947	47.789715
234	4	4	0.034608109	7.2917738	-3.9686983	47.417078
235	4	4	-0.13744931	8.2810798	-5.0010356	47.967866
236	4	4	-0.1195101	7.8663454	-6.4250614	47.580803
237	4	4	0.18854539	8.8555537	-7.4574976	48.135831
238	4	3	-0.58896202	8.4931037	-8.8071131	47.715625
239	4	10	0.59655016	7.4434633	-9.3876904	48.143207
240	4	2	-0.40465096	6.4230372	-9.9503968	48.558908
241	4	6	0.043274229	9.872831	-7.2337708	47.74918
242	4	6	0.043274229	8.8887225	-7.4047811	49.246927
243	4	7	0.092672309	7.8334506	-6.5128756	46.471961
244	4	7	0.092672309	6.8508125	-6.6340761	47.982931
245	4	7	0.097848071	8.317589	-4.9154269	49.076976
246	4	7	0.097848071	9.2945722	-4.7866879	47.562514
247	4	6	0.067041455	6.2776457	-4.1739743	47.82357
248	4	6	0.067041455	7.2549537	-4.0466341	46.30814
249	4	5	0.32806664	8.5543894	-2.4534163	48.359475
250	5	8	-0.13507733	-5.8170477	3.1063323	50.600392
251	5	4	0.038943691	-6.7468294	2.3063302	51.277718
252	5	4	0.1567474	-6.2908848	0.84335776	51.272031
253	5	3	-0.65294677	-7.2248296	0.003502196	52.039598
254	5	1	0.2755757	-7.0301524	-0.22568406	53.466445
255	5	1	-0.43431571	-7.6738352	-1.2240686	54.115313
256	5	9	0.21180261	-8.3492798	-1.8953424	53.60679
257	5	1	-0.13426331	-7.4666105	-1.4522424	55.560396
258	5	9	0.21642956	-7.99294	-2.2571599	56.058
259	5	1	-0.27877093	-6.6350078	-0.67108218	56.251713
260	5	9	0.2138	-6.4825576	-0.83821971	57.310434
261	5	1	-0.13426331	-5.9204107	0.423007	55.572043
262	5	9	0.21642957	-5.2480422	1.0561477	56.136677
263	5	1	-0.43431568	-6.1024158	0.63559782	54.263251
264	5	9	0.2118026	-5.5646558	1.4532423	53.805826
265	5	4	0.12467342	-8.3644323	-0.57702118	51.306247
266	5	4	0.084953731	-7.9954733	-1.9464976	50.727436
267	5	11	-0.67266947	-9.099857	-2.509811	50.075007
268	5	12	0.3980836	-9.7028953	-2.8545993	50.785801
269	5	6	0.095048738	-7.1754115	-1.823378	49.989352
270	5	6	0.095048738	-7.6263781	-2.632129	51.522476
271	5	6	0.088740362	-9.2583273	-0.64798005	51.961779
272	5	6	0.088740362	-8.6577026	0.091036571	50.467029
273	5	6	0.081964886	-6.2419105	0.49321003	50.217443
274	5	6	0.081964886	-5.2582901	0.74621913	51.669928
275	5	6	0.10197411	-6.8895707	2.6764716	52.317406
276	5	6	0.10197411	-7.7241415	2.3873096	50.758558
277	6	1	0.54967522	-7.2733109	-1.0422841	75.455161
278	6	2	-0.64309311	-8.4051162	-1.5944019	75.496968
279	6	3	-0.51403874	-6.1474026	-1.7209596	74.892766
280	6	4	0.034319387	-6.2602029	-3.0785664	74.356303
281	6	4	-0.14255785	-4.9300874	-3.5663142	73.768608
282	6	4	-0.14124114	-4.5752388	-2.8312585	72.4657
283	6	4	0.028613126	-3.2658172	-3.3493537	71.85682
284	6	3	-0.4565883	-2.1291421	-3.0855016	72.738889
285	6	1	0.79335558	-1.5648766	-1.7816418	72.907901
286	6	2	-0.57260424	-2.0250272	-0.79064382	72.28053
287	6	5	0.33464235	-1.6731301	-3.8891866	73.225509
288	6	6	0.070753453	-3.0933086	-2.8657499	70.871221
289	6	6	0.070753453	-3.3502333	-4.4437111	71.679606
290	6	7	0.098840816	-4.4937332	-1.7397429	72.649875
291	6	7	0.098840816	-5.3902624	-2.9885974	71.725685
292	6	7	0.098840816	-4.123622	-3.4292751	74.521611
293	6	7	0.098840816	-5.0175321	-4.6538959	73.55741
294	6	6	0.067041455	-7.0508317	-3.1093264	73.575733
295	6	6	0.067041455	-6.5602631	-3.765069	75.17787
296	6	5	0.32806662	-5.228591	-1.2235851	74.891836
297	7	8	-0.49408323	-0.7611507	-1.6494914	73.550592
298	7	4	0.11751712	0.18448222	-0.88493528	72.854251
299	7	4	0.1539129	0.93087017	-1.7587934	71.840877
300	7	3	-0.66115636	1.8798182	-0.95229652	71.055587
301	7	1	0.27388936	1.4746917	-0.32289697	69.803666
302	7	1	-0.43431571	2.3876627	0.14779885	68.922703
303	7	9	0.21180261	3.4492297	0.07072963	69.102074
304	7	1	-0.13426331	1.9678466	0.78015994	67.654644
305	7	9	0.21642956	2.7162682	1.1488805	66.965223
306	7	1	-0.27877093	0.67197012	0.89627883	67.358195
307	7	9	0.2138	0.36483325	1.3596998	66.429296
308	7	1	-0.13426331	-0.34347668	0.39253603	68.298611
309	7	9	0.21642957	-1.3946366	0.49190961	68.055552
310	7	1	-0.43431568	0.027799677	-0.1812005	69.448916
311	7	9	0.2118026	-0.74927717	-0.53014269	70.113024
312	7	4	0.15558824	3.2416536	-0.80205963	71.597533
313	7	4	0.038943691	4.1549651	-1.9211452	71.089833
314	7	8	-0.13507733	5.4580191	-1.7400128	71.571114
315	7	6	0.10197411	3.7764295	-2.8985425	71.458147
316	7	6	0.10197411	4.1571276	-1.963528	69.978173
317	7	6	0.081964886	3.6567003	0.19778883	71.34473
318	7	6	0.081964886	3.2166261	-0.8447756	72.708564
319	7	6	0.083637459	1.4745093	-2.5554549	72.395447
320	7	6	0.083637459	0.21979375	-2.2888962	71.172438
321	7	6	0.095993219	-0.30858126	-0.022634269	72.353371
322	7	6	0.095993219	0.91110334	-0.47166361	73.585935
323	4	1	0.54967528	-7.1540416	-0.042164357	75.84968
324	4	2	-0.64309317	-6.5280925	0.81916154	75.176553
325	4	3	-0.5140388	-7.7072674	0.28674564	77.126753
326	4	4	0.034608109	-7.5711246	1.6246499	77.699698
327	4	4	-0.13744931	-8.2534641	1.7041086	79.069338
328	4	4	-0.1195101	-8.1136937	3.1049396	79.67581
329	4	4	0.18854539	-8.794062	3.1819322	81.048284
330	4	3	-0.58896202	-8.7127384	4.5316546	81.596956
331	4	10	0.59655016	-7.607501	5.0429864	81.969288
332	4	2	-0.40465096	-6.5329457	5.5388398	82.330087
333	4	6	0.043274229	-9.8668787	2.9140671	80.940032
334	4	6	0.043274229	-8.3268575	2.4593691	81.754001
335	4	7	0.092672309	-8.5815906	3.8513643	78.995923
336	4	7	0.092672309	-7.0349386	3.3522271	79.78461
337	4	7	0.097848071	-7.7887722	0.95790167	79.751996
338	4	7	0.097848071	-9.3316091	1.4556117	78.954122
339	4	6	0.067041455	-6.4915283	1.8661245	77.809206
340	4	6	0.067041455	-8.0351448	2.3653217	77.011756
341	4	5	0.32806664	-8.2182685	-0.46265568	77.647257
342	5	8	-0.13507733	5.8639613	-1.0168484	71.024992
343	5	4	0.038943691	6.964114	-0.53874679	71.749113
344	5	4	0.1567474	6.4932859	0.36733382	72.891718
345	5	3	-0.65294677	7.635693	0.82088662	73.701635
346	5	1	0.2755757	8.0873643	0.056205472	74.85817
347	5	1	-0.43431571	8.9107419	0.59881811	75.785397
348	5	9	0.21180261	9.2607443	1.6175748	75.714241
349	5	1	-0.13426331	9.3593508	-0.18184951	76.956967
350	5	9	0.21642956	10.01841	0.27355887	77.685507
351	5	1	-0.27877093	8.9555986	-1.4429841	77.118886
352	5	9	0.2138	9.283704	-2.0151635	77.977387
353	5	1	-0.13426331	8.0590325	-2.0597271	76.126198
354	5	9	0.21642957	7.7351876	-3.083952	76.259787
355	5	1	-0.43431568	7.6479023	-1.3588713	75.062699
356	5	9	0.2118026	6.997034	-1.8516425	74.35523
357	5	4	0.12467342	8.3045177	2.0659462	73.282104
358	5	4	0.084953731	7.6601876	3.281084	73.956564
359	5	11	-0.67266947	8.3342508	4.452883	73.588903
360	5	12	0.3980836	9.1758608	4.4728426	74.117161
361	5	6	0.095048738	6.6031451	3.3648681	73.627824
362	5	6	0.095048738	7.6556817	3.1701781	75.063853
363	5	6	0.088740362	9.3930023	2.0193034	73.498511
364	5	6	0.088740362	8.2208052	2.1909024	72.1803
365	5	6	0.081964886	5.9654726	1.2426946	72.453182
366	5	6	0.081964886	5.7428106	-0.14969631	73.526916
367	5	6	0.10197411	7.5699911	-1.3880862	72.136239
368	5	6	0.10197411	7.6104833	0.044915504	71.061531
369	6	1	0.54967522	-2.8513033	6.7063309	97.165653
370	6	2	-0.64309311	-3.3044087	7.6705418	96.492928
371	6	3	-0.51403874	-2.4376301	5.4966072	96.525339
372	6	4	0.034319387	-2.5327319	5.3260694	95.07431
373	6	4	-0.14255785	-1.9839127	3.9651304	94.628067
374	6	4	-0.14124114	-0.45494586	3.8890243	94.770416
375	6	4	0.028613126	0.096953889	2.5425577	94.284436
376	6	3	-0.4565883	-0.39566556	1.4384526	95.107826
377	6	1	0.79335558	0.082188383	1.1855967	96.432489
378	6	2	-0.57260424	0.97448162	1.9102676	96.948313
379	6	5	0.33464235	-1.0855943	0.77208365	94.694781
380	6	6	0.070753453	1.207808	2.5609355	94.31096
381	6	6	0.070753453	-0.20742205	2.3801481	93.227494
382	6	7	0.098840816	-0.15846256	4.0530789	95.827371
383	6	7	0.098840816	0.0077618815	4.6960289	94.161084
384	6	7	0.098840816	-2.4680242	3.1607025	95.223644
385	6	7	0.098840816	-2.2555478	3.809729	93.561695
386	6	6	0.067041455	-1.9776435	6.1421344	94.56319
387	6	6	0.067041455	-3.6011117	5.3956146	94.774273
388	6	5	0.32806662	-2.0792099	4.7229932	97.129204
389	7	8	-0.49408323	-0.30549603	0.39072707	96.975051
390	7	4	0.11751712	0.79047631	-0.29533977	97.51525
391	7	4	0.1539129	1.4649479	-1.1501614	96.437281
392	7	3	-0.66115636	2.6584278	-1.8230933	96.976158
393	7	1	0.27388936	3.9713961	-1.1911412	96.910364
394	7	1	-0.43431571	5.1068163	-1.9011295	97.105052
395	7	9	0.21180261	5.0916816	-2.9612594	97.307373
396	7	1	-0.13426331	6.4330143	-1.2530656	97.03216
397	7	9	0.21642956	7.3273873	-1.8415081	97.190976
398	7	1	-0.27877093	6.5299997	0.051891288	96.770737
399	7	9	0.2138	7.5016328	0.52628548	96.717583
400	7	1	-0.13426331	5.3106039	0.84909932	96.554396
401	7	9	0.21642957	5.3937257	1.9090321	96.345774
402	7	1	-0.43431568	4.1059232	0.27045398	96.618707
403	7	9	0.2118026	3.2375731	0.89316588	96.461077
404	7	4	0.15558824	2.4616941	-3.1473086	97.59148
405	7	4	0.038943691	2.6100756	-4.2584572	96.548608
406	7	8	-0.13507733	2.4705889	-5.5140103	97.154017
407	7	6	0.10197411	1.8155292	-4.1481242	95.779991
408	7	6	0.10197411	3.5896147	-4.1893723	96.025808
409	7	6	0.081964886	3.1679999	-3.2961855	98.436961
410	7	6	0.081964886	1.4439736	-3.2141832	98.034893
411	7	6	0.083637459	0.73162183	-1.9047725	96.075955
412	7	6	0.083637459	1.7278616	-0.53672867	95.549572
413	7	6	0.095993219	1.5110578	0.42175662	97.967014
414	7	6	0.095993219	0.42551228	-0.95590986	98.330469
415	4	1	0.54967528	-2.7745913	6.7969526	98.240833
416	4	2	-0.64309317	-1.7131047	6.441786	98.818672
417	4	3	-0.5140388	-3.8768574	7.3172455	98.988803
418	4	4	0.034608109	-3.8186484	7.4578657	100.44264
419	4	4	-0.13744931	-5.1278417	8.0379268	100.98794
420	4	4	-0.1195101	-5.0732568	8.1873711	102.51252
421	4	4	0.18854539	-6.3856738	8.7647353	103.05725
422	4	3	-0.58896202	-6.3100099	8.9630381	104.50098
423	4	10	0.59655016	-6.2493448	7.9847656	105.31396
424	4	2	-0.40465096	-6.1898172	7.0334365	106.10272
425	4	6	0.043274229	-6.5777407	9.7495213	102.58006
426	4	6	0.043274229	-7.2368526	8.090589	102.81346
427	4	7	0.092672309	-4.2355554	8.8659105	102.7885
428	4	7	0.092672309	-4.8891338	7.1919538	102.9729
429	4	7	0.097848071	-5.9684734	7.3623428	100.71278
430	4	7	0.097848071	-5.3066074	9.0329369	100.52381
431	4	6	0.067041455	-3.6374055	6.4602154	100.89835
432	4	6	0.067041455	-2.9754402	8.1318836	100.71073
433	4	5	0.32806664	-4.7363877	7.5984397	98.46365
434	5	8	-0.13507733	3.3247704	-5.6976716	97.625872
435	5	4	0.038943691	3.0555784	-6.7045018	98.562407
436	5	4	0.1567474	2.3245025	-6.1186279	99.775043
437	5	3	-0.65294677	1.9753786	-7.1784443	100.73508
438	5	1	0.2755757	0.70017271	-7.8803378	100.6484
439	5	1	-0.43431571	0.22915336	-8.6185682	101.68053
440	5	9	0.21180261	0.76951448	-8.7132158	102.6103
441	5	1	-0.13426331	-1.0666037	-9.3223476	101.58578
442	5	9	0.21642956	-1.4227386	-9.9073018	102.42454
443	5	1	-0.27877093	-1.7967846	-9.2391843	100.4724
444	5	9	0.2138	-2.7464418	-9.7543212	100.40275
445	5	1	-0.13426331	-1.3097292	-8.4426579	99.333122
446	5	9	0.21642957	-1.9039354	-8.3792055	98.430542
447	5	1	-0.43431568	-0.13735197	-7.8018482	99.411553
448	5	9	0.2118026	0.1859282	-7.2351509	98.550559
449	5	4	0.12467342	2.9741753	-7.5035041	101.76961
450	5	4	0.084953731	2.7606431	-6.6426669	103.0186
451	5	11	-0.67266947	3.6837476	-6.9938057	104.01219
452	5	12	0.3980836	3.3589316	-7.843406	104.41274
453	5	6	0.095048738	2.9131956	-5.5744419	102.75773
454	5	6	0.095048738	1.7217188	-6.745183	103.404
455	5	6	0.088740362	2.9428219	-8.5852772	102.01979
456	5	6	0.088740362	3.9992159	-7.3125806	101.38304
457	5	6	0.081964886	2.9887497	-5.3693318	100.25928
458	5	6	0.081964886	1.4175261	-5.5590887	99.461483
459	5	6	0.10197411	2.4611358	-7.5195942	98.092733
460	5	6	0.10197411	4.0194754	-7.1436544	98.89297
461	6	1	0.54967522	6.5846574	27.965301	-1.3417853
462	6	2	-0.64309311	7.6908923	28.225671	-1.8858596
463	6	3	-0.51403874	5.7386209	26.934845	-1.8584481
464	6	4	0.034319387	6.1152003	26.153336	-3.0378738
465	6	4	-0.14255785	5.0677138	25.081323	-3.3635263
466	6	4	-0.14124114	5.0660921	23.947388	-2.3252663
467	6	4	0.028613126	4.0470643	22.855125	-2.6749621
468	6	3	-0.4565883	2.6798966	23.374207	-2.6418037
469	6	1	0.79335558	1.989686	23.664008	-1.4225268
470	6	2	-0.57260424	2.5379881	23.466796	-0.3054402
471	6	5	0.33464235	2.1632346	23.487888	-3.5422442
472	6	6	0.070753453	4.1426893	22.010047	-1.9596042
473	6	6	0.070753453	4.2673332	22.45784	-3.6897501
474	6	7	0.098840816	4.8467099	24.351307	-1.3149739
475	6	7	0.098840816	6.0763568	23.483872	-2.2912187
476	6	7	0.098840816	4.063261	25.55462	-3.420477
477	6	7	0.098840816	5.3005905	24.655344	-4.3632239
478	6	6	0.067041455	7.1045322	25.675057	-2.871139
479	6	6	0.067041455	6.2063468	26.839064	-3.9083699
480	6	5	0.32806662	4.8267083	26.76554	-1.3774614
481	7	8	-0.49408323	1.0215472	24.035549	-1.4565218
482	7	4	0.11751712	0.27310941	23.281979	-0.54239244
483	7	4	0.1539129	-0.060711488	21.908806	-1.1345145
484	7	3	-0.66115636	-0.78874367	21.08239	-0.15746492
485	7	1	0.27388936	-0.075444007	20.2075	0.76630419
486	7	1	-0.43431571	-0.7138416	19.224347	1.4423403
487	7	9	0.21180261	-1.7704141	19.039445	1.3219092
488	7	1	-0.13426331	0.018054249	18.339909	2.3730377
489	7	9	0.21642956	-0.51382376	17.560001	2.902415
490	7	1	-0.27877093	1.3294998	18.499612	2.5608315
491	7	9	0.2138	1.8652507	17.851652	3.2427881
492	7	1	-0.13426331	2.0499012	19.561569	1.8379631
493	7	9	0.21642957	3.1140635	19.689964	1.9959611
494	7	1	-0.43431568	1.3950553	20.366838	0.99360464
495	7	9	0.2118026	1.9602382	21.137127	0.48974727
496	7	4	0.15558824	-2.2580767	21.191305	-0.14909343
497	7	4	0.038943691	-2.8838452	20.172633	-1.1056347
498	7	8	-0.13507733	-4.2814527	20.251473	-1.0520862
499	7	6	0.10197411	-2.5582175	20.396746	-2.1438978
500	7	6	0.10197411	-2.5467168	19.139531	-0.86765924
501	7	6	0.081964886	-2.6550607	21.067368	0.88188346
502	7	6	0.081964886	-2.5665643	22.2107	-0.46926863
503	7	6	0.083637459	-0.68170142	22.059285	-2.0452771
504	7	6	0.083637459	0.85865843	21.389863	-1.4793428
505	7	6	0.095993219	0.82464281	23.180717	0.41839517
506	7	6	0.095993219	-0.67089526	23.826402	-0.32654067
507	4	1	0.54967528	6.2730826	28.529099	-0.47278422
508	4	2	-0.64309317	5.8136767	27.919758	0.52943554
509	4	3	-0.5140388	6.3868309	29.954656	-0.47449797
510	4	4	0.034608109	5.9786132	30.757733	0.67668183
511	4	4	-0.13744931	6.2067797	32.24932	0.41036727
512	4	4	-0.1195101	5.7800112	33.097086	1.6140422
513	4	4	0.18854539	6.0056439	34.590076	1.3446277
514	4	3	-0.58896202	5.6559023	35.390764	2.5133812
515	4	10	0.59655016	4.4530211	35.509836	2.9140552
516	4	2	-0.40465096	3.2839958	35.624195	3.3026643
517	4	6	0.043274229	7.0786951	34.761732	1.1133245
518	4	6	0.043274229	5.4057456	34.921075	0.4677156
519	4	7	0.092672309	6.3708774	32.795741	2.5075702
520	4	7	0.092672309	4.7027805	32.919177	1.8252847
521	4	7	0.097848071	5.6181038	32.554266	-0.48364294
522	4	7	0.097848071	7.2854647	32.42085	0.19956393
523	4	6	0.067041455	4.9008291	30.578828	0.88211901
524	4	6	0.067041455	6.5686847	30.4464	1.5666594
525	4	5	0.32806664	6.7742939	30.414403	-1.3301581
526	5	8	-0.13507733	-4.5592969	19.794725	-0.21531339
527	5	4	0.038943691	-5.8609952	20.230991	0.064906103
528	5	4	0.1567474	-5.8305421	21.644635	0.65557481
529	5	3	-0.65294677	-7.1963593	22.140759	0.89046604
530	5	1	0.2755757	-7.9143624	22.881169	-0.14035025
531	5	1	-0.43431571	-9.0195862	23.606016	0.1515515