Title

10250 atoms
10875 bonds
17750 angles
26625 dihedrals
14250 impropers

9 atom types
13 bond types
6 angle types
8 dihedral types
2 improper types
-8.442317404 97.87753543 xlo xhi
-9.795411019 98.0033944 ylo yhi
-9.656762272 97.16566787 zlo zhi
0.0 0.0 0.0 xy xz yz

Masses

1	15.99943
2	12.01078
3	1.007947
4	12.01078
5	1.007947
6	15.99943
7	15.99943
8	1.007947
9	35.4532


Pair Coeffs

1	0.16846514	3.0251065
2	0.086879315	3.4806469
3	0.015611343	2.5725815
4	0.10884061	3.3795318
5	0.015779483	2.6445434
6	0.2102061	3.0398122
7	0.20947353	2.99716
8	1.2326e-05	0.53453923
9	0.2656001	3.3075278

Bond Coeffs

1 harmonic	425.69104206635	1.362945806494
2 harmonic	300.03137914615	1.451203938761
3 harmonic	360.7852444772	1.387193227181
4 harmonic	397.2545789619	1.085358495916
5 harmonic	289.73813263395	1.498646816465
6 harmonic	264.62148576755	1.52190126495
7 harmonic	301.15400723785	1.345741232799
8 harmonic	370.04670688625	1.093899492634
9 harmonic	582.698766451	1.225198386222
10 harmonic	279.1350963404	1.454628925034
11 harmonic	385.7604595587	1.369745182308
12 harmonic	543.5267831885	0.9716763312559
13 harmonic	218.0227703685	1.746066037062


Angle Coeffs

1 harmonic	57.8982893754	126.8062420451
2 harmonic	65.09061609600001	110.3538806181
3 harmonic	34.066775159195	129.1835929926
4 harmonic	53.20531626545	116.5475862634
5 harmonic	201.41175231035	127.4691416191
6 harmonic	48.776492647595	115.6030999533


Dihedral Coeffs

1 fourier 1	3.661930099076	2	180
2 fourier 1	1.532232714475	2	180
3 fourier 1	0.457973137376	1	0
4 fourier 1	0.02664938770063	3	0
5 fourier 1	0.1155372516788	3	0
6 fourier 1	2.779853741805	2	180
7 fourier 1	0.9974165607242	2	180
8 fourier 1	0.8283030590042	2	180


Improper Coeffs

1 0.3666666666666667	-1	2
2 3.5	-1	2


Atoms

1	4	1	-0.015698556	-2.1147602	0.94618003	-3.2732888
2	4	2	0.2836248	-1.3824825	-0.22684841	-3.0978134
3	4	2	-0.32219669	-0.045182431	-0.2016888	-3.0442167
4	4	3	0.2305019	0.49000282	0.73467441	-3.1320728
5	4	2	-0.12575795	0.71738268	-1.4542874	-2.8585792
6	4	3	0.21243478	1.7914223	-1.369072	-2.7799774
7	4	2	-0.22147013	0.085211121	-2.6494589	-2.7785911
8	4	4	0.11517271	0.84322073	-3.9762644	-2.5353551
9	4	2	-0.18762721	2.3389915	-3.8373043	-2.9043617
10	4	2	-0.20423341	3.3108523	-3.7062818	-1.9692838
11	4	3	0.21483371	3.0924876	-3.7181693	-0.91105999
12	4	2	-0.21896032	4.7242401	-3.5268727	-2.3617407
13	4	3	0.2238815	5.487664	-3.4509917	-1.5989314
14	4	2	-0.2121685	5.0597801	-3.4544719	-3.6527779
15	4	3	0.22433047	6.0943137	-3.3192134	-3.9392102
16	4	2	-0.21896032	4.0156069	-3.5405866	-4.6886734
17	4	3	0.22388148	4.2878606	-3.4509247	-5.7322982
18	4	2	-0.20423345	2.7352976	-3.7127327	-4.3407629
19	4	3	0.21483372	1.9877375	-3.7409675	-5.1212125
20	4	2	-0.22147013	0.67419981	-4.4509369	-1.0723298
21	4	2	-0.12825492	0.31481811	-3.6123966	-0.070423668
22	4	3	0.21243477	0.10153975	-2.5679439	-0.24963009
23	4	2	-0.27700067	0.20998423	-4.0916573	1.3218346
24	4	3	0.23019834	-0.10700048	-3.4068206	2.098757
25	4	2	0.44361097	0.50811718	-5.3587656	1.6247591
26	4	1	-0.43871212	0.40542609	-5.7996292	2.9414788
27	4	2	-0.27700058	0.95201687	-6.2799205	0.55933485
28	4	3	0.23019838	1.2219249	-7.2983101	0.80493249
29	4	2	-0.12825497	1.0389876	-5.8538082	-0.70598189
30	4	3	0.21243483	1.3980913	-6.5424322	-1.458601
31	4	4	-0.14876696	0.22062963	-5.0600106	-3.4640188
32	4	5	0.087504439	0.91598059	-5.9136157	-3.6184967
33	4	5	0.087504439	-0.71937547	-5.4717448	-3.037874
34	4	5	0.087504439	-0.023471511	-4.6466834	-4.4662025
35	4	2	-0.12575798	-1.4094369	-2.6491278	-2.8040483
36	4	3	0.21243478	-1.961192	-3.569774	-2.6756039
37	4	2	-0.32219669	-2.0944806	-1.5104946	-2.962148
38	4	3	0.23050196	-3.1765045	-1.528574	-2.9771966
39	5	2	0.62964642	0.63657743	-6.7885354	3.2030025
40	5	6	-0.48727044	0.0077999137	-7.7112884	2.7123992
41	1	1	-0.015698556	-1.6618162	1.848529	-3.3685884
42	1	2	0.2836248	-1.6614582	2.7819357	-2.3331305
43	1	2	-0.32219669	-2.2599236	2.5154606	-1.1656104
44	1	3	0.2305019	-2.752024	1.5636539	-1.0062897
45	1	2	-0.12575795	-2.2515398	3.5141268	-0.076656937
46	1	3	0.21243478	-2.7132281	3.2283874	0.85690819
47	1	2	-0.22147013	-1.6755645	4.7284095	-0.24966522
48	1	4	0.11517271	-1.6025949	5.7821485	0.8808172
49	1	2	-0.18762721	-2.6613336	5.4989335	1.9724153
50	1	2	-0.20423341	-2.34369	4.9465959	3.1686058
51	1	3	0.21483371	-1.3260125	4.6963745	3.4316488
52	1	2	-0.21896032	-3.3895775	4.6465406	4.1685674
53	1	3	0.2238815	-3.111958	4.2284153	5.1267682
54	1	2	-0.2121685	-4.67473	4.8849134	3.8900079
55	1	3	0.22433047	-5.4398827	4.6616234	4.621671
56	1	2	-0.21896032	-5.0507847	5.4370256	2.5782099
57	1	3	0.22388148	-6.0956804	5.6004778	2.3447013
58	1	2	-0.20423345	-4.1091639	5.719982	1.670493
59	1	3	0.21483372	-4.4178996	6.09497	0.70481228
60	1	2	-0.22147013	-0.18161595	5.8463161	1.4891654
61	1	2	-0.074047849	0.70996772	4.8330388	1.3651425
62	1	3	0.21243477	0.48001517	3.9345347	0.8115738
63	1	2	-0.41608381	2.0416451	4.9104102	2.0007832
64	1	3	0.23597895	2.7449508	4.0990165	1.8624275
65	1	2	0.43849072	2.3756216	5.9699737	2.7427872
66	1	7	-0.6467905	3.6337075	6.032568	3.335826
67	1	8	0.43858027	3.9070381	6.8244363	3.9046642
68	1	2	-0.41608384	1.4027275	7.0640959	2.9338751
69	1	3	0.23597895	1.6587353	7.9114694	3.5573493
70	1	2	-0.074047886	0.1984931	7.0049808	2.3522343
71	1	3	0.21243483	-0.50358103	7.8060974	2.5379172
72	1	4	-0.14876696	-1.9193594	7.1741223	0.25668639
73	1	5	0.087504439	-2.2393599	7.9039969	1.0317404
74	1	5	0.087504439	-1.0317583	7.6027361	-0.25602566
75	1	5	0.087504439	-2.735612	7.1084007	-0.49387892
76	1	2	-0.12575798	-0.98143261	4.9899184	-1.5473401
77	1	3	0.21243478	-0.44921185	5.9167556	-1.7080348
78	1	2	-0.32219669	-0.9837571	4.0768311	-2.5254895
79	1	3	0.23050196	-0.47501581	4.2830524	-3.4581074
80	2	2	0.46869305	1.4349041	-6.9902481	3.9088074
81	2	6	-0.55945778	2.1206831	-6.0760786	4.3311748
82	2	9	-0.077003539	1.7377951	-8.6333408	4.4424681
83	4	1	-0.015698556	-1.7660721	3.4706499	20.684986
84	4	2	0.2836248	-1.3203153	2.5145318	21.596115
85	4	2	-0.32219669	-1.9224007	1.322895	21.692924
86	4	3	0.2305019	-2.7653762	1.0808996	21.059087
87	4	2	-0.12575795	-1.4385388	0.31968733	22.664738
88	4	3	0.21243478	-1.9351186	-0.63968023	22.669581
89	4	2	-0.22147013	-0.40807475	0.59785816	23.498547
90	4	4	0.11517271	0.15916801	-0.44141328	24.494693
91	4	2	-0.18762721	-0.86750142	-1.5652768	24.769805
92	4	2	-0.20423341	-0.76337942	-2.7982359	24.217517
93	4	3	0.21483371	0.060848206	-3.0692972	23.573439
94	4	2	-0.21896032	-1.7905272	-3.8314317	24.465204
95	4	3	0.2238815	-1.6741973	-4.8177248	24.036082
96	4	2	-0.2121685	-2.8613557	-3.5496871	25.212568
97	4	3	0.22433047	-3.614866	-4.3055012	25.390234
98	4	2	-0.21896032	-3.0255122	-2.2003449	25.781005
99	4	3	0.22388148	-3.9093544	-1.9671874	26.360466
100	4	2	-0.20423345	-2.0947213	-1.263075	25.568823
101	4	3	0.21483372	-2.2575462	-0.27339213	25.972259
102	4	2	-0.22147013	1.4979438	-1.0254387	23.983891
103	4	2	-0.12825492	1.8650317	-0.97626021	22.680453
104	4	3	0.21243477	1.2478927	-0.4999217	21.931638
105	4	2	-0.27700067	3.1286218	-1.5867554	22.222524
106	4	3	0.23019834	3.4114267	-1.5080128	21.179974
107	4	2	0.44361097	3.916768	-2.2363941	23.084501
108	4	1	-0.43871212	5.1063883	-2.8081487	22.641153
109	4	2	-0.27700058	3.5143951	-2.3488165	24.500891
110	4	3	0.23019838	4.1351444	-2.8984492	25.195772
111	4	2	-0.12825497	2.3752783	-1.7886088	24.92367
112	4	3	0.21243483	2.0914136	-1.9156451	25.959467
113	4	4	-0.14876696	0.43959332	0.28958878	25.840627
114	4	5	0.087504439	0.497355	-0.42601143	26.689507
115	4	5	0.087504439	1.4010969	0.84577193	25.810542
116	4	5	0.087504439	-0.35982841	1.0232633	26.080301
117	4	2	-0.12575798	0.27192348	1.920477	23.347211
118	4	3	0.21243478	1.1411151	2.1625372	23.942554
119	4	2	-0.32219669	-0.16451354	2.8206353	22.458389
120	4	3	0.23050196	0.34048942	3.7729461	22.361409
121	5	2	0.62964642	5.7391811	-3.3247378	23.298778
122	5	6	-0.48727044	6.226918	-2.7462734	24.255344
123	1	1	-0.015698556	-2.5563146	3.2971748	20.073514
124	1	2	0.2836248	-2.38848	3.0352946	18.714591
125	1	2	-0.32219669	-1.1678439	2.9987222	18.165972
126	1	3	0.2305019	-0.28784313	3.1687065	18.774401
127	1	2	-0.12575795	-1.0047875	2.719732	16.724167
128	1	3	0.21243478	0.0048135136	2.6610039	16.345216
129	1	2	-0.22147013	-2.0828257	2.535194	15.924204
130	1	4	0.11517271	-1.9532222	2.1926097	14.421034
131	1	2	-0.18762721	-0.55961699	2.5895399	13.879706
132	1	2	-0.20423341	0.4159299	1.6788381	13.643535
133	1	3	0.21483371	0.2616095	0.62085881	13.799532
134	1	2	-0.21896032	1.7511762	2.1009418	13.171537
135	1	3	0.2238815	2.5079529	1.356016	12.965564
136	1	2	-0.2121685	2.0265632	3.3979693	13.004457
137	1	3	0.22433047	3.0056314	3.7059621	12.662092
138	1	2	-0.21896032	1.0002266	4.4101604	13.303056
139	1	3	0.22388148	1.2366878	5.4616265	13.195562
140	1	2	-0.20423345	-0.21424527	4.0359664	13.722223
141	1	3	0.21483372	-0.9369671	4.8027234	13.963532
142	1	2	-0.22147013	-2.2414737	0.69415649	14.166211
143	1	2	-0.074047849	-2.1636462	-0.23916993	15.145945
144	1	3	0.21243477	-1.9184023	0.021635982	16.164994
145	1	2	-0.41608381	-2.3993027	-1.6684654	14.854447
146	1	3	0.23597895	-2.3584171	-2.3895198	15.661014
147	1	2	0.43849072	-2.657491	-2.0699285	13.606669
148	1	7	-0.6467905	-2.8791919	-3.4191107	13.344087
149	1	8	0.43858027	-3.0735543	-3.7461885	12.405692
150	1	2	-0.41608384	-2.6981227	-1.0780733	12.513639
151	1	3	0.23597895	-2.8791032	-1.4024878	11.496632
152	1	2	-0.074047886	-2.4958252	0.21960324	12.772661
153	1	3	0.21243483	-2.4994239	0.91691399	11.946272
154	1	4	-0.14876696	-3.0210616	3.023557	13.64856
155	1	5	0.087504439	-2.7637906	3.1148679	12.570924
156	1	5	0.087504439	-4.0262732	2.5544213	13.710853
157	1	5	0.087504439	-3.1102546	4.0529342	14.056437
158	1	2	-0.12575798	-3.4332777	2.5434285	16.564811
159	1	3	0.21243478	-4.3186917	2.3337879	15.981543
160	1	2	-0.32219669	-3.5730281	2.7862185	17.873258
161	1	3	0.23050196	-4.5586075	2.7871645	18.320196
162	2	2	0.46869305	5.9589448	-4.3730097	23.128473
163	2	6	-0.55945778	5.4033643	-4.9735479	22.225657
164	2	9	-0.077003539	7.1152536	-5.2032268	24.153158
165	4	1	-0.015698556	2.1242363	2.4633463	41.799796
166	4	2	0.2836248	1.0752188	1.6501491	42.225578
167	4	2	-0.32219669	-0.18359507	1.8928239	41.840385
168	4	3	0.2305019	-0.40635753	2.7251632	41.185782
169	4	2	-0.12575795	-1.2854621	1.0218556	42.301117
170	4	3	0.21243478	-2.2744154	1.2393075	41.924703
171	4	2	-0.22147013	-1.0512157	-0.0090037605	43.147835
172	4	4	0.11517271	-2.168639	-0.97258182	43.613708
173	4	2	-0.18762721	-3.5654103	-0.33371913	43.430158
174	4	2	-0.20423341	-4.3970322	-0.67901689	42.417624
175	4	3	0.21483371	-4.1364059	-1.4412116	41.697349
176	4	2	-0.21896032	-5.7043328	-0.011558986	42.246334
177	4	3	0.2238815	-6.3644469	-0.32112255	41.447039
178	4	2	-0.2121685	-6.0699939	0.97316361	43.071694
179	4	3	0.22433047	-7.0256118	1.4639697	42.943235
180	4	2	-0.21896032	-5.1612486	1.4041966	44.148349
181	4	3	0.22388148	-5.4481559	2.2226507	44.795752
182	4	2	-0.20423345	-3.9804295	0.79780751	44.315162
183	4	3	0.21483372	-3.3215678	1.1563579	45.093678
184	4	2	-0.22147013	-2.0763834	-2.3278096	42.872646
185	4	2	-0.12825492	-1.4215207	-2.4720843	41.695166
186	4	3	0.21243477	-0.90521245	-1.6470545	41.224809
187	4	2	-0.27700067	-1.3954316	-3.7705206	40.99342
188	4	3	0.23019834	-0.84054474	-3.8651495	40.068091
189	4	2	0.44361097	-2.0545896	-4.8212171	41.491173
190	4	1	-0.43871212	-2.0227117	-6.0410416	40.820599
191	4	2	-0.27700058	-2.8186954	-4.6768024	42.746557
192	4	3	0.23019838	-3.3771125	-5.5167869	43.137559
193	4	2	-0.12825497	-2.8374495	-3.5051244	43.392297
194	4	3	0.21243483	-3.4321833	-3.4213217	44.291665
195	4	4	-0.14876696	-1.96332	-1.2441509	45.133127
196	4	5	0.087504439	-2.8961251	-1.6146137	45.611301
197	4	5	0.087504439	-1.1755432	-2.0079363	45.308551
198	4	5	0.087504439	-1.6575714	-0.32297828	45.674196
199	4	2	-0.12575798	0.3663795	-0.28305347	43.535058
200	4	3	0.21243478	0.61192654	-1.1346701	44.153909
201	4	2	-0.32219669	1.3608408	0.50310309	43.106373
202	4	3	0.23050196	2.3815918	0.28935019	43.395693
203	5	2	0.62964642	-2.5343472	-6.8782207	41.190898
204	5	6	-0.48727044	-2.2496888	-7.3303564	42.287287
205	1	1	-0.015698556	1.9686089	3.2603535	41.192315
206	1	2	0.2836248	2.3131627	3.2314409	39.841808
207	1	2	-0.32219669	2.8616522	2.1398113	39.294289
208	1	3	0.2305019	3.0425815	1.256814	39.895174
209	1	2	-0.12575795	3.2216822	2.1231372	37.861346
210	1	3	0.21243478	3.621758	1.2016291	37.464976
211	1	2	-0.22147013	3.0416903	3.2192041	37.085201
212	1	4	0.11517271	3.3597045	3.2265593	35.571102
213	1	2	-0.18762721	4.3358547	2.0842562	35.203679
214	1	2	-0.20423341	3.9276895	0.94773555	34.588401
215	1	3	0.21483371	2.8982827	0.79060978	34.300124
216	1	2	-0.21896032	4.8814867	-0.1425132	34.296056
217	1	3	0.2238815	4.5400635	-1.0310223	33.782215
218	1	2	-0.2121685	6.1603006	-0.035571579	34.669194
219	1	3	0.22433047	6.8569185	-0.83594822	34.457608
220	1	2	-0.21896032	6.6176167	1.1670889	35.384407
221	1	3	0.22388148	7.6475777	1.237071	35.712023
222	1	2	-0.20423345	5.7624734	2.1628054	35.645065
223	1	3	0.21483372	6.1196712	3.0194564	36.199169
224	1	2	-0.22147013	2.0634256	3.1406213	34.731065
225	1	2	-0.074047849	0.89652294	2.6738761	35.238531
226	1	3	0.21243477	0.80669631	2.3591315	36.267848
227	1	2	-0.41608381	-0.30942214	2.5616206	34.392076
228	1	3	0.23597895	-1.2358359	2.2120315	34.829896
229	1	2	0.43849072	-0.25830749	2.8850811	33.096875
230	1	7	-0.6467905	-1.4012647	2.77655	32.309308
231	1	8	0.43858027	-1.3848224	3.013307	31.324921
232	1	2	-0.41608384	1.0144364	3.348664	32.509206
233	1	3	0.23597895	1.0674586	3.5849826	31.453913
234	1	2	-0.074047886	2.1079644	3.4625202	33.272891
235	1	3	0.21243483	3.0325757	3.7732032	32.806261
236	1	4	-0.14876696	4.0579181	4.5786821	35.236839
237	1	5	0.087504439	4.6295168	4.516897	34.285375
238	1	5	0.087504439	3.3204523	5.4024836	35.127686
239	1	5	0.087504439	4.7719887	4.8769764	36.033746
240	1	2	-0.12575798	2.3938341	4.413401	37.708372
241	1	3	0.21243478	2.167011	5.2873046	37.114273
242	1	2	-0.32219669	2.0605284	4.4179354	39.004287
243	1	3	0.23050196	1.5912073	5.2911706	39.438244
244	2	2	0.46869305	-3.3166449	-7.3409924	40.599268
245	2	6	-0.55945778	-3.6617497	-6.8380213	39.544604
246	2	9	-0.077003539	-4.0843421	-8.8144293	41.161331
247	4	1	-0.015698556	0.044805388	0.16722132	63.187908
248	4	2	0.2836248	0.72503898	1.0369405	62.337092
249	4	2	-0.32219669	1.7576648	0.61069096	61.599615
250	4	3	0.2305019	2.0785841	-0.42150925	61.64953
251	4	2	-0.12575795	2.469568	1.5453685	60.702652
252	4	3	0.21243478	3.2674411	1.1367879	60.099775
253	4	2	-0.22147013	2.1192078	2.8521032	60.638108
254	4	4	0.11517271	2.8066348	3.8506299	59.676576
255	4	2	-0.18762721	4.1910017	3.3263284	59.227753
256	4	2	-0.20423341	4.4044602	2.790239	58.001745
257	4	3	0.21483371	3.6203266	2.7247058	57.261136
258	4	2	-0.21896032	5.7298096	2.2551588	57.626228
259	4	3	0.2238815	5.885679	1.8558478	56.632896
260	4	2	-0.2121685	6.7319383	2.2599064	58.509586
261	4	3	0.22433047	7.7008919	1.8644158	58.235152
262	4	2	-0.21896032	6.5114815	2.7883548	59.867133
263	4	3	0.22388148	7.3171473	2.7624399	60.589314
264	4	2	-0.20423345	5.3169284	3.2831773	60.210734
265	4	3	0.21483372	5.1759244	3.6350849	61.223169
266	4	2	-0.22147013	1.9055863	4.1542146	58.455809
267	4	2	-0.12825492	0.89862025	3.333437	58.070498
268	4	3	0.21243477	0.65655285	2.4324293	58.616458
269	4	2	-0.27700067	0.09050629	3.6318397	56.87176
270	4	3	0.23019834	-0.72673431	2.9739698	56.602661
271	4	2	0.44361097	0.36619212	4.7018604	56.11992
272	4	1	-0.43871212	-0.40298851	4.9733966	54.99152
273	4	2	-0.27700058	1.491237	5.5842859	56.48911
274	4	3	0.23019838	1.7357661	6.4350341	55.867243
275	4	2	-0.12825497	2.2206253	5.3244856	57.580283
276	4	3	0.21243483	3.058084	5.9702423	57.806679
277	4	4	-0.14876696	3.0283236	5.183836	60.449853
278	4	5	0.087504439	3.8161875	5.8063817	59.972647
279	4	5	0.087504439	2.100503	5.7942543	60.485523
280	4	5	0.087504439	3.3433788	4.9988498	61.49929
281	4	2	-0.12575798	0.94039206	3.2969927	61.442526
282	4	3	0.21243478	0.58013848	4.313803	61.37299
283	4	2	-0.32219669	0.29360488	2.4435268	62.245039
284	4	3	0.23050196	-0.55865644	2.7824738	62.819578
285	5	2	0.62964642	-0.20356396	5.8055845	54.38534
286	5	6	-0.48727044	-0.26709118	6.9298278	54.85392
287	1	1	-0.015698556	0.31006916	-0.80749993	63.277505
288	1	2	0.2836248	-0.44496914	-1.828831	62.702857
289	1	2	-0.32219669	-1.5530526	-1.5557836	62.00295
290	1	3	0.2305019	-1.8782898	-0.53125425	61.868628
291	1	2	-0.12575795	-2.3435656	-2.6483624	61.399142
292	1	3	0.21243478	-3.2039473	-2.3662778	60.810484
293	1	2	-0.22147013	-1.9875114	-3.9441414	61.573338
294	1	4	0.11517271	-2.7597075	-5.1134526	60.917514
295	1	2	-0.18762721	-4.1886179	-4.6783788	60.515456
296	1	2	-0.20423341	-4.5337659	-4.4095458	59.232706
297	1	3	0.21483371	-3.8312041	-4.5087972	58.417828
298	1	2	-0.21896032	-5.8966114	-3.950103	58.892998
299	1	3	0.2238815	-6.1586698	-3.764612	57.860056
300	1	2	-0.2121685	-6.8017924	-3.7585085	59.857349
301	1	3	0.22433047	-7.7982552	-3.4188322	59.607689
302	1	2	-0.21896032	-6.4364146	-3.9944234	61.263728
303	1	3	0.22388148	-7.1632154	-3.808993	62.045026
304	1	2	-0.20423345	-5.2072823	-4.4191908	61.579117
305	1	3	0.21483372	-4.9585033	-4.5536801	62.622427
306	1	2	-0.22147013	-1.9875186	-5.675422	59.700427
307	1	2	-0.074047849	-1.0337599	-4.9639085	59.051484
308	1	3	0.21243477	-0.74649605	-3.9720828	59.368324
309	1	2	-0.41608381	-0.35087332	-5.5156163	57.862924
310	1	3	0.23597895	0.42693478	-4.9375041	57.380284
311	1	2	0.43849072	-0.69105161	-6.7157072	57.384546
312	1	7	-0.6467905	-0.039818262	-7.2259944	56.264772
313	1	8	0.43858027	-0.28336788	-8.1318111	55.883299
314	1	2	-0.41608384	-1.7620813	-7.4886166	58.044582
315	1	3	0.23597895	-2.060368	-8.4491136	57.643618
316	1	2	-0.074047886	-2.3774877	-6.9990607	59.127906
317	1	3	0.21243483	-3.1799469	-7.5741359	59.568953
318	1	4	-0.14876696	-2.8855445	-6.2531838	61.972335
319	1	5	0.087504439	-3.711675	-6.9525156	61.718821
320	1	5	0.087504439	-1.9523577	-6.8525181	62.038515
321	1	5	0.087504439	-3.0923818	-5.8495024	62.986335
322	1	2	-0.12575798	-0.72696118	-4.2233871	62.326466
323	1	3	0.21243478	-0.36470119	-5.2359726	62.433924
324	1	2	-0.32219669	-0.010035092	-3.2283491	62.861654
325	1	3	0.23050196	0.900722	-3.4492497	63.402806
326	2	2	0.46869305	0.059738145	5.6661548	53.342553
327	2	6	-0.55945778	0.20966992	4.5422947	52.896625
328	2	9	-0.077003539	0.26896159	7.0596109	52.298142
329	4	1	-0.015698556	-0.054875926	-3.9806566	78.425607
330	4	2	0.2836248	0.17861832	-3.3177812	79.629391
331	4	2	-0.32219669	1.2974804	-2.6075518	79.818067
332	4	3	0.2305019	2.0390228	-2.5330806	79.033538
333	4	2	-0.12575795	1.5311303	-1.9108792	81.100653
334	4	3	0.21243478	2.4306277	-1.3181212	81.181544
335	4	2	-0.22147013	0.64259364	-2.0080799	82.118262
336	4	4	0.11517271	0.8265514	-1.254997	83.457359
337	4	2	-0.18762721	2.302899	-0.84229497	83.664435
338	4	2	-0.20423341	2.7368207	0.42811541	83.480532
339	4	3	0.21483371	2.0652445	1.2279977	83.203339
340	4	2	-0.21896032	4.1644939	0.77452683	83.640605
341	4	3	0.2238815	4.4853283	1.8001054	83.515282
342	4	2	-0.2121685	5.057828	-0.17408185	83.935056
343	4	3	0.22433047	6.1034775	0.079691307	84.048257
344	4	2	-0.21896032	4.6202665	-1.572654	84.087794
345	4	3	0.22388148	5.3514655	-2.3428661	84.296206
346	4	2	-0.20423345	3.3279464	-1.8917543	83.953811
347	4	3	0.21483372	3.0411906	-2.93051	84.040429
348	4	2	-0.22147013	-0.10963864	-0.025417143	83.534861
349	4	2	-0.12825492	-0.65145553	0.54926265	82.433817
350	4	3	0.21243477	-0.47595827	0.15831894	81.441422
351	4	2	-0.27700067	-1.5020063	1.7507727	82.543366
352	4	3	0.23019834	-1.945604	2.172954	81.650016
353	4	2	0.44361097	-1.7204546	2.3180404	83.733617
354	4	1	-0.43871212	-2.5246076	3.4510392	83.824769
355	4	2	-0.27700058	-1.09957	1.7414276	84.943047
356	4	3	0.23019838	-1.2503623	2.2142966	85.904267
357	4	2	-0.12825497	-0.33611711	0.64650647	84.851127
358	4	3	0.21243483	0.13119519	0.26665929	85.749419
359	4	4	-0.14876696	0.4357173	-2.2262445	84.609951
360	4	5	0.087504439	0.87248003	-1.9047318	85.580459
361	4	5	0.087504439	-0.66612967	-2.2784091	84.743914
362	4	5	0.087504439	0.79433558	-3.2591729	84.411838
363	4	2	-0.12575798	-0.61614001	-2.7759042	81.871977
364	4	3	0.21243478	-1.3861474	-2.8258115	82.629023
365	4	2	-0.32219669	-0.82647043	-3.3959983	80.704925
366	4	3	0.23050196	-1.7440744	-3.9466574	80.54335
367	5	2	0.62964642	-2.7078461	3.9145278	84.747462
368	5	6	-0.48727044	-3.2614223	3.2956405	85.640803
369	1	1	-0.015698556	0.61120214	-3.9493522	77.661517
370	1	2	0.2836248	0.38483106	-3.1782472	76.522406
371	1	2	-0.32219669	-0.72673131	-2.4424583	76.398645
372	1	3	0.2305019	-1.4683258	-2.4322145	77.188211
373	1	2	-0.12575795	-0.95350561	-1.629653	75.185737
374	1	3	0.21243478	-1.8471342	-1.0237927	75.159122
375	1	2	-0.22147013	-0.065260522	-1.6426532	74.1625
376	1	4	0.11517271	-0.24158481	-0.76890405	72.897924
377	1	2	-0.18762721	-1.7141418	-0.32583257	72.730626
378	1	2	-0.20423341	-2.1353724	0.92756494	73.027956
379	1	3	0.21483371	-1.4562615	1.6923632	73.376327
380	1	2	-0.21896032	-3.5596289	1.3005861	72.900733
381	1	3	0.2238815	-3.8709521	2.3131307	73.119551
382	1	2	-0.2121685	-4.4621311	0.3904751	72.522287
383	1	3	0.22433047	-5.5051355	0.66393698	72.432798
384	1	2	-0.21896032	-4.0378602	-0.99117399	72.242825
385	1	3	0.22388148	-4.7764292	-1.7333624	71.965837
386	1	2	-0.20423345	-2.7488203	-1.3349956	72.346878
387	1	3	0.21483372	-2.4718912	-2.3640797	72.165856
388	1	2	-0.22147013	0.70555696	0.45387396	72.931426
389	1	2	-0.074047849	1.2531765	0.91943906	74.080511
390	1	3	0.21243477	1.073712	0.44257141	75.032885
391	1	2	-0.41608381	2.1154367	2.1193961	74.079832
392	1	3	0.23597895	2.5627195	2.453415	75.007469
393	1	2	0.43849072	2.3397513	2.7895786	72.946111
394	1	7	-0.6467905	3.1550066	3.9181293	72.957294
395	1	8	0.43858027	3.3362967	4.4430975	72.110603
396	1	2	-0.41608384	1.7137061	2.3308102	71.69003
397	1	3	0.23597895	1.8699581	2.8870274	70.774328
398	1	2	-0.074047886	0.93993954	1.2384732	71.681889
399	1	3	0.21243483	0.46940342	0.94693722	70.753031
400	1	4	-0.14876696	0.14046267	-1.6365312	71.661504
401	1	5	0.087504439	-0.292987	-1.2230989	70.72501
402	1	5	0.087504439	1.2417095	-1.6868623	71.523153
403	1	5	0.087504439	-0.22818712	-2.6792498	71.765289
404	1	2	-0.12575798	1.1856958	-2.4416757	74.338106
405	1	3	0.21243478	1.9554443	-2.4299463	73.579516
406	1	2	-0.32219669	1.3895974	-3.1671683	75.443816
407	1	3	0.23050196	2.3018504	-3.7387717	75.554202
408	2	2	0.46869305	-2.4044285	4.9434216	84.907115
409	2	6	-0.55945778	-1.7735275	5.5333237	84.047829
410	2	9	-0.077003539	-2.8231114	5.7580087	86.402924
411	4	1	-0.015698556	-2.9652345	22.426207	-0.065690295
412	4	2	0.2836248	-2.4638869	21.752149	-1.1780367
413	4	2	-0.32219669	-1.2277279	21.995226	-1.6304762
414	4	3	0.2305019	-0.59421621	22.718756	-1.1344066
415	4	2	-0.12575795	-0.71058408	21.272892	-2.8119016
416	4	3	0.21243478	0.3082625	21.478061	-3.1066189
417	4	2	-0.22147013	-1.4851879	20.384979	-3.4797886
418	4	4	0.11517271	-0.96487674	19.57313	-4.6898847
419	4	2	-0.18762721	0.27759531	20.247101	-5.3182408
420	4	2	-0.20423341	1.5356864	19.784532	-5.1200312
421	4	3	0.21483371	1.7345559	18.900922	-4.5306699
422	4	2	-0.21896032	2.7025722	20.483875	-5.6972407
423	4	3	0.2238815	3.696244	20.082495	-5.5490437
424	4	2	-0.2121685	2.5338104	21.609639	-6.3963696
425	4	3	0.22433047	3.3889937	22.123173	-6.815348
426	4	2	-0.21896032	1.1809535	22.163083	-6.5814926
427	4	3	0.22388148	1.0515038	23.091473	-7.1224633
428	4	2	-0.20423345	0.11920231	21.529945	-6.0699382
429	4	3	0.21483372	-0.85749402	21.976202	-6.1950938
430	4	2	-0.22147013	-0.65865246	18.11113	-4.2860189
431	4	2	-0.12825492	-0.44345364	17.739306	-3.0008895
432	4	3	0.21243477	-0.50118607	18.446313	-2.1852349
433	4	2	-0.27700067	-0.10667088	16.343288	-2.6591649
434	4	3	0.23019834	0.03223835	16.067388	-1.621055
435	4	2	0.44361097	0.031276555	15.426257	-3.621576
436	4	1	-0.43871212	0.34898497	14.112494	-3.2872951
437	4	2	-0.27700058	-0.14738229	15.816965	-5.0344208
438	4	3	0.23019838	-0.0082725363	15.084388	-5.8181713
439	4	2	-0.12825497	-0.46281581	17.078506	-5.3493466
440	4	3	0.21243483	-0.55515601	17.3416	-6.3942623
441	4	4	-0.14876696	-2.0893948	19.545642	-5.7665673
442	4	5	0.087504439	-1.6838005	19.309988	-6.774525
443	4	5	0.087504439	-2.8600318	18.780069	-5.5325801
444	4	5	0.087504439	-2.6079365	20.525738	-5.8395285
445	4	2	-0.12575798	-2.8482803	20.102797	-2.9348356
446	4	3	0.21243478	-3.4784422	19.353151	-3.3924899
447	4	2	-0.32219669	-3.3069862	20.752682	-1.858729
448	4	3	0.23050196	-4.2960582	20.535057	-1.4770155
449	5	2	0.62964642	0.46472991	13.376742	-4.0255592
450	5	6	-0.48727044	-0.46896337	13.097284	-4.7588026
451	1	1	-0.015698556	-2.415617	23.119115	0.43056905
452	1	2	0.2836248	-1.8435524	22.849011	1.6728278
453	1	2	-0.32219669	-1.9971755	21.654027	2.2565117
454	1	3	0.2305019	-2.5677297	20.873986	1.767139
455	1	2	-0.12575795	-1.3849937	21.381525	3.573402
456	1	3	0.21243478	-1.5066916	20.387029	3.9765327
457	1	2	-0.22147013	-0.69263451	22.342393	4.2318342
458	1	4	0.11517271	0.0043946084	22.082409	5.5883885
459	1	2	-0.18762721	-0.59792856	20.844265	6.2933222
460	1	2	-0.20423341	0.033336395	19.645347	6.3240774
461	1	3	0.21483371	1.0054861	19.498371	5.8759781
462	1	2	-0.21896032	-0.5951665	18.472071	6.9661398
463	1	3	0.2238815	-0.063783682	17.530559	7.0013205
464	1	2	-0.2121685	-1.8176947	18.570227	7.4970111
465	1	3	0.22433047	-2.2781888	17.709591	7.9638086
466	1	2	-0.21896032	-2.5454827	19.848143	7.4313334
467	1	3	0.22388148	-3.5480094	19.91577	7.8355819
468	1	2	-0.20423345	-1.9799524	20.917783	6.8597472
469	1	3	0.21483372	-2.5507171	21.833723	6.7984859
470	1	2	-0.22147013	1.5330456	21.928749	5.4067278
471	1	2	-0.074047849	2.0968006	21.61571	4.2145781
472	1	3	0.21243477	1.5052605	21.48062	3.3210138
473	1	2	-0.41608381	3.5574345	21.430212	4.0899618
474	1	3	0.23597895	3.9845134	21.208104	3.120213
475	1	2	0.43849072	4.345515	21.532045	5.1639003
476	1	7	-0.6467905	5.7205723	21.356554	5.0342337
477	1	8	0.43858027	6.3364293	21.426212	5.8349894
478	1	2	-0.41608384	3.749118	21.823027	6.4829081
479	1	3	0.23597895	4.3806707	21.878572	7.3606084
480	1	2	-0.074047886	2.4278019	22.002476	6.6008177
481	1	3	0.21243483	2.0176826	22.181606	7.5851389
482	1	4	-0.14876696	-0.24724933	23.321188	6.4991963
483	1	5	0.087504439	-0.10302321	23.072416	7.5730385
484	1	5	0.087504439	0.44657623	24.154106	6.2557352
485	1	5	0.087504439	-1.282173	23.708173	6.38469
486	1	2	-0.12575798	-0.50240646	23.656228	3.5449437
487	1	3	0.21243478	0.099110456	24.430904	3.9989961
488	1	2	-0.32219669	-1.050699	23.892701	2.3474607
489	1	3	0.23050196	-0.90148561	24.849593	1.8645376
490	2	2	0.46869305	1.4145746	12.865362	-4.1371797
491	2	6	-0.55945778	2.3724969	13.205028	-3.4653128
492	2	9	-0.077003539	1.5707484	11.548483	-5.2851032
493	4	1	-0.015698556	3.5261297	18.064963	18.786154
494	4	2	0.2836248	3.1553798	18.504582	20.055916
495	4	2	-0.32219669	2.9934232	19.808324	20.312635
496	4	3	0.2305019	3.1440619	20.54389	19.533424
497	4	2	-0.12575795	2.6008682	20.259001	21.664582
498	4	3	0.21243478	2.4431309	21.318675	21.803185
499	4	2	-0.22147013	2.4361554	19.371485	22.674363
500	4	4	0.11517271	1.9783799	19.797868	24.089565
501	4	2	-0.18762721	2.2346207	21.304957	24.325844
502	4	2	-0.20423341	1.2430383	22.227558	24.285553
503	4	3	0.21483371	0.21254826	21.953217	24.110941
504	4	2	-0.21896032	1.5340619	23.664876	24.468027
505	4	3	0.2238815	0.72402532	24.381959	24.458826
506	4	2	-0.2121685	2.7921878	24.079818	24.639924
507	4	3	0.22433047	3.0048403	25.132704	24.769565
508	4	2	-0.21896032	3.8948012	23.102573	24.634431
509	4	3	0.22388148	4.9153425	23.445966	24.743477
510	4	2	-0.20423345	3.6375805	21.798853	24.479454
511	4	3	0.21483372	4.4692677	21.108874	24.448287
512	4	2	-0.22147013	0.48952056	19.445116	24.320191
513	4	2	-0.12825492	-0.37495447	19.227409	23.299697
514	4	3	0.21243477	-0.058799377	19.26412	22.266652
515	4	2	-0.27700067	-1.799671	18.940038	23.557892
516	4	3	0.23019834	-2.462814	18.741709	22.724828
517	4	2	0.44361097	-2.2711555	18.929038	24.808409
518	4	1	-0.43871212	-3.6168407	18.656588	25.039838
519	4	2	-0.27700058	-1.3604481	19.214005	25.935399
520	4	3	0.23019838	-1.7440307	19.23452	26.9467
521	4	2	-0.12825497	-0.066032563	19.464976	25.708102
522	4	3	0.21243483	0.56909586	19.702075	26.550711
523	4	4	-0.14876696	2.8240788	19.001104	25.126147
524	4	5	0.087504439	2.8199772	19.494883	26.122231
525	4	5	0.087504439	2.433225	17.970377	25.266037
526	4	5	0.087504439	3.8842627	18.912372	24.805314
527	4	2	-0.12575798	2.5863703	17.918795	22.355382
528	4	3	0.21243478	2.3987651	17.168361	23.110481
529	4	2	-0.32219669	2.93199	17.516447	21.126794
530	4	3	0.23050196	3.0352679	16.460501	20.913155
531	5	2	0.62964642	-4.0095311	18.645115	26.012167
532	5	6	-0.48727044	-3.5782397	17.853915	26.834065
533	1	1	-0.015698556	3.6870736	18.713303	18.023116
534	1	2	0.2836248	2.7702959	18.864992	16.98392
535	1	2	-0.32219669	1.6339313	18.157639	16.959403
536	1	3	0.2305019	1.4071696	17.45653	17.753448
537	1	2	-0.12575795	0.67109279	18.328775	15.851757
538	1	3	0.21243478	-0.24738377	17.763271	15.906095
539	1	2	-0.22147013	0.93478408	19.171107	14.823601
540	1	4	0.11517271	-0.068180461	19.415104	13.671122
541	1	2	-0.18762721	-1.0928527	18.260433	13.57362
542	1	2	-0.20423341	-2.3673016	18.378691	14.019312
543	1	3	0.21483371	-2.7417209	19.297995	14.446113
544	1	2	-0.21896032	-3.3043017	17.237876	13.952916
545	1	3	0.2238815	-4.3243121	17.360604	14.291393
546	1	2	-0.2121685	-2.8935313	16.056549	13.481994
547	1	3	0.22433047	-3.5795689	15.221096	13.437059
548	1	2	-0.21896032	-1.4998022	15.88788	13.039129
549	1	3	0.22388148	-1.1623868	14.920986	12.686543
550	1	2	-0.20423345	-0.64736237	16.918255	13.087484
551	1	3	0.21483372	0.37765764	16.755999	12.785028
552	1	2	-0.22147013	-0.78168003	20.777961	13.835218
553	1	2	-0.074047849	-0.85082381	21.425154	15.02408
554	1	3	0.21243477	-0.38775379	21.030943	15.916711
555	1	2	-0.41608381	-1.5823397	22.702559	15.152574
556	1	3	0.23597895	-1.5981751	23.212639	16.107408
557	1	2	0.43849072	-2.2219599	23.223545	14.101743
558	1	7	-0.6467905	-2.9068683	24.428421	14.23428