Title

6625 atoms
6750 bonds
11125 angles
16625 dihedrals
6000 impropers

9 atom types
12 bond types
6 angle types
20 dihedral types
2 improper types
-6.249735948 71.27885331 xlo xhi
-6.33701769 71.7943146 ylo yhi
-6.687594185 71.68249453 zlo zhi
0.0 0.0 0.0 xy xz yz

Masses

1	15.99943
2	12.01078
3	1.007947
4	1.007947
5	12.01078
6	15.99943
7	1.007947
8	15.99943
9	1.007947


Pair Coeffs

1	0.16846514	3.0251065
2	0.10884061	3.3795318
3	0.016409246	2.5832257
4	0.015779483	2.6445434
5	0.086879315	3.4806469
6	0.2102061	3.0398122
7	0.015611343	2.5725815
8	0.20947353	2.99716
9	1.2326e-05	0.53453923

Bond Coeffs

1 harmonic	366.7408841747	1.425895053732
2 harmonic	300.03137914615	1.451203938761
3 harmonic	264.62148576755	1.52190126495
4 harmonic	370.04670688625	1.093899492634
5 harmonic	301.15400723785	1.345741232799
6 harmonic	582.698766451	1.225198386222
7 harmonic	279.1350963404	1.454628925034
8 harmonic	360.7852444772	1.387193227181
9 harmonic	397.2545789619	1.085358495916
10 harmonic	329.96998057905	1.427343958716
11 harmonic	543.5267831885	0.9716763312559
12 harmonic	385.7604595587	1.369745182308


Angle Coeffs

1 harmonic	53.20531626545	116.5475862634
2 harmonic	65.09061609600001	110.3538806181
3 harmonic	201.41175231035	127.4691416191
4 harmonic	57.8982893754	126.8062420451
5 harmonic	48.776492647595	115.6030999533
6 harmonic	34.066775159195	129.1835929926


Dihedral Coeffs

1 fourier 1	0.1155372516788	3	0
2 fourier 1	0.1115525666802	3	0
3 fourier 1	0.3432490222662	1	0
4 fourier 1	0.0473758381877	3	0
5 fourier 1	0.457973137376	1	0
6 fourier 1	0.1040663847541	3	0
7 fourier 1	0.1918272375143	3	0
8 fourier 1	0.9202179876409	1	180
9 fourier 1	1.163809172478	2	180
10 fourier 1	0.1679186987369	1	180
11 fourier 1	2.779853741805	2	180
12 fourier 1	0.9974165607242	2	180
13 fourier 1	0.1911926717192	3	0
14 fourier 1	3.661930099076	2	180
15 fourier 1	0.3445382149273	3	0
16 fourier 1	0.1364556373303	1	0
17 fourier 1	0.3026390167484	3	0
18 fourier 1	2.687457892086	2	180
19 fourier 1	2.772607909663	2	180
20 fourier 1	0.09692684957115	1	0


Improper Coeffs

1 3.5	-1	2
2 0.3666666666666667	-1	2


Atoms

1	4	1	-0.15749475	-0.49088773	-1.8137193	0.57773269
2	4	2	0.045990682	0.90000652	-1.9288107	0.71770456
3	4	2	-0.13191494	1.6080652	-1.6846183	-0.61883726
4	4	2	0.15112959	1.2302394	-2.7375018	-1.6649062
5	4	1	-0.50393927	1.9412317	-2.5176465	-2.8518348
6	4	3	0.08716306	0.13461205	-2.7146668	-1.8630177
7	4	3	0.08716306	1.4894255	-3.7483747	-1.2835028
8	4	4	0.10383852	2.7071367	-1.7163383	-0.45260355
9	4	4	0.10383852	1.3453442	-0.67190064	-0.99564698
10	4	3	0.095547429	1.2702842	-1.1997759	1.4748391
11	4	3	0.095547429	1.1417608	-2.9478072	1.0898269
12	5	5	0.79081052	1.4887041	-1.7120729	-3.3239534
13	5	6	-0.55979484	1.7588698	-1.4834115	-4.5329821
14	5	5	-0.30437666	0.54592737	-0.85275063	-2.5850736
15	5	5	-0.10374184	0.26866912	-1.1097608	-1.2963201
16	5	7	0.21310446	0.73153579	-1.9462107	-0.78599483
17	5	5	-0.060291407	-0.67457384	-0.25300852	-0.54871235
18	5	7	0.1959288	-0.87930814	-0.48464364	0.48981451
19	5	5	-0.36607784	-1.2674024	0.79289061	-1.1488984
20	5	5	0.58173776	-2.2072144	1.6418477	-0.39595543
21	5	6	-0.5905242	-2.7701873	2.6258884	-0.94527727
22	5	5	-0.060291422	-0.96238775	1.0789153	-2.5733639
23	5	7	0.1959288	-1.428986	1.9164153	-3.0754446
24	5	5	-0.10374186	-0.10686683	0.3026292	-3.2512074
25	5	7	0.21310452	0.10320064	0.52643441	-4.2892343
26	1	1	-0.15672666	-0.68892658	-0.84406299	0.50070445
27	1	2	0.054421528	-1.3351815	-0.66323677	-0.73057314
28	1	2	-0.16629818	-0.33921827	-0.75746932	-1.8916483
29	1	2	0.1015192	0.71210618	0.35512034	-1.8324693
30	1	8	-0.67670733	1.5668688	0.27321536	-2.940399
31	1	9	0.39117664	2.1879033	-0.48115702	-2.7638644
32	1	3	0.089648693	1.2999197	0.2876932	-0.88806317
33	1	3	0.089648693	0.20616366	1.3447902	-1.8518799
34	1	4	0.10787489	-0.89733805	-0.67883462	-2.8492708
35	1	4	0.10787489	0.16400894	-1.7489285	-1.8672954
36	1	3	0.095424323	-2.1327096	-1.429355	-0.86115931
37	1	3	0.095424323	-1.8258772	0.33349388	-0.73803892
38	2	5	0.5817377	-2.4243206	1.4267021	0.6427559
39	2	6	-0.59052432	-3.625817	1.3289569	1.0056847
40	2	5	-0.36607787	-1.3260577	1.2526014	1.6100571
41	2	5	-0.060291455	-0.049163124	1.3603778	1.2059885
42	2	7	0.1959288	0.18776966	1.5745882	0.17115432
43	2	5	-0.10113071	1.0574975	1.1877728	2.1691374
44	2	7	0.21310449	2.0741099	1.2814127	1.8079563
45	2	5	-0.29354489	0.80206723	0.91917877	3.4636661
46	2	5	0.82919586	1.8993558	0.74392776	4.4413465
47	2	6	-0.53511518	3.1036315	0.84161879	4.0799252
48	2	8	-0.67557961	1.6071377	0.46762642	5.7735748
49	2	9	0.40276095	2.3484168	0.34484939	6.4542657
50	2	5	-0.1011307	-0.60991082	0.80055844	3.9087697
51	2	7	0.2131045	-0.84037026	0.58573227	4.9449141
52	2	5	-0.060291452	-1.6122622	0.95824176	3.0353645
53	2	7	0.1959288	-2.634968	0.86748483	3.380685
54	4	1	-0.15749475	0.31382186	-0.76881251	15.535555
55	4	2	0.045990682	1.173025	0.33496357	15.63983
56	4	2	-0.13191494	2.2537206	0.29353937	14.554611
57	4	2	0.15112959	3.1646538	-0.92859304	14.703503
58	4	1	-0.50393927	4.1747148	-0.90067541	13.73312
59	4	3	0.08716306	2.5735665	-1.8683858	14.616473
60	4	3	0.08716306	3.642211	-0.91472337	15.706627
61	4	4	0.10383852	2.8698225	1.2164023	14.62769
62	4	4	0.10383852	1.770343	0.27997177	13.553228
63	4	3	0.095547429	0.5922065	1.281963	15.552127
64	4	3	0.095547429	1.6491313	0.32755886	16.644092
65	5	5	0.79081052	3.7346396	-1.1876912	12.838368
66	5	6	-0.55979484	4.4742397	-1.5086848	11.87039
67	5	5	-0.30437666	2.2664193	-1.2165052	12.709121
68	5	5	-0.10374184	1.4917957	-0.8710526	13.750483
69	5	7	0.21310446	1.9328504	-0.56820572	14.692863
70	5	5	-0.060291407	0.019656635	-0.89674792	13.628846
71	5	7	0.1959288	-0.57986973	-0.61315542	14.485732
72	5	5	-0.36607784	-0.56233619	-1.2669751	12.475681
73	5	5	0.58173776	-2.0312527	-1.2902355	12.363248
74	5	6	-0.5905242	-2.5908717	-1.6347619	11.288465
75	5	5	-0.060291422	0.2919244	-1.6491845	11.323249
76	5	7	0.1959288	-0.15673822	-1.9503204	10.385579
77	5	5	-0.10374186	1.6266051	-1.6254616	11.433124
78	5	7	0.21310452	2.2333299	-1.9076251	10.58225
79	1	1	-0.15672666	-0.27694321	-0.59580654	14.756805
80	1	2	0.054421528	-0.078341792	-1.6549932	13.859548
81	1	2	-0.16629818	1.2620369	-1.5118545	13.130292
82	1	2	0.1015192	1.3076278	-0.24921849	12.264086
83	1	8	-0.67670733	2.5220523	-0.18356513	11.567165
84	1	9	0.39117664	3.2101288	0.10244937	12.223422
85	1	3	0.089648693	1.1760321	0.66130922	12.893051
86	1	3	0.089648693	0.47902901	-0.27746256	11.523528
87	1	4	0.10787489	1.4140306	-2.4019263	12.482687
88	1	4	0.10787489	2.087044	-1.4838664	13.875545
89	1	3	0.095424323	-0.10501399	-2.6271384	14.402009
90	1	3	0.095424323	-0.90782964	-1.662696	13.120494
91	2	5	0.5817377	-2.6473642	-1.0099039	13.20833
92	2	6	-0.59052432	-3.5617358	-1.7911139	13.580487
93	2	5	-0.36607787	-2.4135449	0.26690793	13.906359
94	2	5	-0.060291455	-1.4333737	1.0892516	13.496039
95	2	7	0.1959288	-0.80645801	0.82587865	12.653118
96	2	5	-0.10113071	-1.1926697	2.3710064	14.189806
97	2	7	0.21310449	-0.3939111	3.0085571	13.831707
98	2	5	-0.29354489	-1.9507106	2.7319199	15.242568
99	2	5	0.82919586	-1.7228182	4.0128339	15.948215
100	2	6	-0.53511518	-0.80752184	4.7969415	15.576924
101	2	8	-0.67557961	-2.5215323	4.3616005	17.033104
102	2	9	0.40276095	-2.3767954	5.2355772	17.526181
103	2	5	-0.1011307	-3.0338922	1.8219179	15.694767
104	2	7	0.2131045	-3.6571424	2.0907334	16.538659
105	2	5	-0.060291452	-3.2520245	0.66095437	15.064695
106	2	7	0.1959288	-4.0471065	0.011694464	15.410695
107	4	1	-0.15749475	1.3022246	-1.0101338	28.579059
108	4	2	0.045990682	1.5753423	-1.5915259	27.332136
109	4	2	-0.13191494	0.32628668	-2.2661137	26.755845
110	4	2	0.15112959	-0.15148918	-3.4264268	27.633899
111	4	1	-0.50393927	-1.2563803	-4.0556271	27.045708
112	4	3	0.08716306	-0.41390003	-3.061884	28.652927
113	4	3	0.08716306	0.66405837	-4.1740813	27.735904
114	4	4	0.10383852	0.56464806	-2.6532634	25.741006
115	4	4	0.10383852	-0.48626235	-1.5135443	26.655803
116	4	3	0.095547429	1.9428607	-0.81661576	26.620593
117	4	3	0.095547429	2.3851209	-2.3429208	27.454358
118	5	5	0.79081052	-2.0727778	-3.4367785	27.210474
119	5	6	-0.55979484	-3.2318957	-3.8941448	27.025305
120	5	5	-0.30437666	-1.871736	-2.0452545	27.6537
121	5	5	-0.10374184	-0.6294182	-1.5726553	27.846335
122	5	7	0.21310446	0.23565107	-2.2035596	27.67918
123	5	5	-0.060291407	-0.41948858	-0.17915703	28.28989
124	5	7	0.1959288	0.59404563	0.1745407	28.437387
125	5	5	-0.36607784	-1.4684556	0.63205849	28.50708
126	5	5	0.58173776	-1.2500107	2.0202827	28.949814
127	5	6	-0.5905242	-2.2236471	2.7923741	29.157024
128	5	5	-0.060291422	-2.8425804	0.11183215	28.294732
129	5	7	0.1959288	-3.7010606	0.74870344	28.463883
130	5	5	-0.10374186	-3.0331339	-1.1513316	27.892098
131	5	7	0.21310452	-4.0423007	-1.5132219	27.74265
132	1	1	-0.15672666	0.78003287	-0.18531007	28.399149
133	1	2	0.054421528	-0.44075139	-0.32821904	29.074168
134	1	2	-0.16629818	-1.360367	-1.3116144	28.341939
135	1	2	0.1015192	-1.7396963	-0.80613343	26.946504
136	1	8	-0.67670733	-2.6274918	-1.7002141	26.332277
137	1	9	0.39117664	-2.0852311	-2.4752253	26.030222
138	1	3	0.089648693	-0.82928495	-0.6756278	26.317144
139	1	3	0.089648693	-2.2411531	0.1821633	27.033749
140	1	4	0.10787489	-2.2855447	-1.4506967	28.941459
141	1	4	0.10787489	-0.85389601	-2.2980917	28.257253
142	1	3	0.095424323	-0.26446801	-0.68686549	30.113561
143	1	3	0.095424323	-0.93374214	0.6650053	29.143273
144	2	5	0.5817377	-0.24465393	2.3922322	29.102312
145	2	6	-0.59052432	0.038735174	2.9496446	30.194945
146	2	5	-0.36607787	0.76993352	2.2449194	28.043503
147	2	5	-0.060291455	0.45067684	1.647546	26.883086
148	2	7	0.1959288	-0.54943488	1.2687087	26.712312
149	2	5	-0.10113071	1.4614796	1.496277	25.81653
150	2	7	0.21310449	1.1686735	1.0095253	24.894544
151	2	5	-0.29354489	2.7156997	1.9534641	25.992893
152	2	5	0.82919586	3.7399624	1.8101993	24.934132
153	2	6	-0.53511518	3.45813	1.2523094	23.838788
154	2	8	-0.67557961	5.0286191	2.2924118	25.142462
155	2	9	0.40276095	5.7405132	2.2010345	24.426385
156	2	5	-0.1011307	3.066957	2.6137262	27.27607
157	2	7	0.2131045	4.0689614	2.9900844	27.44099
158	2	5	-0.060291452	2.1498941	2.7513626	28.24171
159	2	7	0.1959288	2.4268783	3.2358358	29.170136
160	4	1	-0.15749475	-1.9035023	-0.37423191	41.579032
161	4	2	0.045990682	-2.0078067	0.085196875	40.25787
162	4	2	-0.13191494	-1.4899941	1.5218072	40.134007
163	4	2	0.15112959	-2.3284935	2.5031267	40.958329
164	4	1	-0.50393927	-1.8635905	3.8116287	40.773036
165	4	3	0.08716306	-2.2957352	2.2326098	42.038106
166	4	3	0.08716306	-3.3872598	2.4570538	40.624561
167	4	4	0.10383852	-1.525171	1.8239159	39.064386
168	4	4	0.10383852	-0.43040412	1.5619915	40.469059
169	4	3	0.095547429	-1.4308068	-0.57966661	39.574585
170	4	3	0.095547429	-3.0731804	0.04190203	39.944216
171	5	5	0.79081052	-0.99344549	3.8992626	41.331421
172	5	6	-0.55979484	-0.52694985	5.0474427	41.557453
173	5	5	-0.30437666	-0.31892973	2.6947026	41.848403
174	5	5	-0.10374184	-0.82892295	1.4776487	41.598405
175	5	7	0.21310446	-1.7365141	1.3658242	41.016942
176	5	5	-0.060291407	-0.15863805	0.26557385	42.11245
177	5	7	0.1959288	-0.59317826	-0.70299168	41.895275
178	5	5	-0.36607784	0.96847223	0.36577162	42.837127
179	5	5	0.58173776	1.6301636	-0.84822111	43.346326
180	5	6	-0.5905242	2.6874872	-0.76980764	44.026729
181	5	5	-0.060291422	1.5340454	1.7100371	43.114658
182	5	7	0.1959288	2.4409652	1.812776	43.696161
183	5	5	-0.10374186	0.92682367	2.8090286	42.648281
184	5	7	0.21310452	1.3537263	3.7807795	42.860816
185	1	1	-0.15672666	-0.94282243	-0.56801042	41.736925
186	1	2	0.054421528	-0.54248253	0.23813079	42.812216
187	1	2	-0.16629818	-0.38325301	1.6979787	42.373573
188	1	2	0.1015192	0.72321592	1.8611338	41.326793
189	1	8	-0.67670733	0.880555	3.2139494	40.995176
190	1	9	0.39117664	0.12248512	3.4493812	40.398662
191	1	3	0.089648693	0.48840244	1.2666879	40.413847
192	1	3	0.089648693	1.6843815	1.4873954	41.741861
193	1	4	0.10787489	-0.13411348	2.3141606	43.264062
194	1	4	0.10787489	-1.347205	2.0665325	41.959101
195	1	3	0.095424323	-1.2887937	0.17638061	43.636381
196	1	3	0.095424323	0.42367378	-0.14145372	43.208155
197	2	5	0.5817377	1.2114376	-1.8250639	43.139467
198	2	6	-0.59052432	1.0140341	-2.6177674	44.097339
199	2	5	-0.36607787	0.88070585	-2.213293	41.756695
200	2	5	-0.060291455	1.0978932	-1.355145	40.745874
201	2	7	0.1959288	1.5154576	-0.37357005	40.933105
202	2	5	-0.10113071	0.76965232	-1.7365409	39.357011
203	2	7	0.21310449	0.9579327	-1.0194666	38.567659
204	2	5	-0.29354489	0.24773829	-2.9477462	39.085387
205	2	5	0.82919586	-0.086166748	-3.3454407	37.6994
206	2	6	-0.53511518	0.11096175	-2.5529509	36.738386
207	2	8	-0.67557961	-0.62392284	-4.6038207	37.446687
208	2	9	0.40276095	-0.85772862	-4.8897475	36.502499
209	2	5	-0.1011307	0.0084546279	-3.8952516	40.2038
210	2	7	0.2131045	-0.40980204	-4.8752627	40.01016
211	2	5	-0.060291452	0.30728017	-3.5491287	41.462097
212	2	7	0.1959288	0.12475713	-4.2550198	42.26323
213	4	1	-0.15749475	0.73641674	-0.4519799	56.780778
214	4	2	0.045990682	-0.43553421	0.18769192	57.210633
215	4	2	-0.13191494	-0.48250443	1.6370667	56.716237
216	4	2	0.15112959	0.65889242	2.4755448	57.299113
217	4	1	-0.50393927	0.54850598	3.8057996	56.873809
218	4	3	0.08716306	1.6449835	2.0556308	56.99668
219	4	3	0.08716306	0.60319237	2.4568064	58.408643
220	4	4	0.10383852	-1.4537893	2.0867652	57.017858
221	4	4	0.10383852	-0.42662211	1.6498112	55.605688
222	4	3	0.095547429	-1.3304824	-0.36256331	56.838966
223	4	3	0.095547429	-0.46991533	0.16872943	58.321369
224	5	5	0.79081052	0.87305062	3.8302584	55.888569
225	5	6	-0.55979484	1.132962	4.9436583	55.359596
226	5	5	-0.30437666	1.024775	2.577864	55.12588
227	5	5	-0.10374184	0.74327604	1.3988508	55.704239
228	5	7	0.21310446	0.4027813	1.3529948	56.731997
229	5	5	-0.060291407	0.89220548	0.1393528	54.946522
230	5	7	0.1959288	0.65806834	-0.79691227	55.439165
231	5	5	-0.36607784	1.3120382	0.1576583	53.670208
232	5	5	0.58173776	1.4582539	-1.1032177	52.92207
233	5	6	-0.5905242	1.8504529	-1.1015504	51.724904
234	5	5	-0.060291422	1.6237225	1.4597521	53.028841
235	5	7	0.1959288	1.9631392	1.496597	52.001883
236	5	5	-0.10374186	1.4882744	2.6017937	53.715429
237	5	7	0.21310452	1.7203741	3.5417211	53.231298
238	1	1	-0.15672666	0.61492524	-0.64763305	55.815197
239	1	2	0.054421528	1.6555397	0.0057815631	55.139506
240	1	2	-0.16629818	1.4022488	1.5158019	55.071681
241	1	2	0.1015192	0.14190808	1.8467028	54.26627
242	1	8	-0.67670733	-0.02370053	3.2356063	54.174854
243	1	9	0.39117664	-0.36751961	3.5384535	55.055762
244	1	3	0.089648693	-0.7556492	1.3830246	54.736767
245	1	3	0.089648693	0.24077294	1.4365506	53.237775
246	1	4	0.10787489	2.2777526	2.0044469	54.592681
247	1	4	0.10787489	1.3039302	1.9206846	56.102809
248	1	3	0.095424323	2.6254548	-0.18632236	55.651758
249	1	3	0.095424323	1.7340067	-0.40735385	54.111171
250	2	5	0.5817377	1.2287759	-2.0488306	53.396938
251	2	6	-0.59052432	2.0829776	-2.9727558	53.357358
252	2	5	-0.36607787	-0.064469353	-2.2437657	54.076409
253	2	5	-0.060291455	-0.965088	-1.2471933	54.109217
254	2	7	0.1959288	-0.75341681	-0.29414148	53.640397
255	2	5	-0.10113071	-2.2638263	-1.4344553	54.787714
256	2	7	0.21310449	-2.9652327	-0.60940702	54.794446
257	2	5	-0.29354489	-2.5621406	-2.604849	55.383012
258	2	5	0.82919586	-3.858993	-2.8087586	56.066538
259	2	6	-0.53511518	-4.7161611	-1.8846053	56.10719
260	2	8	-0.67557961	-4.1418646	-4.028824	56.67316
261	2	9	0.40276095	-5.0258394	-4.1827053	57.145196
262	2	5	-0.1011307	-1.5656393	-3.7055134	55.345689
263	2	7	0.2131045	-1.7830424	-4.6561238	55.816787
264	2	5	-0.060291452	-0.38928014	-3.5352521	54.729573
265	2	7	0.1959288	0.32351058	-4.3507882	54.71407
266	4	1	-0.15749475	1.7358677	13.762587	0.92250144
267	4	2	0.045990682	2.2028652	13.966032	-0.38438356
268	4	2	-0.13191494	1.7948855	12.806983	-1.2995218
269	4	2	0.15112959	2.4261043	11.483066	-0.85863277
270	4	1	-0.50393927	2.0800732	10.460612	-1.7516599
271	4	3	0.08716306	2.0993001	11.219714	0.1728778
272	4	3	0.08716306	3.5326	11.583806	-0.85327894
273	4	4	0.10383852	2.1226352	13.037584	-2.3368264
274	4	4	0.10383852	0.68701821	12.710898	-1.3012085
275	4	3	0.095547429	1.7994696	14.922094	-0.79066846
276	4	3	0.095547429	3.3105484	14.054337	-0.3617101
277	5	5	0.79081052	1.097957	10.201374	-1.539836
278	5	6	-0.55979484	0.63559428	9.1279957	-2.010054
279	5	5	-0.30437666	0.26265829	11.080443	-0.70155202
280	5	5	-0.10374184	0.77044952	12.221667	-0.20802606
281	5	7	0.21310446	1.7937482	12.509578	-0.41848526
282	5	5	-0.060291407	-0.060304245	13.108336	0.63240013
283	5	7	0.1959288	0.37624334	14.022472	1.0169658
284	5	5	-0.36607784	-1.3333616	12.783603	0.91426515
285	5	5	0.58173776	-2.1546351	13.673445	1.7536636
286	5	6	-0.5905242	-3.3496605	13.382246	2.0259623
287	5	5	-0.060291422	-1.8967897	11.522644	0.36976851
288	5	7	0.1959288	-2.919822	11.242646	0.5847355
289	5	5	-0.10374186	-1.1439747	10.718883	-0.39262638
290	5	7	0.21310452	-1.5718098	9.8034217	-0.78070419
291	1	1	-0.15672666	0.76043629	13.9461	0.90692448
292	1	2	0.054421528	0.12437089	12.770998	1.3323012
293	1	2	-0.16629818	0.14582182	11.706116	0.230265
294	1	2	0.1015192	-0.63850863	12.151425	-1.007946
295	1	8	-0.67670733	-0.64776629	11.130538	-1.9684358
296	1	9	0.39117664	0.2495204	11.133532	-2.3936342
297	1	3	0.089648693	-0.19609722	13.079452	-1.4380752
298	1	3	0.089648693	-1.6894309	12.373176	-0.72125824
299	1	4	0.10787489	-0.30360175	10.770751	0.6275462
300	1	4	0.10787489	1.1990617	11.488396	-0.052764268
301	1	3	0.095424323	0.6242791	12.372994	2.2442911
302	1	3	0.095424323	-0.92656507	13.007275	1.6043611
303	2	5	0.5817377	-1.7363827	14.591473	2.1468973
304	2	6	-0.59052432	-1.8305261	14.823586	3.3806419
305	2	5	-0.36607787	-1.0694536	15.548854	1.2464574
306	2	5	-0.060291455	-0.97777651	15.28569	-0.067957743
307	2	7	0.1959288	-1.3895502	14.372561	-0.47971243
308	2	5	-0.10113071	-0.31136657	16.24013	-0.97740209
309	2	7	0.21310449	-0.25586702	15.995018	-2.0307592
310	2	5	-0.29354489	0.21384535	17.385232	-0.50191722
311	2	5	0.82919586	0.88429383	18.352153	-1.3997903
312	2	6	-0.53511518	0.97952081	18.121672	-2.6360181
313	2	8	-0.67557961	1.4178764	19.528489	-0.88201599
314	2	9	0.40276095	1.8801084	20.199816	-1.4849838
315	2	5	-0.1011307	0.11150674	17.674754	0.95120831
316	2	7	0.2131045	0.52569833	18.589438	1.356985
317	2	5	-0.060291452	-0.49362095	16.809659	1.7745192
318	2	7	0.1959288	-0.55731514	17.039952	2.8310788
319	4	1	-0.15749475	-0.90104475	12.045873	14.121922
320	4	2	0.045990682	-1.9802389	12.902228	14.385398
321	4	2	-0.13191494	-1.6409178	13.881409	15.513843
322	4	2	0.15112959	-1.3817887	13.157333	16.838284
323	4	1	-0.50393927	-1.1348714	14.086129	17.857606
324	4	3	0.08716306	-0.52091866	12.457982	16.738387
325	4	3	0.08716306	-2.2776647	12.561912	17.116475
326	4	4	0.10383852	-2.4921207	14.584804	15.645319
327	4	4	0.10383852	-0.74407512	14.474514	15.230111
328	4	3	0.095547429	-2.2507327	13.471321	13.466259
329	4	3	0.095547429	-2.8636015	12.29141	14.671485
330	5	5	0.79081052	-0.16592988	14.42987	17.717535
331	5	6	-0.55979484	0.39717962	15.063178	18.649658
332	5	5	-0.30437666	0.53425389	14.177806	16.444973
333	5	5	-0.10374184	-0.080126843	13.501218	15.46081
334	5	7	0.21310446	-1.091903	13.134593	15.588172
335	5	5	-0.060291407	0.61450761	13.244992	14.182342
336	5	7	0.1959288	0.09405124	12.696179	13.406431
337	5	5	-0.36607784	1.8694693	13.684523	13.988803
338	5	5	0.58173776	2.5549741	13.424128	12.710846
339	5	6	-0.5905242	3.7312599	13.830347	12.514973
340	5	5	-0.060291422	2.5505328	14.432677	15.075249
341	5	7	0.1959288	3.5610999	14.795435	14.939728
342	5	5	-0.10374186	1.9207826	14.66555	16.234211
343	5	7	0.21310452	2.4333127	15.212655	17.015048
344	1	1	-0.15672666	-0.22645241	12.582802	13.629968
345	1	2	0.054421528	0.94756485	12.551372	14.396182
346	1	2	-0.16629818	0.82514552	13.459695	15.624547
347	1	2	0.1015192	0.651829	14.930019	15.231164
348	1	8	-0.67670733	0.60424425	15.735655	16.377254
349	1	9	0.39117664	-0.29921214	15.614859	16.771082
350	1	3	0.089648693	-0.27466126	15.066467	14.627035
351	1	3	0.089648693	1.5163948	15.252384	14.611158
352	1	4	0.10787489	1.7440714	13.354671	16.240394
353	1	4	0.10787489	-0.041065609	13.133042	16.240825
354	1	3	0.095424323	1.1637744	11.509298	14.723864
355	1	3	0.095424323	1.799171	12.886255	13.766158
356	2	5	0.5817377	2.0513426	12.877821	11.923288
357	2	6	-0.59052432	2.6301721	11.888363	11.402908
358	2	5	-0.36607787	0.71041035	13.291781	11.473064
359	2	5	-0.060291455	0.10682331	14.350382	12.039097
360	2	7	0.1959288	0.59445542	14.908921	12.828498
361	2	5	-0.10113071	-1.2368951	14.772196	11.593407
362	2	7	0.21310449	-1.6928647	15.6298	12.072289
363	2	5	-0.29354489	-1.875113	14.101569	10.615588
364	2	5	0.82919586	-3.2213764	14.511579	10.157242
365	2	6	-0.53511518	-3.8029108	15.502572	10.677049
366	2	8	-0.67557961	-3.8581381	13.801077	9.1441833
367	2	9	0.40276095	-4.7803934	14.070235	8.8202882
368	2	5	-0.1011307	-1.2064939	12.931768	9.9907824
369	2	7	0.2131045	-1.6995328	12.377002	9.2021099
370	2	5	-0.060291452	0.01180609	12.550873	10.394606
371	2	7	0.1959288	0.48166477	11.694792	9.9258125
372	4	1	-0.15749475	0.097397173	12.924903	29.287372
373	4	2	0.045990682	-1.0198747	12.228594	28.803345
374	4	2	-0.13191494	-2.1516786	13.194032	28.436914
375	4	2	0.15112959	-2.6657627	13.960102	29.659383
376	4	1	-0.50393927	-3.7376497	14.786345	29.297407
377	4	3	0.08716306	-1.8484327	14.56642	30.11162
378	4	3	0.08716306	-3.0226936	13.238817	30.42545
379	4	4	0.10383852	-2.9896105	12.611806	27.994781
380	4	4	0.10383852	-1.7890952	13.913186	27.670132
381	4	3	0.095547429	-0.7380862	11.627114	27.908545
382	4	3	0.095547429	-1.3693763	11.519927	29.584954
383	5	5	0.79081052	-3.3292886	15.604262	28.806613
384	5	6	-0.55979484	-4.0454559	16.623843	28.620643
385	5	5	-0.30437666	-1.9325131	15.566405	28.336729
386	5	5	-0.10374184	-1.1821842	14.471665	28.542552
387	5	7	0.21310446	-1.591003	13.607492	29.052844
388	5	5	-0.060291407	0.21824549	14.42561	28.074231
389	5	7	0.1959288	0.79967372	13.529215	28.254581
390	5	5	-0.36607784	0.75878547	15.478393	27.437805
391	5	5	0.58173776	2.156404	15.42412	26.974539
392	5	6	-0.5905242	2.6764636	16.40319	26.376218
393	5	5	-0.060291422	-0.068748595	16.689527	27.209137
394	5	7	0.1959288	0.34734189	17.54822	26.69853
395	5	5	-0.10374186	-1.338576	16.731314	27.633165
396	5	7	0.21310452	-1.9266591	17.62298	27.457647
397	1	1	-0.15672666	0.53339539	13.343893	28.500137
398	1	2	0.054421528	0.54675262	14.725906	28.737306
399	1	2	-0.16629818	-0.84790974	15.329745	28.539283
400	1	2	0.1015192	-1.3321225	15.183804	27.093295
401	1	8	-0.67670733	-2.581604	15.799463	26.936464
402	1	9	0.39117664	-3.2509823	15.189629	27.343848
403	1	3	0.089648693	-1.3955833	14.108116	26.808965
404	1	3	0.089648693	-0.60902671	15.677712	26.408468
405	1	4	0.10787489	-0.81153943	16.408641	28.802688
406	1	4	0.10787489	-1.5670228	14.832054	29.226307
407	1	3	0.095424323	0.89874048	14.933786	29.77313
408	1	3	0.095424323	1.265129	15.20541	28.038505
409	2	5	0.5817377	2.7533666	14.537042	27.145047
410	2	6	-0.59052432	3.88235	14.658552	27.688644
411	2	5	-0.36607787	2.2460093	13.21254	26.744488
412	2	5	-0.060291455	1.0388166	13.100609	26.165261
413	2	7	0.1959288	0.42703408	13.976311	25.98701
414	2	5	-0.10113071	0.52307034	11.776904	25.760344
415	2	7	0.21310449	-0.4540466	11.724616	25.296416
416	2	5	-0.29354489	1.254427	10.665332	25.967025
417	2	5	0.82919586	0.75236834	9.3317846	25.566774
418	2	6	-0.53511518	-0.37821646	9.2078571	25.021917
419	2	8	-0.67557961	1.5292457	8.1992897	25.791458
420	2	9	0.40276095	1.1981496	7.2794419	25.522823
421	2	5	-0.1011307	2.5887052	10.790764	26.607212
422	2	7	0.2131045	3.1955709	9.9112209	26.783211
423	2	5	-0.060291452	3.055782	11.990993	26.972858
424	2	7	0.1959288	4.0314086	12.060373	27.438421
425	4	1	-0.15749475	0.94732464	12.935411	39.745652
426	4	2	0.045990682	-0.13751822	12.048335	39.805962
427	4	2	-0.13191494	-0.20369375	11.354393	41.170288
428	4	2	0.15112959	1.0299523	10.484084	41.427689
429	4	1	-0.50393927	0.90628956	9.8197572	42.654891
430	4	3	0.08716306	1.9542211	11.105214	41.418003
431	4	3	0.08716306	1.119805	9.7218518	40.624297
432	4	4	0.10383852	-1.1124682	10.714324	41.202519
433	4	4	0.10383852	-0.2936868	12.121617	41.970209
434	4	3	0.095547429	-1.0902477	12.59529	39.618887
435	4	3	0.095547429	-0.026390327	11.287863	39.003088
436	5	5	0.79081052	1.0993154	10.52247	43.393512
437	5	6	-0.55979484	1.3221867	10.12663	44.568529
438	5	5	-0.30437666	1.1104424	11.959713	43.065772
439	5	5	-0.10374184	0.870614	12.365538	41.808155
440	5	7	0.21310446	0.66669636	11.646752	41.023241
441	5	5	-0.060291407	0.87940247	13.804069	41.471705
442	5	7	0.1959288	0.68283218	14.101998	40.448617
443	5	5	-0.36607784	1.1284487	14.72384	42.419107
444	5	5	0.58173776	1.1357625	16.156402	42.074707
445	5	6	-0.5905242	1.3672966	17.029984	42.952361
446	5	5	-0.060291422	1.3937597	14.277566	43.809932
447	5	7	0.1959288	1.5964327	15.002086	44.587878
448	5	5	-0.10374186	1.385326	12.973464	44.115308
449	5	7	0.21310452	1.5811089	12.666796	45.134789
450	1	1	-0.15672666	0.69409989	13.730156	40.283838
451	1	2	0.054421528	1.6569165	13.85254	41.295962
452	1	2	-0.16629818	1.4441888	12.796143	42.385774
453	1	2	0.1015192	0.099991226	12.97505	43.098351
454	1	8	-0.67670733	-0.032733991	12.031208	44.126156
455	1	9	0.39117664	-0.248332	11.165724	43.689829
456	1	3	0.089648693	-0.74208399	12.876255	42.375079
457	1	3	0.089648693	0.050152839	13.991218	43.546367
458	1	4	0.10787489	2.2640757	12.880547	43.131014
459	1	4	0.10787489	1.4947495	11.781961	41.932232
460	1	3	0.095424323	2.6791997	13.744926	40.867713
461	1	3	0.095424323	1.5867946	14.86839	41.740307
462	2	5	0.5817377	0.94118394	16.473837	41.057988
463	2	6	-0.59052432	1.7535317	17.256307	40.498795
464	2	5	-0.36607787	-0.2571418	15.99373	40.346879
465	2	5	-0.060291455	-1.1141026	15.158957	40.958533
466	2	7	0.1959288	-0.93614196	14.830002	41.97491
467	2	5	-0.10113071	-2.3177595	14.673438	40.253106
468	2	7	0.21310449	-2.9861076	14.001555	40.777133
469	2	5	-0.29354489	-2.5717569	15.059464	38.988329
470	2	5	0.82919586	-3.7734047	14.582519	38.267787
471	2	6	-0.53511518	-4.5885439	13.798805	38.826168
472	2	8	-0.67557961	-4.0121653	14.997804	36.961228
473	2	9	0.40276095	-4.830907	14.679054	36.455294
474	2	5	-0.1011307	-1.6236329	15.98239	38.313689
475	2	7	0.2131045	-1.8068978	16.307375	37.297
476	2	5	-0.060291452	-0.53357951	16.422778	38.954197
477	2	7	0.1959288	0.14519482	17.095273	38.443878
478	4	1	-0.15749475	0.61643532	15.544067	54.486715
479	4	2	0.045990682	0.46544899	15.781959	55.860773
480	4	2	-0.13191494	-0.98060852	15.537911	56.304258
481	4	2	0.15112959	-1.9554014	16.506827	55.628569
482	4	1	-0.50393927	-3.2563355	16.294027	56.10284
483	4	3	0.08716306	-1.9242718	16.382972	54.522287
484	4	3	0.08716306	-1.6628038	17.55215	55.865628
485	4	4	0.10383852	-1.0438754	15.669457	57.406661
486	4	4	0.10383852	-1.2679375	14.490663	56.064847
487	4	3	0.095547429	1.1502722	15.121691	56.441215
488	4	3	0.095547429	0.75231407	16.833482	56.078218
489	5	5	0.79081052	-3.6036885	15.432695	55.640154
490	5	6	-0.55979484	-4.8357402	15.17305	55.680887
491	5	5	-0.30437666	-2.6643125	14.531466	54.948369
492	5	5	-0.10374184	-1.3535746	14.822344	54.914191
493	5	7	0.21310446	-0.97179606	15.717012	55.391832
494	5	5	-0.060291407	-0.40563322	13.924031	54.223475
495	5	7	0.1959288	0.6461148	14.184418	54.211915
496	5	5	-0.36607784	-0.84302329	12.805871	53.620165
497	5	5	0.58173776	0.10922359	11.915847	52.933156
498	5	6	-0.5905242	-0.28619592	10.864078	52.363548
499	5	5	-0.060291422	-2.2914402	12.4823	53.656716
500	5	7	0.1959288	-2.6643593	11.586647	53.177194
501	5	5	-0.10374186	-3.1509699	13.296297	54.283315
502	5	7	0.21310452	-4.2035338	13.044175	54.29946
503	1	1	-0.15672666	0.60800586	14.5587	54.366856
504	1	2	0.054421528	-0.45946489	14.268583	53.50504
505	1	2	-0.16629818	-1.8020022	14.393574	54.233662
506	1	2	0.1015192	-1.9290994	13.37718	55.372709
507	1	8	-0.67670733	-3.190389	13.48043	55.975473
508	1	9	0.39117664	-3.1653561	14.291582	56.547601
509	1	3	0.089648693	-1.1272605	13.536509	56.130101
510	1	3	0.089648693	-1.8175612	12.348602	54.96603
511	1	4	0.10787489	-2.6225477	14.224988	53.503589
512	1	4	0.10787489	-1.9081975	15.423929	54.638525
513	1	3	0.095424323	-0.44477552	14.958204	52.630827
514	1	3	0.095424323	-0.33916932	13.2348	53.116284
515	2	5	0.5817377	1.1641342	12.158788	52.911078
516	2	6	-0.59052432	1.7626011	12.171464	51.803585
517	2	5	-0.36607787	1.880949	12.468273	54.161102
518	2	5	-0.060291455	1.2270636	12.450091	55.33475
519	2	7	0.1959288	0.17186127	12.209924	55.376859
520	2	5	-0.10113071	1.9381368	12.758606	56.592263
521	2	7	0.21310449	1.3791261	12.734545	57.519436
522	2	5	-0.29354489	3.2497405	13.063112	56.579475
523	2	5	0.82919586	3.9768789	13.374131	57.830535
524	2	6	-0.53511518	3.3793163	13.361811	58.941038
525	2	8	-0.67557961	5.3326923	13.684923	57.788764
526	2	9	0.40276095	5.8435729	13.900314	58.637597
527	2	5	-0.1011307	3.9711414	13.082586	55.281372
528	2	7	0.2131045	5.0262833	13.323969	55.245784
529	2	5	-0.060291452	3.3261113	12.801762	54.142301
530	2	7	0.1959288	3.8709296	12.821722	53.206254
531	4	1	-0.15749475	-0.54271982	26.398816	1.5298765
532	4	2	0.045990682	-1.6931165	27.196598	1.4429474
533	4	2	-0.13191494	-1.3474806	28.678856	1.6183554
534	4	2	0.15112959	-0.77209077	28.969579	3.0075935
535	4	1	-0.50393927	-0.52516568	30.341002	3.1520706
536	4	3	0.08716306	0.16528328	28.390772	3.1703225
537	4	3	0.08716306	-1.5049882	28.66197	3.7839621
538	4	4	0.10383852	-2.2712088	29.28113	1.4748642
539	4	4	0.10383852	-0.6141211	28.981183	0.83900503
540	4	3	0.095547429	-2.1916245	27.043666	0.45808611
541	4	3	0.095547429	-2.41009	26.882482	2.2319684
542	5	5	0.79081052	0.34131104	30.544327	2.6186824
543	5	6	-0.55979484	0.93100851	31.641257	2.8084906
544	5	5	-0.30437666	0.86780756	29.560537	1.6552694
545	5	5	-0.10374184	0.22715304	28.395697	1.4641605
546	5	7	0.21310446	-0.6793	28.165437	2.0115626
547	5	5	-0.060291407	0.74800655	27.404786	0.50007746
548	5	7	0.1959288	0.21026708	26.473543	0.36691962
549	5	5	-0.36607784	1.8693075	27.656044	-0.19643362
550	5	5	0.58173776	2.3820235	26.661985	-1.15553
551	5	6	-0.5905242	3.4317282	26.883853	-1.8157751
552	5	5	-0.060291422	2.5790996	28.942987	0.013137781