Title

120 atoms
123 bonds
240 angles
520 dihedrals
18 impropers

11 atom types
14 bond types
9 angle types
35 dihedral types
3 improper types
-17.12599945 82.87400055 xlo xhi
-3.025000095 96.9749999 ylo yhi
-2.822999954 97.17700005 zlo zhi
0.0 0.0 0.0 xy xz yz

Masses

1	12.01078
2	15.99943
3	14.00672
4	12.01078
5	1.007947
6	1.007947
7	1.007947
8	15.99943
9	12.01078
10	15.99943
11	1.007947


Pair Coeffs

1	0.086879315	3.4806469
2	0.2102061	3.0398122
3	0.16769152	3.206876
4	0.10884061	3.3795318
5	0.015779483	2.6445434
6	0.014090815	1.1034277
7	0.016409246	2.5832257
8	0.16846514	3.0251065
9	0.21	3.3996695
10	0.20947353	2.99716
11	1.2326e-05	0.53453923

Bond Coeffs

1 harmonic	582.698766451	1.225198386222
2 harmonic	492.76746816345	1.381897776683
3 harmonic	279.1350963404	1.454628925034
4 harmonic	352.0565580496	1.450098586273
5 harmonic	505.144496193	1.019481865027
6 harmonic	264.62148576755	1.52190126495
7 harmonic	370.04670688625	1.093899492634
8 harmonic	301.15400723785	1.345741232799
9 harmonic	366.7408841747	1.425895053732
10 harmonic	300.03137914615	1.451203938761
11 harmonic	366.34047229585	1.464762957261
12 harmonic	602.81384337	1.196112346392
13 harmonic	329.96998057905	1.427343958716
14 harmonic	543.5267831885	0.9716763312559


Angle Coeffs

1 harmonic	55.42182150775	117.3465570514
2 harmonic	63.44422595415	115.5071327674
3 harmonic	57.8982893754	126.8062420451
4 harmonic	53.20531626545	116.5475862634
5 harmonic	48.776492647595	115.6030999533
6 harmonic	65.09061609600001	110.3538806181
7 harmonic	201.41175231035	127.4691416191
8 harmonic	55.07882548015	112.8714009681
9 harmonic	33.56981613361	180


Dihedral Coeffs

1 fourier 1	-0.1488678166443	4	180
2 fourier 1	-0.1230328948768	3	180
3 fourier 1	0.2939295466901	2	0
4 fourier 1	-0.3024127022865	1	0
5 fourier 1	0.182238503271	2	0
6 fourier 1	0.02972342374561	3	0
7 fourier 1	1.809047390003	2	180
8 fourier 1	-0.04816277792592	1	0
9 fourier 1	3.101948770557	2	180
10 fourier 1	-0.4252153282372	1	0
11 fourier 1	2.348375642009	2	180
12 fourier 1	1.256156174911	1	0
13 fourier 1	0.9974165607242	2	180
14 fourier 1	0.1155372516788	3	0
15 fourier 1	0.1040663847541	3	0
16 fourier 1	0.09223874044423	3	0
17 fourier 1	0.3159935921949	2	180
18 fourier 1	0.3247796806857	1	180
19 fourier 1	0.1911926717192	3	0
20 fourier 1	2.779853741805	2	180
21 fourier 1	0.1918272375143	3	0
22 fourier 1	0.9202179876409	1	180
23 fourier 1	0.0473758381877	3	0
24 fourier 1	0.4860993122944	2	180
25 fourier 1	0.8916986138746	1	0
26 fourier 1	1.163809172478	2	180
27 fourier 1	0.1679186987369	1	180
28 fourier 1	0.1115525666802	3	0
29 fourier 1	0.3432490222662	1	0
30 fourier 1	0.457973137376	1	0
31 fourier 1	-1.382973039546	1	0
32 fourier 1	0	1	0
33 fourier 1	0.3445382149273	3	0
34 fourier 1	0.1364556373303	1	0
35 fourier 1	0.3026390167484	3	0


Improper Coeffs

1 0.3333333333333333	-1	2
2 0.3666666666666667	-1	2
3 3.5	-1	2


Atoms

1	1	1	0.54218501	4.0289998	0.48899999	1.378
2	1	2	-0.69536299	4.243	-0.71499997	1.679
3	1	3	-0.49107501	2.914	0.85399997	0.56
4	1	4	-0.00107	1.977	-0.15700001	0.055
5	1	4	-0.0091829998	0.87	0.421	-0.88499999
6	1	4	-0.17065901	1.567	1.123	-2.082
7	1	5	0.071016997	2.2520001	0.419	-2.602
8	1	5	0.071016997	0.82099998	1.485	-2.823
9	1	5	0.071016997	2.151	2.0090001	-1.763
10	1	4	-0.205989	-0.037	1.4579999	-0.167
11	1	5	0.109738	0.574	2.2349999	0.338
12	1	5	0.109738	-0.65399998	1.99	-0.92699999
13	1	4	0.12716299	-0.98799998	0.82499999	0.86299998
14	1	3	-0.51952499	-1.8049999	1.867	1.4960001
15	1	1	0.80378801	-2.503	1.655	2.7279999
16	1	2	-0.61308098	-2.428	0.55299997	3.3340001
17	1	6	0.314123	-1.867	2.8169999	1.064
18	1	7	0.043912999	-0.382	0.33899999	1.655
19	1	4	-0.20960701	-1.905	-0.20100001	0.17399999
20	1	5	0.111284	-2.5439999	0.345	-0.55699998
21	1	5	0.111284	-2.5910001	-0.65200001	0.926
22	1	4	-0.028897	-1.128	-1.3279999	-0.55500001
23	1	4	-0.17242999	-2.1259999	-2.092	-1.46
24	1	5	0.074091002	-1.614	-2.924	-1.99
25	1	5	0.074091002	-2.575	-1.419	-2.2219999
26	1	5	0.074091002	-2.9590001	-2.52	-0.86000001
27	1	4	-0.17242999	-0.56800002	-2.3559999	0.463
28	1	5	0.074091002	-0.152	-1.8839999	1.37
29	1	5	0.074091002	0.212	-2.9949999	-0.0040000002
30	1	5	0.074091002	-1.375	-3.0250001	0.833
31	1	4	-0.21176501	-0.011	-0.73100001	-1.473
32	1	5	0.111464	-0.51999998	-0.32600001	-2.378
33	1	5	0.111464	0.64200002	-1.549	-1.851
34	1	7	0.068026997	2.556	-0.926	-0.50099999
35	1	7	0.068026997	1.536	-0.66000003	0.92799997
36	1	6	0.314944	2.7869999	1.869	0.36199999
37	1	8	-0.48775601	-3.075	2.4200001	3.132
38	1	4	0.093935996	-4.3179998	1.8609999	3.461
39	1	4	-0.072765999	-5.1589999	1.6059999	2.1949999
40	1	5	0.087011002	-4.5949998	0.88599998	1.561
41	1	4	-0.164197	-6.5139999	0.93400002	2.549
42	1	5	0.096596003	-6.434	0.34400001	3.4879999
43	1	5	0.096596003	-6.7859998	0.215	1.7460001
44	1	4	-0.163765	-7.6459999	1.96	2.6860001
45	1	5	0.097217001	-8.573	1.4400001	3.013
46	1	5	0.097217001	-7.3800001	2.671	3.4979999
47	1	4	-0.071961001	-7.8790002	2.753	1.37
48	1	4	0.018009	-9.026	2.152	0.53899997
49	1	8	-0.144339	-10.239	2.2780001	1.23
50	1	7	0.097897999	-8.8190002	1.0779999	0.33000001
51	1	7	0.097897999	-9.1040001	2.694	-0.43099999
52	1	5	0.090029001	-8.1809998	3.7869999	1.653
53	1	4	-0.163765	-6.5960002	2.862	0.50700003
54	1	5	0.097217001	-6.6479998	3.779	-0.12
55	1	5	0.097217001	-6.5089998	1.9910001	-0.18099999
56	1	4	-0.164197	-5.3400002	2.915	1.381
57	1	5	0.096596003	-5.4219999	3.793	2.0610001
58	1	5	0.096596003	-4.4489999	3.076	0.73500001
59	1	7	0.097799003	-4.8559999	2.5610001	4.1360002
60	1	7	0.097799003	-4.165	0.90899998	4.02
61	1	1	0.55484802	4.698	1.256	1.745
62	1	2	-0.68467402	4.2490001	2.158	2.5009999
63	1	3	-0.56987602	6.0770001	1.2359999	1.36
64	1	4	0.125016	7.0419998	2.2379999	1.83
65	1	7	0.041816998	6.5580001	3.2320001	1.76
66	1	4	-0.21071	7.4299998	1.9349999	3.289
67	1	5	0.111284	6.52	1.96	3.928
68	1	5	0.111284	7.8239999	0.89399999	3.3299999
69	1	4	-0.02943	8.4890003	2.9130001	3.862
70	1	4	-0.17242999	9.0039997	2.3329999	5.2010002
71	1	5	0.074091002	9.7609997	3.0090001	5.6550002
72	1	5	0.074091002	8.1709995	2.2049999	5.9260001
73	1	5	0.074091002	9.4759998	1.337	5.053
74	1	4	-0.17242999	7.8559999	4.29	4.1830001
75	1	5	0.074091002	7.23	4.6789999	3.365
76	1	5	0.074091002	7.1830001	4.2140002	5.0640001
77	1	5	0.074091002	8.6420002	5.039	4.4190001
78	1	4	-0.210426	9.7060003	3.0380001	2.8929999
79	1	5	0.110151	10.292	2.095	2.9849999
80	1	5	0.110151	10.391	3.8369999	3.25
81	1	4	0.02369	9.3879995	3.2290001	1.373
82	1	4	-0.169177	10.675	2.908	0.57099998
83	1	5	0.067621998	10.5	3.0209999	-0.52100003
84	1	5	0.067621998	11.504	3.5880001	0.86500001
85	1	5	0.067621998	11.011	1.864	0.75199997
86	1	4	0.14254899	8.9680004	4.684	1.0089999
87	1	3	-0.63624901	9.9189997	5.6589999	1.533
88	1	9	0.60006899	9.7629995	6.9060001	1.335
89	1	2	-0.47692001	9.6110001	8.1190004	1.142
90	1	7	0.067189001	7.9569998	4.9299998	1.372
91	1	7	0.067189001	8.9189997	4.7880001	-0.098999999
92	1	4	-0.207041	8.2919998	2.2219999	0.93099999
93	1	5	0.109613	8.7130003	1.191	0.94199997
94	1	5	0.109613	7.987	2.4349999	-0.118
95	1	6	0.31100199	6.3790002	0.49200001	0.69099998
96	1	8	-0.144339	-10.93	1.859	0.653
97	1	4	0.018009	-12.173	2.1849999	1.214
98	1	4	-0.071961001	-12.431	1.364	2.493
99	1	5	0.090029001	-11.627	1.6210001	3.22
100	1	4	-0.16297901	-13.781	1.762	3.1500001
101	1	5	0.097217001	-14.05	2.813	2.9059999
102	1	5	0.097217001	-13.678	1.711	4.256
103	1	4	-0.155919	-14.924	0.83200002	2.7260001
104	1	5	0.097217001	-15.877	1.202	3.161
105	1	5	0.097217001	-15.035	0.89200002	1.6210001
106	1	4	-0.113382	-14.655	-0.64499998	3.131
107	1	4	0.080123998	-15.35	-1.007	4.4549999
108	1	10	-0.67191899	-16.740999	-0.94400001	4.303
109	1	11	0.38062599	-17.125999	-1.17	5.1890001
110	1	7	0.086692996	-15.024	-0.30599999	5.257
111	1	7	0.086692996	-15.064	-2.0420001	4.7519999
112	1	5	0.093625002	-15.095	-1.293	2.3380001
113	1	4	-0.155919	-13.143	-0.97299999	3.2149999
114	1	5	0.097217001	-12.987	-2.0569999	3.023
115	1	5	0.097217001	-12.749	-0.75400001	4.2319999
116	1	4	-0.16297901	-12.339	-0.15700001	2.1989999
117	1	5	0.097217001	-12.726	-0.384	1.1799999
118	1	5	0.097217001	-11.274	-0.47600001	2.23
119	1	7	0.097897999	-12.967	1.977	0.46599999
120	1	7	0.097897999	-12.207	3.2750001	1.443

Bonds

1	1	1	2
2	2	1	3
3	3	1	61
4	4	3	4
5	5	3	36
6	6	4	5
7	7	4	34
8	7	4	35
9	6	5	6
10	6	5	10
11	6	5	31
12	7	6	7
13	7	6	8
14	7	6	9
15	7	10	11
16	7	10	12
17	6	10	13
18	4	13	14
19	7	13	18
20	6	13	19
21	2	14	15
22	5	14	17
23	1	15	16
24	8	15	37
25	7	19	20
26	7	19	21
27	6	19	22
28	6	22	23
29	6	22	27
30	6	22	31
31	7	23	24
32	7	23	25
33	7	23	26
34	7	27	28
35	7	27	29
36	7	27	30
37	7	31	32
38	7	31	33
39	9	37	38
40	6	38	39
41	7	38	59
42	7	38	60
43	7	39	40
44	6	39	41
45	6	39	56
46	7	41	42
47	7	41	43
48	6	41	44
49	7	44	45
50	7	44	46
51	6	44	47
52	6	47	48
53	7	47	52
54	6	47	53
55	9	48	49
56	7	48	50
57	7	48	51
58	10	49	96
59	7	53	54
60	7	53	55
61	6	53	56
62	7	56	57
63	7	56	58
64	1	61	62
65	2	61	63
66	4	63	64
67	5	63	95
68	7	64	65
69	6	64	66
70	6	64	92
71	7	66	67
72	7	66	68
73	6	66	69
74	6	69	70
75	6	69	74
76	6	69	78
77	7	70	71
78	7	70	72
79	7	70	73
80	7	74	75
81	7	74	76
82	7	74	77
83	7	78	79
84	7	78	80
85	6	78	81
86	6	81	82
87	6	81	86
88	6	81	92
89	7	82	83
90	7	82	84
91	7	82	85
92	11	86	87
93	7	86	90
94	7	86	91
95	12	87	88
96	1	88	89
97	7	92	93
98	7	92	94
99	9	96	97
100	6	97	98
101	7	97	119
102	7	97	120
103	7	98	99
104	6	98	100
105	6	98	116
106	7	100	101
107	7	100	102
108	6	100	103
109	7	103	104
110	7	103	105
111	6	103	106
112	6	106	107
113	7	106	112
114	6	106	113
115	13	107	108
116	7	107	110
117	7	107	111
118	14	108	109
119	7	113	114
120	7	113	115
121	6	113	116
122	7	116	117
123	7	116	118

Angles

1	5	76	74	77
2	5	101	100	102
3	4	22	31	32
4	5	11	10	12
5	4	113	116	118
6	4	13	19	22
7	5	32	31	33
8	5	90	86	91
9	4	47	48	50
10	5	57	56	58
11	3	3	1	61
12	4	5	6	7
13	4	22	23	24
14	4	14	13	18
15	4	66	64	92
16	4	39	56	57
17	4	100	103	104
18	4	63	64	66
19	4	44	47	53
20	4	99	98	116
21	4	4	5	31
22	4	65	64	66
23	4	3	4	34
24	4	19	22	31
25	4	47	53	54
26	4	10	13	14
27	4	55	53	56
28	5	28	27	29
29	4	39	56	53
30	4	69	70	71
31	4	86	81	92
32	4	106	107	110
33	4	52	47	53
34	4	67	66	69
35	4	98	100	102
36	4	106	113	116
37	4	5	31	33
38	4	22	23	25
39	2	64	63	95
40	4	6	5	31
41	4	19	22	27
42	4	98	116	117
43	4	48	47	52
44	5	119	97	120
45	5	42	41	43
46	5	45	44	46
47	4	49	48	50
48	4	64	66	67
49	4	82	81	86
50	3	1	61	63
51	5	7	6	9
52	4	69	74	77
53	4	19	22	23
54	4	96	97	120
55	5	28	27	30
56	4	69	70	72
57	4	98	116	113
58	5	83	82	85
59	4	98	100	103
60	4	104	103	106
61	4	12	10	13
62	4	39	41	42
63	4	81	82	84
64	4	41	44	46
65	4	107	106	113
66	4	98	97	119
67	4	5	10	11
68	4	97	98	99
69	5	71	70	73
70	4	49	48	51
71	4	112	106	113
72	5	20	19	21
73	5	114	113	115
74	4	64	92	93
75	5	72	70	73
76	4	10	13	18
77	4	101	100	103
78	4	22	31	33
79	6	49	96	97
80	2	15	14	17
81	4	11	10	13
82	4	22	27	28
83	4	78	81	92
84	1	13	14	15
85	4	81	86	90
86	4	96	97	98
87	4	69	78	79
88	4	41	44	47
89	4	81	82	85
90	4	87	86	90
91	4	98	97	120
92	4	5	10	12
93	5	24	23	25
94	4	5	4	34
95	5	75	74	76
96	4	47	48	51
97	4	100	98	116
98	4	108	107	110
99	5	79	78	80
100	4	114	113	116
101	2	4	3	36
102	4	5	6	8
103	4	10	13	19
104	4	14	13	19
105	4	23	22	27
106	4	39	38	59
107	4	39	56	58
108	5	59	38	60
109	4	5	31	22
110	4	66	69	74
111	4	100	103	105
112	4	103	106	113
113	4	46	44	47
114	4	63	64	92
115	4	81	86	91
116	4	3	4	35
117	5	25	23	26
118	6	48	49	96
119	4	69	78	80
120	4	87	86	91
121	2	61	63	95
122	5	93	92	94
123	4	47	53	55
124	4	64	92	81
125	4	66	69	70
126	4	106	107	111
127	4	5	4	35
128	1	1	3	4
129	4	108	107	111
130	4	38	39	40
131	4	79	78	81
132	4	81	86	87
133	4	5	6	9
134	7	16	15	37
135	4	22	23	26
136	4	81	92	93
137	4	98	116	118
138	4	13	19	20
139	4	39	38	60
140	4	53	56	57
141	5	8	6	9
142	4	38	39	56
143	4	48	47	53
144	4	100	103	106
145	4	4	5	10
146	4	27	22	31
147	5	29	27	30
148	4	42	41	44
149	4	45	44	47
150	4	18	13	19
151	2	1	3	36
152	4	64	66	68
153	3	14	15	16
154	5	84	82	85
155	5	104	103	105
156	4	21	19	22
157	4	37	38	39
158	3	2	1	61
159	4	47	53	56
160	4	105	103	106
161	6	107	108	109
162	4	69	70	73
163	4	103	106	107
164	4	3	4	5
165	4	74	69	78
166	4	6	5	10
167	4	39	41	43
168	5	50	48	51
169	4	23	22	31
170	6	15	37	38
171	4	66	69	78
172	4	102	100	103
173	4	97	98	100
174	4	106	107	108
175	4	20	19	22
176	5	110	107	111
177	4	64	92	94
178	4	106	113	114
179	9	87	88	89
180	4	10	5	31
181	4	40	39	56
182	4	44	47	52
183	4	63	64	65
184	4	22	27	29
185	4	4	5	6
186	4	39	41	44
187	4	107	106	112
188	4	78	81	82
189	4	65	64	92
190	4	41	39	56
191	3	62	61	63
192	4	69	74	75
193	4	5	10	13
194	5	24	23	26
195	5	75	74	77
196	4	44	47	48
197	4	70	69	78
198	5	67	66	68
199	4	98	100	101
200	4	40	39	41
201	1	61	63	64
202	4	106	113	115
203	4	5	31	32
204	8	86	87	88
205	4	22	27	30
206	4	37	38	59
207	5	54	53	55
208	2	13	14	17
209	4	70	69	74
210	4	69	78	81
211	4	80	78	81
212	5	117	116	118
213	3	1	61	62
214	5	34	4	35
215	5	7	6	8
216	4	68	66	69
217	4	69	74	76
218	4	97	98	116
219	4	96	97	119
220	4	43	41	44
221	4	82	81	92
222	5	83	82	84
223	4	38	39	41
224	3	2	1	3
225	4	99	98	100
226	4	81	92	94
227	4	113	116	117
228	4	81	82	83
229	4	41	44	45
230	4	13	19	21
231	4	53	56	58
232	3	14	15	37
233	4	103	106	112
234	4	115	113	116
235	4	37	38	60
236	4	54	53	56
237	5	71	70	72
238	4	47	48	49
239	4	64	66	69
240	4	78	81	86

Dihedrals

1	15	10	5	4	35
2	19	54	53	56	58
3	15	70	69	78	79
4	15	78	81	92	93
5	13	3	1	61	62
6	19	18	13	19	21
7	7	13	14	15	16
7	8	13	14	15	16
8	19	65	64	66	67
9	16	5	31	22	19
9	17	5	31	22	19
9	18	5	31	22	19
10	15	52	47	53	56
11	5	10	13	14	17
11	6	10	13	14	17
12	15	38	39	41	43
13	15	66	64	92	93
14	15	12	10	13	19
15	15	80	78	81	92
16	1	1	3	4	5
16	2	1	3	4	5
16	3	1	3	4	5
16	4	1	3	4	5
17	15	4	5	10	12
18	16	74	69	78	81
18	17	74	69	78	81
18	18	74	69	78	81
19	19	102	100	103	104
20	14	37	38	39	56
21	15	19	22	27	29
22	15	43	41	39	56
23	15	4	5	6	8
24	15	42	41	39	56
25	15	66	69	74	77
26	5	17	14	13	18
26	6	17	14	13	18
27	15	66	69	70	72
28	15	67	66	69	74
29	15	112	106	113	116
30	16	10	13	19	22
30	17	10	13	19	22
30	18	10	13	19	22
31	28	96	97	98	99
31	29	96	97	98	99
32	15	20	19	22	31
33	14	14	13	19	20
34	14	108	107	106	113
35	16	69	78	81	86
35	17	69	78	81	86
35	18	69	78	81	86
36	1	61	63	64	66
36	2	61	63	64	66
36	3	61	63	64	66
36	4	61	63	64	66
37	14	82	81	86	87
38	15	98	116	113	115
39	15	23	22	31	32
40	15	6	5	4	35
41	16	64	92	81	86
41	17	64	92	81	86
41	18	64	92	81	86
42	15	68	66	69	70
43	14	49	48	47	53
44	15	39	56	53	55
45	15	41	39	38	60
46	14	44	47	48	49
47	15	73	70	69	74
48	16	5	10	13	19
48	17	5	10	13	19
48	18	5	10	13	19
49	15	67	66	69	78
50	15	31	5	4	34
51	19	101	100	103	104
52	14	11	10	13	14
53	5	35	4	3	36
53	6	35	4	3	36
54	15	116	98	97	119
55	9	2	1	3	4
55	10	2	1	3	4
56	15	30	27	22	31
57	19	99	98	116	117
58	15	102	100	98	116
59	19	55	53	56	57
60	15	44	47	53	54
61	31	88	87	86	91
62	15	10	5	4	34
63	19	54	53	56	57
64	19	43	41	44	45
65	15	111	107	106	113
66	16	41	44	47	48
66	17	41	44	47	48
66	18	41	44	47	48
67	7	36	3	1	61
67	8	36	3	1	61
68	15	27	22	31	33
69	1	61	63	64	92
69	2	61	63	64	92
69	3	61	63	64	92
69	4	61	63	64	92
70	16	69	78	81	92
70	17	69	78	81	92
70	18	69	78	81	92
71	19	52	47	53	55
72	15	38	39	41	42
73	28	108	107	106	112
73	29	108	107	106	112
74	19	12	10	13	18
75	33	106	107	108	109
75	34	106	107	108	109
76	19	45	44	47	52
77	15	103	106	113	114
78	15	19	22	31	33
79	15	42	41	44	47
80	15	70	69	74	77
81	15	4	5	6	7
82	15	39	41	44	45
83	15	66	69	74	76
84	16	13	19	22	27
84	17	13	19	22	27
84	18	13	19	22	27
85	15	67	66	64	92
86	15	48	47	53	55
87	19	51	48	47	52
88	14	63	64	66	67
89	5	61	63	64	65
89	6	61	63	64	65
90	15	4	5	31	33
91	15	82	81	92	94
92	15	6	5	4	34
93	16	41	39	56	53
93	17	41	39	56	53
93	18	41	39	56	53
94	14	63	64	92	93
95	16	98	100	103	106
95	17	98	100	103	106
95	18	98	100	103	106
96	15	39	56	53	54
97	15	65	64	92	81
98	16	66	69	78	81
98	17	66	69	78	81
98	18	66	69	78	81
99	16	13	19	22	31
99	17	13	19	22	31
99	18	13	19	22	31
100	19	111	107	106	112
101	13	2	1	61	62
102	14	3	4	5	10
103	19	115	113	116	118
104	15	7	6	5	31
105	15	82	81	86	90
106	15	28	27	22	31
107	15	25	23	22	27
108	23	15	37	38	60
109	15	86	81	92	94
110	15	9	6	5	10
111	16	107	106	113	116
111	17	107	106	113	116
111	18	107	106	113	116
112	16	39	56	53	47
112	17	39	56	53	47
112	18	39	56	53	47
113	14	37	38	39	41
114	15	100	103	106	112
115	15	40	39	41	44
116	16	69	66	64	92
116	17	69	66	64	92
116	18	69	66	64	92
117	15	67	66	69	70
118	23	50	48	49	96
119	14	3	4	5	6
120	19	114	113	116	118
121	15	11	10	5	31
122	15	27	22	31	32
123	16	100	98	116	113
123	17	100	98	116	113
123	18	100	98	116	113
124	15	99	98	100	103
125	15	20	19	22	27
126	16	69	78	81	82
126	17	69	78	81	82
126	18	69	78	81	82
127	15	10	5	31	33
128	15	77	74	69	78
129	15	25	23	22	31
130	15	103	106	107	111
131	15	104	103	106	113
132	16	64	92	81	82
132	17	64	92	81	82
132	18	64	92	81	82
133	16	70	69	78	81
133	17	70	69	78	81
133	18	70	69	78	81
134	35	109	108	107	111
135	15	19	22	23	24
136	15	46	44	47	53
137	5	92	64	63	95
137	6	92	64	63	95
138	15	48	47	53	54
139	15	85	82	81	86
140	15	100	98	116	117
141	15	65	64	66	69
142	15	97	98	100	101
143	15	4	5	31	32
144	15	99	98	116	113
145	15	97	98	116	118
146	15	83	82	81	86
147	15	82	81	92	93
148	19	40	39	56	57
149	16	6	5	10	13
149	17	6	5	10	13
149	18	6	5	10	13
150	5	1	3	4	34
150	6	1	3	4	34
151	15	50	48	47	53
152	14	78	81	86	87
153	15	66	69	78	80
154	16	41	44	47	53
154	17	41	44	47	53
154	18	41	44	47	53
155	32	86	87	88	89
156	15	38	39	56	58
157	30	48	49	96	97
158	15	78	81	82	84
159	19	99	98	97	120
160	14	14	13	19	22
161	15	6	5	31	33
162	19	115	113	116	117
163	14	12	10	13	14
164	23	15	37	38	59
165	14	103	106	107	108
166	15	45	44	47	48
167	21	15	37	38	39
167	22	15	37	38	39
168	15	78	81	86	91
169	19	104	103	106	112
170	15	44	47	48	51
171	1	15	14	13	19
171	2	15	14	13	19
171	3	15	14	13	19
171	4	15	14	13	19
172	16	103	100	98	116
172	17	103	100	98	116
172	18	103	100	98	116
173	19	40	39	41	43
174	16	13	19	22	23
174	17	13	19	22	23
174	18	13	19	22	23
175	15	85	82	81	92
176	19	114	113	116	117
177	15	101	100	103	106
178	19	18	13	19	20
179	15	47	53	56	58
180	15	105	103	106	107
181	16	5	31	22	27
181	17	5	31	22	27
181	18	5	31	22	27
182	19	99	98	100	102
183	15	10	5	31	32
184	16	44	41	39	56
184	17	44	41	39	56
184	18	44	41	39	56
185	16	66	64	92	81
185	17	66	64	92	81
185	18	66	64	92	81
186	20	14	15	37	38
187	15	4	5	10	11
188	16	44	47	53	56
188	17	44	47	53	56
188	18	44	47	53	56
189	15	76	74	69	78
190	15	74	69	78	80
191	19	40	39	38	60
192	15	43	41	44	47
193	15	24	23	22	27
194	15	75	74	69	78
195	15	19	22	27	28
196	35	109	108	107	110
197	15	78	81	92	94
198	19	46	44	47	52
199	14	5	10	13	14
200	15	66	69	70	71
201	19	112	106	113	115
202	24	16	15	14	17
202	25	16	15	14	17
203	15	10	13	19	21
204	19	65	64	66	68
205	16	38	39	41	44
205	17	38	39	41	44
205	18	38	39	41	44
206	15	66	64	92	94
207	15	98	116	113	114
208	16	4	5	31	22
208	17	4	5	31	22
208	18	4	5	31	22
209	15	23	22	27	30
210	15	97	98	116	117
211	15	6	5	10	12
212	15	79	78	81	82
213	16	103	106	113	116
213	17	103	106	113	116
213	18	103	106	113	116
214	19	50	48	47	52
215	15	24	23	22	31
216	28	49	48	47	52
216	29	49	48	47	52
217	15	41	39	38	59
218	15	4	5	6	9
219	5	5	4	3	36
219	6	5	4	3	36
220	16	39	41	44	47
220	17	39	41	44	47
220	18	39	41	44	47
221	5	17	14	13	19
221	6	17	14	13	19
222	15	5	10	13	18
223	16	64	66	69	74
223	17	64	66	69	74
223	18	64	66	69	74
224	14	63	64	66	69
225	15	78	81	82	83
226	14	96	97	98	100
227	5	34	4	3	36
227	6	34	4	3	36
228	15	72	70	69	78
229	15	20	19	22	23
230	15	91	86	81	92
231	15	8	6	5	31
232	23	49	96	97	120
233	15	29	27	22	31
234	15	80	78	81	86
235	15	79	78	81	86
236	16	64	92	81	78
236	17	64	92	81	78
236	18	64	92	81	78
237	31	88	87	86	90
238	19	65	64	92	94
239	15	78	81	86	90
240	23	47	48	49	96
241	5	15	14	13	18
241	6	15	14	13	18
242	15	105	103	106	113
243	11	62	61	63	95
243	12	62	61	63	95
244	16	64	66	69	78
244	17	64	66	69	78
244	18	64	66	69	78
245	19	101	100	103	105
246	15	84	82	81	86
247	9	62	61	63	64
247	10	62	61	63	64
248	15	47	53	56	57
249	15	116	98	97	120
250	15	7	6	5	10
251	19	52	47	53	54
252	1	10	13	14	15
252	2	10	13	14	15
252	3	10	13	14	15
252	4	10	13	14	15
253	23	51	48	49	96
254	16	10	5	31	22
254	17	10	5	31	22
254	18	10	5	31	22
255	15	40	39	56	53
256	19	55	53	56	58
257	15	74	69	78	79
258	19	40	39	38	59
259	15	19	22	31	32
260	19	43	41	44	46
261	15	26	23	22	31
262	19	42	41	44	46
263	15	70	69	74	76
264	15	100	98	97	120
265	15	71	70	69	74
266	15	66	69	74	75
267	19	112	106	113	114
268	15	11	10	13	19
269	15	10	13	19	20
270	11	2	1	3	36
270	12	2	1	3	36
271	15	23	22	27	29
272	15	79	78	81	92
273	31	81	86	87	88
274	15	21	19	22	31
275	15	6	5	10	11
276	15	45	44	47	53
277	15	103	106	113	115
278	16	98	116	113	106
278	17	98	116	113	106
278	18	98	116	113	106
279	14	63	64	92	81
280	15	102	100	103	106
281	15	98	100	103	105
282	15	71	70	69	78
283	15	39	41	44	46
284	15	19	22	23	26
285	7	4	3	1	61
285	8	4	3	1	61
286	5	66	64	63	95
286	6	66	64	63	95
287	16	100	103	106	107
287	17	100	103	106	107
287	18	100	103	106	107
288	16	48	47	53	56
288	17	48	47	53	56
288	18	48	47	53	56
289	15	51	48	47	53
290	15	84	82	81	92
291	14	63	64	66	68
292	19	105	103	106	112
293	16	5	31	22	23
293	17	5	31	22	23
293	18	5	31	22	23
294	5	65	64	63	95
294	6	65	64	63	95
295	16	97	98	100	103
295	17	97	98	100	103
295	18	97	98	100	103
296	16	6	5	31	22
296	17	6	5	31	22
296	18	6	5	31	22
297	23	49	96	97	119
298	15	86	81	92	93
299	15	106	113	116	118
300	14	63	64	92	94
301	19	65	64	92	93
302	15	107	106	113	115
303	28	37	38	39	40
303	29	37	38	39	40
304	15	46	44	47	48
305	13	2	1	61	63
306	15	56	39	38	60
307	15	82	81	86	91
308	15	83	82	81	92
309	15	103	106	107	110
310	16	97	98	116	113
310	17	97	98	116	113
310	18	97	98	116	113
311	15	41	39	56	58
312	15	90	86	81	92
313	15	68	66	69	74
314	15	70	69	78	80
315	19	42	41	44	45
316	15	70	69	74	75
317	15	100	98	97	119
318	15	110	107	106	113
319	15	73	70	69	78
320	16	38	39	56	53
320	17	38	39	56	53
320	18	38	39	56	53
321	16	64	66	69	70
321	17	64	66	69	70
321	18	64	66	69	70
322	7	13	14	15	37
322	8	13	14	15	37
323	13	3	1	61	63
324	19	11	10	13	18
325	15	18	13	19	22
326	15	72	70	69	74
327	15	23	22	27	28
328	15	80	78	81	82
329	15	68	66	69	78
330	16	4	5	10	13
330	17	4	5	10	13
330	18	4	5	10	13
331	16	100	103	106	113
331	17	100	103	106	113
331	18	100	103	106	113
332	23	49	96	97	98
333	19	102	100	103	105
334	15	19	22	27	30
335	15	98	100	103	104
336	15	104	103	106	107
337	15	19	22	23	25
338	15	66	69	78	79
339	15	41	44	47	52
340	14	96	97	98	116
341	15	38	39	56	57
342	15	66	69	70	73
343	15	101	100	98	116
344	16	13	10	5	31
344	17	13	10	5	31
344	18	13	10	5	31
345	15	100	98	116	118
346	19	99	98	97	119
347	14	14	13	19	21
348	15	6	5	31	32
349	15	97	98	100	102
350	14	3	4	5	31
351	15	12	10	5	31
352	15	23	22	31	33
353	19	40	39	56	58
354	5	1	3	4	35
354	6	1	3	4	35
355	15	21	19	22	23
356	15	106	113	116	117
357	26	16	15	37	38
357	27	16	15	37	38
358	15	9	6	5	31
359	14	87	86	81	92
360	15	26	23	22	27
361	15	44	47	48	50
362	15	107	106	113	114
363	7	17	14	15	37
363	8	17	14	15	37
364	19	40	39	41	42
365	19	110	107	106	112
366	15	31	5	4	35
367	15	78	81	82	85
368	15	56	39	38	59
369	7	1	61	63	95
369	8	1	61	63	95
370	15	8	6	5	10
371	19	99	98	100	101
372	19	99	98	116	118
373	7	1	61	63	64
373	8	1	61	63	64
374	15	41	39	56	57
375	15	21	19	22	27
376	15	68	66	64	92
377	15	44	47	53	55

Impropers

42	1	3	4	36	1
110	2	61	1	62	63
175	2	1	61	2	3
278	2	1	2	3	61
324	1	3	36	1	4
358	1	63	61	64	95
359	1	63	95	61	64
380	3	15	37	14	16
436	1	14	15	17	13
558	2	1	3	61	2
590	1	63	64	95	61
706	1	3	1	4	36
717	3	15	14	16	37
722	2	61	63	1	62
777	1	14	17	13	15
792	1	14	13	15	17
821	3	15	16	37	14
838	2	61	62	63	1
