Title

120 atoms
123 bonds
240 angles
520 dihedrals
18 impropers

11 atom types
14 bond types
9 angle types
35 dihedral types
3 improper types
-17.12599945 82.87400055 xlo xhi
-3.025000095 96.9749999 ylo yhi
-2.822999954 97.17700005 zlo zhi
0.0 0.0 0.0 xy xz yz

Masses

1	12.01078
2	15.99943
3	14.00672
4	12.01078
5	1.007947
6	1.007947
7	1.007947
8	15.99943
9	12.01078
10	15.99943
11	1.007947


Pair Coeffs

1	0.086879315	3.4806469
2	0.2102061	3.0398122
3	0.16769152	3.206876
4	0.10884061	3.3795318
5	0.015779483	2.6445434
6	0.014090815	1.1034277
7	0.016409246	2.5832257
8	0.16846514	3.0251065
9	0.21	3.3996695
10	0.20947353	2.99716
11	1.2326e-05	0.53453923

Bond Coeffs

1 harmonic	582.698766451	1.225198386222
2 harmonic	492.76746816345	1.381897776683
3 harmonic	279.1350963404	1.454628925034
4 harmonic	352.0565580496	1.450098586273
5 harmonic	505.144496193	1.019481865027
6 harmonic	264.62148576755	1.52190126495
7 harmonic	370.04670688625	1.093899492634
8 harmonic	301.15400723785	1.345741232799
9 harmonic	366.7408841747	1.425895053732
10 harmonic	300.03137914615	1.451203938761
11 harmonic	366.34047229585	1.464762957261
12 harmonic	602.81384337	1.196112346392
13 harmonic	329.96998057905	1.427343958716
14 harmonic	543.5267831885	0.9716763312559


Angle Coeffs

1 harmonic	55.42182150775	117.3465570514
2 harmonic	63.44422595415	115.5071327674
3 harmonic	57.8982893754	126.8062420451
4 harmonic	53.20531626545	116.5475862634
5 harmonic	48.776492647595	115.6030999533
6 harmonic	65.09061609600001	110.3538806181
7 harmonic	201.41175231035	127.4691416191
8 harmonic	55.07882548015	112.8714009681
9 harmonic	33.56981613361	180


Dihedral Coeffs

1 fourier 1	-0.1488678166443	4	180
2 fourier 1	-0.1230328948768	3	180
3 fourier 1	0.2939295466901	2	0
4 fourier 1	-0.3024127022865	1	0
5 fourier 1	0.182238503271	2	0
6 fourier 1	0.02972342374561	3	0
7 fourier 1	1.809047390003	2	180
8 fourier 1	-0.04816277792592	1	0
9 fourier 1	3.101948770557	2	180
10 fourier 1	-0.4252153282372	1	0
11 fourier 1	2.348375642009	2	180
12 fourier 1	1.256156174911	1	0
13 fourier 1	0.9974165607242	2	180
14 fourier 1	0.1155372516788	3	0
15 fourier 1	0.1040663847541	3	0
16 fourier 1	0.09223874044423	3	0
17 fourier 1	0.3159935921949	2	180
18 fourier 1	0.3247796806857	1	180
19 fourier 1	0.1911926717192	3	0
20 fourier 1	2.779853741805	2	180
21 fourier 1	0.1918272375143	3	0
22 fourier 1	0.9202179876409	1	180
23 fourier 1	0.0473758381877	3	0
24 fourier 1	0.4860993122944	2	180
25 fourier 1	0.8916986138746	1	0
26 fourier 1	1.163809172478	2	180
27 fourier 1	0.1679186987369	1	180
28 fourier 1	0.1115525666802	3	0
29 fourier 1	0.3432490222662	1	0
30 fourier 1	0.457973137376	1	0
31 fourier 1	-1.382973039546	1	0
32 fourier 1	0	1	0
33 fourier 1	0.3445382149273	3	0
34 fourier 1	0.1364556373303	1	0
35 fourier 1	0.3026390167484	3	0


Improper Coeffs

1 0.3333333333333333	-1	2
2 0.3666666666666667	-1	2
3 3.5	-1	2


Atoms

1	1	1	0.54218501	4.0289998	0.48899999	1.378
2	1	2	-0.69536299	4.243	-0.71499997	1.679
3	1	3	-0.49107501	2.914	0.85399997	0.56
4	1	4	-0.00107	1.977	-0.15700001	0.055
5	1	4	-0.0091829998	0.87	0.421	-0.88499999
6	1	4	-0.17065901	1.567	1.123	-2.082
7	1	5	0.071016997	2.2520001	0.419	-2.602
8	1	5	0.071016997	0.82099998	1.485	-2.823
9	1	5	0.071016997	2.151	2.0090001	-1.763
10	1	4	-0.205989	-0.037	1.4579999	-0.167
11	1	5	0.109738	0.574	2.2349999	0.338
12	1	5	0.109738	-0.65399998	1.99	-0.92699999
13	1	4	0.12716299	-0.98799998	0.82499999	0.86299998
14	1	3	-0.51952499	-1.8049999	1.867	1.4960001
15	1	1	0.80378801	-2.503	1.655	2.7279999
16	1	2	-0.61308098	-2.428	0.55299997	3.3340001
17	1	6	0.314123	-1.867	2.8169999	1.064
18	1	7	0.043912999	-0.382	0.33899999	1.655
19	1	4	-0.20960701	-1.905	-0.20100001	0.17399999
20	1	5	0.111284	-2.5439999	0.345	-0.55699998
21	1	5	0.111284	-2.5910001	-0.65200001	0.926
22	1	4	-0.028897	-1.128	-1.3279999	-0.55500001
23	1	4	-0.17242999	-2.1259999	-2.092	-1.46
24	1	5	0.074091002	-1.614	-2.924	-1.99
25	1	5	0.074091002	-2.575	-1.419	-2.2219999
26	1	5	0.074091002	-2.9590001	-2.52	-0.86000001
27	1	4	-0.17242999	-0.56800002	-2.3559999	0.463
28	1	5	0.074091002	-0.152	-1.8839999	1.37
29	1	5	0.074091002	0.212	-2.9949999	-0.0040000002
30	1	5	0.074091002	-1.375	-3.0250001	0.833
31	1	4	-0.21176501	-0.011	-0.73100001	-1.473
32	1	5	0.111464	-0.51999998	-0.32600001	-2.378
33	1	5	0.111464	0.64200002	-1.549	-1.851
34	1	7	0.068026997	2.556	-0.926	-0.50099999
35	1	7	0.068026997	1.536	-0.66000003	0.92799997
36	1	6	0.314944	2.7869999	1.869	0.36199999
37	1	8	-0.48775601	-3.075	2.4200001	3.132
38	1	4	0.093935996	-4.3179998	1.8609999	3.461
39	1	4	-0.072765999	-5.1589999	1.6059999	2.1949999
40	1	5	0.087011002	-4.5949998	0.88599998	1.561
41	1	4	-0.164197	-6.5139999	0.93400002	2.549
42	1	5	0.096596003	-6.434	0.34400001	3.4879999
43	1	5	0.096596003	-6.7859998	0.215	1.7460001
44	1	4	-0.163765	-7.6459999	1.96	2.6860001
45	1	5	0.097217001	-8.573	1.4400001	3.013
46	1	5	0.097217001	-7.3800001	2.671	3.4979999
47	1	4	-0.071961001	-7.8790002	2.753	1.37
48	1	4	0.018009	-9.026	2.152	0.53899997
49	1	8	-0.144339	-10.239	2.2780001	1.23
50	1	7	0.097897999	-8.8190002	1.0779999	0.33000001
51	1	7	0.097897999	-9.1040001	2.694	-0.43099999
52	1	5	0.090029001	-8.1809998	3.7869999	1.653
53	1	4	-0.163765	-6.5960002	2.862	0.50700003
54	1	5	0.097217001	-6.6479998	3.779	-0.12
55	1	5	0.097217001	-6.5089998	1.9910001	-0.18099999
56	1	4	-0.164197	-5.3400002	2.915	1.381
57	1	5	0.096596003	-5.4219999	3.793	2.0610001
58	1	5	0.096596003	-4.4489999	3.076	0.73500001
59	1	7	0.097799003	-4.8559999	2.5610001	4.1360002
60	1	7	0.097799003	-4.165	0.90899998	4.02
61	1	1	0.55484802	4.698	1.256	1.745
62	1	2	-0.68467402	4.2490001	2.158	2.5009999
63	1	3	-0.56987602	6.0770001	1.2359999	1.36
64	1	4	0.125016	7.0419998	2.2379999	1.83
65	1	7	0.041816998	6.5580001	3.2320001	1.76
66	1	4	-0.21071	7.4299998	1.9349999	3.289
67	1	5	0.111284	6.52	1.96	3.928
68	1	5	0.111284	7.8239999	0.89399999	3.3299999
69	1	4	-0.02943	8.4890003	2.9130001	3.862
70	1	4	-0.17242999	9.0039997	2.3329999	5.2010002
71	1	5	0.074091002	9.7609997	3.0090001	5.6550002
72	1	5	0.074091002	8.1709995	2.2049999	5.9260001
73	1	5	0.074091002	9.4759998	1.337	5.053
74	1	4	-0.17242999	7.8559999	4.29	4.1830001
75	1	5	0.074091002	7.23	4.6789999	3.365
76	1	5	0.074091002	7.1830001	4.2140002	5.0640001
77	1	5	0.074091002	8.6420002	5.039	4.4190001
78	1	4	-0.210426	9.7060003	3.0380001	2.8929999
79	1	5	0.110151	10.292	2.095	2.9849999
80	1	5	0.110151	10.391	3.8369999	3.25
81	1	4	0.02369	9.3879995	3.2290001	1.373
82	1	4	-0.169177	10.675	2.908	0.57099998
83	1	5	0.067621998	10.5	3.0209999	-0.52100003
84	1	5	0.067621998	11.504	3.5880001	0.86500001
85	1	5	0.067621998	11.011	1.864	0.75199997
86	1	4	0.14254899	8.9680004	4.684	1.0089999
87	1	3	-0.63624901	9.9189997	5.6589999	1.533
88	1	9	0.60006899	9.7629995	6.9060001	1.335
89	1	2	-0.47692001	9.6110001	8.1190004	1.142
90	1	7	0.067189001	7.9569998	4.9299998	1.372
91	1	7	0.067189001	8.9189997	4.7880001	-0.098999999
92	1	4	-0.207041	8.2919998	2.2219999	0.93099999
93	1	5	0.109613	8.7130003	1.191	0.94199997
94	1	5	0.109613	7.987	2.4349999	-0.118
95	1	6	0.31100199	6.3790002	0.49200001	0.69099998
96	1	8	-0.144339	-10.93	1.859	0.653
97	1	4	0.018009	-12.173	2.1849999	1.214
98	1	4	-0.071961001	-12.431	1.364	2.493
99	1	5	0.090029001	-11.627	1.6210001	3.22
100	1	4	-0.16297901	-13.781	1.762	3.1500001
101	1	5	0.097217001	-14.05	2.813	2.9059999
102	1	5	0.097217001	-13.678	1.711	4.256
103	1	4	-0.155919	-14.924	0.83200002	2.7260001
104	1	5	0.097217001	-15.877	1.202	3.161
105	1	5	0.097217001	-15.035	0.89200002	1.6210001
106	1	4	-0.113382	-14.655	-0.64499998	3.131
107	1	4	0.080123998	-15.35	-1.007	4.4549999
108	1	10	-0.67191899	-16.740999	-0.94400001	4.303
109	1	11	0.38062599	-17.125999	-1.17	5.1890001
110	1	7	0.086692996	-15.024	-0.30599999	5.257
111	1	7	0.086692996	-15.064	-2.0420001	4.7519999
112	1	5	0.093625002	-15.095	-1.293	2.3380001
113	1	4	-0.155919	-13.143	-0.97299999	3.2149999
114	1	5	0.097217001	-12.987	-2.0569999	3.023
115	1	5	0.097217001	-12.749	-0.75400001	4.2319999
116	1	4	-0.16297901	-12.339	-0.15700001	2.1989999
117	1	5	0.097217001	-12.726	-0.384	1.1799999
118	1	5	0.097217001	-11.274	-0.47600001	2.23
119	1	7	0.097897999	-12.967	1.977	0.46599999
120	1	7	0.097897999	-12.207	3.2750001	1.443

Bonds

1	1	1	2
2	2	1	3
3	3	1	61
4	4	3	4
5	5	3	36
6	6	4	5
7	7	4	34
8	7	4	35
9	6	5	6
10	6	5	10
11	6	5	31
12	7	6	7
13	7	6	8
14	7	6	9
15	7	10	11
16	7	10	12
17	6	10	13
18	4	13	14
19	7	13	18
20	6	13	19
21	2	14	15
22	5	14	17
23	1	15	16
24	8	15	37
25	7	19	20
26	7	19	21
27	6	19	22
28	6	22	23
29	6	22	27
30	6	22	31
31	7	23	24
32	7	23	25
33	7	23	26
34	7	27	28
35	7	27	29
36	7	27	30
37	7	31	32
38	7	31	33
39	9	37	38
40	6	38	39
41	7	38	59
42	7	38	60
43	7	39	40
44	6	39	41
45	6	39	56
46	7	41	42
47	7	41	43
48	6	41	44
49	7	44	45
50	7	44	46
51	6	44	47
52	6	47	48
53	7	47	52
54	6	47	53
55	9	48	49
56	7	48	50
57	7	48	51
58	10	49	96
59	7	53	54
60	7	53	55
61	6	53	56
62	7	56	57
63	7	56	58
64	1	61	62
65	2	61	63
66	4	63	64
67	5	63	95
68	7	64	65
69	6	64	66
70	6	64	92
71	7	66	67
72	7	66	68
73	6	66	69
74	6	69	70
75	6	69	74
76	6	69	78
77	7	70	71
78	7	70	72
79	7	70	73
80	7	74	75
81	7	74	76
82	7	74	77
83	7	78	79
84	7	78	80
85	6	78	81
86	6	81	82
87	6	81	86
88	6	81	92
89	7	82	83
90	7	82	84
91	7	82	85
92	11	86	87
93	7	86	90
94	7	86	91
95	12	87	88
96	1	88	89
97	7	92	93
98	7	92	94
99	9	96	97
100	6	97	98
101	7	97	119
102	7	97	120
103	7	98	99
104	6	98	100
105	6	98	116
106	7	100	101
107	7	100	102
108	6	100	103
109	7	103	104
110	7	103	105
111	6	103	106
112	6	106	107
113	7	106	112
114	6	106	113
115	13	107	108
116	7	107	110
117	7	107	111
118	14	108	109
119	7	113	114
120	7	113	115
121	6	113	116
122	7	116	117
123	7	116	118

Angles

1	4	99	98	116
2	1	61	63	64
3	4	4	5	6
4	5	71	70	73
5	4	98	100	103
6	4	10	13	14
7	4	64	92	94
8	4	22	27	30
9	4	106	113	114
10	4	6	5	31
11	4	47	48	49
12	3	1	61	63
13	4	37	38	60
14	3	62	61	63
15	4	13	19	20
16	4	81	82	85
17	4	98	116	113
18	4	79	78	81
19	4	47	53	55
20	6	49	96	97
21	4	5	4	35
22	4	63	64	92
23	5	32	31	33
24	4	39	38	60
25	9	87	88	89
26	4	81	86	91
27	4	97	98	100
28	4	13	19	21
29	2	64	63	95
30	4	64	92	93
31	4	66	69	78
32	4	3	4	34
33	4	101	100	103
34	4	81	92	94
35	4	98	97	119
36	4	105	103	106
37	4	49	48	51
38	5	114	113	115
39	4	49	48	50
40	4	69	78	80
41	6	15	37	38
42	5	117	116	118
43	4	22	27	29
44	5	75	74	76
45	4	100	103	104
46	5	25	23	26
47	4	114	113	116
48	4	69	70	71
49	4	106	107	108
50	4	4	5	31
51	4	115	113	116
52	5	7	6	8
53	4	38	39	56
54	4	41	44	45
55	4	45	44	47
56	4	81	86	90
57	4	54	53	56
58	3	2	1	3
59	5	119	97	120
60	3	14	15	37
61	5	42	41	43
62	2	4	3	36
63	5	20	19	21
64	4	40	39	56
65	5	93	92	94
66	4	44	47	48
67	4	64	66	68
68	4	44	47	53
69	1	13	14	15
70	4	103	106	112
71	4	82	81	92
72	4	106	107	111
73	4	52	47	53
74	4	5	10	11
75	2	15	14	17
76	5	7	6	9
77	5	28	27	30
78	5	67	66	68
79	4	108	107	110
80	5	24	23	25
81	4	55	53	56
82	4	113	116	117
83	4	81	82	83
84	5	24	23	26
85	4	64	66	69
86	5	75	74	77
87	4	106	107	110
88	4	5	10	12
89	4	27	22	31
90	4	37	38	39
91	4	69	74	76
92	4	3	4	5
93	4	22	27	28
94	4	10	5	31
95	4	64	92	81
96	4	47	48	50
97	4	67	66	69
98	4	98	100	102
99	4	103	106	113
100	4	78	81	92
101	4	98	97	120
102	4	21	19	22
103	4	23	22	31
104	5	45	44	46
105	6	107	108	109
106	4	39	56	58
107	3	14	15	16
108	4	112	106	113
109	7	16	15	37
110	4	106	113	115
111	4	97	98	99
112	4	39	56	53
113	4	66	64	92
114	4	81	92	93
115	5	83	82	85
116	4	23	22	27
117	4	22	23	25
118	5	28	27	29
119	4	108	107	111
120	4	69	78	79
121	4	12	10	13
122	4	22	31	33
123	4	48	47	53
124	5	57	56	58
125	4	65	64	66
126	4	106	113	116
127	5	59	38	60
128	4	66	69	74
129	4	39	41	43
130	4	82	81	86
131	4	63	64	65
132	4	81	86	87
133	4	3	4	35
134	4	98	100	101
135	4	5	31	33
136	5	79	78	80
137	4	19	22	23
138	4	44	47	52
139	6	48	49	96
140	4	13	19	22
141	4	99	98	100
142	4	5	10	13
143	4	81	82	84
144	4	5	4	34
145	4	96	97	119
146	4	102	100	103
147	4	41	44	47
148	4	5	6	7
149	4	39	56	57
150	4	69	74	77
151	4	69	78	81
152	4	53	56	58
153	4	87	86	91
154	4	64	66	67
155	4	18	13	19
156	4	10	13	18
157	5	84	82	85
158	5	104	103	105
159	4	47	53	56
160	4	46	44	47
161	4	70	69	74
162	4	6	5	10
163	4	14	13	18
164	4	69	70	72
165	4	98	116	117
166	4	19	22	31
167	5	34	4	35
168	4	5	6	8
169	4	100	103	105
170	5	11	10	12
171	4	47	48	51
172	4	22	31	32
173	4	78	81	82
174	4	63	64	66
175	4	78	81	86
176	4	10	13	19
177	4	97	98	116
178	5	50	48	51
179	3	2	1	61
180	4	19	22	27
181	4	14	13	19
182	4	43	41	44
183	4	68	66	69
184	4	69	70	73
185	4	103	106	107
186	4	38	39	41
187	4	42	41	44
188	5	90	86	91
189	8	86	87	88
190	4	87	86	90
191	4	5	31	32
192	4	80	78	81
193	2	61	63	95
194	4	20	19	22
195	4	41	39	56
196	4	107	106	112
197	4	39	41	44
198	1	1	3	4
199	5	83	82	84
200	4	39	41	42
201	4	53	56	57
202	4	69	74	75
203	4	22	23	26
204	4	40	39	41
205	4	113	116	118
206	4	5	6	9
207	4	96	97	98
208	4	66	69	70
209	4	47	53	54
210	5	101	100	102
211	5	110	107	111
212	4	98	116	118
213	4	48	47	52
214	5	29	27	30
215	4	4	5	10
216	2	1	3	36
217	4	41	44	46
218	4	86	81	92
219	4	38	39	40
220	3	3	1	61
221	2	13	14	17
222	4	11	10	13
223	5	72	70	73
224	4	65	64	92
225	4	104	103	106
226	4	22	23	24
227	4	37	38	59
228	5	54	53	55
229	5	71	70	72
230	4	74	69	78
231	4	107	106	113
232	4	96	97	120
233	5	8	6	9
234	5	76	74	77
235	4	100	103	106
236	4	70	69	78
237	4	5	31	22
238	4	100	98	116
239	4	39	38	59
240	3	1	61	62

Dihedrals

1	7	36	3	1	61
1	8	36	3	1	61
2	15	78	81	92	93
3	16	69	78	81	82
3	17	69	78	81	82
3	18	69	78	81	82
4	15	84	82	81	92
5	16	69	78	81	86
5	17	69	78	81	86
5	18	69	78	81	86
6	16	39	41	44	47
6	17	39	41	44	47
6	18	39	41	44	47
7	23	50	48	49	96
8	19	45	44	47	52
9	14	49	48	47	53
10	16	13	19	22	23
10	17	13	19	22	23
10	18	13	19	22	23
11	15	82	81	92	94
12	9	2	1	3	4
12	10	2	1	3	4
13	16	6	5	31	22
13	17	6	5	31	22
13	18	6	5	31	22
14	15	76	74	69	78
15	15	78	81	82	84
16	15	99	98	100	103
17	11	2	1	3	36
17	12	2	1	3	36
18	21	15	37	38	39
18	22	15	37	38	39
19	15	4	5	31	32
20	15	19	22	27	28
21	5	17	14	13	18
21	6	17	14	13	18
22	16	64	92	81	82
22	17	64	92	81	82
22	18	64	92	81	82
23	16	64	92	81	86
23	17	64	92	81	86
23	18	64	92	81	86
24	30	48	49	96	97
25	15	9	6	5	10
26	5	1	3	4	35
26	6	1	3	4	35
27	15	70	69	78	80
28	9	62	61	63	64
28	10	62	61	63	64
29	15	70	69	74	76
30	14	96	97	98	116
31	19	50	48	47	52
32	15	79	78	81	82
33	15	79	78	81	86
34	15	11	10	13	19
35	15	65	64	66	69
36	19	52	47	53	55
37	15	5	10	13	18
38	7	13	14	15	16
38	8	13	14	15	16
39	15	24	23	22	31
40	23	49	96	97	98
41	15	65	64	92	81
42	15	116	98	97	119
43	14	44	47	48	49
44	16	4	5	31	22
44	17	4	5	31	22
44	18	4	5	31	22
45	14	103	106	107	108
46	20	14	15	37	38
47	1	15	14	13	19
47	2	15	14	13	19
47	3	15	14	13	19
47	4	15	14	13	19
48	16	66	64	92	81
48	17	66	64	92	81
48	18	66	64	92	81
49	15	41	39	56	58
50	15	112	106	113	116
51	16	39	56	53	47
51	17	39	56	53	47
51	18	39	56	53	47
52	14	14	13	19	22
53	16	41	39	56	53
53	17	41	39	56	53
53	18	41	39	56	53
54	15	82	81	86	91
55	16	41	44	47	48
55	17	41	44	47	48
55	18	41	44	47	48
56	15	105	103	106	113
57	15	18	13	19	22
58	15	44	47	48	50
59	16	100	98	116	113
59	17	100	98	116	113
59	18	100	98	116	113
60	23	15	37	38	60
61	15	39	56	53	55
62	19	99	98	97	119
63	15	40	39	56	53
64	15	42	41	44	47
65	15	9	6	5	31
66	15	66	69	70	71
67	16	97	98	116	113
67	17	97	98	116	113
67	18	97	98	116	113
68	19	105	103	106	112
69	15	39	41	44	45
70	35	109	108	107	110
71	14	5	10	13	14
72	15	4	5	10	11
73	19	99	98	100	101
74	7	1	61	63	64
74	8	1	61	63	64
75	16	103	106	113	116
75	17	103	106	113	116
75	18	103	106	113	116
76	14	3	4	5	10
77	14	87	86	81	92
78	16	41	44	47	53
78	17	41	44	47	53
78	18	41	44	47	53
79	15	19	22	27	30
80	15	26	23	22	31
81	15	67	66	64	92
82	15	23	22	31	33
83	15	105	103	106	107
84	15	68	66	64	92
85	19	55	53	56	58
86	15	72	70	69	74
87	15	41	44	47	52
88	19	99	98	116	117
89	19	12	10	13	18
90	16	74	69	78	81
90	17	74	69	78	81
90	18	74	69	78	81
91	15	38	39	56	57
92	15	8	6	5	10
93	15	26	23	22	27
94	15	68	66	69	74
95	16	107	106	113	116
95	17	107	106	113	116
95	18	107	106	113	116
96	15	51	48	47	53
97	19	54	53	56	57
98	13	3	1	61	62
99	15	41	39	56	57
100	15	78	81	82	83
101	14	3	4	5	6
102	15	70	69	74	75
103	15	100	98	97	120
104	16	10	5	31	22
104	17	10	5	31	22
104	18	10	5	31	22
105	19	51	48	47	52
106	19	112	106	113	114
107	15	19	22	27	29
108	15	83	82	81	86
109	19	40	39	56	57
110	16	38	39	41	44
110	17	38	39	41	44
110	18	38	39	41	44
111	15	38	39	41	42
112	15	11	10	5	31
113	16	69	66	64	92
113	17	69	66	64	92
113	18	69	66	64	92
114	15	41	39	38	60
115	15	25	23	22	31
116	14	3	4	5	31
117	15	43	41	44	47
118	16	13	19	22	31
118	17	13	19	22	31
118	18	13	19	22	31
119	14	12	10	13	14
120	15	25	23	22	27
121	19	40	39	38	60
122	15	8	6	5	31
123	15	103	106	113	114
124	16	13	19	22	27
124	17	13	19	22	27
124	18	13	19	22	27
125	19	110	107	106	112
126	15	99	98	116	113
127	15	7	6	5	10
128	19	55	53	56	57
129	14	82	81	86	87
130	16	66	69	78	81
130	17	66	69	78	81
130	18	66	69	78	81
131	15	98	116	113	115
132	13	2	1	61	62
133	5	17	14	13	19
133	6	17	14	13	19
134	16	10	13	19	22
134	17	10	13	19	22
134	18	10	13	19	22
135	16	98	100	103	106
135	17	98	100	103	106
135	18	98	100	103	106
136	15	91	86	81	92
137	15	107	106	113	114
138	15	73	70	69	78
139	15	29	27	22	31
140	15	104	103	106	113
141	28	49	48	47	52
141	29	49	48	47	52
142	15	102	100	103	106
143	16	5	10	13	19
143	17	5	10	13	19
143	18	5	10	13	19
144	15	102	100	98	116
145	19	101	100	103	105
146	16	6	5	10	13
146	17	6	5	10	13
146	18	6	5	10	13
147	15	6	5	4	34
148	23	49	96	97	119
149	5	34	4	3	36
149	6	34	4	3	36
150	15	6	5	31	33
151	14	63	64	92	93
152	19	104	103	106	112
153	15	38	39	41	43
154	5	61	63	64	65
154	6	61	63	64	65
155	5	1	3	4	34
155	6	1	3	4	34
156	5	35	4	3	36
156	6	35	4	3	36
157	15	19	22	23	26
158	15	82	81	86	90
159	1	61	63	64	66
159	2	61	63	64	66
159	3	61	63	64	66
159	4	61	63	64	66
160	15	21	19	22	23
161	19	40	39	41	43
162	15	80	78	81	92
163	15	104	103	106	107
164	14	63	64	66	68
165	23	15	37	38	59
166	15	38	39	56	58
167	23	47	48	49	96
168	15	44	47	53	54
169	16	38	39	56	53
169	17	38	39	56	53
169	18	38	39	56	53
170	15	4	5	6	9
171	15	116	98	97	120
172	19	54	53	56	58
173	14	63	64	66	67
174	16	69	78	81	92
174	17	69	78	81	92
174	18	69	78	81	92
175	15	4	5	6	7
176	15	97	98	100	102
177	16	5	31	22	27
177	17	5	31	22	27
177	18	5	31	22	27
178	19	40	39	56	58
179	15	27	22	31	32
180	15	67	66	69	70
181	15	20	19	22	27
182	15	12	10	13	19
183	15	66	69	78	79
184	14	96	97	98	100
185	19	101	100	103	104
186	15	78	81	92	94
187	31	81	86	87	88
188	14	14	13	19	20
189	16	5	31	22	23
189	17	5	31	22	23
189	18	5	31	22	23
190	15	86	81	92	93
191	14	37	38	39	56
192	26	16	15	37	38
192	27	16	15	37	38
193	23	51	48	49	96
194	16	13	10	5	31
194	17	13	10	5	31
194	18	13	10	5	31
195	28	108	107	106	112
195	29	108	107	106	112
196	13	3	1	61	63
197	19	18	13	19	20
198	15	85	82	81	86
199	15	20	19	22	23
200	15	23	22	31	32
201	14	14	13	19	21
202	1	61	63	64	92
202	2	61	63	64	92
202	3	61	63	64	92
202	4	61	63	64	92
203	19	18	13	19	21
204	33	106	107	108	109
204	34	106	107	108	109
205	15	79	78	81	92
206	19	65	64	92	93
207	15	66	69	74	77
208	15	66	69	70	72
209	19	115	113	116	117
210	14	63	64	92	94
211	15	66	64	92	93
212	15	67	66	69	78
213	7	17	14	15	37
213	8	17	14	15	37
214	15	100	103	106	112
215	15	66	69	70	73
216	15	71	70	69	78
217	15	82	81	92	93
218	16	98	116	113	106
218	17	98	116	113	106
218	18	98	116	113	106
219	19	65	64	66	68
220	15	41	39	38	59
221	16	64	66	69	70
221	17	64	66	69	70
221	18	64	66	69	70
222	15	46	44	47	48
223	15	39	41	44	46
224	15	10	5	31	33
225	15	42	41	39	56
226	15	84	82	81	86
227	16	100	103	106	107
227	17	100	103	106	107
227	18	100	103	106	107
228	15	31	5	4	34
229	19	40	39	38	59
230	24	16	15	14	17
230	25	16	15	14	17
231	15	106	113	116	117
232	15	74	69	78	80
233	15	110	107	106	113
234	5	5	4	3	36
234	6	5	4	3	36
235	7	13	14	15	37
235	8	13	14	15	37
236	16	103	100	98	116
236	17	103	100	98	116
236	18	103	100	98	116
237	7	4	3	1	61
237	8	4	3	1	61
238	19	42	41	44	45
239	15	45	44	47	48
240	15	70	69	74	77
241	5	65	64	63	95
241	6	65	64	63	95
242	14	63	64	66	69
243	15	46	44	47	53
244	19	115	113	116	118
245	16	44	47	53	56
245	17	44	47	53	56
245	18	44	47	53	56
246	16	64	66	69	78
246	17	64	66	69	78
246	18	64	66	69	78
247	15	10	5	4	34
248	15	43	41	39	56
249	14	63	64	92	81
250	15	86	81	92	94
251	15	111	107	106	113
252	5	10	13	14	17
252	6	10	13	14	17
253	15	19	22	31	33
254	19	99	98	100	102
255	28	37	38	39	40
255	29	37	38	39	40
256	15	12	10	5	31
257	15	30	27	22	31
258	15	52	47	53	56
259	19	111	107	106	112
260	15	23	22	27	28
261	15	83	82	81	92
262	15	74	69	78	79
263	15	21	19	22	31
264	15	48	47	53	54
265	16	70	69	78	81
265	17	70	69	78	81
265	18	70	69	78	81
266	15	45	44	47	53
267	15	10	13	19	20
268	15	66	64	92	94
269	19	114	113	116	118
270	23	49	96	97	120
271	15	106	113	116	118
272	15	21	19	22	27
273	15	44	47	48	51
274	15	66	69	78	80
275	15	103	106	107	111
276	15	10	13	19	21
277	15	73	70	69	74
278	15	98	116	113	114
279	19	42	41	44	46
280	15	4	5	6	8
281	1	1	3	4	5
281	2	1	3	4	5
281	3	1	3	4	5
281	4	1	3	4	5
282	15	56	39	38	60
283	5	66	64	63	95
283	6	66	64	63	95
284	31	88	87	86	91
285	15	7	6	5	31
286	15	100	98	116	117
287	15	6	5	4	35
288	15	44	47	53	55
289	15	19	22	23	24
290	15	50	48	47	53
291	15	97	98	116	117
292	16	4	5	10	13
292	17	4	5	10	13
292	18	4	5	10	13
293	19	43	41	44	45
294	15	4	5	31	33
295	28	96	97	98	99
295	29	96	97	98	99
296	15	20	19	22	31
297	11	62	61	63	95
297	12	62	61	63	95
298	15	98	100	103	105
299	19	52	47	53	54
300	14	108	107	106	113
301	15	47	53	56	57
302	15	68	66	69	70
303	19	102	100	103	105
304	15	6	5	10	11
305	15	90	86	81	92
306	19	99	98	97	120
307	15	24	23	22	27
308	15	66	69	74	75
309	15	6	5	10	12
310	19	11	10	13	18
311	15	23	22	27	30
312	16	100	103	106	113
312	17	100	103	106	113
312	18	100	103	106	113
313	15	39	56	53	54
314	15	100	98	116	118
315	15	19	22	23	25
316	16	97	98	100	103
316	17	97	98	100	103
316	18	97	98	100	103
317	14	78	81	86	87
318	19	43	41	44	46
319	15	72	70	69	78
320	15	70	69	78	79
321	5	15	14	13	18
321	6	15	14	13	18
322	15	27	22	31	33
323	15	97	98	116	118
324	19	112	106	113	115
325	15	68	66	69	78
326	15	23	22	27	29
327	15	10	5	31	32
328	14	37	38	39	41
329	15	28	27	22	31
330	15	4	5	10	12
331	7	1	61	63	95
331	8	1	61	63	95
332	16	44	41	39	56
332	17	44	41	39	56
332	18	44	41	39	56
333	15	98	100	103	104
334	16	48	47	53	56
334	17	48	47	53	56
334	18	48	47	53	56
335	19	65	64	66	67
336	15	67	66	69	74
337	15	78	81	82	85
338	35	109	108	107	111
339	15	100	98	97	119
340	19	114	113	116	117
341	14	11	10	13	14
342	13	2	1	61	63
343	15	71	70	69	74
344	19	102	100	103	104
345	5	92	64	63	95
345	6	92	64	63	95
346	15	101	100	103	106
347	15	103	106	113	115
348	15	101	100	98	116
349	15	77	74	69	78
350	15	85	82	81	92
351	15	78	81	86	90
352	15	19	22	31	32
353	15	31	5	4	35
354	15	107	106	113	115
355	15	75	74	69	78
356	19	46	44	47	52
357	16	64	92	81	78
357	17	64	92	81	78
357	18	64	92	81	78
358	16	5	31	22	19
358	17	5	31	22	19
358	18	5	31	22	19
359	15	66	69	74	76
360	15	40	39	41	44
361	15	78	81	86	91
362	15	103	106	107	110
363	19	40	39	41	42
364	15	6	5	31	32
365	15	80	78	81	82
366	15	80	78	81	86
367	32	86	87	88	89
368	15	97	98	100	101
369	15	47	53	56	58
370	19	65	64	92	94
371	16	64	66	69	74
371	17	64	66	69	74
371	18	64	66	69	74
372	19	99	98	116	118
373	15	56	39	38	59
374	15	48	47	53	55
375	31	88	87	86	90
376	1	10	13	14	15
376	2	10	13	14	15
376	3	10	13	14	15
376	4	10	13	14	15
377	15	10	5	4	35

Impropers

174	1	3	36	1	4
218	1	63	61	64	95
317	3	15	14	16	37
431	1	63	95	61	64
436	1	14	15	17	13
507	3	15	37	14	16
511	1	63	64	95	61
536	1	14	17	13	15
551	1	3	4	36	1
562	2	61	63	1	62
566	2	61	62	63	1
647	2	1	3	61	2
670	3	15	16	37	14
676	2	1	61	2	3
737	2	61	1	62	63
759	1	14	13	15	17
796	2	1	2	3	61
828	1	3	1	4	36
