Title

12500 atoms
12625 bonds
24000 angles
49750 dihedrals
2250 impropers

11 atom types
14 bond types
9 angle types
35 dihedral types
3 improper types
-9.381506428 100.0293717 xlo xhi
-9.310247353 99.35203972 ylo yhi
-8.490861485 99.67862275 zlo zhi
0.0 0.0 0.0 xy xz yz

Masses

1	12.01078
2	15.99943
3	14.00672
4	12.01078
5	1.007947
6	1.007947
7	1.007947
8	15.99943
9	12.01078
10	15.99943
11	1.007947


Pair Coeffs

1	0.086879315	3.4806469
2	0.2102061	3.0398122
3	0.16769152	3.206876
4	0.10884061	3.3795318
5	0.015779483	2.6445434
6	0.014090815	1.1034277
7	0.016409246	2.5832257
8	0.16846514	3.0251065
9	0.21	3.3996695
10	0.20947353	2.99716
11	1.2326e-05	0.53453923

Bond Coeffs

1 harmonic	582.698766451	1.225198386222
2 harmonic	492.76746816345	1.381897776683
3 harmonic	279.1350963404	1.454628925034
4 harmonic	352.0565580496	1.450098586273
5 harmonic	505.144496193	1.019481865027
6 harmonic	264.62148576755	1.52190126495
7 harmonic	370.04670688625	1.093899492634
8 harmonic	301.15400723785	1.345741232799
9 harmonic	366.7408841747	1.425895053732
10 harmonic	300.03137914615	1.451203938761
11 harmonic	366.34047229585	1.464762957261
12 harmonic	602.81384337	1.196112346392
13 harmonic	329.96998057905	1.427343958716
14 harmonic	543.5267831885	0.9716763312559


Angle Coeffs

1 harmonic	55.42182150775	117.3465570514
2 harmonic	63.44422595415	115.5071327674
3 harmonic	57.8982893754	126.8062420451
4 harmonic	53.20531626545	116.5475862634
5 harmonic	48.776492647595	115.6030999533
6 harmonic	65.09061609600001	110.3538806181
7 harmonic	201.41175231035	127.4691416191
8 harmonic	55.07882548015	112.8714009681
9 harmonic	33.56981613361	180


Dihedral Coeffs

1 fourier 1	-0.1488678166443	4	180
2 fourier 1	-0.1230328948768	3	180
3 fourier 1	0.2939295466901	2	0
4 fourier 1	-0.3024127022865	1	0
5 fourier 1	0.182238503271	2	0
6 fourier 1	0.02972342374561	3	0
7 fourier 1	1.809047390003	2	180
8 fourier 1	-0.04816277792592	1	0
9 fourier 1	3.101948770557	2	180
10 fourier 1	-0.4252153282372	1	0
11 fourier 1	2.348375642009	2	180
12 fourier 1	1.256156174911	1	0
13 fourier 1	0.9974165607242	2	180
14 fourier 1	0.1155372516788	3	0
15 fourier 1	0.1040663847541	3	0
16 fourier 1	0.09223874044423	3	0
17 fourier 1	0.3159935921949	2	180
18 fourier 1	0.3247796806857	1	180
19 fourier 1	0.1911926717192	3	0
20 fourier 1	2.779853741805	2	180
21 fourier 1	0.1918272375143	3	0
22 fourier 1	0.9202179876409	1	180
23 fourier 1	0.0473758381877	3	0
24 fourier 1	0.4860993122944	2	180
25 fourier 1	0.8916986138746	1	0
26 fourier 1	1.163809172478	2	180
27 fourier 1	0.1679186987369	1	180
28 fourier 1	0.1115525666802	3	0
29 fourier 1	0.3432490222662	1	0
30 fourier 1	0.457973137376	1	0
31 fourier 1	-1.382973039546	1	0
32 fourier 1	0	1	0
33 fourier 1	0.3445382149273	3	0
34 fourier 1	0.1364556373303	1	0
35 fourier 1	0.3026390167484	3	0


Improper Coeffs

1 0.3333333333333333	-1	2
2 0.3666666666666667	-1	2
3 3.5	-1	2


Atoms

1	6	1	0.54351581	2.2644342	-1.5609733	-1.4321458
2	6	2	-0.68667119	3.1872184	-1.7377681	-2.2707316
3	6	3	-0.48949879	2.4667978	-0.73656387	-0.28107147
4	6	4	-0.00013899297	3.7483278	-0.060660781	-0.044532259
5	6	4	-0.0081932722	3.8064371	0.7301601	1.3024491
6	6	4	-0.16983072	3.524914	-0.26376433	2.4618804
7	6	5	0.073144045	4.2392653	-1.1145415	2.4283943
8	6	5	0.073144045	3.6316561	0.2342351	3.4504367
9	6	5	0.073144045	2.494542	-0.66943131	2.4221204
10	6	4	-0.20493565	2.75461	1.8716674	1.3669697
11	6	5	0.11213866	1.743111	1.4920545	1.1123354
12	6	5	0.11213866	2.6925124	2.250843	2.4127626
13	6	4	0.12822937	3.0872371	3.0586113	0.44690814
14	6	3	-0.51711827	2.0482991	4.0885996	0.56384425
15	6	1	0.80955381	1.8757196	5.1216877	-0.41233053
16	6	2	-0.60475057	2.6107581	5.1771969	-1.4340458
17	6	6	0.31592223	1.3781238	4.0663033	1.3659265
18	6	7	0.046973851	3.0972593	2.702378	-0.60365997
19	6	4	-0.20854072	4.4519153	3.6575617	0.830572
20	6	5	0.11367786	4.3697106	4.0674003	1.86308
21	6	5	0.11367786	4.6832189	4.5168711	0.16155254
22	6	4	-0.02792982	5.6128304	2.630976	0.76976968
23	6	4	-0.17158815	6.8429963	3.2543371	1.4746368
24	6	5	0.076198179	7.7080665	2.5574751	1.4385149
25	6	5	0.076198179	6.6241964	3.4813414	2.5403618
26	6	5	0.076198179	7.1411527	4.2072218	0.98454855
27	6	4	-0.17158815	6.0282762	2.358324	-0.69984718
28	6	5	0.076198179	5.1663841	2.2715619	-1.384028
29	6	5	0.076198179	6.645681	1.4374846	-0.77518592
30	6	5	0.076198179	6.6299086	3.2016654	-1.1029897
31	6	4	-0.2107812	5.2374928	1.3192806	1.5348833
32	6	5	0.11386639	5.3275198	1.5438581	2.622813
33	6	5	0.11386639	6.0035599	0.53660169	1.3374701
34	6	7	0.070262182	4.5548663	-0.82565855	-0.048011296
35	6	7	0.070262182	3.9332334	0.6008339	-0.90351637
36	6	6	0.31665901	1.6568617	-0.62088901	0.36404939
37	7	8	-0.49803665	1.132073	5.8326196	-0.28121731
38	7	4	0.11702533	0.19411022	5.2759358	0.59941371
39	7	4	-0.13630794	-0.69992878	4.2767931	-0.14445268
40	7	4	-0.14351558	-1.636687	3.4932913	0.79074141
41	7	4	0.035309184	-2.7604101	4.3488203	1.3869691
42	7	8	-0.16509339	-2.2721088	5.1223659	2.4479409
43	7	7	0.087562147	-3.5568484	3.6722278	1.7685824
44	7	7	0.087562147	-3.2045243	5.0037249	0.6040614
45	7	5	0.095597539	-2.1056722	2.6795747	0.19539947
46	7	5	0.095597539	-1.0527155	3.0086734	1.6039374
47	7	5	0.094489518	-0.049426274	3.5429401	-0.66954534
48	7	5	0.094489518	-1.2926871	4.8098124	-0.91995121
49	7	7	0.087532293	0.71321688	4.777798	1.4504484
50	7	7	0.087532293	-0.4255588	6.1011345	1.0063994
51	4	1	0.55617899	1.3062921	-2.0390347	-1.5869357
52	4	2	-0.67607784	0.27669709	-1.327869	-1.7315677
53	4	3	-0.56821239	1.2249716	-3.4682711	-1.6175356
54	4	4	0.12605285	-0.039652887	-4.1821148	-1.8349774
55	4	7	0.044835903	-0.81630299	-3.6890983	-1.2177729
56	4	4	-0.20964986	-0.41996448	-4.1141476	-3.3255402
57	4	5	0.11367787	-0.53032613	-3.0508037	-3.6324052
58	4	5	0.11367787	0.42697485	-4.5333892	-3.9150555
59	4	4	-0.028464269	-1.7213005	-4.8865453	-3.6664514
60	4	4	-0.17158813	-1.8281366	-4.9918138	-5.2065977
61	4	5	0.076198194	-2.7553043	-5.5314434	-5.4986609
62	4	5	0.076198194	-1.8493932	-3.9833705	-5.674025
63	4	5	0.076198194	-0.96060507	-5.5412499	-5.6334619
64	4	4	-0.17158813	-2.9706586	-4.1093479	-3.1817584
65	4	5	0.076198194	-2.8794843	-3.7476232	-2.1458224
66	4	5	0.076198194	-3.1301434	-3.2013881	-3.8022741
67	4	5	0.076198194	-3.8818578	-4.7401172	-3.2613774
68	4	4	-0.20946641	-1.6704784	-6.3353118	-3.0883791
69	4	5	0.11255242	-0.96712151	-6.9154408	-3.7285732
70	4	5	0.11255242	-2.656324	-6.8298755	-3.2247247
71	4	4	0.024624221	-1.1780359	-6.4948966	-1.6118839
72	4	4	-0.16836743	-0.80580551	-7.9831204	-1.3899644
73	4	5	0.069715697	-0.4400582	-8.1498486	-0.35348542
74	4	5	0.069715697	-1.685995	-8.6405338	-1.5607014
75	4	5	0.069715697	-0.0013378604	-8.304018	-2.0867065
76	4	4	0.14346865	-2.2635166	-6.1281786	-0.55681486
77	4	3	-0.62514054	-3.5228337	-6.8134757	-0.82900993
78	4	9	0.60071731	-4.5359407	-6.6573344	-0.075496033
79	4	2	-0.46416175	-5.5212195	-6.5053336	0.657882
80	4	7	0.068963546	-2.4439672	-5.0423652	-0.50340133
81	4	7	0.068963546	-1.9063973	-6.4199419	0.45719743
82	4	4	-0.206017	0.10393141	-5.648328	-1.3871387
83	4	5	0.11201524	0.94889246	-6.1019483	-1.9533475
84	4	5	0.11201524	0.38650209	-5.6727624	-0.31087113
85	4	6	0.31287483	2.1048479	-4.0041112	-1.4414838
86	5	8	-0.16509339	-3.0402404	5.6599572	2.7736501
87	5	4	0.035421368	-3.8645341	4.7875902	3.4974613
88	5	4	-0.1377775	-4.6947435	3.9275747	2.5366285
89	5	4	-0.16482862	-5.4907747	2.823347	3.2520231
90	5	4	0.088884544	-6.6586487	3.35742	4.0901759
91	5	10	-0.67944634	-6.1907203	3.8707362	5.3056263
92	5	11	0.38583291	-6.9885772	4.213156	5.7857325
93	5	7	0.078948203	-7.359485	2.5178327	4.2971412
94	5	7	0.078948203	-7.2115032	4.14176	3.5257357
95	5	5	0.098061476	-5.9101426	2.1500751	2.4722458
96	5	5	0.098061476	-4.8156744	2.2093936	3.8862082
97	5	5	0.095773015	-4.0042156	3.4384625	1.8145969
98	5	5	0.095773015	-5.3824713	4.5768498	1.9522722
99	5	7	0.087562147	-3.2489478	4.1429909	4.1666452
100	5	7	0.087562147	-4.5399708	5.39939	4.1292043
101	6	1	0.54351581	2.8915484	0.050904659	18.887765
102	6	2	-0.68667119	4.0937794	0.42047121	18.823937
103	6	3	-0.48949879	2.4498761	-0.83501222	19.920069
104	6	4	-0.00013899297	3.3764711	-1.3325897	20.944253
105	6	4	-0.0081932722	2.7309268	-2.3503479	21.939529
106	6	4	-0.16983072	2.1765184	-3.5467933	21.119424
107	6	5	0.073144045	2.9793378	-3.9990863	20.498012
108	6	5	0.073144045	1.7746153	-4.3385918	21.788879
109	6	5	0.073144045	1.3448544	-3.2450346	20.452274
110	6	4	-0.20493565	1.5622875	-1.7272303	22.751655
111	6	5	0.11213866	0.83171059	-1.2332743	22.077608
112	6	5	0.11213866	1.007036	-2.5403654	23.273019
113	6	4	0.12822937	2.0290736	-0.712604	23.80931
114	6	3	-0.51711827	0.87006798	-0.17035538	24.528069
115	6	1	0.80955381	0.93622201	1.0368242	25.295085
116	6	2	-0.60475057	2.005282	1.6992064	25.370089
117	6	6	0.31592223	-0.056138339	-0.6510449	24.464449
118	6	7	0.046973851	2.5357228	0.12968036	23.294956
119	6	4	-0.20854072	2.9827411	-1.3920907	24.80786
120	6	5	0.11367786	2.4095837	-2.1780044	25.350657
121	6	5	0.11367786	3.3133981	-0.65147761	25.570526
122	6	4	-0.02792982	4.2268555	-2.0277903	24.134537
123	6	4	-0.17158815	4.9232381	-2.9394522	25.175041
124	6	5	0.076198179	5.834414	-3.4034559	24.739464
125	6	5	0.076198179	4.2468248	-3.753722	25.513573
126	6	5	0.076198179	5.2229863	-2.3584543	26.074855
127	6	4	-0.17158815	5.2540052	-0.93546171	23.736429
128	6	5	0.076198179	4.7826693	-0.034464893	23.306852
129	6	5	0.076198179	5.9999976	-1.3336639	23.015499
130	6	5	0.076198179	5.8082529	-0.57085503	24.628383
131	6	4	-0.2107812	3.8081547	-2.9211864	22.920718
132	6	5	0.11386639	3.3987744	-3.8677134	23.343359
133	6	5	0.11386639	4.7128567	-3.2276764	22.349758
134	6	7	0.070262182	4.2339757	-1.8225238	20.43397
135	6	7	0.070262182	3.7793733	-0.45730763	21.474508
136	6	6	0.31665901	1.4392762	-1.0884616	19.923125
137	7	8	-0.49803665	0.091697631	1.3756296	25.792693
138	7	4	0.11702533	-1.0112507	0.78106984	25.164056
139	7	4	-0.13630794	-1.3246239	1.5071527	23.850461
140	7	4	-0.14351558	-2.4087904	0.80371168	23.016355
141	7	4	0.035309184	-3.8107419	0.90210449	23.628746
142	7	8	-0.16509339	-3.950778	-0.020080353	24.673943
143	7	7	0.087562147	-4.5596548	0.67109998	22.839134
144	7	7	0.087562147	-3.9998499	1.9352469	23.997442
145	7	5	0.095597539	-2.4369294	1.2919002	22.017659
146	7	5	0.095597539	-2.1375476	-0.26235161	22.85173
147	7	5	0.094489518	-0.39628205	1.5483881	23.23899
148	7	5	0.094489518	-1.6278962	2.5554087	24.065066
149	7	7	0.087532293	-0.81118017	-0.29891663	24.97571
150	7	7	0.087532293	-1.879434	0.85832792	25.850255
151	4	1	0.55617899	2.184809	0.41036535	18.151663
152	4	2	-0.67607784	1.1989207	1.0993293	18.525954
153	4	3	-0.56821239	2.3785959	0.091316219	16.769303
154	4	4	0.12605285	1.4659362	0.55571859	15.716919
155	4	7	0.044835903	0.42961069	0.4144202	16.081962
156	4	4	-0.20964986	1.7306555	2.0443261	15.425362
157	4	5	0.11367787	1.5702123	2.63834	16.351889
158	4	5	0.11367787	2.8052008	2.1548241	15.15381
159	4	4	-0.028464269	0.8466676	2.6170424	14.286566
160	4	4	-0.17158813	1.4068643	4.005473	13.895432
161	4	5	0.076198194	0.79548431	4.4603063	13.085813
162	4	5	0.076198194	1.4021388	4.696405	14.766345
163	4	5	0.076198194	2.4556512	3.9288128	13.533668
164	4	4	-0.17158813	-0.60744559	2.8400546	14.772035
165	4	5	0.076198194	-1.0186494	1.975679	15.316174
166	4	5	0.076198194	-0.6544614	3.6915019	15.48456
167	4	5	0.076198194	-1.2762384	3.0751397	13.916497
168	4	4	-0.20946641	0.91021584	1.7006628	13.024867
169	4	5	0.11255242	1.9060633	1.8661381	12.553683
170	4	5	0.11255242	0.17403935	2.0493135	12.26885
171	4	4	0.024624221	0.76771393	0.15996572	13.25714
172	4	4	-0.16836743	1.2725712	-0.56457301	11.983258
173	4	5	0.069715697	1.2001622	-1.667765	12.099801
174	4	5	0.069715697	0.67388165	-0.26622367	11.095206
175	4	5	0.069715697	2.3360712	-0.3169438	11.775314
176	4	4	0.14346865	-0.70305062	-0.29439405	13.494479
177	4	3	-0.62514054	-1.5933964	0.22456388	12.461247
178	4	9	0.60071731	-2.8374389	-0.041662215	12.466813
179	4	2	-0.46416175	-4.0475686	-0.30103896	12.472462
180	4	7	0.068963546	-1.0790628	0.0086729223	14.48502
181	4	7	0.068963546	-0.75167435	-1.4072507	13.486308
182	4	4	-0.206017	1.6692761	-0.28234215	14.441276
183	4	5	0.11201524	2.7385205	-0.20101315	14.140569
184	4	5	0.11201524	1.4808722	-1.3536002	14.677296
185	4	6	0.31287483	3.1866628	-0.52546212	16.526582
186	5	8	-0.16509339	-4.8668653	0.10796308	25.033812
187	5	4	0.035421368	-5.7474074	-0.47049292	24.109463
188	5	4	-0.1377775	-5.938757	0.46312389	22.907873
189	5	4	-0.16482862	-6.7494144	-0.17900464	21.769769
190	5	4	0.088884544	-8.2337662	-0.3655363	22.10677
191	5	10	-0.67944634	-8.4096763	-1.4869408	22.926085
192	5	11	0.38583291	-9.3815064	-1.5375515	23.119253
193	5	7	0.078948203	-8.796143	-0.51780163	21.158371
194	5	7	0.078948203	-8.6333056	0.5456058	22.606388
195	5	5	0.098061476	-6.6819085	0.49311297	20.886074
196	5	5	0.098061476	-6.2998019	-1.1519566	21.476336
197	5	5	0.095773015	-4.9366824	0.73036891	22.50561
198	5	5	0.095773015	-6.4265234	1.405369	23.239924
199	5	7	0.087562147	-5.3599738	-1.4612683	23.777015
200	5	7	0.087562147	-6.7204501	-0.63018545	24.61671
201	6	1	0.54351581	-1.1101535	2.6377132	41.207005
202	6	2	-0.68667119	-1.5138809	3.8303919	41.183879
203	6	3	-0.48949879	-1.9318201	1.5750828	40.715829
204	6	4	-0.00013899297	-3.2642323	1.838274	40.158583
205	6	4	-0.0081932722	-4.0432872	0.54723472	39.746971
206	6	4	-0.16983072	-4.1774883	-0.35958115	41.000405
207	6	5	0.073144045	-4.6653993	0.19373444	41.831685
208	6	5	0.073144045	-4.7934986	-1.2586845	40.779531
209	6	5	0.073144045	-3.1947422	-0.72916681	41.354565
210	6	4	-0.20493565	-3.3155184	-0.25636901	38.634264
211	6	5	0.11213866	-2.2554974	-0.43953744	38.907906
212	6	5	0.11213866	-3.7918096	-1.2590128	38.53853
213	6	4	0.12822937	-3.3632706	0.42909889	37.258095
214	6	3	-0.51711827	-2.6543309	-0.3888711	36.266999
215	6	1	0.80955381	-2.2101763	0.13682731	35.011475
216	6	2	-0.60475057	-2.3997039	1.3457118	34.711571
217	6	6	0.31592223	-2.4268211	-1.386906	36.479445
218	6	7	0.046973851	-2.842412	1.4060145	37.329074
219	6	4	-0.20854072	-4.824351	0.62325392	36.815563
220	6	5	0.11367786	-5.2814247	-0.38429727	36.686249
221	6	5	0.11367786	-4.8492391	1.1174687	35.81825
222	6	4	-0.02792982	-5.6664755	1.4508236	37.821175
223	6	4	-0.17158815	-7.1589445	1.3019141	37.435056
224	6	5	0.076198179	-7.8006072	1.8960169	38.121044
225	6	5	0.076198179	-7.484344	0.24051741	37.48727
226	6	5	0.076198179	-7.3375976	1.6553085	36.395697
227	6	4	-0.17158815	-5.3235855	2.9599531	37.713181
228	6	5	0.076198179	-4.2426227	3.1506638	37.5964
229	6	5	0.076198179	-5.69704	3.5178682	38.598659
230	6	5	0.076198179	-5.7923676	3.4076877	36.810137
231	6	4	-0.2107812	-5.492509	0.90400448	39.276354
232	6	5	0.11386639	-6.0989875	-0.028535161	39.344798
233	6	5	0.11386639	-5.9613124	1.6068908	40.00064
234	6	7	0.070262182	-3.859334	2.39141	40.917287
235	6	7	0.070262182	-3.1330569	2.5150288	39.301602
236	6	6	0.31665901	-1.53036	0.6142616	40.750617
237	7	8	-0.49803665	-1.7204356	-0.48335313	34.339794
238	7	4	0.11702533	-1.2151392	-1.5602979	35.081446
239	7	4	-0.13630794	0.054724652	-1.1365453	35.828981
240	7	4	-0.14351558	0.56735602	-2.2102961	36.803787
241	7	4	0.035309184	1.1584623	-3.4392483	36.103472
242	7	8	-0.16509339	0.1339649	-4.2777705	35.645479
243	7	7	0.087562147	1.7837869	-3.9976244	36.834845
244	7	7	0.087562147	1.8086909	-3.1257957	35.256104
245	7	5	0.095597539	1.3691116	-1.7505538	37.422123
246	7	5	0.095597539	-0.24444251	-2.5197338	37.498335
247	7	5	0.094489518	-0.17074232	-0.22016872	36.417907
248	7	5	0.094489518	0.85002477	-0.87389133	35.097284
249	7	7	0.087532293	-1.985167	-1.9299724	35.797177
250	7	7	0.087532293	-0.97644665	-2.381129	34.374451
251	4	1	0.55617899	-0.12798883	2.4162375	41.603036
252	4	2	-0.67607784	0.73829586	1.8945833	40.851924
253	4	3	-0.56821239	0.16653783	2.7129487	42.972518
254	4	4	0.12605285	1.4809685	2.4497621	43.571796
255	4	7	0.044835903	1.8106485	1.4469038	43.235971
256	4	4	-0.20964986	2.4826974	3.5235783	43.108663
257	4	5	0.11367787	2.5635273	3.5021835	41.999585
258	4	5	0.11367787	2.0678771	4.5203895	43.382323
259	4	4	-0.028464269	3.8940751	3.360752	43.731395
260	4	4	-0.17158813	4.7034141	4.6447071	43.429773
261	4	5	0.076198194	5.7297714	4.5682768	43.850356
262	4	5	0.076198194	4.786972	4.8144716	42.334284
263	4	5	0.076198194	4.2156229	5.5409543	43.871932
264	4	4	-0.17158813	4.657728	2.1838753	43.074391
265	4	5	0.076198194	4.0538034	1.2664869	42.996965
266	4	5	0.076198194	4.9470269	2.4399078	42.03246
267	4	5	0.076198194	5.5868279	1.953801	43.6386
268	4	4	-0.20946641	3.7986885	3.2061474	45.281451
269	4	5	0.11255242	3.556604	4.2125041	45.693459
270	4	5	0.11255242	4.7992254	2.9593219	45.697478
271	4	4	0.024624221	2.7182418	2.2176142	45.832307
272	4	4	-0.16836743	2.5081215	2.5282184	47.336298
273	4	5	0.069715697	1.7400439	1.8556887	47.776319
274	4	5	0.069715697	3.4552923	2.3963243	47.90335
275	4	5	0.069715697	2.1649643	3.5748389	47.486036
276	4	4	0.14346865	3.138721	0.72181556	45.724118
277	4	3	-0.62514054	4.4691985	0.5016257	46.281745
278	4	9	0.60071731	4.9939768	-0.65717189	46.300317
279	4	2	-0.46416175	5.5040634	-1.7846502	46.318381
280	4	7	0.068963546	3.1140814	0.35520392	44.685179
281	4	7	0.068963546	2.406735	0.091381104	46.278762
282	4	4	-0.206017	1.3658295	2.4541141	45.10727
283	4	5	0.11201524	0.94718476	3.4375692	45.420121
284	4	5	0.11201524	0.63192214	1.6772234	45.418101
285	4	6	0.31287483	-0.60814158	3.098493	43.558631
286	5	8	-0.16509339	0.5821344	-5.037882	35.191066
287	5	4	0.035421368	1.1050406	-5.8586868	36.199647
288	5	4	-0.1377775	2.3970822	-5.2497784	36.758157
289	5	4	-0.16482862	2.9329148	-5.9997417	37.989096
290	5	4	0.088884544	3.4998922	-7.3862576	37.660806
291	5	10	-0.67944634	2.4611618	-8.3097622	37.493629
292	5	11	0.38583291	2.8938314	-9.1733304	37.266966
293	5	7	0.078948203	4.1444584	-7.714975	38.506615
294	5	7	0.078948203	4.127416	-7.338794	36.742443
295	5	5	0.098061476	3.7543557	-5.3896199	38.425219
296	5	5	0.098061476	2.1413453	-6.0852237	38.764339
297	5	5	0.095773015	2.1901479	-4.1995226	37.060696
298	5	5	0.095773015	3.1719277	-5.2204151	35.961443
299	5	7	0.087562147	0.35433771	-5.9957272	37.012006
300	5	7	0.087562147	1.3218003	-6.8513879	35.755605
301	6	1	0.54351581	1.2520337	2.3358904	61.629448
302	6	2	-0.68667119	2.1723599	2.9677003	62.212397
303	6	3	-0.48949879	1.1770534	2.2995766	60.201641
304	6	4	-0.00013899297	2.1734991	2.9847171	59.369299
305	6	4	-0.0081932722	1.882182	2.8995537	57.835997
306	6	4	-0.16983072	0.47993417	3.5127542	57.573113
307	6	5	0.073144045	0.4282796	4.5509707	57.966406
308	6	5	0.073144045	0.25630192	3.5475406	56.484344
309	6	5	0.073144045	-0.32922992	2.9192441	58.04302
310	6	4	-0.20493565	1.8858126	1.4374124	57.310953
311	6	5	0.11213866	1.2266205	0.79351813	57.929775
312	6	5	0.11213866	1.4628156	1.4195857	56.280386
313	6	4	0.12822937	3.2900726	0.81156479	57.262385
314	6	3	-0.51711827	3.2071164	-0.56491109	56.760017
315	6	1	0.80955381	4.2615581	-1.5158902	56.943765
316	6	2	-0.60475057	5.3112642	-1.2070135	57.568246
317	6	6	0.31592223	2.3410056	-0.89301738	56.275077
318	6	7	0.046973851	3.6986361	0.77414066	58.293099
319	6	4	-0.20854072	4.2059378	1.640568	56.344654
320	6	5	0.11367786	3.7964535	1.5863688	55.310158
321	6	5	0.11367786	5.2187295	1.1792763	56.313609
322	6	4	-0.02792982	4.3294513	3.12467	56.777649
323	6	4	-0.17158815	4.9954993	3.9091409	55.620191
324	6	5	0.076198179	5.1212152	4.978625	55.895268
325	6	5	0.076198179	4.3826588	3.8584007	54.694434
326	6	5	0.076198179	5.9974558	3.4897458	55.380892
327	6	4	-0.17158815	5.263878	3.2616016	58.008423
328	6	5	0.076198179	5.1074305	2.4690071	58.760625
329	6	5	0.076198179	5.1398426	4.2530741	58.494641
330	6	5	0.076198179	6.3296376	3.1644115	57.707723
331	6	4	-0.2107812	2.9183923	3.7509879	57.029563
332	6	5	0.11386639	2.4711594	3.9507895	56.028467
333	6	5	0.11386639	3.0304786	4.7529346	57.500685
334	6	7	0.070262182	2.2072895	4.0542311	59.670523
335	6	7	0.070262182	3.1557473	2.5541252	59.613016
336	6	6	0.31665901	0.39916254	1.7460188	59.784487
337	7	8	-0.49803665	4.1597457	-2.4750876	56.562714
338	7	4	0.11702533	2.7865095	-2.6936084	56.384801
339	7	4	-0.13630794	2.1236213	-3.0089261	57.730937
340	7	4	-0.14351558	0.58976542	-3.0852089	57.644646
341	7	4	0.035309184	0.080843803	-4.31713	56.887322
342	7	8	-0.16509339	0.1952691	-4.1199649	55.505112
343	7	7	0.087562147	-0.99047635	-4.4733169	57.143445
344	7	7	0.087562147	0.64913925	-5.2229654	57.196489
345	7	5	0.095597539	0.19473475	-3.1348532	58.682914
346	7	5	0.095597539	0.18287535	-2.1582136	57.183902
347	7	5	0.094489518	2.3855701	-2.2029843	58.451532
348	7	5	0.094489518	2.5313298	-3.9614071	58.135194
349	7	7	0.087532293	2.3122648	-1.8012944	55.91497
350	7	7	0.087532293	2.6629907	-3.5547042	55.696443
351	4	1	0.55617899	0.50991229	1.8133802	62.218327
352	4	2	-0.67607784	0.40095628	0.56332396	62.107743
353	4	3	-0.56821239	-0.33776891	2.5513656	63.105502
354	4	4	0.12605285	-1.3571131	1.9055573	63.942161
355	4	7	0.044835903	-1.8835381	1.1580271	63.316648
356	4	4	-0.20964986	-0.67898228	1.2160844	65.14041
357	4	5	0.11367787	0.042534182	0.45453386	64.77095
358	4	5	0.11367787	-0.085394819	1.9838681	65.686999
359	4	4	-0.028464269	-1.6819216	0.54539912	66.115391
360	4	4	-0.17158813	-0.91507528	0.15839366	67.402527
361	4	5	0.076198194	-1.5951356	-0.33706754	68.129285
362	4	5	0.076198194	-0.080387109	-0.5394434	67.174016
363	4	5	0.076198194	-0.47792944	1.0544306	67.895199
364	4	4	-0.17158813	-2.2444257	-0.76763295	65.515895
365	4	5	0.076198194	-2.5824748	-0.65682401	64.473895
366	4	5	0.076198194	-1.4593371	-1.5537561	65.493262
367	4	5	0.076198194	-3.0900186	-1.1488999	66.127533
368	4	4	-0.20946641	-2.8152948	1.5419809	66.512839
369	4	5	0.11255242	-2.3681284	2.2755435	67.22209
370	4	5	0.11255242	-3.5936417	1.0112711	67.102413
371	4	4	0.024624221	-3.4724492	2.368604	65.358349
372	4	4	-0.16836743	-4.2356142	3.5576503	65.995814
373	4	5	0.069715697	-4.7165552	4.1847527	65.21396
374	4	5	0.069715697	-5.0257879	3.194537	66.688527
375	4	5	0.069715697	-3.5485565	4.2109712	66.576087
376	4	4	0.14346865	-4.503808	1.551635	64.524813
377	4	3	-0.62514054	-5.4721084	0.88097469	65.38633
378	4	9	0.60071731	-6.407725	0.16950635	64.89952
379	4	2	-0.46416175	-7.3178814	-0.52237122	64.425555
380	4	7	0.068963546	-4.0182713	0.80673031	63.873831
381	4	7	0.068963546	-5.048362	2.2374491	63.836336
382	4	4	-0.206017	-2.3712612	2.9546633	64.433931
383	4	5	0.11201524	-1.8119591	3.7458355	64.983067
384	4	5	0.11201524	-2.8421675	3.4448366	63.552584
385	4	6	0.31287483	-0.23378571	3.5912554	63.11635
386	5	8	-0.16509339	-0.13237087	-4.9545679	55.079428
387	5	4	0.035421368	-1.5295483	-4.9414028	55.189468
388	5	4	-0.1377775	-1.9503645	-5.3361216	56.610449
389	5	4	-0.16482862	-3.4589277	-5.1713018	56.859136
390	5	4	0.088884544	-4.3172276	-6.1991492	56.111798
391	5	10	-0.67944634	-4.4528007	-5.8343691	54.767058
392	5	11	0.38583291	-4.9986029	-6.545608	54.342125
393	5	7	0.078948203	-5.3253258	-6.2285865	56.582738
394	5	7	0.078948203	-3.8643132	-7.2128005	56.194318
395	5	5	0.098061476	-3.6381914	-5.3046687	57.948767
396	5	5	0.098061476	-3.7834168	-4.1411787	56.59752
397	5	5	0.095773015	-1.4113219	-4.6834858	57.332175
398	5	5	0.095773015	-1.641784	-6.3845035	56.814589
399	5	7	0.087562147	-1.9264385	-3.9327032	54.930113
400	5	7	0.087562147	-1.9374519	-5.6728347	54.46267
401	6	1	0.54351581	-2.8818601	-1.1411763	79.937126
402	6	2	-0.68667119	-3.7944077	-1.9795302	80.161698
403	6	3	-0.48949879	-2.3895235	-0.29522824	80.979983
404	6	4	-0.00013899297	-2.9202959	-0.38304657	82.345883
405	6	4	-0.0081932722	-2.3168032	0.67314004	83.327412
406	6	4	-0.16983072	-2.6001984	2.0877866	82.753056
407	6	5	0.073144045	-3.6893744	2.2284056	82.582285
408	6	5	0.073144045	-2.2585079	2.8801242	83.454547
409	6	5	0.073144045	-2.069847	2.2629658	81.796054
410	6	4	-0.20493565	-0.78160283	0.51207602	83.502798
411	6	5	0.11213866	-0.2730217	0.47301235	82.516951
412	6	5	0.11213866	-0.37901851	1.4087754	84.027363
413	6	4	0.12822937	-0.3891235	-0.73362063	84.315318
414	6	3	-0.51711827	1.0715619	-0.81433392	84.432901
415	6	1	0.80955381	1.7484787	-2.0218326	84.798554
416	6	2	-0.60475057	1.106483	-3.0827788	85.02104
417	6	6	0.31592223	1.6604812	0.021413112	84.214568
418	6	7	0.046973851	-0.73777872	-1.6363998	83.772985
419	6	4	-0.20854072	-1.0160533	-0.66718724	85.719182
420	6	5	0.11367786	-0.58014278	0.21007547	86.249455
421	6	5	0.11367786	-0.72493598	-1.5709152	86.300583
422	6	4	-0.02792982	-2.5620151	-0.54550509	85.696944
423	6	4	-0.17158815	-3.0348066	-0.16659652	87.122293
424	6	5	0.076198179	-4.1427803	-0.086430822	87.157447
425	6	5	0.076198179	-2.6058205	0.80714067	87.443199
426	6	5	0.076198179	-2.7161569	-0.9324179	87.863274
427	6	4	-0.17158815	-3.215373	-1.9105528	85.355658
428	6	5	0.076198179	-2.6841693	-2.4567087	84.556893
429	6	5	0.076198179	-4.2789957	-1.7807989	85.061242
430	6	5	0.076198179	-3.1892205	-2.5913593	86.234025
431	6	4	-0.2107812	-3.0175926	0.59169184	84.72429
432	6	5	0.11386639	-2.8247301	1.5578352	85.245349
433	6	5	0.11386639	-4.1215743	0.55165861	84.589982
434	6	7	0.070262182	-4.0227571	-0.24686096	82.3038
435	6	7	0.070262182	-2.7394454	-1.407666	82.702347
436	6	6	0.31665901	-1.6235535	0.36501513	80.729131
437	7	8	-0.49803665	2.782628	-2.0269109	84.876877
438	7	4	0.11702533	3.2483631	-0.9394252	84.124781
439	7	4	-0.13630794	3.2215857	-1.2812937	82.630346
440	7	4	-0.14351558	3.5492136	-0.077665747	81.730391
441	7	4	0.035309184	5.017767	0.3565003	81.801257
442	7	8	-0.16509339	5.2485613	1.103563	82.963627
443	7	7	0.087562147	5.2440448	0.9881649	80.913835
444	7	7	0.087562147	5.685672	-0.53362065	81.77538
445	7	5	0.095597539	3.3296615	-0.3708223	80.680453
446	7	5	0.095597539	2.8848213	0.77982741	81.976264
447	7	5	0.094489518	2.2009406	-1.6368415	82.367125
448	7	5	0.094489518	3.9274463	-2.1156675	82.424309
449	7	7	0.087532293	2.629402	-0.035804029	84.330278
450	7	7	0.087532293	4.2899702	-0.72538594	84.440727
451	4	1	0.55617899	-2.4653643	-1.0621851	78.941721
452	4	2	-0.67607784	-1.2420418	-1.3032031	78.762463
453	4	3	-0.56821239	-3.3087238	-0.67918891	77.849785
454	4	4	0.12605285	-2.8127731	-0.56402167	76.472505
455	4	7	0.044835903	-1.837188	-0.040375893	76.507445
456	4	4	-0.20964986	-2.6425891	-1.9695055	75.866959
457	4	5	0.11367787	-1.9203958	-2.5527359	76.479597
458	4	5	0.11367787	-3.6224869	-2.49431	75.937519
459	4	4	-0.028464269	-2.1690682	-1.9521006	74.389878
460	4	4	-0.17158813	-2.3236491	-3.3819822	73.818835
461	4	5	0.076198194	-1.9849639	-3.4195339	72.760524
462	4	5	0.076198194	-1.7222479	-4.111416	74.403763
463	4	5	0.076198194	-3.3835895	-3.7166811	73.853576
464	4	4	-0.17158813	-0.6658592	-1.5902241	74.293612
465	4	5	0.076198194	-0.39302778	-0.71262068	74.899991
466	4	5	0.076198194	-0.038712696	-2.4241347	74.675903
467	4	5	0.076198194	-0.37350935	-1.4007595	73.238563
468	4	4	-0.20946641	-3.0589546	-0.9952915	73.536476
469	4	5	0.11255242	-4.0358234	-1.5092326	73.385808
470	4	5	0.11255242	-2.6295765	-0.89138412	72.516715
471	4	4	0.024624221	-3.3746058	0.41199124	74.143044
472	4	4	-0.16836743	-4.5754454	1.0093924	73.366057
473	4	5	0.069715697	-4.8469631	2.0108502	73.765079
474	4	5	0.069715697	-4.3337846	1.1164771	72.286145
475	4	5	0.069715697	-5.4724944	0.35847828	73.45095
476	4	4	0.14346865	-2.1933518	1.4187326	74.012539
477	4	3	-0.62514054	-1.6894988	1.4730606	72.644042
478	4	9	0.60071731	-0.73005976	2.2446888	72.323706
479	4	2	-0.46416175	0.20318101	2.995616	72.012431
480	4	7	0.068963546	-1.3633786	1.1796708	74.696936
481	4	7	0.068963546	-2.5396738	2.4349542	74.309584
482	4	4	-0.206017	-3.799261	0.26458121	75.629169
483	4	5	0.11201524	-4.7967721	-0.22806322	75.680121
484	4	5	0.11201524	-3.9126984	1.2716839	76.089247
485	4	6	0.31287483	-4.3029592	-0.44350974	78.069449
486	5	8	-0.16509339	6.2135543	1.3355885	82.955271
487	5	4	0.035421368	6.3754019	2.3518935	82.00379
488	5	4	-0.1377775	6.3635085	1.7574982	80.590062
489	5	4	-0.16482862	6.35634	2.8286844	79.486756
490	5	4	0.088884544	7.6825417	3.5889136	79.364672
491	5	10	-0.67944634	7.7817318	4.5589884	80.369106
492	5	11	0.38583291	8.6633666	4.9964312	80.243834
493	5	7	0.078948203	7.7132355	4.0908999	78.371707
494	5	7	0.078948203	8.5397663	2.8810413	79.42394
495	5	5	0.098061476	6.1670059	2.3150312	78.518495
496	5	5	0.098061476	5.5205672	3.5432376	79.647342
497	5	5	0.095773015	5.4449139	1.1409229	80.47427
498	5	5	0.095773015	7.2367793	1.08171	80.4608
499	5	7	0.087562147	5.5698263	3.1142	82.114238
500	5	7	0.087562147	7.3499032	2.8461426	82.192676
501	6	1	0.54351581	0.70964805	17.126458	-0.90374932
502	6	2	-0.68667119	1.0976192	16.234854	-1.7040827
503	6	3	-0.48949879	1.6424239	18.026864	-0.29978517
504	6	4	-0.00013899297	3.0773935	17.951061	-0.60017057
505	6	4	-0.0081932722	3.9476034	18.962864	0.21353939
506	6	4	-0.16983072	3.7213756	18.69179	1.7257437
507	6	5	0.073144045	3.9482461	17.631586	1.9701604
508	6	5	0.073144045	4.3789522	19.335402	2.3502411
509	6	5	0.073144045	2.6800704	18.908114	2.0367102
510	6	4	-0.20493565	3.5726667	20.441138	-0.08255199
511	6	5	0.11213866	2.479529	20.600912	0.025137548
512	6	5	0.11213866	4.0610144	21.09887	0.67257538
513	6	4	0.12822937	4.0093884	20.911644	-1.4803673
514	6	3	-0.51711827	3.6177306	22.311618	-1.6819099
515	6	1	0.80955381	3.5493354	22.912235	-2.9798135
516	6	2	-0.60475057	3.8112707	22.246259	-4.0166989
517	6	6	0.31592223	3.3434845	22.900732	-0.86294575
518	6	7	0.046973851	3.4855478	20.298184	-2.2419141
519	6	4	-0.20854072	5.5350995	20.776922	-1.6298375
520	6	5	0.11367786	6.014674	21.465346	-0.89711729
521	6	5	0.11367786	5.8422934	21.121699	-2.6428833
522	6	4	-0.02792982	6.0501613	19.332252	-1.3997515
523	6	4	-0.17158815	7.5913622	19.388485	-1.2574051
524	6	5	0.076198179	8.0069651	18.368457	-1.1087956
525	6	5	0.076198179	7.8930392	20.015993	-0.39114939
526	6	5	0.076198179	8.0585657	19.827179	-2.1664385
527	6	4	-0.17158815	5.7456495	18.438227	-2.6304831
528	6	5	0.076198179	4.7425444	18.614987	-3.0559536
529	6	5	0.076198179	5.8473159	17.361382	-2.3757714
530	6	5	0.076198179	6.4513558	18.656374	-3.4612059
531	6	4	-0.2107812	5.469251	18.737924	-0.074557477
532	6	5	0.11386639	6.0349925	19.206173	0.76378055