Title

729 atoms
755 bonds
1328 angles
2163 dihedrals
588 impropers

12 atom types
18 bond types
10 angle types
34 dihedral types
3 improper types
-143.923996 -43.92399597 xlo xhi
-2.769999981 97.23000002 ylo yhi
-0.9779999852 99.02200001 zlo zhi
0.0 0.0 0.0 xy xz yz

Masses

1	15.99943
2	12.01078
3	14.00672
4	1.007947
5	12.01078
6	1.007947
7	1.007947
8	15.99943
9	1.007947
10	12.01078
11	15.99943
12	1.007947


Pair Coeffs

1	0.2102061	3.0398122
2	0.086879315	3.4806469
3	0.16769152	3.206876
4	0.014090815	1.1034277
5	0.10884061	3.3795318
6	0.015779483	2.6445434
7	0.015611343	2.5725815
8	0.16846514	3.0251065
9	0.016409246	2.5832257
10	0.21	3.3996695
11	0.20947353	2.99716
12	1.2326e-05	0.53453923

Bond Coeffs

1 harmonic	582.698766451	1.225198386222
2 harmonic	492.76746816345	1.381897776683
3 harmonic	301.15400723785	1.345741232799
4 harmonic	390.03554688505	1.390160554689
5 harmonic	505.144496193	1.019481865027
6 harmonic	360.7852444772	1.387193227181
7 harmonic	397.2545789619	1.085358495916
8 harmonic	279.1350963404	1.454628925034
9 harmonic	289.73813263395	1.498646816465
10 harmonic	370.04670688625	1.093899492634
11 harmonic	366.7408841747	1.425895053732
12 harmonic	264.62148576755	1.52190126495
13 harmonic	425.69104206635	1.362945806494
14 harmonic	300.03137914615	1.451203938761
15 harmonic	382.5450169811	1.379244394267
16 harmonic	602.81384337	1.196112346392
17 harmonic	329.96998057905	1.427343958716
18 harmonic	543.5267831885	0.9716763312559


Angle Coeffs

1 harmonic	57.8982893754	126.8062420451
2 harmonic	201.41175231035	127.4691416191
3 harmonic	55.42182150775	117.3465570514
4 harmonic	63.44422595415	115.5071327674
5 harmonic	65.09061609600001	110.3538806181
6 harmonic	34.066775159195	129.1835929926
7 harmonic	53.20531626545	116.5475862634
8 harmonic	48.776492647595	115.6030999533
9 harmonic	55.07882548015	112.8714009681
10 harmonic	33.56981613361	180


Dihedral Coeffs

1 fourier 1	1.809047390003	2	180
2 fourier 1	-0.04816277792592	1	0
3 fourier 1	0.4860993122944	2	180
4 fourier 1	0.8916986138746	1	0
5 fourier 1	1.163809172478	2	180
6 fourier 1	0.1679186987369	1	180
7 fourier 1	1.193093382682	2	180
8 fourier 1	0.1918272375143	3	0
9 fourier 1	0.9202179876409	1	180
10 fourier 1	0.0473758381877	3	0
11 fourier 1	2.779853741805	2	180
12 fourier 1	3.661930099076	2	180
13 fourier 1	0.02664938770063	3	0
14 fourier 1	3.101948770557	2	180
15 fourier 1	-0.4252153282372	1	0
16 fourier 1	0.9974165607242	2	180
17 fourier 1	2.348375642009	2	180
18 fourier 1	1.256156174911	1	0
19 fourier 1	0.1155372516788	3	0
20 fourier 1	0.1115525666802	3	0
21 fourier 1	0.3432490222662	1	0
22 fourier 1	0.09223874044423	3	0
23 fourier 1	0.3159935921949	2	180
24 fourier 1	0.3247796806857	1	180
25 fourier 1	0.1040663847541	3	0
26 fourier 1	1.532232714475	2	180
27 fourier 1	1.163235555439	2	180
28 fourier 1	0.1911926717192	3	0
29 fourier 1	0.457973137376	1	0
30 fourier 1	1.550515418264	2	180
31 fourier 1	0	1	0
32 fourier 1	0.3445382149273	3	0
33 fourier 1	0.1364556373303	1	0
34 fourier 1	0.3026390167484	3	0


Improper Coeffs

1 3.5	-1	2
2 0.3333333333333333	-1	2
3 0.3666666666666667	-1	2


Atoms

1	1	1	-0.56089097	-1.651	3.0439999	-0.41999999
2	1	2	0.81950802	-2.3970001	2.3740001	0.34200001
3	1	3	-0.469897	-2.1270001	0.99400002	0.61900002
4	1	2	0.170719	-0.93199998	0.30899999	0.20299999
5	1	2	-0.48048201	0.271	0.90499997	0.30599999
6	1	2	0.22747999	1.512	0.19	-0.068000004
7	1	3	-0.52843302	2.7690001	0.88499999	0.0099999998
8	1	2	0.56959099	4.0190001	0.27200001	0.35299999
9	1	1	-0.62077397	4.0710001	-0.912	0.77999997
10	1	4	0.31910601	2.763	1.925	-0.090999998
11	1	2	-0.413867	1.4299999	-1.071	-0.52700001
12	1	2	-0.25464901	0.122	-1.747	-0.61900002
13	1	2	-0.28189299	-1.008	-1.101	-0.28400001
14	1	5	-0.14484701	-2.335	-1.802	-0.384
15	1	6	0.095680997	-2.263	-2.7390001	-0.97799999
16	1	6	0.095680997	-3.075	-1.142	-0.88200003
17	1	6	0.095680997	-2.697	-2.056	0.63499999
18	1	7	0.21986	0.092	-2.77	-0.972
19	1	7	0.212698	2.3099999	-1.602	-0.86299998
20	1	7	0.209628	0.352	1.909	0.704
21	1	4	0.32454401	-2.8840001	0.44600001	1.086
22	1	8	-0.48896399	-22.506001	5.8769999	6.7649999
23	1	5	0.124807	-21.959999	7.0939999	7.198
24	1	5	-0.133324	-21.978001	8.1389999	6.0739999
25	1	5	-0.135998	-21.278	7.678	4.7810001
26	1	5	-0.13640501	-19.787001	7.329	4.9380002
27	1	5	-0.137017	-18.938	8.5249996	5.3959999
28	1	5	0.080139004	-17.445	8.1960001	5.3800001
29	1	8	-0.40388301	-17.004999	7.9889998	4.0409999
30	1	2	0.21838	-15.683	7.684	3.6889999
31	1	2	-0.34585699	-15.386	7.5120001	2.3940001
32	1	2	-0.119787	-14.006	7.1950002	1.974
33	1	2	-0.113644	-13.024	7.0739999	2.8859999
34	1	2	-0.119787	-13.355	7.257	4.3239999
35	1	2	-0.34585699	-14.606	7.5440001	4.704
36	1	7	0.22067501	-14.82	7.6659999	5.757
37	1	7	0.200359	-12.588	7.1420002	5.0799999
38	1	2	-0.113644	-11.632	6.7649999	2.4690001
39	1	2	-0.119787	-10.584	7.3559999	3.073
40	1	2	-0.34585801	-9.2019997	7.0489998	2.652
41	1	2	0.21838	-8.9720001	6.1690001	1.6569999
42	1	2	-0.34585801	-10.12	5.5159998	0.995
43	1	2	-0.119787	-11.373	5.7930002	1.374
44	1	7	0.200359	-12.197	5.2870002	0.88599998
45	1	7	0.22067501	-9.9440002	4.802	0.20100001
46	1	8	-0.40388301	-7.6799998	5.842	1.217
47	1	5	0.080139004	-6.4759998	6.3850002	1.756
48	1	5	-0.137017	-5.2779999	5.7849998	1.023
49	1	5	-0.13640501	-3.957	6.3509998	1.564
50	1	5	-0.135998	-2.727	5.7329998	0.86500001
51	1	5	-0.133324	-2.0039999	4.671	1.714
52	1	5	0.124807	-2.8340001	3.405	1.961
53	1	8	-0.48896399	-3.2379999	2.822	0.75099999
54	1	9	0.103393	-3.73	3.6500001	2.5669999
55	1	9	0.103393	-2.2320001	2.6789999	2.552
56	1	6	0.105447	-1.0650001	4.3829999	1.193
57	1	6	0.105447	-1.7130001	5.112	2.6919999
58	1	6	0.100654	-2.994	5.3119998	-0.12899999
59	1	6	0.100654	-1.9960001	6.5479999	0.67000002
60	1	6	0.100654	-3.951	7.4489999	1.3839999
61	1	6	0.100654	-3.9000001	6.2020001	2.665
62	1	6	0.106047	-5.3639998	6.0209999	-0.061000001
63	1	6	0.106047	-5.302	4.6820002	1.14
64	1	9	0.090805002	-6.4089999	6.1370001	2.8380001
65	1	9	0.090805002	-6.4759998	7.4889998	1.626
66	1	7	0.22067501	-8.3889999	7.5489998	3.161
67	1	7	0.200359	-10.734	8.0830002	3.8610001
68	1	7	0.200359	-13.801	7.0879998	0.91600001
69	1	7	0.22067501	-16.159	7.6110001	1.642
70	1	9	0.090805002	-17.254999	7.2849998	5.9879999
71	1	9	0.090805002	-16.886999	9.0489998	5.823
72	1	6	0.106047	-19.125	9.3999996	4.7350001
73	1	6	0.106047	-19.216999	8.8050003	6.434
74	1	6	0.100654	-19.663	6.4809999	5.645
75	1	6	0.100654	-19.42	6.9809999	3.948
76	1	6	0.100654	-21.379	8.4820004	4.02
77	1	6	0.100654	-21.809	6.789	4.3790002
78	1	6	0.105447	-23.038	8.3730001	5.8299999
79	1	6	0.105447	-21.521999	9.0830002	6.441
80	1	9	0.103393	-22.533001	7.4809999	8.0710001
81	1	9	0.103393	-20.92	6.9239998	7.5450001
82	1	1	-0.56089097	-26.172001	11.532	8.4499998
83	1	2	0.81950802	-27.295	11.176	8.8979998
84	1	3	-0.469897	-27.957001	10.007	8.3990002
85	1	2	0.170719	-27.354	9.0679998	7.4899998
86	1	2	-0.47237799	-26.076	8.6759996	7.6570001
87	1	2	0.25171399	-25.464001	7.6690001	6.7600002
88	1	3	-0.49018601	-24.080999	7.3189998	6.9460001
89	1	2	0.81833798	-23.532	6.0170002	6.7069998
90	1	1	-0.56089097	-24.274	5.027	6.4720001
91	1	4	0.32316801	-23.448	8.0290003	7.3779998
92	1	2	-0.403137	-26.195	7.151	5.7589998
93	1	2	-0.25464901	-27.604	7.5500002	5.5799999
94	1	2	-0.28189299	-28.164	8.4659996	6.3899999
95	1	5	-0.14484701	-29.601	8.8640003	6.1960001
96	1	6	0.095680997	-29.993999	8.5249996	5.2129998
97	1	6	0.095680997	-29.695999	9.9700003	6.2340002
98	1	6	0.095680997	-30.222	8.415	6.9990001
99	1	7	0.21986	-28.173	7.0970001	4.7779999
100	1	7	0.212698	-25.763	6.4569998	5.0510001
101	1	7	0.209628	-25.488001	9.0629997	8.4790001
102	1	4	0.32454401	-28.959999	9.8809996	8.6590004
103	1	8	-0.48896399	-42.105999	22.198	19.715
104	1	5	0.124807	-41.034	22.426001	20.589001
105	1	5	-0.133324	-40.220001	23.653999	20.157
106	1	5	-0.135998	-39.710999	23.586	18.705
107	1	5	-0.13640501	-38.782001	22.398001	18.396
108	1	5	-0.137017	-37.487999	22.42	19.226
109	1	5	0.080139004	-36.514	21.329	18.780001
110	1	8	-0.40388301	-36.048	21.6	17.461
111	1	2	0.21838	-35.132999	20.792999	16.771999
112	1	2	-0.34585699	-34.764999	21.15	15.534
113	1	2	-0.119787	-33.798	20.334999	14.771
114	1	2	-0.113644	-33.269001	19.219999	15.309
115	1	2	-0.119787	-33.681999	18.82	16.68
116	1	2	-0.34585699	-34.558998	19.559	17.370001
117	1	7	0.22067501	-34.845001	19.240999	18.363001
118	1	7	0.200359	-33.289001	17.915001	17.125999
119	1	2	-0.113644	-32.289001	18.400999	14.55
120	1	2	-0.119787	-31.228001	17.85	15.167
121	1	2	-0.34585801	-30.253	17.040001	14.408
122	1	2	0.21838	-30.415001	16.841	13.086
123	1	2	-0.34585801	-31.580999	17.441999	12.406
124	1	2	-0.119787	-32.466	18.177	13.091
125	1	7	0.200359	-33.321999	18.591	12.573
126	1	7	0.22067501	-31.724001	17.281	11.345
127	1	8	-0.40388301	-29.518999	16.082001	12.317
128	1	5	0.080139004	-28.353001	15.439	12.827
129	1	5	-0.137017	-27.639	14.71	11.691
130	1	5	-0.13640501	-26.368	14.01	12.193
131	1	5	-0.135998	-25.646999	13.233	11.071
132	1	5	-0.133324	-25.868999	11.711	11.134
133	1	5	0.124807	-27.318001	11.284	10.864
134	1	8	-0.48896399	-27.76	11.758	9.6199999
135	1	9	0.103393	-27.983999	11.673	11.661
136	1	9	0.103393	-27.388	10.174	10.896
137	1	6	0.105447	-25.212	11.227	10.379
138	1	6	0.105447	-25.558001	11.33	12.131
139	1	6	0.100654	-25.924999	13.619	10.066
140	1	6	0.100654	-24.554001	13.407	11.178
141	1	6	0.100654	-25.676001	14.789	12.585
142	1	6	0.100654	-26.613001	13.336	13.044
143	1	6	0.106047	-27.368	15.447	10.903
144	1	6	0.106047	-28.337	13.969	11.246
145	1	9	0.090805002	-28.646	14.706	13.61
146	1	9	0.090805002	-27.671	16.200001	13.265
147	1	7	0.22067501	-29.412001	16.618999	14.943
148	1	7	0.200359	-31.055	18.006001	16.225
149	1	7	0.200359	-33.507999	20.669001	13.783
150	1	7	0.22067501	-35.173	22.047001	15.084
151	1	9	0.090805002	-37.02	20.339001	18.809
152	1	9	0.090805002	-35.651001	21.313999	19.48
153	1	6	0.106047	-36.993	23.410999	19.132
154	1	6	0.106047	-37.73	22.247	20.296
155	1	6	0.100654	-39.319	21.438999	18.552
156	1	6	0.100654	-38.521	22.451	17.316999
157	1	6	0.100654	-39.171001	24.531	18.476999
158	1	6	0.100654	-40.582001	23.542	18.017
159	1	6	0.105447	-40.863998	24.554001	20.257
160	1	6	0.105447	-39.368	23.795	20.855
161	1	9	0.103393	-41.410999	22.579	21.625
162	1	9	0.103393	-40.386002	21.525999	20.611
163	1	1	-0.56089097	-41.912998	27.118	24.615999
164	1	2	0.81950802	-43.084	27.341	25.021999
165	1	3	-0.469897	-44.207001	27.245001	24.136
166	1	2	0.170719	-44.129002	26.745001	22.789
167	1	2	-0.47237799	-43.394001	25.652	22.506001
168	1	2	0.25171399	-43.351002	25.096001	21.134001
169	1	3	-0.49018601	-42.512001	23.959	20.868999
170	1	2	0.81833798	-42.814999	22.927	19.92
171	1	1	-0.56089097	-43.943001	22.862	19.362
172	1	4	0.32316801	-41.673	23.813999	21.475
173	1	2	-0.403137	-44.049	25.702999	20.159
174	1	2	-0.25464901	-44.880001	26.884001	20.459999
175	1	2	-0.28189299	-44.919998	27.393999	21.702999
176	1	5	-0.14484701	-45.771999	28.599001	21.995001
177	1	6	0.095680997	-46.101002	29.107	21.063
178	1	6	0.095680997	-45.194	29.334	22.594
179	1	6	0.095680997	-46.671001	28.287001	22.565001
180	1	7	0.21986	-45.448002	27.334999	19.655001
181	1	7	0.212698	-43.993999	25.358	19.135
182	1	7	0.209628	-42.853001	25.138	23.290001
183	1	4	0.32454401	-45.113998	27.636	24.476
184	1	8	-0.48896399	-50.077	37.766998	42.349998
185	1	5	0.124807	-49.262001	36.837002	43.012001
186	1	5	-0.133324	-47.814999	37.34	43.109001
187	1	5	-0.135998	-47.192001	37.714001	41.750999
188	1	5	-0.13640501	-47.117001	36.563999	40.730999
189	1	5	-0.137017	-46.243999	35.394001	41.213001
190	1	5	0.080139004	-46.050999	34.346001	40.117001
191	1	8	-0.40388301	-45.284	34.893002	39.048
192	1	2	0.21838	-44.923	34.179001	37.896999
193	1	2	-0.34585699	-44.195999	34.799	36.958
194	1	2	-0.119787	-43.785999	34.085999	35.730999
195	1	2	-0.113644	-44.134998	32.800999	35.537998
196	1	2	-0.119787	-44.946999	32.113998	36.577
197	1	2	-0.34585699	-45.318001	32.762001	37.688
198	1	7	0.22067501	-45.914001	32.240002	38.424999
199	1	7	0.200359	-45.261002	31.087999	36.435001
200	1	2	-0.113644	-43.717999	32.076	34.310001
201	1	2	-0.119787	-43.330002	30.788	34.368999
202	1	2	-0.34585801	-42.910999	30.072001	33.146
203	1	2	0.21838	-42.914001	30.700001	31.954
204	1	2	-0.34585801	-43.344002	32.112	31.886
205	1	2	-0.119787	-43.723	32.763	32.992001
206	1	7	0.200359	-44.050999	33.792	32.911999
207	1	7	0.22067501	-43.356998	32.622002	30.93
208	1	8	-0.40388301	-42.526001	30.068001	30.763
209	1	5	0.080139004	-42.09	28.712999	30.666
210	1	5	-0.137017	-41.758999	28.391001	29.209999
211	1	5	-0.13640501	-41.272999	26.941	29.059999
212	1	5	-0.135998	-40.966999	26.577	27.591999
213	1	5	-0.133324	-42.060001	25.719	26.927999
214	1	5	0.124807	-43.396999	26.448	26.747999
215	1	8	-0.48896399	-43.233002	27.627001	26.007999
216	1	9	0.103393	-43.832001	26.695	27.739
217	1	9	0.103393	-44.118999	25.773001	26.236
218	1	6	0.105447	-41.695999	25.396	25.929001
219	1	6	0.105447	-42.224998	24.798	27.528999
220	1	6	0.100654	-40.771	27.486	26.981001
221	1	6	0.100654	-40.028	25.982	27.572001
222	1	6	0.100654	-40.34	26.826	29.655001
223	1	6	0.100654	-42.021999	26.240999	29.490999
224	1	6	0.106047	-40.963001	29.084999	28.860001
225	1	6	0.106047	-42.664001	28.559999	28.591
226	1	9	0.090805002	-42.898998	28.037001	31.02
227	1	9	0.090805002	-41.182999	28.569	31.292999
228	1	7	0.22067501	-42.602001	29.040001	33.238998
229	1	7	0.200359	-43.294998	30.26	35.313
230	1	7	0.200359	-43.18	34.613998	35.006001
231	1	7	0.22067501	-43.898998	35.832001	37.095001
232	1	9	0.090805002	-47.041	34.007999	39.741001
233	1	9	0.090805002	-45.512001	33.473999	40.548
234	1	6	0.106047	-45.249001	35.77	41.536999
235	1	6	0.106047	-46.730999	34.898998	42.078999
236	1	6	0.100654	-48.137001	36.202	40.484001
237	1	6	0.100654	-46.683998	36.977001	39.793999
238	1	6	0.100654	-46.165001	38.102001	41.93
239	1	6	0.100654	-47.773998	38.548	41.301998
240	1	6	0.105447	-47.800999	38.243	43.757999
241	1	6	0.105447	-47.193001	36.575001	43.618
242	1	9	0.103393	-49.655998	36.645	44.035
243	1	9	0.103393	-49.296001	35.872002	42.466999
244	1	1	-0.56089097	-47.889999	38.324001	48.921001
245	1	2	0.81950802	-48.748001	38.962002	49.587002
246	1	3	-0.469897	-49.521	40.012001	48.990002
247	1	2	0.170719	-49.512001	40.317001	47.584
248	1	2	-0.47237799	-49.535999	39.330002	46.667999
249	1	2	0.25171399	-49.583	39.633999	45.220001
250	1	3	-0.49018601	-49.556	38.547001	44.278
251	1	2	0.81833798	-50.234001	38.548	43.014
252	1	1	-0.56089097	-51.053001	39.457001	42.712002
253	1	4	0.32316801	-49.097	37.654999	44.569
254	1	2	-0.403137	-49.589001	40.917	44.818001
255	1	2	-0.25464901	-49.59	42.007999	45.810001
256	1	2	-0.28189299	-49.544998	41.737999	47.126999
257	1	5	-0.14484701	-49.546001	42.861	48.126999
258	1	6	0.095680997	-49.331001	43.841	47.646999
259	1	6	0.095680997	-48.765999	42.682999	48.896
260	1	6	0.095680997	-50.539001	42.917999	48.618
261	1	7	0.21986	-49.618	43.030998	45.455002
262	1	7	0.212698	-49.564999	41.174	43.768002
263	1	7	0.209628	-49.563	38.293999	46.98
264	1	4	0.32454401	-50.060001	40.631001	49.636002
265	1	8	-0.48896399	-51.171001	41.118	70.737999
266	1	5	0.124807	-51.209	39.716999	70.690002
267	1	5	-0.133324	-49.796001	39.123001	70.762001
268	1	5	-0.135998	-48.837002	39.660999	69.682999
269	1	5	-0.13640501	-49.277	39.396	68.232002
270	1	5	-0.137017	-49.380001	37.897999	67.902
271	1	5	0.080139004	-49.653	37.665001	66.416
272	1	8	-0.40388301	-48.532001	38.083	65.641998
273	1	2	0.21838	-48.464001	37.987999	64.246002
274	1	2	-0.34585699	-47.355	38.411999	63.625999
275	1	2	-0.119787	-47.235001	38.326	62.155998
276	1	2	-0.113644	-48.238998	37.819	61.416
277	1	2	-0.119787	-49.473	37.355	62.103001
278	1	2	-0.34585699	-49.580002	37.432999	63.435001
279	1	7	0.22067501	-50.492001	37.094002	63.909
280	1	7	0.200359	-50.304001	36.964001	61.528999
281	1	2	-0.113644	-48.119999	37.721001	59.938999
282	1	2	-0.119787	-48.594002	36.647999	59.278999
283	1	2	-0.34585801	-48.470001	36.553001	57.808998
284	1	2	0.21838	-47.881001	37.542	57.110001
285	1	2	-0.34585801	-47.362999	38.723	57.831001
286	1	2	-0.119787	-47.473	38.812	59.161999
287	1	7	0.200359	-47.102001	39.695999	59.665001
288	1	7	0.22067501	-46.895	39.527	57.276001
289	1	8	-0.40388301	-47.736	37.501999	55.714001
290	1	5	0.080139004	-48.183998	36.436001	54.881001
291	1	5	-0.137017	-47.851002	36.757	53.424999
292	1	5	-0.13640501	-48.307999	35.626999	52.490002
293	1	5	-0.135998	-48.016998	35.943001	51.007
294	1	5	-0.133324	-49.261002	36.382999	50.214001
295	1	5	0.124807	-49.84	37.73	50.665001
296	1	8	-0.48896399	-48.874001	38.743999	50.592999
297	1	9	0.103393	-50.214001	37.653999	51.707001
298	1	9	0.103393	-50.713001	37.988998	50.025002
299	1	6	0.105447	-48.987	36.457001	49.139999
300	1	6	0.105447	-50.049	35.602001	50.297001
301	1	6	0.100654	-47.209999	36.702	50.904999
302	1	6	0.100654	-47.633999	35.016998	50.526001
303	1	6	0.100654	-47.755001	34.702	52.769001
304	1	6	0.100654	-49.389999	35.417999	52.643002
305	1	6	0.106047	-46.751999	36.894001	53.328999
306	1	6	0.106047	-48.345001	37.710999	53.146999
307	1	9	0.090805002	-49.284	36.317001	54.991001
308	1	9	0.090805002	-47.675999	35.493	55.179001
309	1	7	0.22067501	-48.860001	35.671001	57.319
310	1	7	0.200359	-49.054001	35.825001	59.811001
311	1	7	0.200359	-46.313999	38.655998	61.694
312	1	7	0.22067501	-46.533001	38.817001	64.200996
313	1	9	0.090805002	-50.560001	38.23	66.108002
314	1	9	0.090805002	-49.830002	36.580002	66.251999
315	1	6	0.106047	-48.438	37.381001	68.184998
316	1	6	0.106047	-50.215	37.446999	68.478996
317	1	6	0.100654	-50.245998	39.897999	68.025002
318	1	6	0.100654	-48.521999	39.862999	67.563004
319	1	6	0.100654	-47.835999	39.203999	69.842003
320	1	6	0.100654	-48.714001	40.757	69.820999
321	1	6	0.105447	-49.365002	39.362	71.759003
322	1	6	0.105447	-49.858002	38.015999	70.702003
323	1	9	0.103393	-51.819	39.323002	71.533997
324	1	9	0.103393	-51.710999	39.397999	69.753998
325	1	1	-0.56089097	-50.331001	36.905998	76.197998
326	1	2	0.81950802	-50.743	37.490002	77.235001
327	1	3	-0.469897	-50.612999	38.909	77.389
328	1	2	0.170719	-50.167	39.793999	76.345001
329	1	2	-0.47237799	-50.606998	39.639999	75.082001
330	1	2	0.25171399	-50.198002	40.577999	74.012001
331	1	3	-0.49018601	-50.652	40.344002	72.667999
332	1	2	0.81833798	-50.950001	41.375	71.718002
333	1	1	-0.56089097	-50.993999	42.587002	72.059998
334	1	4	0.32316801	-50.877998	39.362999	72.389
335	1	2	-0.403137	-49.365002	41.59	74.309998
336	1	2	-0.25464901	-48.896	41.786999	75.695
337	1	2	-0.28189299	-49.263	40.937	76.669998
338	1	5	-0.14484701	-48.777	41.150002	78.077003
339	1	6	0.095680997	-47.938	41.876999	78.117996
340	1	6	0.095680997	-48.414001	40.189999	78.500999
341	1	6	0.095680997	-49.610001	41.535	78.702003
342	1	7	0.21986	-48.243999	42.625999	75.905998
343	1	7	0.212698	-49	42.258999	73.542
344	1	7	0.209628	-51.301998	38.847	74.836998
345	1	4	0.32454401	-50.784	39.300999	78.342003
346	1	8	-0.48896399	-55.221001	29.805	96.696999
347	1	5	0.124807	-56.076	28.968	95.968002
348	1	5	-0.133324	-55.339001	27.714001	95.478996
349	1	5	-0.135998	-54.070999	28.017	94.656998
350	1	5	-0.13640501	-54.307999	28.832001	93.373001
351	1	5	-0.137017	-55.220001	28.112	92.367996
352	1	5	0.080139004	-55.300999	28.865	91.039001
353	1	8	-0.40388301	-54.033001	28.843	90.388
354	1	2	0.21838	-53.782001	29.434999	89.142998
355	1	2	-0.34585699	-52.549	29.349001	88.627998
356	1	2	-0.119787	-52.237	29.952	87.316002
357	1	2	-0.113644	-53.188999	30.598	86.615997
358	1	2	-0.119787	-54.556	30.700001	87.192001
359	1	2	-0.34585699	-54.837002	30.153999	88.380997
360	1	7	0.22067501	-55.839001	30.247999	88.778
361	1	7	0.200359	-55.334	31.233999	86.660004
362	1	2	-0.113644	-52.883999	31.198	85.292
363	1	2	-0.119787	-53.773998	31.131001	84.283997
364	1	2	-0.34585801	-53.465	31.726	82.967003
365	1	2	0.21838	-52.286999	32.345001	82.759003
366	1	2	-0.34585801	-51.308998	32.424	83.864998
367	1	2	-0.119787	-51.587002	31.885	85.057999
368	1	7	0.200359	-50.861	31.972	85.858002
369	1	7	0.22067501	-50.363998	32.926998	83.709
370	1	8	-0.40388301	-51.942001	32.925999	81.528999
371	1	5	0.080139004	-52.775002	32.933998	80.372002
372	1	5	-0.137017	-52.057999	33.66	79.236
373	1	5	-0.13640501	-52.917	33.682999	77.962997
374	1	5	-0.135998	-52.23	34.445	76.808998
375	1	5	-0.133324	-52.797001	35.856998	76.578003
376	1	5	0.124807	-52.528999	36.828999	77.734001
377	1	8	-0.48896399	-51.155998	36.928001	78.002998
378	1	9	0.103393	-53.056999	36.487999	78.648003
379	1	9	0.103393	-52.939999	37.831001	77.476997
380	1	6	0.105447	-52.341	36.273998	75.653999
381	1	6	0.105447	-53.893002	35.793999	76.403
382	1	6	0.100654	-51.127998	34.493	76.954002
383	1	6	0.100654	-52.394001	33.869999	75.871002
384	1	6	0.100654	-53.087002	32.632	77.639999
385	1	6	0.100654	-53.915001	34.120998	78.183998
386	1	6	0.106047	-51.098999	33.138	79.024002
387	1	6	0.106047	-51.824001	34.694	79.561996
388	1	9	0.090805002	-53.727001	33.459999	80.603996
389	1	9	0.090805002	-52.993999	31.888	80.064003
390	1	7	0.22067501	-54.206001	31.646	82.183998
391	1	7	0.200359	-54.721001	30.622999	84.411003
392	1	7	0.200359	-51.235001	29.84	86.921997
393	1	7	0.22067501	-51.769001	28.827999	89.169998
394	1	9	0.090805002	-55.617001	29.915001	91.222
395	1	9	0.090805002	-56.056	28.367001	90.392998
396	1	6	0.106047	-54.842999	27.083	92.18
397	1	6	0.106047	-56.247002	28.039	92.782997
398	1	6	0.100654	-54.728001	29.829	93.622002
399	1	6	0.100654	-53.316002	29.007	92.901001
400	1	6	0.100654	-53.589001	27.052	94.385002
401	1	6	0.100654	-53.347	28.566	95.295998
402	1	6	0.105447	-55.041	27.114	96.365997
403	1	6	0.105447	-56.035999	27.083	94.889
404	1	9	0.103393	-56.942001	28.664	96.598
405	1	9	0.103393	-56.487999	29.531	95.105003
406	1	1	-0.56089097	-58.070999	23.938999	99.087997
407	1	2	0.81950802	-58.235001	24.038	100.333
408	1	3	-0.469897	-57.316002	24.780001	101.145
409	1	2	0.170719	-56.249001	25.589001	100.619
410	1	2	-0.47237799	-56.453999	26.382	99.549004
411	1	2	0.25171399	-55.380001	27.26	99.032997
412	1	3	-0.49018601	-55.629002	28.049999	97.857002
413	1	2	0.81833798	-55.074001	29.35	97.617996
414	1	1	-0.56089097	-54.448002	29.969999	98.517998
415	1	4	0.32316801	-56.339001	27.704	97.174004
416	1	2	-0.403137	-54.18	27.253	99.639
417	1	2	-0.25464901	-53.949001	26.412001	100.828
418	1	2	-0.28189299	-54.921001	25.610001	101.299
419	1	5	-0.14484701	-54.671001	24.757	102.512
420	1	6	0.095680997	-53.589001	24.694	102.757
421	1	6	0.095680997	-55.036999	23.725	102.33
422	1	6	0.095680997	-55.207001	25.187	103.383
423	1	7	0.21986	-52.978001	26.445999	101.306
424	1	7	0.212698	-53.355999	27.837999	99.253998
425	1	7	0.209628	-57.425999	26.417999	99.071999
426	1	4	0.32454401	-57.389999	24.656	102.179
427	1	8	-0.48896399	-69.874001	12.209	113.841
428	1	5	0.124807	-70.908997	12.553	112.96
429	1	5	-0.133324	-70.989998	11.564	111.789
430	1	5	-0.135998	-69.667999	11.407	111.013
431	1	5	-0.13640501	-69.133003	12.699	110.371
432	1	5	-0.137017	-70.091003	13.288	109.324
433	1	5	0.080139004	-69.462997	14.47	108.586
434	1	8	-0.40388301	-68.365997	14.023	107.794
435	1	2	0.21838	-67.588997	14.864	106.986
436	1	2	-0.34585699	-66.582001	14.329	106.283
437	1	2	-0.119787	-65.738998	15.175	105.413
438	1	2	-0.113644	-65.970001	16.497	105.311
439	1	2	-0.119787	-67.083	17.091999	106.097
440	1	2	-0.34585699	-67.846001	16.325001	106.886
441	1	7	0.22067501	-68.646004	16.785	107.45
442	1	7	0.200359	-67.276001	18.156	106.052
443	1	2	-0.113644	-65.132004	17.35	104.431
444	1	2	-0.119787	-65.682999	18.339001	103.703
445	1	2	-0.34585801	-64.847	19.183001	102.824
446	1	2	0.21838	-63.518002	18.974001	102.743
447	1	2	-0.34585801	-62.909	17.892	103.545
448	1	2	-0.119787	-63.665001	17.125999	104.34
449	1	7	0.200359	-63.192001	16.351	104.931
450	1	7	0.22067501	-61.841	17.722	103.492
451	1	8	-0.40388301	-62.676998	19.745001	101.925
452	1	5	0.080139004	-63.112999	20.820999	101.097
453	1	5	-0.137017	-61.911999	21.414	100.364
454	1	5	-0.13640501	-62.337002	22.573	99.449997
455	1	5	-0.135998	-61.134998	23.216	98.724998
456	1	5	-0.133324	-60.694	24.559999	99.334
457	1	5	0.124807	-60.117001	24.438999	100.75
458	1	8	-0.48896399	-59.034	23.549	100.78
459	1	9	0.103393	-60.900002	24.086	101.451
460	1	9	0.103393	-59.794998	25.444	101.104
461	1	6	0.105447	-59.919998	25.009001	98.674004
462	1	6	0.105447	-61.556999	25.261	99.350998
463	1	6	0.100654	-60.271	22.517	98.674004
464	1	6	0.100654	-61.433998	23.417	97.672997
465	1	6	0.100654	-63.036999	22.171	98.684998
466	1	6	0.100654	-62.896999	23.334999	100.035
467	1	6	0.106047	-61.433998	20.618	99.752998
468	1	6	0.106047	-61.173	21.766001	101.114
469	1	9	0.090805002	-63.585999	21.606001	101.728
470	1	9	0.090805002	-63.851002	20.444	100.356
471	1	7	0.22067501	-65.330002	19.962999	102.253
472	1	7	0.200359	-66.75	18.521	103.728
473	1	7	0.200359	-64.949997	14.701	104.842
474	1	7	0.22067501	-66.380997	13.267	106.344
475	1	9	0.090805002	-69.117996	15.231	109.319
476	1	9	0.090805002	-70.231003	14.927	107.925
477	1	6	0.106047	-70.375	12.507	108.586
478	1	6	0.106047	-71.014	13.648	109.826
479	1	6	0.100654	-68.912003	13.455	111.154
480	1	6	0.100654	-68.167	12.452	109.879
481	1	6	0.100654	-69.816002	10.646	110.216
482	1	6	0.100654	-68.890999	11.004	111.699
483	1	6	0.105447	-71.277	10.568	112.191
484	1	6	0.105447	-71.803001	11.875	111.1
485	1	9	0.103393	-71.882004	12.566	113.501
486	1	9	0.103393	-70.737999	13.582	112.581
487	1	1	-0.56089097	-76.036003	9.0229998	113.469
488	1	2	0.81950802	-76.333	8.5670004	114.605
489	1	3	-0.469897	-75.320999	8.0830002	115.497
490	1	2	0.170719	-73.907997	8.2180004	115.26
491	1	2	-0.47237799	-73.400002	9.3710003	114.783
492	1	2	0.25171399	-71.942001	9.54	114.588
493	1	3	-0.49018601	-71.450996	10.77	114.027
494	1	2	0.81833798	-70.198997	11.378	114.37
495	1	1	-0.56089097	-69.504997	10.95	115.329
496	1	4	0.32316801	-72.087997	11.314	113.403
497	1	2	-0.403137	-71.119003	8.5190001	114.882
498	1	2	-0.25464901	-71.656998	7.2610002	115.432
499	1	2	-0.28189299	-72.980003	7.1009998	115.609
500	1	5	-0.14484701	-73.514999	5.8119998	116.169
501	1	6	0.095680997	-72.750999	5.006	116.151
502	1	6	0.095680997	-74.383003	5.4689999	115.568
503	1	6	0.095680997	-73.837997	5.9710002	117.219
504	1	7	0.21986	-70.963997	6.4660001	115.68
505	1	7	0.212698	-70.055	8.5880003	114.698
506	1	7	0.209628	-74.051003	10.21	114.572
507	1	4	0.32454401	-75.640999	7.5359998	116.327
508	1	8	-0.48896399	-94.952003	1.348	122.291
509	1	5	0.124807	-95.394997	2.6199999	121.9
510	1	5	-0.133324	-95.834	2.625	120.429
511	1	5	-0.135998	-94.751999	2.1210001	119.454
512	1	5	-0.13640501	-93.445999	2.9360001	119.455
513	1	5	-0.137017	-93.653999	4.3979998	119.031
514	1	5	0.080139004	-92.322998	5.1350002	118.878
515	1	8	-0.40388301	-91.585999	4.592	117.786
516	1	2	0.21838	-90.330002	5.059	117.379
517	1	2	-0.34585699	-89.733002	4.4699998	116.335
518	1	2	-0.119787	-88.410004	4.9320002	115.864
519	1	2	-0.113644	-87.785004	5.954	116.477
520	1	2	-0.119787	-88.445	6.6040001	117.64
521	1	2	-0.34585699	-89.641998	6.184	118.066
522	1	7	0.22067501	-90.097	6.6719999	118.918
523	1	7	0.200359	-87.953003	7.4130001	118.165
524	1	2	-0.113644	-86.459999	6.4289999	116.003
525	1	2	-0.119787	-86.168999	7.743	115.975
526	1	2	-0.34585801	-84.850998	8.2119999	115.498
527	1	2	0.21838	-83.921997	7.3280001	115.086
528	1	2	-0.34585801	-84.237	5.8839998	115.119
529	1	2	-0.119787	-85.43	5.4569998	115.55
530	1	7	0.200359	-85.629997	4.3940001	115.582
531	1	7	0.22067501	-83.492996	5.1669998	114.797
532	1	8	-0.40388301	-82.655998	7.7179999	114.623
533	1	5	0.080139004	-82.204002	9.0679998	114.534
534	1	5	-0.137017	-80.777	9.0889997	113.99
535	1	5	-0.13640501	-80.250999	10.527	113.866
536	1	5	-0.135998	-78.795998	10.575	113.354
537	1	5	-0.133324	-77.762001	10.858	114.459
538	1	5	0.124807	-77.640999	9.7349997	115.497
539	1	8	-0.48896399	-77.330002	8.5120001	114.885
540	1	9	0.103393	-78.593002	9.632	116.058
541	1	9	0.103393	-76.855003	10.001	116.239
542	1	6	0.105447	-76.768997	11.007	113.982
543	1	6	0.105447	-78.022003	11.806	114.977
544	1	6	0.100654	-78.528	9.6440001	112.807
545	1	6	0.100654	-78.718002	11.402	112.615
546	1	6	0.100654	-80.899002	11.071	113.143
547	1	6	0.100654	-80.343002	11.052	114.843
548	1	6	0.106047	-80.765999	8.6049995	112.989
549	1	6	0.106047	-80.125999	8.4980001	114.667
550	1	9	0.090805002	-82.221001	9.5319996	115.544
551	1	9	0.090805002	-82.870003	9.6379995	113.85
552	1	7	0.22067501	-84.660004	9.276	115.488
553	1	7	0.200359	-86.900002	8.4820004	116.279
554	1	7	0.200359	-87.971001	4.4460001	115.002
555	1	7	0.22067501	-90.220001	3.6500001	115.822
556	1	9	0.090805002	-91.734001	5.046	119.817
557	1	9	0.090805002	-92.530998	6.21	118.684
558	1	6	0.106047	-94.206001	4.441	118.068
559	1	6	0.106047	-94.251999	4.928	119.803
560	1	6	0.100654	-92.966003	2.8929999	120.455
561	1	6	0.100654	-92.748001	2.447	118.74
562	1	6	0.100654	-95.176003	2.125	118.426
563	1	6	0.100654	-94.510002	1.064	119.696
564	1	6	0.105447	-96.724998	1.969	120.327
565	1	6	0.105447	-96.158997	3.6470001	120.145
566	1	9	0.103393	-96.248001	2.9400001	122.54
567	1	9	0.103393	-94.580002	3.3540001	122.059
568	1	1	-0.56089097	-101.601	3.2	121.501
569	1	2	0.81950802	-102.313	2.5250001	122.292
570	1	3	-0.469897	-101.973	1.173	122.627
571	1	2	0.170719	-100.744	0.53299999	122.238
572	1	2	-0.47237799	-99.572998	1.194	122.315
573	1	2	0.25171399	-98.296997	0.528	121.97
574	1	3	-0.49018601	-97.078003	1.289	122.017
575	1	2	0.81833798	-95.797997	0.755	122.384
576	1	1	-0.56089097	-95.685997	-0.405	122.861
577	1	4	0.32316801	-97.137001	2.322	121.873
578	1	2	-0.403137	-98.315002	-0.75400001	121.565
579	1	2	-0.25464901	-99.585999	-1.499	121.503
580	1	2	-0.28189299	-100.748	-0.898	121.812
581	1	5	-0.14484701	-102.037	-1.67	121.744
582	1	6	0.095680997	-101.917	-2.6259999	121.19
583	1	6	0.095680997	-102.81	-1.0700001	121.219
584	1	6	0.095680997	-102.387	-1.898	122.772
585	1	7	0.21986	-99.563004	-2.5369999	121.194
586	1	7	0.212698	-97.407997	-1.2539999	121.251
587	1	7	0.209628	-99.543999	2.217	122.669
588	1	4	0.32454401	-102.701	0.60799998	123.118
589	1	8	-0.140232	-122.58	5.2680001	128.584
590	1	5	0.042559002	-122.097	6.5289998	128.964
591	1	5	-0.13927899	-122.168	7.5229998	127.797