Title

96 atoms
103 bonds
190 angles
327 dihedrals
78 impropers

9 atom types
13 bond types
7 angle types
12 dihedral types
2 improper types
-5.531000137 94.46899986 xlo xhi
-3.653000116 96.34699988 ylo yhi
-10.05200005 89.94799995 zlo zhi
0.0 0.0 0.0 xy xz yz

Masses

1	15.99943
2	12.01078
3	1.007947
4	12.01078
5	1.007947
6	15.99943
7	15.99943
8	1.007947
9	35.4532


Pair Coeffs

1	0.16846514	3.0251065
2	0.086879315	3.4806469
3	0.015611343	2.5725815
4	0.10884061	3.3795318
5	0.015779483	2.6445434
6	0.2102061	3.0398122
7	0.20947353	2.99716
8	1.2326e-05	0.53453923
9	0.2656001	3.3075278

Bond Coeffs

1 harmonic	425.69104206635	1.362945806494
2 harmonic	300.03137914615	1.451203938761
3 harmonic	360.7852444772	1.387193227181
4 harmonic	397.2545789619	1.085358495916
5 harmonic	289.73813263395	1.498646816465
6 harmonic	264.62148576755	1.52190126495
7 harmonic	370.04670688625	1.093899492634
8 harmonic	301.15400723785	1.345741232799
9 harmonic	582.698766451	1.225198386222
10 harmonic	279.1350963404	1.454628925034
11 harmonic	385.7604595587	1.369745182308
12 harmonic	543.5267831885	0.9716763312559
13 harmonic	218.0227703685	1.746066037062


Angle Coeffs

1 harmonic	57.8982893754	126.8062420451
2 harmonic	65.09061609600001	110.3538806181
3 harmonic	34.066775159195	129.1835929926
4 harmonic	53.20531626545	116.5475862634
5 harmonic	14.32262199324	138.3184368373
6 harmonic	48.776492647595	115.6030999533
7 harmonic	201.41175231035	127.4691416191


Dihedral Coeffs

1 fourier 1	3.661930099076	2	180
2 fourier 1	1.532232714475	2	180
3 fourier 1	0.457973137376	1	0
4 fourier 1	0.02664938770063	3	0
5 fourier 1	0.1155372516788	3	0
6 fourier 1	0.09223874044423	3	0
7 fourier 1	0.3159935921949	2	180
8 fourier 1	0.3247796806857	1	180
9 fourier 1	0.1040663847541	3	0
10 fourier 1	2.779853741805	2	180
11 fourier 1	0.9974165607242	2	180
12 fourier 1	0.8283030590042	2	180


Improper Coeffs

1 0.3666666666666667	-1	2
2 3.5	-1	2


Atoms

1	1	1	-0.052894998	-4.9489999	2.0250001	-1.646
2	1	2	0.23270801	-3.6989999	1.541	-1.266
3	1	2	-0.36475199	-2.5780001	2.2490001	-1.516
4	1	3	0.201014	-2.6340001	3.2060001	-2.0179999
5	1	2	-0.063865997	-1.255	1.7180001	-1.112
6	1	3	0.197161	-0.352	2.273	-1.331
7	1	2	-0.10101	-1.2	0.53500003	-0.48100001
8	1	2	-0.207416	-2.4000001	-0.22400001	-0.20200001
9	1	2	-0.18360899	-3.6059999	0.228	-0.57999998
10	1	3	0.194233	-4.5009999	-0.35299999	-0.39500001
11	1	4	-0.037239	-2.076	-1.524	0.46700001
12	1	4	-0.138813	-2.3150001	-2.6889999	-0.50999999
13	1	5	0.079107001	-3.3889999	-2.7509999	-0.79000002
14	1	5	0.079107001	-2.02	-3.6530001	-0.041999999
15	1	5	0.079107001	-1.72	-2.552	-1.439
16	1	4	-0.138813	-2.9119999	-1.717	1.7460001
17	1	5	0.079107001	-3.99	-1.8329999	1.501
18	1	5	0.079107001	-2.799	-0.84299999	2.4230001
19	1	5	0.079107001	-2.5780001	-2.628	2.2880001
20	1	4	-0.161714	-0.55699998	-1.391	0.80500001
21	1	5	0.111543	-0.0060000001	-2.3380001	0.62
22	1	5	0.111543	-0.43200001	-1.183	1.892
23	1	4	0.118568	0.016000001	-0.20100001	-0.025
24	1	2	-0.10101	0.94199997	0.64999998	0.78200001
25	1	2	-0.062687002	0.639	1.415	1.841
26	1	3	0.197161	-0.38	1.492	2.198
27	1	2	-0.30265701	1.7309999	2.1500001	2.523
28	1	3	0.20265301	1.5	2.7780001	3.3740001
29	1	2	0.39660999	3.0009999	2.0309999	2.092
30	1	1	-0.454337	4.0180001	2.721	2.7449999
31	1	2	-0.14665	3.3099999	1.164	0.92500001
32	1	3	0.19289701	4.3309999	1.049	0.58700001
33	1	2	-0.207387	2.303	0.52600002	0.308
34	1	4	-0.037239	2.3900001	-0.41499999	-0.85399997
35	1	4	-0.138813	3.145	0.22499999	-2.0350001
36	1	5	0.079107001	4.2129998	0.39199999	-1.779
37	1	5	0.079107001	2.6919999	1.204	-2.3039999
38	1	5	0.079107001	3.0999999	-0.44100001	-2.924
39	1	4	-0.138813	3.082	-1.72	-0.421
40	1	5	0.079107001	3.096	-2.447	-1.26
41	1	5	0.079107001	4.131	-1.523	-0.111
42	1	5	0.079107001	2.546	-2.1819999	0.43599999
43	1	4	-0.161714	0.89499998	-0.67900002	-1.221
44	1	5	0.111543	0.713	-1.745	-1.479
45	1	5	0.111543	0.62599999	-0.103	-2.1359999
46	1	2	0.62367499	5.0149999	2.6440001	2.4289999
47	1	6	-0.53260201	5.6259999	1.6	2.585
48	1	1	-0.052894998	-5.0539999	2.9170001	-2.1170001
49	1	2	0.23270801	-4.0869999	3.401	-2.994
50	1	2	-0.36475199	-2.9660001	2.6930001	-3.247
51	1	3	0.201014	-2.802	1.7359999	-2.7690001
52	1	2	-0.063865997	-1.942	3.224	-4.177
53	1	3	0.197161	-1.0319999	2.668	-4.3649998
54	1	2	-0.10101	-2.1619999	4.4060001	-4.7709999
55	1	2	-0.207416	-3.3670001	5.165	-4.5110002
56	1	2	-0.18360899	-4.296	4.7140002	-3.654
57	1	3	0.194233	-5.184	5.2940001	-3.4389999
58	1	4	-0.037239	-3.359	6.4650002	-5.2540002
59	1	4	-0.138813	-3.158	7.631	-4.2680001
60	1	5	0.079107001	-4.0100002	7.6929998	-3.5569999
61	1	5	0.079107001	-3.0910001	8.5939999	-4.8179998
62	1	5	0.079107001	-2.223	7.493	-3.6830001
63	1	4	-0.138813	-4.6620002	6.6589999	-6.053
64	1	5	0.079107001	-5.5310001	6.7750001	-5.3720002
65	1	5	0.079107001	-4.849	5.7849998	-6.7140002
66	1	5	0.079107001	-4.5910001	7.5700002	-6.6859999
67	1	4	-0.161714	-2.131	6.3319998	-6.2090001
68	1	5	0.111543	-1.553	7.2800002	-6.277
69	1	5	0.111543	-2.4809999	6.125	-7.2449999
70	1	4	0.118568	-1.257	5.1430001	-5.7030001
71	1	2	-0.10101	-0.76499999	4.2919998	-6.8270001
72	1	2	-0.003731	-1.4910001	3.527	-7.6560001
73	1	3	0.197161	-2.5650001	3.45	-7.5440001
74	1	2	-0.43636501	-0.796	2.7920001	-8.7390003
75	1	3	0.20634601	-1.368	2.164	-9.4099998
76	1	2	0.35635501	0.537	2.9100001	-8.8920002
77	1	7	-0.65912598	1.178	2.221	-9.9169998
78	1	8	0.424604	2.1789999	2.2950001	-10.052
79	1	2	-0.37185699	1.3150001	3.7780001	-7.9689999
80	1	3	0.20003401	2.3829999	3.8929999	-8.099
81	1	2	-0.177999	0.66799998	4.4159999	-6.9809999
82	1	4	-0.037239	1.243	5.3559999	-5.967
83	1	4	-0.138813	2.4300001	4.717	-5.2210002
84	1	5	0.079107001	3.286	4.5500002	-5.9089999
85	1	5	0.079107001	2.1359999	3.7379999	-4.7849998
86	1	5	0.079107001	2.7690001	5.3829999	-4.3990002
87	1	4	-0.138813	1.684	6.6609998	-6.6550002
88	1	5	0.079107001	2.0550001	7.3889999	-5.901
89	1	5	0.079107001	2.5	6.4640002	-7.3829999
90	1	5	0.079107001	0.833	7.1240001	-7.2010002
91	1	4	-0.161714	0.048999999	5.6199999	-4.9970002
92	1	5	0.111543	-0.0070000002	6.6869998	-4.6859999
93	1	5	0.111543	0.19599999	5.0450001	-4.0549998
94	1	2	0.46297899	5.5029998	3.493	1.9630001
95	1	6	-0.62136799	4.868	4.507	1.727
96	1	9	-0.106567	7.2049999	3.408	1.55

Bonds

1	1	1	2
2	2	1	48
3	3	2	3
4	3	2	9
5	4	3	4
6	3	3	5
7	4	5	6
8	3	5	7
9	3	7	8
10	5	7	23
11	3	8	9
12	5	8	11
13	4	9	10
14	6	11	12
15	6	11	16
16	6	11	20
17	7	12	13
18	7	12	14
19	7	12	15
20	7	16	17
21	7	16	18
22	7	16	19
23	7	20	21
24	7	20	22
25	6	20	23
26	5	23	24
27	6	23	43
28	3	24	25
29	3	24	33
30	4	25	26
31	3	25	27
32	4	27	28
33	3	27	29
34	1	29	30
35	3	29	31
36	8	30	46
37	4	31	32
38	3	31	33
39	5	33	34
40	6	34	35
41	6	34	39
42	6	34	43
43	7	35	36
44	7	35	37
45	7	35	38
46	7	39	40
47	7	39	41
48	7	39	42
49	7	43	44
50	7	43	45
51	9	46	47
52	10	46	94
53	1	48	49
54	3	49	50
55	3	49	56
56	4	50	51
57	3	50	52
58	4	52	53
59	3	52	54
60	3	54	55
61	5	54	70
62	3	55	56
63	5	55	58
64	4	56	57
65	6	58	59
66	6	58	63
67	6	58	67
68	7	59	60
69	7	59	61
70	7	59	62
71	7	63	64
72	7	63	65
73	7	63	66
74	7	67	68
75	7	67	69
76	6	67	70
77	5	70	71
78	6	70	91
79	3	71	72
80	3	71	81
81	4	72	73
82	3	72	74
83	4	74	75
84	3	74	76
85	11	76	77
86	3	76	79
87	12	77	78
88	4	79	80
89	3	79	81
90	5	81	82
91	6	82	83
92	6	82	87
93	6	82	91
94	7	83	84
95	7	83	85
96	7	83	86
97	7	87	88
98	7	87	89
99	7	87	90
100	7	91	92
101	7	91	93
102	9	94	95
103	13	94	96

Angles

1	3	8	9	10
2	1	27	29	30
3	4	82	87	89
4	4	7	23	43
5	1	24	33	34
6	6	37	35	38
7	5	56	55	58
8	4	35	34	43
9	4	11	16	19
10	4	7	23	20
11	1	70	71	81
12	3	76	79	80
13	6	84	83	85
14	3	53	52	54
15	4	11	12	14
16	5	79	81	82
17	3	29	31	32
18	4	58	63	66
19	1	1	2	3
20	4	34	35	37
21	4	54	70	91
22	1	27	29	31
23	6	36	35	38
24	4	21	20	23
25	4	23	43	34
26	1	3	5	7
27	3	50	52	53
28	4	54	70	71
29	3	25	27	28
30	6	64	63	65
31	1	24	25	27
32	4	58	59	61
33	4	39	34	43
34	3	49	56	57
35	1	95	94	96
36	3	2	9	10
37	2	1	48	49
38	1	30	29	31
39	4	12	11	16
40	3	71	72	73
41	4	55	58	63
42	4	54	70	67
43	1	72	71	81
44	4	82	91	92
45	1	52	54	55
46	1	30	46	94
47	4	70	91	82
48	6	41	39	42
49	4	11	20	22
50	2	2	1	48
51	1	50	52	54
52	4	55	58	59
53	4	8	11	16
54	4	58	67	68
55	4	58	59	62
56	6	13	12	14
57	4	23	43	45
58	1	71	72	74
59	1	55	54	70
60	4	82	83	84
61	1	47	46	94
62	6	17	16	18
63	6	68	67	69
64	4	16	11	20
65	4	8	11	12
66	6	40	39	42
67	4	69	67	70
68	7	30	46	47
69	6	85	83	86
70	1	46	94	95
71	4	11	20	23
72	1	54	55	56
73	4	70	91	93
74	4	58	67	69
75	1	7	8	9
76	1	74	76	77
77	4	81	82	91
78	3	49	50	51
79	4	82	87	90
80	3	75	74	76
81	4	12	11	20
82	4	82	83	85
83	4	55	58	67
84	6	60	59	61
85	1	23	24	33
86	1	5	7	23
87	6	17	16	19
88	4	68	67	70
89	1	76	79	81
90	6	84	83	86
91	1	71	81	79
92	4	11	12	15
93	1	8	7	23
94	1	46	94	96
95	4	81	82	87
96	4	34	43	44
97	6	18	16	19
98	1	29	31	33
99	4	83	82	87
100	1	24	33	31
101	1	3	2	9
102	4	8	11	20
103	4	22	20	23
104	3	26	25	27
105	4	34	35	38
106	4	34	39	42
107	4	20	23	24
108	4	81	82	83
109	6	60	59	62
110	1	25	27	29
111	1	23	24	25
112	4	20	23	43
113	6	64	63	66
114	3	73	72	74
115	3	2	3	4
116	4	34	43	45
117	6	14	12	15
118	1	25	24	33
119	4	11	16	17
120	2	29	30	46
121	4	34	39	40
122	1	48	49	56
123	4	67	70	71
124	4	58	63	64
125	6	13	12	15
126	4	83	82	91
127	4	59	58	67
128	4	35	34	39
129	1	7	8	11
130	4	11	16	18
131	6	44	43	45
132	3	72	74	75
133	1	1	2	9
134	1	49	56	55
135	4	24	23	43
136	4	59	58	63
137	4	58	67	70
138	4	82	91	93
139	4	58	63	65
140	4	34	35	36
141	1	49	50	52
142	6	36	35	37
143	4	82	83	86
144	4	33	34	39
145	5	31	33	34
146	6	21	20	22
147	3	3	5	6
148	6	40	39	41
149	6	88	87	89
150	1	72	74	76
151	4	87	82	91
152	3	24	25	26
153	1	70	71	72
154	6	89	87	90
155	3	55	56	57
156	1	54	55	58
157	4	58	59	60
158	1	2	9	8
159	4	33	34	35
160	1	50	49	56
161	3	6	5	7
162	6	61	59	62
163	4	70	91	92
164	1	77	76	79
165	1	74	76	79
166	4	63	58	67
167	6	65	63	66
168	3	28	27	29
169	4	11	20	21
170	4	67	70	91
171	1	52	54	70
172	3	32	31	33
173	4	33	34	43
174	2	76	77	78
175	3	80	79	81
176	6	88	87	90
177	1	2	3	5
178	5	9	8	11
179	1	5	7	8
180	3	4	3	5
181	1	48	49	50
182	4	82	87	88
183	4	23	43	44
184	4	11	12	13
185	4	34	39	41
186	6	92	91	93
187	1	71	81	82
188	3	51	50	52
189	4	7	23	24
190	4	71	70	91

Dihedrals

1	5	7	23	43	44
2	9	35	34	39	42
3	9	60	59	58	67
4	1	1	2	9	10
5	9	12	11	16	18
6	10	29	30	46	94
7	4	20	23	24	33
8	1	52	50	49	56
9	4	24	33	34	43
10	5	24	23	43	44
11	1	5	7	8	9
12	6	58	67	70	91
12	7	58	67	70	91
12	8	58	67	70	91
13	9	85	83	82	91
14	1	56	55	54	70
15	9	84	83	82	87
16	5	55	58	59	62
17	6	20	23	43	34
17	7	20	23	43	34
17	8	20	23	43	34
18	1	24	25	27	28
19	1	4	3	5	6
20	1	27	29	31	33
21	5	58	67	70	71
22	9	60	59	58	63
23	6	63	58	67	70
23	7	63	58	67	70
23	8	63	58	67	70
24	5	7	23	20	22
25	1	1	2	3	4
26	1	24	33	31	29
27	1	7	8	9	10
28	1	70	71	81	79
29	5	81	82	91	93
30	1	49	50	52	54
31	9	85	83	82	87
32	9	83	82	87	88
33	9	35	34	39	40
34	1	2	9	8	7
35	1	72	74	76	77
36	1	72	71	81	79
37	9	88	87	82	91
38	1	73	72	74	76
39	9	18	16	11	20
40	4	9	8	11	20
41	9	14	12	11	16
42	12	74	76	77	78
43	4	81	71	70	91
44	9	59	58	67	68
45	11	30	46	94	95
46	5	33	34	35	38
47	9	40	39	34	43
48	9	87	82	91	93
49	1	24	25	27	29
50	1	23	24	33	34
51	6	67	70	91	82
51	7	67	70	91	82
51	8	67	70	91	82
52	2	27	29	30	46
53	1	1	2	3	5
54	5	11	20	23	24
55	5	71	70	91	92
56	9	20	23	43	45
57	9	41	39	34	43
58	1	75	74	76	77
59	1	23	24	25	26
60	1	76	79	81	82
61	1	3	2	9	10
62	1	10	9	8	11
63	5	7	23	43	34
64	6	16	11	20	23
64	7	16	11	20	23
64	8	16	11	20	23
65	1	50	49	56	57
66	5	55	58	67	70
67	1	70	71	72	74
68	6	11	20	23	43
68	7	11	20	23	43
68	8	11	20	23	43
69	9	15	12	11	16
70	6	12	11	20	23
70	7	12	11	20	23
70	8	12	11	20	23
71	4	54	70	71	72
72	9	65	63	58	67
73	4	33	24	23	43
74	1	54	55	56	57
75	9	36	35	34	39
76	5	24	23	43	34
77	1	52	54	55	56
78	1	2	3	5	7
79	9	17	16	11	20
80	5	33	34	43	45
81	5	54	70	67	58
82	2	3	2	1	48
83	9	59	58	63	66
84	1	71	81	79	76
85	5	54	70	91	92
86	9	69	67	70	91
87	4	71	81	82	83
88	4	7	8	11	20
89	5	55	58	63	65
90	9	35	34	43	45
91	5	8	11	20	23
92	5	23	43	34	33
93	4	54	55	58	67
94	5	33	34	39	40
95	1	51	50	52	53
96	5	69	67	70	71
97	5	81	82	87	89
98	1	74	76	79	80
99	5	81	82	83	84
100	1	5	3	2	9
101	1	50	52	54	70
102	5	21	20	23	24
103	1	30	29	31	32
104	9	67	70	91	93
105	9	84	83	82	91
106	4	7	8	11	16
107	1	5	7	8	11
108	9	14	12	11	20
109	1	28	27	29	30
110	9	63	58	67	68
111	9	87	82	91	92
112	5	8	11	16	18
113	9	21	20	23	43
114	1	26	25	27	28
115	4	54	55	58	63
116	9	36	35	34	43
117	5	7	23	20	11
118	5	8	11	12	13
119	4	52	54	70	91
120	5	7	23	43	45
121	5	55	58	63	66
122	1	50	52	54	55
123	4	55	54	70	91
124	4	52	54	70	71
125	4	7	8	11	12
126	9	12	11	16	19
127	5	81	82	87	90
128	5	33	34	39	41
129	5	24	23	43	45
130	1	51	50	52	54
131	4	71	81	82	91
132	1	74	76	79	81
133	4	54	55	58	59
134	9	86	83	82	91
135	4	55	54	70	71
136	1	30	29	31	33
137	4	31	33	34	39
138	1	4	3	5	7
139	9	15	12	11	20
140	1	6	5	7	8
141	1	48	49	56	55
142	1	26	25	24	33
143	1	51	50	49	56
144	1	71	72	74	75
145	4	52	54	70	67
146	9	89	87	82	91
147	5	8	11	16	19
148	1	25	27	29	30
149	1	4	3	2	9
150	1	11	8	7	23
151	1	71	81	79	80
152	2	1	48	49	50
153	1	3	5	7	23
154	1	58	55	54	70
155	9	35	34	39	41
156	4	55	54	70	67
157	4	71	81	82	87
158	9	83	82	91	93
159	4	54	70	71	81
160	4	7	23	24	33
161	4	31	33	34	35
162	9	83	82	87	89
163	9	86	83	82	87
164	1	73	72	71	81
165	5	70	91	82	81
166	9	59	58	67	69
167	11	30	46	94	96
168	9	59	58	63	64
169	9	64	63	58	67
170	1	77	76	79	80
171	4	31	33	34	43
172	4	67	70	71	72
173	5	81	82	91	92
174	2	31	29	30	46
175	12	78	77	76	79
176	5	22	20	23	24
177	1	23	24	25	27
178	5	55	58	59	60
179	9	39	34	43	44
180	9	37	35	34	39
181	1	72	74	76	79
182	9	83	82	87	90
183	1	23	24	33	31
184	4	7	23	24	25
185	1	49	56	55	58
186	4	56	55	58	67
187	9	22	20	23	43
188	5	54	70	67	68
189	4	8	7	23	24
190	1	48	49	50	51
191	3	2	1	48	49
192	4	8	7	23	43
193	5	54	70	91	82
194	4	5	7	23	24
195	1	24	33	31	32
196	1	1	2	9	8
197	4	24	33	34	39
198	1	49	56	55	54
199	4	56	55	58	63
200	1	29	31	33	34
201	4	8	7	23	20
202	9	38	35	34	39
203	5	33	34	35	36
204	1	75	74	76	79
205	9	19	16	11	20
206	5	81	82	83	85
207	4	5	7	23	43
208	1	32	31	33	34
209	1	27	25	24	33
210	1	27	29	31	32
211	9	37	35	34	43
212	6	23	43	34	39
212	7	23	43	34	39
212	8	23	43	34	39
213	9	66	63	58	67
214	1	28	27	29	31
215	9	63	58	67	69
216	4	5	7	23	20
217	1	53	52	54	70
218	4	24	33	34	35
219	1	26	25	27	29
220	1	52	54	55	58
221	4	56	55	58	59
222	9	61	59	58	67
223	5	8	11	12	14
224	5	71	70	91	93
225	4	79	81	82	83
226	1	25	24	33	34
227	9	13	12	11	20
228	9	16	11	20	21
229	1	50	49	56	55
230	5	55	58	67	68
231	1	73	72	74	75
232	9	12	11	20	21
233	6	23	43	34	35
233	7	23	43	34	35
233	8	23	43	34	35
234	5	81	82	83	86
235	5	33	34	35	37
236	9	61	59	58	63
237	9	38	35	34	43
238	1	74	72	71	81
239	4	67	70	71	81
240	1	53	52	54	55
241	9	67	70	91	92
242	9	13	12	11	16
243	5	54	70	91	93
244	1	71	72	74	76
245	5	8	11	20	21
246	9	62	59	58	67
247	1	80	79	81	82
248	1	25	27	29	31
249	1	9	8	7	23
250	5	8	11	12	15
251	9	20	23	43	44
252	5	71	70	91	82
253	9	16	11	20	22
254	1	3	2	9	8
255	9	42	39	34	43
256	5	55	58	67	69
257	1	70	71	72	73
258	9	12	11	20	22
259	4	25	24	23	43
260	2	29	30	46	47
261	1	57	56	55	58
262	6	59	58	67	70
262	7	59	58	67	70
262	8	59	58	67	70
263	2	1	48	49	56
264	1	2	9	8	11
265	4	20	23	24	25
266	11	47	46	94	95
267	1	2	3	5	6
268	9	59	58	63	65
269	5	33	34	43	44
270	9	62	59	58	63
271	1	77	76	79	81
272	4	79	81	82	91
273	2	9	2	1	48
274	1	25	24	33	31
275	1	48	49	56	57
276	6	70	91	82	87
276	7	70	91	82	87
276	8	70	91	82	87
277	5	55	58	63	64
278	9	35	34	43	44
279	9	12	11	16	17
280	5	8	11	20	22
281	4	9	8	11	16
282	1	6	5	7	23
283	1	70	71	81	82
284	5	81	82	87	88
285	9	68	67	70	91
286	5	33	34	39	42
287	4	79	81	82	87
288	9	90	87	82	91
289	9	83	82	91	92
290	5	55	58	59	61
291	9	39	34	43	45
292	4	72	71	70	91
293	1	72	71	81	82
294	5	68	67	70	71
295	6	70	91	82	83
295	7	70	91	82	83
295	8	70	91	82	83
296	1	3	5	7	8
297	5	54	70	67	69
298	5	7	23	20	21
299	5	8	11	16	17
300	4	9	8	11	12
301	1	48	49	50	52
302	11	47	46	94	96
303	1	49	50	52	53

Impropers

1	1	71	70	72	81
4	1	49	56	48	50
14	1	79	76	80	81
16	1	72	71	73	74
19	1	79	80	81	76
20	1	74	76	72	75
23	1	55	58	54	56
34	1	25	24	26	27
37	2	46	30	47	94
43	1	27	29	25	28
53	1	55	54	56	58
55	1	94	95	96	46
60	1	31	32	33	29
78	1	2	9	1	3
92	1	2	1	3	9
94	1	81	82	71	79
106	1	72	74	71	73
108	1	56	57	49	55
129	1	31	33	29	32
136	1	31	29	32	33
148	1	3	4	5	2
157	1	94	46	95	96
161	1	7	23	5	8
162	1	52	50	53	54
165	1	24	23	25	33
167	1	50	51	52	49
173	1	76	77	79	74
179	1	2	3	9	1
186	1	3	2	4	5
210	1	29	27	30	31
215	1	25	26	27	24
239	1	24	33	23	25
272	1	3	5	2	4
274	1	5	3	6	7
278	1	50	49	51	52
279	1	27	25	28	29
281	1	81	79	82	71
284	1	49	48	50	56
290	1	49	50	56	48
294	1	79	81	76	80
301	1	24	25	33	23
305	2	46	47	94	30
329	1	76	74	77	79
337	1	94	96	46	95
344	1	8	11	7	9
359	1	8	7	9	11
363	1	55	56	58	54
372	1	52	53	54	50
388	1	9	2	8	10
399	2	46	94	30	47
413	1	74	72	75	76
414	1	76	79	74	77
418	1	72	73	74	71
424	1	71	72	81	70
430	1	33	34	24	31
431	1	52	54	50	53
432	1	74	75	76	72
439	1	50	52	49	51
442	1	7	8	23	5
443	1	29	30	31	27
446	1	54	70	52	55
453	1	8	9	11	7
460	1	33	24	31	34
469	1	9	8	10	2
477	1	56	49	55	57
480	1	56	55	57	49
481	1	71	81	70	72
484	1	27	28	29	25
488	1	5	7	3	6
499	1	9	10	2	8
505	1	7	5	8	23
506	1	29	31	27	30
516	1	33	31	34	24
562	1	54	52	55	70
563	1	54	55	70	52
577	1	25	27	24	26
579	1	81	71	79	82
583	1	5	6	7	3
