Title

7875 atoms
7750 bonds
14125 angles
23625 dihedrals
1500 impropers

8 atom types
11 bond types
5 angle types
27 dihedral types
2 improper types
-9.441800117 90.55819988 xlo xhi
-8.139300346 91.86069965 ylo yhi
-9.023200035 90.97679996 zlo zhi
0.0 0.0 0.0 xy xz yz

Masses

1	15.99943
2	12.01078
3	1.007947
4	1.007947
5	12.01078
6	15.99943
7	15.99943
8	1.007947


Pair Coeffs

1	0.16846514	3.0251065
2	0.10884061	3.3795318
3	0.016409246	2.5832257
4	0.015779483	2.6445434
5	0.086879315	3.4806469
6	0.2102061	3.0398122
7	0.20947353	2.99716
8	1.2326e-05	0.53453923

Bond Coeffs

1 harmonic	366.7408841747	1.425895053732
2 harmonic	300.03137914615	1.451203938761
3 harmonic	264.62148576755	1.52190126495
4 harmonic	370.04670688625	1.093899492634
5 harmonic	301.15400723785	1.345741232799
6 harmonic	582.698766451	1.225198386222
7 harmonic	329.44145381095	1.523435958334
8 harmonic	279.1350963404	1.454628925034
9 harmonic	329.96998057905	1.427343958716
10 harmonic	543.5267831885	0.9716763312559
11 harmonic	385.7604595587	1.369745182308


Angle Coeffs

1 harmonic	53.20531626545	116.5475862634
2 harmonic	65.09061609600001	110.3538806181
3 harmonic	201.41175231035	127.4691416191
4 harmonic	57.8982893754	126.8062420451
5 harmonic	48.776492647595	115.6030999533


Dihedral Coeffs

1 fourier 1	0.1155372516788	3	0
2 fourier 1	0.1115525666802	3	0
3 fourier 1	0.3432490222662	1	0
4 fourier 1	0.0473758381877	3	0
5 fourier 1	0.457973137376	1	0
6 fourier 1	0.09223874044423	3	0
7 fourier 1	0.3159935921949	2	180
8 fourier 1	0.3247796806857	1	180
9 fourier 1	0.1040663847541	3	0
10 fourier 1	0.1918272375143	3	0
11 fourier 1	0.9202179876409	1	180
12 fourier 1	1.163809172478	2	180
13 fourier 1	0.1679186987369	1	180
14 fourier 1	2.779853741805	2	180
15 fourier 1	0.02664938770063	3	0
16 fourier 1	0.1911926717192	3	0
17 fourier 1	-0.3703352413219	2	0
18 fourier 1	0.4541676554336	1	0
19 fourier 1	0.1489710476446	2	0
20 fourier 1	0.02960027280666	3	180
21 fourier 1	0.9974165607242	2	180
22 fourier 1	0.3445382149273	3	0
23 fourier 1	0.1364556373303	1	0
24 fourier 1	0.3026390167484	3	0
25 fourier 1	2.687457892086	2	180
26 fourier 1	2.772607909663	2	180
27 fourier 1	0.09692684957115	1	0


Improper Coeffs

1 3.5	-1	2
2 0.3666666666666667	-1	2


Atoms

1	4	1	-0.176467	0.2185	-3.8762	5.1279998
2	4	2	0.032547001	0.78600001	-3.1417999	4.0776
3	4	2	-0.145805	-0.1816	-3.0864999	2.8894999
4	4	2	-0.13843	0.44010001	-2.4507	1.6346999
5	4	2	0.13482	0.671	-0.94120002	1.7654999
6	4	1	-0.49380001	1.8225	-0.6886	2.5202
7	4	3	0.080477998	0.8046	-0.51279998	0.74650002
8	4	3	0.080477998	-0.21349999	-0.45379999	2.2346001
9	4	4	0.088701002	-0.2622	-2.6173	0.78860003
10	4	4	0.088701002	1.3931	-2.9614999	1.3747
11	4	4	0.089703001	-0.48559999	-4.1244998	2.6326001
12	4	4	0.089703001	-1.1016999	-2.5339	3.1824999
13	4	3	0.080123998	1.7557	-3.5966001	3.77
14	4	3	0.080123998	0.9849	-2.1148	4.4461999
15	5	5	0.76248401	1.9059	0.34619999	2.5827999
16	5	6	-0.55085099	2.6794	0.83329999	3.391
17	5	2	-0.209153	1.0895	1.2391	1.6950999
18	5	2	-0.112846	0.1895	0.42179999	0.76200002
19	5	2	-0.092001997	-0.64160001	1.3394001	-0.1429
20	5	2	-0.25735599	-1.5417	0.523	-1.0766
21	5	5	0.51769698	-2.3580999	1.4151	-1.9637001
22	5	6	-0.68120497	-3.1315999	0.92799997	-2.7720001
23	5	4	0.114486	-2.2302999	-0.1089	-0.47400001
24	5	4	0.114486	-0.91589999	-0.1402	-1.7135
25	5	4	0.076017998	-1.2731	2.0037	0.48820001
26	5	4	0.076017998	0.0407	1.9728	-0.7525
27	5	4	0.084958002	-0.4921	-0.2119	1.3709
28	5	4	0.084958002	0.82090002	-0.24240001	0.1309
29	5	4	0.117849	0.46439999	1.9011	2.332
30	5	4	0.117849	1.7781	1.8710001	1.0925
31	1	1	-0.176467	0.31439999	-4.8347001	4.8898001
32	1	2	0.032659002	1.1993001	-4.8931999	3.8039999
33	1	2	-0.140071	2.6431	-4.7276001	4.2921
34	1	2	-0.16712099	3.6578	-4.6018	3.1419001
35	1	2	0.085992001	3.8650999	-5.9082999	2.3655
36	1	7	-0.68381798	2.8078001	-6.1170001	1.4724
37	1	8	0.379206	2.9949	-6.9797001	1.0201
38	1	3	0.070619002	4.8147998	-5.8313999	1.7905999
39	1	3	0.070619002	3.9523001	-6.7656002	3.0699999
40	1	4	0.092165999	4.6338	-4.3074002	3.5834999
41	1	4	0.092165999	3.3536	-3.7897999	2.4466
42	1	4	0.089872003	2.7051001	-3.8008001	4.9042001
43	1	4	0.089872003	2.9168	-5.5808001	4.9498
44	1	3	0.080123998	0.9465	-4.1062999	3.0581999
45	1	3	0.080123998	1.0802	-5.8836999	3.3185
46	2	5	0.51769698	-2.2704999	2.4956	-1.899
47	2	6	-0.68120497	-3.0574999	3.1217999	-1.2068
48	2	2	-0.25735599	-1.1789	3.2042999	-2.6417
49	2	2	-0.092001997	-1.7577	4.1237001	-3.7223001
50	2	2	-0.110321	-0.63730001	4.8281002	-4.5023999
51	2	2	-0.219161	-1.1855	5.8060999	-5.5500002
52	2	5	0.82471502	-1.8779	5.0917001	-6.6690001
53	2	6	-0.55211401	-1.2032	4.5447001	-7.5822001
54	2	7	-0.66455197	-3.2671001	5.0058999	-6.6834002
55	2	8	0.39540499	-3.7485001	4.5138998	-7.4256001
56	2	4	0.11888	-1.886	6.5243001	-5.0703001
57	2	4	0.11888	-0.34110001	6.3948002	-5.9692001
58	2	4	0.084958002	-0.0057999999	5.4007001	-3.7893
59	2	4	0.084958002	0.0112	4.0727	-4.9990001
60	2	4	0.076017998	-2.4102001	4.8888001	-3.2456
61	2	4	0.076017998	-2.3750999	3.5179999	-4.4201999
62	2	4	0.114486	-0.51719999	2.4468999	-3.1138999
63	2	4	0.114486	-0.57440001	3.7960999	-1.9196
64	4	1	-0.176467	-4.9155998	0.2992	14.7907
65	4	2	0.032547001	-3.5741	0.094599999	15.1422
66	4	2	-0.145805	-3.2019	0.97729999	16.3393
67	4	2	-0.13843	-1.7006	0.94150001	16.671101
68	4	2	0.13482	-1.2381999	-0.39359999	17.2651
69	4	1	-0.49380001	-1.0845	-1.3489	16.2537
70	4	3	0.080477998	-0.2572	-0.2376	17.7682
71	4	3	0.080477998	-1.9672	-0.75099999	18.0273
72	4	4	0.088701002	-1.5017999	1.7373	17.422199
73	4	4	0.088701002	-1.0996	1.1861	15.7681
74	4	4	0.089703001	-3.4751	2.0285001	16.101801
75	4	4	0.089703001	-3.7976	0.67210001	17.2281
76	4	3	0.080123998	-2.911	0.31470001	14.2742
77	4	3	0.080123998	-3.4502001	-0.97399998	15.4125
78	5	5	0.76248401	-0.78969997	-2.2265999	16.727501
79	5	6	-0.55085099	-0.8272	-3.2781999	16.1098
80	5	2	-0.209153	-0.3224	-2.2118001	18.1535
81	5	2	-0.112846	-0.35589999	-0.79390001	18.7341
82	5	2	-0.092001997	0.1231	-0.78490001	20.1908
83	5	2	-0.25735599	0.090400003	0.63260001	20.7721
84	5	5	0.51769698	0.55690002	0.64780003	22.197399
85	5	6	-0.68120497	0.59439999	1.6993999	22.815201
86	5	4	0.114486	-0.94760001	1.0296	20.731501
87	5	4	0.114486	0.74949998	1.298	20.1721
88	5	4	0.076017998	-0.5345	-1.4463	20.7978
89	5	4	0.076017998	1.1632	-1.1774	20.2395
90	5	4	0.084958002	-1.3952	-0.40099999	18.6849
91	5	4	0.084958002	0.3017	-0.13249999	18.127199
92	5	4	0.117849	-0.98150003	-2.8764	18.7523
93	5	4	0.117849	0.7155	-2.6087	18.194099
94	1	1	-0.176467	-4.9509001	1.1531	14.2866
95	1	2	0.032659002	-3.6262	1.4958	13.9816
96	1	2	-0.140071	-3.1247001	0.65859997	12.7992
97	1	2	-0.16712099	-1.6234	0.84899998	12.5192
98	1	2	0.085992001	-1.2809	2.227	11.9392
99	1	7	-0.68381798	-1.2618001	3.1912999	12.9536
100	1	8	0.379206	-1.0531	4.0537	12.5104
101	1	3	0.070619002	-0.27250001	2.1733999	11.4717
102	1	3	0.070619002	-2.016	2.5072999	11.1518
103	1	4	0.092165999	-1.3182	0.079899997	11.7779
104	1	4	0.092165999	-1.033	0.66720003	13.4432
105	1	4	0.089872003	-3.2948	-0.41620001	13.03
106	1	4	0.089872003	-3.7156	0.9023	11.8899
107	1	3	0.080123998	-2.9744999	1.3444	14.8714
108	1	3	0.080123998	-3.6041999	2.5720999	13.7134
109	2	5	0.51769698	0.86549997	-0.26840001	22.691999
110	2	6	-0.68120497	0.060899999	-0.88349998	23.3738
111	2	2	-0.25735599	2.2643001	-0.77780002	22.520201
112	2	2	-0.092001997	3.0235	-0.75629997	23.851
113	2	2	-0.110321	4.4663	-1.2514	23.668699
114	2	2	-0.219161	5.2344999	-1.3031	24.995899
115	2	5	0.82471502	5.4923	0.066699997	25.5429
116	2	6	-0.55211401	6.4246001	0.77029997	25.069799
117	2	7	-0.66455197	4.6813998	0.57429999	26.554001
118	2	8	0.39540499	4.8344002	1.5041	26.9237
119	2	4	0.11888	4.6687999	-1.9061	25.739799
120	2	4	0.11888	6.2087002	-1.8109	24.828199
121	2	4	0.084958002	4.4446998	-2.2763	23.2395
122	2	4	0.084958002	5.0043998	-0.59399998	22.9503
123	2	4	0.076017998	2.5011001	-1.4096	24.5849
124	2	4	0.076017998	3.0321	0.2825	24.246
125	2	4	0.114486	2.7907	-0.1357	21.781799
126	2	4	0.114486	2.2256999	-1.8142999	22.1185
127	4	1	-0.176467	-4.6185002	3.8280001	40.176601
128	4	2	0.032547001	-3.5666001	2.9087	40.291901
129	4	2	-0.145805	-3.5344999	1.9873	39.066898
130	4	2	-0.13843	-2.5208001	0.8387	39.202702
131	4	2	0.13482	-1.0612	1.3012	39.134102
132	4	1	-0.49380001	-0.66799998	1.8544	40.358299
133	4	3	0.080477998	-0.4192	0.4188	38.912498
134	4	3	0.080477998	-0.9285	2.0427999	38.314098
135	4	4	0.088701002	-2.6959	0.1327	38.361401
136	4	4	0.088701002	-2.6989999	0.2757	40.145
137	4	4	0.089703001	-4.5434999	1.5396	38.934799
138	4	4	0.089703001	-3.3148	2.5857	38.154999
139	4	3	0.080123998	-3.6781001	2.3117001	41.2262
140	4	3	0.080123998	-2.618	3.48	40.355202
141	5	5	0.76248401	0.31810001	2.1603999	40.233799
142	5	6	-0.55085099	0.82200003	2.8980999	41.064899
143	5	2	-0.209153	1.1210001	1.7068	39.0499
144	5	2	-0.112846	0.2969	0.79180002	38.137699
145	5	2	-0.092001997	1.1226	0.331	36.930401
146	5	2	-0.25735599	0.29929999	-0.5844	36.017799
147	5	5	0.51769698	1.1013	-1.0377001	34.834301
148	5	6	-0.68120497	0.59740001	-1.7754	34.003201
149	5	4	0.114486	-0.59890002	-0.0394	35.6535
150	5	4	0.114486	-0.034400001	-1.4789	36.588501
151	5	4	0.076017998	1.4569	1.2214	36.352798
152	5	4	0.076017998	2.0218	-0.219	37.2868
153	5	4	0.084958002	-0.60250002	1.3408999	37.781898
154	5	4	0.084958002	-0.037500001	-0.0986	38.715302
155	5	4	0.117849	1.4538	2.6008999	38.480202
156	5	4	0.117849	2.0192001	1.1619	39.414299
157	1	1	-0.176467	-5.4503002	3.3399	40.409901
158	1	2	0.032659002	-5.0556998	2.1233001	40.983898
159	1	2	-0.140071	-4.6142001	2.3446	42.435299
160	1	2	-0.16712099	-3.9985001	1.0883	43.0765
161	1	2	0.085992001	-5.0222998	-0.0198	43.353001
162	1	7	-0.68381798	-5.3218002	-0.71139997	42.1735
163	1	8	0.379206	-5.9965	-1.3958	42.418701
164	1	3	0.070619002	-4.5843	-0.73089999	44.088299
165	1	3	0.070619002	-5.9482999	0.41229999	43.794601
166	1	4	0.092165999	-3.5501001	1.3901	44.047199
167	1	4	0.092165999	-3.1747	0.69599998	42.441898
168	1	4	0.089872003	-3.8447001	3.1478	42.452
169	1	4	0.089872003	-5.4775	2.6968	43.040199
170	1	3	0.080123998	-4.2319002	1.6666	40.390499
171	1	3	0.080123998	-5.9254999	1.4349	40.958698
172	2	5	0.51769698	2.1312001	-0.71869999	34.704601
173	2	6	-0.68120497	2.3764	0.25029999	34.003601
174	2	2	-0.25735599	3.2365	-1.4559	35.3979
175	2	2	-0.092001997	4.1655002	-2.132	34.384201
176	2	2	-0.110321	5.2817001	-2.9114001	35.0961
177	2	2	-0.219161	6.2674999	-3.5474	34.107201
178	2	5	0.82471502	5.6322999	-4.6531	33.3223
179	2	6	-0.55211401	5.4761	-5.7891998	33.844799
180	2	7	-0.66455197	5.1866002	-4.4162002	32.025101
181	2	8	0.39540499	4.7423	-5.1497998	31.487499
182	2	4	0.11888	6.6645999	-2.7730999	33.4146
183	2	4	0.11888	7.1297998	-3.9602001	34.674
184	2	4	0.084958002	5.8474998	-2.2142	35.751099
185	2	4	0.084958002	4.8390002	-3.7009001	35.743099
186	2	4	0.076017998	4.6201	-1.3582	33.726299
187	2	4	0.076017998	3.5690999	-2.826	33.7533
188	2	4	0.114486	2.7906001	-2.2255001	36.0639
189	2	4	0.114486	3.8115001	-0.74000001	36.0256
190	4	1	-0.176467	4.2652998	3.7894001	53.8144
191	4	2	0.032547001	3.0106001	3.1842	53.970901
192	4	2	-0.145805	3.1659999	1.8133	54.639702
193	4	2	-0.13843	1.8542	1.0117	54.6838
194	4	2	0.13482	0.82029998	1.5857	55.658798
195	4	1	-0.49380001	0.1786	2.6928	55.091499
196	4	3	0.080477998	0.062199999	0.79960001	55.875801
197	4	3	0.080477998	1.3095	1.8715	56.617401
198	4	4	0.088701002	2.1005001	-0.0209	55.015099
199	4	4	0.088701002	1.4155	0.93279999	53.665001
200	4	4	0.089703001	3.9099	1.2211	54.063599
201	4	4	0.089703001	3.5697	1.9431	55.6684
202	4	3	0.080123998	2.5072	3.0809	52.982201
203	4	3	0.080123998	2.3894999	3.8441	54.610298
204	5	5	0.76248401	-0.48980001	3.0387001	55.809299
205	5	6	-0.55085099	-0.99680001	4.1396999	55.669399
206	5	2	-0.209153	-0.8337	2.2025001	57.007
207	5	2	-0.112846	-0.086900003	0.86440003	56.983002
208	5	2	-0.092001997	-0.4427	0.0142	58.208599
209	5	2	-0.25735599	0.30340001	-1.3241	58.1852
210	5	5	0.51769698	-0.039700001	-2.1601	59.382301
211	5	6	-0.68120497	0.46720001	-3.2611001	59.522202
212	5	4	0.114486	1.4002	-1.1408	58.179798
213	5	4	0.114486	0.032299999	-1.8873	57.265202
214	5	4	0.076017998	-0.1706	0.57059997	59.133099
215	5	4	0.076017998	-1.5388	-0.1771	58.2192
216	5	4	0.084958002	1.0088	1.0553	56.9716
217	5	4	0.084958002	-0.35890001	0.308	56.058498
218	5	4	0.117849	-0.56230003	2.7655001	57.925701
219	5	4	0.117849	-1.9305	2.0191	57.012402
220	1	1	-0.176467	4.6949	3.3562	53.032001
221	1	2	0.032659002	3.6975	2.6134	52.3848
222	1	2	-0.140071	2.8043001	3.5425	51.5546
223	1	2	-0.16712099	1.5795	2.8268001	50.957901
224	1	2	0.085992001	1.9341	1.8449	49.834099
225	1	7	-0.68381798	2.4298	0.65039998	50.369598
226	1	8	0.379206	2.6536	0.072800003	49.595001
227	1	3	0.070619002	1.0116	1.6252	49.2519
228	1	3	0.070619002	2.6808	2.3004	49.145699
229	1	4	0.092165999	0.90780002	3.6038001	50.534302
230	1	4	0.092165999	1.0123	2.3024001	51.757
231	1	4	0.089872003	2.4345	4.3589001	52.213501
232	1	4	0.089872003	3.4028001	4.0127001	50.744499
233	1	3	0.080123998	3.0906	2.0518999	53.130299
234	1	3	0.080123998	4.1954999	1.8796999	51.718102
235	2	5	0.51769698	-0.73820001	-1.7993	60.1315
236	2	6	-0.68120497	-0.3125	-1.2438	61.131802
237	2	2	-0.25735599	-2.2126	-1.9693	59.924198
238	2	2	-0.092001997	-2.8111	-2.9037001	60.9809
239	2	2	-0.110321	-4.3172998	-3.1004	60.750801
240	2	2	-0.219161	-4.9596	-3.9802999	61.831299
241	2	5	0.82471502	-4.4913001	-5.3997998	61.7435
242	2	6	-0.55211401	-4.9766002	-6.1721001	60.874001
243	2	7	-0.66455197	-3.4969001	-5.8571	62.603401
244	2	8	0.39540499	-3.1599	-6.8098998	62.546398
245	2	4	0.11888	-4.7336001	-3.5702	62.840099
246	2	4	0.11888	-6.0634999	-3.9588001	61.703499
247	2	4	0.084958002	-4.8175998	-2.1080999	60.767799
248	2	4	0.084958002	-4.4916	-3.5511999	59.748798
249	2	4	0.076017998	-2.6479001	-2.4698999	61.992599
250	2	4	0.076017998	-2.2939999	-3.8861001	60.930099
251	2	4	0.114486	-2.3850999	-2.3943	58.912201
252	2	4	0.114486	-2.7028	-0.97210002	59.973701
253	4	1	-0.176467	-1.4328001	1.3044	81.844902
254	4	2	0.032547001	-0.57889998	1.2445	80.734901
255	4	2	-0.145805	-0.97149998	0.070699997	79.830002
256	4	2	-0.13843	0.0275	-0.16869999	78.685402
257	4	2	0.13482	-0.0035000001	0.92259997	77.609596
258	4	1	-0.49380001	0.69529998	2.0546999	78.044601
259	4	3	0.080477998	0.48320001	0.52780002	76.689301
260	4	3	0.080477998	-1.0554	1.1896	77.359802
261	4	4	0.088701002	-0.2386	-1.1339999	78.201401
262	4	4	0.088701002	1.058	-0.27790001	79.088799
263	4	4	0.089703001	-1.0127	-0.8531	80.447197
264	4	4	0.089703001	-1.9911	0.24089999	79.418503
265	4	3	0.080123998	0.47940001	1.1427	81.068497
266	4	3	0.080123998	-0.67720002	2.1972001	80.175499
267	5	5	0.76248401	0.61760002	2.7542	77.2789
268	5	6	-0.55085099	0.92409998	3.9145	77.499199
269	5	2	-0.209153	0.13500001	2.3527999	75.915901
270	5	2	-0.112846	-0.1939	0.85699999	75.861397
271	5	2	-0.092001997	-0.68580002	0.45269999	74.4664
272	5	2	-0.25735599	-1.0146	-1.0431	74.410896
273	5	5	0.51769698	-1.4973	-1.4446	73.048897
274	5	6	-0.68120497	-1.8038	-2.6048999	72.828598
275	5	4	0.114486	-1.8063999	-1.2797	75.1549
276	5	4	0.114486	-0.1058	-1.635	74.658096
277	5	4	0.076017998	-1.5973001	1.0389	74.214104
278	5	4	0.076017998	0.1031	0.68290001	73.716103
279	5	4	0.084958002	-0.98189998	0.62639999	76.611801
280	5	4	0.084958002	0.71759999	0.27070001	76.113701
281	5	4	0.117849	-0.773	2.9442999	75.6698
282	5	4	0.117849	0.92680001	2.5895	75.171898
283	1	1	-0.176467	-1.1303	0.60030001	82.475304
284	1	2	0.032659002	0.1225	0.1646	82.021301
285	1	2	-0.140071	1.2057	1.1758	82.414101
286	1	2	-0.16712099	2.5795	0.85799998	81.7976
287	1	2	0.085992001	3.2467	-0.38409999	82.401604
288	1	7	-0.68381798	2.6842999	-1.5483	81.865303
289	1	8	0.379206	3.1454	-2.3067	82.308098
290	1	3	0.070619002	4.3312998	-0.35879999	82.154198
291	1	3	0.070619002	3.1414001	-0.37779999	83.509697
292	1	4	0.092165999	3.2433	1.7287	81.985497
293	1	4	0.092165999	2.4904001	0.74449998	80.695602
294	1	4	0.089872003	0.89600003	2.1824	82.056
295	1	4	0.089872003	1.2877001	1.2262	83.5215
296	1	3	0.080123998	0.1038	0.021500001	80.917397
297	1	3	0.080123998	0.3364	-0.8154	82.495499
298	2	5	0.51769698	-1.5778	-0.71429998	72.249199
299	2	6	-0.68120497	-2.6501999	-0.17039999	72.037903
300	2	2	-0.25735599	-0.37369999	-0.36840001	71.426804
301	2	2	-0.092001997	-0.56569999	-0.7931	69.967102
302	2	2	-0.110321	0.68019998	-0.46430001	69.130699
303	2	2	-0.219161	0.49520001	-0.81870002	67.6493
304	2	5	0.82471502	0.41760001	-2.2988999	67.437202
305	2	6	-0.55211401	1.4696	-2.9927001	67.436798
306	2	7	-0.66455197	-0.82080001	-2.9123001	67.271004
307	2	8	0.39540499	-0.8901	-3.9137001	67.140999
308	2	4	0.11888	-0.42320001	-0.33219999	67.253502
309	2	4	0.11888	1.3576	-0.41909999	67.073303
310	2	4	0.084958002	0.88709998	0.62519997	69.204201
311	2	4	0.084958002	1.5631	-1.0055	69.537399
312	2	4	0.076017998	-1.4452	-0.2615	69.540298
313	2	4	0.076017998	-0.76200002	-1.8864	69.931099
314	2	4	0.114486	0.51130003	-0.88870001	71.8517
315	2	4	0.114486	-0.1973	0.72820002	71.486099
316	4	1	-0.176467	-2.4275	19.2222	-5.9489002
317	4	2	0.032547001	-1.613	18.680599	-4.9449
318	4	2	-0.145805	-1.1646	19.782499	-3.9777
319	4	2	-0.13843	-0.125	19.2988	-2.9526999
320	4	2	0.13482	-0.70190001	18.3433	-1.9023
321	4	1	-0.49380001	-0.84030002	17.057501	-2.4377
322	4	3	0.080477998	-0.0020000001	18.302099	-1.0373
323	4	3	0.080477998	-1.6849	18.718	-1.5369
324	4	4	0.088701002	0.2678	20.1938	-2.4222
325	4	4	0.088701002	0.73540002	18.8216	-3.4711001
326	4	4	0.089703001	-0.70630002	20.605801	-4.5676999
327	4	4	0.089703001	-2.0513999	20.203199	-3.4537001
328	4	3	0.080123998	-0.72890002	18.175501	-5.3975
329	4	3	0.080123998	-2.2054	17.919901	-4.3966999
330	5	5	0.76248401	-1.2503999	16.4723	-1.6821001
331	5	6	-0.55085099	-1.7033	15.3738	-1.9593
332	5	2	-0.209153	-1.2902	16.962999	-0.26449999
333	5	2	-0.112846	-0.67189997	18.360001	-0.1429
334	5	2	-0.092001997	-0.7148	18.8557	1.3077
335	5	2	-0.25735599	-0.0964	20.252501	1.4303
336	5	5	0.51769698	-0.1364	20.743401	2.8469
337	5	6	-0.68120497	0.31659999	21.8419	3.1241
338	5	4	0.114486	-0.65649998	20.9671	0.78829998
339	5	4	0.114486	0.96240002	20.2236	1.0907
340	5	4	0.076017998	-1.7722	18.890301	1.6528
341	5	4	0.076017998	-0.1529	18.147499	1.9563
342	5	4	0.084958002	-1.2329	19.0679	-0.79170001
343	5	4	0.084958002	0.3854	18.325399	-0.48800001
344	5	4	0.117849	-2.3482001	16.9918	0.073899999
345	5	4	0.117849	-0.73009998	16.248301	0.37740001
346	1	1	-0.176467	-1.8227	19.669001	-6.5963998
347	1	2	0.032659002	-0.52060002	19.2547	-6.2828999
348	1	2	-0.140071	-0.27500001	17.8395	-6.8189001
349	1	2	-0.16712099	1.0688	17.245701	-6.3604999
350	1	2	0.085992001	2.2855	17.9135	-7.0135002
351	1	7	-0.68381798	2.5609	19.1374	-6.3927002
352	1	8	0.379206	3.3408999	19.519899	-6.8712001
353	1	3	0.070619002	3.1643	17.241301	-6.8947001
354	1	3	0.070619002	2.1052001	18.062799	-8.1018
355	1	4	0.092165999	1.0762	16.1709	-6.6413999
356	1	4	0.092165999	1.1549	17.2966	-5.2535
357	1	4	0.089872003	-1.0858999	17.1751	-6.4468999
358	1	4	0.089872003	-0.3303	17.8442	-7.9291
359	1	3	0.080123998	-0.3601	19.288401	-5.1817999
360	1	3	0.080123998	0.18799999	19.962999	-6.7595
361	2	5	0.51769698	-0.56389999	20.132099	3.6361001
362	2	6	-0.68120497	-1.7293	20.298	3.9600999
363	2	2	-0.25735599	0.2703	19.082701	4.3056998
364	2	2	-0.092001997	0.48609999	19.4151	5.7858
365	2	2	-0.110321	1.3653001	18.353901	6.4649
366	2	2	-0.219161	1.5470999	18.6236	7.9643998
367	2	5	0.82471502	2.3717	19.848499	8.2131004
368	2	6	-0.55211401	3.6262	19.797899	8.1046
369	2	7	-0.66455197	1.7487	21.0511	8.5344
370	2	8	0.39540499	2.2920001	21.890699	8.6911001
371	2	4	0.11888	0.55479997	18.7309	8.4548998
372	2	4	0.11888	2.0545001	17.7502	8.4280996
373	2	4	0.084958002	0.8858	17.358299	6.3464999
374	2	4	0.084958002	2.3603001	18.3125	5.9688001
375	2	4	0.076017998	-0.4989	19.4606	6.3017001
376	2	4	0.076017998	0.97320002	20.410801	5.8659
377	2	4	0.114486	1.2533	19.0247	3.7909999
378	2	4	0.114486	-0.2367	18.0979	4.2048001
379	4	1	-0.176467	3.7521999	19.6455	24.102501
380	4	2	0.032547001	3.2179999	18.930099	23.021799
381	4	2	-0.145805	1.7864	19.398199	22.735399
382	4	2	-0.13843	1.0706	18.538401	21.68
383	4	2	0.13482	1.6222	18.7269	20.262501
384	4	1	-0.49380001	2.8141999	18.010401	20.1049
385	4	3	0.080477998	0.87080002	18.3444	19.535299
386	4	3	0.080477998	1.7901	19.807699	20.053301
387	4	4	0.088701002	-0.001	18.8358	21.672501
388	4	4	0.088701002	1.1104	17.4643	21.9653
389	4	4	0.089703001	1.2003	19.3409	23.6784
390	4	4	0.089703001	1.7986	20.4641	22.4163
391	4	3	0.080123998	3.2351	17.837099	23.237801
392	4	3	0.080123998	3.8578999	19.119699	22.136
393	5	5	0.76248401	3.1380999	18.1978	19.134399
394	5	6	-0.55085099	4.2775998	17.8971	18.8186
395	5	2	-0.209153	2.2235999	18.830299	18.126699
396	5	2	-0.112846	0.84729999	19.124599	18.7334
397	5	2	-0.092001997	-0.082800001	19.7701	17.6991
398	5	2	-0.25735599	-1.4594001	20.064301	18.3048
399	5	5	0.51769698	-2.3735001	20.696899	17.298
400	5	6	-0.68120497	-3.5130999	20.997499	17.613899
401	5	4	0.114486	-1.3477	20.754499	19.1695
402	5	4	0.114486	-1.9205	19.117399	18.6625
403	5	4	0.076017998	0.3712	20.7202	17.3393
404	5	4	0.076017998	-0.20290001	19.0835	16.831699
405	5	4	0.084958002	0.96710002	19.8102	19.600901
406	5	4	0.084958002	0.39340001	18.1744	19.0931
407	5	4	0.117849	2.6847	19.7763	17.7701
408	5	4	0.117849	2.1119001	18.1402	17.261999
409	1	1	-0.176467	3.3627	19.2512	24.925501
410	1	2	0.032659002	2.7460001	18.0513	24.5443
411	1	2	-0.140071	3.8004999	16.9552	24.3522
412	1	2	-0.16712099	3.221	15.6579	23.761101
413	1	2	0.085992001	2.3210001	14.8909	24.7381
414	1	7	-0.68381798	1.0545	15.4834	24.801001
415	1	8	0.379206	0.5341	14.9528	25.4578
416	1	3	0.070619002	2.2137001	13.845	24.373699
417	1	3	0.070619002	2.7860999	14.8622	25.749001
418	1	4	0.092165999	4.0741	14.999	23.492201
419	1	4	0.092165999	2.6659999	15.876	22.8232
420	1	4	0.089872003	4.5778999	17.331699	23.6513
421	1	4	0.089872003	4.3004999	16.741899	25.3218
422	1	3	0.080123998	2.1614001	18.198999	23.6085
423	1	3	0.080123998	2.0432	17.756599	25.350599
424	2	5	0.51769698	-2.0358	20.892	16.2845
425	2	6	-0.68120497	-1.5993	21.995701	15.9986
426	2	2	-0.25735599	-2.0910001	19.805	15.2544
427	2	2	-0.092001997	-3.0741	20.160101	14.1341
428	2	2	-0.110321	-3.1517999	19.0329	13.0932
429	2	2	-0.219161	-4.0799999	19.385599	11.9235
430	2	5	0.82471502	-5.5135999	19.4498	12.3511
431	2	6	-0.55211401	-6.1732998	18.387899	12.51
432	2	7	-0.66455197	-6.1083002	20.682899	12.6026
433	2	8	0.39540499	-7.0721998	20.7414	12.9062
434	2	4	0.11888	-3.776	20.3573	11.476
435	2	4	0.11888	-3.9760001	18.6094	11.1349
436	2	4	0.084958002	-2.1345999	18.846901	12.6859
437	2	4	0.084958002	-3.5002999	18.0937	13.5774
438	2	4	0.076017998	-2.7427001	21.098101	13.6353
439	2	4	0.076017998	-4.0797	20.330999	14.5756
440	2	4	0.114486	-2.4131	18.862101	15.7461
441	2	4	0.114486	-1.0724	19.651199	14.835
442	4	1	-0.176467	-4.4787002	16.689699	33.818401
443	4	2	0.032547001	-3.7678001	16.711399	35.026299
444	4	2	-0.145805	-2.3295	17.183599	34.783401
445	4	2	-0.13843	-1.4369	17.0641	36.030201
446	4	2	0.13482	-1.7872	18.071501	37.130798
447	4	1	-0.49380001	-2.9152	17.6441	37.840698
448	4	3	0.080477998	-0.92500001	18.146	37.831501
449	4	3	0.080477998	-1.9658999	19.078699	36.690701
450	4	4	0.088701002	-0.38780001	17.254	35.713799
451	4	4	0.088701002	-1.4747	16.028799	36.434299
452	4	4	0.089703001	-1.8824	16.557301	33.980999
453	4	4	0.089703001	-2.3378999	18.234699	34.4184
454	4	3	0.080123998	-3.7725	15.7	35.493801
455	4	3	0.080123998	-4.2814002	17.4146	35.713299
456	5	5	0.76248401	-3.1041	18.378401	38.5527
457	5	6	-0.55085099	-4.1740999	18.377701	39.139198
458	5	2	-0.209153	-2.0806	19.431101	38.862701
459	5	2	-0.112846	-0.8179	19.244801	38.0144
460	5	2	-0.092001997	0.2244	20.322701	38.335999
461	5	2	-0.25735599	1.4875	20.1369	37.488499
462	5	5	0.51769698	2.5106001	21.1891	37.797699
463	5	6	-0.68120497	3.5806	21.189699	37.211201
464	5	4	0.114486	1.2263	20.198601	36.409401
465	5	4	0.114486	1.9297	19.1366	37.690899
466	5	4	0.076017998	-0.2106	21.3265	38.132301
467	5	4	0.076017998	0.49419999	20.264999	39.414001
468	5	4	0.084958002	-1.0872999	19.3016	36.936901
469	5	4	0.084958002	-0.3829	18.240999	38.218102
470	5	4	0.117849	-2.5229001	20.430099	38.66
471	5	4	0.117849	-1.8193001	19.3694	39.941799
472	1	1	-0.176467	-4.1957002	15.8701	33.335999
473	1	2	0.032659002	-3.484	15.0871	34.2556
474	1	2	-0.140071	-4.4562001	14.3647	35.195499
475	1	2	-0.16712099	-3.7474999	13.6269	36.3452
476	1	2	0.085992001	-2.9669001	12.3888	35.8862
477	1	7	-0.68381798	-1.7467	12.767	35.314098
478	1	8	0.379206	-1.3051	11.9269	35.026001
479	1	3	0.070619002	-2.7674999	11.7473	36.773201
480	1	3	0.070619002	-3.5702	11.8006	35.158798
481	1	4	0.092165999	-4.5268002	13.2934	37.063301
482	1	4	0.092165999	-3.0732	14.3215	36.891201
483	1	4	0.089872003	-5.1395998	15.1189	35.644501
484	1	4	0.089872003	-5.0809002	13.6528	34.6138
485	1	3	0.080123998	-2.7779	15.7218	34.836899
486	1	3	0.080123998	-2.8926001	14.3417	33.684898
487	2	5	0.51769698	2.3138001	21.9554	38.541599
488	2	6	-0.68120497	1.8795	23.039801	38.186798
489	2	2	-0.25735599	2.5585001	21.671101	39.9925
490	2	2	-0.092001997	3.6768999	22.5609	40.544998
491	2	2	-0.110321	3.947	22.2491	42.024799
492	2	2	-0.219161	5.0181999	23.1686	42.625801
493	2	5	0.82471502	6.3723001	22.8971	42.047199
494	2	6	-0.55211401	7.0437999	21.908899	42.4482
495	2	7	-0.66455197	6.8758998	23.7197	41.043598
496	2	8	0.39540499	7.7835002	23.540199	40.632801
497	2	4	0.11888	4.7431998	24.2332	42.459
498	2	4	0.11888	5.0587001	23.003901	43.724201
499	2	4	0.084958002	3.0065999	22.3885	42.600498
500	2	4	0.084958002	4.2593999	21.187201	42.137199
501	2	4	0.076017998	3.3835001	23.629499	40.4426
502	2	4	0.076017998	4.6015	22.3901	39.9524
503	2	4	0.114486	2.8439	20.603201	40.104698
504	2	4	0.114486	1.6172	21.8437	40.559299
505	4	1	-0.176467	3.1515999	19.5991	62.350399
506	4	2	0.032547001	2.8699999	19.917299	61.014599
507	4	2	-0.145805	2.3941	18.6682	60.263699
508	4	2	-0.13843	2.2362001	18.8974	58.751099
509	4	2	0.13482	1.0522	19.8016	58.3909
510	4	1	-0.49380001	1.3821	21.1446	58.6068
511	4	3	0.080477998	0.8096	19.6567	57.3139
512	4	3	0.080477998	0.156	19.5224	58.990002
513	4	4	0.088701002	2.0671999	17.906601	58.275299
514	4	4	0.088701002	3.1758001	19.310301	58.323002
515	4	4	0.089703001	3.1433001	17.860201	60.411098
516	4	4	0.089703001	1.4335001	18.313801	60.699299
517	4	3	0.080123998	3.7728	20.3475	60.522999
518	4	3	0.080123998	2.0703001	20.685801	61.007
519	5	5	0.76248401	0.53369999	21.6938	58.361198
520	5	6	-0.55085099	0.46630001	22.865801	58.693802
521	5	2	-0.209153	-0.60009998	21.062599	57.6077
522	5	2	-0.112846	-0.3073	19.591499	57.293499
523	5	2	-0.092001997	-1.4689	18.9522	56.5229
524	5	2	-0.25735599	-1.1767	17.481199	56.208
525	5	5	0.51769698	-2.3099	16.8498	55.4552
526	5	6	-0.68120497	-2.2425001	15.6778	55.122601
527	5	4	0.114486	-1.0201	16.919901	57.155102
528	5	4	0.114486	-0.25260001	17.406799	55.593399
529	5	4	0.076017998	-2.3964	19.02	57.133999
530	5	4	0.076017998	-1.6295	19.5061	55.5714
531	5	4	0.084958002	-0.1459	19.037701	58.2444
532	5	4	0.084958002	0.62019998	19.5236	56.6824
533	5	4	0.117849	-1.5228	21.1369	58.222301
534	5	4	0.117849	-0.75669998	21.623899	56.660599
535	1	1	-0.176467	4.0359001	19.149099	62.355701
536	1	2	0.032659002	4.5987	19.3521	61.087799
537	1	2	-0.140071	5.1673999	20.7721	60.9856
538	1	2	-0.16712099	5.6420002	21.130899	59.566299
539	1	2	0.085992001	6.9116998	20.3832	59.140202
540	1	7	-0.68381798	6.5999999	19.0739	58.755699
541	1	8	0.379206	7.4607	18.6458	58.511398
542	1	3	0.070619002	7.3631001	20.917	58.274502
543	1	3	0.070619002	7.6525002	20.3771	59.971001
544	1	4	0.092165999	5.8638	22.2194	59.549599
545	1	4	0.092165999	4.8287001	20.9501	58.8307
546	1	4	0.089872003	4.3702002	21.4935	61.270901
547	1	4	0.089872003	6.0026999	20.894501	61.708698
548	1	3	0.080123998	3.836	19.179001	60.295601
549	1	3	0.080123998	5.4144001	18.6122	60.952999
550	2	5	0.51769698	-3.1954999	17.423401	55.198101
551	2	6	-0.68120497	-4.1732998	17.378401	55.927799
552	2	2	-0.25735599	-3.2042	18.275499	53.965401
553	2	2	-0.092001997	-4.2286	17.759899	52.9492
554	2	2	-0.110321	-4.2168002	18.6166	51.674
555	2	2	-0.219161	-5.2775998	18.165199	50.661499
556	2	5	0.82471502	-4.9566002	16.8228	50.081001
557	2	6	-0.55211401	-4.0918999	16.7192	49.170101
558	2	7	-0.66455197	-5.5921998	15.6851	50.569901
559	2	8	0.39540499	-5.3751001	14.7693	50.197399
560	2	4	0.11888	-6.2783999	18.137199	51.145699
561	2	4	0.11888	-5.3277998	18.909	49.8372
562	2	4	0.084958002	-4.4247999	19.673599	51.947399
563	2	4	0.084958002	-3.2098	18.579901	51.2024
564	2	4	0.076017998	-5.2448001	17.789101	53.401699
565	2	4	0.076017998	-3.9858	16.7059	52.693401
566	2	4	0.114486	-2.1901	18.258801	53.5117
567	2	4	0.114486	-3.4430001	19.323601	54.251099
568	4	1	-0.176467	0.1231	24.0254	79.632202
569	4	2	0.032547001	0.68559998	22.91	78.9963
570	4	2	-0.145805	-0.38859999	21.843	78.754799
571	4	2	-0.13843	0.1855	20.5191	78.2229
572	4	2	0.13482	0.69440001	20.6101	76.779999
573	4	1	-0.49380001	1.9524	21.222799	76.745499
574	4	3	0.080477998	0.78219998	19.5791	76.368797
575	4	3	0.080477998	-0.0287	21.175699	76.149696
576	4	4	0.088701002	-0.62900001	19.7623	78.251297
577	4	4	0.088701002	0.9957	20.153299	78.890999
578	4	4	0.089703001	-0.89999998	21.631599	79.719002
579	4	4	0.089703001	-1.1555001	22.2374	78.051697
580	4	3	0.080123998	1.5165	22.494699	79.611702
581	4	3	0.080123998	1.1052001	23.244801	78.025703
582	5	5	0.76248401	2.2249999	21.267099	75.742798
583	5	6	-0.55085099	3.1615	21.9753	75.411102
584	5	2	-0.209153	1.4823	20.474001	74.707703
585	5	2	-0.112846	0.34889999	19.659201	75.340202
586	5	2	-0.092001997	-0.40580001	18.850599	74.278099
587	5	2	-0.25735599	-1.5391999	18.035101	74.909698
588	5	5	0.51769698	-2.2820001	17.242701	73.875504
589	5	6	-0.68120497	-3.2184999	16.534401	74.2071
590	5	4	0.114486	-2.2539999	18.719101	75.417397
591	5	4	0.114486	-1.1196001	17.3346	75.665001
592	5	4	0.076017998	-0.83130002	19.546	73.520699
593	5	4	0.076017998	0.30230001	18.1604	73.767799
594	5	4	0.084958002	-0.35870001	20.3487	75.850998