Title

86 atoms
87 bonds
152 angles
256 dihedrals
48 impropers

12 atom types
18 bond types
10 angle types
33 dihedral types
3 improper types
-12.50599957 87.49400043 xlo xhi
-5.631999969 94.36800003 ylo yhi
-7.673999786 92.32600021 zlo zhi
0.0 0.0 0.0 xy xz yz

Masses

1	12.01078
2	15.99943
3	14.00672
4	12.01078
5	1.007947
6	1.007947
7	1.007947
8	15.99943
9	1.007947
10	12.01078
11	15.99943
12	1.007947


Pair Coeffs

1	0.086879315	3.4806469
2	0.2102061	3.0398122
3	0.16769152	3.206876
4	0.10884061	3.3795318
5	0.014090815	1.1034277
6	0.016409246	2.5832257
7	0.015779483	2.6445434
8	0.16846514	3.0251065
9	0.015611343	2.5725815
10	0.21	3.3996695
11	0.20947353	2.99716
12	1.2326e-05	0.53453923

Bond Coeffs

1 harmonic	582.698766451	1.225198386222
2 harmonic	492.76746816345	1.381897776683
3 harmonic	279.1350963404	1.454628925034
4 harmonic	352.0565580496	1.450098586273
5 harmonic	505.144496193	1.019481865027
6 harmonic	264.62148576755	1.52190126495
7 harmonic	370.04670688625	1.093899492634
8 harmonic	301.15400723785	1.345741232799
9 harmonic	366.7408841747	1.425895053732
10 harmonic	289.73813263395	1.498646816465
11 harmonic	445.3060766333	1.328776712165
12 harmonic	360.7852444772	1.387193227181
13 harmonic	300.03137914615	1.451203938761
14 harmonic	397.2545789619	1.085358495916
15 harmonic	366.34047229585	1.464762957261
16 harmonic	602.81384337	1.196112346392
17 harmonic	329.96998057905	1.427343958716
18 harmonic	543.5267831885	0.9716763312559


Angle Coeffs

1 harmonic	55.42182150775	117.3465570514
2 harmonic	63.44422595415	115.5071327674
3 harmonic	57.8982893754	126.8062420451
4 harmonic	53.20531626545	116.5475862634
5 harmonic	65.09061609600001	110.3538806181
6 harmonic	201.41175231035	127.4691416191
7 harmonic	48.776492647595	115.6030999533
8 harmonic	55.07882548015	112.8714009681
9 harmonic	34.066775159195	129.1835929926
10 harmonic	33.56981613361	180


Dihedral Coeffs

1 fourier 1	-0.1488678166443	4	180
2 fourier 1	-0.1230328948768	3	180
3 fourier 1	0.2939295466901	2	0
4 fourier 1	-0.3024127022865	1	0
5 fourier 1	0.182238503271	2	0
6 fourier 1	0.02972342374561	3	0
7 fourier 1	1.809047390003	2	180
8 fourier 1	-0.04816277792592	1	0
9 fourier 1	3.101948770557	2	180
10 fourier 1	-0.4252153282372	1	0
11 fourier 1	2.348375642009	2	180
12 fourier 1	1.256156174911	1	0
13 fourier 1	0.9974165607242	2	180
14 fourier 1	0.1155372516788	3	0
15 fourier 1	0.09223874044423	3	0
16 fourier 1	0.3159935921949	2	180
17 fourier 1	0.3247796806857	1	180
18 fourier 1	0.1040663847541	3	0
19 fourier 1	2.779853741805	2	180
20 fourier 1	0.0473758381877	3	0
21 fourier 1	0.4860993122944	2	180
22 fourier 1	0.8916986138746	1	0
23 fourier 1	1.163809172478	2	180
24 fourier 1	0.1679186987369	1	180
25 fourier 1	0.1911926717192	3	0
26 fourier 1	0.02664938770063	3	0
27 fourier 1	3.731869940596	2	180
28 fourier 1	3.661930099076	2	180
29 fourier 1	5.913282223828	2	180
30 fourier 1	0.457973137376	1	0
31 fourier 1	-1.382973039546	1	0
32 fourier 1	0	1	0
33 fourier 1	0.3026390167484	3	0


Improper Coeffs

1 0.3333333333333333	-1	2
2 0.3666666666666667	-1	2
3 3.5	-1	2


Atoms

1	1	1	0.55177099	-4.6939998	1.331	-0.38600001
2	1	2	-0.62953699	-5.1230001	1.428	0.79500002
3	1	3	-0.51146698	-3.4430001	0.69599998	-0.66100001
4	1	4	0.037184	-2.6159999	0.13600001	0.40700001
5	1	4	-0.140588	-1.3329999	-0.479	-0.161
6	1	4	-0.13734099	-0.45199999	-1.053	0.95899999
7	1	4	-0.13734099	0.75700003	-1.8430001	0.42699999
8	1	4	-0.13927899	1.749	-1.023	-0.41800001
9	1	4	0.031580999	2.3959999	0.12800001	0.36399999
10	1	3	-0.453275	3.4519999	0.76200002	-0.42399999
11	1	1	0.788706	4.2150002	1.858	0.088
12	1	2	-0.57202399	3.9979999	2.3099999	1.244
13	1	5	0.33743501	3.668	0.42500001	-1.39
14	1	6	0.075098	1.6289999	0.89200002	0.61000001
15	1	6	0.075098	2.832	-0.264	1.309
16	1	7	0.101479	1.249	-0.62900001	-1.3279999
17	1	7	0.101479	2.55	-1.7130001	-0.75999999
18	1	7	0.099893004	1.301	-2.2809999	1.293
19	1	7	0.099893004	0.38800001	-2.6930001	-0.186
20	1	7	0.099893004	-0.114	-0.237	1.633
21	1	7	0.099893004	-1.063	-1.749	1.574
22	1	7	0.101479	-0.77499998	0.31	-0.708
23	1	7	0.101479	-1.602	-1.289	-0.875
24	1	6	0.071341	-3.1960001	-0.64499998	0.94499999
25	1	6	0.071341	-2.352	0.94400001	1.125
26	1	5	0.33086199	-3.1300001	0.63999999	-1.6569999
27	1	8	-0.490969	4.9559999	2.2869999	-0.49700001
28	1	4	0.168979	5.2399998	1.372	-1.5190001
29	1	1	0.207046	6.0809999	0.252	-0.98799998
30	1	3	-0.65283197	7.381	0.359	-0.991
31	1	1	0.24739499	8.2329998	-0.67400002	-0.461
32	1	4	0.075657003	9.7180004	-0.48100001	-0.47299999
33	1	8	-0.118165	10.136	-0.013	0.778
34	1	6	0.106697	9.9870005	0.25799999	-1.26
35	1	6	0.106697	10.225	-1.444	-0.70899999
36	1	1	-0.347316	7.6849999	-1.77	0.089000002
37	1	9	0.211641	8.3050003	-2.55	0.51499999
38	1	1	-0.14879701	6.217	-1.909	0.119
39	1	9	0.222231	5.7670002	-2.79	0.55900002
40	1	1	-0.35406101	5.4460001	-0.94499999	-0.39199999
41	1	9	0.21146201	4.3670001	-1.04	-0.36700001
42	1	6	0.090627998	4.2979999	0.97500002	-1.962
43	1	6	0.090627998	5.789	1.899	-2.3280001
44	1	1	0.55177099	-5.2810001	1.734	-1.2
45	1	2	-0.62953699	-5.3039999	1.13	-2.3050001
46	1	3	-0.51146698	-6.013	2.95	-1.011
47	1	4	0.037184	-6.8260002	3.556	-2.0639999
48	1	4	-0.140588	-8.1389999	2.786	-2.2379999
49	1	4	-0.137163	-9.0120001	3.427	-3.3280001
50	1	4	-0.132985	-10.394	2.7650001	-3.4449999
51	1	4	-0.117149	-10.327	1.36	-4.0650001
52	1	4	0.190345	-11.726	0.75800002	-4.27
53	1	3	-0.57195002	-12.506	1.5190001	-5.2420001
54	1	10	0.597565	-12.193	1.558	-6.4749999
55	1	2	-0.38452101	-11.887	1.597	-7.6739998
56	1	6	0.046845	-11.632	-0.29699999	-4.6100001
57	1	6	0.046845	-12.269	0.75099999	-3.3010001
58	1	7	0.095030002	-9.7629995	0.68199998	-3.3900001
59	1	7	0.095030002	-9.7910004	1.397	-5.0380001
60	1	7	0.098586001	-10.874	2.7149999	-2.4430001
61	1	7	0.098586001	-11.027	3.415	-4.0879998
62	1	7	0.099893004	-9.1660004	4.4990001	-3.079
63	1	7	0.099893004	-8.4879999	3.381	-4.3080001
64	1	7	0.101479	-7.9089999	1.7359999	-2.513
65	1	7	0.101479	-8.6890001	2.7869999	-1.271
66	1	6	0.071341	-6.2540002	3.572	-3.0179999
67	1	6	0.071341	-7.053	4.6069999	-1.783
68	1	5	0.33086199	-5.9109998	3.4530001	-0.101
69	1	8	-0.118165	11.121	0.094999999	0.71600002
70	1	4	0.075657003	11.575	-0.87199998	-0.191
71	1	1	0.24999399	11.601	-2.2190001	0.465
72	1	3	-0.64882898	12.666	-2.6070001	1.108
73	1	1	0.196789	12.73	-3.8770001	1.784
74	1	4	0.14562801	13.976	-4.2550001	2.5239999
75	1	11	-0.67028898	13.814	-3.9630001	3.8840001
76	1	12	0.392214	14.662	-4.2319999	4.3249998
77	1	6	0.084677003	14.837	-3.6800001	2.1159999
78	1	6	0.084677003	14.185	-5.3400002	2.3900001
79	1	1	-0.347727	11.655	-4.6820002	1.789
80	1	9	0.211641	11.671	-5.632	2.309
81	1	1	-0.146901	10.431	-4.2600002	1.081
82	1	9	0.222231	9.5600004	-4.9029999	1.079
83	1	1	-0.347316	10.399	-3.0829999	0.44800001
84	1	9	0.211641	9.5010004	-2.7679999	-0.068000004
85	1	6	0.106697	10.927	-0.89300001	-1.097
86	1	6	0.106697	12.599	-0.59899998	-0.52200001

Bonds

1	1	1	2
2	2	1	3
3	3	1	44
4	4	3	4
5	5	3	26
6	6	4	5
7	7	4	24
8	7	4	25
9	6	5	6
10	7	5	22
11	7	5	23
12	6	6	7
13	7	6	20
14	7	6	21
15	6	7	8
16	7	7	18
17	7	7	19
18	6	8	9
19	7	8	16
20	7	8	17
21	4	9	10
22	7	9	14
23	7	9	15
24	2	10	11
25	5	10	13
26	1	11	12
27	8	11	27
28	9	27	28
29	10	28	29
30	7	28	42
31	7	28	43
32	11	29	30
33	12	29	40
34	11	30	31
35	10	31	32
36	12	31	36
37	9	32	33
38	7	32	34
39	7	32	35
40	13	33	69
41	14	36	37
42	12	36	38
43	14	38	39
44	12	38	40
45	14	40	41
46	1	44	45
47	2	44	46
48	4	46	47
49	5	46	68
50	6	47	48
51	7	47	66
52	7	47	67
53	6	48	49
54	7	48	64
55	7	48	65
56	6	49	50
57	7	49	62
58	7	49	63
59	6	50	51
60	7	50	60
61	7	50	61
62	6	51	52
63	7	51	58
64	7	51	59
65	15	52	53
66	7	52	56
67	7	52	57
68	16	53	54
69	1	54	55
70	9	69	70
71	10	70	71
72	7	70	85
73	7	70	86
74	11	71	72
75	12	71	83
76	11	72	73
77	10	73	74
78	12	73	79
79	17	74	75
80	7	74	77
81	7	74	78
82	18	75	76
83	14	79	80
84	12	79	81
85	14	81	82
86	12	81	83
87	14	83	84

Angles

1	3	28	29	30
2	4	3	4	5
3	4	75	74	77
4	1	44	46	47
5	5	33	69	70
6	9	79	81	82
7	4	48	47	66
8	2	47	46	68
9	4	6	7	18
10	3	30	31	36
11	3	32	31	36
12	4	73	74	77
13	4	6	5	23
14	4	31	32	33
15	4	50	51	59
16	7	42	28	43
17	4	52	51	58
18	4	51	52	53
19	4	10	9	15
20	7	58	51	59
21	7	16	8	17
22	4	69	70	85
23	1	1	3	4
24	9	36	38	39
25	4	7	8	17
26	6	12	11	27
27	4	8	9	15
28	7	85	70	86
29	7	34	32	35
30	3	72	71	83
31	9	39	38	40
32	4	50	51	52
33	2	11	10	13
34	4	27	28	29
35	7	66	47	67
36	4	52	51	59
37	4	48	49	50
38	4	50	51	58
39	4	49	50	51
40	9	29	40	41
41	4	3	4	24
42	4	31	32	35
43	3	1	44	46
44	7	24	4	25
45	4	73	74	75
46	4	33	32	35
47	4	7	8	9
48	4	51	52	57
49	4	48	47	67
50	4	50	49	62
51	4	51	50	60
52	4	47	48	49
53	10	53	54	55
54	8	29	30	31
55	3	79	81	83
56	4	31	32	34
57	4	4	5	23
58	4	46	47	66
59	3	72	73	79
60	3	2	1	44
61	4	48	49	63
62	8	52	53	54
63	3	2	1	3
64	4	9	8	17
65	4	10	9	14
66	2	1	3	26
67	4	53	52	56
68	3	30	31	32
69	9	80	79	81
70	5	74	75	76
71	4	5	6	7
72	4	5	6	21
73	4	8	9	14
74	4	53	52	57
75	7	18	7	19
76	3	71	83	81
77	3	45	44	46
78	4	51	50	61
79	1	9	10	11
80	7	77	74	78
81	4	8	9	10
82	4	6	7	8
83	7	20	6	21
84	4	46	47	48
85	5	11	27	28
86	4	4	5	6
87	4	71	70	86
88	9	73	79	80
89	9	71	83	84
90	4	8	7	19
91	3	29	40	38
92	9	81	83	84
93	4	7	6	21
94	5	32	33	69
95	9	37	36	38
96	9	38	40	41
97	3	30	29	40
98	3	73	79	81
99	3	3	1	44
100	4	33	32	34
101	4	3	4	25
102	3	10	11	27
103	4	49	50	60
104	4	71	70	85
105	3	70	71	83
106	4	29	28	43
107	3	36	38	40
108	4	49	48	64
109	4	50	49	63
110	7	22	5	23
111	9	82	81	83
112	4	6	7	19
113	7	60	50	61
114	4	47	48	64
115	4	49	48	65
116	3	70	71	72
117	4	5	4	24
118	7	14	9	15
119	3	74	73	79
120	4	47	48	65
121	4	69	70	86
122	4	7	8	16
123	4	27	28	42
124	4	29	28	42
125	4	5	6	20
126	4	49	50	61
127	9	31	36	37
128	4	46	47	67
129	4	75	74	78
130	4	5	4	25
131	7	56	52	57
132	3	72	73	74
133	7	64	48	65
134	3	10	11	12
135	4	27	28	43
136	2	9	10	13
137	2	4	3	26
138	3	31	36	38
139	3	1	44	45
140	4	4	5	22
141	7	62	49	63
142	4	8	7	18
143	4	6	5	22
144	4	73	74	78
145	8	71	72	73
146	4	69	70	71
147	4	51	52	56
148	2	44	46	68
149	4	48	49	62
150	4	9	8	16
151	3	28	29	40
152	4	7	6	20

Dihedrals

1	28	32	31	36	38
2	28	72	71	83	84
3	31	51	52	53	54
4	5	66	47	46	68
4	6	66	47	46	68
5	28	71	83	81	82
6	25	60	50	49	63
7	20	34	32	33	69
8	25	58	51	50	61
9	28	74	73	79	80
10	25	14	9	8	17
11	7	4	3	1	44
11	8	4	3	1	44
12	26	69	70	71	83
13	26	35	32	31	36
14	14	3	4	5	23
15	25	23	5	4	24
16	28	31	36	38	40
17	13	3	1	44	45
18	26	75	74	73	79
19	25	61	50	49	63
20	18	52	51	50	60
21	25	59	51	50	61
22	31	54	53	52	56
23	26	83	71	70	85
24	25	57	52	51	58
25	25	64	48	47	67
26	26	69	70	71	72
27	28	80	79	81	83
28	25	18	7	6	20
29	25	16	8	7	19
30	5	44	46	47	66
30	6	44	46	47	66
31	25	15	9	8	16
32	7	13	10	11	27
32	8	13	10	11	27
33	26	30	29	28	42
34	19	10	11	27	28
35	31	54	53	52	57
36	1	1	3	4	5
36	2	1	3	4	5
36	3	1	3	4	5
36	4	1	3	4	5
37	25	62	49	48	65
38	18	6	5	4	25
39	18	7	6	5	23
40	25	19	7	6	20
41	25	63	49	48	65
42	28	30	29	40	38
43	25	22	5	4	25
44	28	28	29	40	41
45	28	70	71	83	81
46	5	8	9	10	13
46	6	8	9	10	13
47	5	11	10	9	14
47	6	11	10	9	14
48	25	56	52	51	59
49	26	72	71	70	86
50	26	40	29	28	43
51	26	78	74	73	79
52	25	17	8	7	19
53	18	8	7	6	21
54	25	65	48	47	66
55	7	26	3	1	44
55	8	26	3	1	44
56	27	71	72	73	74
57	28	30	31	36	38
58	18	7	8	9	15
59	20	31	32	33	69
60	26	30	29	28	43
61	14	46	47	48	64
62	18	52	51	50	61
63	7	1	44	46	68
63	8	1	44	46	68
64	29	31	30	29	40
65	14	3	4	5	6
66	20	33	69	70	86
67	33	76	75	74	78
68	28	70	71	83	84
69	26	72	73	74	78
70	18	9	8	7	19
71	7	1	44	46	47
71	8	1	44	46	47
72	18	47	48	49	62
73	28	73	79	81	82
74	28	37	36	38	39
75	15	4	5	6	7
75	16	4	5	6	7
75	17	4	5	6	7
76	14	46	47	48	65
77	28	72	73	79	81
78	18	4	5	6	21
79	13	2	1	44	45
80	7	9	10	11	27
80	8	9	10	11	27
81	1	44	46	47	48
81	2	44	46	47	48
81	3	44	46	47	48
81	4	44	46	47	48
82	25	56	52	51	58
83	14	7	8	9	10
84	15	48	49	50	51
84	16	48	49	50	51
84	17	48	49	50	51
85	28	79	81	83	84
86	25	63	49	48	64
87	26	40	29	28	42
88	18	49	48	47	67
89	20	35	32	33	69
90	25	62	49	48	64
91	18	6	7	8	16
92	26	33	32	31	36
93	29	29	30	31	36
94	28	36	38	40	41
95	28	39	38	40	41
96	18	51	50	49	62
97	27	70	71	72	73
98	5	1	3	4	24
98	6	1	3	4	24
99	26	30	31	32	33
100	18	5	6	7	18
101	18	50	51	52	56
102	33	76	75	74	77
103	28	29	40	38	39
104	20	11	27	28	29
105	28	29	40	38	36
106	26	72	73	74	77
107	14	10	9	8	16
108	11	45	44	46	68
108	12	45	44	46	68
109	25	23	5	4	25
110	28	30	31	36	37
111	18	50	51	52	57
112	28	82	81	83	84
113	9	45	44	46	47
113	10	45	44	46	47
114	5	24	4	3	26
114	6	24	4	3	26
115	20	33	69	70	71
116	30	32	33	69	70
117	25	65	48	47	67
118	25	19	7	6	21
119	11	2	1	3	26
119	12	2	1	3	26
120	9	2	1	3	4
120	10	2	1	3	4
121	18	7	8	9	14
122	27	28	29	30	31
123	28	31	36	38	39
124	1	8	9	10	11
124	2	8	9	10	11
124	3	8	9	10	11
124	4	8	9	10	11
125	25	15	9	8	17
126	18	49	50	51	59
127	28	72	73	79	80
128	14	50	51	52	53
129	5	13	10	9	15
129	6	13	10	9	15
130	15	47	48	49	50
130	16	47	48	49	50
130	17	47	48	49	50
131	26	27	28	29	40
132	26	30	31	32	35
133	28	30	29	40	41
134	26	72	71	70	85
135	25	17	8	7	18
136	26	27	28	29	30
137	25	64	48	47	66
138	7	9	10	11	12
138	8	9	10	11	12
139	28	73	79	81	83
140	28	72	71	83	81
141	18	8	7	6	20
142	25	14	9	8	16
143	25	20	6	5	22
144	25	59	51	50	60
145	21	12	11	10	13
145	22	12	11	10	13
146	15	49	50	51	52
146	16	49	50	51	52
146	17	49	50	51	52
147	20	33	69	70	85
148	5	44	46	47	67
148	6	44	46	47	67
149	13	3	1	44	46
150	26	77	74	73	79
151	14	53	52	51	59
152	18	49	50	51	58
153	26	34	32	31	36
154	25	61	50	49	62
155	18	47	48	49	63
156	18	50	49	48	64
157	29	71	72	73	79
158	23	12	11	27	28
158	24	12	11	27	28
159	18	4	5	6	20
160	27	29	30	31	32
161	25	18	7	6	21
162	20	11	27	28	42
163	26	83	71	70	86
164	25	16	8	7	18
165	25	21	6	5	22
166	18	7	6	5	22
167	18	50	49	48	65
168	18	48	49	50	60
169	18	6	5	4	24
170	25	20	6	5	23
171	28	71	83	81	79
172	5	48	47	46	68
172	6	48	47	46	68
173	18	51	50	49	63
174	18	6	7	8	17
175	18	5	6	7	19
176	5	1	3	4	25
176	6	1	3	4	25
177	25	22	5	4	24
178	28	28	29	40	38
179	28	80	79	81	82
180	14	53	52	51	58
181	25	58	51	50	60
182	28	74	73	79	81
183	5	67	47	46	68
183	6	67	47	46	68
184	5	13	10	9	14
184	6	13	10	9	14
185	14	10	9	8	17
186	18	49	48	47	66
187	20	11	27	28	43
188	29	73	72	71	83
189	28	37	36	38	40
190	5	25	4	3	26
190	6	25	4	3	26
191	14	46	47	48	49
192	5	5	4	3	26
192	6	5	4	3	26
193	25	21	6	5	23
194	25	60	50	49	62
195	15	6	7	8	9
195	16	6	7	8	9
195	17	6	7	8	9
196	32	52	53	54	55
197	26	72	73	74	75
198	15	5	6	7	8
198	16	5	6	7	8
198	17	5	6	7	8
199	28	32	31	36	37
200	14	3	4	5	22
201	18	9	8	7	18
202	26	30	31	32	34
203	33	73	74	75	76
204	13	2	1	44	46
205	5	11	10	9	15
205	6	11	10	9	15
206	18	48	49	50	61
207	25	57	52	51	59

Impropers

15	2	73	79	72	74
16	1	3	4	26	1
18	1	10	13	9	11
26	2	44	1	45	46
43	2	38	39	40	36
48	2	79	73	80	81
49	2	40	41	29	38
64	2	1	2	3	44
65	2	79	80	81	73
68	1	46	47	68	44
102	2	31	32	36	30
106	2	71	72	83	70
144	2	81	83	79	82
152	2	31	36	30	32
164	2	71	83	70	72
168	2	36	31	37	38
171	1	46	68	44	47
218	1	10	9	11	13
233	2	83	71	81	84
244	1	46	44	47	68
245	2	83	84	71	81
246	2	81	82	83	79
267	2	1	44	2	3
269	2	1	3	44	2
277	2	44	45	46	1
279	2	40	29	38	41
284	2	29	28	30	40
287	2	29	30	40	28
289	2	38	36	39	40
292	3	11	27	10	12
303	2	44	46	1	45
308	2	73	72	74	79
320	2	40	38	41	29
323	2	36	37	38	31
333	1	3	26	1	4
338	1	10	11	13	9
354	2	31	30	32	36
361	2	29	40	28	30
365	2	79	81	73	80
370	2	81	79	82	83
382	1	3	1	4	26
398	2	38	40	36	39
402	2	36	38	31	37
421	2	73	74	79	72
427	2	83	81	84	71
455	3	11	12	27	10
457	3	11	10	12	27
478	2	71	70	72	83
