Title

86 atoms
87 bonds
152 angles
256 dihedrals
48 impropers

12 atom types
18 bond types
10 angle types
33 dihedral types
3 improper types
-12.50599957 87.49400043 xlo xhi
-5.631999969 94.36800003 ylo yhi
-7.673999786 92.32600021 zlo zhi
0.0 0.0 0.0 xy xz yz

Masses

1	12.01078
2	15.99943
3	14.00672
4	12.01078
5	1.007947
6	1.007947
7	1.007947
8	15.99943
9	1.007947
10	12.01078
11	15.99943
12	1.007947


Pair Coeffs

1	0.086879315	3.4806469
2	0.2102061	3.0398122
3	0.16769152	3.206876
4	0.10884061	3.3795318
5	0.014090815	1.1034277
6	0.016409246	2.5832257
7	0.015779483	2.6445434
8	0.16846514	3.0251065
9	0.015611343	2.5725815
10	0.21	3.3996695
11	0.20947353	2.99716
12	1.2326e-05	0.53453923

Bond Coeffs

1 harmonic	582.698766451	1.225198386222
2 harmonic	492.76746816345	1.381897776683
3 harmonic	279.1350963404	1.454628925034
4 harmonic	352.0565580496	1.450098586273
5 harmonic	505.144496193	1.019481865027
6 harmonic	264.62148576755	1.52190126495
7 harmonic	370.04670688625	1.093899492634
8 harmonic	301.15400723785	1.345741232799
9 harmonic	366.7408841747	1.425895053732
10 harmonic	289.73813263395	1.498646816465
11 harmonic	445.3060766333	1.328776712165
12 harmonic	360.7852444772	1.387193227181
13 harmonic	300.03137914615	1.451203938761
14 harmonic	397.2545789619	1.085358495916
15 harmonic	366.34047229585	1.464762957261
16 harmonic	602.81384337	1.196112346392
17 harmonic	329.96998057905	1.427343958716
18 harmonic	543.5267831885	0.9716763312559


Angle Coeffs

1 harmonic	55.42182150775	117.3465570514
2 harmonic	63.44422595415	115.5071327674
3 harmonic	57.8982893754	126.8062420451
4 harmonic	53.20531626545	116.5475862634
5 harmonic	65.09061609600001	110.3538806181
6 harmonic	201.41175231035	127.4691416191
7 harmonic	48.776492647595	115.6030999533
8 harmonic	55.07882548015	112.8714009681
9 harmonic	34.066775159195	129.1835929926
10 harmonic	33.56981613361	180


Dihedral Coeffs

1 fourier 1	-0.1488678166443	4	180
2 fourier 1	-0.1230328948768	3	180
3 fourier 1	0.2939295466901	2	0
4 fourier 1	-0.3024127022865	1	0
5 fourier 1	0.182238503271	2	0
6 fourier 1	0.02972342374561	3	0
7 fourier 1	1.809047390003	2	180
8 fourier 1	-0.04816277792592	1	0
9 fourier 1	3.101948770557	2	180
10 fourier 1	-0.4252153282372	1	0
11 fourier 1	2.348375642009	2	180
12 fourier 1	1.256156174911	1	0
13 fourier 1	0.9974165607242	2	180
14 fourier 1	0.1155372516788	3	0
15 fourier 1	0.09223874044423	3	0
16 fourier 1	0.3159935921949	2	180
17 fourier 1	0.3247796806857	1	180
18 fourier 1	0.1040663847541	3	0
19 fourier 1	2.779853741805	2	180
20 fourier 1	0.0473758381877	3	0
21 fourier 1	0.4860993122944	2	180
22 fourier 1	0.8916986138746	1	0
23 fourier 1	1.163809172478	2	180
24 fourier 1	0.1679186987369	1	180
25 fourier 1	0.1911926717192	3	0
26 fourier 1	0.02664938770063	3	0
27 fourier 1	3.731869940596	2	180
28 fourier 1	3.661930099076	2	180
29 fourier 1	5.913282223828	2	180
30 fourier 1	0.457973137376	1	0
31 fourier 1	-1.382973039546	1	0
32 fourier 1	0	1	0
33 fourier 1	0.3026390167484	3	0


Improper Coeffs

1 0.3333333333333333	-1	2
2 0.3666666666666667	-1	2
3 3.5	-1	2


Atoms

1	1	1	0.55177099	-4.6939998	1.331	-0.38600001
2	1	2	-0.62953699	-5.1230001	1.428	0.79500002
3	1	3	-0.51146698	-3.4430001	0.69599998	-0.66100001
4	1	4	0.037184	-2.6159999	0.13600001	0.40700001
5	1	4	-0.140588	-1.3329999	-0.479	-0.161
6	1	4	-0.13734099	-0.45199999	-1.053	0.95899999
7	1	4	-0.13734099	0.75700003	-1.8430001	0.42699999
8	1	4	-0.13927899	1.749	-1.023	-0.41800001
9	1	4	0.031580999	2.3959999	0.12800001	0.36399999
10	1	3	-0.453275	3.4519999	0.76200002	-0.42399999
11	1	1	0.788706	4.2150002	1.858	0.088
12	1	2	-0.57202399	3.9979999	2.3099999	1.244
13	1	5	0.33743501	3.668	0.42500001	-1.39
14	1	6	0.075098	1.6289999	0.89200002	0.61000001
15	1	6	0.075098	2.832	-0.264	1.309
16	1	7	0.101479	1.249	-0.62900001	-1.3279999
17	1	7	0.101479	2.55	-1.7130001	-0.75999999
18	1	7	0.099893004	1.301	-2.2809999	1.293
19	1	7	0.099893004	0.38800001	-2.6930001	-0.186
20	1	7	0.099893004	-0.114	-0.237	1.633
21	1	7	0.099893004	-1.063	-1.749	1.574
22	1	7	0.101479	-0.77499998	0.31	-0.708
23	1	7	0.101479	-1.602	-1.289	-0.875
24	1	6	0.071341	-3.1960001	-0.64499998	0.94499999
25	1	6	0.071341	-2.352	0.94400001	1.125
26	1	5	0.33086199	-3.1300001	0.63999999	-1.6569999
27	1	8	-0.490969	4.9559999	2.2869999	-0.49700001
28	1	4	0.168979	5.2399998	1.372	-1.5190001
29	1	1	0.207046	6.0809999	0.252	-0.98799998
30	1	3	-0.65283197	7.381	0.359	-0.991
31	1	1	0.24739499	8.2329998	-0.67400002	-0.461
32	1	4	0.075657003	9.7180004	-0.48100001	-0.47299999
33	1	8	-0.118165	10.136	-0.013	0.778
34	1	6	0.106697	9.9870005	0.25799999	-1.26
35	1	6	0.106697	10.225	-1.444	-0.70899999
36	1	1	-0.347316	7.6849999	-1.77	0.089000002
37	1	9	0.211641	8.3050003	-2.55	0.51499999
38	1	1	-0.14879701	6.217	-1.909	0.119
39	1	9	0.222231	5.7670002	-2.79	0.55900002
40	1	1	-0.35406101	5.4460001	-0.94499999	-0.39199999
41	1	9	0.21146201	4.3670001	-1.04	-0.36700001
42	1	6	0.090627998	4.2979999	0.97500002	-1.962
43	1	6	0.090627998	5.789	1.899	-2.3280001
44	1	1	0.55177099	-5.2810001	1.734	-1.2
45	1	2	-0.62953699	-5.3039999	1.13	-2.3050001
46	1	3	-0.51146698	-6.013	2.95	-1.011
47	1	4	0.037184	-6.8260002	3.556	-2.0639999
48	1	4	-0.140588	-8.1389999	2.786	-2.2379999
49	1	4	-0.137163	-9.0120001	3.427	-3.3280001
50	1	4	-0.132985	-10.394	2.7650001	-3.4449999
51	1	4	-0.117149	-10.327	1.36	-4.0650001
52	1	4	0.190345	-11.726	0.75800002	-4.27
53	1	3	-0.57195002	-12.506	1.5190001	-5.2420001
54	1	10	0.597565	-12.193	1.558	-6.4749999
55	1	2	-0.38452101	-11.887	1.597	-7.6739998
56	1	6	0.046845	-11.632	-0.29699999	-4.6100001
57	1	6	0.046845	-12.269	0.75099999	-3.3010001
58	1	7	0.095030002	-9.7629995	0.68199998	-3.3900001
59	1	7	0.095030002	-9.7910004	1.397	-5.0380001
60	1	7	0.098586001	-10.874	2.7149999	-2.4430001
61	1	7	0.098586001	-11.027	3.415	-4.0879998
62	1	7	0.099893004	-9.1660004	4.4990001	-3.079
63	1	7	0.099893004	-8.4879999	3.381	-4.3080001
64	1	7	0.101479	-7.9089999	1.7359999	-2.513
65	1	7	0.101479	-8.6890001	2.7869999	-1.271
66	1	6	0.071341	-6.2540002	3.572	-3.0179999
67	1	6	0.071341	-7.053	4.6069999	-1.783
68	1	5	0.33086199	-5.9109998	3.4530001	-0.101
69	1	8	-0.118165	11.121	0.094999999	0.71600002
70	1	4	0.075657003	11.575	-0.87199998	-0.191
71	1	1	0.24999399	11.601	-2.2190001	0.465
72	1	3	-0.64882898	12.666	-2.6070001	1.108
73	1	1	0.196789	12.73	-3.8770001	1.784
74	1	4	0.14562801	13.976	-4.2550001	2.5239999
75	1	11	-0.67028898	13.814	-3.9630001	3.8840001
76	1	12	0.392214	14.662	-4.2319999	4.3249998
77	1	6	0.084677003	14.837	-3.6800001	2.1159999
78	1	6	0.084677003	14.185	-5.3400002	2.3900001
79	1	1	-0.347727	11.655	-4.6820002	1.789
80	1	9	0.211641	11.671	-5.632	2.309
81	1	1	-0.146901	10.431	-4.2600002	1.081
82	1	9	0.222231	9.5600004	-4.9029999	1.079
83	1	1	-0.347316	10.399	-3.0829999	0.44800001
84	1	9	0.211641	9.5010004	-2.7679999	-0.068000004
85	1	6	0.106697	10.927	-0.89300001	-1.097
86	1	6	0.106697	12.599	-0.59899998	-0.52200001

Bonds

1	1	1	2
2	2	1	3
3	3	1	44
4	4	3	4
5	5	3	26
6	6	4	5
7	7	4	24
8	7	4	25
9	6	5	6
10	7	5	22
11	7	5	23
12	6	6	7
13	7	6	20
14	7	6	21
15	6	7	8
16	7	7	18
17	7	7	19
18	6	8	9
19	7	8	16
20	7	8	17
21	4	9	10
22	7	9	14
23	7	9	15
24	2	10	11
25	5	10	13
26	1	11	12
27	8	11	27
28	9	27	28
29	10	28	29
30	7	28	42
31	7	28	43
32	11	29	30
33	12	29	40
34	11	30	31
35	10	31	32
36	12	31	36
37	9	32	33
38	7	32	34
39	7	32	35
40	13	33	69
41	14	36	37
42	12	36	38
43	14	38	39
44	12	38	40
45	14	40	41
46	1	44	45
47	2	44	46
48	4	46	47
49	5	46	68
50	6	47	48
51	7	47	66
52	7	47	67
53	6	48	49
54	7	48	64
55	7	48	65
56	6	49	50
57	7	49	62
58	7	49	63
59	6	50	51
60	7	50	60
61	7	50	61
62	6	51	52
63	7	51	58
64	7	51	59
65	15	52	53
66	7	52	56
67	7	52	57
68	16	53	54
69	1	54	55
70	9	69	70
71	10	70	71
72	7	70	85
73	7	70	86
74	11	71	72
75	12	71	83
76	11	72	73
77	10	73	74
78	12	73	79
79	17	74	75
80	7	74	77
81	7	74	78
82	18	75	76
83	14	79	80
84	12	79	81
85	14	81	82
86	12	81	83
87	14	83	84

Angles

1	7	66	47	67
2	9	79	81	82
3	4	4	5	6
4	9	80	79	81
5	3	1	44	46
6	1	1	3	4
7	7	24	4	25
8	4	5	6	20
9	4	5	6	21
10	10	53	54	55
11	7	42	28	43
12	7	34	32	35
13	4	48	49	63
14	3	3	1	44
15	4	6	5	22
16	4	53	52	56
17	4	3	4	5
18	4	31	32	33
19	3	10	11	12
20	5	74	75	76
21	4	51	50	60
22	4	46	47	48
23	4	51	52	57
24	2	44	46	68
25	9	31	36	37
26	5	33	69	70
27	3	72	71	83
28	4	10	9	15
29	4	46	47	66
30	4	3	4	25
31	4	47	48	65
32	7	77	74	78
33	9	81	83	84
34	3	32	31	36
35	3	28	29	40
36	4	73	74	77
37	4	5	6	7
38	4	48	47	67
39	4	51	52	56
40	4	69	70	86
41	4	10	9	14
42	3	36	38	40
43	4	5	4	24
44	9	39	38	40
45	9	71	83	84
46	1	9	10	11
47	4	29	28	42
48	4	49	50	51
49	7	16	8	17
50	4	29	28	43
51	9	36	38	39
52	4	47	48	64
53	4	75	74	77
54	7	18	7	19
55	3	28	29	30
56	4	49	48	64
57	3	73	79	81
58	4	50	49	63
59	4	31	32	35
60	4	69	70	85
61	7	60	50	61
62	4	4	5	23
63	6	12	11	27
64	4	51	52	53
65	4	52	51	59
66	3	45	44	46
67	4	8	7	18
68	7	85	70	86
69	3	72	73	74
70	7	20	6	21
71	4	51	50	61
72	4	33	32	35
73	4	31	32	34
74	3	74	73	79
75	9	38	40	41
76	3	2	1	3
77	7	58	51	59
78	4	3	4	24
79	3	10	11	27
80	4	27	28	29
81	3	31	36	38
82	4	50	51	52
83	5	32	33	69
84	4	6	5	23
85	4	7	8	9
86	4	8	9	10
87	3	79	81	83
88	4	33	32	34
89	4	73	74	75
90	3	70	71	83
91	7	14	9	15
92	2	4	3	26
93	7	56	52	57
94	4	7	8	16
95	4	8	7	19
96	4	27	28	42
97	4	7	8	17
98	4	50	51	59
99	4	9	8	16
100	4	9	8	17
101	4	27	28	43
102	4	50	49	62
103	4	47	48	49
104	4	48	49	62
105	7	22	5	23
106	9	37	36	38
107	5	11	27	28
108	7	64	48	65
109	4	6	7	8
110	1	44	46	47
111	3	30	29	40
112	8	52	53	54
113	4	48	47	66
114	3	30	31	32
115	4	5	4	25
116	4	6	7	19
117	4	49	50	60
118	4	52	51	58
119	4	69	70	71
120	4	46	47	67
121	3	2	1	44
122	2	9	10	13
123	4	6	7	18
124	9	82	81	83
125	8	29	30	31
126	4	48	49	50
127	4	73	74	78
128	3	70	71	72
129	9	29	40	41
130	2	11	10	13
131	9	73	79	80
132	4	71	70	86
133	8	71	72	73
134	3	30	31	36
135	4	8	9	15
136	2	1	3	26
137	4	49	48	65
138	3	72	73	79
139	3	71	83	81
140	3	29	40	38
141	4	4	5	22
142	4	50	51	58
143	4	75	74	78
144	4	7	6	20
145	4	7	6	21
146	3	1	44	45
147	4	8	9	14
148	2	47	46	68
149	4	71	70	85
150	4	53	52	57
151	4	49	50	61
152	7	62	49	63

Dihedrals

1	15	6	7	8	9
1	16	6	7	8	9
1	17	6	7	8	9
2	26	30	29	28	42
3	28	73	79	81	83
4	25	20	6	5	23
5	25	58	51	50	60
6	26	30	31	32	35
7	14	3	4	5	22
8	26	30	29	28	43
9	18	51	50	49	63
10	28	36	38	40	41
11	18	49	48	47	67
12	25	16	8	7	18
13	15	48	49	50	51
13	16	48	49	50	51
13	17	48	49	50	51
14	26	72	71	70	86
15	28	29	40	38	39
16	1	44	46	47	48
16	2	44	46	47	48
16	3	44	46	47	48
16	4	44	46	47	48
17	18	6	7	8	16
18	18	4	5	6	20
19	5	8	9	10	13
19	6	8	9	10	13
20	18	6	7	8	17
21	18	4	5	6	21
22	28	30	29	40	41
23	25	63	49	48	64
24	25	57	52	51	59
25	28	30	31	36	37
26	25	19	7	6	20
27	7	9	10	11	27
27	8	9	10	11	27
28	25	19	7	6	21
29	18	8	7	6	20
30	14	53	52	51	58
31	5	25	4	3	26
31	6	25	4	3	26
32	18	8	7	6	21
33	5	1	3	4	24
33	6	1	3	4	24
34	14	3	4	5	6
35	5	66	47	46	68
35	6	66	47	46	68
36	25	60	50	49	62
37	5	44	46	47	66
37	6	44	46	47	66
38	26	69	70	71	72
39	26	33	32	31	36
40	7	4	3	1	44
40	8	4	3	1	44
41	18	7	6	5	23
42	25	65	48	47	67
43	15	49	50	51	52
43	16	49	50	51	52
43	17	49	50	51	52
44	18	52	51	50	60
45	28	80	79	81	82
46	7	1	44	46	68
46	8	1	44	46	68
47	31	54	53	52	56
48	20	31	32	33	69
49	20	33	69	70	71
50	5	11	10	9	15
50	6	11	10	9	15
51	25	59	51	50	61
52	25	62	49	48	64
53	25	64	48	47	66
54	26	72	73	74	77
55	14	46	47	48	65
56	18	6	5	4	25
57	28	70	71	83	84
58	15	47	48	49	50
58	16	47	48	49	50
58	17	47	48	49	50
59	26	27	28	29	40
60	29	29	30	31	36
61	15	4	5	6	7
61	16	4	5	6	7
61	17	4	5	6	7
62	25	56	52	51	59
63	26	72	73	74	75
64	28	31	36	38	40
65	25	61	50	49	63
66	18	50	49	48	64
67	14	7	8	9	10
68	20	34	32	33	69
69	5	11	10	9	14
69	6	11	10	9	14
70	25	16	8	7	19
71	18	5	6	7	19
72	13	2	1	44	45
73	26	83	71	70	86
74	18	49	50	51	59
75	28	73	79	81	82
76	26	40	29	28	42
77	27	71	72	73	74
78	28	31	36	38	39
79	5	24	4	3	26
79	6	24	4	3	26
80	26	40	29	28	43
81	5	5	4	3	26
81	6	5	4	3	26
82	25	58	51	50	61
83	28	72	73	79	81
84	5	48	47	46	68
84	6	48	47	46	68
85	25	23	5	4	24
86	18	5	6	7	18
87	28	72	71	83	81
88	11	45	44	46	68
88	12	45	44	46	68
89	31	51	52	53	54
90	32	52	53	54	55
91	13	2	1	44	46
92	25	21	6	5	23
93	29	31	30	29	40
94	26	30	31	32	34
95	27	28	29	30	31
96	28	28	29	40	41
97	28	71	83	81	82
98	29	73	72	71	83
99	20	11	27	28	29
100	25	15	9	8	16
101	28	29	40	38	36
102	25	15	9	8	17
103	14	3	4	5	23
104	26	72	71	70	85
105	25	22	5	4	24
106	13	3	1	44	45
107	20	35	32	33	69
108	7	13	10	11	27
108	8	13	10	11	27
109	18	47	48	49	63
110	7	26	3	1	44
110	8	26	3	1	44
111	25	57	52	51	58
112	14	10	9	8	16
113	18	48	49	50	60
114	14	10	9	8	17
115	18	52	51	50	61
116	28	28	29	40	38
117	18	49	48	47	66
118	1	1	3	4	5
118	2	1	3	4	5
118	3	1	3	4	5
118	4	1	3	4	5
119	7	9	10	11	12
119	8	9	10	11	12
120	11	2	1	3	26
120	12	2	1	3	26
121	13	3	1	44	46
122	28	32	31	36	38
123	18	51	50	49	62
124	28	74	73	79	81
125	5	1	3	4	25
125	6	1	3	4	25
126	28	39	38	40	41
127	25	56	52	51	58
128	26	27	28	29	30
129	19	10	11	27	28
130	14	46	47	48	64
131	25	65	48	47	66
132	25	60	50	49	63
133	28	82	81	83	84
134	1	8	9	10	11
134	2	8	9	10	11
134	3	8	9	10	11
134	4	8	9	10	11
135	25	20	6	5	22
136	28	70	71	83	81
137	33	73	74	75	76
138	28	80	79	81	83
139	18	49	50	51	58
140	26	83	71	70	85
141	18	50	51	52	57
142	18	7	8	9	15
143	28	72	71	83	84
144	23	12	11	27	28
144	24	12	11	27	28
145	26	35	32	31	36
146	25	21	6	5	22
147	7	1	44	46	47
147	8	1	44	46	47
148	28	30	31	36	38
149	20	33	69	70	86
150	5	44	46	47	67
150	6	44	46	47	67
151	25	17	8	7	19
152	18	47	48	49	62
153	18	7	8	9	14
154	26	75	74	73	79
155	18	50	51	52	56
156	33	76	75	74	78
157	25	64	48	47	67
158	18	6	5	4	24
159	18	7	6	5	22
160	14	53	52	51	59
161	18	48	49	50	61
162	25	61	50	49	62
163	26	78	74	73	79
164	26	30	31	32	33
165	25	17	8	7	18
166	25	23	5	4	25
167	25	62	49	48	65
168	20	11	27	28	42
169	20	33	69	70	85
170	28	37	36	38	40
171	20	11	27	28	43
172	28	71	83	81	79
173	31	54	53	52	57
174	26	69	70	71	83
175	29	71	72	73	79
176	26	72	73	74	78
177	27	70	71	72	73
178	28	74	73	79	80
179	33	76	75	74	77
180	18	50	49	48	65
181	28	72	73	79	80
182	9	45	44	46	47
182	10	45	44	46	47
183	28	79	81	83	84
184	26	77	74	73	79
185	14	50	51	52	53
186	5	13	10	9	15
186	6	13	10	9	15
187	25	59	51	50	60
188	28	37	36	38	39
189	25	14	9	8	16
190	25	14	9	8	17
191	25	22	5	4	25
192	14	46	47	48	49
193	28	30	29	40	38
194	9	2	1	3	4
194	10	2	1	3	4
195	18	9	8	7	19
196	30	32	33	69	70
197	5	13	10	9	14
197	6	13	10	9	14
198	28	32	31	36	37
199	15	5	6	7	8
199	16	5	6	7	8
199	17	5	6	7	8
200	5	67	47	46	68
200	6	67	47	46	68
201	21	12	11	10	13
201	22	12	11	10	13
202	25	63	49	48	65
203	18	9	8	7	18
204	25	18	7	6	20
205	26	34	32	31	36
206	25	18	7	6	21
207	27	29	30	31	32

Impropers

8	2	71	70	72	83
13	2	71	72	83	70
19	2	36	31	37	38
23	1	46	44	47	68
47	2	31	32	36	30
48	2	38	36	39	40
50	2	83	84	71	81
56	2	29	40	28	30
58	2	40	29	38	41
76	2	38	40	36	39
80	2	73	79	72	74
89	2	83	81	84	71
91	2	40	38	41	29
96	1	10	9	11	13
109	2	31	36	30	32
110	2	31	30	32	36
115	1	3	1	4	26
164	2	79	81	73	80
165	1	3	26	1	4
167	2	36	38	31	37
172	2	40	41	29	38
177	2	81	79	82	83
181	2	29	30	40	28
183	3	11	12	27	10
184	2	29	28	30	40
193	2	36	37	38	31
198	1	3	4	26	1
208	2	44	46	1	45
212	1	10	13	9	11
224	2	73	74	79	72
237	1	10	11	13	9
247	2	44	1	45	46
250	2	44	45	46	1
255	1	46	68	44	47
260	2	73	72	74	79
315	2	38	39	40	36
321	2	1	2	3	44
324	2	1	3	44	2
347	2	71	83	70	72
361	2	83	71	81	84
366	2	1	44	2	3
370	2	81	83	79	82
372	3	11	10	12	27
383	2	81	82	83	79
397	2	79	80	81	73
400	3	11	27	10	12
469	2	79	73	80	81
473	1	46	47	68	44
