Title

8500 atoms
8875 bonds
14750 angles
21375 dihedrals
9750 impropers

9 atom types
13 bond types
5 angle types
8 dihedral types
2 improper types
-8.66472411 92.39959488 xlo xhi
-9.067253588 92.41468031 ylo yhi
-9.131575706 92.18522053 zlo zhi
0.0 0.0 0.0 xy xz yz

Masses

1	15.99943
2	12.01078
3	1.007947
4	12.01078
5	18.998403
6	15.99943
7	15.99943
8	1.007947
9	35.4532


Pair Coeffs

1	0.16846514	3.0251065
2	0.086879315	3.4806469
3	0.015611343	2.5725815
4	0.10884061	3.3795318
5	0.061	3.1181455
6	0.2102061	3.0398122
7	0.20947353	2.99716
8	1.2326e-05	0.53453923
9	0.2656001	3.3075278

Bond Coeffs

1 harmonic	425.69104206635	1.362945806494
2 harmonic	300.03137914615	1.451203938761
3 harmonic	360.7852444772	1.387193227181
4 harmonic	397.2545789619	1.085358495916
5 harmonic	289.73813263395	1.498646816465
6 harmonic	264.62148576755	1.52190126495
7 harmonic	301.15400723785	1.345741232799
8 harmonic	340.45121009905	1.358690858053
9 harmonic	582.698766451	1.225198386222
10 harmonic	279.1350963404	1.454628925034
11 harmonic	385.7604595587	1.369745182308
12 harmonic	543.5267831885	0.9716763312559
13 harmonic	218.0227703685	1.746066037062


Angle Coeffs

1 harmonic	57.8982893754	126.8062420451
2 harmonic	65.09061609600001	110.3538806181
3 harmonic	34.066775159195	129.1835929926
4 harmonic	53.20531626545	116.5475862634
5 harmonic	201.41175231035	127.4691416191


Dihedral Coeffs

1 fourier 1	3.661930099076	2	180
2 fourier 1	1.532232714475	2	180
3 fourier 1	0.457973137376	1	0
4 fourier 1	0.02664938770063	3	0
5 fourier 1	0.1155372516788	3	0
6 fourier 1	2.779853741805	2	180
7 fourier 1	0.9974165607242	2	180
8 fourier 1	0.8283030590042	2	180


Improper Coeffs

1 0.3666666666666667	-1	2
2 3.5	-1	2


Atoms

1	4	1	-0.021494016	-3.8482134	0.79748093	1.4645753
2	4	2	0.27856034	-2.6479561	0.29933886	1.9633115
3	4	2	-0.31933201	-2.6143194	-0.91056119	2.5291139
4	4	3	0.22705961	-3.5175199	-1.5029092	2.6038039
5	4	2	-0.15685611	-1.3467529	-1.4477393	3.0617863
6	4	3	0.2110455	-1.3698053	-2.4245509	3.5286844
7	4	2	-0.085545149	-0.19047813	-0.74924584	2.9661541
8	4	4	-0.2658605	1.1125508	-1.3282379	3.5766725
9	4	2	-0.085545141	1.2643518	-2.8114653	3.1534683
10	4	2	-0.15771184	1.0842097	-3.1638646	1.8577713
11	4	3	0.2110455	0.79990662	-2.4291297	1.116067
12	4	2	-0.27123517	1.2610713	-4.5598434	1.4108471
13	4	3	0.22697034	1.0895893	-4.8098427	0.37161316
14	4	2	0.43951872	1.6330015	-5.5053474	2.2834822
15	4	1	-0.44059658	1.8048201	-6.8277267	1.878003
16	4	2	-0.27123511	1.8686633	-5.1429131	3.693003
17	4	3	0.22697039	2.1823689	-5.9048229	4.3955792
18	4	2	-0.15771187	1.7027594	-3.8801461	4.1059924
19	4	3	0.2110455	1.8966862	-3.6670953	5.1450477
20	4	4	0.75014054	0.99754049	-1.1469777	5.128257
21	4	5	-0.20847631	2.2054049	-1.396016	5.7595656
22	4	5	-0.20847631	0.038696445	-1.9972705	5.6550645
23	4	5	-0.20847631	0.62603031	0.15194477	5.4367723
24	4	4	0.75014054	2.3976537	-0.58655421	3.0764776
25	4	5	-0.20847631	3.535012	-1.2840317	3.4544698
26	4	5	-0.20847631	2.405359	-0.48579737	1.6951078
27	4	5	-0.20847631	2.4920966	0.68631297	3.6138636
28	4	2	-0.15685611	-0.2558087	0.61369742	2.349447
29	4	3	0.21104548	0.61847283	1.2402845	2.2682468
30	4	2	-0.31933195	-1.4094586	1.0979227	1.8747746
31	4	3	0.22705967	-1.436926	2.0839999	1.4288023
32	5	2	0.62843382	1.6476223	-7.1248845	0.88381379
33	5	6	-0.49536747	0.90221321	-6.4816708	0.16547727
34	1	1	-0.021494016	-3.8965386	1.712257	1.0316453
35	1	2	0.27856034	-3.1910837	1.9971151	-0.13418283
36	1	2	-0.31933201	-3.2748553	3.2126066	-0.68242875
37	1	3	0.22705961	-3.8916802	3.9750645	-0.22503277
38	1	2	-0.15685611	-2.5305729	3.5232868	-1.9188731
39	1	3	0.2110455	-2.6425331	4.515315	-2.3385478
40	1	2	-0.085545149	-1.7290928	2.6048049	-2.5082385
41	1	4	-0.2658605	-0.99755081	2.9547119	-3.8304671
42	1	2	-0.085545141	-0.32843135	4.3468062	-3.6948881
43	1	2	-0.11790289	0.40319415	4.6376989	-2.5923131
44	1	3	0.2110455	0.49956676	3.9230766	-1.784498
45	1	2	-0.4112677	1.0905022	5.9358679	-2.447503
46	1	3	0.2323606	1.6495789	6.1415802	-1.5436243
47	1	2	0.43266764	1.0226086	6.846404	-3.4262325
48	1	7	-0.64881564	1.6655565	8.0770658	-3.3057733
49	1	8	0.43593272	2.1992996	8.3220825	-2.4794082
50	1	2	-0.41126764	0.26190139	6.5430914	-4.650959
51	1	3	0.2323606	0.21787618	7.2742543	-5.4488667
52	1	2	-0.11790293	-0.36854309	5.3700593	-4.7865337
53	1	3	0.2110455	-0.90462044	5.1961214	-5.7061101
54	1	4	0.75014054	-2.0775715	2.9084269	-4.9641681
55	1	5	-0.20847631	-1.4974366	2.9567273	-6.2211409
56	1	5	-0.20847631	-2.9649234	3.9655778	-4.8448005
57	1	5	-0.20847631	-2.8085396	1.7341387	-4.8860739
58	1	4	0.75014054	0.14375809	1.9413533	-4.1795935
59	1	5	-0.20847631	0.91401978	2.4244339	-5.225027
60	1	5	-0.20847631	0.98087149	1.7452625	-3.0936738
61	1	5	-0.20847631	-0.36847527	0.71508197	-4.570675
62	1	2	-0.15685611	-1.6684529	1.2422789	-1.8898513
63	1	3	0.21104548	-1.076215	0.45128483	-2.3219063
64	1	2	-0.31933195	-2.3508859	0.96457796	-0.77282656
65	1	3	0.22705967	-2.2920466	-0.025421712	-0.33769028
66	2	2	0.46767243	2.1502022	-8.0041945	0.49537911
67	2	6	-0.57051599	2.9630576	-8.5965293	1.1852317
68	2	9	-0.082284141	1.7912122	-8.5753155	-1.1233043
69	4	1	-0.021494016	2.1686669	-3.3609214	19.60082
70	4	2	0.27856034	2.201759	-2.4635396	18.537283
71	4	2	-0.31933201	2.1086017	-2.9151929	17.283308
72	4	3	0.22705961	2.0108274	-3.9763132	17.091761
73	4	2	-0.15685611	2.1434098	-1.9719644	16.148348
74	4	3	0.2110455	2.0836939	-2.3837601	15.148576
75	4	2	-0.085545149	2.2399118	-0.63568303	16.345957
76	4	4	-0.2658605	2.31747	0.3201582	15.126859
77	4	2	-0.085545141	1.2195587	-0.0626771	14.102097
78	4	2	-0.15771184	-0.049119767	-0.28085592	14.524376
79	4	3	0.2110455	-0.30252755	-0.2267787	15.574924
80	4	2	-0.27123517	-1.1291813	-0.6066919	13.571971
81	4	3	0.22697034	-2.1274866	-0.79461281	13.946117
82	4	2	0.43951872	-0.87489069	-0.66564504	12.258326
83	4	1	-0.44059658	-1.8830698	-0.97142872	11.345806
84	4	2	-0.27123511	0.48989305	-0.39925975	11.768379
85	4	3	0.22697039	0.69239667	-0.4337565	10.705208
86	4	2	-0.15771187	1.4752421	-0.11053641	12.627676
87	4	3	0.2110455	2.452685	0.084511016	12.216342
88	4	4	0.75014054	3.7657566	0.18571648	14.545577
89	4	5	-0.20847631	4.0321499	1.1743093	13.612182
90	4	5	-0.20847631	3.9441249	-1.0502077	13.945092
91	4	5	-0.20847631	4.7053655	0.3036653	15.55732
92	4	4	0.75014054	2.0664097	1.8166097	15.513357
93	4	5	-0.20847631	1.9077152	2.5892455	14.372836
94	4	5	-0.20847631	0.9152568	1.9456452	16.272693
95	4	5	-0.20847631	3.1295948	2.3427581	16.227989
96	4	2	-0.15685611	2.3664608	-0.15359575	17.757973
97	4	3	0.21104548	2.4788652	0.89380319	17.990123
98	4	2	-0.31933195	2.3413278	-1.0144084	18.782212
99	4	3	0.22705967	2.4304113	-0.64728525	19.796746
100	5	2	0.62843382	-2.8668005	-1.1663372	11.655177
101	5	6	-0.49536747	-3.0819251	-1.5749642	12.783056
102	1	1	-0.021494016	2.237712	-3.040341	20.559486
103	1	2	0.27856034	1.2681393	-2.2096025	21.114254
104	1	2	-0.31933201	1.3859299	-1.8034197	22.381595
105	1	3	0.22705961	2.230654	-2.1206781	22.978934
106	1	2	-0.15685611	0.36225568	-0.92280581	22.978154
107	1	3	0.2110455	0.48833594	-0.63339932	24.014074
108	1	2	-0.085545149	-0.6964522	-0.48411916	22.257028
109	1	4	-0.2658605	-1.7740498	0.40446929	22.931618
110	1	2	-0.085545141	-1.0794172	1.5320154	23.737939
111	1	2	-0.11790289	-0.081704797	2.2503692	23.168638
112	1	3	0.2110455	0.26389539	2.0255139	22.16737
113	1	2	-0.4112677	0.57350986	3.3594148	23.889275
114	1	3	0.2323606	1.3811925	3.8984546	23.410771
115	1	2	0.43266764	0.16965205	3.6937027	25.120838
116	1	7	-0.64881564	0.77735805	4.7381174	25.815325
117	1	8	0.43593272	1.5400186	5.2729822	25.415247
118	1	2	-0.41126764	-0.93607843	2.9512724	25.750748
119	1	3	0.2323606	-1.2721824	3.230166	26.741932
120	1	2	-0.11790293	-1.5309721	1.9407198	25.105201
121	1	3	0.2110455	-2.3401391	1.4357282	25.608675
122	1	4	0.75014054	-2.6348786	-0.54427376	23.833131
123	1	5	-0.20847631	-3.7800154	0.088264001	24.288573
124	1	5	-0.20847631	-1.9059726	-0.98240764	24.926723
125	1	5	-0.20847631	-3.0315273	-1.661542	23.116369
126	1	4	0.75014054	-2.7153654	1.1082687	21.897228
127	1	5	-0.20847631	-3.4942435	2.0651304	22.527598
128	1	5	-0.20847631	-1.9794969	1.7450167	20.91159
129	1	5	-0.20847631	-3.5732732	0.20319978	21.293976
130	1	2	-0.15685611	-0.82071456	-0.97050229	20.846161
131	1	3	0.21104548	-1.6538246	-0.6881542	20.222225
132	1	2	-0.31933195	0.10686	-1.774264	20.313104
133	1	3	0.22705967	0.0022895044	-2.1131001	19.289796
134	2	2	0.46767243	-3.6923432	-1.0024736	10.970866
135	2	6	-0.57051599	-3.4866065	-0.51074364	9.873886
136	2	9	-0.082284141	-5.321993	-1.4476639	11.441223
137	4	1	-0.021494016	1.5314245	3.5140246	34.977321
138	4	2	0.27856034	1.8384486	2.6790943	36.047895
139	4	2	-0.31933201	1.894211	3.1786931	37.285801
140	4	3	0.22705961	1.7047318	4.2306221	37.458338
141	4	2	-0.15685611	2.21967	2.3019482	38.427913
142	4	3	0.2110455	2.2723475	2.7531994	39.410911
143	4	2	-0.085545149	2.4391359	0.97643929	38.257999
144	4	4	-0.2658605	2.8213916	0.096029281	39.476444
145	4	2	-0.085545141	1.8637545	0.40501651	40.655243
146	4	2	-0.15771184	0.52727579	0.46064862	40.440309
147	4	3	0.2110455	0.11770255	0.3273911	39.447695
148	4	2	-0.27123517	-0.41773031	0.71147574	41.546576
149	4	3	0.22697034	-1.4779613	0.76931687	41.335679
150	4	2	0.43951872	0.034086055	0.86258614	42.798307
151	4	1	-0.44059658	-0.8444702	1.0994948	43.85407
152	4	2	-0.27123511	1.481202	0.77304479	43.065668
153	4	3	0.22697039	1.8451807	0.88185925	44.079675
154	4	2	-0.15771187	2.3438686	0.55316076	42.065607
155	4	3	0.2110455	3.3904125	0.4877652	42.31681
156	4	4	0.75014054	4.3180169	0.41808552	39.807939
157	4	5	-0.20847631	4.8436578	-0.4879902	40.714711
158	4	5	-0.20847631	4.4439706	1.6941295	40.333062
159	4	5	-0.20847631	5.0915561	0.35518395	38.659862
160	4	4	0.75014054	2.6887878	-1.4361596	39.182178
161	4	5	-0.20847631	2.8054897	-2.1646771	40.356307
162	4	5	-0.20847631	1.4544053	-1.7287501	38.626224
163	4	5	-0.20847631	3.6786028	-1.8760222	38.319229
164	4	2	-0.15685611	2.394469	0.4425623	36.859718
165	4	3	0.21104548	2.5902098	-0.59612238	36.644328
166	4	2	-0.31933195	2.105792	1.2440007	35.827701
167	4	3	0.22705967	2.0743206	0.83961528	34.82397
168	5	2	0.62843382	-1.8809044	1.1690627	43.704436
169	5	6	-0.49536747	-2.319428	1.4955484	42.615183
170	1	1	-0.021494016	1.4837716	3.1563682	34.030542
171	1	2	0.27856034	0.54211465	2.1973352	33.667907
172	1	2	-0.31933201	0.50304678	1.7449395	32.411395
173	1	3	0.22705961	1.1987184	2.1239069	31.674204
174	1	2	-0.15685611	-0.49246946	0.72836631	32.017949
175	1	3	0.2110455	-0.50017932	0.40416628	30.984694
176	1	2	-0.085545149	-1.3639515	0.21128864	32.915992
177	1	4	-0.2658605	-2.4238338	-0.82299072	32.454698
178	1	2	-0.085545141	-1.7395324	-1.905071	31.580133
179	1	2	-0.11790289	-0.58669374	-2.4799377	31.999725
180	1	3	0.2110455	-0.11459128	-2.1693852	32.923421
181	1	2	-0.4112677	0.070465033	-3.5438036	31.215546
182	1	3	0.2323606	1.0015668	-3.9661317	31.571312
183	1	2	0.43266764	-0.48265624	-3.9807291	30.077675
184	1	7	-0.64881564	0.12453819	-4.9844056	29.3251
185	1	8	0.43593272	0.99851444	-5.4114151	29.610797
186	1	2	-0.41126764	-1.7538603	-3.3968762	29.615306
187	1	3	0.2323606	-2.2087225	-3.7595258	28.701644
188	1	2	-0.11790293	-2.3523359	-2.4277998	30.318558
189	1	3	0.2110455	-3.2848895	-2.0406597	29.939453
190	1	4	0.75014054	-3.5224217	-0.020605089	31.678072
191	1	5	-0.20847631	-4.6435323	-0.79741982	31.436122
192	1	5	-0.20847631	-3.0335484	0.44118971	30.466892
193	1	5	-0.20847631	-3.9277019	1.07981	32.415772
194	1	4	0.75014054	-3.099271	-1.5748833	33.650446
195	1	5	-0.20847631	-3.8512944	-2.6417492	33.185839
196	1	5	-0.20847631	-2.1462732	-2.0772449	34.520997
197	1	5	-0.20847631	-3.9499648	-0.74166115	34.358351
198	1	2	-0.15685611	-1.3177289	0.74962633	34.312636
199	1	3	0.21104548	-2.0018606	0.40790225	35.073081
200	1	2	-0.31933195	-0.41754541	1.6761731	34.661574
201	1	3	0.22705967	-0.39654585	2.0511982	35.677359
202	2	2	0.46767243	-2.5618576	0.94875362	44.519556
203	2	6	-0.57051599	-2.127738	0.53722049	45.582416
204	2	9	-0.082284141	-4.2864087	1.1874759	44.309498
205	4	1	-0.021494016	3.213051	-2.5723024	54.212888
206	4	2	0.27856034	2.4187106	-2.241122	55.306892
207	4	2	-0.31933201	2.9861518	-1.779256	56.424842
208	4	3	0.22705961	4.0611868	-1.6649441	56.48365
209	4	2	-0.15685611	2.1528247	-1.4258714	57.590908
210	4	3	0.2110455	2.656606	-1.0733152	58.482308
211	4	2	-0.085545149	0.80328087	-1.5309875	57.549773
212	4	4	-0.2658605	-0.035046881	-1.1916157	58.809885
213	4	2	-0.085545141	0.44955923	0.15586016	59.402822
214	4	2	-0.15771184	0.63628963	1.2218778	58.587834
215	4	3	0.2110455	0.48612099	1.1381304	57.519553
216	4	2	-0.27123517	1.0572633	2.5319644	59.122841
217	4	3	0.22697034	1.2164569	3.3572111	58.440538
218	4	2	0.43951872	1.2368524	2.6964374	60.439845
219	4	1	-0.44059658	1.6336297	3.9265753	60.961333
220	4	2	-0.27123511	1.0077694	1.5618877	61.35306
221	4	3	0.22697039	1.1399817	1.6986103	62.419061
222	4	2	-0.15771187	0.63310932	0.36935809	60.873302
223	4	3	0.2110455	0.4704409	-0.42426341	61.584876
224	4	4	0.75014054	0.14287627	-2.3914833	59.800924
225	4	5	-0.20847631	-0.75607473	-2.3190616	60.85266
226	4	5	-0.20847631	1.4281919	-2.4186839	60.31777
227	4	5	-0.20847631	-0.075675156	-3.5940556	59.147888
228	4	4	0.75014054	-1.5592463	-1.0195419	58.495265
229	4	5	-0.20847631	-2.2208462	-0.48675357	59.59133
230	4	5	-0.20847631	-1.7505126	-0.15741482	57.428237
231	4	5	-0.20847631	-2.1573257	-2.2325413	58.197226
232	4	2	-0.15685611	0.19054364	-2.0725781	56.295403
233	4	3	0.21104548	-0.87472582	-2.2138935	56.201574
234	4	2	-0.31933195	0.95208979	-2.3977974	55.244225
235	4	3	0.22705967	0.49119876	-2.7844368	54.344179
236	5	2	0.62843382	1.8057271	4.757852	60.344254
237	5	6	-0.49536747	2.108736	4.5971171	59.17476
238	1	1	-0.021494016	2.8038573	-2.9242213	53.355396
239	1	2	0.27856034	1.9317975	-2.1458378	52.599356
240	1	2	-0.31933201	1.4082049	-2.636885	51.472531
241	1	3	0.22705961	1.6623205	-3.6361982	51.144165
242	1	2	-0.15685611	0.48296736	-1.8183081	50.66436
243	1	3	0.2110455	0.097193002	-2.2495207	49.748928
244	1	2	-0.085545149	0.12102797	-0.57293092	51.053418
245	1	4	-0.2658605	-0.81905631	0.27290813	50.155267
246	1	2	-0.085545141	-2.0218531	-0.59693745	49.707297
247	1	2	-0.11790289	-2.6909171	-1.3419613	50.619908
248	1	3	0.2110455	-2.3759738	-1.3672181	51.655625
249	1	2	-0.4112677	-3.867014	-2.1484093	50.239063
250	1	3	0.2323606	-4.3646917	-2.7475774	50.990858
251	1	2	0.43266764	-4.3120064	-2.1354391	48.97676
252	1	7	-0.64881564	-5.4209792	-2.8909561	48.600204
253	1	8	0.43593272	-5.9215072	-3.4718756	49.263377
254	1	2	-0.41126764	-3.6238704	-1.3075093	47.970961
255	1	3	0.2323606	-3.9917395	-1.2862008	46.952427
256	1	2	-0.11790293	-2.5532721	-0.57815195	48.308159
257	1	3	0.2110455	-2.0918146	0.015889634	47.535226
258	1	4	0.75014054	0.047391209	0.77643823	48.951278
259	1	5	-0.20847631	-0.61682406	1.7453274	48.217151
260	1	5	-0.20847631	0.37631998	-0.27137873	48.106828
261	1	5	-0.20847631	1.2294887	1.3357918	49.40859
262	1	4	0.75014054	-1.4165137	1.5136172	50.900289
263	1	5	-0.20847631	-2.4225484	2.0919088	50.143272
264	1	5	-0.20847631	-1.9635992	1.1437223	52.117789
265	1	5	-0.20847631	-0.45302996	2.4834395	51.124371
266	1	2	-0.15685611	0.73791884	-0.034022824	52.307045
267	1	3	0.21104548	0.52096214	0.96126963	52.66118
268	1	2	-0.31933195	1.5813891	-0.77829258	53.03175
269	1	3	0.22705967	2.0150462	-0.37320212	53.937702
270	2	2	0.46767243	1.7123194	5.7604635	60.747614
271	2	6	-0.57051599	1.3237531	5.9234969	61.892134
272	2	9	-0.082284141	2.1231195	7.1462644	59.754644
273	4	1	-0.021494016	3.6647267	-1.9441259	73.974536
274	4	2	0.27856034	3.2152264	-0.78615923	73.346393
275	4	2	-0.31933201	3.4620783	-0.59608052	72.047141
276	4	3	0.22705961	4.012978	-1.3376887	71.482559
277	4	2	-0.15685611	2.9904221	0.62880869	71.371706
278	4	3	0.2110455	3.2292819	0.74974969	70.322418
279	4	2	-0.085545149	2.2771275	1.5690519	72.035908
280	4	4	-0.2658605	1.8365714	2.8629602	71.302722
281	4	2	-0.085545141	1.2192989	2.4920189	69.930321
282	4	2	-0.15771184	0.30065822	1.4993838	69.851316
283	4	3	0.2110455	0.015425565	0.93458562	70.72906
284	4	2	-0.27123517	-0.33887289	1.1464919	68.568255
285	4	3	0.22697034	-1.0541628	0.33449219	68.537761
286	4	2	0.43951872	-0.037934279	1.8274864	67.454934
287	4	1	-0.44059658	-0.63286168	1.5075408	66.235787
288	4	2	-0.27123511	0.93339591	2.9347576	67.519059
289	4	3	0.22697039	1.1665455	3.493942	66.621571
290	4	2	-0.15771187	1.5222871	3.2547839	68.678135
291	4	3	0.2110455	2.2182341	4.0783437	68.671734
292	4	4	0.75014054	3.1143565	3.7595476	71.172748
293	4	5	-0.20847631	2.7942932	5.0433156	70.761645
294	4	5	-0.20847631	4.0099689	3.2145761	70.266773
295	4	5	-0.20847631	3.7591676	3.8619377	72.395097
296	4	4	0.75014054	0.73947384	3.6595478	72.086051
297	4	5	-0.20847631	0.21131901	4.6639529	71.289082
298	4	5	-0.20847631	-0.30285562	2.8283402	72.461601
299	4	5	-0.20847631	1.2590462	4.2588308	73.221304
300	4	2	-0.15685611	2.032196	1.3465066	73.496282
301	4	3	0.21104548	1.4992978	2.0670149	74.096665
302	4	2	-0.31933195	2.468543	0.23723438	74.104404
303	4	3	0.22705967	2.2789251	0.091634889	75.160264
304	5	2	0.62843382	-1.3292758	0.72715271	66.149603
305	5	6	-0.49536747	-1.3162116	-0.19310499	66.948553
306	1	1	-0.021494016	3.4887139	-2.1086815	74.95867
307	1	2	0.27856034	2.1920024	-2.2401729	75.447767
308	1	2	-0.31933201	1.991092	-2.4572545	76.750656
309	1	3	0.22705961	2.8329987	-2.5343782	77.426135
310	1	2	-0.15685611	0.61946388	-2.5984122	77.277898
311	1	3	0.2110455	0.50430229	-2.7920822	78.337149
312	1	2	-0.085545149	-0.461021	-2.4840906	76.469929
313	1	4	-0.2658605	-1.8845636	-2.6820257	77.053217
314	1	2	-0.085545141	-2.0196044	-1.8689601	78.366502
315	1	2	-0.11790289	-1.6063191	-0.57929318	78.405494
316	1	3	0.2110455	-1.1487604	-0.11565972	77.540496
317	1	2	-0.4112677	-1.7584821	0.23913897	79.624355
318	1	3	0.2323606	-1.3982238	1.2599687	79.625615
319	1	2	0.43266764	-2.3378833	-0.27803035	80.714505
320	1	7	-0.64881564	-2.4894579	0.4808084	81.873647
321	1	8	0.43593272	-2.1668148	1.4402577	81.929793
322	1	2	-0.41126764	-2.8273011	-1.6674333	80.688839
323	1	3	0.2323606	-3.3083433	-2.0820199	81.566284
324	1	2	-0.11790293	-2.6874374	-2.4171348	79.588734
325	1	3	0.2110455	-3.0699815	-3.4250413	79.62096
326	1	4	0.75014054	-2.0675034	-4.2223743	77.271676
327	1	5	-0.20847631	-3.385706	-4.5430296	77.551662
328	1	5	-0.20847631	-1.271471	-4.6718364	78.312601
329	1	5	-0.20847631	-1.7014182	-4.9179776	76.13085
330	1	4	0.75014054	-3.0107812	-2.1716656	76.092729
331	1	5	-0.20847631	-4.2304644	-2.1485087	76.749568
332	1	5	-0.20847631	-2.7424564	-0.88536117	75.654717
333	1	5	-0.20847631	-3.1475086	-2.9959728	74.987789
334	1	2	-0.15685611	-0.21177681	-2.2640647	75.009784
335	1	3	0.21104548	-1.0226188	-2.1946423	74.302109
336	1	2	-0.31933195	1.0341464	-2.1438312	74.536713
337	1	3	0.22705967	1.1950737	-1.9813068	73.478132
338	2	2	0.46767243	-2.0618441	0.74078857	65.349721
339	2	6	-0.57051599	-2.1325828	1.7033046	64.604033
340	2	9	-0.082284141	-3.1419807	-0.62268521	65.127385
341	4	1	-0.021494016	-3.4830713	20.478003	0.94071614
342	4	2	0.27856034	-2.7040344	20.239234	-0.18781908
343	4	2	-0.31933201	-2.1797016	21.266044	-0.86299246
344	4	3	0.22705961	-2.3613585	22.28249	-0.53731759
345	4	2	-0.15685611	-1.3527275	21.023692	-2.0614933
346	4	3	0.2110455	-0.96370825	21.886083	-2.5884003
347	4	2	-0.085545149	-1.0814886	19.767154	-2.4875812
348	4	4	-0.2658605	-0.24492851	19.553969	-3.7762118
349	4	2	-0.085545141	1.0101323	20.462208	-3.7311195
350	4	2	-0.15771184	1.7679957	20.508371	-2.6090772
351	4	3	0.2110455	1.4905593	19.946172	-1.7271758
352	4	2	-0.27123517	2.992936	21.330003	-2.544112
353	4	3	0.22697034	3.5639075	21.35921	-1.6248452
354	4	2	0.43951872	3.3936375	22.029038	-3.6139669
355	4	1	-0.44059658	4.5477299	22.809247	-3.5696095
356	4	2	-0.27123511	2.605925	21.970074	-4.8588269
357	4	3	0.22697039	2.9373016	22.524621	-5.7278482
358	4	2	-0.15771187	1.4901425	21.232688	-4.9217214
359	4	3	0.2110455	0.956263	21.217264	-5.8584011
360	4	4	0.75014054	-1.1901638	19.881777	-4.9814375
361	4	5	-0.20847631	-0.63271743	19.4857	-6.1863788
362	4	5	-0.20847631	-1.4593027	21.239605	-5.0428637
363	4	5	-0.20847631	-2.3982708	19.21723	-4.8426722
364	4	4	0.75014054	0.27207607	18.083637	-3.9265742
365	4	5	-0.20847631	1.2024118	18.001936	-4.951629
366	4	5	-0.20847631	0.88881721	17.654035	-2.7631884
367	4	5	-0.20847631	-0.75905507	17.210255	-4.2296694
368	4	2	-0.15685611	-1.6983177	18.632545	-1.7296927
369	4	3	0.21104548	-1.5525056	17.606625	-2.0293598
370	4	2	-0.31933195	-2.4529149	18.859175	-0.64806527
371	4	3	0.22705967	-2.8877152	18.026187	-0.11040961
372	5	2	0.62843382	5.1354475	22.876325	-2.7027102
373	5	6	-0.49536747	4.6361859	22.671691	-1.6099024
374	1	1	-0.021494016	-3.8903677	19.71442	1.4676207
375	1	2	0.27856034	-3.0904754	18.773149	2.1096078
376	1	2	-0.31933201	-3.6563369	17.777399	2.7975724
377	1	3	0.22705961	-4.734054	17.702179	2.8599718
378	1	2	-0.15685611	-2.8158139	16.775108	3.4818282
379	1	3	0.2110455	-3.3167447	15.996229	4.0432531
380	1	2	-0.085545149	-1.4645892	16.820117	3.4076862
381	1	4	-0.2658605	-0.61480546	15.774626	4.1762507
382	1	2	-0.085545141	-1.1900647	14.357441	3.9219023
383	1	2	-0.11790289	-1.4911121	13.969613	2.6591568
384	1	3	0.2110455	-1.3689457	14.648952	1.8248232
385	1	2	-0.4112677	-1.9995499	12.613792	2.3730696
386	1	3	0.2323606	-2.2489604	12.345342	1.3544383
387	1	2	0.43266764	-2.147905	11.727281	3.3648787
388	1	7	-0.64881564	-2.6266928	10.443003	3.112265
389	1	8	0.43593272	-2.8783095	10.141123	2.1777324
390	1	2	-0.41126764	-1.7959296	12.111345	4.7430069
391	1	3	0.2323606	-1.9030482	11.389995	5.5438652
392	1	2	-0.11790293	-1.3396748	13.341044	5.0104333
393	1	3	0.2110455	-1.089663	13.567645	6.0348355
394	1	4	0.75014054	-0.66026371	16.185766	5.687132
395	1	5	-0.20847631	0.26398797	15.475218	6.4352966
396	1	5	-0.20847631	-1.9208543	15.970928	6.2200165
397	1	5	-0.20847631	-0.36673051	17.532223	5.8294577
398	1	4	0.75014054	0.8785858	15.74259	3.7070735
399	1	5	-0.20847631	1.529185	14.643823	4.2446895
400	1	5	-0.20847631	0.96216785	15.649726	2.3276452
401	1	5	-0.20847631	1.5636442	16.874809	4.1167619
402	1	2	-0.15685611	-0.85159553	17.957721	2.6509469
403	1	3	0.21104548	0.21777041	18.075786	2.5760723
404	1	2	-0.31933195	-1.6187261	18.867151	2.0385541
405	1	3	0.22705967	-1.1577389	19.681057	1.4927042
406	2	2	0.46767243	6.1881064	23.126512	-2.7799755
407	2	6	-0.57051599	6.7078699	23.244479	-3.8769808
408	2	9	-0.082284141	7.1411972	23.364279	-1.3272975
409	4	1	-0.021494016	3.7229816	16.566291	17.574927
410	4	2	0.27856034	2.710201	16.448199	18.522466
411	4	2	-0.31933201	2.9880003	16.622776	19.817639
412	4	3	0.22705961	3.9981179	16.85238	20.132552
413	4	2	-0.15685611	1.9213511	16.499	20.830537
414	4	3	0.2110455	2.1954813	16.629996	21.86995
415	4	2	-0.085545149	0.64073952	16.237238	20.476243
416	4	4	-0.2658605	-0.44380389	16.071354	21.572645
417	4	2	-0.085545141	-0.32315464	17.229713	22.595268
418	4	2	-0.15771184	-0.20445764	18.505905	22.156278
419	4	3	0.2110455	-0.15656727	18.72782	21.098332
420	4	2	-0.27123517	-0.12885555	19.638067	23.100878
421	4	3	0.22697034	-0.014239024	20.643332	22.715886
422	4	2	0.43951872	-0.20462264	19.421633	24.42043
423	4	1	-0.44059658	-0.13537136	20.479158	25.325674
424	4	2	-0.27123511	-0.36796852	18.045716	24.924231
425	4	3	0.22697039	-0.44269717	17.872227	25.990462
426	4	2	-0.15771187	-0.4297225	17.014078	24.073012
427	4	3	0.2110455	-0.5584426	16.029471	24.493266
428	4	4	0.75014054	-0.21382013	14.663062	22.218645
429	4	5	-0.20847631	-1.2728704	14.299551	23.034598
430	4	5	-0.20847631	0.94997006	14.648729	22.970505
431	4	5	-0.20847631	-0.093691478	13.694135	21.235207
432	4	4	0.75014054	-1.8994716	16.131	20.998839
433	4	5	-0.20847631	-2.8214466	16.220018	22.030816
434	4	5	-0.20847631	-2.0670727	17.241164	20.187767
435	4	5	-0.20847631	-2.204039	14.996564	20.265226
436	4	2	-0.15685611	0.3565672	16.022376	19.021839
437	4	3	0.21104548	-0.63325514	15.779023	18.668846
438	4	2	-0.31933195	1.3293555	16.129007	18.109146
439	4	3	0.22705967	1.1045243	15.973947	17.061577
440	5	2	0.62843382	-0.020231481	21.472224	25.006316
441	5	6	-0.49536747	0.49766318	21.710429	23.929093
442	1	1	-0.021494016	3.5346931	16.437973	16.587677
443	1	2	0.27856034	2.671563	17.287528	15.901217
444	1	2	-0.31933201	2.4431193	17.093712	14.599195
445	1	3	0.22705961	2.9292591	16.280685	14.07605
446	1	2	-0.15685611	1.5297084	17.990008	13.863256
447	1	3	0.2110455	1.3884534	17.807166	12.80524
448	1	2	-0.085545149	0.8833962	19.003419	14.486642
449	1	4	-0.2658605	-0.034476401	19.950555	13.670357
450	1	2	-0.085545141	-0.96339078	19.10711	12.759452
451	1	2	-0.11790289	-1.6249996	18.04254	13.273779
452	1	3	0.2110455	-1.4876727	17.748712	14.306903
453	1	2	-0.4112677	-2.5509894	17.24233	12.448666
454	1	3	0.2323606	-3.0469167	16.386052	12.88767
455	1	2	0.43266764	-2.7742737	17.575687	11.171711
456	1	7	-0.64881564	-3.6454201	16.831017	10.378621
457	1	8	0.43593272	-4.1327449	16.018206	10.738684
458	1	2	-0.41126764	-2.0940674	18.749039	10.596216
459	1	3	0.2323606	-2.2847772	19.027127	9.5669006
460	1	2	-0.11790293	-1.2486815	19.475824	11.337129
461	1	3	0.2110455	-0.78336247	20.328909	10.869177
462	1	4	0.75014054	0.91158147	20.899869	12.859405
463	1	5	-0.20847631	0.21074719	21.949811	12.289035
464	1	5	-0.20847631	1.5650588	20.205527	11.854385
465	1	5	-0.20847631	1.8764985	21.444385	13.691153
466	1	4	0.75014054	-0.96724799	20.822258	14.576691
467	1	5	-0.20847631	-1.9228412	21.46565	13.806958
468	1	5	-0.20847631	-1.6310623	20.036545	15.504289
469	1	5	-0.20847631	-0.25138376	21.796374	15.253231
470	1	2	-0.15685611	1.1722123	19.216506	15.940511
471	1	3	0.21104548	0.71851643	20.022814	16.494692
472	1	2	-0.31933195	2.0065409	18.404891	16.600628
473	1	3	0.22705967	2.2005916	18.572091	17.652908
474	2	2	0.46767243	-0.36382681	22.286679	25.635012
475	2	6	-0.57051599	-0.96084938	22.04706	26.671177
476	2	9	-0.082284141	-0.057838317	23.947513	25.162582
477	4	1	-0.021494016	1.1989575	22.319754	36.122147
478	4	2	0.27856034	1.4164825	21.307696	37.052697
479	4	2	-0.31933201	1.1163476	21.511304	38.338615
480	4	3	0.22705961	0.70789011	22.461285	38.659433
481	4	2	-0.15685611	1.3438881	20.444826	39.33354
482	4	3	0.2110455	1.1037837	20.660183	40.367298
483	4	2	-0.085545149	1.8299377	19.234319	38.969617
484	4	4	-0.2658605	2.0964283	18.154093	40.050332
485	4	2	-0.085545141	0.87012293	18.055728	40.992992
486	4	2	-0.15771184	-0.37754002	17.985129	40.469714
487	4	3	0.2110455	-0.53547348	18.032226	39.400309
488	4	2	-0.27123517	-1.5657818	17.849044	41.335359
489	4	3	0.22697034	-2.549429	17.815569	40.884548
490	4	2	0.43951872	-1.4256706	17.764913	42.664679
491	4	1	-0.44059658	-2.5368389	17.635693	43.496081
492	4	2	-0.27123511	-0.076810012	17.805113	43.258483
493	4	3	0.22697039	0.037195163	17.723583	44.332209
494	4	2	-0.15771187	1.0041696	17.935841	42.479344
495	4	3	0.2110455	1.967455	17.950958	42.963582
496	4	4	0.75014054	3.4049235	18.582859	40.796989
497	4	5	-0.20847631	3.8800892	17.568392	41.612207
498	4	5	-0.20847631	3.1838708	19.708687	41.573877
499	4	5	-0.20847631	4.4035089	18.887507	39.885716
500	4	4	0.75014054	2.3081549	16.727166	39.441375
501	4	5	-0.20847631	2.3016738	15.769097	40.443872
502	4	5	-0.20847631	1.2939567	16.412671	38.552056
503	4	5	-0.20847631	3.5217254	16.630684	38.7812
504	4	2	-0.15685611	2.1810552	19.036076	37.527526
505	4	3	0.21104548	2.6022596	18.109562	37.170132
506	4	2	-0.31933195	1.9789815	20.009333	36.631628
507	4	3	0.22705967	2.2354092	19.846708	35.592498
508	5	2	0.62843382	-3.5127933	17.602496	43.111586
509	5	6	-0.49536747	-3.760892	18.111452	42.032338
510	1	1	-0.021494016	1.4192911	22.186955	35.142149
511	1	2	0.27856034	0.76526074	21.223287	34.379553
512	1	2	-0.31933201	1.0768725	21.071659	33.089236
513	1	3	0.22705961	1.8334903	21.69755	32.634465
514	1	2	-0.15685611	0.38806248	20.052603	32.272941
515	1	3	0.2110455	0.65912775	19.9772	31.227178
516	1	2	-0.085545149	-0.54671164	19.233579	32.810275
517	1	4	-0.2658605	-1.2796913	18.204721	31.910236
518	1	2	-0.085545141	-0.24116629	17.451878	31.039189
519	1	2	-0.11790289	0.8802517	16.950697	31.610858
520	1	3	0.2110455	1.0809183	17.098592	32.664612
521	1	2	-0.4112677	1.8701832	16.191049	30.822457
522	1	3	0.2323606	2.764743	15.822845	31.308326
523	1	2	0.43266764	1.6601126	15.960135	29.520863
524	1	7	-0.64881564	2.5844777	15.244745	28.761793
525	1	8	0.43593272	3.4399438	14.880753	29.166122
526	1	2	-0.41126764	0.43251757	16.464452	28.881095
527	1	3	0.2323606	0.25566877	16.266246	27.831031
528	1	2	-0.11790293	-0.46673203	17.158982	29.588783
529	1	3	0.2110455	-1.3513691	17.498446	29.073578
530	1	4	0.75014054	-2.3140458	19.01468	31.057041
531	1	5	-0.20847631	-3.198968	18.175566	30.400025
532	1	5	-0.20847631	-1.6700404	19.802836	30.117213
533	1	5	-0.20847631	-3.0588028	19.853045	31.870581
534	1	4	0.75014054	-2.047229	17.116112	32.73315
535	1	5	-0.20847631	-2.4779957	16.096629	31.899666
536	1	5	-0.20847631	-1.2268034	16.554884	33.6977
537	1	5	-0.20847631	-3.1651594	17.645761	33.356666
538	1	2	-0.15685611	-0.89679132	19.436703	34.252059
539	1	3	0.21104548	-1.6539975	18.842866	34.738974
540	1	2	-0.31933195	-0.27381018	20.366809	34.985117
541	1	3	0.22705967	-0.53756334	20.49698	36.02742
542	2	2	0.46767243	-4.3004912	17.11355	43.674718
543	2	6	-0.57051599	-4.0356598	16.528092	44.711345
544	2	9	-0.082284141	-5.9548787	17.167917	43.095723
545	4	1	-0.021494016	0.5282238	15.633133	51.858599
546	4	2	0.27856034	0.014522143	16.9153	52.030824
547	4	2	-0.31933201	-1.2469726	17.178873	51.678287
548	4	3	0.22705961	-1.8693781	16.399861	51.256413
549	4	2	-0.15685611	-1.8011471	18.535447	51.856109
550	4	3	0.2110455	-2.8221113	18.708493	51.539291
551	4	2	-0.085545149	-1.0638128	19.531289	52.402595
552	4	4	-0.2658605	-1.6667715	20.954421	52.532918
553	4	2	-0.085545141	-3.0920045	20.856414	53.133929
554	4	2	-0.15771184	-3.3104043	20.086367	54.226997
555	4	3	0.2110455	-2.5097553	19.507737	54.668514
556	4	2	-0.27123517	-4.6456914	20.001619	54.851179
557	4	3	0.22697034	-4.7891796	19.360881	55.711865
558	4	2	0.43951872	-5.6671913	20.71358	54.357772
559	4	1	-0.44059658	-6.9338478	20.6454	54.935314