Title

88 atoms
93 bonds
166 angles
289 dihedrals
78 impropers

9 atom types
13 bond types
6 angle types
13 dihedral types
2 improper types
-3.970000029 96.02999997 xlo xhi
-4.987999916 95.01200008 ylo yhi
-6.973999977 93.02600002 zlo zhi
0.0 0.0 0.0 xy xz yz

Masses

1	15.99943
2	12.01078
3	1.007947
4	12.01078
5	1.007947
6	15.99943
7	15.99943
8	1.007947
9	35.4532


Pair Coeffs

1	0.16846514	3.0251065
2	0.086879315	3.4806469
3	0.015611343	2.5725815
4	0.10884061	3.3795318
5	0.015779483	2.6445434
6	0.2102061	3.0398122
7	0.20947353	2.99716
8	1.2326e-05	0.53453923
9	0.2656001	3.3075278

Bond Coeffs

1 harmonic	425.69104206635	1.362945806494
2 harmonic	300.03137914615	1.451203938761
3 harmonic	360.7852444772	1.387193227181
4 harmonic	397.2545789619	1.085358495916
5 harmonic	289.73813263395	1.498646816465
6 harmonic	264.62148576755	1.52190126495
7 harmonic	301.15400723785	1.345741232799
8 harmonic	370.04670688625	1.093899492634
9 harmonic	582.698766451	1.225198386222
10 harmonic	279.1350963404	1.454628925034
11 harmonic	385.7604595587	1.369745182308
12 harmonic	543.5267831885	0.9716763312559
13 harmonic	218.0227703685	1.746066037062


Angle Coeffs

1 harmonic	57.8982893754	126.8062420451
2 harmonic	65.09061609600001	110.3538806181
3 harmonic	34.066775159195	129.1835929926
4 harmonic	53.20531626545	116.5475862634
5 harmonic	201.41175231035	127.4691416191
6 harmonic	48.776492647595	115.6030999533


Dihedral Coeffs

1 fourier 1	3.661930099076	2	180
2 fourier 1	1.532232714475	2	180
3 fourier 1	0.457973137376	1	0
4 fourier 1	0.02664938770063	3	0
5 fourier 1	0.1155372516788	3	0
6 fourier 1	0.1040663847541	3	0
7 fourier 1	0.09223874044423	3	0
8 fourier 1	0.3159935921949	2	180
9 fourier 1	0.3247796806857	1	180
10 fourier 1	2.779853741805	2	180
11 fourier 1	0.9974165607242	2	180
12 fourier 1	0.1911926717192	3	0
13 fourier 1	0.8283030590042	2	180


Improper Coeffs

1 0.3666666666666667	-1	2
2 3.5	-1	2


Atoms

1	1	1	-0.027495001	1.107	5.5170002	-1.563
2	1	2	0.274037	0.73799998	4.2399998	-1.145
3	1	2	-0.32396001	-0.011	4.0630002	-0.048999999
4	1	3	0.223369	-0.34400001	4.9159999	0.52899998
5	1	2	-0.159788	-0.39399999	2.704	0.384
6	1	3	0.208307	-1.0190001	2.6359999	1.26
7	1	2	-0.25086999	0.026000001	1.61	-0.29699999
8	1	4	-0.031257	-0.37200001	0.163	0.082000002
9	1	2	-0.25086999	0.91500002	-0.69499999	-0.022
10	1	2	-0.160373	1.9349999	-0.47600001	0.84299999
11	1	3	0.208307	1.865	0.285	1.607
12	1	2	-0.274717	3.187	-1.253	0.76499999
13	1	3	0.22372299	3.973	-1.072	1.487
14	1	2	0.43748799	3.352	-2.171	-0.192
15	1	1	-0.44254801	4.5359998	-2.901	-0.255
16	1	2	-0.274717	2.2780001	-2.398	-1.178
17	1	3	0.22372299	2.4189999	-3.1210001	-1.971
18	1	2	-0.160373	1.137	-1.701	-1.108
19	1	3	0.208307	0.398	-1.883	-1.873
20	1	4	-0.133017	-0.95300001	0.078000002	1.5420001
21	1	5	0.110593	-1.915	0.63099998	1.61
22	1	5	0.110593	-0.264	0.59100002	2.247
23	1	4	-0.150313	-1.173	-1.355	2.0739999
24	1	5	0.107468	-1.008	-1.352	3.1730001
25	1	5	0.107468	-0.42699999	-2.066	1.664
26	1	4	-0.150304	-2.5880001	-1.904	1.824
27	1	5	0.105427	-2.5599999	-3.007	1.965
28	1	5	0.105427	-3.2750001	-1.499	2.599
29	1	4	-0.150304	-3.1860001	-1.5930001	0.442
30	1	5	0.105427	-3.711	-0.61299998	0.47099999
31	1	5	0.105427	-3.97	-2.3540001	0.234
32	1	4	-0.150313	-2.161	-1.6210001	-0.70200002
33	1	5	0.107468	-2.7060001	-1.88	-1.636
34	1	5	0.107468	-1.421	-2.4300001	-0.53799999
35	1	4	-0.133017	-1.488	-0.248	-0.93300003
36	1	5	0.110593	-1.0829999	-0.22499999	-1.967
37	1	5	0.110593	-2.2820001	0.53200001	-0.93400002
38	1	2	-0.159788	0.838	1.834	-1.533
39	1	3	0.208307	1.159	0.99400002	-2.135
40	1	2	-0.32396001	1.175	3.0680001	-1.924
41	1	3	0.223369	1.766	3.2090001	-2.8199999
42	1	2	0.62717801	4.6880002	-3.625	-0.99900001
43	1	6	-0.50375098	5.7649999	-4.1890001	-1.089
44	1	1	-0.027495001	0.82499999	6.3470001	-1.054
45	1	2	0.274037	0.98500001	7.625	-1.5880001
46	1	2	-0.32396001	1.5190001	7.8010001	-2.8039999
47	1	3	0.223369	1.8329999	6.948	-3.392
48	1	2	-0.159788	1.683	9.1610003	-3.358
49	1	3	0.208307	2.0969999	9.2290001	-4.3520002
50	1	2	-0.25086999	1.3279999	10.255	-2.641
51	1	4	-0.031257	1.439	11.701	-3.1789999
52	1	2	-0.25086999	2.0320001	12.559	-2.0320001
53	1	2	-0.11622	3.3039999	12.34	-1.624
54	1	3	0.208307	3.9159999	11.58	-2.0869999
55	1	2	-0.41404501	3.9000001	13.118	-0.51899999
56	1	3	0.228444	4.9289999	12.936	-0.234
57	1	2	0.423439	3.175	14.036	0.126
58	1	7	-0.650913	3.747	14.766	1.165
59	1	8	0.433191	3.2149999	15.465	1.669
60	1	2	-0.41404501	1.77	14.262	-0.264
61	1	3	0.228444	1.1720001	14.986	0.27500001
62	1	2	-0.11622	1.226	13.566	-1.27
63	1	3	0.208307	0.186	13.748	-1.492
64	1	4	-0.133017	2.372	11.786	-4.4439998
65	1	5	0.110593	1.921	11.233	-5.2969999
66	1	5	0.110593	3.3340001	11.273	-4.2319999
67	1	4	-0.150313	2.7060001	13.22	-4.9130001
68	1	5	0.107468	3.727	13.216	-5.3530002
69	1	5	0.107468	2.7520001	13.93	-4.0619998
70	1	4	-0.150304	1.7460001	13.768	-5.9819999
71	1	5	0.105427	1.88	14.871	-6.0320001
72	1	5	0.105427	2.0409999	13.363	-6.974
73	1	4	-0.150304	0.257	13.457	-5.7579999
74	1	5	0.105427	0.0040000002	12.478	-6.2199998
75	1	5	0.105427	-0.33500001	14.218	-6.3140001
76	1	4	-0.150313	-0.17200001	13.485	-4.283
77	1	5	0.107468	-1.253	13.745	-4.2529998
78	1	5	0.107468	0.35800001	14.294	-3.7420001
79	1	4	-0.133017	-0.012	12.113	-3.5910001
80	1	5	0.110593	-0.676	12.089	-2.7
81	1	5	0.110593	-0.433	11.332	-4.2639999
82	1	2	-0.159788	0.70700002	10.03	-1.299
83	1	3	0.208307	0.366	10.87	-0.708
84	1	2	-0.32396001	0.55500001	8.7959995	-0.80599999
85	1	3	0.223369	0.106	8.6560001	0.169
86	1	2	0.466616	3.8870001	-3.872	-1.687
87	1	6	-0.58196598	2.783	-3.3740001	-1.5420001
88	1	9	-0.087751999	4.1789999	-4.9879999	-3.0079999

Bonds

1	1	1	2
2	2	1	44
3	3	2	3
4	3	2	40
5	4	3	4
6	3	3	5
7	4	5	6
8	3	5	7
9	5	7	8
10	3	7	38
11	5	8	9
12	6	8	20
13	6	8	35
14	3	9	10
15	3	9	18
16	4	10	11
17	3	10	12
18	4	12	13
19	3	12	14
20	1	14	15
21	3	14	16
22	7	15	42
23	4	16	17
24	3	16	18
25	4	18	19
26	8	20	21
27	8	20	22
28	6	20	23
29	8	23	24
30	8	23	25
31	6	23	26
32	8	26	27
33	8	26	28
34	6	26	29
35	8	29	30
36	8	29	31
37	6	29	32
38	8	32	33
39	8	32	34
40	6	32	35
41	8	35	36
42	8	35	37
43	4	38	39
44	3	38	40
45	4	40	41
46	9	42	43
47	10	42	86
48	1	44	45
49	3	45	46
50	3	45	84
51	4	46	47
52	3	46	48
53	4	48	49
54	3	48	50
55	5	50	51
56	3	50	82
57	5	51	52
58	6	51	64
59	6	51	79
60	3	52	53
61	3	52	62
62	4	53	54
63	3	53	55
64	4	55	56
65	3	55	57
66	11	57	58
67	3	57	60
68	12	58	59
69	4	60	61
70	3	60	62
71	4	62	63
72	8	64	65
73	8	64	66
74	6	64	67
75	8	67	68
76	8	67	69
77	6	67	70
78	8	70	71
79	8	70	72
80	6	70	73
81	8	73	74
82	8	73	75
83	6	73	76
84	8	76	77
85	8	76	78
86	6	76	79
87	8	79	80
88	8	79	81
89	4	82	83
90	3	82	84
91	4	84	85
92	9	86	87
93	13	86	88

Angles

1	3	16	18	19
2	1	51	52	53
3	5	15	42	43
4	3	7	38	39
5	4	23	26	28
6	4	7	8	35
7	4	9	8	35
8	1	14	16	18
9	1	52	53	55
10	4	51	79	81
11	1	55	57	60
12	3	82	84	85
13	4	51	64	65
14	4	7	8	20
15	4	21	20	23
16	4	20	23	24
17	2	1	44	45
18	1	7	38	40
19	4	23	26	29
20	1	43	42	86
21	4	22	20	23
22	3	11	10	12
23	6	27	26	28
24	6	30	29	31
25	4	72	70	73
26	1	52	62	60
27	4	67	70	71
28	4	70	73	74
29	3	47	46	48
30	4	8	35	36
31	3	54	53	55
32	3	9	18	19
33	3	46	48	49
34	4	20	23	25
35	4	26	29	31
36	1	51	52	62
37	6	65	64	66
38	6	68	67	69
39	4	73	76	77
40	3	60	62	63
41	4	32	35	36
42	4	67	70	72
43	4	50	51	79
44	4	70	73	75
45	3	38	40	41
46	6	77	76	78
47	4	8	35	37
48	3	53	55	56
49	1	48	50	82
50	1	8	7	38
51	1	46	48	50
52	6	24	23	25
53	4	76	79	80
54	4	26	29	32
55	4	8	20	21
56	4	64	67	68
57	4	33	32	35
58	1	12	14	16
59	1	3	5	7
60	4	73	76	78
61	4	9	8	20
62	4	32	35	37
63	1	44	45	84
64	3	39	38	40
65	1	1	2	3
66	1	53	55	57
67	1	46	45	84
68	4	77	76	79
69	2	57	58	59
70	4	24	23	26
71	4	51	64	66
72	3	2	3	4
73	4	29	32	33
74	1	5	7	8
75	1	53	52	62
76	4	34	32	35
77	3	45	84	85
78	3	6	5	7
79	3	13	12	14
80	3	61	60	62
81	2	2	1	44
82	4	27	26	29
83	4	30	29	32
84	3	10	12	13
85	3	49	48	50
86	4	52	51	79
87	1	51	50	82
88	4	50	51	52
89	4	66	64	67
90	4	69	67	70
91	3	2	40	41
92	4	51	64	67
93	6	36	35	37
94	1	2	3	5
95	4	20	23	26
96	1	55	57	58
97	2	14	15	42
98	3	56	55	57
99	1	48	50	51
100	3	9	10	11
101	4	25	23	26
102	4	50	51	64
103	4	65	64	67
104	4	68	67	70
105	1	9	18	16
106	4	23	26	27
107	4	67	70	73
108	4	70	73	76
109	1	45	84	82
110	1	58	57	60
111	3	14	16	17
112	4	51	79	80
113	6	71	70	72
114	6	74	73	75
115	4	75	73	76
116	4	78	76	79
117	1	10	9	18
118	4	76	79	81
119	4	8	20	22
120	4	20	8	35
121	1	2	40	38
122	4	64	67	69
123	1	42	86	87
124	1	9	10	12
125	4	51	79	76
126	4	73	76	79
127	3	52	62	63
128	3	50	82	83
129	1	1	2	40
130	1	8	9	18
131	4	71	70	73
132	4	74	73	76
133	1	15	42	86
134	4	7	8	9
135	3	4	3	5
136	4	8	20	23
137	4	64	67	70
138	1	42	86	88
139	6	80	79	81
140	3	83	82	84
141	4	28	26	29
142	4	31	29	32
143	4	29	32	34
144	3	45	46	47
145	1	87	86	88
146	4	52	51	64
147	4	26	29	30
148	1	50	82	84
149	3	57	60	61
150	1	10	12	14
151	4	64	51	79
152	1	5	7	38
153	1	15	14	16
154	1	3	2	40
155	1	44	45	46
156	3	52	53	54
157	1	8	9	10
158	4	29	32	35
159	1	45	46	48
160	3	17	16	18
161	1	57	60	62
162	6	33	32	34
163	1	12	14	15
164	4	8	35	32
165	6	21	20	22
166	3	3	5	6

Dihedrals

1	6	70	73	76	77
2	1	2	40	38	7
3	1	14	16	18	19
4	12	27	26	29	30
5	4	52	51	50	82
6	1	58	57	60	61
7	1	8	9	18	19
8	1	5	3	2	40
9	1	45	46	48	50
10	5	9	8	35	37
11	5	52	51	64	67
12	6	8	35	32	33
13	1	46	48	50	51
14	1	13	12	14	16
15	5	7	8	20	22
16	12	75	73	76	78
17	4	10	9	8	20
18	1	51	50	82	83
19	6	69	67	70	73
20	1	11	10	9	18
21	1	54	53	52	62
22	1	61	60	62	63
23	5	9	8	20	21
24	5	50	51	64	66
25	12	28	26	29	31
26	11	15	42	86	88
27	1	9	18	16	14
28	1	48	50	82	84
29	7	8	35	32	29
29	8	8	35	32	29
29	9	8	35	32	29
30	1	8	9	10	11
31	1	10	9	18	16
32	6	64	67	70	72
33	12	24	23	26	27
34	6	65	64	51	79
35	12	66	64	67	68
36	1	55	53	52	62
37	6	70	73	76	78
38	11	43	42	86	88
39	12	27	26	29	31
40	1	6	5	7	8
41	1	46	45	84	85
42	10	14	15	42	86
43	6	74	73	76	79
44	6	23	26	29	30
45	6	29	32	35	36
46	6	51	79	76	78
47	1	8	7	38	40
48	1	51	50	82	84
49	5	52	51	79	80
50	1	3	2	40	41
51	1	11	10	12	13
52	6	64	51	79	80
53	12	71	70	73	74
54	4	50	51	52	53
55	1	8	9	18	16
56	4	35	8	7	38
57	1	9	10	12	13
58	1	53	55	57	58
59	12	25	23	26	28
60	6	28	26	29	32
61	1	57	60	62	63
62	1	8	9	10	12
63	12	31	29	32	33
64	12	24	23	26	28
65	12	78	76	79	80
66	5	52	51	79	76
67	7	26	29	32	35
67	8	26	29	32	35
67	9	26	29	32	35
68	7	64	51	79	76
68	8	64	51	79	76
68	9	64	51	79	76
69	1	50	82	84	85
70	12	30	29	32	33
71	1	47	46	48	49
72	6	65	64	67	70
73	2	16	14	15	42
74	4	62	52	51	64
75	1	39	38	40	41
76	1	51	52	62	63
77	2	1	44	45	46
78	6	8	20	23	24
79	5	52	51	79	81
80	1	56	55	57	60
81	4	5	7	8	9
82	13	59	58	57	60
83	1	6	5	7	38
84	6	64	51	79	81
85	7	67	64	51	79
85	8	67	64	51	79
85	9	67	64	51	79
86	12	71	70	73	75
87	1	9	10	12	14
88	1	46	45	84	82
89	6	25	23	26	29
90	1	15	14	16	18
91	1	4	3	2	40
92	6	22	20	8	35
93	12	31	29	32	34
94	1	44	45	46	47
95	1	52	62	60	57
96	4	53	52	51	79
97	1	47	46	48	50
98	12	72	70	73	75
99	2	14	15	42	43
100	6	51	64	67	69
101	1	45	84	82	83
102	12	68	67	70	72
103	6	73	76	79	80
104	1	10	12	14	16
105	12	22	20	23	25
106	1	12	14	16	17
107	6	20	23	26	27
108	1	44	45	84	82
109	4	79	51	50	82
110	1	58	57	60	62
111	12	21	20	23	24
112	1	12	10	9	18
113	12	74	73	76	77
114	1	83	82	84	85
115	6	8	35	32	34
116	1	44	45	46	48
117	5	7	8	20	23
118	1	3	5	7	38
119	1	55	57	60	62
120	1	3	2	40	38
121	4	50	51	52	62
122	5	9	8	20	22
123	4	48	50	51	79
124	5	50	51	64	67
125	1	51	52	53	54
126	6	72	70	73	76
127	7	51	64	67	70
127	8	51	64	67	70
127	9	51	64	67	70
128	6	68	67	70	73
129	13	55	57	58	59
130	7	64	67	70	73
130	8	64	67	70	73
130	9	64	67	70	73
131	12	33	32	35	36
132	6	22	20	23	26
133	12	66	64	67	69
134	7	70	73	76	79
134	8	70	73	76	79
134	9	70	73	76	79
135	6	75	73	76	79
136	6	20	23	26	28
137	6	27	26	29	32
138	4	5	7	8	35
139	12	21	20	23	25
140	6	23	26	29	31
141	6	29	32	35	37
142	1	7	38	40	41
143	6	67	70	73	74
144	1	52	53	55	56
145	4	48	50	51	64
146	4	18	9	8	35
147	1	52	62	60	61
148	1	11	10	12	14
149	5	9	8	20	23
150	5	7	8	35	32
151	1	51	52	53	55
152	1	53	52	62	63
153	5	50	51	79	80
154	5	52	51	64	65
155	6	66	64	67	70
156	1	2	3	5	6
157	7	23	20	8	35
157	8	23	20	8	35
157	9	23	20	8	35
158	6	24	23	26	29
159	3	2	1	44	45
160	12	78	76	79	81
161	12	69	67	70	71
162	12	30	29	32	34
163	7	23	26	29	32
163	8	23	26	29	32
163	9	23	26	29	32
164	4	7	8	9	18
165	6	8	20	23	25
166	2	12	14	15	42
167	5	50	51	79	76
168	1	55	57	60	61
169	6	51	64	67	68
170	1	49	48	50	82
171	1	47	46	45	84
172	6	71	70	73	76
173	1	53	55	57	60
174	6	20	8	35	36
175	5	9	8	35	36
176	5	50	51	79	81
177	5	52	51	64	66
178	1	1	2	3	4
179	1	51	52	62	60
180	1	2	3	5	7
181	6	31	29	32	35
182	5	7	8	20	21
183	4	53	52	51	64
184	1	1	2	40	41
185	12	69	67	70	72
186	1	17	16	18	19
187	4	48	50	51	52
188	6	66	64	51	79
189	1	5	7	38	39
190	6	30	29	32	35
191	5	50	51	64	65
192	12	75	73	76	77
193	7	20	8	35	32
193	8	20	8	35	32
193	9	20	8	35	32
194	12	28	26	29	30
195	5	9	8	35	32
196	2	1	44	45	84
197	7	8	20	23	26
197	8	8	20	23	26
197	9	8	20	23	26
198	11	15	42	86	87
199	6	73	76	79	81
200	1	46	48	50	82
201	1	12	14	16	18
202	4	64	51	50	82
203	2	3	2	1	44
204	6	26	29	32	33
205	11	43	42	86	87
206	5	7	8	35	36
207	6	20	8	35	37
208	12	77	76	79	80
209	12	74	73	76	78
210	12	65	64	67	68
211	6	51	79	76	77
212	4	20	8	7	38
213	1	1	2	3	5
214	1	8	7	38	39
215	4	9	8	7	38
216	4	7	8	9	10
217	1	56	55	57	58
218	1	5	7	38	40
219	1	54	53	55	56
220	12	25	23	26	27
221	4	5	7	8	20
222	7	51	79	76	73
222	8	51	79	76	73
222	9	51	79	76	73
223	12	33	32	35	37
224	7	20	23	26	29
224	8	20	23	26	29
224	9	20	23	26	29
225	12	34	32	35	36
226	1	1	2	40	38
227	6	26	29	32	34
228	5	7	8	35	37
229	6	21	20	23	26
230	12	77	76	79	81
231	4	18	9	8	20
232	12	65	64	67	69
233	6	67	70	73	75
234	1	4	3	5	6
235	1	52	53	55	57
236	12	68	67	70	71
237	1	2	40	38	39
238	1	54	53	55	57
239	1	48	46	45	84
240	4	62	52	51	79
241	2	40	2	1	44
242	12	22	20	23	24
243	1	45	84	82	50
244	1	45	46	48	49
245	1	9	18	16	17
246	1	15	14	16	17
247	1	10	9	18	19
248	1	13	12	14	15
249	1	49	48	50	51
250	12	34	32	35	37
251	1	44	45	84	85
252	12	72	70	73	74
253	4	10	9	8	35
254	1	53	52	62	60
255	6	21	20	8	35
256	1	4	3	5	7
257	1	48	50	82	83
258	7	67	70	73	76
258	8	67	70	73	76
258	9	67	70	73	76
259	6	64	67	70	71
260	1	10	12	14	15
261	1	3	5	7	8

Impropers

3	1	86	87	88	42
18	1	50	51	82	48
27	1	53	55	52	54
28	1	62	60	63	52
30	1	7	8	38	5
33	1	2	3	40	1
37	2	42	15	43	86
45	1	18	9	16	19
49	1	12	10	13	14
50	1	5	3	6	7
52	1	2	40	1	3
56	1	82	84	50	83
60	1	7	38	5	8
64	1	18	19	9	16
70	1	40	41	2	38
72	1	53	54	55	52
76	1	5	6	7	3
78	1	55	57	53	56
84	1	2	1	3	40
99	1	3	2	4	5
100	1	60	62	57	61
101	1	45	46	84	44
102	1	84	45	82	85
110	1	10	12	9	11
113	1	38	39	40	7
125	1	84	82	85	45
133	1	3	5	2	4
134	1	46	47	48	45
151	1	38	7	39	40
159	1	62	63	52	60
164	1	7	5	8	38
197	1	57	58	60	55
198	1	18	16	19	9
224	1	14	12	15	16
226	1	57	55	58	60
229	1	60	57	61	62
233	1	82	50	83	84
250	1	62	52	60	63
253	1	46	45	47	48
256	1	84	85	45	82
267	1	53	52	54	55
279	1	55	53	56	57
281	1	45	84	44	46
282	1	9	18	8	10
283	1	52	51	53	62
287	1	40	2	38	41
288	1	57	60	55	58
290	1	9	10	18	8
291	1	60	61	62	57
295	1	48	46	49	50
300	1	55	56	57	53
302	1	12	14	10	13
313	1	46	48	45	47
317	1	10	9	11	12
321	1	14	15	16	12
325	1	48	49	50	46
336	1	52	53	62	51
344	2	42	86	15	43
350	1	86	88	42	87
373	1	50	48	51	82
380	1	48	50	46	49
386	1	5	7	3	6
393	1	16	14	17	18
404	1	52	62	51	53
411	1	86	42	87	88
413	1	16	17	18	14
415	1	10	11	12	9
416	1	45	44	46	84
426	1	3	4	5	2
438	2	42	43	86	15
450	1	38	40	7	39
457	1	12	13	14	10
465	1	82	83	84	50
472	1	50	82	48	51
474	1	40	38	41	2
479	1	9	8	10	18
480	1	16	18	14	17
481	1	14	16	12	15
