Title

104 atoms
107 bonds
190 angles
283 dihedrals
78 impropers

9 atom types
13 bond types
6 angle types
13 dihedral types
2 improper types
-6.18900013 93.81099987 xlo xhi
-6.965000153 93.03499985 ylo yhi
-3.849999905 96.1500001 zlo zhi
0.0 0.0 0.0 xy xz yz

Masses

1	15.99943
2	12.01078
3	1.007947
4	12.01078
5	1.007947
6	15.99943
7	15.99943
8	1.007947
9	35.4532


Pair Coeffs

1	0.16846514	3.0251065
2	0.086879315	3.4806469
3	0.015611343	2.5725815
4	0.10884061	3.3795318
5	0.015779483	2.6445434
6	0.2102061	3.0398122
7	0.20947353	2.99716
8	1.2326e-05	0.53453923
9	0.2656001	3.3075278

Bond Coeffs

1 harmonic	425.69104206635	1.362945806494
2 harmonic	300.03137914615	1.451203938761
3 harmonic	360.7852444772	1.387193227181
4 harmonic	397.2545789619	1.085358495916
5 harmonic	289.73813263395	1.498646816465
6 harmonic	264.62148576755	1.52190126495
7 harmonic	301.15400723785	1.345741232799
8 harmonic	370.04670688625	1.093899492634
9 harmonic	582.698766451	1.225198386222
10 harmonic	279.1350963404	1.454628925034
11 harmonic	385.7604595587	1.369745182308
12 harmonic	543.5267831885	0.9716763312559
13 harmonic	218.0227703685	1.746066037062


Angle Coeffs

1 harmonic	57.8982893754	126.8062420451
2 harmonic	65.09061609600001	110.3538806181
3 harmonic	34.066775159195	129.1835929926
4 harmonic	53.20531626545	116.5475862634
5 harmonic	201.41175231035	127.4691416191
6 harmonic	48.776492647595	115.6030999533


Dihedral Coeffs

1 fourier 1	3.661930099076	2	180
2 fourier 1	1.532232714475	2	180
3 fourier 1	0.457973137376	1	0
4 fourier 1	0.02664938770063	3	0
5 fourier 1	0.1155372516788	3	0
6 fourier 1	0.09223874044423	3	0
7 fourier 1	0.3159935921949	2	180
8 fourier 1	0.3247796806857	1	180
9 fourier 1	0.1040663847541	3	0
10 fourier 1	2.779853741805	2	180
11 fourier 1	0.9974165607242	2	180
12 fourier 1	0.1911926717192	3	0
13 fourier 1	0.8283030590042	2	180


Improper Coeffs

1 0.3666666666666667	-1	2
2 3.5	-1	2


Atoms

1	1	1	-0.0090800002	5.1950002	-0.426	-1.6339999
2	1	2	0.084596999	3.8829999	-0.221	-1.207
3	1	2	-0.256322	3.3150001	0.97000003	-1.4220001
4	1	3	0.224848	3.8710001	1.752	-1.925
5	1	2	-0.159743	1.932	1.237	-0.98699999
6	1	3	0.21073399	1.524	2.201	-1.2410001
7	1	2	-0.219403	1.219	0.29800001	-0.32600001
8	1	4	0.026395001	-0.25099999	0.491	0.126
9	1	2	-0.219402	-1.143	-0.46799999	-0.70300001
10	1	2	-0.161035	-0.88599998	-0.70099998	-2.0109999
11	1	3	0.21073399	-0.034000002	-0.25600001	-2.506
12	1	2	-0.224378	-1.762	-1.568	-2.819
13	1	3	0.225087	-1.5	-1.7690001	-3.8499999
14	1	2	0.305852	-2.8670001	-2.102	-2.2920001
15	1	1	-0.418028	-3.6630001	-2.9230001	-3.092
16	1	2	-0.097398996	-3.2260001	-1.802	-0.87900001
17	1	4	-0.133258	-4.4959998	-2.349	-0.285
18	1	5	0.095959	-4.4679999	-3.4590001	-0.30599999
19	1	5	0.095959	-5.3660002	-1.992	-0.875
20	1	5	0.095959	-4.638	-2.0280001	0.76899999
21	1	2	-0.27355	-2.415	-1.021	-0.141
22	1	3	0.21121	-2.7049999	-0.778	0.87099999
23	1	4	-0.12972	-0.37200001	0.14	1.66
24	1	4	-0.12946799	0.81900001	0.54900002	2.5599999
25	1	4	-0.121697	0.447	0.46399999	4.0370002
26	1	5	0.068448	-0.37	1.181	4.27
27	1	5	0.068448	0.117	-0.565	4.2940001
28	1	5	0.068448	1.33	0.72100002	4.6599998
29	1	5	0.090302996	1.169	1.575	2.345
30	1	5	0.090302996	1.677	-0.13500001	2.3870001
31	1	5	0.105662	-1.3	0.59799999	2.0669999
32	1	5	0.105662	-0.486	-0.95999998	1.7819999
33	1	4	-0.12972	-0.84299999	1.92	-0.15099999
34	1	4	-0.12946799	-0.30000001	3.076	0.71100003
35	1	4	-0.121697	-0.81599998	4.4219999	0.20900001
36	1	5	0.068448	-0.46399999	4.6069999	-0.829
37	1	5	0.068448	-1.926	4.4419999	0.229
38	1	5	0.068448	-0.43399999	5.2350001	0.86199999
39	1	5	0.090302996	0.80800003	3.105	0.699
40	1	5	0.090302996	-0.639	2.9519999	1.761
41	1	5	0.105662	-1.943	1.888	0.021
42	1	5	0.105662	-0.722	2.1670001	-1.229
43	1	2	-0.276759	1.848	-1.041	-0.126
44	1	3	0.21121	1.27	-1.822	0.352
45	1	2	-0.085447997	3.1059999	-1.294	-0.52899998
46	1	4	-0.13639	3.714	-2.651	-0.30599999
47	1	5	0.095959	4.618	-2.553	0.331
48	1	5	0.095959	3.01	-3.346	0.2
49	1	5	0.095959	3.997	-3.0969999	-1.2819999
50	1	2	0.62805098	-4.5419998	-3.372	-2.74
51	1	6	-0.49624801	-5.2909999	-2.7520001	-2.003
52	1	1	-0.0090800002	5.6799998	-1.304	-1.501
53	1	2	0.084596999	6.5890002	-1.5089999	-0.46200001
54	1	2	-0.256322	7.1869998	-2.701	-0.35699999
55	1	3	0.224848	6.967	-3.483	-1.073
56	1	2	-0.159743	8.1529999	-2.967	0.72500002
57	1	3	0.21073399	8.6330004	-3.9319999	0.71600002
58	1	2	-0.219403	8.427	-2.0280001	1.658
59	1	4	0.026395001	9.4580002	-2.2219999	2.799
60	1	2	-0.219402	10.649	-1.263	2.543
61	1	2	-0.118658	11.098	-1.03	1.288
62	1	3	0.21073399	10.618	-1.474	0.426
63	1	2	-0.387757	12.263	-0.162	1.0420001
64	1	3	0.23007201	12.567	0.037999999	0.022
65	1	2	0.28292701	12.943	0.37099999	2.0599999
66	1	7	-0.63819999	14.036	1.192	1.781
67	1	8	0.43595099	14.592	1.626	2.507
68	1	2	-0.26869401	12.529	0.071999997	3.4579999
69	1	4	-0.11923	13.316	0.61900002	4.618
70	1	5	0.095959	13.302	1.728	4.586
71	1	5	0.095959	14.365	0.26199999	4.5570002
72	1	5	0.095959	12.898	0.29800001	5.5960002
73	1	2	-0.23591	11.454	-0.70999998	3.6760001
74	1	3	0.21121	11.186	-0.95300001	4.6950002
75	1	4	-0.12972	8.7770004	-1.8710001	4.178
76	1	4	-0.12946799	7.2930002	-2.279	4.342
77	1	4	-0.121697	6.8569999	-2.1949999	5.802
78	1	5	0.068448	7.4400001	-2.911	6.4200001
79	1	5	0.068448	7.0089998	-1.165	6.191
80	1	5	0.068448	5.7800002	-2.451	5.8850002
81	1	5	0.090302996	7.1030002	-3.3050001	3.9790001
82	1	5	0.090302996	6.645	-1.596	3.7550001
83	1	5	0.105662	9.3660002	-2.329	5.0029998
84	1	5	0.105662	8.8120003	-0.77100003	4.342
85	1	4	-0.12972	10.108	-3.651	2.8640001
86	1	4	-0.12946799	9.2010002	-4.8070002	3.326
87	1	4	-0.121697	9.901	-6.152	3.1589999
88	1	5	0.068448	10.13	-6.3369999	2.0880001
89	1	5	0.068448	10.845	-6.1729999	3.7449999
90	1	5	0.068448	9.2390003	-6.9650002	3.5239999
91	1	5	0.090302996	8.2559996	-4.836	2.7490001
92	1	5	0.090302996	8.9549999	-4.6830001	4.402
93	1	5	0.105662	10.965	-3.618	3.575
94	1	5	0.105662	10.557	-3.8970001	1.876
95	1	2	-0.276759	7.7839999	-0.69	1.508
96	1	3	0.21121	8.0360003	0.092	2.2149999
97	1	2	-0.085447997	6.9099998	-0.43599999	0.51800001
98	1	4	-0.13639	6.2729998	0.921	0.39899999
99	1	5	0.095959	5.1700001	0.82300001	0.48300001
100	1	5	0.095959	6.619	1.6160001	1.194
101	1	5	0.095959	6.5289998	1.367	-0.58499998
102	1	2	0.46756101	-4.7870002	-4.3870001	-3.0309999
103	1	6	-0.57171899	-4.085	-4.9759998	-3.836
104	1	9	-0.082859002	-6.1890001	-5.184	-2.342

Bonds

1	1	1	2
2	2	1	52
3	3	2	3
4	3	2	45
5	4	3	4
6	3	3	5
7	4	5	6
8	3	5	7
9	5	7	8
10	3	7	43
11	5	8	9
12	6	8	23
13	6	8	33
14	3	9	10
15	3	9	21
16	4	10	11
17	3	10	12
18	4	12	13
19	3	12	14
20	1	14	15
21	3	14	16
22	7	15	50
23	5	16	17
24	3	16	21
25	8	17	18
26	8	17	19
27	8	17	20
28	4	21	22
29	6	23	24
30	8	23	31
31	8	23	32
32	6	24	25
33	8	24	29
34	8	24	30
35	8	25	26
36	8	25	27
37	8	25	28
38	6	33	34
39	8	33	41
40	8	33	42
41	6	34	35
42	8	34	39
43	8	34	40
44	8	35	36
45	8	35	37
46	8	35	38
47	4	43	44
48	3	43	45
49	5	45	46
50	8	46	47
51	8	46	48
52	8	46	49
53	9	50	51
54	10	50	102
55	1	52	53
56	3	53	54
57	3	53	97
58	4	54	55
59	3	54	56
60	4	56	57
61	3	56	58
62	5	58	59
63	3	58	95
64	5	59	60
65	6	59	75
66	6	59	85
67	3	60	61
68	3	60	73
69	4	61	62
70	3	61	63
71	4	63	64
72	3	63	65
73	11	65	66
74	3	65	68
75	12	66	67
76	5	68	69
77	3	68	73
78	8	69	70
79	8	69	71
80	8	69	72
81	4	73	74
82	6	75	76
83	8	75	83
84	8	75	84
85	6	76	77
86	8	76	81
87	8	76	82
88	8	77	78
89	8	77	79
90	8	77	80
91	6	85	86
92	8	85	93
93	8	85	94
94	6	86	87
95	8	86	91
96	8	86	92
97	8	87	88
98	8	87	89
99	8	87	90
100	4	95	96
101	3	95	97
102	5	97	98
103	8	98	99
104	8	98	100
105	8	98	101
106	9	102	103
107	13	102	104

Angles

1	1	56	58	59
2	1	56	58	95
3	4	45	46	48
4	1	61	63	65
5	4	16	17	18
6	4	8	23	31
7	1	58	95	97
8	4	76	77	79
9	4	7	8	33
10	6	29	24	30
11	1	66	65	68
12	1	15	50	102
13	1	7	43	45
14	3	54	56	57
15	6	78	77	79
16	4	75	76	81
17	1	2	3	5
18	4	35	34	39
19	4	23	24	25
20	6	26	25	27
21	6	48	46	49
22	6	100	98	101
23	1	1	2	3
24	1	5	7	8
25	4	24	25	26
26	4	8	23	32
27	4	75	76	77
28	6	39	34	40
29	3	60	73	74
30	4	76	77	80
31	1	3	2	45
32	4	59	75	84
33	6	70	69	71
34	4	60	59	85
35	1	52	53	97
36	4	75	76	82
37	4	34	33	42
38	1	43	45	46
39	6	36	35	37
40	4	35	34	40
41	4	97	98	100
42	6	26	25	28
43	4	25	24	29
44	4	34	35	36
45	6	99	98	100
46	1	2	45	46
47	4	24	25	27
48	6	88	87	89
49	4	85	86	91
50	4	8	23	24
51	6	47	46	48
52	6	41	33	42
53	1	12	14	16
54	1	10	12	14
55	1	50	102	103
56	4	87	86	91
57	4	9	8	33
58	4	33	34	35
59	6	93	85	94
60	4	68	69	72
61	1	14	16	17
62	6	36	35	38
63	3	4	3	5
64	4	7	8	9
65	4	85	86	87
66	4	97	98	101
67	1	9	21	16
68	1	17	16	21
69	4	23	24	29
70	3	53	54	55
71	1	54	53	97
72	4	86	87	89
73	4	77	76	82
74	3	60	61	62
75	6	79	77	80
76	4	85	86	92
77	4	76	75	84
78	1	50	102	104
79	4	16	17	19
80	1	2	45	43
81	3	68	73	74
82	4	58	59	75
83	4	59	85	93
84	1	15	14	16
85	1	53	97	98
86	1	59	60	61
87	4	23	24	30
88	4	7	8	23
89	1	51	50	102
90	1	54	56	58
91	4	8	33	41
92	4	75	59	85
93	6	78	77	80
94	1	60	61	63
95	6	83	75	84
96	4	86	87	90
97	4	24	23	31
98	1	63	65	68
99	1	60	73	68
100	4	58	59	60
101	4	33	34	39
102	6	37	35	38
103	4	16	17	20
104	1	59	60	73
105	1	14	16	21
106	1	8	9	21
107	6	70	69	72
108	1	1	2	45
109	6	27	25	28
110	4	8	33	42
111	4	60	59	75
112	4	45	46	49
113	4	24	23	32
114	4	86	85	93
115	4	34	35	37
116	1	5	7	43
117	4	25	24	30
118	6	81	76	82
119	3	55	54	56
120	4	33	34	40
121	6	99	98	101
122	1	103	102	104
123	4	24	25	28
124	6	88	87	90
125	2	2	1	52
126	6	18	17	19
127	4	59	85	86
128	3	3	5	6
129	1	10	9	21
130	6	19	17	20
131	3	44	43	45
132	4	87	86	92
133	3	11	10	12
134	6	89	87	90
135	3	16	21	22
136	2	14	15	50
137	1	52	53	54
138	4	8	33	34
139	4	9	8	23
140	4	76	77	78
141	4	97	98	99
142	6	31	23	32
143	4	34	35	38
144	1	53	54	56
145	3	7	43	44
146	3	13	12	14
147	6	18	17	20
148	1	61	60	73
149	1	69	68	73
150	4	58	59	85
151	4	59	85	94
152	4	59	75	83
153	6	47	46	49
154	2	1	52	53
155	4	34	33	41
156	2	65	66	67
157	4	68	69	70
158	3	9	10	11
159	1	53	97	95
160	6	71	69	72
161	3	96	95	97
162	1	8	9	10
163	6	91	86	92
164	4	23	8	33
165	1	12	14	15
166	3	10	12	13
167	4	45	46	47
168	3	61	63	64
169	3	58	95	96
170	4	68	69	71
171	1	65	68	73
172	1	9	10	12
173	3	62	61	63
174	4	86	85	94
175	1	95	97	98
176	1	59	58	95
177	3	2	3	4
178	5	15	50	51
179	4	77	76	81
180	4	86	87	88
181	1	8	7	43
182	1	63	65	66
183	3	9	21	22
184	3	57	56	58
185	4	76	75	83
186	1	65	68	69
187	1	3	5	7
188	4	59	75	76
189	3	6	5	7
190	3	64	63	65

Dihedrals

1	1	52	53	54	55
2	1	65	68	73	74
3	1	44	43	45	46
4	9	8	23	24	30
5	1	5	3	2	45
6	11	15	50	102	103
7	1	59	60	73	68
8	1	59	58	95	96
9	12	78	77	76	81
10	1	1	2	45	46
11	1	63	65	68	73
12	5	60	59	75	84
13	12	82	76	75	84
14	1	60	61	63	65
15	9	75	59	85	93
16	5	7	8	33	41
17	1	3	2	45	46
18	1	8	7	43	45
19	12	40	34	33	41
20	1	13	12	14	16
21	2	16	14	15	50
22	4	21	9	8	33
23	9	59	85	86	92
24	4	20	17	16	21
25	1	63	65	68	69
26	4	10	9	8	23
27	12	91	86	85	93
28	12	89	87	86	91
29	5	9	8	23	32
30	4	33	8	7	43
31	4	65	68	69	72
32	1	17	16	21	22
33	1	54	56	58	59
34	11	15	50	102	104
35	1	54	56	58	95
36	1	59	58	95	97
37	12	78	77	76	82
38	2	45	2	1	52
39	1	11	10	12	13
40	1	66	65	68	73
41	1	10	12	14	15
42	4	14	16	17	18
43	9	84	75	59	85
44	4	7	8	9	21
45	5	60	59	75	76
46	6	76	75	59	85
46	7	76	75	59	85
46	8	76	75	59	85
47	12	92	86	85	93
48	1	54	53	97	98
49	9	75	59	85	94
50	5	7	8	33	42
51	4	56	58	59	85
52	9	83	75	59	85
53	5	58	59	85	93
54	9	8	33	34	40
55	1	1	2	45	43
56	1	53	97	95	58
57	1	66	65	68	69
58	12	90	87	86	92
59	4	2	45	46	49
60	12	91	86	85	94
61	12	39	34	33	42
62	12	89	87	86	92
63	4	95	97	98	99
64	9	31	23	8	33
65	1	3	2	45	43
66	9	23	24	25	26
67	9	77	76	75	84
68	1	11	10	12	14
69	1	61	63	65	68
70	1	10	12	14	16
71	4	14	16	17	19
72	4	73	60	59	85
73	1	64	63	65	66
74	12	80	77	76	82
75	1	69	68	73	74
76	4	70	69	68	73
77	12	27	25	24	29
78	1	2	3	5	6
79	5	58	59	85	94
80	6	75	59	85	86
80	7	75	59	85	86
80	8	75	59	85	86
81	1	2	45	43	44
82	5	7	8	33	34
83	5	60	59	85	93
84	12	26	25	24	29
85	1	52	53	97	95
86	13	67	66	65	68
87	1	62	61	60	73
88	1	4	3	2	45
89	9	85	86	87	89
90	4	43	45	46	48
91	1	54	53	97	95
92	1	60	73	68	69
93	1	61	60	73	68
94	6	24	23	8	33
94	7	24	23	8	33
94	8	24	23	8	33
95	4	85	59	58	95
96	1	53	54	56	57
97	9	23	24	25	27
98	1	56	58	95	96
99	4	75	59	58	95
100	11	51	50	102	104
101	1	2	45	43	7
102	12	37	35	34	39
103	12	81	76	75	83
104	4	5	7	8	23
105	12	79	77	76	81
106	4	53	97	98	101
107	1	52	53	54	56
108	1	8	9	21	22
109	5	9	8	33	41
110	12	27	25	24	30
111	12	36	35	34	39
112	4	65	68	69	70
113	1	60	73	68	65
114	5	58	59	85	86
115	1	63	61	60	73
116	1	55	54	53	97
117	1	3	5	7	43
118	9	59	75	76	81
119	4	61	60	59	75
120	1	55	54	56	57
121	1	59	60	73	74
122	5	7	8	23	31
123	12	40	34	33	42
124	1	53	54	56	58
125	9	33	34	35	36
126	1	56	58	95	97
127	9	75	76	77	78
128	12	37	35	34	40
129	4	10	9	8	33
130	12	79	77	76	82
131	12	81	76	75	84
132	4	18	17	16	21
133	4	21	9	8	23
134	4	9	8	7	43
135	1	10	9	21	16
136	1	96	95	97	98
137	5	9	8	33	42
138	6	59	75	76	77
138	7	59	75	76	77
138	8	59	75	76	77
139	5	58	59	75	83
140	9	35	34	33	41
141	4	95	97	98	100
142	4	7	8	9	10
143	9	23	8	33	41
144	1	62	61	63	64
145	1	9	10	12	13
146	1	1	2	3	4
147	2	3	2	1	52
148	12	88	87	86	91
149	4	71	69	68	73
150	12	92	86	85	94
151	1	6	5	7	8
152	9	33	34	35	37
153	9	75	76	77	79
154	4	2	45	46	47
155	1	4	3	5	6
156	5	58	59	75	84
157	4	43	45	46	49
158	5	9	8	33	34
159	4	23	8	7	43
160	1	11	10	9	21
161	1	9	10	12	14
162	12	28	25	24	29
163	12	38	35	34	39
164	4	14	16	17	20
165	12	80	77	76	81
166	1	9	21	16	17
167	1	59	60	61	62
168	1	5	7	43	44
169	9	87	86	85	93
170	1	15	14	16	17
171	1	2	3	5	7
172	1	12	14	16	21
173	9	8	23	24	29
174	5	7	8	23	24
175	1	53	97	95	96
176	4	2	45	46	48
177	12	26	25	24	30
178	5	60	59	85	94
179	9	85	86	87	90
180	2	1	52	53	97
181	1	57	56	58	59
182	1	57	56	58	95
183	1	60	61	63	64
184	1	8	9	21	16
185	1	8	7	43	44
186	5	58	59	75	76
187	9	23	24	25	28
188	4	5	7	8	33
189	6	8	23	24	25
189	7	8	23	24	25
189	8	8	23	24	25
190	1	12	14	16	17
191	1	14	16	21	22
192	6	23	8	33	34
192	7	23	8	33	34
192	8	23	8	33	34
193	12	38	35	34	40
194	1	8	9	10	11
195	4	58	59	60	73
196	1	5	7	43	45
197	4	53	97	98	99
198	1	58	95	97	98
199	1	59	60	61	63
200	9	59	85	86	91
201	1	64	63	65	68
202	12	36	35	34	40
203	1	61	60	73	74
204	5	9	8	23	31
205	1	56	54	53	97
206	4	65	68	69	71
207	12	29	24	23	31
208	1	61	63	65	66
209	4	61	60	59	85
210	1	9	21	16	14
211	6	59	85	86	87
211	7	59	85	86	87
211	8	59	85	86	87
212	5	60	59	85	86
213	9	59	75	76	82
214	4	19	17	16	21
215	1	55	54	56	58
216	5	7	8	23	32
217	4	56	58	59	75
218	1	7	43	45	46
219	9	8	33	34	39
220	1	8	9	10	12
221	12	90	87	86	91
222	1	15	14	16	21
223	12	39	34	33	41
224	2	12	14	15	50
225	4	60	59	58	95
226	9	35	34	33	42
227	4	95	97	98	101
228	3	2	1	52	53
229	4	72	69	68	73
230	1	12	10	9	21
231	12	30	24	23	31
232	9	23	8	33	42
233	1	62	61	63	65
234	9	77	76	75	83
235	1	1	2	3	5
236	9	25	24	23	31
237	12	29	24	23	32
238	1	52	53	97	98
239	1	10	9	21	22
240	6	8	33	34	35
240	7	8	33	34	35
240	8	8	33	34	35
241	2	14	15	50	51
242	12	88	87	86	92
243	4	56	58	59	60
244	4	58	59	60	61
245	4	73	60	59	75
246	2	1	52	53	54
247	9	33	34	35	38
248	9	75	76	77	80
249	13	63	65	66	67
250	9	32	23	8	33
251	5	60	59	75	83
252	12	82	76	75	83
253	1	4	3	5	7
254	9	85	86	87	88
255	4	43	45	46	47
256	1	3	5	7	8
257	4	5	7	8	9
258	5	9	8	23	24
259	12	30	24	23	32
260	12	28	25	24	30
261	1	13	12	14	15
262	10	14	15	50	102
263	9	25	24	23	32
264	11	51	50	102	103
265	9	87	86	85	94
266	4	53	97	98	100
267	1	6	5	7	43

Impropers

4	1	2	3	45	1
10	1	9	8	10	21
13	1	58	59	95	56
14	1	60	61	73	59
24	1	97	53	95	98
38	2	50	102	15	51
41	1	10	12	9	11
42	1	16	17	21	14
50	1	65	63	66	68
54	1	9	21	8	10
55	1	43	44	45	7
57	1	61	60	62	63
70	1	12	14	10	13
76	1	73	74	60	68
78	1	53	97	52	54
79	1	73	68	74	60
91	1	56	54	57	58
94	1	14	15	16	12
104	1	68	73	65	69
105	1	21	9	16	22
109	1	53	52	54	97
114	1	45	43	46	2
137	1	16	21	14	17
138	1	7	8	43	5
150	1	63	64	65	61
167	1	68	69	73	65
177	1	5	6	7	3
185	1	7	43	5	8
197	1	102	104	50	103
208	1	63	65	61	64
224	1	12	10	13	14
225	1	7	5	8	43
227	1	60	59	61	73
230	1	10	11	12	9
234	1	56	58	54	57
235	1	56	57	58	54
242	1	63	61	64	65
247	1	3	4	5	2
251	1	3	2	4	5
256	1	95	96	97	58
258	1	53	54	97	52
263	1	14	16	12	15
266	1	10	9	11	12
267	2	50	51	102	15
282	1	95	97	58	96
284	1	16	14	17	21
287	1	9	10	21	8
307	1	21	22	9	16
310	1	45	46	2	43
315	1	65	68	63	66
336	1	45	2	43	46
342	1	95	58	96	97
344	1	5	3	6	7
347	1	14	12	15	16
360	1	68	65	69	73
362	2	50	15	51	102
385	1	58	95	56	59
391	1	102	50	103	104
392	1	2	45	1	3
396	1	102	103	104	50
404	1	97	95	98	53
410	1	73	60	68	74
420	1	61	63	60	62
423	1	3	5	2	4
425	1	12	13	14	10
432	1	2	1	3	45
455	1	97	98	53	95
486	1	43	7	44	45
498	1	54	56	53	55
499	1	60	73	59	61
507	1	43	45	7	44
517	1	54	55	56	53
522	1	54	53	55	56
528	1	61	62	63	60
548	1	21	16	22	9
553	1	65	66	68	63
555	1	58	56	59	95
562	1	5	7	3	6
