Title

171 atoms
170 bonds
329 angles
585 dihedrals
12 impropers

8 atom types
11 bond types
5 angle types
27 dihedral types
2 improper types
-19.23900032 80.76099968 xlo xhi
-5.084000111 94.91599989 ylo yhi
-3.451999903 96.5480001 zlo zhi
0.0 0.0 0.0 xy xz yz

Masses

1	15.99943
2	12.01078
3	1.007947
4	1.007947
5	12.01078
6	15.99943
7	15.99943
8	1.007947


Pair Coeffs

1	0.16846514	3.0251065
2	0.10884061	3.3795318
3	0.016409246	2.5832257
4	0.015779483	2.6445434
5	0.086879315	3.4806469
6	0.2102061	3.0398122
7	0.20947353	2.99716
8	1.2326e-05	0.53453923

Bond Coeffs

1 harmonic	366.7408841747	1.425895053732
2 harmonic	300.03137914615	1.451203938761
3 harmonic	264.62148576755	1.52190126495
4 harmonic	370.04670688625	1.093899492634
5 harmonic	301.15400723785	1.345741232799
6 harmonic	582.698766451	1.225198386222
7 harmonic	329.44145381095	1.523435958334
8 harmonic	279.1350963404	1.454628925034
9 harmonic	329.96998057905	1.427343958716
10 harmonic	543.5267831885	0.9716763312559
11 harmonic	385.7604595587	1.369745182308


Angle Coeffs

1 harmonic	53.20531626545	116.5475862634
2 harmonic	65.09061609600001	110.3538806181
3 harmonic	201.41175231035	127.4691416191
4 harmonic	57.8982893754	126.8062420451
5 harmonic	48.776492647595	115.6030999533


Dihedral Coeffs

1 fourier 1	0.1155372516788	3	0
2 fourier 1	0.1115525666802	3	0
3 fourier 1	0.3432490222662	1	0
4 fourier 1	0.0473758381877	3	0
5 fourier 1	0.457973137376	1	0
6 fourier 1	0.09223874044423	3	0
7 fourier 1	0.3159935921949	2	180
8 fourier 1	0.3247796806857	1	180
9 fourier 1	0.1040663847541	3	0
10 fourier 1	0.1918272375143	3	0
11 fourier 1	0.9202179876409	1	180
12 fourier 1	1.163809172478	2	180
13 fourier 1	0.1679186987369	1	180
14 fourier 1	2.779853741805	2	180
15 fourier 1	0.02664938770063	3	0
16 fourier 1	0.1911926717192	3	0
17 fourier 1	-0.3703352413219	2	0
18 fourier 1	0.4541676554336	1	0
19 fourier 1	0.1489710476446	2	0
20 fourier 1	0.02960027280666	3	180
21 fourier 1	0.9974165607242	2	180
22 fourier 1	0.3445382149273	3	0
23 fourier 1	0.1364556373303	1	0
24 fourier 1	0.3026390167484	3	0
25 fourier 1	2.687457892086	2	180
26 fourier 1	2.772607909663	2	180
27 fourier 1	0.09692684957115	1	0


Improper Coeffs

1 3.5	-1	2
2 0.3666666666666667	-1	2


Atoms

1	1	1	-0.18677101	-3.987	2.6689999	0.88
2	1	2	0.031288002	-4.0469999	1.324	0.491
3	1	2	-0.148442	-2.6389999	0.72299999	0.44499999
4	1	2	-0.142078	-2.684	-0.75800002	0.041000001
5	1	2	-0.14444	-1.3049999	-1.431	0.112
6	1	2	-0.14315701	-0.34799999	-0.93300003	-0.98500001
7	1	2	-0.14315701	0.94199997	-1.768	-1.074
8	1	2	-0.14449	1.801	-1.779	0.207
9	1	2	-0.143343	2.217	-0.38999999	0.72399998
10	1	2	-0.142281	3.069	0.39199999	-0.289
11	1	2	0.13318101	3.6340001	1.681	0.315
12	1	1	-0.49735799	2.6040001	2.5910001	0.59600002
13	1	3	0.073875003	4.2350001	1.456	1.227
14	1	3	0.073875003	4.3189998	2.1470001	-0.42399999
15	1	4	0.081938997	2.4590001	0.65499997	-1.179
16	1	4	0.081938997	3.918	-0.242	-0.62400001
17	1	4	0.078290001	2.8110001	-0.54000002	1.652
18	1	4	0.078290001	1.318	0.197	1.006
19	1	4	0.076604001	1.253	-2.3099999	1.013
20	1	4	0.076604001	2.7179999	-2.375	0.0080000004
21	1	4	0.076604001	1.552	-1.3940001	-1.923
22	1	4	0.076604001	0.67199999	-2.8180001	-1.322
23	1	4	0.076604001	-0.861	-1	-1.969
24	1	4	0.076604001	-0.092	0.134	-0.82300001
25	1	4	0.076604001	-1.449	-2.527	-0.0070000002
26	1	4	0.076604001	-0.86299998	-1.2539999	1.1160001
27	1	4	0.078459002	-3.1010001	-0.85900003	-0.98500001
28	1	4	0.078459002	-3.365	-1.3	0.73500001
29	1	4	0.082888	-2.033	1.295	-0.28799999
30	1	4	0.082888	-2.1700001	0.824	1.448
31	1	3	0.073385	-4.6620002	0.77100003	1.233
32	1	3	0.073385	-4.54	1.2309999	-0.50300002
33	1	5	0.75869501	2.289	2.4000001	1.567
34	1	6	-0.57064903	1.643	1.391	1.804
35	1	2	-0.210392	2.6440001	3.3540001	2.6700001
36	1	2	-0.117051	1.401	4.0089998	3.2869999
37	1	2	-0.13771699	0.69499999	4.954	2.303
38	1	2	-0.14305601	-0.514	5.631	2.961
39	1	2	-0.14315701	-1.229	6.5619998	1.97
40	1	2	-0.14315701	-2.3610001	7.3699999	2.625
41	1	2	-0.14315701	-3.5829999	6.5009999	2.971
42	1	2	-0.14315701	-4.743	7.3239999	3.5550001
43	1	2	-0.14315701	-5.5500002	8.0579996	2.47
44	1	2	-0.14315701	-6.6269999	8.9919996	3.053
45	1	2	-0.14315701	-7.71	8.2980003	3.898
46	1	2	-0.14315701	-8.5249996	7.2670002	3.098
47	1	2	-0.14305601	-9.6859999	6.665	3.908
48	1	2	-0.140366	-10.837	7.6420002	4.2220001
49	1	2	-0.098674998	-11.571	8.1660004	2.967
50	1	2	-0.25923899	-11.177	9.6040001	2.592
51	1	5	0.51438898	-11.696	10.61	3.579
52	1	6	-0.71036398	-11.46	11.796	3.4189999
53	1	4	0.110322	-11.605	9.8400002	1.594
54	1	4	0.110322	-10.074	9.6999998	2.5179999
55	1	4	0.073100999	-11.379	7.4990001	2.098
56	1	4	0.073100999	-12.669	8.1339998	3.1440001
57	1	4	0.074739002	-11.575	7.0830002	4.8390002
58	1	4	0.074739002	-10.479	8.4720001	4.8649998
59	1	4	0.076604001	-10.099	5.8000002	3.3440001
60	1	4	0.076604001	-9.2889996	6.2620001	4.8649998
61	1	4	0.076604001	-8.901	7.7129998	2.154
62	1	4	0.076604001	-7.8559999	6.4260001	2.8169999
63	1	4	0.076604001	-7.256	7.8150001	4.789
64	1	4	0.076604001	-8.3850002	9.0939999	4.2740002
65	1	4	0.076604001	-6.1290002	9.7629995	3.6800001
66	1	4	0.076604001	-7.1199999	9.5290003	2.2130001
67	1	4	0.076604001	-6.0120001	7.323	1.777
68	1	4	0.076604001	-4.868	8.6859999	1.862
69	1	4	0.076604001	-5.4180002	6.619	4.086
70	1	4	0.076604001	-4.355	8.0500002	4.3039999
71	1	4	0.076604001	-3.2869999	5.7509999	3.734
72	1	4	0.076604001	-3.9289999	5.947	2.0699999
73	1	4	0.076604001	-2.661	8.1630001	1.909
74	1	4	0.076604001	-1.982	7.8730001	3.5420001
75	1	4	0.076604001	-1.631	5.9720001	1.118
76	1	4	0.076604001	-0.48800001	7.283	1.5599999
77	1	4	0.076604001	-1.217	4.8449998	3.3110001
78	1	4	0.076604001	-0.171	6.2179999	3.8410001
79	1	4	0.074739002	0.35100001	4.3779998	1.416
80	1	4	0.074739002	1.413	5.7319999	1.962
81	1	4	0.081809998	0.69400001	3.2219999	3.632
82	1	4	0.081809998	1.722	4.5900002	4.1799998
83	1	4	0.113136	3.1919999	2.7969999	3.46
84	1	4	0.113136	3.325	4.138	2.276
85	1	1	-0.18677101	-3.677	3.1800001	0.088
86	1	2	0.031288002	-3.9849999	4.526	0.333
87	1	2	-0.148442	-2.9820001	5.1259999	1.322
88	1	2	-0.142078	-3.289	6.6079998	1.5880001
89	1	2	-0.14444	-2.2279999	7.2800002	2.4719999
90	1	2	-0.14315701	-2.27	6.7820001	3.927
91	1	2	-0.14315701	-1.383	7.6170001	4.868
92	1	2	-0.14444	0.118	7.6279998	4.5100002
93	1	2	-0.13799401	0.77399999	6.2389998	4.4130001
94	1	2	-0.17036501	0.71200001	5.4569998	5.7350001
95	1	2	0.084386997	1.5369999	4.1680002	5.6750002
96	1	7	-0.687778	0.97100002	3.2579999	4.77
97	1	8	0.37320301	1.38	3.441	3.8840001
98	1	3	0.063074	2.5969999	4.3930001	5.4120002
99	1	3	0.063074	1.539	3.7019999	6.6830001
100	1	4	0.085239999	-0.34	5.1939998	5.974
101	1	4	0.085239999	1.109	6.092	6.5570002
102	1	4	0.078459002	1.84	6.3889999	4.1339998
103	1	4	0.078459002	0.30500001	5.652	3.596
104	1	4	0.076604001	0.26199999	8.1590004	3.5450001
105	1	4	0.076604001	0.65600002	8.224	5.2789998
106	1	4	0.076604001	-1.511	7.244	5.9060001
107	1	4	0.076604001	-1.749	8.6669998	4.8660002
108	1	4	0.076604001	-3.3139999	6.849	4.302
109	1	4	0.076604001	-1.972	5.7150002	3.9820001
110	1	4	0.076604001	-2.415	8.3760004	2.461
111	1	4	0.076604001	-1.222	7.1030002	2.0339999
112	1	4	0.078459002	-4.2919998	6.7080002	2.059
113	1	4	0.078459002	-3.3180001	7.1490002	0.61699998
114	1	4	0.082888	-3.0350001	4.5539999	2.2720001
115	1	4	0.082888	-1.957	5.0250001	0.903
116	1	3	0.073385	-3.934	5.0780001	-0.63
117	1	3	0.073385	-5.0219998	4.618	0.72899997
118	1	5	0.51438898	-12.281	10.297	4.4380002
119	1	6	-0.71036398	-11.851	9.4230003	5.1729999
120	1	2	-0.25923899	-13.606	10.944	4.7150002
121	1	2	-0.098674998	-14.763	9.9379997	4.6690001
122	1	2	-0.140366	-14.972	9.3559999	3.2620001
123	1	2	-0.14305601	-16.171	8.3950005	3.2360001
124	1	2	-0.14315701	-16.499001	7.8860002	1.8200001
125	1	2	-0.14315701	-15.377	7.0739999	1.138
126	1	2	-0.14315701	-14.883	5.848	1.928
127	1	2	-0.14315701	-15.98	4.7839999	2.118
128	1	2	-0.14315701	-15.458	3.527	2.8369999
129	1	2	-0.14315701	-14.635	2.5880001	1.926
130	1	2	-0.14315701	-15.429	1.378	1.405
131	1	2	-0.14315701	-16.533001	1.771	0.40900001
132	1	2	-0.14305601	-17.214001	0.54900002	-0.23
133	1	2	-0.13771699	-16.339001	-0.116	-1.309
134	1	2	-0.11452	-17.098	-1.187	-2.109
135	1	2	-0.220485	-17.400999	-2.4419999	-1.275
136	1	5	0.82047898	-17.99	-3.513	-2.1370001
137	1	6	-0.57286203	-19.239	-3.6210001	-2.247
138	1	7	-0.668957	-17.153	-4.3629999	-2.852
139	1	8	0.38935599	-17.534	-5.0840001	-3.4519999
140	1	4	0.114133	-16.464001	-2.8280001	-0.81699997
141	1	4	0.114133	-18.114	-2.2	-0.45899999
142	1	4	0.081809998	-18.045	-0.76300001	-2.5090001
143	1	4	0.081809998	-16.465	-1.475	-2.977
144	1	4	0.074739002	-15.437	-0.57499999	-0.85000002
145	1	4	0.074739002	-15.994	0.66299999	-2.023
146	1	4	0.076604001	-17.476	-0.184	0.56199998
147	1	4	0.076604001	-18.162001	0.89099997	-0.69999999
148	1	4	0.076604001	-16.121	2.4330001	-0.38499999
149	1	4	0.076604001	-17.313	2.3399999	0.95599997
150	1	4	0.076604001	-14.707	0.69499999	0.91100001
151	1	4	0.076604001	-15.878	0.82499999	2.26
152	1	4	0.076604001	-13.787	2.1900001	2.526
153	1	4	0.076604001	-14.183	3.1329999	1.069
154	1	4	0.076604001	-16.322001	2.9760001	3.27
155	1	4	0.076604001	-14.832	3.8399999	3.701
156	1	4	0.076604001	-16.416	4.5159998	1.1339999
157	1	4	0.076604001	-16.791	5.2119999	2.743
158	1	4	0.076604001	-14.475	6.1609998	2.9130001
159	1	4	0.076604001	-14.036	5.4060001	1.36
160	1	4	0.076604001	-15.748	6.7350001	0.145
161	1	4	0.076604001	-14.513	7.7399998	0.93400002
162	1	4	0.076604001	-16.738001	8.7580004	1.174
163	1	4	0.076604001	-17.423	7.2719998	1.8660001
164	1	4	0.076604001	-15.992	7.54	3.921
165	1	4	0.076604001	-17.068001	8.9300003	3.618
166	1	4	0.074739002	-15.149	10.187	2.5439999
167	1	4	0.074739002	-14.056	8.809	2.957
168	1	4	0.073100999	-15.69	10.463	4.987
169	1	4	0.073100999	-14.572	9.1160002	5.395
170	1	4	0.110322	-13.57	11.413	5.724
171	1	4	0.110322	-13.786	11.752	3.9719999

Bonds

1	1	1	2
2	2	1	85
3	3	2	3
4	4	2	31
5	4	2	32
6	3	3	4
7	4	3	29
8	4	3	30
9	3	4	5
10	4	4	27
11	4	4	28
12	3	5	6
13	4	5	25
14	4	5	26
15	3	6	7
16	4	6	23
17	4	6	24
18	3	7	8
19	4	7	21
20	4	7	22
21	3	8	9
22	4	8	19
23	4	8	20
24	3	9	10
25	4	9	17
26	4	9	18
27	3	10	11
28	4	10	15
29	4	10	16
30	1	11	12
31	4	11	13
32	4	11	14
33	5	12	33
34	6	33	34
35	7	33	35
36	3	35	36
37	4	35	83
38	4	35	84
39	3	36	37
40	4	36	81
41	4	36	82
42	3	37	38
43	4	37	79
44	4	37	80
45	3	38	39
46	4	38	77
47	4	38	78
48	3	39	40
49	4	39	75
50	4	39	76
51	3	40	41
52	4	40	73
53	4	40	74
54	3	41	42
55	4	41	71
56	4	41	72
57	3	42	43
58	4	42	69
59	4	42	70
60	3	43	44
61	4	43	67
62	4	43	68
63	3	44	45
64	4	44	65
65	4	44	66
66	3	45	46
67	4	45	63
68	4	45	64
69	3	46	47
70	4	46	61
71	4	46	62
72	3	47	48
73	4	47	59
74	4	47	60
75	3	48	49
76	4	48	57
77	4	48	58
78	3	49	50
79	4	49	55
80	4	49	56
81	7	50	51
82	4	50	53
83	4	50	54
84	6	51	52
85	8	51	118
86	1	85	86
87	3	86	87
88	4	86	116
89	4	86	117
90	3	87	88
91	4	87	114
92	4	87	115
93	3	88	89
94	4	88	112
95	4	88	113
96	3	89	90
97	4	89	110
98	4	89	111
99	3	90	91
100	4	90	108
101	4	90	109
102	3	91	92
103	4	91	106
104	4	91	107
105	3	92	93
106	4	92	104
107	4	92	105
108	3	93	94
109	4	93	102
110	4	93	103
111	3	94	95
112	4	94	100
113	4	94	101
114	9	95	96
115	4	95	98
116	4	95	99
117	10	96	97
118	6	118	119
119	7	118	120
120	3	120	121
121	4	120	170
122	4	120	171
123	3	121	122
124	4	121	168
125	4	121	169
126	3	122	123
127	4	122	166
128	4	122	167
129	3	123	124
130	4	123	164
131	4	123	165
132	3	124	125
133	4	124	162
134	4	124	163
135	3	125	126
136	4	125	160
137	4	125	161
138	3	126	127
139	4	126	158
140	4	126	159
141	3	127	128
142	4	127	156
143	4	127	157
144	3	128	129
145	4	128	154
146	4	128	155
147	3	129	130
148	4	129	152
149	4	129	153
150	3	130	131
151	4	130	150
152	4	130	151
153	3	131	132
154	4	131	148
155	4	131	149
156	3	132	133
157	4	132	146
158	4	132	147
159	3	133	134
160	4	133	144
161	4	133	145
162	3	134	135
163	4	134	142
164	4	134	143
165	7	135	136
166	4	135	140
167	4	135	141
168	6	136	137
169	11	136	138
170	10	138	139

Angles

1	1	90	89	111
2	1	3	2	32
3	1	6	5	25
4	1	1	2	32
5	1	126	125	160
6	1	87	86	116
7	1	91	92	104
8	1	128	129	152
9	1	41	42	43
10	1	43	44	66
11	1	122	121	168
12	1	38	37	80
13	1	92	91	106
14	1	94	93	103
15	2	136	138	139
16	1	89	90	108
17	1	87	86	117
18	1	126	127	156
19	5	75	39	76
20	1	10	9	17
21	5	53	50	54
22	1	132	133	134
23	1	5	6	7
24	2	95	96	97
25	1	131	130	151
26	1	85	86	116
27	5	104	92	105
28	1	33	35	84
29	5	156	127	157
30	5	164	123	165
31	1	49	48	57
32	1	6	7	22
33	1	41	42	70
34	1	9	8	19
35	1	132	133	145
36	1	129	130	150
37	1	85	86	117
38	3	12	33	34
39	1	118	120	171
40	1	12	11	14
41	1	10	11	14
42	1	12	11	13
43	1	134	135	140
44	5	21	7	22
45	1	93	92	105
46	1	88	89	111
47	5	150	130	151
48	1	9	10	16
49	1	37	36	82
50	1	10	9	18
51	5	116	86	117
52	1	10	11	13
53	2	2	1	85
54	1	41	40	74
55	1	44	45	64
56	1	43	42	69
57	1	88	87	114
58	1	45	46	61
59	1	48	49	55
60	5	19	8	20
61	1	95	94	100
62	1	90	91	92
63	4	34	33	35
64	1	9	10	15
65	1	134	135	136
66	5	27	4	28
67	1	36	37	79
68	1	132	131	149
69	5	63	45	64
70	1	122	123	164
71	1	8	9	17
72	1	133	132	147
73	1	122	123	165
74	1	49	50	53
75	5	166	122	167
76	1	121	122	123
77	5	17	9	18
78	5	81	36	82
79	1	3	4	27
80	1	86	87	88
81	1	39	40	41
82	5	162	124	163
83	1	8	7	21
84	1	3	4	28
85	5	102	93	103
86	4	135	136	138
87	1	45	46	62
88	1	118	120	170
89	5	83	35	84
90	1	130	131	132
91	1	4	5	6
92	1	132	131	148
93	1	42	43	44
94	1	88	87	115
95	1	48	49	56
96	1	86	87	114
97	1	93	94	95
98	5	13	11	14
99	1	131	132	146
100	1	8	9	18
101	1	36	37	38
102	1	39	38	78
103	1	48	49	50
104	1	120	121	168
105	5	160	125	161
106	1	6	7	21
107	1	90	91	107
108	3	137	136	138
109	1	40	41	71
110	5	114	87	115
111	1	36	35	83
112	5	144	133	145
113	1	35	36	37
114	1	40	39	75
115	1	37	38	77
116	5	142	134	143
117	1	8	7	22
118	1	38	39	76
119	5	148	131	149
120	5	15	10	16
121	1	92	93	94
122	1	38	39	40
123	1	87	88	113
124	1	90	91	106
125	1	45	44	66
126	1	122	121	169
127	1	43	44	65
128	1	89	90	109
129	5	112	88	113
130	1	46	47	59
131	1	49	48	58
132	1	128	127	157
133	1	91	90	108
134	5	65	44	66
135	1	126	127	128
136	1	9	10	11
137	1	129	128	154
138	1	50	49	55
139	1	86	87	115
140	1	51	50	54
141	5	57	48	58
142	1	40	39	76
143	1	7	8	19
144	1	5	6	24
145	1	89	88	113
146	1	4	5	26
147	1	91	90	109
148	5	100	94	101
149	1	46	45	64
150	1	94	95	96
151	1	90	89	110
152	1	128	127	156
153	5	23	6	24
154	1	3	2	31
155	1	1	2	31
156	1	91	92	105
157	1	5	6	23
158	1	93	94	101
159	1	49	50	51
160	1	6	7	8
161	1	135	134	143
162	1	123	124	162
163	5	31	2	32
164	1	5	4	27
165	1	127	128	154
166	1	124	123	165
167	1	135	134	142
168	1	2	3	30
169	1	128	129	153
170	1	10	11	12
171	1	123	124	163
172	1	5	4	28
173	4	51	118	119
174	1	131	130	150
175	1	7	8	9
176	1	44	45	46
177	2	11	12	33
178	4	119	118	120
179	1	132	133	144
180	1	33	35	83
181	1	42	41	71
182	4	50	51	118
183	1	50	49	56
184	1	125	124	162
185	1	133	134	135
186	1	136	135	141
187	1	33	35	36
188	1	92	93	102
189	1	125	124	163
190	4	12	33	35
191	5	79	37	80
192	1	37	38	78
193	5	25	5	26
194	1	48	47	59
195	1	121	122	167
196	1	44	45	63
197	1	134	133	145
198	1	7	6	24
199	1	38	39	75
200	1	39	40	73
201	1	35	36	81
202	1	9	8	20
203	1	88	89	110
204	5	152	129	153
205	1	46	47	48
206	1	45	46	47
207	1	43	42	70
208	1	130	131	149
209	1	42	41	72
210	1	7	6	23
211	1	38	37	79
212	1	124	125	126
213	1	125	126	159
214	1	87	88	89
215	1	127	126	159
216	5	158	126	159
217	1	1	2	3
218	1	47	48	49
219	1	122	123	124
220	5	67	43	68
221	1	42	43	67
222	1	51	50	53
223	1	92	93	103
224	1	41	42	69
225	1	124	125	161
226	1	129	130	131
227	1	85	86	87
228	1	96	95	98
229	5	140	135	141
230	5	170	120	171
231	1	121	120	171
232	5	168	121	169
233	1	4	3	30
234	1	46	47	60
235	1	6	5	26
236	1	133	132	146
237	1	130	131	148
238	1	121	122	166
239	1	2	3	4
240	1	118	120	121
241	1	44	43	67
242	1	129	130	151
243	1	126	127	157
244	1	94	95	98
245	4	135	136	137
246	1	93	92	104
247	1	130	129	152
248	4	51	118	120
249	1	123	124	125
250	1	124	125	160
251	1	45	44	65
252	1	40	41	72
253	1	4	5	25
254	1	11	10	16
255	1	47	46	61
256	1	120	121	122
257	5	98	95	99
258	5	154	128	155
259	1	123	122	167
260	5	77	38	78
261	1	127	128	129
262	1	11	10	15
263	5	73	40	74
264	1	39	38	77
265	1	40	41	42
266	1	128	129	130
267	1	96	95	99
268	1	124	123	164
269	1	93	94	100
270	1	125	126	158
271	1	127	126	158
272	1	136	135	140
273	1	133	134	143
274	1	131	132	133
275	1	87	88	112
276	1	8	9	10
277	1	133	134	142
278	1	121	120	170
279	1	94	95	99
280	4	52	51	118
281	1	131	132	147
282	1	47	46	62
283	1	46	45	63
284	5	71	41	72
285	1	48	47	60
286	1	35	36	82
287	5	59	47	60
288	5	29	3	30
289	1	39	40	74
290	1	3	4	5
291	1	95	94	101
292	1	4	3	29
293	1	89	88	112
294	1	130	129	153
295	5	69	42	70
296	1	47	48	58
297	5	110	89	111
298	1	37	38	39
299	1	134	135	141
300	2	1	85	86
301	1	41	40	73
302	1	47	48	57
303	1	123	122	166
304	1	37	36	81
305	1	129	128	155
306	1	36	35	84
307	5	55	49	56
308	5	106	91	107
309	1	7	8	20
310	1	42	43	68
311	1	36	37	80
312	1	94	93	102
313	1	126	125	161
314	1	125	126	127
315	1	89	90	91
316	1	91	92	93
317	1	43	44	45
318	5	146	132	147
319	5	61	46	62
320	1	44	43	68
321	1	127	128	155
322	5	108	90	109
323	1	2	3	29
324	1	134	133	144
325	1	120	121	169
326	1	49	50	54
327	1	92	91	107
328	1	88	89	90
329	4	50	51	52

Dihedrals

1	16	17	9	8	20
2	16	144	133	132	146
3	9	93	94	95	98
4	9	11	10	9	17
5	9	87	88	89	110
6	4	31	2	1	85
7	9	7	8	9	18
8	16	29	3	2	32
9	9	90	89	88	113
10	16	98	95	94	100
11	2	1	2	3	30
11	3	1	2	3	30
12	16	101	94	93	102
13	9	88	87	86	116
14	16	99	95	94	100
15	16	57	48	47	60
16	9	89	88	87	115
17	6	128	129	130	131
17	7	128	129	130	131
17	8	128	129	130	131
18	16	143	134	133	144
19	16	111	89	88	112
20	16	161	125	124	162
21	6	130	131	132	133
21	7	130	131	132	133
21	8	130	131	132	133
22	1	136	135	134	142
23	15	53	50	51	118
24	21	52	51	118	119
25	16	21	7	6	23
26	9	91	92	93	102
27	16	53	50	49	56
28	16	164	123	122	166
29	9	123	122	121	168
30	16	142	134	133	144
31	9	42	41	40	74
32	9	95	94	93	103
33	2	85	86	87	114
33	3	85	86	87	114
34	9	130	131	132	147
35	9	35	36	37	79
36	16	161	125	124	163
37	16	77	38	37	79
38	16	22	7	6	24
39	9	131	132	133	144
40	9	128	129	130	151
41	9	88	87	86	117
42	16	151	130	129	153
43	9	48	47	46	61
44	16	56	49	48	57
45	9	133	132	131	148
46	16	109	90	89	110
47	16	100	94	93	102
48	6	4	5	6	7
48	7	4	5	6	7
48	8	4	5	6	7
49	16	22	7	6	23
50	16	154	128	127	157
51	16	78	38	37	80
52	16	155	128	127	156
53	16	72	41	40	73
54	9	86	87	88	113
55	9	39	38	37	80
56	9	134	133	132	146
57	2	96	95	94	101
57	3	96	95	94	101
58	16	104	92	91	107
59	24	97	96	95	98
60	16	15	10	9	17
61	16	26	5	4	27
62	2	96	95	94	100
62	3	96	95	94	100
63	9	93	94	95	99
64	9	7	6	5	26
65	16	149	131	130	151
66	9	92	93	94	101
67	16	101	94	93	103
68	16	26	5	4	28
69	9	94	93	92	104
70	18	119	118	120	170
70	19	119	118	120	170
70	20	119	118	120	170
71	18	34	33	35	83
71	19	34	33	35	83
71	20	34	33	35	83
72	16	68	43	42	70
73	9	121	122	123	164
74	9	6	5	4	27
75	9	121	122	123	165
76	1	33	35	36	81
77	16	74	40	39	76
78	6	127	128	129	130
78	7	127	128	129	130
78	8	127	128	129	130
79	16	65	44	43	68
80	9	126	125	124	162
81	17	34	33	35	36
82	6	35	36	37	38
82	7	35	36	37	38
82	8	35	36	37	38
83	9	91	92	93	103
84	9	128	127	126	158
85	16	18	9	8	20
86	9	93	92	91	107
87	16	166	122	121	168
88	2	85	86	87	115
88	3	85	86	87	115
89	16	67	43	42	70
90	9	127	128	129	153
91	9	126	125	124	163
92	16	153	129	128	155
93	9	45	46	47	60
94	6	3	4	5	6
94	7	3	4	5	6
94	8	3	4	5	6
95	9	38	39	40	74
96	9	122	123	124	162
97	9	5	6	7	21
98	9	88	89	90	109
99	16	79	37	36	82
100	16	80	37	36	81
101	2	1	2	3	29
101	3	1	2	3	29
102	9	132	133	134	142
103	16	100	94	93	103
104	1	118	120	121	169
105	9	122	123	124	163
106	9	43	42	41	72
107	9	93	92	91	106
108	9	8	9	10	16
109	16	15	10	9	18
110	5	2	1	85	86
111	9	130	131	132	146
112	9	132	131	130	150
113	16	62	46	45	63
114	9	42	43	44	65
115	1	1	2	3	4
116	9	46	45	44	66
117	9	50	49	48	58
118	9	38	39	40	73
119	16	59	47	46	62
120	24	97	96	95	99
121	16	146	132	131	149
122	16	61	46	45	63
123	9	7	8	9	17
124	16	64	45	44	66
125	9	36	37	38	78
126	9	43	44	45	63
127	9	50	49	48	57
128	16	147	132	131	149
129	9	49	48	47	59
130	15	138	136	135	140
131	16	23	6	5	25
132	16	110	89	88	112
133	16	82	36	35	84
134	6	121	122	123	124
134	7	121	122	123	124
134	8	121	122	123	124
135	16	112	88	87	114
136	16	152	129	128	154
137	9	120	121	122	167
138	16	14	11	10	16
139	6	89	90	91	92
139	7	89	90	91	92
139	8	89	90	91	92
140	9	5	6	7	22
141	6	40	41	42	43
141	7	40	41	42	43
141	8	40	41	42	43
142	16	75	39	38	77
143	9	124	125	126	159
144	9	44	43	42	69
145	1	118	120	121	122
146	16	115	87	86	117
147	16	102	93	92	104
148	9	2	3	4	27
149	9	129	130	131	149
150	6	131	132	133	134
150	7	131	132	133	134
150	8	131	132	133	134
151	16	30	3	2	32
152	16	24	6	5	25
153	16	24	6	5	26
154	9	48	49	50	54
155	9	6	7	8	19
156	9	38	37	36	82
157	16	108	90	89	110
158	16	66	44	43	67
159	16	146	132	131	148
160	9	2	3	4	28
161	9	47	48	49	55
162	9	130	129	128	154
163	16	147	132	131	148
164	16	58	48	47	59
165	15	51	118	120	171
166	18	119	118	120	171
166	19	119	118	120	171
166	20	119	118	120	171
167	9	133	132	131	149
168	16	21	7	6	24
169	16	106	91	90	108
170	16	142	134	133	145
171	9	122	121	120	171
172	9	131	130	129	152
173	9	3	4	5	26
174	15	134	135	136	138
175	16	114	87	86	116
176	9	131	132	133	145
177	6	90	91	92	93
177	7	90	91	92	93
177	8	90	91	92	93
178	9	9	10	11	14
179	4	14	11	12	33
180	16	106	91	90	109
181	9	9	10	11	13
182	6	86	87	88	89
182	7	86	87	88	89
182	8	86	87	88	89
183	9	40	39	38	77
184	16	81	36	35	84
185	16	145	133	132	147
186	9	37	36	35	84
187	9	40	41	42	70
188	16	72	41	40	74
189	9	129	130	131	148
190	1	9	10	11	12
191	15	12	33	35	36
192	16	103	93	92	105
193	16	56	49	48	58
194	16	112	88	87	115
195	16	69	42	41	72
196	16	74	40	39	75
197	21	50	51	118	119
198	6	6	7	8	9
198	7	6	7	8	9
198	8	6	7	8	9
199	16	20	8	7	22
200	9	120	121	122	166
201	6	46	47	48	49
201	7	46	47	48	49
201	8	46	47	48	49
202	4	1	85	86	87
203	16	158	126	125	161
204	6	87	88	89	90
204	7	87	88	89	90
204	8	87	88	89	90
205	16	167	122	121	168
206	18	137	136	135	141
206	19	137	136	135	141
206	20	137	136	135	141
207	9	92	91	90	108
208	9	90	91	92	104
209	16	27	4	3	30
210	9	129	128	127	157
211	9	10	9	8	19
212	9	89	90	91	107
213	9	124	123	122	167
214	9	44	45	46	61
215	9	47	48	49	56
216	6	122	123	124	125
216	7	122	123	124	125
216	8	122	123	124	125
217	9	92	91	90	109
218	4	13	11	12	33
219	9	4	5	6	24
220	9	7	6	5	25
221	9	9	8	7	21
222	1	51	50	49	55
223	16	19	8	7	21
224	18	52	51	50	53
224	19	52	51	50	53
224	20	52	51	50	53
225	9	124	125	126	158
226	16	154	128	127	156
227	16	59	47	46	61
228	6	8	9	10	11
228	7	8	9	10	11
228	8	8	9	10	11
229	9	129	128	127	156
230	15	51	118	120	170
231	6	47	48	49	50
231	7	47	48	49	50
231	8	47	48	49	50
232	9	126	127	128	154
233	9	92	93	94	100
234	9	35	36	37	80
235	16	77	38	37	80
236	9	89	90	91	106
237	16	71	41	40	74
238	9	90	89	88	112
239	16	29	3	2	31
240	9	122	121	120	170
241	16	104	92	91	106
242	9	4	5	6	23
243	15	49	50	51	118
244	6	41	42	43	44
244	7	41	42	43	44
244	8	41	42	43	44
245	16	25	5	4	27
246	16	63	45	44	65
247	16	158	126	125	160
248	16	148	131	130	151
249	9	133	134	135	141
250	9	128	129	130	150
251	9	131	130	129	153
252	16	62	46	45	64
253	16	25	5	4	28
254	16	76	39	38	78
255	14	11	12	33	35
256	4	1	85	86	116
257	16	162	124	123	164
258	9	47	46	45	64
259	16	162	124	123	165
260	16	71	41	40	73
261	16	70	42	41	71
262	16	73	40	39	75
263	9	91	90	89	111
264	25	135	136	138	139
265	9	41	40	39	76
266	9	43	44	45	64
267	16	17	9	8	19
268	9	41	42	43	67
269	9	44	45	46	62
270	6	7	8	9	10
270	7	7	8	9	10
270	8	7	8	9	10
271	16	144	133	132	147
272	16	157	127	126	159
273	16	16	10	9	17
274	6	125	126	127	128
274	7	125	126	127	128
274	8	125	126	127	128
275	16	159	126	125	161
276	1	118	120	121	168
277	4	1	85	86	117
278	9	48	49	50	53
279	9	90	91	92	105
280	9	9	8	7	22
281	16	19	8	7	22
282	9	86	87	88	112
283	16	160	125	124	162
284	9	124	123	122	166
285	16	149	131	130	150
286	6	36	37	38	39
286	7	36	37	38	39
286	8	36	37	38	39
287	9	8	9	10	15
288	16	160	125	124	163
289	1	51	50	49	56
290	16	54	50	49	55
291	9	8	7	6	24
292	9	87	88	89	111
293	6	123	124	125	126
293	7	123	124	125	126
293	8	123	124	125	126
294	9	45	46	47	59
295	16	66	44	43	68
296	21	52	51	118	120
297	9	40	39	38	78
298	9	94	93	92	105
299	2	12	11	10	16
299	3	12	11	10	16
300	6	124	125	126	127
300	7	124	125	126	127
300	8	124	125	126	127
301	16	73	40	39	76
302	16	27	4	3	29
303	16	151	130	129	152
304	9	46	45	44	65
305	6	132	133	134	135
305	7	132	133	134	135
305	8	132	133	134	135
306	16	111	89	88	113
307	9	8	7	6	23
308	16	70	42	41	72
309	15	54	50	51	118
310	16	58	48	47	60
311	16	64	45	44	65
312	16	159	126	125	160
313	16	79	37	36	81
314	16	20	8	7	21
315	9	123	124	125	161
316	16	16	10	9	18
317	16	14	11	10	15
318	16	143	134	133	145
319	9	134	133	132	147
320	16	28	4	3	30
321	9	46	47	48	58
322	16	109	90	89	111
323	9	3	4	5	25
324	6	5	6	7	8
324	7	5	6	7	8
324	8	5	6	7	8
325	16	105	92	91	107
326	22	94	95	96	97
326	23	94	95	96	97
327	9	46	47	48	57
328	9	5	4	3	30
329	6	37	38	39	40
329	7	37	38	39	40
329	8	37	38	39	40
330	16	140	135	134	143
331	15	138	136	135	141
332	16	168	121	120	171
333	16	13	11	10	16
334	9	39	40	41	71
335	15	12	33	35	83
336	9	125	124	123	164
337	16	18	9	8	19
338	16	54	50	49	56
339	9	125	124	123	165
340	16	153	129	128	154
341	16	82	36	35	83
342	16	105	92	91	106
343	9	123	124	125	160
344	16	98	95	94	101
345	16	78	38	37	79
346	9	127	128	129	152
347	16	114	87	86	117
348	16	99	95	94	101
349	16	157	127	126	158
350	16	68	43	42	69
351	9	39	38	37	79
352	16	13	11	10	15
353	9	36	37	38	77
354	16	113	88	87	114
355	18	34	33	35	84
355	19	34	33	35	84
355	20	34	33	35	84
356	1	136	135	134	143
357	9	123	122	121	169
358	9	135	134	133	144
359	9	44	43	42	70
360	16	141	135	134	143
361	1	33	35	36	82
362	16	67	43	42	69
363	6	88	89	90	91
363	7	88	89	90	91
363	8	88	89	90	91
364	9	38	37	36	81
365	16	102	93	92	105
366	16	141	135	134	142
367	9	45	44	43	68
368	16	57	48	47	59
369	16	155	128	127	157
370	16	156	127	126	159
371	1	93	94	95	96
372	9	4	3	2	32
373	9	41	40	39	75
374	16	30	3	2	31
375	6	126	127	128	129
375	7	126	127	128	129
375	8	126	127	128	129
376	16	152	129	128	155
377	16	167	122	121	169
378	9	133	134	135	140
379	12	11	12	33	34
379	13	11	12	33	34
380	16	150	130	129	152
381	9	39	40	41	72
382	16	80	37	36	82
383	4	3	2	1	85
384	17	134	135	136	137
385	9	42	41	40	73
386	6	42	43	44	45
386	7	42	43	44	45
386	8	42	43	44	45
387	6	45	46	47	48
387	7	45	46	47	48
387	8	45	46	47	48
388	9	11	10	9	18
389	9	41	42	43	68
390	9	45	44	43	67
391	16	63	45	44	66
392	1	48	49	50	51
393	16	55	49	48	58
394	9	6	7	8	20
395	16	81	36	35	83
396	9	37	36	35	83
397	9	43	42	41	71
398	9	132	131	130	151
399	16	168	121	120	170
400	1	133	134	135	136
401	9	130	129	128	155
402	16	28	4	3	29
403	16	55	49	48	57
404	6	39	40	41	42
404	7	39	40	41	42
404	8	39	40	41	42
405	16	75	39	38	78
406	16	110	89	88	113
407	16	113	88	87	115
408	16	165	123	122	167
409	16	61	46	45	64
410	9	125	126	127	157
411	9	5	4	3	29
412	16	166	122	121	169
413	16	145	133	132	146
414	9	88	89	90	108
415	16	169	121	120	171
416	9	48	47	46	62
417	9	6	5	4	28
418	9	42	43	44	66
419	9	49	48	47	60
420	6	43	44	45	46
420	7	43	44	45	46
420	8	43	44	45	46
421	4	32	2	1	85
422	6	44	45	46	47
422	7	44	45	46	47
422	8	44	45	46	47
423	16	60	47	46	61
424	16	108	90	89	111
425	9	125	126	127	156
426	9	132	133	134	143
427	6	91	92	93	94
427	7	91	92	93	94
427	8	91	92	93	94
428	9	4	3	2	31
429	9	37	38	39	75
430	6	38	39	40	41
430	7	38	39	40	41
430	8	38	39	40	41
431	15	51	118	120	121
432	17	119	118	120	121
433	16	65	44	43	67
434	1	33	35	36	37
435	10	10	11	12	33
435	11	10	11	12	33
436	16	107	91	90	108
437	16	148	131	130	150
438	9	10	9	8	20
439	18	52	51	50	54
439	19	52	51	50	54
439	20	52	51	50	54
440	9	47	46	45	63
441	16	156	127	126	158
442	9	89	88	87	114
443	16	163	124	123	164
444	16	164	123	122	167
445	21	50	51	118	120
446	6	2	3	4	5
446	7	2	3	4	5
446	8	2	3	4	5
447	16	163	124	123	165
448	26	137	136	138	139
448	27	137	136	138	139
449	9	127	126	125	161
450	16	150	130	129	153
451	16	107	91	90	109
452	16	115	87	86	116
453	6	120	121	122	123
453	7	120	121	122	123
453	8	120	121	122	123
454	9	40	41	42	69
455	16	53	50	49	55
456	15	12	33	35	84
457	16	103	93	92	104
458	2	12	11	10	15
458	3	12	11	10	15
459	9	95	94	93	102
460	16	23	6	5	26
461	17	49	50	51	52
462	9	126	127	128	155
463	9	91	90	89	110
464	16	165	123	122	166
465	6	129	130	131	132
465	7	129	130	131	132
465	8	129	130	131	132
466	16	60	47	46	62
467	16	76	39	38	77
468	9	37	38	39	76
469	6	92	93	94	95
469	7	92	93	94	95
469	8	92	93	94	95
470	16	69	42	41	71
471	16	169	121	120	170
472	16	140	135	134	142
473	9	128	127	126	159
474	1	85	86	87	88
475	9	135	134	133	145
476	9	127	126	125	160
477	18	137	136	135	140
477	19	137	136	135	140
477	20	137	136	135	140

Impropers

63	2	118	119	120	51
80	2	118	120	51	119
119	2	51	50	52	118
181	1	33	35	12	34
349	1	136	137	138	135
831	1	136	138	135	137
957	2	51	118	50	52
1058	1	33	34	35	12
1071	1	136	135	137	138
1132	2	51	52	118	50
1202	1	33	12	34	35
1213	2	118	51	119	120
