Title

171 atoms
170 bonds
329 angles
585 dihedrals
12 impropers

8 atom types
11 bond types
5 angle types
27 dihedral types
2 improper types
-19.23900032 80.76099968 xlo xhi
-5.084000111 94.91599989 ylo yhi
-3.451999903 96.5480001 zlo zhi
0.0 0.0 0.0 xy xz yz

Masses

1	15.99943
2	12.01078
3	1.007947
4	1.007947
5	12.01078
6	15.99943
7	15.99943
8	1.007947


Pair Coeffs

1	0.16846514	3.0251065
2	0.10884061	3.3795318
3	0.016409246	2.5832257
4	0.015779483	2.6445434
5	0.086879315	3.4806469
6	0.2102061	3.0398122
7	0.20947353	2.99716
8	1.2326e-05	0.53453923

Bond Coeffs

1 harmonic	366.7408841747	1.425895053732
2 harmonic	300.03137914615	1.451203938761
3 harmonic	264.62148576755	1.52190126495
4 harmonic	370.04670688625	1.093899492634
5 harmonic	301.15400723785	1.345741232799
6 harmonic	582.698766451	1.225198386222
7 harmonic	329.44145381095	1.523435958334
8 harmonic	279.1350963404	1.454628925034
9 harmonic	329.96998057905	1.427343958716
10 harmonic	543.5267831885	0.9716763312559
11 harmonic	385.7604595587	1.369745182308


Angle Coeffs

1 harmonic	53.20531626545	116.5475862634
2 harmonic	65.09061609600001	110.3538806181
3 harmonic	201.41175231035	127.4691416191
4 harmonic	57.8982893754	126.8062420451
5 harmonic	48.776492647595	115.6030999533


Dihedral Coeffs

1 fourier 1	0.1155372516788	3	0
2 fourier 1	0.1115525666802	3	0
3 fourier 1	0.3432490222662	1	0
4 fourier 1	0.0473758381877	3	0
5 fourier 1	0.457973137376	1	0
6 fourier 1	0.09223874044423	3	0
7 fourier 1	0.3159935921949	2	180
8 fourier 1	0.3247796806857	1	180
9 fourier 1	0.1040663847541	3	0
10 fourier 1	0.1918272375143	3	0
11 fourier 1	0.9202179876409	1	180
12 fourier 1	1.163809172478	2	180
13 fourier 1	0.1679186987369	1	180
14 fourier 1	2.779853741805	2	180
15 fourier 1	0.02664938770063	3	0
16 fourier 1	0.1911926717192	3	0
17 fourier 1	-0.3703352413219	2	0
18 fourier 1	0.4541676554336	1	0
19 fourier 1	0.1489710476446	2	0
20 fourier 1	0.02960027280666	3	180
21 fourier 1	0.9974165607242	2	180
22 fourier 1	0.3445382149273	3	0
23 fourier 1	0.1364556373303	1	0
24 fourier 1	0.3026390167484	3	0
25 fourier 1	2.687457892086	2	180
26 fourier 1	2.772607909663	2	180
27 fourier 1	0.09692684957115	1	0


Improper Coeffs

1 3.5	-1	2
2 0.3666666666666667	-1	2


Atoms

1	1	1	-0.18677101	-3.987	2.6689999	0.88
2	1	2	0.031288002	-4.0469999	1.324	0.491
3	1	2	-0.148442	-2.6389999	0.72299999	0.44499999
4	1	2	-0.142078	-2.684	-0.75800002	0.041000001
5	1	2	-0.14444	-1.3049999	-1.431	0.112
6	1	2	-0.14315701	-0.34799999	-0.93300003	-0.98500001
7	1	2	-0.14315701	0.94199997	-1.768	-1.074
8	1	2	-0.14449	1.801	-1.779	0.207
9	1	2	-0.143343	2.217	-0.38999999	0.72399998
10	1	2	-0.142281	3.069	0.39199999	-0.289
11	1	2	0.13318101	3.6340001	1.681	0.315
12	1	1	-0.49735799	2.6040001	2.5910001	0.59600002
13	1	3	0.073875003	4.2350001	1.456	1.227
14	1	3	0.073875003	4.3189998	2.1470001	-0.42399999
15	1	4	0.081938997	2.4590001	0.65499997	-1.179
16	1	4	0.081938997	3.918	-0.242	-0.62400001
17	1	4	0.078290001	2.8110001	-0.54000002	1.652
18	1	4	0.078290001	1.318	0.197	1.006
19	1	4	0.076604001	1.253	-2.3099999	1.013
20	1	4	0.076604001	2.7179999	-2.375	0.0080000004
21	1	4	0.076604001	1.552	-1.3940001	-1.923
22	1	4	0.076604001	0.67199999	-2.8180001	-1.322
23	1	4	0.076604001	-0.861	-1	-1.969
24	1	4	0.076604001	-0.092	0.134	-0.82300001
25	1	4	0.076604001	-1.449	-2.527	-0.0070000002
26	1	4	0.076604001	-0.86299998	-1.2539999	1.1160001
27	1	4	0.078459002	-3.1010001	-0.85900003	-0.98500001
28	1	4	0.078459002	-3.365	-1.3	0.73500001
29	1	4	0.082888	-2.033	1.295	-0.28799999
30	1	4	0.082888	-2.1700001	0.824	1.448
31	1	3	0.073385	-4.6620002	0.77100003	1.233
32	1	3	0.073385	-4.54	1.2309999	-0.50300002
33	1	5	0.75869501	2.289	2.4000001	1.567
34	1	6	-0.57064903	1.643	1.391	1.804
35	1	2	-0.210392	2.6440001	3.3540001	2.6700001
36	1	2	-0.117051	1.401	4.0089998	3.2869999
37	1	2	-0.13771699	0.69499999	4.954	2.303
38	1	2	-0.14305601	-0.514	5.631	2.961
39	1	2	-0.14315701	-1.229	6.5619998	1.97
40	1	2	-0.14315701	-2.3610001	7.3699999	2.625
41	1	2	-0.14315701	-3.5829999	6.5009999	2.971
42	1	2	-0.14315701	-4.743	7.3239999	3.5550001
43	1	2	-0.14315701	-5.5500002	8.0579996	2.47
44	1	2	-0.14315701	-6.6269999	8.9919996	3.053
45	1	2	-0.14315701	-7.71	8.2980003	3.898
46	1	2	-0.14315701	-8.5249996	7.2670002	3.098
47	1	2	-0.14305601	-9.6859999	6.665	3.908
48	1	2	-0.140366	-10.837	7.6420002	4.2220001
49	1	2	-0.098674998	-11.571	8.1660004	2.967
50	1	2	-0.25923899	-11.177	9.6040001	2.592
51	1	5	0.51438898	-11.696	10.61	3.579
52	1	6	-0.71036398	-11.46	11.796	3.4189999
53	1	4	0.110322	-11.605	9.8400002	1.594
54	1	4	0.110322	-10.074	9.6999998	2.5179999
55	1	4	0.073100999	-11.379	7.4990001	2.098
56	1	4	0.073100999	-12.669	8.1339998	3.1440001
57	1	4	0.074739002	-11.575	7.0830002	4.8390002
58	1	4	0.074739002	-10.479	8.4720001	4.8649998
59	1	4	0.076604001	-10.099	5.8000002	3.3440001
60	1	4	0.076604001	-9.2889996	6.2620001	4.8649998
61	1	4	0.076604001	-8.901	7.7129998	2.154
62	1	4	0.076604001	-7.8559999	6.4260001	2.8169999
63	1	4	0.076604001	-7.256	7.8150001	4.789
64	1	4	0.076604001	-8.3850002	9.0939999	4.2740002
65	1	4	0.076604001	-6.1290002	9.7629995	3.6800001
66	1	4	0.076604001	-7.1199999	9.5290003	2.2130001
67	1	4	0.076604001	-6.0120001	7.323	1.777
68	1	4	0.076604001	-4.868	8.6859999	1.862
69	1	4	0.076604001	-5.4180002	6.619	4.086
70	1	4	0.076604001	-4.355	8.0500002	4.3039999
71	1	4	0.076604001	-3.2869999	5.7509999	3.734
72	1	4	0.076604001	-3.9289999	5.947	2.0699999
73	1	4	0.076604001	-2.661	8.1630001	1.909
74	1	4	0.076604001	-1.982	7.8730001	3.5420001
75	1	4	0.076604001	-1.631	5.9720001	1.118
76	1	4	0.076604001	-0.48800001	7.283	1.5599999
77	1	4	0.076604001	-1.217	4.8449998	3.3110001
78	1	4	0.076604001	-0.171	6.2179999	3.8410001
79	1	4	0.074739002	0.35100001	4.3779998	1.416
80	1	4	0.074739002	1.413	5.7319999	1.962
81	1	4	0.081809998	0.69400001	3.2219999	3.632
82	1	4	0.081809998	1.722	4.5900002	4.1799998
83	1	4	0.113136	3.1919999	2.7969999	3.46
84	1	4	0.113136	3.325	4.138	2.276
85	1	1	-0.18677101	-3.677	3.1800001	0.088
86	1	2	0.031288002	-3.9849999	4.526	0.333
87	1	2	-0.148442	-2.9820001	5.1259999	1.322
88	1	2	-0.142078	-3.289	6.6079998	1.5880001
89	1	2	-0.14444	-2.2279999	7.2800002	2.4719999
90	1	2	-0.14315701	-2.27	6.7820001	3.927
91	1	2	-0.14315701	-1.383	7.6170001	4.868
92	1	2	-0.14444	0.118	7.6279998	4.5100002
93	1	2	-0.13799401	0.77399999	6.2389998	4.4130001
94	1	2	-0.17036501	0.71200001	5.4569998	5.7350001
95	1	2	0.084386997	1.5369999	4.1680002	5.6750002
96	1	7	-0.687778	0.97100002	3.2579999	4.77
97	1	8	0.37320301	1.38	3.441	3.8840001
98	1	3	0.063074	2.5969999	4.3930001	5.4120002
99	1	3	0.063074	1.539	3.7019999	6.6830001
100	1	4	0.085239999	-0.34	5.1939998	5.974
101	1	4	0.085239999	1.109	6.092	6.5570002
102	1	4	0.078459002	1.84	6.3889999	4.1339998
103	1	4	0.078459002	0.30500001	5.652	3.596
104	1	4	0.076604001	0.26199999	8.1590004	3.5450001
105	1	4	0.076604001	0.65600002	8.224	5.2789998
106	1	4	0.076604001	-1.511	7.244	5.9060001
107	1	4	0.076604001	-1.749	8.6669998	4.8660002
108	1	4	0.076604001	-3.3139999	6.849	4.302
109	1	4	0.076604001	-1.972	5.7150002	3.9820001
110	1	4	0.076604001	-2.415	8.3760004	2.461
111	1	4	0.076604001	-1.222	7.1030002	2.0339999
112	1	4	0.078459002	-4.2919998	6.7080002	2.059
113	1	4	0.078459002	-3.3180001	7.1490002	0.61699998
114	1	4	0.082888	-3.0350001	4.5539999	2.2720001
115	1	4	0.082888	-1.957	5.0250001	0.903
116	1	3	0.073385	-3.934	5.0780001	-0.63
117	1	3	0.073385	-5.0219998	4.618	0.72899997
118	1	5	0.51438898	-12.281	10.297	4.4380002
119	1	6	-0.71036398	-11.851	9.4230003	5.1729999
120	1	2	-0.25923899	-13.606	10.944	4.7150002
121	1	2	-0.098674998	-14.763	9.9379997	4.6690001
122	1	2	-0.140366	-14.972	9.3559999	3.2620001
123	1	2	-0.14305601	-16.171	8.3950005	3.2360001
124	1	2	-0.14315701	-16.499001	7.8860002	1.8200001
125	1	2	-0.14315701	-15.377	7.0739999	1.138
126	1	2	-0.14315701	-14.883	5.848	1.928
127	1	2	-0.14315701	-15.98	4.7839999	2.118
128	1	2	-0.14315701	-15.458	3.527	2.8369999
129	1	2	-0.14315701	-14.635	2.5880001	1.926
130	1	2	-0.14315701	-15.429	1.378	1.405
131	1	2	-0.14315701	-16.533001	1.771	0.40900001
132	1	2	-0.14305601	-17.214001	0.54900002	-0.23
133	1	2	-0.13771699	-16.339001	-0.116	-1.309
134	1	2	-0.11452	-17.098	-1.187	-2.109
135	1	2	-0.220485	-17.400999	-2.4419999	-1.275
136	1	5	0.82047898	-17.99	-3.513	-2.1370001
137	1	6	-0.57286203	-19.239	-3.6210001	-2.247
138	1	7	-0.668957	-17.153	-4.3629999	-2.852
139	1	8	0.38935599	-17.534	-5.0840001	-3.4519999
140	1	4	0.114133	-16.464001	-2.8280001	-0.81699997
141	1	4	0.114133	-18.114	-2.2	-0.45899999
142	1	4	0.081809998	-18.045	-0.76300001	-2.5090001
143	1	4	0.081809998	-16.465	-1.475	-2.977
144	1	4	0.074739002	-15.437	-0.57499999	-0.85000002
145	1	4	0.074739002	-15.994	0.66299999	-2.023
146	1	4	0.076604001	-17.476	-0.184	0.56199998
147	1	4	0.076604001	-18.162001	0.89099997	-0.69999999
148	1	4	0.076604001	-16.121	2.4330001	-0.38499999
149	1	4	0.076604001	-17.313	2.3399999	0.95599997
150	1	4	0.076604001	-14.707	0.69499999	0.91100001
151	1	4	0.076604001	-15.878	0.82499999	2.26
152	1	4	0.076604001	-13.787	2.1900001	2.526
153	1	4	0.076604001	-14.183	3.1329999	1.069
154	1	4	0.076604001	-16.322001	2.9760001	3.27
155	1	4	0.076604001	-14.832	3.8399999	3.701
156	1	4	0.076604001	-16.416	4.5159998	1.1339999
157	1	4	0.076604001	-16.791	5.2119999	2.743
158	1	4	0.076604001	-14.475	6.1609998	2.9130001
159	1	4	0.076604001	-14.036	5.4060001	1.36
160	1	4	0.076604001	-15.748	6.7350001	0.145
161	1	4	0.076604001	-14.513	7.7399998	0.93400002
162	1	4	0.076604001	-16.738001	8.7580004	1.174
163	1	4	0.076604001	-17.423	7.2719998	1.8660001
164	1	4	0.076604001	-15.992	7.54	3.921
165	1	4	0.076604001	-17.068001	8.9300003	3.618
166	1	4	0.074739002	-15.149	10.187	2.5439999
167	1	4	0.074739002	-14.056	8.809	2.957
168	1	4	0.073100999	-15.69	10.463	4.987
169	1	4	0.073100999	-14.572	9.1160002	5.395
170	1	4	0.110322	-13.57	11.413	5.724
171	1	4	0.110322	-13.786	11.752	3.9719999

Bonds

1	1	1	2
2	2	1	85
3	3	2	3
4	4	2	31
5	4	2	32
6	3	3	4
7	4	3	29
8	4	3	30
9	3	4	5
10	4	4	27
11	4	4	28
12	3	5	6
13	4	5	25
14	4	5	26
15	3	6	7
16	4	6	23
17	4	6	24
18	3	7	8
19	4	7	21
20	4	7	22
21	3	8	9
22	4	8	19
23	4	8	20
24	3	9	10
25	4	9	17
26	4	9	18
27	3	10	11
28	4	10	15
29	4	10	16
30	1	11	12
31	4	11	13
32	4	11	14
33	5	12	33
34	6	33	34
35	7	33	35
36	3	35	36
37	4	35	83
38	4	35	84
39	3	36	37
40	4	36	81
41	4	36	82
42	3	37	38
43	4	37	79
44	4	37	80
45	3	38	39
46	4	38	77
47	4	38	78
48	3	39	40
49	4	39	75
50	4	39	76
51	3	40	41
52	4	40	73
53	4	40	74
54	3	41	42
55	4	41	71
56	4	41	72
57	3	42	43
58	4	42	69
59	4	42	70
60	3	43	44
61	4	43	67
62	4	43	68
63	3	44	45
64	4	44	65
65	4	44	66
66	3	45	46
67	4	45	63
68	4	45	64
69	3	46	47
70	4	46	61
71	4	46	62
72	3	47	48
73	4	47	59
74	4	47	60
75	3	48	49
76	4	48	57
77	4	48	58
78	3	49	50
79	4	49	55
80	4	49	56
81	7	50	51
82	4	50	53
83	4	50	54
84	6	51	52
85	8	51	118
86	1	85	86
87	3	86	87
88	4	86	116
89	4	86	117
90	3	87	88
91	4	87	114
92	4	87	115
93	3	88	89
94	4	88	112
95	4	88	113
96	3	89	90
97	4	89	110
98	4	89	111
99	3	90	91
100	4	90	108
101	4	90	109
102	3	91	92
103	4	91	106
104	4	91	107
105	3	92	93
106	4	92	104
107	4	92	105
108	3	93	94
109	4	93	102
110	4	93	103
111	3	94	95
112	4	94	100
113	4	94	101
114	9	95	96
115	4	95	98
116	4	95	99
117	10	96	97
118	6	118	119
119	7	118	120
120	3	120	121
121	4	120	170
122	4	120	171
123	3	121	122
124	4	121	168
125	4	121	169
126	3	122	123
127	4	122	166
128	4	122	167
129	3	123	124
130	4	123	164
131	4	123	165
132	3	124	125
133	4	124	162
134	4	124	163
135	3	125	126
136	4	125	160
137	4	125	161
138	3	126	127
139	4	126	158
140	4	126	159
141	3	127	128
142	4	127	156
143	4	127	157
144	3	128	129
145	4	128	154
146	4	128	155
147	3	129	130
148	4	129	152
149	4	129	153
150	3	130	131
151	4	130	150
152	4	130	151
153	3	131	132
154	4	131	148
155	4	131	149
156	3	132	133
157	4	132	146
158	4	132	147
159	3	133	134
160	4	133	144
161	4	133	145
162	3	134	135
163	4	134	142
164	4	134	143
165	7	135	136
166	4	135	140
167	4	135	141
168	6	136	137
169	11	136	138
170	10	138	139

Angles

1	1	132	133	144
2	1	86	87	115
3	1	96	95	99
4	1	91	92	105
5	1	5	6	24
6	1	47	46	62
7	1	87	88	113
8	1	4	3	29
9	1	134	135	136
10	1	130	131	132
11	1	131	130	150
12	1	136	135	140
13	1	49	50	54
14	1	43	44	66
15	1	127	126	158
16	1	38	37	80
17	1	10	9	18
18	1	48	49	56
19	1	132	131	148
20	5	106	91	107
21	1	127	128	154
22	1	8	9	18
23	1	38	39	76
24	1	86	87	88
25	1	89	90	91
26	5	102	93	103
27	1	91	90	109
28	1	44	45	64
29	1	123	124	162
30	1	126	127	156
31	1	92	93	103
32	1	128	129	152
33	1	92	91	107
34	5	160	125	161
35	5	170	120	171
36	1	39	40	41
37	1	42	43	44
38	5	63	45	64
39	1	5	4	27
40	4	34	33	35
41	1	43	42	70
42	5	53	50	54
43	1	48	47	60
44	1	3	4	5
45	4	12	33	35
46	1	44	43	68
47	1	95	94	100
48	1	121	120	170
49	1	39	40	74
50	1	49	50	51
51	1	126	125	160
52	5	65	44	66
53	1	121	122	166
54	1	124	123	165
55	1	35	36	82
56	1	86	87	114
57	1	96	95	98
58	4	50	51	118
59	1	124	125	161
60	1	40	41	42
61	1	36	35	84
62	1	91	92	104
63	5	17	9	18
64	1	130	131	149
65	1	120	121	169
66	1	5	6	23
67	1	47	46	61
68	3	137	136	138
69	1	47	48	57
70	5	116	86	117
71	5	110	89	111
72	1	37	36	82
73	1	88	87	114
74	1	120	121	122
75	1	43	44	65
76	1	33	35	84
77	1	129	128	155
78	1	10	9	17
79	1	48	49	55
80	1	43	44	45
81	1	134	133	145
82	1	46	47	48
83	1	36	37	79
84	1	122	121	169
85	1	89	88	112
86	1	10	11	14
87	1	125	124	163
88	1	44	45	63
89	1	130	129	153
90	1	125	126	159
91	1	92	93	102
92	5	150	130	151
93	1	45	44	65
94	1	85	86	116
95	5	144	133	145
96	4	51	118	120
97	1	123	124	125
98	1	126	127	128
99	1	41	40	73
100	1	6	5	26
101	1	46	45	63
102	5	148	131	149
103	1	1	2	32
104	5	79	37	80
105	1	48	47	59
106	1	36	35	83
107	1	51	50	53
108	1	5	6	7
109	1	133	132	146
110	1	94	93	102
111	1	49	48	58
112	1	133	134	142
113	1	42	41	71
114	1	134	135	141
115	1	87	88	89
116	1	37	38	77
117	1	2	3	30
118	1	90	89	110
119	1	12	11	14
120	1	42	43	67
121	5	77	38	78
122	2	136	138	139
123	1	129	130	150
124	1	40	41	72
125	1	3	2	32
126	1	122	123	164
127	1	124	125	160
128	1	3	4	28
129	1	33	35	83
130	1	11	10	15
131	1	130	131	148
132	1	133	134	135
133	1	7	8	9
134	1	90	91	92
135	1	37	36	81
136	1	7	6	24
137	1	129	128	154
138	1	40	39	76
139	1	134	133	144
140	5	104	92	105
141	1	122	121	168
142	5	158	126	159
143	1	8	7	22
144	1	128	127	156
145	1	36	37	38
146	1	39	38	78
147	1	130	129	152
148	1	124	125	126
149	1	33	35	36
150	1	125	126	158
151	1	87	86	117
152	5	162	124	163
153	1	118	120	170
154	1	47	48	49
155	5	100	94	101
156	1	135	134	142
157	1	6	5	25
158	1	49	48	57
159	5	164	123	165
160	2	1	85	86
161	1	44	45	46
162	1	127	128	129
163	5	57	48	58
164	1	123	122	166
165	1	2	3	29
166	1	7	8	19
167	1	12	11	13
168	5	67	43	68
169	1	9	8	20
170	1	40	41	71
171	4	52	51	118
172	5	61	46	62
173	1	3	4	27
174	5	19	8	20
175	1	91	92	93
176	4	135	136	138
177	1	4	5	26
178	1	87	88	112
179	1	131	132	147
180	1	49	50	53
181	5	21	7	22
182	1	7	6	23
183	1	38	37	79
184	5	13	11	14
185	5	114	87	115
186	1	8	9	17
187	1	38	39	75
188	1	94	95	96
189	1	8	9	10
190	1	91	90	108
191	1	4	5	6
192	1	8	7	21
193	1	9	10	16
194	1	39	38	77
195	1	4	3	30
196	4	119	118	120
197	1	87	86	116
198	1	136	135	141
199	1	92	91	106
200	1	93	94	95
201	1	131	132	133
202	5	108	90	109
203	5	71	41	72
204	1	43	42	69
205	5	154	128	155
206	5	15	10	16
207	1	35	36	37
208	3	12	33	34
209	1	126	127	157
210	1	44	43	67
211	5	152	129	153
212	1	39	40	73
213	1	9	8	19
214	5	142	134	143
215	1	124	123	164
216	1	5	4	28
217	1	35	36	81
218	1	48	49	50
219	5	81	36	82
220	1	4	5	25
221	1	120	121	168
222	5	27	4	28
223	5	83	35	84
224	1	93	92	105
225	1	88	89	111
226	1	93	94	101
227	1	121	122	167
228	1	37	38	39
229	5	31	2	32
230	1	125	126	127
231	5	25	5	26
232	1	128	129	130
233	1	89	90	109
234	1	10	11	13
235	1	125	124	162
236	1	9	10	15
237	1	50	49	56
238	1	45	46	62
239	1	47	48	58
240	4	50	51	52
241	1	88	87	115
242	5	98	95	99
243	1	6	7	22
244	4	51	118	119
245	1	46	47	60
246	1	36	37	80
247	1	118	120	121
248	1	94	95	99
249	1	89	88	113
250	1	1	2	31
251	5	156	127	157
252	5	140	135	141
253	5	59	47	60
254	1	90	91	107
255	1	134	135	140
256	1	92	93	94
257	1	45	44	66
258	1	85	86	117
259	5	168	121	169
260	1	3	2	31
261	1	41	40	74
262	1	129	130	131
263	1	46	45	64
264	2	11	12	33
265	1	132	133	134
266	1	41	42	70
267	1	51	50	54
268	1	133	132	147
269	1	94	93	103
270	1	38	39	40
271	5	166	122	167
272	1	133	134	143
273	1	42	41	72
274	1	93	92	104
275	1	37	38	78
276	1	88	89	110
277	5	23	6	24
278	5	55	49	56
279	1	90	89	111
280	1	42	43	68
281	1	93	94	100
282	1	88	89	90
283	1	129	130	151
284	1	132	133	145
285	1	122	123	165
286	1	40	39	75
287	1	89	90	108
288	1	11	10	16
289	1	10	11	12
290	1	41	42	43
291	1	50	49	55
292	1	45	46	61
293	1	131	130	151
294	1	6	7	8
295	1	2	3	4
296	1	6	7	21
297	5	73	40	74
298	1	127	126	159
299	1	46	47	59
300	1	132	131	149
301	1	127	128	155
302	1	94	95	98
303	5	112	88	113
304	1	121	122	123
305	2	2	1	85
306	1	128	127	157
307	1	123	124	163
308	1	90	91	106
309	1	128	129	153
310	1	118	120	171
311	1	135	134	143
312	1	85	86	87
313	5	69	42	70
314	1	41	42	69
315	4	135	136	137
316	5	146	132	147
317	5	29	3	30
318	1	1	2	3
319	1	9	10	11
320	1	131	132	146
321	1	122	123	124
322	1	95	94	101
323	1	121	120	171
324	1	123	122	167
325	1	45	46	47
326	1	7	8	20
327	1	126	125	161
328	2	95	96	97
329	5	75	39	76

Dihedrals

1	16	64	45	44	65
2	6	123	124	125	126
2	7	123	124	125	126
2	8	123	124	125	126
3	16	154	128	127	157
4	6	121	122	123	124
4	7	121	122	123	124
4	8	121	122	123	124
5	9	38	39	40	74
6	16	22	7	6	23
7	9	93	94	95	98
8	16	74	40	39	75
9	16	73	40	39	76
10	16	145	133	132	146
11	4	32	2	1	85
12	2	12	11	10	15
12	3	12	11	10	15
13	9	90	91	92	104
14	18	52	51	50	54
14	19	52	51	50	54
14	20	52	51	50	54
15	9	130	129	128	155
16	16	157	127	126	158
17	16	101	94	93	103
18	16	114	87	86	116
19	6	130	131	132	133
19	7	130	131	132	133
19	8	130	131	132	133
20	9	134	133	132	147
21	6	128	129	130	131
21	7	128	129	130	131
21	8	128	129	130	131
22	16	108	90	89	110
23	9	4	3	2	31
24	9	2	3	4	28
25	9	45	44	43	67
26	6	89	90	91	92
26	7	89	90	91	92
26	8	89	90	91	92
27	17	49	50	51	52
28	9	6	7	8	19
29	4	1	85	86	117
30	9	132	133	134	143
31	5	2	1	85	86
32	9	46	47	48	58
33	16	28	4	3	29
34	9	40	41	42	69
35	16	100	94	93	102
36	9	43	44	45	64
37	16	58	48	47	60
38	16	153	129	128	155
39	9	49	48	47	59
40	16	102	93	92	104
41	16	81	36	35	83
42	9	47	48	49	56
43	16	147	132	131	149
44	9	90	89	88	112
45	9	126	127	128	155
46	16	152	129	128	154
47	9	125	126	127	157
48	16	53	50	49	55
49	9	37	38	39	76
50	1	48	49	50	51
51	9	94	93	92	104
52	16	146	132	131	148
53	16	18	9	8	20
54	9	7	8	9	18
55	1	33	35	36	37
56	9	39	38	37	79
57	16	149	131	130	150
58	16	159	126	125	161
59	16	82	36	35	84
60	9	92	93	94	101
61	9	10	9	8	20
62	16	77	38	37	80
63	21	50	51	118	119
64	16	16	10	9	18
65	16	148	131	130	151
66	16	164	123	122	166
67	15	12	33	35	84
68	9	46	45	44	66
69	9	40	39	38	77
70	2	1	2	3	29
70	3	1	2	3	29
71	6	5	6	7	8
71	7	5	6	7	8
71	8	5	6	7	8
72	16	110	89	88	113
73	1	118	120	121	169
74	16	142	134	133	145
75	9	5	6	7	21
76	16	27	4	3	29
77	16	160	125	124	162
78	6	124	125	126	127
78	7	124	125	126	127
78	8	124	125	126	127
79	4	13	11	12	33
80	16	107	91	90	108
81	16	13	11	10	16
82	16	30	3	2	31
83	16	20	8	7	21
84	9	92	91	90	108
85	16	65	44	43	68
86	16	69	42	41	72
87	9	120	121	122	166
88	9	11	10	9	18
89	16	154	128	127	156
90	9	124	125	126	158
91	9	38	39	40	73
92	16	61	46	45	64
93	9	41	42	43	68
94	9	87	88	89	110
95	16	68	43	42	69
96	9	9	10	11	14
97	1	136	135	134	143
98	16	55	49	48	58
99	18	52	51	50	53
99	19	52	51	50	53
99	20	52	51	50	53
100	16	113	88	87	114
101	9	91	92	93	102
102	9	130	129	128	154
103	16	101	94	93	102
104	9	42	41	40	73
105	16	79	37	36	82
106	9	93	92	91	107
107	9	134	133	132	146
108	16	150	130	129	153
109	9	2	3	4	27
110	16	76	39	38	78
111	16	163	124	123	165
112	16	115	87	86	117
113	14	11	12	33	35
114	16	29	3	2	32
115	16	162	124	123	165
116	21	52	51	118	120
117	9	132	133	134	142
118	16	82	36	35	83
119	16	109	90	89	111
120	9	129	130	131	148
121	16	156	127	126	159
122	9	43	44	45	63
123	16	58	48	47	59
124	16	153	129	128	154
125	4	1	85	86	87
126	16	103	93	92	105
127	9	47	48	49	55
128	16	98	95	94	101
129	16	147	132	131	148
130	9	126	127	128	154
131	9	36	37	38	77
132	16	140	135	134	143
133	9	37	38	39	75
134	9	88	89	90	109
135	16	15	10	9	18
136	6	39	40	41	42
136	7	39	40	41	42
136	8	39	40	41	42
137	9	7	8	9	17
138	6	6	7	8	9
138	7	6	7	8	9
138	8	6	7	8	9
139	16	54	50	49	56
140	24	97	96	95	99
141	9	92	93	94	100
142	15	134	135	136	138
143	9	35	36	37	80
144	9	133	134	135	141
145	9	10	9	8	19
146	16	77	38	37	79
147	9	3	4	5	26
148	6	132	133	134	135
148	7	132	133	134	135
148	8	132	133	134	135
149	17	119	118	120	121
150	9	132	131	130	150
151	9	46	45	44	65
152	9	4	5	6	24
153	2	85	86	87	114
153	3	85	86	87	114
154	9	43	42	41	71
155	1	118	120	121	168
156	16	142	134	133	144
157	9	44	45	46	62
158	9	126	125	124	162
159	18	137	136	135	141
159	19	137	136	135	141
159	20	137	136	135	141
160	9	48	49	50	54
161	15	12	33	35	36
162	9	37	36	35	83
163	9	88	87	86	117
164	6	36	37	38	39
164	7	36	37	38	39
164	8	36	37	38	39
165	16	65	44	43	67
166	16	69	42	41	71
167	16	166	122	121	169
168	16	62	46	45	64
169	6	45	46	47	48
169	7	45	46	47	48
169	8	45	46	47	48
170	15	51	118	120	121
171	6	3	4	5	6
171	7	3	4	5	6
171	8	3	4	5	6
172	9	11	10	9	17
173	16	61	46	45	63
174	9	127	128	129	152
175	9	41	42	43	67
176	9	9	10	11	13
177	16	19	8	7	22
178	16	55	49	48	57
179	6	90	91	92	93
179	7	90	91	92	93
179	8	90	91	92	93
180	9	44	43	42	70
181	16	26	5	4	28
182	4	3	2	1	85
183	1	51	50	49	56
184	9	121	122	123	164
185	9	93	92	91	106
186	16	78	38	37	80
187	9	48	47	46	62
188	16	76	39	38	77
189	16	163	124	123	164
190	16	106	91	90	108
191	12	11	12	33	34
191	13	11	12	33	34
192	16	29	3	2	31
193	16	70	42	41	71
194	15	53	50	51	118
195	16	112	88	87	115
196	16	109	90	89	110
197	9	8	7	6	24
198	16	156	127	126	158
199	9	5	4	3	29
200	16	103	93	92	104
201	16	59	47	46	61
202	9	128	129	130	151
203	9	7	6	5	26
204	9	42	43	44	66
205	16	168	121	120	171
206	6	91	92	93	94
206	7	91	92	93	94
206	8	91	92	93	94
207	9	39	40	41	72
208	16	140	135	134	142
209	9	124	123	122	167
210	9	38	37	36	82
211	16	155	128	127	156
212	9	125	124	123	165
213	9	135	134	133	144
214	16	15	10	9	17
215	16	57	48	47	60
216	24	97	96	95	98
217	9	35	36	37	79
218	9	133	134	135	140
219	15	138	136	135	140
220	9	3	4	5	25
221	16	165	123	122	166
222	6	86	87	88	89
222	7	86	87	88	89
222	8	86	87	88	89
223	9	95	94	93	103
224	16	80	37	36	82
225	9	4	5	6	23
226	6	43	44	45	46
226	7	43	44	45	46
226	8	43	44	45	46
227	6	41	42	43	44
227	7	41	42	43	44
227	8	41	42	43	44
228	9	130	131	132	146
229	9	44	45	46	61
230	4	14	11	12	33
231	16	72	41	40	74
232	18	119	118	120	171
232	19	119	118	120	171
232	20	119	118	120	171
233	18	137	136	135	140
233	19	137	136	135	140
233	20	137	136	135	140
234	9	48	49	50	53
235	9	9	8	7	22
236	16	143	134	133	145
237	9	88	87	86	116
238	16	66	44	43	68
239	16	105	92	91	107
240	16	166	122	121	168
241	9	89	90	91	107
242	9	133	132	131	149
243	9	47	46	45	64
244	9	86	87	88	113
245	16	99	95	94	101
246	16	73	40	39	75
247	15	49	50	51	118
248	9	127	126	125	161
249	9	41	40	39	76
250	15	51	118	120	171
251	9	44	43	42	69
252	16	26	5	4	27
253	9	122	121	120	171
254	16	167	122	121	169
255	16	14	11	10	16
256	16	78	38	37	79
257	16	56	49	48	58
258	9	48	47	46	61
259	16	21	7	6	24
260	9	131	132	133	145
261	9	89	88	87	115
262	4	1	85	86	116
263	9	46	47	48	57
264	16	112	88	87	114
265	9	93	94	95	99
266	6	4	5	6	7
266	7	4	5	6	7
266	8	4	5	6	7
267	16	74	40	39	76
268	9	8	7	6	23
269	16	104	92	91	107
270	16	145	133	132	147
271	9	6	5	4	28
272	15	12	33	35	83
273	9	128	129	130	150
274	16	157	127	126	159
275	9	125	126	127	156
276	9	39	40	41	71
277	9	124	123	122	166
278	16	23	6	5	26
279	9	8	9	10	16
280	16	151	130	129	153
281	16	108	90	89	111
282	9	4	3	2	32
283	16	18	9	8	19
284	16	25	5	4	28
285	16	159	126	125	160
286	16	141	135	134	143
287	9	131	130	129	153
288	6	7	8	9	10
288	7	7	8	9	10
288	8	7	8	9	10
289	9	45	44	43	68
290	16	16	10	9	17
291	16	148	131	130	150
292	9	95	94	93	102
293	6	35	36	37	38
293	7	35	36	37	38
293	8	35	36	37	38
294	16	80	37	36	81
295	16	110	89	88	112
296	9	49	48	47	60
297	6	129	130	131	132
297	7	129	130	131	132
297	8	129	130	131	132
298	6	127	128	129	130
298	7	127	128	129	130
298	8	127	128	129	130
299	16	75	39	38	78
300	16	72	41	40	73
301	16	13	11	10	15
302	16	146	132	131	149
303	16	24	6	5	26
304	6	88	89	90	91
304	7	88	89	90	91
304	8	88	89	90	91
305	16	66	44	43	67
306	6	126	127	128	129
306	7	126	127	128	129
306	8	126	127	128	129
307	9	133	132	131	148
308	9	86	87	88	112
309	16	99	95	94	100
310	16	169	121	120	171
311	15	54	50	51	118
312	1	93	94	95	96
313	9	40	39	38	78
314	1	136	135	134	142
315	9	127	126	125	160
316	16	161	125	124	163
317	2	96	95	94	101
317	3	96	95	94	101
318	6	47	48	49	50
318	7	47	48	49	50
318	8	47	48	49	50
319	16	27	4	3	30
320	18	34	33	35	84
320	19	34	33	35	84
320	20	34	33	35	84
321	1	33	35	36	82
322	16	107	91	90	109
323	16	79	37	36	81
324	16	14	11	10	15
325	16	56	49	48	57
326	16	150	130	129	152
327	25	135	136	138	139
328	16	21	7	6	23
329	9	120	121	122	167
330	16	144	133	132	147
331	16	115	87	86	116
332	6	92	93	94	95
332	7	92	93	94	95
332	8	92	93	94	95
333	16	162	124	123	164
334	9	89	88	87	114
335	21	52	51	118	119
336	1	133	134	135	136
337	9	124	125	126	159
338	16	104	92	91	106
339	9	87	88	89	111
340	9	6	5	4	27
341	16	68	43	42	70
342	4	31	2	1	85
343	16	67	43	42	70
344	16	98	95	94	100
345	16	113	88	87	115
346	9	91	92	93	103
347	9	128	127	126	159
348	9	42	41	40	74
349	16	63	45	44	66
350	9	88	89	90	108
351	26	137	136	138	139
351	27	137	136	138	139
352	16	158	126	125	161
353	16	23	6	5	25
354	9	8	9	10	15
355	16	151	130	129	152
356	16	25	5	4	27
357	16	54	50	49	55
358	17	134	135	136	137
359	16	141	135	134	142
360	6	125	126	127	128
360	7	125	126	127	128
360	8	125	126	127	128
361	9	131	130	129	152
362	16	60	47	46	62
363	6	46	47	48	49
363	7	46	47	48	49
363	8	46	47	48	49
364	9	129	130	131	149
365	16	17	9	8	20
366	9	122	123	124	163
367	9	36	37	38	78
368	16	75	39	38	77
369	9	91	90	89	111
370	9	123	124	125	161
371	16	111	89	88	113
372	16	71	41	40	74
373	16	24	6	5	25
374	18	34	33	35	83
374	19	34	33	35	83
374	20	34	33	35	83
375	9	50	49	48	58
376	16	62	46	45	63
377	6	122	123	124	125
377	7	122	123	124	125
377	8	122	123	124	125
378	16	169	121	120	170
379	6	131	132	133	134
379	7	131	132	133	134
379	8	131	132	133	134
380	9	132	131	130	151
381	2	85	86	87	115
381	3	85	86	87	115
382	9	129	128	127	157
383	9	43	42	41	72
384	1	9	10	11	12
385	16	19	8	7	21
386	16	161	125	124	162
387	2	96	95	94	100
387	3	96	95	94	100
388	1	33	35	36	81
389	9	126	125	124	163
390	1	51	50	49	55
391	9	123	122	121	169
392	9	45	46	47	60
393	1	118	120	121	122
394	6	37	38	39	40
394	7	37	38	39	40
394	8	37	38	39	40
395	16	144	133	132	146
396	16	64	45	44	66
397	6	2	3	4	5
397	7	2	3	4	5
397	8	2	3	4	5
398	17	34	33	35	36
399	16	22	7	6	24
400	9	127	128	129	153
401	2	12	11	10	16
401	3	12	11	10	16
402	16	67	43	42	69
403	9	90	91	92	105
404	6	87	88	89	90
404	7	87	88	89	90
404	8	87	88	89	90
405	9	7	6	5	25
406	9	42	43	44	65
407	1	1	2	3	4
408	1	85	86	87	88
409	16	168	121	120	170
410	6	44	45	46	47
410	7	44	45	46	47
410	8	44	45	46	47
411	9	37	36	35	84
412	22	94	95	96	97
412	23	94	95	96	97
413	6	42	43	44	45
413	7	42	43	44	45
413	8	42	43	44	45
414	16	114	87	86	117
415	9	128	127	126	158
416	9	121	122	123	165
417	9	38	37	36	81
418	16	63	45	44	65
419	16	158	126	125	160
420	9	125	124	123	164
421	16	57	48	47	59
422	16	106	91	90	109
423	9	6	7	8	20
424	16	28	4	3	30
425	16	60	47	46	61
426	16	70	42	41	72
427	9	40	41	42	70
428	16	100	94	93	103
429	9	5	4	3	30
430	16	102	93	92	105
431	16	59	47	46	62
432	6	120	121	122	123
432	7	120	121	122	123
432	8	120	121	122	123
433	9	90	89	88	113
434	16	152	129	128	155
435	16	17	9	8	19
436	9	122	123	124	162
437	16	53	50	49	56
438	9	91	90	89	110
439	18	119	118	120	170
439	19	119	118	120	170
439	20	119	118	120	170
440	9	123	124	125	160
441	16	111	89	88	112
442	9	9	8	7	21
443	9	94	93	92	105
444	16	155	128	127	157
445	16	71	41	40	73
446	16	143	134	133	144
447	9	135	134	133	145
448	9	50	49	48	57
449	16	105	92	91	106
450	9	39	38	37	80
451	16	149	131	130	151
452	9	89	90	91	106
453	9	47	46	45	63
454	15	138	136	135	141
455	21	50	51	118	120
456	10	10	11	12	33
456	11	10	11	12	33
457	16	165	123	122	167
458	16	164	123	122	167
459	16	81	36	35	84
460	2	1	2	3	30
460	3	1	2	3	30
461	6	40	41	42	43
461	7	40	41	42	43
461	8	40	41	42	43
462	9	129	128	127	156
463	6	38	39	40	41
463	7	38	39	40	41
463	8	38	39	40	41
464	9	5	6	7	22
465	9	41	40	39	75
466	15	51	118	120	170
467	9	130	131	132	147
468	16	160	125	124	163
469	9	122	121	120	170
470	16	167	122	121	168
471	16	30	3	2	32
472	16	20	8	7	22
473	9	123	122	121	168
474	6	8	9	10	11
474	7	8	9	10	11
474	8	8	9	10	11
475	9	92	91	90	109
476	9	131	132	133	144
477	9	45	46	47	59

Impropers

32	2	118	119	120	51
270	1	136	135	137	138
353	2	118	120	51	119
645	1	136	137	138	135
659	2	51	52	118	50
665	1	33	34	35	12
998	1	33	35	12	34
1014	1	136	138	135	137
1094	1	33	12	34	35
1096	2	118	51	119	120
1220	2	51	118	50	52
1245	2	51	50	52	118
