Title

11375 atoms
11750 bonds
23125 angles
47125 dihedrals
1500 impropers

8 atom types
11 bond types
5 angle types
27 dihedral types
2 improper types
-5.683599949 94.31640005 xlo xhi
-6.142700195 93.8572998 ylo yhi
-6.293300152 93.70669985 zlo zhi
0.0 0.0 0.0 xy xz yz

Masses

1	15.99943
2	12.01078
3	1.007947
4	1.007947
5	12.01078
6	15.99943
7	15.99943
8	1.007947


Pair Coeffs

1	0.16846514	3.0251065
2	0.10884061	3.3795318
3	0.015779483	2.6445434
4	0.016409246	2.5832257
5	0.086879315	3.4806469
6	0.2102061	3.0398122
7	0.20947353	2.99716
8	1.2326e-05	0.53453923

Bond Coeffs

1 harmonic	366.7408841747	1.425895053732
2 harmonic	300.03137914615	1.451203938761
3 harmonic	264.62148576755	1.52190126495
4 harmonic	370.04670688625	1.093899492634
5 harmonic	301.15400723785	1.345741232799
6 harmonic	582.698766451	1.225198386222
7 harmonic	329.44145381095	1.523435958334
8 harmonic	279.1350963404	1.454628925034
9 harmonic	329.96998057905	1.427343958716
10 harmonic	543.5267831885	0.9716763312559
11 harmonic	385.7604595587	1.369745182308


Angle Coeffs

1 harmonic	53.20531626545	116.5475862634
2 harmonic	65.09061609600001	110.3538806181
3 harmonic	48.776492647595	115.6030999533
4 harmonic	201.41175231035	127.4691416191
5 harmonic	57.8982893754	126.8062420451


Dihedral Coeffs

1 fourier 1	0.1115525666802	3	0
2 fourier 1	0.3432490222662	1	0
3 fourier 1	0.1155372516788	3	0
4 fourier 1	0.0473758381877	3	0
5 fourier 1	0.457973137376	1	0
6 fourier 1	0.1040663847541	3	0
7 fourier 1	0.09223874044423	3	0
8 fourier 1	0.3159935921949	2	180
9 fourier 1	0.3247796806857	1	180
10 fourier 1	0.1911926717192	3	0
11 fourier 1	0.1918272375143	3	0
12 fourier 1	0.9202179876409	1	180
13 fourier 1	1.163809172478	2	180
14 fourier 1	0.1679186987369	1	180
15 fourier 1	2.779853741805	2	180
16 fourier 1	0.02664938770063	3	0
17 fourier 1	0.4541676554336	1	0
18 fourier 1	0.1489710476446	2	0
19 fourier 1	0.02960027280666	3	180
20 fourier 1	-0.3703352413219	2	0
21 fourier 1	0.9974165607242	2	180
22 fourier 1	0.3445382149273	3	0
23 fourier 1	0.1364556373303	1	0
24 fourier 1	0.3026390167484	3	0
25 fourier 1	2.687457892086	2	180
26 fourier 1	2.772607909663	2	180
27 fourier 1	0.09692684957115	1	0


Improper Coeffs

1 3.5	-1	2
2 0.3666666666666667	-1	2


Atoms

1	4	1	-0.154956	1.2623	3.3612001	-5.1803002
2	4	2	0.014841	0.4939	3.6496999	-4.0432
3	4	2	-0.074804999	0.13590001	2.3591001	-3.2801001
4	4	3	0.083659999	1.0918	1.886	-2.9607
5	4	2	-0.166711	-0.66720003	2.6775	-1.9892
6	4	3	0.089565001	-0.42320001	3.6933	-1.6068
7	4	3	0.089565001	-0.37450001	1.9603	-1.1912
8	4	2	-0.16711999	-2.1810999	2.5662999	-2.21
9	4	3	0.088926002	-2.7098	2.8750999	-1.2825
10	4	3	0.088926002	-2.4748001	3.2923999	-2.9997001
11	4	2	-0.075319998	-2.6036	1.1359	-2.6500001
12	4	2	0.104018	-3.0906	0.29499999	-1.4577
13	4	1	-0.471201	-4.2649002	0.84740001	-0.92640001
14	4	4	0.090292998	-2.3023	0.25740001	-0.67320001
15	4	4	0.090292998	-3.3017001	-0.74339998	-1.7988
16	4	3	0.080844998	-3.4602001	1.244	-3.3529
17	4	2	-0.16711999	-1.474	0.38820001	-3.4033999
18	4	3	0.088926002	-1.9216	-0.36250001	-4.0910001
19	4	3	0.088926002	-0.82099998	-0.16060001	-2.6884999
20	4	2	-0.166711	-0.60390002	1.3584	-4.2075
21	4	3	0.089565001	-1.2555	1.8992	-4.9294
22	4	3	0.089565001	0.1411	0.78079998	-4.7972999
23	4	4	0.090875	-0.43560001	4.1683002	-4.3631001
24	4	4	0.090875	1.0539	4.3467002	-3.3787
25	5	5	0.69810998	-4.5271001	0.2467	-0.1202
26	5	6	-0.52775699	-5.6835999	-0.12890001	-0.0054000001
27	5	2	-0.15242399	-3.4832001	-0.1437	0.8926
28	5	3	0.1285	-2.5309999	0.34990001	0.59299999
29	5	2	-0.131458	-3.8571999	0.36989999	2.2932
30	5	3	0.095968999	-4.7923002	-0.1318	2.6287999
31	5	3	0.095968999	-4.0570002	1.4637001	2.2574999
32	5	2	-0.107637	-2.7395999	0.095399998	3.3222001
33	5	3	0.088376001	-3.217	-0.0328	4.3189998
34	5	3	0.088376001	-2.0785	0.98680001	3.3901
35	5	2	-0.220404	-1.8674999	-1.1357	2.9698
36	5	5	0.49355099	-1.2165	-1.7099	4.2007999
37	5	6	-0.65797299	-1.8901	-2.1903	5.0994
38	5	3	0.108475	-1.0516	-0.80299997	2.2893
39	5	2	-0.107637	-2.6861999	-2.2074001	2.2298
40	5	3	0.088376001	-3.5281	-2.5369999	2.8787
41	5	3	0.088376001	-2.0517001	-3.0983	2.0249
42	5	2	-0.131458	-3.2553999	-1.6763	0.89590001
43	5	3	0.095968999	-4.2059002	-2.2165	0.69080001
44	5	3	0.095968999	-2.5525999	-1.9302	0.073100001
45	1	1	-0.154956	2.1723001	3.1322999	-4.8582001
46	1	2	0.014841	2.0908	1.8444	-4.3085999
47	1	2	-0.074804999	1.3767	1.8733	-2.9423001
48	1	3	0.083659999	0.34650001	2.2595	-3.1152
49	1	2	-0.165925	1.2329	0.44229999	-2.3563001
50	1	3	0.089565001	1.2041	-0.32100001	-3.1644001
51	1	3	0.089565001	0.26570001	0.3653	-1.8128999
52	1	2	-0.158859	2.3654001	0.1049	-1.3782001
53	1	3	0.089565001	2.2606001	-0.94989997	-1.0459
54	1	3	0.089565001	3.3320999	0.17	-1.9236
55	1	2	-0.11625	2.3993001	1.0775	-0.16500001
56	1	2	0.077036001	1.6716	0.48789999	1.0553
57	1	7	-0.67630601	2.3452001	-0.65109998	1.515
58	1	8	0.37401801	1.821	-0.99000001	2.2864001
59	1	4	0.079031996	0.62470001	0.2237	0.78119999
60	1	4	0.079031996	1.6432	1.2460001	1.8712
61	1	3	0.087334998	3.4668	1.2168	0.1207
62	1	2	-0.158859	1.8217	2.4746001	-0.50770003
63	1	3	0.089565001	2.2799001	3.2379	0.1586
64	1	3	0.089565001	0.72219998	2.4983001	-0.3364
65	1	2	-0.165925	2.0917001	2.8459001	-1.9682
66	1	3	0.089565001	3.1926	2.8327	-2.1359
67	1	3	0.089565001	1.7387	3.8838	-2.1544001
68	1	4	0.090875	3.1201	1.443	-4.1865001
69	1	4	0.090875	1.5499001	1.17	-5.0116
70	2	5	0.49355	-0.1356	-1.7034	4.2909999
71	2	6	-0.657974	0.37369999	-1.5064	5.3834
72	2	2	-0.220404	0.71710002	-1.9461	3.0732999
73	2	3	0.108475	0.028200001	-2.138	2.2200999
74	2	2	-0.107637	1.573	-0.69880003	2.7348001
75	2	3	0.088376001	0.94599998	0.0106	2.1522
76	2	3	0.088376001	1.8857	-0.171	3.6626999
77	2	2	-0.126636	2.8464	-1.0308	1.9277
78	2	3	0.095968999	3.0961001	-0.1682	1.2701
79	2	3	0.095968999	3.6966	-1.1739	2.632
80	2	2	-0.17300799	2.671	-2.3037	1.0809
81	2	5	0.76756001	3.8727	-2.5441	0.2095
82	2	6	-0.52959102	5.0261998	-2.6070001	0.71380001
83	2	7	-0.64938301	3.7075	-2.7191	-1.161
84	2	8	0.39486	4.5043001	-2.8899	-1.7632
85	2	3	0.130758	1.795	-2.1435001	0.41209999
86	2	2	-0.126636	2.3834	-3.5366001	1.9730999
87	2	3	0.095968999	3.3313999	-4.0331001	2.2750001
88	2	3	0.095968999	1.8045	-4.2758999	1.3756
89	2	2	-0.107637	1.5965	-3.1947	3.2574
90	2	3	0.088376001	0.96630001	-4.0665002	3.5397999
91	2	3	0.088376001	2.3157001	-3.0163	4.0874
92	4	1	-0.154956	-2.2137001	-5.5742002	14.5434
93	4	2	0.014841	-1.4574	-4.5906	15.1969
94	4	2	-0.074804999	-0.80049998	-3.6364999	14.1799
95	4	3	0.083659999	-1.62	-3.1436999	13.6095
96	4	2	-0.166711	-0.0077	-2.5114999	14.8999
97	4	3	0.089565001	-0.43200001	-2.3052001	15.9074
98	4	3	0.089565001	-0.102	-1.5687	14.3177
99	4	2	-0.16711999	1.482	-2.8517001	15.0344
100	4	3	0.088926002	1.9881001	-2.0538001	15.6195
101	4	3	0.088926002	1.576	-3.7881999	15.6271
102	4	2	-0.075319998	2.1622	-3.0534999	13.6507
103	4	2	0.104018	2.8775001	-1.7768	13.1773
104	4	1	-0.471201	3.9423001	-1.4739	14.038
105	4	4	0.090292998	2.1593001	-0.92720002	13.1515
106	4	4	0.090292998	3.2767	-1.9354	12.1503
107	4	3	0.080844998	2.9375	-3.8431001	13.7737
108	4	2	-0.16711999	1.1684	-3.5411	12.5657
109	4	3	0.088926002	1.7203	-4.1150999	11.7894
110	4	3	0.088926002	0.68290001	-2.6765001	12.0603
111	4	2	-0.166711	0.074299999	-4.4259	13.1699
112	4	3	0.089565001	0.55980003	-5.2958002	13.6659
113	4	3	0.089565001	-0.56900001	-4.8225002	12.3542
114	4	4	0.090875	-0.67299998	-5.0899	15.8059
115	4	4	0.090875	-2.1094	-4.0183001	15.8957
116	5	5	0.69810998	4.3670001	-0.59810001	13.6743
117	5	6	-0.52775699	5.5804	-0.52630001	13.5555
118	5	2	-0.15242399	3.4839001	0.5654	13.3077
119	5	3	0.1285	2.4354999	0.2712	13.5409
120	5	2	-0.131458	3.8238001	1.802	14.1564
121	5	3	0.095968999	4.8590999	2.1347001	13.9195
122	5	3	0.095968999	3.7936001	1.5424	15.2378
123	5	2	-0.107637	2.8459001	2.9667001	13.8905
124	5	3	0.088376001	3.3951001	3.9193001	14.0603
125	5	3	0.088376001	2.0216	2.9289999	14.6357
126	5	2	-0.220404	2.2253001	2.9372001	12.4714
127	5	5	0.49355099	1.7761	4.3108001	12.0468
128	5	6	-0.65797299	2.5834	5.2149	11.8952
129	5	3	0.108475	1.3213	2.2878001	12.4984
130	5	2	-0.107637	3.2024	2.3368001	11.4462
131	5	3	0.088376001	4.1293001	2.9521999	11.4206
132	5	3	0.088376001	2.7527001	2.3647001	10.4287
133	5	2	-0.131458	3.5746	0.87849998	11.793
134	5	3	0.095968999	4.6023002	0.68830001	11.412
135	5	3	0.095968999	2.8931	0.1893	11.2489
136	1	1	-0.154956	-3.0380001	-5.1290998	14.2169
137	1	2	0.014841	-2.664	-4.3576999	13.1066
138	1	2	-0.074804999	-1.8947001	-3.096	13.5472
139	1	3	0.083659999	-0.97659999	-3.4363999	14.0778
140	1	2	-0.165925	-1.4287	-2.2681	12.3187
141	1	3	0.089565001	-1.2903	-2.9173	11.4266
142	1	3	0.089565001	-0.43700001	-1.8152	12.538
143	1	2	-0.158859	-2.4110999	-1.14	11.9792
144	1	3	0.089565001	-2.0743999	-0.62699997	11.0532
145	1	3	0.089565001	-3.4000001	-1.5926	11.7481
146	1	2	-0.11625	-2.5741999	-0.1336	13.1537
147	1	2	0.077036001	-1.6734999	1.1002001	12.9729
148	1	7	-0.67630601	-2.0731001	1.8282	11.8447
149	1	8	0.37401801	-1.4479001	2.5955999	11.775
150	1	4	0.079031996	-0.61199999	0.7816	12.8613
151	1	4	0.079031996	-1.7544	1.7525001	13.8724
152	1	3	0.087334998	-3.6298001	0.2219	13.1438
153	1	2	-0.158859	-2.3146	-0.78649998	14.5355
154	1	3	0.089565001	-2.8806	-0.23469999	15.3175
155	1	3	0.089565001	-1.2352	-0.72899997	14.8009
156	1	2	-0.165925	-2.7370999	-2.2579999	14.5443
157	1	3	0.089565001	-3.8197	-2.3139	14.2894
158	1	3	0.089565001	-2.6147001	-2.6689	15.5703
159	1	4	0.090875	-3.5811	-4.0640998	12.5512
160	1	4	0.090875	-2.0374999	-4.9699001	12.4182
161	2	5	0.49355	0.72350001	4.5015001	11.8669
162	2	6	-0.657974	0.2474	5.5811	12.1819
163	2	2	-0.220404	-0.12909999	3.4386001	11.2252
164	2	3	0.108475	0.53500003	2.5746	10.9976
165	2	2	-0.107637	-1.2395999	2.9554999	12.1927
166	2	3	0.088376001	-0.80479997	2.1925001	12.8745
167	2	3	0.088376001	-1.6005	3.7932999	12.8293
168	2	2	-0.126636	-2.4619999	2.3510001	11.469
169	2	3	0.095968999	-2.9195001	1.5700999	12.1168
170	2	3	0.095968999	-3.2237	3.1479001	11.314
171	2	2	-0.17300799	-2.0783999	1.7457	10.1072
172	2	5	0.76756001	-3.253	1.0543	9.4720001
173	2	6	-0.52959102	-4.3388	1.6698	9.2959995
174	2	7	-0.64938301	-3.1334	-0.2683	9.0565004
175	2	8	0.39486	-3.9112	-0.74849999	8.6194
176	2	3	0.130758	-1.2929	0.97780001	10.2908
177	2	2	-0.126636	-1.4949	2.8218999	9.1583996
178	2	3	0.095968999	-2.3027999	3.3011999	8.5635996
179	2	3	0.095968999	-0.81190002	2.3211999	8.4363003
180	2	2	-0.107637	-0.72310001	3.9375	9.8968
181	2	3	0.088376001	0.086999997	4.3168998	9.2357998
182	2	3	0.088376001	-1.4153	4.7842999	10.1009
183	4	1	-0.154956	-0.2069	0.6261	18.943199
184	4	2	0.014841	-0.091600001	-0.50330001	19.7663
185	4	2	-0.074804999	0.3576	-0.105	21.1861
186	4	3	0.083659999	-0.42309999	0.5697	21.604401
187	4	2	-0.166711	0.43239999	-1.3458	22.1175
188	4	3	0.089565001	-0.27200001	-2.1394999	21.783701
189	4	3	0.089565001	0.1157	-1.0522	23.142401
190	4	2	-0.16711999	1.8513	-1.9236	22.195
191	4	3	0.088926002	1.8365	-2.8487999	22.8104
192	4	3	0.088926002	2.1626	-2.2279999	21.1714
193	4	2	-0.075319998	2.8724	-0.8919	22.752701
194	4	2	0.104018	3.1110001	-1.0861	24.2598
195	4	1	-0.471201	3.7197001	-2.3273001	24.495001
196	4	4	0.090292998	2.1438	-1.03	24.807199
197	4	4	0.090292998	3.779	-0.2789	24.635799
198	4	3	0.080844998	3.8422	-1.0719	22.236401
199	4	2	-0.16711999	2.4551001	0.57270002	22.463699
200	4	3	0.088926002	3.3622999	1.2146	22.4223
201	4	3	0.088926002	1.8052	0.96429998	23.277901
202	4	2	-0.166711	1.6934	0.68379998	21.1399
203	4	3	0.089565001	2.3476	0.30199999	20.324699
204	4	3	0.089565001	1.4833	1.7546	20.9261
205	4	4	0.090875	0.6512	-1.1976	19.3172
206	4	4	0.090875	-1.0675	-1.039	19.807699
207	5	5	0.69810998	3.8347001	-2.4015	25.525
208	5	6	-0.52775699	4.9071999	-2.7650001	25.9825
209	5	2	-0.15242399	2.6801	-2.0678	26.4326
210	5	3	0.1285	1.814	-1.8061	25.7834
211	5	2	-0.131458	2.2787001	-3.2857001	27.281601
212	5	3	0.095968999	3.1187999	-3.5497999	27.9622
213	5	3	0.095968999	2.0901999	-4.1633	26.624399
214	5	2	-0.107637	1.0152	-3.0065	28.123699
215	5	3	0.088376001	1.0786	-3.6214001	29.048901
216	5	3	0.088376001	0.1192	-3.3525	27.5637
217	5	2	-0.220404	0.82690001	-1.5089999	28.472799
218	5	5	0.49355099	-0.0139	-1.342	29.711399
219	5	6	-0.65797299	0.37580001	-1.7539001	30.793301
220	5	3	0.108475	0.28080001	-1.0204	27.6346
221	5	2	-0.107637	2.1812999	-0.79629999	28.6273
222	5	3	0.088376001	2.7609999	-1.2853	29.4419
223	5	3	0.088376001	2.0225999	0.26570001	28.9193
224	5	2	-0.131458	3.007	-0.84249997	27.322901
225	5	3	0.095968999	4.0844002	-0.83279997	27.599899
226	5	3	0.095968999	2.8134999	0.0814	26.7362
227	1	1	-0.154956	-1.0326999	1.0992	19.223301
228	1	2	0.014841	-0.73769999	1.735	20.4384
229	1	2	-0.074804999	-0.66960001	0.7137	21.5916
230	1	3	0.083659999	0.1472	-0.0041	21.350401
231	1	2	-0.165925	-0.28670001	1.4049	22.928499
232	1	3	0.089565001	0.31349999	2.3232999	22.7477
233	1	3	0.089565001	0.3549	0.71899998	23.524
234	1	2	-0.158859	-1.5215	1.761	23.766001
235	1	3	0.089565001	-1.2015001	2.3178999	24.672501
236	1	3	0.089565001	-2.1579001	2.4561999	23.176201
237	1	2	-0.11625	-2.3555	0.50330001	24.1422
238	1	2	0.077036001	-2.0076001	-0.0076000001	25.5509
239	1	7	-0.67630601	-2.3743	0.94239998	26.512899
240	1	8	0.37401801	-2.1111	0.56260002	27.3911
241	1	4	0.079031996	-0.9152	-0.21430001	25.620199
242	1	4	0.079031996	-2.5602	-0.95469999	25.747999
243	1	3	0.087334998	-3.4274001	0.80549997	24.1542
244	1	2	-0.158859	-2.2046001	-0.64060003	23.106899
245	1	3	0.089565001	-3.1168001	-1.2763	23.122601
246	1	3	0.089565001	-1.3391	-1.2916	23.3636
247	1	2	-0.165925	-1.9928	-0.089100003	21.6945
248	1	3	0.089565001	-2.8645	0.55339998	21.434299
249	1	3	0.089565001	-1.9726	-0.93260002	20.970301
250	1	4	0.090875	-1.5287	2.4872	20.6485
251	1	4	0.090875	0.2291	2.2818999	20.3507
252	2	5	0.49355	-0.97570002	-0.8448	29.6462
253	2	6	-0.657974	-1.9045	-1.2438	30.3316
254	2	2	-0.220404	-1.1474	0.33160001	28.7215
255	2	3	0.108475	-0.1601	0.52429998	28.244699
256	2	2	-0.107637	-2.1731999	0.0162	27.6029
257	2	3	0.088376001	-1.6519001	-0.54100001	26.794399
258	2	3	0.088376001	-2.9825001	-0.64459997	27.984501
259	2	2	-0.126636	-2.8343	1.2767	27.005199
260	2	3	0.095968999	-3.0857999	1.0849	25.938101
261	2	3	0.095968999	-3.7872	1.4780999	27.5443
262	2	2	-0.17300799	-1.9197	2.5092001	27.116199
263	2	5	0.76756001	-2.5257001	3.6973	26.4216
264	2	6	-0.52959102	-3.6874001	4.0871	26.717199
265	2	7	-0.64938301	-1.7903	4.3839998	25.460501
266	2	8	0.39486	-2.1787	5.1915002	24.9874
267	2	3	0.130758	-0.96439999	2.2658	26.5982
268	2	2	-0.126636	-1.6009001	2.8406999	28.5952
269	2	3	0.095968999	-2.3599	3.5366001	29.014601
270	2	3	0.095968999	-0.62040001	3.3659999	28.634501
271	2	2	-0.107637	-1.5453	1.5941	29.505199
272	2	3	0.088376001	-0.81879997	1.777	30.327299
273	2	3	0.088376001	-2.5448	1.4373	29.9681
274	4	1	-0.154956	4.7195001	-2.3241	41.2887
275	4	2	0.014841	4.0051999	-2.8573	40.2061
276	4	2	-0.074804999	2.6779001	-2.1015	39.997898
277	4	3	0.083659999	2.9310999	-1.04	39.7771
278	4	2	-0.166711	1.909	-2.6510999	38.765301
279	4	3	0.089565001	2.6089001	-3.0908999	38.020802
280	4	3	0.089565001	1.3906	-1.8103	38.254101
281	4	2	-0.16711999	0.86070001	-3.6989999	39.160099
282	4	3	0.088926002	0.3933	-4.1132998	38.240898
283	4	3	0.088926002	1.3814	-4.5450001	39.660599
284	4	2	-0.075319998	-0.2115	-3.1178999	40.124901
285	4	2	0.104018	-1.4772	-2.6781001	39.369598
286	4	1	-0.471201	-2.1061001	-3.7915001	38.7943
287	4	4	0.090292998	-1.2099	-1.9439	38.577202
288	4	4	0.090292998	-2.1823001	-2.1919	40.080601
289	4	3	0.080844998	-0.50709999	-3.9333	40.822899
290	4	2	-0.16711999	0.3326	-1.9457999	40.980999
291	4	3	0.088926002	-0.2385	-1.8868999	41.933399
292	4	3	0.088926002	0.1991	-0.97649997	40.4506
293	4	2	-0.166711	1.8211	-2.1271999	41.291698
294	4	3	0.089565001	1.9526	-3.0913999	41.831402
295	4	3	0.089565001	2.1554	-1.3144	41.9729
296	4	4	0.090875	3.7995999	-3.9307001	40.408199
297	4	4	0.090875	4.6269999	-2.8039999	39.283199
298	5	5	0.69810998	-2.9361999	-3.4245	38.288502
299	5	6	-0.52775699	-4.0162001	-3.9765	38.431702
300	5	2	-0.15242399	-2.7932999	-2.2274001	37.385899
301	5	3	0.1285	-1.7187999	-1.9351	37.391899
302	5	2	-0.131458	-3.1749001	-2.5816	35.938801
303	5	3	0.095968999	-4.2544999	-2.8494999	35.9006
304	5	3	0.095968999	-2.5964999	-3.4686999	35.598099
305	5	2	-0.107637	-2.9115	-1.4069999	34.972198
306	5	3	0.088376001	-3.6477001	-1.4772	34.1408
307	5	3	0.088376001	-1.9011	-1.5231	34.522999
308	5	2	-0.220404	-2.9874001	-0.0188	35.655701
309	5	5	0.49355099	-3.3057001	1.0618	34.6558
310	5	6	-0.65797299	-4.3730001	1.0709	34.061699
311	5	3	0.108475	-1.9875	0.214	36.086498
312	5	2	-0.107637	-4.0054002	-0.018300001	36.808899
313	5	3	0.088376001	-5.0110998	-0.27759999	36.408901
314	5	3	0.088376001	-4.0742002	0.99809998	37.256802
315	5	2	-0.131458	-3.6248	-1.0304	37.911701
316	5	3	0.095968999	-4.5647998	-1.3835	38.390598
317	5	3	0.095968999	-3.0353999	-0.50929999	38.696899
318	1	1	-0.154956	5.0977001	-1.4597	40.981998
319	1	2	0.014841	4.0327001	-0.54759997	40.943699
320	1	2	-0.074804999	3.1143	-0.82440001	39.736401
321	1	3	0.083659999	2.7060001	-1.8532	39.859901
322	1	2	-0.165925	1.9022	0.1464	39.722
323	1	3	0.089565001	1.6519001	0.49090001	40.749199
324	1	3	0.089565001	1.0069	-0.39230001	39.3414
325	1	2	-0.158859	2.1517999	1.3645999	38.823799
326	1	3	0.089565001	1.2914	2.0627	38.905399
327	1	3	0.089565001	3.0397	1.9107	39.210499
328	1	2	-0.11625	2.4092	0.95770001	37.344898
329	1	2	0.077036001	1.1299	1.0612	36.497002
330	1	7	-0.67630601	0.71289998	2.3959999	36.4137
331	1	8	0.37401801	-0.1184	2.3928001	35.871899
332	1	4	0.079031996	0.32359999	0.4404	36.9501
333	1	4	0.079031996	1.3347	0.68080002	35.4701
334	1	3	0.087334998	3.1456001	1.6797	36.924
335	1	2	-0.158859	3.0211999	-0.46079999	37.2173
336	1	3	0.089565001	3.6147001	-0.52460003	36.279099
337	1	3	0.089565001	2.2198	-1.2309	37.158798
338	1	2	-0.165925	3.9208	-0.7888	38.4119
339	1	3	0.089565001	4.7287998	-0.0241	38.4632
340	1	3	0.089565001	4.4059	-1.7755001	38.246101
341	1	4	0.090875	4.4468999	0.4815	40.872898
342	1	4	0.090875	3.4511001	-0.60960001	41.892101
343	2	5	0.49355	-2.5825	1.8468	34.4627
344	2	6	-0.657974	-2.4568	2.2802999	33.3279
345	2	2	-0.220404	-1.7541	2.3943	35.595299
346	2	3	0.108475	-2.0783	1.8733	36.524101
347	2	2	-0.107637	-0.24770001	2.1022	35.375702
348	2	3	0.088376001	-0.035500001	1.0677	35.723
349	2	3	0.088376001	0.0085000005	2.1417	34.293999
350	2	2	-0.126636	0.6814	3.0868001	36.117802
351	2	3	0.095968999	1.6235	2.5617001	36.392799
352	2	3	0.095968999	0.94950002	3.9214001	35.431702
353	2	2	-0.17300799	0.0136	3.6629	37.378799
354	2	5	0.76756001	0.97289997	4.5226002	38.154701
355	2	6	-0.52959102	1.5675	5.4829001	37.5952
356	2	7	-0.64938301	1.1897	4.2686	39.505501
357	2	8	0.39486	1.8264	4.8417001	40.046799
358	2	3	0.130758	-0.27289999	2.8048999	38.0284
359	2	2	-0.126636	-1.2695	4.4541998	37.023201
360	2	3	0.095968999	-1.0312001	5.5225	36.8279
361	2	3	0.095968999	-1.9534	4.4281998	37.900902
362	2	2	-0.107637	-2.0099001	3.8989999	35.786701
363	2	3	0.088376001	-3.0999	4.0888	35.900799
364	2	3	0.088376001	-1.6659	4.4464998	34.881199
365	4	1	-0.154956	-0.64810002	-0.028100001	56.692402
366	4	2	0.014841	-1.5795	0.1376	55.657299
367	4	2	-0.074804999	-0.87419999	0.50669998	54.337299
368	4	3	0.083659999	-0.19159999	-0.33410001	54.078899
369	4	2	-0.166711	-1.896	0.63620001	53.174599
370	4	3	0.089565001	-2.7916	0.0020000001	53.356899
371	4	3	0.089565001	-1.4299999	0.2633	52.236198
372	4	2	-0.16711999	-2.3367	2.0887001	52.953602
373	4	3	0.088926002	-3.1198001	2.1176	52.165501
374	4	3	0.088926002	-2.8134999	2.457	53.888599
375	4	2	-0.075319998	-1.1399	3.0137	52.593102
376	4	2	0.104018	-1.0123	3.2119	51.073101
377	4	1	-0.471201	-2.1317999	3.8982	50.5812
378	4	4	0.090292998	-0.92269999	2.2242999	50.568199
379	4	4	0.090292998	-0.097800002	3.8073001	50.853001
380	4	3	0.080844998	-1.344	4.0116	53.042702
381	4	2	-0.16711999	0.20200001	2.5044	53.1786
382	4	3	0.088926002	0.89039999	3.3647001	53.329201
383	4	3	0.088926002	0.6965	1.7999001	52.473099
384	4	2	-0.166711	-0.0105	1.7841001	54.5131
385	4	3	0.089565001	-0.49529999	2.4923	55.2215
386	4	3	0.089565001	0.9774	1.5065	54.9417
387	4	4	0.090875	-2.2902	0.94309998	55.9426
388	4	4	0.090875	-2.1693001	-0.79879999	55.529499
389	5	5	0.69810998	-1.9911	3.9814999	49.555099
390	5	6	-0.52775699	-2.1735001	5.0602002	49.012001
391	5	2	-0.15242399	-1.5732	2.7748001	48.757
392	5	3	0.1285	-1.5125999	1.9159	49.4632
393	5	2	-0.131458	-2.6254001	2.4307001	47.6894
394	5	3	0.095968999	-2.6840999	3.2627001	46.952499
395	5	3	0.095968999	-3.6278	2.3283	48.160999
396	5	2	-0.107637	-2.2821	1.1216	46.946602
397	5	3	0.088376001	-2.6945	1.1954	45.915901
398	5	3	0.088376001	-2.7997999	0.27270001	47.444199
399	5	2	-0.220404	-0.76389998	0.8154	46.908901
400	5	5	0.49355099	-0.4192	-0.078500003	45.7467
401	5	6	-0.65797299	-0.5772	0.30070001	44.596298
402	5	3	0.108475	-0.49470001	0.26620001	47.839199
403	5	2	-0.107637	0.066699997	2.1096001	46.872601
404	5	3	0.088376001	-0.2051	2.6932001	45.964699
405	5	3	0.088376001	1.1502	1.8659	46.802898
406	5	2	-0.131458	-0.1743	2.9823	48.123901
407	5	3	0.095968999	-0.0274	4.0457001	47.832298
408	5	3	0.095968999	0.59729999	2.7448001	48.887901
409	1	1	-0.154956	-0.19329999	-0.89480001	56.5299
410	1	2	0.014841	0.69160002	-0.68879998	55.4613
411	1	2	-0.074804999	-0.072300002	-0.58950001	54.1255
412	1	3	0.083659999	-0.759	0.28400001	54.200901
413	1	2	-0.165925	0.89770001	-0.30430001	52.9468
414	1	3	0.089565001	1.8051	0.23549999	53.295601
415	1	3	0.089565001	0.39480001	0.3628	52.2127
416	1	2	-0.158859	1.3175	-1.5901	52.223301
417	1	3	0.089565001	2.066	-1.3427	51.440601
418	1	3	0.089565001	1.8311	-2.2528	52.953602
419	1	2	-0.11625	0.099399999	-2.3457	51.619801
420	1	2	0.077036001	-0.093599997	-2.0128	50.130402
421	1	7	-0.67630601	0.99760002	-2.4798	49.386299
422	1	8	0.37401801	0.82090002	-2.2217	48.444599
423	1	4	0.079031996	-0.1983	-0.91170001	49.9986
424	1	4	0.079031996	-1.0222	-2.5035999	49.758801
425	1	3	0.087334998	0.3152	-3.4361999	51.6908
426	1	2	-0.158859	-1.2122	-2.0776999	52.401299
427	1	3	0.089565001	-1.9	-2.9425001	52.277302
428	1	3	0.089565001	-1.7312	-1.1779	52.001499
429	1	2	-0.165925	-0.93739998	-1.8555	53.8909
430	1	3	0.089565001	-0.428	-2.7607	54.292702
431	1	3	0.089565001	-1.9038	-1.7498	54.430698
432	1	4	0.090875	1.4078	-1.5381	55.4226
433	1	4	0.090875	1.2825	0.2394	55.636902
434	2	5	0.49355	-0.0199	-1.0702	45.93
435	2	6	-0.657974	-0.3448	-1.9922	45.1978
436	2	2	-0.220404	0.93290001	-1.2919	47.075199
437	2	3	0.108475	1.1021	-0.3044	47.560501
438	2	2	-0.107637	0.32429999	-2.2523	48.1287
439	2	3	0.088376001	-0.34079999	-1.6645	48.798199
440	2	3	0.088376001	-0.30759999	-3.026	47.639198
441	2	2	-0.126636	1.3868001	-2.9795001	48.980598
442	2	3	0.095968999	0.96829998	-3.1787	49.992599
443	2	3	0.095968999	1.6177	-3.9626999	48.5126
444	2	2	-0.17300799	2.6831	-2.1589	49.100201
445	2	5	0.76756001	3.6598001	-2.8225	50.0313
446	2	6	-0.52959102	4.0103998	-4.0186	49.844002
447	2	7	-0.64938301	4.1963	-2.1039	51.095299
448	2	8	0.39486	4.8617001	-2.5314	51.7286
449	2	3	0.130758	2.4154	-1.171	49.539101
450	2	2	-0.126636	3.3248999	-1.9170001	47.711498
451	2	3	0.095968999	4.0300002	-2.7377999	47.455898
452	2	3	0.095968999	3.9209001	-0.97820002	47.758202
453	2	2	-0.107637	2.2916	-1.8056999	46.569
454	2	3	0.088376001	2.6889999	-1.1236	45.7855
455	2	3	0.088376001	2.1538999	-2.8074	46.104801
456	4	1	-0.154956	-2.0855	17.513201	-3.3606
457	4	2	0.014841	-2.7567999	16.436501	-2.7636001
458	4	2	-0.074804999	-1.7795	15.2874	-2.4463999
459	4	3	0.083659999	-1.0223	15.6828	-1.7323
460	4	2	-0.166711	-2.5074999	14.1149	-1.7337
461	4	3	0.089565001	-3.3947001	14.4788	-1.1698999
462	4	3	0.089565001	-1.8216	13.6605	-0.98549998
463	4	2	-0.16711999	-2.9428	13.0227	-2.7190001
464	4	3	0.088926002	-3.5218	12.2471	-2.1729
465	4	3	0.088926002	-3.6382	13.4753	-3.4598
466	4	2	-0.075319998	-1.7332	12.3983	-3.4705
467	4	2	0.104018	-1.2640001	11.0926	-2.8065
468	4	1	-0.471201	-2.2651999	10.1157	-2.9040999
469	4	4	0.090292998	-1.0199	11.2777	-1.7367001
470	4	4	0.090292998	-0.34799999	10.7241	-3.3209
471	4	3	0.080844998	-2.0762	12.144	-4.4987001
472	4	2	-0.16711999	-0.54479998	13.3842	-3.6059999
473	4	3	0.088926002	0.0546	13.12	-4.5047002
474	4	3	0.088926002	0.12809999	13.3126	-2.7224
475	4	2	-0.166711	-1.0324	14.8307	-3.7277999
476	4	3	0.089565001	-1.6966	14.904	-4.6176
477	4	3	0.089565001	-0.1608	15.498	-3.9054
478	4	4	0.090875	-3.5460999	16.0783	-3.4593
479	4	4	0.090875	-3.2625999	16.7794	-1.8321
480	5	5	0.69810998	-1.8934	9.2726002	-2.424
481	5	6	-0.52775699	-1.9878	8.1836004	-2.9686999
482	5	2	-0.15242399	-1.2533	9.4056997	-1.0673
483	5	3	0.1285	-1.3239	10.4771	-0.77200001
484	5	2	-0.131458	-2.0139	8.5787001	-0.017200001
485	5	3	0.095968999	-1.9332	7.4987001	-0.27399999
486	5	3	0.095968999	-3.0934999	8.8471003	-0.029300001
487	5	2	-0.107637	-1.4551001	8.8029003	1.4043
488	5	3	0.088376001	-1.6193	7.8694	1.987
489	5	3	0.088376001	-2.0395999	9.6056995	1.9042
490	5	2	-0.220404	0.0414	9.2033997	1.4211
491	5	5	0.49355099	0.68239999	8.8526001	2.7381999
492	5	6	-0.65797299	0.7809	7.6890001	3.0967
493	5	3	0.108475	0.1089	10.3086	1.3049001
494	5	2	-0.107637	0.80489999	8.5621996	0.24969999
495	5	3	0.088376001	0.72829998	7.4545999	0.32589999
496	5	3	0.088376001	1.8839	8.8287001	0.30610001
497	5	2	-0.131458	0.2449	9.0137997	-1.117
498	5	3	0.095968999	0.4127	8.1889	-1.8443
499	5	3	0.095968999	0.82679999	9.8893003	-1.4779
500	1	1	-0.154956	-1.571	17.962099	-2.6408
501	1	2	0.014841	-0.4709	17.138	-2.3608999
502	1	2	-0.074804999	-0.90689999	15.888	-1.5703
503	1	3	0.083659999	-1.6269	15.327	-2.2084999
504	1	2	-0.165925	0.29820001	14.9443	-1.3078001
505	1	3	0.089565001	1.0772001	15.0607	-2.0926001
506	1	3	0.089565001	-0.046799999	13.8882	-1.3578
507	1	2	-0.158859	0.926	15.1831	0.0713
508	1	3	0.089565001	1.8252	14.5402	0.18099999
509	1	3	0.089565001	1.2819999	16.235399	0.1181
510	1	2	-0.11625	-0.087099999	14.9372	1.2254
511	1	2	0.077036001	0.057999998	13.5243	1.8162
512	1	7	-0.67630601	1.3101	13.3836	2.4286001
513	1	8	0.37401801	1.3468	12.4535	2.7725
514	1	4	0.079031996	-0.057399999	12.7631	1.0112
515	1	4	0.079031996	-0.73830003	13.3578	2.5774
516	1	3	0.087334998	0.1499	15.6622	2.0371001
517	1	2	-0.158859	-1.5542001	15.1863	0.79089999
518	1	3	0.089565001	-2.1589999	15.4743	1.6784
519	1	3	0.089565001	-2.0018001	14.2591	0.36809999
520	1	2	-0.165925	-1.6422	16.291	-0.26539999
521	1	3	0.089565001	-1.2041	17.2213	0.16240001
522	1	3	0.089565001	-2.711	16.4991	-0.49070001
523	1	4	0.090875	0.26820001	17.719101	-1.7679
524	1	4	0.090875	0.0251	16.8382	-3.3125
525	2	5	0.49355	1.0677	9.6405001	3.3764
526	2	6	-0.657974	0.95920002	9.5372	4.5885
527	2	2	-0.220404	1.7365	10.8411	2.7599001
528	2	3	0.108475	1.7484	10.6835	1.658
529	2	2	-0.107637	0.93879998	12.1367	3.0562
530	2	3	0.088376001	0.1133	12.2187	2.3160999
531	2	3	0.088376001	0.46970001	12.0897	4.0637002
532	2	2	-0.126636	1.8026	13.4148	2.9960999
533	2	3	0.095968999	1.1689	14.2676	2.6645
534	2	3	0.095968999	2.1752999	13.6504	4.0181999
535	2	2	-0.17300799	3.0016	13.2503	2.0455999
536	2	5	0.76756001	3.7611001	14.5404	1.904
537	2	6	-0.52959102	4.1935	15.1432	2.9231
538	2	7	-0.64938301	4.0063	15.0614	0.63730001
539	2	8	0.39486	4.5229998	15.9254	0.52139997
540	2	3	0.130758	2.5998001	12.9827	1.0420001
541	2	2	-0.126636	3.9382	12.1096	2.5151999
542	2	3	0.095968999	4.7158999	12.4994	3.2077
543	2	3	0.095968999	4.4688001	11.7017	1.6259
544	2	2	-0.107637	3.1951001	10.9618	3.2332001
545	2	3	0.088376001	3.7360001	10.0077	3.0483
546	2	3	0.088376001	3.2093999	11.1497	4.3297
547	4	1	-0.154956	-1.6319	9.2643003	17.6947
548	4	2	0.014841	-1.4105999	8.8889999	16.361799
549	4	2	-0.074804999	-1.4722	10.1143	15.4285
550	4	3	0.083659999	-0.66689998	10.8146	15.746
551	4	2	-0.166711	-1.1720001	9.7130003	13.9583
552	4	3	0.089565001	-0.52460003	8.8093004	13.9148
553	4	3	0.089565001	-0.60479999	10.5326	13.465
554	4	2	-0.16711999	-2.4549	9.4597998	13.1565
555	4	3	0.088926002	-2.1859	9.1047001	12.1383
556	4	3	0.088926002	-3.0156	8.6317997	13.6436
557	4	2	-0.075319998	-3.362	10.7211	13.0922
558	4	2	0.104018	-3.1463001	11.5107	11.7899
559	4	1	-0.471201	-3.5529001	10.7437	10.6887
560	4	4	0.090292998	-2.0723	11.7827	11.6849
561	4	4	0.090292998	-3.7481	12.4467	11.8205
562	4	3	0.080844998	-4.4187999	10.371	13.0977
563	4	2	-0.16711999	-3.1729	11.6519	14.3172
564	4	3	0.088926002	-4.1069002	12.2301	14.4904
565	4	3	0.088926002	-2.3557	12.3844	14.132
566	4	2	-0.166711	-2.8297999	10.8516	15.5769
567	4	3	0.089565001	-3.6522999	10.1267	15.7677
568	4	3	0.089565001	-2.783	11.541	16.4482
569	4	4	0.090875	-2.1868	8.1506004	16.065599
570	4	4	0.090875	-0.4201	8.3868999	16.2726
571	5	5	0.69810998	-3.3645999	11.3241	9.8477001
572	5	6	-0.52775699	-4.2277999	11.4329	8.9905005
573	5	2	-0.15242399	-2.0339999	12.013	9.6969004
574	5	3	0.1285	-1.4134001	11.73	10.5771
575	5	2	-0.131458	-1.3041	11.5279	8.4330997
576	5	3	0.095968999	-1.8908	11.8253	7.5352001
577	5	3	0.095968999	-1.2338001	10.4177	8.4357996
578	5	2	-0.107637	0.1168	12.1223	8.3275003
579	5	3	0.088376001	0.37180001	12.2082	7.2477999
580	5	3	0.088376001	0.84420002	11.4125	8.7782001
581	5	2	-0.220404	0.2651	13.4919	9.0361996
582	5	5	0.49355099	1.4043	14.285	8.4514999
583	5	6	-0.65797299	1.3744	14.6613	7.2897
584	5	3	0.108475	0.5068	13.3071	10.1072
585	5	2	-0.107637	-1.0468	14.2934	8.9841003
586	5	3	0.088376001	-1.3272001	14.4671	7.9211001
587	5	3	0.088376001	-0.90499997	15.2889	9.4608002
588	5	2	-0.131458	-2.2007999	13.5535	9.6956997
589	5	3	0.095968999	-3.1522	13.8466	9.1991997
590	5	3	0.095968999	-2.2625	13.9023	10.7492
591	1	1	-0.154956	-0.80500001	9.717	18.003901
592	1	2	0.014841	-0.79809999	10.9878	17.4102
593	1	2	-0.074804999	-0.44769999	10.8932	15.9115
594	1	3	0.083659999	-1.2335	10.2708	15.4264
595	1	2	-0.165925	-0.495	12.2913	15.2371
596	1	3	0.089565001	-1.1993999	12.9688	15.7673
597	1	3	0.089565001	-0.87940001	12.1837	14.1992
598	1	2	-0.158859	0.89050001	12.9466	15.1741
599	1	3	0.089565001	0.7931	13.9704	14.7541
600	1	3	0.089565001	1.2708	13.0656	16.212099
601	1	2	-0.11625	1.9031	12.0956	14.3558
602	1	2	0.077036001	2.0143001	12.5882	12.9028