Title

10000 atoms
9875 bonds
18000 angles
32500 dihedrals
2250 impropers

11 atom types
14 bond types
9 angle types
35 dihedral types
3 improper types
-10.66253307 127.6666205 xlo xhi
-11.88541104 127.780852 ylo yhi
-12.94198158 129.0665224 zlo zhi
0.0 0.0 0.0 xy xz yz

Masses

1	12.01078
2	15.99943
3	14.00672
4	12.01078
5	1.007947
6	1.007947
7	1.007947
8	15.99943
9	12.01078
10	15.99943
11	1.007947


Pair Coeffs

1	0.086879315	3.4806469
2	0.2102061	3.0398122
3	0.16769152	3.206876
4	0.10884061	3.3795318
5	0.014090815	1.1034277
6	0.016409246	2.5832257
7	0.015779483	2.6445434
8	0.16846514	3.0251065
9	0.21	3.3996695
10	0.20947353	2.99716
11	1.2326e-05	0.53453923

Bond Coeffs

1 harmonic	582.698766451	1.225198386222
2 harmonic	492.76746816345	1.381897776683
3 harmonic	279.1350963404	1.454628925034
4 harmonic	352.0565580496	1.450098586273
5 harmonic	505.144496193	1.019481865027
6 harmonic	264.62148576755	1.52190126495
7 harmonic	370.04670688625	1.093899492634
8 harmonic	301.15400723785	1.345741232799
9 harmonic	366.7408841747	1.425895053732
10 harmonic	300.03137914615	1.451203938761
11 harmonic	366.34047229585	1.464762957261
12 harmonic	602.81384337	1.196112346392
13 harmonic	329.96998057905	1.427343958716
14 harmonic	543.5267831885	0.9716763312559


Angle Coeffs

1 harmonic	55.42182150775	117.3465570514
2 harmonic	63.44422595415	115.5071327674
3 harmonic	57.8982893754	126.8062420451
4 harmonic	53.20531626545	116.5475862634
5 harmonic	65.09061609600001	110.3538806181
6 harmonic	201.41175231035	127.4691416191
7 harmonic	48.776492647595	115.6030999533
8 harmonic	55.07882548015	112.8714009681
9 harmonic	33.56981613361	180


Dihedral Coeffs

1 fourier 1	-0.1488678166443	4	180
2 fourier 1	-0.1230328948768	3	180
3 fourier 1	0.2939295466901	2	0
4 fourier 1	-0.3024127022865	1	0
5 fourier 1	0.182238503271	2	0
6 fourier 1	0.02972342374561	3	0
7 fourier 1	1.809047390003	2	180
8 fourier 1	-0.04816277792592	1	0
9 fourier 1	3.101948770557	2	180
10 fourier 1	-0.4252153282372	1	0
11 fourier 1	2.348375642009	2	180
12 fourier 1	1.256156174911	1	0
13 fourier 1	0.9974165607242	2	180
14 fourier 1	0.1155372516788	3	0
15 fourier 1	0.09223874044423	3	0
16 fourier 1	0.3159935921949	2	180
17 fourier 1	0.3247796806857	1	180
18 fourier 1	0.1040663847541	3	0
19 fourier 1	2.779853741805	2	180
20 fourier 1	0.1918272375143	3	0
21 fourier 1	0.9202179876409	1	180
22 fourier 1	0.0473758381877	3	0
23 fourier 1	0.4860993122944	2	180
24 fourier 1	0.8916986138746	1	0
25 fourier 1	1.163809172478	2	180
26 fourier 1	0.1679186987369	1	180
27 fourier 1	0.1911926717192	3	0
28 fourier 1	0.1115525666802	3	0
29 fourier 1	0.3432490222662	1	0
30 fourier 1	0.457973137376	1	0
31 fourier 1	-1.382973039546	1	0
32 fourier 1	0	1	0
33 fourier 1	0.3445382149273	3	0
34 fourier 1	0.1364556373303	1	0
35 fourier 1	0.3026390167484	3	0


Improper Coeffs

1 0.3333333333333333	-1	2
2 0.3666666666666667	-1	2
3 3.5	-1	2


Atoms

1	6	1	0.54478413	2.660249	-3.9130243	-0.13441713
2	6	2	-0.67473388	3.0692589	-4.5962811	-1.1111884
3	6	3	-0.52004153	2.2229256	-2.5641046	-0.31611698
4	6	4	0.032229704	2.2327021	-1.9252456	-1.6313799
5	6	4	-0.14468821	1.7128232	-0.48683894	-1.543915
6	6	4	-0.14131789	1.7042418	0.18308801	-2.9263626
7	6	4	-0.14131789	1.3657877	1.6832414	-2.86477
8	6	4	-0.1433985	-0.029565709	2.0127009	-2.3035799
9	6	4	0.026455286	-1.1699406	1.4280545	-3.1477764
10	6	3	-0.46344903	-2.4663069	1.9128377	-2.6761246
11	6	1	0.78832406	-3.6888155	1.519035	-3.3053472
12	6	2	-0.60006088	-3.682218	0.73826266	-4.2943265
13	6	5	0.32812392	-2.5245393	2.5601892	-1.8570238
14	6	6	0.06061427	-1.1582051	0.32012873	-3.0780357
15	6	6	0.06061427	-1.0347881	1.7248859	-4.2109838
16	6	7	0.090906885	-0.1171626	1.6620923	-1.2534674
17	6	7	0.090906885	-0.13267474	3.1189332	-2.2867412
18	6	7	0.089623143	1.4480919	2.105894	-3.8905998
19	6	7	0.089623143	2.1284654	2.1973478	-2.2415145
20	6	7	0.089623143	0.99666412	-0.34520434	-3.6006155
21	6	7	0.089623143	2.7156004	0.085801162	-3.3776397
22	6	7	0.090906885	0.68153686	-0.50820608	-1.1327143
23	6	7	0.090906885	2.3629217	0.094423247	-0.85271089
24	6	6	0.057007489	3.2717545	-1.9215358	-2.0265524
25	6	6	0.057007489	1.5880659	-2.5095716	-2.3249874
26	6	5	0.32154306	1.8926001	-2.0382092	0.52497759
27	7	8	-0.49546808	-4.592181	1.8791712	-2.9453755
28	7	4	0.11481594	-4.3854069	3.2258216	-2.6139329
29	7	4	-0.13550106	-4.3889088	4.0865639	-3.8819047
30	7	4	-0.14270477	-3.9913472	5.5495101	-3.6183551
31	7	4	0.036287122	-5.052376	6.3404112	-2.8439525
32	7	8	-0.16106582	-4.9924168	6.02981	-1.4799265
33	7	6	0.090196204	-4.8513628	7.4267664	-2.9772757
34	7	6	0.090196204	-6.0675991	6.1220935	-3.2473992
35	7	7	0.097684842	-3.8473719	6.0432091	-4.604159
36	7	7	0.097684842	-3.0177156	5.5942044	-3.083935
37	7	7	0.096539234	-3.6579689	3.6588032	-4.6024889
38	7	7	0.096539234	-5.3916691	4.0441645	-4.3606269
39	7	6	0.090101783	-3.4242549	3.3431571	-2.0640044
40	7	6	0.090101783	-5.2100959	3.5437699	-1.9431313
41	4	1	0.54478419	2.6404779	-4.3546379	0.85257854
42	4	2	-0.67473394	2.913854	-3.642712	1.8549742
43	4	3	-0.52004159	2.2952928	-5.7360332	1.0035602
44	4	4	0.032229711	2.2454092	-6.4015993	2.3041552
45	4	4	-0.14468821	3.6610611	-6.6940192	2.8116644
46	4	4	-0.14113513	3.6209291	-7.4133751	4.1688772
47	4	4	-0.13693685	5.0150103	-7.8423961	4.6529593
48	4	4	-0.12112176	5.8786528	-6.6521684	5.1006128
49	4	4	0.18556474	7.2272819	-7.1093794	5.6783562
50	4	3	-0.62866807	7.0567079	-7.8828972	6.9050915
51	4	9	0.59418207	6.6206501	-7.3563794	7.9785959
52	4	2	-0.45163396	6.1947385	-6.8440388	9.0220826
53	4	6	0.034940683	7.866054	-6.2217204	5.8820537
54	4	6	0.034940683	7.754596	-7.7372049	4.9289337
55	4	7	0.084525277	6.0891735	-5.996687	4.2291599
56	4	7	0.084525277	5.3339422	-6.0486378	5.8585278
57	4	7	0.088336778	5.5356387	-8.4077805	3.8490996
58	4	7	0.088336778	4.876475	-8.5333868	5.5131789
59	4	7	0.089623143	2.9962468	-8.3272528	4.0714061
60	4	7	0.089623143	3.1427698	-6.7584469	4.9301425
61	4	7	0.090906885	4.2142617	-5.7375019	2.9120078
62	4	7	0.090906885	4.1870719	-7.3314785	2.0669844
63	4	6	0.057007489	1.69434	-5.764899	3.0311294
64	4	6	0.057007489	1.6904076	-7.3584915	2.1972838
65	4	5	0.32154309	2.0097818	-6.2709117	0.15273629
66	5	8	-0.16106582	-5.7126176	6.5589983	-1.0452411
67	5	4	0.036399671	-5.2585949	7.8844961	-0.99035179
68	5	4	-0.13696523	-5.407075	8.5503819	-2.3623105
69	5	4	-0.16401688	-4.7674692	9.947967	-2.4264857
70	5	4	0.089908634	-5.5254729	11.004404	-1.6164381
71	5	10	-0.67789841	-5.2273406	10.880375	-0.25392903
72	5	11	0.38817951	-5.7598788	11.577104	0.21019884
73	5	6	0.081897464	-5.2099584	12.013704	-1.9654947
74	5	6	0.081897464	-6.6215152	10.906012	-1.7826651
75	5	7	0.10014908	-4.7649941	10.269326	-3.491722
76	5	7	0.10014908	-3.7066663	9.9019228	-2.0967157
77	5	7	0.097862405	-4.9079126	7.9099825	-3.1222391
78	5	7	0.097862405	-6.4840552	8.6116288	-2.6338037
79	5	6	0.090196204	-4.1959693	7.9139601	-0.65408591
80	5	6	0.090196204	-5.874242	8.4258599	-0.2428433
81	6	1	0.54478413	-2.9016878	-3.5238573	27.735646
82	6	2	-0.67473388	-3.3808062	-4.4740745	27.060558
83	6	3	-0.52004153	-1.7440976	-2.8160979	27.285188
84	6	4	0.032229704	-1.0721502	-3.162515	26.033535
85	6	4	-0.14468821	0.13273433	-2.2484663	25.789186
86	6	4	-0.14131789	0.83175197	-2.5967169	24.466261
87	6	4	-0.14131789	2.1520267	-1.8317506	24.264999
88	6	4	-0.1433985	2.0125673	-0.2998785	24.198607
89	6	4	0.026455286	1.1473827	0.17415265	23.023157
90	6	3	-0.46344903	1.1900749	1.630641	22.901275
91	6	1	0.78832406	0.47123224	2.319038	21.87419
92	6	2	-0.60006088	-0.22307032	1.6832941	21.036632
93	6	5	0.32812392	1.7496443	2.2030803	23.574013
94	6	6	0.06061427	0.094097367	-0.13823758	23.182854
95	6	6	0.06061427	1.5206267	-0.28151804	22.079844
96	6	7	0.090906885	1.6033317	0.093324031	25.153203
97	6	7	0.090906885	3.0322663	0.12590786	24.082052
98	6	7	0.089623143	2.627023	-2.1891406	23.324581
99	6	7	0.089623143	2.8449826	-2.0885226	25.094644
100	6	7	0.089623143	0.14453111	-2.4123712	23.612961
101	6	7	0.089623143	1.0694822	-3.6827318	24.462005
102	6	7	0.090906885	-0.22205422	-1.196664	25.758674
103	6	7	0.090906885	0.85196539	-2.3604427	26.630866
104	6	6	0.057007489	-0.73252776	-4.2198661	26.083237
105	6	6	0.057007489	-1.7925128	-3.0571471	25.192073
106	6	5	0.32154306	-1.3842375	-2.0354235	27.880309
107	7	8	-0.49546808	0.52074419	3.3532116	21.816048
108	7	4	0.11481594	1.8491181	3.7087218	22.090115
109	7	4	-0.13550106	2.7258049	3.4589386	20.858177
110	7	4	-0.14270477	4.2262685	3.6566383	21.136113
111	7	4	0.036287122	4.6178797	5.1222204	21.359084
112	7	8	-0.16106582	4.2771406	5.5256892	22.655905
113	7	6	0.090196204	5.7186588	5.2184212	21.227252
114	7	6	0.090196204	4.1187452	5.7741398	20.606106
115	7	7	0.097684842	4.7858127	3.2831047	20.250868
116	7	7	0.097684842	4.5414599	3.0415956	22.00671
117	7	7	0.096539234	2.576111	2.4090406	20.523812
118	7	7	0.096539234	2.4012904	4.1222631	20.026797
119	7	6	0.090101783	2.2288507	3.1323678	22.963969
120	7	6	0.090101783	1.8680476	4.7870647	22.350876
121	4	1	0.54478419	-3.3737858	-3.2418667	28.666871
122	4	2	-0.67473394	-2.6599924	-2.8636806	29.633227
123	4	3	-0.52004159	-4.8000408	-3.2940808	28.782071
124	4	4	0.032229711	-5.5089623	-2.9267888	30.006629
125	4	4	-0.14468821	-5.3779764	-4.0358685	31.055404
126	4	4	-0.14113513	-6.1377135	-3.6703086	32.340035
127	4	4	-0.13693685	-6.142133	-4.8108394	33.370096
128	4	4	-0.12112176	-4.7671335	-5.024045	34.023422
129	4	4	0.18556474	-4.8166295	-6.0959955	35.123468
130	4	3	-0.62866807	-5.6616576	-5.6860482	36.241581
131	4	9	0.59418207	-5.3443806	-4.72027	37.00734
132	4	2	-0.45163396	-5.0360826	-3.7795622	37.750831
133	4	6	0.034940683	-3.7867193	-6.3026807	35.489565
134	4	6	0.034940683	-5.2174837	-7.0407957	34.698583
135	4	7	0.084525277	-4.0387338	-5.361038	33.25578
136	4	7	0.084525277	-4.395098	-4.0680114	34.451187
137	4	7	0.088336778	-6.4831088	-5.7531074	32.887634
138	4	7	0.088336778	-6.8817706	-4.5512749	34.158893
139	4	7	0.089623143	-7.19321	-3.4409644	32.078827
140	4	7	0.089623143	-5.6966114	-2.7552348	32.792982
141	4	7	0.090906885	-4.3039167	-4.1894538	31.287422
142	4	7	0.090906885	-5.788612	-4.9805066	30.635134
143	4	6	0.057007489	-5.1058821	-1.9677921	30.400847
144	4	6	0.057007489	-6.5836242	-2.7743783	29.767958
145	4	5	0.32154309	-5.3562528	-3.548095	27.934948
146	5	8	-0.16106582	4.5399231	6.4816675	22.724693
147	5	4	0.036399671	5.9366797	6.505683	22.845475
148	5	4	-0.13696523	6.588597	6.2815784	21.477081
149	5	4	-0.16401688	8.1162003	6.1185552	21.556514
150	5	4	0.089908634	8.8513024	7.4152206	21.910194
151	5	10	-0.67789841	8.7608713	7.667461	23.284565
152	5	11	0.38817951	9.2389762	8.5227119	23.440784
153	5	6	0.081897464	9.9238805	7.3026411	21.632745
154	5	6	0.081897464	8.4304312	8.2681653	21.33229
155	5	7	0.10014908	8.4723041	5.7842644	20.556791
156	5	7	0.10014908	8.3813058	5.3187709	22.281935
157	5	7	0.097862405	6.1676697	5.3531859	21.032476
158	5	7	0.097862405	6.3302823	7.1233134	20.7973
159	5	6	0.090196204	6.2738459	5.7294372	23.571338
160	5	6	0.090196204	6.2283962	7.5004288	23.240756
161	6	1	0.54478413	1.8058453	-2.3382173	56.664221
162	6	2	-0.67473388	1.7420937	-2.0981245	57.899738
163	6	3	-0.52004153	0.86924183	-1.7545773	55.755382
164	6	4	0.032229704	-0.19383908	-0.86300907	56.217029
165	6	4	-0.14468821	-1.0490703	-0.3783821	55.042016
166	6	4	-0.14131789	-2.1566816	0.57301249	55.519596
167	6	4	-0.14131789	-3.153513	0.94126662	54.406259
168	6	4	-0.1433985	-2.5415947	1.6855849	53.205411
169	6	4	0.026455286	-1.9243556	3.037535	53.587747
170	6	3	-0.46344903	-1.5170535	3.7783139	52.394689
171	6	1	0.78832406	-0.92108846	5.0753854	52.483909
172	6	2	-0.60006088	-0.73119947	5.6217298	53.603364
173	6	5	0.32812392	-1.6509571	3.3662892	51.443013
174	6	6	0.06061427	-1.0313423	2.8747408	54.226907
175	6	6	0.06061427	-2.6691785	3.6391081	54.15355
176	6	7	0.090906885	-1.7817056	1.0506065	52.702711
177	6	7	0.090906885	-3.3551628	1.8631508	52.469719
178	6	7	0.089623143	-3.9571993	1.5719839	54.846736
179	6	7	0.089623143	-3.6379711	0.01197065	54.037288
180	6	7	0.089623143	-1.7076925	1.491128	55.955313
181	6	7	0.089623143	-2.7300421	0.075808192	56.332005
182	6	7	0.090906885	-0.39063267	0.14782641	54.319065
183	6	7	0.090906885	-1.5063606	-1.2580246	54.536673
184	6	6	0.057007489	-0.83515393	-1.4070959	56.944002
185	6	6	0.057007489	0.26235932	0.013675524	56.728293
186	6	5	0.32154306	0.96319991	-1.9842393	54.73973
187	7	8	-0.49546808	-0.64148887	5.5739029	51.618662
188	7	4	0.11481594	-1.6506	5.3379995	50.674141
189	7	4	-0.13550106	-2.861597	6.2316052	50.963272
190	7	4	-0.14270477	-4.0771422	5.904257	50.078389
191	7	4	0.036287122	-3.8881462	6.302672	48.609869
192	7	8	-0.16106582	-3.0933865	5.3591533	47.947476
193	7	6	0.090196204	-4.8876123	6.3408421	48.122058
194	7	6	0.090196204	-3.4279813	7.3148721	48.540521
195	7	7	0.097684842	-4.9475125	6.4693344	50.477664
196	7	7	0.097684842	-4.3267807	4.8235055	50.150623
197	7	7	0.096539234	-3.1629438	6.0876215	52.02391
198	7	7	0.096539234	-2.5769412	7.2994884	50.8404
199	7	6	0.090101783	-1.9449678	4.2641257	50.686167
200	7	6	0.090101783	-1.2417725	5.5745555	49.670109
201	4	1	0.54478419	2.5795962	-2.994009	56.28896
202	4	2	-0.67473394	2.3225115	-3.7700606	55.330826
203	4	3	-0.52004159	3.8832312	-2.9621644	56.880334
204	4	4	0.032229711	4.9792089	-3.8163394	56.426206
205	4	4	-0.14468821	4.7822012	-5.2517578	56.924109
206	4	4	-0.14113513	5.9399454	-6.1546988	56.470859
207	4	4	-0.13693685	5.849892	-7.57221	57.057723
208	4	4	-0.12112176	4.7150548	-8.4003967	56.433891
209	4	4	0.18556474	4.707417	-9.8454178	56.95685
210	4	3	-0.62866807	5.9114154	-10.570905	56.561425
211	4	9	0.59418207	6.1513447	-10.867255	55.347181
212	4	2	-0.45163396	6.385065	-11.153698	54.165621
213	4	6	0.034940683	3.80829	-10.376272	56.57315
214	4	6	0.034940683	4.6429917	-9.8349262	58.065723
215	4	7	0.084525277	3.7361584	-7.9429627	56.690642
216	4	7	0.084525277	4.8100146	-8.405366	55.326484
217	4	7	0.088336778	5.7164517	-7.5158309	58.16041
218	4	7	0.088336778	6.8192491	-8.0811333	56.862833
219	4	7	0.089623143	6.8982889	-5.7047368	56.808517
220	4	7	0.089623143	5.9658659	-6.2076769	55.360177
221	4	7	0.090906885	3.8240323	-5.6445979	56.525845
222	4	7	0.090906885	4.7279316	-5.2442344	58.035229
223	4	6	0.057007489	5.0379212	-3.7934973	55.315537
224	4	6	0.057007489	5.9357199	-3.4180084	56.82809
225	4	5	0.32154309	4.0712563	-2.2556575	57.626663
226	5	8	-0.16106582	-2.9976662	5.6866417	47.014057
227	5	4	0.036399671	-4.2194958	5.4350936	46.373784
228	5	4	-0.13696523	-5.256096	6.4865437	46.783214
229	5	4	-0.16401688	-6.669034	6.1756894	46.260305
230	5	4	0.089908634	-6.8104537	6.3456623	44.744418
231	5	10	-0.67789841	-6.2705619	5.2391743	44.077411
232	5	11	0.38817951	-6.3787702	5.4208124	43.108008
233	5	6	0.081897464	-7.89286	6.4256542	44.495271
234	5	6	0.081897464	-6.3071166	7.2808306	44.411652
235	5	7	0.10014908	-7.3738274	6.8825674	46.751829
236	5	7	0.10014908	-6.9737993	5.1492903	46.559962
237	5	7	0.097862405	-5.3023596	6.5240258	47.893719
238	5	7	0.097862405	-4.9312102	7.489794	46.42926
239	5	6	0.090196204	-4.581541	4.410632	46.623819
240	5	6	0.090196204	-4.0480569	5.4849114	45.278799
241	6	1	0.54478413	0.24853539	-0.4851736	74.746598
242	6	2	-0.67473388	1.1330843	-1.0119845	74.019786
243	6	3	-0.52004153	0.16319602	-0.79746543	76.139092
244	6	4	0.032229704	1.0898498	-1.7341203	76.77324
245	6	4	-0.14468821	0.77920022	-1.8837052	78.265909
246	6	4	-0.14131789	1.7613583	-2.8532678	78.940706
247	6	4	-0.14131789	1.3797989	-3.178795	80.395783
248	6	4	-0.1433985	1.3639999	-1.9705541	81.349928
249	6	4	0.026455286	2.735332	-1.2956344	81.48728
250	6	3	-0.46344903	2.7077736	-0.27143226	82.53049
251	6	1	0.78832406	3.8686302	0.4969063	82.85851
252	6	2	-0.60006088	4.9579507	0.30887241	82.253734
253	6	5	0.32812392	1.8268517	-0.075972881	83.05884
254	6	6	0.06061427	3.0152531	-0.81607505	80.525944
255	6	6	0.06061427	3.5008545	-2.059474	81.746721
256	6	7	0.090906885	0.60707046	-1.2274314	81.021047
257	6	7	0.090906885	1.0474946	-2.3361701	82.350335
258	6	7	0.089623143	2.0956278	-3.9350311	80.787487
259	6	7	0.089623143	0.37400445	-3.6507204	80.405473
260	6	7	0.089623143	2.7929031	-2.4432189	78.894324
261	6	7	0.089623143	1.7670283	-3.8094826	78.373623
262	6	7	0.090906885	0.85296423	-0.88421782	78.744111
263	6	7	0.090906885	-0.25995458	-2.2632246	78.385822
264	6	6	0.057007489	1.0046509	-2.7241351	76.274826
265	6	6	0.057007489	2.1297955	-1.3587102	76.648083
266	6	5	0.32154306	-0.58797302	-0.33487481	76.700231
267	7	8	-0.49546808	3.8156065	1.2173888	83.602445
268	7	4	0.11481594	3.0279365	0.67830042	84.629595
269	7	4	-0.13550106	3.8503848	-0.31499745	85.457593
270	7	4	-0.14270477	3.0071052	-1.080774	86.492093
271	7	4	0.036287122	2.5284989	-0.20640997	87.657181
272	7	8	-0.16106582	1.4294681	0.56791249	87.265785
273	7	6	0.090196204	2.2231979	-0.87074469	88.496109
274	7	6	0.090196204	3.3564599	0.44768081	88.01461
275	7	7	0.097684842	3.6413421	-1.8924906	86.910587
276	7	7	0.097684842	2.1376318	-1.565815	85.997814
277	7	7	0.096539234	4.3043299	-1.0602493	84.76837
278	7	7	0.096539234	4.6831885	0.21947854	85.964815
279	7	6	0.090101783	2.1276391	0.18089445	84.202918
280	7	6	0.090101783	2.6890877	1.5142502	85.275774
281	4	1	0.54478419	-0.45353048	0.21168056	74.30948
282	4	2	-0.67473394	-1.6470316	0.22240855	74.711736
283	4	3	-0.52004159	-0.012887015	1.1149362	73.289596
284	4	4	0.032229711	-0.9022986	2.0854706	72.653967
285	4	4	-0.14468821	-1.8239149	1.3894766	71.647309
286	4	4	-0.14113513	-2.7491843	2.4033681	70.956649
287	4	4	-0.13693685	-3.599411	1.767687	69.845397
288	4	4	-0.12112176	-4.7058503	0.85355575	70.395915
289	4	4	0.18556474	-5.6092114	0.31143247	69.277134
290	4	3	-0.62866807	-6.3524549	1.3801019	68.61544
291	4	9	0.59418207	-7.2602933	2.0406414	69.214853
292	4	2	-0.45163396	-8.1420821	2.6840396	69.799015
293	4	6	0.034940683	-6.3204549	-0.43238666	69.699422
294	4	6	0.034940683	-4.985315	-0.21227268	68.521922
295	4	7	0.084525277	-4.2472302	-0.016690335	70.911419
296	4	7	0.084525277	-5.3223945	1.4046982	71.138552
297	4	7	0.088336778	-2.945469	1.1958702	69.150927
298	4	7	0.088336778	-4.0666718	2.5921695	69.263561
299	4	7	0.089623143	-2.1267371	3.2011769	70.497344
300	4	7	0.089623143	-3.4117065	2.8847372	71.709271
301	4	7	0.090906885	-2.4329653	0.62988727	72.179387
302	4	7	0.090906885	-1.2005633	0.87310753	70.884167
303	4	6	0.057007489	-1.5000013	2.6121563	73.43044
304	4	6	0.057007489	-0.28679253	2.8432632	72.122936
305	4	5	0.32154309	1.0003484	1.1179951	73.034924
306	5	8	-0.16106582	1.185085	1.1183426	88.056345
307	5	4	0.036399671	0.54071294	0.25998471	88.95862
308	5	4	-0.13696523	1.5721226	-0.5965292	89.700441
309	5	4	-0.16401688	0.93194878	-1.6855419	90.578329
310	5	4	0.089908634	0.21668452	-1.1314018	91.814505
311	5	10	-0.67789841	-1.0361133	-0.61471934	91.462037
312	5	11	0.38817951	-1.4343468	-0.26012681	92.298767
313	5	6	0.081897464	0.073932942	-1.9606104	92.543965
314	5	6	0.081897464	0.83659005	-0.34459171	92.29955
315	5	7	0.10014908	1.7456435	-2.3598473	90.926494
316	5	7	0.10014908	0.2308996	-2.3035113	89.975988
317	5	7	0.097862405	2.2204208	-1.0990845	88.949499
318	5	7	0.097862405	2.2249963	0.057087379	90.320028
319	5	6	0.090196204	-0.19014093	-0.38694313	88.419683
320	5	6	0.090196204	-0.018658206	0.88504507	89.684752
321	6	1	0.54478413	-1.841093	1.8617794	109.87504
322	6	2	-0.67473388	-2.999587	2.2949344	110.11686
323	6	3	-0.52004153	-1.6035176	0.98050842	108.77469
324	6	4	0.032229704	-2.6854635	0.54723974	107.89161
325	6	4	-0.14468821	-2.1572915	-0.38674819	106.79816
326	6	4	-0.14131789	-3.2872367	-0.83068721	105.85679
327	6	4	-0.14131789	-2.8444548	-1.9119844	104.85502
328	6	4	-0.1433985	-1.7260898	-1.4834562	103.88749
329	6	4	0.026455286	-2.1298032	-0.31007395	102.98465
330	6	3	-0.46344903	-1.1055617	-0.057763643	101.97207
331	6	1	0.78832406	-1.2506539	0.98209813	101.00091
332	6	2	-0.60006088	-2.2758419	1.7146177	100.98935
333	6	5	0.32812392	-0.23528317	-0.63664113	101.94212
334	6	6	0.06061427	-2.257831	0.6072615	103.5967
335	6	6	0.06061427	-3.0921265	-0.54458558	102.47895
336	6	7	0.090906885	-0.80359679	-1.2283526	104.45075
337	6	7	0.090906885	-1.4838265	-2.3572996	103.24533
338	6	7	0.089623143	-3.7308412	-2.226665	104.26085
339	6	7	0.089623143	-2.5008964	-2.8048084	105.42005
340	6	7	0.089623143	-3.701145	0.04856708	105.3183
341	6	7	0.089623143	-4.1141795	-1.2563357	106.46585
342	6	7	0.090906885	-1.3784515	0.15244381	106.2187
343	6	7	0.090906885	-1.6962501	-1.2808931	107.27377
344	6	6	0.057007489	-3.4559265	0.017365164	108.4928
345	6	6	0.057007489	-3.1513671	1.4412122	107.42062
346	6	5	0.32154306	-0.62517232	0.64813928	108.61503
347	7	8	-0.49546808	-0.5049531	1.1366301	100.29706
348	7	4	0.11481594	-0.062489292	-0.13146033	99.894259
349	7	4	-0.13550106	-1.059221	-0.74758697	98.906557
350	7	4	-0.14270477	-0.7345906	-2.2103362	98.556265
351	7	4	0.036287122	0.51997865	-2.3662947	97.688659
352	7	8	-0.16106582	1.6731918	-2.2499108	98.474273
353	7	6	0.090196204	0.50211848	-3.3748135	97.218638
354	7	6	0.090196204	0.52508728	-1.6037107	96.876533
355	7	7	0.097684842	-1.5975903	-2.6210858	97.988116
356	7	7	0.097684842	-0.63422678	-2.8156389	99.483139
357	7	7	0.096539234	-2.0724406	-0.72301835	99.364024
358	7	7	0.096539234	-1.0973682	-0.13310232	97.980569
359	7	6	0.090101783	0.069043262	-0.79225344	100.78086
360	7	6	0.090101783	0.92484501	-0.0093778496	99.402889
361	4	1	0.54478419	-1.0178648	2.161898	110.50891
362	4	2	-0.67473394	-0.10395827	1.3353577	110.76964
363	4	3	-0.52004159	-0.97610075	3.4940475	111.03221
364	4	4	0.032229711	0.10415298	3.9725066	111.8931
365	4	4	-0.14468821	-0.052906074	3.4143174	113.31117
366	4	4	-0.14113513	1.0654417	3.9280051	114.23124
367	4	4	-0.13693685	0.87292533	3.4979326	115.69405
368	4	4	-0.12112176	1.1315283	1.9980207	115.90924
369	4	4	0.18556474	1.0368391	1.6083725	117.39276
370	4	3	-0.62866807	2.080579	2.2483957	118.18855
371	4	9	0.59418207	3.3107155	1.9533407	118.04896
372	4	2	-0.45163396	4.5073636	1.6671802	117.91147
373	4	6	0.034940683	1.114521	0.50329617	117.49391
374	4	6	0.034940683	0.045320609	1.9127128	117.79041
375	4	7	0.084525277	0.37220486	1.406369	115.35536
376	4	7	0.084525277	2.1335649	1.7227254	115.51486
377	4	7	0.088336778	-0.15449229	3.7579584	116.03125
378	4	7	0.088336778	1.5874107	4.0815525	116.31497
379	4	7	0.089623143	1.0734657	5.0387782	114.19931
380	4	7	0.089623143	2.0525594	3.5735052	113.86107
381	4	7	0.090906885	-0.022630406	2.3060096	113.26919
382	4	7	0.090906885	-1.0412489	3.7270512	113.71486
383	4	6	0.057007489	1.0864172	3.6753474	111.46367
384	4	6	0.057007489	0.068649933	5.0826336	111.93116
385	4	5	0.32154309	-1.7187999	4.1661704	110.73529
386	5	8	-0.16106582	2.4414966	-2.3418875	97.850631
387	5	4	0.036399671	2.5324214	-3.7026083	97.524647
388	5	4	-0.13696523	1.4671168	-4.0687296	96.485993
389	5	4	-0.16401688	1.3887375	-5.5800268	96.209777
390	5	4	0.089908634	2.5990499	-6.124728	95.44476
391	5	10	-0.67789841	3.6871403	-6.2928998	96.309904
392	5	11	0.38817951	4.4351973	-6.6288245	95.751327
393	5	6	0.081897464	2.3280814	-7.1125332	95.007847
394	5	6	0.081897464	2.8703859	-5.4387078	94.611469
395	5	7	0.10014908	0.48169027	-5.7635445	95.592045
396	5	7	0.10014908	1.2545963	-6.1393391	97.161274
397	5	7	0.097862405	0.47525823	-3.7378297	96.864791
398	5	7	0.097862405	1.6627962	-3.5182444	95.539409
399	5	6	0.090196204	2.4160968	-4.3267735	98.441164
400	5	6	0.090196204	3.5429587	-3.8867265	97.105386
401	6	1	0.54478413	1.4736654	27.871623	4.2786089
402	6	2	-0.67473388	2.3049977	28.757128	4.6147299
403	6	3	-0.52004153	0.8736658	27.885048	2.9810453
404	6	4	0.032229704	1.1954873	28.918492	1.9978988
405	6	4	-0.14468821	0.41887033	28.69514	0.69639277
406	6	4	-0.14131789	0.76695474	29.768219	-0.34638064
407	6	4	-0.14131789	-0.12072326	29.69627	-1.6016321
408	6	4	-0.1433985	-0.016202467	28.382589	-2.3977521
409	6	4	0.026455286	1.3931408	28.123496	-2.9468935
410	6	3	-0.46344903	1.3985721	26.962876	-3.8362578
411	6	1	0.78832406	2.5940468	26.519818	-4.4843846
412	6	2	-0.60006088	3.6851938	27.124596	-4.307269
413	6	5	0.32812392	0.51892873	26.425862	-4.0129621
414	6	6	0.06061427	2.0932638	27.930815	-2.1071299
415	6	6	0.06061427	1.7419043	29.01631	-3.5108369
416	6	7	0.090906885	-0.34335921	27.524442	-1.7733412
417	6	7	0.090906885	-0.72247602	28.450473	-3.2528746
418	6	7	0.089623143	0.14644219	30.543248	-2.2716971
419	6	7	0.089623143	-1.1798693	29.844406	-1.3004753
420	6	7	0.089623143	1.8393481	29.692401	-0.62673797
421	6	7	0.089623143	0.62156059	30.771466	0.11003755
422	6	7	0.090906885	0.67643874	27.690689	0.29911414
423	6	7	0.090906885	-0.67218854	28.726615	0.91285727
424	6	6	0.057007489	0.93697393	29.914416	2.4187443
425	6	6	0.057007489	2.2874498	28.892066	1.7857582
426	6	5	0.32154306	0.18967089	27.129045	2.7492447
427	7	8	-0.49546808	2.5648091	25.691721	-5.1078809
428	7	4	0.11481594	1.3716814	25.780242	-5.8391039
429	7	4	-0.13550106	1.5231456	26.801007	-6.9721259
430	7	4	-0.14270477	0.20205249	27.08481	-7.7082605
431	7	4	0.036287122	-0.28210224	25.911086	-8.5678957
432	7	8	-0.16106582	-0.88533207	24.935371	-7.7649454
433	7	6	0.090196204	-1.0300931	26.292261	-9.2983503
434	7	6	0.090196204	0.56902057	25.472875	-9.1376948
435	7	7	0.097684842	0.36969996	27.955191	-8.379534
436	7	7	0.097684842	-0.58818646	27.377252	-6.9833047
437	7	7	0.096539234	1.8854654	27.759209	-6.5396117
438	7	7	0.096539234	2.2933583	26.449093	-7.6928405
439	7	6	0.090101783	0.52943758	26.062934	-5.1677524
440	7	6	0.090101783	1.155501	24.778314	-6.2640552
441	4	1	0.54478419	1.2125093	27.092723	4.9819489
442	4	2	-0.67473394	0.029768471	26.661121	5.0167892
443	4	3	-0.52004159	2.2159757	26.559802	5.8532995
444	4	4	0.032229711	1.9392181	25.505676	6.8275872
445	4	4	-0.14468821	1.1857647	26.074777	8.03406
446	4	4	-0.14113513	0.90811621	24.979564	9.075468
447	4	4	-0.13693685	0.27010614	25.531994	10.359844
448	4	4	-0.12112176	-1.1900789	25.966975	10.155968
449	4	4	0.18556474	-1.8418366	26.417454	11.472749
450	4	3	-0.62866807	-1.9473311	25.318567	12.428585
451	4	9	0.59418207	-2.7162177	24.324037	12.229833
452	4	2	-0.45163396	-3.4630194	23.355985	12.035097
453	4	6	0.034940683	-2.8535032	26.831198	11.26585
454	4	6	0.034940683	-1.233574	27.229265	11.925339
455	4	7	0.084525277	-1.2280272	26.82336	9.4498738
456	4	7	0.084525277	-1.7787827	25.133848	9.7146958
457	4	7	0.088336778	0.87075709	26.386616	10.741608
458	4	7	0.088336778	0.30493313	24.7282	11.127529
459	4	7	0.089623143	1.8697898	24.496022	9.3516421
460	4	7	0.089623143	0.25194	24.196717	8.6353827
461	4	7	0.090906885	0.22698706	26.513018	7.6880615
462	4	7	0.090906885	1.7983903	26.880993	8.494815
463	4	6	0.057007489	1.3489399	24.694809	6.3463147
464	4	6	0.057007489	2.9028397	25.070812	7.1702494
465	4	5	0.32154309	3.1980371	26.898898	5.7433774
466	5	8	-0.16106582	-1.1565041	24.202621	-8.3791314
467	5	4	0.036399671	-2.2913567	24.655532	-9.0669361
468	5	4	-0.13696523	-1.8815172	25.624557	-10.180823
469	5	4	-0.16401688	-3.0827337	26.299717	-10.864706
470	5	4	0.089908634	-3.9070413	25.344653	-11.733715
471	5	10	-0.67789841	-4.745745	24.558887	-10.933812
472	5	11	0.38817951	-5.2338928	23.956711	-11.553116
473	5	6	0.081897464	-4.5323659	25.948048	-12.430105
474	5	6	0.081897464	-3.2354597	24.697825	-12.341344
475	5	7	0.10014908	-2.6876033	27.106267	-11.521481
476	5	7	0.10014908	-3.7347593	26.78584	-10.106605
477	5	7	0.097862405	-1.2456567	26.422842	-9.7390214
478	5	7	0.097862405	-1.2657121	25.087765	-10.935796
479	5	6	0.090196204	-2.9987861	25.14855	-8.3601173
480	5	6	0.090196204	-2.7992423	23.772691	-9.5068317
481	6	1	0.54478413	3.8882919	23.861841	27.129438
482	6	2	-0.67473388	5.089245	24.080989	26.816554
483	6	3	-0.52004153	2.9463154	24.933868	27.214813
484	6	4	0.032229704	3.3333381	26.31814	26.946189
485	6	4	-0.14468821	2.1360868	27.260695	27.104671
486	6	4	-0.14131789	2.5333497	28.714323	26.806035
487	6	4	-0.14131789	1.4149309	29.721118	27.129003
488	6	4	-0.1433985	0.11874872	29.535336	26.319135
489	6	4	0.026455286	0.32431611	29.708919	24.808326
490	6	3	-0.46344903	-0.9576782	29.69734	24.105196
491	6	1	0.78832406	-1.0361908	29.85126	22.685451
492	6	2	-0.60006088	0.0067341046	30.005125	21.995262
493	6	5	0.32812392	-1.8511507	29.569687	24.633204
494	6	6	0.06061427	0.95131363	28.880279	24.417519
495	6	6	0.06061427	0.83877483	30.675162	24.612133
496	6	7	0.090906885	-0.32964952	28.541212	26.528882
497	6	7	0.090906885	-0.60814403	30.300029	26.667756
498	6	7	0.089623143	1.8033336	30.748582	26.952377
499	6	7	0.089623143	1.1699985	29.649911	28.210376
500	6	7	0.089623143	2.84689	28.812535	25.744704
501	6	7	0.089623143	3.4142322	28.98015	27.430009
502	6	7	0.090906885	1.3381697	26.939635	26.402288
503	6	7	0.090906885	1.7492253	27.186922	28.145418
504	6	6	0.057007489	4.1368031	26.615493	27.654589
505	6	6	0.057007489	3.7264518	26.391539	25.907845
506	6	5	0.32154306	1.9615712	24.701526	27.478284
507	7	8	-0.49546808	-1.9610076	29.836638	22.216573
508	7	4	0.11481594	-2.8418162	30.550958	23.041194
509	7	4	-0.13550106	-2.6219481	32.057496	22.86614
510	7	4	-0.14270477	-3.4269029	32.904412	23.867392
511	7	4	0.036287122	-4.9364944	32.896097	23.598933
512	7	8	-0.16106582	-5.5089218	31.70897	24.071893
513	7	6	0.090196204	-5.395709	33.757599	24.133054
514	7	6	0.090196204	-5.1356037	33.015738	22.509368
515	7	7	0.097684842	-3.0698747	33.95422	23.785473
516	7	7	0.097684842	-3.2232466	32.569013	24.907389
517	7	7	0.096539234	-1.543346	32.278556	23.021845
518	7	7	0.096539234	-2.8754343	32.354533	21.82498
519	7	6	0.090101783	-2.6974111	30.25546	24.105069
520	7	6	0.090101783	-3.8780588	30.286795	22.745226
521	4	1	0.54478419	3.5684164	22.849477	27.335287
522	4	2	-0.67473394	2.7141258	22.641394	28.237096
523	4	3	-0.52004159	4.1134015	21.765991	26.574202
524	4	4	0.032229711	3.7285631	20.372825	26.793297
525	4	4	-0.14468821	4.3941851	19.825357	28.059934
526	4	4	-0.14113513	4.0140134	18.354249	28.28889
527	4	4	-0.13693685	4.7627408	17.727068	29.475444
528	4	4	-0.12112176	4.2723217	18.257549	30.832276
529	4	4	0.18556474	4.9583334	17.543365	32.007418
530	4	3	-0.62866807	4.6137578	16.125158	32.05497
531	4	9	0.59418207	3.4352045	15.726658	32.323277
532	4	2	-0.45163396	2.2881452	15.339657	32.58259
533	4	6	0.034940683	4.6651074	18.03143	32.963071