Title

9375 atoms
9250 bonds
17125 angles
29875 dihedrals
1500 impropers

8 atom types
11 bond types
5 angle types
29 dihedral types
2 improper types
-11.54940033 88.45059967 xlo xhi
-10.66699982 89.33300018 ylo yhi
-11.93099976 88.06900024 zlo zhi
0.0 0.0 0.0 xy xz yz

Masses

1	15.99943
2	12.01078
3	1.007947
4	12.01078
5	15.99943
6	1.007947
7	15.99943
8	1.007947


Pair Coeffs

1	0.16846514	3.0251065
2	0.10884061	3.3795318
3	0.016409246	2.5832257
4	0.086879315	3.4806469
5	0.2102061	3.0398122
6	0.015779483	2.6445434
7	0.20947353	2.99716
8	1.2326e-05	0.53453923

Bond Coeffs

1 harmonic	366.7408841747	1.425895053732
2 harmonic	300.03137914615	1.451203938761
3 harmonic	264.62148576755	1.52190126495
4 harmonic	370.04670688625	1.093899492634
5 harmonic	301.15400723785	1.345741232799
6 harmonic	582.698766451	1.225198386222
7 harmonic	329.44145381095	1.523435958334
8 harmonic	279.1350963404	1.454628925034
9 harmonic	329.96998057905	1.427343958716
10 harmonic	543.5267831885	0.9716763312559
11 harmonic	385.7604595587	1.369745182308


Angle Coeffs

1 harmonic	53.20531626545	116.5475862634
2 harmonic	65.09061609600001	110.3538806181
3 harmonic	201.41175231035	127.4691416191
4 harmonic	57.8982893754	126.8062420451
5 harmonic	48.776492647595	115.6030999533


Dihedral Coeffs

1 fourier 1	-0.0309670556842	3	0
2 fourier 1	0.4598191477945	2	0
3 fourier 1	0.1115525666802	3	0
4 fourier 1	0.3432490222662	1	0
5 fourier 1	0.0473758381877	3	0
6 fourier 1	0.457973137376	1	0
7 fourier 1	0.1918272375143	3	0
8 fourier 1	0.9202179876409	1	180
9 fourier 1	1.163809172478	2	180
10 fourier 1	0.1679186987369	1	180
11 fourier 1	2.779853741805	2	180
12 fourier 1	0.02664938770063	3	0
13 fourier 1	0.1911926717192	3	0
14 fourier 1	0.1155372516788	3	0
15 fourier 1	-0.3703352413219	2	0
16 fourier 1	0.4541676554336	1	0
17 fourier 1	0.1489710476446	2	0
18 fourier 1	0.02960027280666	3	180
19 fourier 1	0.09223874044423	3	0
20 fourier 1	0.3159935921949	2	180
21 fourier 1	0.3247796806857	1	180
22 fourier 1	0.1040663847541	3	0
23 fourier 1	0.9974165607242	2	180
24 fourier 1	0.3445382149273	3	0
25 fourier 1	0.1364556373303	1	0
26 fourier 1	0.3026390167484	3	0
27 fourier 1	2.687457892086	2	180
28 fourier 1	2.772607909663	2	180
29 fourier 1	0.09692684957115	1	0


Improper Coeffs

1 3.5	-1	2
2 0.3666666666666667	-1	2


Atoms

1	4	1	-0.16472	-4.5648999	3.2578001	3.4898
2	4	2	0.046806999	-3.944	3.6094999	4.6959
3	4	2	0.148399	-2.7328999	2.7128	4.9506998
4	4	1	-0.49546099	-2.1530001	3.0195999	6.1887999
5	4	3	0.080751002	-3.0592	1.6519001	4.9646001
6	4	3	0.080751002	-1.9864	2.8338001	4.132
7	4	3	0.079883002	-4.6754999	3.4800999	5.5219998
8	4	3	0.079883002	-3.6340001	4.6795998	4.6750002
9	5	4	0.76071	-1.6191	3.9022	6.0569
10	5	5	-0.55721098	-2.0771999	4.9454999	6.4935999
11	5	2	-0.208883	-0.3017	3.9058001	5.3400998
12	5	2	-0.115766	0.088100001	2.4906001	4.8881998
13	5	2	-0.136438	1.4858	2.4347	4.2514
14	5	2	-0.14177801	1.5044	3.003	2.8217001
15	5	2	-0.14177801	2.9186001	3.0451	2.2121999
16	5	2	-0.13909499	3.6008	1.6752	2.0473001
17	5	2	-0.097433001	2.8280001	0.72729999	1.1172
18	5	2	-0.25790799	3.6375999	-0.54280001	0.833
19	5	4	0.51663399	2.8822	-1.4798	-0.0614
20	5	5	-0.69057298	3.3807001	-2.5448	-0.38850001
21	5	6	0.113148	4.5962	-0.273	0.33860001
22	5	6	0.113148	3.8634	-1.0625	1.7895
23	5	6	0.076366	1.8685	0.4377	1.5961
24	5	6	0.076366	2.6092999	1.2460001	0.1575
25	5	6	0.078057997	4.6108999	1.8545001	1.6174001
26	5	6	0.078057997	3.7526	1.1967	3.0380001
27	5	6	0.07993	2.8580999	3.5367	1.2157
28	5	6	0.07993	3.5646999	3.6873	2.8489001
29	5	6	0.07993	0.82200003	2.4191	2.1694
30	5	6	0.07993	1.125	4.0461001	2.8352001
31	5	6	0.078057997	2.2165999	2.9784	4.8902001
32	5	6	0.078057997	1.7918	1.3676	4.2178998
33	5	6	0.085144997	0.090899996	1.8231	5.7795
34	5	6	0.085144997	-0.66979998	2.0968001	4.1753998
35	5	6	0.116335	0.47600001	4.3070002	6.0251002
36	5	6	0.116335	-0.38499999	4.5784998	4.4617
37	1	1	-0.15889101	-3.9988	3.6263001	2.7616
38	1	2	0.016736999	-4.6989999	4.7132001	2.2212
39	1	2	0.088722996	-5.8339	4.2210002	1.3233
40	1	7	-0.68820798	-6.4909	5.3073001	0.72939998
41	1	8	0.380896	-7.0686002	5.7076001	1.4315
42	1	3	0.075742997	-5.4126	3.5790999	0.52079999
43	1	3	0.075742997	-6.5524998	3.6085999	1.9138
44	1	3	0.080536999	-3.9944	5.3242002	1.6174999
45	1	3	0.080536999	-5.1040001	5.3573999	3.0351
46	2	4	0.51663399	1.8915	-1.2259001	-0.42550001
47	2	5	-0.69057298	0.90719998	-1.6573	0.15459999
48	2	2	-0.25790799	1.7397	-0.33579999	-1.6243
49	2	2	-0.097433001	1.0735	-1.0626	-2.8009
50	2	2	-0.13909499	1.9655	-2.1737001	-3.3759
51	2	2	-0.14177801	1.2952	-2.8501999	-4.5780001
52	2	2	-0.14177801	2.1819999	-3.9691	-5.1426001
53	2	2	-0.136438	1.6133	-4.5846	-6.4310002
54	2	2	-0.113232	0.37079999	-5.4555001	-6.1715002
55	2	2	-0.21898	-0.14120001	-6.1272001	-7.4523001
56	2	4	0.82335401	0.79449999	-7.1939998	-7.9331999
57	2	5	-0.558779	1.5422	-6.9796	-8.9249001
58	2	7	-0.66596699	0.85509998	-8.4139004	-7.2666998
59	2	8	0.393462	1.4903001	-9.1417999	-7.572
60	2	6	0.117355	-1.1266	-6.5952001	-7.2428002
61	2	6	0.117355	-0.2976	-5.3653002	-8.2477999
62	2	6	0.085144997	0.60070002	-6.2312002	-5.4085999
63	2	6	0.085144997	-0.44760001	-4.8193002	-5.7754002
64	2	6	0.078057997	1.3671	-3.7787001	-7.1571999
65	2	6	0.078057997	2.4087999	-5.2146001	-6.8846002
66	2	6	0.07993	2.3255999	-4.7635999	-4.3772001
67	2	6	0.07993	3.184	-3.5476999	-5.3793998
68	2	6	0.07993	0.3202	-3.2716	-4.2530999
69	2	6	0.07993	1.1095999	-2.0908	-5.3687
70	2	6	0.078057997	2.1614001	-2.9366	-2.5906
71	2	6	0.078057997	2.9367001	-1.7359999	-3.6935999
72	2	6	0.076366	0.0986	-1.4886	-2.4748001
73	2	6	0.076366	0.86720002	-0.31560001	-3.5985
74	2	6	0.113148	2.7385001	0.0407	-1.9329
75	2	6	0.113148	1.1205	0.54140002	-1.3401999
76	4	1	-0.16472	-0.75800002	1.7645	30.2472
77	4	2	0.046806999	-1.3219	3.0471001	30.220301
78	4	2	0.148399	-1.0625	3.7126999	28.8692
79	4	1	-0.49546099	-1.5671	5.0198998	28.8668
80	4	3	0.080751002	0.031500001	3.7541001	28.685499
81	4	3	0.080751002	-1.5279	3.1157	28.0513
82	4	3	0.079883002	-0.85570002	3.6561999	31.024
83	4	3	0.079883002	-2.4168999	2.9935999	30.42
84	5	4	0.76071	-2.5987	4.9405999	28.7617
85	5	5	-0.55721098	-3.3116	5.1224999	29.735201
86	5	2	-0.208883	-3.2145	4.6066999	27.4356
87	5	2	-0.115766	-2.1394999	4.4323001	26.3526
88	5	2	-0.136438	-2.7365	4.2030001	24.955
89	5	2	-0.14177801	-3.2874	2.7774999	24.777
90	5	2	-0.14177801	-3.9786	2.5680001	23.4163
91	5	2	-0.13909499	-3.0688	2.7416999	22.186899
92	5	2	-0.097433001	-1.8976001	1.7476	22.160999
93	5	2	-0.25790799	-1.1373	1.8303	20.8326
94	5	4	0.51663399	0.017200001	0.87379998	20.806801
95	5	5	-0.69057298	0.73390001	0.80989999	19.820999
96	5	6	0.113148	-1.823	1.5844001	19.992701
97	5	6	0.113148	-0.75190002	2.8631001	20.6877
98	5	6	0.076366	-1.1942	1.9807	22.9884
99	5	6	0.076366	-2.2853999	0.71380001	22.298401
100	5	6	0.078057997	-3.6954	2.5811	21.282
101	5	6	0.078057997	-2.6859	3.7829001	22.1329
102	5	6	0.07993	-4.4145999	1.5444	23.3967
103	5	6	0.07993	-4.8271999	3.2807	23.331499
104	5	6	0.07993	-2.4747	2.0337999	24.913799
105	5	6	0.07993	-4.0461998	2.5754001	25.5616
106	5	6	0.078057997	-3.5353999	4.9510002	24.755501
107	5	6	0.078057997	-1.9237	4.3688998	24.2166
108	5	6	0.085144997	-1.5232	5.3590002	26.313801
109	5	6	0.085144997	-1.4638	3.5899	26.619699
110	5	6	0.116335	-3.9064	5.427	27.1469
111	5	6	0.116335	-3.7988	3.6703	27.548901
112	1	1	-0.15889101	-1.3602999	1.1788	29.717501
113	1	2	0.016736999	-2.0271001	0.35569999	30.634899
114	1	2	0.088722996	-1.0982	-0.75419998	31.126301
115	1	7	-0.68820798	-1.7852	-1.6168	31.9914
116	1	8	0.380896	-1.864	-1.1428	32.860901
117	1	3	0.075742997	-0.73580003	-1.3397	30.254999
118	1	3	0.075742997	-0.2128	-0.31459999	31.639299
119	1	3	0.080536999	-2.9052	-0.1	30.129499
120	1	3	0.080536999	-2.3986001	0.95639998	31.496599
121	2	4	0.51663399	0.2289	0.2324	21.6567
122	2	5	-0.69057298	1.0725	0.5711	22.4722
123	2	2	-0.25790799	-0.52640003	-1.0527	21.831499
124	2	2	-0.097433001	0.39340001	-2.2783999	21.7407
125	2	2	-0.13909499	0.96740001	-2.4691999	20.3284
126	2	2	-0.14177801	1.8434	-3.7258999	20.256001
127	2	2	-0.14177801	2.427	-3.9073	18.847401
128	2	2	-0.136438	3.2005999	-5.2261	18.6905
129	2	2	-0.113232	4.5448999	-5.2156	19.440599
130	2	2	-0.21898	5.3432002	-6.5057001	19.2129
131	2	4	0.82335401	5.8603001	-6.5995998	17.809799
132	2	5	-0.558779	5.3069	-7.3720999	16.982
133	2	7	-0.66596699	6.9376001	-5.8126001	17.4147
134	2	8	0.393462	7.2925	-5.8555999	16.4667
135	2	6	0.117355	6.2107	-6.5180998	19.906601
136	2	6	0.117355	4.7145	-7.3920999	19.4513
137	2	6	0.085144997	5.152	-4.3393002	19.1241
138	2	6	0.085144997	4.3566999	-5.1245999	20.5305
139	2	6	0.078057997	2.5748999	-6.0748	19.044701
140	2	6	0.078057997	3.3922	-5.3787999	17.6063
141	2	6	0.07993	3.0897999	-3.0497	18.596901
142	2	6	0.07993	1.5929	-3.9116001	18.111401
143	2	6	0.07993	2.6675999	-3.6301	20.9944
144	2	6	0.07993	1.2302001	-4.6152	20.519501
145	2	6	0.078057997	1.579	-1.582	20.0529
146	2	6	0.078057997	0.13060001	-2.5609	19.602301
147	2	6	0.076366	1.2215	-2.1809001	22.477501
148	2	6	0.076366	-0.1997	-3.1784999	22.014601
149	2	6	0.113148	-1.3207999	-1.1217999	21.057699
150	2	6	0.113148	-1.0222	-1.0419	22.825199
151	4	1	-0.16472	-3.4711001	3.1942999	43.230801
152	4	2	0.046806999	-2.7795	4.3895001	42.992199
153	4	2	0.148399	-1.8707	4.7221999	44.175098
154	4	1	-0.49546099	-1.2311	5.9513001	43.965801
155	4	3	0.080751002	-2.4828	4.7932	45.0984
156	4	3	0.080751002	-1.1181999	3.9131999	44.320801
157	4	3	0.079883002	-3.5199001	5.2069001	42.8582
158	4	3	0.079883002	-2.1803999	4.3106999	42.055901
159	5	4	0.76071	-0.4698	5.7775002	43.279099
160	5	5	-0.55721098	-0.61650002	6.1413002	42.1236
161	5	2	-0.208883	0.79699999	5.0886998	43.6912
162	5	2	-0.115766	0.77350003	4.7305999	45.184502
163	5	2	-0.136438	2.1005001	4.1269002	45.6712
164	5	2	-0.14177801	2.2822001	2.6663001	45.222801
165	5	2	-0.14177801	3.6524999	2.0843	45.6185
166	5	2	-0.13909499	3.9216001	2.0158	47.1325
167	5	2	-0.097433001	2.9154	1.1289001	47.881901
168	5	2	-0.25790799	3.3350999	0.93790001	49.3438
169	5	4	0.51663399	2.3487	0.086199999	50.0854
170	5	5	-0.69057298	2.5278001	-0.1662	51.265999
171	5	6	0.113148	4.3322001	0.44780001	49.386101
172	5	6	0.113148	3.4029	1.9283	49.844299
173	5	6	0.076366	1.9119999	1.6047	47.859299
174	5	6	0.076366	2.8541999	0.1354	47.384602
175	5	6	0.078057997	4.9424	1.5966001	47.2719
176	5	6	0.078057997	3.9298999	3.0364001	47.570599
177	5	6	0.07993	3.7356	1.0591	45.193901
178	5	6	0.07993	4.4517002	2.6942999	45.144798
179	5	6	0.07993	1.4646	2.0365	45.6315
180	5	6	0.07993	2.2119999	2.6094999	44.116402
181	5	6	0.078057997	2.9532001	4.7466002	45.315498
182	5	6	0.078057997	2.0934999	4.1637998	46.7812
183	5	6	0.085144997	0.58590001	5.6602001	45.768101
184	5	6	0.085144997	-0.062799998	4.0275002	45.393902
185	5	6	0.116335	1.6545	5.7641001	43.482201
186	5	6	0.116335	0.90890002	4.1700001	43.079201
187	1	1	-0.15889101	-2.8223	2.457	43.083199
188	1	2	0.016736999	-3.1865001	1.8381	41.879799
189	1	2	0.088722996	-4.4116998	0.94849998	42.0891
190	1	7	-0.68820798	-4.7344999	0.27720001	40.901798
191	1	8	0.380896	-5.1778002	0.94209999	40.311699
192	1	3	0.075742997	-4.1862001	0.1948	42.873001
193	1	3	0.075742997	-5.2753	1.5599999	42.436199
194	1	3	0.080536999	-2.3367	1.2133	41.530998
195	1	3	0.080536999	-3.3956001	2.6034999	41.097599
196	2	4	0.51663399	1.4706	-0.31259999	49.586899
197	2	5	-0.69057298	0.40310001	0.27219999	49.686699
198	2	2	-0.25790799	1.5788	-1.5655	48.767799
199	2	2	-0.097433001	0.73799998	-2.7096	49.351101
200	2	2	-0.13909499	1.2822	-3.1986001	50.702202
201	2	2	-0.14177801	0.45159999	-4.3713002	51.237801
202	2	2	-0.14177801	0.98869997	-4.8495998	52.594299
203	2	2	-0.136438	0.273	-6.1100001	53.1054
204	2	2	-0.113232	-1.1653	-5.8239999	53.573799
205	2	2	-0.21898	-1.8424	-7.0723	54.154301
206	2	4	0.82335401	-1.2438999	-7.4692001	55.469299
207	2	5	-0.558779	-0.46360001	-8.4565001	55.5369
208	2	7	-0.66596699	-1.5312001	-6.7294998	56.612301
209	2	8	0.393462	-1.126	-6.9776001	57.507099
210	2	6	0.117355	-2.9203	-6.8551002	54.312199
211	2	6	0.117355	-1.7758	-7.9152002	53.431099
212	2	6	0.085144997	-1.1652	-5.0114002	54.332901
213	2	6	0.085144997	-1.7723	-5.4835	52.7094
214	2	6	0.078057997	0.26570001	-6.8881001	52.310501
215	2	6	0.078057997	0.8599	-6.5086002	53.960999
216	2	6	0.07993	0.90069997	-4.0351	53.346901
217	2	6	0.07993	2.0694001	-5.0907998	52.487301
218	2	6	0.07993	-0.60350001	-4.0416002	51.346802
219	2	6	0.07993	0.4896	-5.2097998	50.508499
220	2	6	0.078057997	1.2532001	-2.3650999	51.438099
221	2	6	0.078057997	2.3383	-3.5222001	50.576099
222	2	6	0.076366	-0.31830001	-2.3784001	49.464401
223	2	6	0.076366	0.7525	-3.5546999	48.6283
224	2	6	0.113148	2.6440001	-1.8758	48.7075
225	2	6	0.113148	1.2311	-1.3472	47.735802
226	4	1	-0.16472	0.954	-6.1651001	69.610901
227	4	2	0.046806999	-0.32089999	-6.7399998	69.522499
228	4	2	0.148399	-1.3097	-5.9766998	70.403
229	4	1	-0.49546099	-2.5678999	-6.5924001	70.367203
230	4	3	0.080751002	-0.94349998	-5.9779	71.450897
231	4	3	0.080751002	-1.3865	-4.9173999	70.065102
232	4	3	0.079883002	-0.25940001	-7.7936001	69.869499
233	4	3	0.079883002	-0.67119998	-6.7458	68.4646
234	5	4	0.76071	-2.9995	-6.335	69.456802
235	5	5	-0.55721098	-3.0413001	-7.1643	68.562599
236	5	2	-0.208883	-3.5664001	-4.9646001	69.233002
237	5	2	-0.115766	-3.4191999	-4.0914998	70.4879
238	5	2	-0.136438	-4.0913	-2.7175	70.337303
239	5	2	-0.14177801	-3.2763	-1.7574	69.4534
240	5	2	-0.14177801	-3.9895	-0.41330001	69.213097
241	5	2	-0.13909499	-4.2526999	0.42289999	70.478203
242	5	2	-0.097433001	-2.9642	0.8175	71.2164
243	5	2	-0.25790799	-3.2625	1.8032	72.351799
244	5	4	0.51663399	-2.0111001	2.1801	73.086899
245	5	5	-0.69057298	-2.0666001	2.9579	74.025703
246	5	6	0.113148	-3.7232001	2.7255001	71.9356
247	5	6	0.113148	-3.9753001	1.3408	73.068901
248	5	6	0.076366	-2.4909	-0.0898	71.6483
249	5	6	0.076366	-2.2548001	1.2871	70.499298
250	5	6	0.078057997	-4.7828999	1.3485	70.162903
251	5	6	0.078057997	-4.9345999	-0.1204	71.166298
252	5	6	0.07993	-3.3759	0.18970001	68.507202
253	5	6	0.07993	-4.961	-0.60759997	68.709503
254	5	6	0.07993	-2.2737999	-1.5864	69.898201
255	5	6	0.07993	-3.1136	-2.2216001	68.458298
256	5	6	0.078057997	-5.1178999	-2.8395	69.926399
257	5	6	0.078057997	-4.1820998	-2.2802	71.354103
258	5	6	0.085144997	-3.9021001	-4.6169	71.342796
259	5	6	0.085144997	-2.3427999	-3.9623001	70.737198
260	5	6	0.116335	-4.6416001	-5.0620999	68.969398
261	5	6	0.116335	-3.0302999	-4.5011001	68.379402
262	1	1	-0.15889101	0.93089998	-5.3383002	69.060898
263	1	2	0.016736999	1.6827	-5.6030998	67.908401
264	1	2	0.088722996	3.1770999	-5.5556002	68.225998
265	1	7	-0.68820798	3.9293001	-5.7529001	67.059799
266	1	8	0.380896	3.8882	-6.7245998	66.857002
267	1	3	0.075742997	3.4296999	-4.5592999	68.646797
268	1	3	0.075742997	3.4324	-6.3270001	68.987396
269	1	3	0.080536999	1.4467	-4.8305001	67.145699
270	1	3	0.080536999	1.4102	-6.5978999	67.487198
271	2	4	0.51663399	-1.0489	1.7695	72.7967
272	2	5	-0.69057298	-0.60329998	0.80010003	73.3909
273	2	2	-0.25790799	-0.28459999	2.3836999	71.6605
274	2	2	-0.097433001	1.0504	2.9844999	72.122299
275	2	2	-0.13909499	0.85219997	4.2063999	73.032402
276	2	2	-0.14177801	2.2005	4.8133001	73.439598
277	2	2	-0.14177801	2.0007	6.0258999	74.359901
278	2	2	-0.136438	3.3176999	6.7491002	74.683601
279	2	2	-0.113232	4.2142	5.9439001	75.641502
280	2	2	-0.21898	5.4891	6.7090998	76.019203
281	2	4	0.82335401	5.1932001	7.8797998	76.906303
282	2	5	-0.558779	5.2131	9.0495005	76.437599
283	2	7	-0.66596699	4.8709002	7.6711998	78.243698
284	2	8	0.393462	4.6571002	8.4509001	78.854301
285	2	6	0.117355	6.1718998	6.0222001	76.563301
286	2	6	0.117355	6.0194001	7.0462999	75.101097
287	2	6	0.085144997	3.6494	5.6805	76.5625
288	2	6	0.085144997	4.5229001	4.9987998	75.148499
289	2	6	0.078057997	3.8685999	6.9686999	73.7425
290	2	6	0.078057997	3.0618999	7.7210999	75.158203
291	2	6	0.07993	1.503	5.7096	75.303299
292	2	6	0.07993	1.3277	6.7530999	73.854202
293	2	6	0.07993	2.7976	4.0377002	73.9646
294	2	6	0.07993	2.7505	5.1289001	72.526199
295	2	6	0.078057997	0.29800001	3.9021001	73.947601
296	2	6	0.078057997	0.2516	4.9710002	72.493401
297	2	6	0.076366	1.6472	2.2090001	72.652
298	2	6	0.076366	1.6222	3.2946	71.2202
299	2	6	0.113148	-0.90490001	3.1715	71.1819
300	2	6	0.113148	-0.087300003	1.5994999	70.899101
301	4	1	-0.16472	1.3818001	2.7997999	101.5298
302	4	2	0.046806999	0.1488	2.9698	102.1737
303	4	2	0.148399	-0.9896	2.9507999	101.1541
304	4	1	-0.49546099	-2.2154	3.1886001	101.79
305	4	3	0.080751002	-0.81980002	3.7481999	100.4008
306	4	3	0.080751002	-1.0122	1.9719	100.6219
307	4	3	0.079883002	0.15459999	3.9495001	102.6976
308	4	3	0.079883002	-0.0035999999	2.1721001	102.9368
309	5	4	0.76071	-2.4765	2.3055	102.2729
310	5	5	-0.55721098	-2.3485	2.2293999	103.4841
311	5	2	-0.208883	-3.0043001	1.1325999	101.5015
312	5	2	-0.115766	-3.0945001	1.4500999	100.0016
313	5	2	-0.136438	-3.7390001	0.31369999	99.191902
314	5	2	-0.14177801	-2.7846999	-0.87510002	98.983498
315	5	2	-0.14177801	-3.4532001	-2.0604	98.261398
316	5	2	-0.13909499	-3.9484999	-1.7621	96.8349
317	5	2	-0.097433001	-2.8187001	-1.3414	95.882401
318	5	2	-0.25790799	-3.3261001	-1.2431	94.439301
319	5	4	0.51663399	-2.2321	-0.81720001	93.5065
320	5	5	-0.69057298	-2.4633999	-0.68620002	92.3153
321	5	6	0.113148	-3.711	-2.2327001	94.109497
322	5	6	0.113148	-4.1535001	-0.5025	94.385002
323	5	6	0.076366	-2.4245	-0.3493	96.189102
324	5	6	0.076366	-1.9946001	-2.0874	95.9319
325	5	6	0.078057997	-4.4200001	-2.6905	96.443802
326	5	6	0.078057997	-4.7396998	-0.98280001	96.855003
327	5	6	0.07993	-2.7263999	-2.902	98.218903
328	5	6	0.07993	-4.3154998	-2.4103999	98.869003
329	5	6	0.07993	-1.8811001	-0.54710001	98.428497
330	5	6	0.07993	-2.4403	-1.2481	99.970596
331	5	6	0.078057997	-4.6729002	-0.026699999	99.691498
332	5	6	0.078057997	-4.0163999	0.7299	98.200302
333	5	6	0.085144997	-3.7203	2.3617001	99.870102
334	5	6	0.085144997	-2.0822999	1.6761	99.599197
335	5	6	0.116335	-4.0128999	0.87459999	101.8904
336	5	6	0.116335	-2.3257999	0.27110001	101.6701
337	1	1	-0.15889101	1.4523	1.8355	101.3025
338	1	2	0.016736999	2.4031	1.2873	102.174
339	1	2	0.088722996	3.8145001	1.6713001	101.7304
340	1	7	-0.68820798	4.7674999	1.0671999	102.5619
341	1	8	0.380896	4.7716999	1.584	103.4104
342	1	3	0.075742997	3.9784	1.3206	100.6895
343	1	3	0.075742997	3.9333999	2.7785001	101.7445
344	1	3	0.080536999	2.3032999	0.18099999	102.1572
345	1	3	0.080536999	2.2195001	1.6344	103.2167
346	2	4	0.51663399	-1.23	-0.62120003	93.875099
347	2	5	-0.69057298	-0.89200002	0.52630001	94.121101
348	2	2	-0.25790799	-0.27689999	-1.7595	94.094902
349	2	2	-0.097433001	0.94709998	-1.6724	93.1726
350	2	2	-0.13909499	0.5772	-1.8849	91.696602
351	2	2	-0.14177801	1.8242	-1.8394001	90.805
352	2	2	-0.14177801	1.4507999	-2.0383999	89.329102
353	2	2	-0.136438	2.6812999	-2.1364999	88.413399
354	2	2	-0.113232	3.3952999	-0.78420001	88.236
355	2	2	-0.21898	4.5742998	-0.87779999	87.258797
356	2	4	0.82335401	4.1128001	-1.084	85.848297
357	2	5	-0.558779	4.2080998	-2.2202001	85.311302
358	2	7	-0.66596699	3.5546	-0.0242	85.140404
359	2	8	0.393462	3.2272999	-0.1494	84.189796
360	2	6	0.117355	5.1524	0.069799997	87.302299
361	2	6	0.117355	5.2598	-1.6993999	87.5634
362	2	6	0.085144997	2.6747999	-0.0156	87.880203
363	2	6	0.085144997	3.796	-0.4492	89.215103
364	2	6	0.078057997	3.3921001	-2.8910999	88.816299
365	2	6	0.078057997	2.3357	-2.4964001	87.420097
366	2	6	0.07993	0.79259998	-1.2089	88.987999
367	2	6	0.07993	0.875	-2.9849999	89.229202
368	2	6	0.07993	2.3220999	-0.85530001	90.936996
369	2	6	0.07993	2.5283999	-2.6403	91.119598
370	2	6	0.078057997	-0.13160001	-1.091	91.3731
371	2	6	0.078057997	0.078299999	-2.8717999	91.582497
372	2	6	0.076366	1.4439	-0.68510002	93.301399
373	2	6	0.076366	1.6707	-2.4586999	93.480797
374	2	6	0.113148	-0.80629998	-2.7216001	93.925797
375	2	6	0.113148	0.061700001	-1.7411	95.152496
376	4	1	-0.16472	0.037999999	30.0508	-2.4760001
377	4	2	0.046806999	-0.7651	30.0035	-3.6234
378	4	2	0.148399	-0.88669997	28.565701	-4.1272998
379	4	1	-0.49546099	-1.6332	28.5277	-5.3125
380	4	3	0.080751002	0.12710001	28.163	-4.3333001
381	4	3	0.080751002	-1.3615	27.924801	-3.3491001
382	4	3	0.079883002	-0.29449999	30.629101	-4.4116001
383	4	3	0.079883002	-1.7747	30.423201	-3.4078
384	5	4	0.76071	-2.6303999	28.640499	-5.0398998
385	5	5	-0.55721098	-3.1814001	29.7127	-5.2294002
386	5	2	-0.208883	-3.3924999	27.5072	-4.4201002
387	5	2	-0.115766	-2.5134001	26.254999	-4.2859998
388	5	2	-0.136438	-3.2908001	25.0373	-3.7614
389	5	2	-0.14177801	-3.5702	25.1236	-2.2507999
390	5	2	-0.14177801	-4.4358001	23.958599	-1.7343
391	5	2	-0.13909499	-3.8110001	22.560499	-1.8898
392	5	2	-0.097433001	-2.4892001	22.4044	-1.1224
393	5	2	-0.25790799	-2.0079	20.949301	-1.1490999
394	5	4	0.51663399	-0.70959997	20.792801	-0.41549999
395	5	5	-0.69057298	-0.1807	19.695499	-0.33989999
396	5	6	0.113148	-2.7688	20.294399	-0.67129999
397	5	6	0.113148	-1.8673	20.622801	-2.2025001
398	5	6	0.076366	-1.7108999	23.045	-1.589
399	5	6	0.076366	-2.6331999	22.724199	-0.066399999
400	5	6	0.078057997	-4.5433998	21.821501	-1.4963
401	5	6	0.078057997	-3.6582999	22.3221	-2.9638
402	5	6	0.07993	-4.6560998	24.134001	-0.6577
403	5	6	0.07993	-5.4103999	23.9716	-2.2683001
404	5	6	0.07993	-2.6148	25.1716	-1.6876
405	5	6	0.07993	-4.1224999	26.0611	-2.0315001
406	5	6	0.078057997	-4.2448001	24.9249	-4.3224001
407	5	6	0.078057997	-2.671	24.137699	-3.9614
408	5	6	0.085144997	-2.1103001	25.9967	-5.2914
409	5	6	0.085144997	-1.6474	26.4678	-3.6208999
410	5	6	0.116335	-4.2736001	27.2789	-5.0577998
411	5	6	0.116335	-3.7497001	27.832701	-3.4214001
412	1	1	-0.15889101	-0.5201	29.716801	-1.7253
413	1	2	0.016736999	-0.8369	30.830299	-0.9357
414	1	2	0.088722996	0.3662	31.238899	-0.085900001
415	1	7	-0.68820798	0.0284	32.309502	0.75330001
416	1	8	0.380896	0.0123	33.1227	0.18279999
417	1	3	0.075742997	0.67750001	30.378799	0.54390001
418	1	3	0.075742997	1.2230999	31.514999	-0.74129999
419	1	3	0.080536999	-1.6822	30.5618	-0.26679999
420	1	3	0.080536999	-1.1617	31.681299	-1.5773
421	2	4	0.51663399	-0.2277	21.6453	0.052999999
422	2	5	-0.69057298	0.6627	22.2351	-0.5395
423	2	2	-0.25790799	-0.66939998	22.1015	1.4128
424	2	2	-0.097433001	0.44459999	21.9569	2.4591
425	2	2	-0.13909499	0.78570002	20.486099	2.7432001
426	2	2	-0.14177801	1.8671	20.3713	3.8247001
427	2	2	-0.14177801	2.2162001	18.9013	4.0976
428	2	2	-0.136438	3.1961	18.7313	5.2694001
429	2	2	-0.113232	4.6227002	19.191299	4.9183002
430	2	2	-0.21898	5.6080999	18.944401	6.0678
431	2	4	0.82335401	5.8768001	17.483801	6.2663002
432	2	5	-0.558779	5.3502002	16.8692	7.2323999
433	2	7	-0.66596699	6.6890001	16.8006	5.3663998
434	2	8	0.393462	6.8716998	15.8105	5.4797001
435	2	6	0.117355	6.5696998	19.447399	5.8305001
436	2	6	0.117355	5.2203999	19.3955	7.0081
437	2	6	0.085144997	4.9777002	18.6696	4.0026999
438	2	6	0.085144997	4.6162	20.2812	4.7093
439	2	6	0.078057997	2.8243999	19.2906	6.1560998
440	2	6	0.078057997	3.2191	17.6528	5.5372
441	2	6	0.07993	2.6403999	18.434601	3.1810999
442	2	6	0.07993	1.2826999	18.351999	4.3512998
443	2	6	0.07993	2.7732	20.9154	3.4832001
444	2	6	0.07993	1.4993	20.844101	4.7614999
445	2	6	0.078057997	1.1502	20.002199	1.8104
446	2	6	0.078057997	-0.1312	19.9561	3.0811999
447	2	6	0.076366	1.354	22.498301	2.1154001
448	2	6	0.076366	0.1003	22.4368	3.4014001
449	2	6	0.113148	-1.5584	21.514299	1.728
450	2	6	0.113148	-0.9734	23.167801	1.3493
451	4	1	-0.16472	-1.7158	29.385099	27.228399
452	4	2	0.046806999	-2.6419001	30.049101	26.4128
453	4	2	0.148399	-2.5021	29.584299	24.9636
454	4	1	-0.49546099	-3.3812001	30.2973	24.137699
455	4	3	0.080751002	-1.4631	29.7682	24.6187
456	4	3	0.080751002	-2.7019999	28.4904	24.8901
457	4	3	0.079883002	-2.4439001	31.1409	26.4678
458	4	3	0.079883002	-3.6793001	29.8685	26.777399
459	5	4	0.76071	-4.3284998	29.899	24.2971
460	5	5	-0.55721098	-5.1311002	30.5243	24.970699
461	5	2	-0.208883	-4.7150998	28.573099	23.7124
462	5	2	-0.115766	-3.5632	27.969999	22.895
463	5	2	-0.136438	-3.9588001	26.665899	22.184299
464	5	2	-0.14177801	-4.0324001	25.469101	23.1486
465	5	2	-0.14177801	-4.5261002	24.179399	22.4659
466	5	2	-0.13909499	-3.6271	23.653799	21.3325
467	5	2	-0.097433001	-2.2090001	23.2992	21.805799
468	5	2	-0.25790799	-1.4168	22.6045	20.692499
469	5	4	0.51663399	-0.0262	22.27	21.142599
470	5	5	-0.69057298	0.74470001	21.7134	20.377501
471	5	6	0.113148	-1.9319	21.664499	20.396999
472	5	6	0.113148	-1.3568	23.272301	19.8057
473	5	6	0.076366	-1.6724	24.226601	22.0986
474	5	6	0.076366	-2.2704	22.624701	22.688601
475	5	6	0.078057997	-4.1073999	22.7383	20.9221
476	5	6	0.078057997	-3.5785999	24.3913	20.503401
477	5	6	0.07993	-4.625	23.3866	23.240601
478	5	6	0.07993	-5.5437999	24.357401	22.056101
479	5	6	0.07993	-3.0431001	25.298599	23.622299
480	5	6	0.07993	-4.7473001	25.6984	23.9662
481	5	6	0.078057997	-4.9317999	26.797899	21.661501
482	5	6	0.078057997	-3.1849	26.4603	21.4149
483	5	6	0.085144997	-3.2592001	28.705601	22.116301
484	5	6	0.085144997	-2.6831	27.7924	23.5518
485	5	6	0.116335	-5.6023002	28.7166	23.058599
486	5	6	0.116335	-4.9912	27.892799	24.5443
487	1	1	-0.15889101	-2.0699	28.4683	27.371201
488	1	2	0.016736999	-2.517	28.414	28.6982
489	1	2	0.088722996	-1.3307	28.2899	29.6542
490	1	7	-0.68820798	-1.7811	28.1672	30.9757
491	1	8	0.380896	-2.0638001	29.0748	31.2644
492	1	3	0.075742997	-0.7446	27.3834	29.393299
493	1	3	0.075742997	-0.66189998	29.174601	29.552799
494	1	3	0.080536999	-3.1744001	27.5261	28.814899
495	1	3	0.080536999	-3.1157	29.320999	28.943501
496	2	4	0.51663399	0.3098	22.5168	22.145
497	2	5	-0.69057298	0.94809997	23.5411	22.331699
498	2	2	-0.25790799	-0.0261	21.6092	23.292101
499	2	2	-0.097433001	1.2289	20.9918	23.924999
500	2	2	-0.13909499	1.934	20.0107	22.975901
501	2	2	-0.14177801	3.1557	19.374901	23.6506
502	2	2	-0.14177801	3.8668001	18.4051	22.695999
503	2	2	-0.136438	5.0163002	17.641701	23.3727
504	2	2	-0.113232	6.2350001	18.538401	23.6565
505	2	2	-0.21898	7.4043002	17.749399	24.2598
506	2	4	0.82335401	8.0250998	16.8228	23.259399
507	2	5	-0.558779	7.7961001	15.5848	23.3165
508	2	7	-0.66596699	8.8352003	17.3349	22.250601
509	2	8	0.393462	9.2536001	16.723499	21.5595
510	2	6	0.117355	8.1815004	18.465401	24.6022
511	2	6	0.117355	7.0616999	17.1793	25.1516
512	2	6	0.085144997	6.5657001	19.0406	22.7211
513	2	6	0.085144997	5.9499002	19.326099	24.384399
514	2	6	0.078057997	4.6567998	17.1793	24.318399
515	2	6	0.078057997	5.3231001	16.818899	22.691299
516	2	6	0.07993	4.2514	18.9571	21.8099
517	2	6	0.07993	3.1294999	17.6569	22.329901
518	2	6	0.07993	3.8554001	20.181601	23.956301
519	2	6	0.07993	2.8269	18.8248	24.559299
520	2	6	0.078057997	2.2627001	20.550501	22.0606
521	2	6	0.078057997	1.2201999	19.2122	22.678101
522	2	6	0.076366	1.932	21.7994	24.2276
523	2	6	0.076366	0.92189997	20.447399	24.8449
524	2	6	0.113148	-0.70319998	20.8025	22.938101
525	2	6	0.113148	-0.57169998	22.1952	24.0618
526	4	1	-0.16472	6.0074	26.104401	46.180698
527	4	2	0.046806999	6.8807998	25.600201	47.153702
528	4	2	0.148399	6.1086998	25.2311	48.419998
529	4	1	-0.49546099	6.9907999	24.791	49.415901
530	4	3	0.080751002	5.5693002	26.126301	48.7939
531	4	3	0.080751002	5.3544002	24.442499	48.193802
532	4	3	0.079883002	7.6304998	26.383101	47.397099
533	4	3	0.079883002	7.4264002	24.711	46.7617
534	5	4	0.76071	7.2673998	23.821501	49.161201
535	5	5	-0.55721098	8.3754997	23.6234	48.689899
536	5	2	-0.208883	6.3250999	22.672701	49.365101
537	5	2	-0.115766	4.9984999	23.145201	49.977901
538	5	2	-0.136438	4.0499001	21.982	50.308998
539	5	2	-0.14177801	3.3762	21.396999	49.055401
540	5	2	-0.14177801	2.5023999	20.166401	49.364201
541	5	2	-0.13909499	1.3122	20.428699	50.304298
542	5	2	-0.097433001	0.31639999	21.454399	49.7411
543	5	2	-0.25790799	-0.93910003	21.5378	50.6166
544	5	4	0.51663399	-1.9084001	22.549	50.081501
545	5	5	-0.69057298	-2.9649	22.746	50.659698
546	5	6	0.113148	-1.4399	20.5457	50.648399
547	5	6	0.113148	-0.65310001	21.826401	51.651501
548	5	6	0.076366	0.79430002	22.4566	49.708302
549	5	6	0.076366	0.0251	21.160299	48.708302
550	5	6	0.078057997	0.78420001	19.461	50.453098
551	5	6	0.078057997	1.6723	20.755899	51.3027
552	5	6	0.07993	2.1161001	19.758801	48.4035
553	5	6	0.07993	3.1413	19.3766	49.814899
554	5	6	0.07993	2.7741001	22.1777	48.545502
555	5	6	0.07993	4.1564999	21.069599	48.337002
556	5	6	0.078057997	4.6015	21.1854	50.855499
557	5	6	0.078057997	3.2646999	22.378099	50.987099
558	5	6	0.085144997	5.2198	23.686701	50.9254
559	5	6	0.085144997	4.4958	23.8612	49.290798
560	5	6	0.116335	6.8060002	21.932199	50.040001
561	5	6	0.116335	6.1427002	22.193001	48.381302
562	1	1	-0.15889101	5.5300002	25.323099	45.796001
563	1	2	0.016736999	6.0479999	25.131901	44.507999
564	1	2	0.088722996	5.4763999	26.1726	43.5453
565	1	7	-0.68820798	5.9417	25.9394	42.2439
566	1	8	0.380896	6.8803	26.2638	42.216
567	1	3	0.075742997	4.3683	26.099701	43.544498
568	1	3	0.075742997	5.7547998	27.197901	43.879002
569	1	3	0.080536999	5.7639999	24.116301	44.1586
570	1	3	0.080536999	7.1603999	25.192499	44.524101
571	2	4	0.51663399	-1.6848	23.1141	49.1819
572	2	5	-0.69057298	-1.2144001	24.237101	49.276699
573	2	2	-0.25790799	-1.9385	22.506201	47.833302
574	2	2	-0.097433001	-3.0083001	23.275999	47.046398
575	2	2	-0.13909499	-4.3996	23.1528	47.686298
576	2	2	-0.14177801	-5.4549999	23.891701	46.854301
577	2	2	-0.14177801	-6.8421998	23.778799	47.502602
578	2	2	-0.136438	-7.9548001	24.3876	46.634399
579	2	2	-0.113232	-7.9001002	25.9256	46.5965
580	2	2	-0.21898	-9.0607996	26.524799	45.791901
581	2	4	0.82335401	-10.3721	26.355801	46.4967
582	2	5	-0.558779	-11.1925	25.482599	46.1059
583	2	7	-0.66596699	-10.672	27.148001	47.600601
584	2	8	0.393462	-11.5494	27.0389	48.095501
585	2	6	0.117355	-8.8768997	27.6113	45.651699
586	2	6	0.117355	-9.1049004	26.062201	44.780998
587	2	6	0.085144997	-7.9120998	26.3337	47.630798
588	2	6	0.085144997	-6.9545002	26.2477	46.1134
589	2	6	0.078057997	-7.8926001	23.98	45.601299
590	2	6	0.078057997	-8.9300003	24.0704	47.063099
591	2	6	0.07993	-6.8355999	24.266199	48.502701
592	2	6	0.07993	-7.0798998	22.702999	47.656502
593	2	6	0.07993	-5.1634998	24.960501	46.774899
594	2	6	0.07993	-5.4875998	23.4541	45.8326
595	2	6	0.078057997	-4.3765001	23.583599	48.711601