Title

99 atoms
104 bonds
163 angles
247 dihedrals
162 impropers

7 atom types
11 bond types
6 angle types
17 dihedral types
3 improper types
-14.77400017 85.22599983 xlo xhi
-3.420000076 96.57999992 ylo yhi
-1.710999966 98.28900003 zlo zhi
0.0 0.0 0.0 xy xz yz

Masses

1	14.00672
2	12.01078
3	1.007947
4	15.99943
5	1.007947
6	15.99943
7	1.007947


Pair Coeffs

1	0.16769152	3.206876
2	0.086879315	3.4806469
3	0.015611343	2.5725815
4	0.2102061	3.0398122
5	0.014090815	1.1034277
6	0.20947353	2.99716
7	1.2326e-05	0.53453923

Bond Coeffs

1 harmonic	390.03554688505	1.390160554689
2 harmonic	505.144496193	1.019481865027
3 harmonic	422.7150220147	1.421786517481
4 harmonic	360.7852444772	1.387193227181
5 harmonic	397.2545789619	1.085358495916
6 harmonic	279.1350963404	1.454628925034
7 harmonic	399.1592953295	1.371688562017
8 harmonic	582.698766451	1.225198386222
9 harmonic	492.76746816345	1.381897776683
10 harmonic	385.7604595587	1.369745182308
11 harmonic	543.5267831885	0.9716763312559


Angle Coeffs

1 harmonic	57.8982893754	126.8062420451
2 harmonic	55.42182150775	117.3465570514
3 harmonic	63.44422595415	115.5071327674
4 harmonic	34.066775159195	129.1835929926
5 harmonic	65.09061609600001	110.3538806181
6 harmonic	201.41175231035	127.4691416191


Dihedral Coeffs

1 fourier 1	3.661930099076	2	180
2 fourier 1	1.193093382682	2	180
3 fourier 1	0.02021088501612	1	0
4 fourier 1	1.163235555439	2	180
5 fourier 1	5.294842998052	2	180
6 fourier 1	0.2347635637734	2	180
7 fourier 1	0.4747469131102	3	0
8 fourier 1	0.9974165607242	2	180
9 fourier 1	3.101948770557	2	180
10 fourier 1	-0.4252153282372	1	0
11 fourier 1	1.809047390003	2	180
12 fourier 1	-0.04816277792592	1	0
13 fourier 1	2.348375642009	2	180
14 fourier 1	1.256156174911	1	0
15 fourier 1	2.687457892086	2	180
16 fourier 1	2.772607909663	2	180
17 fourier 1	0.09692684957115	1	0


Improper Coeffs

1 0.3666666666666667	-1	2
2 0.3333333333333333	-1	2
3 3.5	-1	2


Atoms

1	1	1	-0.41257301	-6.9429998	-0.057	-0.81300002
2	1	2	0.119455	-5.6259999	-0.13500001	-0.25999999
3	1	2	-0.41350901	-5.3800001	-0.917	0.80299997
4	1	3	0.234299	-6.1729999	-1.5	1.255
5	1	2	-0.084705003	-4.0209999	-0.98400003	1.375
6	1	3	0.22772001	-3.835	-1.599	2.247
7	1	2	-0.28173101	-3.026	-0.27700001	0.829
8	1	3	0.22092301	-2.04	-0.31400001	1.275
9	1	2	-0.081060998	-3.277	0.56900001	-0.368
10	1	2	0.037333999	-2.201	1.396	-0.95700002
11	1	2	-0.460152	-0.94400001	0.98299998	-1.179
12	1	2	0.60438001	-0.479	-0.419	-1.0599999
13	1	4	-0.56143802	-1.279	-1.363	-1.301
14	1	2	-0.460152	0.92299998	-0.75800002	-0.73900002
15	1	2	0.037333999	1.802	0.133	-0.25400001
16	1	2	-0.087817997	3.2130001	-0.189	0.071999997
17	1	2	-0.28173101	3.6340001	-1.4400001	0.35699999
18	1	3	0.22092301	2.9530001	-2.279	0.375
19	1	2	-0.102175	5.0500002	-1.693	0.69199997
20	1	3	0.22772001	5.3769999	-2.701	0.91100001
21	1	2	-0.38866401	5.9239998	-0.68199998	0.73100001
22	1	3	0.23186301	6.96	-0.87599999	0.98000002
23	1	2	0.21910501	5.4770002	0.69800001	0.44100001
24	1	1	-0.53251302	6.415	1.776	0.493
25	1	5	0.32465199	6.1209998	2.7579999	0.292
26	1	2	-0.34078601	4.191	0.92799997	0.133
27	1	3	0.229196	3.859	1.938	-0.081
28	1	3	0.217491	1.495	1.161	-0.112
29	1	3	0.177148	1.222	-1.783	-0.90399998
30	1	3	0.177148	-0.236	1.717	-1.541
31	1	3	0.217491	-2.448	2.418	-1.219
32	1	2	-0.33917999	-4.5240002	0.65399998	-0.86000001
33	1	3	0.229296	-4.7340002	1.2920001	-1.711
34	1	5	0.379163	-7.1339998	0.55199999	-1.6390001
35	1	2	0.771905	7.434	1.5930001	0.73799998
36	1	4	-0.63908499	7.9250002	0.45899999	0.49399999
37	1	2	-0.34862301	8.2419996	2.6630001	1.352
38	1	2	-0.063307002	9.5340004	2.47	1.676
39	1	3	0.230827	10.021	1.52	1.495
40	1	2	-0.234808	10.317	3.5610001	2.29
41	1	3	0.223634	11.356	3.3959999	2.5469999
42	1	2	-0.0092399996	9.7480001	4.7480001	2.527
43	1	3	0.230767	10.335	5.5380001	2.9779999
44	1	2	-0.28676099	8.3240004	4.9770002	2.1760001
45	1	2	0.59246403	7.6880002	6.2820001	2.434
46	1	4	-0.49725601	8.3389997	7.2249999	2.957
47	1	2	0.066262998	7.6139998	3.9809999	1.617
48	1	3	0.24799199	6.573	4.1329999	1.355
49	1	1	-0.41257301	-7.7329998	-0.60500002	-0.405
50	1	2	0.119455	-8.0430002	-0.528	0.98900002
51	1	2	-0.41350901	-7.3189998	0.255	1.8049999
52	1	3	0.234299	-6.4910002	0.83700001	1.419
53	1	2	-0.084705003	-7.6370001	0.322	3.2449999
54	1	3	0.22772001	-7.0339999	0.93599999	3.9000001
55	1	2	-0.28173101	-8.6590004	-0.38600001	3.7409999
56	1	3	0.22092301	-8.8640003	-0.34799999	4.803
57	1	2	-0.081060998	-9.4899998	-1.2309999	2.8440001
58	1	2	0.037333999	-10.592	-2.0580001	3.3800001
59	1	2	-0.460152	-11.5	-1.645	4.2779999
60	1	2	0.60438001	-11.672	-0.243	4.7259998
61	1	4	-0.56143802	-11.407	0.70099998	3.934
62	1	2	-0.460152	-12.221	0.094999999	6.0549998
63	1	2	0.037333999	-12.334	-0.79500002	7.053
64	1	2	-0.035101999	-12.884	-0.47299999	8.3929996
65	1	2	-0.28173101	-12.895	0.77700001	8.901
66	1	3	0.22092301	-12.486	1.617	8.3559999
67	1	2	-0.036068998	-13.44	1.031	10.25
68	1	3	0.22772001	-13.451	2.039	10.644
69	1	2	-0.45048299	-13.914	0.02	10.986
70	1	3	0.23839	-14.31	0.214	11.975
71	1	2	0.32031301	-13.892	-1.36	10.454
72	1	1	-0.84762198	-14.392	-2.438	11.249
73	1	5	0.37570101	-14.774	-2.2590001	12.204
74	1	5	0.37570101	-14.385	-3.4200001	10.892
75	1	2	-0.40539801	-13.399	-1.59	9.2250004
76	1	3	0.238989	-13.382	-2.5999999	8.8319998
77	1	3	0.217491	-12.041	-1.823	6.8850002
78	1	3	0.177148	-12.529	1.1210001	6.204
79	1	3	0.177148	-12.205	-2.3800001	4.6459999
80	1	3	0.217491	-10.663	-3.0799999	3.0280001
81	1	2	-0.33917999	-9.1700001	-1.317	1.541
82	1	3	0.229296	-9.743	-1.954	0.87800002
83	1	5	0.379163	-8.2959995	-1.214	-1.039
84	1	2	0.59246403	6.6500001	6.4429998	2.1760001
85	1	4	-0.49725601	6.2950001	6.3249998	0.972
86	1	2	-0.28221199	5.6789999	6.7940001	3.23
87	1	2	-0.0092399996	4.3800001	7.0019999	2.948
88	1	3	0.230767	4.007	6.9169998	1.9349999
89	1	2	-0.235962	3.4330001	7.3530002	4.0240002
90	1	3	0.223634	2.3900001	7.5180001	3.7869999
91	1	2	-0.048516002	3.8599999	7.4660001	5.2859998
92	1	3	0.24131601	3.1500001	7.724	6.0619998
93	1	2	-0.21248899	5.289	7.2410002	5.619
94	1	2	0.84307301	5.7459998	7.3699999	7.0209999
95	1	4	-0.46636301	6.9569998	7.1820002	7.323
96	1	6	-0.660532	4.8379998	7.7010002	8.0220003
97	1	7	0.42465001	5.1360002	7.7930002	8.9860001
98	1	2	0.083322003	6.1490002	6.921	4.631
99	1	3	0.25810799	7.197	6.7509999	4.848

Bonds

1	1	1	2
2	2	1	34
3	3	1	49
4	4	2	3
5	4	2	32
6	5	3	4
7	4	3	5
8	5	5	6
9	4	5	7
10	5	7	8
11	4	7	9
12	6	9	10
13	4	9	32
14	7	10	11
15	5	10	31
16	6	11	12
17	5	11	30
18	8	12	13
19	6	12	14
20	7	14	15
21	5	14	29
22	6	15	16
23	5	15	28
24	4	16	17
25	4	16	26
26	5	17	18
27	4	17	19
28	5	19	20
29	4	19	21
30	5	21	22
31	4	21	23
32	1	23	24
33	4	23	26
34	2	24	25
35	9	24	35
36	5	26	27
37	5	32	33
38	8	35	36
39	6	35	37
40	4	37	38
41	4	37	47
42	5	38	39
43	4	38	40
44	5	40	41
45	4	40	42
46	5	42	43
47	4	42	44
48	6	44	45
49	4	44	47
50	8	45	46
51	6	45	84
52	5	47	48
53	1	49	50
54	2	49	83
55	4	50	51
56	4	50	81
57	5	51	52
58	4	51	53
59	5	53	54
60	4	53	55
61	5	55	56
62	4	55	57
63	6	57	58
64	4	57	81
65	7	58	59
66	5	58	80
67	6	59	60
68	5	59	79
69	8	60	61
70	6	60	62
71	7	62	63
72	5	62	78
73	6	63	64
74	5	63	77
75	4	64	65
76	4	64	75
77	5	65	66
78	4	65	67
79	5	67	68
80	4	67	69
81	5	69	70
82	4	69	71
83	1	71	72
84	4	71	75
85	2	72	73
86	2	72	74
87	5	75	76
88	5	81	82
89	8	84	85
90	6	84	86
91	4	86	87
92	4	86	98
93	5	87	88
94	4	87	89
95	5	89	90
96	4	89	91
97	5	91	92
98	4	91	93
99	6	93	94
100	4	93	98
101	8	94	95
102	10	94	96
103	11	96	97
104	5	98	99

Angles

1	1	7	9	10
2	2	23	24	35
3	4	50	51	52
4	1	64	75	71
5	4	57	58	80
6	1	64	65	67
7	4	6	5	7
8	4	93	98	99
9	1	61	60	62
10	1	65	64	75
11	4	71	75	76
12	1	10	11	12
13	1	2	32	9
14	4	51	53	54
15	4	39	38	40
16	1	87	86	98
17	1	17	16	26
18	4	90	89	91
19	1	55	57	58
20	3	71	72	74
21	4	22	21	23
22	4	17	19	20
23	1	49	50	51
24	4	56	55	57
25	3	23	24	25
26	1	53	55	57
27	1	11	12	13
28	1	46	45	84
29	1	24	35	36
30	4	92	91	93
31	1	19	21	23
32	1	50	81	57
33	1	45	84	85
34	4	70	69	71
35	1	42	44	47
36	4	65	67	68
37	4	37	38	39
38	1	12	14	15
39	1	5	7	9
40	1	17	19	21
41	4	8	7	9
42	4	3	5	6
43	4	43	42	44
44	1	67	69	71
45	4	38	40	41
46	4	89	91	92
47	3	73	72	74
48	4	37	47	48
49	1	3	2	32
50	4	66	65	67
51	4	23	26	27
52	4	59	58	80
53	4	40	42	43
54	4	4	3	5
55	4	64	75	76
56	1	37	47	44
57	1	3	5	7
58	1	72	71	75
59	1	38	40	42
60	1	89	91	93
61	4	58	59	79
62	1	50	51	53
63	4	60	59	79
64	4	87	89	90
65	4	52	51	53
66	4	86	98	99
67	1	93	94	95
68	4	86	87	88
69	4	18	17	19
70	4	20	19	21
71	1	59	60	61
72	1	38	37	47
73	4	2	3	4
74	1	44	45	46
75	4	60	62	78
76	1	51	53	55
77	4	50	81	82
78	3	34	1	49
79	5	94	96	97
80	4	9	32	33
81	1	58	59	60
82	1	11	12	14
83	1	63	64	75
84	4	14	15	28
85	1	24	35	37
86	1	1	2	3
87	1	24	23	26
88	1	45	84	86
89	4	41	40	42
90	1	65	67	69
91	4	16	26	27
92	1	37	38	40
93	4	10	11	30
94	1	36	35	37
95	4	44	47	48
96	1	21	23	26
97	1	15	16	17
98	1	16	26	23
99	3	25	24	35
100	1	35	37	38
101	1	62	63	64
102	1	55	57	81
103	4	63	62	78
104	1	7	9	32
105	1	45	44	47
106	4	16	15	28
107	1	40	42	44
108	1	57	58	59
109	1	94	93	98
110	1	84	86	98
111	1	14	15	16
112	4	88	87	89
113	1	49	50	81
114	1	42	44	45
115	4	64	63	77
116	2	1	49	50
117	4	54	53	55
118	4	57	81	82
119	1	13	12	14
120	1	1	2	32
121	1	87	89	91
122	4	16	17	18
123	1	93	94	96
124	3	50	49	83
125	4	53	55	56
126	4	12	14	29
127	4	68	67	69
128	1	69	71	75
129	1	60	62	63
130	1	86	87	89
131	1	59	60	62
132	1	2	3	5
133	4	19	21	22
134	4	62	63	77
135	4	9	10	31
136	4	2	32	33
137	1	58	57	81
138	4	5	7	8
139	1	9	10	11
140	1	15	16	26
141	1	16	17	19
142	1	10	9	32
143	1	91	93	98
144	1	21	23	24
145	4	67	69	70
146	1	35	37	47
147	3	1	49	83
148	2	2	1	49
149	1	85	84	86
150	1	63	64	65
151	1	44	45	84
152	4	64	65	66
153	1	91	93	94
154	4	12	11	30
155	1	51	50	81
156	1	69	71	72
157	3	2	1	34
158	1	84	86	87
159	4	11	10	31
160	1	86	98	93
161	6	95	94	96
162	3	71	72	73
163	4	15	14	29

Dihedrals

1	8	42	44	45	46
2	1	37	47	44	45
3	1	65	67	69	70
4	1	5	7	9	32
5	1	66	65	67	69
6	4	31	10	9	32
7	8	44	45	84	85
8	4	65	64	63	77
9	1	89	87	86	98
10	8	14	12	11	30
11	11	23	24	35	37
11	12	23	24	35	37
12	1	63	64	65	66
13	1	17	19	21	22
14	8	47	44	45	84
15	1	86	87	89	90
16	1	22	21	23	26
17	1	51	50	81	82
18	1	64	75	71	69
19	1	37	38	40	41
20	5	57	58	59	79
21	15	93	94	96	97
22	1	3	2	32	33
23	2	51	50	49	83
24	1	88	87	86	98
25	3	2	1	49	83
26	1	90	89	91	92
27	4	26	16	15	28
28	1	88	87	89	90
29	8	59	60	62	63
30	8	13	12	14	29
31	1	6	5	7	8
32	1	16	26	23	24
33	1	43	42	44	45
34	1	72	71	75	76
35	8	85	84	86	98
36	1	42	44	47	48
37	1	18	17	19	20
38	1	4	3	2	32
39	1	4	3	5	6
40	1	64	65	67	69
41	1	37	38	40	42
42	1	49	50	51	53
43	1	15	16	17	18
44	1	2	32	9	10
45	1	2	3	5	6
46	5	9	10	11	12
47	2	1	49	50	81
48	1	8	7	9	10
49	4	80	58	57	81
50	5	57	58	59	60
51	1	67	69	71	75
52	1	90	89	91	93
53	1	38	40	42	44
54	1	53	55	57	58
55	1	35	37	38	40
56	1	38	37	47	48
57	1	87	89	91	92
58	1	88	87	89	91
59	1	6	5	7	9
60	8	91	93	94	95
61	2	73	72	71	75
62	1	56	55	57	81
63	5	28	15	14	29
64	1	67	65	64	75
65	1	94	93	98	99
66	8	11	12	14	15
67	1	52	51	50	81
68	2	81	50	49	83
69	2	25	24	23	26
70	1	4	3	5	7
71	1	19	17	16	26
72	1	38	37	47	44
73	1	16	26	23	21
74	4	62	63	64	65
75	1	7	9	32	33
76	1	17	16	26	27
77	1	40	42	44	47
78	1	84	86	98	99
79	1	2	3	5	7
80	1	50	81	57	55
81	8	61	60	59	79
82	6	10	11	12	13
82	7	10	11	12	13
83	4	11	10	9	32
84	8	95	94	93	98
85	1	1	2	32	33
86	1	20	19	21	23
87	3	34	1	49	50
88	1	70	69	71	72
89	2	32	2	1	49
90	1	22	21	23	24
91	1	40	38	37	47
92	8	46	45	84	85
93	1	68	67	69	70
94	1	84	86	87	88
95	8	13	12	11	30
96	1	87	89	91	93
97	1	3	2	32	9
98	1	17	16	26	23
99	1	63	64	75	71
100	4	55	57	58	59
101	1	65	67	69	71
102	13	25	24	35	36
102	14	25	24	35	36
103	1	87	86	98	99
104	1	19	21	23	26
105	16	95	94	96	97
105	17	95	94	96	97
106	8	36	35	37	38
107	8	44	45	84	86
108	2	32	2	1	34
109	5	12	11	10	31
110	1	3	5	7	8
111	1	89	91	93	98
112	4	17	16	15	28
113	1	63	64	65	67
114	1	86	87	89	91
115	5	60	62	63	77
116	1	17	19	21	23
117	1	37	47	44	42
118	4	7	9	10	31
119	1	84	86	87	89
120	5	12	14	15	16
121	1	68	67	69	71
122	2	3	2	1	49
123	1	56	55	57	58
124	4	55	57	58	80
125	1	45	44	47	48
126	1	54	53	55	56
127	8	85	84	86	87
128	4	7	9	10	11
129	2	21	23	24	35
130	1	89	91	93	94
131	1	41	40	42	43
132	11	25	24	35	37
132	12	25	24	35	37
133	1	1	2	3	4
134	1	49	50	81	57
135	3	34	1	49	83
136	2	74	72	71	75
137	1	21	23	26	27
138	1	86	98	93	94
139	5	12	14	15	28
140	8	45	84	86	98
141	1	18	17	19	21
142	2	26	23	24	35
143	1	66	65	64	75
144	4	14	15	16	17
145	4	75	64	63	77
146	1	15	16	17	19
147	8	46	45	44	47
148	1	50	51	53	54
149	6	13	12	14	15
149	7	13	12	14	15
150	2	69	71	72	73
151	1	1	2	32	9
152	1	1	2	3	5
153	1	69	71	75	76
154	1	8	7	9	32
155	8	24	35	37	38
156	1	43	42	44	47
157	1	53	51	50	81
158	8	91	93	94	96
159	1	65	64	75	71
160	1	92	91	93	94
161	2	1	49	50	51
162	1	5	7	9	10
163	5	60	59	58	80
164	8	36	35	37	47
165	8	61	60	62	78
166	4	62	63	64	75
167	1	19	21	23	24
168	1	24	23	26	27
169	1	65	64	75	76
170	1	16	17	19	20
171	1	67	69	71	72
172	5	77	63	62	78
173	1	63	64	75	76
174	8	10	11	12	14
175	2	69	71	72	74
176	1	86	98	93	91
177	1	18	17	16	26
178	3	2	1	49	50
179	8	46	45	84	86
180	5	9	10	11	30
181	1	15	16	26	27
182	6	61	60	62	63
182	7	61	60	62	63
183	1	2	32	9	7
184	8	42	44	45	84
185	1	52	51	53	54
186	1	5	3	2	32
187	5	16	15	14	29
188	1	16	17	19	21
189	1	49	50	81	82
190	1	15	16	26	23
191	1	39	38	40	41
192	1	53	55	57	81
193	8	96	94	93	98
194	1	3	5	7	9
195	2	3	2	1	34
196	8	59	60	62	78
197	1	51	50	81	57
198	4	14	15	16	26
199	8	45	84	86	87
200	1	64	65	67	68
201	1	49	50	51	52
202	1	92	91	93	98
203	1	54	53	55	57
204	1	58	57	81	82
205	8	11	12	14	29
206	1	40	42	44	45
207	1	41	40	42	44
208	6	58	59	60	61
208	7	58	59	60	61
209	1	52	51	53	55
210	2	21	23	24	25
211	8	24	35	37	47
212	1	51	53	55	56
213	1	38	40	42	43
214	1	91	93	98	99
215	5	64	63	62	78
216	1	35	37	38	39
217	1	39	38	40	42
218	4	59	58	57	81
219	1	50	81	57	58
220	1	84	86	98	93
221	1	70	69	71	75
222	8	62	60	59	79
223	1	64	75	71	72
224	5	79	59	58	80
225	1	66	65	67	68
226	5	30	11	10	31
227	1	55	57	81	82
228	1	35	37	47	48
229	1	50	51	53	55
230	1	10	9	32	33
231	8	58	59	60	62
232	9	23	24	35	36
232	10	23	24	35	36
233	1	51	53	55	57
234	1	39	38	37	47
235	1	20	19	21	22
236	1	87	86	98	93
237	5	60	62	63	64
238	1	35	37	47	44

Impropers

2	1	93	98	91	94
3	1	65	67	64	66
5	2	72	74	71	73
7	1	11	30	10	12
8	1	47	48	37	44
9	1	42	43	44	40
10	1	57	81	55	58
12	1	63	62	64	77
13	1	26	23	27	16
14	1	7	5	8	9
15	1	87	88	89	86
24	1	2	1	3	32
25	1	16	15	17	26
27	1	37	47	35	38
34	1	16	26	15	17
39	2	1	2	34	49
40	1	38	40	37	39
41	1	35	37	24	36
44	1	87	86	88	89
46	2	24	35	23	25
47	1	5	7	3	6
50	1	84	85	86	45
52	1	7	9	5	8
54	1	14	12	15	29
55	1	12	13	14	11
58	1	5	6	7	3
60	1	86	84	87	98
61	1	91	93	89	92
62	1	84	86	45	85
64	1	15	16	28	14
66	1	9	7	10	32
67	1	89	90	91	87
68	1	35	36	37	24
69	1	47	37	44	48
70	1	75	64	71	76
74	1	69	71	67	70
79	1	9	32	7	10
82	1	59	79	58	60
85	1	37	35	38	47
87	1	21	23	19	22
88	1	44	45	47	42
90	1	44	47	42	45
92	1	71	69	72	75
93	1	57	58	81	55
94	1	93	91	94	98
95	2	24	23	25	35
96	1	21	19	22	23
101	1	40	41	42	38
105	1	75	76	64	71
106	2	49	50	83	1
110	3	94	96	93	95
111	1	32	9	33	2
112	1	50	81	49	51
113	1	89	91	87	90
114	1	81	82	50	57
116	1	15	14	16	28
117	1	21	22	23	19
120	1	45	44	46	84
126	1	44	42	45	47
128	1	51	53	50	52
129	1	60	62	59	61
131	1	87	89	86	88
132	1	98	93	99	86
134	1	67	65	68	69
138	1	98	99	86	93
140	1	32	33	2	9
143	1	98	86	93	99
144	1	91	92	93	89
147	1	11	12	30	10
152	2	49	1	50	83
154	1	12	11	13	14
156	1	65	66	67	64
158	1	53	51	54	55
162	2	72	73	74	71
163	1	35	24	36	37
164	1	60	61	62	59
168	1	19	21	17	20
170	1	10	9	11	31
171	1	57	55	58	81
172	1	47	44	48	37
174	1	7	8	9	5
175	1	62	63	78	60
176	1	45	46	84	44
178	2	49	83	1	50
179	1	65	64	66	67
180	2	24	25	35	23
181	1	26	16	23	27
182	1	38	37	39	40
184	1	42	40	43	44
186	1	50	49	51	81
187	1	37	38	47	35
188	1	17	16	18	19
189	2	72	71	73	74
190	1	55	57	53	56
191	1	81	50	57	82
192	1	15	28	14	16
198	1	58	59	80	57
200	1	62	78	60	63
201	1	23	24	26	21
203	1	2	3	32	1
205	1	26	27	16	23
207	2	1	49	2	34
210	1	45	84	44	46
213	1	42	44	40	43
216	1	2	32	1	3
217	1	40	38	41	42
218	1	62	60	63	78
219	1	81	57	82	50
220	1	86	87	98	84
223	1	38	39	40	37
224	1	60	59	61	62
228	1	86	98	84	87
230	1	50	51	81	49
232	1	75	71	76	64
233	1	10	31	9	11
234	1	40	42	38	41
235	1	11	10	12	30
239	1	63	64	77	62
241	1	51	52	53	50
242	1	69	67	70	71
244	1	91	89	92	93
247	1	3	5	2	4
249	1	12	14	11	13
250	1	32	2	9	33
251	1	84	45	85	86
252	3	94	93	95	96
253	1	14	29	12	15
254	1	51	50	52	53
255	1	69	70	71	67
256	1	67	68	69	65
258	1	5	3	6	7
261	1	63	77	62	64
262	1	23	26	21	24
263	1	55	56	57	53
264	1	17	19	16	18
265	1	53	54	55	51
269	1	58	57	59	80
270	1	3	2	4	5
271	1	17	18	19	16
272	1	14	15	29	12
275	1	64	63	65	75
279	1	59	58	60	79
280	1	71	72	75	69
281	1	93	94	98	91
282	1	55	53	56	57
283	1	89	87	90	91
285	3	94	95	96	93
286	1	64	65	75	63
287	1	64	75	63	65
289	1	16	17	26	15
292	1	67	69	65	68
296	1	10	11	31	9
300	1	19	17	20	21
301	1	9	10	32	7
303	1	59	60	79	58
306	1	58	80	57	59
309	1	3	4	5	2
310	1	53	55	51	54
317	1	19	20	21	17
320	1	23	21	24	26
321	1	71	75	69	72
324	2	1	34	49	2
