Title

5125 atoms
5250 bonds
8375 angles
13125 dihedrals
4500 impropers

8 atom types
13 bond types
7 angle types
24 dihedral types
2 improper types
-5.828999996 94.171 xlo xhi
-5.972400188 94.02759981 ylo yhi
-6.425199986 93.57480001 zlo zhi
0.0 0.0 0.0 xy xz yz

Masses

1	15.99943
2	12.01078
3	1.007947
4	12.01078
5	15.99943
6	1.007947
7	15.99943
8	1.007947


Pair Coeffs

1	0.16846514	3.0251065
2	0.10884061	3.3795318
3	0.016409246	2.5832257
4	0.086879315	3.4806469
5	0.2102061	3.0398122
6	0.015611343	2.5725815
7	0.20947353	2.99716
8	1.2326e-05	0.53453923

Bond Coeffs

1 harmonic	366.7408841747	1.425895053732
2 harmonic	300.03137914615	1.451203938761
3 harmonic	264.62148576755	1.52190126495
4 harmonic	370.04670688625	1.093899492634
5 harmonic	301.15400723785	1.345741232799
6 harmonic	582.698766451	1.225198386222
7 harmonic	279.1350963404	1.454628925034
8 harmonic	399.1592953295	1.371688562017
9 harmonic	369.34270398985	1.364116986116
10 harmonic	397.2545789619	1.085358495916
11 harmonic	329.96998057905	1.427343958716
12 harmonic	543.5267831885	0.9716763312559
13 harmonic	385.7604595587	1.369745182308


Angle Coeffs

1 harmonic	53.20531626545	116.5475862634
2 harmonic	65.09061609600001	110.3538806181
3 harmonic	201.41175231035	127.4691416191
4 harmonic	57.8982893754	126.8062420451
5 harmonic	48.776492647595	115.6030999533
6 harmonic	39.628116874445	129.8027304608
7 harmonic	79.1895422237	112.4630193006


Dihedral Coeffs

1 fourier 1	-0.0309670556842	3	0
2 fourier 1	0.4598191477945	2	0
3 fourier 1	0.1115525666802	3	0
4 fourier 1	0.3432490222662	1	0
5 fourier 1	0.0473758381877	3	0
6 fourier 1	0.457973137376	1	0
7 fourier 1	0.1918272375143	3	0
8 fourier 1	0.9202179876409	1	180
9 fourier 1	1.163809172478	2	180
10 fourier 1	0.1679186987369	1	180
11 fourier 1	2.779853741805	2	180
12 fourier 1	0.9974165607242	2	180
13 fourier 1	0.1911926717192	3	0
14 fourier 1	5.294842998052	2	180
15 fourier 1	1.659715194912	2	180
16 fourier 1	0.2347635637734	2	180
17 fourier 1	0.4747469131102	3	0
18 fourier 1	1.163235555439	2	180
19 fourier 1	0.3445382149273	3	0
20 fourier 1	0.1364556373303	1	0
21 fourier 1	0.3026390167484	3	0
22 fourier 1	2.687457892086	2	180
23 fourier 1	2.772607909663	2	180
24 fourier 1	0.09692684957115	1	0


Improper Coeffs

1 3.5	-1	2
2 0.3666666666666667	-1	2


Atoms

1	4	1	-0.14957801	2.6214001	0.51389998	1.0651
2	4	2	0.047070999	2.1387999	-0.2929	2.1041999
3	4	2	0.155224	1.8638	0.55150002	3.3480999
4	4	1	-0.49365401	1.4461	-0.26530001	4.4071999
5	4	3	0.079880998	2.7955999	1.0743001	3.6489999
6	4	3	0.079880998	1.0912	1.3232	3.1252999
7	4	3	0.089312002	2.9068999	-1.0589	2.3441999
8	4	3	0.089312002	1.2119	-0.82300001	1.7853
9	5	4	0.673217	0.4578	-0.51749998	4.2161002
10	5	5	-0.52915001	-0.26910001	-0.9368	5.1542001
11	5	4	0.254347	-0.090400003	-0.38519999	2.8652999
12	5	4	-0.283317	0.5826	0.0449	1.8065
13	5	6	0.17919201	1.6185	0.35609999	1.7855999
14	5	4	-0.296314	-0.34869999	0.0128	0.6821
15	5	6	0.16397899	-0.14309999	0.2967	-0.34279999
16	5	4	0.306925	-1.5023	-0.43329999	1.159
17	5	4	0.437264	-2.7230999	-0.62510002	0.3741
18	5	5	-0.52681297	-3.7686	-1.0547	0.92659998
19	5	1	-0.221466	-1.3967	-0.6979	2.5174999
20	1	1	-0.143841	1.8380001	1.0013	0.69739997
21	1	2	0.0206	1.5616	0.4303	-0.5521
22	1	2	0.092605002	2.5696001	0.91640002	-1.5934
23	1	7	-0.68250901	2.2523999	0.3989	-2.8566999
24	1	8	0.38930401	2.5420001	-0.55129999	-2.8548
25	1	3	0.086236	2.5353	2.0251999	-1.6451
26	1	3	0.086236	3.6006999	0.61610001	-1.2988
27	1	3	0.089987002	0.53960001	0.73509997	-0.86309999
28	1	3	0.089987002	1.5842	-0.68150002	-0.48429999
29	2	4	0.437264	-2.7328999	-0.39750001	-0.6839
30	2	5	-0.52681297	-3.8316	-0.32699999	-1.2945
31	2	4	0.30692399	-1.4772	-0.1727	-1.4026
32	2	4	-0.296314	-0.2678	-0.22139999	-0.86250001
33	2	6	0.16397899	-0.034000002	-0.43180001	0.1726
34	2	4	-0.28690001	0.6785	0.061999999	-1.9373
35	2	6	0.17919201	1.7573	0.1051	-1.8569
36	2	4	0.265214	-0.0414	0.25850001	-3.0358
37	2	4	0.71868902	0.48949999	0.57459998	-4.3664999
38	2	5	-0.519319	1.7321	0.68339998	-4.5510998
39	2	7	-0.69772702	-0.38800001	0.75510001	-5.4306002
40	2	8	0.39682701	-0.042599998	0.97329998	-6.3573999
41	2	1	-0.22493599	-1.3943	0.1235	-2.7560999
42	4	1	-0.14957801	0.40549999	-0.1066	15.7083
43	4	2	0.047070999	-0.41949999	1.0255001	15.6669
44	4	2	0.155224	0.39309999	2.2855999	15.9631
45	4	1	-0.49365401	-0.4443	3.4087999	15.9886
46	4	3	0.079880998	0.87949997	2.1826999	16.955601
47	4	3	0.079880998	1.193	2.4154	15.1981
48	4	3	0.089312002	-1.2141	0.91329998	16.4352
49	4	3	0.089312002	-0.9127	1.1098	14.6712
50	5	4	0.673217	-0.66210002	3.6394999	15.0005
51	5	5	-0.52915001	-1.0898	4.7872	14.7102
52	5	4	0.254347	-0.472	2.6389999	13.9492
53	5	4	-0.283317	-0.0283	1.404	14.1411
54	5	6	0.17919201	0.2538	0.96160001	15.0872
55	5	4	-0.296314	0.0014	0.76539999	12.8281
56	5	6	0.16397899	0.31119999	-0.24779999	12.6031
57	5	4	0.306925	-0.42640001	1.6693	11.9579
58	5	4	0.437264	-0.55870003	1.4567	10.5156
59	5	5	-0.52681297	-0.97549999	2.385	9.7756996
60	5	1	-0.221466	-0.73640001	2.8577001	12.6047
61	1	1	-0.143841	0.92629999	-0.1089	14.8626
62	1	2	0.0206	0.40279999	-1.1415	14.073
63	1	2	0.092605002	0.89240003	-2.4981999	14.5791
64	1	7	-0.68250901	0.42399999	-3.5256	13.7487
65	1	8	0.38930401	-0.53380001	-3.6596	13.9761
66	1	3	0.086236	2.0028	-2.5125	14.5697
67	1	3	0.086236	0.55369997	-2.6617	15.6273
68	1	3	0.089987002	0.74610001	-0.99650002	13.0264
69	1	3	0.089987002	-0.71090001	-1.1077	14.0783
70	2	4	0.437264	-0.29800001	0.50160003	10.0786
71	2	5	-0.52681297	-0.1771	0.4016	8.8295002
72	2	4	0.30692399	-0.086599998	-0.66839999	10.9332
73	2	4	-0.296314	-0.1866	-0.67799997	12.2549
74	2	6	0.16397899	-0.4359	0.1639	12.8868
75	2	4	-0.28690001	0.1033	-2.0431001	12.6832
76	2	6	0.17919201	0.1132	-2.4154999	13.6997
77	2	4	0.265214	0.35460001	-2.7419	11.5821
78	2	4	0.71868902	0.69700003	-4.1675	11.528
79	2	5	-0.519319	0.77600002	-4.8477998	12.5867
80	2	7	-0.69772702	0.93559998	-4.7698998	10.2972
81	2	8	0.39682701	1.1727999	-5.7528	10.2373
82	2	1	-0.22493599	0.2494	-1.9297	10.4613
83	4	1	-0.14957801	-0.14839999	2.7959001	25.069799
84	4	2	0.047070999	1.0529	2.5000999	24.4116
85	4	2	0.155224	2.2348001	3.1106999	25.164
86	4	1	-0.49365401	3.4282999	2.8727	24.4695
87	4	3	0.079880998	2.0868001	4.2075	25.25
88	4	3	0.079880998	2.2943001	2.6882999	26.1936
89	4	3	0.089312002	1.0105	2.928	23.387199
90	4	3	0.089312002	1.183	1.3972	24.318899
91	5	4	0.673217	3.6796	1.8807	24.641899
92	5	5	-0.52915001	4.8614001	1.4956	24.443899
93	5	4	0.254347	2.6682999	0.93379998	25.114599
94	5	4	-0.283317	1.3982	1.2299	25.3559
95	5	6	0.17919201	0.93040001	2.1984999	25.240801
96	5	4	-0.296314	0.76230001	-0.0060999999	25.8036
97	5	6	0.16397899	-0.27410001	-0.13959999	26.089001
98	5	4	0.306925	1.7026	-0.94050002	25.7941
99	5	4	0.437264	1.5058	-2.3406999	26.1731
100	5	5	-0.52681297	2.4691	-3.1487	26.129
101	5	1	-0.221466	2.9126	-0.4077	25.3713
102	1	1	-0.143841	-0.1954	2.1935999	25.858101
103	1	2	0.0206	-1.1755	1.234	25.5709
104	1	2	0.092605002	-2.5715001	1.8354	25.731501
105	1	7	-0.68250901	-3.5511999	0.85769999	25.5105
106	1	8	0.38930401	-3.5996001	0.72189999	24.527599
107	1	3	0.086236	-2.6849999	2.2242999	26.7656
108	1	3	0.086236	-2.7063999	2.6863	25.025801
109	1	3	0.089987002	-1.0595	0.38569999	26.278799
110	1	3	0.089987002	-1.0424	0.84079999	24.5369
111	2	4	0.437264	0.53210002	-2.6875	26.493999
112	2	5	-0.52681297	0.4244	-3.8127999	27.048
113	2	4	0.30692399	-0.65390003	-1.8544	26.285999
114	2	4	-0.296314	-0.6573	-0.65759999	25.716299
115	2	6	0.16397899	0.2022	-0.1287	25.326599
116	2	4	-0.28690001	-2.0438001	-0.2007	25.7187
117	2	6	0.17919201	-2.4177999	0.73839998	25.330999
118	2	4	0.265214	-2.7599001	-1.1616	26.2911
119	2	4	0.71868902	-4.2101998	-1.138	26.511
120	2	5	-0.519319	-4.8971	-0.1452	26.146999
121	2	7	-0.69772702	-4.829	-2.2212	27.126301
122	2	8	0.39682701	-5.829	-2.2256	27.287201
123	2	1	-0.22493599	-1.9392	-2.2172	26.664101
124	4	1	-0.14957801	0.58859998	-2.5571001	39.766701
125	4	2	0.047070999	-0.042300001	-1.9697	40.871601
126	4	2	0.155224	0.9835	-1.6404999	41.955601
127	4	1	-0.49365401	0.34380001	-1.1160001	43.086601
128	4	3	0.079880998	1.5176001	-2.5685999	42.248299
129	4	3	0.079880998	1.7361	-0.91710001	41.5653
130	4	3	0.089312002	-0.78659999	-2.6875	41.277802
131	4	3	0.089312002	-0.58639997	-1.0475	40.562599
132	5	4	0.673217	0.094999999	-0.1345	42.858898
133	5	5	-0.52915001	-0.1605	0.67360002	43.789398
134	5	4	0.254347	0.043099999	0.31	41.465302
135	5	4	-0.283317	0.29319999	-0.4535	40.41
136	5	6	0.17919201	0.56770003	-1.4998	40.423599
137	5	4	-0.296314	0.1231	0.39570001	39.2342
138	5	6	0.16397899	0.2471	0.1063	38.1978
139	5	4	0.306925	-0.21430001	1.5973001	39.680901
140	5	4	0.437264	-0.48390001	2.7656	38.8409
141	5	5	-0.52681297	-0.79710001	3.8642001	39.368099
142	5	1	-0.221466	-0.27919999	1.5997	41.067402
143	1	1	-0.143841	1.0391999	-1.822	39.273701
144	1	2	0.0206	0.29890001	-1.613	38.102299
145	1	2	0.092605002	0.59710002	-2.7112999	37.081902
146	1	7	-0.68250901	-0.0911	-2.4647	35.886101
147	1	8	0.38930401	-1.0387	-2.7154	36.047401
148	1	3	0.086236	1.6868	-2.7251	36.868099
149	1	3	0.086236	0.3136	-3.7060001	37.494701
150	1	3	0.089987002	0.58420002	-0.62870002	37.673401
151	1	3	0.089987002	-0.79110003	-1.5863	38.3316
152	2	4	0.437264	-0.41420001	2.6908	37.7635
153	2	5	-0.52681297	-0.40239999	3.7393999	37.067001
154	2	4	0.30692399	-0.33410001	1.3789999	37.118
155	2	4	-0.296314	-0.33790001	0.2141	37.750401
156	2	6	0.16397899	-0.40059999	0.0634	38.819901
157	2	4	-0.28690001	-0.24330001	-0.81709999	36.721401
158	2	6	0.17919201	-0.2202	-1.8882	36.877102
159	2	4	0.265214	-0.18960001	-0.1858	35.554298
160	2	4	0.71868902	-0.088200003	-0.82260001	34.236401
161	2	5	-0.519319	-0.043900002	-2.0785	34.133598
162	2	7	-0.69772702	-0.0407	-0.031099999	33.093498
163	2	8	0.39682701	0.0287	-0.45030001	32.174
164	2	1	-0.22493599	-0.2427	1.1878999	35.7463
165	4	1	-0.14957801	2.5983	-0.77149999	50.492001
166	4	2	0.047070999	2.7927001	0.61629999	50.499599
167	4	2	0.155224	2.8236001	1.1558	49.07
168	4	1	-0.49365401	3.0855999	2.5323	49.075699
169	4	3	0.079880998	3.6285	0.64349997	48.502602
170	4	3	0.079880998	1.8549	0.94749999	48.559898
171	4	3	0.089312002	3.7628	0.83560002	50.994701
172	4	3	0.089312002	1.9869	1.1176	51.083698
173	5	4	0.673217	2.2042999	3.0014	49.358898
174	5	5	-0.52915001	2.0431001	4.2242999	49.108601
175	5	4	0.254347	1.1529	2.2471001	50.043201
176	5	4	-0.283317	1.2161	0.95959997	50.355202
177	5	6	0.17919201	2.0402	0.28850001	50.1534
178	5	4	-0.296314	-0.040899999	0.63260001	51.0228
179	5	6	0.16397899	-0.33840001	-0.33180001	51.416
180	5	4	0.306925	-0.7536	1.7499	51.055801
181	5	4	0.437264	-2.0901999	1.8822	51.638199
182	5	5	-0.52681297	-2.6819999	2.9921999	51.616299
183	5	1	-0.221466	-0.055	2.7897	50.457901
184	1	1	-0.143841	1.6364	-0.92199999	50.295799
185	1	2	0.0206	1.0466	-1.3535	51.491501
186	1	2	0.092605002	1.3974	-2.8168001	51.759499
187	1	7	-0.68250901	0.75230002	-3.2677	52.919201
188	1	8	0.38930401	1.2543	-2.8889999	53.6884
189	1	3	0.086236	1.0598	-3.4363999	50.901798
190	1	3	0.086236	2.5002999	-2.9353001	51.858101
191	1	3	0.089987002	-0.056000002	-1.2532001	51.399399
192	1	3	0.089987002	1.3811001	-0.7155	52.341499
193	2	4	0.437264	-2.5761001	1.0267	52.089001
194	2	5	-0.52681297	-3.8039999	1.0811	52.361198
195	2	4	0.30692399	-1.8117	-0.1875	52.381401
196	2	4	-0.296314	-0.51969999	-0.3549	52.137501
197	2	6	0.16397899	0.15000001	0.3698	51.694199
198	2	4	-0.28690001	-0.184	-1.7031	52.5858
199	2	6	0.17919201	0.78740001	-2.1788001	52.539299
200	2	4	0.265214	-1.3037	-2.2353001	53.062
201	2	4	0.71868902	-1.4437	-3.5836	53.623299
202	2	5	-0.519319	-0.4497	-4.3566999	53.6884
203	2	7	-0.69772702	-2.6845	-4.0089002	54.086399
204	2	8	0.39682701	-2.803	-4.9354	54.4781
205	2	1	-0.22493599	-2.3504	-1.3297	52.957298
206	4	1	-0.14957801	-0.073399998	15.5996	0.88160002
207	4	2	0.047070999	1.2232	15.2865	1.3115
208	4	2	0.155224	1.265	15.176	2.8352001
209	4	1	-0.49365401	2.5746	14.9301	3.2688
210	4	3	0.079880998	0.91670001	16.130899	3.2813001
211	4	3	0.079880998	0.58340001	14.3646	3.1803
212	4	3	0.089312002	1.9103	16.0958	0.98409998
213	4	3	0.089312002	1.5666	14.334	0.84609997
214	5	4	0.673217	2.7693999	13.9297	3.0734
215	5	5	-0.52915001	3.7156999	13.3528	3.6701
216	5	4	0.254347	1.9489	13.1914	2.112
217	5	4	-0.283317	0.93059999	13.6974	1.4293
218	5	6	0.17919201	0.56269997	14.7135	1.4815
219	5	4	-0.296314	0.41060001	12.6156	0.59759998
220	5	6	0.16397899	-0.42300001	12.6669	-0.092200004
221	5	4	0.306925	1.159	11.551	0.85000002
222	5	4	0.437264	0.99040002	10.2344	0.2325
223	5	5	-0.52681297	1.7575999	9.2873001	0.54430002
224	5	1	-0.221466	2.1355	11.855	1.7885
225	1	1	-0.143841	-0.60360003	14.7623	0.94679999
226	1	2	0.0206	-0.81819999	14.3211	-0.36590001
227	1	2	0.092605002	-1.9051	15.16	-1.0376
228	1	7	-0.68250901	-2.1673999	14.6754	-2.3264
229	1	8	0.38930401	-1.4176	14.9808	-2.9022
230	1	3	0.086236	-2.8378999	15.0972	-0.43810001
231	1	3	0.086236	-1.5937001	16.2283	-1.0808001
232	1	3	0.089987002	-1.1436	13.2594	-0.3344
233	1	3	0.089987002	0.12729999	14.3748	-0.95279998
234	2	4	0.437264	0.2053	10.0688	-0.4937
235	2	5	-0.52681297	-0.090899996	8.8929005	-0.83179998
236	2	4	0.30692399	-0.50940001	11.2042	-1.0804
237	2	4	-0.296314	-0.2818	12.4791	-0.7985
238	2	6	0.16397899	0.45429999	12.8627	-0.1048
239	2	4	-0.28690001	-1.216	13.2562	-1.6076
240	2	6	0.17919201	-1.3115	14.3344	-1.6319
241	2	4	0.265214	-1.9291	12.3828	-2.3092
242	2	4	0.71868902	-2.9944	12.7115	-3.263
243	2	5	-0.519319	-3.3099	13.9126	-3.4819
244	2	7	-0.69772702	-3.6594	11.6874	-3.9291999
245	2	8	0.39682701	-4.3972998	11.8923	-4.592
246	2	1	-0.22493599	-1.5273	11.0867	-2.0165999
247	4	1	-0.14957801	-1.9735	12.7089	10.7772
248	4	2	0.047070999	-2.5546999	11.7976	11.6691
249	4	2	0.155224	-2.4096999	10.3711	11.1399
250	4	1	-0.49365401	-3.0501001	9.4671001	11.998
251	4	3	0.079880998	-2.8805001	10.303	10.137
252	4	3	0.079880998	-1.3318	10.1084	11.0342
253	4	3	0.089312002	-3.6335001	12.0417	11.7726
254	4	3	0.089312002	-2.0836999	11.8854	12.6752
255	5	4	0.673217	-2.4303999	9.3499002	12.8221
256	5	5	-0.52915001	-2.5743001	8.3478003	13.5702
257	5	4	0.254347	-1.3934	10.3409	13.1137
258	5	4	-0.283317	-1.1540999	11.43	12.3955
259	5	6	0.17919201	-1.6812	11.7411	11.5035
260	5	4	-0.296314	-0.044799998	12.1208	13.0473
261	5	6	0.16397899	0.41850001	13.0489	12.7353
262	5	4	0.306925	0.28940001	11.3897	14.1013
263	5	4	0.437264	1.3602999	11.7105	15.0465
264	5	5	-0.52681297	1.5967	10.9456	16.017
265	5	1	-0.221466	-0.52139997	10.2667	14.1904
266	1	1	-0.143841	-0.99070001	12.6427	10.9044
267	1	2	0.0206	-0.59320003	13.8113	11.5679
268	1	2	0.092605002	-0.5607	14.9899	10.5951
269	1	7	-0.68250901	-0.097900003	16.143299	11.2431
270	1	8	0.38930401	-0.85030001	16.477301	11.7993
271	1	3	0.086236	0.1284	14.7529	9.757
272	1	3	0.086236	-1.5748	15.1644	10.1695
273	1	3	0.089987002	0.4244	13.6537	11.9848
274	1	3	0.089987002	-1.2829	14.0303	12.415
275	2	4	0.437264	1.9542	12.6056	14.9149
276	2	5	-0.52681297	3.0178001	12.7483	15.5731
277	2	4	0.30692399	1.5251	13.6454	13.9776
278	2	4	-0.296314	0.4278	13.6002	13.2354
279	2	6	0.16397899	-0.3012	12.8012	13.2137
280	2	4	-0.28690001	0.39989999	14.8369	12.4601
281	2	6	0.17919201	-0.35600001	15.1374	11.7457
282	2	4	0.265214	1.4845001	15.5236	12.8004
283	2	4	0.71868902	1.873	16.835199	12.2702
284	2	5	-0.519319	1.1558	17.417	11.4116
285	2	7	-0.69772702	3.0423999	17.438801	12.7208
286	2	8	0.39682701	3.3287001	18.3442	12.3684
287	2	1	-0.22493599	2.2217	14.8232	13.7452
288	4	1	-0.14957801	-2.2823999	12.5134	27.440701
289	4	2	0.047070999	-1.6892	13.5887	28.115801
290	4	2	0.155224	-1.0803	13.1161	29.435499
291	4	1	-0.49365401	-0.54729998	14.2028	30.141399
292	4	3	0.079880998	-1.8709	12.6436	30.055099
293	4	3	0.079880998	-0.29049999	12.3537	29.242901
294	4	3	0.089312002	-2.4705	14.3503	28.3251
295	4	3	0.089312002	-0.90780002	14.0631	27.4785
296	5	4	0.673217	0.34940001	14.4464	29.6793
297	5	5	-0.52915001	1.2016	15.1342	30.299801
298	5	4	0.254347	0.62480003	13.992	28.3153
299	5	4	-0.283317	-0.198	13.2648	27.5716
300	5	6	0.17919201	-1.1775	12.9063	27.8587
301	5	4	-0.296314	0.47839999	13.0481	26.2957
302	5	6	0.16397899	0.1019	12.4947	25.444099
303	5	4	0.306925	1.6501	13.6624	26.379499
304	5	4	0.437264	2.6598001	13.7037	25.320299
305	5	5	-0.52681297	3.7432001	14.3165	25.5035
306	5	1	-0.221466	1.7931	14.269	27.619801
307	1	1	-0.143841	-1.5417	11.9874	27.0392
308	1	2	0.0206	-1.5857	12.2234	25.6586
309	1	2	0.092605002	-2.7251	11.4296	25.019699
310	1	7	-0.68250901	-2.7265	11.6125	23.6301
311	1	8	0.38930401	-3.1097	12.5137	23.462999
312	1	3	0.086236	-2.5836999	10.3495	25.2355
313	1	3	0.086236	-3.7017	11.7434	25.453199
314	1	3	0.089987002	-0.62080002	11.9005	25.2127
315	1	3	0.089987002	-1.7129	13.3113	25.4547
316	2	4	0.437264	2.4802999	13.2069	24.3757
317	2	5	-0.52681297	3.4344001	13.0349	23.572599
318	2	4	0.30692399	1.1368001	12.7369	24.032101
319	2	4	-0.296314	0.063100003	12.8637	24.7988
320	2	6	0.16397899	0.0217	13.3264	25.775801
321	2	4	-0.28690001	-1.0448	12.2595	24.0648
322	2	6	0.17919201	-2.0741999	12.1838	24.391199
323	2	4	0.265214	-0.54449999	11.8185	22.916401
324	2	4	0.71868902	-1.2959	11.1369	21.8566
325	2	5	-0.519319	-2.5313001	10.9199	21.9855
326	2	7	-0.69772702	-0.63690001	10.7285	20.7017
327	2	8	0.39682701	-1.1368001	10.2569	19.9576
328	2	1	-0.22493599	0.81470001	12.0916	22.846201
329	4	1	-0.14957801	-2.7918999	12.474	38.020699
330	4	2	0.047070999	-2.8271	12.1918	39.392899
331	4	2	0.155224	-3.0367999	10.6953	39.621899
332	4	1	-0.49365401	-3.1398001	10.4233	40.992599
333	4	3	0.079880998	-3.9770999	10.3771	39.125099
334	4	3	0.079880998	-2.1963999	10.1166	39.173698
335	4	3	0.089312002	-3.6701	12.7536	39.848801
336	4	3	0.089312002	-1.8842	12.5284	39.882401
337	5	4	0.673217	-2.177	10.4668	41.3773
338	5	5	-0.52915001	-1.9252	9.9243002	42.484798
339	5	4	0.254347	-1.1161	11.1522	40.637501
340	5	4	-0.283317	-1.2686	11.7554	39.466202
341	5	6	0.17919201	-2.1842	11.8284	38.8946
342	5	4	-0.296314	0.038199998	12.2987	39.1063
343	5	6	0.16397899	0.28850001	12.8562	38.212002
344	5	4	0.306925	0.86589998	11.9766	40.090401
345	5	4	0.437264	2.2874999	12.3221	40.145599
346	5	5	-0.52681297	2.9867001	11.9657	41.128899
347	5	1	-0.221466	0.19679999	11.2604	41.073299
348	1	1	-0.143841	-1.8990999	12.1855	37.694698
349	1	2	0.0206	-1.169	13.3543	37.440498
350	1	2	0.092605002	-1.6302	13.995	36.131599
351	1	7	-0.68250901	-0.85409999	15.1259	35.843102
352	1	8	0.38930401	-1.175	15.8505	36.442299
353	1	3	0.086236	-1.5118001	13.263	35.304901
354	1	3	0.086236	-2.7072999	14.2702	36.197601
355	1	3	0.089987002	-0.093199998	13.0896	37.358299
356	1	3	0.089987002	-1.2836	14.0744	38.282902
357	2	4	0.437264	2.744	12.8842	39.341301
358	2	5	-0.52681297	3.9985001	12.9636	39.2724
359	2	4	0.30692399	1.9094	13.5491	38.3386
360	2	4	-0.296314	0.58429998	13.5317	38.3134
361	2	6	0.16397899	-0.0656	13.0322	39.019402
362	2	4	-0.28690001	0.18099999	14.3178	37.151299
363	2	6	0.17919201	-0.8312	14.5163	36.822399
364	2	4	0.265214	1.2984	14.7425	36.573002
365	2	4	0.71868902	1.38	15.5715	35.365299
366	2	5	-0.519319	0.33140001	15.9485	34.7752
367	2	7	-0.69772702	2.6259	15.9424	34.870201
368	2	8	0.39682701	2.7047	16.514799	34.0382
369	2	1	-0.22493599	2.4068	14.2897	37.275299
370	4	1	-0.14957801	2.1043	12.2041	53.298901
371	4	2	0.047070999	2.8306	12.0598	52.1092
372	4	2	0.155224	3.1052001	10.5823	51.8307
373	4	1	-0.49365401	3.8891001	10.4427	50.6777
374	4	3	0.079880998	3.6554	10.144	52.6894
375	4	3	0.079880998	2.145	10.0281	51.7164
376	4	3	0.089312002	3.7966001	12.5979	52.216
377	4	3	0.089312002	2.2746999	12.5159	51.257801
378	5	4	0.673217	3.2581999	10.599	49.868698
379	5	5	-0.52915001	3.5987	10.192	48.727402
380	5	4	0.254347	1.9788001	11.2863	50.051701
381	5	4	-0.283317	1.5213	11.7547	51.205101
382	5	6	0.17919201	2.0181	11.6988	52.164501
383	5	4	-0.296314	0.22220001	12.3583	50.921398
384	5	6	0.16397899	-0.4409	12.8405	51.6292
385	5	4	0.306925	0.0077999998	12.202	49.622601
386	5	4	0.437264	-1.1811	12.6601	48.901699
387	5	5	-0.52681297	-1.2859	12.4596	47.664101
388	5	1	-0.221466	1.0739	11.5389	49.030602
389	1	1	-0.143841	1.166	11.9541	53.0905
390	1	2	0.0206	0.42609999	13.1442	53.086498
391	1	2	0.092605002	0.1644	13.6121	54.517899
392	1	7	-0.68250901	-0.63309997	14.7647	54.515301
393	1	8	0.38930401	-0.0405	15.519	54.256901
394	1	3	0.086236	-0.37029999	12.8118	55.071899
395	1	3	0.086236	1.1284	13.8086	55.039799
396	1	3	0.089987002	-0.5449	12.9564	52.580399
397	1	3	0.089987002	0.96530002	13.9345	52.515701
398	2	4	0.437264	-1.9756	13.1718	49.4291
399	2	5	-0.52681297	-3.0883	13.3405	48.864899
400	2	4	0.30692399	-1.7596999	13.6657	50.790501
401	2	4	-0.296314	-0.63340002	13.5435	51.4785
402	2	6	0.16397899	0.2782	13.069	51.140499
403	2	4	-0.28690001	-0.86769998	14.1749	52.773701
404	2	6	0.17919201	-0.1622	14.2606	53.5905
405	2	4	0.265214	-2.1173	14.6243	52.757198
406	2	4	0.71868902	-2.7911999	15.331	53.8521
407	2	5	-0.519319	-2.1849999	15.5646	54.932701
408	2	7	-0.69772702	-4.1096001	15.7453	53.693001
409	2	8	0.39682701	-4.5932999	16.235201	54.435902
410	2	1	-0.22493599	-2.7188001	14.3315	51.540901
411	4	1	-0.14957801	2.6826	26.664	0.4413
412	4	2	0.047070999	2.4953001	26.011801	1.6674
413	4	2	0.155224	2.3399	27.0331	2.7937
414	4	1	-0.49365401	2.2207	26.3808	4.0281
415	4	3	0.079880998	3.2372999	27.6859	2.8224001
416	4	3	0.079880998	1.4497	27.677401	2.6078999
417	4	3	0.089312002	3.3834	25.375799	1.8699
418	4	3	0.089312002	1.6005	25.349199	1.6215
419	5	4	0.673217	1.2536	26.0072	4.0746002
420	5	5	-0.52915001	0.7615	25.693899	5.1898999
421	5	4	0.254347	0.46419999	25.8468	2.8525
422	5	4	-0.283317	0.8811	26.1443	1.6291
423	5	6	0.17919201	1.85	26.5427	1.3588001
424	5	4	-0.296314	-0.222	25.8269	0.72640002
425	5	6	0.16397899	-0.23720001	25.943199	-0.3504
426	5	4	0.306925	-1.2086999	25.3659	1.4822
427	5	4	0.437264	-2.5148001	24.924801	0.98949999
428	5	5	-0.52681297	-3.3845999	24.503401	1.7948999
429	5	1	-0.221466	-0.83340001	25.356501	2.8185
430	1	1	-0.143841	1.7920001	27.003201	0.16159999
431	1	2	0.0206	1.3737	26.1971	-0.90560001
432	1	2	0.092605002	2.1138	26.5839	-2.1858001
433	1	7	-0.68250901	1.6466	25.823999	-3.2669001
434	1	8	0.38930401	2.0487001	24.920401	-3.1731999
435	1	3	0.086236	1.9325	27.658001	-2.4022
436	1	3	0.086236	3.2100999	26.4384	-2.0544
437	1	3	0.089987002	0.28290001	26.3449	-1.0554
438	1	3	0.089987002	1.5469	25.121799	-0.67089999
439	2	4	0.437264	-2.7390001	24.9599	-0.068700001
440	2	5	-0.52681297	-3.9281001	24.8181	-0.45719999
441	2	4	0.30692399	-1.6675	25.171	-1.044
442	2	4	-0.296314	-0.38550001	25.3321	-0.74860001
443	2	6	0.16397899	0.051199999	25.3307	0.2411
444	2	4	-0.28690001	0.31389999	25.508699	-2.0178001
445	2	6	0.17919201	1.3759	25.6663	-2.1565001
446	2	4	0.265214	-0.60699999	25.439699	-2.9721999
447	2	4	0.71868902	-0.3624	25.5641	-4.4134998
448	2	5	-0.519319	0.80479997	25.754601	-4.8509002
449	2	7	-0.69772702	-1.429	25.4706	-5.3014002
450	2	8	0.39682701	-1.2822	25.553101	-6.3000998
451	2	1	-0.22493599	-1.8618	25.2299	-2.4171
452	4	1	-0.14957801	0.30419999	28.555099	12.4431
453	4	2	0.047070999	-0.53060001	28.6094	13.5674
454	4	2	0.155224	-1.9324	29.0674	13.1661
455	4	1	-0.49365401	-2.7476001	29.1868	14.2995
456	4	3	0.079880998	-1.8658	30.058599	12.6706
457	4	3	0.079880998	-2.3787	28.348101	12.4413
458	4	3	0.089312002	-0.1022	29.334	14.2924
459	4	3	0.089312002	-0.57789999	27.612801	14.0638
460	5	4	0.673217	-3.0142	28.2229	14.5766
461	5	5	-0.52915001	-4.0095	28.044701	15.3262
462	5	4	0.254347	-2.2406001	27.076099	14.0981
463	5	4	-0.283317	-1.1784	27.147499	13.3071
464	5	6	0.17919201	-0.73470002	28.048901	12.9058
465	5	4	-0.296314	-0.73040003	25.7747	13.0895
466	5	6	0.16397899	0.1136	25.4515	12.4926
467	5	4	0.306925	-1.5602	24.993999	13.7671
468	5	4	0.437264	-1.4832	23.533501	13.8309
469	5	5	-0.52681297	-2.3247001	22.885201	14.5052
470	5	1	-0.221466	-2.5225999	25.755199	14.4161
471	1	1	-0.143841	0.056600001	27.732	11.9456
472	1	2	0.0206	1.1011	26.818001	12.1387
473	1	2	0.092605002	2.3009	27.189899	11.2677
474	1	7	-0.68250901	3.3196001	26.237801	11.4098
475	1	8	0.38930401	3.7555001	26.417299	12.2843
476	1	3	0.086236	1.9852999	27.216	10.2032
477	1	3	0.086236	2.6751001	28.202299	11.5419
478	1	3	0.089987002	0.74339998	25.805401	11.8545
479	1	3	0.089987002	1.3987	26.789801	13.2121
480	2	4	0.437264	-0.70389998	23.0044	13.2982
481	2	5	-0.52681297	-0.78659999	21.7565	13.1536
482	2	4	0.30692399	0.44060001	23.7335	12.7481
483	2	4	-0.296314	0.62919998	25.042299	12.8401
484	2	6	0.16397899	-0.0241	25.753201	13.3281
485	2	4	-0.28690001	1.8871	25.3293	12.1572
486	2	6	0.17919201	2.3529	26.2992	12.0366
487	2	4	0.265214	2.3506999	24.1679	11.7101
488	2	4	0.71868902	3.5957	23.9709	10.9594
489	2	5	-0.519319	4.3379002	24.951599	10.6811
490	2	7	-0.69772702	3.957	22.690599	10.553
491	2	8	0.39682701	4.8125	22.532301	10.0343
492	2	1	-0.22493599	1.4842	23.139	12.0525
493	4	1	-0.14957801	-2.4277999	24.192101	25.5793
494	4	2	0.047070999	-1.6255	23.2351	26.215
495	4	2	0.155224	-1.2796	22.104401	25.2465
496	4	1	-0.49365401	-0.5345	21.1147	25.9013
497	4	3	0.079880998	-2.2175	21.649	24.865499
498	4	3	0.079880998	-0.71139997	22.5051	24.3755
499	4	3	0.089312002	-2.1870999	22.8186	27.0783
500	4	3	0.089312002	-0.69440001	23.7069	26.6052
501	5	4	0.673217	0.43009999	21.4846	25.998699
502	5	5	-0.52915001	1.3809	20.690201	26.2201
503	5	4	0.254347	0.68629998	22.9207	25.877501
504	5	4	-0.283317	-0.2367	23.8444	25.645399
505	5	6	0.17919201	-1.2970999	23.6754	25.5137
506	5	4	-0.296314	0.461	25.126699	25.605101
507	5	6	0.16397899	0.0221	26.102501	25.436399
508	5	4	0.306925	1.7436	24.8664	25.816
509	5	4	0.437264	2.8123	25.865999	25.859301
510	5	5	-0.52681297	4.0014	25.5112	26.066299
511	5	1	-0.221466	1.9401	23.503799	25.992901
512	1	1	-0.143841	-1.8254	24.7253	24.9967
513	1	2	0.0206	-1.688	25.980301	25.604799
514	1	2	0.092605002	-2.9414001	26.8237	25.372299
515	1	7	-0.68250901	-2.7767	28.102501	25.922001
516	1	8	0.38930401	-2.8872001	28.005199	26.904499
517	1	3	0.086236	-3.1152	26.926399	24.280199
518	1	3	0.086236	-3.8301001	26.321501	25.8176
519	1	3	0.089987002	-0.81199998	26.497	25.157801
520	1	3	0.089987002	-1.4995	25.864	26.696699
521	2	4	0.437264	2.5854001	26.914	25.7124
522	2	5	-0.52681297	3.5216999	27.729601	25.505199
523	2	4	0.30692399	1.1987	27.382299	25.7542
524	2	4	-0.296314	0.13850001	26.614901	25.9636
525	2	6	0.16397899	0.1416	25.5464	26.132601
526	2	4	-0.28690001	-1.0255001	27.495001	25.9226
527	2	6	0.17919201	-2.0609	27.2073	26.0541
528	2	4	0.265214	-0.56800002	28.719999	25.6908
529	2	4	0.71868902	-1.3837	29.933201	25.5674
530	2	5	-0.519319	-2.6380999	29.875999	25.6814
531	2	7	-0.69772702	-0.76459998	31.1546	25.322599
532	2	8	0.39682701	-1.3089	32.004299	25.234501
533	2	1	-0.22493599	0.8154	28.7045	25.5772
534	4	1	-0.14957801	-0.88200003	26.2743	35.908001
535	4	2	0.047070999	-2.1389	26.2306	36.526001
536	4	2	0.155224	-2.8841	24.9582	36.124298
537	4	1	-0.49365401	-4.1669002	24.9478	36.688099
538	4	3	0.079880998	-2.9819	24.9247	35.019001
539	4	3	0.079880998	-2.3108001	24.058901	36.447899
540	4	3	0.089312002	-2.7249999	27.1164	36.200401
541	4	3	0.089312002	-2.0283	26.2792	37.633801
542	5	4	0.673217	-4.0490999	24.703199	37.6898
543	5	5	-0.52915001	-5.0356998	24.278	38.345699
544	5	4	0.254347	-2.7444999	24.848801	38.337399
545	5	4	-0.283317	-1.6416	25.2852	37.743999
546	5	6	0.17919201	-1.5453	25.5928	36.7113
547	5	4	-0.296314	-0.5909	25.268801	38.758099
548	5	6	0.16397899	0.44400001	25.5613	38.6292
549	5	4	0.306925	-1.1497999	24.8241	39.874802
550	5	4	0.437264	-0.45820001	24.6462	41.152802
551	5	5	-0.52681297	-1.0841	24.2153	42.155399
552	5	1	-0.221466	-2.4942	24.5471	39.6684
553	1	1	-0.143841	-0.2992	25.6425	36.405602
554	1	2	0.0206	0.59810001	26.423901	37.145901
555	1	2	0.092605002	1.691	26.9841	36.236
556	1	7	-0.68250901	2.6259999	27.709101	36.987598
557	1	8	0.38930401	2.2014	28.580999	37.203499
558	1	3	0.086236	2.2146001	26.1434	35.7337
559	1	3	0.086236	1.2410001	27.630501	35.4487
560	1	3	0.089987002	1.0642999	25.7852	37.926201
561	1	3	0.089987002	0.059300002	27.254499	37.656799
562	2	4	0.437264	0.5941	24.882999	41.241299
563	2	5	-0.52681297	1.2343	24.500401	42.255402
564	2	4	0.30692399	1.2709	25.6437	40.188999
565	2	4	-0.296314	0.69749999	26.094601	39.082298
566	2	6	0.16397899	-0.3389	25.969601	38.798302
567	2	4	-0.28690001	1.7373	26.7904	38.330002
568	2	6	0.17919201	1.625	27.284201	37.3731
569	2	4	0.265214	2.8512001	26.699301	39.047401
570	2	4	0.71868902	4.1581001	27.255501	38.680099
571	2	5	-0.519319	4.3041	27.888201	37.599201
572	2	7	-0.69772702	5.2426	27.0816	39.533699
573	2	8	0.39682701	6.1533999	27.457899	39.299702
574	2	1	-0.22493599	2.6141	25.992201	40.218102
575	4	1	-0.14957801	-1.0789	23.6705	49.756401
576	4	2	0.047070999	0.2412	23.2045	49.819199
577	4	2	0.155224	0.9483	23.4312	48.483299
578	4	1	-0.49365401	2.2458999	22.903999	48.524799
579	4	3	0.079880998	0.38229999	22.9182	47.677799
580	4	3	0.079880998	0.97909999	24.5194	48.244801
581	4	3	0.089312002	0.2229	22.116699	50.0438
582	4	3	0.089312002	0.79449999	23.716299	50.639999
583	5	4	0.673217	2.8199	23.570499	49.0756
584	5	5	-0.52915001	4.0742002	23.5399	48.9762
585	5	4	0.254347	2.177	24.5424	49.961399
586	5	4	-0.283317	0.86860001	24.662901	50.1418
587	5	6	0.17919201	0.096699998	24.070601	49.6689
588	5	4	-0.296314	0.68059999	25.747299	51.101799
589	5	6	0.16397899	-0.2604	26.122999	51.4846
590	5	4	0.306925	1.8906	26.1873	51.417301
591	5	4	0.437264	2.1759	27.275801	52.353699
592	5	5	-0.52681297	3.365	27.616899	52.582802
593	5	1	-0.221466	2.8622	25.4692	50.733898
594	1	1	-0.143841	-1.0335	24.6605	49.821301
595	1	2	0.0206	-1.5078	25.000299	51.095402
596	1	2	0.092605002	-3.0320001	24.895599	51.140598
597	1	7	-0.68250901	-3.5109	25.3008	52.394001
598	1	8	0.38930401	-3.3281	24.553499	53.022598
599	1	3	0.086236	-3.467	25.558701	50.363201
600	1	3	0.086236	-3.3517001	23.8515	50.922199
601	1	3	0.089987002	-1.2067	26.046101	51.3186
602	1	3	0.089987002	-1.0534	24.3384	51.867901
603	2	4	0.437264	1.3664	27.792999	52.8522
604	2	5	-0.52681297	1.597	28.873699	53.455299
605	2	4	0.30692399	0.0105	27.2407	52.8265
606	2	4	-0.296314	-0.34529999	26.115	52.224098
607	2	6	0.16397899	0.3037	25.4485	51.671902