Title

16250 atoms
16375 bonds
30750 angles
61500 dihedrals
2250 impropers

11 atom types
14 bond types
9 angle types
39 dihedral types
3 improper types
-10.13145119 101.548345 xlo xhi
-9.801229734 102.2155525 ylo yhi
-9.875817484 102.4975938 zlo zhi
0.0 0.0 0.0 xy xz yz

Masses

1	12.01078
2	15.99943
3	14.00672
4	12.01078
5	1.007947
6	1.007947
7	1.007947
8	15.99943
9	12.01078
10	15.99943
11	1.007947


Pair Coeffs

1	0.086879315	3.4806469
2	0.2102061	3.0398122
3	0.16769152	3.206876
4	0.10884061	3.3795318
5	0.015779483	2.6445434
6	0.014090815	1.1034277
7	0.016409246	2.5832257
8	0.16846514	3.0251065
9	0.21	3.3996695
10	0.20947353	2.99716
11	1.2326e-05	0.53453923

Bond Coeffs

1 harmonic	582.698766451	1.225198386222
2 harmonic	492.76746816345	1.381897776683
3 harmonic	279.1350963404	1.454628925034
4 harmonic	352.0565580496	1.450098586273
5 harmonic	505.144496193	1.019481865027
6 harmonic	264.62148576755	1.52190126495
7 harmonic	370.04670688625	1.093899492634
8 harmonic	301.15400723785	1.345741232799
9 harmonic	366.7408841747	1.425895053732
10 harmonic	300.03137914615	1.451203938761
11 harmonic	366.34047229585	1.464762957261
12 harmonic	602.81384337	1.196112346392
13 harmonic	329.96998057905	1.427343958716
14 harmonic	543.5267831885	0.9716763312559


Angle Coeffs

1 harmonic	55.42182150775	117.3465570514
2 harmonic	63.44422595415	115.5071327674
3 harmonic	57.8982893754	126.8062420451
4 harmonic	53.20531626545	116.5475862634
5 harmonic	48.776492647595	115.6030999533
6 harmonic	65.09061609600001	110.3538806181
7 harmonic	201.41175231035	127.4691416191
8 harmonic	55.07882548015	112.8714009681
9 harmonic	33.56981613361	180


Dihedral Coeffs

1 fourier 1	-0.1488678166443	4	180
2 fourier 1	-0.1230328948768	3	180
3 fourier 1	0.2939295466901	2	0
4 fourier 1	-0.3024127022865	1	0
5 fourier 1	0.182238503271	2	0
6 fourier 1	0.02972342374561	3	0
7 fourier 1	1.809047390003	2	180
8 fourier 1	-0.04816277792592	1	0
9 fourier 1	3.101948770557	2	180
10 fourier 1	-0.4252153282372	1	0
11 fourier 1	2.348375642009	2	180
12 fourier 1	1.256156174911	1	0
13 fourier 1	0.9974165607242	2	180
14 fourier 1	0.1155372516788	3	0
15 fourier 1	0.1040663847541	3	0
16 fourier 1	0.09223874044423	3	0
17 fourier 1	0.3159935921949	2	180
18 fourier 1	0.3247796806857	1	180
19 fourier 1	0.1911926717192	3	0
20 fourier 1	2.779853741805	2	180
21 fourier 1	0.1918272375143	3	0
22 fourier 1	0.9202179876409	1	180
23 fourier 1	0.0473758381877	3	0
24 fourier 1	0.4860993122944	2	180
25 fourier 1	0.8916986138746	1	0
26 fourier 1	1.163809172478	2	180
27 fourier 1	0.1679186987369	1	180
28 fourier 1	-0.0309670556842	3	0
29 fourier 1	0.4598191477945	2	0
30 fourier 1	0.1115525666802	3	0
31 fourier 1	0.3432490222662	1	0
32 fourier 1	0.4552156463534	3	0
33 fourier 1	-0.03687743385131	2	180
34 fourier 1	0.457973137376	1	0
35 fourier 1	-1.382973039546	1	0
36 fourier 1	0	1	0
37 fourier 1	0.3445382149273	3	0
38 fourier 1	0.1364556373303	1	0
39 fourier 1	0.3026390167484	3	0


Improper Coeffs

1 0.3333333333333333	-1	2
2 0.3666666666666667	-1	2
3 3.5	-1	2


Atoms

1	6	1	0.54474228	4.4989513	-1.044381	0.7611974
2	6	2	-0.67865831	5.5015836	-1.6901565	1.1658152
3	6	3	-0.48804567	4.3104697	0.32480398	1.1291392
4	6	4	0.00071962062	5.2691863	1.0185697	1.9978547
5	6	4	-0.0072805204	4.9382074	2.5292801	2.2244385
6	6	4	-0.16906682	4.8950115	3.230197	0.83942169
7	6	5	0.075104597	5.8501409	3.073653	0.29310415
8	6	5	0.075104597	4.7395253	4.3257285	0.95021743
9	6	5	0.075104597	4.0647942	2.8555054	0.20842376
10	6	4	-0.20396468	3.5671768	2.7385321	2.9244604
11	6	5	0.11435182	2.7659197	2.1769276	2.4003779
12	6	5	0.11435182	3.2870542	3.815076	2.8620301
13	6	4	0.12921194	3.5725237	2.3310297	4.4076675
14	6	3	-0.51543105	2.2455962	2.5560015	4.9929819
15	6	1	0.80814057	1.8323764	1.9451828	6.2202235
16	6	2	-0.5976491	2.5988265	1.1655471	6.8463124
17	6	6	0.31758078	1.5493819	3.155918	4.4946308
18	6	7	0.049795154	3.7965923	1.2467943	4.47783
19	6	4	-0.20755807	4.6211802	3.1534692	5.1772121
20	6	5	0.11588469	4.3132686	4.2233761	5.1413283
21	6	5	0.11588469	4.6163901	2.853814	6.2494456
22	6	4	-0.027038251	6.0563808	3.0063055	4.6081415
23	6	4	-0.1708119	6.9409663	4.1067301	5.2447726
24	6	5	0.078140493	7.9870785	4.0272236	4.8778996
25	6	5	0.078140493	6.5620675	5.1215976	4.9964707
26	6	5	0.078140493	6.9515472	4.0160996	6.3532613
27	6	4	-0.1708119	6.6723643	1.6427157	5.0178917
28	6	5	0.078140493	5.9545682	0.80666693	4.9524687
29	6	5	0.078140493	7.5634324	1.4054817	4.3977888
30	6	5	0.078140493	6.9961706	1.6593411	6.0811805
31	6	4	-0.20987422	6.0664242	3.2219843	3.0588824
32	6	5	0.11608128	5.9763736	4.3192713	2.8857255
33	6	5	0.11608128	7.0627739	2.9457378	2.6473097
34	6	7	0.07232264	6.2798084	0.93577417	1.5423046
35	6	7	0.07232264	5.3036884	0.47069002	2.9508796
36	6	6	0.31823998	3.4518902	0.79484808	0.7721269
37	7	8	-0.4961027	0.88690636	2.1417658	6.598465
38	7	4	0.10959569	0.24682976	2.9714102	5.6674665
39	7	4	0.079398114	-0.22953168	2.1564504	4.4681553
40	7	8	-0.48556695	-0.90064381	3.0101232	3.5671806
41	7	4	0.059999	-1.3467131	2.2638673	2.4545768
42	7	4	0.060256853	-2.0680439	3.1962221	1.4840519
43	7	8	-0.48566863	-2.4549264	2.4867702	0.32213886
44	7	4	0.060256853	-3.8025421	2.0735006	0.41707184
45	7	4	0.060256853	-4.1176231	1.1054063	-0.72112119
46	7	8	-0.4877615	-3.2219888	0.0082446025	-0.6993871
47	7	4	0.080320257	-3.7882153	-1.0825523	-0.0038737631
48	7	4	0.029946557	-2.7361711	-2.1766247	0.14785807
49	7	8	-0.14214729	-3.261597	-3.2636539	0.86031587
50	7	7	0.091867368	-2.3768584	-2.5055651	-0.85446603
51	7	7	0.091867368	-1.8668202	-1.7715513	0.70879524
52	7	7	0.087996434	-4.6504537	-1.4943079	-0.57602519
53	7	7	0.087996434	-4.1283713	-0.78155169	1.0125354
54	7	7	0.087820213	-5.1921369	0.80485483	-0.68109716
55	7	7	0.087820213	-3.9796795	1.641534	-1.6838609
56	7	7	0.087820213	-4.4753298	2.9562317	0.32461364
57	7	7	0.087820213	-4.0098246	1.5647718	1.3857627
58	7	7	0.087820213	-1.3600226	3.9945884	1.174709
59	7	7	0.087820213	-2.9159091	3.7077176	1.9991634
60	7	7	0.087820213	-0.4848584	1.8009849	1.9198167
61	7	7	0.087820213	-2.0527891	1.4653522	2.7756753
62	7	7	0.086474429	0.65996992	1.6919765	3.9827319
63	7	7	0.086474429	-0.9118041	1.3559398	4.8368395
64	7	7	0.094366188	0.93333985	3.7820063	5.3311292
65	7	7	0.094366188	-0.63008869	3.4456877	6.1584175
66	4	1	0.55740559	3.7711148	-1.5339761	0.12788096
67	4	2	-0.66815353	2.5824191	-1.6507034	0.52802886
68	4	3	-0.56667847	4.1696286	-2.0330345	-1.153678
69	4	4	0.12700875	3.2375609	-2.7177418	-2.0584182
70	4	7	0.047618437	2.2881898	-2.1468814	-2.0606531
71	4	4	-0.20867226	2.9954769	-4.1538445	-1.55838
72	4	5	0.1158847	2.5689162	-4.1225055	-0.53168151
73	4	5	0.1158847	3.98395	-4.6613589	-1.4812563
74	4	4	-0.027573921	2.0596636	-4.9789646	-2.480185
75	4	4	-0.17081188	2.1362662	-6.4605927	-2.0403486
76	4	5	0.078140508	1.4705346	-7.0906185	-2.6696419
77	4	5	0.078140508	1.8263633	-6.5773482	-0.97911043
78	4	5	0.078140508	3.1720696	-6.8546585	-2.1326924
79	4	4	-0.17081188	0.58462276	-4.5363792	-2.3121616
80	4	5	0.078140508	0.4551503	-3.4434303	-2.3441055
81	4	5	0.078140508	0.19219841	-4.8548924	-1.3225058
82	4	5	0.078140508	-0.055618281	-4.9953628	-3.0956911
83	4	4	-0.20858148	2.5325627	-4.8936718	-3.9650306
84	4	5	0.11476615	3.4439815	-5.5283733	-4.052087
85	4	5	0.11476615	1.7824507	-5.3770458	-4.6274177
86	4	4	0.025485105	2.9115369	-3.4769777	-4.5103389
87	4	4	-0.16762077	3.7322644	-3.6689237	-5.811176
88	4	5	0.071645322	4.03521	-2.6877414	-6.2370436
89	4	5	0.071645322	3.1383649	-4.2144819	-6.5765039
90	4	5	0.071645322	4.658258	-4.253111	-5.6192021
91	4	4	0.14431639	1.6733579	-2.6033241	-4.8702878
92	4	3	-0.61490018	0.74190166	-3.3285961	-5.7281758
93	4	9	0.60131508	-0.33089954	-2.7864952	-6.145037
94	4	2	-0.45240048	-1.3743338	-2.2587174	-6.5505212
95	4	7	0.070599231	1.1402759	-2.245361	-3.9746919
96	4	7	0.070599231	2.0115721	-1.6844378	-5.4014564
97	4	4	-0.20507293	3.8153823	-2.7398077	-3.4855106
98	4	5	0.11423002	4.8112007	-3.2370624	-3.4480074
99	4	5	0.11423002	3.9895229	-1.6934168	-3.8224618
100	4	6	0.31460139	5.1568751	-1.8618455	-1.450898
101	5	8	-0.14214729	-3.8411088	-3.7635753	0.22877997
102	5	4	0.029946557	-5.1188325	-3.1955138	0.32082531
103	5	4	0.080320257	-5.1681712	-1.871123	-0.43498274
104	5	8	-0.4877615	-6.4737973	-1.3419911	-0.35438
105	5	4	0.060256853	-6.5295255	-0.11661983	-1.0539002
106	5	4	0.060256853	-7.9439887	0.44983727	-0.95889823
107	5	8	-0.48566863	-8.0048936	1.7174508	-1.5837003
108	5	4	0.060256853	-8.4927709	1.5987021	-2.9046566
109	5	4	0.060256853	-8.3122298	2.9275789	-3.6337975
110	5	8	-0.48351828	-6.9550509	3.3304562	-3.6005488
111	5	4	0.052467107	-6.288104	2.9284697	-4.7792403
112	5	4	0.07479063	-4.79817	3.2232399	-4.6332223
113	5	10	-0.67983878	-4.1048471	2.8080975	-5.7782503
114	5	11	0.39165213	-4.2782611	3.4898295	-6.4789578
115	5	7	0.088518049	-4.6389116	4.3116635	-4.4549116
116	5	7	0.088518049	-4.4000978	2.6695668	-3.7572762
117	5	7	0.088880862	-6.6801855	3.4959939	-5.6526848
118	5	7	0.088880862	-6.4107574	1.8365676	-4.9599944
119	5	7	0.087820213	-8.7324653	2.8580865	-4.6651257
120	5	7	0.087820213	-8.9115395	3.6997393	-3.1053072
121	5	7	0.087820213	-9.5777725	1.3514639	-2.8864661
122	5	7	0.087820213	-7.95363	0.80534854	-3.4715209
123	5	7	0.087820213	-8.1941371	0.58710932	0.11531738
124	5	7	0.087820213	-8.6814887	-0.28498925	-1.3625102
125	5	7	0.087820213	-5.8254819	0.623374	-0.60717249
126	5	7	0.087820213	-6.2750813	-0.26584918	-2.1273618
127	5	7	0.087996434	-4.431658	-1.1741213	0.026924255
128	5	7	0.087996434	-4.8834034	-2.0624241	-1.4956204
129	5	7	0.091867368	-5.3987081	-3.0383196	1.388303
130	5	7	0.091867368	-5.8533081	-3.8994264	-0.12568406
131	6	1	0.54474228	1.9212406	-1.437454	24.628627
132	6	2	-0.67865831	2.1511605	-2.1788577	25.620328
133	6	3	-0.48804567	1.5281454	-0.073932765	24.80712
134	6	4	0.00071962062	1.3678011	0.50291804	26.147511
135	6	4	-0.0072805204	1.0115831	2.0248284	26.141967
136	6	4	-0.16906682	2.1343828	2.7838188	25.383893
137	6	5	0.075104597	3.1251467	2.5729368	25.841229
138	6	5	0.075104597	1.9681648	3.8828198	25.418669
139	6	5	0.075104597	2.1762678	2.5043934	24.312454
140	6	4	-0.20396468	-0.34156663	2.315638	25.436306
141	6	5	0.11435182	-0.37339348	1.8432878	24.43234
142	6	5	0.11435182	-0.43649763	3.4130559	25.269048
143	6	4	0.12921194	-1.5630626	1.847839	26.245689
144	6	3	-0.51543105	-2.7966079	2.1554777	25.512432
145	6	1	0.80814057	-4.0482751	1.5298722	25.815613
146	6	2	-0.5976491	-4.136478	0.66518018	26.72764
147	6	6	0.31758078	-2.7756648	2.8301877	24.714124
148	6	7	0.049795154	-1.5064774	0.74699893	26.370771
149	6	4	-0.20755807	-1.5891196	2.5496288	27.615032
150	6	5	0.11588469	-1.7217713	3.6415952	27.439501
151	6	5	0.11588469	-2.4771448	2.2071092	28.192606
152	6	4	-0.027038251	-0.30637596	2.3099946	28.45315
153	6	4	-0.1708119	-0.3131111	3.3074672	29.637941
154	6	5	0.078140493	0.58281168	3.1584543	30.278554
155	6	5	0.078140493	-0.31216337	4.3592133	29.27877
156	6	5	0.078140493	-1.2196531	3.1703445	30.267585
157	6	4	-0.1708119	-0.30942647	0.88500238	29.066417
158	6	5	0.078140493	-0.67424406	0.11352947	28.366255
159	6	5	0.078140493	0.70457362	0.60203918	29.422149
160	6	5	0.078140493	-0.9992725	0.83109327	29.936426
161	6	4	-0.20987422	0.9758501	2.5882614	27.601513
162	6	5	0.11608128	1.0803666	3.6954756	27.528821
163	6	5	0.11608128	1.8778146	2.249232	28.158232
164	6	7	0.07232264	2.3164051	0.3571965	26.708451
165	6	7	0.07232264	0.59712667	-0.085036548	26.667116
166	6	6	0.31823998	1.3389045	0.47878364	23.944421
167	7	8	-0.4961027	-4.8948538	1.7868169	25.274403
168	7	4	0.10959569	-4.4834232	2.7036884	24.297245
169	7	4	0.079398114	-3.7782667	1.9806484	23.152957
170	7	8	-0.48556695	-3.4088893	2.9227255	22.169618
171	7	4	0.059999	-2.7569547	2.2620401	21.105551
172	7	4	0.060256853	-2.3580043	3.289441	20.04876
173	7	8	-0.48566863	-1.6313997	2.6626398	19.008467
174	7	4	0.060256853	-2.4812792	2.3567393	17.922188
175	7	4	0.060256853	-1.7364767	1.4655527	16.930714
176	7	8	-0.4877615	-1.2581131	0.29924102	17.576688
177	7	4	0.080320257	-2.165476	-0.7698255	17.409421
178	7	4	0.029946557	-1.7049697	-1.9511753	18.257454
179	7	8	-0.14214729	-2.6030041	-3.0205111	18.133533
180	7	7	0.091867368	-0.68036983	-2.2663564	17.952795
181	7	7	0.091867368	-1.66661	-1.6417693	19.323898
182	7	7	0.087996434	-2.1906493	-1.0859988	16.341827
183	7	7	0.087996434	-3.191098	-0.48460999	17.735222
184	7	7	0.087820213	-2.3844403	1.2519709	16.04695
185	7	7	0.087820213	-0.85983732	2.0281848	16.545646
186	7	7	0.087820213	-2.7773056	3.2943303	17.399027
187	7	7	0.087820213	-3.4019312	1.826783	18.256373
188	7	7	0.087820213	-1.6910556	4.0397391	20.524793
189	7	7	0.087820213	-3.2577497	3.846365	19.693602
190	7	7	0.087820213	-1.8325008	1.7532042	21.465402
191	7	7	0.087820213	-3.4324645	1.5109477	20.637768
192	7	7	0.086474429	-2.8786686	1.4659315	23.563292
193	7	7	0.086474429	-4.4793842	1.223658	22.731482
194	7	7	0.094366188	-3.8063689	3.469035	24.74146
195	7	7	0.094366188	-5.3802872	3.2269152	23.901231
196	4	1	0.55740559	2.0218852	-1.8395319	23.629256
197	4	2	-0.66815353	1.0150811	-1.8757201	22.873096
198	4	3	-0.56667847	3.2963181	-2.315718	23.182788
199	4	4	0.12700875	3.5015572	-2.8842198	21.844576
200	4	7	0.047618437	2.970169	-2.2384512	21.118076
201	4	4	-0.20867226	2.9351495	-4.3153947	21.800362
202	4	5	0.1158847	1.8486163	-4.2921155	22.036899
203	4	5	0.1158847	3.4279812	-4.90437	22.607098
204	4	4	-0.027573921	3.1505773	-5.02271	20.436694
205	4	4	-0.17081188	2.8144459	-6.5226358	20.614975
206	4	5	0.078140508	2.9454079	-7.0697751	19.656003
207	4	5	0.078140508	1.7640845	-6.6577525	20.95318
208	4	5	0.078140508	3.4749363	-6.995451	21.374516
209	4	4	-0.17081188	2.1785281	-4.4690019	19.365066
210	4	5	0.078140508	2.1444483	-3.3687633	19.339875
211	4	5	0.078140508	1.137612	-4.7953521	19.576857
212	4	5	0.078140508	2.4529001	-4.8414842	18.354883
213	4	4	-0.20858148	4.6416111	-4.9145962	19.988581
214	4	5	0.11476615	5.2240466	-5.617147	20.627565
215	4	5	0.11476615	4.7535604	-5.307461	18.955044
216	4	4	0.025485105	5.3228952	-3.5120013	20.117363
217	4	4	-0.16762077	6.8571595	-3.7158904	20.033242
218	4	5	0.071645322	7.3916645	-2.7457638	20.128199
219	4	5	0.071645322	7.1418777	-4.1791096	19.063479
220	4	5	0.071645322	7.2190703	-4.3809049	20.847103
221	4	4	0.14431639	4.9249997	-2.5263715	18.978884
222	4	3	-0.61490018	5.0915679	-3.137263	17.664095
223	4	9	0.60131508	4.8305258	-2.4928868	16.598645
224	4	2	-0.45240048	4.5766639	-1.8656341	15.562387
225	4	7	0.070599231	3.8896377	-2.1637286	19.083391
226	4	7	0.070599231	5.565397	-1.6167779	19.037295
227	4	4	-0.20507293	5.0034944	-2.8939455	21.50539
228	4	5	0.11423002	5.5332087	-3.4716567	22.296576
229	4	5	0.11423002	5.3923936	-1.8520993	21.551313
230	4	6	0.31460139	4.1045303	-2.2131867	23.837449
231	5	8	-0.14214729	-2.4195539	-3.4450074	17.255614
232	5	4	0.029946557	-3.2153285	-2.7792386	16.31368
233	5	4	0.080320257	-2.6057924	-1.4249954	15.964135
234	5	8	-0.4877615	-3.4085091	-0.79524989	14.989351
235	5	4	0.060256853	-2.8500985	0.45857061	14.657567
236	5	4	0.060256853	-3.7261274	1.1337381	13.605271
237	5	8	-0.48566863	-3.2315845	2.426944	13.315483
238	5	4	0.060256853	-2.4244708	2.403193	12.155719
239	5	4	0.060256853	-1.7060072	3.7421035	12.009829
240	5	8	-0.48351828	-0.95621084	4.0315571	13.17575
241	5	4	0.052467107	0.38755864	3.6259397	13.016116
242	5	4	0.07479063	1.118849	3.7922616	14.344899
243	5	10	-0.67983878	2.4497859	3.3700013	14.224766
244	5	11	0.39165213	2.9355836	4.092072	13.746815
245	5	7	0.088518049	1.0761173	4.8557881	14.674913
246	5	7	0.088518049	0.61835079	3.1721729	15.117743
247	5	7	0.088880862	0.88957747	4.2592307	12.250847
248	5	7	0.088880862	0.45308508	2.5560742	12.714354
249	5	7	0.087820213	-1.0979528	3.7498811	11.074268
250	5	7	0.087820213	-2.4721497	4.5378368	11.889246
251	5	7	0.087820213	-3.0597992	2.244461	11.255803
252	5	7	0.087820213	-1.6612691	1.5928406	12.203365
253	5	7	0.087820213	-4.7500631	1.2461904	14.022724
254	5	7	0.087820213	-3.8228458	0.47870427	12.706185
255	5	7	0.087820213	-2.8078056	1.1196811	15.554215
256	5	7	0.087820213	-1.8244843	0.33383036	14.242975
257	5	7	0.087996434	-2.5580299	-0.80996788	16.892079
258	5	7	0.087996434	-1.5739817	-1.5946298	15.577829
259	5	7	0.091867368	-4.2503956	-2.6442504	16.704786
260	5	7	0.091867368	-3.2746766	-3.4019531	15.395518
261	6	1	0.54474228	-1.96319	-0.66433285	45.41608
262	6	2	-0.67865831	-2.5796436	-0.3912996	46.479777
263	6	3	-0.48804567	-0.66400271	-1.2612434	45.453287
264	6	4	0.00071962062	-0.0014812485	-1.5639133	46.727874
265	6	4	-0.0072805204	1.3759285	-2.2853227	46.568362
266	6	4	-0.16906682	1.1456552	-3.6033045	45.780124
267	6	5	0.075104597	0.38345413	-4.2331897	46.287603
268	6	5	0.075104597	2.084578	-4.1946155	45.706528
269	6	5	0.075104597	0.80907918	-3.4143465	44.741459
270	6	4	-0.20396468	2.4115373	-1.4239454	45.794356
271	6	5	0.11435182	1.9839813	-1.0558708	44.838431
272	6	5	0.11435182	3.2841608	-2.0609571	45.522221
273	6	4	0.12921194	2.9300911	-0.22273929	46.60318
274	6	3	-0.51543105	3.8978787	0.53803534	45.804086
275	6	1	0.80814057	4.2705572	1.883177	46.122954
276	6	2	-0.5976491	3.7612426	2.4804751	47.108397
277	6	6	0.31758078	4.3184936	0.1113791	44.947339
278	6	7	0.049795154	2.0759865	0.44708115	46.8324
279	6	4	-0.20755807	3.6018349	-0.7096131	47.899328
280	6	5	0.11588469	4.4941722	-1.3141908	47.618227
281	6	5	0.11588469	3.9759914	0.16563618	48.476776
282	6	4	-0.027038251	2.6628642	-1.5557576	48.798034
283	6	4	-0.1708119	3.5275862	-2.2432572	49.883541
284	6	5	0.078140493	2.8906891	-2.8481932	50.564483
285	6	5	0.078140493	4.2856265	-2.9162455	49.427871
286	6	5	0.078140493	4.0732513	-1.4896731	50.492994
287	6	4	-0.1708119	1.6486503	-0.64716673	49.541365
288	6	5	0.078140493	1.240946	0.15716497	48.90472
289	6	5	0.078140493	0.80765992	-1.244033	49.955244
290	6	5	0.078140493	2.1379379	-0.12067557	50.389371
291	6	4	-0.20987422	1.9581423	-2.6779769	47.966882
292	6	5	0.11608128	2.716896	-3.4759194	47.794512
293	6	5	0.11608128	1.1665076	-3.1606668	48.582303
294	6	7	0.07232264	-0.67758675	-2.2080406	47.330965
295	6	7	0.07232264	0.10607117	-0.61559501	47.274449
296	6	6	0.31823998	-0.20420434	-1.4468234	44.536934
297	7	8	-0.4961027	4.9657319	2.3768167	45.532465
298	7	4	0.10959569	5.2976776	1.5029369	44.487997
299	7	4	0.079398114	4.1881591	1.4809298	43.440185
300	7	8	-0.48556695	4.5659155	0.62271836	42.385824
301	7	4	0.059999	3.5454304	0.59752312	41.410253
302	7	4	0.060256853	3.9613706	-0.33603808	40.275802
303	7	8	-0.48566863	2.9199297	-0.44075031	39.323185
304	7	4	0.060256853	3.1431932	0.44175282	38.242808
305	7	4	0.060256853	1.8953552	0.49374024	37.36408
306	7	8	-0.4877615	0.76518451	0.86781174	38.131662
307	7	4	0.080320257	0.53619387	2.2579369	38.035203
308	7	4	0.029946557	-0.57500755	2.6480494	39.004666
309	7	8	-0.14214729	-0.80627838	4.0297174	38.951673
310	7	7	0.091867368	-1.5081269	2.0879624	38.764766
311	7	7	0.091867368	-0.26861495	2.3789309	40.038206
312	7	7	0.087996434	0.21600707	2.5215134	37.001587
313	7	7	0.087996434	1.4493714	2.8375586	38.298909
314	7	7	0.087820213	2.0752336	1.1557837	36.483254
315	7	7	0.087820213	1.7121039	-0.52323129	36.957242
316	7	7	0.087820213	3.9936826	0.074094308	37.624827
317	7	7	0.087820213	3.3750293	1.472623	38.594507
318	7	7	0.087820213	4.1355506	-1.3474383	40.701368
319	7	7	0.087820213	4.9342106	-0.004261451	39.840658
320	7	7	0.087820213	2.5931252	0.21552358	41.846387
321	7	7	0.087820213	3.3769931	1.6156306	40.992688
322	7	7	0.086474429	3.2522848	1.1197759	43.926284
323	7	7	0.086474429	4.0362445	2.5206145	43.068407
324	7	7	0.094366188	5.4736639	0.47522241	44.880829
325	7	7	0.094366188	6.239499	1.8559581	44.015444
326	4	1	0.55740559	-2.4237451	-0.44259153	44.46253
327	4	2	-0.66815353	-1.8646865	0.37119697	43.680262
328	4	3	-0.56667847	-3.6539802	-1.0819847	44.104809
329	4	4	0.12700875	-4.3392718	-0.81885314	42.833091
330	4	7	0.047618437	-3.5738754	-0.81069852	42.032283
331	4	4	-0.20867226	-5.0517111	0.54438267	42.904172
332	4	5	0.1158847	-4.3042808	1.3440364	43.101524
333	4	5	0.1158847	-5.7418166	0.52554959	43.778242
334	4	4	-0.027573921	-5.8504993	0.89115045	41.620434
335	4	4	-0.17081188	-6.7442236	2.1166539	41.926937
336	4	5	0.078140508	-7.330017	2.4084735	41.028144
337	4	5	0.078140508	-6.1302295	2.988427	42.241454
338	4	5	0.078140508	-7.460493	1.8967951	42.748718
339	4	4	-0.17081188	-4.8991047	1.3056569	40.470264
340	4	5	0.078140508	-4.0508974	0.61557099	40.341241
341	4	5	0.078140508	-4.4469079	2.2994236	40.677174
342	4	5	0.078140508	-5.4515907	1.3768592	39.50892
343	4	4	-0.20858148	-6.7821448	-0.29299795	41.213612
344	4	5	0.11476615	-7.6316357	-0.29968402	41.934327
345	4	5	0.11476615	-7.246285	-0.084593124	40.225575
346	4	4	0.025485105	-6.1582773	-1.727715	41.233143
347	4	4	-0.16762077	-7.3193862	-2.7544785	41.219108
348	4	5	0.071645322	-6.9285762	-3.7949906	41.240558
349	4	5	0.071645322	-7.9431951	-2.6334581	40.306806
350	4	5	0.071645322	-7.9807627	-2.6248189	42.103055
351	4	4	0.14431639	-5.2620406	-2.0272817	39.995023
352	4	3	-0.61490018	-5.9518824	-1.7080736	38.7493
353	4	9	0.60131508	-5.3950036	-1.8916481	37.620258
354	4	2	-0.45240048	-4.8530005	-2.0705605	36.522102
355	4	7	0.070599231	-4.3046534	-1.4827417	40.030966
356	4	7	0.070599231	-4.9891848	-3.1072805	39.989259
357	4	4	-0.20507293	-5.3566834	-1.9384192	42.546033
358	4	5	0.11423002	-6.0637796	-1.9919789	43.404793
359	4	5	0.11423002	-4.8215176	-2.9135517	42.507185
360	4	6	0.31460139	-4.0430444	-1.7848465	44.773326
361	5	8	-0.14214729	-1.3264617	4.1989352	38.123804
362	5	4	0.029946557	-0.3936021	4.4021771	37.098031
363	5	4	0.080320257	0.19646172	3.0705849	36.643743
364	5	8	-0.4877615	1.1036923	3.303742	35.58842
365	5	4	0.060256853	1.653109	2.0756776	35.159504
366	5	4	0.060256853	2.635156	2.3375922	34.020386
367	5	8	-0.48566863	3.2597224	1.1307506	33.627473
368	5	4	0.060256853	2.6087975	0.57644478	32.502265
369	5	4	0.060256853	3.1351337	-0.8350471	32.255656
370	5	8	-0.48351828	2.9720621	-1.6338668	33.413518
371	5	4	0.052467107	1.7762501	-2.3821247	33.336911
372	5	4	0.07479063	1.547573	-3.0925737	34.667731
373	5	10	-0.67983878	0.35124046	-3.8216892	34.631562
374	5	11	0.39165213	0.53415132	-4.6430147	34.104504
375	5	7	0.088518049	2.4065712	-3.7649978	34.89531
376	5	7	0.088518049	1.478244	-2.3371883	35.478215
377	5	7	0.088880862	1.8552269	-3.1475371	32.532782
378	5	7	0.088880862	0.90023298	-1.7238632	33.13879
379	5	7	0.087820213	2.6583656	-1.2671384	31.344034
380	5	7	0.087820213	4.222353	-0.76856076	32.036021
381	5	7	0.087820213	2.8202449	1.193761	31.600657
382	5	7	0.087820213	1.5057554	0.5243424	32.650593
383	5	7	0.087820213	3.4256294	3.0251875	34.391495
384	5	7	0.087820213	2.1220357	2.8700777	33.183759
385	5	7	0.087820213	2.206047	1.5805636	35.991343
386	5	7	0.087820213	0.85255479	1.3947129	34.792447
387	5	7	0.087996434	0.7140305	2.6002208	37.511211
388	5	7	0.087996434	-0.63931821	2.4131534	36.309233
389	5	7	0.091867368	0.4186594	5.0844755	37.440448
390	5	7	0.091867368	-0.90850491	4.8859758	36.240633
391	6	1	0.54474228	0.31599634	3.9627999	59.357288
392	6	2	-0.67865831	0.33624507	4.7199288	58.351128
393	6	3	-0.48804567	1.3984999	3.9552341	60.292009
394	6	4	0.00071962062	2.5717649	4.8175731	60.105099
395	6	4	-0.0072805204	3.6124336	4.7294197	61.268013
396	6	4	-0.16906682	2.8956984	5.1120381	62.591386
397	6	5	0.075104597	2.4272791	6.1162135	62.505038
398	6	5	0.075104597	3.612793	5.1406324	63.440856
399	6	5	0.075104597	2.1095946	4.3809956	62.866032
400	6	4	-0.20396468	4.2076253	3.303088	61.425705
401	6	5	0.11435182	3.4012629	2.5426832	61.48603
402	6	5	0.11435182	4.7648177	3.2455164	62.388791
403	6	4	0.12921194	5.1721807	2.9171655	60.291383
404	6	3	-0.51543105	5.6866212	1.5604928	60.512136
405	6	1	0.80814057	6.2968139	0.79010552	59.470916
406	6	2	-0.5976491	6.4023704	1.2487869	58.30227
407	6	6	0.31758078	5.5846844	1.1089405	61.449514
408	6	7	0.049795154	4.6129408	2.9178874	59.333288
409	6	4	-0.20755807	6.3461913	3.9106018	60.235978
410	6	5	0.11588469	6.9191233	3.8194863	61.186896
411	6	5	0.11588469	7.039942	3.6223756	59.414311
412	6	4	-0.027038251	5.8976221	5.3820122	60.038403
413	6	4	-0.1708119	7.1146297	6.2974473	60.320531
414	6	5	0.078140493	6.842654	7.3648426	60.172327
415	6	5	0.078140493	7.4785844	6.1733715	61.363276
416	6	5	0.078140493	7.9605236	6.0546715	59.640387
417	6	4	-0.1708119	5.4775837	5.6350641	58.566588
418	6	5	0.078140493	4.8886511	4.8065301	58.136264
419	6	5	0.078140493	4.8980249	6.5786606	58.474137
420	6	5	0.078140493	6.3707352	5.7222019	57.910541
421	6	4	-0.20987422	4.7689058	5.7615153	61.0527
422	6	5	0.11608128	5.2614757	5.9137448	62.040795
423	6	5	0.11608128	4.3427489	6.7545176	60.786704
424	6	7	0.07232264	2.2236134	5.8692094	60.012418
425	6	7	0.07232264	3.0270837	4.5468238	59.141253
426	6	6	0.31823998	1.3243271	3.2938793	61.093674
427	7	8	-0.4961027	6.6530574	-0.16161574	59.678141
428	7	4	0.10959569	6.3382655	-0.42484982	61.018432
429	7	4	0.079398114	4.8595953	-0.77615311	61.158245
430	7	8	-0.48556695	4.5809957	-1.0711497	62.509638
431	7	4	0.059999	3.2146441	-1.3992358	62.648223
432	7	4	0.060256853	2.9220908	-1.7131311	64.113625
433	7	8	-0.48566863	1.5412742	-1.9671473	64.292128
434	7	4	0.060256853	1.2853855	-3.3564884	64.280977
435	7	4	0.060256853	-0.22192576	-3.5942123	64.222102
436	7	8	-0.4877615	-0.78201304	-2.9411317	63.096854
437	7	4	0.080320257	-0.89252567	-3.8332472	62.007769
438	7	4	0.029946557	-1.3348146	-3.0572209	60.77125
439	7	8	-0.14214729	-1.4266178	-3.9131044	59.664753
440	7	7	0.091867368	-2.3137544	-2.5592718	60.960154
441	7	7	0.091867368	-0.58509671	-2.2681084	60.548247
442	7	7	0.087996434	-1.654733	-4.614373	62.229664
443	7	7	0.087996434	0.082863034	-4.3209529	61.783816
444	7	7	0.087820213	-0.43798392	-4.6890673	64.255634
445	7	7	0.087820213	-0.68016893	-3.1580796	65.134862
446	7	7	0.087820213	1.6785445	-3.8200804	65.214205
447	7	7	0.087820213	1.7596648	-3.8553877	63.405596
448	7	7	0.087820213	3.1848262	-0.82102568	64.721485
449	7	7	0.087820213	3.5792668	-2.5424715	64.468811
450	7	7	0.087820213	2.5708172	-0.54334636	62.338445
451	7	7	0.087820213	2.9614778	-2.2920076	62.033292
452	7	7	0.086474429	4.2566976	0.095457032	60.812709
453	7	7	0.086474429	4.6454419	-1.6565931	60.509242
454	7	7	0.094366188	6.5847849	0.4546162	61.656595
455	7	7	0.094366188	6.9522101	-1.2837614	61.365276
456	4	1	0.55740559	-0.53189953	3.3093683	59.514256
457	4	2	-0.66815353	-0.35699138	2.0619854	59.527822
458	4	3	-0.56667847	-1.8334246	3.873175	59.710267
459	4	4	0.12700875	-3.0287751	3.0457512	59.916752
460	4	7	0.047618437	-2.7630523	2.2401919	60.629254
461	4	4	-0.20867226	-3.4765616	2.4428534	58.572492
462	4	5	0.1158847	-2.6557795	1.8204672	58.152971
463	4	5	0.1158847	-3.6420575	3.2816176	57.858571
464	4	4	-0.027573921	-4.7677597	1.5896583	58.678131
465	4	4	-0.17081188	-5.2690386	1.297024	57.243686
466	4	5	0.078140508	-6.1912083	0.67651122	57.270293
467	4	5	0.078140508	-4.4985435	0.7519904	56.656171
468	4	5	0.078140508	-5.502513	2.2381828	56.699247
469	4	4	-0.17081188	-4.4747527	0.21981106	59.339587
470	4	5	0.078140508	-3.8730122	0.3033165	60.257877
471	4	5	0.078140508	-3.8853771	-0.42624256	58.653936
472	4	5	0.078140508	-5.4205164	-0.31192205	59.578927
473	4	4	-0.20858148	-5.8885838	2.3756027	59.42761
474	4	5	0.11476615	-6.2664101	3.152039	58.723691
475	4	5	0.11476615	-6.7579288	1.7081362	59.611466
476	4	4	0.025485105	-5.4794132	3.1159367	60.743851
477	4	4	-0.16762077	-6.5888471	4.1454564	61.078305
478	4	5	0.071645322	-6.3417353	4.7073107	62.005189
479	4	5	0.071645322	-7.5671141	3.6383952	61.226493
480	4	5	0.071645322	-6.7102278	4.8856917	60.257994
481	4	4	0.14431639	-5.3468773	2.1651583	61.970381
482	4	3	-0.61490018	-6.5278551	1.3208773	62.118985
483	4	9	0.60131508	-6.6231926	0.47996595	63.068894
484	4	2	-0.45240048	-6.7156474	-0.33782398	63.993229
485	4	7	0.070599231	-4.4493726	1.5285498	61.910206
486	4	7	0.070599231	-5.2189328	2.7718464	62.895822
487	4	4	-0.20507293	-4.1581617	3.9003283	60.521021
488	4	5	0.11423002	-4.349276	4.7564718	59.834861
489	4	5	0.11423002	-3.8098538	4.3316218	61.486144
490	4	6	0.31460139	-1.9070109	4.9153279	59.738612
491	5	8	-0.14214729	-2.2689449	-4.4264864	59.77207
492	5	4	0.029946557	-1.950926	-5.5677319	60.520513
493	5	4	0.080320257	-1.7953067	-5.2104963	61.995591
494	5	8	-0.4877615	-1.5111349	-6.3832343	62.727075
495	5	4	0.060256853	-1.3680186	-6.0623316	64.094741
496	5	4	0.060256853	-1.0578869	-7.3357132	64.877635
497	5	8	-0.48566863	-0.82999866	-7.0279375	66.239351
498	5	4	0.060256853	-2.0025647	-7.2363675	67.000072
499	5	4	0.060256853	-1.8070157	-6.6634057	68.401368
500	5	8	-0.48351828	-1.4526895	-5.2941198	68.331662
501	5	4	0.052467107	-2.5960053	-4.4768125	68.475059
502	5	4	0.07479063	-2.2042082	-3.0240501	68.221899
503	5	10	-0.67983878	-3.3261125	-2.191027	68.329288
504	5	11	0.39165213	-3.5085865	-2.0827447	69.299236
505	5	7	0.088518049	-1.4150444	-2.709134	68.94292
506	5	7	0.088518049	-1.7898472	-2.9305653	67.196295
507	5	7	0.088880862	-2.9998643	-4.5625355	69.508629
508	5	7	0.088880862	-3.3866717	-4.7567222	67.742623
509	5	7	0.087820213	-2.7116559	-6.8596056	69.024423
510	5	7	0.087820213	-0.97021426	-7.2091696	68.887795
511	5	7	0.087820213	-2.2059799	-8.3268312	67.090611
512	5	7	0.087820213	-2.8869065	-6.7440569	66.534253
513	5	7	0.087820213	-0.1248637	-7.7794723	64.467875
514	5	7	0.087820213	-1.8631759	-8.0924624	64.717575
515	5	7	0.087820213	-0.52708107	-5.3459259	64.244477
516	5	7	0.087820213	-2.3071006	-5.6168093	64.493446
517	5	7	0.087996434	-0.96488929	-4.4740732	62.094126
518	5	7	0.087996434	-2.7464275	-4.7463446	62.345696
519	5	7	0.091867368	-1.0137917	-6.0349177	60.138327
520	5	7	0.091867368	-2.7727555	-6.3067523	60.407539
521	6	1	0.54474228	0.80343736	-0.6323995	77.8702
522	6	2	-0.67865831	1.1062179	-1.2295459	76.803545
523	6	3	-0.48804567	1.4868584	0.56115978	78.262534
524	6	4	0.00071962062	2.5690805	1.1225527	77.444763
525	6	4	-0.0072805204	3.1409305	2.4702231	77.992399
526	6	4	-0.16906682	1.9755344	3.4928161	78.079447
527	6	5	0.075104597	1.4788579	3.6031879	77.091332
528	6	5	0.075104597	2.3447407	4.4944876	78.390866
529	6	5	0.075104597	1.2119327	3.1920818	78.82395
530	6	4	-0.20396468	3.7687362	2.3186448	79.405349
531	6	5	0.11435182	3.0638038	1.8149377	80.099196