Title

12000 atoms
12875 bonds
23750 angles
40875 dihedrals
9750 impropers

9 atom types
13 bond types
7 angle types
12 dihedral types
2 improper types
-8.109850985 83.70666302 xlo xhi
-7.940021628 83.35480196 ylo yhi
-8.066964015 84.09272332 zlo zhi
0.0 0.0 0.0 xy xz yz

Masses

1	15.99943
2	12.01078
3	1.007947
4	12.01078
5	1.007947
6	15.99943
7	15.99943
8	1.007947
9	35.4532


Pair Coeffs

1	0.16846514	3.0251065
2	0.086879315	3.4806469
3	0.015611343	2.5725815
4	0.10884061	3.3795318
5	0.015779483	2.6445434
6	0.2102061	3.0398122
7	0.20947353	2.99716
8	1.2326e-05	0.53453923
9	0.2656001	3.3075278

Bond Coeffs

1 harmonic	425.69104206635	1.362945806494
2 harmonic	300.03137914615	1.451203938761
3 harmonic	360.7852444772	1.387193227181
4 harmonic	397.2545789619	1.085358495916
5 harmonic	289.73813263395	1.498646816465
6 harmonic	264.62148576755	1.52190126495
7 harmonic	301.15400723785	1.345741232799
8 harmonic	370.04670688625	1.093899492634
9 harmonic	582.698766451	1.225198386222
10 harmonic	279.1350963404	1.454628925034
11 harmonic	385.7604595587	1.369745182308
12 harmonic	543.5267831885	0.9716763312559
13 harmonic	218.0227703685	1.746066037062


Angle Coeffs

1 harmonic	57.8982893754	126.8062420451
2 harmonic	65.09061609600001	110.3538806181
3 harmonic	34.066775159195	129.1835929926
4 harmonic	14.32262199324	138.3184368373
5 harmonic	53.20531626545	116.5475862634
6 harmonic	201.41175231035	127.4691416191
7 harmonic	48.776492647595	115.6030999533


Dihedral Coeffs

1 fourier 1	3.661930099076	2	180
2 fourier 1	1.532232714475	2	180
3 fourier 1	0.457973137376	1	0
4 fourier 1	0.02664938770063	3	0
5 fourier 1	0.1155372516788	3	0
6 fourier 1	0.09223874044423	3	0
7 fourier 1	0.3159935921949	2	180
8 fourier 1	0.3247796806857	1	180
9 fourier 1	2.779853741805	2	180
10 fourier 1	0.9974165607242	2	180
11 fourier 1	0.1040663847541	3	0
12 fourier 1	0.8283030590042	2	180


Improper Coeffs

1 0.3666666666666667	-1	2
2 3.5	-1	2


Atoms

1	4	1	-0.054409006	-0.1438348	2.0996153	1.2971575
2	4	2	0.22744847	-0.5264343	1.9353893	-0.030990636
3	4	2	-0.35713305	-1.6581109	2.5132305	-0.47717174
4	4	3	0.20014491	-2.2702693	3.1025301	0.1945351
5	4	2	-0.022936211	-2.0778175	2.3452666	-1.8891238
6	4	3	0.19457913	-2.9983751	2.7939052	-2.2389855
7	4	2	-0.23407038	-1.2999049	1.6263279	-2.7131633
8	4	2	-0.058976096	-0.088260874	0.9979762	-2.2332791
9	4	2	-0.24014484	0.30450308	1.1232875	-0.95659299
10	4	3	0.19402436	1.2057458	0.63731859	-0.60518887
11	4	4	0.11044269	0.56620958	0.20391028	-3.3158819
12	4	2	-0.063528233	2.0268135	0.48954608	-3.4421337
13	4	2	-0.21027111	2.6228486	1.686831	-3.5449385
14	4	3	0.19274869	2.03872	2.5990014	-3.519466
15	4	2	0.3920683	4.0990833	1.7391554	-3.7047081
16	4	1	-0.45482319	4.7524753	2.9640289	-3.8018505
17	4	2	-0.29655605	4.8085702	0.59620484	-3.7598934
18	4	3	0.20183908	5.8834272	0.62756563	-3.8814988
19	4	2	-0.026253986	4.1233651	-0.71507701	-3.6589388
20	4	3	0.19457915	4.6944917	-1.6311599	-3.7247305
21	4	2	-0.23407034	2.7918317	-0.7378426	-3.4924741
22	4	4	-0.03087334	1.899833	-1.93748	-3.4008963
23	4	4	-0.13901886	1.8397508	-2.6498255	-4.7641366
24	4	5	0.078597657	2.8412582	-3.0379988	-5.0472504
25	4	5	0.078597657	1.4983841	-1.9511771	-5.5581493
26	4	5	0.078597657	1.1318948	-3.5066013	-4.7212866
27	4	4	-0.13901886	2.3825808	-2.9103708	-2.3091666
28	4	5	0.078597657	2.4975169	-2.3818678	-1.3371526
29	4	5	0.078597657	3.3621192	-3.3581173	-2.5813992
30	4	5	0.078597657	1.6487318	-3.7335992	-2.177954
31	4	4	-0.16197325	0.50931916	-1.3288335	-3.0343165
32	4	5	0.11097235	0.29507047	-1.5031466	-1.9556829
33	4	5	0.11097235	-0.31954102	-1.8269532	-3.5836884
34	4	4	-0.16197325	-0.22110821	0.60443117	-4.6011569
35	4	5	0.11097233	0.38952434	1.3102844	-5.2092811
36	4	5	0.11097233	-0.41425721	-0.26668047	-5.2647976
37	4	4	-0.030873311	-1.54493	1.3030371	-4.1545927
38	4	4	-0.13901886	-2.7376743	0.33751508	-4.279727
39	4	5	0.078597642	-3.670022	0.81824212	-3.9143529
40	4	5	0.078597642	-2.5619078	-0.58360168	-3.6817612
41	4	5	0.078597642	-2.8877357	0.04417178	-5.3411116
42	4	4	-0.13901886	-1.8013148	2.5790814	-4.9778962
43	4	5	0.078597642	-0.97577446	3.3094372	-4.8328835
44	4	5	0.078597642	-2.7539158	3.0629143	-4.6736298
45	4	5	0.078597642	-1.8662297	2.3308266	-6.0595313
46	5	2	0.62336022	4.2210907	3.8674819	-3.7625552
47	5	6	-0.53470069	3.5137376	4.1996899	-4.6981317
48	1	1	-0.054409006	0.70302524	1.6732306	1.6549845
49	1	2	0.22744847	0.66636864	0.45639684	2.3300082
50	1	2	-0.35713305	1.8085036	-0.086253653	2.7928398
51	1	3	0.20014491	2.7530631	0.41927325	2.6388919
52	1	2	-0.022936211	1.7823802	-1.3823158	3.5124831
53	1	3	0.19457913	2.7042751	-1.8255943	3.8648906
54	1	2	-0.23407038	0.6024932	-1.9892969	3.7094545
55	1	2	-0.058976096	-0.62547234	-1.411564	3.2056675
56	1	2	-0.24014484	-0.62576114	-0.24690787	2.540106
57	1	3	0.19402436	-1.547954	0.16911534	2.1545012
58	1	4	0.11044269	-1.7906143	-2.2997061	3.4927279
59	1	2	-0.013701533	-2.9423738	-1.5667696	4.1006921
60	1	2	-0.40407082	-2.9238066	-0.74331661	5.159092
61	1	3	0.19967159	-1.9958583	-0.5209487	5.6701824
62	1	2	0.35016779	-4.2039061	-0.1494374	5.6244625
63	1	7	-0.65965163	-4.2215733	0.71965143	6.7118702
64	1	8	0.42391602	-3.3684697	0.96306069	7.2014774
65	1	2	-0.43064015	-5.3533599	-0.45508473	4.9945913
66	1	3	0.20542369	-6.2894821	-0.029945379	5.332077
67	1	2	0.044914587	-5.3481135	-1.3819934	3.8362921
68	1	3	0.19457915	-6.2761916	-1.6410769	3.3452253
69	1	2	-0.23407034	-4.1773964	-1.8881907	3.4185699
70	1	4	-0.03087334	-3.9443021	-2.857931	2.3010724
71	1	4	-0.13901886	-4.5193618	-4.2358657	2.6758086
72	1	5	0.078597657	-5.6223311	-4.1783452	2.802592
73	1	5	0.078597657	-4.0763272	-4.6010182	3.6275207
74	1	5	0.078597657	-4.2980028	-4.9765144	1.87757
75	1	4	-0.13901886	-4.569968	-2.3556165	0.98680209
76	1	5	0.078597657	-4.2131852	-1.3291108	0.75018857
77	1	5	0.078597657	-5.6789142	-2.3316965	1.0586284
78	1	5	0.078597657	-4.2908987	-3.0282489	0.14819903
79	1	4	-0.16197325	-2.3876907	-2.9205858	2.1926875
80	1	5	0.11097235	-2.0496914	-2.3350312	1.308577
81	1	5	0.11097235	-2.0255771	-3.9568734	2.0164495
82	1	4	-0.16197325	-1.2096841	-3.3787781	4.4571204
83	1	5	0.11097233	-1.5409615	-3.167436	5.4989663
84	1	5	0.11097233	-1.5906762	-4.3978491	4.2268767
85	1	4	-0.030873311	0.34809406	-3.3064982	4.3751225
86	1	4	-0.13901886	0.90000454	-4.4486887	3.5035237
87	1	5	0.078597642	2.0037647	-4.3668308	3.4041814
88	1	5	0.078597642	0.45458572	-4.4165374	2.4862561
89	1	5	0.078597642	0.66290452	-5.4340024	3.9601741
90	1	4	-0.13901886	0.97830135	-3.3526396	5.7800491
91	1	5	0.078597642	0.63816026	-2.4885236	6.3901478
92	1	5	0.078597642	2.0867476	-3.3228283	5.7186961
93	1	5	0.078597642	0.68437781	-4.2890291	6.3014182
94	2	2	0.46271459	4.3011331	4.5056342	-2.8895587
95	2	6	-0.62423395	5.074825	4.218739	-1.9923218
96	2	9	-0.10793591	3.3156335	5.9512112	-2.7675885
97	4	1	-0.054409006	0.15644426	-2.2050862	17.597864
98	4	2	0.22744847	-0.22881583	-1.0141687	18.20665
99	4	2	-0.35713305	-1.2546465	-1.0105793	19.079191
100	4	3	0.20014491	-1.7800565	-1.9302002	19.306003
101	4	2	-0.022936211	-1.6760362	0.2511671	19.733714
102	4	3	0.19457913	-2.5138878	0.25405607	20.418625
103	4	2	-0.23407038	-1.0042515	1.3790835	19.455197
104	4	2	-0.058976096	0.092582161	1.3784137	18.511718
105	4	2	-0.24014484	0.48271981	0.25223245	17.895762
106	4	3	0.19402436	1.2958415	0.26610911	17.181248
107	4	4	0.11044269	0.63447578	2.7572789	18.322026
108	4	2	-0.063528233	2.1229759	2.8152073	18.431125
109	4	2	-0.21027111	2.8936652	2.3213444	19.411663
110	4	3	0.19274869	2.453129	1.7865065	20.244602
111	4	2	0.3920683	4.3629622	2.5300366	19.339921
112	4	1	-0.45482319	5.1944256	2.0208993	20.332957
113	4	2	-0.29655605	4.8930943	3.2184967	18.311458
114	4	3	0.20183908	5.9619565	3.3784401	18.256317
115	4	2	-0.026253986	4.0171323	3.7671063	17.248032
116	4	3	0.19457915	4.4447631	4.3374465	16.434665
117	4	2	-0.23407034	2.6952347	3.5471388	17.321591
118	4	4	-0.03087334	1.6317722	4.0317894	16.384927
119	4	4	-0.13901886	1.4833351	5.5590205	16.507408
120	4	5	0.078597657	2.4187199	6.0694553	16.193783
121	4	5	0.078597657	1.2615479	5.8496082	17.556916
122	4	5	0.078597657	0.65413232	5.919587	15.859816
123	4	4	-0.13901886	1.9481025	3.6395274	14.929763
124	4	5	0.078597657	2.1283076	2.5447657	14.850014
125	4	5	0.078597657	2.8526632	4.1701426	14.563293
126	4	5	0.078597657	1.0970771	3.9056384	14.267648
127	4	4	-0.16197325	0.34390241	3.3094756	16.892878
128	4	5	0.11097235	0.09154673	2.4665929	16.210527
129	4	5	0.11097235	-0.54308537	3.9801575	16.873372
130	4	4	-0.16197325	-0.066467315	3.5910655	19.438134
131	4	5	0.11097233	0.65143705	3.7838749	20.267805
132	4	5	0.11097233	-0.37963131	4.5957373	19.078796
133	4	4	-0.030873311	-1.2759397	2.7584033	19.970886
134	4	4	-0.13901886	-2.5985954	3.2857861	19.385242
135	4	5	0.078597642	-3.4527834	2.6618834	19.724325
136	4	5	0.078597642	-2.5713715	3.2665495	18.273575
137	4	5	0.078597642	-2.7769564	4.3321994	19.71435
138	4	4	-0.13901886	-1.3264645	2.7798598	21.509989
139	4	5	0.078597642	-0.40244408	2.3328458	21.93699
140	4	5	0.078597642	-2.1993938	2.2050356	21.886409
141	4	5	0.078597642	-1.4136031	3.8258654	21.876128
142	5	2	0.62336022	4.8045332	1.4823759	21.144202
143	5	6	-0.53470069	4.167711	2.0591198	22.008978
144	1	1	-0.054409006	0.92468579	-2.2312966	16.93746
145	1	2	0.22744847	0.69640998	-2.1769765	15.565372
146	1	2	-0.35713305	1.7376519	-2.212318	14.712306
147	1	3	0.20014491	2.7494766	-2.2798478	15.090592
148	1	2	-0.022936211	1.5072757	-2.1541576	13.248786
149	1	3	0.19457913	2.3472219	-2.1619083	12.566872
150	1	2	-0.23407038	0.24698771	-2.0864995	12.794415
151	1	2	-0.058976096	-0.87327776	-2.040284	13.710027
152	1	2	-0.24014484	-0.68949916	-2.0780671	15.038256
153	1	3	0.19402436	-1.5333989	-2.0279017	15.714661
154	1	4	0.11044269	-2.1624867	-1.9023793	12.969974
155	1	2	-0.013701533	-3.1988513	-2.8787439	13.423875
156	1	2	-0.40407082	-3.0706847	-4.2067723	13.560051
157	1	3	0.19967159	-2.1267217	-4.6949546	13.354233
158	1	2	0.35016779	-4.2529418	-4.99812	13.98895
159	1	7	-0.65965163	-4.1541139	-6.377007	14.153226
160	1	8	0.42391602	-3.2806859	-6.8628705	13.986465
161	1	2	-0.43064015	-5.4268191	-4.380467	14.216807
162	1	3	0.20542369	-6.2927304	-4.9520004	14.524235
163	1	2	0.044914587	-5.5456814	-2.9120002	14.042677
164	1	3	0.19457915	-6.4955626	-2.42182	14.207143
165	1	2	-0.23407034	-4.4589943	-2.2141677	13.677373
166	1	4	-0.03087334	-4.3596085	-0.74282393	13.415076
167	1	4	-0.13901886	-5.1403559	-0.38540386	12.137379
168	1	5	0.078597657	-6.2237052	-0.59781198	12.268379
169	1	5	0.078597657	-4.7699912	-0.97664705	11.272143
170	1	5	0.078597657	-5.0223499	0.69419858	11.902266
171	1	4	-0.13901886	-4.8850543	0.073728793	14.610162
172	1	5	0.078597657	-4.3747867	-0.23362325	15.549394
173	1	5	0.078597657	-5.9786363	-0.074815598	14.742473
174	1	5	0.078597657	-4.6992306	1.1562994	14.445604
175	1	4	-0.16197325	-2.8288379	-0.5127711	13.20885
176	1	5	0.11097235	-2.3948685	-0.040794279	14.118618
177	1	5	0.11097235	-2.6244383	0.199958	12.380408
178	1	4	-0.16197325	-1.7633816	-2.1243871	11.478881
179	1	5	0.11097233	-2.0729149	-3.144098	11.156032
180	1	5	0.11097233	-2.2902555	-1.4248011	10.793566
181	1	4	-0.030873311	-0.21150827	-1.9868036	11.3722
182	1	4	-0.13901886	0.17382328	-0.61385698	10.79304
183	1	5	0.078597642	1.2785581	-0.49714914	10.764821
184	1	5	0.078597642	-0.24812484	0.20599304	11.412775
185	1	5	0.078597642	-0.21486264	-0.50726438	9.7571105
186	1	4	-0.13901886	0.38585004	-3.1171616	10.512803
187	1	5	0.078597642	0.17150063	-4.1086215	10.966317
188	1	5	0.078597642	1.4868821	-3.005475	10.42028
189	1	5	0.078597642	-0.052507654	-3.0949496	9.4918279
190	2	2	0.46271459	4.9680573	0.41267452	21.213243
191	2	6	-0.62423395	5.677784	-0.15045382	20.397696
192	2	9	-0.10793591	4.2097191	-0.50847837	22.498615
193	4	1	-0.054409006	0.60882198	-2.1505219	31.925762
194	4	2	0.22744847	-0.26810285	-1.9879137	32.994356
195	4	2	-0.35713305	-1.4083997	-2.7030763	33.038351
196	4	3	0.20014491	-1.6443573	-3.4014323	32.244736
197	4	2	-0.022936211	-2.3517699	-2.5386176	34.170155
198	4	3	0.19457913	-3.27685	-3.0997423	34.191878
199	4	2	-0.23407038	-2.0371446	-1.6819835	35.154153
200	4	2	-0.058976096	-0.8165734	-0.90680563	35.104142
201	4	2	-0.24014484	0.045476956	-1.0273427	34.083244
202	4	3	0.19402436	0.94906989	-0.4321402	34.049438
203	4	4	0.11044269	-0.72260336	0.01713541	36.27393
204	4	2	-0.063528233	0.60179721	-0.050579383	36.961148
205	4	2	-0.21027111	1.249096	-1.144696	37.389203
206	4	3	0.19274869	0.8299538	-2.1314761	37.232695
207	4	2	0.3920683	2.5477431	-0.97808208	38.091548
208	4	1	-0.45482319	3.2530188	-2.0914868	38.538302
209	4	2	-0.29655605	3.0434855	0.25610316	38.300783
210	4	3	0.20183908	3.9862379	0.38429623	38.816412
211	4	2	-0.026253986	2.3003888	1.4502268	37.830641
212	4	3	0.19457915	2.6917634	2.4406833	38.019172
213	4	2	-0.23407034	1.1404261	1.274861	37.178764
214	4	4	-0.03087334	0.21720866	2.3293218	36.650597
215	4	4	-0.13901886	-0.44152225	3.0816179	37.820894
216	4	5	0.078597657	0.32325915	3.6208228	38.419406
217	4	5	0.078597657	-0.97583975	2.3747788	38.4917
218	4	5	0.078597657	-1.1743975	3.8254913	37.438132
219	4	4	-0.13901886	0.96270514	3.3152564	35.732118
220	4	5	0.078597657	1.5009028	2.7688389	34.926446
221	4	5	0.078597657	1.7045284	3.9097646	36.306871
222	4	5	0.078597657	0.24364798	4.018565	35.261194
223	4	4	-0.16197325	-0.8465917	1.5128604	35.850548
224	4	5	0.11097235	-0.65173033	1.6097467	34.758586
225	4	5	0.11097235	-1.8744942	1.9093104	36.002817
226	4	4	-0.16197325	-1.8881743	-0.43849744	37.204554
227	4	5	0.11097233	-1.4778459	-1.0236345	38.059049
228	4	5	0.11097233	-2.4204608	0.42267889	37.664562
229	4	4	-0.030873311	-2.849776	-1.3376629	36.363841
230	4	4	-0.13901886	-4.1040642	-0.548837	35.945458
231	4	5	0.078597642	-4.7632122	-1.1730517	35.305342
232	4	5	0.078597642	-3.8224295	0.36235893	35.373342
233	4	5	0.078597642	-4.6810696	-0.23627392	36.842383
234	4	4	-0.13901886	-3.2498146	-2.6020231	37.146921
235	4	5	0.078597642	-2.3521243	-3.2118081	37.388332
236	4	5	0.078597642	-3.9504923	-3.2296786	36.555972
237	4	5	0.078597642	-3.751207	-2.3209912	38.098449
238	5	2	0.62336022	2.8864918	-3.0626559	38.387871
239	5	6	-0.53470069	1.9197182	-3.4537794	39.019049
240	1	1	-0.054409006	1.4719748	-1.6223019	31.871294
241	1	2	0.22744847	1.5536657	-0.45236608	31.121453
242	1	2	-0.35713305	2.714023	0.22880945	31.069243
243	1	3	0.20014491	3.5804321	-0.12919491	31.610185
244	1	2	-0.022936211	2.8131338	1.4767454	30.274776
245	1	3	0.19457913	3.7410388	2.0326562	30.251698
246	1	2	-0.23407038	1.7355148	1.8995309	29.597024
247	1	2	-0.058976096	0.48493465	1.1730552	29.658329
248	1	2	-0.24014484	0.36687779	0.049020964	30.380829
249	1	3	0.19402436	-0.57715917	-0.47860569	30.43192
250	1	4	0.11044269	-0.57766954	1.8722281	28.876802
251	1	2	-0.013701533	-1.315895	0.95709898	27.954344
252	1	2	-0.40407082	-0.79858106	0.10163239	27.060368
253	1	3	0.19967159	0.27330427	-0.0063570037	26.954779
254	1	2	0.35016779	-1.7251678	-0.68848962	26.208863
255	1	7	-0.65965163	-1.2246659	-1.5954806	25.278837
256	1	8	0.42391602	-0.22714137	-1.7341187	25.167154
257	1	2	-0.43064015	-3.0552211	-0.52499548	26.333883
258	1	3	0.20542369	-3.7349766	-1.09363	25.712955
259	1	2	0.044914587	-3.6009322	0.4403267	27.319376
260	1	3	0.19457915	-4.6695889	0.58377093	27.403022
261	1	2	-0.23407034	-2.7461913	1.1260851	28.094269
262	1	4	-0.03087334	-3.0724342	2.1647447	29.122998
263	1	4	-0.13901886	-3.6178433	3.4292141	28.434905
264	1	5	0.078597657	-4.5739976	3.2088892	27.912268
265	1	5	0.078597657	-2.891109	3.8143345	27.687302
266	1	5	0.078597657	-3.8061941	4.2264226	29.185723
267	1	4	-0.13901886	-4.0889517	1.6328464	30.150062
268	1	5	0.078597657	-3.7320635	0.67883169	30.596694
269	1	5	0.078597657	-5.0754923	1.447168	29.672826
270	1	5	0.078597657	-4.2318398	2.3727523	30.965961
271	1	4	-0.16197325	-1.69393	2.4544452	29.797173
272	1	5	0.11097235	-1.6529786	1.9606057	30.793774
273	1	5	0.11097235	-1.5504078	3.5383637	29.998667
274	1	4	-0.16197325	0.19682456	2.9825176	28.102628
275	1	5	0.11097233	0.31545804	2.6828128	27.036815
276	1	5	0.11097233	-0.3595789	3.9450755	28.078745
277	1	4	-0.030873311	1.6022539	3.1378685	28.765391
278	1	4	-0.13901886	1.6420033	4.3825699	29.66984
279	1	5	0.078597642	2.6256602	4.4640536	30.180365
280	1	5	0.078597642	0.84910886	4.3290958	30.446193
281	1	5	0.078597642	1.4836493	5.3038914	29.068442
282	1	4	-0.13901886	2.710898	3.2155973	27.698632
283	1	5	0.078597642	2.7329759	2.2870739	27.088739
284	1	5	0.078597642	3.7072629	3.3476404	28.170996
285	1	5	0.078597642	2.5308691	4.0777084	27.020844
286	2	2	0.46271459	3.3677304	-3.7183906	37.670801
287	2	6	-0.62423395	4.3859948	-3.3609671	37.103943
288	2	9	-0.10793591	2.6798122	-5.2941671	37.325148
289	4	1	-0.054409006	-0.85445952	-2.3036695	49.746763
290	4	2	0.22744847	-0.24037473	-1.7930354	48.606815
291	4	2	-0.35713305	0.64546304	-2.5480523	47.929385
292	4	3	0.20014491	0.8814579	-3.5486856	48.270327
293	4	2	-0.022936211	1.3076631	-2.0158926	46.714366
294	4	3	0.19457913	2.0342812	-2.6176689	46.184274
295	4	2	-0.23407038	0.99202784	-0.78073701	46.295049
296	4	2	-0.058976096	0.046895132	0.034727301	47.026443
297	4	2	-0.24014484	-0.55402461	-0.41923059	48.136719
298	4	3	0.19402436	-1.2492086	0.2048353	48.683665
299	4	4	0.11044269	-0.088233396	1.3850032	46.402427
300	4	2	-0.063528233	-1.5115299	1.7910802	46.201879
301	4	2	-0.21027111	-2.4901359	1.0880073	45.612526
302	4	3	0.19274869	-2.3023419	0.091036686	45.232141
303	4	2	0.3920683	-3.8350415	1.7057638	45.481611
304	4	1	-0.45482319	-4.8773045	1.0009259	44.886998
305	4	2	-0.29655605	-4.0462934	2.9551884	45.936654
306	4	3	0.20183908	-5.0221952	3.412631	45.839438
307	4	2	-0.026253986	-2.943096	3.716738	46.570811
308	4	3	0.19457915	-3.1113823	4.7277662	46.916099
309	4	2	-0.23407034	-1.742599	3.1305075	46.698681
310	4	4	-0.03087334	-0.49081275	3.7203032	47.2717
311	4	4	-0.13901886	0.039487152	4.8263927	46.341744
312	4	5	0.078597657	-0.68725042	5.6638569	46.27575
313	4	5	0.078597657	0.21051743	4.4304571	45.317497
314	4	5	0.078597657	1.0016726	5.2279956	46.728881
315	4	4	-0.13901886	-0.7335984	4.2802155	48.685556
316	4	5	0.078597657	-1.1853529	3.5037713	49.341596
317	4	5	0.078597657	-1.419552	5.1534697	48.654286
318	4	5	0.078597657	0.22627715	4.6084253	49.137632
319	4	4	-0.16197325	0.49608918	2.5107801	47.309627
320	4	5	0.11097235	0.59280571	2.136941	48.353959
321	4	5	0.11097235	1.5246552	2.804764	47.005379
322	4	4	-0.16197325	0.67736049	1.2501498	45.050429
323	4	5	0.11097233	-0.053041281	1.1590858	44.214285
324	4	5	0.11097233	1.2821565	2.1537611	44.817471
325	4	4	-0.030873311	1.5573212	-0.038355124	45.123902
326	4	4	-0.13901886	3.0292618	0.32369137	45.393796
327	4	5	0.078597642	3.6454811	-0.59480006	45.496345
328	4	5	0.078597642	3.1230427	0.91397649	46.331709
329	4	5	0.078597642	3.4385055	0.92811188	44.555762
330	4	4	-0.13901886	1.4384163	-0.8633294	43.828861
331	4	5	0.078597642	0.38742138	-1.1883155	43.668366
332	4	5	0.078597642	2.0813106	-1.7681713	43.874348
333	4	5	0.078597642	1.755982	-0.25348923	42.955347
334	5	2	0.62336022	-4.736569	0.026940814	44.524111
335	5	6	-0.53470069	-4.0718022	-0.15897257	43.519354
336	1	1	-0.054409006	-1.5232675	-1.7531894	50.27277
337	1	2	0.22744847	-1.1360479	-1.0362512	51.401374
338	1	2	-0.35713305	-2.0471956	-0.31260817	52.079095
339	1	3	0.20014491	-3.0770034	-0.28510915	51.747146
340	1	2	-0.022936211	-1.646678	0.45596832	53.2821
341	1	3	0.19457913	-2.376919	1.0528587	53.812238
342	1	2	-0.23407038	-0.37020912	0.39960068	53.69052
343	1	2	-0.058976096	0.61249109	-0.37127084	52.958718
344	1	2	-0.24014484	0.27718835	-1.0639947	51.860037
345	1	3	0.19402436	1.0229967	-1.6253257	51.311508
346	1	4	0.11044269	1.9672592	-0.22629245	53.568916
347	1	2	-0.013701533	2.6523997	-1.5378951	53.777834
348	1	2	-0.40407082	2.1648679	-2.6304961	54.383776
349	1	3	0.19967159	1.1550477	-2.6422251	54.773487
350	1	2	0.35016779	3.0412921	-3.822654	54.52
351	1	7	-0.65965163	2.5653331	-4.9790405	55.131814
352	1	8	0.42391602	1.6193204	-5.0297754	55.491307
353	1	2	-0.43064015	4.3030042	-3.7845613	54.053059
354	1	3	0.20542369	4.947793	-4.6477059	54.154024
355	1	2	0.044914587	4.8228369	-2.55732	53.401525
356	1	3	0.19457915	5.8435007	-2.5234266	53.045581
357	1	2	-0.23407034	4.006236	-1.5005693	53.268308
358	1	4	-0.03087334	4.327609	-0.16222648	52.677471
359	1	4	-0.13901886	5.3133473	0.58941123	53.590261
360	1	5	0.078597657	6.2808016	0.045397468	53.653549
361	1	5	0.078597657	4.9001362	0.68909372	54.617243
362	1	5	0.078597657	5.5107519	1.6070458	53.190016
363	1	4	-0.13901886	4.9116317	-0.30388723	51.25975
364	1	5	0.078597657	4.2362765	-0.90977639	50.616487
365	1	5	0.078597657	5.905547	-0.80073005	51.287545
366	1	5	0.078597657	5.0369056	0.69723545	50.795391
367	1	4	-0.16197325	2.9445328	0.56213082	52.644025
368	1	5	0.11097235	2.5506479	0.56997483	51.603082
369	1	5	0.11097235	3.0293044	1.6316309	52.935678
370	1	4	-0.16197325	1.6939924	0.51153351	54.915343
371	1	5	0.11097233	1.7585704	-0.21227853	55.759013
372	1	5	0.11097233	2.4599261	1.2878976	55.132777
373	1	4	-0.030873311	0.25517915	1.1147994	54.848204
374	1	4	-0.13901886	0.31227888	2.6258073	54.561004
375	1	5	0.078597642	-0.71239731	3.0445002	54.463071
376	1	5	0.078597642	0.8626555	2.825337	53.616791
377	1	5	0.078597642	0.82917954	3.1583596	55.388525
378	1	4	-0.13901886	-0.51804036	0.84674929	56.153344
379	1	5	0.078597642	-0.62448123	-0.24540602	56.327929
380	1	5	0.078597642	-1.5332632	1.2949966	56.112077
381	1	5	0.078597642	0.022573641	1.2902266	57.017118
382	2	2	0.46271459	-5.1824671	-0.8143077	45.042998
383	2	6	-0.62423395	-5.9190409	-0.62354386	45.995369
384	2	9	-0.10793591	-4.8426439	-2.4510326	44.512497
385	4	1	-0.054409006	1.7979512	-1.6521766	66.351099
386	4	2	0.22744847	1.8979072	-0.50978559	65.562251
387	4	2	-0.35713305	3.0179965	0.23667831	65.605398
388	4	3	0.20014491	3.8382751	-0.048833966	66.252567
389	4	2	-0.022936211	3.1370135	1.4565387	64.771282
390	4	3	0.19457913	4.0302153	2.0652524	64.823859
391	4	2	-0.23407038	2.1189265	1.7876453	63.962005
392	4	2	-0.058976096	0.91164096	0.99143072	63.920776
393	4	2	-0.24014484	0.77459853	-0.10820095	64.677032
394	4	3	0.19402436	-0.1387026	-0.68866874	64.648271
395	4	4	0.11044269	-0.095263113	1.5958616	62.997895
396	4	2	-0.063528233	-0.67572266	0.60424335	62.043615
397	4	2	-0.21027111	-0.017076185	-0.25355236	61.250085
398	4	3	0.19274869	1.0651861	-0.3020085	61.266525
399	4	2	0.3920683	-0.79890999	-1.1298226	60.33991
400	4	1	-0.45482319	-0.14967506	-2.0404773	59.511734
401	4	2	-0.29655605	-2.1420364	-1.0402472	60.312692
402	4	3	0.20183908	-2.7167874	-1.6719776	59.648112
403	4	2	-0.026253986	-2.8450293	-0.072674603	61.189483
404	4	3	0.19457915	-3.922591	0.010874557	61.149455
405	4	2	-0.23407034	-2.1199666	0.69290521	62.019773
406	4	4	-0.03087334	-2.6144332	1.749504	62.959071
407	4	4	-0.13901886	-3.1485151	2.9516209	62.159607
408	4	5	0.078597657	-4.0268547	2.6553732	61.547557
409	4	5	0.078597657	-2.3659388	3.3496845	61.478273
410	4	5	0.078597657	-3.4616033	3.7658382	62.849525
411	4	4	-0.13901886	-3.7081115	1.1990674	63.893053
412	4	5	0.078597657	-3.350682	0.2862215	64.418689
413	4	5	0.078597657	-4.6236267	0.93697605	63.321019
414	4	5	0.078597657	-3.9802758	1.960298	64.654572
415	4	4	-0.16197325	-1.3368005	2.1459521	63.764579
416	4	5	0.11097235	-1.3783496	1.6946591	64.781607
417	4	5	0.11097235	-1.2755863	3.2438166	63.931577
418	4	4	-0.16197325	0.69846067	2.7192432	62.262889
419	4	5	0.11097233	0.95022232	2.3852935	61.230411
420	4	5	0.11097233	0.096286021	3.6453595	62.135393
421	4	4	-0.030873311	2.0118851	2.9828289	63.066264
422	4	4	-0.13901886	1.8833519	4.2624037	63.912844
423	4	5	0.078597642	2.7982107	4.4216254	64.522394
424	4	5	0.078597642	1.0126116	4.1922548	64.601178
425	4	5	0.078597642	1.7417364	5.1477016	63.256111
426	4	4	-0.13901886	3.2252883	3.0851788	62.123382
427	4	5	0.078597642	3.3647071	2.1355366	61.562394
428	4	5	0.078597642	4.1550584	3.2938865	62.694424
429	4	5	0.078597642	3.0735844	3.9078898	61.391322
430	5	2	0.62336022	0.89557424	-2.1275804	59.514556
431	5	6	-0.53470069	1.5822764	-1.2415461	59.035602
432	1	1	-0.054409006	0.96436646	-2.2282944	66.335581
433	1	2	0.22744847	-0.033322352	-2.0765175	67.294365
434	1	2	-0.35713305	-1.1304107	-2.8558183	67.247011
435	1	3	0.20014491	-1.2390387	-3.5962736	66.465106
436	1	2	-0.022936211	-2.2003143	-2.7029019	68.262033
437	1	3	0.19457913	-3.0898694	-3.3164584	68.208955
438	1	2	-0.23407038	-2.0444213	-1.7918485	69.234162
439	1	2	-0.058976096	-0.86950474	-0.94760632	69.282144
440	1	2	-0.24014484	0.10555104	-1.058012	68.367556
441	1	3	0.19402436	0.97324425	-0.41148749	68.403895
442	1	4	0.11044269	-0.95609279	0.024328244	70.412012
443	1	2	-0.013701533	0.28667802	0.061689032	71.241163
444	1	2	-0.40407082	0.94092845	-0.97483339	71.785413
445	1	3	0.19967159	0.59648745	-1.9891621	71.6297
446	1	2	0.35016779	2.1428356	-0.70408705	72.616095
447	1	7	-0.65965163	2.8547156	-1.7556799	73.186588
448	1	8	0.42391602	2.5700053	-2.717902	73.045812
449	1	2	-0.43064015	2.5444436	0.56392362	72.821672
450	1	3	0.20542369	3.4158489	0.76778059	73.429998
451	1	2	0.044914587	1.7928027	1.6933439	72.22143
452	1	3	0.19457915	2.1065985	2.7118358	72.405296
453	1	2	-0.23407034	0.72404748	1.4242812	71.455484
454	1	4	-0.03087334	-0.19146351	2.4007778	70.783306
455	1	4	-0.13901886	-1.0158035	3.1577905	71.840292
456	1	5	0.078597657	-0.35179171	3.7645611	72.493623
457	1	5	0.078597657	-1.5818358	2.4469483	72.480357
458	1	5	0.078597657	-1.7402194	3.8414614	71.347788
459	1	4	-0.13901886	0.59636018	3.3922226	69.907261
460	1	5	0.078597657	1.2499286	2.8481094	69.190474
461	1	5	0.078597657	1.2367916	4.0519375	70.531854
462	1	5	0.078597657	-0.10345576	4.0331563	69.330172
463	1	4	-0.16197325	-1.114379	1.4924738	69.910424
464	1	5	0.11097235	-0.80489805	1.5590782	68.843393
465	1	5	0.11097235	-2.1724815	1.8330598	69.932745
466	1	4	-0.16197325	-2.1906746	-0.46294819	71.23073
467	1	5	0.11097233	-1.8467437	-0.98905703	72.149846
468	1	5	0.11097233	-2.8169955	0.38239786	71.590987
469	1	4	-0.030873311	-3.0029618	-1.4488773	70.332535
470	1	4	-0.13901886	-4.2439581	-0.75273836	69.745843
471	1	5	0.078597642	-4.7934689	-1.4395378	69.066725
472	1	5	0.078597642	-3.9512125	0.14962287	69.167648
473	1	5	0.078597642	-4.9340747	-0.44045454	70.559358
474	1	4	-0.13901886	-3.4171432	-2.7040309	71.123833
475	1	5	0.078597642	-2.5208822	-3.2500728	71.488754
476	1	5	0.078597642	-4.0129808	-3.3940134	70.489634
477	1	5	0.078597642	-4.0359387	-2.417123	72.001225
478	2	2	0.46271459	1.3649378	-3.0058403	59.943654
479	2	6	-0.62423395	0.67916971	-3.9312412	60.342775
480	2	9	-0.10793591	3.112282	-3.0945935	60.064857
481	4	1	-0.054409006	0.26482693	14.501295	-1.4429224
482	4	2	0.22744847	0.66154977	15.796767	-1.7618188
483	4	2	-0.35713305	1.8397408	16.001937	-2.3810448
484	4	3	0.20014491	2.4781521	15.162817	-2.6290583
485	4	2	-0.022936211	2.2748924	17.376763	-2.7252429
486	4	3	0.19457913	3.2315212	17.539577	-3.2042616
487	4	2	-0.23407038	1.4651263	18.404467	-2.4266399
488	4	2	-0.058976096	0.20295772	18.18642	-1.7538978
489	4	2	-0.24014484	-0.20560129	16.953181	-1.419093
490	4	3	0.19402436	-1.145619	16.803114	-0.90359738
491	4	4	0.11044269	-0.48377778	19.482924	-1.4739437
492	4	2	-0.063528233	-1.9178884	19.481215	-1.891334
493	4	2	-0.21027111	-2.4261962	19.121969	-3.0795613
494	4	3	0.19274869	-1.7800885	18.760175	-3.8704845
495	4	2	0.3920683	-3.8916053	19.238864	-3.2950715
496	4	1	-0.45482319	-4.4552932	18.863558	-4.5108323
497	4	2	-0.29655605	-4.6783446	19.71393	-2.3111474
498	4	3	0.20183908	-5.7456866	19.806463	-2.4638166
499	4	2	-0.026253986	-4.0890725	20.118418	-1.0117992
500	4	3	0.19457915	-4.7216778	20.519147	-0.23144755
501	4	2	-0.23407034	-2.7660371	19.983085	-0.83159827
502	4	4	-0.03087334	-1.9624959	20.355924	0.37608149
503	4	4	-0.13901886	-1.9252121	21.887354	0.52709083
504	4	5	0.078597657	-2.945615	22.287763	0.70681122
505	4	5	0.078597657	-1.5197512	22.363307	-0.39169468
506	4	5	0.078597657	-1.280268	22.175087	1.386287
507	4	4	-0.13901886	-2.5341969	19.706022	1.6497457
508	4	5	0.078597657	-2.6312392	18.605788	1.5178132
509	4	5	0.078597657	-3.5370912	20.118903	1.8901942
510	4	5	0.078597657	-1.8627485	19.899467	2.5129907
511	4	4	-0.16197325	-0.54032067	19.798358	0.052202723
512	4	5	0.11097235	-0.36054907	18.865963	0.63363209
513	4	5	0.11097235	0.26238357	20.501079	0.36651386
514	4	4	-0.16197325	0.3553767	20.529619	-2.2692211
515	4	5	0.11097233	-0.19184706	20.823187	-3.1940347
516	4	5	0.11097233	0.50017194	21.473427	-1.6992899
517	4	4	-0.030873311	1.7157483	19.863611	-2.6510538
518	4	4	-0.13901886	2.8400237	20.351652	-1.7192004
519	4	5	0.078597642	3.7962984	19.839698	-1.9585971
520	4	5	0.078597642	2.5880373	20.142254	-0.65638875
521	4	5	0.078597642	2.9904051	21.446619	-1.8355584
522	4	4	-0.13901886	2.077586	20.149094	-4.1205517
523	4	5	0.078597642	1.3026217	19.733855	-4.8009719
524	4	5	0.078597642	3.0555054	19.692759	-4.3842804
525	4	5	0.078597642	2.1466209	21.245222	-4.292357
526	5	2	0.62336022	-3.8626785	18.491819	-5.2923428
527	5	6	-0.53470069	-3.1150958	19.239497	-5.899065
528	1	1	-0.054409006	-0.61689852	14.323312	-0.97612664
529	1	2	0.22744847	-0.67934154	14.155274	0.40428961
530	1	2	-0.35713305	-1.8658264	13.921369	0.99648662
531	1	3	0.20014491	-2.7692742	13.866725	0.40298346
532	1	2	-0.022936211	-1.9452339	13.74167	2.4660949
533	1	3	0.19457913	-2.9028712	13.574472	2.9410188
534	1	2	-0.23407038	-0.81507508	13.796399	3.1865828
535	1	2	-0.058976096	0.46029715	14.055744	2.5528304
536	1	2	-0.24014484	0.55573304	14.234906	1.2268633
537	1	3	0.19402436	1.5124205	14.443111	0.76468805
538	1	4	0.11044269	1.5541984	14.132517	3.5658664
539	1	2	-0.013701533	2.7421358	13.302701	3.2003865
540	1	2	-0.40407082	2.7601808	12.01234	2.8353197
541	1	3	0.19967159	1.8400592	11.447934	2.7542579
542	1	2	0.35016779	4.0692153	11.367914	2.5541435
543	1	7	-0.65965163	4.1260196	10.033807	2.160424
544	1	8	0.42391602	3.2824518	9.4819861	2.0572914
545	1	2	-0.43064015	5.2067888	12.075411	2.6836689
546	1	3	0.20542369	6.1634849	11.610216	2.4854466
547	1	2	0.044914587	5.1597361	13.497034	3.1051149
548	1	3	0.19457915	6.0770069	14.056681	3.2276282
549	1	2	-0.23407034	3.9649916	14.065212	3.3310925