Title

468 atoms
467 bonds
878 angles
1650 dihedrals
102 impropers

11 atom types
14 bond types
9 angle types
35 dihedral types
3 improper types
-14.31499958 85.68500042 xlo xhi
-4.072999954 95.92700005 ylo yhi
-19.15099907 80.84900093 zlo zhi
0.0 0.0 0.0 xy xz yz

Masses

1	15.99943
2	12.01078
3	14.00672
4	12.01078
5	1.007947
6	1.007947
7	1.007947
8	15.99943
9	12.01078
10	15.99943
11	1.007947


Pair Coeffs

1	0.2102061	3.0398122
2	0.086879315	3.4806469
3	0.16769152	3.206876
4	0.10884061	3.3795318
5	0.014090815	1.1034277
6	0.016409246	2.5832257
7	0.015779483	2.6445434
8	0.16846514	3.0251065
9	0.21	3.3996695
10	0.20947353	2.99716
11	1.2326e-05	0.53453923

Bond Coeffs

1 harmonic	582.698766451	1.225198386222
2 harmonic	492.76746816345	1.381897776683
3 harmonic	301.15400723785	1.345741232799
4 harmonic	352.0565580496	1.450098586273
5 harmonic	505.144496193	1.019481865027
6 harmonic	264.62148576755	1.52190126495
7 harmonic	370.04670688625	1.093899492634
8 harmonic	279.1350963404	1.454628925034
9 harmonic	366.7408841747	1.425895053732
10 harmonic	300.03137914615	1.451203938761
11 harmonic	366.34047229585	1.464762957261
12 harmonic	602.81384337	1.196112346392
13 harmonic	329.96998057905	1.427343958716
14 harmonic	543.5267831885	0.9716763312559


Angle Coeffs

1 harmonic	57.8982893754	126.8062420451
2 harmonic	201.41175231035	127.4691416191
3 harmonic	55.42182150775	117.3465570514
4 harmonic	63.44422595415	115.5071327674
5 harmonic	65.09061609600001	110.3538806181
6 harmonic	53.20531626545	116.5475862634
7 harmonic	48.776492647595	115.6030999533
8 harmonic	55.07882548015	112.8714009681
9 harmonic	33.56981613361	180


Dihedral Coeffs

1 fourier 1	1.809047390003	2	180
2 fourier 1	-0.04816277792592	1	0
3 fourier 1	0.4860993122944	2	180
4 fourier 1	0.8916986138746	1	0
5 fourier 1	1.163809172478	2	180
6 fourier 1	0.1679186987369	1	180
7 fourier 1	-0.1488678166443	4	180
8 fourier 1	-0.1230328948768	3	180
9 fourier 1	0.2939295466901	2	0
10 fourier 1	-0.3024127022865	1	0
11 fourier 1	0.182238503271	2	0
12 fourier 1	0.02972342374561	3	0
13 fourier 1	0.1918272375143	3	0
14 fourier 1	0.9202179876409	1	180
15 fourier 1	0.0473758381877	3	0
16 fourier 1	2.779853741805	2	180
17 fourier 1	0.1155372516788	3	0
18 fourier 1	0.09223874044423	3	0
19 fourier 1	0.3159935921949	2	180
20 fourier 1	0.3247796806857	1	180
21 fourier 1	0.1040663847541	3	0
22 fourier 1	3.101948770557	2	180
23 fourier 1	-0.4252153282372	1	0
24 fourier 1	0.9974165607242	2	180
25 fourier 1	2.348375642009	2	180
26 fourier 1	1.256156174911	1	0
27 fourier 1	0.1911926717192	3	0
28 fourier 1	0.1115525666802	3	0
29 fourier 1	0.3432490222662	1	0
30 fourier 1	0.457973137376	1	0
31 fourier 1	-1.382973039546	1	0
32 fourier 1	0	1	0
33 fourier 1	0.3445382149273	3	0
34 fourier 1	0.1364556373303	1	0
35 fourier 1	0.3026390167484	3	0


Improper Coeffs

1 3.5	-1	2
2 0.3333333333333333	-1	2
3 0.3666666666666667	-1	2


Atoms

1	1	1	-0.62620699	-3.5880001	1.278	1.614
2	1	2	0.782749	-3.471	1.151	0.366
3	1	3	-0.469982	-2.415	0.368	-0.19499999
4	1	4	0.021601999	-1.444	-0.32800001	0.64999998
5	1	4	-0.146946	-0.366	-1.0369999	-0.184
6	1	4	-0.148237	0.54799998	-0.079000004	-0.97399998
7	1	4	0.027543999	1.441	0.80599999	-0.090000004
8	1	3	-0.52575803	2.2550001	0.0060000001	0.824
9	1	2	0.54012698	3.3870001	-0.755	0.391
10	1	1	-0.70486403	3.7420001	-0.75599998	-0.81800002
11	1	5	0.31533101	2.036	0.030999999	1.845
12	1	6	0.047451999	2.1029999	1.423	-0.73400003
13	1	6	0.047451999	0.81400001	1.513	0.493
14	1	7	0.084326997	1.1950001	-0.68800002	-1.641
15	1	7	0.084326997	-0.063000001	0.57300001	-1.633
16	1	7	0.084326997	-0.866	-1.724	-0.90200001
17	1	7	0.084326997	0.25099999	-1.6720001	0.48699999
18	1	6	0.050958999	-0.977	0.38800001	1.358
19	1	6	0.050958999	-1.98	-1.091	1.255
20	1	5	0.321917	-2.3729999	0.28200001	-1.2359999
21	1	8	-0.50096202	-8.3809996	3.4560001	-10.102
22	1	4	0.112466	-8.8070002	3.586	-8.7720003
23	1	4	-0.140202	-7.7340002	3.0799999	-7.8000002
24	1	4	-0.14121699	-7.4840002	1.573	-7.9660001
25	1	4	-0.1424	-6.336	1.063	-7.079
26	1	4	-0.14107101	-6.7090001	1.029	-5.5900002
27	1	4	-0.14107101	-5.5890002	0.38999999	-4.7589998
28	1	4	-0.1424	-5.9530001	0.36399999	-3.2690001
29	1	4	-0.14121699	-4.8249998	-0.266	-2.438
30	1	4	-0.140202	-5.2069998	-0.44400001	-0.95899999
31	1	4	0.112467	-5.3390002	0.88	-0.193
32	1	8	-0.50096202	-4.151	1.623	-0.25999999
33	1	6	0.080969997	-5.5960002	0.667	0.86900002
34	1	6	0.080969997	-6.1690001	1.485	-0.61199999
35	1	7	0.087692998	-6.1630001	-1.007	-0.884
36	1	7	0.087692998	-4.4239998	-1.061	-0.465
37	1	7	0.083765	-4.5929999	-1.271	-2.8529999
38	1	7	0.083765	-3.904	0.35100001	-2.523
39	1	7	0.082023002	-6.1339998	1.405	-2.9260001
40	1	7	0.082023002	-6.888	-0.22400001	-3.131
41	1	7	0.082023002	-5.415	-0.64999998	-5.1129999
42	1	7	0.082023002	-4.651	0.972	-4.8969998
43	1	7	0.082023002	-7.6440001	0.442	-5.4549999
44	1	7	0.082023002	-6.882	2.063	-5.223
45	1	7	0.082023002	-5.434	1.696	-7.23
46	1	7	0.082023002	-6.0819998	0.032000002	-7.4089999
47	1	7	0.083765	-8.4139996	1.007	-7.7399998
48	1	7	0.083765	-7.2129998	1.365	-9.0240002
49	1	7	0.087692998	-8.0810003	3.2909999	-6.7670002
50	1	7	0.087692998	-6.7909999	3.6429999	-7.9720001
51	1	6	0.080969997	-9.7419996	3.0020001	-8.6339998
52	1	6	0.080969997	-9.0410004	4.651	-8.5480003
53	1	1	-0.62620699	-9.533	10.663	-13.296
54	1	2	0.782749	-8.335	10.45	-13.622
55	1	3	-0.469982	-7.789	9.1289997	-13.587
56	1	4	0.021601999	-8.5979996	7.9759998	-13.189
57	1	4	-0.146946	-7.77	6.6820002	-13.157
58	1	4	-0.146946	-6.6680002	6.6680002	-12.079
59	1	4	0.021601999	-7.2020001	6.6729999	-10.637
60	1	3	-0.469982	-8.1230001	5.5619998	-10.4
61	1	2	0.782749	-7.684	4.2069998	-10.265
62	1	1	-0.62620699	-6.4619999	3.9119999	-10.333
63	1	5	0.321917	-9.1379995	5.77	-10.272
64	1	6	0.050958999	-6.349	6.6069999	-9.927
65	1	6	0.050958999	-7.717	7.6339998	-10.429
66	1	7	0.084326997	-6.0479999	5.7579999	-12.228
67	1	7	0.084326997	-5.993	7.5380001	-12.214
68	1	7	0.084326997	-7.2950001	6.539	-14.152
69	1	7	0.084326997	-8.4530001	5.8189998	-13.003
70	1	6	0.050958999	-9.0620003	8.1619997	-12.199
71	1	6	0.050958999	-9.4219999	7.849	-13.924
72	1	5	0.321917	-6.7950001	9.0050001	-13.883
73	1	8	-0.50096202	1.4910001	15.232	-18.047001
74	1	4	0.112466	0.16599999	15.672	-17.908001
75	1	4	-0.140202	-0.70899999	14.582	-17.278
76	1	4	-0.14121699	-0.81999999	13.348	-18.187
77	1	4	-0.1424	-1.603	12.199	-17.531
78	1	4	-0.14107101	-3.108	12.491	-17.427999
79	1	4	-0.14107101	-3.868	11.27	-16.893
80	1	4	-0.1424	-5.369	11.562	-16.778999
81	1	4	-0.14121699	-6.1259999	10.342	-16.233
82	1	4	-0.140202	-7.651	10.539	-16.237
83	1	4	0.112467	-8.1400003	11.581	-15.221
84	1	8	-0.50096202	-7.7389998	11.245	-13.92
85	1	6	0.080969997	-9.25	11.653	-15.271
86	1	6	0.080969997	-7.7399998	12.584	-15.476
87	1	7	0.087692998	-7.987	10.836	-17.254999
88	1	7	0.087692998	-8.1339998	9.5649996	-16.003
89	1	7	0.083765	-5.8959999	9.4619999	-16.872
90	1	7	0.083765	-5.7750001	10.108	-15.204
91	1	7	0.082023002	-5.5149999	12.427	-16.098
92	1	7	0.082023002	-5.7680001	11.827	-17.783001
93	1	7	0.082023002	-3.711	10.41	-17.580999
94	1	7	0.082023002	-3.4690001	10.999	-15.891
95	1	7	0.082023002	-3.503	12.757	-18.431999
96	1	7	0.082023002	-3.276	13.347	-16.74
97	1	7	0.082023002	-1.187	11.988	-16.521
98	1	7	0.082023002	-1.457	11.288	-18.152
99	1	7	0.083765	-1.299	13.628	-19.150999
100	1	7	0.083765	0.20200001	12.974	-18.416
101	1	7	0.087692998	-1.719	15.012	-17.105
102	1	7	0.087692998	-0.28200001	14.293	-16.294001
103	1	6	0.080969997	-0.23199999	15.94	-18.909
104	1	6	0.080969997	0.132	16.589001	-17.277
105	1	1	-0.62620699	5.8779998	20.972	-14.69
106	1	2	0.782749	6.336	19.955	-14.105
107	1	3	-0.469982	6.1149998	18.645	-14.633
108	1	4	0.021601999	5.369	18.434999	-15.875
109	1	4	-0.146946	5.2010002	16.941	-16.194
110	1	4	-0.146946	4.3270001	16.176001	-15.179
111	1	4	0.021601999	2.852	16.610001	-15.17
112	1	3	-0.469982	2.2520001	16.504	-16.499001
113	1	2	0.782749	1.911	15.25	-17.099001
114	1	1	-0.62620699	2.1059999	14.166	-16.488001
115	1	5	0.321917	2.0120001	17.381001	-17.014
116	1	6	0.050958999	2.2850001	15.976	-14.455
117	1	6	0.050958999	2.7679999	17.655001	-14.806
118	1	7	0.084326997	4.3800001	15.093	-15.421
119	1	7	0.084326997	4.7410002	16.294001	-14.156
120	1	7	0.084326997	6.2069998	16.468	-16.223
121	1	7	0.084326997	4.7690001	16.834999	-17.212
122	1	6	0.050958999	4.3779998	18.93	-15.809
123	1	6	0.050958999	5.9239998	18.913	-16.709999
124	1	5	0.321917	6.5300002	17.836	-14.119
125	1	8	-0.50096202	13.12	16.096001	-5.2680001
126	1	4	0.112466	12.869	17.356001	-5.8309999
127	1	4	-0.140202	11.901	17.246	-7.0139999
128	1	4	-0.14121699	12.509	16.436001	-8.1709995
129	1	4	-0.1424	11.517	16.219	-9.3249998
130	1	4	-0.14107101	11.244	17.504	-10.121
131	1	4	-0.14107101	10.359	17.216999	-11.34
132	1	4	-0.1424	10.075	18.5	-12.131
133	1	4	-0.14121699	9.1789999	18.211	-13.344
134	1	4	-0.140202	8.9870005	19.441999	-14.247
135	1	4	0.112467	8.1429996	20.549999	-13.603
136	1	8	-0.50096202	6.8790002	20.070999	-13.229
137	1	6	0.080969997	8.0340004	21.393999	-14.321
138	1	6	0.080969997	8.6569996	20.954	-12.706
139	1	7	0.087692998	9.9790001	19.856001	-14.531
140	1	7	0.087692998	8.4860001	19.117001	-15.184
141	1	7	0.083765	9.6520004	17.410999	-13.957
142	1	7	0.083765	8.1920004	17.83	-13.004
143	1	7	0.082023002	9.5719995	19.229	-11.461
144	1	7	0.082023002	11.037	18.938	-12.476
145	1	7	0.082023002	10.871	16.483	-12.001
146	1	7	0.082023002	9.3959999	16.774	-11
147	1	7	0.082023002	12.208	17.941	-10.463
148	1	7	0.082023002	10.729	18.243999	-9.4709997
149	1	7	0.082023002	10.563	15.807	-8.9300003
150	1	7	0.082023002	11.953	15.459	-10.011
151	1	7	0.083765	13.423	16.943001	-8.5500002
152	1	7	0.083765	12.812	15.436	-7.7909999
153	1	7	0.087692998	11.666	18.275	-7.3610001
154	1	7	0.087692998	10.957	16.77	-6.6719999
155	1	6	0.080969997	13.83	17.796	-6.1719999
156	1	6	0.080969997	12.442	18.040001	-5.0619998
157	1	1	-0.62620699	11.735	17.059	2.5179999
158	1	2	0.782749	11.032	16.041	2.279
159	1	3	-0.469982	11.239	15.269	1.0930001
160	1	4	0.021601999	12.28	15.618	0.124
161	1	4	-0.146946	12.255	14.687	-1.099
162	1	4	-0.146946	10.982	14.814	-1.959
163	1	4	0.021601999	10.834	16.174	-2.661
164	1	3	-0.469982	12.003	16.487	-3.4809999
165	1	2	0.782749	12.272	15.839	-4.7280002
166	1	1	-0.62620699	11.49	14.963	-5.1849999
167	1	5	0.321917	12.643	17.253	-3.1719999
168	1	6	0.050958999	9.9239998	16.163	-3.3
169	1	6	0.050958999	10.683	16.974001	-1.906
170	1	7	0.084326997	11.002	14.014	-2.7290001
171	1	7	0.084326997	10.082	14.633	-1.336
172	1	7	0.084326997	12.343	13.636	-0.74800003
173	1	7	0.084326997	13.15	14.89	-1.725
174	1	6	0.050958999	12.164	16.674999	-0.192
175	1	6	0.050958999	13.271	15.525	0.61699998
176	1	5	0.321917	10.641	14.425	0.94999999
177	1	8	-0.50096202	2.7550001	8.7790003	6.4920001
178	1	4	0.112466	3.5179999	9.8179998	7.0450001
179	1	4	-0.140202	4.4889998	10.396	6.0089998
180	1	4	-0.14121699	5.5339999	9.3590002	5.5700002
181	1	4	-0.1424	6.4510002	9.8809996	4.4520001
182	1	4	-0.14107101	7.441	10.946	4.9460001
183	1	4	-0.14107101	8.4230003	11.34	3.836
184	1	4	-0.1424	9.4060001	12.411	4.3239999
185	1	4	-0.14121699	10.381	12.812	3.2060001
186	1	4	-0.140202	11.476	13.778	3.691
187	1	4	0.112467	10.95	15.176	4.0450001
188	1	8	-0.50096202	10.294	15.761	2.9519999
189	1	6	0.080969997	11.8	15.819	4.368
190	1	6	0.080969997	10.246	15.118	4.901
191	1	7	0.087692998	11.989	13.346	4.5780001
192	1	7	0.087692998	12.237	13.88	2.888
193	1	7	0.083765	10.882	11.897	2.8210001
194	1	7	0.083765	9.8199997	13.266	2.3599999
195	1	7	0.082023002	8.8310003	13.302	4.6539998
196	1	7	0.082023002	9.9799995	12.015	5.191
197	1	7	0.082023002	8.9910002	10.44	3.5109999
198	1	7	0.082023002	7.8540001	11.733	2.964
199	1	7	0.082023002	8.0109997	10.547	5.8140001
200	1	7	0.082023002	6.8860002	11.851	5.2709999
201	1	7	0.082023002	5.836	10.291	3.6210001
202	1	7	0.082023002	7.026	9.0170002	4.0500002
203	1	7	0.083765	6.1469998	9.0439997	6.4429998
204	1	7	0.083765	5.0089998	8.4580002	5.1849999
205	1	7	0.087692998	4.9980001	11.27	6.4679999
206	1	7	0.087692998	3.9130001	10.753	5.1279998
207	1	6	0.080969997	4.0879998	9.4239998	7.914
208	1	6	0.080969997	2.8499999	10.625	7.421
209	1	1	-0.62620699	-4.7859998	10.697	8.2010002
210	1	2	0.782749	-4.8730001	10.484	6.9619999
211	1	3	-0.469982	-3.8540001	9.7589998	6.27
212	1	4	0.021601999	-2.6849999	9.224	6.9689999
213	1	4	-0.146946	-1.698	8.5539999	6
214	1	4	-0.146946	-1.038	9.5270004	5.0029998
215	1	4	0.021601999	-0.104	10.558	5.658
216	1	3	-0.469982	0.93400002	9.9099998	6.4590001
217	1	2	0.782749	2.0480001	9.2250004	5.8769999
218	1	1	-0.62620699	2.1889999	9.1610003	4.6269999
219	1	5	0.321917	0.89300001	9.9949999	7.4990001
220	1	6	0.050958999	0.37	11.181	4.869
221	1	6	0.050958999	-0.69199997	11.247	6.2989998
222	1	7	0.084326997	-0.45500001	8.9309998	4.2690001
223	1	7	0.084326997	-1.817	10.067	4.4260001
224	1	7	0.084326997	-2.2390001	7.77	5.427
225	1	7	0.084326997	-0.912	8.033	6.5879998
226	1	6	0.050958999	-2.1800001	10.033	7.5370002
227	1	6	0.050958999	-3.026	8.4650002	7.7049999
228	1	5	0.321917	-3.9820001	9.5959997	5.2459998
229	1	8	-0.50096202	-11.721	11.499	-2.5810001
230	1	4	0.112466	-11.924	11.693	-1.207
231	1	4	-0.140202	-10.653	11.366	-0.414
232	1	4	-0.14121699	-10.279	9.8800001	-0.52899998
233	1	4	-0.1424	-8.9490004	9.5489998	0.168
234	1	4	-0.14107101	-9.0550003	9.5970001	1.699
235	1	4	-0.14107101	-7.7480001	9.132	2.3540001
236	1	4	-0.1424	-7.8470001	9.1890001	3.8840001
237	1	4	-0.14121699	-6.5339999	8.7329998	4.5359998
238	1	4	-0.140202	-6.6339998	8.6359997	6.0679998
239	1	4	0.112467	-6.77	9.9989996	6.763
240	1	8	-0.50096202	-5.6960001	10.84	6.4400001
241	1	6	0.080969997	-6.8179998	9.8470001	7.8649998
242	1	6	0.080969997	-7.7189999	10.49	6.4629998
243	1	7	0.087692998	-7.5	7.9959998	6.3470001
244	1	7	0.087692998	-5.7189999	8.1359997	6.4510002
245	1	7	0.083765	-6.2719998	7.724	4.1490002
246	1	7	0.083765	-5.71	9.4230003	4.2519999
247	1	7	0.082023002	-8.073	10.232	4.1890001
248	1	7	0.082023002	-8.677	8.5299997	4.2220001
249	1	7	0.082023002	-7.5310001	8.0880003	2.0380001
250	1	7	0.082023002	-6.914	9.7849998	2.0150001
251	1	7	0.082023002	-9.8870001	8.9399996	2.0339999
252	1	7	0.082023002	-9.2690001	10.637	2.027
253	1	7	0.082023002	-8.158	10.249	-0.18000001
254	1	7	0.082023002	-8.6490002	8.5229998	-0.138
255	1	7	0.083765	-11.093	9.25	-0.106
256	1	7	0.083765	-10.174	9.6160002	-1.604
257	1	7	0.087692998	-10.838	11.625	0.64999998
258	1	7	0.087692998	-9.8170004	11.999	-0.78500003
259	1	6	0.080969997	-12.755	11.039	-0.86900002
260	1	6	0.080969997	-12.225	12.747	-1.01
261	1	1	-0.62620699	-14.15	18.297001	-5.9510002
262	1	2	0.782749	-13.01	18.17	-6.473
263	1	3	-0.469982	-12.332	16.912001	-6.4549999
264	1	4	0.021601999	-12.936	15.724	-5.8499999
265	1	4	-0.146946	-11.984	14.518	-5.888
266	1	4	-0.146946	-10.718	14.69	-5.0250001
267	1	4	0.021601999	-10.994	14.76	-3.5139999
268	1	3	-0.469982	-11.739	13.591	-3.049
269	1	2	0.782749	-11.145	12.296	-2.9119999
270	1	1	-0.62620699	-9.9280005	12.11	-3.1789999
271	1	5	0.321917	-12.734	13.713	-2.7539999
272	1	6	0.050958999	-10.03	14.828	-2.9649999
273	1	6	0.050958999	-11.563	15.682	-3.276
274	1	7	0.084326997	-10.041	13.833	-5.2259998
275	1	7	0.084326997	-10.17	15.606	-5.3309999
276	1	7	0.084326997	-11.675	14.342	-6.941
277	1	7	0.084326997	-12.537	13.611	-5.5609999
278	1	6	0.050958999	-13.24	15.944	-4.8060002
279	1	6	0.050958999	-13.856	15.464	-6.4159999
280	1	5	0.321917	-11.396	16.857	-6.9159999
281	1	8	-0.50096202	-4.6440001	23.474001	-12.866
282	1	4	0.112466	-5.9629998	23.799	-12.519
283	1	4	-0.140202	-6.5999999	22.687	-11.678
284	1	4	-0.14121699	-6.7360001	21.379999	-12.475
285	1	4	-0.1424	-7.27	20.219	-11.621
286	1	4	-0.14107101	-8.7559996	20.378	-11.268
287	1	4	-0.14107101	-9.2819996	19.139	-10.533
288	1	4	-0.1424	-10.763	19.299	-10.171
289	1	4	-0.14121699	-11.284	18.062	-9.4250002
290	1	4	-0.140202	-12.799	18.117001	-9.1689997
291	1	4	0.112467	-13.212	19.186001	-8.1470003
292	1	8	-0.50096202	-12.561	18.990999	-6.9200001
293	1	6	0.080969997	-14.315	19.150999	-8.0019999
294	1	6	0.080969997	-12.969	20.198	-8.5299997
295	1	7	0.087692998	-13.334	18.299999	-10.126
296	1	7	0.087692998	-13.13	17.124001	-8.7930002
297	1	7	0.083765	-11.076	17.159	-10.04
298	1	7	0.083765	-10.739	17.941999	-8.4630003
299	1	7	0.082023002	-10.879	20.198	-9.5290003
300	1	7	0.082023002	-11.354	19.447001	-11.101
301	1	7	0.082023002	-9.1569996	18.245001	-11.184
302	1	7	0.082023002	-8.6899996	18.985001	-9.6040001
303	1	7	0.082023002	-9.3439999	20.528	-12.201
304	1	7	0.082023002	-8.8929996	21.267	-10.616
305	1	7	0.082023002	-6.6669998	20.127001	-10.691
306	1	7	0.082023002	-7.138	19.278999	-12.201
307	1	7	0.083765	-7.3990002	21.538	-13.353
308	1	7	0.083765	-5.7350001	21.086	-12.86
309	1	7	0.087692998	-7.6030002	23.034	-11.354
310	1	7	0.087692998	-5.9819999	22.516001	-10.77
311	1	6	0.080969997	-6.5539999	23.951	-13.448
312	1	6	0.080969997	-5.9840002	24.756001	-11.949
313	1	1	-0.62620699	-0.36899999	29.839001	-10.703
314	1	2	0.782749	0.28600001	28.917	-10.148
315	1	3	-0.469982	0.116	27.555	-10.548
316	1	4	0.021601999	-0.80699998	27.18	-11.62
317	1	4	-0.146946	-0.87	25.657	-11.813
318	1	4	-0.146946	-1.472	24.896999	-10.614
319	1	4	0.021601999	-2.96	25.193001	-10.368
320	1	3	-0.469982	-3.7650001	24.927999	-11.559
321	1	2	0.782749	-4.072	23.605	-12.011
322	1	1	-0.62620699	-3.6619999	22.594999	-11.38
323	1	5	0.321917	-4.1799998	25.737	-12.075
324	1	6	0.050958999	-3.3269999	24.566999	-9.5249996
325	1	6	0.050958999	-3.089	26.250999	-10.059
326	1	7	0.084326997	-1.348	23.808001	-10.794
327	1	7	0.084326997	-0.903	25.132	-9.6899996
328	1	7	0.084326997	0.16	25.278	-11.993
329	1	7	0.084326997	-1.457	25.431999	-12.729
330	1	6	0.050958999	-1.818	27.586	-11.409
331	1	6	0.050958999	-0.45500001	27.639999	-12.569
332	1	5	0.321917	0.69599998	26.83	-10.067
333	1	8	-0.50096202	8.8520002	26.403999	-2.447
334	1	4	0.112466	8.3789997	27.587	-3.0320001
335	1	4	-0.140202	7.2389998	27.296	-4.0139999
336	1	4	-0.14121699	7.7199998	26.457001	-5.2090001
337	1	4	-0.1424	6.573	26.059999	-6.152
338	1	4	-0.14107101	6.0339999	27.247999	-6.9629998
339	1	4	-0.14107101	4.9879999	26.785999	-7.9850001
340	1	4	-0.1424	4.4400001	27.971001	-8.7889996
341	1	4	-0.14121699	3.3840001	27.507	-9.8030005
342	1	4	-0.140202	2.9130001	28.639999	-10.73
343	1	4	0.112467	2.0810001	29.714001	-10.014
344	1	8	-0.50096202	0.95700002	29.150999	-9.3920002
345	1	6	0.080969997	1.762	30.485001	-10.751
346	1	6	0.080969997	2.6960001	30.232	-9.2510004
347	1	7	0.087692998	3.7920001	29.120001	-11.212
348	1	7	0.087692998	2.2939999	28.198	-11.541
349	1	7	0.083765	3.826	26.709	-10.44
350	1	7	0.083765	2.5150001	27.065001	-9.2690001
351	1	7	0.082023002	3.9860001	28.702	-8.0860004
352	1	7	0.082023002	5.2779999	28.468	-9.3269997
353	1	7	0.082023002	5.4520001	26.052999	-8.6809998
354	1	7	0.082023002	4.1500001	26.285	-7.4520001
355	1	7	0.082023002	6.8740001	27.743	-7.4980001
356	1	7	0.082023002	5.5640001	27.986	-6.2779999
357	1	7	0.082023002	5.7490001	25.594	-5.5679998
358	1	7	0.082023002	6.961	25.292	-6.8569999
359	1	7	0.083765	8.4969997	27.014999	-5.7750001
360	1	7	0.083765	8.1859999	25.521999	-4.829
361	1	7	0.087692998	6.8410001	28.268	-4.375
362	1	7	0.087692998	6.4219999	26.764	-3.48
363	1	6	0.080969997	9.2150002	28.086	-3.566
364	1	6	0.080969997	8.0209999	28.287001	-2.243
365	1	1	-0.62620699	8.7320004	27.841999	5.388
366	1	2	0.782749	8.1090002	26.749001	5.3400002
367	1	3	-0.469982	8.1890001	25.909	4.1859999
368	1	4	0.021601999	9.0050001	26.274	3.0280001
369	1	4	-0.146946	8.8690004	25.252001	1.888
370	1	4	-0.146946	7.46	25.194	1.262
371	1	4	0.021601999	7.052	26.475	0.51700002
372	1	3	-0.469982	8.0240002	26.829	-0.51599997
373	1	2	0.782749	8.1409998	26.112	-1.75
374	1	1	-0.62620699	7.388	25.136	-2.0050001
375	1	5	0.321917	8.625	27.672001	-0.37400001
376	1	6	0.050958999	6.053	26.33	0.052999999
377	1	6	0.050958999	6.9510002	27.315001	1.2359999
378	1	7	0.084326997	7.4310002	24.341	0.551
379	1	7	0.084326997	6.704	24.98	2.0469999
380	1	7	0.084326997	9.1239996	24.243999	2.2809999
381	1	7	0.084326997	9.6169996	25.487	1.1
382	1	6	0.050958999	8.7270002	27.288	2.6730001
383	1	6	0.050958999	10.071	26.312	3.3399999
384	1	5	0.321917	7.6659999	25.004	4.204
385	1	8	-0.17537899	1.482	19.108999	11.4
386	1	4	0.034047	2.2160001	20.254	11.743
387	1	4	-0.146199	2.9289999	20.836	10.518
388	1	4	-0.13994899	3.9860001	19.868	9.9619999
389	1	4	-0.142349	4.638	20.382	8.6689997
390	1	4	-0.14107101	5.5809999	21.57	8.9119997
391	1	4	-0.14107101	6.3109999	21.964001	7.6230001
392	1	4	-0.1424	7.2459998	23.156	7.8600001
393	1	4	-0.14121699	7.967	23.556999	6.5650001
394	1	4	-0.140202	9.0220003	24.653999	6.7870002
395	1	4	0.112467	8.4219999	26.021	7.1420002
396	1	8	-0.50096202	7.5310001	26.455999	6.1500001
397	1	6	0.080969997	9.243	26.763	7.2680001
398	1	6	0.080969997	7.8860002	25.966	8.1120005
399	1	7	0.087692998	9.7229996	24.341999	7.592
400	1	7	0.087692998	9.6190004	24.763	5.855
401	1	7	0.083765	8.4870005	22.664	6.1529999
402	1	7	0.083765	7.2249999	23.889	5.8060002
403	1	7	0.082023002	6.6459999	24.013	8.2340002
404	1	7	0.082023002	7.9980001	22.884001	8.6339998
405	1	7	0.082023002	6.9050002	21.098	7.257
406	1	7	0.082023002	5.5630002	22.233999	6.8449998
407	1	7	0.082023002	6.3299999	21.295	9.6879997
408	1	7	0.082023002	4.9980001	22.443001	9.2749996
409	1	7	0.082023002	3.8499999	20.667999	7.9380002
410	1	7	0.082023002	5.2210002	19.546	8.224
411	1	7	0.083939001	4.7680001	19.68	10.73
412	1	7	0.083939001	3.5	18.895	9.7329998
413	1	7	0.088739	3.415	21.785999	10.823
414	1	7	0.088739	2.1760001	21.068001	9.7329998
415	1	6	0.080835	2.9649999	19.983	12.518
416	1	6	0.080835	1.5420001	21.023001	12.183
417	1	1	-0.70486403	3.786	-1.118	2.3410001
418	1	2	0.54012698	3.9519999	-1.332	1.1109999
419	1	3	-0.52575803	4.868	-2.3329999	0.65499997
420	1	4	0.027837001	5.6630001	-3.152	1.567
421	1	4	-0.143096	6.8249998	-2.339	2.145
422	1	4	-0.12500501	7.6869998	-3.198	3.0799999
423	1	4	0.182004	8.8769999	-2.414	3.6400001
424	1	3	-0.66647899	8.415	-1.368	4.5489998
425	1	9	0.59192699	8.6829996	-0.14	4.3520002
426	1	1	-0.49637401	8.9440002	1.054	4.1589999
427	1	6	0.027005	9.4799995	-1.99	2.8039999
428	1	6	0.027005	9.5290003	-3.1099999	4.2080002
429	1	7	0.07824	8.0780001	-4.073	2.516
430	1	7	0.07824	7.0679998	-3.579	3.9219999
431	1	7	0.083268002	7.4510002	-1.957	1.309
432	1	7	0.083268002	6.4219999	-1.469	2.7079999
433	1	6	0.047451999	5.0149999	-3.5409999	2.3829999
434	1	6	0.047451999	6.0689998	-4.0229998	1.008
435	1	5	0.31533101	4.9239998	-2.5220001	-0.37099999
436	1	8	-0.17537899	0.67400002	19.424	10.917
437	1	4	0.034047	1.104	19.849001	9.651
438	1	4	-0.146199	1.825	21.198999	9.7410002
439	1	4	-0.13994899	0.87900001	22.316999	10.208
440	1	4	-0.142349	1.604	23.658001	10.411
441	1	4	-0.14107101	2.0250001	24.309999	9.0860004
442	1	4	-0.14107101	2.6210001	25.702999	9.3249998
443	1	4	-0.142349	3.053	26.351999	8.0039997
444	1	4	-0.135864	3.6600001	27.742001	8.2480001
445	1	4	-0.16812301	3.974	28.49	6.941
446	1	4	0.087274998	5.132	27.875	6.1430001
447	1	10	-0.68339902	6.302	27.816	6.914
448	1	11	0.37983999	6.6459999	28.745001	6.9780002
449	1	6	0.071416996	5.3099999	28.48	5.2259998
450	1	6	0.071416996	4.8670001	26.851	5.8080001
451	1	7	0.091092996	3.066	28.521999	6.3010001
452	1	7	0.091092996	4.237	29.541	7.191
453	1	7	0.083939001	2.9319999	28.355	8.8240004
454	1	7	0.083939001	4.5799999	27.65	8.8649998
455	1	7	0.082023002	3.803	25.698	7.5120001
456	1	7	0.082023002	2.168	26.445999	7.336
457	1	7	0.082023002	1.863	26.347	9.8210001
458	1	7	0.082023002	3.5039999	25.614	9.9960003
459	1	7	0.082023002	1.1390001	24.4	8.4189997
460	1	7	0.082023002	2.786	23.676001	8.5819998
461	1	7	0.082023002	2.494	23.51	11.061
462	1	7	0.082023002	0.90899998	24.344	10.943
463	1	7	0.083939001	0.050999999	22.444	9.4770002
464	1	7	0.083939001	0.42699999	22.025	11.181
465	1	7	0.088739	2.224	21.441999	8.7340002
466	1	7	0.088739	2.6830001	21.108999	10.442
467	1	6	0.080835	0.222	19.938999	8.9820004
468	1	6	0.080835	1.7869999	19.091	9.2049999

Bonds

1	1	1	2
2	2	2	3
3	3	2	32
4	4	3	4
5	5	3	20
6	6	4	5
7	7	4	18
8	7	4	19
9	6	5	6
10	7	5	16
11	7	5	17
12	6	6	7
13	7	6	14
14	7	6	15
15	4	7	8
16	7	7	12
17	7	7	13
18	2	8	9
19	5	8	11
20	1	9	10
21	8	9	418
22	9	21	22
23	3	21	61
24	6	22	23
25	7	22	51
26	7	22	52
27	6	23	24
28	7	23	49
29	7	23	50
30	6	24	25
31	7	24	47
32	7	24	48
33	6	25	26
34	7	25	45
35	7	25	46
36	6	26	27
37	7	26	43
38	7	26	44
39	6	27	28
40	7	27	41
41	7	27	42
42	6	28	29
43	7	28	39
44	7	28	40
45	6	29	30
46	7	29	37
47	7	29	38
48	6	30	31
49	7	30	35
50	7	30	36
51	9	31	32
52	7	31	33
53	7	31	34
54	1	53	54
55	2	54	55
56	3	54	84
57	4	55	56
58	5	55	72
59	6	56	57
60	7	56	70
61	7	56	71
62	6	57	58
63	7	57	68
64	7	57	69
65	6	58	59
66	7	58	66
67	7	58	67
68	4	59	60
69	7	59	64
70	7	59	65
71	2	60	61
72	5	60	63
73	1	61	62
74	9	73	74
75	3	73	113
76	6	74	75
77	7	74	103
78	7	74	104
79	6	75	76
80	7	75	101
81	7	75	102
82	6	76	77
83	7	76	99
84	7	76	100
85	6	77	78
86	7	77	97
87	7	77	98
88	6	78	79
89	7	78	95
90	7	78	96
91	6	79	80
92	7	79	93
93	7	79	94
94	6	80	81
95	7	80	91
96	7	80	92
97	6	81	82
98	7	81	89
99	7	81	90
100	6	82	83
101	7	82	87
102	7	82	88
103	9	83	84
104	7	83	85
105	7	83	86
106	1	105	106
107	2	106	107
108	3	106	136
109	4	107	108
110	5	107	124
111	6	108	109
112	7	108	122
113	7	108	123
114	6	109	110
115	7	109	120
116	7	109	121
117	6	110	111
118	7	110	118
119	7	110	119
120	4	111	112
121	7	111	116
122	7	111	117
123	2	112	113
124	5	112	115
125	1	113	114
126	9	125	126
127	3	125	165
128	6	126	127
129	7	126	155
130	7	126	156
131	6	127	128
132	7	127	153
133	7	127	154
134	6	128	129
135	7	128	151
136	7	128	152
137	6	129	130
138	7	129	149
139	7	129	150
140	6	130	131
141	7	130	147
142	7	130	148
143	6	131	132
144	7	131	145
145	7	131	146
146	6	132	133
147	7	132	143
148	7	132	144
149	6	133	134
150	7	133	141
151	7	133	142
152	6	134	135
153	7	134	139
154	7	134	140
155	9	135	136
156	7	135	137
157	7	135	138
158	1	157	158
159	2	158	159
160	3	158	188
161	4	159	160
162	5	159	176
163	6	160	161
164	7	160	174
165	7	160	175
166	6	161	162
167	7	161	172
168	7	161	173
169	6	162	163
170	7	162	170
171	7	162	171
172	4	163	164
173	7	163	168
174	7	163	169
175	2	164	165
176	5	164	167
177	1	165	166
178	9	177	178
179	3	177	217
180	6	178	179
181	7	178	207
182	7	178	208
183	6	179	180
184	7	179	205
185	7	179	206
186	6	180	181
187	7	180	203
188	7	180	204
189	6	181	182
190	7	181	201
191	7	181	202
192	6	182	183
193	7	182	199
194	7	182	200
195	6	183	184
196	7	183	197
197	7	183	198
198	6	184	185
199	7	184	195
200	7	184	196
201	6	185	186
202	7	185	193
203	7	185	194
204	6	186	187
205	7	186	191
206	7	186	192
207	9	187	188
208	7	187	189
209	7	187	190
210	1	209	210
211	2	210	211
212	3	210	240
213	4	211	212
214	5	211	228
215	6	212	213
216	7	212	226
217	7	212	227
218	6	213	214
219	7	213	224
220	7	213	225
221	6	214	215
222	7	214	222
223	7	214	223
224	4	215	216
225	7	215	220
226	7	215	221
227	2	216	217
228	5	216	219
229	1	217	218
230	9	229	230
231	3	229	269
232	6	230	231
233	7	230	259
234	7	230	260
235	6	231	232
236	7	231	257
237	7	231	258
238	6	232	233
239	7	232	255
240	7	232	256
241	6	233	234
242	7	233	253
243	7	233	254
244	6	234	235
245	7	234	251
246	7	234	252
247	6	235	236
248	7	235	249
249	7	235	250
250	6	236	237
251	7	236	247
252	7	236	248
253	6	237	238
254	7	237	245
255	7	237	246
256	6	238	239
257	7	238	243
258	7	238	244
259	9	239	240
260	7	239	241
261	7	239	242
262	1	261	262
263	2	262	263
264	3	262	292
265	4	263	264
266	5	263	280
267	6	264	265
268	7	264	278
269	7	264	279
270	6	265	266
271	7	265	276
272	7	265	277
273	6	266	267
274	7	266	274
275	7	266	275
276	4	267	268
277	7	267	272
278	7	267	273
279	2	268	269
280	5	268	271
281	1	269	270
282	9	281	282
283	3	281	321
284	6	282	283
285	7	282	311
286	7	282	312
287	6	283	284
288	7	283	309
289	7	283	310
290	6	284	285
291	7	284	307
292	7	284	308
293	6	285	286
294	7	285	305
295	7	285	306
296	6	286	287
297	7	286	303
298	7	286	304
299	6	287	288
300	7	287	301
301	7	287	302
302	6	288	289
303	7	288	299
304	7	288	300
305	6	289	290
306	7	289	297
307	7	289	298
308	6	290	291
309	7	290	295
310	7	290	296
311	9	291	292
312	7	291	293
313	7	291	294
314	1	313	314
315	2	314	315
316	3	314	344
317	4	315	316
318	5	315	332
319	6	316	317
320	7	316	330
321	7	316	331
322	6	317	318
323	7	317	328
324	7	317	329
325	6	318	319
326	7	318	326
327	7	318	327
328	4	319	320
329	7	319	324
330	7	319	325
331	2	320	321
332	5	320	323
333	1	321	322
334	9	333	334
335	3	333	373
336	6	334	335
337	7	334	363
338	7	334	364
339	6	335	336
340	7	335	361
341	7	335	362
342	6	336	337
343	7	336	359
344	7	336	360
345	6	337	338
346	7	337	357
347	7	337	358
348	6	338	339
349	7	338	355
350	7	338	356
351	6	339	340
352	7	339	353
353	7	339	354
354	6	340	341
355	7	340	351
356	7	340	352
357	6	341	342
358	7	341	349
359	7	341	350
360	6	342	343
361	7	342	347
362	7	342	348
363	9	343	344
364	7	343	345
365	7	343	346
366	1	365	366
367	2	366	367
368	3	366	396
369	4	367	368
370	5	367	384
371	6	368	369
372	7	368	382
373	7	368	383
374	6	369	370
375	7	369	380
376	7	369	381
377	6	370	371
378	7	370	378
379	7	370	379
380	4	371	372
381	7	371	376
382	7	371	377
383	2	372	373
384	5	372	375
385	1	373	374
386	9	385	386
387	10	385	436
388	6	386	387
389	7	386	415
390	7	386	416
391	6	387	388
392	7	387	413
393	7	387	414
394	6	388	389
395	7	388	411
396	7	388	412
397	6	389	390
398	7	389	409
399	7	389	410
400	6	390	391
401	7	390	407
402	7	390	408
403	6	391	392
404	7	391	405
405	7	391	406
406	6	392	393
407	7	392	403
408	7	392	404
409	6	393	394
410	7	393	401
411	7	393	402
412	6	394	395
413	7	394	399
414	7	394	400
415	9	395	396
416	7	395	397
417	7	395	398
418	1	417	418
419	2	418	419
420	4	419	420
421	5	419	435
422	6	420	421
423	7	420	433
424	7	420	434
425	6	421	422
426	7	421	431
427	7	421	432
428	6	422	423
429	7	422	429
430	7	422	430
431	11	423	424
432	7	423	427
433	7	423	428
434	12	424	425
435	1	425	426
436	9	436	437
437	6	437	438
438	7	437	467
439	7	437	468
440	6	438	439
441	7	438	465
442	7	438	466
443	6	439	440
444	7	439	463
445	7	439	464
446	6	440	441
447	7	440	461
448	7	440	462
449	6	441	442
450	7	441	459
451	7	441	460
452	6	442	443
453	7	442	457
454	7	442	458
455	6	443	444
456	7	443	455
457	7	443	456
458	6	444	445
459	7	444	453
460	7	444	454
461	6	445	446