Title

10375 atoms
10750 bonds
17625 angles
27125 dihedrals
10500 impropers

8 atom types
13 bond types
6 angle types
21 dihedral types
2 improper types
-16.91029904 169.6623716 xlo xhi
-15.1921594 170.4723654 ylo yhi
-17.77255663 170.5044184 zlo zhi
0.0 0.0 0.0 xy xz yz

Masses

1	15.99943
2	12.01078
3	1.007947
4	12.01078
5	15.99943
6	1.007947
7	15.99943
8	1.007947


Pair Coeffs

1	0.16846514	3.0251065
2	0.10884061	3.3795318
3	0.016409246	2.5832257
4	0.086879315	3.4806469
5	0.2102061	3.0398122
6	0.015611343	2.5725815
7	0.20947353	2.99716
8	1.2326e-05	0.53453923

Bond Coeffs

1 harmonic	366.7408841747	1.425895053732
2 harmonic	300.03137914615	1.451203938761
3 harmonic	264.62148576755	1.52190126495
4 harmonic	370.04670688625	1.093899492634
5 harmonic	301.15400723785	1.345741232799
6 harmonic	582.698766451	1.225198386222
7 harmonic	279.1350963404	1.454628925034
8 harmonic	360.7852444772	1.387193227181
9 harmonic	397.2545789619	1.085358495916
10 harmonic	425.69104206635	1.362945806494
11 harmonic	329.96998057905	1.427343958716
12 harmonic	543.5267831885	0.9716763312559
13 harmonic	385.7604595587	1.369745182308


Angle Coeffs

1 harmonic	53.20531626545	116.5475862634
2 harmonic	65.09061609600001	110.3538806181
3 harmonic	201.41175231035	127.4691416191
4 harmonic	57.8982893754	126.8062420451
5 harmonic	48.776492647595	115.6030999533
6 harmonic	34.066775159195	129.1835929926


Dihedral Coeffs

1 fourier 1	-0.0309670556842	3	0
2 fourier 1	0.4598191477945	2	0
3 fourier 1	0.1115525666802	3	0
4 fourier 1	0.3432490222662	1	0
5 fourier 1	0.0473758381877	3	0
6 fourier 1	0.457973137376	1	0
7 fourier 1	0.1918272375143	3	0
8 fourier 1	0.9202179876409	1	180
9 fourier 1	1.163809172478	2	180
10 fourier 1	0.1679186987369	1	180
11 fourier 1	2.779853741805	2	180
12 fourier 1	0.9974165607242	2	180
13 fourier 1	0.1911926717192	3	0
14 fourier 1	3.661930099076	2	180
15 fourier 1	1.532232714475	2	180
16 fourier 1	0.3445382149273	3	0
17 fourier 1	0.1364556373303	1	0
18 fourier 1	0.3026390167484	3	0
19 fourier 1	2.687457892086	2	180
20 fourier 1	2.772607909663	2	180
21 fourier 1	0.09692684957115	1	0


Improper Coeffs

1 3.5	-1	2
2 0.3666666666666667	-1	2


Atoms

1	4	1	-0.1358706	1.4727862	11.995947	8.0488158
2	4	2	0.052143987	0.74470375	11.369528	7.0283841
3	4	2	0.15719775	1.627357	10.367826	6.2845141
4	4	1	-0.50239647	0.91899662	9.7916135	5.221663
5	4	3	0.090285721	2.514667	10.894762	5.8755477
6	4	3	0.090285721	1.986506	9.5784633	6.984488
7	4	3	0.097846727	0.39210276	12.146099	6.316432
8	4	3	0.097846727	-0.15048577	10.856488	7.4494262
9	7	4	0.79209536	0.2744931	9.0929998	5.6382301
10	7	5	-0.55410952	-0.11171763	9.2515977	6.826568
11	7	4	-0.29930035	-0.16954886	7.938178	4.8358098
12	7	4	0.026012902	-1.0043394	7.0104671	5.3384252
13	7	6	0.22060342	-1.3766822	7.0842573	6.3525898
14	7	4	-0.35890004	-1.4313648	5.8650232	4.5084098
15	7	6	0.20582066	-2.1035423	5.1279488	4.9309708
16	7	4	0.21310213	-0.99326693	5.7300251	3.2487643
17	7	1	-0.41790957	-1.4303374	4.6228142	2.5054169
18	7	2	0.085055339	-0.97995151	4.2823612	1.1949058
19	7	2	0.085055339	0.41544731	3.65596	1.2488466
20	7	1	-0.41790957	0.86487912	3.3152791	-0.061859195
21	7	4	0.21310207	0.4278087	2.2080682	-0.80520665
22	7	4	-0.36265558	0.86676815	2.0741396	-2.0651895
23	7	6	0.20582066	1.5380841	2.8101445	-2.4874132
24	7	4	0.060970116	0.43955015	0.92834365	-2.8938488
25	7	6	0.20413065	0.81189288	0.85455346	-3.9080135
26	7	4	-0.36908192	-0.39495533	0.00014321027	-2.3920575
27	7	4	0.58321404	-0.84032891	-1.1535753	-3.1943804
28	7	5	-0.58138985	-0.45383311	-1.3126627	-4.3835424
29	7	4	0.060970153	-0.87850198	0.1409952	-0.99871032
30	7	6	0.20413062	-1.5478299	-0.60047193	-0.57983493
31	7	4	-0.36265555	-0.49179526	1.1793854	-0.24646319
32	7	6	0.20582073	-0.8583276	1.2511631	0.76726656
33	7	3	0.083715367	0.42572673	2.765046	1.9127311
34	7	3	0.083715367	1.1289523	4.38868	1.6768489
35	7	3	0.083715367	-0.99118496	5.1730473	0.5308266
36	7	3	0.083715367	-1.6944105	3.5494133	0.76670876
37	7	4	-0.35890002	-0.07394804	6.7591975	2.6908449
38	7	6	0.20582066	0.29249179	6.6882615	1.6765832
39	7	4	0.0260129	0.31304375	7.7970981	3.442268
40	7	6	0.22060345	0.9823717	8.5385652	3.0233926
41	1	1	-0.13021739	1.5444546	11.339043	8.7902923
42	1	2	0.024096626	0.69507711	11.791073	9.8091181
43	1	2	0.096117932	1.3356142	12.96145	10.55499
44	1	7	-0.67734987	0.51639796	13.369056	11.616709
45	1	8	0.39691543	-0.23085364	13.886579	11.215793
46	1	3	0.095734175	2.3159015	12.639983	10.966164
47	1	3	0.095734175	1.5156354	13.809595	9.8561418
48	1	3	0.098540398	0.51966497	10.956407	10.52097
49	1	3	0.098540398	-0.28954174	12.096537	9.3865369
50	2	4	0.58321398	-1.5126813	-1.8828844	-2.7595039
51	2	5	-0.58138997	-2.5991386	-1.4882201	-2.258242
52	2	4	-0.36908195	-1.1444306	-3.3105203	-2.7645021
53	2	4	0.060970168	-1.9500918	-4.2481543	-2.2337795
54	2	6	0.20413065	-2.8983554	-3.9793831	-1.7846658
55	2	4	-0.36265561	-1.554553	-5.6723994	-2.2531952
56	2	6	0.20582066	-2.2274503	-6.3905765	-1.8081314
57	2	4	0.21310213	-0.3837167	-6.0467344	-2.806514
58	2	1	-0.41790957	0.050241628	-7.3830571	-2.8551632
59	2	2	0.085055339	-0.71923549	-8.5284441	-2.484598
60	2	2	0.085055339	-1.7809274	-8.8409003	-3.5424115
61	2	1	-0.41790957	-1.1917238	-8.9579112	-4.839347
62	2	4	0.21310207	-0.42122377	-10.038311	-5.3010107
63	2	4	-0.35890004	-0.26650837	-11.182688	-4.6064746
64	2	6	0.20582066	-0.73893112	-11.331769	-3.6474315
65	2	4	0.029987811	0.55699703	-12.282421	-5.1511724
66	2	6	0.22060345	0.6615839	-13.185896	-4.5649108
67	2	4	-0.28846705	1.1602121	-12.157527	-6.3479093
68	2	4	0.83055323	1.9862109	-13.253712	-6.8987061
69	2	5	-0.52838177	2.544869	-13.123857	-8.0215777
70	2	7	-0.67410589	2.1559559	-14.43783	-6.1850699
71	2	8	0.40490466	2.7202843	-15.192159	-6.5574229
72	2	4	0.029987772	0.98309694	-10.897934	-7.113787
73	2	6	0.22060342	1.4554529	-10.772727	-8.0805134
74	2	4	-0.35890004	0.23663426	-9.9029696	-6.6185366
75	2	6	0.20582073	0.11509511	-8.9890447	-7.1853193
76	2	3	0.083715367	-2.5201416	-8.0155946	-3.5724604
77	2	3	0.083715367	-2.3406731	-9.7635891	-3.2789177
78	2	3	0.083715367	-1.1854675	-8.3852261	-1.487124
79	2	3	0.083715367	-0.028607776	-9.3915298	-2.3930917
80	2	4	-0.36265558	0.50168633	-5.0123465	-3.3841188
81	2	6	0.20582066	1.4463546	-5.3023462	-3.826719
82	2	4	0.060970116	0.14483821	-3.7225525	-3.366098
83	2	6	0.20413062	0.8065503	-2.9793404	-3.7959257
84	4	1	-0.1358706	-13.490599	-0.60222167	30.36527
85	4	2	0.052143987	-12.702164	-0.31411684	31.487389
86	4	2	0.15719775	-11.415559	-1.1385022	31.457992
87	4	1	-0.50239647	-10.659623	-0.90070069	32.613613
88	4	3	0.090285721	-11.672957	-2.217564	31.417915
89	4	3	0.090285721	-10.821496	-0.89098402	30.548119
90	4	3	0.097846727	-13.279731	-0.56940271	32.401451
91	4	3	0.097846727	-12.462519	0.77357525	31.524097
92	7	4	0.79209536	-10.208244	0.025296661	32.488074
93	7	5	-0.55410952	-10.756741	0.87455049	31.736823
94	7	4	-0.29930035	-8.9433916	0.32262581	33.185504
95	7	4	0.026012902	-8.3264033	1.5104679	33.049483
96	7	6	0.22060342	-8.7421334	2.2875195	32.420219
97	7	4	-0.35890004	-7.0600668	1.7778377	33.762381
98	7	6	0.20582066	-6.5778414	2.740176	33.639814
99	7	4	0.21310213	-6.5060383	0.84472361	34.549281
100	7	1	-0.41790957	-5.3024452	1.1517155	35.202451
101	7	2	0.085055339	-4.53741	0.23923658	35.988771
102	7	2	0.085055339	-3.7666791	-0.73240379	35.091935
103	7	1	-0.41790957	-3.0015038	-1.6441175	35.878882
104	7	4	0.21310207	-1.7979106	-1.3371256	36.532053
105	7	4	-0.36265558	-1.2446777	-2.2714089	37.318963
106	7	6	0.20582066	-1.7261076	-3.232578	37.44152
107	7	4	0.060970116	0.021572021	-2.0031339	38.030777
108	7	6	0.20413065	0.43730213	-2.7801854	38.660041
109	7	4	-0.36908192	0.63930245	-0.81579301	37.895201
110	7	4	0.58321404	1.9028973	-0.51760133	38.593453
111	7	5	-0.58138985	2.4521365	-1.3673564	39.345149
112	7	4	0.060970153	0.034638937	0.2177648	37.022726
113	7	6	0.20413062	0.52248796	1.1771383	36.900924
114	7	4	-0.36265555	-1.1133453	-0.024368291	36.376835
115	7	6	0.20582073	-1.5262389	0.74816126	35.744487
116	7	3	0.083715367	-3.1142993	-0.18334387	34.379537
117	7	3	0.083715367	-4.4858771	-1.3206912	34.487099
118	7	3	0.083715367	-5.1896496	-0.30905808	36.701796
119	7	3	0.083715367	-3.8180718	0.82828921	36.594235
120	7	4	-0.35890002	-7.1913458	-0.46753243	34.704054
121	7	6	0.20582066	-6.7791076	-1.2404659	35.33704
122	7	4	0.0260129	-8.3385879	-0.71016675	34.058608
123	7	6	0.22060345	-8.8264369	-1.6695403	34.18041
124	1	1	-0.13021739	-13.073818	-0.13024018	29.597173
125	1	2	0.024096626	-13.915118	0.94590275	29.284269
126	1	2	0.096117932	-15.151078	0.4531142	28.531967
127	1	7	-0.67734987	-15.958583	1.53655	28.159668
128	1	8	0.39691543	-16.435771	1.8296963	28.980221
129	1	3	0.095734175	-14.830239	-0.082579394	27.613565
130	1	3	0.095734175	-15.726459	-0.2602011	29.164631
131	1	3	0.098540398	-13.355634	1.6579696	28.640756
132	1	3	0.098540398	-14.218092	1.4840566	30.211606
133	2	4	0.58321398	2.3741718	0.44869324	38.462144
134	2	5	-0.58138997	1.7045463	1.49046	38.693956
135	2	4	-0.36908195	3.7784454	0.52262508	38.019055
136	2	4	0.060970168	4.4007076	1.7022594	37.842515
137	2	6	0.20413065	3.8845606	2.6374396	38.02189
138	2	4	-0.36265561	5.8097332	1.7455717	37.397461
139	2	6	0.20582066	6.2674352	2.7142068	37.259962
140	2	4	0.21310213	6.4869005	0.60289567	37.1675
141	2	1	-0.41790957	7.8264762	0.57645149	36.741727
142	2	2	0.085055339	8.6969454	1.7050221	36.642043
143	2	2	0.085055339	9.1527374	2.169526	38.027784
144	2	1	-0.41790957	9.7214811	1.0874497	38.768416
145	2	4	0.21310207	10.985181	0.51312202	38.550981
146	2	4	-0.35890004	11.888672	1.0243561	37.691761
147	2	6	0.20582066	11.686114	1.9185826	37.122111
148	2	4	0.029987811	13.202114	0.3711658	37.511533
149	2	6	0.22060345	13.901974	0.80762188	36.811096
150	2	4	-0.28846705	13.514663	-0.73969612	38.204313
151	2	4	0.83055323	14.826861	-1.3988455	38.028438
152	2	5	-0.52838177	15.107107	-2.4384299	38.684584
153	2	7	-0.67410589	15.764522	-0.8803311	37.138404
154	2	8	0.40490466	16.664997	-1.3273176	37.014015
155	2	4	0.029987772	12.519674	-1.297378	39.15484
156	2	6	0.22060342	12.747059	-2.188807	39.726686
157	2	4	-0.35890004	11.330456	-0.70406611	39.316623
158	2	6	0.20582073	10.612701	-1.1198377	40.011774
159	2	3	0.083715367	8.277605	2.5508054	38.591024
160	2	3	0.083715367	9.8724498	3.0116559	37.944535
161	2	3	0.083715367	8.2073151	2.5338558	36.088749
162	2	3	0.083715367	9.5832891	1.4039413	36.047062
163	2	4	-0.36265558	5.7976699	-0.69185276	37.357531
164	2	6	0.20582066	6.3315301	-1.6151984	37.170932
165	2	4	0.060970116	4.5217186	-0.73199552	37.75949
166	2	6	0.20413062	4.0343408	-1.6907208	37.894722
167	4	1	-0.1358706	5.8977466	13.01443	68.819177
168	4	2	0.052143987	6.1005711	11.627958	68.800676
169	4	2	0.15719775	5.2283248	10.94972	69.856615
170	4	1	-0.50239647	5.4814946	9.5718206	69.883948
171	4	3	0.090285721	5.4650729	11.374069	70.854669
172	4	3	0.090285721	4.1509465	11.142057	69.646121
173	4	3	0.097846727	7.1697478	11.423114	69.022408
174	4	3	0.097846727	5.8734274	11.216206	67.790371
175	7	4	0.79209536	5.0026717	9.1652989	69.057847
176	7	5	-0.55410952	4.8024735	9.8929194	68.049409
177	7	4	-0.29930035	4.5691892	7.7560212	69.084193
178	7	4	0.026012902	3.945486	7.1911874	68.034382
179	7	6	0.22060342	3.741756	7.7576219	67.134238
180	7	4	-0.35890004	3.5240417	5.7761203	68.091721
181	7	6	0.20582066	3.022621	5.339183	67.236547
182	7	4	0.21310213	3.7516096	5.0367806	69.186459
183	7	1	-0.41790957	3.3299631	3.698227	69.187056
184	7	2	0.085055339	3.4056216	2.8125673	70.303334
185	7	2	0.085055339	2.3043365	3.1273735	71.318467
186	7	1	-0.41790957	2.3802768	2.2410166	72.434086
187	7	4	0.21310207	1.9586303	0.90246299	72.434683
188	7	4	-0.36265558	2.1868591	0.16389417	73.530405
189	7	6	0.20582066	2.6876189	0.60006059	74.384594
190	7	4	0.060970116	1.7646501	-1.2505336	73.58674
191	7	6	0.20413065	1.9683802	-1.816968	74.486885
192	7	4	-0.36908192	1.1407688	-1.8160804	72.537608
193	7	4	0.58321404	0.70868904	-3.2252685	72.562942
194	7	5	-0.58138985	0.90870915	-3.9536021	73.572058
195	7	4	0.060970153	0.88169858	-1.0026177	71.326726
196	7	6	0.20413062	0.37704182	-1.4432838	70.47563
197	7	4	-0.36265555	1.2640006	0.27987741	71.27454
198	7	6	0.20582073	1.0564414	0.84751114	70.379076
199	7	3	0.083715367	1.3007745	3.0783843	70.844084
200	7	3	0.083715367	2.4369362	4.162517	71.692698
201	7	3	0.083715367	4.4094654	2.8608593	70.777058
202	7	3	0.083715367	3.2733037	1.7767266	69.928444
203	7	4	-0.35890002	4.4464174	5.6600793	70.345923
204	7	6	0.20582066	4.6549194	5.0925193	71.241713
205	7	4	0.0260129	4.8285413	6.9418613	70.294415
206	7	6	0.22060345	5.3331981	7.3825274	71.145512
207	1	1	-0.13021739	5.0284828	13.179848	68.368108
208	1	2	0.024096626	5.3257568	13.748004	67.122072
209	1	2	0.096117932	5.7151576	15.216877	67.286921
210	1	7	-0.67734987	5.9463169	15.802779	66.034807
211	1	8	0.39691543	6.837139	15.483474	65.732434
212	1	3	0.095734175	4.8853919	15.760997	67.78571
213	1	3	0.095734175	6.6206953	15.304163	67.929205
214	1	3	0.098540398	4.4240214	13.679395	66.476831
215	1	3	0.098540398	6.1488917	13.184987	66.625265
216	2	4	0.58321398	0.20863436	-3.6494339	71.700911
217	2	5	-0.58138997	0.76756303	-3.5759313	70.574142
218	2	4	-0.36908195	-1.1047726	-4.2990657	71.86437
219	2	4	0.060970168	-1.7599442	-4.8370722	70.819759
220	2	6	0.20413065	-1.3386672	-4.8081225	69.822346
221	2	4	-0.36265561	-3.075779	-5.4822171	71.013844
222	2	6	0.20582066	-3.5706964	-5.8933157	70.146258
223	2	4	0.21310213	-3.6311146	-5.5413484	72.240731
224	2	1	-0.41790957	-4.878819	-6.1388922	72.490972
225	2	2	0.085055339	-5.6527255	-6.8884229	71.55257
226	2	2	0.085055339	-5.0425093	-8.2733099	71.321244
227	2	1	-0.41790957	-4.8464593	-8.9591477	72.559826
228	2	4	0.21310207	-5.8529393	-9.5402181	73.349397
229	2	4	-0.35890004	-7.1347709	-9.646993	72.947621
230	2	6	0.20582066	-7.4571675	-9.29085	71.98098
231	2	4	0.029987811	-8.1445855	-10.271769	73.827506
232	2	6	0.22060345	-9.1649749	-10.338107	73.473509
233	2	4	-0.28846705	-7.7977767	-10.744793	75.038959
234	2	4	0.83055323	-8.8032107	-11.370584	75.924826
235	2	5	-0.52838177	-8.4644826	-11.810523	77.056868
236	2	7	-0.67410589	-10.131429	-11.480106	75.519776
237	2	8	0.40490466	-10.824384	-11.908028	76.122123
238	2	4	0.029987772	-6.3835345	-10.631341	75.476636
239	2	6	0.22060342	-6.0774553	-11.00638	76.445666
240	2	4	-0.35890004	-5.4703494	-10.065055	74.677982
241	2	6	0.20582073	-4.442511	-9.9871487	75.007758
242	2	3	0.083715367	-4.0555953	-8.1597995	70.82973
243	2	3	0.083715367	-5.676059	-8.8737103	70.634052
244	2	3	0.083715367	-5.7547312	-6.3365551	70.594512
245	2	3	0.083715367	-6.6758946	-7.0035338	71.96504
246	2	4	-0.36265558	-2.9101846	-4.943977	73.38569
247	2	6	0.20582066	-3.3499997	-4.9822073	74.374373
248	2	4	0.060970116	-1.7192961	-4.3588203	73.210733
249	2	6	0.20413062	-1.205629	-3.9281178	74.062567
250	4	1	-0.1358706	2.0243742	4.1719498	120.87092
251	4	2	0.052143987	1.4888882	3.190136	120.02648
252	4	2	0.15719775	1.0888846	3.8041521	118.68528
253	4	1	-0.50239647	0.49143644	2.8364137	117.86676
254	4	3	0.090285721	0.35828924	4.621404	118.86011
255	4	3	0.090285721	1.9817728	4.2408907	118.18125
256	4	3	0.097846727	0.58945389	2.7561047	120.5132
257	4	3	0.097846727	2.225883	2.3689938	119.87023
258	7	4	0.79209536	1.2593425	2.2428273	117.4994
259	7	5	-0.55410952	2.322702	2.1390177	118.16645
260	7	4	-0.29930035	1.0898432	1.5412403	116.21344
261	7	4	0.026012902	2.0607813	0.76247739	115.7026
262	7	6	0.22060342	3.0007353	0.62725275	116.223
263	7	4	-0.35890004	1.8598736	0.072202796	114.41168
264	7	6	0.20582066	2.6535841	-0.55015721	114.01627
265	7	4	0.21310213	0.71430174	0.21289018	113.72997
266	7	1	-0.41790957	0.5769559	-0.46513679	112.50893
267	7	2	0.085055339	-0.53156763	-0.34048045	111.61908
268	7	2	0.085055339	-0.45638381	0.97679112	110.84347
269	7	1	-0.41790957	-1.5648297	1.1004585	109.9535
270	7	4	0.21310207	-1.7021756	0.42243154	108.73246
271	7	4	-0.36265558	-2.8486331	0.56397134	108.05145
272	7	6	0.20582066	-3.6414579	1.1854789	108.44616
273	7	4	0.060970116	-3.0481489	-0.12622424	106.76077
274	7	6	0.20413065	-3.9881029	0.0090003936	106.24037
275	7	4	-0.36908192	-2.0777947	-0.90492959	106.24912
276	7	4	0.58321404	-2.2474406	-1.6076996	104.96441
277	7	5	-0.58138985	-3.3113839	-1.5038325	104.29655
278	7	4	0.060970153	-0.80731134	-1.0602241	106.99533
279	7	6	0.20413062	-0.015565201	-1.6809769	106.59404
280	7	4	-0.36265555	-0.62528728	-0.43490281	108.16559
281	7	6	0.20582073	0.31414343	-0.56473695	108.68305
282	7	3	0.083715367	0.50383148	1.0580285	110.29033
283	7	3	0.083715367	-0.49307749	1.8241825	111.55743
284	7	3	0.083715367	-1.4917053	-0.42270676	112.1721
285	7	3	0.083715367	-0.49479634	-1.1888608	110.905
286	7	4	-0.35890002	-0.36200271	1.070167	114.29765
287	7	6	0.20582066	-1.3022416	1.1998646	113.78077
288	7	4	0.0260129	-0.18056249	1.6955459	115.4671
289	7	6	0.22060345	-0.97230863	2.3162986	115.86839
290	1	1	-0.13021739	2.9475103	4.3490404	120.55013
291	1	2	0.024096626	3.8148434	3.7820228	121.49353
292	1	2	0.096117932	3.8947033	4.6636752	122.73961
293	1	7	-0.67734987	4.8137734	4.1316741	123.65437
294	1	8	0.39691543	4.365161	3.3602393	124.09093
295	1	3	0.095734175	4.2331001	5.6801113	122.44684
296	1	3	0.095734175	2.8892471	4.7563793	123.2093
297	1	3	0.098540398	4.8256325	3.6977415	121.04035
298	1	3	0.098540398	3.4735382	2.7575734	121.76807
299	2	4	0.58321398	-1.4458666	-2.2269093	104.58084
300	2	5	-0.58138997	-0.97932235	-3.141907	105.31059
301	2	4	-0.36908195	-0.92311178	-1.9873373	103.22323
302	2	4	0.060970168	0.072270511	-2.7324675	102.70951
303	2	6	0.20413065	0.52106415	-3.5347811	103.28224
304	2	4	-0.36265561	0.57618826	-2.4692172	101.34493
305	2	6	0.20582066	1.382393	-3.0858227	100.9755
306	2	4	0.21310213	0.040642425	-1.4818199	100.59969
307	2	1	-0.41790957	0.47577222	-1.1803355	99.297303
308	2	2	0.085055339	1.4072683	-1.9422428	98.527149
309	2	2	0.085055339	0.76420861	-3.2308071	98.007664
310	2	1	-0.41790957	-0.44722763	-2.9498037	97.303141
311	2	4	0.21310207	-0.54337103	-2.3898899	96.018104
312	2	4	-0.35890004	0.52481042	-2.1823666	95.223221
313	2	6	0.20582066	1.5237985	-2.4452636	95.536398
314	2	4	0.029987811	0.35345355	-1.5905737	93.879834
315	2	6	0.22060345	1.2336684	-1.4355541	93.269834
316	2	4	-0.28846705	-0.8702084	-1.2542214	93.43132
317	2	4	0.83055323	-1.0489048	-0.66103965	92.088385
318	2	5	-0.52838177	-2.2010463	-0.3515291	91.680249
319	2	7	-0.67410589	0.050273964	-0.4380109	91.262377
320	2	8	0.40490466	-0.066040675	-0.032328502	90.341497
321	2	4	0.029987772	-2.0460719	-1.489582	94.306799
322	2	6	0.22060342	-3.0420956	-1.2303874	93.968995
323	2	4	-0.35890004	-1.888616	-2.0258358	95.523382
324	2	6	0.20582073	-2.7528747	-2.192241	96.153175
325	2	3	0.083715367	0.51972404	-3.8883481	98.865765
326	2	3	0.083715367	1.4732512	-3.7937316	97.363868
327	2	3	0.083715367	2.3192202	-2.166699	99.119434
328	2	3	0.083715367	1.7304359	-1.321681	97.666496
329	2	4	-0.36265558	-1.0498276	-0.66138439	101.17003
330	2	6	0.20582066	-1.4834423	0.13710405	100.58114
331	2	4	0.060970116	-1.5060062	-0.89837409	102.40573
332	2	6	0.20413062	-2.3070221	-0.28726913	102.80561
333	4	1	-0.1358706	-9.9417804	4.8309596	133.39696
334	4	2	0.052143987	-9.5360262	4.8024177	134.73798
335	4	2	0.15719775	-8.7531409	3.5223933	135.02859
336	4	1	-0.50239647	-8.4063685	3.4622874	136.3849
337	4	3	0.090285721	-9.3852867	2.6431764	134.78445
338	4	3	0.090285721	-7.8392732	3.4782548	134.39224
339	4	3	0.097846727	-10.440301	4.8328298	135.38267
340	4	3	0.097846727	-8.9144852	5.6966864	134.97424
341	7	4	0.79209536	-7.6128076	4.1176613	136.51802
342	7	5	-0.55410952	-7.4906428	5.0952165	135.73321
343	7	4	-0.29930035	-6.65247	3.8899378	137.61372
344	7	4	0.026012902	-5.6105921	4.7157757	137.82018
345	7	6	0.22060342	-5.4450173	5.5765607	137.18438
346	7	4	-0.35890004	-4.6660681	4.4605774	138.92746
347	7	6	0.20582066	-3.8328353	5.1365121	139.07744
348	7	4	0.21310213	-4.8287255	3.4053324	139.73793
349	7	1	-0.41790957	-3.9018388	3.2102721	140.77347
350	7	2	0.085055339	-3.8760164	2.0872769	141.65348
351	7	2	0.085055339	-3.297082	0.85970748	140.94614
352	7	1	-0.41790957	-3.2710511	-0.2626296	141.82687
353	7	4	0.21310207	-2.3441644	-0.45768992	142.86241
354	7	4	-0.36265558	-2.507966	-1.5136741	143.6725
355	7	6	0.20582066	-3.3400546	-2.1888697	143.52289
356	7	4	0.060970116	-1.5627909	-1.7680428	144.77883
357	7	6	0.20413065	-1.7283657	-2.6288278	145.41464
358	7	4	-0.36908192	-0.52062839	-0.94295344	144.98589
359	7	4	0.58321404	0.43869735	-1.1693514	146.08206
360	7	5	-0.58138985	0.31681711	-2.1476551	146.86747
361	7	4	0.060970153	-0.33248078	0.22216447	144.09025
362	7	6	0.20413062	0.50412257	0.8931121	144.24242
363	7	4	-0.36265555	-1.1887598	0.45374906	143.08685
364	7	6	0.20582073	-1.0215018	1.3091601	142.44853
365	7	3	0.083715367	-2.2814435	1.072194	140.54876
366	7	3	0.083715367	-3.9379125	0.60106178	140.07919
367	7	3	0.083715367	-4.8914465	1.8754485	142.05157
368	7	3	0.083715367	-3.2349775	2.3465807	142.52115
369	7	4	-0.35890002	-5.9844147	2.4946419	139.51289
370	7	6	0.20582066	-6.1526085	1.6391498	140.15155
371	7	4	0.0260129	-6.8404092	2.725478	138.51009
372	7	6	0.22060345	-7.6770125	2.0545304	138.35792
373	1	1	-0.13021739	-9.1387865	5.0682153	132.86277
374	1	2	0.024096626	-9.325875	6.3852687	132.42215
375	1	2	0.096117932	-10.320081	6.4213928	131.2617
376	1	7	-0.67734987	-10.455268	7.7295285	130.77692
377	1	8	0.39691543	-11.025571	8.2160194	131.42887
378	1	3	0.095734175	-9.9457816	5.7751217	130.43975
379	1	3	0.095734175	-11.307757	6.0253074	131.58997
380	1	3	0.098540398	-8.3485795	6.7864252	132.07844
381	1	3	0.098540398	-9.6869865	7.0267121	133.25851
382	2	4	0.58321398	1.2671122	-0.48556965	146.22076
383	2	5	-0.58138997	1.0280222	0.74536954	146.34339
384	2	4	-0.36908195	2.6456008	-1.0068524	146.26333
385	2	4	0.060970168	3.7025012	-0.1918225	146.43245
386	2	6	0.20413065	3.5701627	0.87750202	146.54279
387	2	4	-0.36265561	5.0736252	-0.7430225	146.47117
388	2	6	0.20582066	5.8934792	-0.051718076	146.59997
389	2	4	0.21310213	5.2786855	-2.0689875	146.34112
390	2	1	-0.41790957	6.5564324	-2.6547371	146.36768
391	2	2	0.085055339	7.7789657	-1.9858508	146.68284
392	2	2	0.085055339	7.8808584	-1.7095939	148.1852
393	2	1	-0.41790957	7.6876654	-2.9079913	148.9398
394	2	4	0.21310207	8.6135789	-3.9560737	149.07498
395	2	4	-0.35890004	9.8785191	-3.885275	148.61582
396	2	6	0.20582066	10.252094	-3.003398	148.11791
397	2	4	0.029987811	10.803126	-5.0245798	148.79289
398	2	6	0.22060345	11.81078	-4.9338697	148.40907
399	2	4	-0.28846705	10.396107	-6.145513	149.41698
400	2	4	0.83055323	11.315821	-7.2896147	149.59706
401	2	5	-0.52838177	10.921806	-8.3333763	150.18453
402	2	7	-0.67410589	12.62327	-7.2270782	149.12073
403	2	8	0.40490466	13.257776	-8.0074347	149.24145
404	2	4	0.029987772	9.0037096	-6.2185041	149.92729
405	2	6	0.22060342	8.6516879	-7.1079504	150.43555
406	2	4	-0.35890004	8.1677751	-5.1852617	149.76587
407	2	6	0.20582073	7.1548059	-5.2499287	150.14135
408	2	3	0.083715367	7.0930113	-0.98693288	148.47765
409	2	3	0.083715367	8.8560221	-1.2395134	148.43456
410	2	3	0.083715367	7.8760962	-1.0453725	146.10069
411	2	3	0.083715367	8.6188258	-2.6409147	146.37335
412	2	4	-0.36265558	4.1145856	-2.9610975	146.14998
413	2	6	0.20582066	4.2691714	-4.0271064	146.03988
414	2	4	0.060970116	2.8729534	-2.4628253	146.11381
415	2	6	0.20413062	2.0324474	-3.1329898	145.97449
416	4	1	-0.1358706	2.1580461	38.719266	14.03934
417	4	2	0.052143987	1.6027903	37.817261	13.121809
418	4	2	0.15719775	1.2061333	38.543666	11.836965
419	4	1	-0.50239647	0.58927582	37.654562	10.94678
420	4	3	0.090285721	0.48958263	39.35542	12.081597
421	4	3	0.090285721	2.1034321	39.005702	11.364288
422	4	3	0.097846727	0.69890513	37.359423	13.577486
423	4	3	0.097846727	2.3257678	37.000031	12.895335
424	7	4	0.79209536	1.3457749	37.080674	10.528049
425	7	5	-0.55410952	2.4105772	36.906826	11.177997
426	7	4	-0.29930035	1.1587885	36.487881	9.1907767
427	7	4	0.026012902	2.1146252	35.737861	8.6128571
428	7	6	0.22060342	3.0548207	35.546461	9.1148655
429	7	4	-0.35890004	1.8963918	35.157231	7.2717527
430	7	6	0.20582066	2.678094	34.556529	6.822578
431	7	4	0.21310213	0.74990776	35.370296	6.6106635
432	7	1	-0.41790957	0.59576437	34.795242	5.3398112
433	7	2	0.085055339	-0.51494876	35.008551	4.4697475
434	7	2	0.085055339	-0.42246189	36.382789	3.8024077
435	7	1	-0.41790957	-1.5331139	36.59512	2.932138
436	7	4	0.21310207	-1.6872573	36.020067	1.6612857
437	7	4	-0.36265558	-2.8346098	36.233939	1.0009676
438	7	6	0.20582066	-3.6154435	36.833834	1.4493712
439	7	4	0.060970116	-3.0514491	35.653347	-0.33990296
440	7	6	0.20413065	-3.9916445	35.844747	-0.84191133
441	7	4	-0.36908192	-2.0961991	34.903458	-0.91862145
442	7	4	0.58321404	-2.283345	34.309387	-2.254736
443	7	5	-0.58138985	-3.3487341	34.483367	-2.9054827
444	7	4	0.060970153	-0.8247404	34.668686	-0.19519378
445	7	6	0.20413062	-0.045005241	34.070091	-0.65008612
446	7	4	-0.36265555	-0.62701692	35.194614	1.0205271
447	7	6	0.20582073	0.31272728	35.008831	1.5200386
448	7	3	0.083715367	0.5362212	36.49344	3.2517181
449	7	3	0.083715367	-0.44209504	37.170266	4.5825668
450	7	3	0.083715367	-1.4735707	34.896923	5.0202311
451	7	3	0.083715367	-0.49525447	34.220097	3.6893824
452	7	4	-0.35890002	-0.30974578	36.195617	7.252221
453	7	6	0.20582066	-1.2502974	36.38123	6.7532745
454	7	4	0.0260129	-0.1126091	36.721677	8.467143
455	7	6	0.22060345	-0.89234426	37.320272	8.9220353
456	1	1	-0.13021739	3.082324	38.907272	13.728197
457	1	2	0.024096626	3.9450569	38.252533	14.617459
458	1	2	0.096117932	4.0451059	39.029397	15.93004
459	1	7	-0.67734987	4.9599895	38.411062	16.793263
460	1	8	0.39691543	4.5012145	37.61399	17.168964
461	1	3	0.095734175	4.3983063	40.060752	15.718088
462	1	3	0.095734175	3.0435669	39.099538	16.411855
463	1	3	0.098540398	4.9521434	38.189371	14.152747
464	1	3	0.098540398	3.5887311	37.214708	14.810613
465	2	4	0.58321398	-1.4936722	33.710747	-2.6919015
466	2	5	-0.58138997	-1.0382878	32.732688	-2.0411796
467	2	4	-0.36908195	-0.97377731	34.050932	-4.0289734
468	2	4	0.060970168	0.0070248506	33.334283	-4.607208
469	2	6	0.20413065	0.44569985	32.481475	-4.1037921
470	2	4	-0.36265561	0.50843057	33.698922	-5.9491965
471	2	6	0.20582066	1.3028442	33.101664	-6.3720926
472	2	4	0.21310213	-0.01486178	34.75146	-6.6091013
473	2	1	-0.41790957	0.4186814	35.150256	-7.8855993
474	2	2	0.085055339	1.3340865	34.438576	-8.7203871
475	2	2	0.085055339	0.66794444	33.206308	-9.3380914
476	2	1	-0.41790957	-0.54225869	33.562081	-10.010199
477	2	4	0.21310207	-0.63569051	34.225303	-11.245299
478	2	4	-0.35890004	0.43178678	34.479641	-12.027426
479	2	6	0.20582066	1.4279522	34.176805	-11.742616
480	2	4	0.029987811	0.26337793	35.180515	-13.317652
481	2	6	0.22060345	1.1429761	35.370534	-13.918575
482	2	4	-0.28846705	-0.95691366	35.570979	-13.73005
483	2	4	0.83055323	-1.1326365	36.273315	-15.01967
484	2	5	-0.52838177	-2.2816506	36.632655	-15.394427
485	2	7	-0.67410589	-0.034069835	36.545136	-15.831759
486	2	8	0.40490466	-0.14836357	37.025574	-16.716204
487	2	4	0.029987772	-2.1321105	35.28407	-12.869174
488	2	6	0.22060342	-3.1254914	35.585158	-13.178846
489	2	4	-0.35890004	-1.9773299	34.648997	-11.700773
490	2	6	0.20582073	-2.8410599	34.445786	-11.081137
491	2	3	0.083715367	0.41714942	32.485547	-8.5343031
492	2	3	0.083715367	1.3647306	32.686204	-10.029525
493	2	3	0.083715367	2.2452054	34.152881	-8.1537492
494	2	3	0.083715367	1.6629488	35.121463	-9.5301843
495	2	4	-0.36265558	-1.089256	35.540071	-5.9677793
496	2	6	0.20582066	-1.5128943	36.390134	-6.4876986
497	2	4	0.060970116	-1.5431374	35.211261	-4.7524153
498	2	6	0.20413062	-2.3323024	35.800499	-4.2996505
499	4	1	-0.1358706	-2.7459009	49.575158	39.003691
500	4	2	0.052143987	-1.7589966	48.640551	38.662641
501	4	2	0.15719775	-2.165169	47.244162	39.132694
502	4	1	-0.50239647	-1.1481197	46.322059	38.852009
503	4	3	0.090285721	-2.3353344	47.262134	40.229487
504	4	3	0.090285721	-3.1159966	46.934685	38.64056
505	4	3	0.097846727	-0.80848955	48.931727	39.158643
506	4	3	0.097846727	-1.5873367	48.642082	37.561559
507	7	4	0.79209536	-1.2000328	46.122908	37.834847
508	7	5	-0.55410952	-1.6835458	46.995732	37.066177
509	7	4	-0.29930035	-0.71185164	44.831366	37.316906
510	7	4	0.026012902	-0.76132418	44.534277	36.005633
511	7	6	0.22060342	-1.1635687	45.238174	35.28776
512	7	4	-0.35890004	-0.26342899	43.231364	35.517947
513	7	6	0.20582066	-0.31218794	43.010169	34.458535
514	7	4	0.21310213	0.23961462	42.327096	36.370066
515	7	1	-0.41790957	0.69800635	41.105675	35.852841
516	7	2	0.085055339	1.1644646	40.005475	36.632694
517	7	2	0.085055339	-0.009574334	39.259061	37.2706
518	7	1	-0.41790957	0.45759335	38.158756	38.049757
519	7	4	0.21310207	0.91598508	36.937336	37.532532
520	7	4	-0.36265558	1.4189925	36.033566	38.385973
521	7	6	0.20582066	1.4677876	36.254262	39.444063
522	7	4	0.060970116	1.9160059	34.731173	37.897311
523	7	6	0.20413065	2.3182504	34.027276	38.615184
524	7	4	-0.36908192	1.866742	34.43317	36.586389
525	7	4	0.58321404	2.3560971	33.14283	36.068026
526	7	5	-0.58138985	2.8398188	32.269093	36.837046
527	7	4	0.060970153	1.3070225	35.426413	35.640209
528	7	6	0.20413062	1.2574594	35.199056	34.582342
529	7	4	-0.36265555	0.85606869	36.607525	36.082122
530	7	6	0.20582073	0.4495566	37.308421	35.367531
531	7	3	0.083715367	-0.72995568	38.916319	36.497196
532	7	3	0.083715367	-0.55853752	39.947968	37.943802
533	7	3	0.083715367	1.8855554	40.348113	37.405401
534	7	3	0.083715367	1.7141372	39.316463	35.958795
535	7	4	-0.35890002	0.2993224	42.657819	37.820126
536	7	6	0.20582066	0.70650773	41.957317	38.535342
537	7	4	0.0260129	-0.15142282	43.838018	38.262388
538	7	6	0.22060345	-0.1018597	44.065375	39.320255
539	1	1	-0.13021739	-3.4889764	49.451842	38.356329
540	1	2	0.024096626	-3.4556005	50.555596	37.493547
541	1	2	0.096117932	-4.0348225	51.78914	38.185838
542	1	7	-0.67734987	-4.0640571	52.875494	37.300692
543	1	8	0.39691543	-3.1316263	53.211649	37.233446
544	1	3	0.095734175	-5.0731001	51.570285	38.513634
545	1	3	0.095734175	-3.4333578	52.040467	39.088734
546	1	3	0.098540398	-4.064804	50.321506	36.594524
547	1	3	0.098540398	-2.4116038	50.756033	37.160001
548	2	4	0.58321398	2.30158	32.93484	35.006501
549	2	5	-0.58138997	2.824518	33.747485	34.198072