Title

10125 atoms
10000 bonds
18625 angles
31875 dihedrals
1500 impropers

8 atom types
11 bond types
5 angle types
27 dihedral types
2 improper types
-6.776500225 93.22349977 xlo xhi
-6.97179985 93.02820015 ylo yhi
-6.950600147 93.04939985 zlo zhi
0.0 0.0 0.0 xy xz yz

Masses

1	15.99943
2	12.01078
3	1.007947
4	1.007947
5	12.01078
6	15.99943
7	15.99943
8	1.007947


Pair Coeffs

1	0.16846514	3.0251065
2	0.10884061	3.3795318
3	0.016409246	2.5832257
4	0.015779483	2.6445434
5	0.086879315	3.4806469
6	0.2102061	3.0398122
7	0.20947353	2.99716
8	1.2326e-05	0.53453923

Bond Coeffs

1 harmonic	366.7408841747	1.425895053732
2 harmonic	300.03137914615	1.451203938761
3 harmonic	264.62148576755	1.52190126495
4 harmonic	370.04670688625	1.093899492634
5 harmonic	301.15400723785	1.345741232799
6 harmonic	582.698766451	1.225198386222
7 harmonic	329.44145381095	1.523435958334
8 harmonic	279.1350963404	1.454628925034
9 harmonic	329.96998057905	1.427343958716
10 harmonic	543.5267831885	0.9716763312559
11 harmonic	385.7604595587	1.369745182308


Angle Coeffs

1 harmonic	53.20531626545	116.5475862634
2 harmonic	65.09061609600001	110.3538806181
3 harmonic	201.41175231035	127.4691416191
4 harmonic	57.8982893754	126.8062420451
5 harmonic	48.776492647595	115.6030999533


Dihedral Coeffs

1 fourier 1	0.1155372516788	3	0
2 fourier 1	0.1115525666802	3	0
3 fourier 1	0.3432490222662	1	0
4 fourier 1	0.0473758381877	3	0
5 fourier 1	0.457973137376	1	0
6 fourier 1	0.09223874044423	3	0
7 fourier 1	0.3159935921949	2	180
8 fourier 1	0.3247796806857	1	180
9 fourier 1	0.1040663847541	3	0
10 fourier 1	0.1918272375143	3	0
11 fourier 1	0.9202179876409	1	180
12 fourier 1	1.163809172478	2	180
13 fourier 1	0.1679186987369	1	180
14 fourier 1	2.779853741805	2	180
15 fourier 1	0.02664938770063	3	0
16 fourier 1	0.1911926717192	3	0
17 fourier 1	-0.3703352413219	2	0
18 fourier 1	0.4541676554336	1	0
19 fourier 1	0.1489710476446	2	0
20 fourier 1	0.02960027280666	3	180
21 fourier 1	0.9974165607242	2	180
22 fourier 1	0.3445382149273	3	0
23 fourier 1	0.1364556373303	1	0
24 fourier 1	0.3026390167484	3	0
25 fourier 1	2.687457892086	2	180
26 fourier 1	2.772607909663	2	180
27 fourier 1	0.09692684957115	1	0


Improper Coeffs

1 3.5	-1	2
2 0.3666666666666667	-1	2


Atoms

1	4	1	-0.17965899	0.70999998	4.7698998	4.7765999
2	4	2	0.031771999	0.3321	3.9289999	3.7205999
3	4	2	-0.146448	-1.1625	3.6010001	3.8162999
4	4	2	-0.13906901	-1.6138999	2.5416999	2.7967
5	4	2	0.134051	-1.6203001	3.0497	1.3507
6	4	1	-0.49490201	-0.31990001	3.0606999	0.833
7	4	3	0.078432001	-2.2488	2.3657	0.73689997
8	4	3	0.078432001	-2.0650001	4.0693998	1.3009
9	4	4	0.087076999	-2.6522999	2.2419	3.0587001
10	4	4	0.087076999	-0.97979999	1.6319	2.8787999
11	4	4	0.088049002	-1.3737	3.2079999	4.8346
12	4	4	0.088049002	-1.7582	4.5321999	3.6896999
13	4	3	0.078036003	0.93839997	2.9942	3.7372
14	4	3	0.078036003	0.53829998	4.4604998	2.7692001
15	5	5	0.76130998	-0.398	3.4303999	-0.1346
16	5	6	-0.55698401	-1.4143	4.0131998	-0.47850001
17	5	2	-0.208858	0.7414	3.2572999	-1.0961
18	5	2	-0.115744	0.3592	2.3838	-2.3018999
19	5	2	-0.136416	-0.057300001	0.94840002	-1.9313
20	5	2	-0.14165699	1.1016999	0.1286	-1.3384
21	5	2	-0.139073	0.77569997	-1.3696001	-1.2366
22	5	2	-0.097411998	-0.28940001	-1.6701	-0.16769999
23	5	2	-0.25788599	-0.53820002	-3.1770999	-0.0104
24	5	5	0.51667202	0.64029998	-3.8835001	0.5934
25	5	6	-0.690238	0.99610001	-3.6331	1.7335
26	5	4	0.113196	-1.4209	-3.3341	0.6469
27	5	4	0.113196	-0.77100003	-3.6248	-0.99989998
28	5	4	0.076421	-1.2502	-1.1987	-0.4648
29	5	4	0.076421	0.0153	-1.2364	0.80909997
30	5	4	0.078114003	0.43799999	-1.7503999	-2.2258
31	5	4	0.078114003	1.7149	-1.9035	-0.9756
32	5	4	0.079986997	1.3665	0.514	-0.33000001
33	5	4	0.079986997	1.9962	0.2412	-1.9895999
34	5	4	0.078114003	-0.41620001	0.4497	-2.8591001
35	5	4	0.078114003	-0.90850002	0.98040003	-1.2197
36	5	4	0.085202001	-0.48109999	2.8680999	-2.8462
37	5	4	0.085202001	1.2201999	2.3457999	-3.0055001
38	5	4	0.116389	1.6128	2.8192999	-0.56529999
39	5	4	0.116389	1.0522	4.2593999	-1.4621
40	1	1	-0.17965899	0.79570001	4.1957002	5.5812998
41	1	2	0.031883001	0.77039999	2.8676	5.1329002
42	1	2	-0.140715	2.1333001	2.4844999	4.5446
43	1	2	-0.16776399	2.1315	1.1016001	3.8694
44	1	2	0.085180998	2.0158	-0.061900001	4.8621998
45	1	7	-0.68504399	0.6893	-0.21340001	5.2824998
46	1	8	0.37734699	0.68919998	-0.96450001	5.9302001
47	1	3	0.068282001	2.3429999	-0.99559999	4.3529
48	1	3	0.068282001	2.6822	0.1102	5.7371001
49	1	4	0.090512	3.0927	0.9914	3.3234
50	1	4	0.090512	1.3167	1.0416	3.1159
51	1	4	0.088216998	2.4109001	3.2388999	3.7756
52	1	4	0.088216998	2.9082999	2.5186999	5.3406
53	1	3	0.078036003	-0.0339	2.7321	4.3751998
54	1	3	0.078036003	0.5424	2.2172	6.0022998
55	2	5	0.51667202	1.1758	-4.6329999	0.0167
56	2	6	-0.690238	2.1744001	-5.1490998	0.49309999
57	2	2	-0.25788599	0.7026	-5.0379	-1.3477
58	2	2	-0.097411998	-0.56019998	-4.2680998	-1.7491
59	2	2	-0.139073	-1.0289	-4.6750002	-3.1542001
60	2	2	-0.14165699	-2.3934	-4.0696998	-3.5309999
61	2	2	-0.136416	-2.4349	-2.5309	-3.569
62	2	2	-0.11321	-1.4766999	-1.9308	-4.6080999
63	2	2	-0.218954	-1.6854	-0.4197	-4.7379999
64	2	5	0.823403	-0.73070002	0.15700001	-5.7349
65	2	6	-0.558541	-1.0548	0.2334	-6.9506001
66	2	7	-0.66591603	0.53359997	0.56940001	-5.3255
67	2	8	0.39353099	1.1982	0.94669998	-5.9903002
68	2	4	0.11741	-2.7277999	-0.20649999	-5.0606999
69	2	4	0.11741	-1.5202	0.069799997	-3.7535
70	2	4	0.085202001	-0.42629999	-2.1194999	-4.2979002
71	2	4	0.085202001	-1.6505001	-2.4121001	-5.5956998
72	2	4	0.078114003	-3.4749999	-2.23	-3.8246
73	2	4	0.078114003	-2.2156	-2.1150999	-2.5627999
74	2	4	0.079986997	-2.6898	-4.4604001	-4.5288
75	2	4	0.079986997	-3.1571	-4.4260001	-2.8053
76	2	4	0.078114003	-0.2626	-4.3951001	-3.9072001
77	2	4	0.078114003	-1.1317	-5.7811999	-3.1919
78	2	4	0.076421	-1.3681	-4.4776001	-1.0140001
79	2	4	0.076421	-0.33399999	-3.1803999	-1.7333
80	2	4	0.113196	1.5121	-4.8351998	-2.0827999
81	2	4	0.113196	0.49000001	-6.1286001	-1.3442
82	4	1	-0.17965899	4.1336999	-4.7708998	11.5737
83	4	2	0.031771999	3.1019001	-3.9999001	12.1266
84	4	2	-0.146448	1.7635	-4.3632998	11.4729
85	4	2	-0.13906901	0.61269999	-3.4363	11.8994
86	4	2	0.134051	0.1763	-3.6347001	13.3551
87	4	1	-0.49490201	1.0718	-2.9986	14.2227
88	4	3	0.078432001	-0.83499998	-3.1877	13.4867
89	4	3	0.078432001	0.1108	-4.7202001	13.5948
90	4	4	0.087076999	-0.2599	-3.6594	11.2471
91	4	4	0.087076999	0.88849998	-2.3731	11.7251
92	4	4	0.088049002	1.8758	-4.2842002	10.3697
93	4	4	0.088049002	1.5089	-5.4211001	11.7058
94	4	3	0.078036003	3.3188	-2.915	11.9941
95	4	3	0.078036003	3.0581	-4.2157001	13.2136
96	5	5	0.76130998	0.72680002	-3.1891999	15.1837
97	5	6	-0.55698401	-0.0889	-4.0791001	15.3673
98	5	2	-0.208858	1.242	-2.3803	16.3381
99	5	2	-0.115744	0.134	-1.5556999	17.012899
100	5	2	-0.136416	-0.53619999	-0.52530003	16.0853
101	5	2	-0.14165699	0.4262	0.59170002	15.6461
102	5	2	-0.139073	-0.29840001	1.7639	14.966
103	5	2	-0.097411998	-0.86089998	1.3878	13.5843
104	5	2	-0.25788599	-1.4998	2.5908	12.8757
105	5	5	0.51667202	-0.47940001	3.6136999	12.4696
106	5	6	-0.690238	0.37560001	3.3422	11.6422
107	5	4	0.113196	-2.0302999	2.2377999	11.9647
108	5	4	0.113196	-2.2525001	3.0632	13.5421
109	5	4	0.076421	-1.6465	0.61220002	13.7069
110	5	4	0.076421	-0.057	0.96079999	12.9468
111	5	4	0.078114003	-1.1183	2.1321001	15.6217
112	5	4	0.078114003	0.43340001	2.5920999	14.8487
113	5	4	0.079986997	1.1936001	0.185	14.9523
114	5	4	0.079986997	0.95469999	0.98820001	16.5406
115	5	4	0.078114003	-1.3872	-0.072300002	16.6411
116	5	4	0.078114003	-0.95569998	-1.0422	15.1973
117	5	4	0.085202001	-0.64700001	-2.2478001	17.3978
118	5	4	0.085202001	0.56309998	-1.0308	17.895
119	5	4	0.116389	2.059	-1.7136	15.99
120	5	4	0.116389	1.6826	-3.0720999	17.087799
121	1	1	-0.17965899	4.3512001	-4.3669	10.6939
122	1	2	0.031883001	3.7107	-3.1204	10.6539
123	1	2	-0.140715	4.5015001	-2.0955999	11.4753
124	1	2	-0.16776399	3.7693999	-0.75040001	11.6273
125	1	2	0.085180998	3.7007999	0.057399999	10.3252
126	1	7	-0.68504399	2.697	-0.4481	9.4909
127	1	8	0.37734699	2.7188001	0.1041	8.6673002
128	1	3	0.068282001	3.4637001	1.115	10.5769
129	1	3	0.068282001	4.6848001	0.034699999	9.8051996
130	1	4	0.090512	4.3252001	-0.1464	12.376
131	1	4	0.090512	2.7460999	-0.91189998	12.0297
132	1	4	0.088216998	4.6665001	-2.5107999	12.494
133	1	4	0.088216998	5.5001998	-1.9357001	11.0143
134	1	3	0.078036003	2.6698	-3.2096	11.0385
135	1	3	0.078036003	3.6633	-2.7939	9.5945997
136	2	5	0.51667202	-0.50700003	4.6086001	12.9059
137	2	6	-0.690238	0.37	5.4085002	12.6202
138	2	2	-0.25788599	-1.6048	5.0065999	13.8471
139	2	2	-0.097411998	-2.5927	3.8559	14.067
140	2	2	-0.139073	-3.7040999	4.2646999	15.0453
141	2	2	-0.14165699	-4.822	3.2121999	15.1582
142	2	2	-0.136416	-4.3702998	1.8361	15.6809
143	2	2	-0.11321	-3.7886	1.8956	17.1008
144	2	2	-0.218954	-3.5258999	0.48879999	17.645
145	2	5	0.823403	-2.9374001	0.56019998	19.0184
146	2	6	-0.558541	-3.6898	0.5686	20.029699
147	2	7	-0.66591603	-1.5587	0.6613	19.177299
148	2	8	0.39353099	-1.1447999	0.72729999	20.0994
149	2	4	0.11741	-4.4756999	-0.087899998	17.6812
150	2	4	0.11741	-2.8192	-0.048500001	16.9758
151	2	4	0.085202001	-2.8290999	2.4563	17.0863
152	2	4	0.085202001	-4.5012002	2.4224999	17.7728
153	2	4	0.078114003	-5.2618999	1.1706001	15.6864
154	2	4	0.078114003	-3.6327	1.3832999	14.985
155	2	4	0.079986997	-5.6135998	3.6083	15.831
156	2	4	0.079986997	-5.2881999	3.0746	14.1578
157	2	4	0.078114003	-3.2720001	4.4759998	16.0459
158	2	4	0.078114003	-4.1684999	5.2089	14.6866
159	2	4	0.076421	-3.0446	3.5676	13.0925
160	2	4	0.076421	-2.0385001	2.9846001	14.4772
161	2	4	0.113196	-1.1538	5.3016	14.8199
162	2	4	0.113196	-2.1405001	5.8829002	13.4228
163	4	1	-0.17965899	-1.1487	-0.3646	21.456499
164	4	2	0.031771999	-0.949	-0.5679	22.828899
165	4	2	-0.146448	-2.0446	-1.4809	23.3918
166	4	2	-0.13906901	-1.9966	-1.6066999	24.923901
167	4	2	0.134051	-0.79519999	-2.4107001	25.4331
168	4	1	-0.49490201	0.361	-1.6221	25.415501
169	4	3	0.078432001	-0.99980003	-2.7302001	26.48
170	4	3	0.078432001	-0.64999998	-3.3239999	24.812799
171	4	4	0.087076999	-2.9217999	-2.1312001	25.2488
172	4	4	0.087076999	-2.0088	-0.59930003	25.3946
173	4	4	0.088049002	-3.0346	-1.0581	23.113899
174	4	4	0.088049002	-1.9699	-2.4870999	22.9228
175	4	3	0.078036003	-0.94139999	0.4086	23.365499
176	4	3	0.078036003	0.042399999	-1.0465	22.963499
177	5	5	0.76130998	1.1313	-2.2321	25.752501
178	5	6	-0.55698401	0.97390002	-3.4425001	25.7834
179	5	2	-0.208858	2.4331	-1.6235	26.1854
180	5	2	-0.115744	2.7232001	-1.8660001	27.675501
181	5	2	-0.136416	1.6755	-1.2589	28.626699
182	5	2	-0.14165699	1.6562999	0.2789	28.584299
183	5	2	-0.139073	0.82880002	0.89219999	29.7248
184	5	2	-0.097411998	-0.67979997	0.6383	29.5616
185	5	2	-0.25788599	-1.5026	1.3346	30.6551
186	5	5	0.51667202	-1.4755	2.8287001	30.5163
187	5	6	-0.690238	-1.9676	3.3699	29.5394
188	5	4	0.113196	-2.5581	0.9914	30.591299
189	5	4	0.113196	-1.1153001	1.0488	31.656099
190	5	4	0.076421	-0.8779	-0.4522	29.633101
191	5	4	0.076421	-1.0197999	0.98150003	28.560699
192	5	4	0.078114003	1.1773	0.4905	30.702
193	5	4	0.078114003	1.016	1.9877	29.7276
194	5	4	0.079986997	1.2517999	0.63	27.610201
195	5	4	0.079986997	2.6979001	0.65759999	28.6747
196	5	4	0.078114003	1.9241	-1.5896	29.6598
197	5	4	0.078114003	0.67150003	-1.6625	28.380199
198	5	4	0.085202001	2.7765	-2.9617	27.858801
199	5	4	0.085202001	3.7253001	-1.4489	27.9191
200	5	4	0.116389	2.4252999	-0.53460002	25.967899
201	5	4	0.116389	3.2520001	-2.0709	25.582199
202	1	1	-0.17965899	-1.876	0.3048	21.370501
203	1	2	0.031883001	-2.0710001	0.85360003	22.6457
204	1	2	-0.140715	-0.97409999	1.8803999	22.950399
205	1	2	-0.16776399	-1.0161	2.3954	24.4
206	1	2	0.085180998	-2.2172	3.3041	24.690201
207	1	7	-0.68504399	-3.3731999	2.5378001	24.8794
208	1	8	0.37734699	-4.1080999	3.1831999	25.0438
209	1	3	0.068282001	-2.0088	3.8803999	25.618999
210	1	3	0.068282001	-2.3636999	4.0272002	23.8566
211	1	4	0.090512	-0.090700001	2.9844999	24.5758
212	1	4	0.090512	-1.0029	1.5425	25.1126
213	1	4	0.088216998	0.0154	1.3989	22.7883
214	1	4	0.088216998	-1.0509	2.7327001	22.2411
215	1	3	0.078036003	-2.0768001	0.048599999	23.4147
216	1	3	0.078036003	-3.0624001	1.3516001	22.656
217	2	5	0.51667202	-1.0249	3.4367001	31.296301
218	2	6	-0.690238	-0.9465	4.6448002	31.138599
219	2	2	-0.25788599	-0.50389999	2.8111	32.555901
220	2	2	-0.097411998	-0.70069999	1.2915	32.5443
221	2	2	-0.139073	-0.14929999	0.65570003	33.8293
222	2	2	-0.14165699	-0.4862	-0.8416	33.951199
223	2	2	-0.136416	0.088500001	-1.7314	32.833698
224	2	2	-0.11321	1.6231	-1.7119	32.781502
225	2	2	-0.218954	2.1508	-2.7458	31.7831
226	2	5	0.823403	3.6447999	-2.7009001	31.7234
227	2	6	-0.558541	4.3309999	-3.4247999	32.494099
228	2	7	-0.66591603	4.2774	-1.8263	30.8452
229	2	8	0.39353099	5.2880001	-1.7713	30.803699
230	2	4	0.11741	1.8250999	-3.7653	32.084099
231	2	4	0.11741	1.7416	-2.5357001	30.771
232	2	4	0.085202001	1.9717	-0.70429999	32.4678
233	2	4	0.085202001	2.0323999	-1.9342	33.7915
234	2	4	0.078114003	-0.25029999	-2.7732999	33.027302
235	2	4	0.078114003	-0.33050001	-1.4323	31.849701
236	2	4	0.079986997	-0.1104	-1.2097	34.930599
237	2	4	0.079986997	-1.5919	-0.96100003	33.9645
238	2	4	0.078114003	0.94870001	0.80919999	33.889301
239	2	4	0.078114003	-0.59719998	1.1720001	34.705898
240	2	4	0.076421	-1.7851	1.0615	32.453098
241	2	4	0.076421	-0.16949999	0.87059999	31.6639
242	2	4	0.113196	0.57880002	3.046	32.651798
243	2	4	0.113196	-1.0417	3.2509	33.423401
244	4	1	-0.17965899	-1.8851	-5.5709	38.815601
245	4	2	0.031771999	-1.6708	-4.2884002	39.339298
246	4	2	-0.146448	-1.4372	-3.2866001	38.2024
247	4	2	-0.13906901	-1.0186	-1.8938	38.702499
248	4	2	0.134051	-2.1491001	-1.131	39.4021
249	4	1	-0.49490201	-2.3167	-1.601	40.709801
250	4	3	0.078432001	-1.8803	-0.051100001	39.436901
251	4	3	0.078432001	-3.0983	-1.235	38.829102
252	4	4	0.087076999	-0.70069999	-1.299	37.818199
253	4	4	0.087076999	-0.1381	-1.9741	39.3769
254	4	4	0.088049002	-0.62449998	-3.6747999	37.550598
255	4	4	0.088049002	-2.355	-3.2091	37.578201
256	4	3	0.078036003	-0.80110002	-4.2975998	40.0359
257	4	3	0.078036003	-2.5739	-3.9979999	39.914001
258	5	5	0.76130998	-3.1043	-1.0567	41.112999
259	5	6	-0.55698401	-3.8467	-0.43020001	40.373501
260	5	2	-0.208858	-3.3306999	-1.0553	42.596699
261	5	2	-0.115744	-3.1587999	0.3432	43.211399
262	5	2	-0.136416	-1.7503	0.9393	43.0331
263	5	2	-0.14165699	-0.67229998	0.1539	43.799999
264	5	2	-0.139073	0.67049998	0.89850003	43.862499
265	5	2	-0.097411998	1.3688	0.9716	42.4935
266	5	2	-0.25788599	2.7506001	1.6345	42.586601
267	5	5	0.51667202	3.7354	0.78359997	43.3339
268	5	6	-0.690238	4.0783	-0.3012	42.892502
269	5	4	0.113196	3.1405001	1.8102	41.560398
270	5	4	0.113196	2.6605999	2.6222999	43.086498
271	5	4	0.076421	0.75	1.5775	41.798199
272	5	4	0.076421	1.4699	-0.0469	42.060398
273	5	4	0.078114003	0.51480001	1.9244	44.263901
274	5	4	0.078114003	1.3257	0.3556	44.577499
275	5	4	0.079986997	-0.51639998	-0.84109998	43.3297
276	5	4	0.079986997	-1.0193	-0.0151	44.842899
277	5	4	0.078114003	-1.7747	1.9852999	43.412201
278	5	4	0.078114003	-1.4988	0.98229998	41.952999
279	5	4	0.085202001	-3.8978	1.0338	42.748699
280	5	4	0.085202001	-3.4007001	0.2913	44.296001
281	5	4	0.116389	-2.6366999	-1.775	43.0797
282	5	4	0.116389	-4.3635001	-1.4122	42.798401
283	1	1	-0.17965899	-0.99440002	-5.928	38.563301
284	1	2	0.031883001	-0.041299999	-5.0728998	39.133999
285	1	2	-0.140715	0.1082	-5.3744998	40.629601
286	1	2	-0.16776399	1.0039999	-4.3604002	41.362801
287	1	2	0.085180998	2.4879	-4.4779	40.992901
288	1	7	-0.68504399	2.7311001	-3.8694	39.7561
289	1	8	0.37734699	3.6973	-3.9963	39.571499
290	1	3	0.068282001	3.0892999	-3.9624	41.774399
291	1	3	0.068282001	2.7948	-5.5475001	40.965599
292	1	4	0.090512	0.90679997	-4.5506001	42.452999
293	1	4	0.090512	0.64590001	-3.3248	41.176701
294	1	4	0.088216998	-0.89969999	-5.3411002	41.0993
295	1	4	0.088216998	0.50629997	-6.4032001	40.766701
296	1	3	0.078036003	-0.33410001	-4.0103002	38.977299
297	1	3	0.078036003	0.92610002	-5.2466002	38.619202
298	2	5	0.51667202	4.1571002	1.1393	44.270199
299	2	6	-0.690238	4.9025002	0.40830001	44.903198
300	2	2	-0.25788599	3.8361001	2.5098	44.787899
301	2	2	-0.097411998	2.8857	3.2525001	43.842701
302	2	2	-0.139073	2.5476	4.6482	44.387699
303	2	2	-0.14165699	1.7464	5.5047002	43.3904
304	2	2	-0.136416	0.37369999	4.9303002	42.994499
305	2	2	-0.11321	-0.58090001	4.7823	44.188301
306	2	2	-0.218954	-1.984	4.3846998	43.722099
307	2	5	0.823403	-2.8982	4.2202001	44.8946
308	2	6	-0.558541	-3.5618	5.2027998	45.322399
309	2	7	-0.66591603	-2.9827001	2.9906001	45.540501
310	2	8	0.39353099	-3.5841	2.8664	46.346001
311	2	4	0.11741	-2.3935001	5.1636	43.042702
312	2	4	0.11741	-1.9376	3.4254999	43.1619
313	2	4	0.085202001	-0.1983	3.9967	44.875099
314	2	4	0.085202001	-0.63660002	5.7456002	44.741501
315	2	4	0.078114003	-0.081	5.6272998	42.256302
316	2	4	0.078114003	0.49869999	3.9528	42.482601
317	2	4	0.079986997	1.5982	6.5145001	43.8312
318	2	4	0.079986997	2.3517001	5.6415	42.4673
319	2	4	0.078114003	1.9967999	4.5591002	45.347599
320	2	4	0.078114003	3.4948001	5.1873002	44.6063
321	2	4	0.076421	3.3634	3.3508999	42.843102
322	2	4	0.076421	1.9526	2.6586001	43.7374
323	2	4	0.113196	3.3645	2.4131999	45.790401
324	2	4	0.113196	4.7820001	3.0836	44.893398
325	4	1	-0.17965899	-0.16689999	-2.0323999	49.798401
326	4	2	0.031771999	-0.34630001	-1.7924	51.167801
327	4	2	-0.146448	-1.8341	-1.589	51.4772
328	4	2	-0.13906901	-2.0933001	-1.1449	52.926701
329	4	2	0.134051	-1.8307	-2.2467	53.959099
330	4	1	-0.49490201	-0.45699999	-2.375	54.195301
331	4	3	0.078432001	-2.3376	-1.9694999	54.910999
332	4	3	0.078432001	-2.2548001	-3.2147	53.6082
333	4	4	0.087076999	-3.1633	-0.85180002	53.0037
334	4	4	0.087076999	-1.4886	-0.24339999	53.168301
335	4	4	0.088049002	-2.2312	-0.80059999	50.801399
336	4	4	0.088049002	-2.3927	-2.526	51.258499
337	4	3	0.078036003	0.243	-0.90069997	51.482601
338	4	3	0.078036003	0.034000002	-2.6743	51.722599
339	5	5	0.76130998	-0.35370001	-3.1452999	54.884499
340	5	6	-0.55698401	-1.2868	-3.9071	55.0835
341	5	2	-0.208858	0.94300002	-3.3234	55.6189
342	5	2	-0.115744	0.78689998	-3.122	57.134899
343	5	2	-0.136416	0.30379999	-1.7158999	57.535801
344	5	2	-0.14165699	1.3304	-0.61900002	57.204399
345	5	2	-0.139073	0.98570001	0.73019999	57.854099
346	5	2	-0.097411998	-0.25960001	1.3841	57.230598
347	5	2	-0.25788599	-0.53869998	2.7728	57.823299
348	5	5	0.51667202	0.50550002	3.7755001	57.427299
349	5	6	-0.690238	0.6455	4.0963001	56.258301
350	5	4	0.113196	-1.5282	3.1301999	57.464199
351	5	4	0.113196	-0.58639997	2.7058001	58.931
352	5	4	0.076421	-1.1473	0.74720001	57.430698
353	5	4	0.076421	-0.1389	1.4641	56.1287
354	5	4	0.078114003	0.8351	0.59460002	58.948101
355	5	4	0.078114003	1.8586	1.4045	57.7178
356	5	4	0.079986997	1.4059	-0.4853	56.1035
357	5	4	0.079986997	2.3301001	-0.9332	57.576599
358	5	4	0.078114003	0.1207	-1.7208	58.6334
359	5	4	0.078114003	-0.66399997	-1.4994	57.037498
360	5	4	0.085202001	0.063299999	-3.8708999	57.5256
361	5	4	0.085202001	1.7628	-3.3288	57.627399
362	5	4	0.116389	1.6998	-2.619	55.213902
363	5	4	0.116389	1.3198	-4.3515	55.429699
364	1	1	-0.17965899	-0.2334	-1.1529	49.343899
365	1	2	0.031883001	-0.1803	-0.1759	50.3479
366	1	2	-0.140715	1.2664	0.02	50.816002
367	1	2	-0.16776399	1.3843	0.9461	52.039501
368	1	2	0.085180998	1.0829	2.4164	51.723099
369	1	7	-0.68504399	-0.29890001	2.6235001	51.640701
370	1	8	0.37734699	-0.42140001	3.5822999	51.4184
371	1	3	0.068282001	1.4951	3.0464001	52.5424
372	1	3	0.068282001	1.577	2.7149	50.771301
373	1	4	0.090512	2.4293001	0.88309997	52.410999
374	1	4	0.090512	0.72250003	0.58929998	52.858002
375	1	4	0.088216998	1.684	-0.97180003	51.097698
376	1	4	0.088216998	1.8812	0.41530001	49.9785
377	1	3	0.078036003	-0.83139998	-0.46630001	51.202999
378	1	3	0.078036003	-0.56730002	0.77310002	49.922798
379	2	5	0.51667202	1.1355	4.2298002	58.1875
380	2	6	-0.690238	2.027	4.9903002	57.8451
381	2	2	-0.25788599	0.92089999	3.9352	59.642399
382	2	2	-0.097411998	-0.2432	2.9597001	59.8461
383	2	2	-0.139073	-0.44580001	2.6491001	61.3367
384	2	2	-0.14165699	-1.715	1.8218	61.610802
385	2	2	-0.136416	-1.7431999	0.43309999	60.9464
386	2	2	-0.11321	-0.6074	-0.4833	61.424301
387	2	2	-0.218954	-0.78299999	-1.9035	60.879902
388	2	5	0.823403	0.34150001	-2.7802	61.332199
389	2	6	-0.558541	0.24779999	-3.4228001	62.412498
390	2	7	-0.66591603	1.51	-2.8520999	60.580101
391	2	8	0.39353099	2.2874	-3.4279001	60.880402
392	2	4	0.11741	-1.747	-2.3295	61.233898
393	2	4	0.11741	-0.80059999	-1.8818001	59.768501
394	2	4	0.085202001	0.36700001	-0.083999999	61.068699
395	2	4	0.085202001	-0.59750003	-0.51440001	62.535999
396	2	4	0.078114003	-2.7170999	-0.040600002	61.201099
397	2	4	0.078114003	-1.7119	0.53460002	59.8409
398	2	4	0.079986997	-1.8235	1.6949	62.709999
399	2	4	0.079986997	-2.6008999	2.3977001	61.263699
400	2	4	0.078114003	0.4474	2.1291001	61.742298
401	2	4	0.078114003	-0.54390001	3.6066	61.8927
402	2	4	0.076421	-1.1737	3.4052999	59.430801
403	2	4	0.076421	-0.0198	2.0195999	59.2976
404	2	4	0.113196	1.853	3.4958	60.060501
405	2	4	0.113196	0.70730001	4.8878999	60.1731
406	4	1	-0.17965899	-0.5395	15.3955	6.6346998
407	4	2	0.031771999	-0.7087	15.1395	5.2669001
408	4	2	-0.146448	-1.817	14.1009	5.0577002
409	4	2	-0.13906901	-1.9398	13.6361	3.5968001
410	4	2	0.134051	-2.503	14.7102	2.6596
411	4	1	-0.49490201	-1.5082	15.6378	2.3292
412	4	3	0.078432001	-2.8613999	14.2163	1.7283
413	4	3	0.078432001	-3.3683	15.2242	3.1361001
414	4	4	0.087076999	-2.6329	12.7667	3.5762999
415	4	4	0.087076999	-0.95590001	13.2794	3.221
416	4	4	0.088049002	-1.5891	13.21	5.6824002
417	4	4	0.088049002	-2.7878001	14.5144	5.4106002
418	4	3	0.078036003	0.2484	14.7838	4.8207002
419	4	3	0.078036003	-0.99019998	16.0917	4.7726998
420	5	5	0.76130998	-1.9621	16.339899	1.7127
421	5	6	-0.55698401	-3.1803999	16.403	1.6636
422	5	2	-0.208858	-1.1188999	17.2777	0.89889997
423	5	2	-0.115744	-1.3099999	17.071301	-0.6124
424	5	2	-0.136416	-0.91909999	15.6672	-1.1094
425	5	2	-0.14165699	0.58700001	15.3863	-0.96920002
426	5	2	-0.139073	1.0249	14.1182	-1.7186
427	5	2	-0.097411998	0.48899999	12.8324	-1.0655
428	5	2	-0.25788599	1.0095	11.5699	-1.7673
429	5	5	0.51667202	2.4821999	11.373	-1.5552
430	5	6	-0.690238	2.9251001	11.1614	-0.43790001
431	5	4	0.113196	0.4718	10.6827	-1.3677
432	5	4	0.113196	0.79720002	11.6304	-2.8559
433	5	4	0.076421	-0.61970001	12.8223	-1.1314
434	5	4	0.076421	0.76670003	12.8049	0.0103
435	5	4	0.078114003	0.69160002	14.1723	-2.7786
436	5	4	0.078114003	2.1359999	14.0915	-1.7184
437	5	4	0.079986997	0.86000001	15.2888	0.1039
438	5	4	0.079986997	1.1568	16.245199	-1.3868999
439	5	4	0.078114003	-1.2021	15.5972	-2.1833
440	5	4	0.078114003	-1.5053999	14.9018	-0.55970001
441	5	4	0.085202001	-2.3764999	17.2547	-0.86940002
442	5	4	0.085202001	-0.71079999	17.833599	-1.1579
443	5	4	0.116389	-0.050299998	17.1492	1.1720001
444	5	4	0.116389	-1.3986	18.321501	1.1575
445	1	1	-0.17965899	-0.020500001	14.635	7.0047002
446	1	2	0.031883001	0.4738	13.9138	5.9088998
447	1	2	-0.140715	1.6892	14.6319	5.3109002
448	1	2	-0.16776399	2.1787	13.997	3.9972
449	1	2	0.085180998	2.8401	12.6267	4.1911001
450	1	7	-0.68504399	1.8664	11.6358	4.3618999
451	1	8	0.37734699	2.3589001	10.7858	4.4981999
452	1	3	0.068282001	3.4403	12.392	3.2839
453	1	3	0.068282001	3.5265999	12.6506	5.0669999
454	1	4	0.090512	2.9324	14.6811	3.5520999
455	1	4	0.090512	1.34	13.9159	3.2723999
456	1	4	0.088216998	1.4061	15.6858	5.0953999
457	1	4	0.088216998	2.5151999	14.6534	6.0544
458	1	3	0.078036003	-0.32179999	13.787	5.1406002
459	1	3	0.078036003	0.77359998	12.9079	6.2684002
460	2	5	0.51667202	3.1605	11.407	-2.4036
461	2	6	-0.690238	4.3622999	11.3156	-2.2088001
462	2	2	-0.25788599	2.6387	11.5623	-3.8011
463	2	2	-0.097411998	1.1095001	11.6598	-3.8157001
464	2	2	-0.139073	0.58340001	11.8362	-5.2480001
465	2	2	-0.14165699	-0.95139998	11.7544	-5.3386002
466	2	2	-0.136416	-1.7091	12.8319	-4.5412002
467	2	2	-0.11321	-1.3971	14.2588	-5.0155001
468	2	2	-0.218954	-2.3058	15.2777	-4.3227
469	2	5	0.823403	-1.9765	16.665199	-4.7744999
470	2	6	-0.558541	-2.5606	17.16	-5.7758999
471	2	7	-0.66591603	-0.99250001	17.3941	-4.1138
472	2	8	0.39353099	-0.74550003	18.3286	-4.4168
473	2	4	0.11741	-3.3704	15.0577	-4.5559001
474	2	4	0.11741	-2.1719	15.2145	-3.2207999
475	2	4	0.085202001	-0.33970001	14.5064	-4.7789998
476	2	4	0.085202001	-1.5429	14.3249	-6.1162
477	2	4	0.078114003	-2.7974999	12.6412	-4.6705999
478	2	4	0.078114003	-1.4898	12.7338	-3.457
479	2	4	0.079986997	-1.2466	11.8267	-6.408
480	2	4	0.079986997	-1.2794	10.7538	-4.9804001
481	2	4	0.078114003	0.94300002	12.798	-5.6701002
482	2	4	0.078114003	0.99980003	11.0264	-5.8855
483	2	4	0.076421	0.67750001	10.7351	-3.3736
484	2	4	0.076421	0.80250001	12.5304	-3.1972001
485	2	4	0.113196	3.0752001	12.483	-4.2466998
486	2	4	0.113196	2.9630001	10.6869	-4.4039998
487	4	1	-0.17965899	-0.28690001	12.3609	7.5050001
488	4	2	0.031771999	-0.1212	12.4553	8.8936996
489	4	2	-0.146448	-0.6584	11.1919	9.5761995
490	4	2	-0.13906901	-0.67470002	11.296	11.1106
491	4	2	0.134051	0.72310001	11.2748	11.7389
492	4	1	-0.49490201	1.3318	12.5291	11.6142
493	4	3	0.078432001	0.62290001	11.0267	12.8197
494	4	3	0.078432001	1.3513	10.4907	11.2587
495	4	4	0.087076999	-1.2391	10.4215	11.5023
496	4	4	0.087076999	-1.2229	12.2093	11.4299
497	4	4	0.088049002	-1.7022001	11.0216	9.2334995
498	4	4	0.088049002	-0.056899998	10.3113	9.2588997
499	4	3	0.078036003	-0.64209998	13.3603	9.2826996
500	4	3	0.078036003	0.963	12.5612	9.1026001
501	5	5	0.76130998	2.2741001	12.436	12.0412
502	5	6	-0.55698401	2.7372	11.3251	12.2466
503	5	2	-0.208858	3.0627	13.6646	12.3894
504	5	2	-0.115744	3.3169	13.7854	13.9006
505	5	2	-0.136416	2.0351	13.8941	14.7469
506	5	2	-0.14165699	1.2575001	15.1948	14.4815
507	5	2	-0.139073	0.1481	15.4428	15.5155
508	5	2	-0.097411998	-1.0166	14.4466	15.3813
509	5	2	-0.25788599	-2.1596	14.7622	16.3568
510	5	5	0.51667202	-2.8678	16.0371	16.0026
511	5	6	-0.690238	-3.4854	16.1329	14.9544
512	5	4	0.113196	-2.8961999	13.9297	16.3368
513	5	4	0.113196	-1.7615	14.8349	17.391199
514	5	4	0.076421	-0.65149999	13.4227	15.6092
515	5	4	0.076421	-1.4025	14.4467	14.3391
516	5	4	0.078114003	0.5722	15.3941	16.5429
517	5	4	0.078114003	-0.2348	16.4746	15.3604
518	5	4	0.079986997	0.81010002	15.1725	13.4642
519	5	4	0.079986997	1.9625	16.0539	14.5225
520	5	4	0.078114003	2.3331001	13.8626	15.8186
521	5	4	0.078114003	1.3873	13.0135	14.5553
522	5	4	0.085202001	3.8931999	12.8972	14.2415
523	5	4	0.085202001	3.9566	14.6762	14.0875
524	5	4	0.116389	2.5318999	14.5656	12.016
525	5	4	0.116389	4.0402002	13.62	11.8628
526	1	1	-0.17965899	-1.2415	12.5572	7.3179998
527	1	2	0.031883001	-1.7828	13.0846	8.4988003
528	1	2	-0.140715	-1.3691	14.5521	8.6581001
529	1	2	-0.16776399	-1.7752	15.1491	10.0172
530	1	2	0.085180998	-3.2876	15.3577	10.1646
531	1	7	-0.68504399	-3.9205999	14.1437	10.4558
532	1	8	0.37734699	-4.8894	14.3462	10.5201
533	1	3	0.068282001	-3.4668	16.069201	11.0012
534	1	3	0.068282001	-3.7081001	15.8005	9.2340002
535	1	4	0.090512	-1.2821	16.1401	10.1114
536	1	4	0.090512	-1.3959	14.5132	10.8462
537	1	4	0.088216998	-0.26190001	14.6183	8.5739002
538	1	4	0.088216998	-1.8033	15.1559	7.8319998
539	1	3	0.078036003	-1.4482	12.4871	9.3765001
540	1	3	0.078036003	-2.8879001	13.0131	8.4302998
541	2	5	0.51667202	-2.8419001	16.879299	16.688801
542	2	6	-0.690238	-3.3620999	17.9331	16.357901
543	2	2	-0.25788599	-2.1796	16.760401	18.029301
544	2	2	-0.097411998	-1.5936	15.3598	18.237301
545	2	2	-0.139073	-0.90189999	15.2507	19.6045
546	2	2	-0.14165699	-0.45860001	13.8151	19.9405
547	2	2	-0.136416	0.56809998	13.2062	18.967699
548	2	2	-0.11321	1.8887	13.9885	18.923
549	2	2	-0.218954	2.937	13.2473	18.0888
550	2	5	0.823403	4.2104998	14.0301	18.0327
551	2	6	-0.558541	5.1027002	13.8504	18.904699
552	2	7	-0.66591603	4.3915	14.9891	17.040899
553	2	8	0.39353099	5.2406998	15.5396	16.998199
554	2	4	0.11741	3.1385	12.2481	18.5326
555	2	4	0.11741	2.5583999	13.0974	17.0543
556	2	4	0.085202001	1.7138	14.9876	18.4685
557	2	4	0.085202001	2.2735	14.1279	19.957199
558	2	4	0.078114003	0.77780002	12.1681	19.308399
559	2	4	0.078114003	0.1346	13.1309	17.948099
560	2	4	0.079986997	-0.027799999	13.8091	20.9653
561	2	4	0.079986997	-1.3558	13.1583	19.9639
562	2	4	0.078114003	-0.034000002	15.9417	19.6485
563	2	4	0.078114003	-1.6145	15.5742	20.393999
564	2	4	0.076421	-2.4092	14.6064	18.173599
565	2	4	0.076421	-0.85610002	15.1593	17.4307
566	2	4	0.113196	-1.3681999	17.517799	18.096901
567	2	4	0.113196	-2.931	16.9722	18.8202
568	4	1	-0.17965899	0.61070001	20.715401	26.9065
569	4	2	0.031771999	0.76200002	19.3374	27.114599
570	4	2	-0.146448	1.6171	18.7262	25.998301
571	4	2	-0.13906901	1.6796	17.190701	26.058901
572	4	2	0.134051	2.4974	16.659	27.2411
573	4	1	-0.49490201	1.7453001	16.7209	28.42
574	4	3	0.078432001	2.7660999	15.5977	27.0382
575	4	3	0.078432001	3.4398999	17.2414	27.3526
576	4	4	0.087076999	2.1619	16.835199	25.121901
577	4	4	0.087076999	0.6534	16.763	26.0816
578	4	4	0.088049002	1.1767	19.012501	25.018499
579	4	4	0.088049002	2.6438999	19.1528	26.0382
580	4	3	0.078036003	-0.23559999	18.842899	27.1569
581	4	3	0.078036003	1.2642	19.191999	28.092699
582	5	5	0.76130998	2.3636	16.365499	29.1754
583	5	6	-0.55698401	3.5662999	16.281799	28.982401
584	5	2	-0.208858	1.7768	15.9709	30.499201
585	5	2	-0.115744	1.965	14.4747	30.797701
586	5	2	-0.136416	1.2869999	13.5403	29.7787
587	5	2	-0.14165699	-0.2475	13.6477	29.804701
588	5	2	-0.139073	-0.93290001	12.5266	29.007999
589	5	2	-0.097411998	-0.71789998	12.6648	27.490801
590	5	2	-0.25788599	-1.4841	11.5942	26.700701
591	5	5	0.51667202	-2.9696	11.7965	26.7707
592	5	6	-0.690238	-3.4837	12.7907	26.284599
593	5	4	0.113196	-1.1706001	11.6335	25.634899
594	5	4	0.113196	-1.2292	10.5856	27.089899
595	5	4	0.076421	0.36219999	12.5453	27.261101
596	5	4	0.076421	-1.0288	13.6761	27.1506
597	5	4	0.078114003	-0.56239998	11.5365	29.3547
598	5	4	0.078114003	-2.0215001	12.5719	29.2276
599	5	4	0.079986997	-0.56919998	14.632	29.4006
600	5	4	0.079986997	-0.59810001	13.5832	30.858101
601	5	4	0.078114003	1.5813	12.4965	30.0282
602	5	4	0.078114003	1.6703	13.7601	28.7605
603	5	4	0.085202001	3.0531001	14.2456	30.8204
604	5	4	0.085202001	1.5683	14.2584	31.8144