Title

14500 atoms
15125 bonds
30000 angles
72250 dihedrals
2250 impropers

11 atom types
14 bond types
9 angle types
35 dihedral types
3 improper types
-11.27285063 125.4843042 xlo xhi
-12.58789261 125.5889662 ylo yhi
-12.56678142 124.5808449 zlo zhi
0.0 0.0 0.0 xy xz yz

Masses

1	12.01078
2	15.99943
3	14.00672
4	12.01078
5	1.007947
6	1.007947
7	1.007947
8	15.99943
9	12.01078
10	15.99943
11	1.007947


Pair Coeffs

1	0.086879315	3.4806469
2	0.2102061	3.0398122
3	0.16769152	3.206876
4	0.10884061	3.3795318
5	0.014090815	1.1034277
6	0.016409246	2.5832257
7	0.015779483	2.6445434
8	0.16846514	3.0251065
9	0.21	3.3996695
10	0.20947353	2.99716
11	1.2326e-05	0.53453923

Bond Coeffs

1 harmonic	582.698766451	1.225198386222
2 harmonic	492.76746816345	1.381897776683
3 harmonic	279.1350963404	1.454628925034
4 harmonic	352.0565580496	1.450098586273
5 harmonic	505.144496193	1.019481865027
6 harmonic	264.62148576755	1.52190126495
7 harmonic	370.04670688625	1.093899492634
8 harmonic	301.15400723785	1.345741232799
9 harmonic	366.7408841747	1.425895053732
10 harmonic	300.03137914615	1.451203938761
11 harmonic	366.34047229585	1.464762957261
12 harmonic	602.81384337	1.196112346392
13 harmonic	329.96998057905	1.427343958716
14 harmonic	543.5267831885	0.9716763312559


Angle Coeffs

1 harmonic	55.42182150775	117.3465570514
2 harmonic	63.44422595415	115.5071327674
3 harmonic	57.8982893754	126.8062420451
4 harmonic	53.20531626545	116.5475862634
5 harmonic	65.09061609600001	110.3538806181
6 harmonic	201.41175231035	127.4691416191
7 harmonic	48.776492647595	115.6030999533
8 harmonic	55.07882548015	112.8714009681
9 harmonic	33.56981613361	180


Dihedral Coeffs

1 fourier 1	-0.1488678166443	4	180
2 fourier 1	-0.1230328948768	3	180
3 fourier 1	0.2939295466901	2	0
4 fourier 1	-0.3024127022865	1	0
5 fourier 1	0.182238503271	2	0
6 fourier 1	0.02972342374561	3	0
7 fourier 1	1.809047390003	2	180
8 fourier 1	-0.04816277792592	1	0
9 fourier 1	3.101948770557	2	180
10 fourier 1	-0.4252153282372	1	0
11 fourier 1	2.348375642009	2	180
12 fourier 1	1.256156174911	1	0
13 fourier 1	0.9974165607242	2	180
14 fourier 1	0.1155372516788	3	0
15 fourier 1	0.09223874044423	3	0
16 fourier 1	0.3159935921949	2	180
17 fourier 1	0.3247796806857	1	180
18 fourier 1	0.1040663847541	3	0
19 fourier 1	2.779853741805	2	180
20 fourier 1	0.1918272375143	3	0
21 fourier 1	0.9202179876409	1	180
22 fourier 1	0.0473758381877	3	0
23 fourier 1	0.4860993122944	2	180
24 fourier 1	0.8916986138746	1	0
25 fourier 1	1.163809172478	2	180
26 fourier 1	0.1679186987369	1	180
27 fourier 1	0.1911926717192	3	0
28 fourier 1	0.1115525666802	3	0
29 fourier 1	0.3432490222662	1	0
30 fourier 1	0.457973137376	1	0
31 fourier 1	-1.382973039546	1	0
32 fourier 1	0	1	0
33 fourier 1	0.3445382149273	3	0
34 fourier 1	0.1364556373303	1	0
35 fourier 1	0.3026390167484	3	0


Improper Coeffs

1 0.3333333333333333	-1	2
2 0.3666666666666667	-1	2
3 3.5	-1	2


Atoms

1	6	1	0.53755153	2.020725	3.0927954	6.2390136
2	6	2	-0.72152202	2.2019871	4.0411842	7.0488986
3	6	3	-0.52891796	1.004202	3.1697251	5.2367094
4	6	4	0.027101358	0.13851206	4.3414094	5.110654
5	6	4	-0.14893323	-0.85580047	4.1646036	3.9586903
6	6	4	-0.1454352	-1.7560089	5.4006153	3.8105792
7	6	4	-0.1454352	-2.8901344	5.198854	2.7898655
8	6	4	-0.14766255	-2.4260538	4.9246147	1.3476758
9	6	4	0.021148918	-1.6132437	6.080015	0.74823956
10	6	3	-0.47196187	-1.348407	5.8470838	-0.6707885
11	6	1	0.77647997	-0.61400496	6.7860812	-1.4610204
12	6	2	-0.63168197	-0.17308589	7.8511149	-0.95207766
13	6	5	0.318485	-1.6908322	4.9767809	-1.138441
14	6	6	0.045621184	-0.64317648	6.1716973	1.2802781
15	6	6	0.045621184	-2.1792974	7.0304998	0.86202359
16	6	7	0.079962318	-1.8375764	3.9838688	1.3026474
17	6	7	0.079962318	-3.3339075	4.7703633	0.7258453
18	6	7	0.078992022	-3.5329287	6.1068981	2.7926059
19	6	7	0.078992022	-3.5265229	4.3516739	3.1241194
20	6	7	0.078992022	-1.1436905	6.2865754	3.5376013
21	6	7	0.078992022	-2.2252915	5.6216477	4.79388
22	6	7	0.079962318	-0.28440042	4.0039645	3.0201856
23	6	7	0.079962318	-1.4845469	3.2675432	4.1541834
24	6	6	0.042169986	-0.41728448	4.4874324	6.0622697
25	6	6	0.042169986	0.76692889	5.2400008	4.9216837
26	6	5	0.31189652	0.89249126	2.3572471	4.5882334
27	7	8	-0.49872728	-0.44143031	6.5903555	-2.464642
28	7	4	0.13960679	-1.627607	6.0467445	-2.9772598
29	7	4	-0.098838078	-1.8025736	4.5920713	-2.5109793
30	7	7	0.1035292	-1.8257412	4.5678038	-1.3980394
31	7	4	-0.16008508	-3.0961467	3.9672841	-3.030974
32	7	7	0.10840268	-3.3553076	4.3756281	-4.0335471
33	7	7	0.10840268	-3.940353	4.1843849	-2.3413445
34	7	4	-0.078297871	-2.8251513	2.4590664	-3.1023465
35	7	7	0.12003262	-3.3077158	1.9497211	-2.2374224
36	7	4	-0.10818672	-3.224473	1.8071204	-4.4503019
37	7	7	0.11442964	-4.2080896	2.1338829	-4.8494405
38	7	4	-0.16160584	-3.0859226	0.27773345	-4.312294
39	7	7	0.10835063	-3.6003248	-0.10319664	-3.4027729
40	7	7	0.10835063	-3.5259694	-0.22088703	-5.2041849
41	7	4	-0.063816699	-1.5536482	0.074235671	-4.2283356
42	7	4	0.060558101	-1.0242938	-0.89042661	-5.3026524
43	7	8	-0.1477893	0.35902543	-1.0531453	-5.1525469
44	7	6	0.089397905	-1.2483287	-0.51160711	-6.3233492
45	7	6	0.089397905	-1.5250177	-1.876558	-5.1777466
46	7	7	0.11398156	-1.2788525	-0.34254497	-3.2320373
47	7	4	-0.095187085	-1.0175279	1.5206488	-4.3946398
48	7	7	0.12452104	0.035407722	1.5912437	-4.7414222
49	7	4	-0.14076127	-2.0412649	2.1290074	-5.3356224
50	7	7	0.10278313	-2.092059	1.6280572	-6.3271823
51	7	7	0.10278313	-1.8992716	3.2196894	-5.5030432
52	7	4	-0.074238913	-1.2994252	2.2752616	-3.0699469
53	7	7	0.11918661	-0.98769951	1.6855958	-2.1788384
54	7	4	-0.16121534	-0.67877131	3.6757152	-2.9950628
55	7	7	0.10840267	0.17323079	3.6906224	-2.2821784
56	7	7	0.10840267	-0.30227896	4.0039617	-3.9894857
57	7	6	0.081289855	-1.5868581	6.0902518	-4.0870817
58	7	6	0.081289855	-2.5008801	6.6567976	-2.6488541
59	4	1	0.53755159	2.6431442	2.2108354	6.3047018
60	4	2	-0.72152202	2.1410327	1.0798317	6.0700007
61	4	3	-0.52891802	4.026934	2.3445414	6.6474109
62	4	4	0.027101362	4.9300519	1.1999171	6.7533689
63	4	4	-0.14893323	4.6755408	0.43468544	8.0559777
64	4	4	-0.14524748	5.6341743	-0.75883581	8.1887894
65	4	4	-0.14102736	5.5019453	-1.4767263	9.5411968
66	4	4	-0.12523431	4.1945061	-2.2760569	9.6619761
67	4	4	0.1806162	4.1287578	-3.0698227	10.976222
68	4	3	-0.68738251	5.1614088	-4.1003666	11.0388
69	4	9	0.59068025	5.1504603	-5.1129971	10.267931
70	4	2	-0.52110909	5.1402519	-6.0969304	9.5165799
71	4	6	0.022617647	3.1255178	-3.5393722	11.078661
72	4	6	0.022617647	4.2629927	-2.3751794	11.832558
73	4	7	0.073650671	3.3296481	-1.5795569	9.6442776
74	4	7	0.073650671	4.0909901	-2.9714199	8.8010762
75	4	7	0.077727271	5.5723313	-0.73723865	10.368909
76	4	7	0.077727271	6.3630393	-2.1734481	9.6398569
77	4	7	0.078992022	6.6787802	-0.39096882	8.0972833
78	4	7	0.078992022	5.4575017	-1.4799137	7.3605832
79	4	7	0.079962318	3.626344	0.073941511	8.0646335
80	4	7	0.079962318	4.8198028	1.1264582	8.9151802
81	4	6	0.042169986	4.7933864	0.53095733	5.8750914
82	4	6	0.042169986	5.9788396	1.5674101	6.7441815
83	4	5	0.31189655	4.4167266	3.3064582	6.7669554
84	5	8	-0.14612895	0.6410571	-1.6862361	-5.8638571
85	5	4	0.060705894	-0.52896941	-2.1084097	-6.5119376
86	5	4	-0.090909856	-1.2984224	-3.1119217	-5.6371995
87	5	7	0.10633593	-1.5577823	-2.626443	-4.66918
88	5	4	-0.16099656	-2.5933343	-3.5834111	-6.2979529
89	5	7	0.1082951	-2.4798061	-3.6226137	-7.4040001
90	5	7	0.1082951	-3.4293479	-2.8890218	-6.0618137
91	5	4	-0.077630813	-2.8662633	-4.977554	-5.7214387
92	5	7	0.12003262	-3.6641067	-4.9151928	-4.9477669
93	5	4	-0.10818672	-3.1843073	-6.0539194	-6.7904371
94	5	7	0.11442964	-3.8837637	-5.7221669	-7.5875581
95	5	4	-0.15608493	-3.6278479	-7.3418401	-6.0696402
96	5	7	0.10835063	-4.4198939	-7.1414513	-5.3144286
97	5	7	0.10835063	-4.0228234	-8.0717177	-6.8114555
98	5	4	-0.10638812	-2.3192745	-7.8367213	-5.4064275
99	5	4	0.13831292	-1.9579147	-9.2755466	-5.8119272
100	5	10	-0.68321674	-0.78426563	-9.6718188	-5.1567552
101	5	11	0.37162061	-0.60489285	-10.602748	-5.4507375
102	5	6	0.072778133	-1.8183428	-9.3571795	-6.9123715
103	5	6	0.072778133	-2.7895753	-9.9529725	-5.5142013
104	5	7	0.11403621	-2.4218182	-7.8111619	-4.297696
105	5	4	-0.088791037	-1.2841164	-6.7908797	-5.8956309
106	5	7	0.12452104	-0.22650818	-7.131955	-5.8686769
107	5	4	-0.14076127	-1.8086707	-6.4501825	-7.2780871
108	5	7	0.10278313	-1.8293081	-7.3174215	-7.9751829
109	5	7	0.10278313	-1.2587288	-5.6198736	-7.7712698
110	5	4	-0.073576631	-1.5457036	-5.4773952	-5.1134866
111	5	7	0.11918661	-1.6529753	-5.6570542	-4.0199883
112	5	4	-0.16213295	-0.49965175	-4.3820077	-5.3470134
113	5	7	0.10829505	0.13734161	-4.2460678	-4.4463543
114	5	7	0.10829505	0.16410512	-4.6350586	-6.2036627
115	5	6	0.089522225	-0.24822345	-2.5803181	-7.4783822
116	5	6	0.089522225	-1.176161	-1.2317395	-6.7404489
117	6	1	0.53755153	0.89629584	7.1529458	26.492927
118	6	2	-0.72152202	1.3686711	8.2904599	26.226216
119	6	3	-0.52891796	0.79097807	6.1480721	25.481498
120	6	4	0.027101358	1.2220622	6.3958177	24.106383
121	6	4	-0.14893323	1.0026839	5.1561992	23.233367
122	6	4	-0.1454352	1.4706416	5.4054126	21.791512
123	6	4	-0.1454352	1.1035569	4.2576878	20.834025
124	6	4	-0.14766255	1.7330823	2.895799	21.179634
125	6	4	0.021148918	3.2669294	2.9146806	21.136154
126	6	3	-0.47196187	3.8075603	1.5657366	21.297722
127	6	1	0.77647997	5.2155674	1.3150372	21.283761
128	6	2	-0.63168197	6.0365467	2.2581151	21.127793
129	6	5	0.318485	3.1671698	0.75030079	21.433167
130	6	6	0.045621184	3.6574638	3.5543564	21.955177
131	6	6	0.045621184	3.605738	3.328644	20.161152
132	6	7	0.079962318	1.3863982	2.5509335	22.176737
133	6	7	0.079962318	1.3667916	2.1572311	20.434642
134	6	7	0.078992022	1.413151	4.5443494	19.804601
135	6	7	0.078992022	-0.0014803808	4.1432659	20.818852
136	6	7	0.078992022	2.566408	5.588024	21.773485
137	6	7	0.078992022	0.98202794	6.3287055	21.411053
138	6	7	0.079962318	1.5740543	4.3103846	23.670662
139	6	7	0.079962318	-0.079419714	4.8967601	23.233848
140	6	6	0.042169986	0.64336954	7.249612	23.691708
141	6	6	0.042169986	2.3025078	6.6617515	24.105637
142	6	5	0.31189652	0.39228024	5.2201301	25.75184
143	7	8	-0.49872728	5.5671018	0.34675514	21.402927
144	7	4	0.13960679	4.7184409	-0.48297138	20.656848
145	7	4	-0.098838078	3.3702836	-0.66375678	21.373712
146	7	7	0.1035292	2.8964497	0.33415174	21.513071
147	7	4	-0.16008508	2.4058209	-1.5459619	20.582756
148	7	7	0.10840268	2.9613451	-2.324757	20.013605
149	7	7	0.10840268	1.8244184	-0.93722139	19.856938
150	7	4	-0.078297871	1.4786397	-2.1812285	21.626798
151	7	7	0.12003262	0.49466596	-1.6595334	21.621811
152	7	4	-0.10818672	1.3174673	-3.7155244	21.480392
153	7	7	0.11442964	1.173137	-4.0686445	20.43729
154	7	4	-0.16160584	0.21830122	-4.1855321	22.454145
155	7	7	0.10835063	-0.7069067	-3.5758571	22.358058
156	7	7	0.10835063	-0.034638269	-5.249381	22.249254
157	7	4	-0.063816699	0.88122029	-4.0014043	23.840853
158	7	4	0.060558101	0.89434062	-5.2976932	24.668143
159	7	8	-0.1477893	1.4786052	-5.0555884	25.918184
160	7	6	0.089397905	1.4548309	-6.1004252	24.141845
161	7	6	0.089397905	-0.15427553	-5.6410665	24.81402
162	7	7	0.11398156	0.33064043	-3.2297523	24.426724
163	7	4	-0.095187085	2.3031241	-3.5069259	23.465522
164	7	7	0.12452104	3.0739539	-3.6633743	24.249907
165	7	4	-0.14076127	2.5588031	-4.2442062	22.163741
166	7	7	0.10278313	2.5586332	-5.3513707	22.268186
167	7	7	0.10278313	3.5030227	-3.9419064	21.658922
168	7	4	-0.074238913	2.1729107	-2.0368367	22.990548
169	7	7	0.11918661	1.557923	-1.425358	23.688285
170	7	4	-0.16121534	3.5117194	-1.3313283	22.741674
171	7	7	0.10840267	3.7088236	-0.57279122	23.529142
172	7	7	0.10840267	4.3560438	-2.0562319	22.741932
173	7	6	0.081289855	5.2148318	-1.4681713	20.52181
174	7	6	0.081289855	4.5528037	-0.048439403	19.64375
175	4	1	0.53755159	0.56731811	6.9363407	27.500116
176	4	2	-0.72152202	-0.4449914	6.2082788	27.677669
177	4	3	-0.52891802	1.2923341	7.4720795	28.612562
178	4	4	0.027101362	0.90973425	7.2215486	30.001038
179	4	4	-0.14893323	-0.31022816	8.0663566	30.382005
180	4	4	-0.14524748	-0.70872024	7.8274886	31.846675
181	4	4	-0.14102736	-1.8463557	8.7515825	32.308944
182	4	4	-0.12523431	-3.2015763	8.3795569	31.686138
183	4	4	0.1806162	-4.3429275	9.2468356	32.240011
184	4	3	-0.68738251	-4.5531848	9.0186109	33.666899
185	4	9	0.59068025	-4.9941976	7.9118469	34.114515
186	4	2	-0.52110909	-5.4215478	6.8343866	34.549497
187	4	6	0.022617647	-5.2813492	9.0278162	31.684262
188	4	6	0.022617647	-4.1009316	10.319101	32.080183
189	4	7	0.073650671	-3.1613784	8.5355022	30.587288
190	4	7	0.073650671	-3.4253318	7.3066564	31.871103
191	4	7	0.077727271	-1.5953304	9.8079251	32.068049
192	4	7	0.077727271	-1.9210389	8.668592	33.415368
193	4	7	0.078992022	0.17366456	8.020829	32.493913
194	4	7	0.078992022	-1.0047054	6.7649328	31.989713
195	4	7	0.079962318	-1.1569285	7.8000774	29.716259
196	4	7	0.079962318	-0.065944812	9.1413144	30.232401
197	4	6	0.042169986	0.69395591	6.139346	30.141869
198	4	6	0.042169986	1.7613659	7.4899971	30.662665
199	4	5	0.31189655	2.1646368	8.0139928	28.420388
200	5	8	-0.14612895	1.4536352	-5.9200794	26.406384
201	5	4	0.060705894	0.75682095	-6.8221736	25.589147
202	5	4	-0.090909856	-0.75145664	-6.524914	25.620713
203	5	7	0.10633593	-0.92438252	-5.483653	25.265902
204	5	4	-0.16099656	-1.5482679	-7.4736984	24.725954
205	5	7	0.1082951	-1.0738278	-8.4795965	24.696943
206	5	7	0.1082951	-1.5948009	-7.0845622	23.685154
207	5	4	-0.077630813	-2.9500297	-7.5422666	25.343089
208	5	7	0.12003262	-3.6527076	-6.9134546	24.751608
209	5	4	-0.10818672	-3.4884504	-8.9831954	25.533612
210	5	7	0.11442964	-3.3138208	-9.660542	24.670243
211	5	4	-0.15608493	-4.9639836	-8.8993138	25.970398
212	5	7	0.10835063	-5.5549715	-8.2312736	25.305347
213	5	7	0.10835063	-5.4212791	-9.9139372	25.94949
214	5	4	-0.10638812	-4.8687154	-8.3335866	27.408452
215	5	4	0.13831292	-5.5621107	-9.233266	28.445278
216	5	10	-0.68321674	-5.4658327	-8.6520284	29.716745
217	5	11	0.37162061	-5.9319022	-9.2695646	30.338563
218	5	6	0.072778133	-5.1066225	-10.247849	28.461824
219	5	6	0.072778133	-6.6359594	-9.3370116	28.170885
220	5	7	0.11403621	-5.3481605	-7.329357	27.454379
221	5	4	-0.088791037	-3.3363649	-8.2310098	27.623014
222	5	7	0.12452104	-3.0134595	-8.2123996	28.68649
223	5	4	-0.14076127	-2.8255437	-9.4146097	26.822658
224	5	7	0.10278313	-3.1947506	-10.397368	27.191906
225	5	7	0.10278313	-1.7172685	-9.4619273	26.755092
226	5	4	-0.073576631	-2.8297726	-7.0272177	26.786553
227	5	7	0.11918661	-3.4561317	-6.1195823	26.939507
228	5	4	-0.16213295	-1.3569394	-6.6713134	27.016177
229	5	7	0.10829505	-1.2645737	-5.7203948	27.584199
230	5	7	0.10829505	-0.83492467	-7.4683983	27.591166
231	5	6	0.089522225	0.95086347	-7.8539271	25.954336
232	5	6	0.089522225	1.1331041	-6.7585833	24.543206
233	6	1	0.53755153	3.968146	-2.5008307	56.958249
234	6	2	-0.72152202	4.3865428	-2.5507321	58.145963
235	6	3	-0.52891796	2.6616707	-2.0014442	56.662299
236	6	4	0.027101358	1.7629041	-1.532589	57.716124
237	6	4	-0.14893323	0.43420942	-1.0495614	57.126045
238	6	4	-0.1454352	-0.5070635	-0.53915476	58.227647
239	6	4	-0.1454352	-1.9193445	-0.21541101	57.708555
240	6	4	-0.14766255	-1.9826263	0.89702353	56.646023
241	6	4	0.021148918	-1.4777273	2.2508405	57.162928
242	6	3	-0.47196187	-1.7207643	3.305426	56.179658
243	6	1	0.77647997	-1.3480928	4.6636385	56.428463
244	6	2	-0.63168197	-0.79728497	4.9924409	57.513004
245	6	5	0.318485	-2.1723703	3.0824564	55.263297
246	6	6	0.045621184	-0.38671672	2.1937023	57.36024
247	6	6	0.045621184	-2.0033764	2.5066044	58.109005
248	6	7	0.079962318	-1.4121716	0.60038638	55.740526
249	6	7	0.079962318	-3.0446773	1.0089172	56.339115
250	6	7	0.078992022	-2.5542341	0.078975282	58.573418
251	6	7	0.078992022	-2.3644078	-1.139218	57.280852
252	6	7	0.078992022	-0.064418855	0.35090989	58.72386
253	6	7	0.078992022	-0.60817903	-1.3269477	59.005542
254	6	7	0.079962318	0.64428653	-0.23124794	56.405403
255	6	7	0.079962318	-0.050655238	-1.8908547	56.582548
256	6	6	0.042169986	1.5725943	-2.3641805	58.428895
257	6	6	0.042169986	2.2496985	-0.6956118	58.26438
258	6	5	0.31189652	2.35995	-1.9801357	55.661484
259	7	8	-0.49872728	-1.5325771	5.3878712	55.709576
260	7	4	0.13960679	-2.8015722	5.114036	55.180453
261	7	4	-0.098838078	-2.7454064	3.8994431	54.239329
262	7	7	0.1035292	-2.3742973	3.0167048	54.807495
263	7	4	-0.16008508	-4.1143307	3.5530352	53.65612
264	7	7	0.10840268	-4.7252975	4.4724118	53.512844
265	7	7	0.10840268	-4.6693164	2.8728192	54.337811
266	7	4	-0.078297871	-3.8283577	2.8656182	52.314878
267	7	7	0.12003262	-3.9556449	1.7644689	52.422874
268	7	4	-0.10818672	-4.6514616	3.4265575	51.127729
269	7	7	0.11442964	-5.724352	3.6061623	51.351862
270	7	4	-0.16160584	-4.4148209	2.5237249	49.900471
271	7	7	0.10835063	-4.5610907	1.4485125	50.144335
272	7	7	0.10835063	-5.1213007	2.8027379	49.087593
273	7	4	-0.063816699	-2.9445156	2.8282579	49.523925
274	7	4	0.060558101	-2.7908323	3.297265	48.067436
275	7	8	-0.1477893	-1.4380981	3.5261549	47.784063
276	7	6	0.089397905	-3.374202	4.2255085	47.884238
277	7	6	0.089397905	-3.1774187	2.5019737	47.391534
278	7	7	0.11398156	-2.3208139	1.9140222	49.654302
279	7	4	-0.095187085	-2.5570027	3.919373	50.556637
280	7	7	0.12452104	-1.6971061	4.5574693	50.261128
281	7	4	-0.14076127	-3.8689547	4.6606784	50.73784
282	7	7	0.10278313	-4.2464129	5.1378805	49.806966
283	7	7	0.10278313	-3.8368153	5.4336168	51.53741
284	7	4	-0.074238913	-2.3830823	3.2188436	51.928763
285	7	7	0.11918661	-1.7552689	2.3028004	51.853476
286	7	4	-0.16121534	-1.829839	4.1244463	53.035964
287	7	7	0.10840267	-0.78263294	3.8479929	53.283486
288	7	7	0.10840267	-1.8404187	5.1931958	52.726074
289	7	6	0.081289855	-3.1558773	6.0104412	54.627115
290	7	6	0.081289855	-3.5259471	4.920195	56.005273
291	4	1	0.53755159	4.6070763	-2.840308	56.154447
292	4	2	-0.72152202	4.0981204	-3.4369814	55.168894
293	4	3	-0.52891802	6.0167285	-2.5977714	56.219697
294	4	4	0.027101362	6.9423866	-3.02445	55.171786
295	4	4	-0.14893323	7.1922578	-4.5334738	55.258714
296	4	4	-0.14524748	8.1811578	-4.9903563	54.174996
297	4	4	-0.14102736	8.5611088	-6.4735652	54.307606
298	4	4	-0.12523431	7.4114969	-7.416508	53.917522
299	4	4	0.1806162	7.8430851	-8.8909206	53.955849
300	4	3	-0.68738251	8.8702453	-9.1806942	52.959215
301	4	9	0.59068025	8.6273171	-9.1427843	51.710485
302	4	2	-0.52110909	8.3908555	-9.1040099	50.495849
303	4	6	0.022617647	6.9588891	-9.543103	53.781732
304	4	6	0.022617647	8.2435596	-9.1308501	54.963774
305	4	7	0.073650671	6.5698287	-7.2921469	54.631338
306	4	7	0.073650671	7.0381707	-7.1637895	52.901571
307	4	7	0.077727271	8.8900801	-6.6867618	55.348388
308	4	7	0.077727271	9.4277705	-6.6619474	53.63675
309	4	7	0.078992022	9.111776	-4.3894616	54.263179
310	4	7	0.078992022	7.7519107	-4.8000556	53.166718
311	4	7	0.079962318	6.2279037	-5.0677204	55.133708
312	4	7	0.079962318	7.6032287	-4.7740503	56.264107
313	4	6	0.042169986	6.5309316	-2.7541895	54.174179
314	4	6	0.042169986	7.9059129	-2.4862156	55.302216
315	4	5	0.31189655	6.3865659	-2.0399769	57.021943
316	5	8	-0.14612895	-1.400578	3.8182683	46.835606
317	5	4	0.060705894	-2.7068073	3.721096	46.334085
318	5	4	-0.090909856	-3.0800379	2.2510012	46.081536
319	5	7	0.10633593	-3.0003284	1.6861277	47.037874
320	5	4	-0.16099656	-4.5056346	2.097353	45.552612
321	5	7	0.1082951	-4.7873858	2.9682958	44.920282
322	5	7	0.1082951	-5.2308751	2.0329792	46.39329
323	5	4	-0.077630813	-4.5045851	0.79982235	44.735969
324	5	7	0.12003262	-4.9807061	-0.015867839	45.32501
325	5	4	-0.10818672	-5.1372343	0.93724217	43.327657
326	5	7	0.11442964	-6.0846953	1.5171349	43.300395
327	5	4	-0.15608493	-5.2490008	-0.46734167	42.703423
328	5	7	0.10835063	-5.7314775	-1.1911509	43.397075
329	5	7	0.10835063	-5.8516488	-0.41735996	41.768899
330	5	4	-0.10638812	-3.7728105	-0.84172381	42.424454
331	5	4	0.13831292	-3.5226238	-1.2038384	40.95085
332	5	10	-0.68321674	-2.1792147	-1.5602457	40.772077
333	5	11	0.37162061	-2.0793773	-1.787136	39.810941
334	5	6	0.072778133	-3.7764242	-0.35234484	40.281772
335	5	6	0.072778133	-4.1696551	-2.0675075	40.677661
336	5	7	0.11403621	-3.47932	-1.7187843	43.045004
337	5	4	-0.088791037	-3.0169742	0.43640351	42.871398
338	5	7	0.12452104	-2.0053804	0.56049634	42.427695
339	5	4	-0.14076127	-4.0072974	1.5295716	42.515504
340	5	7	0.10278313	-4.2388718	1.5870916	41.428519
341	5	7	0.10278313	-3.6983888	2.5400813	42.859777
342	5	4	-0.073576631	-3.036452	0.46929028	44.421869
343	5	7	0.11918661	-2.7448993	-0.51009384	44.863827
344	5	4	-0.16213295	-2.1823031	1.579973	45.042712
345	5	7	0.10829505	-1.2746863	1.1569599	45.525121
346	5	7	0.10829505	-1.8535016	2.3131626	44.272791
347	5	6	0.089522225	-2.7664812	4.298915	45.386406
348	5	6	0.089522225	-3.4260293	4.1760206	47.05199
349	6	1	0.53755153	-1.8826523	2.9518789	70.793864
350	6	2	-0.72152202	-2.2311925	2.9540423	69.582779
351	6	3	-0.52891796	-2.1984344	1.8474306	71.644937
352	6	4	0.027101358	-2.9338357	0.68416073	71.150831
353	6	4	-0.14893323	-3.1332993	-0.34927148	72.264011
354	6	4	-0.1454352	-3.8899828	-1.5815698	71.745448
355	6	4	-0.1454352	-4.2760067	-2.5645016	72.865106
356	6	4	-0.14766255	-3.0890087	-3.1753976	73.632134
357	6	4	0.021148918	-2.1597051	-4.0067731	72.737626
358	6	3	-0.47196187	-1.1550622	-4.7043319	73.538963
359	6	1	0.77647997	-0.17405832	-5.5542747	72.938332
360	6	2	-0.63168197	-0.14985855	-5.7290953	71.690701
361	6	5	0.318485	-1.131861	-4.5892433	74.577999
362	6	6	0.045621184	-1.639815	-3.341884	72.01642
363	6	6	0.045621184	-2.7588313	-4.7544782	72.173029
364	6	7	0.079962318	-2.5088895	-2.3795133	74.145326
365	6	7	0.079962318	-3.5040413	-3.8365328	74.422901
366	6	7	0.078992022	-4.8766561	-3.3883036	72.41979
367	6	7	0.078992022	-4.934383	-2.0405326	73.590659
368	6	7	0.078992022	-3.2874846	-2.0986084	70.968246
369	6	7	0.078992022	-4.8297503	-1.2449194	71.256096
370	6	7	0.079962318	-2.1361002	-0.6559087	72.644355
371	6	7	0.079962318	-3.7069531	0.11690936	73.095789
372	6	6	0.042169986	-3.9240694	1.0148367	70.768868
373	6	6	0.042169986	-2.3640858	0.22122873	70.314671
374	6	5	0.31189652	-1.8878111	1.8923994	72.64224
375	7	8	-0.49872728	0.52617817	-6.0333847	73.534544
376	7	4	0.13960679	-0.15555974	-6.4779756	74.675981
377	7	4	-0.098838078	-0.45813688	-5.3015913	75.618675
378	7	7	0.1035292	-1.0776126	-4.5518777	75.076512
379	7	4	-0.16008508	-1.2205877	-5.7399108	76.867926
380	7	7	0.10840268	-0.92296651	-6.7691315	77.169901
381	7	7	0.10840268	-2.3157775	-5.7391843	76.678283
382	7	4	-0.078297871	-0.8549512	-4.7187877	77.952763
383	7	7	0.12003262	-1.6935464	-3.9984807	78.088081
384	7	4	-0.10818672	-0.41802474	-5.3528105	79.2976
385	7	7	0.11442964	-1.0488055	-6.2020926	79.635864
386	7	4	-0.16160584	-0.27525672	-4.2286553	80.343142
387	7	7	0.10835063	-1.1731576	-3.572904	80.369794
388	7	7	0.10835063	-0.12917528	-4.6718757	81.353067
389	7	4	-0.063816699	0.97790149	-3.4603405	79.857744
390	7	4	0.060558101	2.066447	-3.3587229	80.939265
391	7	8	-0.1477893	3.1562234	-2.6289367	80.446943
392	7	6	0.089397905	2.4052783	-4.3677948	81.259398
393	7	6	0.089397905	1.6442146	-2.8340022	81.825363
394	7	7	0.11398156	0.69734326	-2.423968	79.559334
395	7	4	-0.095187085	1.4217504	-4.2940142	78.626817
396	7	7	0.12452104	2.4876225	-4.1708276	78.339317
397	7	4	-0.14076127	1.0316115	-5.7005872	79.042666
398	7	7	0.10278313	1.5581851	-6.0610165	79.953453
399	7	7	0.10278313	1.1690519	-6.4568867	78.238365
400	7	4	-0.074238913	0.41928483	-3.9999905	77.481247
401	7	7	0.11918661	0.23800119	-2.9091005	77.354566
402	7	4	-0.16121534	0.80668506	-4.6111154	76.129014
403	7	7	0.10840267	1.1348711	-3.8211724	75.420058
404	7	7	0.10840267	1.6383068	-5.3421844	76.239975
405	7	6	0.081289855	0.47570266	-7.2312513	75.194962
406	7	6	0.081289855	-1.1058465	-6.9810753	74.381928
407	4	1	0.53755159	-1.3378088	3.7969199	71.192141
408	4	2	-0.72152202	-1.557219	4.1738235	72.373739
409	4	3	-0.52891802	-0.37136835	4.4656351	70.374209
410	4	4	0.027101362	0.40449738	5.6123745	70.843288
411	4	4	-0.14893323	-0.46251722	6.8753495	70.861312
412	4	4	-0.14524748	0.34862584	8.0924133	71.332388
413	4	4	-0.14102736	-0.44588625	9.4047578	71.240959
414	4	4	-0.12523431	-1.5548193	9.5007131	72.301135
415	4	4	0.1806162	-2.2679264	10.861421	72.261351
416	4	3	-0.68738251	-1.3675199	11.955341	72.614781
417	4	9	0.59068025	-0.8929837	12.085047	73.788566
418	4	2	-0.52110909	-0.43027611	12.209687	74.930111
419	4	6	0.022617647	-3.1336364	10.849477	72.959824
420	4	6	0.022617647	-2.6642319	11.039229	71.239008
421	4	7	0.073650671	-2.3166648	8.7143987	72.114839
422	4	7	0.073650671	-1.1302355	9.3319857	73.314374
423	4	7	0.077727271	-0.88323346	9.5104904	70.223879
424	4	7	0.077727271	0.26904957	10.243833	71.387445
425	4	7	0.078992022	1.2498449	8.1924825	70.689977
426	4	7	0.078992022	0.69588203	7.9341946	72.377123
427	4	7	0.079962318	-1.3232692	6.7136662	71.54248
428	4	7	0.079962318	-0.85177323	7.0607178	69.835784
429	4	6	0.042169986	0.80892712	5.4025479	71.85816
430	4	6	0.042169986	1.2647471	5.7692254	70.157388
431	4	5	0.31189655	-0.1727184	4.0774791	69.424795
432	5	8	-0.14612895	3.8191702	-2.5912515	81.185448
433	5	4	0.060705894	3.216174	-3.1979075	82.297008
434	5	4	-0.090909856	2.1643579	-2.263548	82.917424
435	5	7	0.10633593	1.3914146	-2.0267205	82.151598
436	5	4	-0.16099656	1.4667366	-2.8945134	84.121958
437	5	7	0.1082951	2.1624684	-3.5646616	84.673886
438	5	7	0.1082951	0.59199832	-3.4990653	83.796064
439	5	4	-0.077630813	1.0184045	-1.7205084	85.00014
440	5	7	0.12003262	-0.073098016	-1.5469751	84.867778
441	5	4	-0.10818672	1.4007708	-1.8656434	86.495199
442	5	7	0.11442964	1.2231264	-2.8758824	86.922471
443	5	4	-0.15608493	0.7243248	-0.72813952	87.284833
444	5	7	0.10835063	-0.36146712	-0.65311953	87.054041
445	5	7	0.10835063	0.84237485	-0.90596052	88.37729
446	5	4	-0.10638812	1.4960038	0.52851028	86.813171
447	5	4	0.13831292	2.113464	1.3164598	87.980692
448	5	10	-0.68321674	2.7698084	2.45335	87.490359
449	5	11	0.37162061	3.1407549	2.9213767	88.283189
450	5	6	0.072778133	2.8308161	0.6871151	88.552053
451	5	6	0.072778133	1.2998344	1.6331715	88.671277
452	5	7	0.11403621	0.80893595	1.2133592	86.26602
453	5	4	-0.088791037	2.5594418	-0.074669852	85.859268
454	5	7	0.12452104	3.4544261	0.56341814	85.693615
455	5	4	-0.14076127	2.844322	-1.4149657	86.511086
456	5	7	0.10278313	3.2612328	-1.332797	87.539632
457	5	7	0.10278313	3.5172299	-2.0670594	85.913552
458	5	4	-0.073576631	1.8303378	-0.49302056	84.555884
459	5	7	0.11918661	1.1611158	0.31128317	84.17541
460	5	4	-0.16213295	2.7614168	-0.9531084	83.428922
461	5	7	0.10829505	2.7997628	-0.19697857	82.61515
462	5	7	0.10829505	3.7979362	-1.1108449	83.802021
463	5	6	0.089522225	4.0053042	-3.4342516	83.043296
464	5	6	0.089522225	2.738926	-4.1576661	81.995806
465	6	1	0.53755153	3.5182576	0.86503943	109.13854
466	6	2	-0.72152202	4.3016088	0.5475447	110.07329
467	6	3	-0.52891796	3.7090085	0.35321494	107.81736
468	6	4	0.027101358	4.8122116	-0.55155481	107.49723
469	6	4	-0.14893323	4.7813177	-0.9487039	106.01795
470	6	4	-0.1454352	5.9280801	-1.9135881	105.68035
471	6	4	-0.1454352	6.0506792	-2.1966343	104.17249
472	6	4	-0.14766255	4.8220141	-2.8710609	103.53529
473	6	4	0.021148918	4.5192182	-4.2528375	104.13022
474	6	3	-0.47196187	3.4592091	-4.9214695	103.377
475	6	1	0.77647997	2.9996688	-6.2295092	103.72826
476	6	2	-0.63168197	3.5020565	-6.8486253	104.70398
477	6	5	0.318485	3.0086328	-4.4478396	102.56089
478	6	6	0.045621184	4.1905869	-4.1431826	105.18496
479	6	6	0.045621184	5.4377199	-4.879161	104.10092
480	6	7	0.079962318	3.930096	-2.2156296	103.626
481	6	7	0.079962318	5.0288768	-2.990373	102.4501
482	6	7	0.078992022	6.9405861	-2.8432559	104.00611
483	6	7	0.078992022	6.2435343	-1.2392563	103.64271
484	6	7	0.078992022	5.8038572	-2.8635866	106.24289
485	6	7	0.078992022	6.8867998	-1.4615047	106.01567
486	6	7	0.079962318	3.8071525	-1.4365806	105.8033
487	6	7	0.079962318	4.8694983	-0.03254558	105.39254
488	6	6	0.042169986	5.7755558	-0.046325096	107.72639
489	6	6	0.042169986	4.7285275	-1.4651243	108.12689
490	6	5	0.31189652	3.032659	0.64587587	107.07573
491	7	8	-0.49872728	2.2446223	-6.6755728	103.17483
492	7	4	0.13960679	2.5065679	-6.3824261	101.82919
493	7	4	-0.098838078	2.1547659	-4.9189401	101.51526
494	7	7	0.1035292	2.7577372	-4.2516914	102.17174
495	7	4	-0.16008508	2.4455841	-4.5509156	100.06128
496	7	7	0.10840268	2.2849312	-5.4270582	99.393727
497	7	7	0.10840268	3.4995489	-4.2175734	99.945318
498	7	4	-0.078297871	1.4740238	-3.4131563	99.722418
499	7	7	0.12003262	2.015536	-2.4400625	99.738164
500	7	4	-0.10818672	0.69659138	-3.6179309	98.3976
501	7	7	0.11442964	1.3136973	-3.9856579	97.550521
502	7	4	-0.16160584	-0.082546278	-2.3248021	98.084504
503	7	7	0.10835063	0.56839667	-1.4251391	98.146357
504	7	7	0.10835063	-0.51058565	-2.3835478	97.059289
505	7	4	-0.063816699	-1.1818014	-2.3094427	99.174333
506	7	4	0.060558101	-2.5995273	-2.223433	98.584755
507	7	8	-0.1477893	-3.5414904	-2.1834191	99.620943
508	7	6	0.089397905	-2.808513	-3.0908283	97.921831
509	7	6	0.089397905	-2.680744	-1.2929392	97.979473
510	7	7	0.11398156	-1.0393617	-1.4321554	99.846573
511	7	4	-0.095187085	-0.91852368	-3.6389509	99.929505
512	7	7	0.12452104	-1.7872366	-4.0320898	100.49933
513	7	4	-0.14076127	-0.42607391	-4.542069	98.813505
514	7	7	0.10278313	-1.1740098	-4.7067423	98.007157
515	7	7	0.10278313	-0.071565662	-5.5352065	99.16816
516	7	4	-0.074238913	0.3612416	-3.442674	100.78238
517	7	7	0.11918661	0.33608565	-2.4919191	101.36064
518	7	4	-0.16121534	0.67400456	-4.6063392	101.73114
519	7	7	0.10840267	0.48504019	-4.3149378	102.78647
520	7	7	0.10840267	0.045113791	-5.4950445	101.50078
521	7	6	0.081289855	1.9028523	-7.0656157	101.19355
522	7	6	0.081289855	3.5808708	-6.5708918	101.59903
523	4	1	0.53755159	2.6920164	1.5329278	109.34059
524	4	2	-0.72152202	2.346216	2.371884	108.46712
525	4	3	-0.52891802	2.0005634	1.4458669	110.59139
526	4	4	0.027101362	0.87448228	2.3123998	110.93501
527	4	4	-0.14893323	1.3693492	3.7156794	111.29979
528	4	4	-0.14524748	0.19565216	4.6299857	111.68396
529	4	4	-0.14102736	0.65755693	6.0082821	112.18276
530	4	4	-0.12523431	1.2161966	6.8897855	111.05414
531	4	4	0.1806162	1.5746221	8.2984961	111.55283
532	4	3	-0.68738251	0.39359605	9.0314156	112.00039
533	4	9	0.59068025	-0.51661441	9.4013159	111.1914