Title

9375 atoms
9250 bonds
17125 angles
29125 dihedrals
1500 impropers

8 atom types
11 bond types
5 angle types
27 dihedral types
2 improper types
-12.63399982 87.36600018 xlo xhi
-12.89179993 87.10820007 ylo yhi
-13.72939968 86.27060032 zlo zhi
0.0 0.0 0.0 xy xz yz

Masses

1	15.99943
2	12.01078
3	1.007947
4	1.007947
5	12.01078
6	15.99943
7	15.99943
8	1.007947


Pair Coeffs

1	0.16846514	3.0251065
2	0.10884061	3.3795318
3	0.016409246	2.5832257
4	0.015779483	2.6445434
5	0.086879315	3.4806469
6	0.2102061	3.0398122
7	0.20947353	2.99716
8	1.2326e-05	0.53453923

Bond Coeffs

1 harmonic	366.7408841747	1.425895053732
2 harmonic	300.03137914615	1.451203938761
3 harmonic	264.62148576755	1.52190126495
4 harmonic	370.04670688625	1.093899492634
5 harmonic	301.15400723785	1.345741232799
6 harmonic	582.698766451	1.225198386222
7 harmonic	329.44145381095	1.523435958334
8 harmonic	279.1350963404	1.454628925034
9 harmonic	329.96998057905	1.427343958716
10 harmonic	543.5267831885	0.9716763312559
11 harmonic	385.7604595587	1.369745182308


Angle Coeffs

1 harmonic	53.20531626545	116.5475862634
2 harmonic	65.09061609600001	110.3538806181
3 harmonic	201.41175231035	127.4691416191
4 harmonic	57.8982893754	126.8062420451
5 harmonic	48.776492647595	115.6030999533


Dihedral Coeffs

1 fourier 1	0.1155372516788	3	0
2 fourier 1	0.1115525666802	3	0
3 fourier 1	0.3432490222662	1	0
4 fourier 1	0.0473758381877	3	0
5 fourier 1	0.457973137376	1	0
6 fourier 1	0.09223874044423	3	0
7 fourier 1	0.3159935921949	2	180
8 fourier 1	0.3247796806857	1	180
9 fourier 1	0.1040663847541	3	0
10 fourier 1	0.1918272375143	3	0
11 fourier 1	0.9202179876409	1	180
12 fourier 1	1.163809172478	2	180
13 fourier 1	0.1679186987369	1	180
14 fourier 1	2.779853741805	2	180
15 fourier 1	0.02664938770063	3	0
16 fourier 1	0.1911926717192	3	0
17 fourier 1	-0.3703352413219	2	0
18 fourier 1	0.4541676554336	1	0
19 fourier 1	0.1489710476446	2	0
20 fourier 1	0.02960027280666	3	180
21 fourier 1	0.9974165607242	2	180
22 fourier 1	0.3445382149273	3	0
23 fourier 1	0.1364556373303	1	0
24 fourier 1	0.3026390167484	3	0
25 fourier 1	2.687457892086	2	180
26 fourier 1	2.772607909663	2	180
27 fourier 1	0.09692684957115	1	0


Improper Coeffs

1 3.5	-1	2
2 0.3666666666666667	-1	2


Atoms

1	4	1	-0.17854001	2.5420001	-0.0603	5.8232999
2	4	2	0.033280998	1.5461	-0.52280003	4.9527001
3	4	2	-0.14809	2.0783	-0.57270002	3.5179999
4	4	2	-0.14005101	0.99309999	-1.0441	2.5423
5	4	2	-0.14185999	1.5288	-1.0937001	1.1066
6	4	2	0.13516	0.44780001	-1.564	0.1296
7	4	1	-0.494515	0.96619999	-1.6321	-1.1705
8	4	3	0.079149999	-0.428	-0.87629998	0.1602
9	4	3	0.079149999	0.099200003	-2.5773001	0.42160001
10	4	4	0.086097002	1.8767999	-0.081900001	0.80549997
11	4	4	0.086097002	2.3924999	-1.7931	1.0553
12	4	4	0.083894998	0.6462	-2.0583	2.8401
13	4	4	0.083894998	0.1284	-0.34580001	2.5876999
14	4	4	0.087116003	2.9444001	-1.2688	3.4741001
15	4	4	0.087116003	2.4261	0.4427	3.2251
16	4	3	0.078768	1.1936001	-1.5305001	5.2704
17	4	3	0.078768	0.68300003	0.1745	5.0040002
18	5	5	0.76172203	1.0204	-0.65450001	-1.5204999
19	5	6	-0.55483299	0.4756	0.2385	-0.89270002
20	5	2	-0.208616	1.8022	-0.35010001	-2.7658
21	5	2	-0.115977	0.89279997	-0.051399998	-3.9672999
22	5	2	-0.130817	0.2322	1.3325	-3.8803999
23	5	2	-0.097687997	-0.57080001	1.6386	-5.1504002
24	5	2	-0.257673	-1.2367001	3.0153	-5.0615001
25	5	5	0.51703101	-2.0404999	3.303	-6.2933998
26	5	6	-0.68707001	-1.4907	3.4342	-7.3751001
27	5	4	0.113648	-1.9124	3.0458	-4.1787
28	5	4	0.113648	-0.465	3.8062999	-4.9390998
29	5	4	0.076943003	0.1094	1.6138	-6.0296998
30	5	4	0.076943003	-1.354	0.86000001	-5.2870998
31	5	4	0.074132003	1.0173	2.1092	-3.7472
32	5	4	0.074132003	-0.45140001	1.3657	-3.0058999
33	5	4	0.085735999	0.1131	-0.84039998	-4.0531001
34	5	4	0.085735999	1.516	-0.092699997	-4.8863001
35	5	4	0.116901	2.4983001	0.4955	-2.5799
36	5	4	0.116901	2.4193001	-1.2414	-3.0109
37	1	1	-0.17854001	3.1700001	-0.81739998	5.9636998
38	1	2	0.033280998	2.5869	-1.6466	6.9309001
39	1	2	-0.14803401	2.7471001	-1.0304	8.3238001
40	1	2	-0.134554	2.1456001	-1.9387	9.4021997
41	1	2	-0.17001	2.3062	-1.3196	10.7958
42	1	2	0.086474001	1.7067	-2.2237999	11.8744
43	1	7	-0.684614	1.8363	-1.6256	13.1355
44	1	8	0.37799901	2.7843001	-1.7407	13.4083
45	1	3	0.069101997	2.2060001	-3.2195001	11.8668
46	1	3	0.069101997	0.62580001	-2.3798001	11.67
47	1	4	0.089469001	3.3861001	-1.1633	11.0098
48	1	4	0.089469001	1.7952	-0.33160001	10.825
49	1	4	0.084072001	1.0635999	-2.0931001	9.1906996
50	1	4	0.084072001	2.6552	-2.9275	9.3787003
51	1	4	0.087116003	2.2383001	-0.041900001	8.3450003
52	1	4	0.087116003	3.8295	-0.87589997	8.5289001
53	1	3	0.078768	1.5084	-1.8095	6.7002001
54	1	3	0.078768	3.0964	-2.6331	6.9008999
55	2	5	0.51703101	-3.119	3.4115	-6.2248001
56	2	6	-0.68707001	-3.5985999	4.5268998	-6.1117001
57	2	2	-0.257673	-4.0204	2.2109001	-6.2716999
58	2	2	-0.097687997	-3.2356999	0.89499998	-6.3751001
59	2	2	-0.130817	-2.5095	0.54790002	-5.0665002
60	2	2	-0.11346	-1.7651	-0.78969997	-5.1901999
61	2	2	-0.218713	-0.9763	-1.1345	-3.9196
62	2	5	0.82386303	-1.8835	-1.4426	-2.7683001
63	2	6	-0.55628699	-2.4412999	-2.5696001	-2.6875
64	2	7	-0.665438	-2.1364	-0.4702	-1.8056
65	2	8	0.39418799	-2.7586	-0.65829998	-1.0285
66	2	4	0.117925	-0.29980001	-0.29460001	-3.6515
67	2	4	0.117925	-0.34009999	-2.0239	-4.1212001
68	2	4	0.085735999	-2.4856	-1.6058	-5.4161
69	2	4	0.085735999	-1.0474	-0.72589999	-6.0366998
70	2	4	0.074132003	-1.7811	1.3499	-4.8178
71	2	4	0.074132003	-3.2557001	0.48320001	-4.2452002
72	2	4	0.076943003	-3.9538	0.080200002	-6.6142998
73	2	4	0.076943003	-2.5058999	0.958	-7.2125001
74	2	4	0.113648	-4.6792998	2.3036001	-7.1606002
75	2	4	0.113648	-4.6669002	2.1956	-5.3678002
76	4	1	-0.17854001	1.5671	-0.31119999	33.759102
77	4	2	0.033280998	0.6103	0.0126	32.7878
78	4	2	-0.14809	0.7723	-0.89139998	31.562901
79	4	2	-0.14005101	-0.2439	-0.53119999	30.4722
80	4	2	-0.14185999	-0.079899997	-1.4382	29.247
81	4	2	0.13516	-1.0931	-1.0814	28.155899
82	4	1	-0.494515	-0.94700003	-1.9412	27.0592
83	4	3	0.079149999	-0.96160001	-0.022399999	27.8363
84	4	3	0.079149999	-2.1234	-1.1943001	28.555099
85	4	4	0.086097002	0.9483	-1.3284	28.839399
86	4	4	0.086097002	-0.2288	-2.4993	29.546499
87	4	4	0.083894998	-1.2739	-0.64399999	30.877501
88	4	4	0.083894998	-0.096900001	0.52829999	30.167101
89	4	4	0.087116003	0.6279	-1.9505	31.869301
90	4	4	0.087116003	1.8039	-0.77710003	31.162201
91	4	3	0.078768	-0.41600001	-0.086300001	33.2094
92	4	3	0.078768	0.75760001	1.0721999	32.488899
93	5	5	0.76172203	-0.1033	-1.6223	26.5418
94	5	6	-0.55483299	0.40580001	-0.55080003	26.8267
95	5	2	-0.208616	0.50019997	-2.5013001	25.484501
96	5	2	-0.115977	0.22040001	-1.9836	24.065599
97	5	2	-0.130817	1.0602	-0.74769998	23.709801
98	5	2	-0.097687997	0.83859998	-0.3348	22.249701
99	5	2	-0.257673	1.6695	0.90259999	21.896
100	5	5	0.51703101	1.4337	1.3191	20.4757
101	5	6	-0.68707001	1.7771	0.59719998	19.5534
102	5	4	0.113648	1.3882999	1.7441	22.566601
103	5	4	0.113648	2.7516	0.68959999	22.0366
104	5	4	0.076943003	1.1272	-1.1762	21.582399
105	5	4	0.076943003	-0.2397	-0.1108	22.0903
106	5	4	0.074132003	2.1375999	-0.9752	23.866699
107	5	4	0.074132003	0.77670002	0.098999999	24.370001
108	5	4	0.085735999	-0.8624	-1.7517999	23.957399
109	5	4	0.085735999	0.4632	-2.7983999	23.350201
110	5	4	0.116901	1.5927	-2.6064	25.6563
111	5	4	0.116901	0.049600001	-3.5128	25.579901
112	1	1	-0.17854001	1.2559	-1.1476001	34.195999
113	1	2	0.033280998	0.2947	-0.77060002	35.142899
114	1	2	-0.14803401	0.97369999	-0.17380001	36.379101
115	1	2	-0.134554	-0.059099998	0.2145	37.443298
116	1	2	-0.17001	0.62269998	0.81260002	38.679699
117	1	2	0.086474001	-0.40549999	1.2013	39.743698
118	1	7	-0.684614	0.23559999	1.7738	40.8512
119	1	8	0.37799901	0.64499998	1.0257	41.360298
120	1	3	0.069101997	-0.99440002	0.30950001	40.057598
121	1	3	0.069101997	-1.1116	1.9487	39.322701
122	1	4	0.089469001	1.3291	0.069200002	39.1096
123	1	4	0.089469001	1.2	1.717	38.385101
124	1	4	0.084072001	-0.76480001	0.96130002	37.014999
125	1	4	0.084072001	-0.63749999	-0.68730003	37.743099
126	1	4	0.087116003	1.5522	0.72659999	36.0774
127	1	4	0.087116003	1.6794	-0.9228	36.801498
128	1	3	0.078768	-0.41749999	-0.036600001	34.698898
129	1	3	0.078768	-0.2823	-1.6733	35.436199
130	2	5	0.51703101	0.96799999	2.2765	20.2609
131	2	6	-0.68707001	1.6745	3.2426	20.027599
132	2	2	-0.257673	-0.52679998	2.4215	20.2439
133	2	2	-0.097687997	-1.2449	1.1116	20.599899
134	2	2	-0.130817	-1.0963	0.75379997	22.086599
135	2	2	-0.11346	-1.8548	-0.53979999	22.4181
136	2	2	-0.218713	-1.6736	-0.95959997	23.8832
137	2	5	0.82386303	-2.3503001	-0.0086000003	24.821899
138	2	6	-0.55628699	-3.5971999	-0.070200004	24.9935
139	2	7	-0.665438	-1.6046	0.9655	25.4786
140	2	8	0.39418799	-2.0495999	1.625	26.1059
141	2	4	0.117925	-0.59200001	-1.0259	24.129499
142	2	4	0.117925	-2.1104	-1.9723001	24.024099
143	2	4	0.085735999	-2.937	-0.4129	22.196501
144	2	4	0.085735999	-1.4696	-1.3589	21.773001
145	2	4	0.074132003	-0.0209	0.6207	22.334499
146	2	4	0.074132003	-1.4985	1.5881	22.7012
147	2	4	0.076943003	-2.3253	1.2331001	20.365999
148	2	4	0.076943003	-0.85350001	0.285	19.966499
149	2	4	0.113648	-0.83600003	2.7313001	19.2234
150	2	4	0.113648	-0.8308	3.2235	20.950701
151	4	1	-0.17854001	-0.70230001	-4.6111002	50.902901
152	4	2	0.033280998	-0.70319998	-4.2305999	52.251499
153	4	2	-0.14809	-1.1545	-2.7742	52.390499
154	4	2	-0.14005101	-1.1301	-2.3259001	53.856899
155	4	2	-0.14185999	-1.5829	-0.86750001	53.993401
156	4	2	0.13516	-1.5599	-0.41639999	55.456402
157	4	1	-0.494515	-2.0063	0.90759999	55.562199
158	4	3	0.079149999	-0.53200001	-0.51179999	55.875198
159	4	3	0.079149999	-2.2360001	-1.0633	56.054699
160	4	4	0.086097002	-0.90880001	-0.2128	53.399601
161	4	4	0.086097002	-2.6170001	-0.75989997	53.597401
162	4	4	0.083894998	-1.8072	-2.9779	54.452099
163	4	4	0.083894998	-0.097099997	-2.4286001	54.256401
164	4	4	0.087116003	-2.1861	-2.6719	51.9884
165	4	4	0.087116003	-0.4763	-2.1262	51.792301
166	4	3	0.078768	-1.3699	-4.9007001	52.8409
167	4	3	0.078768	0.32879999	-4.3386002	52.6479
168	5	5	0.76172203	-1.2227	1.5118999	55.243
169	5	6	-0.55483299	-0.1183	1.0222	55.0728
170	5	2	-0.208616	-1.4701999	2.9647	54.9552
171	5	2	-0.115977	-0.88889998	3.8821001	56.041401
172	5	2	-0.130817	0.64170003	3.9888	55.969601
173	5	2	-0.097687997	1.1703	5.0021	56.992001
174	5	2	-0.257673	2.6975	5.1033001	56.9268
175	5	5	0.51703101	3.2144001	6.0763998	57.942799
176	5	6	-0.68707001	2.9475	7.2641001	57.854801
177	5	4	0.113648	3.1457	4.1055002	57.1273
178	5	4	0.113648	3.016	5.4330001	55.913898
179	5	4	0.076943003	0.7252	5.9995999	56.784
180	5	4	0.076943003	0.86659998	4.6855001	58.014599
181	5	4	0.074132003	0.9425	4.3085999	54.947601
182	5	4	0.074132003	1.0953	2.997	56.178699
183	5	4	0.085735999	-1.1981	3.5171001	57.045898
184	5	4	0.085735999	-1.3243999	4.8948998	55.902699
185	5	4	0.116901	-1.0609	3.2291	53.956799
186	5	4	0.116901	-2.5694001	3.1252	54.917099
187	1	1	-0.17854001	-1.6511	-4.7638998	50.6506
188	1	2	0.033280998	-1.9836	-6.0475001	51.103001
189	1	2	-0.14803401	-1.3861001	-7.1085	50.174
190	1	2	-0.134554	-1.7667	-8.5209999	50.631802
191	1	2	-0.17001	-1.1669	-9.5817003	49.701
192	1	2	0.086474001	-1.5448999	-10.9927	50.1553
193	1	7	-0.684614	-0.96160001	-11.9468	49.310001
194	1	8	0.37799901	-1.4982001	-11.9516	48.474201
195	1	3	0.069101997	-2.6522999	-11.1128	50.166
196	1	3	0.069101997	-1.1707	-11.1636	51.187401
197	1	4	0.089469001	-1.5394	-9.4198999	48.665798
198	1	4	0.089469001	-0.0583	-9.4870005	49.694801
199	1	4	0.084072001	-1.3914	-8.6852999	51.666901
200	1	4	0.084072001	-2.8748	-8.6216002	50.637299
201	1	4	0.087116003	-0.27900001	-7.0056	50.1689
202	1	4	0.087116003	-1.7622	-6.9382	49.140999
203	1	3	0.078768	-1.6192	-6.1956	52.146198
204	1	3	0.078768	-3.0903001	-6.1416001	51.1101
205	2	5	0.51703101	3.8443	5.7284999	58.756401
206	2	6	-0.68707001	5.0563998	5.7904	58.6385
207	2	2	-0.257673	3.2426	5.1795998	60.018299
208	2	2	-0.097687997	1.7082	5.1430001	59.966099
209	2	2	-0.130817	1.1858	4.0606999	59.009102
210	2	2	-0.11346	-0.3495	4.0249	59.006901
211	2	2	-0.218713	-0.90460002	2.9963	58.012199
212	2	5	0.82386303	-0.60829997	1.5921	58.440899
213	2	6	-0.55628699	-1.3019	1.0465	59.340599
214	2	7	-0.665438	0.4558	0.90240002	57.868198
215	2	8	0.39418799	0.6778	-0.0429	58.157398
216	2	4	0.117925	-0.48210001	3.178	57.000599
217	2	4	0.117925	-2.007	3.1231	57.940899
218	2	4	0.085735999	-0.7256	3.7981	60.0284
219	2	4	0.085735999	-0.73299998	5.0275002	58.7183
220	2	4	0.074132003	1.5481	4.2649999	57.978298
221	2	4	0.074132003	1.5799	3.0725	59.3312
222	2	4	0.076943003	1.3309	4.9295001	60.9902
223	2	4	0.076943003	1.3191	6.1406002	59.664398
224	2	4	0.113648	3.5548999	5.8273001	60.864498
225	2	4	0.113648	3.6389999	4.1584001	60.205898
226	4	1	-0.17854001	5.7248998	0.71689999	85.489304
227	4	2	0.033280998	4.7484999	1.2076	84.612
228	4	2	-0.14809	3.3526001	0.80360001	85.093803
229	4	2	-0.14005101	2.2695	1.3015	84.128899
230	4	2	-0.14185999	0.87279999	0.89609998	84.613998
231	4	2	0.13516	-0.2112	1.3917	83.652901
232	4	1	-0.494515	-1.4804	1.0382	84.130203
233	4	3	0.079149999	-0.049899999	0.96820003	82.635201
234	4	3	0.079149999	-0.1613	2.4986	83.576202
235	4	4	0.086097002	0.8136	-0.2112	84.690201
236	4	4	0.086097002	0.68839997	1.329	85.622101
237	4	4	0.083894998	2.325	2.4102001	84.054199
238	4	4	0.083894998	2.4479001	0.86860001	83.119904
239	4	4	0.087116003	3.1763	1.2344	86.103699
240	4	4	0.087116003	3.3022001	-0.3053	85.169098
241	4	3	0.078768	4.8246999	2.3159001	84.530899
242	4	3	0.078768	4.9324002	0.77649999	83.604897
243	5	5	0.76172203	-1.6021	0.0253	83.928902
244	5	6	-0.55483299	-0.80489999	-0.54149997	83.199799
245	5	2	-0.208616	-2.7283001	-0.73280001	84.570396
246	5	2	-0.115977	-3.8552999	-1.0547	83.577499
247	5	2	-0.130817	-3.4786	-2.1756001	82.597198
248	5	2	-0.097687997	-4.6680999	-2.5462	81.703201
249	5	2	-0.257673	-4.2912002	-3.6585	80.719597
250	5	5	0.51703101	-5.4475999	-4.0030999	79.830597
251	5	6	-0.68707001	-6.4587998	-4.5039001	80.295799
252	5	4	0.113648	-3.441	-3.323	80.086098
253	5	4	0.113648	-3.9763	-4.5690999	81.274399
254	5	4	0.076943003	-5.5135002	-2.8873999	82.339798
255	5	4	0.076943003	-4.9944	-1.6476001	81.133797
256	5	4	0.074132003	-3.1561	-3.0737	83.168701
257	5	4	0.074132003	-2.6362	-1.8425	81.955101
258	5	4	0.085735999	-4.1343002	-0.13590001	83.015701
259	5	4	0.085735999	-4.7445998	-1.375	84.161697
260	5	4	0.116901	-2.3413	-1.6619	85.040497
261	5	4	0.116901	-3.1503999	-0.1006	85.381302
262	1	1	-0.17854001	5.7087002	1.3055	86.289597
263	1	2	0.033280998	6.4517999	2.4470999	85.9618
264	1	2	-0.14803401	7.9506001	2.1356001	86.0084
265	1	2	-0.134554	8.7840004	3.3810999	85.685997
266	1	2	-0.17001	10.2841	3.0669	85.7323
267	1	2	0.086474001	11.1186	4.3080001	85.410797
268	1	7	-0.684614	12.4842	3.9919	85.428101
269	1	8	0.37799901	12.7481	3.9249001	86.383202
270	1	3	0.069101997	10.9018	5.1206999	86.140999
271	1	3	0.069101997	10.8576	4.6788001	84.3964
272	1	4	0.089469001	10.5545	2.6982	86.746002
273	1	4	0.089469001	10.52	2.2692001	84.993301
274	1	4	0.084072001	8.5164003	3.7491	84.669998
275	1	4	0.084072001	8.5534	4.1810999	86.423897
276	1	4	0.087116003	8.1788998	1.3351001	85.271202
277	1	4	0.087116003	8.2119999	1.766	87.024597
278	1	3	0.078768	6.1637998	2.8180001	84.9506
279	1	3	0.078768	6.2154002	3.2435999	86.698997
280	2	5	0.51703101	-5.3836002	-3.8216	78.761703
281	2	6	-0.68707001	-5.0366998	-4.7286	78.024101
282	2	2	-0.257673	-5.7193999	-2.4758	78.185501
283	2	2	-0.097687997	-6.0939999	-1.4536	79.268501
284	2	2	-0.130817	-4.8779998	-1.0167	80.099503
285	2	2	-0.11346	-5.2781	0.031500001	81.1483
286	2	2	-0.218713	-4.0970001	0.44229999	82.0382
287	2	5	0.82386303	-3.0664001	1.2142	81.273102
288	2	6	-0.55628699	-3.2528999	2.4335001	81.015198
289	2	7	-0.665438	-1.9177999	0.57429999	80.817596
290	2	8	0.39418799	-1.2180001	1.0791	80.286697
291	2	4	0.117925	-3.6315999	-0.45840001	82.493202
292	2	4	0.117925	-4.4758	1.0776	82.868301
293	2	4	0.085735999	-5.6982002	0.93010002	80.646004
294	2	4	0.085735999	-6.0707998	-0.3953	81.800201
295	2	4	0.074132003	-4.4386001	-1.8989	80.613602
296	2	4	0.074132003	-4.1106	-0.58749998	79.419403
297	2	4	0.076943003	-6.5267	-0.55989999	78.7677
298	2	4	0.076943003	-6.8776999	-1.8806	79.932602
299	2	4	0.113648	-6.5815001	-2.5964999	77.496101
300	2	4	0.113648	-4.8582001	-2.0997	77.592201
301	4	1	-0.17854001	3.5330999	0.63209999	105.1926
302	4	2	0.033280998	2.3027	0.28420001	105.766
303	4	2	-0.14809	2.0592999	1.1045001	107.0356
304	4	2	-0.14005101	0.73259997	0.71509999	107.699
305	4	2	-0.14185999	0.491	1.5383	108.9697
306	4	2	0.13516	-0.833	1.1521	109.6347
307	4	1	-0.494515	-1.0492001	1.9369	110.7754
308	4	3	0.079149999	-0.83029997	0.071400002	109.9047
309	4	3	0.079149999	-1.6694	1.3269	108.9253
310	4	4	0.086097002	1.3228	1.3663	109.6867
311	4	4	0.086097002	0.46529999	2.6206	108.713
312	4	4	0.083894998	-0.1016	0.89020002	106.9838
313	4	4	0.083894998	0.75470001	-0.36579999	107.9604
314	4	4	0.087116003	2.0401001	2.1851001	106.7738
315	4	4	0.087116003	2.8964	0.92820001	107.7468
316	4	3	0.078768	1.4773	0.4463	105.0358
317	4	3	0.078768	2.3271	-0.79650003	106.0217
318	5	5	0.76172203	-0.43090001	1.5561	111.5197
319	5	6	-0.55483299	0.12909999	0.48640001	111.3453
320	5	2	-0.208616	-0.2026	2.3457	112.7763
321	5	2	-0.115977	-0.94679999	1.7522	113.9818
322	5	2	-0.130817	-0.29100001	0.46689999	114.5085
323	5	2	-0.097687997	-0.99269998	-0.026799999	115.7794
324	5	2	-0.257673	-0.34459999	-1.3131	116.301
325	5	5	0.51703101	-1.0464	-1.8075	117.5296
326	5	6	-0.68707001	-1.0204	-1.1568	118.5619
327	5	4	0.113648	-0.3976	-2.1008	115.5178
328	5	4	0.113648	0.72530001	-1.1315	116.5428
329	5	4	0.076943003	-0.93159997	0.7608	116.562
330	5	4	0.076943003	-2.0653999	-0.2207	115.5558
331	5	4	0.074132003	0.78009999	0.66420001	114.7344
332	5	4	0.074132003	-0.34979999	-0.32659999	113.7339
333	5	4	0.085735999	-2.0067999	1.5538	113.708
334	5	4	0.085735999	-0.94529998	2.5120001	114.7926
335	5	4	0.116901	0.88599998	2.4212999	112.9846
336	5	4	0.116901	-0.58149999	3.3770001	112.608
337	1	1	-0.17854001	3.3971	1.5046	104.7371
338	1	2	0.033280998	2.8017001	1.222	103.5008
339	1	2	-0.14803401	3.8457999	0.67809999	102.5213
340	1	2	-0.134554	3.2219999	0.39399999	101.1502
341	1	2	-0.17001	4.2687998	-0.1512	100.1714
342	1	2	0.086474001	3.6492	-0.4359	98.802002
343	1	7	-0.684614	4.6149998	-0.96200001	97.9328
344	1	8	0.37799901	5.1810999	-0.19939999	97.642303
345	1	3	0.069101997	3.2111001	0.49450001	98.373901
346	1	3	0.069101997	2.8327	-1.1815	98.911201
347	1	4	0.089469001	5.0883999	0.59100002	100.0536
348	1	4	0.089469001	4.7021999	-1.0925	100.5766
349	1	4	0.084072001	2.4035001	-0.3515	101.2665
350	1	4	0.084072001	2.7892001	1.3331	100.7396
351	1	4	0.087116003	4.2781	-0.25960001	102.934
352	1	4	0.087116003	4.6623998	1.4255	102.4108
353	1	3	0.078768	1.9721	0.48859999	103.6306
354	1	3	0.078768	2.3682001	2.1615	103.0969
355	2	5	0.51703101	-1.5704	-2.7586	117.5099
356	2	6	-0.68707001	-0.99559999	-3.7623999	117.8959
357	2	2	-0.257673	-2.9870999	-2.8498001	117.0195
358	2	2	-0.097687997	-3.527	-1.4951	116.5383
359	2	2	-0.130817	-2.8861001	-1.0520999	115.2143
360	2	2	-0.11346	-3.4725001	0.28619999	114.7415
361	2	2	-0.218713	-2.8071001	0.78860003	113.4529
362	2	5	0.82386303	-3.145	-0.077399999	112.2785
363	2	6	-0.55628699	-4.2623	0.039999999	111.7076
364	2	7	-0.665438	-2.2365999	-1.0357	111.8398
365	2	8	0.39418799	-2.4560001	-1.6387	111.0557
366	2	4	0.117925	-1.7045	0.83050001	113.5848
367	2	4	0.117925	-3.1579001	1.8233	113.2466
368	2	4	0.085735999	-4.5682998	0.1855	114.5819
369	2	4	0.085735999	-3.3132	1.0495	115.5337
370	2	4	0.074132003	-1.7878	-0.94330001	115.3473
371	2	4	0.074132003	-3.0717001	-1.8317	114.4441
372	2	4	0.076943003	-4.6251998	-1.5914	116.3912
373	2	4	0.076943003	-3.358	-0.72390002	117.3221
374	2	4	0.113648	-3.6231999	-3.2104001	117.8552
375	2	4	0.113648	-3.049	-3.5950999	116.1974
376	4	1	-0.17854001	-4.9836001	30.6164	-2.5486
377	4	2	0.033280998	-3.6012001	30.387199	-2.5506999
378	4	2	-0.14809	-3.2997	28.964001	-2.0737
379	4	2	-0.14005101	-1.789	28.702499	-2.0355
380	4	2	-0.14185999	-1.4899	27.2766	-1.5581
381	4	2	0.13516	0.0177	27.011999	-1.5188
382	4	1	-0.494515	0.26800001	25.6952	-1.1102999
383	4	3	0.079149999	0.51959997	27.7311	-0.83179998
384	4	3	0.079149999	0.4454	27.1514	-2.5342
385	4	4	0.086097002	-1.9122	27.1301	-0.54040003
386	4	4	0.086097002	-1.9681	26.5453	-2.2467
387	4	4	0.083894998	-1.3652	28.8452	-3.0543001
388	4	4	0.083894998	-1.3066	29.4296	-1.3456
389	4	4	0.087116003	-3.7846	28.2379	-2.7623
390	4	4	0.087116003	-3.7269001	28.8249	-1.0559
391	4	3	0.078768	-3.1847	30.550301	-3.5708001
392	4	3	0.078768	-3.1227	31.117599	-1.8641
393	5	5	0.76172203	0.1196	25.6698	-0.081500001
394	5	6	-0.55483299	-0.0074	26.716499	0.5323
395	5	2	-0.208616	0.021	24.349001	0.62580001
396	5	2	-0.115977	1.2811	24.0296	1.4442
397	5	2	-0.130817	1.3796999	24.8645	2.7297001
398	5	2	-0.097687997	2.5854001	24.4335	3.5734
399	5	2	-0.257673	2.6895001	25.271	4.8519001
400	5	5	0.51703101	3.882	24.8647	5.6637998
401	5	6	-0.68707001	3.9398	23.754	6.1664
402	5	4	0.113648	2.7880001	26.3463	4.5855999
403	5	4	0.113648	1.772	25.145399	5.4671001
404	5	4	0.076943003	2.4798	23.360001	3.8431001
405	5	4	0.076943003	3.516	24.5583	2.9760001
406	5	4	0.074132003	0.44999999	24.7355	3.3266001
407	5	4	0.074132003	1.4881001	25.9387	2.4698
408	5	4	0.085735999	2.1861	24.188499	0.81699997
409	5	4	0.085735999	1.2467	22.953501	1.719
410	5	4	0.116901	-0.88249999	24.3309	1.272
411	5	4	0.116901	-0.1039	23.555799	-0.1428
412	1	1	-0.17854001	-5.3494	30.151501	-3.3469
413	1	2	0.033280998	-5.1226001	30.996799	-4.441
414	1	2	-0.14803401	-6.1300001	32.150299	-4.4376001
415	1	2	-0.134554	-5.9214001	33.0695	-5.6465001
416	1	2	-0.17001	-6.9303999	34.224098	-5.6409001
417	1	2	0.086474001	-6.7247	35.143398	-6.8462
418	1	7	-0.684614	-7.6357999	36.208	-6.8051
419	1	8	0.37799901	-8.5130997	35.842098	-7.0928001
420	1	3	0.069101997	-6.8428001	34.571201	-7.7946
421	1	3	0.069101997	-5.6957002	35.561798	-6.8232002
422	1	4	0.089469001	-7.9635	33.813702	-5.6673002
423	1	4	0.089469001	-6.8113999	34.817402	-4.7070999
424	1	4	0.084072001	-4.8884001	33.483398	-5.6192002
425	1	4	0.084072001	-6.0419002	32.481098	-6.5830998
426	1	4	0.087116003	-6.0089998	32.736401	-3.5005
427	1	4	0.087116003	-7.1602001	31.731199	-4.4624
428	1	3	0.078768	-4.0802999	31.391701	-4.4141998
429	1	3	0.078768	-5.2405	30.4041	-5.3729
430	2	5	0.51703101	4.6960001	25.5662	5.8214002
431	2	6	-0.68707001	4.7108002	26.242001	6.8362999
432	2	2	-0.257673	5.7986999	25.709	4.8116002
433	2	2	-0.097687997	5.5876002	24.809299	3.5850999
434	2	2	-0.130817	4.4369001	25.3025	2.6947
435	2	2	-0.11346	4.2751999	24.404301	1.4595
436	2	2	-0.218713	3.0918	24.833	0.5812
437	2	5	0.82386303	3.3411	26.1523	-0.082500003
438	2	6	-0.55628699	4.0784001	26.217199	-1.1025
439	2	7	-0.665438	2.7849	27.311701	0.449
440	2	8	0.39418799	2.9554999	28.213499	0.0199
441	2	4	0.117925	2.1645999	24.887899	1.1914001
442	2	4	0.117925	2.9291	24.063	-0.2043
443	2	4	0.085735999	5.2101998	24.413799	0.85790002
444	2	4	0.085735999	4.0970998	23.3594	1.7945
445	2	4	0.074132003	3.4881001	25.302	3.2737
446	2	4	0.074132003	4.6511002	26.344101	2.3710001
447	2	4	0.076943003	6.527	24.807699	2.9898
448	2	4	0.076943003	5.3954	23.7644	3.9147999
449	2	4	0.113648	6.7564998	25.428699	5.2985001
450	2	4	0.113648	5.8758998	26.770901	4.4928002
451	4	1	-0.17854001	-4.2835999	23.2425	25.8885
452	4	2	0.033280998	-3.8908999	24.233101	26.7985
453	4	2	-0.14809	-3.0699999	25.3113	26.086
454	4	2	-0.14005101	-2.6003001	26.389	27.0709
455	4	2	-0.14185999	-1.779	27.467501	26.354799
456	4	2	0.13516	-1.3084	28.5453	27.335199
457	4	1	-0.494515	-0.58710003	29.5364	26.656099
458	4	3	0.079149999	-0.68120003	28.092699	28.136999
459	4	3	0.079149999	-2.1898999	29.020399	27.815599
460	4	4	0.086097002	-0.89249998	27.000299	25.8738
461	4	4	0.086097002	-2.3992	27.943701	25.5634
462	4	4	0.083894998	-3.4865999	26.860201	27.5506
463	4	4	0.083894998	-1.9769	25.9179	27.8626
464	4	4	0.087116003	-3.6930001	25.779699	25.2929
465	4	4	0.087116003	-2.1861999	24.8356	25.6061
466	4	3	0.078768	-4.7845998	24.6854	27.285801
467	4	3	0.078768	-3.2723999	23.758301	27.589701
468	5	5	0.76172203	0.35370001	29.1387	26.461599
469	5	6	-0.55483299	0.68589997	28.094101	26.997299
470	5	2	-0.208616	1.2707	29.8302	25.4944
471	5	2	-0.115977	2.4272001	30.5529	26.201401
472	5	2	-0.130817	3.4949999	29.584299	26.7314
473	5	2	-0.097687997	4.6848998	30.3491	27.323601
474	5	2	-0.257673	5.7469001	29.3841	27.8599
475	5	5	0.51703101	6.8983002	30.1329	28.4599
476	5	6	-0.68707001	7.6176	30.827499	27.759899
477	5	4	0.113648	5.2976999	28.733101	28.641701
478	5	4	0.113648	6.1240001	28.735901	27.039101
479	5	4	0.076943003	5.1352	30.9935	26.537201
480	5	4	0.076943003	4.3280001	31	28.1527
481	5	4	0.074132003	3.8525	28.937201	25.900299
482	5	4	0.074132003	3.0545001	28.938101	27.519699
483	5	4	0.085735999	2.0287001	31.172899	27.0348
484	5	4	0.085735999	2.9008	31.239799	25.467501
485	5	4	0.116901	1.6585	29.101	24.751301
486	5	4	0.116901	0.67650002	30.5874	24.938601
487	1	1	-0.17854001	-5.0344	23.6236	25.360901
488	1	2	0.033280998	-6.1866002	23.483	26.145399
489	1	2	-0.14803401	-6.6750002	22.0317	26.115
490	1	2	-0.134554	-7.9555998	21.8624	26.940201
491	1	2	-0.17001	-8.4424	20.408701	26.9091
492	1	2	0.086474001	-9.7203999	20.2363	27.732
493	1	7	-0.684614	-10.1305	18.895901	27.715799
494	1	8	0.37799901	-10.5474	18.737301	26.8284
495	1	3	0.069101997	-10.5287	20.8916	27.3344
496	1	3	0.069101997	-9.5265999	20.530701	28.7857
497	1	4	0.089469001	-8.6422005	20.107	25.8577
498	1	4	0.089469001	-7.6521001	19.742901	27.322001
499	1	4	0.084072001	-7.7557998	22.160999	27.993799
500	1	4	0.084072001	-8.7498999	22.5245	26.5296
501	1	4	0.087116003	-5.8794999	21.3715	26.5245
502	1	4	0.087116003	-6.8706002	21.737801	25.059999
503	1	3	0.078768	-5.9809999	23.801399	27.193899
504	1	3	0.078768	-6.9749999	24.1483	25.733801
505	2	5	0.51703101	7.1068001	30.0476	29.522301
506	2	6	-0.68707001	7.9306002	29.2332	29.9032
507	2	2	-0.257673	6.3994999	30.9189	30.5205
508	2	2	-0.097687997	5.3726001	31.8498	29.859301
509	2	2	-0.130817	4.1395998	31.086599	29.351999
510	2	2	-0.11346	3.1166	32.048401	28.7299
511	2	2	-0.218713	1.9001	31.309601	28.155399
512	2	5	0.82386303	1.0625	30.694799	29.2342
513	2	6	-0.55628699	0.26989999	31.41	29.9037
514	2	7	-0.665438	1.1858	29.338301	29.519199
515	2	8	0.39418799	0.63660002	28.9104	30.255199
516	2	4	0.117925	2.2328	30.524	27.443399
517	2	4	0.117925	1.2756	32.0326	27.586599
518	2	4	0.085735999	2.7807	32.788399	29.4888
519	2	4	0.085735999	3.6045001	32.6077	27.902399
520	2	4	0.074132003	4.4488001	30.3389	28.5898
521	2	4	0.074132003	3.6721001	30.547501	30.2043
522	2	4	0.076943003	5.0461001	32.598598	30.613899
523	2	4	0.076943003	5.8520002	32.402401	29.0212
524	2	4	0.113648	7.1585002	31.539101	31.042299
525	2	4	0.113648	5.8979998	30.282	31.2808
526	4	1	-0.17854001	-5.4716001	24.413799	55.695702
527	4	2	0.033280998	-4.6367998	25.2402	54.931702
528	4	2	-0.14809	-3.1686001	24.966801	55.268902
529	4	2	-0.14005101	-2.2375	25.885401	54.468201
530	4	2	-0.14185999	-0.76810002	25.6092	54.807301
531	4	2	0.13516	0.1645	26.5247	54.009499
532	4	1	-0.494515	1.502	26.235001	54.3106
533	4	3	0.079149999	-0.0583	27.593399	54.231602
534	4	3	0.079149999	0.0062000002	26.359501	52.922699
535	4	4	0.086097002	-0.60049999	25.7757	55.893398
536	4	4	0.086097002	-0.52420002	24.549601	54.571499
537	4	4	0.083894998	-2.4013	25.717501	53.3806
538	4	4	0.083894998	-2.4755001	26.946301	54.703098
539	4	4	0.087116003	-2.9324	23.905399	55.0364
540	4	4	0.087116003	-3.0097001	25.133801	56.3573
541	4	3	0.078768	-4.8217001	25.077	53.845501
542	4	3	0.078768	-4.8801999	26.298401	55.165798
543	5	5	0.76172203	1.6952	26.6565	55.241299
544	5	6	-0.55483299	0.88419998	27.4247	55.731899
545	5	2	-0.208616	2.9445	26.281799	55.985401
546	5	2	-0.115977	3.9912	27.406	55.9715
547	5	2	-0.130817	3.6226001	28.569901	56.9035
548	5	2	-0.097687997	4.7456002	29.613001	56.950298
549	5	2	-0.257673	4.3755999	30.778299	57.873199
550	5	5	0.51703101	5.4640002	31.8085	57.899399
551	5	6	-0.68707001	6.5581999	31.541599	58.369801
552	5	4	0.113648	3.4391999	31.257	57.511398
553	5	4	0.113648	4.2023001	30.407499	58.906898
554	5	4	0.076943003	5.6781001	29.1322	57.318802
555	5	4	0.076943003	4.9298	30.001699	55.923901
556	5	4	0.074132003	3.4423001	28.179399	57.929298
557	5	4	0.074132003	2.6932001	29.0581	56.541401
558	5	4	0.085735999	4.1275001	27.7792	54.932301
559	5	4	0.085735999	4.96	26.975201	56.3041
560	5	4	0.116901	2.6930001	25.991699	57.027802
561	5	4	0.116901	3.3859	25.390499	55.4893
562	1	1	-0.17854001	-5.4292998	23.510201	55.284599
563	1	2	0.033280998	-6.3028002	23.5277	54.189301
564	1	2	-0.14803401	-7.7546	23.430901	54.667301
565	1	2	-0.134554	-8.7264004	23.414	53.481998
566	1	2	-0.17001	-10.1793	23.3179	53.962601
567	1	2	0.086474001	-11.1518	23.3009	52.781799
568	1	7	-0.684614	-12.4742	23.244101	53.243599
569	1	8	0.37799901	-12.634	22.307501	53.5327
570	1	3	0.069101997	-10.9383	22.4335	52.116299
571	1	3	0.069101997	-11.0286	24.2302	52.185398
572	1	4	0.089469001	-10.3122	22.3881	54.557899
573	1	4	0.089469001	-10.414	24.1891	54.6138
574	1	4	0.084072001	-8.5965004	24.3459	52.887199
575	1	4	0.084072001	-8.4973001	22.542801	52.8288
576	1	4	0.087116003	-7.9812999	24.3015	55.320702
577	1	4	0.087116003	-7.8782001	22.499599	55.263
578	1	3	0.078768	-6.1524	24.455999	53.590401
579	1	3	0.078768	-6.0676999	22.6586	53.538799
580	2	5	0.51703101	5.2771001	32.805698	57.511799
581	2	6	-0.68707001	4.9425998	33.690102	58.281898
582	2	2	-0.257673	5.4291	33.1064	56.048199
583	2	2	-0.097687997	5.8150001	31.863199	55.233398
584	2	2	-0.130817	4.6532998	30.8652	55.112099
585	2	2	-0.11346	5.0587001	29.651899	54.262299
586	2	2	-0.218713	3.9398999	28.6049	54.174702
587	2	5	0.82386303	2.7718	29.1045	53.3815
588	2	6	-0.55628699	2.8192	29.1103	52.1222
589	2	7	-0.665438	1.6467	29.5942	54.0378
590	2	8	0.39418799	0.85409999	29.948601	53.515701
591	2	4	0.117925	3.6066	28.3172	55.195
592	2	4	0.117925	4.3400998	27.6908	53.684299
593	2	4	0.085735999	5.3425002	29.9825	53.239399
594	2	4	0.085735999	5.9482999	29.1703	54.723
595	2	4	0.074132003	4.3501	30.518101	56.1236