Title

396 atoms
404 bonds
770 angles
1621 dihedrals
102 impropers

11 atom types
14 bond types
9 angle types
35 dihedral types
3 improper types
-68.35500336 31.64499664 xlo xhi
-73.09799957 26.90200043 ylo yhi
-59.54199982 40.45800018 zlo zhi
0.0 0.0 0.0 xy xz yz

Masses

1	15.99943
2	12.01078
3	14.00672
4	12.01078
5	1.007947
6	1.007947
7	1.007947
8	15.99943
9	12.01078
10	15.99943
11	1.007947


Pair Coeffs

1	0.2102061	3.0398122
2	0.086879315	3.4806469
3	0.16769152	3.206876
4	0.10884061	3.3795318
5	0.015779483	2.6445434
6	0.014090815	1.1034277
7	0.016409246	2.5832257
8	0.16846514	3.0251065
9	0.21	3.3996695
10	0.20947353	2.99716
11	1.2326e-05	0.53453923

Bond Coeffs

1 harmonic	582.698766451	1.225198386222
2 harmonic	492.76746816345	1.381897776683
3 harmonic	301.15400723785	1.345741232799
4 harmonic	352.0565580496	1.450098586273
5 harmonic	505.144496193	1.019481865027
6 harmonic	264.62148576755	1.52190126495
7 harmonic	370.04670688625	1.093899492634
8 harmonic	279.1350963404	1.454628925034
9 harmonic	366.7408841747	1.425895053732
10 harmonic	300.03137914615	1.451203938761
11 harmonic	366.34047229585	1.464762957261
12 harmonic	602.81384337	1.196112346392
13 harmonic	329.96998057905	1.427343958716
14 harmonic	543.5267831885	0.9716763312559


Angle Coeffs

1 harmonic	57.8982893754	126.8062420451
2 harmonic	201.41175231035	127.4691416191
3 harmonic	55.42182150775	117.3465570514
4 harmonic	63.44422595415	115.5071327674
5 harmonic	65.09061609600001	110.3538806181
6 harmonic	53.20531626545	116.5475862634
7 harmonic	48.776492647595	115.6030999533
8 harmonic	55.07882548015	112.8714009681
9 harmonic	33.56981613361	180


Dihedral Coeffs

1 fourier 1	1.809047390003	2	180
2 fourier 1	-0.04816277792592	1	0
3 fourier 1	0.4860993122944	2	180
4 fourier 1	0.8916986138746	1	0
5 fourier 1	1.163809172478	2	180
6 fourier 1	0.1679186987369	1	180
7 fourier 1	-0.1488678166443	4	180
8 fourier 1	-0.1230328948768	3	180
9 fourier 1	0.2939295466901	2	0
10 fourier 1	-0.3024127022865	1	0
11 fourier 1	0.182238503271	2	0
12 fourier 1	0.02972342374561	3	0
13 fourier 1	0.1918272375143	3	0
14 fourier 1	0.9202179876409	1	180
15 fourier 1	0.0473758381877	3	0
16 fourier 1	2.779853741805	2	180
17 fourier 1	0.1155372516788	3	0
18 fourier 1	0.09223874044423	3	0
19 fourier 1	0.3159935921949	2	180
20 fourier 1	0.3247796806857	1	180
21 fourier 1	0.1040663847541	3	0
22 fourier 1	3.101948770557	2	180
23 fourier 1	-0.4252153282372	1	0
24 fourier 1	0.1911926717192	3	0
25 fourier 1	0.9974165607242	2	180
26 fourier 1	2.348375642009	2	180
27 fourier 1	1.256156174911	1	0
28 fourier 1	0.1115525666802	3	0
29 fourier 1	0.3432490222662	1	0
30 fourier 1	0.457973137376	1	0
31 fourier 1	-1.382973039546	1	0
32 fourier 1	0	1	0
33 fourier 1	0.3445382149273	3	0
34 fourier 1	0.1364556373303	1	0
35 fourier 1	0.3026390167484	3	0


Improper Coeffs

1 3.5	-1	2
2 0.3333333333333333	-1	2
3 0.3666666666666667	-1	2


Atoms

1	1	1	-0.61432397	-3.5999999	-2.1110001	-1.266
2	1	2	0.80759001	-2.9630001	-1.347	-2.04
3	1	3	-0.511069	-1.9299999	-0.48800001	-1.544
4	1	4	0.090594001	-1.4809999	-0.50800002	-0.148
5	1	4	-0.17687	-0.27200001	-1.4630001	0.0049999999
6	1	4	-0.178413	1.062	-0.71899998	-0.123
7	1	4	0.089795001	1.225	0.36500001	0.97299999
8	1	4	-0.178413	-0.133	0.94400001	1.449
9	1	4	-0.17687	-1.174	0.935	0.32499999
10	1	5	0.097483002	-0.787	1.552	-0.51599997
11	1	5	0.097483002	-2.1110001	1.414	0.68400002
12	1	5	0.097483002	-0.51899999	0.331	2.2939999
13	1	5	0.097483002	-0.0060000001	1.978	1.836
14	1	3	-0.562617	2.098	1.437	0.47999999
15	1	2	0.55542803	3.5109999	1.268	0.32800001
16	1	1	-0.68865299	4.0700002	0.18099999	0.63599998
17	1	6	0.31054699	1.693	2.3659999	0.22400001
18	1	7	0.044372	1.705	-0.098999999	1.863
19	1	5	0.097483002	1.11	-0.25400001	-1.133
20	1	5	0.097483002	1.897	-1.448	-0.050999999
21	1	5	0.097483002	-0.31099999	-1.951	1.0039999
22	1	5	0.097483002	-0.31999999	-2.2750001	-0.75400001
23	1	7	0.047545001	-2.299	-0.898	0.498
24	1	6	0.313687	-1.373	0.048	-2.2479999
25	1	8	-0.49994799	-6.9980001	-7.5009999	-4.2189999
26	1	4	0.116877	-5.5999999	-7.5419998	-4.1240001
27	1	4	-0.13917799	-4.987	-6.1789999	-4.4640002
28	1	4	-0.14159299	-5.4169998	-5.0960002	-3.4649999
29	1	4	-0.14159299	-4.7729998	-3.747	-3.8050001
30	1	4	-0.13917799	-5.2030001	-2.665	-2.806
31	1	4	0.116877	-4.5900002	-1.302	-3.1470001
32	1	8	-0.49994799	-3.1919999	-1.342	-3.052
33	1	7	0.084308997	-4.9990001	-0.52700001	-2.4590001
34	1	7	0.084308997	-4.8730001	-1.012	-4.1820002
35	1	5	0.090337001	-4.8969998	-2.957	-1.778
36	1	5	0.090337001	-6.3099999	-2.5680001	-2.823
37	1	5	0.086280003	-3.6659999	-3.8540001	-3.7820001
38	1	5	0.086280003	-5.0760002	-3.4430001	-4.8309999
39	1	5	0.086280003	-6.5240002	-4.9889998	-3.4890001
40	1	5	0.086280003	-5.1129999	-5.401	-2.4400001
41	1	5	0.090337001	-5.2930002	-5.8860002	-5.493
42	1	5	0.090337001	-3.8800001	-6.276	-4.448
43	1	7	0.084308997	-5.191	-8.316	-4.8109999
44	1	7	0.084308997	-5.3169999	-7.8309999	-3.089
45	1	1	-0.61432397	-8.7119999	-12.893	-10.993
46	1	2	0.80759001	-8.7489996	-13.118	-9.7539997
47	1	3	-0.511069	-8.1000004	-12.242	-8.8249998
48	1	4	0.090594001	-7.4429998	-10.996	-9.2329998
49	1	4	-0.17687	-8.434	-9.8120003	-9.1110001
50	1	4	-0.17687	-8.3140001	-9.1059999	-7.756
51	1	4	0.090594001	-6.9000001	-8.5109997	-7.5380001
52	1	4	-0.17687	-5.796	-9.3030005	-8.2860003
53	1	4	-0.17687	-6.1500001	-10.789	-8.4049997
54	1	5	0.097483002	-6.2680001	-11.203	-7.3790002
55	1	5	0.097483002	-5.3099999	-11.333	-8.8879995
56	1	5	0.097483002	-5.6729999	-8.8850002	-9.3100004
57	1	5	0.097483002	-4.8150001	-9.1890001	-7.7750001
58	1	3	-0.511069	-6.6069999	-8.4510002	-6.1009998
59	1	2	0.80758899	-7.2270002	-7.4970002	-5.2309999
60	1	1	-0.61432397	-8.0439997	-6.6490002	-5.677
61	1	6	0.31368601	-5.9239998	-9.1190004	-5.678
62	1	7	0.047545001	-6.8829999	-7.4749999	-7.9450002
63	1	5	0.097483002	-8.5489998	-9.8409996	-6.9549999
64	1	5	0.097483002	-9.0719995	-8.2950001	-7.698
65	1	5	0.097483002	-8.2250004	-9.0719995	-9.9160004
66	1	5	0.097483002	-9.4790001	-10.164	-9.257
67	1	7	0.047545001	-7.1399999	-11.07	-10.301
68	1	6	0.313687	-8.2489996	-12.427	-7.8070002
69	1	8	-0.49994799	-13.58	-16.066	-14.939
70	1	4	0.116877	-13.954	-14.989	-14.121
71	1	4	-0.13917799	-13.276	-15.081	-12.75
72	1	4	-0.14159299	-11.749	-14.975	-12.862
73	1	4	-0.14159299	-11.091	-15.039	-11.479
74	1	4	-0.13917799	-9.5640001	-14.934	-11.591
75	1	4	0.116877	-8.8859997	-15.025	-10.22
76	1	8	-0.49994799	-9.2609997	-13.949	-9.4020004
77	1	7	0.084308997	-7.7800002	-15.04	-10.351
78	1	7	0.084308997	-9.1759996	-15.975	-9.7209997
79	1	5	0.090337001	-9.2869997	-13.971	-12.074
80	1	5	0.090337001	-9.1829996	-15.762	-12.229
81	1	5	0.086280003	-11.475	-14.205	-10.852
82	1	5	0.086280003	-11.358	-16.002001	-10.989
83	1	5	0.086280003	-11.366	-15.809	-13.489
84	1	5	0.086280003	-11.482	-14.013	-13.352
85	1	5	0.090337001	-13.553	-16.042999	-12.267
86	1	5	0.090337001	-13.657	-14.253	-12.113
87	1	7	0.084308997	-15.06	-14.975	-13.99
88	1	7	0.084308997	-13.665	-14.04	-14.62
89	1	1	-0.61432397	-21.115999	-20.545	-15.952
90	1	2	0.80759001	-20.568001	-19.705	-16.714001
91	1	3	-0.511069	-19.548	-18.823	-16.231001
92	1	4	0.090594001	-19.011	-18.900999	-14.868
93	1	4	-0.17687	-17.75	-19.799	-14.848
94	1	4	-0.17687	-16.465	-18.979	-15.01
95	1	4	0.090594001	-16.285	-17.954	-13.862
96	1	4	-0.17687	-17.636	-17.476	-13.27
97	1	4	-0.17687	-18.746	-17.474001	-14.327
98	1	5	0.097483002	-18.443001	-16.790001	-15.15
99	1	5	0.097483002	-19.68	-17.066999	-13.883
100	1	5	0.097483002	-17.937	-18.156	-12.442
101	1	5	0.097483002	-17.535	-16.461	-12.828
102	1	3	-0.511069	-15.499	-16.811001	-14.341
103	1	2	0.80758899	-14.091	-16.896999	-14.588
104	1	1	-0.61432397	-13.462	-17.969	-14.381
105	1	6	0.31368601	-15.964	-15.891	-14.514
106	1	7	0.047545001	-15.727	-18.443001	-13.032
107	1	5	0.097483002	-16.503	-18.455	-15.991
108	1	5	0.097483002	-15.592	-19.667	-15.034
109	1	5	0.097483002	-17.701	-20.346001	-13.88
110	1	5	0.097483002	-17.806	-20.566	-15.651
111	1	7	0.047545001	-19.766001	-19.371	-14.199
112	1	6	0.313687	-19.065001	-18.219	-16.931999
113	1	8	-0.49994799	-24.43	-25.924999	-19.018
114	1	4	0.116877	-23.027	-25.898001	-19.01
115	1	4	-0.13917799	-22.504999	-24.487	-19.302999
116	1	4	-0.14159299	-22.923	-23.488001	-18.216
117	1	4	-0.14159299	-22.367001	-22.09	-18.511
118	1	4	-0.13917799	-22.785	-21.091	-17.423
119	1	4	0.116877	-22.263	-19.681	-17.716
120	1	8	-0.49994799	-20.861	-19.653	-17.708
121	1	7	0.084308997	-22.664	-18.969999	-16.958
122	1	7	0.084308997	-22.624001	-19.347	-18.712
123	1	5	0.090337001	-22.400999	-21.427	-16.434999
124	1	5	0.090337001	-23.895	-21.052	-17.365999
125	1	5	0.086280003	-21.257999	-22.139999	-18.561001
126	1	5	0.086280003	-22.750999	-21.743	-19.496
127	1	5	0.086280003	-24.033001	-23.438	-18.166
128	1	5	0.086280003	-22.540001	-23.836	-17.231001
129	1	5	0.090337001	-22.889	-24.152	-20.292
130	1	5	0.090337001	-21.395	-24.527	-19.360001
131	1	7	0.084308997	-22.625999	-26.608999	-19.768
132	1	7	0.084308997	-22.666	-26.232	-18.014
133	1	1	-0.61432397	-26.306999	-30.996	-25.993
134	1	2	0.80759001	-26.254	-31.294001	-24.77
135	1	3	-0.511069	-25.59	-30.441	-23.830999
136	1	4	0.090594001	-25.021999	-29.141001	-24.200001
137	1	4	-0.17687	-26.059999	-28.018999	-23.947001
138	1	4	-0.17687	-25.889	-27.388	-22.561001
139	1	4	0.090594001	-24.493999	-26.733999	-22.392
140	1	4	-0.17687	-23.403	-27.421	-23.253
141	1	4	-0.17687	-23.691	-28.914	-23.441
142	1	5	0.097483002	-23.723	-29.393999	-22.438
143	1	5	0.097483002	-22.858	-29.385	-24.007
144	1	5	0.097483002	-23.365	-26.938999	-24.256001
145	1	5	0.097483002	-22.398001	-27.285999	-22.797001
146	1	3	-0.511069	-24.113001	-26.740999	-20.975
147	1	2	0.80758899	-24.722	-25.874001	-20.011999
148	1	1	-0.61432397	-25.606001	-25.045	-20.355
149	1	6	0.31368601	-23.372999	-27.396	-20.635
150	1	7	0.047545001	-24.554001	-25.676001	-22.736
151	1	5	0.097483002	-26.035999	-28.18	-21.792999
152	1	5	0.097483002	-26.679001	-26.622	-22.406
153	1	5	0.097483002	-25.938999	-27.224001	-24.715
154	1	5	0.097483002	-27.093	-28.416	-24.049999
155	1	7	0.047545001	-24.785	-29.136	-25.288
156	1	6	0.313687	-25.665001	-30.691999	-22.819
157	1	8	-0.49994799	-31.256001	-34.183998	-29.823999
158	1	4	0.116877	-31.629	-33.179001	-28.92
159	1	4	-0.13917799	-30.862	-33.313999	-27.601
160	1	4	-0.14159299	-29.351999	-33.122002	-27.799
161	1	4	-0.14159299	-28.604	-33.231998	-26.465
162	1	4	-0.13917799	-27.094999	-33.040001	-26.663
163	1	4	0.116877	-26.327	-33.175999	-25.343
164	1	8	-0.49994799	-26.701	-32.169998	-24.440001
165	1	7	0.084308997	-25.233	-33.125	-25.542
166	1	7	0.084308997	-26.538	-34.166	-24.886999
167	1	5	0.090337001	-26.896	-32.037998	-27.101999
168	1	5	0.090337001	-26.716	-33.808998	-27.372
169	1	5	0.086280003	-28.988001	-32.457001	-25.766001
170	1	5	0.086280003	-28.792999	-34.234001	-26.02
171	1	5	0.086280003	-28.969	-33.896999	-28.497999
172	1	5	0.086280003	-29.164	-32.119999	-28.243999
173	1	5	0.090337001	-31.061001	-34.316002	-27.162001
174	1	5	0.090337001	-31.240999	-32.546001	-26.892
175	1	7	0.084308997	-32.723999	-33.23	-28.722
176	1	7	0.084308997	-31.419001	-32.188	-29.377001
177	1	1	-0.61432397	-38.615002	-38.986	-30.65
178	1	2	0.80759001	-38.158001	-38.075001	-31.391001
179	1	3	-0.511069	-37.153999	-37.171001	-30.917999
180	1	4	0.090594001	-36.527	-37.299999	-29.597
181	1	4	-0.17687	-35.224998	-38.130001	-29.709
182	1	4	-0.17687	-33.993999	-37.236	-29.898001
183	1	4	0.090594001	-33.792	-36.271	-28.702999
184	1	4	-0.17687	-35.125	-35.900002	-28.000999
185	1	4	-0.17687	-36.298	-35.895	-28.987
186	1	5	0.097483002	-36.082001	-35.148998	-29.784
187	1	5	0.097483002	-37.220001	-35.563999	-28.462999
188	1	5	0.097483002	-35.339001	-36.641998	-27.200001
189	1	5	0.097483002	-35.044998	-34.908001	-27.504999
190	1	3	-0.511069	-33.094002	-35.062	-29.157
191	1	2	0.80758899	-31.702999	-35.060001	-29.493999
192	1	1	-0.61432397	-31.01	-36.108002	-29.392
193	1	6	0.31368601	-33.613998	-34.16	-29.245001
194	1	7	0.047545001	-33.159	-36.778	-27.940001
195	1	5	0.097483002	-34.120998	-36.658001	-30.841
196	1	5	0.097483002	-33.091999	-37.875	-30.017
197	1	5	0.097483002	-35.088001	-38.729	-28.781
198	1	5	0.097483002	-35.294998	-38.851002	-30.552
199	1	7	0.047545001	-37.215	-37.847	-28.914
200	1	6	0.313687	-36.744999	-36.501999	-31.608999
201	1	8	-0.49994799	-41.851002	-44.345001	-33.834
202	1	4	0.116877	-40.453999	-44.244999	-33.91
203	1	4	-0.13917799	-40.021	-42.793999	-34.146999
204	1	4	-0.14159299	-40.416	-41.882999	-32.976002
205	1	4	-0.14159299	-39.950001	-40.443001	-33.217999
206	1	4	-0.13917799	-40.345001	-39.533001	-32.048
207	1	4	0.116877	-39.911999	-38.082001	-32.285
208	1	8	-0.49994799	-38.514999	-37.981998	-32.361
209	1	7	0.084308997	-40.298	-37.438	-31.462
210	1	7	0.084308997	-40.352001	-37.709999	-33.235001
211	1	5	0.090337001	-39.882999	-39.904999	-31.107
212	1	5	0.090337001	-41.450001	-39.555	-31.922001
213	1	5	0.086280003	-38.844002	-40.431999	-33.339001
214	1	5	0.086280003	-40.410999	-40.060001	-34.154999
215	1	5	0.086280003	-41.521999	-41.895	-32.855999
216	1	5	0.086280003	-39.955002	-42.266998	-32.040001
217	1	5	0.090337001	-40.483002	-42.422001	-35.087002
218	1	5	0.090337001	-38.916	-42.771999	-34.272999
219	1	7	0.084308997	-40.068001	-44.888	-34.731998
220	1	7	0.084308997	-40.014	-44.617001	-32.959999
221	1	1	-0.61432397	-43.919998	-49.092999	-40.98
222	1	2	0.80759001	-43.773998	-49.458	-39.783001
223	1	3	-0.511069	-43.094002	-48.627998	-38.834999
224	1	4	0.090594001	-42.615002	-47.279999	-39.158001
225	1	4	-0.17687	-43.688	-46.230999	-38.773998
226	1	4	-0.17687	-43.459999	-45.674	-37.363998
227	1	4	0.090594001	-42.09	-44.958	-37.241001
228	1	4	-0.17687	-41.023998	-45.535999	-38.208
229	1	4	-0.17687	-41.250999	-47.028999	-38.469002
230	1	5	0.097483002	-41.195	-47.567001	-37.497002
231	1	5	0.097483002	-40.432999	-47.421001	-39.112
232	1	5	0.097483002	-41.074001	-44.994999	-39.179001
233	1	5	0.097483002	-40	-45.375	-37.805
234	1	3	-0.511069	-41.619999	-45.028	-35.853001
235	1	2	0.80758899	-42.208	-44.250999	-34.803001
236	1	1	-0.61432397	-43.152	-43.452	-35.040001
237	1	6	0.31368601	-40.828999	-45.661999	-35.599998
238	1	7	0.047545001	-42.223	-43.887001	-37.514999
239	1	5	0.097483002	-43.519001	-46.514999	-36.639
240	1	5	0.097483002	-44.275002	-44.960999	-37.116001
241	1	5	0.097483002	-43.654999	-45.387001	-39.498001
242	1	5	0.097483002	-44.705002	-46.674999	-38.838001
243	1	7	0.047545001	-42.448002	-47.200001	-40.256001
244	1	6	0.313687	-43.091999	-48.941002	-37.838001
245	1	8	-0.49994799	-48.941002	-52.307999	-44.691002
246	1	4	0.116877	-49.305	-51.376999	-43.707001
247	1	4	-0.13917799	-48.449001	-51.549	-42.448002
248	1	4	-0.14159299	-46.966999	-51.266998	-42.724998
249	1	4	-0.14159299	-46.131001	-51.415001	-41.448002
250	1	4	-0.13917799	-44.647999	-51.132999	-41.724998
251	1	4	0.116877	-43.792	-51.305	-40.465
252	1	8	-0.49994799	-44.155998	-50.374001	-39.480999
253	1	7	0.084308997	-42.716	-51.185001	-40.726002
254	1	7	0.084308997	-43.924999	-52.330002	-40.058998
255	1	5	0.090337001	-44.527	-50.098	-42.112999
256	1	5	0.090337001	-44.278	-51.838001	-42.500999
257	1	5	0.086280003	-46.506001	-50.702999	-40.68
258	1	5	0.086280003	-46.242001	-52.450001	-41.054001
259	1	5	0.086280003	-46.591999	-51.979	-43.492001
260	1	5	0.086280003	-46.855999	-50.231998	-43.118
261	1	5	0.090337001	-48.570999	-52.584	-42.060001
262	1	5	0.090337001	-48.82	-50.844002	-41.671001
263	1	7	0.084308997	-50.381001	-51.497002	-43.445999
264	1	7	0.084308997	-49.173	-50.352001	-44.113998
265	1	1	-0.61432397	-56.096001	-57.431999	-45.362999
266	1	2	0.80759001	-55.731998	-56.457001	-46.073002
267	1	3	-0.511069	-54.743999	-55.530998	-45.605999
268	1	4	0.090594001	-54.029999	-55.702999	-44.337002
269	1	4	-0.17687	-52.698002	-56.456001	-44.577999
270	1	4	-0.17687	-51.527	-55.490002	-44.786999
271	1	4	0.090594001	-51.296001	-54.585999	-43.549
272	1	4	-0.17687	-52.598	-54.327	-42.745998
273	1	4	-0.17687	-53.830002	-54.326	-43.657001
274	1	5	0.097483002	-53.702999	-53.525002	-44.417999
275	1	5	0.097483002	-54.733002	-54.075001	-43.057999
276	1	5	0.097483002	-52.723999	-55.124001	-41.98
277	1	5	0.097483002	-52.535999	-53.362999	-42.195999
278	1	3	-0.511069	-50.688999	-53.318001	-43.970001
279	1	2	0.80758899	-49.323002	-53.223999	-44.389
280	1	1	-0.61432397	-48.576	-54.237	-44.394001
281	1	6	0.31368601	-51.256001	-52.441002	-43.970001
282	1	7	0.047545001	-50.591999	-55.103001	-42.858002
283	1	5	0.097483002	-51.742001	-54.865002	-45.681999
284	1	5	0.097483002	-50.605	-56.071999	-44.999001
285	1	5	0.097483002	-52.473999	-57.099998	-43.699001
286	1	5	0.097483002	-52.786999	-57.130001	-45.459
287	1	7	0.047545001	-54.645	-56.324001	-43.647999
288	1	6	0.313687	-54.414001	-54.803001	-46.278999
289	1	8	-0.49994799	-59.263	-62.758999	-48.667
290	1	4	0.116877	-57.881001	-62.582001	-48.820999
291	1	4	-0.13917799	-57.534	-61.098999	-48.993999
292	1	4	-0.14159299	-57.898998	-60.279999	-47.749001
293	1	4	-0.14159299	-57.519001	-58.806	-47.93
294	1	4	-0.13917799	-57.882999	-57.987	-46.683998
295	1	4	0.116877	-57.536999	-56.504002	-46.856998
296	1	8	-0.49994799	-56.153999	-56.326	-47.011002
297	1	7	0.084308997	-57.901001	-55.931	-45.974998
298	1	7	0.084308997	-58.054001	-56.101002	-47.754002
299	1	5	0.090337001	-57.344002	-58.388	-45.798
300	1	5	0.090337001	-58.974998	-58.074001	-46.492001
301	1	5	0.086280003	-56.424999	-58.73	-48.116001
302	1	5	0.086280003	-58.056999	-58.393002	-48.811001
303	1	5	0.086280003	-58.992001	-60.355999	-47.562
304	1	5	0.086280003	-57.360001	-60.693001	-46.867001
305	1	5	0.090337001	-58.073002	-60.698002	-49.881001
306	1	5	0.090337001	-56.443001	-61.012001	-49.186001
307	1	7	0.084308997	-57.516998	-63.154999	-49.702999
308	1	7	0.084308997	-57.362999	-62.985001	-47.924
309	1	1	-0.61432397	-61.549999	-67.184998	-55.952
310	1	2	0.80759001	-61.311001	-67.611	-54.791
311	1	3	-0.511069	-60.612999	-66.803001	-53.837002
312	1	4	0.090594001	-60.221001	-65.416	-54.105
313	1	4	-0.17687	-61.317001	-64.448997	-53.591999
314	1	4	-0.17687	-61.027	-63.963001	-52.167999
315	1	4	0.090594001	-59.688999	-63.185001	-52.084
316	1	4	-0.17687	-58.66	-63.648998	-53.147999
317	1	4	-0.17687	-58.830002	-65.134003	-53.486
318	1	5	0.097483002	-58.686001	-65.723999	-52.553001
319	1	5	0.097483002	-58.036999	-65.445	-54.200001
320	1	5	0.097483002	-58.798	-63.056	-54.078999
321	1	5	0.097483002	-57.620998	-63.458	-52.799
322	1	3	-0.511069	-59.129002	-63.311001	-50.734001
323	1	2	0.80758899	-59.685001	-62.627998	-49.605
324	1	1	-0.61432397	-60.68	-61.867001	-49.735001
325	1	6	0.31368601	-58.292999	-63.916	-50.569
326	1	7	0.047545001	-59.890999	-62.108002	-52.283001
327	1	5	0.097483002	-60.999001	-64.847	-51.493
328	1	5	0.097483002	-61.859001	-63.308998	-51.827
329	1	5	0.097483002	-61.372002	-63.563999	-54.264
330	1	5	0.097483002	-62.313999	-64.941002	-53.622002
331	1	7	0.047545001	-60.129002	-65.263	-55.203999
332	1	6	0.313687	-60.532001	-67.172997	-52.862
333	1	8	-0.170145	-66.635002	-70.438004	-59.542
334	1	4	0.035314001	-66.981003	-69.585999	-58.481998
335	1	4	-0.145169	-66.039001	-69.786003	-57.290001
336	1	4	-0.140322	-64.592003	-69.411003	-57.639
337	1	4	-0.141541	-63.671001	-69.588997	-56.425999
338	1	4	-0.13917799	-62.223999	-69.213997	-56.775002
339	1	4	0.116877	-61.282001	-69.413002	-55.582001
340	1	8	-0.49994799	-61.627998	-68.561996	-54.522999
341	1	7	0.084308997	-60.231998	-69.222	-55.901001
342	1	7	0.084308997	-61.339001	-70.466003	-55.231998
343	1	5	0.090337001	-62.178001	-68.153	-57.105
344	1	5	0.090337001	-61.869999	-69.851997	-57.613998
345	1	5	0.086280003	-64.029999	-68.943001	-55.595001
346	1	5	0.086280003	-63.705002	-70.649002	-56.091
347	1	5	0.086456001	-64.233002	-70.056	-58.470001
348	1	5	0.086456001	-64.557999	-68.350998	-57.973999
349	1	5	0.091426998	-66.084999	-70.847	-56.959999
350	1	5	0.091426998	-66.391998	-69.148003	-56.451
351	1	7	0.084257998	-68.030998	-69.777	-58.164001
352	1	7	0.084257998	-66.924004	-68.532997	-58.832001
353	1	1	-0.68865299	3.756	3.27	0.176
354	1	2	0.55542803	4.1110001	2.0829999	-0.052999999
355	1	3	-0.562617	5.2880001	1.8	-0.81699997
356	1	4	0.090177998	6.1570001	2.858	-1.351
357	1	4	-0.177111	7.0760002	2.313	-2.477
358	1	4	-0.138733	8.4919996	1.928	-2
359	1	4	0.20987099	8.4899998	1.41	-0.55599999
360	1	4	-0.138733	7.961	2.487	0.42699999
361	1	4	-0.177111	6.987	3.4920001	-0.22
362	1	5	0.095757	6.3200002	3.9170001	0.56
363	1	5	0.095757	7.5679998	4.3410001	-0.64300001
364	1	5	0.093362004	8.8109999	3.062	0.85799998
365	1	5	0.093362004	7.4499998	1.976	1.271
366	1	3	-0.649845	9.8439999	0.99699998	-0.191
367	1	9	0.60670102	10.09	0.38100001	0.89600003
368	1	1	-0.48982799	10.328	-0.21799999	1.952
369	1	7	0.037919	7.8249998	0.51800001	-0.51599997
370	1	5	0.093362004	9.158	2.8180001	-2.066
371	1	5	0.093362004	8.9060001	1.151	-2.6789999
372	1	5	0.095757	7.1810002	3.0910001	-3.2650001
373	1	5	0.095757	6.599	1.437	-2.97
374	1	7	0.044372	5.5110002	3.6470001	-1.8
375	1	6	0.31054699	5.4920001	0.79699999	-1.024
376	1	8	-0.170145	-66.938004	-71.347	-59.285
377	1	4	0.035314001	-65.820999	-72.008003	-58.754002
378	1	4	-0.145169	-65.5	-71.496002	-57.346001
379	1	4	-0.14026999	-66.637001	-71.793999	-56.360001
380	1	4	-0.13617501	-66.287003	-71.301003	-54.951
381	1	4	-0.16709299	-67.424004	-71.599998	-53.964001
382	1	4	0.088601999	-67.102997	-71.087997	-52.556
383	1	10	-0.68138802	-65.986	-71.748001	-52.025002
384	1	11	0.382889	-66.289001	-72.657997	-51.768002
385	1	7	0.075249001	-67.987	-71.237999	-51.895
386	1	7	0.075249001	-66.893997	-69.998001	-52.591999
387	1	5	0.093782	-67.610001	-72.695	-53.923
388	1	5	0.093782	-68.355003	-71.105003	-54.316002
389	1	5	0.086456001	-65.357002	-71.806	-54.606998
390	1	5	0.086456001	-66.103996	-70.205002	-54.98
391	1	5	0.086456001	-67.567001	-71.290001	-56.702999
392	1	5	0.086456001	-66.82	-72.890999	-56.330002
393	1	5	0.091426998	-65.314003	-70.400002	-57.387001
394	1	5	0.091426998	-64.569	-71.990997	-56.993999
395	1	7	0.084257998	-64.938004	-71.858002	-59.416
396	1	7	0.084257998	-66.029999	-73.098	-58.717999

Bonds

1	1	1	2
2	2	2	3
3	3	2	32
4	4	3	4
5	5	3	24
6	6	4	5
7	7	4	23
8	6	4	9
9	6	5	6
10	7	5	21
11	7	5	22
12	6	6	7
13	7	6	19
14	7	6	20
15	6	7	8
16	4	7	14
17	7	7	18
18	6	8	9
19	7	8	12
20	7	8	13
21	7	9	10
22	7	9	11
23	2	14	15
24	5	14	17
25	1	15	16
26	8	15	354
27	9	25	26
28	3	25	59
29	6	26	27
30	7	26	43
31	7	26	44
32	6	27	28
33	7	27	41
34	7	27	42
35	6	28	29
36	7	28	39
37	7	28	40
38	6	29	30
39	7	29	37
40	7	29	38
41	6	30	31
42	7	30	35
43	7	30	36
44	9	31	32
45	7	31	33
46	7	31	34
47	1	45	46
48	2	46	47
49	3	46	76
50	4	47	48
51	5	47	68
52	6	48	49
53	7	48	67
54	6	48	53
55	6	49	50
56	7	49	65
57	7	49	66
58	6	50	51
59	7	50	63
60	7	50	64
61	6	51	52
62	4	51	58
63	7	51	62
64	6	52	53
65	7	52	56
66	7	52	57
67	7	53	54
68	7	53	55
69	2	58	59
70	5	58	61
71	1	59	60
72	9	69	70
73	3	69	103
74	6	70	71
75	7	70	87
76	7	70	88
77	6	71	72
78	7	71	85
79	7	71	86
80	6	72	73
81	7	72	83
82	7	72	84
83	6	73	74
84	7	73	81
85	7	73	82
86	6	74	75
87	7	74	79
88	7	74	80
89	9	75	76
90	7	75	77
91	7	75	78
92	1	89	90
93	2	90	91
94	3	90	120
95	4	91	92
96	5	91	112
97	6	92	93
98	7	92	111
99	6	92	97
100	6	93	94
101	7	93	109
102	7	93	110
103	6	94	95
104	7	94	107
105	7	94	108
106	6	95	96
107	4	95	102
108	7	95	106
109	6	96	97
110	7	96	100
111	7	96	101
112	7	97	98
113	7	97	99
114	2	102	103
115	5	102	105
116	1	103	104
117	9	113	114
118	3	113	147
119	6	114	115
120	7	114	131
121	7	114	132
122	6	115	116
123	7	115	129
124	7	115	130
125	6	116	117
126	7	116	127
127	7	116	128
128	6	117	118
129	7	117	125
130	7	117	126
131	6	118	119
132	7	118	123
133	7	118	124
134	9	119	120
135	7	119	121
136	7	119	122
137	1	133	134
138	2	134	135
139	3	134	164
140	4	135	136
141	5	135	156
142	6	136	137
143	7	136	155
144	6	136	141
145	6	137	138
146	7	137	153
147	7	137	154
148	6	138	139
149	7	138	151
150	7	138	152
151	6	139	140
152	4	139	146
153	7	139	150
154	6	140	141
155	7	140	144
156	7	140	145
157	7	141	142
158	7	141	143
159	2	146	147
160	5	146	149
161	1	147	148
162	9	157	158
163	3	157	191
164	6	158	159
165	7	158	175
166	7	158	176
167	6	159	160
168	7	159	173
169	7	159	174
170	6	160	161
171	7	160	171
172	7	160	172
173	6	161	162
174	7	161	169
175	7	161	170
176	6	162	163
177	7	162	167
178	7	162	168
179	9	163	164
180	7	163	165
181	7	163	166
182	1	177	178
183	2	178	179
184	3	178	208
185	4	179	180
186	5	179	200
187	6	180	181
188	7	180	199
189	6	180	185
190	6	181	182
191	7	181	197
192	7	181	198
193	6	182	183
194	7	182	195
195	7	182	196
196	6	183	184
197	4	183	190
198	7	183	194
199	6	184	185
200	7	184	188
201	7	184	189
202	7	185	186
203	7	185	187
204	2	190	191
205	5	190	193
206	1	191	192
207	9	201	202
208	3	201	235
209	6	202	203
210	7	202	219
211	7	202	220
212	6	203	204
213	7	203	217
214	7	203	218
215	6	204	205
216	7	204	215
217	7	204	216
218	6	205	206
219	7	205	213
220	7	205	214
221	6	206	207
222	7	206	211
223	7	206	212
224	9	207	208
225	7	207	209
226	7	207	210
227	1	221	222
228	2	222	223
229	3	222	252
230	4	223	224
231	5	223	244
232	6	224	225
233	7	224	243
234	6	224	229
235	6	225	226
236	7	225	241
237	7	225	242
238	6	226	227
239	7	226	239
240	7	226	240
241	6	227	228
242	4	227	234
243	7	227	238
244	6	228	229
245	7	228	232
246	7	228	233
247	7	229	230
248	7	229	231
249	2	234	235
250	5	234	237
251	1	235	236
252	9	245	246
253	3	245	279
254	6	246	247
255	7	246	263
256	7	246	264
257	6	247	248
258	7	247	261
259	7	247	262
260	6	248	249
261	7	248	259
262	7	248	260
263	6	249	250
264	7	249	257
265	7	249	258
266	6	250	251
267	7	250	255
268	7	250	256
269	9	251	252
270	7	251	253
271	7	251	254
272	1	265	266
273	2	266	267
274	3	266	296
275	4	267	268
276	5	267	288
277	6	268	269
278	7	268	287
279	6	268	273
280	6	269	270
281	7	269	285
282	7	269	286
283	6	270	271
284	7	270	283
285	7	270	284
286	6	271	272
287	4	271	278
288	7	271	282
289	6	272	273
290	7	272	276
291	7	272	277
292	7	273	274
293	7	273	275
294	2	278	279
295	5	278	281
296	1	279	280
297	9	289	290
298	3	289	323
299	6	290	291
300	7	290	307
301	7	290	308
302	6	291	292
303	7	291	305
304	7	291	306
305	6	292	293
306	7	292	303
307	7	292	304
308	6	293	294
309	7	293	301
310	7	293	302
311	6	294	295
312	7	294	299
313	7	294	300
314	9	295	296
315	7	295	297
316	7	295	298
317	1	309	310
318	2	310	311
319	3	310	340
320	4	311	312
321	5	311	332
322	6	312	313
323	7	312	331
324	6	312	317
325	6	313	314
326	7	313	329
327	7	313	330
328	6	314	315
329	7	314	327
330	7	314	328
331	6	315	316
332	4	315	322
333	7	315	326
334	6	316	317
335	7	316	320
336	7	316	321
337	7	317	318
338	7	317	319
339	2	322	323
340	5	322	325
341	1	323	324
342	9	333	334
343	10	333	376
344	6	334	335
345	7	334	351
346	7	334	352
347	6	335	336
348	7	335	349
349	7	335	350
350	6	336	337
351	7	336	347
352	7	336	348
353	6	337	338
354	7	337	345
355	7	337	346
356	6	338	339
357	7	338	343
358	7	338	344
359	9	339	340
360	7	339	341
361	7	339	342
362	1	353	354
363	2	354	355
364	4	355	356
365	5	355	375
366	6	356	357
367	7	356	374
368	6	356	361
369	6	357	358
370	7	357	372
371	7	357	373
372	6	358	359
373	7	358	370
374	7	358	371
375	6	359	360
376	11	359	366
377	7	359	369
378	6	360	361
379	7	360	364
380	7	360	365
381	7	361	362
382	7	361	363
383	12	366	367
384	1	367	368
385	9	376	377
386	6	377	378
387	7	377	395
388	7	377	396
389	6	378	379
390	7	378	393
391	7	378	394
392	6	379	380
393	7	379	391
394	7	379	392
395	6	380	381
396	7	380	389
397	7	380	390
398	6	381	382
399	7	381	387
400	7	381	388
401	13	382	383
402	7	382	385
403	7	382	386
404	14	383	384

Angles

1	6	117	116	128
2	6	380	379	391
3	6	271	270	283
4	7	276	272	277
5	4	2	3	24
6	1	25	59	58
7	6	96	95	106
8	6	356	357	373
9	6	380	381	387
10	6	115	116	117
11	4	191	190	193
12	6	292	293	294
13	6	204	203	217
14	4	136	135	156
15	6	378	379	380
16	6	53	48	67
17	4	183	190	193
18	6	245	246	264
19	2	289	323	324
20	7	351	334	352
21	6	336	335	350
22	6	49	50	64
23	7	21	5	22
24	6	164	163	166
25	7	259	248	260
26	6	30	31	33
27	6	146	139	150
28	6	52	53	54
29	6	267	268	287
30	6	202	203	218
31	6	73	74	75
32	6	6	7	18
33	6	92	93	110
34	7	127	116	128
35	6	52	51	58
36	6	138	139	146
37	6	141	140	145
38	5	134	164	163
39	7	175	158	176
40	6	31	30	35
41	2	157	191	192
42	6	26	27	41
43	6	50	51	62
44	6	356	361	360
45	4	227	234	237
46	7	165	163	166
47	6	160	161	170
48	6	228	227	234
49	6	180	181	198
50	1	265	266	267
51	7	385	382	386
52	6	314	313	329
53	1	89	90	91
54	5	333	376	377
55	7	362	361	363
56	6	161	162	163
57	7	85	71	86
58	6	225	226	227
59	6	228	229	230
60	6	268	273	274
61	6	139	138	152
62	6	250	249	258
63	6	378	377	395
64	6	116	117	125
65	6	73	72	83
66	1	113	147	146
67	1	353	354	355
68	7	167	162	168
69	6	207	206	212
70	7	186	185	187
71	5	266	296	295
72	2	177	178	208
73	6	377	378	379
74	6	117	118	123
75	2	45	46	76
76	6	246	247	262
77	6	203	202	220
78	6	3	4	23
79	6	69	70	87
80	6	9	8	12
81	6	161	160	171
82	6	208	207	210
83	6	316	317	318
84	6	381	382	386
85	6	49	48	67
86	6	50	49	66
87	6	203	204	216
88	6	225	226	240
89	6	47	48	67
90	6	161	162	167
91	7	211	206	212
92	7	253	251	254
93	5	178	208	207
94	6	75	74	80
95	6	6	5	21
96	6	7	6	20
97	6	271	272	276
98	6	336	337	345
99	7	327	314	328
100	6	4	5	21
101	6	48	53	55
102	6	226	225	242
103	4	59	58	61
104	6	48	49	50
105	6	116	117	118
106	6	293	294	295
107	6	157	158	175
108	6	116	115	129
109	5	246	245	279
110	6	226	227	238
111	6	294	293	302
112	6	315	314	327
113	1	135	134	164
114	6	358	357	372
115	1	201	235	234
116	6	202	203	204
117	6	269	270	271
118	6	355	356	357
119	6	294	295	298
120	6	270	269	285
121	6	227	228	233
122	6	51	50	63
123	6	136	141	142
124	6	185	184	188
125	6	115	114	131
126	6	117	116	127
127	3	46	47	48
128	5	158	157	191
129	1	322	323	324
130	4	235	234	237
131	3	271	278	279
132	7	144	140	145
133	6	137	138	151
134	6	311	312	331
135	7	19	6	20
136	6	179	180	181
137	6	182	183	184
138	6	246	247	248
139	6	249	250	251
140	6	250	251	253
141	6	268	269	286
142	6	316	315	322
143	6	317	312	331
144	6	91	92	111
145	1	245	279	278
146	6	333	334	335
147	6	336	337	338
148	6	201	202	220
149	6	245	246	263
150	6	162	161	169
151	6	49	50	63
152	7	215	204	216
153	6	289	290	308
154	7	307	290	308
155	6	183	184	189
156	6	30	31	32
157	6	272	271	278
158	1	309	310	311
159	6	202	203	217
160	6	269	270	284
161	7	241	225	242
162	4	46	47	68
163	6	92	93	109
164	6	205	206	207
165	7	39	28	40
166	4	95	102	105