Title

241 atoms
258 bonds
431 angles
665 dihedrals
324 impropers

11 atom types
15 bond types
9 angle types
21 dihedral types
3 improper types
-21.01600075 78.98399925 xlo xhi
-17.54100037 82.45899963 ylo yhi
-4.589000225 95.41099977 zlo zhi
0.0 0.0 0.0 xy xz yz

Masses

1	14.00672
2	12.01078
3	1.007947
4	15.99943
5	12.01078
6	1.007947
7	1.007947
8	18.998403
9	15.99943
10	15.99943
11	1.007947


Pair Coeffs

1	0.16769152	3.206876
2	0.086879315	3.4806469
3	0.015611343	2.5725815
4	0.16846514	3.0251065
5	0.10884061	3.3795318
6	0.015779483	2.6445434
7	0.014090815	1.1034277
8	0.061	3.1181455
9	0.2102061	3.0398122
10	0.20947353	2.99716
11	1.2326e-05	0.53453923

Bond Coeffs

1 harmonic	390.03554688505	1.390160554689
2 harmonic	505.144496193	1.019481865027
3 harmonic	422.7150220147	1.421786517481
4 harmonic	360.7852444772	1.387193227181
5 harmonic	397.2545789619	1.085358495916
6 harmonic	279.1350963404	1.454628925034
7 harmonic	425.69104206635	1.362945806494
8 harmonic	289.73813263395	1.498646816465
9 harmonic	264.62148576755	1.52190126495
10 harmonic	370.04670688625	1.093899492634
11 harmonic	492.76746816345	1.381897776683
12 harmonic	340.45121009905	1.358690858053
13 harmonic	582.698766451	1.225198386222
14 harmonic	385.7604595587	1.369745182308
15 harmonic	543.5267831885	0.9716763312559


Angle Coeffs

1 harmonic	57.8982893754	126.8062420451
2 harmonic	55.42182150775	117.3465570514
3 harmonic	63.44422595415	115.5071327674
4 harmonic	34.066775159195	129.1835929926
5 harmonic	65.09061609600001	110.3538806181
6 harmonic	53.20531626545	116.5475862634
7 harmonic	14.32262199324	138.3184368373
8 harmonic	48.776492647595	115.6030999533
9 harmonic	201.41175231035	127.4691416191


Dihedral Coeffs

1 fourier 1	3.661930099076	2	180
2 fourier 1	1.193093382682	2	180
3 fourier 1	0.02021088501612	1	0
4 fourier 1	1.163235555439	2	180
5 fourier 1	1.532232714475	2	180
6 fourier 1	0.02664938770063	3	0
7 fourier 1	0.1155372516788	3	0
8 fourier 1	0.09223874044423	3	0
9 fourier 1	0.3159935921949	2	180
10 fourier 1	0.3247796806857	1	180
11 fourier 1	0.1040663847541	3	0
12 fourier 1	3.101948770557	2	180
13 fourier 1	-0.4252153282372	1	0
14 fourier 1	1.809047390003	2	180
15 fourier 1	-0.04816277792592	1	0
16 fourier 1	0.9974165607242	2	180
17 fourier 1	2.348375642009	2	180
18 fourier 1	1.256156174911	1	0
19 fourier 1	2.687457892086	2	180
20 fourier 1	2.772607909663	2	180
21 fourier 1	0.09692684957115	1	0


Improper Coeffs

1 0.3666666666666667	-1	2
2 0.3333333333333333	-1	2
3 3.5	-1	2


Atoms

1	1	1	-0.41299599	11.7	-4.5539999	0.44800001
2	1	2	0.124328	10.391	-4.0219998	0.66500002
3	1	2	-0.408847	10.143	-2.7179999	0.46799999
4	1	3	0.219208	10.931	-2.05	0.142
5	1	2	-0.11725	8.7860003	-2.174	0.68900001
6	1	3	0.20191801	8.6160002	-1.122	0.49599999
7	1	2	-0.129939	7.783	-2.9790001	1.089
8	1	2	-0.136117	6.415	-2.441	1.303
9	1	2	-0.132681	5.335	-3.1589999	0.94599998
10	1	3	0.205218	5.4400001	-4.1339998	0.48300001
11	1	2	-0.29832199	3.98	-2.612	1.1289999
12	1	3	0.22178	3.1270001	-3.1900001	0.79799998
13	1	2	0.326637	3.8039999	-1.393	1.655
14	1	4	-0.27449	2.506	-0.88499999	1.7589999
15	1	2	0.26233399	2.0109999	0.142	0.94800001
16	1	2	-0.28275299	0.85699999	0.72799999	1.281
17	1	3	0.228819	0.32600001	0.41600001	2.1730001
18	1	2	-0.151977	0.29899999	1.812	0.449
19	1	3	0.21469501	-0.62	2.2809999	0.778
20	1	2	-0.25912699	0.91500002	2.2079999	-0.68900001
21	1	5	0.018307	0.32800001	3.3599999	-1.523
22	1	5	-0.132245	0.93900001	3.4619999	-2.9400001
23	1	6	0.085868999	0.86900002	2.487	-3.4690001
24	1	6	0.085868999	2.0039999	3.7709999	-2.8889999
25	1	6	0.085868999	0.40200001	4.224	-3.5439999
26	1	2	-0.110738	-1.156	3.2090001	-1.666
27	1	2	-0.12974501	-1.814	2.1619999	-2.184
28	1	3	0.21412601	-1.276	1.307	-2.573
29	1	2	0.231609	-3.2950001	2.1659999	-2.164
30	1	4	-0.283261	-3.987	1.059	-2.6630001
31	1	2	0.330511	-4.777	0.19599999	-1.883
32	1	2	-0.29832199	-4.7270002	0.213	-0.537
33	1	3	0.22178	-4.0799999	0.90200001	-0.0099999998
34	1	2	-0.132681	-5.5050001	-0.755	0.257
35	1	3	0.205218	-5.4029999	-0.73400003	1.334
36	1	2	-0.136117	-6.2789998	-1.6720001	-0.35100001
37	1	2	-0.129939	-7.0180001	-2.6960001	0.43200001
38	1	2	-0.13120399	-7.6209998	-2.3889999	1.599
39	1	3	0.20191801	-7.6030002	-1.3789999	1.988
40	1	2	-0.37709501	-8.3459997	-3.425	2.365
41	1	3	0.215749	-8.8149996	-3.155	3.3039999
42	1	2	0.196639	-8.4169998	-4.6820002	1.903
43	1	1	-0.531703	-9.1190004	-5.6869998	2.6389999
44	1	7	0.318308	-9.1759996	-6.664	2.277
45	1	2	-0.37709501	-7.7610002	-5.027	0.62199998
46	1	3	0.215749	-7.8070002	-6.0409999	0.245
47	1	2	-0.13120399	-7.1030002	-4.092	-0.071999997
48	1	3	0.20191801	-6.6139998	-4.3709998	-0.99699998
49	1	2	-0.059535999	-6.3530002	-1.6799999	-1.834
50	1	3	0.20432501	-6.9949999	-2.405	-2.316
51	1	2	-0.324195	-5.6529999	-0.79299998	-2.5699999
52	1	5	0.76555902	-5.7179999	-0.796	-4.0809999
53	1	8	-0.21081001	-4.4790001	-1.1390001	-4.5890002
54	1	8	-0.21081001	-6.0580001	0.46599999	-4.5310001
55	1	8	-0.21081001	-6.6550002	-1.6950001	-4.5619998
56	1	2	-0.28861499	-3.9579999	3.23	-1.666
57	1	3	0.217233	-5.0409999	3.2420001	-1.655
58	1	2	0.0086949999	-3.2079999	4.3909998	-1.128
59	1	3	0.21216699	-3.7420001	5.2459998	-0.73500001
60	1	2	-0.199599	-1.865	4.3499999	-1.13
61	1	5	-0.021753	-0.91799998	5.3920002	-0.625
62	1	5	-0.131851	-1.008	6.6550002	-1.5
63	1	6	0.090140998	-0.266	7.4109998	-1.163
64	1	6	0.090140998	-2.0220001	7.1059999	-1.437
65	1	6	0.090140998	-0.796	6.408	-2.5639999
66	1	5	-0.131851	-1.217	5.7399998	0.84600002
67	1	6	0.090140998	-2.211	6.2249999	0.94300002
68	1	6	0.090140998	-1.2130001	4.823	1.475
69	1	6	0.090140998	-0.44999999	6.441	1.239
70	1	5	-0.182083	0.48699999	4.7199998	-0.76599997
71	1	6	0.128212	1.207	5.3920002	-1.285
72	1	6	0.128212	0.93800002	4.553	0.23999999
73	1	2	-0.151977	2.2119999	1.557	-1.046
74	1	3	0.21469501	2.7650001	1.852	-1.928
75	1	2	-0.28275299	2.7219999	0.58600003	-0.278
76	1	3	0.228819	3.658	0.123	-0.56699997
77	1	2	-0.324195	4.9819999	-0.60399997	2.122
78	1	5	0.76555902	4.8000002	0.75300002	2.767
79	1	8	-0.21081001	3.648	0.773	3.5339999
80	1	8	-0.21081001	4.7049999	1.721	1.784
81	1	8	-0.21081001	5.8660002	1.0599999	3.5940001
82	1	2	-0.059535999	6.2189999	-1.1	1.9170001
83	1	3	0.20432501	7.0910001	-0.53500003	2.227
84	1	2	-0.11725	8.0679998	-4.4229999	1.311
85	1	3	0.20191801	7.2870002	-5.0900002	1.653
86	1	2	-0.408847	9.2959995	-4.9120002	1.109
87	1	3	0.219208	9.4919996	-5.9629998	1.2819999
88	1	7	0.37134001	12.491	-3.9400001	0.15000001
89	1	2	0.755584	-9.5900002	-5.4629998	3.566
90	1	9	-0.673621	-8.96	-4.7680001	4.4050002
91	1	2	-0.31000799	-10.922	-6.0310001	3.869
92	1	2	-0.028516	-11.3	-7.1339998	3.198
93	1	3	0.21671601	-10.662	-7.5640001	2.4349999
94	1	2	-0.31595701	-12.559	-7.8249998	3.523
95	1	3	0.22054	-12.828	-8.7229996	2.98
96	1	2	0.21211401	-13.362	-7.3559999	4.4819999
97	1	4	-0.27986801	-14.54	-8.0550003	4.7810001
98	1	2	0.205037	-15.721	-7.4689999	5.2550001
99	1	2	-0.31188601	-16.518999	-8.1820002	6.0560002
100	1	3	0.22054	-16.243999	-9.1899996	6.3390002
101	1	2	-0.006846	-17.785	-7.6129999	6.5500002
102	1	3	0.226953	-18.424999	-8.243	7.1560001
103	1	2	-0.190988	-18.17	-6.3730001	6.1960001
104	1	2	0.80086201	-19.518999	-5.9109998	6.5949998
105	1	9	-0.49649599	-20.181	-5.145	5.8449998
106	1	10	-0.66663802	-20.087	-6.3610001	7.7839999
107	1	11	0.41616201	-21.016001	-6.066	8.0609999
108	1	2	-0.124958	-17.261999	-5.546	5.3309999
109	1	2	0.79855698	-17.537001	-4.119	5.0430002
110	1	9	-0.49649599	-17.152	-3.605	3.9579999
111	1	10	-0.66663802	-18.177	-3.322	5.987
112	1	11	0.41616201	-18.356001	-2.342	5.8039999
113	1	2	-0.084602997	-16.124001	-6.0960002	4.862
114	1	3	0.22945499	-15.467	-5.5219998	4.2210002
115	1	2	-0.034283001	-12.969	-6.1339998	5.2259998
116	1	3	0.211982	-13.63	-5.763	5.9990001
117	1	2	-0.20112599	-11.833	-5.473	4.927
118	1	2	0.57182199	-11.552	-4.178	5.5900002
119	1	9	-0.54774803	-12.147	-3.848	6.651
120	1	1	-0.41299599	11.882	-5.5760002	0.57800001
121	1	2	0.124328	12.098	-6.1079998	1.888
122	1	2	-0.408847	12.365	-7.4120002	2.0580001
123	1	3	0.219208	12.42	-8.0799999	1.207
124	1	2	-0.11725	12.593	-7.9559999	3.414
125	1	3	0.20191801	12.831	-9.0080004	3.513
126	1	2	-0.129939	12.538	-7.151	4.493
127	1	2	-0.136117	12.777	-7.6890001	5.8559999
128	1	2	-0.132681	13.463	-6.9710002	6.763
129	1	3	0.205218	13.867	-5.9959998	6.5149999
130	1	2	-0.29832199	13.726	-7.5180001	8.1049995
131	1	3	0.22178	14.314	-6.9400001	8.8059998
132	1	2	0.326637	13.286	-8.7370005	8.4420004
133	1	4	-0.27449	13.605	-9.2449999	9.7040005
134	1	2	0.26233399	14.533	-10.272	9.9099998
135	1	2	-0.28275299	14.59	-10.858	11.111
136	1	3	0.228819	13.917	-10.546	11.901
137	1	2	-0.151977	15.557	-11.941	11.37
138	1	3	0.21469501	15.542	-12.411	12.346
139	1	2	-0.25912699	16.436001	-12.338	10.42
140	1	5	0.018307	17.415001	-13.49	10.707
141	1	5	-0.132245	18.558001	-13.592	9.6719999
142	1	6	0.085868999	19.082001	-12.616	9.5670004
143	1	6	0.085868999	18.167	-13.901	8.6800003
144	1	6	0.085868999	19.302999	-14.354	9.9849997
145	1	2	-0.110738	18.028	-13.339	12.065
146	1	2	-0.12974501	18.731001	-12.292	12.521
147	1	3	0.21412601	18.924999	-11.436	11.886
148	1	2	0.231609	19.188999	-12.296	13.929
149	1	4	-0.283261	19.885	-11.189	14.424
150	1	2	0.330511	19.400999	-10.326	15.423
151	1	2	-0.29832199	18.111	-10.343	15.81
152	1	3	0.22178	17.403999	-11.032	15.367
153	1	2	-0.132681	17.610001	-9.375	16.802
154	1	3	0.205218	16.558001	-9.3950005	17.052999
155	1	2	-0.136117	18.434999	-8.4580002	17.339001
156	1	2	-0.129939	17.931999	-7.4330001	18.291
157	1	2	-0.080707997	17.021999	-7.7399998	19.238001
158	1	3	0.20191801	16.648001	-8.7510004	19.346001
159	1	2	-0.45293701	16.530001	-6.7049999	20.171
160	1	3	0.227641	15.793	-6.9749999	20.917999
161	1	2	0.314816	16.990999	-5.447	20.089001
162	1	1	-0.84581202	16.521	-4.4429998	20.990999
163	1	7	0.36424801	15.809	-4.6630001	21.722
164	1	7	0.36424801	16.882	-3.4660001	20.927999
165	1	2	-0.45293701	17.992001	-5.1020002	19.056
166	1	3	0.227641	18.364	-4.0879998	18.976999
167	1	2	-0.080707997	18.437	-6.0370002	18.209
168	1	3	0.20191801	19.155001	-5.7589998	17.447001
169	1	2	-0.059535999	19.863001	-8.4499998	16.93
170	1	3	0.20432501	20.525999	-7.7249999	17.382999
171	1	2	-0.324195	20.334	-9.3369999	16.031
172	1	5	0.76555902	21.785	-9.3339996	15.605
173	1	8	-0.21081001	21.867001	-8.9910002	14.268
174	1	8	-0.21081001	22.320999	-10.596	15.782
175	1	8	-0.21081001	22.542	-8.4350004	16.337
176	1	2	-0.28861499	18.931999	-13.36	14.718
177	1	3	0.217233	19.271	-13.371	15.747
178	1	2	0.0086949999	18.18	-14.521	14.181
179	1	3	0.21216699	17.981001	-15.376	14.814
180	1	2	-0.199599	17.749001	-14.48	12.91
181	1	5	-0.021753	16.966	-15.522	12.176
182	1	5	-0.131851	17.823999	-16.784	11.978
183	1	6	0.090140998	17.264999	-17.541	11.386
184	1	6	0.090140998	18.09	-17.235001	12.959
185	1	6	0.090140998	18.761999	-16.538	11.436
186	1	5	-0.131851	15.67	-15.87	12.934
187	1	6	0.090140998	15.899	-16.354	13.906
188	1	6	0.090140998	15.073	-14.953	13.132
189	1	6	0.090140998	15.051	-16.57	12.335
190	1	5	-0.182083	16.646	-14.85	10.8
191	1	6	0.128212	16.906	-15.522	9.9519997
192	1	6	0.128212	15.549	-14.683	10.698
193	1	2	-0.151977	16.355	-11.687	9.0780001
194	1	3	0.21469501	17.011999	-11.982	8.2700005
195	1	2	-0.28275299	15.464	-10.716	8.842
196	1	3	0.228819	15.436	-10.253	7.8639998
197	1	2	-0.324195	12.463	-9.526	7.4759998
198	1	5	0.76555902	11.912	-10.883	7.8569999
199	1	8	-0.21081001	11.556	-10.903	9.1949997
200	1	8	-0.21081001	12.873	-11.851	7.6300001
201	1	8	-0.21081001	10.785	-11.19	7.1149998
202	1	2	-0.059535999	12.258	-9.0299997	6.2399998
203	1	3	0.20432501	11.683	-9.5950003	5.5139999
204	1	2	-0.11725	12.236	-5.7069998	4.2950001
205	1	3	0.20191801	12.163	-5.04	5.1440001
206	1	2	-0.408847	12.031	-5.2179999	3.066
207	1	3	0.219208	11.804	-4.1669998	2.937
208	1	7	0.37134001	11.908	-6.1900001	-0.26699999
209	1	2	0.58014899	-10.847	-3.48	5.164
210	1	9	-0.54774803	-9.6549997	-3.859	5.007
211	1	2	-0.31191099	-11.281	-2.1240001	4.7529998
212	1	2	0.02485	-10.499	-1.401	3.928
213	1	3	0.211174	-9.5360003	-1.773	3.5999999
214	1	2	-0.321747	-10.961	-0.109	3.3870001
215	1	3	0.22054	-10.32	0.44400001	2.7130001
216	1	2	0.205037	-12.178	0.354	3.687
217	1	4	-0.27986801	-12.592	1.574	3.135
218	1	2	0.205037	-13.923	1.928	2.8770001
219	1	2	-0.31188601	-14.262	3.221	2.8900001
220	1	3	0.22054	-13.519	3.9749999	3.1170001
221	1	2	-0.006846	-15.658	3.631	2.6530001
222	1	3	0.226953	-15.907	4.6799998	2.7579999
223	1	2	-0.190988	-16.612	2.7160001	2.398
224	1	2	0.80086201	-18.025999	3.154	2.3369999
225	1	9	-0.49649599	-18.316999	4.3060002	1.913
226	1	10	-0.66663802	-19.041	2.3180001	2.7920001
227	1	11	0.41616201	-20.009001	2.6140001	2.7679999
228	1	2	-0.124958	-16.221001	1.271	2.273
229	1	2	0.79855698	-17.160999	0.23800001	1.781
230	1	9	-0.49649599	-18.079	0.542	0.97299999
231	1	10	-0.66663802	-17.007	-1.089	2.1730001
232	1	11	0.41616201	-17.632999	-1.809	1.831
233	1	2	-0.084602997	-14.948	0.91299999	2.5280001
234	1	3	0.22945499	-14.637	-0.117	2.402
235	1	2	-0.087715	-13.029	-0.40099999	4.6389999
236	1	3	0.22945499	-13.968	0.035999998	4.9549999
237	1	2	-0.088836998	-12.612	-1.567	5.1700001
238	1	2	0.81078398	-13.459	-2.2190001	6.1950002
239	1	9	-0.49649599	-12.938	-2.8829999	7.131
240	1	10	-0.66663802	-14.842	-2.0599999	6.1599998
241	1	11	0.41616201	-15.433	-2.4860001	6.8649998

Bonds

1	1	1	2
2	2	1	88
3	3	1	120
4	4	2	3
5	4	2	86
6	5	3	4
7	4	3	5
8	5	5	6
9	4	5	7
10	6	7	8
11	4	7	84
12	4	8	9
13	4	8	82
14	5	9	10
15	4	9	11
16	5	11	12
17	4	11	13
18	7	13	14
19	4	13	77
20	7	14	15
21	4	15	16
22	4	15	75
23	5	16	17
24	4	16	18
25	5	18	19
26	4	18	20
27	8	20	21
28	4	20	73
29	9	21	22
30	8	21	26
31	9	21	70
32	10	22	23
33	10	22	24
34	10	22	25
35	4	26	27
36	4	26	60
37	5	27	28
38	4	27	29
39	7	29	30
40	4	29	56
41	7	30	31
42	4	31	32
43	4	31	51
44	5	32	33
45	4	32	34
46	5	34	35
47	4	34	36
48	6	36	37
49	4	36	49
50	4	37	38
51	4	37	47
52	5	38	39
53	4	38	40
54	5	40	41
55	4	40	42
56	1	42	43
57	4	42	45
58	2	43	44
59	11	43	89
60	5	45	46
61	4	45	47
62	5	47	48
63	5	49	50
64	4	49	51
65	8	51	52
66	12	52	53
67	12	52	54
68	12	52	55
69	5	56	57
70	4	56	58
71	5	58	59
72	4	58	60
73	8	60	61
74	9	61	62
75	9	61	66
76	9	61	70
77	10	62	63
78	10	62	64
79	10	62	65
80	10	66	67
81	10	66	68
82	10	66	69
83	10	70	71
84	10	70	72
85	5	73	74
86	4	73	75
87	5	75	76
88	8	77	78
89	4	77	82
90	12	78	79
91	12	78	80
92	12	78	81
93	5	82	83
94	5	84	85
95	4	84	86
96	5	86	87
97	13	89	90
98	6	89	91
99	4	91	92
100	4	91	117
101	5	92	93
102	4	92	94
103	5	94	95
104	4	94	96
105	7	96	97
106	4	96	115
107	7	97	98
108	4	98	99
109	4	98	113
110	5	99	100
111	4	99	101
112	5	101	102
113	4	101	103
114	6	103	104
115	4	103	108
116	13	104	105
117	14	104	106
118	15	106	107
119	6	108	109
120	4	108	113
121	13	109	110
122	14	109	111
123	15	111	112
124	5	113	114
125	5	115	116
126	4	115	117
127	6	117	118
128	13	118	119
129	6	118	209
130	1	120	121
131	2	120	208
132	4	121	122
133	4	121	206
134	5	122	123
135	4	122	124
136	5	124	125
137	4	124	126
138	6	126	127
139	4	126	204
140	4	127	128
141	4	127	202
142	5	128	129
143	4	128	130
144	5	130	131
145	4	130	132
146	7	132	133
147	4	132	197
148	7	133	134
149	4	134	135
150	4	134	195
151	5	135	136
152	4	135	137
153	5	137	138
154	4	137	139
155	8	139	140
156	4	139	193
157	9	140	141
158	8	140	145
159	9	140	190
160	10	141	142
161	10	141	143
162	10	141	144
163	4	145	146
164	4	145	180
165	5	146	147
166	4	146	148
167	7	148	149
168	4	148	176
169	7	149	150
170	4	150	151
171	4	150	171
172	5	151	152
173	4	151	153
174	5	153	154
175	4	153	155
176	6	155	156
177	4	155	169
178	4	156	157
179	4	156	167
180	5	157	158
181	4	157	159
182	5	159	160
183	4	159	161
184	1	161	162
185	4	161	165
186	2	162	163
187	2	162	164
188	5	165	166
189	4	165	167
190	5	167	168
191	5	169	170
192	4	169	171
193	8	171	172
194	12	172	173
195	12	172	174
196	12	172	175
197	5	176	177
198	4	176	178
199	5	178	179
200	4	178	180
201	8	180	181
202	9	181	182
203	9	181	186
204	9	181	190
205	10	182	183
206	10	182	184
207	10	182	185
208	10	186	187
209	10	186	188
210	10	186	189
211	10	190	191
212	10	190	192
213	5	193	194
214	4	193	195
215	5	195	196
216	8	197	198
217	4	197	202
218	12	198	199
219	12	198	200
220	12	198	201
221	5	202	203
222	5	204	205
223	4	204	206
224	5	206	207
225	13	209	210
226	6	209	211
227	4	211	212
228	4	211	237
229	5	212	213
230	4	212	214
231	5	214	215
232	4	214	216
233	7	216	217
234	4	216	235
235	7	217	218
236	4	218	219
237	4	218	233
238	5	219	220
239	4	219	221
240	5	221	222
241	4	221	223
242	6	223	224
243	4	223	228
244	13	224	225
245	14	224	226
246	15	226	227
247	6	228	229
248	4	228	233
249	13	229	230
250	14	229	231
251	15	231	232
252	5	233	234
253	5	235	236
254	4	235	237
255	6	237	238
256	13	238	239
257	14	238	240
258	15	240	241

Angles

1	1	101	103	104
2	4	98	113	114
3	2	2	1	120
4	3	1	120	208
5	1	42	45	47
6	1	139	193	195
7	1	91	92	94
8	4	3	5	6
9	4	158	157	159
10	6	51	52	53
11	4	134	135	136
12	1	117	118	209
13	1	153	155	156
14	4	161	165	166
15	6	140	141	144
16	9	105	104	106
17	4	35	34	36
18	1	132	197	202
19	1	27	29	30
20	4	108	113	114
21	4	15	75	76
22	6	141	140	190
23	1	20	73	75
24	4	31	32	33
25	1	101	103	108
26	8	23	22	24
27	1	124	126	204
28	6	181	190	191
29	1	90	89	91
30	3	42	43	44
31	1	37	36	49
32	1	145	180	178
33	1	153	155	169
34	1	99	98	113
35	1	176	178	180
36	4	148	176	177
37	1	212	214	216
38	6	61	66	67
39	4	123	122	124
40	4	145	146	147
41	1	211	237	238
42	1	78	77	82
43	3	161	162	163
44	1	228	229	230
45	4	29	56	57
46	1	235	237	238
47	4	122	124	125
48	1	146	145	180
49	6	139	140	145
50	1	18	20	21
51	6	181	182	185
52	4	213	212	214
53	1	27	26	60
54	6	53	52	55
55	1	118	209	211
56	1	150	171	169
57	6	62	61	70
58	4	2	86	87
59	4	59	58	60
60	1	5	7	84
61	4	127	202	203
62	4	129	128	130
63	4	236	235	237
64	4	50	49	51
65	1	92	94	96
66	4	135	137	138
67	1	26	60	58
68	4	39	38	40
69	8	183	182	185
70	5	238	240	241
71	1	221	223	224
72	6	61	70	71
73	1	149	148	176
74	4	152	151	153
75	1	162	161	165
76	1	13	77	82
77	4	12	11	13
78	6	140	190	192
79	8	64	62	65
80	6	140	190	181
81	4	37	47	48
82	4	42	45	46
83	1	89	91	117
84	4	139	193	194
85	1	56	58	60
86	6	21	70	72
87	4	91	92	93
88	4	228	233	234
89	6	21	70	61
90	9	239	238	240
91	4	197	202	203
92	1	135	134	195
93	6	140	141	143
94	4	8	9	10
95	6	54	52	55
96	4	215	214	216
97	1	223	224	226
98	6	22	21	26
99	1	34	36	37
100	5	224	226	227
101	6	182	181	186
102	1	14	13	77
103	1	155	156	157
104	1	26	27	29
105	3	88	1	120
106	1	30	29	56
107	4	36	49	50
108	1	40	42	45
109	4	216	235	236
110	1	209	211	212
111	4	212	214	215
112	1	89	91	92
113	6	186	181	190
114	6	145	140	190
115	1	7	8	82
116	1	16	15	75
117	5	132	133	134
118	6	173	172	175
119	1	15	16	18
120	1	49	51	52
121	4	33	32	34
122	6	181	186	189
123	1	149	150	151
124	4	165	167	168
125	8	187	186	189
126	9	230	229	231
127	1	145	180	181
128	3	121	120	208
129	1	115	117	118
130	4	211	212	213
131	1	31	51	49
132	1	11	13	14
133	6	171	172	175
134	6	61	62	65
135	1	150	151	153
136	1	156	157	159
137	4	166	165	167
138	6	180	181	190
139	4	92	94	95
140	1	122	121	206
141	1	132	197	198
142	4	116	115	117
143	8	183	182	184
144	6	26	21	70
145	7	178	180	181
146	1	219	221	223
147	4	77	82	83
148	1	30	31	51
149	6	140	190	191
150	4	93	92	94
151	1	149	150	171
152	1	217	216	235
153	4	56	58	59
154	6	21	70	71
155	1	126	127	202
156	1	150	171	172
157	6	174	172	175
158	1	218	233	228
159	1	36	37	38
160	1	103	108	113
161	6	197	198	201
162	1	26	60	61
163	1	38	37	47
164	4	57	56	58
165	1	219	218	233
166	6	139	140	141
167	1	103	104	106
168	8	71	70	72
169	4	74	73	75
170	1	155	156	167
171	8	184	182	185
172	1	2	3	5
173	1	97	96	115
174	1	7	84	86
175	4	32	34	35
176	1	169	171	172
177	1	104	103	108
178	6	51	52	55
179	6	62	61	66
180	5	109	111	112
181	1	126	127	128
182	1	99	101	103
183	8	142	141	144
184	1	43	89	91
185	1	34	36	49
186	4	170	169	171
187	6	173	172	174
188	8	63	62	64
189	6	141	140	145
190	7	58	60	61
191	1	155	169	171
192	4	15	16	17
193	1	229	228	233
194	1	146	148	149
195	6	60	61	66
196	1	146	148	176
197	1	13	77	78
198	7	21	26	27
199	4	160	159	161
200	6	61	66	69
201	3	163	162	164
202	4	218	233	234
203	8	67	66	69
204	1	140	145	180
205	9	110	109	111
206	3	2	1	88
207	1	126	204	206
208	4	150	151	152
209	4	156	157	158
210	1	121	206	204
211	1	210	209	211
212	1	156	155	169
213	6	60	61	70
214	1	91	117	118
215	1	117	118	119
216	1	127	128	130
217	1	8	7	84
218	4	45	47	48
219	1	128	130	132
220	4	100	99	101
221	1	27	29	56
222	8	188	186	189
223	1	37	38	40
224	1	130	132	197
225	1	21	26	60
226	1	9	11	13
227	6	197	198	200
228	1	11	13	77
229	4	17	16	18
230	4	194	193	195
231	4	154	153	155
232	6	199	198	201
233	4	20	73	74
234	5	96	97	98
235	1	237	238	240
236	4	28	27	29
237	6	77	78	81
238	1	103	104	105
239	1	31	51	52
240	4	2	3	4
241	1	151	153	155
242	4	4	3	5
243	4	7	84	85
244	4	176	178	179
245	1	3	5	7
246	4	220	219	221
247	6	51	52	54
248	4	131	130	132
249	1	9	8	82
250	1	159	161	162
251	6	180	181	186
252	5	229	231	232
253	1	223	228	233
254	8	142	141	143
255	1	43	89	90
256	1	137	139	140
257	1	133	132	197
258	1	31	32	34
259	4	41	40	42
260	1	133	134	135
261	5	29	30	31
262	1	91	117	115
263	5	216	217	218
264	6	181	182	184
265	6	53	52	54
266	1	118	209	210
267	1	214	216	235
268	1	14	15	75
269	5	13	14	15
270	1	148	176	178
271	1	16	18	20
272	4	177	176	178
273	8	67	66	68
274	1	145	146	148
275	4	126	204	205
276	1	103	108	109
277	1	228	229	231
278	1	8	82	77
279	1	96	115	117
280	4	127	128	129
281	1	151	150	171
282	1	157	159	161
283	6	21	22	25
284	1	128	127	202
285	4	37	38	39
286	5	104	106	107
287	1	18	20	73
288	6	140	141	142
289	1	36	37	47
290	4	121	206	207
291	2	1	120	121
292	8	68	66	69
293	1	223	224	225
294	6	61	70	72
295	6	60	61	62
296	1	237	238	239
297	6	77	78	80
298	6	79	78	81
299	4	26	27	28
300	4	151	153	154
301	1	157	156	167
302	1	32	31	51
303	1	94	96	115
304	3	44	43	89
305	4	85	84	86
306	1	127	126	204
307	1	217	218	233
308	1	140	139	193
309	1	94	96	97
310	6	20	21	26
311	4	138	137	139
312	1	218	219	221
313	1	108	109	111
314	1	130	132	133
315	1	21	20	73
316	4	8	82	83
317	6	139	140	190
318	6	181	186	188
319	6	181	182	183
320	8	187	186	188
321	6	200	198	201
322	1	97	98	113
323	1	1	2	3
324	4	95	94	96
325	1	119	118	209
326	1	36	49	51
327	1	216	235	237
328	4	16	18	19
329	6	66	61	70
330	6	171	172	174
331	6	61	62	64
332	4	193	195	196
333	1	43	42	45
334	1	38	40	42
335	1	8	9	11
336	1	159	161	165
337	1	14	15	16
338	1	120	121	122
339	4	96	115	116
340	4	219	221	222
341	4	157	159	160
342	6	21	22	24
343	6	20	21	70
344	1	209	211	237
345	1	211	212	214
346	1	109	108	113
347	1	30	31	32
348	1	97	98	99
349	7	140	145	146
350	1	217	218	219
351	1	121	122	124
352	4	84	86	87
353	6	180	181	182
354	4	102	101	103
355	1	223	228	229
356	1	15	75	73
357	1	98	99	101
358	6	77	78	79
359	6	79	78	80
360	9	225	224	226
361	4	134	195	196
362	1	40	42	43
363	1	134	135	137
364	1	161	165	167
365	1	124	126	127
366	1	212	211	237
367	1	211	237	235
368	4	156	167	168
369	4	99	101	102
370	4	218	219	220
371	1	108	109	110
372	4	155	169	170
373	1	5	7	8
374	1	221	223	228
375	8	23	22	25
376	6	181	190	192
377	4	6	5	7
378	4	125	124	126
379	6	181	186	187
380	4	10	9	11
381	1	98	113	108
382	1	7	8	9
383	1	92	91	117
384	1	32	34	36
385	1	198	197	202
386	4	147	146	148
387	6	61	66	68
388	1	2	86	84
389	6	171	172	173
390	6	61	62	63
391	6	80	78	81
392	1	120	121	206
393	4	46	45	47
394	4	38	40	41
395	4	204	206	207
396	1	133	134	195
397	8	191	190	192
398	3	161	162	164
399	1	3	2	86
400	4	73	75	76
401	4	19	18	20
402	8	63	62	65
403	1	29	56	58
404	1	122	124	126
405	1	224	223	228
406	4	98	99	100
407	6	182	181	190
408	4	179	178	180
409	4	136	135	137
410	4	128	130	131
411	6	21	22	23
412	1	37	47	45
413	6	22	21	70
414	1	134	195	193
415	5	148	149	150
416	4	222	221	223
417	1	1	2	86
418	1	214	216	217
419	8	24	22	25
420	4	121	122	123
421	2	42	43	89
422	8	143	141	144
423	1	137	139	193
424	1	127	202	197
425	4	205	204	206
426	1	156	167	165
427	4	9	11	12
428	6	20	21	22
429	1	135	137	139
430	6	197	198	199
431	6	199	198	200

Dihedrals

1	1	155	156	167	165
2	1	147	146	145	180
3	11	188	186	181	190
4	1	147	146	148	149
5	1	129	128	130	131
6	1	147	146	148	176
7	1	236	235	237	238
8	1	156	155	169	171
9	4	124	126	127	202
10	16	103	108	109	111
11	11	68	66	61	70
12	1	14	15	75	73
13	7	60	61	66	68
14	1	126	127	202	203
15	11	62	61	66	69
16	7	60	61	62	63
17	6	141	140	145	180
18	1	100	99	101	103
19	6	150	171	172	175
20	16	119	118	209	210
21	1	15	16	18	20
22	1	101	99	98	113
23	1	43	42	45	46
24	1	121	122	124	126
25	1	14	13	77	82
26	7	20	21	22	25
27	11	141	140	190	192
28	6	145	140	139	193
29	1	99	101	103	104
30	16	90	89	91	92
31	6	81	78	77	82
32	1	34	36	49	50
33	6	22	21	26	27
34	11	66	61	70	72
35	1	155	169	171	172
36	1	57	56	58	59
37	1	213	212	214	215
38	1	127	202	197	132
39	1	38	40	42	43
40	1	194	193	195	196
41	1	89	91	117	115
42	7	180	181	186	188
43	6	201	198	197	202
44	7	180	181	182	183
45	1	21	26	27	28
46	1	121	206	204	126
47	6	141	140	145	146
48	1	91	92	94	96
49	1	98	99	101	102
50	1	149	148	176	177
51	6	70	21	20	73
52	1	14	15	16	18
53	4	153	155	156	167
54	1	170	169	171	172
55	6	137	139	140	190
56	7	139	140	190	181
57	6	132	197	198	201
58	1	8	7	84	85
59	1	156	167	165	161
60	16	117	118	209	211
61	1	5	7	84	86
62	1	126	127	128	130
63	1	123	122	121	206
64	1	138	137	139	193
65	4	82	8	7	84
66	1	109	108	113	114
67	1	4	3	2	86
68	1	41	40	42	45
69	1	16	15	75	73
70	1	151	150	171	169
71	1	98	113	108	103
72	1	32	31	51	52
73	1	131	130	132	197
74	6	22	21	26	60
75	1	97	98	99	101
76	8	22	21	70	61
76	9	22	21	70	61
76	10	22	21	70	61
77	1	128	127	202	197
78	16	235	237	238	239
79	1	30	31	51	52
80	17	44	43	89	90
80	18	44	43	89	90
81	1	127	126	204	205
82	6	13	77	78	79
83	1	125	124	126	204
84	1	224	223	228	229
85	5	31	30	29	56
86	1	157	156	167	165
87	11	65	62	61	66
88	2	3	2	1	88
89	16	115	117	118	119
90	7	140	190	181	180
91	1	104	103	108	109
92	1	18	16	15	75
93	1	16	18	20	73
94	1	8	9	11	12
95	2	86	2	1	88
96	7	60	61	70	72
97	1	176	178	180	181
98	1	36	37	38	40
99	1	212	214	216	217
100	1	101	103	108	113
101	1	9	11	13	77
102	11	182	181	186	188
103	1	221	219	218	233
104	7	145	140	190	192
105	1	219	221	223	224
106	16	225	224	223	228
107	1	220	219	218	233
108	1	10	9	11	13
109	7	60	61	66	67
110	11	62	61	66	68
111	1	97	96	115	116
112	1	100	99	101	102
113	1	19	18	20	73
114	1	149	150	151	152
115	1	162	161	165	167
116	6	26	60	61	70
117	7	20	21	22	24
118	1	93	92	94	95
119	1	97	98	113	108
120	1	140	145	180	181
121	1	2	86	84	85
122	1	95	94	96	115
123	1	26	27	29	56
124	11	66	61	70	71
125	5	15	14	13	77
126	16	230	229	228	233
127	1	155	156	167	168
128	1	148	146	145	180
129	7	26	21	70	61
130	7	180	181	190	192
131	11	185	182	181	186
132	16	101	103	104	105
133	1	102	101	103	104
134	7	180	181	186	187
135	1	135	134	195	196
136	1	35	34	36	37
137	1	139	193	195	196
138	6	49	51	52	55
139	1	98	113	108	109
140	5	150	149	148	176
141	11	63	62	61	70
142	3	88	1	120	121
143	11	184	182	181	186
144	4	153	155	156	157
145	7	142	141	140	145
146	1	132	197	202	203
147	19	228	229	231	232
148	1	97	98	99	100
149	1	217	218	233	228
150	8	140	190	181	186
150	9	140	190	181	186
150	10	140	190	181	186
151	6	178	180	181	186
152	5	13	14	15	16
153	1	146	148	176	178
154	1	103	108	113	114
155	1	20	73	75	76
156	11	69	66	61	70
157	6	169	171	172	175
158	1	4	3	5	6
159	1	96	115	117	118
160	1	5	7	84	85
161	1	126	127	128	129
162	1	217	216	235	237
163	1	7	8	9	10
164	1	29	56	58	60
165	11	185	182	181	190
166	1	130	128	127	202
167	6	80	78	77	82
168	1	135	137	139	140
169	1	128	127	202	203
170	16	210	209	211	212
171	1	218	233	228	223
172	1	2	86	84	7
173	11	22	21	70	71
174	5	29	30	31	32
175	16	91	117	118	209
176	1	13	77	82	83
177	11	144	141	140	190
178	1	150	151	153	155
179	7	24	22	21	26
180	2	159	161	162	164
181	1	14	13	77	78
182	1	159	161	165	167
183	1	100	99	98	113
184	1	97	98	113	114
185	1	218	219	221	223
186	1	37	38	40	41
187	19	237	238	240	241
188	1	150	171	169	155
189	1	160	159	161	162
190	1	7	8	82	77
191	7	60	61	70	71
192	1	120	121	122	123
193	1	1	2	86	84
194	5	216	217	218	233
195	1	36	37	38	39
196	1	211	212	214	216
197	11	182	181	190	192
198	1	19	18	20	21
199	11	182	181	186	187
200	1	135	134	195	193
201	1	28	27	29	30
202	1	16	15	75	76
203	1	10	9	11	12
204	2	44	43	42	45
205	11	62	61	70	72
206	1	74	73	75	76
207	1	151	150	171	172
208	6	190	140	139	193
209	1	99	98	113	108
210	7	139	140	141	142
211	6	22	21	20	73
212	5	148	149	150	151
213	1	162	161	165	166
214	1	217	218	233	234
215	1	33	32	34	35
216	1	136	135	137	139
217	1	131	130	132	133
218	7	143	141	140	145
219	1	157	156	167	168
220	16	221	223	224	226
221	1	122	124	126	204
222	8	141	140	190	181
222	9	141	140	190	181
222	10	141	140	190	181
223	2	45	42	43	89
224	1	213	212	211	237
225	1	124	126	204	205
226	1	27	29	56	58
227	7	26	21	70	71
228	7	23	22	21	26
229	1	3	5	7	84
230	11	189	186	181	190
231	16	106	104	103	108
232	1	31	32	34	35
233	1	46	45	47	48
234	1	137	139	193	195
235	7	21	70	61	60
236	11	24	22	21	70
237	7	180	181	190	191
238	16	115	117	118	209
239	1	133	132	197	198
240	1	9	8	82	83
241	1	133	134	135	137
242	1	128	130	132	133
243	6	49	51	52	54
244	16	211	237	238	240
245	1	214	216	235	236
246	1	30	29	56	58
247	1	26	60	58	59
248	1	32	34	36	37
249	16	223	228	229	231
250	1	11	13	77	82
251	5	148	149	150	171
252	1	50	49	51	52
253	16	118	209	211	212
254	1	8	82	77	78
255	11	187	186	181	190
256	6	31	51	52	53
257	16	110	109	108	113
258	1	39	38	40	41
259	20	239	238	240	241
259	21	239	238	240	241
260	1	7	8	82	83
261	1	85	84	86	87
262	5	94	96	97	98
263	5	130	132	133	134
264	1	212	211	237	238
265	1	219	218	233	228
266	1	29	56	58	59
267	1	127	128	130	132
268	1	38	40	42	45
269	1	145	146	148	149
270	5	216	217	218	219
271	1	101	103	108	109
272	1	133	132	197	202
273	1	145	146	148	176
274	7	180	181	182	185
275	6	20	21	26	27
276	1	153	155	169	171
277	1	91	117	115	96
278	1	99	98	113	114
279	1	156	157	159	160
280	1	89	91	92	94
281	6	139	140	145	180
282	1	220	219	221	223
283	16	105	104	103	108
284	6	18	20	21	26
285	11	23	22	21	70
286	1	159	157	156	167
287	16	231	229	228	233
288	1	134	135	137	139
289	2	159	161	162	163
290	6	26	60	61	66
291	1	94	96	115	117
292	1	218	219	221	222
293	1	205	204	206	207
294	16	111	109	108	113
295	1	130	132	197	202
296	1	28	27	26	60
297	6	137	139	140	145
298	2	164	162	161	165
299	1	152	151	153	155
300	1	17	16	15	75
301	1	128	130	132	197
302	1	211	212	214	215
303	11	182	181	190	191
304	1	92	91	117	115
305	1	156	155	169	170
306	16	226	224	223	228
307	1	93	92	91	117
308	16	103	108	109	110
309	7	145	140	190	181