Title

12500 atoms
12625 bonds
24000 angles
47750 dihedrals
2250 impropers

11 atom types
14 bond types
9 angle types
35 dihedral types
3 improper types
-11.62713958 115.7670286 xlo xhi
-11.35928337 115.8212082 ylo yhi
-11.53582988 115.7818012 zlo zhi
0.0 0.0 0.0 xy xz yz

Masses

1	12.01078
2	15.99943
3	14.00672
4	12.01078
5	1.007947
6	1.007947
7	1.007947
8	15.99943
9	12.01078
10	15.99943
11	1.007947


Pair Coeffs

1	0.086879315	3.4806469
2	0.2102061	3.0398122
3	0.16769152	3.206876
4	0.10884061	3.3795318
5	0.014090815	1.1034277
6	0.016409246	2.5832257
7	0.015779483	2.6445434
8	0.16846514	3.0251065
9	0.21	3.3996695
10	0.20947353	2.99716
11	1.2326e-05	0.53453923

Bond Coeffs

1 harmonic	582.698766451	1.225198386222
2 harmonic	492.76746816345	1.381897776683
3 harmonic	279.1350963404	1.454628925034
4 harmonic	352.0565580496	1.450098586273
5 harmonic	505.144496193	1.019481865027
6 harmonic	264.62148576755	1.52190126495
7 harmonic	370.04670688625	1.093899492634
8 harmonic	301.15400723785	1.345741232799
9 harmonic	366.7408841747	1.425895053732
10 harmonic	300.03137914615	1.451203938761
11 harmonic	366.34047229585	1.464762957261
12 harmonic	602.81384337	1.196112346392
13 harmonic	329.96998057905	1.427343958716
14 harmonic	543.5267831885	0.9716763312559


Angle Coeffs

1 harmonic	55.42182150775	117.3465570514
2 harmonic	63.44422595415	115.5071327674
3 harmonic	57.8982893754	126.8062420451
4 harmonic	53.20531626545	116.5475862634
5 harmonic	65.09061609600001	110.3538806181
6 harmonic	201.41175231035	127.4691416191
7 harmonic	48.776492647595	115.6030999533
8 harmonic	55.07882548015	112.8714009681
9 harmonic	33.56981613361	180


Dihedral Coeffs

1 fourier 1	-0.1488678166443	4	180
2 fourier 1	-0.1230328948768	3	180
3 fourier 1	0.2939295466901	2	0
4 fourier 1	-0.3024127022865	1	0
5 fourier 1	0.182238503271	2	0
6 fourier 1	0.02972342374561	3	0
7 fourier 1	1.809047390003	2	180
8 fourier 1	-0.04816277792592	1	0
9 fourier 1	3.101948770557	2	180
10 fourier 1	-0.4252153282372	1	0
11 fourier 1	2.348375642009	2	180
12 fourier 1	1.256156174911	1	0
13 fourier 1	0.9974165607242	2	180
14 fourier 1	0.1155372516788	3	0
15 fourier 1	0.09223874044423	3	0
16 fourier 1	0.3159935921949	2	180
17 fourier 1	0.3247796806857	1	180
18 fourier 1	0.1040663847541	3	0
19 fourier 1	2.779853741805	2	180
20 fourier 1	0.1918272375143	3	0
21 fourier 1	0.9202179876409	1	180
22 fourier 1	0.0473758381877	3	0
23 fourier 1	0.4860993122944	2	180
24 fourier 1	0.8916986138746	1	0
25 fourier 1	1.163809172478	2	180
26 fourier 1	0.1679186987369	1	180
27 fourier 1	0.1911926717192	3	0
28 fourier 1	0.1115525666802	3	0
29 fourier 1	0.3432490222662	1	0
30 fourier 1	0.457973137376	1	0
31 fourier 1	-1.382973039546	1	0
32 fourier 1	0	1	0
33 fourier 1	0.3445382149273	3	0
34 fourier 1	0.1364556373303	1	0
35 fourier 1	0.3026390167484	3	0


Improper Coeffs

1 0.3333333333333333	-1	2
2 0.3666666666666667	-1	2
3 3.5	-1	2


Atoms

1	6	1	0.54300386	2.3569187	1.2183891	4.3026347
2	6	2	-0.6862505	3.5632336	1.4348355	4.5961758
3	6	3	-0.52222639	1.5469822	2.2469045	3.7281697
4	6	4	0.030967398	2.0790112	3.5823203	3.4602839
5	6	4	-0.1457331	1.0055995	4.4842978	2.8429009
6	6	4	-0.14233134	1.5645752	5.8834447	2.5429493
7	6	4	-0.14233134	0.48072762	6.8797316	2.094071
8	6	4	-0.14444807	-0.24897173	6.5038203	0.79148947
9	6	4	0.025149161	0.68748941	6.4307163	-0.42203035
10	6	3	-0.46654763	-0.074976456	6.2448842	-1.6557841
11	6	1	0.78219885	0.56913446	6.155126	-2.9295947
12	6	2	-0.6123839	1.8228954	6.2370799	-3.0249684
13	6	5	0.32575137	-1.1174546	6.1681729	-1.6286608
14	6	6	0.056923813	1.387224	5.5768197	-0.30484189
15	6	6	0.056923813	1.2749241	7.3721908	-0.49504585
16	6	7	0.088212951	-0.78715266	5.5400754	0.91352628
17	6	7	0.088212951	-1.0172551	7.2832567	0.59943617
18	6	7	0.087006359	0.95197966	7.8792126	1.964861
19	6	7	0.087006359	-0.27189523	6.9799715	2.9052065
20	6	7	0.087006359	2.3679413	5.8161893	1.7784523
21	6	7	0.087006359	2.030296	6.2887011	3.4675213
22	6	7	0.088212951	0.64821097	4.0151692	1.9020046
23	6	7	0.088212951	0.15002159	4.5689357	3.5493567
24	6	6	0.053355327	2.4371386	4.0293534	4.4130227
25	6	6	0.053355327	2.938798	3.4979929	2.7590424
26	6	5	0.3191686	0.55200435	2.0187334	3.5021653
27	7	8	-0.48524081	-0.00023433191	6.0213213	-3.7859022
28	7	4	0.091343424	0.30155013	4.7406606	-4.2715878
29	7	4	-0.072131501	-0.35782101	3.6524666	-3.3995601
30	7	7	0.088398239	0.056281848	3.7563956	-2.3720395
31	7	4	-0.16353902	0.019958504	2.231664	-3.9000775
32	7	7	0.098321459	1.0042057	2.237404	-4.4183232
33	7	7	0.098321459	0.12645501	1.5528423	-3.0248875
34	7	4	-0.16310158	-1.0461127	1.6499592	-4.8375836
35	7	7	0.098938806	-0.69483568	0.66872459	-5.2257063
36	7	7	0.098938806	-1.1433093	2.3216145	-5.7187028
37	7	4	-0.071320982	-2.4287634	1.5188118	-4.1404564
38	7	4	0.018722261	-2.6618275	0.097453345	-3.5999778
39	7	8	-0.14195062	-2.7283258	-0.81632167	-4.6611673
40	7	6	0.099477953	-1.83517	-0.18453945	-2.9097093
41	7	6	0.099477953	-3.6219573	0.068425908	-3.0363333
42	7	7	0.091462342	-3.2100181	1.7133805	-4.9108784
43	7	4	-0.16310155	-2.6236101	2.5585553	-3.0066124
44	7	7	0.098938814	-3.7087065	2.7639377	-2.875586
45	7	7	0.098938814	-2.2398974	2.1623582	-2.0402329
46	7	4	-0.16353905	-1.8926911	3.8671226	-3.3195198
47	7	7	0.098321459	-2.2852561	4.2674028	-4.2811068
48	7	7	0.098321459	-2.1205511	4.6137963	-2.5280121
49	7	6	0.099290705	-0.067950449	4.6600877	-5.3167473
50	7	6	0.099290705	1.4057723	4.5976246	-4.2949985
51	4	1	0.54300392	1.9312372	0.24170301	4.4882514
52	4	2	-0.68625056	0.73339582	0.15013956	4.8666191
53	4	3	-0.52222645	2.7321637	-0.92884733	4.2919616
54	4	4	0.030967402	2.2262214	-2.2812251	4.5202397
55	4	4	-0.1457331	2.149068	-2.5787878	6.0211224
56	4	4	-0.14214736	1.6387162	-4.0060702	6.2731458
57	4	4	-0.13794369	1.6697315	-4.3918874	7.7604387
58	4	4	-0.12213404	0.594979	-3.6637484	8.5836244
59	4	4	0.18434668	0.57333333	-4.1399342	10.044586
60	4	3	-0.64312028	0.18634516	-5.5439388	10.150964
61	4	9	0.59332008	-0.98659867	-5.9435039	9.8605688
62	4	2	-0.46873485	-2.1272535	-6.33186	9.5762376
63	4	6	0.031907445	-0.13318724	-3.5120797	10.631177
64	4	6	0.031907445	1.5836058	-4.0118132	10.4882
65	4	7	0.08184856	0.80424779	-2.5730599	8.5868039
66	4	7	0.08184856	-0.40625946	-3.8183071	8.1264295
67	4	7	0.085725313	2.6771684	-4.1834306	8.1829555
68	4	7	0.085725313	1.4976558	-5.488392	7.8290356
69	4	7	0.087006359	2.2861046	-4.72059	5.7206508
70	4	7	0.087006359	0.60477829	-4.1134768	5.8775092
71	4	7	0.088212951	1.4658211	-1.8476407	6.5003119
72	4	7	0.088212951	3.1622978	-2.4610657	6.4650784
73	4	6	0.053355327	1.2247673	-2.3922721	4.0487378
74	4	6	0.053355327	2.914383	-3.0086638	4.0382049
75	4	5	0.31916863	3.6982434	-0.80985792	3.9124297
76	5	8	-0.1419506	-2.8619734	-1.7089266	-4.2481445
77	5	4	0.01872224	-3.1661213	-2.5931379	-5.2939827
78	5	4	-0.071320975	-1.9076864	-2.9214441	-6.12124
79	5	7	0.091462357	-1.5360836	-1.96496	-6.5531235
80	5	4	-0.16231569	-2.2513089	-3.8547677	-7.3133305
81	5	7	0.098938814	-3.3071249	-3.7202257	-7.6366743
82	5	7	0.098938814	-1.6169167	-3.5818753	-8.1864566
83	5	4	-0.15525789	-2.0043307	-5.3307109	-6.9785285
84	5	7	0.098938806	-2.3345383	-5.9606409	-7.8332151
85	5	7	0.098938806	-2.6480328	-5.6069493	-6.1149487
86	5	4	-0.11273644	-0.51800282	-5.607701	-6.6156251
87	5	4	0.080818532	0.27326527	-6.1352568	-7.824505
88	5	10	-0.67093181	-0.21947952	-7.3875484	-8.214449
89	5	11	0.38211269	0.31698519	-7.6625306	-9.0017986
90	5	6	0.088417186	0.19342954	-5.4169837	-8.6721671
91	5	6	0.088417186	1.346818	-6.2384842	-7.5474516
92	5	7	0.095040022	-0.50805157	-6.4046313	-5.8390067
93	5	4	-0.15525789	0.18863321	-4.3647413	-6.0167063
94	5	7	0.098938814	1.0181496	-4.6937655	-5.3543283
95	5	7	0.098938814	0.63248485	-3.7383006	-6.8224834
96	5	4	-0.16231568	-0.78907633	-3.501048	-5.2151005
97	5	7	0.098938814	-1.2243362	-4.1248246	-4.4026089
98	5	7	0.098938814	-0.23341413	-2.6667749	-4.7344488
99	5	6	0.099477953	-3.585317	-3.5261354	-4.859219
100	5	6	0.099477953	-3.9507895	-2.146234	-5.9470323
101	6	1	0.54300386	3.8559922	2.5095981	21.557259
102	6	2	-0.6862505	4.5903599	2.2881217	20.557327
103	6	3	-0.52222639	2.5686221	3.1115075	21.401586
104	6	4	0.030967398	2.0544157	3.493411	20.087092
105	6	4	-0.1457331	0.65710117	4.1102562	20.20521
106	6	4	-0.14233134	0.10482364	4.4969315	18.824809
107	6	4	-0.14233134	-1.2139323	5.2863877	18.905099
108	6	4	-0.14444807	-2.3863967	4.5297123	19.555683
109	6	4	0.025149161	-2.781206	3.2602193	18.789231
110	6	3	-0.46654763	-4.0023913	2.6776669	19.343646
111	6	1	0.78219885	-4.5827952	1.4904571	18.79666
112	6	2	-0.6123839	-4.0543329	0.90982847	17.811101
113	6	5	0.32575137	-4.476797	3.1208133	20.163366
114	6	6	0.056923813	-1.9657428	2.510259	18.860508
115	6	6	0.056923813	-2.9501062	3.5101018	17.718803
116	6	7	0.088212951	-2.146384	4.2766548	20.61005
117	6	7	0.088212951	-3.2595819	5.2165654	19.576784
118	6	7	0.087006359	-1.5088292	5.5863442	17.875149
119	6	7	0.087006359	-1.0367113	6.2229455	19.47596
120	6	7	0.087006359	-0.026496539	3.5880306	18.199485
121	6	7	0.087006359	0.84996115	5.1404992	18.308521
122	6	7	0.088212951	-0.017306317	3.368694	20.683074
123	6	7	0.088212951	0.71125191	5.0147776	20.851094
124	6	6	0.053355327	2.7476685	4.2292424	19.624752
125	6	6	0.053355327	2.0061339	2.5906216	19.438459
126	6	5	0.3191686	1.9966145	3.2751151	22.26133
127	7	8	-0.48524081	-5.4486158	1.1013911	19.214188
128	7	4	0.091343424	-5.0956197	-0.1229019	19.800325
129	7	4	-0.072131501	-4.3055058	0.10027523	21.106189
130	7	7	0.088398239	-3.3781074	0.65484921	20.840744
131	7	4	-0.16353902	-3.8636548	-1.2520729	21.728955
132	7	7	0.098321459	-3.7524168	-2.0361727	20.947823
133	7	7	0.098321459	-2.8624551	-1.1278421	22.198278
134	7	4	-0.16310158	-4.8452803	-1.7385105	22.803011
135	7	7	0.098938806	-4.525874	-2.7413888	23.162275
136	7	7	0.098938806	-5.8430337	-1.8751557	22.331041
137	7	4	-0.071320982	-4.9705899	-0.73114226	23.979623
138	7	4	0.018722261	-4.0648378	-1.1193464	25.160981
139	7	8	-0.14195062	-4.4864982	-2.3381291	25.7108
140	7	6	0.099477953	-3.0099011	-1.2052953	24.815909
141	7	6	0.099477953	-4.119943	-0.33006581	25.944809
142	7	7	0.091462342	-6.023769	-0.77105846	24.341543
143	7	4	-0.16310155	-4.6825365	0.72921512	23.544863
144	7	7	0.098938814	-5.2248984	1.4292207	24.217634
145	7	7	0.098938814	-3.5969325	0.95766979	23.63071
146	7	4	-0.16353905	-5.1176601	0.97538575	22.097601
147	7	7	0.098321459	-6.2059775	0.75654546	22.016021
148	7	7	0.098321459	-4.9722394	2.048817	21.847552
149	7	6	0.099290705	-6.0237495	-0.69531493	20.015498
150	7	6	0.099290705	-4.4909465	-0.72305844	19.083041
151	4	1	0.54300392	4.205886	2.2399955	22.544408
152	4	2	-0.68625056	3.9201352	2.9767434	23.525183
153	4	3	-0.52222645	4.9784677	1.0474211	22.720717
154	4	4	0.030967402	5.4839021	0.61738041	24.023259
155	4	4	-0.1457331	6.6897918	1.4666379	24.43767
156	4	4	-0.14214736	7.2434288	1.0094481	25.796189
157	4	4	-0.13794369	8.5326737	1.747996	26.188938
158	4	4	-0.12213404	8.2806834	3.2140229	26.576469
159	4	4	0.18434668	9.5632666	3.9048544	27.065715
160	4	3	-0.64312028	10.061041	3.3095325	28.302694
161	4	9	0.59332008	9.4261058	3.4083759	29.401269
162	4	2	-0.46873485	8.8071237	3.5033477	30.469257
163	4	6	0.031907445	9.3660322	4.9879627	27.225201
164	4	6	0.031907445	10.34845	3.8183413	26.284778
165	4	7	0.08184856	7.9114422	3.7745342	25.691656
166	4	7	0.08184856	7.5015686	3.2716443	27.367072
167	4	7	0.085725313	9.2655717	1.6969089	25.35398
168	4	7	0.085725313	8.9766114	1.2146595	27.057908
169	4	7	0.087006359	7.4739791	-0.076274384	25.741837
170	4	7	0.087006359	6.4728174	1.1507858	26.585666
171	4	7	0.088212951	6.3793512	2.5300438	24.499473
172	4	7	0.088212951	7.4812805	1.3727885	23.661572
173	4	6	0.053355327	4.6749984	0.69168802	24.783331
174	4	6	0.053355327	5.7930956	-0.44790804	23.955061
175	4	5	0.31916863	5.1339283	0.43106505	21.891591
176	5	8	-0.1419506	-3.8565843	-2.5389903	26.451108
177	5	4	0.01872224	-4.4001883	-3.6225185	27.157206
178	5	4	-0.071320975	-4.2332548	-4.9348749	26.366224
179	5	7	0.091462357	-4.7845963	-4.8157836	25.406373
180	5	4	-0.16231569	-4.8839691	-6.1266831	27.118828
181	5	7	0.098938814	-5.7179258	-5.7827981	27.76972
182	5	7	0.098938814	-5.3305254	-6.8274114	26.377991
183	5	4	-0.15525789	-3.8638654	-6.9005306	27.962657
184	5	7	0.098938806	-4.39006	-7.6936367	28.537497
185	5	7	0.098938806	-3.4276502	-6.203911	28.711568
186	5	4	-0.11273644	-2.7200426	-7.4981022	27.09538
187	5	4	0.080818532	-2.9859553	-8.9709847	26.740811
188	5	10	-0.67093181	-2.976803	-9.7559008	27.901376
189	5	11	0.38211269	-3.1693478	-10.683655	27.608926
190	5	6	0.088417186	-3.9704798	-9.065441	26.228356
191	5	6	0.088417186	-2.1911046	-9.3347499	26.051016
192	5	7	0.095040022	-1.789241	-7.4661351	27.704411
193	5	4	-0.15525789	-2.4615456	-6.6772432	25.806055
194	5	7	0.098938814	-1.4052786	-6.8110854	25.487488
195	5	7	0.098938814	-3.1094375	-7.0356547	24.9751
196	5	4	-0.16231568	-2.7397593	-5.1881894	26.029147
197	5	7	0.098938814	-2.0836946	-4.8276256	26.852715
198	5	7	0.098938814	-2.4666155	-4.6219868	25.112302
199	5	6	0.099477953	-3.8811044	-3.7041348	28.136552
200	5	6	0.099477953	-5.4784269	-3.4322026	27.364769
201	6	1	0.54300386	2.5340016	4.2529481	48.324313
202	6	2	-0.6862505	2.9533404	4.7740548	49.392402
203	6	3	-0.52222639	3.2834655	3.2293113	47.665282
204	6	4	0.030967398	4.5578204	2.7486213	48.197362
205	6	4	-0.1457331	5.1449832	1.6526918	47.302311
206	6	4	-0.14233134	6.4754155	1.1315987	47.866624
207	6	4	-0.14233134	7.1949233	0.16304704	46.911103
208	6	4	-0.14444807	6.419172	-1.1266839	46.586614
209	6	4	0.025149161	6.1456453	-1.9908047	47.824924
210	6	3	-0.46654763	5.5662626	-3.2776615	47.442365
211	6	1	0.78219885	5.2282553	-4.2679097	48.417398
212	6	2	-0.6123839	5.4246574	-4.0577834	49.644183
213	6	5	0.32575137	5.3814266	-3.4983469	46.437122
214	6	6	0.056923813	5.4347951	-1.4672172	48.498013
215	6	6	0.056923813	7.0976618	-2.1679925	48.371782
216	6	7	0.088212951	5.4638471	-0.8853198	46.074331
217	6	7	0.088212951	7.031666	-1.7166162	45.871424
218	6	7	0.087006359	8.1751551	-0.11197255	47.359707
219	6	7	0.087006359	7.4127395	0.69400638	45.959752
220	6	7	0.087006359	6.306913	0.64773034	48.852451
221	6	7	0.087006359	7.1530663	1.9954444	48.04133
222	6	7	0.088212951	4.4141056	0.81910885	47.23866
223	6	7	0.088212951	5.3094653	2.0646205	46.281764
224	6	6	0.053355327	5.2705829	3.5994658	48.259315
225	6	6	0.053355327	4.3954426	2.3425151	49.220492
226	6	5	0.3191686	2.894026	2.8281326	46.781815
227	7	8	-0.48524081	4.8169419	-5.1700292	48.113508
228	7	4	0.091343424	3.4974851	-5.1889834	48.588619
229	7	4	-0.072131501	2.6001446	-4.2495303	47.757008
230	7	7	0.088398239	3.0088339	-3.2203219	47.865563
231	7	4	-0.16353902	1.1509371	-4.2240583	48.314739
232	7	7	0.098321459	1.1358059	-4.453642	49.403048
233	7	7	0.098321459	0.73427368	-3.1985781	48.201249
234	7	4	-0.16310158	0.23254207	-5.2049167	47.574284
235	7	7	0.098938806	-0.76889686	-5.2035075	48.057993
236	7	7	0.098938806	0.6418654	-6.2315284	47.69863
237	7	4	-0.071320982	0.12772477	-4.8770296	46.058892
238	7	4	0.018722261	-1.1257942	-4.0435171	45.741649
239	7	8	-0.14195062	-2.2813825	-4.7912374	46.00822
240	7	6	0.099477953	-1.1269579	-3.1144849	46.355042
241	7	6	0.099477953	-1.1187188	-3.7592699	44.66483
242	7	7	0.091462342	0.02964242	-5.8445409	45.514771
243	7	4	-0.16310155	1.3932003	-4.1637281	45.5163
244	7	7	0.098938814	1.5009207	-4.3769813	44.430158
245	7	7	0.098938814	1.3025907	-3.0608248	45.632452
246	7	4	-0.16353905	2.6528231	-4.6277705	46.252857
247	7	7	0.098321459	2.7475727	-5.729629	46.126717
248	7	7	0.098321459	3.545843	-4.1591147	45.785093
249	7	6	0.099290705	3.1117795	-6.2295584	48.526846
250	7	6	0.099290705	3.4792399	-4.8883589	49.660816
251	4	1	0.54300392	1.5952033	4.5855967	47.902915
252	4	2	-0.68625056	1.4680604	4.6545997	46.651738
253	4	3	-0.52222645	0.5118098	4.9321566	48.772602
254	4	4	0.030967402	-0.78597709	5.3875213	48.277217
255	4	4	-0.1457331	-0.6977946	6.8402906	47.798855
256	4	4	-0.14214736	-2.0619573	7.3372085	47.295623
257	4	4	-0.13794369	-2.0497371	8.8294653	46.928367
258	4	4	-0.12213404	-1.2623704	9.1156816	45.63955
259	4	4	0.18434668	-1.3496092	10.595015	45.232622
260	4	3	-0.64312028	-2.7145785	10.982181	44.887271
261	4	9	0.59332008	-3.3051828	10.523106	43.857603
262	4	2	-0.46873485	-3.8798195	10.074823	42.856807
263	4	6	0.031907445	-0.67715685	10.784065	44.366868
264	4	6	0.031907445	-0.9990323	11.229326	46.074408
265	4	7	0.08184856	-0.19047432	8.8710155	45.796337
266	4	7	0.08184856	-1.6407746	8.4784055	44.811249
267	4	7	0.085725313	-1.6277144	9.4213201	47.770096
268	4	7	0.085725313	-3.104705	9.151754	46.787616
269	4	7	0.087006359	-2.8156388	7.1885322	48.098593
270	4	7	0.087006359	-2.3830905	6.7355607	46.416996
271	4	7	0.088212951	0.049101959	6.9072839	46.981125
272	4	7	0.088212951	-0.35678156	7.4785469	48.643799
273	4	6	0.053355327	-1.1262695	4.7249201	47.450951
274	4	6	0.053355327	-1.5294813	5.3181268	49.100307
275	4	5	0.31916863	0.63874012	4.7951431	49.800527
276	5	8	-0.1419506	-3.0483782	-4.196355	45.800794
277	5	4	0.01872224	-4.1985823	-4.9988849	45.833797
278	5	4	-0.071320975	-4.582224	-5.3522482	47.284228
279	5	7	0.091462357	-3.73174	-5.9212993	47.722785
280	5	4	-0.16231569	-5.8213506	-6.2868071	47.321828
281	5	7	0.098938814	-5.8941886	-6.8939067	46.392568
282	5	7	0.098938814	-5.7100483	-7.0085184	48.162077
283	5	4	-0.15525789	-7.1253503	-5.5058034	47.524602
284	5	7	0.098938806	-7.9855852	-6.2081563	47.469517
285	5	7	0.098938806	-7.2433542	-4.7943958	46.678195
286	5	4	-0.11273644	-7.130452	-4.7124572	48.861826
287	5	4	0.080818532	-7.8556493	-5.483963	49.977478
288	5	10	-0.67093181	-9.2134529	-5.625553	49.662185
289	5	11	0.38211269	-9.6174936	-6.1415823	50.406358
290	5	6	0.088417186	-7.3910623	-6.4880093	50.107367
291	5	6	0.088417186	-7.7625334	-4.9238501	50.935357
292	5	7	0.095040022	-7.6966026	-3.7703991	48.687662
293	5	4	-0.15525789	-5.7041005	-4.3199236	49.324887
294	5	7	0.098938814	-5.7572153	-3.4030074	49.950621
295	5	7	0.098938814	-5.2577001	-5.1256836	49.949537
296	5	4	-0.16231568	-4.7810716	-4.0662789	48.129841
297	5	7	0.098938814	-5.2222286	-3.2528342	47.511473
298	5	7	0.098938814	-3.7944343	-3.7091054	48.496954
299	5	6	0.099477953	-5.031169	-4.4458412	45.347823
300	5	6	0.099477953	-4.02481	-5.9282275	45.243859
301	6	1	0.54300386	2.1610352	-2.0852486	75.0204
302	6	2	-0.6862505	2.4775881	-1.6390238	76.155692
303	6	3	-0.52222639	0.82279912	-2.5069166	74.746225
304	6	4	0.030967398	-0.22594734	-2.4399832	75.762987
305	6	4	-0.1457331	-1.5597907	-2.9477778	75.20626
306	6	4	-0.14233134	-2.6693373	-2.8627995	76.265374
307	6	4	-0.14233134	-3.9813102	-3.5301389	75.815718
308	6	4	-0.14444807	-4.6342971	-2.9062709	74.568768
309	6	4	0.025149161	-5.0360771	-1.4391614	74.771491
310	6	3	-0.46654763	-5.8047036	-0.94863234	73.628411
311	6	1	0.78219885	-6.3045979	0.39048383	73.579396
312	6	2	-0.6123839	-6.0967366	1.1911544	74.529895
313	6	5	0.32575137	-6.0011005	-1.5738593	72.81361
314	6	6	0.056923813	-4.1260635	-0.81305048	74.882672
315	6	6	0.056923813	-5.6531456	-1.3469136	75.692089
316	6	7	0.088212951	-3.9588306	-2.9965655	73.691882
317	6	7	0.088212951	-5.5479115	-3.4948898	74.337464
318	6	7	0.087006359	-4.7059738	-3.4872121	76.658782
319	6	7	0.087006359	-3.7854451	-4.6047628	75.612617
320	6	7	0.087006359	-2.8505067	-1.8021609	76.54214
321	6	7	0.087006359	-2.3264504	-3.3837487	77.185701
322	6	7	0.088212951	-1.8345475	-2.327983	74.326796
323	6	7	0.088212951	-1.4392294	-4.0040132	74.877492
324	6	6	0.053355327	0.072932743	-3.0604513	76.635624
325	6	6	0.053355327	-0.34263625	-1.3850641	76.097073
326	6	5	0.3191686	0.60939915	-2.8699123	73.789243
327	7	8	-0.48524081	-6.844803	0.70823549	72.753224
328	7	4	0.091343424	-6.0572918	1.67152	72.105949
329	7	4	-0.072131501	-4.883273	1.0086352	71.356528
330	7	7	0.088398239	-4.2613399	0.48337376	72.115066
331	7	4	-0.16353902	-3.9762305	2.0757203	70.685321
332	7	7	0.098321459	-4.0242689	3.0437733	71.231141
333	7	7	0.098321459	-2.9174467	1.7369372	70.733288
334	7	4	-0.16310158	-4.3464954	2.3016338	69.213699
335	7	7	0.098938806	-3.721109	3.1239482	68.801938
336	7	7	0.098938806	-5.4007489	2.6527337	69.16661
337	7	4	-0.071320982	-4.2017427	1.005359	68.368934
338	7	4	0.018722261	-2.8510273	0.95174799	67.634502
339	7	8	-0.14195062	-2.7759445	1.9838562	66.688646
340	7	6	0.099477953	-2.0184961	1.0492649	68.367125
341	7	6	0.099477953	-2.7524442	-0.026622484	67.111569
342	7	7	0.091462342	-5.0012487	1.022524	67.592879
343	7	4	-0.16310155	-4.4001995	-0.27976443	69.213745
344	7	7	0.098938814	-4.7656345	-1.1005046	68.558286
345	7	7	0.098938814	-3.4349576	-0.61134471	69.656983
346	7	4	-0.16353905	-5.4024628	-0.050870302	70.34846
347	7	7	0.098321459	-6.3703926	0.27051986	69.902589
348	7	7	0.098321459	-5.5810304	-1.0106162	70.88037
349	7	6	0.099290705	-6.6958726	2.2286754	71.386802
350	7	6	0.099290705	-5.6728105	2.4052777	72.85032
351	4	1	0.54300392	2.9125756	-2.1489173	74.245346
352	4	2	-0.68625056	2.8904246	-3.11662	73.439474
353	4	3	-0.52222645	3.9123416	-1.1290353	74.14283
354	4	4	0.030967402	4.9580758	-1.1459006	73.121473
355	4	4	-0.1457331	6.0363319	-2.1753072	73.474787
356	4	4	-0.14214736	7.1525565	-2.186812	72.418842
357	4	4	-0.13794369	8.3193297	-3.1112547	72.800815
358	4	4	-0.12213404	7.9529466	-4.6005876	72.69803
359	4	4	0.18434668	9.1606308	-5.50758	72.981744
360	4	3	-0.64312028	10.206715	-5.3471248	71.975628
361	4	9	0.59332008	10.042218	-5.7138986	70.76807
362	4	2	-0.46873485	9.8809714	-6.0692543	69.593132
363	4	6	0.031907445	8.8307469	-6.569529	73.011774
364	4	6	0.031907445	9.5812473	-5.258682	73.979236
365	4	7	0.08184856	7.1661721	-4.8424752	73.443604
366	4	7	0.08184856	7.547261	-4.8253377	71.68793
367	4	7	0.085725313	8.6649033	-2.8758398	73.831379
368	4	7	0.085725313	9.1618082	-2.8966598	72.107405
369	4	7	0.087006359	7.553764	-1.1561634	72.310689
370	4	7	0.087006359	6.7375245	-2.4916093	71.432972
371	4	7	0.088212951	5.5705262	-3.1803832	73.537015
372	4	7	0.088212951	6.4659543	-1.9213716	74.469036
373	4	6	0.053355327	4.5104227	-1.3750763	72.129182
374	4	6	0.053355327	5.4206483	-0.13704111	73.063853
375	4	5	0.31916863	3.8522851	-0.3100828	74.788758
376	5	8	-0.1419506	-1.8818088	1.9047973	66.265014
377	5	4	0.01872224	-1.8825639	2.7719579	65.162224
378	5	4	-0.071320975	-1.779786	4.2411856	65.616762
379	5	7	0.091462357	-2.6722651	4.4565225	66.246512
380	5	4	-0.16231569	-1.8374676	5.2064279	64.402172
381	5	7	0.098938814	-2.4033946	4.7549652	63.557596
382	5	7	0.098938814	-2.3884037	6.1288246	64.693594
383	5	4	-0.15525789	-0.43858335	5.610272	63.920994
384	5	7	0.098938806	-0.53208993	6.2383564	63.008249
385	5	7	0.098938806	0.10699254	4.6902462	63.617137
386	5	4	-0.11273644	0.37241597	6.3418069	65.027669
387	5	4	0.080818532	0.28680974	7.8702705	64.8784
388	5	10	-0.67093181	0.90094461	8.2737195	63.685439
389	5	11	0.38211269	0.79764302	9.2589529	63.641021
390	5	6	0.088417186	-0.77960301	8.1920942	64.882194
391	5	6	0.088417186	0.80636715	8.3553486	65.73554
392	5	7	0.095040022	1.4403352	6.0553196	64.901945
393	5	4	-0.15525789	-0.057922289	5.9203077	66.456002
394	5	7	0.098938814	0.79557214	6.0554715	67.154842
395	5	7	0.098938814	-0.89278665	6.5599614	66.820082
396	5	4	-0.16231568	-0.51630958	4.4597888	66.490923
397	5	7	0.098938814	0.32261678	3.8196011	66.137295
398	5	7	0.098938814	-0.73846223	4.1694263	67.54075
399	5	6	0.099477953	-1.0189632	2.5178276	64.510426
400	5	6	0.099477953	-2.8101062	2.6176357	64.564101
401	6	1	0.54300386	3.9740335	3.1238884	94.581489
402	6	2	-0.6862505	4.9140706	3.32059	93.765493
403	6	3	-0.52222639	2.6992243	3.7430075	94.39333
404	6	4	0.030967398	2.4347364	4.6239757	93.256627
405	6	4	-0.1457331	0.99530441	5.1470094	93.294166
406	6	4	-0.14233134	0.70680494	6.0590411	92.092083
407	6	4	-0.14233134	-0.66306208	6.7549729	92.181236
408	6	4	-0.14444807	-1.8748032	5.8054047	92.203429
409	6	4	0.025149161	-1.9938068	4.9535881	90.932532
410	6	3	-0.46654763	-3.2482443	4.2023307	90.926604
411	6	1	0.78219885	-3.6002569	3.3382695	89.842623
412	6	2	-0.6123839	-2.8331566	3.2013028	88.852408
413	6	5	0.32575137	-3.9168528	4.2799845	91.7268
414	6	6	0.056923813	-1.1491114	4.2349318	90.882295
415	6	6	0.056923813	-1.9603678	5.6139816	90.038358
416	6	7	0.088212951	-1.8353427	5.148268	93.097829
417	6	7	0.088212951	-2.7893157	6.42935	92.298425
418	6	7	0.087006359	-0.7650591	7.445443	91.314874
419	6	7	0.087006359	-0.68757325	7.3816972	93.098321
420	6	7	0.087006359	0.78486888	5.4793639	91.14749
421	6	7	0.087006359	1.4840549	6.8528257	92.050246
422	6	7	0.088212951	0.3032898	4.2786912	93.278893
423	6	7	0.088212951	0.8381599	5.714729	94.23823
424	6	6	0.053355327	3.1424321	5.480718	93.287683
425	6	6	0.053355327	2.5980184	4.0589233	92.312096
426	6	5	0.3191686	1.9511932	3.5490812	95.097576
427	7	8	-0.48524081	-4.4967197	2.8177213	89.869657
428	7	4	0.091343424	-4.1678783	1.4595653	89.989373
429	7	4	-0.072131501	-3.6844471	1.1347718	91.417719
430	7	7	0.088398239	-2.7733133	1.7453329	91.605153
431	7	4	-0.16353902	-3.2655151	-0.35572647	91.539481
432	7	7	0.098321459	-2.9296975	-0.75946971	90.558883
433	7	7	0.098321459	-2.3962453	-0.43521064	92.229517
434	7	4	-0.16310158	-4.4011846	-1.2292225	92.088175
435	7	7	0.098938806	-4.0775334	-2.2932228	92.085133
436	7	7	0.098938806	-5.2654879	-1.1600512	91.39166
437	7	4	-0.071320982	-4.8509518	-0.78026031	93.506291
438	7	4	0.018722261	-4.1768679	-1.6150627	94.608748
439	7	8	-0.14195062	-4.5963327	-2.9502586	94.526096
440	7	6	0.099477953	-3.0701863	-1.5593043	94.50151
441	7	6	0.099477953	-4.4589532	-1.2079012	95.606262
442	7	7	0.091462342	-5.948593	-0.95802282	93.579436
443	7	4	-0.16310155	-4.6060429	0.73031301	93.756934
444	7	7	0.098938814	-5.3327753	1.1025376	94.511978
445	7	7	0.098938814	-3.5847656	0.90025583	94.164621
446	7	4	-0.16353905	-4.7545707	1.5401496	92.465963
447	7	7	0.098321459	-5.780192	1.3773015	92.06526
448	7	7	0.098321459	-4.6534617	2.6227862	92.697482
449	7	6	0.099290705	-5.0678875	0.8529166	89.749912
450	7	6	0.099290705	-3.3798177	1.1963954	89.247743
451	4	1	0.54300392	4.1358294	2.4782009	95.433829
452	4	2	-0.68625056	3.5929778	2.7589686	96.535125
453	4	3	-0.52222645	4.9550919	1.3122855	95.293645
454	4	4	0.030967402	5.217602	0.39210296	96.3988
455	4	4	-0.1457331	6.2355949	0.99752399	97.370551
456	4	4	-0.14214736	6.5359482	0.029749239	98.525675
457	4	4	-0.13794369	7.6491379	0.54219614	99.453071
458	4	4	-0.12213404	7.1983908	1.7292138	100.31952
459	4	4	0.18434668	8.2893836	2.1591622	101.31275
460	4	3	-0.64312028	8.5720296	1.1141131	102.29269
461	4	9	0.59332008	7.7192136	0.76502145	103.17054
462	4	2	-0.46873485	6.8885563	0.42463145	104.02313
463	4	6	0.031907445	7.9715919	3.0872414	101.83729
464	4	6	0.031907445	9.2224925	2.391025	100.75651
465	4	7	0.08184856	6.9718241	2.6000741	99.668615
466	4	7	0.08184856	6.2716907	1.4669868	100.87437
467	4	7	0.085725313	8.5393134	0.82845749	98.850953
468	4	7	0.085725313	7.9494538	-0.29772911	100.11713
469	4	7	0.087006359	6.8648857	-0.94319022	98.101305
470	4	7	0.087006359	5.6105984	-0.15542874	99.114342
471	4	7	0.088212951	5.829149	1.9473759	97.775036
472	4	7	0.088212951	7.1744881	1.2206964	96.81714
473	4	6	0.053355327	4.26669	0.15756847	96.926357
474	4	6	0.053355327	5.6243048	-0.55689217	95.987592
475	4	5	0.31916863	5.3294989	1.0812238	94.346047
476	5	8	-0.1419506	-4.1167871	-3.4348386	95.247491
477	5	4	0.01872224	-4.6987813	-4.7086232	95.330368
478	5	4	-0.071320975	-4.2613889	-5.5921895	94.145549
479	5	7	0.091462357	-4.6122991	-5.0944087	93.213589
480	5	4	-0.16231569	-4.9480762	-6.9833578	94.203518
481	5	7	0.098938814	-5.9241171	-6.9270675	94.734155
482	5	7	0.098938814	-5.1715079	-7.3246346	93.167718
483	5	4	-0.15525789	-4.0602454	-8.0357693	94.878563
484	5	7	0.098938806	-4.6232259	-8.9909406	94.96246
485	5	7	0.098938806	-3.8481999	-7.7014598	95.917651
486	5	4	-0.11273644	-2.7159806	-8.238481	94.123941
487	5	4	0.080818532	-2.7763561	-9.4428413	93.169121
488	5	10	-0.67093181	-2.9381997	-10.628598	93.897733
489	5	11	0.38211269	-2.9864791	-11.359283	93.22908
490	5	6	0.088417186	-3.6230728	-9.3188087	92.456024
491	5	6	0.088417186	-1.8287618	-9.5015009	92.587267
492	5	7	0.095040022	-1.9360956	-8.4583662	94.886675
493	5	4	-0.15525789	-2.2698549	-6.969125	93.354075
494	5	7	0.098938814	-1.163209	-6.9678825	93.251937
495	5	7	0.098938814	-2.7004297	-6.9599179	92.327805
496	5	4	-0.16231568	-2.7144194	-5.6947168	94.077055
497	5	7	0.098938814	-2.2745456	-5.6990145	95.099398
498	5	7	0.098938814	-2.3085856	-4.8084834	93.542558
499	5	6	0.099477953	-4.3865303	-5.1798119	96.287295
500	5	6	0.099477953	-5.8089225	-4.6133889	95.350812
501	6	1	0.54300386	-1.8960841	21.008041	-3.8690691
502	6	2	-0.6862505	-1.3774296	20.265778	-4.7455704
503	6	3	-0.52222639	-2.1988731	20.502109	-2.5666857
504	6	4	0.030967398	-1.9230729	19.113715	-2.200009
505	6	4	-0.1457331	-2.3390483	18.83827	-0.75155053
506	6	4	-0.14233134	-2.0348552	17.385439	-0.3555892
507	6	4	-0.14233134	-2.600615	17.008148	1.0251253
508	6	4	-0.14444807	-2.0356212	17.821568	2.203946
509	6	4	0.025149161	-0.5215874	17.647013	2.3832955
510	6	3	-0.46654763	-0.066247106	18.29496	3.6124687
511	6	1	0.78219885	1.3069795	18.266786	4.0111968
512	6	2	-0.6123839	2.1699006	17.675099	3.3090553
513	6	5	0.32575137	-0.743549	18.801332	4.227473
514	6	6	0.056923813	0.01285026	18.101766	1.5230179
515	6	6	0.056923813	-0.27563293	16.563447	2.4299348
516	6	7	0.088212951	-2.2815513	18.897966	2.084687
517	6	7	0.088212951	-2.544261	17.472231	3.1280207
518	6	7	0.087006359	-2.3996624	15.928937	1.2058424
519	6	7	0.087006359	-3.7045382	17.132339	1.0061465
520	6	7	0.087006359	-0.93915662	17.204196	-0.38676498
521	6	7	0.087006359	-2.4970544	16.706002	-1.1043883
522	6	7	0.088212951	-1.7822391	19.53126	-0.086101611
523	6	7	0.088212951	-3.4290539	19.033477	-0.64182807
524	6	6	0.053355327	-2.4837576	18.438707	-2.8825058
525	6	6	0.053355327	-0.83426118	18.915779	-2.3157417
526	6	5	0.3191686	-2.6286962	21.156787	-1.8740323
527	7	8	-0.48524081	1.5980618	18.737825	4.887975
528	7	4	0.091343424	2.4053217	19.821256	4.5117231
529	7	4	-0.072131501	1.55253	20.964085	3.9234579
530	7	7	0.088398239	1.0408838	20.563512	3.0202194
531	7	4	-0.16353902	2.4475771	22.142966	3.453304
532	7	7	0.098321459	3.4637774	21.788053	3.1727201