Title

215 atoms
236 bonds
391 angles
603 dihedrals
348 impropers

10 atom types
13 bond types
8 angle types
17 dihedral types
3 improper types
-20.51600075 79.48399925 xlo xhi
-7.171999931 92.82800007 ylo yhi
-4.910999775 95.08900023 zlo zhi
0.0 0.0 0.0 xy xz yz

Masses

1	14.00672
2	12.01078
3	1.007947
4	15.99943
5	1.007947
6	12.01078
7	18.998403
8	15.99943
9	15.99943
10	1.007947


Pair Coeffs

1	0.16769152	3.206876
2	0.086879315	3.4806469
3	0.015611343	2.5725815
4	0.16846514	3.0251065
5	0.014090815	1.1034277
6	0.10884061	3.3795318
7	0.061	3.1181455
8	0.2102061	3.0398122
9	0.20947353	2.99716
10	1.2326e-05	0.53453923

Bond Coeffs

1 harmonic	390.03554688505	1.390160554689
2 harmonic	505.144496193	1.019481865027
3 harmonic	422.7150220147	1.421786517481
4 harmonic	360.7852444772	1.387193227181
5 harmonic	397.2545789619	1.085358495916
6 harmonic	279.1350963404	1.454628925034
7 harmonic	425.69104206635	1.362945806494
8 harmonic	289.73813263395	1.498646816465
9 harmonic	492.76746816345	1.381897776683
10 harmonic	340.45121009905	1.358690858053
11 harmonic	582.698766451	1.225198386222
12 harmonic	385.7604595587	1.369745182308
13 harmonic	543.5267831885	0.9716763312559


Angle Coeffs

1 harmonic	57.8982893754	126.8062420451
2 harmonic	55.42182150775	117.3465570514
3 harmonic	63.44422595415	115.5071327674
4 harmonic	34.066775159195	129.1835929926
5 harmonic	65.09061609600001	110.3538806181
6 harmonic	53.20531626545	116.5475862634
7 harmonic	79.1895422237	112.4630193006
8 harmonic	201.41175231035	127.4691416191


Dihedral Coeffs

1 fourier 1	3.661930099076	2	180
2 fourier 1	1.193093382682	2	180
3 fourier 1	0.02021088501612	1	0
4 fourier 1	1.163235555439	2	180
5 fourier 1	1.532232714475	2	180
6 fourier 1	0.02664938770063	3	0
7 fourier 1	1.659715194912	2	180
8 fourier 1	3.101948770557	2	180
9 fourier 1	-0.4252153282372	1	0
10 fourier 1	1.809047390003	2	180
11 fourier 1	-0.04816277792592	1	0
12 fourier 1	0.9974165607242	2	180
13 fourier 1	2.348375642009	2	180
14 fourier 1	1.256156174911	1	0
15 fourier 1	2.687457892086	2	180
16 fourier 1	2.772607909663	2	180
17 fourier 1	0.09692684957115	1	0


Improper Coeffs

1 0.3666666666666667	-1	2
2 0.3333333333333333	-1	2
3 3.5	-1	2


Atoms

1	1	1	-0.413059	13.227	3.1159999	2.0409999
2	1	2	0.124191	11.882	2.905	1.597
3	1	2	-0.40897501	11.631	2.575	0.324
4	1	3	0.219072	12.443	2.473	-0.384
5	1	2	-0.117434	10.238	2.3789999	-0.14399999
6	1	3	0.20180599	10.074	2.151	-1.188
7	1	2	-0.130052	9.2060003	2.516	0.70999998
8	1	2	-0.136227	7.802	2.3659999	0.24600001
9	1	2	-0.132882	6.8449998	3.201	0.69
10	1	3	0.20510601	7.0780001	3.997	1.388
11	1	2	-0.29846701	5.454	3.0599999	0.23100001
12	1	3	0.221637	4.7010002	3.7360001	0.61500001
13	1	2	0.326482	5.1170001	2.1040001	-0.64499998
14	1	4	-0.284008	3.777	2.0009999	-1.031
15	1	2	0.29800901	2.9119999	0.96200001	-0.65700001
16	1	2	-0.32293901	3.2809999	-0.028999999	0.178
17	1	3	0.228137	4.2740002	-0.056000002	0.61299998
18	1	2	-0.107216	2.3269999	-1.104	0.51999998
19	1	3	0.211154	2.6570001	-1.891	1.1900001
20	1	2	-0.113677	1.0779999	-1.114	0.003
21	1	2	0.240683	0.66799998	0.0089999996	-0.88599998
22	1	2	-0.32529199	1.54	0.97299999	-1.201
23	1	3	0.224778	1.24	1.777	-1.862
24	1	4	-0.30697799	-0.625	0.082000002	-1.398
25	1	2	0.240683	-1.573	-0.91900003	-1.189
26	1	2	-0.32529199	-2.7909999	-0.78399998	-1.7309999
27	1	3	0.224778	-3.029	0.098999999	-2.309
28	1	2	0.29800901	-3.7950001	-1.8609999	-1.596
29	1	4	-0.284008	-5.0539999	-1.728	-2.1889999
30	1	2	0.326482	-6.006	-0.76800001	-1.806
31	1	2	-0.29846701	-5.9879999	-0.212	-0.579
32	1	3	0.221637	-5.2199998	-0.47	0.138
33	1	2	-0.132882	-7.0580001	0.70999998	-0.15800001
34	1	3	0.20510601	-7.02	1.1289999	0.83999997
35	1	2	-0.136227	-8.0629997	1.017	-0.99599999
36	1	2	-0.130052	-9.1610003	1.921	-0.57499999
37	1	2	-0.131383	-9.7209997	1.813	0.64600003
38	1	3	0.20180599	-9.3870001	1.063	1.349
39	1	2	-0.377233	-10.835	2.6989999	1.04
40	1	3	0.215618	-11.273	2.5910001	2.023
41	1	2	0.19650599	-11.309	3.612	0.178
42	1	1	-0.53321898	-12.397	4.4619999	0.551
43	1	5	0.318239	-12.83	4.3930001	1.5
44	1	2	-0.377233	-10.697	3.7379999	-1.1619999
45	1	3	0.215618	-11.065	4.48	-1.859
46	1	2	-0.131383	-9.6809998	2.9430001	-1.518
47	1	3	0.20180599	-9.2340002	3.0569999	-2.4990001
48	1	2	-0.059712	-8.0600004	0.442	-2.3670001
49	1	3	0.204218	-8.8620005	0.70999998	-3.0439999
50	1	2	-0.324325	-7.0890002	-0.40799999	-2.7609999
51	1	6	0.76549298	-7.0609999	-0.98500001	-4.158
52	1	7	-0.210988	-5.9159999	-0.56400001	-4.802
53	1	7	-0.210988	-8.1549997	-0.58499998	-4.9109998
54	1	7	-0.210988	-7.0580001	-2.368	-4.0929999
55	1	2	-0.32293901	-3.4879999	-2.973	-0.91900003
56	1	3	0.228137	-4.2189999	-3.7639999	-0.81900001
57	1	2	-0.107216	-2.171	-3.0999999	-0.264
58	1	3	0.211154	-1.982	-3.9779999	0.34099999
59	1	2	-0.113677	-1.238	-2.132	-0.389
60	1	6	0.098364003	0.090999998	-2.223	0.35800001
61	1	2	0.041869	-0.163	-2.237	1.854
62	1	2	-0.135196	-0.713	-1.271	2.5999999
63	1	3	0.214109	-1.034	-0.34099999	2.151
64	1	2	-0.263367	-0.87099999	-1.5039999	4.059
65	1	3	0.21970201	-1.3049999	-0.73000002	4.678
66	1	2	-0.23344301	-0.472	-2.6670001	4.612
67	1	3	0.21435501	-0.59500003	-2.8269999	5.6750002
68	1	2	-0.17316499	0.133	-3.7309999	3.773
69	1	3	0.201023	0.45699999	-4.664	4.2160001
70	1	2	-0.016213	0.264	-3.494	2.4619999
71	1	2	-0.016214	0.81400001	-4.3299999	1.415
72	1	2	-0.17316499	1.334	-5.5599999	1.48
73	1	3	0.201023	1.385	-6.1009998	2.4159999
74	1	2	-0.23344301	1.824	-6.1760001	0.222
75	1	3	0.21435501	2.2460001	-7.1719999	0.243
76	1	2	-0.263367	1.742	-5.5029998	-0.94499999
77	1	3	0.21970201	2.098	-5.9590001	-1.86
78	1	2	-0.135196	1.16	-4.1360002	-0.986
79	1	3	0.214109	1.0779999	-3.5999999	-1.923
80	1	2	0.041869	0.72500002	-3.5910001	0.15700001
81	1	2	-0.324325	6.1729999	1.201	-1.204
82	1	6	0.76549298	5.849	0.134	-2.2279999
83	1	7	-0.210988	4.73	0.47099999	-2.9649999
84	1	7	-0.210988	6.9029999	-0.02	-3.1099999
85	1	7	-0.210988	5.6199999	-1.068	-1.582
86	1	2	-0.059712	7.4349999	1.312	-0.73900002
87	1	3	0.204218	8.2019997	0.62599999	-1.08
88	1	2	-0.117434	9.493	2.852	2.1289999
89	1	3	0.20180599	8.6809998	2.9419999	2.8380001
90	1	2	-0.40897501	10.754	3.0369999	2.5450001
91	1	3	0.219072	10.942	3.2750001	3.5840001
92	1	5	0.37125501	14.027	3.0569999	1.374
93	1	2	0.76662397	-12.778	5.184	-0.131
94	1	8	-0.66299599	-11.969	5.9289999	-0.74599999
95	1	2	-0.355589	-14.234	5.2950001	-0.34
96	1	2	-0.077930003	-14.755	6.1960001	-1.194
97	1	3	0.220754	-14.119	6.868	-1.755
98	1	2	-0.245804	-16.216999	6.283	-1.381
99	1	3	0.210335	-16.627001	7.0110002	-2.0699999
100	1	2	-0.026303001	-17.033001	5.4679999	-0.704
101	1	3	0.220162	-18.103001	5.5450001	-0.852
102	1	2	-0.294862	-16.475	4.4689999	0.242
103	1	2	0.586474	-17.365999	3.5669999	0.99299997
104	1	8	-0.53381801	-18.615999	3.6259999	0.847
105	1	2	0.053594999	-15.143	4.3930001	0.41
106	1	3	0.237865	-14.72	3.6689999	1.097
107	1	1	-0.413059	13.426	3.362	3.0380001
108	1	2	0.124191	12.355	3.573	3.9649999
109	1	2	-0.40897501	12.613	3.9030001	5.237
110	1	3	0.219072	13.635	4.0050001	5.5780001
111	1	2	-0.117434	11.507	4.099	6.204
112	1	3	0.20180599	11.757	4.3270001	7.2309999
113	1	2	-0.130052	10.226	3.9619999	5.8119998
114	1	2	-0.136227	9.1079998	4.112	6.7810001
115	1	2	-0.132882	8.0539999	3.277	6.7389998
116	1	3	0.20510601	8.0010004	2.4809999	6.0050001
117	1	2	-0.29846701	6.9460001	3.418	7.697
118	1	3	0.221637	6.1040001	2.7420001	7.632
119	1	2	0.326482	6.9720001	4.3740001	8.6350002
120	1	4	-0.284008	5.8839998	4.4770002	9.507
121	1	2	0.29800901	4.941	5.5159998	9.4940004
122	1	2	-0.32293901	4.961	6.507	8.5810003
123	1	3	0.228137	5.71	6.5339999	7.7979999
124	1	2	-0.107216	3.9489999	7.5819998	8.632
125	1	3	0.211154	3.9949999	8.3690004	7.8870001
126	1	2	-0.113677	2.9949999	7.5910001	9.5900002
127	1	2	0.240683	2.957	6.4689999	10.568
128	1	2	-0.32529199	3.8840001	5.5040002	10.524
129	1	3	0.224778	3.8610001	4.7010002	11.249
130	1	4	-0.30697799	1.961	6.3959999	11.538
131	1	2	0.240683	1.005	7.3969998	11.709
132	1	2	-0.32529199	0.089000002	7.2620001	12.678
133	1	3	0.224778	0.092	6.3790002	13.303
134	1	2	0.29800901	-0.889	8.3389997	12.939
135	1	4	-0.284008	-1.824	8.2060003	13.97
136	1	2	0.326482	-2.8499999	7.2459998	13.983
137	1	2	-0.29846701	-3.3050001	6.6900001	12.843
138	1	3	0.221637	-2.872	6.948	11.886
139	1	2	-0.132882	-4.454	5.7680001	12.866
140	1	3	0.20510601	-4.803	5.349	11.93
141	1	2	-0.136227	-5.0599999	5.461	14.026
142	1	2	-0.130052	-6.2350001	4.5570002	14.059
143	1	2	-0.080898002	-7.2220001	4.665	13.148
144	1	3	0.20180599	-7.184	5.415	12.37
145	1	2	-0.45306101	-8.4020004	3.779	13.212
146	1	3	0.22750001	-9.184	3.8870001	12.473
147	1	2	0.31461301	-8.5089998	2.8659999	14.19
148	1	1	-0.84587801	-9.6560001	2.016	14.264
149	1	5	0.36412299	-9.7440004	1.307	15.027
150	1	5	0.36412299	-10.42	2.085	13.554
151	1	2	-0.45306101	-7.428	2.74	15.191
152	1	3	0.22750001	-7.5	1.998	15.977
153	1	2	-0.080898002	-6.3530002	3.5350001	15.13
154	1	3	0.20180599	-5.5640001	3.421	15.863
155	1	2	-0.059712	-4.5300002	6.0359998	15.29
156	1	3	0.204218	-5.0110002	5.7680001	16.224001
157	1	2	-0.324325	-3.483	6.8860002	15.281
158	1	6	0.76549298	-2.9200001	7.4629998	16.559999
159	1	7	-0.210988	-1.615	7.0419998	16.714001
160	1	7	-0.210988	-3.6400001	7.0630002	17.674999
161	1	7	-0.210988	-2.9419999	8.8459997	16.497999
162	1	2	-0.32293901	-0.86699998	9.4510002	12.197
163	1	3	0.228137	-1.579	10.242	12.385
164	1	2	-0.107216	0.097000003	9.5780001	11.085
165	1	3	0.211154	0.039999999	10.456	10.454
166	1	2	-0.113677	1.007	8.6099997	10.842
167	1	6	0.098364003	1.947	8.7010002	9.6420002
168	1	2	0.041869	1.137	8.7150002	8.3579998
169	1	2	-0.135196	0.34200001	7.7490001	7.881
170	1	3	0.214109	0.219	6.8189998	8.4189997
171	1	2	-0.263367	-0.36399999	7.9819999	6.5949998
172	1	3	0.21970201	-1.003	7.2080002	6.1900001
173	1	2	-0.23344301	-0.20900001	9.1450005	5.9310002
174	1	3	0.21435501	-0.73100001	9.3050003	4.9970002
175	1	2	-0.17316499	0.67299998	10.209	6.473
176	1	3	0.201023	0.801	11.142	5.9390001
177	1	2	-0.016213	1.298	9.9720001	7.632
178	1	2	-0.016214	2.207	10.808	8.3879995
179	1	2	-0.17316499	2.6630001	12.038	8.1269999
180	1	3	0.201023	2.3499999	12.578	7.244
181	1	2	-0.23344301	3.599	12.654	9.1009998
182	1	3	0.21435501	3.98	13.65	8.9189997
183	1	2	-0.263367	3.971	11.981	10.21
184	1	3	0.21970201	4.652	12.437	10.917
185	1	2	-0.135196	3.45	10.614	10.472
186	1	3	0.214109	3.7349999	10.078	11.368
187	1	2	0.041869	2.609	10.068	9.5839996
188	1	2	-0.324325	8.1619997	5.276	8.7449999
189	1	6	0.76549298	8.2559996	6.3429999	9.8149996
190	1	7	-0.210988	7.507	6.007	10.926
191	1	7	-0.210988	9.5679998	6.4980001	10.224
192	1	7	-0.210988	7.7969999	7.546	9.3070002
193	1	2	-0.059712	9.1479998	5.1659999	7.8309999
194	1	3	0.204218	9.9870005	5.8520002	7.8509998
195	1	2	-0.117434	9.9449997	3.6259999	4.3920002
196	1	3	0.20180599	8.9230003	3.536	4.0489998
197	1	2	-0.40897501	10.949	3.441	3.5239999
198	1	3	0.219072	10.724	3.2019999	2.4909999
199	1	5	0.37125501	14.421	3.421	3.346
200	1	2	0.586474	-16.952999	2.8410001	1.681
201	1	8	-0.53381801	-16.166	1.962	1.239
202	1	2	-0.29036599	-17.318001	2.8959999	3.109
203	1	2	-0.026303001	-16.825001	2.0109999	3.9949999
204	1	3	0.220162	-16.143999	1.229	3.684
205	1	2	-0.24695399	-17.209	2.092	5.4169998
206	1	3	0.210335	-16.808001	1.376	6.1220002
207	1	2	-0.063892998	-18.049	3.0450001	5.836
208	1	3	0.231197	-18.319	3.089	6.8829999
209	1	2	-0.220074	-18.604	4.0320001	4.875
210	1	2	0.83757401	-19.532	5.0809999	5.3530002
211	1	8	-0.493314	-20.014	5.927	4.5510001
212	1	9	-0.66643101	-19.882	5.1409998	6.6989999
213	1	10	0.416069	-20.516001	5.8530002	7.04
214	1	2	0.070235997	-18.249001	3.9519999	3.5769999
215	1	3	0.247924	-18.641001	4.6599998	2.855

Bonds

1	1	1	2
2	2	1	92
3	3	1	107
4	4	2	3
5	4	2	90
6	5	3	4
7	4	3	5
8	5	5	6
9	4	5	7
10	6	7	8
11	4	7	88
12	4	8	9
13	4	8	86
14	5	9	10
15	4	9	11
16	5	11	12
17	4	11	13
18	7	13	14
19	4	13	81
20	7	14	15
21	4	15	16
22	4	15	22
23	5	16	17
24	4	16	18
25	5	18	19
26	4	18	20
27	4	20	21
28	8	20	60
29	4	21	22
30	7	21	24
31	5	22	23
32	7	24	25
33	4	25	26
34	4	25	59
35	5	26	27
36	4	26	28
37	7	28	29
38	4	28	55
39	7	29	30
40	4	30	31
41	4	30	50
42	5	31	32
43	4	31	33
44	5	33	34
45	4	33	35
46	6	35	36
47	4	35	48
48	4	36	37
49	4	36	46
50	5	37	38
51	4	37	39
52	5	39	40
53	4	39	41
54	1	41	42
55	4	41	44
56	2	42	43
57	9	42	93
58	5	44	45
59	4	44	46
60	5	46	47
61	5	48	49
62	4	48	50
63	8	50	51
64	10	51	52
65	10	51	53
66	10	51	54
67	5	55	56
68	4	55	57
69	5	57	58
70	4	57	59
71	8	59	60
72	8	60	61
73	8	60	80
74	4	61	62
75	4	61	70
76	5	62	63
77	4	62	64
78	5	64	65
79	4	64	66
80	5	66	67
81	4	66	68
82	5	68	69
83	4	68	70
84	6	70	71
85	4	71	72
86	4	71	80
87	5	72	73
88	4	72	74
89	5	74	75
90	4	74	76
91	5	76	77
92	4	76	78
93	5	78	79
94	4	78	80
95	8	81	82
96	4	81	86
97	10	82	83
98	10	82	84
99	10	82	85
100	5	86	87
101	5	88	89
102	4	88	90
103	5	90	91
104	11	93	94
105	6	93	95
106	4	95	96
107	4	95	105
108	5	96	97
109	4	96	98
110	5	98	99
111	4	98	100
112	5	100	101
113	4	100	102
114	6	102	103
115	4	102	105
116	11	103	104
117	6	103	200
118	5	105	106
119	1	107	108
120	2	107	199
121	4	108	109
122	4	108	197
123	5	109	110
124	4	109	111
125	5	111	112
126	4	111	113
127	6	113	114
128	4	113	195
129	4	114	115
130	4	114	193
131	5	115	116
132	4	115	117
133	5	117	118
134	4	117	119
135	7	119	120
136	4	119	188
137	7	120	121
138	4	121	122
139	4	121	128
140	5	122	123
141	4	122	124
142	5	124	125
143	4	124	126
144	4	126	127
145	8	126	167
146	4	127	128
147	7	127	130
148	5	128	129
149	7	130	131
150	4	131	132
151	4	131	166
152	5	132	133
153	4	132	134
154	7	134	135
155	4	134	162
156	7	135	136
157	4	136	137
158	4	136	157
159	5	137	138
160	4	137	139
161	5	139	140
162	4	139	141
163	6	141	142
164	4	141	155
165	4	142	143
166	4	142	153
167	5	143	144
168	4	143	145
169	5	145	146
170	4	145	147
171	1	147	148
172	4	147	151
173	2	148	149
174	2	148	150
175	5	151	152
176	4	151	153
177	5	153	154
178	5	155	156
179	4	155	157
180	8	157	158
181	10	158	159
182	10	158	160
183	10	158	161
184	5	162	163
185	4	162	164
186	5	164	165
187	4	164	166
188	8	166	167
189	8	167	168
190	8	167	187
191	4	168	169
192	4	168	177
193	5	169	170
194	4	169	171
195	5	171	172
196	4	171	173
197	5	173	174
198	4	173	175
199	5	175	176
200	4	175	177
201	6	177	178
202	4	178	179
203	4	178	187
204	5	179	180
205	4	179	181
206	5	181	182
207	4	181	183
208	5	183	184
209	4	183	185
210	5	185	186
211	4	185	187
212	8	188	189
213	4	188	193
214	10	189	190
215	10	189	191
216	10	189	192
217	5	193	194
218	5	195	196
219	4	195	197
220	5	197	198
221	11	200	201
222	6	200	202
223	4	202	203
224	4	202	214
225	5	203	204
226	4	203	205
227	5	205	206
228	4	205	207
229	5	207	208
230	4	207	209
231	6	209	210
232	4	209	214
233	11	210	211
234	12	210	212
235	13	212	213
236	5	214	215

Angles

1	1	113	114	115
2	1	207	209	210
3	5	210	212	213
4	4	202	214	215
5	4	41	44	45
6	6	50	51	53
7	4	55	57	58
8	4	183	185	186
9	1	103	200	202
10	1	130	131	132
11	8	211	210	212
12	1	9	8	86
13	4	15	16	17
14	4	109	111	112
15	1	102	103	104
16	4	2	90	91
17	4	141	155	156
18	1	201	200	202
19	4	2	3	4
20	1	111	113	195
21	4	140	139	141
22	1	117	119	188
23	4	173	175	176
24	1	16	18	20
25	1	36	37	39
26	4	95	105	106
27	1	61	70	71
28	1	114	115	117
29	4	186	185	187
30	4	27	26	28
31	6	157	158	159
32	1	107	108	197
33	1	70	71	80
34	1	120	121	122
35	3	147	148	149
36	4	142	153	154
37	4	67	66	68
38	4	137	139	140
39	4	62	64	65
40	1	31	30	50
41	1	178	179	181
42	1	100	102	103
43	4	76	78	79
44	4	28	55	56
45	4	172	171	173
46	1	22	21	24
47	4	134	162	163
48	1	167	187	178
49	1	102	103	200
50	1	171	173	175
51	1	126	127	128
52	4	40	39	41
53	1	205	207	209
54	4	136	137	138
55	1	2	90	88
56	4	118	117	119
57	4	102	105	106
58	4	8	86	87
59	6	81	82	84
60	1	94	93	95
61	2	2	1	107
62	1	103	200	201
63	1	9	11	13
64	1	132	131	166
65	1	114	113	195
66	1	181	183	185
67	4	34	33	35
68	1	60	80	78
69	1	120	121	128
70	1	26	28	29
71	1	115	117	119
72	4	163	162	164
73	1	115	114	193
74	4	4	3	5
75	5	134	135	136
76	1	3	5	7
77	1	137	136	157
78	4	66	68	69
79	1	74	76	78
80	1	108	109	111
81	1	113	195	197
82	1	13	81	86
83	1	24	25	26
84	4	16	18	19
85	1	35	48	50
86	1	30	50	48
87	1	162	164	166
88	4	114	115	116
89	1	35	36	37
90	1	5	7	8
91	1	60	80	71
92	4	176	175	177
93	1	127	126	167
94	1	21	20	60
95	6	126	167	187
96	4	17	16	18
97	4	131	132	133
98	3	149	148	150
99	6	168	167	187
100	1	179	181	183
101	4	77	76	78
102	6	188	189	191
103	6	190	189	192
104	1	179	178	187
105	4	165	164	166
106	1	189	188	193
107	1	202	203	205
108	4	108	197	198
109	1	61	62	64
110	1	18	20	60
111	4	171	173	174
112	1	70	71	72
113	4	205	207	208
114	1	121	128	127
115	4	125	124	126
116	1	121	122	124
117	1	148	147	151
118	6	81	82	83
119	1	29	28	55
120	4	63	62	64
121	1	71	72	74
122	4	127	128	129
123	1	131	166	167
124	1	95	105	102
125	5	13	14	15
126	1	42	41	44
127	4	9	11	12
128	1	124	126	127
129	1	37	39	41
130	1	93	95	96
131	4	181	183	184
132	4	15	22	23
133	4	147	151	152
134	4	115	117	118
135	1	1	2	3
136	1	30	31	33
137	1	124	126	167
138	1	57	59	60
139	1	1	2	90
140	4	3	5	6
141	7	127	130	131
142	1	209	210	212
143	4	38	37	39
144	1	33	35	36
145	1	16	15	22
146	4	116	115	117
147	1	111	113	114
148	1	7	8	86
149	1	109	108	197
150	1	108	197	195
151	1	64	66	68
152	1	95	96	98
153	1	29	30	31
154	1	169	171	173
155	6	53	51	54
156	4	75	74	76
157	1	3	2	90
158	4	195	197	198
159	1	42	93	94
160	4	168	169	170
161	1	203	205	207
162	6	59	60	61
163	1	169	168	177
164	4	156	155	157
165	1	14	13	81
166	6	188	189	190
167	4	151	153	154
168	6	190	189	191
169	1	117	119	120
170	1	131	166	164
171	1	30	50	51
172	6	157	158	161
173	1	14	15	16
174	1	72	74	76
175	1	141	142	143
176	4	152	151	153
177	1	107	108	109
178	1	36	46	44
179	1	72	71	80
180	1	119	188	193
181	4	121	122	123
182	4	81	86	87
183	1	100	102	105
184	1	143	145	147
185	3	108	107	199
186	1	31	33	35
187	6	50	51	52
188	4	97	96	98
189	1	13	81	82
190	6	159	158	161
191	6	52	51	54
192	4	37	39	40
193	6	160	158	161
194	1	7	88	90
195	1	8	9	11
196	1	20	21	22
197	1	200	202	214
198	1	126	127	130
199	1	168	177	175
200	1	96	98	100
201	1	82	81	86
202	6	20	60	61
203	1	142	143	145
204	1	60	61	62
205	4	110	109	111
206	1	164	166	167
207	1	41	44	46
208	1	209	210	211
209	1	25	59	57
210	1	183	185	187
211	4	36	37	38
212	1	35	36	46
213	1	29	30	50
214	2	41	42	93
215	1	177	178	187
216	1	14	15	22
217	1	15	16	18
218	4	133	132	134
219	1	203	202	214
220	1	109	111	113
221	6	59	60	80
222	1	26	25	59
223	1	62	61	70
224	4	99	98	100
225	1	7	8	9
226	1	18	20	21
227	1	167	187	185
228	1	39	41	42
229	1	141	155	157
230	4	178	179	180
231	4	10	9	11
232	1	5	7	88
233	4	188	193	194
234	1	122	124	126
235	4	170	169	171
236	4	58	57	59
237	1	136	157	158
238	4	204	203	205
239	6	126	167	166
240	1	103	102	105
241	1	98	100	102
242	4	19	18	20
243	4	146	145	147
244	1	141	142	153
245	4	112	111	113
246	1	142	141	155
247	3	1	107	199
248	4	123	122	124
249	1	62	64	66
250	1	114	193	188
251	4	6	5	7
252	4	196	195	197
253	1	36	35	48
254	6	159	158	160
255	1	28	55	57
256	1	93	95	105
257	6	52	51	53
258	6	20	60	80
259	4	36	46	47
260	1	120	119	188
261	6	166	167	168
262	4	121	128	129
263	1	136	137	139
264	4	206	205	207
265	4	65	64	66
266	4	142	143	144
267	4	209	214	215
268	1	132	134	162
269	6	81	82	85
270	1	167	168	177
271	4	79	78	80
272	4	74	76	77
273	4	108	109	110
274	4	113	195	196
275	1	136	157	155
276	1	104	103	200
277	4	35	48	49
278	4	162	164	165
279	5	119	120	121
280	4	88	90	91
281	1	168	177	178
282	4	184	183	185
283	6	83	82	85
284	1	119	188	189
285	4	114	193	194
286	1	207	209	214
287	1	135	134	162
288	1	8	86	81
289	4	89	88	90
290	7	21	24	25
291	1	25	59	60
292	1	66	68	70
293	4	122	124	125
294	1	132	134	135
295	3	2	1	92
296	4	98	100	101
297	4	202	203	204
298	4	61	62	63
299	4	56	55	57
300	1	25	26	28
301	1	48	50	51
302	1	113	114	193
303	1	131	132	134
304	1	145	147	151
305	2	1	107	108
306	3	92	1	107
307	6	188	189	192
308	4	180	179	181
309	1	175	177	178
310	1	11	13	14
311	4	71	72	73
312	4	45	44	46
313	1	11	13	81
314	1	200	202	203
315	4	12	11	13
316	4	30	31	32
317	1	135	136	157
318	6	20	60	59
319	4	144	143	145
320	4	32	31	33
321	1	139	141	142
322	1	24	25	59
323	1	68	70	71
324	1	135	136	137
325	6	191	189	192
326	6	50	51	54
327	1	55	57	59
328	1	210	209	214
329	3	43	42	93
330	1	61	70	68
331	4	69	68	70
332	1	26	28	55
333	4	64	66	67
334	4	95	96	97
335	6	61	60	80
336	1	20	21	24
337	1	37	36	46
338	4	174	173	175
339	4	169	171	172
340	1	147	151	153
341	4	208	207	209
342	1	142	153	151
343	4	203	205	206
344	1	178	187	185
345	1	139	141	155
346	6	83	82	84
347	1	128	127	130
348	1	145	147	148
349	3	41	42	43
350	1	202	214	209
351	1	33	35	48
352	1	2	3	5
353	1	167	168	169
354	1	71	80	78
355	1	173	175	177
356	1	130	131	166
357	1	143	142	153
358	1	122	121	128
359	4	182	181	183
360	6	157	158	160
361	4	179	181	182
362	4	72	74	75
363	4	25	26	27
364	4	8	9	10
365	3	147	148	150
366	1	8	7	88
367	1	42	93	95
368	1	155	157	158
369	1	168	169	171
370	1	137	139	141
371	1	39	41	44
372	1	177	178	179
373	4	143	145	146
374	4	21	22	23
375	4	31	33	34
376	1	76	78	80
377	6	84	82	85
378	6	166	167	187
379	6	126	167	168
380	1	134	162	164
381	4	7	88	89
382	4	138	137	139
383	4	73	72	74
384	1	96	95	105
385	1	15	22	21
386	5	28	29	30
387	4	101	100	102
388	4	96	98	99
389	4	49	48	50
390	1	60	61	70
391	4	44	46	47

Dihedrals

1	6	20	60	59	25
2	1	203	202	214	215
3	4	61	70	71	80
4	1	26	28	55	57
5	1	93	95	96	97
6	1	97	96	98	100
7	1	146	145	147	148
8	1	133	132	131	166
9	1	142	143	145	147
10	1	108	109	111	112
11	1	122	121	128	129
12	1	137	139	141	155
13	2	150	148	147	151
14	1	8	7	88	90
15	1	9	8	86	87
16	1	63	62	61	70
17	1	8	86	81	13
18	1	123	122	121	128
19	6	164	166	167	187
20	1	35	36	37	39
21	1	33	31	30	50
22	10	43	42	93	95
22	11	43	42	93	95
23	1	141	142	153	151
24	1	25	59	57	55
25	1	148	147	151	152
26	1	169	171	173	175
27	2	1	107	108	109
28	6	13	81	82	83
29	16	211	210	212	213
29	17	211	210	212	213
30	1	72	74	76	78
31	1	179	181	183	185
32	4	111	113	114	193
33	1	23	22	21	24
34	1	61	62	64	65
35	1	70	71	72	73
36	12	100	102	103	200
37	6	155	157	158	159
38	1	118	117	119	188
39	6	126	167	168	169
40	1	14	13	81	82
41	6	164	166	167	168
42	6	48	50	51	53
43	1	100	102	105	106
44	7	20	21	24	25
45	6	21	20	60	61
46	1	32	31	33	35
47	1	62	64	66	67
48	4	168	177	178	187
49	1	63	62	64	66
50	1	14	15	22	21
51	1	99	98	100	101
52	1	167	187	185	186
53	1	33	35	48	50
54	1	130	131	132	134
55	1	69	68	70	71
56	4	153	142	141	155
57	12	212	210	209	214
58	1	167	187	178	177
59	1	109	111	113	195
60	1	200	202	214	209
61	1	184	183	185	187
62	1	60	80	78	79
63	7	128	127	130	131
64	1	131	132	134	162
65	2	197	108	107	199
66	6	83	82	81	86
67	4	33	35	36	46
68	3	92	1	107	199
69	1	71	80	78	76
70	1	118	117	119	120
71	1	203	205	207	209
72	1	101	100	102	105
73	1	31	30	50	48
74	1	8	9	11	13
75	1	114	115	117	119
76	1	16	18	20	21
77	1	55	57	59	60
78	6	70	61	60	80
79	1	36	37	39	40
80	1	117	119	188	193
81	1	121	122	124	126
82	1	144	143	145	146
83	1	113	195	197	198
84	1	145	147	151	152
85	1	72	71	80	78
86	1	167	168	169	170
87	1	179	178	187	185
88	1	27	26	28	55
89	6	61	60	80	78
90	1	208	207	209	214
91	5	134	135	136	157
92	1	7	8	86	87
93	1	75	74	76	78
94	5	134	135	136	137
95	1	26	28	55	56
96	1	35	48	50	51
97	4	139	141	142	143
98	1	97	96	98	99
99	1	108	197	195	196
100	1	131	132	134	135
101	1	142	153	151	152
102	6	124	126	167	166
103	6	166	167	168	177
104	1	143	145	147	148
105	1	8	7	88	89
106	6	168	167	187	178
107	7	21	24	25	59
108	1	24	25	59	57
109	4	9	8	7	88
110	1	96	95	105	102
111	1	136	157	155	141
112	1	35	36	37	38
113	6	61	60	80	71
114	1	13	81	86	87
115	1	93	95	105	106
116	1	61	70	68	69
117	5	119	120	121	122
118	1	97	96	95	105
119	1	29	30	31	33
120	6	177	168	167	187
121	1	146	145	147	151
122	1	182	181	183	185
123	5	121	120	119	188
124	1	178	179	181	182
125	6	48	50	51	52
126	1	98	100	102	105
127	1	18	20	21	22
128	6	57	59	60	61
129	1	205	203	202	214
130	1	2	3	5	7
131	1	181	183	185	187
132	1	29	28	55	57
133	2	44	41	42	93
134	1	74	76	78	80
135	1	29	30	50	51
136	1	34	33	35	36
137	1	180	179	178	187
138	1	96	95	105	106
139	1	32	31	33	34
140	1	116	115	117	118
141	1	60	61	62	64
142	12	104	103	200	202
143	1	120	121	128	129
144	6	136	157	158	161
145	5	30	29	28	55
146	1	33	35	48	49
147	1	130	131	132	133
148	1	141	142	153	154
149	2	3	2	1	92
150	1	14	15	16	17
151	1	184	183	185	186
152	1	3	2	90	88
153	1	60	80	71	70
154	1	95	96	98	99
155	5	11	13	14	15
156	1	5	3	2	90
157	1	107	108	109	111
158	1	171	169	168	177
159	6	127	126	167	187
160	1	180	179	181	182
161	1	206	205	207	209
162	12	201	200	202	214
163	2	90	2	1	92
164	4	111	113	114	115
165	1	66	68	70	71
166	1	170	169	171	173
167	1	64	66	68	69
168	1	8	9	11	12
169	1	107	108	197	198
170	1	16	15	22	23
171	3	92	1	107	108
172	1	121	122	124	125
173	1	167	168	177	175
174	6	190	189	188	193
175	12	42	93	95	96
176	4	175	177	178	179
177	1	204	203	202	214
178	6	62	61	60	80
179	1	132	134	162	163
180	6	59	60	61	70
181	1	135	134	162	164
182	1	61	70	68	66
183	1	114	113	195	197
184	1	131	166	164	165
185	4	139	141	142	153
186	6	30	50	51	53
187	1	45	44	46	47
188	1	71	80	78	79
189	1	168	169	171	172
190	1	177	178	179	180
191	1	110	109	108	197
192	1	31	30	50	51
193	1	122	121	128	127
194	7	127	130	131	166
195	1	40	39	41	44
196	1	165	164	166	167
197	6	25	59	60	80
198	1	174	173	175	176
199	1	28	55	57	59
200	1	178	187	185	183
201	1	134	132	131	166
202	1	56	55	57	59
203	1	204	203	205	207
204	1	29	30	50	48
205	4	115	114	113	195
206	1	19	18	20	21
207	1	17	16	18	19
208	1	62	61	70	68
209	1	113	114	193	188
210	1	139	141	155	157
211	1	122	124	126	127
212	1	24	21	20	60
213	1	64	62	61	70
214	1	177	178	187	185
215	1	2	90	88	7
216	1	24	25	26	28
217	1	1	2	3	5
218	1	182	181	183	184
219	1	15	16	18	19
220	1	10	9	11	13
221	6	166	167	187	185
222	1	120	119	188	193
223	1	12	11	13	14
224	1	107	108	197	195
225	1	122	124	126	167
226	1	138	137	139	141
227	1	32	31	30	50
228	1	117	119	188	189
229	1	2	3	5	6
230	10	41	42	93	95
230	11	41	42	93	95
231	1	29	28	55	56
232	1	143	145	147	151
233	1	181	183	185	186
234	12	102	103	200	202
235	1	74	76	78	79
236	1	24	25	59	60
237	6	136	157	158	160
238	1	60	61	62	63
239	12	104	103	200	201
240	1	65	64	66	68
241	6	192	189	188	193
242	1	12	11	13	81
243	1	163	162	164	165
244	1	208	207	209	210
245	4	5	7	8	86
246	6	13	81	82	85
247	1	134	162	164	165
248	1	8	86	81	82
249	1	28	26	25	59
250	6	20	60	80	78
251	1	131	166	164	162
252	6	191	189	188	193
253	1	82	81	86	87
254	1	109	111	113	114
255	6	155	157	158	161
256	1	110	109	111	113
257	1	206	205	207	208
258	1	170	169	171	172
259	1	130	131	166	164
260	1	22	21	20	60
261	1	156	155	157	158
262	1	171	173	175	177
263	7	127	130	131	132
264	1	133	132	134	162
265	6	84	82	81	86
266	6	18	20	60	80
267	1	18	16	15	22
268	6	119	188	189	190
269	12	105	102	103	200
270	1	96	98	100	102
271	1	14	15	22	23
272	1	113	114	193	194
273	5	132	134	135	136
274	1	124	126	127	128
275	1	135	134	162	163
276	12	207	209	210	212
277	1	167	187	178	179
278	1	93	95	105	102
279	1	11	13	81	86
280	1	30	50	48	49
281	1	3	2	90	91
282	1	27	26	28	29
283	6	20	60	80	71
284	1	114	113	195	196
285	1	140	139	141	142
286	6	30	50	51	52
287	1	168	177	175	176
288	1	117	115	114	193
289	6	131	166	167	187
290	1	125	124	126	127
291	1	142	143	145	146
292	1	172	171	173	175
293	1	111	113	195	197
294	1	4	3	5	7
295	2	43	42	41	44
296	6	59	60	80	78
297	1	36	46	44	41
298	1	56	55	57	58
299	5	28	29	30	31
300	1	167	168	177	178
301	1	204	203	205	206
302	1	60	61	70	68
303	1	35	36	46	44
304	1	112	111	113	195
305	6	131	166	167	168
306	4	193	114	113	195
307	1	133	132	134	135
308	1	41	44	46	47
309	6	124	126	167	187
310	1	36	35	48	50
311	13	43	42	93	94
311	14	43	42	93	94
312	1	112	111	113	114
313	1	135	136	157	155
314	1	169	171	173	174
315	1	200	202	214	215
316	1	17	16	15	22
317	3	2	1	107	199
318	1	72	74	76	77
319	1	179	181	183	184
320	4	61	70	71	72
321	1	3	5	7	8
322	1	24	25	26	27
323	1	210	209	214	215
324	1	93	95	96	98
325	1	15	22	21	24
326	1	10	9	11	12
327	6	126	167	168	177
328	6	124	126	167	168
329	1	58	57	59	60
330	6	20	60	61	70
331	1	138	137	139	140
332	1	178	187	185	186
333	1	124	122	121	128
334	6	21	20	60	80
335	1	36	46	44	45
336	6	59	60	80	71
337	1	7	8	9	11
338	12	102	103	200	201
339	1	130	127	126	167
340	1	73	72	71	80
341	1	62	61	70	71
342	1	65	64	66	67
343	1	63	62	64	65
344	1	37	39	41	44
345	1	25	26	28	55
346	1	178	179	181	183
347	1	202	214	209	207
348	7	21	24	25	26
349	1	203	202	214	209
350	1	121	128	127	130
351	1	5	7	88	90
352	1	30	50	48	35
353	1	61	62	64	66
354	1	70	71	72	74
355	1	168	177	175	173
356	6	155	157	158	160
357	1	110	109	111	112
358	1	138	137	136	157
359	1	203	205	207	208
360	1	152	151	153	154
361	4	175	177	178	187
362	12	201	200	202	203
363	6	48	50	51	54
364	1	142	153	151	147
365	1	114	115	117	118
366	4	5	7	8	9
367	1	18	20	21	24
368	1	95	105	102	100
369	1	119	188	193	194
370	1	136	157	155	156
371	1	31	33	35	36
372	12	42	93	95	105
373	6	166	167	187	178
374	6	18	20	60	59
375	1	38	37	39	41
376	6	127	126	167	166
377	1	180	179	181	183
378	12	94	93	95	96
379	12	207	209	210	211
380	1	75	74	76	77
381	1	196	195	197	198
382	5	119	120	121	128
383	1	60	80	71	72
384	4	86	8	7	88
385	1	172	171	173	174
386	1	26	25	59	57
387	1	37	36	46	44
388	1	9	11	13	14
389	1	130	131	166	167
390	1	120	119	188	189
391	1	36	37	39	41
392	12	103	200	202	214
393	6	126	167	166	131
394	1	144	143	145	147
395	1	111	109	108	197
396	1	167	168	169	171
397	1	9	11	13	81
398	6	126	167	187	185
399	2	1	107	108	197
400	1	36	35	48	49
401	2	3	2	1	107
402	1	114	193	188	189
403	1	114	193	188	119
404	1	29	30	31	32
405	1	141	142	143	145
406	2	90	2	1	107
407	1	143	142	153	151
408	1	42	41	44	46
409	3	2	1	107	108
410	5	13	14	15	16
411	6	57	59	60	80
412	1	71	72	74	76
413	1	181	179	178	187
414	1	116	115	114	193
415	6	166	167	168	169
416	5	15	14	13	81
417	1	123	122	124	126
418	1	142	141	155	157
419	1	6	5	7	8
420	2	145	147	148	150
421	1	60	61	70	71
422	1	35	36	46	47
423	1	77	76	78	80
424	1	129	128	127	130
425	6	21	20	60	59
426	1	137	136	157	158
427	1	205	207	209	214
428	1	135	136	157	158
429	1	6	5	7	88
430	1	7	8	86	81
431	1	98	96	95	105
432	1	11	13	81	82
433	1	5	7	88	89
434	1	145	143	142	153
435	1	136	137	139	141
436	6	126	167	166	164
437	1	107	108	109	110
438	4	143	142	141	155
439	1	169	168	177	175
440	1	67	66	68	70
441	1	141	155	157	158
442	1	101	100	102	103
443	1	19	18	20	60
444	1	126	127	128	129
445	6	20	60	61	62
446	1	34	33	35	48
447	1	2	90	88	89
448	4	68	70	71	80
449	1	202	203	205	207
450	1	27	26	25	59
451	6	20	60	59	57
452	1	116	115	117	119
453	1	38	37	39	40
454	1	202	214	209	210
455	1	207	209	214	215