Title

215 atoms
236 bonds
391 angles
603 dihedrals
348 impropers

10 atom types
13 bond types
8 angle types
17 dihedral types
3 improper types
-20.51600075 79.48399925 xlo xhi
-7.171999931 92.82800007 ylo yhi
-4.910999775 95.08900023 zlo zhi
0.0 0.0 0.0 xy xz yz

Masses

1	14.00672
2	12.01078
3	1.007947
4	15.99943
5	1.007947
6	12.01078
7	18.998403
8	15.99943
9	15.99943
10	1.007947


Pair Coeffs

1	0.16769152	3.206876
2	0.086879315	3.4806469
3	0.015611343	2.5725815
4	0.16846514	3.0251065
5	0.014090815	1.1034277
6	0.10884061	3.3795318
7	0.061	3.1181455
8	0.2102061	3.0398122
9	0.20947353	2.99716
10	1.2326e-05	0.53453923

Bond Coeffs

1 harmonic	390.03554688505	1.390160554689
2 harmonic	505.144496193	1.019481865027
3 harmonic	422.7150220147	1.421786517481
4 harmonic	360.7852444772	1.387193227181
5 harmonic	397.2545789619	1.085358495916
6 harmonic	279.1350963404	1.454628925034
7 harmonic	425.69104206635	1.362945806494
8 harmonic	289.73813263395	1.498646816465
9 harmonic	492.76746816345	1.381897776683
10 harmonic	340.45121009905	1.358690858053
11 harmonic	582.698766451	1.225198386222
12 harmonic	385.7604595587	1.369745182308
13 harmonic	543.5267831885	0.9716763312559


Angle Coeffs

1 harmonic	57.8982893754	126.8062420451
2 harmonic	55.42182150775	117.3465570514
3 harmonic	63.44422595415	115.5071327674
4 harmonic	34.066775159195	129.1835929926
5 harmonic	65.09061609600001	110.3538806181
6 harmonic	53.20531626545	116.5475862634
7 harmonic	79.1895422237	112.4630193006
8 harmonic	201.41175231035	127.4691416191


Dihedral Coeffs

1 fourier 1	3.661930099076	2	180
2 fourier 1	1.193093382682	2	180
3 fourier 1	0.02021088501612	1	0
4 fourier 1	1.163235555439	2	180
5 fourier 1	1.532232714475	2	180
6 fourier 1	0.02664938770063	3	0
7 fourier 1	1.659715194912	2	180
8 fourier 1	3.101948770557	2	180
9 fourier 1	-0.4252153282372	1	0
10 fourier 1	1.809047390003	2	180
11 fourier 1	-0.04816277792592	1	0
12 fourier 1	0.9974165607242	2	180
13 fourier 1	2.348375642009	2	180
14 fourier 1	1.256156174911	1	0
15 fourier 1	2.687457892086	2	180
16 fourier 1	2.772607909663	2	180
17 fourier 1	0.09692684957115	1	0


Improper Coeffs

1 0.3666666666666667	-1	2
2 0.3333333333333333	-1	2
3 3.5	-1	2


Atoms

1	1	1	-0.413059	13.227	3.1159999	2.0409999
2	1	2	0.124191	11.882	2.905	1.597
3	1	2	-0.40897501	11.631	2.575	0.324
4	1	3	0.219072	12.443	2.473	-0.384
5	1	2	-0.117434	10.238	2.3789999	-0.14399999
6	1	3	0.20180599	10.074	2.151	-1.188
7	1	2	-0.130052	9.2060003	2.516	0.70999998
8	1	2	-0.136227	7.802	2.3659999	0.24600001
9	1	2	-0.132882	6.8449998	3.201	0.69
10	1	3	0.20510601	7.0780001	3.997	1.388
11	1	2	-0.29846701	5.454	3.0599999	0.23100001
12	1	3	0.221637	4.7010002	3.7360001	0.61500001
13	1	2	0.326482	5.1170001	2.1040001	-0.64499998
14	1	4	-0.284008	3.777	2.0009999	-1.031
15	1	2	0.29800901	2.9119999	0.96200001	-0.65700001
16	1	2	-0.32293901	3.2809999	-0.028999999	0.178
17	1	3	0.228137	4.2740002	-0.056000002	0.61299998
18	1	2	-0.107216	2.3269999	-1.104	0.51999998
19	1	3	0.211154	2.6570001	-1.891	1.1900001
20	1	2	-0.113677	1.0779999	-1.114	0.003
21	1	2	0.240683	0.66799998	0.0089999996	-0.88599998
22	1	2	-0.32529199	1.54	0.97299999	-1.201
23	1	3	0.224778	1.24	1.777	-1.862
24	1	4	-0.30697799	-0.625	0.082000002	-1.398
25	1	2	0.240683	-1.573	-0.91900003	-1.189
26	1	2	-0.32529199	-2.7909999	-0.78399998	-1.7309999
27	1	3	0.224778	-3.029	0.098999999	-2.309
28	1	2	0.29800901	-3.7950001	-1.8609999	-1.596
29	1	4	-0.284008	-5.0539999	-1.728	-2.1889999
30	1	2	0.326482	-6.006	-0.76800001	-1.806
31	1	2	-0.29846701	-5.9879999	-0.212	-0.579
32	1	3	0.221637	-5.2199998	-0.47	0.138
33	1	2	-0.132882	-7.0580001	0.70999998	-0.15800001
34	1	3	0.20510601	-7.02	1.1289999	0.83999997
35	1	2	-0.136227	-8.0629997	1.017	-0.99599999
36	1	2	-0.130052	-9.1610003	1.921	-0.57499999
37	1	2	-0.131383	-9.7209997	1.813	0.64600003
38	1	3	0.20180599	-9.3870001	1.063	1.349
39	1	2	-0.377233	-10.835	2.6989999	1.04
40	1	3	0.215618	-11.273	2.5910001	2.023
41	1	2	0.19650599	-11.309	3.612	0.178
42	1	1	-0.53321898	-12.397	4.4619999	0.551
43	1	5	0.318239	-12.83	4.3930001	1.5
44	1	2	-0.377233	-10.697	3.7379999	-1.1619999
45	1	3	0.215618	-11.065	4.48	-1.859
46	1	2	-0.131383	-9.6809998	2.9430001	-1.518
47	1	3	0.20180599	-9.2340002	3.0569999	-2.4990001
48	1	2	-0.059712	-8.0600004	0.442	-2.3670001
49	1	3	0.204218	-8.8620005	0.70999998	-3.0439999
50	1	2	-0.324325	-7.0890002	-0.40799999	-2.7609999
51	1	6	0.76549298	-7.0609999	-0.98500001	-4.158
52	1	7	-0.210988	-5.9159999	-0.56400001	-4.802
53	1	7	-0.210988	-8.1549997	-0.58499998	-4.9109998
54	1	7	-0.210988	-7.0580001	-2.368	-4.0929999
55	1	2	-0.32293901	-3.4879999	-2.973	-0.91900003
56	1	3	0.228137	-4.2189999	-3.7639999	-0.81900001
57	1	2	-0.107216	-2.171	-3.0999999	-0.264
58	1	3	0.211154	-1.982	-3.9779999	0.34099999
59	1	2	-0.113677	-1.238	-2.132	-0.389
60	1	6	0.098364003	0.090999998	-2.223	0.35800001
61	1	2	0.041869	-0.163	-2.237	1.854
62	1	2	-0.135196	-0.713	-1.271	2.5999999
63	1	3	0.214109	-1.034	-0.34099999	2.151
64	1	2	-0.263367	-0.87099999	-1.5039999	4.059
65	1	3	0.21970201	-1.3049999	-0.73000002	4.678
66	1	2	-0.23344301	-0.472	-2.6670001	4.612
67	1	3	0.21435501	-0.59500003	-2.8269999	5.6750002
68	1	2	-0.17316499	0.133	-3.7309999	3.773
69	1	3	0.201023	0.45699999	-4.664	4.2160001
70	1	2	-0.016213	0.264	-3.494	2.4619999
71	1	2	-0.016214	0.81400001	-4.3299999	1.415
72	1	2	-0.17316499	1.334	-5.5599999	1.48
73	1	3	0.201023	1.385	-6.1009998	2.4159999
74	1	2	-0.23344301	1.824	-6.1760001	0.222
75	1	3	0.21435501	2.2460001	-7.1719999	0.243
76	1	2	-0.263367	1.742	-5.5029998	-0.94499999
77	1	3	0.21970201	2.098	-5.9590001	-1.86
78	1	2	-0.135196	1.16	-4.1360002	-0.986
79	1	3	0.214109	1.0779999	-3.5999999	-1.923
80	1	2	0.041869	0.72500002	-3.5910001	0.15700001
81	1	2	-0.324325	6.1729999	1.201	-1.204
82	1	6	0.76549298	5.849	0.134	-2.2279999
83	1	7	-0.210988	4.73	0.47099999	-2.9649999
84	1	7	-0.210988	6.9029999	-0.02	-3.1099999
85	1	7	-0.210988	5.6199999	-1.068	-1.582
86	1	2	-0.059712	7.4349999	1.312	-0.73900002
87	1	3	0.204218	8.2019997	0.62599999	-1.08
88	1	2	-0.117434	9.493	2.852	2.1289999
89	1	3	0.20180599	8.6809998	2.9419999	2.8380001
90	1	2	-0.40897501	10.754	3.0369999	2.5450001
91	1	3	0.219072	10.942	3.2750001	3.5840001
92	1	5	0.37125501	14.027	3.0569999	1.374
93	1	2	0.76662397	-12.778	5.184	-0.131
94	1	8	-0.66299599	-11.969	5.9289999	-0.74599999
95	1	2	-0.355589	-14.234	5.2950001	-0.34
96	1	2	-0.077930003	-14.755	6.1960001	-1.194
97	1	3	0.220754	-14.119	6.868	-1.755
98	1	2	-0.245804	-16.216999	6.283	-1.381
99	1	3	0.210335	-16.627001	7.0110002	-2.0699999
100	1	2	-0.026303001	-17.033001	5.4679999	-0.704
101	1	3	0.220162	-18.103001	5.5450001	-0.852
102	1	2	-0.294862	-16.475	4.4689999	0.242
103	1	2	0.586474	-17.365999	3.5669999	0.99299997
104	1	8	-0.53381801	-18.615999	3.6259999	0.847
105	1	2	0.053594999	-15.143	4.3930001	0.41
106	1	3	0.237865	-14.72	3.6689999	1.097
107	1	1	-0.413059	13.426	3.362	3.0380001
108	1	2	0.124191	12.355	3.573	3.9649999
109	1	2	-0.40897501	12.613	3.9030001	5.237
110	1	3	0.219072	13.635	4.0050001	5.5780001
111	1	2	-0.117434	11.507	4.099	6.204
112	1	3	0.20180599	11.757	4.3270001	7.2309999
113	1	2	-0.130052	10.226	3.9619999	5.8119998
114	1	2	-0.136227	9.1079998	4.112	6.7810001
115	1	2	-0.132882	8.0539999	3.277	6.7389998
116	1	3	0.20510601	8.0010004	2.4809999	6.0050001
117	1	2	-0.29846701	6.9460001	3.418	7.697
118	1	3	0.221637	6.1040001	2.7420001	7.632
119	1	2	0.326482	6.9720001	4.3740001	8.6350002
120	1	4	-0.284008	5.8839998	4.4770002	9.507
121	1	2	0.29800901	4.941	5.5159998	9.4940004
122	1	2	-0.32293901	4.961	6.507	8.5810003
123	1	3	0.228137	5.71	6.5339999	7.7979999
124	1	2	-0.107216	3.9489999	7.5819998	8.632
125	1	3	0.211154	3.9949999	8.3690004	7.8870001
126	1	2	-0.113677	2.9949999	7.5910001	9.5900002
127	1	2	0.240683	2.957	6.4689999	10.568
128	1	2	-0.32529199	3.8840001	5.5040002	10.524
129	1	3	0.224778	3.8610001	4.7010002	11.249
130	1	4	-0.30697799	1.961	6.3959999	11.538
131	1	2	0.240683	1.005	7.3969998	11.709
132	1	2	-0.32529199	0.089000002	7.2620001	12.678
133	1	3	0.224778	0.092	6.3790002	13.303
134	1	2	0.29800901	-0.889	8.3389997	12.939
135	1	4	-0.284008	-1.824	8.2060003	13.97
136	1	2	0.326482	-2.8499999	7.2459998	13.983
137	1	2	-0.29846701	-3.3050001	6.6900001	12.843
138	1	3	0.221637	-2.872	6.948	11.886
139	1	2	-0.132882	-4.454	5.7680001	12.866
140	1	3	0.20510601	-4.803	5.349	11.93
141	1	2	-0.136227	-5.0599999	5.461	14.026
142	1	2	-0.130052	-6.2350001	4.5570002	14.059
143	1	2	-0.080898002	-7.2220001	4.665	13.148
144	1	3	0.20180599	-7.184	5.415	12.37
145	1	2	-0.45306101	-8.4020004	3.779	13.212
146	1	3	0.22750001	-9.184	3.8870001	12.473
147	1	2	0.31461301	-8.5089998	2.8659999	14.19
148	1	1	-0.84587801	-9.6560001	2.016	14.264
149	1	5	0.36412299	-9.7440004	1.307	15.027
150	1	5	0.36412299	-10.42	2.085	13.554
151	1	2	-0.45306101	-7.428	2.74	15.191
152	1	3	0.22750001	-7.5	1.998	15.977
153	1	2	-0.080898002	-6.3530002	3.5350001	15.13
154	1	3	0.20180599	-5.5640001	3.421	15.863
155	1	2	-0.059712	-4.5300002	6.0359998	15.29
156	1	3	0.204218	-5.0110002	5.7680001	16.224001
157	1	2	-0.324325	-3.483	6.8860002	15.281
158	1	6	0.76549298	-2.9200001	7.4629998	16.559999
159	1	7	-0.210988	-1.615	7.0419998	16.714001
160	1	7	-0.210988	-3.6400001	7.0630002	17.674999
161	1	7	-0.210988	-2.9419999	8.8459997	16.497999
162	1	2	-0.32293901	-0.86699998	9.4510002	12.197
163	1	3	0.228137	-1.579	10.242	12.385
164	1	2	-0.107216	0.097000003	9.5780001	11.085
165	1	3	0.211154	0.039999999	10.456	10.454
166	1	2	-0.113677	1.007	8.6099997	10.842
167	1	6	0.098364003	1.947	8.7010002	9.6420002
168	1	2	0.041869	1.137	8.7150002	8.3579998
169	1	2	-0.135196	0.34200001	7.7490001	7.881
170	1	3	0.214109	0.219	6.8189998	8.4189997
171	1	2	-0.263367	-0.36399999	7.9819999	6.5949998
172	1	3	0.21970201	-1.003	7.2080002	6.1900001
173	1	2	-0.23344301	-0.20900001	9.1450005	5.9310002
174	1	3	0.21435501	-0.73100001	9.3050003	4.9970002
175	1	2	-0.17316499	0.67299998	10.209	6.473
176	1	3	0.201023	0.801	11.142	5.9390001
177	1	2	-0.016213	1.298	9.9720001	7.632
178	1	2	-0.016214	2.207	10.808	8.3879995
179	1	2	-0.17316499	2.6630001	12.038	8.1269999
180	1	3	0.201023	2.3499999	12.578	7.244
181	1	2	-0.23344301	3.599	12.654	9.1009998
182	1	3	0.21435501	3.98	13.65	8.9189997
183	1	2	-0.263367	3.971	11.981	10.21
184	1	3	0.21970201	4.652	12.437	10.917
185	1	2	-0.135196	3.45	10.614	10.472
186	1	3	0.214109	3.7349999	10.078	11.368
187	1	2	0.041869	2.609	10.068	9.5839996
188	1	2	-0.324325	8.1619997	5.276	8.7449999
189	1	6	0.76549298	8.2559996	6.3429999	9.8149996
190	1	7	-0.210988	7.507	6.007	10.926
191	1	7	-0.210988	9.5679998	6.4980001	10.224
192	1	7	-0.210988	7.7969999	7.546	9.3070002
193	1	2	-0.059712	9.1479998	5.1659999	7.8309999
194	1	3	0.204218	9.9870005	5.8520002	7.8509998
195	1	2	-0.117434	9.9449997	3.6259999	4.3920002
196	1	3	0.20180599	8.9230003	3.536	4.0489998
197	1	2	-0.40897501	10.949	3.441	3.5239999
198	1	3	0.219072	10.724	3.2019999	2.4909999
199	1	5	0.37125501	14.421	3.421	3.346
200	1	2	0.586474	-16.952999	2.8410001	1.681
201	1	8	-0.53381801	-16.166	1.962	1.239
202	1	2	-0.29036599	-17.318001	2.8959999	3.109
203	1	2	-0.026303001	-16.825001	2.0109999	3.9949999
204	1	3	0.220162	-16.143999	1.229	3.684
205	1	2	-0.24695399	-17.209	2.092	5.4169998
206	1	3	0.210335	-16.808001	1.376	6.1220002
207	1	2	-0.063892998	-18.049	3.0450001	5.836
208	1	3	0.231197	-18.319	3.089	6.8829999
209	1	2	-0.220074	-18.604	4.0320001	4.875
210	1	2	0.83757401	-19.532	5.0809999	5.3530002
211	1	8	-0.493314	-20.014	5.927	4.5510001
212	1	9	-0.66643101	-19.882	5.1409998	6.6989999
213	1	10	0.416069	-20.516001	5.8530002	7.04
214	1	2	0.070235997	-18.249001	3.9519999	3.5769999
215	1	3	0.247924	-18.641001	4.6599998	2.855

Bonds

1	1	1	2
2	2	1	92
3	3	1	107
4	4	2	3
5	4	2	90
6	5	3	4
7	4	3	5
8	5	5	6
9	4	5	7
10	6	7	8
11	4	7	88
12	4	8	9
13	4	8	86
14	5	9	10
15	4	9	11
16	5	11	12
17	4	11	13
18	7	13	14
19	4	13	81
20	7	14	15
21	4	15	16
22	4	15	22
23	5	16	17
24	4	16	18
25	5	18	19
26	4	18	20
27	4	20	21
28	8	20	60
29	4	21	22
30	7	21	24
31	5	22	23
32	7	24	25
33	4	25	26
34	4	25	59
35	5	26	27
36	4	26	28
37	7	28	29
38	4	28	55
39	7	29	30
40	4	30	31
41	4	30	50
42	5	31	32
43	4	31	33
44	5	33	34
45	4	33	35
46	6	35	36
47	4	35	48
48	4	36	37
49	4	36	46
50	5	37	38
51	4	37	39
52	5	39	40
53	4	39	41
54	1	41	42
55	4	41	44
56	2	42	43
57	9	42	93
58	5	44	45
59	4	44	46
60	5	46	47
61	5	48	49
62	4	48	50
63	8	50	51
64	10	51	52
65	10	51	53
66	10	51	54
67	5	55	56
68	4	55	57
69	5	57	58
70	4	57	59
71	8	59	60
72	8	60	61
73	8	60	80
74	4	61	62
75	4	61	70
76	5	62	63
77	4	62	64
78	5	64	65
79	4	64	66
80	5	66	67
81	4	66	68
82	5	68	69
83	4	68	70
84	6	70	71
85	4	71	72
86	4	71	80
87	5	72	73
88	4	72	74
89	5	74	75
90	4	74	76
91	5	76	77
92	4	76	78
93	5	78	79
94	4	78	80
95	8	81	82
96	4	81	86
97	10	82	83
98	10	82	84
99	10	82	85
100	5	86	87
101	5	88	89
102	4	88	90
103	5	90	91
104	11	93	94
105	6	93	95
106	4	95	96
107	4	95	105
108	5	96	97
109	4	96	98
110	5	98	99
111	4	98	100
112	5	100	101
113	4	100	102
114	6	102	103
115	4	102	105
116	11	103	104
117	6	103	200
118	5	105	106
119	1	107	108
120	2	107	199
121	4	108	109
122	4	108	197
123	5	109	110
124	4	109	111
125	5	111	112
126	4	111	113
127	6	113	114
128	4	113	195
129	4	114	115
130	4	114	193
131	5	115	116
132	4	115	117
133	5	117	118
134	4	117	119
135	7	119	120
136	4	119	188
137	7	120	121
138	4	121	122
139	4	121	128
140	5	122	123
141	4	122	124
142	5	124	125
143	4	124	126
144	4	126	127
145	8	126	167
146	4	127	128
147	7	127	130
148	5	128	129
149	7	130	131
150	4	131	132
151	4	131	166
152	5	132	133
153	4	132	134
154	7	134	135
155	4	134	162
156	7	135	136
157	4	136	137
158	4	136	157
159	5	137	138
160	4	137	139
161	5	139	140
162	4	139	141
163	6	141	142
164	4	141	155
165	4	142	143
166	4	142	153
167	5	143	144
168	4	143	145
169	5	145	146
170	4	145	147
171	1	147	148
172	4	147	151
173	2	148	149
174	2	148	150
175	5	151	152
176	4	151	153
177	5	153	154
178	5	155	156
179	4	155	157
180	8	157	158
181	10	158	159
182	10	158	160
183	10	158	161
184	5	162	163
185	4	162	164
186	5	164	165
187	4	164	166
188	8	166	167
189	8	167	168
190	8	167	187
191	4	168	169
192	4	168	177
193	5	169	170
194	4	169	171
195	5	171	172
196	4	171	173
197	5	173	174
198	4	173	175
199	5	175	176
200	4	175	177
201	6	177	178
202	4	178	179
203	4	178	187
204	5	179	180
205	4	179	181
206	5	181	182
207	4	181	183
208	5	183	184
209	4	183	185
210	5	185	186
211	4	185	187
212	8	188	189
213	4	188	193
214	10	189	190
215	10	189	191
216	10	189	192
217	5	193	194
218	5	195	196
219	4	195	197
220	5	197	198
221	11	200	201
222	6	200	202
223	4	202	203
224	4	202	214
225	5	203	204
226	4	203	205
227	5	205	206
228	4	205	207
229	5	207	208
230	4	207	209
231	6	209	210
232	4	209	214
233	11	210	211
234	12	210	212
235	13	212	213
236	5	214	215

Angles

1	1	39	41	44
2	4	127	128	129
3	6	168	167	187
4	1	93	95	105
5	1	74	76	78
6	1	200	202	214
7	1	126	127	130
8	4	45	44	46
9	1	142	153	151
10	4	36	37	38
11	1	3	2	90
12	1	62	64	66
13	4	108	197	198
14	4	183	185	186
15	4	204	203	205
16	4	25	26	27
17	4	134	162	163
18	1	29	30	50
19	1	35	48	50
20	1	102	103	200
21	4	3	5	6
22	4	16	18	19
23	1	111	113	195
24	1	201	200	202
25	1	177	178	179
26	1	132	131	166
27	4	12	11	13
28	1	62	61	70
29	1	14	15	16
30	1	103	102	105
31	5	210	212	213
32	6	81	82	83
33	1	98	100	102
34	6	50	51	52
35	1	131	166	164
36	6	52	51	53
37	4	7	88	89
38	1	162	164	166
39	4	131	132	133
40	4	171	173	174
41	1	121	128	127
42	6	83	82	85
43	4	30	31	32
44	4	123	122	124
45	1	41	44	46
46	1	108	197	195
47	1	111	113	114
48	4	99	98	100
49	1	100	102	105
50	4	65	64	66
51	1	57	59	60
52	4	95	96	97
53	4	165	164	166
54	6	126	167	168
55	1	31	33	35
56	6	59	60	80
57	4	186	185	187
58	4	79	78	80
59	4	74	76	77
60	4	112	111	113
61	1	115	117	119
62	1	136	157	158
63	1	16	15	22
64	1	207	209	214
65	4	81	86	87
66	1	36	35	48
67	1	135	134	162
68	1	117	119	120
69	4	173	175	176
70	1	205	207	209
71	1	120	121	128
72	1	37	36	46
73	1	61	70	71
74	4	125	124	126
75	1	15	22	21
76	1	7	8	9
77	1	30	50	51
78	1	5	7	88
79	4	147	151	152
80	4	61	62	63
81	1	33	35	48
82	1	178	179	181
83	3	41	42	43
84	4	108	109	110
85	4	8	86	87
86	4	151	153	154
87	1	55	57	59
88	1	82	81	86
89	1	113	195	197
90	4	98	100	101
91	1	179	178	187
92	4	69	68	70
93	1	14	13	81
94	6	61	60	80
95	1	66	68	70
96	4	21	22	23
97	1	96	95	105
98	1	136	157	155
99	4	152	151	153
100	4	41	44	45
101	4	121	122	123
102	6	159	158	161
103	1	169	168	177
104	4	56	55	57
105	1	7	8	86
106	1	48	50	51
107	4	19	18	20
108	1	135	136	137
109	6	126	167	187
110	1	131	166	167
111	7	21	24	25
112	1	61	70	68
113	1	39	41	42
114	4	31	33	34
115	1	20	21	24
116	4	64	66	67
117	6	157	158	161
118	1	24	25	59
119	1	104	103	200
120	4	38	37	39
121	2	2	1	107
122	1	60	80	78
123	4	208	207	209
124	1	200	202	203
125	1	109	108	197
126	4	203	205	206
127	1	30	50	48
128	5	134	135	136
129	4	163	162	164
130	1	202	214	209
131	4	110	109	111
132	6	84	82	85
133	1	142	143	145
134	1	164	166	167
135	1	26	28	55
136	6	188	189	191
137	4	95	105	106
138	4	116	115	117
139	6	190	189	192
140	1	76	78	80
141	1	141	142	153
142	5	28	29	30
143	1	71	80	78
144	1	114	193	188
145	1	135	136	157
146	4	109	111	112
147	6	160	158	161
148	1	115	114	193
149	1	60	80	71
150	1	136	137	139
151	4	15	16	17
152	4	206	205	207
153	1	128	127	130
154	1	102	103	104
155	4	72	74	75
156	1	60	61	70
157	1	137	139	141
158	4	178	179	180
159	1	113	114	193
160	4	55	57	58
161	4	113	195	196
162	4	122	124	125
163	4	196	195	197
164	1	96	98	100
165	1	168	169	171
166	1	18	20	21
167	4	146	145	147
168	2	41	42	93
169	1	2	3	5
170	4	176	175	177
171	4	102	105	106
172	1	189	188	193
173	1	167	187	185
174	6	188	189	190
175	1	207	209	210
176	6	20	60	59
177	4	202	214	215
178	6	159	158	160
179	4	49	48	50
180	4	44	46	47
181	4	73	72	74
182	1	132	134	135
183	1	148	147	151
184	1	28	55	57
185	1	132	134	162
186	6	81	82	85
187	6	50	51	54
188	3	149	148	150
189	4	121	128	129
190	1	167	187	178
191	1	42	93	95
192	4	67	66	68
193	4	62	64	65
194	1	209	210	212
195	1	117	119	188
196	1	37	39	41
197	1	68	70	71
198	6	190	189	191
199	4	76	78	79
200	1	14	15	22
201	1	36	46	44
202	1	141	142	143
203	5	119	120	121
204	1	119	188	193
205	4	114	193	194
206	4	136	137	138
207	1	169	171	173
208	4	77	76	78
209	4	35	48	49
210	4	40	39	41
211	1	29	30	31
212	1	36	37	39
213	4	180	179	181
214	1	175	177	178
215	1	183	185	187
216	1	177	178	187
217	1	178	187	185
218	4	8	9	10
219	4	17	16	18
220	4	156	155	157
221	1	167	168	177
222	1	210	209	214
223	1	120	119	188
224	4	168	169	170
225	1	13	81	82
226	1	8	7	88
227	4	162	164	165
228	4	15	22	23
229	1	179	181	183
230	1	122	121	128
231	3	2	1	92
232	6	83	82	84
233	1	16	18	20
234	1	35	36	37
235	1	9	8	86
236	4	27	26	28
237	1	70	71	80
238	1	11	13	81
239	1	95	105	102
240	6	81	82	84
241	6	50	51	53
242	1	114	115	117
243	1	13	81	86
244	6	52	51	54
245	1	126	127	128
246	4	115	117	118
247	1	131	132	134
248	4	58	57	59
249	1	11	13	14
250	1	30	31	33
251	4	144	143	145
252	1	202	203	205
253	1	145	147	151
254	4	37	39	40
255	1	33	35	36
256	1	113	114	115
257	1	1	2	3
258	1	137	136	157
259	1	143	145	147
260	4	205	207	208
261	1	155	157	158
262	1	203	202	214
263	4	138	137	139
264	1	93	95	96
265	6	59	60	61
266	4	34	33	35
267	2	1	107	108
268	4	174	173	175
269	4	169	171	172
270	1	141	155	157
271	1	94	93	95
272	4	97	96	98
273	1	119	188	189
274	4	170	169	171
275	7	127	130	131
276	4	36	46	47
277	4	63	62	64
278	1	71	72	74
279	1	21	20	60
280	1	173	175	177
281	1	168	177	175
282	1	143	142	153
283	4	184	183	185
284	4	179	181	182
285	4	66	68	69
286	3	92	1	107
287	3	147	148	150
288	1	25	59	57
289	1	147	151	153
290	1	61	62	64
291	1	142	141	155
292	1	139	141	142
293	1	145	147	148
294	1	108	109	111
295	1	130	131	166
296	1	100	102	103
297	1	167	168	169
298	4	4	3	5
299	4	114	115	116
300	1	120	121	122
301	1	181	183	185
302	4	188	193	194
303	6	126	167	166
304	4	89	88	90
305	3	1	107	199
306	6	157	158	160
307	4	209	214	215
308	4	75	74	76
309	1	42	41	44
310	6	166	167	168
311	8	211	210	212
312	1	103	200	202
313	1	139	141	155
314	6	20	60	61
315	4	140	139	141
316	4	202	203	204
317	1	121	122	124
318	1	8	9	11
319	4	118	117	119
320	4	142	143	144
321	6	191	189	192
322	1	9	11	13
323	1	31	30	50
324	1	70	71	72
325	4	2	90	91
326	1	22	21	24
327	1	130	131	132
328	4	143	145	146
329	1	8	86	81
330	4	101	100	102
331	1	124	126	127
332	1	64	66	68
333	1	107	108	197
334	4	195	197	198
335	3	43	42	93
336	1	203	205	207
337	6	53	51	54
338	4	6	5	7
339	4	10	9	11
340	4	137	139	140
341	4	141	155	156
342	6	188	189	192
343	1	25	26	28
344	1	29	28	55
345	1	124	126	167
346	4	71	72	73
347	1	2	90	88
348	4	96	98	99
349	1	134	162	164
350	1	26	28	29
351	1	109	111	113
352	4	2	3	4
353	3	147	148	149
354	1	15	16	18
355	1	3	5	7
356	4	142	153	154
357	4	88	90	91
358	1	72	71	80
359	1	18	20	60
360	1	72	74	76
361	1	24	25	26
362	1	60	61	62
363	4	172	171	173
364	4	28	55	56
365	1	127	126	167
366	1	122	124	126
367	1	168	177	178
368	1	5	7	8
369	4	181	183	184
370	1	7	88	90
371	1	114	113	195
372	4	133	132	134
373	1	20	21	22
374	6	157	158	159
375	1	35	36	46
376	4	32	31	33
377	6	166	167	187
378	1	107	108	109
379	1	171	173	175
380	6	20	60	80
381	5	13	14	15
382	1	25	59	60
383	1	42	93	94
384	1	103	200	201
385	4	182	181	183
386	1	209	210	211
387	1	26	25	59
388	4	9	11	12
389	1	1	2	90
390	3	108	107	199
391	1	95	96	98

Dihedrals

1	1	96	98	100	101
2	1	181	183	185	187
3	1	121	128	127	130
4	1	137	139	141	142
5	1	13	81	86	87
6	1	11	13	81	86
7	1	95	96	98	99
8	6	127	126	167	166
9	1	204	203	202	214
10	1	35	36	37	39
11	1	101	100	102	105
12	6	119	188	189	190
13	1	143	142	153	154
14	1	167	168	169	171
15	4	5	7	8	86
16	1	139	137	136	157
17	1	142	153	151	152
18	12	211	210	209	214
19	1	93	95	96	97
20	1	15	16	18	20
21	1	25	26	28	29
22	1	14	13	81	82
23	6	136	157	158	160
24	5	119	120	121	128
25	4	61	70	71	72
26	1	137	139	141	155
27	1	206	205	207	209
28	1	112	111	113	114
29	1	204	203	205	207
30	12	100	102	103	104
31	6	48	50	51	53
32	1	7	8	86	81
33	1	3	2	90	91
34	1	196	195	197	198
35	1	171	169	168	177
36	1	137	136	157	158
37	1	26	25	59	57
38	6	20	60	61	62
39	1	34	33	35	48
40	1	108	109	111	113
41	1	10	9	11	12
42	1	110	109	111	112
43	1	14	15	22	23
44	4	168	177	178	187
45	1	168	177	175	173
46	1	19	18	20	21
47	1	179	181	183	185
48	4	68	70	71	80
49	1	131	132	134	135
50	1	141	142	153	154
51	1	100	102	105	106
52	1	131	132	134	162
53	1	122	121	128	129
54	1	189	188	193	194
55	5	136	135	134	162
56	1	163	162	164	166
57	1	169	168	177	175
58	1	98	96	95	105
59	1	75	74	76	77
60	1	120	121	128	129
61	1	145	147	151	152
62	12	201	200	202	214
63	1	73	72	74	75
64	1	171	173	175	176
65	1	135	136	157	158
66	1	142	141	155	156
67	1	89	88	90	91
68	6	169	168	167	187
69	1	107	108	109	110
70	1	32	31	33	34
71	1	116	115	117	119
72	1	1	2	3	4
73	1	134	162	164	166
74	5	13	14	15	22
75	1	99	98	100	101
76	1	4	3	5	6
77	1	7	8	9	11
78	1	146	145	147	148
79	5	28	29	30	31
80	1	40	39	41	44
81	1	116	115	114	193
82	2	39	41	42	43
83	1	202	203	205	207
84	1	118	117	119	120
85	1	114	113	195	196
86	1	70	71	80	78
87	1	36	37	39	41
88	1	35	36	46	47
89	1	174	173	175	176
90	1	5	3	2	90
91	1	182	181	183	184
92	1	16	18	20	21
93	4	9	8	7	88
94	1	170	169	168	177
95	1	203	205	207	209
96	1	17	16	18	20
97	1	39	37	36	46
98	1	123	122	124	126
99	2	109	108	107	199
100	1	140	139	141	142
101	1	178	179	181	182
102	1	169	168	177	178
103	1	5	7	88	89
104	1	144	143	142	153
105	12	94	93	95	96
106	1	181	183	185	186
107	1	64	62	61	70
108	6	13	81	82	85
109	1	8	86	81	82
110	6	59	60	80	78
111	12	105	102	103	200
112	6	18	20	60	61
113	1	7	8	86	87
114	1	113	195	197	198
115	1	208	207	209	214
116	1	1	2	90	88
117	6	30	50	51	52
118	1	184	183	185	187
119	1	35	36	37	38
120	2	90	2	1	107
121	16	211	210	212	213
121	17	211	210	212	213
122	1	60	80	71	70
123	1	33	35	48	50
124	12	207	209	210	212
125	1	18	16	15	22
126	1	25	26	28	55
127	1	136	137	139	140
128	1	167	168	169	170
129	1	177	178	179	180
130	1	114	193	188	119
131	1	16	15	22	23
132	1	115	117	119	188
133	1	45	44	46	47
134	1	72	74	76	78
135	1	3	5	7	8
136	1	15	16	18	19
137	1	24	25	26	27
138	1	60	61	62	63
139	1	61	62	64	65
140	1	140	139	141	155
141	1	142	143	145	147
142	6	155	157	158	161
143	1	170	169	171	173
144	6	136	157	158	159
145	1	143	145	147	148
146	1	9	11	13	14
147	1	135	136	157	155
148	1	169	171	173	175
149	6	59	60	80	71
150	1	15	22	21	24
151	1	39	41	44	45
152	6	59	60	61	70
153	6	191	189	188	193
154	2	44	41	42	93
155	1	109	108	197	198
156	7	21	24	25	59
157	2	3	2	1	107
158	1	136	157	155	156
159	1	163	162	164	165
160	1	167	168	177	175
161	4	5	7	8	9
162	6	70	61	60	80
163	6	20	60	59	25
164	4	139	141	142	143
165	1	180	179	178	187
166	1	172	171	173	174
167	1	124	126	127	130
168	1	141	142	143	145
169	1	66	68	70	71
170	1	103	102	105	106
171	5	11	13	14	15
172	1	11	13	81	82
173	4	193	114	113	195
174	6	126	167	168	177
175	1	177	178	187	185
176	1	31	33	35	36
177	1	148	147	151	152
178	6	124	126	167	168
179	6	166	167	187	185
180	1	168	177	175	176
181	4	168	177	178	179
182	1	156	155	157	158
183	1	60	61	70	68
184	1	98	100	102	103
185	5	30	29	28	55
186	1	17	16	18	19
187	1	97	96	98	100
188	1	165	164	166	167
189	1	18	20	21	22
190	1	28	55	57	58
191	4	68	70	71	72
192	1	210	209	214	215
193	2	39	41	42	93
194	6	18	20	60	80
195	5	134	135	136	137
196	1	135	136	137	139
197	6	13	81	82	84
198	1	122	124	126	127
199	1	23	22	21	24
200	10	43	42	93	95
200	11	43	42	93	95
201	1	184	183	185	186
202	6	83	82	81	86
203	1	146	145	147	151
204	1	33	35	48	49
205	6	164	166	167	187
206	1	167	187	178	179
207	1	56	55	57	59
208	1	2	3	5	6
209	1	135	134	162	164
210	1	37	39	41	44
211	1	109	108	197	195
212	1	62	61	70	68
213	6	166	167	187	178
214	1	205	207	209	214
215	1	138	137	139	141
216	1	2	90	88	89
217	1	32	31	30	50
218	1	142	143	145	146
219	6	155	157	158	160
220	5	26	28	29	30
221	1	115	117	119	120
222	8	41	42	93	94
222	9	41	42	93	94
223	1	63	62	64	65
224	1	131	166	164	162
225	5	132	134	135	136
226	1	119	188	193	194
227	1	113	114	115	116
228	3	92	1	107	199
229	4	115	114	113	195
230	1	128	127	126	167
231	1	122	124	126	167
232	1	6	5	7	88
233	5	134	135	136	157
234	4	37	36	35	48
235	1	169	171	173	174
236	6	126	167	166	131
237	6	190	189	188	193
238	6	127	126	167	168
239	1	114	193	188	189
240	7	127	130	131	166
241	1	8	9	11	13
242	4	33	35	36	37
243	1	96	95	105	106
244	1	132	134	162	163
245	6	21	20	60	80
246	1	200	202	214	215
247	1	6	5	7	8
248	12	100	102	103	200
249	1	20	21	22	23
250	1	77	76	78	80
251	6	20	60	80	78
252	1	178	187	185	186
253	4	139	141	142	153
254	1	143	145	147	151
255	6	166	167	168	177
256	1	1	2	90	91
257	1	29	30	31	32
258	1	111	109	108	197
259	1	133	132	131	166
260	12	201	200	202	203
261	6	57	59	60	61
262	1	49	48	50	51
263	1	82	81	86	87
264	1	120	119	188	193
265	1	208	207	209	210
266	1	74	76	78	80
267	1	36	35	48	49
268	7	127	130	131	132
269	1	126	127	128	129
270	1	40	39	41	42
271	6	124	126	167	187
272	6	119	188	189	192
273	7	20	21	24	25
274	1	123	122	121	128
275	1	97	96	98	99
276	5	15	14	13	81
277	1	4	3	2	90
278	1	139	141	155	157
279	1	30	31	33	34
280	6	126	167	187	185
281	1	36	46	44	45
282	1	24	21	20	60
283	12	94	93	95	105
284	6	20	60	80	71
285	1	167	168	177	178
286	7	128	127	130	131
287	1	135	136	137	138
288	1	130	127	126	167
289	1	3	5	7	88
290	6	126	167	166	164
291	13	43	42	93	94
291	14	43	42	93	94
292	1	15	22	21	20
293	1	27	26	28	29
294	1	31	30	50	51
295	1	9	11	13	81
296	1	41	44	46	47
297	1	71	72	74	76
298	1	121	122	124	126
299	1	130	131	132	134
300	1	132	131	166	167
301	6	131	166	167	168
302	1	138	137	136	157
303	1	95	105	102	103
304	1	70	71	72	74
305	1	60	61	70	71
306	1	181	179	178	187
307	1	34	33	35	36
308	6	177	168	167	187
309	1	8	7	88	90
310	1	8	86	81	13
311	6	155	157	158	159
312	2	3	2	1	92
313	1	25	59	57	58
314	5	117	119	120	121
315	1	111	113	195	197
316	6	126	167	187	178
317	1	178	187	185	183
318	1	29	30	50	51
319	1	136	157	155	141
320	1	96	98	100	102
321	1	206	205	207	208
322	1	204	203	205	206
323	1	17	16	15	22
324	2	1	107	108	197
325	6	48	50	51	52
326	1	176	175	177	178
327	6	30	50	51	54
328	12	42	93	95	96
329	2	149	148	147	151
330	1	60	80	71	72
331	1	67	66	68	70
332	4	175	177	178	187
333	6	20	60	61	70
334	1	65	64	66	68
335	1	7	8	9	10
336	7	22	21	24	25
337	1	8	9	11	12
338	1	125	124	126	127
339	1	108	109	111	112
340	1	203	202	214	209
341	6	192	189	188	193
342	7	126	127	130	131
343	1	168	169	171	173
344	1	93	95	105	106
345	1	62	61	70	71
346	1	179	178	187	185
347	6	21	20	60	59
348	1	179	181	183	184
349	1	131	166	164	165
350	1	180	179	181	183
351	4	46	36	35	48
352	12	104	103	200	202
353	6	136	157	158	161
354	6	57	59	60	80
355	3	92	1	107	108
356	1	116	115	117	118
357	1	117	115	114	193
358	1	19	18	20	60
359	1	134	162	164	165
360	1	74	76	78	79
361	1	202	214	209	207
362	1	125	124	126	167
363	1	14	15	16	18
364	1	31	30	50	48
365	1	167	187	185	183
366	1	141	155	157	158
367	1	202	203	205	206
368	1	132	131	166	164
369	1	95	105	102	100
370	1	205	207	209	210
371	1	36	37	39	40
372	1	203	205	207	208
373	6	62	61	60	80
374	1	113	114	193	188
375	1	123	122	124	125
376	1	139	141	155	156
377	12	103	200	202	214
378	1	25	59	57	55
379	1	27	26	25	59
380	12	103	200	202	203
381	1	29	30	50	48
382	1	60	80	78	79
383	5	119	120	121	122
384	5	28	29	30	50
385	1	120	119	188	189
386	1	171	173	175	177
387	2	43	42	41	44
388	1	107	108	109	111
389	1	32	31	33	35
390	1	35	48	50	51
391	1	9	8	86	81
392	1	1	2	3	5
393	2	1	107	108	109
394	1	130	131	166	164
395	1	16	18	20	60
396	1	99	98	100	102
397	1	10	9	8	86
398	1	101	100	102	103
399	1	108	197	195	113
400	6	131	166	167	187
401	1	203	202	214	215
402	12	207	209	210	211
403	1	71	72	74	75
404	1	121	122	124	125
405	1	130	131	132	133
406	1	2	90	88	7
407	1	96	95	105	102
408	1	114	115	117	119
409	6	84	82	81	86
410	1	72	74	76	77
411	1	117	119	188	189
412	1	145	143	142	153
413	1	98	100	102	105
414	1	33	31	30	50
415	4	143	142	141	155
416	1	8	7	88	89
417	1	18	20	21	24
418	1	170	169	171	172
419	1	5	7	88	90
420	1	111	113	195	196
421	2	145	147	148	150
422	1	200	202	203	205
423	1	29	28	55	57
424	1	120	121	122	124
425	6	30	50	51	53
426	1	73	72	71	80
427	1	67	66	68	69
428	5	13	14	15	16
429	1	65	64	66	67
430	1	136	137	139	141
431	3	2	1	107	108
432	1	177	178	179	181
433	1	168	169	171	172
434	1	72	71	80	78
435	1	14	15	22	21
436	1	24	25	26	28
437	1	60	61	62	64
438	1	61	62	64	66
439	1	62	64	66	68
440	1	37	36	46	44
441	1	180	179	181	182
442	12	104	103	200	201
443	1	36	46	44	41
444	1	122	121	128	127
445	1	107	108	197	195
446	1	60	80	78	76
447	1	120	121	128	127
448	1	9	8	86	87
449	1	133	132	134	135
450	1	141	142	143	144
451	1	133	132	134	162
452	4	33	35	36	46
453	1	39	41	44	46
454	4	175	177	178	179
455	2	90	2	1	92