Title

100 atoms
101 bonds
192 angles
398 dihedrals
18 impropers

11 atom types
14 bond types
9 angle types
35 dihedral types
3 improper types
-3.375 96.625 xlo xhi
-3.025000095 96.9749999 ylo yhi
-2.822999954 97.17700005 zlo zhi
0.0 0.0 0.0 xy xz yz

Masses

1	12.01078
2	15.99943
3	14.00672
4	12.01078
5	1.007947
6	1.007947
7	1.007947
8	15.99943
9	12.01078
10	15.99943
11	1.007947


Pair Coeffs

1	0.086879315	3.4806469
2	0.2102061	3.0398122
3	0.16769152	3.206876
4	0.10884061	3.3795318
5	0.015779483	2.6445434
6	0.014090815	1.1034277
7	0.016409246	2.5832257
8	0.16846514	3.0251065
9	0.21	3.3996695
10	0.20947353	2.99716
11	1.2326e-05	0.53453923

Bond Coeffs

1 harmonic	582.698766451	1.225198386222
2 harmonic	492.76746816345	1.381897776683
3 harmonic	279.1350963404	1.454628925034
4 harmonic	352.0565580496	1.450098586273
5 harmonic	505.144496193	1.019481865027
6 harmonic	264.62148576755	1.52190126495
7 harmonic	370.04670688625	1.093899492634
8 harmonic	301.15400723785	1.345741232799
9 harmonic	366.7408841747	1.425895053732
10 harmonic	300.03137914615	1.451203938761
11 harmonic	366.34047229585	1.464762957261
12 harmonic	602.81384337	1.196112346392
13 harmonic	329.96998057905	1.427343958716
14 harmonic	543.5267831885	0.9716763312559


Angle Coeffs

1 harmonic	55.42182150775	117.3465570514
2 harmonic	63.44422595415	115.5071327674
3 harmonic	57.8982893754	126.8062420451
4 harmonic	53.20531626545	116.5475862634
5 harmonic	48.776492647595	115.6030999533
6 harmonic	65.09061609600001	110.3538806181
7 harmonic	201.41175231035	127.4691416191
8 harmonic	55.07882548015	112.8714009681
9 harmonic	33.56981613361	180


Dihedral Coeffs

1 fourier 1	-0.1488678166443	4	180
2 fourier 1	-0.1230328948768	3	180
3 fourier 1	0.2939295466901	2	0
4 fourier 1	-0.3024127022865	1	0
5 fourier 1	0.182238503271	2	0
6 fourier 1	0.02972342374561	3	0
7 fourier 1	1.809047390003	2	180
8 fourier 1	-0.04816277792592	1	0
9 fourier 1	3.101948770557	2	180
10 fourier 1	-0.4252153282372	1	0
11 fourier 1	2.348375642009	2	180
12 fourier 1	1.256156174911	1	0
13 fourier 1	0.9974165607242	2	180
14 fourier 1	0.1155372516788	3	0
15 fourier 1	0.1040663847541	3	0
16 fourier 1	0.09223874044423	3	0
17 fourier 1	0.3159935921949	2	180
18 fourier 1	0.3247796806857	1	180
19 fourier 1	0.1911926717192	3	0
20 fourier 1	2.779853741805	2	180
21 fourier 1	0.1918272375143	3	0
22 fourier 1	0.9202179876409	1	180
23 fourier 1	0.0473758381877	3	0
24 fourier 1	0.4860993122944	2	180
25 fourier 1	0.8916986138746	1	0
26 fourier 1	1.163809172478	2	180
27 fourier 1	0.1679186987369	1	180
28 fourier 1	0.1115525666802	3	0
29 fourier 1	0.3432490222662	1	0
30 fourier 1	0.457973137376	1	0
31 fourier 1	-1.382973039546	1	0
32 fourier 1	0	1	0
33 fourier 1	0.3445382149273	3	0
34 fourier 1	0.1364556373303	1	0
35 fourier 1	0.3026390167484	3	0


Improper Coeffs

1 0.3333333333333333	-1	2
2 0.3666666666666667	-1	2
3 3.5	-1	2


Atoms

1	1	1	0.54351598	4.0289998	0.48899999	1.378
2	1	2	-0.68667102	4.243	-0.71499997	1.679
3	1	3	-0.489499	2.914	0.85399997	0.56
4	1	4	-0.000139	1.977	-0.15700001	0.055
5	1	4	-0.0081930002	0.87	0.421	-0.88499999
6	1	4	-0.16983099	1.567	1.123	-2.082
7	1	5	0.073143996	2.2520001	0.419	-2.602
8	1	5	0.073143996	0.82099998	1.485	-2.823
9	1	5	0.073143996	2.151	2.0090001	-1.763
10	1	4	-0.204936	-0.037	1.4579999	-0.167
11	1	5	0.112139	0.574	2.2349999	0.338
12	1	5	0.112139	-0.65399998	1.99	-0.92699999
13	1	4	0.12822901	-0.98799998	0.82499999	0.86299998
14	1	3	-0.51711798	-1.8049999	1.867	1.4960001
15	1	1	0.80955398	-2.503	1.655	2.7279999
16	1	2	-0.60475099	-2.428	0.55299997	3.3340001
17	1	6	0.31592199	-1.867	2.8169999	1.064
18	1	7	0.046974	-0.382	0.33899999	1.655
19	1	4	-0.20854101	-1.905	-0.20100001	0.17399999
20	1	5	0.113678	-2.5439999	0.345	-0.55699998
21	1	5	0.113678	-2.5910001	-0.65200001	0.926
22	1	4	-0.027930001	-1.128	-1.3279999	-0.55500001
23	1	4	-0.171588	-2.1259999	-2.092	-1.46
24	1	5	0.076197997	-1.614	-2.924	-1.99
25	1	5	0.076197997	-2.575	-1.419	-2.2219999
26	1	5	0.076197997	-2.9590001	-2.52	-0.86000001
27	1	4	-0.171588	-0.56800002	-2.3559999	0.463
28	1	5	0.076197997	-0.152	-1.8839999	1.37
29	1	5	0.076197997	0.212	-2.9949999	-0.0040000002
30	1	5	0.076197997	-1.375	-3.0250001	0.833
31	1	4	-0.21078099	-0.011	-0.73100001	-1.473
32	1	5	0.113866	-0.51999998	-0.32600001	-2.378
33	1	5	0.113866	0.64200002	-1.549	-1.851
34	1	7	0.070262	2.556	-0.926	-0.50099999
35	1	7	0.070262	1.536	-0.66000003	0.92799997
36	1	6	0.316659	2.7869999	1.869	0.36199999
37	1	8	-0.49803701	-3.075	2.4200001	3.132
38	1	4	0.117025	-2.6010001	3.615	2.573
39	1	4	-0.136308	-1.298	4.039	3.2609999
40	1	4	-0.143516	-0.62300003	5.244	2.5840001
41	1	4	0.035309002	-1.382	6.5609999	2.783
42	1	8	-0.165093	-2.4779999	6.6269999	1.913
43	1	7	0.087562002	-0.69199997	7.4050002	2.5610001
44	1	7	0.087562002	-1.721	6.6560001	3.839
45	1	5	0.095597997	0.38800001	5.3610001	3.0320001
46	1	5	0.095597997	-0.479	5.046	1.499
47	1	5	0.094489999	-0.58600003	3.1849999	3.227
48	1	5	0.094489999	-1.4960001	4.2639999	4.3319998
49	1	7	0.087531999	-2.4419999	3.4909999	1.477
50	1	7	0.087531999	-3.375	4.395	2.7249999
51	1	1	0.55617899	4.698	1.256	1.745
52	1	2	-0.67607802	4.2490001	2.158	2.5009999
53	1	3	-0.56821197	6.0770001	1.2359999	1.36
54	1	4	0.12605301	7.0419998	2.2379999	1.83
55	1	7	0.044836	6.5580001	3.2320001	1.76
56	1	4	-0.20964999	7.4299998	1.9349999	3.289
57	1	5	0.113678	6.52	1.96	3.928
58	1	5	0.113678	7.8239999	0.89399999	3.3299999
59	1	4	-0.028464001	8.4890003	2.9130001	3.862
60	1	4	-0.171588	9.0039997	2.3329999	5.2010002
61	1	5	0.076197997	9.7609997	3.0090001	5.6550002
62	1	5	0.076197997	8.1709995	2.2049999	5.9260001
63	1	5	0.076197997	9.4759998	1.337	5.053
64	1	4	-0.171588	7.8559999	4.29	4.1830001
65	1	5	0.076197997	7.23	4.6789999	3.365
66	1	5	0.076197997	7.1830001	4.2140002	5.0640001
67	1	5	0.076197997	8.6420002	5.039	4.4190001
68	1	4	-0.209466	9.7060003	3.0380001	2.8929999
69	1	5	0.112552	10.292	2.095	2.9849999
70	1	5	0.112552	10.391	3.8369999	3.25
71	1	4	0.024623999	9.3879995	3.2290001	1.373
72	1	4	-0.168367	10.675	2.908	0.57099998
73	1	5	0.069715999	10.5	3.0209999	-0.52100003
74	1	5	0.069715999	11.504	3.5880001	0.86500001
75	1	5	0.069715999	11.011	1.864	0.75199997
76	1	4	0.14346901	8.9680004	4.684	1.0089999
77	1	3	-0.62514102	9.9189997	5.6589999	1.533
78	1	9	0.60071701	9.7629995	6.9060001	1.335
79	1	2	-0.46416199	9.6110001	8.1190004	1.142
80	1	7	0.068963997	7.9569998	4.9299998	1.372
81	1	7	0.068963997	8.9189997	4.7880001	-0.098999999
82	1	4	-0.206017	8.2919998	2.2219999	0.93099999
83	1	5	0.112015	8.7130003	1.191	0.94199997
84	1	5	0.112015	7.987	2.4349999	-0.118
85	1	6	0.312875	6.3790002	0.49200001	0.69099998
86	1	8	-0.165093	-2.931	7.4889998	2.105
87	1	4	0.035420999	-2.138	8.4960003	1.538
88	1	4	-0.137778	-0.92299998	8.776	2.431
89	1	4	-0.164829	0.086999997	9.7410002	1.788
90	1	4	0.088885002	-0.421	11.185	1.696
91	1	10	-0.67944598	-1.306	11.322	0.62
92	1	11	0.385833	-1.608	12.267	0.63
93	1	7	0.078947999	0.45100001	11.858	1.536
94	1	7	0.078947999	-0.91900003	11.48	2.6470001
95	1	5	0.098061003	1.003	9.7410002	2.4189999
96	1	5	0.098061003	0.38299999	9.3760004	0.78100002
97	1	5	0.095772997	-0.40000001	7.8140001	2.6270001
98	1	5	0.095772997	-1.263	9.1759996	3.411
99	1	7	0.087562002	-1.811	8.198	0.51499999
100	1	7	0.087562002	-2.757	9.4119997	1.452

Bonds

1	1	1	2
2	2	1	3
3	3	1	51
4	4	3	4
5	5	3	36
6	6	4	5
7	7	4	34
8	7	4	35
9	6	5	6
10	6	5	10
11	6	5	31
12	7	6	7
13	7	6	8
14	7	6	9
15	7	10	11
16	7	10	12
17	6	10	13
18	4	13	14
19	7	13	18
20	6	13	19
21	2	14	15
22	5	14	17
23	1	15	16
24	8	15	37
25	7	19	20
26	7	19	21
27	6	19	22
28	6	22	23
29	6	22	27
30	6	22	31
31	7	23	24
32	7	23	25
33	7	23	26
34	7	27	28
35	7	27	29
36	7	27	30
37	7	31	32
38	7	31	33
39	9	37	38
40	6	38	39
41	7	38	49
42	7	38	50
43	6	39	40
44	7	39	47
45	7	39	48
46	6	40	41
47	7	40	45
48	7	40	46
49	9	41	42
50	7	41	43
51	7	41	44
52	10	42	86
53	1	51	52
54	2	51	53
55	4	53	54
56	5	53	85
57	7	54	55
58	6	54	56
59	6	54	82
60	7	56	57
61	7	56	58
62	6	56	59
63	6	59	60
64	6	59	64
65	6	59	68
66	7	60	61
67	7	60	62
68	7	60	63
69	7	64	65
70	7	64	66
71	7	64	67
72	7	68	69
73	7	68	70
74	6	68	71
75	6	71	72
76	6	71	76
77	6	71	82
78	7	72	73
79	7	72	74
80	7	72	75
81	11	76	77
82	7	76	80
83	7	76	81
84	12	77	78
85	1	78	79
86	7	82	83
87	7	82	84
88	9	86	87
89	6	87	88
90	7	87	99
91	7	87	100
92	6	88	89
93	7	88	97
94	7	88	98
95	6	89	90
96	7	89	95
97	7	89	96
98	13	90	91
99	7	90	93
100	7	90	94
101	14	91	92

Angles

1	3	14	15	37
2	4	71	72	74
3	4	55	54	56
4	4	41	40	45
5	4	27	22	31
6	4	40	41	44
7	4	87	88	97
8	4	10	13	14
9	4	3	4	35
10	4	56	59	68
11	3	1	51	52
12	4	59	68	69
13	5	24	23	25
14	5	93	90	94
15	5	99	87	100
16	4	77	76	81
17	4	13	19	20
18	4	37	38	39
19	2	54	53	85
20	4	69	68	71
21	4	22	23	24
22	4	5	4	35
23	4	57	56	59
24	4	70	68	71
25	4	91	90	94
26	5	66	64	67
27	4	87	88	98
28	5	20	19	21
29	4	40	41	42
30	4	54	82	83
31	3	3	1	51
32	4	37	38	50
33	5	57	56	58
34	4	59	60	61
35	5	74	72	75
36	4	89	90	94
37	4	19	22	27
38	4	59	64	67
39	4	13	19	22
40	5	97	88	98
41	5	47	39	48
42	4	90	89	96
43	1	13	14	15
44	6	15	37	38
45	4	71	82	84
46	4	54	56	57
47	4	22	23	26
48	4	5	4	34
49	4	39	40	45
50	4	71	72	75
51	4	53	54	55
52	2	4	3	36
53	4	39	38	49
54	4	87	88	89
55	4	71	76	81
56	5	8	6	9
57	5	43	41	44
58	4	10	13	19
59	4	86	87	99
60	4	88	89	96
61	4	6	5	10
62	4	54	82	71
63	4	23	22	31
64	4	22	31	33
65	5	61	60	62
66	4	14	13	18
67	4	10	5	31
68	4	10	13	18
69	4	42	41	43
70	4	22	31	32
71	4	59	68	70
72	5	29	27	30
73	4	88	89	90
74	4	39	40	41
75	4	89	88	98
76	4	22	27	29
77	5	7	6	9
78	4	71	76	77
79	4	59	60	62
80	4	53	54	82
81	5	62	60	63
82	4	76	71	82
83	4	91	90	93
84	4	19	22	23
85	2	51	53	85
86	4	3	4	34
87	4	54	82	84
88	5	24	23	26
89	4	88	87	100
90	4	3	4	5
91	5	49	38	50
92	4	64	59	68
93	4	38	39	40
94	7	16	15	37
95	4	53	54	56
96	4	38	39	47
97	4	5	10	11
98	5	73	72	74
99	4	89	90	93
100	5	83	82	84
101	4	60	59	64
102	3	1	51	53
103	4	5	31	22
104	5	45	40	46
105	4	14	13	19
106	4	22	27	30
107	4	13	19	21
108	4	12	10	13
109	2	15	14	17
110	5	34	4	35
111	5	61	60	63
112	4	20	19	22
113	4	60	59	68
114	4	5	31	33
115	6	42	86	87
116	4	22	23	25
117	4	59	68	71
118	4	42	41	44
119	4	19	22	31
120	4	72	71	76
121	5	95	89	96
122	4	5	6	7
123	5	65	64	66
124	4	71	76	80
125	4	4	5	10
126	4	86	87	88
127	4	22	27	28
128	4	59	60	63
129	4	5	6	9
130	4	54	56	58
131	4	5	10	13
132	4	23	22	27
133	4	39	38	50
134	4	77	76	80
135	4	59	64	65
136	5	25	23	26
137	5	28	27	29
138	4	72	71	82
139	4	41	40	46
140	4	56	54	82
141	4	68	71	72
142	4	4	5	6
143	4	71	72	73
144	4	5	10	12
145	5	73	72	75
146	4	88	89	95
147	4	38	39	48
148	6	41	42	86
149	4	68	71	76
150	4	5	6	8
151	1	1	3	4
152	4	37	38	49
153	4	21	19	22
154	4	40	39	47
155	3	2	1	51
156	5	7	6	8
157	4	86	87	100
158	4	40	41	43
159	4	58	56	59
160	4	89	90	91
161	3	14	15	16
162	5	32	31	33
163	3	2	1	3
164	5	28	27	30
165	5	65	64	67
166	2	1	3	36
167	5	80	76	81
168	4	54	56	59
169	4	6	5	31
170	4	68	71	82
171	5	69	68	70
172	4	5	31	32
173	9	77	78	79
174	4	11	10	13
175	4	4	5	31
176	2	13	14	17
177	4	39	40	46
178	4	55	54	82
179	4	71	82	83
180	4	90	89	95
181	5	11	10	12
182	4	88	87	99
183	4	59	64	66
184	4	18	13	19
185	4	56	59	64
186	1	51	53	54
187	6	90	91	92
188	4	89	88	97
189	4	56	59	60
190	3	52	51	53
191	8	76	77	78
192	4	40	39	48

Dihedrals

1	15	10	13	19	20
2	15	19	22	27	30
3	19	97	88	87	100
4	15	88	89	90	93
5	15	58	56	59	68
6	16	6	5	10	13
6	17	6	5	10	13
6	18	6	5	10	13
7	15	56	59	60	62
8	19	46	40	39	47
9	5	51	53	54	55
9	6	51	53	54	55
10	15	75	72	71	82
11	16	59	56	54	82
11	17	59	56	54	82
11	18	59	56	54	82
12	28	86	87	88	98
12	29	86	87	88	98
13	19	55	54	56	57
14	15	10	5	31	33
15	15	40	39	38	50
16	15	4	5	6	7
17	16	56	54	82	71
17	17	56	54	82	71
17	18	56	54	82	71
18	9	2	1	3	4
18	10	2	1	3	4
19	14	14	13	19	20
20	15	6	5	10	12
21	15	81	76	71	82
22	15	4	5	31	33
23	15	10	5	31	32
24	15	19	22	31	32
25	19	45	40	39	48
26	32	76	77	78	79
27	14	37	38	39	40
28	23	15	37	38	49
29	16	4	5	10	13
29	17	4	5	10	13
29	18	4	5	10	13
30	15	8	6	5	31
31	14	53	54	82	83
32	15	4	5	6	9
33	28	37	38	39	47
33	29	37	38	39	47
34	14	72	71	76	77
35	15	73	72	71	82
36	19	98	88	87	100
37	15	68	71	82	84
38	15	19	22	27	29
39	11	2	1	3	36
39	12	2	1	3	36
40	16	10	13	19	22
40	17	10	13	19	22
40	18	10	13	19	22
41	15	56	59	64	66
42	28	42	41	40	46
42	29	42	41	40	46
43	1	10	13	14	15
43	2	10	13	14	15
43	3	10	13	14	15
43	4	10	13	14	15
44	15	21	19	22	31
45	15	68	71	72	75
46	14	86	87	88	89
47	19	94	90	89	95
48	16	6	5	31	22
48	17	6	5	31	22
48	18	6	5	31	22
49	28	91	90	89	96
49	29	91	90	89	96
50	15	68	71	76	81
51	23	42	86	87	88
52	1	51	53	54	82
52	2	51	53	54	82
52	3	51	53	54	82
52	4	51	53	54	82
53	15	10	5	4	34
54	14	11	10	13	14
55	7	36	3	1	51
55	8	36	3	1	51
56	15	31	5	4	35
57	19	55	54	82	83
58	15	63	60	59	64
59	14	3	4	5	10
60	19	44	41	40	46
61	19	12	10	13	18
62	15	26	23	22	31
63	15	6	5	4	35
64	14	14	13	19	22
65	7	4	3	1	51
65	8	4	3	1	51
66	15	27	22	31	33
67	15	6	5	31	33
68	19	43	41	40	45
69	19	11	10	13	18
70	16	13	19	22	27
70	17	13	19	22	27
70	18	13	19	22	27
71	16	54	82	71	68
71	17	54	82	71	68
71	18	54	82	71	68
72	20	14	15	37	38
73	16	5	31	22	19
73	17	5	31	22	19
73	18	5	31	22	19
74	15	56	59	68	69
75	15	89	88	87	99
76	14	53	54	82	71
77	15	25	23	22	31
78	15	63	60	59	68
79	15	24	23	22	27
80	15	56	59	60	63
81	19	48	39	38	50
82	33	89	90	91	92
82	34	89	90	91	92
83	23	44	41	42	86
84	19	46	40	39	48
85	15	74	72	71	76
86	1	51	53	54	56
86	2	51	53	54	56
86	3	51	53	54	56
86	4	51	53	54	56
87	15	73	72	71	76
88	15	76	71	82	84
89	15	60	59	64	65
90	5	82	54	53	85
90	6	82	54	53	85
91	19	47	39	38	49
92	5	15	14	13	18
92	6	15	14	13	18
93	14	53	54	56	59
94	16	54	82	71	72
94	17	54	82	71	72
94	18	54	82	71	72
95	15	7	6	5	31
96	16	87	88	89	90
96	17	87	88	89	90
96	18	87	88	89	90
97	14	68	71	76	77
98	15	60	59	64	66
99	15	72	71	76	80
100	19	93	90	89	95
101	16	5	31	22	27
101	17	5	31	22	27
101	18	5	31	22	27
102	15	19	22	23	25
103	15	31	5	4	34
104	14	88	89	90	91
105	15	55	54	82	71
106	30	41	42	86	87
107	15	62	60	59	64
108	15	69	68	71	72
109	16	54	82	71	76
109	17	54	82	71	76
109	18	54	82	71	76
110	28	37	38	39	48
110	29	37	38	39	48
111	13	2	1	51	52
112	14	53	54	56	58
113	16	59	68	71	72
113	17	59	68	71	72
113	18	59	68	71	72
114	15	39	40	41	43
115	15	19	22	27	28
116	15	38	39	40	46
117	15	74	72	71	82
118	15	56	59	64	67
119	15	23	22	27	30
120	16	64	59	68	71
120	17	64	59	68	71
120	18	64	59	68	71
121	13	3	1	51	52
122	15	4	5	31	32
123	15	62	60	59	68
124	15	69	68	71	76
125	14	53	54	82	84
126	16	59	68	71	76
126	17	59	68	71	76
126	18	59	68	71	76
127	15	90	89	88	97
128	15	12	10	13	19
129	15	12	10	5	31
130	21	15	37	38	39
130	22	15	37	38	39
131	15	20	19	22	27
132	15	57	56	54	82
133	15	11	10	13	19
134	31	78	77	76	81
135	15	67	64	59	68
136	15	11	10	5	31
137	16	13	19	22	23
137	17	13	19	22	23
137	18	13	19	22	23
138	15	7	6	5	10
139	19	18	13	19	20
140	23	42	86	87	99
141	14	39	40	41	42
142	5	55	54	53	85
142	6	55	54	53	85
143	15	10	13	19	21
144	19	96	89	88	97
145	28	42	41	40	45
145	29	42	41	40	45
146	1	15	14	13	19
146	2	15	14	13	19
146	3	15	14	13	19
146	4	15	14	13	19
147	15	87	88	89	96
148	19	55	54	82	84
149	35	92	91	90	94
150	15	21	19	22	23
151	15	4	5	6	8
152	9	52	51	53	54
152	10	52	51	53	54
153	15	69	68	71	82
154	19	97	88	87	99
155	23	15	37	38	50
156	15	23	22	27	29
157	15	27	22	31	32
158	16	59	68	71	82
158	17	59	68	71	82
158	18	59	68	71	82
159	15	68	71	76	80
160	31	71	76	77	78
161	15	6	5	31	32
162	5	17	14	13	19
162	6	17	14	13	19
163	5	35	4	3	36
163	6	35	4	3	36
164	15	56	59	68	70
165	15	41	40	39	47
166	15	60	59	64	67
167	16	5	31	22	23
167	17	5	31	22	23
167	18	5	31	22	23
168	15	8	6	5	10
169	14	14	13	19	21
170	7	13	14	15	16
170	8	13	14	15	16
171	14	3	4	5	6
172	15	9	6	5	31
173	5	1	3	4	35
173	6	1	3	4	35
174	14	5	10	13	14
175	15	66	64	59	68
176	15	75	72	71	76
177	26	16	15	37	38
177	27	16	15	37	38
178	5	17	14	13	18
178	6	17	14	13	18
179	15	18	13	19	22
180	15	19	22	23	24
181	15	70	68	71	76
182	19	96	89	88	98
183	15	25	23	22	27
184	15	39	40	41	44
185	15	6	5	4	34
186	16	13	19	22	31
186	17	13	19	22	31
186	18	13	19	22	31
187	5	34	4	3	36
187	6	34	4	3	36
188	28	91	90	89	95
188	29	91	90	89	95
189	19	98	88	87	99
190	15	68	71	72	73
191	19	43	41	40	46
192	15	72	71	82	83
193	15	20	19	22	23
194	16	54	56	59	64
194	17	54	56	59	64
194	18	54	56	59	64
195	15	28	27	22	31
196	5	56	54	53	85
196	6	56	54	53	85
197	15	60	59	68	69
198	15	55	54	56	59
199	14	77	76	71	82
200	15	40	39	38	49
201	16	54	56	59	60
201	17	54	56	59	60
201	18	54	56	59	60
202	15	23	22	31	33
203	15	58	56	54	82
204	15	4	5	10	11
205	19	47	39	38	50
206	11	52	51	53	85
206	12	52	51	53	85
207	23	43	41	42	86
208	14	53	54	56	57
209	24	16	15	14	17
209	25	16	15	14	17
210	15	60	59	68	70
211	15	61	60	59	68
212	15	70	68	71	82
213	15	38	39	40	45
214	16	54	56	59	68
214	17	54	56	59	68
214	18	54	56	59	68
215	7	17	14	15	37
215	8	17	14	15	37
216	19	55	54	56	58
217	15	19	22	23	26
218	15	57	56	59	60
219	19	94	90	89	96
220	7	1	51	53	54
220	8	1	51	53	54
221	16	10	5	31	22
221	17	10	5	31	22
221	18	10	5	31	22
222	15	65	64	59	68
223	15	23	22	27	28
224	16	13	10	5	31
224	17	13	10	5	31
224	18	13	10	5	31
225	1	1	3	4	5
225	2	1	3	4	5
225	3	1	3	4	5
225	4	1	3	4	5
226	15	89	88	87	100
227	19	95	89	88	98
228	14	3	4	5	31
229	7	13	14	15	37
229	8	13	14	15	37
230	16	56	59	68	71
230	17	56	59	68	71
230	18	56	59	68	71
231	31	78	77	76	80
232	16	4	5	31	22
232	17	4	5	31	22
232	18	4	5	31	22
233	15	21	19	22	27
234	15	57	56	59	68
235	15	41	40	39	48
236	15	10	5	4	35
237	35	92	91	90	93
238	15	19	22	31	33
239	15	80	76	71	82
240	15	90	89	88	98
241	19	44	41	40	45
242	15	29	27	22	31
243	5	5	4	3	36
243	6	5	4	3	36
244	15	20	19	22	31
245	15	70	68	71	72
246	15	56	59	60	61
247	13	2	1	51	53
248	16	5	10	13	19
248	17	5	10	13	19
248	18	5	10	13	19
249	16	38	39	40	41
249	17	38	39	40	41
249	18	38	39	40	41
250	15	26	23	22	27
251	15	68	71	82	83
252	15	56	59	64	65
253	13	3	1	51	53
254	19	48	39	38	49
255	5	10	13	14	17
255	6	10	13	14	17
256	19	45	40	39	47
257	15	30	27	22	31
258	15	64	59	68	69
259	23	40	41	42	86
260	15	6	5	10	11
261	19	93	90	89	96
262	19	95	89	88	97
263	15	5	10	13	18
264	15	64	59	68	70
265	15	61	60	59	64
266	15	24	23	22	31
267	15	4	5	10	12
268	14	12	10	13	14
269	7	1	51	53	85
269	8	1	51	53	85
270	16	60	59	68	71
270	17	60	59	68	71
270	18	60	59	68	71
271	19	18	13	19	21
272	15	68	71	72	74
273	15	87	88	89	95
274	15	72	71	82	84
275	15	56	54	82	83
276	28	86	87	88	97
276	29	86	87	88	97
277	15	58	56	59	64
278	23	42	86	87	100
279	15	23	22	31	32
280	5	1	3	4	34
280	6	1	3	4	34
281	15	56	54	82	84
282	15	58	56	59	60
283	15	72	71	76	81
284	15	57	56	59	64
285	15	76	71	82	83
286	15	88	89	90	94
287	15	9	6	5	10

Impropers

40	1	14	17	13	15
60	1	3	1	4	36
84	1	53	85	51	54
109	2	51	52	53	1
144	2	51	1	52	53
258	3	15	16	37	14
259	2	1	51	2	3
270	3	15	37	14	16
336	2	1	2	3	51
352	1	14	13	15	17
411	1	53	54	85	51
464	1	3	36	1	4
465	2	1	3	51	2
470	1	3	4	36	1
477	2	51	53	1	52
550	3	15	14	16	37
582	1	53	51	54	85
680	1	14	15	17	13
