Title

80 atoms
83 bonds
142 angles
215 dihedrals
78 impropers

9 atom types
13 bond types
6 angle types
13 dihedral types
2 improper types
-8.470000267 91.52999973 xlo xhi
-3.884000063 96.11599994 ylo yhi
-10.90999985 89.09000015 zlo zhi
0.0 0.0 0.0 xy xz yz

Masses

1	15.99943
2	12.01078
3	1.007947
4	12.01078
5	1.007947
6	15.99943
7	15.99943
8	1.007947
9	35.4532


Pair Coeffs

1	0.16846514	3.0251065
2	0.086879315	3.4806469
3	0.015611343	2.5725815
4	0.10884061	3.3795318
5	0.015779483	2.6445434
6	0.2102061	3.0398122
7	0.20947353	2.99716
8	1.2326e-05	0.53453923
9	0.2656001	3.3075278

Bond Coeffs

1 harmonic	425.69104206635	1.362945806494
2 harmonic	300.03137914615	1.451203938761
3 harmonic	360.7852444772	1.387193227181
4 harmonic	397.2545789619	1.085358495916
5 harmonic	289.73813263395	1.498646816465
6 harmonic	264.62148576755	1.52190126495
7 harmonic	301.15400723785	1.345741232799
8 harmonic	370.04670688625	1.093899492634
9 harmonic	582.698766451	1.225198386222
10 harmonic	279.1350963404	1.454628925034
11 harmonic	385.7604595587	1.369745182308
12 harmonic	543.5267831885	0.9716763312559
13 harmonic	218.0227703685	1.746066037062


Angle Coeffs

1 harmonic	57.8982893754	126.8062420451
2 harmonic	65.09061609600001	110.3538806181
3 harmonic	34.066775159195	129.1835929926
4 harmonic	53.20531626545	116.5475862634
5 harmonic	201.41175231035	127.4691416191
6 harmonic	48.776492647595	115.6030999533


Dihedral Coeffs

1 fourier 1	3.661930099076	2	180
2 fourier 1	1.532232714475	2	180
3 fourier 1	0.457973137376	1	0
4 fourier 1	0.02664938770063	3	0
5 fourier 1	0.1155372516788	3	0
6 fourier 1	0.09223874044423	3	0
7 fourier 1	0.3159935921949	2	180
8 fourier 1	0.3247796806857	1	180
9 fourier 1	0.1040663847541	3	0
10 fourier 1	2.779853741805	2	180
11 fourier 1	0.9974165607242	2	180
12 fourier 1	0.1911926717192	3	0
13 fourier 1	0.8283030590042	2	180


Improper Coeffs

1 0.3666666666666667	-1	2
2 3.5	-1	2


Atoms

1	1	1	-0.024703	-4.0339999	3.3169999	-0.189
2	1	2	0.275756	-3.0309999	2.352	-0.234
3	1	2	-0.32159099	-2.0639999	2.3559999	0.68900001
4	1	3	0.225154	-2.0580001	3.105	1.47
5	1	2	-0.149517	-0.99599999	1.337	0.64999998
6	1	3	0.209461	-0.23199999	1.368	1.418
7	1	2	-0.26359701	-0.96600002	0.39199999	-0.31600001
8	1	4	0.022404	0.154	-0.66900003	-0.30700001
9	1	2	-0.26359701	1.517	0.057999998	-0.31999999
10	1	2	-0.15210401	2.5780001	-0.34200001	0.421
11	1	3	0.209461	2.526	-1.183	1.094
12	1	2	-0.27353501	3.872	0.36700001	0.33700001
13	1	3	0.225183	4.6960001	0.039000001	0.95899999
14	1	2	0.437253	4.026	1.4	-0.50199997
15	1	1	-0.44163999	5.2410002	2.0769999	-0.58899999
16	1	2	-0.27353501	2.8959999	1.826	-1.348
17	1	3	0.225183	3.023	2.648	-2.04
18	1	2	-0.15210401	1.72	1.193	-1.271
19	1	3	0.209461	0.912	1.515	-1.915
20	1	4	-0.133072	0.141	-1.564	-1.571
21	1	5	0.084337004	0.245	-0.95099998	-2.4920001
22	1	5	0.084337004	-0.792	-2.1570001	-1.656
23	1	5	0.084337004	0.99000001	-2.2820001	-1.545
24	1	4	-0.134643	-0.027000001	-1.58	0.958
25	1	4	-0.12862401	-1.447	-2.155	1.151
26	1	4	-0.122022	-1.517	-3.0280001	2.4000001
27	1	5	0.067575999	-1.262	-2.4330001	3.303
28	1	5	0.067575999	-2.5469999	-3.427	2.5179999
29	1	5	0.067575999	-0.81400001	-3.8840001	2.3139999
30	1	5	0.089479998	-2.187	-1.334	1.263
31	1	5	0.089479998	-1.74	-2.7739999	0.27900001
32	1	5	0.106311	0.23100001	-0.99699998	1.869
33	1	5	0.106311	0.67699999	-2.4389999	0.90100002
34	1	2	-0.149517	-2.0599999	0.39899999	-1.336
35	1	3	0.209461	-2.098	-0.33500001	-2.1270001
36	1	2	-0.32159099	-3.027	1.323	-1.294
37	1	3	0.225154	-3.812	1.316	-2.04
38	1	2	0.62776202	6.0679998	1.804	-0.0060000001
39	1	6	-0.49985	6.7080002	0.80400002	-0.285
40	1	1	-0.024703	-4.777	3.3329999	-0.87699997
41	1	2	0.275756	-4.809	4.2969999	-1.881
42	1	2	-0.32159099	-5.802	4.2930002	-2.7750001
43	1	3	0.225154	-6.5819998	3.5439999	-2.721
44	1	2	-0.149517	-5.8449998	5.3119998	-3.8429999
45	1	3	0.209461	-6.6680002	5.2820001	-4.546
46	1	2	-0.26359701	-4.8829999	6.257	-3.947
47	1	4	0.022404	-4.9780002	7.3179998	-5.0619998
48	1	2	-0.26359701	-5.0679998	6.592	-6.4219999
49	1	2	-0.109353	-5.888	6.9910002	-7.4239998
50	1	3	0.209461	-6.5549998	7.8330002	-7.3210001
51	1	2	-0.413086	-5.9029999	6.2820001	-8.7209997
52	1	3	0.23035701	-6.586	6.6100001	-9.4940004
53	1	2	0.42944399	-5.0780001	5.2490001	-8.9370003
54	1	7	-0.64993697	-5.0830002	4.572	-10.156
55	1	8	0.43446699	-5.7069998	4.836	-10.91
56	1	2	-0.413086	-4.1490002	4.8239999	-7.8759999
57	1	3	0.23035701	-3.4679999	4.0009999	-8.0550003
58	1	2	-0.109353	-4.1360002	5.4559999	-6.697
59	1	3	0.209461	-3.4319999	5.1339998	-5.9400001
60	1	4	-0.133072	-3.717	8.2139997	-5.1459999
61	1	5	0.084337004	-2.806	7.6009998	-5.3200002
62	1	5	0.084337004	-3.5610001	8.8059998	-4.2220001
63	1	5	0.084337004	-3.8069999	8.9309998	-5.9899998
64	1	4	-0.134643	-6.2249999	8.2290001	-4.7849998
65	1	4	-0.12862401	-6.3099999	8.8039999	-3.355
66	1	4	-0.122022	-7.5500002	9.6780005	-3.1900001
67	1	5	0.067575999	-8.4700003	9.0819998	-3.3759999
68	1	5	0.067575999	-7.5900002	10.076	-2.154
69	1	5	0.067575999	-7.5180001	10.533	-3.898
70	1	5	0.089479998	-6.3649998	7.9829998	-2.609
71	1	5	0.089479998	-5.4180002	9.4230003	-3.1289999
72	1	5	0.106311	-7.1539998	7.6459999	-4.974
73	1	5	0.106311	-6.2220001	9.0889997	-5.4920001
74	1	2	-0.149517	-3.7839999	6.25	-2.9330001
75	1	3	0.209461	-2.9920001	6.9840002	-2.9549999
76	1	2	-0.32159099	-3.7520001	5.3260002	-1.966
77	1	3	0.225154	-2.9489999	5.3330002	-1.24
78	1	2	0.467107	6.355	2.411	0.84600002
79	1	6	-0.57663798	5.7709999	3.457	1.073
80	1	9	-0.085207999	7.658	1.8890001	1.897

Bonds

1	1	1	2
2	2	1	40
3	3	2	3
4	3	2	36
5	4	3	4
6	3	3	5
7	4	5	6
8	3	5	7
9	5	7	8
10	3	7	34
11	5	8	9
12	6	8	20
13	6	8	24
14	3	9	10
15	3	9	18
16	4	10	11
17	3	10	12
18	4	12	13
19	3	12	14
20	1	14	15
21	3	14	16
22	7	15	38
23	4	16	17
24	3	16	18
25	4	18	19
26	8	20	21
27	8	20	22
28	8	20	23
29	6	24	25
30	8	24	32
31	8	24	33
32	6	25	26
33	8	25	30
34	8	25	31
35	8	26	27
36	8	26	28
37	8	26	29
38	4	34	35
39	3	34	36
40	4	36	37
41	9	38	39
42	10	38	78
43	1	40	41
44	3	41	42
45	3	41	76
46	4	42	43
47	3	42	44
48	4	44	45
49	3	44	46
50	5	46	47
51	3	46	74
52	5	47	48
53	6	47	60
54	6	47	64
55	3	48	49
56	3	48	58
57	4	49	50
58	3	49	51
59	4	51	52
60	3	51	53
61	11	53	54
62	3	53	56
63	12	54	55
64	4	56	57
65	3	56	58
66	4	58	59
67	8	60	61
68	8	60	62
69	8	60	63
70	6	64	65
71	8	64	72
72	8	64	73
73	6	65	66
74	8	65	70
75	8	65	71
76	8	66	67
77	8	66	68
78	8	66	69
79	4	74	75
80	3	74	76
81	4	76	77
82	9	78	79
83	13	78	80

Angles

1	4	65	66	69
2	5	15	38	39
3	3	48	49	50
4	1	15	38	78
5	4	7	8	20
6	4	60	47	64
7	1	41	76	74
8	4	64	65	71
9	1	48	58	56
10	4	8	20	22
11	1	1	2	36
12	2	2	1	40
13	6	30	25	31
14	4	8	24	32
15	3	57	56	58
16	1	38	78	80
17	4	47	64	65
18	6	61	60	62
19	3	6	5	7
20	1	47	48	58
21	1	48	49	51
22	4	9	8	24
23	3	34	36	37
24	3	53	56	57
25	3	9	10	11
26	4	8	20	23
27	4	25	26	27
28	3	75	74	76
29	1	47	46	74
30	4	24	25	30
31	3	49	51	52
32	4	9	8	20
33	6	61	60	63
34	4	24	25	26
35	1	44	46	74
36	1	9	18	16
37	4	47	64	73
38	1	53	56	58
39	4	20	8	24
40	1	9	10	12
41	6	67	66	68
42	4	25	26	28
43	1	3	2	36
44	3	45	44	46
45	4	8	24	25
46	1	44	46	47
47	6	72	64	73
48	3	56	58	59
49	3	10	12	13
50	6	21	20	22
51	3	3	5	6
52	6	22	20	23
53	1	49	48	58
54	3	11	10	12
55	3	42	44	45
56	3	2	36	37
57	4	48	47	64
58	4	26	25	30
59	3	4	3	5
60	3	17	16	18
61	3	46	74	75
62	1	5	7	8
63	4	48	47	60
64	3	13	12	14
65	6	21	20	23
66	1	8	7	34
67	4	8	24	33
68	1	54	53	56
69	1	51	53	54
70	6	70	65	71
71	4	47	60	61
72	4	7	8	9
73	4	25	24	32
74	6	27	26	28
75	2	14	15	38
76	1	10	9	18
77	1	79	78	80
78	3	74	76	77
79	1	2	36	34
80	1	46	74	76
81	4	24	25	31
82	2	1	40	41
83	6	32	24	33
84	4	65	66	67
85	1	42	41	76
86	1	12	14	15
87	1	49	51	53
88	3	16	18	19
89	4	46	47	48
90	6	28	26	29
91	1	8	9	10
92	4	25	24	33
93	3	50	49	51
94	4	65	64	72
95	3	7	34	35
96	3	14	16	17
97	3	41	42	43
98	3	48	58	59
99	6	67	66	69
100	4	25	26	29
101	1	1	2	3
102	1	40	41	76
103	4	65	66	68
104	1	5	7	34
105	1	8	9	18
106	4	64	65	70
107	3	2	3	4
108	4	8	20	21
109	1	40	41	42
110	3	52	51	53
111	2	53	54	55
112	1	10	12	14
113	1	47	48	49
114	1	3	5	7
115	1	7	34	36
116	1	15	14	16
117	1	42	44	46
118	4	64	65	66
119	4	46	47	64
120	4	26	25	31
121	1	39	38	78
122	1	2	3	5
123	6	62	60	63
124	3	9	18	19
125	4	46	47	60
126	4	47	60	62
127	4	66	65	70
128	6	27	26	29
129	4	47	64	72
130	3	41	76	77
131	3	43	42	44
132	1	12	14	16
133	1	51	53	56
134	4	47	60	63
135	4	66	65	71
136	6	68	66	69
137	4	7	8	24
138	4	65	64	73
139	3	35	34	36
140	1	14	16	18
141	1	41	42	44
142	1	38	78	79

Dihedrals

1	5	7	8	20	23
2	1	40	41	76	74
3	1	8	9	18	16
4	1	45	44	46	47
5	1	43	42	44	45
6	1	12	14	16	17
7	12	70	65	64	73
8	1	49	48	58	59
9	6	20	8	24	25
9	7	20	8	24	25
9	8	20	8	24	25
10	1	9	10	12	13
11	5	9	8	20	23
12	1	10	12	14	15
13	1	44	42	41	76
14	5	7	8	24	33
15	4	24	8	7	34
16	1	41	76	74	75
17	5	48	47	64	72
18	1	75	74	76	77
19	1	53	56	58	59
20	5	9	8	24	33
21	1	3	2	36	37
22	3	2	1	40	41
23	2	1	40	41	42
24	12	29	26	25	31
25	9	8	24	25	31
26	1	8	9	10	12
27	2	16	14	15	38
28	1	42	41	76	74
29	12	71	65	64	73
30	1	47	48	49	50
31	6	47	64	65	66
31	7	47	64	65	66
31	8	47	64	65	66
32	1	43	42	44	46
33	4	58	48	47	60
34	5	48	47	60	63
35	1	10	12	14	16
36	1	47	48	58	56
37	5	48	47	64	73
38	5	7	8	24	25
39	2	36	2	1	40
40	1	8	7	34	35
41	1	4	3	2	36
42	9	20	8	24	33
43	5	9	8	24	25
44	9	66	65	64	72
45	11	39	38	78	79
46	1	1	2	36	37
47	1	49	51	53	56
48	2	14	15	38	39
49	1	3	5	7	8
50	10	14	15	38	78
51	1	3	2	36	34
52	9	21	20	8	24
53	1	50	49	51	52
54	1	4	3	5	6
55	4	18	9	8	24
56	4	5	7	8	24
57	1	35	34	36	37
58	9	64	65	66	69
59	1	8	7	34	36
60	5	48	47	64	65
61	4	49	48	47	64
62	2	3	2	1	40
63	1	9	18	16	17
64	1	12	10	9	18
65	4	18	9	8	20
66	9	61	60	47	64
67	1	11	10	9	18
68	12	27	26	25	30
69	1	6	5	7	8
70	4	5	7	8	20
71	12	31	25	24	33
72	1	52	51	53	54
73	9	60	47	64	72
74	9	47	64	65	70
75	4	58	48	47	64
76	4	9	8	7	34
77	4	46	47	48	58
78	5	46	47	60	62
79	4	49	48	47	60
80	1	4	3	5	7
81	4	48	47	46	74
82	1	42	44	46	74
83	5	46	47	64	72
84	1	40	41	42	43
85	1	1	2	36	34
86	13	55	54	53	56
87	1	12	14	16	18
88	12	28	26	25	30
89	1	9	10	12	14
90	1	41	76	74	46
91	1	51	53	56	57
92	1	50	49	48	58
93	12	69	66	65	70
94	1	11	10	12	13
95	9	26	25	24	32
96	1	54	53	56	57
97	1	15	14	16	17
98	1	10	9	18	19
99	9	47	64	65	71
100	1	5	3	2	36
101	5	46	47	60	63
102	12	67	66	65	70
103	1	3	5	7	34
104	1	42	44	46	47
105	1	49	48	58	56
106	1	9	18	16	14
107	1	40	41	42	44
108	4	44	46	47	48
109	1	47	48	49	51
110	9	24	25	26	27
111	1	11	10	12	14
112	1	47	46	74	75
113	1	6	5	7	34
114	1	54	53	56	58
115	11	15	38	78	79
116	1	13	12	14	15
117	1	1	2	3	4
118	1	2	36	34	35
119	5	7	8	20	21
120	4	10	9	8	20
121	1	2	3	5	6
122	9	62	60	47	64
123	5	9	8	20	21
124	9	66	65	64	73
125	11	39	38	78	80
126	1	40	41	76	77
127	5	46	47	64	65
128	1	8	9	18	19
129	1	10	9	18	16
130	1	46	74	76	77
131	1	50	49	51	53
132	12	30	25	24	32
133	1	5	7	34	35
134	5	7	8	20	22
135	1	43	42	41	76
136	5	48	47	60	61
137	1	41	42	44	45
138	1	48	49	51	52
139	12	27	26	25	31
140	1	48	58	56	53
141	4	44	46	47	64
142	9	60	47	64	73
143	12	68	66	65	70
144	4	20	8	7	34
145	1	47	48	58	59
146	1	7	34	36	37
147	9	8	24	25	30
148	4	44	46	47	60
149	5	46	47	64	73
150	12	71	65	64	72
151	1	49	51	53	54
152	4	10	9	8	24
153	4	5	7	8	9
154	5	48	47	60	62
155	12	28	26	25	31
156	1	41	42	44	46
157	1	51	53	56	58
158	1	48	49	51	53
159	1	5	7	34	36
160	12	69	66	65	71
161	1	14	16	18	19
162	9	26	25	24	33
163	2	1	40	41	76
164	6	8	24	25	26
164	7	8	24	25	26
164	8	8	24	25	26
165	1	52	51	53	56
166	1	15	14	16	18
167	9	64	65	66	67
168	1	57	56	58	59
169	12	68	66	65	71
170	1	17	16	18	19
171	12	67	66	65	71
172	9	20	8	24	32
173	6	60	47	64	65
173	7	60	47	64	65
173	8	60	47	64	65
174	9	22	20	8	24
175	1	44	46	74	75
176	1	2	36	34	7
177	9	24	25	26	28
178	9	23	20	8	24
179	1	48	58	56	57
180	1	51	49	48	58
181	4	7	8	9	10
182	4	60	47	46	74
183	1	47	46	74	76
184	9	63	60	47	64
185	9	64	65	66	68
186	2	12	14	15	38
187	11	15	38	78	80
188	1	13	12	14	16
189	1	1	2	3	5
190	4	64	47	46	74
191	12	70	65	64	72
192	4	46	47	48	49
193	1	2	3	5	7
194	1	45	44	46	74
195	5	9	8	20	22
196	5	7	8	24	32
197	12	31	25	24	32
198	1	42	41	76	77
199	1	44	46	74	76
200	13	51	53	54	55
201	5	9	8	24	32
202	9	24	25	26	29
203	5	46	47	60	61
204	4	7	8	9	18
205	12	30	25	24	33
206	12	29	26	25	30
207	1	8	9	10	11

Impropers

2	1	46	44	47	74
4	1	34	35	36	7
9	1	36	37	2	34
24	1	41	76	40	42
25	1	12	13	14	10
30	1	44	42	45	46
40	1	42	44	41	43
41	2	38	15	39	78
42	2	38	78	15	39
45	1	16	17	18	14
56	1	58	59	48	56
61	1	2	1	3	36
65	1	51	53	49	52
68	1	5	3	6	7
70	1	78	79	80	38
72	1	41	40	42	76
76	1	53	56	51	54
81	1	42	43	44	41
84	1	3	4	5	2
85	1	34	36	7	35
87	1	12	10	13	14
89	2	38	39	78	15
97	1	49	51	48	50
100	1	53	54	56	51
103	1	18	19	9	16
106	1	12	14	10	13
114	1	5	7	3	6
116	1	56	58	53	57
122	1	74	75	76	46
130	1	18	16	19	9
137	1	53	51	54	56
140	1	58	48	56	59
146	1	78	80	38	79
150	1	41	42	76	40
157	1	14	12	15	16
160	1	16	18	14	17
162	1	10	12	9	11
173	1	44	46	42	45
181	1	10	9	11	12
184	1	36	34	37	2
188	1	9	18	8	10
189	1	74	76	46	75
190	1	18	9	16	19
193	1	9	8	10	18
196	1	2	36	1	3
201	1	51	52	53	49
215	1	78	38	79	80
217	1	74	46	75	76
219	1	48	47	49	58
226	1	42	41	43	44
232	1	16	14	17	18
235	1	48	58	47	49
247	1	34	7	35	36
248	1	56	57	58	53
249	1	46	47	74	44
254	1	58	56	59	48
258	1	76	74	77	41
265	1	7	8	34	5
269	1	7	5	8	34
271	1	10	11	12	9
274	1	44	45	46	42
279	1	48	49	58	47
280	1	3	2	4	5
292	1	14	16	12	15
294	1	49	50	51	48
296	1	9	10	18	8
305	1	36	2	34	37
312	1	49	48	50	51
319	1	14	15	16	12
323	1	51	49	52	53
329	1	76	77	41	74
337	1	2	3	36	1
340	1	7	34	5	8
344	1	3	5	2	4
353	1	56	53	57	58
359	1	76	41	74	77
383	1	5	6	7	3
395	1	46	74	44	47
