Title

89 atoms
88 bonds
163 angles
283 dihedrals
12 impropers

8 atom types
11 bond types
5 angle types
31 dihedral types
2 improper types
-3.338000059 96.66199994 xlo xhi
-3.665999889 96.33400011 ylo yhi
-3.602999926 96.39700007 zlo zhi
0.0 0.0 0.0 xy xz yz

Masses

1	15.99943
2	12.01078
3	1.007947
4	12.01078
5	15.99943
6	1.007947
7	15.99943
8	1.007947


Pair Coeffs

1	0.16846514	3.0251065
2	0.10884061	3.3795318
3	0.016409246	2.5832257
4	0.086879315	3.4806469
5	0.2102061	3.0398122
6	0.015779483	2.6445434
7	0.20947353	2.99716
8	1.2326e-05	0.53453923

Bond Coeffs

1 harmonic	366.7408841747	1.425895053732
2 harmonic	300.03137914615	1.451203938761
3 harmonic	264.62148576755	1.52190126495
4 harmonic	370.04670688625	1.093899492634
5 harmonic	301.15400723785	1.345741232799
6 harmonic	582.698766451	1.225198386222
7 harmonic	329.44145381095	1.523435958334
8 harmonic	279.1350963404	1.454628925034
9 harmonic	329.96998057905	1.427343958716
10 harmonic	543.5267831885	0.9716763312559
11 harmonic	385.7604595587	1.369745182308


Angle Coeffs

1 harmonic	53.20531626545	116.5475862634
2 harmonic	65.09061609600001	110.3538806181
3 harmonic	201.41175231035	127.4691416191
4 harmonic	57.8982893754	126.8062420451
5 harmonic	48.776492647595	115.6030999533


Dihedral Coeffs

1 fourier 1	-0.0309670556842	3	0
2 fourier 1	0.4598191477945	2	0
3 fourier 1	0.1115525666802	3	0
4 fourier 1	0.3432490222662	1	0
5 fourier 1	0.0473758381877	3	0
6 fourier 1	0.457973137376	1	0
7 fourier 1	0.4552156463534	3	0
8 fourier 1	-0.03687743385131	2	180
9 fourier 1	0.1918272375143	3	0
10 fourier 1	0.9202179876409	1	180
11 fourier 1	1.163809172478	2	180
12 fourier 1	0.1679186987369	1	180
13 fourier 1	2.779853741805	2	180
14 fourier 1	0.02664938770063	3	0
15 fourier 1	0.1911926717192	3	0
16 fourier 1	0.1155372516788	3	0
17 fourier 1	-0.3703352413219	2	0
18 fourier 1	0.4541676554336	1	0
19 fourier 1	0.1489710476446	2	0
20 fourier 1	0.02960027280666	3	180
21 fourier 1	0.09223874044423	3	0
22 fourier 1	0.3159935921949	2	180
23 fourier 1	0.3247796806857	1	180
24 fourier 1	0.1040663847541	3	0
25 fourier 1	0.9974165607242	2	180
26 fourier 1	0.3445382149273	3	0
27 fourier 1	0.1364556373303	1	0
28 fourier 1	0.3026390167484	3	0
29 fourier 1	2.687457892086	2	180
30 fourier 1	2.772607909663	2	180
31 fourier 1	0.09692684957115	1	0


Improper Coeffs

1 3.5	-1	2
2 0.3666666666666667	-1	2


Atoms

1	1	1	-0.15795401	-3.3380001	-0.667	0.119
2	1	2	0.025985001	-2.119	-0.0080000004	-0.086999997
3	1	2	0.076509997	-1.089	-0.46000001	0.949
4	1	1	-0.49458501	0.102	0.29300001	0.81599998
5	1	2	0.075980999	1.05	-0.41	0.041000001
6	1	2	0.128297	2.2609999	0.486	-0.20200001
7	1	1	-0.492764	3.2379999	-0.20200001	-0.93400002
8	1	3	0.083975002	1.95	1.41	-0.74000001
9	1	3	0.083975002	2.6949999	0.78600001	0.77499998
10	1	3	0.076913998	0.62300003	-0.70200002	-0.94599998
11	1	3	0.076913998	1.3890001	-1.322	0.583
12	1	3	0.078218997	-1.5039999	-0.26499999	1.961
13	1	3	0.078218997	-0.93199998	-1.563	0.88
14	1	3	0.081988998	-2.2850001	1.086	0.017000001
15	1	3	0.081988998	-1.745	-0.20100001	-1.118
16	1	4	0.76196897	2.915	-0.21600001	-1.9220001
17	1	5	-0.55067003	3.4690001	-0.95499998	-2.7190001
18	1	2	-0.208149	1.7819999	0.65700001	-2.375
19	1	2	-0.11514	1.227	1.492	-1.211
20	1	2	-0.13581499	-0.0089999996	2.3150001	-1.609
21	1	2	-0.141155	0.35100001	3.55	-2.4530001
22	1	2	-0.141155	-0.88700002	4.3239999	-2.941
23	1	2	-0.138476	-1.77	4.915	-1.827
24	1	2	-0.096827999	-1.027	5.9289999	-0.94499999
25	1	2	-0.25726101	-1.9910001	6.6279998	0.02
26	1	4	0.51772702	-1.2690001	7.6079998	0.89600003
27	1	5	-0.68093902	-1.888	8.2530003	1.727
28	1	6	0.114524	-2.77	7.171	-0.55800003
29	1	6	0.114524	-2.4890001	5.8699999	0.66299999
30	1	6	0.077955	-0.248	5.4039998	-0.352
31	1	6	0.077955	-0.53600001	6.691	-1.589
32	1	6	0.079673	-2.628	5.4260001	-2.3169999
33	1	6	0.079673	-2.1949999	4.1030002	-1.2
34	1	6	0.081550002	-0.54699999	5.151	-3.6029999
35	1	6	0.081550002	-1.51	3.6470001	-3.5650001
36	1	6	0.081550002	1.024	4.2210002	-1.8789999
37	1	6	0.081550002	0.91100001	3.2279999	-3.355
38	1	6	0.079673	-0.73199999	1.673	-2.158
39	1	6	0.079673	-0.498	2.651	-0.67000002
40	1	6	0.086769	0.92900002	0.801	-0.391
41	1	6	0.086769	2.0179999	2.165	-0.81400001
42	1	6	0.117892	0.97799999	0.012	-2.79
43	1	6	0.117892	2.1570001	1.323	-3.1800001
44	1	1	-0.15795401	-3.2249999	-1.589	-0.233
45	1	2	0.025985001	-2.3540001	-2.2479999	0.64499998
46	1	2	0.076635003	-0.91299999	-1.796	0.403
47	1	1	-0.492412	-0.023	-2.549	1.205
48	1	2	0.048762999	0.296	-1.845	2.3870001
49	1	2	0.070758998	1.138	-2.7420001	3.29
50	1	7	-0.68579102	1.506	-2.053	4.454
51	1	8	0.38288301	0.70599997	-2.04	5.0409999
52	1	3	0.077625997	0.57300001	-3.6659999	3.546
53	1	3	0.077625997	2.0610001	-3.0420001	2.7490001
54	1	3	0.079135001	-0.62599999	-1.553	2.941
55	1	3	0.079135001	0.88700002	-0.93300003	2.1440001
56	1	3	0.078218997	-0.66100001	-1.9910001	-0.66100001
57	1	3	0.078218997	-0.82599998	-0.69199997	0.55000001
58	1	3	0.081988998	-2.4289999	-3.3410001	0.463
59	1	3	0.081988998	-2.651	-2.0550001	1.7
60	1	4	0.51772702	-0.198	7.7540002	0.80299997
61	1	5	-0.68093902	0.55900002	7.164	1.558
62	1	2	-0.25726101	0.34400001	8.665	-0.25999999
63	1	2	-0.096827999	1.073	9.8769999	0.336
64	1	2	-0.138476	0.115	10.826	1.0700001
65	1	2	-0.141155	0.86199999	12.05	1.614
66	1	2	-0.141155	-0.096000001	12.992	2.359
67	1	2	-0.13581499	0.58200002	14.297	2.8039999
68	1	2	-0.112604	1.566	14.086	3.9679999
69	1	2	-0.218247	2.178	15.406	4.4559999
70	1	4	0.824754	1.1670001	16.261	5.158
71	1	5	-0.55192399	0.67500001	17.264999	4.5770001
72	1	7	-0.66451102	0.75199997	15.928	6.4429998
73	1	8	0.39546001	0.061999999	16.489	6.928
74	1	6	0.118924	2.9990001	15.18	5.1690001
75	1	6	0.118924	2.622	15.96	3.5999999
76	1	6	0.086769	1.054	13.576	4.8140001
77	1	6	0.086769	2.3989999	13.433	3.632
78	1	6	0.079673	1.109	14.762	1.942
79	1	6	0.079673	-0.21600001	14.999	3.128
80	1	6	0.081550002	-0.528	12.472	3.2420001
81	1	6	0.081550002	-0.93599999	13.258	1.681
82	1	6	0.081550002	1.66	11.704	2.3039999
83	1	6	0.081550002	1.334	12.596	0.76800001
84	1	6	0.079673	-0.36700001	10.288	1.916
85	1	6	0.079673	-0.67900002	11.162	0.36700001
86	1	6	0.077955	1.8710001	9.5299997	1.03
87	1	6	0.077955	1.564	10.429	-0.495
88	1	6	0.114524	-0.48899999	9.0100002	-0.91000003
89	1	6	0.114524	1.051	8.0900002	-0.89499998

Bonds

1	1	1	2
2	2	1	44
3	3	2	3
4	4	2	14
5	4	2	15
6	1	3	4
7	4	3	12
8	4	3	13
9	1	4	5
10	3	5	6
11	4	5	10
12	4	5	11
13	1	6	7
14	4	6	8
15	4	6	9
16	5	7	16
17	6	16	17
18	7	16	18
19	3	18	19
20	4	18	42
21	4	18	43
22	3	19	20
23	4	19	40
24	4	19	41
25	3	20	21
26	4	20	38
27	4	20	39
28	3	21	22
29	4	21	36
30	4	21	37
31	3	22	23
32	4	22	34
33	4	22	35
34	3	23	24
35	4	23	32
36	4	23	33
37	3	24	25
38	4	24	30
39	4	24	31
40	7	25	26
41	4	25	28
42	4	25	29
43	6	26	27
44	8	26	60
45	1	44	45
46	3	45	46
47	4	45	58
48	4	45	59
49	1	46	47
50	4	46	56
51	4	46	57
52	1	47	48
53	3	48	49
54	4	48	54
55	4	48	55
56	9	49	50
57	4	49	52
58	4	49	53
59	10	50	51
60	6	60	61
61	7	60	62
62	3	62	63
63	4	62	88
64	4	62	89
65	3	63	64
66	4	63	86
67	4	63	87
68	3	64	65
69	4	64	84
70	4	64	85
71	3	65	66
72	4	65	82
73	4	65	83
74	3	66	67
75	4	66	80
76	4	66	81
77	3	67	68
78	4	67	78
79	4	67	79
80	3	68	69
81	4	68	76
82	4	68	77
83	7	69	70
84	4	69	74
85	4	69	75
86	6	70	71
87	11	70	72
88	10	72	73

Angles

1	1	26	25	29
2	2	70	72	73
3	1	46	45	58
4	1	44	45	59
5	1	63	62	88
6	1	2	3	13
7	1	68	67	79
8	4	27	26	60
9	5	78	67	79
10	1	65	66	67
11	5	12	3	13
12	1	60	62	63
13	1	65	66	80
14	1	2	3	4
15	1	67	68	69
16	1	50	49	53
17	1	22	23	24
18	1	49	48	54
19	1	18	19	41
20	1	16	18	19
21	1	23	24	31
22	1	66	65	83
23	1	63	64	84
24	1	20	21	22
25	1	20	19	41
26	1	21	20	39
27	1	66	67	79
28	1	4	3	13
29	1	21	22	23
30	1	4	5	11
31	5	32	23	33
32	1	16	18	43
33	5	80	66	81
34	4	69	70	72
35	1	48	49	53
36	1	68	69	74
37	1	6	5	11
38	1	1	2	3
39	1	22	21	37
40	1	24	23	33
41	1	47	48	54
42	1	62	63	64
43	1	64	65	83
44	1	19	18	42
45	1	69	68	76
46	1	21	22	34
47	1	22	23	33
48	5	14	2	15
49	1	23	24	30
50	1	23	24	25
51	1	68	69	70
52	1	21	22	35
53	1	70	69	75
54	1	64	65	66
55	3	7	16	17
56	1	19	20	39
57	1	62	63	86
58	5	54	48	55
59	1	63	64	65
60	1	19	20	21
61	2	49	50	51
62	5	58	45	59
63	1	65	64	84
64	2	3	4	5
65	1	23	22	34
66	1	1	2	14
67	1	19	20	38
68	1	2	3	12
69	1	1	2	15
70	4	61	60	62
71	5	74	69	75
72	5	84	64	85
73	5	40	19	41
74	1	23	22	35
75	1	44	45	58
76	1	20	21	36
77	4	25	26	27
78	1	60	62	88
79	1	24	23	32
80	5	38	20	39
81	4	17	16	18
82	1	19	18	43
83	5	56	46	57
84	1	22	23	32
85	2	2	1	44
86	4	7	16	18
87	1	20	21	37
88	5	82	65	83
89	1	21	20	38
90	1	24	25	29
91	1	50	49	52
92	5	34	22	35
93	1	24	25	28
94	1	48	49	50
95	5	36	21	37
96	1	67	66	81
97	4	26	60	61
98	1	4	3	12
99	1	68	69	75
100	1	25	24	31
101	1	67	68	76
102	1	66	67	68
103	1	69	68	77
104	1	63	64	85
105	1	68	67	78
106	1	18	19	40
107	1	48	49	52
108	1	20	19	40
109	1	66	65	82
110	5	30	24	31
111	1	5	6	7
112	1	67	66	80
113	5	76	68	77
114	1	64	63	87
115	1	18	19	20
116	1	25	24	30
117	2	6	7	16
118	1	26	25	28
119	5	86	63	87
120	1	63	62	89
121	4	25	26	60
122	5	10	5	11
123	1	47	48	49
124	1	3	2	14
125	1	4	5	10
126	1	45	46	47
127	1	3	2	15
128	1	64	65	82
129	1	66	67	78
130	1	6	5	10
131	4	26	60	62
132	1	47	48	55
133	1	62	63	87
134	3	71	70	72
135	1	44	45	46
136	1	45	46	56
137	1	46	45	59
138	4	69	70	71
139	1	24	25	26
140	1	65	64	85
141	1	7	6	9
142	1	5	6	9
143	5	52	49	53
144	5	8	6	9
145	1	45	46	57
146	1	47	46	56
147	2	46	47	48
148	2	1	44	45
149	1	70	69	74
150	1	22	21	36
151	5	88	62	89
152	1	4	5	6
153	1	49	48	55
154	1	60	62	89
155	1	65	66	81
156	1	67	68	77
157	1	64	63	86
158	1	16	18	42
159	1	7	6	8
160	1	47	46	57
161	5	28	25	29
162	1	5	6	8
163	5	42	18	43

Dihedrals

1	15	87	63	62	88
2	15	40	19	18	42
3	5	9	6	7	16
4	15	80	66	65	83
5	16	60	62	63	86
6	7	2	3	4	5
6	8	2	3	4	5
7	24	25	24	23	33
8	24	65	64	63	86
9	15	35	22	21	37
10	15	34	22	21	36
11	5	3	2	1	44
12	7	45	46	47	48
12	8	45	46	47	48
13	15	37	21	20	38
14	15	9	6	5	10
15	24	24	23	22	34
16	15	85	64	63	86
17	1	47	48	49	50
17	2	47	48	49	50
18	18	17	16	18	43
18	19	17	16	18	43
18	20	17	16	18	43
19	16	23	24	25	26
20	15	34	22	21	37
21	24	24	23	22	35
22	13	6	7	16	18
23	5	1	44	45	59
24	14	26	60	62	89
25	15	31	24	23	32
26	15	84	64	63	87
27	3	44	45	46	57
27	4	44	45	46	57
28	5	8	6	7	16
29	1	4	5	6	7
29	2	4	5	6	7
30	15	83	65	64	85
31	24	19	20	21	37
32	24	20	19	18	43
33	3	4	3	2	14
33	4	4	3	2	14
34	11	6	7	16	17
34	12	6	7	16	17
35	5	46	47	48	54
36	3	4	3	2	15
36	4	4	3	2	15
37	24	64	65	66	81
38	29	69	70	72	73
39	24	67	66	65	82
40	3	47	48	49	52
40	4	47	48	49	52
41	15	75	69	68	77
42	5	5	4	3	12
43	24	69	68	67	78
44	16	60	62	63	64
45	15	76	68	67	78
46	15	33	23	22	34
47	5	3	4	5	10
48	15	78	67	66	80
49	15	33	23	22	35
50	15	40	19	18	43
51	15	56	46	45	59
52	5	1	44	45	58
53	24	25	24	23	32
54	15	29	25	24	30
55	5	14	2	1	44
56	24	63	64	65	82
57	14	24	25	26	60
58	24	18	19	20	39
59	3	44	45	46	56
59	4	44	45	46	56
60	24	62	63	64	84
61	24	69	68	67	79
62	24	68	67	66	81
63	15	76	68	67	79
64	24	22	21	20	39
65	3	4	5	6	9
65	4	4	5	6	9
66	21	18	19	20	21
66	22	18	19	20	21
66	23	18	19	20	21
67	3	50	49	48	55
67	4	50	49	48	55
68	15	82	65	64	84
69	15	57	46	45	59
70	15	77	68	67	79
71	3	47	46	45	59
71	4	47	46	45	59
72	15	39	20	19	40
73	7	3	4	5	6
73	8	3	4	5	6
74	21	65	66	67	68
74	22	65	66	67	68
74	23	65	66	67	68
75	15	83	65	64	84
76	24	21	22	23	33
77	15	52	49	48	55
78	15	29	25	24	31
79	15	86	63	62	88
80	24	66	65	64	85
81	15	56	46	45	58
82	3	4	5	6	8
82	4	4	5	6	8
83	3	7	6	5	10
83	4	7	6	5	10
84	15	8	6	5	10
85	24	21	20	19	40
86	15	30	24	23	32
87	16	16	18	19	40
88	18	61	60	62	89
88	19	61	60	62	89
88	20	61	60	62	89
89	16	70	69	68	77
90	15	9	6	5	11
91	15	12	3	2	14
92	15	12	3	2	15
93	14	26	60	62	63
94	15	87	63	62	89
95	15	38	20	19	40
96	24	64	63	62	88
97	15	81	66	65	82
98	16	60	62	63	87
99	15	53	49	48	55
100	3	1	2	3	12
100	4	1	2	3	12
101	14	28	25	26	60
102	21	21	22	23	24
102	22	21	22	23	24
102	23	21	22	23	24
103	24	65	64	63	87
104	15	74	69	68	76
105	28	51	50	49	52
106	18	71	70	69	74
106	19	71	70	69	74
106	20	71	70	69	74
107	21	62	63	64	65
107	22	62	63	64	65
107	23	62	63	64	65
108	16	16	18	19	20
109	21	64	65	66	67
109	22	64	65	66	67
109	23	64	65	66	67
110	5	5	4	3	13
111	15	85	64	63	87
112	15	79	67	66	81
113	24	64	65	66	80
114	3	50	49	48	54
114	4	50	49	48	54
115	15	80	66	65	82
116	3	47	46	45	58
116	4	47	46	45	58
117	25	25	26	60	61
118	17	68	69	70	71
119	15	32	23	22	34
120	17	61	60	62	63
121	24	65	66	67	78
122	30	71	70	72	73
122	31	71	70	72	73
123	24	67	68	69	74
124	14	7	16	18	42
125	15	74	69	68	77
126	15	32	23	22	35
127	5	15	2	1	44
128	18	71	70	69	75
128	19	71	70	69	75
128	20	71	70	69	75
129	15	75	69	68	76
130	14	26	60	62	88
131	16	70	69	68	76
132	15	84	64	63	86
133	24	67	66	65	83
134	5	3	4	5	11
135	15	41	19	18	42
136	15	79	67	66	80
137	15	13	3	2	14
138	15	13	3	2	15
139	16	67	68	69	70
140	24	18	19	20	38
141	15	53	49	48	54
142	25	27	26	60	61
143	7	46	47	48	49
143	8	46	47	48	49
144	15	37	21	20	39
145	24	68	67	66	80
146	15	28	25	24	30
147	24	22	21	20	38
148	24	67	68	69	75
149	24	22	23	24	31
150	3	47	48	49	53
150	4	47	48	49	53
151	15	35	22	21	36
152	17	24	25	26	27
153	18	61	60	62	88
153	19	61	60	62	88
153	20	61	60	62	88
154	16	26	25	24	31
155	24	63	64	65	83
156	24	66	67	68	76
157	17	17	16	18	19
158	9	5	6	7	16
158	10	5	6	7	16
159	15	36	21	20	39
160	24	23	24	25	29
161	14	72	70	69	74
162	24	62	63	64	85
163	24	23	24	25	28
164	5	48	47	46	56
165	14	7	16	18	19
166	21	63	64	65	66
166	22	63	64	65	66
166	23	63	64	65	66
167	28	51	50	49	53
168	26	48	49	50	51
168	27	48	49	50	51
169	6	2	1	44	45
170	21	19	20	21	22
170	22	19	20	21	22
170	23	19	20	21	22
171	25	25	26	60	62
172	15	57	46	45	58
173	18	27	26	25	29
173	19	27	26	25	29
173	20	27	26	25	29
174	18	27	26	25	28
174	19	27	26	25	28
174	20	27	26	25	28
175	24	22	23	24	30
176	15	28	25	24	31
177	21	22	23	24	25
177	22	22	23	24	25
177	23	22	23	24	25
178	14	7	16	18	43
179	3	1	2	3	13
179	4	1	2	3	13
180	18	17	16	18	42
180	19	17	16	18	42
180	20	17	16	18	42
181	24	19	20	21	36
182	15	52	49	48	54
183	15	82	65	64	85
184	5	48	47	46	57
185	21	20	21	22	23
185	22	20	21	22	23
185	23	20	21	22	23
186	24	66	67	68	77
187	15	78	67	66	81
188	3	7	6	5	11
188	4	7	6	5	11
189	16	26	25	24	30
190	14	29	25	26	60
191	15	8	6	5	11
192	15	31	24	23	33
193	14	72	70	69	75
194	15	36	21	20	38
195	15	41	19	18	43
196	15	39	20	19	41
197	15	86	63	62	89
198	1	1	2	3	4
198	2	1	2	3	4
199	24	21	22	23	32
200	5	1	44	45	46
201	25	27	26	60	62
202	24	20	19	18	42
203	24	20	21	22	34
204	14	68	69	70	72
205	24	20	21	22	35
206	24	21	20	19	41
207	16	16	18	19	41
208	24	23	22	21	36
209	24	64	63	62	89
210	24	66	65	64	84
211	15	81	66	65	83
212	15	30	24	23	33
213	21	66	67	68	69
213	22	66	67	68	69
213	23	66	67	68	69
214	15	38	20	19	41
215	24	65	66	67	79
216	5	46	47	48	55
217	24	23	22	21	37
218	1	44	45	46	47
218	2	44	45	46	47
219	15	77	68	67	78

Impropers

2	2	60	62	26	61
36	2	60	61	62	26
77	1	16	17	18	7
97	1	70	71	72	69
131	1	16	7	17	18
216	2	26	27	60	25
253	1	16	18	7	17
283	2	26	25	27	60
315	1	70	69	71	72
353	2	60	26	61	62
434	2	26	60	25	27
449	1	70	72	69	71
