Title

522 atoms
548 bonds
1094 angles
2685 dihedrals
102 impropers

11 atom types
14 bond types
9 angle types
35 dihedral types
3 improper types
-8.996999741 91.00300026 xlo xhi
-8.130999565 91.86900043 ylo yhi
-10.99600029 89.00399971 zlo zhi
0.0 0.0 0.0 xy xz yz

Masses

1	15.99943
2	12.01078
3	14.00672
4	12.01078
5	1.007947
6	1.007947
7	1.007947
8	15.99943
9	12.01078
10	15.99943
11	1.007947


Pair Coeffs

1	0.2102061	3.0398122
2	0.086879315	3.4806469
3	0.16769152	3.206876
4	0.10884061	3.3795318
5	0.014090815	1.1034277
6	0.016409246	2.5832257
7	0.015779483	2.6445434
8	0.16846514	3.0251065
9	0.21	3.3996695
10	0.20947353	2.99716
11	1.2326e-05	0.53453923

Bond Coeffs

1 harmonic	582.698766451	1.225198386222
2 harmonic	492.76746816345	1.381897776683
3 harmonic	301.15400723785	1.345741232799
4 harmonic	352.0565580496	1.450098586273
5 harmonic	505.144496193	1.019481865027
6 harmonic	264.62148576755	1.52190126495
7 harmonic	370.04670688625	1.093899492634
8 harmonic	279.1350963404	1.454628925034
9 harmonic	366.7408841747	1.425895053732
10 harmonic	300.03137914615	1.451203938761
11 harmonic	366.34047229585	1.464762957261
12 harmonic	602.81384337	1.196112346392
13 harmonic	329.96998057905	1.427343958716
14 harmonic	543.5267831885	0.9716763312559


Angle Coeffs

1 harmonic	57.8982893754	126.8062420451
2 harmonic	201.41175231035	127.4691416191
3 harmonic	55.42182150775	117.3465570514
4 harmonic	63.44422595415	115.5071327674
5 harmonic	65.09061609600001	110.3538806181
6 harmonic	53.20531626545	116.5475862634
7 harmonic	48.776492647595	115.6030999533
8 harmonic	55.07882548015	112.8714009681
9 harmonic	33.56981613361	180


Dihedral Coeffs

1 fourier 1	1.809047390003	2	180
2 fourier 1	-0.04816277792592	1	0
3 fourier 1	0.4860993122944	2	180
4 fourier 1	0.8916986138746	1	0
5 fourier 1	1.163809172478	2	180
6 fourier 1	0.1679186987369	1	180
7 fourier 1	-0.1488678166443	4	180
8 fourier 1	-0.1230328948768	3	180
9 fourier 1	0.2939295466901	2	0
10 fourier 1	-0.3024127022865	1	0
11 fourier 1	0.182238503271	2	0
12 fourier 1	0.02972342374561	3	0
13 fourier 1	0.1918272375143	3	0
14 fourier 1	0.9202179876409	1	180
15 fourier 1	0.0473758381877	3	0
16 fourier 1	2.779853741805	2	180
17 fourier 1	0.1155372516788	3	0
18 fourier 1	0.09223874044423	3	0
19 fourier 1	0.3159935921949	2	180
20 fourier 1	0.3247796806857	1	180
21 fourier 1	0.1040663847541	3	0
22 fourier 1	3.101948770557	2	180
23 fourier 1	-0.4252153282372	1	0
24 fourier 1	0.9974165607242	2	180
25 fourier 1	2.348375642009	2	180
26 fourier 1	1.256156174911	1	0
27 fourier 1	0.1911926717192	3	0
28 fourier 1	0.1115525666802	3	0
29 fourier 1	0.3432490222662	1	0
30 fourier 1	0.457973137376	1	0
31 fourier 1	-1.382973039546	1	0
32 fourier 1	0	1	0
33 fourier 1	0.3445382149273	3	0
34 fourier 1	0.1364556373303	1	0
35 fourier 1	0.3026390167484	3	0


Improper Coeffs

1 3.5	-1	2
2 0.3333333333333333	-1	2
3 0.3666666666666667	-1	2


Atoms

1	1	1	-0.64376402	5.5929999	0.308	0.098999999
2	1	2	0.77389902	4.6459999	1.073	-0.22499999
3	1	3	-0.47497699	3.2980001	0.59799999	-0.25600001
4	1	4	0.019571999	2.967	-0.78899997	0.072999999
5	1	4	-0.14893	1.454	-1.039	0.015
6	1	4	-0.146659	0.71100003	-0.33000001	1.16
7	1	4	-0.146659	-0.78399998	-0.685	1.204
8	1	4	-0.150195	-1.574	-0.057999998	0.045000002
9	1	4	0.025576999	-3.075	-0.32100001	0.199
10	1	3	-0.53155601	-3.812	0.237	-0.93300003
11	1	2	0.535402	-4.0619998	1.6390001	-1.0779999
12	1	1	-0.73542601	-3.6559999	2.4619999	-0.215
13	1	5	0.30903	-4.224	-0.41499999	-1.637
14	1	6	0.037760999	-3.25	-1.419	0.237
15	1	6	0.037760999	-3.454	0.119	1.148
16	1	7	0.076710001	-1.39	1.038	0.024
17	1	7	0.076710001	-1.2359999	-0.491	-0.92000002
18	1	7	0.075833	-0.90899998	-1.79	1.194
19	1	7	0.075833	-1.197	-0.308	2.165
20	1	7	0.075833	1.164	-0.64300001	2.1270001
21	1	7	0.075833	0.82999998	0.77100003	1.076
22	1	7	0.076710001	1.278	-2.1340001	0.089000002
23	1	7	0.076710001	1.0700001	-0.69599998	-0.97000003
24	1	6	0.041166	3.467	-1.461	-0.65700001
25	1	6	0.041166	3.3499999	-1.0369999	1.087
26	1	5	0.31562099	2.55	1.27	-0.54100001
27	1	8	-0.50227499	9.7460003	6.5630002	-3.161
28	1	4	0.13780899	8.526	6.743	-3.8269999
29	1	4	-0.072889999	7.474	5.743	-3.3099999
30	1	4	-0.096336998	7.1129999	5.9580002	-1.817
31	1	4	-0.077064998	6.3670001	4.6900001	-1.33
32	1	4	-0.163063	6.092	4.658	0.178
33	1	4	-0.10088	4.6030002	4.335	0.33700001
34	1	4	-0.161936	3.9289999	4.822	-0.94999999
35	1	4	-0.080482997	5.0089998	4.802	-2.039
36	1	4	-0.110944	5.138	6.132	-2.825
37	1	4	-0.162374	6.1020002	5.908	-4.007
38	1	7	0.104226	5.8299999	5.006	-4.5970001
39	1	7	0.104226	6.0799999	6.7930002	-4.6820002
40	1	4	-0.143014	5.9920001	6.9759998	-1.906
41	1	7	0.098623	6.2989998	7.9419999	-2.365
42	1	7	0.098623	5.5079999	7.191	-0.92900002
43	1	7	0.110123	4.1700001	6.5939999	-3.1170001
44	1	7	0.115896	4.8400002	3.937	-2.7190001
45	1	7	0.104256	3.54	5.8520002	-0.78899997
46	1	7	0.104256	3.0650001	4.184	-1.239
47	1	4	0.13792101	4.3569999	2.835	0.58899999
48	1	8	-0.50130701	4.849	2.0599999	-0.47099999
49	1	6	0.077059001	3.2650001	2.6570001	0.708
50	1	6	0.077059001	4.8590002	2.5350001	1.5369999
51	1	7	0.099486999	4.1919999	4.8959999	1.207
52	1	7	0.104256	6.7410002	3.9070001	0.68199998
53	1	7	0.104256	6.3039999	5.6440001	0.64700001
54	1	7	0.115074	6.8959999	3.756	-1.628
55	1	7	0.120134	7.9660001	6.2589998	-1.17
56	1	7	0.106205	7.8649998	4.7150002	-3.483
57	1	6	0.074762002	8.1890001	7.789	-3.6689999
58	1	6	0.074762002	8.6680002	6.6040001	-4.9229999
59	1	1	-0.64376402	5.9320002	-2.7249999	-6.2800002
60	1	2	0.77389902	5.9809999	-1.469	-6.369
61	1	3	-0.47497699	6.8930001	-0.713	-5.5669999
62	1	4	0.019571999	7.7909999	-1.3609999	-4.6110001
63	1	4	-0.14893	8.7019997	-0.34400001	-3.911
64	1	4	-0.146659	9.7489996	0.245	-4.8730001
65	1	4	-0.146659	10.76	1.156	-4.158
66	1	4	-0.14893	10.142	2.4879999	-3.7090001
67	1	4	0.019571999	11.209	3.4189999	-3.1259999
68	1	3	-0.47497699	10.602	4.6630001	-2.6570001
69	1	2	0.77389902	10.171	5.698	-3.546
70	1	1	-0.64376402	10.306	5.5780001	-4.7930002
71	1	5	0.31562099	10.531	4.8330002	-1.628
72	1	6	0.041166	11.704	2.9130001	-2.2679999
73	1	6	0.041166	11.988	3.645	-3.8859999
74	1	7	0.076710001	9.6549997	2.98	-4.5780001
75	1	7	0.076710001	9.3710003	2.302	-2.931
76	1	7	0.075833	11.194	0.62400001	-3.283
77	1	7	0.075833	11.59	1.368	-4.868
78	1	7	0.075833	10.314	-0.59100002	-5.3410001
79	1	7	0.075833	9.25	0.81	-5.6890001
80	1	7	0.076710001	9.2250004	-0.85900003	-3.076
81	1	7	0.076710001	8.0749998	0.463	-3.477
82	1	6	0.041166	7.1820002	-1.883	-3.8410001
83	1	6	0.041166	8.4099998	-2.1229999	-5.1339998
84	1	5	0.31562099	6.8860002	0.32699999	-5.6700001
85	1	8	-0.50227499	-0.97799999	-1.227	-10.403
86	1	4	0.13780899	-0.83200002	0.014	-9.7670002
87	1	4	-0.072889999	0.493	0.068000004	-8.9820004
88	1	4	-0.096336998	1.743	-0.026000001	-9.8959999
89	1	4	-0.077064998	2.9590001	-0.345	-8.9890003
90	1	4	-0.163063	4.2540002	-0.64899999	-9.7519999
91	1	4	-0.10088	5.3379998	0.23800001	-9.1309996
92	1	4	-0.161936	4.6030002	1.444	-8.5380001
93	1	4	-0.080482997	3.174	0.97500002	-8.2329998
94	1	4	-0.110944	2.0699999	1.892	-8.8170004
95	1	4	-0.162374	0.70700002	1.425	-8.2690001
96	1	7	0.104226	0.72399998	1.309	-7.1630001
97	1	7	0.104226	-0.079000004	2.1670001	-8.5360003
98	1	4	-0.143014	1.983	1.429	-10.254
99	1	7	0.098623	1.141	1.898	-10.811
100	1	7	0.098623	2.9200001	1.597	-10.829
101	1	7	0.110123	2.2550001	2.9809999	-8.6890001
102	1	7	0.115896	3.053	0.83200002	-7.1360002
103	1	7	0.104256	4.6030002	2.2720001	-9.2819996
104	1	7	0.104256	5.0970001	1.827	-7.618
105	1	4	0.13792101	6.1680002	-0.514	-8.0719995
106	1	8	-0.50130701	5.3509998	-0.97899997	-7.0310001
107	1	6	0.077059001	6.9450002	0.169	-7.6620002
108	1	6	0.077059001	6.6859999	-1.373	-8.5550003
109	1	7	0.099486999	6.0359998	0.58200002	-9.9259996
110	1	7	0.104256	4.507	-1.73	-9.6850004
111	1	7	0.104256	4.1529999	-0.40099999	-10.831
112	1	7	0.115074	2.744	-1.178	-8.2819996
113	1	7	0.120134	1.6339999	-0.70899999	-10.766
114	1	7	0.106205	0.48100001	-0.755	-8.2329998
115	1	6	0.074762002	-0.86900002	0.81199998	-10.538
116	1	6	0.074762002	-1.686	0.186	-9.0719995
117	1	1	-0.64376402	1.987	-2.6210001	-0.41299999
118	1	2	0.77389902	1.474	-1.914	-1.321
119	1	3	-0.47497699	1.295	-2.4330001	-2.641
120	1	4	0.019571999	1.707	-3.7920001	-2.9920001
121	1	4	-0.14893	1.3660001	-4.1279998	-4.4499998
122	1	4	-0.146659	-0.15099999	-4.2680001	-4.6659999
123	1	4	-0.146659	-0.50400001	-4.7449999	-6.0840001
124	1	4	-0.14893	-0.25600001	-3.6670001	-7.1490002
125	1	4	0.019571999	-0.74599999	-4.132	-8.5240002
126	1	3	-0.47497699	-0.461	-3.119	-9.5389996
127	1	2	0.77389902	-1.222	-1.913	-9.665
128	1	1	-0.64376402	-2.1900001	-1.676	-8.8950005
129	1	5	0.31562099	0.29100001	-3.3050001	-10.24
130	1	6	0.041166	-0.222	-5.0739999	-8.7980003
131	1	6	0.041166	-1.837	-4.342	-8.5
132	1	7	0.076710001	-0.78899997	-2.7349999	-6.862
133	1	7	0.076710001	0.82999998	-3.4460001	-7.217
134	1	7	0.075833	0.077	-5.6609998	-6.329
135	1	7	0.075833	-1.582	-5.0180001	-6.0939999
136	1	7	0.075833	-0.54699999	-5.0159998	-3.9460001
137	1	7	0.075833	-0.662	-3.302	-4.46
138	1	7	0.076710001	1.86	-5.0890002	-4.7119999
139	1	7	0.076710001	1.783	-3.3380001	-5.1100001
140	1	6	0.041166	2.8069999	-3.881	-2.8540001
141	1	6	0.041166	1.215	-4.5219998	-2.312
142	1	5	0.31562099	0.875	-1.802	-3.3599999
143	1	8	-0.50227499	2.3889999	4.7909999	3.0350001
144	1	4	0.13780899	2.3659999	5.1799998	1.688
145	1	4	-0.072889999	2.1700001	3.9549999	0.77399999
146	1	4	-0.096336998	0.80000001	3.2579999	0.97899997
147	1	4	-0.077064998	0.88300002	1.863	0.308
148	1	4	-0.163063	-0.331	0.96200001	0.56999999
149	1	4	-0.10088	-0.787	0.447	-0.79900002
150	1	4	-0.161936	-0.32300001	1.495	-1.817
151	1	4	-0.080482997	0.88300002	2.2049999	-1.189
152	1	4	-0.110944	0.77700001	3.7509999	-1.191
153	1	4	-0.162374	2.1270001	4.3330002	-0.727
154	1	7	0.104226	2.9820001	3.892	-1.285
155	1	7	0.104226	2.1340001	5.4359999	-0.88
156	1	4	-0.143014	-0.090000004	4.0229998	0.017000001
157	1	7	0.098623	-0.178	5.1059999	0.25400001
158	1	7	0.098623	-1.115	3.5999999	-0.071999997
159	1	7	0.110123	0.40400001	4.1890001	-2.141
160	1	7	0.115896	1.8200001	1.8559999	-1.679
161	1	7	0.104256	-1.154	2.2090001	-2.007
162	1	7	0.104256	-0.048999999	1.039	-2.793
163	1	4	0.13792101	-0.22400001	-0.95300001	-1.11
164	1	8	-0.50130701	1.178	-0.94300002	-1.105
165	1	6	0.077059001	-0.59299999	-1.284	-2.1070001
166	1	6	0.077059001	-0.59600002	-1.676	-0.34900001
167	1	7	0.099486999	-1.898	0.377	-0.81800002
168	1	7	0.104256	-0.064999998	0.134	1.263
169	1	7	0.104256	-1.161	1.533	1.041
170	1	7	0.115074	1.812	1.319	0.59299999
171	1	7	0.120134	0.44100001	3.2349999	2.03
172	1	7	0.106205	3.0109999	3.25	0.96200001
173	1	6	0.074762002	1.546	5.915	1.5470001
174	1	6	0.074762002	3.319	5.6939998	1.426
175	1	1	-0.64376402	8.6040001	-1.507	-2.6429999
176	1	2	0.77389902	7.9860001	-0.41999999	-2.487
177	1	3	-0.47497699	7.276	-0.149	-1.275
178	1	4	0.019571999	7.23	-1.12	-0.18099999
179	1	4	-0.14893	6.4499998	-0.57599998	1.024
180	1	4	-0.146659	7.2090001	0.55800003	1.734
181	1	4	-0.146659	6.513	1.016	3.0250001
182	1	4	-0.14893	5.2160001	1.7920001	2.7539999
183	1	4	0.019571999	4.6259999	2.3469999	4.0549998
184	1	3	-0.47497699	3.3670001	3.0409999	3.7920001
185	1	2	0.77389902	3.309	4.342	3.2
186	1	1	-0.64376402	4.362	4.9559999	2.882
187	1	5	0.31562099	2.473	2.5969999	4.1009998
188	1	6	0.041166	4.434	1.5039999	4.756
189	1	6	0.041166	5.3429999	3.0420001	4.5440001
190	1	7	0.076710001	5.4260001	2.631	2.056
191	1	7	0.076710001	4.4650002	1.1210001	2.2850001
192	1	7	0.075833	6.3010001	0.13600001	3.6719999
193	1	7	0.075833	7.217	1.677	3.5769999
194	1	7	0.075833	8.2250004	0.19499999	2.0039999
195	1	7	0.075833	7.335	1.426	1.051
196	1	7	0.076710001	6.2909999	-1.411	1.7410001
197	1	7	0.076710001	5.454	-0.22400001	0.68099999
198	1	6	0.041166	6.73	-2.0439999	-0.54100001
199	1	6	0.041166	8.2639999	-1.386	0.12899999
200	1	5	0.31562099	6.77	0.76200002	-1.2
201	1	8	-0.50227499	8.4750004	1.284	-10.336
202	1	4	0.13780899	7.3530002	1.964	-9.8409996
203	1	4	-0.072889999	7.191	1.712	-8.3290005
204	1	4	-0.096336998	8.3660002	2.2809999	-7.4910002
205	1	4	-0.077064998	8.2819996	1.643	-6.0809999
206	1	4	-0.163063	9.4770002	1.96	-5.1719999
207	1	4	-0.10088	8.8900003	2.4579999	-3.848
208	1	4	-0.161936	7.5139999	3.039	-4.1919999
209	1	4	-0.080482997	7.0510001	2.3280001	-5.4699998
210	1	4	-0.110944	6.5949998	3.289	-6.5970001
211	1	4	-0.162374	5.9699998	2.451	-7.73
212	1	7	0.104226	5.2080002	1.739	-7.3460002
213	1	7	0.104226	5.4840002	3.125	-8.4709997
214	1	4	-0.143014	7.9060001	3.7030001	-7.2270002
215	1	7	0.098623	7.7719998	4.309	-8.151
216	1	7	0.098623	8.5699997	4.2639999	-6.5339999
217	1	7	0.110123	5.9549999	4.132	-6.2579999
218	1	7	0.115896	6.2620001	1.5829999	-5.2199998
219	1	7	0.104256	7.612	4.1350002	-4.355
220	1	7	0.104256	6.7789998	2.892	-3.3699999
221	1	4	0.13792101	8.8000002	1.3380001	-2.7939999
222	1	8	-0.50130701	7.993	0.285	-3.247
223	1	6	0.077059001	8.3789997	1.7539999	-1.851
224	1	6	0.077059001	9.823	0.958	-2.5739999
225	1	7	0.099486999	9.5389996	3.2620001	-3.4330001
226	1	7	0.104256	10.118	1.061	-5.0359998
227	1	7	0.104256	10.116	2.757	-5.6110001
228	1	7	0.115074	8.1409998	0.54000002	-6.131
229	1	7	0.120134	9.3649998	2.1949999	-7.9699998
230	1	7	0.106205	7.0830002	0.61500001	-8.1739998
231	1	6	0.074762002	7.4749999	3.046	-10.052
232	1	6	0.074762002	6.4369998	1.624	-10.377
233	1	1	-0.64376402	2.757	-5.131	-4.2800002
234	1	2	0.77389902	2.8670001	-4.098	-4.9920001
235	1	3	-0.47497699	4.0900002	-3.8050001	-5.6729999
236	1	4	0.019571999	5.257	-4.6810002	-5.5630002
237	1	4	-0.14893	6.4250002	-4.178	-6.4229999
238	1	4	-0.146659	6.1389999	-4.335	-7.9260001
239	1	4	-0.146659	7.3509998	-3.9719999	-8.7989998
240	1	4	-0.14893	7.6370001	-2.464	-8.8149996
241	1	4	0.019571999	8.7629995	-2.1289999	-9.7989998
242	1	3	-0.47497699	9.0600004	-0.69800001	-9.7690001
243	1	2	0.77389902	8.217	0.28099999	-10.386
244	1	1	-0.64376402	7.1690001	-0.059	-10.996
245	1	5	0.31562099	9.9530001	-0.37799999	-9.3319998
246	1	6	0.041166	9.677	-2.6930001	-9.5109997
247	1	6	0.041166	8.4829998	-2.4330001	-10.831
248	1	7	0.076710001	6.7150002	-1.916	-9.1070004
249	1	7	0.076710001	7.9419999	-2.1259999	-7.8010001
250	1	7	0.075833	8.2489996	-4.5250001	-8.4460001
251	1	7	0.075833	7.1370001	-4.3070002	-9.8380003
252	1	7	0.075833	5.8769999	-5.3959999	-8.1309996
253	1	7	0.075833	5.2670002	-3.7130001	-8.2220001
254	1	7	0.076710001	7.3299999	-4.7670002	-6.1609998
255	1	7	0.076710001	6.6240001	-3.1140001	-6.1739998
256	1	6	0.041166	5.5840001	-4.7119999	-4.5019999
257	1	6	0.041166	4.9819999	-5.7140002	-5.869
258	1	5	0.31562099	4.1339998	-2.9289999	-6.2410002
259	1	8	-0.50227499	-3.842	-0.92699999	-1.878
260	1	4	0.13780899	-3.053	0.14399999	-2.3210001
261	1	4	-0.072889999	-1.748	-0.37200001	-2.957
262	1	4	-0.096336998	-1.988	-1.2079999	-4.2420001
263	1	4	-0.077064998	-0.67400002	-1.97	-4.553
264	1	4	-0.163063	-0.79000002	-2.9879999	-5.6950002
265	1	4	-0.10088	0.37099999	-2.694	-6.651
266	1	4	-0.161936	0.713	-1.214	-6.4530001
267	1	4	-0.080482997	0.26300001	-0.85100001	-5.0320001
268	1	4	-0.110944	-0.63700002	0.40900001	-4.9569998
269	1	4	-0.162374	-0.84299999	0.77399999	-3.473
270	1	7	0.104226	0.12	0.81599998	-2.9200001
271	1	7	0.104226	-1.341	1.766	-3.3959999
272	1	4	-0.143014	-2	-0.138	-5.3169999
273	1	7	0.098623	-2.8139999	0.611	-5.1950002
274	1	7	0.098623	-2.053	-0.546	-6.3499999
275	1	7	0.110123	-0.296	1.26	-5.5840001
276	1	7	0.115896	1.152	-0.76200002	-4.368
277	1	7	0.104256	0.169	-0.61000001	-7.2119999
278	1	7	0.104256	1.799	-1.012	-6.586
279	1	4	0.13792101	1.5829999	-3.6099999	-6.3920002
280	1	8	-0.50130701	2.0610001	-3.4530001	-5.0830002
281	1	6	0.077059001	2.3900001	-3.3640001	-7.118
282	1	6	0.077059001	1.284	-4.6690001	-6.5570002
283	1	7	0.099486999	0.039000001	-2.8610001	-7.6999998
284	1	7	0.104256	-0.75700003	-4.0279999	-5.302
285	1	7	0.104256	-1.751	-2.872	-6.2410002
286	1	7	0.115074	-0.26300001	-2.4760001	-3.6500001
287	1	7	0.120134	-2.892	-1.854	-4.2150002
288	1	7	0.106205	-1.204	-0.96600002	-2.188
289	1	6	0.074762002	-3.641	0.73699999	-3.0510001
290	1	6	0.074762002	-2.812	0.81599998	-1.466
291	1	1	-0.64376402	6.1110001	-2.2520001	1.24
292	1	2	0.77389902	5.171	-1.5140001	0.83999997
293	1	3	-0.47497699	3.8610001	-2.046	0.62800002
294	1	4	0.019571999	3.563	-3.461	0.85399997
295	1	4	-0.14893	2.0810001	-3.773	0.60500002
296	1	4	-0.146659	1.176	-3.1559999	1.6849999
297	1	4	-0.146659	-0.29499999	-3.5780001	1.535
298	1	4	-0.14893	-0.97399998	-2.9289999	0.31999999
299	1	4	0.019571999	-2.4679999	-3.2650001	0.28299999
300	1	3	-0.47497699	-3.095	-2.6830001	-0.903
301	1	2	0.77389902	-3.3959999	-1.288	-1.0140001
302	1	1	-0.64376402	-3.1340001	-0.49200001	-0.074000001
303	1	5	0.31562099	-3.3900001	-3.3169999	-1.679
304	1	6	0.041166	-2.592	-4.3699999	0.25099999
305	1	6	0.041166	-2.9760001	-2.8889999	1.198
306	1	7	0.076710001	-0.84399998	-1.826	0.36899999
307	1	7	0.076710001	-0.50599998	-3.2980001	-0.61699998
308	1	7	0.075833	-0.36399999	-4.6849999	1.462
309	1	7	0.075833	-0.83499998	-3.267	2.4560001
310	1	7	0.075833	1.528	-3.4960001	2.684
311	1	7	0.075833	1.249	-2.0469999	1.664
312	1	7	0.076710001	1.952	-4.8779998	0.61000001
313	1	7	0.076710001	1.7970001	-3.3989999	-0.40099999
314	1	6	0.041166	4.177	-4.073	0.15899999
315	1	6	0.041166	3.8369999	-3.7409999	1.895
316	1	5	0.31562099	3.119	-1.3940001	0.28600001
317	1	8	-0.50227499	10.302	4.3319998	-1.224
318	1	4	0.13780899	9.1599998	4.4920001	-2.0220001
319	1	4	-0.072889999	8.1049995	3.4219999	-1.678
320	1	4	-0.096336998	7.5630002	3.5469999	-0.23
321	1	4	-0.077064998	6.829	2.2249999	0.108
322	1	4	-0.163063	6.382	2.1059999	1.5700001
323	1	4	-0.10088	4.902	1.711	1.5369999
324	1	4	-0.161936	4.3590002	2.2309999	0.20200001
325	1	4	-0.080482997	5.5580001	2.313	-0.75199997
326	1	4	-0.110944	5.7129998	3.684	-1.457
327	1	4	-0.162374	6.8169999	3.562	-2.526
328	1	7	0.104226	6.6609998	2.6789999	-3.1830001
329	1	7	0.104226	6.8309999	4.4770002	-3.158
330	1	4	-0.143014	6.4109998	4.5180001	-0.40700001
331	1	7	0.098623	6.7210002	5.5180001	-0.78299999
332	1	7	0.098623	5.8060002	4.6630001	0.51499999
333	1	7	0.110123	4.7639999	4.1170001	-1.842
334	1	7	0.115896	5.513	1.475	-1.484
335	1	7	0.104256	3.904	3.234	0.36000001
336	1	7	0.104256	3.5680001	1.571	-0.21600001
337	1	4	0.13792101	4.7030001	0.19	1.691
338	1	8	-0.50130701	5.3530002	-0.50800002	0.66399997
339	1	6	0.077059001	3.6140001	-0.041000001	1.6720001
340	1	6	0.077059001	5.105	-0.134	2.678
341	1	7	0.099486999	4.3660002	2.2090001	2.375
342	1	7	0.104256	7.0029998	1.36	2.1129999
343	1	7	0.104256	6.4889998	3.075	2.1040001
344	1	7	0.115074	7.434	1.331	-0.16599999
345	1	7	0.120134	8.3190002	3.852	0.52600002
346	1	7	0.106205	8.5640001	2.4219999	-1.849
347	1	6	0.074762002	8.7559996	5.513	-1.859
348	1	6	0.074762002	9.4350004	4.4130001	-3.098
349	1	1	-0.64376402	7.3400002	-4.947	-5.1820002
350	1	2	0.77389902	7.3369999	-3.687	-5.2080002
351	1	3	-0.47497699	8.1099997	-2.9330001	-4.2709999
352	1	4	0.019571999	8.9219999	-3.5880001	-3.2449999
353	1	4	-0.14893	9.6940002	-2.5669999	-2.398
354	1	4	-0.146659	10.815	-1.887	-3.201
355	1	4	-0.146659	11.69	-0.96899998	-2.332
356	1	4	-0.14893	10.959	0.31099999	-1.901
357	1	4	0.019571999	11.903	1.258	-1.155
358	1	3	-0.47497699	11.185	2.4489999	-0.70599997
359	1	2	0.77389902	10.81	3.507	-1.594
360	1	1	-0.64376402	11.096	3.4560001	-2.8199999
361	1	5	0.31562099	10.987	2.5639999	0.31299999
362	1	6	0.041166	12.319	0.73199999	-0.26699999
363	1	6	0.041166	12.754	1.5549999	-1.806
364	1	7	0.076710001	10.553	0.824	-2.799
365	1	7	0.076710001	10.113	0.052999999	-1.229
366	1	7	0.075833	12.045	-1.524	-1.436
367	1	7	0.075833	12.586	-0.68599999	-2.928
368	1	7	0.075833	11.472	-2.6719999	-3.6359999
369	1	7	0.075833	10.388	-1.304	-4.0450001
370	1	7	0.076710001	10.14	-3.1010001	-1.53
371	1	7	0.076710001	8.9809999	-1.811	-2.006
372	1	6	0.041166	8.2539997	-4.1729999	-2.5769999
373	1	6	0.041166	9.6339998	-4.2950001	-3.724
374	1	5	0.31562099	8.0640001	-1.891	-4.3280001
375	1	8	-0.50227499	0.89200002	-3.55	-10.025
376	1	4	0.13780899	0.90100002	-2.3369999	-9.3219995
377	1	4	-0.072889999	2.1210001	-2.2639999	-8.3839998
378	1	4	-0.096336998	3.4719999	-2.257	-9.1459999
379	1	4	-0.077064998	4.5890002	-2.5669999	-8.1160002
380	1	4	-0.163063	5.9770002	-2.777	-8.7329998
381	1	4	-0.10088	6.9359999	-1.875	-7.9489999
382	1	4	-0.161936	6.0780001	-0.73299998	-7.395
383	1	4	-0.080482997	4.6490002	-1.279	-7.283
384	1	4	-0.110944	3.576	-0.38299999	-7.9530001
385	1	4	-0.162374	2.184	-0.93599999	-7.5910001
386	1	7	0.104226	2.0769999	-1.1059999	-6.4970002
387	1	7	0.104226	1.398	-0.21699999	-7.9159999
388	1	4	-0.143014	3.6800001	-0.778	-9.408
389	1	7	0.098623	2.8870001	-0.31900001	-10.04
390	1	7	0.098623	4.6680002	-0.54100001	-9.8599997
391	1	7	0.110123	3.6919999	0.70499998	-7.7550001
392	1	7	0.115896	4.408	-1.4809999	-6.2150002
393	1	7	0.104256	6.1240001	0.13	-8.0959997
394	1	7	0.104256	6.4429998	-0.375	-6.4070001
395	1	4	0.13792101	7.6729999	-2.642	-6.8330002
396	1	8	-0.50130701	6.7649999	-3.1930001	-5.9190001
397	1	6	0.077059001	8.3629999	-1.946	-6.3039999
398	1	6	0.077059001	8.2860003	-3.4519999	-7.2880001
399	1	7	0.099486999	7.7049999	-1.461	-8.6400003
400	1	7	0.104256	6.2729998	-3.848	-8.684
401	1	7	0.104256	5.9899998	-2.48	-9.8039999
402	1	7	0.115074	4.3340001	-3.444	-7.4780002
403	1	7	0.120134	3.5	-2.901	-10.052
404	1	7	0.106205	2.063	-3.1229999	-7.6789999
405	1	6	0.074762002	0.91399997	-1.5039999	-10.056
406	1	6	0.074762002	-0.035	-2.237	-8.7259998
407	1	1	-0.64376402	2.737	-5.3070002	0.175
408	1	2	0.77389902	2.299	-4.579	-0.755
409	1	3	-0.47497699	2.302	-5.039	-2.109
410	1	4	0.019571999	2.8180001	-6.3600001	-2.4690001
411	1	4	-0.14893	2.6659999	-6.638	-3.97
412	1	4	-0.146659	1.194	-6.8330002	-4.3709998
413	1	4	-0.146659	1.0319999	-7.2540002	-5.8400002
414	1	4	-0.14893	1.349	-6.1139998	-6.8200002
415	1	4	0.019571999	1.046	-6.5320001	-8.2629995
416	1	3	-0.47497699	1.397	-5.4580002	-9.1899996
417	1	2	0.77389902	0.597	-4.2820001	-9.3520002
418	1	1	-0.64376402	-0.465	-4.1259999	-8.6929998
419	1	5	0.31562099	2.234	-5.5760002	-9.8050003
420	1	6	0.041166	1.6440001	-7.4349999	-8.5139999
421	1	6	0.041166	-0.028999999	-6.79	-8.3769999
422	1	7	0.076710001	0.741	-5.2220001	-6.5570002
423	1	7	0.076710001	2.424	-5.8429999	-6.7490001
424	1	7	0.075833	1.682	-8.1309996	-6.0549998
425	1	7	0.075833	-0.023	-7.573	-5.9899998
426	1	7	0.075833	0.75300002	-7.6329999	-3.7360001
427	1	7	0.075833	0.61500001	-5.902	-4.184
428	1	7	0.076710001	3.234	-7.5619998	-4.2129998
429	1	7	0.076710001	3.1170001	-5.7979999	-4.54
430	1	6	0.041166	3.8970001	-6.408	-2.2049999
431	1	6	0.041166	2.2869999	-7.1430001	-1.885
432	1	5	0.31562099	1.938	-4.3920002	-2.845
433	1	8	-0.15458301	2.369	1.9349999	3.97
434	1	4	0.058713	2.484	2.3889999	2.6489999
435	1	4	-0.065892003	2.457	1.2029999	1.664
436	1	4	-0.097369999	1.108	0.43700001	1.674
437	1	4	-0.076396003	1.3380001	-0.91799998	0.95700002
438	1	4	-0.163063	0.147	-1.882	1.033
439	1	4	-0.10088	-0.12	-2.348	-0.40200001
440	1	4	-0.161936	0.40599999	-1.232	-1.3099999
441	1	4	-0.080482997	1.495	-0.50199997	-0.51300001
442	1	4	-0.110322	1.314	1.0369999	-0.45899999
443	1	4	-0.163461	2.5699999	1.653	0.18700001
444	1	7	0.104199	3.5050001	1.279	-0.285
445	1	7	0.104199	2.54	2.7609999	0.083999999
446	1	4	-0.14257599	0.29899999	1.209	0.64899999
447	1	7	0.098623	0.131	2.2750001	0.921
448	1	7	0.098623	-0.68599999	0.74800003	0.41999999
449	1	7	0.110123	1.0319999	1.505	-1.427
450	1	7	0.115896	2.4990001	-0.78500003	-0.903
451	1	7	0.104256	-0.43099999	-0.546	-1.566
452	1	7	0.104256	0.815	-1.626	-2.266
453	1	4	0.13792101	0.54400003	-3.7049999	-0.70499998
454	1	8	-0.50130701	1.933	-3.6340001	-0.53399998
455	1	6	0.077059001	0.31	-4.0019999	-1.752
456	1	6	0.077059001	0.121	-4.48	-0.027000001
457	1	7	0.099486999	-1.217	-2.4660001	-0.55500001
458	1	7	0.104256	0.37	-2.7309999	1.716
459	1	7	0.104256	-0.759	-1.373	1.427
460	1	7	0.115074	2.253	-1.434	1.326
461	1	7	0.120472	0.63	0.347	2.674
462	1	7	0.109957	3.3039999	0.52700001	1.92
463	1	6	0.085041001	1.651	3.0929999	2.444
464	1	6	0.085041001	3.434	2.957	2.5239999
465	1	1	-0.73542601	-5.77	1.549	-2.1619999
466	1	2	0.535402	-4.6149998	1.998	-1.936
467	1	3	-0.53155601	-4.026	2.9749999	-2.799
468	1	4	0.025576999	-4.7350001	3.4860001	-3.9719999
469	1	4	-0.150195	-3.8829999	4.5229998	-4.7150002
470	1	4	-0.14647	-4.645	5.2210002	-5.8540001
471	1	4	-0.142243	-5.0100002	4.2800002	-7.0219998
472	1	4	-0.12645601	-6.4879999	3.8599999	-6.9879999
473	1	4	0.17914601	-6.8109999	2.8859999	-8.1219997
474	1	3	-0.704831	-8.2259998	2.5339999	-8.0780001
475	1	9	0.58964002	-8.6169996	1.332	-7.934
476	1	1	-0.54175502	-8.9969997	0.163	-7.7930002
477	1	6	0.018956	-6.5939999	3.3659999	-9.1000004
478	1	6	0.018956	-6.171	1.978	-8.0290003
479	1	7	0.070418999	-7.1279998	4.763	-7.092
480	1	7	0.070418999	-6.7280002	3.3759999	-6.0180001
481	1	7	0.074574001	-4.8249998	4.8150001	-7.9790001
482	1	7	0.074574001	-4.3559999	3.3800001	-7.02
483	1	7	0.075833	-3.9820001	6.0219998	-6.25
484	1	7	0.075833	-5.546	5.7319999	-5.4489999
485	1	7	0.076710001	-3.559	5.302	-3.9920001
486	1	7	0.076710001	-2.9679999	4.0349998	-5.1170001
487	1	6	0.037760999	-5.6890001	3.954	-3.645
488	1	6	0.037760999	-4.961	2.6359999	-4.6500001
489	1	5	0.30903	-3.0639999	3.3139999	-2.5710001
490	1	8	-0.152941	3.2449999	1.5369999	4.2119999
491	1	4	0.058832001	3.8069999	2.3440001	5.2160001
492	1	4	-0.092970997	3.6919999	1.679	6.6009998
493	1	4	-0.16286001	4.3899999	0.31600001	6.6719999
494	1	4	-0.079815999	3.5120001	-0.60399997	7.5289998
495	1	4	-0.075733997	2.165	0.096000001	7.7379999
496	1	4	-0.163993	2.2409999	1.4680001	7.0510001
497	1	7	0.10415	1.921	2.289	7.7290001
498	1	7	0.10415	1.5470001	1.47	6.1830001
499	1	4	-0.090971	2.0510001	0.169	9.2869997
500	1	4	-0.14257599	3.487	0.414	9.7010002
501	1	4	-0.110322	4.026	-0.80400002	8.9790001
502	1	4	-0.157938	3.197	-1.931	9.6280003
503	1	4	-0.108454	1.835	-1.2460001	9.8859997
504	1	4	0.136439	0.62900001	-2.0239999	9.3249998
505	1	10	-0.68592101	0.30399999	-3.0929999	10.172
506	1	11	0.367713	0.972	-3.8069999	10.001
507	1	6	0.068048999	0.82700002	-2.4059999	8.2980003
508	1	6	0.068048999	-0.248	-1.345	9.2729998
509	1	7	0.110059	1.684	-1.132	10.985
510	1	7	0.104199	3.661	-2.2420001	10.59
511	1	7	0.104199	3.125	-2.823	8.967
512	1	7	0.110123	5.1230001	-0.95099998	9.0690002
513	1	7	0.098623	3.641	0.368	10.805
514	1	7	0.098623	3.905	1.373	9.3339996
515	1	7	0.120472	1.33	0.926	9.6639996
516	1	7	0.115074	1.331	-0.479	7.2839999
517	1	7	0.115896	3.3829999	-1.582	7.0110002
518	1	7	0.10415	5.414	0.42199999	7.092
519	1	7	0.10415	4.4899998	-0.134	5.6599998
520	1	7	0.102121	4.1859999	2.3610001	7.3270001
521	1	6	0.085134998	4.882	2.5009999	4.98
522	1	6	0.085134998	3.3280001	3.3510001	5.2449999

Bonds

1	1	1	2
2	2	2	3
3	3	2	48
4	4	3	4
5	5	3	26
6	6	4	5
7	7	4	24
8	7	4	25
9	6	5	6
10	7	5	22
11	7	5	23
12	6	6	7
13	7	6	20
14	7	6	21
15	6	7	8
16	7	7	18
17	7	7	19
18	6	8	9
19	7	8	16
20	7	8	17
21	4	9	10
22	7	9	14
23	7	9	15
24	2	10	11
25	5	10	13
26	1	11	12
27	8	11	466
28	9	27	28
29	3	27	69
30	6	28	29
31	7	28	57
32	7	28	58
33	6	29	30
34	7	29	56
35	6	29	37
36	6	30	31
37	7	30	55
38	6	30	40
39	6	31	32
40	7	31	54
41	6	31	35
42	6	32	33
43	7	32	52
44	7	32	53
45	6	33	34
46	6	33	47
47	7	33	51
48	6	34	35
49	7	34	45
50	7	34	46
51	6	35	36
52	7	35	44
53	6	36	37
54	6	36	40
55	7	36	43
56	7	37	38
57	7	37	39
58	7	40	41
59	7	40	42
60	9	47	48
61	7	47	49
62	7	47	50
63	1	59	60
64	2	60	61
65	3	60	106
66	4	61	62
67	5	61	84
68	6	62	63
69	7	62	82
70	7	62	83
71	6	63	64
72	7	63	80
73	7	63	81
74	6	64	65
75	7	64	78
76	7	64	79
77	6	65	66
78	7	65	76
79	7	65	77
80	6	66	67
81	7	66	74
82	7	66	75
83	4	67	68
84	7	67	72
85	7	67	73
86	2	68	69
87	5	68	71
88	1	69	70
89	9	85	86
90	3	85	127
91	6	86	87
92	7	86	115
93	7	86	116
94	6	87	88
95	7	87	114
96	6	87	95
97	6	88	89
98	7	88	113
99	6	88	98
100	6	89	90
101	7	89	112
102	6	89	93
103	6	90	91
104	7	90	110
105	7	90	111
106	6	91	92
107	6	91	105
108	7	91	109
109	6	92	93
110	7	92	103
111	7	92	104
112	6	93	94
113	7	93	102
114	6	94	95
115	6	94	98
116	7	94	101
117	7	95	96
118	7	95	97
119	7	98	99
120	7	98	100
121	9	105	106
122	7	105	107
123	7	105	108
124	1	117	118
125	2	118	119
126	3	118	164
127	4	119	120
128	5	119	142
129	6	120	121
130	7	120	140
131	7	120	141
132	6	121	122
133	7	121	138
134	7	121	139
135	6	122	123
136	7	122	136
137	7	122	137
138	6	123	124
139	7	123	134
140	7	123	135
141	6	124	125
142	7	124	132
143	7	124	133
144	4	125	126
145	7	125	130
146	7	125	131
147	2	126	127
148	5	126	129
149	1	127	128
150	9	143	144
151	3	143	185
152	6	144	145
153	7	144	173
154	7	144	174
155	6	145	146
156	7	145	172
157	6	145	153
158	6	146	147
159	7	146	171
160	6	146	156
161	6	147	148
162	7	147	170
163	6	147	151
164	6	148	149
165	7	148	168
166	7	148	169
167	6	149	150
168	6	149	163
169	7	149	167
170	6	150	151
171	7	150	161
172	7	150	162
173	6	151	152
174	7	151	160
175	6	152	153
176	6	152	156
177	7	152	159
178	7	153	154
179	7	153	155
180	7	156	157
181	7	156	158
182	9	163	164
183	7	163	165
184	7	163	166
185	1	175	176
186	2	176	177
187	3	176	222
188	4	177	178
189	5	177	200
190	6	178	179
191	7	178	198
192	7	178	199
193	6	179	180
194	7	179	196
195	7	179	197
196	6	180	181
197	7	180	194
198	7	180	195
199	6	181	182
200	7	181	192
201	7	181	193
202	6	182	183
203	7	182	190
204	7	182	191
205	4	183	184
206	7	183	188
207	7	183	189
208	2	184	185
209	5	184	187
210	1	185	186
211	9	201	202
212	3	201	243
213	6	202	203
214	7	202	231
215	7	202	232
216	6	203	204
217	7	203	230
218	6	203	211
219	6	204	205
220	7	204	229
221	6	204	214
222	6	205	206
223	7	205	228
224	6	205	209
225	6	206	207
226	7	206	226
227	7	206	227
228	6	207	208
229	6	207	221
230	7	207	225
231	6	208	209
232	7	208	219
233	7	208	220
234	6	209	210
235	7	209	218
236	6	210	211
237	6	210	214
238	7	210	217
239	7	211	212
240	7	211	213
241	7	214	215
242	7	214	216
243	9	221	222
244	7	221	223
245	7	221	224
246	1	233	234
247	2	234	235
248	3	234	280
249	4	235	236
250	5	235	258
251	6	236	237
252	7	236	256
253	7	236	257
254	6	237	238
255	7	237	254
256	7	237	255
257	6	238	239
258	7	238	252
259	7	238	253
260	6	239	240
261	7	239	250
262	7	239	251
263	6	240	241
264	7	240	248
265	7	240	249
266	4	241	242
267	7	241	246
268	7	241	247
269	2	242	243
270	5	242	245