Title

9250 atoms
9375 bonds
16000 angles
26500 dihedrals
6000 impropers

12 atom types
18 bond types
10 angle types
33 dihedral types
3 improper types
-6.91200971 77.78429444 xlo xhi
-6.955207815 77.90344865 ylo yhi
-7.540136106 78.04628218 zlo zhi
0.0 0.0 0.0 xy xz yz

Masses

1	12.01078
2	15.99943
3	14.00672
4	12.01078
5	1.007947
6	1.007947
7	1.007947
8	15.99943
9	1.007947
10	12.01078
11	15.99943
12	1.007947


Pair Coeffs

1	0.086879315	3.4806469
2	0.2102061	3.0398122
3	0.16769152	3.206876
4	0.10884061	3.3795318
5	0.014090815	1.1034277
6	0.016409246	2.5832257
7	0.015779483	2.6445434
8	0.16846514	3.0251065
9	0.015611343	2.5725815
10	0.21	3.3996695
11	0.20947353	2.99716
12	1.2326e-05	0.53453923

Bond Coeffs

1 harmonic	582.698766451	1.225198386222
2 harmonic	492.76746816345	1.381897776683
3 harmonic	279.1350963404	1.454628925034
4 harmonic	352.0565580496	1.450098586273
5 harmonic	505.144496193	1.019481865027
6 harmonic	264.62148576755	1.52190126495
7 harmonic	370.04670688625	1.093899492634
8 harmonic	301.15400723785	1.345741232799
9 harmonic	366.7408841747	1.425895053732
10 harmonic	289.73813263395	1.498646816465
11 harmonic	445.3060766333	1.328776712165
12 harmonic	360.7852444772	1.387193227181
13 harmonic	300.03137914615	1.451203938761
14 harmonic	397.2545789619	1.085358495916
15 harmonic	366.34047229585	1.464762957261
16 harmonic	602.81384337	1.196112346392
17 harmonic	329.96998057905	1.427343958716
18 harmonic	543.5267831885	0.9716763312559


Angle Coeffs

1 harmonic	55.42182150775	117.3465570514
2 harmonic	63.44422595415	115.5071327674
3 harmonic	57.8982893754	126.8062420451
4 harmonic	53.20531626545	116.5475862634
5 harmonic	65.09061609600001	110.3538806181
6 harmonic	201.41175231035	127.4691416191
7 harmonic	48.776492647595	115.6030999533
8 harmonic	55.07882548015	112.8714009681
9 harmonic	34.066775159195	129.1835929926
10 harmonic	33.56981613361	180


Dihedral Coeffs

1 fourier 1	-0.1488678166443	4	180
2 fourier 1	-0.1230328948768	3	180
3 fourier 1	0.2939295466901	2	0
4 fourier 1	-0.3024127022865	1	0
5 fourier 1	0.182238503271	2	0
6 fourier 1	0.02972342374561	3	0
7 fourier 1	1.809047390003	2	180
8 fourier 1	-0.04816277792592	1	0
9 fourier 1	3.101948770557	2	180
10 fourier 1	-0.4252153282372	1	0
11 fourier 1	2.348375642009	2	180
12 fourier 1	1.256156174911	1	0
13 fourier 1	0.9974165607242	2	180
14 fourier 1	0.1155372516788	3	0
15 fourier 1	0.09223874044423	3	0
16 fourier 1	0.3159935921949	2	180
17 fourier 1	0.3247796806857	1	180
18 fourier 1	0.1040663847541	3	0
19 fourier 1	2.779853741805	2	180
20 fourier 1	0.0473758381877	3	0
21 fourier 1	0.4860993122944	2	180
22 fourier 1	0.8916986138746	1	0
23 fourier 1	1.163809172478	2	180
24 fourier 1	0.1679186987369	1	180
25 fourier 1	0.1911926717192	3	0
26 fourier 1	0.02664938770063	3	0
27 fourier 1	3.731869940596	2	180
28 fourier 1	3.661930099076	2	180
29 fourier 1	5.913282223828	2	180
30 fourier 1	0.457973137376	1	0
31 fourier 1	-1.382973039546	1	0
32 fourier 1	0	1	0
33 fourier 1	0.3026390167484	3	0


Improper Coeffs

1 0.3333333333333333	-1	2
2 0.3666666666666667	-1	2
3 3.5	-1	2


Atoms

1	6	1	0.55335695	-0.85491096	3.2398783	-0.091277624
2	6	2	-0.61927563	-1.0460845	4.2182236	0.67934434
3	6	3	-0.50952023	0.19510035	3.2657489	-1.0615173
4	6	4	0.036931908	1.0908002	4.4166276	-1.1911833
5	6	4	-0.14036807	2.0987909	4.2226685	-2.3308431
6	6	4	-0.13904141	1.4250591	4.2969973	-3.710827
7	6	4	0.031316406	2.4407622	4.1447338	-4.8505222
8	6	3	-0.45107367	3.0694133	2.8241241	-4.8285948
9	6	1	0.79055852	2.3896071	1.6346034	-5.2408022
10	6	2	-0.56332689	1.2025707	1.6796657	-5.6607117
11	6	5	0.33954904	4.0739323	2.7499346	-4.5527444
12	6	6	0.078385683	1.9344987	4.3007187	-5.8274582
13	6	6	0.078385683	3.2232707	4.9285229	-4.753034
14	6	7	0.10443706	0.64471454	3.5127905	-3.8005601
15	6	7	0.10443706	0.92505086	5.2844018	-3.8188319
16	6	7	0.10443706	2.612988	3.2450789	-2.2039612
17	6	7	0.10443706	2.8666397	5.0229848	-2.2602239
18	6	6	0.074594485	0.49495585	5.3380702	-1.3679375
19	6	6	0.074594485	1.649745	4.5452016	-0.23863753
20	6	5	0.33297718	0.31858037	2.4248485	-1.6691653
21	7	8	-0.48918643	2.8815862	0.72201569	-5.2004137
22	7	4	0.17030846	3.7850869	0.80086657	-4.1326384
23	7	1	0.2115863	3.0573182	0.6496224	-2.8316116
24	7	3	-0.64837396	2.8688283	-0.53792557	-2.3274466
25	7	1	0.25212988	2.1467554	-0.73995342	-1.097796
26	7	4	0.076968292	1.944204	-2.1315085	-0.58341555
27	7	8	-0.11434023	0.67747584	-2.5885634	-0.96544918
28	7	6	0.10953956	2.7275081	-2.7975985	-1.0054875
29	7	6	0.10953956	2.0352311	-2.1430144	0.52683788
30	7	1	-0.34258106	1.6149914	0.31547577	-0.45918634
31	7	9	0.21566333	1.0489826	0.18681847	0.45492376
32	7	1	-0.14438633	1.8010645	1.6693435	-1.0154848
33	7	9	0.226392	1.3777001	2.5256485	-0.50643243
34	7	1	-0.34944549	2.48837	1.8338489	-2.1505452
35	7	9	0.21549276	2.6217983	2.8253045	-2.5651893
36	7	6	0.093361708	4.3393928	1.7662239	-4.1588537
37	7	6	0.093361708	4.5338733	-0.013406611	-4.2379151
38	4	1	0.55335701	-1.4944764	2.3706765	-0.016751469
39	4	2	-0.61927569	-1.9752465	1.8631585	-1.0646449
40	4	3	-0.50952029	-1.7840177	1.8116351	1.2673021
41	4	4	0.03721886	-2.6427564	0.63815552	1.4166425
42	4	4	-0.1352722	-2.786386	0.25089412	2.8921807
43	4	4	-0.11739121	-3.6856175	-0.97971899	3.0554167
44	4	4	0.19106744	-3.8255432	-1.3682877	4.5325589
45	4	3	-0.55907345	-4.7300373	-2.5023575	4.6912444
46	4	10	0.59833277	-4.4292701	-3.6682197	4.2765812
47	4	2	-0.36928469	-4.1360989	-4.8003141	3.8726903
48	4	6	0.049547276	-4.2426866	-0.50824008	5.0988764
49	4	6	0.049547276	-2.8303954	-1.6165295	4.9643804
50	4	7	0.0982371	-4.6943685	-0.75909377	2.6406034
51	4	7	0.0982371	-3.2486465	-1.8316816	2.4898046
52	4	7	0.10346996	-1.7790013	0.030549004	3.3110008
53	4	7	0.10346996	-3.2234796	1.1067122	3.45249
54	4	6	0.074594485	-2.2005334	-0.21132397	0.85214858
55	4	6	0.074594485	-3.6465392	0.86421088	0.99415915
56	4	5	0.33297721	-1.3612426	2.2687382	2.1075205
57	5	8	-0.11434023	0.59525752	-3.5080132	-0.59977136
58	5	4	0.076968277	1.3557729	-3.5407671	0.57629309
59	5	1	0.25468979	0.61531861	-2.8583474	1.6864336
60	5	3	-0.64422279	-0.20806413	-3.5400375	2.4323937
61	5	1	0.20168397	-0.96819266	-2.924894	3.4901144
62	5	4	0.14699859	-1.9143565	-3.7589007	4.296947
63	5	11	-0.66850215	-3.2105971	-3.6144017	3.7881737
64	5	12	0.39507962	-3.7931714	-4.182446	4.3562352
65	5	6	0.088148678	-1.6052311	-4.8254419	4.2413207
66	5	6	0.088148678	-1.8858987	-3.4412346	5.3636013
67	5	1	-0.34301582	-0.86244539	-1.6022138	3.700503
68	5	9	0.21566333	-1.4410717	-1.1128349	4.4747627
69	5	1	-0.14250946	0.051659085	-0.80463529	2.8613257
70	5	9	0.226392	0.14321989	0.26091362	3.0252041
71	5	1	-0.34258103	0.75830865	-1.399904	1.8952892
72	5	9	0.21566335	1.4255453	-0.81693865	1.2729446
73	5	6	0.10953956	2.3462398	-3.0596712	0.41570366
74	5	6	0.10953956	1.5432767	-4.6010567	0.85087142
75	6	1	0.55335695	-1.1730589	1.5225913	17.881749
76	6	2	-0.61927563	-2.2622165	1.7940174	18.454138
77	6	3	-0.50952023	-0.21252128	0.66500554	18.503418
78	6	4	0.036931908	-0.45775069	0.063360984	19.815477
79	6	4	-0.14036807	0.73828967	-0.77377769	20.285771
80	6	4	-0.13904141	1.943534	0.10601364	20.656107
81	6	4	0.031316406	3.124692	-0.72976881	21.166083
82	6	3	-0.45107367	3.6360084	-1.6184391	20.122764
83	6	1	0.79055852	4.4122097	-1.1493335	19.01621
84	6	2	-0.56332689	4.7040069	0.070905197	18.900962
85	6	5	0.33954904	3.4760749	-2.64634	20.214943
86	6	6	0.078385683	3.937663	-0.056849427	21.514358
87	6	6	0.078385683	2.7972574	-1.3347963	22.039511
88	6	7	0.10443706	2.2640853	0.70766258	19.780187
89	6	7	0.10443706	1.6440666	0.81358794	21.460034
90	6	7	0.10443706	1.0175971	-1.4959016	19.487834
91	6	7	0.10443706	0.42863365	-1.3570065	21.179663
92	6	6	0.074594485	-0.67560467	0.86017298	20.55909
93	6	6	0.074594485	-1.3499136	-0.5966058	19.746317
94	6	5	0.33297718	0.67016588	0.46264481	17.982351
95	7	8	-0.48918643	4.7460731	-1.8228995	18.301133
96	7	4	0.17030846	3.7889454	-2.8437567	18.234558
97	7	1	0.2115863	2.5902375	-2.3748885	17.46745
98	7	3	-0.64837396	2.5500761	-2.5215746	16.172517
99	7	1	0.25212988	1.4366844	-2.0578528	15.385392
100	7	4	0.076968292	1.4616418	-2.2355786	13.898842
101	7	8	-0.11434023	1.8988589	-1.0501997	13.296208
102	7	6	0.10953956	2.1524459	-3.066653	13.639051
103	7	6	0.10953956	0.44349002	-2.4979251	13.530573
104	7	1	-0.34258106	0.41817817	-1.4209918	15.986706
105	7	9	0.21566333	-0.4194605	-1.0435168	15.413653
106	7	1	-0.14438633	0.44489179	-1.2288143	17.449376
107	7	9	0.226392	-0.37250298	-0.71849373	17.942396
108	7	1	-0.34944549	1.4821853	-1.6815542	18.161318
109	7	9	0.21549276	1.508281	-1.5369584	19.234225
110	7	6	0.093361708	3.4934032	-3.1710698	19.256995
111	7	6	0.093361708	4.2387813	-3.721867	17.72331
112	4	1	0.55335701	-0.96366201	1.9449853	16.908175
113	4	2	-0.61927569	0.16244946	2.4643546	16.686989
114	4	3	-0.50952029	-1.9659178	1.9075226	15.888747
115	4	4	0.03721886	-1.7280394	2.4656786	14.558835
116	4	4	-0.1352722	-2.9613993	2.2939453	13.666005
117	4	4	-0.11739121	-2.7179872	2.8769788	12.269404
118	4	4	0.19106744	-3.9520978	2.7011465	11.375778
119	4	3	-0.55907345	-3.7405736	3.3103265	10.066747
120	4	10	0.59833277	-2.904325	2.8384112	9.2303108
121	4	2	-0.36928469	-2.0910747	2.3792797	8.4188078
122	4	6	0.049547276	-4.8235091	3.1973775	11.854111
123	4	6	0.049547276	-4.19272	1.6214078	11.254624
124	4	7	0.0982371	-2.4838197	3.9613857	12.356301
125	4	7	0.0982371	-1.8488776	2.3632072	11.803155
126	4	7	0.10346996	-3.1994753	1.2102952	13.577642
127	4	7	0.10346996	-3.827032	2.8094702	14.137531
128	4	6	0.074594485	-0.86052887	1.9471885	14.095776
129	4	6	0.074594485	-1.4884395	3.5476245	14.654532
130	4	5	0.33297721	-2.8848979	1.4656785	16.120907
131	5	8	-0.11434023	1.8949411	-1.2214446	12.318186
132	5	4	0.076968277	0.86911143	-2.1446224	12.077354
133	5	1	0.25468979	-0.46228888	-1.4580961	12.126708
134	5	3	-0.64422279	-0.95683955	-0.92280174	11.045969
135	5	1	0.20168397	-2.2161007	-0.22335256	11.047471
136	5	4	0.14699859	-2.7189794	0.38888322	9.7770171
137	5	11	-0.66850215	-2.3890824	1.7492639	9.7546059
138	5	12	0.39507962	-2.7445601	2.1036841	8.8985785
139	5	6	0.088148678	-2.2515666	-0.12579399	8.9093792
140	5	6	0.088148678	-3.8228655	0.26310885	9.7056783
141	5	1	-0.34301582	-2.8935826	-0.079047533	12.198611
142	5	9	0.21566333	-3.8313514	0.46263135	12.229459
143	5	1	-0.14250946	-2.3494254	-0.66301194	13.439101
144	5	9	0.226392	-2.8895737	-0.5520395	14.369992
145	5	1	-0.34258103	-1.1860921	-1.3208636	13.410609
146	5	9	0.21566335	-0.78010452	-1.7454352	14.320157
147	5	6	0.10953956	0.90695855	-2.9742047	12.818048
148	5	6	0.10953956	1.0200412	-2.5917737	11.071351
149	6	1	0.55335695	-1.6803274	-0.23114958	33.162289
150	6	2	-0.61927563	-2.197856	-1.0936836	33.92108
151	6	3	-0.50952023	-0.59010741	0.57861697	33.609789
152	6	4	0.036931908	-0.027929924	0.43259157	34.953756
153	6	4	-0.14036807	1.0967502	1.4437918	35.208821
154	6	4	-0.13904141	0.55935223	2.8785382	35.337278
155	6	4	0.031316406	1.6802455	3.8831576	35.634062
156	6	3	-0.45107367	2.6352347	3.9551417	34.528391
157	6	1	0.79055852	2.340902	4.6097829	33.290722
158	6	2	-0.56332689	1.2297547	5.1738671	33.10479
159	6	5	0.33954904	3.5926098	3.5606896	34.664393
160	6	6	0.078385683	1.2439754	4.8888974	35.816253
161	6	6	0.078385683	2.2112063	3.5783273	36.562128
162	6	7	0.10443706	0.029855907	3.1755211	34.408082
163	6	7	0.10443706	-0.17488839	2.9186628	36.171497
164	6	7	0.10443706	1.8402043	1.3819278	34.384426
165	6	7	0.10443706	1.611724	1.1650798	36.153388
166	6	6	0.074594485	-0.82996323	0.56181102	35.71229
167	6	6	0.074594485	0.38479041	-0.59435286	35.06025
168	6	5	0.33297718	-0.18953608	1.271676	32.938366
169	7	8	-0.48918643	3.0536722	4.6270942	32.536965
170	7	4	0.17030846	3.7993701	3.4478648	32.663566
171	7	1	0.2115863	3.0209482	2.2872411	32.123006
172	7	3	-0.64837396	3.1118221	1.9764241	30.860027
173	7	1	0.25212988	2.3591329	0.89194525	30.284172
174	7	4	0.076968292	2.4902984	0.60031933	28.821369
175	7	8	-0.11434023	1.4339071	1.2051258	28.130214
176	7	6	0.10953956	3.4593528	1.0000038	28.451813
177	7	6	0.10953956	2.4772505	-0.5005238	28.650914
178	7	1	-0.34258106	1.5066527	0.19398151	31.052709
179	7	9	0.21566333	0.91331207	-0.6112114	30.637827
180	7	1	-0.14438633	1.3737014	0.53401502	32.482307
181	7	9	0.226392	0.69064194	-0.024429544	33.109363
182	7	1	-0.34944549	2.0943093	1.5352568	32.998109
183	7	9	0.21549276	1.9949048	1.7917735	34.045504
184	7	6	0.093361708	4.0743383	3.2704987	33.727892
185	7	6	0.093361708	4.7455705	3.5609075	32.091962
186	4	1	0.55335701	-2.0673395	-0.10278647	32.160363
187	4	2	-0.61927569	-2.2945686	1.0582106	31.727642
188	4	3	-0.50952029	-2.3145993	-1.2503082	31.343533
189	4	4	0.03721886	-2.837107	-1.1254854	29.98405
190	4	4	-0.1352722	-3.0083782	-2.503474	29.336264
191	4	4	-0.11739121	-3.5556798	-2.3792544	27.909834
192	4	4	0.19106744	-3.7231983	-3.7591351	27.261466
193	4	3	-0.55907345	-4.30102	-3.6426922	25.926562
194	4	10	0.59833277	-3.6612628	-3.1191389	24.957932
195	4	2	-0.36928469	-3.0388506	-2.6096823	24.017841
196	4	6	0.049547276	-4.4066308	-4.3751436	27.88425
197	4	6	0.049547276	-2.7426462	-4.2821706	27.203462
198	4	7	0.0982371	-4.543451	-1.8674105	27.935286
199	4	7	0.0982371	-2.8554704	-1.7676579	27.299622
200	4	7	0.10346996	-2.0223654	-3.0191086	29.310078
201	4	7	0.10346996	-3.7092455	-3.1103637	29.950993
202	4	6	0.074594485	-2.1326321	-0.51601801	29.377342
203	4	6	0.074594485	-3.8208568	-0.6074977	30.017189
204	4	5	0.33297721	-2.1101098	-2.1928971	31.74771
205	5	8	-0.11434023	1.5676587	0.98023386	27.172403
206	5	4	0.076968277	2.1961091	-0.271369	27.138872
207	5	1	0.25468979	1.1996702	-1.3546329	27.421767
208	5	3	-0.64422279	0.52356634	-1.8863403	26.442335
209	5	1	0.20168397	-0.46880723	-2.9064917	26.664721
210	5	4	0.14699859	-1.2274482	-3.4612351	25.499176
211	5	11	-0.66850215	-2.4617014	-2.8087036	25.395293
212	5	12	0.39507962	-2.9208254	-3.2129551	24.613918
213	5	6	0.088148678	-0.63976249	-3.3046902	24.568433
214	5	6	0.088148678	-1.3847305	-4.5550834	25.6342
215	5	1	-0.34301582	-0.74182439	-3.3045001	27.918508
216	5	9	0.21566333	-1.5000275	-4.0535484	28.113014
217	5	1	-0.14250946	-0.001138279	-2.7088482	29.046568
218	5	9	0.226392	-0.21444912	-3.0248204	30.059136
219	5	1	-0.34258103	0.92608642	-1.7742893	28.814665
220	5	9	0.21566335	1.4674411	-1.329984	29.640434
221	5	6	0.10953956	3.0317051	-0.30981633	27.872744
222	5	6	0.10953956	2.634746	-0.42376413	26.129348
223	6	1	0.55335695	1.7274442	1.4245906	42.912128
224	6	2	-0.61927563	2.0522935	1.2197488	41.712096
225	6	3	-0.50952023	0.90393422	2.5378993	43.268404
226	6	4	0.036931908	0.39963097	3.4720568	42.260118
227	6	4	-0.14036807	-0.41713837	4.6036476	42.89642
228	6	4	-0.13904141	0.47141634	5.5761507	43.689202
229	6	4	0.031316406	-0.34100944	6.7305769	44.29004
230	6	3	-0.45107367	-1.3075304	6.2438077	45.274208
231	6	1	0.79055852	-0.92757153	5.7976144	46.579411
232	6	2	-0.56332689	0.27771269	5.8193618	46.945781
233	6	5	0.33954904	-2.3242589	6.2728018	45.037399
234	6	6	0.078385683	0.34457431	7.461516	44.770395
235	6	6	0.078385683	-0.87864818	7.2645324	43.476416
236	6	7	0.10443706	1.0055957	5.0362588	44.498609
237	6	7	0.10443706	1.2377325	6.006513	43.007888
238	6	7	0.10443706	-1.1972902	4.1667693	43.557238
239	6	7	0.10443706	-0.93181198	5.1635286	42.086032
240	6	6	0.074594485	1.2496679	3.8984187	41.684808
241	6	6	0.074594485	-0.2523168	2.916777	41.550948
242	6	5	0.33297718	0.65419156	2.6572407	44.275868
243	7	8	-0.48918643	-1.6541209	5.4572661	47.237271
244	7	4	0.17030846	-2.6650299	4.883057	46.455592
245	7	1	0.2115863	-2.2365208	3.5302743	45.974393
246	7	3	-0.64837396	-2.4738244	2.4763726	46.704434
247	7	1	0.25212988	-2.0529343	1.1587211	46.303321
248	7	4	0.076968292	-2.335555	-0.0082674815	47.197918
249	7	8	-0.11434023	-1.2013056	-0.28839286	47.968928
250	7	6	0.10953956	-3.1915185	0.23678768	47.863245
251	7	6	0.10953956	-2.6104607	-0.89786822	46.586266
252	7	1	-0.34258106	-1.3624358	1.0012173	45.161862
253	7	9	0.21566333	-1.0159068	0.023817662	44.850215
254	7	1	-0.14438633	-1.067737	2.1792015	44.323676
255	7	9	0.226392	-0.5136303	2.0611979	43.401358
256	7	1	-0.34944549	-1.4820302	3.3906861	44.709006
257	7	9	0.21549276	-1.2623233	4.2584685	44.099581
258	7	6	0.093361708	-2.915542	5.5417187	45.593463
259	7	6	0.093361708	-3.58265	4.7852348	47.074631
260	4	1	0.55335701	2.0773265	0.74897966	43.681051
261	4	2	-0.61927569	2.5655854	1.2182342	44.743218
262	4	3	-0.50952029	1.9805142	-0.66374251	43.481055
263	4	4	0.03721886	2.4402719	-1.6144443	44.491786
264	4	4	-0.1352722	2.221383	-3.0570645	44.02408
265	4	4	-0.11739121	2.7011723	-4.0591029	45.080202
266	4	4	0.19106744	2.4781481	-5.5026073	44.612154
267	4	3	-0.55907345	2.9906046	-6.4548231	45.59199
268	4	10	0.59833277	2.4503016	-6.6025136	46.735625
269	4	2	-0.36928469	1.9248	-6.7445874	47.84665
270	4	6	0.049547276	3.0178421	-5.6639131	43.654492
271	4	6	0.049547276	1.3956547	-5.6900765	44.434738
272	4	7	0.0982371	3.7859824	-3.9031528	45.273051
273	4	7	0.0982371	2.1448657	-3.8886284	46.027917
274	4	7	0.10346996	1.1372732	-3.2165587	43.829007
275	4	7	0.10346996	2.7797676	-3.2213248	43.07611
276	4	6	0.074594485	1.8795045	-1.4421364	45.436074
277	4	6	0.074594485	3.5231809	-1.4480836	44.683633
278	4	5	0.33297721	1.5677548	-1.0044238	42.582603
279	5	8	-0.11434023	-1.4411669	-1.0656334	48.538342
280	5	4	0.076968277	-2.3660986	-1.8252163	47.810249
281	5	1	0.25468979	-1.6611349	-2.6139605	46.74851
282	5	3	-0.64422279	-1.1973753	-3.8010236	47.022234
283	5	1	0.20168397	-0.48380934	-4.5856842	46.047503
284	5	4	0.14699859	0.043392705	-5.9334537	46.431361
285	5	11	-0.66850215	1.394539	-5.821514	46.780422
286	5	12	0.39507962	1.6920225	-6.7367057	47.022679
287	5	6	0.088148678	-0.53713468	-6.324123	47.29538
288	5	6	0.088148678	-0.073235135	-6.6431152	45.581507
289	5	1	-0.34301582	-0.25002869	-4.0750689	44.827032
290	5	9	0.21566333	0.30421001	-4.6366159	44.084562
291	5	1	-0.14250946	-0.75166789	-2.7280582	44.495585
292	5	9	0.226392	-0.56842134	-2.3102566	43.514516
293	5	1	-0.34258103	-1.4244461	-2.0243056	45.411569
294	5	9	0.21566335	-1.7887526	-1.0326529	45.174353
295	5	6	0.10953956	-3.1416795	-1.1685459	47.3569
296	5	6	0.10953956	-2.8850766	-2.5188837	48.506131
297	6	1	0.55335695	2.0178286	-0.88450246	63.068431
298	6	2	-0.61927563	2.5621022	-1.9052317	63.567873
299	6	3	-0.50952023	2.8085242	0.17317441	62.520089
300	6	4	0.036931908	4.2711767	0.10923219	62.506971
301	6	4	-0.14036807	4.8871503	1.381545	61.911751
302	6	4	-0.13904141	4.7166596	2.5915859	62.844773
303	6	4	0.031316406	5.369887	3.8538829	62.267155
304	6	3	-0.45107367	4.7206491	4.2657712	61.022755
305	6	1	0.79055852	3.43173	4.8858883	60.988796
306	6	2	-0.56332689	2.7972333	5.1192828	62.051975
307	6	5	0.33954904	5.2400064	4.1537614	60.123657
308	6	6	0.078385683	5.3119397	4.6792432	63.009085
309	6	6	0.078385683	6.4467556	3.6554984	62.07442
310	6	7	0.10443706	3.6397578	2.7829574	63.03353
311	6	7	0.10443706	5.1959343	2.3671948	63.822825
312	6	7	0.10443706	4.4216989	1.5871626	60.923189
313	6	7	0.10443706	5.9715243	1.2025178	61.746927
314	6	6	0.074594485	4.6495415	-0.044564669	63.540661
315	6	6	0.074594485	4.5866054	-0.76141029	61.89152
316	6	5	0.33297718	2.3084937	0.99288608	62.108217
317	7	8	-0.48918643	3.0149082	5.1539645	60.077266
318	7	4	0.17030846	3.4867997	4.2316544	59.134219
319	7	1	0.2115863	2.7512769	2.9335515	59.272524
320	7	3	-0.64837396	1.6424706	2.7422921	58.613775
321	7	1	0.25212988	0.88027834	1.5265877	58.737754
322	7	4	0.076968292	-0.39766944	1.3778474	57.971747
323	7	8	-0.11434023	-1.4777107	1.6978154	58.802759
324	7	6	0.10953956	-0.38270347	2.0604946	57.094732
325	7	6	0.10953956	-0.49844098	0.33233102	57.600504
326	7	1	-0.34258106	1.2940912	0.56681854	59.58163
327	7	9	0.21566333	0.72642295	-0.34647024	59.708801
328	7	1	-0.14438633	2.5381263	0.76343502	60.350244
329	7	9	0.226392	2.8800052	-0.0055319609	61.031008
330	7	1	-0.34944549	3.2372323	1.8941798	60.207136
331	7	9	0.21549276	4.147487	2.0447267	60.774136
332	7	6	0.093361708	4.5823179	4.0733206	59.255163
333	7	6	0.093361708	3.3229757	4.6464824	58.116435
334	4	1	0.55335701	0.93882475	-0.80901122	63.055715
335	4	2	-0.61927569	0.38813092	0.26349586	63.420763
336	4	3	-0.50952029	0.15514887	-1.9252165	62.625491
337	4	4	0.03721886	-1.3051646	-1.8692218	62.591755
338	4	4	-0.1352722	-1.891053	-3.1947605	62.094265
339	4	4	-0.11739121	-3.4225401	-3.1421944	62.056106
340	4	4	0.19106744	-4.0073981	-4.4684325	61.554561
341	4	3	-0.55907345	-5.4661619	-4.4378227	61.576387
342	4	10	0.59833277	-6.1370501	-3.6929781	60.791048
343	4	2	-0.36928469	-6.7876609	-2.9683782	60.027913
344	4	6	0.049547276	-3.6664009	-5.2922757	62.21744
345	4	6	0.049547276	-3.6502952	-4.6844801	60.522953
346	4	7	0.0982371	-3.8117644	-2.9368514	63.078194
347	4	7	0.0982371	-3.7452051	-2.3185684	61.382141
348	4	7	0.10346996	-1.5029772	-3.4041844	61.072343
349	4	7	0.10346996	-1.5647502	-4.0143602	62.771912
350	4	6	0.074594485	-1.6228309	-1.0466335	61.914801
351	4	6	0.074594485	-1.686097	-1.657341	63.615068
352	4	5	0.33297721	0.65863659	-2.7935873	62.332095
353	5	8	-0.11434023	-2.2939805	1.5816575	58.249515
354	5	4	0.076968277	-2.0109364	0.56675715	57.326234
355	5	1	0.25468979	-2.0783366	-0.77184186	57.997048
356	5	3	-0.64422279	-3.2125081	-1.4115671	58.056408
357	5	1	0.20168397	-3.3374685	-2.6848282	58.718346
358	5	4	0.14699859	-4.6736126	-3.3583998	58.771188
359	5	11	-0.66850215	-5.2854532	-3.0808311	59.999429
360	5	12	0.39507962	-6.1601606	-3.5491817	59.982232
361	5	6	0.088148678	-5.3095638	-2.9817592	57.940603
362	5	6	0.088148678	-4.5499709	-4.4578072	58.646733
363	5	1	-0.34301582	-2.2686601	-3.2228155	59.329203
364	5	9	0.21566333	-2.3432005	-4.1681361	59.853217
365	5	1	-0.14250946	-0.976239	-2.5128905	59.289312
366	5	9	0.226392	-0.11057043	-2.9400971	59.777929
367	5	1	-0.34258103	-0.88062563	-1.3394954	58.656124
368	5	9	0.21566335	0.064671283	-0.81214395	58.630043
369	5	6	0.10953956	-1.0089124	0.72247636	56.868013
370	5	6	0.10953956	-2.7601794	0.6103707	56.506784
371	6	1	0.55335695	-2.2156616	14.517601	2.4382394
372	6	2	-0.61927563	-3.0681367	15.110386	3.1520019
373	6	3	-0.50952023	-2.6119575	13.494455	1.5213536
374	6	4	0.036931908	-4.0146901	13.104101	1.3678015
375	6	4	-0.14036807	-4.175233	11.956767	0.36264499
376	6	4	-0.13904141	-3.6249263	10.631001	0.91337418
377	6	4	0.031316406	-3.824083	9.4756562	-0.076199973
378	6	3	-0.45107367	-3.0661592	9.694926	-1.3079326
379	6	1	0.79055852	-1.6449931	9.5466851	-1.3808886
380	6	2	-0.56332689	-0.97726889	9.2009632	-0.36993324
381	6	5	0.33954904	-3.5866001	9.9159267	-2.1859736
382	6	6	0.078385683	-3.504658	8.5203749	0.39331382
383	6	6	0.078385683	-4.9049944	9.3813682	-0.3188711
384	6	7	0.10443706	-2.5462504	10.732842	1.1543239
385	6	7	0.10443706	-4.1587916	10.379004	1.8557788
386	6	7	0.10443706	-3.6604971	12.224641	-0.5857587
387	6	7	0.10443706	-5.257109	11.834053	0.14000016
388	6	6	0.074594485	-4.4305191	12.802486	2.3534196
389	6	6	0.074594485	-4.5931889	13.981005	1.0035572
390	6	5	0.33297718	-1.8678138	13.041227	0.94478523
391	7	8	-0.48918643	-1.1563334	9.7193651	-2.2797124
392	7	4	0.17030846	-1.8970558	10.696669	-2.9571216
393	7	1	0.2115863	-1.6284907	12.046826	-2.3653937
394	7	3	-0.64837396	-0.6384914	12.766971	-2.8140283
395	7	1	0.25212988	-0.31762418	14.055822	-2.2571153
396	7	4	0.076968292	0.84693373	14.823531	-2.801604
397	7	8	-0.11434023	1.9657529	14.610209	-1.9878554
398	7	6	0.10953956	1.0632018	14.479609	-3.8361726
399	7	6	0.10953956	0.60247847	15.909834	-2.8372034
400	7	1	-0.34258106	-1.0295274	14.526566	-1.2197533
401	7	9	0.21566333	-0.79339184	15.482655	-0.76958577
402	7	1	-0.14438633	-2.1463805	13.725512	-0.68309666
403	7	9	0.226392	-2.7265547	14.098028	0.15132522
404	7	1	-0.34944549	-2.4353313	12.538448	-1.2264198
405	7	9	0.21549276	-3.2503735	11.944877	-0.83132929
406	7	6	0.093361708	-2.9848849	10.462661	-2.9155802
407	7	6	0.093361708	-1.5985261	10.692543	-4.0274804
408	4	1	0.55335701	-1.1714098	14.78712	2.5219535
409	4	2	-0.61927569	-0.30257257	13.879778	2.6149451
410	4	3	-0.50952029	-0.79337427	16.166334	2.5256321
411	4	4	0.03721886	0.60490607	16.577739	2.6367461
412	4	4	-0.1352722	0.72801421	18.104905	2.6161937
413	4	4	-0.11739121	2.1924488	18.542762	2.7318865
414	4	4	0.19106744	2.3143856	20.071505	2.7075735
415	4	3	-0.55907345	3.7024569	20.487881	2.8787298
416	4	10	0.59833277	4.5863762	20.271348	1.9879767
417	4	2	-0.36928469	5.4443343	20.059801	1.1220258
418	4	6	0.049547276	1.7172041	20.499176	3.5411669
419	4	6	0.049547276	1.9141771	20.477484	1.7518396
420	4	7	0.0982371	2.6195714	18.159297	3.68522
421	4	7	0.0982371	2.7723247	18.113085	1.8858234
422	4	7	0.10346996	0.30063844	18.49234	1.6643373
423	4	7	0.10346996	0.14599214	18.528692	3.4641782
424	4	6	0.074594485	1.1797423	16.148384	1.7876011
425	4	6	0.074594485	1.0263271	16.185457	3.5884244
426	4	5	0.33297721	-1.5512869	16.882499	2.4461071
427	5	8	-0.11434023	2.7031601	15.139554	-2.390214
428	5	4	0.076968277	2.1103707	16.252205	-3.00111
429	5	1	0.25468979	1.7303331	17.26599	-1.9646774
430	5	3	-0.64422279	2.5918357	18.172534	-1.5971073
431	5	1	0.20168397	2.2876538	19.148181	-0.58194372
432	5	4	0.14699859	3.328938	20.149566	-0.18859084
433	5	11	-0.66850215	3.9884564	19.705604	0.963756
434	5	12	0.39507962	4.6615576	20.401949	1.1800869
435	5	6	0.088148678	4.05957	20.267138	-1.01836
436	5	6	0.088148678	2.852903	21.137862	0.0014985085
437	5	1	-0.34301582	1.096902	19.11045	0.03903575
438	5	9	0.21566333	0.85358563	19.819004	0.82167651
439	5	1	-0.14250946	0.10873649	18.08587	-0.34787892
440	5	9	0.226392	-0.85285688	18.049566	0.1467464
441	5	1	-0.34258103	0.40770574	17.200023	-1.303293
442	5	9	0.21566335	-0.31242375	16.442385	-1.585719
443	5	6	0.10953956	1.2182274	15.945867	-3.5914526
444	5	6	0.10953956	2.8388485	16.700466	-3.7104386
445	6	1	0.55335695	0.33063413	12.629336	12.934259
446	6	2	-0.61927563	0.73399172	11.437408	12.869644
447	6	3	-0.50952023	-1.040366	12.953135	12.689166
448	6	4	0.036931908	-2.0260989	11.919915	12.366056
449	6	4	-0.14036807	-3.4110044	12.523341	12.100718
450	6	4	-0.13904141	-3.4519146	13.30439	10.777055
451	6	4	0.031316406	-4.8485715	13.871919	10.492446
452	6	3	-0.45107367	-5.2376692	14.856126	11.502215
453	6	1	0.79055852	-4.6841981	16.174456	11.554046
454	6	2	-0.56332689	-3.8322124	16.552831	10.706483
455	6	5	0.33954904	-5.9905138	14.608158	12.18221
456	6	6	0.078385683	-4.8638677	14.343673	9.4863391
457	6	6	0.078385683	-5.5877874	13.041508	10.481208
458	6	7	0.10443706	-2.7110364	14.130675	10.795017
459	6	7	0.10443706	-3.1761494	12.622067	9.9433704
460	6	7	0.10443706	-3.6918803	13.185167	12.948818
461	6	7	0.10443706	-4.151437	11.695851	12.054839
462	6	6	0.074594485	-1.6891593	11.344526	11.476828
463	6	6	0.074594485	-2.1020156	11.216008	13.223405
464	6	5	0.33297718	-1.3261422	13.955159	12.765826
465	7	8	-0.48918643	-4.9924343	16.831823	12.295228
466	7	4	0.17030846	-5.3143485	16.052088	13.413736
467	7	1	0.2115863	-4.0627677	15.604398	14.105337
468	7	3	-0.64837396	-3.5269803	16.354273	15.027616
469	7	1	0.25212988	-2.3068595	15.985816	15.69828
470	7	4	0.076968292	-1.7299149	16.902144	16.732455
471	7	8	-0.11434023	-0.73103896	17.690754	16.149538
472	7	6	0.10953956	-2.5346183	17.553119	17.137511
473	7	6	0.10953956	-1.3044789	16.306804	17.572487
474	7	1	-0.34258106	-1.6718634	14.855247	15.347396
475	7	9	0.21566333	-0.74157478	14.568186	15.821395
476	7	1	-0.14438633	-2.2488519	13.995205	14.296463
477	7	9	0.226392	-1.7449092	13.081449	14.00885
478	7	1	-0.34944549	-3.3908645	14.350221	13.69848
479	7	9	0.21549276	-3.8141956	13.724719	12.922429
480	7	6	0.093361708	-5.929727	15.173517	13.114937
481	7	6	0.093361708	-5.9271313	16.66347	14.110524
482	4	1	0.55335701	1.0318838	13.416126	13.177818
483	4	2	-0.61927569	1.0402203	14.47306	12.492533
484	4	3	-0.50952029	1.9369933	13.245359	14.271788
485	4	4	0.03721886	2.9017004	14.280913	14.637518
486	4	4	-0.1352722	3.7446857	13.841877	15.839365
487	4	4	-0.11739121	4.758209	14.924114	16.228217
488	4	4	0.19106744	5.5988071	14.484712	17.433553
489	4	3	-0.55907345	6.6035044	15.489961	17.764406
490	4	10	0.59833277	6.2872646	16.630792	18.233595
491	4	2	-0.36928469	5.9786372	17.739057	18.6888
492	4	6	0.049547276	6.1228336	13.536397	17.187585
493	4	6	0.049547276	4.9456646	14.30006	18.315438
494	4	7	0.0982371	5.4343526	15.124893	15.367496
495	4	7	0.0982371	4.216041	15.862116	16.479034
496	4	7	0.10346996	3.0715358	13.638958	16.702197
497	4	7	0.10346996	4.284097	12.90351	15.582611
498	4	6	0.074594485	2.3551099	15.215403	14.890099
499	4	6	0.074594485	3.569331	14.480447	13.770553
500	4	5	0.33297721	1.891461	12.350135	14.810443
501	5	8	-0.11434023	-0.38367826	18.27411	16.874041
502	5	4	0.076968277	-0.5169571	17.552803	18.067581
503	5	1	0.25468979	0.56061027	16.515569	18.164411
504	5	3	-0.64422279	1.70708	16.819416	18.705153
505	5	1	0.20168397	2.7861492	15.869168	18.792378
506	5	4	0.14699859	4.0866804	16.287213	19.405264
507	5	11	-0.66850215	4.9829657	16.647877	18.39207
508	5	12	0.39507962	5.8225583	16.912723	18.850002
509	5	6	0.088148678	3.9144577	17.153278	20.080863
510	5	6	0.088148678	4.5086662	15.451544	20.007809
511	5	1	-0.34301582	2.6321172	14.640572	18.271077
512	5	9	0.21566333	3.4369935	13.91609	18.303916
513	5	1	-0.14250946	1.3495004	14.275207	17.640728
514	5	9	0.226392	1.217238	13.2874	17.219564
515	5	1	-0.34258103	0.35695981	15.168878	17.584694
516	5	9	0.21566335	-0.5838121	14.906741	17.117148
517	5	6	0.10953956	-1.5212911	17.077462	18.127839
518	5	6	0.10953956	-0.43250188	18.257895	18.92226
519	6	1	0.55335695	-0.15127622	17.961334	28.474411
520	6	2	-0.61927563	-0.87963925	18.534161	27.620642
521	6	3	-0.50952023	0.054183387	18.537428	29.766874
522	6	4	0.036931908	-0.5768601	19.801202	30.151935
523	6	4	-0.14036807	-0.1642852	20.231322	31.565183
524	6	4	-0.13904141	1.3052738	20.679633	31.621825
525	6	4	0.031316406	1.7047437	21.149201	33.026699
526	6	3	-0.45107367	1.6255246	20.055381	33.994673
527	6	1	0.79055852	2.5853339	18.995684	34.047785
528	6	2	-0.56332689	3.5648305	18.968906	33.255775
529	6	5	0.33954904	0.86868595	20.074369	34.714042
530	6	6	0.078385683	2.7390206	21.555281	33.006484
531	6	6	0.078385683	1.030246	21.973932	33.344536
532	6	7	0.10443706	1.9724002	19.852079	31.302346
533	6	7	0.10443706	1.4550475	21.525494	30.915618