Title

116 atoms
115 bonds
216 angles
392 dihedrals
18 impropers

11 atom types
14 bond types
9 angle types
35 dihedral types
3 improper types
-12.50599957 87.49400043 xlo xhi
-2.693000078 97.30699992 ylo yhi
-7.673999786 92.32600021 zlo zhi
0.0 0.0 0.0 xy xz yz

Masses

1	12.01078
2	15.99943
3	14.00672
4	12.01078
5	1.007947
6	1.007947
7	1.007947
8	15.99943
9	12.01078
10	15.99943
11	1.007947


Pair Coeffs

1	0.086879315	3.4806469
2	0.2102061	3.0398122
3	0.16769152	3.206876
4	0.10884061	3.3795318
5	0.014090815	1.1034277
6	0.016409246	2.5832257
7	0.015779483	2.6445434
8	0.16846514	3.0251065
9	0.21	3.3996695
10	0.20947353	2.99716
11	1.2326e-05	0.53453923

Bond Coeffs

1 harmonic	582.698766451	1.225198386222
2 harmonic	492.76746816345	1.381897776683
3 harmonic	279.1350963404	1.454628925034
4 harmonic	352.0565580496	1.450098586273
5 harmonic	505.144496193	1.019481865027
6 harmonic	264.62148576755	1.52190126495
7 harmonic	370.04670688625	1.093899492634
8 harmonic	301.15400723785	1.345741232799
9 harmonic	366.7408841747	1.425895053732
10 harmonic	300.03137914615	1.451203938761
11 harmonic	366.34047229585	1.464762957261
12 harmonic	602.81384337	1.196112346392
13 harmonic	329.96998057905	1.427343958716
14 harmonic	543.5267831885	0.9716763312559


Angle Coeffs

1 harmonic	55.42182150775	117.3465570514
2 harmonic	63.44422595415	115.5071327674
3 harmonic	57.8982893754	126.8062420451
4 harmonic	53.20531626545	116.5475862634
5 harmonic	65.09061609600001	110.3538806181
6 harmonic	201.41175231035	127.4691416191
7 harmonic	48.776492647595	115.6030999533
8 harmonic	55.07882548015	112.8714009681
9 harmonic	33.56981613361	180


Dihedral Coeffs

1 fourier 1	-0.1488678166443	4	180
2 fourier 1	-0.1230328948768	3	180
3 fourier 1	0.2939295466901	2	0
4 fourier 1	-0.3024127022865	1	0
5 fourier 1	0.182238503271	2	0
6 fourier 1	0.02972342374561	3	0
7 fourier 1	1.809047390003	2	180
8 fourier 1	-0.04816277792592	1	0
9 fourier 1	3.101948770557	2	180
10 fourier 1	-0.4252153282372	1	0
11 fourier 1	2.348375642009	2	180
12 fourier 1	1.256156174911	1	0
13 fourier 1	0.9974165607242	2	180
14 fourier 1	0.1155372516788	3	0
15 fourier 1	0.09223874044423	3	0
16 fourier 1	0.3159935921949	2	180
17 fourier 1	0.3247796806857	1	180
18 fourier 1	0.1040663847541	3	0
19 fourier 1	2.779853741805	2	180
20 fourier 1	0.1918272375143	3	0
21 fourier 1	0.9202179876409	1	180
22 fourier 1	0.0473758381877	3	0
23 fourier 1	0.4860993122944	2	180
24 fourier 1	0.8916986138746	1	0
25 fourier 1	1.163809172478	2	180
26 fourier 1	0.1679186987369	1	180
27 fourier 1	0.1911926717192	3	0
28 fourier 1	0.1115525666802	3	0
29 fourier 1	0.3432490222662	1	0
30 fourier 1	0.457973137376	1	0
31 fourier 1	-1.382973039546	1	0
32 fourier 1	0	1	0
33 fourier 1	0.3445382149273	3	0
34 fourier 1	0.1364556373303	1	0
35 fourier 1	0.3026390167484	3	0


Improper Coeffs

1 0.3333333333333333	-1	2
2 0.3666666666666667	-1	2
3 3.5	-1	2


Atoms

1	1	1	0.54220003	-4.6939998	1.331	-0.38600001
2	1	2	-0.69144797	-5.1230001	1.428	0.79500002
3	1	3	-0.52321202	-3.4430001	0.69599998	-0.66100001
4	1	4	0.030398	-2.6159999	0.13600001	0.40700001
5	1	4	-0.14620499	-1.3329999	-0.479	-0.161
6	1	4	-0.14278901	-0.45199999	-1.053	0.95899999
7	1	4	-0.14278901	0.75700003	-1.8430001	0.42699999
8	1	4	-0.144922	1.749	-1.023	-0.41800001
9	1	4	0.024560001	2.3959999	0.12800001	0.36399999
10	1	3	-0.46707299	3.4519999	0.76200002	-0.42399999
11	1	1	0.78523201	4.2150002	1.858	0.088
12	1	2	-0.61456501	3.9979999	2.3099999	1.244
13	1	5	0.32468101	3.668	0.42500001	-1.39
14	1	6	0.055257998	1.6289999	0.89200002	0.61000001
15	1	6	0.055257998	2.832	-0.264	1.309
16	1	7	0.086997002	1.249	-0.62900001	-1.3279999
17	1	7	0.086997002	2.55	-1.7130001	-0.75999999
18	1	7	0.085825004	1.301	-2.2809999	1.293
19	1	7	0.085825004	0.38800001	-2.6930001	-0.186
20	1	7	0.085825004	-0.114	-0.237	1.633
21	1	7	0.085825004	-1.063	-1.749	1.574
22	1	7	0.086997002	-0.77499998	0.31	-0.708
23	1	7	0.086997002	-1.602	-1.289	-0.875
24	1	6	0.051707	-3.1960001	-0.64499998	0.94499999
25	1	6	0.051707	-2.352	0.94400001	1.125
26	1	5	0.318097	-3.1300001	0.63999999	-1.6569999
27	1	8	-0.49851599	4.9559999	2.2869999	-0.49700001
28	1	4	0.113985	5.1479998	3.5880001	-0.011
29	1	4	-0.138955	5.9590001	3.553	1.2869999
30	1	4	-0.140028	6.1999998	4.9710002	1.826
31	1	4	-0.14123	7.1220002	4.987	3.0550001
32	1	4	-0.13990501	6.4520001	4.388	4.303
33	1	4	-0.13990501	7.2709999	4.619	5.586
34	1	4	-0.14117999	8.684	4.0019999	5.5770001
35	1	4	-0.13875701	8.7329998	2.4890001	5.2969999
36	1	4	-0.144944	7.973	1.663	6.3470001
37	1	4	0.03559	8.1969995	0.16	6.1630001
38	1	8	-0.169006	7.6160002	-0.285	4.9650002
39	1	6	0.085004002	9.2840004	-0.082999997	6.1989999
40	1	6	0.085004002	7.711	-0.377	7.0050001
41	1	7	0.092012003	6.8839998	1.8710001	6.2820001
42	1	7	0.092012003	8.3219995	1.949	7.3629999
43	1	7	0.087003998	9.8009996	2.1800001	5.3010001
44	1	7	0.087003998	8.3380003	2.277	4.2810001
45	1	7	0.085054003	9.309	4.5250001	4.823
46	1	7	0.085054003	9.1569996	4.197	6.5650001
47	1	7	0.085054003	6.6999998	4.2189999	6.4510002
48	1	7	0.085054003	7.369	5.7129998	5.756
49	1	7	0.085054003	5.46	4.868	4.4460001
50	1	7	0.085054003	6.2709999	3.303	4.165
51	1	7	0.085054003	7.3969998	6.0430002	3.2650001
52	1	7	0.085054003	8.0559998	4.434	2.8169999
53	1	7	0.086827002	5.2280002	5.4510002	2.0769999
54	1	7	0.086827002	6.6799998	5.5819998	1.03
55	1	7	0.090912998	5.402	2.954	2.0380001
56	1	7	0.090912998	6.9349999	3.056	1.09
57	1	6	0.085036002	5.6999998	4.171	-0.77899998
58	1	6	0.085036002	4.1659999	4.085	0.16
59	1	1	0.54220098	-5.2810001	1.734	-1.2
60	1	2	-0.69144797	-5.3039999	1.13	-2.3050001
61	1	3	-0.52321202	-6.013	2.95	-1.011
62	1	4	0.030398	-6.8260002	3.556	-2.0639999
63	1	4	-0.14620499	-8.1389999	2.786	-2.2379999
64	1	4	-0.14260399	-9.0120001	3.427	-3.3280001
65	1	4	-0.13839801	-10.394	2.7650001	-3.4449999
66	1	4	-0.122591	-10.327	1.36	-4.0650001
67	1	4	0.183797	-11.726	0.75800002	-4.27
68	1	3	-0.649643	-12.506	1.5190001	-5.2420001
69	1	9	0.59293097	-12.193	1.558	-6.4749999
70	1	2	-0.47645301	-11.887	1.597	-7.6739998
71	1	6	0.030539	-11.632	-0.29699999	-4.6100001
72	1	6	0.030539	-12.269	0.75099999	-3.3010001
73	1	7	0.080641001	-9.7629995	0.68199998	-3.3900001
74	1	7	0.080641001	-9.7910004	1.397	-5.0380001
75	1	7	0.084546998	-10.874	2.7149999	-2.4430001
76	1	7	0.084546998	-11.027	3.415	-4.0879998
77	1	7	0.085825004	-9.1660004	4.4990001	-3.079
78	1	7	0.085825004	-8.4879999	3.381	-4.3080001
79	1	7	0.086997002	-7.9089999	1.7359999	-2.513
80	1	7	0.086997002	-8.6890001	2.7869999	-1.271
81	1	6	0.051707	-6.2540002	3.572	-3.0179999
82	1	6	0.051707	-7.053	4.6069999	-1.783
83	1	5	0.318097	-5.9109998	3.4530001	-0.101
84	1	8	-0.169006	8.309	-0.198	4.2600002
85	1	4	0.03559	8.7650003	1.126	4.3049998
86	1	4	-0.144944	9.7110004	1.321	5.493
87	1	4	-0.13875701	10.238	2.7620001	5.5479999
88	1	4	-0.14117999	11.293	2.9619999	6.6469998
89	1	4	-0.13990501	10.692	2.8940001	8.0620003
90	1	4	-0.13990501	11.686	3.3310001	9.1529999
91	1	4	-0.14117999	12.971	2.4820001	9.2419996
92	1	4	-0.134672	12.743	0.97299999	9.441
93	1	4	-0.166868	11.993	0.65100002	10.744
94	1	4	0.088891	11.949	-0.85500002	11.02
95	1	10	-0.68094999	11.165	-1.512	10.061
96	1	11	0.38355401	11.772	-1.7690001	9.3190002
97	1	6	0.076082997	12.98	-1.277	11.057
98	1	6	0.076082997	11.489	-1.018	12.018
99	1	7	0.094368003	10.951	1.033	10.69
100	1	7	0.094368003	12.504	1.151	11.596
101	1	7	0.087003998	13.74	0.48300001	9.4700003
102	1	7	0.087003998	12.199	0.55199999	8.5699997
103	1	7	0.085054003	13.576	2.6340001	8.3219995
104	1	7	0.085054003	13.585	2.865	10.086
105	1	7	0.085054003	11.168	3.3180001	10.135
106	1	7	0.085054003	11.978	4.388	8.9680004
107	1	7	0.085054003	9.8140001	3.5739999	8.1140003
108	1	7	0.085054003	10.324	1.87	8.2799997
109	1	7	0.085054003	11.757	3.9619999	6.5009999
110	1	7	0.085054003	12.091	2.198	6.5310001
111	1	7	0.087003998	9.3940001	3.4690001	5.7020001
112	1	7	0.087003998	10.711	3.01	4.572
113	1	7	0.092012003	9.1599998	1.085	6.427
114	1	7	0.092012003	10.563	0.61299998	5.395
115	1	6	0.085004002	9.3059998	1.344	3.359
116	1	6	0.085004002	7.902	1.8279999	4.3779998

Bonds

1	1	1	2
2	2	1	3
3	3	1	59
4	4	3	4
5	5	3	26
6	6	4	5
7	7	4	24
8	7	4	25
9	6	5	6
10	7	5	22
11	7	5	23
12	6	6	7
13	7	6	20
14	7	6	21
15	6	7	8
16	7	7	18
17	7	7	19
18	6	8	9
19	7	8	16
20	7	8	17
21	4	9	10
22	7	9	14
23	7	9	15
24	2	10	11
25	5	10	13
26	1	11	12
27	8	11	27
28	9	27	28
29	6	28	29
30	7	28	57
31	7	28	58
32	6	29	30
33	7	29	55
34	7	29	56
35	6	30	31
36	7	30	53
37	7	30	54
38	6	31	32
39	7	31	51
40	7	31	52
41	6	32	33
42	7	32	49
43	7	32	50
44	6	33	34
45	7	33	47
46	7	33	48
47	6	34	35
48	7	34	45
49	7	34	46
50	6	35	36
51	7	35	43
52	7	35	44
53	6	36	37
54	7	36	41
55	7	36	42
56	9	37	38
57	7	37	39
58	7	37	40
59	10	38	84
60	1	59	60
61	2	59	61
62	4	61	62
63	5	61	83
64	6	62	63
65	7	62	81
66	7	62	82
67	6	63	64
68	7	63	79
69	7	63	80
70	6	64	65
71	7	64	77
72	7	64	78
73	6	65	66
74	7	65	75
75	7	65	76
76	6	66	67
77	7	66	73
78	7	66	74
79	11	67	68
80	7	67	71
81	7	67	72
82	12	68	69
83	1	69	70
84	9	84	85
85	6	85	86
86	7	85	115
87	7	85	116
88	6	86	87
89	7	86	113
90	7	86	114
91	6	87	88
92	7	87	111
93	7	87	112
94	6	88	89
95	7	88	109
96	7	88	110
97	6	89	90
98	7	89	107
99	7	89	108
100	6	90	91
101	7	90	105
102	7	90	106
103	6	91	92
104	7	91	103
105	7	91	104
106	6	92	93
107	7	92	101
108	7	92	102
109	6	93	94
110	7	93	99
111	7	93	100
112	13	94	95
113	7	94	97
114	7	94	98
115	14	95	96

Angles

1	4	9	8	17
2	4	93	92	102
3	4	92	91	103
4	2	9	10	13
5	9	68	69	70
6	4	88	89	108
7	4	91	92	101
8	7	47	33	48
9	4	8	9	14
10	4	33	34	45
11	4	93	94	98
12	4	88	87	112
13	7	107	89	108
14	3	2	1	59
15	4	62	63	80
16	4	35	36	42
17	4	5	6	7
18	4	64	65	75
19	7	101	92	102
20	8	67	68	69
21	4	87	86	114
22	4	6	5	23
23	4	94	93	100
24	4	38	37	39
25	4	4	5	6
26	3	60	59	61
27	4	92	91	104
28	4	89	90	106
29	4	6	7	8
30	4	90	91	92
31	2	1	3	26
32	4	27	28	29
33	4	31	30	53
34	4	91	92	93
35	5	94	95	96
36	4	8	9	10
37	4	86	87	112
38	4	64	65	76
39	4	89	90	91
40	4	92	93	94
41	7	16	8	17
42	4	36	35	44
43	4	35	34	45
44	4	63	62	82
45	4	93	94	95
46	4	37	36	41
47	4	90	91	104
48	4	31	32	50
49	4	34	35	43
50	7	55	29	56
51	4	4	5	22
52	4	86	87	88
53	4	65	66	73
54	4	31	30	54
55	7	73	66	74
56	4	27	28	57
57	4	89	88	109
58	5	11	27	28
59	4	95	94	98
60	4	28	29	30
61	4	30	31	51
62	4	84	85	86
63	4	86	85	115
64	2	11	10	13
65	7	109	88	110
66	4	35	34	46
67	4	7	8	17
68	4	6	7	18
69	4	32	33	48
70	7	53	30	54
71	6	12	11	27
72	2	59	61	83
73	4	61	62	81
74	4	64	63	79
75	4	63	64	65
76	4	66	67	68
77	4	4	5	23
78	4	3	4	24
79	4	66	67	71
80	4	29	30	54
81	4	65	66	74
82	4	5	6	20
83	4	91	90	106
84	4	90	89	107
85	4	27	28	58
86	7	71	67	72
87	4	89	88	110
88	4	85	86	113
89	3	3	1	59
90	4	61	62	63
91	4	64	65	66
92	4	91	92	102
93	4	86	85	116
94	4	65	66	67
95	4	8	9	15
96	4	33	34	46
97	7	24	4	25
98	4	6	7	19
99	4	61	62	82
100	7	105	90	106
101	7	41	36	42
102	1	1	3	4
103	4	34	35	36
104	4	66	67	72
105	7	115	85	116
106	4	5	6	21
107	4	32	31	51
108	4	90	89	108
109	4	34	33	47
110	4	3	4	5
111	4	38	37	40
112	2	4	3	26
113	4	67	66	73
114	4	85	86	114
115	7	22	5	23
116	4	29	28	57
117	4	36	37	40
118	4	65	64	77
119	4	87	88	109
120	4	92	93	99
121	4	36	37	38
122	4	87	88	89
123	4	84	85	115
124	4	88	89	90
125	4	29	30	31
126	1	9	10	11
127	4	8	7	18
128	4	33	32	49
129	4	32	31	52
130	4	28	29	55
131	7	14	9	15
132	4	5	4	24
133	4	68	67	71
134	4	37	36	42
135	7	39	37	40
136	4	66	65	75
137	4	34	35	44
138	4	63	64	77
139	4	29	28	58
140	4	67	66	74
141	4	7	8	9
142	4	62	63	64
143	4	10	9	14
144	4	9	8	16
145	4	93	92	101
146	4	8	7	19
147	4	33	32	50
148	2	62	61	83
149	4	30	31	52
150	4	88	89	107
151	7	20	6	21
152	4	28	29	56
153	4	68	67	72
154	4	64	63	80
155	4	93	94	97
156	4	30	31	32
157	4	33	34	35
158	5	38	84	85
159	4	63	64	78
160	4	62	63	79
161	4	35	36	41
162	7	103	91	104
163	3	1	59	60
164	7	111	87	112
165	4	3	4	25
166	4	10	9	15
167	4	7	6	20
168	7	18	7	19
169	7	75	65	76
170	4	85	86	87
171	4	6	5	22
172	7	57	28	58
173	4	94	93	99
174	4	89	90	105
175	4	32	33	34
176	4	35	36	37
177	3	10	11	12
178	7	81	62	82
179	7	45	34	46
180	4	86	87	111
181	4	30	29	55
182	3	1	59	61
183	1	59	61	62
184	4	7	6	21
185	4	31	32	33
186	7	49	32	50
187	3	2	1	3
188	7	99	93	100
189	4	34	33	48
190	4	63	62	81
191	4	36	35	43
192	4	87	88	110
193	7	51	31	52
194	4	90	91	103
195	4	31	32	49
196	7	79	63	80
197	4	65	64	78
198	5	37	38	84
199	4	92	93	100
200	4	36	37	39
201	4	84	85	116
202	7	97	94	98
203	4	30	29	56
204	4	95	94	97
205	7	43	35	44
206	4	5	4	25
207	4	7	8	16
208	7	113	86	114
209	4	32	33	47
210	4	66	65	76
211	3	10	11	27
212	4	88	87	111
213	7	77	64	78
214	4	29	30	53
215	4	91	90	105
216	4	87	86	113

Dihedrals

1	27	73	66	65	76
2	27	78	64	63	80
3	27	103	91	90	105
4	18	30	31	32	49
5	18	34	33	32	49
6	22	36	37	38	84
7	27	100	93	92	101
8	27	105	90	89	108
9	27	53	30	29	55
10	14	61	62	63	64
11	18	5	6	7	18
12	18	34	35	36	41
13	28	38	37	36	42
13	29	38	37	36	42
14	32	67	68	69	70
15	5	82	62	61	83
15	6	82	62	61	83
16	18	32	31	30	53
17	18	35	36	37	39
18	31	69	68	67	72
19	15	90	91	92	93
19	16	90	91	92	93
19	17	90	91	92	93
20	27	40	37	36	42
21	18	64	63	62	81
22	27	99	93	92	102
23	18	32	33	34	45
24	18	36	35	34	46
25	27	56	29	28	57
26	18	6	5	4	25
27	18	6	7	8	16
28	27	76	65	64	77
29	18	64	65	66	73
30	18	30	31	32	50
31	27	108	89	88	110
32	22	39	37	38	84
33	27	55	29	28	58
34	14	68	67	66	73
35	27	100	93	92	102
36	27	52	31	30	53
37	27	50	32	31	51
38	5	25	4	3	26
38	6	25	4	3	26
39	27	54	30	29	55
40	27	23	5	4	24
41	27	53	30	29	56
42	5	5	4	3	26
42	6	5	4	3	26
43	31	66	67	68	69
44	18	34	35	36	42
45	18	93	92	91	103
46	18	86	87	88	109
47	13	3	1	59	61
48	18	8	7	6	20
49	27	22	5	4	24
50	18	90	89	88	109
51	27	110	88	87	111
52	18	32	33	34	46
53	27	49	32	31	52
54	27	44	35	34	45
55	18	4	5	6	21
56	15	33	34	35	36
56	16	33	34	35	36
56	17	33	34	35	36
57	27	42	36	35	43
58	27	76	65	64	78
59	15	86	87	88	89
59	16	86	87	88	89
59	17	86	87	88	89
60	18	90	91	92	101
61	18	94	93	92	102
62	18	33	32	31	51
63	18	64	65	66	74
64	27	80	63	62	82
65	7	1	59	61	83
65	8	1	59	61	83
66	27	97	94	93	100
67	28	27	28	29	56
67	29	27	28	29	56
68	27	47	33	32	49
69	18	67	66	65	75
70	27	104	91	90	105
71	27	108	89	88	109
72	14	61	62	63	80
73	27	54	30	29	56
74	27	23	5	4	25
75	27	74	66	65	76
76	18	37	36	35	43
77	18	66	65	64	77
78	27	77	64	63	79
79	18	7	6	5	22
80	22	38	84	85	86
81	15	64	65	66	67
81	16	64	65	66	67
81	17	64	65	66	67
82	18	86	87	88	110
83	18	93	92	91	104
84	35	96	95	94	97
85	27	41	36	35	43
86	18	8	7	6	21
87	27	107	89	88	109
88	18	89	88	87	111
89	18	92	93	94	97
90	27	101	92	91	104
91	27	15	9	8	16
92	18	35	34	33	47
93	27	71	67	66	73
94	27	19	7	6	20
95	27	20	6	5	22
96	14	10	9	8	17
97	27	18	7	6	20
98	18	31	32	33	48
99	5	24	4	3	26
99	6	24	4	3	26
100	27	75	65	64	77
101	18	89	90	91	103
102	18	33	32	31	52
103	27	45	34	33	48
104	18	90	91	92	102
105	18	33	34	35	43
106	18	87	86	85	115
107	15	89	90	91	92
107	16	89	90	91	92
107	17	89	90	91	92
108	1	1	3	4	5
108	2	1	3	4	5
108	3	1	3	4	5
108	4	1	3	4	5
109	23	12	11	10	13
109	24	12	11	10	13
110	18	63	64	65	75
111	5	8	9	10	13
111	6	8	9	10	13
112	18	30	29	28	58
113	18	33	34	35	44
114	25	12	11	27	28
114	26	12	11	27	28
115	18	67	66	65	76
116	28	84	85	86	114
116	29	84	85	86	114
117	18	87	88	89	107
118	27	102	92	91	103
119	18	37	36	35	44
120	18	7	6	5	23
121	7	26	3	1	59
121	8	26	3	1	59
122	18	88	89	90	105
123	18	34	33	32	50
124	27	21	6	5	22
125	27	15	9	8	17
126	18	35	34	33	48
127	27	20	6	5	23
128	27	18	7	6	21
129	27	75	65	64	78
130	28	95	94	93	99
130	29	95	94	93	99
131	27	51	31	30	53
132	18	5	6	7	19
133	14	65	66	67	68
134	27	48	33	32	49
135	18	65	66	67	71
136	18	89	90	91	104
137	18	28	29	30	53
138	18	32	31	30	54
139	18	35	36	37	40
140	18	29	30	31	51
141	15	62	63	64	65
141	16	62	63	64	65
141	17	62	63	64	65
142	11	60	59	61	83
142	12	60	59	61	83
143	18	64	63	62	82
144	18	87	88	89	108
145	27	102	92	91	104
146	27	56	29	28	58
147	5	1	3	4	24
147	6	1	3	4	24
148	18	6	7	8	17
149	15	91	92	93	94
149	16	91	92	93	94
149	17	91	92	93	94
150	15	32	33	34	35
150	16	32	33	34	35
150	17	32	33	34	35
151	14	3	4	5	6
152	27	109	88	87	111
153	27	39	37	36	41
154	18	88	87	86	113
155	27	106	90	89	107
156	22	38	84	85	115
157	27	43	35	34	45
158	14	68	67	66	74
159	5	13	10	9	14
159	6	13	10	9	14
160	27	21	6	5	23
161	27	14	9	8	16
162	27	52	31	30	54
163	27	50	32	31	52
164	18	91	92	93	99
165	27	51	31	30	54
166	5	11	10	9	14
166	6	11	10	9	14
167	18	92	91	90	105
168	27	48	33	32	50
169	11	2	1	3	26
169	12	2	1	3	26
170	18	28	29	30	54
171	27	17	8	7	18
172	27	22	5	4	25
173	18	29	30	31	52
174	15	4	5	6	7
174	16	4	5	6	7
174	17	4	5	6	7
175	18	90	89	88	110
176	27	110	88	87	112
177	27	72	67	66	73
178	27	44	35	34	46
179	20	11	27	28	29
179	21	11	27	28	29
180	27	42	36	35	44
181	15	29	30	31	32
181	16	29	30	31	32
181	17	29	30	31	32
182	5	63	62	61	83
182	6	63	62	61	83
183	27	114	86	85	115
184	14	27	28	29	30
185	27	109	88	87	112
186	18	9	8	7	18
187	18	88	87	86	114
188	27	112	87	86	113
189	27	43	35	34	46
190	14	3	4	5	22
191	5	13	10	9	15
191	6	13	10	9	15
192	27	14	9	8	17
193	27	47	33	32	50
194	5	59	61	62	81
194	6	59	61	62	81
195	14	84	85	86	87
196	27	111	87	86	113
197	27	113	86	85	115
198	27	77	64	63	80
199	5	11	10	9	15
199	6	11	10	9	15
200	18	66	65	64	78
201	18	92	91	90	106
202	27	73	66	65	75
203	27	103	91	90	106
204	27	107	89	88	110
205	14	7	8	9	10
206	19	10	11	27	28
207	27	41	36	35	44
208	18	85	86	87	111
209	18	89	88	87	112
210	18	65	64	63	79
211	18	92	93	94	98
212	15	30	31	32	33
212	16	30	31	32	33
212	17	30	31	32	33
213	27	19	7	6	21
214	27	71	67	66	74
215	35	96	95	94	98
216	27	98	94	93	99
217	27	114	86	85	116
218	22	11	27	28	57
219	28	38	37	36	41
219	29	38	37	36	41
220	27	112	87	86	114
221	18	87	86	85	116
222	31	69	68	67	71
223	18	62	63	64	77
224	14	3	4	5	23
225	18	63	64	65	76
226	27	40	37	36	41
227	7	1	59	61	62
227	8	1	59	61	62
228	18	36	35	34	45
229	5	81	62	61	83
229	6	81	62	61	83
230	18	6	5	4	24
231	15	31	32	33	34
231	16	31	32	33	34
231	17	31	32	33	34
232	18	88	89	90	106
233	15	6	7	8	9
233	16	6	7	8	9
233	17	6	7	8	9
234	18	31	30	29	55
235	18	85	86	87	112
236	27	55	29	28	57
237	18	65	64	63	80
238	28	84	85	86	113
238	29	84	85	86	113
239	28	95	94	93	100
239	29	95	94	93	100
240	27	98	94	93	100
241	22	11	27	28	58
242	18	7	8	9	14
243	18	65	66	67	72
244	27	46	34	33	47
245	7	4	3	1	59
245	8	4	3	1	59
246	18	62	63	64	78
247	13	3	1	59	60
248	13	2	1	59	60
249	14	92	93	94	95
250	15	88	89	90	91
250	16	88	89	90	91
250	17	88	89	90	91
251	9	2	1	3	4
251	10	2	1	3	4
252	27	49	32	31	51
253	5	1	3	4	25
253	6	1	3	4	25
254	18	4	5	6	20
255	27	16	8	7	18
256	18	94	93	92	101
257	27	97	94	93	99
258	7	13	10	11	27
258	8	13	10	11	27
259	15	85	86	87	88
259	16	85	86	87	88
259	17	85	86	87	88
260	30	37	38	84	85
261	15	34	35	36	37
261	16	34	35	36	37
261	17	34	35	36	37
262	27	39	37	36	42
263	27	79	63	62	81
264	22	38	84	85	116
265	27	80	63	62	81
266	27	106	90	89	108
267	28	27	28	29	55
267	29	27	28	29	55
268	18	31	30	29	56
269	27	104	91	90	106
270	15	5	6	7	8
270	16	5	6	7	8
270	17	5	6	7	8
271	18	91	90	89	107
272	1	8	9	10	11
272	2	8	9	10	11
272	3	8	9	10	11
272	4	8	9	10	11
273	14	61	62	63	79
274	18	91	92	93	100
275	27	74	66	65	75
276	18	7	8	9	15
277	7	9	10	11	27
277	8	9	10	11	27
278	27	46	34	33	48
279	27	78	64	63	79
280	22	40	37	38	84
281	27	17	8	7	19
282	13	2	1	59	61
283	15	63	64	65	66
283	16	63	64	65	66
283	17	63	64	65	66
284	27	72	67	66	74
285	27	101	92	91	103
286	27	105	90	89	107
287	27	16	8	7	19
288	14	10	9	8	16
289	18	31	32	33	47
290	1	59	61	62	63
290	2	59	61	62	63
290	3	59	61	62	63
290	4	59	61	62	63
291	9	60	59	61	62
291	10	60	59	61	62
292	18	9	8	7	19
293	27	45	34	33	47
294	27	79	63	62	82
295	14	35	36	37	38
296	15	87	88	89	90
296	16	87	88	89	90
296	17	87	88	89	90
297	33	93	94	95	96
297	34	93	94	95	96
298	18	91	90	89	108
299	7	9	10	11	12
299	8	9	10	11	12
300	5	59	61	62	82
300	6	59	61	62	82
301	27	99	93	92	101
302	27	111	87	86	114
303	18	30	29	28	57
304	27	113	86	85	116
305	15	28	29	30	31
305	16	28	29	30	31
305	17	28	29	30	31

Impropers

25	2	1	3	59	2
26	2	59	1	60	61
74	1	61	83	59	62
114	3	11	27	10	12
333	3	11	12	27	10
389	3	11	10	12	27
397	2	1	2	3	59
474	1	10	11	13	9
485	1	61	59	62	83
497	1	3	4	26	1
591	1	3	1	4	26
608	2	1	59	2	3
618	1	10	9	11	13
696	1	61	62	83	59
699	2	59	61	1	60
701	1	3	26	1	4
728	2	59	60	61	1
734	1	10	13	9	11
