Title

612 atoms
647 bonds
1310 angles
3306 dihedrals
102 impropers

11 atom types
14 bond types
9 angle types
35 dihedral types
3 improper types
-12.4460001 87.5539999 xlo xhi
-15.69499969 84.30500031 ylo yhi
-3.767999887 96.23200011 zlo zhi
0.0 0.0 0.0 xy xz yz

Masses

1	15.99943
2	12.01078
3	14.00672
4	12.01078
5	1.007947
6	1.007947
7	1.007947
8	15.99943
9	12.01078
10	15.99943
11	1.007947


Pair Coeffs

1	0.2102061	3.0398122
2	0.086879315	3.4806469
3	0.16769152	3.206876
4	0.10884061	3.3795318
5	0.014090815	1.1034277
6	0.015779483	2.6445434
7	0.016409246	2.5832257
8	0.16846514	3.0251065
9	0.21	3.3996695
10	0.20947353	2.99716
11	1.2326e-05	0.53453923

Bond Coeffs

1 harmonic	582.698766451	1.225198386222
2 harmonic	492.76746816345	1.381897776683
3 harmonic	301.15400723785	1.345741232799
4 harmonic	352.0565580496	1.450098586273
5 harmonic	505.144496193	1.019481865027
6 harmonic	264.62148576755	1.52190126495
7 harmonic	370.04670688625	1.093899492634
8 harmonic	279.1350963404	1.454628925034
9 harmonic	366.7408841747	1.425895053732
10 harmonic	300.03137914615	1.451203938761
11 harmonic	366.34047229585	1.464762957261
12 harmonic	602.81384337	1.196112346392
13 harmonic	329.96998057905	1.427343958716
14 harmonic	543.5267831885	0.9716763312559


Angle Coeffs

1 harmonic	57.8982893754	126.8062420451
2 harmonic	201.41175231035	127.4691416191
3 harmonic	55.42182150775	117.3465570514
4 harmonic	63.44422595415	115.5071327674
5 harmonic	65.09061609600001	110.3538806181
6 harmonic	53.20531626545	116.5475862634
7 harmonic	48.776492647595	115.6030999533
8 harmonic	55.07882548015	112.8714009681
9 harmonic	33.56981613361	180


Dihedral Coeffs

1 fourier 1	1.809047390003	2	180
2 fourier 1	-0.04816277792592	1	0
3 fourier 1	0.4860993122944	2	180
4 fourier 1	0.8916986138746	1	0
5 fourier 1	1.163809172478	2	180
6 fourier 1	0.1679186987369	1	180
7 fourier 1	-0.1488678166443	4	180
8 fourier 1	-0.1230328948768	3	180
9 fourier 1	0.2939295466901	2	0
10 fourier 1	-0.3024127022865	1	0
11 fourier 1	0.182238503271	2	0
12 fourier 1	0.02972342374561	3	0
13 fourier 1	0.1918272375143	3	0
14 fourier 1	0.9202179876409	1	180
15 fourier 1	0.0473758381877	3	0
16 fourier 1	2.779853741805	2	180
17 fourier 1	0.1155372516788	3	0
18 fourier 1	0.09223874044423	3	0
19 fourier 1	0.3159935921949	2	180
20 fourier 1	0.3247796806857	1	180
21 fourier 1	0.1040663847541	3	0
22 fourier 1	3.101948770557	2	180
23 fourier 1	-0.4252153282372	1	0
24 fourier 1	0.9974165607242	2	180
25 fourier 1	2.348375642009	2	180
26 fourier 1	1.256156174911	1	0
27 fourier 1	0.1911926717192	3	0
28 fourier 1	0.1115525666802	3	0
29 fourier 1	0.3432490222662	1	0
30 fourier 1	0.457973137376	1	0
31 fourier 1	-1.382973039546	1	0
32 fourier 1	0	1	0
33 fourier 1	0.3445382149273	3	0
34 fourier 1	0.1364556373303	1	0
35 fourier 1	0.3026390167484	3	0


Improper Coeffs

1 3.5	-1	2
2 0.3333333333333333	-1	2
3 0.3666666666666667	-1	2


Atoms

1	1	1	-0.64217502	4.3569999	-0.79299998	2.1559999
2	1	2	0.77313101	4.2280002	-1.342	1.029
3	1	3	-0.448962	3.3629999	-0.78799999	0.032000002
4	1	4	-0.0093900003	2.552	0.41299999	0.24699999
5	1	4	-0.013484	1.054	0.071000002	0.51599997
6	1	4	-0.212138	0.30000001	1.416	0.71100003
7	1	4	0.12028	-1.234	1.276	0.70899999
8	1	3	-0.57744402	-1.855	2.598	0.86000001
9	1	2	0.54930401	-3.2219999	2.7650001	1.2539999
10	1	1	-0.728315	-3.95	1.7690001	1.506
11	1	5	0.301994	-1.288	3.4630001	0.713
12	1	4	-0.215811	-1.705	0.63200003	-0.60600001
13	1	4	-0.033549	-1.071	-0.75700003	-0.87099999
14	1	4	-0.216497	0.48199999	-0.69700003	-0.72000003
15	1	6	0.099908002	0.89200002	-1.7309999	-0.74599999
16	1	6	0.099908002	0.88200003	-0.19499999	-1.63
17	1	4	-0.17648	-1.7	-1.836	0.045000002
18	1	6	0.063957997	-2.7620001	-2.01	-0.23100001
19	1	6	0.063957997	-1.707	-1.55	1.109
20	1	6	0.063957997	-1.159	-2.802	-0.056000002
21	1	4	-0.17648	-1.395	-1.163	-2.3280001
22	1	6	0.063957997	-0.97899997	-0.42899999	-3.052
23	1	6	0.063957997	-0.963	-2.161	-2.562
24	1	6	0.063957997	-2.494	-1.212	-2.4920001
25	1	6	0.099770002	-1.448	1.324	-1.4400001
26	1	6	0.099770002	-2.813	0.537	-0.597
27	1	7	0.0273	-1.543	0.65600002	1.574
28	1	6	0.098191001	0.58200002	2.118	-0.106
29	1	6	0.098191001	0.61799997	1.888	1.668
30	1	4	-0.17464501	0.98699999	-0.77999997	1.8099999
31	1	6	0.060787998	1.6210001	-0.329	2.6040001
32	1	6	0.060787998	-0.026000001	-0.83999997	2.2390001
33	1	6	0.060787998	1.349	-1.813	1.625
34	1	7	0.061930999	2.641	1.056	-0.65600002
35	1	7	0.061930999	2.967	1.013	1.087
36	1	5	0.31442299	3.2920001	-1.285	-0.884
37	1	8	-0.50307697	4.5939999	-9.3809996	0.96100003
38	1	4	0.14090601	4.9889998	-8.9449997	-0.31099999
39	1	4	-0.072521999	4.9710002	-7.4050002	-0.38600001
40	1	4	-0.095949002	5.9990001	-6.7399998	0.56699997
41	1	4	-0.076678	5.6230001	-5.2410002	0.68400002
42	1	4	-0.16273101	6.4310002	-4.4660001	1.732
43	1	4	-0.100514	6.9590001	-3.2130001	1.026
44	1	4	-0.161604	7.04	-3.5710001	-0.461
45	1	4	-0.080091	6.0110002	-4.6849999	-0.69499999
46	1	4	-0.110561	6.5819998	-5.9299998	-1.421
47	1	4	-0.16204301	5.4120002	-6.8709998	-1.77
48	1	6	0.104971	4.586	-6.3309999	-2.283
49	1	6	0.104971	5.7709999	-7.6859999	-2.438
50	1	4	-0.14268801	7.2449999	-6.6919999	-0.296
51	1	6	0.099368997	7.6129999	-7.6950002	-0.60799998
52	1	6	0.099368997	8.0900002	-6.1399999	0.17299999
53	1	6	0.110895	7.2449999	-5.7010002	-2.283
54	1	6	0.116638	5.1230001	-4.2719998	-1.224
55	1	6	0.105	8.0690002	-3.9200001	-0.69599998
56	1	6	0.105	6.8299999	-2.697	-1.1160001
57	1	4	0.13822401	6.0650001	-1.983	1.28
58	1	8	-0.50098503	4.7589998	-2.2090001	0.82300001
59	1	7	0.077817999	6.4980001	-1.101	0.75599998
60	1	7	0.077817999	6.0489998	-1.76	2.3699999
61	1	6	0.100212	7.9780002	-2.974	1.406
62	1	6	0.105	5.7989998	-4.217	2.6129999
63	1	6	0.105	7.2909999	-5.066	2.102
64	1	6	0.115812	4.5359998	-5.099	0.87900001
65	1	6	0.120861	6.1269999	-7.2529998	1.545
66	1	6	0.106899	3.9360001	-7.0640001	-0.16
67	1	7	0.075511999	6.0050001	-9.3389997	-0.51999998
68	1	7	0.075511999	4.3070002	-9.3640003	-1.085
69	1	1	-0.64217502	-2.9690001	-13.49	4.2080002
70	1	2	0.77313101	-3.569	-13.389	3.105
71	1	3	-0.448962	-2.8429999	-13.204	1.8839999
72	1	4	-0.0093900003	-1.383	-13.085	1.826
73	1	4	-0.013484	-0.91900003	-11.607	1.6390001
74	1	4	-0.211055	0.63300002	-11.613	1.576
75	1	4	0.122037	1.243	-10.276	1.117
76	1	3	-0.52623397	2.7049999	-10.391	1.052
77	1	2	0.79750699	3.5669999	-9.2480001	1.015
78	1	1	-0.64389199	3.096	-8.0799999	1.0549999
79	1	5	0.30546999	3.1570001	-11.334	1.067
80	1	4	-0.214733	0.69400001	-9.8909998	-0.26699999
81	1	4	-0.033549	-0.85100001	-9.7799997	-0.30500001
82	1	4	-0.216497	-1.515	-11.056	0.30199999
83	1	6	0.099908002	-2.6070001	-10.881	0.419
84	1	6	0.099908002	-1.423	-11.868	-0.454
85	1	4	-0.17648	-1.332	-8.4870005	0.39899999
86	1	6	0.063957997	-1.02	-7.5910001	-0.18000001
87	1	6	0.063957997	-0.90499997	-8.3599997	1.406
88	1	6	0.063957997	-2.4389999	-8.4729996	0.48100001
89	1	4	-0.17648	-1.289	-9.6719999	-1.786
90	1	6	0.063957997	-0.97299999	-10.568	-2.3640001
91	1	6	0.063957997	-2.395	-9.585	-1.862
92	1	6	0.063957997	-0.83399999	-8.7810001	-2.27
93	1	6	0.099770002	1.031	-10.661	-0.99800003
94	1	6	0.099770002	1.142	-8.9250002	-0.58899999
95	1	7	0.029193999	0.99900001	-9.4910002	1.86
96	1	6	0.098191001	0.96899998	-12.405	0.86900002
97	1	6	0.098191001	1.0470001	-11.876	2.576
98	1	4	-0.17464501	-1.408	-10.799	2.869
99	1	6	0.060787998	-1.1900001	-11.352	3.8080001
100	1	6	0.060787998	-0.90700001	-9.8240004	2.9749999
101	1	6	0.060787998	-2.5039999	-10.623	2.819
102	1	7	0.061930999	-1.02	-13.709	0.97899997
103	1	7	0.061930999	-0.92400002	-13.52	2.7409999
104	1	5	0.31442299	-3.3900001	-13.123	0.99800003
105	1	8	-0.50307697	-10.694	-9.6529999	3.2909999
106	1	4	0.14090601	-10.716	-10.519	2.188
107	1	4	-0.072521999	-9.3909998	-11.299	2.085
108	1	4	-0.095949002	-9.1490002	-12.245	3.29
109	1	4	-0.076678	-7.6560001	-12.662	3.2609999
110	1	4	-0.16273101	-7.1989999	-13.459	4.4899998
111	1	4	-0.100514	-6.4860001	-14.704	3.9530001
112	1	4	-0.161604	-7.0799999	-14.961	2.5639999
113	1	4	-0.080091	-7.5900002	-13.608	2.053
114	1	4	-0.110561	-9.0570002	-13.633	1.553
115	1	4	-0.16204301	-9.3690004	-12.279	0.88599998
116	1	6	0.104971	-8.5939999	-11.997	0.14
117	1	6	0.104971	-10.355	-12.332	0.37200001
118	1	4	-0.14268801	-9.8450003	-13.515	2.839
119	1	6	0.099368997	-10.937	-13.392	2.668
120	1	6	0.099368997	-9.6940002	-14.374	3.529
121	1	6	0.110895	-9.3179998	-14.512	0.926
122	1	6	0.116638	-6.8969998	-13.215	1.275
123	1	6	0.105	-7.9109998	-15.695	2.655
124	1	6	0.105	-6.3340001	-15.392	1.8609999
125	1	4	0.13822401	-4.9559999	-14.522	3.905
126	1	8	-0.50098503	-4.6040001	-13.443	3.082
127	1	7	0.077817999	-4.4879999	-15.455	3.52
128	1	7	0.077817999	-4.5749998	-14.347	4.9359999
129	1	6	0.100212	-6.7030001	-15.571	4.6160002
130	1	6	0.105	-6.5370002	-12.842	5.1360002
131	1	6	0.105	-8.066	-13.773	5.1110001
132	1	6	0.115812	-6.9829998	-11.786	3.1199999
133	1	6	0.120861	-9.4910002	-11.848	4.27
134	1	6	0.106899	-8.5649996	-10.559	1.984
135	1	7	0.075511999	-11.576	-11.211	2.3
136	1	7	0.075511999	-10.881	-9.9370003	1.252
137	1	1	-0.64217502	-10.097	-0.51800001	4.1960001
138	1	2	0.77313101	-9.9069996	-0.34999999	2.9619999
139	1	3	-0.448962	-10.295	-1.348	2.0109999
140	1	4	-0.0093900003	-10.899	-2.6289999	2.391
141	1	4	-0.013484	-9.875	-3.8050001	2.326
142	1	4	-0.211055	-10.631	-5.0999999	2.7309999
143	1	4	0.122037	-9.8430004	-6.3940001	2.4519999
144	1	3	-0.52623397	-10.651	-7.5599999	2.829
145	1	2	0.79750699	-10.08	-8.8579998	3.033
146	1	1	-0.64389199	-8.8409996	-9.0480003	2.9089999
147	1	5	0.30546999	-11.677	-7.4549999	2.9960001
148	1	4	-0.214733	-9.4779997	-6.4809999	0.95999998
149	1	4	-0.033549	-8.6520004	-5.2690001	0.45899999
150	1	4	-0.216497	-9.3360004	-3.925	0.86199999
151	1	6	0.099908002	-8.6450005	-3.0810001	0.64300001
152	1	6	0.099908002	-10.206	-3.7809999	0.182
153	1	4	-0.17648	-7.1900001	-5.348	0.96399999
154	1	6	0.063957997	-6.6599998	-6.2020001	0.49000001
155	1	6	0.063957997	-7.1170001	-5.513	2.0510001
156	1	6	0.063957997	-6.6360002	-4.4190001	0.70999998
157	1	4	-0.17648	-8.5950003	-5.3319998	-1.086
158	1	6	0.063957997	-9.6149998	-5.2859998	-1.527
159	1	6	0.063957997	-8.0050001	-4.4809999	-1.4910001
160	1	6	0.063957997	-8.1230001	-6.2789998	-1.428
161	1	6	0.099770002	-10.424	-6.553	0.37799999
162	1	6	0.099770002	-8.9110003	-7.4190001	0.76999998
163	1	7	0.029193999	-8.9259996	-6.402	3.0739999
164	1	6	0.098191001	-11.592	-5.1550002	2.171
165	1	6	0.098191001	-10.889	-5.0599999	3.812
166	1	4	-0.17464501	-8.7410002	-3.5009999	3.3380001
167	1	6	0.060787998	-9.1660004	-3.168	4.309
168	1	6	0.060787998	-8.1199999	-4.3800001	3.573
169	1	6	0.060787998	-8.0749998	-2.697	2.96
170	1	7	0.061930999	-11.75	-2.826	1.7029999
171	1	7	0.061930999	-11.342	-2.5599999	3.4089999
172	1	5	0.31442299	-10.112	-1.159	1.001
173	1	8	-0.50307697	-3.2539999	3.701	0.93900001
174	1	4	0.14090601	-4.1729999	3.8800001	-0.105
175	1	4	-0.072521999	-5.4959998	3.1530001	0.208
176	1	4	-0.095949002	-6.2280002	3.7309999	1.446
177	1	4	-0.076678	-7.3039999	2.7	1.874
178	1	4	-0.16273101	-8.007	3.0320001	3.197
179	1	4	-0.100514	-9.5109997	2.9360001	2.9200001
180	1	4	-0.161604	-9.6800003	3.21	1.4220001
181	1	4	-0.080091	-8.3529997	2.8210001	0.75800002
182	1	4	-0.110561	-7.7579999	3.921	-0.15800001
183	1	4	-0.16204301	-6.5510001	3.329	-0.912
184	1	6	0.104971	-6.8000002	2.3599999	-1.396
185	1	6	0.104971	-6.2119999	4.0409999	-1.697
186	1	4	-0.14268801	-7.0679998	4.8340001	0.82999998
187	1	6	0.099368997	-6.4679999	5.632	0.338
188	1	6	0.099368997	-7.7670002	5.3150001	1.549
189	1	6	0.110895	-8.4969997	4.4229999	-0.81900001
190	1	6	0.116638	-8.4729996	1.855	0.21600001
191	1	6	0.105	-9.9020004	4.289	1.272
192	1	6	0.105	-10.524	2.635	0.98199999
193	1	4	0.13822401	-10.091	1.568	3.329
194	1	8	-0.50098503	-9.4630003	0.52700001	2.631
195	1	7	0.077817999	-11.184	1.556	3.119
196	1	7	0.077817999	-9.9510002	1.423	4.4239998
197	1	6	0.100212	-10.046	3.7190001	3.503
198	1	6	0.105	-7.6830001	2.335	4.0009999
199	1	6	0.105	-7.7620001	4.0619998	3.5350001
200	1	6	0.115812	-6.8930001	1.6670001	1.925
201	1	6	0.120861	-5.5599999	4.059	2.2720001
202	1	6	0.106899	-5.2670002	2.072	0.34599999
203	1	7	0.075511999	-4.3429999	4.9679999	-0.243
204	1	7	0.075511999	-3.747	3.4879999	-1.056
205	1	1	-0.64217502	4.4980001	-1.174	1.8200001
206	1	2	0.77313101	4.348	-1.724	0.69700003
207	1	3	-0.448962	3.513	-1.138	-0.308
208	1	4	-0.0093900003	2.7579999	0.102	-0.105
209	1	4	-0.013484	1.244	-0.168	0.161
210	1	4	-0.211055	0.55400002	1.212	0.34299999
211	1	4	0.122037	-0.98500001	1.1440001	0.336
212	1	3	-0.52623397	-1.544	2.494	0.47499999
213	1	2	0.79750699	-2.9030001	2.7279999	0.86299998
214	1	1	-0.64389199	-3.678	1.7690001	1.119
215	1	5	0.30546999	-0.93599999	3.3310001	0.324
216	1	4	-0.214733	-1.4809999	0.51300001	-0.97600001
217	1	4	-0.033549	-0.912	-0.90700001	-1.228
218	1	4	-0.216497	0.64200002	-0.91799998	-1.072
219	1	6	0.099908002	1.0039999	-1.97	-1.089
220	1	6	0.099908002	1.068	-0.442	-1.984
221	1	4	-0.17648	-1.5930001	-1.948	-0.30700001
222	1	6	0.063957997	-2.6619999	-2.0739999	-0.58600003
223	1	6	0.063957997	-1.591	-1.654	0.755
224	1	6	0.063957997	-1.098	-2.9389999	-0.39899999
225	1	4	-0.17648	-1.249	-1.308	-2.684
226	1	6	0.063957997	-0.796	-0.60000002	-3.411
227	1	6	0.063957997	-0.86299998	-2.326	-2.9089999
228	1	6	0.063957997	-2.348	-1.307	-2.8510001
229	1	6	0.099770002	-1.189	1.1849999	-1.814
230	1	6	0.099770002	-2.5929999	0.47	-0.97100002
231	1	7	0.029193999	-1.326	0.54500002	1.204
232	1	6	0.098191001	0.87099999	1.8940001	-0.47799999
233	1	6	0.098191001	0.88999999	1.675	1.298
234	1	4	-0.17464501	1.1339999	-1.005	1.461
235	1	6	0.060787998	1.785	-0.579	2.2539999
236	1	6	0.060787998	0.117	-1.016	1.886
237	1	6	0.060787998	1.448	-2.056	1.285
238	1	7	0.061930999	2.8800001	0.73299998	-1.012
239	1	7	0.061930999	3.198	0.68800002	0.73299998
240	1	5	0.31442299	3.4219999	-1.638	-1.221
241	1	8	-0.50307697	4.3379998	-9.7720003	0.68900001
242	1	4	0.14090601	4.7579999	-9.3640003	-0.58499998
243	1	4	-0.072521999	4.8119998	-7.8260002	-0.671
244	1	4	-0.095949002	5.8660002	-7.2020001	0.28099999
245	1	4	-0.076678	5.5599999	-5.6859999	0.38499999
246	1	4	-0.16273101	6.4000001	-4.9419999	1.431
247	1	4	-0.100514	6.9889998	-3.72	0.71799999
248	1	4	-0.161604	7.0570002	-4.0929999	-0.76700002
249	1	4	-0.080091	5.9790001	-5.1599998	-0.99599999
250	1	4	-0.110561	6.493	-6.4359999	-1.71
251	1	4	-0.16204301	5.2820001	-7.323	-2.0569999
252	1	6	0.104971	4.4840002	-6.7490001	-2.5769999
253	1	6	0.104971	5.605	-8.1590004	-2.717
254	1	4	-0.14268801	7.1160002	-7.2189999	-0.57700002
255	1	6	0.099368997	7.4380002	-8.2399998	-0.88099998
256	1	6	0.099368997	7.9840002	-6.704	-0.11
257	1	6	0.110895	7.1690001	-6.244	-2.5710001
258	1	6	0.116638	5.1129999	-4.7090001	-1.531
259	1	6	0.105	8.0699997	-4.4920001	-0.995
260	1	6	0.105	6.8909998	-3.2160001	-1.429
261	1	4	0.13822401	6.152	-2.448	0.95899999
262	1	8	-0.50098503	4.8379998	-2.6159999	0.49900001
263	1	7	0.077817999	6.6279998	-1.591	0.43099999
264	1	7	0.077817999	6.1420002	-2.217	2.0480001
265	1	6	0.100212	8.0159998	-3.527	1.1
266	1	6	0.105	5.777	-4.658	2.3069999
267	1	6	0.105	7.2290001	-5.579	1.808
268	1	6	0.115812	4.48	-5.4920001	0.57499999
269	1	6	0.120861	5.967	-7.7129998	1.2640001
270	1	6	0.106899	3.793	-7.4349999	-0.45100001
271	1	7	0.075511999	5.7540002	-9.8070002	-0.787
272	1	7	0.075511999	4.059	-9.757	-1.359
273	1	1	-0.64217502	-3.421	-13.499	3.937
274	1	2	0.77313101	-4.0110002	-13.378	2.8310001
275	1	3	-0.448962	-3.273	-13.236	1.6109999
276	1	4	-0.0093900003	-1.809	-13.187	1.557
277	1	4	-0.013484	-1.276	-11.733	1.362
278	1	4	-0.211055	0.27500001	-11.812	1.3049999
279	1	4	0.122037	0.949	-10.508	0.83899999
280	1	3	-0.52623397	2.404	-10.692	0.77899998
281	1	2	0.79750699	3.3180001	-9.5909996	0.73799998
282	1	1	-0.64389199	2.902	-8.4020004	0.76800001
283	1	5	0.30546999	2.8110001	-11.655	0.80299997
284	1	4	-0.214733	0.42300001	-10.108	-0.55000001
285	1	4	-0.033549	-1.1160001	-9.9259996	-0.59500003
286	1	4	-0.216497	-1.841	-11.165	0.018999999
287	1	6	0.099908002	-2.924	-10.938	0.13
288	1	6	0.099908002	-1.784	-11.986	-0.73199999
289	1	4	-0.17648	-1.5369999	-8.6070004	0.097000003
290	1	6	0.063957997	-1.183	-7.73	-0.48699999
291	1	6	0.063957997	-1.109	-8.4919996	1.1059999
292	1	6	0.063957997	-2.6440001	-8.54	0.175
293	1	4	-0.17648	-1.543	-9.809	-2.0780001
294	1	6	0.063957997	-1.267	-10.722	-2.6489999
295	1	6	0.063957997	-2.6429999	-9.6700001	-2.1589999
296	1	6	0.063957997	-1.045	-8.9429998	-2.5680001
297	1	6	0.099770002	0.72500002	-10.899	-1.274
298	1	6	0.099770002	0.91600001	-9.1669998	-0.87800002
299	1	7	0.029193999	0.73799998	-9.7069998	1.575
300	1	6	0.098191001	0.57599998	-12.624	0.60500002
301	1	6	0.098191001	0.67199999	-12.086	2.3080001
302	1	4	-0.17464501	-1.7309999	-10.894	2.5840001
303	1	6	0.060787998	-1.5420001	-11.449	3.5280001
304	1	6	0.060787998	-1.1849999	-9.9429998	2.6849999
305	1	6	0.060787998	-2.8169999	-10.667	2.529
306	1	7	0.061930999	-1.473	-13.833	0.71700001
307	1	7	0.061930999	-1.374	-13.636	2.4779999
308	1	5	0.31442299	-3.812	-13.137	0.722
309	1	8	-0.50307697	-10.954	-9.3129997	2.961
310	1	4	0.14090601	-11.013	-10.184	1.865
311	1	4	-0.072521999	-9.7259998	-11.026	1.772
312	1	4	-0.095949002	-9.5319996	-11.974	2.9849999
313	1	4	-0.076678	-8.0600004	-12.46	2.9660001
314	1	4	-0.16273101	-7.645	-13.268	4.2010002
315	1	4	-0.100514	-6.9889998	-14.549	3.677
316	1	4	-0.161604	-7.5900002	-14.789	2.2880001
317	1	4	-0.080091	-8.0340004	-13.417	1.765
318	1	4	-0.110561	-9.4989996	-13.377	1.26
319	1	4	-0.16204301	-9.7449999	-12.015	0.58099997
320	1	6	0.104971	-8.9549999	-11.775	-0.164
321	1	6	0.104971	-10.73	-12.026	0.063000001
322	1	4	-0.14268801	-10.285	-13.213	2.5409999
323	1	6	0.099368997	-11.37	-13.04	2.365
324	1	6	0.099368997	-10.176	-14.073	3.2379999
325	1	6	0.110895	-9.7980003	-14.248	0.63700002
326	1	6	0.116638	-7.3210001	-13.062	0.986
327	1	6	0.105	-8.4549999	-15.482	2.3800001
328	1	6	0.105	-6.862	-15.259	1.59
329	1	4	0.13822401	-5.4520001	-14.439	3.6329999
330	1	8	-0.50098503	-5.0469999	-13.384	2.8039999
331	1	7	0.077817999	-5.027	-15.396	3.257
332	1	7	0.077817999	-5.0669999	-14.275	4.665
333	1	6	0.100212	-7.2490001	-15.4	4.3460002
334	1	6	0.105	-6.9569998	-12.678	4.8460002
335	1	6	0.105	-8.5279999	-13.537	4.8210001
336	1	6	0.115812	-7.3460002	-11.617	2.8199999
337	1	6	0.120861	-9.8579998	-11.554	3.961
338	1	6	0.106899	-8.8660002	-10.327	1.669
339	1	7	0.075511999	-11.904	-10.835	1.979
340	1	7	0.075511999	-11.147	-9.6020002	0.92400002
341	1	1	-0.64217502	-9.9350004	-0.20900001	3.802
342	1	2	0.77313101	-9.7329998	-0.059	2.5669999
343	1	3	-0.448962	-10.163	-1.045	1.623
344	1	4	-0.0093900003	-10.827	-2.293	2.0090001
345	1	4	-0.013484	-9.8590002	-3.516	1.957
346	1	4	-0.211055	-10.676	-4.7719998	2.368
347	1	4	0.122037	-9.9490004	-6.1030002	2.102
348	1	3	-0.52623397	-10.812	-7.2270002	2.4849999
349	1	2	0.79750699	-10.303	-8.5489998	2.7
350	1	1	-0.64389199	-9.0740004	-8.7969999	2.5829999
351	1	5	0.30546999	-11.833	-7.073	2.6459999
352	1	4	-0.214733	-9.5830002	-6.2179999	0.61299998
353	1	4	-0.033549	-8.6999998	-5.0500002	0.106
354	1	4	-0.216497	-9.3219995	-3.6719999	0.49599999
355	1	6	0.099908002	-8.5909996	-2.8640001	0.273
356	1	6	0.099908002	-10.182	-3.4920001	-0.18799999
357	1	4	-0.17648	-7.2449999	-5.1929998	0.61699998
358	1	6	0.063957997	-6.7540002	-6.0749998	0.15099999
359	1	6	0.063957997	-7.1830001	-5.3530002	1.705
360	1	6	0.063957997	-6.6469998	-4.2930002	0.359
361	1	4	-0.17648	-8.6409998	-5.1269999	-1.439
362	1	6	0.063957997	-9.6549997	-5.0359998	-1.8839999
363	1	6	0.063957997	-8.0100002	-4.3080001	-1.848
364	1	6	0.063957997	-8.2119999	-6.0970001	-1.772
365	1	6	0.099770002	-10.53	-6.25	0.027000001
366	1	6	0.099770002	-9.0600004	-7.1830001	0.43200001
367	1	7	0.029193999	-9.0360003	-6.1490002	2.727
368	1	6	0.098191001	-11.637	-4.7859998	1.8049999
369	1	6	0.098191001	-10.936	-4.711	3.4489999
370	1	4	-0.17464501	-8.7159996	-3.2579999	2.971
371	1	6	0.060787998	-9.1289997	-2.898	3.938
372	1	6	0.060787998	-8.1379995	-4.164	3.2149999
373	1	6	0.060787998	-8.0120001	-2.4879999	2.589
374	1	7	0.061930999	-11.685	-2.4560001	1.319
375	1	7	0.061930999	-11.27	-2.1960001	3.0250001
376	1	5	0.31442299	-9.9680004	-0.87199998	0.611
377	1	8	-0.50307697	-2.891	3.6619999	0.54100001
378	1	4	0.14090601	-3.7969999	3.8759999	-0.50800002
379	1	4	-0.072521999	-5.152	3.2130001	-0.19499999
380	1	4	-0.095949002	-5.862	3.8340001	1.036
381	1	4	-0.076678	-6.9860001	2.858	1.467
382	1	4	-0.16273101	-7.677	3.2320001	2.7850001
383	1	4	-0.100514	-9.1829996	3.2049999	2.503
384	1	4	-0.161604	-9.3339996	3.4749999	1.002
385	1	4	-0.080091	-8.0240002	3.0190001	0.34599999
386	1	4	-0.110561	-7.375	4.0840001	-0.57499999
387	1	4	-0.16204301	-6.1939998	3.4300001	-1.3200001
388	1	6	0.104971	-6.487	2.47	-1.798
389	1	6	0.104971	-5.8200002	4.1199999	-2.109
390	1	4	-0.14268801	-6.6469998	4.9710002	0.40900001
391	1	6	0.099368997	-6.0089998	5.7360001	-0.086000003
392	1	6	0.099368997	-7.3249998	5.4889998	1.1210001
393	1	6	0.110895	-8.0869999	4.6139998	-1.243
394	1	6	0.116638	-8.1870003	2.056	-0.189
395	1	6	0.105	-9.5039997	4.5619998	0.84399998
396	1	6	0.105	-10.202	2.937	0.56400001
397	1	4	0.13822401	-9.8280001	1.869	2.9200001
398	1	8	-0.50098503	-9.2469997	0.79400003	2.2320001
399	1	7	0.077817999	-10.919	1.906	2.7060001
400	1	7	0.077817999	-9.6990004	1.726	4.0170002
401	1	6	0.100212	-9.6829996	4.0159998	3.0780001
402	1	6	0.105	-7.3889999	2.527	3.595
403	1	6	0.105	-7.3860002	4.2529998	3.1159999
404	1	6	0.115812	-6.6240001	1.807	1.528
405	1	6	0.120861	-5.1820002	4.1370001	1.862
406	1	6	0.106899	-4.9759998	2.1240001	-0.048
407	1	7	0.075511999	-3.914	4.9689999	-0.65399998
408	1	7	0.075511999	-3.3859999	3.4579999	-1.455
409	1	1	-0.64217502	4.6220002	-1.563	1.487
410	1	2	0.77313101	4.4510002	-2.1140001	0.368
411	1	3	-0.448962	3.648	-1.497	-0.64499998
412	1	4	-0.0093900003	2.951	-0.222	-0.45300001
413	1	4	-0.013484	1.425	-0.419	-0.192
414	1	4	-0.211055	0.79900002	0.99299997	-0.022
415	1	4	0.122037	-0.741	0.99699998	-0.034000002
416	1	3	-0.52623397	-1.237	2.3729999	0.092
417	1	2	0.79750699	-2.585	2.6730001	0.47299999
418	1	1	-0.64389199	-3.405	1.753	0.73400003
419	1	5	0.30546999	-0.58999997	3.1789999	-0.061999999
420	1	4	-0.214733	-1.262	0.38	-1.344
421	1	4	-0.033549	-0.75800002	-1.066	-1.5829999
422	1	4	-0.216497	0.792	-1.149	-1.421
423	1	6	0.099908002	1.105	-2.217	-1.429
424	1	6	0.099908002	1.244	-0.69999999	-2.335
425	1	4	-0.17648	-1.4910001	-2.0680001	-0.65700001
426	1	6	0.063957997	-2.563	-2.1459999	-0.93900001
427	1	6	0.063957997	-1.479	-1.766	0.40200001
428	1	6	0.063957997	-1.0420001	-3.0810001	-0.74000001
429	1	4	-0.17648	-1.109	-1.4630001	-3.0369999
430	1	6	0.063957997	-0.62099999	-0.78100002	-3.7679999
431	1	6	0.063957997	-0.76999998	-2.4990001	-3.253
432	1	6	0.063957997	-2.2060001	-1.411	-3.2090001
433	1	6	0.099770002	-0.935	1.0319999	-2.1849999
434	1	6	0.099770002	-2.3740001	0.389	-1.3430001
435	1	7	0.029193999	-1.113	0.421	0.83600003
436	1	6	0.098191001	1.151	1.653	-0.847
437	1	6	0.098191001	1.154	1.448	0.93000001
438	1	4	-0.17464501	1.271	-1.24	1.114
439	1	6	0.060787998	1.939	-0.83899999	1.9069999
440	1	6	0.060787998	0.25400001	-1.2	1.535
441	1	6	0.060787998	1.536	-2.306	0.94700003
442	1	7	0.061930999	3.1059999	0.396	-1.365
443	1	7	0.061930999	3.414	0.34900001	0.382
444	1	5	0.31442299	3.5369999	-1.999	-1.554
445	1	8	-0.50307697	4.0650001	-10.152	0.419
446	1	4	0.14090601	4.507	-9.7740002	-0.85699999
447	1	4	-0.072521999	4.6339998	-8.2410002	-0.95300001
448	1	4	-0.095949002	5.7119999	-7.6599998	-0.0020000001
449	1	4	-0.076678	5.4770002	-6.131	0.090000004
450	1	4	-0.16273101	6.3470001	-5.4190001	1.133
451	1	4	-0.100514	6.9949999	-4.2309999	0.414
452	1	4	-0.161604	7.0510001	-4.618	-1.068
453	1	4	-0.080091	5.9250002	-5.6350002	-1.293
454	1	4	-0.110561	6.382	-6.9380002	-1.997
455	1	4	-0.16204301	5.131	-7.7709999	-2.342
456	1	6	0.104971	4.3629999	-7.164	-2.869
457	1	6	0.104971	5.4180002	-8.6260004	-2.994
458	1	4	-0.14268801	6.9640002	-7.7410002	-0.85500002
459	1	6	0.099368997	7.2379999	-8.7790003	-1.15
460	1	6	0.099368997	7.8530002	-7.2639999	-0.38800001
461	1	6	0.110895	7.0689998	-6.7849998	-2.8559999
462	1	6	0.116638	5.0830002	-5.1479998	-1.836
463	1	6	0.105	8.0450001	-5.0650001	-1.289
464	1	6	0.105	6.928	-3.7379999	-1.737
465	1	4	0.13822401	6.2179999	-2.9200001	0.64200002
466	1	8	-0.50098503	4.9000001	-3.03	0.178
467	1	7	0.077817999	6.7350001	-2.0899999	0.11
468	1	7	0.077817999	6.2150002	-2.6800001	1.729
469	1	6	0.100212	8.0290003	-4.0830002	0.79900002
470	1	6	0.105	5.7360001	-5.099	2.0050001
471	1	6	0.105	7.145	-6.0910001	1.5190001
472	1	6	0.115812	4.4070001	-5.8850002	0.27399999
473	1	6	0.120861	5.7859998	-8.1680002	0.98500001
474	1	6	0.106899	3.6329999	-7.8010001	-0.741
475	1	7	0.075511999	5.4829998	-10.265	-1.051
476	1	7	0.075511999	3.7939999	-10.139	-1.63
477	1	1	-0.64217502	-3.8710001	-13.489	3.664
478	1	2	0.77313101	-4.4510002	-13.349	2.5539999
479	1	3	-0.448962	-3.7030001	-13.25	1.337
480	1	4	-0.0093900003	-2.2379999	-13.27	1.288
481	1	4	-0.013484	-1.637	-11.844	1.084
482	1	4	-0.211055	-0.092	-11.996	1.034
483	1	4	0.122037	0.64399999	-10.729	0.56099999
484	1	3	-0.52623397	2.089	-10.981	0.50800002
485	1	2	0.79750699	3.0539999	-9.9230003	0.463
486	1	1	-0.64389199	2.694	-8.7159996	0.48199999
487	1	5	0.30546999	2.451	-11.961	0.54100001
488	1	4	-0.214733	0.14300001	-10.315	-0.833
489	1	4	-0.033549	-1.385	-10.061	-0.88599998
490	1	4	-0.216497	-2.1700001	-11.26	-0.26499999
491	1	6	0.099908002	-3.2420001	-10.982	-0.16
492	1	6	0.099908002	-2.1489999	-12.089	-1.0089999
493	1	4	-0.17648	-1.748	-8.7189999	-0.204
494	1	6	0.063957997	-1.35	-7.8639998	-0.79299998
495	1	6	0.063957997	-1.318	-8.6160002	0.80500001
496	1	6	0.063957997	-2.8499999	-8.599	-0.131
497	1	4	-0.17648	-1.801	-9.9350004	-2.3710001
498	1	6	0.063957997	-1.567	-10.865	-2.934
499	1	6	0.063957997	-2.8940001	-9.7460003	-2.457
500	1	6	0.063957997	-1.262	-9.0979996	-2.865
501	1	6	0.099770002	0.41	-11.124	-1.55
502	1	6	0.099770002	0.68099999	-9.3999996	-1.166
503	1	7	0.029193999	0.46900001	-9.9130001	1.29
504	1	6	0.098191001	0.17399999	-12.827	0.34099999
505	1	6	0.098191001	0.289	-12.28	2.04
506	1	4	-0.17464501	-2.056	-10.976	2.2980001
507	1	6	0.060787998	-1.897	-11.532	3.247
508	1	6	0.060787998	-1.467	-10.05	2.395
509	1	6	0.060787998	-3.1300001	-10.699	2.237
510	1	7	0.061930999	-1.929	-13.937	0.454
511	1	7	0.061930999	-1.8279999	-13.732	2.2130001
512	1	5	0.31442299	-4.2340002	-13.133	0.44499999
513	1	8	-0.153364	-11.197	-8.9630003	2.628
514	1	4	0.059044	-11.293	-9.8389997	1.538
515	1	4	-0.065520003	-10.046	-10.74	1.457
516	1	4	-0.096979	-9.901	-11.687	2.677
517	1	4	-0.076008998	-8.4530001	-12.241	2.6670001
518	1	4	-0.16273101	-8.0810003	-13.059	3.9100001
519	1	4	-0.100514	-7.4829998	-14.373	3.3970001
520	1	4	-0.161604	-8.0900002	-14.595	2.0079999
521	1	4	-0.080091	-8.4680004	-13.207	1.473
522	1	4	-0.109939	-9.9280005	-13.103	0.96200001
523	1	4	-0.163128	-10.107	-11.736	0.273
524	1	6	0.104943	-9.3039999	-11.539	-0.47099999
525	1	6	0.104943	-11.09	-11.705	-0.249
526	1	4	-0.142251	-10.709	-12.893	2.2390001
527	1	6	0.099368997	-11.784	-12.671	2.0580001
528	1	6	0.099368997	-10.644	-13.752	2.9419999
529	1	6	0.110895	-10.265	-13.964	0.345
530	1	6	0.116638	-7.7360001	-12.893	0.69499999
531	1	6	0.105	-8.9860001	-15.246	2.102
532	1	6	0.105	-7.3829999	-15.104	1.317
533	1	4	0.13822401	-5.9429998	-14.335	3.359
534	1	8	-0.50098503	-5.4860001	-13.306	2.5239999
535	1	7	0.077817999	-5.5609999	-15.314	2.9920001
536	1	7	0.077817999	-5.5549998	-14.181	4.3909998
537	1	6	0.100212	-7.7849998	-15.206	4.072
538	1	6	0.105	-7.369	-12.496	4.553
539	1	6	0.105	-8.9770002	-13.282	4.5289998
540	1	6	0.115812	-7.6999998	-11.434	2.5179999
541	1	6	0.121198	-10.211	-11.245	3.6489999
542	1	6	0.110679	-9.1540003	-10.083	1.352
543	1	7	0.085822001	-12.214	-10.446	1.653
544	1	7	0.085822001	-11.396	-9.2580004	0.59299999
545	1	1	-0.728315	-4.8800001	3.905	1.466
546	1	2	0.54930401	-3.635	3.7609999	1.3430001
547	1	3	-0.57744402	-2.76	4.895	1.325
548	1	4	0.120029	-3.2539999	6.2729998	1.426
549	1	4	-0.215811	-2.1059999	7.224	1.798
550	1	4	-0.034074999	-2.6170001	8.6639996	2.096
551	1	4	-0.17648	-1.485	9.6820002	1.822
552	1	6	0.063957997	-1.809	10.711	2.089
553	1	6	0.063957997	-1.181	9.6890001	0.759
554	1	6	0.063957997	-0.58700001	9.4359999	2.4289999
555	1	4	-0.17648	-2.973	8.7729998	3.599
556	1	6	0.063957997	-3.3670001	9.7860003	3.835
557	1	6	0.063957997	-2.0780001	8.5950003	4.2350001
558	1	6	0.063957997	-3.7460001	8.0279999	3.882
559	1	4	-0.21504299	-3.8900001	9.0170002	1.251
560	1	4	0.019199001	-4.0500002	8.2480001	-0.101
561	1	4	-0.21196701	-3.9100001	6.697	0.093000002
562	1	6	0.098057002	-3.329	6.2600002	-0.75
563	1	6	0.098057002	-4.902	6.1999998	0.043000001
564	1	4	-0.17307299	-2.9920001	8.7399998	-1.1210001
565	1	6	0.057555001	-3.223	8.3579998	-2.1400001
566	1	6	0.057555001	-1.978	8.375	-0.87599999
567	1	6	0.057555001	-2.9719999	9.8500004	-1.169
568	1	4	0.138126	-5.4439998	8.5819998	-0.71200001
569	1	3	-0.68967599	-6.5370002	8.1540003	0.161
570	1	9	0.59694999	-7.4109998	8.9700003	0.597
571	1	1	-0.53828198	-8.2589998	9.7639999	1.022
572	1	7	0.058655001	-5.513	9.6759996	-0.91799998
573	1	7	0.058655001	-5.5599999	8.059	-1.686
574	1	6	0.098600999	-4.7859998	8.7869997	1.867
575	1	6	0.098600999	-3.941	10.114	1.0700001
576	1	6	0.099770002	-1.564	6.8179998	2.681
577	1	6	0.099770002	-1.365	7.2270002	0.97000003
578	1	7	0.0273	-4.0159998	6.316	2.2349999
579	1	5	0.301994	-1.733	4.7119999	1.2640001
580	1	8	-0.151719	-10.54	-8.2629995	2.375
581	1	4	0.059168	-11.238	-7.0479999	2.2809999
582	1	4	-0.092601001	-10.967	-6.1490002	3.5020001
583	1	4	-0.162525	-9.4829998	-5.8049998	3.677
584	1	4	-0.079424001	-9.1820002	-5.8249998	5.1799998
585	1	4	-0.075346999	-10.388	-6.448	5.8899999
586	1	4	-0.16365901	-11.448	-6.7610002	4.823
587	1	6	0.104893	-12.446	-6.3569999	5.099
588	1	6	0.104893	-11.553	-7.8649998	4.7389998
589	1	4	-0.090580001	-10.809	-5.3369999	6.8940001
590	1	4	-0.142251	-10.538	-4.0739999	6.1030002
591	1	4	-0.109939	-9.0889997	-4.4180002	5.8280001
592	1	4	-0.15760501	-8.5410004	-4.5879998	7.2600002
593	1	4	-0.108084	-9.75	-5.1859999	8.0170002
594	1	4	0.136775	-9.4219999	-6.4749999	8.7950001