Title

11000 atoms
11125 bonds
21000 angles
42750 dihedrals
2250 impropers

11 atom types
14 bond types
9 angle types
35 dihedral types
3 improper types
-11.46109774 114.3269572 xlo xhi
-11.05301739 113.349765 ylo yhi
-11.53204462 115.6875774 zlo zhi
0.0 0.0 0.0 xy xz yz

Masses

1	12.01078
2	15.99943
3	14.00672
4	12.01078
5	1.007947
6	1.007947
7	1.007947
8	15.99943
9	12.01078
10	15.99943
11	1.007947


Pair Coeffs

1	0.086879315	3.4806469
2	0.2102061	3.0398122
3	0.16769152	3.206876
4	0.10884061	3.3795318
5	0.015779483	2.6445434
6	0.014090815	1.1034277
7	0.016409246	2.5832257
8	0.16846514	3.0251065
9	0.21	3.3996695
10	0.20947353	2.99716
11	1.2326e-05	0.53453923

Bond Coeffs

1 harmonic	582.698766451	1.225198386222
2 harmonic	492.76746816345	1.381897776683
3 harmonic	279.1350963404	1.454628925034
4 harmonic	352.0565580496	1.450098586273
5 harmonic	505.144496193	1.019481865027
6 harmonic	264.62148576755	1.52190126495
7 harmonic	370.04670688625	1.093899492634
8 harmonic	301.15400723785	1.345741232799
9 harmonic	366.7408841747	1.425895053732
10 harmonic	300.03137914615	1.451203938761
11 harmonic	366.34047229585	1.464762957261
12 harmonic	602.81384337	1.196112346392
13 harmonic	329.96998057905	1.427343958716
14 harmonic	543.5267831885	0.9716763312559


Angle Coeffs

1 harmonic	55.42182150775	117.3465570514
2 harmonic	63.44422595415	115.5071327674
3 harmonic	57.8982893754	126.8062420451
4 harmonic	53.20531626545	116.5475862634
5 harmonic	48.776492647595	115.6030999533
6 harmonic	65.09061609600001	110.3538806181
7 harmonic	201.41175231035	127.4691416191
8 harmonic	55.07882548015	112.8714009681
9 harmonic	33.56981613361	180


Dihedral Coeffs

1 fourier 1	-0.1488678166443	4	180
2 fourier 1	-0.1230328948768	3	180
3 fourier 1	0.2939295466901	2	0
4 fourier 1	-0.3024127022865	1	0
5 fourier 1	0.182238503271	2	0
6 fourier 1	0.02972342374561	3	0
7 fourier 1	1.809047390003	2	180
8 fourier 1	-0.04816277792592	1	0
9 fourier 1	3.101948770557	2	180
10 fourier 1	-0.4252153282372	1	0
11 fourier 1	2.348375642009	2	180
12 fourier 1	1.256156174911	1	0
13 fourier 1	0.9974165607242	2	180
14 fourier 1	0.1155372516788	3	0
15 fourier 1	0.1040663847541	3	0
16 fourier 1	0.09223874044423	3	0
17 fourier 1	0.3159935921949	2	180
18 fourier 1	0.3247796806857	1	180
19 fourier 1	0.1911926717192	3	0
20 fourier 1	2.779853741805	2	180
21 fourier 1	0.1918272375143	3	0
22 fourier 1	0.9202179876409	1	180
23 fourier 1	0.0473758381877	3	0
24 fourier 1	0.4860993122944	2	180
25 fourier 1	0.8916986138746	1	0
26 fourier 1	1.163809172478	2	180
27 fourier 1	0.1679186987369	1	180
28 fourier 1	0.1115525666802	3	0
29 fourier 1	0.3432490222662	1	0
30 fourier 1	0.457973137376	1	0
31 fourier 1	-1.382973039546	1	0
32 fourier 1	0	1	0
33 fourier 1	0.3445382149273	3	0
34 fourier 1	0.1364556373303	1	0
35 fourier 1	0.3026390167484	3	0


Improper Coeffs

1 0.3333333333333333	-1	2
2 0.3666666666666667	-1	2
3 3.5	-1	2


Atoms

1	6	1	0.54229659	0.63128013	-0.0057692475	-2.4131906
2	6	2	-0.68573004	1.7832521	0.48149774	-2.2625437
3	6	3	-0.49533442	-0.081357547	-0.56650364	-1.3065165
4	6	4	0.023554714	0.47370592	-0.62297598	0.046114056
5	6	4	-0.07759473	1.5461089	-1.7251433	0.16533677
6	6	5	0.081343358	2.3087158	-1.5549252	-0.62813756
7	6	4	-0.17219971	0.94213156	-3.125304	-0.049808136
8	6	5	0.099343223	0.38922378	-3.1667897	-1.0127894
9	6	5	0.099343223	0.21439201	-3.338078	0.76433642
10	6	4	-0.1323705	2.0303546	-4.217814	-0.057948929
11	6	5	0.089197559	2.3602766	-4.4022187	-1.1034638
12	6	5	0.089197559	1.586554	-5.1649297	0.31968316
13	6	4	-0.17219973	3.2682723	-3.861453	0.78884301
14	6	5	0.099343186	4.0050397	-3.3183353	0.15545682
15	6	5	0.099343186	3.750989	-4.8020647	1.1308477
16	6	4	-0.077451708	2.8950133	-2.9838131	1.9977495
17	6	4	0.020275145	4.1286317	-2.7503185	2.8945749
18	6	3	-0.44897026	3.7687771	-2.0660619	4.1380244
19	6	1	0.78571492	4.7584022	-1.6978881	5.1027156
20	6	2	-0.60914582	5.9768418	-1.9461216	4.9040445
21	6	6	0.32421356	2.7708782	-1.8469387	4.3560718
22	6	7	0.069611689	4.8839244	-2.1471433	2.3440072
23	6	7	0.069611689	4.5901664	-3.7292447	3.1514837
24	6	5	0.081343365	2.1411867	-3.5454968	2.5962892
25	6	4	-0.17933543	2.2601645	-1.6404003	1.5390567
26	6	5	0.1046352	1.5381417	-1.3180428	2.3212087
27	6	5	0.1046352	3.0377741	-0.8472457	1.4708071
28	6	7	0.064170314	-0.34727013	-0.82563064	0.7679301
29	6	7	0.064170314	0.90900695	0.36639385	0.30531738
30	6	6	0.31635555	-1.0602797	-0.89465186	-1.4624529
31	7	8	-0.49733305	4.4710864	-1.2203099	5.977972
32	7	4	0.11372885	3.0699861	-1.1787947	5.9705398
33	7	4	-0.13641252	2.5801306	-0.064795509	5.0379068
34	7	4	-0.14362067	1.0545774	-0.071072994	4.8409981
35	7	4	0.035182436	0.27522325	0.36395658	6.0869024
36	7	8	-0.16561538	0.20621292	-0.68756779	7.009949
37	7	7	0.087220763	-0.75762779	0.6438927	5.7793938
38	7	7	0.087220763	0.75395682	1.2549501	6.5505604
39	7	5	0.095327002	0.81686549	0.64197153	4.0221718
40	7	5	0.095327002	0.7124174	-1.0757676	4.5081749
41	7	5	0.09422387	3.0540145	-0.20410095	4.0420609
42	7	5	0.09422387	2.9090499	0.92250065	5.4299583
43	7	7	0.087199268	2.6563065	-2.1633321	5.6545284
44	7	7	0.087199268	2.728058	-0.97641132	7.0071879
45	4	1	0.54229653	0.17273514	0.007817046	-3.3938561
46	4	2	-0.6857301	0.57615385	-0.79476368	-4.2765625
47	4	3	-0.49533436	-0.88079215	0.93448427	-3.6707317
48	4	4	0.02355471	-1.5384909	0.97678957	-4.9778509
49	4	4	-0.07783253	-2.5854494	2.1112278	-5.0535746
50	4	5	0.081343358	-3.3024652	1.9601552	-4.215683
51	4	4	-0.17219971	-1.913213	3.4993764	-4.869837
52	4	5	0.099343223	-1.8032872	3.721143	-3.7862167
53	4	5	0.099343223	-0.89418047	3.5067606	-5.3163113
54	4	4	-0.13248155	-2.7313174	4.6168615	-5.5228158
55	4	5	0.089197559	-3.7434415	4.6386904	-5.0597324
56	4	5	0.089197559	-2.2502236	5.5983897	-5.3207661
57	4	4	-0.1679329	-2.8648393	4.4127195	-7.0455814
58	4	5	0.099696843	-3.8204042	4.8819399	-7.3700993
59	4	5	0.099696843	-2.0423934	4.956775	-7.5600756
60	4	4	-0.054144482	-2.8170928	2.9236667	-7.476001
61	4	4	0.16913304	-3.5440037	2.726035	-8.8178323
62	4	3	-0.62087441	-3.3181039	1.3746183	-9.3240854
63	4	9	0.59916132	-2.7522272	1.1595836	-10.44331
64	4	2	-0.46579987	-2.2014915	0.95003176	-11.532045
65	4	7	0.062506502	-4.6366341	2.8809175	-8.6854534
66	4	7	0.062506502	-3.179916	3.4835348	-9.5502695
67	4	5	0.084784707	-1.750215	2.6408351	-7.625316
68	4	4	-0.17505802	-3.4042538	2.0205687	-6.372116
69	4	5	0.10501764	-3.4632821	0.96639377	-6.7229718
70	4	5	0.10501764	-4.4502402	2.3410864	-6.1697132
71	4	7	0.064170314	-2.0363553	-0.0017181396	-5.1499403
72	4	7	0.064170314	-0.7745927	1.1198692	-5.7737408
73	4	6	0.31635555	-1.1859592	1.5688675	-2.8991794
74	5	8	-0.16561538	-0.29225679	-0.3343513	7.7934329
75	5	4	0.035294571	-1.6422047	-0.27981273	7.4194673
76	5	4	-0.13788279	-1.8947864	0.94407685	6.5316031
77	5	4	-0.16493383	-3.312523	0.97384071	5.9360774
78	5	4	0.088751813	-4.4050524	1.259844	6.9733062
79	5	10	-0.67964697	-4.6895862	0.10403903	7.7115931
80	5	11	0.3855288	-5.385493	0.3625509	8.3705433
81	5	7	0.07856596	-5.3254614	1.5836674	6.4390033
82	5	7	0.07856596	-4.0876041	2.0830115	7.6515818
83	5	5	0.097790909	-3.3431483	1.7849908	5.1756159
84	5	5	0.097790909	-3.5300899	0.020782254	5.4068457
85	5	5	0.09550221	-1.1701888	0.92411862	5.6876286
86	5	5	0.09550221	-1.7054484	1.8727602	7.1117758
87	5	7	0.087220763	-1.9325039	-1.215354	6.8872091
88	5	7	0.087220763	-2.2502135	-0.20404157	8.3437038
89	6	1	0.54229659	-0.062081397	-1.5580829	25.504286
90	6	2	-0.68573004	0.9191281	-1.0611205	26.11863
91	6	3	-0.49533442	-0.72216986	-0.83302325	24.462376
92	6	4	0.023554714	-0.31881618	0.51362972	24.056512
93	6	4	-0.07759473	-0.76893934	1.5675681	25.08881
94	6	5	0.081343358	-0.38188985	1.2628417	26.087549
95	6	4	-0.17219971	-2.3041146	1.6483981	25.179526
96	6	5	0.099343223	-2.7357368	0.64347874	25.375996
97	6	5	0.099343223	-2.7092457	2.0030502	24.205976
98	6	4	-0.1323705	-2.7569032	2.6075501	26.298849
99	6	5	0.089197559	-2.9167557	2.0314882	27.236162
100	6	5	0.089197559	-3.7359442	3.0508029	26.013194
101	6	4	-0.17219973	-1.7496235	3.7384716	26.586763
102	6	5	0.099343186	-1.0252673	3.3995596	27.36099
103	6	5	0.099343186	-2.2992117	4.6102584	27.002303
104	6	4	-0.077451708	-0.97995523	4.1491403	25.317908
105	6	4	0.020275145	-0.074869889	5.3647503	25.607292
106	6	3	-0.44897026	0.53689121	5.8843911	24.382714
107	6	1	0.78571492	1.4566211	6.97927	24.412316
108	6	2	-0.60914582	1.7748515	7.5252863	25.501481
109	6	6	0.32421356	0.29810544	5.4739731	23.452176
110	6	7	0.069611689	0.72256926	5.0758305	26.327034
111	6	7	0.069611689	-0.68008653	6.1749703	26.070508
112	6	5	0.081343365	-1.7334884	4.4598126	24.557867
113	6	4	-0.17933543	-0.1654377	2.9541544	24.746279
114	6	5	0.1046352	-0.10458414	3.0778097	23.642649
115	6	5	0.1046352	0.8782784	2.9764157	25.131753
116	6	7	0.064170314	-0.77162433	0.74651108	23.06817
117	6	7	0.064170314	0.78541537	0.54391673	23.932894
118	6	6	0.31635555	-1.4848851	-1.3105573	23.932742
119	7	8	-0.49733305	1.8679329	7.3297881	23.526503
120	7	4	0.11372885	1.2545368	6.6141124	22.488999
121	7	4	-0.13641252	1.8669597	5.212685	22.380849
122	7	4	-0.14362067	1.1267306	4.3070039	21.381886
123	7	4	0.035182436	1.3266967	4.7181896	19.919059
124	7	8	-0.16561538	0.50879875	5.8110791	19.604231
125	7	7	0.087220763	1.0488427	3.8588297	19.267903
126	7	7	0.087220763	2.3945979	4.9670797	19.730182
127	7	5	0.095327002	1.521721	3.2753347	21.504593
128	7	5	0.095327002	0.041560694	4.2716801	21.623577
129	7	5	0.09422387	1.8203809	4.7288342	23.380549
130	7	5	0.09422387	2.9393577	5.2942156	22.098075
131	7	7	0.087199268	0.15631821	6.548554	22.661991
132	7	7	0.087199268	1.4232701	7.1703267	21.54313
133	4	1	0.54229653	-0.40441881	-2.5515161	25.765147
134	4	2	-0.6857301	-1.0472726	-2.7234019	26.834374
135	4	3	-0.49533436	-0.12184926	-3.6499218	24.893969
136	4	4	0.02355471	-0.57851865	-5.0065356	25.200514
137	4	4	-0.07783253	-0.082099537	-6.02672	24.150944
138	4	5	0.081343358	-0.42487156	-5.6724261	23.152955
139	4	4	-0.17219971	1.4696253	-6.0934385	24.133145
140	4	5	0.099343223	1.8712889	-5.2846233	23.485085
141	4	5	0.099343223	1.8832115	-5.9383034	25.154272
142	4	4	-0.13248155	1.9736137	-7.4417047	23.611012
143	4	5	0.089197559	1.5911763	-7.5919382	22.576367
144	4	5	0.089197559	3.0839148	-7.43004	23.558396
145	4	4	-0.1679329	1.5128781	-8.6099083	24.506188
146	4	5	0.099696843	1.4338687	-9.5181301	23.86785
147	4	5	0.099696843	2.2949266	-8.814494	25.270166
148	4	4	-0.054144482	0.17051776	-8.338764	25.233765
149	4	4	0.16913304	-0.53303999	-9.6628771	25.579742
150	4	3	-0.62087441	-1.6835403	-9.4161369	26.445258
151	4	9	0.59916132	-1.7716144	-9.9206202	27.610101
152	4	2	-0.46579987	-1.8574899	-10.411077	28.743522
153	4	7	0.062506502	-0.88425819	-10.161595	24.650613
154	4	7	0.062506502	0.19192709	-10.346907	26.079097
155	4	5	0.084784707	0.3954722	-7.815969	26.191156
156	4	4	-0.17505802	-0.7312807	-7.4200333	24.384295
157	4	5	0.10501764	-1.7312579	-7.3098472	24.859451
158	4	5	0.10501764	-0.90592369	-7.9060016	23.39884
159	4	7	0.064170314	-1.6896057	-5.0044308	25.221541
160	4	7	0.064170314	-0.21495338	-5.3018983	26.209491
161	4	6	0.31635555	0.40331339	-3.4499678	24.01358
162	5	8	-0.16561538	0.70032261	6.0343985	18.65527
163	5	4	0.035294571	0.068944459	5.0544942	17.876596
164	5	4	-0.13788279	0.893789	3.7623699	17.88381
165	5	4	-0.16493383	0.1772952	2.586625	17.198409
166	5	4	0.088751813	0.071754295	2.7390046	15.676271
167	5	10	-0.67964697	-0.96385245	3.6225213	15.346379
168	5	11	0.3855288	-0.96457336	3.6884246	14.355931
169	5	7	0.07856596	-0.14849255	1.7421591	15.234361
170	5	7	0.07856596	1.0367402	3.1010965	15.256595
171	5	5	0.097790909	0.7623945	1.6644674	17.409331
172	5	5	0.097790909	-0.83346796	2.4403879	17.637401
173	5	5	0.09550221	1.0896254	3.4739055	18.940299
174	5	5	0.09550221	1.8775411	3.9436859	17.399808
175	5	7	0.087220763	-0.96060882	4.8630566	18.258933
176	5	7	0.087220763	-0.012493349	5.4411761	16.84051
177	6	1	0.54229659	0.58670402	-1.9993817	48.485935
178	6	2	-0.68573004	0.062452954	-2.8556377	47.724916
179	6	3	-0.49533442	0.8694246	-0.67614892	48.02104
180	6	4	0.023554714	0.58663362	-0.2400002	46.653306
181	6	4	-0.07759473	1.6122633	-0.81968335	45.657773
182	6	5	0.081343358	1.6310644	-1.9260397	45.78334
183	6	4	-0.17219971	3.0303083	-0.28672759	45.934599
184	6	5	0.099343223	3.3128986	-0.46478756	46.994409
185	6	5	0.099343223	3.0472694	0.81234638	45.762966
186	6	4	-0.1323705	4.0774716	-0.96006247	45.024685
187	6	5	0.089197559	4.5073086	-1.8423674	45.546923
188	6	5	0.089197559	4.9093818	-0.24342976	44.848742
189	6	4	-0.17219973	3.5090277	-1.424386	43.669043
190	6	5	0.099343186	3.1274934	-2.4655702	43.765728
191	6	5	0.099343186	4.3312754	-1.4379612	42.921743
192	6	4	-0.077451708	2.3676676	-0.50897388	43.189098
193	6	4	0.020275145	1.9061966	-0.92031502	41.775425
194	6	3	-0.44897026	0.94373761	0.035279982	41.223718
195	6	1	0.78571492	0.33827854	-0.16718174	39.943887
196	6	2	-0.60914582	0.61163654	-1.1849299	39.254577
197	6	6	0.32421356	0.69100432	0.90129143	41.750512
198	6	7	0.069611689	1.4459623	-1.9324173	41.810713
199	6	7	0.069611689	2.7866524	-0.96560214	41.097148
200	6	5	0.081343365	2.7759361	0.52604788	43.125539
201	6	4	-0.17933543	1.1853259	-0.51249136	44.19917
202	6	5	0.1046352	0.69114309	0.48275048	44.151525
203	6	5	0.1046352	0.42280361	-1.2662573	43.901134
204	6	7	0.064170314	0.6175434	0.87059865	46.612029
205	6	7	0.064170314	-0.4416586	-0.55564633	46.373112
206	6	6	0.31635555	1.2384284	0.021171138	48.705048
207	7	8	-0.49733305	-0.33480544	0.53200888	39.576742
208	7	4	0.11372885	-0.3550127	1.5900506	40.495981
209	7	4	-0.13641252	-1.2010529	1.2116774	41.717377
210	7	4	-0.14362067	-1.1270272	2.2525081	42.847561
211	7	4	0.035182436	-1.8429675	3.5666263	42.516738
212	7	8	-0.16561538	-1.0478916	4.3560527	41.675822
213	7	7	0.087220763	-2.0258665	4.1195484	43.465702
214	7	7	0.087220763	-2.8263656	3.3610968	42.038492
215	7	5	0.095327002	-1.6153615	1.8128438	43.744021
216	7	5	0.095327002	-0.0671089	2.4530409	43.118883
217	7	5	0.09422387	-0.82894875	0.24411747	42.118684
218	7	5	0.09422387	-2.2583929	1.0610981	41.407532
219	7	7	0.087199268	0.68218561	1.8527357	40.805051
220	7	7	0.087199268	-0.79996085	2.4732692	39.991542
221	4	1	0.54229653	0.81898535	-2.2687231	49.508507
222	4	2	-0.6857301	1.8075117	-3.0129906	49.742888
223	4	3	-0.49533436	0.0017814009	-1.7766331	50.574019
224	4	4	0.02355471	0.2885305	-2.1037421	51.971765
225	4	4	-0.07783253	-0.77934421	-1.5208802	52.925034
226	4	5	0.081343358	-0.8281499	-0.42419066	52.74095
227	4	4	-0.17219971	-2.1789601	-2.1238935	52.62492
228	4	5	0.099343223	-2.6600539	-1.5586996	51.797514
229	4	5	0.099343223	-2.0903473	-3.1833602	52.29705
230	4	4	-0.13248155	-3.0924032	-2.0763792	53.852851
231	4	5	0.089197559	-3.2134882	-1.0160615	54.169683
232	4	5	0.089197559	-4.0997304	-2.4617645	53.583698
233	4	4	-0.1679329	-2.5208483	-2.9025437	55.022934
234	4	5	0.099696843	-2.8841358	-2.4473489	55.971303
235	4	5	0.099696843	-2.9334414	-3.9344097	54.976701
236	4	4	-0.054144482	-0.97251903	-2.9890716	55.020019
237	4	4	0.16913304	-0.44374091	-3.249652	56.441448
238	4	3	-0.62087441	0.98733253	-3.5402183	56.406092
239	4	9	0.59916132	1.4617997	-4.6443741	56.824233
240	4	2	-0.46579987	1.9237015	-5.7186038	57.230732
241	4	7	0.062506502	-0.61203042	-2.3557596	57.080188
242	4	7	0.062506502	-1.0041088	-4.1006434	56.89381
243	4	5	0.084784707	-0.67569451	-3.8550064	54.385536
244	4	4	-0.17505802	-0.35878238	-1.7125597	54.409486
245	4	5	0.10501764	0.74983322	-1.732035	54.50147
246	4	5	0.10501764	-0.705385	-0.83474112	54.998627
247	4	7	0.064170314	1.2858305	-1.6871562	52.230241
248	4	7	0.064170314	0.3342191	-3.2085802	52.093001
249	4	6	0.31635555	-0.79778837	-1.1523336	50.325423
250	5	8	-0.16561538	-1.5752306	5.1770131	41.488689
251	5	4	0.035294571	-1.5192204	5.9634375	42.64782
252	5	4	-0.13788279	-2.4858348	5.4159339	43.704183
253	5	4	-0.16493383	-2.3508128	6.1183161	45.065778
254	5	4	0.088751813	-2.8672161	7.5621228	45.062368
255	5	10	-0.67964697	-1.9231013	8.4151574	44.476799
256	5	11	0.3855288	-2.3256299	9.3224093	44.490751
257	5	7	0.07856596	-3.0387475	7.8800343	46.11451
258	5	7	0.07856596	-3.8351607	7.6247516	44.516843
259	5	5	0.097790909	-2.9512218	5.5428538	45.804396
260	5	5	0.097790909	-1.2946192	6.0925418	45.411513
261	5	5	0.09550221	-2.2698048	4.334989	43.85459
262	5	5	0.09550221	-3.5304664	5.4989149	43.334371
263	5	7	0.087220763	-0.47832639	5.9886477	43.046209
264	5	7	0.087220763	-1.8104864	6.9976738	42.373688
265	6	1	0.54229659	1.0871547	1.7290362	72.104028
266	6	2	-0.68573004	1.7063924	2.3160411	71.177133
267	6	3	-0.49533442	-0.0040909659	0.8489724	71.818242
268	6	4	0.023554714	-0.47427336	0.58632704	70.457786
269	6	4	-0.07759473	-1.2786797	1.7799618	69.903529
270	6	5	0.081343358	-0.64997405	2.6946197	69.994497
271	6	4	-0.17219971	-2.5713979	2.0110309	70.7079
272	6	5	0.099343223	-2.3430127	2.1130491	71.790578
273	6	5	0.099343223	-3.2389299	1.1292112	70.587467
274	6	4	-0.1323705	-3.3132369	3.2787157	70.2383
275	6	5	0.089197559	-2.9927088	4.1445543	70.857606
276	6	5	0.089197559	-4.4029599	3.1369378	70.408582
277	6	4	-0.17219973	-3.0692222	3.6223151	68.755436
278	6	5	0.099343186	-2.1766038	4.2819599	68.67128
279	6	5	0.099343186	-3.9427563	4.19168	68.371385
280	6	4	-0.077451708	-2.844814	2.3556104	67.909191
281	6	4	0.020275145	-2.7312978	2.7202543	66.414274
282	6	3	-0.44897026	-2.6904527	1.5247616	65.569882
283	6	1	0.78571492	-2.5353101	1.6159853	64.151027
284	6	2	-0.60914582	-2.4199938	2.735033	63.585236
285	6	6	0.32421356	-2.7927513	0.57306351	65.988412
286	6	7	0.069611689	-1.8140264	3.3262403	66.24455
287	6	7	0.069611689	-3.6097276	3.3335745	66.115088
288	6	5	0.081343365	-3.7437816	1.7088488	68.03389
289	6	4	-0.17933543	-1.597469	1.56793	68.401004
290	6	5	0.1046352	-1.7732395	0.48815961	68.200521
291	6	5	0.1046352	-0.69742442	1.8625479	67.816583
292	6	7	0.064170314	-1.1158399	-0.32166336	70.46369
293	6	7	0.064170314	0.39840605	0.37379976	69.802967
294	6	6	0.31635555	-0.44249281	0.32950472	72.61086
295	7	8	-0.49733305	-2.5173944	0.75062061	63.578727
296	7	4	0.11372885	-2.7741129	-0.31395472	64.453733
297	7	4	-0.13641252	-1.5126467	-0.65293157	65.256574
298	7	4	-0.14362067	-1.7631325	-1.6929803	66.361871
299	7	4	0.035182436	-2.0346548	-3.1026352	65.82515
300	7	8	-0.16561538	-3.3548896	-3.2036321	65.3677
301	7	7	0.087220763	-1.8812835	-3.8325641	66.651823
302	7	7	0.087220763	-1.3218379	-3.348489	65.006931
303	7	5	0.095327002	-0.85150227	-1.7378473	66.996168
304	7	5	0.095327002	-2.6005251	-1.3660644	67.016971
305	7	5	0.09422387	-1.1410879	0.27671088	65.739679
306	7	5	0.09422387	-0.71712179	-1.0134199	64.568218
307	7	7	0.087199268	-3.6153318	-0.057683038	65.137095
308	7	7	0.087199268	-3.0776076	-1.1915523	63.84527
309	4	1	0.54229653	1.3917262	1.888528	73.130649
310	4	2	-0.6857301	1.1111508	2.9778057	73.697045
311	4	3	-0.49533436	2.1060441	0.86268599	73.825408
312	4	4	0.02355471	2.52376	1.0304729	75.218347
313	4	4	-0.07783253	3.345092	-0.17984944	75.717686
314	4	5	0.081343358	2.7254939	-1.091185	75.560961
315	4	4	-0.17219971	4.654017	-0.33847426	74.896607
316	4	5	0.099343223	4.4448703	-0.90929327	73.966058
317	4	5	0.099343223	5.053789	0.65504893	74.595086
318	4	4	-0.13248155	5.7379867	-1.0704081	75.692679
319	4	5	0.089197559	5.3591656	-2.0793176	75.97181
320	4	5	0.089197559	6.636066	-1.215689	75.053915
321	4	4	-0.1679329	6.1323181	-0.2964997	76.966997
322	4	5	0.099696843	6.4778347	-1.037009	77.722542
323	4	5	0.099696843	6.9966918	0.36533012	76.739055
324	4	4	-0.054144482	4.9837689	0.57178047	77.542969
325	4	4	0.16913304	5.1863651	0.80377628	79.050649
326	4	3	-0.62087441	4.2285723	1.7888357	79.546574
327	4	9	0.59916132	4.6010032	2.8825436	80.079696
328	4	2	-0.46579987	4.9630111	3.9468158	80.598193
329	4	7	0.062506502	5.0406706	-0.14826147	79.605403
330	4	7	0.062506502	6.2308307	1.1474956	79.234439
331	4	5	0.084784707	5.0164856	1.5656125	77.041227
332	4	4	-0.17505802	3.6144948	-0.072655694	77.245149
333	4	5	0.10501764	2.8000472	0.49633472	77.745942
334	4	5	0.10501764	3.5987658	-1.0937853	77.686548
335	4	7	0.064170314	1.6129246	1.1463776	75.844371
336	4	7	0.064170314	3.1294655	1.9584528	75.315441
337	4	6	0.31635555	2.301392	-0.026360055	73.313258
338	5	8	-0.16561538	-3.4562872	-4.1289489	65.020441
339	5	4	0.035294571	-3.5449426	-4.9701582	66.138337
340	5	4	-0.13788279	-2.1528817	-5.1992586	66.738075
341	5	4	-0.16493383	-2.1900049	-5.9661735	68.070733
342	5	4	0.088751813	-2.5780337	-7.4415592	67.916031
343	5	10	-0.67964697	-3.9636381	-7.5657207	67.752947
344	5	11	0.3855288	-4.1419478	-8.5358149	67.641355
345	5	7	0.07856596	-2.2715684	-7.9873023	68.835671
346	5	7	0.07856596	-2.0451943	-7.8921407	67.049143
347	5	5	0.097790909	-1.1700973	-5.9260574	68.512755
348	5	5	0.097790909	-2.876881	-5.4648986	68.78674
349	5	5	0.09550221	-1.6819823	-4.2091291	66.926835
350	5	5	0.09550221	-1.5139854	-5.7381979	66.005779
351	5	7	0.087220763	-4.2303788	-4.5290578	66.898875
352	5	7	0.087220763	-3.9731946	-5.9372915	65.805347
353	6	1	0.54229659	-1.5685671	-1.7161238	95.133031
354	6	2	-0.68573004	-2.0116048	-1.0201318	96.085121
355	6	3	-0.49533442	-0.87553146	-1.1096722	94.038079
356	6	4	0.023554714	-0.65023146	0.33305647	93.944977
357	6	4	-0.07759473	-1.9428982	1.0770638	93.551911
358	6	5	0.081343358	-2.7412886	0.79113411	94.273688
359	6	4	-0.17219971	-2.4149927	0.68045088	92.140758
360	6	5	0.099343223	-2.5134027	-0.42337881	92.059294
361	6	5	0.099343223	-1.6544966	1.0053115	91.396567
362	6	4	-0.1323705	-3.7729269	1.3239829	91.794702
363	6	5	0.089197559	-4.5927895	0.62336717	92.064735
364	6	5	0.089197559	-3.822279	1.481098	90.694942
365	6	4	-0.17219973	-4.0206352	2.6652535	92.513119
366	6	5	0.099343186	-4.517521	2.4742993	93.490678
367	6	5	0.099343186	-4.7156242	3.2773393	91.899055
368	6	4	-0.077451708	-2.7065639	3.4310188	92.753638
369	6	4	0.020275145	-2.9965533	4.8214834	93.356253
370	6	3	-0.44897026	-1.7835801	5.6377434	93.435528
371	6	1	0.78571492	-1.7997512	6.9480267	94.008621
372	6	2	-0.60914582	-2.8638316	7.4363407	94.472267
373	6	6	0.32421356	-0.87723851	5.2836069	93.055404
374	6	7	0.069611689	-3.4335576	4.7061092	94.372682
375	6	7	0.069611689	-3.7385168	5.353072	92.720472
376	6	5	0.081343365	-2.2247986	3.5848248	91.760542
377	6	4	-0.17933543	-1.7372274	2.6106877	93.651209
378	6	5	0.1046352	-0.69630381	2.8722161	93.359535
379	6	5	0.1046352	-1.8564638	2.9023211	94.718524
380	6	7	0.064170314	0.13617684	0.52996646	93.184137
381	6	7	0.064170314	-0.27208115	0.70871163	94.92038
382	6	6	0.31635555	-0.46410433	-1.731092	93.306743
383	7	8	-0.49733305	-0.92499869	7.5050537	94.043749
384	7	4	0.11372885	0.051255588	6.7612598	93.366579
385	7	4	-0.13641252	0.57047988	5.63162	94.26384
386	7	4	-0.14362067	1.5158935	4.6653279	93.529948
387	7	4	0.035182436	2.8769851	5.2820213	93.189301
388	7	8	-0.16561538	2.7697393	6.1059988	92.061454
389	7	7	0.087220763	3.5941609	4.4592047	92.969441
390	7	7	0.087220763	3.2665575	5.8611157	94.055856
391	7	5	0.095327002	1.6921715	3.7937789	94.196839
392	7	5	0.095327002	1.0309767	4.2771563	92.607215
393	7	5	0.09422387	-0.29908688	5.0453073	94.632312
394	7	5	0.09422387	1.0825442	6.0643767	95.151059
395	7	7	0.087199268	-0.36565596	6.348386	92.419991
396	7	7	0.087199268	0.88520447	7.4467425	93.107435
397	4	1	0.54229653	-1.7089019	-2.7895259	95.149375
398	4	2	-0.6857301	-2.8482357	-3.268215	94.906829
399	4	3	-0.49533436	-0.6014096	-3.6445474	95.445501
400	4	4	0.02355471	-0.74317302	-5.1014256	95.463587
401	4	4	-0.07783253	0.5706237	-5.7975516	95.885668
402	4	5	0.081343358	1.3694792	-5.4514396	95.192103
403	4	4	-0.17219971	0.97463467	-5.3909255	97.329292
404	4	5	0.099343223	1.5330294	-4.4301498	97.304748
405	4	5	0.099343223	0.073203995	-5.2361044	97.962754
406	4	4	-0.13248155	1.8513597	-6.4556154	97.994301
407	4	5	0.089197559	2.7722243	-6.5948622	97.384435
408	4	5	0.089197559	2.1669946	-6.1038734	99.000445
409	4	4	-0.1679329	1.1125047	-7.8026412	98.12821
410	4	5	0.099696843	1.8748136	-8.6132368	98.108111
411	4	5	0.099696843	0.61353887	-7.8478787	99.121238
412	4	4	-0.054144482	0.044558996	-8.033764	97.027804
413	4	4	0.16913304	-0.20049907	-9.5388047	96.821
414	4	3	-0.62087441	-1.3487182	-9.7509597	95.94337
415	4	9	0.59916132	-2.3814499	-10.388186	96.326162
416	4	2	-0.46579987	-3.386445	-11.00788	96.698355
417	4	7	0.062506502	0.69430674	-10.01058	96.360451
418	4	7	0.062506502	-0.36958745	-10.024853	97.809937
419	4	5	0.084784707	-0.91220551	-7.5804884	97.373723
420	4	4	-0.17505802	0.45909257	-7.3388351	95.714739
421	4	5	0.10501764	-0.25527395	-7.5902671	94.899673
422	4	5	0.10501764	1.4476323	-7.7388771	95.397656
423	4	7	0.064170314	-1.0315855	-5.4367601	94.444111
424	4	7	0.064170314	-1.5587627	-5.3867406	96.164202
425	4	6	0.31635555	0.32450333	-3.1963473	95.626233
426	5	8	-0.16561538	3.6759341	6.4835827	91.908737
427	5	4	0.035294571	4.4522562	5.4546655	91.357523
428	5	4	-0.13788279	4.8920156	4.4793403	92.455411
429	5	4	-0.16493383	5.5966082	3.2287212	91.903129
430	5	4	0.088751813	6.9900408	3.515113	91.330777
431	5	10	-0.67964697	6.8847438	4.0769918	90.05206
432	5	11	0.3855288	7.8142075	4.2523551	89.750937
433	5	7	0.07856596	7.5483957	2.5556015	91.259561
434	5	7	0.07856596	7.552663	4.1967204	92.007019
435	5	5	0.097790909	5.7138282	2.5080613	92.742244
436	5	5	0.097790909	4.9631936	2.7354378	91.134234
437	5	5	0.09550221	3.9894448	4.1445654	93.013107
438	5	5	0.09550221	5.5550116	5.0028318	93.177419
439	5	7	0.087220763	3.8768724	4.9194057	90.566801
440	5	7	0.087220763	5.3441847	5.9145664	90.885735
441	6	1	0.54229659	-0.22667397	25.988575	0.50970561
442	6	2	-0.68573004	-0.24991466	26.385463	-0.68574499
443	6	3	-0.49533442	-0.46639076	24.615963	0.83447506
444	6	4	0.023554714	-0.76203664	23.602446	-0.17857583
445	6	4	-0.07759473	-2.2056679	23.740693	-0.70379139
446	6	5	0.081343358	-2.3476484	24.786905	-1.0579505
447	6	4	-0.17219971	-3.2380238	23.471655	0.40678774
448	6	5	0.099343223	-3.0383387	24.117797	1.2884841
449	6	5	0.099343223	-3.1493633	22.413667	0.73921514
450	6	4	-0.1323705	-4.6774247	23.732912	-0.080801954
451	6	5	0.089197559	-4.9647799	24.779256	0.16116321
452	6	5	0.089197559	-5.3688988	23.063765	0.47660151
453	6	4	-0.17219973	-4.8650364	23.512955	-1.595038
454	6	5	0.099343186	-4.65792	24.464132	-2.1348036
455	6	5	0.099343186	-5.9253083	23.242861	-1.7889605
456	6	4	-0.077451708	-3.9286933	22.413206	-2.1287435
457	6	4	0.020275145	-4.2275992	22.126529	-3.6150482
458	6	3	-0.44897026	-3.473967	20.969719	-4.1025922
459	6	1	0.78571492	-3.5518929	20.546989	-5.4666911
460	6	2	-0.60914582	-4.2694878	21.167803	-6.2945391
461	6	6	0.32421356	-2.8725813	20.413763	-3.4540481
462	6	7	0.069611689	-3.9742573	23.019763	-4.227717
463	6	7	0.069611689	-5.3131106	21.918886	-3.7409941
464	6	5	0.081343365	-4.1453788	21.483829	-1.5531563
465	6	4	-0.17933543	-2.4369076	22.793582	-1.9094745
466	6	5	0.1046352	-1.86089	21.852864	-1.7671855
467	6	5	0.1046352	-2.0257755	23.289888	-2.8167123
468	6	7	0.064170314	-0.62505185	22.592795	0.26631593
469	6	7	0.064170314	-0.037536477	23.698964	-1.0160183
470	6	6	0.31635555	-0.36769537	24.317771	1.8302796
471	7	8	-0.49733305	-3.0113557	19.718635	-5.780305
472	7	4	0.11372885	-2.405836	19.178896	-4.6371128
473	7	4	-0.13641252	-1.1757728	20.008332	-4.2501544
474	7	4	-0.14362067	-0.56084925	19.583171	-2.9058214
475	7	4	0.035182436	0.13480624	18.218439	-2.9557499
476	7	8	-0.16561538	-0.81165945	17.187089	-2.9009738
477	7	7	0.087220763	0.81340788	18.133874	-2.077083
478	7	7	0.087220763	0.748876	18.131334	-3.8795275
479	7	5	0.095327002	0.19892321	20.344711	-2.6261467
480	7	5	0.095327002	-1.3360368	19.587554	-2.108124
481	7	5	0.09422387	-1.4809098	21.073835	-4.1648505
482	7	5	0.09422387	-0.41196958	19.942346	-5.0556955
483	7	7	0.087199268	-3.1338684	19.143079	-3.795095
484	7	7	0.087199268	-2.0970562	18.138725	-4.8720864
485	4	1	0.54229653	-0.014608804	26.696824	1.3006315
486	4	2	-0.6857301	-0.89918083	27.525479	1.6425634
487	4	3	-0.49533436	1.2631744	26.680411	1.9427317
488	4	4	0.02355471	1.5867908	27.60996	3.0263036
489	4	4	-0.07783253	3.049001	27.4476	3.4999982
490	4	5	0.081343358	3.1893886	26.382289	3.7905129
491	4	4	-0.17219971	4.0431759	27.770065	2.3509764
492	4	5	0.099343223	4.1860029	26.868909	1.7161419
493	4	5	0.099343223	3.6435487	28.577429	1.698073
494	4	4	-0.13248155	5.4053981	28.217502	2.8881906
495	4	5	0.089197559	5.8286981	27.40254	3.5174536
496	4	5	0.089197559	6.1049947	28.382538	2.0402513
497	4	4	-0.1679329	5.2944776	29.509421	3.7230314
498	4	5	0.099696843	6.1150631	29.5012	4.4747999
499	4	5	0.099696843	5.466062	30.387026	3.0616037
500	4	4	-0.054144482	3.9199589	29.678113	4.4209285
501	4	4	0.16913304	4.0527491	30.573145	5.6656184
502	4	3	-0.62087441	2.7329806	30.902905	6.1977077
503	4	9	0.59916132	2.3231062	32.104152	6.2878829
504	4	2	-0.46579987	1.9239434	33.272721	6.3755141
505	4	7	0.062506502	4.63499	30.046951	6.452682
506	4	7	0.062506502	4.6082003	31.501274	5.395654
507	4	5	0.084784707	3.2314174	30.18888	3.7099122
508	4	4	-0.17505802	3.316473	28.302493	4.7707575
509	4	5	0.10501764	2.3816351	28.427007	5.3610484
510	4	5	0.10501764	4.0302517	27.758012	5.4279081
511	4	7	0.064170314	0.89632229	27.411688	3.8741849
512	4	7	0.064170314	1.4195116	28.654501	2.6822035
513	4	6	0.31635555	1.9557658	25.964039	1.6296965
514	5	8	-0.16561538	-0.2979909	16.338386	-2.9550921
515	5	4	0.035294571	0.30392357	16.152496	-1.7027631
516	5	4	-0.13788279	1.5377144	17.052784	-1.5714318
517	5	4	-0.16493383	2.1475818	17.036566	-0.15958458
518	5	4	0.088751813	2.8368006	15.71299	0.19310057
519	5	10	-0.67964697	1.884915	14.746911	0.54312459
520	5	11	0.3855288	2.3937374	13.91768	0.74011654
521	5	7	0.07856596	3.513205	15.88503	1.0593416
522	5	7	0.07856596	3.4511377	15.357163	-0.66387811
523	5	5	0.097790909	2.9123412	17.842846	-0.11205101
524	5	5	0.097790909	1.3719282	17.276111	0.59983738
525	5	5	0.09550221	1.2379859	18.099082	-1.8019885
526	5	5	0.09550221	2.3017937	16.752094	-2.3202109
527	5	7	0.087220763	-0.42621548	16.368882	-0.88858624
528	5	7	0.087220763	0.60631653	15.0886	-1.623313
529	6	1	0.54229659	0.41442422	24.503428	25.827861
530	6	2	-0.68573004	1.49059	25.093889	25.544337
531	6	3	-0.49533442	-0.48010229	24.069111	24.799176
532	6	4	0.023554714	-0.21736772	24.288586	23.37661