Title

11375 atoms
11750 bonds
20125 angles
30875 dihedrals
10500 impropers

9 atom types
13 bond types
6 angle types
26 dihedral types
2 improper types
-11.39113667 113.5719869 xlo xhi
-9.860549378 114.3421511 ylo yhi
-11.27409793 114.3943993 zlo zhi
0.0 0.0 0.0 xy xz yz

Masses

1	15.99943
2	12.01078
3	1.007947
4	12.01078
5	15.99943
6	1.007947
7	1.007947
8	15.99943
9	1.007947


Pair Coeffs

1	0.16846514	3.0251065
2	0.10884061	3.3795318
3	0.016409246	2.5832257
4	0.086879315	3.4806469
5	0.2102061	3.0398122
6	0.015611343	2.5725815
7	0.015779483	2.6445434
8	0.20947353	2.99716
9	1.2326e-05	0.53453923

Bond Coeffs

1 harmonic	366.7408841747	1.425895053732
2 harmonic	300.03137914615	1.451203938761
3 harmonic	264.62148576755	1.52190126495
4 harmonic	370.04670688625	1.093899492634
5 harmonic	301.15400723785	1.345741232799
6 harmonic	582.698766451	1.225198386222
7 harmonic	279.1350963404	1.454628925034
8 harmonic	360.7852444772	1.387193227181
9 harmonic	397.2545789619	1.085358495916
10 harmonic	289.73813263395	1.498646816465
11 harmonic	329.96998057905	1.427343958716
12 harmonic	543.5267831885	0.9716763312559
13 harmonic	385.7604595587	1.369745182308


Angle Coeffs

1 harmonic	53.20531626545	116.5475862634
2 harmonic	65.09061609600001	110.3538806181
3 harmonic	201.41175231035	127.4691416191
4 harmonic	57.8982893754	126.8062420451
5 harmonic	48.776492647595	115.6030999533
6 harmonic	34.066775159195	129.1835929926


Dihedral Coeffs

1 fourier 1	-0.0309670556842	3	0
2 fourier 1	0.4598191477945	2	0
3 fourier 1	0.1115525666802	3	0
4 fourier 1	0.3432490222662	1	0
5 fourier 1	0.0473758381877	3	0
6 fourier 1	0.457973137376	1	0
7 fourier 1	0.1918272375143	3	0
8 fourier 1	0.9202179876409	1	180
9 fourier 1	1.163809172478	2	180
10 fourier 1	0.1679186987369	1	180
11 fourier 1	2.779853741805	2	180
12 fourier 1	0.9974165607242	2	180
13 fourier 1	0.1911926717192	3	0
14 fourier 1	3.661930099076	2	180
15 fourier 1	0.02664938770063	3	0
16 fourier 1	0.1155372516788	3	0
17 fourier 1	0.1040663847541	3	0
18 fourier 1	0.09223874044423	3	0
19 fourier 1	0.3159935921949	2	180
20 fourier 1	0.3247796806857	1	180
21 fourier 1	0.3445382149273	3	0
22 fourier 1	0.1364556373303	1	0
23 fourier 1	0.3026390167484	3	0
24 fourier 1	2.687457892086	2	180
25 fourier 1	2.772607909663	2	180
26 fourier 1	0.09692684957115	1	0


Improper Coeffs

1 3.5	-1	2
2 0.3666666666666667	-1	2


Atoms

1	4	1	-0.12361074	1.3638574	4.9140983	-5.5597306
2	4	2	0.055201097	2.6386822	5.1537435	-5.0294695
3	4	2	0.16009539	3.6739416	5.2324012	-6.1510211
4	4	1	-0.49847573	4.9364234	5.5393258	-5.6262497
5	4	3	0.097729511	3.3817333	6.0318185	-6.863608
6	4	3	0.097729511	3.7097241	4.2683376	-6.709005
7	4	3	0.1054806	2.6187195	6.1198371	-4.4812637
8	4	3	0.1054806	2.9144801	4.3526882	-4.305524
9	5	4	0.79593992	5.2984977	4.6671769	-5.1941229
10	5	5	-0.53566253	6.1809789	4.0073902	-5.8035155
11	5	4	-0.28064281	4.7836912	4.2166769	-3.8895521
12	5	4	-0.069137038	3.8414229	4.9283689	-3.2546379
13	5	6	0.22631664	3.4469011	5.8379997	-3.6936395
14	5	4	-0.25338739	3.3166485	4.4859634	-1.9463095
15	5	6	0.20271149	2.5314976	5.0863036	-1.5148576
16	5	4	-0.22903347	3.799374	3.3762092	-1.3398841
17	5	2	0.016918826	3.2667389	2.8362547	0.0086985103
18	5	4	-0.22903346	2.4690442	1.5461174	-0.26921306
19	5	4	-0.2502223	2.4663257	0.4962737	0.58449751
20	5	6	0.20271152	3.0516093	0.49558409	1.4918941
21	5	4	-0.014651944	1.6485356	-0.70411836	0.3122399
22	5	6	0.21318187	1.6988579	-1.5361602	1.0032667
23	5	4	-0.34087533	0.85735091	-0.7592962	-0.7689859
24	5	4	0.58800399	0.044687991	-1.9606135	-1.0315041
25	5	5	-0.55175197	-0.70563534	-2.0258373	-2.0399121
26	5	4	-0.01465197	0.80216775	0.40506874	-1.682882
27	5	6	0.21318185	0.14583231	0.393191	-2.5441083
28	5	4	-0.2502223	1.5492131	1.4883616	-1.4434414
29	5	6	0.20271149	1.4656669	2.3318308	-2.1168163
30	5	2	-0.13282666	4.4962669	2.5707189	0.92582703
31	5	7	0.08362615	5.1967166	3.4331119	0.90462785
32	5	7	0.08362615	5.0607008	1.6696415	0.60674571
33	5	7	0.08362615	4.1892858	2.4180832	1.9835671
34	5	2	-0.13551723	2.293783	3.8079115	0.75746614
35	5	2	-0.11500102	2.9396793	5.0975567	1.286302
36	5	7	0.063807673	2.1443827	5.8047265	1.6020236
37	5	7	0.063807673	3.5704052	4.8790748	2.174242
38	5	7	0.063807673	3.5684127	5.5937507	0.52110275
39	5	7	0.099088578	1.4289395	4.0638348	0.10937823
40	5	7	0.099088578	1.85705	3.2795938	1.6346695
41	5	4	-0.25338736	4.8197814	2.5732999	-2.0779907
42	5	6	0.20271148	5.1829226	1.6403338	-1.6677069
43	5	4	-0.069137023	5.2857231	2.9713555	-3.2669465
44	5	6	0.22631664	6.0231112	2.3650648	-3.7774193
45	1	1	-0.11803249	1.3350881	3.9521092	-5.8050778
46	1	2	0.027224001	0.50915629	3.3233708	-4.8636408
47	1	2	0.099260381	-0.9600569	3.6202624	-5.1630786
48	1	8	-0.67273587	-1.7883129	2.9364011	-4.2626178
49	1	9	0.40372297	-1.7456683	3.4342109	-3.4039468
50	1	3	0.10422972	-1.1987878	3.2806406	-6.1931429
51	1	3	0.10422972	-1.1490543	4.7163597	-5.1083374
52	1	3	0.10619092	0.678886	2.2268857	-4.9191591
53	1	3	0.10619092	0.76787141	3.6606254	-3.8337462
54	2	4	0.58800393	0.087326004	-2.8049585	-0.35485028
55	2	5	-0.55175209	1.1799301	-3.4141677	-0.20788631
56	2	4	-0.34087533	-1.1185692	-3.2300357	0.37821459
57	2	4	-0.014651937	-2.2737983	-2.5691124	0.21399471
58	2	6	0.21318187	-2.3331112	-1.7178723	-0.45414988
59	2	4	-0.2502223	-3.4887522	-2.9854919	0.94341383
60	2	6	0.20271149	-4.370697	-2.3824475	0.79318483
61	2	4	-0.22903347	-3.4767666	-4.0618139	1.7648956
62	2	2	0.016918826	-4.7021027	-4.526072	2.5877431
63	2	4	-0.22903346	-4.4338296	-4.2074547	4.0719528
64	2	4	-0.25338736	-4.8589554	-5.0093108	5.0757974
65	2	6	0.20271152	-5.3821444	-5.9344462	4.8845701
66	2	4	-0.065970496	-4.6303347	-4.6473736	6.4895085
67	2	6	0.22631664	-4.9598207	-5.3375002	7.2564805
68	2	4	-0.26965311	-4.0306697	-3.4894902	6.8122873
69	2	4	0.83495748	-3.7991579	-3.1226129	8.2264858
70	2	5	-0.50653434	-3.2393284	-2.0307162	8.5146828
71	2	8	-0.66932428	-4.1954519	-3.9779408	9.2524777
72	2	9	0.41186029	-4.0395892	-3.7328854	10.222517
73	2	4	-0.065970571	-3.6141351	-2.5729449	5.724881
74	2	6	0.22631667	-3.1564905	-1.6200582	5.9600264
75	2	4	-0.25338736	-3.8107455	-2.9035457	4.4438137
76	2	6	0.20271149	-3.5170119	-2.1980772	3.6780228
77	2	2	-0.13282666	-4.878006	-6.0545031	2.3457137
78	2	7	0.08362615	-4.100122	-6.6463542	2.8725473
79	2	7	0.08362615	-5.8696033	-6.410403	2.7006491
80	2	7	0.08362615	-4.8082455	-6.2910086	1.2617138
81	2	2	-0.13551723	-6.0426933	-3.8102124	2.2153187
82	2	2	-0.11500102	-6.5910844	-4.1387946	0.81746001
83	2	7	0.063807673	-7.0128189	-5.1657065	0.79951428
84	2	7	0.063807673	-5.8102698	-4.0646177	0.036016891
85	2	7	0.063807673	-7.4092602	-3.4304358	0.56747929
86	2	7	0.099088578	-6.8271479	-4.1030572	2.9490535
87	2	7	0.099088578	-5.9371919	-2.7093947	2.323904
88	2	4	-0.25022227	-2.1732946	-4.7623767	1.9665154
89	2	6	0.20271148	-2.0963024	-5.5820091	2.6669616
90	2	4	-0.014651977	-1.0726358	-4.3776221	1.3123326
91	2	6	0.21318187	-0.14217626	-4.9041534	1.482588
92	4	1	-0.12361074	5.4339404	4.6936286	25.532024
93	4	2	0.055201097	4.5743471	5.1953926	26.518491
94	4	2	0.16009539	5.32898	5.3844487	27.834019
95	4	1	-0.49847573	4.4864704	5.9496182	28.800564
96	4	3	0.097729511	6.1879372	6.0678304	27.668441
97	4	3	0.097729511	5.7286752	4.4074196	28.191375
98	4	3	0.1054806	4.1793285	6.1766194	26.178757
99	4	3	0.1054806	3.709447	4.5081976	26.665331
100	5	4	0.79593992	3.8624933	5.1886207	29.132242
101	5	5	-0.53566253	4.0902148	4.6600135	30.252139
102	5	4	-0.28064281	2.7316946	4.7413314	28.300913
103	5	4	-0.069137038	2.5043138	5.3117581	27.109107
104	5	6	0.22631664	3.1491879	6.1031908	26.743635
105	5	4	-0.25338739	1.3739742	4.8708588	26.266033
106	5	6	0.20271149	1.2776158	5.3467709	25.303098
107	5	4	-0.22903347	0.51985499	3.9103379	26.690544
108	5	2	0.016918826	-0.65794144	3.3750187	25.841925
109	5	4	-0.22903346	-0.30900707	1.9459932	25.379176
110	5	4	-0.2502223	-1.2419795	0.97300605	25.26145
111	5	6	0.20271152	-2.27743	1.1395088	25.518442
112	5	4	-0.014651944	-0.88141578	-0.37122438	24.764575
113	5	6	0.21318187	-1.6504187	-1.1318775	24.715735
114	5	4	-0.34087533	0.3741239	-0.64155227	24.379075
115	5	4	0.58800399	0.72381377	-1.9851052	23.884017
116	5	5	-0.55175197	1.8969066	-2.2529799	23.514934
117	5	4	-0.01465197	1.3954327	0.42925275	24.444664
118	5	6	0.21318185	2.4073319	0.24066409	24.108327
119	5	4	-0.2502223	1.0732104	1.6435662	24.903519
120	5	6	0.20271149	1.837016	2.4106041	24.913911
121	5	2	-0.13282666	-1.9304882	3.3990043	26.738263
122	5	7	0.08362615	-2.0189925	4.3705704	27.270266
123	5	7	0.08362615	-1.9096235	2.5956259	27.504088
124	5	7	0.08362615	-2.8551633	3.2649621	26.135472
125	5	2	-0.13551723	-0.95211204	4.2026278	24.5458
126	5	2	-0.11500102	-1.4920735	5.6205956	24.786305
127	5	7	0.063807673	-1.4630564	6.1916834	23.834842
128	5	7	0.063807673	-2.5493154	5.5803302	25.124839
129	5	7	0.063807673	-0.9000578	6.1697161	25.544611
130	5	7	0.099088578	-0.045819036	4.2533986	23.905859
131	5	7	0.099088578	-1.7122205	3.6643142	23.93605
132	5	4	-0.25338736	0.80995322	3.257608	28.002216
133	5	6	0.20271148	0.19893079	2.4356603	28.351048
134	5	4	-0.069137023	1.840007	3.6523864	28.758725
135	5	6	0.22631664	2.0248355	3.1566579	29.703184
136	1	1	-0.11803249	5.5580818	3.7280221	25.728592
137	1	2	0.027224001	4.8434307	3.0250232	24.749386
138	1	2	0.099260381	5.6089439	3.030038	23.426374
139	1	8	-0.67273587	4.9270475	2.2697716	22.466418
140	1	9	0.40372297	4.1629371	2.8238131	22.156382
141	1	3	0.10422972	6.613769	2.5841333	23.584056
142	1	3	0.10422972	5.747348	4.0749336	23.066953
143	1	3	0.10619092	4.7115711	1.976205	25.091093
144	1	3	0.10619092	3.8324045	3.4722131	24.610806
145	2	4	0.58800393	-0.030760708	-2.7601904	23.834445
146	2	5	-0.55175209	-0.57551435	-3.1501235	24.901082
147	2	4	-0.34087533	-0.4083534	-3.3462319	22.535893
148	2	4	-0.014651937	0.17800326	-2.9180651	21.408418
149	2	6	0.21318187	0.93044043	-2.1386611	21.438631
150	2	4	-0.2502223	-0.19233784	-3.4974593	20.10125
151	2	6	0.20271149	0.29071744	-3.075642	19.233618
152	2	4	-0.22903347	-1.1025305	-4.4959353	20.011585
153	2	2	0.016918826	-1.5637967	-5.1178868	18.672006
154	2	4	-0.22903346	-3.0092918	-4.6566215	18.399711
155	2	4	-0.25338736	-3.92571	-5.4526765	17.801478
156	2	6	0.20271152	-3.6979518	-6.4680202	17.512734
157	2	4	-0.065970496	-5.2872895	-4.9608422	17.508143
158	2	6	0.22631664	-5.9954225	-5.6459228	17.058372
159	2	4	-0.26965311	-5.6344321	-3.694418	17.791233
160	2	4	0.83495748	-6.9967531	-3.1971804	17.499701
161	2	5	-0.50653434	-7.3070955	-2.005045	17.766546
162	2	8	-0.66932428	-7.9493366	-4.0389842	16.929399
163	2	9	0.41186029	-8.8836967	-3.7049187	16.727675
164	2	4	-0.065970571	-4.6225573	-2.7930256	18.390907
165	2	6	0.22631667	-4.8685325	-1.7593634	18.600106
166	2	4	-0.25338736	-3.3922578	-3.2393736	18.666991
167	2	6	0.20271149	-2.6725157	-2.5456359	19.080634
168	2	2	-0.13282666	-1.4666299	-6.6656813	18.815229
169	2	7	0.08362615	-2.2725718	-7.0699717	19.463266
170	2	7	0.08362615	-1.5436771	-7.1705317	17.827758
171	2	7	0.08362615	-0.4921333	-6.9581784	19.263179
172	2	2	-0.13551723	-0.71769893	-4.6834279	17.429548
173	2	2	-0.11500102	0.73014397	-5.1993812	17.4137
174	2	7	0.063807673	0.75099838	-6.2845254	17.179698
175	2	7	0.063807673	1.2401949	-5.0378738	18.383025
176	2	7	0.063807673	1.3008232	-4.6694109	16.621784
177	2	7	0.099088578	-1.2080303	-5.0633568	16.505035
178	2	7	0.099088578	-0.71912715	-3.5769334	17.327621
179	2	4	-0.25022227	-1.7740904	-4.9336243	21.271709
180	2	6	0.20271148	-2.5585993	-5.6766367	21.242928
181	2	4	-0.014651977	-1.4439283	-4.4008865	22.452651
182	2	6	0.21318187	-1.9513937	-4.7374962	23.347721
183	4	1	-0.12361074	-0.77815447	7.0461535	43.85147
184	4	2	0.055201097	-1.1908668	6.5415451	42.610977
185	4	2	0.16009539	-2.3676609	7.3543615	42.07217
186	4	1	-0.49847573	-2.7359322	6.8924842	40.801543
187	4	3	0.097729511	-2.0691273	8.4203394	41.989691
188	4	3	0.097729511	-3.2315066	7.2907519	42.773433
189	4	3	0.1054806	-0.34085017	6.611928	41.89909
190	4	3	0.1054806	-1.4741758	5.4677873	42.703881
191	5	4	0.79593992	-3.2615375	6.0088012	40.947552
192	5	5	-0.53566253	-4.5160421	6.0225032	40.840399
193	5	4	-0.28064281	-2.5440527	4.7642779	41.273524
194	5	4	-0.069137038	-1.2082119	4.7665877	41.387608
195	5	6	0.22631664	-0.64336342	5.6811449	41.245027
196	5	4	-0.25338739	-0.47774094	3.524844	41.715203
197	5	6	0.20271149	0.59096441	3.611523	41.830861
198	5	4	-0.22903347	-1.1324368	2.3502095	41.869919
199	5	2	0.016918826	-0.43379148	1.0237074	42.252298
200	5	4	-0.22903346	-0.81415425	0.679677	43.706592
201	5	4	-0.2502223	-0.9994747	-0.59317983	44.126703
202	5	6	0.20271152	-0.92250626	-1.4343176	43.45403
203	5	4	-0.014651944	-1.3117592	-0.89040004	45.540204
204	5	6	0.21318187	-1.485069	-1.9191557	45.829979
205	5	4	-0.34087533	-1.3760576	0.095994685	46.446271
206	5	4	0.58800399	-1.6873115	-0.21057239	47.853978
207	5	5	-0.55175197	-1.7473506	0.70386501	48.716721
208	5	4	-0.01465197	-1.1167992	1.4893214	46.015664
209	5	6	0.21318185	-1.1325461	2.2963111	46.737569
210	5	4	-0.2502223	-0.8438867	1.7613486	44.734863
211	5	6	0.20271149	-0.6338134	2.7867326	44.458618
212	5	2	-0.13282666	-0.91942336	-0.066853611	41.253192
213	5	7	0.08362615	-0.87554329	0.30891828	40.208362
214	5	7	0.08362615	-1.9661755	-0.37509178	41.457247
215	5	7	0.08362615	-0.28435315	-0.97806717	41.305391
216	5	2	-0.13551723	1.1302179	1.0766977	42.202501
217	5	2	-0.11500102	1.7326948	1.2359057	40.798326
218	5	7	0.063807673	2.8125473	1.477595	40.886478
219	5	7	0.063807673	1.6437228	0.2864268	40.228623
220	5	7	0.063807673	1.2378167	2.0410806	40.220543
221	5	7	0.099088578	1.5106788	1.8835704	42.864071
222	5	7	0.099088578	1.5391496	0.13210671	42.626604
223	5	4	-0.25338736	-2.6230492	2.3721829	41.778882
224	5	6	0.20271148	-3.1957265	1.4736099	41.966598
225	5	4	-0.069137023	-3.2821785	3.5001535	41.491833
226	5	6	0.22631664	-4.3631499	3.4829922	41.435991
227	1	1	-0.11803249	-1.4435294	6.7346737	44.519828
228	1	2	0.027224001	-0.81175662	5.7422087	45.281179
229	1	2	0.099260381	0.1537831	6.3748893	46.283099
230	1	8	-0.67273587	0.73444023	5.3869666	47.090161
231	1	9	0.40372297	1.4258241	4.9380698	46.535698
232	1	3	0.10422972	-0.40507062	7.0810147	46.933051
233	1	3	0.10422972	0.94194797	6.9498276	45.746081
234	1	3	0.10619092	-1.5881873	5.1706498	45.833126
235	1	3	0.10619092	-0.26717636	5.031892	44.617673
236	2	4	0.58800393	-1.8700444	-1.2328909	48.160687
237	2	5	-0.55175209	-2.8525446	-1.8502651	47.670727
238	2	4	-0.34087533	-0.97979933	-1.8848697	49.137746
239	2	4	-0.014651937	0.064413944	-1.2157346	49.647863
240	2	6	0.21318187	0.26610055	-0.19419266	49.347331
241	2	4	-0.2502223	0.96372299	-1.8586175	50.627394
242	2	6	0.20271149	1.805993	-1.2740657	50.963457
243	2	4	-0.22903347	0.73745465	-3.1213229	51.060779
244	2	2	0.016918826	1.662059	-3.8658072	52.053207
245	2	4	-0.22903346	2.4161727	-4.963803	51.277266
246	2	4	-0.25338736	2.72116	-6.1626057	51.826141
247	2	6	0.20271152	2.4211368	-6.423439	52.830194
248	2	4	-0.065970496	3.4908166	-7.1727969	51.071829
249	2	6	0.22631664	3.6816113	-8.1298121	51.541724
250	2	4	-0.26965311	3.9432707	-6.907001	49.835254
251	2	4	0.83495748	4.7142008	-7.9153724	49.075644
252	2	5	-0.50653434	5.1364265	-7.650456	47.917953
253	2	8	-0.66932428	4.9805449	-9.165769	49.629596
254	2	9	0.41186029	5.5073807	-9.8605494	49.114771
255	2	4	-0.065970571	3.6690619	-5.5758199	49.244682
256	2	6	0.22631667	4.0491864	-5.3263587	48.26183
257	2	4	-0.25338736	2.9633214	-4.6634407	49.921868
258	2	6	0.20271149	2.8049826	-3.6936614	49.469256
259	2	2	-0.13282666	0.76202213	-4.4631552	53.175139
260	2	7	0.08362615	0.18076162	-5.3375822	52.813948
261	2	7	0.08362615	1.3667594	-4.7974841	54.046015
262	2	7	0.08362615	0.038758149	-3.7038917	53.54428
263	2	2	-0.13551723	2.7533102	-2.966311	52.722845
264	2	2	-0.11500102	2.2159554	-1.9023718	53.693407
265	2	7	0.063807673	1.8779149	-2.3770971	54.638444
266	2	7	0.063807673	1.3692	-1.3346828	53.26148
267	2	7	0.063807673	3.0290863	-1.1881551	53.943181
268	2	7	0.099088578	3.4509819	-3.6119195	53.302446
269	2	7	0.099088578	3.3823449	-2.4784223	51.947602
270	2	4	-0.25022227	-0.40624932	-3.8654701	50.453602
271	2	6	0.20271148	-0.58471121	-4.8994061	50.713367
272	2	4	-0.014651977	-1.2132536	-3.2844735	49.559942
273	2	6	0.21318187	-2.0319715	-3.8517413	49.135813
274	4	1	-0.12361074	1.30612	2.5764237	76.619371
275	4	2	0.055201097	0.37569194	1.6601774	77.12788
276	4	2	0.16009539	0.90266551	1.0278167	78.415609
277	4	1	-0.49847573	-0.056043256	0.16287537	78.959854
278	4	3	0.097729511	1.1193149	1.82763	79.154254
279	4	3	0.097729511	1.8508282	0.47810154	78.213506
280	4	3	0.1054806	-0.57065011	2.1998693	77.345675
281	4	3	0.1054806	0.15594619	0.870904	76.372493
282	5	4	0.79593992	-0.034059478	-0.70309237	78.387061
283	5	5	-0.53566253	0.53502606	-1.7255555	78.851993
284	5	4	-0.28064281	-0.66105828	-0.72693538	77.054325
285	5	4	-0.069137038	-1.260198	0.37103893	76.57165
286	5	6	0.22631664	-1.2872292	1.2860944	77.152805
287	5	4	-0.25338739	-1.8915146	0.35950318	75.235933
288	5	6	0.20271149	-2.3179951	1.2903188	74.897233
289	5	4	-0.22903347	-1.9146401	-0.76629415	74.484684
290	5	2	0.016918826	-2.5225704	-0.83580819	73.063587
291	5	4	-0.22903346	-1.3672747	-0.9632825	72.050154
292	5	4	-0.2502223	-1.4707611	-1.7008748	70.920442
293	5	6	0.20271152	-2.3600158	-2.2669576	70.686556
294	5	4	-0.014651944	-0.36229463	-1.758589	69.94483
295	5	6	0.21318187	-0.471471	-2.386015	69.069181
296	5	4	-0.34087533	0.75581141	-1.0446143	70.14014
297	5	4	0.58800399	1.8555767	-1.1080577	69.160859
298	5	5	-0.55175197	2.9095547	-0.44080558	69.328284
299	5	4	-0.01465197	0.86223992	-0.18478364	71.34154
300	5	6	0.21318185	1.7434083	0.42395125	71.501578
301	5	4	-0.2502223	-0.13589859	-0.13904818	72.230674
302	5	6	0.20271149	-0.03674911	0.51932398	73.084237
303	5	2	-0.13282666	-3.4707228	-2.0696666	73.019164
304	5	7	0.08362615	-4.1307198	-2.0913128	73.912884
305	5	7	0.08362615	-2.9036938	-3.0237342	72.995246
306	5	7	0.08362615	-4.1271507	-2.046101	72.122004
307	5	2	-0.13551723	-3.3422705	0.43120205	72.646227
308	5	2	-0.11500102	-4.6487611	0.64796573	73.42477
309	5	7	0.063807673	-5.038887	1.6654018	73.212894
310	5	7	0.063807673	-5.4188611	-0.084127945	73.100777
311	5	7	0.063807673	-4.5047039	0.54692169	74.518425
312	5	7	0.099088578	-2.7103237	1.3415583	72.719465
313	5	7	0.099088578	-3.6148992	0.3489259	71.570009
314	5	4	-0.25338736	-1.208711	-1.9689947	75.019353
315	5	6	0.20271148	-1.1370524	-2.8702761	74.425058
316	5	4	-0.069137023	-0.62954368	-1.9523481	76.224946
317	5	6	0.22631664	-0.1233445	-2.8400424	76.58226
318	1	1	-0.11803249	2.0268972	2.0418791	76.193709
319	1	2	0.027224001	1.8753126	2.196165	74.809152
320	1	2	0.099260381	2.3933031	3.5645624	74.36692
321	1	8	-0.67273587	2.3043801	3.6919103	72.973945
322	1	9	0.40372297	1.3479195	3.8608025	72.765121
323	1	3	0.10422972	3.4581979	3.665955	74.665394
324	1	3	0.10422972	1.8155942	4.3739874	74.868148
325	1	3	0.10619092	2.4596499	1.401708	74.297725
326	1	3	0.10619092	0.80580481	2.0776757	74.52024
327	2	4	0.58800393	1.7666547	-1.7352618	68.28262
328	2	5	-0.55175209	1.6506191	-2.9805785	68.431751
329	2	4	-0.34087533	1.7834531	-1.1344245	66.936897
330	2	4	-0.014651937	1.9040154	0.19353788	66.794339
331	2	6	0.21318187	1.9875542	0.83702112	67.66238
332	2	4	-0.2502223	1.9217152	0.80720627	65.450972
333	2	6	0.20271149	1.980141	1.883919	65.414445
334	2	4	-0.22903347	1.8534198	0.045739138	64.333408
335	2	2	0.016918826	1.826661	0.62741413	62.899881
336	2	4	-0.22903346	0.40725121	0.43670889	62.329554
337	2	4	-0.25338736	0.17923847	0.16384482	61.023811
338	2	6	0.20271152	0.98662943	0.033192832	60.318673
339	2	4	-0.065970496	-1.1961913	0.038908038	60.499951
340	2	6	0.22631664	-1.3271686	-0.21309468	59.454762
341	2	4	-0.26965311	-2.2556664	0.23588499	61.301943
342	2	4	0.83495748	-3.6350173	0.11163214	60.782226
343	2	5	-0.50653434	-4.6196848	0.3037254	61.545269
344	2	8	-0.66932428	-3.8602654	-0.21901666	59.447599
345	2	9	0.41186029	-4.8019554	-0.3059585	59.085684
346	2	4	-0.065970571	-2.0212939	0.59515858	62.720393
347	2	6	0.22631667	-2.8584247	0.78896479	63.379465
348	2	4	-0.25338736	-0.77668343	0.69849286	63.199301
349	2	6	0.20271149	-0.64413828	0.98774402	64.233306
350	2	2	-0.13282666	2.8949415	-0.13712385	62.063292
351	2	7	0.08362615	2.5658407	-1.1696367	61.821311
352	2	7	0.08362615	3.1069992	0.3821794	61.103467
353	2	7	0.08362615	3.8535722	-0.20855744	62.621666
354	2	2	-0.13551723	2.1370909	2.1586846	62.815134
355	2	2	-0.11500102	3.5784519	2.5528903	63.175395
356	2	7	0.063807673	4.2740015	2.2603162	62.360938
357	2	7	0.063807673	3.9172298	2.0774249	64.116134
358	2	7	0.063807673	3.6392098	3.6554478	63.295185
359	2	7	0.099088578	1.9549415	2.5094225	61.774318
360	2	7	0.099088578	1.4257366	2.7336668	63.446079
361	2	4	-0.25022227	1.6801708	-1.427036	64.510598
362	2	6	0.20271148	1.548853	-2.0689289	63.650901
363	2	4	-0.014651977	1.6548623	-1.979156	65.727957
364	2	6	0.21318187	1.5247706	-3.0496713	65.823089
365	4	1	-0.12361074	-2.9101963	0.22468806	99.823341
366	4	2	0.055201097	-1.6912276	-0.23077412	100.34339
367	4	2	0.16009539	-1.3405389	0.53241879	101.62026
368	4	1	-0.49847573	-0.15653609	0.030439175	102.17668
369	4	3	0.097729511	-2.1603758	0.40772319	102.35819
370	4	3	0.097729511	-1.235463	1.620054	101.40105
371	4	3	0.1054806	-1.7880055	-1.3123245	100.57823
372	4	3	0.1054806	-0.87962273	-0.11355497	99.588802
373	5	4	0.79593992	0.62338074	0.40224664	101.60051
374	5	5	-0.53566253	1.3139123	1.3531485	102.05262
375	5	4	-0.28064281	0.91100229	-0.17900854	100.2779
376	5	4	-0.069137038	0.16442474	-1.1889884	99.808804
377	5	6	0.22631664	-0.65803476	-1.585713	100.39358
378	5	4	-0.25338739	0.44266987	-1.7793462	98.483326
379	5	6	0.20271149	-0.22444122	-2.5604156	98.154822
380	5	4	-0.22903347	1.4781751	-1.3430761	97.728523
381	5	2	0.016918826	1.7996622	-1.8893785	96.317096
382	5	4	-0.22903346	1.4373664	-0.80253338	95.284858
383	5	4	-0.2502223	2.154809	-0.60720288	94.154317
384	5	6	0.20271152	3.0408718	-1.1831285	93.932668
385	5	4	-0.014651944	1.7484979	0.40860727	93.160895
386	5	6	0.21318187	2.3673077	0.55691309	92.284868
387	5	4	-0.34087533	0.6327348	1.1302436	93.340841
388	5	4	0.58800399	0.2352712	2.1404756	92.343869
389	5	5	-0.55175197	-0.81119364	2.8228624	92.496793
390	5	4	-0.01465197	-0.19728829	0.88777657	94.54345
391	5	6	0.21318185	-1.118496	1.4373879	94.691544
392	5	4	-0.2502223	0.17421218	-0.024158483	95.448599
393	5	6	0.20271149	-0.46847042	-0.19483211	96.302814
394	5	2	-0.13282666	3.3166057	-2.2374054	96.283439
395	5	7	0.08362615	3.6083693	-2.8138678	97.187522
396	5	7	0.08362615	3.9474991	-1.3247238	96.247041
397	5	7	0.08362615	3.5719135	-2.8581865	95.396986
398	5	2	-0.13551723	0.99116532	-3.1692291	95.917436
399	5	2	-0.11500102	1.3361369	-4.4344724	96.717554
400	5	7	0.063807673	0.57470229	-5.2165797	96.515585
401	5	7	0.063807673	2.3237293	-4.8343449	96.403308
402	5	7	0.063807673	1.364183	-4.2438917	97.808396
403	5	7	0.099088578	-0.10000627	-2.9732486	95.983808
404	5	7	0.099088578	1.1832887	-3.3999541	94.845431
405	5	4	-0.25338736	2.2752463	-0.19155149	98.247527
406	5	6	0.20271148	3.0666262	0.23977837	97.648943
407	5	4	-0.069137023	2.0145415	0.34719526	99.44375
408	5	6	0.22631664	2.6091598	1.1830359	99.789744
409	1	1	-0.11803249	-2.7233501	1.0957627	99.384292
410	1	2	0.027224001	-2.7956571	0.87148089	98.002899
411	1	2	0.099260381	-4.2538945	0.7646791	97.557329
412	1	8	-0.67273587	-4.3278103	0.60844029	96.16642
413	1	9	0.40372297	-4.0818717	-0.33456402	95.973531
414	1	3	0.10422972	-4.7910206	1.6949888	97.839087
415	1	3	0.10422972	-4.7504957	-0.089755731	98.070627
416	1	3	0.10619092	-2.3153894	1.7255362	97.479351
417	1	3	0.10619092	-2.2411005	-0.055740488	97.730714
418	2	4	0.58800393	0.84544424	2.3070549	91.464928
419	2	5	-0.55175209	2.0252393	2.7231493	91.611444
420	2	4	-0.34087533	0.29691414	2.0502626	90.121265
421	2	4	-0.014651937	-0.95991138	1.6039334	89.981544
422	2	6	0.21318187	-1.5826023	1.4255117	90.850432
423	2	4	-0.2502223	-1.5204881	1.3426489	88.640268
424	2	6	0.20271149	-2.5233989	0.94629235	88.606661
425	2	4	-0.22903347	-0.79605678	1.5801096	87.521226
426	2	2	0.016918826	-1.3087103	1.2903126	86.090398
427	2	4	-0.22903346	-0.54167963	0.070688548	85.542177
428	2	4	-0.25338736	-0.19413588	-0.043714805	84.239282
429	2	6	0.20271152	-0.40956024	0.73321662	83.520853
430	2	4	-0.065970496	0.49462069	-1.2500422	83.737053
431	2	6	0.22631664	0.78185792	-1.2807774	82.693199
432	2	4	-0.26965311	0.75451889	-2.2821689	84.556593
433	2	4	0.83495748	1.4442743	-3.4922786	84.058571
434	2	5	-0.50653434	1.6775583	-4.4550076	84.837953
435	2	8	-0.66932428	1.8432878	-3.5805427	82.726546
436	2	9	0.41186029	2.316133	-4.4059235	82.379436
437	2	4	-0.065970571	0.32539621	-2.1962017	85.972387
438	2	6	0.22631667	0.49597238	-3.0272281	86.645457
439	2	4	-0.25338736	-0.2890337	-1.10048	86.431686
440	2	6	0.20271149	-0.61074327	-1.0840277	87.464466
441	2	2	-0.13282666	-1.0562761	2.5664969	85.234097
442	2	7	0.08362615	0.020253748	2.6939678	84.993723
443	2	7	0.08362615	-1.6134178	2.5273374	84.272864
444	2	7	0.08362615	-1.3929005	3.4764485	85.776802
445	2	2	-0.13551723	-2.8296845	0.93270816	86.00617
446	2	2	-0.11500102	-3.7901196	2.0840767	86.34473
447	2	7	0.063807673	-3.8113651	2.8251156	85.518207
448	2	7	0.063807673	-3.5023969	2.605263	87.278222
449	2	7	0.063807673	-4.818029	1.6815714	86.467473
450	2	7	0.099088578	-3.0689906	0.6042613	84.969662
451	2	7	0.099088578	-3.0579172	0.056630591	86.650467
452	2	4	-0.25022227	0.61424245	2.0394823	87.695899
453	2	6	0.20271148	1.2553779	2.1739525	86.836124
454	2	4	-0.014651977	1.1224779	2.2661726	88.911526
455	2	6	0.21318187	2.1494318	2.5957542	89.0049
456	4	1	-0.12361074	3.2420253	24.545814	-6.6814309
457	4	2	0.055201097	2.103728	25.254909	-7.0879391
458	4	2	0.16009539	2.5083225	26.521121	-7.842152
459	4	1	-0.49847573	1.3706498	27.194183	-8.3070573
460	4	3	0.097729511	3.137201	26.243031	-8.7135942
461	4	3	0.097729511	3.1094952	27.186686	-7.1805932
462	4	3	0.1054806	1.5023931	24.605303	-7.7592607
463	4	3	0.1054806	1.4739192	25.515747	-6.2063747
464	5	4	0.79593992	0.95404612	27.67523	-7.4863806
465	5	5	-0.53566253	1.1178205	28.917443	-7.3617434
466	5	4	-0.28064281	0.1851899	26.910163	-6.489679
467	5	4	-0.069137038	0.022528931	25.587272	-6.6345609
468	5	6	0.22631664	0.45581338	25.067083	-7.481595
469	5	4	-0.25338739	-0.74563549	24.809195	-5.6409038
470	5	6	0.20271149	-0.79985767	23.744142	-5.8013515
471	5	4	-0.22903347	-1.3348077	25.415684	-4.5838428
472	5	2	0.016918826	-2.1179535	24.65571	-3.487007
473	5	4	-0.22903346	-1.2759695	24.669971	-2.1951611
474	5	4	-0.2502223	-1.8343765	24.757109	-0.96569393
475	5	6	0.20271152	-2.9008209	24.854872	-0.82761941
476	5	4	-0.014651944	-1.00066	24.715009	0.25372823
477	5	6	0.21318187	-1.4823091	24.820472	1.2176969
478	5	4	-0.34087533	0.32676468	24.546394	0.16666692
479	5	4	0.58800399	1.1497678	24.504798	1.388729
480	5	5	-0.55175197	2.3962775	24.343306	1.3234632
481	5	4	-0.01465197	0.94809416	24.389151	-1.1687062
482	5	6	0.21318185	2.0138933	24.220236	-1.2590831
483	5	4	-0.2502223	0.19636382	24.437021	-2.27394
484	5	6	0.20271149	0.67837776	24.292627	-3.2324111
485	5	2	-0.13282666	-3.4821848	25.381115	-3.2971814
486	5	7	0.08362615	-3.9559067	25.592135	-4.2799628
487	5	7	0.08362615	-3.3635136	26.348201	-2.7652033
488	5	7	0.08362615	-4.1948571	24.760392	-2.7113914
489	5	2	-0.13551723	-2.401013	23.151492	-3.8165801
490	5	2	-0.11500102	-3.3770653	22.911178	-4.9783051
491	5	7	0.063807673	-3.3447445	21.840772	-5.2706265
492	5	7	0.063807673	-4.4168968	23.145402	-4.6654525
493	5	7	0.063807673	-3.12926	23.526045	-5.8657596
494	5	7	0.099088578	-1.4495262	22.613356	-4.0129244
495	5	7	0.099088578	-2.8369232	22.658869	-2.9184455
496	5	4	-0.25338736	-1.1110154	26.882729	-4.4153492
497	5	6	0.20271148	-1.5003672	27.399281	-3.5480493
498	5	4	-0.069137023	-0.40671171	27.58265	-5.311582
499	5	6	0.22631664	-0.26033805	28.64431	-5.1587232
500	1	1	-0.11803249	3.6118779	25.029174	-5.8965624
501	1	2	0.027224001	3.336664	24.238089	-4.7730762
502	1	2	0.099260381	4.2971685	23.050674	-4.7108601
503	1	8	-0.67273587	4.066232	22.297866	-3.5513547
504	1	9	0.40372297	3.2425147	21.767721	-3.7168374
505	1	3	0.10422972	5.341878	23.426726	-4.6877391
506	1	3	0.10422972	4.1793528	22.413801	-5.6167623
507	1	3	0.10619092	3.4650733	24.859891	-3.8614603
508	1	3	0.10619092	2.2822169	23.879238	-4.7999796
509	2	4	0.58800393	0.68609016	24.61518	2.361054
510	2	5	-0.55175209	0.095454542	25.693114	2.6362339
511	2	4	-0.34087533	0.75038093	23.517685	3.3427005
512	2	4	-0.014651937	1.3797496	22.374542	3.033732
513	2	6	0.21318187	1.8437278	22.244277	2.0630105
514	2	4	-0.2502223	1.4504272	21.267577	4.0090121
515	2	6	0.20271149	1.9367741	20.363659	3.6766635
516	2	4	-0.22903347	0.91577643	21.39106	5.2468916
517	2	2	0.016918826	0.92021335	20.257264	6.2997685
518	2	4	-0.22903346	-0.52004292	19.726203	6.4411993
519	2	4	-0.25338736	-1.0268401	19.30582	7.6235037
520	2	6	0.20271152	-0.45490456	19.352132	8.5383342
521	2	4	-0.065970496	-2.3938743	18.75364	7.713832
522	2	6	0.22631664	-2.7667798	18.461312	8.6877765
523	2	4	-0.26965311	-3.1519126	18.616665	6.6133349
524	2	4	0.83495748	-4.5215999	18.064536	6.6985682
525	2	5	-0.50653434	-5.2198625	17.937488	5.6569383
526	2	8	-0.66932428	-5.0536678	17.680798	7.9277722
527	2	9	0.41186029	-5.9906554	17.302483	7.9929909
528	2	4	-0.065970571	-2.5877511	19.016344	5.3026146
529	2	6	0.22631667	-3.1674495	18.887276	4.3970672
530	2	4	-0.25338736	-1.3539913	19.526345	5.2200197
531	2	6	0.20271149	-0.96611318	19.782859	4.2432126
532	2	2	-0.13282666	1.4497501	20.859047	7.6350848
533	2	7	0.08362615	0.69690021	21.518585	8.1158885
534	2	7	0.08362615	1.7129665	20.06171	8.3636992
535	2	7	0.08362615	2.3660243	21.463013	7.4575342
536	2	2	-0.13551723	1.8120407	19.02739	5.9250799
537	2	2	-0.11500102	3.3244875	19.300811	5.9037855
538	2	7	0.063807673	3.7136786	19.400278	6.938854
539	2	7	0.063807673	3.5729117	20.22292	5.3435818
540	2	7	0.063807673	3.8462203	18.445246	5.4247477
541	2	7	0.099088578	1.6393911	18.214162	6.665584
542	2	7	0.099088578	1.4970413	18.60403	4.9471929
543	2	4	-0.25022227	0.18491067	22.65512	5.5606815
544	2	6	0.20271148	-0.32027486	22.772994	6.5089659
545	2	4	-0.014651977	0.11413251	23.652036	4.672655