Title

9250 atoms
9125 bonds
16500 angles
29750 dihedrals
2250 impropers

11 atom types
14 bond types
9 angle types
35 dihedral types
3 improper types
-12.02029472 127.5647782 xlo xhi
-12.40749216 127.498512 ylo yhi
-13.01320695 127.4462595 zlo zhi
0.0 0.0 0.0 xy xz yz

Masses

1	12.01078
2	15.99943
3	14.00672
4	12.01078
5	1.007947
6	1.007947
7	1.007947
8	15.99943
9	12.01078
10	15.99943
11	1.007947


Pair Coeffs

1	0.086879315	3.4806469
2	0.2102061	3.0398122
3	0.16769152	3.206876
4	0.10884061	3.3795318
5	0.014090815	1.1034277
6	0.016409246	2.5832257
7	0.015779483	2.6445434
8	0.16846514	3.0251065
9	0.21	3.3996695
10	0.20947353	2.99716
11	1.2326e-05	0.53453923

Bond Coeffs

1 harmonic	582.698766451	1.225198386222
2 harmonic	492.76746816345	1.381897776683
3 harmonic	279.1350963404	1.454628925034
4 harmonic	352.0565580496	1.450098586273
5 harmonic	505.144496193	1.019481865027
6 harmonic	264.62148576755	1.52190126495
7 harmonic	370.04670688625	1.093899492634
8 harmonic	301.15400723785	1.345741232799
9 harmonic	366.7408841747	1.425895053732
10 harmonic	300.03137914615	1.451203938761
11 harmonic	366.34047229585	1.464762957261
12 harmonic	602.81384337	1.196112346392
13 harmonic	329.96998057905	1.427343958716
14 harmonic	543.5267831885	0.9716763312559


Angle Coeffs

1 harmonic	55.42182150775	117.3465570514
2 harmonic	63.44422595415	115.5071327674
3 harmonic	57.8982893754	126.8062420451
4 harmonic	53.20531626545	116.5475862634
5 harmonic	65.09061609600001	110.3538806181
6 harmonic	201.41175231035	127.4691416191
7 harmonic	48.776492647595	115.6030999533
8 harmonic	55.07882548015	112.8714009681
9 harmonic	33.56981613361	180


Dihedral Coeffs

1 fourier 1	-0.1488678166443	4	180
2 fourier 1	-0.1230328948768	3	180
3 fourier 1	0.2939295466901	2	0
4 fourier 1	-0.3024127022865	1	0
5 fourier 1	0.182238503271	2	0
6 fourier 1	0.02972342374561	3	0
7 fourier 1	1.809047390003	2	180
8 fourier 1	-0.04816277792592	1	0
9 fourier 1	3.101948770557	2	180
10 fourier 1	-0.4252153282372	1	0
11 fourier 1	2.348375642009	2	180
12 fourier 1	1.256156174911	1	0
13 fourier 1	0.9974165607242	2	180
14 fourier 1	0.1155372516788	3	0
15 fourier 1	0.09223874044423	3	0
16 fourier 1	0.3159935921949	2	180
17 fourier 1	0.3247796806857	1	180
18 fourier 1	0.1040663847541	3	0
19 fourier 1	2.779853741805	2	180
20 fourier 1	0.1918272375143	3	0
21 fourier 1	0.9202179876409	1	180
22 fourier 1	0.0473758381877	3	0
23 fourier 1	0.4860993122944	2	180
24 fourier 1	0.8916986138746	1	0
25 fourier 1	1.163809172478	2	180
26 fourier 1	0.1679186987369	1	180
27 fourier 1	0.1911926717192	3	0
28 fourier 1	0.1115525666802	3	0
29 fourier 1	0.3432490222662	1	0
30 fourier 1	0.457973137376	1	0
31 fourier 1	-1.382973039546	1	0
32 fourier 1	0	1	0
33 fourier 1	0.3445382149273	3	0
34 fourier 1	0.1364556373303	1	0
35 fourier 1	0.3026390167484	3	0


Improper Coeffs

1 0.3333333333333333	-1	2
2 0.3666666666666667	-1	2
3 3.5	-1	2


Atoms

1	6	1	0.54505157	-0.52377974	-3.3260123	-1.8366232
2	6	2	-0.67300385	0.51201176	-4.030044	-1.9769312
3	6	3	-0.51971328	-0.42988269	-1.908213	-1.6788909
4	6	4	0.032419329	0.86067897	-1.2207629	-1.6748915
5	6	4	-0.14453125	0.6752468	0.28825727	-1.4867137
6	6	4	-0.14116565	2.0294754	1.0132265	-1.4638773
7	6	4	-0.14116565	1.8902706	2.5460094	-1.4619664
8	6	4	-0.14324084	1.1555398	3.1308662	-0.24188353
9	6	4	0.026651494	1.8688389	2.8396753	1.0852737
10	6	3	-0.46307391	1.2311763	3.5600579	2.1863964
11	6	1	0.78864413	1.7164755	3.4616976	3.5281635
12	6	2	-0.59855962	2.7178174	2.7469493	3.8005205
13	6	5	0.32848036	0.39539893	4.163715	2.0118818
14	6	6	0.06116865	1.8283236	1.7515962	1.3019381
15	6	6	0.06116865	2.9329641	3.154355	1.0117951
16	6	7	0.091311572	0.11151735	2.7543942	-0.20161024
17	6	7	0.091311572	1.0990693	4.2320363	-0.37936227
18	6	7	0.090016236	2.9077817	2.9927447	-1.5152098
19	6	7	0.090016236	1.351984	2.8580705	-2.3824529
20	6	7	0.090016236	2.6254182	0.67835746	-0.58804007
21	6	7	0.090016236	2.6027098	0.72975242	-2.3732764
22	6	7	0.091311572	0.14227341	0.46198821	-0.52814657
23	6	7	0.091311572	0.054187045	0.68600755	-2.3199823
24	6	6	0.057556117	1.3791274	-1.4141583	-2.6390567
25	6	6	0.057556117	1.4848634	-1.6225253	-0.84599782
26	6	5	0.32189974	-1.3176017	-1.3675373	-1.565994
27	7	8	-0.49573812	1.2405131	3.9839322	4.2871614
28	7	4	0.12648774	0.92657459	5.248148	3.7680331
29	7	4	-0.13219708	2.1778961	6.127627	3.6746462
30	7	4	0.044911595	2.7829471	6.4075993	5.0537361
31	7	8	-0.16183973	3.8882479	7.262465	4.9321153
32	7	6	0.09271401	3.086048	5.4563756	5.5468937
33	7	6	0.09271401	2.0257861	6.9024946	5.6966224
34	7	7	0.10142363	1.9020816	7.0925309	3.1964319
35	7	7	0.10142363	2.9328363	5.6281487	3.0284336
36	7	6	0.090142375	0.46648498	5.1451966	2.7598662
37	7	6	0.090142375	0.17682795	5.7330692	4.4299338
38	4	1	0.54505163	-1.494682	-3.8023754	-1.8356082
39	4	2	-0.67300391	-2.4735777	-3.213929	-2.366517
40	4	3	-0.51971334	-1.652509	-5.087173	-1.2235734
41	4	4	0.032419337	-2.932739	-5.7916146	-1.1812959
42	4	4	-0.14453125	-3.256883	-6.3977376	-2.5504893
43	4	4	-0.14098306	-4.5907829	-7.1595706	-2.512656
44	4	4	-0.1367856	-4.8909448	-7.8934529	-3.8291577
45	4	4	-0.12096969	-5.2593376	-6.9333076	-4.9716645
46	4	4	0.18574771	-5.657273	-7.6899087	-6.2487049
47	4	3	-0.62649703	-6.8762434	-8.4709437	-6.0579158
48	4	9	0.59431153	-8.0074545	-7.9191813	-5.8689751
49	4	2	-0.44906509	-9.1072969	-7.3818879	-5.6834474
50	4	6	0.035396339	-5.8035132	-6.9662519	-7.0808081
51	4	6	0.035396339	-4.8340412	-8.3757904	-6.5414758
52	4	7	0.084927378	-4.3851373	-6.2935845	-5.216477
53	4	7	0.084927378	-6.0925151	-6.2679505	-4.6578029
54	4	7	0.088729067	-4.0160465	-8.5142409	-4.1225502
55	4	7	0.088729067	-5.7443665	-8.5823127	-3.6453602
56	4	7	0.090016236	-4.5475882	-7.9170638	-1.7007205
57	4	7	0.090016236	-5.4204519	-6.4580574	-2.274705
58	4	7	0.091311572	-3.3126742	-5.583832	-3.3024667
59	4	7	0.091311572	-2.4382786	-7.0929934	-2.8404828
60	4	6	0.057556117	-3.7368047	-5.0909926	-0.86481037
61	4	6	0.057556117	-2.8706801	-6.6051857	-0.42674862
62	4	5	0.32189977	-0.82984508	-5.5077057	-0.73583443
63	5	8	-0.16108006	4.6373978	6.7106249	4.5873952
64	5	4	0.053339423	5.6658448	6.7908008	5.5384907
65	5	4	-0.16724067	6.368743	8.1511181	5.4698307
66	5	4	0.10038952	7.0632146	8.3658665	4.1213121
67	5	10	-0.67837537	7.7444757	9.5911932	4.1187081
68	5	11	0.38865831	7.0567562	10.298292	4.0085655
69	5	6	0.086454606	6.320595	8.3382227	3.291217
70	5	6	0.086454606	7.8011401	7.5536543	3.9495266
71	5	7	0.10541915	7.1271275	8.2017483	6.2802766
72	5	7	0.10541915	5.6258653	8.9603554	5.6424075
73	5	6	0.092584563	5.254655	6.6347763	6.5616418
74	5	6	0.092584563	6.399049	5.979218	5.345841
75	6	1	0.54505157	2.0223169	-2.9057547	24.748378
76	6	2	-0.67300385	2.8951171	-3.3951335	25.514498
77	6	3	-0.51971328	1.5802298	-1.5557759	24.909522
78	6	4	0.032419329	2.1182261	-0.69279685	25.960227
79	6	4	-0.14453125	1.4723503	0.69549513	25.910954
80	6	4	-0.14116565	2.0212699	1.6006098	27.024278
81	6	4	-0.14116565	1.5416588	3.0581614	26.904606
82	6	4	-0.14324084	0.017959635	3.2522696	27.010208
83	6	4	0.026651494	-0.55257014	2.802925	28.362066
84	6	3	-0.46307391	-1.9637992	3.1679166	28.477174
85	6	1	0.78864413	-2.7235256	2.8662587	29.650778
86	6	2	-0.59855962	-2.1920738	2.2744565	30.628049
87	6	5	0.32848036	-2.4508103	3.6576102	27.692061
88	6	6	0.06116865	-0.46157524	1.700808	28.459837
89	6	6	0.06116865	0.017344278	3.2872298	29.185128
90	6	7	0.091311572	-0.4984441	2.7184167	26.184579
91	6	7	0.091311572	-0.19296247	4.3353315	26.879236
92	6	7	0.090016236	2.0351163	3.65845	27.700777
93	6	7	0.090016236	1.8842826	3.4693324	25.930964
94	6	7	0.090016236	1.7519558	1.1857532	28.019135
95	6	7	0.090016236	3.1314448	1.6070606	26.965695
96	6	7	0.091311572	0.37461215	0.57902513	26.031368
97	6	7	0.091311572	1.6776969	1.158205	24.92
98	6	6	0.057556117	3.2173969	-0.59638543	25.824825
99	6	6	0.057556117	1.919117	-1.1579751	26.95121
100	6	5	0.32189974	0.85437126	-1.1953439	24.248962
101	7	8	-0.49573812	-3.7233269	3.1369808	29.700315
102	7	4	0.12648774	-3.8201298	4.4176924	29.137554
103	7	4	-0.13219708	-3.277529	5.4804118	30.098919
104	7	4	0.044911595	-4.0985882	5.5546839	31.389928
105	7	8	-0.16183973	-3.6088734	6.5769224	32.216054
106	7	6	0.09271401	-4.0691444	4.5798718	31.927306
107	7	6	0.09271401	-5.156863	5.7797896	31.143151
108	7	7	0.10142363	-3.3070738	6.469522	29.592371
109	7	7	0.10142363	-2.2166784	5.2512367	30.34198
110	7	6	0.090142375	-3.2563998	4.4588252	28.178805
111	7	6	0.090142375	-4.8866295	4.6303244	28.907887
112	4	1	0.54505163	1.6037486	-3.516433	23.960059
113	4	2	-0.67300391	1.3213914	-2.9887213	22.851833
114	4	3	-0.51971334	1.3693222	-4.9097379	24.192324
115	4	4	0.032419337	0.80509805	-5.7972417	23.176941
116	4	4	-0.14453125	1.8604285	-6.1448325	22.122141
117	4	4	-0.14098306	1.2847224	-7.0951281	21.060722
118	4	4	-0.1367856	2.3453302	-7.573395	20.056616
119	4	4	-0.12096969	2.7883551	-6.4636217	19.089638
120	4	4	0.18574771	3.7692263	-6.9872829	18.028836
121	4	3	-0.62649703	3.142289	-7.9704294	17.149815
122	4	9	0.59431153	2.2176847	-7.6530589	16.334854
123	4	2	-0.44906509	1.3170646	-7.3440703	15.543546
124	4	6	0.035396339	4.1536886	-6.1365567	17.423927
125	4	6	0.035396339	4.6386231	-7.4600782	18.533289
126	4	7	0.084927378	3.3022029	-5.6590194	19.657071
127	4	7	0.084927378	1.9021595	-6.0166144	18.589402
128	4	7	0.088729067	3.2270667	-7.97521	20.6025
129	4	7	0.088729067	1.9039606	-8.4093795	19.470987
130	4	7	0.090016236	0.86743171	-7.9902654	21.570132
131	4	7	0.090016236	0.45080986	-6.596721	20.519175
132	4	7	0.091311572	2.208742	-5.2097984	21.636946
133	4	7	0.091311572	2.7275029	-6.627978	22.624478
134	4	6	0.057556117	-0.076117381	-5.3122286	22.70178
135	4	6	0.057556117	0.45817399	-6.7315207	23.668731
136	4	5	0.32189977	1.5545623	-5.2905347	25.147412
137	5	8	-0.16108006	-2.7749575	6.2329379	32.629387
138	5	4	0.053339423	-2.9704064	6.2700021	34.018322
139	5	4	-0.16724067	-2.879136	7.7065707	34.544804
140	5	4	0.10038952	-1.485656	8.3050469	34.328125
141	5	10	-0.67837537	-1.4232174	9.594072	34.875907
142	5	11	0.38865831	-1.9052484	10.193058	34.24826
143	5	6	0.086454606	-1.2395783	8.3376075	33.241989
144	5	6	0.086454606	-0.72615727	7.6716436	34.833788
145	5	7	0.10541915	-3.1069432	7.7027741	35.632289
146	5	7	0.10541915	-3.6412462	8.3361677	34.035579
147	5	6	0.092584563	-3.9648516	5.8405501	34.276989
148	5	6	0.092584563	-2.1972815	5.640859	34.508042
149	6	1	0.54505157	-3.7160285	-0.82573041	52.91567
150	6	2	-0.67300385	-4.1834705	-1.6715801	52.106814
151	6	3	-0.51971328	-2.5744712	-0.03668568	52.572003
152	6	4	0.032419329	-1.9074167	-0.17563175	51.278216
153	6	4	-0.14453125	-0.71592962	0.78148935	51.172311
154	6	4	-0.14116565	-0.00068037583	0.62676716	49.821565
155	6	4	-0.14116565	1.0871861	1.6911474	49.592553
156	6	4	-0.14324084	2.2431432	1.6689619	50.609293
157	6	4	0.026651494	3.0300056	0.35154278	50.59557
158	6	3	-0.46307391	4.2153657	0.44588495	51.446485
159	6	1	0.78864413	5.1213302	-0.65074012	51.595384
160	6	2	-0.59855962	4.9225667	-1.7376631	50.989727
161	6	5	0.32848036	4.4223223	1.3257715	51.972175
162	6	6	0.06116865	2.3879428	-0.47268486	50.970944
163	6	6	0.06116865	3.3460149	0.11854528	49.555073
164	6	7	0.091311572	1.8626225	1.8725161	51.632575
165	6	7	0.091311572	2.9358564	2.4978766	50.349074
166	6	7	0.090016236	1.5060526	1.5534277	48.571123
167	6	7	0.090016236	0.61509189	2.6966557	49.61514
168	6	7	0.090016236	0.43212397	-0.39282047	49.734977
169	6	7	0.090016236	-0.74905053	0.73137253	49.006113
170	6	7	0.091311572	-0.0079216465	0.55708501	51.997818
171	6	7	0.091311572	-1.07772	1.8278435	51.284149
172	6	6	0.057556117	-2.635309	0.045897057	50.467721
173	6	6	0.057556117	-1.5510874	-1.2233812	51.162741
174	6	5	0.32189974	-2.2240578	0.65168656	53.276613
175	7	8	-0.49573812	5.9521355	-0.55237736	52.208111
176	7	4	0.12648774	6.4688857	0.73101855	51.979731
177	7	4	-0.13219708	7.2029216	0.79439402	50.63616
178	7	4	0.044911595	8.4226486	-0.13179661	50.60793
179	7	8	-0.16183973	9.1006211	-0.0011212427	49.387048
180	7	6	0.09271401	8.1123958	-1.1898832	50.763162
181	7	6	0.09271401	9.1179205	0.14664598	51.426822
182	7	7	0.10142363	7.5367767	1.8399927	50.459904
183	7	7	0.10142363	6.5017917	0.51597574	49.818906
184	7	6	0.090142375	5.6482092	1.4826869	51.992641
185	7	6	0.090142375	7.170882	0.98806601	52.802233
186	4	1	0.54505163	-4.185705	-0.69694661	53.881274
187	4	2	-0.67300391	-4.2510404	0.45364491	54.389448
188	4	3	-0.51971334	-4.7157666	-1.8357842	54.568504
189	4	4	0.032419337	-5.3622147	-1.7406438	55.876199
190	4	4	-0.14453125	-6.7735329	-1.1612835	55.735958
191	4	4	-0.14098306	-7.4713936	-1.076611	57.102314
192	4	4	-0.1367856	-8.9357903	-0.62357058	56.992072
193	4	4	-0.12096969	-9.0696746	0.86293074	56.624236
194	4	4	0.18574771	-10.536376	1.3216368	56.621676
195	4	3	-0.62649703	-11.12892	1.2490055	57.954313
196	4	9	0.59431153	-10.750607	2.0091861	58.902355
197	4	2	-0.44906509	-10.380942	2.7477253	59.82467
198	4	6	0.035396339	-10.600351	2.3647801	56.240599
199	4	6	0.035396339	-11.122329	0.67644014	55.933026
200	4	7	0.084927378	-8.6608631	1.0324111	55.605632
201	4	7	0.084927378	-8.4854588	1.4864601	57.335079
202	4	7	0.088729067	-9.4684903	-1.2492875	56.242663
203	4	7	0.088729067	-9.4188337	-0.7976974	57.978473
204	4	7	0.090016236	-7.4590164	-2.0828823	57.573659
205	4	7	0.090016236	-6.9123326	-0.38509698	57.77041
206	4	7	0.091311572	-6.7060832	-0.14868405	55.287496
207	4	7	0.091311572	-7.3649577	-1.8121894	55.054688
208	4	6	0.057556117	-4.7469864	-1.1088618	56.55436
209	4	6	0.057556117	-5.426854	-2.7574258	56.320122
210	4	5	0.32189977	-4.5792307	-2.7795031	54.141578
211	5	8	-0.16108006	8.5662253	-0.49358806	48.711413
212	5	4	0.053339423	9.4059934	-1.4837155	48.179293
213	5	4	-0.16724067	10.431684	-0.87182365	47.218673
214	5	4	0.10038952	9.7593592	-0.23075759	46.000509
215	5	10	-0.67837537	10.729888	0.26271515	45.117273
216	5	11	0.38865831	11.074591	1.1040565	45.515271
217	5	6	0.086454606	9.0772161	0.5907038	46.31861
218	5	6	0.086454606	9.1535477	-0.99303566	45.46604
219	5	7	0.10541915	11.119082	-1.6735228	46.873281
220	5	7	0.10541915	11.035242	-0.10972087	47.758518
221	5	6	0.092584563	9.9362212	-2.018139	48.999969
222	5	6	0.092584563	8.7858152	-2.2308127	47.640226
223	6	1	0.54505157	-0.7137933	2.7322399	76.076003
224	6	2	-0.67300385	-0.32194855	3.8875732	76.392031
225	6	3	-0.51971328	-1.0099881	1.7589966	77.080451
226	6	4	0.032419329	-0.87313823	2.0606266	78.504686
227	6	4	-0.14453125	-1.2493484	0.84588416	79.358972
228	6	4	-0.14116565	-1.0900978	1.1519414	80.855971
229	6	4	-0.14116565	-1.6294484	0.028673643	81.759395
230	6	4	-0.14324084	-0.9235699	-1.3302226	81.599315
231	6	4	0.026651494	0.56845103	-1.2776063	81.954335
232	6	3	-0.46307391	1.1494586	-2.6194202	81.955675
233	6	1	0.78864413	2.5281214	-2.8397986	82.265919
234	6	2	-0.59855962	3.2865359	-1.8750301	82.551853
235	6	5	0.32848036	0.56180591	-3.4521659	81.722051
236	6	6	0.06116865	1.1094779	-0.65697873	81.209612
237	6	6	0.06116865	0.69461056	-0.8249189	82.962275
238	6	7	0.091311572	-1.0538743	-1.7147535	80.565636
239	6	7	0.091311572	-1.4243305	-2.0515785	82.28016
240	6	7	0.090016236	-1.5412519	0.35532035	82.819234
241	6	7	0.090016236	-2.7124695	-0.10845437	81.552776
242	6	7	0.090016236	-0.023899483	1.358098	81.090698
243	6	7	0.090016236	-1.6590885	2.0766838	81.09485
244	6	7	0.091311572	-0.58880343	-0.0015539025	79.078574
245	6	7	0.091311572	-2.3046969	0.56382005	79.14699
246	6	6	0.057556117	-1.5363282	2.915144	78.76117
247	6	6	0.057556117	0.18044311	2.3491542	78.716351
248	6	5	0.32189974	-1.3319015	0.81451057	76.768299
249	7	8	-0.49573812	2.9100698	-3.8038369	82.2563
250	7	4	0.12648774	1.9397118	-4.625318	82.847795
251	7	4	-0.13219708	1.91478	-4.4354692	84.368107
252	7	4	0.044911595	3.2364098	-4.8570394	85.01767
253	7	8	-0.16183973	3.1534812	-4.7254386	86.411615
254	7	6	0.09271401	4.0777164	-4.2431155	84.623714
255	7	6	0.09271401	3.4443458	-5.9203266	84.777462
256	7	7	0.10142363	1.0900642	-5.04882	84.791718
257	7	7	0.10142363	1.7047257	-3.3689693	84.603604
258	7	6	0.090142375	0.93527153	-4.3967125	82.426463
259	7	6	0.090142375	2.1701465	-5.6855893	82.606744
260	4	1	0.54505163	-0.82649046	2.4759155	75.031411
261	4	2	-0.67300391	-1.7707379	1.7212615	74.677485
262	4	3	-0.51971334	0.1034333	2.9901349	74.071713
263	4	4	0.032419337	0.016810369	2.6863065	72.644408
264	4	4	-0.14453125	-1.1109348	3.4923	71.991943
265	4	4	-0.14098306	-1.1976709	3.197298	70.486433
266	4	4	-0.1367856	-2.2292977	4.0815926	69.768362
267	4	4	-0.12096969	-3.6780188	3.701662	70.114446
268	4	4	0.18574771	-4.6937312	4.5261093	69.308068
269	4	3	-0.62649703	-4.6041259	4.2469458	67.877564
270	4	9	0.59431153	-4.9286579	3.1170819	67.389849
271	4	2	-0.44906509	-5.2428139	2.0172008	66.916219
272	4	6	0.035396339	-5.7229281	4.3056595	69.668092
273	4	6	0.035396339	-4.5045632	5.607891	69.474871
274	4	7	0.084927378	-3.8658778	3.8942851	71.191948
275	4	7	0.084927378	-3.8441782	2.6188074	69.9268
276	4	7	0.088729067	-2.047672	5.1503064	70.016892
277	4	7	0.088729067	-2.0746555	3.9608944	68.673759
278	4	7	0.090016236	-0.20422427	3.3879142	70.0264
279	4	7	0.090016236	-1.4432523	2.1246295	70.324679
280	4	7	0.091311572	-2.0722305	3.2301578	72.480018
281	4	7	0.091311572	-0.91747194	4.5764861	72.149114
282	4	6	0.057556117	-0.15045015	1.5957688	72.501904
283	4	6	0.057556117	0.98205841	2.9508551	72.161292
284	4	5	0.32189977	0.91025547	3.5563088	74.41812
285	5	8	-0.16108006	3.2312227	-3.7564109	86.610428
286	5	4	0.053339423	4.3495035	-3.6061522	87.444445
287	5	4	-0.16724067	4.0369239	-4.0800162	88.868169
288	5	4	0.10038952	2.9417984	-3.2321912	89.522999
289	5	10	-0.67837537	2.7271004	-3.6557936	90.842095
290	5	11	0.38865831	2.2048051	-4.498059	90.78848
291	5	6	0.086454606	1.9949731	-3.2996256	88.939664
292	5	6	0.086454606	3.2579201	-2.1675843	89.543303
293	5	7	0.10541915	4.9628521	-4.0103278	89.47836
294	5	7	0.10541915	3.7211159	-5.1458985	88.842184
295	5	6	0.092584563	5.2102863	-4.1850996	87.039313
296	5	6	0.092584563	4.6452672	-2.5358236	87.46146
297	6	1	0.54505157	-0.05389916	3.3397413	103.01002
298	6	2	-0.67300385	0.33810174	3.2865819	101.81347
299	6	3	-0.51971328	0.38578348	2.3743052	103.96838
300	6	4	0.032419329	1.3019156	1.2943606	103.60427
301	6	4	-0.14453125	1.6059163	0.40474708	104.81386
302	6	4	-0.14116565	2.55412	-0.74217918	104.43241
303	6	4	-0.14116565	3.0349169	-1.5537101	105.64858
304	6	4	-0.14324084	1.9203981	-2.2641977	106.43822
305	6	4	0.026651494	1.1583246	-3.3005097	105.60142
306	6	3	-0.46307391	0.23535476	-4.0661685	106.43804
307	6	1	0.78864413	-0.58671081	-5.1024569	105.89413
308	6	2	-0.59855962	-0.53591206	-5.3886473	104.66806
309	6	5	0.32848036	0.15464143	-3.8643232	107.46084
310	6	6	0.06116865	0.57587128	-2.7868825	104.80805
311	6	6	0.06116865	1.8819103	-3.9976931	105.12483
312	6	7	0.091311572	1.2106014	-1.5212827	106.85965
313	6	7	0.091311572	2.3959062	-2.7835812	107.29776
314	6	7	0.090016236	3.7664026	-2.3150581	105.29784
315	6	7	0.090016236	3.5806799	-0.87544246	106.33888
316	6	7	0.090016236	2.0646201	-1.4098736	103.6915
317	6	7	0.090016236	3.4532958	-0.31402399	103.93832
318	6	7	0.091311572	0.64989087	-0.012044606	105.19517
319	6	7	0.091311572	2.0721684	1.022888	105.61309
320	6	6	0.057556117	2.247613	1.7336476	103.21893
321	6	6	0.057556117	0.83922169	0.67961276	102.80048
322	6	5	0.32189974	0.032823057	2.4606104	104.94873
323	7	8	-0.49573812	-1.2325417	-5.6258052	106.51409
324	7	4	0.12648774	-0.53638435	-5.8652822	107.70753
325	7	4	-0.13219708	0.5042246	-6.9745	107.52104
326	7	4	0.044911595	-0.14762598	-8.3154103	107.16974
327	7	8	-0.16183973	0.8300691	-9.3157665	107.06642
328	7	6	0.09271401	-0.71606296	-8.2344864	106.21568
329	7	6	0.09271401	-0.85956428	-8.6021761	107.97126
330	7	7	0.10142363	1.0802206	-7.0870323	108.46517
331	7	7	0.10142363	1.2159256	-6.6818449	106.71802
332	7	6	0.090142375	-0.032286993	-4.9342969	108.0508
333	7	6	0.090142375	-1.2627977	-6.1620695	108.49469
334	4	1	0.54505163	-0.73146214	4.1261522	103.3134
335	4	2	-0.67300391	-0.61616412	4.6345884	104.45994
336	4	3	-0.51971334	-1.7520804	4.5685128	102.41181
337	4	4	0.032419337	-2.7048138	5.6239383	102.7515
338	4	4	-0.14453125	-2.0326918	6.9984914	102.67404
339	4	4	-0.14098306	-3.0306342	8.1181039	103.00824
340	4	4	-0.1367856	-2.4330656	9.5208016	102.81534
341	4	4	-0.12096969	-1.3926877	9.8742065	103.89035
342	4	4	0.18574771	-0.88468136	11.316989	103.74223
343	4	3	-0.62649703	-1.9482583	12.291619	103.96851
344	4	9	0.59431153	-2.4825724	12.452599	105.11235
345	4	2	-0.44906509	-3.0031826	12.607496	106.22489
346	4	6	0.035396339	-0.054725211	11.495909	104.46099
347	4	6	0.035396339	-0.47853037	11.460633	102.71838
348	4	7	0.084927378	-0.51754357	9.1966978	103.7981
349	4	7	0.084927378	-1.8277576	9.7344903	104.90355
350	4	7	0.088729067	-1.9760384	9.600035	101.80452
351	4	7	0.088729067	-3.2679642	10.253734	102.86426
352	4	7	0.090016236	-3.910758	8.0256527	102.33612
353	4	7	0.090016236	-3.3920399	8.003036	104.05382
354	4	7	0.091311572	-1.1851121	7.0276653	103.38943
355	4	7	0.091311572	-1.6344865	7.1482507	101.64613
356	4	6	0.057556117	-3.1140305	5.4468885	103.77069
357	4	6	0.057556117	-3.5510055	5.589661	102.03187
358	4	5	0.32189977	-1.854375	4.0726319	101.49795
359	5	8	-0.16108006	1.2864432	-9.177913	106.19618
360	5	4	0.053339423	1.1135634	-10.360108	105.46049
361	5	4	-0.16724067	2.0240859	-11.47258	105.99209
362	5	4	0.10038952	3.5064217	-11.12179	105.82919
363	5	10	-0.67837537	4.3057291	-12.186209	106.26927
364	5	11	0.38865831	4.2895368	-12.162293	107.26136
365	5	6	0.086454606	3.753145	-10.196195	106.39814
366	5	6	0.086454606	3.728894	-10.935746	104.75698
367	5	7	0.10541915	1.8090798	-12.407492	105.43151
368	5	7	0.10541915	1.7973519	-11.654788	107.06536
369	5	6	0.092584563	0.051503446	-10.691314	105.51138
370	5	6	0.092584563	1.3499605	-10.158922	104.39419
371	6	1	0.54505157	0.32145404	29.898774	1.0491556
372	6	2	-0.67300385	-0.7698275	30.510519	1.201089
373	6	3	-0.51971328	0.40990443	28.76181	0.18698388
374	6	4	0.032419329	-0.75172986	28.265597	-0.54958331
375	6	4	-0.14453125	-0.38208783	27.040324	-1.39161
376	6	4	-0.14116565	-1.6034622	26.50419	-2.1537399
377	6	4	-0.14116565	-1.2460003	25.390027	-3.1535739
378	6	4	-0.14324084	-0.63719682	24.12308	-2.5253285
379	6	4	0.026651494	-1.5864166	23.424211	-1.5427308
380	6	3	-0.46307391	-1.0339471	22.141175	-1.1107216
381	6	1	0.78864413	-1.7348939	21.291374	-0.19855872
382	6	2	-0.59855962	-2.8595043	21.626818	0.26019837
383	6	5	0.32848036	-0.10262984	21.819716	-1.4609974
384	6	6	0.06116865	-1.7386491	24.064533	-0.64868677
385	6	6	0.06116865	-2.5685517	23.250863	-2.0348141
386	6	7	0.091311572	0.3216267	24.364199	-2.0195072
387	6	7	0.091311572	-0.40089912	23.41837	-3.3512902
388	6	7	0.090016236	-2.1667064	25.106735	-3.7101542
389	6	7	0.090016236	-0.52916771	25.794672	-3.8997932
390	6	7	0.090016236	-2.3728287	26.147057	-1.4361697
391	6	7	0.090016236	-2.0601777	27.337998	-2.730053
392	6	7	0.091311572	0.011629325	26.252489	-0.71529872
393	6	7	0.091311572	0.41416062	27.322433	-2.1159441
394	6	6	0.057556117	-1.1332187	29.071492	-1.2135138
395	6	6	0.057556117	-1.5509172	27.989422	0.17368104
396	6	5	0.32189974	1.337272	28.288083	0.093746902
397	7	8	-0.49573812	-1.3147877	20.388199	0.089766607
398	7	4	0.12648774	-0.74292216	19.826694	-1.0608745
399	7	4	-0.13219708	-1.8230032	19.257977	-1.9871554
400	7	4	0.044911595	-2.5920801	18.108459	-1.3287574
401	7	8	-0.16183973	-3.5286296	17.576419	-2.2271373
402	7	6	0.09271401	-3.103951	18.460664	-0.40472259
403	7	6	0.09271401	-1.8828776	17.303838	-1.0439155
404	7	7	0.10142363	-1.3381721	18.885677	-2.9156667
405	7	7	0.10142363	-2.5301725	20.068202	-2.2707933
406	7	6	0.090142375	-0.14861819	20.593148	-1.6067973
407	7	6	0.090142375	-0.045419075	19.016259	-0.75744969
408	4	1	0.54505163	1.2006309	30.239696	1.5786783
409	4	2	-0.67300391	2.3260327	30.173894	1.0169748
410	4	3	-0.51971334	1.0718263	30.750242	2.910201
411	4	4	0.032419337	2.2135741	31.226988	3.6887507
412	4	4	-0.14453125	2.6595265	32.607542	3.1964677
413	4	4	-0.14098306	3.8460929	33.128767	4.0219943
414	4	4	-0.1367856	4.2417806	34.565875	3.6478174
415	4	4	-0.12096969	4.9216615	34.653707	2.271968
416	4	4	0.18574771	5.4032999	36.079742	1.9620006
417	4	3	-0.62649703	6.4505871	36.51014	2.8840917
418	4	9	0.59431153	7.6053193	35.97503	2.8895025
419	4	2	-0.44906509	8.7278612	35.452898	2.8954972
420	4	6	0.035396339	5.7827729	36.126537	0.9173612
421	4	6	0.035396339	4.5464216	36.782331	2.0393788
422	4	7	0.084927378	4.199224	34.361584	1.4806697
423	4	7	0.084927378	5.7819399	33.951459	2.2254657
424	4	7	0.088729067	3.3439582	35.221872	3.6698804
425	4	7	0.088729067	4.9464868	34.935723	4.4245026
426	4	7	0.090016236	3.5655644	33.119972	5.0972279
427	4	7	0.090016236	4.7202116	32.452527	3.8966629
428	4	7	0.091311572	2.9510152	32.534094	2.1284485
429	4	7	0.091311572	1.8053709	33.315003	3.2831114
430	4	6	0.057556117	3.0501064	30.497466	3.614137
431	4	6	0.057556117	1.9156047	31.29845	4.7570196
432	4	5	0.32189977	0.13015706	30.723249	3.3619126
433	5	8	-0.16108006	-4.2855199	18.217175	-2.2608134
434	5	4	0.053339423	-5.4291807	17.508888	-1.8619605
435	5	4	-0.16724067	-5.9079613	16.571948	-2.9764804
436	5	4	0.10038952	-6.3413728	17.346862	-4.2249083
437	5	10	-0.67837537	-6.8290275	16.462337	-5.1972036
438	5	11	0.38865831	-6.0375538	16.022143	-5.6032527
439	5	6	0.086454606	-5.4884588	17.934968	-4.6347557
440	5	6	0.086454606	-7.1523955	18.057523	-3.9585694
441	5	7	0.10541915	-6.7698313	15.980747	-2.5993929
442	5	7	0.10541915	-5.0926579	15.86288	-3.239195
443	5	6	0.092584563	-5.2123657	16.916412	-0.94423365
444	5	6	0.092584563	-6.2321932	18.233428	-1.6098064
445	6	1	0.54505157	-0.39956723	29.352783	24.04215
446	6	2	-0.67300385	-1.1497616	29.21487	23.038955
447	6	3	-0.51971328	0.26267569	28.226209	24.621905
448	6	4	0.032419329	0.099958078	26.878103	24.079424
449	6	4	-0.14453125	0.91313309	25.862116	24.88779
450	6	4	-0.14116565	0.73144385	24.441223	24.332732
451	6	4	-0.14116565	1.668414	23.41409	24.992951
452	6	4	-0.14324084	1.4673733	23.230093	26.508278
453	6	4	0.026651494	0.067918576	22.714991	26.870397
454	6	3	-0.46307391	-0.014071109	22.391821	28.294081
455	6	1	0.78864413	-1.2153325	21.882651	28.879953
456	6	2	-0.59855962	-2.2449295	21.694303	28.178395
457	6	5	0.32848036	0.8124894	22.533513	28.918662
458	6	6	0.06116865	-0.68958566	23.492744	26.638475
459	6	6	0.06116865	-0.15718606	21.802376	26.276053
460	6	7	0.091311572	1.6716092	24.181107	27.044184
461	6	7	0.091311572	2.2187378	22.49085	26.859897
462	6	7	0.090016236	1.5248843	22.431744	24.490824
463	6	7	0.090016236	2.7208464	23.719599	24.809975
464	6	7	0.090016236	-0.32764367	24.123305	24.44061
465	6	7	0.090016236	0.95768702	24.450391	23.244296
466	6	7	0.091311572	0.57238637	25.896974	25.94409
467	6	7	0.091311572	1.98933	26.142294	24.848322
468	6	6	0.057556117	0.4395758	26.868205	23.02095
469	6	6	0.057556117	-0.97682593	26.59966	24.112439
470	6	5	0.32189974	0.87481396	28.391587	25.453204
471	7	8	-0.49573812	-1.2414942	21.665036	29.893514
472	7	4	0.12648774	-0.019763801	21.050384	30.203143
473	7	4	-0.13219708	0.012405283	19.607009	29.68968
474	7	4	0.044911595	-1.0494591	18.736083	30.368129
475	7	8	-0.16183973	-0.94901278	17.411901	29.916766
476	7	6	0.09271401	-2.0690105	19.134632	30.16423
477	7	6	0.09271401	-0.88954272	18.745466	31.466244
478	7	7	0.10142363	1.0176548	19.17767	29.892025
479	7	7	0.10142363	-0.14686298	19.603076	28.588943
480	7	6	0.090142375	0.82243143	21.62452	29.756202
481	7	6	0.090142375	0.11798086	21.058457	31.306022
482	4	1	0.54505163	-0.2565692	30.33642	24.468276
483	4	2	-0.67300391	0.87147352	30.652824	24.930638
484	4	3	-0.51971334	-1.3524484	31.257107	24.508108
485	4	4	0.032419337	-1.2362066	32.60177	25.069698
486	4	4	-0.14453125	-0.48876675	33.524527	24.101712
487	4	4	-0.14098306	-0.37928111	34.9471	24.672159
488	4	4	-0.1367856	0.24785664	35.937004	23.677853
489	4	4	-0.12096969	1.753804	35.701937	23.478403
490	4	4	0.18574771	2.3823432	36.764768	22.563549
491	4	3	-0.62649703	2.3247251	38.096055	23.16076
492	4	9	0.59431153	2.9946536	38.398049	24.199882
493	4	2	-0.44906509	3.6452066	38.690705	25.211757
494	4	6	0.035396339	3.4407185	36.495782	22.351537
495	4	6	0.035396339	1.8402117	36.782804	21.594206
496	4	7	0.084927378	1.9161225	34.710284	23.005452
497	4	7	0.084927378	2.2737186	35.70126	24.460789
498	4	7	0.088729067	-0.27870794	35.873818	22.700284
499	4	7	0.088729067	0.091044796	36.962829	24.077517
500	4	7	0.090016236	-1.3987425	35.312258	24.921677
501	4	7	0.090016236	0.21283815	34.93262	25.613582
502	4	7	0.091311572	0.52658386	33.114735	23.922385
503	4	7	0.091311572	-1.0362236	33.551889	23.133656
504	4	6	0.057556117	-0.71040643	32.555775	26.04897
505	4	6	0.057556117	-2.2558497	33.006707	25.247025
506	4	5	0.32189977	-2.2870538	30.929086	24.175801
507	5	8	-0.16108006	-1.3462549	17.390901	29.007732
508	5	4	0.053339423	-2.4056268	16.472024	29.053681
509	5	4	-0.16724067	-1.8797105	15.032551	29.077604
510	5	4	0.10038952	-1.1134253	14.684867	27.797434
511	5	10	-0.67837537	-0.70170293	13.345099	27.829889
512	5	11	0.38865831	0.075663231	13.301688	28.445434
513	5	6	0.086454606	-0.23109088	15.35438	27.676831
514	5	6	0.086454606	-1.7757995	14.827263	26.917254
515	5	7	0.10541915	-2.7419211	14.339789	29.183461
516	5	7	0.10541915	-1.2174681	14.895416	29.960295
517	5	6	0.092584563	-3.0327356	16.65493	29.955645
518	5	6	0.092584563	-3.0510502	16.621143	28.162299
519	6	1	0.54505157	1.5420954	25.553867	49.000307
520	6	2	-0.67300385	2.3444624	24.583297	48.951196
521	6	3	-0.51971328	1.3089732	26.250114	50.226987
522	6	4	0.032419329	1.9866455	25.869625	51.465592
523	6	4	-0.14453125	1.5543401	26.7733	52.624652
524	6	4	-0.14116565	2.2501129	26.366268	53.932422
525	6	4	-0.14116565	1.9913777	27.354821	55.083345
526	6	4	-0.14324084	0.51558889	27.498539	55.497931
527	6	4	0.026651494	-0.093559855	26.188217	56.014581
528	6	3	-0.46307391	-1.4325104	26.416152	56.556146
529	6	1	0.78864413	-2.2095806	25.35047	57.109329
530	6	2	-0.59855962	-1.7565474	24.175312	57.14799
531	6	5	0.32848036	-1.8537162	27.37314	56.544219
532	6	6	0.06116865	-0.16638573	25.455334	55.18387
533	6	6	0.06116865	0.55549615	25.766393	56.813064
534	6	7	0.091311572	-0.087993722	27.889302	54.651569
535	6	7	0.091311572	0.46646401	28.256025	56.30939