Title

94 atoms
95 bonds
180 angles
376 dihedrals
18 impropers

11 atom types
14 bond types
9 angle types
35 dihedral types
3 improper types
-3.328000069 96.67199993 xlo xhi
-3.025000095 96.9749999 ylo yhi
-2.822999954 97.17700005 zlo zhi
0.0 0.0 0.0 xy xz yz

Masses

1	12.01078
2	15.99943
3	14.00672
4	12.01078
5	1.007947
6	1.007947
7	1.007947
8	15.99943
9	12.01078
10	15.99943
11	1.007947


Pair Coeffs

1	0.086879315	3.4806469
2	0.2102061	3.0398122
3	0.16769152	3.206876
4	0.10884061	3.3795318
5	0.015779483	2.6445434
6	0.014090815	1.1034277
7	0.016409246	2.5832257
8	0.16846514	3.0251065
9	0.21	3.3996695
10	0.20947353	2.99716
11	1.2326e-05	0.53453923

Bond Coeffs

1 harmonic	582.698766451	1.225198386222
2 harmonic	492.76746816345	1.381897776683
3 harmonic	279.1350963404	1.454628925034
4 harmonic	352.0565580496	1.450098586273
5 harmonic	505.144496193	1.019481865027
6 harmonic	264.62148576755	1.52190126495
7 harmonic	370.04670688625	1.093899492634
8 harmonic	301.15400723785	1.345741232799
9 harmonic	366.7408841747	1.425895053732
10 harmonic	300.03137914615	1.451203938761
11 harmonic	366.34047229585	1.464762957261
12 harmonic	602.81384337	1.196112346392
13 harmonic	329.96998057905	1.427343958716
14 harmonic	543.5267831885	0.9716763312559


Angle Coeffs

1 harmonic	55.42182150775	117.3465570514
2 harmonic	63.44422595415	115.5071327674
3 harmonic	57.8982893754	126.8062420451
4 harmonic	53.20531626545	116.5475862634
5 harmonic	48.776492647595	115.6030999533
6 harmonic	65.09061609600001	110.3538806181
7 harmonic	201.41175231035	127.4691416191
8 harmonic	55.07882548015	112.8714009681
9 harmonic	33.56981613361	180


Dihedral Coeffs

1 fourier 1	-0.1488678166443	4	180
2 fourier 1	-0.1230328948768	3	180
3 fourier 1	0.2939295466901	2	0
4 fourier 1	-0.3024127022865	1	0
5 fourier 1	0.182238503271	2	0
6 fourier 1	0.02972342374561	3	0
7 fourier 1	1.809047390003	2	180
8 fourier 1	-0.04816277792592	1	0
9 fourier 1	3.101948770557	2	180
10 fourier 1	-0.4252153282372	1	0
11 fourier 1	2.348375642009	2	180
12 fourier 1	1.256156174911	1	0
13 fourier 1	0.9974165607242	2	180
14 fourier 1	0.1155372516788	3	0
15 fourier 1	0.1040663847541	3	0
16 fourier 1	0.09223874044423	3	0
17 fourier 1	0.3159935921949	2	180
18 fourier 1	0.3247796806857	1	180
19 fourier 1	0.1911926717192	3	0
20 fourier 1	2.779853741805	2	180
21 fourier 1	0.1918272375143	3	0
22 fourier 1	0.9202179876409	1	180
23 fourier 1	0.0473758381877	3	0
24 fourier 1	0.4860993122944	2	180
25 fourier 1	0.8916986138746	1	0
26 fourier 1	1.163809172478	2	180
27 fourier 1	0.1679186987369	1	180
28 fourier 1	0.1115525666802	3	0
29 fourier 1	0.3432490222662	1	0
30 fourier 1	0.457973137376	1	0
31 fourier 1	-1.382973039546	1	0
32 fourier 1	0	1	0
33 fourier 1	0.3445382149273	3	0
34 fourier 1	0.1364556373303	1	0
35 fourier 1	0.3026390167484	3	0


Improper Coeffs

1 0.3333333333333333	-1	2
2 0.3666666666666667	-1	2
3 3.5	-1	2


Atoms

1	1	1	0.54368299	4.0289998	0.48899999	1.378
2	1	2	-0.68558002	4.243	-0.71499997	1.679
3	1	3	-0.489301	2.914	0.85399997	0.56
4	1	4	-2.2e-05	1.977	-0.15700001	0.055
5	1	4	-0.0080690002	0.87	0.421	-0.88499999
6	1	4	-0.169727	1.567	1.123	-2.082
7	1	5	0.073411003	2.2520001	0.419	-2.602
8	1	5	0.073411003	0.82099998	1.485	-2.823
9	1	5	0.073411003	2.151	2.0090001	-1.763
10	1	4	-0.204803	-0.037	1.4579999	-0.167
11	1	5	0.11244	0.574	2.2349999	0.338
12	1	5	0.11244	-0.65399998	1.99	-0.92699999
13	1	4	0.128363	-0.98799998	0.82499999	0.86299998
14	1	3	-0.51688802	-1.8049999	1.867	1.4960001
15	1	1	0.80975199	-2.503	1.655	2.7279999
16	1	2	-0.60378301	-2.428	0.55299997	3.3340001
17	1	6	0.31614801	-1.867	2.8169999	1.064
18	1	7	0.047357999	-0.382	0.33899999	1.655
19	1	4	-0.208407	-1.905	-0.20100001	0.17399999
20	1	5	0.113978	-2.5439999	0.345	-0.55699998
21	1	5	0.113978	-2.5910001	-0.65200001	0.926
22	1	4	-0.027807999	-1.128	-1.3279999	-0.55500001
23	1	4	-0.171482	-2.1259999	-2.092	-1.46
24	1	5	0.076462999	-1.614	-2.924	-1.99
25	1	5	0.076462999	-2.575	-1.419	-2.2219999
26	1	5	0.076462999	-2.9590001	-2.52	-0.86000001
27	1	4	-0.171482	-0.56800002	-2.3559999	0.463
28	1	5	0.076462999	-0.152	-1.8839999	1.37
29	1	5	0.076462999	0.212	-2.9949999	-0.0040000002
30	1	5	0.076462999	-1.375	-3.0250001	0.833
31	1	4	-0.210658	-0.011	-0.73100001	-1.473
32	1	5	0.114168	-0.51999998	-0.32600001	-2.378
33	1	5	0.114168	0.64200002	-1.549	-1.851
34	1	7	0.070542999	2.556	-0.926	-0.50099999
35	1	7	0.070542999	1.536	-0.66000003	0.92799997
36	1	6	0.316874	2.7869999	1.869	0.36199999
37	1	8	-0.498427	-3.075	2.4200001	3.132
38	1	4	0.12846901	-2.5829999	3.6170001	2.5910001
39	1	4	-0.133136	-1.248	4.0019999	3.237
40	1	4	0.043827999	-1.399	4.2810001	4.7360001
41	1	8	-0.166201	-0.17200001	4.6869998	5.2779999
42	1	7	0.089869998	-1.771	3.3740001	5.2659998
43	1	7	0.089869998	-2.1370001	5.0960002	4.8889999
44	1	5	0.098999001	-0.85799998	4.915	2.7360001
45	1	5	0.098999001	-0.51200002	3.1830001	3.0810001
46	1	7	0.087370001	-2.4489999	3.5139999	1.4910001
47	1	7	0.087370001	-3.3280001	4.4229999	2.763
48	1	1	0.556346	4.698	1.256	1.745
49	1	2	-0.674999	4.2490001	2.158	2.5009999
50	1	3	-0.568003	6.0770001	1.2359999	1.36
51	1	4	0.126183	7.0419998	2.2379999	1.83
52	1	7	0.045214999	6.5580001	3.2320001	1.76
53	1	4	-0.209517	7.4299998	1.9349999	3.289
54	1	5	0.113978	6.52	1.96	3.928
55	1	5	0.113978	7.8239999	0.89399999	3.3299999
56	1	4	-0.028343	8.4890003	2.9130001	3.862
57	1	4	-0.171482	9.0039997	2.3329999	5.2010002
58	1	5	0.076462999	9.7609997	3.0090001	5.6550002
59	1	5	0.076462999	8.1709995	2.2049999	5.9260001
60	1	5	0.076462999	9.4759998	1.337	5.053
61	1	4	-0.171482	7.8559999	4.29	4.1830001
62	1	5	0.076462999	7.23	4.6789999	3.365
63	1	5	0.076462999	7.1830001	4.2140002	5.0640001
64	1	5	0.076462999	8.6420002	5.039	4.4190001
65	1	4	-0.209346	9.7060003	3.0380001	2.8929999
66	1	5	0.112854	10.292	2.095	2.9849999
67	1	5	0.112854	10.391	3.8369999	3.25
68	1	4	0.024741	9.3879995	3.2290001	1.373
69	1	4	-0.168266	10.675	2.908	0.57099998
70	1	5	0.069977999	10.5	3.0209999	-0.52100003
71	1	5	0.069977999	11.504	3.5880001	0.86500001
72	1	5	0.069977999	11.011	1.864	0.75199997
73	1	4	0.143584	8.9680004	4.684	1.0089999
74	1	3	-0.62374598	9.9189997	5.6589999	1.533
75	1	9	0.60079902	9.7629995	6.9060001	1.335
76	1	2	-0.46256	9.6110001	8.1190004	1.142
77	1	7	0.069186002	7.9569998	4.9299998	1.372
78	1	7	0.069186002	8.9189997	4.7880001	-0.098999999
79	1	4	-0.205888	8.2919998	2.2219999	0.93099999
80	1	5	0.112317	8.7130003	1.191	0.94199997
81	1	5	0.112317	7.987	2.4349999	-0.118
82	1	6	0.31310999	6.3790002	0.49200001	0.69099998
83	1	8	-0.16545001	0.384	3.869	5.369
84	1	4	0.052253	0.70899999	3.753	6.7280002
85	1	4	-0.16818701	1.784	4.7719998	7.1220002
86	1	4	0.099256001	3.102	4.5250001	6.3800001
87	1	10	-0.68005002	4.0770001	5.4359999	6.8109999
88	1	11	0.38613001	3.8629999	6.3049998	6.381
89	1	7	0.083247997	2.9530001	4.6139998	5.2800002
90	1	7	0.083247997	3.4619999	3.497	6.5970001
91	1	5	0.102954	1.964	4.6960001	8.217
92	1	5	0.102954	1.418	5.7989998	6.9039998
93	1	7	0.089734003	-0.199	3.9089999	7.3540001
94	1	7	0.089734003	1.0779999	2.724	6.9239998

Bonds

1	1	1	2
2	2	1	3
3	3	1	48
4	4	3	4
5	5	3	36
6	6	4	5
7	7	4	34
8	7	4	35
9	6	5	6
10	6	5	10
11	6	5	31
12	7	6	7
13	7	6	8
14	7	6	9
15	7	10	11
16	7	10	12
17	6	10	13
18	4	13	14
19	7	13	18
20	6	13	19
21	2	14	15
22	5	14	17
23	1	15	16
24	8	15	37
25	7	19	20
26	7	19	21
27	6	19	22
28	6	22	23
29	6	22	27
30	6	22	31
31	7	23	24
32	7	23	25
33	7	23	26
34	7	27	28
35	7	27	29
36	7	27	30
37	7	31	32
38	7	31	33
39	9	37	38
40	6	38	39
41	7	38	46
42	7	38	47
43	6	39	40
44	7	39	44
45	7	39	45
46	9	40	41
47	7	40	42
48	7	40	43
49	10	41	83
50	1	48	49
51	2	48	50
52	4	50	51
53	5	50	82
54	7	51	52
55	6	51	53
56	6	51	79
57	7	53	54
58	7	53	55
59	6	53	56
60	6	56	57
61	6	56	61
62	6	56	65
63	7	57	58
64	7	57	59
65	7	57	60
66	7	61	62
67	7	61	63
68	7	61	64
69	7	65	66
70	7	65	67
71	6	65	68
72	6	68	69
73	6	68	73
74	6	68	79
75	7	69	70
76	7	69	71
77	7	69	72
78	11	73	74
79	7	73	77
80	7	73	78
81	12	74	75
82	1	75	76
83	7	79	80
84	7	79	81
85	9	83	84
86	6	84	85
87	7	84	93
88	7	84	94
89	6	85	86
90	7	85	91
91	7	85	92
92	13	86	87
93	7	86	89
94	7	86	90
95	14	87	88

Angles

1	9	74	75	76
2	4	51	53	54
3	4	57	56	61
4	4	51	53	55
5	4	4	5	31
6	4	61	56	65
7	4	83	84	93
8	5	28	27	30
9	5	7	6	8
10	4	54	53	56
11	5	89	86	90
12	4	68	73	78
13	4	55	53	56
14	4	51	79	81
15	4	87	86	89
16	4	51	79	68
17	4	14	13	19
18	4	5	31	22
19	5	44	39	45
20	4	69	68	79
21	4	22	23	25
22	4	10	13	14
23	1	13	14	15
24	4	22	31	33
25	4	10	13	18
26	4	40	39	45
27	5	46	38	47
28	4	5	31	32
29	6	41	83	84
30	4	19	22	23
31	3	3	1	48
32	4	69	68	73
33	5	71	69	72
34	4	52	51	53
35	1	1	3	4
36	2	48	50	82
37	4	85	86	90
38	3	1	48	49
39	5	59	57	60
40	5	93	84	94
41	3	2	1	3
42	4	53	51	79
43	5	29	27	30
44	4	84	85	92
45	4	51	53	56
46	4	5	6	9
47	4	86	85	92
48	4	10	13	19
49	4	56	61	62
50	4	68	79	81
51	4	19	22	31
52	3	1	48	50
53	4	68	73	77
54	4	22	27	28
55	5	91	85	92
56	4	53	56	61
57	4	5	10	12
58	5	42	40	43
59	3	14	15	37
60	4	57	56	65
61	4	23	22	27
62	4	19	22	27
63	4	53	56	65
64	4	56	65	66
65	4	21	19	22
66	2	4	3	36
67	5	34	4	35
68	4	85	86	87
69	2	15	14	17
70	5	20	19	21
71	3	49	48	50
72	4	20	19	22
73	4	68	69	72
74	4	27	22	31
75	4	38	39	45
76	4	68	79	80
77	4	5	10	13
78	5	11	10	12
79	4	40	39	44
80	5	63	61	64
81	5	70	69	72
82	4	87	86	90
83	5	8	6	9
84	4	56	65	67
85	5	66	65	67
86	8	73	74	75
87	4	18	13	19
88	5	7	6	9
89	4	39	38	46
90	4	37	38	47
91	5	77	73	78
92	5	24	23	25
93	6	86	87	88
94	4	73	68	79
95	4	22	23	26
96	4	23	22	31
97	4	74	73	78
98	6	40	41	83
99	4	38	39	40
100	4	3	4	5
101	4	39	40	41
102	2	51	50	82
103	4	10	5	31
104	4	5	31	33
105	4	53	56	57
106	4	66	65	68
107	4	84	85	86
108	4	85	84	94
109	4	39	40	43
110	5	80	79	81
111	4	41	40	43
112	4	5	10	11
113	5	28	27	29
114	4	68	73	74
115	4	50	51	52
116	4	56	57	60
117	4	50	51	79
118	1	48	50	51
119	4	4	5	6
120	5	24	23	26
121	4	6	5	31
122	4	41	40	42
123	4	56	61	63
124	4	68	69	71
125	3	2	1	48
126	5	32	31	33
127	4	56	57	59
128	4	5	6	7
129	3	14	15	16
130	4	3	4	35
131	4	22	27	29
132	5	70	69	71
133	4	13	19	21
134	4	68	69	70
135	4	13	19	22
136	5	62	61	64
137	4	6	5	10
138	4	74	73	77
139	4	65	68	79
140	4	11	10	13
141	4	65	68	69
142	4	83	84	94
143	7	16	15	37
144	5	58	57	60
145	4	85	84	93
146	4	13	19	20
147	4	5	6	8
148	4	5	4	35
149	5	54	53	55
150	5	62	61	63
151	2	13	14	17
152	4	37	38	46
153	4	56	65	68
154	4	4	5	10
155	4	85	86	89
156	4	50	51	53
157	4	65	68	73
158	4	56	57	58
159	6	15	37	38
160	5	58	57	59
161	2	1	3	36
162	5	25	23	26
163	4	84	85	91
164	4	56	61	64
165	4	83	84	85
166	4	86	85	91
167	4	3	4	34
168	4	12	10	13
169	4	22	27	30
170	4	39	38	47
171	4	14	13	18
172	4	39	40	42
173	4	22	23	24
174	4	22	31	32
175	4	51	79	80
176	4	67	65	68
177	4	38	39	44
178	4	52	51	79
179	4	37	38	39
180	4	5	4	34

Dihedrals

1	15	53	56	61	64
2	13	2	1	48	50
3	15	6	5	31	32
4	15	64	61	56	65
5	15	10	5	4	35
6	5	35	4	3	36
6	6	35	4	3	36
7	1	15	14	13	19
7	2	15	14	13	19
7	3	15	14	13	19
7	4	15	14	13	19
8	15	53	56	57	58
9	15	65	68	69	72
10	16	13	19	22	23
10	17	13	19	22	23
10	18	13	19	22	23
11	23	42	40	41	83
12	16	5	31	22	27
12	17	5	31	22	27
12	18	5	31	22	27
13	13	3	1	48	49
14	1	1	3	4	5
14	2	1	3	4	5
14	3	1	3	4	5
14	4	1	3	4	5
15	23	15	37	38	46
16	26	16	15	37	38
16	27	16	15	37	38
17	15	71	69	68	73
18	16	5	31	22	19
18	17	5	31	22	19
18	18	5	31	22	19
19	15	7	6	5	31
20	15	19	22	27	30
21	15	23	22	27	30
22	19	89	86	85	92
23	5	48	50	51	52
23	6	48	50	51	52
24	16	56	53	51	79
24	17	56	53	51	79
24	18	56	53	51	79
25	5	17	14	13	18
25	6	17	14	13	18
26	15	27	22	31	33
27	14	84	85	86	87
28	15	69	68	79	81
29	16	4	5	31	22
29	17	4	5	31	22
29	18	4	5	31	22
30	15	66	65	68	79
31	14	3	4	5	31
32	15	12	10	5	31
33	15	21	19	22	31
34	15	4	5	10	12
35	15	73	68	79	81
36	15	40	39	38	46
37	23	43	40	41	83
38	14	14	13	19	20
39	1	10	13	14	15
39	2	10	13	14	15
39	3	10	13	14	15
39	4	10	13	14	15
40	15	8	6	5	31
41	16	13	19	22	31
41	17	13	19	22	31
41	18	13	19	22	31
42	15	4	5	10	11
43	19	43	40	39	45
44	15	4	5	31	32
45	15	6	5	31	33
46	15	69	68	73	78
47	15	67	65	68	79
48	28	41	40	39	45
48	29	41	40	39	45
49	19	92	85	84	93
50	15	67	65	68	69
51	15	55	53	56	65
52	15	21	19	22	27
53	7	13	14	15	37
53	8	13	14	15	37
54	15	66	65	68	73
55	21	15	37	38	39
55	22	15	37	38	39
56	15	26	23	22	31
57	15	6	5	10	11
58	15	86	85	84	93
59	16	13	19	22	27
59	17	13	19	22	27
59	18	13	19	22	27
60	19	52	51	79	80
61	16	4	5	10	13
61	17	4	5	10	13
61	18	4	5	10	13
62	19	45	39	38	47
63	15	54	53	56	65
64	20	14	15	37	38
65	15	59	57	56	65
66	7	1	48	50	82
66	8	1	48	50	82
67	14	37	38	39	40
68	30	40	41	83	84
69	15	61	56	65	66
70	14	65	68	73	74
71	15	53	56	65	66
72	19	42	40	39	45
73	15	26	23	22	27
74	15	19	22	31	33
75	16	6	5	10	13
75	17	6	5	10	13
75	18	6	5	10	13
76	31	75	74	73	78
77	28	87	86	85	91
77	29	87	86	85	91
78	15	4	5	6	9
79	1	48	50	51	53
79	2	48	50	51	53
79	3	48	50	51	53
79	4	48	50	51	53
80	15	11	10	5	31
81	19	52	51	53	54
82	19	52	51	53	55
83	16	56	65	68	79
83	17	56	65	68	79
83	18	56	65	68	79
84	15	65	68	69	71
85	16	56	65	68	69
85	17	56	65	68	69
85	18	56	65	68	69
86	28	83	84	85	92
86	29	83	84	85	92
87	23	41	83	84	94
88	15	23	22	31	32
89	15	60	57	56	61
90	15	4	5	31	33
91	14	14	13	19	21
92	15	31	5	4	35
93	14	14	13	19	22
94	15	57	56	65	66
95	5	53	51	50	82
95	6	53	51	50	82
96	15	61	56	65	67
97	15	65	68	79	81
98	16	51	53	56	61
98	17	51	53	56	61
98	18	51	53	56	61
99	28	37	38	39	45
99	29	37	38	39	45
100	19	52	51	79	81
101	15	52	51	79	68
102	15	24	23	22	31
103	15	65	68	69	70
104	31	68	73	74	75
105	28	87	86	85	92
105	29	87	86	85	92
106	16	56	65	68	73
106	17	56	65	68	73
106	18	56	65	68	73
107	13	3	1	48	50
108	15	53	56	61	62
109	15	66	65	68	69
110	15	69	68	73	77
111	15	55	53	56	57
112	23	41	83	84	85
113	16	51	53	56	65
113	17	51	53	56	65
113	18	51	53	56	65
114	15	28	27	22	31
115	19	18	13	19	21
116	15	6	5	4	35
117	15	18	13	19	22
118	15	67	65	68	73
119	7	36	3	1	48
119	8	36	3	1	48
120	7	1	48	50	51
120	8	1	48	50	51
121	15	10	5	4	34
122	15	24	23	22	27
123	5	5	4	3	36
123	6	5	4	3	36
124	15	54	53	56	57
125	15	78	73	68	79
126	19	44	39	38	47
127	15	19	22	27	28
128	11	49	48	50	82
128	12	49	48	50	82
129	15	62	61	56	65
130	15	4	5	6	7
131	19	18	13	19	20
132	28	41	40	39	44
132	29	41	40	39	44
133	15	65	68	79	80
134	5	1	3	4	35
134	6	1	3	4	35
135	15	23	22	31	33
136	15	31	5	4	34
137	5	17	14	13	19
137	6	17	14	13	19
138	31	75	74	73	77
139	16	51	79	68	69
139	17	51	79	68	69
139	18	51	79	68	69
140	15	53	56	57	60
141	11	2	1	3	36
141	12	2	1	3	36
142	15	57	56	61	62
143	15	20	19	22	31
144	15	52	51	53	56
145	23	41	83	84	93
146	24	16	15	14	17
146	25	16	15	14	17
147	14	11	10	13	14
148	19	11	10	13	18
149	15	84	85	86	89
150	19	42	40	39	44
151	16	51	79	68	65
151	17	51	79	68	65
151	18	51	79	68	65
152	32	73	74	75	76
153	15	6	5	4	34
154	16	51	79	68	73
154	17	51	79	68	73
154	18	51	79	68	73
155	15	53	56	57	59
156	5	15	14	13	18
156	6	15	14	13	18
157	7	13	14	15	16
157	8	13	14	15	16
158	14	38	39	40	41
159	15	19	22	23	24
160	15	53	51	79	81
161	15	20	19	22	27
162	16	53	51	79	68
162	17	53	51	79	68
162	18	53	51	79	68
163	15	55	53	51	79
164	16	51	53	56	57
164	17	51	53	56	57
164	18	51	53	56	57
165	15	53	56	65	67
166	15	38	39	40	43
167	15	60	57	56	65
168	15	54	53	51	79
169	14	83	84	85	86
170	15	19	22	27	29
171	15	70	69	68	79
172	14	12	10	13	14
173	5	34	4	3	36
173	6	34	4	3	36
174	13	2	1	48	49
175	19	12	10	13	18
176	5	1	3	4	34
176	6	1	3	4	34
177	15	20	19	22	23
178	14	50	51	79	80
179	14	5	10	13	14
180	28	37	38	39	44
180	29	37	38	39	44
181	15	63	61	56	65
182	15	5	10	13	18
183	15	72	69	68	79
184	35	88	87	86	89
185	19	90	86	85	91
186	15	65	68	73	78
187	19	91	85	84	94
188	19	92	85	84	94
189	15	38	39	40	42
190	19	89	86	85	91
191	15	57	56	65	67
192	16	61	56	65	68
192	17	61	56	65	68
192	18	61	56	65	68
193	23	15	37	38	47
194	16	13	10	5	31
194	17	13	10	5	31
194	18	13	10	5	31
195	15	11	10	13	19
196	15	53	51	79	80
197	16	53	56	65	68
197	17	53	56	65	68
197	18	53	56	65	68
198	14	69	68	73	74
199	15	70	69	68	73
200	15	30	27	22	31
201	15	23	22	27	28
202	19	43	40	39	44
203	16	10	5	31	22
203	17	10	5	31	22
203	18	10	5	31	22
204	14	3	4	5	6
205	14	50	51	53	54
206	7	17	14	15	37
206	8	17	14	15	37
207	14	50	51	53	55
208	15	72	69	68	73
209	15	19	22	23	25
210	19	90	86	85	92
211	35	88	87	86	90
212	15	10	13	19	21
213	15	53	56	61	63
214	15	73	68	79	80
215	15	10	5	31	32
216	16	10	13	19	22
216	17	10	13	19	22
216	18	10	13	19	22
217	15	29	27	22	31
218	19	44	39	38	46
219	15	9	6	5	31
220	15	12	10	13	19
221	15	40	39	38	47
222	15	25	23	22	31
223	14	50	51	79	81
224	14	50	51	79	68
225	16	57	56	65	68
225	17	57	56	65	68
225	18	57	56	65	68
226	19	45	39	38	46
227	16	5	31	22	23
227	17	5	31	22	23
227	18	5	31	22	23
228	1	48	50	51	79
228	2	48	50	51	79
228	3	48	50	51	79
228	4	48	50	51	79
229	33	85	86	87	88
229	34	85	86	87	88
230	16	5	10	13	19
230	17	5	10	13	19
230	18	5	10	13	19
231	15	19	22	31	32
232	9	2	1	3	4
232	10	2	1	3	4
233	15	4	5	6	8
234	5	52	51	50	82
234	6	52	51	50	82
235	15	10	13	19	20
236	15	57	56	61	64
237	5	10	13	14	17
237	6	10	13	14	17
238	15	25	23	22	27
239	15	7	6	5	10
240	15	55	53	56	61
241	15	9	6	5	10
242	15	58	57	56	61
243	15	23	22	27	29
244	15	6	5	10	12
245	7	4	3	1	48
245	8	4	3	1	48
246	19	91	85	84	93
247	15	54	53	56	61
248	9	49	48	50	51
248	10	49	48	50	51
249	15	59	57	56	61
250	15	27	22	31	32
251	15	65	68	73	77
252	14	74	73	68	79
253	15	57	56	61	63
254	15	19	22	23	26
255	14	3	4	5	10
256	15	84	85	86	90
257	28	83	84	85	91
257	29	83	84	85	91
258	16	6	5	31	22
258	17	6	5	31	22
258	18	6	5	31	22
259	15	58	57	56	65
260	15	77	73	68	79
261	5	79	51	50	82
261	6	79	51	50	82
262	15	10	5	31	33
263	15	69	68	79	80
264	15	71	69	68	79
265	15	8	6	5	10
266	15	86	85	84	94
267	23	39	40	41	83
268	14	50	51	53	56
269	15	21	19	22	23

Impropers

1	1	3	4	36	1
16	1	50	48	51	82
32	2	1	2	3	48
88	2	48	49	50	1
113	2	48	50	1	49
127	1	14	13	15	17
163	2	1	48	2	3
173	3	15	37	14	16
199	1	50	82	48	51
217	3	15	16	37	14
232	1	3	1	4	36
255	2	48	1	49	50
370	1	3	36	1	4
426	1	50	51	82	48
429	1	14	15	17	13
495	3	15	14	16	37
513	2	1	3	48	2
650	1	14	17	13	15
