Title

57 atoms
56 bonds
101 angles
167 dihedrals
12 impropers

8 atom types
11 bond types
5 angle types
27 dihedral types
2 improper types
-2.105000019 97.89499998 xlo xhi
-1.297000051 98.70299995 ylo yhi
-1.378000021 98.62199998 zlo zhi
0.0 0.0 0.0 xy xz yz

Masses

1	15.99943
2	12.01078
3	1.007947
4	1.007947
5	12.01078
6	15.99943
7	15.99943
8	1.007947


Pair Coeffs

1	0.16846514	3.0251065
2	0.10884061	3.3795318
3	0.016409246	2.5832257
4	0.015779483	2.6445434
5	0.086879315	3.4806469
6	0.2102061	3.0398122
7	0.20947353	2.99716
8	1.2326e-05	0.53453923

Bond Coeffs

1 harmonic	366.7408841747	1.425895053732
2 harmonic	300.03137914615	1.451203938761
3 harmonic	264.62148576755	1.52190126495
4 harmonic	370.04670688625	1.093899492634
5 harmonic	301.15400723785	1.345741232799
6 harmonic	582.698766451	1.225198386222
7 harmonic	329.44145381095	1.523435958334
8 harmonic	279.1350963404	1.454628925034
9 harmonic	329.96998057905	1.427343958716
10 harmonic	543.5267831885	0.9716763312559
11 harmonic	385.7604595587	1.369745182308


Angle Coeffs

1 harmonic	53.20531626545	116.5475862634
2 harmonic	65.09061609600001	110.3538806181
3 harmonic	201.41175231035	127.4691416191
4 harmonic	57.8982893754	126.8062420451
5 harmonic	48.776492647595	115.6030999533


Dihedral Coeffs

1 fourier 1	0.1155372516788	3	0
2 fourier 1	0.1115525666802	3	0
3 fourier 1	0.3432490222662	1	0
4 fourier 1	0.0473758381877	3	0
5 fourier 1	0.457973137376	1	0
6 fourier 1	0.1040663847541	3	0
7 fourier 1	0.1918272375143	3	0
8 fourier 1	0.9202179876409	1	180
9 fourier 1	1.163809172478	2	180
10 fourier 1	0.1679186987369	1	180
11 fourier 1	2.779853741805	2	180
12 fourier 1	0.02664938770063	3	0
13 fourier 1	0.1911926717192	3	0
14 fourier 1	-0.3703352413219	2	0
15 fourier 1	0.4541676554336	1	0
16 fourier 1	0.1489710476446	2	0
17 fourier 1	0.02960027280666	3	180
18 fourier 1	0.09223874044423	3	0
19 fourier 1	0.3159935921949	2	180
20 fourier 1	0.3247796806857	1	180
21 fourier 1	0.9974165607242	2	180
22 fourier 1	0.3445382149273	3	0
23 fourier 1	0.1364556373303	1	0
24 fourier 1	0.3026390167484	3	0
25 fourier 1	2.687457892086	2	180
26 fourier 1	2.772607909663	2	180
27 fourier 1	0.09692684957115	1	0


Improper Coeffs

1 3.5	-1	2
2 0.3666666666666667	-1	2


Atoms

1	1	1	-0.17807899	-1.834	0.66500002	-0.51800001
2	1	2	0.040878002	-1.288	-0.54500002	-0.064999998
3	1	2	-0.13552099	0.113	-0.331	0.51700002
4	1	2	0.14587	1.099	0.17299999	-0.54100001
5	1	1	-0.49427399	2.3800001	0.29899999	0.012
6	1	3	0.080020003	0.76099998	1.15	-0.95499998
7	1	3	0.080020003	1.149	-0.55599999	-1.378
8	1	4	0.092398003	0.48199999	-1.2970001	0.926
9	1	4	0.092398003	0.057	0.39899999	1.354
10	1	3	0.082124002	-1.949	-0.99699998	0.70999998
11	1	3	0.082124002	-1.2359999	-1.258	-0.91600001
12	1	5	0.76250899	2.3710001	1.164	0.58899999
13	1	6	-0.55071902	1.354	1.837	0.63700002
14	1	2	-0.20913801	3.586	1.589	1.359
15	1	2	-0.112833	4.744	0.60399997	1.158
16	1	2	-0.091990001	5.9829998	1.044	1.946
17	1	2	-0.25734299	7.1409998	0.059	1.7460001
18	1	5	0.51771897	8.3559999	0.48500001	2.5150001
19	1	6	-0.68101197	9.3730001	-0.18799999	2.4679999
20	1	4	0.114513	6.8340001	-0.95200002	2.0910001
21	1	4	0.114513	7.401	0.0040000002	0.667
22	1	4	0.076049998	5.7309999	1.098	3.029
23	1	4	0.076049998	6.2979999	2.0550001	1.604
24	1	4	0.084991001	4.4289999	-0.40700001	1.5
25	1	4	0.084991001	4.9959998	0.55000001	0.075999998
26	1	4	0.11788	3.326	1.6440001	2.438
27	1	4	0.11788	3.8929999	2.6010001	1.0140001
28	1	1	-0.177351	-2.105	1.174	0.28999999
29	1	2	0.049295001	-1.397	2.3840001	0.25799999
30	1	2	-0.170763	0.071999997	2.1700001	0.639
31	1	2	0.096166998	0.22	1.666	2.0780001
32	1	7	-0.68461001	1.576	1.54	2.4100001
33	1	8	0.379246	1.901	0.71399999	1.965
34	1	3	0.074516997	-0.29899999	0.68800002	2.2049999
35	1	3	0.074516997	-0.24600001	2.395	2.776
36	1	4	0.096240997	0.61299998	3.135	0.53500003
37	1	4	0.096240997	0.53299999	1.4400001	-0.061999999
38	1	3	0.081970997	-1.456	2.836	-0.75800002
39	1	3	0.081970997	-1.868	3.0969999	0.96799999
40	1	5	0.51771897	8.3459997	1.387	3.118
41	1	6	-0.68101197	8.1000004	1.312	4.3109999
42	1	2	-0.25734299	8.6149998	2.717	2.4790001
43	1	2	-0.091990001	9.908	3.3340001	3.0220001
44	1	2	-0.110309	10.2	4.6820002	2.345
45	1	2	-0.219147	11.454	5.3590002	2.914
46	1	5	0.82474399	12.7	4.6090002	2.556
47	1	6	-0.55197603	13.2	4.7280002	1.405
48	1	7	-0.66452199	13.289	3.7579999	3.4849999
49	1	8	0.39544499	14.124	3.234	3.2539999
50	1	4	0.118912	11.372	5.4460001	4.0190001
51	1	4	0.118912	11.526	6.3889999	2.5020001
52	1	4	0.084991001	9.335	5.362	2.5079999
53	1	4	0.084991001	10.317	4.539	1.248
54	1	4	0.076049998	9.8120003	3.4879999	4.119
55	1	4	0.076049998	10.751	2.6340001	2.835
56	1	4	0.114513	8.7049999	2.573	1.38
57	1	4	0.114513	7.756	3.3940001	2.675

Bonds

1	1	1	2
2	2	1	28
3	3	2	3
4	4	2	10
5	4	2	11
6	3	3	4
7	4	3	8
8	4	3	9
9	1	4	5
10	4	4	6
11	4	4	7
12	5	5	12
13	6	12	13
14	7	12	14
15	3	14	15
16	4	14	26
17	4	14	27
18	3	15	16
19	4	15	24
20	4	15	25
21	3	16	17
22	4	16	22
23	4	16	23
24	7	17	18
25	4	17	20
26	4	17	21
27	6	18	19
28	8	18	40
29	1	28	29
30	3	29	30
31	4	29	38
32	4	29	39
33	3	30	31
34	4	30	36
35	4	30	37
36	9	31	32
37	4	31	34
38	4	31	35
39	10	32	33
40	6	40	41
41	7	40	42
42	3	42	43
43	4	42	56
44	4	42	57
45	3	43	44
46	4	43	54
47	4	43	55
48	3	44	45
49	4	44	52
50	4	44	53
51	7	45	46
52	4	45	50
53	4	45	51
54	6	46	47
55	11	46	48
56	10	48	49

Angles

1	1	45	44	53
2	1	17	16	22
3	1	42	43	55
4	1	30	29	38
5	1	42	43	44
6	4	45	46	47
7	5	50	45	51
8	1	30	31	32
9	1	1	2	11
10	4	13	12	14
11	4	18	40	42
12	1	12	14	15
13	1	29	30	36
14	5	56	42	57
15	1	15	14	27
16	1	18	17	20
17	4	19	18	40
18	1	32	31	35
19	1	31	30	36
20	1	30	29	39
21	1	43	44	52
22	1	2	3	9
23	5	34	31	35
24	1	15	16	23
25	2	4	5	12
26	2	31	32	33
27	1	16	15	25
28	1	3	4	6
29	1	29	30	37
30	4	17	18	40
31	1	31	30	37
32	1	28	29	39
33	1	2	3	4
34	1	40	42	43
35	1	16	17	21
36	2	2	1	28
37	1	44	43	54
38	1	44	45	50
39	1	43	44	45
40	1	5	4	7
41	1	44	45	46
42	5	20	17	21
43	1	17	16	23
44	2	46	48	49
45	4	45	46	48
46	1	16	17	18
47	1	44	45	51
48	5	52	44	53
49	1	4	3	8
50	1	40	42	56
51	1	15	16	17
52	1	18	17	21
53	1	43	44	53
54	1	30	31	34
55	1	3	2	11
56	5	10	2	11
57	1	46	45	50
58	1	1	2	10
59	5	54	43	55
60	5	22	16	23
61	5	26	14	27
62	1	44	43	55
63	1	43	42	56
64	3	47	46	48
65	1	45	44	52
66	1	42	43	54
67	1	14	15	16
68	5	36	30	37
69	1	3	4	5
70	4	18	40	41
71	5	24	15	25
72	1	1	2	3
73	1	3	4	7
74	1	15	14	26
75	1	43	42	57
76	2	1	28	29
77	1	32	31	34
78	3	5	12	13
79	1	2	3	8
80	1	15	16	22
81	1	3	2	10
82	1	4	3	9
83	1	29	30	31
84	1	40	42	57
85	1	12	14	26
86	1	14	15	24
87	4	41	40	42
88	1	5	4	6
89	1	16	15	24
90	5	38	29	39
91	5	8	3	9
92	1	28	29	38
93	4	5	12	14
94	4	17	18	19
95	1	16	17	20
96	1	30	31	35
97	1	12	14	27
98	1	14	15	25
99	1	46	45	51
100	5	6	4	7
101	1	28	29	30

Dihedrals

1	21	19	18	40	41
2	6	14	15	16	22
3	13	21	17	16	23
4	22	30	31	32	33
4	23	30	31	32	33
5	13	6	4	3	8
6	9	4	5	12	13
6	10	4	5	12	13
7	13	8	3	2	11
8	13	52	44	43	55
9	14	16	17	18	19
10	15	41	40	42	57
10	16	41	40	42	57
10	17	41	40	42	57
11	6	4	3	2	10
12	1	12	14	15	25
13	13	25	15	14	26
14	1	1	2	3	4
15	6	14	15	16	23
16	12	21	17	18	40
17	12	16	17	18	40
18	13	36	30	29	39
19	11	4	5	12	14
20	13	34	31	30	37
21	6	45	44	43	54
22	6	31	30	29	39
23	13	53	44	43	55
24	4	7	4	5	12
25	2	5	4	3	9
25	3	5	4	3	9
26	1	29	30	31	32
27	12	5	12	14	26
28	13	50	45	44	52
29	4	11	2	1	28
30	2	32	31	30	36
30	3	32	31	30	36
31	21	17	18	40	41
32	6	42	43	44	52
33	13	25	15	14	27
34	2	28	29	30	37
34	3	28	29	30	37
35	6	2	3	4	6
36	6	45	44	43	55
37	1	18	17	16	22
38	12	18	40	42	57
39	1	40	42	43	54
40	12	5	12	14	27
41	13	24	15	14	26
42	6	43	44	45	51
43	13	20	17	16	22
44	6	42	43	44	53
45	1	15	16	17	18
46	13	51	45	44	53
47	13	55	43	42	57
48	6	17	16	15	24
49	24	33	32	31	34
50	21	19	18	40	42
51	13	7	4	3	8
52	2	1	2	3	8
52	3	1	2	3	8
53	13	6	4	3	9
54	13	20	17	16	23
55	18	42	43	44	45
55	19	42	43	44	45
55	20	42	43	44	45
56	15	19	18	17	20
56	16	19	18	17	20
56	17	19	18	17	20
57	15	47	46	45	50
57	16	47	46	45	50
57	17	47	46	45	50
58	12	5	12	14	15
59	24	33	32	31	35
60	1	2	3	4	5
61	25	45	46	48	49
62	13	37	30	29	38
63	13	35	31	30	36
64	4	6	4	5	12
65	13	9	3	2	10
66	6	2	3	4	7
67	6	16	15	14	26
68	13	50	45	44	53
69	4	10	2	1	28
70	1	28	29	30	31
71	13	8	3	2	10
72	2	32	31	30	37
72	3	32	31	30	37
73	21	17	18	40	42
74	6	4	3	2	11
75	6	44	43	42	56
76	4	1	28	29	30
77	1	18	17	16	23
78	1	40	42	43	55
79	6	29	30	31	34
80	13	24	15	14	27
81	13	54	43	42	56
82	6	16	15	14	27
83	13	21	17	16	22
84	13	52	44	43	54
85	12	18	40	42	43
86	18	14	15	16	17
86	19	14	15	16	17
86	20	14	15	16	17
87	6	17	16	15	25
88	4	1	28	29	38
89	1	12	14	15	24
90	13	54	43	42	57
91	13	7	4	3	9
92	2	1	2	3	9
92	3	1	2	3	9
93	13	36	30	29	38
94	12	48	46	45	50
95	13	34	31	30	36
96	13	53	44	43	54
97	6	31	30	29	38
98	1	46	45	44	52
99	14	41	40	42	43
100	26	47	46	48	49
100	27	47	46	48	49
101	2	5	4	3	8
101	3	5	4	3	8
102	12	20	17	18	40
103	6	15	16	17	20
104	15	19	18	17	21
104	16	19	18	17	21
104	17	19	18	17	21
105	13	22	16	15	24
106	15	47	46	45	51
106	16	47	46	45	51
106	17	47	46	45	51
107	15	13	12	14	26
107	16	13	12	14	26
107	17	13	12	14	26
108	5	2	1	28	29
109	7	3	4	5	12
109	8	3	4	5	12
110	4	1	28	29	39
111	14	13	12	14	15
112	13	37	30	29	39
113	13	35	31	30	37
114	2	28	29	30	36
114	3	28	29	30	36
115	14	44	45	46	47
116	13	23	16	15	24
117	1	12	14	15	16
118	12	48	46	45	51
119	12	18	40	42	56
120	1	46	45	44	53
121	6	15	16	17	21
122	1	40	42	43	44
123	13	22	16	15	25
124	6	43	44	45	50
125	15	13	12	14	27
125	16	13	12	14	27
125	17	13	12	14	27
126	4	3	2	1	28
127	12	44	45	46	48
128	6	44	43	42	57
129	13	23	16	15	25
130	13	51	45	44	52
131	15	41	40	42	56
131	16	41	40	42	56
131	17	41	40	42	56
132	13	55	43	42	56
133	1	43	44	45	46
134	13	9	3	2	11
135	6	29	30	31	35

Impropers

7	2	18	19	40	17
28	1	46	45	47	48
43	2	40	41	42	18
150	2	18	40	17	19
166	2	40	42	18	41
168	2	40	18	41	42
211	2	18	17	19	40
214	1	12	13	14	5
230	1	12	5	13	14
266	1	46	48	45	47
294	1	12	14	5	13
325	1	46	47	48	45
