Title

225 atoms
244 bonds
401 angles
623 dihedrals
360 impropers

10 atom types
14 bond types
9 angle types
19 dihedral types
3 improper types
-11.92599964 88.07400036 xlo xhi
-7.484000206 92.51599979 ylo yhi
-4.276000023 95.72399998 zlo zhi
0.0 0.0 0.0 xy xz yz

Masses

1	14.00672
2	12.01078
3	1.007947
4	15.99943
5	12.01078
6	1.007947
7	18.998403
8	15.99943
9	15.99943
10	1.007947


Pair Coeffs

1	0.16769152	3.206876
2	0.086879315	3.4806469
3	0.015611343	2.5725815
4	0.16846514	3.0251065
5	0.10884061	3.3795318
6	0.014090815	1.1034277
7	0.061	3.1181455
8	0.2102061	3.0398122
9	0.20947353	2.99716
10	1.2326e-05	0.53453923

Bond Coeffs

1 harmonic	390.03554688505	1.390160554689
2 harmonic	505.144496193	1.019481865027
3 harmonic	422.7150220147	1.421786517481
4 harmonic	360.7852444772	1.387193227181
5 harmonic	397.2545789619	1.085358495916
6 harmonic	279.1350963404	1.454628925034
7 harmonic	425.69104206635	1.362945806494
8 harmonic	289.73813263395	1.498646816465
9 harmonic	352.0565580496	1.450098586273
10 harmonic	492.76746816345	1.381897776683
11 harmonic	340.45121009905	1.358690858053
12 harmonic	582.698766451	1.225198386222
13 harmonic	385.7604595587	1.369745182308
14 harmonic	543.5267831885	0.9716763312559


Angle Coeffs

1 harmonic	57.8982893754	126.8062420451
2 harmonic	55.42182150775	117.3465570514
3 harmonic	63.44422595415	115.5071327674
4 harmonic	34.066775159195	129.1835929926
5 harmonic	65.09061609600001	110.3538806181
6 harmonic	53.20531626545	116.5475862634
7 harmonic	14.32262199324	138.3184368373
8 harmonic	39.628116874445	129.8027304608
9 harmonic	201.41175231035	127.4691416191


Dihedral Coeffs

1 fourier 1	3.661930099076	2	180
2 fourier 1	1.193093382682	2	180
3 fourier 1	0.02021088501612	1	0
4 fourier 1	1.163235555439	2	180
5 fourier 1	1.532232714475	2	180
6 fourier 1	0.02664938770063	3	0
7 fourier 1	-0.6891728821899999	2	180
8 fourier 1	0.2727846432367	1	0
9 fourier 1	1.57666786751	2	180
10 fourier 1	3.101948770557	2	180
11 fourier 1	-0.4252153282372	1	0
12 fourier 1	1.809047390003	2	180
13 fourier 1	-0.04816277792592	1	0
14 fourier 1	0.9974165607242	2	180
15 fourier 1	2.348375642009	2	180
16 fourier 1	1.256156174911	1	0
17 fourier 1	2.687457892086	2	180
18 fourier 1	2.772607909663	2	180
19 fourier 1	0.09692684957115	1	0


Improper Coeffs

1 0.3666666666666667	-1	2
2 0.3333333333333333	-1	2
3 3.5	-1	2


Atoms

1	1	1	-0.41150099	-11.091	5.553	1.375
2	1	2	0.12759399	-9.9469995	4.915	0.80299997
3	1	2	-0.40580201	-9.927	3.585	0.62400001
4	1	3	0.22244	-10.778	2.98	0.91399997
5	1	2	-0.112876	-8.7320004	2.9260001	0.052999999
6	1	3	0.20459101	-8.7370005	1.847	-0.037
7	1	2	-0.12723	-7.6529999	3.6470001	-0.301
8	1	2	-0.133488	-6.4310002	2.9779999	-0.81800002
9	1	2	-0.127867	-5.2090001	3.3800001	-0.41299999
10	1	3	0.207873	-5.0939999	4.1919999	0.28999999
11	1	2	-0.29486999	-4.0009999	2.6889999	-0.89200002
12	1	3	0.225188	-3.03	3.007	-0.53500003
13	1	2	0.33034101	-4.1040001	1.653	-1.735
14	1	4	-0.27079701	-2.9519999	0.97500002	-2.131
15	1	2	0.26630601	-2.3	0.021	-1.335
16	1	2	-0.291778	-2.8659999	-0.50999999	-0.236
17	1	3	0.23205601	-3.8570001	-0.221	0.082999997
18	1	2	-0.15517899	-2.148	-1.524	0.55900002
19	1	3	0.219312	-2.6600001	-1.949	1.409
20	1	2	-0.144949	-0.88999999	-1.8940001	0.236
21	1	5	0.190428	-0.131	-2.9590001	1.048
22	1	2	-0.144949	1.387	-2.723	1.0650001
23	1	2	-0.15517899	2.2590001	-3.743	1.211
24	1	3	0.219312	1.918	-4.7639999	1.295
25	1	2	-0.291778	3.714	-3.494	1.274
26	1	3	0.23205601	4.3990002	-4.3330002	1.3099999
27	1	2	0.26630601	4.1859999	-2.2420001	1.2539999
28	1	4	-0.27079701	5.5700002	-2.033	1.276
29	1	2	0.33034101	6.1630001	-0.83499998	0.86199999
30	1	2	-0.29486999	6.8610001	-0.119	1.753
31	1	3	0.225188	6.9809999	-0.48100001	2.7650001
32	1	2	-0.127867	7.4050002	1.2029999	1.3940001
33	1	3	0.207873	7.9590001	1.757	2.1440001
34	1	2	-0.133488	7.2179999	1.7029999	0.162
35	1	2	-0.12723	7.7150002	3.0539999	-0.191
36	1	2	-0.126936	8.2810001	3.286	-1.393
37	1	3	0.20459101	8.415	2.484	-2.1099999
38	1	2	-0.373799	8.7510004	4.6399999	-1.751
39	1	3	0.21886601	9.1990004	4.8010001	-2.723
40	1	2	0.199818	8.6000004	5.658	-0.889
41	1	1	-0.53173703	9.0229998	6.9759998	-1.247
42	1	6	0.31996101	9.4639997	7.1719999	-2.1719999
43	1	2	-0.373799	7.9790001	5.4130001	0.43200001
44	1	3	0.21886601	7.8590002	6.2280002	1.132
45	1	2	-0.126936	7.5689998	4.1830001	0.76700002
46	1	3	0.20459101	7.1059999	4.0229998	1.732
47	1	2	-0.055342	6.4879999	0.889	-0.847
48	1	3	0.206885	6.3499999	1.289	-1.8430001
49	1	2	-0.32108599	6.0219998	-0.33899999	-0.54500002
50	1	5	0.76713902	5.3410001	-1.169	-1.614
51	1	7	-0.206553	5.54	-2.5179999	-1.383
52	1	7	-0.206553	5.8530002	-0.87800002	-2.868
53	1	7	-0.206553	3.9849999	-0.89999998	-1.615
54	1	2	-0.291778	3.233	-1.1059999	1.2460001
55	1	3	0.23205601	3.596	-0.088	1.323
56	1	2	-0.15517899	1.92	-1.332	1.166
57	1	3	0.219312	1.247	-0.486	1.1849999
58	1	2	0.086792	-0.58399999	-3.0179999	2.5009999
59	1	2	-0.050198	-0.53500003	-2.0669999	3.444
60	1	3	0.217104	-0.13500001	-1.084	3.2320001
61	1	2	-0.26609299	-1.061	-2.3870001	4.7979999
62	1	3	0.223115	-1.039	-1.633	5.573
63	1	2	-0.25065801	-1.58	-3.6040001	5.0580001
64	1	3	0.214561	-1.9630001	-3.8329999	6.0419998
65	1	2	0.0088280002	-1.628	-4.6399999	3.9979999
66	1	3	0.22054499	-2.046	-5.6209998	4.1900001
67	1	2	-0.236274	-1.1390001	-4.322	2.802
68	1	2	0.68630099	-1.064	-5.0910001	1.594
69	1	8	-0.551952	-1.4630001	-6.2779999	1.461
70	1	1	-0.44887099	-0.48699999	-4.3140001	0.54400003
71	1	2	0.205835	-0.207	-4.8569999	-0.76200002
72	1	2	-0.339908	-0.81099999	-4.3629999	-1.862
73	1	3	0.207131	-1.5369999	-3.5669999	-1.788
74	1	2	-0.164152	-0.53399998	-4.948	-3.191
75	1	3	0.232733	-0.99400002	-4.5180001	-4.0689998
76	1	2	-0.2617	0.271	-6.0110002	-3.303
77	1	3	0.227485	0.46799999	-6.4419999	-4.276
78	1	2	-0.164152	0.88800001	-6.6030002	-2.0940001
79	1	3	0.232732	1.513	-7.4840002	-2.178
80	1	2	-0.339908	0.65600002	-6.0609999	-0.88999999
81	1	3	0.207131	1.0779999	-6.52	-0.0089999996
82	1	2	-0.15517899	-0.28799999	-1.325	-1.01
83	1	3	0.219312	0.68199998	-1.664	-1.354
84	1	2	-0.291778	-0.95300001	-0.42300001	-1.739
85	1	3	0.23205601	-0.50800002	-0.026000001	-2.6429999
86	1	2	-0.32108599	-5.4390001	1.2180001	-2.2320001
87	1	5	0.76713902	-5.5479999	0.022	-3.151
88	1	7	-0.206553	-4.552	0.061000001	-4.1110001
89	1	7	-0.206553	-5.4029999	-1.135	-2.408
90	1	7	-0.206553	-6.7680001	-0.016000001	-3.802
91	1	2	-0.055342	-6.54	1.837	-1.767
92	1	3	0.206885	-7.5229998	1.512	-2.0780001
93	1	2	-0.112876	-7.6890001	5.125	-0.118
94	1	3	0.20459101	-6.8390002	5.7340002	-0.40900001
95	1	2	-0.40580201	-8.7690001	5.7199998	0.40400001
96	1	3	0.22244	-8.7770004	6.7969999	0.542
97	1	6	0.37337801	-11.926	5.0009999	1.66
98	1	2	0.76804203	8.8610001	7.7870002	-0.579
99	1	8	-0.65657699	9.8479996	8.4799995	-0.212
100	1	2	-0.353719	7.4980001	8.0799999	-0.1
101	1	2	-0.074004002	7.2529998	9.0979996	0.74599999
102	1	3	0.22345801	8.0539999	9.7340002	1.103
103	1	2	-0.242852	5.8769999	9.3660002	1.2079999
104	1	3	0.21390501	5.6900001	10.187	1.8890001
105	1	2	-0.021723	4.8639998	8.6000004	0.78799999
106	1	3	0.22300901	3.8599999	8.8100004	1.135
107	1	2	-0.292687	5.1160002	7.474	-0.146
108	1	2	0.58808202	4.006	6.6240001	-0.61400002
109	1	8	-0.52400202	2.825	6.8369999	-0.23199999
110	1	2	0.056995999	6.3709998	7.2329998	-0.56400001
111	1	3	0.240584	6.572	6.414	-1.245
112	1	1	-0.41150099	-11.11	6.5840001	1.508
113	1	2	0.12759399	-10.168	7.223	2.3740001
114	1	2	-0.40580201	-10.199	8.552	2.552
115	1	3	0.22244	-10.936	9.1569996	2.0380001
116	1	2	-0.112876	-9.2069998	9.2119999	3.4300001
117	1	3	0.20459101	-9.2370005	10.29	3.516
118	1	2	-0.12723	-8.2679996	8.4899998	4.0689998
119	1	2	-0.133488	-7.2360001	9.1590004	4.9029999
120	1	2	-0.127867	-5.9499998	8.7580004	4.8509998
121	1	3	0.207873	-5.6459999	7.9450002	4.2069998
122	1	2	-0.29486999	-4.921	9.448	5.645
123	1	3	0.225188	-3.8900001	9.1309996	5.5700002
124	1	2	0.33034101	-5.2529998	10.484	6.4260001
125	1	4	-0.27079701	-4.2550001	11.163	7.1259999
126	1	2	0.26630601	-3.408	12.117	6.54
127	1	2	-0.291778	-3.6489999	12.648	5.3270001
128	1	3	0.23205601	-4.5139999	12.358	4.7470002
129	1	2	-0.15517899	-2.7390001	13.661	4.7620001
130	1	3	0.219312	-2.997	14.086	3.803
131	1	2	-0.144949	-1.619	14.031	5.4200001
132	1	5	0.190428	-0.66600001	15.096	4.849
133	1	2	-0.144949	0.79799998	14.86	5.2509999
134	1	2	-0.15517899	1.676	15.881	5.3520002
135	1	3	0.219312	1.372	16.900999	5.177
136	1	2	-0.291778	3.092	15.631	5.6929998
137	1	3	0.23205601	3.76	16.471001	5.848
138	1	2	0.26630601	3.54	14.38	5.8429999
139	1	4	-0.27079701	4.8769999	14.171	6.2030001
140	1	2	0.33034101	5.3319998	12.972	6.7649999
141	1	2	-0.29486999	6.2490001	12.257	6.1009998
142	1	3	0.225188	6.6430001	12.618	5.1609998
143	1	2	-0.127867	6.6719999	10.934	6.5960002
144	1	3	0.207873	7.4120002	10.381	6.0289998
145	1	2	-0.133488	6.1529999	10.435	7.7290001
146	1	2	-0.12723	6.533	9.0830002	8.2060003
147	1	2	-0.076177001	6.7449999	8.8509998	9.5170002
148	1	3	0.20459101	6.6760001	9.6529999	10.243
149	1	2	-0.44997999	7.098	7.4970002	9.9910002
150	1	3	0.231003	7.2610002	7.336	11.048
151	1	2	0.31967899	7.191	6.4790001	9.1210003
152	1	1	-0.844248	7.4980001	5.1609998	9.5810003
153	1	6	0.36723101	7.527	4.3660002	8.908
154	1	6	0.36723101	7.6669998	4.9650002	10.592
155	1	2	-0.44997999	6.9590001	6.724	7.6799998
156	1	3	0.231003	7.0359998	5.9089999	6.974
157	1	2	-0.076177001	6.6570001	7.9549999	7.2449999
158	1	3	0.20459101	6.4790001	8.1140003	6.1890001
159	1	2	-0.055342	5.1719999	11.249	8.4969997
160	1	3	0.206885	4.7649999	10.849	9.4169998
161	1	2	-0.32108599	4.8080001	12.476	8.0780001
162	1	5	0.76713902	3.859	13.307	8.9180002
163	1	7	-0.206553	4.1139998	14.656	8.75
164	1	7	-0.206553	4.0040002	13.015	10.264
165	1	7	-0.206553	2.5539999	13.037	8.5439997
166	1	2	-0.291778	2.622	13.244	5.5869999
167	1	3	0.23205601	2.9920001	12.225	5.6129999
168	1	2	-0.15517899	1.3380001	13.469	5.302
169	1	3	0.219312	0.69599998	12.624	5.0970001
170	1	2	0.086792	-0.70099998	15.155	3.3269999
171	1	2	-0.050198	-0.39300001	14.204	2.434
172	1	3	0.217104	-0.067000002	13.221	2.7490001
173	1	2	-0.26609299	-0.52499998	14.525	0.98799998
174	1	3	0.223115	-0.28999999	13.77	0.249
175	1	2	-0.25065801	-0.95200002	15.741	0.59399998
176	1	3	0.214561	-1.048	15.971	-0.45699999
177	1	2	0.0088280002	-1.291	16.778	1.6
178	1	3	0.22054499	-1.6390001	17.757999	1.3
179	1	2	-0.236274	-1.15	16.459999	2.8840001
180	1	2	0.68630099	-1.4119999	17.229	4.066
181	1	8	-0.551952	-1.832	18.415001	4.0840001
182	1	1	-0.44887099	-1.147	16.451	5.2350001
183	1	2	0.205835	-1.239	16.995001	6.5679998
184	1	2	-0.339908	-2.1229999	16.500999	7.4580002
185	1	3	0.207131	-2.8010001	15.704	7.1859999
186	1	2	-0.164152	-2.223	17.084999	8.8109999
187	1	3	0.232733	-2.908	16.656	9.5290003
188	1	2	-0.2617	-1.48	18.148001	9.1420002
189	1	3	0.227485	-1.5599999	18.58	10.131
190	1	2	-0.164152	-0.55400002	18.74	8.1499996
191	1	3	0.232732	0.024	19.622	8.4040003
192	1	2	-0.339908	-0.44400001	18.198	6.9289999
193	1	3	0.207131	0.204	18.657	6.198
194	1	2	-0.15517899	-1.385	13.462	6.783
195	1	3	0.219312	-0.54799998	13.801	7.382
196	1	2	-0.291778	-2.2249999	12.561	7.3010001
197	1	3	0.23205601	-2.0469999	12.164	8.2919998
198	1	2	-0.32108599	-6.6729999	10.919	6.5359998
199	1	5	0.76713902	-7.0310001	12.116	7.3889999
200	1	7	-0.206553	-6.3400002	12.076	8.5869999
201	1	7	-0.206553	-6.6869998	13.272	6.7150002
202	1	7	-0.206553	-8.3839998	12.153	7.678
203	1	2	-0.055342	-7.6030002	10.301	5.7849998
204	1	3	0.206885	-8.6330004	10.625	5.8119998
205	1	2	-0.112876	-8.2519999	7.013	3.8829999
206	1	3	0.20459101	-7.5159998	6.4039998	4.3969998
207	1	2	-0.40580201	-9.1459999	6.4169998	3.0829999
208	1	3	0.22244	-9.1160002	5.3410001	2.948
209	1	6	0.37337801	-11.834	7.1360002	1.0039999
210	1	2	0.58808202	4.197	5.8049998	-1.295
211	1	8	-0.52400202	4.698	6.0539999	-2.4230001
212	1	2	-0.28817701	3.8670001	4.4250002	-0.889
213	1	2	-0.021723	4.0890002	3.381	-1.707
214	1	3	0.22300901	4.5180001	3.5220001	-2.6919999
215	1	2	-0.244003	3.7479999	2.0120001	-1.273
216	1	3	0.21390501	3.931	1.178	-1.939
217	1	2	-0.059765	3.217	1.801	-0.064000003
218	1	3	0.233913	2.974	0.79000002	0.237
219	1	2	-0.21803799	2.964	2.9400001	0.85399997
220	1	2	0.83904999	2.3759999	2.691	2.1889999
221	1	8	-0.48607901	2.154	3.6459999	2.9820001
222	1	9	-0.66484702	2.0610001	1.392	2.5799999
223	1	10	0.41837299	1.658	1.206	3.4909999
224	1	2	0.073748998	3.277	4.1880002	0.45100001
225	1	3	0.25065801	3.1029999	5.0359998	1.102

Bonds

1	1	1	2
2	2	1	97
3	3	1	112
4	4	2	3
5	4	2	95
6	5	3	4
7	4	3	5
8	5	5	6
9	4	5	7
10	6	7	8
11	4	7	93
12	4	8	9
13	4	8	91
14	5	9	10
15	4	9	11
16	5	11	12
17	4	11	13
18	7	13	14
19	4	13	86
20	7	14	15
21	4	15	16
22	4	15	84
23	5	16	17
24	4	16	18
25	5	18	19
26	4	18	20
27	8	20	21
28	4	20	82
29	8	21	22
30	8	21	58
31	9	21	70
32	4	22	23
33	4	22	56
34	5	23	24
35	4	23	25
36	5	25	26
37	4	25	27
38	7	27	28
39	4	27	54
40	7	28	29
41	4	29	30
42	4	29	49
43	5	30	31
44	4	30	32
45	5	32	33
46	4	32	34
47	6	34	35
48	4	34	47
49	4	35	36
50	4	35	45
51	5	36	37
52	4	36	38
53	5	38	39
54	4	38	40
55	1	40	41
56	4	40	43
57	2	41	42
58	10	41	98
59	5	43	44
60	4	43	45
61	5	45	46
62	5	47	48
63	4	47	49
64	8	49	50
65	11	50	51
66	11	50	52
67	11	50	53
68	5	54	55
69	4	54	56
70	5	56	57
71	4	58	59
72	4	58	67
73	5	59	60
74	4	59	61
75	5	61	62
76	4	61	63
77	5	63	64
78	4	63	65
79	5	65	66
80	4	65	67
81	6	67	68
82	12	68	69
83	10	68	70
84	1	70	71
85	4	71	72
86	4	71	80
87	5	72	73
88	4	72	74
89	5	74	75
90	4	74	76
91	5	76	77
92	4	76	78
93	5	78	79
94	4	78	80
95	5	80	81
96	5	82	83
97	4	82	84
98	5	84	85
99	8	86	87
100	4	86	91
101	11	87	88
102	11	87	89
103	11	87	90
104	5	91	92
105	5	93	94
106	4	93	95
107	5	95	96
108	12	98	99
109	6	98	100
110	4	100	101
111	4	100	110
112	5	101	102
113	4	101	103
114	5	103	104
115	4	103	105
116	5	105	106
117	4	105	107
118	6	107	108
119	4	107	110
120	12	108	109
121	6	108	210
122	5	110	111
123	1	112	113
124	2	112	209
125	4	113	114
126	4	113	207
127	5	114	115
128	4	114	116
129	5	116	117
130	4	116	118
131	6	118	119
132	4	118	205
133	4	119	120
134	4	119	203
135	5	120	121
136	4	120	122
137	5	122	123
138	4	122	124
139	7	124	125
140	4	124	198
141	7	125	126
142	4	126	127
143	4	126	196
144	5	127	128
145	4	127	129
146	5	129	130
147	4	129	131
148	8	131	132
149	4	131	194
150	8	132	133
151	8	132	170
152	9	132	182
153	4	133	134
154	4	133	168
155	5	134	135
156	4	134	136
157	5	136	137
158	4	136	138
159	7	138	139
160	4	138	166
161	7	139	140
162	4	140	141
163	4	140	161
164	5	141	142
165	4	141	143
166	5	143	144
167	4	143	145
168	6	145	146
169	4	145	159
170	4	146	147
171	4	146	157
172	5	147	148
173	4	147	149
174	5	149	150
175	4	149	151
176	1	151	152
177	4	151	155
178	2	152	153
179	2	152	154
180	5	155	156
181	4	155	157
182	5	157	158
183	5	159	160
184	4	159	161
185	8	161	162
186	11	162	163
187	11	162	164
188	11	162	165
189	5	166	167
190	4	166	168
191	5	168	169
192	4	170	171
193	4	170	179
194	5	171	172
195	4	171	173
196	5	173	174
197	4	173	175
198	5	175	176
199	4	175	177
200	5	177	178
201	4	177	179
202	6	179	180
203	12	180	181
204	10	180	182
205	1	182	183
206	4	183	184
207	4	183	192
208	5	184	185
209	4	184	186
210	5	186	187
211	4	186	188
212	5	188	189
213	4	188	190
214	5	190	191
215	4	190	192
216	5	192	193
217	5	194	195
218	4	194	196
219	5	196	197
220	8	198	199
221	4	198	203
222	11	199	200
223	11	199	201
224	11	199	202
225	5	203	204
226	5	205	206
227	4	205	207
228	5	207	208
229	12	210	211
230	6	210	212
231	4	212	213
232	4	212	224
233	5	213	214
234	4	213	215
235	5	215	216
236	4	215	217
237	5	217	218
238	4	217	219
239	6	219	220
240	4	219	224
241	12	220	221
242	13	220	222
243	14	222	223
244	5	224	225

Angles

1	1	67	68	70
2	1	217	219	220
3	5	220	222	223
4	6	86	87	89
5	1	147	146	157
6	4	27	54	55
7	4	121	120	122
8	1	124	198	199
9	1	116	118	119
10	1	22	23	25
11	4	146	157	158
12	1	20	82	84
13	6	20	21	22
14	4	94	93	95
15	1	28	29	30
16	4	127	129	130
17	1	21	58	67
18	1	71	72	74
19	1	108	210	211
20	4	144	143	145
21	1	120	122	124
22	1	171	170	179
23	4	145	159	160
24	3	40	41	42
25	4	24	23	25
26	6	58	21	70
27	4	3	5	6
28	6	161	162	163
29	1	40	43	45
30	1	170	179	177
31	4	62	61	63
32	6	133	132	182
33	1	1	2	3
34	1	87	86	91
35	4	191	190	192
36	3	1	112	209
37	3	151	152	153
38	1	7	8	9
39	1	112	113	207
40	1	18	20	21
41	1	132	170	179
42	1	21	20	82
43	6	88	87	89
44	4	8	91	92
45	1	61	63	65
46	1	125	124	198
47	1	105	107	110
48	1	35	34	47
49	4	100	101	102
50	1	129	131	132
51	1	215	217	219
52	4	75	74	76
53	4	7	93	94
54	1	188	190	192
55	4	140	141	142
56	4	43	45	46
57	4	135	134	136
58	1	175	177	179
59	4	194	196	197
60	1	141	140	161
61	4	93	95	96
62	4	35	45	46
63	1	101	103	105
64	4	12	11	13
65	1	138	166	168
66	1	29	49	47
67	1	134	136	138
68	1	118	205	207
69	1	113	207	205
70	4	115	114	116
71	1	15	84	82
72	6	86	87	88
73	4	20	82	83
74	6	51	50	52
75	1	133	134	136
76	1	132	131	194
77	4	71	72	73
78	1	74	76	78
79	4	120	122	123
80	1	131	194	196
81	4	40	43	44
82	1	212	213	215
83	4	142	141	143
84	4	8	9	10
85	4	148	147	149
86	1	143	145	146
87	1	210	212	213
88	4	156	155	157
89	6	89	87	90
90	1	41	98	99
91	1	15	16	18
92	4	83	82	84
93	1	213	212	224
94	4	82	84	85
95	6	131	132	133
96	1	21	22	23
97	4	61	63	64
98	1	107	108	109
99	1	5	7	8
100	4	126	196	197
101	1	143	145	159
102	1	118	119	120
103	4	188	190	191
104	1	30	29	49
105	1	2	95	93
106	1	199	198	203
107	1	171	173	175
108	4	175	177	178
109	1	3	2	95
110	4	216	215	217
111	4	55	54	56
112	1	47	49	50
113	7	132	170	171
114	4	86	91	92
115	7	177	179	180
116	4	134	136	137
117	4	189	188	190
118	4	19	18	20
119	6	163	162	165
120	1	11	13	14
121	1	22	56	54
122	3	113	112	209
123	4	206	205	207
124	6	49	50	53
125	4	102	101	103
126	4	172	171	173
127	4	151	155	156
128	5	124	125	126
129	6	20	21	58
130	4	133	134	135
131	4	63	65	66
132	1	213	215	217
133	1	76	78	80
134	1	71	80	78
135	1	23	25	27
136	4	74	76	77
137	1	14	15	84
138	1	29	49	50
139	1	21	22	56
140	4	195	194	196
141	6	198	199	200
142	4	107	110	111
143	4	190	192	193
144	4	113	207	208
145	1	32	34	47
146	1	99	98	100
147	4	212	213	214
148	1	126	196	194
149	6	131	132	170
150	5	138	139	140
151	1	38	40	41
152	3	97	1	112
153	6	170	132	182
154	1	34	35	36
155	4	15	16	17
156	1	72	71	80
157	1	36	35	45
158	1	182	183	192
159	4	26	25	27
160	1	125	126	196
161	1	219	220	222
162	4	15	84	85
163	1	58	59	61
164	1	132	133	168
165	1	2	3	5
166	1	179	180	182
167	6	161	162	165
168	1	59	58	67
169	4	123	122	124
170	4	176	175	177
171	1	133	168	166
172	4	171	173	174
173	2	1	112	113
174	4	4	3	5
175	6	200	199	202
176	1	28	27	54
177	4	141	143	144
178	1	29	30	32
179	1	114	113	207
180	4	48	47	49
181	1	107	108	210
182	1	220	219	224
183	8	67	68	69
184	6	163	162	164
185	4	155	157	158
186	1	14	15	16
187	6	49	50	52
188	1	116	118	205
189	4	54	56	57
190	4	22	23	24
191	1	108	107	110
192	1	103	105	107
193	4	2	95	96
194	4	213	215	216
195	1	146	147	149
196	1	170	171	173
197	1	120	119	203
198	1	212	224	219
199	4	198	203	204
200	1	126	127	129
201	1	132	133	134
202	4	22	56	57
203	1	145	146	157
204	1	13	86	91
205	6	86	87	90
206	1	27	54	56
207	1	119	118	205
208	1	184	186	188
209	6	201	199	202
210	1	35	36	38
211	6	164	162	165
212	4	130	129	131
213	6	133	132	170
214	4	17	16	18
215	1	122	124	125
216	4	71	80	81
217	1	28	29	49
218	7	21	58	59
219	4	58	59	60
220	1	140	161	162
221	4	66	65	67
222	8	69	68	70
223	1	147	149	151
224	4	2	3	4
225	8	179	180	181
226	1	182	183	184
227	4	150	149	151
228	3	153	152	154
229	1	3	5	7
230	1	16	18	20
231	4	215	217	218
232	2	2	1	112
233	1	159	161	162
234	1	16	15	84
235	1	101	100	110
236	4	79	78	80
237	2	132	182	180
238	4	39	38	40
239	4	106	105	107
240	1	98	100	101
241	4	101	103	104
242	4	212	224	225
243	4	138	166	167
244	6	88	87	90
245	4	100	110	111
246	4	118	205	206
247	5	13	14	15
248	1	7	93	95
249	4	78	80	81
250	1	113	114	116
251	1	25	27	28
252	2	40	41	98
253	1	140	141	143
254	1	58	67	65
255	4	133	168	169
256	4	33	32	34
257	1	139	138	166
258	4	146	147	148
259	4	183	192	193
260	1	23	22	56
261	1	112	113	114
262	1	211	210	212
263	1	140	161	159
264	1	59	61	63
265	4	104	103	105
266	4	174	173	175
267	4	166	168	169
268	4	131	194	195
269	4	126	127	128
270	4	73	72	74
271	7	65	67	68
272	1	145	146	147
273	2	21	70	71
274	4	184	186	187
275	2	180	182	183
276	4	35	36	37
277	4	185	184	186
278	1	34	47	49
279	1	119	120	122
280	1	186	188	190
281	4	219	224	225
282	6	51	50	53
283	1	34	35	45
284	1	184	183	192
285	1	127	126	196
286	1	173	175	177
287	1	30	32	34
288	1	125	126	127
289	1	152	151	155
290	4	218	217	219
291	9	221	220	222
292	4	60	59	61
293	6	198	199	202
294	4	147	149	150
295	1	105	107	108
296	4	160	159	161
297	1	217	219	224
298	4	16	18	19
299	2	68	70	71
300	1	124	198	203
301	1	183	184	186
302	1	70	71	80
303	1	38	40	43
304	4	205	207	208
305	6	22	21	58
306	1	149	151	155
307	1	41	98	100
308	1	114	116	118
309	1	183	192	190
310	1	72	74	76
311	1	109	108	210
312	4	128	127	129
313	5	27	28	29
314	1	13	86	87
315	2	21	70	68
316	1	8	9	11
317	1	134	133	168
318	1	146	157	155
319	4	113	114	115
320	1	7	8	91
321	1	41	40	43
322	1	9	11	13
323	1	36	38	40
324	1	25	27	54
325	4	76	78	79
326	2	132	182	183
327	4	23	25	26
328	1	139	140	161
329	4	64	63	65
330	4	59	61	62
331	1	139	140	141
332	1	119	203	198
333	4	37	36	38
334	1	32	34	35
335	1	129	131	194
336	1	151	155	157
337	6	20	21	70
338	4	34	47	48
339	1	58	67	68
340	4	119	120	121
341	1	118	119	203
342	4	186	188	189
343	3	2	1	97
344	1	63	65	67
345	1	127	129	131
346	1	149	151	152
347	4	137	136	138
348	4	178	177	179
349	4	173	175	176
350	4	30	32	33
351	4	29	30	31
352	1	108	210	212
353	4	10	9	11
354	1	219	220	221
355	1	5	7	93
356	4	187	186	188
357	6	198	199	201
358	1	145	159	161
359	1	100	110	107
360	1	8	7	93
361	4	117	116	118
362	6	161	162	164
363	4	183	184	185
364	6	131	132	182
365	4	167	166	168
366	1	210	212	224
367	1	9	8	91
368	8	181	180	182
369	3	151	152	154
370	1	11	13	86
371	1	136	138	166
372	4	114	116	117
373	6	200	199	201
374	1	146	145	159
375	4	6	5	7
376	6	52	50	53
377	4	77	76	78
378	1	98	100	110
379	4	72	74	75
380	1	35	45	43
381	4	119	203	204
382	4	214	213	215
383	4	31	30	32
384	1	100	101	103
385	3	42	41	98
386	6	49	50	51
387	1	170	179	180
388	1	70	71	72
389	4	44	43	45
390	4	9	11	12
391	6	22	21	70
392	4	36	38	39
393	4	103	105	106
394	1	18	20	82
395	1	122	124	198
396	1	14	13	86
397	4	170	171	172
398	1	136	138	139
399	1	1	2	95
400	1	141	143	145
401	1	8	91	86

Dihedrals

1	6	29	49	50	52
2	1	120	122	124	198
3	1	142	141	143	144
4	1	6	5	7	93
5	1	14	13	86	91
6	14	99	98	100	110
7	1	115	114	113	207
8	1	7	93	95	96
9	2	114	113	112	209
10	1	28	27	54	55
11	1	70	71	72	74
12	1	147	146	157	158
13	1	59	61	63	64
14	1	116	118	205	207
15	1	35	45	43	40
16	1	31	30	29	49
17	2	42	41	40	43
18	1	144	143	145	146
19	1	206	205	207	208
20	1	171	173	175	176
21	6	56	22	21	58
22	1	131	194	196	197
23	1	212	213	215	216
24	1	146	145	159	160
25	4	203	119	118	205
26	6	131	132	170	179
27	1	142	141	140	161
28	1	48	47	49	50
29	1	182	183	192	193
30	1	140	141	143	145
31	14	108	210	212	224
32	1	28	29	49	47
33	1	106	105	107	110
34	1	101	100	110	107
35	7	133	132	182	180
35	8	133	132	182	180
36	1	119	120	122	124
37	7	58	21	70	71
37	8	58	21	70	71
38	1	25	27	54	56
39	1	71	80	78	79
40	6	70	21	20	82
41	1	126	196	194	195
42	1	128	127	129	130
43	6	129	131	132	182
44	5	124	125	126	127
45	1	127	126	196	197
46	1	144	143	145	159
47	1	21	20	82	84
48	1	172	171	170	179
49	14	217	219	220	221
50	9	132	182	180	179
51	1	22	23	25	26
52	6	159	161	162	164
53	1	17	16	18	19
54	1	139	140	141	142
55	1	148	147	149	151
56	7	170	132	182	183
56	8	170	132	182	183
57	1	16	15	84	82
58	1	2	95	93	94
59	1	58	59	61	63
60	6	13	86	87	88
61	6	90	87	86	91
62	1	114	116	118	119
63	1	113	207	205	118
64	1	30	29	49	50
65	2	95	2	1	112
66	14	58	67	68	69
67	1	101	100	110	111
68	14	105	107	108	210
69	1	121	120	122	123
70	6	124	198	199	200
71	1	141	140	161	162
72	1	10	9	11	13
73	1	147	146	157	155
74	6	140	161	162	163
75	1	41	40	43	44
76	1	210	212	213	214
77	15	42	41	98	99
77	16	42	41	98	99
78	1	15	16	18	19
79	1	31	30	32	34
80	2	154	152	151	155
81	1	72	74	76	78
82	1	215	213	212	224
83	4	116	118	119	120
84	1	21	58	67	68
85	1	26	25	27	54
86	1	29	49	47	48
87	1	103	101	100	110
88	9	21	70	68	69
89	1	178	177	179	180
90	2	153	152	151	155
91	1	4	3	2	95
92	4	120	119	118	205
93	1	218	217	219	220
94	1	122	124	198	203
95	1	39	38	40	41
96	1	132	170	179	180
97	4	45	35	34	47
98	1	70	71	72	73
99	7	58	21	70	68
99	8	58	21	70	68
100	1	75	74	76	78
101	6	20	21	58	67
102	1	214	213	212	224
103	1	138	166	168	169
104	1	185	184	186	188
105	6	18	20	21	70
106	1	58	67	65	66
107	1	23	22	56	54
108	6	88	87	86	91
109	14	41	98	100	110
110	1	34	35	36	38
111	4	9	8	7	93
112	1	127	126	196	194
113	1	134	136	138	166
114	1	133	168	166	138
115	14	110	107	108	210
116	1	126	127	129	131
117	4	5	7	8	9
118	1	61	63	65	67
119	1	100	110	107	105
120	1	134	133	168	166
121	1	145	146	147	149
122	2	38	40	41	98
123	1	118	119	120	122
124	6	134	133	132	182
125	1	8	7	93	94
126	1	132	133	134	136
127	1	77	76	78	80
128	6	202	199	198	203
129	1	141	140	161	159
130	1	21	58	59	60
131	1	29	30	32	34
132	1	9	8	91	86
133	1	149	151	155	157
134	1	10	9	8	91
135	1	5	7	93	94
136	1	9	11	13	86
137	1	125	126	196	194
138	1	173	175	177	179
139	1	12	11	13	86
140	6	179	170	132	182
141	1	25	27	54	55
142	1	1	2	95	93
143	1	213	215	217	219
144	1	1	2	3	5
145	14	65	67	68	70
146	1	103	105	107	110
147	5	13	14	15	84
148	1	35	36	38	40
149	2	180	182	183	184
150	1	125	124	198	199
151	1	182	183	184	185
152	6	168	133	132	170
153	14	222	220	219	224
154	1	217	219	224	225
155	1	139	138	166	167
156	1	140	161	159	160
157	2	207	113	112	209
158	1	21	58	67	65
159	1	134	136	138	139
160	3	97	1	112	113
161	1	29	49	47	34
162	5	126	125	124	198
163	1	187	186	188	190
164	1	13	86	91	92
165	1	58	59	61	62
166	1	176	175	177	179
167	14	177	179	180	182
168	1	112	113	114	116
169	1	113	207	205	206
170	6	131	132	170	171
171	9	67	68	70	71
172	1	210	212	224	219
173	1	28	29	49	50
174	1	30	32	34	35
175	1	143	145	159	160
176	1	10	9	11	12
177	1	113	114	116	118
178	6	133	132	170	179
179	1	74	72	71	80
180	1	8	91	86	87
181	1	160	159	161	162
182	1	102	101	103	105
183	1	137	136	138	166
184	1	184	183	192	193
185	14	221	220	219	224
186	1	215	217	219	224
187	1	100	101	103	105
188	4	32	34	35	36
189	6	133	132	131	194
190	1	70	71	80	78
191	1	9	8	91	92
192	1	8	91	86	13
193	1	75	74	76	77
194	1	116	114	113	207
195	1	185	184	186	187
196	1	216	215	217	219
197	14	211	210	212	224
198	1	214	213	215	217
199	1	2	3	5	7
200	14	107	108	210	212
201	2	149	151	152	154
202	1	118	119	203	198
203	1	199	198	203	204
204	1	16	15	84	85
205	1	136	138	166	168
206	1	133	134	136	138
207	1	21	22	23	25
208	1	126	127	129	130
209	1	37	36	35	45
210	1	34	47	49	50
211	1	83	82	84	85
212	1	143	141	140	161
213	6	22	21	20	82
214	1	145	146	147	148
215	1	32	34	47	49
216	5	13	14	15	16
217	1	210	212	224	225
218	1	118	119	120	121
219	1	115	114	116	118
220	6	131	132	133	168
221	1	132	133	134	135
222	1	77	76	78	79
223	1	137	136	138	139
224	1	146	157	155	151
225	1	121	120	119	203
226	1	60	59	58	67
227	14	108	210	212	213
228	1	6	5	7	8
229	1	94	93	95	96
230	1	29	30	32	33
231	1	149	151	155	156
232	1	171	170	179	177
233	1	127	129	131	132
234	1	4	3	5	7
235	5	15	14	13	86
236	1	173	175	177	178
237	1	174	173	175	177
238	1	14	15	16	18
239	1	172	171	173	175
240	1	23	22	56	57
241	1	1	2	3	4
242	6	20	21	22	23
243	12	40	41	98	100
243	13	40	41	98	100
244	14	109	108	210	211
245	1	152	151	155	157
246	1	36	38	40	41
247	1	35	36	38	39
248	1	101	103	105	107
249	1	7	8	9	10
250	7	22	21	70	68
250	8	22	21	70	68
251	5	25	27	28	29
252	1	135	134	133	168
253	1	15	84	82	83
254	1	71	72	74	76
255	1	213	212	224	225
256	1	100	110	107	108
257	2	21	70	71	72
258	1	134	133	168	169
259	1	132	131	194	196
260	1	98	100	101	102
261	1	187	186	188	189
262	1	185	184	183	192
263	1	122	124	198	199
264	1	151	155	157	158
265	6	129	131	132	133
266	1	112	113	114	115
267	14	177	179	180	181
268	1	184	183	192	190
269	1	25	23	22	56
270	1	184	186	188	190
271	3	2	1	112	209
272	5	27	28	29	30
273	1	16	18	20	82
274	6	182	132	131	194
275	1	186	188	190	191
276	1	125	126	196	197
277	6	47	49	50	52
278	1	113	114	116	117
279	1	33	32	34	35
280	1	1	2	95	96
281	1	127	129	131	194
282	1	22	56	54	55
283	1	118	119	203	204
284	1	28	29	30	32
285	1	73	72	71	80
286	1	120	119	203	198
287	1	123	122	124	125
288	18	221	220	222	223
288	19	221	220	222	223
289	1	5	3	2	95
290	9	132	182	180	181
291	6	170	132	131	194
292	1	150	149	151	155
293	6	29	49	50	51
294	1	44	43	45	46
295	6	58	21	20	82
296	1	195	194	196	197
297	6	13	86	87	90
298	1	148	147	146	157
299	1	74	76	78	80
300	6	124	198	199	202
301	1	132	133	168	166
302	1	170	179	177	175
303	14	170	179	180	182
304	1	116	118	205	206
305	6	131	132	133	134
306	1	38	40	43	45
307	1	119	118	205	207
308	6	140	161	162	165
309	1	66	65	67	68
310	1	216	215	217	218
311	1	214	213	215	216
312	1	133	168	166	167
313	4	91	8	7	93
314	6	20	21	22	56
315	2	149	151	152	153
316	7	131	132	182	180
316	8	131	132	182	180
317	1	147	149	151	155
318	1	23	25	27	28
319	1	73	72	74	76
320	1	24	23	25	27
321	1	140	161	159	145
322	1	128	127	126	196
323	2	3	2	1	97
324	1	108	107	110	111
325	1	115	114	116	117
326	1	39	38	40	43
327	1	140	141	143	144
328	1	70	71	80	81
329	1	119	120	122	123
330	9	179	180	182	183
331	1	174	173	175	176
332	1	3	5	7	93
333	1	16	18	20	21
334	1	172	171	173	174
335	1	63	65	67	68
336	1	64	63	65	67
337	10	40	41	98	99
337	11	40	41	98	99
338	9	181	180	182	183
339	1	152	151	155	156
340	6	129	131	132	170
341	1	120	119	203	204
342	1	21	20	82	83
343	1	141	143	145	146
344	2	1	112	113	114
345	1	59	58	67	68
346	6	56	22	21	70
347	1	120	122	124	125
348	1	40	43	45	46
349	1	150	149	151	152
350	6	159	161	162	163
351	1	171	173	175	177
352	1	148	147	149	150
353	1	212	213	215	217
354	6	201	199	198	203
355	1	146	145	159	161
356	6	200	199	198	203
357	1	132	131	194	195
358	1	215	217	219	220
359	1	167	166	168	169
360	2	68	70	71	80
361	1	171	170	179	180
362	5	136	138	139	140
363	1	11	13	86	91
364	1	220	219	224	225
365	6	47	49	50	51
366	4	143	145	146	147
367	4	5	7	8	91
368	1	189	188	190	192
369	1	128	127	129	131
370	1	149	147	146	157
371	1	22	56	54	27
372	2	43	40	41	98
373	1	31	30	32	33
374	2	132	182	183	192
375	1	72	74	76	77
376	1	141	143	145	159
377	7	22	21	70	71
377	8	22	21	70	71
378	1	147	149	151	152
379	1	145	159	161	162
380	6	22	21	58	67
381	14	217	219	220	222
382	1	98	100	110	111
383	1	9	11	13	14
384	1	14	15	84	82
385	1	17	16	18	20
386	1	12	11	13	14
387	1	139	140	141	143
388	1	104	103	105	107
389	6	13	86	87	89
390	4	32	34	35	45