Title

219 atoms
234 bonds
393 angles
609 dihedrals
288 impropers

11 atom types
15 bond types
9 angle types
21 dihedral types
3 improper types
-16.72100067 83.27899933 xlo xhi
-17.54100037 82.45899963 ylo yhi
-4.589000225 95.41099977 zlo zhi
0.0 0.0 0.0 xy xz yz

Masses

1	14.00672
2	12.01078
3	1.007947
4	15.99943
5	12.01078
6	1.007947
7	1.007947
8	18.998403
9	15.99943
10	15.99943
11	1.007947


Pair Coeffs

1	0.16769152	3.206876
2	0.086879315	3.4806469
3	0.015611343	2.5725815
4	0.16846514	3.0251065
5	0.10884061	3.3795318
6	0.015779483	2.6445434
7	0.014090815	1.1034277
8	0.061	3.1181455
9	0.2102061	3.0398122
10	0.20947353	2.99716
11	1.2326e-05	0.53453923

Bond Coeffs

1 harmonic	390.03554688505	1.390160554689
2 harmonic	505.144496193	1.019481865027
3 harmonic	422.7150220147	1.421786517481
4 harmonic	360.7852444772	1.387193227181
5 harmonic	397.2545789619	1.085358495916
6 harmonic	279.1350963404	1.454628925034
7 harmonic	425.69104206635	1.362945806494
8 harmonic	289.73813263395	1.498646816465
9 harmonic	264.62148576755	1.52190126495
10 harmonic	370.04670688625	1.093899492634
11 harmonic	492.76746816345	1.381897776683
12 harmonic	340.45121009905	1.358690858053
13 harmonic	582.698766451	1.225198386222
14 harmonic	385.7604595587	1.369745182308
15 harmonic	543.5267831885	0.9716763312559


Angle Coeffs

1 harmonic	57.8982893754	126.8062420451
2 harmonic	55.42182150775	117.3465570514
3 harmonic	63.44422595415	115.5071327674
4 harmonic	34.066775159195	129.1835929926
5 harmonic	65.09061609600001	110.3538806181
6 harmonic	53.20531626545	116.5475862634
7 harmonic	14.32262199324	138.3184368373
8 harmonic	48.776492647595	115.6030999533
9 harmonic	201.41175231035	127.4691416191


Dihedral Coeffs

1 fourier 1	3.661930099076	2	180
2 fourier 1	1.193093382682	2	180
3 fourier 1	0.02021088501612	1	0
4 fourier 1	1.163235555439	2	180
5 fourier 1	1.532232714475	2	180
6 fourier 1	0.02664938770063	3	0
7 fourier 1	0.1155372516788	3	0
8 fourier 1	0.09223874044423	3	0
9 fourier 1	0.3159935921949	2	180
10 fourier 1	0.3247796806857	1	180
11 fourier 1	0.1040663847541	3	0
12 fourier 1	3.101948770557	2	180
13 fourier 1	-0.4252153282372	1	0
14 fourier 1	1.809047390003	2	180
15 fourier 1	-0.04816277792592	1	0
16 fourier 1	0.9974165607242	2	180
17 fourier 1	2.348375642009	2	180
18 fourier 1	1.256156174911	1	0
19 fourier 1	2.687457892086	2	180
20 fourier 1	2.772607909663	2	180
21 fourier 1	0.09692684957115	1	0


Improper Coeffs

1 0.3666666666666667	-1	2
2 0.3333333333333333	-1	2
3 3.5	-1	2


Atoms

1	1	1	-0.41164899	11.7	-4.5539999	0.44800001
2	1	2	0.127271	10.391	-4.0219998	0.66500002
3	1	2	-0.406104	10.143	-2.7179999	0.46799999
4	1	3	0.222119	10.931	-2.05	0.142
5	1	2	-0.113309	8.7860003	-2.174	0.68900001
6	1	3	0.204327	8.6160002	-1.122	0.49599999
7	1	2	-0.127499	7.783	-2.9790001	1.089
8	1	2	-0.13374799	6.415	-2.441	1.303
9	1	2	-0.128344	5.335	-3.1589999	0.94599998
10	1	3	0.20761	5.4400001	-4.1339998	0.48300001
11	1	2	-0.295212	3.98	-2.612	1.1289999
12	1	3	0.224851	3.1270001	-3.1900001	0.79799998
13	1	2	0.329974	3.8039999	-1.393	1.655
14	1	4	-0.27116299	2.506	-0.88499999	1.7589999
15	1	2	0.265912	2.0109999	0.142	0.94800001
16	1	2	-0.27919	0.85699999	0.72799999	1.281
17	1	3	0.23173501	0.32600001	0.41600001	2.1730001
18	1	2	-0.14877699	0.29899999	1.812	0.449
19	1	3	0.217351	-0.62	2.2809999	0.778
20	1	2	-0.256181	0.91500002	2.2079999	-0.68900001
21	1	5	0.019393001	0.32800001	3.3599999	-1.523
22	1	5	-0.13154	0.93900001	3.4619999	-2.9400001
23	1	6	0.087687001	0.86900002	2.487	-3.4690001
24	1	6	0.087687001	2.0039999	3.7709999	-2.8889999
25	1	6	0.087687001	0.40200001	4.224	-3.5439999
26	1	2	-0.107596	-1.156	3.2090001	-1.666
27	1	2	-0.124935	-1.814	2.1619999	-2.184
28	1	3	0.216888	-1.276	1.307	-2.573
29	1	2	0.23506799	-3.2950001	2.1659999	-2.164
30	1	4	-0.27998701	-3.987	1.059	-2.6630001
31	1	2	0.33387199	-4.777	0.19599999	-1.883
32	1	2	-0.295212	-4.7270002	0.213	-0.537
33	1	3	0.224851	-4.0799999	0.90200001	-0.0099999998
34	1	2	-0.128344	-5.5050001	-0.755	0.257
35	1	3	0.20761	-5.4029999	-0.73400003	1.334
36	1	2	-0.13374799	-6.2789998	-1.6720001	-0.35100001
37	1	2	-0.127499	-7.0180001	-2.6960001	0.43200001
38	1	2	-0.127359	-7.6209998	-2.3889999	1.599
39	1	3	0.204327	-7.6030002	-1.3789999	1.988
40	1	2	-0.374125	-8.3459997	-3.425	2.365
41	1	3	0.218557	-8.8149996	-3.155	3.3039999
42	1	2	0.199503	-8.4169998	-4.6820002	1.903
43	1	1	-0.53042299	-9.1190004	-5.6869998	2.6389999
44	1	7	0.31979701	-9.1759996	-6.664	2.277
45	1	2	-0.374125	-7.7610002	-5.027	0.62199998
46	1	3	0.218557	-7.8070002	-6.0409999	0.245
47	1	2	-0.127359	-7.1030002	-4.092	-0.071999997
48	1	3	0.204327	-6.6139998	-4.3709998	-0.99699998
49	1	2	-0.055757999	-6.3530002	-1.6799999	-1.834
50	1	3	0.206631	-6.9949999	-2.405	-2.316
51	1	2	-0.321394	-5.6529999	-0.79299998	-2.5699999
52	1	5	0.76698202	-5.7179999	-0.796	-4.0809999
53	1	8	-0.206975	-4.4790001	-1.1390001	-4.5890002
54	1	8	-0.206975	-6.0580001	0.46599999	-4.5310001
55	1	8	-0.206975	-6.6550002	-1.6950001	-4.5619998
56	1	2	-0.28520399	-3.9579999	3.23	-1.666
57	1	3	0.220085	-5.0409999	3.2420001	-1.655
58	1	2	0.012888	-3.2079999	4.3909998	-1.128
59	1	3	0.21487699	-3.7420001	5.2459998	-0.73500001
60	1	2	-0.196869	-1.865	4.3499999	-1.13
61	1	5	-0.020857001	-0.91799998	5.3920002	-0.625
62	1	5	-0.13113099	-1.008	6.6550002	-1.5
63	1	6	0.091920003	-0.266	7.4109998	-1.163
64	1	6	0.091920003	-2.0220001	7.1059999	-1.437
65	1	6	0.091920003	-0.796	6.408	-2.5639999
66	1	5	-0.13113099	-1.217	5.7399998	0.84600002
67	1	6	0.091920003	-2.211	6.2249999	0.94300002
68	1	6	0.091920003	-1.2130001	4.823	1.475
69	1	6	0.091920003	-0.44999999	6.441	1.239
70	1	5	-0.18119	0.48699999	4.7199998	-0.76599997
71	1	6	0.13014799	1.207	5.3920002	-1.285
72	1	6	0.13014799	0.93800002	4.553	0.23999999
73	1	2	-0.14877699	2.2119999	1.557	-1.046
74	1	3	0.217351	2.7650001	1.852	-1.928
75	1	2	-0.27919	2.7219999	0.58600003	-0.278
76	1	3	0.23173501	3.658	0.123	-0.56699997
77	1	2	-0.321394	4.9819999	-0.60399997	2.122
78	1	5	0.76698202	4.8000002	0.75300002	2.767
79	1	8	-0.206975	3.648	0.773	3.5339999
80	1	8	-0.206975	4.7049999	1.721	1.784
81	1	8	-0.206975	5.8660002	1.0599999	3.5940001
82	1	2	-0.055757999	6.2189999	-1.1	1.9170001
83	1	3	0.206631	7.0910001	-0.53500003	2.227
84	1	2	-0.113309	8.0679998	-4.4229999	1.311
85	1	3	0.204327	7.2870002	-5.0900002	1.653
86	1	2	-0.406104	9.2959995	-4.9120002	1.109
87	1	3	0.222119	9.4919996	-5.9629998	1.2819999
88	1	7	0.37317601	12.491	-3.9400001	0.15000001
89	1	2	0.75591701	-9.5889997	-5.4629998	3.5639999
90	1	9	-0.66800398	-8.8559999	-5.1139998	4.5279999
91	1	2	-0.30496401	-11.06	-5.5780001	3.721
92	1	2	-0.048687	-11.596	-5.5669999	4.9549999
93	1	3	0.24060801	-10.959	-5.4359999	5.822
94	1	2	-0.16377801	-13.051	-5.7509999	5.1739998
95	1	2	0.80280602	-13.554	-5.618	6.5609999
96	1	9	-0.49026299	-14.68	-5.1009998	6.7919998
97	1	10	-0.665263	-12.75	-6.0079999	7.6279998
98	1	11	0.418154	-13.068	-5.9029999	8.585
99	1	2	-0.169708	-13.856	-5.9879999	4.1069999
100	1	2	0.80280602	-15.291	-6.3299999	4.2350001
101	1	9	-0.49026299	-16.107	-5.9660001	3.346
102	1	10	-0.665263	-15.743	-7.1059999	5.3000002
103	1	11	0.418154	-16.721001	-7.3579998	5.381
104	1	2	-0.01643	-13.275	-5.9569998	2.7420001
105	1	3	0.240556	-13.941	-6.0910001	1.898
106	1	2	-0.240941	-11.961	-5.75	2.5380001
107	1	2	0.57662499	-11.445	-5.6529999	1.15
108	1	9	-0.53887099	-12.153	-6	0.16599999
109	1	1	-0.41164899	11.882	-5.5760002	0.57800001
110	1	2	0.127271	12.098	-6.1079998	1.888
111	1	2	-0.406104	12.365	-7.4120002	2.0580001
112	1	3	0.222119	12.42	-8.0799999	1.207
113	1	2	-0.113309	12.593	-7.9559999	3.414
114	1	3	0.204327	12.831	-9.0080004	3.513
115	1	2	-0.127499	12.538	-7.151	4.493
116	1	2	-0.13374799	12.777	-7.6890001	5.8559999
117	1	2	-0.128344	13.463	-6.9710002	6.763
118	1	3	0.20761	13.867	-5.9959998	6.5149999
119	1	2	-0.295212	13.726	-7.5180001	8.1049995
120	1	3	0.224851	14.314	-6.9400001	8.8059998
121	1	2	0.329974	13.286	-8.7370005	8.4420004
122	1	4	-0.27116299	13.605	-9.2449999	9.7040005
123	1	2	0.265912	14.533	-10.272	9.9099998
124	1	2	-0.27919	14.59	-10.858	11.111
125	1	3	0.23173501	13.917	-10.546	11.901
126	1	2	-0.14877699	15.557	-11.941	11.37
127	1	3	0.217351	15.542	-12.411	12.346
128	1	2	-0.256181	16.436001	-12.338	10.42
129	1	5	0.019393001	17.415001	-13.49	10.707
130	1	5	-0.13154	18.558001	-13.592	9.6719999
131	1	6	0.087687001	19.082001	-12.616	9.5670004
132	1	6	0.087687001	18.167	-13.901	8.6800003
133	1	6	0.087687001	19.302999	-14.354	9.9849997
134	1	2	-0.107596	18.028	-13.339	12.065
135	1	2	-0.124935	18.731001	-12.292	12.521
136	1	3	0.216888	18.924999	-11.436	11.886
137	1	2	0.23506799	19.188999	-12.296	13.929
138	1	4	-0.27998701	19.885	-11.189	14.424
139	1	2	0.33387199	19.400999	-10.326	15.423
140	1	2	-0.295212	18.111	-10.343	15.81
141	1	3	0.224851	17.403999	-11.032	15.367
142	1	2	-0.128344	17.610001	-9.375	16.802
143	1	3	0.20761	16.558001	-9.3950005	17.052999
144	1	2	-0.13374799	18.434999	-8.4580002	17.339001
145	1	2	-0.127499	17.931999	-7.4330001	18.291
146	1	2	-0.076626003	17.021999	-7.7399998	19.238001
147	1	3	0.204327	16.648001	-8.7510004	19.346001
148	1	2	-0.45027301	16.530001	-6.7049999	20.171
149	1	3	0.23067001	15.793	-6.9749999	20.917999
150	1	2	0.319197	16.990999	-5.447	20.089001
151	1	1	-0.84440303	16.521	-4.4429998	20.990999
152	1	7	0.36693501	15.809	-4.6630001	21.722
153	1	7	0.36693501	16.882	-3.4660001	20.927999
154	1	2	-0.45027301	17.992001	-5.1020002	19.056
155	1	3	0.23067001	18.364	-4.0879998	18.976999
156	1	2	-0.076626003	18.437	-6.0370002	18.209
157	1	3	0.204327	19.155001	-5.7589998	17.447001
158	1	2	-0.055757999	19.863001	-8.4499998	16.93
159	1	3	0.206631	20.525999	-7.7249999	17.382999
160	1	2	-0.321394	20.334	-9.3369999	16.031
161	1	5	0.76698202	21.785	-9.3339996	15.605
162	1	8	-0.206975	21.867001	-8.9910002	14.268
163	1	8	-0.206975	22.320999	-10.596	15.782
164	1	8	-0.206975	22.542	-8.4350004	16.337
165	1	2	-0.28520399	18.931999	-13.36	14.718
166	1	3	0.220085	19.271	-13.371	15.747
167	1	2	0.012888	18.18	-14.521	14.181
168	1	3	0.21487699	17.981001	-15.376	14.814
169	1	2	-0.196869	17.749001	-14.48	12.91
170	1	5	-0.020857001	16.966	-15.522	12.176
171	1	5	-0.13113099	17.823999	-16.784	11.978
172	1	6	0.091920003	17.264999	-17.541	11.386
173	1	6	0.091920003	18.09	-17.235001	12.959
174	1	6	0.091920003	18.761999	-16.538	11.436
175	1	5	-0.13113099	15.67	-15.87	12.934
176	1	6	0.091920003	15.899	-16.354	13.906
177	1	6	0.091920003	15.073	-14.953	13.132
178	1	6	0.091920003	15.051	-16.57	12.335
179	1	5	-0.18119	16.646	-14.85	10.8
180	1	6	0.13014799	16.906	-15.522	9.9519997
181	1	6	0.13014799	15.549	-14.683	10.698
182	1	2	-0.14877699	16.355	-11.687	9.0780001
183	1	3	0.217351	17.011999	-11.982	8.2700005
184	1	2	-0.27919	15.464	-10.716	8.842
185	1	3	0.23173501	15.436	-10.253	7.8639998
186	1	2	-0.321394	12.463	-9.526	7.4759998
187	1	5	0.76698202	11.912	-10.883	7.8569999
188	1	8	-0.206975	11.556	-10.903	9.1949997
189	1	8	-0.206975	12.873	-11.851	7.6300001
190	1	8	-0.206975	10.785	-11.19	7.1149998
191	1	2	-0.055757999	12.258	-9.0299997	6.2399998
192	1	3	0.206631	11.683	-9.5950003	5.5139999
193	1	2	-0.113309	12.236	-5.7069998	4.2950001
194	1	3	0.204327	12.163	-5.04	5.1440001
195	1	2	-0.406104	12.031	-5.2179999	3.066
196	1	3	0.222119	11.804	-4.1669998	2.937
197	1	7	0.37317601	11.908	-6.1900001	-0.26699999
198	1	2	0.57650399	-10.455	-5.27	0.94999999
199	1	9	-0.53887099	-9.71	-5.9229999	0.17200001
200	1	2	-0.263942	-9.9849997	-4.0209999	1.596
201	1	2	-0.0084109996	-8.6680002	-3.744	1.6210001
202	1	3	0.240556	-7.967	-4.3990002	1.118
203	1	2	-0.169708	-8.1339998	-2.575	2.3610001
204	1	2	0.80280602	-6.684	-2.296	2.2390001
205	1	9	-0.49026299	-6.2550001	-1.11	2.2179999
206	1	10	-0.665263	-5.7880001	-3.349	2.082
207	1	11	0.418154	-4.7950001	-3.1760001	1.976
208	1	2	-0.16735899	-8.9870005	-1.8	3.0780001
209	1	2	0.80280602	-8.533	-0.70899999	3.971
210	1	9	-0.49026299	-9.2519999	0.315	4.1300001
211	1	10	-0.665263	-7.3460002	-0.82700002	4.6890001
212	1	11	0.418154	-7.0409999	-0.090999998	5.316
213	1	2	-0.042342	-10.443	-2.0739999	3.0109999
214	1	3	0.245361	-11.12	-1.403	3.5280001
215	1	2	-0.125348	-10.935	-3.099	2.2939999
216	1	2	0.815256	-12.406	-3.2460001	2.184
217	1	9	-0.49026299	-12.928	-3.7090001	1.135
218	1	10	-0.665263	-13.229	-2.8239999	3.2249999
219	1	11	0.418154	-14.237	-2.902	3.1559999

Bonds

1	1	1	2
2	2	1	88
3	3	1	109
4	4	2	3
5	4	2	86
6	5	3	4
7	4	3	5
8	5	5	6
9	4	5	7
10	6	7	8
11	4	7	84
12	4	8	9
13	4	8	82
14	5	9	10
15	4	9	11
16	5	11	12
17	4	11	13
18	7	13	14
19	4	13	77
20	7	14	15
21	4	15	16
22	4	15	75
23	5	16	17
24	4	16	18
25	5	18	19
26	4	18	20
27	8	20	21
28	4	20	73
29	9	21	22
30	8	21	26
31	9	21	70
32	10	22	23
33	10	22	24
34	10	22	25
35	4	26	27
36	4	26	60
37	5	27	28
38	4	27	29
39	7	29	30
40	4	29	56
41	7	30	31
42	4	31	32
43	4	31	51
44	5	32	33
45	4	32	34
46	5	34	35
47	4	34	36
48	6	36	37
49	4	36	49
50	4	37	38
51	4	37	47
52	5	38	39
53	4	38	40
54	5	40	41
55	4	40	42
56	1	42	43
57	4	42	45
58	2	43	44
59	11	43	89
60	5	45	46
61	4	45	47
62	5	47	48
63	5	49	50
64	4	49	51
65	8	51	52
66	12	52	53
67	12	52	54
68	12	52	55
69	5	56	57
70	4	56	58
71	5	58	59
72	4	58	60
73	8	60	61
74	9	61	62
75	9	61	66
76	9	61	70
77	10	62	63
78	10	62	64
79	10	62	65
80	10	66	67
81	10	66	68
82	10	66	69
83	10	70	71
84	10	70	72
85	5	73	74
86	4	73	75
87	5	75	76
88	8	77	78
89	4	77	82
90	12	78	79
91	12	78	80
92	12	78	81
93	5	82	83
94	5	84	85
95	4	84	86
96	5	86	87
97	13	89	90
98	6	89	91
99	4	91	92
100	4	91	106
101	5	92	93
102	4	92	94
103	6	94	95
104	4	94	99
105	13	95	96
106	14	95	97
107	15	97	98
108	6	99	100
109	4	99	104
110	13	100	101
111	14	100	102
112	15	102	103
113	5	104	105
114	4	104	106
115	6	106	107
116	13	107	108
117	6	107	198
118	1	109	110
119	2	109	197
120	4	110	111
121	4	110	195
122	5	111	112
123	4	111	113
124	5	113	114
125	4	113	115
126	6	115	116
127	4	115	193
128	4	116	117
129	4	116	191
130	5	117	118
131	4	117	119
132	5	119	120
133	4	119	121
134	7	121	122
135	4	121	186
136	7	122	123
137	4	123	124
138	4	123	184
139	5	124	125
140	4	124	126
141	5	126	127
142	4	126	128
143	8	128	129
144	4	128	182
145	9	129	130
146	8	129	134
147	9	129	179
148	10	130	131
149	10	130	132
150	10	130	133
151	4	134	135
152	4	134	169
153	5	135	136
154	4	135	137
155	7	137	138
156	4	137	165
157	7	138	139
158	4	139	140
159	4	139	160
160	5	140	141
161	4	140	142
162	5	142	143
163	4	142	144
164	6	144	145
165	4	144	158
166	4	145	146
167	4	145	156
168	5	146	147
169	4	146	148
170	5	148	149
171	4	148	150
172	1	150	151
173	4	150	154
174	2	151	152
175	2	151	153
176	5	154	155
177	4	154	156
178	5	156	157
179	5	158	159
180	4	158	160
181	8	160	161
182	12	161	162
183	12	161	163
184	12	161	164
185	5	165	166
186	4	165	167
187	5	167	168
188	4	167	169
189	8	169	170
190	9	170	171
191	9	170	175
192	9	170	179
193	10	171	172
194	10	171	173
195	10	171	174
196	10	175	176
197	10	175	177
198	10	175	178
199	10	179	180
200	10	179	181
201	5	182	183
202	4	182	184
203	5	184	185
204	8	186	187
205	4	186	191
206	12	187	188
207	12	187	189
208	12	187	190
209	5	191	192
210	5	193	194
211	4	193	195
212	5	195	196
213	13	198	199
214	6	198	200
215	4	200	201
216	4	200	215
217	5	201	202
218	4	201	203
219	6	203	204
220	4	203	208
221	13	204	205
222	14	204	206
223	15	206	207
224	6	208	209
225	4	208	213
226	13	209	210
227	14	209	211
228	15	211	212
229	5	213	214
230	4	213	215
231	6	215	216
232	13	216	217
233	14	216	218
234	15	218	219

Angles

1	6	128	129	134
2	9	217	216	218
3	1	89	91	106
4	7	129	134	135
5	6	175	170	179
6	1	21	20	73
7	6	77	78	79
8	4	140	142	143
9	8	131	130	132
10	4	127	126	128
11	6	186	187	188
12	8	68	66	69
13	4	147	146	148
14	6	163	161	164
15	1	13	77	78
16	1	99	104	106
17	6	171	170	179
18	4	16	18	19
19	1	99	100	101
20	4	74	73	75
21	1	32	31	51
22	4	57	56	58
23	1	119	121	122
24	1	108	107	198
25	1	124	126	128
26	8	23	22	24
27	1	140	139	160
28	1	203	208	213
29	4	33	32	34
30	6	170	171	173
31	6	20	21	26
32	8	173	171	174
33	6	79	78	81
34	1	27	26	60
35	6	162	161	164
36	1	109	110	111
37	6	51	52	55
38	3	44	43	89
39	4	168	167	169
40	4	150	154	155
41	5	13	14	15
42	4	193	195	196
43	1	89	91	92
44	1	204	203	208
45	1	134	135	137
46	1	201	203	208
47	6	188	187	190
48	1	31	51	52
49	1	100	99	104
50	1	146	145	156
51	1	8	9	11
52	3	88	1	109
53	2	1	109	110
54	4	194	193	195
55	1	36	37	38
56	6	61	70	71
57	1	91	106	107
58	4	202	201	203
59	6	61	62	65
60	1	142	144	158
61	4	77	82	83
62	1	94	95	97
63	1	115	193	195
64	1	110	195	193
65	4	112	111	113
66	6	20	21	70
67	3	2	1	88
68	4	73	75	76
69	3	150	151	152
70	8	132	130	133
71	8	172	171	174
72	1	36	49	51
73	1	119	121	186
74	4	186	191	192
75	1	203	204	205
76	1	11	13	77
77	3	42	43	44
78	1	208	209	211
79	1	111	113	115
80	1	8	7	84
81	1	34	36	49
82	1	109	110	195
83	9	101	100	102
84	4	125	124	126
85	4	99	104	105
86	1	128	182	184
87	1	113	115	116
88	1	123	184	182
89	5	29	30	31
90	6	129	130	133
91	1	135	134	169
92	1	137	165	167
93	1	213	215	216
94	6	170	171	172
95	4	114	113	115
96	1	5	7	84
97	6	79	78	80
98	4	6	5	7
99	6	128	129	130
100	6	169	170	175
101	4	134	135	136
102	1	43	89	91
103	1	215	216	218
104	1	30	31	32
105	4	146	148	149
106	4	154	156	157
107	8	176	175	178
108	1	122	123	184
109	1	116	115	193
110	1	14	15	75
111	4	42	45	46
112	6	171	170	175
113	1	144	145	146
114	6	169	170	179
115	1	117	116	191
116	6	170	175	176
117	4	110	111	112
118	1	40	42	43
119	8	172	171	173
120	5	121	122	123
121	1	200	215	213
122	6	160	161	162
123	1	203	208	209
124	1	208	213	215
125	1	106	107	198
126	1	126	128	182
127	6	20	21	22
128	6	189	187	190
129	6	61	66	69
130	4	155	154	156
131	8	180	179	181
132	1	107	198	200
133	1	31	32	34
134	4	56	58	59
135	4	118	117	119
136	6	170	179	181
137	1	9	11	13
138	1	37	38	40
139	4	110	195	196
140	4	3	5	6
141	1	1	2	3
142	1	201	203	204
143	5	204	206	207
144	6	77	78	81
145	1	7	84	86
146	1	134	169	167
147	4	105	104	106
148	5	100	102	103
149	1	26	27	29
150	4	141	140	142
151	1	145	146	148
152	4	137	165	166
153	7	167	169	170
154	4	4	3	5
155	6	186	187	190
156	8	71	70	72
157	1	116	191	186
158	1	20	73	75
159	4	10	9	11
160	1	15	75	73
161	9	205	204	206
162	1	7	8	9
163	1	91	92	94
164	6	21	22	24
165	4	123	124	125
166	4	123	184	185
167	4	35	34	36
168	1	27	29	30
169	1	32	34	36
170	1	38	40	42
171	1	43	89	90
172	1	215	216	217
173	1	8	82	77
174	1	144	158	160
175	4	46	45	47
176	1	139	160	158
177	8	63	62	65
178	3	1	109	197
179	1	36	37	47
180	8	176	175	177
181	4	12	11	13
182	4	183	182	184
183	4	149	148	150
184	6	22	21	70
185	1	144	145	156
186	5	137	138	139
187	6	53	52	55
188	6	21	70	72
189	1	158	160	161
190	1	199	198	200
191	1	145	144	158
192	6	62	61	70
193	6	130	129	179
194	4	59	58	60
195	6	129	179	170
196	1	165	167	169
197	6	61	66	68
198	1	111	110	195
199	4	159	158	160
200	1	107	198	199
201	4	31	32	33
202	1	94	99	104
203	4	85	84	86
204	3	152	151	153
205	1	9	8	82
206	6	170	179	180
207	6	129	179	181
208	3	110	109	197
209	8	64	62	65
210	1	27	29	56
211	1	148	150	154
212	6	169	170	171
213	4	7	84	85
214	4	124	126	127
215	6	26	21	70
216	4	26	27	28
217	1	121	186	191
218	4	145	146	147
219	1	200	215	216
220	1	135	137	165
221	4	8	9	10
222	6	186	187	189
223	1	95	94	99
224	6	128	129	179
225	6	162	161	163
226	1	198	200	215
227	6	51	52	54
228	4	91	92	93
229	1	43	42	45
230	6	21	22	23
231	1	209	208	213
232	8	177	175	178
233	1	134	169	170
234	6	188	187	189
235	1	3	2	86
236	8	23	22	25
237	4	144	158	159
238	1	138	137	165
239	1	151	150	154
240	1	124	123	184
241	6	170	171	174
242	1	16	15	75
243	4	143	142	144
244	6	61	62	64
245	1	135	137	138
246	4	15	75	76
247	4	39	38	40
248	1	94	95	96
249	1	150	154	156
250	4	115	193	194
251	4	84	86	87
252	1	148	150	151
253	4	19	18	20
254	1	11	13	14
255	1	30	29	56
256	1	5	7	8
257	4	165	167	168
258	1	92	91	106
259	1	139	160	161
260	4	36	49	50
261	4	28	27	29
262	6	61	70	72
263	1	208	209	210
264	4	111	113	114
265	1	2	3	5
266	1	198	200	201
267	1	34	36	37
268	1	104	106	107
269	1	18	20	73
270	1	115	116	191
271	4	166	165	167
272	6	129	179	180
273	2	2	1	109
274	4	128	182	183
275	6	134	129	179
276	6	170	175	178
277	1	113	115	193
278	6	129	130	132
279	1	129	128	182
280	3	150	151	153
281	1	40	42	45
282	1	138	139	160
283	1	29	56	58
284	6	54	52	55
285	1	116	117	119
286	6	22	21	26
287	1	138	139	140
288	6	160	161	164
289	6	60	61	66
290	6	66	61	70
291	1	203	204	206
292	1	78	77	82
293	6	51	52	53
294	1	115	116	117
295	5	209	211	212
296	6	80	78	81
297	8	67	66	69
298	1	139	140	142
299	1	145	156	154
300	4	182	184	185
301	1	30	31	51
302	6	62	61	66
303	1	37	47	45
304	9	210	209	211
305	6	60	61	70
306	1	15	16	18
307	1	92	94	95
308	5	95	97	98
309	4	136	135	137
310	1	26	60	58
311	1	2	86	84
312	6	61	62	63
313	5	216	218	219
314	7	58	60	61
315	4	120	119	121
316	1	13	77	82
317	1	94	99	100
318	1	187	186	191
319	1	142	144	145
320	2	42	43	89
321	4	93	92	94
322	9	96	95	97
323	1	7	8	82
324	6	21	70	61
325	1	14	15	16
326	1	121	186	187
327	1	18	20	21
328	4	116	191	192
329	1	146	148	150
330	4	208	213	214
331	1	92	94	99
332	1	106	107	108
333	4	2	3	4
334	1	42	45	47
335	1	117	119	121
336	1	200	201	203
337	7	21	26	27
338	4	9	11	12
339	4	37	38	39
340	6	170	175	177
341	1	110	111	113
342	6	129	130	131
343	6	77	78	80
344	4	29	56	57
345	1	140	142	144
346	8	131	130	133
347	4	116	117	118
348	6	160	161	163
349	1	90	89	91
350	1	21	26	60
351	4	17	16	18
352	1	37	36	49
353	4	20	73	74
354	1	56	58	60
355	1	129	134	169
356	1	16	18	20
357	1	99	100	102
358	8	67	66	68
359	4	139	140	141
360	4	8	82	83
361	8	24	22	25
362	1	3	5	7
363	4	32	34	35
364	4	38	40	41
365	1	31	51	49
366	1	122	123	124
367	8	63	62	64
368	1	49	51	52
369	1	14	13	77
370	6	130	129	134
371	4	15	16	17
372	1	91	106	104
373	6	21	22	25
374	4	214	213	215
375	1	123	124	126
376	4	50	49	51
377	6	53	52	54
378	4	45	47	48
379	1	201	200	215
380	1	126	128	129
381	1	38	37	47
382	6	21	70	71
383	4	145	156	157
384	1	1	2	86
385	4	37	47	48
386	4	41	40	42
387	6	60	61	62
388	1	26	60	61
389	4	2	86	87
390	6	61	66	67
391	4	117	119	120
392	4	200	201	202
393	1	122	121	186

Dihedrals

1	1	15	75	73	74
2	1	40	42	45	46
3	11	171	170	175	178
4	7	134	129	179	170
5	1	16	18	20	21
6	1	20	73	75	76
7	1	159	158	160	161
8	1	138	139	140	142
9	1	124	123	184	182
10	11	62	61	70	72
11	1	168	167	169	170
12	11	67	66	61	70
13	1	214	213	215	216
14	1	34	36	49	50
15	1	94	99	104	105
16	1	139	160	158	159
17	1	140	142	144	145
18	1	89	91	92	94
19	1	10	9	8	82
20	1	2	86	84	7
21	1	5	7	84	86
22	1	18	20	73	75
23	1	119	121	186	191
24	1	135	137	165	167
25	2	195	110	109	197
26	1	2	3	5	6
27	1	7	8	9	10
28	1	32	31	51	49
29	1	109	110	111	113
30	7	131	130	129	134
31	2	111	110	109	197
32	7	134	129	179	181
33	1	144	145	146	147
34	6	158	160	161	163
35	1	41	40	42	45
36	6	26	21	20	73
37	1	32	34	36	49
38	11	22	21	70	71
39	5	31	30	29	56
40	1	123	124	126	127
41	1	3	2	86	84
42	17	44	43	89	90
42	18	44	43	89	90
43	11	69	66	61	70
44	1	122	121	186	187
45	1	74	73	75	76
46	1	145	144	158	159
47	1	208	213	215	216
48	1	134	135	137	165
49	1	140	142	144	158
50	7	132	130	129	134
51	1	111	110	195	196
52	1	36	49	51	52
53	1	200	215	213	208
54	11	68	66	61	70
55	1	12	11	13	14
56	1	16	15	75	76
57	6	121	186	187	188
58	1	15	75	73	20
59	6	189	187	186	191
60	1	198	200	215	213
61	1	203	208	213	215
62	1	4	3	2	86
63	16	203	208	209	210
64	2	1	109	110	195
65	1	115	116	117	118
66	1	117	119	121	122
67	20	217	216	218	219
67	21	217	216	218	219
68	1	8	82	77	13
69	1	57	56	58	60
70	1	37	36	49	51
71	1	78	77	82	83
72	1	200	201	203	208
73	1	122	121	186	191
74	1	15	16	18	20
75	2	148	150	151	153
76	1	203	201	200	215
77	1	117	116	191	192
78	3	2	1	109	110
79	1	134	169	167	168
80	11	66	61	70	71
81	6	134	169	170	171
82	7	169	170	175	176
83	11	173	171	170	175
84	4	9	8	7	84
85	6	13	77	78	79
86	1	134	135	137	138
87	2	3	2	1	88
88	1	21	20	73	75
89	16	211	209	208	213
90	6	26	60	61	70
91	1	26	60	58	56
92	1	204	203	208	209
93	5	15	14	13	77
94	1	35	34	36	37
95	6	130	129	128	182
96	11	171	170	179	180
97	1	85	84	86	87
98	1	93	92	94	95
99	1	124	126	128	182
100	1	21	26	27	29
101	1	91	92	94	95
102	1	3	5	7	84
103	1	138	139	140	141
104	1	92	94	99	100
105	1	36	37	38	40
106	16	199	198	200	201
107	6	134	169	170	175
108	1	136	135	137	165
109	1	30	29	56	58
110	1	46	45	47	48
111	1	137	135	134	169
112	1	28	27	29	30
113	1	89	91	92	93
114	1	5	7	84	85
115	16	96	95	94	99
116	1	135	137	165	166
117	1	136	135	134	169
118	1	37	47	45	42
119	1	109	110	111	112
120	7	60	61	62	64
121	1	111	113	115	116
122	7	128	129	179	170
123	7	134	129	179	180
124	1	149	148	150	151
125	2	44	43	42	45
126	6	158	160	161	162
127	1	39	38	40	42
128	16	201	203	204	206
129	1	117	119	121	186
130	16	210	209	208	213
131	6	134	129	128	182
132	1	13	77	82	83
133	8	22	21	70	61
133	9	22	21	70	61
133	10	22	21	70	61
134	1	110	195	193	115
135	2	153	151	150	154
136	6	31	51	52	55
137	1	31	32	34	36
138	6	80	78	77	82
139	7	128	129	179	181
140	1	129	134	135	137
141	1	8	7	84	86
142	6	126	128	129	179
143	1	136	135	137	138
144	1	121	186	191	192
145	6	22	21	26	27
146	1	32	31	51	52
147	1	11	13	77	82
148	1	203	208	213	214
149	1	122	123	124	125
150	1	201	203	208	213
151	1	116	191	186	187
152	8	130	129	179	170
152	9	130	129	179	170
152	10	130	129	179	170
153	1	57	56	58	59
154	1	198	200	201	203
155	1	155	154	156	157
156	1	37	36	49	50
157	1	112	111	113	115
158	1	15	16	18	19
159	1	17	16	15	75
160	1	126	124	123	184
161	5	29	30	31	32
162	1	91	106	104	105
163	1	145	146	148	150
164	16	91	106	107	108
165	1	28	27	29	56
166	19	99	100	102	103
167	6	22	21	26	60
168	1	43	42	45	47
169	1	139	140	142	143
170	1	109	110	195	193
171	1	119	121	186	187
172	1	14	15	75	73
173	11	178	175	170	179
174	1	21	20	73	74
175	1	33	32	31	51
176	1	141	140	142	144
177	1	148	150	154	156
178	1	12	11	13	77
179	7	169	170	179	180
180	1	144	145	156	154
181	1	120	119	121	186
182	1	92	91	106	104
183	16	43	89	91	106
184	7	133	130	129	134
185	11	177	175	170	179
186	2	45	42	43	89
187	7	20	21	70	72
188	7	21	70	61	60
189	14	42	43	89	91
189	15	42	43	89	91
190	1	127	126	128	182
191	1	95	94	99	104
192	16	104	106	107	108
193	6	58	60	61	70
194	1	36	37	38	39
195	11	24	22	21	70
196	1	30	29	56	57
197	6	49	51	52	55
198	16	200	215	216	218
199	1	14	15	16	18
200	5	135	137	138	139
201	7	169	170	171	174
202	16	90	89	91	106
203	6	130	129	134	169
204	1	142	144	158	159
205	7	20	21	22	23
206	7	60	61	66	68
207	1	26	60	58	59
208	1	56	58	60	61
209	7	60	61	62	63
210	1	114	113	115	116
211	5	121	122	123	184
212	6	26	60	61	62
213	1	35	34	36	49
214	1	27	29	56	58
215	1	111	113	115	193
216	1	113	111	110	195
217	11	175	170	179	181
218	1	126	128	182	183
219	16	108	107	198	199
220	1	29	56	58	60
221	1	41	40	42	43
222	3	88	1	109	110
223	1	39	38	40	41
224	16	201	203	204	205
225	1	145	156	154	155
226	1	148	146	145	156
227	1	200	201	203	204
228	1	7	8	82	83
229	1	118	117	119	121
230	1	31	32	34	35
231	16	94	99	100	102
232	4	5	7	8	82
233	11	63	62	61	70
234	1	30	31	51	49
235	1	105	104	106	107
236	7	128	129	179	180
237	1	129	134	135	136
238	1	8	7	84	85
239	1	18	16	15	75
240	11	62	61	66	67
241	1	6	5	7	8
242	16	213	215	216	218
243	6	26	60	61	66
244	16	107	198	200	201
245	5	13	14	15	16
246	1	149	148	150	154
247	1	37	38	40	42
248	1	10	9	11	12
249	1	100	99	104	106
250	16	43	89	91	92
251	1	112	111	113	114
252	8	21	70	61	66
252	9	21	70	61	66
252	10	21	70	61	66
253	1	146	148	150	151
254	5	29	30	31	51
255	6	22	21	20	73
256	1	122	123	184	182
257	1	116	117	119	120
258	1	113	115	193	194
259	3	2	1	109	197
260	16	106	107	198	200
261	1	151	150	154	155
262	7	129	179	170	169
263	2	86	2	1	109
264	7	26	21	70	72
265	1	43	42	45	46
266	1	141	140	139	160
267	6	121	186	187	190
268	1	38	40	42	43
269	11	130	129	179	180
270	6	130	129	134	135
271	1	5	3	2	86
272	1	135	134	169	170
273	1	141	140	142	143
274	1	148	150	154	155
275	1	19	18	20	73
276	5	123	122	121	186
277	4	47	37	36	49
278	4	146	145	144	158
279	7	128	129	130	132
280	7	20	21	70	71
281	11	171	170	175	177
282	4	113	115	116	117
283	20	210	209	211	212
283	21	210	209	211	212
284	12	42	43	89	90
284	13	42	43	89	90
285	11	62	61	70	71
286	6	135	134	129	179
287	1	209	208	213	215
288	1	118	117	116	191
289	16	206	204	203	208
290	6	49	51	52	54
291	1	94	92	91	106
292	1	200	215	213	214
293	16	200	215	216	217
294	1	109	110	195	196
295	7	169	170	175	178
296	6	13	77	78	81
297	16	97	95	94	99
298	1	14	15	75	76
299	1	18	20	73	74
300	1	138	137	165	167
301	1	150	154	156	157
302	7	60	61	66	67
303	1	27	26	60	58
304	6	169	134	129	179
305	1	166	165	167	169
306	1	11	13	77	78
307	1	27	29	56	57
308	1	30	31	32	34
309	1	144	145	156	157
310	1	201	203	208	209
311	1	92	91	106	107
312	1	128	182	184	185
313	1	32	34	36	37
314	1	40	42	45	47
315	1	116	115	193	195
316	1	21	26	60	58
317	1	89	91	106	104
318	1	34	36	49	51
319	1	94	99	104	106
320	1	118	117	119	120
321	6	20	21	26	27
322	8	129	179	170	175
322	9	129	179	170	175
322	10	129	179	170	175
323	1	38	37	47	48
324	6	81	78	77	82
325	1	9	11	13	14
326	6	190	187	186	191
327	5	139	138	137	165
328	1	16	18	20	73
329	1	194	193	195	196
330	5	27	29	30	31
331	7	60	61	70	72
332	4	34	36	37	38
333	1	36	37	47	45
334	2	40	42	43	89
335	1	3	5	7	8
336	2	152	151	150	154
337	1	135	134	169	167
338	7	25	22	21	26
339	1	17	16	18	20
340	7	24	22	21	26
341	6	158	160	161	164
342	1	100	99	104	105
343	7	23	22	21	26
344	1	129	134	169	167
345	19	94	95	97	98
346	11	64	62	61	66
347	1	112	111	110	195
348	6	20	21	26	60
349	14	44	43	89	91
349	15	44	43	89	91
350	1	11	9	8	82
351	2	148	150	151	152
352	1	95	94	99	100
353	1	202	201	200	215
354	16	205	204	203	208
355	16	106	107	198	199
356	1	26	27	29	30
357	6	58	60	61	66
358	1	142	140	139	160
359	1	30	31	51	52
360	1	139	160	158	144
361	11	131	130	129	179
362	7	26	21	70	71
363	4	117	116	115	193
364	11	172	171	170	179
365	1	59	58	60	61
366	2	86	2	1	88
367	6	121	186	187	189
368	1	7	8	9	11
369	1	110	111	113	115
370	1	183	182	184	185
371	1	21	26	27	28
372	11	65	62	61	70
373	1	146	145	156	157
374	11	64	62	61	70
375	7	128	129	130	131
376	6	139	160	161	164
377	1	34	32	31	51
378	1	144	158	160	161
379	11	132	130	129	179
380	11	176	175	170	179
381	11	171	170	175	176
382	1	146	148	150	154
383	7	20	21	70	61
384	1	122	123	184	185
385	5	11	13	14	15
386	11	25	22	21	70
387	19	215	216	218	219
388	11	63	62	61	66
389	6	18	20	21	26
390	1	38	37	47	45
391	11	23	22	21	70
392	16	102	100	99	104
393	16	101	100	99	104
394	1	138	137	165	166
395	1	201	200	215	213
396	6	128	129	134	169
397	1	166	165	167	168
398	1	14	13	77	82
399	6	27	26	21	70
400	6	126	128	129	134
401	11	171	170	179	181
402	1	33	32	34	36
403	1	6	5	7	84
404	3	88	1	109	197
405	1	202	201	203	208
406	1	9	8	82	77
407	1	26	27	29	56
408	1	116	115	193	194
409	1	125	124	126	128