Title

111 atoms
118 bonds
205 angles
333 dihedrals
132 impropers

9 atom types
13 bond types
9 angle types
19 dihedral types
3 improper types
-11.09399986 88.90600014 xlo xhi
-17.88100052 82.11899948 ylo yhi
-6.715000153 93.28499985 zlo zhi
0.0 0.0 0.0 xy xz yz

Masses

1	14.00672
2	12.01078
3	1.007947
4	1.007947
5	15.99943
6	12.01078
7	1.007947
8	15.99943
9	1.007947


Pair Coeffs

1	0.16769152	3.206876
2	0.086879315	3.4806469
3	0.015611343	2.5725815
4	0.014090815	1.1034277
5	0.2102061	3.0398122
6	0.10884061	3.3795318
7	0.015779483	2.6445434
8	0.20947353	2.99716
9	1.2326e-05	0.53453923

Bond Coeffs

1 harmonic	390.03554688505	1.390160554689
2 harmonic	505.144496193	1.019481865027
3 harmonic	422.7150220147	1.421786517481
4 harmonic	360.7852444772	1.387193227181
5 harmonic	397.2545789619	1.085358495916
6 harmonic	492.76746816345	1.381897776683
7 harmonic	582.698766451	1.225198386222
8 harmonic	279.1350963404	1.454628925034
9 harmonic	289.73813263395	1.498646816465
10 harmonic	264.62148576755	1.52190126495
11 harmonic	370.04670688625	1.093899492634
12 harmonic	385.7604595587	1.369745182308
13 harmonic	543.5267831885	0.9716763312559


Angle Coeffs

1 harmonic	57.8982893754	126.8062420451
2 harmonic	55.42182150775	117.3465570514
3 harmonic	63.44422595415	115.5071327674
4 harmonic	34.066775159195	129.1835929926
5 harmonic	53.20531626545	116.5475862634
6 harmonic	14.32262199324	138.3184368373
7 harmonic	48.776492647595	115.6030999533
8 harmonic	65.09061609600001	110.3538806181
9 harmonic	201.41175231035	127.4691416191


Dihedral Coeffs

1 fourier 1	3.661930099076	2	180
2 fourier 1	1.193093382682	2	180
3 fourier 1	0.02021088501612	1	0
4 fourier 1	3.101948770557	2	180
5 fourier 1	-0.4252153282372	1	0
6 fourier 1	1.809047390003	2	180
7 fourier 1	-0.04816277792592	1	0
8 fourier 1	0.9974165607242	2	180
9 fourier 1	2.348375642009	2	180
10 fourier 1	1.256156174911	1	0
11 fourier 1	0.02664938770063	3	0
12 fourier 1	0.1155372516788	3	0
13 fourier 1	0.09223874044423	3	0
14 fourier 1	0.3159935921949	2	180
15 fourier 1	0.3247796806857	1	180
16 fourier 1	0.1040663847541	3	0
17 fourier 1	2.687457892086	2	180
18 fourier 1	2.772607909663	2	180
19 fourier 1	0.09692684957115	1	0


Improper Coeffs

1 0.3666666666666667	-1	2
2 0.3333333333333333	-1	2
3 3.5	-1	2


Atoms

1	1	1	-0.42834201	-2.2550001	-1.0930001	-0.87300003
2	1	2	0.149964	-1.151	-0.303	-0.42399999
3	1	2	-0.45082301	-1.256	1.034	-0.34900001
4	1	3	0.224711	-2.178	1.531	-0.62699997
5	1	2	-0.058299001	-0.112	1.844	0.115
6	1	3	0.228048	-0.204	2.921	0.17299999
7	1	2	-0.434865	1.035	1.249	0.463
8	1	3	0.222634	1.8710001	1.849	0.80299997
9	1	2	0.239418	1.163	-0.22499999	0.38499999
10	1	1	-0.54991901	2.391	-0.85500002	0.75800002
11	1	4	0.319507	3.201	-0.28299999	1.086
12	1	2	-0.49162	0.121	-0.95999998	-0.037999999
13	1	3	0.22634	0.20299999	-2.0380001	-0.1
14	1	4	0.37281901	-3.1589999	-0.64899999	-1.149
15	1	2	0.76820397	2.5039999	-1.911	0.70899999
16	1	5	-0.65826797	3.2720001	-2.4809999	1.529
17	1	2	-0.37097201	1.771	-2.6900001	-0.30500001
18	1	2	-0.079588003	0.958	-2.0680001	-1.173
19	1	3	0.224075	0.83399999	-0.99199998	-1.141
20	1	2	-0.249796	0.219	-2.839	-2.194
21	1	3	0.214086	-0.40200001	-2.279	-2.878
22	1	2	-0.21054401	0.322	-4.1849999	-2.2579999
23	1	6	0.024672	-0.396	-5.027	-3.326
24	1	6	-0.131678	-1.5700001	-4.296	-4.0209999
25	1	7	0.087333001	-1.201	-3.457	-4.6479998
26	1	7	0.087333001	-2.1229999	-4.9889998	-4.691
27	1	7	0.087333001	-2.2850001	-3.898	-3.2690001
28	1	2	-0.12582301	-0.93099999	-6.289	-2.723
29	1	2	-0.15322199	-1.789	-6.3959999	-1.698
30	1	3	0.21343701	-2.1659999	-5.5149999	-1.194
31	1	2	-0.001224	-2.2160001	-7.7459998	-1.26
32	1	3	0.21426401	-2.904	-7.8309999	-0.42699999
33	1	2	-0.34613499	-1.757	-8.8459997	-1.892
34	1	2	0.58573502	-2.1889999	-10.184	-1.452
35	1	5	-0.51617599	-1.77	-11.221	-2.0309999
36	1	2	0.069844	-0.81300002	-8.6929998	-3.036
37	1	3	0.208038	-0.44299999	-9.5620003	-3.5650001
38	1	2	-0.181675	-0.43000001	-7.461	-3.404
39	1	6	-0.027432	0.48500001	-7.0890002	-4.526
40	1	6	-0.131271	-0.153	-7.467	-5.8759999
41	1	7	0.091573998	-0.29100001	-8.5670004	-5.9510002
42	1	7	0.091573998	-1.145	-6.9809999	-5.9899998
43	1	7	0.091573998	0.498	-7.1399999	-6.7150002
44	1	6	-0.131271	1.853	-7.7820001	-4.3699999
45	1	7	0.091573998	1.753	-8.8839998	-4.4689999
46	1	7	0.091573998	2.2920001	-7.559	-3.3729999
47	1	7	0.091573998	2.556	-7.4250002	-5.1529999
48	1	6	-0.181364	0.62599999	-5.5380001	-4.3940001
49	1	7	0.12977099	0.47799999	-5.033	-5.3740001
50	1	7	0.12977099	1.664	-5.2709999	-4.092
51	1	2	-0.249796	1.249	-4.8610001	-1.3049999
52	1	3	0.214086	1.391	-5.9330001	-1.353
53	1	2	-0.079588003	1.924	-4.1609998	-0.38600001
54	1	3	0.224075	2.589	-4.6799998	0.29300001
55	1	1	-0.42834201	-2.1719999	-2.132	-0.93099999
56	1	2	0.186988	-2.1199999	-2.9230001	0.259
57	1	2	-0.45082301	-2.0139999	-4.2600002	0.185
58	1	3	0.224711	-1.967	-4.756	-0.77600002
59	1	2	-0.0051600002	-1.961	-5.0700002	1.419
60	1	3	0.228048	-1.875	-6.1469998	1.352
61	1	2	-0.481484	-2.0179999	-4.4749999	2.6170001
62	1	3	0.22849	-1.978	-5.0739999	3.517
63	1	2	0.339349	-2.135	-3.0009999	2.711
64	1	1	-0.85483998	-2.1949999	-2.3710001	3.993
65	1	4	0.36641201	-2.2780001	-1.3329999	4.0809999
66	1	4	0.36641201	-2.158	-2.9430001	4.8660002
67	1	2	-0.52606499	-2.1830001	-2.266	1.587
68	1	3	0.236981	-2.2690001	-1.188	1.6440001
69	1	4	0.37281901	-2.1289999	-2.576	-1.876
70	1	2	0.59123898	-2.8759999	-10.289	-0.62199998
71	1	5	-0.52658802	-2.7639999	-9.5120001	0.36399999
72	1	2	-0.334645	-3.918	-11.331	-0.662
73	1	2	0.0040440001	-4.7909999	-11.493	0.34599999
74	1	3	0.22187901	-4.756	-10.858	1.223
75	1	2	-0.24320801	-5.8239999	-12.546	0.27700001
76	1	3	0.214086	-6.52	-12.631	1.102
77	1	2	-0.21054401	-5.9060001	-13.378	-0.78500003
78	1	6	0.024672	-7.0110002	-14.447	-0.83899999
79	1	6	-0.131678	-6.8179998	-15.472	-1.98
80	1	7	0.087333001	-5.816	-15.949	-1.915
81	1	7	0.087333001	-6.9239998	-14.984	-2.9719999
82	1	7	0.087333001	-7.585	-16.275	-1.92
83	1	2	-0.12582301	-7.086	-15.2	0.454
84	1	2	-0.172515	-6.0999999	-15.883	1.051
85	1	3	0.21343701	-5.1110001	-15.928	0.61400002
86	1	2	-0.062043998	-6.3829999	-16.580999	2.3269999
87	1	3	0.23067699	-5.579	-17.125999	2.806
88	1	2	-0.227883	-7.619	-16.537001	2.875
89	1	2	0.835208	-7.9180002	-17.231001	4.1459999
90	1	5	-0.48083201	-7.0219998	-17.881001	4.7490001
91	1	8	-0.664599	-9.1990004	-17.17	4.6880002
92	1	9	0.417766	-9.4180002	-17.641001	5.5580001
93	1	2	0.0046379999	-8.6949997	-15.776	2.178
94	1	3	0.223364	-9.6949997	-15.736	2.5880001
95	1	2	-0.175843	-8.4099998	-15.141	1.03
96	1	6	-0.027432	-9.3430004	-14.345	0.17399999
97	1	6	-0.131271	-9.9849997	-13.201	0.98299998
98	1	7	0.091573998	-10.642	-13.602	1.784
99	1	7	0.091573998	-9.2019997	-12.569	1.456
100	1	7	0.091573998	-10.601	-12.559	0.317
101	1	6	-0.131271	-10.433	-15.261	-0.412
102	1	7	0.091573998	-9.9759998	-16.096001	-0.986
103	1	7	0.091573998	-11.061	-15.694	0.396
104	1	7	0.091573998	-11.094	-14.685	-1.096
105	1	6	-0.181364	-8.4230003	-13.781	-0.95700002
106	1	7	0.12977099	-8.8699999	-13.95	-1.9630001
107	1	7	0.12977099	-8.3380003	-12.675	-0.87
108	1	2	-0.24320801	-4.941	-13.176	-1.906
109	1	3	0.214086	-4.9699998	-13.794	-2.7920001
110	1	2	0.0040440001	-4.0079999	-12.218	-1.842
111	1	3	0.22187901	-3.3169999	-12.091	-2.6670001

Bonds

1	1	1	2
2	2	1	14
3	3	1	55
4	4	2	3
5	4	2	12
6	5	3	4
7	4	3	5
8	5	5	6
9	4	5	7
10	5	7	8
11	4	7	9
12	1	9	10
13	4	9	12
14	2	10	11
15	6	10	15
16	5	12	13
17	7	15	16
18	8	15	17
19	4	17	18
20	4	17	53
21	5	18	19
22	4	18	20
23	5	20	21
24	4	20	22
25	9	22	23
26	4	22	51
27	10	23	24
28	9	23	28
29	10	23	48
30	11	24	25
31	11	24	26
32	11	24	27
33	4	28	29
34	4	28	38
35	5	29	30
36	4	29	31
37	5	31	32
38	4	31	33
39	8	33	34
40	4	33	36
41	7	34	35
42	8	34	70
43	5	36	37
44	4	36	38
45	9	38	39
46	10	39	40
47	10	39	44
48	10	39	48
49	11	40	41
50	11	40	42
51	11	40	43
52	11	44	45
53	11	44	46
54	11	44	47
55	11	48	49
56	11	48	50
57	5	51	52
58	4	51	53
59	5	53	54
60	1	55	56
61	2	55	69
62	4	56	57
63	4	56	67
64	5	57	58
65	4	57	59
66	5	59	60
67	4	59	61
68	5	61	62
69	4	61	63
70	1	63	64
71	4	63	67
72	2	64	65
73	2	64	66
74	5	67	68
75	7	70	71
76	8	70	72
77	4	72	73
78	4	72	110
79	5	73	74
80	4	73	75
81	5	75	76
82	4	75	77
83	9	77	78
84	4	77	108
85	10	78	79
86	9	78	83
87	10	78	105
88	11	79	80
89	11	79	81
90	11	79	82
91	4	83	84
92	4	83	95
93	5	84	85
94	4	84	86
95	5	86	87
96	4	86	88
97	8	88	89
98	4	88	93
99	7	89	90
100	12	89	91
101	13	91	92
102	5	93	94
103	4	93	95
104	9	95	96
105	10	96	97
106	10	96	101
107	10	96	105
108	11	97	98
109	11	97	99
110	11	97	100
111	11	101	102
112	11	101	103
113	11	101	104
114	11	105	106
115	11	105	107
116	5	108	109
117	4	108	110
118	5	110	111

Angles

1	1	34	70	72
2	5	79	78	83
3	5	39	44	46
4	3	14	1	55
5	1	1	2	12
6	1	61	63	67
7	7	80	79	81
8	1	20	22	51
9	1	75	77	78
10	4	57	59	60
11	1	57	56	67
12	4	17	18	19
13	1	33	34	35
14	4	8	7	9
15	1	86	88	93
16	4	19	18	20
17	4	56	67	68
18	1	83	84	86
19	1	33	34	70
20	5	77	78	83
21	1	84	86	88
22	4	59	61	62
23	7	49	48	50
24	7	106	105	107
25	7	46	44	47
26	4	94	93	95
27	1	86	88	89
28	1	57	59	61
29	4	21	20	22
30	1	7	9	12
31	4	37	36	38
32	5	77	78	79
33	5	24	23	48
34	7	25	24	26
35	1	17	18	20
36	1	20	22	23
37	7	26	24	27
38	5	96	101	104
39	4	17	53	54
40	4	109	108	110
41	4	51	53	54
42	1	18	20	22
43	4	60	59	61
44	4	88	93	94
45	7	102	101	103
46	3	63	64	65
47	5	78	105	107
48	4	33	36	37
49	4	22	51	52
50	4	73	75	76
51	4	32	31	33
52	1	72	73	75
53	1	10	15	16
54	4	58	57	59
55	4	74	73	75
56	7	25	24	27
57	2	1	55	56
58	4	62	61	63
59	3	11	10	15
60	4	9	12	13
61	5	39	40	41
62	5	23	48	49
63	5	83	78	105
64	5	78	79	80
65	7	103	101	104
66	5	40	39	44
67	1	88	93	95
68	7	102	101	104
69	3	63	64	66
70	1	73	72	110
71	5	96	105	106
72	1	33	36	38
73	5	96	97	100
74	1	22	51	53
75	8	89	91	92
76	5	38	39	48
77	4	108	110	111
78	1	17	53	51
79	1	10	9	12
80	5	23	24	27
81	5	39	44	47
82	1	83	95	93
83	1	28	38	39
84	7	80	79	82
85	5	39	40	42
86	1	72	110	108
87	1	84	83	95
88	1	88	89	90
89	5	78	79	81
90	3	56	55	69
91	5	38	39	44
92	1	31	33	36
93	4	63	67	68
94	5	96	105	107
95	5	79	78	105
96	5	96	101	102
97	1	78	77	108
98	1	18	17	53
99	5	38	39	40
100	1	59	61	63
101	1	7	9	10
102	4	3	5	6
103	1	55	56	67
104	1	88	89	91
105	7	81	79	82
106	1	3	2	12
107	5	78	105	96
108	1	29	28	38
109	6	23	28	29
110	5	40	39	48
111	5	39	48	49
112	4	29	31	32
113	4	56	57	58
114	4	76	75	77
115	4	2	3	4
116	3	2	1	14
117	1	89	88	93
118	4	30	29	31
119	4	5	7	8
120	7	99	97	100
121	1	3	5	7
122	1	23	22	51
123	4	28	29	30
124	1	15	17	53
125	1	73	75	77
126	1	75	77	108
127	4	2	12	13
128	1	10	15	17
129	7	41	40	42
130	6	36	38	39
131	5	39	48	50
132	1	34	70	71
133	7	45	44	46
134	2	9	10	15
135	1	56	67	63
136	1	29	31	33
137	5	44	39	48
138	1	56	57	59
139	1	71	70	72
140	1	78	83	95
141	4	87	86	88
142	5	23	48	50
143	9	90	89	91
144	5	101	96	105
145	1	5	7	9
146	1	34	33	36
147	1	15	17	18
148	3	9	10	11
149	5	28	23	48
150	1	35	34	70
151	6	93	95	96
152	4	52	51	53
153	4	84	86	87
154	5	97	96	105
155	7	45	44	47
156	1	55	56	57
157	5	39	40	43
158	7	98	97	99
159	1	1	2	3
160	1	23	28	38
161	5	78	79	82
162	1	61	63	64
163	5	97	96	101
164	5	77	78	105
165	1	70	72	73
166	1	28	38	36
167	5	96	101	103
168	4	77	108	109
169	5	95	96	105
170	1	16	15	17
171	4	18	20	21
172	1	2	12	9
173	3	1	55	69
174	7	98	97	100
175	5	78	105	106
176	5	96	97	98
177	5	22	23	48
178	4	72	73	74
179	5	95	96	101
180	5	23	24	25
181	7	42	40	43
182	3	65	64	66
183	5	22	23	28
184	5	39	44	45
185	1	70	72	110
186	1	77	108	110
187	1	2	3	5
188	5	24	23	28
189	6	78	83	84
190	5	23	48	39
191	5	95	96	97
192	1	31	33	34
193	1	28	29	31
194	4	4	3	5
195	1	64	63	67
196	2	2	1	55
197	1	83	95	96
198	5	22	23	24
199	4	72	110	111
200	4	85	84	86
201	5	96	97	99
202	4	6	5	7
203	4	83	84	85
204	7	41	40	43
205	5	23	24	26

Dihedrals

1	16	99	97	96	101
2	1	10	9	12	13
3	1	64	63	67	68
4	2	67	56	55	69
5	1	56	57	59	60
6	1	28	38	36	33
7	1	86	88	93	95
8	1	22	51	53	54
9	13	23	48	39	40
9	14	23	48	39	40
9	15	23	48	39	40
10	1	17	18	20	21
11	1	4	3	5	7
12	1	84	86	88	93
13	1	78	83	95	93
14	1	8	7	9	12
15	11	93	95	96	105
16	2	65	64	63	67
17	16	81	79	78	105
18	11	77	78	83	95
19	1	83	95	93	88
20	1	1	2	12	9
21	1	52	51	53	54
22	2	61	63	64	65
23	12	22	23	24	27
24	16	79	78	105	107
25	1	70	72	110	108
26	11	38	28	23	48
27	12	83	78	105	96
28	16	40	39	44	46
29	12	38	39	44	47
30	1	29	28	38	36
31	1	1	2	3	5
32	1	23	28	29	31
33	16	97	96	101	103
34	1	30	29	31	32
35	1	59	61	63	67
36	1	5	7	9	10
37	12	95	96	97	98
38	1	18	17	53	54
39	1	72	73	75	76
40	1	58	57	59	60
41	1	6	5	7	8
42	1	77	108	110	111
43	2	1	55	56	67
44	12	22	23	48	50
45	8	16	15	17	53
46	12	77	78	105	96
47	1	83	84	86	88
48	16	24	23	48	49
49	2	7	9	10	11
50	12	28	23	48	49
51	16	27	24	23	48
52	16	98	97	96	101
53	1	15	17	53	54
54	11	22	23	28	38
55	12	27	24	23	28
56	8	35	34	70	71
57	1	32	31	33	36
58	1	87	86	88	89
59	1	21	20	22	23
60	11	75	77	78	105
61	1	62	61	63	67
62	1	5	7	9	12
63	16	47	44	39	48
64	1	57	59	61	63
65	1	3	2	12	13
66	16	40	39	48	50
67	1	85	84	83	95
68	11	83	95	96	105
69	12	77	78	79	80
70	1	73	75	77	78
71	12	83	78	105	106
72	12	80	79	78	83
73	8	90	89	88	93
74	1	1	2	3	4
75	16	41	40	39	44
76	16	97	96	105	107
77	1	23	28	29	30
78	1	78	83	95	96
79	11	36	38	39	48
80	1	78	77	108	109
81	16	100	97	96	101
82	12	95	96	101	102
83	1	70	72	110	111
84	11	29	28	23	48
85	11	83	78	77	108
86	1	83	84	86	87
87	1	84	86	88	89
88	1	23	22	51	53
89	1	85	84	86	88
90	13	24	23	48	39
90	14	24	23	48	39
90	15	24	23	48	39
91	1	109	108	110	111
92	11	93	95	96	101
93	16	44	39	48	50
94	1	89	88	93	94
95	1	73	72	110	108
96	2	12	2	1	55
97	1	19	18	20	21
98	1	2	3	5	7
99	12	23	48	39	38
100	1	29	31	33	36
101	11	79	78	83	95
102	1	7	9	12	13
103	11	84	83	78	105
104	1	60	59	61	63
105	11	28	38	39	44
106	16	40	39	48	49
107	1	73	75	77	108
108	12	82	79	78	83
109	11	77	78	83	84
110	1	84	83	95	96
111	13	79	78	105	96
111	14	79	78	105	96
111	15	79	78	105	96
112	6	9	10	15	17
112	7	9	10	15	17
113	12	38	39	40	42
114	11	105	78	77	108
115	2	12	2	1	14
116	1	17	53	51	52
117	8	86	88	89	90
118	16	45	44	39	48
119	8	16	15	17	18
120	11	28	38	39	48
121	12	95	96	105	106
122	2	12	9	10	15
123	2	57	56	55	69
124	11	83	95	96	97
125	1	34	33	36	38
126	3	14	1	55	56
127	1	1	2	12	13
128	8	36	33	34	70
129	1	74	73	75	77
130	1	3	5	7	9
131	12	78	105	96	95
132	16	104	101	96	105
133	12	22	23	48	39
134	1	78	83	84	86
135	1	85	84	86	87
136	1	31	29	28	38
137	1	30	29	28	38
138	8	34	70	72	110
139	1	83	95	93	94
140	11	83	95	96	101
141	12	95	96	97	100
142	1	72	110	108	77
143	1	75	77	108	110
144	1	84	83	95	93
145	16	101	96	105	107
146	1	2	3	5	6
147	1	86	88	93	94
148	18	90	89	91	92
148	19	90	89	91	92
149	1	33	36	38	39
150	1	4	3	5	6
151	1	3	2	12	9
152	11	36	38	39	44
153	1	60	59	61	62
154	1	55	56	57	59
155	11	75	77	78	83
156	1	70	72	73	75
157	1	73	72	110	111
158	3	2	1	55	56
159	12	22	23	24	26
160	16	79	78	105	106
161	1	56	57	59	61
162	16	40	39	44	45
163	12	38	39	44	46
164	12	38	39	40	41
165	11	20	22	23	28
166	13	78	105	96	101
166	14	78	105	96	101
166	15	78	105	96	101
167	1	23	28	38	36
168	16	46	44	39	48
169	1	17	18	20	22
170	11	79	78	77	108
171	16	97	96	101	102
172	8	91	89	88	93
173	1	76	75	77	78
174	11	93	95	96	97
175	1	17	53	51	22
176	16	25	24	23	48
177	12	77	78	79	82
178	1	4	3	2	12
179	2	61	63	64	66
180	12	25	24	23	28
181	1	2	12	9	7
182	8	33	34	70	72
183	1	74	73	75	76
184	1	3	5	7	8
185	1	59	57	56	67
186	1	59	61	63	64
187	1	58	57	56	67
188	12	22	23	48	49
189	1	78	83	84	85
190	6	11	10	15	17
190	7	11	10	15	17
191	1	8	7	9	10
192	2	11	10	9	12
193	2	66	64	63	67
194	16	42	40	39	48
195	1	18	20	22	51
196	1	55	56	67	68
197	11	28	38	39	40
198	12	95	96	101	104
199	12	95	96	97	99
200	1	37	36	38	39
201	11	24	23	28	29
202	1	72	73	75	77
203	1	57	56	67	63
204	1	29	31	33	34
205	1	61	63	67	68
206	11	79	78	83	84
207	2	3	2	1	55
208	8	35	34	33	36
209	1	55	56	57	58
210	1	56	67	63	64
211	1	57	59	61	62
212	8	10	15	17	53
213	1	94	93	95	96
214	1	74	73	72	110
215	1	70	72	73	74
216	12	81	79	78	83
217	12	22	23	24	25
218	8	34	70	72	73
219	2	1	55	56	57
220	12	38	39	48	50
221	8	35	34	70	72
222	12	38	39	44	45
223	1	62	61	63	64
224	1	2	12	9	10
225	1	76	75	77	108
226	16	97	96	105	106
227	1	20	22	51	53
228	16	82	79	78	105
229	16	99	97	96	105
230	12	77	78	79	81
231	12	83	78	105	107
232	16	43	40	39	44
233	8	71	70	72	73
234	1	28	38	36	37
235	8	33	34	70	71
236	13	23	48	39	44
236	14	23	48	39	44
236	15	23	48	39	44
237	1	23	28	38	39
238	2	3	2	1	14
239	3	14	1	55	69
240	16	103	101	96	105
241	1	55	56	67	63
242	1	31	33	36	38
243	1	23	22	51	52
244	9	11	10	15	16
244	10	11	10	15	16
245	16	44	39	48	49
246	11	36	38	39	40
247	1	56	67	63	61
248	11	75	77	78	79
249	1	78	77	108	110
250	12	95	96	101	103
251	1	15	17	18	20
252	16	43	40	39	48
253	1	19	18	17	53
254	11	48	23	22	51
255	11	20	22	23	24
256	13	78	105	96	97
256	14	78	105	96	97
256	15	78	105	96	97
257	8	31	33	34	35
258	1	32	31	33	34
259	12	77	78	105	107
260	1	57	56	67	68
261	1	28	29	31	33
262	8	31	33	34	70
263	1	89	88	93	95
264	11	24	23	22	51
265	8	71	70	72	110
266	1	18	20	22	23
267	1	19	18	20	22
268	11	22	23	28	29
269	1	86	84	83	95
270	11	20	22	23	48
271	12	38	39	48	49
272	4	9	10	15	16
272	5	9	10	15	16
273	3	2	1	55	69
274	1	20	22	51	52
275	2	7	9	10	15
276	1	88	93	95	96
277	16	42	40	39	44
278	16	98	97	96	105
279	1	34	33	36	37
280	16	80	79	78	105
281	1	18	17	53	51
282	16	40	39	44	47
283	11	95	83	78	105
284	16	26	24	23	48
285	1	5	3	2	12
286	12	38	39	40	43
287	17	88	89	91	92
288	12	26	24	23	28
289	1	87	86	88	93
290	16	97	96	101	104
291	1	30	29	31	33
292	1	31	33	36	37
293	8	86	88	89	91
294	1	20	18	17	53
295	12	95	96	105	107
296	1	15	17	18	19
297	1	75	77	108	109
298	1	15	17	53	51
299	11	24	23	28	38
300	8	10	15	17	18
301	1	58	57	59	61
302	16	101	96	105	106
303	1	6	5	7	9
304	1	29	28	38	39
305	11	28	23	22	51
306	1	21	20	22	51
307	16	41	40	39	48
308	12	77	78	105	106
309	1	28	29	31	32
310	16	24	23	48	50
311	1	72	110	108	109
312	12	28	23	48	50
313	1	75	73	72	110
314	16	102	101	96	105
315	12	28	23	48	39
316	16	100	97	96	105

Impropers

4	1	70	71	72	34
7	1	57	59	56	58
8	1	67	56	63	68
15	1	2	1	3	12
16	1	28	29	38	23
21	1	28	23	29	38
26	1	7	5	8	9
29	1	59	61	57	60
34	1	93	88	94	95
36	1	20	22	18	21
39	1	72	110	70	73
46	1	34	70	33	35
52	1	63	67	61	64
55	1	29	28	30	31
57	1	7	8	9	5
58	1	77	75	78	108
61	2	10	11	15	9
64	1	108	110	77	109
68	1	15	16	17	10
69	1	38	28	36	39
75	1	5	7	3	6
76	1	61	62	63	59
94	1	51	53	22	52
101	1	56	57	67	55
103	1	110	108	111	72
104	1	51	22	52	53
112	1	56	67	55	57
113	2	55	69	1	56
117	1	12	13	2	9
127	1	2	3	12	1
128	1	31	32	33	29
132	1	75	73	76	77
134	1	22	23	51	20
135	1	38	36	39	28
140	1	18	19	20	17
155	1	88	86	89	93
156	2	1	55	2	14
164	2	10	15	9	11
166	1	86	88	84	87
180	1	29	30	31	28
183	1	110	72	108	111
186	1	31	33	29	32
192	1	18	20	17	19
198	1	77	78	108	75
203	1	57	58	59	56
205	1	83	95	78	84
211	1	34	33	35	70
212	1	86	84	87	88
213	1	3	4	5	2
216	1	108	109	110	77
219	1	88	93	86	89
221	1	75	77	73	76
222	2	64	65	66	63
226	1	110	111	72	108
231	1	3	5	2	4
235	2	64	63	65	66
241	1	84	83	85	86
243	1	63	64	67	61
246	2	1	14	55	2
251	1	33	34	36	31
253	1	33	36	31	34
257	1	70	34	71	72
261	1	22	51	20	23
264	2	55	1	56	69
265	1	5	6	7	3
269	1	67	63	68	56
275	1	88	89	93	86
276	1	59	57	60	61
278	1	36	37	38	33
283	1	51	52	53	22
288	1	3	2	4	5
298	1	56	55	57	67
300	1	38	39	28	36
304	1	67	68	56	63
306	1	28	38	23	29
316	1	86	87	88	84
321	1	7	9	5	8
323	1	20	21	22	18
339	1	15	17	10	16
342	1	12	2	9	13
343	1	53	51	54	17
346	1	33	31	34	36
349	2	64	66	63	65
351	1	36	33	37	38
352	3	89	91	88	90
355	1	9	7	10	12
356	1	29	31	28	30
357	1	95	93	96	83
359	2	1	2	14	55
373	1	72	73	110	70
375	1	84	86	83	85
379	1	63	61	64	67
383	1	61	59	62	63
389	1	2	12	1	3
390	1	84	85	86	83
396	1	12	9	13	2
398	1	73	75	72	74
402	1	36	38	33	37
404	1	22	20	23	51
407	1	83	84	95	78
411	3	89	90	91	88
415	3	89	88	90	91
416	1	5	3	6	7
417	1	83	78	84	95
418	1	53	17	51	54
422	1	93	95	88	94
436	1	53	54	17	51
439	1	31	29	32	33
441	1	70	72	34	71
443	2	10	9	11	15
444	1	17	53	15	18
448	1	95	96	83	93
450	1	17	15	18	53
453	1	77	108	75	78
455	1	95	83	93	96
468	1	73	74	75	72
469	1	57	56	58	59
476	1	18	17	19	20
477	1	17	18	53	15
478	1	20	18	21	22
482	2	55	56	69	1
488	1	93	94	95	88
497	1	73	72	74	75
504	1	61	63	59	62
508	1	9	12	7	10
517	1	72	70	73	110
519	1	59	60	61	57
522	1	9	10	12	7
527	1	34	35	70	33
536	1	108	77	109	110
544	1	75	76	77	73
548	1	15	10	16	17
