Title

111 atoms
118 bonds
205 angles
333 dihedrals
132 impropers

9 atom types
13 bond types
9 angle types
19 dihedral types
3 improper types
-11.09399986 88.90600014 xlo xhi
-17.88100052 82.11899948 ylo yhi
-6.715000153 93.28499985 zlo zhi
0.0 0.0 0.0 xy xz yz

Masses

1	14.00672
2	12.01078
3	1.007947
4	1.007947
5	15.99943
6	12.01078
7	1.007947
8	15.99943
9	1.007947


Pair Coeffs

1	0.16769152	3.206876
2	0.086879315	3.4806469
3	0.015611343	2.5725815
4	0.014090815	1.1034277
5	0.2102061	3.0398122
6	0.10884061	3.3795318
7	0.015779483	2.6445434
8	0.20947353	2.99716
9	1.2326e-05	0.53453923

Bond Coeffs

1 harmonic	390.03554688505	1.390160554689
2 harmonic	505.144496193	1.019481865027
3 harmonic	422.7150220147	1.421786517481
4 harmonic	360.7852444772	1.387193227181
5 harmonic	397.2545789619	1.085358495916
6 harmonic	492.76746816345	1.381897776683
7 harmonic	582.698766451	1.225198386222
8 harmonic	279.1350963404	1.454628925034
9 harmonic	289.73813263395	1.498646816465
10 harmonic	264.62148576755	1.52190126495
11 harmonic	370.04670688625	1.093899492634
12 harmonic	385.7604595587	1.369745182308
13 harmonic	543.5267831885	0.9716763312559


Angle Coeffs

1 harmonic	57.8982893754	126.8062420451
2 harmonic	55.42182150775	117.3465570514
3 harmonic	63.44422595415	115.5071327674
4 harmonic	34.066775159195	129.1835929926
5 harmonic	53.20531626545	116.5475862634
6 harmonic	14.32262199324	138.3184368373
7 harmonic	48.776492647595	115.6030999533
8 harmonic	65.09061609600001	110.3538806181
9 harmonic	201.41175231035	127.4691416191


Dihedral Coeffs

1 fourier 1	3.661930099076	2	180
2 fourier 1	1.193093382682	2	180
3 fourier 1	0.02021088501612	1	0
4 fourier 1	3.101948770557	2	180
5 fourier 1	-0.4252153282372	1	0
6 fourier 1	1.809047390003	2	180
7 fourier 1	-0.04816277792592	1	0
8 fourier 1	0.9974165607242	2	180
9 fourier 1	2.348375642009	2	180
10 fourier 1	1.256156174911	1	0
11 fourier 1	0.02664938770063	3	0
12 fourier 1	0.1155372516788	3	0
13 fourier 1	0.09223874044423	3	0
14 fourier 1	0.3159935921949	2	180
15 fourier 1	0.3247796806857	1	180
16 fourier 1	0.1040663847541	3	0
17 fourier 1	2.687457892086	2	180
18 fourier 1	2.772607909663	2	180
19 fourier 1	0.09692684957115	1	0


Improper Coeffs

1 0.3666666666666667	-1	2
2 0.3333333333333333	-1	2
3 3.5	-1	2


Atoms

1	1	1	-0.42834201	-2.2550001	-1.0930001	-0.87300003
2	1	2	0.149964	-1.151	-0.303	-0.42399999
3	1	2	-0.45082301	-1.256	1.034	-0.34900001
4	1	3	0.224711	-2.178	1.531	-0.62699997
5	1	2	-0.058299001	-0.112	1.844	0.115
6	1	3	0.228048	-0.204	2.921	0.17299999
7	1	2	-0.434865	1.035	1.249	0.463
8	1	3	0.222634	1.8710001	1.849	0.80299997
9	1	2	0.239418	1.163	-0.22499999	0.38499999
10	1	1	-0.54991901	2.391	-0.85500002	0.75800002
11	1	4	0.319507	3.201	-0.28299999	1.086
12	1	2	-0.49162	0.121	-0.95999998	-0.037999999
13	1	3	0.22634	0.20299999	-2.0380001	-0.1
14	1	4	0.37281901	-3.1589999	-0.64899999	-1.149
15	1	2	0.76820397	2.5039999	-1.911	0.70899999
16	1	5	-0.65826797	3.2720001	-2.4809999	1.529
17	1	2	-0.37097201	1.771	-2.6900001	-0.30500001
18	1	2	-0.079588003	0.958	-2.0680001	-1.173
19	1	3	0.224075	0.83399999	-0.99199998	-1.141
20	1	2	-0.249796	0.219	-2.839	-2.194
21	1	3	0.214086	-0.40200001	-2.279	-2.878
22	1	2	-0.21054401	0.322	-4.1849999	-2.2579999
23	1	6	0.024672	-0.396	-5.027	-3.326
24	1	6	-0.131678	-1.5700001	-4.296	-4.0209999
25	1	7	0.087333001	-1.201	-3.457	-4.6479998
26	1	7	0.087333001	-2.1229999	-4.9889998	-4.691
27	1	7	0.087333001	-2.2850001	-3.898	-3.2690001
28	1	2	-0.12582301	-0.93099999	-6.289	-2.723
29	1	2	-0.15322199	-1.789	-6.3959999	-1.698
30	1	3	0.21343701	-2.1659999	-5.5149999	-1.194
31	1	2	-0.001224	-2.2160001	-7.7459998	-1.26
32	1	3	0.21426401	-2.904	-7.8309999	-0.42699999
33	1	2	-0.34613499	-1.757	-8.8459997	-1.892
34	1	2	0.58573502	-2.1889999	-10.184	-1.452
35	1	5	-0.51617599	-1.77	-11.221	-2.0309999
36	1	2	0.069844	-0.81300002	-8.6929998	-3.036
37	1	3	0.208038	-0.44299999	-9.5620003	-3.5650001
38	1	2	-0.181675	-0.43000001	-7.461	-3.404
39	1	6	-0.027432	0.48500001	-7.0890002	-4.526
40	1	6	-0.131271	-0.153	-7.467	-5.8759999
41	1	7	0.091573998	-0.29100001	-8.5670004	-5.9510002
42	1	7	0.091573998	-1.145	-6.9809999	-5.9899998
43	1	7	0.091573998	0.498	-7.1399999	-6.7150002
44	1	6	-0.131271	1.853	-7.7820001	-4.3699999
45	1	7	0.091573998	1.753	-8.8839998	-4.4689999
46	1	7	0.091573998	2.2920001	-7.559	-3.3729999
47	1	7	0.091573998	2.556	-7.4250002	-5.1529999
48	1	6	-0.181364	0.62599999	-5.5380001	-4.3940001
49	1	7	0.12977099	0.47799999	-5.033	-5.3740001
50	1	7	0.12977099	1.664	-5.2709999	-4.092
51	1	2	-0.249796	1.249	-4.8610001	-1.3049999
52	1	3	0.214086	1.391	-5.9330001	-1.353
53	1	2	-0.079588003	1.924	-4.1609998	-0.38600001
54	1	3	0.224075	2.589	-4.6799998	0.29300001
55	1	1	-0.42834201	-2.1719999	-2.132	-0.93099999
56	1	2	0.186988	-2.1199999	-2.9230001	0.259
57	1	2	-0.45082301	-2.0139999	-4.2600002	0.185
58	1	3	0.224711	-1.967	-4.756	-0.77600002
59	1	2	-0.0051600002	-1.961	-5.0700002	1.419
60	1	3	0.228048	-1.875	-6.1469998	1.352
61	1	2	-0.481484	-2.0179999	-4.4749999	2.6170001
62	1	3	0.22849	-1.978	-5.0739999	3.517
63	1	2	0.339349	-2.135	-3.0009999	2.711
64	1	1	-0.85483998	-2.1949999	-2.3710001	3.993
65	1	4	0.36641201	-2.2780001	-1.3329999	4.0809999
66	1	4	0.36641201	-2.158	-2.9430001	4.8660002
67	1	2	-0.52606499	-2.1830001	-2.266	1.587
68	1	3	0.236981	-2.2690001	-1.188	1.6440001
69	1	4	0.37281901	-2.1289999	-2.576	-1.876
70	1	2	0.59123898	-2.8759999	-10.289	-0.62199998
71	1	5	-0.52658802	-2.7639999	-9.5120001	0.36399999
72	1	2	-0.334645	-3.918	-11.331	-0.662
73	1	2	0.0040440001	-4.7909999	-11.493	0.34599999
74	1	3	0.22187901	-4.756	-10.858	1.223
75	1	2	-0.24320801	-5.8239999	-12.546	0.27700001
76	1	3	0.214086	-6.52	-12.631	1.102
77	1	2	-0.21054401	-5.9060001	-13.378	-0.78500003
78	1	6	0.024672	-7.0110002	-14.447	-0.83899999
79	1	6	-0.131678	-6.8179998	-15.472	-1.98
80	1	7	0.087333001	-5.816	-15.949	-1.915
81	1	7	0.087333001	-6.9239998	-14.984	-2.9719999
82	1	7	0.087333001	-7.585	-16.275	-1.92
83	1	2	-0.12582301	-7.086	-15.2	0.454
84	1	2	-0.172515	-6.0999999	-15.883	1.051
85	1	3	0.21343701	-5.1110001	-15.928	0.61400002
86	1	2	-0.062043998	-6.3829999	-16.580999	2.3269999
87	1	3	0.23067699	-5.579	-17.125999	2.806
88	1	2	-0.227883	-7.619	-16.537001	2.875
89	1	2	0.835208	-7.9180002	-17.231001	4.1459999
90	1	5	-0.48083201	-7.0219998	-17.881001	4.7490001
91	1	8	-0.664599	-9.1990004	-17.17	4.6880002
92	1	9	0.417766	-9.4180002	-17.641001	5.5580001
93	1	2	0.0046379999	-8.6949997	-15.776	2.178
94	1	3	0.223364	-9.6949997	-15.736	2.5880001
95	1	2	-0.175843	-8.4099998	-15.141	1.03
96	1	6	-0.027432	-9.3430004	-14.345	0.17399999
97	1	6	-0.131271	-9.9849997	-13.201	0.98299998
98	1	7	0.091573998	-10.642	-13.602	1.784
99	1	7	0.091573998	-9.2019997	-12.569	1.456
100	1	7	0.091573998	-10.601	-12.559	0.317
101	1	6	-0.131271	-10.433	-15.261	-0.412
102	1	7	0.091573998	-9.9759998	-16.096001	-0.986
103	1	7	0.091573998	-11.061	-15.694	0.396
104	1	7	0.091573998	-11.094	-14.685	-1.096
105	1	6	-0.181364	-8.4230003	-13.781	-0.95700002
106	1	7	0.12977099	-8.8699999	-13.95	-1.9630001
107	1	7	0.12977099	-8.3380003	-12.675	-0.87
108	1	2	-0.24320801	-4.941	-13.176	-1.906
109	1	3	0.214086	-4.9699998	-13.794	-2.7920001
110	1	2	0.0040440001	-4.0079999	-12.218	-1.842
111	1	3	0.22187901	-3.3169999	-12.091	-2.6670001

Bonds

1	1	1	2
2	2	1	14
3	3	1	55
4	4	2	3
5	4	2	12
6	5	3	4
7	4	3	5
8	5	5	6
9	4	5	7
10	5	7	8
11	4	7	9
12	1	9	10
13	4	9	12
14	2	10	11
15	6	10	15
16	5	12	13
17	7	15	16
18	8	15	17
19	4	17	18
20	4	17	53
21	5	18	19
22	4	18	20
23	5	20	21
24	4	20	22
25	9	22	23
26	4	22	51
27	10	23	24
28	9	23	28
29	10	23	48
30	11	24	25
31	11	24	26
32	11	24	27
33	4	28	29
34	4	28	38
35	5	29	30
36	4	29	31
37	5	31	32
38	4	31	33
39	8	33	34
40	4	33	36
41	7	34	35
42	8	34	70
43	5	36	37
44	4	36	38
45	9	38	39
46	10	39	40
47	10	39	44
48	10	39	48
49	11	40	41
50	11	40	42
51	11	40	43
52	11	44	45
53	11	44	46
54	11	44	47
55	11	48	49
56	11	48	50
57	5	51	52
58	4	51	53
59	5	53	54
60	1	55	56
61	2	55	69
62	4	56	57
63	4	56	67
64	5	57	58
65	4	57	59
66	5	59	60
67	4	59	61
68	5	61	62
69	4	61	63
70	1	63	64
71	4	63	67
72	2	64	65
73	2	64	66
74	5	67	68
75	7	70	71
76	8	70	72
77	4	72	73
78	4	72	110
79	5	73	74
80	4	73	75
81	5	75	76
82	4	75	77
83	9	77	78
84	4	77	108
85	10	78	79
86	9	78	83
87	10	78	105
88	11	79	80
89	11	79	81
90	11	79	82
91	4	83	84
92	4	83	95
93	5	84	85
94	4	84	86
95	5	86	87
96	4	86	88
97	8	88	89
98	4	88	93
99	7	89	90
100	12	89	91
101	13	91	92
102	5	93	94
103	4	93	95
104	9	95	96
105	10	96	97
106	10	96	101
107	10	96	105
108	11	97	98
109	11	97	99
110	11	97	100
111	11	101	102
112	11	101	103
113	11	101	104
114	11	105	106
115	11	105	107
116	5	108	109
117	4	108	110
118	5	110	111

Angles

1	4	87	86	88
2	6	78	83	84
3	5	39	40	41
4	4	4	3	5
5	4	88	93	94
6	1	75	77	108
7	1	15	17	18
8	1	20	22	23
9	1	34	33	36
10	5	78	79	81
11	6	93	95	96
12	4	51	53	54
13	5	78	105	107
14	1	59	61	63
15	1	33	34	70
16	5	39	44	47
17	1	1	2	12
18	5	79	78	83
19	5	83	78	105
20	5	40	39	48
21	1	10	9	12
22	1	15	17	53
23	5	22	23	28
24	5	23	24	27
25	4	58	57	59
26	4	74	73	75
27	5	39	40	42
28	4	56	57	58
29	5	96	105	106
30	1	31	33	34
31	5	44	39	48
32	1	78	83	95
33	3	14	1	55
34	5	22	23	24
35	2	2	1	55
36	1	29	31	33
37	3	63	64	66
38	7	99	97	100
39	4	62	61	63
40	3	65	64	66
41	4	57	59	60
42	1	34	70	72
43	4	72	73	74
44	5	39	48	49
45	1	88	89	90
46	1	3	2	12
47	5	22	23	48
48	6	23	28	29
49	5	96	97	99
50	5	23	48	49
51	7	42	40	43
52	7	25	24	27
53	1	33	34	35
54	7	80	79	81
55	1	89	88	93
56	7	98	97	100
57	1	75	77	78
58	4	30	29	31
59	7	45	44	47
60	4	52	51	53
61	4	28	29	30
62	1	20	22	51
63	1	70	72	110
64	1	29	28	38
65	5	78	105	96
66	1	72	73	75
67	5	24	23	28
68	4	83	84	85
69	1	88	89	91
70	1	61	63	64
71	4	9	12	13
72	6	36	38	39
73	5	96	97	100
74	1	28	38	39
75	4	33	36	37
76	1	88	93	95
77	7	106	105	107
78	7	41	40	42
79	5	78	79	82
80	3	11	10	15
81	3	2	1	14
82	4	3	5	6
83	1	83	84	86
84	1	56	67	63
85	1	86	88	93
86	1	55	56	57
87	1	7	9	10
88	4	17	18	19
89	5	23	48	39
90	4	108	110	111
91	4	2	12	13
92	1	56	57	59
93	7	46	44	47
94	1	23	28	38
95	4	72	110	111
96	5	96	105	107
97	1	86	88	89
98	5	96	101	102
99	4	76	75	77
100	1	84	83	95
101	2	1	55	56
102	1	16	15	17
103	1	3	5	7
104	1	28	38	36
105	4	77	108	109
106	1	57	59	61
107	5	96	101	104
108	4	17	53	54
109	1	17	18	20
110	7	26	24	27
111	4	73	75	76
112	8	89	91	92
113	5	97	96	101
114	5	39	48	50
115	1	31	33	36
116	5	39	44	45
117	1	10	15	16
118	5	38	39	40
119	9	90	89	91
120	1	18	17	53
121	5	23	48	50
122	4	22	51	52
123	5	23	24	25
124	7	80	79	82
125	4	5	7	8
126	5	95	96	105
127	7	102	101	103
128	5	101	96	105
129	7	103	101	104
130	5	39	40	43
131	4	37	36	38
132	4	85	84	86
133	1	28	29	31
134	5	78	105	106
135	4	2	3	4
136	4	8	7	9
137	7	49	48	50
138	1	73	75	77
139	4	84	86	87
140	5	95	96	101
141	2	9	10	15
142	3	1	55	69
143	1	2	12	9
144	1	10	15	17
145	4	94	93	95
146	4	109	108	110
147	5	77	78	105
148	1	22	51	53
149	5	24	23	48
150	1	17	53	51
151	1	5	7	9
152	7	81	79	82
153	1	23	22	51
154	7	102	101	104
155	1	33	36	38
156	4	56	67	68
157	5	95	96	97
158	1	64	63	67
159	3	9	10	11
160	1	83	95	93
161	1	83	95	96
162	1	2	3	5
163	1	70	72	73
164	4	60	59	61
165	1	84	86	88
166	5	97	96	105
167	4	29	31	32
168	4	19	18	20
169	1	55	56	67
170	3	63	64	65
171	4	6	5	7
172	1	57	56	67
173	1	1	2	3
174	4	18	20	21
175	1	34	70	71
176	1	73	72	110
177	5	77	78	83
178	3	56	55	69
179	5	28	23	48
180	4	63	67	68
181	4	21	20	22
182	5	96	101	103
183	1	7	9	12
184	5	40	39	44
185	5	96	97	98
186	7	25	24	26
187	1	35	34	70
188	1	71	70	72
189	7	98	97	99
190	5	77	78	79
191	1	77	108	110
192	1	61	63	67
193	1	72	110	108
194	5	38	39	48
195	5	78	79	80
196	7	41	40	43
197	7	45	44	46
198	1	18	20	22
199	4	59	61	62
200	5	79	78	105
201	1	78	77	108
202	5	39	44	46
203	4	32	31	33
204	5	38	39	44
205	5	23	24	26

Dihedrals

1	2	1	55	56	57
2	1	75	73	72	110
3	1	86	88	93	95
4	1	58	57	59	61
5	16	40	39	48	49
6	1	28	29	31	33
7	1	34	33	36	38
8	1	19	18	17	53
9	1	78	77	108	110
10	11	79	78	77	108
11	12	82	79	78	83
12	1	62	61	63	67
13	11	24	23	22	51
14	12	77	78	105	96
15	1	109	108	110	111
16	12	22	23	24	27
17	12	77	78	79	82
18	1	23	28	38	36
19	16	25	24	23	48
20	12	38	39	40	43
21	16	47	44	39	48
22	1	57	59	61	62
23	16	43	40	39	48
24	11	36	38	39	44
25	12	81	79	78	83
26	1	6	5	7	8
27	1	70	72	110	111
28	12	26	24	23	28
29	16	97	96	105	106
30	1	83	95	93	94
31	12	22	23	48	49
32	1	73	75	77	108
33	1	18	17	53	54
34	12	95	96	105	107
35	1	3	2	12	13
36	11	93	95	96	97
37	12	95	96	101	102
38	1	18	20	22	51
39	1	89	88	93	95
40	1	83	84	86	87
41	16	26	24	23	48
42	1	4	3	5	7
43	1	59	61	63	67
44	16	44	39	48	49
45	1	15	17	53	51
46	1	20	18	17	53
47	12	28	23	48	49
48	1	28	38	36	33
49	2	66	64	63	67
50	1	8	7	9	12
51	11	79	78	83	95
52	1	75	77	108	109
53	1	55	56	67	68
54	11	75	77	78	83
55	11	22	23	28	38
56	16	100	97	96	105
57	11	93	95	96	101
58	1	78	83	95	96
59	1	15	17	18	20
60	2	12	9	10	15
61	16	40	39	44	47
62	12	38	39	40	42
63	1	78	77	108	109
64	12	78	105	96	95
65	1	64	63	67	68
66	11	29	28	23	48
67	1	70	72	110	108
68	16	104	101	96	105
69	1	20	22	51	52
70	11	28	38	39	40
71	8	90	89	88	93
72	12	38	39	44	46
73	1	3	5	7	9
74	11	83	95	96	101
75	12	22	23	48	39
76	1	84	86	88	89
77	1	85	84	86	88
78	1	78	83	84	86
79	12	77	78	79	81
80	16	99	97	96	101
81	1	84	83	95	96
82	8	35	34	70	71
83	16	97	96	101	104
84	1	7	9	12	13
85	8	10	15	17	18
86	12	95	96	105	106
87	11	83	95	96	105
88	1	70	72	73	74
89	1	84	86	88	93
90	11	38	28	23	48
91	1	89	88	93	94
92	8	71	70	72	110
93	1	23	28	29	31
94	1	4	3	5	6
95	1	18	20	22	23
96	1	22	51	53	54
97	8	16	15	17	18
98	1	4	3	2	12
99	16	101	96	105	107
100	1	57	56	67	63
101	1	5	7	9	12
102	16	79	78	105	107
103	11	20	22	23	28
104	1	32	31	33	36
105	12	95	96	97	100
106	1	58	57	56	67
107	6	9	10	15	17
107	7	9	10	15	17
108	8	36	33	34	70
109	16	80	79	78	105
110	16	43	40	39	44
111	1	15	17	53	54
112	12	38	39	48	50
113	1	87	86	88	93
114	12	38	39	44	45
115	1	3	5	7	8
116	1	23	22	51	53
117	12	27	24	23	28
118	1	19	18	20	22
119	16	98	97	96	105
120	11	84	83	78	105
121	1	52	51	53	54
122	1	78	83	84	85
123	1	56	57	59	60
124	1	74	73	75	77
125	1	77	108	110	111
126	2	65	64	63	67
127	12	83	78	105	107
128	16	97	96	101	103
129	1	72	73	75	77
130	1	3	2	12	9
131	11	24	23	28	29
132	11	75	77	78	79
133	16	100	97	96	101
134	11	79	78	83	84
135	1	2	12	9	7
136	1	30	29	31	33
137	8	71	70	72	73
138	11	28	23	22	51
139	16	79	78	105	106
140	11	77	78	83	84
141	1	1	2	12	13
142	1	86	84	83	95
143	11	105	78	77	108
144	12	23	48	39	38
145	18	90	89	91	92
145	19	90	89	91	92
146	16	102	101	96	105
147	12	95	96	101	104
148	11	83	95	96	97
149	1	2	3	5	7
150	4	9	10	15	16
150	5	9	10	15	16
151	1	86	88	93	94
152	1	17	53	51	22
153	1	58	57	59	60
154	1	28	29	31	32
155	1	34	33	36	37
156	11	77	78	83	95
157	11	83	78	77	108
158	8	91	89	88	93
159	3	14	1	55	56
160	2	11	10	9	12
161	12	38	39	48	49
162	1	23	22	51	52
163	1	19	18	20	21
164	2	7	9	10	15
165	1	29	31	33	36
166	2	57	56	55	69
167	12	22	23	24	26
168	2	3	2	1	55
169	1	21	20	22	51
170	1	85	84	83	95
171	1	76	75	77	78
172	1	74	73	75	76
173	13	78	105	96	97
173	14	78	105	96	97
173	15	78	105	96	97
174	11	75	77	78	105
175	3	14	1	55	69
176	1	94	93	95	96
177	1	55	56	67	63
178	11	20	22	23	24
179	1	57	59	61	63
180	1	88	93	95	96
181	13	24	23	48	39
181	14	24	23	48	39
181	15	24	23	48	39
182	1	30	29	31	32
183	13	78	105	96	101
183	14	78	105	96	101
183	15	78	105	96	101
184	16	46	44	39	48
185	1	29	28	38	36
186	2	61	63	64	66
187	16	97	96	105	107
188	13	23	48	39	44
188	14	23	48	39	44
188	15	23	48	39	44
189	1	87	86	88	89
190	13	79	78	105	96
190	14	79	78	105	96
190	15	79	78	105	96
191	16	98	97	96	101
192	1	73	72	110	108
193	1	83	95	93	88
194	16	24	23	48	50
195	1	2	3	5	6
196	1	55	56	57	59
197	1	83	84	86	88
198	1	15	17	18	19
199	8	31	33	34	70
200	8	34	70	72	73
201	16	40	39	44	46
202	12	38	39	40	41
203	16	42	40	39	48
204	11	20	22	23	48
205	2	3	2	1	14
206	1	33	36	38	39
207	12	28	23	48	50
208	1	60	59	61	63
209	1	75	77	108	110
210	1	17	53	51	52
211	12	22	23	24	25
212	1	59	57	56	67
213	1	85	84	86	87
214	12	77	78	79	80
215	1	72	110	108	109
216	11	28	38	39	48
217	8	10	15	17	53
218	1	21	20	22	23
219	16	27	24	23	48
220	12	25	24	23	28
221	1	17	18	20	22
222	1	20	22	51	53
223	12	83	78	105	96
224	12	77	78	105	107
225	12	38	39	44	47
226	1	8	7	9	10
227	11	48	23	22	51
228	1	76	75	77	108
229	11	24	23	28	38
230	16	41	40	39	48
231	6	11	10	15	17
231	7	11	10	15	17
232	8	16	15	17	53
233	1	74	73	72	110
234	1	56	67	63	61
235	16	82	79	78	105
236	1	23	28	29	30
237	8	35	34	70	72
238	1	31	33	36	38
239	2	61	63	64	65
240	16	101	96	105	106
241	1	1	2	12	9
242	8	34	70	72	110
243	8	35	34	33	36
244	3	2	1	55	56
245	1	1	2	3	5
246	1	70	72	73	75
247	2	7	9	10	11
248	16	81	79	78	105
249	12	95	96	97	99
250	16	24	23	48	49
251	1	55	56	57	58
252	8	33	34	70	72
253	11	36	38	39	48
254	16	40	39	44	45
255	8	86	88	89	91
256	1	29	28	38	39
257	1	72	110	108	77
258	2	12	2	1	55
259	1	62	61	63	64
260	1	60	59	61	62
261	13	23	48	39	40
261	14	23	48	39	40
261	15	23	48	39	40
262	3	2	1	55	69
263	1	73	72	110	111
264	11	22	23	28	29
265	1	29	31	33	34
266	2	1	55	56	67
267	1	2	12	9	10
268	16	40	39	48	50
269	1	17	18	20	21
270	1	57	56	67	68
271	12	83	78	105	106
272	16	97	96	101	102
273	1	28	38	36	37
274	1	5	7	9	10
275	8	31	33	34	35
276	1	72	73	75	76
277	12	77	78	105	106
278	9	11	10	15	16
278	10	11	10	15	16
279	11	93	95	96	105
280	1	18	17	53	51
281	1	56	57	59	61
282	1	37	36	38	39
283	1	30	29	28	38
284	1	73	75	77	78
285	1	10	9	12	13
286	1	78	83	95	93
287	1	59	61	63	64
288	1	6	5	7	9
289	2	67	56	55	69
290	1	31	33	36	37
291	16	42	40	39	44
292	16	45	44	39	48
293	12	80	79	78	83
294	17	88	89	91	92
295	12	22	23	48	50
296	1	5	3	2	12
297	12	28	23	48	39
298	1	32	31	33	34
299	1	1	2	3	4
300	12	95	96	101	103
301	12	95	96	97	98
302	1	56	67	63	64
303	1	23	28	38	39
304	8	33	34	70	71
305	16	99	97	96	105
306	1	61	63	67	68
307	2	12	2	1	14
308	1	31	29	28	38
309	8	86	88	89	90
310	11	28	38	39	44
311	16	44	39	48	50
312	1	84	83	95	93
313	11	36	38	39	40
314	16	103	101	96	105
315	16	41	40	39	44
316	11	95	83	78	105

Impropers

3	1	51	53	22	52
8	1	77	108	75	78
11	1	5	7	3	6
17	1	18	17	19	20
18	2	10	15	9	11
20	1	53	17	51	54
21	1	86	87	88	84
29	1	110	72	108	111
31	1	33	34	36	31
42	1	95	96	83	93
52	2	1	2	14	55
57	1	15	10	16	17
58	1	56	55	57	67
65	1	108	109	110	77
70	1	83	95	78	84
71	1	36	38	33	37
75	1	20	21	22	18
79	1	5	3	6	7
80	1	20	18	21	22
81	1	51	22	52	53
82	1	2	3	12	1
84	1	86	88	84	87
89	1	3	5	2	4
98	1	59	57	60	61
99	1	57	56	58	59
100	1	95	93	96	83
104	1	88	86	89	93
115	1	7	8	9	5
119	2	55	1	56	69
128	1	18	20	17	19
130	1	29	28	30	31
134	1	28	23	29	38
140	1	34	33	35	70
141	1	61	63	59	62
145	1	63	64	67	61
147	1	38	28	36	39
151	1	61	62	63	59
152	1	59	60	61	57
157	1	77	78	108	75
158	1	34	35	70	33
162	1	110	108	111	72
163	1	84	86	83	85
166	2	1	14	55	2
167	1	75	76	77	73
169	1	2	12	1	3
174	1	15	17	10	16
182	3	89	91	88	90
188	2	10	11	15	9
197	1	7	9	5	8
210	1	67	68	56	63
213	1	59	61	57	60
216	1	31	32	33	29
222	1	57	59	56	58
223	1	86	84	87	88
230	2	64	65	66	63
232	1	56	67	55	57
242	1	38	39	28	36
247	1	88	89	93	86
248	1	70	34	71	72
250	1	3	2	4	5
254	1	63	61	64	67
257	1	36	33	37	38
258	1	17	53	15	18
261	1	95	83	93	96
262	1	5	6	7	3
268	1	31	33	29	32
278	1	12	2	9	13
279	1	29	31	28	30
283	1	108	77	109	110
289	1	3	4	5	2
290	1	56	57	67	55
291	1	12	9	13	2
292	1	75	77	73	76
293	1	93	95	88	94
298	2	10	9	11	15
306	1	70	72	34	71
313	1	22	20	23	51
315	1	72	70	73	110
317	1	28	29	38	23
320	1	83	84	95	78
324	1	17	15	18	53
325	1	34	70	33	35
327	1	83	78	84	95
335	1	88	93	86	89
345	1	17	18	53	15
352	1	108	110	77	109
356	1	9	7	10	12
360	1	84	85	86	83
366	2	1	55	2	14
367	1	73	72	74	75
373	1	53	51	54	17
382	1	67	63	68	56
383	1	53	54	17	51
385	1	9	12	7	10
389	1	67	56	63	68
398	1	93	88	94	95
401	1	73	75	72	74
403	1	33	31	34	36
404	3	89	90	91	88
405	1	93	94	95	88
406	1	2	1	3	12
417	1	7	5	8	9
418	1	57	58	59	56
419	1	22	51	20	23
422	1	75	73	76	77
423	1	28	38	23	29
427	1	77	75	78	108
429	2	64	63	65	66
431	1	61	59	62	63
433	1	15	16	17	10
435	1	38	36	39	28
437	2	64	66	63	65
439	1	72	110	70	73
441	3	89	88	90	91
442	1	18	19	20	17
449	1	73	74	75	72
450	1	36	37	38	33
456	1	51	52	53	22
467	2	55	69	1	56
473	1	9	10	12	7
474	1	20	22	18	21
478	1	63	67	61	64
481	1	29	30	31	28
506	2	55	56	69	1
512	1	33	36	31	34
517	1	12	13	2	9
521	1	110	111	72	108
527	1	70	71	72	34
528	1	31	29	32	33
530	1	22	23	51	20
531	1	84	83	85	86
533	1	72	73	110	70
