Title

11500 atoms
11875 bonds
20750 angles
27375 dihedrals
9750 impropers

9 atom types
13 bond types
6 angle types
9 dihedral types
2 improper types
-9.864494357 104.4198579 xlo xhi
-9.046249267 105.1220733 ylo yhi
-10.49272637 105.3562564 zlo zhi
0.0 0.0 0.0 xy xz yz

Masses

1	15.99943
2	12.01078
3	12.01078
4	1.007947
5	1.007947
6	15.99943
7	15.99943
8	1.007947
9	35.4532


Pair Coeffs

1	0.16846514	3.0251065
2	0.086879315	3.4806469
3	0.10884061	3.3795318
4	0.015779483	2.6445434
5	0.015611343	2.5725815
6	0.2102061	3.0398122
7	0.20947353	2.99716
8	1.2326e-05	0.53453923
9	0.2656001	3.3075278

Bond Coeffs

1 harmonic	425.69104206635	1.362945806494
2 harmonic	300.03137914615	1.451203938761
3 harmonic	360.7852444772	1.387193227181
4 harmonic	289.73813263395	1.498646816465
5 harmonic	370.04670688625	1.093899492634
6 harmonic	397.2545789619	1.085358495916
7 harmonic	264.62148576755	1.52190126495
8 harmonic	301.15400723785	1.345741232799
9 harmonic	582.698766451	1.225198386222
10 harmonic	279.1350963404	1.454628925034
11 harmonic	385.7604595587	1.369745182308
12 harmonic	543.5267831885	0.9716763312559
13 harmonic	218.0227703685	1.746066037062


Angle Coeffs

1 harmonic	57.8982893754	126.8062420451
2 harmonic	65.09061609600001	110.3538806181
3 harmonic	53.20531626545	116.5475862634
4 harmonic	34.066775159195	129.1835929926
5 harmonic	48.776492647595	115.6030999533
6 harmonic	201.41175231035	127.4691416191


Dihedral Coeffs

1 fourier 1	3.661930099076	2	180
2 fourier 1	1.532232714475	2	180
3 fourier 1	0.457973137376	1	0
4 fourier 1	0.02664938770063	3	0
5 fourier 1	0.1155372516788	3	0
6 fourier 1	2.779853741805	2	180
7 fourier 1	0.9974165607242	2	180
8 fourier 1	0.1040663847541	3	0
9 fourier 1	0.8283030590042	2	180


Improper Coeffs

1 0.3666666666666667	-1	2
2 3.5	-1	2


Atoms

1	4	1	0.015786043	-3.0693711	-1.7236074	1.2277549
2	4	2	-0.050138885	-1.7317313	-1.9052168	0.85916177
3	4	2	-0.018202027	-0.74356364	-1.1204746	1.3471222
4	4	3	-0.13537294	-1.0260186	-0.011607344	2.3235005
5	4	4	0.10138734	-0.095356016	0.5157951	2.6188695
6	4	4	0.10138734	-1.4895737	-0.42579128	3.2438104
7	4	4	0.10138734	-1.7090466	0.7332598	1.8630217
8	4	2	-0.27723012	0.65662097	-1.34809	0.90983705
9	4	5	0.21850082	1.420972	-0.71628625	1.3368224
10	4	2	-0.18850553	0.96291971	-2.3028451	0.0053190505
11	4	3	0.0071245185	2.4013247	-2.590302	-0.46749344
12	4	2	-0.1885055	2.4084196	-2.7178963	-2.0024629
13	4	2	-0.27101642	3.0460632	-3.7104741	-2.6606498
14	4	5	0.21850085	3.575454	-4.4855584	-2.1272084
15	4	2	-0.01860835	3.0389611	-3.7805308	-4.1437649
16	4	3	-0.13182171	3.7296418	-4.9355729	-4.8172297
17	4	4	0.10138734	4.5334427	-4.5592771	-5.4842249
18	4	4	0.10138734	4.1946032	-5.6183271	-4.0759398
19	4	4	0.10138734	2.995865	-5.5228084	-5.4087778
20	4	2	0.1632541	2.4120968	-2.8168837	-4.855924
21	4	1	-0.38173846	2.3635634	-2.8439179	-6.2537543
22	4	2	-0.018608367	1.7524239	-1.6917465	-4.1489447
23	4	3	-0.13182171	1.0448337	-0.62642273	-4.9394057
24	4	4	0.10138734	0.079409152	-1.025706	-5.3141352
25	4	4	0.10138734	0.84375892	0.27714765	-4.322985
26	4	4	0.10138734	1.6687927	-0.31470684	-5.8027866
27	4	2	-0.27101639	1.7460145	-1.6558548	-2.8070145
28	4	5	0.21850085	1.2498423	-0.84031697	-2.29414
29	4	3	-0.12933359	3.4037357	-1.4658797	-0.11021
30	4	4	0.090807392	3.0494415	-0.4820153	-0.48798178
31	4	4	0.090807392	4.3954223	-1.6706719	-0.57076491
32	4	4	0.090807392	3.5607106	-1.3953338	0.98714371
33	4	3	-0.12933359	2.8596208	-3.8776281	0.26174322
34	4	4	0.090807392	3.9363048	-4.0846462	0.078885073
35	4	4	0.090807392	2.2633288	-4.7554206	-0.067862911
36	4	4	0.090807392	2.7278864	-3.7669254	1.3597268
37	4	2	-0.27723003	-0.1367259	-3.168623	-0.49940082
38	4	5	0.21850082	0.096014059	-3.9553283	-1.2077827
39	4	2	-0.018202036	-1.4039661	-2.9932343	-0.094583382
40	4	3	-0.13537294	-2.5035766	-3.8584211	-0.64631016
41	4	4	0.10138734	-3.194403	-4.1618584	0.16834479
42	4	4	0.10138734	-3.0719069	-3.2879069	-1.4104046
43	4	4	0.10138734	-2.103162	-4.7832729	-1.1137652
44	5	2	0.63108647	2.7978419	-3.5996532	-6.8361042
45	5	6	-0.47423828	3.9061383	-4.0229166	-6.5560881
46	1	1	0.015786043	-3.3820684	-1.0063328	1.8690011
47	1	2	-0.050138885	-2.9249909	0.31594421	1.8372102
48	1	2	-0.018202027	-2.0178301	0.73664321	0.92548226
49	1	3	-0.13537294	-1.453147	-0.19396714	-0.11339184
50	1	4	0.10138734	-0.73374011	0.32879063	-0.77684265
51	1	4	0.10138734	-2.2732626	-0.59452995	-0.74779933
52	1	4	0.10138734	-0.91714008	-1.0321465	0.38009668
53	1	2	-0.27723012	-1.5557548	2.1474021	0.94886359
54	1	5	0.21850082	-0.84757652	2.4522358	0.19229445
55	1	2	-0.18850553	-1.9990036	3.0158141	1.8827849
56	1	3	0.0071245185	-1.5644605	4.4933761	1.9373004
57	1	2	-0.1885055	-1.2028771	4.8556569	3.3906149
58	1	2	-0.23415326	-1.6294298	5.9826404	4.0021033
59	1	5	0.21850085	-2.2717411	6.6845841	3.4939094
60	1	2	-0.21638157	-1.2383083	6.2964228	5.3989872
61	1	3	-0.11721133	-1.7814051	7.5454802	6.0398769
62	1	4	0.10138734	-0.94578343	8.2102583	6.3419655
63	1	4	0.10138734	-2.4321671	8.1098442	5.3395492
64	1	4	0.10138734	-2.3895359	7.2796486	6.9304809
65	1	2	0.13101068	-0.41327964	5.4588221	6.0670985
66	1	7	-0.61611372	-0.025474257	5.7003241	7.389635
67	1	8	0.44299432	-0.33394362	6.5014523	7.9266138
68	1	2	-0.21638155	0.10756539	4.2445365	5.3918899
69	1	3	-0.11721132	1.0151172	3.3059468	6.1371644
70	1	4	0.10138734	0.41811567	2.7136089	6.860461
71	1	4	0.10138734	1.5407532	2.6092113	5.449236
72	1	4	0.10138734	1.7871997	3.8828292	6.6889571
73	1	2	-0.23415324	-0.27589067	3.9607317	4.1367296
74	1	5	0.21850085	0.093280626	3.0658271	3.6520984
75	1	3	-0.12933359	-0.31356612	4.8007057	1.0789912
76	1	4	0.090807392	0.52889894	4.1274267	1.3460921
77	1	4	0.090807392	0.020255611	5.8488232	1.2429721
78	1	4	0.090807392	-0.5310575	4.6925666	-0.0057333971
79	1	3	-0.12933359	-2.7414082	5.3231724	1.3694092
80	1	4	0.090807392	-2.4614606	6.3923044	1.2494219
81	1	4	0.090807392	-3.6323019	5.2559839	2.0311638
82	1	4	0.090807392	-3.0318425	4.9450725	0.3648191
83	1	2	-0.27723003	-3.0151506	2.5368861	2.859562
84	1	5	0.21850082	-3.3978346	3.2281855	3.601223
85	1	2	-0.018202036	-3.4620366	1.2716579	2.8365115
86	1	3	-0.13537294	-4.4612021	0.80187292	3.8570268
87	1	4	0.10138734	-5.2363069	0.17425942	3.3681804
88	1	4	0.10138734	-3.9416549	0.20001526	4.6314551
89	1	4	0.10138734	-4.9768842	1.6536078	4.35043
90	2	2	0.47033572	2.2619285	-4.004092	-7.6872952
91	2	6	-0.54165954	1.1192117	-3.6454372	-7.9148807
92	2	9	-0.068504395	3.038194	-5.1764081	-8.7357731
93	4	1	0.015786043	-2.8953002	1.0467473	23.300641
94	4	2	-0.050138885	-2.3670934	0.0078846948	22.526119
95	4	2	-0.018202027	-1.0984697	-0.43225597	22.691258
96	4	3	-0.13537294	-0.18448896	0.16499101	23.725965
97	4	4	0.10138734	0.80980485	-0.32785107	23.722025
98	4	4	0.10138734	-0.62356327	0.038110395	24.738149
99	4	4	0.10138734	-0.031028853	1.2449346	23.517238
100	4	2	-0.27723012	-0.58486753	-1.5276047	21.831044
101	4	5	0.21850082	0.42501841	-1.8669685	22.006223
102	4	2	-0.18850553	-1.347737	-2.0735077	20.85968
103	4	3	0.0071245185	-0.86787939	-3.2234047	19.952671
104	4	2	-0.1885055	-1.226799	-2.8927584	18.491742
105	4	2	-0.27101642	-1.7960841	-3.7819925	17.649016
106	4	5	0.21850085	-2.0467565	-4.7802649	17.974878
107	4	2	-0.01860835	-2.1071242	-3.4210283	16.242763
108	4	3	-0.13182171	-2.7823543	-4.4408709	15.366006
109	4	4	0.10138734	-2.1436574	-4.6660935	14.48628
110	4	4	0.10138734	-2.958189	-5.3916181	15.910997
111	4	4	0.10138734	-3.766697	-4.0554588	15.025815
112	4	2	0.1632541	-1.7864229	-2.1910032	15.781316
113	4	1	-0.38173846	-2.0708402	-1.7960003	14.469791
114	4	2	-0.018608367	-1.1128418	-1.2212971	16.679581
115	4	3	-0.13182171	-0.76688789	0.15061117	16.171043
116	4	4	0.10138734	-1.6891367	0.76540034	16.112858
117	4	4	0.10138734	-0.036256823	0.6626667	16.834988
118	4	4	0.10138734	-0.31331798	0.079357865	15.160541
119	4	2	-0.27101639	-0.86094961	-1.5538588	17.955535
120	4	5	0.21850085	-0.3825918	-0.8371903	18.612718
121	4	3	-0.12933359	0.66394634	-3.4436431	19.995215
122	4	4	0.090807392	1.2080075	-2.5015977	19.765491
123	4	4	0.090807392	0.96670225	-4.2043104	19.242076
124	4	4	0.090807392	0.99313771	-3.8170277	20.9882
125	4	3	-0.12933359	-1.5430734	-4.5146582	20.477844
126	4	4	0.090807392	-1.148408	-5.4163447	19.961373
127	4	4	0.090807392	-2.6446088	-4.4729536	20.337828
128	4	4	0.090807392	-1.3404037	-4.6421979	21.563126
129	4	2	-0.27723003	-2.7469074	-1.5896106	20.712371
130	4	5	0.21850082	-3.3801268	-2.0341214	19.953213
131	4	2	-0.018202036	-3.2352169	-0.61834553	21.498968
132	4	3	-0.13537294	-4.6418063	-0.12158621	21.307055
133	4	4	0.10138734	-5.1337494	0.019063024	22.292543
134	4	4	0.10138734	-4.6185383	0.85026581	20.771062
135	4	4	0.10138734	-5.2546427	-0.83954828	20.721257
136	5	2	0.63108647	-2.5462507	-2.411841	13.767232
137	5	6	-0.47423828	-2.2327017	-3.5862736	13.676253
138	1	1	0.015786043	-2.3742357	1.5308296	24.020096
139	1	2	-0.050138885	-1.047536	1.9495406	23.868781
140	1	2	-0.018202027	-0.35674968	1.7354924	22.725027
141	1	3	-0.13537294	-0.97987201	1.0399535	21.545152
142	1	4	0.10138734	-0.26758795	0.96344019	20.697929
143	1	4	0.10138734	-1.8666877	1.6111668	21.194743
144	1	4	0.10138734	-1.2851422	0.010830573	21.829924
145	1	2	-0.27723012	1.0542542	2.1866764	22.626023
146	1	5	0.21850082	1.5667067	2.0179342	21.690205
147	1	2	-0.18850553	1.6759573	2.7806112	23.666957
148	1	3	0.0071245185	3.1315514	3.2832835	23.607331
149	1	2	-0.1885055	3.8719124	2.8252957	24.87864
150	1	2	-0.23415326	4.6596323	3.6416238	25.612849
151	1	5	0.21850085	4.7924867	4.6781085	25.345269
152	1	2	-0.21638157	5.3671943	3.1479148	26.820461
153	1	3	-0.11721133	6.1951926	4.1167918	27.621419
154	1	4	0.10138734	7.2503105	3.7747861	27.656195
155	1	4	0.10138734	6.1786675	5.1316978	27.171809
156	1	4	0.10138734	5.7924155	4.1950387	28.653559
157	1	2	0.13101068	5.2514112	1.8494297	27.179836
158	1	7	-0.61611372	5.8855953	1.3364173	28.316695
159	1	8	0.44299432	6.4598931	1.8934577	28.937335
160	1	2	-0.21638155	4.4337351	0.92695394	26.353931
161	1	3	-0.11721132	4.2940614	-0.51410075	26.758761
162	1	4	0.10138734	3.6026367	-0.58819293	27.62298
163	1	4	0.10138734	3.8994799	-1.1382264	25.928248
164	1	4	0.10138734	5.2844028	-0.92444095	27.048976
165	1	2	-0.23415324	3.7787647	1.3942127	25.278898
166	1	5	0.21850085	3.1702349	0.72223194	24.68717
167	1	3	-0.12933359	3.9285701	2.7242446	22.403953
168	1	4	0.090807392	3.8890144	1.6141702	22.380175
169	1	4	0.090807392	4.9963425	3.0276267	22.472497
170	1	4	0.090807392	3.5373955	3.1192744	21.441374
171	1	3	-0.12933359	3.0635304	4.822141	23.453842
172	1	4	0.090807392	4.0708632	5.2550361	23.270285
173	1	4	0.090807392	2.628254	5.2943557	24.361406
174	1	4	0.090807392	2.4251524	5.0962996	22.585612
175	1	2	-0.27723003	0.88840783	3.0278149	24.905778
176	1	5	0.21850082	1.366539	3.5241225	25.742122
177	1	2	-0.018202036	-0.39532391	2.6487973	25.002832
178	1	3	-0.13537294	-1.158661	2.8764942	26.27796
179	1	4	0.10138734	-2.1814874	3.2430896	26.047545
180	1	4	0.10138734	-1.232717	1.9214501	26.838591
181	1	4	0.10138734	-0.6648013	3.6343068	26.923444
182	2	2	0.47033572	-3.3158326	-2.004357	13.121476
183	2	6	-0.54165954	-3.6923071	-0.85463556	13.271934
184	2	9	-0.068504395	-4.0211022	-3.0001187	11.861606
185	4	1	0.015786043	2.4667246	-2.5003216	43.646305
186	4	2	-0.050138885	1.1073753	-2.2560062	43.421354
187	4	2	-0.018202027	0.65322612	-1.7809066	42.238802
188	4	3	-0.13537294	1.5848318	-1.4967561	41.092481
189	4	4	0.10138734	1.0335968	-1.123535	40.204576
190	4	4	0.10138734	2.1170755	-2.4257313	40.797314
191	4	4	0.10138734	2.3222765	-0.72055733	41.387584
192	4	2	-0.27723012	-0.79810302	-1.5253053	42.06032
193	4	5	0.21850082	-1.1260646	-1.1667625	41.096156
194	4	2	-0.18850553	-1.674865	-1.7245185	43.067858
195	4	3	0.0071245185	-3.1918439	-1.4912329	42.928055
196	4	2	-0.1885055	-3.6919898	-0.69891674	44.150574
197	4	2	-0.27101642	-4.8043072	-1.0284568	44.84279
198	4	5	0.21850085	-5.3949086	-1.8915312	44.574718
199	4	2	-0.01860835	-5.2561728	-0.22202996	46.00472
200	4	3	-0.13182171	-6.4780054	-0.66607279	46.762789
201	4	4	0.10138734	-7.251686	0.12962408	46.733432
202	4	4	0.10138734	-6.9177765	-1.5845381	46.321341
203	4	4	0.10138734	-6.2093249	-0.88902744	47.816974
204	4	2	0.1632541	-4.5639708	0.88361747	46.361295
205	4	1	-0.38173846	-4.9388091	1.6694719	47.456258
206	4	2	-0.018608367	-3.3705377	1.2882179	45.578391
207	4	3	-0.13182171	-2.5932828	2.5104525	45.981435
208	4	4	0.10138734	-1.988648	2.2816786	46.88364
209	4	4	0.10138734	-1.9122975	2.8501454	45.17044
210	4	4	0.10138734	-3.2878012	3.3450988	46.211495
211	4	2	-0.27101639	-2.9601138	0.53481416	44.545899
212	4	5	0.21850085	-2.0789589	0.82546796	43.986064
213	4	3	-0.12933359	-3.5755431	-0.66563339	41.675871
214	4	4	0.090807392	-3.0203106	0.29727625	41.64854
215	4	4	0.090807392	-4.6630666	-0.43173894	41.684759
216	4	4	0.090807392	-3.3691487	-1.2273983	40.740123
217	4	3	-0.12933359	-3.8450317	-2.8886338	42.78789
218	4	4	0.090807392	-4.9276625	-2.8070727	42.549562
219	4	4	0.090807392	-3.7255551	-3.4792086	43.721523
220	4	4	0.090807392	-3.367951	-3.4564052	41.960118
221	4	2	-0.27723003	-1.1556246	-2.2694975	44.351182
222	4	5	0.21850082	-1.8498474	-2.4577251	45.162047
223	4	2	-0.018202036	0.14961921	-2.5306645	44.520494
224	4	3	-0.13537294	0.65531063	-3.0477941	45.839185
225	4	4	0.10138734	1.3978839	-3.8561952	45.671703
226	4	4	0.10138734	1.1400736	-2.2196618	46.397332
227	4	4	0.10138734	-0.16663583	-3.4651596	46.459191
228	5	2	0.63108647	-5.7639902	1.4591376	48.067569
229	5	6	-0.47423828	-6.8166748	1.1018231	47.567505
230	1	1	0.015786043	3.1875005	-2.3391961	42.954944
231	1	2	-0.050138885	3.2446622	-1.1998145	42.144457
232	1	2	-0.018202027	2.3236454	-0.21243697	42.233841
233	1	3	-0.13537294	1.1870012	-0.28016343	43.217516
234	1	4	0.10138734	0.54151904	0.6199168	43.152729
235	1	4	0.10138734	1.5864068	-0.33970718	44.253104
236	1	4	0.10138734	0.55633813	-1.1697315	43.007012
237	1	2	-0.27723012	2.4240711	0.96646874	41.336959
238	1	5	0.21850082	1.6835647	1.7444443	41.45203
239	1	2	-0.18850553	3.4001132	1.0613249	40.408971
240	1	3	0.0071245185	3.5579072	2.2720914	39.468687
241	1	2	-0.1885055	3.7908561	1.7639679	38.032839
242	1	2	-0.23415326	4.7502147	2.256221	37.218422
243	1	5	0.21850085	5.4222741	3.0311024	37.552256
244	1	2	-0.21638157	4.9231616	1.7459159	35.835527
245	1	3	-0.11721133	6.0380911	2.3037127	34.991944
246	1	4	0.10138734	5.6221853	2.7707818	34.075255
247	1	4	0.10138734	6.6124231	3.0789717	35.541101
248	1	4	0.10138734	6.7428954	1.4921063	34.712282
249	1	2	0.13101068	4.0872605	0.79303574	35.364455
250	1	7	-0.61611372	4.2156342	0.26759138	34.074011
251	1	8	0.44299432	4.9321392	0.55726283	33.419781
252	1	2	-0.21638155	2.9944636	0.28020282	36.227284
253	1	3	-0.11721132	2.0718277	-0.78781399	35.709483
254	1	4	0.10138734	2.6013422	-1.7625166	35.708021
255	1	4	0.10138734	1.1558118	-0.87735465	36.33228
256	1	4	0.10138734	1.7538525	-0.54499469	34.673476
257	1	2	-0.23415324	2.8668081	0.73304485	37.484921
258	1	5	0.21850085	2.0782571	0.34561156	38.117449
259	1	3	-0.12933359	2.3070328	3.1824782	39.419777
260	1	4	0.090807392	1.3971982	2.5972234	39.166651
261	1	4	0.090807392	2.4328699	3.9717328	38.646395
262	1	4	0.090807392	2.144603	3.6987907	40.390684
263	1	3	-0.12933359	4.7325458	3.1142061	40.023065
264	1	4	0.090807392	4.8307502	4.0786022	39.478908
265	1	4	0.090807392	5.6923123	2.5581528	39.947052
266	1	4	0.090807392	4.561875	3.3576899	41.094559
267	1	2	-0.27723003	4.4160446	-0.024940621	40.346277
268	1	5	0.21850082	5.2189739	0.047697706	39.622101
269	1	2	-0.018202036	4.3541876	-1.0852803	41.166579
270	1	3	-0.13537294	5.3710895	-2.1874503	41.058817
271	1	4	0.10138734	5.6920213	-2.5080216	42.072668
272	1	4	0.10138734	4.9214408	-3.0531454	40.529394
273	1	4	0.10138734	6.2767896	-1.8589746	40.505068
274	2	2	0.47033572	-5.6814509	1.5599784	49.143821
275	2	6	-0.54165954	-4.6059756	1.8304118	49.650228
276	2	9	-0.068504395	-7.0949145	1.3316565	50.15684
277	4	1	0.015786043	-0.054037542	-3.418708	62.108024
278	4	2	-0.050138885	-0.63909282	-2.5847426	63.067365
279	4	2	-0.018202027	-1.0687043	-1.3383159	62.763629
280	4	3	-0.13537294	-0.95044664	-0.78028864	61.371759
281	4	4	0.10138734	-1.3627155	0.248215	61.310574
282	4	4	0.10138734	-1.515933	-1.4169219	60.65879
283	4	4	0.10138734	0.11761399	-0.73843454	61.07028
284	4	2	-0.27723012	-1.6680319	-0.49074039	63.824745
285	4	5	0.21850082	-2.0190154	0.48989204	63.540323
286	4	2	-0.18850553	-1.7628476	-0.92507822	65.099849
287	4	3	0.0071245185	-2.392107	-0.091510232	66.233157
288	4	2	-0.1885055	-1.4730635	-0.14949271	67.467847
289	4	2	-0.27101642	-1.9270324	-0.37801695	68.719526
290	4	5	0.21850085	-2.9751159	-0.5519428	68.911465
291	4	2	-0.01860835	-1.0028713	-0.4067368	69.881288
292	4	3	-0.13182171	-1.5630175	-0.71088957	71.244535
293	4	4	0.10138734	-1.3660582	0.1377454	71.932723
294	4	4	0.10138734	-2.660802	-0.86972048	71.205869
295	4	4	0.10138734	-1.0983849	-1.6356758	71.647139
296	4	2	0.1632541	0.31481479	-0.16730598	69.693881
297	4	1	-0.38173846	1.2294757	-0.19693823	70.751961
298	4	2	-0.018608367	0.82042962	0.13746849	68.332856
299	4	3	-0.13182171	2.2870998	0.39180633	68.121627
300	4	4	0.10138734	2.8383097	-0.57044975	68.167724
301	4	4	0.10138734	2.4834248	0.87035013	67.137098
302	4	4	0.10138734	2.6737624	1.0702185	68.910403
303	4	2	-0.27101639	-0.023564826	0.1350414	67.288934
304	4	5	0.21850085	0.35241686	0.34308314	66.294105
305	4	3	-0.12933359	-2.562562	1.4051456	65.875706
306	4	4	0.090807392	-1.5978442	1.8475649	65.544331
307	4	4	0.090807392	-2.9130199	1.9775137	66.762874
308	4	4	0.090807392	-3.3185917	1.5477933	65.074536
309	4	3	-0.12933359	-3.8032703	-0.67817842	66.485087
310	4	4	0.090807392	-4.3803927	-0.051453393	67.199011
311	4	4	0.090807392	-3.7384897	-1.7127452	66.885336
312	4	4	0.090807392	-4.3815315	-0.71350622	65.536645
313	4	2	-0.27723003	-1.3054758	-2.3075272	65.405102
314	4	5	0.21850082	-1.3967984	-2.6800715	66.418882
315	4	2	-0.018202036	-0.785346	-3.0962172	64.452228
316	4	3	-0.13537294	-0.29731396	-4.4774223	64.793096
317	4	4	0.10138734	-0.61178675	-5.1969337	64.007992
318	4	4	0.10138734	0.81097374	-4.4705693	64.856163
319	4	4	0.10138734	-0.70941495	-4.8311288	65.762251
320	5	2	0.63108647	0.96406706	-0.40609953	71.744269
321	5	6	-0.47423828	-0.045341316	0.083861113	72.220625
322	1	1	0.015786043	0.086720167	-3.1506987	61.142717
323	1	2	-0.050138885	0.56965872	-1.8981118	60.747567
324	1	2	-0.018202027	0.89247961	-0.94041901	61.647449
325	1	3	-0.13537294	0.75726131	-1.1711168	63.128211
326	1	4	0.10138734	1.0763888	-0.28023871	63.70742
327	1	4	0.10138734	1.3966907	-2.0261002	63.437479
328	1	4	0.10138734	-0.30250043	-1.3838114	63.383251
329	1	2	-0.27723012	1.3846045	0.37674035	61.170789
330	1	5	0.21850082	1.6528977	1.1086205	61.91859
331	1	2	-0.18850553	1.4883296	0.6523675	59.853181
332	1	3	0.0071245185	2.011166	1.9961128	59.309141
333	1	2	-0.1885055	1.0709584	2.4829696	58.189725
334	1	2	-0.23415326	1.5127925	2.9570729	57.003991
335	1	5	0.21850085	2.566528	2.9987552	56.777156
336	1	2	-0.21638157	0.56695772	3.4320246	55.96354
337	1	3	-0.11721133	1.1185966	3.9079044	54.646319
338	1	4	0.10138734	0.82733896	4.9646353	54.473288
339	1	4	0.10138734	2.2271065	3.8505197	54.627091
340	1	4	0.10138734	0.73041431	3.2724496	53.822197
341	1	2	0.13101068	-0.76205429	3.4230479	56.213073
342	1	7	-0.61611372	-1.6968989	3.8462992	55.261893
343	1	8	0.44299432	-1.4460416	4.1778214	54.3386
344	1	2	-0.21638155	-1.2607771	2.9562176	57.530275
345	1	3	-0.11721132	-2.7386432	2.9341178	57.804972
346	1	4	0.10138734	-3.2001995	2.0808716	57.267041
347	1	4	0.10138734	-2.9537182	2.8332836	58.890584
348	1	4	0.10138734	-3.2039375	3.8796788	57.45455
349	1	2	-0.23415324	-0.39453529	2.5052991	58.451854
350	1	5	0.21850085	-0.76250729	2.1505526	59.406192
351	1	3	-0.12933359	2.0521318	3.1188728	60.373855
352	1	4	0.090807392	1.0609488	3.2442581	60.85989
353	1	4	0.090807392	2.3281983	4.0881767	59.903627
354	1	4	0.090807392	2.8126346	2.9064915	61.156257
355	1	3	-0.12933359	3.4621425	1.7467097	58.830881
356	1	4	0.090807392	3.9621358	2.6971346	58.543635
357	1	4	0.090807392	3.4818636	1.0524167	57.962726
358	1	4	0.090807392	4.0654281	1.2918788	59.646778
359	1	2	-0.27723003	1.1513293	-0.42500201	58.882756
360	1	5	0.21850082	1.2512376	-0.22685516	57.822021
361	1	2	-0.018202036	0.72893156	-1.6294329	59.297445
362	1	3	-0.13537294	0.35938125	-2.6890287	58.29686
363	1	4	0.10138734	0.75840494	-3.6733439	58.621761
364	1	4	0.10138734	-0.74595783	-2.7528249	58.219036
365	1	4	0.10138734	0.77796742	-2.4692366	57.291224
366	2	2	0.47033572	1.5872765	-1.0572211	72.346723
367	2	6	-0.54165954	2.5467822	-1.6178839	71.845488
368	2	9	-0.068504395	1.2136482	-1.3059554	74.042232
369	4	1	0.015786043	-2.0797459	2.8507766	85.995187
370	4	2	-0.050138885	-2.011148	1.8010257	85.072451
371	4	2	-0.018202027	-1.7036518	0.53836311	85.448657
372	4	3	-0.13537294	-1.4268485	0.18834136	86.885162
373	4	4	0.10138734	-1.2031302	-0.89213875	87.00366
374	4	4	0.10138734	-2.3142762	0.42302232	87.510301
375	4	4	0.10138734	-0.54874572	0.76098216	87.251786
376	4	2	-0.27723012	-1.6297711	-0.53401215	84.424891
377	4	5	0.21850082	-1.4028429	-1.5331755	84.765333
378	4	2	-0.18850553	-1.8295424	-0.26947047	83.115831
379	4	3	0.0071245185	-1.781414	-1.3493723	82.017337
380	4	2	-0.1885055	-0.93794336	-0.8282202	80.838601
381	4	2	-0.27101642	-1.3227503	-0.93424654	79.547984
382	4	5	0.21850085	-2.2678379	-1.3826906	79.281005
383	4	2	-0.01860835	-0.46565468	-0.43205748	78.444452
384	4	3	-0.13182171	-0.96974022	-0.538513	77.030492
385	4	4	0.10138734	-0.27179454	-1.1540854	76.425084
386	4	4	0.10138734	-1.9691622	-1.0196239	76.991237
387	4	4	0.10138734	-1.0606526	0.47403993	76.583643
388	4	2	0.1632541	0.73910786	0.11275686	78.728124
389	4	1	-0.38173846	1.5781266	0.61382034	77.727125
390	4	2	-0.018608367	1.1986563	0.18812623	80.136689
391	4	3	-0.13182171	2.532643	0.80470308	80.454084
392	4	4	0.10138734	2.4591331	1.9085131	80.364119
393	4	4	0.10138734	2.8680914	0.55069747	81.48355
394	4	4	0.10138734	3.3024788	0.43289621	79.746249
395	4	2	-0.27101639	0.40161791	-0.24732882	81.125231
396	4	5	0.21850085	0.73464988	-0.17645337	82.154014
397	4	3	-0.12933359	-1.1259023	-2.6725907	82.482313
398	4	4	0.090807392	-0.11392359	-2.4885554	82.904516
399	4	4	0.090807392	-1.015152	-3.3720623	81.624428
400	4	4	0.090807392	-1.747009	-3.1870541	83.246091
401	4	3	-0.12933359	-3.2499794	-1.6609751	81.636221
402	4	4	0.090807392	-3.3127416	-2.5265037	80.941626
403	4	4	0.090807392	-3.7326141	-0.78103411	81.15926
404	4	4	0.090807392	-3.8365895	-1.923722	82.54288
405	4	2	-0.27723003	-2.1893717	1.1213381	82.728909
406	4	5	0.21850082	-2.3764755	1.3452977	81.685016
407	4	2	-0.018202036	-2.2859414	2.0970616	83.644973
408	4	3	-0.13537294	-2.6163916	3.5028083	83.22453
409	4	4	0.10138734	-3.3489831	3.9489106	83.929711
410	4	4	0.10138734	-1.6902757	4.114873	83.228004
411	4	4	0.10138734	-3.0624717	3.5332403	82.207533
412	5	2	0.63108647	1.3356666	0.60579554	76.707314
413	5	6	-0.47423828	0.81735928	-0.38034752	76.21258
414	1	1	0.015786043	-1.9051921	2.7394492	86.985437
415	1	2	-0.050138885	-0.84828881	1.9850688	87.507177
416	1	2	-0.018202027	0.034041106	1.3425443	86.707282
417	1	3	-0.13537294	-0.066940504	1.4090026	85.207433
418	1	4	0.10138734	0.7452353	0.83037084	84.721074
419	1	4	0.10138734	0.016642694	2.4645834	84.869385
420	1	4	0.10138734	-1.0372702	0.98405192	84.873882
421	1	2	-0.27723012	1.12671	0.54251233	87.315825
422	1	5	0.21850082	1.8244806	0.061572655	86.646011
423	1	2	-0.18850553	1.2418545	0.41582448	88.655045
424	1	3	0.0071245185	2.3683468	-0.38682323	89.334575
425	1	2	-0.1885055	1.7560045	-1.2788751	90.431568
426	1	2	-0.23415326	2.2731397	-1.3852378	91.675439
427	1	5	0.21850085	3.1462968	-0.82293688	91.966925
428	1	2	-0.21638157	1.6569423	-2.2731892	92.692573
429	1	3	-0.11721133	2.2535353	-2.315261	94.07393
430	1	4	0.10138734	2.5824862	-3.3477429	94.313144
431	1	4	0.10138734	3.1365013	-1.6471383	94.15418
432	1	4	0.10138734	1.5029522	-1.9787169	94.820273
433	1	2	0.13101068	0.57643157	-3.0172853	92.364797
434	1	7	-0.61611372	-0.050982944	-3.8592202	93.28963
435	1	8	0.44299432	0.25376576	-3.9629726	94.249666
436	1	2	-0.21638155	0.028609564	-2.9531146	90.987318
437	1	3	-0.11721132	-1.1799028	-3.7704225	90.624632
438	1	4	0.10138734	-2.0851119	-3.3039843	91.064478
439	1	4	0.10138734	-1.3119289	-3.8431159	89.523604
440	1	4	0.10138734	-1.0731273	-4.802281	91.021176
441	1	2	-0.23415324	0.5811825	-2.1256496	90.085666
442	1	5	0.21850085	0.16962599	-2.0691859	89.085945
443	1	3	-0.12933359	3.1246016	-1.3291652	88.367128
444	1	4	0.090807392	2.4201008	-2.0034483	87.83476
445	1	4	0.090807392	3.8463233	-1.9621065	88.928715
446	1	4	0.090807392	3.7089785	-0.75381683	87.616727
447	1	3	-0.12933359	3.3849916	0.64707715	89.876563
448	1	4	0.090807392	4.2985482	0.14895219	90.267839
449	1	4	0.090807392	2.9349359	1.2619429	90.686202
450	1	4	0.090807392	3.7080622	1.334218	89.064174
451	1	2	-0.27723003	0.27482455	1.1518852	89.514747
452	1	5	0.21850082	0.36791786	1.0787396	90.591959
453	1	2	-0.018202036	-0.70348425	1.8995885	88.980994
454	1	3	-0.13537294	-1.6903986	2.6037209	89.870195
455	1	4	0.10138734	-1.8758531	3.6314623	89.492026
456	1	4	0.10138734	-2.6470364	2.0409612	89.877037
457	1	4	0.10138734	-1.3166351	2.6890482	90.913194
458	2	2	0.47033572	1.5463603	1.4737367	76.092833
459	2	6	-0.54165954	1.9818666	2.4913588	76.603724
460	2	9	-0.068504395	1.2583667	1.4146924	74.363732
461	4	1	0.015786043	-3.7076449	20.871959	-0.21508899
462	4	2	-0.050138885	-2.6603171	21.620963	0.33283479
463	4	2	-0.018202027	-1.6351036	22.075423	-0.42400375
464	4	3	-0.13537294	-1.5675382	21.809033	-1.9029065
465	4	4	0.10138734	-0.6635712	22.265721	-2.356568
466	4	4	0.10138734	-2.4574094	22.241841	-2.4070973
467	4	4	0.10138734	-1.5271969	20.71488	-2.0889128
468	4	2	-0.27723012	-0.54225683	22.852459	0.21274121
469	4	5	0.21850082	0.24784924	23.216988	-0.42645837
470	4	2	-0.18850553	-0.53081044	23.087331	1.5424906
471	4	3	0.0071245185	0.57025294	23.902566	2.248354
472	4	2	-0.1885055	1.0179018	23.149041	3.5149531
473	4	2	-0.27101642	1.1800156	23.747768	4.7150593
474	4	5	0.21850085	0.98107221	24.800738	4.8463808
475	4	2	-0.01860835	1.6311242	22.981355	5.904051
476	4	3	-0.13182171	1.7496096	23.695481	7.2234079
477	4	4	0.10138734	2.794596	23.635973	7.5935959
478	4	4	0.10138734	1.4827261	24.76868	7.1292257
479	4	4	0.10138734	1.0623512	23.236768	7.9653388
480	4	2	0.1632541	1.9187812	21.665632	5.7821024
481	4	1	-0.38173846	2.3333569	20.895173	6.8736775
482	4	2	-0.018608367	1.7964053	21.005819	4.4590027
483	4	3	-0.13182171	2.1043026	19.540326	4.3249977
484	4	4	0.10138734	1.2706611	18.947757	4.7560403
485	4	4	0.10138734	2.2414425	19.244935	3.2616155
486	4	4	0.10138734	3.0416375	19.29666	4.8671675
487	4	2	-0.27101639	1.3632932	21.706383	3.3989414
488	4	5	0.21850085	1.2606509	21.216947	2.4375643
489	4	3	-0.12933359	1.8367753	24.107218	1.3818418
490	4	4	0.090807392	2.2326209	23.133491	1.0193686
491	4	4	0.090807392	2.6371762	24.600272	1.9766104
492	4	4	0.090807392	1.6294532	24.760024	0.50739033
493	4	3	-0.12933359	-0.030151947	25.300134	2.5404937
494	4	4	0.090807392	0.74140648	25.998195	2.9315832
495	4	4	0.090807392	-0.85935456	25.230986	3.2769485
496	4	4	0.090807392	-0.4366509	25.748135	1.608168
497	4	2	-0.27723003	-1.6803417	22.598121	2.3504423
498	4	5	0.21850082	-1.6982788	22.799145	3.4154051
499	4	2	-0.018202036	-2.689281	21.916719	1.7862899
500	4	3	-0.13537294	-3.8227693	21.401824	2.6301987
501	4	4	0.10138734	-4.7904837	21.572236	2.1130268
502	4	4	0.10138734	-3.6891357	20.313044	2.8005696
503	4	4	0.10138734	-3.8687138	21.915714	3.6140706
504	5	2	0.63108647	2.4446861	21.274744	7.8444486
505	5	6	-0.47423828	2.9670305	22.362599	8.0165247
506	1	1	0.015786043	-3.7666949	20.622522	-1.1937376
507	1	2	-0.050138885	-2.6790323	20.161994	-1.9442385
508	1	2	-0.018202027	-1.4488002	20.011217	-1.401126
509	1	3	-0.13537294	-1.1813986	20.323843	0.046258961
510	1	4	0.10138734	-0.12167447	20.131608	0.31275383
511	1	4	0.10138734	-1.8178076	19.683829	0.69501089
512	1	4	0.10138734	-1.3966347	21.394406	0.24861606
513	1	2	-0.27723012	-0.32707348	19.5346	-2.2489858
514	1	5	0.21850082	0.63530488	19.405767	-1.7756286
515	1	2	-0.18850553	-0.50066782	19.276708	-3.5628256
516	1	3	0.0071245185	0.62632006	18.762433	-4.4795632
517	1	2	-0.1885055	0.61725288	19.575335	-5.7884638
518	1	2	-0.23415326	0.70625416	19.010616	-7.0128527
519	1	5	0.21850085	0.77009474	17.940286	-7.1306147
520	1	2	-0.21638157	0.71197112	19.838644	-8.2445415
521	1	3	-0.11721133	0.76905287	19.14831	-9.5809615
522	1	4	0.10138734	1.6735496	19.472276	-10.136283
523	1	4	0.10138734	0.81490594	18.045149	-9.465242
524	1	4	0.10138734	-0.14001973	19.391268	-10.171066
525	1	2	0.13101068	0.66005067	21.186251	-8.1451468
526	1	7	-0.61611372	0.64830054	22.012101	-9.274595
527	1	8	0.44299432	0.67340185	21.662569	-10.224597
528	1	2	-0.21638155	0.61650801	21.824687	-6.8064239
529	1	3	-0.11721132	0.5464817	23.322207	-6.6943215
530	1	4	0.10138734	-0.47776113	23.662859	-6.9498911
531	1	4	0.10138734	0.79544328	23.669945	-5.6686142
532	1	4	0.10138734	1.2706461	23.789459	-7.3947792
533	1	2	-0.23415324	0.58583632	21.061417	-5.7021193
534	1	5	0.21850085	0.53817147	21.529642	-4.7271823
535	1	3	-0.12933359	2.0395584	18.921078	-3.8684396
536	1	4	0.090807392	2.2252037	19.972143	-3.5599039
537	1	4	0.090807392	2.8167472	18.640131	-4.6126998
538	1	4	0.090807392	2.1756591	18.257593	-2.9870271
539	1	3	-0.12933359	0.37105109	17.250333	-4.6908896
540	1	4	0.090807392	1.2133365	16.770293	-5.2348829
541	1	4	0.090807392	-0.56889624	17.080509	-5.2599099
542	1	4	0.090807392	0.27610863	16.733538	-3.710878
543	1	2	-0.27723003	-1.8680769	19.425842	-4.1320105
544	1	5	0.21850082	-2.0285137	19.200683	-5.1798494
545	1	2	-0.018202036	-2.8982603	19.831595	-3.373639
546	1	3	-0.13537294	-4.2622401	20.010033	-3.980434
547	1	4	0.10138734	-5.0376261	19.60297	-3.297255
548	1	4	0.10138734	-4.4539088	21.090863	-4.1446627
549	1	4	0.10138734	-4.3534164	19.477662	-4.9515649
550	2	2	0.47033572	2.0961061	20.699868	8.6949246
551	2	6	-0.54165954	1.4943796	19.654328	8.5188539
552	2	9	-0.068504395	2.395801	21.275311	10.324424
553	4	1	0.015786043	1.454304	24.630819	21.176108
554	4	2	-0.050138885	0.47853229	23.803893	20.608494