Title

504 atoms
539 bonds
1094 angles
2872 dihedrals
102 impropers

11 atom types
14 bond types
9 angle types
35 dihedral types
3 improper types
-75.29799652 24.70200348 xlo xhi
-46.55199814 53.44800186 ylo yhi
-52.30199814 47.69800186 zlo zhi
0.0 0.0 0.0 xy xz yz

Masses

1	15.99943
2	12.01078
3	14.00672
4	12.01078
5	1.007947
6	1.007947
7	1.007947
8	15.99943
9	12.01078
10	15.99943
11	1.007947


Pair Coeffs

1	0.2102061	3.0398122
2	0.086879315	3.4806469
3	0.16769152	3.206876
4	0.10884061	3.3795318
5	0.015779483	2.6445434
6	0.014090815	1.1034277
7	0.016409246	2.5832257
8	0.16846514	3.0251065
9	0.21	3.3996695
10	0.20947353	2.99716
11	1.2326e-05	0.53453923

Bond Coeffs

1 harmonic	582.698766451	1.225198386222
2 harmonic	492.76746816345	1.381897776683
3 harmonic	301.15400723785	1.345741232799
4 harmonic	352.0565580496	1.450098586273
5 harmonic	505.144496193	1.019481865027
6 harmonic	264.62148576755	1.52190126495
7 harmonic	370.04670688625	1.093899492634
8 harmonic	279.1350963404	1.454628925034
9 harmonic	366.7408841747	1.425895053732
10 harmonic	300.03137914615	1.451203938761
11 harmonic	366.34047229585	1.464762957261
12 harmonic	602.81384337	1.196112346392
13 harmonic	329.96998057905	1.427343958716
14 harmonic	543.5267831885	0.9716763312559


Angle Coeffs

1 harmonic	57.8982893754	126.8062420451
2 harmonic	201.41175231035	127.4691416191
3 harmonic	55.42182150775	117.3465570514
4 harmonic	63.44422595415	115.5071327674
5 harmonic	65.09061609600001	110.3538806181
6 harmonic	53.20531626545	116.5475862634
7 harmonic	48.776492647595	115.6030999533
8 harmonic	55.07882548015	112.8714009681
9 harmonic	33.56981613361	180


Dihedral Coeffs

1 fourier 1	1.809047390003	2	180
2 fourier 1	-0.04816277792592	1	0
3 fourier 1	0.4860993122944	2	180
4 fourier 1	0.8916986138746	1	0
5 fourier 1	1.163809172478	2	180
6 fourier 1	0.1679186987369	1	180
7 fourier 1	-0.1488678166443	4	180
8 fourier 1	-0.1230328948768	3	180
9 fourier 1	0.2939295466901	2	0
10 fourier 1	-0.3024127022865	1	0
11 fourier 1	0.182238503271	2	0
12 fourier 1	0.02972342374561	3	0
13 fourier 1	0.1918272375143	3	0
14 fourier 1	0.9202179876409	1	180
15 fourier 1	0.0473758381877	3	0
16 fourier 1	2.779853741805	2	180
17 fourier 1	0.1155372516788	3	0
18 fourier 1	0.09223874044423	3	0
19 fourier 1	0.3159935921949	2	180
20 fourier 1	0.3247796806857	1	180
21 fourier 1	0.1040663847541	3	0
22 fourier 1	3.101948770557	2	180
23 fourier 1	-0.4252153282372	1	0
24 fourier 1	0.1911926717192	3	0
25 fourier 1	0.9974165607242	2	180
26 fourier 1	2.348375642009	2	180
27 fourier 1	1.256156174911	1	0
28 fourier 1	0.1115525666802	3	0
29 fourier 1	0.3432490222662	1	0
30 fourier 1	0.457973137376	1	0
31 fourier 1	-1.382973039546	1	0
32 fourier 1	0	1	0
33 fourier 1	0.3445382149273	3	0
34 fourier 1	0.1364556373303	1	0
35 fourier 1	0.3026390167484	3	0


Improper Coeffs

1 3.5	-1	2
2 0.3333333333333333	-1	2
3 0.3666666666666667	-1	2


Atoms

1	1	1	-0.64007801	-3.5999999	-2.1110001	-1.266
2	1	2	0.79829001	-2.9630001	-1.347	-2.04
3	1	3	-0.51703101	-1.9299999	-0.48800001	-1.544
4	1	4	0.086130999	-1.4809999	-0.50800002	-0.148
5	1	4	-0.181153	-0.27200001	-1.4630001	0.0049999999
6	1	4	-0.182676	1.062	-0.71899998	-0.123
7	1	4	0.085449003	1.225	0.36500001	0.97299999
8	1	4	-0.182676	-0.133	0.94400001	1.449
9	1	4	-0.181153	-1.174	0.935	0.32499999
10	1	5	0.087045997	-0.787	1.552	-0.51599997
11	1	5	0.087045997	-2.1110001	1.414	0.68400002
12	1	5	0.087045997	-0.51899999	0.331	2.2939999
13	1	5	0.087045997	-0.0060000001	1.978	1.836
14	1	3	-0.569435	2.098	1.437	0.47999999
15	1	2	0.54996401	3.5109999	1.268	0.32800001
16	1	1	-0.72404099	4.0700002	0.18099999	0.63599998
17	1	6	0.30291599	1.693	2.3659999	0.22400001
18	1	7	0.031936999	1.705	-0.098999999	1.863
19	1	5	0.087045997	1.11	-0.25400001	-1.133
20	1	5	0.087045997	1.897	-1.448	-0.050999999
21	1	5	0.087045997	-0.31099999	-1.951	1.0039999
22	1	5	0.087045997	-0.31999999	-2.2750001	-0.75400001
23	1	7	0.034968998	-2.299	-0.898	0.498
24	1	6	0.306355	-1.373	0.048	-2.2479999
25	1	8	-0.502312	-10.514	-1.234	-0.12899999
26	1	4	0.140784	-10.227	-1.836	-1.362
27	1	4	-0.065550998	-8.717	-1.747	-1.651
28	1	4	-0.067248002	-8.2650003	-0.28200001	-1.841
29	1	4	-0.106826	-6.9299998	0.15000001	-1.175
30	1	4	-0.16253901	-5.7800002	-0.84399998	-1.452
31	1	4	-0.071901999	-5.5100002	-0.65899998	-2.96
32	1	4	-0.095941	-6.52	0.45699999	-3.3399999
33	1	4	-0.072848998	-7.9840002	-0.068999998	-3.3310001
34	1	4	-0.165783	-8.2749996	-1.393	-4.046
35	1	4	-0.185231	-8.375	-2.4660001	-2.9649999
36	1	5	0.099051997	-7.402	-2.9909999	-2.8610001
37	1	5	0.099051997	-9.1289997	-3.2349999	-3.244
38	1	5	0.09341	-9.2609997	-1.314	-4.5549998
39	1	5	0.09341	-7.5209999	-1.642	-4.8210001
40	1	5	0.117091	-8.6529999	0.72299999	-3.74
41	1	4	-0.143142	-6.5310001	1.299	-2.076
42	1	5	0.100629	-7.2859998	2.1199999	-2.1029999
43	1	5	0.100629	-5.5419998	1.739	-1.8150001
44	1	5	0.122089	-6.2610002	1.021	-4.2620001
45	1	4	0.141408	-4.0539999	-0.25799999	-3.27
46	1	8	-0.502312	-3.1919999	-1.342	-3.0510001
47	1	7	0.076779999	-3.98	0.025	-4.342
48	1	7	0.076779999	-3.73	0.625	-2.674
49	1	5	0.108071	-5.704	-1.598	-3.5120001
50	1	5	0.106229	-4.9000001	-0.55599999	-0.83499998
51	1	5	0.106229	-6.0289998	-1.8940001	-1.202
52	1	5	0.110848	-7.0339999	0.428	-0.104
53	1	5	0.128712	-9.059	0.42699999	-1.5089999
54	1	5	0.107798	-8.1920004	-2.2279999	-0.79799998
55	1	7	0.076779999	-10.801	-1.332	-2.1730001
56	1	7	0.076779999	-10.533	-2.905	-1.322
57	1	1	-0.64007801	-17.879	-3.6830001	-4.329
58	1	2	0.79829001	-16.677	-3.9579999	-4.5830002
59	1	3	-0.51703101	-15.608	-3.1900001	-4.0180001
60	1	4	0.086130999	-15.83	-2.1140001	-3.046
61	1	4	-0.181153	-15.718	-2.671	-1.605
62	1	4	-0.181153	-14.302	-2.5109999	-1.041
63	1	4	0.086130999	-13.875	-1.023	-0.96499997
64	1	4	-0.181153	-14.561	-0.148	-2.046
65	1	4	-0.181153	-14.847	-0.94800001	-3.3210001
66	1	5	0.087045997	-13.881	-1.332	-3.717
67	1	5	0.087045997	-15.278	-0.27500001	-4.0929999
68	1	5	0.087045997	-15.524	0.242	-1.649
69	1	5	0.087045997	-13.935	0.73799998	-2.29
70	1	3	-0.51703101	-12.415	-0.92400002	-1.0700001
71	1	2	0.79829001	-11.54	-1.309	-0.0040000002
72	1	1	-0.64007699	-12	-1.737	1.0880001
73	1	6	0.306355	-11.977	-0.56	-1.946
74	1	7	0.034968998	-14.187	-0.61500001	0.023
75	1	5	0.087045997	-13.599	-3.079	-1.6900001
76	1	5	0.087045997	-14.259	-2.9630001	-0.027000001
77	1	5	0.087045997	-16.427	-2.1259999	-0.94300002
78	1	5	0.087045997	-16.011	-3.743	-1.58
79	1	7	0.034968998	-16.860001	-1.711	-3.1700001
80	1	6	0.306355	-14.634	-3.527	-4.1869998
81	1	8	-0.502312	-22.268999	-1.4450001	-9.3870001
82	1	4	0.140784	-22.032	-2.826	-9.4300003
83	1	4	-0.065550998	-20.874001	-3.1889999	-8.4829998
84	1	4	-0.067248002	-19.541	-2.5699999	-8.9589996
85	1	4	-0.106826	-18.617001	-1.939	-7.881
86	1	4	-0.16253901	-18.415001	-2.862	-6.6589999
87	1	4	-0.071901999	-17.569	-4.0219998	-7.23
88	1	4	-0.095941	-17.362	-3.5829999	-8.7030001
89	1	4	-0.072848998	-18.677	-3.7	-9.526
90	1	4	-0.165783	-19.483999	-4.9970002	-9.408
91	1	4	-0.185231	-20.648001	-4.7090001	-8.4630003
92	1	5	0.099051997	-20.389999	-5.0349998	-7.434
93	1	5	0.099051997	-21.551001	-5.283	-8.7679996
94	1	5	0.09341	-19.898001	-5.2519999	-10.408
95	1	5	0.09341	-18.870001	-5.8600001	-9.073
96	1	5	0.117091	-18.448	-3.5079999	-10.6
97	1	4	-0.143142	-17.27	-2.073	-8.5609999
98	1	5	0.100629	-17.216999	-1.543	-9.54
99	1	5	0.100629	-16.422001	-1.728	-7.927
100	1	5	0.122089	-16.486	-4.0469999	-9.2060003
101	1	4	0.141408	-16.233	-4.2199998	-6.4860001
102	1	8	-0.502312	-16.459	-4.7550001	-5.2090001
103	1	7	0.076779999	-15.611	-4.9439998	-7.0539999
104	1	7	0.076779999	-15.653	-3.2720001	-6.415
105	1	5	0.108071	-18.117001	-4.98	-7.1560001
106	1	5	0.106229	-17.867001	-2.3	-5.8709998
107	1	5	0.106229	-19.361	-3.2219999	-6.211
108	1	5	0.110848	-18.889	-0.89600003	-7.6139998
109	1	5	0.128712	-19.716	-1.8049999	-9.7510004
110	1	5	0.107798	-21.153	-2.826	-7.4699998
111	1	7	0.076779999	-21.785	-3.1359999	-10.471
112	1	7	0.076779999	-22.954	-3.3610001	-9.1090002
113	1	1	-0.64007801	-27.223	-5.3909998	-15.533
114	1	2	0.79829001	-26.518999	-5.8959999	-14.618
115	1	3	-0.51703101	-25.513	-5.1259999	-13.951
116	1	4	0.086130999	-25.299999	-3.6989999	-14.212
117	1	4	-0.181153	-26.114	-2.8499999	-13.205
118	1	4	-0.181153	-25.278999	-2.4660001	-11.978
119	1	4	0.086130999	-24.044001	-1.613	-12.364
120	1	4	-0.181153	-23.528	-1.921	-13.794
121	1	4	-0.181153	-23.784	-3.3800001	-14.183
122	1	5	0.087045997	-23.257999	-4.0349998	-13.454
123	1	5	0.087045997	-23.344999	-3.579	-15.185
124	1	5	0.087045997	-24.049999	-1.263	-14.524
125	1	5	0.087045997	-22.443001	-1.693	-13.878
126	1	3	-0.51703101	-22.978001	-1.814	-11.376
127	1	2	0.79829001	-23.041	-1.265	-10.056
128	1	1	-0.64007699	-24.021	-0.56	-9.6940002
129	1	6	0.306355	-22.132	-2.3759999	-11.626
130	1	7	0.034968998	-24.337	-0.53899997	-12.353
131	1	5	0.087045997	-24.955999	-3.4000001	-11.466
132	1	5	0.087045997	-25.915001	-1.898	-11.265
133	1	5	0.087045997	-26.461	-1.918	-13.703
134	1	5	0.087045997	-27.023001	-3.401	-12.879
135	1	7	0.034968998	-25.667999	-3.451	-15.232
136	1	6	0.306355	-25.031	-5.5700002	-13.136
137	1	8	-0.502312	-26.812	-7.7420001	-22.179001
138	1	4	0.140784	-27.551001	-8.585	-21.337999
139	1	4	-0.065550998	-27.370001	-8.1529999	-19.871
140	1	4	-0.067248002	-25.910999	-8.349	-19.403
141	1	4	-0.106826	-25.275	-7.2210002	-18.544001
142	1	4	-0.16253901	-26.191999	-6.7680001	-17.386999
143	1	4	-0.071901999	-26.193001	-7.9879999	-16.441
144	1	4	-0.095941	-25.235001	-8.9680004	-17.167
145	1	4	-0.072848998	-25.882	-9.552	-18.455999
146	1	4	-0.165783	-27.312	-10.093	-18.358999
147	1	4	-0.185231	-28.23	-9.0220003	-18.941999
148	1	5	0.099051997	-28.646999	-8.3959999	-18.125
149	1	5	0.099051997	-29.094	-9.4879999	-19.465
150	1	5	0.09341	-27.392	-11.006	-18.99
151	1	5	0.09341	-27.597	-10.379	-17.325001
152	1	5	0.117091	-25.216	-10.347	-18.865
153	1	4	-0.143142	-24.23	-8.0100002	-17.783001
154	1	5	0.100629	-23.490999	-8.5170002	-18.448
155	1	5	0.100629	-23.673	-7.3969998	-17.039
156	1	5	0.122089	-24.782	-9.7440004	-16.513
157	1	4	0.141408	-25.712	-7.651	-15.015
158	1	8	-0.502312	-26.674999	-6.8839998	-14.343
159	1	7	0.076779999	-25.573999	-8.5959997	-14.449
160	1	7	0.076779999	-24.73	-7.125	-15.022
161	1	5	0.108071	-27.214001	-8.4049997	-16.339001
162	1	5	0.106229	-25.745001	-5.8709998	-16.903999
163	1	5	0.106229	-27.215	-6.494	-17.709999
164	1	5	0.110848	-24.862	-6.382	-19.143
165	1	5	0.128712	-25.236	-8.5430002	-20.268999
166	1	5	0.107798	-27.68	-7.0879998	-19.802999
167	1	7	0.076779999	-27.216	-9.6389999	-21.469
168	1	7	0.076779999	-28.628	-8.5170002	-21.613001
169	1	1	-0.64007801	-30.459999	-14.408	-26.667999
170	1	2	0.79829001	-30.66	-14.028	-25.483999
171	1	3	-0.51703101	-29.73	-13.167	-24.816999
172	1	4	0.086130999	-28.554001	-12.599	-25.483999
173	1	4	-0.181153	-28.893999	-11.201	-26.056999
174	1	4	-0.181153	-28.534	-10.08	-25.075001
175	1	4	0.086130999	-27.018	-10.059	-24.754
176	1	4	-0.181153	-26.364	-11.461	-24.862
177	1	4	-0.181153	-27.355	-12.574	-24.504
178	1	5	0.087045997	-27.702999	-12.41	-23.459999
179	1	5	0.087045997	-26.834999	-13.556	-24.530001
180	1	5	0.087045997	-26.01	-11.625	-25.903999
181	1	5	0.087045997	-25.468	-11.529	-24.205999
182	1	3	-0.51703101	-26.804001	-9.4910002	-23.417999
183	1	2	0.79829001	-26.959999	-8.0950003	-23.143
184	1	1	-0.64007699	-27.271999	-7.2859998	-24.056999
185	1	6	0.306355	-26.528	-10.112	-22.624001
186	1	7	0.034968998	-26.506001	-9.4090004	-25.499001
187	1	5	0.087045997	-29.121	-10.228	-24.142
188	1	5	0.087045997	-28.836	-9.1020002	-25.507999
189	1	5	0.087045997	-28.327999	-11.04	-27.000999
190	1	5	0.087045997	-29.975	-11.139	-26.313
191	1	7	0.034968998	-28.264	-13.249	-26.34
192	1	6	0.306355	-29.999001	-12.808	-23.872999
193	1	8	-0.502312	-29.339001	-21.212	-28.188999
194	1	4	0.140784	-30.686001	-20.914	-27.941
195	1	4	-0.065550998	-30.811001	-19.493	-27.361
196	1	4	-0.067248002	-30.148001	-19.393	-25.969
197	1	4	-0.106826	-29.295	-18.129	-25.669001
198	1	4	-0.16253901	-30.018999	-16.82	-26.054001
199	1	4	-0.071901999	-31.167	-16.737	-25.024
200	1	4	-0.095941	-30.919001	-17.997	-24.153
201	1	4	-0.072848998	-31.264999	-19.302999	-24.924999
202	1	4	-0.165783	-32.598999	-19.361	-25.674999
203	1	4	-0.185231	-32.287998	-19.124001	-27.150999
204	1	5	0.099051997	-32.444	-18.054001	-27.403
205	1	5	0.099051997	-32.974998	-19.712999	-27.796
206	1	5	0.09341	-33.026001	-20.382999	-25.566
207	1	5	0.09341	-33.349998	-18.645	-25.280001
208	1	5	0.117091	-31.202999	-20.164	-24.219999
209	1	4	-0.143142	-29.402	-18.077	-24.159
210	1	5	0.100629	-29.009001	-18.993	-23.659
211	1	5	0.100629	-28.899	-17.188999	-23.715
212	1	5	0.122089	-31.368999	-17.954	-23.138
213	1	4	0.141408	-31.141001	-15.439	-24.193001
214	1	8	-0.502312	-31.513	-14.343	-24.986
215	1	7	0.076779999	-31.879	-15.527	-23.367001
216	1	7	0.076779999	-30.146	-15.263	-23.726999
217	1	5	0.108071	-32.151001	-16.77	-25.530001
218	1	5	0.106229	-29.306999	-15.972	-25.948999
219	1	5	0.106229	-30.396	-16.809	-27.094999
220	1	5	0.110848	-28.253	-18.193001	-26.048
221	1	5	0.128712	-29.518	-20.289	-25.761
222	1	5	0.107798	-30.337999	-18.799999	-28.089001
223	1	7	0.076779999	-31.113001	-21.656	-27.229
224	1	7	0.076779999	-31.250999	-20.974001	-28.898001
225	1	1	-0.64007801	-34.518002	-28.214001	-29.613001
226	1	2	0.79829001	-34.827	-27.009001	-29.417
227	1	3	-0.51703101	-33.887001	-26.087999	-28.853001
228	1	4	0.086130999	-32.495998	-26.450001	-28.561001
229	1	4	-0.181153	-31.591999	-26.087	-29.764999
230	1	4	-0.181153	-30.969999	-24.695	-29.611
231	1	4	0.086130999	-30.072001	-24.6	-28.351
232	1	4	-0.181153	-30.528	-25.556999	-27.219
233	1	4	-0.181153	-32.043999	-25.775999	-27.242001
234	1	5	0.087045997	-32.542999	-24.790001	-27.112
235	1	5	0.087045997	-32.34	-26.413	-26.381001
236	1	5	0.087045997	-30.025999	-26.542	-27.344
237	1	5	0.087045997	-30.219	-25.165001	-26.225
238	1	3	-0.51703101	-30.040001	-23.212999	-27.872999
239	1	2	0.79829001	-29.320999	-22.181	-28.556999
240	1	1	-0.64007699	-28.663	-22.434	-29.601
241	1	6	0.306355	-30.554001	-22.947001	-27.002001
242	1	7	0.034968998	-29.037001	-24.900999	-28.628
243	1	5	0.087045997	-31.792	-23.947001	-29.555
244	1	5	0.087045997	-30.367001	-24.461	-30.514999
245	1	5	0.087045997	-30.771999	-26.834999	-29.849001
246	1	5	0.087045997	-32.171001	-26.134001	-30.712999
247	1	7	0.034968998	-32.424999	-27.549999	-28.409
248	1	6	0.306355	-34.168999	-25.082001	-28.806
249	1	8	-0.502312	-37.717999	-33.431999	-26.091
250	1	4	0.140784	-38.499001	-32.903	-27.128
251	1	4	-0.065550998	-37.854	-31.611	-27.664
252	1	4	-0.067248002	-37.854	-30.496	-26.594999
253	1	4	-0.106826	-36.567001	-29.638	-26.452999
254	1	4	-0.16253901	-36.041	-29.127001	-27.813
255	1	4	-0.071901999	-37.113998	-28.104	-28.243999
256	1	4	-0.095941	-38.097	-28.134001	-27.042999
257	1	4	-0.072848998	-38.908001	-29.461	-27
258	1	4	-0.165783	-39.555	-29.948999	-28.299
259	1	4	-0.185231	-38.659	-31.056999	-28.85
260	1	5	0.099051997	-37.966	-30.641001	-29.610001
261	1	5	0.099051997	-39.268002	-31.836	-29.358999
262	1	5	0.09341	-40.549	-30.386999	-28.059999
263	1	5	0.09341	-39.719002	-29.134001	-29.034
264	1	5	0.117091	-39.688999	-29.379	-26.209
265	1	4	-0.143142	-37.146999	-28.362	-25.879
266	1	5	0.100629	-37.674	-28.517	-24.908001
267	1	5	0.100629	-36.390999	-27.556999	-25.746
268	1	5	0.122089	-38.731998	-27.226999	-26.941
269	1	4	0.141408	-36.542	-26.695	-28.493999
270	1	8	-0.502312	-35.778	-26.68	-29.67
271	1	7	0.076779999	-37.384998	-25.983	-28.625999
272	1	7	0.076779999	-35.938	-26.332001	-27.632
273	1	5	0.108071	-37.602001	-28.42	-29.186001
274	1	5	0.106229	-35.049999	-28.646	-27.658001
275	1	5	0.106229	-35.905998	-29.927	-28.566999
276	1	5	0.110848	-35.785	-30.106001	-25.818001
277	1	5	0.128712	-38.105	-30.906	-25.589001
278	1	5	0.107798	-36.821999	-31.870001	-27.983999
279	1	7	0.076779999	-39.528	-32.689999	-26.757
280	1	7	0.076779999	-38.564999	-33.651001	-27.948999
281	1	1	-0.64007801	-45.236	-37.941002	-27.108
282	1	2	0.79829001	-44.716	-37.063999	-27.846001
283	1	3	-0.51703101	-43.692001	-36.193001	-27.351
284	1	4	0.086130999	-43.119999	-36.323002	-26.007
285	1	4	-0.181153	-41.849998	-37.208	-26.056999
286	1	4	-0.181153	-40.577	-36.368999	-26.216
287	1	4	0.086130999	-40.377998	-35.391998	-25.030001
288	1	4	-0.181153	-41.717999	-34.953999	-24.384001
289	1	4	-0.181153	-42.854	-34.917999	-25.412001
290	1	5	0.087045997	-42.578999	-34.196999	-26.212
291	1	5	0.087045997	-43.779999	-34.540001	-24.927999
292	1	5	0.087045997	-41.991001	-35.672001	-23.579
293	1	5	0.087045997	-41.615002	-33.957001	-23.900999
294	1	3	-0.51703101	-39.613998	-34.221001	-25.478001
295	1	2	0.79829001	-38.213001	-34.282001	-25.764
296	1	1	-0.64007699	-37.569	-35.355	-25.618999
297	1	6	0.306355	-40.091999	-33.299999	-25.6
298	1	7	0.034968998	-39.793999	-35.91	-24.236
299	1	5	0.087045997	-40.645	-35.804001	-27.172001
300	1	5	0.087045997	-39.699001	-37.046001	-26.291
301	1	5	0.087045997	-41.771	-37.794998	-25.115
302	1	5	0.087045997	-41.918999	-37.941002	-26.889999
303	1	7	0.034968998	-43.853001	-36.828999	-25.34
304	1	6	0.306355	-43.231998	-35.554001	-28.038
305	1	8	-0.502312	-52.058998	-37.636002	-25.313
306	1	4	0.140784	-51.849998	-38.091	-26.621
307	1	4	-0.065550998	-50.380001	-37.875999	-27.024
308	1	4	-0.067248002	-50.029999	-36.373001	-27.096001
309	1	4	-0.106826	-48.667	-35.924	-26.500999
310	1	4	-0.16253901	-47.492001	-36.807999	-26.976
311	1	4	-0.071901999	-47.369999	-36.455002	-28.474001
312	1	4	-0.095941	-48.470001	-35.375	-28.649
313	1	4	-0.072848998	-49.896	-35.993999	-28.573999
314	1	4	-0.165783	-50.174999	-37.255001	-29.396999
315	1	4	-0.185231	-50.117001	-38.436001	-28.43
316	1	5	0.099051997	-49.111	-38.903	-28.464001
317	1	5	0.099051997	-50.848	-39.221001	-28.725
318	1	5	0.09341	-51.205002	-37.191002	-29.811001
319	1	5	0.09341	-49.48	-37.375999	-30.254
320	1	5	0.117091	-50.641998	-35.209999	-28.839001
321	1	4	-0.143142	-48.415001	-34.666	-27.306999
322	1	5	0.100629	-49.215	-33.897999	-27.184
323	1	5	0.100629	-47.433998	-34.191002	-27.084
324	1	5	0.122089	-48.327999	-34.706001	-29.524
325	1	4	0.141408	-45.972	-35.931	-28.861
326	1	8	-0.502312	-45.033001	-36.973	-28.83
327	1	7	0.076779999	-46.009998	-35.537998	-29.899
328	1	7	0.076779999	-45.646	-35.092999	-28.204
329	1	5	0.108071	-47.558998	-37.345001	-29.104
330	1	5	0.106229	-46.577999	-36.526001	-26.409
331	1	5	0.106229	-47.658001	-37.890999	-26.818001
332	1	5	0.110848	-48.689999	-35.761002	-25.403
333	1	5	0.128712	-50.830002	-35.754002	-26.625999
334	1	5	0.107798	-49.754002	-38.404999	-26.273001
335	1	7	0.076779999	-52.521999	-37.547001	-27.323999
336	1	7	0.076779999	-52.091	-39.176998	-26.669001
337	1	1	-0.64007801	-59.620998	-40.127998	-29.118999
338	1	2	0.79829001	-58.432999	-40.297001	-29.5
339	1	3	-0.51703101	-57.362999	-39.521999	-28.948
340	1	4	0.086130999	-57.556999	-38.564999	-27.853001
341	1	4	-0.181153	-57.285	-39.255001	-26.493999
342	1	4	-0.181153	-55.835999	-39.060001	-26.035999
343	1	4	0.086130999	-55.487999	-37.563	-25.839001
344	1	4	-0.181153	-56.316002	-36.630001	-26.761
345	1	4	-0.181153	-56.669998	-37.316002	-28.084
346	1	5	0.087045997	-55.723	-37.594002	-28.598
347	1	5	0.087045997	-57.206001	-36.598	-28.742001
348	1	5	0.087045997	-57.261002	-36.346001	-26.246
349	1	5	0.087045997	-55.764999	-35.685001	-26.961
350	1	3	-0.51703101	-54.050999	-37.358002	-26.054001
351	1	2	0.79829001	-53.063999	-37.790001	-25.111
352	1	1	-0.64007699	-53.400002	-38.354	-24.035999
353	1	6	0.306355	-53.715	-36.880001	-26.92
354	1	7	0.034968998	-55.731998	-37.276001	-24.791
355	1	5	0.087045997	-55.162998	-39.513	-26.797001
356	1	5	0.087045997	-55.675999	-39.608002	-25.082001
357	1	5	0.087045997	-57.960999	-38.826	-25.721001
358	1	5	0.087045997	-57.514	-40.341	-26.556999
359	1	7	0.034968998	-58.615002	-38.219002	-27.847
360	1	6	0.306355	-56.389999	-39.776001	-29.232
361	1	8	-0.502312	-64.565002	-37.687	-33.529999
362	1	4	0.140784	-64.255997	-39.037998	-33.737999
363	1	4	-0.065550998	-62.999001	-39.417999	-32.933998
364	1	4	-0.067248002	-61.750999	-38.667999	-33.452
365	1	4	-0.106826	-60.771	-38.09	-32.394001
366	1	4	-0.16253901	-60.408001	-39.115002	-31.297001
367	1	4	-0.071901999	-59.554001	-40.153999	-32.055
368	1	4	-0.095941	-59.504002	-39.556999	-33.486
369	1	4	-0.072848998	-60.879002	-39.676998	-34.205002
370	1	4	-0.165783	-61.597	-41.028999	-34.157001
371	1	4	-0.185231	-62.687	-40.914001	-33.092999
372	1	5	0.099051997	-62.32	-41.323002	-32.130001
373	1	5	0.099051997	-63.580002	-41.512001	-33.380001
374	1	5	0.09341	-62.084	-41.209999	-35.140999
375	1	5	0.09341	-60.909	-41.879002	-33.966999
376	1	5	0.117091	-60.757999	-39.362999	-35.266998
377	1	4	-0.143142	-59.485001	-38.067001	-33.194
378	1	5	0.100629	-59.549999	-37.438	-34.112999
379	1	5	0.100629	-58.605	-37.731998	-32.599998
380	1	5	0.122089	-58.652	-39.91	-34.106998
381	1	4	0.141408	-58.146999	-40.338001	-31.450001
382	1	8	-0.502312	-58.227001	-41.012001	-30.223
383	1	7	0.076779999	-57.537998	-40.959	-32.140999
384	1	7	0.076779999	-57.617001	-39.366001	-31.327999
385	1	5	0.108071	-60.037998	-41.148998	-32.036999
386	1	5	0.106229	-59.825001	-38.599998	-30.503
387	1	5	0.106229	-61.289001	-39.578999	-30.812
388	1	5	0.110848	-61.076	-37.098	-31.997
389	1	5	0.128712	-62.039001	-37.841	-34.140999
390	1	5	0.107798	-63.206001	-39.176998	-31.868999
391	1	7	0.076779999	-64.084999	-39.224998	-34.823002
392	1	7	0.076779999	-65.112999	-39.661999	-33.400002
393	1	1	-0.64007801	-69.819	-41.313	-39.624001
394	1	2	0.79829001	-69.009003	-41.859001	-38.828999
395	1	3	-0.51703101	-67.991997	-41.097	-38.169998
396	1	4	0.086130999	-67.884003	-39.639	-38.296001
397	1	4	-0.181153	-68.651001	-38.951	-37.140999
398	1	4	-0.181153	-67.733002	-38.637001	-35.955002
399	1	4	0.086130999	-66.587997	-37.671001	-36.349998
400	1	4	-0.181153	-66.184998	-37.799999	-37.841999
401	1	4	-0.181153	-66.391998	-39.227001	-38.361
402	1	5	0.087045997	-65.765999	-39.916	-37.750999
403	1	5	0.087045997	-66.033997	-39.296001	-39.410999
404	1	5	0.087045997	-66.806	-37.108002	-38.452999
405	1	5	0.087045997	-65.125999	-37.494999	-37.992001
406	1	3	-0.51703101	-65.427002	-37.901001	-35.480999
407	1	2	0.79829001	-65.403	-37.491001	-34.109001
408	1	1	-0.64007699	-66.384003	-36.891998	-33.595001
409	1	6	0.306355	-64.577003	-38.377998	-35.858002
410	1	7	0.034968998	-66.938004	-36.625	-36.202
411	1	5	0.087045997	-67.313004	-39.595001	-35.571999
412	1	5	0.087045997	-68.334	-38.186001	-35.134998
413	1	5	0.087045997	-69.094002	-37.998001	-37.507999
414	1	5	0.087045997	-69.495003	-39.589001	-36.799999
415	1	7	0.034968998	-68.356003	-39.314999	-39.250999
416	1	6	0.306355	-67.415001	-41.587002	-37.450001
417	1	8	-0.151306	-69.874001	-42.955002	-46.492001
418	1	4	0.058919001	-70.485001	-43.924	-45.686001
419	1	4	-0.057838	-70.197998	-43.630001	-44.202
420	1	4	-0.067363001	-68.694	-43.777	-43.879002
421	1	4	-0.106423	-68.049004	-42.701	-42.962002
422	1	4	-0.16253901	-68.882004	-42.426998	-41.691002
423	1	4	-0.071901999	-68.731003	-43.733002	-40.882999
424	1	4	-0.095941	-67.787003	-44.570999	-41.785
425	1	4	-0.072439998	-68.513	-45.063999	-43.07
426	1	4	-0.1655	-69.894997	-45.703999	-42.911999
427	1	4	-0.185968	-70.921997	-44.641998	-43.299999
428	1	5	0.099117003	-71.297997	-44.130001	-42.390999
429	1	5	0.099117003	-71.801003	-45.109001	-43.796001
430	1	5	0.09341	-69.980003	-46.551998	-43.626999
431	1	5	0.09341	-70.070999	-46.110001	-41.894001
432	1	5	0.117091	-67.843002	-45.769001	-43.613998
433	1	4	-0.143142	-66.897003	-43.493	-42.377998
434	1	5	0.100629	-66.193001	-43.881001	-43.152
435	1	5	0.100629	-66.310997	-42.922001	-41.623001
436	1	5	0.122089	-67.234001	-45.376999	-41.257
437	1	4	0.141408	-68.142998	-43.508999	-39.473999
438	1	8	-0.502312	-69.084	-42.877998	-38.646999
439	1	7	0.076779999	-67.902	-44.495998	-39.025002
440	1	7	0.076779999	-67.196999	-42.923	-39.507
441	1	5	0.108071	-69.711998	-44.223999	-40.741001
442	1	5	0.106229	-68.445	-41.556	-41.155998
443	1	5	0.106229	-69.944	-42.188999	-41.897999
444	1	5	0.110848	-67.738998	-41.780998	-43.501999
445	1	5	0.129095	-68.088997	-43.838001	-44.813999
446	1	5	0.111318	-70.560997	-42.599998	-43.995998
447	1	7	0.087141998	-70.105003	-44.936001	-45.955002
448	1	7	0.087141998	-71.584	-43.898998	-45.861
449	1	1	-0.72404099	3.756	3.27	0.176
450	1	2	0.54996401	4.1110001	2.0829999	-0.052999999
451	1	3	-0.569435	5.2880001	1.8	-0.81699997
452	1	4	0.085845999	6.1570001	2.858	-1.351
453	1	4	-0.18131199	7.0760002	2.313	-2.477
454	1	4	-0.142883	8.4919996	1.928	-2
455	1	4	0.20576601	8.4899998	1.41	-0.55599999
456	1	4	-0.142883	7.961	2.487	0.42699999
457	1	4	-0.18131199	6.987	3.4920001	-0.22
458	1	5	0.085373998	6.3200002	3.9170001	0.56
459	1	5	0.085373998	7.5679998	4.3410001	-0.64300001
460	1	5	0.082965001	8.8109999	3.062	0.85799998
461	1	5	0.082965001	7.4499998	1.976	1.271
462	1	3	-0.69520998	9.8439999	0.99699998	-0.191
463	1	9	0.604141	10.09	0.38100001	0.89600003
464	1	1	-0.54258198	10.328	-0.21799999	1.952
465	1	7	0.02609	7.8249998	0.51800001	-0.51599997
466	1	5	0.082965001	9.158	2.8180001	-2.066
467	1	5	0.082965001	8.9060001	1.151	-2.6789999
468	1	5	0.085373998	7.1810002	3.0910001	-3.2650001
469	1	5	0.085373998	6.599	1.437	-2.97
470	1	7	0.031936999	5.5110002	3.6470001	-1.8
471	1	6	0.30291599	5.4920001	0.79699999	-1.024
472	1	8	-0.151306	-70.078003	-43.207001	-47.429001
473	1	4	0.059602998	-69.264	-42.401001	-48.237
474	1	4	-0.064891003	-69.5	-42.657001	-49.741001
475	1	4	-0.16356	-69.714996	-44.139	-50.137001
476	1	4	-0.105809	-70.998001	-44.074001	-50.991001
477	1	4	-0.14270499	-70.836998	-42.73	-51.673
478	1	4	-0.096969999	-70.727997	-41.951	-50.375999
479	1	4	-0.071777001	-72.033997	-42.360001	-49.646
480	1	4	-0.060678001	-72.202003	-43.834	-50.044998
481	1	4	-0.101719	-73.574997	-43.950001	-50.738998
482	1	4	-0.180333	-74.343002	-42.687	-50.347
483	1	4	-0.1655	-73.286003	-41.616001	-50.129002
484	1	5	0.09341	-73.626999	-40.876999	-49.370998
485	1	5	0.09341	-73.103996	-41.073002	-51.081001
486	1	5	0.099117003	-74.901001	-42.838001	-49.396999
487	1	5	0.099117003	-75.060997	-42.388	-51.141998
488	1	4	0.13703901	-74.324997	-45.243	-50.381001
489	1	10	-0.68461698	-74.553001	-45.328999	-49
490	1	11	0.36959699	-75.032997	-46.185001	-48.853001
491	1	7	0.070330001	-73.722	-46.116001	-50.716
492	1	7	0.070330001	-75.297997	-45.262001	-50.922001
493	1	5	0.111678	-73.446999	-43.938	-51.845001
494	1	5	0.129095	-72.148003	-44.486	-49.144001
495	1	5	0.117091	-71.966003	-42.238998	-48.546001
496	1	5	0.122425	-70.598	-40.855	-50.507999
497	1	5	0.100629	-69.918999	-42.668999	-52.301998
498	1	5	0.100629	-71.709	-42.443001	-52.299999
499	1	5	0.110848	-71.119003	-44.936001	-51.681999
500	1	5	0.106201	-68.863998	-44.499001	-50.757999
501	1	5	0.106201	-69.828003	-44.827999	-49.272999
502	1	5	0.111898	-68.594002	-42.279999	-50.271
503	1	7	0.087141998	-69.448997	-41.326	-48.014
504	1	7	0.087141998	-68.197998	-42.623001	-48.005001

Bonds

1	1	1	2
2	2	2	3
3	3	2	46
4	4	3	4
5	5	3	24
6	6	4	5
7	7	4	23
8	6	4	9
9	6	5	6
10	7	5	21
11	7	5	22
12	6	6	7
13	7	6	19
14	7	6	20
15	6	7	8
16	4	7	14
17	7	7	18
18	6	8	9
19	7	8	12
20	7	8	13
21	7	9	10
22	7	9	11
23	2	14	15
24	5	14	17
25	1	15	16
26	8	15	450
27	9	25	26
28	3	25	71
29	6	26	27
30	7	26	55
31	7	26	56
32	6	27	28
33	7	27	54
34	6	27	35
35	6	28	29
36	7	28	53
37	6	28	33
38	6	29	30
39	7	29	52
40	6	29	41
41	6	30	31
42	7	30	50
43	7	30	51
44	6	31	32
45	6	31	45
46	7	31	49
47	6	32	33
48	6	32	41
49	7	32	44
50	6	33	34
51	7	33	40
52	6	34	35
53	7	34	38
54	7	34	39
55	7	35	36
56	7	35	37
57	7	41	42
58	7	41	43
59	9	45	46
60	7	45	47
61	7	45	48
62	1	57	58
63	2	58	59
64	3	58	102
65	4	59	60
66	5	59	80
67	6	60	61
68	7	60	79
69	6	60	65
70	6	61	62
71	7	61	77
72	7	61	78
73	6	62	63
74	7	62	75
75	7	62	76
76	6	63	64
77	4	63	70
78	7	63	74
79	6	64	65
80	7	64	68
81	7	64	69
82	7	65	66
83	7	65	67
84	2	70	71
85	5	70	73
86	1	71	72
87	9	81	82
88	3	81	127
89	6	82	83
90	7	82	111
91	7	82	112
92	6	83	84
93	7	83	110
94	6	83	91
95	6	84	85
96	7	84	109
97	6	84	89
98	6	85	86
99	7	85	108
100	6	85	97
101	6	86	87
102	7	86	106
103	7	86	107
104	6	87	88
105	6	87	101
106	7	87	105
107	6	88	89
108	6	88	97
109	7	88	100
110	6	89	90
111	7	89	96
112	6	90	91
113	7	90	94
114	7	90	95
115	7	91	92
116	7	91	93
117	7	97	98
118	7	97	99
119	9	101	102
120	7	101	103
121	7	101	104
122	1	113	114
123	2	114	115
124	3	114	158
125	4	115	116
126	5	115	136
127	6	116	117
128	7	116	135
129	6	116	121
130	6	117	118
131	7	117	133
132	7	117	134
133	6	118	119
134	7	118	131
135	7	118	132
136	6	119	120
137	4	119	126
138	7	119	130
139	6	120	121
140	7	120	124
141	7	120	125
142	7	121	122
143	7	121	123
144	2	126	127
145	5	126	129
146	1	127	128
147	9	137	138
148	3	137	183
149	6	138	139
150	7	138	167
151	7	138	168
152	6	139	140
153	7	139	166
154	6	139	147
155	6	140	141
156	7	140	165
157	6	140	145
158	6	141	142
159	7	141	164
160	6	141	153
161	6	142	143
162	7	142	162
163	7	142	163
164	6	143	144
165	6	143	157
166	7	143	161
167	6	144	145
168	6	144	153
169	7	144	156
170	6	145	146
171	7	145	152
172	6	146	147
173	7	146	150
174	7	146	151
175	7	147	148
176	7	147	149
177	7	153	154
178	7	153	155
179	9	157	158
180	7	157	159
181	7	157	160
182	1	169	170
183	2	170	171
184	3	170	214
185	4	171	172
186	5	171	192
187	6	172	173
188	7	172	191
189	6	172	177
190	6	173	174
191	7	173	189
192	7	173	190
193	6	174	175
194	7	174	187
195	7	174	188
196	6	175	176
197	4	175	182
198	7	175	186
199	6	176	177
200	7	176	180
201	7	176	181
202	7	177	178
203	7	177	179
204	2	182	183
205	5	182	185
206	1	183	184
207	9	193	194
208	3	193	239
209	6	194	195
210	7	194	223
211	7	194	224
212	6	195	196
213	7	195	222
214	6	195	203
215	6	196	197
216	7	196	221
217	6	196	201
218	6	197	198
219	7	197	220
220	6	197	209
221	6	198	199
222	7	198	218
223	7	198	219
224	6	199	200
225	6	199	213
226	7	199	217
227	6	200	201
228	6	200	209
229	7	200	212
230	6	201	202
231	7	201	208
232	6	202	203
233	7	202	206
234	7	202	207
235	7	203	204
236	7	203	205
237	7	209	210
238	7	209	211
239	9	213	214
240	7	213	215
241	7	213	216
242	1	225	226
243	2	226	227
244	3	226	270
245	4	227	228
246	5	227	248
247	6	228	229
248	7	228	247
249	6	228	233
250	6	229	230
251	7	229	245
252	7	229	246
253	6	230	231
254	7	230	243
255	7	230	244
256	6	231	232