Title

630 atoms
630 bonds
1161 angles
2138 dihedrals
99 impropers

10 atom types
13 bond types
9 angle types
45 dihedral types
2 improper types
-11.07699966 88.92300034 xlo xhi
-121.7679977 -21.76799774 ylo yhi
-36.47100067 63.52899933 zlo zhi
0.0 0.0 0.0 xy xz yz

Masses

1	12.01078
2	15.99943
3	1.007947
4	15.99943
5	12.01078
6	15.99943
7	1.007947
8	1.007947
9	14.00672
10	1.007947


Pair Coeffs

1	0.10884061	3.3795318
2	0.20947353	2.99716
3	1.2326e-05	0.53453923
4	0.16846514	3.0251065
5	0.086879315	3.4806469
6	0.2102061	3.0398122
7	0.016409246	2.5832257
8	0.015779483	2.6445434
9	0.16769152	3.206876
10	0.014090815	1.1034277

Bond Coeffs

1 harmonic	329.96998057905	1.427343958716
2 harmonic	264.62148576755	1.52190126495
3 harmonic	370.04670688625	1.093899492634
4 harmonic	543.5267831885	0.9716763312559
5 harmonic	366.7408841747	1.425895053732
6 harmonic	301.15400723785	1.345741232799
7 harmonic	582.698766451	1.225198386222
8 harmonic	279.1350963404	1.454628925034
9 harmonic	492.76746816345	1.381897776683
10 harmonic	505.144496193	1.019481865027
11 harmonic	352.0565580496	1.450098586273
12 harmonic	366.34047229585	1.464762957261
13 harmonic	422.7150220147	1.421786517481


Angle Coeffs

1 harmonic	65.09061609600001	110.3538806181
2 harmonic	53.20531626545	116.5475862634
3 harmonic	201.41175231035	127.4691416191
4 harmonic	57.8982893754	126.8062420451
5 harmonic	48.776492647595	115.6030999533
6 harmonic	55.42182150775	117.3465570514
7 harmonic	63.44422595415	115.5071327674
8 harmonic	49.015990027215	114.8414599994
9 harmonic	94.53012429075	110.92021963


Dihedral Coeffs

1 fourier 1	0.1918272375143	3	0
2 fourier 1	0.9202179876409	1	180
3 fourier 1	0.4552156463534	3	0
4 fourier 1	-0.03687743385131	2	180
5 fourier 1	-0.0309670556842	3	0
6 fourier 1	0.4598191477945	2	0
7 fourier 1	0.1115525666802	3	0
8 fourier 1	0.3432490222662	1	0
9 fourier 1	0.3445382149273	3	0
10 fourier 1	0.1364556373303	1	0
11 fourier 1	0.3026390167484	3	0
12 fourier 1	0.1155372516788	3	0
13 fourier 1	0.1040663847541	3	0
14 fourier 1	1.163809172478	2	180
15 fourier 1	0.1679186987369	1	180
16 fourier 1	2.779853741805	2	180
17 fourier 1	0.9974165607242	2	180
18 fourier 1	0.0473758381877	3	0
19 fourier 1	0.1911926717192	3	0
20 fourier 1	0.09223874044423	3	0
21 fourier 1	0.3159935921949	2	180
22 fourier 1	0.3247796806857	1	180
23 fourier 1	1.809047390003	2	180
24 fourier 1	-0.04816277792592	1	0
25 fourier 1	-0.1488678166443	4	180
26 fourier 1	-0.1230328948768	3	180
27 fourier 1	0.2939295466901	2	0
28 fourier 1	-0.3024127022865	1	0
29 fourier 1	0.182238503271	2	0
30 fourier 1	0.02972342374561	3	0
31 fourier 1	0.4860993122944	2	180
32 fourier 1	0.8916986138746	1	0
33 fourier 1	0.2810888471023	3	0
34 fourier 1	0.05324557188047	2	180
35 fourier 1	0.2036670163956	3	0
36 fourier 1	0.3917343745784	3	0
37 fourier 1	0.9467782973395	2	0
38 fourier 1	0.2726597146827	1	0
39 fourier 1	0.774151252041	3	0
40 fourier 1	1.087509576657	2	0
41 fourier 1	1.518874939494	1	0
42 fourier 1	0.6761465733405	3	0
43 fourier 1	1.653011589151	2	0
44 fourier 1	1.713184811193	1	0
45 fourier 1	1.659715194912	2	180


Improper Coeffs

1 3.5	-1	2
2 0.3333333333333333	-1	2


Atoms

1	1	1	0.13144299	-5.2849998	0.25299999	1.2180001
2	1	2	-0.70321703	-6.5469999	-0.36300001	1.268
3	1	3	0.40753099	-6.6139998	-0.84200001	2.1359999
4	1	1	0.108646	-5.151	1.301	2.339
5	1	4	-0.49571601	-6.2080002	2.2579999	2.2709999
6	1	5	0.623362	-6.2509999	3.2880001	1.327
7	1	6	-0.56209499	-5.3319998	3.4330001	0.47400001
8	1	7	0.089817002	-4.1690001	1.8200001	2.276
9	1	7	0.089817002	-5.2020001	0.79400003	3.326
10	1	7	0.093411997	-5.2010002	0.76999998	0.23899999
11	1	1	0.043361001	-4.1690001	-0.80400002	1.298
12	1	4	-0.47997499	-2.8970001	-0.20100001	1.14
13	1	1	0.078474	-2.4549999	-0.26499999	-0.204
14	1	1	-0.15845799	-1.591	-1.517	-0.41600001
15	1	1	-0.13848899	-0.99699998	-1.594	-1.839
16	1	1	-0.13848899	0.495	-1.225	-1.902
17	1	1	-0.15845799	0.75099999	0.26699999	-1.647
18	1	1	0.078449003	2.22	0.62900001	-1.868
19	1	4	-0.48213699	3.0139999	0.0020000001	-0.88200003
20	1	1	0.083327003	4.381	0.183	-1.184
21	1	1	0.15567601	5.2379999	-0.31900001	-0.016000001
22	1	1	0.091645002	5.0689998	0.59500003	1.211
23	1	2	-0.680857	5.7010002	0.039999999	2.3329999
24	1	3	0.38674501	6.6350002	0.37799999	2.336
25	1	7	0.089553997	5.4710002	1.613	0.99199998
26	1	7	0.089553997	3.9890001	0.70899999	1.448
27	1	4	-0.49713501	6.605	-0.34	-0.43200001
28	1	5	0.77865702	7.5669999	-1.2	0.104
29	1	6	-0.62157601	7.2620001	-2.0710001	0.96200001
30	1	7	0.101134	4.9000001	-1.349	0.236
31	1	7	0.088244997	4.6230001	1.2539999	-1.377
32	1	7	0.088244997	4.6430001	-0.41100001	-2.089
33	1	7	0.077823997	2.3210001	1.735	-1.785
34	1	7	0.077823997	2.5190001	0.31900001	-2.8959999
35	1	8	0.092666	0.47600001	0.52700001	-0.60299999
36	1	8	0.092666	0.126	0.87400001	-2.3380001
37	1	8	0.087434001	1.064	-1.839	-1.17
38	1	8	0.087434001	0.86699998	-1.485	-2.9170001
39	1	8	0.087434001	-1.575	-0.96799999	-2.5539999
40	1	8	0.087434001	-1.092	-2.6429999	-2.1960001
41	1	8	0.092666	-2.2290001	-2.4130001	-0.25
42	1	8	0.092666	-0.78600001	-1.548	0.35299999
43	1	7	0.077823997	-3.2920001	-0.237	-0.94199997
44	1	7	0.077823997	-1.8430001	0.639	-0.39899999
45	1	7	0.089827001	-4.197	-1.285	2.299
46	1	7	0.089827001	-4.3649998	-1.619	0.56300002
47	1	9	-0.470319	13.262	-5.4359999	-2.5450001
48	1	10	0.325068	13.512	-4.494	-2.925
49	1	1	0.033860002	13.948	-5.6090002	-1.267
50	1	1	-0.153405	13.368	-4.6719999	-0.20299999
51	1	1	0.094640002	11.914	-5.0180001	0.138
52	1	9	-0.85137999	11.413	-4.1020002	1.171
53	1	1	0.094640002	9.9720001	-4.2849998	1.404
54	1	1	-0.153405	9.1389999	-3.4100001	0.45699999
55	1	1	0.033860002	9.4130001	-1.916	0.66600001
56	1	9	-0.47153601	8.5760002	-1.123	-0.228
57	1	10	0.325068	8.849	-0.12	-0.113
58	1	7	0.053931002	9.2060003	-1.635	1.724
59	1	7	0.053931002	10.481	-1.7	0.447
60	1	8	0.093966	8.0629997	-3.612	0.64999998
61	1	8	0.093966	9.3479996	-3.6819999	-0.59899998
62	1	7	0.071519002	9.7279997	-4	2.4519999
63	1	7	0.071519002	9.6739998	-5.3520002	1.2869999
64	1	10	0.37690601	11.911	-4.3309999	2.0639999
65	1	7	0.071519002	11.3	-4.9289999	-0.78399998
66	1	7	0.071519002	11.859	-6.0700002	0.50199997
67	1	8	0.093966	13.987	-4.756	0.71700001
68	1	8	0.093966	13.427	-3.6199999	-0.55900002
69	1	7	0.053931002	15.032	-5.3920002	-1.393
70	1	7	0.053931002	13.848	-6.664	-0.93000001
71	1	1	0.135104	15.239	-8.8909998	-3.6099999
72	1	2	-0.70321703	15.553	-9.1359997	-2.2609999
73	1	3	0.40753099	16.538	-9.0530005	-2.1619999
74	1	1	0.088382997	15.628	-7.454	-4.0019999
75	1	4	-0.490275	15.008	-6.5040002	-3.1370001
76	1	5	0.783575	13.658	-6.152	-3.224
77	1	6	-0.61293501	12.905	-6.6609998	-4.0999999
78	1	7	0.100162	15.343	-7.2449999	-5.0570002
79	1	7	0.100162	16.73	-7.3340001	-3.9200001
80	1	7	0.093411997	14.141	-9.0050001	-3.7260001
81	1	1	0.043361001	15.926	-9.9289999	-4.5149999
82	1	4	-0.47997499	15.529	-9.7559996	-5.8639998
83	1	1	0.078474	14.452	-10.611	-6.2030001
84	1	1	-0.15845799	14.986	-11.918	-6.8080001
85	1	1	-0.13848899	13.856	-12.854	-7.2880001
86	1	1	-0.13848899	13.675	-12.864	-8.8149996
87	1	1	-0.15845799	13.102	-11.546	-9.3559999
88	1	1	0.078449003	12.79	-11.641	-10.85
89	1	4	-0.48213699	13.995	-11.78	-11.575
90	1	1	0.083327003	13.708	-12.05	-12.931
91	1	1	0.15567601	15.001	-11.999	-13.751
92	1	1	0.091645002	15.537	-10.558	-13.83
93	1	2	-0.680857	16.809999	-10.534	-14.418
94	1	3	0.38674501	16.674999	-10.429	-15.396
95	1	7	0.089553997	14.825	-9.9119997	-14.397
96	1	7	0.089553997	15.625	-10.135	-12.806
97	1	4	-0.49713501	14.726	-12.496	-15.063
98	1	5	0.77865702	15.685	-13.098	-15.883
99	1	6	-0.62157601	16.860001	-13.299	-15.476
100	1	7	0.101134	15.751	-12.649	-13.247
101	1	7	0.088244997	12.982	-11.315	-13.353
102	1	7	0.088244997	13.276	-13.072	-13.023
103	1	7	0.077823997	12.272	-10.705	-11.157
104	1	7	0.077823997	12.104	-12.503	-11.023
105	1	8	0.092666	13.829	-10.723	-9.1990004
106	1	8	0.092666	12.164	-11.298	-8.8109999
107	1	8	0.087434001	14.648	-13.085	-9.3070002
108	1	8	0.087434001	12.977	-13.691	-9.0699997
109	1	8	0.087434001	12.89	-12.612	-6.7909999
110	1	8	0.087434001	14.113	-13.891	-6.98
111	1	8	0.092666	15.576	-12.447	-6.0279999
112	1	8	0.092666	15.688	-11.683	-7.6389999
113	1	7	0.077823997	13.776	-10.825	-5.3410001
114	1	7	0.077823997	13.832	-10.085	-6.9559999
115	1	7	0.089827001	17.027	-9.7849998	-4.461
116	1	7	0.089827001	15.736	-10.957	-4.1279998
117	1	9	-0.470319	15.993	-19.073	-20.528999
118	1	10	0.325068	15.178	-18.548	-20.923
119	1	1	0.033860002	17.194	-18.662001	-21.25
120	1	1	-0.153405	17.561001	-17.211	-20.917999
121	1	1	0.094640002	17.966	-17.041	-19.448999
122	1	9	-0.85137999	18.320999	-15.64	-19.190001
123	1	1	0.094640002	18.548	-15.396	-17.757
124	1	1	-0.153405	17.240999	-15.025	-17.042
125	1	1	0.033860002	16.629	-13.734	-17.597
126	1	9	-0.47153601	15.411	-13.401	-16.865999
127	1	10	0.325068	14.983	-12.565	-17.325001
128	1	7	0.053931002	17.360001	-12.898	-17.511
129	1	7	0.053931002	16.379	-13.874	-18.671
130	1	8	0.093966	17.462	-14.886	-15.961
131	1	8	0.093966	16.507	-15.853	-17.131001
132	1	7	0.071519002	19.266001	-14.555	-17.634001
133	1	7	0.071519002	19.007	-16.282	-17.261999
134	1	10	0.37690601	19.219999	-15.445	-19.691
135	1	7	0.071519002	17.112	-17.346001	-18.806
136	1	7	0.071519002	18.833	-17.702999	-19.225
137	1	8	0.093966	18.410999	-16.905001	-21.566999
138	1	8	0.093966	16.698999	-16.547001	-21.146999
139	1	7	0.053931002	17.021999	-18.754	-22.344999
140	1	7	0.053931002	18.039	-19.332001	-20.978001
141	1	1	0.135104	17.042	-22.861	-21.768999
142	1	2	-0.70321703	18.323999	-22.4	-22.115999
143	1	3	0.40753099	18.41	-22.464001	-23.103001
144	1	1	0.088382997	15.958	-21.959999	-22.389999
145	1	4	-0.490275	16.149	-20.598	-22.01
146	1	5	0.783575	15.822	-20.101	-20.743999
147	1	6	-0.61293501	15.322	-20.848	-19.857
148	1	7	0.100162	14.944	-22.298	-22.083
149	1	7	0.100162	16.014	-22.024	-23.497999
150	1	7	0.093411997	16.952999	-22.811001	-20.663
151	1	1	0.043361001	16.868	-24.329	-22.197001
152	1	4	-0.47997499	15.619	-24.834	-21.754999
153	1	1	0.078474	15.742	-25.517	-20.521
154	1	1	-0.15845799	15.958	-27.017	-20.768
155	1	1	-0.13848899	16.002001	-27.833	-19.458
156	1	1	-0.13848899	14.712	-28.624001	-19.184
157	1	1	-0.15845799	13.523	-27.719999	-18.829
158	1	1	0.078449003	12.3	-28.540001	-18.414
159	1	4	-0.48213699	11.821	-29.267	-19.525
160	1	1	0.083327003	10.809	-30.160999	-19.110001
161	1	1	0.15567601	10.151	-30.801001	-20.337
162	1	1	0.091645002	9.3369999	-29.757	-21.122
163	1	2	-0.680857	8.8889999	-30.290001	-22.339001
164	1	3	0.38674501	8.0019999	-30.702	-22.165001
165	1	7	0.089553997	8.4799995	-29.393999	-20.507
166	1	7	0.089553997	9.9770002	-28.877001	-21.35
167	1	4	-0.49713501	9.3000002	-31.860001	-19.895
168	1	5	0.77865702	8.9770002	-32.974998	-20.674
169	1	6	-0.62157601	9.4829998	-33.144001	-21.816
170	1	7	0.101134	10.961	-31.208	-20.985001
171	1	7	0.088244997	10.026	-29.645	-18.506001
172	1	7	0.088244997	11.259	-30.971001	-18.493
173	1	7	0.077823997	11.515	-27.834999	-18.056999
174	1	7	0.077823997	12.585	-29.212999	-17.572001
175	1	8	0.092666	13.248	-27.094	-19.702999
176	1	8	0.092666	13.805	-27.048	-17.988001
177	1	8	0.087434001	14.463	-29.252001	-20.066999
178	1	8	0.087434001	14.908	-29.311001	-18.330999
179	1	8	0.087434001	16.246	-27.187	-18.584999
180	1	8	0.087434001	16.830999	-28.570999	-19.539
181	1	8	0.092666	16.927	-27.146999	-21.298
182	1	8	0.092666	15.165	-27.4	-21.448
183	1	7	0.077823997	16.551001	-25.106001	-19.872
184	1	7	0.077823997	14.796	-25.370001	-19.962
185	1	7	0.089827001	16.886999	-24.388	-23.306
186	1	7	0.089827001	17.736	-24.933001	-21.844999
187	1	9	-0.470319	8.2819996	-40.439999	-19.591999
188	1	10	0.325068	7.6290002	-40.066002	-18.865
189	1	1	0.033860002	7.5100002	-40.712002	-20.802
190	1	1	-0.153405	7.0279999	-39.409	-21.448999
191	1	1	0.094640002	8.1940002	-38.558998	-21.968
192	1	9	-0.85137999	7.677	-37.333	-22.589001
193	1	1	0.094640002	8.7650003	-36.408001	-22.945
194	1	1	-0.153405	9.1070004	-35.473999	-21.775999
195	1	1	0.033860002	7.9180002	-34.592999	-21.378
196	1	9	-0.47153601	8.2980003	-33.699001	-20.289
197	1	10	0.325068	7.4429998	-33.174999	-19.993999
198	1	7	0.053931002	7.5770001	-33.994999	-22.253
199	1	7	0.053931002	7.0760002	-35.236	-21.040001
200	1	8	0.093966	9.9540005	-34.823002	-22.084999
201	1	8	0.093966	9.441	-36.066002	-20.898001
202	1	7	0.071519002	8.4510002	-35.784	-23.812
203	1	7	0.071519002	9.6789999	-36.959	-23.264999
204	1	10	0.37690601	7.1929998	-37.609001	-23.476
205	1	7	0.071519002	8.8590002	-38.306	-21.114
206	1	7	0.071519002	8.7790003	-39.146999	-22.712
207	1	8	0.093966	6.3579998	-39.662998	-22.298
208	1	8	0.093966	6.4380002	-38.821999	-20.711
209	1	7	0.053931002	6.6279998	-41.341999	-20.549
210	1	7	0.053931002	8.1379995	-41.278	-21.525
211	1	1	0.135104	9.3170004	-44.421001	-19.85
212	1	2	-0.70321703	8.8389997	-44.466999	-21.171
213	1	3	0.40753099	8.0450001	-45.063999	-21.183001
214	1	1	0.088382997	8.2600002	-43.806999	-18.914
215	1	4	-0.490275	7.8590002	-42.516998	-19.374001
216	1	5	0.783575	8.6440001	-41.369999	-19.224001
217	1	6	-0.61293501	9.7679996	-41.417	-18.650999
218	1	7	0.100162	8.6529999	-43.730999	-17.875
219	1	7	0.100162	7.3639998	-44.463001	-18.889
220	1	7	0.093411997	10.218	-43.771	-19.841
221	1	1	0.043361001	9.7370005	-45.826	-19.384001
222	1	4	-0.47997499	10.321	-45.771999	-18.094
223	1	1	0.078474	11.733	-45.696999	-18.165001
224	1	1	-0.15845799	12.34	-47.105999	-18.087
225	1	1	-0.13848899	13.883	-47.084999	-18.062
226	1	1	-0.13848899	14.478	-47.348	-16.667999
227	1	1	-0.15845799	14.236	-46.189999	-15.689
228	1	1	0.078449003	14.968	-46.414001	-14.365
229	1	4	-0.48213699	14.399	-47.518002	-13.692
230	1	1	0.083327003	15.181	-47.841999	-12.562
231	1	1	0.15567601	14.459	-48.902	-11.723
232	1	1	0.091645002	13.2	-48.307999	-11.067
233	1	2	-0.680857	12.439	-49.314999	-10.454
234	1	3	0.38674501	12.764	-49.394001	-9.5190001
235	1	7	0.089553997	13.483	-47.52	-10.33
236	1	7	0.089553997	12.565	-47.826	-11.842
237	1	4	-0.49713501	15.36	-49.377998	-10.721
238	1	5	0.77865702	15.286	-50.653	-10.151
239	1	6	-0.62157601	14.439	-51.498001	-10.546
240	1	7	0.101134	14.17	-49.735001	-12.402
241	1	7	0.088244997	15.376	-46.946999	-11.925
242	1	7	0.088244997	16.157	-48.264	-12.893
243	1	7	0.077823997	14.853	-45.494999	-13.746
244	1	7	0.077823997	16.052	-46.570999	-14.573
245	1	8	0.092666	13.151	-46.091	-15.48
246	1	8	0.092666	14.597	-45.241001	-16.141001
247	1	8	0.087434001	14.059	-48.291	-16.254
248	1	8	0.087434001	15.574	-47.494999	-16.788
249	1	8	0.087434001	14.284	-46.132	-18.474001
250	1	8	0.087434001	14.25	-47.891998	-18.733999
251	1	8	0.092666	12.008	-47.678001	-18.981001
252	1	8	0.092666	11.935	-47.636002	-17.197001
253	1	7	0.077823997	12.097	-45.162998	-19.075001
254	1	7	0.077823997	12.081	-45.098999	-17.299
255	1	7	0.089827001	8.8339996	-46.472	-19.323
256	1	7	0.089827001	10.398	-46.299	-20.146999
257	1	9	-0.470319	20.169001	-56.092999	-8.1669998
258	1	10	0.325068	20.549999	-55.273998	-7.6409998
259	1	1	0.033860002	19.26	-56.82	-7.2849998
260	1	1	-0.153405	17.993	-56.000999	-7.0120001
261	1	1	0.094640002	17.155001	-55.798	-8.2790003
262	1	9	-0.85137999	15.949	-55.022999	-7.9580002
263	1	1	0.094640002	15.204	-54.655998	-9.1730003
264	1	1	-0.153405	15.704	-53.326	-9.7519999
265	1	1	0.033860002	15.511	-52.162998	-8.7720003
266	1	9	-0.47153601	15.967	-50.916	-9.3769999
267	1	10	0.325068	15.895	-50.166	-8.6520004
268	1	7	0.053931002	14.437	-52.075001	-8.4919996
269	1	7	0.053931002	16.101	-52.354	-7.849
270	1	8	0.093966	15.135	-53.112999	-10.683
271	1	8	0.093966	16.777	-53.405998	-10.026
272	1	7	0.071519002	14.124	-54.547001	-8.9250002
273	1	7	0.071519002	15.273	-55.452	-9.9490004
274	1	10	0.37690601	15.327	-55.633999	-7.3769999
275	1	7	0.071519002	17.768999	-55.257	-9.0310001
276	1	7	0.071519002	16.871	-56.790001	-8.6990004
277	1	8	0.093966	17.382	-56.539001	-6.2540002
278	1	8	0.093966	18.271999	-55.012001	-6.586
279	1	7	0.053931002	19.768999	-57.036999	-6.3200002
280	1	7	0.053931002	18.983	-57.791	-7.7529998
281	1	1	0.135104	22.136	-59.705002	-8.4370003
282	1	2	-0.70321703	21.025	-60.360001	-7.8769999
283	1	3	0.40753099	21.298	-60.709	-6.9879999
284	1	1	0.088382997	22.546	-58.5	-7.5710001
285	1	4	-0.490275	21.447001	-57.608002	-7.3850002
286	1	5	0.783575	20.996	-56.73	-8.375
287	1	6	-0.61293501	21.556	-56.673	-9.5039997
288	1	7	0.100162	23.399	-57.956001	-8.0340004
289	1	7	0.100162	22.877001	-58.859001	-6.573
290	1	7	0.093411997	21.837	-59.334	-9.441
291	1	1	0.043361001	23.302999	-60.692001	-8.6199999
292	1	4	-0.47997499	24.388	-60.067001	-9.283
293	1	1	0.078474	24.354	-60.308998	-10.678
294	1	1	-0.15845799	25.204	-61.541	-11.02
295	1	1	-0.13848899	25.287001	-61.800999	-12.539
296	1	1	-0.13848899	26.629999	-61.383999	-13.161
297	1	1	-0.15845799	26.822001	-59.860001	-13.196
298	1	1	0.078449003	28.093	-59.473999	-13.956
299	1	4	-0.48213699	29.225	-59.917	-13.237
300	1	1	0.083327003	30.388	-59.726002	-14.015
301	1	1	0.15567601	31.629999	-60.014999	-13.164
302	1	1	0.091645002	31.805	-58.938999	-12.078
303	1	2	-0.680857	32.826	-59.297001	-11.185
304	1	3	0.38674501	33.671001	-58.924	-11.548
305	1	7	0.089553997	32.015999	-57.948002	-12.546
306	1	7	0.089553997	30.863001	-58.837002	-11.496
307	1	4	-0.49713501	32.771999	-60.040001	-14.023
308	1	5	0.77865702	33.931999	-60.771999	-13.752
309	1	6	-0.62157601	34.013	-61.52	-12.741
310	1	7	0.101134	31.490999	-61.009998	-12.685
311	1	7	0.088244997	30.454	-58.685001	-14.41
312	1	7	0.088244997	30.381001	-60.433998	-14.874
313	1	7	0.077823997	28.115999	-58.365002	-14.05
314	1	7	0.077823997	28.052999	-59.918999	-14.977
315	1	8	0.092666	26.895	-59.463001	-12.163
316	1	8	0.092666	25.948999	-59.388	-13.697
317	1	8	0.087434001	27.466	-61.860001	-12.602
318	1	8	0.087434001	26.66	-61.773998	-14.202
319	1	8	0.087434001	24.447001	-61.311001	-13.081
320	1	8	0.087434001	25.17	-62.894001	-12.709
321	1	8	0.092666	24.742001	-62.429001	-10.534
322	1	8	0.092666	26.219999	-61.425999	-10.58
323	1	7	0.077823997	23.318001	-60.424	-11.077
324	1	7	0.077823997	24.780001	-59.417999	-11.182
325	1	7	0.089827001	23.658001	-61.021999	-7.6199999
326	1	7	0.089827001	22.944	-61.613998	-9.1339998
327	1	9	-0.470319	38.751999	-65.110001	-17.667999
328	1	10	0.325068	38.773998	-64.223999	-18.225
329	1	1	0.033860002	39.841999	-65.066002	-16.697001
330	1	1	-0.153405	39.574001	-64.007004	-15.621
331	1	1	0.094640002	38.358002	-64.360001	-14.758
332	1	9	-0.85137999	38.154999	-63.324001	-13.736
333	1	1	0.094640002	36.900002	-63.530998	-12.997
334	1	1	-0.153405	35.722	-62.839001	-13.696
335	1	1	0.033860002	35.915001	-61.320999	-13.781
336	1	9	-0.47153601	34.757999	-60.702	-14.42
337	1	10	0.325068	34.963001	-59.682999	-14.531
338	1	7	0.053931002	36.053001	-60.896999	-12.761
339	1	7	0.053931002	36.823002	-61.095001	-14.382
340	1	8	0.093966	34.797001	-63.055	-13.119
341	1	8	0.093966	35.584999	-63.252998	-14.718
342	1	7	0.071519002	36.999001	-63.105999	-11.973
343	1	7	0.071519002	36.676998	-64.614998	-12.872
344	1	10	0.37690601	38.943001	-63.398998	-13.05
345	1	7	0.071519002	37.463001	-64.431999	-15.413
346	1	7	0.071519002	38.522999	-65.348	-14.271
347	1	8	0.093966	40.472	-63.93	-14.97
348	1	8	0.093966	39.415001	-63.016998	-16.103001
349	1	7	0.053931002	40.796001	-64.823997	-17.216999
350	1	7	0.053931002	39.956001	-66.063004	-16.219
351	1	1	0.135104	40.554001	-68.598999	-18.917999
352	1	2	-0.70321703	41.325001	-68.629997	-17.743
353	1	3	0.40753099	42.273998	-68.492996	-18.002001
354	1	1	0.088382997	40.657001	-67.220001	-19.594999
355	1	4	-0.490275	40.284	-66.179001	-18.691999
356	1	5	0.783575	38.957001	-65.900002	-18.349001
357	1	6	-0.61293501	38.001999	-66.563004	-18.839001
358	1	7	0.100162	40.014999	-67.179001	-20.503
359	1	7	0.100162	41.706001	-67.042999	-19.916
360	1	7	0.093411997	39.495998	-68.774002	-18.631001
361	1	1	0.043361001	40.985001	-69.727997	-19.871
362	1	4	-0.47997499	40.141998	-69.772003	-21.009001
363	1	1	0.078474	39.095001	-70.710999	-20.844999
364	1	1	-0.15845799	39.507999	-72.069	-21.431
365	1	1	-0.13848899	38.369999	-73.111	-21.371
366	1	1	-0.13848899	37.686001	-73.351997	-22.726999
367	1	1	-0.15845799	36.848	-72.152	-23.193001
368	1	1	0.078449003	36.060001	-72.478996	-24.462999
369	1	4	-0.48213699	36.957001	-72.671997	-25.537001
370	1	1	0.083327003	36.254002	-73.148003	-26.665001
371	1	1	0.15567601	37.183998	-73.165001	-27.882999
372	1	1	0.091645002	37.529999	-71.730003	-28.319
373	1	2	-0.680857	38.521999	-71.738998	-29.309999
374	1	3	0.38674501	38.056999	-71.785004	-30.186001
375	1	7	0.089553997	36.615002	-71.204002	-28.679001
376	1	7	0.089553997	37.922001	-71.157997	-27.450001
377	1	4	-0.49713501	36.528	-73.860001	-28.945999
378	1	5	0.77865702	37.202999	-74.535004	-29.966
379	1	6	-0.62157601	38.459999	-74.625999	-29.971001
380	1	7	0.101134	38.115002	-73.703003	-27.594
381	1	7	0.088244997	35.366001	-72.514999	-26.896
382	1	7	0.088244997	35.909	-74.190002	-26.475
383	1	7	0.077823997	35.387001	-71.619003	-24.683001
384	1	7	0.077823997	35.436001	-73.384003	-24.278999
385	1	8	0.092666	37.508999	-71.286003	-23.4
386	1	8	0.092666	36.131001	-71.866997	-22.392
387	1	8	0.087434001	38.451	-73.601997	-23.493999
388	1	8	0.087434001	37.02	-74.236	-22.620001
389	1	8	0.087434001	37.611	-72.839996	-20.604
390	1	8	0.087434001	38.807999	-74.080002	-21.046
391	1	8	0.092666	40.370998	-72.453003	-20.846001
392	1	8	0.092666	39.863998	-71.929001	-22.476
393	1	7	0.077823997	38.771	-70.824997	-19.782
394	1	7	0.077823997	38.212002	-70.327003	-21.395
395	1	7	0.089827001	42.021	-69.531998	-20.219999
396	1	7	0.089827001	41.028999	-70.695999	-19.318001
397	1	9	-0.470319	36.457001	-81.108002	-33.657001
398	1	10	0.325068	35.513	-80.681	-33.806
399	1	1	0.033860002	37.301998	-80.757004	-34.794998
400	1	1	-0.153405	37.629002	-79.259003	-34.792
401	1	1	0.094640002	38.487999	-78.860001	-33.588001
402	1	9	-0.85137999	38.783001	-77.421997	-33.643002
403	1	1	0.094640002	39.458	-76.961998	-32.418999
404	1	1	-0.153405	38.442001	-76.543999	-31.347
405	1	1	0.033860002	37.566002	-75.375	-31.809
406	1	9	-0.47153601	36.641998	-74.989998	-30.747999
407	1	10	0.325068	36.009998	-74.248001	-31.129
408	1	7	0.053931002	38.205002	-74.505997	-32.084999
409	1	7	0.053931002	36.980999	-75.681	-32.703999
410	1	8	0.093966	39.001999	-76.239998	-30.434999
411	1	8	0.093966	37.798	-77.405998	-31.073
412	1	7	0.071519002	40.098	-76.082001	-32.658001
413	1	7	0.071519002	40.134998	-77.746002	-32.008999
414	1	10	0.37690601	39.438999	-77.264999	-34.444
415	1	7	0.071519002	37.932999	-79.101997	-32.655998
416	1	7	0.071519002	39.436001	-79.445	-33.598999
417	1	8	0.093966	38.178001	-79.016998	-35.728001
418	1	8	0.093966	36.683998	-78.671997	-34.787998
419	1	7	0.053931002	36.779999	-81.015999	-35.742001
420	1	7	0.053931002	38.245998	-81.345001	-34.752998
421	1	1	0.135104	37.359001	-84.989998	-34.708
422	1	2	-0.70321703	38.402	-84.531998	-35.530998
423	1	3	0.40753099	38.154999	-84.736	-36.471001
424	1	1	0.088382997	36.054001	-84.235001	-35.02
425	1	4	-0.490275	36.238998	-82.824997	-34.900002
426	1	5	0.783575	36.316002	-82.162003	-33.671001
427	1	6	-0.61293501	36.214001	-82.791	-32.581001
428	1	7	0.100162	35.237	-84.567001	-34.341
429	1	7	0.100162	35.737999	-84.458	-36.061001
430	1	7	0.093411997	37.645	-84.781998	-33.654999
431	1	1	0.043361001	37.182999	-86.511002	-34.863998
432	1	4	-0.47997499	36.207001	-86.997002	-33.958
433	1	1	0.078474	36.799999	-87.486	-32.769001
434	1	1	-0.15845799	37.053001	-88.996002	-32.889
435	1	1	-0.13848899	37.610001	-89.608002	-31.584999
436	1	1	-0.13848899	36.563999	-90.403999	-30.785999
437	1	1	-0.15845799	35.488998	-89.507004	-30.155001
438	1	1	0.078449003	34.556999	-90.307999	-29.243999
439	1	4	-0.48213699	33.797001	-91.209999	-30.021
440	1	1	0.083327003	33.07	-92.073997	-29.174
441	1	1	0.15567601	32.096001	-92.913002	-30.007999
442	1	1	0.091645002	30.975	-92.029999	-30.584
443	1	2	-0.680857	30.191	-92.753998	-31.493999
444	1	3	0.38674501	29.455999	-93.171997	-30.975
445	1	7	0.089553997	30.346001	-91.616997	-29.76
446	1	7	0.089553997	31.419001	-91.167	-31.127001
447	1	4	-0.49713501	31.542	-93.931	-29.171
448	1	5	0.77865702	31.076	-95.160004	-29.646
449	1	6	-0.62157601	31.18	-95.473	-30.863001
450	1	7	0.101134	32.672001	-93.376999	-30.841
451	1	7	0.088244997	32.493	-91.508003	-28.405001
452	1	7	0.088244997	33.771999	-92.765999	-28.657
453	1	7	0.077823997	33.879002	-89.591003	-28.726999
454	1	7	0.077823997	35.167999	-90.837997	-28.476999
455	1	8	0.092666	34.880001	-89.028999	-30.948999
456	1	8	0.092666	35.977001	-88.709	-29.554001
457	1	8	0.087434001	36.089001	-91.164001	-31.443001
458	1	8	0.087434001	37.098	-90.948997	-29.976999
459	1	8	0.087434001	38.075001	-88.832001	-30.938
460	1	8	0.087434001	38.424999	-90.316002	-31.857
461	1	8	0.092666	37.793999	-89.162003	-33.702
462	1	8	0.092666	36.115002	-89.507004	-33.199001
463	1	7	0.077823997	37.741001	-86.950996	-32.497002
464	1	7	0.077823997	36.089001	-87.297997	-31.938999
465	1	7	0.089827001	36.832001	-86.731003	-35.895
466	1	7	0.089827001	38.169998	-87.019997	-34.764
467	1	9	-0.470319	31.457001	-102.409	-27.48
468	1	10	0.325068	31.058001	-101.96	-26.624001
469	1	1	0.033860002	30.35	-102.887	-28.304001
470	1	1	-0.153405	29.563999	-101.713	-28.898001
471	1	1	0.094640002	30.405001	-100.901	-29.889999
472	1	9	-0.85137999	29.601	-99.802002	-30.440001
473	1	1	0.094640002	30.417	-98.894997	-31.261999
474	1	1	-0.153405	31.049	-97.786003	-30.408001
475	1	1	0.033860002	29.990999	-96.905998	-29.733999
476	1	9	-0.47153601	30.635	-95.848	-28.964001
477	1	10	0.325068	29.886	-95.321999	-28.457001
478	1	7	0.053931002	29.322001	-96.458	-30.503
479	1	7	0.053931002	29.372999	-97.527	-29.049
480	1	8	0.093966	31.68	-97.153	-31.069
481	1	8	0.093966	31.712	-98.228996	-29.635
482	1	7	0.071519002	29.774	-98.417999	-32.035999
483	1	7	0.071519002	31.215	-99.447998	-31.808001
484	1	10	0.37690601	28.872	-100.224	-31.062
485	1	7	0.071519002	31.292999	-100.498	-29.358
486	1	7	0.071519002	30.754	-101.567	-30.712
487	1	8	0.093966	28.671	-102.117	-29.424
488	1	8	0.093966	29.207001	-101.05	-28.08
489	1	7	0.053931002	29.665001	-103.509	-27.684999
490	1	7	0.053931002	30.743999	-103.526	-29.124001
491	1	1	0.135104	32.695999	-106.338	-27.589001
492	1	2	-0.70321703	31.806	-106.597	-28.645
493	1	3	0.40753099	31.111	-107.221	-28.306999
494	1	1	0.088382997	31.966999	-105.638	-26.427
495	1	4	-0.490275	31.32	-104.447	-26.875
496	1	5	0.783575	32.004002	-103.259	-27.148001
497	1	6	-0.61293501	33.254002	-103.174	-27
498	1	7	0.100162	32.678001	-105.395	-25.607
499	1	7	0.100162	31.194	-106.32	-26.011999
500	1	7	0.093411997	33.485001	-105.657	-27.973
501	1	1	0.043361001	33.372002	-107.641	-27.127001
502	1	4	-0.47997499	34.349998	-107.374	-26.136999
503	1	1	0.078474	35.641998	-107.252	-26.702999
504	1	1	-0.15845799	36.362999	-108.608	-26.667
505	1	1	-0.13848899	37.816002	-108.52	-27.181999
506	1	1	-0.13848899	38.868	-108.551	-26.059
507	1	1	-0.15845799	38.868	-107.273	-25.208
508	1	1	0.078449003	40.021	-107.27	-24.202999
509	1	4	-0.48213699	39.813999	-108.286	-23.243999
510	1	1	0.083327003	40.957001	-108.409	-22.424
511	1	1	0.15567601	40.659	-109.364	-21.263
512	1	1	0.091645002	39.646999	-108.733	-20.290001
513	1	2	-0.680857	39.230999	-109.669	-19.332001
514	1	3	0.38674501	39.859001	-109.598	-18.566
515	1	7	0.089553997	40.09	-107.834	-19.799999
516	1	7	0.089553997	38.748001	-108.396	-20.85
517	1	4	-0.49713501	41.883999	-109.65	-20.584999
518	1	5	0.77865702	42.120998	-110.829	-19.872999
519	1	6	-0.62157601	41.269001	-111.758	-19.841999
520	1	7	0.101134	40.233002	-110.299	-21.691999
521	1	7	0.088244997	41.275002	-107.423	-22.01
522	1	7	0.088244997	41.797001	-108.834	-23.018999
523	1	7	0.077823997	40.040001	-106.276	-23.701
524	1	7	0.077823997	40.98	-107.411	-24.753
525	1	8	0.092666	37.912998	-107.19	-24.649
526	1	8	0.092666	38.969002	-106.386	-25.870001
527	1	8	0.087434001	38.699001	-109.44	-25.412001
528	1	8	0.087434001	39.867001	-108.668	-26.532
529	1	8	0.087434001	37.966999	-107.622	-27.82
530	1	8	0.087434001	38.005001	-109.401	-27.834
531	1	8	0.092666	35.801998	-109.318	-27.313
532	1	8	0.092666	36.332001	-109.019	-25.632999
533	1	7	0.077823997	35.629002	-106.843	-27.740999
534	1	7	0.077823997	36.207001	-106.52	-26.091
535	1	7	0.089827001	32.605	-108.308	-26.677999
536	1	7	0.089827001	33.776001	-108.193	-28.007999
537	1	9	-0.636289	47.852001	-115.714	-19.052
538	1	10	0.36477301	48.313999	-114.811	-18.796
539	1	1	0.039414	47.362999	-116.34	-17.827
540	1	1	-0.165593	46.195	-115.544	-17.233999
541	1	1	0.096023999	44.964001	-115.563	-18.146999
542	1	9	-0.85129303	43.873001	-114.801	-17.525999
543	1	1	0.094640002	42.731998	-114.647	-18.441999
544	1	1	-0.153405	42.886002	-113.396	-19.318001
545	1	1	0.033860002	42.931999	-112.111	-18.482
546	1	9	-0.47153601	43.043999	-110.948	-19.357
547	1	10	0.325068	43.153999	-110.103	-18.75
548	1	7	0.053931002	42.012001	-112.027	-17.861
549	1	7	0.053931002	43.813999	-112.14	-17.806
550	1	8	0.093966	42.019001	-113.346	-20.011999
551	1	8	0.093966	43.806	-113.471	-19.934999
552	1	7	0.071519002	41.793999	-114.547	-17.85
553	1	7	0.071519002	42.605999	-115.544	-19.089001
554	1	10	0.37690601	43.541	-115.345	-16.694
555	1	7	0.073059	45.237	-115.114	-19.125
556	1	7	0.073059	44.644001	-116.617	-18.316
557	1	8	0.099482	45.926998	-115.99	-16.252001
558	1	8	0.099482	46.512001	-114.493	-17.056999
559	1	7	0.093877003	48.186001	-116.393	-17.079
560	1	7	0.093877003	47.033001	-117.38	-18.046
561	1	1	0.092170998	-8.9720001	5.8369999	-0.597
562	1	2	-0.680857	-9.5760002	4.5869999	-0.41600001
563	1	3	0.38674501	-10.272	4.7049999	0.28200001
564	1	1	0.16720299	-8.0240002	6.1609998	0.57200003
565	1	4	-0.51249701	-6.9790001	5.1880002	0.64099997
566	1	5	0.62912601	-7.085	3.977	1.334
567	1	6	-0.56432199	-8.132	3.6760001	1.969
568	1	7	0.094293997	-8.6000004	6.1690001	1.525
569	1	1	0.082557	-7.3829999	7.5440001	0.38800001
570	1	4	-0.48213699	-8.3690004	8.5629997	0.361
571	1	1	0.078449003	-8.5769997	9.1199999	1.648
572	1	1	-0.15845799	-7.6529999	10.321	1.89
573	1	1	-0.13848899	-7.8990002	11.447	0.87300003
574	1	1	-0.13848899	-6.8860002	12.599	1.005
575	1	1	-0.159318	-7.0190001	13.431	2.2969999