Title

11250 atoms
11625 bonds
19500 angles
30875 dihedrals
11250 impropers

12 atom types
17 bond types
10 angle types
32 dihedral types
3 improper types
-15.66297089 156.2926417 xlo xhi
-14.41775132 155.7963916 ylo yhi
-16.17364895 156.4555659 zlo zhi
0.0 0.0 0.0 xy xz yz

Masses

1	12.01078
2	15.99943
3	14.00672
4	1.007947
5	12.01078
6	1.007947
7	1.007947
8	15.99943
9	1.007947
10	12.01078
11	15.99943
12	1.007947


Pair Coeffs

1	0.086879315	3.4806469
2	0.2102061	3.0398122
3	0.16769152	3.206876
4	0.015611343	2.5725815
5	0.10884061	3.3795318
6	0.014090815	1.1034277
7	0.015779483	2.6445434
8	0.16846514	3.0251065
9	0.016409246	2.5832257
10	0.21	3.3996695
11	0.20947353	2.99716
12	1.2326e-05	0.53453923

Bond Coeffs

1 harmonic	582.698766451	1.225198386222
2 harmonic	492.76746816345	1.381897776683
3 harmonic	279.1350963404	1.454628925034
4 harmonic	390.03554688505	1.390160554689
5 harmonic	505.144496193	1.019481865027
6 harmonic	360.7852444772	1.387193227181
7 harmonic	397.2545789619	1.085358495916
8 harmonic	289.73813263395	1.498646816465
9 harmonic	370.04670688625	1.093899492634
10 harmonic	301.15400723785	1.345741232799
11 harmonic	366.7408841747	1.425895053732
12 harmonic	264.62148576755	1.52190126495
13 harmonic	300.03137914615	1.451203938761
14 harmonic	382.5450169811	1.379244394267
15 harmonic	602.81384337	1.196112346392
16 harmonic	329.96998057905	1.427343958716
17 harmonic	543.5267831885	0.9716763312559


Angle Coeffs

1 harmonic	55.42182150775	117.3465570514
2 harmonic	63.44422595415	115.5071327674
3 harmonic	57.8982893754	126.8062420451
4 harmonic	34.066775159195	129.1835929926
5 harmonic	53.20531626545	116.5475862634
6 harmonic	65.09061609600001	110.3538806181
7 harmonic	201.41175231035	127.4691416191
8 harmonic	48.776492647595	115.6030999533
9 harmonic	55.07882548015	112.8714009681
10 harmonic	33.56981613361	180


Dihedral Coeffs

1 fourier 1	1.193093382682	2	180
2 fourier 1	1.809047390003	2	180
3 fourier 1	-0.04816277792592	1	0
4 fourier 1	3.101948770557	2	180
5 fourier 1	-0.4252153282372	1	0
6 fourier 1	2.348375642009	2	180
7 fourier 1	1.256156174911	1	0
8 fourier 1	0.9974165607242	2	180
9 fourier 1	3.661930099076	2	180
10 fourier 1	0.02664938770063	3	0
11 fourier 1	2.779853741805	2	180
12 fourier 1	0.1918272375143	3	0
13 fourier 1	0.9202179876409	1	180
14 fourier 1	0.0473758381877	3	0
15 fourier 1	0.4860993122944	2	180
16 fourier 1	0.8916986138746	1	0
17 fourier 1	1.163809172478	2	180
18 fourier 1	0.1679186987369	1	180
19 fourier 1	0.1155372516788	3	0
20 fourier 1	0.1115525666802	3	0
21 fourier 1	0.3432490222662	1	0
22 fourier 1	0.09223874044423	3	0
23 fourier 1	0.3159935921949	2	180
24 fourier 1	0.3247796806857	1	180
25 fourier 1	0.1040663847541	3	0
26 fourier 1	0.457973137376	1	0
27 fourier 1	0.1911926717192	3	0
28 fourier 1	1.550515418264	2	180
29 fourier 1	0	1	0
30 fourier 1	0.3445382149273	3	0
31 fourier 1	0.1364556373303	1	0
32 fourier 1	0.3026390167484	3	0


Improper Coeffs

1 0.3333333333333333	-1	2
2 0.3666666666666667	-1	2
3 3.5	-1	2


Atoms

1	3	1	0.57130432	2.5693908	2.0360748	1.9247449
2	3	2	-0.61026716	2.9527481	2.8863602	1.0781146
3	3	3	-0.50774205	2.4530497	0.64927088	1.5857865
4	3	1	0.2057658	2.5379039	0.13388754	0.24628147
5	3	1	-0.37942067	3.0227849	-1.1017878	0.040526837
6	3	4	0.21677023	3.3708332	-1.7002202	0.87349081
7	3	1	-0.14207661	3.1062681	-1.659225	-1.325766
8	3	4	0.21499545	3.5037643	-2.6573652	-1.4618432
9	3	1	-0.24521096	2.6909791	-0.93599708	-2.3792765
10	3	5	-0.050663231	2.7332189	-1.5089493	-3.7703939
11	3	1	-0.245211	1.4498171	-2.2329281	-4.0729358
12	3	1	-0.14207659	1.3133135	-3.5387146	-3.7869632
13	3	4	0.21499543	2.134926	-4.0986933	-3.356508
14	3	1	-0.36721629	0.034031172	-4.2302236	-4.0484839
15	3	4	0.21677025	-0.048755939	-5.2855734	-3.819309
16	3	1	0.2294634	-1.0182027	-3.5567456	-4.541913
17	3	3	-0.47017637	-2.2507157	-4.2531312	-4.7972008
18	3	1	0.82032585	-3.5484143	-3.6540947	-4.7001728
19	3	2	-0.55188489	-3.707365	-2.5145558	-4.1897985
20	3	6	0.32536	-2.2147314	-5.2787689	-4.9927088
21	3	1	-0.36721629	-0.86282113	-2.1146472	-4.8675427
22	3	4	0.21677022	-1.6757642	-1.5610908	-5.3188209
23	3	1	-0.14207661	0.29896141	-1.4906677	-4.639061
24	3	4	0.21499543	0.39886746	-0.44049262	-4.884581
25	3	7	0.12603533	2.8837079	-0.69076635	-4.5065533
26	3	7	0.12603533	3.6033199	-2.1940998	-3.8827415
27	3	1	-0.14207658	2.1132328	0.41073241	-2.1531752
28	3	4	0.21499543	1.7345569	0.98512601	-2.9893155
29	3	1	-0.37942076	2.0378392	0.9154305	-0.91564233
30	3	4	0.21677025	1.5781935	1.8833426	-0.77133725
31	3	6	0.32138008	2.3754842	-0.026945046	2.3795003
32	4	8	-0.4870151	-4.3798752	-4.1852718	-5.0224113
33	4	5	0.12496845	-3.9799747	-5.5224651	-5.1462732
34	4	5	-0.13032158	-3.1837493	-5.7172516	-6.4414884
35	4	5	-0.13750002	-2.5591415	-7.1180217	-6.5602881
36	4	5	0.04256467	-3.5897499	-8.2274361	-6.7998712
37	4	8	-0.13521232	-4.2303099	-8.5639839	-5.6009948
38	4	9	0.10710454	-3.0608363	-9.1249033	-7.1925519
39	4	9	0.10710454	-4.3363216	-7.9041055	-7.5601362
40	4	7	0.11108358	-1.8629466	-7.1047093	-7.4272583
41	4	7	0.11108358	-1.9535551	-7.3490994	-5.6572836
42	4	7	0.10969664	-2.3580318	-4.9719	-6.4635482
43	4	7	0.10969664	-3.83785	-5.5154163	-7.3171571
44	4	9	0.10659569	-3.3718116	-5.8261684	-4.2640744
45	4	9	0.10659569	-4.8934702	-6.1522033	-5.1716851
46	1	1	0.57130438	2.3631022	2.3559729	2.9372878
47	1	2	-0.61026722	1.7193583	1.5925272	3.7034714
48	1	3	-0.50774199	2.871065	3.6168918	3.394848
49	1	1	0.20576582	2.5508482	4.2131895	4.6646158
50	1	1	-0.37942073	1.3257783	4.0991386	5.2116452
51	1	4	0.21677023	0.53621647	3.5601608	4.7068838
52	1	1	-0.14207661	1.0196009	4.7538139	6.5005166
53	1	4	0.21499545	0.025892305	4.6498856	6.9183505
54	1	1	-0.24521096	1.9591033	5.4741228	7.1367841
55	1	5	-0.050663231	1.645123	6.1795745	8.4273484
56	1	1	-0.25967541	1.0990702	7.55401	8.1504379
57	1	1	-0.18711516	1.9235805	8.6066173	8.011547
58	1	4	0.201103	2.9945491	8.4878136	8.1232387
59	1	1	-0.2592428	1.3814682	9.944066	7.6973076
60	1	4	0.20880509	2.0730869	10.771797	7.6018366
61	1	1	0.44127092	0.052907897	10.119914	7.5327632
62	1	3	-0.34708354	-0.52528173	11.398724	7.2249987
63	1	10	0.61503995	0.14397672	12.473019	7.0815818
64	1	2	-0.30445692	0.79400755	13.517516	6.9423279
65	1	1	-0.25924283	-0.84988143	8.9556645	7.670471
66	1	4	0.2088051	-1.9162855	9.0828326	7.5333195
67	1	1	-0.18711521	-0.35822269	7.7442664	7.9592603
68	1	4	0.20110303	-1.0319725	6.9019303	8.0512118
69	1	7	0.12603533	0.90724317	5.5931976	9.0189981
70	1	7	0.12603533	2.5619227	6.2482265	9.0539792
71	1	1	-0.14207658	3.2962759	5.6317929	6.5170336
72	1	4	0.21499543	4.0544267	6.2306332	7.0054297
73	1	1	-0.37942076	3.5736643	5.0390102	5.3496591
74	1	4	0.21677025	4.553198	5.1612446	4.9063505
75	1	6	0.32138002	3.598742	4.0783232	2.8047825
76	2	8	-0.13521232	-4.8904654	-9.2696254	-5.8302781
77	2	5	0.042679554	-4.1642829	-10.450894	-6.0317324
78	2	5	-0.13175115	-3.4983947	-10.431603	-7.4126625
79	2	5	-0.15880607	-2.5400178	-11.612888	-7.6362026
80	2	5	0.096482413	-3.2554345	-12.960612	-7.7866506
81	2	11	-0.66796201	-3.6401686	-13.449867	-6.5321809
82	2	12	0.4032425	-4.1090645	-14.308405	-6.7030151
83	2	9	0.10082918	-2.5535411	-13.684331	-8.2582455
84	2	9	0.10082918	-4.1435318	-12.854914	-8.4492464
85	2	7	0.11354967	-1.9762077	-11.419112	-8.5754351
86	2	7	0.11354967	-1.7945836	-11.666988	-6.8130239
87	2	7	0.11127454	-2.9111017	-9.4919204	-7.5090672
88	2	7	0.11127454	-4.2792199	-10.418617	-8.2042788
89	2	9	0.10710454	-3.3996257	-10.574408	-5.2306227
90	2	9	0.10710454	-4.8722831	-11.302714	-5.9703255
91	3	1	0.57130432	-3.4476268	-1.171869	33.744494
92	3	2	-0.61026716	-4.0053688	-0.10713937	34.12133
93	3	3	-0.50774205	-2.1133066	-1.4968114	34.151501
94	3	1	0.2057658	-1.2247339	-0.58238656	34.81585
95	3	1	-0.37942067	-0.30812829	-1.0553972	35.676334
96	3	4	0.21677023	-0.25126331	-2.1158543	35.889137
97	3	1	-0.14207661	0.62608207	-0.13681344	36.360379
98	3	4	0.21499545	1.3531125	-0.54611883	37.050813
99	3	1	-0.24521096	0.57235699	1.1846795	36.12336
100	3	5	-0.050663231	1.5452837	2.1247074	36.782926
101	3	1	-0.245211	2.7803254	2.2714473	35.936795
102	3	1	-0.14207659	3.8260096	1.4430449	36.097376
103	3	4	0.21499543	3.8072303	0.67069942	36.85701
104	3	1	-0.36721629	5.0171354	1.5683428	35.232124
105	3	4	0.21677025	5.8518907	0.89585684	35.387315
106	3	1	0.2294634	5.0566506	2.4869428	34.252913
107	3	3	-0.47017637	6.230747	2.5966445	33.429095
108	3	1	0.82032585	6.2154092	3.008227	32.057
109	3	2	-0.55188489	5.1366434	3.1164082	31.41758
110	3	6	0.32536	7.1482177	2.2876155	33.821778
111	3	1	-0.36721629	3.903532	3.4095777	34.082948
112	3	4	0.21677022	3.9318304	4.1956271	33.339793
113	3	1	-0.14207661	2.8284794	3.3017899	34.872844
114	3	4	0.21499543	1.9971539	3.9832251	34.739905
115	3	7	0.12603533	1.0678253	3.1178415	36.92335
116	3	7	0.12603533	1.8107032	1.759129	37.800292
117	3	1	-0.14207658	-0.40745338	1.7069303	35.140599
118	3	4	0.21499543	-0.4306532	2.764248	34.90823
119	3	1	-0.37942076	-1.25354	0.87478151	34.521278
120	3	4	0.21677025	-1.9331916	1.2734967	33.780973
121	3	6	0.32138008	-1.805386	-2.4869156	34.016799
122	4	8	-0.4870151	7.1138854	3.1845603	31.568164
123	4	5	0.12496845	8.1199004	2.6077786	32.354678
124	4	5	-0.13032158	8.4367797	3.5111104	33.55179
125	4	5	-0.13750002	9.4037639	2.8625439	34.55713
126	4	5	0.04256467	10.837267	2.7338236	34.029062
127	4	8	-0.13521232	10.938683	1.6428938	33.157011
128	4	9	0.10710454	11.520856	2.5721935	34.892762
129	4	9	0.10710454	11.145086	3.6715125	33.513406
130	4	7	0.11108358	9.4295799	3.505864	35.463758
131	4	7	0.11108358	9.0230849	1.8669754	34.872528
132	4	7	0.10969664	7.4870011	3.7344143	34.086487
133	4	7	0.10969664	8.8515229	4.477594	33.192237
134	4	9	0.10659569	7.8067249	1.5963859	32.70019
135	4	9	0.10659569	9.0254294	2.4940202	31.723198
136	1	1	0.57130438	-4.0035936	-1.8711753	33.134572
137	1	2	-0.61026722	-3.3843653	-2.781694	32.524814
138	1	3	-0.50774199	-5.4334756	-1.773906	33.077298
139	1	1	0.20576582	-6.2695916	-2.5504172	32.200737
140	1	1	-0.37942073	-5.8807388	-2.8720393	30.952379
141	1	4	0.21677023	-4.9257719	-2.5474392	30.563326
142	1	1	-0.14207661	-6.7784757	-3.6406308	30.065322
143	1	4	0.21499545	-6.4440057	-3.884236	29.064508
144	1	1	-0.24521096	-7.9940985	-4.0214831	30.493759
145	1	5	-0.050663231	-8.9319076	-4.7668008	29.584464
146	1	1	-0.25967541	-9.7635682	-3.7990594	28.787129
147	1	1	-0.18711516	-10.927838	-3.3320423	29.270307
148	1	4	0.201103	-11.300447	-3.6654451	30.231331
149	1	1	-0.2592428	-11.716392	-2.3495231	28.499437
150	1	4	0.20880509	-12.654386	-2.0015745	28.91379
151	1	1	0.44127092	-11.26853	-1.9001611	27.307563
152	1	3	-0.34708354	-11.995732	-0.94422747	26.519055
153	1	10	0.61503995	-13.114004	-0.43697795	26.857804
154	1	2	-0.30445692	-14.201058	0.056152877	27.186499
155	1	1	-0.25924283	-9.9786422	-2.4044041	26.786605
156	1	4	0.2088051	-9.6055675	-2.045742	25.835618
157	1	1	-0.18711521	-9.2661898	-3.2980602	27.484031
158	1	4	0.20110303	-8.3218526	-3.6527075	27.091124
159	1	7	0.12603533	-8.3594028	-5.427685	28.896115
160	1	7	0.12603533	-9.5881956	-5.436076	30.183845
161	1	1	-0.14207658	-8.4380729	-3.6353825	31.854198
162	1	4	0.21499543	-9.4246136	-3.912793	32.203074
163	1	1	-0.37942076	-7.6251418	-2.939173	32.65765
164	1	4	0.21677025	-7.9599323	-2.6625361	33.648779
165	1	6	0.32138002	-5.8976363	-1.170321	33.792036
166	2	8	-0.13521232	11.880481	1.6287763	32.842174
167	2	5	0.042679554	12.652677	1.1362695	33.902585
168	2	5	-0.13175115	12.873851	2.2350872	34.948735
169	2	5	-0.15880607	13.56062	1.7224964	36.225249
170	2	5	0.096482413	15.034445	1.3528357	36.020298
171	2	11	-0.66796201	15.140566	0.099722249	35.404238
172	2	12	0.4032425	16.11219	-0.068222235	35.286433
173	2	9	0.10082918	15.531496	1.3108096	37.015285
174	2	9	0.10082918	15.546081	2.1290141	35.408172
175	2	7	0.11354967	13.514828	2.5344249	36.98437
176	2	7	0.11354967	13.004373	0.85442561	36.641499
177	2	7	0.11127454	11.884306	2.6531637	35.23722
178	2	7	0.11127454	13.467288	3.0626934	34.502177
179	2	9	0.10710454	12.154997	0.25213774	34.363409
180	2	9	0.10710454	13.629949	0.80964661	33.491623
181	3	1	0.57130432	-1.4254387	0.38003677	68.808529
182	3	2	-0.61026716	-2.2224708	1.3481697	68.68941
183	3	3	-0.50774205	-0.10192449	0.43495158	68.2636
184	3	1	0.2057658	0.3625683	1.4595432	67.368306
185	3	1	-0.37942067	1.6580528	1.81435	67.381346
186	3	4	0.21677023	2.3467979	1.3507591	68.076905
187	3	1	-0.14207661	2.1623869	2.8545349	66.46041
188	3	4	0.21499545	3.2112335	3.122007	66.494813
189	3	1	-0.24521096	1.3290316	3.4538184	65.593354
190	3	5	-0.050663231	1.839668	4.4848715	64.623072
191	3	1	-0.245211	2.2923774	3.8215935	63.3511
192	3	1	-0.14207659	3.5592501	3.3963351	63.210812
193	3	4	0.21499543	4.2833073	3.5469448	64.002628
194	3	1	-0.36721629	3.9826486	2.7075413	61.974108
195	3	4	0.21677025	5.0117093	2.3830571	61.879863
196	3	1	0.2294634	3.1006641	2.4666972	60.990066
197	3	3	-0.47017637	3.5380191	1.8028377	59.791223
198	3	1	0.82032585	2.7074799	0.9486158	58.995741
199	3	2	-0.55188489	1.5813547	0.56348137	59.405387
200	3	6	0.32536	4.5424448	1.8801234	59.514443
201	3	1	-0.36721629	1.702005	2.9467755	61.142064
202	3	4	0.21677022	0.98500961	2.8169728	60.34205
203	3	1	-0.14207661	1.3210485	3.5787851	62.258634
204	3	4	0.21499543	0.29962627	3.9262313	62.354063
205	3	7	0.12603533	1.0344807	5.2161912	64.397581
206	3	7	0.12603533	2.6725702	5.0674544	65.076945
207	3	1	-0.14207658	-0.092190607	3.0339766	65.543824
208	3	4	0.21499543	-0.76332814	3.4780454	64.819371
209	3	1	-0.37942076	-0.54875164	2.0919433	66.3781
210	3	4	0.21677025	-1.5794377	1.7754194	66.297782
211	3	6	0.32138008	0.58037045	-0.28005892	68.604921
212	4	8	-0.4870151	3.0563332	0.60906532	58.079051
213	4	5	0.12496845	4.438691	0.83760876	58.064804
214	4	5	-0.13032158	4.7261316	2.3161484	57.780556
215	4	5	-0.13750002	6.2138576	2.6796966	57.925155
216	4	5	0.04256467	7.0954229	2.0959189	56.81502
217	4	8	-0.13521232	7.3546364	0.74189783	57.060624
218	4	9	0.10710454	8.0596167	2.652175	56.797572
219	4	9	0.10710454	6.6036861	2.2223512	55.823998
220	4	7	0.11108358	6.2964174	3.7877121	57.880574
221	4	7	0.11108358	6.5943523	2.3625532	58.92024
222	4	7	0.10969664	4.1514422	2.9332083	58.506375
223	4	7	0.10969664	4.3662428	2.5785982	56.762233
224	4	9	0.10659569	4.8900178	0.53124405	59.035792
225	4	9	0.10659569	4.8812471	0.21071841	57.26303
226	1	1	0.57130438	-1.735282	-0.49240779	69.367967
227	1	2	-0.61026722	-1.076445	-1.5591248	69.256875
228	1	3	-0.50774199	-2.8556839	-0.39680233	70.258396
229	1	1	0.20576582	-3.4473374	-1.5125431	70.947953
230	1	1	-0.37942073	-3.5454747	-2.7273963	70.375636
231	1	4	0.21677023	-3.1887766	-2.9020548	69.370176
232	1	1	-0.14207661	-4.1908942	-3.8432341	71.098045
233	1	4	0.21499545	-4.260405	-4.8100452	70.615046
234	1	1	-0.24521096	-4.6912682	-3.6552168	72.331179
235	1	5	-0.050663231	-5.3879015	-4.7726926	73.057645
236	1	1	-0.25967541	-6.8517176	-4.7875307	72.709869
237	1	1	-0.18711516	-7.7329669	-4.0542398	73.411847
238	1	4	0.201103	-7.4077045	-3.4603557	74.257465
239	1	1	-0.2592428	-9.1613494	-4.041592	73.036395
240	1	4	0.20880509	-9.8455058	-3.4475474	73.629379
241	1	1	0.44127092	-9.5938752	-4.7559602	71.975419
242	1	3	-0.34708354	-10.971342	-4.776858	71.567344
243	1	10	0.61503995	-11.903625	-4.138108	72.155079
244	1	2	-0.30445692	-12.810167	-3.5176434	72.726139
245	1	1	-0.25924283	-8.6180904	-5.5490333	71.195452
246	1	4	0.2088051	-8.9517731	-6.1198714	70.338131
247	1	1	-0.18711521	-7.3240293	-5.5632418	71.538697
248	1	4	0.20110303	-6.6222952	-6.1444507	70.954155
249	1	7	0.12603533	-4.9281022	-5.7511734	72.79399
250	1	7	0.12603533	-5.2538868	-4.65194	74.155534
251	1	1	-0.14207658	-4.6176618	-2.3089287	72.946867
252	1	4	0.21499543	-5.0397519	-2.1365591	73.928734
253	1	1	-0.37942076	-4.0332451	-1.298213	72.292643
254	1	4	0.21677025	-3.9854748	-0.31949687	72.751753
255	1	6	0.32138002	-3.1948163	0.5624078	70.494012
256	2	8	-0.13521232	7.9111911	0.42600419	56.301174
257	2	5	0.042679554	9.1994578	0.93793686	56.505172
258	2	5	-0.13175115	9.2484576	2.417347	56.105557
259	2	5	-0.15880607	10.580022	3.0955736	56.467268
260	2	5	0.096482413	11.759148	2.6251347	55.607521
261	2	11	-0.66796201	12.219228	1.3795762	56.052488
262	2	12	0.4032425	12.96466	1.1283815	55.446379
263	2	9	0.10082918	12.582515	3.3687055	55.696932
264	2	9	0.10082918	11.45807	2.5662242	54.537566
265	2	7	0.11354967	10.457292	4.1898306	56.30875
266	2	7	0.11354967	10.810173	2.9453993	57.544626
267	2	7	0.11127454	8.4345922	2.9552223	56.639902
268	2	7	0.11127454	9.0532353	2.5169761	55.015385
269	2	9	0.10710454	9.500408	0.81051537	57.570501
270	2	9	0.10710454	9.9026668	0.35699887	55.873792
271	3	1	0.57130432	0.56635557	1.9008038	94.71411
272	3	2	-0.61026716	1.8023877	1.7630578	94.514156
273	3	3	-0.50774205	0.057446293	2.2648443	96.002574
274	3	1	0.2057658	0.84412352	2.2895799	97.205745
275	3	1	-0.37942067	0.54030702	3.1641312	98.178984
276	3	4	0.21677023	-0.27647608	3.8640405	98.052176
277	3	1	-0.14207661	1.3249841	3.198777	99.431
278	3	4	0.21499545	1.0587615	3.9160992	100.19741
279	3	1	-0.24521096	2.3499132	2.3490013	99.612134
280	3	5	-0.050663231	3.1298203	2.3476764	100.89938
281	3	1	-0.245211	2.4964449	1.4086291	101.88924
282	3	1	-0.14207659	1.54468	1.8399107	102.73401
283	3	4	0.21499543	1.2350972	2.8782138	102.73366
284	3	1	-0.36721629	0.89846963	0.89977399	103.673
285	3	4	0.21677025	0.14117681	1.2728775	104.35155
286	3	1	0.2294634	1.2279486	-0.402409	103.67099
287	3	3	-0.47017637	0.59216671	-1.2972167	104.60067
288	3	1	0.82032585	0.33855687	-2.6826417	104.33883
289	3	2	-0.55188489	0.48304683	-3.1687117	103.18681
290	3	6	0.32536	0.21991003	-0.90734098	105.49559
291	3	1	-0.36721629	2.2883152	-0.87635596	102.74318
292	3	4	0.21677022	2.613744	-1.9082378	102.75958
293	3	1	-0.14207661	2.8799675	-0.022709736	101.89907
294	3	4	0.21499543	3.6535404	-0.38139482	101.23119
295	3	7	0.12603533	4.1763819	2.0322808	100.7013
296	3	7	0.12603533	3.1880387	3.3766287	101.32009
297	3	1	-0.14207658	2.6609267	1.3516263	98.559943
298	3	4	0.21499543	3.4559761	0.63265775	98.713026
299	3	1	-0.37942076	1.9501746	1.3205256	97.426031
300	3	4	0.21677025	2.1707659	0.56014245	96.68975
301	3	6	0.32138008	-0.9313437	2.6024119	96.04268
302	4	8	-0.4870151	-0.0077598449	-3.290699	105.10541
303	4	5	0.12496845	-0.45935738	-2.4387398	106.12206
304	4	5	-0.13032158	0.73056633	-1.8855413	106.91424
305	4	5	-0.13750002	0.32713343	-0.80502233	107.93214
306	4	5	0.04256467	-0.4596435	-1.3557286	109.12716
307	4	8	-0.13521232	-1.7942317	-1.5821171	108.76868
308	4	9	0.10710454	-0.42742435	-0.60608934	109.94959
309	4	9	0.10710454	0.0068873738	-2.2968342	109.49673
310	4	7	0.11108358	1.260521	-0.34229465	108.32095
311	4	7	0.11108358	-0.25377806	-0.0002041648	107.43178
312	4	7	0.10969664	1.4495527	-1.4291424	106.19828
313	4	7	0.10969664	1.256932	-2.7179037	107.4295
314	4	9	0.10659569	-1.0612983	-1.6075872	105.68936
315	4	9	0.10659569	-1.11502	-3.0277642	106.79648
316	1	1	0.57130438	-0.11857371	1.780318	93.885565
317	1	2	-0.61026722	-1.3465605	1.6342439	94.120094
318	1	3	-0.50774199	0.38252596	1.8408842	92.54298
319	1	1	0.20576582	-0.39789155	1.5592308	91.367378
320	1	1	-0.37942073	-1.3399568	0.59723235	91.356553
321	1	4	0.21677023	-1.5349948	-0.0039901361	92.233582
322	1	1	-0.14207661	-2.0991793	0.30942378	90.121935
323	1	4	0.21499545	-2.8495098	-0.47134138	90.137837
324	1	1	-0.24521096	-1.8531235	1.0011468	88.996181
325	1	5	-0.050663231	-2.590098	0.6871015	87.723371
326	1	1	-0.25967541	-1.8682681	-0.38608856	86.954508
327	1	1	-0.18711516	-0.9001138	-0.070551169	86.076895
328	1	4	0.201103	-0.64132587	0.96438546	85.888486
329	1	1	-0.2592428	-0.16757115	-1.13294	85.358486
330	1	4	0.20880509	0.59964775	-0.84313301	84.651396
331	1	1	0.44127092	-0.453888	-2.4325813	85.586576
332	1	3	-0.34708354	0.2294223	-3.5038721	84.915904
333	1	10	0.61503995	1.1534793	-3.3379018	84.054999
334	1	2	-0.30445692	2.0515118	-3.1771009	83.217989
335	1	1	-0.25924283	-1.5090899	-2.7762611	86.5653
336	1	4	0.2088051	-1.7423283	-3.8150313	86.762167
337	1	1	-0.18711521	-2.1755335	-1.8126443	87.213304
338	1	4	0.20110303	-2.9409097	-2.081341	87.93019
339	1	7	0.12603533	-3.6280133	0.35535217	87.949265
340	1	7	0.12603533	-2.6853912	1.6067088	87.104386
341	1	1	-0.14207658	-0.79021742	2.034206	88.996718
342	1	4	0.21499543	-0.56334419	2.5809853	88.090355
343	1	1	-0.37942076	-0.10244269	2.2948814	90.114802
344	1	4	0.21677025	0.67153099	3.0510469	90.103467
345	1	6	0.32138002	1.350152	2.2116771	92.413278
346	2	8	-0.13521232	-2.2376643	-1.950933	109.57716
347	2	5	0.042679554	-2.4248651	-0.87825898	110.459
348	2	5	-0.13175115	-1.1071475	-0.54111352	111.16661
349	2	5	-0.15880607	-1.189429	0.73742153	112.01659
350	2	5	0.096482413	-2.0491591	0.57987537	113.27629
351	2	11	-0.66796201	-3.408909	0.65383693	112.94965
352	2	12	0.4032425	-3.9042691	0.52758901	113.80101
353	2	9	0.10082918	-1.8003662	1.404507	113.98121
354	2	9	0.10082918	-1.8245078	-0.38742926	113.77906
355	2	7	0.11354967	-0.15684557	0.99766031	112.33851
356	2	7	0.11354967	-1.5639486	1.5858601	111.40331
357	2	7	0.11127454	-0.32034905	-0.38880859	110.39527
358	2	7	0.11127454	-0.79162193	-1.3998824	111.79864
359	2	9	0.10710454	-2.8114607	0.010098813	109.90846
360	2	9	0.10710454	-3.1848411	-1.1799853	111.20869
361	3	1	0.57130432	0.35189868	-2.0504509	133.79151
362	3	2	-0.61026716	1.5909905	-2.2677744	133.85596
363	3	3	-0.50774205	-0.37220177	-2.230871	132.5689
364	3	1	0.2057658	0.24389965	-2.4493839	131.28837
365	3	1	-0.37942067	-0.39406175	-3.1837372	130.36205
366	3	4	0.21677023	-1.3559259	-3.6300129	130.58283
367	3	1	-0.14207661	0.21217784	-3.4101872	129.03327
368	3	4	0.21499545	-0.32395722	-4.0084223	128.30699
369	3	1	-0.24521096	1.4088465	-2.8770804	128.73462
370	3	5	-0.050663231	2.0168729	-3.0669341	127.37098
371	3	1	-0.245211	1.5705869	-1.9679069	126.4459
372	3	1	-0.14207659	0.4521586	-2.0983657	125.7127
373	3	4	0.21499543	-0.1339466	-3.0085737	125.75648
374	3	1	-0.36721629	-0.00067510409	-0.99576572	124.83957
375	3	4	0.21677025	-0.89964137	-1.1281801	124.25011
376	3	1	0.2294634	0.67855949	0.16214227	124.79341
377	3	3	-0.47017637	0.2239681	1.2181214	123.92885
378	3	1	0.82032585	0.39772433	2.6134598	124.20293
379	3	2	-0.55188489	0.79383395	3.0156927	125.32792
380	3	6	0.32536	-0.33526254	0.96652066	123.08303
381	3	1	-0.36721629	1.9213577	0.30148125	125.59707
382	3	4	0.21677022	2.5190819	1.2014316	125.53568
383	3	1	-0.14207661	2.3362992	-0.70087221	126.38091
384	3	4	0.21499543	3.2456286	-0.58662542	126.95814
385	3	7	0.12603533	3.1247374	-3.0607413	127.45221
386	3	7	0.12603533	1.7396735	-4.0621732	126.95651
387	3	1	-0.14207658	2.09644	-2.0284788	129.73746
388	3	4	0.21499543	3.0401194	-1.5572872	129.49271
389	3	1	-0.37942076	1.5472201	-1.8236295	130.94091
390	3	4	0.21677025	2.0486824	-1.1706804	131.64173
391	3	6	0.32138008	-1.4144068	-2.2777805	132.63872
392	4	8	-0.4870151	0.15630739	3.3098935	123.47217
393	4	5	0.12496845	-0.62092986	2.6394259	122.51837
394	4	5	-0.13032158	0.27549769	1.7923821	121.60819
395	4	5	-0.13750002	-0.51992314	0.8890783	120.6502
396	4	5	0.04256467	-1.2430716	1.662459	119.54146
397	4	8	-0.13521232	-2.4150238	2.2452404	120.03924
398	4	9	0.10710454	-1.509448	0.95097402	118.72769
399	4	9	0.10710454	-0.57358194	2.4431957	119.11467
400	4	7	0.11108358	0.19983747	0.19216562	120.16775
401	4	7	0.11108358	-1.2465146	0.26840749	121.21798
402	4	7	0.10969664	0.90958911	1.1384494	122.24705
403	4	7	0.10969664	0.95617959	2.4550459	121.03119
404	4	9	0.10659569	-1.3821338	2.000761	123.02141
405	4	9	0.10659569	-1.153059	3.4021114	121.9127
406	1	1	0.57130438	-0.18002553	-1.7606542	134.68773
407	1	2	-0.61026722	-1.3356264	-1.2724088	134.58528
408	1	3	-0.50774199	0.42345557	-1.9867757	135.96913
409	1	1	0.20576582	-0.11764954	-1.5228123	137.21908
410	1	1	-0.37942073	-0.74594725	-0.3363339	137.32182
411	1	4	0.21677023	-0.85664987	0.31356662	136.46504
412	1	1	-0.14207661	-1.2588496	0.12638649	138.62809
413	1	4	0.21499545	-1.7577954	1.0858716	138.6854
414	1	1	-0.24521096	-1.0984451	-0.62982449	139.72753
415	1	5	-0.050663231	-1.578724	-0.1489306	141.06913
416	1	1	-0.25967541	-0.50796931	0.66355345	141.74535
417	1	1	-0.18711516	0.4204412	0.071847519	142.51673
418	1	4	0.201103	0.39750851	-0.99786623	142.68629
419	1	1	-0.2592428	1.4930435	0.8720202	143.14175
420	1	4	0.20880509	2.2188657	0.36471275	143.76498
421	1	1	0.44127092	1.5596308	2.2043532	142.93312
422	1	3	-0.34708354	2.5826916	3.0278225	143.51589
423	1	10	0.61503995	3.5091413	2.592362	144.27395
424	1	2	-0.30445692	4.409675	2.1696336	145.011
425	1	1	-0.25924283	0.54532816	2.8495037	142.07031
426	1	4	0.2088051	0.59281502	3.9159342	141.88956
427	1	1	-0.18711521	-0.42908394	2.1242098	141.50721
428	1	4	0.20110303	-1.1600981	2.6109418	140.87426
429	1	7	0.12603533	-2.500063	0.46425986	140.953
430	1	7	0.12603533	-1.8615477	-1.0179598	141.70371
431	1	1	-0.14207658	-0.37366002	-1.9184981	139.62271
432	1	4	0.21499543	-0.21422698	-2.525643	140.50469
433	1	1	-0.37942076	0.091025321	-2.3376341	138.43971
434	1	4	0.21677025	0.61893411	-3.2800166	138.37507
435	1	6	0.32138002	1.2565988	-2.6158013	135.99757
436	2	8	-0.13521232	-2.8205398	2.7400267	119.2796
437	2	5	0.042679554	-3.3930287	1.7809981	118.43353
438	2	5	-0.13175115	-2.305201	1.103881	117.59157
439	2	5	-0.15880607	-2.8318555	-0.082743111	116.76789
440	2	5	0.096482413	-3.7415677	0.3349603	115.60653
441	2	11	-0.66796201	-5.0250117	0.63711777	116.07829
442	2	12	0.4032425	-5.5525462	0.91445659	115.28398
443	2	9	0.10082918	-3.8098495	-0.51147767	114.88701
444	2	9	0.10082918	-3.3096434	1.2112091	115.07309
445	2	7	0.11354967	-1.9536553	-0.61439002	116.33928
446	2	7	0.11354967	-3.3617692	-0.80531085	117.42615
447	2	7	0.11127454	-1.5153807	0.72175815	118.27522
448	2	7	0.11127454	-1.8306707	1.8532408	116.9209
449	2	9	0.10710454	-3.9522939	1.0247911	119.03111
450	2	9	0.10710454	-4.1131182	2.2986105	117.76706
451	3	1	0.57130432	2.5480645	35.470911	-0.124656
452	3	2	-0.61026716	2.7153794	35.758938	1.0901598
453	3	3	-0.50774205	1.2368623	35.292697	-0.67296386
454	3	1	0.2057658	0.036453665	35.202996	0.11320845
455	3	1	-0.37942067	-1.125932	35.640077	-0.39880527
456	3	4	0.21677023	-1.1587362	36.079793	-1.3880788
457	3	1	-0.14207661	-2.3758384	35.545063	0.38424541
458	3	4	0.21499545	-3.2978364	35.90764	-0.053089691
459	3	1	-0.24521096	-2.3637532	35.013138	1.6180675
460	3	5	-0.050663231	-3.6371219	34.873892	2.408263
461	3	1	-0.245211	-4.2908915	33.552192	2.1107865
462	3	1	-0.14207659	-5.1730181	33.432717	1.1042725
463	3	4	0.21499543	-5.4476246	34.292923	0.50547956
464	3	1	-0.36721629	-5.7770594	32.12068	0.79309417
465	3	4	0.21677025	-6.4934613	32.051197	-0.016275032
466	3	1	0.2294634	-5.427326	31.025545	1.4877931
467	3	3	-0.47017637	-6.0356719	29.76061	1.1730416
468	3	1	0.82032585	-5.3838536	28.494076	1.3257061
469	3	2	-0.55188489	-4.1507303	28.416726	1.5659556
470	3	6	0.32536	-6.9837883	29.756724	0.73428071
471	3	1	-0.36721629	-4.459179	31.160867	2.6077061
472	3	4	0.21677022	-4.2025657	30.306584	3.2203256
473	3	1	-0.14207661	-3.9190942	32.351218	2.8952249
474	3	4	0.21499543	-3.2177969	32.43558	3.7163181
475	3	7	0.12603533	-3.4122182	34.944101	3.4938458
476	3	7	0.12603533	-4.3314867	35.712992	2.1782673
477	3	1	-0.14207658	-1.0916577	34.488104	2.1700689
478	3	4	0.21499543	-1.0775996	34.017247	3.1450307
479	3	1	-0.37942076	0.04027113	34.574381	1.4607132
480	3	4	0.21677025	0.94776873	34.150711	1.8680262
481	3	6	0.32138008	1.1542519	35.304103	-1.7152265
482	4	8	-0.4870151	-5.9308621	27.621213	1.1984014
483	4	5	0.12496845	-7.121012	27.982622	0.55320772
484	4	5	-0.13032158	-8.095915	28.609004	1.5565568
485	4	5	-0.13750002	-9.3537119	29.193036	0.89078055
486	4	5	0.04256467	-10.30507	28.124197	0.34045691
487	4	8	-0.13521232	-9.8300698	27.632366	-0.88157529
488	4	9	0.10710454	-11.305024	28.58683	0.18090321
489	4	9	0.10710454	-10.419629	27.293989	1.0736317
490	4	7	0.11108358	-9.9035275	29.776412	1.6614147
491	4	7	0.11108358	-9.0697932	29.902452	0.083521181
492	4	7	0.10969664	-7.5739456	29.436654	2.0860729
493	4	7	0.10969664	-8.3836301	27.854408	2.3202229
494	4	9	0.10659569	-6.9082608	28.690928	-0.27950635
495	4	9	0.10659569	-7.5692509	27.06372	0.12147733
496	1	1	0.57130438	3.4109636	35.396643	-0.77274738
497	1	2	-0.61026722	3.2895573	34.841589	-1.8958984
498	1	3	-0.50774199	4.6555664	35.976241	-0.35761629
499	1	1	0.20576582	5.9011582	35.824982	-1.0619185
500	1	1	-0.37942073	6.228844	34.675677	-1.682213
501	1	4	0.21677023	5.5663361	33.821624	-1.6631036
502	1	1	-0.14207661	7.5316559	34.541591	-2.3664906
503	1	4	0.21499545	7.7732155	33.605956	-2.8554488
504	1	1	-0.24521096	8.4046686	35.563435	-2.3717888
505	1	5	-0.050663231	9.7503067	35.422576	-3.0284613
506	1	1	-0.25967541	10.751096	34.866996	-2.0518977
507	1	1	-0.18711516	11.454782	35.683547	-1.2486793
508	1	4	0.201103	11.332464	36.758202	-1.3096584
509	1	1	-0.2592428	12.403634	35.126692	-0.26328978
510	1	4	0.20880509	12.961283	35.813419	0.36122839
511	1	1	0.44127092	12.563426	33.79076	-0.15005107
512	1	3	-0.34708354	13.471513	33.198037	0.79251677
513	1	10	0.61503995	14.203304	33.860317	1.5977833
514	1	2	-0.30445692	14.914959	34.50359	2.3805033
515	1	1	-0.25924283	11.77512	32.894727	-1.0247899
516	1	4	0.2088051	11.889103	31.821568	-0.93797894
517	1	1	-0.18711521	10.918051	33.400251	-1.9206086
518	1	4	0.20110303	10.345007	32.730598	-2.5491857
519	1	7	0.12603533	9.679485	34.755117	-3.9160631
520	1	7	0.12603533	10.091082	36.410959	-3.4090836
521	1	1	-0.14207658	8.060797	36.815594	-1.657064
522	1	4	0.21499543	8.7650476	37.637347	-1.6308718
523	1	1	-0.37942076	6.8809351	36.937116	-1.0371792
524	1	4	0.21677025	6.6406807	37.8558	-0.51828829
525	1	6	0.32138002	4.6268203	36.631906	0.45471826
526	2	8	-0.13521232	-10.479288	26.93839	-1.1700525
527	2	5	0.042679554	-11.615465	27.616228	-1.6315273
528	2	5	-0.13175115	-12.455302	28.10586	-0.4459128
529	2	5	-0.15880607	-13.623914	29.011331	-0.86823738
530	2	5	0.096482413	-14.74365	28.26271	-1.6007473
531	2	11	-0.66796201	-14.381983	28.029313	-2.9333418
532	2	12	0.4032425	-15.137574	27.530063	-3.3407329
533	2	9	0.10082918	-15.662971	28.889774	-1.5791966
534	2	9	0.10082918	-14.966245	27.300949	-1.0865591
535	2	7	0.11354967	-14.05797	29.457093	0.053978004
536	2	7	0.11354967	-13.254467	29.852241	-1.4948165