Title

227 atoms
250 bonds
415 angles
643 dihedrals
372 impropers

10 atom types
13 bond types
8 angle types
17 dihedral types
3 improper types
-19.25399971 80.74600029 xlo xhi
-7.171999931 92.82800007 ylo yhi
-6.188000202 93.8119998 zlo zhi
0.0 0.0 0.0 xy xz yz

Masses

1	14.00672
2	12.01078
3	1.007947
4	15.99943
5	1.007947
6	12.01078
7	18.998403
8	15.99943
9	15.99943
10	1.007947


Pair Coeffs

1	0.16769152	3.206876
2	0.086879315	3.4806469
3	0.015611343	2.5725815
4	0.16846514	3.0251065
5	0.014090815	1.1034277
6	0.10884061	3.3795318
7	0.061	3.1181455
8	0.2102061	3.0398122
9	0.20947353	2.99716
10	1.2326e-05	0.53453923

Bond Coeffs

1 harmonic	390.03554688505	1.390160554689
2 harmonic	505.144496193	1.019481865027
3 harmonic	422.7150220147	1.421786517481
4 harmonic	360.7852444772	1.387193227181
5 harmonic	397.2545789619	1.085358495916
6 harmonic	279.1350963404	1.454628925034
7 harmonic	425.69104206635	1.362945806494
8 harmonic	289.73813263395	1.498646816465
9 harmonic	492.76746816345	1.381897776683
10 harmonic	340.45121009905	1.358690858053
11 harmonic	582.698766451	1.225198386222
12 harmonic	385.7604595587	1.369745182308
13 harmonic	543.5267831885	0.9716763312559


Angle Coeffs

1 harmonic	57.8982893754	126.8062420451
2 harmonic	55.42182150775	117.3465570514
3 harmonic	63.44422595415	115.5071327674
4 harmonic	34.066775159195	129.1835929926
5 harmonic	65.09061609600001	110.3538806181
6 harmonic	53.20531626545	116.5475862634
7 harmonic	79.1895422237	112.4630193006
8 harmonic	201.41175231035	127.4691416191


Dihedral Coeffs

1 fourier 1	3.661930099076	2	180
2 fourier 1	1.193093382682	2	180
3 fourier 1	0.02021088501612	1	0
4 fourier 1	1.163235555439	2	180
5 fourier 1	1.532232714475	2	180
6 fourier 1	0.02664938770063	3	0
7 fourier 1	1.659715194912	2	180
8 fourier 1	3.101948770557	2	180
9 fourier 1	-0.4252153282372	1	0
10 fourier 1	1.809047390003	2	180
11 fourier 1	-0.04816277792592	1	0
12 fourier 1	0.9974165607242	2	180
13 fourier 1	2.348375642009	2	180
14 fourier 1	1.256156174911	1	0
15 fourier 1	2.687457892086	2	180
16 fourier 1	2.772607909663	2	180
17 fourier 1	0.09692684957115	1	0


Improper Coeffs

1 0.3666666666666667	-1	2
2 0.3333333333333333	-1	2
3 3.5	-1	2


Atoms

1	1	1	-0.412339	13.227	3.1159999	2.0409999
2	1	2	0.125764	11.882	2.905	1.597
3	1	2	-0.407509	11.631	2.575	0.324
4	1	3	0.22062799	12.443	2.473	-0.384
5	1	2	-0.115328	10.238	2.3789999	-0.14399999
6	1	3	0.20309301	10.074	2.151	-1.188
7	1	2	-0.128748	9.2060003	2.516	0.70999998
8	1	2	-0.13496099	7.802	2.3659999	0.24600001
9	1	2	-0.130565	6.8449998	3.201	0.69
10	1	3	0.206385	7.0780001	3.997	1.388
11	1	2	-0.29680499	5.454	3.0599999	0.23100001
12	1	3	0.223278	4.7010002	3.7360001	0.61500001
13	1	2	0.32826501	5.1170001	2.1040001	-0.64499998
14	1	4	-0.282215	3.777	2.0009999	-1.031
15	1	2	0.29973099	2.9119999	0.96200001	-0.65700001
16	1	2	-0.320948	3.2809999	-0.028999999	0.178
17	1	3	0.22970399	4.2740002	-0.056000002	0.61299998
18	1	2	-0.105587	2.3269999	-1.104	0.51999998
19	1	3	0.212677	2.6570001	-1.891	1.1900001
20	1	2	-0.111276	1.0779999	-1.114	0.003
21	1	2	0.242212	0.66799998	0.0089999996	-0.88599998
22	1	2	-0.323493	1.54	0.97299999	-1.201
23	1	3	0.226133	1.24	1.777	-1.862
24	1	4	-0.30530801	-0.625	0.082000002	-1.398
25	1	2	0.242212	-1.573	-0.91900003	-1.189
26	1	2	-0.323493	-2.7909999	-0.78399998	-1.7309999
27	1	3	0.226133	-3.029	0.098999999	-2.309
28	1	2	0.29973099	-3.7950001	-1.8609999	-1.596
29	1	4	-0.282215	-5.0539999	-1.728	-2.1889999
30	1	2	0.32826501	-6.006	-0.76800001	-1.806
31	1	2	-0.29680499	-5.9879999	-0.212	-0.579
32	1	3	0.223278	-5.2199998	-0.47	0.138
33	1	2	-0.130565	-7.0580001	0.70999998	-0.15800001
34	1	3	0.206385	-7.02	1.1289999	0.83999997
35	1	2	-0.13496099	-8.0629997	1.017	-0.99599999
36	1	2	-0.128748	-9.1610003	1.921	-0.57499999
37	1	2	-0.129328	-9.7209997	1.813	0.64600003
38	1	3	0.20309301	-9.3870001	1.063	1.349
39	1	2	-0.375646	-10.835	2.6989999	1.04
40	1	3	0.21711899	-11.273	2.5910001	2.023
41	1	2	0.198036	-11.309	3.612	0.178
42	1	1	-0.532534	-12.397	4.4619999	0.551
43	1	5	0.31903499	-12.83	4.3930001	1.5
44	1	2	-0.375646	-10.697	3.7379999	-1.1619999
45	1	3	0.21711899	-11.065	4.48	-1.859
46	1	2	-0.129328	-9.6809998	2.9430001	-1.518
47	1	3	0.20309301	-9.2340002	3.0569999	-2.4990001
48	1	2	-0.057693001	-8.0600004	0.442	-2.3670001
49	1	3	0.20545	-8.8620005	0.70999998	-3.0439999
50	1	2	-0.32282901	-7.0890002	-0.40799999	-2.7609999
51	1	6	0.76625299	-7.0609999	-0.98500001	-4.158
52	1	7	-0.208939	-5.9159999	-0.56400001	-4.802
53	1	7	-0.208939	-8.1549997	-0.58499998	-4.9109998
54	1	7	-0.208939	-7.0580001	-2.368	-4.0929999
55	1	2	-0.320948	-3.4879999	-2.973	-0.91900003
56	1	3	0.22970399	-4.2189999	-3.7639999	-0.81900001
57	1	2	-0.105587	-2.171	-3.0999999	-0.264
58	1	3	0.212677	-1.982	-3.9779999	0.34099999
59	1	2	-0.111276	-1.238	-2.132	-0.389
60	1	6	0.098823003	0.090999998	-2.223	0.35800001
61	1	2	0.044059001	-0.163	-2.237	1.854
62	1	2	-0.13349199	-0.713	-1.271	2.5999999
63	1	3	0.21575999	-1.034	-0.34099999	2.151
64	1	2	-0.26157099	-0.87099999	-1.5039999	4.059
65	1	3	0.22126301	-1.3049999	-0.73000002	4.678
66	1	2	-0.23190799	-0.472	-2.6670001	4.612
67	1	3	0.21597999	-0.59500003	-2.8269999	5.6750002
68	1	2	-0.170794	0.133	-3.7309999	3.773
69	1	3	0.202436	0.45699999	-4.664	4.2160001
70	1	2	-0.014758	0.264	-3.494	2.4619999
71	1	2	-0.014758	0.81400001	-4.3299999	1.415
72	1	2	-0.170794	1.334	-5.5599999	1.48
73	1	3	0.202436	1.385	-6.1009998	2.4159999
74	1	2	-0.23190799	1.824	-6.1760001	0.222
75	1	3	0.21597999	2.2460001	-7.1719999	0.243
76	1	2	-0.26157099	1.742	-5.5029998	-0.94499999
77	1	3	0.22126301	2.098	-5.9590001	-1.86
78	1	2	-0.13349199	1.16	-4.1360002	-0.986
79	1	3	0.21575999	1.0779999	-3.5999999	-1.923
80	1	2	0.044059001	0.72500002	-3.5910001	0.15700001
81	1	2	-0.32282901	6.1729999	1.201	-1.204
82	1	6	0.76625299	5.849	0.134	-2.2279999
83	1	7	-0.208939	4.73	0.47099999	-2.9649999
84	1	7	-0.208939	6.9029999	-0.02	-3.1099999
85	1	7	-0.208939	5.6199999	-1.068	-1.582
86	1	2	-0.057693001	7.4349999	1.312	-0.73900002
87	1	3	0.20545	8.2019997	0.62599999	-1.08
88	1	2	-0.115328	9.493	2.852	2.1289999
89	1	3	0.20309301	8.6809998	2.9419999	2.8380001
90	1	2	-0.407509	10.754	3.0369999	2.5450001
91	1	3	0.22062799	10.942	3.2750001	3.5840001
92	1	5	0.37223601	14.027	3.0569999	1.374
93	1	2	0.76762801	-12.779	5.184	-0.131
94	1	8	-0.66003001	-13.933	5.0209999	-0.60799998
95	1	2	-0.36976999	-11.964	6.3530002	-0.50700003
96	1	2	-0.080098003	-10.733	6.5100002	0.013
97	1	3	0.221558	-10.329	5.7849998	0.70899999
98	1	2	-0.21266299	-9.9069996	7.6789999	-0.35699999
99	1	3	0.202902	-8.9189997	7.7849998	0.074000001
100	1	2	-0.118246	-10.383	8.592	-1.216
101	1	2	0.030857	-9.5880003	9.7720003	-1.61
102	1	3	0.21247099	-8.5959997	9.9020004	-1.192
103	1	2	-0.32282901	-10.089	10.676	-2.4749999
104	1	2	0.58770102	-9.3059998	11.86	-2.8770001
105	1	8	-0.52928197	-8.1470003	12.065	-2.425
106	1	2	-0.033158999	-11.451	10.501	-3.049
107	1	3	0.21641301	-11.833	11.24	-3.743
108	1	2	-0.205943	-12.223	9.4540005	-2.734
109	1	3	0.202902	-13.209	9.3660002	-3.1760001
110	1	2	-0.140692	-11.737	8.4280005	-1.794
111	1	2	-0.041239001	-12.488	7.3670001	-1.459
112	1	3	0.218905	-13.479	7.2480001	-1.882
113	1	1	-0.412339	13.426	3.362	3.0380001
114	1	2	0.125764	12.355	3.573	3.9649999
115	1	2	-0.407509	12.613	3.9030001	5.237
116	1	3	0.22062799	13.635	4.0050001	5.5780001
117	1	2	-0.115328	11.507	4.099	6.204
118	1	3	0.20309301	11.757	4.3270001	7.2309999
119	1	2	-0.128748	10.226	3.9619999	5.8119998
120	1	2	-0.13496099	9.1079998	4.112	6.7810001
121	1	2	-0.130565	8.0539999	3.277	6.7389998
122	1	3	0.206385	8.0010004	2.4809999	6.0050001
123	1	2	-0.29680499	6.9460001	3.418	7.697
124	1	3	0.223278	6.1040001	2.7420001	7.632
125	1	2	0.32826501	6.9720001	4.3740001	8.6350002
126	1	4	-0.282215	5.8839998	4.4770002	9.507
127	1	2	0.29973099	4.941	5.5159998	9.4940004
128	1	2	-0.320948	4.961	6.507	8.5810003
129	1	3	0.22970399	5.71	6.5339999	7.7979999
130	1	2	-0.105587	3.9489999	7.5819998	8.632
131	1	3	0.212677	3.9949999	8.3690004	7.8870001
132	1	2	-0.111276	2.9949999	7.5910001	9.5900002
133	1	2	0.242212	2.957	6.4689999	10.568
134	1	2	-0.323493	3.8840001	5.5040002	10.524
135	1	3	0.226133	3.8610001	4.7010002	11.249
136	1	4	-0.30530801	1.961	6.3959999	11.538
137	1	2	0.242212	1.005	7.3969998	11.709
138	1	2	-0.323493	0.089000002	7.2620001	12.678
139	1	3	0.226133	0.092	6.3790002	13.303
140	1	2	0.29973099	-0.889	8.3389997	12.939
141	1	4	-0.282215	-1.824	8.2060003	13.97
142	1	2	0.32826501	-2.8499999	7.2459998	13.983
143	1	2	-0.29680499	-3.3050001	6.6900001	12.843
144	1	3	0.223278	-2.872	6.948	11.886
145	1	2	-0.130565	-4.454	5.7680001	12.866
146	1	3	0.206385	-4.803	5.349	11.93
147	1	2	-0.13496099	-5.0599999	5.461	14.026
148	1	2	-0.128748	-6.2350001	4.5570002	14.059
149	1	2	-0.078717001	-7.2220001	4.665	13.148
150	1	3	0.20309301	-7.184	5.415	12.37
151	1	2	-0.451637	-8.4020004	3.779	13.212
152	1	3	0.229119	-9.184	3.8870001	12.473
153	1	2	0.31695399	-8.5089998	2.8659999	14.19
154	1	1	-0.84512401	-9.6560001	2.016	14.264
155	1	5	0.36555901	-9.7440004	1.307	15.027
156	1	5	0.36555901	-10.42	2.085	13.554
157	1	2	-0.451637	-7.428	2.74	15.191
158	1	3	0.229119	-7.5	1.998	15.977
159	1	2	-0.078717001	-6.3530002	3.5350001	15.13
160	1	3	0.20309301	-5.5640001	3.421	15.863
161	1	2	-0.057693001	-4.5300002	6.0359998	15.29
162	1	3	0.20545	-5.0110002	5.7680001	16.224001
163	1	2	-0.32282901	-3.483	6.8860002	15.281
164	1	6	0.76625299	-2.9200001	7.4629998	16.559999
165	1	7	-0.208939	-1.615	7.0419998	16.714001
166	1	7	-0.208939	-3.6400001	7.0630002	17.674999
167	1	7	-0.208939	-2.9419999	8.8459997	16.497999
168	1	2	-0.320948	-0.86699998	9.4510002	12.197
169	1	3	0.22970399	-1.579	10.242	12.385
170	1	2	-0.105587	0.097000003	9.5780001	11.085
171	1	3	0.212677	0.039999999	10.456	10.454
172	1	2	-0.111276	1.007	8.6099997	10.842
173	1	6	0.098823003	1.947	8.7010002	9.6420002
174	1	2	0.044059001	1.137	8.7150002	8.3579998
175	1	2	-0.13349199	0.34200001	7.7490001	7.881
176	1	3	0.21575999	0.219	6.8189998	8.4189997
177	1	2	-0.26157099	-0.36399999	7.9819999	6.5949998
178	1	3	0.22126301	-1.003	7.2080002	6.1900001
179	1	2	-0.23190799	-0.20900001	9.1450005	5.9310002
180	1	3	0.21597999	-0.73100001	9.3050003	4.9970002
181	1	2	-0.170794	0.67299998	10.209	6.473
182	1	3	0.202436	0.801	11.142	5.9390001
183	1	2	-0.014758	1.298	9.9720001	7.632
184	1	2	-0.014758	2.207	10.808	8.3879995
185	1	2	-0.170794	2.6630001	12.038	8.1269999
186	1	3	0.202436	2.3499999	12.578	7.244
187	1	2	-0.23190799	3.599	12.654	9.1009998
188	1	3	0.21597999	3.98	13.65	8.9189997
189	1	2	-0.26157099	3.971	11.981	10.21
190	1	3	0.22126301	4.652	12.437	10.917
191	1	2	-0.13349199	3.45	10.614	10.472
192	1	3	0.21575999	3.7349999	10.078	11.368
193	1	2	0.044059001	2.609	10.068	9.5839996
194	1	2	-0.32282901	8.1619997	5.276	8.7449999
195	1	6	0.76625299	8.2559996	6.3429999	9.8149996
196	1	7	-0.208939	7.507	6.007	10.926
197	1	7	-0.208939	9.5679998	6.4980001	10.224
198	1	7	-0.208939	7.7969999	7.546	9.3070002
199	1	2	-0.057693001	9.1479998	5.1659999	7.8309999
200	1	3	0.20545	9.9870005	5.8520002	7.8509998
201	1	2	-0.115328	9.9449997	3.6259999	4.3920002
202	1	3	0.20309301	8.9230003	3.536	4.0489998
203	1	2	-0.407509	10.949	3.441	3.5239999
204	1	3	0.22062799	10.724	3.2019999	2.4909999
205	1	5	0.37223601	14.421	3.421	3.346
206	1	2	0.58770102	-9.7279997	12.573	-3.5739999
207	1	8	-0.52928299	-8.9580002	13.186	-4.3600001
208	1	2	-0.32282901	-11.182	12.817	-3.596
209	1	2	-0.033158999	-11.988	12.153	-2.7479999
210	1	3	0.21641301	-11.582	11.436	-2.0439999
211	1	2	-0.205943	-13.447	12.39	-2.7609999
212	1	3	0.202902	-14.077	11.844	-2.0699999
213	1	2	-0.141078	-13.976	13.272	-3.622
214	1	2	-0.0049740002	-15.428	13.536	-3.6659999
215	1	3	0.223131	-16.076	13	-2.9820001
216	1	2	-0.25385699	-15.939	14.426	-4.539
217	1	2	0.83936799	-17.396999	14.683	-4.5739999
218	1	8	-0.48997101	-17.875	15.516	-5.3899999
219	1	9	-0.66569901	-18.254999	14.009	-3.7079999
220	1	10	0.41713399	-19.254	14.181	-3.727
221	1	2	-0.060235001	-15.042	15.161	-5.4770002
222	1	3	0.233556	-15.464	15.874	-6.1739998
223	1	2	-0.212606	-13.717	14.968	-5.4889998
224	1	3	0.202902	-13.103	15.524	-6.1880002
225	1	2	-0.118246	-13.096	14.008	-4.559
226	1	2	0.030857	-11.771	13.794	-4.5479999
227	1	3	0.21247099	-11.129	14.333	-5.2350001

Bonds

1	1	1	2
2	2	1	92
3	3	1	113
4	4	2	3
5	4	2	90
6	5	3	4
7	4	3	5
8	5	5	6
9	4	5	7
10	6	7	8
11	4	7	88
12	4	8	9
13	4	8	86
14	5	9	10
15	4	9	11
16	5	11	12
17	4	11	13
18	7	13	14
19	4	13	81
20	7	14	15
21	4	15	16
22	4	15	22
23	5	16	17
24	4	16	18
25	5	18	19
26	4	18	20
27	4	20	21
28	8	20	60
29	4	21	22
30	7	21	24
31	5	22	23
32	7	24	25
33	4	25	26
34	4	25	59
35	5	26	27
36	4	26	28
37	7	28	29
38	4	28	55
39	7	29	30
40	4	30	31
41	4	30	50
42	5	31	32
43	4	31	33
44	5	33	34
45	4	33	35
46	6	35	36
47	4	35	48
48	4	36	37
49	4	36	46
50	5	37	38
51	4	37	39
52	5	39	40
53	4	39	41
54	1	41	42
55	4	41	44
56	2	42	43
57	9	42	93
58	5	44	45
59	4	44	46
60	5	46	47
61	5	48	49
62	4	48	50
63	8	50	51
64	10	51	52
65	10	51	53
66	10	51	54
67	5	55	56
68	4	55	57
69	5	57	58
70	4	57	59
71	8	59	60
72	8	60	61
73	8	60	80
74	4	61	62
75	4	61	70
76	5	62	63
77	4	62	64
78	5	64	65
79	4	64	66
80	5	66	67
81	4	66	68
82	5	68	69
83	4	68	70
84	6	70	71
85	4	71	72
86	4	71	80
87	5	72	73
88	4	72	74
89	5	74	75
90	4	74	76
91	5	76	77
92	4	76	78
93	5	78	79
94	4	78	80
95	8	81	82
96	4	81	86
97	10	82	83
98	10	82	84
99	10	82	85
100	5	86	87
101	5	88	89
102	4	88	90
103	5	90	91
104	11	93	94
105	6	93	95
106	4	95	96
107	4	95	111
108	5	96	97
109	4	96	98
110	5	98	99
111	4	98	100
112	4	100	101
113	4	100	110
114	5	101	102
115	4	101	103
116	6	103	104
117	4	103	106
118	11	104	105
119	6	104	206
120	5	106	107
121	4	106	108
122	5	108	109
123	4	108	110
124	4	110	111
125	5	111	112
126	1	113	114
127	2	113	205
128	4	114	115
129	4	114	203
130	5	115	116
131	4	115	117
132	5	117	118
133	4	117	119
134	6	119	120
135	4	119	201
136	4	120	121
137	4	120	199
138	5	121	122
139	4	121	123
140	5	123	124
141	4	123	125
142	7	125	126
143	4	125	194
144	7	126	127
145	4	127	128
146	4	127	134
147	5	128	129
148	4	128	130
149	5	130	131
150	4	130	132
151	4	132	133
152	8	132	173
153	4	133	134
154	7	133	136
155	5	134	135
156	7	136	137
157	4	137	138
158	4	137	172
159	5	138	139
160	4	138	140
161	7	140	141
162	4	140	168
163	7	141	142
164	4	142	143
165	4	142	163
166	5	143	144
167	4	143	145
168	5	145	146
169	4	145	147
170	6	147	148
171	4	147	161
172	4	148	149
173	4	148	159
174	5	149	150
175	4	149	151
176	5	151	152
177	4	151	153
178	1	153	154
179	4	153	157
180	2	154	155
181	2	154	156
182	5	157	158
183	4	157	159
184	5	159	160
185	5	161	162
186	4	161	163
187	8	163	164
188	10	164	165
189	10	164	166
190	10	164	167
191	5	168	169
192	4	168	170
193	5	170	171
194	4	170	172
195	8	172	173
196	8	173	174
197	8	173	193
198	4	174	175
199	4	174	183
200	5	175	176
201	4	175	177
202	5	177	178
203	4	177	179
204	5	179	180
205	4	179	181
206	5	181	182
207	4	181	183
208	6	183	184
209	4	184	185
210	4	184	193
211	5	185	186
212	4	185	187
213	5	187	188
214	4	187	189
215	5	189	190
216	4	189	191
217	5	191	192
218	4	191	193
219	8	194	195
220	4	194	199
221	10	195	196
222	10	195	197
223	10	195	198
224	5	199	200
225	5	201	202
226	4	201	203
227	5	203	204
228	11	206	207
229	6	206	208
230	4	208	209
231	4	208	226
232	5	209	210
233	4	209	211
234	5	211	212
235	4	211	213
236	4	213	214
237	4	213	225
238	5	214	215
239	4	214	216
240	6	216	217
241	4	216	221
242	11	217	218
243	12	217	219
244	13	219	220
245	5	221	222
246	4	221	223
247	5	223	224
248	4	223	225
249	4	225	226
250	5	226	227

Angles

1	1	31	30	50
2	1	36	46	44
3	4	174	175	176
4	1	213	214	216
5	1	60	61	62
6	4	37	39	40
7	6	61	60	80
8	1	185	187	189
9	1	74	76	78
10	1	147	148	149
11	6	166	164	167
12	4	27	26	28
13	1	189	191	193
14	1	184	193	191
15	6	132	173	172
16	4	209	211	212
17	4	10	9	11
18	1	29	30	50
19	1	104	103	106
20	1	70	71	80
21	1	11	13	14
22	1	142	163	164
23	6	194	195	198
24	1	103	106	108
25	4	184	185	186
26	1	18	20	21
27	1	181	183	184
28	1	132	133	134
29	1	93	95	111
30	1	33	35	36
31	1	114	115	117
32	1	161	163	164
33	1	20	21	22
34	1	134	133	136
35	1	30	31	33
36	1	117	119	201
37	1	14	13	81
38	4	2	90	91
39	1	35	36	37
40	1	1	2	3
41	4	116	115	117
42	1	121	120	199
43	1	30	50	51
44	4	133	134	135
45	1	149	151	153
46	1	142	143	145
47	4	152	151	153
48	3	155	154	156
49	1	114	203	201
50	4	148	149	150
51	1	127	134	133
52	1	142	163	161
53	4	65	64	66
54	1	127	128	130
55	1	174	183	181
56	1	14	15	22
57	4	213	214	215
58	1	149	148	159
59	1	96	98	100
60	1	138	140	168
61	4	185	187	188
62	1	136	137	138
63	1	214	213	225
64	4	189	191	192
65	1	175	177	179
66	1	100	110	111
67	4	186	185	187
68	4	146	145	147
69	6	194	195	197
70	1	3	5	7
71	1	125	194	195
72	1	141	140	168
73	1	106	108	110
74	1	173	174	183
75	4	66	68	69
76	1	147	161	163
77	1	36	35	48
78	4	115	117	118
79	6	163	164	166
80	6	174	173	193
81	4	176	175	177
82	4	168	170	171
83	1	39	41	42
84	1	206	208	209
85	1	138	140	141
86	1	187	189	191
87	4	15	16	17
88	1	217	216	221
89	1	214	216	221
90	6	196	195	197
91	1	64	66	68
92	4	107	106	108
93	1	183	184	193
94	4	4	3	5
95	4	95	111	112
96	4	208	226	227
97	1	207	206	208
98	4	210	209	211
99	1	29	30	31
100	4	76	78	79
101	1	140	168	170
102	4	190	189	191
103	7	133	136	137
104	6	59	60	80
105	4	45	44	46
106	6	81	82	84
107	1	113	114	115
108	1	141	142	163
109	1	20	21	24
110	1	151	153	157
111	6	172	173	174
112	1	141	142	143
113	1	216	217	218
114	2	1	113	114
115	1	16	18	20
116	1	101	103	106
117	4	127	128	129
118	4	96	98	99
119	1	93	95	96
120	1	7	8	9
121	4	28	55	56
122	1	101	100	110
123	1	36	37	39
124	1	206	208	226
125	1	120	121	123
126	1	130	132	173
127	1	13	81	86
128	1	8	9	11
129	1	195	194	199
130	4	114	203	204
131	4	180	179	181
132	1	11	13	81
133	4	175	177	178
134	1	72	71	80
135	1	126	127	128
136	1	94	93	95
137	4	97	96	98
138	1	123	125	126
139	1	223	225	226
140	1	57	59	60
141	4	34	33	35
142	4	12	11	13
143	1	42	93	94
144	4	106	108	109
145	1	174	183	184
146	6	52	51	54
147	1	98	100	110
148	4	147	161	162
149	1	179	181	183
150	4	144	143	145
151	4	21	22	23
152	1	41	44	46
153	6	163	164	165
154	4	169	168	170
155	4	58	57	59
156	6	132	173	174
157	3	153	154	156
158	4	75	74	76
159	1	153	157	159
160	4	64	66	67
161	1	148	147	161
162	1	213	225	226
163	1	115	114	203
164	4	124	123	125
165	1	105	104	206
166	1	151	153	154
167	1	25	26	28
168	1	7	88	90
169	1	132	133	136
170	1	18	20	60
171	1	173	174	175
172	6	20	60	59
173	3	41	42	43
174	4	25	26	27
175	1	31	33	35
176	4	140	168	169
177	1	15	22	21
178	1	8	86	81
179	1	62	61	70
180	1	126	127	134
181	4	118	117	119
182	6	81	82	83
183	1	16	15	22
184	2	2	1	113
185	1	143	145	147
186	1	221	223	225
187	4	216	221	222
188	1	71	72	74
189	4	8	9	10
190	1	35	48	50
191	4	2	3	4
192	1	42	41	44
193	1	103	104	105
194	1	26	28	55
195	4	139	138	140
196	1	61	62	64
197	1	137	172	170
198	1	145	147	148
199	4	79	78	80
200	4	74	76	77
201	4	120	121	122
202	4	131	130	132
203	1	5	7	88
204	1	128	130	132
205	4	222	221	223
206	1	214	216	217
207	5	217	219	220
208	1	213	225	223
209	4	127	134	135
210	5	140	141	142
211	6	83	82	85
212	1	100	101	103
213	4	103	106	107
214	1	130	132	133
215	1	33	35	48
216	4	3	5	6
217	6	84	82	85
218	1	208	209	211
219	8	218	217	219
220	4	49	48	50
221	6	52	51	53
222	4	44	46	47
223	1	145	147	161
224	1	37	39	41
225	4	114	115	116
226	4	41	44	45
227	1	8	7	88
228	4	8	86	87
229	3	153	154	155
230	4	148	159	160
231	1	70	71	72
232	4	194	199	200
233	6	172	173	193
234	1	3	2	90
235	1	119	120	121
236	1	211	213	225
237	3	92	1	113
238	4	178	177	179
239	4	7	88	89
240	3	43	42	93
241	1	82	81	86
242	1	22	21	24
243	4	224	223	225
244	1	2	90	88
245	5	28	29	30
246	4	149	151	152
247	4	187	189	190
248	1	2	3	5
249	1	72	74	76
250	1	39	41	44
251	4	142	143	144
252	4	109	108	110
253	1	13	81	82
254	1	25	59	60
255	6	53	51	54
256	1	121	123	125
257	1	138	137	172
258	4	212	211	213
259	1	177	179	181
260	4	89	88	90
261	4	81	86	87
262	1	143	142	163
263	1	126	125	194
264	4	137	138	139
265	4	221	223	224
266	4	38	37	39
267	3	2	1	92
268	4	71	72	73
269	1	9	8	86
270	1	35	36	46
271	1	68	70	71
272	4	17	16	18
273	1	104	206	208
274	4	61	62	63
275	4	122	121	123
276	1	117	119	120
277	1	21	20	60
278	1	173	193	191
279	4	110	111	112
280	6	50	51	54
281	1	55	57	59
282	4	128	130	131
283	6	132	173	193
284	4	215	214	216
285	4	19	18	20
286	4	69	68	70
287	1	148	159	157
288	1	14	15	16
289	1	7	8	86
290	6	194	195	196
291	6	83	82	84
292	4	100	101	102
293	5	13	14	15
294	4	15	22	23
295	1	113	114	203
296	4	208	209	210
297	1	137	172	173
298	1	95	96	98
299	4	150	149	151
300	1	25	59	57
301	4	158	157	159
302	1	60	80	78
303	4	192	191	193
304	1	123	125	194
305	1	66	68	70
306	1	61	70	68
307	1	119	201	203
308	1	98	100	101
309	1	115	117	119
310	6	163	164	167
311	4	77	76	78
312	4	72	74	75
313	1	168	170	172
314	4	16	18	19
315	4	201	203	204
316	1	128	127	134
317	4	121	123	124
318	4	182	181	183
319	4	177	179	180
320	3	114	113	205
321	6	196	195	198
322	1	120	199	194
323	4	99	98	100
324	4	102	101	103
325	1	60	80	71
326	4	73	72	74
327	4	202	201	203
328	4	9	11	12
329	7	21	24	25
330	1	76	78	80
331	1	71	80	78
332	1	108	110	111
333	6	165	164	167
334	6	20	60	61
335	1	60	61	70
336	1	104	206	207
337	1	119	120	199
338	4	36	37	38
339	4	171	170	172
340	6	50	51	53
341	1	96	95	111
342	4	63	62	64
343	4	55	57	58
344	1	120	119	201
345	4	129	128	130
346	6	59	60	61
347	1	48	50	51
348	1	185	184	193
349	1	62	64	66
350	6	81	82	85
351	4	31	33	34
352	1	24	25	59
353	1	29	28	55
354	1	216	217	219
355	1	174	175	177
356	6	197	195	198
357	4	179	181	182
358	4	6	5	7
359	1	28	55	57
360	2	41	42	93
361	4	95	96	97
362	1	147	148	159
363	1	209	208	226
364	1	209	211	213
365	4	120	199	200
366	1	26	25	59
367	4	153	157	158
368	1	24	25	26
369	1	136	137	172
370	1	1	2	90
371	1	95	111	110
372	1	133	132	173
373	1	208	226	225
374	1	184	185	187
375	1	42	93	95
376	1	211	213	214
377	5	125	126	127
378	4	162	161	163
379	1	37	36	46
380	4	36	46	47
381	1	9	11	13
382	1	30	50	48
383	3	1	113	205
384	4	225	226	227
385	4	119	201	202
386	1	103	104	206
387	1	173	193	184
388	1	15	16	18
389	1	5	7	8
390	4	88	90	91
391	4	67	66	68
392	1	125	194	199
393	4	143	145	146
394	1	175	174	183
395	4	40	39	41
396	6	20	60	80
397	1	101	103	104
398	4	35	48	49
399	6	165	164	166
400	1	61	70	71
401	4	157	159	160
402	4	32	31	33
403	1	154	153	157
404	4	30	31	32
405	4	188	187	189
406	6	50	51	52
407	4	56	55	57
408	1	26	28	29
409	1	137	138	140
410	1	148	149	151
411	4	62	64	65
412	1	100	110	108
413	1	183	184	185
414	1	216	221	223
415	1	170	172	173

Dihedrals

1	4	68	70	71	80
2	1	5	7	88	90
3	1	140	138	137	172
4	1	95	111	110	100
5	1	17	16	18	19
6	5	127	126	125	194
7	1	11	9	8	86
8	1	62	64	66	67
9	6	125	194	195	197
10	1	187	189	191	193
11	1	35	36	37	38
12	1	145	147	161	162
13	7	132	133	136	137
14	1	141	140	168	169
15	8	41	42	93	94
15	9	41	42	93	94
16	12	94	93	95	96
17	6	132	173	193	184
18	1	136	137	172	170
19	1	121	123	125	126
20	1	208	209	211	212
21	12	207	206	208	226
22	1	7	8	9	11
23	1	34	33	35	48
24	1	113	114	203	204
25	1	73	72	74	76
26	1	188	187	189	190
27	1	35	48	50	51
28	1	141	142	163	164
29	3	2	1	113	205
30	1	129	128	130	132
31	1	28	55	57	59
32	5	138	140	141	142
33	1	60	61	70	68
34	1	96	98	100	110
35	1	141	142	143	145
36	1	211	213	225	226
37	1	1	2	3	4
38	6	172	173	174	175
39	1	102	101	103	106
40	1	65	64	66	67
41	1	63	62	64	65
42	2	39	41	42	43
43	1	214	216	221	223
44	1	143	145	147	148
45	1	206	208	209	210
46	12	214	216	217	218
47	1	99	98	100	101
48	6	48	50	51	52
49	1	108	110	111	112
50	12	219	217	216	221
51	1	93	95	96	98
52	1	95	96	98	100
53	1	127	134	133	136
54	6	161	163	164	165
55	1	208	226	225	213
56	1	151	153	157	159
57	1	150	149	151	152
58	1	18	20	21	24
59	1	177	179	181	183
60	1	148	149	151	153
61	1	148	147	161	163
62	1	113	114	115	117
63	1	169	168	170	171
64	1	58	57	59	60
65	1	38	37	39	41
66	1	127	128	130	131
67	1	136	137	138	139
68	6	18	20	60	80
69	1	39	41	44	45
70	1	117	115	114	203
71	1	151	149	148	159
72	1	3	5	7	88
73	1	143	145	147	161
74	12	101	103	104	206
75	12	103	104	206	208
76	1	184	185	187	189
77	1	124	123	125	126
78	1	4	3	5	6
79	4	61	70	71	80
80	1	61	70	68	66
81	1	137	172	170	168
82	1	72	74	76	78
83	1	147	148	159	160
84	6	70	61	60	80
85	1	71	80	78	79
86	1	97	96	95	111
87	1	128	127	134	133
88	1	10	9	8	86
89	1	209	211	213	214
90	2	90	2	1	113
91	1	195	194	199	200
92	5	26	28	29	30
93	6	130	132	173	174
94	1	113	114	203	201
95	1	173	174	175	177
96	1	141	142	163	161
97	1	122	121	120	199
98	1	26	25	59	60
99	1	158	157	159	160
100	1	5	3	2	90
101	1	5	7	88	89
102	1	62	61	70	68
103	1	130	132	133	136
104	1	186	185	187	188
105	1	1	2	3	5
106	1	35	36	46	47
107	1	8	9	11	12
108	1	60	80	78	76
109	1	209	208	226	225
110	1	187	189	191	192
111	1	222	221	223	225
112	1	28	26	25	59
113	1	124	123	125	194
114	1	12	11	13	14
115	1	98	100	101	102
116	1	15	16	18	20
117	1	137	138	140	168
118	2	151	153	154	156
119	1	40	39	41	42
120	4	5	7	8	86
121	1	115	117	119	201
122	6	30	50	51	54
123	1	123	121	120	199
124	1	56	55	57	59
125	1	64	66	68	70
126	1	129	128	130	131
127	4	37	36	35	48
128	5	123	125	126	127
129	1	63	62	61	70
130	1	139	138	140	168
131	1	23	22	21	24
132	1	103	106	108	110
133	6	198	195	194	199
134	6	172	173	193	184
135	6	20	60	80	78
136	1	4	3	2	90
137	1	214	216	221	222
138	1	18	16	15	22
139	5	28	29	30	50
140	1	96	95	111	110
141	1	93	95	96	97
142	1	175	174	183	181
143	6	132	173	172	170
144	1	123	125	194	199
145	1	177	179	181	182
146	1	148	149	151	152
147	1	178	177	179	181
148	2	115	114	113	205
149	1	1	2	90	88
150	1	113	114	115	116
151	1	176	175	177	179
152	2	44	41	42	93
153	1	98	100	110	108
154	1	116	115	117	119
155	1	136	137	172	173
156	1	173	193	184	183
157	1	9	8	86	87
158	12	42	93	95	111
159	6	133	132	173	172
160	1	27	26	25	59
161	1	176	175	174	183
162	1	36	46	44	41
163	1	7	8	86	87
164	12	207	206	208	209
165	1	137	138	140	141
166	1	100	101	103	106
167	1	206	208	226	225
168	1	70	71	72	73
169	6	137	172	173	174
170	1	211	213	214	216
171	6	18	20	60	59
172	1	36	37	39	40
173	1	8	86	81	82
174	1	153	157	159	160
175	1	37	39	41	44
176	1	168	170	172	173
177	1	139	138	140	141
178	1	31	30	50	48
179	6	20	60	80	71
180	12	103	104	206	207
181	6	172	173	193	191
182	6	25	59	60	80
183	1	114	203	201	202
184	1	35	36	46	44
185	1	120	121	123	124
186	1	144	143	145	147
187	5	142	141	140	168
188	1	8	9	11	13
189	5	13	14	15	22
190	12	105	104	206	207
191	1	14	15	16	17
192	12	218	217	216	221
193	1	74	72	71	80
194	2	1	113	114	115
195	1	75	74	76	77
196	1	147	148	149	151
197	1	24	25	59	57
198	2	90	2	1	92
199	6	170	172	173	174
200	1	214	213	225	226
201	1	152	151	153	157
202	1	93	95	111	110
203	1	174	175	177	179
204	1	154	153	157	158
205	10	43	42	93	95
205	11	43	42	93	95
206	1	128	130	132	173
207	7	21	24	25	59
208	1	69	68	70	71
209	1	61	70	68	69
210	1	103	101	100	110
211	1	137	172	170	171
212	4	61	70	71	72
213	7	20	21	24	25
214	1	127	134	133	132
215	4	159	148	147	161
216	1	8	7	88	89
217	1	101	100	110	108
218	4	199	120	119	201
219	1	210	209	208	226
220	1	222	221	223	224
221	1	175	177	179	181
222	1	114	115	117	119
223	6	20	60	61	70
224	1	119	201	203	204
225	6	175	174	173	193
226	1	24	25	26	28
227	4	145	147	148	149
228	2	151	153	154	155
229	1	149	151	153	157
230	1	24	21	20	60
231	4	149	148	147	161
232	5	15	14	13	81
233	1	31	33	35	36
234	1	56	55	57	58
235	1	64	66	68	69
236	6	132	173	172	137
237	4	33	35	36	37
238	1	136	133	132	173
239	1	142	163	161	162
240	1	70	71	80	78
241	1	77	76	78	79
242	1	62	61	70	71
243	1	217	216	221	223
244	3	92	1	113	114
245	6	57	59	60	80
246	1	103	106	108	109
247	6	21	20	60	80
248	1	185	184	193	191
249	1	129	128	127	134
250	7	21	24	25	26
251	1	98	96	95	111
252	1	99	98	100	110
253	5	30	29	28	55
254	6	59	60	80	78
255	1	60	80	78	79
256	1	100	110	108	106
257	6	174	173	193	191
258	1	39	37	36	46
259	1	42	41	44	46
260	1	38	37	36	46
261	1	6	5	7	8
262	1	216	214	213	225
263	1	184	193	191	189
264	1	178	177	179	180
265	1	176	175	177	178
266	1	118	117	119	120
267	1	184	193	191	192
268	1	25	26	28	29
269	1	116	115	117	118
270	1	210	209	211	213
271	1	26	28	55	57
272	1	10	9	11	13
273	6	130	132	173	193
274	1	119	120	199	200
275	1	214	213	225	223
276	1	9	11	13	14
277	1	27	26	28	29
278	1	152	151	153	154
279	1	120	199	194	195
280	1	138	140	168	170
281	1	19	18	20	21
282	1	121	123	125	194
283	1	60	61	62	64
284	1	179	181	183	184
285	6	13	81	82	84
286	1	180	179	181	183
287	1	190	189	191	193
288	1	211	213	214	215
289	6	62	61	60	80
290	1	109	108	110	111
291	6	48	50	51	54
292	1	107	106	108	109
293	1	202	201	203	204
294	6	59	60	80	71
295	1	175	174	183	184
296	6	161	163	164	167
297	1	144	143	145	146
298	1	183	184	185	187
299	1	61	62	64	66
300	1	117	119	201	203
301	4	181	183	184	193
302	7	134	133	136	137
303	1	98	100	110	111
304	1	136	137	138	140
305	1	2	90	88	89
306	1	82	81	86	87
307	6	59	60	61	70
308	1	149	151	153	154
309	2	3	2	1	113
310	1	71	72	74	76
311	1	15	22	21	24
312	6	142	163	164	166
313	1	216	221	223	225
314	1	74	76	78	80
315	1	174	175	177	178
316	1	114	203	201	119
317	1	120	119	201	203
318	1	29	30	31	32
319	6	132	173	174	175
320	6	20	60	59	25
321	1	31	30	50	51
322	1	144	143	142	163
323	1	146	145	147	148
324	1	16	18	20	60
325	2	39	41	42	93
326	16	218	217	219	220
326	17	218	217	219	220
327	1	142	143	145	147
328	1	97	96	98	100
329	6	125	194	195	196
330	1	123	125	194	195
331	4	117	119	120	199
332	1	186	185	184	193
333	1	128	127	134	135
334	4	145	147	148	159
335	1	14	15	22	21
336	1	177	175	174	183
337	1	16	15	22	21
338	15	216	217	219	220
339	12	42	93	95	96
340	1	24	25	59	60
341	1	73	72	74	75
342	1	128	130	132	133
343	1	11	13	81	86
344	1	28	55	57	58
345	1	29	28	55	57
346	4	68	70	71	72
347	6	172	173	174	183
348	12	105	104	103	106
349	6	137	172	173	193
350	1	141	142	143	144
351	12	104	206	208	226
352	7	22	21	24	25
353	1	36	35	48	50
354	1	146	145	147	161
355	6	21	20	60	59
356	1	119	120	121	123
357	1	14	13	81	86
358	1	148	159	157	158
359	1	25	59	57	58
360	1	95	96	98	99
361	1	151	153	157	158
362	1	35	36	37	39
363	1	145	147	161	163
364	1	101	100	110	111
365	1	141	140	168	170
366	1	148	147	161	162
367	1	212	211	213	225
368	1	29	30	50	51
369	1	33	31	30	50
370	1	212	211	213	214
371	6	20	60	61	62
372	7	133	136	137	138
373	1	210	209	211	212
374	1	26	28	55	56
375	1	126	127	134	133
376	1	30	31	33	35
377	1	208	209	211	213
378	1	40	39	41	44
379	4	86	8	7	88
380	1	121	120	199	194
381	1	17	16	18	20
382	1	149	148	159	157
383	4	174	183	184	193
384	1	38	37	39	40
385	6	170	172	173	193
386	1	34	33	35	36
387	1	126	127	128	130
388	1	185	187	189	191
389	6	183	174	173	193
390	6	13	81	82	83
391	1	65	64	66	68
392	1	180	179	181	182