Title

193 atoms
206 bonds
353 angles
553 dihedrals
240 impropers

10 atom types
14 bond types
9 angle types
20 dihedral types
3 improper types
-8.517000198 91.4829998 xlo xhi
-11.81599998 88.18400002 ylo yhi
-14.60000038 85.39999962 zlo zhi
0.0 0.0 0.0 xy xz yz

Masses

1	14.00672
2	12.01078
3	1.007947
4	15.99943
5	12.01078
6	1.007947
7	1.007947
8	15.99943
9	15.99943
10	1.007947


Pair Coeffs

1	0.16769152	3.206876
2	0.086879315	3.4806469
3	0.015611343	2.5725815
4	0.16846514	3.0251065
5	0.10884061	3.3795318
6	0.014090815	1.1034277
7	0.015779483	2.6445434
8	0.2102061	3.0398122
9	0.20947353	2.99716
10	1.2326e-05	0.53453923

Bond Coeffs

1 harmonic	390.03554688505	1.390160554689
2 harmonic	505.144496193	1.019481865027
3 harmonic	422.7150220147	1.421786517481
4 harmonic	360.7852444772	1.387193227181
5 harmonic	397.2545789619	1.085358495916
6 harmonic	425.69104206635	1.362945806494
7 harmonic	289.73813263395	1.498646816465
8 harmonic	264.62148576755	1.52190126495
9 harmonic	492.76746816345	1.381897776683
10 harmonic	370.04670688625	1.093899492634
11 harmonic	582.698766451	1.225198386222
12 harmonic	279.1350963404	1.454628925034
13 harmonic	385.7604595587	1.369745182308
14 harmonic	543.5267831885	0.9716763312559


Angle Coeffs

1 harmonic	57.8982893754	126.8062420451
2 harmonic	55.42182150775	117.3465570514
3 harmonic	63.44422595415	115.5071327674
4 harmonic	34.066775159195	129.1835929926
5 harmonic	65.09061609600001	110.3538806181
6 harmonic	53.20531626545	116.5475862634
7 harmonic	48.776492647595	115.6030999533
8 harmonic	14.32262199324	138.3184368373
9 harmonic	201.41175231035	127.4691416191


Dihedral Coeffs

1 fourier 1	3.661930099076	2	180
2 fourier 1	1.193093382682	2	180
3 fourier 1	0.02021088501612	1	0
4 fourier 1	1.532232714475	2	180
5 fourier 1	0.02664938770063	3	0
6 fourier 1	0.1155372516788	3	0
7 fourier 1	3.101948770557	2	180
8 fourier 1	-0.4252153282372	1	0
9 fourier 1	1.809047390003	2	180
10 fourier 1	-0.04816277792592	1	0
11 fourier 1	0.9974165607242	2	180
12 fourier 1	2.348375642009	2	180
13 fourier 1	1.256156174911	1	0
14 fourier 1	0.1040663847541	3	0
15 fourier 1	0.09223874044423	3	0
16 fourier 1	0.3159935921949	2	180
17 fourier 1	0.3247796806857	1	180
18 fourier 1	2.687457892086	2	180
19 fourier 1	2.772607909663	2	180
20 fourier 1	0.09692684957115	1	0


Improper Coeffs

1 0.3666666666666667	-1	2
2 0.3333333333333333	-1	2
3 3.5	-1	2


Atoms

1	1	1	-0.41193601	9.1789999	-0.991	2.062
2	1	2	0.100771	7.75	-0.98100001	2.0009999
3	1	2	-0.38785699	7.04	-2.036	2.4289999
4	1	3	0.22444101	7.54	-2.915	2.823
5	1	2	-0.22572	5.5619998	-2.013	2.382
6	1	3	0.225375	5.0040002	-2.8640001	2.747
7	1	2	0.18194599	4.9159999	-0.94400001	1.891
8	1	4	-0.26896599	3.5139999	-0.94499999	1.886
9	1	2	0.25678301	2.7149999	-0.191	1.018
10	1	2	-0.277318	1.545	0.28299999	1.459
11	1	3	0.228444	1.233	0.094999999	2.4790001
12	1	2	-0.142657	0.68300003	1.092	0.57499999
13	1	3	0.215983	-0.234	1.494	0.986
14	1	2	-0.25867	1.028	1.331	-0.70899999
15	1	5	0.0086859995	0.125	2.2190001	-1.59
16	1	2	-0.25867	-1.342	1.755	-1.497
17	1	2	-0.142657	-1.643	0.44	-1.6059999
18	1	3	0.215983	-0.86199999	-0.29899999	-1.738
19	1	2	-0.277318	-3.0409999	-0.030999999	-1.538
20	1	3	0.228444	-3.244	-1.091	-1.623
21	1	2	0.25678301	-4.0440001	0.84899998	-1.39
22	1	4	-0.26896599	-5.382	0.43900001	-1.324
23	1	2	0.18194599	-5.8470001	-0.68000001	-0.61500001
24	1	2	-0.246967	-7.0279999	-1.215	-0.958
25	1	3	0.225376	-7.5949998	-0.80000001	-1.781
26	1	2	-0.359023	-7.566	-2.382	-0.223
27	1	3	0.220557	-8.5170002	-2.803	-0.52499998
28	1	2	0.16567899	-6.881	-2.908	0.80400002
29	1	1	-0.53215098	-7.3969998	-4.0320001	1.52
30	1	6	0.31948	-8.3140001	-4.4640002	1.261
31	1	2	-0.35902399	-5.585	-2.3069999	1.201
32	1	3	0.220557	-5.0349998	-2.7149999	2.04
33	1	2	-0.246967	-5.0960002	-1.2539999	0.53399998
34	1	3	0.225376	-4.1620002	-0.81300002	0.85600001
35	1	2	-0.277318	-3.7409999	2.2920001	-1.344
36	1	3	0.228444	-4.5500002	3.006	-1.2640001
37	1	2	-0.142657	-2.4749999	2.723	-1.392
38	1	3	0.215983	-2.302	3.789	-1.357
39	1	5	-0.129953	0.52100003	2.171	-3.0840001
40	1	7	0.089170001	1.521	2.6270001	-3.25
41	1	7	0.089170001	-0.207	2.7460001	-3.698
42	1	7	0.089170001	0.53100002	1.123	-3.4590001
43	1	5	-0.129953	0.31400001	3.675	-1.099
44	1	7	0.089170001	1.395	3.9330001	-1.051
45	1	7	0.089170001	-0.118	3.8110001	-0.083999999
46	1	7	0.089170001	-0.163	4.4000001	-1.7920001
47	1	2	-0.142657	2.3280001	0.77700001	-1.198
48	1	3	0.215983	2.661	0.935	-2.2130001
49	1	2	-0.277318	3.1129999	0.057	-0.38800001
50	1	3	0.228444	4.0359998	-0.35699999	-0.773
51	1	2	-0.22572	5.704	0.229	1.421
52	1	3	0.225375	5.204	1.119	1.058
53	1	2	-0.38785699	7.0419998	0.20999999	1.476
54	1	3	0.22444101	7.6069999	1.074	1.145
55	1	6	0.372785	9.6969995	-1.824	2.4200001
56	1	2	0.76818198	-6.8600001	-4.4380002	2.3429999
57	1	8	-0.65837097	-7.1609998	-5.5869999	2.76
58	1	2	-0.37100101	-5.7810001	-3.6619999	2.9809999
59	1	2	-0.079645	-5.473	-2.438	2.526
60	1	3	0.224031	-6.0120001	-2.007	1.691
61	1	2	-0.24984699	-4.3940001	-1.651	3.158
62	1	3	0.214035	-4.2080002	-0.66399997	2.7609999
63	1	2	-0.210602	-3.677	-2.1559999	4.1859999
64	1	5	0.024652001	-2.5710001	-1.362	4.902
65	1	5	-0.13169099	-2.0420001	-0.15099999	4.0960002
66	1	7	0.087300003	-2.8199999	0.63599998	4.0029998
67	1	7	0.087300003	-1.168	0.308	4.6059999
68	1	7	0.087300003	-1.722	-0.46599999	3.079
69	1	2	-0.125884	-1.408	-2.2520001	5.2140002
70	1	2	-0.153291	-0.68099999	-2.97	4.3460002
71	1	3	0.213383	-0.91399997	-2.964	3.289
72	1	2	-0.0012910001	0.45100001	-3.7780001	4.8559999
73	1	3	0.21421801	1.033	-4.362	4.1539998
74	1	2	-0.34617001	0.75099999	-3.779	6.1719999
75	1	2	0.58570898	1.881	-4.5830002	6.6700001
76	1	8	-0.51633602	2.174	-4.5960002	7.895
77	1	2	0.069771998	-0.068999998	-2.9619999	7.1110001
78	1	3	0.20798799	0.163	-2.9389999	8.1680002
79	1	2	-0.181721	-1.098	-2.25	6.6259999
80	1	5	-0.027448	-2.026	-1.357	7.3870001
81	1	5	-0.131285	-1.252	-0.152	7.954
82	1	7	0.091541	-0.486	-0.486	8.6859999
83	1	7	0.091541	-0.73900002	0.403	7.1389999
84	1	7	0.091541	-1.948	0.54400003	8.4700003
85	1	5	-0.131285	-2.7190001	-2.1300001	8.5249996
86	1	7	0.091541	-1.983	-2.4530001	9.2910004
87	1	7	0.091541	-3.2320001	-3.033	8.1280003
88	1	7	0.091541	-3.4760001	-1.485	9.0209999
89	1	5	-0.18138	-3.062	-0.89499998	6.3109999
90	1	7	0.12973499	-3.217	0.207	6.3449998
91	1	7	0.12973499	-4.0640001	-1.3279999	6.533
92	1	2	-0.24984699	-4.0469999	-3.507	4.6999998
93	1	3	0.214035	-3.5239999	-3.928	5.5500002
94	1	2	-0.079645	-5.0289998	-4.2150002	4.131
95	1	3	0.224031	-5.2750001	-5.1929998	4.526
96	1	1	-0.41193601	9.7279997	-0.15700001	1.758
97	1	2	0.100772	10.438	-0.168	0.51599997
98	1	2	-0.38785699	11.178	0.88800001	0.14300001
99	1	3	0.22444101	11.245	1.767	0.77600002
100	1	2	-0.22572	11.925	0.86400002	-1.133
101	1	3	0.225375	12.53	1.716	-1.411
102	1	2	0.18194599	11.853	-0.205	-1.941
103	1	4	-0.26896599	12.595	-0.20299999	-3.131
104	1	2	0.25678301	12.285	-0.958	-4.2690001
105	1	2	-0.277318	13.281	-1.431	-5.0250001
106	1	3	0.228444	14.311	-1.244	-4.7459998
107	1	2	-0.142657	12.992	-2.24	-6.2249999
108	1	3	0.215983	13.828	-2.642	-6.783
109	1	2	-0.25867	11.721	-2.4790001	-6.6170001
110	1	5	0.0086859995	11.456	-3.3670001	-7.8499999
111	1	2	-0.25867	12.315	-2.9030001	-9.0430002
112	1	2	-0.142657	12.383	-1.589	-9.3549995
113	1	3	0.215983	11.856	-0.85000002	-8.7650003
114	1	2	-0.277318	13.185	-1.118	-10.503
115	1	3	0.228444	13.221	-0.057999998	-10.72
116	1	2	0.25678301	13.845	-1.997	-11.273
117	1	4	-0.26896599	14.612	-1.587	-12.371
118	1	2	0.18194599	15.46	-0.46900001	-12.387
119	1	2	-0.17144801	15.799	0.067000002	-13.569
120	1	3	0.225376	15.404	-0.34900001	-14.488
121	1	2	-0.437356	16.707001	1.233	-13.634
122	1	3	0.233187	16.958	1.654	-14.6
123	1	2	0.28046799	17.212	1.7589999	-12.507
124	1	1	-0.84470302	18.091999	2.8840001	-12.563
125	1	6	0.36636201	18.496	3.2820001	-11.685
126	1	6	0.36636201	18.362	3.316	-13.477
127	1	2	-0.437356	16.858999	1.159	-11.199
128	1	3	0.233187	17.275999	1.566	-10.286
129	1	2	-0.17144801	16.034	0.105	-11.14
130	1	3	0.225376	15.809	-0.33500001	-10.178
131	1	2	-0.277318	13.722	-3.4400001	-10.992
132	1	3	0.228444	14.22	-4.1550002	-11.635
133	1	2	-0.142657	13.008	-3.872	-9.9460001
134	1	3	0.215983	12.946	-4.9380002	-9.7810001
135	1	5	-0.129953	9.9809999	-3.319	-8.3100004
136	1	7	0.089170001	9.3079996	-3.776	-7.552
137	1	7	0.089170001	9.849	-3.8940001	-9.2530003
138	1	7	0.089170001	9.658	-2.2720001	-8.5010004
139	1	5	-0.129953	11.771	-4.823	-7.4289999
140	1	7	0.089170001	11.237	-5.0809999	-6.4879999
141	1	7	0.089170001	12.861	-4.9590001	-7.2540002
142	1	7	0.089170001	11.439	-5.5479999	-8.2019997
143	1	2	-0.142657	10.615	-1.926	-5.777
144	1	3	0.215983	9.5790005	-2.0840001	-6.0349998
145	1	2	-0.277318	10.883	-1.206	-4.6810002
146	1	3	0.228444	10.065	-0.792	-4.1040001
147	1	2	-0.22572	11.035	-1.378	-1.525
148	1	3	0.225375	10.995	-2.267	-2.141
149	1	2	-0.38785699	10.37	-1.359	-0.36199999
150	1	3	0.22444101	9.7889996	-2.223	-0.059999999
151	1	6	0.372785	9.7559996	0.67500001	2.388
152	1	2	0.59121299	2.473	-5.1739998	5.9829998
153	1	8	-0.52674502	1.897	-5.7610002	5.0289998
154	1	2	-0.33467901	3.931	-5.2779999	6.178
155	1	2	0.0039769998	4.7030001	-5.9980001	5.348
156	1	3	0.22183301	4.276	-6.526	4.5050001
157	1	2	-0.24326199	6.1609998	-6.0830002	5.5689998
158	1	3	0.214035	6.75	-6.6589999	4.8660002
159	1	2	-0.210602	6.7480001	-5.4569998	6.6129999
160	1	5	0.024652001	8.2729998	-5.5430002	6.8000002
161	1	5	-0.13169099	8.7550001	-4.9970002	8.1639996
162	1	7	0.087300003	8.2299995	-5.507	9
163	1	7	0.087300003	8.5780001	-3.9030001	8.2370005
164	1	7	0.087300003	9.8470001	-5.1659999	8.2889996
165	1	2	-0.125884	8.7460003	-6.9590001	6.6729999
166	1	2	-0.172582	8.342	-8.0150003	7.3920002
167	1	3	0.213383	7.5840001	-7.908	8.1569996
168	1	2	-0.062105	8.9490004	-9.3389997	7.1240001
169	1	3	0.23063301	8.6129999	-10.188	7.7049999
170	1	2	-0.227917	9.9040003	-9.4770002	6.1750002
171	1	2	0.83518398	10.522	-10.791	5.8979998
172	1	8	-0.480948	10.171	-11.816	6.5430002
173	1	9	-0.66462398	11.503	-10.907	4.9159999
174	1	10	0.41772899	11.935	-11.801	4.7150002
175	1	2	0.0045739999	10.336	-8.2790003	5.401
176	1	3	0.223316	11.107	-8.3599997	4.645
177	1	2	-0.175888	9.7609997	-7.0929999	5.6539998
178	1	5	-0.027448	10.062	-5.7789998	5.006
179	1	5	-0.131285	9.8789997	-5.8670001	3.4790001
180	1	7	0.091541	10.625	-6.5570002	3.029
181	1	7	0.091541	8.8620005	-6.2379999	3.2279999
182	1	7	0.091541	10.012	-4.8639998	3.0179999
183	1	5	-0.131285	11.498	-5.3390002	5.3470001
184	1	7	0.091541	11.641	-5.2859998	6.448
185	1	7	0.091541	12.238	-6.0560002	4.9320002
186	1	7	0.091541	11.707	-4.336	4.9169998
187	1	5	-0.18138	9.0179996	-4.803	5.6389999
188	1	7	0.12973499	9.5039997	-3.8670001	5.9970002
189	1	7	0.12973499	8.2910004	-4.4619999	4.8670001
190	1	2	-0.24326199	5.881	-4.645	7.5180001
191	1	3	0.214035	6.2950001	-4.1040001	8.3559999
192	1	2	0.0039769998	4.5609999	-4.5669999	7.3130002
193	1	3	0.22183301	3.951	-3.974	7.9840002

Bonds

1	1	1	2
2	2	1	55
3	3	1	96
4	4	2	3
5	4	2	53
6	5	3	4
7	4	3	5
8	5	5	6
9	4	5	7
10	6	7	8
11	4	7	51
12	6	8	9
13	4	9	10
14	4	9	49
15	5	10	11
16	4	10	12
17	5	12	13
18	4	12	14
19	7	14	15
20	4	14	47
21	7	15	16
22	8	15	39
23	8	15	43
24	4	16	17
25	4	16	37
26	5	17	18
27	4	17	19
28	5	19	20
29	4	19	21
30	6	21	22
31	4	21	35
32	6	22	23
33	4	23	24
34	4	23	33
35	5	24	25
36	4	24	26
37	5	26	27
38	4	26	28
39	1	28	29
40	4	28	31
41	2	29	30
42	9	29	56
43	5	31	32
44	4	31	33
45	5	33	34
46	5	35	36
47	4	35	37
48	5	37	38
49	10	39	40
50	10	39	41
51	10	39	42
52	10	43	44
53	10	43	45
54	10	43	46
55	5	47	48
56	4	47	49
57	5	49	50
58	5	51	52
59	4	51	53
60	5	53	54
61	11	56	57
62	12	56	58
63	4	58	59
64	4	58	94
65	5	59	60
66	4	59	61
67	5	61	62
68	4	61	63
69	7	63	64
70	4	63	92
71	8	64	65
72	7	64	69
73	8	64	89
74	10	65	66
75	10	65	67
76	10	65	68
77	4	69	70
78	4	69	79
79	5	70	71
80	4	70	72
81	5	72	73
82	4	72	74
83	12	74	75
84	4	74	77
85	11	75	76
86	12	75	152
87	5	77	78
88	4	77	79
89	7	79	80
90	8	80	81
91	8	80	85
92	8	80	89
93	10	81	82
94	10	81	83
95	10	81	84
96	10	85	86
97	10	85	87
98	10	85	88
99	10	89	90
100	10	89	91
101	5	92	93
102	4	92	94
103	5	94	95
104	1	96	97
105	2	96	151
106	4	97	98
107	4	97	149
108	5	98	99
109	4	98	100
110	5	100	101
111	4	100	102
112	6	102	103
113	4	102	147
114	6	103	104
115	4	104	105
116	4	104	145
117	5	105	106
118	4	105	107
119	5	107	108
120	4	107	109
121	7	109	110
122	4	109	143
123	7	110	111
124	8	110	135
125	8	110	139
126	4	111	112
127	4	111	133
128	5	112	113
129	4	112	114
130	5	114	115
131	4	114	116
132	6	116	117
133	4	116	131
134	6	117	118
135	4	118	119
136	4	118	129
137	5	119	120
138	4	119	121
139	5	121	122
140	4	121	123
141	1	123	124
142	4	123	127
143	2	124	125
144	2	124	126
145	5	127	128
146	4	127	129
147	5	129	130
148	5	131	132
149	4	131	133
150	5	133	134
151	10	135	136
152	10	135	137
153	10	135	138
154	10	139	140
155	10	139	141
156	10	139	142
157	5	143	144
158	4	143	145
159	5	145	146
160	5	147	148
161	4	147	149
162	5	149	150
163	11	152	153
164	12	152	154
165	4	154	155
166	4	154	192
167	5	155	156
168	4	155	157
169	5	157	158
170	4	157	159
171	7	159	160
172	4	159	190
173	8	160	161
174	7	160	165
175	8	160	187
176	10	161	162
177	10	161	163
178	10	161	164
179	4	165	166
180	4	165	177
181	5	166	167
182	4	166	168
183	5	168	169
184	4	168	170
185	12	170	171
186	4	170	175
187	11	171	172
188	13	171	173
189	14	173	174
190	5	175	176
191	4	175	177
192	7	177	178
193	8	178	179
194	8	178	183
195	8	178	187
196	10	179	180
197	10	179	181
198	10	179	182
199	10	183	184
200	10	183	185
201	10	183	186
202	10	187	188
203	10	187	189
204	5	190	191
205	4	190	192
206	5	192	193

Angles

1	1	74	77	79
2	6	110	139	141
3	6	14	15	39
4	1	22	21	35
5	1	74	75	152
6	4	16	17	18
7	4	154	192	193
8	7	45	43	46
9	4	97	149	150
10	1	119	121	123
11	1	14	47	49
12	1	155	154	192
13	7	188	187	189
14	6	15	43	46
15	1	109	143	145
16	4	24	26	27
17	1	116	131	133
18	7	86	85	88
19	1	152	154	192
20	1	166	165	177
21	1	56	58	94
22	4	52	51	53
23	7	181	179	182
24	1	118	129	127
25	6	65	64	89
26	6	80	81	84
27	4	16	37	38
28	1	114	116	131
29	7	162	161	163
30	1	117	118	119
31	6	79	80	81
32	4	118	129	130
33	3	28	29	30
34	4	27	26	28
35	1	72	74	75
36	1	5	7	8
37	6	14	15	43
38	3	1	96	151
39	6	64	65	68
40	4	101	100	102
41	4	18	17	19
42	1	121	123	127
43	6	80	81	83
44	6	165	160	187
45	1	2	3	5
46	6	16	15	39
47	2	1	96	97
48	6	160	161	162
49	1	61	63	64
50	1	56	58	59
51	1	103	104	105
52	4	32	31	33
53	1	121	123	124
54	7	180	179	182
55	1	112	114	116
56	9	172	171	173
57	1	170	175	177
58	6	63	64	89
59	1	69	79	80
60	6	79	80	85
61	1	160	159	190
62	1	103	104	145
63	6	85	80	89
64	3	123	124	126
65	1	153	152	154
66	1	58	59	61
67	6	80	85	88
68	1	16	17	19
69	7	184	183	186
70	4	23	24	25
71	2	28	29	56
72	8	160	165	166
73	6	16	15	43
74	4	102	147	148
75	1	159	190	192
76	7	40	39	41
77	4	191	190	192
78	1	69	70	72
79	4	63	92	93
80	4	31	33	34
81	8	64	69	70
82	1	29	28	31
83	1	12	14	15
84	1	96	97	98
85	4	9	10	11
86	4	156	155	157
87	6	160	187	189
88	5	116	117	118
89	1	123	127	129
90	1	110	111	112
91	4	23	33	34
92	4	122	121	123
93	1	24	23	33
94	1	9	49	47
95	6	80	89	91
96	6	178	179	181
97	4	170	175	176
98	1	19	21	35
99	1	7	51	53
100	4	6	5	7
101	6	65	64	69
102	1	21	35	37
103	1	22	23	33
104	1	57	56	58
105	4	9	49	50
106	4	176	175	177
107	1	117	118	129
108	1	28	31	33
109	1	63	92	94
110	1	165	177	178
111	1	170	171	172
112	1	165	166	168
113	1	2	53	51
114	6	63	64	65
115	4	2	53	54
116	3	97	96	151
117	7	40	39	42
118	4	51	53	54
119	8	175	177	178
120	1	3	2	53
121	3	55	1	96
122	6	109	110	135
123	4	111	133	134
124	4	109	143	144
125	4	167	166	168
126	4	98	100	101
127	6	63	64	69
128	4	143	145	146
129	4	104	145	146
130	6	110	135	136
131	1	8	9	10
132	1	157	159	190
133	1	15	16	37
134	1	119	118	129
135	5	102	103	104
136	4	159	190	191
137	6	80	81	82
138	7	67	65	68
139	1	166	168	170
140	1	1	2	53
141	3	30	29	56
142	6	80	85	87
143	7	184	183	185
144	4	7	51	52
145	4	21	35	36
146	1	58	94	92
147	4	118	119	120
148	1	157	159	160
149	1	10	12	14
150	1	160	165	177
151	7	140	139	142
152	4	128	127	129
153	1	59	61	63
154	6	160	187	188
155	6	160	161	164
156	1	70	69	79
157	1	59	58	94
158	1	29	56	58
159	4	69	70	71
160	4	25	24	26
161	4	113	112	114
162	1	96	97	149
163	4	10	12	13
164	1	23	24	26
165	4	148	147	149
166	7	163	161	164
167	1	107	109	110
168	1	168	170	175
169	7	136	135	138
170	1	155	157	159
171	7	82	81	84
172	7	136	135	137
173	1	165	177	175
174	1	110	111	133
175	8	77	79	80
176	6	39	15	43
177	1	111	112	114
178	1	15	16	17
179	4	154	155	156
180	1	105	104	145
181	4	106	105	107
182	1	124	123	127
183	6	64	65	66
184	4	120	119	121
185	1	24	26	28
186	6	110	139	142
187	1	70	72	74
188	4	2	3	4
189	4	60	59	61
190	6	179	178	183
191	1	76	75	152
192	6	159	160	187
193	1	170	171	173
194	1	100	102	147
195	6	159	160	165
196	4	4	3	5
197	4	36	35	37
198	6	81	80	89
199	4	58	59	60
200	6	159	160	161
201	6	178	179	180
202	1	104	145	143
203	6	64	89	90
204	6	15	39	42
205	4	73	72	74
206	1	103	102	147
207	6	178	183	186
208	4	92	94	95
209	5	21	22	23
210	6	109	110	139
211	1	22	23	24
212	6	80	85	86
213	1	72	74	77
214	4	11	10	12
215	6	135	110	139
216	7	44	43	45
217	1	29	56	57
218	4	147	149	150
219	4	119	121	122
220	1	74	75	76
221	7	86	85	87
222	1	64	69	79
223	1	26	28	31
224	5	171	173	174
225	4	144	143	145
226	7	162	161	164
227	4	105	107	108
228	1	168	170	171
229	2	2	1	96
230	6	15	43	44
231	7	83	81	84
232	6	160	187	178
233	1	3	5	7
234	3	123	124	125
235	6	111	110	139
236	7	180	179	181
237	4	3	5	6
238	1	111	133	131
239	4	28	31	32
240	4	104	105	106
241	1	5	7	51
242	7	66	65	67
243	4	99	98	100
244	1	10	9	49
245	1	1	2	3
246	1	19	21	22
247	1	117	116	131
248	6	178	187	189
249	6	69	64	89
250	4	78	77	79
251	4	17	19	20
252	7	44	43	46
253	1	75	152	153
254	6	64	89	91
255	1	102	147	149
256	6	178	183	184
257	4	190	192	193
258	1	15	14	47
259	1	17	16	37
260	7	41	39	42
261	1	154	155	157
262	6	79	80	89
263	4	70	72	73
264	7	137	135	138
265	1	69	79	77
266	4	169	168	170
267	4	155	157	158
268	6	111	110	135
269	6	15	39	41
270	6	178	183	185
271	4	74	77	78
272	4	165	166	167
273	6	161	160	187
274	7	90	89	91
275	6	161	160	165
276	4	62	61	63
277	6	80	89	90
278	4	112	114	115
279	4	20	19	21
280	6	178	179	182
281	3	2	1	55
282	1	12	14	47
283	6	110	139	140
284	3	125	124	126
285	7	141	139	142
286	4	58	94	95
287	1	98	97	149
288	1	104	105	107
289	4	71	70	72
290	4	93	92	94
291	4	13	12	14
292	4	108	107	109
293	4	14	47	48
294	4	115	114	116
295	7	66	65	68
296	1	171	170	175
297	7	185	183	186
298	1	98	100	102
299	1	107	109	143
300	7	82	81	83
301	6	179	178	187
302	1	110	109	143
303	6	110	135	138
304	1	75	74	77
305	1	16	37	35
306	4	132	131	133
307	6	110	135	137
308	1	8	7	51
309	1	118	119	121
310	1	105	107	109
311	4	97	98	99
312	6	64	89	80
313	4	116	131	132
314	1	23	33	31
315	6	177	178	183
316	6	178	187	188
317	6	177	178	187
318	4	127	129	130
319	4	166	168	169
320	1	64	63	92
321	6	177	178	179
322	1	97	149	147
323	1	9	10	12
324	1	8	9	49
325	5	7	8	9
326	6	160	161	163
327	1	154	192	190
328	4	48	47	49
329	4	123	127	128
330	1	114	116	117
331	6	15	39	40
332	1	100	102	103
333	1	152	154	155
334	4	59	61	62
335	1	61	63	92
336	7	140	139	141
337	6	15	43	45
338	4	47	49	50
339	1	17	19	21
340	6	64	65	67
341	4	158	157	159
342	1	26	28	29
343	6	81	80	85
344	6	183	178	187
345	6	14	15	16
346	6	109	110	111
347	1	75	152	154
348	7	87	85	88
349	4	131	133	134
350	1	112	111	133
351	1	97	98	100
352	4	111	112	113
353	4	35	37	38

Dihedrals

1	14	181	179	178	183
2	1	22	23	24	26
3	1	59	61	63	64
4	1	115	114	116	117
5	1	19	17	16	37
6	1	112	114	116	131
7	1	107	105	104	145
8	1	101	100	102	103
9	6	64	89	80	79
10	1	154	192	190	191
11	5	65	64	63	92
12	14	83	81	80	85
13	1	23	24	26	27
14	1	64	69	79	77
15	1	2	3	5	7
16	1	157	155	154	192
17	1	119	118	129	127
18	5	161	160	165	166
19	11	75	152	154	192
20	1	168	170	175	176
21	1	17	19	21	22
22	6	177	178	183	184
23	2	30	29	28	31
24	1	119	118	129	130
25	14	137	135	110	139
26	1	156	155	157	159
27	1	60	59	61	62
28	6	79	80	81	83
29	1	25	24	23	33
30	1	110	111	133	131
31	15	160	187	178	179
31	16	160	187	178	179
31	17	160	187	178	179
32	6	159	160	161	163
33	14	81	80	89	90
34	1	5	3	2	53
35	1	64	69	70	72
36	5	12	14	15	43
37	1	22	23	24	25
38	6	177	178	183	185
39	4	5	7	8	9
40	1	106	105	104	145
41	6	165	160	187	178
42	1	74	77	79	80
43	1	32	31	33	34
44	14	86	85	80	89
45	1	61	63	92	93
46	6	69	64	89	90
47	2	121	123	124	125
48	14	182	179	178	187
49	1	22	21	35	37
50	1	132	131	133	134
51	2	3	2	1	96
52	1	99	98	100	101
53	1	117	118	119	120
54	1	109	143	145	146
55	6	109	110	135	138
56	1	48	47	49	50
57	1	98	97	149	147
58	1	120	119	121	122
59	6	109	110	135	137
60	6	109	110	139	141
61	1	70	72	74	77
62	1	64	63	92	93
63	14	183	178	187	188
64	14	82	81	80	85
65	1	152	154	155	157
66	12	30	29	56	57
66	13	30	29	56	57
67	1	23	33	31	28
68	1	24	26	28	31
69	6	111	110	139	141
70	1	64	69	79	80
71	6	67	65	64	69
72	1	72	74	77	79
73	1	112	111	133	134
74	6	68	65	64	69
75	11	76	75	152	154
76	1	16	37	35	21
77	2	31	28	29	56
78	14	135	110	139	141
79	1	110	109	143	145
80	1	9	10	12	13
81	1	61	63	92	94
82	1	104	145	143	144
83	6	79	80	85	86
84	14	84	81	80	89
85	1	3	5	7	8
86	1	118	119	121	122
87	1	171	170	175	177
88	1	176	175	177	178
89	11	76	75	152	153
90	1	103	102	147	148
91	11	57	56	58	94
92	2	98	97	96	151
93	6	109	110	139	140
94	1	5	7	51	53
95	6	177	178	179	180
96	6	63	64	65	66
97	5	77	79	80	89
98	1	96	97	98	99
99	5	177	165	160	187
100	5	61	63	64	65
101	1	4	3	5	6
102	14	179	178	187	189
103	1	64	63	92	94
104	1	119	121	123	124
105	1	104	145	143	109
106	6	177	178	183	186
107	1	60	59	61	63
108	1	58	94	92	63
109	1	60	59	58	94
110	1	11	10	9	49
111	1	124	123	127	129
112	6	111	110	139	140
113	1	23	33	31	32
114	1	22	21	35	36
115	1	107	109	143	144
116	1	96	97	149	147
117	1	11	10	12	14
118	1	160	165	166	168
119	5	161	160	165	177
120	1	19	21	35	37
121	14	135	110	139	140
122	5	61	63	64	69
123	1	113	112	114	115
124	1	13	12	14	47
125	5	107	109	110	135
126	5	63	64	69	70
127	2	1	96	97	98
128	14	83	81	80	89
129	6	69	64	89	91
130	11	173	171	170	175
131	11	57	56	58	59
132	14	180	179	178	187
133	6	14	15	39	41
134	1	16	37	35	36
135	1	71	70	69	79
136	6	164	161	160	165
137	1	165	177	175	176
138	5	175	177	178	187
139	11	77	74	75	152
140	1	26	28	31	32
141	5	69	79	80	89
142	5	70	69	64	89
143	1	155	157	159	190
144	1	70	69	79	77
145	1	58	59	61	62
146	4	21	22	23	33
147	5	175	177	178	179
148	1	62	61	63	92
149	1	17	16	37	35
150	1	15	14	47	48
151	1	27	26	28	29
152	1	18	17	19	21
153	5	16	15	14	47
154	2	149	97	96	151
155	6	159	160	161	162
156	1	98	97	149	150
157	5	39	15	14	47
158	1	61	59	58	94
159	6	63	64	89	90
160	1	7	51	53	54
161	5	63	64	69	79
162	9	30	29	56	58
162	10	30	29	56	58
163	1	100	98	97	149
164	6	79	80	81	82
165	1	156	155	157	158
166	1	25	24	26	28
167	1	97	98	100	101
168	1	75	74	77	78
169	5	159	160	165	166
170	1	59	58	94	95
171	14	85	80	89	91
172	1	63	92	94	95
173	1	155	157	159	160
174	1	15	16	37	35
175	6	79	80	85	87
176	1	5	7	51	52
177	1	152	154	192	190
178	11	153	152	154	155
179	1	122	121	123	127
180	1	159	190	192	193
181	14	181	179	178	187
182	1	121	123	127	128
183	6	159	160	187	189
184	5	79	69	64	89
185	1	105	104	145	146
186	6	177	178	187	189
187	14	184	183	178	187
188	1	8	9	10	11
189	1	118	119	121	123
190	14	186	183	178	187
191	1	16	17	19	20
192	11	76	75	74	77
193	1	114	116	131	132
194	1	160	159	190	192
195	14	65	64	89	90
196	5	37	16	15	39
197	1	19	21	35	36
198	1	2	3	5	6
199	1	1	2	3	5
200	1	122	121	123	124
201	1	71	70	72	74
202	14	82	81	80	89
203	11	168	170	171	173
204	1	52	51	53	54
205	5	65	64	69	70
206	14	81	80	85	88
207	14	161	160	187	189
208	1	13	12	14	15
209	1	110	111	112	113
210	1	20	19	21	22
211	1	100	102	147	149
212	9	28	29	56	58
212	10	28	29	56	58
213	1	12	14	47	48
214	1	155	154	192	190
215	6	14	15	39	42
216	1	103	104	145	146
217	1	29	28	31	33
218	1	97	149	147	148
219	14	179	178	187	188
220	5	165	177	178	183
221	1	160	165	177	175
222	1	8	9	49	50
223	6	69	64	89	80
224	1	3	5	7	51
225	6	14	15	43	44
226	6	14	15	43	45
227	1	56	58	94	95
228	14	66	65	64	89
229	5	65	64	69	79
230	1	93	92	94	95
231	1	166	168	170	175
232	1	157	159	190	192
233	5	69	64	63	92
234	1	8	7	51	53
235	4	7	8	9	10
236	1	9	10	12	14
237	14	88	85	80	89
238	5	133	111	110	135
239	6	177	178	179	182
240	15	161	160	187	178
240	16	161	160	187	178
240	17	161	160	187	178
241	1	106	105	107	109
242	1	111	112	114	116
243	6	14	15	39	40
244	1	110	111	133	134
245	5	107	109	110	139
246	1	113	112	111	133
247	1	110	109	143	144
248	11	153	152	154	192
249	1	22	23	33	31
250	6	63	64	89	91
251	1	152	154	192	193
252	1	9	49	47	48
253	4	102	103	104	105
254	1	165	166	168	169
255	1	97	98	100	102
256	2	1	96	97	149
257	6	16	15	43	44
258	2	53	2	1	55
259	1	167	166	168	169
260	1	104	105	107	108
261	6	16	15	43	45
262	6	111	110	135	136
263	1	69	70	72	73
264	1	117	116	131	132
265	1	119	121	123	127
266	1	62	61	63	64
267	4	102	103	104	145
268	1	36	35	37	38
269	1	1	2	53	54
270	1	115	114	116	131
271	1	3	2	53	54
272	1	24	23	33	31
273	1	12	10	9	49
274	5	159	160	165	177
275	1	24	26	28	29
276	5	187	160	159	190
277	6	159	160	187	188
278	3	2	1	96	151
279	6	16	15	39	42
280	1	4	3	2	53
281	1	118	129	127	128
282	1	114	112	111	133
283	1	155	154	192	193
284	14	39	15	43	44
285	1	110	111	112	114
286	1	160	165	177	178
287	6	177	178	187	188
288	7	28	29	56	57
288	8	28	29	56	57
289	1	15	16	17	18
290	1	10	12	14	47
291	14	39	15	43	45
292	1	98	100	102	147
293	14	81	80	89	91
294	1	15	14	47	49
295	1	99	98	97	149
296	1	158	157	159	190
297	3	2	1	96	97
298	1	117	118	119	121
299	14	163	161	160	187
300	1	72	74	77	78
301	5	166	165	160	187
302	6	163	161	160	165
303	14	161	160	187	188
304	1	8	7	51	52
305	1	24	23	33	34
306	4	21	22	23	24
307	1	73	72	74	77
308	14	81	80	85	87
309	1	69	70	72	74
310	1	28	31	33	34
311	1	108	107	109	110
312	19	172	171	173	174
312	20	172	171	173	174
313	6	159	160	161	164
314	1	15	16	37	38
315	1	111	133	131	116
316	5	165	160	159	190
317	1	166	168	170	171
318	1	100	102	147	148
319	14	164	161	160	187
320	1	99	98	100	102
321	1	158	157	159	160
322	1	171	170	175	176
323	1	75	74	77	79
324	1	71	70	72	73
325	1	116	131	133	134
326	6	16	15	43	46
327	1	101	100	102	147
328	1	120	119	121	123
329	1	26	24	23	33
330	1	59	58	94	92
331	1	64	69	70	71
332	6	63	64	89	80
333	14	87	85	80	89
334	1	26	28	31	33
335	6	111	110	139	142
336	5	112	111	110	135
337	14	41	39	15	43
338	2	53	2	1	96
339	1	128	127	129	130
340	14	135	110	139	142
341	1	170	175	177	178
342	1	156	155	154	192
343	1	168	170	175	177
344	1	17	19	21	35
345	1	12	14	47	49
346	1	2	53	51	52
347	1	21	35	37	38
348	6	109	110	135	136
349	1	169	168	170	175
350	5	109	110	111	112
351	14	67	65	64	89
352	1	154	155	157	159
353	5	157	159	160	187
354	5	133	111	110	139
355	5	157	159	160	165
356	2	121	123	124	126
357	5	69	79	80	81
358	15	65	64	89	80
358	16	65	64	89	80
358	17	65	64	89	80
359	1	70	72	74	75
360	11	74	75	152	154
361	5	157	159	160	161
362	1	118	129	127	123
363	1	10	12	14	15
364	4	100	102	103	104
365	6	63	64	65	67
366	1	160	165	166	167
367	1	96	97	98	100
368	1	8	9	49	47
369	1	103	102	147	149
370	1	58	94	92	93
371	5	12	14	15	39
372	1	165	177	175	170
373	1	15	16	17	19
374	4	118	117	116	131
375	14	138	135	110	139
376	4	116	117	118	119
377	11	74	75	152	153
378	6	165	160	187	189
379	6	79	80	81	84
380	14	185	183	178	187
381	1	117	116	131	133
382	1	18	17	19	20
383	1	104	105	107	109
384	1	56	58	94	92
385	6	16	15	39	41
386	15	160	187	178	183
386	16	160	187	178	183
386	17	160	187	178	183
387	5	165	177	178	187
388	1	70	69	79	80
389	1	1	2	3	4
390	1	96	97	149	150
391	6	159	160	187	178
392	1	167	166	165	177
393	5	61	63	64	89
394	1	18	17	16	37
395	5	69	79	80	85
396	5	165	177	178	179
397	1	123	127	129	130
398	3	55	1	96	151
399	1	29	28	31	32
400	1	10	9	49	47
401	14	81	80	85	86
402	2	26	28	29	30
403	1	6	5	7	8
404	1	111	112	114	115
405	4	104	103	102	147
406	6	79	80	89	90
407	5	37	16	15	43
408	1	58	59	61	63
409	1	105	107	109	110
410	1	112	111	133	131
411	1	69	79	77	78
412	3	55	1	96	97
413	6	160	187	178	177
414	18	170	171	173	174
415	5	14	15	16	37
416	11	72	74	75	76
417	14	179	178	183	186
418	1	103	104	105	107
419	1	23	24	26	28
420	14	182	179	178	183
421	1	144	143	145	146
422	1	117	118	129	127
423	1	10	9	49	50
424	1	166	165	177	175
425	1	121	119	118	129
426	4	114	116	117	118
427	15	64	89	80	81
427	16	64	89	80	81
427	17	64	89	80	81
428	1	73	72	74	75
429	11	172	171	170	175
430	5	89	64	63	92
431	5	139	110	109	143
432	1	117	118	129	130
433	1	169	168	170	171
434	1	1	2	53	51
435	1	59	61	63	92
436	4	9	8	7	51
437	1	3	2	53	51
438	6	79	80	85	88
439	1	105	107	109	143
440	1	154	192	190	159
441	1	14	47	49	50
442	1	56	58	59	61
443	1	160	159	190	191
444	14	65	64	89	91
445	1	105	104	145	143
446	5	112	111	110	139
447	11	29	56	58	94
448	6	63	64	65	68
449	1	111	133	131	132
450	1	56	58	59	60
451	1	148	147	149	150
452	11	168	170	171	172
453	14	85	80	89	90
454	1	112	114	116	117
455	1	22	23	33	34
456	4	19	21	22	23
457	2	26	28	29	56
458	6	14	15	43	46
459	1	9	49	47	14
460	1	168	166	165	177
461	15	64	89	80	85
461	16	64	89	80	85
461	17	64	89	80	85
462	1	102	147	149	150
463	1	17	16	37	38
464	5	107	109	110	111
465	1	78	77	79	80
466	1	103	104	145	143
467	1	4	3	5	7
468	1	25	24	26	27
469	2	125	124	123	127
470	5	14	15	16	17
471	1	114	116	131	133
472	14	136	135	110	139
473	4	116	117	118	129
474	6	165	160	187	188
475	14	40	39	15	43
476	5	109	110	111	133
477	5	77	79	80	81
478	1	124	123	127	128
479	14	162	161	160	187
480	1	152	154	155	156
481	1	106	105	107	108
482	6	16	15	39	40
483	11	29	56	58	59
484	11	75	152	154	155
485	1	157	159	190	191
486	5	17	16	15	39
487	6	109	110	139	142
488	6	79	80	89	91
489	6	162	161	160	165
490	1	154	155	157	158
491	1	120	119	118	129
492	11	72	74	75	152
493	14	179	178	183	184
494	1	166	165	177	178
495	6	177	178	179	181
496	1	97	149	147	102
497	4	23	22	21	35
498	6	66	65	64	69
499	1	27	26	28	31
500	1	16	17	19	21
501	1	103	104	105	106
502	1	107	109	143	145
503	1	108	107	109	143
504	1	69	79	77	74
505	14	180	179	178	183
506	5	12	14	15	16
507	14	183	178	187	189
508	14	84	81	80	85
509	1	113	112	114	116
510	5	175	177	178	183
511	2	3	2	1	55
512	1	72	70	69	79
513	5	111	110	109	143
514	6	111	110	135	138
515	1	2	53	51	7
516	1	11	10	12	13
517	6	111	110	135	137
518	14	179	178	183	185
519	2	126	124	123	127
520	1	98	100	102	103
521	1	191	190	192	193
522	5	77	79	80	85
523	5	135	110	109	143
524	1	121	123	127	129
525	1	6	5	7	51
526	4	7	8	9	49
527	14	39	15	43	46
528	5	43	15	14	47
529	14	68	65	64	89
530	1	20	19	21	35
531	1	165	166	168	170
532	5	17	16	15	43
533	14	42	39	15	43