Title

184 atoms
183 bonds
348 angles
628 dihedrals
30 impropers

12 atom types
17 bond types
10 angle types
42 dihedral types
3 improper types
-15.87800026 84.12199974 xlo xhi
-7.039999962 92.96000004 ylo yhi
-2.174000025 97.82599998 zlo zhi
0.0 0.0 0.0 xy xz yz

Masses

1	12.01078
2	15.99943
3	14.00672
4	12.01078
5	1.007947
6	1.007947
7	1.007947
8	1.007947
9	15.99943
10	12.01078
11	15.99943
12	1.007947


Pair Coeffs

1	0.086879315	3.4806469
2	0.2102061	3.0398122
3	0.16769152	3.206876
4	0.10884061	3.3795318
5	0.014090815	1.1034277
6	0.015779483	2.6445434
7	0.016409246	2.5832257
8	0.015611343	2.5725815
9	0.16846514	3.0251065
10	0.21	3.3996695
11	0.20947353	2.99716
12	1.2326e-05	0.53453923

Bond Coeffs

1 harmonic	582.698766451	1.225198386222
2 harmonic	492.76746816345	1.381897776683
3 harmonic	279.1350963404	1.454628925034
4 harmonic	352.0565580496	1.450098586273
5 harmonic	505.144496193	1.019481865027
6 harmonic	264.62148576755	1.52190126495
7 harmonic	370.04670688625	1.093899492634
8 harmonic	289.73813263395	1.498646816465
9 harmonic	399.1592953295	1.371688562017
10 harmonic	397.2545789619	1.085358495916
11 harmonic	301.15400723785	1.345741232799
12 harmonic	366.7408841747	1.425895053732
13 harmonic	300.03137914615	1.451203938761
14 harmonic	366.34047229585	1.464762957261
15 harmonic	602.81384337	1.196112346392
16 harmonic	329.96998057905	1.427343958716
17 harmonic	543.5267831885	0.9716763312559


Angle Coeffs

1 harmonic	55.42182150775	117.3465570514
2 harmonic	63.44422595415	115.5071327674
3 harmonic	57.8982893754	126.8062420451
4 harmonic	53.20531626545	116.5475862634
5 harmonic	34.066775159195	129.1835929926
6 harmonic	65.09061609600001	110.3538806181
7 harmonic	201.41175231035	127.4691416191
8 harmonic	48.776492647595	115.6030999533
9 harmonic	55.07882548015	112.8714009681
10 harmonic	33.56981613361	180


Dihedral Coeffs

1 fourier 1	-0.1488678166443	4	180
2 fourier 1	-0.1230328948768	3	180
3 fourier 1	0.2939295466901	2	0
4 fourier 1	-0.3024127022865	1	0
5 fourier 1	0.182238503271	2	0
6 fourier 1	0.02972342374561	3	0
7 fourier 1	1.809047390003	2	180
8 fourier 1	-0.04816277792592	1	0
9 fourier 1	3.101948770557	2	180
10 fourier 1	-0.4252153282372	1	0
11 fourier 1	2.348375642009	2	180
12 fourier 1	1.256156174911	1	0
13 fourier 1	0.9974165607242	2	180
14 fourier 1	0.1155372516788	3	0
15 fourier 1	0.09223874044423	3	0
16 fourier 1	0.3159935921949	2	180
17 fourier 1	0.3247796806857	1	180
18 fourier 1	0.1040663847541	3	0
19 fourier 1	-0.3703352413219	2	0
20 fourier 1	0.02664938770063	3	0
21 fourier 1	5.082239018622	2	180
22 fourier 1	1.654695451548	1	180
23 fourier 1	5.294842998052	2	180
24 fourier 1	0.2962286176719	3	180
25 fourier 1	0.007435022645929	1	0
26 fourier 1	2.779853741805	2	180
27 fourier 1	0.1918272375143	3	0
28 fourier 1	0.9202179876409	1	180
29 fourier 1	0.0473758381877	3	0
30 fourier 1	0.4860993122944	2	180
31 fourier 1	0.8916986138746	1	0
32 fourier 1	1.163809172478	2	180
33 fourier 1	0.1679186987369	1	180
34 fourier 1	0.1911926717192	3	0
35 fourier 1	0.1115525666802	3	0
36 fourier 1	0.3432490222662	1	0
37 fourier 1	0.457973137376	1	0
38 fourier 1	-1.382973039546	1	0
39 fourier 1	0	1	0
40 fourier 1	0.3445382149273	3	0
41 fourier 1	0.1364556373303	1	0
42 fourier 1	0.3026390167484	3	0


Improper Coeffs

1 0.3333333333333333	-1	2
2 0.3666666666666667	-1	2
3 3.5	-1	2


Atoms

1	1	1	0.537108	-7.2150002	2.529	2.0650001
2	1	2	-0.716829	-7.6069999	3.3280001	1.173
3	1	3	-0.52802801	-5.822	2.26	2.2509999
4	1	4	0.027616	-4.7789998	2.872	1.428
5	1	4	-0.148507	-4.7389998	2.256	0.02
6	1	4	-0.14376201	-4.5430002	0.72899997	0.0089999996
7	1	4	-0.14335699	-3.152	0.30700001	0.51300001
8	1	4	-0.142012	-2.9289999	-1.212	0.426
9	1	4	-0.13490701	-2.618	-1.681	-1.005
10	1	4	-0.13290501	-2.4000001	-3.2030001	-1.1
11	1	4	-0.089469999	-1.127	-3.7090001	-0.40200001
12	1	1	-0.079567	0.119	-3.1359999	-1.02
13	1	1	-0.081722997	0.77499998	-2.112	-0.454
14	1	4	-0.117768	2.0190001	-1.529	-1.0700001
15	1	4	0.079471	3.2620001	-1.862	-0.222
16	1	3	-0.481677	3.414	-3.319	-0.126
17	1	1	0.7859	3.0810001	-4.0679998	1.049
18	1	2	-0.64092499	2.6819999	-3.493	2.096
19	1	5	0.32168999	3.6760001	-3.855	-0.98400003
20	1	4	-0.151361	4.5560002	-1.271	-0.82599998
21	1	4	-0.139588	4.585	0.264	-0.95300001
22	1	4	-0.143051	4.4060001	0.98500001	0.39399999
23	1	4	-0.14697701	4.73	2.4849999	0.30899999
24	1	4	-0.140974	3.697	3.2639999	-0.51800001
25	1	4	-0.128326	3.9749999	4.7639999	-0.472
26	1	6	0.045357	4.9850001	4.9809999	-0.88
27	1	6	0.045357	3.221	5.3000002	-1.086
28	1	6	0.045357	3.9119999	5.1360002	0.57300001
29	1	6	0.069684997	3.73	2.934	-1.5779999
30	1	6	0.069684997	2.6760001	3.076	-0.12
31	1	6	0.080179997	5.7459998	2.628	-0.121
32	1	6	0.080179997	4.743	2.892	1.344
33	1	6	0.079319	3.365	0.86000001	0.75999999
34	1	6	0.079319	5.0890002	0.52700001	1.143
35	1	6	0.079549	5.5710001	0.54500002	-1.3839999
36	1	6	0.079549	3.813	0.597	-1.676
37	1	6	0.085684001	5.4169998	-1.587	-0.197
38	1	6	0.085684001	4.7179999	-1.705	-1.837
39	1	7	0.046046	3.125	-1.4349999	0.79400003
40	1	6	0.090852998	2.161	-1.895	-2.1110001
41	1	6	0.090852998	1.8710001	-0.43099999	-1.114
42	1	8	0.129729	0.43200001	-1.704	0.49200001
43	1	8	0.129264	0.45699999	-3.543	-1.969
44	1	6	0.076591998	-1.085	-4.8140001	-0.514
45	1	6	0.076591998	-1.166	-3.5079999	0.69
46	1	6	0.078984	-3.28	-3.7249999	-0.66500002
47	1	6	0.078984	-2.3529999	-3.487	-2.174
48	1	6	0.077448003	-1.729	-1.142	-1.399
49	1	6	0.077448003	-3.4719999	-1.429	-1.6670001
50	1	6	0.079319	-3.819	-1.75	0.81999999
51	1	6	0.079319	-2.0699999	-1.457	1.084
52	1	6	0.079319	-3.0539999	0.59799999	1.58
53	1	6	0.079319	-2.359	0.83899999	-0.056000002
54	1	6	0.080058001	-5.3319998	0.23999999	0.62
55	1	6	0.080058001	-4.677	0.38699999	-1.038
56	1	6	0.08106	-5.6900001	2.4920001	-0.50300002
57	1	6	0.08106	-3.9230001	2.737	-0.56099999
58	1	7	0.043657999	-4.9619999	3.9649999	1.348
59	1	7	0.043657999	-3.793	2.747	1.923
60	1	5	0.31286401	-5.5380001	1.642	3.0439999
61	1	9	-0.50395399	3.168	-5.1020002	1.038
62	1	4	0.111112	4.1350002	-5.434	1.997
63	1	4	-0.141315	3.5420001	-5.3309999	3.405
64	1	4	-0.142278	4.5799999	-5.7119999	4.4699998
65	1	4	-0.143442	3.9860001	-5.7480001	5.8870001
66	1	4	-0.142112	3.632	-4.3470001	6.415
67	1	4	-0.142112	3.267	-4.3499999	7.9099998
68	1	4	-0.14339299	2.0469999	-5.217	8.2819996
69	1	4	-0.141011	0.75300002	-4.8829999	7.5190001
70	1	4	-0.14731801	0.27399999	-3.4430001	7.7620001
71	1	4	0.032669999	-1.1109999	-3.1919999	7.1570001
72	1	9	-0.181063	-1.057	-3.25	5.756
73	1	7	0.077118002	-1.854	-3.9170001	7.5630002
74	1	7	0.077118002	-1.446	-2.175	7.4499998
75	1	6	0.085819997	0.991	-2.72	7.3179998
76	1	6	0.085819997	0.219	-3.253	8.8559999
77	1	6	0.081205003	-0.034000002	-5.5869999	7.8660002
78	1	6	0.081205003	0.89399999	-5.0640001	6.4330001
79	1	6	0.079319	2.293	-6.2880001	8.1160002
80	1	6	0.079319	1.858	-5.1059999	9.3719997
81	1	6	0.079319	3.0869999	-3.303	8.2360001
82	1	6	0.079319	4.1430001	-4.7119999	8.4919996
83	1	6	0.079319	4.5120001	-3.6800001	6.2839999
84	1	6	0.079319	2.8010001	-3.908	5.8280001
85	1	6	0.079319	4.737	-6.21	6.5640001
86	1	6	0.079319	3.0840001	-6.3979998	5.888
87	1	6	0.081032999	5.4349999	-5.0009999	4.4380002
88	1	6	0.081032999	4.9770002	-6.7249999	4.2399998
89	1	6	0.084821999	3.198	-4.2880001	3.569
90	1	6	0.084821999	2.6630001	-6.0089998	3.4779999
91	1	7	0.077344	4.4689999	-6.4770002	1.811
92	1	7	0.077344	5.02	-4.7649999	1.9
93	1	1	0.543365	-7.9439998	2.0450001	2.7019999
94	1	2	-0.71608198	-8.9499998	2.694	3.0910001
95	1	3	-0.53911799	-7.7490001	0.68000001	3.086
96	1	4	0.086254001	-8.6750002	-0.055	3.9549999
97	1	4	-0.118625	-7.9359999	-0.454	5.2449999
98	1	1	-0.081722997	-8.8839998	-0.99299997	6.2820001
99	1	1	-0.079567	-8.9219999	-2.2969999	6.5939999
100	1	4	-0.089469999	-9.9110003	-2.8369999	7.5890002
101	1	4	-0.13290501	-11.336	-2.809	7.0149999
102	1	4	-0.13490701	-12.36	-3.4890001	7.9359999
103	1	4	-0.142012	-12.614	-2.6949999	9.2259998
104	1	4	-0.14317399	-13.775	-3.306	10.026
105	1	4	-0.139368	-13.95	-2.6570001	11.408
106	1	4	-0.124822	-14.482	-1.217	11.324
107	1	4	0.18111201	-14.747	-0.62699997	12.712
108	1	3	-0.681494	-15.878	-1.298	13.345
109	1	10	0.59103101	-15.766	-1.892	14.464
110	1	2	-0.51414102	-15.658	-2.471	15.553
111	1	7	0.023854	-13.827	-0.699	13.337
112	1	7	0.023854	-14.994	0.44999999	12.601
113	1	6	0.074740998	-15.421	-1.191	10.729
114	1	6	0.074740998	-13.732	-0.57300001	10.817
115	1	6	0.078791	-14.671	-3.2780001	11.983
116	1	6	0.078791	-12.983	-2.6719999	11.956
117	1	6	0.079319	-14.721	-3.2190001	9.4469995
118	1	6	0.079319	-13.573	-4.3889999	10.18
119	1	6	0.079319	-12.856	-1.643	8.9639997
120	1	6	0.079319	-11.697	-2.7049999	9.8529997
121	1	6	0.077448003	-13.316	-3.5810001	7.3759999
122	1	6	0.077448003	-12.016	-4.5170002	8.1859999
123	1	6	0.078984	-11.65	-1.76	6.8200002
124	1	6	0.078984	-11.339	-3.345	6.0409999
125	1	6	0.076591998	-9.8509998	-2.237	8.5209999
126	1	6	0.076591998	-9.6330004	-3.8859999	7.8309999
127	1	8	0.129264	-8.2220001	-2.9879999	6.132
128	1	8	0.129729	-9.5889997	-0.30700001	6.7420001
129	1	6	0.090852998	-7.4450002	0.447	5.6739998
130	1	6	0.090852998	-7.131	-1.187	5.013
131	1	4	-0.152679	-9.2189999	-1.291	3.21
132	1	4	-0.139588	-10.054	-0.89600003	1.983
133	1	4	-0.143051	-10.608	-2.1359999	1.271
134	1	4	-0.14697701	-11.449	-1.738	0.050000001
135	1	4	-0.140974	-12.097	-2.948	-0.63999999
136	1	4	-0.128326	-11.085	-3.809	-1.395
137	1	6	0.045357	-10.506	-3.1889999	-2.1129999
138	1	6	0.045357	-10.388	-4.3070002	-0.69099998
139	1	6	0.045357	-11.623	-4.5970001	-1.9630001
140	1	6	0.069684997	-12.635	-3.573	0.106
141	1	6	0.069684997	-12.849	-2.576	-1.369
142	1	6	0.080179997	-10.82	-1.181	-0.68000001
143	1	6	0.080179997	-12.263	-1.056	0.382
144	1	6	0.079319	-9.7580004	-2.7739999	0.949
145	1	6	0.079319	-11.24	-2.7160001	1.98
146	1	6	0.079549	-10.898	-0.248	2.309
147	1	6	0.079549	-9.4230003	-0.32100001	1.271
148	1	6	0.085684001	-8.3710003	-1.937	2.891
149	1	6	0.085684001	-9.8640003	-1.883	3.8940001
150	1	7	0.044638	-9.5360003	0.59299999	4.237
151	1	5	0.317433	-6.895	0.192	2.7349999
152	1	9	-0.181063	-1.228	-4.1939998	5.5
153	1	4	0.032669999	-0.31099999	-4.9759998	6.2150002
154	1	4	-0.14731801	-0.75700003	-5.1149998	7.6729999
155	1	4	-0.141011	0.22400001	-5.987	8.4700003
156	1	4	-0.14339299	-0.259	-6.2589998	9.9029999
157	1	4	-0.142112	-0.20900001	-5.0040002	10.791
158	1	4	-0.142112	-0.456	-5.3169999	12.278
159	1	4	-0.14339299	-1.826	-5.9530001	12.591
160	1	4	-0.13692699	-3.0450001	-5.1459999	12.108
161	1	4	-0.16924199	-3.1270001	-3.7509999	12.748
162	1	4	0.085833997	-4.4419999	-3.0439999	12.408
163	1	11	-0.68558401	-4.5040002	-2.7420001	11.04
164	1	12	0.37652901	-4.9260001	-3.5209999	10.592
165	1	7	0.067254998	-5.3140001	-3.6619999	12.726
166	1	7	0.067254998	-4.4889998	-2.0910001	12.977
167	1	6	0.088173002	-2.283	-3.119	12.397
168	1	6	0.088173002	-3.0539999	-3.848	13.853
169	1	6	0.081205003	-3.9579999	-5.7199998	12.379
170	1	6	0.081205003	-3.0309999	-5.0619998	11.001
171	1	6	0.079319	-1.8710001	-6.9689999	12.144
172	1	6	0.079319	-1.903	-6.092	13.691
173	1	6	0.079319	-0.34299999	-4.381	12.864
174	1	6	0.079319	0.33899999	-6.007	12.635
175	1	6	0.079319	0.79900002	-4.5430002	10.707
176	1	6	0.079319	-0.94199997	-4.25	10.441
177	1	6	0.079319	0.398	-7.04	10.345
178	1	6	0.079319	-1.293	-6.665	9.8690004
179	1	6	0.081205003	1.226	-5.5050001	8.4940004
180	1	6	0.081205003	0.33500001	-6.967	7.954
181	1	6	0.085819997	-0.81400001	-4.1020002	8.1239996
182	1	6	0.085819997	-1.771	-5.572	7.698
183	1	7	0.077118002	-0.264	-5.9809999	5.743
184	1	7	0.077118002	0.70599997	-4.5229998	6.1630001

Bonds

1	1	1	2
2	2	1	3
3	3	1	93
4	4	3	4
5	5	3	60
6	6	4	5
7	7	4	58
8	7	4	59
9	6	5	6
10	7	5	56
11	7	5	57
12	6	6	7
13	7	6	54
14	7	6	55
15	6	7	8
16	7	7	52
17	7	7	53
18	6	8	9
19	7	8	50
20	7	8	51
21	6	9	10
22	7	9	48
23	7	9	49
24	6	10	11
25	7	10	46
26	7	10	47
27	8	11	12
28	7	11	44
29	7	11	45
30	9	12	13
31	10	12	43
32	8	13	14
33	10	13	42
34	6	14	15
35	7	14	40
36	7	14	41
37	4	15	16
38	6	15	20
39	7	15	39
40	2	16	17
41	5	16	19
42	1	17	18
43	11	17	61
44	6	20	21
45	7	20	37
46	7	20	38
47	6	21	22
48	7	21	35
49	7	21	36
50	6	22	23
51	7	22	33
52	7	22	34
53	6	23	24
54	7	23	31
55	7	23	32
56	6	24	25
57	7	24	29
58	7	24	30
59	7	25	26
60	7	25	27
61	7	25	28
62	12	61	62
63	6	62	63
64	7	62	91
65	7	62	92
66	6	63	64
67	7	63	89
68	7	63	90
69	6	64	65
70	7	64	87
71	7	64	88
72	6	65	66
73	7	65	85
74	7	65	86
75	6	66	67
76	7	66	83
77	7	66	84
78	6	67	68
79	7	67	81
80	7	67	82
81	6	68	69
82	7	68	79
83	7	68	80
84	6	69	70
85	7	69	77
86	7	69	78
87	6	70	71
88	7	70	75
89	7	70	76
90	12	71	72
91	7	71	73
92	7	71	74
93	13	72	152
94	1	93	94
95	2	93	95
96	4	95	96
97	5	95	151
98	6	96	97
99	6	96	131
100	7	96	150
101	8	97	98
102	7	97	129
103	7	97	130
104	9	98	99
105	10	98	128
106	8	99	100
107	10	99	127
108	6	100	101
109	7	100	125
110	7	100	126
111	6	101	102
112	7	101	123
113	7	101	124
114	6	102	103
115	7	102	121
116	7	102	122
117	6	103	104
118	7	103	119
119	7	103	120
120	6	104	105
121	7	104	117
122	7	104	118
123	6	105	106
124	7	105	115
125	7	105	116
126	6	106	107
127	7	106	113
128	7	106	114
129	14	107	108
130	7	107	111
131	7	107	112
132	15	108	109
133	1	109	110
134	6	131	132
135	7	131	148
136	7	131	149
137	6	132	133
138	7	132	146
139	7	132	147
140	6	133	134
141	7	133	144
142	7	133	145
143	6	134	135
144	7	134	142
145	7	134	143
146	6	135	136
147	7	135	140
148	7	135	141
149	7	136	137
150	7	136	138
151	7	136	139
152	12	152	153
153	6	153	154
154	7	153	183
155	7	153	184
156	6	154	155
157	7	154	181
158	7	154	182
159	6	155	156
160	7	155	179
161	7	155	180
162	6	156	157
163	7	156	177
164	7	156	178
165	6	157	158
166	7	157	175
167	7	157	176
168	6	158	159
169	7	158	173
170	7	158	174
171	6	159	160
172	7	159	171
173	7	159	172
174	6	160	161
175	7	160	169
176	7	160	170
177	6	161	162
178	7	161	167
179	7	161	168
180	16	162	163
181	7	162	165
182	7	162	166
183	17	163	164

Angles

1	8	31	23	32
2	5	13	12	43
3	2	15	16	19
4	4	105	106	114
5	4	97	96	150
6	4	24	25	27
7	4	132	131	149
8	4	156	157	158
9	4	101	102	122
10	4	159	160	161
11	4	4	5	57
12	4	5	6	54
13	4	16	15	39
14	4	106	107	112
15	4	10	11	45
16	4	63	64	65
17	4	134	135	141
18	4	15	20	37
19	4	96	131	148
20	2	96	95	151
21	5	99	98	128
22	4	20	21	22
23	4	68	67	82
24	4	105	106	107
25	4	162	161	168
26	4	65	66	67
27	4	105	104	118
28	4	135	136	139
29	4	8	9	48
30	8	169	160	170
31	4	68	69	78
32	4	61	62	91
33	4	22	21	35
34	6	162	163	164
35	4	24	23	31
36	4	101	100	126
37	4	5	6	7
38	4	64	65	86
39	4	106	105	116
40	8	173	158	174
41	4	64	65	66
42	8	75	70	76
43	4	25	24	29
44	4	20	21	35
45	4	158	159	160
46	4	102	101	124
47	8	117	104	118
48	4	156	155	179
49	4	23	24	25
50	4	95	96	131
51	4	161	160	169
52	4	102	103	120
53	4	156	157	175
54	8	73	71	74
55	8	54	6	55
56	3	11	12	13
57	4	14	15	16
58	8	44	11	45
59	8	121	102	122
60	4	157	156	177
61	4	152	153	183
62	4	9	8	51
63	4	157	158	173
64	4	69	70	76
65	4	64	63	90
66	4	67	68	69
67	8	183	153	184
68	4	15	14	40
69	4	105	106	113
70	4	65	66	84
71	4	3	4	59
72	4	70	71	74
73	4	24	25	26
74	4	101	102	121
75	4	12	11	44
76	4	14	15	20
77	4	106	107	111
78	8	138	136	139
79	3	2	1	93
80	4	96	97	129
81	6	72	152	153
82	4	96	97	98
83	4	69	68	80
84	4	104	105	106
85	4	13	14	15
86	4	68	69	77
87	4	70	69	78
88	4	95	96	97
89	4	11	10	47
90	4	3	4	5
91	8	129	97	130
92	4	64	65	85
93	4	6	7	53
94	8	87	64	88
95	4	157	158	159
96	3	1	93	95
97	4	100	101	123
98	4	6	5	56
99	5	11	12	43
100	4	97	96	131
101	4	9	10	47
102	4	68	69	70
103	4	133	132	146
104	4	66	65	85
105	8	29	24	30
106	4	103	104	105
107	4	106	107	108
108	4	61	62	63
109	2	1	3	60
110	4	9	8	50
111	4	158	157	176
112	4	69	70	75
113	4	163	162	166
114	4	160	161	162
115	4	13	14	41
116	4	158	159	172
117	4	107	106	114
118	8	33	22	34
119	4	62	63	89
120	4	65	66	83
121	4	159	158	174
122	4	154	155	180
123	4	3	4	58
124	4	70	71	73
125	3	2	1	3
126	1	93	95	96
127	8	56	5	57
128	4	14	15	39
129	5	100	99	127
130	4	159	160	170
131	4	108	107	112
132	4	103	104	118
133	4	133	134	142
134	4	155	156	178
135	4	67	66	83
136	4	104	105	116
137	4	7	6	54
138	4	21	22	34
139	4	72	71	73
140	4	161	162	163
141	4	132	133	145
142	4	63	62	91
143	4	133	132	147
144	4	63	64	87
145	4	11	10	46
146	4	103	102	122
147	4	6	7	52
148	4	133	134	135
149	4	160	161	168
150	8	125	100	126
151	4	153	154	182
152	4	134	133	145
153	4	104	103	120
154	4	99	100	126
155	4	21	20	38
156	8	177	156	178
157	8	171	159	172
158	4	9	10	46
159	3	97	98	99
160	4	100	101	102
161	4	135	134	143
162	4	8	7	52
163	4	98	97	129
164	8	40	14	41
165	4	10	11	44
166	8	37	20	38
167	8	111	107	112
168	8	77	69	78
169	4	134	135	136
170	4	7	8	9
171	4	107	106	113
172	4	5	4	59
173	9	107	108	109
174	8	115	105	116
175	4	153	154	155
176	4	65	64	88
177	5	98	99	127
178	4	108	107	111
179	4	132	131	148
180	4	4	5	56
181	4	103	104	117
182	4	134	135	140
183	4	104	105	115
184	4	136	135	141
185	4	96	131	132
186	4	21	22	33
187	4	68	67	81
188	6	17	61	62
189	3	3	1	93
190	4	22	23	32
191	4	162	161	167
192	4	105	104	117
193	4	24	25	28
194	4	135	136	138
195	4	5	6	55
196	8	148	131	149
197	3	98	99	100
198	4	101	102	103
199	8	140	135	141
200	4	101	100	125
201	2	4	3	60
202	5	12	13	42
203	4	16	15	20
204	8	89	63	90
205	4	106	105	115
206	4	69	70	71
207	4	15	20	38
208	4	153	154	181
209	4	134	133	144
210	4	102	101	123
211	4	161	162	166
212	8	26	25	28
213	4	131	132	133
214	8	167	161	168
215	4	102	103	119
216	4	61	62	92
217	4	22	21	36
218	8	81	67	82
219	4	154	155	156
220	4	135	134	142
221	8	165	162	166
222	8	48	9	49
223	4	64	63	89
224	2	93	95	151
225	8	79	68	80
226	4	131	132	146
227	1	15	16	17
228	4	156	155	180
229	4	5	4	58
230	4	161	160	170
231	4	65	64	87
232	4	156	157	176
233	2	17	16	19
234	8	91	62	92
235	4	8	9	10
236	4	4	5	6
237	8	27	25	28
238	4	152	153	184
239	4	160	159	172
240	4	157	158	174
241	4	6	7	8
242	4	23	22	34
243	4	136	135	140
244	4	69	68	79
245	4	23	24	30
246	4	15	14	41
247	4	21	22	23
248	4	22	23	31
249	4	132	133	134
250	4	135	136	137
251	4	154	153	184
252	4	70	69	77
253	10	108	109	110
254	8	175	157	176
255	4	96	97	130
256	8	46	10	47
257	4	155	154	182
258	8	146	132	147
259	3	1	93	94
260	4	131	132	147
261	4	161	162	165
262	8	26	25	27
263	8	179	155	180
264	5	97	98	128
265	4	62	63	64
266	4	66	67	82
267	4	22	23	24
268	8	52	7	53
269	8	123	101	124
270	4	12	11	45
271	4	131	96	150
272	8	137	136	139
273	8	119	103	120
274	8	113	106	114
275	4	158	157	175
276	4	163	162	165
277	3	12	13	14
278	4	13	14	40
279	4	158	159	171
280	8	181	154	182
281	4	10	9	49
282	4	15	20	21
283	4	159	158	173
284	4	100	101	124
285	3	16	17	61
286	4	71	70	76
287	4	6	5	57
288	4	154	155	179
289	4	70	71	72
290	4	159	160	169
291	4	66	65	86
292	4	160	159	171
293	4	155	156	177
294	4	67	68	80
295	4	7	8	51
296	4	152	153	154
297	4	155	156	157
298	4	23	22	33
299	4	62	63	90
300	8	144	133	145
301	7	18	17	61
302	4	95	96	150
303	4	23	24	29
304	4	132	133	144
305	4	99	100	101
306	4	102	103	104
307	4	66	67	68
308	4	154	153	183
309	8	142	134	143
310	5	14	13	42
311	3	16	17	18
312	4	133	134	143
313	4	103	102	121
314	4	160	161	167
315	4	155	154	181
316	4	67	66	84
317	4	96	131	149
318	4	7	6	55
319	4	72	71	74
320	4	104	103	119
321	4	99	100	125
322	4	21	20	37
323	4	63	62	92
324	4	66	67	81
325	4	8	9	49
326	8	83	66	84
327	6	71	72	152
328	4	63	64	88
329	4	24	23	32
330	8	137	136	138
331	8	50	8	51
332	3	94	93	95
333	4	10	11	12
334	8	85	65	86
335	8	35	21	36
336	4	25	24	30
337	4	10	9	48
338	4	20	21	36
339	8	58	4	59
340	4	71	70	75
341	4	8	7	53
342	4	98	97	130
343	4	157	156	178
344	4	9	10	11
345	4	67	68	79
346	4	20	15	39
347	4	7	8	50
348	1	1	3	4

Dihedrals

1	18	134	135	136	139
2	24	98	99	100	125
2	25	98	99	100	125
3	34	37	20	15	39
4	14	13	14	15	39
5	18	9	8	7	52
6	15	100	101	102	103
6	16	100	101	102	103
6	17	100	101	102	103
7	18	107	106	105	115
8	14	9	10	11	12
9	34	175	157	156	177
10	34	88	64	63	90
11	11	2	1	3	60
11	12	2	1	3	60
12	18	131	132	133	144
13	34	169	160	159	171
14	18	5	6	7	53
15	15	22	23	24	25
15	16	22	23	24	25
15	17	22	23	24	25
16	34	138	136	135	141
17	34	141	135	134	143
18	18	21	22	23	32
19	18	8	7	6	55
20	34	182	154	153	184
21	34	181	154	153	184
22	18	97	96	131	149
23	9	2	1	3	4
23	10	2	1	3	4
24	34	36	21	20	38
25	34	74	71	70	76
26	34	52	7	6	55
27	14	99	100	101	102
28	14	61	62	63	64
29	34	177	156	155	180
30	7	4	3	1	93
30	8	4	3	1	93
31	30	18	17	16	19
31	31	18	17	16	19
32	34	129	97	96	150
33	18	24	23	22	33
34	14	3	4	5	57
35	23	127	99	98	128
36	24	12	13	14	40
36	25	12	13	14	40
37	18	64	63	62	92
38	14	16	15	14	40
39	14	108	107	106	114
40	34	180	155	154	181
41	18	159	158	157	175
42	34	116	105	104	117
43	34	147	132	131	148
44	29	74	71	72	152
45	34	87	64	63	90
46	34	31	23	22	34
47	5	59	4	3	60
47	6	59	4	3	60
48	34	146	132	131	149
49	15	6	7	8	9
49	16	6	7	8	9
49	17	6	7	8	9
50	34	90	63	62	92
51	18	66	67	68	80
52	18	67	68	69	78
53	40	161	162	163	164
53	41	161	162	163	164
54	15	159	160	161	162
54	16	159	160	161	162
54	17	159	160	161	162
55	18	9	10	11	45
56	34	174	158	157	175
57	34	143	134	133	145
58	18	102	101	100	126
59	18	105	104	103	119
60	34	34	22	21	35
61	34	33	22	21	35
62	14	13	14	15	16
63	34	124	101	100	125
64	34	168	161	160	169
65	18	25	24	23	32
66	34	76	70	69	78
67	18	103	104	105	116
68	34	47	10	9	49
69	34	75	70	69	78
70	34	123	101	100	126
71	18	154	155	156	177
72	34	176	157	156	178
73	15	154	155	156	157
73	16	154	155	156	157
73	17	154	155	156	157
74	34	84	66	65	85
75	34	118	104	103	120
76	18	160	159	158	174
77	34	170	160	159	172
78	35	163	162	161	167
78	36	163	162	161	167
79	18	134	135	136	138
80	34	78	69	68	79
81	42	164	163	162	166
82	29	73	71	72	152
83	14	105	106	107	108
84	18	67	66	65	86
85	23	100	99	98	128
86	18	162	161	160	169
87	34	112	107	106	114
88	34	79	68	67	81
89	5	5	4	3	60
89	6	5	4	3	60
90	18	106	105	104	118
91	5	97	96	95	151
91	6	97	96	95	151
92	18	20	21	22	34
93	18	5	6	7	52
94	18	103	102	101	124
95	34	141	135	134	142
96	18	21	22	23	31
97	34	181	154	153	183
98	18	97	96	131	148
99	18	155	156	157	176
100	18	158	159	160	169
101	34	73	71	70	75
102	34	56	5	4	58
103	34	29	24	23	32
104	18	159	160	161	168
105	18	68	67	66	83
106	18	134	133	132	146
107	7	60	3	1	93
107	8	60	3	1	93
108	34	177	156	155	179
109	34	171	159	158	174
110	18	132	133	134	143
111	34	120	103	102	122
112	18	133	132	131	149
113	34	119	103	102	122
114	15	64	65	66	67
114	16	64	65	66	67
114	17	64	65	66	67
115	15	62	63	64	65
115	16	62	63	64	65
115	17	62	63	64	65
116	14	108	107	106	113
117	34	28	25	24	30
118	5	19	16	15	39
118	6	19	16	15	39
119	15	21	22	23	24
119	16	21	22	23	24
119	17	21	22	23	24
120	18	66	65	64	87
121	34	87	64	63	89
122	14	95	96	131	132
123	34	165	162	161	168
124	34	122	102	101	123
125	34	81	67	66	83
126	14	12	11	10	47
127	18	66	67	68	79
128	1	17	16	15	20
128	2	17	16	15	20
128	3	17	16	15	20
128	4	17	16	15	20
129	34	54	6	5	57
130	34	86	65	64	88
131	34	35	21	20	38
132	19	98	99	100	101
133	34	49	9	8	50
134	19	96	97	98	99
135	18	135	134	133	145
136	18	22	21	20	38
137	18	65	66	67	82
138	18	136	135	134	143
139	18	20	15	14	41
140	18	25	24	23	31
141	34	47	10	9	48
142	34	75	70	69	77
143	15	103	104	105	106
143	16	103	104	105	106
143	17	103	104	105	106
144	34	48	9	8	50
145	34	179	155	154	182
146	34	123	101	100	125
147	18	65	64	63	90
148	34	51	8	7	53
149	18	11	10	9	49
150	34	173	158	157	176
151	34	117	104	103	119
152	18	160	159	158	173
153	18	153	154	155	180
154	18	101	102	103	119
155	18	157	156	155	179
156	34	111	107	106	113
157	42	164	163	162	165
158	18	134	133	132	147
159	18	67	66	65	85
160	13	2	1	93	95
161	18	161	160	159	171
162	34	89	63	62	92
163	18	64	65	66	84
164	34	115	105	104	118
165	18	129	97	96	131
166	7	19	16	17	61
166	8	19	16	17	61
167	34	30	24	23	31
168	34	83	66	65	86
169	18	20	21	22	33
170	18	68	69	70	76
171	18	103	102	101	123
172	18	69	70	71	74
173	23	42	13	12	43
174	18	104	103	102	122
175	18	155	156	157	175
176	15	97	96	131	132
176	16	97	96	131	132
176	17	97	96	131	132
177	18	8	9	10	47
178	20	101	100	99	127
179	35	152	153	154	181
179	36	152	153	154	181
180	34	29	24	23	31
181	34	50	8	7	53
182	18	159	160	161	167
183	18	7	8	9	48
184	18	105	106	107	111
185	15	8	9	10	11
185	16	8	9	10	11
185	17	8	9	10	11
186	20	125	100	99	127
187	18	156	157	158	173
188	34	171	159	158	173
189	34	57	5	4	59
190	18	132	133	134	142
191	27	17	61	62	63
191	28	17	61	62	63
192	18	158	157	156	178
193	34	119	103	102	121
194	15	65	66	67	68
194	16	65	66	67	68
194	17	65	66	67	68
195	34	149	131	96	150
196	34	113	106	105	116
197	14	160	161	162	163
198	34	130	97	96	150
199	34	148	131	96	150
200	35	72	71	70	76
200	36	72	71	70	76
201	34	172	159	158	174
202	18	69	68	67	82
203	14	99	100	101	124
204	34	142	134	133	144
205	38	109	108	107	112
206	34	26	25	24	30
207	15	158	159	160	161
207	16	158	159	160	161
207	17	158	159	160	161
208	18	155	154	153	183
209	20	43	12	11	45
210	15	66	67	68	69
210	16	66	67	68	69
210	17	66	67	68	69
211	18	133	134	135	141
212	34	54	6	5	56
213	20	128	98	97	130
214	18	10	9	8	51
215	29	72	152	153	154
216	18	23	24	25	27
217	34	82	67	66	84
218	18	135	134	133	144
219	18	62	63	64	88
220	15	132	133	134	135
220	16	132	133	134	135
220	17	132	133	134	135
221	18	63	64	65	86
222	18	157	158	159	172
223	34	46	10	9	48
224	5	58	4	3	60
224	6	58	4	3	60
225	14	95	96	97	130
226	15	63	64	65	66
226	16	63	64	65	66
226	17	63	64	65	66
227	15	5	6	7	8
227	16	5	6	7	8
227	17	5	6	7	8
228	34	178	156	155	179
229	18	11	10	9	48
230	35	61	62	63	90
230	36	61	62	63	90
231	18	4	5	6	55
232	5	93	95	96	150
232	6	93	95	96	150
233	18	6	7	8	51
234	15	96	131	132	133
234	16	96	131	132	133
234	17	96	131	132	133
235	18	100	101	102	122
236	13	2	1	93	94
237	34	77	69	68	80
238	14	16	15	20	38
239	15	156	157	158	159
239	16	156	157	158	159
239	17	156	157	158	159
240	18	64	65	66	83
241	34	88	64	63	89
242	18	14	15	20	38
243	34	144	133	132	146
244	1	14	15	16	17
244	2	14	15	16	17
244	3	14	15	16	17
244	4	14	15	16	17
245	18	68	69	70	75
246	19	12	13	14	15
247	15	20	21	22	23
247	16	20	21	22	23
247	17	20	21	22	23
248	34	138	136	135	140
249	18	7	6	5	57
250	18	69	70	71	73
251	18	8	7	6	54
252	34	182	154	153	183
253	34	137	136	135	141
254	34	36	21	20	37
255	34	74	71	70	75
256	18	96	131	132	146
257	34	52	7	6	54
258	13	3	1	93	95
259	34	50	8	7	52
260	18	9	10	11	44
261	7	15	16	17	18
261	8	15	16	17	18
262	20	15	14	13	42
263	34	85	65	64	88
264	34	57	5	4	58
265	14	3	4	5	56
266	18	15	20	21	36
267	18	64	63	62	91
268	32	18	17	61	62
268	33	18	17	61	62
269	18	131	132	133	145
270	34	113	106	105	115
271	34	172	159	158	173
272	18	69	68	67	81
273	34	166	162	161	168
274	34	31	23	22	33
275	38	109	108	107	111
276	34	146	132	131	148
277	34	90	63	62	91
278	34	114	106	105	116
279	15	155	156	157	158
279	16	155	156	157	158
279	17	155	156	157	158
280	29	72	152	153	184
281	15	153	154	155	156
281	16	153	154	155	156
281	17	153	154	155	156
282	20	96	97	98	128
283	18	67	68	69	77
284	18	133	134	135	140
285	20	128	98	97	129
286	18	132	131	96	150
287	18	10	9	8	50
288	34	143	134	133	144
289	18	23	24	25	26
290	18	24	23	22	34
291	18	102	101	100	125
292	34	82	67	66	83
293	34	39	15	14	41
294	18	62	63	64	87
295	38	106	107	108	109
296	24	12	13	14	41
296	25	12	13	14	41
297	34	167	161	160	170
298	34	38	20	15	39
299	34	55	6	5	57
300	34	144	133	132	147
301	14	16	15	14	41
302	18	157	158	159	171
303	18	6	5	4	59
304	34	76	70	69	77
305	14	95	96	97	129
306	18	103	104	105	115
307	18	160	161	162	166
308	18	22	23	24	30
309	34	32	23	22	34
310	34	180	155	154	182
311	18	159	158	157	176
312	34	176	157	156	177
313	34	147	132	131	149
314	18	104	105	106	114
315	14	95	96	131	149
316	18	156	155	154	182
317	35	61	62	63	89
317	36	61	62	63	89
318	34	118	104	103	119
319	18	4	5	6	54
320	34	170	160	159	171
321	18	6	7	8	50
322	34	139	136	135	141
323	18	96	131	132	147
324	34	44	11	10	47
325	18	70	69	68	80
326	18	134	135	136	137
327	15	67	68	69	70
327	16	67	68	69	70
327	17	67	68	69	70
328	20	40	14	13	42
329	34	121	102	101	124
330	34	174	158	157	176
331	34	77	69	68	79
332	23	97	98	99	127
333	34	33	22	21	36
334	34	124	101	100	126
335	34	168	161	160	170
336	18	14	15	20	37
337	34	112	107	106	113
338	15	15	20	21	22
338	16	15	20	21	22
338	17	15	20	21	22
339	18	106	105	104	117
340	23	11	12	13	42
341	34	27	25	24	30
342	26	16	17	61	62
343	5	1	3	4	59
343	6	1	3	4	59
344	18	7	6	5	56
345	18	130	97	96	131
346	15	104	105	106	107
346	16	104	105	106	107
346	17	104	105	106	107
347	18	23	22	21	36
348	15	102	103	104	105
348	16	102	103	104	105
348	17	102	103	104	105
349	35	163	162	161	168
349	36	163	162	161	168
350	34	137	136	135	140
351	15	4	5	6	7
351	16	4	5	6	7
351	17	4	5	6	7
352	13	3	1	93	94
353	34	78	69	68	80
354	29	17	61	62	92
355	20	126	100	99	127
356	14	98	97	96	150
357	34	85	65	64	87
358	34	53	7	6	55
359	34	140	135	134	143
360	18	162	161	160	170
361	18	15	20	21	35
362	14	16	15	20	21
363	34	79	68	67	82
364	34	120	103	102	121
365	18	133	132	131	148
366	21	97	98	99	100
366	22	97	98	99	100
367	14	3	4	5	6
368	15	14	15	20	21
368	16	14	15	20	21
368	17	14	15	20	21
369	34	28	25	24	29
370	18	102	103	104	118
371	34	166	162	161	167
372	34	165	162	161	167
373	18	158	159	160	170
374	5	17	16	15	39
374	6	17	16	15	39
375	34	73	71	70	76
376	1	93	95	96	131
376	2	93	95	96	131
376	3	93	95	96	131
376	4	93	95	96	131
377	34	56	5	4	59
378	1	1	3	4	5
378	2	1	3	4	5
378	3	1	3	4	5
378	4	1	3	4	5
379	14	12	11	10	46
380	34	114	106	105	115
381	29	72	152	153	183
382	34	45	11	10	47
383	18	68	67	66	84
384	34	86	65	64	87
385	34	35	21	20	37
386	18	22	21	20	37
387	24	13	12	11	45
387	25	13	12	11	45
388	34	39	15	14	40
389	24	99	98	97	130
389	25	99	98	97	130
390	34	167	161	160	169
391	18	65	66	67	81
392	18	136	135	134	142
393	34	55	6	5	56
394	11	94	93	95	151
394	12	94	93	95	151
395	18	20	15	14	40
396	18	6	5	4	58
397	19	10	11	12	13
398	18	160	161	162	165
399	18	22	23	24	29
400	15	68	69	70	71
400	16	68	69	70	71
400	17	68	69	70	71
401	34	32	23	22	33
402	34	179	155	154	181
403	18	65	64	63	89
404	18	104	105	106	113
405	34	51	8	7	52
406	18	66	65	64	88
407	14	95	96	131	148
408	18	156	155	154	181
409	9	94	93	95	96
409	10	94	93	95	96
410	5	19	16	15	20
410	6	19	16	15	20
411	34	173	158	157	175
412	18	153	154	155	179
413	34	122	102	101	124
414	34	139	136	135	140
415	7	15	16	17	61
415	8	15	16	17	61
416	34	44	11	10	46
417	18	70	69	68	79
418	34	81	67	66	84
419	34	121	102	101	123
420	34	49	9	8	51
421	34	89	63	62	91
422	5	131	96	95	151
422	6	131	96	95	151
423	34	115	105	104	117
424	34	145	133	132	146
425	34	80	68	67	82
426	34	83	66	65	85
427	34	27	25	24	29
428	34	48	9	8	51
429	5	1	3	4	58
429	6	1	3	4	58
430	18	23	22	21	35
431	18	21	20	15	39
432	18	104	103	102	121
433	18	71	70	69	78
434	34	117	104	103	120