Title

99 atoms
104 bonds
163 angles
247 dihedrals
162 impropers

7 atom types
11 bond types
6 angle types
17 dihedral types
3 improper types
-14.77400017 85.22599983 xlo xhi
-3.420000076 96.57999992 ylo yhi
-1.710999966 98.28900003 zlo zhi
0.0 0.0 0.0 xy xz yz

Masses

1	14.00672
2	12.01078
3	1.007947
4	15.99943
5	1.007947
6	15.99943
7	1.007947


Pair Coeffs

1	0.16769152	3.206876
2	0.086879315	3.4806469
3	0.015611343	2.5725815
4	0.2102061	3.0398122
5	0.014090815	1.1034277
6	0.20947353	2.99716
7	1.2326e-05	0.53453923

Bond Coeffs

1 harmonic	390.03554688505	1.390160554689
2 harmonic	505.144496193	1.019481865027
3 harmonic	422.7150220147	1.421786517481
4 harmonic	360.7852444772	1.387193227181
5 harmonic	397.2545789619	1.085358495916
6 harmonic	279.1350963404	1.454628925034
7 harmonic	399.1592953295	1.371688562017
8 harmonic	582.698766451	1.225198386222
9 harmonic	492.76746816345	1.381897776683
10 harmonic	385.7604595587	1.369745182308
11 harmonic	543.5267831885	0.9716763312559


Angle Coeffs

1 harmonic	57.8982893754	126.8062420451
2 harmonic	55.42182150775	117.3465570514
3 harmonic	63.44422595415	115.5071327674
4 harmonic	34.066775159195	129.1835929926
5 harmonic	65.09061609600001	110.3538806181
6 harmonic	201.41175231035	127.4691416191


Dihedral Coeffs

1 fourier 1	3.661930099076	2	180
2 fourier 1	1.193093382682	2	180
3 fourier 1	0.02021088501612	1	0
4 fourier 1	1.163235555439	2	180
5 fourier 1	5.294842998052	2	180
6 fourier 1	0.2347635637734	2	180
7 fourier 1	0.4747469131102	3	0
8 fourier 1	0.9974165607242	2	180
9 fourier 1	3.101948770557	2	180
10 fourier 1	-0.4252153282372	1	0
11 fourier 1	1.809047390003	2	180
12 fourier 1	-0.04816277792592	1	0
13 fourier 1	2.348375642009	2	180
14 fourier 1	1.256156174911	1	0
15 fourier 1	2.687457892086	2	180
16 fourier 1	2.772607909663	2	180
17 fourier 1	0.09692684957115	1	0


Improper Coeffs

1 0.3666666666666667	-1	2
2 0.3333333333333333	-1	2
3 3.5	-1	2


Atoms

1	1	1	-0.41257301	-6.9429998	-0.057	-0.81300002
2	1	2	0.119455	-5.6259999	-0.13500001	-0.25999999
3	1	2	-0.41350901	-5.3800001	-0.917	0.80299997
4	1	3	0.234299	-6.1729999	-1.5	1.255
5	1	2	-0.084705003	-4.0209999	-0.98400003	1.375
6	1	3	0.22772001	-3.835	-1.599	2.247
7	1	2	-0.28173101	-3.026	-0.27700001	0.829
8	1	3	0.22092301	-2.04	-0.31400001	1.275
9	1	2	-0.081060998	-3.277	0.56900001	-0.368
10	1	2	0.037333999	-2.201	1.396	-0.95700002
11	1	2	-0.460152	-0.94400001	0.98299998	-1.179
12	1	2	0.60438001	-0.479	-0.419	-1.0599999
13	1	4	-0.56143802	-1.279	-1.363	-1.301
14	1	2	-0.460152	0.92299998	-0.75800002	-0.73900002
15	1	2	0.037333999	1.802	0.133	-0.25400001
16	1	2	-0.087817997	3.2130001	-0.189	0.071999997
17	1	2	-0.28173101	3.6340001	-1.4400001	0.35699999
18	1	3	0.22092301	2.9530001	-2.279	0.375
19	1	2	-0.102175	5.0500002	-1.693	0.69199997
20	1	3	0.22772001	5.3769999	-2.701	0.91100001
21	1	2	-0.38866401	5.9239998	-0.68199998	0.73100001
22	1	3	0.23186301	6.96	-0.87599999	0.98000002
23	1	2	0.21910501	5.4770002	0.69800001	0.44100001
24	1	1	-0.53251302	6.415	1.776	0.493
25	1	5	0.32465199	6.1209998	2.7579999	0.292
26	1	2	-0.34078601	4.191	0.92799997	0.133
27	1	3	0.229196	3.859	1.938	-0.081
28	1	3	0.217491	1.495	1.161	-0.112
29	1	3	0.177148	1.222	-1.783	-0.90399998
30	1	3	0.177148	-0.236	1.717	-1.541
31	1	3	0.217491	-2.448	2.418	-1.219
32	1	2	-0.33917999	-4.5240002	0.65399998	-0.86000001
33	1	3	0.229296	-4.7340002	1.2920001	-1.711
34	1	5	0.379163	-7.1339998	0.55199999	-1.6390001
35	1	2	0.771905	7.434	1.5930001	0.73799998
36	1	4	-0.63908499	7.9250002	0.45899999	0.49399999
37	1	2	-0.34862301	8.2419996	2.6630001	1.352
38	1	2	-0.063307002	9.5340004	2.47	1.676
39	1	3	0.230827	10.021	1.52	1.495
40	1	2	-0.234808	10.317	3.5610001	2.29
41	1	3	0.223634	11.356	3.3959999	2.5469999
42	1	2	-0.0092399996	9.7480001	4.7480001	2.527
43	1	3	0.230767	10.335	5.5380001	2.9779999
44	1	2	-0.28676099	8.3240004	4.9770002	2.1760001
45	1	2	0.59246403	7.6880002	6.2820001	2.434
46	1	4	-0.49725601	8.3389997	7.2249999	2.957
47	1	2	0.066262998	7.6139998	3.9809999	1.617
48	1	3	0.24799199	6.573	4.1329999	1.355
49	1	1	-0.41257301	-7.7329998	-0.60500002	-0.405
50	1	2	0.119455	-8.0430002	-0.528	0.98900002
51	1	2	-0.41350901	-7.3189998	0.255	1.8049999
52	1	3	0.234299	-6.4910002	0.83700001	1.419
53	1	2	-0.084705003	-7.6370001	0.322	3.2449999
54	1	3	0.22772001	-7.0339999	0.93599999	3.9000001
55	1	2	-0.28173101	-8.6590004	-0.38600001	3.7409999
56	1	3	0.22092301	-8.8640003	-0.34799999	4.803
57	1	2	-0.081060998	-9.4899998	-1.2309999	2.8440001
58	1	2	0.037333999	-10.592	-2.0580001	3.3800001
59	1	2	-0.460152	-11.5	-1.645	4.2779999
60	1	2	0.60438001	-11.672	-0.243	4.7259998
61	1	4	-0.56143802	-11.407	0.70099998	3.934
62	1	2	-0.460152	-12.221	0.094999999	6.0549998
63	1	2	0.037333999	-12.334	-0.79500002	7.053
64	1	2	-0.035101999	-12.884	-0.47299999	8.3929996
65	1	2	-0.28173101	-12.895	0.77700001	8.901
66	1	3	0.22092301	-12.486	1.617	8.3559999
67	1	2	-0.036068998	-13.44	1.031	10.25
68	1	3	0.22772001	-13.451	2.039	10.644
69	1	2	-0.45048299	-13.914	0.02	10.986
70	1	3	0.23839	-14.31	0.214	11.975
71	1	2	0.32031301	-13.892	-1.36	10.454
72	1	1	-0.84762198	-14.392	-2.438	11.249
73	1	5	0.37570101	-14.774	-2.2590001	12.204
74	1	5	0.37570101	-14.385	-3.4200001	10.892
75	1	2	-0.40539801	-13.399	-1.59	9.2250004
76	1	3	0.238989	-13.382	-2.5999999	8.8319998
77	1	3	0.217491	-12.041	-1.823	6.8850002
78	1	3	0.177148	-12.529	1.1210001	6.204
79	1	3	0.177148	-12.205	-2.3800001	4.6459999
80	1	3	0.217491	-10.663	-3.0799999	3.0280001
81	1	2	-0.33917999	-9.1700001	-1.317	1.541
82	1	3	0.229296	-9.743	-1.954	0.87800002
83	1	5	0.379163	-8.2959995	-1.214	-1.039
84	1	2	0.59246403	6.6500001	6.4429998	2.1760001
85	1	4	-0.49725601	6.2950001	6.3249998	0.972
86	1	2	-0.28221199	5.6789999	6.7940001	3.23
87	1	2	-0.0092399996	4.3800001	7.0019999	2.948
88	1	3	0.230767	4.007	6.9169998	1.9349999
89	1	2	-0.235962	3.4330001	7.3530002	4.0240002
90	1	3	0.223634	2.3900001	7.5180001	3.7869999
91	1	2	-0.048516002	3.8599999	7.4660001	5.2859998
92	1	3	0.24131601	3.1500001	7.724	6.0619998
93	1	2	-0.21248899	5.289	7.2410002	5.619
94	1	2	0.84307301	5.7459998	7.3699999	7.0209999
95	1	4	-0.46636301	6.9569998	7.1820002	7.323
96	1	6	-0.660532	4.8379998	7.7010002	8.0220003
97	1	7	0.42465001	5.1360002	7.7930002	8.9860001
98	1	2	0.083322003	6.1490002	6.921	4.631
99	1	3	0.25810799	7.197	6.7509999	4.848

Bonds

1	1	1	2
2	2	1	34
3	3	1	49
4	4	2	3
5	4	2	32
6	5	3	4
7	4	3	5
8	5	5	6
9	4	5	7
10	5	7	8
11	4	7	9
12	6	9	10
13	4	9	32
14	7	10	11
15	5	10	31
16	6	11	12
17	5	11	30
18	8	12	13
19	6	12	14
20	7	14	15
21	5	14	29
22	6	15	16
23	5	15	28
24	4	16	17
25	4	16	26
26	5	17	18
27	4	17	19
28	5	19	20
29	4	19	21
30	5	21	22
31	4	21	23
32	1	23	24
33	4	23	26
34	2	24	25
35	9	24	35
36	5	26	27
37	5	32	33
38	8	35	36
39	6	35	37
40	4	37	38
41	4	37	47
42	5	38	39
43	4	38	40
44	5	40	41
45	4	40	42
46	5	42	43
47	4	42	44
48	6	44	45
49	4	44	47
50	8	45	46
51	6	45	84
52	5	47	48
53	1	49	50
54	2	49	83
55	4	50	51
56	4	50	81
57	5	51	52
58	4	51	53
59	5	53	54
60	4	53	55
61	5	55	56
62	4	55	57
63	6	57	58
64	4	57	81
65	7	58	59
66	5	58	80
67	6	59	60
68	5	59	79
69	8	60	61
70	6	60	62
71	7	62	63
72	5	62	78
73	6	63	64
74	5	63	77
75	4	64	65
76	4	64	75
77	5	65	66
78	4	65	67
79	5	67	68
80	4	67	69
81	5	69	70
82	4	69	71
83	1	71	72
84	4	71	75
85	2	72	73
86	2	72	74
87	5	75	76
88	5	81	82
89	8	84	85
90	6	84	86
91	4	86	87
92	4	86	98
93	5	87	88
94	4	87	89
95	5	89	90
96	4	89	91
97	5	91	92
98	4	91	93
99	6	93	94
100	4	93	98
101	8	94	95
102	10	94	96
103	11	96	97
104	5	98	99

Angles

1	1	10	11	12
2	4	16	17	18
3	1	44	45	84
4	4	59	58	80
5	1	46	45	84
6	4	68	67	69
7	4	5	7	8
8	1	21	23	26
9	1	24	35	36
10	1	51	50	81
11	1	59	60	62
12	1	15	16	26
13	1	45	44	47
14	1	10	9	32
15	1	40	42	44
16	1	72	71	75
17	4	92	91	93
18	6	95	94	96
19	3	34	1	49
20	4	87	89	90
21	1	44	45	46
22	1	42	44	47
23	4	19	21	22
24	4	65	67	68
25	4	37	38	39
26	4	9	10	31
27	1	5	7	9
28	4	20	19	21
29	2	23	24	35
30	1	12	14	15
31	2	1	49	50
32	1	89	91	93
33	4	8	7	9
34	1	51	53	55
35	1	60	62	63
36	4	11	10	31
37	4	67	69	70
38	1	93	94	96
39	4	15	14	29
40	1	3	2	32
41	1	87	89	91
42	1	58	59	60
43	1	19	21	23
44	1	65	67	69
45	4	64	75	76
46	1	84	86	98
47	1	1	2	3
48	1	53	55	57
49	4	58	59	79
50	1	49	50	81
51	4	60	62	78
52	1	3	5	7
53	4	44	47	48
54	1	61	60	62
55	4	57	81	82
56	4	9	32	33
57	1	45	84	86
58	1	17	16	26
59	4	52	51	53
60	1	86	98	93
61	1	35	37	38
62	4	38	40	41
63	4	71	75	76
64	4	62	63	77
65	4	50	51	52
66	3	71	72	73
67	1	36	35	37
68	3	25	24	35
69	4	88	87	89
70	1	16	26	23
71	4	2	3	4
72	1	16	17	19
73	4	54	53	55
74	5	94	96	97
75	4	39	38	40
76	4	90	89	91
77	1	13	12	14
78	1	24	35	37
79	3	71	72	74
80	1	24	23	26
81	4	70	69	71
82	3	50	49	83
83	4	60	59	79
84	3	1	49	83
85	1	50	81	57
86	4	57	58	80
87	1	37	38	40
88	1	49	50	51
89	1	91	93	98
90	1	84	86	87
91	3	23	24	25
92	1	38	37	47
93	4	64	63	77
94	1	15	16	17
95	1	35	37	47
96	2	2	1	49
97	1	67	69	71
98	1	21	23	24
99	1	91	93	94
100	4	16	26	27
101	1	7	9	32
102	1	14	15	16
103	1	63	64	75
104	1	94	93	98
105	4	64	65	66
106	1	65	64	75
107	4	4	3	5
108	1	42	44	45
109	4	93	98	99
110	1	38	40	42
111	4	6	5	7
112	1	50	51	53
113	1	59	60	61
114	1	62	63	64
115	4	23	26	27
116	4	40	42	43
117	3	73	72	74
118	4	12	14	29
119	4	86	98	99
120	1	1	2	32
121	1	64	65	67
122	1	58	57	81
123	4	86	87	88
124	1	2	3	5
125	4	18	17	19
126	1	64	75	71
127	4	63	62	78
128	1	87	86	98
129	4	10	11	30
130	4	89	91	92
131	1	11	12	13
132	4	56	55	57
133	1	55	57	81
134	4	51	53	54
135	4	41	40	42
136	1	55	57	58
137	1	93	94	95
138	4	22	21	23
139	1	63	64	65
140	4	17	19	20
141	1	86	87	89
142	4	53	55	56
143	4	43	42	44
144	1	69	71	72
145	1	69	71	75
146	3	2	1	34
147	1	11	12	14
148	4	3	5	6
149	1	9	10	11
150	1	45	84	85
151	4	12	11	30
152	1	17	19	21
153	1	7	9	10
154	4	37	47	48
155	4	50	81	82
156	1	2	32	9
157	4	14	15	28
158	4	66	65	67
159	4	2	32	33
160	4	16	15	28
161	1	57	58	59
162	1	37	47	44
163	1	85	84	86

Dihedrals

1	1	19	21	23	24
2	8	59	60	62	78
3	5	60	62	63	64
4	5	57	58	59	79
5	9	23	24	35	36
5	10	23	24	35	36
6	1	43	42	44	45
7	16	95	94	96	97
7	17	95	94	96	97
8	1	16	17	19	21
9	1	4	3	5	7
10	1	58	57	81	82
11	1	19	17	16	26
12	4	75	64	63	77
13	1	84	86	98	99
14	4	17	16	15	28
15	8	10	11	12	14
16	1	63	64	65	67
17	4	65	64	63	77
18	1	10	9	32	33
19	5	64	63	62	78
20	4	7	9	10	31
21	8	46	45	44	47
22	1	38	40	42	44
23	1	40	42	44	47
24	6	58	59	60	61
24	7	58	59	60	61
25	1	89	87	86	98
26	4	31	10	9	32
27	1	63	64	75	71
28	4	14	15	16	17
29	1	22	21	23	24
30	1	72	71	75	76
31	1	88	87	86	98
32	1	70	69	71	72
33	3	2	1	49	50
34	11	23	24	35	37
34	12	23	24	35	37
35	1	68	67	69	70
36	1	70	69	71	75
37	8	85	84	86	98
38	1	6	5	7	8
39	8	44	45	84	86
40	1	88	87	89	90
41	1	64	65	67	69
42	1	67	69	71	72
43	1	67	69	71	75
44	8	24	35	37	38
45	1	50	51	53	54
46	8	36	35	37	47
47	8	59	60	62	63
48	1	84	86	87	89
49	1	5	7	9	10
50	1	90	89	91	93
51	2	1	49	50	51
52	2	21	23	24	25
53	1	69	71	75	76
54	2	51	50	49	83
55	1	7	9	32	33
56	4	11	10	9	32
57	1	17	16	26	23
58	1	2	3	5	7
59	1	16	26	23	21
60	1	87	89	91	92
61	1	39	38	40	41
62	8	42	44	45	84
63	1	53	55	57	81
64	6	13	12	14	15
64	7	13	12	14	15
65	5	30	11	10	31
66	1	86	98	93	94
67	8	96	94	93	98
68	1	53	55	57	58
69	8	11	12	14	15
70	8	61	60	62	78
71	2	69	71	72	74
72	1	49	50	81	57
73	4	55	57	58	59
74	1	3	5	7	8
75	1	16	26	23	24
76	1	50	81	57	58
77	1	66	65	64	75
78	1	55	57	81	82
79	5	12	14	15	16
80	1	84	86	98	93
81	8	45	84	86	98
82	1	21	23	26	27
83	5	16	15	14	29
84	1	15	16	26	27
85	1	87	86	98	93
86	8	24	35	37	47
87	8	85	84	86	87
88	8	91	93	94	95
89	1	2	32	9	10
90	1	37	47	44	45
91	1	65	67	69	70
92	1	17	16	26	27
93	2	3	2	1	49
94	1	67	65	64	75
95	1	1	2	3	4
96	1	86	98	93	91
97	5	12	14	15	28
98	8	58	59	60	62
99	1	37	38	40	41
100	1	20	19	21	22
101	1	65	64	75	76
102	1	19	21	23	26
103	1	18	17	19	20
104	4	59	58	57	81
105	1	92	91	93	98
106	6	61	60	62	63
106	7	61	60	62	63
107	1	43	42	44	47
108	1	88	87	89	91
109	1	68	67	69	71
110	1	45	44	47	48
111	13	25	24	35	36
111	14	25	24	35	36
112	1	6	5	7	9
113	1	8	7	9	32
114	2	32	2	1	49
115	5	9	10	11	30
116	2	74	72	71	75
117	1	50	51	53	55
118	1	41	40	42	43
119	8	61	60	59	79
120	1	92	91	93	94
121	3	34	1	49	83
122	2	73	72	71	75
123	1	1	2	3	5
124	4	26	16	15	28
125	1	17	19	21	22
126	1	35	37	38	39
127	1	5	3	2	32
128	1	20	19	21	23
129	1	22	21	23	26
130	1	24	23	26	27
131	1	18	17	19	21
132	1	52	51	53	54
133	1	53	51	50	81
134	1	63	64	75	76
135	1	8	7	9	10
136	11	25	24	35	37
136	12	25	24	35	37
137	1	52	51	50	81
138	1	40	42	44	45
139	1	38	40	42	43
140	4	14	15	16	26
141	4	62	63	64	75
142	1	41	40	42	44
143	1	66	65	67	68
144	1	87	89	91	93
145	1	39	38	40	42
146	5	60	62	63	77
147	1	35	37	47	48
148	8	42	44	45	46
149	2	81	50	49	83
150	5	77	63	62	78
151	8	45	84	86	87
152	8	46	45	84	85
153	8	47	44	45	84
154	1	16	17	19	20
155	15	93	94	96	97
156	1	17	19	21	23
157	1	51	50	81	82
158	1	63	64	65	66
159	1	35	37	47	44
160	8	14	12	11	30
161	1	3	5	7	9
162	3	2	1	49	83
163	1	18	17	16	26
164	2	26	23	24	35
165	5	60	59	58	80
166	1	66	65	67	69
167	1	91	93	98	99
168	1	64	75	71	72
169	5	9	10	11	12
170	8	46	45	84	86
171	8	44	45	84	85
172	1	1	2	32	9
173	1	50	81	57	55
174	2	3	2	1	34
175	1	1	2	32	33
176	1	49	50	81	82
177	1	64	65	67	68
178	8	91	93	94	96
179	1	39	38	37	47
180	1	89	91	93	98
181	1	65	67	69	71
182	1	87	86	98	99
183	1	42	44	47	48
184	1	51	53	55	56
185	1	84	86	87	88
186	4	80	58	57	81
187	2	21	23	24	35
188	1	37	38	40	42
189	1	5	7	9	32
190	1	15	16	17	18
191	8	62	60	59	79
192	4	62	63	64	65
193	4	7	9	10	11
194	8	13	12	14	29
195	4	55	57	58	80
196	1	3	2	32	9
197	2	32	2	1	34
198	1	56	55	57	81
199	1	3	2	32	33
200	1	37	47	44	42
201	1	49	50	51	52
202	1	38	37	47	48
203	1	86	87	89	90
204	1	89	91	93	94
205	8	11	12	14	29
206	1	2	3	5	6
207	1	56	55	57	58
208	1	54	53	55	56
209	1	90	89	91	92
210	2	25	24	23	26
211	5	79	59	58	80
212	8	36	35	37	38
213	1	94	93	98	99
214	1	64	75	71	69
215	1	51	53	55	57
216	5	12	11	10	31
217	1	38	37	47	44
218	1	15	16	26	23
219	1	15	16	17	19
220	1	4	3	5	6
221	1	35	37	38	40
222	1	52	51	53	55
223	5	28	15	14	29
224	3	34	1	49	50
225	1	2	32	9	7
226	8	95	94	93	98
227	2	1	49	50	81
228	6	10	11	12	13
228	7	10	11	12	13
229	1	49	50	51	53
230	2	69	71	72	73
231	1	86	87	89	91
232	1	51	50	81	57
233	1	4	3	2	32
234	1	40	38	37	47
235	1	54	53	55	57
236	5	57	58	59	60
237	8	13	12	11	30
238	1	65	64	75	71

Impropers

4	1	75	76	64	71
5	3	94	95	96	93
6	1	15	14	16	28
10	3	94	93	95	96
11	1	42	44	40	43
12	1	57	58	81	55
13	1	14	15	29	12
17	1	86	87	98	84
19	1	11	30	10	12
23	1	40	41	42	38
24	2	49	83	1	50
28	1	87	86	88	89
29	1	57	81	55	58
30	1	62	78	60	63
38	1	16	17	26	15
39	1	60	59	61	62
40	1	58	57	59	80
41	1	7	9	5	8
43	1	32	2	9	33
44	1	65	64	66	67
45	1	58	59	80	57
47	1	87	89	86	88
48	1	5	3	6	7
49	1	15	28	14	16
52	1	55	56	57	53
53	1	53	54	55	51
54	1	89	90	91	87
55	1	23	21	24	26
57	1	9	10	32	7
59	1	84	86	45	85
61	1	69	71	67	70
65	1	71	75	69	72
67	1	12	11	13	14
70	1	47	48	37	44
71	1	37	47	35	38
76	1	10	11	31	9
77	1	69	70	71	67
78	1	67	68	69	65
79	2	1	2	34	49
82	1	38	40	37	39
83	1	64	65	75	63
84	1	21	19	22	23
85	2	1	34	49	2
87	1	26	16	23	27
88	1	45	46	84	44
89	1	63	77	62	64
90	1	51	53	50	52
91	1	67	69	65	68
94	1	19	17	20	21
95	1	16	15	17	26
96	2	49	50	83	1
98	1	53	55	51	54
100	1	44	45	47	42
102	1	63	62	64	77
103	1	17	16	18	19
104	1	64	63	65	75
105	1	75	64	71	76
107	1	14	29	12	15
109	1	3	2	4	5
111	1	71	72	75	69
112	1	19	20	21	17
113	1	60	62	59	61
116	1	62	63	78	60
118	1	98	86	93	99
122	1	7	5	8	9
123	1	26	27	16	23
125	2	49	1	50	83
126	1	19	21	17	20
127	1	9	7	10	32
128	1	26	23	27	16
131	1	9	32	7	10
132	1	81	57	82	50
135	1	2	1	3	32
136	1	16	26	15	17
139	1	35	24	36	37
140	1	51	50	52	53
143	2	72	73	74	71
147	1	98	93	99	86
149	1	2	3	32	1
151	1	64	75	63	65
153	1	81	82	50	57
154	2	72	71	73	74
155	1	55	57	53	56
159	1	75	71	76	64
160	1	35	37	24	36
161	1	89	87	90	91
169	1	59	58	60	79
171	1	42	40	43	44
172	1	40	38	41	42
175	1	84	45	85	86
176	1	50	51	81	49
184	1	91	92	93	89
186	1	93	91	94	98
187	1	50	49	51	81
188	1	47	37	44	48
191	1	38	39	40	37
193	1	12	13	14	11
194	1	35	36	37	24
196	1	91	93	89	92
199	1	15	16	28	14
200	1	86	98	84	87
201	1	21	23	19	22
202	1	50	81	49	51
203	1	32	9	33	2
205	1	86	84	87	98
208	3	94	96	93	95
210	1	10	31	9	11
211	1	21	22	23	19
213	1	69	67	70	71
215	1	23	26	21	24
217	1	51	52	53	50
219	1	37	38	47	35
220	2	24	35	23	25
221	1	81	50	57	82
222	1	37	35	38	47
225	1	62	60	63	78
226	1	59	79	58	60
227	1	93	98	91	94
229	2	24	25	35	23
230	1	14	12	15	29
231	1	84	85	86	45
233	1	71	69	72	75
235	1	10	9	11	31
237	1	17	19	16	18
239	1	45	44	46	84
241	1	58	80	57	59
242	1	57	55	58	81
245	1	44	47	42	45
247	1	53	51	54	55
249	1	32	33	2	9
251	1	44	42	45	47
253	1	5	7	3	6
254	1	12	14	11	13
255	1	11	12	30	10
258	1	67	65	68	69
261	1	87	88	89	86
262	1	59	60	79	58
265	1	3	5	2	4
268	1	47	44	48	37
269	1	17	18	19	16
272	1	60	61	62	59
273	1	91	89	92	93
279	1	11	10	12	30
280	1	40	42	38	41
281	1	65	66	67	64
284	1	7	8	9	5
287	1	63	64	77	62
288	1	3	4	5	2
290	2	72	74	71	73
291	2	24	23	25	35
294	1	5	6	7	3
301	1	42	43	44	40
306	2	1	49	2	34
309	1	55	53	56	57
310	1	93	94	98	91
311	1	65	67	64	66
314	1	98	99	86	93
317	1	2	32	1	3
318	1	38	37	39	40
319	1	45	84	44	46
320	1	23	24	26	21
323	1	89	91	87	90
