Title

99 atoms
98 bonds
185 angles
313 dihedrals
12 impropers

8 atom types
11 bond types
5 angle types
25 dihedral types
2 improper types
-12.6079998 87.3920002 xlo xhi
-4.217999935 95.78200006 ylo yhi
-1.692999959 98.30700004 zlo zhi
0.0 0.0 0.0 xy xz yz

Masses

1	15.99943
2	12.01078
3	1.007947
4	1.007947
5	12.01078
6	15.99943
7	15.99943
8	1.007947


Pair Coeffs

1	0.16846514	3.0251065
2	0.10884061	3.3795318
3	0.015779483	2.6445434
4	0.016409246	2.5832257
5	0.086879315	3.4806469
6	0.2102061	3.0398122
7	0.20947353	2.99716
8	1.2326e-05	0.53453923

Bond Coeffs

1 harmonic	366.7408841747	1.425895053732
2 harmonic	300.03137914615	1.451203938761
3 harmonic	264.62148576755	1.52190126495
4 harmonic	370.04670688625	1.093899492634
5 harmonic	301.15400723785	1.345741232799
6 harmonic	582.698766451	1.225198386222
7 harmonic	329.44145381095	1.523435958334
8 harmonic	279.1350963404	1.454628925034
9 harmonic	329.96998057905	1.427343958716
10 harmonic	543.5267831885	0.9716763312559
11 harmonic	385.7604595587	1.369745182308


Angle Coeffs

1 harmonic	53.20531626545	116.5475862634
2 harmonic	65.09061609600001	110.3538806181
3 harmonic	48.776492647595	115.6030999533
4 harmonic	201.41175231035	127.4691416191
5 harmonic	57.8982893754	126.8062420451


Dihedral Coeffs

1 fourier 1	0.1155372516788	3	0
2 fourier 1	0.0473758381877	3	0
3 fourier 1	0.457973137376	1	0
4 fourier 1	0.1040663847541	3	0
5 fourier 1	0.09223874044423	3	0
6 fourier 1	0.3159935921949	2	180
7 fourier 1	0.3247796806857	1	180
8 fourier 1	0.1918272375143	3	0
9 fourier 1	0.9202179876409	1	180
10 fourier 1	1.163809172478	2	180
11 fourier 1	0.1679186987369	1	180
12 fourier 1	2.779853741805	2	180
13 fourier 1	0.02664938770063	3	0
14 fourier 1	0.1911926717192	3	0
15 fourier 1	-0.3703352413219	2	0
16 fourier 1	0.4541676554336	1	0
17 fourier 1	0.1489710476446	2	0
18 fourier 1	0.02960027280666	3	180
19 fourier 1	0.9974165607242	2	180
20 fourier 1	0.3445382149273	3	0
21 fourier 1	0.1364556373303	1	0
22 fourier 1	0.3026390167484	3	0
23 fourier 1	2.687457892086	2	180
24 fourier 1	2.772607909663	2	180
25 fourier 1	0.09692684957115	1	0


Improper Coeffs

1 3.5	-1	2
2 0.3666666666666667	-1	2


Atoms

1	1	1	-0.164178	-1.462	1.771	-1.173
2	1	2	0.000711	-1.209	1.39	0.153
3	1	2	-0.052942999	-0.26800001	0.156	0.208
4	1	2	-0.158527	-0.082999997	-0.21799999	1.698
5	1	3	0.069735996	-1.067	-0.41299999	2.1760001
6	1	3	0.069735996	0.53100002	-1.133	1.823
7	1	3	0.069735996	0.414	0.60900003	2.25
8	1	2	0.109169	-0.94599998	-1.015	-0.55699998
9	1	1	-0.489629	-0.296	-2.234	-0.31400001
10	1	4	0.085068002	-0.94199997	-0.80400002	-1.65
11	1	4	0.085068002	-2.007	-1.11	-0.23199999
12	1	2	-0.169903	1.098	0.55900002	-0.435
13	1	2	-0.121097	2.1700001	-0.53500003	-0.47400001
14	1	3	0.043956	2.3889999	-0.92799997	0.53799999
15	1	3	0.043956	3.1110001	-0.103	-0.87699997
16	1	3	0.043956	1.8710001	-1.362	-1.149
17	1	3	0.090533003	0.93199998	0.89899999	-1.4809999
18	1	3	0.090533003	1.52	1.426	0.12
19	1	4	0.090415999	-0.74599999	2.244	0.699
20	1	4	0.090415999	-2.1760001	1.156	0.65499997
21	1	5	0.76046401	-0.79900002	-2.948	-0.87800002
22	1	6	-0.55458999	-0.17299999	-3.619	-1.682
23	1	2	-0.208589	-2.2750001	-3.161	-0.71399999
24	1	2	-0.115515	-2.8540001	-2.223	0.35499999
25	1	2	-0.136188	-4.3429999	-2.49	0.634
26	1	2	-0.141528	-5.257	-1.948	-0.479
27	1	2	-0.141528	-6.7399998	-2.299	-0.259
28	1	2	-0.13884699	-7.369	-1.7130001	1.018
29	1	2	-0.097190998	-7.3460002	-0.178	1.049
30	1	2	-0.257649	-8.1490002	0.359	2.2390001
31	1	5	0.51707202	-8.1169996	1.858	2.286
32	1	6	-0.68671203	-8.7060003	2.4519999	3.174
33	1	3	0.113699	-9.2069998	0.026000001	2.158
34	1	3	0.113699	-7.723	-0.037999999	3.1860001
35	1	3	0.077001996	-6.2969999	0.176	1.1390001
36	1	3	0.077001996	-7.7800002	0.219	0.105
37	1	3	0.078704998	-8.4259996	-2.0569999	1.058
38	1	3	0.078704998	-6.8629999	-2.1199999	1.919
39	1	3	0.080578998	-7.3200002	-1.942	-1.138
40	1	3	0.080578998	-6.8470001	-3.405	-0.23100001
41	1	3	0.080578998	-5.131	-0.84899998	-0.57499999
42	1	3	0.080578998	-4.9569998	-2.3940001	-1.45
43	1	3	0.078704998	-4.513	-3.579	0.77399999
44	1	3	0.078704998	-4.5970001	-1.9809999	1.5880001
45	1	3	0.085795999	-2.2950001	-2.3800001	1.304
46	1	3	0.085795999	-2.71	-1.163	0.050000001
47	1	3	0.116959	-2.4519999	-4.2179999	-0.421
48	1	3	0.116959	-2.763	-2.9749999	-1.693
49	1	1	-0.163858	-2.0599999	2.5610001	-1.125
50	1	2	0.010377	-2.098	2.941	0.22400001
51	1	2	-0.088048004	-3.0179999	4.1750002	0.42899999
52	1	2	-0.151436	-2.964	4.5489998	1.9299999
53	1	3	0.06955	-1.916	4.7449999	2.244
54	1	3	0.06955	-3.55	5.4650002	2.1500001
55	1	3	0.06955	-3.3659999	3.7219999	2.5539999
56	1	2	0.059124999	-2.4719999	5.3470001	-0.43399999
57	1	7	-0.680457	-3.0739999	6.566	-0.090999998
58	1	8	0.37709501	-2.6860001	7.2480001	-0.699
59	1	4	0.080427997	-2.6489999	5.1360002	-1.513
60	1	4	0.080427997	-1.372	5.441	-0.28299999
61	1	2	-0.16264001	-4.4699998	3.773	0.011
62	1	2	-0.121421	-5.5349998	4.8660002	0.14399999
63	1	3	0.043956	-5.5890002	5.2600002	1.179
64	1	3	0.043956	-6.527	4.4349999	-0.104
65	1	3	0.043956	-5.3470001	5.6929998	-0.56999999
66	1	3	0.090208001	-4.473	3.4330001	-1.0470001
67	1	3	0.090208001	-4.7979999	2.9059999	0.62599999
68	1	4	0.090443999	-2.4679999	2.0869999	0.83700001
69	1	4	0.090443999	-1.064	3.1760001	0.56599998
70	1	5	0.51707202	-7.5749998	2.427	1.5369999
71	1	6	-0.68671203	-6.4429998	2.8150001	1.778
72	1	2	-0.257649	-8.2130003	2.7160001	0.20999999
73	1	2	-0.097190998	-8.4289999	4.2199998	-0.0099999998
74	1	2	-0.13884699	-9.4790001	4.8010001	0.949
75	1	2	-0.141528	-9.7080002	6.2919998	0.67500001
76	1	2	-0.141528	-10.748	6.875	1.6440001
77	1	2	-0.136188	-11.11	8.3330002	1.3200001
78	1	2	-0.11298	-9.9759998	9.3149996	1.664
79	1	2	-0.218686	-10.378	10.774	1.411
80	1	5	0.823915	-11.403	11.247	2.395
81	1	6	-0.556032	-12.608	11.364	2.046
82	1	7	-0.66538399	-11.026	11.534	3.7030001
83	1	8	0.394263	-11.709	11.845	4.3839998
84	1	3	0.117984	-9.4759998	11.416	1.508
85	1	3	0.117984	-10.759	10.889	0.37200001
86	1	3	0.085795999	-9.6730003	9.1899996	2.727
87	1	3	0.085795999	-9.092	9.0930004	1.03
88	1	3	0.078704998	-11.378	8.4250002	0.244
89	1	3	0.078704998	-12.011	8.5970001	1.914
90	1	3	0.080578998	-10.375	6.803	2.6889999
91	1	3	0.080578998	-11.679	6.2690001	1.577
92	1	3	0.080578998	-8.7440004	6.8299999	0.79299998
93	1	3	0.080578998	-10.063	6.4229999	-0.37099999
94	1	3	0.078704998	-9.1359997	4.6719999	1.998
95	1	3	0.078704998	-10.437	4.2509999	0.81999999
96	1	3	0.077001996	-7.4640002	4.7589998	0.111
97	1	3	0.077001996	-8.7720003	4.3720002	-1.057
98	1	3	0.113699	-9.1859999	2.184	0.14399999
99	1	3	0.113699	-7.5570002	2.3210001	-0.59500003

Bonds

1	1	1	2
2	2	1	49
3	3	2	3
4	4	2	19
5	4	2	20
6	3	3	4
7	3	3	8
8	3	3	12
9	4	4	5
10	4	4	6
11	4	4	7
12	1	8	9
13	4	8	10
14	4	8	11
15	5	9	21
16	3	12	13
17	4	12	17
18	4	12	18
19	4	13	14
20	4	13	15
21	4	13	16
22	6	21	22
23	7	21	23
24	3	23	24
25	4	23	47
26	4	23	48
27	3	24	25
28	4	24	45
29	4	24	46
30	3	25	26
31	4	25	43
32	4	25	44
33	3	26	27
34	4	26	41
35	4	26	42
36	3	27	28
37	4	27	39
38	4	27	40
39	3	28	29
40	4	28	37
41	4	28	38
42	3	29	30
43	4	29	35
44	4	29	36
45	7	30	31
46	4	30	33
47	4	30	34
48	6	31	32
49	8	31	70
50	1	49	50
51	3	50	51
52	4	50	68
53	4	50	69
54	3	51	52
55	3	51	56
56	3	51	61
57	4	52	53
58	4	52	54
59	4	52	55
60	9	56	57
61	4	56	59
62	4	56	60
63	10	57	58
64	3	61	62
65	4	61	66
66	4	61	67
67	4	62	63
68	4	62	64
69	4	62	65
70	6	70	71
71	7	70	72
72	3	72	73
73	4	72	98
74	4	72	99
75	3	73	74
76	4	73	96
77	4	73	97
78	3	74	75
79	4	74	94
80	4	74	95
81	3	75	76
82	4	75	92
83	4	75	93
84	3	76	77
85	4	76	90
86	4	76	91
87	3	77	78
88	4	77	88
89	4	77	89
90	3	78	79
91	4	78	86
92	4	78	87
93	7	79	80
94	4	79	84
95	4	79	85
96	6	80	81
97	11	80	82
98	10	82	83

Angles

1	3	45	24	46
2	4	81	80	82
3	1	78	79	84
4	1	25	26	27
5	2	1	49	50
6	1	49	50	51
7	1	2	3	12
8	1	51	50	68
9	1	3	2	20
10	3	98	72	99
11	1	74	75	76
12	1	77	78	79
13	3	86	78	87
14	1	61	62	65
15	1	75	74	94
16	1	3	4	5
17	4	9	21	22
18	1	50	51	56
19	1	77	76	90
20	1	78	79	80
21	1	74	75	92
22	1	51	52	54
23	1	51	61	67
24	1	72	73	96
25	5	79	80	82
26	3	14	13	15
27	1	78	79	85
28	1	76	77	78
29	3	5	4	6
30	5	30	31	70
31	1	50	51	52
32	3	33	30	34
33	1	2	3	4
34	5	31	70	71
35	1	28	27	40
36	1	75	74	95
37	1	51	56	60
38	1	27	28	37
39	1	25	24	46
40	1	51	52	55
41	1	73	74	94
42	3	90	76	91
43	1	77	78	87
44	1	62	61	67
45	1	9	8	11
46	1	75	76	91
47	3	14	13	16
48	3	53	52	55
49	1	24	23	48
50	3	37	28	38
51	3	5	4	7
52	1	28	29	30
53	1	2	3	8
54	1	57	56	60
55	5	31	70	72
56	1	3	12	17
57	1	78	77	88
58	1	24	25	44
59	1	26	27	39
60	3	94	74	95
61	1	52	51	56
62	1	13	12	18
63	1	21	23	47
64	1	27	28	29
65	5	30	31	32
66	3	63	62	65
67	3	88	77	89
68	1	1	2	3
69	1	8	3	12
70	1	3	12	13
71	1	70	72	73
72	3	54	52	55
73	1	74	73	96
74	1	1	2	19
75	3	19	2	20
76	1	3	4	6
77	1	51	56	57
78	1	52	51	61
79	1	76	75	93
80	1	79	78	86
81	1	3	12	18
82	5	32	31	70
83	3	41	26	42
84	1	26	27	40
85	1	50	51	61
86	1	51	50	69
87	3	6	4	7
88	5	71	70	72
89	3	17	12	18
90	3	92	75	93
91	5	9	21	23
92	1	30	29	35
93	1	77	76	91
94	1	74	75	93
95	1	56	51	61
96	1	29	28	37
97	1	72	73	97
98	3	66	61	67
99	1	27	26	41
100	3	59	56	60
101	2	80	82	83
102	1	21	23	24
103	1	29	30	33
104	1	49	50	68
105	1	12	13	14
106	1	26	25	43
107	3	47	23	48
108	1	23	24	45
109	3	10	8	11
110	1	31	30	33
111	1	28	29	35
112	1	23	24	25
113	1	26	27	28
114	1	27	28	38
115	3	68	50	69
116	1	73	74	95
117	1	29	28	38
118	1	25	26	41
119	1	73	74	75
120	1	70	72	98
121	3	84	79	85
122	1	61	62	63
123	1	29	30	34
124	1	49	50	69
125	1	23	24	46
126	3	64	62	65
127	1	78	77	89
128	1	80	79	84
129	1	28	29	36
130	2	56	57	58
131	1	72	73	74
132	1	75	76	77
133	1	3	8	10
134	1	3	8	9
135	1	21	23	48
136	1	25	26	42
137	1	74	73	97
138	2	8	9	21
139	1	73	72	98
140	1	61	62	64
141	1	1	2	20
142	1	3	4	7
143	1	4	3	12
144	1	51	52	53
145	1	79	78	87
146	1	51	61	66
147	5	22	21	23
148	3	39	27	40
149	1	76	77	88
150	5	79	80	81
151	1	24	25	26
152	1	29	30	31
153	1	28	27	39
154	1	51	61	62
155	3	96	73	97
156	1	73	72	99
157	3	15	13	16
158	1	30	29	36
159	1	51	56	59
160	1	25	24	45
161	3	43	25	44
162	2	2	1	49
163	1	77	78	86
164	1	62	61	66
165	1	27	26	42
166	1	76	77	89
167	1	75	76	90
168	3	53	52	54
169	1	24	23	47
170	1	12	13	15
171	1	26	25	44
172	1	57	56	59
173	1	24	25	43
174	1	9	8	10
175	1	31	30	34
176	1	13	12	17
177	1	3	2	19
178	3	63	62	64
179	1	4	3	8
180	1	70	72	99
181	1	3	8	11
182	3	35	29	36
183	1	12	13	16
184	1	76	75	92
185	1	80	79	85

Dihedrals

1	4	2	3	12	18
2	4	29	28	27	39
3	19	32	31	70	71
4	4	75	76	77	89
5	14	94	74	73	96
6	14	37	28	27	39
7	14	35	29	28	37
8	4	50	51	52	53
9	13	9	21	23	24
10	5	75	76	77	78
10	6	75	76	77	78
10	7	75	76	77	78
11	4	8	3	2	20
12	1	21	23	24	46
13	4	26	25	24	45
14	14	44	25	24	45
15	14	88	77	76	91
16	4	2	3	8	10
17	14	84	79	78	86
18	1	2	3	8	9
19	4	10	8	3	12
20	19	30	31	70	72
21	4	54	52	51	56
22	4	76	77	78	86
23	4	30	29	28	37
24	4	61	51	50	68
25	14	95	74	73	97
26	4	2	3	4	7
27	4	4	3	8	10
28	4	24	25	26	41
29	4	28	27	26	42
30	1	4	3	8	9
31	14	89	77	76	90
32	2	1	49	50	51
33	4	25	26	27	39
34	4	29	28	27	40
35	4	50	51	56	59
36	4	51	61	62	63
37	14	64	62	61	67
38	1	70	72	73	96
39	4	50	51	52	54
40	4	52	51	50	69
41	4	50	51	61	67
42	4	5	4	3	12
43	4	26	25	24	46
44	4	3	12	13	16
45	4	79	78	77	88
46	4	26	27	28	38
47	1	57	56	51	61
48	4	30	29	28	38
49	1	80	79	78	86
50	14	42	26	25	44
51	14	93	75	74	94
52	4	56	51	61	66
53	4	77	76	75	92
54	4	7	4	3	12
55	13	9	21	23	48
56	4	24	25	26	42
57	14	89	77	76	91
58	20	51	56	57	58
58	21	51	56	57	58
59	4	51	61	62	64
60	4	74	73	72	98
61	4	77	78	79	84
62	14	96	73	72	98
63	1	9	8	3	12
64	14	39	27	26	41
65	4	75	74	73	96
66	14	43	25	24	45
67	4	52	51	61	66
68	13	33	30	31	70
69	16	22	21	23	47
69	17	22	21	23	47
69	18	22	21	23	47
70	14	15	13	12	17
71	5	56	51	61	62
71	6	56	51	61	62
71	7	56	51	61	62
72	13	78	79	80	82
73	4	52	51	56	59
74	5	8	3	12	13
74	6	8	3	12	13
74	7	8	3	12	13
75	4	11	8	3	12
76	14	33	30	29	35
77	1	77	78	79	80
78	1	1	2	3	12
79	3	2	1	49	50
80	1	28	29	30	31
81	1	80	79	78	87
82	14	93	75	74	95
83	5	52	51	61	62
83	6	52	51	61	62
83	7	52	51	61	62
84	14	97	73	72	99
85	4	76	75	74	94
86	14	45	24	23	48
87	14	40	27	26	41
88	4	74	73	72	99
89	4	55	52	51	56
90	4	77	78	79	85
91	14	16	13	12	18
92	1	31	30	29	36
93	13	82	80	79	84
94	14	96	73	72	99
95	14	43	25	24	46
96	14	91	76	75	93
97	2	19	2	1	49
98	4	25	24	23	47
99	10	8	9	21	22
99	11	8	9	21	22
100	4	2	3	8	11
101	4	74	75	76	91
102	4	5	4	3	8
103	14	92	75	74	95
104	14	90	76	75	93
105	19	32	31	70	72
106	14	33	30	29	36
107	4	54	52	51	61
108	14	85	79	78	86
109	14	37	28	27	40
110	13	31	70	72	73
111	14	35	29	28	38
112	5	25	26	27	28
112	6	25	26	27	28
112	7	25	26	27	28
113	14	94	74	73	97
114	16	32	31	30	33
114	17	32	31	30	33
114	18	32	31	30	33
115	1	49	50	51	56
116	14	44	25	24	46
117	14	36	29	28	37
118	1	1	2	3	4
119	4	4	3	8	11
120	4	4	3	12	17
121	4	72	73	74	94
122	14	84	79	78	87
123	4	7	4	3	8
124	4	27	26	25	43
125	14	46	24	23	47
126	5	23	24	25	26
126	6	23	24	25	26
126	7	23	24	25	26
127	13	82	80	79	85
128	4	76	77	78	87
129	15	22	21	23	24
130	15	71	70	72	73
131	4	25	24	23	48
132	4	61	51	50	69
133	1	49	50	51	52
134	4	2	3	4	5
135	16	81	80	79	84
135	17	81	80	79	84
135	18	81	80	79	84
136	14	86	78	77	88
137	4	8	3	12	17
138	5	4	3	12	13
138	6	4	3	12	13
138	7	4	3	12	13
139	4	25	26	27	40
140	4	50	51	56	60
141	4	60	56	51	61
142	14	63	62	61	66
143	2	10	8	9	21
144	4	78	77	76	90
145	4	56	51	50	68
146	4	50	51	52	55
147	4	53	52	51	56
148	1	70	72	73	97
149	4	12	3	2	19
150	23	79	80	82	83
151	4	4	3	12	18
152	1	1	2	3	8
153	4	79	78	77	89
154	4	27	26	25	44
155	14	46	24	23	48
156	5	73	74	75	76
156	6	73	74	75	76
156	7	73	74	75	76
157	22	58	57	56	59
158	14	14	13	12	17
159	5	24	25	26	27
159	6	24	25	26	27
159	7	24	25	26	27
160	5	76	77	78	79
160	6	76	77	78	79
160	7	76	77	78	79
161	4	56	51	61	67
162	14	65	62	61	66
163	14	41	26	25	43
164	5	27	28	29	30
164	6	27	28	29	30
164	7	27	28	29	30
165	4	73	74	75	92
166	4	8	3	12	18
167	4	77	76	75	93
168	24	81	80	82	83
168	25	81	80	82	83
169	13	34	30	31	70
170	4	51	61	62	65
171	4	78	77	76	91
172	2	1	49	50	68
173	14	39	27	26	42
174	4	75	74	73	97
175	14	34	30	29	35
176	4	52	51	61	67
177	14	38	28	27	39
178	14	15	13	12	18
179	16	22	21	23	48
179	17	22	21	23	48
179	18	22	21	23	48
180	4	6	4	3	12
181	4	52	51	56	60
182	13	29	30	31	70
183	4	55	52	51	61
184	4	2	3	12	17
185	14	14	13	12	18
186	1	50	51	56	57
187	4	75	76	77	88
188	14	65	62	61	67
189	13	31	70	72	98
190	4	73	74	75	93
191	4	3	12	13	14
192	14	88	77	76	90
193	4	76	75	74	95
194	2	20	2	1	49
195	1	70	72	73	74
196	14	40	27	26	42
197	1	21	23	24	25
198	5	2	3	12	13
198	6	2	3	12	13
198	7	2	3	12	13
199	19	30	31	70	71
200	1	49	50	51	61
201	12	8	9	21	23
202	14	38	28	27	40
203	16	71	70	72	98
203	17	71	70	72	98
203	18	71	70	72	98
204	4	28	27	26	41
205	14	64	62	61	66
206	14	85	79	78	87
207	4	52	51	50	68
208	4	28	29	30	33
209	16	32	31	30	34
209	17	32	31	30	34
209	18	32	31	30	34
210	4	50	51	61	66
211	13	31	70	72	99
212	14	36	29	28	38
213	4	3	12	13	15
214	4	59	56	51	61
215	4	72	73	74	95
216	14	87	78	77	88
217	1	52	51	56	57
218	4	26	27	28	37
219	5	74	75	76	77
219	6	74	75	76	77
219	7	74	75	76	77
220	4	53	52	51	61
221	5	72	73	74	75
221	6	72	73	74	75
221	7	72	73	74	75
222	15	29	30	31	32
223	14	42	26	25	43
224	16	71	70	72	99
224	17	71	70	72	99
224	18	71	70	72	99
225	5	50	51	61	62
225	6	50	51	61	62
225	7	50	51	61	62
226	4	23	24	25	43
227	16	81	80	79	85
227	17	81	80	79	85
227	18	81	80	79	85
228	14	86	78	77	89
229	13	9	21	23	47
230	4	6	4	3	8
231	14	63	62	61	67
232	4	56	51	50	69
233	4	28	29	30	34
234	4	4	3	2	19
235	4	12	3	2	20
236	4	27	28	29	35
237	14	87	78	77	89
238	15	78	79	80	81
239	22	58	57	56	60
240	5	26	27	28	29
240	6	26	27	28	29
240	7	26	27	28	29
241	2	11	8	9	21
242	8	3	8	9	21
242	9	3	8	9	21
243	2	3	2	1	49
244	4	8	3	2	19
245	1	21	23	24	45
246	4	23	24	25	44
247	14	41	26	25	44
248	14	97	73	72	98
249	14	45	24	23	47
250	2	1	49	50	69
251	14	16	13	12	17
252	1	31	30	29	35
253	4	4	3	2	20
254	14	34	30	29	36
255	4	27	28	29	36
256	14	91	76	75	92
257	14	95	74	73	96
258	4	74	75	76	90
259	4	2	3	4	6
260	14	92	75	74	94
261	14	90	76	75	92

Impropers

63	1	80	81	82	79
70	2	31	70	30	32
192	1	21	23	9	22
257	1	80	82	79	81
261	2	31	30	32	70
289	1	80	79	81	82
343	1	21	22	23	9
429	1	21	9	22	23
438	2	70	31	71	72
630	2	31	32	70	30
639	2	70	72	31	71
643	2	70	71	72	31
