Title

65 atoms
66 bonds
115 angles
187 dihedrals
36 impropers

9 atom types
13 bond types
7 angle types
27 dihedral types
2 improper types
-4.046999931 95.95300007 xlo xhi
-6.915999889 93.08400011 ylo yhi
-5.56799984 94.43200016 zlo zhi
0.0 0.0 0.0 xy xz yz

Masses

1	15.99943
2	12.01078
3	1.007947
4	1.007947
5	12.01078
6	15.99943
7	1.007947
8	15.99943
9	1.007947


Pair Coeffs

1	0.16846514	3.0251065
2	0.10884061	3.3795318
3	0.016409246	2.5832257
4	0.015779483	2.6445434
5	0.086879315	3.4806469
6	0.2102061	3.0398122
7	0.015611343	2.5725815
8	0.20947353	2.99716
9	1.2326e-05	0.53453923

Bond Coeffs

1 harmonic	366.7408841747	1.425895053732
2 harmonic	300.03137914615	1.451203938761
3 harmonic	264.62148576755	1.52190126495
4 harmonic	370.04670688625	1.093899492634
5 harmonic	301.15400723785	1.345741232799
6 harmonic	582.698766451	1.225198386222
7 harmonic	279.1350963404	1.454628925034
8 harmonic	399.1592953295	1.371688562017
9 harmonic	369.34270398985	1.364116986116
10 harmonic	397.2545789619	1.085358495916
11 harmonic	329.96998057905	1.427343958716
12 harmonic	543.5267831885	0.9716763312559
13 harmonic	385.7604595587	1.369745182308


Angle Coeffs

1 harmonic	53.20531626545	116.5475862634
2 harmonic	65.09061609600001	110.3538806181
3 harmonic	201.41175231035	127.4691416191
4 harmonic	57.8982893754	126.8062420451
5 harmonic	48.776492647595	115.6030999533
6 harmonic	39.628116874445	129.8027304608
7 harmonic	79.1895422237	112.4630193006


Dihedral Coeffs

1 fourier 1	0.1155372516788	3	0
2 fourier 1	0.1115525666802	3	0
3 fourier 1	0.3432490222662	1	0
4 fourier 1	0.0473758381877	3	0
5 fourier 1	0.457973137376	1	0
6 fourier 1	0.09223874044423	3	0
7 fourier 1	0.3159935921949	2	180
8 fourier 1	0.3247796806857	1	180
9 fourier 1	0.1040663847541	3	0
10 fourier 1	0.1918272375143	3	0
11 fourier 1	0.9202179876409	1	180
12 fourier 1	1.163809172478	2	180
13 fourier 1	0.1679186987369	1	180
14 fourier 1	2.779853741805	2	180
15 fourier 1	0.9974165607242	2	180
16 fourier 1	0.1911926717192	3	0
17 fourier 1	5.294842998052	2	180
18 fourier 1	1.659715194912	2	180
19 fourier 1	0.2347635637734	2	180
20 fourier 1	0.4747469131102	3	0
21 fourier 1	1.163235555439	2	180
22 fourier 1	0.3445382149273	3	0
23 fourier 1	0.1364556373303	1	0
24 fourier 1	0.3026390167484	3	0
25 fourier 1	2.687457892086	2	180
26 fourier 1	2.772607909663	2	180
27 fourier 1	0.09692684957115	1	0


Improper Coeffs

1 3.5	-1	2
2 0.3666666666666667	-1	2


Atoms

1	1	1	-0.17060301	-3.8510001	0.213	1.086
2	1	2	0.035204001	-3.0139999	-0.426	0.162
3	1	2	-0.14525899	-1.5880001	0.119	0.273
4	1	2	-0.14040799	-0.64399999	-0.602	-0.70099998
5	1	2	-0.141627	0.76700002	0.0049999999	-0.71600002
6	1	2	-0.140725	1.551	-0.289	0.574
7	1	2	0.14011499	3.0009999	0.18799999	0.47499999
8	1	1	-0.49516699	3.043	1.5829999	0.35100001
9	1	3	0.074142002	3.497	-0.28999999	-0.40000001
10	1	3	0.074142002	3.5420001	-0.119	1.398
11	1	4	0.090106003	1.0700001	0.21600001	1.439
12	1	4	0.090106003	1.551	-1.3839999	0.76599997
13	1	4	0.086060002	1.318	-0.43200001	-1.577
14	1	4	0.086060002	0.70099998	1.102	-0.88099998
15	1	4	0.086236	-0.58700001	-1.683	-0.44299999
16	1	4	0.086236	-1.061	-0.523	-1.729
17	1	4	0.091192	-1.597	1.2079999	0.046
18	1	4	0.091192	-1.2359999	-0.023	1.316
19	1	3	0.083958998	-3.013	-1.515	0.384
20	1	3	0.083958998	-3.405	-0.28600001	-0.87300003
21	1	5	0.672342	4.0469999	1.835	0.28299999
22	1	6	-0.53808898	4.3790002	2.9230001	-0.25400001
23	1	5	0.24924099	5.072	0.93199998	0.80800003
24	1	5	-0.28958401	4.8369999	-0.236	1.391
25	1	7	0.17431401	3.8670001	-0.685	1.562
26	1	5	-0.30151901	6.138	-0.78899997	1.7539999
27	1	7	0.158952	6.3299999	-1.733	2.2490001
28	1	5	0.301256	7.0469999	0.092	1.359
29	1	5	0.43525001	8.4940004	-0.056000002	1.523
30	1	6	-0.54342002	9.2720003	0.84299999	1.11
31	1	1	-0.22474401	6.4359999	1.186	0.76099998
32	1	1	-0.17060301	-4.0469999	1.114	0.71700001
33	1	2	0.035204001	-2.8110001	1.7539999	0.546
34	1	2	-0.14525899	-2.099	1.209	-0.69499999
35	1	2	-0.140356	-0.76300001	1.9299999	-0.926
36	1	2	-0.136261	0.044	1.323	-2.0840001
37	1	2	-0.167183	-0.57999998	1.6160001	-3.4579999
38	1	2	0.088486001	0.31900001	1.14	-4.5999999
39	1	8	-0.68156397	0.44499999	-0.255	-4.5650001
40	1	9	0.38262299	1.04	-0.49599999	-5.322
41	1	3	0.074914001	1.321	1.617	-4.5170002
42	1	3	0.074914001	-0.139	1.446	-5.5679998
43	1	4	0.093547001	-1.566	1.1109999	-3.5480001
44	1	4	0.093547001	-0.73900002	2.711	-3.5669999
45	1	4	0.086236	1.066	1.76	-2.0539999
46	1	4	0.086236	0.14300001	0.22499999	-1.937
47	1	4	0.086236	-0.94400001	3.01	-1.118
48	1	4	0.086236	-0.149	1.851	-0.0020000001
49	1	4	0.091192	-1.9170001	0.12	-0.56
50	1	4	0.091192	-2.7639999	1.35	-1.574
51	1	3	0.083958998	-2.994	2.8429999	0.41999999
52	1	3	0.083958998	-2.177	1.614	1.451
53	1	5	0.43525001	8.9020004	-0.93800002	1.999
54	1	6	-0.54342002	10.108	-0.949	2.3570001
55	1	5	0.301256	8.0570002	-2.112	2.227
56	1	5	-0.30151999	6.7779999	-2.21	1.893
57	1	7	0.158952	6.1799998	-1.449	1.409
58	1	5	-0.29329401	6.342	-3.5409999	2.3039999
59	1	7	0.17431401	5.3530002	-3.9649999	2.1860001
60	1	5	0.26011801	7.3959999	-4.1339998	2.8529999
61	1	5	0.71656698	7.4260001	-5.4899998	3.411
62	1	6	-0.52976799	6.3920002	-6.21	3.3989999
63	1	8	-0.70003498	8.6070004	-5.9829998	3.9560001
64	1	9	0.393664	8.6499996	-6.9159999	4.3460002
65	1	1	-0.228257	8.493	-3.2839999	2.8299999

Bonds

1	1	1	2
2	2	1	32
3	3	2	3
4	4	2	19
5	4	2	20
6	3	3	4
7	4	3	17
8	4	3	18
9	3	4	5
10	4	4	15
11	4	4	16
12	3	5	6
13	4	5	13
14	4	5	14
15	3	6	7
16	4	6	11
17	4	6	12
18	1	7	8
19	4	7	9
20	4	7	10
21	5	8	21
22	6	21	22
23	7	21	23
24	8	23	24
25	9	23	31
26	10	24	25
27	7	24	26
28	10	26	27
29	8	26	28
30	7	28	29
31	9	28	31
32	6	29	30
33	7	29	53
34	1	32	33
35	3	33	34
36	4	33	51
37	4	33	52
38	3	34	35
39	4	34	49
40	4	34	50
41	3	35	36
42	4	35	47
43	4	35	48
44	3	36	37
45	4	36	45
46	4	36	46
47	3	37	38
48	4	37	43
49	4	37	44
50	11	38	39
51	4	38	41
52	4	38	42
53	12	39	40
54	6	53	54
55	7	53	55
56	8	55	56
57	9	55	65
58	10	56	57
59	7	56	58
60	10	58	59
61	8	58	60
62	7	60	61
63	9	60	65
64	6	61	62
65	13	61	63
66	12	63	64

Angles

1	1	37	36	45
2	1	4	5	6
3	1	32	33	52
4	1	37	36	46
5	6	57	56	58
6	6	58	60	61
7	5	43	37	44
8	1	39	38	41
9	5	49	34	50
10	6	61	60	65
11	1	8	7	9
12	1	38	37	44
13	4	56	58	60
14	1	3	2	19
15	1	1	2	20
16	3	62	61	63
17	5	11	6	12
18	1	37	38	42
19	4	60	61	63
20	1	5	4	15
21	6	53	55	56
22	5	13	5	14
23	1	35	34	50
24	1	3	4	16
25	7	55	65	60
26	2	61	63	64
27	1	34	33	51
28	1	39	38	42
29	7	23	31	28
30	1	2	3	17
31	4	28	29	30
32	1	33	34	35
33	1	37	38	39
34	6	59	58	60
35	4	28	29	53
36	3	8	21	22
37	4	26	28	31
38	1	5	6	7
39	1	36	37	38
40	4	54	53	55
41	1	1	2	3
42	4	29	53	55
43	1	35	36	37
44	6	25	24	26
45	1	2	3	4
46	4	8	21	23
47	2	2	1	32
48	6	55	56	57
49	1	6	7	10
50	1	7	6	11
51	4	24	23	31
52	5	45	36	46
53	1	34	33	52
54	4	30	29	53
55	4	22	21	23
56	1	3	2	20
57	1	36	35	47
58	1	4	3	18
59	6	53	55	65
60	1	4	5	13
61	2	1	32	33
62	1	8	7	10
63	1	4	5	14
64	1	32	33	34
65	1	34	35	47
66	2	7	8	21
67	1	7	6	12
68	5	9	7	10
69	1	6	7	8
70	1	6	5	13
71	6	26	28	29
72	1	2	3	18
73	1	6	5	14
74	1	35	36	45
75	1	3	4	15
76	1	36	37	43
77	4	55	56	58
78	5	15	4	16
79	1	33	34	49
80	1	37	38	41
81	6	21	23	24
82	6	24	26	27
83	1	5	6	11
84	1	1	2	19
85	1	36	35	48
86	5	41	38	42
87	1	32	33	51
88	6	29	28	31
89	6	56	58	59
90	4	58	60	65
91	6	21	23	31
92	5	17	3	18
93	4	56	55	65
94	1	4	3	17
95	1	34	35	48
96	6	27	26	28
97	1	34	35	36
98	4	29	53	54
99	1	38	37	43
100	1	36	37	44
101	5	51	33	52
102	1	35	34	49
103	4	60	61	62
104	6	23	24	25
105	1	5	6	12
106	1	35	36	46
107	4	24	26	28
108	5	47	35	48
109	1	6	7	9
110	1	5	4	16
111	2	38	39	40
112	1	33	34	50
113	5	19	2	20
114	1	3	4	5
115	4	23	24	26

Dihedrals

1	6	34	35	36	37
1	7	34	35	36	37
1	8	34	35	36	37
2	21	55	56	58	59
3	2	8	7	6	11
3	3	8	7	6	11
4	17	21	23	24	26
5	9	2	3	4	15
6	16	11	6	5	13
7	15	30	29	28	31
8	4	3	2	1	32
9	24	40	39	38	41
10	2	1	2	3	17
10	3	1	2	3	17
11	16	11	6	5	14
12	15	31	28	29	53
13	18	55	65	60	61
14	19	54	53	55	56
14	20	54	53	55	56
15	15	8	21	23	24
16	2	32	33	34	49
16	3	32	33	34	49
17	9	37	36	35	47
18	1	36	37	38	39
19	15	30	29	53	54
20	16	17	3	2	19
21	16	42	38	37	44
22	15	62	61	60	65
23	9	33	34	35	48
24	6	33	34	35	36
24	7	33	34	35	36
24	8	33	34	35	36
25	16	47	35	34	50
26	9	6	5	4	15
27	17	59	58	60	61
28	9	7	6	5	13
29	9	3	4	5	13
30	16	10	7	6	12
31	9	36	35	34	50
32	16	50	34	33	52
33	1	5	6	7	8
34	9	4	3	2	20
35	15	54	53	55	65
36	9	7	6	5	14
37	1	1	2	3	4
38	18	23	31	28	29
39	4	1	32	33	51
40	15	8	21	23	31
41	2	8	7	6	12
41	3	8	7	6	12
42	21	25	24	26	28
43	15	28	29	53	55
44	17	59	58	60	65
45	9	5	4	3	18
46	10	6	7	8	21
46	11	6	7	8	21
47	16	48	35	34	50
48	9	35	34	33	51
49	24	40	39	38	42
50	17	21	23	24	25
51	16	46	36	35	48
52	21	25	24	26	27
53	26	62	61	63	64
53	27	62	61	63	64
54	15	30	29	53	55
55	19	22	21	23	24
55	20	22	21	23	24
56	16	45	36	35	47
57	18	55	65	60	58
58	21	55	56	58	60
59	17	57	56	55	65
60	17	27	26	28	31
61	16	44	37	36	45
62	17	56	58	60	61
63	19	58	60	61	62
63	20	58	60	61	62
64	9	34	35	36	45
65	4	19	2	1	32
66	16	9	7	6	11
67	6	2	3	4	5
67	7	2	3	4	5
67	8	2	3	4	5
68	2	39	38	37	43
68	3	39	38	37	43
69	2	32	33	34	50
69	3	32	33	34	50
70	9	4	5	6	12
71	16	43	37	36	45
72	16	14	5	4	16
73	17	56	58	60	65
74	9	37	36	35	48
75	17	58	56	55	65
76	15	22	21	23	31
77	4	1	32	33	52
78	16	15	4	3	18
79	16	49	34	33	51
80	17	53	55	56	57
81	25	60	61	63	64
82	9	35	34	33	52
83	2	1	2	3	18
83	3	1	2	3	18
84	16	18	3	2	20
85	6	4	5	6	7
85	7	4	5	6	7
85	8	4	5	6	7
86	18	24	23	31	28
87	21	57	56	58	59
88	16	9	7	6	12
89	17	26	24	23	31
90	9	5	6	7	9
91	6	35	36	37	38
91	7	35	36	37	38
91	8	35	36	37	38
92	17	24	26	28	31
93	16	13	5	4	16
94	18	56	55	65	60
95	18	53	55	65	60
96	16	14	5	4	15
97	15	58	60	61	63
98	9	36	37	38	41
99	2	39	38	37	44
99	3	39	38	37	44
100	16	45	36	35	48
101	4	20	2	1	32
102	16	16	4	3	18
103	16	44	37	36	46
104	1	32	33	34	35
105	9	34	35	36	46
106	6	3	4	5	6
106	7	3	4	5	6
106	8	3	4	5	6
107	9	35	36	37	43
108	16	43	37	36	46
109	15	29	53	55	56
110	5	2	1	32	33
111	17	25	24	23	31
112	17	27	26	28	29
113	9	38	37	36	45
114	15	63	61	60	65
115	22	37	38	39	40
115	23	37	38	39	40
116	16	41	38	37	43
117	16	13	5	4	15
118	17	53	55	56	58
119	16	17	3	2	20
120	9	36	37	38	42
121	15	28	29	53	54
122	16	15	4	3	17
123	15	29	53	55	65
124	18	23	31	28	26
125	4	9	7	8	21
126	9	4	3	2	19
127	9	5	4	3	17
128	12	7	8	21	22
128	13	7	8	21	22
129	21	57	56	58	60
130	18	21	23	31	28
131	16	18	3	2	19
132	9	33	34	35	47
133	9	2	3	4	16
134	16	47	35	34	49
135	21	23	24	26	28
136	9	35	36	37	44
137	16	42	38	37	43
138	9	36	35	34	49
139	14	7	8	21	23
140	17	24	26	28	29
141	16	50	34	33	51
142	9	3	4	5	14
143	16	49	34	33	52
144	4	10	7	8	21
145	19	26	28	29	30
145	20	26	28	29	30
146	9	4	5	6	11
147	9	6	5	4	16
148	21	23	24	26	27
149	16	48	35	34	49
150	15	26	28	29	53
151	16	41	38	37	44
152	16	16	4	3	17
153	4	1	32	33	34
154	16	12	6	5	13
155	16	46	36	35	47
156	9	5	6	7	10
157	16	10	7	6	11
158	16	12	6	5	14
159	9	38	37	36	46

Impropers

2	2	28	31	26	29
8	2	29	53	28	30
16	2	58	56	59	60
19	1	61	62	63	60
38	2	56	57	58	55
53	2	55	56	65	53
65	2	28	29	31	26
67	2	55	65	53	56
68	2	60	65	58	61
81	2	58	59	60	56
87	2	23	31	21	24
109	2	26	27	28	24
110	2	28	26	29	31
118	2	23	21	24	31
136	2	58	60	56	59
142	2	53	54	55	29
163	1	61	60	62	63
166	1	21	22	23	8
171	2	56	55	57	58
186	2	24	23	25	26
194	2	24	26	23	25
198	2	29	30	53	28
205	2	23	24	31	21
223	2	55	53	56	65
224	2	53	55	29	54
253	2	24	25	26	23
262	2	26	28	24	27
281	1	21	8	22	23
282	2	60	58	61	65
293	2	53	29	54	55
300	2	26	24	27	28
309	2	56	58	55	57
327	1	21	23	8	22
343	2	29	28	30	53
351	2	60	61	65	58
353	1	61	63	60	62
