Title

89 atoms
88 bonds
163 angles
283 dihedrals
12 impropers

8 atom types
11 bond types
5 angle types
31 dihedral types
2 improper types
-3.338000059 96.66199994 xlo xhi
-3.665999889 96.33400011 ylo yhi
-3.602999926 96.39700007 zlo zhi
0.0 0.0 0.0 xy xz yz

Masses

1	15.99943
2	12.01078
3	1.007947
4	12.01078
5	15.99943
6	1.007947
7	15.99943
8	1.007947


Pair Coeffs

1	0.16846514	3.0251065
2	0.10884061	3.3795318
3	0.016409246	2.5832257
4	0.086879315	3.4806469
5	0.2102061	3.0398122
6	0.015779483	2.6445434
7	0.20947353	2.99716
8	1.2326e-05	0.53453923

Bond Coeffs

1 harmonic	366.7408841747	1.425895053732
2 harmonic	300.03137914615	1.451203938761
3 harmonic	264.62148576755	1.52190126495
4 harmonic	370.04670688625	1.093899492634
5 harmonic	301.15400723785	1.345741232799
6 harmonic	582.698766451	1.225198386222
7 harmonic	329.44145381095	1.523435958334
8 harmonic	279.1350963404	1.454628925034
9 harmonic	329.96998057905	1.427343958716
10 harmonic	543.5267831885	0.9716763312559
11 harmonic	385.7604595587	1.369745182308


Angle Coeffs

1 harmonic	53.20531626545	116.5475862634
2 harmonic	65.09061609600001	110.3538806181
3 harmonic	201.41175231035	127.4691416191
4 harmonic	57.8982893754	126.8062420451
5 harmonic	48.776492647595	115.6030999533


Dihedral Coeffs

1 fourier 1	-0.0309670556842	3	0
2 fourier 1	0.4598191477945	2	0
3 fourier 1	0.1115525666802	3	0
4 fourier 1	0.3432490222662	1	0
5 fourier 1	0.0473758381877	3	0
6 fourier 1	0.457973137376	1	0
7 fourier 1	0.4552156463534	3	0
8 fourier 1	-0.03687743385131	2	180
9 fourier 1	0.1918272375143	3	0
10 fourier 1	0.9202179876409	1	180
11 fourier 1	1.163809172478	2	180
12 fourier 1	0.1679186987369	1	180
13 fourier 1	2.779853741805	2	180
14 fourier 1	0.02664938770063	3	0
15 fourier 1	0.1911926717192	3	0
16 fourier 1	0.1155372516788	3	0
17 fourier 1	-0.3703352413219	2	0
18 fourier 1	0.4541676554336	1	0
19 fourier 1	0.1489710476446	2	0
20 fourier 1	0.02960027280666	3	180
21 fourier 1	0.09223874044423	3	0
22 fourier 1	0.3159935921949	2	180
23 fourier 1	0.3247796806857	1	180
24 fourier 1	0.1040663847541	3	0
25 fourier 1	0.9974165607242	2	180
26 fourier 1	0.3445382149273	3	0
27 fourier 1	0.1364556373303	1	0
28 fourier 1	0.3026390167484	3	0
29 fourier 1	2.687457892086	2	180
30 fourier 1	2.772607909663	2	180
31 fourier 1	0.09692684957115	1	0


Improper Coeffs

1 3.5	-1	2
2 0.3666666666666667	-1	2


Atoms

1	1	1	-0.15795401	-3.3380001	-0.667	0.119
2	1	2	0.025985001	-2.119	-0.0080000004	-0.086999997
3	1	2	0.076509997	-1.089	-0.46000001	0.949
4	1	1	-0.49458501	0.102	0.29300001	0.81599998
5	1	2	0.075980999	1.05	-0.41	0.041000001
6	1	2	0.128297	2.2609999	0.486	-0.20200001
7	1	1	-0.492764	3.2379999	-0.20200001	-0.93400002
8	1	3	0.083975002	1.95	1.41	-0.74000001
9	1	3	0.083975002	2.6949999	0.78600001	0.77499998
10	1	3	0.076913998	0.62300003	-0.70200002	-0.94599998
11	1	3	0.076913998	1.3890001	-1.322	0.583
12	1	3	0.078218997	-1.5039999	-0.26499999	1.961
13	1	3	0.078218997	-0.93199998	-1.563	0.88
14	1	3	0.081988998	-2.2850001	1.086	0.017000001
15	1	3	0.081988998	-1.745	-0.20100001	-1.118
16	1	4	0.76196897	2.915	-0.21600001	-1.9220001
17	1	5	-0.55067003	3.4690001	-0.95499998	-2.7190001
18	1	2	-0.208149	1.7819999	0.65700001	-2.375
19	1	2	-0.11514	1.227	1.492	-1.211
20	1	2	-0.13581499	-0.0089999996	2.3150001	-1.609
21	1	2	-0.141155	0.35100001	3.55	-2.4530001
22	1	2	-0.141155	-0.88700002	4.3239999	-2.941
23	1	2	-0.138476	-1.77	4.915	-1.827
24	1	2	-0.096827999	-1.027	5.9289999	-0.94499999
25	1	2	-0.25726101	-1.9910001	6.6279998	0.02
26	1	4	0.51772702	-1.2690001	7.6079998	0.89600003
27	1	5	-0.68093902	-1.888	8.2530003	1.727
28	1	6	0.114524	-2.77	7.171	-0.55800003
29	1	6	0.114524	-2.4890001	5.8699999	0.66299999
30	1	6	0.077955	-0.248	5.4039998	-0.352
31	1	6	0.077955	-0.53600001	6.691	-1.589
32	1	6	0.079673	-2.628	5.4260001	-2.3169999
33	1	6	0.079673	-2.1949999	4.1030002	-1.2
34	1	6	0.081550002	-0.54699999	5.151	-3.6029999
35	1	6	0.081550002	-1.51	3.6470001	-3.5650001
36	1	6	0.081550002	1.024	4.2210002	-1.8789999
37	1	6	0.081550002	0.91100001	3.2279999	-3.355
38	1	6	0.079673	-0.73199999	1.673	-2.158
39	1	6	0.079673	-0.498	2.651	-0.67000002
40	1	6	0.086769	0.92900002	0.801	-0.391
41	1	6	0.086769	2.0179999	2.165	-0.81400001
42	1	6	0.117892	0.97799999	0.012	-2.79
43	1	6	0.117892	2.1570001	1.323	-3.1800001
44	1	1	-0.15795401	-3.2249999	-1.589	-0.233
45	1	2	0.025985001	-2.3540001	-2.2479999	0.64499998
46	1	2	0.076635003	-0.91299999	-1.796	0.403
47	1	1	-0.492412	-0.023	-2.549	1.205
48	1	2	0.048762999	0.296	-1.845	2.3870001
49	1	2	0.070758998	1.138	-2.7420001	3.29
50	1	7	-0.68579102	1.506	-2.053	4.454
51	1	8	0.38288301	0.70599997	-2.04	5.0409999
52	1	3	0.077625997	0.57300001	-3.6659999	3.546
53	1	3	0.077625997	2.0610001	-3.0420001	2.7490001
54	1	3	0.079135001	-0.62599999	-1.553	2.941
55	1	3	0.079135001	0.88700002	-0.93300003	2.1440001
56	1	3	0.078218997	-0.66100001	-1.9910001	-0.66100001
57	1	3	0.078218997	-0.82599998	-0.69199997	0.55000001
58	1	3	0.081988998	-2.4289999	-3.3410001	0.463
59	1	3	0.081988998	-2.651	-2.0550001	1.7
60	1	4	0.51772702	-0.198	7.7540002	0.80299997
61	1	5	-0.68093902	0.55900002	7.164	1.558
62	1	2	-0.25726101	0.34400001	8.665	-0.25999999
63	1	2	-0.096827999	1.073	9.8769999	0.336
64	1	2	-0.138476	0.115	10.826	1.0700001
65	1	2	-0.141155	0.86199999	12.05	1.614
66	1	2	-0.141155	-0.096000001	12.992	2.359
67	1	2	-0.13581499	0.58200002	14.297	2.8039999
68	1	2	-0.112604	1.566	14.086	3.9679999
69	1	2	-0.218247	2.178	15.406	4.4559999
70	1	4	0.824754	1.1670001	16.261	5.158
71	1	5	-0.55192399	0.67500001	17.264999	4.5770001
72	1	7	-0.66451102	0.75199997	15.928	6.4429998
73	1	8	0.39546001	0.061999999	16.489	6.928
74	1	6	0.118924	2.9990001	15.18	5.1690001
75	1	6	0.118924	2.622	15.96	3.5999999
76	1	6	0.086769	1.054	13.576	4.8140001
77	1	6	0.086769	2.3989999	13.433	3.632
78	1	6	0.079673	1.109	14.762	1.942
79	1	6	0.079673	-0.21600001	14.999	3.128
80	1	6	0.081550002	-0.528	12.472	3.2420001
81	1	6	0.081550002	-0.93599999	13.258	1.681
82	1	6	0.081550002	1.66	11.704	2.3039999
83	1	6	0.081550002	1.334	12.596	0.76800001
84	1	6	0.079673	-0.36700001	10.288	1.916
85	1	6	0.079673	-0.67900002	11.162	0.36700001
86	1	6	0.077955	1.8710001	9.5299997	1.03
87	1	6	0.077955	1.564	10.429	-0.495
88	1	6	0.114524	-0.48899999	9.0100002	-0.91000003
89	1	6	0.114524	1.051	8.0900002	-0.89499998

Bonds

1	1	1	2
2	2	1	44
3	3	2	3
4	4	2	14
5	4	2	15
6	1	3	4
7	4	3	12
8	4	3	13
9	1	4	5
10	3	5	6
11	4	5	10
12	4	5	11
13	1	6	7
14	4	6	8
15	4	6	9
16	5	7	16
17	6	16	17
18	7	16	18
19	3	18	19
20	4	18	42
21	4	18	43
22	3	19	20
23	4	19	40
24	4	19	41
25	3	20	21
26	4	20	38
27	4	20	39
28	3	21	22
29	4	21	36
30	4	21	37
31	3	22	23
32	4	22	34
33	4	22	35
34	3	23	24
35	4	23	32
36	4	23	33
37	3	24	25
38	4	24	30
39	4	24	31
40	7	25	26
41	4	25	28
42	4	25	29
43	6	26	27
44	8	26	60
45	1	44	45
46	3	45	46
47	4	45	58
48	4	45	59
49	1	46	47
50	4	46	56
51	4	46	57
52	1	47	48
53	3	48	49
54	4	48	54
55	4	48	55
56	9	49	50
57	4	49	52
58	4	49	53
59	10	50	51
60	6	60	61
61	7	60	62
62	3	62	63
63	4	62	88
64	4	62	89
65	3	63	64
66	4	63	86
67	4	63	87
68	3	64	65
69	4	64	84
70	4	64	85
71	3	65	66
72	4	65	82
73	4	65	83
74	3	66	67
75	4	66	80
76	4	66	81
77	3	67	68
78	4	67	78
79	4	67	79
80	3	68	69
81	4	68	76
82	4	68	77
83	7	69	70
84	4	69	74
85	4	69	75
86	6	70	71
87	11	70	72
88	10	72	73

Angles

1	1	67	66	81
2	1	63	62	89
3	1	47	48	54
4	1	62	63	87
5	2	46	47	48
6	2	49	50	51
7	1	2	3	12
8	1	16	18	42
9	1	18	19	40
10	4	69	70	72
11	1	25	24	31
12	5	82	65	83
13	1	4	5	11
14	1	1	2	15
15	1	20	21	37
16	1	24	25	29
17	1	18	19	20
18	1	22	23	33
19	1	45	46	56
20	1	66	67	79
21	1	45	46	57
22	4	25	26	27
23	5	30	24	31
24	5	36	21	37
25	1	5	6	8
26	1	6	5	10
27	1	46	45	58
28	5	56	46	57
29	5	12	3	13
30	1	60	62	63
31	1	20	21	22
32	1	2	3	13
33	5	74	69	75
34	1	21	22	23
35	5	54	48	55
36	1	50	49	53
37	1	49	48	54
38	1	4	5	6
39	2	6	7	16
40	2	3	4	5
41	1	48	49	52
42	1	21	20	39
43	1	24	23	32
44	4	26	60	61
45	1	62	63	64
46	1	5	6	9
47	1	47	46	56
48	1	65	66	67
49	1	19	20	38
50	5	10	5	11
51	1	24	25	26
52	1	46	45	59
53	1	16	18	19
54	5	78	67	79
55	5	42	18	43
56	1	23	22	35
57	5	34	22	35
58	1	22	21	37
59	1	24	23	33
60	1	20	19	41
61	4	26	60	62
62	1	64	63	87
63	1	47	46	57
64	1	19	20	39
65	1	3	2	15
66	1	19	18	43
67	5	32	23	33
68	4	17	16	18
69	1	66	67	68
70	1	68	69	74
71	5	14	2	15
72	1	67	68	76
73	1	63	64	84
74	1	16	18	43
75	1	18	19	41
76	1	60	62	88
77	4	25	26	60
78	1	6	5	11
79	1	68	69	70
80	2	1	44	45
81	5	28	25	29
82	1	63	64	85
83	1	4	3	12
84	1	60	62	89
85	5	84	64	85
86	1	63	64	65
87	5	58	45	59
88	1	47	48	55
89	1	69	68	76
90	1	48	49	53
91	1	23	24	25
92	1	45	46	47
93	1	68	67	78
94	1	7	6	8
95	1	4	3	13
96	1	23	24	30
97	5	52	49	53
98	1	67	68	69
99	5	76	68	77
100	5	8	6	9
101	5	38	20	39
102	1	65	64	84
103	1	44	45	46
104	1	63	62	88
105	1	70	69	74
106	4	27	26	60
107	4	61	60	62
108	1	69	68	77
109	5	88	62	89
110	1	65	66	80
111	3	7	16	17
112	1	64	65	66
113	1	25	24	30
114	1	68	67	79
115	1	1	2	14
116	1	20	21	36
117	1	47	48	49
118	1	64	65	82
119	1	7	6	9
120	1	49	48	55
121	1	1	2	3
122	1	66	65	82
123	1	48	49	50
124	2	70	72	73
125	1	65	64	85
126	1	68	69	75
127	1	5	6	7
128	5	40	19	41
129	1	70	69	75
130	1	4	5	10
131	5	80	66	81
132	1	67	68	77
133	5	86	63	87
134	1	65	66	81
135	2	2	1	44
136	4	7	16	18
137	1	50	49	52
138	1	64	65	83
139	1	66	65	83
140	1	19	20	21
141	1	22	23	24
142	3	71	70	72
143	1	21	20	38
144	1	26	25	28
145	1	21	22	34
146	1	44	45	58
147	1	2	3	4
148	1	23	22	34
149	1	67	66	80
150	1	62	63	86
151	1	22	21	36
152	4	69	70	71
153	1	20	19	40
154	1	64	63	86
155	1	24	25	28
156	1	3	2	14
157	1	19	18	42
158	1	26	25	29
159	1	23	24	31
160	1	22	23	32
161	1	66	67	78
162	1	21	22	35
163	1	44	45	59

Dihedrals

1	15	80	66	65	83
2	24	23	24	25	29
3	24	66	65	64	84
4	15	75	69	68	77
5	21	20	21	22	23
5	22	20	21	22	23
5	23	20	21	22	23
6	3	44	45	46	56
6	4	44	45	46	56
7	15	53	49	48	54
8	5	3	4	5	11
9	15	74	69	68	77
10	24	18	19	20	39
11	15	78	67	66	81
12	15	33	23	22	35
13	24	21	22	23	32
14	16	70	69	68	76
15	21	66	67	68	69
15	22	66	67	68	69
15	23	66	67	68	69
16	3	7	6	5	10
16	4	7	6	5	10
17	15	40	19	18	43
18	15	37	21	20	38
19	16	60	62	63	64
20	24	20	19	18	43
21	7	45	46	47	48
21	8	45	46	47	48
22	15	41	19	18	42
23	24	67	66	65	82
24	3	50	49	48	55
24	4	50	49	48	55
25	15	29	25	24	31
26	24	22	23	24	31
27	7	2	3	4	5
27	8	2	3	4	5
28	15	56	46	45	58
29	24	64	63	62	88
30	15	12	3	2	14
31	3	4	3	2	14
31	4	4	3	2	14
32	24	19	20	21	37
33	25	27	26	60	61
34	1	47	48	49	50
34	2	47	48	49	50
35	24	65	64	63	86
36	3	44	45	46	57
36	4	44	45	46	57
37	15	28	25	24	30
38	7	3	4	5	6
38	8	3	4	5	6
39	16	23	24	25	26
40	21	21	22	23	24
40	22	21	22	23	24
40	23	21	22	23	24
41	14	29	25	26	60
42	15	57	46	45	59
43	15	41	19	18	43
44	24	23	22	21	36
45	5	46	47	48	55
46	28	51	50	49	53
47	24	67	66	65	83
48	21	19	20	21	22
48	22	19	20	21	22
48	23	19	20	21	22
49	15	83	65	64	84
50	14	26	60	62	63
51	16	26	25	24	31
52	5	1	44	45	58
53	15	56	46	45	59
54	24	66	67	68	77
55	24	64	63	62	89
56	24	67	68	69	75
57	15	12	3	2	15
58	18	61	60	62	88
58	19	61	60	62	88
58	20	61	60	62	88
59	25	27	26	60	62
60	24	65	64	63	87
61	29	69	70	72	73
62	15	84	64	63	86
63	24	64	65	66	81
64	3	4	5	6	8
64	4	4	5	6	8
65	14	24	25	26	60
66	24	65	66	67	78
67	24	22	21	20	38
68	24	62	63	64	84
69	15	83	65	64	85
70	15	87	63	62	89
71	5	1	44	45	59
72	15	52	49	48	54
73	15	34	22	21	36
74	7	46	47	48	49
74	8	46	47	48	49
75	18	71	70	69	74
75	19	71	70	69	74
75	20	71	70	69	74
76	15	76	68	67	78
77	1	44	45	46	47
77	2	44	45	46	47
78	14	7	16	18	42
79	15	36	21	20	38
80	15	9	6	5	10
81	3	4	5	6	9
81	4	4	5	6	9
82	3	7	6	5	11
82	4	7	6	5	11
83	5	5	4	3	12
84	24	66	65	64	85
85	24	69	68	67	78
86	24	21	20	19	40
87	24	62	63	64	85
88	30	71	70	72	73
88	31	71	70	72	73
89	24	21	22	23	33
90	16	70	69	68	77
91	21	62	63	64	65
91	22	62	63	64	65
91	23	62	63	64	65
92	15	13	3	2	14
93	15	37	21	20	39
94	15	31	24	23	32
95	18	71	70	69	75
95	19	71	70	69	75
95	20	71	70	69	75
96	15	76	68	67	79
97	16	16	18	19	40
98	15	36	21	20	39
99	15	32	23	22	34
100	5	5	4	3	13
101	15	30	24	23	32
102	14	26	60	62	88
103	16	16	18	19	20
104	3	4	3	2	15
104	4	4	3	2	15
105	24	69	68	67	79
106	18	17	16	18	42
106	19	17	16	18	42
106	20	17	16	18	42
107	24	21	20	19	41
108	15	28	25	24	31
109	5	8	6	7	16
110	16	60	62	63	86
111	3	47	46	45	58
111	4	47	46	45	58
112	24	25	24	23	32
113	24	24	23	22	34
114	21	63	64	65	66
114	22	63	64	65	66
114	23	63	64	65	66
115	14	7	16	18	19
116	21	18	19	20	21
116	22	18	19	20	21
116	23	18	19	20	21
117	5	14	2	1	44
118	15	31	24	23	33
119	24	23	22	21	37
120	5	48	47	46	56
121	3	50	49	48	54
121	4	50	49	48	54
122	15	38	20	19	40
123	15	53	49	48	55
124	24	63	64	65	82
125	15	35	22	21	36
126	14	26	60	62	89
127	3	47	48	49	52
127	4	47	48	49	52
128	15	52	49	48	55
129	18	61	60	62	89
129	19	61	60	62	89
129	20	61	60	62	89
130	1	1	2	3	4
130	2	1	2	3	4
131	14	28	25	26	60
132	15	82	65	64	84
133	15	81	66	65	82
134	15	84	64	63	87
135	15	85	64	63	86
136	16	60	62	63	87
137	3	47	46	45	59
137	4	47	46	45	59
138	24	25	24	23	33
139	24	23	24	25	28
140	24	65	66	67	79
141	15	75	69	68	76
142	5	48	47	46	57
143	5	46	47	48	54
144	15	77	68	67	78
145	15	8	6	5	10
146	24	22	21	20	39
147	15	79	67	66	80
148	15	39	20	19	40
149	17	24	25	26	27
150	15	38	20	19	41
151	15	9	6	5	11
152	24	63	64	65	83
153	21	22	23	24	25
153	22	22	23	24	25
153	23	22	23	24	25
154	15	78	67	66	80
155	21	64	65	66	67
155	22	64	65	66	67
155	23	64	65	66	67
156	11	6	7	16	17
156	12	6	7	16	17
157	17	17	16	18	19
158	3	47	48	49	53
158	4	47	48	49	53
159	15	40	19	18	42
160	24	20	19	18	42
161	15	34	22	21	37
162	15	85	64	63	87
163	9	5	6	7	16
163	10	5	6	7	16
164	14	7	16	18	43
165	15	29	25	24	30
166	14	72	70	69	74
167	5	3	4	5	10
168	24	20	21	22	34
169	3	1	2	3	12
169	4	1	2	3	12
170	24	19	20	21	36
171	15	79	67	66	81
172	15	77	68	67	79
173	5	9	6	7	16
174	18	27	26	25	28
174	19	27	26	25	28
174	20	27	26	25	28
175	15	39	20	19	41
176	24	68	67	66	80
177	15	86	63	62	88
178	13	6	7	16	18
179	15	13	3	2	15
180	5	15	2	1	44
181	25	25	26	60	61
182	15	57	46	45	58
183	17	68	69	70	71
184	28	51	50	49	52
185	16	16	18	19	41
186	14	72	70	69	75
187	16	26	25	24	30
188	15	32	23	22	35
189	24	66	67	68	76
190	24	20	21	22	35
191	3	1	2	3	13
191	4	1	2	3	13
192	15	30	24	23	33
193	24	67	68	69	74
194	5	3	2	1	44
195	18	17	16	18	43
195	19	17	16	18	43
195	20	17	16	18	43
196	24	64	65	66	80
197	18	27	26	25	29
197	19	27	26	25	29
197	20	27	26	25	29
198	24	68	67	66	81
199	15	86	63	62	89
200	15	80	66	65	82
201	1	4	5	6	7
201	2	4	5	6	7
202	24	24	23	22	35
203	16	67	68	69	70
204	6	2	1	44	45
205	21	65	66	67	68
205	22	65	66	67	68
205	23	65	66	67	68
206	25	25	26	60	62
207	14	68	69	70	72
208	15	74	69	68	76
209	15	87	63	62	88
210	24	18	19	20	38
211	15	35	22	21	37
212	15	33	23	22	34
213	17	61	60	62	63
214	5	1	44	45	46
215	15	8	6	5	11
216	15	81	66	65	83
217	15	82	65	64	85
218	26	48	49	50	51
218	27	48	49	50	51
219	24	22	23	24	30

Impropers

99	1	70	69	71	72
107	2	26	27	60	25
146	1	16	17	18	7
257	1	16	18	7	17
263	2	60	61	62	26
384	1	70	71	72	69
412	2	60	26	61	62
452	1	70	72	69	71
495	1	16	7	17	18
509	2	60	62	26	61
514	2	26	25	27	60
517	2	26	60	25	27
