Title

9625 atoms
9750 bonds
17375 angles
28875 dihedrals
4500 impropers

9 atom types
13 bond types
7 angle types
27 dihedral types
2 improper types
-7.126889599 74.443379 xlo xhi
-6.935659602 75.20203751 ylo yhi
-7.209445916 75.94482275 zlo zhi
0.0 0.0 0.0 xy xz yz

Masses

1	15.99943
2	12.01078
3	1.007947
4	1.007947
5	12.01078
6	15.99943
7	1.007947
8	15.99943
9	1.007947


Pair Coeffs

1	0.16846514	3.0251065
2	0.10884061	3.3795318
3	0.016409246	2.5832257
4	0.015779483	2.6445434
5	0.086879315	3.4806469
6	0.2102061	3.0398122
7	0.015611343	2.5725815
8	0.20947353	2.99716
9	1.2326e-05	0.53453923

Bond Coeffs

1 harmonic	366.7408841747	1.425895053732
2 harmonic	300.03137914615	1.451203938761
3 harmonic	264.62148576755	1.52190126495
4 harmonic	370.04670688625	1.093899492634
5 harmonic	301.15400723785	1.345741232799
6 harmonic	582.698766451	1.225198386222
7 harmonic	279.1350963404	1.454628925034
8 harmonic	399.1592953295	1.371688562017
9 harmonic	369.34270398985	1.364116986116
10 harmonic	397.2545789619	1.085358495916
11 harmonic	329.96998057905	1.427343958716
12 harmonic	543.5267831885	0.9716763312559
13 harmonic	385.7604595587	1.369745182308


Angle Coeffs

1 harmonic	53.20531626545	116.5475862634
2 harmonic	65.09061609600001	110.3538806181
3 harmonic	201.41175231035	127.4691416191
4 harmonic	57.8982893754	126.8062420451
5 harmonic	48.776492647595	115.6030999533
6 harmonic	39.628116874445	129.8027304608
7 harmonic	79.1895422237	112.4630193006


Dihedral Coeffs

1 fourier 1	0.1155372516788	3	0
2 fourier 1	0.1115525666802	3	0
3 fourier 1	0.3432490222662	1	0
4 fourier 1	0.0473758381877	3	0
5 fourier 1	0.457973137376	1	0
6 fourier 1	0.09223874044423	3	0
7 fourier 1	0.3159935921949	2	180
8 fourier 1	0.3247796806857	1	180
9 fourier 1	0.1040663847541	3	0
10 fourier 1	0.1918272375143	3	0
11 fourier 1	0.9202179876409	1	180
12 fourier 1	1.163809172478	2	180
13 fourier 1	0.1679186987369	1	180
14 fourier 1	2.779853741805	2	180
15 fourier 1	0.9974165607242	2	180
16 fourier 1	0.1911926717192	3	0
17 fourier 1	5.294842998052	2	180
18 fourier 1	1.659715194912	2	180
19 fourier 1	0.2347635637734	2	180
20 fourier 1	0.4747469131102	3	0
21 fourier 1	1.163235555439	2	180
22 fourier 1	0.3445382149273	3	0
23 fourier 1	0.1364556373303	1	0
24 fourier 1	0.3026390167484	3	0
25 fourier 1	2.687457892086	2	180
26 fourier 1	2.772607909663	2	180
27 fourier 1	0.09692684957115	1	0


Improper Coeffs

1 3.5	-1	2
2 0.3666666666666667	-1	2


Atoms

1	4	1	-0.17288468	0.99990812	-1.0585815	2.5660287
2	4	2	0.034650988	0.40075464	-0.27508178	1.5691139
3	4	2	-0.1457082	1.2747992	0.94654409	1.2604583
4	4	2	-0.13948261	0.65175594	1.8600895	0.18265834
5	4	2	-0.14189158	0.03069588	3.1519263	0.74739473
6	4	2	-0.1419419	-1.1819165	2.9369216	1.6689447
7	4	2	-0.14075189	-2.4009604	2.3694152	0.92613826
8	4	2	-0.1411671	-3.6148597	2.274125	1.8602503
9	4	2	0.13959724	-4.8243211	1.6396591	1.1668261
10	4	1	-0.4959809	-5.3112343	2.4780532	0.151507
11	4	3	0.072732164	-4.5631105	0.63148366	0.76850677
12	4	3	0.072732164	-5.6294433	1.4994657	1.917739
13	4	4	0.088953188	-3.8916413	3.2883349	2.2238258
14	4	4	0.088953188	-3.3499801	1.6505814	2.7419567
15	4	4	0.084963268	-2.1687185	1.3557942	0.53654595
16	4	4	0.084963268	-2.645777	3.0316672	0.067347737
17	4	4	0.083209059	-1.4586666	3.9246918	2.098056
18	4	4	0.083209059	-0.90688117	2.2810675	2.5208871
19	4	4	0.083209059	-0.27290784	3.8022325	-0.10188943
20	4	4	0.083209059	0.81024549	3.7072052	1.3124591
21	4	4	0.085138551	-0.084510842	1.3105194	-0.44176934
22	4	4	0.085138551	1.4631665	2.1698038	-0.51253081
23	4	4	0.090019799	2.2577178	0.58036999	0.88952354
24	4	4	0.090019799	1.4729969	1.5119954	2.1964842
25	4	3	0.082466594	0.2452271	-0.88019506	0.64662261
26	4	3	0.082466594	-0.59461083	0.047085685	1.9333785
27	5	5	0.67153083	-4.8249268	2.2050783	-0.7228812
28	5	6	-0.54198558	-5.4620007	2.1928376	-1.8085722
29	5	5	0.24701544	-3.4089442	1.8348893	-0.69706745
30	5	5	-0.29231537	-2.6438402	1.8121148	0.3861238
31	5	7	0.17218796	-2.9501377	2.0602207	1.3939171
32	5	5	-0.30378861	-1.3174984	1.3893357	-0.051010395
33	5	7	0.15676043	-0.43834375	1.2586784	0.56712202
34	5	5	0.29878502	-1.3956956	1.1925743	-1.3607055
35	5	5	0.43437146	-0.28974913	0.75933853	-2.2159097
36	5	6	-0.55065937	-0.47099386	0.60203336	-3.4515008
37	5	1	-0.22617378	-2.6794437	1.4566359	-1.8161342
38	1	1	-0.17288468	1.738636	-1.5579815	2.1291639
39	1	2	0.034650988	1.1661774	-2.2772438	1.070366
40	1	2	-0.1457082	0.42262917	-3.506153	1.6072378
41	1	2	-0.13948261	-0.21014038	-4.3510571	0.48033904
42	1	2	-0.14189158	0.55713517	-5.6508428	0.17254982
43	1	2	-0.14189158	1.9742722	-5.4470744	-0.39027264
44	1	2	-0.13539759	1.9726587	-4.8126881	-1.7895072
45	1	2	-0.16763184	3.3975615	-4.7289993	-2.3535828
46	1	2	0.087907455	3.4363549	-4.0306188	-3.7158036
47	1	8	-0.68244077	2.7895965	-4.8068164	-4.6893964
48	1	9	0.3812935	1.8393146	-4.5190899	-4.7043603
49	1	3	0.073242879	2.9869414	-3.012954	-3.6462694
50	1	3	0.073242879	4.4968998	-3.904433	-4.0185703
51	1	4	0.092374458	3.8242641	-5.7514162	-2.4540304
52	1	4	0.092374458	4.0374368	-4.1560147	-1.6470914
53	1	4	0.085138551	1.5470087	-3.7886046	-1.7400999
54	1	4	0.085138551	1.3420115	-5.4270307	-2.4673392
55	1	4	0.083209059	2.4573762	-6.4458654	-0.45559609
56	1	4	0.083209059	2.5830086	-4.8392795	0.31077678
57	1	4	0.083209059	-0.035081762	-6.2521656	-0.55075306
58	1	4	0.083209059	0.62989561	-6.2525053	1.1049854
59	1	4	0.085138551	-0.35707799	-3.7539925	-0.44405872
60	1	4	0.085138551	-1.2297694	-4.6494494	0.8096349
61	1	4	0.090019799	-0.38815871	-3.1493889	2.2803554
62	1	4	0.090019799	1.1110001	-4.1201152	2.2273619
63	1	3	0.082466594	0.46938306	-1.6255748	0.49634232
64	1	3	0.082466594	1.9783073	-2.5893997	0.3843911
65	2	5	0.43437158	0.68854461	0.57125938	-1.7916308
66	2	6	-0.55065949	1.5569841	-0.031310722	-2.4759159
67	2	5	0.29878487	1.0004575	1.0129657	-0.43159775
68	2	5	-0.30378864	0.16459083	1.6527137	0.37449801
69	2	7	0.15676043	-0.85520759	1.9379145	0.1500059
70	2	5	-0.29608194	0.89071497	1.8935399	1.6182546
71	2	7	0.17218798	0.5154616	2.3941622	2.5018966
72	2	5	0.25789653	2.1042491	1.378128	1.4558613
73	2	5	0.71564155	3.1818631	1.3865591	2.4510432
74	2	6	-0.53432316	3.0049392	1.9149991	3.5819433
75	2	8	-0.70104153	4.4071304	0.80647548	2.1417183
76	2	9	0.39228471	5.1643005	0.80124577	2.8136247
77	2	1	-0.22970506	2.224116	0.81623678	0.19306911
78	4	1	-0.17288468	-2.744223	-0.048620771	15.742104
79	4	2	0.034650988	-1.6079473	0.16960092	14.949669
80	4	2	-0.1457082	-1.1371419	1.6223148	15.089515
81	4	2	-0.13948261	0.10132152	1.9271014	14.219047
82	4	2	-0.14189158	-0.21623725	2.7446301	12.952442
83	4	2	-0.1419419	-1.1107025	2.0270097	11.927326
84	4	2	-0.14075189	-0.42319731	0.81328256	11.283823
85	4	2	-0.1411671	-1.3101824	0.19672072	10.193728
86	4	2	0.13959724	-0.68280464	-1.0621103	9.587162
87	4	1	-0.4959809	0.47613565	-0.74022297	8.863209
88	4	3	0.072732164	-0.46770286	-1.8143148	10.38166
89	4	3	0.072732164	-1.4132786	-1.5199378	8.8882001
90	4	4	0.088953188	-1.4894182	0.94154969	9.3871792
91	4	4	0.088953188	-2.2929099	-0.079543912	10.634521
92	4	4	0.084963268	-0.2164209	0.04209887	12.055616
93	4	4	0.084963268	0.5425397	1.1353856	10.837017
94	4	4	0.083209059	-1.3588919	2.7574892	11.126564
95	4	4	0.083209059	-2.0698588	1.7255731	12.397166
96	4	4	0.083209059	0.74054054	3.0264953	12.46103
97	4	4	0.083209059	-0.71279402	3.6925667	13.252738
98	4	4	0.085138551	0.65556281	0.99999289	13.9596
99	4	4	0.085138551	0.80467797	2.5368602	14.828212
100	4	4	0.090019799	-0.87208154	1.7960201	16.155992
101	4	4	0.090019799	-1.9739738	2.3126441	14.84802
102	4	3	0.082466594	-0.79274496	-0.52957365	15.246218
103	4	3	0.082466594	-1.8732108	-0.048389306	13.896413
104	5	5	0.67153083	1.2728546	-0.81313456	9.523124
105	5	6	-0.54198558	2.3664938	-1.2920678	9.1239819
106	5	5	0.24701544	1.1287346	-0.36468647	10.909067
107	5	5	-0.29231537	0.026572248	0.15292829	11.434917
108	5	7	0.17218796	-0.91301827	0.3168736	10.923729
109	5	5	-0.30378861	0.33356897	0.45458516	12.829108
110	5	7	0.15676043	-0.33280705	0.88751897	13.564352
111	5	5	0.29878502	1.5947398	0.092697557	13.025619
112	5	5	0.43437146	2.3209059	0.21841736	14.290159
113	5	6	-0.55065937	3.5197638	-0.15660925	14.370002
114	5	1	-0.22617378	2.1392732	-0.42505531	11.859185
115	1	1	-0.17288468	-2.4263329	-0.12457883	16.679732
116	1	2	0.034650988	-1.47879	-1.1579447	16.700159
117	1	2	-0.1457082	-2.1809743	-2.5200632	16.64646
118	1	2	-0.13948261	-1.1846665	-3.6989024	16.689702
119	1	2	-0.14189158	-1.1275455	-4.4145985	18.052568
120	1	2	-0.14189158	-0.59671972	-3.5547153	19.212479
121	1	2	-0.13539759	0.88708686	-3.190327	19.051715
122	1	2	-0.16763184	1.3989656	-2.4270102	20.280886
123	1	2	0.087907455	2.8552481	-1.9830819	20.116402
124	1	8	-0.68244077	3.7124253	-3.0936563	20.093298
125	1	9	0.3812935	3.8133205	-3.3614328	19.142424
126	1	3	0.073242879	2.9733299	-1.3623431	19.198148
127	1	3	0.073242879	3.1314477	-1.3475502	20.983673
128	1	4	0.092374458	1.3114802	-3.0675123	21.186206
129	1	4	0.092374458	0.7716438	-1.5219794	20.43667
130	1	4	0.085138551	1.0250996	-2.5539234	18.152655
131	1	4	0.085138551	1.4789512	-4.1216695	18.921766
132	1	4	0.083209059	-0.71719483	-4.1411755	20.14885
133	1	4	0.083209059	-1.2116567	-2.6377905	19.32449
134	1	4	0.083209059	-0.49027963	-5.3199307	17.953863
135	1	4	0.083209059	-2.1488477	-4.7690117	18.313454
136	1	4	0.085138551	-0.16903656	-3.3869581	16.367561
137	1	4	0.085138551	-1.5171584	-4.4536729	15.943453
138	1	4	0.090019799	-2.7523398	-2.5739669	15.69337
139	1	4	0.090019799	-2.9215357	-2.5934157	17.472018
140	1	3	0.082466594	-0.77707492	-1.0520387	15.842209
141	1	3	0.082466594	-0.8874292	-1.0674934	17.63272
142	2	5	0.43437158	1.8320284	0.63315174	15.162764
143	2	6	-0.55065949	2.3713917	0.51063654	16.293958
144	2	5	0.29878487	0.55230064	1.3308236	15.029968
145	2	5	-0.30378864	-0.10226312	1.516303	13.892038
146	2	7	0.15676043	0.20749981	1.1844654	12.90936
147	2	5	-0.29608194	-1.3174508	2.2529258	14.228028
148	2	7	0.17218798	-2.0901293	2.5768236	13.54223
149	2	5	0.25789653	-1.2919294	2.4494242	15.541582
150	2	5	0.71564155	-2.3148822	3.149448	16.325957
151	2	6	-0.53432316	-3.3346475	3.6317836	15.763003
152	2	8	-0.70104153	-2.1557525	3.2806134	17.701069
153	2	9	0.39228471	-2.8494168	3.7598902	18.261351
154	2	1	-0.22970506	-0.14541986	1.8929873	16.089877
155	4	1	-0.17288468	-0.86955495	-0.66499749	32.059034
156	4	2	0.034650988	-0.11395924	-0.35446696	30.919147
157	4	2	-0.1457082	0.59632898	-1.6095881	30.397847
158	4	2	-0.13948261	1.463788	-1.3220558	29.153162
159	4	2	-0.14189158	2.9752945	-1.2748957	29.447456
160	4	2	-0.1419419	3.4185892	-0.12701998	30.370376
161	4	2	-0.14075189	3.2388432	1.2567314	29.727868
162	4	2	-0.1411671	3.7931722	2.3593538	30.640086
163	4	2	0.13959724	3.5583033	3.7570111	30.059077
164	4	1	-0.4959809	4.3168348	3.9440977	28.892676
165	4	3	0.072732164	2.4727165	3.9239174	29.866851
166	4	3	0.072732164	3.8805822	4.5102102	30.807791
167	4	4	0.088953188	4.8838147	2.2064956	30.796771
168	4	4	0.088953188	3.2898775	2.3026718	31.629962
169	4	4	0.084963268	2.161117	1.451939	29.544712
170	4	4	0.084963268	3.7736162	1.278811	28.753412
171	4	4	0.083209059	4.497401	-0.27356253	30.596446
172	4	4	0.083209059	2.8766809	-0.17902522	31.337447
173	4	4	0.083209059	3.5236976	-1.1945718	28.483527
174	4	4	0.083209059	3.2807458	-2.2383998	29.909722
175	4	4	0.085138551	1.1358567	-0.39725728	28.63236
176	4	4	0.085138551	1.302604	-2.1489898	28.426665
177	4	4	0.090019799	-0.18223086	-2.3551601	30.12258
178	4	4	0.090019799	1.2036206	-2.0619712	31.211302
179	4	3	0.082466594	-0.7710693	0.072928851	30.127389
180	4	3	0.082466594	0.62839012	0.41977523	31.196093
181	5	5	0.67153083	3.721266	3.6498475	28.096259
182	5	6	-0.54198558	3.7557732	4.3043487	27.021468
183	5	5	0.24701544	2.8451768	2.4836206	28.219122
184	5	5	-0.29231537	2.729169	1.7245381	29.300576
185	5	7	0.17218796	3.2574157	1.8546014	30.236022
186	5	5	-0.30378861	1.7547617	0.68759529	28.977634
187	5	7	0.15676043	1.4114905	-0.10885395	29.625636
188	5	5	0.29878502	1.3655823	0.9098777	27.728931
189	5	5	0.43437146	0.38965654	0.10416809	26.993685
190	5	6	-0.55065937	0.089557572	0.40219074	25.808188
191	5	1	-0.22617378	2.0155157	2.0192645	27.207394
192	1	1	-0.17288468	-1.6865127	-1.1306659	31.740125
193	1	2	0.034650988	-2.3111183	-0.26728282	30.828786
194	1	2	-0.1457082	-3.0362514	0.85717776	31.577841
195	1	2	-0.13948261	-3.7637286	1.8280779	30.622702
196	1	2	-0.14189158	-5.291448	1.6343665	30.584774
197	1	2	-0.14189158	-5.7576539	0.28158045	30.019805
198	1	2	-0.13539759	-5.4415269	0.1209178	28.524962
199	1	2	-0.16763184	-6.0195113	-1.1930992	27.981983
200	1	2	0.087907455	-5.6542957	-1.4175943	26.511913
201	1	8	-0.68244077	-6.286001	-0.4688105	25.693732
202	1	9	0.3812935	-5.6620958	0.2987174	25.606043
203	1	3	0.073242879	-4.5481523	-1.3956934	26.376206
204	1	3	0.073242879	-6.0051381	-2.4267156	26.210367
205	1	4	0.092374458	-7.1268896	-1.1904658	28.087847
206	1	4	0.092374458	-5.6181011	-2.0426265	28.577008
207	1	4	0.085138551	-4.3424583	0.1196	28.368717
208	1	4	0.085138551	-5.8786002	0.97608692	27.966176
209	1	4	0.083209059	-6.8589548	0.22115336	30.156645
210	1	4	0.083209059	-5.3137673	-0.55220671	30.602222
211	1	4	0.083209059	-5.739959	2.4517183	29.979588
212	1	4	0.083209059	-5.6915014	1.7436371	31.616639
213	1	4	0.085138551	-3.3377368	1.7885255	29.598224
214	1	4	0.085138551	-3.5794522	2.8637071	30.984132
215	1	4	0.090019799	-2.2768815	1.4302611	32.154624
216	1	4	0.090019799	-3.7424696	0.42118025	32.317111
217	1	3	0.082466594	-1.5590644	0.15944356	30.127347
218	1	3	0.082466594	-3.0330507	-0.85790447	30.230842
219	2	5	0.43437158	-0.07950668	-0.75069675	27.464362
220	2	6	-0.55065949	-1.0853822	-1.2824417	26.924931
221	2	5	0.29878487	0.45023044	-1.2849951	28.719746
222	2	5	-0.30378864	1.4996086	-0.80447082	29.372159
223	2	7	0.15676043	2.1094146	0.040144656	29.078073
224	2	5	-0.29608194	1.6665352	-1.6374669	30.559777
225	2	7	0.17218798	2.4267653	-1.533128	31.3236
226	2	5	0.25789653	0.70255667	-2.5507096	30.522105
227	2	5	0.71564155	0.47798529	-3.6049354	31.517035
228	2	6	-0.53432316	1.2324467	-3.7083238	32.521816
229	2	8	-0.70104153	-0.57607244	-4.4958871	31.347842
230	2	9	0.39228471	-0.74898867	-5.230798	32.022229
231	2	1	-0.22970506	-0.084452791	-2.3743617	29.393278
232	4	1	-0.17288468	2.385005	1.3848528	42.930573
233	4	2	0.034650988	1.3578412	0.89587624	43.750654
234	4	2	-0.1457082	0.329267	1.9998313	44.024352
235	4	2	-0.13948261	-0.8164307	1.523459	44.943507
236	4	2	-0.14189158	-0.70959413	2.0444465	46.389413
237	4	2	-0.1419419	0.51089212	1.5317576	47.172658
238	4	2	-0.14075189	0.45028045	0.021607198	47.447731
239	4	2	-0.1411671	1.6308656	-0.42281858	48.321746
240	4	2	0.13959724	1.6386985	-1.9376043	48.548778
241	4	1	-0.4959809	0.54124297	-2.3282444	49.332266
242	4	3	0.072732164	1.6536128	-2.4796086	47.57445
243	4	3	0.072732164	2.5676941	-2.2092182	49.091861
244	4	4	0.088953188	1.5877608	0.094644489	49.305509
245	4	4	0.088953188	2.5829658	-0.13877539	47.822548
246	4	4	0.084963268	0.48304016	-0.53925314	46.489864
247	4	4	0.084963268	-0.50414552	-0.21692463	47.965619
248	4	4	0.083209059	0.5354952	2.0671005	48.146937
249	4	4	0.083209059	1.448339	1.7914311	46.638469
250	4	4	0.083209059	-1.6344886	1.763199	46.938801
251	4	4	0.083209059	-0.67535447	3.1551787	46.368637
252	4	4	0.085138551	-0.9161901	0.41715261	44.930853
253	4	4	0.085138551	-1.7715017	1.9157976	44.529372
254	4	4	0.090019799	-0.10561574	2.3130815	43.049387
255	4	4	0.090019799	0.8393049	2.8900686	44.451553
256	4	3	0.082466594	0.86458617	0.021092521	43.268167
257	4	3	0.082466594	1.8091951	0.54751917	44.700475
258	5	5	0.67153083	-0.22969143	-2.5567189	48.677267
259	5	6	-0.54198558	-0.98333101	-3.5344383	48.923904
260	5	5	0.24701544	-0.44089706	-1.7508705	47.473641
261	5	5	-0.29231537	0.29014168	-0.70344583	47.116304
262	5	7	0.17218796	1.1368143	-0.29772065	47.654407
263	5	5	-0.30378861	-0.27251991	-0.21241676	45.862784
264	5	7	0.15676043	0.072535537	0.63221147	45.280021
265	5	5	0.29878502	-1.2948091	-1.0059006	45.570484
266	5	5	0.43437146	-2.1521155	-0.87699313	44.39125
267	5	6	-0.55065937	-3.0989414	-1.6856747	44.207307
268	5	1	-0.22617378	-1.444839	-1.983737	46.543356
269	1	1	-0.17288468	2.0176789	1.4254937	42.00895
270	1	2	0.034650988	1.5709814	0.13344365	41.697232
271	1	2	-0.1457082	2.7631234	-0.77257017	41.366703
272	1	2	-0.13948261	2.3280538	-2.2059393	40.992099
273	1	2	-0.14189158	2.4054662	-2.5044289	39.482861
274	1	2	-0.14189158	1.4421633	-1.6809076	38.610836
275	1	2	-0.13539759	-0.032999715	-2.0264971	38.865331
276	1	2	-0.16763184	-0.94829757	-1.2614239	37.899709
277	1	2	0.087907455	-2.4300568	-1.527143	38.180189
278	1	8	-0.68244077	-2.7585528	-2.8597219	37.888665
279	1	9	0.3812935	-2.6315399	-3.378693	38.725673
280	1	3	0.073242879	-2.6801355	-1.2709759	39.235787
281	1	3	0.073242879	-3.0377514	-0.86725913	37.526272
282	1	4	0.092374458	-0.7165354	-1.5509407	36.850916
283	1	4	0.092374458	-0.76121604	-0.1702596	38.005741
284	1	4	0.085138551	-0.30971745	-1.7601238	39.906887
285	1	4	0.085138551	-0.18030688	-3.1191079	38.72716
286	1	4	0.083209059	1.678504	-1.9015733	37.547497
287	1	4	0.083209059	1.6183138	-0.59577876	38.762201
288	1	4	0.083209059	2.2028249	-3.5854111	39.321954
289	1	4	0.083209059	3.4450177	-2.3183516	39.134384
290	1	4	0.085138551	1.317888	-2.4423158	41.387421
291	1	4	0.085138551	3.0207549	-2.9151191	41.496427
292	1	4	0.090019799	3.4146704	-0.82406265	42.267026
293	1	4	0.090019799	3.3688221	-0.31475914	40.554979
294	1	3	0.082466594	0.99122326	-0.28802189	42.549256
295	1	3	0.082466594	0.88895981	0.20313737	40.82686
296	2	5	0.43437158	-1.976901	-0.087442392	43.671281
297	2	6	-0.55065949	-2.5491294	-0.13062238	42.550472
298	2	5	0.29878487	-1.080364	1.0226329	43.996916
299	2	5	-0.30378864	-0.42810245	1.1672168	45.142076
300	2	7	0.15676043	-0.46123388	0.49676488	45.991265
301	2	5	-0.29608194	0.33951947	2.4041843	45.028709
302	2	7	0.17218798	0.99060487	2.8345928	45.779107
303	2	5	0.25789653	0.084152283	2.9009307	43.823422
304	2	5	0.71564155	0.63971137	4.1402392	43.269185
305	2	6	-0.53432316	1.4370384	4.8436643	43.946643
306	2	8	-0.70104153	0.2821619	4.5398383	41.986244
307	2	9	0.39228471	0.65372887	5.3914819	41.584457
308	2	1	-0.22970506	-0.79671221	2.0760852	43.138994
309	4	1	-0.17288468	0.63580142	2.2284195	60.464592
310	4	2	0.034650988	0.39874887	1.4339744	59.333505
311	4	2	-0.1457082	1.7258462	1.0633845	58.660402
312	4	2	-0.13948261	1.5244376	0.20515477	57.392617
313	4	2	-0.14189158	1.7238291	0.98344822	56.078088
314	4	2	-0.1419419	0.69765238	2.1013577	55.826792
315	4	2	-0.14075189	-0.72273646	1.5643883	55.5943
316	4	2	-0.1411671	-1.6875196	2.7046533	55.2419
317	4	2	0.13959724	-3.1276031	2.2086144	55.07977
318	4	1	-0.4959809	-3.2434519	1.378968	53.953214
319	4	3	0.072732164	-3.4682009	1.6859159	56.003938
320	4	3	0.072732164	-3.7901448	3.087007	54.93413
321	4	4	0.088953188	-1.3614836	3.1968913	54.299128
322	4	4	0.088953188	-1.6682618	3.4642562	56.053692
323	4	4	0.084963268	-1.0896781	1.0553791	56.510493
324	4	4	0.084963268	-0.7023303	0.82648525	54.762966
325	4	4	0.083209059	1.0185078	2.6554921	54.917724
326	4	4	0.083209059	0.70537564	2.8272448	56.66621
327	4	4	0.083209059	1.6892873	0.26523137	55.229956
328	4	4	0.083209059	2.7413402	1.4306619	56.077062
329	4	4	0.085138551	0.53922465	-0.30800133	57.399842
330	4	4	0.085138551	2.2855953	-0.60606215	57.405425
331	4	4	0.090019799	2.3299785	0.48053267	59.390548
332	4	4	0.090019799	2.3000936	1.9865751	58.429922
333	4	3	0.082466594	-0.15763523	0.51250651	59.621037
334	4	3	0.082466594	-0.23921301	2.0091013	58.633886
335	5	5	0.67153083	-3.0781776	0.4076236	54.276849
336	5	6	-0.54198558	-3.7635563	-0.53158648	53.794274
337	5	5	0.24701544	-2.0573554	0.12855469	55.288163
338	5	5	-0.29231537	-1.2810697	1.0376795	55.862688
339	5	7	0.17218796	-1.2889083	2.1025859	55.670503
340	5	5	-0.30378861	-0.42158903	0.31902481	56.797481
341	5	7	0.15676043	0.33843141	0.74255765	57.441734
342	5	5	0.29878502	-0.75306304	-0.9624471	56.707561
343	5	5	0.43437146	-0.1391982	-2.048059	57.473591
344	5	6	-0.55065937	-0.52903517	-3.2339086	57.312136
345	5	1	-0.22617378	-1.7693121	-1.1376913	55.779293
346	1	1	-0.17288468	0.95589062	1.617415	61.178866
347	1	2	0.034650988	-0.030798754	0.63397202	61.338189
348	1	2	-0.1457082	-1.2217534	1.2018397	62.119513
349	1	2	-0.13948261	-2.3322991	0.15317222	62.345667
350	1	2	-0.14189158	-2.3788849	-0.40284948	63.78148
351	1	2	-0.14189158	-1.1391114	-1.2105293	64.202411
352	1	2	-0.13539759	-0.99375017	-2.526144	63.422453
353	1	2	-0.16763184	0.19138435	-3.3464063	63.949861
354	1	2	0.087907455	0.40837422	-4.6283984	63.140974
355	1	8	-0.68244077	-0.65984126	-5.5188381	63.32724
356	1	9	0.3812935	-1.3246401	-5.3260201	62.615264
357	1	3	0.073242879	0.5521538	-4.3899566	62.061659
358	1	3	0.073242879	1.3376994	-5.1192131	63.498468
359	1	4	0.092374458	0.021956169	-3.6110678	65.016983
360	1	4	0.092374458	1.1167427	-2.7324501	63.889431
361	1	4	0.085138551	-0.8289987	-2.31145	62.345824
362	1	4	0.085138551	-1.9286862	-3.1172602	63.527644
363	1	4	0.083209059	-1.244066	-1.4498229	65.282672
364	1	4	0.083209059	-0.22324618	-0.59301285	64.096066
365	1	4	0.083209059	-3.280188	-1.0447871	63.886579
366	1	4	0.083209059	-2.5057306	0.44531147	64.489478
367	1	4	0.085138551	-2.2699546	-0.67315799	61.60683
368	1	4	0.085138551	-3.3110573	0.64787531	62.160145
369	1	4	0.090019799	-1.6460618	2.0460557	61.53214
370	1	4	0.090019799	-0.8698629	1.6245622	63.085347
371	1	3	0.082466594	-0.36487865	0.26104469	60.343697
372	1	3	0.082466594	0.41573115	-0.2194128	61.885824
373	2	5	0.43437158	0.65165061	-1.8379424	58.182713
374	2	6	-0.55065949	0.99859005	-2.7244028	59.006937
375	2	5	0.29878487	1.3131264	-0.53236655	58.185039
376	2	5	-0.30378864	1.0281678	0.4699345	57.365324
377	2	7	0.15676043	0.27652011	0.47114368	56.586383
378	2	5	-0.29608194	1.9255731	1.5652139	57.72199
379	2	7	0.17218798	1.9718664	2.542805	57.25892
380	2	5	0.25789653	2.6764148	1.129386	58.727464
381	2	5	0.71564155	3.7236547	1.8945719	59.412656
382	2	6	-0.53432316	3.9841152	3.0778159	59.063973
383	2	8	-0.70104153	4.4330999	1.3075157	60.454535
384	2	9	0.39228471	5.1598132	1.8175139	60.940932
385	2	1	-0.22970506	2.3337493	-0.17451264	59.054821
386	4	1	-0.17288468	-1.8004909	15.897976	1.9823215
387	4	2	0.034650988	-0.98501927	15.008876	1.2673372
388	4	2	-0.1457082	-1.8484138	13.997066	0.50419716
389	4	2	-0.13948261	-1.0009669	12.97597	-0.28548501
390	4	2	-0.14189158	-0.94145763	11.581811	0.36740416
391	4	2	-0.1419419	-0.23499096	11.537219	1.7329906
392	4	2	-0.14075189	1.2680174	11.839586	1.6358668
393	4	2	-0.1411671	1.9477797	11.677616	3.0022072
394	4	2	0.13959724	3.4333481	12.047363	2.9516643
395	4	1	-0.4959809	4.1477504	11.128024	2.1672496
396	4	3	0.072732164	3.5652089	13.088694	2.5754336
397	4	3	0.072732164	3.8413633	12.014955	3.9832744
398	4	4	0.088953188	1.8436373	10.62721	3.3532321
399	4	4	0.088953188	1.44695	12.340808	3.7409359
400	4	4	0.084963268	1.4226017	12.880182	1.2803266
401	4	4	0.084963268	1.7339668	11.142672	0.90563624
402	4	4	0.083209059	-0.36277009	10.512538	2.1454446
403	4	4	0.083209059	-0.72576104	12.234192	2.4436015
404	4	4	0.083209059	-0.42565372	10.8843	-0.32813957
405	4	4	0.083209059	-1.9777657	11.200121	0.49273685
406	4	4	0.085138551	0.022022563	13.361231	-0.4832046
407	4	4	0.085138551	-1.4704637	12.843778	-1.285333
408	4	4	0.090019799	-2.4839085	14.560976	-0.21410446
409	4	4	0.090019799	-2.5363215	13.483389	1.2099457
410	4	3	0.082466594	-0.33317015	15.570213	0.55928741
411	4	3	0.082466594	-0.32743757	14.485423	1.9890135
412	5	5	0.67153083	4.1514386	11.498285	1.1985093
413	5	6	-0.54198558	5.1876349	11.379706	0.49354552
414	5	5	0.24701544	2.9625369	12.155595	0.65337612
415	5	5	-0.29231537	1.8212367	12.335127	1.3048423
416	5	7	0.17218796	1.6055766	12.026446	2.3193513
417	5	5	-0.30378861	0.92275994	13.026162	0.38602745
418	5	7	0.15676043	-0.096222609	13.335983	0.58034025
419	5	5	0.29878502	1.5989008	13.205082	-0.74133766
420	5	5	0.43437146	1.0785612	13.861271	-1.941691
421	5	6	-0.55065937	1.8057864	13.979953	-2.9621508
422	5	1	-0.22617378	2.8783408	12.680062	-0.62935625
423	1	1	-0.17288468	-2.1673583	16.541394	1.3209655
424	1	2	0.034650988	-1.0676854	17.127706	0.67826933
425	1	2	-0.1457082	-0.41725135	18.173368	1.5919645
426	1	2	-0.13948261	0.78866591	18.870125	0.92529038
427	1	2	-0.14189158	0.48996374	20.302004	0.44218899
428	1	2	-0.14189158	-0.5507621	20.399476	-0.68650804
429	1	2	-0.13539759	-0.058327507	19.781691	-2.0041407
430	1	2	-0.16763184	-1.0829119	19.998224	-3.1261359
431	1	2	0.087907455	-0.65413623	19.3262	-4.4335844
432	1	8	-0.68244077	0.48447994	19.952517	-4.9626804
433	1	9	0.3812935	1.2739972	19.47296	-4.5983544
434	1	3	0.073242879	-0.47882677	18.237039	-4.2740762
435	1	3	0.073242879	-1.4796625	19.424623	-5.1692239
436	1	4	0.092374458	-1.2238695	21.087362	-3.3033628
437	1	4	0.092374458	-2.0611485	19.569785	-2.8156917
438	1	4	0.085138551	0.10362596	18.691251	-1.8734592
439	1	4	0.085138551	0.90702546	20.252441	-2.2888804
440	1	4	0.083209059	-0.76109744	21.477196	-0.85831612
441	1	4	0.083209059	-1.5057126	19.93051	-0.3709364
442	1	4	0.083209059	1.4388532	20.768133	0.098954843
443	1	4	0.083209059	0.13211444	20.90362	1.3063248
444	1	4	0.085138551	1.2091881	18.257519	0.10038869
445	1	4	0.085138551	1.5987799	18.948598	1.6833631
446	1	4	0.090019799	-0.063201189	17.653916	2.5098769
447	1	4	0.090019799	-1.1788183	18.916071	1.9140926
448	1	3	0.082466594	-0.32582796	16.34627	0.39772632
449	1	3	0.082466594	-1.4256502	17.603838	-0.25592405
450	2	5	0.43437158	0.067457415	14.248341	-1.9587441
451	2	6	-0.55065949	-0.28656988	15.020241	-2.8884535
452	2	5	0.29878487	-0.88216675	13.878499	-0.90826085
453	2	5	-0.30378864	-0.6168293	13.076773	0.11378203
454	2	7	0.15676043	0.32564551	12.585635	0.31932877
455	2	5	-0.29608194	-1.8429982	12.990029	0.901925
456	2	7	0.17218798	-1.9910337	12.420269	1.810616
457	2	5	0.25789653	-2.7445205	13.747547	0.28701781
458	2	5	0.71564155	-4.1284869	13.961924	0.723354
459	2	6	-0.53432316	-4.5640646	13.405794	1.767613
460	2	8	-0.70104153	-4.9642525	14.785452	-0.02280767
461	2	9	0.39228471	-5.9226814	14.947048	0.26019899
462	2	1	-0.22970506	-2.1949983	14.324775	-0.84857343
463	4	1	-0.17288468	-1.1613304	11.957226	14.890574
464	4	2	0.034650988	-0.28619445	13.051684	14.835836
465	4	2	-0.1457082	0.46124097	13.064257	13.496891
466	4	2	-0.13948261	1.4584204	14.238338	13.389327
467	4	2	-0.14189158	2.9308254	13.820133	13.564294
468	4	2	-0.1419419	3.2868525	13.275662	14.958104
469	4	2	-0.14075189	3.1912851	14.34474	16.057118
470	4	2	-0.1411671	3.6583481	13.784264	17.407272
471	4	2	0.13959724	3.501629	14.80566	18.537923
472	4	1	-0.4959809	4.3811182	15.884986	18.357877
473	4	3	0.072732164	2.4443257	15.152705	18.608469
474	4	3	0.072732164	3.7513536	14.310467	19.499259
475	4	4	0.088953188	4.7245871	13.474665	17.338715
476	4	4	0.088953188	3.0527374	12.886642	17.660026
477	4	4	0.084963268	2.1411534	14.691557	16.157557
478	4	4	0.084963268	3.8261849	15.213443	15.777313
479	4	4	0.083209059	4.3340703	12.904034	14.917557
480	4	4	0.083209059	2.6453064	12.405004	15.207039
481	4	4	0.083209059	3.5788111	14.696287	13.343329
482	4	4	0.083209059	3.1750718	13.043061	12.808097
483	4	4	0.085138551	1.1975745	15.060346	14.089532
484	4	4	0.085138551	1.3657177	14.672188	12.369142
485	4	4	0.090019799	-0.2920984	13.163636	12.684236
486	4	4	0.090019799	0.97419028	12.090171	13.344573
487	4	3	0.082466594	-0.85124832	14.002459	14.970301
488	4	3	0.082466594	0.43127903	12.963712	15.675316
489	5	5	0.67153083	3.8697644	16.601242	17.809189
490	5	6	-0.54198558	4.0248201	17.819929	18.083955
491	5	5	0.24701544	2.9727485	16.200537	16.724057
492	5	5	-0.29231537	2.7347921	14.950318	16.350511
493	5	7	0.17218796	3.1627056	14.0573	16.786896
494	5	5	-0.30378861	1.7885229	15.020944	15.24209
495	5	7	0.15676043	1.3699483	14.190085	14.68843
496	5	5	0.29878502	1.5358702	16.30787	15.041792
497	5	5	0.43437146	0.63419051	16.841136	14.019644
498	5	6	-0.55065937	0.46427804	18.083769	13.913469
499	5	1	-0.22617378	2.2494811	17.088819	15.939585
500	1	1	-0.17288468	-1.9451447	12.191838	14.327935
501	1	2	0.034650988	-2.4604254	13.392259	14.837422
502	1	2	-0.1457082	-3.2481193	13.124805	16.125568
503	1	2	-0.13948261	-3.8598749	14.411736	16.720316
504	1	2	-0.14189158	-5.3770958	14.543159	16.488676
505	1	2	-0.14189158	-5.7959727	14.687147	15.015455
506	1	2	-0.13539759	-5.3255503	16.009278	14.390173
507	1	2	-0.16763184	-5.8574669	16.156639	12.958082
508	1	2	0.087907455	-5.341556	17.429808	12.281501
509	1	8	-0.68244077	-5.872789	18.570822	12.901614
510	1	9	0.3812935	-5.2346578	18.836064	13.614693
511	1	3	0.073242879	-4.2270926	17.450053	12.284718
512	1	3	0.073242879	-5.6697371	17.424714	11.221021
513	1	4	0.092374458	-6.9697355	16.172508	12.968464
514	1	4	0.092374458	-5.5305629	15.281434	12.35473
515	1	4	0.085138551	-4.2162096	16.0421	14.36464
516	1	4	0.085138551	-5.6916805	16.855891	15.009675
517	1	4	0.083209059	-6.906167	14.652921	14.976248
518	1	4	0.083209059	-5.4253266	13.824483	14.423952
519	1	4	0.083209059	-5.7501174	15.422433	17.05719
520	1	4	0.083209059	-5.8826468	13.648813	16.914459
521	1	4	0.085138551	-3.3285408	15.31891	16.363516
522	1	4	0.085138551	-3.7033488	14.386265	17.82121
523	1	4	0.090019799	-2.547611	12.688112	16.871444
524	1	4	0.090019799	-4.0332388	12.361782	15.933887
525	1	3	0.082466594	-1.6338269	14.111951	15.033573
526	1	3	0.082466594	-3.1216671	13.839338	14.069023
527	2	5	0.43437158	0.10851521	16.171345	13.350697
528	2	6	-0.55065949	-0.84059217	16.61173	12.65014
529	2	5	0.29878487	0.49677292	14.763043	13.261108
530	2	5	-0.30378864	1.476639	14.195335	13.950536
531	2	7	0.15676043	2.1233999	14.681094	14.669886
532	2	5	-0.29608194	1.5079883	12.792111	13.547843
533	2	7	0.17218798	2.1844131	12.028285	13.91017
534	2	5	0.25789653	0.54333227	12.633082	12.648491
535	2	5	0.71564155	0.20329733	11.380417	11.965178
536	2	6	-0.53432316	0.84624152	10.323515	12.208214
537	2	8	-0.70104153	-0.83679289	11.361657	11.042508
538	2	9	0.39228471	-1.088081	10.508162	10.559608
539	2	1	-0.22970506	-0.11806892	13.833589	12.433862
540	4	1	-0.17288468	2.5839425	14.525648	30.737041
541	4	2	0.034650988	1.5782066	14.54346	29.759864