Title

139 atoms
146 bonds
239 angles
331 dihedrals
186 impropers

11 atom types
14 bond types
8 angle types
19 dihedral types
3 improper types
-25.60099983 74.39900017 xlo xhi
-3.927999973 96.07200003 ylo yhi
-10.07199955 89.92800045 zlo zhi
0.0 0.0 0.0 xy xz yz

Masses

1	14.00672
2	12.01078
3	1.007947
4	1.007947
5	12.01078
6	1.007947
7	15.99943
8	15.99943
9	1.007947
10	15.99943
11	1.007947


Pair Coeffs

1	0.16769152	3.206876
2	0.086879315	3.4806469
3	0.015611343	2.5725815
4	0.014090815	1.1034277
5	0.10884061	3.3795318
6	0.015779483	2.6445434
7	0.2102061	3.0398122
8	0.16846514	3.0251065
9	0.016409246	2.5832257
10	0.20947353	2.99716
11	1.2326e-05	0.53453923

Bond Coeffs

1 harmonic	390.03554688505	1.390160554689
2 harmonic	505.144496193	1.019481865027
3 harmonic	422.7150220147	1.421786517481
4 harmonic	360.7852444772	1.387193227181
5 harmonic	397.2545789619	1.085358495916
6 harmonic	279.1350963404	1.454628925034
7 harmonic	492.76746816345	1.381897776683
8 harmonic	289.73813263395	1.498646816465
9 harmonic	370.04670688625	1.093899492634
10 harmonic	582.698766451	1.225198386222
11 harmonic	301.15400723785	1.345741232799
12 harmonic	366.7408841747	1.425895053732
13 harmonic	385.7604595587	1.369745182308
14 harmonic	543.5267831885	0.9716763312559


Angle Coeffs

1 harmonic	57.8982893754	126.8062420451
2 harmonic	55.42182150775	117.3465570514
3 harmonic	63.44422595415	115.5071327674
4 harmonic	34.066775159195	129.1835929926
5 harmonic	53.20531626545	116.5475862634
6 harmonic	48.776492647595	115.6030999533
7 harmonic	65.09061609600001	110.3538806181
8 harmonic	201.41175231035	127.4691416191


Dihedral Coeffs

1 fourier 1	3.661930099076	2	180
2 fourier 1	1.193093382682	2	180
3 fourier 1	0.02021088501612	1	0
4 fourier 1	1.163235555439	2	180
5 fourier 1	0.02664938770063	3	0
6 fourier 1	3.101948770557	2	180
7 fourier 1	-0.4252153282372	1	0
8 fourier 1	1.809047390003	2	180
9 fourier 1	-0.04816277792592	1	0
10 fourier 1	0.9974165607242	2	180
11 fourier 1	2.348375642009	2	180
12 fourier 1	1.256156174911	1	0
13 fourier 1	2.779853741805	2	180
14 fourier 1	0.0473758381877	3	0
15 fourier 1	1.163809172478	2	180
16 fourier 1	0.1679186987369	1	180
17 fourier 1	2.687457892086	2	180
18 fourier 1	2.772607909663	2	180
19 fourier 1	0.09692684957115	1	0


Improper Coeffs

1 0.3666666666666667	-1	2
2 0.3333333333333333	-1	2
3 3.5	-1	2


Atoms

1	1	1	-0.41098601	4.9860001	-0.52600002	0.233
2	1	2	0.152439	3.575	-0.30000001	0.182
3	1	2	-0.410032	2.9449999	0.296	1.204
4	1	3	0.228278	3.497	0.61500001	2.0799999
5	1	2	-0.093243003	1.4910001	0.53500003	1.1440001
6	1	3	0.208543	1.0089999	1.038	1.974
7	1	2	-0.17402101	0.77999997	0.152	0.07
8	1	2	-0.17402101	-0.67299998	0.428	0.026000001
9	1	2	-0.107716	-1.142	1.349	-0.833
10	1	3	0.208543	-0.46799999	1.8839999	-1.4910001
11	1	2	-0.384321	-2.582	1.664	-0.88
12	1	3	0.22449701	-2.9360001	2.411	-1.581
13	1	2	0.228341	-3.438	1.039	-0.059999999
14	1	1	-0.52933401	-4.8340001	1.347	-0.097000003
15	1	4	0.32294601	-5.5009999	0.85900003	0.54100001
16	1	2	-0.448576	-2.9319999	0.021	0.889
17	1	3	0.220505	-3.6340001	-0.47600001	1.5470001
18	1	2	0.011517	-1.624	-0.292	0.92699999
19	1	5	-0.147919	-1.13	-1.3329999	1.895
20	1	6	0.103073	-1.9529999	-1.9960001	2.2360001
21	1	6	0.103073	-0.36199999	-1.973	1.4119999
22	1	6	0.103073	-0.68400002	-0.833	2.7809999
23	1	2	0.027062001	1.47	-0.53600001	-1.063
24	1	5	-0.147919	0.70099998	-0.98299998	-2.2780001
25	1	6	0.103073	-0.26800001	-1.431	-1.974
26	1	6	0.103073	1.26	-1.75	-2.855
27	1	6	0.103073	0.50999999	-0.11	-2.9360001
28	1	2	-0.46408901	2.8010001	-0.72799999	-1.006
29	1	3	0.223279	3.323	-1.207	-1.825
30	1	4	0.37705901	5.5500002	-0.23199999	1.061
31	1	2	0.75216597	-5.2189999	2.0739999	-0.77200001
32	1	7	-0.656124	-4.408	2.8199999	-1.38
33	1	2	-0.27521399	-6.6729999	2.138	-1.036
34	1	2	0.021469001	-7.4029999	1.029	-0.815
35	1	3	0.241216	-6.934	0.146	-0.39500001
36	1	2	-0.37879899	-8.8330002	0.963	-1.198
37	1	2	0.83260602	-9.5930004	-0.29300001	-0.98100001
38	1	7	-0.587731	-8.9759998	-1.391	-1.048
39	1	2	-0.37945801	-11.047	-0.31200001	-0.68699998
40	1	2	-0.105132	-11.631	0.66900003	0.018999999
41	1	3	0.223893	-11.053	1.501	0.40099999
42	1	2	-0.096196003	-13.068	0.60900003	0.336
43	1	3	0.229101	-13.49	1.4	0.94599998
44	1	2	-0.17328399	-13.822	-0.433	-0.061000001
45	1	2	0.79031199	-15.232	-0.50700003	0.38600001
46	1	7	-0.50267297	-15.902	0.55299997	0.53399998
47	1	8	-0.495065	-15.806	-1.7460001	0.69
48	1	5	0.14069299	-17.150999	-1.882	1.13
49	1	9	0.094342999	-17.298	-1.327	2.0810001
50	1	9	0.094342999	-17.844999	-1.4910001	0.35600001
51	1	9	0.094342999	-17.372	-2.9549999	1.302
52	1	2	-0.21149901	-13.192	-1.515	-0.88700002
53	1	2	0.57939899	-14.007	-2.596	-1.488
54	1	7	-0.520096	-13.468	-3.6199999	-1.9859999
55	1	2	0.064713001	-11.871	-1.454	-1.151
56	1	3	0.236396	-11.399	-2.2160001	-1.76
57	1	2	-0.105132	-9.3940001	2.02	-1.807
58	1	3	0.223893	-10.421	1.987	-2.1500001
59	1	2	-0.115974	-8.625	3.2609999	-2.0109999
60	1	3	0.229101	-9.1400003	4.118	-2.4289999
61	1	2	-0.18891799	-7.342	3.3499999	-1.618
62	1	2	0.77858299	-6.671	4.6669998	-1.6950001
63	1	7	-0.50267297	-5.8449998	5.0100002	-0.80500001
64	1	8	-0.495065	-6.9990001	5.552	-2.7279999
65	1	5	0.14069299	-6.4109998	6.842	-2.849
66	1	9	0.094342999	-5.3099999	6.7470002	-2.967
67	1	9	0.094342999	-6.6409998	7.4510002	-1.949
68	1	9	0.094342999	-6.8270001	7.3499999	-3.743
69	1	1	-0.41098601	5.4770002	-0.991	-0.56300002
70	1	2	0.152438	4.7979999	-1.217	-1.801
71	1	2	-0.410032	5.428	-1.813	-2.823
72	1	3	0.228278	6.4590001	-2.132	-2.724
73	1	2	-0.093243003	4.7210002	-2.052	-4.0949998
74	1	3	0.208543	5.2459998	-2.556	-4.8990002
75	1	2	-0.17402101	3.4419999	-1.669	-4.2480001
76	1	2	-0.17402101	2.7509999	-1.9450001	-5.526
77	1	2	-0.059951998	1.773	-2.8659999	-5.5599999
78	1	3	0.208543	1.487	-3.401	-4.6620002
79	1	2	-0.44987699	1.0829999	-3.181	-6.8260002
80	1	3	0.237077	0.29899999	-3.928	-6.8270001
81	1	2	0.346167	1.432	-2.556	-7.9590001
82	1	1	-0.84385997	0.77200001	-2.8640001	-9.1890001
83	1	4	0.37261999	0.0099999998	-3.5780001	-9.2290001
84	1	4	0.37261999	1.043	-2.3759999	-10.072
85	1	2	-0.51507401	2.507	-1.538	-7.9330001
86	1	3	0.22695	2.78	-1.041	-8.8559999
87	1	2	0.069459997	3.128	-1.225	-6.7810001
88	1	5	-0.147919	4.2160001	-0.184	-6.7740002
89	1	6	0.103073	4.151	0.479	-7.664
90	1	6	0.103073	4.1290002	0.456	-5.8720002
91	1	6	0.103073	5.2069998	-0.68400002	-6.7740002
92	1	2	0.027062001	2.74	-0.98100001	-3.1229999
93	1	5	-0.147919	1.309	-0.53399998	-3.2639999
94	1	6	0.103073	1.145	-0.086000003	-4.2659998
95	1	6	0.103073	1.044	0.233	-2.506
96	1	6	0.103073	0.63499999	-1.4069999	-3.1400001
97	1	2	-0.46408901	3.3889999	-0.78899997	-1.959
98	1	3	0.223279	2.891	-0.31	-1.125
99	1	4	0.37705901	6.4710002	-1.285	-0.43099999
100	1	2	0.57939899	-15.084	-2.5150001	-1.527
101	1	7	-0.520096	-15.77	-3.402	-0.95200002
102	1	2	-0.21149901	-15.73	-1.401	-2.26
103	1	2	0.064713001	-17.032	-1.494	-2.5969999
104	1	3	0.236396	-17.618	-2.3510001	-2.2850001
105	1	2	-0.37945801	-17.683001	-0.46200001	-3.4389999
106	1	2	0.83260602	-19.108999	-0.61400002	-3.8139999
107	1	7	-0.587731	-19.580999	-1.778	-3.9430001
108	1	2	-0.37790501	-20.000999	0.55199999	-4.0320001
109	1	2	-0.105132	-21.030001	0.47099999	-4.8889999
110	1	3	0.223893	-21.209	-0.43399999	-5.4580002
111	1	2	-0.105264	-21.906	1.6339999	-5.1209998
112	1	3	0.229101	-22.671	1.552	-5.8839998
113	1	2	-0.205841	-21.705999	2.7909999	-4.4640002
114	1	2	0.778234	-22.506001	3.974	-4.8540001
115	1	7	-0.50267297	-22.002001	5.1290002	-4.7859998
116	1	8	-0.495065	-23.805	3.803	-5.3449998
117	1	5	0.14069299	-24.620001	4.895	-5.7550001
118	1	9	0.094342999	-25.601	4.5079999	-6.0999999
119	1	9	0.094342999	-24.785999	5.586	-4.901
120	1	9	0.094342999	-24.132999	5.4400001	-6.5910001
121	1	2	-0.128133	-20.625999	2.8610001	-3.425
122	1	2	0.80542302	-20.493	4.02	-2.5120001
123	1	7	-0.477079	-19.364	4.3379998	-2.049
124	1	10	-0.66235602	-21.618	4.7389998	-2.1199999
125	1	11	0.42236701	-21.538	5.5250001	-1.4859999
126	1	2	0.021454999	-19.812	1.801	-3.2520001
127	1	3	0.248175	-19.049999	1.823	-2.483
128	1	2	-0.105132	-16.945999	0.56	-3.9030001
129	1	3	0.223893	-17.375999	1.303	-4.5630002
130	1	2	-0.096196003	-15.53	0.69499999	-3.52
131	1	3	0.229101	-14.989	1.569	-3.8640001
132	1	2	-0.17328399	-14.941	-0.20999999	-2.7160001
133	1	2	0.79031199	-13.553	0.033	-2.2609999
134	1	7	-0.50267297	-12.735	0.62300003	-3.0209999
135	1	8	-0.495065	-13.163	-0.347	-0.97299999
136	1	5	0.14069299	-11.847	-0.13500001	-0.47499999
137	1	9	0.094342999	-11.784	-0.52200001	0.56300002
138	1	9	0.094342999	-11.613	0.95099998	-0.46900001
139	1	9	0.094342999	-11.11	-0.67400002	-1.1059999

Bonds

1	1	1	2
2	2	1	30
3	3	1	69
4	4	2	3
5	4	2	28
6	5	3	4
7	4	3	5
8	5	5	6
9	4	5	7
10	6	7	8
11	4	7	23
12	4	8	9
13	4	8	18
14	5	9	10
15	4	9	11
16	5	11	12
17	4	11	13
18	1	13	14
19	4	13	16
20	2	14	15
21	7	14	31
22	5	16	17
23	4	16	18
24	8	18	19
25	9	19	20
26	9	19	21
27	9	19	22
28	8	23	24
29	4	23	28
30	9	24	25
31	9	24	26
32	9	24	27
33	5	28	29
34	10	31	32
35	6	31	33
36	4	33	34
37	4	33	61
38	5	34	35
39	4	34	36
40	6	36	37
41	4	36	57
42	10	37	38
43	6	37	39
44	4	39	40
45	4	39	55
46	5	40	41
47	4	40	42
48	5	42	43
49	4	42	44
50	6	44	45
51	4	44	52
52	10	45	46
53	11	45	47
54	12	47	48
55	9	48	49
56	9	48	50
57	9	48	51
58	6	52	53
59	4	52	55
60	10	53	54
61	6	53	100
62	5	55	56
63	5	57	58
64	4	57	59
65	5	59	60
66	4	59	61
67	6	61	62
68	10	62	63
69	11	62	64
70	12	64	65
71	9	65	66
72	9	65	67
73	9	65	68
74	1	69	70
75	2	69	99
76	4	70	71
77	4	70	97
78	5	71	72
79	4	71	73
80	5	73	74
81	4	73	75
82	6	75	76
83	4	75	92
84	4	76	77
85	4	76	87
86	5	77	78
87	4	77	79
88	5	79	80
89	4	79	81
90	1	81	82
91	4	81	85
92	2	82	83
93	2	82	84
94	5	85	86
95	4	85	87
96	8	87	88
97	9	88	89
98	9	88	90
99	9	88	91
100	8	92	93
101	4	92	97
102	9	93	94
103	9	93	95
104	9	93	96
105	5	97	98
106	10	100	101
107	6	100	102
108	4	102	103
109	4	102	132
110	5	103	104
111	4	103	105
112	6	105	106
113	4	105	128
114	10	106	107
115	6	106	108
116	4	108	109
117	4	108	126
118	5	109	110
119	4	109	111
120	5	111	112
121	4	111	113
122	6	113	114
123	4	113	121
124	10	114	115
125	11	114	116
126	12	116	117
127	9	117	118
128	9	117	119
129	9	117	120
130	6	121	122
131	4	121	126
132	10	122	123
133	13	122	124
134	14	124	125
135	5	126	127
136	5	128	129
137	4	128	130
138	5	130	131
139	4	130	132
140	6	132	133
141	10	133	134
142	11	133	135
143	12	135	136
144	9	136	137
145	9	136	138
146	9	136	139

Angles

1	1	106	108	109
2	1	45	44	52
3	1	108	109	111
4	4	110	109	111
5	1	8	18	16
6	1	32	31	33
7	4	80	79	81
8	3	83	82	84
9	4	129	128	130
10	4	81	85	86
11	5	23	24	26
12	1	39	55	52
13	1	33	61	59
14	3	81	82	83
15	1	132	133	134
16	1	69	70	71
17	5	116	117	120
18	4	4	3	5
19	8	46	45	47
20	1	103	105	128
21	2	1	69	70
22	1	44	45	46
23	5	47	48	49
24	7	114	116	117
25	1	128	130	132
26	1	31	33	61
27	4	10	9	11
28	1	33	34	36
29	6	94	93	95
30	5	135	136	137
31	3	2	1	30
32	1	81	85	87
33	2	2	1	69
34	5	23	24	27
35	3	30	1	69
36	4	52	55	56
37	1	5	7	8
38	6	20	19	22
39	5	92	93	94
40	1	73	75	76
41	1	93	92	97
42	4	17	16	18
43	8	63	62	64
44	4	39	40	41
45	1	121	122	124
46	1	31	33	34
47	1	8	9	11
48	5	18	19	20
49	1	44	45	47
50	1	79	81	82
51	1	73	75	92
52	1	103	105	106
53	6	119	117	120
54	1	102	103	105
55	1	9	11	13
56	4	70	71	72
57	6	138	136	139
58	1	77	79	81
59	1	76	75	92
60	6	94	93	96
61	7	45	47	48
62	1	111	113	121
63	1	75	92	97
64	1	34	36	37
65	1	105	106	107
66	4	43	42	44
67	1	37	39	55
68	4	39	55	56
69	1	39	40	42
70	1	102	132	130
71	3	1	69	99
72	6	118	117	120
73	4	23	28	29
74	1	75	92	93
75	1	70	71	73
76	4	131	130	132
77	1	14	13	16
78	1	13	16	18
79	1	40	42	44
80	1	100	102	103
81	1	37	39	40
82	1	1	2	3
83	1	7	23	28
84	1	36	37	39
85	1	85	87	88
86	6	26	24	27
87	1	36	57	59
88	1	70	97	92
89	4	112	111	113
90	4	35	34	36
91	6	50	48	51
92	4	76	77	78
93	1	82	81	85
94	5	64	65	66
95	4	57	59	60
96	1	24	23	28
97	6	66	65	67
98	4	6	5	7
99	6	67	65	68
100	1	7	23	24
101	1	106	108	126
102	7	133	135	136
103	3	81	82	84
104	1	132	133	135
105	1	44	52	53
106	4	121	126	127
107	1	101	100	102
108	4	104	103	105
109	4	41	40	42
110	5	47	48	50
111	6	89	88	90
112	1	14	31	32
113	1	37	36	57
114	5	87	88	89
115	4	109	111	112
116	1	111	113	114
117	1	130	132	133
118	6	25	24	26
119	5	64	65	67
120	4	58	57	59
121	6	66	65	68
122	5	135	136	138
123	3	13	14	15
124	1	75	76	87
125	1	11	13	16
126	5	92	93	95
127	1	42	44	52
128	2	13	14	31
129	1	108	126	121
130	1	2	28	23
131	6	89	88	91
132	5	47	48	51
133	4	12	11	13
134	5	18	19	21
135	4	60	59	61
136	4	71	73	74
137	5	87	88	90
138	1	61	62	63
139	1	53	100	101
140	7	122	124	125
141	1	8	7	23
142	1	38	37	39
143	4	72	71	73
144	1	113	114	115
145	5	116	117	118
146	1	7	8	18
147	5	135	136	139
148	5	92	93	96
149	1	106	105	128
150	4	78	77	79
151	4	108	109	110
152	4	86	85	87
153	1	5	7	23
154	7	62	64	65
155	1	34	36	57
156	1	34	33	61
157	1	71	73	75
158	5	23	24	25
159	1	16	18	19
160	6	49	48	50
161	1	107	106	108
162	1	113	114	116
163	5	116	117	119
164	4	92	97	98
165	1	69	70	97
166	1	59	61	62
167	1	1	2	28
168	4	105	128	129
169	4	128	130	131
170	4	2	3	4
171	1	76	77	79
172	6	137	136	138
173	1	42	44	45
174	1	77	76	87
175	4	3	5	6
176	1	57	59	61
177	1	79	81	85
178	4	33	34	35
179	3	15	14	31
180	1	52	53	100
181	4	70	97	98
182	1	76	87	88
183	1	11	13	14
184	1	122	121	126
185	1	7	8	9
186	6	49	48	51
187	1	54	53	100
188	6	20	19	21
189	1	103	102	132
190	1	105	106	108
191	6	21	19	22
192	1	53	52	55
193	1	109	108	126
194	1	121	122	123
195	1	105	128	130
196	1	40	39	55
197	1	14	31	33
198	6	95	93	96
199	8	123	122	124
200	1	2	3	5
201	1	9	8	18
202	4	102	103	104
203	1	109	111	113
204	4	9	11	12
205	6	25	24	27
206	5	64	65	68
207	6	137	136	139
208	1	3	5	7
209	4	77	79	80
210	1	3	2	28
211	1	8	18	19
212	1	102	132	133
213	1	114	113	121
214	4	74	73	75
215	6	90	88	91
216	4	8	9	10
217	1	113	121	126
218	1	33	61	62
219	1	75	76	77
220	1	44	52	55
221	5	18	19	22
222	8	115	114	116
223	6	118	117	119
224	8	134	133	135
225	1	76	87	85
226	5	87	88	91
227	1	71	70	97
228	1	61	62	64
229	1	53	100	102
230	1	113	121	122
231	4	108	126	127
232	4	13	16	17
233	4	2	28	29
234	4	40	42	43
235	3	70	69	99
236	1	36	37	38
237	1	100	102	132
238	1	52	53	54
239	4	36	57	58

Dihedrals

1	1	40	39	55	56
2	1	2	28	23	24
3	1	10	9	11	12
4	1	43	42	44	52
5	1	33	34	36	57
6	1	102	132	130	128
7	1	108	126	121	122
8	1	113	121	126	127
9	10	38	37	39	40
10	14	45	47	48	49
11	1	106	108	126	121
12	1	2	3	5	7
13	1	76	77	79	81
14	1	11	13	16	17
15	1	31	33	34	35
16	5	27	24	23	28
17	1	7	8	18	16
18	1	43	42	44	45
19	10	124	122	121	126
20	1	111	113	121	122
21	5	16	18	19	22
22	1	77	79	81	85
23	1	41	40	42	43
24	14	133	135	136	139
25	10	33	61	62	63
26	1	69	70	97	92
27	14	62	64	65	68
28	1	102	103	105	128
29	10	102	132	133	134
30	4	87	76	75	92
31	1	79	81	85	86
32	4	5	7	8	18
33	1	4	3	2	28
34	3	30	1	69	70
35	1	37	39	55	56
36	5	75	92	93	94
37	1	11	9	8	18
38	1	109	111	113	121
39	1	8	9	11	13
40	10	59	61	62	64
41	1	1	2	3	5
42	10	38	37	36	57
43	14	114	116	117	120
44	1	106	108	126	127
45	1	103	102	132	133
46	1	114	113	121	122
47	1	100	102	132	130
48	1	3	2	28	23
49	2	11	13	14	31
50	10	105	106	108	109
51	1	33	61	59	60
52	1	8	7	23	28
53	1	3	5	7	23
54	10	32	31	33	61
55	1	109	111	113	114
56	2	1	69	70	71
57	15	134	133	135	136
57	16	134	133	135	136
58	1	80	79	81	85
59	10	130	132	133	135
60	10	53	100	102	103
61	1	45	44	52	53
62	1	70	97	92	93
63	1	105	128	130	132
64	1	114	113	121	126
65	10	32	31	33	34
66	1	69	70	97	98
67	5	8	18	19	22
68	1	2	3	5	6
69	1	75	76	77	79
70	1	76	77	79	80
71	4	9	8	7	23
72	5	96	93	92	97
73	2	16	13	14	31
74	1	71	73	75	92
75	1	73	75	92	93
76	5	16	18	19	21
77	1	76	75	92	97
78	1	72	71	73	75
79	14	133	135	136	138
80	1	103	102	132	130
81	1	9	11	13	16
82	1	3	2	28	29
83	13	113	114	116	117
84	1	103	105	128	129
85	13	132	133	135	136
86	1	2	28	23	7
87	10	54	53	100	102
88	1	40	39	55	52
89	2	71	70	69	99
90	10	34	36	37	39
91	1	129	128	130	132
92	2	1	69	70	97
93	10	42	44	45	46
94	1	73	75	92	97
95	1	108	109	111	112
96	5	85	87	88	90
97	14	114	116	117	119
98	5	76	87	88	89
99	1	104	103	102	132
100	6	13	14	31	32
100	7	13	14	31	32
101	1	12	11	13	16
102	13	44	45	47	48
103	10	44	52	53	54
104	2	28	2	1	69
105	5	7	23	24	27
106	1	69	70	71	73
107	2	3	2	1	30
108	1	105	128	130	131
109	10	116	114	113	121
110	1	100	102	132	133
111	1	5	3	2	28
112	1	17	16	18	19
113	5	8	18	19	21
114	1	34	33	61	62
115	1	105	103	102	132
116	2	79	81	82	84
117	1	42	44	52	53
118	1	100	102	103	105
119	1	86	85	87	88
120	1	44	52	55	56
121	10	14	31	33	61
122	1	37	39	55	52
123	1	58	57	59	61
124	1	70	71	73	75
125	14	45	47	48	51
126	10	14	31	33	34
127	10	103	105	106	108
128	1	72	71	73	74
129	8	15	14	31	33
129	9	15	14	31	33
130	1	82	81	85	87
131	1	131	130	132	133
132	4	18	8	7	23
133	1	106	108	109	111
134	3	30	1	69	99
135	1	39	40	42	44
136	1	8	7	23	24
137	10	47	45	44	52
138	1	36	34	33	61
139	10	54	53	100	101
140	1	36	57	59	60
141	10	34	36	37	38
142	10	38	37	39	55
143	5	85	87	88	89
144	1	74	73	75	76
145	10	36	37	39	40
146	1	34	33	61	59
147	10	52	53	100	102
148	4	77	76	75	92
149	1	109	108	126	121
150	2	83	82	81	85
151	1	72	71	70	97
152	1	41	40	39	55
153	10	46	45	44	52
154	5	7	23	24	26
155	1	1	2	28	23
156	1	76	75	92	93
157	1	69	70	71	72
158	1	37	39	40	42
159	1	78	77	79	81
160	15	63	62	64	65
160	16	63	62	64	65
161	10	111	113	114	116
162	1	8	18	16	17
163	1	39	55	52	44
164	1	7	8	9	10
165	1	77	76	87	85
166	1	100	102	103	104
167	1	10	9	11	13
168	1	110	109	111	113
169	10	53	100	102	132
170	2	84	82	81	85
171	5	26	24	23	28
172	1	58	57	59	60
173	14	45	47	48	50
174	1	45	44	52	55
175	15	46	45	47	48
175	16	46	45	47	48
176	5	95	93	92	97
177	1	57	59	61	62
178	11	15	14	31	32
178	12	15	14	31	32
179	1	70	97	92	75
180	14	62	64	65	67
181	1	106	108	109	110
182	1	31	33	61	59
183	1	10	9	8	18
184	10	115	114	113	121
185	1	39	40	42	43
186	10	107	106	105	128
187	1	11	13	16	18
188	10	55	52	53	100
189	1	109	108	126	127
190	1	40	42	44	52
191	1	75	92	97	98
192	1	110	109	108	126
193	1	8	9	11	12
194	1	35	34	33	61
195	10	59	61	62	63
196	1	1	2	3	4
197	2	15	14	13	16
198	10	107	106	108	109
199	1	1	2	28	29
200	1	35	34	36	37
201	10	102	132	133	135
202	1	6	5	7	8
203	1	79	81	85	87
204	5	94	93	92	97
205	5	25	24	23	28
206	1	40	42	44	45
207	1	128	130	132	133
208	10	101	100	102	103
209	1	93	92	97	98
210	1	34	36	57	59
211	5	7	23	24	25
212	5	76	87	88	91
213	1	37	39	40	41
214	10	130	132	133	134
215	10	54	53	52	55
216	1	79	77	76	87
217	1	24	23	28	29
218	1	106	105	128	130
219	1	71	70	97	92
220	1	13	16	18	19
221	1	104	103	105	128
222	1	75	76	77	78
223	3	2	1	69	70
224	1	14	13	16	18
225	1	4	3	5	7
226	1	110	109	111	112
227	1	102	103	105	106
228	10	107	106	108	126
229	1	74	73	75	92
230	5	16	18	19	20
231	17	121	122	124	125
232	1	9	8	18	16
233	1	76	87	85	81
234	10	113	121	122	124
235	1	108	126	121	113
236	1	111	109	108	126
237	14	133	135	136	137
238	1	122	121	126	127
239	14	62	64	65	66
240	1	42	44	52	55
241	1	60	59	61	62
242	10	123	122	121	126
243	1	77	76	87	88
244	1	5	7	23	24
245	1	129	128	130	131
246	1	37	36	57	59
247	1	53	52	55	56
248	14	114	116	117	118
249	2	97	70	69	99
250	1	75	76	87	88
251	1	71	70	97	98
252	1	8	18	16	13
253	1	103	105	128	130
254	10	44	52	53	100
255	4	73	75	76	87
256	1	31	33	61	62
257	1	7	8	9	11
258	1	5	7	23	28
259	1	3	5	7	8
260	5	75	92	93	96
261	10	42	44	45	47
262	1	73	71	70	97
263	10	39	37	36	57
264	1	111	113	121	126
265	1	108	109	111	113
266	1	42	40	39	55
267	5	85	87	88	91
268	1	34	36	57	58
269	1	78	77	76	87
270	1	7	23	28	29
271	5	76	87	88	90
272	15	115	114	116	117
272	16	115	114	116	117
273	1	106	105	128	129
274	8	13	14	31	33
274	9	13	14	31	33
275	1	81	85	87	88
276	2	28	2	1	30
277	5	8	18	19	20
278	10	103	105	106	107
279	1	39	55	52	53
280	4	5	7	8	9
281	2	79	81	82	83
282	1	14	13	16	17
283	2	3	2	1	69
284	1	4	3	5	6
285	10	36	37	39	55
286	1	70	71	73	74
287	10	113	121	122	123
288	1	77	79	81	82
289	1	9	11	13	14
290	1	75	76	87	85
291	1	112	111	113	121
292	1	82	81	85	86
293	2	11	13	14	15
294	1	31	33	34	36
295	1	102	132	130	131
296	1	37	36	57	58
297	1	9	8	18	19
298	10	108	106	105	128
299	1	41	40	42	44
300	10	33	61	62	64
301	10	105	106	108	126
302	13	61	62	64	65
303	1	112	111	113	114
304	4	73	75	76	77
305	1	33	61	59	57
306	10	52	53	100	101
307	18	123	122	124	125
307	19	123	122	124	125
308	1	12	11	13	14
309	1	36	57	59	61
310	1	104	103	105	106
311	1	7	8	18	19
312	5	75	92	93	95
313	1	71	73	75	76
314	1	76	87	85	86
315	1	35	34	36	57
316	1	33	34	36	37
317	1	80	79	81	82
318	1	78	77	79	80
319	10	111	113	114	115
320	3	2	1	69	99
321	10	101	100	102	132
322	1	6	5	7	23

Impropers

3	1	109	108	110	111
17	1	61	62	33	59
24	1	106	108	105	107
33	1	102	103	132	100
37	1	70	69	71	97
41	1	121	113	122	126
42	1	130	132	128	131
45	1	34	33	35	36
48	1	53	54	100	52
50	1	113	111	114	121
59	3	114	113	115	116
62	1	132	130	133	102
65	2	14	13	15	31
68	1	73	75	71	74
69	1	44	52	42	45
74	1	73	71	74	75
76	1	36	37	57	34
79	1	130	131	132	128
83	1	81	85	79	82
87	1	128	130	105	129
88	1	59	60	61	57
93	2	82	84	81	83
94	3	45	44	46	47
97	1	100	102	53	101
99	1	7	8	23	5
107	1	75	76	92	73
109	1	128	105	129	130
112	1	31	32	33	14
118	1	81	79	82	85
122	3	62	64	61	63
124	3	122	123	124	121
126	2	1	30	69	2
127	1	53	52	54	100
129	1	103	104	105	102
130	1	57	36	58	59
131	2	14	31	13	15
137	1	3	2	4	5
140	1	5	6	7	3
141	1	71	73	70	72
144	1	77	78	79	76
145	1	85	87	81	86
147	3	114	116	113	115
148	1	77	76	78	79
150	1	2	3	28	1
163	1	132	102	130	133
165	2	82	81	83	84
166	1	9	8	10	11
167	1	111	109	112	113
168	1	37	38	39	36
170	1	128	129	130	105
173	1	70	97	69	71
177	1	9	10	11	8
181	1	31	33	14	32
183	3	45	47	44	46
185	1	92	75	93	97
186	1	113	121	111	114
189	1	79	81	77	80
194	1	87	76	85	88
200	1	23	24	28	7
201	1	40	41	42	39
205	1	102	100	103	132
207	1	77	79	76	78
208	1	40	39	41	42
210	1	111	112	113	109
211	1	75	73	76	92
213	1	87	88	76	85
221	3	133	132	134	135
222	1	76	77	87	75
224	1	76	87	75	77
226	1	105	106	128	103
228	1	44	42	45	52
232	1	16	13	17	18
234	1	87	85	88	76
239	1	79	80	81	77
241	1	16	18	13	17
242	1	13	16	11	14
245	1	52	55	44	53
249	1	55	52	56	39
250	1	61	59	62	33
251	2	1	2	30	69
253	2	14	15	31	13
254	1	13	11	14	16
255	1	103	102	104	105
257	1	2	1	3	28
263	1	85	86	87	81
268	1	42	40	43	44
270	1	8	9	18	7
278	3	133	134	135	132
279	1	28	23	29	2
283	1	113	114	121	111
285	1	111	113	109	112
288	1	23	28	7	24
292	1	100	101	102	53
293	1	70	71	97	69
294	1	5	7	3	6
298	1	36	57	34	37
302	2	1	69	2	30
304	1	102	132	100	103
306	1	42	43	44	40
307	1	75	92	73	76
311	1	31	14	32	33
312	1	44	45	52	42
315	1	33	31	34	61
316	1	11	13	9	12
319	1	61	33	59	62
322	1	39	55	37	40
325	1	3	5	2	4
326	1	39	40	55	37
328	1	103	105	102	104
329	1	18	16	19	8
331	2	82	83	84	81
334	1	39	37	40	55
335	1	52	53	55	44
344	1	37	36	38	39
346	1	8	18	7	9
349	1	33	61	31	34
351	1	28	2	23	29
354	1	9	11	8	10
355	1	126	108	121	127
359	1	85	81	86	87
362	1	42	44	40	43
363	1	37	39	36	38
371	1	5	3	6	7
373	1	33	34	61	31
384	1	71	72	73	70
387	1	59	57	60	61
392	1	7	5	8	23
403	1	18	19	8	16
409	1	108	109	126	106
411	1	105	103	106	128
412	1	71	70	72	73
418	1	55	39	52	56
419	1	8	7	9	18
421	1	11	12	13	9
422	1	13	14	16	11
430	1	130	128	131	132
439	1	92	93	97	75
441	1	97	70	92	98
442	1	109	111	108	110
443	3	114	115	116	113
444	3	62	63	64	61
445	1	57	58	59	36
446	1	53	100	52	54
449	1	105	128	103	106
453	1	28	29	2	23
456	1	2	28	1	3
460	1	106	105	107	108
462	3	122	121	123	124
464	3	45	46	47	44
466	1	106	107	108	105
468	1	108	106	109	126
472	1	121	122	126	113
474	1	97	92	98	70
483	1	121	126	113	122
485	1	52	44	53	55
486	3	122	124	121	123
489	1	73	74	75	71
490	1	23	7	24	28
492	1	108	126	106	109
494	1	59	61	57	60
497	1	18	8	16	19
499	1	7	23	5	8
503	3	133	135	132	134
504	1	34	35	36	33
511	2	69	70	99	1
516	1	100	53	101	102
517	1	79	77	80	81
518	2	69	99	1	70
524	1	40	42	39	41
526	1	97	98	70	92
528	1	132	133	102	130
530	1	16	17	18	13
531	1	81	82	85	79
532	1	57	59	36	58
534	1	36	34	37	57
535	1	126	121	127	108
538	1	126	127	108	121
539	1	109	110	111	108
542	2	69	1	70	99
544	3	62	61	63	64
545	1	34	36	33	35
546	1	55	56	39	52
547	1	92	97	75	93
551	1	3	4	5	2
554	1	11	9	12	13
557	1	76	75	77	87
