Title

92 atoms
95 bonds
166 angles
259 dihedrals
78 impropers

9 atom types
13 bond types
6 angle types
13 dihedral types
2 improper types
-5.728000164 94.27199984 xlo xhi
-14.28299999 85.71700001 ylo yhi
-4.202000141 95.79799986 zlo zhi
0.0 0.0 0.0 xy xz yz

Masses

1	15.99943
2	12.01078
3	1.007947
4	12.01078
5	1.007947
6	15.99943
7	15.99943
8	1.007947
9	35.4532


Pair Coeffs

1	0.16846514	3.0251065
2	0.086879315	3.4806469
3	0.015611343	2.5725815
4	0.10884061	3.3795318
5	0.015779483	2.6445434
6	0.2102061	3.0398122
7	0.20947353	2.99716
8	1.2326e-05	0.53453923
9	0.2656001	3.3075278

Bond Coeffs

1 harmonic	425.69104206635	1.362945806494
2 harmonic	300.03137914615	1.451203938761
3 harmonic	360.7852444772	1.387193227181
4 harmonic	397.2545789619	1.085358495916
5 harmonic	289.73813263395	1.498646816465
6 harmonic	264.62148576755	1.52190126495
7 harmonic	301.15400723785	1.345741232799
8 harmonic	370.04670688625	1.093899492634
9 harmonic	582.698766451	1.225198386222
10 harmonic	279.1350963404	1.454628925034
11 harmonic	385.7604595587	1.369745182308
12 harmonic	543.5267831885	0.9716763312559
13 harmonic	218.0227703685	1.746066037062


Angle Coeffs

1 harmonic	57.8982893754	126.8062420451
2 harmonic	65.09061609600001	110.3538806181
3 harmonic	34.066775159195	129.1835929926
4 harmonic	53.20531626545	116.5475862634
5 harmonic	201.41175231035	127.4691416191
6 harmonic	48.776492647595	115.6030999533


Dihedral Coeffs

1 fourier 1	3.661930099076	2	180
2 fourier 1	1.532232714475	2	180
3 fourier 1	0.457973137376	1	0
4 fourier 1	0.02664938770063	3	0
5 fourier 1	0.1155372516788	3	0
6 fourier 1	0.09223874044423	3	0
7 fourier 1	0.3159935921949	2	180
8 fourier 1	0.3247796806857	1	180
9 fourier 1	0.1040663847541	3	0
10 fourier 1	2.779853741805	2	180
11 fourier 1	0.9974165607242	2	180
12 fourier 1	0.1911926717192	3	0
13 fourier 1	0.8283030590042	2	180


Improper Coeffs

1 0.3666666666666667	-1	2
2 3.5	-1	2


Atoms

1	1	1	-0.029348999	2.3180001	-3.7939999	-3.8670001
2	1	2	0.271696	1.7359999	-2.98	-2.898
3	1	2	-0.324862	1.425	-3.4630001	-1.688
4	1	3	0.222394	1.6160001	-4.5	-1.446
5	1	2	-0.15568	0.80800003	-2.586	-0.671
6	1	3	0.207166	0.52600002	-3.043	0.26699999
7	1	2	-0.25739899	0.59600002	-1.271	-0.91500002
8	1	4	0.026458001	-0.109	-0.35100001	0.112
9	1	2	-0.25739899	0.39300001	1.096	-0.119
10	1	2	-0.158951	1.699	1.3839999	0.093999997
11	1	3	0.207166	2.382	0.62300003	0.44999999
12	1	2	-0.27686501	2.2349999	2.7379999	-0.148
13	1	3	0.22259501	3.277	2.944	0.061999999
14	1	2	0.433972	1.441	3.7	-0.625
15	1	1	-0.443151	1.954	4.9749999	-0.84799999
16	1	2	-0.27686501	0.026000001	3.4000001	-0.92000002
17	1	3	0.22259501	-0.611	4.1690001	-1.3380001
18	1	2	-0.158951	-0.46799999	2.177	-0.69400001
19	1	3	0.207166	-1.498	1.999	-0.96399999
20	1	4	-0.130539	0.233	-0.80800003	1.586
21	1	4	-0.13032	0.131	0.273	2.6889999
22	1	4	-0.122608	0.114	-0.35800001	4.079
23	1	5	0.066003002	-0.78600001	-0.99800003	4.1999998
24	1	5	0.066003002	1.026	-0.972	4.2350001
25	1	5	0.066003002	0.086000003	0.44	4.8499999
26	1	5	0.087996997	1.008	0.95099998	2.6370001
27	1	5	0.087996997	-0.77399999	0.89700001	2.5769999
28	1	5	0.103596	-0.42199999	-1.665	1.862
29	1	5	0.103596	1.277	-1.191	1.624
30	1	4	-0.130539	-1.641	-0.54400003	-0.171
31	1	4	-0.13032	-2.6159999	0.114	0.824
32	1	4	-0.122608	-4.0549998	0.021	0.322
33	1	5	0.066003002	-4.164	0.56999999	-0.63800001
34	1	5	0.066003002	-4.7399998	0.47600001	1.069
35	1	5	0.066003002	-4.3449998	-1.041	0.17399999
36	1	5	0.087996997	-2.3740001	1.183	0.98199999
37	1	5	0.087996997	-2.563	-0.41	1.802
38	1	5	0.103596	-1.87	-0.20299999	-1.205
39	1	5	0.103596	-1.869	-1.6339999	-0.164
40	1	2	-0.15568	0.903	-0.76800001	-2.2920001
41	1	3	0.207166	0.67699999	0.25299999	-2.5699999
42	1	2	-0.324862	1.449	-1.569	-3.2130001
43	1	3	0.222394	1.668	-1.1849999	-4.2020001
44	1	2	0.62678999	1.351	5.7449999	-1.225
45	1	6	-0.50634199	1.852	6.8070002	-1.556
46	1	1	-0.029348999	2.5280001	-4.77	-3.688
47	1	2	0.271696	1.663	-5.585	-2.96
48	1	2	-0.324862	0.51700002	-5.1020002	-2.4619999
49	1	3	0.222394	0.249	-4.0640001	-2.6129999
50	1	2	-0.15568	-0.38999999	-5.9780002	-1.693
51	1	3	0.207166	-1.271	-5.5209999	-1.266
52	1	2	-0.25739899	-0.115	-7.2940001	-1.522
53	1	4	0.026458001	-1.0190001	-8.2139997	-0.66299999
54	1	2	-0.25739899	-0.86900002	-9.6599998	-1.196
55	1	2	-0.114434	-1.285	-9.948	-2.4519999
56	1	3	0.207166	-1.745	-9.1879997	-3.0699999
57	1	2	-0.41571999	-1.131	-11.302	-3.0190001
58	1	3	0.227457	-1.502	-11.508	-4.0149999
59	1	2	0.42477599	-0.53399998	-12.264	-2.3110001
60	1	7	-0.65156001	-0.39500001	-13.539	-2.8529999
61	1	8	0.43234399	0.056000002	-14.283	-2.3340001
62	1	2	-0.41571999	-0.02	-11.964	-0.95999998
63	1	3	0.227457	0.493	-12.733	-0.396
64	1	2	-0.114434	-0.16500001	-10.741	-0.43599999
65	1	3	0.207166	0.26300001	-10.563	0.53799999
66	1	4	-0.130539	-2.5280001	-7.756	-0.76899999
67	1	4	-0.13032	-3.6010001	-8.8369999	-0.49399999
68	1	4	-0.122608	-4.9710002	-8.2060003	-0.25799999
69	1	5	0.066003002	-4.9489999	-7.566	0.64899999
70	1	5	0.066003002	-5.2690001	-7.592	-1.135
71	1	5	0.066003002	-5.7280002	-9.0050001	-0.11
72	1	5	0.087996997	-3.687	-9.5150003	-1.369
73	1	5	0.087996997	-3.348	-9.4610004	0.38100001
74	1	5	0.103596	-2.697	-6.9000001	-0.079000004
75	1	5	0.103596	-2.73	-7.3730001	-1.794
76	1	4	-0.130539	-0.498	-8.0209999	0.80400002
77	1	4	-0.13032	-1.326	-8.6780005	1.925
78	1	4	-0.122608	-0.60399997	-8.5860004	3.266
79	1	5	0.066003002	0.36199999	-9.1339998	3.2219999
80	1	5	0.066003002	-1.233	-9.04	4.0599999
81	1	5	0.066003002	-0.41100001	-7.5240002	3.529
82	1	5	0.087996997	-1.52	-9.7469997	1.71
83	1	5	0.087996997	-2.3010001	-8.1549997	2.026
84	1	5	0.103596	0.55900002	-8.3610001	0.86799997
85	1	5	0.103596	-0.46799999	-6.9310002	1.031
86	1	2	-0.15568	1.196	-7.7969999	-2.0420001
87	1	3	0.207166	1.506	-8.8170004	-1.863
88	1	2	-0.324862	2.02	-6.9949999	-2.727
89	1	3	0.222394	2.961	-7.3790002	-3.098
90	1	2	0.46628901	0.28	5.598	-1.319
91	1	6	-0.58550298	-0.20999999	4.5089998	-1.072
92	1	9	-0.089441001	-0.74599999	6.927	-1.8279999

Bonds

1	1	1	2
2	2	1	46
3	3	2	3
4	3	2	42
5	4	3	4
6	3	3	5
7	4	5	6
8	3	5	7
9	5	7	8
10	3	7	40
11	5	8	9
12	6	8	20
13	6	8	30
14	3	9	10
15	3	9	18
16	4	10	11
17	3	10	12
18	4	12	13
19	3	12	14
20	1	14	15
21	3	14	16
22	7	15	44
23	4	16	17
24	3	16	18
25	4	18	19
26	6	20	21
27	8	20	28
28	8	20	29
29	6	21	22
30	8	21	26
31	8	21	27
32	8	22	23
33	8	22	24
34	8	22	25
35	6	30	31
36	8	30	38
37	8	30	39
38	6	31	32
39	8	31	36
40	8	31	37
41	8	32	33
42	8	32	34
43	8	32	35
44	4	40	41
45	3	40	42
46	4	42	43
47	9	44	45
48	10	44	90
49	1	46	47
50	3	47	48
51	3	47	88
52	4	48	49
53	3	48	50
54	4	50	51
55	3	50	52
56	5	52	53
57	3	52	86
58	5	53	54
59	6	53	66
60	6	53	76
61	3	54	55
62	3	54	64
63	4	55	56
64	3	55	57
65	4	57	58
66	3	57	59
67	11	59	60
68	3	59	62
69	12	60	61
70	4	62	63
71	3	62	64
72	4	64	65
73	6	66	67
74	8	66	74
75	8	66	75
76	6	67	68
77	8	67	72
78	8	67	73
79	8	68	69
80	8	68	70
81	8	68	71
82	6	76	77
83	8	76	84
84	8	76	85
85	6	77	78
86	8	77	82
87	8	77	83
88	8	78	79
89	8	78	80
90	8	78	81
91	4	86	87
92	3	86	88
93	4	88	89
94	9	90	91
95	13	90	92

Angles

1	6	24	22	25
2	6	36	31	37
3	6	82	77	83
4	3	56	55	57
5	4	8	30	39
6	1	15	14	16
7	4	54	53	66
8	1	53	52	86
9	3	14	16	17
10	4	32	31	36
11	1	91	90	92
12	4	20	21	22
13	1	15	44	90
14	1	53	54	55
15	1	10	9	18
16	4	53	76	84
17	2	59	60	61
18	4	77	76	84
19	1	9	10	12
20	4	9	8	30
21	6	84	76	85
22	3	3	5	6
23	3	62	64	65
24	3	2	42	43
25	4	8	30	31
26	6	33	32	34
27	1	14	16	18
28	4	32	31	37
29	6	34	32	35
30	4	52	53	76
31	4	21	22	23
32	4	67	68	69
33	3	10	12	13
34	3	52	86	87
35	3	54	64	65
36	4	66	67	72
37	4	77	76	85
38	1	55	54	64
39	6	74	66	75
40	4	31	32	35
41	4	66	67	68
42	6	33	32	35
43	3	4	3	5
44	4	30	31	37
45	4	7	8	20
46	6	69	68	71
47	4	20	21	26
48	3	47	48	49
49	4	21	22	24
50	4	67	68	70
51	3	6	5	7
52	1	50	52	86
53	1	52	86	88
54	1	53	54	64
55	1	46	47	48
56	2	14	15	44
57	1	8	9	10
58	1	54	64	62
59	3	17	16	18
60	3	63	62	64
61	1	12	14	15
62	3	2	3	4
63	4	20	21	27
64	3	41	40	42
65	3	9	18	19
66	1	47	48	50
67	6	26	21	27
68	4	78	77	82
69	3	58	57	59
70	1	45	44	90
71	1	57	59	60
72	1	8	9	18
73	4	66	53	76
74	1	46	47	88
75	4	53	76	85
76	4	68	67	73
77	1	12	14	16
78	4	77	78	79
79	1	3	5	7
80	2	2	1	46
81	4	76	77	82
82	4	9	8	20
83	1	5	7	40
84	4	8	20	28
85	1	3	2	42
86	6	23	22	24
87	2	1	46	47
88	1	9	18	16
89	1	2	42	40
90	4	76	77	78
91	4	52	53	66
92	1	10	12	14
93	3	47	88	89
94	4	66	67	73
95	4	53	76	77
96	4	77	78	80
97	3	7	40	41
98	6	70	68	71
99	3	87	86	88
100	4	8	20	29
101	3	49	48	50
102	3	13	12	14
103	6	28	20	29
104	3	48	50	51
105	4	21	22	25
106	4	67	68	71
107	5	15	44	45
108	4	54	53	76
109	3	54	55	56
110	1	48	47	88
111	1	1	2	42
112	4	7	8	9
113	4	53	66	74
114	4	8	20	21
115	4	52	53	54
116	1	48	50	52
117	1	2	3	5
118	3	9	10	11
119	3	16	18	19
120	3	40	42	43
121	3	59	62	63
122	6	79	78	80
123	3	55	57	58
124	3	86	88	89
125	4	78	77	83
126	6	80	78	81
127	4	31	32	33
128	1	54	55	57
129	4	20	8	30
130	1	44	90	91
131	4	21	20	28
132	4	67	66	74
133	4	53	66	75
134	6	72	67	73
135	1	1	2	3
136	1	60	59	62
137	1	59	62	64
138	6	79	78	81
139	1	55	57	59
140	4	76	77	83
141	1	50	52	53
142	4	31	32	34
143	1	5	7	8
144	4	31	30	38
145	4	7	8	30
146	6	23	22	25
147	4	22	21	26
148	4	68	67	72
149	1	44	90	92
150	4	30	31	36
151	4	21	20	29
152	4	67	66	75
153	6	69	68	70
154	1	8	7	40
155	1	57	59	62
156	4	8	30	38
157	3	11	10	12
158	6	38	30	39
159	3	51	50	52
160	4	53	66	67
161	4	30	31	32
162	4	77	78	81
163	1	7	40	42
164	4	31	30	39
165	1	47	88	86
166	4	22	21	27

Dihedrals

1	5	54	53	76	77
2	9	76	77	78	81
3	1	4	3	2	42
4	5	9	8	30	31
5	4	52	53	54	64
6	1	3	2	42	43
7	12	36	31	30	38
8	5	52	53	76	84
9	9	20	21	22	25
10	1	46	47	88	89
11	9	66	67	68	69
12	12	70	68	67	73
13	1	12	14	16	18
14	1	48	47	88	86
15	1	14	16	18	19
16	1	51	50	52	53
17	2	14	15	44	45
18	1	8	9	10	11
19	9	32	31	30	38
20	2	3	2	1	46
21	4	55	54	53	66
22	5	54	53	66	67
23	1	60	59	62	63
24	4	5	7	8	20
25	1	8	9	18	16
26	1	12	10	9	18
27	9	66	53	76	85
28	1	7	40	42	43
29	12	79	78	77	82
30	12	83	77	76	85
31	1	9	18	16	17
32	4	50	52	53	54
33	9	30	31	32	35
34	12	36	31	30	39
35	1	2	42	40	7
36	5	52	53	76	85
37	1	59	62	64	65
38	9	66	67	68	70
39	1	53	54	64	65
40	1	48	50	52	53
41	5	9	8	20	28
42	12	24	22	21	27
43	9	75	66	53	76
44	4	18	9	8	20
45	1	54	55	57	58
46	1	11	10	12	13
47	1	3	2	42	40
48	1	60	59	62	64
49	1	10	12	14	15
50	2	12	14	15	44
51	1	1	2	3	4
52	4	10	9	8	30
53	1	3	5	7	40
54	6	21	20	8	30
54	7	21	20	8	30
54	8	21	20	8	30
55	12	26	21	20	28
56	1	46	47	88	86
57	4	30	8	7	40
58	4	50	52	53	66
59	9	53	76	77	83
60	4	54	53	52	86
61	1	55	57	59	60
62	6	66	53	76	77
62	7	66	53	76	77
62	8	66	53	76	77
63	9	68	67	66	74
64	1	51	50	52	86
65	1	55	54	64	65
66	9	78	77	76	84
67	12	23	22	21	26
68	1	49	48	47	88
69	9	20	8	30	38
70	13	57	59	60	61
71	9	53	66	67	72
72	1	15	14	16	17
73	1	13	12	14	15
74	1	8	7	40	41
75	5	52	53	76	77
76	11	15	44	90	92
77	5	9	8	20	29
78	4	64	54	53	66
79	2	1	46	47	88
80	9	8	20	21	26
81	1	9	18	16	14
82	12	35	32	31	36
83	1	49	48	50	52
84	12	37	31	30	38
85	1	54	55	57	59
86	1	1	2	3	5
87	12	26	21	20	29
88	6	53	66	67	68
88	7	53	66	67	68
88	8	53	66	67	68
89	1	3	5	7	8
90	9	68	67	66	75
91	1	53	54	64	62
92	12	71	68	67	73
93	9	22	21	20	28
94	1	48	50	52	86
95	9	78	77	76	85
96	1	47	48	50	51
97	1	50	48	47	88
98	6	8	20	21	22
98	7	8	20	21	22
98	8	8	20	21	22
99	12	23	22	21	27
100	12	33	32	31	37
101	9	20	8	30	39
102	1	54	64	62	63
103	12	69	68	67	73
104	1	53	54	55	56
105	1	15	14	16	18
106	1	13	12	14	16
107	1	8	7	40	42
108	1	46	47	48	50
109	4	76	53	52	86
110	9	8	20	21	27
111	5	9	8	20	21
112	1	5	3	2	42
113	12	37	31	30	39
114	1	55	54	64	62
115	1	54	64	62	59
116	1	4	3	5	6
117	1	57	59	62	63
118	5	52	53	66	74
119	12	81	78	77	82
120	1	2	3	5	6
121	4	7	8	9	10
122	1	47	48	50	52
123	4	55	54	53	76
124	12	82	77	76	84
125	12	80	78	77	82
126	12	72	67	66	74
127	9	8	30	31	36
128	1	8	9	10	12
129	9	32	31	30	39
130	1	9	10	12	13
131	1	53	54	55	57
132	6	20	8	30	31
132	7	20	8	30	31
132	8	20	8	30	31
133	12	73	67	66	74
134	3	2	1	46	47
135	1	5	7	40	41
136	1	10	9	18	19
137	12	79	78	77	83
138	2	16	14	15	44
139	1	6	5	7	40
140	10	14	15	44	90
141	1	58	57	59	60
142	5	7	8	30	38
143	1	56	55	57	58
144	1	2	42	40	41
145	6	8	30	31	32
145	7	8	30	31	32
145	8	8	30	31	32
146	1	57	59	62	64
147	4	7	8	9	18
148	11	45	44	90	91
149	5	52	53	66	75
150	9	66	67	68	71
151	12	81	78	77	83
152	12	25	22	21	26
153	5	9	8	30	38
154	4	18	9	8	30
155	12	27	21	20	28
156	1	53	52	86	87
157	4	5	7	8	9
158	9	76	77	78	79
159	12	72	67	66	75
160	9	8	30	31	37
161	4	20	8	7	40
162	1	11	10	12	14
163	4	50	52	53	76
164	1	10	12	14	16
165	4	9	8	7	40
166	1	57	55	54	64
167	12	34	32	31	36
168	9	20	21	22	23
169	1	5	7	40	42
170	6	67	66	53	76
170	7	67	66	53	76
170	8	67	66	53	76
171	5	7	8	20	28
172	9	74	66	53	76
173	4	10	9	8	20
174	1	63	62	64	65
175	5	7	8	30	39
176	1	56	55	57	59
177	9	53	66	67	73
178	11	45	44	90	92
179	4	64	54	53	76
180	1	10	9	18	16
181	1	48	47	88	89
182	5	52	53	66	67
183	12	35	32	31	37
184	9	30	31	32	33
185	1	1	2	42	43
186	13	61	60	59	62
187	12	34	32	31	37
188	1	55	57	59	62
189	5	7	8	20	29
190	1	87	86	88	89
191	1	12	14	16	17
192	9	22	21	20	29
193	9	28	20	8	30
194	5	7	8	30	31
195	4	5	7	8	30
196	12	83	77	76	84
197	1	52	86	88	89
198	9	30	31	32	34
199	1	4	3	5	7
200	4	52	53	54	55
201	5	54	53	76	84
202	1	2	3	5	7
203	1	50	52	86	87
204	5	7	8	20	21
205	12	82	77	76	85
206	12	24	22	21	26
207	12	80	78	77	83
208	2	42	2	1	46
209	1	9	10	12	14
210	1	47	88	86	52
211	12	73	67	66	75
212	1	1	2	42	40
213	9	53	76	77	82
214	1	6	5	7	8
215	1	11	10	9	18
216	5	54	53	66	74
217	5	54	53	76	85
218	1	47	88	86	87
219	12	25	22	21	27
220	6	53	76	77	78
220	7	53	76	77	78
220	8	53	76	77	78
221	5	9	8	30	39
222	11	15	44	90	91
223	2	1	46	47	48
224	12	27	21	20	29
225	1	50	52	86	88
226	1	53	52	86	88
227	9	76	77	78	80
228	4	66	53	52	86
229	1	49	48	50	51
230	1	41	40	42	43
231	1	8	9	18	19
232	9	20	21	22	24
233	12	70	68	67	72
234	12	71	68	67	72
235	1	58	57	59	62
236	1	17	16	18	19
237	9	29	20	8	30
238	1	56	55	54	64
239	12	33	32	31	36
240	5	54	53	66	75
241	12	69	68	67	72
242	1	46	47	48	49
243	9	66	53	76	84

Impropers

1	1	12	13	14	10
2	1	64	65	54	62
6	1	40	41	42	7
12	1	54	55	64	53
15	1	86	87	88	52
21	1	57	58	59	55
28	1	54	53	55	64
31	1	62	59	63	64
32	1	40	7	41	42
40	1	57	59	55	58
48	1	88	47	86	89
52	1	50	48	51	52
68	1	54	64	53	55
70	1	50	51	52	48
91	1	5	3	6	7
99	1	14	16	12	15
104	1	50	52	48	51
114	1	90	92	44	91
118	1	2	42	1	3
132	1	62	63	64	59
137	1	52	50	53	86
157	1	86	88	52	87
191	1	18	9	16	19
201	1	2	1	3	42
204	1	3	2	4	5
211	1	12	14	10	13
214	1	16	18	14	17
217	1	64	54	62	65
224	1	9	8	10	18
227	1	3	5	2	4
228	2	44	90	15	45
232	1	42	2	40	43
235	2	44	15	45	90
244	1	7	5	8	40
267	1	3	4	5	2
269	1	55	56	57	54
274	1	48	50	47	49
277	1	14	12	15	16
278	1	12	10	13	14
281	1	5	6	7	3
284	1	42	40	43	2
288	1	55	57	54	56
302	1	18	16	19	9
303	1	10	12	9	11
311	1	9	18	8	10
313	1	88	89	47	86
317	1	16	17	18	14
319	1	59	60	62	57
320	1	10	11	12	9
321	1	47	48	88	46
323	1	48	47	49	50
329	1	42	43	2	40
334	1	62	64	59	63
336	1	90	91	92	44
354	1	10	9	11	12
358	1	9	10	18	8
364	1	14	15	16	12
370	1	48	49	50	47
377	1	52	53	86	50
378	1	47	46	48	88
379	1	64	62	65	54
380	1	52	86	50	53
381	1	59	62	57	60
395	1	47	88	46	48
397	2	44	45	90	15
407	1	7	8	40	5
408	1	5	7	3	6
415	1	2	3	42	1
419	1	59	57	60	62
422	1	86	52	87	88
423	1	7	40	5	8
426	1	40	42	7	41
436	1	88	86	89	47
445	1	57	55	58	59
446	1	55	54	56	57
447	1	18	19	9	16
461	1	16	14	17	18
485	1	90	44	91	92
