Title

92 atoms
95 bonds
166 angles
259 dihedrals
78 impropers

9 atom types
13 bond types
6 angle types
13 dihedral types
2 improper types
-5.728000164 94.27199984 xlo xhi
-14.28299999 85.71700001 ylo yhi
-4.202000141 95.79799986 zlo zhi
0.0 0.0 0.0 xy xz yz

Masses

1	15.99943
2	12.01078
3	1.007947
4	12.01078
5	1.007947
6	15.99943
7	15.99943
8	1.007947
9	35.4532


Pair Coeffs

1	0.16846514	3.0251065
2	0.086879315	3.4806469
3	0.015611343	2.5725815
4	0.10884061	3.3795318
5	0.015779483	2.6445434
6	0.2102061	3.0398122
7	0.20947353	2.99716
8	1.2326e-05	0.53453923
9	0.2656001	3.3075278

Bond Coeffs

1 harmonic	425.69104206635	1.362945806494
2 harmonic	300.03137914615	1.451203938761
3 harmonic	360.7852444772	1.387193227181
4 harmonic	397.2545789619	1.085358495916
5 harmonic	289.73813263395	1.498646816465
6 harmonic	264.62148576755	1.52190126495
7 harmonic	301.15400723785	1.345741232799
8 harmonic	370.04670688625	1.093899492634
9 harmonic	582.698766451	1.225198386222
10 harmonic	279.1350963404	1.454628925034
11 harmonic	385.7604595587	1.369745182308
12 harmonic	543.5267831885	0.9716763312559
13 harmonic	218.0227703685	1.746066037062


Angle Coeffs

1 harmonic	57.8982893754	126.8062420451
2 harmonic	65.09061609600001	110.3538806181
3 harmonic	34.066775159195	129.1835929926
4 harmonic	53.20531626545	116.5475862634
5 harmonic	201.41175231035	127.4691416191
6 harmonic	48.776492647595	115.6030999533


Dihedral Coeffs

1 fourier 1	3.661930099076	2	180
2 fourier 1	1.532232714475	2	180
3 fourier 1	0.457973137376	1	0
4 fourier 1	0.02664938770063	3	0
5 fourier 1	0.1155372516788	3	0
6 fourier 1	0.09223874044423	3	0
7 fourier 1	0.3159935921949	2	180
8 fourier 1	0.3247796806857	1	180
9 fourier 1	0.1040663847541	3	0
10 fourier 1	2.779853741805	2	180
11 fourier 1	0.9974165607242	2	180
12 fourier 1	0.1911926717192	3	0
13 fourier 1	0.8283030590042	2	180


Improper Coeffs

1 0.3666666666666667	-1	2
2 3.5	-1	2


Atoms

1	1	1	-0.029348999	2.3180001	-3.7939999	-3.8670001
2	1	2	0.271696	1.7359999	-2.98	-2.898
3	1	2	-0.324862	1.425	-3.4630001	-1.688
4	1	3	0.222394	1.6160001	-4.5	-1.446
5	1	2	-0.15568	0.80800003	-2.586	-0.671
6	1	3	0.207166	0.52600002	-3.043	0.26699999
7	1	2	-0.25739899	0.59600002	-1.271	-0.91500002
8	1	4	0.026458001	-0.109	-0.35100001	0.112
9	1	2	-0.25739899	0.39300001	1.096	-0.119
10	1	2	-0.158951	1.699	1.3839999	0.093999997
11	1	3	0.207166	2.382	0.62300003	0.44999999
12	1	2	-0.27686501	2.2349999	2.7379999	-0.148
13	1	3	0.22259501	3.277	2.944	0.061999999
14	1	2	0.433972	1.441	3.7	-0.625
15	1	1	-0.443151	1.954	4.9749999	-0.84799999
16	1	2	-0.27686501	0.026000001	3.4000001	-0.92000002
17	1	3	0.22259501	-0.611	4.1690001	-1.3380001
18	1	2	-0.158951	-0.46799999	2.177	-0.69400001
19	1	3	0.207166	-1.498	1.999	-0.96399999
20	1	4	-0.130539	0.233	-0.80800003	1.586
21	1	4	-0.13032	0.131	0.273	2.6889999
22	1	4	-0.122608	0.114	-0.35800001	4.079
23	1	5	0.066003002	-0.78600001	-0.99800003	4.1999998
24	1	5	0.066003002	1.026	-0.972	4.2350001
25	1	5	0.066003002	0.086000003	0.44	4.8499999
26	1	5	0.087996997	1.008	0.95099998	2.6370001
27	1	5	0.087996997	-0.77399999	0.89700001	2.5769999
28	1	5	0.103596	-0.42199999	-1.665	1.862
29	1	5	0.103596	1.277	-1.191	1.624
30	1	4	-0.130539	-1.641	-0.54400003	-0.171
31	1	4	-0.13032	-2.6159999	0.114	0.824
32	1	4	-0.122608	-4.0549998	0.021	0.322
33	1	5	0.066003002	-4.164	0.56999999	-0.63800001
34	1	5	0.066003002	-4.7399998	0.47600001	1.069
35	1	5	0.066003002	-4.3449998	-1.041	0.17399999
36	1	5	0.087996997	-2.3740001	1.183	0.98199999
37	1	5	0.087996997	-2.563	-0.41	1.802
38	1	5	0.103596	-1.87	-0.20299999	-1.205
39	1	5	0.103596	-1.869	-1.6339999	-0.164
40	1	2	-0.15568	0.903	-0.76800001	-2.2920001
41	1	3	0.207166	0.67699999	0.25299999	-2.5699999
42	1	2	-0.324862	1.449	-1.569	-3.2130001
43	1	3	0.222394	1.668	-1.1849999	-4.2020001
44	1	2	0.62678999	1.351	5.7449999	-1.225
45	1	6	-0.50634199	1.852	6.8070002	-1.556
46	1	1	-0.029348999	2.5280001	-4.77	-3.688
47	1	2	0.271696	1.663	-5.585	-2.96
48	1	2	-0.324862	0.51700002	-5.1020002	-2.4619999
49	1	3	0.222394	0.249	-4.0640001	-2.6129999
50	1	2	-0.15568	-0.38999999	-5.9780002	-1.693
51	1	3	0.207166	-1.271	-5.5209999	-1.266
52	1	2	-0.25739899	-0.115	-7.2940001	-1.522
53	1	4	0.026458001	-1.0190001	-8.2139997	-0.66299999
54	1	2	-0.25739899	-0.86900002	-9.6599998	-1.196
55	1	2	-0.114434	-1.285	-9.948	-2.4519999
56	1	3	0.207166	-1.745	-9.1879997	-3.0699999
57	1	2	-0.41571999	-1.131	-11.302	-3.0190001
58	1	3	0.227457	-1.502	-11.508	-4.0149999
59	1	2	0.42477599	-0.53399998	-12.264	-2.3110001
60	1	7	-0.65156001	-0.39500001	-13.539	-2.8529999
61	1	8	0.43234399	0.056000002	-14.283	-2.3340001
62	1	2	-0.41571999	-0.02	-11.964	-0.95999998
63	1	3	0.227457	0.493	-12.733	-0.396
64	1	2	-0.114434	-0.16500001	-10.741	-0.43599999
65	1	3	0.207166	0.26300001	-10.563	0.53799999
66	1	4	-0.130539	-2.5280001	-7.756	-0.76899999
67	1	4	-0.13032	-3.6010001	-8.8369999	-0.49399999
68	1	4	-0.122608	-4.9710002	-8.2060003	-0.25799999
69	1	5	0.066003002	-4.9489999	-7.566	0.64899999
70	1	5	0.066003002	-5.2690001	-7.592	-1.135
71	1	5	0.066003002	-5.7280002	-9.0050001	-0.11
72	1	5	0.087996997	-3.687	-9.5150003	-1.369
73	1	5	0.087996997	-3.348	-9.4610004	0.38100001
74	1	5	0.103596	-2.697	-6.9000001	-0.079000004
75	1	5	0.103596	-2.73	-7.3730001	-1.794
76	1	4	-0.130539	-0.498	-8.0209999	0.80400002
77	1	4	-0.13032	-1.326	-8.6780005	1.925
78	1	4	-0.122608	-0.60399997	-8.5860004	3.266
79	1	5	0.066003002	0.36199999	-9.1339998	3.2219999
80	1	5	0.066003002	-1.233	-9.04	4.0599999
81	1	5	0.066003002	-0.41100001	-7.5240002	3.529
82	1	5	0.087996997	-1.52	-9.7469997	1.71
83	1	5	0.087996997	-2.3010001	-8.1549997	2.026
84	1	5	0.103596	0.55900002	-8.3610001	0.86799997
85	1	5	0.103596	-0.46799999	-6.9310002	1.031
86	1	2	-0.15568	1.196	-7.7969999	-2.0420001
87	1	3	0.207166	1.506	-8.8170004	-1.863
88	1	2	-0.324862	2.02	-6.9949999	-2.727
89	1	3	0.222394	2.961	-7.3790002	-3.098
90	1	2	0.46628901	0.28	5.598	-1.319
91	1	6	-0.58550298	-0.20999999	4.5089998	-1.072
92	1	9	-0.089441001	-0.74599999	6.927	-1.8279999

Bonds

1	1	1	2
2	2	1	46
3	3	2	3
4	3	2	42
5	4	3	4
6	3	3	5
7	4	5	6
8	3	5	7
9	5	7	8
10	3	7	40
11	5	8	9
12	6	8	20
13	6	8	30
14	3	9	10
15	3	9	18
16	4	10	11
17	3	10	12
18	4	12	13
19	3	12	14
20	1	14	15
21	3	14	16
22	7	15	44
23	4	16	17
24	3	16	18
25	4	18	19
26	6	20	21
27	8	20	28
28	8	20	29
29	6	21	22
30	8	21	26
31	8	21	27
32	8	22	23
33	8	22	24
34	8	22	25
35	6	30	31
36	8	30	38
37	8	30	39
38	6	31	32
39	8	31	36
40	8	31	37
41	8	32	33
42	8	32	34
43	8	32	35
44	4	40	41
45	3	40	42
46	4	42	43
47	9	44	45
48	10	44	90
49	1	46	47
50	3	47	48
51	3	47	88
52	4	48	49
53	3	48	50
54	4	50	51
55	3	50	52
56	5	52	53
57	3	52	86
58	5	53	54
59	6	53	66
60	6	53	76
61	3	54	55
62	3	54	64
63	4	55	56
64	3	55	57
65	4	57	58
66	3	57	59
67	11	59	60
68	3	59	62
69	12	60	61
70	4	62	63
71	3	62	64
72	4	64	65
73	6	66	67
74	8	66	74
75	8	66	75
76	6	67	68
77	8	67	72
78	8	67	73
79	8	68	69
80	8	68	70
81	8	68	71
82	6	76	77
83	8	76	84
84	8	76	85
85	6	77	78
86	8	77	82
87	8	77	83
88	8	78	79
89	8	78	80
90	8	78	81
91	4	86	87
92	3	86	88
93	4	88	89
94	9	90	91
95	13	90	92

Angles

1	4	52	53	54
2	1	54	64	62
3	4	31	32	34
4	4	68	67	73
5	3	2	3	4
6	3	9	18	19
7	4	21	22	25
8	4	67	68	71
9	4	8	20	29
10	6	82	77	83
11	3	13	12	14
12	3	49	48	50
13	1	50	52	86
14	4	52	53	66
15	1	52	86	88
16	3	47	48	49
17	4	66	53	76
18	4	53	66	74
19	1	10	9	18
20	1	12	14	16
21	2	1	46	47
22	3	63	62	64
23	6	79	78	80
24	3	55	57	58
25	4	9	8	20
26	1	54	55	57
27	4	8	20	21
28	1	46	47	48
29	2	14	15	44
30	4	20	8	30
31	1	2	42	40
32	3	9	10	11
33	3	59	62	63
34	1	9	18	16
35	4	78	77	83
36	6	38	30	39
37	3	10	12	13
38	4	21	20	28
39	1	44	90	91
40	4	77	76	85
41	6	70	68	71
42	4	77	78	79
43	1	5	7	8
44	4	67	66	75
45	4	7	8	30
46	4	22	21	26
47	5	15	44	45
48	6	28	20	29
49	1	59	62	64
50	4	76	77	83
51	4	54	53	76
52	6	23	22	25
53	1	5	7	40
54	3	6	5	7
55	1	10	12	14
56	4	21	20	29
57	1	3	2	42
58	4	7	8	9
59	4	20	21	26
60	4	31	32	35
61	1	2	3	5
62	6	80	78	81
63	1	91	90	92
64	4	20	21	22
65	4	52	53	76
66	4	32	31	36
67	3	48	50	51
68	3	52	86	87
69	1	1	2	3
70	4	30	31	37
71	1	15	14	16
72	1	1	2	42
73	1	47	48	50
74	4	53	66	75
75	3	7	40	41
76	6	72	67	73
77	3	62	64	65
78	4	9	8	30
79	1	60	59	62
80	1	8	9	10
81	1	8	7	40
82	1	53	52	86
83	1	55	57	59
84	1	53	54	55
85	4	76	77	78
86	6	79	78	81
87	4	53	76	84
88	4	8	30	31
89	6	33	32	34
90	2	2	1	46
91	1	9	10	12
92	6	69	68	70
93	6	84	76	85
94	3	3	5	6
95	1	57	59	62
96	4	21	22	23
97	3	40	42	43
98	4	67	68	69
99	1	7	40	42
100	3	41	40	42
101	1	8	9	18
102	1	44	90	92
103	4	53	66	67
104	3	86	88	89
105	4	77	78	80
106	1	46	47	88
107	4	66	67	68
108	4	22	21	27
109	6	24	22	25
110	6	69	68	71
111	4	68	67	72
112	1	55	54	64
113	3	56	55	57
114	6	74	66	75
115	4	8	20	28
116	4	31	30	38
117	3	11	10	12
118	4	54	53	66
119	3	14	16	17
120	4	77	78	81
121	2	59	60	61
122	3	58	57	59
123	4	8	30	38
124	4	53	76	77
125	4	20	21	27
126	3	2	42	43
127	1	45	44	90
128	1	12	14	15
129	3	51	50	52
130	1	53	54	64
131	6	26	21	27
132	3	16	18	19
133	1	47	88	86
134	3	54	55	56
135	1	15	44	90
136	3	17	16	18
137	4	31	30	39
138	1	14	16	18
139	6	34	32	35
140	1	48	50	52
141	1	57	59	60
142	6	36	31	37
143	4	78	77	82
144	4	8	30	39
145	4	66	67	72
146	3	54	64	65
147	1	48	47	88
148	4	77	76	84
149	3	47	88	89
150	4	53	76	85
151	3	87	86	88
152	4	67	66	74
153	6	33	32	35
154	3	4	3	5
155	4	7	8	20
156	4	31	32	33
157	1	50	52	53
158	1	3	5	7
159	4	30	31	36
160	4	76	77	82
161	4	21	22	24
162	4	67	68	70
163	4	66	67	73
164	6	23	22	24
165	4	32	31	37
166	4	30	31	32

Dihedrals

1	1	9	10	12	14
2	12	73	67	66	75
3	5	7	8	30	38
4	1	5	7	40	41
5	1	47	48	50	51
6	1	3	2	42	40
7	9	74	66	53	76
8	5	9	8	20	28
9	1	11	10	12	14
10	1	10	12	14	16
11	5	52	53	66	74
12	9	20	8	30	38
13	4	10	9	8	20
14	9	53	76	77	82
15	12	79	78	77	83
16	12	37	31	30	38
17	6	66	53	76	77
17	7	66	53	76	77
17	8	66	53	76	77
18	11	15	44	90	92
19	2	1	46	47	48
20	9	76	77	78	80
21	12	80	78	77	82
22	9	8	30	31	36
23	5	54	53	76	84
24	1	56	55	57	58
25	6	20	8	30	31
25	7	20	8	30	31
25	8	20	8	30	31
26	9	53	66	67	72
27	9	32	31	30	38
28	1	7	40	42	43
29	5	7	8	30	39
30	1	5	7	40	42
31	1	47	48	50	52
32	6	53	76	77	78
32	7	53	76	77	78
32	8	53	76	77	78
33	1	87	86	88	89
34	5	9	8	20	29
35	4	64	54	53	66
36	1	47	88	86	52
37	1	52	86	88	89
38	9	75	66	53	76
39	6	8	30	31	32
39	7	8	30	31	32
39	8	8	30	31	32
40	9	66	67	68	71
41	1	10	9	18	19
42	12	34	32	31	36
43	9	53	76	77	83
44	5	7	8	20	28
45	12	27	21	20	28
46	9	22	21	20	28
47	4	5	7	8	9
48	12	37	31	30	39
49	9	68	67	66	74
50	1	54	64	62	63
51	12	36	31	30	39
52	9	53	66	67	73
53	1	1	2	3	4
54	9	20	21	22	25
55	1	51	50	52	86
56	3	2	1	46	47
57	11	45	44	90	92
58	1	46	47	88	89
59	5	9	8	20	21
60	1	55	57	59	62
61	12	35	32	31	36
62	1	54	64	62	59
63	1	4	3	5	6
64	5	52	53	66	67
65	1	2	42	40	7
66	4	50	52	53	76
67	4	55	54	53	66
68	2	12	14	15	44
69	1	57	59	62	63
70	12	81	78	77	82
71	1	50	52	86	87
72	1	2	3	5	6
73	2	1	46	47	88
74	4	7	8	9	10
75	9	68	67	66	75
76	4	20	8	7	40
77	1	53	52	86	87
78	5	54	53	76	77
79	1	58	57	59	62
80	1	10	9	18	16
81	4	30	8	7	40
82	1	59	62	64	65
83	1	63	62	64	65
84	1	1	2	3	5
85	9	28	20	8	30
86	4	5	7	8	30
87	9	30	31	32	33
88	12	33	32	31	37
89	1	57	59	62	64
90	4	7	8	9	18
91	12	81	78	77	83
92	6	21	20	8	30
92	7	21	20	8	30
92	8	21	20	8	30
93	2	3	2	1	46
94	12	83	77	76	84
95	4	18	9	8	30
96	9	78	77	76	84
97	1	54	55	57	58
98	1	60	59	62	63
99	1	17	16	18	19
100	5	52	53	66	75
101	10	14	15	44	90
102	1	46	47	88	86
103	1	55	54	64	65
104	9	20	8	30	39
105	1	5	3	2	42
106	1	9	18	16	17
107	1	15	14	16	17
108	1	13	12	14	15
109	1	49	48	50	51
110	5	52	53	76	84
111	9	76	77	78	81
112	1	48	47	88	86
113	9	8	20	21	26
114	1	56	55	57	59
115	9	30	31	32	34
116	5	54	53	76	85
117	12	80	78	77	83
118	5	54	53	66	74
119	9	32	31	30	39
120	12	23	22	21	26
121	4	64	54	53	76
122	2	42	2	1	46
123	6	8	20	21	22
123	7	8	20	21	22
123	8	8	20	21	22
124	12	71	68	67	72
125	13	61	60	59	62
126	1	2	42	40	41
127	1	53	54	55	56
128	5	7	8	20	29
129	6	67	66	53	76
129	7	67	66	53	76
129	8	67	66	53	76
130	1	12	14	16	17
131	12	27	21	20	29
132	9	22	21	20	29
133	1	3	5	7	40
134	1	48	47	88	89
135	1	11	10	9	18
136	1	55	54	64	62
137	4	66	53	52	86
138	1	9	18	16	14
139	12	70	68	67	72
140	1	8	9	10	11
141	4	9	8	7	40
142	13	57	59	60	61
143	1	53	54	64	65
144	2	16	14	15	44
145	1	41	40	42	43
146	5	9	8	30	38
147	1	56	55	54	64
148	12	69	68	67	72
149	9	8	30	31	37
150	1	4	3	5	7
151	1	49	48	47	88
152	12	71	68	67	73
153	12	73	67	66	74
154	4	50	52	53	66
155	1	50	52	86	88
156	1	2	3	5	7
157	5	7	8	20	21
158	5	9	8	30	31
159	1	57	55	54	64
160	12	24	22	21	26
161	1	1	2	42	43
162	5	52	53	76	77
163	1	8	7	40	41
164	4	10	9	8	30
165	1	48	50	52	53
166	12	82	77	76	84
167	9	66	67	68	69
168	12	70	68	67	73
169	12	34	32	31	37
170	5	9	8	30	39
171	11	15	44	90	91
172	1	46	47	48	49
173	4	52	53	54	55
174	1	8	9	18	19
175	4	5	7	8	20
176	4	76	53	52	86
177	1	3	5	7	8
178	12	83	77	76	85
179	1	53	54	64	62
180	9	20	21	22	23
181	9	78	77	76	85
182	12	25	22	21	26
183	1	47	88	86	87
184	12	24	22	21	27
185	1	54	55	57	59
186	1	60	59	62	64
187	4	18	9	8	20
188	1	8	7	40	42
189	1	55	57	59	60
190	9	76	77	78	79
191	12	82	77	76	85
192	12	35	32	31	37
193	9	66	67	68	70
194	1	15	14	16	18
195	12	72	67	66	74
196	5	7	8	30	31
197	1	13	12	14	16
198	1	49	48	50	52
199	1	51	50	52	53
200	5	52	53	76	85
201	1	4	3	2	42
202	9	8	20	21	27
203	1	12	10	9	18
204	9	30	31	32	35
205	4	50	52	53	54
206	12	33	32	31	36
207	1	1	2	42	40
208	1	6	5	7	8
209	1	46	47	48	50
210	5	54	53	66	75
211	12	36	31	30	38
212	1	48	50	52	86
213	12	23	22	21	27
214	12	26	21	20	28
215	1	58	57	59	60
216	9	66	53	76	84
217	1	3	2	42	43
218	4	54	53	52	86
219	9	20	21	22	24
220	12	25	22	21	27
221	11	45	44	90	91
222	4	55	54	53	76
223	1	50	48	47	88
224	1	6	5	7	40
225	1	8	9	18	16
226	1	9	10	12	13
227	2	14	15	44	45
228	1	53	54	55	57
229	6	53	66	67	68
229	7	53	66	67	68
229	8	53	66	67	68
230	12	72	67	66	75
231	1	12	14	16	18
232	1	14	16	18	19
233	1	11	10	12	13
234	1	10	12	14	15
235	1	53	52	86	88
236	9	29	20	8	30
237	12	26	21	20	29
238	5	54	53	66	67
239	1	8	9	10	12
240	9	66	53	76	85
241	12	79	78	77	82
242	4	52	53	54	64
243	12	69	68	67	73

Impropers

9	1	10	12	9	11
13	1	10	9	11	12
14	1	7	40	5	8
16	1	86	52	87	88
20	1	40	42	7	41
25	1	55	56	57	54
26	1	3	4	5	2
28	1	90	44	91	92
32	1	12	14	10	13
33	1	86	88	52	87
39	1	42	2	40	43
43	1	90	92	44	91
50	1	90	91	92	44
63	1	9	18	8	10
66	1	86	87	88	52
80	1	5	7	3	6
83	1	62	63	64	59
84	1	62	64	59	63
90	1	42	40	43	2
91	1	59	57	60	62
132	1	16	17	18	14
136	1	7	5	8	40
138	1	54	64	53	55
143	1	12	13	14	10
146	1	57	55	58	59
158	1	88	86	89	47
164	1	54	55	64	53
169	1	88	89	47	86
170	1	9	8	10	18
173	1	14	15	16	12
190	1	40	7	41	42
197	1	57	58	59	55
198	1	47	46	48	88
199	1	16	14	17	18
201	1	52	50	53	86
224	1	48	50	47	49
235	1	2	1	3	42
238	1	18	9	16	19
239	1	64	65	54	62
245	1	50	52	48	51
247	1	5	3	6	7
250	1	64	62	65	54
251	1	52	53	86	50
257	1	42	43	2	40
258	1	18	19	9	16
261	1	14	16	12	15
273	1	10	11	12	9
285	1	7	8	40	5
288	1	3	2	4	5
291	1	12	10	13	14
293	1	5	6	7	3
308	1	48	47	49	50
312	2	44	45	90	15
315	1	47	48	88	46
316	1	3	5	2	4
317	1	18	16	19	9
318	1	47	88	46	48
326	1	9	10	18	8
334	1	54	53	55	64
336	1	62	59	63	64
349	1	50	51	52	48
356	2	44	15	45	90
362	1	50	48	51	52
368	1	16	18	14	17
370	1	59	60	62	57
375	2	44	90	15	45
393	1	2	3	42	1
430	1	48	49	50	47
431	1	88	47	86	89
440	1	55	54	56	57
442	1	2	42	1	3
449	1	40	41	42	7
458	1	64	54	62	65
474	1	55	57	54	56
479	1	59	62	57	60
481	1	52	86	50	53
482	1	57	59	55	58
492	1	14	12	15	16
