Title

111 atoms
118 bonds
205 angles
333 dihedrals
132 impropers

9 atom types
13 bond types
9 angle types
19 dihedral types
3 improper types
-9.581999779 90.41800022 xlo xhi
-2.191999912 97.80800009 ylo yhi
-12.65299988 87.34700012 zlo zhi
0.0 0.0 0.0 xy xz yz

Masses

1	14.00672
2	12.01078
3	1.007947
4	1.007947
5	15.99943
6	12.01078
7	1.007947
8	15.99943
9	1.007947


Pair Coeffs

1	0.16769152	3.206876
2	0.086879315	3.4806469
3	0.015611343	2.5725815
4	0.014090815	1.1034277
5	0.2102061	3.0398122
6	0.10884061	3.3795318
7	0.015779483	2.6445434
8	0.20947353	2.99716
9	1.2326e-05	0.53453923

Bond Coeffs

1 harmonic	390.03554688505	1.390160554689
2 harmonic	505.144496193	1.019481865027
3 harmonic	422.7150220147	1.421786517481
4 harmonic	360.7852444772	1.387193227181
5 harmonic	397.2545789619	1.085358495916
6 harmonic	492.76746816345	1.381897776683
7 harmonic	582.698766451	1.225198386222
8 harmonic	279.1350963404	1.454628925034
9 harmonic	289.73813263395	1.498646816465
10 harmonic	264.62148576755	1.52190126495
11 harmonic	370.04670688625	1.093899492634
12 harmonic	385.7604595587	1.369745182308
13 harmonic	543.5267831885	0.9716763312559


Angle Coeffs

1 harmonic	57.8982893754	126.8062420451
2 harmonic	55.42182150775	117.3465570514
3 harmonic	63.44422595415	115.5071327674
4 harmonic	34.066775159195	129.1835929926
5 harmonic	53.20531626545	116.5475862634
6 harmonic	14.32262199324	138.3184368373
7 harmonic	48.776492647595	115.6030999533
8 harmonic	65.09061609600001	110.3538806181
9 harmonic	201.41175231035	127.4691416191


Dihedral Coeffs

1 fourier 1	3.661930099076	2	180
2 fourier 1	1.193093382682	2	180
3 fourier 1	0.02021088501612	1	0
4 fourier 1	3.101948770557	2	180
5 fourier 1	-0.4252153282372	1	0
6 fourier 1	1.809047390003	2	180
7 fourier 1	-0.04816277792592	1	0
8 fourier 1	0.9974165607242	2	180
9 fourier 1	2.348375642009	2	180
10 fourier 1	1.256156174911	1	0
11 fourier 1	0.02664938770063	3	0
12 fourier 1	0.1155372516788	3	0
13 fourier 1	0.09223874044423	3	0
14 fourier 1	0.3159935921949	2	180
15 fourier 1	0.3247796806857	1	180
16 fourier 1	0.1040663847541	3	0
17 fourier 1	2.687457892086	2	180
18 fourier 1	2.772607909663	2	180
19 fourier 1	0.09692684957115	1	0


Improper Coeffs

1 0.3666666666666667	-1	2
2 0.3333333333333333	-1	2
3 3.5	-1	2


Atoms

1	1	1	-0.41015401	2.842	0.102	0.090000004
2	1	2	0.086103998	1.415	0.030999999	0.046
3	1	2	-0.37280199	0.79000002	-1.158	0.079000004
4	1	3	0.22499201	1.359	-2.0769999	0.14
5	1	2	-0.330654	-0.68599999	-1.224	0.033
6	1	3	0.221131	-1.1720001	-2.1919999	0.061000001
7	1	2	0.15014499	-1.4119999	-0.097000003	-0.043000001
8	1	1	-0.53045702	-2.8399999	-0.155	-0.088
9	1	4	0.32144901	-3.3440001	-1.069	-0.063000001
10	1	2	-0.330654	-0.72299999	1.214	-0.079000004
11	1	3	0.221131	-1.301	2.128	-0.14
12	1	2	-0.37280199	0.61400002	1.275	-0.037
13	1	3	0.22499201	1.11	2.237	-0.064999998
14	1	4	0.375213	3.424	-0.764	0.149
15	1	2	0.76978397	-3.4130001	0.73900002	-0.148
16	1	5	-0.65103	-3.642	1.387	0.90700001
17	1	2	-0.368907	-3.928	1.205	-1.448
18	1	2	-0.075631	-3.677	0.50099999	-2.562
19	1	3	0.22715899	-3.098	-0.41299999	-2.52
20	1	2	-0.246168	-4.1890001	0.95899999	-3.8710001
21	1	3	0.21767201	-3.973	0.338	-4.7270002
22	1	2	-0.206497	-4.895	2.1059999	-3.977
23	1	6	0.026083	-5.4819999	2.6040001	-5.309
24	1	6	-0.130759	-4.8429999	1.956	-6.5609999
25	1	7	0.089703999	-5.098	0.87699997	-6.625
26	1	7	0.089703999	-5.2199998	2.4389999	-7.4889998
27	1	7	0.089703999	-3.737	2.066	-6.539
28	1	2	-0.121525	-5.3249998	4.0879998	-5.427
29	1	2	-0.148408	-4.1820002	4.7880001	-5.3769999
30	1	3	0.21720099	-3.233	4.2909999	-5.224
31	1	2	0.003459	-4.2360001	6.2600002	-5.5359998
32	1	3	0.2175	-3.313	6.8239999	-5.4889998
33	1	2	-0.34365401	-5.4169998	6.882	-5.7379999
34	1	2	0.58752799	-5.461	8.3459997	-5.8990002
35	1	5	-0.50493902	-6.5539999	8.9420004	-6.0879998
36	1	2	0.074928001	-6.6690001	6.0749998	-5.8000002
37	1	3	0.211502	-7.6240001	6.553	-5.974
38	1	2	-0.178407	-6.5949998	4.7449999	-5.6389999
39	1	6	-0.026254	-7.7179999	3.7590001	-5.6830001
40	1	6	-0.13033301	-8.3260002	3.714	-7.098
41	1	7	0.093892999	-8.7749996	4.6950002	-7.3639998
42	1	7	0.093892999	-7.5469999	3.47	-7.8520002
43	1	7	0.093892999	-9.1219997	2.941	-7.151
44	1	6	-0.13033301	-8.8009996	4.1149998	-4.6479998
45	1	7	0.093892999	-9.2910004	5.079	-4.902
46	1	7	0.093892999	-8.3570004	4.2049999	-3.632
47	1	7	0.093892999	-9.5819998	3.325	-4.6220002
48	1	6	-0.180198	-7.033	2.3989999	-5.3309999
49	1	7	0.132295	-7.3280001	1.599	-6.046
50	1	7	0.132295	-7.3870001	2.036	-4.3390002
51	1	2	-0.246168	-5.191	2.865	-2.727
52	1	3	0.21767201	-5.79	3.766	-2.766
53	1	2	-0.075631	-4.7329998	2.4449999	-1.5420001
54	1	3	0.227158	-4.9619999	3.017	-0.65200001
55	1	1	-0.41015401	3.3269999	1.027	0.064000003
56	1	2	0.086103998	4.7410002	1.098	-0.132
57	1	2	-0.33663899	5.3660002	2.286	-0.16500001
58	1	3	0.22499201	4.8070002	3.2060001	-0.044
59	1	2	-0.411838	6.8280001	2.3529999	-0.368
60	1	3	0.236129	7.3150001	3.3199999	-0.39300001
61	1	2	0.26738399	7.5419998	1.226	-0.52100003
62	1	1	-0.842839	8.9569998	1.283	-0.71799999
63	1	4	0.36991701	9.5109997	0.40599999	-0.83600003
64	1	4	0.36991701	9.4610004	2.198	-0.74699998
65	1	2	-0.411838	6.8530002	-0.086000003	-0.484
66	1	3	0.236129	7.421	-0.99900001	-0.60600001
67	1	2	-0.33663899	5.5279999	-0.146	-0.30000001
68	1	3	0.22499201	5.0320001	-1.108	-0.27399999
69	1	4	0.375213	2.7539999	1.892	0.185
70	1	2	0.59302801	-4.5489998	8.927	-5.855
71	1	5	-0.51552099	-3.655	8.5970001	-5.0300002
72	1	2	-0.33220601	-4.3730001	10.082	-6.7540002
73	1	2	0.0087510003	-3.256	10.827	-6.7329998
74	1	3	0.225125	-2.4449999	10.599	-6.052
75	1	2	-0.239408	-3.109	11.978	-7.645
76	1	3	0.21767201	-2.1849999	12.542	-7.6100001
77	1	2	-0.206497	-4.0939999	12.32	-8.5059996
78	1	6	0.026083	-3.8989999	13.509	-9.4630003
79	1	6	-0.130759	-5.1950002	13.926	-10.194
80	1	7	0.089703999	-6.007	14.14	-9.4659996
81	1	7	0.089703999	-5.5320001	13.128	-10.889
82	1	7	0.089703999	-5.026	14.843	-10.8
83	1	2	-0.121525	-3.375	14.704	-8.7270002
84	1	2	-0.16780899	-3.9349999	15.315	-7.6729999
85	1	3	0.21720099	-4.8600001	14.95	-7.2470002
86	1	2	-0.05779	-3.2650001	16.503	-7.0949998
87	1	3	0.23383901	-3.72	16.987	-6.2399998
88	1	2	-0.225508	-2.112	16.969	-7.6300001
89	1	2	0.83685702	-1.433	18.156	-7.066
90	1	5	-0.472626	-1.9170001	18.761	-6.0700002
91	1	8	-0.66280502	-0.248	18.615	-7.6339998
92	1	9	0.42036301	0.228	19.427	-7.2579999
93	1	2	0.0090859998	-1.524	16.271	-8.8070002
94	1	3	0.226704	-0.60900003	16.631001	-9.2609997
95	1	2	-0.17266899	-2.1429999	15.189	-9.3039999
96	1	6	-0.026254	-1.729	14.363	-10.481
97	1	6	-0.13033301	-0.30199999	13.815	-10.29
98	1	7	0.093892999	0.442	14.64	-10.275
99	1	7	0.093892999	-0.223	13.255	-9.3319998
100	1	7	0.093892999	-0.039999999	13.127	-11.122
101	1	6	-0.13033301	-1.809	15.203	-11.769
102	1	7	0.093892999	-2.8329999	15.613	-11.906
103	1	7	0.093892999	-1.094	16.052	-11.731
104	1	7	0.093892999	-1.5599999	14.578	-12.653
105	1	6	-0.180198	-2.7750001	13.202	-10.509
106	1	7	0.132295	-3.1949999	13.061	-11.53
107	1	7	0.132295	-2.2809999	12.232	-10.273
108	1	2	-0.239408	-5.323	11.473	-8.5310001
109	1	3	0.21767201	-6.1350002	11.681	-9.2119999
110	1	2	0.0087510003	-5.4520001	10.427	-7.7049999
111	1	3	0.225125	-6.3540001	9.8290005	-7.7389998

Bonds

1	1	1	2
2	2	1	14
3	3	1	55
4	4	2	3
5	4	2	12
6	5	3	4
7	4	3	5
8	5	5	6
9	4	5	7
10	1	7	8
11	4	7	10
12	2	8	9
13	6	8	15
14	5	10	11
15	4	10	12
16	5	12	13
17	7	15	16
18	8	15	17
19	4	17	18
20	4	17	53
21	5	18	19
22	4	18	20
23	5	20	21
24	4	20	22
25	9	22	23
26	4	22	51
27	10	23	24
28	9	23	28
29	10	23	48
30	11	24	25
31	11	24	26
32	11	24	27
33	4	28	29
34	4	28	38
35	5	29	30
36	4	29	31
37	5	31	32
38	4	31	33
39	8	33	34
40	4	33	36
41	7	34	35
42	8	34	70
43	5	36	37
44	4	36	38
45	9	38	39
46	10	39	40
47	10	39	44
48	10	39	48
49	11	40	41
50	11	40	42
51	11	40	43
52	11	44	45
53	11	44	46
54	11	44	47
55	11	48	49
56	11	48	50
57	5	51	52
58	4	51	53
59	5	53	54
60	1	55	56
61	2	55	69
62	4	56	57
63	4	56	67
64	5	57	58
65	4	57	59
66	5	59	60
67	4	59	61
68	1	61	62
69	4	61	65
70	2	62	63
71	2	62	64
72	5	65	66
73	4	65	67
74	5	67	68
75	7	70	71
76	8	70	72
77	4	72	73
78	4	72	110
79	5	73	74
80	4	73	75
81	5	75	76
82	4	75	77
83	9	77	78
84	4	77	108
85	10	78	79
86	9	78	83
87	10	78	105
88	11	79	80
89	11	79	81
90	11	79	82
91	4	83	84
92	4	83	95
93	5	84	85
94	4	84	86
95	5	86	87
96	4	86	88
97	8	88	89
98	4	88	93
99	7	89	90
100	12	89	91
101	13	91	92
102	5	93	94
103	4	93	95
104	9	95	96
105	10	96	97
106	10	96	101
107	10	96	105
108	11	97	98
109	11	97	99
110	11	97	100
111	11	101	102
112	11	101	103
113	11	101	104
114	11	105	106
115	11	105	107
116	5	108	109
117	4	108	110
118	5	110	111

Angles

1	6	23	28	29
2	5	24	23	48
3	4	19	18	20
4	7	98	97	100
5	4	17	18	19
6	1	57	56	67
7	1	33	34	35
8	1	7	10	12
9	1	17	53	51
10	1	8	15	17
11	1	73	72	110
12	4	18	20	21
13	5	77	78	105
14	1	86	88	89
15	7	25	24	27
16	7	46	44	47
17	8	89	91	92
18	1	35	34	70
19	7	81	79	82
20	5	23	48	39
21	4	77	108	109
22	3	61	62	64
23	4	6	5	7
24	5	44	39	48
25	4	2	12	13
26	1	18	20	22
27	5	78	79	81
28	4	72	73	74
29	1	88	89	91
30	5	28	23	48
31	1	62	61	65
32	7	41	40	42
33	7	103	101	104
34	7	42	40	43
35	7	45	44	46
36	1	2	3	5
37	1	77	108	110
38	3	9	8	15
39	5	78	79	82
40	5	96	97	98
41	1	28	38	36
42	4	88	93	94
43	5	40	39	48
44	5	39	40	41
45	1	5	7	10
46	4	10	12	13
47	1	18	17	53
48	1	56	67	65
49	1	70	72	110
50	2	2	1	55
51	5	39	48	49
52	1	75	77	108
53	1	83	95	96
54	4	85	84	86
55	4	21	20	22
56	1	29	28	38
57	4	32	31	33
58	4	83	84	85
59	5	95	96	101
60	4	3	5	6
61	3	63	62	64
62	1	59	61	65
63	4	73	75	76
64	1	59	61	62
65	1	84	86	88
66	4	108	110	111
67	5	38	39	48
68	1	34	70	71
69	3	61	62	63
70	1	83	95	93
71	4	57	59	60
72	5	39	48	50
73	4	58	57	59
74	5	23	24	25
75	5	78	105	107
76	1	84	83	95
77	5	96	101	104
78	5	22	23	28
79	7	102	101	104
80	5	23	48	49
81	3	14	1	55
82	5	96	97	99
83	4	109	108	110
84	1	1	2	12
85	1	72	110	108
86	4	4	3	5
87	5	38	39	44
88	5	22	23	24
89	5	77	78	79
90	6	78	83	84
91	5	97	96	101
92	1	33	36	38
93	5	23	48	50
94	1	31	33	36
95	1	71	70	72
96	5	39	44	47
97	5	23	24	26
98	1	28	38	39
99	4	76	75	77
100	4	33	36	37
101	1	75	77	78
102	5	38	39	40
103	5	95	96	105
104	1	70	72	73
105	4	87	86	88
106	5	96	97	100
107	5	96	105	107
108	4	29	31	32
109	4	60	59	61
110	4	61	65	66
111	1	83	84	86
112	1	56	57	59
113	5	96	101	102
114	1	15	17	53
115	7	49	48	50
116	5	39	44	46
117	1	15	17	18
118	1	78	77	108
119	7	80	79	81
120	4	51	53	54
121	1	78	83	95
122	1	89	88	93
123	5	95	96	97
124	4	28	29	30
125	5	40	39	44
126	4	56	67	68
127	1	55	56	67
128	4	52	51	53
129	5	24	23	28
130	5	101	96	105
131	4	66	65	67
132	1	73	75	77
133	4	17	53	54
134	7	80	79	82
135	1	17	18	20
136	5	97	96	105
137	5	79	78	83
138	7	26	24	27
139	1	20	22	51
140	1	28	29	31
141	4	7	10	11
142	3	7	8	9
143	1	3	5	7
144	1	3	2	12
145	1	57	59	61
146	1	72	73	75
147	7	25	24	26
148	5	83	78	105
149	1	8	7	10
150	1	34	33	36
151	4	37	36	38
152	2	7	8	15
153	2	1	55	56
154	5	39	40	43
155	1	8	15	16
156	1	55	56	57
157	1	22	51	53
158	4	74	73	75
159	5	78	79	80
160	7	106	105	107
161	4	30	29	31
162	4	72	110	111
163	4	84	86	87
164	5	22	23	48
165	1	20	22	23
166	5	79	78	105
167	1	88	93	95
168	7	99	97	100
169	1	2	12	10
170	3	1	55	69
171	4	11	10	12
172	6	93	95	96
173	3	2	1	14
174	1	33	34	70
175	5	96	105	106
176	9	90	89	91
177	1	5	7	8
178	7	45	44	47
179	1	16	15	17
180	1	23	22	51
181	5	23	24	27
182	5	78	105	96
183	1	61	65	67
184	1	1	2	3
185	5	39	44	45
186	5	96	101	103
187	7	98	97	99
188	7	102	101	103
189	4	22	51	52
190	1	29	31	33
191	4	56	57	58
192	5	78	105	106
193	4	94	93	95
194	6	36	38	39
195	4	2	3	4
196	1	86	88	93
197	5	77	78	83
198	1	23	28	38
199	3	56	55	69
200	5	39	40	42
201	7	41	40	43
202	4	65	67	68
203	1	88	89	90
204	1	34	70	72
205	1	31	33	34

Dihedrals

1	16	25	24	23	48
2	1	15	17	18	19
3	1	76	75	77	108
4	1	73	75	77	78
5	3	2	1	55	69
6	1	17	18	20	22
7	11	24	23	28	29
8	1	18	20	22	51
9	1	23	22	51	52
10	12	77	78	79	81
11	1	19	18	20	21
12	12	80	79	78	83
13	1	3	5	7	8
14	8	35	34	70	72
15	11	83	95	96	101
16	1	73	72	110	111
17	1	86	84	83	95
18	1	72	73	75	77
19	16	79	78	105	106
20	11	84	83	78	105
21	12	95	96	101	104
22	1	78	83	95	93
23	1	17	53	51	52
24	1	85	84	86	88
25	16	97	96	101	104
26	1	3	2	12	13
27	1	3	5	7	10
28	1	85	84	83	95
29	1	56	67	65	66
30	1	75	77	108	110
31	1	18	17	53	51
32	1	30	29	28	38
33	1	57	56	67	65
34	2	64	62	61	65
35	1	56	57	59	60
36	16	101	96	105	107
37	11	48	23	22	51
38	11	36	38	39	40
39	2	9	8	7	10
40	11	83	95	96	97
41	3	14	1	55	56
42	16	24	23	48	49
43	1	83	84	86	87
44	11	95	83	78	105
45	1	109	108	110	111
46	1	2	3	5	7
47	1	89	88	93	94
48	1	87	86	88	93
49	12	38	39	40	43
50	2	12	2	1	55
51	11	77	78	83	84
52	1	77	108	110	111
53	17	88	89	91	92
54	13	78	105	96	101
54	14	78	105	96	101
54	15	78	105	96	101
55	16	81	79	78	105
56	12	95	96	105	107
57	1	2	12	10	7
58	12	28	23	48	50
59	1	74	73	72	110
60	16	97	96	105	107
61	1	57	59	61	65
62	3	14	1	55	69
63	1	32	31	33	36
64	1	31	29	28	38
65	1	6	5	7	8
66	12	38	39	48	49
67	11	28	23	22	51
68	12	22	23	24	25
69	16	98	97	96	105
70	8	71	70	72	73
71	1	29	28	38	39
72	16	45	44	39	48
73	1	20	18	17	53
74	16	99	97	96	101
75	12	22	23	48	50
76	8	86	88	89	90
77	16	101	96	105	106
78	18	90	89	91	92
78	19	90	89	91	92
79	11	83	78	77	108
80	13	78	105	96	97
80	14	78	105	96	97
80	15	78	105	96	97
81	8	34	70	72	110
82	1	6	5	7	10
83	3	2	1	55	56
84	16	43	40	39	44
85	11	36	38	39	48
86	1	59	61	65	67
87	1	88	93	95	96
88	1	22	51	53	54
89	1	75	73	72	110
90	1	83	84	86	88
91	1	37	36	38	39
92	1	55	56	57	59
93	16	40	39	44	47
94	12	28	23	48	39
95	8	86	88	89	91
96	1	4	3	2	12
97	8	33	34	70	72
98	1	59	57	56	67
99	1	62	61	65	66
100	2	12	2	1	14
101	1	55	56	57	58
102	1	2	3	5	6
103	13	79	78	105	96
103	14	79	78	105	96
103	15	79	78	105	96
104	2	5	7	8	9
105	11	79	78	83	84
106	1	78	83	95	96
107	12	95	96	105	106
108	1	1	2	3	5
109	1	75	77	108	109
110	8	91	89	88	93
111	16	97	96	105	106
112	12	22	23	48	39
113	1	19	18	17	53
114	1	70	72	110	108
115	12	95	96	97	98
116	1	29	31	33	34
117	1	57	56	67	68
118	16	40	39	44	46
119	11	22	23	28	29
120	2	67	56	55	69
121	16	41	40	39	44
122	16	97	96	101	102
123	16	44	39	48	50
124	11	28	38	39	48
125	12	77	78	105	107
126	1	4	3	5	7
127	12	81	79	78	83
128	1	73	75	77	108
129	11	79	78	83	95
130	11	93	95	96	101
131	12	28	23	48	49
132	1	29	28	38	36
133	2	1	55	56	57
134	16	40	39	48	50
135	1	23	28	38	36
136	1	1	2	3	4
137	1	18	17	53	54
138	11	20	22	23	28
139	1	58	57	59	61
140	8	36	33	34	70
141	6	7	8	15	17
141	7	7	8	15	17
142	12	27	24	23	28
143	16	40	39	44	45
144	12	26	24	23	28
145	12	95	96	101	103
146	12	83	78	105	107
147	1	72	110	108	77
148	16	97	96	101	103
149	11	29	28	23	48
150	12	38	39	40	41
151	1	5	7	10	12
152	12	22	23	48	49
153	8	35	34	33	36
154	1	55	56	67	68
155	11	93	95	96	97
156	1	17	18	20	21
157	8	31	33	34	70
158	1	86	88	93	94
159	1	78	83	84	86
160	1	20	22	51	53
161	1	74	73	75	76
162	16	100	97	96	105
163	1	31	33	36	38
164	1	89	88	93	95
165	11	20	22	23	48
166	12	77	78	105	106
167	12	78	105	96	95
168	1	84	83	95	93
169	16	27	24	23	48
170	16	26	24	23	48
171	12	77	78	79	82
172	1	18	20	22	23
173	1	28	38	36	37
174	11	105	78	77	108
175	8	31	33	34	35
176	1	23	28	38	39
177	1	1	2	12	13
178	8	34	70	72	73
179	16	42	40	39	48
180	8	33	34	70	71
181	1	66	65	67	68
182	12	83	78	105	106
183	12	22	23	24	27
184	1	74	73	75	77
185	11	83	95	96	105
186	11	38	28	23	48
187	1	31	33	36	37
188	16	82	79	78	105
189	1	58	57	59	60
190	1	11	10	12	13
191	1	23	28	29	31
192	1	33	36	38	39
193	1	87	86	88	89
194	4	7	8	15	16
194	5	7	8	15	16
195	2	3	2	1	55
196	16	44	39	48	49
197	1	5	7	10	11
198	12	23	48	39	38
199	6	9	8	15	17
199	7	9	8	15	17
200	1	56	57	59	61
201	11	75	77	78	105
202	1	76	75	77	78
203	1	5	3	2	12
204	8	35	34	70	71
205	16	102	101	96	105
206	2	59	61	62	63
207	1	15	17	53	54
208	1	30	29	31	32
209	1	17	53	51	22
210	16	40	39	48	49
211	1	34	33	36	38
212	16	98	97	96	101
213	16	46	44	39	48
214	1	72	110	108	109
215	12	95	96	101	102
216	1	28	29	31	32
217	1	83	95	93	94
218	1	78	77	108	110
219	11	20	22	23	24
220	1	8	7	10	12
221	12	38	39	40	42
222	1	84	86	88	89
223	1	2	12	10	11
224	11	75	77	78	79
225	13	23	48	39	44
225	14	23	48	39	44
225	15	23	48	39	44
226	1	29	31	33	36
227	11	79	78	77	108
228	1	23	22	51	53
229	1	15	17	18	20
230	1	52	51	53	54
231	12	22	23	24	26
232	1	34	33	36	37
233	2	3	2	1	14
234	11	24	23	28	38
235	1	58	57	56	67
236	1	60	59	61	65
237	16	47	44	39	48
238	12	77	78	105	96
239	12	38	39	44	47
240	1	84	83	95	96
241	16	104	101	96	105
242	1	70	72	73	74
243	1	1	2	12	10
244	1	73	72	110	108
245	16	41	40	39	48
246	16	99	97	96	105
247	8	8	15	17	53
248	1	20	22	51	52
249	11	22	23	28	38
250	1	56	67	65	61
251	9	9	8	15	16
251	10	9	8	15	16
252	1	21	20	22	23
253	1	28	38	36	33
254	12	83	78	105	96
255	1	30	29	31	33
256	1	7	10	12	13
257	16	80	79	78	105
258	12	82	79	78	83
259	16	42	40	39	44
260	1	60	59	61	62
261	1	32	31	33	34
262	1	23	28	29	30
263	1	28	29	31	33
264	2	59	61	62	64
265	11	36	38	39	44
266	11	75	77	78	83
267	8	8	15	17	18
268	1	8	7	10	11
269	12	95	96	97	100
270	12	38	39	44	46
271	2	10	7	8	15
272	8	90	89	88	93
273	1	62	61	65	67
274	1	4	3	5	6
275	8	16	15	17	53
276	1	83	95	93	88
277	1	19	18	20	22
278	1	86	88	93	95
279	2	5	7	8	15
280	16	24	23	48	50
281	12	95	96	97	99
282	1	55	56	67	65
283	1	94	93	95	96
284	11	24	23	22	51
285	1	70	72	73	75
286	12	25	24	23	28
287	8	71	70	72	110
288	1	78	77	108	109
289	1	70	72	110	111
290	11	28	38	39	40
291	1	84	86	88	93
292	1	85	84	86	87
293	16	79	78	105	107
294	12	38	39	44	45
295	8	16	15	17	18
296	1	78	83	84	85
297	1	57	59	61	62
298	2	63	62	61	65
299	11	77	78	83	95
300	2	1	55	56	67
301	1	21	20	22	51
302	11	93	95	96	105
303	16	100	97	96	101
304	11	28	38	39	44
305	16	103	101	96	105
306	12	38	39	48	50
307	1	61	65	67	68
308	16	43	40	39	48
309	12	77	78	79	80
310	13	24	23	48	39
310	14	24	23	48	39
310	15	24	23	48	39
311	1	3	2	12	10
312	13	23	48	39	40
312	14	23	48	39	40
312	15	23	48	39	40
313	1	72	73	75	76
314	1	59	61	65	66
315	1	15	17	53	51
316	2	57	56	55	69

Impropers

8	1	65	61	66	67
12	1	84	86	83	85
13	1	2	12	1	3
16	1	88	89	93	86
21	1	31	29	32	33
31	1	33	36	31	34
35	1	34	33	35	70
36	1	59	61	57	60
40	1	53	54	17	51
44	1	61	62	65	59
49	1	34	70	33	35
53	1	93	94	95	88
60	1	67	56	65	68
61	1	88	93	86	89
64	2	1	2	14	55
66	1	56	57	67	55
73	1	36	33	37	38
74	1	38	36	39	28
75	1	20	21	22	18
77	1	36	37	38	33
78	1	22	23	51	20
80	1	22	51	20	23
88	1	73	75	72	74
92	1	95	93	96	83
94	1	34	35	70	33
101	1	86	88	84	87
102	1	12	13	2	10
104	1	12	2	10	13
106	2	1	55	2	14
113	1	29	30	31	28
125	1	108	77	109	110
128	1	5	7	3	6
130	1	15	8	16	17
133	1	18	20	17	19
143	1	53	51	54	17
146	1	51	22	52	53
149	2	55	69	1	56
156	1	17	15	18	53
157	1	53	17	51	54
158	1	29	31	28	30
161	1	110	111	72	108
167	1	22	20	23	51
174	1	28	38	23	29
180	1	57	56	58	59
182	1	86	84	87	88
184	1	75	77	73	76
193	1	70	72	34	71
194	1	12	10	13	2
199	1	84	83	85	86
201	1	51	52	53	22
211	1	15	16	17	8
215	1	10	7	11	12
216	2	62	61	63	64
220	1	57	58	59	56
223	3	89	88	90	91
226	1	2	3	12	1
237	2	62	64	61	63
239	1	3	2	4	5
240	1	18	17	19	20
242	1	75	76	77	73
245	1	10	12	7	11
246	1	67	65	68	56
251	1	33	31	34	36
255	1	110	108	111	72
258	1	70	71	72	34
260	1	15	17	8	16
264	1	77	108	75	78
268	1	18	19	20	17
282	1	33	34	36	31
285	1	65	66	67	61
290	1	3	4	5	2
292	1	77	75	78	108
294	1	70	34	71	72
299	3	89	90	91	88
301	1	72	73	110	70
313	1	10	11	12	7
315	1	88	86	89	93
316	1	83	84	95	78
326	1	61	59	62	65
350	2	8	15	7	9
351	1	59	60	61	57
365	3	89	91	88	90
367	1	95	83	93	96
369	1	72	110	70	73
372	2	55	56	69	1
374	1	51	53	22	52
377	1	86	87	88	84
379	1	84	85	86	83
390	1	20	18	21	22
394	1	108	109	110	77
397	1	7	8	10	5
399	1	5	3	6	7
402	1	56	55	57	67
403	1	73	72	74	75
407	1	28	23	29	38
409	1	17	53	15	18
413	1	77	78	108	75
414	1	29	28	30	31
416	1	108	110	77	109
422	1	31	33	29	32
423	1	73	74	75	72
426	1	3	5	2	4
430	1	67	68	56	65
434	2	8	9	15	7
437	1	61	65	59	62
458	1	36	38	33	37
459	1	75	73	76	77
460	1	65	67	61	66
461	1	7	5	8	10
462	1	93	95	88	94
463	1	31	32	33	29
467	1	83	95	78	84
470	1	38	39	28	36
474	1	7	10	5	8
476	1	59	57	60	61
477	2	8	7	9	15
478	2	55	1	56	69
479	1	57	59	56	58
480	1	72	70	73	110
484	1	17	18	53	15
486	1	110	72	108	111
495	1	20	22	18	21
504	1	95	96	83	93
507	1	93	88	94	95
508	1	38	28	36	39
518	1	56	67	55	57
522	1	28	29	38	23
527	2	62	63	64	61
531	1	83	78	84	95
535	2	1	14	55	2
537	1	2	1	3	12
547	1	5	6	7	3
