Title

396 atoms
413 bonds
788 angles
1747 dihedrals
102 impropers

11 atom types
14 bond types
9 angle types
39 dihedral types
3 improper types
-8.996999741 91.00300026 xlo xhi
-3.60800004 96.39199996 ylo yhi
-20.19099998 79.80900002 zlo zhi
0.0 0.0 0.0 xy xz yz

Masses

1	15.99943
2	12.01078
3	14.00672
4	12.01078
5	1.007947
6	1.007947
7	1.007947
8	15.99943
9	12.01078
10	15.99943
11	1.007947


Pair Coeffs

1	0.2102061	3.0398122
2	0.086879315	3.4806469
3	0.16769152	3.206876
4	0.10884061	3.3795318
5	0.014090815	1.1034277
6	0.016409246	2.5832257
7	0.015779483	2.6445434
8	0.16846514	3.0251065
9	0.21	3.3996695
10	0.20947353	2.99716
11	1.2326e-05	0.53453923

Bond Coeffs

1 harmonic	582.698766451	1.225198386222
2 harmonic	492.76746816345	1.381897776683
3 harmonic	301.15400723785	1.345741232799
4 harmonic	352.0565580496	1.450098586273
5 harmonic	505.144496193	1.019481865027
6 harmonic	264.62148576755	1.52190126495
7 harmonic	370.04670688625	1.093899492634
8 harmonic	279.1350963404	1.454628925034
9 harmonic	366.7408841747	1.425895053732
10 harmonic	300.03137914615	1.451203938761
11 harmonic	366.34047229585	1.464762957261
12 harmonic	602.81384337	1.196112346392
13 harmonic	329.96998057905	1.427343958716
14 harmonic	543.5267831885	0.9716763312559


Angle Coeffs

1 harmonic	57.8982893754	126.8062420451
2 harmonic	201.41175231035	127.4691416191
3 harmonic	55.42182150775	117.3465570514
4 harmonic	63.44422595415	115.5071327674
5 harmonic	65.09061609600001	110.3538806181
6 harmonic	53.20531626545	116.5475862634
7 harmonic	48.776492647595	115.6030999533
8 harmonic	55.07882548015	112.8714009681
9 harmonic	33.56981613361	180


Dihedral Coeffs

1 fourier 1	1.809047390003	2	180
2 fourier 1	-0.04816277792592	1	0
3 fourier 1	0.4860993122944	2	180
4 fourier 1	0.8916986138746	1	0
5 fourier 1	1.163809172478	2	180
6 fourier 1	0.1679186987369	1	180
7 fourier 1	-0.1488678166443	4	180
8 fourier 1	-0.1230328948768	3	180
9 fourier 1	0.2939295466901	2	0
10 fourier 1	-0.3024127022865	1	0
11 fourier 1	0.182238503271	2	0
12 fourier 1	0.02972342374561	3	0
13 fourier 1	0.1918272375143	3	0
14 fourier 1	0.9202179876409	1	180
15 fourier 1	0.0473758381877	3	0
16 fourier 1	2.779853741805	2	180
17 fourier 1	0.1155372516788	3	0
18 fourier 1	0.09223874044423	3	0
19 fourier 1	0.3159935921949	2	180
20 fourier 1	0.3247796806857	1	180
21 fourier 1	0.1040663847541	3	0
22 fourier 1	3.101948770557	2	180
23 fourier 1	-0.4252153282372	1	0
24 fourier 1	0.9974165607242	2	180
25 fourier 1	2.348375642009	2	180
26 fourier 1	1.256156174911	1	0
27 fourier 1	0.1911926717192	3	0
28 fourier 1	-0.0309670556842	3	0
29 fourier 1	0.4598191477945	2	0
30 fourier 1	0.1115525666802	3	0
31 fourier 1	0.3432490222662	1	0
32 fourier 1	0.4552156463534	3	0
33 fourier 1	-0.03687743385131	2	180
34 fourier 1	0.457973137376	1	0
35 fourier 1	-1.382973039546	1	0
36 fourier 1	0	1	0
37 fourier 1	0.3445382149273	3	0
38 fourier 1	0.1364556373303	1	0
39 fourier 1	0.3026390167484	3	0


Improper Coeffs

1 3.5	-1	2
2 0.3333333333333333	-1	2
3 0.3666666666666667	-1	2


Atoms

1	1	1	-0.68480003	5.5929999	0.308	0.098999999
2	1	2	0.76304603	4.6459999	1.073	-0.22499999
3	1	3	-0.49337599	3.2980001	0.59799999	-0.25600001
4	1	4	0.017632	2.967	-0.78899997	0.072999999
5	1	4	-0.15094399	1.454	-1.039	0.015
6	1	4	-0.14860301	0.71100003	-0.33000001	1.16
7	1	4	-0.14860301	-0.78399998	-0.685	1.204
8	1	4	-0.1522	-1.574	-0.057999998	0.045000002
9	1	4	0.023155	-3.075	-0.32100001	0.199
10	1	3	-0.535748	-3.812	0.237	-0.93300003
11	1	2	0.531986	-4.0619998	1.6390001	-1.0779999
12	1	1	-0.75752503	-3.6559999	2.4619999	-0.215
13	1	5	0.304474	-4.224	-0.41499999	-1.637
14	1	6	0.030753	-3.25	-1.419	0.237
15	1	6	0.030753	-3.454	0.119	1.148
16	1	7	0.071540996	-1.39	1.038	0.024
17	1	7	0.071540996	-1.2359999	-0.491	-0.92000002
18	1	7	0.070811003	-0.90899998	-1.79	1.194
19	1	7	0.070811003	-1.197	-0.308	2.165
20	1	7	0.070811003	1.164	-0.64300001	2.1270001
21	1	7	0.070811003	0.82999998	0.77100003	1.076
22	1	7	0.071540996	1.278	-2.1340001	0.089000002
23	1	7	0.071540996	1.0700001	-0.69599998	-0.97000003
24	1	6	0.034084	3.467	-1.461	-0.65700001
25	1	6	0.034084	3.3499999	-1.0369999	1.087
26	1	5	0.312251	2.55	1.27	-0.54100001
27	1	8	-0.50781798	-0.25099999	4.8670001	-0.097999997
28	1	4	0.22503801	0.81199998	4.0999999	0.403
29	1	4	0.27711701	2.023	4.1739998	-0.49399999
30	1	4	0.27711701	2.54	2.7490001	-0.523
31	1	8	-0.42461601	1.658	1.901	0.18099999
32	1	4	0.103005	0.46900001	2.625	0.37900001
33	1	6	0.081871003	0	2.3210001	1.339
34	1	6	0.081871003	-0.237	2.3959999	-0.45100001
35	1	4	0.22503801	3.875	2.836	0.175
36	1	4	0.103005	4.2080002	4.3099999	0.075000003
37	1	8	-0.42461601	3.0020001	5.033	0.050999999
38	1	6	0.081871003	4.8189998	4.6290002	0.94599998
39	1	6	0.081871003	4.777	4.526	-0.85699999
40	1	8	-0.50781798	4.849	2.0599999	-0.47099999
41	1	6	0.108966	3.7880001	2.5510001	1.251
42	1	6	0.114938	2.651	2.3959999	-1.573
43	1	6	0.114938	1.751	4.5100002	-1.52
44	1	6	0.108966	1.063	4.4029999	1.447
45	1	1	-0.68480003	7.4260001	11.333	-3.227
46	1	2	0.76304603	6.4510002	10.576	-3.4820001
47	1	3	-0.49337599	5.7020001	9.9659996	-2.428
48	1	4	0.017632	6.04	10.185	-1.021
49	1	4	-0.15094399	5.0609999	9.4639997	-0.085000001
50	1	4	-0.14860301	3.665	10.111	-0.106
51	1	4	-0.14860301	2.7130001	9.4940004	0.93000001
52	1	4	-0.15094399	2.2709999	8.0719995	0.55400002
53	1	4	0.017632	1.22	7.546	1.538
54	1	3	-0.49337599	0.84299999	6.1750002	1.199
55	1	2	0.76304603	-0.014	5.8569999	0.097999997
56	1	1	-0.68480003	-0.49200001	6.7649999	-0.63300002
57	1	5	0.312251	1.163	5.3969998	1.819
58	1	6	0.034084	1.645	7.5599999	2.566
59	1	6	0.034084	0.31799999	8.1960001	1.53
60	1	7	0.071540996	1.847	8.0769997	-0.47299999
61	1	7	0.071540996	3.145	7.388	0.57200003
62	1	7	0.070811003	3.198	9.4890003	1.932
63	1	7	0.070811003	1.812	10.143	0.99599999
64	1	7	0.070811003	3.77	11.193	0.12800001
65	1	7	0.070811003	3.2160001	10.03	-1.119
66	1	7	0.071540996	5.4679999	9.5100002	0.94800001
67	1	7	0.071540996	4.9990001	8.3950005	-0.382
68	1	6	0.034084	7.0640001	9.7959995	-0.833
69	1	6	0.034084	6.039	11.275	-0.80000001
70	1	5	0.312251	4.9099998	9.3380003	-2.694
71	1	8	-0.50781798	0.759	8.2749996	-4.3130002
72	1	4	0.22503801	1.748	9.2419996	-4.079
73	1	4	0.27711701	2.9849999	8.9860001	-4.9039998
74	1	4	0.27711701	4.1240001	9.2700005	-3.9460001
75	1	8	-0.42461601	3.6170001	9.5439997	-2.658
76	1	4	0.103005	2.2679999	9.1459999	-2.6600001
77	1	6	0.081871003	1.681	9.8059998	-1.9859999
78	1	6	0.081871003	2.2	8.1009998	-2.2820001
79	1	4	0.22503801	4.7930002	10.49	-4.5320001
80	1	4	0.103005	4.3169999	10.471	-5.9699998
81	1	8	-0.42461601	3.0469999	9.8660002	-6.0050001
82	1	6	0.081871003	4.25	11.505	-6.3699999
83	1	6	0.081871003	5.0139999	9.8859997	-6.6110001
84	1	8	-0.50781798	6.191	10.395	-4.4699998
85	1	6	0.108966	4.434	11.424	-4.039
86	1	6	0.114938	4.823	8.4040003	-3.9030001
87	1	6	0.114938	3.0280001	7.9299998	-5.2579999
88	1	6	0.108966	1.35	10.269	-4.256
89	1	1	-0.68480003	4.4299998	8.6009998	-14.16
90	1	2	0.76304603	4.1989999	7.9749999	-13.091
91	1	3	-0.49337599	3.5220001	8.6090002	-12.003
92	1	4	0.017632	3.0829999	10.003	-12.08
93	1	4	-0.15094399	2.3410001	10.434	-10.808
94	1	4	-0.14860301	0.96799999	9.7510004	-10.687
95	1	4	-0.14860301	0.149	10.278	-9.4969997
96	1	4	-0.15094399	0.71200001	9.8199997	-8.1440001
97	1	4	0.017632	-0.205	10.251	-6.994
98	1	3	-0.49337599	0.36500001	9.8529997	-5.7080002
99	1	2	0.76304603	0.34099999	8.5030003	-5.2350001
100	1	1	-0.68480003	-0.189	7.5869999	-5.9180002
101	1	5	0.312251	0.75400001	10.592	-5.0799999
102	1	6	0.034084	-0.317	11.357	-7.013
103	1	6	0.034084	-1.215	9.802	-7.112
104	1	7	0.071540996	0.815	8.7139997	-8.1409998
105	1	7	0.071540996	1.716	10.268	-7.9809999
106	1	7	0.070811003	0.104	11.389	-9.533
107	1	7	0.070811003	-0.88999999	9.8950005	-9.6009998
108	1	7	0.070811003	0.38699999	9.948	-11.614
109	1	7	0.070811003	1.09	8.6499996	-10.596
110	1	7	0.071540996	2.197	11.536	-10.845
111	1	7	0.071540996	2.9719999	10.2	-9.9250002
112	1	6	0.034084	3.9749999	10.653	-12.21
113	1	6	0.034084	2.425	10.141	-12.966
114	1	5	0.312251	3.3640001	8.0489998	-11.134
115	1	8	-0.50781798	1.475	4.7909999	-8.5270004
116	1	4	0.22503801	1.6160001	5.3940001	-9.7860003
117	1	4	0.27711701	3.0150001	5.2309999	-10.328
118	1	4	0.27711701	3.326	6.5830002	-10.938
119	1	8	-0.42461601	2.2739999	7.4860001	-10.675
120	1	4	0.103005	1.472	6.8979998	-9.6809998
121	1	6	0.081871003	0.41299999	7.197	-9.8280001
122	1	6	0.081871003	1.8099999	7.2600002	-8.684
123	1	4	0.22503801	3.4330001	6.296	-12.416
124	1	4	0.103005	3.677	4.8010001	-12.448
125	1	8	-0.42461601	3.056	4.23	-11.323
126	1	6	0.081871003	3.2539999	4.3590002	-13.375
127	1	6	0.081871003	4.7670002	4.5760002	-12.412
128	1	8	-0.50781798	4.5040002	6.9879999	-13.002
129	1	6	0.108966	2.4760001	6.5240002	-12.942
130	1	6	0.114938	4.2820001	6.9829998	-10.531
131	1	6	0.114938	3.7409999	4.9920001	-9.5179996
132	1	6	0.108966	0.85600001	5.0009999	-10.503
133	1	1	-0.68480003	8.099	-2.342	-12.499
134	1	2	0.76304603	7.8119998	-1.46	-11.646
135	1	3	-0.49337599	6.5289998	-0.82999998	-11.646
136	1	4	0.017632	5.507	-1.1720001	-12.636
137	1	4	-0.15094399	4.2049999	-0.398	-12.396
138	1	4	-0.14860301	3.4820001	-0.87199998	-11.124
139	1	4	-0.14860301	2.1059999	-0.20999999	-10.945
140	1	4	-0.15094399	2.21	1.274	-10.565
141	1	4	0.017632	0.82700002	1.8609999	-10.264
142	1	3	-0.49337599	0.93199998	3.2850001	-9.9519997
143	1	2	0.76304603	1.421	3.7690001	-8.6969995
144	1	1	-0.68480003	1.7819999	2.971	-7.7919998
145	1	5	0.312251	0.58099997	3.9809999	-10.649
146	1	6	0.034084	0.175	1.735	-11.156
147	1	6	0.034084	0.352	1.325	-9.4139996
148	1	7	0.071540996	2.8610001	1.383	-9.6709995
149	1	7	0.071540996	2.661	1.848	-11.403
150	1	7	0.070811003	1.5089999	-0.32300001	-11.877
151	1	7	0.070811003	1.569	-0.75	-10.134
152	1	7	0.070811003	3.325	-1.971	-11.19
153	1	7	0.070811003	4.1079998	-0.67699999	-10.227
154	1	7	0.071540996	3.539	-0.55500001	-13.273
155	1	7	0.071540996	4.4359999	0.68699998	-12.332
156	1	6	0.034084	5.8899999	-0.921	-13.649
157	1	6	0.034084	5.3060002	-2.266	-12.606
158	1	5	0.312251	6.3449998	-0.097000003	-10.924
159	1	8	-0.50781798	5.553	1.549	-6.723
160	1	4	0.22503801	5.8629999	0.458	-7.5500002
161	1	4	0.27711701	7.2179999	0.61500001	-8.1949997
162	1	4	0.27711701	6.9990001	0.139	-9.6169996
163	1	8	-0.42461601	5.6329999	-0.15000001	-9.8260002
164	1	4	0.103005	4.9299998	0.40599999	-8.7419996
165	1	6	0.081871003	4.0409999	-0.219	-8.5109997
166	1	6	0.081871003	4.585	1.427	-9.0200005
167	1	4	0.22503801	7.835	-1.113	-9.7119999
168	1	4	0.103005	8.8079996	-0.95099998	-8.5620003
169	1	8	-0.42461601	8.1780005	-0.198	-7.5549998
170	1	6	0.081871003	9.1020002	-1.944	-8.1599998
171	1	6	0.081871003	9.7259998	-0.41600001	-8.8929996
172	1	8	-0.50781798	8.5179996	-1.1900001	-10.935
173	1	6	0.108966	7.2160001	-2.026	-9.5430002
174	1	6	0.114938	7.3390002	0.912	-10.344
175	1	6	0.114938	7.553	1.677	-8.1870003
176	1	6	0.108966	5.7930002	-0.50199997	-6.9850001
177	1	1	-0.68480003	15.855	1.385	-4.6300001
178	1	2	0.76304603	14.832	1.9680001	-5.0770001
179	1	3	-0.49337599	13.543	1.355	-4.9910002
180	1	4	0.017632	13.363	0.029999999	-4.395
181	1	4	-0.15094399	11.886	-0.38600001	-4.3769999
182	1	4	-0.14860301	11.068	0.447	-3.3740001
183	1	4	-0.14860301	9.6210003	-0.050000001	-3.2360001
184	1	4	-0.15094399	8.7700005	0.255	-4.4780002
185	1	4	0.017632	7.3060002	-0.133	-4.2480001
186	1	3	-0.49337599	6.5149999	0.116	-5.4530001
187	1	2	0.76304603	6.1149998	1.428	-5.8590002
188	1	1	-0.68480003	6.428	2.441	-5.178
189	1	5	0.312251	6.177	-0.69999999	-6.0100002
190	1	6	0.034084	7.25	-1.215	-3.997
191	1	6	0.034084	6.8790002	0.43900001	-3.395
192	1	7	0.071540996	8.8339996	1.339	-4.7129998
193	1	7	0.071540996	9.1540003	-0.31799999	-5.348
194	1	7	0.070811003	9.6149998	-1.143	-3.0309999
195	1	7	0.070811003	9.1669998	0.45899999	-2.358
196	1	7	0.070811003	11.55	0.377	-2.3740001
197	1	7	0.070811003	11.068	1.518	-3.671
198	1	7	0.071540996	11.829	-1.459	-4.0890002
199	1	7	0.071540996	11.469	-0.28299999	-5.401
200	1	6	0.034084	13.935	-0.713	-4.9920001
201	1	6	0.034084	13.769	0.025	-3.3599999
202	1	5	0.312251	12.728	1.876	-5.3860002
203	1	8	-0.50781798	9.5530005	5.171	-5.5890002
204	1	4	0.22503801	10.691	4.6329999	-4.9710002
205	1	4	0.27711701	11.89	4.6609998	-5.8870001
206	1	4	0.27711701	12.557	3.3210001	-5.651
207	1	8	-0.42461601	11.771	2.5350001	-4.7820001
208	1	4	0.103005	10.51	3.154	-4.704
209	1	6	0.081871003	10.075	2.9920001	-3.6949999
210	1	6	0.081871003	9.835	2.694	-5.461
211	1	4	0.22503801	13.874	3.6819999	-5.0079999
212	1	4	0.103005	14.046	5.1360002	-5.3959999
213	1	8	-0.42461601	12.769	5.7080002	-5.5359998
214	1	6	0.081871003	14.617	5.6810002	-4.6139998
215	1	6	0.081871003	14.59	5.2270002	-6.362
216	1	8	-0.50781798	14.927	2.905	-5.5120001
217	1	6	0.108966	13.816	3.6029999	-3.8970001
218	1	6	0.114938	12.709	2.786	-6.6160002
219	1	6	0.114938	11.585	4.7620001	-6.954
220	1	6	0.108966	10.906	5.1560001	-4.0089998
221	1	1	-0.68480003	16.493	11.692	-10.045
222	1	2	0.76304603	15.606	10.801	-10.132
223	1	3	-0.49337599	14.925	10.329	-8.9659996
224	1	4	0.017632	15.234	10.85	-7.6339998
225	1	4	-0.15094399	14.337	10.223	-6.559
226	1	4	-0.14860301	12.88	10.702	-6.678
227	1	4	-0.14860301	11.997	10.199	-5.5240002
228	1	4	-0.15094399	11.712	8.6920004	-5.612
229	1	4	0.017632	10.723	8.257	-4.526
230	1	3	-0.49337599	10.497	6.8140001	-4.5879998
231	1	2	0.76304603	9.6809998	6.1999998	-5.5910001
232	1	1	-0.68480003	9.1090002	6.8930001	-6.474
233	1	5	0.312251	10.897	6.2090001	-3.8369999
234	1	6	0.034084	11.141	8.5139999	-3.5280001
235	1	6	0.034084	9.7559996	8.7939997	-4.6420002
236	1	7	0.071540996	11.293	8.4530001	-6.6129999
237	1	7	0.071540996	12.656	8.1210003	-5.4790001
238	1	7	0.070811003	12.477	10.438	-4.5500002
239	1	7	0.070811003	11.032	10.749	-5.5669999
240	1	7	0.070811003	12.866	11.814	-6.658
241	1	7	0.070811003	12.444	10.38	-7.6479998
242	1	7	0.071540996	14.734	10.511	-5.5609999
243	1	7	0.071540996	14.392	9.1169996	-6.6440001
244	1	6	0.034084	16.294001	10.616	-7.3940001
245	1	6	0.034084	15.116	11.956	-7.6259999
246	1	5	0.312251	14.206	9.5810003	-9.0909996
247	1	8	-0.50781798	10.198	7.789	-10.399
248	1	4	0.22503801	11.076	8.8830004	-10.373
249	1	4	0.27711701	12.336	8.6059999	-11.157
250	1	4	0.27711701	13.435	9.1899996	-10.292
251	1	8	-0.42461601	12.898	9.6520004	-9.0719995
252	1	4	0.103005	11.601	9.1190004	-8.9720001
253	1	6	0.081871003	10.944	9.8299999	-8.427
254	1	6	0.081871003	11.645	8.165	-8.3990002
255	1	4	0.22503801	13.969	10.337	-11.115
256	1	4	0.103005	13.501	9.9910002	-12.513
257	1	8	-0.42461601	12.305	9.2589998	-12.407
258	1	6	0.081871003	13.324	10.916	-13.102
259	1	6	0.081871003	14.259	9.3710003	-13.042
260	1	8	-0.50781798	15.37	10.406	-11.061
261	1	6	0.108966	13.511	11.305	-10.803
262	1	6	0.114938	14.224	8.427	-10.097
263	1	6	0.114938	12.493	7.513	-11.301
264	1	6	0.108966	10.57	9.809	-10.736
265	1	1	-0.68480003	13.834	6.599	-20.191
266	1	2	0.76304603	13.669	6.1700001	-19.018999
267	1	3	-0.49337599	12.926	6.9260001	-18.059
268	1	4	0.017632	12.339	8.224	-18.395
269	1	4	-0.15094399	11.552	8.8109999	-17.216
270	1	4	-0.14860301	10.26	8.0220003	-16.940001
271	1	4	-0.14860301	9.3870001	8.6780005	-15.859
272	1	4	-0.15094399	9.993	8.5530005	-14.453
273	1	4	0.017632	9.033	9.0970001	-13.391
274	1	3	-0.49337599	9.6389999	9.0179996	-12.063
275	1	2	0.76304603	9.7600002	7.79	-11.339
276	1	1	-0.68480003	9.3339996	6.7080002	-11.823
277	1	5	0.312251	9.9449997	9.901	-11.596
278	1	6	0.034084	8.802	10.161	-13.619
279	1	6	0.034084	8.0769997	8.5290003	-13.401
280	1	7	0.071540996	10.214	7.4850001	-14.24
281	1	7	0.071540996	10.942	9.1280003	-14.398
282	1	7	0.070811003	9.2220001	9.75	-16.107
283	1	7	0.070811003	8.3959999	8.1739998	-15.867
284	1	7	0.070811003	9.6639996	7.973	-17.877001
285	1	7	0.070811003	10.5	6.9790001	-16.642
286	1	7	0.071540996	11.29	9.8629999	-17.461
287	1	7	0.071540996	12.203	8.8199997	-16.316
288	1	6	0.034084	13.156	8.9280005	-18.664
289	1	6	0.034084	11.672	8.118	-19.278
290	1	5	0.312251	12.828	6.5310001	-17.097
291	1	8	-0.50781798	11.295	3.655	-13.877
292	1	4	0.22503801	11.373	4.0149999	-15.231
293	1	4	0.27711701	12.783	3.9000001	-15.758
294	1	4	0.27711701	12.948	5.1339998	-16.622
295	1	8	-0.42461601	11.804	5.954	-16.518
296	1	4	0.103005	11.068	5.487	-15.415
297	1	6	0.081871003	9.9829998	5.638	-15.596
298	1	6	0.081871003	11.362	6.0679998	-14.512
299	1	4	0.22503801	13.089	4.5809999	-18.018999
300	1	4	0.103005	13.492	3.1429999	-17.768
301	1	8	-0.42461601	12.934	2.7360001	-16.542999
302	1	6	0.081871003	13.121	2.4879999	-18.584999
303	1	6	0.081871003	14.6	3.046	-17.709999
304	1	8	-0.50781798	14.079	5.256	-18.747
305	1	6	0.108966	12.113	4.599	-18.561001
306	1	6	0.114938	13.854	5.7049999	-16.316999
307	1	6	0.114938	13.528	3.901	-14.931
308	1	6	0.108966	10.662	3.4119999	-15.845
309	1	1	-0.68480003	18.66	-3.3640001	-16.528999
310	1	2	0.76304603	18.278	-2.3699999	-15.855
311	1	3	-0.49337599	16.934	-1.892	-15.953
312	1	4	0.017632	15.958	-2.526	-16.84
313	1	4	-0.15094399	14.578	-1.863	-16.729
314	1	4	-0.14860301	13.908	-2.1570001	-15.376
315	1	4	-0.14860301	12.469	-1.623	-15.301
316	1	4	-0.15094399	12.41	-0.090999998	-15.216
317	1	4	0.017632	10.972	0.39300001	-15.007
318	1	3	-0.49337599	10.921	1.853	-14.977
319	1	2	0.76304603	11.353	2.6199999	-13.847
320	1	1	-0.68480003	11.796	2.0539999	-12.813
321	1	5	0.312251	10.499	2.3599999	-15.787
322	1	6	0.034084	10.339	0.028000001	-15.846
323	1	6	0.034084	10.555	-0.017000001	-14.061
324	1	7	0.071540996	13.044	0.257	-14.372
325	1	7	0.071540996	12.8	0.35499999	-16.156
326	1	7	0.070811003	11.89	-1.976	-16.183001
327	1	7	0.070811003	11.992	-2.0510001	-14.392
328	1	7	0.070811003	13.872	-3.2579999	-15.226
329	1	7	0.070811003	14.508	-1.726	-14.545
330	1	7	0.071540996	13.935	-2.256	-17.546
331	1	7	0.071540996	14.692	-0.76800001	-16.878
332	1	6	0.034084	16.313	-2.4349999	-17.889
333	1	6	0.034084	15.876	-3.608	-16.597
334	1	5	0.312251	16.671	-1.058	-15.381
335	1	8	-0.097531997	15.696	1.274	-11.561
336	1	4	0.141049	16.124001	0.083999999	-12.169
337	1	4	0.27327701	17.455999	0.257	-12.857
338	1	4	0.27601901	17.292	-0.505	-14.157
339	1	8	-0.421253	15.966	-0.97299999	-14.281
340	1	4	0.109659	15.205	-0.296	-13.311
341	1	6	0.079028003	14.388	-0.95599997	-12.948
342	1	6	0.079028003	14.752	0.60900003	-13.774
343	1	4	0.22551601	18.259001	-1.656	-14.025
344	1	4	0.101894	19.205999	-1.173	-12.947
345	1	8	-0.42329699	18.496	-0.31099999	-12.091
346	1	6	0.081871003	19.605	-2.0320001	-12.367
347	1	6	0.081871003	20.062	-0.616	-13.391
348	1	8	-0.50781798	18.948999	-1.8940001	-15.223
349	1	6	0.108966	17.742001	-2.5799999	-13.673
350	1	6	0.115532	17.549	0.145	-15.025
351	1	6	0.107542	17.674	1.33	-13.06
352	1	6	0.115852	16.157	-0.75099999	-11.429
353	1	1	-0.75752503	-5.77	1.549	-2.1619999
354	1	2	0.531986	-4.6149998	1.998	-1.936
355	1	3	-0.535748	-4.026	2.9749999	-2.799
356	1	4	0.023155	-4.7350001	3.4860001	-3.9719999
357	1	4	-0.1522	-3.8829999	4.5229998	-4.7150002
358	1	4	-0.148412	-4.645	5.2210002	-5.8540001
359	1	4	-0.14417499	-5.0100002	4.2800002	-7.0219998
360	1	4	-0.128399	-6.4879999	3.8599999	-6.9879999
361	1	4	0.176808	-6.8109999	2.8859999	-8.1219997
362	1	3	-0.73256302	-8.2259998	2.5339999	-8.0780001
363	1	9	0.58798599	-8.6169996	1.332	-7.934
364	1	1	-0.57457	-8.9969997	0.163	-7.7930002
365	1	6	0.013135	-6.5939999	3.3659999	-9.1000004
366	1	6	0.013135	-6.171	1.978	-8.0290003
367	1	7	0.065283	-7.1279998	4.763	-7.092
368	1	7	0.065283	-6.7280002	3.3759999	-6.0180001
369	1	7	0.069563001	-4.8249998	4.8150001	-7.9790001
370	1	7	0.069563001	-4.3559999	3.3800001	-7.02
371	1	7	0.070811003	-3.9820001	6.0219998	-6.25
372	1	7	0.070811003	-5.546	5.7319999	-5.4489999
373	1	7	0.071540996	-3.559	5.302	-3.9920001
374	1	7	0.071540996	-2.9679999	4.0349998	-5.1170001
375	1	6	0.030753	-5.6890001	3.954	-3.645
376	1	6	0.030753	-4.961	2.6359999	-4.6500001
377	1	5	0.304474	-3.0639999	3.3139999	-2.5710001
378	1	8	-0.097531997	16.240999	1.3789999	-10.738
379	1	4	0.14191701	16.518999	0.081	-10.275
380	1	4	0.108342	15.33	-0.465	-9.5059996
381	1	8	-0.410927	15.457	-0.079000004	-8.1590004
382	1	4	0.206756	16.836	0.083999999	-7.9109998
383	1	4	0.27973399	17.6	0.105	-9.2189999
384	1	8	-0.41100299	18.396	1.27	-9.3000002
385	1	4	0.043744002	18.393	1.8559999	-8.0209999
386	1	4	0.22170299	17.122999	1.434	-7.3070002
387	1	10	-0.72545201	17.320999	1.3329999	-5.9219999
388	1	11	0.388935	17.362	2.263	-5.5770001
389	1	6	0.079847999	16.299	2.1500001	-7.5409999
390	1	6	0.080822997	19.292	1.511	-7.4640002
391	1	6	0.080822997	18.434	2.961	-8.1149998
392	1	6	0.108446	18.246	-0.79799998	-9.3059998
393	1	6	0.111622	17.205999	-0.74000001	-7.2589998
394	1	6	0.079028003	15.315	-1.576	-9.5649996
395	1	6	0.079028003	14.372	-0.081	-9.9180002
396	1	6	0.115852	16.802999	-0.588	-11.12

Bonds

1	1	1	2
2	2	2	3
3	3	2	40
4	4	3	4
5	5	3	26
6	6	4	5
7	7	4	24
8	7	4	25
9	6	5	6
10	7	5	22
11	7	5	23
12	6	6	7
13	7	6	20
14	7	6	21
15	6	7	8
16	7	7	18
17	7	7	19
18	6	8	9
19	7	8	16
20	7	8	17
21	4	9	10
22	7	9	14
23	7	9	15
24	2	10	11
25	5	10	13
26	1	11	12
27	8	11	354
28	9	27	28
29	3	27	55
30	6	28	29
31	7	28	44
32	6	28	32
33	6	29	30
34	7	29	43
35	9	29	37
36	9	30	31
37	6	30	35
38	7	30	42
39	9	31	32
40	7	32	33
41	7	32	34
42	6	35	36
43	9	35	40
44	7	35	41
45	9	36	37
46	7	36	38
47	7	36	39
48	1	45	46
49	2	46	47
50	3	46	84
51	4	47	48
52	5	47	70
53	6	48	49
54	7	48	68
55	7	48	69
56	6	49	50
57	7	49	66
58	7	49	67
59	6	50	51
60	7	50	64
61	7	50	65
62	6	51	52
63	7	51	62
64	7	51	63
65	6	52	53
66	7	52	60
67	7	52	61
68	4	53	54
69	7	53	58
70	7	53	59
71	2	54	55
72	5	54	57
73	1	55	56
74	9	71	72
75	3	71	99
76	6	72	73
77	7	72	88
78	6	72	76
79	6	73	74
80	7	73	87
81	9	73	81
82	9	74	75
83	6	74	79
84	7	74	86
85	9	75	76
86	7	76	77
87	7	76	78
88	6	79	80
89	9	79	84
90	7	79	85
91	9	80	81
92	7	80	82
93	7	80	83
94	1	89	90
95	2	90	91
96	3	90	128
97	4	91	92
98	5	91	114
99	6	92	93
100	7	92	112
101	7	92	113
102	6	93	94
103	7	93	110
104	7	93	111
105	6	94	95
106	7	94	108
107	7	94	109
108	6	95	96
109	7	95	106
110	7	95	107
111	6	96	97
112	7	96	104
113	7	96	105
114	4	97	98
115	7	97	102
116	7	97	103
117	2	98	99
118	5	98	101
119	1	99	100
120	9	115	116
121	3	115	143
122	6	116	117
123	7	116	132
124	6	116	120
125	6	117	118
126	7	117	131
127	9	117	125
128	9	118	119
129	6	118	123
130	7	118	130
131	9	119	120
132	7	120	121
133	7	120	122
134	6	123	124
135	9	123	128
136	7	123	129
137	9	124	125
138	7	124	126
139	7	124	127
140	1	133	134
141	2	134	135
142	3	134	172
143	4	135	136
144	5	135	158
145	6	136	137
146	7	136	156
147	7	136	157
148	6	137	138
149	7	137	154
150	7	137	155
151	6	138	139
152	7	138	152
153	7	138	153
154	6	139	140
155	7	139	150
156	7	139	151
157	6	140	141
158	7	140	148
159	7	140	149
160	4	141	142
161	7	141	146
162	7	141	147
163	2	142	143
164	5	142	145
165	1	143	144
166	9	159	160
167	3	159	187
168	6	160	161
169	7	160	176
170	6	160	164
171	6	161	162
172	7	161	175
173	9	161	169
174	9	162	163
175	6	162	167
176	7	162	174
177	9	163	164
178	7	164	165
179	7	164	166
180	6	167	168
181	9	167	172
182	7	167	173
183	9	168	169
184	7	168	170
185	7	168	171
186	1	177	178
187	2	178	179
188	3	178	216
189	4	179	180
190	5	179	202
191	6	180	181
192	7	180	200
193	7	180	201
194	6	181	182
195	7	181	198
196	7	181	199
197	6	182	183
198	7	182	196
199	7	182	197
200	6	183	184
201	7	183	194
202	7	183	195
203	6	184	185
204	7	184	192
205	7	184	193
206	4	185	186
207	7	185	190
208	7	185	191
209	2	186	187
210	5	186	189
211	1	187	188
212	9	203	204
213	3	203	231
214	6	204	205
215	7	204	220
216	6	204	208
217	6	205	206
218	7	205	219
219	9	205	213
220	9	206	207
221	6	206	211
222	7	206	218
223	9	207	208
224	7	208	209
225	7	208	210
226	6	211	212
227	9	211	216
228	7	211	217
229	9	212	213
230	7	212	214
231	7	212	215
232	1	221	222
233	2	222	223
234	3	222	260
235	4	223	224
236	5	223	246
237	6	224	225
238	7	224	244
239	7	224	245
240	6	225	226
241	7	225	242
242	7	225	243
243	6	226	227
244	7	226	240
245	7	226	241
246	6	227	228
247	7	227	238
248	7	227	239
249	6	228	229
250	7	228	236
251	7	228	237
252	4	229	230
253	7	229	234
254	7	229	235
255	2	230	231
256	5	230	233
257	1	231	232
258	9	247	248
259	3	247	275
260	6	248	249
261	7	248	264
262	6	248	252
263	6	249	250
264	7	249	263
265	9	249	257
266	9	250	251
267	6	250	255
268	7	250	262
269	9	251	252
270	7	252	253
271	7	252	254
272	6	255	256
273	9	255	260
274	7	255	261
275	9	256	257
276	7	256	258
277	7	256	259
278	1	265	266
279	2	266	267
280	3	266	304
281	4	267	268
282	5	267	290
283	6	268	269
284	7	268	288
285	7	268	289
286	6	269	270
287	7	269	286
288	7	269	287
289	6	270	271
290	7	270	284
291	7	270	285
292	6	271	272
293	7	271	282
294	7	271	283
295	6	272	273
296	7	272	280
297	7	272	281
298	4	273	274
299	7	273	278
300	7	273	279
301	2	274	275
302	5	274	277
303	1	275	276
304	9	291	292
305	3	291	319
306	6	292	293
307	7	292	308
308	6	292	296
309	6	293	294
310	7	293	307
311	9	293	301
312	9	294	295
313	6	294	299
314	7	294	306
315	9	295	296
316	7	296	297
317	7	296	298
318	6	299	300
319	9	299	304
320	7	299	305
321	9	300	301
322	7	300	302
323	7	300	303
324	1	309	310
325	2	310	311
326	3	310	348
327	4	311	312
328	5	311	334
329	6	312	313
330	7	312	332
331	7	312	333
332	6	313	314
333	7	313	330
334	7	313	331
335	6	314	315
336	7	314	328
337	7	314	329
338	6	315	316
339	7	315	326
340	7	315	327
341	6	316	317
342	7	316	324
343	7	316	325
344	4	317	318
345	7	317	322
346	7	317	323
347	2	318	319
348	5	318	321
349	1	319	320
350	9	335	336
351	10	335	378
352	6	336	337
353	7	336	352
354	6	336	340
355	6	337	338
356	7	337	351
357	9	337	345
358	9	338	339
359	6	338	343
360	7	338	350
361	9	339	340
362	7	340	341
363	7	340	342
364	6	343	344
365	9	343	348
366	7	343	349
367	9	344	345
368	7	344	346
369	7	344	347
370	1	353	354
371	2	354	355
372	4	355	356
373	5	355	377
374	6	356	357
375	7	356	375
376	7	356	376
377	6	357	358
378	7	357	373
379	7	357	374
380	6	358	359
381	7	358	371
382	7	358	372
383	6	359	360
384	7	359	369
385	7	359	370
386	6	360	361
387	7	360	367
388	7	360	368
389	11	361	362
390	7	361	365
391	7	361	366
392	12	362	363
393	1	363	364
394	9	378	379
395	6	379	380
396	7	379	396
397	6	379	383
398	9	380	381
399	7	380	394
400	7	380	395
401	9	381	382
402	6	382	383
403	7	382	393
404	6	382	386
405	9	383	384
406	7	383	392
407	9	384	385
408	6	385	386
409	7	385	390
410	7	385	391
411	13	386	387
412	7	386	389
413	14	387	388

Angles

1	7	104	96	105
2	6	291	292	296
3	6	91	92	112
4	5	336	335	378
5	7	240	226	241
6	6	316	317	323
7	1	45	46	47
8	6	48	49	50
9	6	311	312	313
10	6	356	357	373
11	4	273	274	277
12	6	5	4	24
13	2	265	266	304
14	6	343	344	346
15	6	357	356	375
16	5	117	125	124
17	6	225	224	244
18	6	7	6	21
19	6	268	269	287
20	7	282	271	283
21	6	162	167	173
22	7	196	182	197
23	6	161	160	176
24	6	138	139	150
25	6	301	293	307
26	6	357	358	371
27	6	6	7	18
28	5	116	115	143
29	4	4	3	26
30	6	36	35	40
31	6	50	51	63
32	6	74	79	85
33	1	27	55	54
34	6	79	80	81
35	6	4	5	22
36	6	181	180	200
37	6	96	95	106
38	6	7	8	16
39	6	37	36	38
40	6	230	229	235
41	6	345	344	346
42	6	314	313	330
43	6	73	74	86
44	4	92	91	114
45	6	116	117	118
46	4	180	179	202
47	7	214	212	215
48	6	3	4	5
49	6	247	248	264
50	6	273	272	281
51	6	95	94	108
52	6	116	120	121
53	6	97	96	104
54	1	142	143	144
55	6	338	337	351
56	6	248	252	254
57	6	54	53	59
58	6	92	93	110
59	6	116	117	125
60	6	167	168	171
61	2	159	187	188
62	1	89	90	91
63	6	267	268	288
64	3	178	179	180
65	2	203	231	232
66	6	313	312	332
67	6	226	227	239
68	6	355	356	357
69	6	272	273	278
70	6	93	94	109
71	6	382	383	392
72	4	310	311	334
73	7	20	6	21
74	1	318	319	320
75	6	50	49	67
76	6	118	123	129
77	6	269	270	285
78	6	249	250	262
79	6	163	162	167
80	4	55	54	57
81	7	77	76	78
82	6	29	30	42
83	6	203	204	220
84	6	345	337	351
85	6	29	30	31
86	7	332	312	333
87	6	163	162	174
88	5	266	304	299
89	6	7	6	20
90	6	378	379	380
91	6	49	48	69
92	7	102	97	103
93	6	73	74	79
94	6	52	53	54
95	5	73	81	80
96	6	119	120	121
97	6	250	255	261
98	6	128	123	129
99	3	185	186	187
100	5	248	247	275
101	9	362	363	364
102	6	3	4	25
103	6	255	256	257
104	6	51	52	61
105	6	296	292	308
106	6	379	383	382
107	6	125	117	131
108	6	382	386	385
109	6	81	80	83
110	2	45	46	84
111	6	379	380	395
112	5	29	37	36
113	6	269	270	271
114	6	304	299	305
115	7	68	48	69
116	1	12	11	354
117	6	213	212	214
118	6	294	299	300
119	6	47	48	69
120	6	164	160	176
121	6	7	8	9
122	6	136	137	155
123	6	93	92	113
124	6	292	296	295
125	6	160	161	169
126	6	47	48	49
127	6	249	250	255
128	7	369	359	370
129	6	98	97	103
130	6	29	30	35
131	6	160	164	163
132	6	224	225	226
133	6	362	361	365
134	6	381	382	393
135	1	265	266	267
136	7	66	49	67
137	6	268	269	270
138	6	117	118	130
139	4	317	318	321
140	6	94	93	111
141	6	124	123	129
142	6	183	184	193
143	6	293	292	308
144	2	1	2	40
145	6	336	340	342
146	6	162	167	172
147	6	300	299	305
148	6	116	117	131
149	6	159	160	164
150	1	309	310	311
151	6	138	139	140
152	6	167	162	174
153	7	253	252	254
154	6	50	51	62
155	6	162	161	169
156	6	213	205	219
157	6	358	359	370
158	6	184	185	191
159	6	93	94	95
160	6	141	140	149
161	6	256	255	260
162	6	29	28	32
163	1	247	275	274
164	6	74	73	81
165	7	14	9	15
166	6	117	116	120
167	6	160	161	162
168	6	340	336	352
169	7	58	53	59
170	4	141	142	145
171	5	249	257	256
172	6	359	360	368
173	7	24	4	25
174	1	133	134	135
175	7	152	138	153
176	6	142	141	147
177	6	295	296	297
178	6	338	343	344
179	1	10	11	12
180	6	381	382	386
181	4	231	230	233
182	6	117	118	123
183	6	137	138	153
184	6	37	29	43
185	7	148	140	149
186	6	384	385	391
187	6	52	51	62
188	4	99	98	101
189	6	248	252	253
190	3	46	47	48
191	6	49	50	51
192	6	94	95	107
193	6	274	273	279
194	6	5	6	21
195	6	339	340	342
196	1	47	46	84
197	6	93	94	108
198	6	163	164	166
199	1	179	178	216
200	4	48	47	70
201	6	96	97	98
202	6	227	228	237
203	6	299	300	302
204	6	337	336	352
205	6	53	52	60
206	6	182	181	199
207	6	48	49	66
208	4	275	274	277
209	1	223	222	260
210	4	187	186	189
211	2	71	99	100
212	7	154	137	155
213	6	224	225	243
214	6	182	183	195
215	6	139	138	153
216	6	270	271	283
217	6	381	380	394
218	6	72	76	77
219	6	315	314	329
220	6	49	48	68
221	6	32	28	44
222	7	234	229	235
223	6	8	7	18
224	6	336	340	339
225	6	49	50	64
226	6	3	4	24
227	6	339	338	350
228	6	272	273	274
229	6	159	160	161
230	5	162	163	164
231	6	271	272	281
232	6	140	139	151
233	6	8	9	14
234	7	373	357	374
235	6	387	386	389
236	6	229	228	237
237	4	224	223	246
238	6	382	383	384