Title

10875 atoms
10750 bonds
20125 angles
34625 dihedrals
1500 impropers

8 atom types
11 bond types
5 angle types
27 dihedral types
2 improper types
-11.75619984 88.24380016 xlo xhi
-10.28149986 89.71850014 ylo yhi
-12.04829979 87.95170021 zlo zhi
0.0 0.0 0.0 xy xz yz

Masses

1	15.99943
2	12.01078
3	1.007947
4	1.007947
5	12.01078
6	15.99943
7	15.99943
8	1.007947


Pair Coeffs

1	0.16846514	3.0251065
2	0.10884061	3.3795318
3	0.016409246	2.5832257
4	0.015779483	2.6445434
5	0.086879315	3.4806469
6	0.2102061	3.0398122
7	0.20947353	2.99716
8	1.2326e-05	0.53453923

Bond Coeffs

1 harmonic	366.7408841747	1.425895053732
2 harmonic	300.03137914615	1.451203938761
3 harmonic	264.62148576755	1.52190126495
4 harmonic	370.04670688625	1.093899492634
5 harmonic	301.15400723785	1.345741232799
6 harmonic	582.698766451	1.225198386222
7 harmonic	329.44145381095	1.523435958334
8 harmonic	279.1350963404	1.454628925034
9 harmonic	329.96998057905	1.427343958716
10 harmonic	543.5267831885	0.9716763312559
11 harmonic	385.7604595587	1.369745182308


Angle Coeffs

1 harmonic	53.20531626545	116.5475862634
2 harmonic	65.09061609600001	110.3538806181
3 harmonic	201.41175231035	127.4691416191
4 harmonic	57.8982893754	126.8062420451
5 harmonic	48.776492647595	115.6030999533


Dihedral Coeffs

1 fourier 1	0.1155372516788	3	0
2 fourier 1	0.1115525666802	3	0
3 fourier 1	0.3432490222662	1	0
4 fourier 1	0.0473758381877	3	0
5 fourier 1	0.457973137376	1	0
6 fourier 1	0.09223874044423	3	0
7 fourier 1	0.3159935921949	2	180
8 fourier 1	0.3247796806857	1	180
9 fourier 1	0.1040663847541	3	0
10 fourier 1	0.1918272375143	3	0
11 fourier 1	0.9202179876409	1	180
12 fourier 1	1.163809172478	2	180
13 fourier 1	0.1679186987369	1	180
14 fourier 1	2.779853741805	2	180
15 fourier 1	0.02664938770063	3	0
16 fourier 1	0.1911926717192	3	0
17 fourier 1	-0.3703352413219	2	0
18 fourier 1	0.4541676554336	1	0
19 fourier 1	0.1489710476446	2	0
20 fourier 1	0.02960027280666	3	180
21 fourier 1	0.9974165607242	2	180
22 fourier 1	0.3445382149273	3	0
23 fourier 1	0.1364556373303	1	0
24 fourier 1	0.3026390167484	3	0
25 fourier 1	2.687457892086	2	180
26 fourier 1	2.772607909663	2	180
27 fourier 1	0.09692684957115	1	0


Improper Coeffs

1 3.5	-1	2
2 0.3666666666666667	-1	2


Atoms

1	4	1	-0.180474	3.3671	2.0978	-1.9011
2	4	2	0.031574	2.7776	2.6055	-3.0671999
3	4	2	-0.146612	1.4815	3.3485	-2.7226
4	4	2	-0.13923299	0.87059999	4.0854001	-3.9263999
5	4	2	0.133855	0.27880001	3.1449001	-4.9819999
6	4	1	-0.495184	1.2964	2.5997	-5.7733998
7	4	3	0.077909999	-0.4113	3.7295001	-5.6314001
8	4	3	0.077909999	-0.3071	2.3341	-4.4927001
9	4	4	0.086662002	0.049800001	4.7319002	-3.5455
10	4	4	0.086662002	1.6257	4.7556	-4.3927002
11	4	4	0.087626003	1.7045	4.1026001	-1.9367
12	4	4	0.087626003	0.74290001	2.6335001	-2.2967999
13	4	3	0.077503003	3.4879	3.2837999	-3.5934999
14	4	3	0.077503003	2.552	1.7506	-3.7369001
15	5	5	0.761011	0.82749999	1.9634	-6.4493999
16	5	6	-0.55855	0.51300001	2.3908999	-7.5482001
17	5	2	-0.209034	0.53430003	0.53740001	-6.0888
18	5	2	-0.115894	1.0236	0.21269999	-4.6697001
19	5	2	-0.136565	0.84530002	-1.2704999	-4.3052001
20	5	2	-0.14190499	-0.61699998	-1.6276	-3.9897001
21	5	2	-0.14190499	-0.8229	-3.1303	-3.7232001
22	5	2	-0.139221	-0.061799999	-3.6896	-2.5072999
23	5	2	-0.097557001	-0.46990001	-3.0223999	-1.1853
24	5	2	-0.25804099	0.1681	-3.7388	0.0108
25	5	5	0.51640999	-0.21259999	-3.0820999	1.3049001
26	5	6	-0.692545	0.21070001	-3.5251999	2.3589001
27	5	4	0.112866	-0.1675	-4.7978001	0.034899998
28	5	4	0.112866	1.2747999	-3.7183001	-0.089699998
29	5	4	0.07604	-0.1348	-1.9628	-1.1849
30	5	4	0.07604	-1.5773	-3.0495999	-1.0821
31	5	4	0.077726997	-0.2852	-4.7765002	-2.4442999
32	5	4	0.077726997	1.0343	-3.5941999	-2.6599
33	5	4	0.079599001	-1.9099	-3.3176	-3.5801001
34	5	4	0.079599001	-0.51380002	-3.7	-4.6261001
35	5	4	0.079599001	-0.97899997	-1.0306	-3.1259
36	5	4	0.079599001	-1.2571	-1.3609	-4.8566999
37	5	4	0.077726997	1.228	-1.9119	-5.1290002
38	5	4	0.077726997	1.466	-1.4671	-3.4052999
39	5	4	0.084812999	2.1085999	0.4524	-4.6052999
40	5	4	0.084812999	0.49340001	0.85070002	-3.9288001
41	5	4	0.116016	1.0425	-0.1267	-6.8214002
42	5	4	0.116016	-0.56099999	0.37819999	-6.1626
43	1	1	-0.180474	3.8173001	2.8606999	-1.4541
44	1	2	0.031684998	3.842	3.9126	-2.3806
45	1	2	-0.14088	4.9534998	3.681	-3.4107001
46	1	2	-0.16792899	4.9288001	4.6998	-4.5639
47	1	2	0.084973998	5.3502002	6.1121998	-4.1394
48	1	7	-0.68535799	4.2958999	6.7585001	-3.4835
49	1	8	0.37687099	4.6392002	7.6518998	-3.2233
50	1	3	0.067685001	5.618	6.6907001	-5.0514002
51	1	3	0.067685001	6.2459998	6.0654998	-3.4804001
52	1	4	0.090089001	5.6419001	4.3484998	-5.3399
53	1	4	0.090089001	3.9212	4.7276001	-5.0321002
54	1	4	0.087793998	4.8234	2.6668999	-3.8489001
55	1	4	0.087793998	5.9432998	3.7018001	-2.9054
56	1	3	0.077503003	2.8541999	4.0042	-2.8859
57	1	3	0.077503003	4.0370998	4.8530998	-1.8253
58	2	5	0.51640999	-0.86290002	-2.2135999	1.3182
59	2	6	-0.692545	-0.37540001	-1.0963	1.3817
60	2	2	-0.25804099	-2.3519001	-2.3915999	1.2424001
61	2	2	-0.097557001	-3.0567999	-1.9001	2.5144999
62	2	2	-0.139221	-2.7219999	-2.77	3.7349
63	2	2	-0.14190499	-3.4758	-2.2846999	4.9794002
64	2	2	-0.14190499	-3.1296999	-3.1466999	6.2030001
65	2	2	-0.136565	-3.9642	-2.7818	7.441
66	2	2	-0.11336	-3.5541999	-1.4315	8.0544004
67	2	2	-0.21912999	-4.3393998	-1.1155	9.3339996
68	2	5	0.82306802	-3.9424	-2.0139	10.4651
69	2	6	-0.56018299	-4.6968999	-2.9605	10.8164
70	2	7	-0.66626501	-2.7262001	-1.8183	11.112
71	2	8	0.39305201	-2.4386001	-2.4238	11.8709
72	2	4	0.117034	-4.1314001	-0.0656	9.6327
73	2	4	0.117034	-5.4316001	-1.1975	9.1421003
74	2	4	0.084812999	-2.4635	-1.4262	8.2728996
75	2	4	0.084812999	-3.7579	-0.62029999	7.3249998
76	2	4	0.077726997	-5.0437999	-2.767	7.1774001
77	2	4	0.077726997	-3.8139999	-3.5832	8.1961002
78	2	4	0.079599001	-2.0462	-3.0550001	6.4382
79	2	4	0.079599001	-3.3308001	-4.2126999	5.9576998
80	2	4	0.079599001	-3.1979001	-1.2272	5.1760998
81	2	4	0.079599001	-4.5707002	-2.3355	4.7883
82	2	4	0.077726997	-1.6287	-2.7293999	3.9329
83	2	4	0.077726997	-3.0034001	-3.8250999	3.5223
84	2	4	0.07604	-2.7755001	-0.8416	2.7133999
85	2	4	0.07604	-4.1536999	-1.931	2.3376
86	2	4	0.112866	-2.5871	-3.4655001	1.0743001
87	2	4	0.112866	-2.7351999	-1.8214	0.36939999
88	4	1	-0.180474	0.082099997	-2.6354001	21.196301
89	4	2	0.031574	0.3865	-1.738	20.1635
90	4	2	-0.146612	1.6084	-0.89270002	20.542101
91	4	2	-0.13923299	2.1115999	-0.0094999997	19.387899
92	4	2	0.133855	1.1698999	1.1524	19.0527
93	4	1	-0.495184	0.086300001	0.69679999	18.2929
94	4	3	0.077909999	1.7348	1.908	18.461399
95	4	3	0.077909999	0.80949998	1.64	19.986799
96	4	4	0.086662002	3.0904	0.4208	19.694099
97	4	4	0.086662002	2.2945001	-0.62639999	18.4809
98	4	4	0.087626003	2.4344001	-1.5767	20.834999
99	4	4	0.087626003	1.3678	-0.264	21.427999
100	4	3	0.077503003	0.57440001	-2.2921	19.215099
101	4	3	0.077503003	-0.49239999	-1.0785	20.0128
102	5	5	0.761011	-0.51490003	1.5276999	18.1196
103	5	6	-0.55855	-0.35870001	2.171	17.0945
104	5	2	-0.209034	-1.5622	1.9407001	19.1105
105	5	2	-0.115894	-1.5924	0.98790002	20.3146
106	5	2	-0.136565	-2.73	1.3099	21.297899
107	5	2	-0.14190499	-2.4305999	2.5483999	22.1593
108	5	2	-0.14190499	-3.6054001	2.9396	23.0751
109	5	2	-0.139221	-4.0012002	1.8808	24.1203
110	5	2	-0.097557001	-2.8650999	1.5509	25.1001
111	5	2	-0.25804099	-3.3622	0.64240003	26.2309
112	5	5	0.51640999	-2.2537	0.30219999	27.1828
113	5	6	-0.692545	-2.4760001	-0.41549999	28.143
114	5	4	0.112866	-4.1721001	1.1547	26.793501
115	5	4	0.112866	-3.7677	-0.29910001	25.801399
116	5	4	0.07604	-2.0471001	1.0288	24.5585
117	5	4	0.07604	-2.4646001	2.4933	25.534901
118	5	4	0.077726997	-4.8638	2.2834001	24.693899
119	5	4	0.077726997	-4.3523998	0.95420003	23.618099
120	5	4	0.079599001	-3.3415	3.8815999	23.6045
121	5	4	0.079599001	-4.4928002	3.1623001	22.444099
122	5	4	0.079599001	-1.5121	2.3829	22.7614
123	5	4	0.079599001	-2.2305	3.4177999	21.498501
124	5	4	0.077726997	-3.6830001	1.4499	20.742399
125	5	4	0.077726997	-2.8511	0.42919999	21.963699
126	5	4	0.084812999	-1.7463	-0.0495	19.941999
127	5	4	0.084812999	-0.6153	1.0135	20.8451
128	5	4	0.116016	-2.5523	1.9367	18.604601
129	5	4	0.116016	-1.3364	2.9741001	19.4447
130	1	1	-0.180474	0.7324	-3.3815999	21.1262
131	1	2	0.031684998	1.3727	-3.2426	19.886801
132	1	2	-0.14088	0.4605	-3.7488999	18.763399
133	1	2	-0.16792899	1.0202	-3.4651	17.358101
134	1	2	0.084973998	2.2481999	-4.3146	17.007401
135	1	7	-0.68535799	3.3929999	-3.7918999	17.6201
136	1	8	0.37687099	4.1399999	-4.3937001	17.367901
137	1	3	0.067685001	2.3878	-4.296	15.9036
138	1	3	0.067685001	2.0887001	-5.3706002	17.3211
139	1	4	0.090089001	0.2208	-3.6989999	16.6229
140	1	4	0.090089001	1.2605	-2.3854001	17.249901
141	1	4	0.087793998	-0.52289999	-3.2361	18.8486
142	1	4	0.087793998	0.2807	-4.8386002	18.8888
143	1	3	0.077503003	1.6511	-2.1787	19.7141
144	1	3	0.077503003	2.3034999	-3.8459001	19.912901
145	2	5	0.51640999	-1.2508	0.68709999	27.0298
146	2	6	-0.692545	-0.41679999	-0.0082	26.472099
147	2	2	-0.25804099	-0.90240002	2.0734	27.489201
148	2	2	-0.097557001	0.16859999	2.0643001	28.5891
149	2	2	-0.139221	-0.34909999	1.4466	29.8962
150	2	2	-0.14190499	0.72530001	1.4935	30.989799
151	2	2	-0.14190499	0.2115	0.8628	32.292999
152	2	2	-0.136565	1.2062	1.0093	33.455502
153	2	2	-0.11336	2.4407001	0.1047	33.296001
154	2	2	-0.21912999	3.3871	0.2008	34.499599
155	2	5	0.82306802	2.7951	-0.42879999	35.723202
156	2	6	-0.56018299	2.3326001	0.2942	36.646301
157	2	7	-0.66626501	2.7323999	-1.8147	35.828701
158	2	8	0.39305201	2.3252001	-2.2553	36.644501
159	2	4	0.117034	4.3323002	-0.33059999	34.256199
160	2	4	0.117034	3.6443999	1.2639	34.699402
161	2	4	0.084812999	2.1243	-0.95190001	33.151299
162	2	4	0.084812999	3.0088999	0.41499999	32.394699
163	2	4	0.077726997	1.5227	2.0704999	33.549801
164	2	4	0.077726997	0.67339998	0.7335	34.3909
165	2	4	0.079599001	-0.0208	-0.21269999	32.128799
166	2	4	0.079599001	-0.73409998	1.3693	32.5867
167	2	4	0.079599001	1.6213	0.94090003	30.6346
168	2	4	0.079599001	1.0113	2.5520999	31.1782
169	2	4	0.077726997	-0.64139998	0.38870001	29.718399
170	2	4	0.077726997	-1.2466	2.0083001	30.2377
171	2	4	0.07604	1.0649	1.5075999	28.2344
172	2	4	0.07604	0.47710001	3.1145	28.782
173	2	4	0.112866	-1.8193001	2.5797999	27.8627
174	2	4	0.112866	-0.52700001	2.6536	26.619301
175	4	1	-0.180474	-1.3519	1.0495	53.4879
176	4	2	0.031574	-0.1507	1.4062001	54.116299
177	4	2	-0.146612	0.6146	2.4182999	53.2556
178	4	2	-0.13923299	1.8557	2.9921	53.959702
179	4	2	0.133855	2.9921	1.976	54.1185
180	4	1	-0.495184	2.7272	1.113	55.188202
181	4	3	0.077909999	3.9363999	2.5288	54.3242
182	4	3	0.077909999	3.1264999	1.3958	53.177601
183	4	4	0.086662002	2.2347	3.8355	53.341702
184	4	4	0.086662002	1.5776	3.4119	54.951199
185	4	4	0.087626003	-0.065399997	3.2646999	53.016499
186	4	4	0.087626003	0.90619999	1.9443001	52.292099
187	4	3	0.077503003	-0.3558	1.8296	55.1264
188	4	3	0.077503003	0.45660001	0.48660001	54.241199
189	5	5	0.761011	3.5237999	0.4452	55.224899
190	5	6	-0.55855	4.4717002	0.69019997	55.953201
191	5	2	-0.209034	3.5195999	-0.80500001	54.3964
192	5	2	-0.115894	2.2311001	-0.91680002	53.568298
193	5	2	-0.136565	2.1368001	-2.2414	52.7929
194	5	2	-0.14190499	3.0513999	-2.2664001	51.556801
195	5	2	-0.14190499	3.0415001	-3.6248	50.8312
196	5	2	-0.139221	1.6774	-4.0511999	50.258999
197	5	2	-0.097557001	1.1337	-3.0699	49.209702
198	5	2	-0.25804099	-0.1233	-3.6301999	48.5336
199	5	5	0.51640999	-0.66970003	-2.6695001	47.519001
200	5	6	-0.692545	-1.6719	-2.9577	46.887299
201	5	4	0.112866	0.121	-4.5872998	48.024502
202	5	4	0.112866	-0.90380001	-3.8241	49.300701
203	5	4	0.07604	0.87400001	-2.1071999	49.700401
204	5	4	0.07604	1.913	-2.8817999	48.4384
205	5	4	0.077726997	1.8108	-5.0468001	49.7836
206	5	4	0.077726997	0.9382	-4.1815	51.0779
207	5	4	0.079599001	3.7801001	-3.5864	50.0005
208	5	4	0.079599001	3.3900001	-4.4101	51.536301
209	5	4	0.079599001	2.7685001	-1.4533	50.854801
210	5	4	0.079599001	4.099	-2.0725	51.8689
211	5	4	0.077726997	2.3783	-3.0927	53.466301
212	5	4	0.077726997	1.0826	-2.3575001	52.4632
213	5	4	0.084812999	1.3599	-0.86229998	54.2589
214	5	4	0.084812999	2.1558001	-0.059799999	52.8634
215	5	4	0.116016	3.6064	-1.6817	55.0746
216	5	4	0.116016	4.4043999	-0.78200001	53.727798
217	1	1	-0.180474	-1.9868	1.7963001	53.642101
218	1	2	0.031684998	-1.4111	2.6185999	54.620701
219	1	2	-0.14088	-1.5946	1.9933	56.0084
220	1	2	-0.16792899	-0.8348	2.7465	57.114601
221	1	2	0.084973998	-1.4352	4.1198001	57.440701
222	1	7	-0.68535799	-1.0553	5.0591998	56.475101
223	1	8	0.37687099	-1.4884	5.9127002	56.735298
224	1	3	0.067685001	-1.0531	4.4463	58.433498
225	1	3	0.067685001	-2.5446999	4.0513	57.499298
226	1	4	0.090089001	-0.87760001	2.1266999	58.0355
227	1	4	0.090089001	0.237	2.8548	56.8409
228	1	4	0.087793998	-1.2091	0.95020002	55.979599
229	1	4	0.087793998	-2.6768999	1.9424	56.2565
230	1	3	0.077503003	-0.3308	2.7774	54.403801
231	1	3	0.077503003	-1.9216	3.6031001	54.584
232	2	5	0.51640999	-0.18440001	-1.7163	47.337101
233	2	6	-0.692545	-0.60140002	-0.7119	47.891499
234	2	2	-0.25804099	1.0024	-1.643	46.420399
235	2	2	-0.097557001	0.7184	-0.78930002	45.176498
236	2	2	-0.139221	-0.32210001	-1.4397	44.253201
237	2	2	-0.14190499	-0.55110002	-0.58899999	42.997601
238	2	2	-0.14190499	-1.6023	-1.2331001	42.0811
239	2	2	-0.136565	-1.7651	-0.48570001	40.748001
240	2	2	-0.11336	-2.4784999	0.86790001	40.911301
241	2	2	-0.21912999	-2.7054999	1.5678999	39.565201
242	2	5	0.82306802	-3.7358	0.86119998	38.738701
243	2	6	-0.56018299	-3.3831	0.1517	37.7584
244	2	7	-0.66626501	-5.0829	0.96789998	39.07
245	2	8	0.39305201	-5.7905002	0.4874	38.527901
246	2	4	0.117034	-3.0604999	2.6036999	39.7547
247	2	4	0.117034	-1.7471	1.641	39.0061
248	2	4	0.084812999	-3.4526	0.72659999	41.429401
249	2	4	0.084812999	-1.8548	1.5379	41.538799
250	2	4	0.077726997	-0.77029997	-0.336	40.275398
251	2	4	0.077726997	-2.3645	-1.1318001	40.070999
252	2	4	0.079599001	-2.582	-1.2865	42.6054
253	2	4	0.079599001	-1.2869	-2.2748001	41.8522
254	2	4	0.079599001	-0.89380002	0.42129999	43.307701
255	2	4	0.079599001	0.40880001	-0.4853	42.444599
256	2	4	0.077726997	-1.2853	-1.5516	44.797401
257	2	4	0.077726997	0.033399999	-2.4502001	43.9533
258	2	4	0.07604	0.37169999	0.2217	45.487301
259	2	4	0.07604	1.6705	-0.66320002	44.6171
260	2	4	0.112866	1.2941	-2.6707001	46.111401
261	2	4	0.112866	1.8568	-1.2028	46.9776
262	4	1	-0.180474	4.0201998	-0.97430003	75.650002
263	4	2	0.031574	4.8210001	-0.046700001	74.969398
264	4	2	-0.146612	4.2435999	1.3648	75.127197
265	4	2	-0.13923299	5.1626	2.4593	74.558998
266	4	2	0.133855	5.244	2.4544001	73.028503
267	4	1	-0.495184	6.1036	1.4404	72.590103
268	4	3	0.077909999	5.6422	3.4379001	72.691002
269	4	3	0.077909999	4.2302999	2.3196001	72.587601
270	4	4	0.086662002	4.7525001	3.4430001	74.876602
271	4	4	0.086662002	6.1817002	2.3729	74.995697
272	4	4	0.087626003	4.0981998	1.5682	76.210503
273	4	4	0.087626003	3.2433	1.4155999	74.642601
274	4	3	0.077503003	5.8663001	-0.085699998	75.353699
275	4	3	0.077503003	4.8340998	-0.32780001	73.896599
276	5	5	0.761011	6.0960002	1.4841	71.551003
277	5	6	-0.55855	6.9484	2.1424999	70.977501
278	5	2	-0.209034	5.0544	0.75330001	70.757004
279	5	2	-0.115894	4.0948	-0.015900001	71.676804
280	5	2	-0.136565	3.0822999	-0.87089998	70.896698
281	5	2	-0.14190499	1.961	-0.0275	70.266998
282	5	2	-0.14190499	0.99949998	-0.86070001	69.3993
283	5	2	-0.139221	0.2243	-1.9583	70.150703
284	5	2	-0.097557001	-0.67460001	-1.402	71.265198
285	5	2	-0.25804099	-1.5653	-2.503	71.852798
286	5	5	0.51640999	-2.4344001	-1.9704	72.953697
287	5	6	-0.692545	-3.2059	-2.7156	73.533401
288	5	4	0.112866	-2.2155001	-2.9233	71.055603
289	5	4	0.112866	-0.9296	-3.3185	72.260399
290	5	4	0.07604	-0.0429	-0.9842	72.0784
291	5	4	0.07604	-1.3156	-0.59069997	70.854698
292	5	4	0.077726997	-0.41119999	-2.4869001	69.407898
293	5	4	0.077726997	0.92659998	-2.7112	70.567802
294	5	4	0.079599001	0.26859999	-0.1718	68.921501
295	5	4	0.079599001	1.5785	-1.3362	68.5783
296	5	4	0.079599001	1.3968	0.5108	71.057999
297	5	4	0.079599001	2.4072001	0.74550003	69.606697
298	5	4	0.077726997	3.6073999	-1.4585	70.112099
299	5	4	0.077726997	2.6326001	-1.5889	71.614899
300	5	4	0.084812999	4.6925001	-0.6979	72.322098
301	5	4	0.084812999	3.5566001	0.6929	72.343903
302	5	4	0.116016	5.5639	0.043499999	70.069397
303	5	4	0.116016	4.4938002	1.4955	70.152496
304	1	1	-0.180474	4.2452998	-0.8926	76.6129
305	1	2	0.031684998	5.4119	-0.1189	76.689499
306	1	2	-0.14088	6.6343999	-0.97320002	76.334297
307	1	2	-0.16792899	7.9313998	-0.1525	76.221802
308	1	2	0.084973998	8.4440002	0.36660001	77.571098
309	1	7	-0.68535799	7.7119002	1.4908	77.970299
310	1	8	0.37687099	8.0805998	1.7618001	78.850304
311	1	3	0.067685001	9.5132999	0.65270001	77.4571
312	1	3	0.067685001	8.3772001	-0.43329999	78.3423
313	1	4	0.090089001	8.7128	-0.81379998	75.7901
314	1	4	0.090089001	7.7915001	0.6947	75.516098
315	1	4	0.087793998	6.4520998	-1.4591	75.350403
316	1	4	0.087793998	6.7589998	-1.781	77.087502
317	1	3	0.077503003	5.3376002	0.7586	76.008499
318	1	3	0.077503003	5.5068002	0.25510001	77.729698
319	2	5	0.51640999	-2.3872001	-0.92610002	73.244202
320	2	6	-0.692545	-1.7013	-0.59619999	74.198502
321	2	2	-0.25804099	-3.1507001	0.1039	72.462898
322	2	2	-0.097557001	-4.2374001	0.78119999	73.3097
323	2	2	-0.139221	-5.3646998	-0.18979999	73.6894
324	2	2	-0.14190499	-6.4579	0.52450001	74.494102
325	2	2	-0.14190499	-7.5784998	-0.4506	74.885696
326	2	2	-0.136565	-8.7599001	0.24950001	75.575897
327	2	2	-0.11336	-8.4215002	0.71240002	77.003799
328	2	2	-0.21912999	-9.6308002	1.3383	77.710503
329	2	5	0.82306802	-10.6729	0.31380001	78.040001
330	2	6	-0.56018299	-11.727	0.2397	77.352898
331	2	7	-0.66626501	-10.4645	-0.57419997	79.0905
332	2	8	0.39305201	-11.1544	-1.2795	79.318703
333	2	4	0.117034	-9.2896004	1.8065	78.658798
334	2	4	0.117034	-10.0676	2.1431	77.079697
335	2	4	0.084812999	-8.0389004	-0.1434	77.602699
336	2	4	0.084812999	-7.6215	1.4804	76.960602
337	2	4	0.077726997	-9.0944004	1.1157	74.965202
338	2	4	0.077726997	-9.6013002	-0.47510001	75.619904
339	2	4	0.079599001	-7.1742001	-1.2483	75.547302
340	2	4	0.079599001	-7.9632001	-0.94139999	73.964699
341	2	4	0.079599001	-6.0022001	0.958	75.409897
342	2	4	0.079599001	-6.8829999	1.351	73.882401
343	2	4	0.077726997	-4.9500999	-1.0225	74.2985
344	2	4	0.077726997	-5.8091998	-0.61699998	72.763397
345	2	4	0.07604	-3.7813001	1.2125	74.228996
346	2	4	0.07604	-4.6652999	1.62	72.719101
347	2	4	0.112866	-3.6136	-0.37630001	71.572998
348	2	4	0.112866	-2.4388001	0.875	72.098396
349	4	1	-0.180474	-0.5492	-4.0753002	100.4334
350	4	2	0.031574	0.25350001	-4.0612001	101.5825
351	4	2	-0.146612	-0.079300001	-2.8369999	102.4435
352	4	2	-0.13923299	0.63319999	-2.8467	103.8064
353	4	2	0.133855	2.1438999	-2.6076	103.7073
354	4	1	-0.495184	2.7967	-3.7788	103.3059
355	4	3	0.077909999	2.5223999	-2.3076	104.7106
356	4	3	0.077909999	2.3585999	-1.7808	102.993
357	4	4	0.086662002	0.197	-2.0290999	104.4212
358	4	4	0.086662002	0.4321	-3.8011	104.3406
359	4	4	0.087626003	-1.1752	-2.8236001	102.6302
360	4	4	0.087626003	0.17399999	-1.9081	101.8859
361	4	3	0.077503003	0.1074	-4.9994998	102.1655
362	4	3	0.077503003	1.3134	-4.0141001	101.259
363	5	5	0.761011	3.8069	-3.5395999	103.2426
364	5	6	-0.55855	4.5265999	-3.7393999	104.2075
365	5	2	-0.209034	4.3825998	-2.954	101.9876
366	5	2	-0.115894	3.3059001	-2.7997	100.9033
367	5	2	-0.136565	3.8791001	-2.3101001	99.563004
368	5	2	-0.14190499	4.2175999	-0.80989999	99.580399
369	5	2	-0.14190499	4.8864999	-0.33129999	98.278397
370	5	2	-0.139221	4.0265999	-0.47569999	97.009499
371	5	2	-0.097557001	2.7230999	0.3346	97.072701
372	5	2	-0.25804099	1.9981	0.31389999	95.721802
373	5	5	0.51640999	0.71530002	1.0896	95.780701
374	5	6	-0.692545	0.0103	1.1746	94.789597
375	5	4	0.112866	2.6501999	0.76020002	94.940498
376	5	4	0.112866	1.7696	-0.736	95.437698
377	5	4	0.07604	2.0513999	-0.1015	97.843201
378	5	4	0.07604	2.9533999	1.3871	97.350098
379	5	4	0.077726997	4.6329999	-0.1129	96.151703
380	5	4	0.077726997	3.8009	-1.5458	96.814903
381	5	4	0.079599001	5.1675	0.73809999	98.398598
382	5	4	0.079599001	5.8309999	-0.89829999	98.131401
383	5	4	0.079599001	3.3031001	-0.21359999	99.784798
384	5	4	0.079599001	4.9294	-0.60189998	100.4066
385	5	4	0.077726997	4.7807002	-2.904	99.296799
386	5	4	0.077726997	3.108	-2.4960999	98.785599
387	5	4	0.084812999	2.8322999	-3.7920001	100.7303
388	5	4	0.084812999	2.5114999	-2.1038001	101.2518
389	5	4	0.116016	5.1908002	-3.6234	101.6205
390	5	4	0.116016	4.8221998	-1.966	102.2347
391	1	1	-0.180474	-1.4426	-4.4036002	100.7141
392	1	2	0.031684998	-1.293	-4.9215002	102.0082
393	1	2	-0.14088	-0.64840001	-6.3112001	101.9479
394	1	2	-0.16792899	-0.28780001	-6.8695002	103.3359
395	1	2	0.084973998	-1.5121	-7.2606001	104.1731
396	1	7	-0.68535799	-2.1032	-6.1220002	104.7329
397	1	8	0.37687099	-2.8915999	-6.4425998	105.2421
398	1	3	0.067685001	-1.1793	-7.9358001	104.9926
399	1	3	0.067685001	-2.2486	-7.8108001	103.5453
400	1	4	0.090089001	0.3281	-7.7814002	103.1833
401	1	4	0.090089001	0.33790001	-6.1399999	103.8941
402	1	4	0.087793998	0.28999999	-6.2399998	101.3548
403	1	4	0.087793998	-1.3255	-7.0158	101.4181
404	1	3	0.077503003	-0.67820001	-4.2326002	102.6302
405	1	3	0.077503003	-2.3011	-4.9966002	102.4654
406	2	5	0.51640999	0.40259999	1.5796	96.696899
407	2	6	-0.692545	-0.39160001	1.0224	97.437798
408	2	2	-0.25804099	0.95969999	2.9275	97.053299
409	2	2	-0.097557001	-0.12809999	4.0102	97.087799
410	2	2	-0.139221	-0.70679998	4.2941999	95.694099
411	2	2	-0.14190499	-1.7563	5.4113998	95.751701
412	2	2	-0.14190499	-2.3448999	5.6852999	94.359398
413	2	2	-0.136565	-3.3015001	6.8881998	94.345802
414	2	2	-0.11336	-4.6381001	6.5897002	95.047096
415	2	2	-0.21912999	-5.6139998	7.7701001	94.958298
416	2	5	0.82306802	-6.1230001	7.9657998	93.563004
417	2	6	-0.56018299	-5.6792998	8.9084997	92.853798
418	2	7	-0.66626501	-7.0688	7.0892	93.040703
419	2	8	0.39305201	-7.4145999	7.2014999	92.095497
420	2	4	0.117034	-6.4823999	7.5685	95.621597
421	2	4	0.117034	-5.1241002	8.6990995	95.323402
422	2	4	0.084812999	-5.1065998	5.6820002	94.606697
423	2	4	0.084812999	-4.4510999	6.3870001	96.1222
424	2	4	0.077726997	-2.8113	7.7655001	94.820396
425	2	4	0.077726997	-3.4998	7.1483998	93.283699
426	2	4	0.079599001	-2.8721001	4.7800999	93.984802
427	2	4	0.079599001	-1.5117	5.9036002	93.655701
428	2	4	0.079599001	-2.5669	5.1048999	96.4468
429	2	4	0.079599001	-1.2834001	6.3393002	96.143097
430	2	4	0.077726997	-1.1792001	3.3717	95.291496
431	2	4	0.077726997	0.116	4.5971999	95.009399
432	2	4	0.07604	-0.94199997	3.7014999	97.7817
433	2	4	0.07604	0.3231	4.9431	97.4897
434	2	4	0.112866	1.7452	3.2084	96.317902
435	2	4	0.112866	1.4408	2.8618	98.052498
436	4	1	-0.180474	-3.5727999	23.1276	-2.0146
437	4	2	0.031574	-3.99	24.223	-2.7832
438	4	2	-0.146612	-2.8123	24.778601	-3.5926001
439	4	2	-0.13923299	-3.2298999	25.8682	-4.5945001
440	4	2	0.133855	-3.6435001	27.1847	-3.9277
441	4	1	-0.495184	-4.9449	27.086201	-3.4219
442	4	3	0.077909999	-3.612	27.994699	-4.6911001
443	4	3	0.077909999	-2.9307001	27.4464	-3.1131001
444	4	4	0.086662002	-2.3562	26.076599	-5.2502999
445	4	4	0.086662002	-4.0493002	25.4977	-5.2487001
446	4	4	0.087626003	-2.3525	23.944401	-4.1659002
447	4	4	0.087626003	-2.036	25.173	-2.9000001
448	4	3	0.077503003	-4.822	23.923	-3.461
449	4	3	0.077503003	-4.369	25.002399	-2.0911
450	5	5	0.761011	-5.1501002	28.000999	-2.9716001
451	5	6	-0.55855	-5.7108998	28.869801	-3.6192999
452	5	2	-0.209034	-4.7645001	28.261299	-1.5458
453	5	2	-0.115894	-4.0848999	27.0333	-0.92229998
454	5	2	-0.136565	-3.7781999	27.219801	0.5729
455	5	2	-0.14190499	-2.5676	28.136801	0.81569999
456	5	2	-0.14190499	-2.3141999	28.412001	2.3096001
457	5	2	-0.139221	-1.9809999	27.1703	3.1566
458	5	2	-0.097557001	-0.70420003	26.452999	2.6932001
459	5	2	-0.25804099	-0.30970001	25.344801	3.6766
460	5	5	0.51640999	0.92750001	24.628401	3.2217
461	5	6	-0.692545	1.3803	23.7139	3.8887999
462	5	4	0.112866	-0.1199	25.7847	4.6792998
463	5	4	0.112866	-1.1389	24.6096	3.7616999
464	5	4	0.07604	-0.87580001	25.997101	1.6943001
465	5	4	0.07604	0.12710001	27.1882	2.6152
466	5	4	0.077726997	-1.8412	27.5091	4.2058001
467	5	4	0.077726997	-2.8368001	26.462099	3.1579001
468	5	4	0.079599001	-1.4766001	29.1385	2.3973999
469	5	4	0.079599001	-3.2132001	28.903099	2.7409
470	5	4	0.079599001	-1.6593	27.704201	0.3448
471	5	4	0.079599001	-2.7456	29.119101	0.3301
472	5	4	0.077726997	-4.6738	27.619801	1.0966001
473	5	4	0.077726997	-3.5590999	26.2155	0.99360001
474	5	4	0.084812999	-4.7673998	26.160101	-1.0247999
475	5	4	0.084812999	-3.1487999	26.7953	-1.4736
476	5	4	0.116016	-5.6810999	28.514999	-0.9698
477	5	4	0.116016	-4.0774002	29.131901	-1.5247
478	1	1	-0.180474	-3.5144999	22.352501	-2.6314001
479	1	2	0.031684998	-4.1480999	22.7365	-3.8216
480	1	2	-0.14088	-5.6704001	22.6651	-3.6544001
481	1	2	-0.16792899	-6.4369001	23.2418	-4.8578
482	1	2	0.084973998	-6.3400002	22.371201	-6.1169
483	1	7	-0.68535799	-5.1066999	22.565599	-6.7495999
484	1	8	0.37687099	-5.1039	21.965099	-7.539
485	1	3	0.067685001	-7.1552	22.666	-6.8146
486	1	3	0.067685001	-6.4762001	21.297899	-5.8548999
487	1	4	0.090089001	-7.5082998	23.313299	-4.5727
488	1	4	0.090089001	-6.0865002	24.2729	-5.0798001
489	1	4	0.087793998	-5.9549999	23.2544	-2.7548001
490	1	4	0.087793998	-5.9790001	21.612499	-3.4751
491	1	3	0.077503003	-3.8348	23.764999	-4.1103001
492	1	3	0.077503003	-3.8268001	22.0376	-4.6212001
493	2	5	0.51640999	1.4292001	24.912901	2.3025999
494	2	6	-0.692545	1.2023	24.2936	1.2754
495	2	2	-0.25804099	2.3831999	26.072201	2.2978001
496	2	2	-0.097557001	3.8173001	25.637501	1.9645
497	2	2	-0.139221	4.4285998	24.7628	3.0687001
498	2	2	-0.14190499	5.8758001	24.382799	2.7311001
499	2	2	-0.14190499	6.4821	23.496201	3.8294001
500	2	2	-0.136565	7.9731998	23.202999	3.5994999
501	2	2	-0.11336	8.2119999	22.228001	2.4333
502	2	2	-0.21912999	9.6969004	21.881599	2.2639999
503	2	5	0.82306802	10.1992	21.027	3.3871
504	2	6	-0.56018299	10.9196	21.5292	4.2912998
505	2	7	-0.66626501	9.8480997	19.681999	3.4454999
506	2	8	0.39305201	10.1704	19.0937	4.2041998
507	2	4	0.117034	9.8287001	21.321501	1.3133
508	2	4	0.117034	10.3002	22.812599	2.1888001
509	2	4	0.084812999	7.6248999	21.2959	2.5878999
510	2	4	0.084812999	7.8648	22.6945	1.4881001
511	2	4	0.077726997	8.5209999	24.153	3.4184
512	2	4	0.077726997	8.3761997	22.756001	4.5337
513	2	4	0.079599001	5.9168	22.5408	3.9017
514	2	4	0.079599001	6.3835001	24.019199	4.8060002
515	2	4	0.079599001	5.8859	23.8384	1.7627
516	2	4	0.079599001	6.4832001	25.309	2.6252999
517	2	4	0.077726997	3.8267	23.835199	3.1854999
518	2	4	0.077726997	4.4094	25.3197	4.0314999
519	2	4	0.07604	3.8268001	25.089001	0.99599999
520	2	4	0.07604	4.4375	26.551701	1.8415999
521	2	4	0.112866	2.3636999	26.570299	3.2920001
522	2	4	0.112866	2.0415001	26.812201	1.5429
523	4	1	-0.180474	-0.1168	21.8867	28.082701
524	4	2	0.031574	-1.3635	22.165701	28.659599
525	4	2	-0.146612	-2.4565001	22.1551	27.584499
526	4	2	-0.13923299	-3.8752	22.276501	28.165701
527	4	2	0.133855	-4.1831999	23.663799	28.739901
528	4	1	-0.495184	-3.6027	23.8064	30.0056
529	4	3	0.077909999	-5.2873998	23.7721	28.833599
530	4	3	0.077909999	-3.8127	24.457899	28.0527
531	4	4	0.086662002	-4.5956998	22.0797	27.3416
532	4	4	0.086662002	-4.0430999	21.496799	28.940599
533	4	4	0.087626003	-2.3956001	21.1947	27.0278
534	4	4	0.087626003	-2.2706001	22.974199	26.8547
535	4	3	0.077503003	-1.5936	21.4221	29.457001
536	4	3	0.077503003	-1.3076	23.1702	29.1264
537	5	5	0.761011	-3.8350999	24.7691	30.3234
538	5	6	-0.55855	-4.8287001	24.944901	31.009501
539	5	2	-0.209034	-2.9688001	25.934299	29.9478
540	5	2	-0.115894	-1.7729	25.4841	29.0959
541	5	2	-0.136565	-0.79809999	26.632601	28.787001
542	5	2	-0.14190499	-1.3355	27.586399	27.7068
543	5	2	-0.14190499	-0.4138	28.795799	27.4629
544	5	2	-0.139221	0.99559999	28.4512	26.9478
545	5	2	-0.097557001	0.97869998	27.723	25.5954
546	5	2	-0.25804099	2.398	27.5735	25.034901
547	5	5	0.51640999	2.3908999	26.848101	23.721701
548	5	6	-0.692545	3.4400001	26.641199	23.136
549	5	4	0.112866	2.849	28.5781	24.886
550	5	4	0.112866	3.0250001	27.004999	25.755301
551	5	4	0.07604	0.53890002	26.7106	25.7239
552	5	4	0.07604	0.3567	28.2964	24.8729
553	5	4	0.077726997	1.5525	29.4062	26.8339
554	5	4	0.077726997	1.5447	27.845501	27.6999
555	5	4	0.079599001	-0.90570003	29.472	26.7295
556	5	4	0.079599001	-0.3136	29.366899	28.4111
557	5	4	0.079599001	-1.5044	27.033899	26.758101
558	5	4	0.079599001	-2.3203001	27.9877	28.025801
559	5	4	0.077726997	-0.56959999	27.196501	29.7178
560	5	4	0.077726997	0.1476	26.1758	28.425699
561	5	4	0.084812999	-1.2130001	24.702	29.656099
562	5	4	0.084812999	-2.1315	25.027	28.147499
563	5	4	0.116016	-2.6036999	26.421101	30.878401
564	5	4	0.116016	-3.5889001	26.661301	29.384399
565	1	1	-0.180474	-0.085299999	20.9063	27.932699
566	1	2	0.031684998	-1.166	20.3564	28.636299
567	1	2	-0.14088	-0.8355	20.2775	30.1313
568	1	2	-0.16792899	-2.0373001	19.8514	30.992901
569	1	2	0.084973998	-2.4323001	18.3813	30.804701
570	1	7	-0.68535799	-3.1636	18.2211	29.622
571	1	8	0.37687099	-3.3697	17.2533	29.5541
572	1	3	0.067685001	-3.0648999	18.071699	31.666201
573	1	3	0.067685001	-1.5245	17.7372	30.789301
574	1	4	0.090089001	-1.7574	19.997	32.058102
575	1	4	0.090089001	-2.9099	20.509199	30.7896
576	1	4	0.087793998	-0.50980002	21.284201	30.474701
577	1	4	0.087793998	0.0143	19.579201	30.2911
578	1	3	0.077503003	-2.0833001	20.965099	28.4708
579	1	3	0.077503003	-1.3491	19.3365	28.239799
580	2	5	0.51640999	1.4613	26.502399	23.2817
581	2	6	-0.692545	1.1118	25.344	23.4436
582	2	2	-0.25804099	0.60680002	27.452499	22.4935
583	2	2	-0.097557001	0.4883	27.0354	21.0208
584	2	2	-0.139221	1.8247	27.1593	20.2747
585	2	2	-0.14190499	1.6662	26.781601	18.796499
586	2	2	-0.14190499	3.0064001	26.8922	18.0539
587	2	2	-0.136565	2.8683	26.6541	16.5418
588	2	2	-0.11336	2.5964	25.179399	16.197001
589	2	2	-0.21912999	2.5390999	24.940701	14.6827
590	2	5	0.82306802	3.8880999	25.082399	14.0468
591	2	6	-0.56018299	4.1694002	26.1161	13.3828
592	2	7	-0.66626501	4.8408999	24.082001	14.2117
593	2	8	0.39305201	5.7609	24.1679	13.7975
594	2	4	0.117034	2.1717	23.908701	14.4956
595	2	4	0.117034	1.816	25.6423	14.2124