Title

5875 atoms
6000 bonds
9625 angles
14625 dihedrals
6000 impropers

8 atom types
12 bond types
6 angle types
20 dihedral types
2 improper types
-9.202899933 90.79710007 xlo xhi
-9.498200417 90.50179958 ylo yhi
-9.398099899 90.6019001 zlo zhi
0.0 0.0 0.0 xy xz yz

Masses

1	15.99943
2	12.01078
3	1.007947
4	12.01078
5	15.99943
6	1.007947
7	15.99943
8	1.007947


Pair Coeffs

1	0.16846514	3.0251065
2	0.10884061	3.3795318
3	0.016409246	2.5832257
4	0.086879315	3.4806469
5	0.2102061	3.0398122
6	0.015611343	2.5725815
7	0.20947353	2.99716
8	1.2326e-05	0.53453923

Bond Coeffs

1 harmonic	366.7408841747	1.425895053732
2 harmonic	300.03137914615	1.451203938761
3 harmonic	264.62148576755	1.52190126495
4 harmonic	370.04670688625	1.093899492634
5 harmonic	301.15400723785	1.345741232799
6 harmonic	582.698766451	1.225198386222
7 harmonic	279.1350963404	1.454628925034
8 harmonic	360.7852444772	1.387193227181
9 harmonic	397.2545789619	1.085358495916
10 harmonic	329.96998057905	1.427343958716
11 harmonic	543.5267831885	0.9716763312559
12 harmonic	385.7604595587	1.369745182308


Angle Coeffs

1 harmonic	53.20531626545	116.5475862634
2 harmonic	65.09061609600001	110.3538806181
3 harmonic	201.41175231035	127.4691416191
4 harmonic	57.8982893754	126.8062420451
5 harmonic	48.776492647595	115.6030999533
6 harmonic	34.066775159195	129.1835929926


Dihedral Coeffs

1 fourier 1	-0.0309670556842	3	0
2 fourier 1	0.4598191477945	2	0
3 fourier 1	0.1115525666802	3	0
4 fourier 1	0.3432490222662	1	0
5 fourier 1	0.0473758381877	3	0
6 fourier 1	0.457973137376	1	0
7 fourier 1	0.1918272375143	3	0
8 fourier 1	0.9202179876409	1	180
9 fourier 1	1.163809172478	2	180
10 fourier 1	0.1679186987369	1	180
11 fourier 1	2.779853741805	2	180
12 fourier 1	0.9974165607242	2	180
13 fourier 1	0.1911926717192	3	0
14 fourier 1	3.661930099076	2	180
15 fourier 1	0.3445382149273	3	0
16 fourier 1	0.1364556373303	1	0
17 fourier 1	0.3026390167484	3	0
18 fourier 1	2.687457892086	2	180
19 fourier 1	2.772607909663	2	180
20 fourier 1	0.09692684957115	1	0


Improper Coeffs

1 3.5	-1	2
2 0.3666666666666667	-1	2


Atoms

1	4	1	-0.14322101	0.0197	-3.6808	4.3060999
2	4	2	0.050310999	-0.7374	-3.5323999	3.1363001
3	4	2	0.155461	-0.1141	-2.4697001	2.2318001
4	4	1	-0.50474697	-0.83249998	-2.3699	1.0329
5	4	3	0.085822999	0.93180001	-2.7572	1.9960999
6	4	3	0.085822999	-0.092500001	-1.4854	2.7542
7	4	3	0.093269996	-0.75529999	-4.5050998	2.5997
8	4	3	0.093269996	-1.7881	-3.2579	3.3864
9	5	4	0.79009402	-1.7007999	-1.8444999	1.2497
10	5	5	-0.56516898	-2.3840001	-2.1822	2.2530999
11	5	4	-0.239728	-2.1110001	-0.72170001	0.3858
12	5	4	-0.095541	-3.2298	-0.0151	0.63389999
13	5	6	0.213111	-3.8649001	-0.25119999	1.4784
14	5	4	-0.26659799	-3.6142001	1.103	-0.2502
15	5	6	0.18656901	-4.5152998	1.6651	-0.0425
16	5	4	-0.056797002	-2.8534	1.4220001	-1.3026
17	5	6	0.20121101	-3.1486001	2.2454	-1.9414999
18	5	4	-0.30493701	-1.6159	0.65369999	-1.5913
19	5	4	0.57577002	-0.7719	0.99769998	-2.7486
20	5	5	-0.599159	-1.082	1.9488	-3.5139999
21	5	4	0.043861002	-1.2696	-0.3642	-0.78310001
22	5	6	0.22972301	-0.36950001	-0.93480003	-0.98009998
23	1	1	-0.137523	-0.1962	-2.9026	4.8842001
24	1	2	0.022221999	-0.98479998	-3.3907001	5.9347
25	1	2	0.094233997	-0.1156	-4.1255999	6.9548998
26	1	7	-0.680116	-0.89399999	-4.5544	8.0387001
27	1	8	0.39283401	-1.3995	-5.3509002	7.7272
28	1	3	0.090640999	0.66820002	-3.4349999	7.3319001
29	1	3	0.090640999	0.3908	-4.9928999	6.4737
30	1	3	0.093953997	-1.4843	-2.5318	6.4317999
31	1	3	0.093953997	-1.7761	-4.0700998	5.5426998
32	2	4	0.57577002	0.1295	0.4346	-2.9533
33	2	5	-0.599159	0.036200002	-0.80150002	-3.1815
34	2	4	-0.30493701	1.4357001	1.1187	-2.9611001
35	2	4	-0.056797002	2.5769999	0.45230001	-3.211
36	2	6	0.20121101	2.5709	-0.61129999	-3.4157
37	2	4	-0.266599	3.8685999	1.165	-3.2114
38	2	6	0.18656901	4.7817001	0.62040001	-3.4142001
39	2	4	-0.091374002	3.9133999	2.4790001	-2.9630001
40	2	6	0.213111	4.8709998	2.9847	-2.9674001
41	2	4	-0.233629	2.6661999	3.2334001	-2.6849
42	2	4	0.82774502	2.7307999	4.6863999	-2.4115
43	2	5	-0.54148	1.6818	5.3436999	-2.1729
44	2	7	-0.67697299	3.9598999	5.3414001	-2.4161
45	2	8	0.40073401	4.0205002	6.335	-2.2312
46	2	4	0.046847999	1.4886	2.5755999	-2.6856
47	2	6	0.22972301	0.56389999	3.1041	-2.4858
48	4	1	-0.14322101	3.4909	4.2266998	20.433399
49	4	2	0.050310999	3.6056001	3.0737	19.645201
50	4	2	0.155461	2.2337	2.4319999	19.440599
51	4	1	-0.50474697	2.3392	1.3182	18.596901
52	4	3	0.085822999	1.5506999	3.1700001	18.970501
53	4	3	0.085822999	1.7983	2.1349001	20.422501
54	4	3	0.093269996	4.027	3.3597	18.6579
55	4	3	0.093269996	4.3042998	2.3471	20.1203
56	5	4	0.79009402	2.7435	0.551	19.166901
57	5	5	-0.56516898	3.7628	0.78479999	19.869801
58	5	4	-0.239728	2.1192	-0.78500003	19.142799
59	5	4	-0.095541	2.6129	-1.8058	19.868401
60	5	6	0.213111	3.4872	-1.6762	20.4939
61	5	4	-0.26659799	1.9658999	-3.1319001	19.8223
62	5	6	0.18656901	2.3701999	-3.9463	20.409201
63	5	4	-0.056797002	0.8847	-3.3280001	19.0602
64	5	6	0.20121101	0.42089999	-4.3066001	19.0375
65	5	4	-0.30493701	0.32620001	-2.2133999	18.253401
66	5	4	0.57577002	-0.8642	-2.4201	17.410801
67	5	5	-0.599159	-1.4313	-3.5436001	17.358801
68	5	4	0.043861002	0.91900003	-1.0069	18.298599
69	5	6	0.22972301	0.52380002	-0.1831	17.715599
70	1	1	-0.137523	3.3714001	3.9191	21.370199
71	1	2	0.022221999	4.5725999	4.1929998	22.037901
72	1	2	0.094233997	4.6740999	5.684	22.3591
73	1	7	-0.680116	5.8431001	5.9468002	23.0865
74	1	8	0.39283401	6.5935998	5.9204001	22.436199
75	1	3	0.090640999	3.7988999	5.9858999	22.9725
76	1	3	0.090640999	4.6595998	6.2810001	21.419201
77	1	3	0.093953997	4.5918999	3.6131001	22.9853
78	1	3	0.093953997	5.4422002	3.8724	21.4195
79	2	4	0.57577002	-1.2672	-1.6035	16.825701
80	2	5	-0.599159	-0.53869998	-1.0655	15.949
81	2	4	-0.30493701	-2.6472001	-1.1418	17.0637
82	2	4	-0.056797002	-3.1819999	-0.1303	16.3568
83	2	6	0.20121101	-2.6131001	0.37740001	15.5877
84	2	4	-0.266599	-4.5657001	0.30899999	16.618799
85	2	6	0.18656901	-4.9878001	1.1235	16.0445
86	2	4	-0.091374002	-5.2979002	-0.2958	17.561399
87	2	6	0.213111	-6.3116002	0.040899999	17.7393
88	2	4	-0.233629	-4.7273002	-1.4139	18.3528
89	2	4	0.82774502	-5.5485001	-2.0734999	19.392401
90	2	5	-0.54148	-5.0805998	-3.0246999	20.0748
91	2	7	-0.67697299	-6.8529	-1.6442	19.625099
92	2	8	0.40073401	-7.4273	-2.0854001	20.3325
93	2	4	0.046847999	-3.4612999	-1.8103	18.108601
94	2	6	0.22972301	-3.0221	-2.6247001	18.6726
95	4	1	-0.14322101	1.8934	-4.1852999	41.3255
96	4	2	0.050310999	1.9644001	-2.7862999	41.362301
97	4	2	0.155461	1.0479	-2.1800001	40.300098
98	4	1	-0.50474697	1.0675	-0.78130001	40.382401
99	4	3	0.085822999	0.0086000003	-2.5311	40.4697
100	4	3	0.085822999	1.3638	-2.5132999	39.284698
101	4	3	0.093269996	1.6389	-2.4410999	42.366901
102	4	3	0.093269996	3.0142	-2.4468999	41.205101
103	5	4	0.79009402	1.9615	-0.4711	39.956501
104	5	5	-0.56516898	3.0316	-1.0397	40.301701
105	5	4	-0.239728	1.9586999	0.61860001	38.9627
106	5	4	-0.095541	3.0969999	1.049	38.386902
107	5	6	0.213111	4.0528002	0.60640001	38.637501
108	5	4	-0.26659799	3.0615001	2.1428001	37.396099
109	5	6	0.18656901	3.9818001	2.4818001	36.938702
110	5	4	-0.056797002	1.8985	2.7128	37.063202
111	5	6	0.20121101	1.8889	3.5137999	36.334099
112	5	4	-0.30493701	0.63309997	2.2507	37.688
113	5	4	0.57577002	-0.65249997	2.8729999	37.327599
114	5	5	-0.599159	-0.704	3.8066001	36.483601
115	5	4	0.043861002	0.67030001	1.2539001	38.590199
116	5	6	0.22972301	-0.24439999	0.90509999	39.055302
117	1	1	-0.137523	2.4268999	-4.4756999	40.5396
118	1	2	0.022221999	3.6006999	-5.052	41.043499
119	1	2	0.094233997	3.3155	-6.4531002	41.583698
120	1	7	-0.680116	4.5015001	-7.0555	42.0252
121	1	8	0.39283401	4.7217999	-6.6402001	42.900299
122	1	3	0.090640999	2.8814001	-7.0759001	40.772999
123	1	3	0.090640999	2.5746	-6.4011002	42.413502
124	1	3	0.093953997	4.3431001	-5.1222	40.220001
125	1	3	0.093953997	4.0345001	-4.4113002	41.8451
126	2	4	0.57577002	-1.5717	2.5311999	37.785801
127	2	5	-0.599159	-1.6955	2.6145999	39.037399
128	2	4	-0.30493701	-2.6500001	1.9802999	36.944302
129	2	4	-0.056797002	-3.8055999	1.5457	37.4776
130	2	6	0.20121101	-3.9802001	1.5879	38.545601
131	2	4	-0.266599	-4.8656001	0.9993	36.609001
132	2	6	0.18656901	-5.7923999	0.65249997	37.047199
133	2	4	-0.091374002	-4.6842999	0.9325	35.285
134	2	6	0.213111	-5.4738002	0.52810001	34.663898
135	2	4	-0.233629	-3.4168999	1.4066	34.6759
136	2	4	0.82774502	-3.23	1.3264	33.210098
137	2	5	-0.54148	-2.1600001	1.7241	32.6749
138	2	7	-0.67697299	-4.2424002	0.80720001	32.406799
139	2	8	0.40073401	-4.1297998	0.74599999	31.402599
140	2	4	0.046847999	-2.4516001	1.9046	35.4758
141	2	6	0.22972301	-1.5174	2.2577	35.055199
142	4	1	-0.14322101	-0.67019999	5.5928998	56.414101
143	4	2	0.050310999	0.4091	4.7544999	56.723999
144	4	2	0.155461	0.0243	3.2915001	56.506599
145	4	1	-0.50474697	1.124	2.4583001	56.751202
146	4	3	0.085822999	-0.30070001	3.1508	55.454498
147	4	3	0.085822999	-0.82690001	3.0153999	57.170898
148	4	3	0.093269996	1.2605	5.0118999	56.0583
149	4	3	0.093269996	0.7349	4.9151001	57.7775
150	5	4	0.79009402	1.229	2.3998001	57.782001
151	5	5	-0.56516898	1.205	3.4621	58.459099
152	5	4	-0.239728	1.4005001	1.0841	58.425999
153	5	4	-0.095541	1.539	0.96619999	59.759899
154	5	6	0.213111	1.529	1.8374	60.402699
155	5	4	-0.26659799	1.7101001	-0.36500001	60.374699
156	5	6	0.18656901	1.8206	-0.44960001	61.447899
157	5	4	-0.056797002	1.7277	-1.4626	59.611099
158	5	6	0.20121101	1.8535	-2.4323001	60.077202
159	5	4	-0.30493701	1.5761	-1.3515	58.1381
160	5	4	0.57577002	1.5947	-2.5551	57.289001
161	5	5	-0.599159	1.7383	-3.6998	57.794399
162	5	4	0.043861002	1.4205	-0.1366	57.582298
163	5	6	0.22972301	1.3087	-0.038400002	56.508801
164	1	1	-0.137523	-1.3051	5.5307999	57.175301
165	1	2	0.022221999	-1.2154	6.7437	57.871498
166	1	2	0.094233997	-1.9596	7.8456001	57.1175
167	1	7	-0.680116	-1.9275	9.0418997	57.847099
168	1	8	0.39283401	-1.0167	9.4209995	57.730301
169	1	3	0.090640999	-3.0190001	7.5423002	56.979301
170	1	3	0.090640999	-1.5085	7.9934001	56.1101
171	1	3	0.093953997	-1.6758	6.6121001	58.873901
172	1	3	0.093953997	-0.1485	7.0297999	58.0168
173	2	4	0.57577002	1.4827	-2.4677	56.2159
174	2	5	-0.599159	2.3317001	-1.7981	55.568001
175	2	4	-0.30493701	0.3502	-3.1277001	55.540501
176	2	4	-0.056797002	0.17829999	-3.0413001	54.2094
177	2	6	0.20121101	0.86970001	-2.4826	53.590599
178	2	4	-0.266599	-0.96520001	-3.7126	53.562901
179	2	6	0.18656901	-1.0951	-3.638	52.491001
180	2	4	-0.091374002	-1.839	-4.4117999	54.296398
181	2	6	0.213111	-2.6722	-4.8975	53.803902
182	2	4	-0.233629	-1.6679	-4.52	55.766499
183	2	4	0.82774502	-2.6421001	-5.2964001	56.5653
184	2	5	-0.54148	-2.5132	-5.3990998	57.8153
185	2	7	-0.67697299	-3.7155001	-5.9229002	55.9366
186	2	8	0.40073401	-4.3902001	-6.4577999	56.4692
187	2	4	0.046847999	-0.62040001	-3.9033	56.351398
188	2	6	0.22972301	-0.4734	-3.9677	57.4231
189	4	1	-0.14322101	4.4175	-2.6656001	78.359901
190	4	2	0.050310999	4.0502	-1.3242	78.188698
191	4	2	0.155461	2.6101999	-1.2280999	77.685699
192	4	1	-0.50474697	2.2211001	0.1139	77.579597
193	4	3	0.085822999	1.9361	-1.7374001	78.405701
194	4	3	0.085822999	2.5127001	-1.7393	76.700203
195	4	3	0.093269996	4.131	-0.80669999	79.168503
196	4	3	0.093269996	4.7424002	-0.82050002	77.475197
197	5	4	0.79009402	2.6701	0.48649999	76.721397
198	5	5	-0.56516898	3.8970001	0.2714	76.531898
199	5	4	-0.239728	1.867	1.2516	75.749298
200	5	4	-0.095541	2.4119999	1.7506	74.624001
201	5	6	0.213111	3.4607999	1.6048	74.397903
202	5	4	-0.26659799	1.5819	2.5132999	73.670898
203	5	6	0.18656901	2.0290999	2.9103999	72.768898
204	5	4	-0.056797002	0.28299999	2.7130001	73.918297
205	5	6	0.20121101	-0.31290001	3.2742	73.2089
206	5	4	-0.30493701	-0.33500001	2.1696999	75.154404
207	5	4	0.57577002	-1.7649	2.3850999	75.435501
208	5	5	-0.599159	-2.4902	3.0320001	74.6343
209	5	4	0.043861002	0.42519999	1.4755	76.019997
210	5	6	0.22972301	-0.0107	1.0724	76.926697
211	1	1	-0.137523	4.5924001	-3.0297	77.452499
212	1	2	0.022221999	5.9805999	-3.1882999	77.345398
213	1	2	0.094233997	6.4352002	-4.4268999	78.117104
214	1	7	-0.680116	7.8133001	-4.6237998	77.953796
215	1	8	0.39283401	8.2658005	-3.9568999	78.534698
216	1	3	0.090640999	5.9004002	-5.3179998	77.725502
217	1	3	0.090640999	6.1838002	-4.3202	79.196701
218	1	3	0.093953997	6.2419	-3.3102	76.272499
219	1	3	0.093953997	6.5053	-2.2827001	77.727303
220	2	4	0.57577002	-2.2098999	1.9858	76.337799
221	2	5	-0.599159	-1.7654999	2.3648	77.454697
222	2	4	-0.30493701	-3.3164999	1.0159	76.242599
223	2	4	-0.056797002	-3.8941	0.4982	77.3414
224	2	6	0.20121101	-3.5629001	0.77960002	78.333397
225	2	4	-0.266599	-4.9993	-0.47060001	77.213303
226	2	6	0.18656901	-5.4583001	-0.88150001	78.103203
227	2	4	-0.091374002	-5.4344001	-0.84060001	76.003304
228	2	6	0.213111	-6.2466002	-1.553	75.929497
229	2	4	-0.233629	-4.8112998	-0.2814	74.778099
230	2	4	0.82774502	-5.3025999	-0.69989997	73.446297
231	2	5	-0.54148	-4.7852998	-0.2358	72.394402
232	2	7	-0.67697299	-6.3470001	-1.6159	73.346001
233	2	8	0.40073401	-6.6943998	-1.9118	72.442299
234	2	4	0.046847999	-3.8009	0.60350001	74.902199
235	2	6	0.22972301	-3.3297	1.0264	74.022797
236	4	1	-0.14322101	-5.1027999	20.2012	-2.1501
237	4	2	0.050310999	-4.5461998	19.1057	-1.4763
238	4	2	0.155461	-3.1654	19.465099	-0.92860001
239	4	1	-0.50474697	-2.6385	18.3922	-0.1972
240	4	3	0.085822999	-3.2557001	20.343201	-0.25560001
241	4	3	0.085822999	-2.4802001	19.7388	-1.7638
242	4	3	0.093269996	-5.2147999	18.8316	-0.63249999
243	4	3	0.093269996	-4.474	18.226999	-2.1579001
244	5	4	0.79009402	-2.3111	17.6926	-0.89020002
245	5	5	-0.56516898	-3.0762999	17.366699	-1.8367
246	5	4	-0.239728	-0.96679997	17.1015	-0.75340003
247	5	4	-0.095541	-0.50520003	16.191799	-1.6318001
248	5	6	0.213111	-1.1098	15.8649	-2.4684
249	5	4	-0.26659799	0.8448	15.6177	-1.4671
250	5	6	0.18656901	1.207	14.8869	-2.1784
251	5	4	-0.056797002	1.6187	15.998	-0.44499999
252	5	6	0.20121101	2.6071	15.5681	-0.33809999
253	5	4	-0.30493701	1.126	17.0007	0.5334
254	5	4	0.57577002	1.9713	17.4254	1.6626
255	5	5	-0.599159	3.1264	16.9484	1.8197
256	5	4	0.043861002	-0.1047	17.521	0.37940001
257	5	6	0.22972301	-0.479	18.2537	1.0848
258	1	1	-0.137523	-4.645	20.2554	-3.0297999
259	1	2	0.022221999	-5.5739999	19.8351	-3.9911001
260	1	2	0.094233997	-6.5955	20.939501	-4.2616
261	1	7	-0.680116	-7.4833999	20.544701	-5.2716999
262	1	8	0.39283401	-8.1183996	19.9034	-4.8564
263	1	3	0.090640999	-6.0634999	21.8556	-4.5946999
264	1	3	0.090640999	-7.1528001	21.183701	-3.3289001
265	1	3	0.093953997	-5.0303998	19.6021	-4.9315
266	1	3	0.093953997	-6.0903001	18.9077	-3.6524999
267	2	4	0.57577002	1.607	18.157301	2.3719001
268	2	5	-0.599159	0.56760001	17.896799	3.0355999
269	2	4	-0.30493701	2.3276	19.431999	2.5458
270	2	4	-0.056797002	1.905	20.3654	3.4172001
271	2	6	0.20121101	1.0194	20.208	4.0205002
272	2	4	-0.266599	2.6475	21.6311	3.5681
273	2	6	0.18656901	2.3002	22.375999	4.2722998
274	2	4	-0.091374002	3.7460999	21.8591	2.8392
275	2	6	0.213111	4.2775998	22.794399	2.9639001
276	2	4	-0.233629	4.2297001	20.8428	1.8721
277	2	4	0.82774502	5.4461999	21.108601	1.0723
278	2	5	-0.54148	5.8717999	20.257099	0.2456
279	2	7	-0.67697299	6.1334	22.3099	1.229
280	2	8	0.40073401	6.9671998	22.506399	0.68940002
281	2	4	0.046847999	3.5459001	19.687799	1.7386
282	2	6	0.22972301	3.8789999	18.929701	1.0395
283	4	1	-0.14322101	-0.59759998	20.868799	24.321301
284	4	2	0.050310999	-1.0287	19.7369	23.616501
285	4	2	0.155461	-0.34709999	19.6709	22.2502
286	4	1	-0.50474697	-0.72649997	18.503901	21.5737
287	4	3	0.085822999	0.75400001	19.6579	22.390499
288	4	3	0.085822999	-0.60780001	20.5711	21.646999
289	4	3	0.093269996	-0.7622	18.831499	24.2026
290	4	3	0.093269996	-2.1362	19.754499	23.494499
291	5	4	0.79009402	-1.6876	18.666201	21.2174
292	5	5	-0.56516898	-2.5573001	19.1348	21.999399
293	5	4	-0.239728	-2.0102999	18.3487	19.8137
294	5	4	-0.095541	-3.2446001	18.5457	19.313499
295	5	6	0.213111	-4.0409002	18.944401	19.929399
296	5	4	-0.26659799	-3.5367	18.216999	17.9042
297	5	6	0.18656901	-4.5318999	18.378901	17.511299
298	5	4	-0.056797002	-2.5773001	17.722401	17.114901
299	5	6	0.20121101	-2.8071001	17.486799	16.083
300	5	4	-0.30493701	-1.2101001	17.498899	17.6497
301	5	4	0.57577002	-0.147	16.9541	16.7876
302	5	5	-0.599159	-0.37580001	16.6686	15.5824
303	5	4	0.043861002	-0.94849998	17.799801	18.934299
304	5	6	0.22972301	0.044100001	17.6425	19.3398
305	1	1	-0.137523	-1.0698	21.646999	23.924
306	1	2	0.022221999	-2.0308001	22.052601	24.8598
307	1	2	0.094233997	-1.3683	22.8202	26.003599
308	1	7	-0.680116	-2.3369999	23.2843	26.903999
309	1	8	0.39283401	-2.6208	22.500299	27.444099
310	1	3	0.090640999	-0.82169998	23.6936	25.589001
311	1	3	0.090640999	-0.6322	22.169001	26.527201
312	1	3	0.093953997	-2.7632999	22.7152	24.351299
313	1	3	0.093953997	-2.5822999	21.169901	25.2572
314	2	4	0.57577002	0.84780002	16.7943	17.182899
315	2	5	-0.599159	0.99830002	15.9991	18.1493
316	2	4	-0.30493701	1.9960001	17.5033	16.588301
317	2	4	-0.056797002	3.2463	17.330299	17.0527
318	2	6	0.20121101	3.4487	16.6618	17.8804
319	2	4	-0.266599	4.3744001	18.054399	16.436701
320	2	6	0.18656901	5.3771	17.9084	16.8167
321	2	4	-0.091374002	4.1610999	18.8881	15.412
322	2	6	0.213111	5.0018001	19.410801	14.9731
323	2	4	-0.233629	2.7895999	19.093399	14.8842
324	2	4	0.82774502	2.5683999	20.0187	13.7506
325	2	5	-0.54148	1.4102	20.2059	13.289
326	2	7	-0.67697299	3.6464	20.693399	13.1825
327	2	8	0.40073401	3.5114	21.329399	12.4065
328	2	4	0.046847999	1.7625	18.4286	15.4523
329	2	6	0.22972301	0.75169998	18.561199	15.0847
330	4	1	-0.14322101	-2.0674	19.0438	43.2845
331	4	2	0.050310999	-1.2352999	19.893101	42.5429
332	4	2	0.155461	-1.2214	19.4725	41.073601
333	4	1	-0.50474697	-0.4436	20.362301	40.320801
334	4	3	0.085822999	-2.2588	19.4863	40.679001
335	4	3	0.085822999	-0.82800001	18.434401	40.974998
336	4	3	0.093269996	-1.6255	20.930201	42.623001
337	4	3	0.093269996	-0.2009	19.8815	42.957199
338	5	4	0.79009402	0.54839998	20.130301	40.518398
339	5	5	-0.56516898	0.91430002	19.9848	41.715302
340	5	4	-0.239728	1.4995	19.9753	39.401901
341	5	4	-0.095541	2.7939	19.673901	39.616699
342	5	6	0.213111	3.1773	19.5361	40.6199
343	5	4	-0.26659799	3.7217	19.5264	38.478001
344	5	6	0.18656901	4.7603998	19.284	38.660801
345	5	4	-0.056797002	3.2825999	19.690201	37.225498
346	5	6	0.20121101	3.9756	19.5781	36.4006
347	5	4	-0.30493701	1.8581001	20.022699	36.969898
348	5	4	0.57577002	1.3656	20.205299	35.593601
349	5	5	-0.599159	2.141	20.0825	34.6087
350	5	4	0.043861002	1.0164	20.156099	38.010502
351	5	6	0.22972301	-0.0262	20.3986	37.840698
352	1	1	-0.137523	-1.564	18.197701	43.416
353	1	2	0.022221999	-1.1783	18.166599	44.762798
354	1	2	0.094233997	-2.3683	17.797001	45.648102
355	1	7	-0.680116	-1.9669	17.699301	46.987499
356	1	8	0.39283401	-1.8631999	18.6294	47.320999
357	1	3	0.090640999	-2.7718999	16.813801	45.325901
358	1	3	0.090640999	-3.1772001	18.5546	45.539799
359	1	3	0.093953997	-0.38069999	17.4032	44.8857
360	1	3	0.093953997	-0.76169997	19.153099	45.070099
361	2	4	0.57577002	0.32600001	20.4466	35.413601
362	2	5	-0.599159	-0.1444	21.5112	35.897499
363	2	4	-0.30493701	-0.51090002	19.5336	34.6133
364	2	4	-0.056797002	-1.8063999	19.799801	34.368698
365	2	6	0.20121101	-2.2758999	20.6968	34.7533
366	2	4	-0.266599	-2.6177001	18.866301	33.564701
367	2	6	0.18656901	-3.6592	19.089199	33.372601
368	2	4	-0.091374002	-2.0703001	17.7486	33.073299
369	2	6	0.213111	-2.6819	17.0755	32.4855
370	2	4	-0.233629	-0.64279997	17.435699	33.3311
371	2	4	0.82774502	-0.0506	16.195801	32.7817
372	2	5	-0.54148	1.1603	15.9133	32.990501
373	2	7	-0.67697299	-0.833	15.3268	32.025002
374	2	8	0.40073401	-0.44240001	14.4748	31.642099
375	2	4	0.046847999	0.0933	18.293301	34.067501
376	2	6	0.22972301	1.138	18.087601	34.269299
377	4	1	-0.14322101	-0.72759998	13.7055	55.151299
378	4	2	0.050310999	0.38370001	14.5242	55.3936
379	4	2	0.155461	-0.043400001	15.7958	56.125999
380	4	1	-0.50474697	1.0765001	16.5819	56.428101
381	4	3	0.085822999	-0.54960001	15.5196	57.074501
382	4	3	0.085822999	-0.76609999	16.3729	55.504002
383	4	3	0.093269996	1.1062	13.9635	56.024399
384	4	3	0.093269996	0.89109999	14.7827	54.435699
385	5	4	0.79009402	1.3611	17.0457	55.544399
386	5	5	-0.56516898	1.464	16.352699	54.497101
387	5	4	-0.239728	1.6345	18.495001	55.534302
388	5	4	-0.095541	2.0050001	19.133499	54.408501
389	5	6	0.213111	2.1143	18.599899	53.472801
390	5	4	-0.26659799	2.2727001	20.5851	54.431
391	5	6	0.18656901	2.5699999	21.0895	53.520901
392	5	4	-0.056797002	2.148	21.2757	55.569302
393	5	6	0.20121101	2.3473001	22.340401	55.569401
394	5	4	-0.30493701	1.74	20.5879	56.820499
395	5	4	0.57577002	1.6005	21.3405	58.079201
396	5	5	-0.599159	1.8231	22.5795	58.118698
397	5	4	0.043861002	1.4972	19.2652	56.7953
398	5	6	0.22972301	1.1986001	18.7484	57.699902
399	1	1	-0.137523	-1.2189	14.1124	54.389999
400	1	2	0.022221999	-0.99970001	13.2823	53.282501
401	1	2	0.094233997	-1.8575	12.0213	53.3853
402	1	7	-0.680116	-1.6892999	11.2237	52.245098
403	1	8	0.39283401	-0.8107	10.7704	52.3433
404	1	3	0.090640999	-2.9267001	12.312	53.460602
405	1	3	0.090640999	-1.59	11.4487	54.3022
406	1	3	0.093953997	-1.2771	13.8387	52.3619
407	1	3	0.093953997	0.078100003	13.0096	53.209099
408	2	4	0.57577002	1.3018	20.8337	58.987701
409	2	5	-0.599159	2.0278001	19.904499	59.433201
410	2	4	-0.30493701	0.063500002	21.237	59.679401
411	2	4	-0.056797002	-0.33970001	20.6306	60.8102
412	2	6	0.20121101	0.2357	19.8248	61.2491
413	2	4	-0.266599	-1.5838	21.0567	61.478699
414	2	6	0.18656901	-1.8999	20.5632	62.3885
415	2	4	-0.091374002	-2.3192999	22.0492	60.9646
416	2	6	0.213111	-3.2296	22.347799	61.469501
417	2	4	-0.233629	-1.8926001	22.7318	59.717899
418	2	4	0.82774502	-2.7161	23.827801	59.1605
419	2	5	-0.54148	-2.3696001	24.419001	58.1022
420	2	7	-0.67697299	-3.8877001	24.215599	59.806198
421	2	8	0.40073401	-4.4615998	24.963699	59.4375
422	2	4	0.046847999	-0.7543	22.336901	59.111401
423	2	6	0.22972301	-0.42120001	22.819901	58.200298
424	4	1	-0.14322101	-1.6155	18.7041	70.599403
425	4	2	0.050310999	-0.78729999	17.9352	71.428101
426	4	2	0.155461	-0.926	18.3853	72.882103
427	4	1	-0.50474697	-0.1498	17.5721	73.718597
428	4	3	0.085822999	-1.9887	18.3011	73.191597
429	4	3	0.085822999	-0.61970001	19.4519	72.984802
430	4	3	0.093269996	-1.0921	16.8701	71.343903
431	4	3	0.093269996	0.27410001	18.0166	71.098701
432	5	4	0.79009402	0.83539999	17.874399	73.595901
433	5	5	-0.56516898	1.2874	18.023001	72.429199
434	5	4	-0.239728	1.6769	18.123301	74.781303
435	5	4	-0.095541	2.9588001	18.5172	74.6642
436	5	6	0.213111	3.4126999	18.663401	73.692001
437	5	4	-0.26659799	3.7758999	18.757299	75.870102
438	5	6	0.18656901	4.8055	19.073799	75.765701
439	5	4	-0.056797002	3.2479999	18.5861	77.0867
440	5	6	0.20121101	3.8601	18.766899	77.9618
441	5	4	-0.30493701	1.8355	18.152201	77.234802
442	5	4	0.57577002	1.2457	17.960699	78.570999
443	5	5	-0.599159	1.9258	18.1616	79.6119
444	5	4	0.043861002	1.095	17.934601	76.133301
445	5	6	0.22972301	0.062600002	17.6175	76.224403
446	1	1	-0.137523	-1.1667	19.582899	70.4869
447	1	2	0.022221999	-0.6742	19.615999	69.1754
448	1	2	0.094233997	-1.8108	19.8766	68.187202
449	1	7	-0.680116	-1.3083	19.977301	66.882599
450	1	8	0.39283401	-1.1091	19.051201	66.583298
451	1	3	0.090640999	-2.3110001	20.8328	68.449699
452	1	3	0.090640999	-2.5678999	19.062401	68.249496
453	1	3	0.093953997	0.072499998	20.434799	69.097504
454	1	3	0.093953997	-0.162	18.6577	68.928902
455	2	4	0.57577002	0.21529999	17.645201	78.672501
456	2	5	-0.599159	-0.1337	16.538601	78.180298
457	2	4	-0.30493701	-0.74989998	18.508301	79.378098
458	2	4	-0.056797002	-2.0380001	18.15	79.523804
459	2	6	0.20121101	-2.4068	17.2125	79.126198
460	2	4	-0.266599	-2.9796	19.035601	80.234703
461	2	6	0.18656901	-4.0142002	18.7386	80.347504
462	2	4	-0.091374002	-2.5585001	20.2012	80.739197
463	2	6	0.213111	-3.2646	20.8379	81.257599
464	2	4	-0.233629	-1.1415	20.6157	80.589798
465	2	4	0.82774502	-0.68980002	21.9077	81.152496
466	2	5	-0.54148	0.51010001	22.2766	81.035103
467	2	7	-0.67697299	-1.594	22.7302	81.820198
468	2	8	0.40073401	-1.3002	23.6168	82.210899
469	2	4	0.046847999	-0.2859	19.8015	79.938202
470	2	6	0.22972301	0.75389999	20.081499	79.816299
471	4	1	-0.14322101	-0.045400001	39.686798	5.4109998
472	4	2	0.050310999	0.6965	38.756599	4.6707001
473	4	2	0.155461	0.41280001	38.918701	3.1777
474	4	1	-0.50474697	1.2054	38.034698	2.4337001
475	4	3	0.085822999	0.65460002	39.9575	2.8698001
476	4	3	0.085822999	-0.66750002	38.739498	2.9704001
477	4	3	0.093269996	1.7769001	38.934101	4.8593998
478	4	3	0.093269996	0.45559999	37.7192	4.9987001
479	5	4	0.79009402	0.77609998	37.0951	2.5330999
480	5	5	-0.56516898	0.45930001	36.6875	3.6824999
481	5	4	-0.239728	0.54640001	36.265598	1.3354
482	5	4	-0.095541	-0.0087000001	35.042301	1.4225
483	5	6	0.213111	-0.30410001	34.628601	2.3785
484	5	4	-0.26659799	-0.2247	34.2356	0.2051
485	5	6	0.18656901	-0.6717	33.2533	0.28529999
486	5	4	-0.056797002	0.1285	34.714901	-0.99229997
487	5	6	0.20121101	-0.037	34.111198	-1.8762
488	5	4	-0.30493701	0.74190003	36.0625	-1.1072
489	5	4	0.57577002	1.1345	36.598499	-2.4219
490	5	5	-0.599159	0.95730001	35.926399	-3.4723001
491	5	4	0.043861002	0.9368	36.7938	0.0046999999
492	5	6	0.22972301	1.3832999	37.779099	-0.062199999
493	1	1	-0.137523	-0.97869998	39.348099	5.4380002
494	1	2	0.022221999	-1.2006	38.8894	6.7434001
495	1	2	0.094233997	-1.4191999	40.068501	7.6911998
496	1	7	-0.680116	-1.7084	39.6078	8.9828997
497	1	8	0.39283401	-0.84729999	39.305901	9.3757
498	1	3	0.090640999	-2.2774	40.673599	7.3295999
499	1	3	0.090640999	-0.51749998	40.722	7.7052002
500	1	3	0.093953997	-2.1070001	38.2472	6.7442999
501	1	3	0.093953997	-0.34009999	38.2719	7.0893002
502	2	4	0.57577002	1.5802	37.581799	-2.4993
503	2	5	-0.599159	2.6666	37.8064	-1.9009
504	2	4	-0.30493701	0.9138	38.628502	-3.296
505	2	4	-0.056797002	1.4373	39.861599	-3.4151001
506	2	6	0.20121101	2.3683	40.1241	-2.928
507	2	4	-0.266599	0.7464	40.887501	-4.2192001
508	2	6	0.18656901	1.1755	41.8769	-4.3098001
509	2	4	-0.091374002	-0.40560001	40.598099	-4.8351998
510	2	6	0.213111	-0.89819998	41.364399	-5.4208002
511	2	4	-0.233629	-1.0005	39.243698	-4.717
512	2	4	0.82774502	-2.2753999	38.937698	-5.4035001
513	2	5	-0.54148	-2.7958	37.7929	-5.3143001
514	2	7	-0.67697299	-2.9126999	39.9198	-6.1578999
515	2	8	0.40073401	-3.7851	39.725899	-6.6336002
516	2	4	0.046847999	-0.36390001	38.310501	-3.9798999
517	2	6	0.22972301	-0.77770001	37.314098	-3.8785
518	4	1	-0.14322101	-4.9583998	40.075699	20.8053
519	4	2	0.050310999	-4.2631001	38.8731	20.99
520	4	2	0.155461	-2.8433001	38.990398	20.436501
521	4	1	-0.50474697	-2.1271999	37.811298	20.6821
522	4	3	0.085822999	-2.3231001	39.832802	20.938299
523	4	3	0.085822999	-2.8738	39.205101	19.3433
524	4	3	0.093269996	-4.2147999	38.654999	22.0783
525	4	3	0.093269996	-4.8021998	38.033298	20.494101
526	5	4	0.79009402	-2.4635	37.1106	19.9944
527	5	5	-0.56516898	-3.7040999	36.956799	19.836901
528	5	4	-0.239728	-1.4887	36.318298	19.2215
529	5	4	-0.095541	-1.8848	35.4006	18.3197
530	5	6	0.213111	-2.9354	35.2155	18.134199
531	5	4	-0.26659799	-0.88459998	34.622601	17.5623
532	5	6	0.18656901	-1.2128	33.8871	16.8395
533	5	4	-0.056797002	0.4215	34.824699	17.766199
534	5	6	0.20121101	1.143	34.246399	17.202299
535	5	4	-0.30493701	0.87650001	35.833099	18.7568
536	5	4	0.57577002	2.3132	36.062302	18.9883
537	5	5	-0.599159	3.1819999	35.409698	18.3514
538	5	4	0.043861002	-0.038400002	36.5396	19.4445
539	5	6	0.22972301	0.27739999	37.279202	20.171101
540	1	1	-0.137523	-5.2154999	40.110199	19.8466
541	1	2	0.022221999	-6.5981998	39.8885	19.794701
542	1	2	0.094233997	-7.3546	41.146801	20.2201
543	1	7	-0.680116	-8.7370005	40.946899	20.103001
544	1	8	0.39283401	-9.0087996	40.385502	20.8762
545	1	3	0.090640999	-7.0608001	41.990299	19.560101
546	1	3	0.090640999	-7.0893002	41.4188	21.2668
547	1	3	0.093953997	-6.8769999	39.6301	18.750799
548	1	3	0.093953997	-6.8786001	39.0313	20.448799
549	2	4	0.57577002	2.6387	36.7994	19.711
550	2	5	-0.599159	2.2995	36.6604	20.917
551	2	4	-0.30493701	3.4646001	37.940102	19.274
552	2	4	-0.056797002	3.8875999	38.875599	20.1429
553	2	6	0.20121101	3.6338	38.818699	21.1943
554	2	4	-0.266599	4.7125001	40.005402	19.674801
555	2	6	0.18656901	5.0486999	40.753101	20.381399
556	2	4	-0.091374002	5.0454001	40.107101	18.382799
557	2	6	0.213111	5.6515002	40.943802	18.0581
558	2	4	-0.233629	4.5893998	39.085999	17.4074
559	2	4	0.82774502	4.9649	39.2113	15.9814
560	2	5	-0.54148	4.5864	38.3536	15.1384
561	2	7	-0.67697299	5.7442002	40.2855	15.5588
562	2	8	0.40073401	6.0096002	40.384998	14.5869
563	2	4	0.046847999	3.8348999	38.055698	17.841999
564	2	6	0.22972301	3.49	37.296902	17.1495
565	4	1	-0.14322101	-0.4147	42.287701	41.7015
566	4	2	0.050310999	0.4111	41.1618	41.5821
567	4	2	0.155461	0.19850001	40.488899	40.226398
568	4	1	-0.50474697	1.0727	39.403702	40.080299
569	4	3	0.085822999	0.40369999	41.221401	39.417999
570	4	3	0.085822999	-0.85890001	40.151402	40.126701
571	4	3	0.093269996	1.4697	41.487999	41.667
572	4	3	0.093269996	0.2057	40.441002	42.406799
573	5	4	0.79009402	0.68660003	38.631401	40.656101
574	5	5	-0.56516898	0.33059999	38.872398	41.8405
575	5	4	-0.239728	0.56230003	37.280102	40.0784
576	5	4	-0.095541	0.065700002	36.252499	40.792198
577	5	6	0.213111	-0.25839999	36.3876	41.816502
578	5	4	-0.26659799	-0.045000002	34.910999	40.186001
579	5	6	0.18656901	-0.4456	34.091202	40.767799
580	5	4	-0.056797002	0.34630001	34.707802	38.9235
581	5	6	0.20121101	0.2581	33.717899	38.492699
582	5	4	-0.30493701	0.8962	35.8298	38.121101
583	5	4	0.57577002	1.3301001	35.6152	36.729801
584	5	5	-0.599159	1.2426	34.4786	36.194099
585	5	4	0.043861002	0.99529999	37.050201	38.6777
586	5	6	0.22972301	1.3945	37.879601	38.105499
587	1	1	-0.137523	-1.3299	41.9496	41.8876
588	1	2	0.022221999	-1.5969	42.236698	43.233002
589	1	2	0.094233997	-1.9242001	43.719799	43.405201
590	1	7	-0.680116	-2.2574999	43.993198	44.7388
591	1	8	0.39283401	-1.4042	44.0065	45.247398
592	1	3	0.090640999	-2.7915001	43.979599	42.7621
593	1	3	0.090640999	-1.0585999	44.343498	43.085999
594	1	3	0.093953997	-2.4686999	41.6301	43.5588
595	1	3	0.093953997	-0.72589999	41.958302	43.869499
596	2	4	0.57577002	1.7293	36.437199	36.1497
597	2	5	-0.599159	2.7699001	37.0205	36.556702