Title

9750 atoms
10125 bonds
16500 angles
26125 dihedrals
11250 impropers

12 atom types
17 bond types
10 angle types
29 dihedral types
3 improper types
-12.30480114 131.1977199 xlo xhi
-12.02673046 131.9570315 ylo yhi
-13.27295195 133.0258568 zlo zhi
0.0 0.0 0.0 xy xz yz

Masses

1	12.01078
2	15.99943
3	14.00672
4	1.007947
5	12.01078
6	1.007947
7	1.007947
8	15.99943
9	1.007947
10	12.01078
11	15.99943
12	1.007947


Pair Coeffs

1	0.086879315	3.4806469
2	0.2102061	3.0398122
3	0.16769152	3.206876
4	0.015611343	2.5725815
5	0.10884061	3.3795318
6	0.014090815	1.1034277
7	0.015779483	2.6445434
8	0.16846514	3.0251065
9	0.016409246	2.5832257
10	0.21	3.3996695
11	0.20947353	2.99716
12	1.2326e-05	0.53453923

Bond Coeffs

1 harmonic	582.698766451	1.225198386222
2 harmonic	492.76746816345	1.381897776683
3 harmonic	279.1350963404	1.454628925034
4 harmonic	390.03554688505	1.390160554689
5 harmonic	505.144496193	1.019481865027
6 harmonic	360.7852444772	1.387193227181
7 harmonic	397.2545789619	1.085358495916
8 harmonic	289.73813263395	1.498646816465
9 harmonic	370.04670688625	1.093899492634
10 harmonic	301.15400723785	1.345741232799
11 harmonic	366.7408841747	1.425895053732
12 harmonic	264.62148576755	1.52190126495
13 harmonic	300.03137914615	1.451203938761
14 harmonic	382.5450169811	1.379244394267
15 harmonic	602.81384337	1.196112346392
16 harmonic	329.96998057905	1.427343958716
17 harmonic	543.5267831885	0.9716763312559


Angle Coeffs

1 harmonic	55.42182150775	117.3465570514
2 harmonic	63.44422595415	115.5071327674
3 harmonic	57.8982893754	126.8062420451
4 harmonic	34.066775159195	129.1835929926
5 harmonic	53.20531626545	116.5475862634
6 harmonic	65.09061609600001	110.3538806181
7 harmonic	201.41175231035	127.4691416191
8 harmonic	48.776492647595	115.6030999533
9 harmonic	55.07882548015	112.8714009681
10 harmonic	33.56981613361	180


Dihedral Coeffs

1 fourier 1	1.193093382682	2	180
2 fourier 1	1.809047390003	2	180
3 fourier 1	-0.04816277792592	1	0
4 fourier 1	3.101948770557	2	180
5 fourier 1	-0.4252153282372	1	0
6 fourier 1	2.348375642009	2	180
7 fourier 1	1.256156174911	1	0
8 fourier 1	0.9974165607242	2	180
9 fourier 1	3.661930099076	2	180
10 fourier 1	0.02664938770063	3	0
11 fourier 1	2.779853741805	2	180
12 fourier 1	0.1918272375143	3	0
13 fourier 1	0.9202179876409	1	180
14 fourier 1	0.0473758381877	3	0
15 fourier 1	0.4860993122944	2	180
16 fourier 1	0.8916986138746	1	0
17 fourier 1	1.163809172478	2	180
18 fourier 1	0.1679186987369	1	180
19 fourier 1	-0.0309670556842	3	0
20 fourier 1	0.4598191477945	2	0
21 fourier 1	0.1115525666802	3	0
22 fourier 1	0.3432490222662	1	0
23 fourier 1	0.457973137376	1	0
24 fourier 1	0.1911926717192	3	0
25 fourier 1	1.550515418264	2	180
26 fourier 1	0	1	0
27 fourier 1	0.3445382149273	3	0
28 fourier 1	0.1364556373303	1	0
29 fourier 1	0.3026390167484	3	0


Improper Coeffs

1 0.3333333333333333	-1	2
2 0.3666666666666667	-1	2
3 3.5	-1	2


Atoms

1	3	1	0.57258821	-1.1782888	-0.62703936	-2.2143314
2	3	2	-0.60239172	-0.65251062	-1.7665411	-2.3230697
3	3	3	-0.50622451	-0.38275976	0.56394046	-2.2331363
4	3	1	0.20887398	1.0526781	0.57944744	-2.1533143
5	3	1	-0.37590628	1.7401784	1.5606752	-2.7606639
6	3	4	0.21982266	1.2216169	2.3238623	-3.327874
7	3	1	-0.13857199	3.215294	1.6064087	-2.6806353
8	3	4	0.21794935	3.7433798	2.4079043	-3.1821671
9	3	1	-0.24244844	3.8860366	0.6675071	-1.9921761
10	3	5	-0.049743666	5.3849417	0.7271796	-1.8697475
11	3	1	-0.24244849	5.7755992	1.5397392	-0.66561686
12	3	1	-0.13857197	5.960556	2.8670965	-0.76259945
13	3	4	0.21794934	5.856065	3.371122	-1.7159907
14	3	1	-0.36381688	6.3020769	3.6624861	0.43483946
15	3	4	0.21982268	6.4565468	4.729386	0.32995082
16	3	1	0.23266149	6.3978491	3.076545	1.6397219
17	3	3	-0.46864357	6.7407279	3.8696156	2.7898029
18	3	1	0.82208968	6.2873484	3.5950899	4.1207287
19	3	2	-0.54513466	5.3893515	2.7418088	4.343908
20	3	6	0.32700319	7.2920063	4.7455358	2.6473005
21	3	1	-0.36381688	6.2032077	1.6064902	1.7440265
22	3	4	0.21982265	6.330294	1.0998394	2.6917117
23	3	1	-0.13857199	5.9028482	0.88487288	0.65758938
24	3	4	0.21794934	5.7673523	-0.18592557	0.74792515
25	3	7	0.12761669	5.7928905	-0.301718	-1.7751511
26	3	7	0.12761669	5.8339055	1.1574948	-2.7929968
27	3	1	-0.13857196	3.1293419	-0.39191916	-1.2825126
28	3	4	0.21794934	3.6558896	-1.1281257	-0.68820513
29	3	1	-0.37590637	1.793341	-0.43319458	-1.3552443
30	3	4	0.21982268	1.2612398	-1.1922123	-0.79872624
31	3	6	0.32308481	-0.88629495	1.4669009	-2.3892799
32	4	8	-0.48644322	6.6796331	4.137035	4.9142791
33	4	5	0.1400714	7.6796536	4.9615928	4.3820737
34	4	5	0.0593404	8.9399618	4.1466721	4.0924521
35	4	8	-0.11393008	9.9631149	4.9824391	3.6247853
36	4	9	0.11150847	9.2826967	3.6571554	5.0288634
37	4	9	0.11150847	8.7189727	3.3489064	3.3471054
38	4	9	0.11229539	7.9188501	5.7535461	5.123856
39	4	9	0.11229539	7.3197309	5.4566932	3.451442
40	1	1	0.57258827	-2.2548907	-0.54734641	-2.145699
41	1	2	-0.60239177	-2.7671135	0.53473326	-1.7570805
42	1	3	-0.50622445	-3.0702759	-1.6571195	-2.5467658
43	1	1	0.20887399	-4.4970855	-1.7257779	-2.3737905
44	1	1	-0.37590634	-5.1048773	-1.2059053	-1.29057
45	1	4	0.21982266	-4.5357669	-0.72529501	-0.50710579
46	1	1	-0.13857199	-6.5686023	-1.3248317	-1.1265595
47	1	4	0.21794935	-7.033539	-0.90118248	-0.24497105
48	1	1	-0.24244844	-7.3070122	-1.957852	-2.0541275
49	1	5	-0.049743666	-8.7913206	-2.1216483	-1.8757984
50	1	1	-0.25669249	-9.0879234	-3.3796384	-1.105465
51	1	1	-0.18379928	-9.2395306	-4.5550803	-1.7398479
52	1	4	0.20421741	-9.1771217	-4.6118879	-2.8198669
53	1	1	-0.25477346	-9.4878784	-5.7920339	-0.97194817
54	1	4	0.21167075	-9.6148505	-6.7200195	-1.5153725
55	1	1	0.44295004	-9.5513615	-5.7564924	0.37630132
56	1	3	-0.33392867	-9.7889561	-6.9302573	1.1701538
57	1	10	0.61570621	-9.9620179	-8.097719	0.69091603
58	1	2	-0.28609478	-10.130527	-9.23261	0.22558622
59	1	1	-0.25477349	-9.367863	-4.4634055	1.0718037
60	1	4	0.21167076	-9.4091265	-4.4236437	2.152968
61	1	1	-0.18379932	-9.1467096	-3.3417698	0.3749266
62	1	4	0.20421744	-9.0092028	-2.4048552	0.89952828
63	1	7	0.12761669	-9.2157694	-1.2431967	-1.3405227
64	1	7	0.12761669	-9.290948	-2.1514454	-2.8694712
65	1	1	-0.13857196	-6.6344298	-2.5634778	-3.227938
66	1	4	0.21794934	-7.2133479	-3.0988571	-3.969663
67	1	1	-0.37590637	-5.3087398	-2.4559414	-3.3765345
68	1	4	0.21982268	-4.8283528	-2.9022638	-4.2373333
69	1	6	0.32308475	-2.6039007	-2.4176607	-3.0896114
70	2	8	-0.10841101	9.7463721	5.192566	2.6782589
71	2	5	0.029693452	8.5706562	5.9552692	2.6964997
72	2	5	0.10174174	7.3605771	5.0584453	2.9527505
73	2	11	-0.66909253	6.1793294	5.8099456	2.9037687
74	2	12	0.40909833	6.1268433	6.3146043	3.7578054
75	2	9	0.110938	7.3145897	4.2723333	2.1691338
76	2	9	0.110938	7.4587606	4.5542529	3.941528
77	2	9	0.11223194	8.4554229	6.452714	1.7099076
78	2	9	0.11223194	8.634884	6.7483652	3.4760532
79	3	1	0.57258821	1.4245193	2.1563251	27.340508
80	3	2	-0.60239172	2.51944	1.598505	27.617485
81	3	3	-0.50622451	0.33133508	2.1495134	28.26601
82	3	1	0.20887398	0.28718761	1.3500511	29.460165
83	3	1	-0.37590628	-0.3874536	1.7963351	30.532558
84	3	4	0.21982266	-0.87646166	2.7624863	30.509956
85	3	1	-0.13857199	-0.4595977	0.98609404	31.766562
86	3	4	0.21794935	-1.0086062	1.372224	32.616443
87	3	1	-0.24244844	0.14558164	-0.21203982	31.826905
88	3	5	-0.049743666	0.044375394	-1.0635728	33.063802
89	3	1	-0.24244849	-1.1662271	-1.9529073	32.984287
90	3	1	-0.13857197	-2.3558853	-1.5379402	33.4512
91	3	4	0.21794934	-2.4577155	-0.56465634	33.916242
92	3	1	-0.36381688	-3.5480864	-2.4022114	33.329409
93	3	4	0.21982268	-4.4940186	-2.0503482	33.722528
94	3	1	0.23266149	-3.4665835	-3.5968179	32.720711
95	3	3	-0.46864357	-4.6385571	-4.4250636	32.622223
96	3	1	0.82208968	-4.8932557	-5.3340613	31.544664
97	3	2	-0.54513466	-4.1902685	-5.3257476	30.500616
98	3	6	0.32700319	-5.3934348	-4.3107697	33.335348
99	3	1	-0.36381688	-2.1478411	-4.0592066	32.213817
100	3	4	0.21982265	-2.0413953	-5.0405013	31.770328
101	3	1	-0.13857199	-1.066189	-3.2799473	32.332463
102	3	4	0.21794934	-0.11108785	-3.6313649	31.961766
103	3	7	0.12761669	0.95937537	-1.6853397	33.164708
104	3	7	0.12761669	-0.00058326773	-0.42407068	33.973827
105	3	1	-0.13857196	0.85339542	-0.72912258	30.630988
106	3	4	0.21794934	1.3071239	-1.7120302	30.652829
107	3	1	-0.37590637	0.91869734	0.0049521827	29.513508
108	3	4	0.21982268	1.4074484	-0.40874636	28.642343
109	3	6	0.32308481	-0.44381309	2.8282114	28.08774
110	4	8	-0.48644322	-5.6969694	-5.9876819	31.608994
111	4	5	0.1400714	-6.2553613	-5.8134739	32.882191
112	4	5	0.0593404	-5.3910166	-6.5014189	33.938596
113	4	8	-0.11393008	-5.9844016	-6.3865786	35.20302
114	4	9	0.11150847	-5.2960018	-7.5795659	33.688534
115	4	9	0.11150847	-4.3691944	-6.0580118	33.947403
116	4	9	0.11229539	-7.270442	-6.2653625	32.889528
117	4	9	0.11229539	-6.3577515	-4.7292002	33.11588
118	1	1	0.57258827	1.3241597	2.6840661	26.401598
119	1	2	-0.60239177	0.17544432	2.9945928	25.991331
120	1	3	-0.50622445	2.5026089	3.0600023	25.67549
121	1	1	0.20887399	2.4993539	3.6375479	24.357594
122	1	1	-0.37590634	1.6049672	3.2639384	23.422964
123	1	4	0.21982266	0.86187396	2.5069355	23.631406
124	1	1	-0.13857199	1.6515774	3.8512197	22.067803
125	1	4	0.21794935	0.92318169	3.5319835	21.332703
126	1	1	-0.24244844	2.5904791	4.7599181	21.753038
127	1	5	-0.049743666	2.673082	5.3318349	20.364553
128	1	1	-0.25669249	3.5414596	4.4642283	19.494435
129	1	1	-0.18379928	4.8700002	4.6605635	19.435085
130	1	4	0.20421741	5.3349358	5.4646197	19.992661
131	1	1	-0.25477346	5.719887	3.7768352	18.611606
132	1	4	0.21167075	6.7850013	3.9693111	18.578839
133	1	1	0.44295004	5.172182	2.7540766	17.920915
134	1	3	-0.33392867	5.9537632	1.8649002	17.106744
135	1	10	0.61570621	7.2156764	1.952124	16.956567
136	1	2	-0.28609478	8.4421784	2.036631	16.810087
137	1	1	-0.25477349	3.7115874	2.5313354	18.001653
138	1	4	0.21167076	3.2619784	1.709882	17.458269
139	1	1	-0.18379932	2.9411479	3.3352119	18.745171
140	1	4	0.20421744	1.8749734	3.1551112	18.797705
141	1	7	0.12761669	1.6566046	5.414411	19.919234
142	1	7	0.12761669	3.0798226	6.3666432	20.404986
143	1	1	-0.13857196	3.5987427	5.1437484	22.769433
144	1	4	0.21794934	4.3765122	5.8548831	22.521855
145	1	1	-0.37590637	3.5567098	4.6118347	23.996788
146	1	4	0.21982268	4.2981292	4.8992274	24.730718
147	1	6	0.32308475	3.4130205	3.0002929	26.183619
148	2	8	-0.10841101	-5.8172766	-5.4567889	35.510596
149	2	5	0.029693452	-6.5296953	-4.6147933	34.645807
150	2	5	0.10174174	-5.7992374	-4.4857057	33.310136
151	2	11	-0.66909253	-6.4756357	-3.5913061	32.470474
152	2	12	0.40909833	-7.2681908	-4.0752791	32.117713
153	2	9	0.110938	-4.7734916	-4.098581	33.489362
154	2	9	0.110938	-5.7107682	-5.4837952	32.822775
155	2	9	0.11223194	-6.6127705	-3.6118329	35.116193
156	2	9	0.11223194	-7.5603359	-5.0058402	34.485519
157	3	1	0.57258821	1.3112436	2.2117132	55.105111
158	3	2	-0.60239172	0.38996221	2.961265	54.685416
159	3	3	-0.50622451	1.9062933	1.2200704	54.26
160	3	1	0.20887398	1.3884765	0.83583215	52.974962
161	3	1	-0.37590628	2.2327564	0.4164158	52.018082
162	3	4	0.21982266	3.2998431	0.38902241	52.201559
163	3	1	-0.13857199	1.723108	0.002213395	50.694014
164	3	4	0.21794935	2.4272771	-0.32922617	49.940955
165	3	1	-0.24244844	0.40513926	0.035019238	50.434611
166	3	5	-0.049743666	-0.12864898	-0.4231489	49.10404
167	3	1	-0.24244849	-0.42182725	-1.898068	49.142212
168	3	1	-0.13857197	0.5226902	-2.7954041	48.813325
169	3	4	0.21794934	1.5045895	-2.4705871	48.490396
170	3	1	-0.36381688	0.23781173	-4.2428981	48.895462
171	3	4	0.21982268	1.0116537	-4.9470276	48.615269
172	3	1	0.23266149	-0.95457748	-4.6808116	49.332132
173	3	3	-0.46864357	-1.2123777	-6.0946124	49.394736
174	3	1	0.82208968	-2.0768593	-6.7131664	50.355123
175	3	2	-0.54513466	-2.522801	-6.073224	51.343003
176	3	6	0.32700319	-0.68414763	-6.7284336	48.753881
177	3	1	-0.36381688	-2.0021306	-3.6871505	49.685821
178	3	4	0.21982265	-2.9899361	-4.0112605	49.986065
179	3	1	-0.13857199	-1.746807	-2.3759772	49.60259
180	3	4	0.21794934	-2.520801	-1.6634019	49.860076
181	3	7	0.12761669	-1.0569924	0.13666552	48.861579
182	3	7	0.12761669	0.59716175	-0.19065969	48.292698
183	3	1	-0.13857196	-0.53483598	0.45419646	51.502005
184	3	4	0.21794934	-1.6020507	0.4425342	51.319328
185	3	1	-0.37590637	-0.072993568	0.82940685	52.701092
186	3	4	0.21982268	-0.77941606	1.0946154	53.47542
187	3	6	0.32308481	2.8147017	0.81110701	54.577504
188	4	8	-0.48644322	-2.3105287	-7.7196079	50.256188
189	4	5	0.1400714	-1.7287174	-8.1509411	49.05676
190	4	5	0.0593404	-2.5525202	-7.6664729	47.863868
191	4	8	-0.11393008	-2.0102195	-8.1548667	46.667439
192	4	9	0.11150847	-3.593223	-8.0426885	47.960612
193	4	9	0.11150847	-2.588229	-6.5532404	47.848169
194	4	9	0.11229539	-1.7010414	-9.2617411	49.054922
195	4	9	0.11229539	-0.68185099	-7.7787402	48.977506
196	1	1	0.57258827	1.6855469	2.3485575	56.110747
197	1	2	-0.60239177	2.388866	1.444525	56.632629
198	1	3	-0.50622445	1.4137997	3.5752745	56.802573
199	1	1	0.20887399	1.7350368	3.8216774	58.183338
200	1	1	-0.37590634	1.6413071	2.8546673	59.11562
201	1	4	0.21982266	1.3110247	1.8584714	58.856398
202	1	1	-0.13857199	1.9445584	3.1503392	60.531301
203	1	4	0.21794935	1.8587336	2.3563476	61.262775
204	1	1	-0.24244844	2.3115381	4.3886123	60.903257
205	1	5	-0.049743666	2.5808462	4.7102521	62.347495
206	1	1	-0.25669249	1.3081331	5.123745	63.035355
207	1	1	-0.18379928	0.91152849	6.4081877	63.034051
208	1	4	0.20421741	1.5157546	7.172316	62.560151
209	1	1	-0.25477346	-0.36080879	6.7980039	63.674833
210	1	4	0.21167075	-0.64523711	7.8427855	63.663834
211	1	1	0.44295004	-1.1451456	5.8654809	64.256458
212	1	3	-0.33392867	-2.3920096	6.1912434	64.891742
213	1	10	0.61570621	-2.8713665	7.3688186	64.96997
214	1	2	-0.28609478	-3.3375893	8.5132344	65.046479
215	1	1	-0.25477349	-0.71297038	4.4503928	64.241652
216	1	4	0.21167076	-1.3371242	3.6926314	64.698193
217	1	1	-0.18379932	0.44244998	4.0982035	63.664089
218	1	4	0.20421744	0.74132528	3.0577464	63.657268
219	1	7	0.12761669	3.0192422	3.8279672	62.864927
220	1	7	0.12761669	3.3389372	5.5214191	62.419656
221	1	1	-0.13857196	2.3782935	5.462776	59.884092
222	1	4	0.21794934	2.6470739	6.4706762	60.173622
223	1	1	-0.37590637	2.103548	5.1951447	58.601912
224	1	4	0.21982268	2.1552289	5.987247	57.866484
225	1	6	0.32308475	1.0501417	4.3714696	56.232979
226	2	8	-0.10841101	-1.2046226	-7.6055366	46.476931
227	2	5	0.029693452	-0.27907911	-7.8869356	47.491101
228	2	5	0.10174174	-0.67216406	-7.1700149	48.781744
229	2	11	-0.66909253	0.28866688	-7.3964322	49.775744
230	2	12	0.40909833	0.13976134	-8.3195136	50.111247
231	2	9	0.110938	-0.73445803	-6.0775897	48.589732
232	2	9	0.110938	-1.6738823	-7.5175116	49.12429
233	2	9	0.11223194	0.72217801	-7.5324558	47.165644
234	2	9	0.11223194	-0.21539613	-8.9854885	47.664179
235	3	1	0.57258821	1.1590349	0.27664134	84.544793
236	3	2	-0.60239172	1.6412298	1.416447	84.31014
237	3	3	-0.50622451	1.5434849	-0.8668676	83.772629
238	3	1	0.20887398	2.3111646	-0.80251584	82.558701
239	3	1	-0.37590628	3.1261606	-1.819909	82.234616
240	3	4	0.21982266	3.2252386	-2.6744193	82.892707
241	3	1	-0.13857199	3.9143598	-1.7835487	80.984864
242	3	4	0.21794935	4.5650286	-2.6169079	80.750457
243	3	1	-0.24244844	3.8190831	-0.73192677	80.153947
244	3	5	-0.049743666	4.5856516	-0.70271815	78.85904
245	3	1	-0.24244849	3.7734245	-1.3322717	77.76052
246	3	1	-0.13857197	3.8560405	-2.6504891	77.5136
247	3	4	0.21794934	4.5287105	-3.2784593	78.085512
248	3	1	-0.36381688	3.0220394	-3.2662806	76.460802
249	3	4	0.21982268	3.1136442	-4.32905	76.273005
250	3	1	0.23266149	2.1468839	-2.524961	75.761667
251	3	3	-0.46864357	1.3522297	-3.1445376	74.735089
252	3	1	0.82208968	0.031778738	-2.7218012	74.374556
253	3	2	-0.54513466	-0.60409756	-1.8911579	75.074548
254	3	6	0.32700319	1.7196211	-4.00388	74.268179
255	3	1	-0.36381688	2.0638245	-1.0649388	76.028617
256	3	4	0.21982265	1.4091043	-0.43401784	75.441903
257	3	1	-0.13857199	2.8260294	-0.50581152	76.976094
258	3	4	0.21794934	2.7575399	0.55984652	77.157233
259	3	7	0.12761669	4.8260297	0.34825052	78.591301
260	3	7	0.12761669	5.5610331	-1.2270376	78.972393
261	3	1	-0.13857196	2.8870831	0.3728491	80.484764
262	3	4	0.21794934	2.7685823	1.204542	79.80161
263	3	1	-0.37590637	2.1734088	0.33974171	81.616782
264	3	4	0.21982268	1.4725401	1.1379759	81.81817
265	3	6	0.32308481	1.307284	-1.8057199	84.167637
266	4	8	-0.48644322	-0.42570187	-3.1365649	73.540292
267	4	5	0.1400714	0.52208512	-3.9739457	72.937239
268	4	5	0.0593404	1.5521322	-3.1435862	72.171825
269	4	8	-0.11393008	2.460179	-3.9825732	71.511815
270	4	9	0.11150847	1.030443	-2.5206792	71.414337
271	4	9	0.11150847	2.0899476	-2.4609348	72.868639
272	4	9	0.11229539	-0.0018159547	-4.6504237	72.228331
273	4	9	0.11229539	1.0286747	-4.6024627	73.704753
274	1	1	0.57258827	0.4720163	0.15461309	85.371381
275	1	2	-0.60239177	-0.22464278	-0.89133933	85.441685
276	1	3	-0.50622445	0.40996474	1.1622376	86.390276
277	1	1	0.20887399	-0.55342554	1.183756	87.458843
278	1	1	-0.37590634	-1.8246833	0.7801373	87.274342
279	1	4	0.21982266	-2.1665288	0.43335072	86.309164
280	1	1	-0.13857199	-2.7983306	0.84849217	88.383789
281	1	4	0.21794935	-3.8157387	0.5208983	88.209416
282	1	1	-0.24244844	-2.4261502	1.3193354	89.586342
283	1	5	-0.049743666	-3.4198593	1.4329918	90.709475
284	1	1	-0.25669249	-4.1183795	2.7645207	90.654463
285	1	1	-0.18379928	-3.60078	3.8389636	91.274748
286	1	4	0.20421741	-2.6848923	3.7580477	91.847605
287	1	1	-0.25477346	-4.2709442	5.1516742	91.179501
288	1	4	0.21167075	-3.8320229	5.9940428	91.699455
289	1	1	0.44295004	-5.403167	5.2884169	90.456699
290	1	3	-0.33392867	-6.0930398	6.5424359	90.330649
291	1	10	0.61570621	-5.7142466	7.6280776	90.878813
292	1	2	-0.28609478	-5.3466173	8.6834878	91.411601
293	1	1	-0.25477349	-5.9609395	4.106937	89.762102
294	1	4	0.21167076	-6.8641484	4.2059048	89.173359
295	1	1	-0.18379932	-5.3551407	2.9163383	89.852078
296	1	4	0.20421744	-5.7733864	2.0631925	89.333294
297	1	7	0.12761669	-4.1685348	0.61198215	90.647976
298	1	7	0.12761669	-2.9024284	1.3093811	91.686658
299	1	1	-0.13857196	-1.0371769	1.7992519	89.77977
300	1	4	0.21794934	-0.73058566	2.2052237	90.735344
301	1	1	-0.37590637	-0.15529192	1.7375094	88.774998
302	1	4	0.21982268	0.85600682	2.0910029	88.927534
303	1	6	0.32308475	1.1799382	1.8675162	86.408523
304	2	8	-0.10841101	3.0849908	-4.3240092	72.204689
305	2	5	0.029693452	2.3280547	-5.1337943	73.062391
306	2	5	0.10174174	1.4875402	-4.2708122	74.002097
307	2	11	-0.66909253	0.78274006	-5.0784953	74.903985
308	2	12	0.40909833	0.020863876	-5.4699681	74.400887
309	2	9	0.110938	2.1570863	-3.5962153	74.577222
310	2	9	0.110938	0.78254415	-3.6383882	73.415112
311	2	9	0.11223194	3.0219044	-5.7600757	73.662757
312	2	9	0.11223194	1.6718498	-5.8149541	72.473964
313	3	1	0.57258821	2.0278547	0.46020239	111.2035
314	3	2	-0.60239172	2.2452254	1.6283495	110.78528
315	3	3	-0.50622451	2.1340264	-0.6729037	110.33376
316	3	1	0.20887398	2.2707937	-0.58629984	108.90516
317	3	1	-0.37590628	2.94799	-1.539975	108.24467
318	3	4	0.21982266	3.4098643	-2.3579917	108.78376
319	3	1	-0.13857199	3.0897094	-1.4807583	106.77468
320	3	4	0.21794935	3.6431899	-2.2622637	106.269
321	3	1	-0.24244844	2.5356638	-0.47249349	106.08053
322	3	5	-0.049743666	2.6386864	-0.42393053	104.57977
323	3	1	-0.24244849	1.4855824	-1.1615615	103.95603
324	3	1	-0.13857197	1.5734236	-2.475705	103.68994
325	3	4	0.21794934	2.4862623	-3.0213689	103.89705
326	3	1	-0.36381688	0.41999991	-3.1998623	103.11692
327	3	4	0.21982268	0.51809793	-4.2567575	102.90132
328	3	1	0.23266149	-0.74047235	-2.5636448	102.8872
329	3	3	-0.46864357	-1.8468281	-3.2871844	102.32003
330	3	1	0.82208968	-3.2229309	-2.9945525	102.5902
331	3	2	-0.54513466	-3.5556155	-2.1974546	103.50576
332	3	6	0.32700319	-1.6466724	-4.1277304	101.73278
333	3	1	-0.36381688	-0.83315401	-1.1076376	103.1723
334	3	4	0.21982265	-1.7368817	-0.55801297	102.94395
335	3	1	-0.13857199	0.21477738	-0.4499936	103.68282
336	3	4	0.21794934	0.13402238	0.61154796	103.88217
337	3	7	0.12761669	2.6343915	0.63350018	104.23944
338	3	7	0.12761669	3.6070368	-0.85678447	104.24204
339	3	1	-0.13857196	1.7490532	0.55822553	106.79988
340	3	4	0.21794934	1.2608738	1.3509192	106.24691
341	3	1	-0.37590637	1.6209426	0.50443938	108.13126
342	3	4	0.21982268	1.0113711	1.2453971	108.62962
343	3	6	0.32308481	2.1881572	-1.6137065	110.78678
344	4	8	-0.48644322	-3.9627321	-3.4777941	102.04569
345	4	5	0.1400714	-3.3085236	-4.2508831	101.07743
346	4	5	0.0593404	-2.8105966	-3.3624549	99.937646
347	4	8	-0.11393008	-2.2169881	-4.1426859	98.936182
348	4	9	0.11150847	-3.6711852	-2.8154564	99.497033
349	4	9	0.11150847	-2.0857402	-2.6105457	100.32498
350	4	9	0.11229539	-4.02696	-4.9958761	100.67311
351	4	9	0.11229539	-2.4563846	-4.8044159	101.53373
352	1	1	0.57258827	1.7958225	0.30905832	112.24918
353	1	2	-0.60239177	1.3054546	-0.79034404	112.61681
354	1	3	-0.50622445	2.0994021	1.3439894	113.19473
355	1	1	0.20887399	1.715545	1.3205105	114.58128
356	1	1	-0.37590634	0.53954071	0.80119948	114.98175
357	1	4	0.21982266	-0.16202015	0.3909235	114.26889
358	1	1	-0.13857199	0.16034373	0.82494724	116.40975
359	1	4	0.21794935	-0.79229886	0.40380751	116.70632
360	1	1	-0.24244844	0.98294487	1.370039	117.32219
361	1	5	-0.049743666	0.58771098	1.4376378	118.77168
362	1	1	-0.25669249	-0.18423919	2.7003435	119.04296
363	1	1	-0.18379928	0.45160036	3.8377352	119.37332
364	1	4	0.20421741	1.5298435	3.8579035	119.47602
365	1	1	-0.25477346	-0.31124915	5.0827075	119.59582
366	1	4	0.21167075	0.23172806	5.9785429	119.87013
367	1	1	0.44295004	-1.6541552	5.0937906	119.456
368	1	3	-0.33392867	-2.4427398	6.2774916	119.65938
369	1	10	0.61570621	-1.9636654	7.4113039	119.98732
370	1	2	-0.28609478	-1.4985296	8.5134857	120.3063
371	1	1	-0.25477349	-2.3487715	3.8436262	119.07644
372	1	4	0.21167076	-3.4245034	3.8419532	118.95397
373	1	1	-0.18379932	-1.6570888	2.7144192	118.87875
374	1	4	0.20421744	-2.1801202	1.8096988	118.59619
375	1	7	0.12761669	-0.028878465	0.55282555	119.04605
376	1	7	0.12761669	1.4952939	1.3953567	119.41387
377	1	1	-0.13857196	2.2605418	1.9758887	116.87759
378	1	4	0.21794934	2.9208569	2.4416628	117.59798
379	1	1	-0.37590637	2.604036	1.9545526	115.58427
380	1	4	0.21982268	3.5390713	2.4001462	115.27106
381	1	6	0.32308475	2.7265995	2.1138638	112.87143
382	2	8	-0.10841101	-1.3198944	-4.4028482	99.274681
383	2	5	0.029693452	-1.5354896	-5.2436281	100.37512
384	2	5	0.10174174	-1.9466571	-4.4234084	101.59677
385	2	11	-0.66909253	-2.0963505	-5.2559393	102.71345
386	2	12	0.40909833	-2.9618688	-5.7304172	102.60137
387	2	9	0.110938	-1.1579535	-3.6724858	101.81632
388	2	9	0.110938	-2.8954108	-3.8766776	101.39066
389	2	9	0.11223194	-0.59127983	-5.7847261	100.59822
390	2	9	0.11223194	-2.3176208	-6.0004077	100.13766
391	3	1	0.57258821	-0.84405178	29.471307	-1.3233222
392	3	2	-0.60239172	0.22237452	30.134795	-1.2271426
393	3	3	-0.50622451	-1.6012346	29.108179	-0.16294957
394	3	1	0.20887398	-1.1326212	29.256916	1.1881139
395	3	1	-0.37590628	-2.0144634	29.490522	2.1740758
396	3	4	0.21982266	-3.0701307	29.59057	1.9535199
397	3	1	-0.13857199	-1.5587101	29.632509	3.5728577
398	3	4	0.21794935	-2.2918742	29.822883	4.3468291
399	3	1	-0.24244844	-0.25404409	29.522931	3.8749296
400	3	5	-0.049743666	0.21663678	29.624951	5.300874
401	3	1	-0.24244849	0.20382669	28.268119	5.9502115
402	3	1	-0.13857197	-0.8922174	27.820482	6.5856646
403	3	4	0.21794934	-1.7776073	28.440177	6.6629796
404	3	1	-0.36381688	-0.9089526	26.46915	7.1829603
405	3	4	0.21982268	-1.8003221	26.134283	7.6991604
406	3	1	0.23266149	0.1560684	25.658603	7.0690062
407	3	3	-0.46864357	0.12025136	24.350695	7.666758
408	3	1	0.82208968	0.81162003	23.20896	7.1464393
409	3	2	-0.54513466	1.3472572	23.230384	6.0076111
410	3	6	0.32700319	-0.50537421	24.193023	8.4884532
411	3	1	-0.36381688	1.3717023	26.15874	6.3747993
412	3	4	0.21982265	2.2637147	25.548812	6.3177512
413	3	1	-0.13857199	1.3898013	27.386287	5.8417947
414	3	4	0.21794934	2.2837286	27.738778	5.3420217
415	3	7	0.12761669	1.2461066	30.041609	5.3251399
416	3	7	0.12761669	-0.42174764	30.336378	5.8713701
417	3	1	-0.13857196	0.71801493	29.220366	2.7968995
418	3	4	0.21794934	1.7658761	29.085968	3.0343401
419	3	1	-0.37590637	0.30500797	29.091932	1.5300839
420	3	4	0.21982268	1.0263144	28.833869	0.76714692
421	3	6	0.32308481	-2.582962	28.78476	-0.32067707
422	4	8	-0.48644322	0.83962724	22.333313	7.7030114
423	4	5	0.1400714	0.21974566	22.615715	8.9274194
424	4	5	0.0593404	1.1608953	23.418639	9.8251408
425	4	8	-0.11393008	0.56804271	23.642389	11.07515
426	4	9	0.11150847	2.1003999	22.845518	9.9762146
427	4	9	0.11150847	1.4217068	24.386897	9.340102
428	4	9	0.11229539	-0.032170897	21.655975	9.4275026
429	4	9	0.11229539	-0.72714308	23.178601	8.762178
430	1	1	0.57258827	-1.213677	29.206421	-2.3048238
431	1	2	-0.60239177	-2.1011808	28.31989	-2.4082292
432	1	3	-0.50622445	-0.72063518	29.906328	-3.4556258
433	1	1	0.20887399	-1.0276868	29.556104	-4.8170526
434	1	1	-0.37590634	-1.1604168	28.273748	-5.2056258
435	1	4	0.21982266	-1.0308354	27.461023	-4.5046431
436	1	1	-0.13857199	-1.440964	27.947026	-6.6191604
437	1	4	0.21794935	-1.5402216	26.907826	-6.9073528
438	1	1	-0.24244844	-1.5609266	28.926203	-7.5319396
439	1	5	-0.049743666	-1.8038718	28.602508	-8.9803873
440	1	1	-0.25669249	-0.49559316	28.402708	-9.6962176
441	1	1	-0.18379928	0.15268481	29.443249	-10.24767
442	1	4	0.20421741	-0.2694484	30.440186	-10.209161
443	1	1	-0.25477346	1.4572515	29.244306	-10.910941
444	1	4	0.21167075	1.947509	30.102619	-11.353136
445	1	1	0.44295004	2.0182704	28.017061	-10.957807
446	1	3	-0.33392867	3.2851052	27.769859	-11.588994
447	1	10	0.61570621	3.9902978	28.665295	-12.15775
448	1	2	-0.28609478	4.6759744	29.535227	-12.710896
449	1	1	-0.25477349	1.3092222	26.87713	-10.33549
450	1	4	0.21167076	1.7526842	25.889742	-10.360111
451	1	1	-0.18379932	0.12476618	27.057394	-9.7378431
452	1	4	0.20421744	-0.37820802	26.213737	-9.2826683
453	1	7	0.12761669	-2.4275269	27.685476	-9.0723671
454	1	7	0.12761669	-2.3838966	29.422312	-9.459337
455	1	1	-0.13857196	-1.3774258	30.335948	-7.1124997
456	1	4	0.21794934	-1.4453721	31.133151	-7.8417346
457	1	1	-0.37590637	-1.1232133	30.63198	-5.8323279
458	1	4	0.21982268	-0.99079614	31.664702	-5.5375403
459	1	6	0.32308475	-0.18595763	30.786687	-3.2832962
460	2	8	-0.10841101	-0.10340436	24.362974	10.944923
461	2	5	0.029693452	-1.0975249	23.83753	10.108269
462	2	5	0.10174174	-0.60736058	23.798702	8.6617282
463	2	11	-0.66909253	-1.6242687	23.337077	7.8159751
464	2	12	0.40909833	-1.6757268	22.353144	7.9426294
465	2	9	0.110938	-0.31931202	24.82375	8.3447936
466	2	9	0.110938	0.29223283	23.146531	8.5784493
467	2	9	0.11223194	-1.9957793	24.487926	10.173216
468	2	9	0.11223194	-1.3875907	22.816019	10.444734
469	3	1	0.57258821	-1.263154	27.18594	29.660849
470	3	2	-0.60239172	-2.1568353	26.411032	29.22774
471	3	3	-0.50622451	-1.1184499	28.515135	29.147085
472	3	1	0.20887398	-1.7963567	29.009545	27.979568
473	3	1	-0.37590628	-2.1140272	30.312201	27.898881
474	3	4	0.21982266	-1.8839789	30.984576	28.716242
475	3	1	-0.13857199	-2.7978493	30.847006	26.702707
476	3	4	0.21794935	-3.0438797	31.901021	26.66628
477	3	1	-0.24244844	-3.1044481	30.034511	25.677399
478	3	5	-0.049743666	-3.7637941	30.57586	24.437451
479	3	1	-0.24244849	-2.7222172	31.025504	23.449658
480	3	1	-0.13857197	-2.2522273	32.284127	23.471354
481	3	4	0.21794934	-2.634345	33.004171	24.185103
482	3	1	-0.36381688	-1.19821	32.703604	22.524661
483	3	4	0.21982268	-0.8425726	33.726239	22.554304
484	3	1	0.23266149	-0.67214352	31.825446	21.654987
485	3	3	-0.46864357	0.34643203	32.259075	20.736465
486	3	1	0.82208968	1.3947302	31.41746	20.241454
487	3	2	-0.54513466	1.6095489	30.279696	20.735055
488	3	6	0.32700319	0.37895291	33.26736	20.464885
489	3	1	-0.36381688	-1.2001363	30.436149	21.624935
490	3	4	0.21982265	-0.8350055	29.723685	20.896904
491	3	1	-0.13857199	-2.1613397	30.05895	22.476464
492	3	4	0.21794934	-2.5389834	29.044436	22.440757
493	3	7	0.12761669	-4.3993005	29.788649	23.978724
494	3	7	0.12761669	-4.4458309	31.417034	24.695097
495	3	1	-0.13857196	-2.7157298	28.605076	25.742262
496	3	4	0.21794934	-2.9177664	27.950141	24.903992
497	3	1	-0.37590637	-2.0965059	28.120918	26.825795
498	3	4	0.21982268	-1.7890469	27.084412	26.834582
499	3	6	0.32308481	-0.53743846	29.178806	29.70854
500	4	8	-0.48644322	2.0145393	31.76708	19.485864
501	4	5	0.1400714	1.5137976	33.018227	19.10237
502	4	5	0.0593404	0.2671174	32.84681	18.234753
503	4	8	-0.11393008	-0.19439189	34.094541	17.79403
504	4	9	0.11150847	0.5209592	32.229286	17.346954
505	4	9	0.11150847	-0.5292866	32.31797	18.806485
506	4	9	0.11229539	2.2954803	33.549599	18.518194
507	4	9	0.11229539	1.2756138	33.632644	20.000425
508	1	1	0.57258827	-0.61980606	26.852408	30.463963
509	1	2	-0.60239177	0.43817828	27.489087	30.708097
510	1	3	-0.50622445	-1.0136024	25.726431	31.260458
511	1	1	0.20887399	-0.18603737	25.104766	32.260002
512	1	1	-0.37590634	1.1458893	24.985599	32.102473
513	1	4	0.21982266	1.6378134	25.347403	31.210398
514	1	1	-0.13857199	1.9621423	24.309888	33.132366
515	1	4	0.21794935	3.0310408	24.223884	32.98103
516	1	1	-0.24244844	1.3825455	23.802705	34.23381
517	1	5	-0.049743666	2.1981594	23.075722	35.267286
518	1	1	-0.25669249	2.2972199	21.615085	34.919938
519	1	1	-0.18379928	1.3632251	20.743606	35.338588
520	1	4	0.20421741	0.53683329	21.074029	35.956213
521	1	1	-0.25477346	1.4456687	19.319231	34.956803
522	1	4	0.21167075	0.6818168	18.642765	35.319451
523	1	1	0.44295004	2.4529351	18.880899	34.171724
524	1	3	-0.33392867	2.5784546	17.506995	33.770466
525	1	10	0.61570621	1.7695411	16.583479	34.110118
526	1	2	-0.28609478	0.98371976	15.685452	34.440175
527	1	1	-0.25477349	3.4700826	19.846296	33.699612
528	1	4	0.21167076	4.2782095	19.508055	33.063432
529	1	1	-0.18379932	3.3970117	21.136639	34.049307
530	1	4	0.20421744	4.1463191	21.830879	33.690848
531	1	7	0.12761669	3.2175873	23.516678	35.335685
532	1	7	0.12761669	1.7365244	23.202513	36.271635
533	1	1	-0.13857196	-0.088194921	23.899791	34.390263
534	1	4	0.21794934	-0.57158734	23.472774	35.259701
535	1	1	-0.37590637	-0.82759314	24.511644	33.457512
536	1	4	0.21982268	-1.9005521	24.576383	33.582084
537	1	6	0.32308475	-2.0037182	25.405944	31.173458
538	2	8	-0.10841101	-0.65409154	34.515551	18.567639