Title

63 atoms
62 bonds
113 angles
189 dihedrals
12 impropers

8 atom types
11 bond types
5 angle types
27 dihedral types
2 improper types
-3.872999907 96.12700009 xlo xhi
-6.453999996 93.546 ylo yhi
-5.041999817 94.95800018 zlo zhi
0.0 0.0 0.0 xy xz yz

Masses

1	15.99943
2	12.01078
3	1.007947
4	1.007947
5	12.01078
6	15.99943
7	15.99943
8	1.007947


Pair Coeffs

1	0.16846514	3.0251065
2	0.10884061	3.3795318
3	0.016409246	2.5832257
4	0.015779483	2.6445434
5	0.086879315	3.4806469
6	0.2102061	3.0398122
7	0.20947353	2.99716
8	1.2326e-05	0.53453923

Bond Coeffs

1 harmonic	366.7408841747	1.425895053732
2 harmonic	300.03137914615	1.451203938761
3 harmonic	264.62148576755	1.52190126495
4 harmonic	370.04670688625	1.093899492634
5 harmonic	301.15400723785	1.345741232799
6 harmonic	582.698766451	1.225198386222
7 harmonic	329.44145381095	1.523435958334
8 harmonic	279.1350963404	1.454628925034
9 harmonic	329.96998057905	1.427343958716
10 harmonic	543.5267831885	0.9716763312559
11 harmonic	385.7604595587	1.369745182308


Angle Coeffs

1 harmonic	53.20531626545	116.5475862634
2 harmonic	65.09061609600001	110.3538806181
3 harmonic	201.41175231035	127.4691416191
4 harmonic	57.8982893754	126.8062420451
5 harmonic	48.776492647595	115.6030999533


Dihedral Coeffs

1 fourier 1	0.1155372516788	3	0
2 fourier 1	0.1115525666802	3	0
3 fourier 1	0.3432490222662	1	0
4 fourier 1	0.0473758381877	3	0
5 fourier 1	0.457973137376	1	0
6 fourier 1	0.09223874044423	3	0
7 fourier 1	0.3159935921949	2	180
8 fourier 1	0.3247796806857	1	180
9 fourier 1	0.1040663847541	3	0
10 fourier 1	0.1918272375143	3	0
11 fourier 1	0.9202179876409	1	180
12 fourier 1	1.163809172478	2	180
13 fourier 1	0.1679186987369	1	180
14 fourier 1	2.779853741805	2	180
15 fourier 1	0.02664938770063	3	0
16 fourier 1	0.1911926717192	3	0
17 fourier 1	-0.3703352413219	2	0
18 fourier 1	0.4541676554336	1	0
19 fourier 1	0.1489710476446	2	0
20 fourier 1	0.02960027280666	3	180
21 fourier 1	0.9974165607242	2	180
22 fourier 1	0.3445382149273	3	0
23 fourier 1	0.1364556373303	1	0
24 fourier 1	0.3026390167484	3	0
25 fourier 1	2.687457892086	2	180
26 fourier 1	2.772607909663	2	180
27 fourier 1	0.09692684957115	1	0


Improper Coeffs

1 3.5	-1	2
2 0.3666666666666667	-1	2


Atoms

1	1	1	-0.176467	-2.5580001	0.57200003	0.94400001
2	1	2	0.032547001	-1.365	0.62599999	0.20999999
3	1	2	-0.145805	-0.671	-0.741	0.23
4	1	2	-0.13843	0.55199999	-0.81	-0.69999999
5	1	2	0.13482	1.743	0.017999999	-0.205
6	1	1	-0.49380001	1.545	1.374	-0.49000001
7	1	3	0.080477998	2.661	-0.33199999	-0.72899997
8	1	3	0.080477998	1.8890001	-0.13	0.889
9	1	4	0.088701002	0.87400001	-1.873	-0.75599998
10	1	4	0.088701002	0.27200001	-0.498	-1.73
11	1	4	0.089703001	-1.399	-1.512	-0.104
12	1	4	0.089703001	-0.37400001	-0.99400002	1.272
13	1	3	0.080123998	-1.572	0.94300002	-0.838
14	1	3	0.080123998	-0.708	1.386	0.68000001
15	1	5	0.76248401	2.3759999	1.873	-0.113
16	1	6	-0.55085099	2.3429999	3.0880001	-0.0060000001
17	1	2	-0.209153	3.6059999	1.118	0.29800001
18	1	2	-0.112846	3.431	-0.389	0.081
19	1	2	-0.092001997	4.691	-1.155	0.50199997
20	1	2	-0.25735599	4.5170002	-2.6619999	0.285
21	1	5	0.51769698	5.7459998	-3.4170001	0.69599998
22	1	6	-0.68120497	5.7789998	-4.632	0.58899999
23	1	4	0.114486	3.655	-3.029	0.884
24	1	4	0.114486	4.3150001	-2.8640001	-0.79000002
25	1	4	0.076017998	4.8969998	-0.95999998	1.5779999
26	1	4	0.076017998	5.5580001	-0.796	-0.096000001
27	1	4	0.084958002	2.5639999	-0.74800003	0.67799997
28	1	4	0.084958002	3.2249999	-0.58399999	-0.995
29	1	4	0.117849	3.8069999	1.3200001	1.372
30	1	4	0.117849	4.4679999	1.485	-0.301
31	1	1	-0.176467	-3.2279999	0.123	0.366
32	1	2	0.032659002	-2.677	0.068999998	-0.92199999
33	1	2	-0.140071	-2.8	1.436	-1.605
34	1	2	-0.16712099	-2.059	1.506	-2.9519999
35	1	2	0.085992001	-2.724	0.67699999	-4.0580001
36	1	7	-0.68381798	-2.4130001	-0.67900002	-3.904
37	1	8	0.379206	-2.885	-1.155	-4.6350002
38	1	3	0.070619002	-2.3399999	1.027	-5.0419998
39	1	3	0.070619002	-3.8269999	0.82599998	-4.0409999
40	1	4	0.092165999	-2.0510001	2.5680001	-3.2780001
41	1	4	0.092165999	-1	1.193	-2.826
42	1	4	0.089872003	-2.3610001	2.207	-0.93400002
43	1	4	0.089872003	-3.8729999	1.689	-1.747
44	1	3	0.080123998	-1.6109999	-0.248	-0.87199998
45	1	3	0.080123998	-3.2390001	-0.69099998	-1.503
46	1	5	0.51769698	6.6139998	-2.8959999	1.089
47	1	6	-0.68120497	6.7540002	-2.7880001	2.2969999
48	1	2	-0.25735599	7.619	-2.3010001	0.15000001
49	1	2	-0.092001997	8.9779997	-2.9949999	0.289
50	1	2	-0.110321	10	-2.404	-0.69400001
51	1	2	-0.219161	11.39	-3.0339999	-0.53500003
52	1	5	0.82471502	11.404	-4.467	-0.96899998
53	1	6	-0.55211401	11.451	-4.7550001	-2.1949999
54	1	7	-0.66455197	11.334	-5.4809999	-0.017999999
55	1	8	0.39540499	11.328	-6.454	-0.29699999
56	1	4	0.11888	11.724	-2.957	0.523
57	1	4	0.11888	12.116	-2.4649999	-1.155
58	1	4	0.084958002	10.09	-1.312	-0.50800002
59	1	4	0.084958002	9.6440001	-2.5420001	-1.739
60	1	4	0.076017998	9.3529997	-2.868	1.329
61	1	4	0.076017998	8.8520002	-4.0809999	0.089000002
62	1	4	0.114486	7.2480001	-2.4159999	-0.89099997
63	1	4	0.114486	7.7199998	-1.215	0.368

Bonds

1	1	1	2
2	2	1	31
3	3	2	3
4	4	2	13
5	4	2	14
6	3	3	4
7	4	3	11
8	4	3	12
9	3	4	5
10	4	4	9
11	4	4	10
12	1	5	6
13	4	5	7
14	4	5	8
15	5	6	15
16	6	15	16
17	7	15	17
18	3	17	18
19	4	17	29
20	4	17	30
21	3	18	19
22	4	18	27
23	4	18	28
24	3	19	20
25	4	19	25
26	4	19	26
27	7	20	21
28	4	20	23
29	4	20	24
30	6	21	22
31	8	21	46
32	1	31	32
33	3	32	33
34	4	32	44
35	4	32	45
36	3	33	34
37	4	33	42
38	4	33	43
39	3	34	35
40	4	34	40
41	4	34	41
42	9	35	36
43	4	35	38
44	4	35	39
45	10	36	37
46	6	46	47
47	7	46	48
48	3	48	49
49	4	48	62
50	4	48	63
51	3	49	50
52	4	49	60
53	4	49	61
54	3	50	51
55	4	50	58
56	4	50	59
57	7	51	52
58	4	51	56
59	4	51	57
60	6	52	53
61	11	52	54
62	10	54	55

Angles

1	2	52	54	55
2	1	48	49	50
3	1	50	49	61
4	1	4	5	8
5	1	34	33	43
6	1	32	33	42
7	5	42	33	43
8	1	34	33	42
9	4	16	15	17
10	5	25	19	26
11	1	19	20	23
12	1	20	19	25
13	1	21	20	24
14	1	50	51	57
15	1	18	19	20
16	4	21	46	47
17	1	31	32	44
18	5	38	35	39
19	1	3	4	5
20	1	19	20	21
21	1	4	3	12
22	4	22	21	46
23	4	20	21	46
24	1	33	34	41
25	1	3	2	14
26	1	3	2	13
27	1	15	17	30
28	1	51	50	59
29	1	6	5	8
30	1	48	49	61
31	1	49	50	59
32	1	18	17	30
33	1	46	48	62
34	1	52	51	57
35	1	4	5	7
36	1	1	2	14
37	1	5	4	9
38	1	1	2	13
39	1	5	4	10
40	5	58	50	59
41	3	53	52	54
42	1	2	3	12
43	1	19	18	28
44	1	49	50	51
45	4	47	46	48
46	1	15	17	18
47	1	49	48	62
48	1	4	5	6
49	1	19	18	27
50	1	2	3	4
51	1	17	18	28
52	1	33	32	45
53	5	13	2	14
54	5	60	49	61
55	1	36	35	39
56	1	50	49	60
57	1	15	17	29
58	1	32	33	34
59	1	17	18	27
60	4	51	52	54
61	5	27	18	28
62	1	36	35	38
63	5	23	20	24
64	4	6	15	17
65	1	31	32	33
66	5	62	48	63
67	1	18	17	29
68	4	20	21	22
69	5	11	3	12
70	1	21	20	23
71	1	35	34	40
72	1	50	51	52
73	5	9	4	10
74	1	33	34	35
75	1	6	5	7
76	1	4	3	11
77	1	19	20	24
78	1	1	2	3
79	1	50	51	56
80	1	46	48	49
81	1	18	19	26
82	1	34	35	36
83	1	34	35	39
84	1	32	33	43
85	2	2	1	31
86	1	31	32	45
87	1	34	35	38
88	1	17	18	19
89	1	46	48	63
90	1	51	50	58
91	4	21	46	48
92	1	3	4	9
93	1	48	49	60
94	1	3	4	10
95	1	49	50	58
96	5	44	32	45
97	5	40	34	41
98	1	2	3	11
99	2	35	36	37
100	2	5	6	15
101	1	20	19	26
102	1	52	51	56
103	1	35	34	41
104	3	6	15	16
105	2	1	31	32
106	1	33	34	40
107	1	33	32	44
108	4	51	52	53
109	1	49	48	63
110	5	29	17	30
111	1	18	19	25
112	5	7	5	8
113	5	56	51	57

Dihedrals

1	1	15	17	18	27
2	1	46	48	49	50
3	16	24	20	19	26
4	16	59	50	49	61
5	16	27	18	17	30
6	15	21	46	48	62
7	9	17	18	19	26
8	16	23	20	19	26
9	4	1	31	32	45
10	9	2	3	4	9
11	9	48	49	50	59
12	9	2	3	4	10
13	17	50	51	52	53
14	1	31	32	33	34
15	16	43	33	32	45
16	18	53	52	51	56
16	19	53	52	51	56
16	20	53	52	51	56
17	15	54	52	51	56
18	2	1	2	3	11
18	3	1	2	3	11
19	1	49	50	51	52
20	16	56	51	50	58
21	16	42	33	32	44
22	24	37	36	35	39
23	16	12	3	2	14
24	16	12	3	2	13
25	6	2	3	4	5
25	7	2	3	4	5
25	8	2	3	4	5
26	9	4	3	2	14
27	24	37	36	35	38
28	9	49	50	51	56
29	16	60	49	48	62
30	15	6	15	17	30
31	1	52	51	50	59
32	9	50	49	48	62
33	6	48	49	50	51
33	7	48	49	50	51
33	8	48	49	50	51
34	6	32	33	34	35
34	7	32	33	34	35
34	8	32	33	34	35
35	9	18	19	20	23
36	1	33	34	35	36
37	1	15	17	18	19
38	18	16	15	17	30
38	19	16	15	17	30
38	20	16	15	17	30
39	16	40	34	33	42
40	21	20	21	46	47
41	16	58	50	49	61
42	2	31	32	33	43
42	3	31	32	33	43
43	18	16	15	17	29
43	19	16	15	17	29
43	20	16	15	17	29
44	9	5	4	3	11
45	16	57	51	50	58
46	12	5	6	15	16
46	13	5	6	15	16
47	1	21	20	19	26
48	16	23	20	19	25
49	1	18	19	20	21
50	1	46	48	49	61
51	9	3	4	5	8
52	18	47	46	48	62
52	19	47	46	48	62
52	20	47	46	48	62
53	16	27	18	17	29
54	15	19	20	21	46
55	15	24	20	21	46
56	21	22	21	46	48
57	15	23	20	21	46
58	4	3	2	1	31
59	2	1	2	3	12
59	3	1	2	3	12
60	15	21	46	48	49
61	15	6	15	17	18
62	18	22	21	20	24
62	19	22	21	20	24
62	20	22	21	20	24
63	16	61	49	48	62
64	9	51	50	49	60
65	9	34	33	32	44
66	17	16	15	17	18
67	16	38	35	34	40
68	26	53	52	54	55
68	27	53	52	54	55
69	1	1	2	3	4
70	16	41	34	33	43
71	9	19	18	17	30
72	4	1	31	32	44
73	25	51	52	54	55
74	9	32	33	34	40
75	9	33	34	35	39
76	16	10	4	3	12
77	15	6	15	17	29
78	1	21	20	19	25
79	16	43	33	32	44
80	4	7	5	6	15
81	15	21	46	48	63
82	16	24	20	19	25
83	9	20	19	18	28
84	9	33	34	35	38
85	4	8	5	6	15
86	9	17	18	19	25
87	16	59	50	49	60
88	2	36	35	34	40
88	3	36	35	34	40
89	15	54	52	51	57
90	2	31	32	33	42
90	3	31	32	33	42
91	9	20	19	18	27
92	16	56	51	50	59
93	4	13	2	1	31
94	16	39	35	34	40
95	9	48	49	50	58
96	9	35	34	33	43
97	16	11	3	2	14
98	16	11	3	2	13
99	9	49	50	51	57
100	16	28	18	17	30
101	16	60	49	48	63
102	16	25	19	18	27
103	16	7	5	4	9
104	9	50	49	48	63
105	16	7	5	4	10
106	16	9	4	3	11
107	5	2	1	31	32
108	9	3	4	5	7
109	16	8	5	4	10
110	15	50	51	52	54
111	21	22	21	46	47
112	16	42	33	32	45
113	22	34	35	36	37
113	23	34	35	36	37
114	17	19	20	21	22
115	16	57	51	50	59
116	16	38	35	34	41
117	1	52	51	50	58
118	6	17	18	19	20
118	7	17	18	19	20
118	8	17	18	19	20
119	9	18	19	20	24
120	9	19	18	17	29
121	16	41	34	33	42
122	18	47	46	48	63
122	19	47	46	48	63
122	20	47	46	48	63
123	16	58	50	49	60
124	1	3	4	5	6
125	9	32	33	34	41
126	9	5	4	3	12
127	18	53	52	51	57
127	19	53	52	51	57
127	20	53	52	51	57
128	16	26	19	18	28
129	1	46	48	49	60
130	2	36	35	34	41
130	3	36	35	34	41
131	16	25	19	18	28
132	18	22	21	20	23
132	19	22	21	20	23
132	20	22	21	20	23
133	4	1	31	32	33
134	16	61	49	48	63
135	9	51	50	49	61
136	21	20	21	46	48
137	16	26	19	18	27
138	16	39	35	34	41
139	9	4	3	2	13
140	2	6	5	4	9
140	3	6	5	4	9
141	9	35	34	33	42
142	16	40	34	33	43
143	2	6	5	4	10
143	3	6	5	4	10
144	10	4	5	6	15
144	11	4	5	6	15
145	14	5	6	15	17
146	4	14	2	1	31
147	16	28	18	17	29
148	17	47	46	48	49
149	16	8	5	4	9
150	1	15	17	18	28
151	16	9	4	3	12
152	16	10	4	3	11
153	9	34	33	32	45

Impropers

25	1	15	17	6	16
32	2	21	46	20	22
83	2	21	20	22	46
88	1	15	16	17	6
138	2	21	22	46	20
139	2	46	21	47	48
147	1	52	54	51	53
163	1	52	53	54	51
166	1	15	6	16	17
227	2	46	47	48	21
254	1	52	51	53	54
266	2	46	48	21	47
