Title

63 atoms
62 bonds
113 angles
189 dihedrals
12 impropers

8 atom types
11 bond types
5 angle types
27 dihedral types
2 improper types
-3.872999907 96.12700009 xlo xhi
-6.453999996 93.546 ylo yhi
-5.041999817 94.95800018 zlo zhi
0.0 0.0 0.0 xy xz yz

Masses

1	15.99943
2	12.01078
3	1.007947
4	1.007947
5	12.01078
6	15.99943
7	15.99943
8	1.007947


Pair Coeffs

1	0.16846514	3.0251065
2	0.10884061	3.3795318
3	0.016409246	2.5832257
4	0.015779483	2.6445434
5	0.086879315	3.4806469
6	0.2102061	3.0398122
7	0.20947353	2.99716
8	1.2326e-05	0.53453923

Bond Coeffs

1 harmonic	366.7408841747	1.425895053732
2 harmonic	300.03137914615	1.451203938761
3 harmonic	264.62148576755	1.52190126495
4 harmonic	370.04670688625	1.093899492634
5 harmonic	301.15400723785	1.345741232799
6 harmonic	582.698766451	1.225198386222
7 harmonic	329.44145381095	1.523435958334
8 harmonic	279.1350963404	1.454628925034
9 harmonic	329.96998057905	1.427343958716
10 harmonic	543.5267831885	0.9716763312559
11 harmonic	385.7604595587	1.369745182308


Angle Coeffs

1 harmonic	53.20531626545	116.5475862634
2 harmonic	65.09061609600001	110.3538806181
3 harmonic	201.41175231035	127.4691416191
4 harmonic	57.8982893754	126.8062420451
5 harmonic	48.776492647595	115.6030999533


Dihedral Coeffs

1 fourier 1	0.1155372516788	3	0
2 fourier 1	0.1115525666802	3	0
3 fourier 1	0.3432490222662	1	0
4 fourier 1	0.0473758381877	3	0
5 fourier 1	0.457973137376	1	0
6 fourier 1	0.09223874044423	3	0
7 fourier 1	0.3159935921949	2	180
8 fourier 1	0.3247796806857	1	180
9 fourier 1	0.1040663847541	3	0
10 fourier 1	0.1918272375143	3	0
11 fourier 1	0.9202179876409	1	180
12 fourier 1	1.163809172478	2	180
13 fourier 1	0.1679186987369	1	180
14 fourier 1	2.779853741805	2	180
15 fourier 1	0.02664938770063	3	0
16 fourier 1	0.1911926717192	3	0
17 fourier 1	-0.3703352413219	2	0
18 fourier 1	0.4541676554336	1	0
19 fourier 1	0.1489710476446	2	0
20 fourier 1	0.02960027280666	3	180
21 fourier 1	0.9974165607242	2	180
22 fourier 1	0.3445382149273	3	0
23 fourier 1	0.1364556373303	1	0
24 fourier 1	0.3026390167484	3	0
25 fourier 1	2.687457892086	2	180
26 fourier 1	2.772607909663	2	180
27 fourier 1	0.09692684957115	1	0


Improper Coeffs

1 3.5	-1	2
2 0.3666666666666667	-1	2


Atoms

1	1	1	-0.176467	-2.5580001	0.57200003	0.94400001
2	1	2	0.032547001	-1.365	0.62599999	0.20999999
3	1	2	-0.145805	-0.671	-0.741	0.23
4	1	2	-0.13843	0.55199999	-0.81	-0.69999999
5	1	2	0.13482	1.743	0.017999999	-0.205
6	1	1	-0.49380001	1.545	1.374	-0.49000001
7	1	3	0.080477998	2.661	-0.33199999	-0.72899997
8	1	3	0.080477998	1.8890001	-0.13	0.889
9	1	4	0.088701002	0.87400001	-1.873	-0.75599998
10	1	4	0.088701002	0.27200001	-0.498	-1.73
11	1	4	0.089703001	-1.399	-1.512	-0.104
12	1	4	0.089703001	-0.37400001	-0.99400002	1.272
13	1	3	0.080123998	-1.572	0.94300002	-0.838
14	1	3	0.080123998	-0.708	1.386	0.68000001
15	1	5	0.76248401	2.3759999	1.873	-0.113
16	1	6	-0.55085099	2.3429999	3.0880001	-0.0060000001
17	1	2	-0.209153	3.6059999	1.118	0.29800001
18	1	2	-0.112846	3.431	-0.389	0.081
19	1	2	-0.092001997	4.691	-1.155	0.50199997
20	1	2	-0.25735599	4.5170002	-2.6619999	0.285
21	1	5	0.51769698	5.7459998	-3.4170001	0.69599998
22	1	6	-0.68120497	5.7789998	-4.632	0.58899999
23	1	4	0.114486	3.655	-3.029	0.884
24	1	4	0.114486	4.3150001	-2.8640001	-0.79000002
25	1	4	0.076017998	4.8969998	-0.95999998	1.5779999
26	1	4	0.076017998	5.5580001	-0.796	-0.096000001
27	1	4	0.084958002	2.5639999	-0.74800003	0.67799997
28	1	4	0.084958002	3.2249999	-0.58399999	-0.995
29	1	4	0.117849	3.8069999	1.3200001	1.372
30	1	4	0.117849	4.4679999	1.485	-0.301
31	1	1	-0.176467	-3.2279999	0.123	0.366
32	1	2	0.032659002	-2.677	0.068999998	-0.92199999
33	1	2	-0.140071	-2.8	1.436	-1.605
34	1	2	-0.16712099	-2.059	1.506	-2.9519999
35	1	2	0.085992001	-2.724	0.67699999	-4.0580001
36	1	7	-0.68381798	-2.4130001	-0.67900002	-3.904
37	1	8	0.379206	-2.885	-1.155	-4.6350002
38	1	3	0.070619002	-2.3399999	1.027	-5.0419998
39	1	3	0.070619002	-3.8269999	0.82599998	-4.0409999
40	1	4	0.092165999	-2.0510001	2.5680001	-3.2780001
41	1	4	0.092165999	-1	1.193	-2.826
42	1	4	0.089872003	-2.3610001	2.207	-0.93400002
43	1	4	0.089872003	-3.8729999	1.689	-1.747
44	1	3	0.080123998	-1.6109999	-0.248	-0.87199998
45	1	3	0.080123998	-3.2390001	-0.69099998	-1.503
46	1	5	0.51769698	6.6139998	-2.8959999	1.089
47	1	6	-0.68120497	6.7540002	-2.7880001	2.2969999
48	1	2	-0.25735599	7.619	-2.3010001	0.15000001
49	1	2	-0.092001997	8.9779997	-2.9949999	0.289
50	1	2	-0.110321	10	-2.404	-0.69400001
51	1	2	-0.219161	11.39	-3.0339999	-0.53500003
52	1	5	0.82471502	11.404	-4.467	-0.96899998
53	1	6	-0.55211401	11.451	-4.7550001	-2.1949999
54	1	7	-0.66455197	11.334	-5.4809999	-0.017999999
55	1	8	0.39540499	11.328	-6.454	-0.29699999
56	1	4	0.11888	11.724	-2.957	0.523
57	1	4	0.11888	12.116	-2.4649999	-1.155
58	1	4	0.084958002	10.09	-1.312	-0.50800002
59	1	4	0.084958002	9.6440001	-2.5420001	-1.739
60	1	4	0.076017998	9.3529997	-2.868	1.329
61	1	4	0.076017998	8.8520002	-4.0809999	0.089000002
62	1	4	0.114486	7.2480001	-2.4159999	-0.89099997
63	1	4	0.114486	7.7199998	-1.215	0.368

Bonds

1	1	1	2
2	2	1	31
3	3	2	3
4	4	2	13
5	4	2	14
6	3	3	4
7	4	3	11
8	4	3	12
9	3	4	5
10	4	4	9
11	4	4	10
12	1	5	6
13	4	5	7
14	4	5	8
15	5	6	15
16	6	15	16
17	7	15	17
18	3	17	18
19	4	17	29
20	4	17	30
21	3	18	19
22	4	18	27
23	4	18	28
24	3	19	20
25	4	19	25
26	4	19	26
27	7	20	21
28	4	20	23
29	4	20	24
30	6	21	22
31	8	21	46
32	1	31	32
33	3	32	33
34	4	32	44
35	4	32	45
36	3	33	34
37	4	33	42
38	4	33	43
39	3	34	35
40	4	34	40
41	4	34	41
42	9	35	36
43	4	35	38
44	4	35	39
45	10	36	37
46	6	46	47
47	7	46	48
48	3	48	49
49	4	48	62
50	4	48	63
51	3	49	50
52	4	49	60
53	4	49	61
54	3	50	51
55	4	50	58
56	4	50	59
57	7	51	52
58	4	51	56
59	4	51	57
60	6	52	53
61	11	52	54
62	10	54	55

Angles

1	1	2	3	12
2	1	21	20	24
3	1	6	5	7
4	1	50	49	61
5	1	46	48	49
6	1	49	50	58
7	4	51	52	54
8	1	35	34	40
9	5	56	51	57
10	3	6	15	16
11	1	34	33	42
12	1	34	35	38
13	1	33	32	45
14	1	35	34	41
15	5	29	17	30
16	1	31	32	44
17	5	23	20	24
18	1	4	3	12
19	1	18	17	30
20	1	34	33	43
21	5	11	3	12
22	1	17	18	27
23	1	4	5	8
24	5	44	32	45
25	1	34	35	39
26	1	49	50	51
27	4	21	46	48
28	4	20	21	46
29	5	27	18	28
30	1	15	17	29
31	1	31	32	45
32	1	18	19	20
33	1	52	51	56
34	1	19	18	27
35	1	3	4	5
36	1	32	33	34
37	1	17	18	19
38	1	19	20	23
39	4	20	21	22
40	1	1	2	13
41	1	6	5	8
42	1	36	35	38
43	1	50	51	56
44	1	15	17	30
45	1	49	50	59
46	5	42	33	43
47	1	3	4	10
48	5	60	49	61
49	1	3	4	9
50	4	6	15	17
51	1	31	32	33
52	1	36	35	39
53	1	50	51	57
54	1	32	33	42
55	1	20	19	25
56	4	47	46	48
57	4	22	21	46
58	1	3	2	13
59	1	51	50	58
60	1	33	34	35
61	1	49	48	62
62	4	16	15	17
63	5	7	5	8
64	1	1	2	3
65	1	15	17	18
66	5	62	48	63
67	1	2	3	11
68	1	21	20	23
69	1	32	33	43
70	1	18	19	25
71	1	17	18	28
72	1	48	49	60
73	1	2	3	4
74	1	50	49	60
75	1	51	50	59
76	1	5	4	10
77	1	49	48	63
78	1	5	4	9
79	5	38	35	39
80	1	52	51	57
81	1	34	35	36
82	5	9	4	10
83	1	19	18	28
84	5	13	2	14
85	1	18	19	26
86	1	48	49	61
87	1	19	20	24
88	1	46	48	62
89	1	1	2	14
90	1	48	49	50
91	2	5	6	15
92	1	4	5	6
93	1	33	32	44
94	2	52	54	55
95	5	25	19	26
96	1	4	3	11
97	1	46	48	63
98	1	33	34	40
99	1	18	17	29
100	1	20	19	26
101	1	4	5	7
102	1	3	2	14
103	1	19	20	21
104	5	40	34	41
105	4	21	46	47
106	2	1	31	32
107	1	50	51	52
108	3	53	52	54
109	5	58	50	59
110	2	35	36	37
111	4	51	52	53
112	1	33	34	41
113	2	2	1	31

Dihedrals

1	21	22	21	46	47
2	15	54	52	51	57
3	9	18	19	20	23
4	16	43	33	32	45
5	9	35	34	33	42
6	16	56	51	50	58
7	9	49	50	51	56
8	15	6	15	17	29
9	4	1	31	32	44
10	18	53	52	51	57
10	19	53	52	51	57
10	20	53	52	51	57
11	1	21	20	19	26
12	2	36	35	34	40
12	3	36	35	34	40
13	4	8	5	6	15
14	9	20	19	18	27
15	16	11	3	2	13
16	21	20	21	46	48
17	24	37	36	35	39
18	14	5	6	15	17
19	16	59	50	49	61
20	17	47	46	48	49
21	2	31	32	33	42
21	3	31	32	33	42
22	9	34	33	32	44
23	9	17	18	19	25
24	9	35	34	33	43
25	16	56	51	50	59
26	9	49	50	51	57
27	16	58	50	49	61
28	22	34	35	36	37
28	23	34	35	36	37
29	9	20	19	18	28
30	16	11	3	2	14
31	6	32	33	34	35
31	7	32	33	34	35
31	8	32	33	34	35
32	4	14	2	1	31
33	9	48	49	50	59
34	2	1	2	3	12
34	3	1	2	3	12
35	26	53	52	54	55
35	27	53	52	54	55
36	16	25	19	18	28
37	9	34	33	32	45
38	9	17	18	19	26
39	16	57	51	50	58
40	1	52	51	50	58
41	1	31	32	33	34
42	16	61	49	48	62
43	9	3	4	5	8
44	16	26	19	18	27
45	9	4	3	2	14
46	1	15	17	18	19
47	15	23	20	21	46
48	16	41	34	33	43
49	9	50	49	48	63
50	16	39	35	34	40
51	15	6	15	17	18
52	4	1	31	32	33
53	17	50	51	52	53
54	9	19	18	17	30
55	16	60	49	48	63
56	18	22	21	20	23
56	19	22	21	20	23
56	20	22	21	20	23
57	21	22	21	46	48
58	16	12	3	2	13
59	9	18	19	20	24
60	16	38	35	34	40
61	15	24	20	21	46
62	15	6	15	17	30
63	4	1	31	32	45
64	1	46	48	49	60
65	2	36	35	34	41
65	3	36	35	34	41
66	6	2	3	4	5
66	7	2	3	4	5
66	8	2	3	4	5
67	9	5	4	3	11
68	1	15	17	18	27
69	15	50	51	52	54
70	15	21	46	48	62
71	10	4	5	6	15
71	11	4	5	6	15
72	9	33	34	35	38
73	9	32	33	34	40
74	17	19	20	21	22
75	2	31	32	33	43
75	3	31	32	33	43
76	16	38	35	34	41
77	1	46	48	49	61
78	1	46	48	49	50
79	9	2	3	4	10
80	16	23	20	19	25
81	9	2	3	4	9
82	16	27	18	17	29
83	9	5	4	3	12
84	1	15	17	18	28
85	1	18	19	20	21
86	18	16	15	17	29
86	19	16	15	17	29
86	20	16	15	17	29
87	25	51	52	54	55
88	15	21	46	48	63
89	16	10	4	3	11
90	18	47	46	48	62
90	19	47	46	48	62
90	20	47	46	48	62
91	9	33	34	35	39
92	16	28	18	17	29
93	9	51	50	49	60
94	16	57	51	50	59
95	1	52	51	50	59
96	16	42	33	32	44
97	16	61	49	48	63
98	16	40	34	33	42
99	16	26	19	18	28
100	16	24	20	19	25
101	16	9	4	3	11
102	15	54	52	51	56
103	16	27	18	17	30
104	16	43	33	32	44
105	15	19	20	21	46
106	18	53	52	51	56
106	19	53	52	51	56
106	20	53	52	51	56
107	16	39	35	34	41
108	21	20	21	46	47
109	16	42	33	32	45
110	16	40	34	33	43
111	18	22	21	20	24
111	19	22	21	20	24
111	20	22	21	20	24
112	16	24	20	19	26
113	1	33	34	35	36
114	16	59	50	49	60
115	16	12	3	2	14
116	4	3	2	1	31
117	6	48	49	50	51
117	7	48	49	50	51
117	8	48	49	50	51
118	16	58	50	49	60
119	1	3	4	5	6
120	5	2	1	31	32
121	4	7	5	6	15
122	9	48	49	50	58
123	2	1	2	3	11
123	3	1	2	3	11
124	6	17	18	19	20
124	7	17	18	19	20
124	8	17	18	19	20
125	17	16	15	17	18
126	1	49	50	51	52
127	9	32	33	34	41
128	1	1	2	3	4
129	16	25	19	18	27
130	4	13	2	1	31
131	9	3	4	5	7
132	16	23	20	19	26
133	9	4	3	2	13
134	18	16	15	17	30
134	19	16	15	17	30
134	20	16	15	17	30
135	16	10	4	3	12
136	18	47	46	48	63
136	19	47	46	48	63
136	20	47	46	48	63
137	1	21	20	19	25
138	16	41	34	33	42
139	9	50	49	48	62
140	16	8	5	4	10
141	16	28	18	17	30
142	9	51	50	49	61
143	16	8	5	4	9
144	2	6	5	4	10
144	3	6	5	4	10
145	16	7	5	4	10
146	9	19	18	17	29
147	2	6	5	4	9
147	3	6	5	4	9
148	16	7	5	4	9
149	24	37	36	35	38
150	16	60	49	48	62
151	12	5	6	15	16
151	13	5	6	15	16
152	15	21	46	48	49
153	16	9	4	3	12

Impropers

20	2	21	46	20	22
77	1	15	6	16	17
118	2	46	21	47	48
127	2	21	22	46	20
157	1	52	54	51	53
206	2	46	47	48	21
221	1	52	51	53	54
308	1	15	17	6	16
321	1	15	16	17	6
332	1	52	53	54	51
371	2	46	48	21	47
390	2	21	20	22	46
