Title

7375 atoms
7750 bonds
12625 angles
19625 dihedrals
9000 impropers

8 atom types
12 bond types
6 angle types
20 dihedral types
2 improper types
-8.399900436 91.60009956 xlo xhi
-9.429100037 90.57089996 ylo yhi
-10.27140045 89.72859955 zlo zhi
0.0 0.0 0.0 xy xz yz

Masses

1	15.99943
2	12.01078
3	1.007947
4	12.01078
5	15.99943
6	1.007947
7	15.99943
8	1.007947


Pair Coeffs

1	0.16846514	3.0251065
2	0.10884061	3.3795318
3	0.016409246	2.5832257
4	0.086879315	3.4806469
5	0.2102061	3.0398122
6	0.015611343	2.5725815
7	0.20947353	2.99716
8	1.2326e-05	0.53453923

Bond Coeffs

1 harmonic	366.7408841747	1.425895053732
2 harmonic	300.03137914615	1.451203938761
3 harmonic	264.62148576755	1.52190126495
4 harmonic	370.04670688625	1.093899492634
5 harmonic	301.15400723785	1.345741232799
6 harmonic	582.698766451	1.225198386222
7 harmonic	279.1350963404	1.454628925034
8 harmonic	360.7852444772	1.387193227181
9 harmonic	397.2545789619	1.085358495916
10 harmonic	329.96998057905	1.427343958716
11 harmonic	543.5267831885	0.9716763312559
12 harmonic	385.7604595587	1.369745182308


Angle Coeffs

1 harmonic	53.20531626545	116.5475862634
2 harmonic	65.09061609600001	110.3538806181
3 harmonic	201.41175231035	127.4691416191
4 harmonic	57.8982893754	126.8062420451
5 harmonic	48.776492647595	115.6030999533
6 harmonic	34.066775159195	129.1835929926


Dihedral Coeffs

1 fourier 1	-0.0309670556842	3	0
2 fourier 1	0.4598191477945	2	0
3 fourier 1	0.1115525666802	3	0
4 fourier 1	0.3432490222662	1	0
5 fourier 1	0.0473758381877	3	0
6 fourier 1	0.457973137376	1	0
7 fourier 1	0.1918272375143	3	0
8 fourier 1	0.9202179876409	1	180
9 fourier 1	1.163809172478	2	180
10 fourier 1	0.1679186987369	1	180
11 fourier 1	2.779853741805	2	180
12 fourier 1	0.9974165607242	2	180
13 fourier 1	0.1911926717192	3	0
14 fourier 1	3.661930099076	2	180
15 fourier 1	0.3445382149273	3	0
16 fourier 1	0.1364556373303	1	0
17 fourier 1	0.3026390167484	3	0
18 fourier 1	2.687457892086	2	180
19 fourier 1	2.772607909663	2	180
20 fourier 1	0.09692684957115	1	0


Improper Coeffs

1 3.5	-1	2
2 0.3666666666666667	-1	2


Atoms

1	4	1	-0.130638	0.7414	-3.8938999	-6.6468
2	4	2	0.053449001	1.794	-3.3906	-5.8706002
3	4	2	0.158435	1.6277	-1.8857	-5.6623998
4	4	1	-0.500723	2.7154	-1.3714	-4.9442
5	4	3	0.093463004	1.5846	-1.3819	-6.6506
6	4	3	0.093463004	0.67400002	-1.6753	-5.1254001
7	4	3	0.101105	2.7502	-3.5831001	-6.4025998
8	4	3	0.101105	1.8356	-3.9137001	-4.8874998
9	5	4	0.79408997	2.5716	-1.6431	-3.9521999
10	5	5	-0.54623598	2.4823999	-2.8650999	-3.6628001
11	5	4	-0.269077	2.4753001	-0.60939997	-2.9063001
12	5	4	-0.081724003	2.573	0.69120002	-3.2355001
13	5	6	0.22223499	2.7223001	0.99269998	-4.2652001
14	5	4	-0.217232	2.4774001	1.7362	-2.1947
15	5	6	0.19162001	2.5589001	2.7779	-2.4814
16	5	4	-0.083241001	2.2913001	1.3904999	-0.91219997
17	5	4	-0.21083701	2.1908	2.4015	0.1552
18	5	6	0.19162001	2.2660999	3.4556	-0.082699999
19	5	4	-0.049052	2.0053	2.0246	1.4262
20	5	6	0.20442501	1.9354	2.7878001	2.1909001
21	5	4	-0.33146799	1.8941	0.59189999	1.814
22	5	4	0.58125299	1.6906	0.2651	3.2388999
23	5	5	-0.568739	1.589	-0.9285	3.6308
24	5	4	0.010823	1.9784	-0.3795	0.8836
25	5	6	0.201764	1.8972	-1.4222	1.1682
26	5	4	-0.17802399	2.1826999	-0.0392	-0.53829998
27	5	4	-0.032965999	2.2686	-0.98879999	-1.4839
28	5	6	0.212487	2.1894	-2.0339999	-1.211
29	1	1	-0.125016	-0.049600001	-3.9512999	-6.0486999
30	1	2	0.025431	-0.25819999	-5.3126998	-5.7905002
31	1	2	0.097459003	-0.90710002	-5.9893999	-6.9977002
32	1	7	-0.67537999	-1.1778001	-7.3351002	-6.7143998
33	1	8	0.39982101	-0.31040001	-7.8162999	-6.7684999
34	1	3	0.099359997	-1.8638	-5.4768	-7.2333002
35	1	3	0.099359997	-0.24259999	-5.9063001	-7.8874998
36	1	3	0.101806	-0.93220001	-5.4078999	-4.9124999
37	1	3	0.101806	0.70569998	-5.8126001	-5.5411
38	2	4	0.58125299	1.6267999	1.0617	3.9684
39	2	5	-0.56874001	2.6658001	1.3990999	4.5962
40	2	4	-0.33146799	0.3339	1.7291	4.2114
41	2	4	-0.049052	0.2131	2.7242	5.1117001
42	2	6	0.20442501	1.0657001	3.0638001	5.6855998
43	2	4	-0.21083701	-1.0948	3.3752	5.3344002
44	2	6	0.19162001	-1.1715	4.1739001	6.0622001
45	2	4	-0.083241001	-2.1691	2.9762001	4.6384001
46	2	4	-0.217232	-3.4909	3.5998001	4.8304
47	2	6	0.19162001	-3.6155	4.4025002	5.5475998
48	2	4	-0.074252002	-4.5454998	3.1796	4.1206002
49	2	6	0.22223499	-5.5012002	3.6603	4.2887998
50	2	4	-0.26197201	-4.4373999	2.0803001	3.1196001
51	2	4	0.833435	-5.6462998	1.6663001	2.3705001
52	2	5	-0.51905698	-5.5893002	0.74019998	1.5156
53	2	7	-0.67206502	-6.8635998	2.3018999	2.6041999
54	2	8	0.40787399	-7.6982002	2.0286	2.099
55	2	4	-0.027619001	-3.2528999	1.473	2.9008
56	2	6	0.212487	-3.1712999	0.67330003	2.1737001
57	2	4	-0.17802399	-2.0467	1.8841	3.6466
58	2	4	0.010823	-0.8592	1.2919	3.4439001
59	2	6	0.201764	-0.76499999	0.4912	2.7193
60	4	1	-0.130638	-1.0215	4.848	14.7433
61	4	2	0.053449001	-1.3156	3.4777999	14.7427
62	4	2	0.158435	-0.072099999	2.6677999	15.1077
63	4	1	-0.500723	-0.34900001	1.2958	15.0406
64	4	3	0.093463004	0.74110001	2.9014001	14.389
65	4	3	0.093463004	0.27959999	2.9431	16.1287
66	4	3	0.101105	-1.6553	3.1887	13.7252
67	4	3	0.101105	-2.1422999	3.2583001	15.457
68	5	4	0.79408997	-0.89520001	1.0611	15.8921
69	5	5	-0.54623598	-1.9898	1.6494	16.0942
70	5	4	-0.269077	-0.39120001	0.054200001	16.8428
71	5	4	-0.081724003	0.78070003	-0.5636	16.609301
72	5	6	0.22223499	1.3641	-0.33050001	15.7268
73	5	4	-0.217232	1.2959	-1.5745	17.5564
74	5	6	0.19162001	2.2420001	-2.0604	17.349199
75	5	4	-0.083241001	0.59439999	-1.881	18.6576
76	5	4	-0.21083701	1.073	-2.8829999	19.6264
77	5	6	0.19162001	2.0132999	-3.3951001	19.462299
78	5	4	-0.049052	0.3495	-3.1673	20.7162
79	5	6	0.20442501	0.72399998	-3.9078	21.411501
80	5	4	-0.33146799	-0.94959998	-2.4965	20.995399
81	5	4	0.58125299	-1.6826	-2.8705001	22.220699
82	5	5	-0.568739	-2.7874	-2.339	22.5131
83	5	4	0.010823	-1.4408	-1.5716	20.1471
84	5	6	0.201764	-2.3870001	-1.0844001	20.352301
85	5	4	-0.17802399	-0.69800001	-1.2069	18.9245
86	5	4	-0.032965999	-1.1658	-0.2877	18.064699
87	5	6	0.212487	-2.1105001	0.2052	18.2593
88	1	1	-0.125016	-0.98140001	5.1289001	15.6951
89	1	2	0.025431	-2.1329	5.8901	15.9367
90	1	2	0.097459003	-1.9807	7.2886	15.3391
91	1	7	-0.67537999	-3.1039	8.0713997	15.6395
92	1	8	0.39982101	-3.8308001	7.7686	15.0337
93	1	3	0.099359997	-1.0821	7.7757001	15.7735
94	1	3	0.099359997	-1.8382	7.2214999	14.2366
95	1	3	0.101806	-2.2772999	5.9759002	17.034901
96	1	3	0.101806	-3.0290999	5.3843999	15.5096
97	2	4	0.58125299	-1.2692	-3.6164	22.886801
98	2	5	-0.56874001	-1.64	-4.8144999	22.7668
99	2	4	-0.33146799	-0.28909999	-3.2167001	23.914301
100	2	4	-0.049052	0.24779999	-4.1150999	24.762899
101	2	6	0.20442501	-0.0264	-5.1610999	24.7148
102	2	4	-0.21083701	1.2278	-3.6863999	25.782499
103	2	6	0.19162001	1.6487	-4.4238	26.455299
104	2	4	-0.083241001	1.5871	-2.3973	25.8664
105	2	4	-0.217232	2.5615001	-1.9293	26.868601
106	2	6	0.19162001	3.0088999	-2.631	27.562599
107	2	4	-0.074252002	2.9005001	-0.63550001	26.9282
108	2	6	0.22223499	3.6187999	-0.32749999	27.6779
109	2	4	-0.26197201	2.3199	0.37740001	26.001301
110	2	4	0.833435	2.7405	1.7922	26.1248
111	2	5	-0.51905698	2.2693999	2.6744001	25.3556
112	2	7	-0.67206502	3.6675	2.1622	27.0966
113	2	8	0.40787399	3.9637001	3.1264	27.192101
114	2	4	-0.027619001	1.424	0.0071999999	25.063101
115	2	6	0.212487	1.0001	0.7414	24.387899
116	2	4	-0.17802399	1.0033	-1.4026	24.938499
117	2	4	0.010823	0.1128	-1.791	24.012199
118	2	6	0.201764	-0.3179	-1.0661	23.3311
119	4	1	-0.130638	6.4503002	-2.2409999	45.018799
120	4	2	0.053449001	5.9636002	-2.7691	43.815498
121	4	2	0.158435	4.5373001	-3.2857001	44.0009
122	4	1	-0.500723	4.0760999	-3.8748	42.816101
123	4	3	0.093463004	4.5265999	-4.0507002	44.805199
124	4	3	0.093463004	3.8636999	-2.4525001	44.307499
125	4	3	0.101105	6.6202998	-3.6101	43.506199
126	4	3	0.101105	5.9927001	-1.9964	43.013
127	5	4	0.79408997	3.8355999	-3.0968001	42.1716
128	5	5	-0.54623598	4.7322001	-2.2736001	41.850101
129	5	4	-0.269077	2.4651	-2.9658	41.645599
130	5	4	-0.081724003	1.5208	-3.8555	42.000801
131	5	6	0.22223499	1.7537	-4.6725998	42.672699
132	5	4	-0.217232	0.14309999	-3.7333	41.479698
133	5	6	0.19162001	-0.60219997	-4.4608002	41.7784
134	5	4	-0.083241001	-0.1726	-2.7300999	40.647301
135	5	4	-0.21083701	-1.5341001	-2.5732	40.105701
136	5	6	0.19162001	-2.3132	-3.2757001	40.375702
137	5	4	-0.049052	-1.818	-1.5614001	39.276501
138	5	6	0.20442501	-2.8261001	-1.4696	38.8927
139	5	4	-0.33146799	-0.78960001	-0.56510001	38.869801
140	5	4	0.58125299	-1.1885999	0.51910001	37.951099
141	5	5	-0.568739	-0.3646	1.3931	37.569599
142	5	4	0.010823	0.47350001	-0.65499997	39.3311
143	5	6	0.201764	1.2208	0.071500003	39.0336
144	5	4	-0.17802399	0.8599	-1.7447	40.2491
145	5	4	-0.032965999	2.1113999	-1.8549	40.723202
146	5	6	0.212487	2.8664999	-1.1349	40.432301
147	1	1	-0.125016	6.0235	-1.3512	45.1311
148	1	2	0.025431	7.0211	-0.396	44.893799
149	1	2	0.097459003	7.9545002	-0.29139999	46.0998
150	1	7	-0.67537999	8.9108	0.71149999	45.889801
151	1	8	0.39982101	9.5817003	0.33629999	45.260399
152	1	3	0.099359997	7.3594999	-0.031500001	47.000801
153	1	3	0.099359997	8.4527998	-1.2697999	46.2855
154	1	3	0.101806	6.5358	0.58829999	44.721199
155	1	3	0.101806	7.6012001	-0.6595	43.979801
156	2	4	0.58125299	-2.2084999	0.57080001	37.592899
157	2	5	-0.56874001	-2.4916	0.052099999	36.480202
158	2	4	-0.33146799	-3.2368	1.2443	38.408501
159	2	4	-0.049052	-4.5169001	1.3305	37.997101
160	2	6	0.20442501	-4.8288002	0.90619999	37.051399
161	2	4	-0.21083701	-5.5264001	2.0109	38.8349
162	2	6	0.19162001	-6.5507002	2.0694001	38.487099
163	2	4	-0.083241001	-5.1700001	2.5462	40.011398
164	2	4	-0.217232	-6.1462998	3.2326	40.876701
165	2	6	0.19162001	-7.1824002	3.3153999	40.57
166	2	4	-0.074252002	-5.7605	3.7574999	42.046299
167	2	6	0.22223499	-6.5047998	4.2553	42.655499
168	2	4	-0.26197201	-4.3502998	3.6758001	42.5228
169	2	4	0.833435	-3.9944	4.2796998	43.827599
170	2	5	-0.51905698	-2.8104999	4.2273002	44.2607
171	2	7	-0.67206502	-4.9709001	4.9129	44.592999
172	2	8	0.40787399	-4.7410998	5.3302999	45.487099
173	2	4	-0.027619001	-3.4133999	3.0589001	41.773602
174	2	6	0.212487	-2.3873	2.9979999	42.117298
175	2	4	-0.17802399	-3.7662001	2.4563999	40.4725
176	2	4	0.010823	-2.8485	1.8389	39.712002
177	2	6	0.201764	-1.8193001	1.7714	40.0452
178	4	1	-0.130638	1.6293	-2.8006001	69.093498
179	4	2	0.053449001	0.45699999	-3.0457001	68.365799
180	4	2	0.158435	-0.2264	-1.7282	68.0009
181	4	1	-0.500723	-1.4329	-1.9756	67.332603
182	4	3	0.093463004	-0.4447	-1.1597	68.929001
183	4	3	0.093463004	0.4483	-1.1083	67.366501
184	4	3	0.101105	-0.2296	-3.6526999	68.993698
185	4	3	0.101105	0.68720001	-3.6287999	67.444504
186	5	4	0.79408997	-1.1842	-2.2507	66.362602
187	5	5	-0.54623598	-0.45030001	-3.2579999	66.184898
188	5	4	-0.269077	-1.6868	-1.47	65.218002
189	5	4	-0.081724003	-2.4698	-0.39660001	65.428398
190	5	6	0.22223499	-2.7385001	-0.094800003	66.433403
191	5	4	-0.217232	-2.9789	0.3937	64.287903
192	5	6	0.19162001	-3.6084001	1.2546	64.479599
193	5	4	-0.083241001	-2.6603	0.0429	63.033298
194	5	4	-0.21083701	-3.1473999	0.80409998	61.869301
195	5	6	0.19162001	-3.7794001	1.6724	62.0107
196	5	4	-0.049052	-2.8120999	0.42840001	60.629002
197	5	6	0.20442501	-3.1839001	1.005	59.791599
198	5	4	-0.33146799	-1.947	-0.75529999	60.372101
199	5	4	0.58125299	-1.6267999	-1.0992	58.972801
200	5	5	-0.568739	-0.89999998	-2.0890999	58.6898
201	5	4	0.010823	-1.4706	-1.4923	61.395
202	5	6	0.201764	-0.84079999	-2.3538001	61.2057
203	5	4	-0.17802399	-1.7987	-1.138	62.7901
204	5	4	-0.032965999	-1.3353	-1.8556	63.826099
205	5	6	0.212487	-0.70560002	-2.7189	63.648701
206	1	1	-0.125016	2.312	-2.4991	68.438103
207	1	2	0.025431	3.2226	-3.5545001	68.294502
208	1	2	0.097459003	4.1592002	-3.6164	69.5009
209	1	7	-0.67537999	5.1128001	-4.6285	69.3256
210	1	8	0.39982101	4.6480999	-5.4892001	69.499603
211	1	3	0.099359997	4.6873999	-2.6449001	69.6035
212	1	3	0.099359997	3.5743001	-3.7916	70.432297
213	1	3	0.101806	3.8222001	-3.3829	67.375099
214	1	3	0.101806	2.6810999	-4.5212002	68.177597
215	2	4	0.58125299	-2.0213001	-0.49340001	58.167599
216	2	5	-0.56874001	-3.0888	-0.8506	57.601799
217	2	4	-0.33146799	-1.3048	0.72719997	57.751999
218	2	4	-0.049052	-1.7628	1.5074	56.753502
219	2	6	0.20442501	-2.6743	1.2591	56.224899
220	2	4	-0.21083701	-1.0245	2.7249	56.358299
221	2	6	0.19162001	-1.4092	3.3395	55.553398
222	2	4	-0.083241001	0.1076	3.0583	56.994701
223	2	4	-0.217232	0.8732	4.2645001	56.631302
224	2	6	0.19162001	0.52670002	4.9095001	55.8325
225	2	4	-0.074252002	2.0005	4.5713	57.285099
226	2	6	0.22223499	2.5373001	5.4645	56.990398
227	2	4	-0.26197201	2.5280001	3.7239001	58.3923
228	2	4	0.833435	3.7821	4.1238999	59.071201
229	2	5	-0.51905698	4.2551999	3.4298999	60.012699
230	2	7	-0.67206502	4.4527001	5.2786002	58.6744
231	2	8	0.40787399	5.3115001	5.5636001	59.130001
232	2	4	-0.027619001	1.8693	2.6085999	58.769001
233	2	6	0.212487	2.2504001	1.9904	59.573601
234	2	4	-0.17802399	0.61900002	2.2079999	58.0933
235	2	4	0.010823	-0.050799999	1.1016999	58.452801
236	2	6	0.201764	0.3202	0.4756	59.2561
237	4	1	-0.130638	-1.2628	1.752	75.322403
238	4	2	0.053449001	-0.1972	0.98580003	75.813599
239	4	2	0.158435	0.58890003	1.7775	76.858002
240	4	1	-0.500723	1.6936001	1.0369	77.299004
241	4	3	0.093463004	0.95349997	2.7221999	76.403198
242	4	3	0.093463004	-0.0704	2.0397	77.717499
243	4	3	0.101105	0.47459999	0.72899997	74.966797
244	4	3	0.101105	-0.57450002	0.034400001	76.254402
245	5	4	0.79408997	1.327	0.3161	77.9506
246	5	5	-0.54623598	0.47420001	-0.50830001	77.528603
247	5	4	-0.269077	1.8028001	0.2651	79.344398
248	5	4	-0.081724003	2.7145	1.1548001	79.776497
249	5	6	0.22223499	3.1070001	1.914	79.111
250	5	4	-0.217232	3.1982	1.1131001	81.172501
251	5	6	0.19162001	3.9330001	1.839	81.5
252	5	4	-0.083241001	2.7277	0.18440001	82.017998
253	5	4	-0.21083701	3.1842	0.1089	83.417099
254	5	6	0.19162001	3.9175999	0.8132	83.790604
255	5	4	-0.049052	2.6958001	-0.83020002	84.236603
256	5	6	0.20442501	3.0486	-0.86360002	85.259499
257	5	4	-0.33146799	1.6866	-1.8247	83.780701
258	5	4	0.58125299	1.2017	-2.8264	84.750504
259	5	5	-0.568739	0.34799999	-3.6949	84.426102
260	5	4	0.010823	1.23	-1.8077	82.512802
261	5	6	0.201764	0.49520001	-2.5329001	82.182999
262	5	4	-0.17802399	1.7235	-0.80089998	81.552399
263	5	4	-0.032965999	1.2831	-0.7626	80.2845
264	5	6	0.212487	0.5492	-1.4827	79.943802
265	1	1	-0.125016	-1.9665999	1.7409	76.023102
266	1	2	0.025431	-2.9964001	0.92049998	75.543098
267	1	2	0.097459003	-3.8175001	1.6608	74.487602
268	1	7	-0.67537999	-4.888	0.86500001	74.057198
269	1	8	0.39982101	-4.5057998	0.1829	73.444397
270	1	3	0.099359997	-4.2247	2.5945001	74.930199
271	1	3	0.099359997	-3.171	1.9408	73.625198
272	1	3	0.101806	-3.6566999	0.6462	76.393303
273	1	3	0.101806	-2.5768001	-0.0188	75.115402
274	2	4	0.58125299	1.5832	-2.8213999	85.763199
275	2	5	-0.56874001	2.5479	-3.5771	86.055603
276	2	4	-0.33146799	0.96850002	-1.9378	86.771896
277	2	4	-0.049052	1.4138	-1.9033	88.042999
278	2	6	0.20442501	2.2393999	-2.5264001	88.362
279	2	4	-0.21083701	0.7791	-1.008	89.0327
280	2	6	0.19162001	1.1519001	-0.99409997	90.049797
281	2	4	-0.083241001	-0.2456	-0.2243	88.667198
282	2	4	-0.217232	-0.90549999	0.68290001	89.623497
283	2	6	0.19162001	-0.56660002	0.7306	90.651703
284	2	4	-0.074252002	-1.9267	1.4535	89.228996
285	2	6	0.22223499	-2.388	2.1070001	89.959
286	2	4	-0.26197201	-2.438	1.4326	87.828796
287	2	4	0.833435	-3.5722001	2.3118999	87.462502
288	2	5	-0.51905698	-4.0282998	2.3195	86.286201
289	2	7	-0.67206502	-4.1468	3.1447001	88.419998
290	2	8	0.40787399	-4.9232001	3.7509999	88.182999
291	2	4	-0.027619001	-1.8726	0.62290001	86.909698
292	2	6	0.212487	-2.2421999	0.60549998	85.890999
293	2	4	-0.17802399	-0.74199998	-0.2545	87.272903
294	2	4	0.010823	-0.1663	-1.0677	86.373299
295	2	6	0.201764	-0.52689999	-1.0937999	85.351402
296	4	1	-0.130638	-4.7287998	16.040701	3.9909999
297	4	2	0.053449001	-4.3238001	17.325001	4.3785
298	4	2	0.158435	-2.7986	17.406401	4.4344001
299	4	1	-0.500723	-2.3957	18.6698	4.8871999
300	4	3	0.093463004	-2.4165001	16.6383	5.1388001
301	4	3	0.093463004	-2.3657999	17.1987	3.4286001
302	4	3	0.101105	-4.7389002	17.538601	5.3866
303	4	3	0.101105	-4.7251	18.0879	3.6722
304	5	4	0.79408997	-2.5184	19.3241	4.0900998
305	5	5	-0.54623598	-3.6637001	19.460501	3.5855999
306	5	4	-0.269077	-1.3660001	20.077499	3.5645001
307	5	4	-0.081724003	-0.15000001	19.917999	4.1170998
308	5	6	0.22223499	-0.0035999999	19.239201	4.9485002
309	5	4	-0.217232	1.0127	20.6681	3.5975001
310	5	6	0.19162001	1.9833	20.525	4.0574002
311	5	4	-0.083241001	0.85960001	21.514099	2.5681
312	5	4	-0.21083701	1.993	22.2806	2.0209999
313	5	6	0.19162001	2.9827001	22.170799	2.4475
314	5	4	-0.049052	1.8079	23.117599	0.9928
315	5	6	0.20442501	2.6575	23.6689	0.61040002
316	5	4	-0.33146799	0.47189999	23.309999	0.36539999
317	5	4	0.58125299	0.3572	24.253201	-0.76419997
318	5	5	-0.568739	-0.74589998	24.459999	-1.3375
319	5	4	0.010823	-0.60369998	22.637899	0.8211
320	5	6	0.201764	-1.5756	22.7796	0.3628
321	5	4	-0.17802399	-0.4756	21.697701	1.9521
322	5	4	-0.032965999	-1.5319	21.0156	2.4233
323	5	6	0.212487	-2.5079999	21.149599	1.9734
324	1	1	-0.125016	-4.5784001	15.9796	3.0111001
325	1	2	0.025431	-5.8434	16.0117	2.4091001
326	1	2	0.097459003	-6.5384998	14.6588	2.5602
327	1	7	-0.67537999	-7.7746	14.67	1.8995
328	1	8	0.39982101	-8.3999004	15.1828	2.4765
329	1	3	0.099359997	-5.9018998	13.8686	2.1089001
330	1	3	0.099359997	-6.6771002	14.4167	3.6382999
331	1	3	0.101806	-5.7164998	16.2386	1.329
332	1	3	0.101806	-6.4671998	16.8174	2.8597
333	2	4	0.58125299	1.2344	24.7824	-1.1126
334	2	5	-0.56874001	1.4618	25.9417	-0.67479998
335	2	4	-0.33146799	2.1371	24.140301	-2.0868001
336	2	4	-0.049052	3.2384	24.766399	-2.5455
337	2	6	0.20442501	3.4934001	25.7637	-2.2107
338	2	4	-0.21083701	4.1251998	24.098801	-3.5211
339	2	6	0.19162001	5.0064001	24.6185	-3.8776
340	2	4	-0.083241001	3.8353	22.863501	-3.9542999
341	2	4	-0.217232	4.6940999	22.163	-4.9264002
342	2	6	0.19162001	5.5861001	22.643499	-5.3106999
343	2	4	-0.074252002	4.3785	20.9296	-5.3404999
344	2	6	0.22223499	5.0320001	20.445999	-6.0560002
345	2	4	-0.26197201	3.1652999	20.2166	-4.8484998
346	2	4	0.833435	2.8775001	18.8531	-5.3505001
347	2	5	-0.51905698	1.8599	18.2215	-4.9537001
348	2	7	-0.67206502	3.7351	18.252399	-6.2694001
349	2	8	0.40787399	3.55	17.320499	-6.6209998
350	2	4	-0.027619001	2.3427999	20.8078	-3.9576001
351	2	6	0.212487	1.4599	20.292	-3.5982001
352	2	4	-0.17802399	2.6278999	22.167	-3.4561
353	2	4	0.010823	1.8216	22.7726	-2.5701001
354	2	6	0.201764	0.93589997	22.266899	-2.2032001
355	4	1	-0.130638	1.4086	16.981701	14.0427
356	4	2	0.053449001	0.63679999	18.142599	14.1852
357	4	2	0.158435	-0.49540001	17.908001	15.1847
358	4	1	-0.500723	-1.3068	19.046801	15.2759
359	4	3	0.093463004	-1.1173	17.055599	14.84
360	4	3	0.093463004	-0.077299997	17.6486	16.1847
361	4	3	0.101105	0.20370001	18.403999	13.1961
362	4	3	0.101105	1.2745	18.9939	14.5177
363	5	4	0.79408997	-0.78560001	19.7377	15.8499
364	5	5	-0.54623598	0.34779999	20.122	15.4592
365	5	4	-0.269077	-1.3703001	20.2556	17.0996
366	5	4	-0.081724003	-2.5827	19.832701	17.500401
367	5	6	0.22223499	-3.1400001	19.111799	16.9146
368	5	4	-0.217232	-3.1782999	20.3451	18.7523
369	5	6	0.19162001	-4.1561999	19.991501	19.0567
370	5	4	-0.083241001	-2.5092001	21.2372	19.4974
371	5	4	-0.21083701	-3.0678999	21.772499	20.751499
372	5	6	0.19162001	-4.0421	21.4487	21.096901
373	5	4	-0.049052	-2.3754001	22.6625	21.473
374	5	6	0.20442501	-2.8092999	23.040001	22.3901
375	5	4	-0.33146799	-1.0324	23.1446	21.0495
376	5	4	0.58125299	-0.33849999	24.127199	21.9048
377	5	5	-0.568739	0.80019999	24.5739	21.601
378	5	4	0.010823	-0.46810001	22.692699	19.9121
379	5	6	0.201764	0.50989997	23.0452	19.605499
380	5	4	-0.17802399	-1.173	21.710199	19.0651
381	5	4	-0.032965999	-0.63129997	21.244101	17.9282
382	5	6	0.212487	0.34529999	21.589701	17.6119
383	1	1	-0.125016	1.9838001	16.9226	14.8502
384	1	2	0.025431	3.2865	17.2327	14.4373
385	1	2	0.097459003	3.9064	16.0467	13.6987
386	1	7	-0.67537999	5.2325001	16.3321	13.3456
387	1	8	0.39982101	5.1924	16.9433	12.5634
388	1	3	0.099359997	3.8999	15.1578	14.3645
389	1	3	0.099359997	3.3073001	15.8035	12.792
390	1	3	0.101806	3.8979001	17.4634	15.3358
391	1	3	0.101806	3.2820001	18.1341	13.7825
392	2	4	0.58125299	-0.8114	24.4765	22.813299
393	2	5	-0.56874001	-1.4704	25.5499	22.7845
394	2	4	-0.33146799	-0.6735	23.694901	24.0567
395	2	4	-0.049052	-1.2462	24.0965	25.2083
396	2	6	0.20442501	-1.8265001	25.0091	25.2542
397	2	4	-0.21083701	-1.0915999	23.293301	26.4391
398	2	6	0.19162001	-1.5602	23.632601	27.355
399	2	4	-0.083241001	-0.37850001	22.1581	26.4133
400	2	4	-0.217232	-0.20100001	21.3283	27.6187
401	2	6	0.19162001	-0.65140003	21.628	28.5576
402	2	4	-0.074252002	0.51700002	20.199699	27.562
403	2	6	0.22223499	0.62699997	19.615801	28.4674
404	2	4	-0.26197201	1.1608	19.7348	26.3004
405	2	4	0.833435	1.9414999	18.476101	26.311001
406	2	5	-0.51905698	2.4981999	18.0539	25.260401
407	2	7	-0.67206502	2.0662999	17.7425	27.4886
408	2	8	0.40787399	2.5975001	16.879999	27.509899
409	2	4	-0.027619001	1.0319	20.4529	25.165701
410	2	6	0.212487	1.499	20.117599	24.246901
411	2	4	-0.17802399	0.2543	21.708	25.153
412	2	4	0.010823	0.1147	22.437099	24.034599
413	2	6	0.201764	0.57690001	22.1119	23.109699
414	4	1	-0.130638	-5.4789	25.2798	44.342201
415	4	2	0.053449001	-5.1202998	24.014601	44.826302
416	4	2	0.158435	-5.2516999	22.9667	43.7216
417	4	1	-0.500723	-4.9586	21.691799	44.223801
418	4	3	0.093463004	-6.2937002	22.9666	43.339001
419	4	3	0.093463004	-4.5724001	23.2152	42.873798
420	4	3	0.101105	-5.7999001	23.750099	45.664501
421	4	3	0.101105	-4.0780001	24.031099	45.220299
422	5	4	0.79408997	-3.9254	21.6381	44.3134
423	5	5	-0.54623598	-3.3343999	22.470301	45.0504
424	5	4	-0.269077	-3.1705999	20.6014	43.587101
425	5	4	-0.081724003	-3.8202	19.721201	42.804401
426	5	6	0.22223499	-4.8973999	19.763	42.698601
427	5	4	-0.217232	-3.0731001	18.677799	42.071098
428	5	6	0.19162001	-3.6157999	17.9786	41.446201
429	5	4	-0.083241001	-1.7386	18.604401	42.183102
430	5	4	-0.21083701	-0.95709997	17.579399	41.469002
431	5	6	0.19162001	-1.4554	16.8585	40.832298
432	5	4	-0.049052	0.37419999	17.5319	41.601601
433	5	6	0.20442501	0.92409998	16.7684	41.0662
434	5	4	-0.33146799	1.1142	18.495199	42.4618
435	5	4	0.58125299	2.5822001	18.3708	42.5513
436	5	5	-0.568739	3.2656	19.155399	43.262402
437	5	4	0.010823	0.4558	19.4554	43.140701
438	5	6	0.201764	0.99659997	20.1558	43.766499
439	5	4	-0.17802399	-1.0129	19.5688	43.042999
440	5	4	-0.032965999	-1.6914001	20.517401	43.7085
441	5	6	0.212487	-1.1612999	21.222401	44.3372
442	1	1	-0.125016	-4.7154002	25.600401	43.7938
443	1	2	0.025431	-4.0914998	26.6159	44.5308
444	1	2	0.097459003	-4.9088001	27.905399	44.456501
445	1	7	-0.67537999	-4.2504001	28.938999	45.136799
446	1	8	0.39982101	-4.3892002	28.7736	46.106499
447	1	3	0.099359997	-5.0289998	28.200899	43.3927
448	1	3	0.099359997	-5.9229999	27.742399	44.886398
449	1	3	0.101806	-3.0831001	26.7973	44.101501
450	1	3	0.101806	-3.9630001	26.3022	45.592201
451	2	4	0.58125299	3.0895	17.5914	41.997799
452	2	5	-0.56874001	3.3520999	16.5037	42.5769
453	2	4	-0.33146799	3.4611001	17.818701	40.588501
454	2	4	-0.049052	4.0942001	16.874001	39.865799
455	2	6	0.20442501	4.3497	15.9164	40.3013
456	2	4	-0.21083701	4.4542999	17.129	38.455502
457	2	6	0.19162001	4.9625001	16.3566	37.8909
458	2	4	-0.083241001	4.1508999	18.3055	37.888599
459	2	4	-0.217232	4.4920998	18.599001	36.484901
460	2	6	0.19162001	5.0007	17.8566	35.881199
461	2	4	-0.074252002	4.1763	19.7834	35.9464
462	2	6	0.22223499	4.4433999	19.964399	34.912701
463	2	4	-0.26197201	3.4769001	20.8447	36.725399
464	2	4	0.833435	3.1589999	22.132	36.0653
465	2	5	-0.51905698	2.5669	23.050699	36.695599
466	2	7	-0.67206502	3.5118001	22.3391	34.7337
467	2	8	0.40787399	3.3006001	23.2148	34.2701
468	2	4	-0.027619001	3.1389	20.632299	38.014
469	2	6	0.212487	2.6305001	21.4021	38.583
470	2	4	-0.17802399	3.4551001	19.3498	38.673901
471	2	4	0.010823	3.1278	19.119301	39.9552
472	2	6	0.201764	2.619	19.881201	40.534302
473	4	1	-0.130638	5.0339999	18.425699	67.490402
474	4	2	0.053449001	4.4025002	17.59	66.559502
475	4	2	0.158435	2.8841	17.7269	66.667397
476	4	1	-0.500723	2.2523999	16.8416	65.783897
477	4	3	0.093463004	2.5671	17.481899	67.702698
478	4	3	0.093463004	2.5767	18.775999	66.451103
479	4	3	0.101105	4.6914001	16.538799	66.773499
480	4	3	0.101105	4.7393999	17.8361	65.526199
481	5	4	0.79408997	2.3397999	17.255501	64.835503
482	5	5	-0.54623598	3.4890001	17.481199	64.373596
483	5	4	-0.269077	1.1337	17.570101	64.049301
484	5	4	-0.081724003	-0.085600004	17.321699	64.560303
485	5	6	0.22223499	-0.1955	16.891001	65.548103
486	5	4	-0.217232	-1.3019	17.633801	63.780701
487	5	6	0.19162001	-2.2743001	17.425501	64.210899
488	5	4	-0.083241001	-1.1945	18.1688	62.5555
489	5	4	-0.21083701	-2.3821001	18.494301	61.746101
490	5	6	0.19162001	-3.3756001	18.304199	62.1339
491	5	4	-0.049052	-2.2419	19.0273	60.526199
492	5	6	0.20442501	-3.131	19.256399	59.952599
493	5	4	-0.33146799	-0.90329999	19.311001	59.940498
494	5	4	0.58125299	-0.84009999	19.899401	58.588299
495	5	5	-0.568739	0.26249999	20.1626	58.037498
496	5	4	0.010823	0.2207	19.0352	60.631199
497	5	6	0.201764	1.1944	19.2425	60.202801
498	5	4	-0.17802399	0.14380001	18.446199	61.9827
499	5	4	-0.032965999	1.2489001	18.163601	62.6912
500	5	6	0.212487	2.2272999	18.3661	62.2729
501	1	1	-0.125016	4.9794002	19.348101	67.126099
502	1	2	0.025431	6.2709999	19.687799	66.701698
503	1	2	0.097459003	7.1524	20.030001	67.902603
504	1	7	-0.67537999	8.4238005	20.4354	67.473801
505	1	8	0.39982101	8.9099998	19.6105	67.208801
506	1	3	0.099359997	6.6875	20.8629	68.471497
507	1	3	0.099359997	7.2340002	19.151199	68.581703
508	1	3	0.101806	6.2034001	20.573299	66.034103
509	1	3	0.101806	6.7210999	18.850901	66.119904
510	2	4	0.58125299	-1.7558	20.1117	58.052101
511	2	5	-0.56874001	-2.1973	19.258699	57.236698
512	2	4	-0.33146799	-2.4607999	21.386499	58.284599
513	2	4	-0.049052	-3.6026001	21.688299	57.636299
514	2	6	0.20442501	-4.0373001	21.0005	56.922298
515	2	4	-0.21083701	-4.2879	22.973	57.889099
516	2	6	0.19162001	-5.2052999	23.1971	57.358398
517	2	4	-0.083241001	-3.7734001	23.8452	58.767899
518	2	4	-0.217232	-4.4263	25.1366	59.048901
519	2	6	0.19162001	-5.3459001	25.4039	58.541801
520	2	4	-0.074252002	-3.8885	25.987301	59.931801
521	2	6	0.22223499	-4.3951001	26.927299	60.112301
522	2	4	-0.26197201	-2.6259	25.676701	60.660999
523	2	4	0.833435	-2.0876999	26.6653	61.6236
524	2	5	-0.51905698	-1.0221	26.4333	62.258099
525	2	7	-0.67206502	-2.7595	27.866501	61.839199
526	2	8	0.40787399	-2.4022999	28.5515	62.494598
527	2	4	-0.027619001	-1.9848	24.5096	60.445099
528	2	6	0.212487	-1.0666	24.281	60.973701
529	2	4	-0.17802399	-2.5195999	23.5228	59.485802
530	2	4	0.010823	-1.8961999	22.356199	59.2565
531	2	6	0.201764	-0.97750002	22.116199	59.779099
532	4	1	-0.130638	0.34900001	24.5478	76.055
533	4	2	0.053449001	1.2766	24.6381	77.101501
534	4	2	0.158435	0.57630002	25.0431	78.398201
535	4	1	-0.500723	1.5134	25.1994	79.428101
536	4	3	0.093463004	0.052700002	26.0098	78.244904
537	4	3	0.093463004	-0.1846	24.2787	78.678703
538	4	3	0.101105	2.0337999	25.4074	76.8386
539	4	3	0.101105	1.8054	23.666401	77.236
540	5	4	0.79408997	1.7811	24.243601	79.733704
541	5	5	-0.54623598	2.2853	23.454599	78.892097
542	5	4	-0.269077	1.5718	23.8256	81.131302
543	5	4	-0.081724003	1.0316	24.683201	82.015701
544	5	6	0.22223499	0.7457	25.683599	81.714302
545	5	4	-0.217232	0.8168	24.2743	83.419701
546	5	6	0.19162001	0.3804	24.9807	84.115898
547	5	4	-0.083241001	1.1605	23.041	83.819199
548	5	4	-0.21083701	0.96289998	22.594601	85.209602
549	5	6	0.19162001	0.52999997	23.265301	85.941803
550	5	4	-0.049052	1.3166	21.3571	85.577797
551	5	6	0.20442501	1.161	21.054899	86.605598
552	5	4	-0.33146799	1.9157	20.391199	84.616699
553	5	4	0.58125299	2.277	19.046801	85.107399
554	5	5	-0.568739	2.7878001	18.184299	84.343498
555	5	4	0.010823	2.122	20.7402	83.331398
556	5	6	0.201764	2.5583999	20.035299	82.633301
557	5	4	-0.17802399	1.7567	22.088301	82.853401
558	5	4	-0.032965999	1.9511	22.459299	81.577499
559	5	6	0.212487	2.3870001	21.7633	80.8713
560	1	1	-0.125016	-0.14399999	23.695499	76.185898
561	1	2	0.025431	0.30469999	22.816601	75.190903
562	1	2	0.097459003	-0.32409999	23.172899	73.844002
563	1	7	-0.67537999	0.071400002	22.2528	72.863403
564	1	8	0.39982101	1.0052	22.4853	72.616699
565	1	3	0.099359997	-1.4303	23.139099	73.936897
566	1	3	0.099359997	-0.034000002	24.205999	73.546204
567	1	3	0.101806	0.0081000002	21.783199	75.470497
568	1	3	0.101806	1.416	22.8484	75.117302
569	2	4	0.58125299	2.1029999	18.789101	86.143898
570	2	5	-0.56874001	3.0445001	18.917999	86.971199
571	2	4	-0.33146799	0.77759999	18.2946	86.561996
572	2	4	-0.049052	0.52149999	17.9625	87.8424
573	2	6	0.20442501	1.2852	18.049299	88.604698
574	2	4	-0.21083701	-0.81590003	17.469999	88.233101
575	2	6	0.19162001	-1.0024	17.208599	89.267799
576	2	4	-0.083241001	-1.7821	17.351801	87.311096
577	2	4	-0.217232	-3.1292	16.865101	87.659798
578	2	6	0.19162001	-3.3619001	16.5919	88.682297
579	2	4	-0.074252002	-4.0735998	16.7577	86.716904
580	2	6	0.22223499	-5.0514002	16.395599	87.009399
581	2	4	-0.26197201	-3.8145001	17.117901	85.2938
582	2	4	0.833435	-4.9064999	16.9734	84.303497
583	2	5	-0.51905698	-4.7210002	17.2705	83.0914
584	2	7	-0.67206502	-6.1559	16.507	84.705803
585	2	8	0.40787399	-6.9115	16.4032	84.038902
586	2	4	-0.027619001	-2.6008999	17.569799	84.9161
587	2	6	0.212487	-2.4094999	17.832399	83.882103
588	2	4	-0.17802399	-1.511	17.7145	85.901703
589	2	4	0.010823	-0.29640001	18.161699	85.545799
590	2	6	0.201764	-0.093000002	18.4277	84.5149
591	4	1	-0.130638	-2.6531	40.6688	7.2354002
592	4	2	0.053449001	-1.5185	41.393398	6.8463998
593	4	2	0.158435	-0.54100001	40.487701	6.0978999
594	4	1	-0.500723	0.62260002	41.195599	5.7687998
595	4	3	0.093463004	-0.26390001	39.631699	6.7480001
596	4	3	0.093463004	-1.0213	40.0816	5.1778002
597	4	3	0.101105	-1.0233999	41.792702	7.7572999
598	4	3	0.101105	-1.8108	42.257599	6.2063999
599	5	4	0.79408997	0.38280001	41.801899	4.9604001
600	5	5	-0.54623598	-0.54079998	42.6479	5.0872002
601	5	4	-0.269077	1.1169	41.668598	3.6895001