Title

306 atoms
305 bonds
554 angles
1083 dihedrals
102 impropers

11 atom types
14 bond types
9 angle types
37 dihedral types
3 improper types
-13.20600033 86.79399967 xlo xhi
-2.134000063 97.86599994 ylo yhi
-9.100000381 90.89999962 zlo zhi
0.0 0.0 0.0 xy xz yz

Masses

1	15.99943
2	12.01078
3	14.00672
4	12.01078
5	1.007947
6	1.007947
7	1.007947
8	15.99943
9	12.01078
10	15.99943
11	1.007947


Pair Coeffs

1	0.2102061	3.0398122
2	0.086879315	3.4806469
3	0.16769152	3.206876
4	0.10884061	3.3795318
5	0.014090815	1.1034277
6	0.016409246	2.5832257
7	0.015779483	2.6445434
8	0.16846514	3.0251065
9	0.21	3.3996695
10	0.20947353	2.99716
11	1.2326e-05	0.53453923

Bond Coeffs

1 harmonic	582.698766451	1.225198386222
2 harmonic	492.76746816345	1.381897776683
3 harmonic	301.15400723785	1.345741232799
4 harmonic	352.0565580496	1.450098586273
5 harmonic	505.144496193	1.019481865027
6 harmonic	264.62148576755	1.52190126495
7 harmonic	370.04670688625	1.093899492634
8 harmonic	279.1350963404	1.454628925034
9 harmonic	366.7408841747	1.425895053732
10 harmonic	300.03137914615	1.451203938761
11 harmonic	366.34047229585	1.464762957261
12 harmonic	602.81384337	1.196112346392
13 harmonic	329.96998057905	1.427343958716
14 harmonic	543.5267831885	0.9716763312559


Angle Coeffs

1 harmonic	57.8982893754	126.8062420451
2 harmonic	201.41175231035	127.4691416191
3 harmonic	55.42182150775	117.3465570514
4 harmonic	63.44422595415	115.5071327674
5 harmonic	65.09061609600001	110.3538806181
6 harmonic	53.20531626545	116.5475862634
7 harmonic	48.776492647595	115.6030999533
8 harmonic	55.07882548015	112.8714009681
9 harmonic	33.56981613361	180


Dihedral Coeffs

1 fourier 1	1.809047390003	2	180
2 fourier 1	-0.04816277792592	1	0
3 fourier 1	0.4860993122944	2	180
4 fourier 1	0.8916986138746	1	0
5 fourier 1	1.163809172478	2	180
6 fourier 1	0.1679186987369	1	180
7 fourier 1	-0.1488678166443	4	180
8 fourier 1	-0.1230328948768	3	180
9 fourier 1	0.2939295466901	2	0
10 fourier 1	-0.3024127022865	1	0
11 fourier 1	0.182238503271	2	0
12 fourier 1	0.02972342374561	3	0
13 fourier 1	0.1918272375143	3	0
14 fourier 1	0.9202179876409	1	180
15 fourier 1	0.0473758381877	3	0
16 fourier 1	2.779853741805	2	180
17 fourier 1	0.1155372516788	3	0
18 fourier 1	0.09223874044423	3	0
19 fourier 1	0.3159935921949	2	180
20 fourier 1	0.3247796806857	1	180
21 fourier 1	0.1040663847541	3	0
22 fourier 1	3.101948770557	2	180
23 fourier 1	-0.4252153282372	1	0
24 fourier 1	0.9974165607242	2	180
25 fourier 1	2.348375642009	2	180
26 fourier 1	1.256156174911	1	0
27 fourier 1	0.1911926717192	3	0
28 fourier 1	-0.0309670556842	3	0
29 fourier 1	0.4598191477945	2	0
30 fourier 1	0.1115525666802	3	0
31 fourier 1	0.3432490222662	1	0
32 fourier 1	0.457973137376	1	0
33 fourier 1	-1.382973039546	1	0
34 fourier 1	0	1	0
35 fourier 1	0.3445382149273	3	0
36 fourier 1	0.1364556373303	1	0
37 fourier 1	0.3026390167484	3	0


Improper Coeffs

1 3.5	-1	2
2 0.3333333333333333	-1	2
3 0.3666666666666667	-1	2


Atoms

1	1	1	-0.61181802	5.5929999	0.308	0.098999999
2	1	2	0.78552401	4.6459999	1.073	-0.22499999
3	1	3	-0.466387	3.2980001	0.59799999	-0.25600001
4	1	4	0.024919	2.967	-0.78899997	0.072999999
5	1	4	-0.144633	1.454	-1.039	0.015
6	1	4	-0.14251	0.71100003	-0.33000001	1.16
7	1	4	-0.14251	-0.78399998	-0.685	1.204
8	1	4	-0.145917	-1.574	-0.057999998	0.045000002
9	1	4	0.030745	-3.075	-0.32100001	0.199
10	1	3	-0.52261198	-3.812	0.237	-0.93300003
11	1	2	0.54268998	-4.0619998	1.6390001	-1.0779999
12	1	1	-0.68828303	-3.6559999	2.4619999	-0.215
13	1	5	0.31874999	-4.224	-0.41499999	-1.637
14	1	6	0.052710999	-3.25	-1.419	0.237
15	1	6	0.052710999	-3.454	0.119	1.148
16	1	7	0.087738	-1.39	1.038	0.024
17	1	7	0.087738	-1.2359999	-0.491	-0.92000002
18	1	7	0.086544998	-0.90899998	-1.79	1.194
19	1	7	0.086544998	-1.197	-0.308	2.165
20	1	7	0.086544998	1.164	-0.64300001	2.1270001
21	1	7	0.086544998	0.82999998	0.77100003	1.076
22	1	7	0.087738	1.278	-2.1340001	0.089000002
23	1	7	0.087738	1.0700001	-0.69599998	-0.97000003
24	1	6	0.056272998	3.467	-1.461	-0.65700001
25	1	6	0.056272998	3.3499999	-1.0369999	1.087
26	1	5	0.325333	2.55	1.27	-0.54100001
27	1	8	-0.50051498	2.016	1.673	-0.26499999
28	1	4	0.125732	2.6170001	2.9389999	-0.23800001
29	1	4	0.125732	4.0289998	2.8559999	0.34200001
30	1	8	-0.50051498	4.849	2.0599999	-0.47099999
31	1	6	0.085332997	3.997	2.457	1.382
32	1	6	0.085332997	4.46	3.878	0.38600001
33	1	6	0.085332997	2.003	3.6459999	0.36500001
34	1	6	0.085332997	2.6689999	3.3340001	-1.275
35	1	1	-0.61181802	6.8860002	2.2579999	9.0349998
36	1	2	0.78552401	6.4590001	2.7980001	7.9790001
37	1	3	-0.466387	5.7249999	2.0409999	7.0139999
38	1	4	0.024919	5.4510002	0.616	7.2049999
39	1	4	-0.144633	4.6079998	0.043000001	6.0580001
40	1	4	-0.14251	3.165	0.57700002	6.085
41	1	4	-0.14251	2.267	-0.094999999	5.0339999
42	1	4	-0.144633	2.6070001	0.34299999	3.6010001
43	1	4	0.024919	1.607	-0.241	2.598
44	1	3	-0.466387	1.9680001	0.141	1.234
45	1	2	0.78552401	1.7410001	1.454	0.71100003
46	1	1	-0.61181802	1.205	2.349	1.418
47	1	5	0.325333	2.3540001	-0.58700001	0.59200001
48	1	6	0.056272998	1.617	-1.35	2.6760001
49	1	6	0.056272998	0.57599998	0.11	2.825
50	1	7	0.087738	2.589	1.452	3.539
51	1	7	0.087738	3.625	-0.0099999998	3.3299999
52	1	7	0.086544998	2.346	-1.201	5.1209998
53	1	7	0.086544998	1.214	0.18700001	5.2529998
54	1	7	0.086544998	2.727	0.37400001	7.0869999
55	1	7	0.086544998	3.1559999	1.678	5.934
56	1	7	0.087738	4.5879998	-1.064	6.1589999
57	1	7	0.087738	5.0970001	0.29100001	5.092
58	1	6	0.056272998	6.4159999	0.067000002	7.2459998
59	1	6	0.056272998	4.9250002	0.461	8.1730003
60	1	5	0.325333	5.4029999	2.533	6.1500001
61	1	8	-0.50051498	4.8070002	2.8110001	5.8460002
62	1	4	0.125732	4.9840002	4.178	6.1030002
63	1	4	0.125732	5.402	4.4050002	7.5560002
64	1	8	-0.50051498	6.6440001	3.8050001	7.8109999
65	1	6	0.085332997	4.6230001	4.0120001	8.2489996
66	1	6	0.085332997	5.494	5.4970002	7.7360001
67	1	6	0.085332997	4.0440001	4.7360001	5.8899999
68	1	6	0.085332997	5.7729998	4.5710001	5.428
69	1	1	-0.61181802	0.43099999	4.4699998	15.261
70	1	2	0.78552401	0.92299998	4.901	14.184
71	1	3	-0.466387	1.331	4	13.152
72	1	4	0.024919	1.205	2.55	13.307
73	1	4	-0.144633	1.663	1.804	12.047
74	1	4	-0.14251	0.69199997	2.0109999	10.873
75	1	4	-0.14251	1.056	1.1569999	9.6479998
76	1	4	-0.144633	2.3239999	1.653	8.9379997
77	1	4	0.024919	2.576	0.86400002	7.6490002
78	1	3	-0.466387	3.8110001	1.3099999	7.0079999
79	1	2	0.78552401	3.9059999	2.5409999	6.2839999
80	1	1	-0.61181802	2.908	3.3	6.1620002
81	1	5	0.325333	4.645	0.68099999	7.027
82	1	6	0.056272998	2.6689999	-0.21699999	7.8969998
83	1	6	0.056272998	1.723	0.98199999	6.9450002
84	1	7	0.087738	2.214	2.7320001	8.6949997
85	1	7	0.087738	3.2030001	1.53	9.6049995
86	1	7	0.086544998	1.182	0.094999999	9.9519997
87	1	7	0.086544998	0.204	1.2029999	8.9329996
88	1	7	0.086544998	-0.331	1.72	11.199
89	1	7	0.086544998	0.65799999	3.0829999	10.583
90	1	7	0.087738	1.72	0.71899998	12.285
91	1	7	0.087738	2.6830001	2.1489999	11.775
92	1	6	0.056272998	1.834	2.224	14.163
93	1	6	0.056272998	0.149	2.2869999	13.537
94	1	5	0.325333	1.744	4.408	12.283
95	1	8	-0.50051498	1.581	4.5479999	11.592
96	1	4	0.125732	1.306	5.921	11.652
97	1	4	0.125732	0.39500001	6.2389998	12.839
98	1	8	-0.50051498	1.033	5.9239998	14.047
99	1	6	0.085332997	-0.56900001	5.6880002	12.744
100	1	6	0.085332997	0.16500001	7.3249998	12.834
101	1	6	0.085332997	0.82499999	6.2610002	10.707
102	1	6	0.085332997	2.2620001	6.4749999	11.765
103	1	1	-0.61181802	-8.6639996	5.2449999	13.845
104	1	2	0.78552401	-7.5809999	5.77	13.474
105	1	3	-0.466387	-6.4050002	4.9749999	13.297
106	1	4	0.024919	-6.4099998	3.533	13.546
107	1	4	-0.144633	-5.046	2.901	13.237
108	1	4	-0.14251	-4.7490001	2.888	11.728
109	1	4	-0.14251	-3.4560001	2.1300001	11.388
110	1	4	-0.144633	-2.194	2.888	11.827
111	1	4	0.024919	-0.92799997	2.168	11.351
112	1	3	-0.466387	0.266	2.8699999	11.815
113	1	2	0.78552401	0.72600001	4.0900002	11.224
114	1	1	-0.61181802	0.112	4.6129999	10.257
115	1	5	0.325333	0.84399998	2.438	12.57
116	1	6	0.056272998	-0.921	1.1339999	11.761
117	1	6	0.056272998	-0.91299999	2.096	10.241
118	1	7	0.087738	-2.2149999	3.9159999	11.406
119	1	7	0.087738	-2.1630001	2.96	12.935
120	1	7	0.086544998	-3.4749999	1.122	11.857
121	1	7	0.086544998	-3.4219999	1.988	10.286
122	1	7	0.086544998	-5.5879998	2.3829999	11.202
123	1	7	0.086544998	-4.6859999	3.9260001	11.337
124	1	7	0.087738	-5.053	1.855	13.616
125	1	7	0.087738	-4.2579999	3.4579999	13.786
126	1	6	0.056272998	-6.652	3.3540001	14.616
127	1	6	0.056272998	-7.198	3.0480001	12.93
128	1	5	0.325333	-5.5289998	5.46	12.999
129	1	8	-0.50051498	-5.1059999	5.5599999	12.419
130	1	4	0.125732	-5.5040002	6.8410001	12.011
131	1	4	0.125732	-7.0289998	6.9559999	12.003
132	1	8	-0.50051498	-7.5419998	6.7909999	13.297
133	1	6	0.085332997	-7.4699998	6.2090001	11.304
134	1	6	0.085332997	-7.3099999	7.967	11.638
135	1	6	0.085332997	-5.1040001	7.0650001	10.996
136	1	6	0.085332997	-5.0830002	7.5890002	12.716
137	1	1	-0.61181802	-13.206	4.0190001	5.895
138	1	2	0.78552401	-12.325	4.7659998	6.4000001
139	1	3	-0.466387	-11.364	4.2449999	7.322
140	1	4	0.024919	-11.37	2.8369999	7.7210002
141	1	4	-0.144633	-10.213	2.516	8.677
142	1	4	-0.14251	-8.8500004	2.563	7.9640002
143	1	4	-0.14251	-7.6950002	2.1040001	8.868
144	1	4	-0.144633	-7.3699999	3.119	9.9729996
145	1	4	0.024919	-6.1300001	2.6900001	10.765
146	1	3	-0.466387	-5.8590002	3.6370001	11.844
147	1	2	0.78552401	-5.2789998	4.9260001	11.617
148	1	1	-0.61181802	-4.9679999	5.3000002	10.455
149	1	5	0.325333	-6.039	3.3429999	12.83
150	1	6	0.056272998	-6.309	1.684	11.204
151	1	6	0.056272998	-5.2449999	2.6199999	10.096
152	1	7	0.087738	-7.191	4.1170001	9.5179996
153	1	7	0.087738	-8.2259998	3.2	10.676
154	1	7	0.086544998	-7.9390001	1.117	9.3190002
155	1	7	0.086544998	-6.7940001	1.969	8.2299995
156	1	7	0.086544998	-8.8839998	1.886	7.0830002
157	1	7	0.086544998	-8.6450005	3.589	7.5900002
158	1	7	0.087738	-10.373	1.495	9.0869999
159	1	7	0.087738	-10.235	3.233	9.5240002
160	1	6	0.056272998	-12.329	2.6140001	8.2349997
161	1	6	0.056272998	-11.304	2.191	6.8189998
162	1	5	0.325333	-10.662	4.9089999	7.7199998
163	1	8	-0.50051498	-9.9650002	5.0960002	7.664
164	1	4	0.125732	-10.059	6.2579999	6.8860002
165	1	4	0.125732	-10.997	6.04	5.698
166	1	8	-0.50051498	-12.3	5.7709999	6.1430001
167	1	6	0.085332997	-10.62	5.2119999	5.0549998
168	1	6	0.085332997	-11.018	6.9629998	5.0819998
169	1	6	0.085332997	-9.052	6.5609999	6.5190001
170	1	6	0.085332997	-10.452	7.0830002	7.5180001
171	1	1	-0.61181802	-9.5979996	1.811	-2.3169999
172	1	2	0.78552401	-9.5559998	2.733	-1.459
173	1	3	-0.466387	-9.6199999	2.4360001	-0.061000001
174	1	4	0.024919	-9.7480001	1.062	0.42500001
175	1	4	-0.144633	-9.7469997	1.003	1.959
176	1	4	-0.14251	-8.3660002	1.3430001	2.5450001
177	1	4	-0.14251	-8.3070002	1.149	4.0679998
178	1	4	-0.144633	-9.1079998	2.214	4.8309999
179	1	4	0.024919	-8.9130001	2.0669999	6.3439999
180	1	3	-0.466387	-9.7180004	3.0539999	7.0619998
181	1	2	0.78552401	-9.3579998	4.4369998	7.1399999
182	1	1	-0.61181802	-8.3100004	4.8660002	6.5879998
183	1	5	0.325333	-10.559	2.73	7.5900002
184	1	6	0.056272998	-9.2309999	1.048	6.6550002
185	1	6	0.056272998	-7.8410001	2.1889999	6.6139998
186	1	7	0.087738	-8.7749996	3.2249999	4.5120001
187	1	7	0.087738	-10.189	2.109	4.6030002
188	1	7	0.086544998	-8.6759996	0.134	4.3330002
189	1	7	0.086544998	-7.2410002	1.211	4.3800001
190	1	7	0.086544998	-7.6069999	0.67299998	2.085
191	1	7	0.086544998	-8.085	2.388	2.2909999
192	1	7	0.087738	-10.029	-0.027000001	2.2679999
193	1	7	0.087738	-10.518	1.701	2.3469999
194	1	6	0.056272998	-10.705	0.63700002	0.052999999
195	1	6	0.056272998	-8.9169998	0.442	0.024
196	1	5	0.325333	-9.592	3.2379999	0.60900003
197	1	8	-0.50051498	-9.1479998	3.572	1.073
198	1	4	0.125732	-8.7530003	4.684	0.315
199	1	4	0.125732	-8.3669996	4.2620001	-1.103
200	1	8	-0.50051498	-9.4729996	3.7179999	-1.772
201	1	6	0.085332997	-7.5240002	3.5350001	-1.075
202	1	6	0.085332997	-8.0220003	5.158	-1.6619999
203	1	6	0.085332997	-7.8930001	5.197	0.80199999
204	1	6	0.085332997	-9.5959997	5.4050002	0.26800001
205	1	1	-0.61181802	-0.68800002	0.41499999	-4.3109999
206	1	2	0.78552401	-1.455	1.326	-3.902
207	1	3	-0.466387	-2.5469999	1.027	-3.0280001
208	1	4	0.024919	-2.822	-0.34099999	-2.586
209	1	4	-0.144633	-4.0120001	-0.39300001	-1.618
210	1	4	-0.14251	-3.6730001	0.241	-0.25799999
211	1	4	-0.14251	-4.8010001	0.068999998	0.77100003
212	1	4	-0.144633	-6.0279999	0.93699998	0.454
213	1	4	0.024919	-7.072	0.83999997	1.571
214	1	3	-0.466387	-8.2550001	1.631	1.2359999
215	1	2	0.78552401	-8.2810001	3.059	1.321
216	1	1	-0.61181802	-7.2690001	3.704	1.702
217	1	5	0.325333	-9.1370001	1.133	0.98000002
218	1	6	0.056272998	-7.3730001	-0.223	1.698
219	1	6	0.056272998	-6.6459999	1.193	2.5350001
220	1	7	0.087738	-5.711	1.995	0.33399999
221	1	7	0.087738	-6.4949999	0.59799999	-0.49599999
222	1	7	0.086544998	-5.099	-1.002	0.829
223	1	7	0.086544998	-4.4029999	0.36199999	1.767
224	1	7	0.086544998	-2.7620001	-0.25	0.149
225	1	7	0.086544998	-3.4430001	1.321	-0.382
226	1	7	0.087738	-4.2880001	-1.459	-1.464
227	1	7	0.087738	-4.8790002	0.122	-2.0840001
228	1	6	0.056272998	-3.0580001	-0.96499997	-3.4749999
229	1	6	0.056272998	-1.919	-0.76599997	-2.0969999
230	1	5	0.325333	-3.1600001	1.818	-2.727
231	1	8	-0.50051498	-3.2969999	2.2420001	-2.1559999
232	1	4	0.125732	-2.612	3.411	-2.5179999
233	1	4	0.125732	-1.212	3.079	-3.0369999
234	1	8	-0.50051498	-1.291	2.3050001	-4.204
235	1	6	0.085332997	-0.62400001	2.552	-2.2520001
236	1	6	0.085332997	-0.685	4.026	-3.276
237	1	6	0.085332997	-2.5369999	4.0999999	-1.647
238	1	6	0.085332997	-3.1849999	3.931	-3.3139999
239	1	1	-0.61181802	6.4889998	0.98299998	1.476
240	1	2	0.784509	5.5799999	1.707	0.99000001
241	1	3	-0.466387	4.2709999	1.181	0.75400001
242	1	4	0.024919	3.9400001	-0.213	1.056
243	1	4	-0.144633	2.4660001	-0.51999998	0.76200002
244	1	4	-0.14251	1.525	0.177	1.7589999
245	1	4	-0.14251	0.056000002	-0.234	1.571
246	1	4	-0.144633	-0.56	0.34599999	0.289
247	1	4	0.024919	-2.056	0.028000001	0.207
248	1	3	-0.466387	-2.6210001	0.542	-1.04
249	1	2	0.78552401	-2.8940001	1.9299999	-1.252
250	1	1	-0.61181802	-2.6600001	2.7809999	-0.35299999
251	1	5	0.325333	-2.892	-0.13600001	-1.7869999
252	1	6	0.056272998	-2.197	-1.074	0.23899999
253	1	6	0.056272998	-2.5969999	0.46799999	1.073
254	1	7	0.087738	-0.414	1.448	0.27399999
255	1	7	0.087738	-0.057	-0.089000002	-0.60100001
256	1	7	0.086544998	-0.028000001	-1.3430001	1.5650001
257	1	7	0.086544998	-0.51899999	0.142	2.4460001
258	1	7	0.086544998	1.8279999	-0.103	2.7920001
259	1	7	0.086544998	1.617	1.281	1.6720001
260	1	7	0.087738	2.3180001	-1.62	0.83099997
261	1	7	0.087738	2.233	-0.207	-0.278
262	1	6	0.056272998	4.5749998	-0.87599999	0.42899999
263	1	6	0.056272998	4.165	-0.43000001	2.1229999
264	1	5	0.325333	3.556	1.819	0.33899999
265	1	8	-0.15181901	2.971	2.2060001	0.51800001
266	1	4	0.049819	3.5150001	3.494	0.61400002
267	1	4	0.126375	4.8179998	3.473	1.414
268	1	8	-0.49890801	5.7849998	2.697	0.759
269	1	6	0.088855997	4.6339998	3.089	2.4430001
270	1	6	0.088855997	5.1999998	4.5120001	1.5039999
271	1	6	0.087916002	2.7880001	4.1859999	1.097
272	1	6	0.087916002	3.7179999	3.875	-0.41
273	1	1	-0.68828303	-5.77	1.549	-2.1619999
274	1	2	0.54268998	-4.6149998	1.998	-1.936
275	1	3	-0.52261198	-4.026	2.9749999	-2.799
276	1	4	0.030745	-4.7350001	3.4860001	-3.9719999
277	1	4	-0.145917	-3.8829999	4.5229998	-4.7150002
278	1	4	-0.142326	-4.645	5.2210002	-5.8540001
279	1	4	-0.13812099	-5.0100002	4.2800002	-7.0219998
280	1	4	-0.122313	-6.4879999	3.8599999	-6.9879999
281	1	4	0.18413199	-6.8109999	2.8859999	-8.1219997
282	1	3	-0.64567101	-8.2259998	2.5339999	-8.0780001
283	1	9	0.59316802	-8.6169996	1.332	-7.934
284	1	1	-0.47175199	-8.9969997	0.163	-7.7930002
285	1	6	0.031372	-6.5939999	3.3659999	-9.1000004
286	1	6	0.031372	-6.171	1.978	-8.0290003
287	1	7	0.081376001	-7.1279998	4.763	-7.092
288	1	7	0.081376001	-6.7280002	3.3759999	-6.0180001
289	1	7	0.085263997	-4.8249998	4.8150001	-7.9790001
290	1	7	0.085263997	-4.3559999	3.3800001	-7.02
291	1	7	0.086544998	-3.9820001	6.0219998	-6.25
292	1	7	0.086544998	-5.546	5.7319999	-5.4489999
293	1	7	0.087738	-3.559	5.302	-3.9920001
294	1	7	0.087738	-2.9679999	4.0349998	-5.1170001
295	1	6	0.052710999	-5.6890001	3.954	-3.645
296	1	6	0.052710999	-4.961	2.6359999	-4.6500001
297	1	5	0.31874999	-3.0639999	3.3139999	-2.5710001
298	1	8	-0.14606901	2.569	2.0009999	1.403
299	1	4	0.020028001	2.5539999	0.60500002	1.523
300	1	4	0.092030004	3.9549999	0.071999997	1.822
301	1	10	-0.68335199	4.4120002	0.55599999	3.056
302	1	11	0.38806	4.7540002	1.474	2.8940001
303	1	6	0.084682003	4.658	0.34900001	1.0039999
304	1	6	0.084682003	3.915	-1.0369999	1.8710001
305	1	6	0.088587999	2.1670001	0.141	0.58700001
306	1	6	0.088587999	1.869	0.32300001	2.3499999

Bonds

1	1	1	2
2	2	2	3
3	3	2	30
4	4	3	4
5	5	3	26
6	6	4	5
7	7	4	24
8	7	4	25
9	6	5	6
10	7	5	22
11	7	5	23
12	6	6	7
13	7	6	20
14	7	6	21
15	6	7	8
16	7	7	18
17	7	7	19
18	6	8	9
19	7	8	16
20	7	8	17
21	4	9	10
22	7	9	14
23	7	9	15
24	2	10	11
25	5	10	13
26	1	11	12
27	8	11	274
28	9	27	28
29	3	27	45
30	6	28	29
31	7	28	33
32	7	28	34
33	9	29	30
34	7	29	31
35	7	29	32
36	1	35	36
37	2	36	37
38	3	36	64
39	4	37	38
40	5	37	60
41	6	38	39
42	7	38	58
43	7	38	59
44	6	39	40
45	7	39	56
46	7	39	57
47	6	40	41
48	7	40	54
49	7	40	55
50	6	41	42
51	7	41	52
52	7	41	53
53	6	42	43
54	7	42	50
55	7	42	51
56	4	43	44
57	7	43	48
58	7	43	49
59	2	44	45
60	5	44	47
61	1	45	46
62	9	61	62
63	3	61	79
64	6	62	63
65	7	62	67
66	7	62	68
67	9	63	64
68	7	63	65
69	7	63	66
70	1	69	70
71	2	70	71
72	3	70	98
73	4	71	72
74	5	71	94
75	6	72	73
76	7	72	92
77	7	72	93
78	6	73	74
79	7	73	90
80	7	73	91
81	6	74	75
82	7	74	88
83	7	74	89
84	6	75	76
85	7	75	86
86	7	75	87
87	6	76	77
88	7	76	84
89	7	76	85
90	4	77	78
91	7	77	82
92	7	77	83
93	2	78	79
94	5	78	81
95	1	79	80
96	9	95	96
97	3	95	113
98	6	96	97
99	7	96	101
100	7	96	102
101	9	97	98
102	7	97	99
103	7	97	100
104	1	103	104
105	2	104	105
106	3	104	132
107	4	105	106
108	5	105	128
109	6	106	107
110	7	106	126
111	7	106	127
112	6	107	108
113	7	107	124
114	7	107	125
115	6	108	109
116	7	108	122
117	7	108	123
118	6	109	110
119	7	109	120
120	7	109	121
121	6	110	111
122	7	110	118
123	7	110	119
124	4	111	112
125	7	111	116
126	7	111	117
127	2	112	113
128	5	112	115
129	1	113	114
130	9	129	130
131	3	129	147
132	6	130	131
133	7	130	135
134	7	130	136
135	9	131	132
136	7	131	133
137	7	131	134
138	1	137	138
139	2	138	139
140	3	138	166
141	4	139	140
142	5	139	162
143	6	140	141
144	7	140	160
145	7	140	161
146	6	141	142
147	7	141	158
148	7	141	159
149	6	142	143
150	7	142	156
151	7	142	157
152	6	143	144
153	7	143	154
154	7	143	155
155	6	144	145
156	7	144	152
157	7	144	153
158	4	145	146
159	7	145	150
160	7	145	151
161	2	146	147
162	5	146	149
163	1	147	148
164	9	163	164
165	3	163	181
166	6	164	165
167	7	164	169
168	7	164	170
169	9	165	166
170	7	165	167
171	7	165	168
172	1	171	172
173	2	172	173
174	3	172	200
175	4	173	174
176	5	173	196
177	6	174	175
178	7	174	194
179	7	174	195
180	6	175	176
181	7	175	192
182	7	175	193
183	6	176	177
184	7	176	190
185	7	176	191
186	6	177	178
187	7	177	188
188	7	177	189
189	6	178	179
190	7	178	186
191	7	178	187
192	4	179	180
193	7	179	184
194	7	179	185
195	2	180	181
196	5	180	183
197	1	181	182
198	9	197	198
199	3	197	215
200	6	198	199
201	7	198	203
202	7	198	204
203	9	199	200
204	7	199	201
205	7	199	202
206	1	205	206
207	2	206	207
208	3	206	234
209	4	207	208
210	5	207	230
211	6	208	209
212	7	208	228
213	7	208	229
214	6	209	210
215	7	209	226
216	7	209	227
217	6	210	211
218	7	210	224
219	7	210	225
220	6	211	212
221	7	211	222
222	7	211	223
223	6	212	213
224	7	212	220
225	7	212	221
226	4	213	214
227	7	213	218
228	7	213	219
229	2	214	215
230	5	214	217
231	1	215	216
232	9	231	232
233	3	231	249
234	6	232	233
235	7	232	237
236	7	232	238
237	9	233	234
238	7	233	235
239	7	233	236
240	1	239	240
241	2	240	241
242	3	240	268
243	4	241	242
244	5	241	264
245	6	242	243
246	7	242	262
247	7	242	263
248	6	243	244
249	7	243	260
250	7	243	261
251	6	244	245
252	7	244	258
253	7	244	259
254	6	245	246
255	7	245	256
256	7	245	257
257	6	246	247
258	7	246	254
259	7	246	255
260	4	247	248
261	7	247	252
262	7	247	253
263	2	248	249
264	5	248	251
265	1	249	250
266	9	265	266
267	10	265	298
268	6	266	267
269	7	266	271
270	7	266	272
271	9	267	268
272	7	267	269
273	7	267	270
274	1	273	274
275	2	274	275
276	4	275	276
277	5	275	297
278	6	276	277
279	7	276	295
280	7	276	296
281	6	277	278
282	7	277	293
283	7	277	294
284	6	278	279
285	7	278	291
286	7	278	292
287	6	279	280
288	7	279	289
289	7	279	290
290	6	280	281
291	7	280	287
292	7	280	288
293	11	281	282
294	7	281	285
295	7	281	286
296	12	282	283
297	1	283	284
298	9	298	299
299	6	299	300
300	7	299	305
301	7	299	306
302	13	300	301
303	7	300	303
304	7	300	304
305	14	301	302

Angles

1	6	131	130	136
2	6	214	213	218
3	1	137	138	139
4	6	107	108	123
5	6	27	28	29
6	6	281	280	288
7	6	78	77	83
8	7	99	97	100
9	6	244	243	260
10	6	41	40	55
11	3	274	275	276
12	6	8	7	18
13	6	62	63	66
14	6	277	276	296
15	6	74	73	91
16	3	240	241	242
17	4	79	78	81
18	6	210	211	222
19	6	40	39	57
20	6	63	62	68
21	6	74	75	87
22	6	42	41	53
23	7	285	281	286
24	6	209	208	228
25	7	235	233	236
26	6	37	38	59
27	7	222	211	223
28	4	2	3	26
29	6	96	97	99
30	6	4	5	22
31	6	42	43	49
32	6	37	38	39
33	6	40	41	42
34	6	75	74	89
35	6	107	108	109
36	6	198	199	202
37	6	166	165	168
38	7	152	144	153
39	6	233	232	238
40	6	300	299	305
41	6	75	76	85
42	6	43	42	51
43	4	11	10	13
44	6	210	209	226
45	6	38	39	57
46	6	199	198	204
47	6	107	106	127
48	6	178	177	189
49	7	67	62	68
50	6	111	110	118
51	4	43	44	47
52	5	265	298	299
53	1	105	104	132
54	6	178	179	185
55	6	234	233	236
56	6	4	5	6
57	7	54	40	55
58	6	98	97	99
59	1	207	206	234
60	6	10	9	14
61	4	206	207	230
62	5	172	200	199
63	6	174	175	193
64	6	9	8	16
65	7	203	198	204
66	6	268	267	269
67	6	276	277	293
68	4	179	180	183
69	7	90	73	91
70	6	163	164	170
71	7	289	279	290
72	6	265	266	271
73	7	305	299	306
74	7	169	164	170
75	6	41	42	50
76	6	110	111	117
77	6	105	106	107
78	7	190	176	191
79	6	266	267	270
80	1	11	274	273
81	5	28	27	45
82	1	71	70	98
83	6	30	29	32
84	7	167	165	168
85	6	211	210	224
86	6	95	96	97
87	6	246	247	253
88	7	50	42	51
89	6	165	164	170
90	7	92	72	93
91	7	154	143	155
92	6	61	62	63
93	6	112	111	117
94	6	6	5	23
95	6	131	130	135
96	4	276	275	297
97	6	144	145	146
98	6	107	108	122
99	4	145	146	149
100	6	211	212	213
101	2	35	36	64
102	6	281	280	287
103	6	41	42	43
104	6	78	77	82
105	6	132	131	134
106	6	105	106	127
107	6	8	9	10
108	6	298	299	300
109	7	22	5	23
110	6	197	198	199
111	6	62	63	65
112	7	56	39	57
113	6	277	276	295
114	6	74	73	90
115	6	108	109	110
116	7	33	28	34
117	6	40	39	56
118	6	95	96	101
119	6	63	62	67
120	6	74	75	86
121	6	173	174	194
122	6	130	131	134
123	6	267	266	272
124	2	69	70	98
125	6	40	41	52
126	6	212	213	219
127	1	241	240	268
128	2	129	147	148
129	6	198	199	201
130	4	70	71	94
131	6	75	76	84
132	6	164	165	167
133	4	247	248	251
134	4	36	37	60
135	6	231	232	237
136	6	207	208	209
137	6	199	198	203
138	6	107	106	126
139	6	145	144	153
140	1	35	36	37
141	6	108	107	125
142	3	138	139	140
143	3	111	112	113
144	7	122	108	123
145	6	108	109	121
146	6	232	233	235
147	7	156	142	157
148	6	277	278	291
149	7	133	131	134
150	6	207	208	229
151	4	249	248	251
152	5	96	95	113
153	5	266	265	298
154	7	126	106	127
155	1	69	70	71
156	3	9	10	11
157	6	72	73	74
158	6	75	76	77
159	6	266	267	269
160	6	298	299	306
161	6	73	72	92
162	7	260	243	261
163	6	245	244	259
164	6	38	39	40
165	6	6	7	19
166	6	245	246	255
167	6	278	279	290
168	6	213	212	221
169	6	30	29	31
170	4	140	139	162
171	6	71	72	93
172	1	231	249	248
173	4	213	214	217
174	6	71	72	73
175	1	248	249	250
176	3	2	3	4
177	6	165	164	169
178	7	258	244	259
179	6	275	276	277
180	6	39	40	55
181	6	241	242	263
182	6	29	28	33
183	6	112	111	116
184	6	174	175	176
185	6	241	242	243
186	6	109	108	123
187	6	7	8	17
188	6	6	5	22
189	7	48	43	49
190	7	101	96	102
191	6	132	131	133
192	6	143	144	153
193	6	208	209	227
194	6	62	63	64
195	6	108	109	120
196	6	76	75	87
197	4	4	3	26
198	7	16	8	17
199	5	198	197	215
200	6	44	43	49
201	6	74	75	76
202	6	200	199	202
203	6	212	213	218
204	5	62	61	79
205	6	276	277	278
206	6	77	76	85
207	6	198	199	200
208	6	265	266	267
209	6	72	73	91
210	6	97	96	102
211	3	206	207	208
212	6	5	4	24
213	6	164	165	166
214	1	197	215	214
215	2	239	240	268
216	6	180	179	185
217	4	240	241	264
218	7	201	199	202
219	6	141	140	161
220	6	108	107	124
221	6	146	145	151
222	6	141	142	157
223	5	70	98	97
224	6	176	175	193
225	6	232	233	234
226	5	164	163	181
227	7	237	232	238
228	6	179	178	187
229	4	181	180	183
230	1	10	11	274
231	5	36	64	63
232	6	176	177	189
233	7	291	278	292
234	6	109	110	118
235	6	106	107	108
236	6	5	6	21
237	4	147	146	149
238	5	104	132	131
239	4	104	105	128
240	6	142	143	155
241	7	150	145	151
242	6	282	281	286
243	6	266	267	268
244	6	129	130	135
245	6	175	176	191
246	2	205	206	234
247	6	245	244	258
248	6	177	178	187
249	6	279	280	288
250	6	76	77	82
251	6	299	300	304
252	6	245	246	254
253	1	239	240	241
254	6	242	243	244
255	6	248	247	253
256	6	278	279	280
257	7	84	76	85
258	6	71	72	92
259	6	28	29	30
260	1	205	206	207
261	5	232	231	249
262	7	184	179	185
263	6	241	242	262
264	1	27	45	44
265	6	42	43	44
266	6	109	108	122
267	6	109	110	111
268	1	78	79	80
269	6	244	245	257
270	7	192	175	193
271	6	142	141	159
272	1	273	274	275
273	6	8	9	15
274	6	301	300	304
275	6	231	232	233
276	6	41	40	54
277	7	218	213	219
278	7	58	38	59
279	6	175	174	195
280	6	178	179	180
281	6	245	246	247
282	6	76	75	86
283	1	173	172	200
284	6	209	210	225
285	6	141	142	143
286	6	208	209	210
287	6	42	41	52
288	7	293	277	294
289	6	37	38	58
290	6	200	199	201
291	6	246	245	257
292	4	72	71	94
293	6	96	97	98
294	6	42	43	48
295	6	75	74	88
296	7	194	174	195
297	2	61	79	80
298	6	77	76	84
299	6	163	164	165
300	6	166	165	167
301	1	95	113	112
302	6	72	73	90
303	6	214	213	219
304	6	233	232	237
305	7	160	140	161
306	1	11	274	275
307	1	163	181	180
308	6	43	42	50
309	6	110	111	112
310	6	38	39	56
311	6	178	177	188
312	7	24	4	25
313	3	172	173	174
314	6	175	176	177
315	6	141	140	160
316	6	242	243	261
317	7	271	266	272
318	6	178	179	184
319	6	299	300	301
320	6	146	145	150
321	7	124	107	125
322	6	110	109	121
323	6	234	233	235
324	6	141	142	156
325	7	31	29	32
326	7	158	141	159
327	7	135	130	136
328	6	179	178	186
329	6	246	247	248
330	6	209	208	229
331	6	174	175	192
332	6	212	211	223
333	6	209	210	211
334	6	5	6	20
335	5	240	268	267
336	6	163	164	169
337	6	142	143	154
338	6	106	107	125
339	6	6	7	8
340	6	27	28	34
341	6	300	299	306
342	6	110	111	116
343	7	262	242	263
344	6	282	281	285
345	6	175	176	190
346	5	300	301	302
347	7	118	110	119
348	6	247	246	255
349	4	138	139	162
350	6	210	211	223
351	4	38	37	60
352	4	111	112	115
353	4	215	214	217
354	6	39	38	59
355	6	98	97	100
356	6	243	242	263
357	6	246	247	252
358	6	10	9	15
359	1	112	113	114
360	3	77	78	79
361	6	243	244	259
362	6	268	267	270
363	6	276	277	294
364	7	254	246	255
365	7	226	209	227
366	6	212	213	214
367	4	174	173	196
368	2	171	172	200
369	6	211	212	221
370	1	139	138	166
371	4	9	10	13
372	6	301	300	303
373	6	105	106	126
374	6	110	109	120
375	7	252	247	253
376	6	175	174	194
377	7	20	6	21
378	1	1	2	3
379	6	140	141	142
380	2	1	2	30
381	6	209	210	224
382	2	231	249	250
383	6	278	277	294
384	6	211	210	225
385	6	130	131	133
386	6	267	266	271
387	6	64	63	66
388	6	246	245	256
389	6	212	211	222
390	6	7	6	21
391	4	242	241	264
392	7	287	280	288
393	6	6	7	18
394	1	171	172	173
395	1	3	2	30
396	7	14	9	15
397	6	129	130	131
398	6	145	144	152
399	3	43	44	45
400	7	65	63	66
401	6	242	243	260
402	6	76	77	78
403	6	143	142	157
404	6	95	96	102
405	4	45	44	47
406	6	173	174	195
407	6	277	278	279
408	6	280	281	282
409	6	61	62	68
410	6	40	41	53
411	4	106	105	128
412	6	144	143	155
413	7	18	7	19
414	6	39	40	41
415	6	207	208	228
416	6	173	174	175
417	6	176	177	178
418	3	179	180	181
419	6	139	140	161
420	6	243	244	245
421	6	3	4	5
422	7	88	74	89
423	7	82	77	83
424	6	106	107	124
425	6	27	28	33
426	6	73	74	89
427	6	139	140	141
428	6	142	143	144
429	6	144	145	151
430	6	177	176	191
431	6	279	278	292
432	6	164	165	168
433	2	197	215	216
434	4	208	207	230
435	6	231	232	238
436	6	298	299	305
437	1	12	11	274
438	6	247	246	254
439	6	197	198	204
440	6	140	141	159
441	6	278	279	289
442	7	86	75	87
443	1	103	104	105
444	6	213	212	220
445	2	103	104	132
446	6	280	279	290
447	6	39	38	58
448	6	275	276	296
449	7	52	41	53
450	6	232	233	236
451	6	243	242	262
452	6	277	278	292
453	6	280	281	286
454	6	39	40	54
455	6	243	244	258
456	5	206	234	233
457	5	138	166	165
458	6	7	8	16
459	6	211	212	220
460	6	3	4	25
461	7	303	300	304
462	3	145	146	147
463	6	244	245	246
464	7	188	177	189
465	6	73	72	93
466	6	143	144	152
467	6	279	280	281
468	9	282	283	284
469	6	208	209	226
470	1	37	36	64
471	5	130	129	147
472	1	44	45	46
473	6	5	6	7
474	6	28	29	32
475	6	278	277	293
476	7	295	276	296
477	7	186	178	187
478	6	44	43	48
479	2	27	45	46
480	6	130	131	132
481	6	64	63	65
482	6	29	28	34
483	1	61	79	78
484	1	129	147	146
485	8	281	282	283
486	6	7	6	20
487	6	97	96	101
488	1	180	181	182
489	3	70	71	72
490	6	73	74	75
491	3	247	248	249
492	4	274	275	297
493	6	244	243	261
494	6	143	144	145
495	1	146	147	148
496	6	180	179	184
497	3	36	37	38
498	6	143	142	156
499	6	176	175	192
500	6	210	211	212
501	6	61	62	67
502	6	7	8	9
503	6	176	177	188
504	6	96	97	100
505	6	144	143	154
506	6	4	5	23
507	1	10	11	12
508	6	139	140	160
509	2	95	113	114
510	6	144	145	150
511	6	73	74	88
512	6	177	176	190
513	6	279	278	291
514	2	163	181	182
515	6	5	4	25
516	4	172	173	196
517	6	210	209	227
518	6	177	178	186
519	6	279	280	287
520	6	111	110	119
521	4	113	112	115
522	6	197	198	203
523	6	140	141	158
524	6	299	300	303
525	7	269	267	270
526	6	248	247	252
527	6	280	279	289
528	6	8	7	19
529	6	275	276	295
530	3	213	214	215
531	6	280	281	285
532	7	256	245	257
533	6	9	8	17
534	2	137	138	166
535	6	109	110	119
536	6	265	266	272
537	6	244	245	256
538	6	3	4	24
539	6	41	42	51
540	6	142	141	158
541	6	8	9	14
542	6	129	130	136
543	6	177	178	179
544	6	76	77	83
545	7	116	111	117
546	7	224	210	225
547	5	2	30	29
548	7	120	109	121
549	7	220	212	221
550	6	28	29	31
551	4	77	78	81
552	7	228	208	229
553	1	214	215	216
554	3	104	105	106

Dihedrals

1	27	100	97	96	102
2	21	41	42	43	49
3	7	206	207	208	209
3	8	206	207	208	209
3	9	206	207	208	209
3	10	206	207	208	209
4	11	229	208	207	230