Title

396 atoms
404 bonds
770 angles
1639 dihedrals
102 impropers

11 atom types
14 bond types
9 angle types
35 dihedral types
3 improper types
-8.996999741 91.00300026 xlo xhi
-29.21500015 70.78499985 ylo yhi
-35.27099991 64.72900009 zlo zhi
0.0 0.0 0.0 xy xz yz

Masses

1	15.99943
2	12.01078
3	14.00672
4	12.01078
5	1.007947
6	1.007947
7	1.007947
8	15.99943
9	12.01078
10	15.99943
11	1.007947


Pair Coeffs

1	0.2102061	3.0398122
2	0.086879315	3.4806469
3	0.16769152	3.206876
4	0.10884061	3.3795318
5	0.014090815	1.1034277
6	0.016409246	2.5832257
7	0.015779483	2.6445434
8	0.16846514	3.0251065
9	0.21	3.3996695
10	0.20947353	2.99716
11	1.2326e-05	0.53453923

Bond Coeffs

1 harmonic	582.698766451	1.225198386222
2 harmonic	492.76746816345	1.381897776683
3 harmonic	301.15400723785	1.345741232799
4 harmonic	352.0565580496	1.450098586273
5 harmonic	505.144496193	1.019481865027
6 harmonic	264.62148576755	1.52190126495
7 harmonic	370.04670688625	1.093899492634
8 harmonic	279.1350963404	1.454628925034
9 harmonic	366.7408841747	1.425895053732
10 harmonic	300.03137914615	1.451203938761
11 harmonic	366.34047229585	1.464762957261
12 harmonic	602.81384337	1.196112346392
13 harmonic	329.96998057905	1.427343958716
14 harmonic	543.5267831885	0.9716763312559


Angle Coeffs

1 harmonic	57.8982893754	126.8062420451
2 harmonic	201.41175231035	127.4691416191
3 harmonic	55.42182150775	117.3465570514
4 harmonic	63.44422595415	115.5071327674
5 harmonic	65.09061609600001	110.3538806181
6 harmonic	53.20531626545	116.5475862634
7 harmonic	48.776492647595	115.6030999533
8 harmonic	55.07882548015	112.8714009681
9 harmonic	33.56981613361	180


Dihedral Coeffs

1 fourier 1	1.809047390003	2	180
2 fourier 1	-0.04816277792592	1	0
3 fourier 1	0.4860993122944	2	180
4 fourier 1	0.8916986138746	1	0
5 fourier 1	1.163809172478	2	180
6 fourier 1	0.1679186987369	1	180
7 fourier 1	-0.1488678166443	4	180
8 fourier 1	-0.1230328948768	3	180
9 fourier 1	0.2939295466901	2	0
10 fourier 1	-0.3024127022865	1	0
11 fourier 1	0.182238503271	2	0
12 fourier 1	0.02972342374561	3	0
13 fourier 1	0.1918272375143	3	0
14 fourier 1	0.9202179876409	1	180
15 fourier 1	0.0473758381877	3	0
16 fourier 1	2.779853741805	2	180
17 fourier 1	0.1155372516788	3	0
18 fourier 1	0.09223874044423	3	0
19 fourier 1	0.3159935921949	2	180
20 fourier 1	0.3247796806857	1	180
21 fourier 1	0.1040663847541	3	0
22 fourier 1	3.101948770557	2	180
23 fourier 1	-0.4252153282372	1	0
24 fourier 1	0.9974165607242	2	180
25 fourier 1	2.348375642009	2	180
26 fourier 1	1.256156174911	1	0
27 fourier 1	0.1911926717192	3	0
28 fourier 1	0.1115525666802	3	0
29 fourier 1	0.3432490222662	1	0
30 fourier 1	0.457973137376	1	0
31 fourier 1	-1.382973039546	1	0
32 fourier 1	0	1	0
33 fourier 1	0.3445382149273	3	0
34 fourier 1	0.1364556373303	1	0
35 fourier 1	0.3026390167484	3	0


Improper Coeffs

1 3.5	-1	2
2 0.3333333333333333	-1	2
3 0.3666666666666667	-1	2


Atoms

1	1	1	-0.61929601	5.5929999	0.308	0.098999999
2	1	2	0.80971801	4.6459999	1.073	-0.22499999
3	1	3	-0.48261499	3.2980001	0.59799999	-0.25600001
4	1	4	0.02764	2.967	-0.78899997	0.072999999
5	1	4	-0.145749	1.454	-1.039	0.015
6	1	4	-0.14358699	0.71100003	-0.33000001	1.16
7	1	4	-0.14358699	-0.78399998	-0.685	1.204
8	1	4	-0.147028	-1.574	-0.057999998	0.045000002
9	1	4	0.029402999	-3.075	-0.32100001	0.199
10	1	3	-0.52493399	-3.812	0.237	-0.93300003
11	1	2	0.54079801	-4.0619998	1.6390001	-1.0779999
12	1	1	-0.70052099	-3.6559999	2.4619999	-0.215
13	1	5	0.31622601	-4.224	-0.41499999	-1.637
14	1	6	0.048829999	-3.25	-1.419	0.237
15	1	6	0.048829999	-3.454	0.119	1.148
16	1	7	0.084875003	-1.39	1.038	0.024
17	1	7	0.084875003	-1.2359999	-0.491	-0.92000002
18	1	7	0.083764002	-0.90899998	-1.79	1.194
19	1	7	0.083764002	-1.197	-0.308	2.165
20	1	7	0.083764002	1.164	-0.64300001	2.1270001
21	1	7	0.083764002	0.82999998	0.77100003	1.076
22	1	7	0.084875003	1.278	-2.1340001	0.089000002
23	1	7	0.084875003	1.0700001	-0.69599998	-0.97000003
24	1	6	0.052351002	3.467	-1.461	-0.65700001
25	1	6	0.052351002	3.3499999	-1.0369999	1.087
26	1	5	0.324184	2.55	1.27	-0.54100001
27	1	8	-0.5248	5.474	2.0250001	-4.927
28	1	4	0.18974701	6.6040001	2.5469999	-4.2740002
29	1	4	-0.160521	6.2189999	3.8039999	-3.4749999
30	1	4	-0.160521	5.1859999	3.5009999	-2.369
31	1	4	0.18974701	5.283	2.066	-1.806
32	1	4	-0.160521	6.7210002	1.531	-1.895
33	1	4	-0.160521	7.2179999	1.465	-3.3540001
34	1	7	0.099032	8.3249998	1.574	-3.3499999
35	1	7	0.099032	6.9980001	0.458	-3.773
36	1	7	0.099032	7.3909998	2.1949999	-1.3049999
37	1	7	0.099032	6.7750001	0.51599997	-1.4450001
38	1	8	-0.5248	4.849	2.0610001	-0.47099999
39	1	6	0.083044998	4.6199999	1.404	-2.4130001
40	1	7	0.099032	5.3280001	4.2410002	-1.55
41	1	7	0.099032	4.1609998	3.655	-2.773
42	1	7	0.099032	5.8140001	4.579	-4.1609998
43	1	7	0.099032	7.1389999	4.2249999	-3.0109999
44	1	6	0.083044	7.369	2.8269999	-5.0359998
45	1	1	-0.61929601	0.0020000001	1.082	-13.854
46	1	2	0.80971801	0.071000002	1.048	-12.597
47	1	3	-0.48261499	1.285	1.385	-11.921
48	1	4	0.02764	2.4909999	1.7690001	-12.657
49	1	4	-0.145749	3.642	2.1300001	-11.708
50	1	4	-0.14358699	3.378	3.4489999	-10.962
51	1	4	-0.14358699	4.5799999	3.9000001	-10.118
52	1	4	-0.145749	4.796	3.0190001	-8.8789997
53	1	4	0.02764	5.915	3.5799999	-7.9949999
54	1	3	-0.48261499	6.145	2.7079999	-6.8449998
55	1	2	0.80971801	5.263	2.6630001	-5.7179999
56	1	1	-0.61929601	4.2379999	3.392	-5.6690001
57	1	5	0.324184	7.0180001	2.135	-6.8140001
58	1	6	0.052351002	6.8520002	3.6459999	-8.5900002
59	1	6	0.052351002	5.6589999	4.6040001	-7.6440001
60	1	7	0.084875003	3.8529999	2.9660001	-8.2939997
61	1	7	0.084875003	5.0760002	1.99	-9.191
62	1	7	0.083764002	5.5	3.9070001	-10.744
63	1	7	0.083764002	4.3920002	4.9450002	-9.7860003
64	1	7	0.083764002	3.1670001	4.2459998	-11.709
65	1	7	0.083764002	2.4809999	3.3540001	-10.313
66	1	7	0.084875003	4.5710001	2.2309999	-12.31
67	1	7	0.084875003	3.789	1.2970001	-10.987
68	1	6	0.052351002	2.809	0.917	-13.295
69	1	6	0.052351002	2.266	2.632	-13.321
70	1	5	0.324184	1.294	1.331	-10.877
71	1	8	-0.5248	-0.37900001	-3.681	-11.534
72	1	4	0.18974701	-1.596	-3.3599999	-12.159
73	1	4	-0.160521	-2.4419999	-2.464	-11.239
74	1	4	-0.160521	-1.749	-1.119	-10.932
75	1	4	0.18974701	-0.81599998	-0.63099998	-12.062
76	1	4	-0.160521	-1.3	-1.126	-13.434
77	1	4	-0.160521	-1.316	-2.6659999	-13.513
78	1	7	0.099032	-2.096	-2.9679999	-14.247
79	1	7	0.099032	-0.34299999	-3.0250001	-13.916
80	1	7	0.099032	-2.325	-0.73400003	-13.62
81	1	7	0.099032	-0.639	-0.72600001	-14.234
82	1	8	-0.5248	-0.764	0.77200001	-12.047
83	1	6	0.083044998	0.206	-1.04	-11.877
84	1	7	0.099032	-2.5380001	-0.36000001	-10.736
85	1	7	0.099032	-1.154	-1.22	-9.9980001
86	1	7	0.099032	-2.6600001	-2.9960001	-10.288
87	1	7	0.099032	-3.418	-2.267	-11.736
88	1	6	0.083044	-2.161	-4.2989998	-12.363
89	1	1	-0.61929601	5.2839999	-10.748	-6.1929998
90	1	2	0.80971801	5.0539999	-9.5609999	-6.5440001
91	1	3	-0.48261499	3.9200001	-9.243	-7.3559999
92	1	4	0.02764	2.9949999	-10.279	-7.8179998
93	1	4	-0.145749	1.837	-9.6820002	-8.6300001
94	1	4	-0.14358699	0.87599999	-8.8690004	-7.7449999
95	1	4	-0.14358699	-0.36500001	-8.3850002	-8.5109997
96	1	4	-0.145749	-0.041000001	-7.2709999	-9.5170002
97	1	4	0.02764	-1.319	-6.723	-10.16
98	1	3	-0.48261499	-0.99599999	-5.698	-11.151
99	1	2	0.80971801	-0.597	-4.3709998	-10.79
100	1	1	-0.61929601	-0.514	-4.026	-9.5819998
101	1	5	0.324184	-1.1160001	-5.921	-12.164
102	1	6	0.052351002	-1.858	-7.5549998	-10.665
103	1	6	0.052351002	-1.994	-6.2969999	-9.3859997
104	1	7	0.084875003	0.49399999	-6.447	-8.9960003
105	1	7	0.084875003	0.61699998	-7.6659999	-10.32
106	1	7	0.083764002	-0.84299999	-9.2419996	-9.0349998
107	1	7	0.083764002	-1.096	-7.9959998	-7.7690001
108	1	7	0.083764002	0.52999997	-9.5139999	-6.9070001
109	1	7	0.083764002	1.402	-7.9980001	-7.3000002
110	1	7	0.084875003	1.277	-10.517	-9.1040001
111	1	7	0.084875003	2.2539999	-9.0450001	-9.4390001
112	1	6	0.052351002	3.549	-10.995	-8.4619999
113	1	6	0.052351002	2.5929999	-10.84	-6.9460001
114	1	5	0.324184	3.78	-8.2449999	-7.6300001
115	1	8	-0.5248	8.7469997	-8.4960003	-9.5319996
116	1	4	0.18974701	9.3739996	-8.7530003	-8.3009996
117	1	4	-0.160521	9.0710001	-7.618	-7.3080001
118	1	4	-0.160521	7.5630002	-7.4920001	-7.0040002
119	1	4	0.18974701	6.7950001	-8.8290005	-7.112
120	1	4	-0.160521	7.7069998	-10.021	-6.7779999
121	1	4	-0.160521	8.8999996	-10.119	-7.7519999
122	1	7	0.099032	9.743	-10.611	-7.2189999
123	1	7	0.099032	8.6280003	-10.783	-8.6020002
124	1	7	0.099032	8.0860004	-9.9069996	-5.7389998
125	1	7	0.099032	7.1230001	-10.966	-6.8200002
126	1	8	-0.5248	5.6960001	-8.8050003	-6.2399998
127	1	6	0.083044998	6.4320002	-8.9429998	-8.1610003
128	1	7	0.099032	7.4489999	-7.0710001	-5.98
129	1	7	0.099032	7.1069999	-6.763	-7.7090001
130	1	7	0.099032	9.4519997	-6.6529999	-7.7080002
131	1	7	0.099032	9.6190004	-7.8200002	-6.3610001
132	1	6	0.083044	10.477	-8.8079996	-8.4569998
133	1	1	-0.61929601	9.6470003	-5.066	-19.43
134	1	2	0.80971801	8.9499998	-5.3189998	-18.412001
135	1	3	-0.48261499	9.559	-5.7779999	-17.202
136	1	4	0.02764	11.005	-5.9809999	-17.101999
137	1	4	-0.145749	11.417	-6.428	-15.692
138	1	4	-0.14358699	11.256	-5.2969999	-14.662
139	1	4	-0.14358699	11.798	-5.6789999	-13.276
140	1	4	-0.145749	10.918	-6.7160001	-12.562
141	1	4	0.02764	11.415	-6.9679999	-11.135
142	1	3	-0.48261499	10.601	-7.9920001	-10.483
143	1	2	0.80971801	9.2819996	-7.7340002	-9.9890003
144	1	1	-0.61929601	8.7639999	-6.5900002	-10.093
145	1	5	0.324184	11.016	-8.9359999	-10.316
146	1	6	0.052351002	12.47	-7.3179998	-11.174
147	1	6	0.052351002	11.386	-6.0300002	-10.54
148	1	7	0.084875003	9.8690004	-6.3509998	-12.53
149	1	7	0.084875003	10.94	-7.677	-13.119
150	1	7	0.083764002	12.837	-6.0650001	-13.371
151	1	7	0.083764002	11.837	-4.756	-12.657
152	1	7	0.083764002	11.821	-4.408	-15.017
153	1	7	0.083764002	10.188	-5.0009999	-14.576
154	1	7	0.084875003	12.483	-6.743	-15.724
155	1	7	0.084875003	10.808	-7.3099999	-15.401
156	1	6	0.052351002	11.309	-6.7670002	-17.827
157	1	6	0.052351002	11.536	-5.0419998	-17.368999
158	1	5	0.324184	8.9350004	-5.9840002	-16.389999
159	1	8	-0.5248	6.323	-9.198	-19.736
160	1	4	0.18974701	5.9159999	-8.1940002	-20.631001
161	1	4	-0.160521	5.0780001	-7.1360002	-19.893999
162	1	4	-0.160521	5.8790002	-6.4229999	-18.785
163	1	4	0.18974701	7.395	-6.336	-19.073
164	1	4	-0.160521	7.6700001	-6.29	-20.584999
165	1	4	-0.160521	7.158	-7.5580001	-21.299
166	1	7	0.099032	6.9120002	-7.29	-22.349001
167	1	7	0.099032	7.9770002	-8.3100004	-21.344999
168	1	7	0.099032	7.1700001	-5.395	-21.017
169	1	7	0.099032	8.7620001	-6.184	-20.767
170	1	8	-0.5248	7.921	-5.1919999	-18.452999
171	1	6	0.083044998	7.8870001	-7.2449999	-18.650999
172	1	7	0.099032	5.4590001	-5.401	-18.655001
173	1	7	0.099032	5.7319999	-6.96	-17.822001
174	1	7	0.099032	4.1739998	-7.6100001	-19.452999
175	1	7	0.099032	4.7259998	-6.3829999	-20.632999
176	1	6	0.083044	5.29	-8.6520004	-21.433001
177	1	1	-0.61929601	4.822	-18.893999	-15.958
178	1	2	0.80971801	5.2810001	-17.726	-15.843
179	1	3	-0.48261499	5.0419998	-16.742001	-16.851999
180	1	4	0.02764	4.27	-17.052	-18.056999
181	1	4	-0.145749	4.1129999	-15.821	-18.959
182	1	4	-0.14358699	3.1819999	-14.767	-18.334999
183	1	4	-0.14358699	2.8970001	-13.593	-19.285
184	1	4	-0.145749	4.1170001	-12.681	-19.48
185	1	4	0.02764	3.7550001	-11.453	-20.322001
186	1	3	-0.48261499	4.934	-10.618	-20.542
187	1	2	0.80971801	5.4840002	-9.7720003	-19.527
188	1	1	-0.61929601	4.96	-9.7069998	-18.382999
189	1	5	0.324184	5.3610001	-10.589	-21.495001
190	1	6	0.052351002	3.3629999	-11.79	-21.306999
191	1	6	0.052351002	2.961	-10.857	-19.822001
192	1	7	0.084875003	4.494	-12.352	-18.488001
193	1	7	0.084875003	4.927	-13.238	-19.997999
194	1	7	0.083764002	2.552	-13.98	-20.268999
195	1	7	0.083764002	2.0680001	-12.994	-18.85
196	1	7	0.083764002	2.211	-15.249	-18.087999
197	1	7	0.083764002	3.6140001	-14.382	-17.386999
198	1	7	0.084875003	3.6860001	-16.153	-19.931
199	1	7	0.084875003	5.1160002	-15.387	-19.156
200	1	6	0.052351002	4.7969999	-17.847	-18.627001
201	1	6	0.052351002	3.2679999	-17.440001	-17.771
202	1	5	0.324184	5.454	-15.792	-16.714001
203	1	8	-0.5248	10.1	-18.334	-16.167
204	1	4	0.18974701	9.7449999	-19.063	-15.019
205	1	4	-0.160521	9.3450003	-18.103001	-13.886
206	1	4	-0.160521	8.1129999	-17.249001	-14.249
207	1	4	0.18974701	7.1430001	-17.947001	-15.229
208	1	4	-0.160521	7.1890001	-19.474001	-15.063
209	1	4	-0.160521	8.5939999	-20.039	-15.359
210	1	7	0.099032	8.7229996	-20.975	-14.772
211	1	7	0.099032	8.658	-20.323999	-16.431999
212	1	7	0.099032	6.8969998	-19.733999	-14.021
213	1	7	0.099032	6.4530001	-19.951	-15.746
214	1	8	-0.5248	5.8390002	-17.478001	-15.004
215	1	6	0.083044998	7.4520001	-17.693001	-16.271
216	1	7	0.099032	7.5799999	-16.99	-13.308
217	1	7	0.099032	8.4510002	-16.292999	-14.706
218	1	7	0.099032	10.199	-17.437	-13.635
219	1	7	0.099032	9.1199999	-18.702999	-12.976
220	1	6	0.083044	10.622	-19.667	-14.685
221	1	1	-0.61929601	17.766001	-14.456	-22.228001
222	1	2	0.80971801	16.572001	-14.453	-21.827
223	1	3	-0.48261499	16.145	-15.339	-20.789
224	1	4	0.02764	17.069	-16.285999	-20.162001
225	1	4	-0.145749	16.386	-17.087999	-19.046
226	1	4	-0.14358699	16.066	-16.211	-17.823
227	1	4	-0.14358699	15.515	-17.024	-16.641001
228	1	4	-0.145749	14.088	-17.535	-16.889999
229	1	4	0.02764	13.526	-18.222	-15.641
230	1	3	-0.48261499	12.187	-18.746	-15.904
231	1	2	0.80971801	11.028	-17.91	-15.978
232	1	1	-0.61929601	11.116	-16.665001	-15.81
233	1	5	0.324184	12.058	-19.780001	-15.984
234	1	6	0.052351002	14.194	-19.063999	-15.356
235	1	6	0.052351002	13.489	-17.51	-14.787
236	1	7	0.084875003	13.434	-16.681	-17.169001
237	1	7	0.084875003	14.089	-18.267	-17.725
238	1	7	0.083764002	16.191999	-17.879999	-16.424
239	1	7	0.083764002	15.508	-16.365	-15.746
240	1	7	0.083764002	17.000999	-15.712	-17.487
241	1	7	0.083764002	15.342	-15.414	-18.097
242	1	7	0.084875003	17.07	-17.908001	-18.737
243	1	7	0.084875003	15.458	-17.549	-19.448
244	1	6	0.052351002	17.436001	-16.995001	-20.936001
245	1	6	0.052351002	17.945	-15.74	-19.750999
246	1	5	0.324184	15.141	-15.305	-20.5
247	1	8	-0.5248	14.056	-16.115999	-25.649
248	1	4	0.18974701	14.639	-14.928	-26.121
249	1	4	-0.160521	13.971	-13.712	-25.457001
250	1	4	-0.160521	14.159	-13.703	-23.926001
251	1	4	0.18974701	15.464	-14.386	-23.458
252	1	4	-0.160521	16.566	-14.266	-24.523001
253	1	4	-0.160521	16.160999	-14.951	-25.844999
254	1	7	0.099032	16.691	-14.439	-26.677999
255	1	7	0.099032	16.518	-16.004	-25.837999
256	1	7	0.099032	16.771	-13.189	-24.712
257	1	7	0.099032	17.506001	-14.725	-24.146999
258	1	8	-0.5248	15.891	-13.799	-22.256001
259	1	6	0.083044998	15.253	-15.468	-23.285999
260	1	7	0.099032	14.139	-12.646	-23.579
261	1	7	0.099032	13.298	-14.219	-23.447001
262	1	7	0.099032	12.886	-13.697	-25.698999
263	1	7	0.099032	14.415	-12.786	-25.886
264	1	6	0.083044	14.49	-14.861	-27.224001
265	1	1	-0.61929601	7.3130002	-24.003	-27.341999
266	1	2	0.80971801	7.994	-23.285	-26.563
267	1	3	-0.48261499	8.7600002	-22.184999	-27.059999
268	1	4	0.02764	8.7919998	-21.857	-28.486
269	1	4	-0.145749	9.6420002	-20.608999	-28.76
270	1	4	-0.14358699	8.9720001	-19.330999	-28.229
271	1	4	-0.14358699	9.7360001	-18.056	-28.621
272	1	4	-0.145749	11.063	-17.907	-27.862
273	1	4	0.02764	11.727	-16.563	-28.179001
274	1	3	-0.48261499	13.012	-16.452	-27.49
275	1	2	0.80971801	13.119	-16.186001	-26.087999
276	1	1	-0.61929601	12.09	-16.027	-25.379
277	1	5	0.324184	13.891	-16.51	-28.052
278	1	6	0.052351002	11.898	-16.49	-29.275
279	1	6	0.052351002	11.067	-15.72	-27.878
280	1	7	0.084875003	10.874	-17.978001	-26.77
281	1	7	0.084875003	11.759	-18.722	-28.153999
282	1	7	0.083764002	9.9230003	-18.051001	-29.716999
283	1	7	0.083764002	9.0889997	-17.183001	-28.386
284	1	7	0.083764002	7.948	-19.259001	-28.658001
285	1	7	0.083764002	8.868	-19.378	-27.124001
286	1	7	0.084875003	9.7819996	-20.517	-29.860001
287	1	7	0.084875003	10.643	-20.745001	-28.298
288	1	6	0.052351002	9.2290001	-22.715	-29.042999
289	1	6	0.052351002	7.757	-21.697001	-28.858999
290	1	5	0.324184	9.316	-21.628	-26.374001
291	1	8	-0.5248	11.483	-26.285	-24.969999
292	1	4	0.18974701	10.294	-26.879999	-24.514999
293	1	4	-0.160521	9.6789999	-26.035	-23.386
294	1	4	-0.160521	9.2959995	-24.617001	-23.857
295	1	4	0.18974701	8.915	-24.542999	-25.353001
296	1	4	-0.160521	8.3100004	-25.870001	-25.837999
297	1	4	-0.160521	9.3079996	-27.039	-25.695999
298	1	7	0.099032	8.7259998	-27.976999	-25.563
299	1	7	0.099032	9.8809996	-27.15	-26.642
300	1	7	0.099032	7.395	-26.09	-25.243999
301	1	7	0.099032	8.0039997	-25.778999	-26.903
302	1	8	-0.5248	7.9980001	-23.497	-25.547001
303	1	6	0.083044998	9.8400002	-24.337999	-25.943001
304	1	7	0.099032	8.448	-24.26	-23.231001
305	1	7	0.099032	10.149	-23.927	-23.674
306	1	7	0.099032	10.392	-25.965	-22.535
307	1	7	0.099032	8.7700005	-26.554001	-23.01
308	1	6	0.083044	10.524	-27.896	-24.118
309	1	1	-0.61929601	21.995001	-26.171	-24.834
310	1	2	0.80971801	20.891001	-25.6	-25.034
311	1	3	-0.48261499	19.658001	-26.271999	-24.763
312	1	4	0.02764	19.629	-27.643999	-24.256001
313	1	4	-0.145749	18.194	-28.122999	-24
314	1	4	-0.14358699	17.556	-27.403999	-22.799
315	1	4	-0.14358699	16.174	-27.971001	-22.437
316	1	4	-0.145749	15.098	-27.608999	-23.472
317	1	4	0.02764	13.713	-28.073999	-23.009001
318	1	3	-0.48261499	12.705	-27.768	-24.021999
319	1	2	0.80971801	12.199	-26.447001	-24.238001
320	1	1	-0.61929601	12.607	-25.476999	-23.545
321	1	5	0.324184	12.291	-28.552999	-24.573
322	1	6	0.052351002	13.735	-29.173	-22.841999
323	1	6	0.052351002	13.439	-27.587	-22.047001
324	1	7	0.084875003	15.087	-26.507999	-23.624001
325	1	7	0.084875003	15.328	-28.097	-24.441999
326	1	7	0.083764002	16.237	-29.075001	-22.326
327	1	7	0.083764002	15.878	-27.549	-21.451
328	1	7	0.083764002	18.218	-27.528999	-21.914
329	1	7	0.083764002	17.469999	-26.313999	-23.000999
330	1	7	0.084875003	18.221001	-29.215	-23.797001
331	1	7	0.084875003	17.59	-27.959	-24.917999
332	1	6	0.052351002	20.099001	-28.315001	-25.007999
333	1	6	0.052351002	20.222	-27.711	-23.318001
334	1	5	0.324184	18.768999	-25.757	-24.957001
335	1	8	-0.140384	20.704	-25.093	-29.872999
336	1	4	0.071699999	21.827	-24.336	-29.497999
337	1	4	-0.151372	21.382	-23.065001	-28.753
338	1	4	-0.162139	20.625999	-23.386999	-27.447001
339	1	4	0.189741	21.062	-24.716	-26.790001
340	1	4	-0.162139	22.531	-25.035999	-27.107
341	1	4	-0.151372	22.767	-25.198	-28.622999
342	1	7	0.098113999	23.822001	-24.924999	-28.841999
343	1	7	0.098113999	22.65	-26.268	-28.902
344	1	7	0.099335	23.173	-24.215	-26.718
345	1	7	0.099335	22.834	-25.972	-26.589001
346	1	8	-0.5248	20.878	-24.629	-25.400999
347	1	6	0.083044998	20.424	-25.535999	-27.197001
348	1	7	0.099335	20.784	-22.544001	-26.738001
349	1	7	0.099335	19.535	-23.437	-27.657
350	1	7	0.098113999	20.737	-22.445999	-29.414
351	1	7	0.098113999	22.284	-22.459999	-28.514
352	1	6	0.087482996	22.386999	-24.035999	-30.415001
353	1	1	-0.70052099	-5.77	1.549	-2.1619999
354	1	2	0.54079801	-4.6149998	1.998	-1.936
355	1	3	-0.52493399	-4.026	2.9749999	-2.799
356	1	4	0.029402999	-4.7350001	3.4860001	-3.9719999
357	1	4	-0.147028	-3.8829999	4.5229998	-4.7150002
358	1	4	-0.143402	-4.645	5.2210002	-5.8540001
359	1	4	-0.139191	-5.0100002	4.2800002	-7.0219998
360	1	4	-0.123388	-6.4879999	3.8599999	-6.9879999
361	1	4	0.18283699	-6.8109999	2.8859999	-8.1219997
362	1	3	-0.66102803	-8.2259998	2.5339999	-8.0780001
363	1	9	0.59225202	-8.6169996	1.332	-7.934
364	1	1	-0.489925	-8.9969997	0.163	-7.7930002
365	1	6	0.028148999	-6.5939999	3.3659999	-9.1000004
366	1	6	0.028148999	-6.171	1.978	-8.0290003
367	1	7	0.078532003	-7.1279998	4.763	-7.092
368	1	7	0.078532003	-6.7280002	3.3759999	-6.0180001
369	1	7	0.082488999	-4.8249998	4.8150001	-7.9790001
370	1	7	0.082488999	-4.3559999	3.3800001	-7.02
371	1	7	0.083764002	-3.9820001	6.0219998	-6.25
372	1	7	0.083764002	-5.546	5.7319999	-5.4489999
373	1	7	0.084875003	-3.559	5.302	-3.9920001
374	1	7	0.084875003	-2.9679999	4.0349998	-5.1170001
375	1	6	0.048829999	-5.6890001	3.954	-3.645
376	1	6	0.048829999	-4.961	2.6359999	-4.6500001
377	1	5	0.31622601	-3.0639999	3.3139999	-2.5710001
378	1	8	-0.140384	20.271999	-24.614	-30.627001
379	1	4	0.072244003	21.296	-23.954	-31.329
380	1	4	-0.142894	22.124001	-24.971001	-32.132999
381	1	4	-0.19864701	21.278999	-25.705999	-33.195
382	1	4	0.125112	20.101	-24.867001	-33.738998
383	1	4	-0.19864701	20.422001	-23.365	-33.695
384	1	4	-0.142894	20.681	-22.877001	-32.254002
385	1	7	0.098405004	21.365999	-22.002001	-32.300999
386	1	7	0.098405004	19.726999	-22.514	-31.812
387	1	7	0.10085	21.322001	-23.169001	-34.319
388	1	7	0.10085	19.58	-22.785999	-34.131001
389	1	10	-0.70607799	19.820999	-25.261	-35.056999
390	1	11	0.39225301	18.910999	-24.924	-35.271
391	1	6	0.067996003	19.208	-25.058001	-33.098
392	1	7	0.10085	21.952	-26.000999	-34.029999
393	1	7	0.10085	20.874001	-26.643999	-32.756001
394	1	7	0.098405004	22.584	-25.712999	-31.444
395	1	7	0.098405004	22.955999	-24.431999	-32.637001
396	1	6	0.087482996	21.966	-23.441999	-30.601

Bonds

1	1	1	2
2	2	2	3
3	3	2	38
4	4	3	4
5	5	3	26
6	6	4	5
7	7	4	24
8	7	4	25
9	6	5	6
10	7	5	22
11	7	5	23
12	6	6	7
13	7	6	20
14	7	6	21
15	6	7	8
16	7	7	18
17	7	7	19
18	6	8	9
19	7	8	16
20	7	8	17
21	4	9	10
22	7	9	14
23	7	9	15
24	2	10	11
25	5	10	13
26	1	11	12
27	8	11	354
28	9	27	28
29	3	27	55
30	6	28	29
31	7	28	44
32	6	28	33
33	6	29	30
34	7	29	42
35	7	29	43
36	6	30	31
37	7	30	40
38	7	30	41
39	6	31	32
40	9	31	38
41	7	31	39
42	6	32	33
43	7	32	36
44	7	32	37
45	7	33	34
46	7	33	35
47	1	45	46
48	2	46	47
49	3	46	82
50	4	47	48
51	5	47	70
52	6	48	49
53	7	48	68
54	7	48	69
55	6	49	50
56	7	49	66
57	7	49	67
58	6	50	51
59	7	50	64
60	7	50	65
61	6	51	52
62	7	51	62
63	7	51	63
64	6	52	53
65	7	52	60
66	7	52	61
67	4	53	54
68	7	53	58
69	7	53	59
70	2	54	55
71	5	54	57
72	1	55	56
73	9	71	72
74	3	71	99
75	6	72	73
76	7	72	88
77	6	72	77
78	6	73	74
79	7	73	86
80	7	73	87
81	6	74	75
82	7	74	84
83	7	74	85
84	6	75	76
85	9	75	82
86	7	75	83
87	6	76	77
88	7	76	80
89	7	76	81
90	7	77	78
91	7	77	79
92	1	89	90
93	2	90	91
94	3	90	126
95	4	91	92
96	5	91	114
97	6	92	93
98	7	92	112
99	7	92	113
100	6	93	94
101	7	93	110
102	7	93	111
103	6	94	95
104	7	94	108
105	7	94	109
106	6	95	96
107	7	95	106
108	7	95	107
109	6	96	97
110	7	96	104
111	7	96	105
112	4	97	98
113	7	97	102
114	7	97	103
115	2	98	99
116	5	98	101
117	1	99	100
118	9	115	116
119	3	115	143
120	6	116	117
121	7	116	132
122	6	116	121
123	6	117	118
124	7	117	130
125	7	117	131
126	6	118	119
127	7	118	128
128	7	118	129
129	6	119	120
130	9	119	126
131	7	119	127
132	6	120	121
133	7	120	124
134	7	120	125
135	7	121	122
136	7	121	123
137	1	133	134
138	2	134	135
139	3	134	170
140	4	135	136
141	5	135	158
142	6	136	137
143	7	136	156
144	7	136	157
145	6	137	138
146	7	137	154
147	7	137	155
148	6	138	139
149	7	138	152
150	7	138	153
151	6	139	140
152	7	139	150
153	7	139	151
154	6	140	141
155	7	140	148
156	7	140	149
157	4	141	142
158	7	141	146
159	7	141	147
160	2	142	143
161	5	142	145
162	1	143	144
163	9	159	160
164	3	159	187
165	6	160	161
166	7	160	176
167	6	160	165
168	6	161	162
169	7	161	174
170	7	161	175
171	6	162	163
172	7	162	172
173	7	162	173
174	6	163	164
175	9	163	170
176	7	163	171
177	6	164	165
178	7	164	168
179	7	164	169
180	7	165	166
181	7	165	167
182	1	177	178
183	2	178	179
184	3	178	214
185	4	179	180
186	5	179	202
187	6	180	181
188	7	180	200
189	7	180	201
190	6	181	182
191	7	181	198
192	7	181	199
193	6	182	183
194	7	182	196
195	7	182	197
196	6	183	184
197	7	183	194
198	7	183	195
199	6	184	185
200	7	184	192
201	7	184	193
202	4	185	186
203	7	185	190
204	7	185	191
205	2	186	187
206	5	186	189
207	1	187	188
208	9	203	204
209	3	203	231
210	6	204	205
211	7	204	220
212	6	204	209
213	6	205	206
214	7	205	218
215	7	205	219
216	6	206	207
217	7	206	216
218	7	206	217
219	6	207	208
220	9	207	214
221	7	207	215
222	6	208	209
223	7	208	212
224	7	208	213
225	7	209	210
226	7	209	211
227	1	221	222
228	2	222	223
229	3	222	258
230	4	223	224
231	5	223	246
232	6	224	225
233	7	224	244
234	7	224	245
235	6	225	226
236	7	225	242
237	7	225	243
238	6	226	227
239	7	226	240
240	7	226	241
241	6	227	228
242	7	227	238
243	7	227	239
244	6	228	229
245	7	228	236
246	7	228	237
247	4	229	230
248	7	229	234
249	7	229	235
250	2	230	231
251	5	230	233
252	1	231	232
253	9	247	248
254	3	247	275
255	6	248	249
256	7	248	264
257	6	248	253
258	6	249	250
259	7	249	262
260	7	249	263
261	6	250	251
262	7	250	260
263	7	250	261
264	6	251	252
265	9	251	258
266	7	251	259
267	6	252	253
268	7	252	256
269	7	252	257
270	7	253	254
271	7	253	255
272	1	265	266
273	2	266	267
274	3	266	302
275	4	267	268
276	5	267	290
277	6	268	269
278	7	268	288
279	7	268	289
280	6	269	270
281	7	269	286
282	7	269	287
283	6	270	271
284	7	270	284
285	7	270	285
286	6	271	272
287	7	271	282
288	7	271	283
289	6	272	273
290	7	272	280
291	7	272	281
292	4	273	274
293	7	273	278
294	7	273	279
295	2	274	275
296	5	274	277
297	1	275	276
298	9	291	292
299	3	291	319
300	6	292	293
301	7	292	308
302	6	292	297
303	6	293	294
304	7	293	306
305	7	293	307
306	6	294	295
307	7	294	304
308	7	294	305
309	6	295	296
310	9	295	302
311	7	295	303
312	6	296	297
313	7	296	300
314	7	296	301
315	7	297	298
316	7	297	299
317	1	309	310
318	2	310	311
319	3	310	346
320	4	311	312
321	5	311	334
322	6	312	313
323	7	312	332
324	7	312	333
325	6	313	314
326	7	313	330
327	7	313	331
328	6	314	315
329	7	314	328
330	7	314	329
331	6	315	316
332	7	315	326
333	7	315	327
334	6	316	317
335	7	316	324
336	7	316	325
337	4	317	318
338	7	317	322
339	7	317	323
340	2	318	319
341	5	318	321
342	1	319	320
343	9	335	336
344	10	335	378
345	6	336	337
346	7	336	352
347	6	336	341
348	6	337	338
349	7	337	350
350	7	337	351
351	6	338	339
352	7	338	348
353	7	338	349
354	6	339	340
355	9	339	346
356	7	339	347
357	6	340	341
358	7	340	344
359	7	340	345
360	7	341	342
361	7	341	343
362	1	353	354
363	2	354	355
364	4	355	356
365	5	355	377
366	6	356	357
367	7	356	375
368	7	356	376
369	6	357	358
370	7	357	373
371	7	357	374
372	6	358	359
373	7	358	371
374	7	358	372
375	6	359	360
376	7	359	369
377	7	359	370
378	6	360	361
379	7	360	367
380	7	360	368
381	11	361	362
382	7	361	365
383	7	361	366
384	12	362	363
385	1	363	364
386	9	378	379
387	6	379	380
388	7	379	396
389	6	379	384
390	6	380	381
391	7	380	394
392	7	380	395
393	6	381	382
394	7	381	392
395	7	381	393
396	6	382	383
397	13	382	389
398	7	382	391
399	6	383	384
400	7	383	387
401	7	383	388
402	7	384	385
403	7	384	386
404	14	389	390

Angles

1	8	361	362	363
2	6	295	296	301
3	3	2	3	4
4	7	60	52	61
5	6	10	9	15
6	5	178	214	207
7	6	357	358	372
8	6	314	313	330
9	6	72	73	87
10	3	185	186	187
11	6	341	340	344
12	1	10	11	12
13	6	314	315	326
14	6	208	207	215
15	6	116	121	123
16	2	133	134	170
17	6	226	227	228
18	6	358	359	370
19	6	116	117	118
20	6	384	383	387
21	6	162	163	170
22	4	141	142	145
23	6	98	97	103
24	6	30	31	32
25	4	310	311	334
26	6	119	120	125
27	7	24	4	25
28	7	66	49	67
29	6	315	316	324
30	7	342	341	343
31	6	382	381	392
32	6	270	269	286
33	6	337	338	348
34	6	53	52	60
35	6	120	119	127
36	6	139	138	152
37	5	2	38	31
38	1	223	222	258
39	7	192	184	193
40	6	273	272	281
41	6	311	312	332
42	9	362	363	364
43	6	120	121	123
44	6	77	76	81
45	6	139	140	148
46	6	268	269	287
47	1	71	99	98
48	7	130	117	131
49	6	163	164	165
50	6	292	293	294
51	6	183	184	193
52	6	49	48	68
53	6	336	337	350
54	6	378	379	396
55	4	273	274	277
56	6	230	229	235
57	6	362	361	366
58	5	222	258	251
59	6	54	53	58
60	7	371	358	372
61	6	383	384	386
62	6	140	139	150
63	6	164	163	170
64	1	91	90	126
65	6	49	50	64
66	6	116	117	131
67	6	135	136	156
68	1	265	266	267
69	6	76	77	78
70	7	84	74	85
71	6	294	293	307
72	3	229	230	231
73	6	31	30	40
74	6	269	270	285
75	6	226	225	243
76	6	140	141	142
77	1	309	310	311
78	6	73	74	85
79	6	184	185	191
80	5	335	378	379
81	6	358	357	374
82	4	231	230	233
83	7	387	383	388
84	6	248	249	263
85	6	31	32	36
86	3	90	91	92
87	6	253	252	257
88	6	312	313	314
89	6	315	316	317
90	1	318	319	320
91	6	313	312	332
92	6	315	314	328
93	7	262	249	263
94	6	7	8	17
95	6	93	94	109
96	6	318	317	322
97	6	163	162	173
98	2	27	55	56
99	6	32	31	38
100	6	27	28	44
101	6	228	229	230
102	6	316	315	327
103	6	163	164	169
104	6	139	140	141
105	6	292	297	299
106	6	249	250	261
107	6	29	30	31
108	6	206	205	219
109	7	254	253	255
110	6	118	117	131
111	6	379	384	386
112	6	8	9	15
113	6	183	182	197
114	3	9	10	11
115	4	178	179	202
116	6	274	273	279
117	6	248	253	254
118	6	382	383	387
119	6	140	141	146
120	6	5	6	21
121	6	6	7	8
122	6	76	75	82
123	7	280	272	281
124	4	92	91	114
125	6	360	361	366
126	3	53	54	55
127	7	256	252	257
128	1	11	354	355
129	6	291	292	293
130	7	210	209	211
131	6	93	94	95
132	6	296	297	299
133	6	179	180	201
134	6	92	93	110
135	6	360	359	369
136	4	48	47	70
137	7	168	164	169
138	7	350	337	351
139	6	179	180	181
140	6	297	296	301
141	6	355	356	375
142	6	357	358	371
143	7	14	9	15
144	7	238	227	239
145	6	5	4	24
146	6	72	73	86
147	1	142	143	144
148	6	355	356	357
149	6	226	227	238
150	6	356	357	373
151	6	116	121	122
152	6	358	359	369
153	6	317	316	325
154	1	291	319	318
155	6	293	292	297
156	6	117	118	128
157	7	344	340	345
158	6	339	338	349
159	6	119	120	124
160	6	269	270	271
161	6	160	165	164
162	6	380	379	384
163	6	170	163	171
164	6	339	340	345
165	5	336	335	378
166	6	3	4	5
167	6	271	270	284
168	1	247	275	274
169	6	118	119	126
170	6	340	339	347
171	4	266	267	290
172	6	120	121	122
173	6	77	76	80
174	6	268	269	286
175	7	324	316	325
176	6	346	339	347
177	6	183	184	192
178	7	198	181	199
179	7	174	161	175
180	6	230	229	234
181	6	362	361	365
182	6	340	341	343
183	6	379	384	383
184	6	383	384	385
185	6	294	293	306
186	6	267	268	288
187	6	208	209	210
188	6	226	225	242
189	4	356	355	377
190	6	73	74	84
191	6	71	72	77
192	6	47	48	49
193	1	186	187	188
194	6	272	273	274
195	6	204	209	211
196	6	248	249	262
197	6	205	204	220
198	6	117	116	132
199	2	203	231	232
200	3	222	223	224
201	6	380	381	393
202	6	359	358	372
203	1	133	134	135
204	6	93	94	108
205	6	205	206	216
206	6	163	162	172
207	6	203	204	209
208	6	295	296	297
209	4	134	135	158
210	6	359	360	368
211	6	316	315	326
212	6	94	95	107
213	6	163	164	168
214	7	288	268	289
215	4	99	98	101
216	6	249	250	260
217	6	206	205	218
218	6	292	297	298
219	1	311	310	346
220	6	118	117	130
221	6	379	380	395
222	6	268	269	270
223	6	271	272	273
224	6	30	29	43
225	6	206	207	214
226	6	338	337	351
227	6	50	51	63
228	6	38	31	39
229	6	121	120	125