Title

432 atoms
458 bonds
752 angles
1140 dihedrals
561 impropers

12 atom types
15 bond types
10 angle types
16 dihedral types
3 improper types
-12.46500015 87.53499985 xlo xhi
-50.93099976 49.06900024 ylo yhi
-2.755000114 97.24499989 zlo zhi
0.0 0.0 0.0 xy xz yz

Masses

1	12.01078
2	15.99943
3	14.00672
4	12.01078
5	1.007947
6	1.007947
7	1.007947
8	15.99943
9	1.007947
10	15.99943
11	1.007947
12	12.01078


Pair Coeffs

1	0.086879315	3.4806469
2	0.2102061	3.0398122
3	0.16769152	3.206876
4	0.10884061	3.3795318
5	0.014090815	1.1034277
6	0.015611343	2.5725815
7	0.015779483	2.6445434
8	0.16846514	3.0251065
9	0.016409246	2.5832257
10	0.20947353	2.99716
11	1.2326e-05	0.53453923
12	0.21	3.3996695

Bond Coeffs

1 harmonic	582.698766451	1.225198386222
2 harmonic	492.76746816345	1.381897776683
3 harmonic	301.15400723785	1.345741232799
4 harmonic	390.03554688505	1.390160554689
5 harmonic	505.144496193	1.019481865027
6 harmonic	360.7852444772	1.387193227181
7 harmonic	397.2545789619	1.085358495916
8 harmonic	289.73813263395	1.498646816465
9 harmonic	370.04670688625	1.093899492634
10 harmonic	366.7408841747	1.425895053732
11 harmonic	445.3060766333	1.328776712165
12 harmonic	329.96998057905	1.427343958716
13 harmonic	543.5267831885	0.9716763312559
14 harmonic	382.5450169811	1.379244394267
15 harmonic	602.81384337	1.196112346392


Angle Coeffs

1 harmonic	55.42182150775	117.3465570514
2 harmonic	63.44422595415	115.5071327674
3 harmonic	65.09061609600001	110.3538806181
4 harmonic	57.8982893754	126.8062420451
5 harmonic	201.41175231035	127.4691416191
6 harmonic	34.066775159195	129.1835929926
7 harmonic	53.20531626545	116.5475862634
8 harmonic	48.776492647595	115.6030999533
9 harmonic	55.07882548015	112.8714009681
10 harmonic	33.56981613361	180


Dihedral Coeffs

1 fourier 1	1.193093382682	2	180
2 fourier 1	0.0473758381877	3	0
3 fourier 1	1.809047390003	2	180
4 fourier 1	-0.04816277792592	1	0
5 fourier 1	0.4860993122944	2	180
6 fourier 1	0.8916986138746	1	0
7 fourier 1	1.163809172478	2	180
8 fourier 1	0.1679186987369	1	180
9 fourier 1	2.779853741805	2	180
10 fourier 1	3.661930099076	2	180
11 fourier 1	0.02664938770063	3	0
12 fourier 1	3.731869940596	2	180
13 fourier 1	5.913282223828	2	180
14 fourier 1	0.3026390167484	3	0
15 fourier 1	1.550515418264	2	180
16 fourier 1	0	1	0


Improper Coeffs

1 0.3333333333333333	-1	2
2 3.5	-1	2
3 0.3666666666666667	-1	2


Atoms

1	1	1	0.81887501	-5.7150002	-0.498	1.609
2	1	2	-0.53812802	-5.9759998	-1.04	0.50300002
3	1	3	-0.463404	-4.5219998	0.27399999	1.798
4	1	1	0.24321	-3.4389999	0.33899999	0.85399997
5	1	1	-0.35260499	-2.694	1.523	0.74400002
6	1	1	-0.127013	-1.622	1.607	-0.149
7	1	1	-0.233337	-1.273	0.50300002	-0.94099998
8	1	4	-0.046711002	-0.093999997	0.57999998	-1.873
9	1	1	-0.233337	1.164	0.171	-1.155
10	1	1	-0.127013	1.924	1.123	-0.45899999
11	1	1	-0.35260499	3.072	0.73799998	0.23899999
12	1	1	0.24321	3.4820001	-0.60699999	0.24699999
13	1	3	-0.463404	4.645	-1.035	0.977
14	1	1	0.81887501	5.836	-0.25299999	1.133
15	1	2	-0.53812802	6.013	0.80800003	0.477
16	1	1	-0.35260499	2.701	-1.562	-0.41999999
17	1	1	-0.127013	1.553	-1.177	-1.119
18	1	1	-0.127013	-1.993	-0.69400001	-0.80699998
19	1	1	-0.35260499	-3.066	-0.77700001	0.085000001
20	1	5	0.332423	-4.487	0.89499998	2.638
21	1	6	0.22989	-2.951	2.385	1.347
22	1	6	0.22769199	-1.062	2.5309999	-0.219
23	1	7	0.13283201	-0.25999999	-0.077	-2.7550001
24	1	7	0.13283201	0.012	1.613	-2.2709999
25	1	6	0.22769199	1.62	2.1630001	-0.447
26	1	6	0.22989	3.619	1.488	0.79500002
27	1	5	0.332423	4.6680002	-2.0109999	1.347
28	1	6	0.22989	2.987	-2.6059999	-0.40400001
29	1	6	0.22769199	0.96499997	-1.9299999	-1.628
30	1	6	0.22769199	-1.716	-1.567	-1.386
31	1	6	0.22989	-3.5810001	-1.722	0.192
32	1	8	-0.48305699	6.585	-0.58499998	1.7690001
33	1	4	0.17802601	7.7909999	-0.077	1.2690001
34	1	1	0.223378	7.9250002	1.374	1.625
35	1	3	-0.63931203	8.5240002	1.728	2.7950001
36	1	1	0.223378	8.6479998	3.0280001	3.1789999
37	1	4	0.178027	9.2939997	3.3559999	4.4920001
38	1	8	-0.48305699	8.3140001	3.5969999	5.4650002
39	1	1	-0.33459601	8.1210003	4.0440001	2.3699999
40	1	1	-0.13163801	7.4899998	3.7060001	1.171
41	1	1	-0.33459601	7.3860002	2.3659999	0.79400003
42	1	9	0.102159	8.6309996	-0.64600003	1.721
43	1	9	0.102159	7.849	-0.219	0.16599999
44	1	9	0.102159	9.9630003	2.5250001	4.8130002
45	1	9	0.102159	9.9230003	4.2649999	4.3829999
46	1	6	0.228462	8.1940002	5.0830002	2.6670001
47	1	6	0.23978101	7.0780001	4.4809999	0.53899997
48	1	6	0.228462	6.8889999	2.1040001	-0.132
49	1	1	0.81887501	7.9289999	2.6719999	5.7329998
50	1	2	-0.53812802	7.3579998	2.5450001	6.848
51	1	3	-0.463404	8.0089998	1.58	4.809
52	1	1	0.24321	7.651	0.223	5.1209998
53	1	1	-0.35260499	7.1170001	-0.59600002	4.1149998
54	1	1	-0.127013	6.7810001	-1.925	4.3860002
55	1	1	-0.233337	6.98	-2.46	5.6680002
56	1	4	-0.046711002	6.6570001	-3.902	5.948
57	1	1	-0.233337	7.849	-4.7709999	5.652
58	1	1	-0.127013	8.0450001	-5.2880001	4.362
59	1	1	-0.35260499	9.1719999	-6.0640001	4.0760002
60	1	1	0.24321	10.118	-6.3400002	5.079
61	1	3	-0.463404	11.299	-7.1149998	4.8060002
62	1	1	0.81887501	11.349	-8.2189999	3.8929999
63	1	2	-0.53812802	10.3	-8.7049999	3.395
64	1	1	-0.35260499	9.9370003	-5.7919998	6.3569999
65	1	1	-0.127013	8.8100004	-5.0159998	6.6440001
66	1	1	-0.127013	7.5479999	-1.654	6.6669998
67	1	1	-0.35260499	7.8829999	-0.324	6.3959999
68	1	5	0.332423	8.2629995	1.812	3.822
69	1	6	0.22989	6.9549999	-0.2	3.1210001
70	1	6	0.22769199	6.369	-2.539	3.5940001
71	1	7	0.13283201	6.349	-4.0250001	7.0100002
72	1	7	0.13283201	5.7870002	-4.2249999	5.3340001
73	1	6	0.22769199	7.3309999	-5.0799999	3.575
74	1	6	0.22989	9.3140001	-6.421	3.0650001
75	1	5	0.332423	12.158	-6.9260001	5.369
76	1	6	0.22989	10.668	-5.973	7.1350002
77	1	6	0.22769199	8.6890001	-4.6040001	7.638
78	1	6	0.22769199	7.7399998	-2.059	7.6529999
79	1	6	0.22989	8.3500004	0.26300001	7.1750002
80	1	8	-0.48305699	12.265	-8.6520004	3.6670001
81	1	4	0.17802601	12.007	-9.9919996	3.349
82	1	1	0.223378	11.446	-10.093	1.962
83	1	3	-0.63931203	12.29	-10.241	0.903
84	1	1	0.223378	11.836	-10.311	-0.37900001
85	1	4	0.178027	12.815	-10.448	-1.506
86	1	8	-0.48305699	13.047	-9.1990004	-2.0969999
87	1	1	-0.33459601	10.463	-10.198	-0.63599998
88	1	1	-0.13163801	9.5790005	-10.033	0.43200001
89	1	1	-0.33459601	10.067	-9.9759998	1.738
90	1	9	0.102159	12.959	-10.561	3.404
91	1	9	0.102159	11.308	-10.444	4.0900002
92	1	9	0.102159	13.771	-10.887	-1.138
93	1	9	0.102159	12.408	-11.139	-2.273
94	1	6	0.228462	10.084	-10.234	-1.65
95	1	6	0.23978101	8.5159998	-9.9420004	0.24600001
96	1	6	0.228462	9.3809996	-9.8380003	2.5639999
97	1	1	0.81887501	13.663	-8.6739998	-1.449
98	1	2	-0.53812802	14.358	-7.723	-1.896
99	1	3	-0.463404	13.669	-9.0089998	-0.055
100	1	1	0.24321	14.585	-8.46	0.90899998
101	1	1	-0.35260499	14.159	-8.2770004	2.233
102	1	1	-0.127013	15.035	-7.7659998	3.1949999
103	1	1	-0.233337	16.354	-7.4359999	2.849
104	1	4	-0.046711002	17.308001	-6.9250002	3.8940001
105	1	1	-0.233337	18.014	-8.0740004	4.5609999
106	1	1	-0.127013	17.450001	-8.6940002	5.6869998
107	1	1	-0.35260499	18.087	-9.7849998	6.2859998
108	1	1	0.24321	19.302	-10.27	5.77
109	1	3	-0.463404	19.966	-11.406	6.3509998
110	1	1	0.81887501	19.976	-11.708	7.7519999
111	1	2	-0.53812802	19.547001	-10.884	8.6020002
112	1	1	-0.35260499	19.844	-9.6700001	4.6240001
113	1	1	-0.127013	19.209	-8.5790005	4.0250001
114	1	1	-0.127013	16.792999	-7.652	1.534
115	1	1	-0.35260499	15.917	-8.1619997	0.57099998
116	1	5	0.332423	12.898	-9.6260004	0.287
117	1	6	0.22989	13.144	-8.5240002	2.517
118	1	6	0.22769199	14.685	-7.631	4.211
119	1	7	0.13283201	18.049999	-6.2379999	3.4300001
120	1	7	0.13283201	16.759001	-6.322	4.651
121	1	6	0.22769199	16.511	-8.3389997	6.0939999
122	1	6	0.22989	17.612	-10.264	7.131
123	1	5	0.332423	20.554001	-12.008	5.7319999
124	1	6	0.22989	20.766001	-10.046	4.198
125	1	6	0.22769199	19.645	-8.1300001	3.142
126	1	6	0.22769199	17.816999	-7.4349999	1.256
127	1	6	0.22989	16.292	-8.3500004	-0.426
128	1	8	-0.48305699	20.379999	-12.607	8.0769997
129	1	4	0.17802601	20.860001	-12.386	9.3739996
130	1	1	0.223378	19.719999	-12.372	10.349
131	1	3	-0.63931203	19.323999	-13.534	10.938
132	1	1	0.223378	18.278999	-13.583	11.81
133	1	4	0.178027	17.872	-14.896	12.407
134	1	8	-0.48305699	16.775999	-15.423	11.712
135	1	1	-0.33459601	17.559	-12.415	12.096
136	1	1	-0.13163801	17.938	-11.213	11.494
137	1	1	-0.33459601	19.02	-11.187	10.614
138	1	9	0.102159	21.561001	-13.205	9.6389999
139	1	9	0.102159	21.431999	-11.431	9.4230003
140	1	9	0.102159	18.725	-15.612	12.387
141	1	9	0.102159	17.587	-14.751	13.471
142	1	6	0.228462	16.714001	-12.437	12.773
143	1	6	0.23978101	17.389	-10.305	11.706
144	1	6	0.228462	19.306999	-10.256	10.14
145	1	1	0.81887501	17.143	-15.793	10.815
146	1	2	-0.53812802	16.486	-16.673	10.198
147	1	3	-0.463404	18.358999	-15.258	10.278
148	1	1	0.24321	19.044001	-15.79	9.1300001
149	1	1	-0.35260499	19.754	-14.92	8.29
150	1	1	-0.127013	20.447001	-15.413	7.1799998
151	1	1	-0.233337	20.445	-16.787001	6.8979998
152	1	4	-0.046711002	21.224001	-17.323	5.7270002
153	1	1	-0.233337	22.634001	-17.643999	6.1430001
154	1	1	-0.127013	23.632	-16.659	6.0830002
155	1	1	-0.35260499	24.934	-16.945	6.5029998
156	1	1	0.24321	25.26	-18.225	6.987
157	1	3	-0.463404	26.584999	-18.540001	7.4489999
158	1	1	0.81887501	27.788	-18.009001	6.8800001
159	1	2	-0.53812802	27.771	-17.358999	5.802
160	1	1	-0.35260499	24.252001	-19.195999	7.079
161	1	1	-0.127013	22.950001	-18.91	6.6570001
162	1	1	-0.127013	19.766001	-17.664	7.757
163	1	1	-0.35260499	19.072001	-17.171	8.8660002
164	1	5	0.332423	18.715	-14.372	10.701
165	1	6	0.22989	19.764999	-13.857	8.4919996
166	1	6	0.22769199	20.988001	-14.724	6.5440001
167	1	7	0.13283201	20.729	-18.233	5.322
168	1	7	0.13283201	21.23	-16.579	4.9000001
169	1	6	0.22769199	23.399	-15.665	5.7199998
170	1	6	0.22989	25.674	-16.157	6.4770002
171	1	5	0.332423	26.691999	-19.268999	8.1899996
172	1	6	0.22989	24.478001	-20.179001	7.4720001
173	1	6	0.22769199	22.187	-19.674999	6.7360001
174	1	6	0.22769199	19.782	-18.732	7.573
175	1	6	0.22989	18.584999	-17.872999	9.5290003
176	1	8	-0.48305699	28.697001	-18.195	7.3439999
177	1	4	0.17802601	29.672001	-18.176001	6.3379998
178	1	1	0.223378	29.987	-16.761	5.954
179	1	3	-0.63931203	30.975	-16.09	6.6079998
180	1	1	0.223378	31.284	-14.796	6.3179998
181	1	4	0.178027	32.363998	-14.1	7.0900002
182	1	8	-0.48305699	31.801001	-13.302	8.0950003
183	1	1	-0.33459601	30.552	-14.111	5.3379998
184	1	1	-0.13163801	29.527	-14.774	4.6620002
185	1	1	-0.33459601	29.236	-16.104	4.9699998
186	1	9	0.102159	30.591	-18.667	6.723
187	1	9	0.102159	29.333	-18.759001	5.4520001
188	1	9	0.102159	33.064999	-14.844	7.533
189	1	9	0.102159	32.955002	-13.453	6.4070001
190	1	6	0.228462	30.771	-13.076	5.105
191	1	6	0.23978101	28.952999	-14.255	3.905
192	1	6	0.228462	28.434	-16.614	4.4510002
193	1	1	0.81887501	31.493	-13.947	8.8479996
194	1	2	-0.53812802	31.344999	-13.501	10.016
195	1	3	-0.463404	31.195	-15.312	8.5279999
196	1	1	0.24321	30.909	-16.33	9.5019999
197	1	1	-0.35260499	30.018999	-17.364	9.1739998
198	1	1	-0.127013	29.74	-18.379	10.093
199	1	1	-0.233337	30.353001	-18.379999	11.356
200	1	4	-0.046711002	30.084	-19.493999	12.33
201	1	1	-0.233337	31.056	-20.622	12.113
202	1	1	-0.127013	30.763	-21.642	11.194
203	1	1	-0.35260499	31.681	-22.671	10.964
204	1	1	0.24321	32.907001	-22.698	11.654
205	1	3	-0.463404	33.880001	-23.73	11.418
206	1	1	0.81887501	33.556999	-25.094999	11.123
207	1	2	-0.53812802	32.377998	-25.525999	11.228
208	1	1	-0.35260499	33.210999	-21.657	12.544
209	1	1	-0.127013	32.292999	-20.629	12.775
210	1	1	-0.127013	31.271	-17.367001	11.674
211	1	1	-0.35260499	31.549	-16.351	10.754
212	1	5	0.332423	31.094999	-15.551	7.5159998
213	1	6	0.22989	29.535999	-17.379	8.2049999
214	1	6	0.22769199	29.049	-19.167	9.8199997
215	1	7	0.13283201	30.164	-19.117001	13.373
216	1	7	0.13283201	29.041	-19.861	12.213
217	1	6	0.22769199	29.827999	-21.634001	10.648
218	1	6	0.22989	31.443001	-23.424	10.226
219	1	5	0.332423	34.889999	-23.500999	11.556
220	1	6	0.22989	34.16	-21.648001	13.066
221	1	6	0.22769199	32.548	-19.837	13.468
222	1	6	0.22769199	31.778999	-17.370001	12.63
223	1	6	0.22989	32.285999	-15.603	11.013
224	1	8	-0.48305699	34.313999	-25.750999	10.852
225	1	4	0.17802601	33.901001	-27.028	11.256
226	1	1	0.223378	32.883999	-27.566999	10.295
227	1	3	-0.63931203	33.294998	-28.290001	9.2159996
228	1	1	0.223378	32.417	-28.780001	8.2980003
229	1	4	0.178027	32.93	-29.547001	7.1160002
230	1	8	-0.48305699	32.994999	-28.712999	5.9920001
231	1	1	-0.33459601	31.048	-28.516001	8.4370003
232	1	1	-0.13163801	30.603001	-27.767	9.5279999
233	1	1	-0.33459601	31.521	-27.285	10.462
234	1	9	0.102159	34.785	-27.698999	11.273
235	1	9	0.102159	33.487999	-26.997999	12.29
236	1	9	0.102159	33.932999	-29.976999	7.3390002
237	1	9	0.102159	32.248001	-30.395	6.895
238	1	6	0.228462	30.336	-28.882999	7.7080002
239	1	6	0.23978101	29.548	-27.554001	9.6459999
240	1	6	0.228462	31.176001	-26.695	11.303
241	1	1	0.81887501	33.823002	-28.101	6.1240001
242	1	2	-0.53812802	34.358002	-27.566	5.1170001
243	1	3	-0.463404	34.303001	-27.841	7.4489999
244	1	1	0.24321	35.521999	-27.139999	7.7480001
245	1	1	-0.35260499	35.598	-26.361	8.9119997
246	1	1	-0.127013	36.778	-25.686001	9.2390003
247	1	1	-0.233337	37.904999	-25.787001	8.4090004
248	1	4	-0.046711002	39.187	-25.094	8.7819996
249	1	1	-0.233337	40.030998	-25.99	9.6479998
250	1	1	-0.127013	39.870998	-25.982	11.042
251	1	1	-0.35260499	40.627998	-26.841	11.844
252	1	1	0.24321	41.561001	-27.718	11.264
253	1	3	-0.463404	42.334999	-28.629	12.064
254	1	1	0.81887501	42.824001	-28.337999	13.379
255	1	2	-0.53812802	42.757999	-27.174999	13.859
256	1	1	-0.35260499	41.692001	-27.747999	9.868
257	1	1	-0.127013	40.936001	-26.889	9.0649996
258	1	1	-0.127013	37.842999	-26.594999	7.263
259	1	1	-0.35260499	36.662998	-27.268	6.9349999
260	1	5	0.332423	33.674999	-28.106001	8.2410002
261	1	6	0.22989	34.737999	-26.27	9.5629997
262	1	6	0.22769199	36.813999	-25.089001	10.141
263	1	7	0.13283201	39.749001	-24.809999	7.8639998
264	1	7	0.13283201	38.966999	-24.143999	9.316
265	1	6	0.22769199	39.152	-25.319	11.506
266	1	6	0.22989	40.459	-26.837	12.913
267	1	5	0.332423	42.640999	-29.531	11.634
268	1	6	0.22989	42.388	-28.434999	9.4020004
269	1	6	0.22769199	41.055	-26.927999	7.9889998
270	1	6	0.22769199	38.714001	-26.711	6.6290002
271	1	6	0.22989	36.654999	-27.91	6.0650001
272	1	8	-0.48305699	43.275002	-29.09	13.934
273	1	4	0.17802601	44.189999	-28.462	14.79
274	1	1	0.223378	43.466999	-27.836	15.945
275	1	3	-0.63931203	43.251999	-28.562	17.077
276	1	1	0.223378	42.578999	-28.052	18.146
277	1	4	0.178027	42.348999	-28.907	19.355
278	1	8	-0.48305699	41.056	-29.445	19.327
279	1	1	-0.33459601	42.058998	-26.752001	18.080999
280	1	1	-0.13163801	42.255001	-25.993	16.927
281	1	1	-0.33459601	42.959	-26.533001	15.849
282	1	9	0.102159	44.902	-29.225	15.17
283	1	9	0.102159	44.785	-27.700001	14.237
284	1	9	0.102159	43.108002	-29.721001	19.403999
285	1	9	0.102159	42.463001	-28.292999	20.274
286	1	6	0.228462	41.505001	-26.334999	18.914
287	1	6	0.23978101	41.856998	-24.988001	16.864
288	1	6	0.228462	43.102001	-25.947001	14.95
289	1	1	0.81887501	41.068001	-30.209	18.625
290	1	2	-0.53812802	40.196999	-31.115999	18.688999
291	1	3	-0.463404	42.040001	-30.181999	17.572001
292	1	1	0.24321	42.252998	-31.253	16.636
293	1	1	-0.35260499	42.660999	-30.952	15.328
294	1	1	-0.127013	42.896999	-31.974001	14.404
295	1	1	-0.233337	42.734001	-33.316002	14.777
296	1	4	-0.046711002	43.027	-34.417999	13.795
297	1	1	-0.233337	44.478001	-34.812	13.871
298	1	1	-0.127013	45.433998	-34.147999	13.087
299	1	1	-0.35260499	46.785999	-34.487999	13.183
300	1	1	0.24321	47.202999	-35.501999	14.065
301	1	3	-0.463404	48.591	-35.854	14.203
302	1	1	0.81887501	49.540001	-35.841999	13.129
303	1	2	-0.53812802	49.174	-35.691002	11.934
304	1	1	-0.35260499	46.249001	-36.138	14.873
305	1	1	-0.127013	44.896999	-35.799	14.776
306	1	1	-0.127013	42.361	-33.623001	16.094
307	1	1	-0.35260499	42.124001	-32.601002	17.018
308	1	5	0.332423	42.561001	-29.288	17.43
309	1	6	0.22989	42.790001	-29.921	15.023
310	1	6	0.22769199	43.209999	-31.718	13.399
311	1	7	0.13283201	42.381001	-35.299	14.004
312	1	7	0.13283201	42.775002	-34.087002	12.763
313	1	6	0.22769199	45.132999	-33.360001	12.407
314	1	6	0.22989	47.505001	-33.937	12.592
315	1	5	0.332423	48.918999	-36.229	15.122
316	1	6	0.22989	46.555	-36.903	15.576
317	1	6	0.22769199	44.176998	-36.303001	15.408
318	1	6	0.22769199	42.264	-34.654999	16.41
319	1	6	0.22989	41.870998	-32.867001	18.035
320	1	8	-0.48305699	50.544998	-35.998001	13.335
321	1	4	0.17802601	51.104	-36.576	12.187
322	1	1	0.223378	51.327	-35.526001	11.14
323	1	3	-0.63931203	52.509998	-34.854	11.102
324	1	1	0.223378	52.756001	-33.873001	10.189
325	1	4	0.178027	54.068001	-33.148998	10.213
326	1	8	-0.48305699	53.93	-31.922001	10.874
327	1	1	-0.33459601	51.757999	-33.513	9.2729998
328	1	1	-0.13163801	50.530998	-34.179001	9.3009996
329	1	1	-0.33459601	50.307999	-35.188	10.238
330	1	9	0.102159	52.077	-37.037998	12.459
331	1	9	0.102159	50.449001	-37.388	11.798
332	1	9	0.102159	54.846001	-33.772999	10.71
333	1	9	0.102159	54.41	-32.960999	9.1730003
334	1	6	0.228462	51.926998	-32.723	8.552
335	1	6	0.23978101	49.751999	-33.908001	8.6000004
336	1	6	0.228462	49.353001	-35.698002	10.265
337	1	1	0.81887501	53.877998	-32.136002	11.888
338	1	2	-0.53812802	54.171001	-31.238001	12.721
339	1	3	-0.463404	53.425999	-33.428001	12.313
340	1	1	0.24321	53.455002	-33.890999	13.675
341	1	1	-0.35260499	52.462002	-34.775002	14.12
342	1	1	-0.127013	52.478001	-35.258999	15.432
343	1	1	-0.233337	53.494999	-34.869999	16.316999
344	1	4	-0.046711002	53.535999	-35.423	17.716
345	1	1	-0.233337	54.318001	-36.708	17.746
346	1	1	-0.127013	53.674999	-37.932999	17.51
347	1	1	-0.35260499	54.407001	-39.124001	17.500999
348	1	1	0.24321	55.793999	-39.109001	17.733
349	1	3	-0.463404	56.575001	-40.316002	17.704
350	1	1	0.81887501	56.108002	-41.592999	18.157
351	1	2	-0.53812802	55.022999	-41.708	18.787001
352	1	1	-0.35260499	56.438	-37.879002	17.933001
353	1	1	-0.127013	55.707001	-36.688	17.943001
354	1	1	-0.127013	54.509998	-34.014	15.863
355	1	1	-0.35260499	54.493	-33.529999	14.552
356	1	5	0.332423	52.966	-34.029999	11.593
357	1	6	0.22989	51.667999	-35.084999	13.451
358	1	6	0.22769199	51.700001	-35.939999	15.755
359	1	7	0.13283201	53.993999	-34.681	18.406
360	1	7	0.13283201	52.501999	-35.595001	18.089001
361	1	6	0.22769199	52.609001	-37.965	17.322001
362	1	6	0.22989	53.890999	-40.049999	17.283001
363	1	5	0.332423	57.577999	-40.251999	17.419001
364	1	6	0.22989	57.508999	-37.845001	18.087999
365	1	6	0.22769199	56.223999	-35.749001	18.1
366	1	6	0.22769199	55.321999	-33.730999	16.521999
367	1	6	0.22989	55.306	-32.898998	14.22
368	1	8	-0.48305699	56.691002	-42.436001	17.996
369	1	4	0.17802601	56.389	-43.334999	19.027
370	1	1	0.223378	55.077	-44.007999	18.756001
371	1	3	-0.63931203	55.049	-45.167999	18.044001
372	1	1	0.223378	53.883999	-45.806	17.746
373	1	4	0.178027	53.914001	-47.067001	16.936001
374	1	8	-0.48305699	53.617001	-46.785999	15.596
375	1	1	-0.33459601	52.664001	-45.248001	18.153
376	1	1	-0.13163801	52.665001	-44.051998	18.872999
377	1	1	-0.33459601	53.874001	-43.423	19.176001
378	1	9	0.102159	57.192001	-44.101002	19.079
379	1	9	0.102159	56.368	-42.812	20.011
380	1	9	0.102159	54.910999	-47.556999	17.018
381	1	9	0.102159	53.16	-47.782001	17.329
382	1	6	0.228462	51.724998	-45.730999	17.91
383	1	6	0.23978101	51.73	-43.610001	19.190001
384	1	6	0.228462	53.873001	-42.490002	19.726
385	1	8	-0.48305699	-6.3670001	-0.579	2.3540001
386	1	4	0.17802601	-7.21	0.537	2.2709999
387	1	1	0.226193	-8.2119999	0.345	1.173
388	1	3	-0.63501	-9.4049997	-0.252	1.447
389	1	1	0.214439	-10.34	-0.47600001	0.48199999
390	1	4	0.151409	-11.625	-1.161	0.83899999
391	1	10	-0.662754	-11.557	-2.5190001	0.50099999
392	1	1	-0.32785699	-10.069	-0.113	-0.84399998
393	1	1	-0.13019399	-8.8470001	0.48800001	-1.153
394	1	1	-0.33459601	-7.9099998	0.71799999	-0.14399999
395	1	9	0.102159	-7.7420001	0.65399998	3.2390001
396	1	9	0.102159	-6.6170001	1.466	2.105
397	1	9	0.099319004	-11.84	-1.041	1.926
398	1	9	0.099319004	-12.465	-0.69300002	0.28299999
399	1	11	0.40430099	-10.986	-2.954	1.188
400	1	6	0.228605	-10.792	-0.29899999	-1.628
401	1	6	0.23978101	-8.625	0.76999998	-2.174
402	1	6	0.228462	-6.9590001	1.176	-0.38600001
403	1	1	0.81887501	54.500999	-46.327999	15.173
404	1	2	-0.53812802	54.994999	-45.313999	15.733
405	1	3	-0.463404	55.056	-46.854	13.96
406	1	1	0.24321	56.305	-46.43	13.388
407	1	1	-0.35260499	57.398998	-46.068001	14.195
408	1	1	-0.127013	58.610001	-45.683998	13.613
409	1	1	-0.233337	58.75	-45.66	12.217
410	1	4	-0.046711002	60.067001	-45.284	11.592
411	1	1	-0.24685401	60.931	-46.504002	11.428
412	1	1	-0.17286301	60.848	-47.279999	10.261
413	1	1	-0.240032	61.625	-48.432999	10.124
414	1	1	0.448488	62.488998	-48.835999	11.149
415	1	3	-0.29054001	63.266998	-50.028999	10.964
416	1	12	0.61790401	64.082001	-50.486	11.83
417	1	2	-0.225531	64.874001	-50.931	12.67
418	1	1	-0.240032	62.563999	-48.063999	12.326
419	1	1	-0.17286301	61.786999	-46.91	12.463
420	1	1	-0.127013	57.671001	-46.054001	11.412
421	1	1	-0.35260499	56.459999	-46.438999	11.994
422	1	5	0.332423	54.463001	-47.523998	13.42
423	1	6	0.22989	57.330002	-46.110001	15.274
424	1	6	0.22769199	59.443001	-45.416	14.251
425	1	7	0.13283201	60.587002	-44.528999	12.222
426	1	7	0.13283201	59.896999	-44.799999	10.605
427	1	6	0.21449	60.18	-46.992001	9.4589996
428	1	6	0.221122	61.551998	-49.019001	9.2159996
429	1	6	0.221122	63.217999	-48.352001	13.139
430	1	6	0.21449	61.851002	-46.334	13.378
431	1	6	0.22769199	57.769001	-46.067001	10.333
432	1	6	0.22989	55.637001	-46.738998	11.357

Bonds

1	1	1	2
2	2	1	3
3	3	1	385
4	4	3	4
5	5	3	20
6	6	4	5
7	6	4	19
8	6	5	6
9	7	5	21
10	6	6	7
11	7	6	22
12	8	7	8
13	6	7	18
14	8	8	9
15	9	8	23
16	9	8	24
17	6	9	10
18	6	9	17
19	6	10	11
20	7	10	25
21	6	11	12
22	7	11	26
23	4	12	13
24	6	12	16
25	2	13	14
26	5	13	27
27	1	14	15
28	3	14	32
29	6	16	17
30	7	16	28
31	7	17	29
32	6	18	19
33	7	18	30
34	7	19	31
35	10	32	33
36	8	33	34
37	9	33	42
38	9	33	43
39	11	34	35
40	6	34	41
41	11	35	36
42	8	36	37
43	6	36	39
44	10	37	38
45	9	37	44
46	9	37	45
47	3	38	49
48	6	39	40
49	7	39	46
50	6	40	41
51	7	40	47
52	7	41	48
53	1	49	50
54	2	49	51
55	4	51	52
56	5	51	68
57	6	52	53
58	6	52	67
59	6	53	54
60	7	53	69
61	6	54	55
62	7	54	70
63	8	55	56
64	6	55	66
65	8	56	57
66	9	56	71
67	9	56	72
68	6	57	58
69	6	57	65
70	6	58	59
71	7	58	73
72	6	59	60
73	7	59	74
74	4	60	61
75	6	60	64
76	2	61	62
77	5	61	75
78	1	62	63
79	3	62	80
80	6	64	65
81	7	64	76
82	7	65	77
83	6	66	67
84	7	66	78
85	7	67	79
86	10	80	81
87	8	81	82
88	9	81	90
89	9	81	91
90	11	82	83
91	6	82	89
92	11	83	84
93	8	84	85
94	6	84	87
95	10	85	86
96	9	85	92
97	9	85	93
98	3	86	97
99	6	87	88
100	7	87	94
101	6	88	89
102	7	88	95
103	7	89	96
104	1	97	98
105	2	97	99
106	4	99	100
107	5	99	116
108	6	100	101
109	6	100	115
110	6	101	102
111	7	101	117
112	6	102	103
113	7	102	118
114	8	103	104
115	6	103	114
116	8	104	105
117	9	104	119
118	9	104	120
119	6	105	106
120	6	105	113
121	6	106	107
122	7	106	121
123	6	107	108
124	7	107	122
125	4	108	109
126	6	108	112
127	2	109	110
128	5	109	123
129	1	110	111
130	3	110	128
131	6	112	113
132	7	112	124
133	7	113	125
134	6	114	115
135	7	114	126
136	7	115	127
137	10	128	129
138	8	129	130
139	9	129	138
140	9	129	139
141	11	130	131
142	6	130	137
143	11	131	132
144	8	132	133
145	6	132	135
146	10	133	134
147	9	133	140
148	9	133	141
149	3	134	145
150	6	135	136
151	7	135	142
152	6	136	137
153	7	136	143
154	7	137	144
155	1	145	146
156	2	145	147
157	4	147	148
158	5	147	164
159	6	148	149
160	6	148	163
161	6	149	150
162	7	149	165
163	6	150	151
164	7	150	166
165	8	151	152
166	6	151	162
167	8	152	153
168	9	152	167
169	9	152	168
170	6	153	154
171	6	153	161
172	6	154	155
173	7	154	169
174	6	155	156
175	7	155	170
176	4	156	157
177	6	156	160
178	2	157	158
179	5	157	171
180	1	158	159
181	3	158	176
182	6	160	161
183	7	160	172
184	7	161	173
185	6	162	163
186	7	162	174
187	7	163	175
188	10	176	177
189	8	177	178
190	9	177	186
191	9	177	187
192	11	178	179
193	6	178	185
194	11	179	180
195	8	180	181
196	6	180	183
197	10	181	182
198	9	181	188
199	9	181	189
200	3	182	193
201	6	183	184
202	7	183	190
203	6	184	185
204	7	184	191
205	7	185	192
206	1	193	194
207	2	193	195
208	4	195	196
209	5	195	212
210	6	196	197
211	6	196	211
212	6	197	198
213	7	197	213
214	6	198	199
215	7	198	214
216	8	199	200
217	6	199	210
218	8	200	201
219	9	200	215
220	9	200	216
221	6	201	202
222	6	201	209
223	6	202	203
224	7	202	217
225	6	203	204
226	7	203	218
227	4	204	205
228	6	204	208
229	2	205	206
230	5	205	219
231	1	206	207
232	3	206	224
233	6	208	209
234	7	208	220
235	7	209	221
236	6	210	211
237	7	210	222
238	7	211	223
239	10	224	225
240	8	225	226
241	9	225	234
242	9	225	235
243	11	226	227
244	6	226	233
245	11	227	228
246	8	228	229
247	6	228	231
248	10	229	230
249	9	229	236
250	9	229	237
251	3	230	241
252	6	231	232
253	7	231	238
254	6	232	233
255	7	232	239
256	7	233	240
257	1	241	242
258	2	241	243
259	4	243	244
260	5	243	260
261	6	244	245
262	6	244	259
263	6	245	246
264	7	245	261
265	6	246	247
266	7	246	262
267	8	247	248
268	6	247	258
269	8	248	249
270	9	248	263
271	9	248	264
272	6	249	250
273	6	249	257
274	6	250	251
275	7	250	265
276	6	251	252
277	7	251	266
278	4	252	253
279	6	252	256
280	2	253	254
281	5	253	267
282	1	254	255
283	3	254	272
284	6	256	257
285	7	256	268
286	7	257	269
287	6	258	259
288	7	258	270
289	7	259	271
290	10	272	273
291	8	273	274
292	9	273	282
293	9	273	283
294	11	274	275
295	6	274	281
296	11	275	276
297	8	276	277
298	6	276	279
299	10	277	278
300	9	277	284
301	9	277	285
302	3	278	289
303	6	279	280
304	7	279	286
305	6	280	281
306	7	280	287
307	7	281	288
308	1	289	290
309	2	289	291
310	4	291	292
311	5	291	308
312	6	292	293
313	6	292	307
314	6	293	294
315	7	293	309
316	6	294	295
317	7	294	310
318	8	295	296
319	6	295	306
320	8	296	297
321	9	296	311
322	9	296	312
323	6	297	298
324	6	297	305
325	6	298	299
326	7	298	313
327	6	299	300
328	7	299	314
329	4	300	301
330	6	300	304
331	2	301	302
332	5	301	315
333	1	302	303
334	3	302	320
335	6	304	305
336	7	304	316
337	7	305	317
338	6	306	307
339	7	306	318
340	7	307	319
341	10	320	321
342	8	321	322
343	9	321	330
344	9	321	331
345	11	322	323
346	6	322	329
347	11	323	324
348	8	324	325
349	6	324	327
350	10	325	326
351	9	325	332
352	9	325	333
353	3	326	337
354	6	327	328
355	7	327	334
356	6	328	329
357	7	328	335
358	7	329	336
359	1	337	338
360	2	337	339
361	4	339	340
362	5	339	356
363	6	340	341
364	6	340	355
365	6	341	342
366	7	341	357
367	6	342	343
368	7	342	358
369	8	343	344
370	6	343	354
371	8	344	345
372	9	344	359
373	9	344	360
374	6	345	346
375	6	345	353
376	6	346	347
377	7	346	361
378	6	347	348
379	7	347	362
380	4	348	349
381	6	348	352
382	2	349	350
383	5	349	363
384	1	350	351
385	3	350	368
386	6	352	353
387	7	352	364
388	7	353	365
389	6	354	355
390	7	354	366
391	7	355	367
392	10	368	369
393	8	369	370
394	9	369	378
395	9	369	379
396	11	370	371
397	6	370	377
398	11	371	372
399	8	372	373
400	6	372	375
401	10	373	374
402	9	373	380
403	9	373	381
404	3	374	403
405	6	375	376
406	7	375	382
407	6	376	377
408	7	376	383
409	7	377	384
410	10	385	386
411	8	386	387
412	9	386	395
413	9	386	396
414	11	387	388
415	6	387	394
416	11	388	389
417	8	389	390
418	6	389	392
419	12	390	391
420	9	390	397
421	9	390	398
422	13	391	399
423	6	392	393
424	7	392	400
425	6	393	394
426	7	393	401
427	7	394	402
428	1	403	404
429	2	403	405
430	4	405	406
431	5	405	422
432	6	406	407
433	6	406	421
434	6	407	408
435	7	407	423
436	6	408	409
437	7	408	424
438	8	409	410
439	6	409	420
440	8	410	411
441	9	410	425
442	9	410	426
443	6	411	412
444	6	411	419
445	6	412	413
446	7	412	427
447	6	413	414
448	7	413	428
449	14	414	415
450	6	414	418
451	15	415	416
452	1	416	417
453	6	418	419
454	7	418	429
455	7	419	430
456	6	420	421
457	7	420	431
458	7	421	432

Angles

1	6	322	329	336
2	4	386	387	394
3	3	133	134	145
4	3	254	272	273
5	7	247	248	249
6	6	19	18	30
7	8	330	321	331
8	4	413	414	418
9	4	8	7	18
10	4	51	52	53
11	4	200	201	209
12	7	228	229	230
13	6	393	392	400
14	6	295	294	310
15	4	296	295	306
16	7	226	225	234
17	4	84	87	88
18	3	85	86	97
19	7	199	200	216
20	7	385	386	396
21	7	34	33	42
22	6	293	294	310
23	7	130	129	139
24	2	4	3	20
25	6	300	304	316
26	5	326	337	338
27	4	146	145	147
28	7	409	410	426
29	4	101	102	103
30	4	273	274	281
31	6	297	305	317
32	4	388	389	392
33	9	414	415	416
34	6	100	115	127
35	7	372	373	374
36	4	407	406	421
37	2	340	339	356
38	7	7	8	9
39	6	40	39	46
40	2	193	195	212
41	4	131	130	137
42	4	327	328	329
43	7	84	85	92
44	4	81	82	83
45	6	155	154	169
46	4	228	231	232
47	2	204	205	219
48	4	57	65	64
49	7	322	321	330
50	2	97	99	116
51	4	250	251	252
52	4	253	254	255
53	6	294	293	309
54	4	341	342	343
55	4	54	55	56
56	4	231	232	233
57	4	200	201	202
58	4	157	156	160
59	6	103	102	118
60	7	411	410	426
61	4	157	158	176
62	6	245	246	262
63	7	55	56	71
64	4	4	19	18
65	6	58	59	74
66	6	162	163	175
67	9	178	179	180
68	3	390	391	399
69	6	420	421	432
70	6	280	279	286
71	4	372	375	376
72	6	149	150	166
73	6	34	41	48
74	2	292	291	308
75	4	227	226	233
76	7	230	229	236
77	3	37	38	49
78	4	58	57	65
79	4	201	209	208
80	7	86	85	92
81	4	230	241	243
82	7	182	181	189
83	6	247	258	270
84	1	300	301	302
85	6	184	185	192
86	6	348	347	362
87	7	389	390	397
88	4	155	156	160
89	4	406	421	420
90	6	57	65	77
91	8	332	325	333
92	6	343	354	366
93	4	100	101	102
94	7	228	229	236
95	4	387	394	393
96	1	108	109	110
97	4	229	228	231
98	7	36	37	44
99	4	108	112	113
100	6	151	162	174
101	2	406	405	422
102	6	156	160	172
103	6	409	420	431
104	6	414	418	429
105	7	176	177	186
106	4	149	148	163
107	6	393	394	402
108	3	62	80	81
109	4	52	53	54
110	6	12	11	26
111	2	289	291	308
112	4	133	132	135
113	1	241	243	244
114	7	385	386	395
115	6	305	304	316
116	4	294	295	296
117	6	66	67	79
118	6	201	209	221
119	6	251	250	265
120	7	372	373	380
121	7	80	81	91
122	4	227	228	231
123	7	201	200	215
124	6	394	393	401
125	4	61	60	64
126	4	99	100	115
127	6	327	328	335
128	4	102	103	114
129	6	40	41	48
130	4	83	84	87
131	7	153	152	168
132	6	228	231	238
133	2	1	3	20
134	7	132	133	141
135	2	337	339	356
136	4	340	355	354
137	6	258	259	271
138	2	108	109	123
139	4	301	302	320
140	8	311	296	312
141	2	196	195	212
142	2	403	405	422
143	6	231	232	239