Title

432 atoms
458 bonds
752 angles
1139 dihedrals
561 impropers

12 atom types
17 bond types
10 angle types
22 dihedral types
3 improper types
-16.29899979 83.70100021 xlo xhi
-53.74000168 46.25999832 ylo yhi
-28.04199982 71.95800018 zlo zhi
0.0 0.0 0.0 xy xz yz

Masses

1	15.99943
2	12.01078
3	14.00672
4	1.007947
5	12.01078
6	1.007947
7	1.007947
8	15.99943
9	1.007947
10	12.01078
11	15.99943
12	1.007947


Pair Coeffs

1	0.2102061	3.0398122
2	0.086879315	3.4806469
3	0.16769152	3.206876
4	0.015611343	2.5725815
5	0.10884061	3.3795318
6	0.014090815	1.1034277
7	0.015779483	2.6445434
8	0.16846514	3.0251065
9	0.016409246	2.5832257
10	0.21	3.3996695
11	0.20947353	2.99716
12	1.2326e-05	0.53453923

Bond Coeffs

1 harmonic	582.698766451	1.225198386222
2 harmonic	492.76746816345	1.381897776683
3 harmonic	301.15400723785	1.345741232799
4 harmonic	390.03554688505	1.390160554689
5 harmonic	505.144496193	1.019481865027
6 harmonic	360.7852444772	1.387193227181
7 harmonic	397.2545789619	1.085358495916
8 harmonic	289.73813263395	1.498646816465
9 harmonic	370.04670688625	1.093899492634
10 harmonic	279.1350963404	1.454628925034
11 harmonic	366.7408841747	1.425895053732
12 harmonic	445.3060766333	1.328776712165
13 harmonic	300.03137914615	1.451203938761
14 harmonic	382.5450169811	1.379244394267
15 harmonic	602.81384337	1.196112346392
16 harmonic	329.96998057905	1.427343958716
17 harmonic	543.5267831885	0.9716763312559


Angle Coeffs

1 harmonic	57.8982893754	126.8062420451
2 harmonic	201.41175231035	127.4691416191
3 harmonic	55.42182150775	117.3465570514
4 harmonic	63.44422595415	115.5071327674
5 harmonic	65.09061609600001	110.3538806181
6 harmonic	34.066775159195	129.1835929926
7 harmonic	53.20531626545	116.5475862634
8 harmonic	48.776492647595	115.6030999533
9 harmonic	55.07882548015	112.8714009681
10 harmonic	33.56981613361	180


Dihedral Coeffs

1 fourier 1	1.809047390003	2	180
2 fourier 1	-0.04816277792592	1	0
3 fourier 1	0.4860993122944	2	180
4 fourier 1	0.8916986138746	1	0
5 fourier 1	1.163809172478	2	180
6 fourier 1	0.1679186987369	1	180
7 fourier 1	1.193093382682	2	180
8 fourier 1	0.0473758381877	3	0
9 fourier 1	2.779853741805	2	180
10 fourier 1	3.661930099076	2	180
11 fourier 1	0.02664938770063	3	0
12 fourier 1	3.101948770557	2	180
13 fourier 1	-0.4252153282372	1	0
14 fourier 1	0.9974165607242	2	180
15 fourier 1	2.348375642009	2	180
16 fourier 1	1.256156174911	1	0
17 fourier 1	3.731869940596	2	180
18 fourier 1	5.913282223828	2	180
19 fourier 1	0.457973137376	1	0
20 fourier 1	1.550515418264	2	180
21 fourier 1	0	1	0
22 fourier 1	0.3026390167484	3	0


Improper Coeffs

1 3.5	-1	2
2 0.3333333333333333	-1	2
3 0.3666666666666667	-1	2


Atoms

1	1	1	-0.53822398	5.888	1.24	-0.66600001
2	1	2	0.81885397	5.763	0.13699999	-1.261
3	1	3	-0.46342599	4.664	-0.73799998	-0.98100001
4	1	2	0.243163	3.517	-0.37	-0.19499999
5	1	2	-0.35265401	2.8740001	-1.309	0.51999998
6	1	2	-0.127064	1.6849999	-0.95899999	1.324
7	1	2	-0.23337699	1.228	0.30500001	1.3430001
8	1	2	-0.127064	1.906	1.335	0.51999998
9	1	2	-0.35265401	2.983	1.017	-0.208
10	1	4	0.229846	3.4389999	1.776	-0.829
11	1	4	0.227649	1.521	2.346	0.493
12	1	5	-0.046723999	-0.0060000001	0.66500002	2.1259999
13	1	2	-0.23337699	-1.234	0.47	1.28
14	1	2	-0.127064	-1.6900001	1.4579999	0.491
15	1	2	-0.36436599	-2.8740001	1.243	-0.366
16	1	2	0.21908	-3.5139999	0.061000001	-0.36300001
17	1	2	-0.36436599	-2.983	-1.044	0.477
18	1	2	-0.127064	-1.91	-0.84899998	1.253
19	1	4	0.227649	-1.527	-1.666	1.852
20	1	4	0.229846	-3.4360001	-2.026	0.44600001
21	1	3	-0.50124103	-4.6560001	-0.12899999	-1.216
22	1	2	0.57680398	-5.7550001	-0.995	-0.90799999
23	1	1	-0.57653201	-5.8860002	-1.506	0.235
24	1	6	0.32868299	-4.737	0.44999999	-2.082
25	1	4	0.229846	-3.227	2.056	-0.98799998
26	1	4	0.227649	-1.1950001	2.421	0.47
27	1	7	0.132809	0.061999999	1.72	2.4719999
28	1	7	0.132809	-0.077	0.039999999	3.043
29	1	4	0.227649	1.189	-1.735	1.893
30	1	4	0.229846	3.2290001	-2.332	0.52700001
31	1	6	0.33239901	4.7480001	-1.726	-1.313
32	1	8	-0.48307699	8.9820004	4.1129999	-6.0019999
33	1	5	0.178011	7.7670002	3.4189999	-5.9679999
34	1	2	0.223326	7.3179998	3.2780001	-4.5479999
35	1	3	-0.63936102	7.612	2.1989999	-3.878
36	1	2	0.223326	7.2350001	2.03	-2.4979999
37	1	5	0.178011	7.5560002	0.74199998	-1.8
38	1	8	-0.48307699	6.4910002	-0.15800001	-1.938
39	1	9	0.102128	7.7849998	0.91799998	-0.72399998
40	1	9	0.102128	8.4619999	0.294	-2.26
41	1	2	-0.33464801	6.5539999	3.0039999	-1.872
42	1	2	-0.131688	6.2290001	4.2449999	-2.5999999
43	1	2	-0.33464801	6.5949998	4.3829999	-3.878
44	1	4	0.228416	6.3610001	5.2930002	-4.415
45	1	4	0.23973399	5.6960001	5.0409999	-2.0969999
46	1	4	0.228416	6.2420001	2.892	-0.84100002
47	1	9	0.102128	6.9970002	3.974	-6.5489998
48	1	9	0.102128	7.8930001	2.4119999	-6.4260001
49	1	1	-0.53822398	11.4	-3.244	-15.99
50	1	2	0.81885397	12.216	-3.556	-15.083
51	1	3	-0.46342599	12.684	-2.5869999	-14.137
52	1	2	0.243163	12.128	-1.2690001	-13.987
53	1	2	-0.35265401	12.917	-0.25799999	-13.587
54	1	2	-0.127064	12.365	1.101	-13.412
55	1	2	-0.23337699	11.064	1.341	-13.644
56	1	2	-0.127064	10.18	0.219	-14.042
57	1	2	-0.35265401	10.679	-1.013	-14.201
58	1	4	0.229846	10.008	-1.822	-14.454
59	1	4	0.227649	9.1210003	0.38999999	-14.189
60	1	5	-0.046723999	10.483	2.7119999	-13.43
61	1	2	-0.23337699	10.027	2.8670001	-12.005
62	1	2	-0.127064	8.7869997	2.503	-11.636
63	1	2	-0.35265401	8.3629999	2.6229999	-10.226
64	1	2	0.243163	9.2060003	3.1029999	-9.2969999
65	1	2	-0.35265401	10.592	3.464	-9.698
66	1	2	-0.127064	10.976	3.355	-10.976
67	1	4	0.227649	11.991	3.6099999	-11.253
68	1	4	0.229846	11.313	3.786	-8.9589996
69	1	3	-0.46342599	8.776	3.197	-7.928
70	1	2	0.81885397	9.2419996	4.1869998	-7.0029998
71	1	1	-0.53822398	9.9250002	5.1719999	-7.3889999
72	1	6	0.33239901	8.0209999	2.5550001	-7.5939999
73	1	4	0.229846	7.3559999	2.3299999	-9.9540005
74	1	4	0.227649	8.085	2.1159999	-12.364
75	1	7	0.132809	9.632	2.8740001	-14.127
76	1	7	0.132809	11.237	3.493	-13.672
77	1	4	0.227649	13.025	1.898	-13.092
78	1	4	0.229846	13.971	-0.42500001	-13.402
79	1	6	0.33239901	13.531	-2.8410001	-13.579
80	1	8	-0.48307699	8.6520004	-9.467	-16.082001
81	1	5	0.178011	8.8570004	-8.6210003	-14.987
82	1	2	0.223326	9.1560001	-7.2399998	-15.478
83	1	3	-0.63936102	10.394	-6.8579998	-15.628
84	1	2	0.223326	10.735	-5.553	-16.132
85	1	5	0.178011	12.178	-5.1550002	-16.229
86	1	8	-0.48307699	12.584	-4.526	-15.045
87	1	9	0.102128	12.35	-4.4899998	-17.106001
88	1	9	0.102128	12.797	-6.0640001	-16.378
89	1	2	-0.33464801	9.7580004	-4.691	-16.457001
90	1	2	-0.131688	8.349	-5.1059999	-16.319
91	1	2	-0.33464801	8.0559998	-6.3249998	-15.856
92	1	4	0.228416	7.0229998	-6.6350002	-15.756
93	1	4	0.23973399	7.5549998	-4.4229999	-16.594999
94	1	4	0.228416	9.9890003	-3.6960001	-16.818001
95	1	9	0.102128	7.9460001	-8.6000004	-14.348
96	1	9	0.102128	9.7069998	-8.9960003	-14.373
97	1	1	-0.53822398	13.843	-18.242001	-8.6140003
98	1	2	0.81885397	14.627	-18.056999	-9.5830002
99	1	3	-0.46342599	14.136	-17.690001	-10.878
100	1	2	0.243163	12.78	-17.290001	-11.144
101	1	2	-0.35265401	12.237	-17.549	-12.346
102	1	2	-0.127064	10.851	-17.135	-12.649
103	1	2	-0.23337699	10.119	-16.488001	-11.726
104	1	2	-0.127064	10.729	-16.160999	-10.415
105	1	2	-0.35265401	11.984	-16.535999	-10.141
106	1	4	0.229846	12.421	-16.253	-9.1920004
107	1	4	0.227649	10.164	-15.602	-9.6800003
108	1	5	-0.046723999	8.7209997	-16.027	-12.038
109	1	2	-0.23337699	8.7510004	-14.654	-12.652
110	1	2	-0.127064	8.7279997	-13.554	-11.88
111	1	2	-0.35265401	8.7969999	-12.212	-12.492
112	1	2	0.243163	8.8780003	-12.072	-13.826
113	1	2	-0.35265401	8.948	-13.289	-14.676
114	1	2	-0.127064	8.8850002	-14.506	-14.121
115	1	4	0.227649	8.9490004	-15.385	-14.75
116	1	4	0.229846	9.0839996	-13.207	-15.745
117	1	3	-0.46342599	8.9589996	-10.754	-14.397
118	1	2	0.81885397	8.4429998	-10.403	-15.687
119	1	1	-0.53822398	7.7030001	-11.192	-16.332001
120	1	6	0.33239901	9.3500004	-9.9790001	-13.816
121	1	4	0.229846	8.7690001	-11.34	-11.849
122	1	4	0.227649	8.6599998	-13.637	-10.802
123	1	7	0.132809	8.1099997	-16.021	-11.108
124	1	7	0.132809	8.2250004	-16.74	-12.732
125	1	4	0.227649	10.438	-17.360001	-13.624
126	1	4	0.229846	12.804	-18.076	-13.103
127	1	6	0.33239901	14.795	-17.795	-11.682
128	1	8	-0.48307699	18.483999	-16.200001	-4.0770001
129	1	5	0.178011	18.046	-15.542	-5.2319999
130	1	2	0.223326	16.787001	-16.186001	-5.7199998
131	1	3	-0.63936102	16.844999	-17.118	-6.6300001
132	1	2	0.223326	15.666	-17.795	-7.1059999
133	1	5	0.178011	15.794	-18.819	-8.1940002
134	1	8	-0.48307699	15.644	-18.211	-9.448
135	1	9	0.102128	15.049	-19.636999	-8.0620003
136	1	9	0.102128	16.802999	-19.281	-8.1429996
137	1	2	-0.33464801	14.463	-17.462	-6.6100001
138	1	2	-0.131688	14.372	-16.427	-5.5619998
139	1	2	-0.33464801	15.48	-15.817	-5.1300001
140	1	4	0.228416	15.419	-15.06	-4.3590002
141	1	4	0.23973399	13.409	-16.165001	-5.145
142	1	4	0.228416	13.56	-17.941	-6.967
143	1	9	0.102128	17.853001	-14.469	-5.0079999
144	1	9	0.102128	18.83	-15.6	-6.02
145	1	1	-0.53822398	30.01	-13.353	-8.4090004
146	1	2	0.81885397	29.895	-14.607	-8.4350004
147	1	3	-0.46342599	29.087	-15.3	-7.4759998
148	1	2	0.243163	28.181999	-14.653	-6.5630002
149	1	2	-0.35265401	27.944	-15.206	-5.362
150	1	2	-0.127064	27.007999	-14.569	-4.4130001
151	1	2	-0.23337699	26.378	-13.429	-4.7449999
152	1	2	-0.127064	26.603001	-12.839	-6.085
153	1	2	-0.35265401	27.451	-13.416	-6.9450002
154	1	4	0.229846	27.57	-12.989	-7.9320002
155	1	4	0.227649	26.068001	-11.945	-6.381
156	1	5	-0.046723999	25.392	-12.793	-3.803
157	1	2	-0.23337699	24.016001	-13.358	-4.0300002
158	1	2	-0.127064	23.191999	-12.814	-4.941
159	1	2	-0.35265401	21.858	-13.4	-5.1849999
160	1	2	0.243163	21.448999	-14.478	-4.4949999
161	1	2	-0.35265401	22.379	-15.105	-3.5190001
162	1	2	-0.127064	23.587	-14.574	-3.299
163	1	4	0.227649	24.259001	-15.047	-2.5929999
164	1	4	0.229846	22.103001	-16.014	-3.0009999
165	1	3	-0.46342599	20.150999	-15.04	-4.7589998
166	1	2	0.81885397	19.35	-15.712	-3.78
167	1	1	-0.53822398	19.650999	-15.684	-2.5569999
168	1	6	0.33239901	19.723	-14.891	-5.7010002
169	1	4	0.229846	21.208	-12.94	-5.9190001
170	1	4	0.227649	23.493999	-11.943	-5.5100002
171	1	7	0.132809	25.386	-11.691	-3.95
172	1	7	0.132809	25.700001	-12.965	-2.7479999
173	1	4	0.227649	26.837	-15.036	-3.451
174	1	4	0.229846	28.445999	-16.120001	-5.0700002
175	1	6	0.33239901	29.228001	-16.332001	-7.395
176	1	8	-0.48307699	30.862	-12.988	-15.149
177	1	5	0.178011	29.841999	-13.624	-14.433
178	1	2	0.223326	29.865999	-13.151	-13.014
179	1	3	-0.63936102	30.518	-13.831	-12.113
180	1	2	0.223326	30.603001	-13.399	-10.742
181	1	5	0.178011	31.322001	-14.256	-9.743
182	1	8	-0.48307699	30.426001	-15.15	-9.1420002
183	1	9	0.102128	31.829	-13.63	-8.9729996
184	1	9	0.102128	32.110001	-14.84	-10.264
185	1	2	-0.33464801	29.99	-12.265	-10.364
186	1	2	-0.131688	29.264999	-11.463	-11.369
187	1	2	-0.33464801	29.205999	-11.881	-12.637
188	1	4	0.228416	28.677999	-11.294	-13.379
189	1	4	0.23973399	28.783001	-10.539	-11.077
190	1	4	0.228416	30.021999	-11.93	-9.335
191	1	9	0.102128	28.855	-13.388	-14.888
192	1	9	0.102128	29.989	-14.727	-14.465
193	1	1	-0.53822398	31.358999	-23.870001	-21.558001
194	1	2	0.81885397	32.448002	-23.746	-20.937
195	1	3	-0.46342599	33.012001	-22.455	-20.674999
196	1	2	0.243163	32.319	-21.212	-20.882999
197	1	2	-0.35265401	33.014999	-20.111	-21.212
198	1	2	-0.127064	32.327999	-18.82	-21.416
199	1	2	-0.23337699	30.995001	-18.73	-21.268
200	1	2	-0.127064	30.228001	-19.931	-20.861
201	1	2	-0.35265401	30.851	-21.101999	-20.676001
202	1	4	0.229846	30.275999	-21.955	-20.343
203	1	4	0.227649	29.16	-19.862	-20.695999
204	1	5	-0.046723999	30.289	-17.412001	-21.434
205	1	2	-0.23337699	30.26	-16.669001	-20.125999
206	1	2	-0.127064	29.263	-16.864	-19.246
207	1	2	-0.35265401	29.264	-16.159	-17.948
208	1	2	0.243163	30.256001	-15.31	-17.632999
209	1	2	-0.35265401	31.381001	-15.128	-18.587999
210	1	2	-0.127064	31.379	-15.767	-19.764999
211	1	4	0.227649	32.209999	-15.635	-20.447001
212	1	4	0.229846	32.227001	-14.506	-18.330999
213	1	3	-0.46342599	30.243999	-14.646	-16.357
214	1	2	0.81885397	30.797001	-13.346	-16.121
215	1	1	-0.53822398	31.163	-12.607	-17.073
216	1	6	0.33239901	29.738001	-15.097	-15.562
217	1	4	0.229846	28.445999	-16.327	-17.259001
218	1	4	0.227649	28.448	-17.541	-19.475
219	1	7	0.132809	29.254	-17.582001	-21.805
220	1	7	0.132809	30.799	-16.795	-22.207001
221	1	4	0.227649	32.914001	-17.948999	-21.684
222	1	4	0.229846	34.089001	-20.160999	-21.344
223	1	6	0.33239901	34.015999	-22.427	-20.385
224	1	8	-0.48307699	29.76	-29.584	-18.229
225	1	5	0.178011	30.142	-28.346001	-17.701
226	1	2	0.223326	30.052	-27.304001	-18.771
227	1	3	-0.63936102	31.108999	-26.997999	-19.469999
228	1	2	0.223326	31.066999	-26.028999	-20.535
229	1	5	0.178011	32.331001	-25.681999	-21.264999
230	1	8	-0.48307699	32.963001	-24.597	-20.643
231	1	9	0.102128	32.123001	-25.455	-22.336
232	1	9	0.102128	33.016998	-26.554001	-21.24
233	1	2	-0.33464801	29.910999	-25.41	-20.823999
234	1	2	-0.131688	28.694	-25.754999	-20.063999
235	1	2	-0.33464801	28.756001	-26.662001	-19.084
236	1	4	0.228416	27.865	-26.92	-18.525999
237	1	4	0.23973399	27.754999	-25.273001	-20.301001
238	1	4	0.228416	29.858	-24.662001	-21.606001
239	1	9	0.102128	29.472	-28.070999	-16.856001
240	1	9	0.102128	31.184999	-28.403999	-17.316999
241	1	1	-0.53822398	38.298	-34.194	-10.131
242	1	2	0.81885397	38.716	-34.426998	-11.296
243	1	3	-0.46342599	37.807999	-34.661999	-12.38
244	1	2	0.243163	36.388	-34.444	-12.307
245	1	2	-0.35265401	35.562	-35.203999	-13.044
246	1	2	-0.127064	34.101002	-34.988998	-12.997
247	1	2	-0.23337699	33.582001	-34.022999	-12.22
248	1	2	-0.127064	34.493	-33.152	-11.439
249	1	2	-0.35265401	35.816002	-33.347	-11.481
250	1	4	0.229846	36.463001	-32.675999	-10.933
251	1	4	0.227649	34.09	-32.342999	-10.843
252	1	5	-0.046723999	32.098999	-33.769001	-12.195
253	1	2	-0.23337699	31.719999	-32.792	-13.275
254	1	2	-0.127064	31.749001	-31.468	-13.046
255	1	2	-0.35265401	31.414	-30.517	-14.126
256	1	2	0.243163	31.069	-30.962	-15.346
257	1	2	-0.35265401	31.080999	-32.424999	-15.61
258	1	2	-0.127064	31.385	-33.286999	-14.632
259	1	4	0.227649	31.400999	-34.348999	-14.84
260	1	4	0.229846	30.877001	-32.806999	-16.601
261	1	3	-0.46342599	30.761	-30.017	-16.385
262	1	2	0.81885397	29.834	-30.264	-17.450001
263	1	1	-0.53822398	29.073999	-31.268	-17.434999
264	1	6	0.33239901	31.176001	-29.059	-16.330999
265	1	4	0.229846	31.437	-29.455	-13.915
266	1	4	0.227649	32.02	-31.082001	-12.071
267	1	7	0.132809	31.799999	-33.376999	-11.198
268	1	7	0.132809	31.542	-34.721001	-12.335
269	1	4	0.227649	33.458	-35.618999	-13.599
270	1	4	0.229846	35.956001	-35.993	-13.672
271	1	6	0.33239901	38.206001	-35.089001	-13.247
272	1	8	-0.48307699	43.681999	-30.308001	-8.6479998
273	1	5	0.178011	42.818001	-30.219	-9.7460003
274	1	2	0.223326	41.594002	-31.035999	-9.4790001
275	1	3	-0.63936102	41.528999	-32.266998	-9.9040003
276	1	2	0.223326	40.389	-33.105999	-9.6409998
277	1	5	0.178011	40.352001	-34.495998	-10.205
278	1	8	-0.48307699	39.737999	-34.487999	-11.465
279	1	9	0.102128	39.823002	-35.192001	-9.5139999
280	1	9	0.102128	41.390999	-34.869999	-10.319
281	1	2	-0.33464801	39.349998	-32.617001	-8.9429998
282	1	2	-0.131688	39.409	-31.235001	-8.4300003
283	1	2	-0.33464801	40.48	-30.476	-8.6809998
284	1	4	0.228416	40.528999	-29.462	-8.3039999
285	1	4	0.23973399	38.584	-30.837999	-7.8530002
286	1	4	0.228416	38.473	-33.222	-8.7510004
287	1	9	0.102128	42.528999	-29.158001	-9.9160004
288	1	9	0.102128	43.330002	-30.594	-10.661
289	1	1	-0.53822398	52.769001	-29.364	-17.381001
290	1	2	0.81885397	52.856998	-30.509001	-16.865
291	1	3	-0.46342599	52.494999	-30.739	-15.498
292	1	2	0.243163	51.811001	-29.782	-14.671
293	1	2	-0.35265401	52.035	-29.771	-13.346
294	1	2	-0.127064	51.333	-28.806999	-12.473
295	1	2	-0.23337699	50.456001	-27.933001	-12.995
296	1	2	-0.127064	50.172001	-27.971001	-14.45
297	1	2	-0.35265401	50.807999	-28.844	-15.24
298	1	4	0.229846	50.556	-28.879999	-16.292
299	1	4	0.227649	49.435001	-27.302	-14.875
300	1	5	-0.046723999	49.706001	-26.974001	-12.111
301	1	2	-0.23337699	48.436001	-27.608999	-11.614
302	1	2	-0.127064	47.300999	-27.525999	-12.328
303	1	2	-0.35265401	46.069	-28.187	-11.85
304	1	2	0.243163	46.064999	-28.872999	-10.694
305	1	2	-0.35265401	47.333	-29.000999	-9.9280005
306	1	2	-0.127064	48.449001	-28.402	-10.361
307	1	4	0.227649	49.368	-28.513	-9.8000002
308	1	4	0.229846	47.375999	-29.605	-9.0319996
309	1	3	-0.46342599	44.858002	-29.52	-10.257
310	1	2	0.81885397	44.506001	-29.723	-8.8830004
311	1	1	-0.53822398	45.147999	-29.167	-7.954
312	1	6	0.33239901	44.150002	-29.799	-10.973
313	1	4	0.229846	45.164001	-28.1	-12.439
314	1	4	0.227649	47.273998	-26.978001	-13.262
315	1	7	0.132809	49.477001	-26.042999	-12.674
316	1	7	0.132809	50.338001	-26.67	-11.248
317	1	4	0.227649	51.535999	-28.818001	-11.409
318	1	4	0.229846	52.743	-30.459999	-12.903
319	1	6	0.33239901	52.82	-31.634001	-15.066
320	1	8	-0.48307699	51.501999	-31.910999	-23.562
321	1	5	0.178011	50.860001	-32.198002	-22.351999
322	1	2	0.223326	51.228001	-31.162001	-21.339001
323	1	3	-0.63936102	52.221001	-31.375999	-20.521
324	1	2	0.223326	52.638	-30.395	-19.552999
325	1	5	0.178011	53.751999	-30.725	-18.604
326	1	8	-0.48307699	53.234001	-31.292	-17.431999
327	1	9	0.102128	54.356998	-29.819	-18.368999
328	1	9	0.102128	54.432999	-31.459999	-19.083
329	1	2	-0.33464801	51.990002	-29.221001	-19.474001
330	1	2	-0.131688	50.877998	-28.944	-20.403999
331	1	2	-0.33464801	50.513	-29.865999	-21.299
332	1	4	0.228416	49.699001	-29.666	-21.985001
333	1	4	0.23973399	50.362	-27.993999	-20.358999
334	1	4	0.228416	52.271999	-28.476	-18.740999
335	1	9	0.102128	49.757	-32.201	-22.499001
336	1	9	0.102128	51.167999	-33.206001	-21.990999
337	1	1	-0.53822398	51.833	-44.478001	-24.865
338	1	2	0.81885397	53.021	-44.077	-24.753
339	1	3	-0.46342599	53.419998	-42.787998	-25.235001
340	1	2	0.243163	52.504002	-41.769001	-25.671
341	1	2	-0.35265401	52.881001	-40.902	-26.625999
342	1	2	-0.127064	51.963001	-39.838001	-27.080999
343	1	2	-0.23337699	50.738998	-39.720001	-26.539
344	1	2	-0.127064	50.334999	-40.646	-25.454
345	1	2	-0.35265401	51.166	-41.610001	-25.042
346	1	4	0.229846	50.863998	-42.249001	-24.223
347	1	4	0.227649	49.368	-40.534	-24.979
348	1	5	-0.046723999	49.811001	-38.616001	-26.965
349	1	2	-0.23337699	50.051998	-37.383999	-26.136
350	1	2	-0.127064	49.408001	-37.202999	-24.969999
351	1	2	-0.35265401	49.681999	-36.008999	-24.145
352	1	2	0.243163	50.570999	-35.085999	-24.549999
353	1	2	-0.35265401	51.313999	-35.310001	-25.818001
354	1	2	-0.127064	51.066002	-36.391998	-26.566
355	1	4	0.227649	51.623001	-36.548	-27.481001
356	1	4	0.229846	52.084999	-34.619999	-26.132999
357	1	3	-0.46342599	50.831001	-33.938999	-23.722
358	1	2	0.81885397	51.209999	-32.652	-24.225
359	1	1	-0.53822398	51.150002	-32.388	-25.455
360	1	6	0.33239901	50.665001	-34.015999	-22.693001
361	1	4	0.229846	49.145	-35.881001	-23.212999
362	1	4	0.227649	48.683998	-37.929001	-24.620001
363	1	7	0.132809	48.755001	-38.950001	-26.863001
364	1	7	0.132809	49.959999	-38.380001	-28.042
365	1	4	0.227649	52.292999	-39.154999	-27.854
366	1	4	0.229846	53.860001	-40.981998	-27.083
367	1	6	0.33239901	54.445999	-42.618	-25.34
368	1	8	-0.102078	52.250999	-48.241001	-19.211
369	1	5	0.081173003	52.564999	-46.888	-19.382999
370	1	2	0.26731101	51.993	-46.408001	-20.679001
371	1	3	-0.63407898	52.729	-46.410999	-21.754999
372	1	2	0.226142	52.215	-45.993999	-23.034
373	1	5	0.178011	53.129002	-45.969002	-24.223
374	1	8	-0.48307699	53.731998	-44.709	-24.339001
375	1	9	0.102128	52.577	-46.228001	-25.156
376	1	9	0.102128	53.924	-46.731998	-24.087999
377	1	2	-0.33464801	50.939999	-45.583	-23.135
378	1	2	-0.130244	50.077999	-45.591999	-21.938
379	1	2	-0.32740101	50.576	-45.990002	-20.761999
380	1	4	0.22856	49.945999	-46.000999	-19.882
381	1	4	0.23973399	49.044998	-45.278	-22.014
382	1	4	0.228416	50.535999	-45.244999	-24.082001
383	1	9	0.118653	52.141998	-46.290001	-18.545
384	1	9	0.118653	53.671001	-46.754002	-19.386
385	1	1	-0.57653201	-6.1880002	-1.151	-2.8770001
386	1	2	0.57680398	-6.5110002	-1.184	-1.66
387	1	3	-0.50124103	-7.8660002	-1.416	-1.2539999
388	1	2	0.21908	-8.927	-1.813	-2.141
389	1	2	-0.36436599	-8.7119999	-2.6530001	-3.171
390	1	2	-0.127064	-9.8310003	-3.069	-4.0419998
391	1	2	-0.23337699	-11.076	-2.618	-3.8110001
392	1	2	-0.127064	-11.32	-1.723	-2.655
393	1	2	-0.36436599	-10.306	-1.347	-1.8660001
394	1	4	0.229846	-10.497	-0.69400001	-1.024
395	1	4	0.227649	-12.322	-1.373	-2.4419999
396	1	5	-0.046723999	-12.228	-3.069	-4.6659999
397	1	2	-0.246898	-12.841	-4.3189998	-4.0939999
398	1	2	-0.172911	-12.39	-5.5320001	-4.4559999
399	1	2	-0.240098	-12.971	-6.7529998	-3.859
400	1	2	0.44846401	-13.943	-6.665	-2.9389999
401	1	2	-0.240098	-14.431	-5.3210001	-2.5250001
402	1	2	-0.172911	-13.908	-4.2160001	-3.0710001
403	1	4	0.214444	-14.268	-3.244	-2.7590001
404	1	4	0.221081	-15.21	-5.224	-1.78
405	1	3	-0.29073301	-14.48	-7.8730001	-2.3800001
406	1	10	0.61789399	-15.402	-7.888	-1.503
407	1	1	-0.22579999	-16.299	-7.9039998	-0.64999998
408	1	4	0.221081	-12.599	-7.7210002	-4.171
409	1	4	0.214444	-11.595	-5.632	-5.1849999
410	1	7	0.132809	-12.995	-2.266	-4.7150002
411	1	7	0.132809	-11.892	-3.243	-5.7119999
412	1	4	0.227649	-9.6330004	-3.7479999	-4.862
413	1	4	0.229846	-7.73	-3.066	-3.3610001
414	1	6	0.32868299	-8.1120005	-1.182	-0.26699999
415	1	8	-0.102078	52.646	-48.506001	-18.34
416	1	5	0.081173003	53.959	-48.918999	-18.605
417	1	2	0.26974499	53.955002	-50.275002	-19.246
418	1	2	-0.327402	53.759998	-51.382999	-18.511999
419	1	2	-0.128429	53.734001	-52.699001	-19.179001
420	1	2	-0.32791099	53.887001	-52.777	-20.504
421	1	2	0.21737801	54.073002	-51.534	-21.287001
422	1	3	-0.62945497	54.111	-50.383999	-20.673
423	1	5	0.15139399	54.278	-51.596001	-22.77
424	1	11	-0.66277403	55.606998	-51.931	-23.058001
425	1	12	0.404268	56.146999	-51.113998	-22.895
426	1	9	0.09928	53.610001	-52.370998	-23.202999
427	1	9	0.09928	54.009998	-50.623001	-23.243
428	1	4	0.22856	53.872002	-53.740002	-20.997999
429	1	4	0.23973399	53.592999	-53.598	-18.593
430	1	4	0.22856	53.622002	-51.325001	-17.438999
431	1	9	0.118653	54.470001	-48.183998	-19.268
432	1	9	0.118653	54.526001	-48.953999	-17.65

Bonds

1	1	1	2
2	2	2	3
3	3	2	38
4	4	3	4
5	5	3	31
6	6	4	5
7	6	4	9
8	6	5	6
9	7	5	30
10	6	6	7
11	7	6	29
12	6	7	8
13	8	7	12
14	6	8	9
15	7	8	11
16	7	9	10
17	8	12	13
18	9	12	27
19	9	12	28
20	6	13	14
21	6	13	18
22	6	14	15
23	7	14	26
24	6	15	16
25	7	15	25
26	6	16	17
27	4	16	21
28	6	17	18
29	7	17	20
30	7	18	19
31	2	21	22
32	5	21	24
33	1	22	23
34	10	22	386
35	11	32	33
36	3	32	70
37	8	33	34
38	9	33	47
39	9	33	48
40	12	34	35
41	6	34	43
42	12	35	36
43	8	36	37
44	6	36	41
45	11	37	38
46	9	37	39
47	9	37	40
48	6	41	42
49	7	41	46
50	6	42	43
51	7	42	45
52	7	43	44
53	1	49	50
54	2	50	51
55	3	50	86
56	4	51	52
57	5	51	79
58	6	52	53
59	6	52	57
60	6	53	54
61	7	53	78
62	6	54	55
63	7	54	77
64	6	55	56
65	8	55	60
66	6	56	57
67	7	56	59
68	7	57	58
69	8	60	61
70	9	60	75
71	9	60	76
72	6	61	62
73	6	61	66
74	6	62	63
75	7	62	74
76	6	63	64
77	7	63	73
78	6	64	65
79	4	64	69
80	6	65	66
81	7	65	68
82	7	66	67
83	2	69	70
84	5	69	72
85	1	70	71
86	11	80	81
87	3	80	118
88	8	81	82
89	9	81	95
90	9	81	96
91	12	82	83
92	6	82	91
93	12	83	84
94	8	84	85
95	6	84	89
96	11	85	86
97	9	85	87
98	9	85	88
99	6	89	90
100	7	89	94
101	6	90	91
102	7	90	93
103	7	91	92
104	1	97	98
105	2	98	99
106	3	98	134
107	4	99	100
108	5	99	127
109	6	100	101
110	6	100	105
111	6	101	102
112	7	101	126
113	6	102	103
114	7	102	125
115	6	103	104
116	8	103	108
117	6	104	105
118	7	104	107
119	7	105	106
120	8	108	109
121	9	108	123
122	9	108	124
123	6	109	110
124	6	109	114
125	6	110	111
126	7	110	122
127	6	111	112
128	7	111	121
129	6	112	113
130	4	112	117
131	6	113	114
132	7	113	116
133	7	114	115
134	2	117	118
135	5	117	120
136	1	118	119
137	11	128	129
138	3	128	166
139	8	129	130
140	9	129	143
141	9	129	144
142	12	130	131
143	6	130	139
144	12	131	132
145	8	132	133
146	6	132	137
147	11	133	134
148	9	133	135
149	9	133	136
150	6	137	138
151	7	137	142
152	6	138	139
153	7	138	141
154	7	139	140
155	1	145	146
156	2	146	147
157	3	146	182
158	4	147	148
159	5	147	175
160	6	148	149
161	6	148	153
162	6	149	150
163	7	149	174
164	6	150	151
165	7	150	173
166	6	151	152
167	8	151	156
168	6	152	153
169	7	152	155
170	7	153	154
171	8	156	157
172	9	156	171
173	9	156	172
174	6	157	158
175	6	157	162
176	6	158	159
177	7	158	170
178	6	159	160
179	7	159	169
180	6	160	161
181	4	160	165
182	6	161	162
183	7	161	164
184	7	162	163
185	2	165	166
186	5	165	168
187	1	166	167
188	11	176	177
189	3	176	214
190	8	177	178
191	9	177	191
192	9	177	192
193	12	178	179
194	6	178	187
195	12	179	180
196	8	180	181
197	6	180	185
198	11	181	182
199	9	181	183
200	9	181	184
201	6	185	186
202	7	185	190
203	6	186	187
204	7	186	189
205	7	187	188
206	1	193	194
207	2	194	195
208	3	194	230
209	4	195	196
210	5	195	223
211	6	196	197
212	6	196	201
213	6	197	198
214	7	197	222
215	6	198	199
216	7	198	221
217	6	199	200
218	8	199	204
219	6	200	201
220	7	200	203
221	7	201	202
222	8	204	205
223	9	204	219
224	9	204	220
225	6	205	206
226	6	205	210
227	6	206	207
228	7	206	218
229	6	207	208
230	7	207	217
231	6	208	209
232	4	208	213
233	6	209	210
234	7	209	212
235	7	210	211
236	2	213	214
237	5	213	216
238	1	214	215
239	11	224	225
240	3	224	262
241	8	225	226
242	9	225	239
243	9	225	240
244	12	226	227
245	6	226	235
246	12	227	228
247	8	228	229
248	6	228	233
249	11	229	230
250	9	229	231
251	9	229	232
252	6	233	234
253	7	233	238
254	6	234	235
255	7	234	237
256	7	235	236
257	1	241	242
258	2	242	243
259	3	242	278
260	4	243	244
261	5	243	271
262	6	244	245
263	6	244	249
264	6	245	246
265	7	245	270
266	6	246	247
267	7	246	269
268	6	247	248
269	8	247	252
270	6	248	249
271	7	248	251
272	7	249	250
273	8	252	253
274	9	252	267
275	9	252	268
276	6	253	254
277	6	253	258
278	6	254	255
279	7	254	266
280	6	255	256
281	7	255	265
282	6	256	257
283	4	256	261
284	6	257	258
285	7	257	260
286	7	258	259
287	2	261	262
288	5	261	264
289	1	262	263
290	11	272	273
291	3	272	310
292	8	273	274
293	9	273	287
294	9	273	288
295	12	274	275
296	6	274	283
297	12	275	276
298	8	276	277
299	6	276	281
300	11	277	278
301	9	277	279
302	9	277	280
303	6	281	282
304	7	281	286
305	6	282	283
306	7	282	285
307	7	283	284
308	1	289	290
309	2	290	291
310	3	290	326
311	4	291	292
312	5	291	319
313	6	292	293
314	6	292	297
315	6	293	294
316	7	293	318
317	6	294	295
318	7	294	317
319	6	295	296
320	8	295	300
321	6	296	297
322	7	296	299
323	7	297	298
324	8	300	301
325	9	300	315
326	9	300	316
327	6	301	302
328	6	301	306
329	6	302	303
330	7	302	314
331	6	303	304
332	7	303	313
333	6	304	305
334	4	304	309
335	6	305	306
336	7	305	308
337	7	306	307
338	2	309	310
339	5	309	312
340	1	310	311
341	11	320	321
342	3	320	358
343	8	321	322
344	9	321	335
345	9	321	336
346	12	322	323
347	6	322	331
348	12	323	324
349	8	324	325
350	6	324	329
351	11	325	326
352	9	325	327
353	9	325	328
354	6	329	330
355	7	329	334
356	6	330	331
357	7	330	333
358	7	331	332
359	1	337	338
360	2	338	339
361	3	338	374
362	4	339	340
363	5	339	367
364	6	340	341
365	6	340	345
366	6	341	342
367	7	341	366
368	6	342	343
369	7	342	365
370	6	343	344
371	8	343	348
372	6	344	345
373	7	344	347
374	7	345	346
375	8	348	349
376	9	348	363
377	9	348	364
378	6	349	350
379	6	349	354
380	6	350	351
381	7	350	362
382	6	351	352
383	7	351	361
384	6	352	353
385	4	352	357
386	6	353	354
387	7	353	356
388	7	354	355
389	2	357	358
390	5	357	360
391	1	358	359
392	11	368	369
393	13	368	415
394	8	369	370
395	9	369	383
396	9	369	384
397	12	370	371
398	6	370	379
399	12	371	372
400	8	372	373
401	6	372	377
402	11	373	374
403	9	373	375
404	9	373	376
405	6	377	378
406	7	377	382
407	6	378	379
408	7	378	381
409	7	379	380
410	1	385	386
411	2	386	387
412	4	387	388
413	5	387	414
414	6	388	389
415	6	388	393
416	6	389	390
417	7	389	413
418	6	390	391
419	7	390	412
420	6	391	392
421	8	391	396
422	6	392	393
423	7	392	395
424	7	393	394
425	8	396	397
426	9	396	410
427	9	396	411
428	6	397	398
429	6	397	402
430	6	398	399
431	7	398	409
432	6	399	400
433	7	399	408
434	6	400	401
435	14	400	405
436	6	401	402
437	7	401	404
438	7	402	403
439	15	405	406
440	1	406	407
441	11	415	416
442	8	416	417
443	9	416	431
444	9	416	432
445	6	417	418
446	12	417	422
447	6	418	419
448	7	418	430
449	6	419	420
450	7	419	429
451	6	420	421
452	7	420	428
453	12	421	422
454	8	421	423
455	16	423	424
456	9	423	426
457	9	423	427
458	17	424	425

Angles

1	6	52	53	78
2	7	228	229	231
3	1	56	55	60
4	1	65	64	69
5	1	14	13	18
6	1	195	196	197
7	6	208	209	212
8	7	415	416	432
9	8	410	396	411
10	6	226	235	236
11	1	113	112	117
12	6	393	392	395
13	1	21	22	23
14	6	258	257	260
15	7	295	300	316
16	1	225	226	235
17	1	305	304	309
18	1	224	262	261
19	1	301	302	303
20	7	397	396	410
21	6	400	401	404
22	6	57	56	59
23	1	302	303	304
24	6	419	418	430
25	4	386	387	414
26	6	353	354	355
27	1	147	148	153
28	1	51	50	86
29	6	180	185	190
30	6	276	281	286
31	1	357	358	359
32	7	130	129	143
33	5	242	278	277
34	9	370	371	372
35	1	53	52	57
36	7	228	229	230
37	4	194	195	223
38	6	199	200	203
39	1	13	14	15
40	1	54	55	56
41	1	291	290	326
42	1	281	282	283
43	7	151	156	157
44	1	35	34	43
45	2	176	214	215
46	1	195	196	201
47	6	91	90	93
48	7	32	33	47
49	4	100	99	127
50	7	199	204	219
51	1	5	4	9
52	3	208	213	214
53	1	337	338	339
54	1	199	200	201
55	6	234	235	236
56	6	160	159	169
57	3	338	339	340
58	1	397	402	401
59	1	129	130	131
60	1	228	233	234
61	6	206	207	217
62	8	219	204	220
63	7	424	423	426
64	6	105	104	107
65	7	320	321	322
66	6	391	390	412
67	8	426	423	427
68	1	245	244	249
69	7	372	373	376
70	4	166	165	168
71	1	35	36	41
72	1	62	63	64
73	4	196	195	223
74	1	165	166	167
75	4	304	309	312
76	1	274	283	282
77	1	52	57	56
78	1	83	84	89
79	1	102	103	108
80	3	98	99	100
81	1	63	64	65
82	8	47	33	48
83	1	397	398	399
84	1	99	100	105
85	2	80	118	119
86	1	160	161	162
87	1	196	197	198
88	8	239	225	240
89	7	86	85	88
90	1	309	310	311
91	1	388	393	392
92	6	281	282	285
93	1	348	349	354
94	4	112	117	120
95	7	134	133	136
96	6	89	90	93
97	1	296	295	300
98	6	207	206	218
99	7	80	81	96
100	1	225	226	227
101	1	276	281	282
102	1	157	158	159
103	7	320	321	336
104	6	421	420	428
105	1	51	52	57
106	1	62	61	66
107	1	245	246	247
108	7	368	369	384
109	7	103	108	124