Title

12000 atoms
12375 bonds
24000 angles
52250 dihedrals
2250 impropers

11 atom types
14 bond types
9 angle types
35 dihedral types
3 improper types
-10.38237876 124.3210825 xlo xhi
-11.59698313 125.0518298 ylo yhi
-12.80903808 124.9238064 zlo zhi
0.0 0.0 0.0 xy xz yz

Masses

1	12.01078
2	15.99943
3	14.00672
4	12.01078
5	1.007947
6	1.007947
7	1.007947
8	15.99943
9	12.01078
10	15.99943
11	1.007947


Pair Coeffs

1	0.086879315	3.4806469
2	0.2102061	3.0398122
3	0.16769152	3.206876
4	0.10884061	3.3795318
5	0.016409246	2.5832257
6	0.015779483	2.6445434
7	0.014090815	1.1034277
8	0.16846514	3.0251065
9	0.21	3.3996695
10	0.20947353	2.99716
11	1.2326e-05	0.53453923

Bond Coeffs

1 harmonic	582.698766451	1.225198386222
2 harmonic	492.76746816345	1.381897776683
3 harmonic	279.1350963404	1.454628925034
4 harmonic	352.0565580496	1.450098586273
5 harmonic	505.144496193	1.019481865027
6 harmonic	370.04670688625	1.093899492634
7 harmonic	264.62148576755	1.52190126495
8 harmonic	301.15400723785	1.345741232799
9 harmonic	366.7408841747	1.425895053732
10 harmonic	300.03137914615	1.451203938761
11 harmonic	366.34047229585	1.464762957261
12 harmonic	602.81384337	1.196112346392
13 harmonic	329.96998057905	1.427343958716
14 harmonic	543.5267831885	0.9716763312559


Angle Coeffs

1 harmonic	55.42182150775	117.3465570514
2 harmonic	63.44422595415	115.5071327674
3 harmonic	57.8982893754	126.8062420451
4 harmonic	53.20531626545	116.5475862634
5 harmonic	48.776492647595	115.6030999533
6 harmonic	65.09061609600001	110.3538806181
7 harmonic	201.41175231035	127.4691416191
8 harmonic	55.07882548015	112.8714009681
9 harmonic	33.56981613361	180


Dihedral Coeffs

1 fourier 1	0.182238503271	2	0
2 fourier 1	0.02972342374561	3	0
3 fourier 1	-0.1488678166443	4	180
4 fourier 1	-0.1230328948768	3	180
5 fourier 1	0.2939295466901	2	0
6 fourier 1	-0.3024127022865	1	0
7 fourier 1	1.809047390003	2	180
8 fourier 1	-0.04816277792592	1	0
9 fourier 1	3.101948770557	2	180
10 fourier 1	-0.4252153282372	1	0
11 fourier 1	2.348375642009	2	180
12 fourier 1	1.256156174911	1	0
13 fourier 1	0.9974165607242	2	180
14 fourier 1	0.1155372516788	3	0
15 fourier 1	0.1040663847541	3	0
16 fourier 1	0.09223874044423	3	0
17 fourier 1	0.3159935921949	2	180
18 fourier 1	0.3247796806857	1	180
19 fourier 1	0.1911926717192	3	0
20 fourier 1	2.779853741805	2	180
21 fourier 1	0.1918272375143	3	0
22 fourier 1	0.9202179876409	1	180
23 fourier 1	0.0473758381877	3	0
24 fourier 1	0.4860993122944	2	180
25 fourier 1	0.8916986138746	1	0
26 fourier 1	1.163809172478	2	180
27 fourier 1	0.1679186987369	1	180
28 fourier 1	0.1115525666802	3	0
29 fourier 1	0.3432490222662	1	0
30 fourier 1	0.457973137376	1	0
31 fourier 1	-1.382973039546	1	0
32 fourier 1	0	1	0
33 fourier 1	0.3445382149273	3	0
34 fourier 1	0.1364556373303	1	0
35 fourier 1	0.3026390167484	3	0


Improper Coeffs

1 0.3333333333333333	-1	2
2 0.3666666666666667	-1	2
3 3.5	-1	2


Atoms

1	6	1	0.55714709	-5.1241325	-0.42209924	-1.5601387
2	6	2	-0.67751449	-5.0132761	0.30111396	-2.5855925
3	6	3	-0.56047148	-4.7143869	0.052874787	-0.27282627
4	6	4	0.091163106	-4.0597959	1.3503479	-0.077625648
5	6	5	0.04828576	-4.347962	2.0385289	-0.90346041
6	6	4	-0.17707144	-2.5206351	1.1796977	-0.1266309
7	6	6	0.10076737	-2.0675208	2.065556	-0.62498878
8	6	6	0.10076737	-2.247067	0.28998455	-0.73485288
9	6	4	-0.17552224	-1.9168439	1.0471294	1.2755755
10	6	6	0.10076739	-2.3664357	0.15859911	1.7713931
11	6	6	0.10076739	-0.82515887	0.84981647	1.1978557
12	6	4	0.0919988	-2.1848151	2.3072271	2.1373286
13	6	3	-0.50929254	-1.0889358	3.2733161	1.9947152
14	6	1	0.80541241	-0.87982427	4.3402301	2.9271936
15	6	2	-0.60510361	-1.6300365	4.4812447	3.9289139
16	6	7	0.31599387	-0.42380466	3.1953032	1.1929599
17	6	5	0.051502905	-2.219781	1.9689498	3.1977247
18	6	4	-0.17552227	-3.5321145	2.9919568	1.7919643
19	6	6	0.10076739	-3.3748602	3.7882608	1.0307054
20	6	6	0.10076739	-3.9462082	3.4780368	2.7023266
21	6	4	-0.17707144	-4.5536557	1.9918745	1.2427985
22	6	6	0.10076739	-4.7325656	1.2124759	2.0164768
23	6	6	0.10076739	-5.521167	2.5100628	1.0634641
24	6	7	0.31294939	-4.7391286	-0.62728718	0.52009399
25	7	8	-0.48621273	-0.098496538	5.0053842	2.7775442
26	7	4	0.09498845	1.0778316	4.2429039	2.7389063
27	7	4	-0.071742863	1.189893	3.4733118	1.4072028
28	7	6	0.089247398	0.31365558	2.7906928	1.3436314
29	7	4	-0.16313645	2.4620447	2.5820805	1.3829539
30	7	6	0.099377662	2.7614302	2.2835874	2.411627
31	7	6	0.099377662	2.2384552	1.6419562	0.83358878
32	7	4	-0.16269578	3.6396126	3.2797967	0.69152005
33	7	6	0.099992647	4.5425299	2.6350881	0.76674762
34	7	6	0.099992647	3.871135	4.2138085	1.2488668
35	7	4	-0.070929274	3.3216629	3.6346185	-0.78824325
36	7	4	0.019158598	3.8657483	2.5708865	-1.7575065
37	7	8	-0.14048851	5.2657266	2.5441147	-1.7075863
38	7	5	0.10044512	3.4579875	1.5704742	-1.4879246
39	7	5	0.10044512	3.544119	2.8173888	-2.794616
40	7	6	0.092339441	3.8425037	4.5921024	-1.020421
41	7	4	-0.16269575	1.8075109	3.8560431	-1.03392
42	7	6	0.099992655	1.6685109	4.5433293	-1.8964383
43	7	6	0.099992655	1.3053159	2.8961348	-1.2874516
44	7	4	-0.16313645	1.1231825	4.4473842	0.20233697
45	7	6	0.099377662	1.6185824	5.4133591	0.44872552
46	7	6	0.099377662	0.060482869	4.669178	-0.036959838
47	7	5	0.10020363	1.9472042	4.9230616	2.855777
48	7	5	0.10020363	1.0910901	3.5314135	3.5966071
49	4	1	0.5571472	-5.5336233	-1.4186181	-1.6564582
50	4	2	-0.67751455	-6.4757465	-1.624559	-2.466701
51	4	3	-0.56047148	-4.9932799	-2.4862152	-0.86917339
52	4	4	0.091540843	-5.5082059	-3.8571261	-0.94069463
53	4	5	0.04828576	-5.6635565	-4.1281155	-2.0099097
54	4	4	-0.17578834	-4.4848359	-4.8418597	-0.34275861
55	4	6	0.09902548	-4.2476696	-4.5545105	0.70577922
56	4	6	0.09902548	-3.5436672	-4.7990901	-0.9317114
57	4	4	-0.1374276	-5.0237162	-6.2780172	-0.36626854
58	4	6	0.096635125	-5.1538486	-6.6078971	-1.420452
59	4	6	0.096635125	-4.2803748	-6.9514491	0.11468369
60	4	4	0.21116258	-6.3607827	-6.3769643	0.38471194
61	4	3	-0.63556659	-6.8778247	-7.7392398	0.27479861
62	4	9	0.6075061	-7.0815799	-8.4682384	1.2971947
63	4	2	-0.4732236	-7.2801937	-9.1771889	2.2922479
64	4	5	0.041642088	-6.1898561	-6.1109569	1.4551778
65	4	4	-0.13742758	-7.3848374	-5.3953926	-0.20769835
66	4	6	0.096635095	-8.3232092	-5.4391272	0.38575403
67	4	6	0.096635095	-7.6272396	-5.6857202	-1.2540649
68	4	4	-0.17578834	-6.84816	-3.9582207	-0.18949105
69	4	6	0.099025495	-6.7157113	-3.6254645	0.86409171
70	4	6	0.099025495	-7.5985325	-3.2915169	-0.66484896
71	4	7	0.31294939	-4.1788832	-2.2650301	-0.25207195
72	5	8	-0.14048849	5.5503639	1.8314072	-2.3378415
73	5	4	0.019158579	6.9406909	1.9518915	-2.4790274
74	5	4	-0.070929267	7.6671852	1.4344191	-1.2214196
75	5	6	0.092339456	7.3341727	2.0620392	-0.36443558
76	5	4	-0.16190994	9.2032129	1.6183398	-1.3493344
77	5	6	0.099992655	9.4514953	2.4691616	-2.0212474
78	5	6	0.099992655	9.626274	1.8702961	-0.35104063
79	5	4	-0.15485308	9.8953772	0.3481227	-1.8606494
80	5	6	0.099992647	10.977809	0.55352024	-2.0051497
81	5	6	0.099992647	9.4822167	0.10285213	-2.8636632
82	5	4	-0.1123414	9.6732462	-0.8612781	-0.90875208
83	5	4	0.081243775	10.857881	-1.0517331	0.053991151
84	5	10	-0.67032766	12.012684	-1.3930435	-0.66456474
85	5	11	0.3830227	12.737664	-1.4841817	0.0066924966
86	5	5	0.089472294	11.032438	-0.11470777	0.62916862
87	5	5	0.089472294	10.623604	-1.8705144	0.77185235
88	5	6	0.095906265	9.6095404	-1.7754355	-1.5412612
89	5	4	-0.15485308	8.3492321	-0.75401104	-0.11054495
90	5	6	0.099992655	7.9929641	-1.7732101	0.15611476
91	5	6	0.099992655	8.506456	-0.19618032	0.83945376
92	5	4	-0.16190992	7.2666489	-0.033912637	-0.92045035
93	5	6	0.099992655	7.1018273	-0.59915439	-1.8653157
94	5	6	0.099992655	6.3119898	-0.048586155	-0.35220061
95	5	5	0.10044512	7.2603945	1.3664295	-3.3669237
96	5	5	0.10044512	7.2080419	3.0178435	-2.6666116
97	6	1	0.55714709	-0.84075601	-3.5048789	29.632391
98	6	2	-0.67751449	-0.39242311	-2.7721611	30.553805
99	6	3	-0.56047148	-0.058708507	-3.7884037	28.466766
100	6	4	0.091163106	1.2526094	-3.1788945	28.223923
101	6	5	0.04828576	1.7127309	-2.8907463	29.195466
102	6	4	-0.17707144	1.0890304	-1.8880476	27.382796
103	6	6	0.10076737	1.8283034	-1.129652	27.724453
104	6	6	0.10076737	0.079109699	-1.4489627	27.536509
105	6	4	-0.17552224	1.3125487	-2.1486479	25.889327
106	6	6	0.10076739	0.57009065	-2.9030864	25.547227
107	6	6	0.10076739	1.1120031	-1.2199466	25.311362
108	6	4	0.0919988	2.7440551	-2.6708226	25.605785
109	6	3	-0.50929254	3.6547783	-1.5546862	25.323933
110	6	1	0.80541241	4.9208819	-1.7405988	24.68053
111	6	2	-0.60510361	5.2983034	-2.8841872	24.311876
112	6	7	0.31599387	3.3870512	-0.58084592	25.590868
113	6	5	0.051502905	2.6780221	-3.309352	24.695833
114	6	4	-0.17552227	3.3100178	-3.524861	26.769251
115	6	6	0.10076739	3.8948796	-2.8849694	27.466975
116	6	6	0.10076739	4.0022415	-4.29445	26.362968
117	6	4	-0.17707144	2.19607	-4.2140456	27.562623
118	6	6	0.10076739	1.6304624	-4.8764976	26.870312
119	6	6	0.10076739	2.6451196	-4.8605922	28.348173
120	6	7	0.31294939	-0.52201608	-4.3195192	27.695263
121	7	8	-0.48621273	5.5354412	-0.92226176	24.513379
122	7	4	0.09498845	4.7977034	-0.016190466	23.737882
123	7	4	-0.071742863	3.7239241	0.68939779	24.590764
124	7	6	0.089247398	3.0388938	-0.09672875	24.97876
125	7	4	-0.16313645	2.8658543	1.6513673	23.723826
126	7	6	0.099377662	2.8335456	1.3143591	22.664449
127	7	6	0.099377662	1.8171496	1.6369964	24.092119
128	7	4	-0.16269578	3.3816481	3.094231	23.78429
129	7	6	0.099992647	2.7836976	3.7261046	23.091644
130	7	6	0.099992647	4.4264742	3.1101892	23.403896
131	7	4	-0.070929274	3.3568918	3.6636785	25.230598
132	7	4	0.019158598	2.0915737	4.499232	25.491072
133	7	8	-0.14048851	2.0905962	5.6394066	24.676732
134	7	5	0.10044512	1.1851768	3.8861355	25.28534
135	7	5	0.10044512	2.0712208	4.8154768	26.558489
136	7	6	0.092339441	4.231957	4.3458292	25.334945
137	7	4	-0.16269575	3.4970698	2.5575124	26.307069
138	7	6	0.099992655	3.948604	2.989811	27.226229
139	7	6	0.099992655	2.4997915	2.1498401	26.584812
140	7	4	-0.16313645	4.3693857	1.4016238	25.807762
141	7	6	0.099377662	5.3707157	1.8082064	25.540807
142	7	6	0.099377662	4.5155697	0.66947205	26.631394
143	7	5	0.10020363	5.4934587	0.73543819	23.310026
144	7	5	0.10020363	4.3203922	-0.55413254	22.886509
145	4	1	0.5571472	-1.8338203	-3.9236551	29.724368
146	4	2	-0.67751455	-2.242095	-4.3052161	30.853183
147	4	3	-0.56047148	-2.6688259	-4.0291241	28.565406
148	4	4	0.091540843	-4.0194767	-4.5973134	28.616047
149	4	5	0.04828576	-4.5476829	-4.1913509	29.508786
150	4	4	-0.17578834	-4.8166294	-4.187336	27.36266
151	4	6	0.09902548	-4.2769435	-4.5117742	26.445202
152	4	6	0.09902548	-4.9122463	-3.0808184	27.331526
153	4	4	-0.1374276	-6.2188512	-4.8095435	27.373824
154	4	6	0.096635125	-6.8001767	-4.39808	28.228117
155	4	6	0.096635125	-6.7458065	-4.5312653	26.434536
156	4	4	0.21116258	-6.141196	-6.3406714	27.479304
157	4	3	-0.63556659	-7.4929863	-6.8890329	27.563983
158	4	9	0.6075061	-7.9485184	-7.6985161	26.694802
159	4	2	-0.4732236	-8.3913359	-8.486537	25.849151
160	4	5	0.041642088	-5.6173675	-6.7349206	26.575953
161	4	4	-0.13742758	-5.3457475	-6.7545758	28.72793
162	4	6	0.096635095	-5.2499285	-7.8612805	28.753685
163	4	6	0.096635095	-5.88783	-6.4360551	29.645875
164	4	4	-0.17578834	-3.9438731	-6.1312497	28.722478
165	4	6	0.099025495	-3.3598882	-6.5400872	27.868008
166	4	6	0.099025495	-3.4221179	-6.4192542	29.659677
167	4	7	0.31294939	-2.294663	-3.6493025	27.666119
168	5	8	-0.14048849	1.2468384	6.1222175	24.879607
169	5	4	0.019158579	1.3412287	7.3752073	24.256257
170	5	4	-0.070929267	1.1571701	7.2449474	22.731034
171	5	6	0.092339456	1.9740778	6.5897842	22.353345
172	5	4	-0.16190994	1.3176203	8.6207878	22.030399
173	5	6	0.099992655	1.9782075	9.2960863	22.61743
174	5	6	0.099992655	1.8122724	8.4740115	21.044078
175	5	4	-0.15485308	-0.033262657	9.3092349	21.795576
176	5	6	0.099992647	0.1398077	10.317518	21.361829
177	5	6	0.099992647	-0.52251387	9.4676641	22.781695
178	5	4	-0.1123414	-0.97186405	8.4603641	20.891947
179	5	4	0.081243775	-0.90779943	8.9123897	19.422908
180	5	10	-0.67032766	-1.405669	10.217361	19.298163
181	5	11	0.3830227	-1.321552	10.453458	18.338126
182	5	5	0.089472294	0.14383933	8.8716019	19.059991
183	5	5	0.089472294	-1.5258599	8.2283898	18.797801
184	5	6	0.095906265	-2.0145136	8.6273439	21.245231
185	5	4	-0.15485308	-0.68261072	6.9414072	20.995659
186	5	6	0.099992655	-1.6074687	6.3705025	20.760061
187	5	6	0.099992655	0.094083094	6.6374415	20.258948
188	5	4	-0.16190992	-0.19479135	6.5610922	22.39704
189	5	6	0.099992655	-0.97746597	6.8550164	23.132202
190	5	6	0.099992655	-0.077188893	5.4579518	22.45826
191	5	5	0.10044512	0.55741034	8.0411522	24.675163
192	5	5	0.10044512	2.3301273	7.8355861	24.48658
193	6	1	0.55714709	0.64528065	-0.51093626	45.985802
194	6	2	-0.67751449	1.8052151	-0.99962523	46.036962
195	6	3	-0.56047148	0.33391466	0.7239652	46.640581
196	6	4	0.091163106	1.297972	1.4411705	47.480961
197	6	5	0.04828576	2.3322499	1.1771379	47.166014
198	6	4	-0.17707144	1.1350076	1.0097751	48.960109
199	6	6	0.10076737	2.1354775	0.97583046	49.446243
200	6	6	0.10076737	0.70940589	-0.015623348	49.021625
201	6	4	-0.17552224	0.24534285	1.9816007	49.742652
202	6	6	0.10076739	-0.75609945	2.0113476	49.259245
203	6	6	0.10076739	0.088996376	1.5998951	50.775418
204	6	4	0.0919988	0.84435314	3.4107812	49.772698
205	6	3	-0.50929254	1.7000237	3.5876737	50.95217
206	6	1	0.80541241	2.0841356	4.8802672	51.435087
207	6	2	-0.60510361	1.6820029	5.929764	50.866763
208	6	7	0.31599387	2.0492062	2.7533999	51.475004
209	6	5	0.051502905	-0.013556642	4.1163861	49.851479
210	6	4	-0.17552227	1.6470579	3.7493983	48.490375
211	6	6	0.10076739	2.7237431	3.5086659	48.635774
212	6	6	0.10076739	1.5741262	4.83946	48.283123
213	6	4	-0.17707144	1.1356567	2.9678999	47.276694
214	6	6	0.10076739	0.067084984	3.2320471	47.114122
215	6	6	0.10076739	1.6970889	3.2818175	46.369496
216	6	7	0.31294939	-0.66638624	1.0261801	46.64497
217	7	8	-0.48621273	2.7003599	4.9542541	52.265805
218	7	4	0.09498845	2.0456864	4.2904909	53.313392
219	7	4	-0.071742863	2.1180421	2.7615933	53.124975
220	7	6	0.089247398	1.6056	2.5206084	52.167305
221	7	4	-0.16313645	1.3445714	2.0231464	54.25178
222	7	6	0.099377662	0.52722637	2.6581073	54.658806
223	7	6	0.099377662	0.85966065	1.1170652	53.828098
224	7	4	-0.16269578	2.2699665	1.5887207	55.394791
225	7	6	0.099992647	1.6606712	1.1346538	56.206672
226	7	6	0.099992647	2.7451788	2.4966311	55.826633
227	7	4	-0.070929274	3.3797294	0.61398518	54.910016
228	7	4	0.019158598	2.9956095	-0.85461961	55.160371
229	7	8	-0.14048851	2.9040142	-1.1011617	56.536589
230	7	5	0.10044512	2.021612	-1.0791265	54.669766
231	7	5	0.10044512	3.7745375	-1.5196073	54.723487
232	7	6	0.092339441	4.2940028	0.82469669	55.511399
233	7	4	-0.16269575	3.744342	0.82352196	53.418307
234	7	6	0.099992655	4.7932761	0.49951275	53.244019
235	7	6	0.099992655	3.0907997	0.20616609	52.762826
236	7	4	-0.16313645	3.5912357	2.2914316	53.008282
237	7	6	0.099377662	4.2539491	2.9074052	53.656837
238	7	6	0.099377662	3.9391398	2.4181723	51.9601
239	7	5	0.10020363	2.5273716	4.5756039	54.271917
240	7	5	0.10020363	0.98281553	4.6223454	53.360541
241	4	1	0.5571472	-0.12702201	-1.0356835	45.439726
242	4	2	-0.67751455	0.16761046	-1.6301445	44.369068
243	4	3	-0.56047148	-1.4665872	-1.0527851	45.946505
244	4	4	0.091540843	-2.5635612	-1.7337049	45.25177
245	4	5	0.04828576	-2.2067825	-2.7304651	44.905406
246	4	4	-0.17578834	-3.7453949	-1.9581866	46.214782
247	4	6	0.09902548	-4.0796828	-0.98590335	46.640417
248	4	6	0.09902548	-3.4184476	-2.6067759	47.055573
249	4	4	-0.1374276	-4.9224693	-2.6290973	45.495151
250	4	6	0.096635125	-4.6240504	-3.64939	45.168032
251	4	6	0.096635125	-5.7710553	-2.7315334	46.207043
252	4	4	0.21116258	-5.3725435	-1.798697	44.282972
253	4	3	-0.63556659	-6.4413882	-2.5064058	43.581597
254	4	9	0.6075061	-7.6017329	-2.0051311	43.438164
255	4	2	-0.4732236	-8.7305726	-1.5169116	43.298338
256	4	5	0.041642088	-5.7346518	-0.8065731	44.644138
257	4	4	-0.13742758	-4.1963402	-1.5711774	43.319696
258	4	6	0.096635095	-4.5266214	-0.91992203	42.482187
259	4	6	0.096635095	-3.8655733	-2.5422107	42.88886
260	4	4	-0.17578834	-3.015473	-0.90368712	44.036513
261	4	6	0.099025495	-3.3112204	0.11717156	44.36619
262	4	6	0.099025495	-2.1753587	-0.79879496	43.317678
263	4	7	0.31294939	-1.6398705	-0.58506139	46.865301
264	5	8	-0.14048849	2.638665	-2.0536691	56.628846
265	5	4	0.019158579	2.7746253	-2.3787834	57.986519
266	5	4	-0.070929267	1.636448	-1.7533805	58.817526
267	5	6	0.092339456	1.7088775	-0.64873095	58.700353
268	5	4	-0.16190994	1.8141075	-2.0625758	60.328289
269	5	6	0.099992655	2.8854008	-2.2184798	60.583305
270	5	6	0.099992655	1.4717549	-1.1868458	60.924061
271	5	4	-0.15485308	1.0038686	-3.290186	60.76472
272	5	6	0.099992647	1.2221792	-3.5130945	61.831199
273	5	6	0.099992647	1.3540971	-4.1682324	60.178827
274	5	4	-0.1123414	-0.52111855	-3.0967894	60.529958
275	5	4	0.081243775	-1.2385846	-2.6325067	61.809095
276	5	10	-0.67032766	-1.1703189	-3.6324605	62.789818
277	5	11	0.3830227	-1.6325491	-3.2670513	63.588134
278	5	5	0.089472294	-0.76879757	-1.697123	62.188138
279	5	5	0.089472294	-2.3083036	-2.4244535	61.578817
280	5	6	0.095906265	-0.94394957	-4.0892136	60.254063
281	5	4	-0.15485308	-0.82402141	-2.1212099	59.364562
282	5	6	0.099992655	-1.8137573	-2.3681018	58.921541
283	5	6	0.099992655	-0.87534971	-1.0722577	59.732607
284	5	4	-0.16190992	0.25228385	-2.1999245	58.277435
285	5	6	0.099992655	0.29483395	-3.2470509	57.901735
286	5	6	0.099992655	-0.039440565	-1.5510146	57.424024
287	5	5	0.10044512	2.7547566	-3.4841812	58.091576
288	5	5	0.10044512	3.7634217	-2.0244668	58.360229
289	6	1	0.55714709	-0.41140665	4.6705509	79.567102
290	6	2	-0.67751449	0.44448439	5.2879561	78.879247
291	6	3	-0.56047148	-0.094797937	3.4231373	80.195101
292	6	4	0.091163106	1.1900412	2.742783	80.004482
293	6	5	0.04828576	1.9694048	3.4911457	79.737683
294	6	4	-0.17707144	1.0872701	1.736029	78.831272
295	6	6	0.10076737	2.0480438	1.7253864	78.269828
296	6	6	0.10076737	0.29684727	2.0518089	78.115815
297	6	4	-0.17552224	0.7944919	0.31472913	79.323723
298	6	6	0.10076739	-0.16845659	0.32498784	79.88057
299	6	6	0.10076739	0.65171391	-0.36285805	78.453528
300	6	4	0.0919988	1.9185633	-0.21458351	80.250311
301	6	3	-0.50929254	2.9368607	-0.92907224	79.471084
302	6	1	0.80541241	3.8787898	-1.8229753	80.075448
303	6	2	-0.60510361	3.8572112	-2.0455045	81.314868
304	6	7	0.31599387	2.9911656	-0.79769249	78.436151
305	6	5	0.051502905	1.4422928	-0.93614209	80.952175
306	6	4	-0.17552227	2.5899961	0.91095749	81.07837
307	6	6	0.10076739	3.4852438	1.2998733	80.543936
308	6	6	0.10076739	2.9353125	0.50042364	82.052396
309	6	4	-0.17707144	1.6321495	2.0786359	81.332045
310	6	6	0.10076739	0.75116741	1.6943664	81.892631
311	6	6	0.10076739	2.1314806	2.8352451	81.976226
312	6	7	0.31294939	-0.87403407	2.9124027	80.668278
313	7	8	-0.48621273	4.5877177	-2.2959436	79.484669
314	7	4	0.09498845	3.8832734	-3.0204544	78.512322
315	7	4	-0.071742863	3.3009707	-2.0777009	77.439753
316	7	6	0.089247398	2.5991766	-1.3838649	77.953444
317	7	4	-0.16313645	2.4708231	-2.869304	76.392151
318	7	6	0.099377662	2.0511321	-3.7996293	76.834024
319	7	6	0.099377662	1.6033914	-2.2521881	76.072216
320	7	4	-0.16269578	3.2988493	-3.2229855	75.150846
321	7	6	0.099992647	2.6854197	-3.8510274	74.468325
322	7	6	0.099992647	4.159482	-3.8508975	75.469678
323	7	4	-0.070929274	3.8331036	-1.9567038	74.424352
324	7	4	0.019158598	2.9284387	-1.5522179	73.247493
325	7	8	-0.14048851	2.949726	-2.5454219	72.259444
326	7	5	0.10044512	1.8861322	-1.3987262	73.607778
327	7	5	0.10044512	3.2968811	-0.59691468	72.809942
328	7	6	0.092339441	4.8323494	-2.2117817	74.001978
329	7	4	-0.16269575	4.0260018	-0.75689015	75.386267
330	7	6	0.099992655	4.8151119	-0.084025036	74.986044
331	7	6	0.099992655	3.0891352	-0.16213756	75.466593
332	7	4	-0.16313645	4.4221016	-1.2260396	76.789593
333	7	6	0.099377662	5.3656553	-1.8113803	76.710104
334	7	6	0.099377662	4.6320628	-0.34008471	77.427391
335	7	5	0.10020363	4.5753338	-3.7480741	78.039348
336	7	5	0.10020363	3.0659393	-3.6020162	78.99791
337	4	1	0.5571472	-1.4016681	5.090338	79.681867
338	4	2	-0.67751455	-1.5353979	6.3376209	79.795457
339	4	3	-0.56047148	-2.5419637	4.2236625	79.694174
340	4	4	0.091540843	-3.9104285	4.7237749	79.858042
341	4	5	0.04828576	-4.0438697	5.624549	79.216489
342	4	4	-0.17578834	-4.9249105	3.6578234	79.400781
343	4	6	0.09902548	-4.7693595	2.7148691	79.970772
344	4	6	0.09902548	-4.7683109	3.4373803	78.32311
345	4	4	-0.1374276	-6.3652647	4.1440686	79.606787
346	4	6	0.096635125	-6.5580398	5.0207732	78.950064
347	4	6	0.096635125	-7.0668521	3.3330595	79.311116
348	4	4	0.21116258	-6.6142573	4.5220674	81.075333
349	4	3	-0.63556659	-7.9691877	5.0508722	81.215822
350	4	9	0.6075061	-8.834015	4.4997157	81.968517
351	4	2	-0.4732236	-9.6751788	3.9634717	82.701371
352	4	5	0.041642088	-6.4853108	3.6100651	81.705807
353	4	4	-0.13742758	-5.6036625	5.5847005	81.536451
354	4	6	0.096635095	-5.7617028	5.8000318	82.615013
355	4	6	0.096635095	-5.7626535	6.5298738	80.971384
356	4	4	-0.17578834	-4.1616899	5.1037394	81.328585
357	4	6	0.099025495	-3.9658966	4.2256834	81.983558
358	4	6	0.099025495	-3.4677776	5.9159757	81.632355
359	4	7	0.31294939	-2.3726247	3.2028807	79.544816
360	5	8	-0.14048849	2.3379638	-2.2335814	71.542022
361	5	4	0.019158579	2.5299373	-3.0918337	70.449315
362	5	4	-0.070929267	1.879747	-4.4654699	70.709171
363	5	6	0.092339456	2.375449	-4.9026891	71.604908
364	5	4	-0.16190994	2.1384647	-5.4375618	69.526939
365	5	6	0.099992655	3.0794659	-5.1795936	68.993105
366	5	6	0.099992655	2.2728071	-6.4689297	69.923531
367	5	4	-0.15485308	0.97463326	-5.4522459	68.527306
368	5	6	0.099992647	1.2391892	-6.1031313	67.666443
369	5	6	0.099992647	0.84792019	-4.4247017	68.121113
370	5	4	-0.1123414	-0.35745066	-5.9061985	69.188804
371	5	4	0.081243775	-0.62704313	-7.4025559	68.954835
372	5	10	-0.67032766	-0.82548428	-7.6485487	67.588639
373	5	11	0.3830227	-0.9761187	-8.6255959	67.503921
374	5	5	0.089472294	0.23201003	-8.0045944	69.327519
375	5	5	0.089472294	-1.5418236	-7.7056758	69.513323
376	5	6	0.095906265	-1.1819855	-5.3400963	68.699437
377	5	4	-0.15485308	-0.40790861	-5.5857663	70.704202
378	5	6	0.099992655	-1.4664376	-5.4641139	71.022821
379	5	6	0.099992655	0.02544522	-6.4213522	71.297829
380	5	4	-0.16190992	0.37010575	-4.3070748	71.029958
381	5	6	0.099992655	-0.071560903	-3.4694916	70.444449
382	5	6	0.099992655	0.24354167	-4.0643348	72.106784
383	5	5	0.10044512	2.0795528	-2.6260175	69.54737
384	5	5	0.10044512	3.6208922	-3.2131967	70.254363
385	6	1	0.55714709	0.76838936	4.8261214	104.82391
386	6	2	-0.67751449	2.0047872	4.8877426	104.59066
387	6	3	-0.56047148	0.20085237	3.7055452	105.51157
388	6	4	0.091163106	0.9879522	2.5301086	105.89738
389	6	5	0.04828576	2.0563901	2.8205607	106.01014
390	6	4	-0.17707144	0.91083358	1.4531129	104.78623
391	6	6	0.10076737	1.8933317	0.93688896	104.70481
392	6	6	0.10076737	0.70977704	1.9254885	103.79992
393	6	4	-0.17552224	-0.16755569	0.40525148	105.08183
394	6	6	0.10076739	-1.1501382	0.9211584	105.15816
395	6	6	0.10076739	-0.2461037	-0.30443848	104.22924
396	6	4	0.0919988	0.11769976	-0.35525702	106.40188
397	6	3	-0.50929254	0.91040132	-1.562912	106.14148
398	6	1	0.80541241	1.0116725	-2.6335711	107.08751
399	6	2	-0.60510361	0.40129562	-2.5852745	108.18808
400	6	7	0.31599387	1.4240599	-1.6667244	105.23777
401	6	5	0.051502905	-0.86972043	-0.66458458	106.81348
402	6	4	-0.17552227	0.83864456	0.52496217	107.45488
403	6	6	0.10076739	1.941031	0.39641936	107.37385
404	6	6	0.10076739	0.53954435	0.20281115	108.47628
405	6	4	-0.17707144	0.50972202	2.0098807	107.27565
406	6	6	0.10076739	-0.58955288	2.1416306	107.3865
407	6	6	0.10076739	0.99783654	2.5983921	108.08322
408	6	7	0.31294939	-0.84062175	3.6658298	105.58713
409	7	8	-0.48621273	1.5938732	-3.461828	106.86316
410	7	4	0.09498845	1.0872885	-3.9993531	105.67108
411	7	4	-0.071742863	1.4802559	-3.1243275	104.46354
412	7	6	0.089247398	1.0353213	-2.1173978	104.62456
413	7	4	-0.16313645	0.87276394	-3.6836673	103.14773
414	7	6	0.099377662	-0.062024366	-4.2518973	103.34819
415	7	6	0.099377662	0.59141789	-2.8356505	102.48641
416	7	4	-0.16269578	1.8622523	-4.5798516	102.3932
417	7	6	0.099992647	1.3573247	-5.01396	101.5026
418	7	6	0.099992647	2.1336858	-5.4348535	103.0504
419	7	4	-0.070929274	3.1547437	-3.8149807	101.99179
420	7	4	0.019158598	3.0862677	-3.3045507	100.54203
421	7	8	-0.14048851	3.0406803	-4.385623	99.65189
422	7	5	0.10044512	2.183966	-2.6659191	100.40873
423	7	5	0.10044512	3.9899738	-2.6919839	100.32321
424	7	6	0.092339441	4.0009228	-4.5379262	102.04913
425	7	4	-0.16269575	3.4756827	-2.6442162	102.9553
426	7	6	0.099992655	4.5702482	-2.45048	102.95161
427	7	6	0.099992655	2.9701395	-1.7106253	102.62253
428	7	4	-0.16313645	3.0199813	-2.957435	104.38378
429	7	6	0.099377662	3.5348206	-3.8852763	104.72036
430	7	6	0.099377662	3.3394547	-2.1348669	105.05987
431	7	5	0.10020363	1.4928787	-5.0244847	105.54192
432	7	5	0.10020363	-0.021827698	-4.0838372	105.74014
433	4	1	0.5571472	0.12666216	5.6329194	104.49638
434	4	2	-0.67751455	0.54567484	6.819295	104.55506
435	4	3	-0.56047148	-1.1822832	5.3385716	103.99481
436	4	4	0.091540843	-2.1077823	6.3833778	103.54593
437	4	5	0.04828576	-1.5476234	7.1170085	102.9224
438	4	4	-0.17578834	-3.2215503	5.7696834	102.67564
439	4	6	0.09902548	-3.7550297	4.9756626	103.24413
440	4	6	0.09902548	-2.7704428	5.3023436	101.7742
441	4	4	-0.1374276	-4.2273222	6.8401019	102.23278
442	4	6	0.096635125	-3.7193864	7.5740875	101.56922
443	4	6	0.096635125	-5.0394919	6.3539771	101.64845
444	4	4	0.21116258	-4.8348865	7.5607415	103.44648
445	4	3	-0.63556659	-5.7272193	8.6209611	102.98292
446	4	9	0.6075061	-6.9661372	8.6343697	103.27128
447	4	2	-0.4732236	-8.1715319	8.6474062	103.55243
448	4	5	0.041642088	-5.3993662	6.8168749	104.05795
449	4	4	-0.13742758	-3.7272597	8.173839	104.31849
450	4	6	0.096635095	-4.1822053	8.6374028	105.22002
451	4	6	0.096635095	-3.1974557	8.9722048	103.75293
452	4	4	-0.17578834	-2.7170452	7.1070903	104.76045
453	4	6	0.099025495	-3.2225026	6.3703138	105.42376
454	4	6	0.099025495	-1.9136345	7.5990461	105.34869
455	4	7	0.31294939	-1.4551706	4.331951	103.92252
456	5	8	-0.14048849	2.9808121	-3.9913807	98.742395
457	5	4	0.019158579	3.1743095	-5.043426	97.835081
458	5	4	-0.070929267	1.9254492	-5.9448731	97.765151
459	5	6	0.092339456	1.7648883	-6.3682374	98.782111
460	5	4	-0.16190994	2.1555005	-7.1430151	96.80541
461	5	6	0.099992655	3.2341734	-7.4068945	96.74343
462	5	6	0.099992655	1.6334508	-8.0400212	97.207774
463	5	4	-0.15485308	1.618739	-6.8636709	95.395502
464	5	6	0.099992647	1.8729347	-7.717127	94.73088
465	5	6	0.099992647	2.1489192	-5.9750729	94.987828
466	5	4	-0.1123414	0.088511408	-6.5870838	95.397559
467	5	4	0.081243775	-0.71773463	-7.8503412	95.050204
468	5	10	-0.67032766	-0.44652208	-8.2480557	93.733142
469	5	11	0.3830227	-0.97972791	-9.0704315	93.578616
470	5	5	0.089472294	-0.45707601	-8.6713743	95.755383
471	5	5	0.089472294	-1.8059632	-7.6327893	95.145297
472	5	6	0.095906265	-0.1148443	-5.8346814	94.602356
473	5	4	-0.15485308	-0.40592941	-5.9911793	96.739974
474	5	6	0.099992655	-1.3191866	-5.38209	96.561726
475	5	6	0.099992655	-0.67854433	-6.8006666	97.453279
476	5	4	-0.16190992	0.66906071	-5.1152084	97.390779
477	5	6	0.099992655	0.93275344	-4.2989365	96.68113
478	5	6	0.099992655	0.25239408	-4.6406874	98.304954
479	5	5	0.10044512	3.3864838	-4.6146567	96.832846
480	5	5	0.10044512	4.0644769	-5.6420677	98.13864
481	6	1	0.55714709	-1.1980806	30.88536	-0.01706541
482	6	2	-0.67751449	-1.9558708	30.854012	0.98874443
483	6	3	-0.56047148	-1.4110234	30.010432	-1.1305383
484	6	4	0.091163106	-2.445017	28.970789	-1.1359018
485	6	5	0.04828576	-3.2630251	29.258399	-0.4382058
486	6	4	-0.17707144	-1.8513113	27.630787	-0.63346065
487	6	6	0.10076737	-2.6165323	27.091472	-0.031801418
488	6	6	0.10076737	-0.98363283	27.816679	0.036570083
489	6	4	-0.17552224	-1.4184982	26.728318	-1.7938668
490	6	6	0.10076739	-0.649976	27.265925	-2.3920352
491	6	6	0.10076739	-0.92876314	25.81267	-1.3957479
492	6	4	0.0919988	-2.6135417	26.355905	-2.7078979
493	6	3	-0.50929254	-3.2390538	25.106793	-2.2572628
494	6	1	0.80541241	-4.1079033	24.337	-3.0963507
495	6	2	-0.60510361	-4.3580315	24.700145	-4.2760576
496	6	7	0.31599387	-3.0538096	24.746696	-1.2942925
497	6	5	0.051502905	-2.1982207	26.193193	-3.7282543
498	6	4	-0.17552227	-3.681595	27.477139	-2.7816773
499	6	6	0.10076739	-4.4704831	27.30792	-2.0152801
500	6	6	0.10076739	-4.1746979	27.455874	-3.7781232
501	6	4	-0.17707144	-3.0694222	28.861498	-2.5491064
502	6	6	0.10076739	-2.3015953	29.041963	-3.3339139
503	6	6	0.10076739	-3.8550351	29.639602	-2.6679488
504	6	7	0.31294939	-0.69240254	30.015173	-1.8891664
505	7	8	-0.48621273	-4.5359516	23.466866	-2.7290104
506	7	4	0.09498845	-3.4791808	22.631997	-2.3380536
507	7	4	-0.071742863	-2.8417122	23.131151	-1.0255205
508	7	6	0.089247398	-2.4444526	24.152587	-1.216975
509	7	4	-0.16313645	-1.6335732	22.243302	-0.61885736
510	7	6	0.099377662	-1.1646553	21.772408	-1.5106383
511	7	6	0.099377662	-0.85280602	22.881565	-0.15125626
512	7	4	-0.16269578	-2.032882	21.152914	0.38272214
513	7	6	0.099992647	-1.1548741	20.50061	0.58314513
514	7	6	0.099992647	-2.8048003	20.507012	-0.090108488
515	7	4	-0.070929274	-2.6043736	21.749717	1.6995036
516	7	4	0.019158598	-1.5289512	21.841432	2.7958982
517	7	8	-0.14048851	-1.1023755	20.557857	3.1614362
518	7	5	0.10044512	-0.66367901	22.437399	2.4272589
519	7	5	0.10044512	-1.9553674	22.350518	3.6896574
520	7	6	0.092339441	-3.3930663	21.05295	2.0661587
521	7	4	-0.16269575	-3.2679145	23.133902	1.4855272
522	7	6	0.099992655	-4.0463962	23.295877	2.2622841
523	7	6	0.099992655	-2.5185435	23.949837	1.5884677
524	7	4	-0.16313645	-3.9064643	23.236911	0.097015534
525	7	6	0.099377662	-4.6642373	22.427357	-0.0011606821
526	7	6	0.099377662	-4.4419759	24.2072	0.010116378
527	7	5	0.10020363	-3.8708866	21.602697	-2.1995265
528	7	5	0.10020363	-2.7136538	22.593355	-3.1470778
529	4	1	0.5571472	-0.37235389	31.583788	-0.036648891
530	4	2	-0.67751455	-0.52072383	32.731114	0.46147693
531	4	3	-0.56047148	0.87535395	31.190192	-0.61962357
532	4	4	0.091540843	2.0308971	32.089831	-0.6905526
533	4	5	0.04828576	2.1422505	32.610797	0.28770352