Title

13875 atoms
14750 bonds
25625 angles
41625 dihedrals
16500 impropers

9 atom types
13 bond types
9 angle types
19 dihedral types
3 improper types
-10.71858633 126.8525268 xlo xhi
-10.56227215 127.6878851 ylo yhi
-12.48051159 127.6563099 zlo zhi
0.0 0.0 0.0 xy xz yz

Masses

1	14.00672
2	12.01078
3	1.007947
4	1.007947
5	15.99943
6	12.01078
7	1.007947
8	15.99943
9	1.007947


Pair Coeffs

1	0.16769152	3.206876
2	0.086879315	3.4806469
3	0.015611343	2.5725815
4	0.014090815	1.1034277
5	0.2102061	3.0398122
6	0.10884061	3.3795318
7	0.015779483	2.6445434
8	0.20947353	2.99716
9	1.2326e-05	0.53453923

Bond Coeffs

1 harmonic	390.03554688505	1.390160554689
2 harmonic	505.144496193	1.019481865027
3 harmonic	422.7150220147	1.421786517481
4 harmonic	360.7852444772	1.387193227181
5 harmonic	397.2545789619	1.085358495916
6 harmonic	492.76746816345	1.381897776683
7 harmonic	582.698766451	1.225198386222
8 harmonic	279.1350963404	1.454628925034
9 harmonic	289.73813263395	1.498646816465
10 harmonic	264.62148576755	1.52190126495
11 harmonic	370.04670688625	1.093899492634
12 harmonic	385.7604595587	1.369745182308
13 harmonic	543.5267831885	0.9716763312559


Angle Coeffs

1 harmonic	57.8982893754	126.8062420451
2 harmonic	55.42182150775	117.3465570514
3 harmonic	63.44422595415	115.5071327674
4 harmonic	34.066775159195	129.1835929926
5 harmonic	53.20531626545	116.5475862634
6 harmonic	14.32262199324	138.3184368373
7 harmonic	48.776492647595	115.6030999533
8 harmonic	65.09061609600001	110.3538806181
9 harmonic	201.41175231035	127.4691416191


Dihedral Coeffs

1 fourier 1	3.661930099076	2	180
2 fourier 1	1.193093382682	2	180
3 fourier 1	0.02021088501612	1	0
4 fourier 1	3.101948770557	2	180
5 fourier 1	-0.4252153282372	1	0
6 fourier 1	1.809047390003	2	180
7 fourier 1	-0.04816277792592	1	0
8 fourier 1	0.9974165607242	2	180
9 fourier 1	2.348375642009	2	180
10 fourier 1	1.256156174911	1	0
11 fourier 1	0.02664938770063	3	0
12 fourier 1	0.1155372516788	3	0
13 fourier 1	0.09223874044423	3	0
14 fourier 1	0.3159935921949	2	180
15 fourier 1	0.3247796806857	1	180
16 fourier 1	0.1040663847541	3	0
17 fourier 1	2.687457892086	2	180
18 fourier 1	2.772607909663	2	180
19 fourier 1	0.09692684957115	1	0


Improper Coeffs

1 0.3666666666666667	-1	2
2 0.3333333333333333	-1	2
3 3.5	-1	2


Atoms

1	4	1	-0.42834249	-3.8151621	3.5949521	4.4322705
2	4	2	0.14996418	-3.6237045	3.6571801	5.8478936
3	4	2	-0.45082277	-4.5703679	4.1858432	6.6407129
4	4	3	0.2247114	-5.4909543	4.5712832	6.218417
5	4	2	-0.058299343	-4.3661675	4.2475486	8.101749
6	4	3	0.2280482	-5.1335545	4.6748551	8.7344286
7	4	2	-0.43486509	-3.2362898	3.77667	8.6424778
8	4	3	0.22263357	-3.0924388	3.8245984	9.7155602
9	4	2	0.23941786	-2.1848498	3.1908223	7.778533
10	4	1	-0.54991871	-0.97975584	2.6894898	8.3619944
11	4	4	0.31950733	-0.83407741	2.7329661	9.3953171
12	4	2	-0.49162042	-2.3725217	3.1362051	6.449355
13	4	3	0.22634041	-1.6108056	2.7110609	5.807722
14	4	4	0.37281883	-4.689354	3.9563155	3.9898532
15	5	2	0.76820391	-0.21264444	2.2656623	7.7601503
16	5	5	-0.65826816	0.50752548	1.3521376	8.2438361
17	5	2	-0.37097168	-8.4079917e-05	2.7441037	6.3823847
18	5	2	-0.079588468	-0.77430858	3.7195306	5.8819891
19	5	3	0.22407518	-1.5579681	4.1664587	6.4822465
20	5	2	-0.24979569	-0.56948588	4.2072403	4.5024276
21	5	3	0.21408622	-1.2097199	5.0093356	4.1650249
22	5	2	-0.21054435	0.37871947	3.6645626	3.7069225
23	5	6	0.024671655	0.65574696	4.163788	2.2789373
24	5	6	-0.13167756	-0.49434874	5.0014338	1.6696004
25	5	7	0.087333267	-0.60367865	5.971561	2.1988557
26	5	7	0.087333267	-0.2905037	5.2304912	0.60145344
27	5	7	0.087333267	-1.4563417	4.4478983	1.7270551
28	5	2	-0.12582316	0.91921616	3.0080612	1.3638648
29	5	2	-0.15322234	0.1066791	1.9705642	1.1156283
30	5	3	0.21343651	-0.85461025	1.8870519	1.606805
31	5	2	-0.0012242273	0.54596805	0.93142752	0.15443467
32	5	3	0.21426429	-0.10883725	0.090022669	-0.039796868
33	5	2	-0.34613496	1.7383373	1.0370146	-0.4678289
34	5	2	0.58573478	2.1658383	0.0010676716	-1.4241368
35	5	5	-0.5161764	3.2757382	0.08442575	-2.0134964
36	5	2	0.069844266	2.613889	2.2088863	-0.17902618
37	5	3	0.20803752	3.5686296	2.3193475	-0.6771935
38	5	2	-0.18167481	2.2002535	3.128444	0.70599154
39	5	6	-0.027431561	2.9097167	4.3771937	1.1204541
40	5	6	-0.13127147	3.0196393	5.3439345	-0.073596676
41	5	7	0.091573877	3.6379874	4.8998449	-0.88297858
42	5	7	0.091573877	2.0142652	5.5724196	-0.48623872
43	5	7	0.091573877	3.494817	6.296711	0.24432504
44	5	6	-0.13127147	4.3109731	4.052866	1.6748015
45	5	7	0.091573877	4.9642902	3.632701	0.8805452
46	5	7	0.091573877	4.2420679	3.3104974	2.4997863
47	5	7	0.091573877	4.7911128	4.974402	2.0684821
48	5	6	-0.18136366	1.9922186	4.9750818	2.235637
49	5	7	0.12977078	1.8057488	6.0589254	2.0687803
50	5	7	0.12977078	2.5050158	4.9248753	3.2227821
51	5	2	-0.24979569	1.2494627	2.5999498	4.2839145
52	5	3	0.21408622	2.0476853	2.1707006	3.6921055
53	5	2	-0.079588416	1.0684402	2.1646059	5.5360696
54	5	3	0.22407515	1.7159266	1.3896009	5.9269094
55	1	1	-0.42834246	-3.0785437	3.1840006	3.8172208
56	1	2	0.18698801	-2.8321353	1.7755471	3.822375
57	1	2	-0.45082277	-1.8849899	1.2460903	3.0306224
58	1	3	0.2247114	-1.2963832	1.8783336	2.3782754
59	1	2	-0.0051597036	-1.6366695	-0.20988989	3.0417396
60	1	3	0.2280482	-0.87142955	-0.62977411	2.4014904
61	1	2	-0.48148382	-2.3544239	-1.0084606	3.8414842
62	1	3	0.22849029	-2.1670869	-2.0739608	3.8453601
63	1	2	0.33934903	-3.4018036	-0.43577692	4.7191119
64	1	1	-0.8548404	-4.1648781	-1.2932884	5.5714119
65	1	4	0.36641213	-4.9083033	-0.90939577	6.1975289
66	1	4	0.36641213	-3.9902255	-2.3229056	5.5795902
67	1	2	-0.5260647	-3.626007	0.88917641	4.7074268
68	1	3	0.23698139	-4.3894025	1.3183819	5.3444031
69	1	4	0.37281883	-2.5299406	3.82521	3.2008644
70	2	2	0.59123873	1.5252434	-0.84663297	-1.6313463
71	2	5	-0.52658838	0.86756497	-1.3590694	-0.68618127
72	2	2	-0.33464456	1.4380397	-1.3798384	-3.0029204
73	2	2	0.0040440862	0.65379454	-2.4285443	-3.3022737
74	2	3	0.22187882	0.057375734	-2.9157457	-2.5403693
75	2	2	-0.24320823	0.58736127	-2.9401681	-4.6859235
76	2	3	0.21408622	-0.071299198	-3.775224	-4.8886891
77	2	2	-0.21054435	1.3208213	-2.3824172	-5.6747321
78	2	6	0.024671655	1.208294	-2.9212996	-7.1112714
79	2	6	-0.13167756	2.285012	-2.3551646	-8.0651711
80	2	7	0.087333267	3.3041129	-2.5351874	-7.6592362
81	2	7	0.087333267	2.1430059	-1.2644533	-8.2188819
82	2	7	0.087333267	2.221555	-2.8432639	-9.0623823
83	2	2	-0.12582316	1.3122358	-4.4157531	-7.1282369
84	2	2	-0.17251474	2.318838	-5.1623007	-6.6544092
85	2	3	0.21343651	3.1779066	-4.7028483	-6.1832195
86	2	2	-0.062044373	2.2401308	-6.6361914	-6.7844874
87	2	3	0.23067738	3.0552699	-7.2326198	-6.3937147
88	2	2	-0.22788304	1.1738442	-7.2175785	-7.3802709
89	2	2	0.8352077	1.0821501	-8.6867172	-7.5206331
90	2	5	-0.48083192	2.0005479	-9.4320487	-7.0847987
91	2	8	-0.66459865	-0.026324046	-9.2592881	-8.1386085
92	2	9	0.41776588	-0.10212774	-10.264422	-8.2418672
93	2	2	0.0046376311	0.076682112	-6.3554436	-7.9053088
94	2	3	0.22336358	-0.78053339	-6.7942386	-8.3975897
95	2	2	-0.17584335	0.16520857	-5.0233937	-7.7633231
96	2	6	-0.027431561	-0.81039849	-3.9910697	-8.2316596
97	2	6	-0.13127147	-2.2082968	-4.2507943	-7.6368449
98	2	7	0.091573877	-2.6313027	-5.2039129	-8.0198358
99	2	7	0.091573877	-2.1565141	-4.311285	-6.5278357
100	2	7	0.091573877	-2.9015645	-3.4270927	-7.9126555
101	2	6	-0.13127147	-0.87740664	-3.9875023	-9.7698563
102	2	7	0.091573877	0.13035937	-3.8136322	-10.205433
103	2	7	0.091573877	-1.2606013	-4.9586036	-10.150462
104	2	7	0.091573877	-1.55703	-3.1818982	-10.124352
105	2	6	-0.18136366	-0.21731796	-2.6469945	-7.6974551
106	2	7	0.12977078	-0.18640704	-1.8729559	-8.4976518
107	2	7	0.12977078	-0.88115507	-2.2157761	-6.9155338
108	2	2	-0.24320822	2.1747932	-1.2068132	-5.3321577
109	2	3	0.21408622	2.7669996	-0.70337793	-6.0828944
110	2	2	0.0040440299	2.2299618	-0.74306848	-4.077468
111	2	3	0.22187885	2.8582265	0.11052553	-3.8518673
112	4	1	-0.42834249	-2.7283772	0.2360933	20.033686
113	4	2	0.14996418	-2.3731364	1.1556283	18.997936
114	4	2	-0.45082277	-3.1376472	1.2732716	17.899801
115	4	3	0.2247114	-4.0330901	0.67384541	17.784704
116	4	2	-0.058299343	-2.7648917	2.224372	16.833689
117	4	3	0.2280482	-3.3859188	2.3138745	15.951606
118	4	2	-0.43486509	-1.6630507	2.9736583	16.957198
119	4	3	0.22263357	-1.3949144	3.6700931	16.171337
120	4	2	0.23941786	-0.81187476	2.8532801	18.163909
121	4	1	-0.54991871	0.3641985	3.6563541	18.290151
122	4	4	0.31950733	0.62904237	4.3291853	17.536478
123	4	2	-0.49162042	-1.1526345	1.9868377	19.132454
124	4	3	0.22634041	-0.53786316	1.8894953	20.018587
125	4	4	0.37281883	-3.583994	-0.35775411	19.957573
126	5	2	0.76820391	0.98890491	3.5851752	19.147462
127	5	5	-0.65826816	1.6167976	4.607698	19.531287
128	5	2	-0.37097168	1.1142489	2.3071883	19.870901
129	5	2	-0.079588468	0.44043684	1.226089	19.448434
130	5	3	0.22407518	-0.19732517	1.2786763	18.573979
131	5	2	-0.24979569	0.55933391	-0.060178422	20.165638
132	5	3	0.21408622	0.0099948516	-0.89910514	19.763736
133	5	2	-0.21054435	1.3230061	-0.16929215	21.275287
134	5	6	0.024671655	1.5091578	-1.4944649	22.033163
135	5	6	-0.13167756	0.43355549	-2.5604089	21.712999
136	5	7	0.087333267	0.52735741	-2.9183418	20.665958
137	5	7	0.087333267	0.54831907	-3.4456727	22.374887
138	5	7	0.087333267	-0.58670697	-2.1461808	21.863374
139	5	2	-0.12582316	1.4966049	-1.2564722	23.511568
140	5	2	-0.15322234	0.51819031	-0.68880574	24.231775
141	5	3	0.21343651	-0.38408961	-0.32612946	23.755683
142	5	2	-0.0012242273	0.69039368	-0.56198399	25.698381
143	5	3	0.21426429	-0.098217976	-0.096672349	26.278066
144	5	2	-0.34613496	1.8084096	-1.0221289	26.297057
145	5	2	0.58573478	1.9700394	-0.89472676	27.755862
146	5	5	-0.5161764	3.0074098	-1.3189431	28.330383
147	5	2	0.069844266	2.8729844	-1.6589985	25.469797
148	5	3	0.20803752	3.7719983	-2.0464281	25.931938
149	5	2	-0.18167481	2.6999675	-1.7487136	24.142411
150	5	6	-0.027431561	3.6265857	-2.3623812	23.142769
151	5	6	-0.13127147	3.743126	-3.8780949	23.390677
152	5	7	0.091573877	4.1954904	-4.0798438	24.385329
153	5	7	0.091573877	2.7424151	-4.3584157	23.357125
154	5	7	0.091573877	4.3853103	-4.3473292	22.614745
155	5	6	-0.13127147	5.0181634	-1.7026872	23.208529
156	5	7	0.091573877	5.510093	-1.9106267	24.182681
157	5	7	0.091573877	4.9336538	-0.60053246	23.087814
158	5	7	0.091573877	5.6690974	-2.0974799	22.399103
159	5	6	-0.18136366	2.9368543	-2.0762715	21.769701
160	5	7	0.12977078	2.8938429	-2.9918667	21.139491
161	5	7	0.12977078	3.5436487	-1.3538745	21.178194
162	5	2	-0.24979569	2.0871568	1.0323913	21.718621
163	5	3	0.21408622	2.7427667	0.97301214	22.577865
164	5	2	-0.079588416	1.9851145	2.1946456	21.063687
165	5	3	0.22407515	2.5515149	3.0501027	21.410113
166	1	1	-0.42834246	-2.1332277	0.14550934	20.886543
167	1	2	0.18698801	-2.0969295	1.19206	21.860144
168	1	2	-0.45082277	-1.3319424	1.0757383	22.958117
169	1	3	0.2247114	-0.73350861	0.18845648	23.120456
170	1	2	-0.0051597036	-1.3000667	2.1613161	23.959202
171	1	3	0.2280482	-0.68090636	2.0611611	24.841485
172	1	2	-0.48148382	-2.0333753	3.2664534	23.776423
173	1	3	0.22849029	-2.0050059	4.0581874	24.513141
174	1	2	0.33934903	-2.8809636	3.4059073	22.569216
175	1	1	-0.8548404	-3.6615935	4.5884784	22.379041
176	1	4	0.36641213	-4.2661651	4.7062213	21.534821
177	1	4	0.36641213	-3.6399512	5.3563436	23.086569
178	1	2	-0.5260647	-2.9084059	2.4170185	21.659683
179	1	3	0.23698139	-3.5247521	2.5081669	20.773941
180	1	4	0.37281883	-1.5687832	-0.72528791	21.009525
181	2	2	0.59123873	1.1930241	-0.43311577	28.351728
182	2	5	-0.52658838	0.57693247	0.56223448	27.884633
183	2	2	-0.33464456	0.87612591	-0.9733034	29.686232
184	2	2	0.0040440862	-0.081827174	-0.43110359	30.456155
185	2	3	0.22187882	-0.65445434	0.42355768	30.116698
186	2	2	-0.24320823	-0.37649401	-0.99465182	31.788913
187	2	3	0.21408622	-1.1689163	-0.53991302	32.3699
188	2	2	-0.21054435	0.31585574	-2.0503891	32.271472
189	2	6	0.024671655	-0.034012901	-2.6312433	33.652378
190	2	6	-0.13167756	1.0008439	-3.6582675	34.166234
191	2	7	0.087333267	2.0214024	-3.217654	34.175059
192	2	7	0.087333267	1.0040086	-4.5685499	33.529979
193	2	7	0.087333267	0.75566485	-3.9772158	35.202987
194	2	2	-0.12582316	-0.15281773	-1.5411393	34.673183
195	2	2	-0.17251474	0.77998272	-0.63863079	35.005531
196	2	3	0.21343651	1.7442701	-0.62896212	34.51444
197	2	2	-0.062044373	0.47204944	0.35376231	36.061847
198	2	3	0.23067738	1.2294036	1.0834298	36.320462
199	2	2	-0.22788304	-0.72768482	0.34251584	36.686705
200	2	2	0.8352077	-1.0488334	1.3240255	37.744996
201	2	5	-0.48083192	-0.20678841	2.1970176	38.088172
202	2	8	-0.66459865	-2.2912167	1.289887	38.372502
203	2	9	0.41776588	-2.5245879	1.9560779	39.099434
204	2	2	0.0046376311	-1.7382645	-0.68258536	36.298629
205	2	3	0.22336358	-2.7000554	-0.72166155	36.791713
206	2	2	-0.17584335	-1.4401442	-1.5623592	35.329364
207	2	6	-0.027431561	-2.2999748	-2.6701367	34.809401
208	2	6	-0.13127147	-3.6456599	-2.1220402	34.295491
209	2	7	0.091573877	-4.2438751	-1.6949289	35.128417
210	2	7	0.091573877	-3.4799013	-1.3246062	33.538613
211	2	7	0.091573877	-4.237086	-2.9368535	33.824885
212	2	6	-0.13127147	-2.5369263	-3.7169881	35.913261
213	2	7	0.091573877	-1.5695162	-4.106878	36.297519
214	2	7	0.091573877	-3.0983817	-3.2737447	36.763579
215	2	7	0.091573877	-3.1263732	-4.5713607	35.514322
216	2	6	-0.18136366	-1.4604141	-3.2765419	33.638475
217	2	7	0.12977078	-1.4058405	-4.3864193	33.713307
218	2	7	0.12977078	-1.9624395	-3.0854252	32.664065
219	2	2	-0.24320822	1.3657666	-2.6542799	31.398733
220	2	3	0.21408622	1.9378791	-3.5134428	31.718557
221	2	2	0.0040440299	1.627955	-2.1432791	30.189401
222	2	3	0.22187885	2.3957669	-2.5971651	29.574025
223	4	1	-0.42834249	0.19435155	6.7591824	53.840102
224	4	2	0.14996418	-0.93790107	7.6244046	53.958049
225	4	2	-0.45082277	-0.78061451	8.9582668	53.940973
226	4	3	0.2247114	0.20537512	9.3957884	53.837164
227	4	2	-0.058299343	-1.9539636	9.8461383	54.063725
228	4	3	0.2280482	-1.8195355	10.920135	54.049011
229	4	2	-0.43486509	-3.1798421	9.3252182	54.192575
230	4	3	0.22263357	-4.0371105	9.9821708	54.282019
231	4	2	0.23941786	-3.3662903	7.8555278	54.21235
232	4	1	-0.54991871	-4.6784254	7.3048441	54.350414
233	4	4	0.31950733	-5.5090893	7.9319379	54.4377
234	4	2	-0.49162042	-2.2972081	7.0495507	54.101075
235	4	3	0.22634041	-2.4209773	5.9738479	54.115098
236	4	4	0.37281883	1.1594951	7.1447591	53.738335
237	5	2	0.76820391	-4.834165	6.2532913	54.367382
238	5	5	-0.65826816	-5.9128138	5.7889543	53.911277
239	5	2	-0.37097168	-3.8004318	5.3582922	54.917562
240	5	2	-0.079588468	-2.6572979	5.8683495	55.401673
241	5	3	0.22407518	-2.4830794	6.9378355	55.396827
242	5	2	-0.24979569	-1.6146408	4.9804514	55.956206
243	5	3	0.21408622	-0.72673744	5.4525474	56.350984
244	5	2	-0.21054435	-1.7753534	3.6386017	55.96186
245	5	6	0.024671655	-0.73699896	2.6763408	56.562681
246	5	6	-0.13167756	0.66816412	3.2990441	56.74549
247	5	7	0.087333267	0.65540382	4.0872339	57.52767
248	5	7	0.087333267	1.4008916	2.5279904	57.067274
249	5	7	0.087333267	1.0284672	3.741854	55.791953
250	5	2	-0.12582316	-0.59351648	1.459452	55.701825
251	5	2	-0.15322234	-0.2534339	1.4206739	54.405261
252	5	3	0.21343651	-0.061470618	2.332058	53.853142
253	5	2	-0.0012242273	-0.14479766	0.10432089	53.732888
254	5	3	0.21426429	0.12331496	0.075064475	52.68326
255	5	2	-0.34613496	-0.3727357	-1.0342634	54.419747
256	5	2	0.58573478	-0.25956973	-2.3386556	53.744304
257	5	5	-0.5161764	-0.46907561	-3.4109086	54.370844
258	5	2	0.069844266	-0.73762579	-0.95802889	55.863466
259	5	3	0.20803752	-0.91194162	-1.8600583	56.436055
260	5	2	-0.18167481	-0.84400282	0.24602442	56.445597
261	5	6	-0.027431561	-1.1765134	0.54126376	57.872749
262	5	6	-0.13127147	-0.060001435	0.016841171	58.795143
263	5	7	0.091573877	0.019317635	-1.0893358	58.726223
264	5	7	0.091573877	0.91991565	0.45649892	58.512796
265	5	7	0.091573877	-0.27515503	0.28508654	59.851743
266	5	6	-0.13127147	-2.52894	-0.087828711	58.261585
267	5	7	0.091573877	-2.4741151	-1.1969813	58.230285
268	5	7	0.091573877	-3.328307	0.24251097	57.562767
269	5	7	0.091573877	-2.8125242	0.21727339	59.29175
270	5	6	-0.18136366	-1.2508356	2.1016492	57.923537
271	5	7	0.12977078	-0.67107357	2.5070094	58.781959
272	5	7	0.12977078	-2.2983981	2.4304504	58.109116
273	5	2	-0.24979569	-3.0610787	3.0866227	55.445388
274	5	3	0.21408622	-3.2446137	2.0202142	55.472589
275	5	2	-0.079588416	-4.0080482	3.8921412	54.950843
276	5	3	0.22407515	-4.9308234	3.4618425	54.582121
277	1	1	-0.42834246	0.070733039	5.7226945	53.85371
278	1	2	0.18698801	-0.53008322	5.0493001	52.744636
279	1	2	-0.45082277	-0.68869395	3.7155654	52.761232
280	1	3	0.2247114	-0.36353825	3.1332371	53.613824
281	1	2	-0.0051597036	-1.3101723	3.0274374	51.611489
282	1	3	0.2280482	-1.4353991	1.9523932	51.631792
283	1	2	-0.48148382	-1.718591	3.7302255	50.547646
284	1	3	0.22849029	-2.1736521	3.2201973	49.709081
285	1	2	0.33934903	-1.5488026	5.2017888	50.518076
286	1	1	-0.8548404	-1.9872313	5.9472016	49.379584
287	1	4	0.36641213	-1.8762461	6.985516	49.338808
288	1	4	0.36641213	-2.4263785	5.4613989	48.566056
289	1	2	-0.5260647	-0.98316867	5.8258038	51.565247
290	1	3	0.23698139	-0.85368408	6.9009025	51.554047
291	1	4	0.37281883	0.39645139	5.1934773	54.693857
292	2	2	0.59123873	0.0074932408	-2.3880608	52.696387
293	2	5	-0.52658838	-0.45240988	-1.5184645	51.908503
294	2	2	-0.33464456	0.89468534	-3.4634849	52.217345
295	2	2	0.0040440862	1.2516163	-3.559089	50.925874
296	2	3	0.22187882	0.89713021	-2.843611	50.193747
297	2	2	-0.24320823	2.1420341	-4.6478843	50.476052
298	2	3	0.21408622	2.42074	-4.6781608	49.430264
299	2	2	-0.21054435	2.602751	-5.5783496	51.341365
300	2	6	0.024671655	3.5509544	-6.6840635	50.846381
301	2	6	-0.13167756	3.7822579	-7.8047926	51.885718
302	2	7	0.087333267	2.8144372	-8.239769	52.217194
303	2	7	0.087333267	4.3278285	-7.4160706	52.771546
304	2	7	0.087333267	4.3953285	-8.623804	51.449755
305	2	2	-0.12582316	3.0246493	-7.3142105	49.593225
306	2	2	-0.17251474	1.8341002	-7.9046608	49.422769
307	2	3	0.21343651	1.1185275	-7.957441	50.232884
308	2	2	-0.062044373	1.5070861	-8.4886413	48.10084
309	2	3	0.23067738	0.54039661	-8.9589682	47.969744
310	2	2	-0.22788304	2.3997348	-8.4346819	47.085851
311	2	2	0.8352077	2.0895808	-9.015688	45.76195
312	2	5	-0.48083192	0.98031465	-9.5757503	45.550328
313	2	8	-0.66459865	3.026675	-8.9468836	44.734542
314	2	9	0.41776588	2.8276358	-9.341039	43.822551
315	2	2	0.0046376311	3.7191085	-7.7790374	47.314081
316	2	3	0.22336358	4.4555971	-7.7341395	46.523342
317	2	2	-0.17584335	3.9862967	-7.2456374	48.516765
318	2	6	-0.027431561	5.2452366	-6.565336	48.951623
319	2	6	-0.13127147	5.5678182	-5.3724487	48.030568
320	2	7	0.091573877	5.7991354	-5.718099	47.000486
321	2	7	0.091573877	4.7050791	-4.6729213	47.979729
322	2	7	0.091573877	6.4493991	-4.8169022	48.417038
323	2	6	-0.13127147	6.4133624	-7.5683448	48.954378
324	2	7	0.091573877	6.181504	-8.4378649	49.606855
325	2	7	0.091573877	6.6132511	-7.9442065	47.927972
326	2	7	0.091573877	7.3386017	-7.0816671	49.333364
327	2	6	-0.18136366	4.9254138	-6.0797348	50.402678
328	2	7	0.12977078	5.7395744	-6.3574583	51.110081
329	2	7	0.12977078	4.889475	-4.9682326	50.438753
330	2	2	-0.24320822	2.2126474	-5.450494	52.776684
331	2	3	0.21408622	2.5666606	-6.1497026	53.520689
332	2	2	0.0040440299	1.4082092	-4.4600406	53.181938
333	2	3	0.22187885	1.1369715	-4.3881412	54.228597
334	4	1	-0.42834249	-5.3694976	3.1741539	76.118825
335	4	2	0.14996418	-5.9004371	2.916819	74.816366
336	4	2	-0.45082277	-6.7878118	3.7602063	74.263661
337	4	3	0.2247114	-7.1122988	4.6461258	74.796795
338	4	2	-0.058299343	-7.332621	3.4883634	72.918516
339	4	3	0.2280482	-8.0472856	4.1726024	72.479393
340	4	2	-0.43486509	-6.9442704	2.3998247	72.243975
341	4	3	0.22263357	-7.3476009	2.2059377	71.256945
342	4	2	0.23941786	-5.9657513	1.4622301	72.842774
343	4	1	-0.54991871	-5.5547421	0.30083626	72.117344
344	4	4	0.31950733	-5.9397498	0.10734679	71.165924
345	4	2	-0.49162042	-5.4717584	1.711246	74.067062
346	4	3	0.22634041	-4.7566652	1.0327587	74.515335
347	4	4	0.37281883	-5.6587748	4.01773	76.662172
348	5	2	0.76820391	-4.8541691	-0.3848469	72.528856
349	5	5	-0.65826816	-4.0862876	-1.0123909	71.751893
350	5	2	-0.37097168	-4.7876917	-0.59358155	73.986366
351	5	2	-0.079588468	-5.6139054	0.081017629	74.800961
352	5	3	0.22407518	-6.3374263	0.78046814	74.399137
353	5	2	-0.24979569	-5.5563654	-0.12105451	76.263444
354	5	3	0.21408622	-6.2622244	0.43408661	76.864009
355	5	2	-0.21054435	-4.6548503	-0.96420857	76.813701
356	5	6	0.024671655	-4.5819599	-1.237219	78.32541
357	5	6	-0.13167756	-5.2890745	-0.16886647	79.1939
358	5	7	0.087333267	-6.3888104	-0.19700023	79.04224
359	5	7	0.087333267	-5.1010122	-0.35274601	80.273612
360	5	7	0.087333267	-4.915929	0.84826627	78.946238
361	5	2	-0.12582316	-3.1552334	-1.3238067	78.771988
362	5	2	-0.15322234	-2.2069667	-0.38504109	78.638769
363	5	3	0.21343651	-2.4221911	0.55768685	78.151688
364	5	2	-0.0012242273	-0.85024008	-0.6578297	79.169384
365	5	3	0.21426429	-0.083169381	0.099078305	79.054707
366	5	2	-0.34613496	-0.58056366	-1.8268588	79.786434
367	5	2	0.58573478	0.77001309	-2.0885346	80.313631
368	5	5	-0.5161764	1.0384468	-3.1745224	80.892202
369	5	2	0.069844266	-1.659884	-2.8456765	79.929119
370	5	3	0.20803752	-1.46803	-3.7847815	80.432285
371	5	2	-0.18167481	-2.8756913	-2.5810377	79.427406
372	5	6	-0.027431561	-4.0912495	-3.4494485	79.480074
373	5	6	-0.13127147	-4.5552273	-3.6216019	80.938675
374	5	7	0.091573877	-3.7815743	-4.148501	81.53743
375	5	7	0.091573877	-4.7480675	-2.6335018	81.407425
376	5	7	0.091573877	-5.4915447	-4.2186453	80.977406
377	5	6	-0.13127147	-3.8097285	-4.8250564	78.844105
378	5	7	0.091573877	-3.0592139	-5.3901067	79.437106
379	5	7	0.091573877	-3.4192101	-4.7043413	77.809995
380	5	7	0.091573877	-4.7430419	-5.426561	78.800914
381	5	6	-0.18136366	-5.1524201	-2.6568194	78.650278
382	5	7	0.12977078	-6.1228604	-2.5922667	79.1901
383	5	7	0.12977078	-5.3883673	-3.2015621	77.708194
384	5	2	-0.24979569	-3.7607076	-1.727324	75.895727
385	5	3	0.21408622	-3.0547369	-2.4436618	76.295874
386	5	2	-0.079588416	-3.8191193	-1.5496215	74.570888
387	5	3	0.22407515	-3.156257	-2.1174127	73.92991
388	1	1	-0.42834246	-4.6800485	2.5177695	76.547303
389	1	2	0.18698801	-3.3441137	2.4388047	76.043787
390	1	2	-0.45082277	-2.4563169	1.5949874	76.595213
391	1	3	0.2247114	-2.7402788	0.96428606	77.427876
392	1	2	-0.0051597036	-1.0781363	1.519465	76.069305
393	1	3	0.2280482	-0.36796923	0.83680392	76.518137
394	1	2	-0.48148382	-0.70775192	2.2916175	75.040192
395	1	3	0.22849029	0.3030119	2.2309604	74.6593
396	1	2	0.33934903	-1.6783533	3.2261522	74.42393
397	1	1	-0.8548404	-1.2774013	4.0479745	73.324898
398	1	4	0.36641213	-1.9464799	4.7138266	72.876511
399	1	4	0.36641213	-0.30303126	3.9954975	72.952701
400	1	2	-0.5260647	-2.9317362	3.2931885	74.903974
401	1	3	0.23698139	-3.6491726	3.9730617	74.461496
402	1	4	0.37281883	-4.9899724	1.9241756	77.349552
403	2	2	0.59123873	1.5492606	-1.344434	80.208838
404	2	5	-0.52658838	1.6105807	-0.67172355	79.144803
405	2	2	-0.33464456	2.5147974	-1.136985	81.303293
406	2	2	0.0040440862	3.4949547	-0.22280152	81.213865
407	2	3	0.22187882	3.6048781	0.39393607	80.33005
408	2	2	-0.24320823	4.4473039	-0.037986927	82.327209
409	2	3	0.21408622	5.2109983	0.72236098	82.222767
410	2	2	-0.21054435	4.3687404	-0.78936417	83.447946
411	2	6	0.024671655	5.3591925	-0.55336626	84.601207
412	2	6	-0.13167756	5.3035196	-1.6477733	85.691587
413	2	7	0.087333267	5.4554631	-2.6549103	85.246226
414	2	7	0.087333267	4.3276508	-1.6287009	86.221455
415	2	7	0.087333267	6.0987019	-1.4850745	86.451793
416	2	2	-0.12582316	6.7648785	-0.47992558	84.088239
417	2	2	-0.17251474	7.4171039	-1.4108817	83.379002
418	2	3	0.21343651	6.9327367	-2.3372561	83.09912
419	2	2	-0.062044373	8.8205893	-1.153847	82.979464
420	2	3	0.23067738	9.3387387	-1.9089839	82.401388
421	2	2	-0.22788304	9.435941	-0.0022484042	83.333157
422	2	2	0.8352077	10.837004	0.26754825	82.944945
423	2	5	-0.48083192	11.490413	-0.57442728	82.271847
424	2	8	-0.66459865	11.446693	1.4609072	83.322596
425	2	9	0.41776588	12.406155	1.6587665	83.063781
426	2	2	0.0046376311	8.6831185	1.0071283	84.131357
427	2	3	0.22336358	9.1559559	1.9301283	84.43827
428	2	2	-0.17584335	7.4082957	0.75653616	84.469565
429	2	6	-0.027431561	6.4928417	1.6228814	85.274693
430	2	6	-0.13127147	6.350127	3.0151266	84.629196
431	2	7	0.091573877	7.3161378	3.5632088	84.651104
432	2	7	0.091573877	6.0232689	2.9238178	83.570391
433	2	7	0.091573877	5.5959563	3.6177296	85.179897
434	2	6	-0.13127147	7.0213387	1.7542026	86.714831
435	2	7	0.091573877	7.1390054	0.75237206	87.181779
436	2	7	0.091573877	8.0081776	2.264801	86.72807
437	2	7	0.091573877	6.3133002	2.3487361	87.332702
438	2	6	-0.18136366	5.1322226	0.85364257	85.249308
439	2	7	0.12977078	4.6988602	0.76584526	86.271509
440	2	7	0.12977078	4.3744675	1.4283529	84.671774
441	2	2	-0.24320822	3.2643743	-1.7894921	83.541698
442	2	3	0.21408622	3.1349385	-2.4044343	84.420819
443	2	2	0.0040440299	2.4003325	-1.9520255	82.532063
444	2	3	0.22187885	1.6076156	-2.6853665	82.621762
445	4	1	-0.42834249	-6.2832596	1.8636224	103.27142
446	4	2	0.14996418	-6.7530308	1.8949491	101.92129
447	4	2	-0.45082277	-7.9085348	2.5080802	101.61617
448	4	3	0.2247114	-8.4990914	2.9870326	102.38833
449	4	2	-0.058299343	-8.3882499	2.5363672	100.22003
450	4	3	0.2280482	-9.3203304	3.0324912	99.981611
451	4	2	-0.43486509	-7.6732674	1.9508564	99.25219
452	4	3	0.22263357	-8.0305784	1.9752392	98.229336
453	4	2	0.23941786	-6.3969246	1.2717526	99.57609
454	4	1	-0.54991871	-5.6374892	0.64783523	98.537823
455	4	4	0.31950733	-5.9760469	0.66689868	97.549955
456	4	2	-0.49162042	-5.9626202	1.2467482	100.84718
457	4	3	0.22634041	-5.0317211	0.75269122	101.09615
458	4	4	0.37281883	-6.8254051	2.3144702	104.04171
459	5	2	0.76820391	-4.7194387	0.15488405	98.748746
460	5	5	-0.65826816	-3.8189015	0.13950876	97.867882
461	5	2	-0.37097168	-4.5100643	-0.49860705	100.05314
462	5	2	-0.079588468	-5.479867	-0.47534418	100.98062
463	5	3	0.22407518	-6.4237399	0.018303991	100.78164
464	5	2	-0.24979569	-5.2809507	-1.1278355	102.29122
465	5	3	0.21408622	-6.1067537	-1.0941031	102.98693
466	5	2	-0.21054435	-4.1124517	-1.7349807	102.59521
467	5	6	0.024671655	-3.8715554	-2.4607329	103.92951
468	5	6	-0.13167756	-4.8672109	-2.070276	105.04838
469	5	7	0.087333267	-5.8915051	-2.4284828	104.81233
470	5	7	0.087333267	-4.5721347	-2.5313047	106.01551
471	5	7	0.087333267	-4.8922923	-0.96754867	105.18438
472	5	2	-0.12582316	-2.4864652	-2.188247	104.42927
473	5	2	-0.15322234	-1.9410787	-0.99137597	104.69059
474	5	3	0.21343651	-2.501056	-0.078408135	104.53178
475	5	2	-0.0012242273	-0.55103054	-0.93448259	105.20167
476	5	3	0.21426429	-0.1093254	0.033871837	105.40574
477	5	2	-0.34613496	0.14662658	-2.0700576	105.41107
478	5	2	0.58573478	1.5268178	-2.0044556	105.92219
479	5	5	-0.5161764	2.1919095	-3.0549092	106.12311
480	5	2	0.069844266	-0.49221848	-3.3859234	105.12184
481	5	3	0.20803752	0.045463726	-4.3093693	105.29518
482	5	2	-0.18167481	-1.7463667	-3.410392	104.64597
483	5	6	-0.027431561	-2.5703001	-4.6121066	104.31204
484	5	6	-0.13127147	-2.8690605	-5.4197825	105.58908
485	5	7	0.091573877	-1.9297316	-5.812044	106.03457
486	5	7	0.091573877	-3.3762178	-4.7836744	106.345
487	5	7	0.091573877	-3.529319	-6.2820615	105.35417
488	5	6	-0.13127147	-1.8512275	-5.4987455	103.27627
489	5	7	0.091573877	-0.92024838	-5.9304663	103.70183
490	5	7	0.091573877	-1.5814606	-4.9057315	102.37515
491	5	7	0.091573877	-2.5112144	-6.3360719	102.96315
492	5	6	-0.18136366	-3.8839593	-4.0101339	103.71636
493	5	7	0.12977078	-4.7857011	-4.4767602	104.17073
494	5	7	0.12977078	-3.9582301	-4.2487097	102.63124
495	5	2	-0.24979569	-3.0530133	-1.7766607	101.54622
496	5	3	0.21408622	-2.1196152	-2.2906293	101.73663
497	5	2	-0.079588416	-3.2371783	-1.1924539	100.3567
498	5	3	0.22407515	-2.4490559	-1.238575	99.615508
499	1	1	-0.42834246	-5.3851396	1.3865992	103.50723
500	1	2	0.18698801	-4.1352513	1.9563118	103.11012
501	1	2	-0.45082277	-2.979265	1.3433872	103.41393
502	1	3	0.2247114	-2.9786799	0.41078269	103.96347
503	1	2	-0.0051597036	-1.6922849	1.9384965	103.00018
504	1	3	0.2280482	-0.76447511	1.4388807	103.2479
505	1	2	-0.48148382	-1.6722628	3.0915161	102.32001
506	1	3	0.22849029	-0.72627424	3.5217394	102.01932
507	1	2	0.33934903	-2.9410054	3.7766461	101.97929
508	1	1	-0.8548404	-2.9135882	5.0074581	101.2524
509	1	4	0.36641213	-3.7970518	5.5066359	101.00262
510	1	4	0.36641213	-2.0040414	5.4291292	100.95983
511	1	2	-0.5260647	-4.1107733	3.2333906	102.35668
512	1	3	0.23698139	-5.0440606	3.7258707	102.11344
513	1	4	0.37281883	-5.4234893	0.48762028	104.03862
514	2	2	0.59123873	1.9849327	-1.0463726	106.13219
515	2	5	-0.52658838	1.7499656	-0.076551231	105.36231
516	2	2	-0.33464456	2.867676	-0.89849241	107.30352
517	2	2	0.0040440862	3.4537587	0.27322556	107.60021
518	2	3	0.22187882	3.2930856	1.1500506	106.98462
519	2	2	-0.24320823	4.3331729	0.39031753	108.78071
520	2	3	0.21408622	4.7710195	1.35702	108.99528
521	2	2	-0.21054435	4.5828107	-0.6734629	109.57622
522	2	6	0.024671655	5.4816363	-0.51188555	110.81425
523	2	6	-0.13167756	5.8728621	-1.8568396	111.46831
524	2	7	0.087333267	6.3497718	-2.5318252	110.72486
525	2	7	0.087333267	4.9816938	-2.3616972	111.8977
526	2	7	0.087333267	6.5956586	-1.6942736	112.29767
527	2	2	-0.12582316	6.7420761	0.21852037	110.46456
528	2	2	-0.17251474	7.6457285	-0.12523454	109.53701
529	2	3	0.21343651	7.5082616	-1.0086762	108.9273
530	2	2	-0.062044373	8.8446547	0.72620489	109.35509
531	2	3	0.23067738	9.5673311	0.44449982	108.59927
532	2	2	-0.22788304	9.0281773	1.8271071	110.11947
533	2	2	0.8352077	10.220882	2.6849979	109.95226
534	2	5	-0.48083192	11.095875	2.4070815	109.08851
535	2	8	-0.66459865	10.3855	3.8122477	110.75267
536	2	9	0.41776588	11.197981	4.4087896	110.64916
537	2	2	0.0046376311	8.0072503	2.1739171	111.1491
538	2	3	0.22336358	8.1365096	3.0412037	111.78219
539	2	2	-0.17584335	6.9230693	1.3939663	111.28541
540	2	6	-0.027431561	5.8014286	1.5565992	112.26128
541	2	6	-0.13127147	5.1416463	2.941169	112.10951
542	2	7	0.091573877	5.8500486	3.7505246	112.38728
543	2	7	0.091573877	4.815714	3.1062419	111.05938
544	2	7	0.091573877	4.251392	3.01634	112.77055