Title

88 atoms
89 bonds
168 angles
342 dihedrals
18 impropers

11 atom types
14 bond types
9 angle types
35 dihedral types
3 improper types
-5.199999809 94.80000019 xlo xhi
-2.825999975 97.17400002 ylo yhi
-8.751999855 91.24800014 zlo zhi
0.0 0.0 0.0 xy xz yz

Masses

1	12.01078
2	15.99943
3	14.00672
4	12.01078
5	1.007947
6	1.007947
7	1.007947
8	15.99943
9	12.01078
10	15.99943
11	1.007947


Pair Coeffs

1	0.086879315	3.4806469
2	0.2102061	3.0398122
3	0.16769152	3.206876
4	0.10884061	3.3795318
5	0.015779483	2.6445434
6	0.014090815	1.1034277
7	0.016409246	2.5832257
8	0.16846514	3.0251065
9	0.21	3.3996695
10	0.20947353	2.99716
11	1.2326e-05	0.53453923

Bond Coeffs

1 harmonic	582.698766451	1.225198386222
2 harmonic	492.76746816345	1.381897776683
3 harmonic	279.1350963404	1.454628925034
4 harmonic	352.0565580496	1.450098586273
5 harmonic	505.144496193	1.019481865027
6 harmonic	264.62148576755	1.52190126495
7 harmonic	370.04670688625	1.093899492634
8 harmonic	301.15400723785	1.345741232799
9 harmonic	366.7408841747	1.425895053732
10 harmonic	300.03137914615	1.451203938761
11 harmonic	366.34047229585	1.464762957261
12 harmonic	602.81384337	1.196112346392
13 harmonic	329.96998057905	1.427343958716
14 harmonic	543.5267831885	0.9716763312559


Angle Coeffs

1 harmonic	55.42182150775	117.3465570514
2 harmonic	63.44422595415	115.5071327674
3 harmonic	57.8982893754	126.8062420451
4 harmonic	53.20531626545	116.5475862634
5 harmonic	48.776492647595	115.6030999533
6 harmonic	65.09061609600001	110.3538806181
7 harmonic	201.41175231035	127.4691416191
8 harmonic	55.07882548015	112.8714009681
9 harmonic	33.56981613361	180


Dihedral Coeffs

1 fourier 1	-0.1488678166443	4	180
2 fourier 1	-0.1230328948768	3	180
3 fourier 1	0.2939295466901	2	0
4 fourier 1	-0.3024127022865	1	0
5 fourier 1	0.182238503271	2	0
6 fourier 1	0.02972342374561	3	0
7 fourier 1	1.809047390003	2	180
8 fourier 1	-0.04816277792592	1	0
9 fourier 1	3.101948770557	2	180
10 fourier 1	-0.4252153282372	1	0
11 fourier 1	2.348375642009	2	180
12 fourier 1	1.256156174911	1	0
13 fourier 1	0.9974165607242	2	180
14 fourier 1	0.1155372516788	3	0
15 fourier 1	0.1040663847541	3	0
16 fourier 1	0.09223874044423	3	0
17 fourier 1	0.3159935921949	2	180
18 fourier 1	0.3247796806857	1	180
19 fourier 1	0.1911926717192	3	0
20 fourier 1	2.779853741805	2	180
21 fourier 1	0.1918272375143	3	0
22 fourier 1	0.9202179876409	1	180
23 fourier 1	0.0473758381877	3	0
24 fourier 1	0.4860993122944	2	180
25 fourier 1	0.8916986138746	1	0
26 fourier 1	1.163809172478	2	180
27 fourier 1	0.1679186987369	1	180
28 fourier 1	0.1115525666802	3	0
29 fourier 1	0.3432490222662	1	0
30 fourier 1	0.457973137376	1	0
31 fourier 1	-1.382973039546	1	0
32 fourier 1	0	1	0
33 fourier 1	0.3445382149273	3	0
34 fourier 1	0.1364556373303	1	0
35 fourier 1	0.3026390167484	3	0


Improper Coeffs

1 0.3333333333333333	-1	2
2 0.3666666666666667	-1	2
3 3.5	-1	2


Atoms

1	1	1	0.54229701	4.0300002	1.353	0.85900003
2	1	2	-0.68572998	3.3570001	1.548	1.906
3	1	3	-0.495334	3.405	1.35	-0.428
4	1	4	0.023554999	1.9680001	1.556	-0.611
5	1	4	-0.077595003	1.1670001	0.301	-0.208
6	1	5	0.081343003	1.454	0.025	0.83200002
7	1	4	-0.17219999	1.493	-0.89399999	-1.123
8	1	5	0.099343002	2.589	-1.075	-1.151
9	1	5	0.099343002	1.165	-0.66000003	-2.1600001
10	1	4	-0.13237099	0.792	-2.1819999	-0.64600003
11	1	5	0.089198001	1.475	-2.747	0.025
12	1	5	0.089198001	0.59100002	-2.826	-1.53
13	1	4	-0.17219999	-0.528	-1.923	0.107
14	1	5	0.099343002	-0.31600001	-1.802	1.193
15	1	5	0.099343002	-1.186	-2.8110001	-0.0080000004
16	1	4	-0.077451997	-1.24	-0.66100001	-0.414
17	1	4	0.020275	-2.615	-0.49900001	0.26699999
18	1	3	-0.44896999	-3.3870001	0.59200001	-0.331
19	1	1	0.78571498	-4.6739998	0.96100003	0.17200001
20	1	2	-0.609146	-5.1789999	0.359	1.156
21	1	6	0.32421401	-3.0179999	1.1160001	-1.156
22	1	7	0.069611996	-2.4749999	-0.303	1.353
23	1	7	0.069611996	-3.1949999	-1.442	0.15899999
24	1	5	0.081343003	-1.416	-0.80500001	-1.505
25	1	4	-0.179335	-0.354	0.602	-0.219
26	1	5	0.104635	-0.59200001	1.317	-1.0369999
27	1	5	0.104635	-0.60799998	1.11	0.73799998
28	1	7	0.064170003	1.768	1.796	-1.678
29	1	7	0.064170003	1.643	2.4300001	-0.0060000001
30	1	6	0.316356	4.0110002	1.255	-1.273
31	1	8	-0.49733299	-5.1999998	1.734	-0.278
32	1	4	0.113729	-4.4510002	2.132	-1.3940001
33	1	4	-0.13641299	-3.2709999	3.006	-0.95300001
34	1	4	-0.143621	-2.303	3.336	-2.102
35	1	4	0.035181999	-2.8870001	4.3070002	-3.1340001
36	1	8	-0.16561501	-3.757	3.632	-4
37	1	7	0.087220997	-2.05	4.7399998	-3.727
38	1	7	0.087220997	-3.4189999	5.1399999	-2.6229999
39	1	5	0.095326997	-1.401	3.8099999	-1.658
40	1	5	0.095326997	-1.967	2.402	-2.6040001
41	1	5	0.094223998	-2.7	2.46	-0.171
42	1	5	0.094223998	-3.652	3.9449999	-0.495
43	1	7	0.087199003	-4.0890002	1.24	-1.954
44	1	7	0.087199003	-5.118	2.714	-2.0639999
45	1	1	0.54229701	5.098	1.193	0.93599999
46	1	2	-0.68572998	5.5289998	0.089000002	1.362
47	1	3	-0.495334	6	2.2349999	0.55400002
48	1	4	0.023554999	7.4510002	2.056	0.62800002
49	1	4	-0.077832997	8.2060003	3.3469999	0.23800001
50	1	5	0.081343003	7.8600001	3.642	-0.778
51	1	4	-0.17219999	7.869	4.5040002	1.2180001
52	1	5	0.099343002	6.927	5.0009999	0.89999998
53	1	5	0.099343002	7.7090001	4.1149998	2.2479999
54	1	4	-0.13248201	8.9870005	5.5489998	1.268
55	1	5	0.089198001	9.1330004	5.9679999	0.24699999
56	1	5	0.089198001	8.6850004	6.3870001	1.933
57	1	4	-0.167933	10.313	4.9439998	1.772
58	1	5	0.099697001	11.147	5.526	1.3200001
59	1	5	0.099697001	10.38	5.079	2.8740001
60	1	4	-0.054143999	10.466	3.4349999	1.449
61	1	4	0.16913299	11.953	3.043	1.393
62	1	3	-0.62087399	12.093	1.592	1.3
63	1	9	0.59916103	12.71	0.91600001	2.184
64	1	2	-0.46579999	13.31	0.25799999	3.0439999
65	1	7	0.062507004	12.436	3.507	0.50599998
66	1	7	0.062507004	12.471	3.428	2.302
67	1	5	0.084784999	9.9949999	2.855	2.2750001
68	1	4	-0.17505801	9.7349997	3.0840001	0.13699999
69	1	5	0.105018	9.9309998	2.026	-0.146
70	1	5	0.105018	10.155	3.7090001	-0.68199998
71	1	7	0.064170003	7.737	1.234	-0.063000001
72	1	7	0.064170003	7.7360001	1.7539999	1.66
73	1	6	0.316356	5.5900002	3.1259999	0.19499999
74	1	8	-0.16561501	-4.1100001	4.3179998	-4.6259999
75	1	4	0.035294998	-3.0780001	4.6059999	-5.5300002
76	1	4	-0.13788299	-2.0469999	5.533	-4.8759999
77	1	4	-0.16493399	-0.796	5.75	-5.744
78	1	4	0.088752002	-1.058	6.6030002	-6.9910002
79	1	10	-0.67964703	-1.6720001	5.8330002	-7.987
80	1	11	0.38552901	-1.8279999	6.4460001	-8.7519999
81	1	7	0.078566	-0.083999999	6.98	-7.3740001
82	1	7	0.078566	-1.694	7.4790001	-6.7329998
83	1	5	0.097791001	-0.039999999	6.2779999	-5.1220002
84	1	5	0.097791001	-0.354	4.7729998	-6.0370002
85	1	5	0.095501997	-1.721	5.0770001	-3.915
86	1	5	0.095501997	-2.52	6.5100002	-4.638
87	1	7	0.087220997	-2.5929999	3.6630001	-5.8740001
88	1	7	0.087220997	-3.526	5.1069999	-6.4120002

Bonds

1	1	1	2
2	2	1	3
3	3	1	45
4	4	3	4
5	5	3	30
6	6	4	5
7	7	4	28
8	7	4	29
9	7	5	6
10	6	5	7
11	6	5	25
12	7	7	8
13	7	7	9
14	6	7	10
15	7	10	11
16	7	10	12
17	6	10	13
18	7	13	14
19	7	13	15
20	6	13	16
21	6	16	17
22	7	16	24
23	6	16	25
24	4	17	18
25	7	17	22
26	7	17	23
27	2	18	19
28	5	18	21
29	1	19	20
30	8	19	31
31	7	25	26
32	7	25	27
33	9	31	32
34	6	32	33
35	7	32	43
36	7	32	44
37	6	33	34
38	7	33	41
39	7	33	42
40	6	34	35
41	7	34	39
42	7	34	40
43	9	35	36
44	7	35	37
45	7	35	38
46	10	36	74
47	1	45	46
48	2	45	47
49	4	47	48
50	5	47	73
51	6	48	49
52	7	48	71
53	7	48	72
54	7	49	50
55	6	49	51
56	6	49	68
57	7	51	52
58	7	51	53
59	6	51	54
60	7	54	55
61	7	54	56
62	6	54	57
63	7	57	58
64	7	57	59
65	6	57	60
66	6	60	61
67	7	60	67
68	6	60	68
69	11	61	62
70	7	61	65
71	7	61	66
72	12	62	63
73	1	63	64
74	7	68	69
75	7	68	70
76	9	74	75
77	6	75	76
78	7	75	87
79	7	75	88
80	6	76	77
81	7	76	85
82	7	76	86
83	6	77	78
84	7	77	83
85	7	77	84
86	13	78	79
87	7	78	81
88	7	78	82
89	14	79	80

Angles

1	4	3	4	29
2	5	37	35	38
3	4	18	17	23
4	4	17	16	24
5	6	35	36	74
6	5	87	75	88
7	4	76	75	88
8	4	57	60	67
9	5	55	54	56
10	4	54	57	58
11	4	34	33	41
12	5	58	57	59
13	4	4	5	7
14	2	45	47	73
15	4	77	78	79
16	9	62	63	64
17	4	67	60	68
18	4	3	4	5
19	5	69	68	70
20	5	39	34	40
21	4	77	76	86
22	4	17	16	25
23	4	4	5	25
24	4	48	49	51
25	4	74	75	88
26	4	52	51	54
27	4	55	54	57
28	4	34	33	42
29	5	28	4	29
30	3	18	19	20
31	4	5	4	29
32	7	20	19	31
33	4	61	60	67
34	5	65	61	66
35	4	51	54	56
36	4	6	5	25
37	4	7	10	11
38	4	32	33	41
39	4	76	77	83
40	4	5	25	16
41	4	5	7	8
42	4	31	32	43
43	4	48	49	68
44	1	1	3	4
45	4	32	33	34
46	4	49	51	54
47	5	83	77	84
48	4	61	60	68
49	4	51	54	57
50	4	49	68	60
51	4	75	76	86
52	4	49	48	72
53	5	14	13	15
54	4	47	48	71
55	4	60	61	65
56	4	10	13	14
57	5	71	48	72
58	4	57	60	68
59	1	17	18	19
60	4	54	57	59
61	4	58	57	60
62	4	15	13	16
63	4	16	17	22
64	4	60	68	69
65	3	1	45	46
66	6	19	31	32
67	2	4	3	30
68	4	36	35	37
69	4	78	77	83
70	4	24	16	25
71	4	31	32	33
72	4	16	17	18
73	5	41	33	42
74	4	33	32	43
75	5	11	10	12
76	4	54	57	60
77	4	12	10	13
78	4	33	34	39
79	4	7	5	25
80	4	34	35	36
81	4	62	61	65
82	4	49	51	52
83	4	77	78	81
84	4	79	78	81
85	4	50	49	51
86	4	49	68	69
87	4	7	10	12
88	4	32	33	42
89	4	33	34	35
90	4	5	25	26
91	4	76	77	84
92	4	5	7	10
93	4	35	34	39
94	4	5	7	9
95	5	22	17	23
96	4	8	7	10
97	4	31	32	44
98	5	8	7	9
99	4	13	16	24
100	4	33	34	40
101	4	57	60	61
102	4	62	61	66
103	2	1	3	30
104	4	18	17	22
105	5	43	32	44
106	4	49	68	70
107	3	46	45	47
108	8	61	62	63
109	4	4	5	6
110	3	2	1	45
111	4	35	34	40
112	4	14	13	16
113	4	47	48	72
114	4	16	25	26
115	4	56	54	57
116	4	59	57	60
117	4	60	61	66
118	4	10	13	15
119	4	75	76	85
120	4	48	49	50
121	4	74	75	87
122	5	26	25	27
123	2	19	18	21
124	1	45	47	48
125	4	16	17	23
126	4	60	61	62
127	4	60	68	70
128	3	1	45	47
129	4	5	4	28
130	4	36	35	38
131	5	81	78	82
132	4	16	25	27
133	4	78	77	84
134	4	51	54	55
135	4	77	76	85
136	4	13	16	17
137	4	74	75	76
138	4	10	13	16
139	4	33	32	44
140	3	2	1	3
141	4	51	49	68
142	4	75	76	77
143	2	48	47	73
144	4	6	5	7
145	6	78	79	80
146	4	11	10	13
147	2	17	18	21
148	3	18	19	31
149	6	36	74	75
150	5	52	51	53
151	4	34	35	37
152	3	3	1	45
153	4	3	4	28
154	4	53	51	54
155	4	49	51	53
156	4	77	78	82
157	4	47	48	49
158	4	76	77	78
159	4	79	78	82
160	4	76	75	87
161	4	7	10	13
162	4	9	7	10
163	4	50	49	68
164	4	5	25	27
165	4	49	48	71
166	5	85	76	86
167	4	13	16	25
168	4	34	35	38

Dihedrals

1	15	8	7	5	25
2	19	82	78	77	83
3	28	31	32	33	42
3	29	31	32	33	42
4	19	50	49	68	69
5	5	19	18	17	23
5	6	19	18	17	23
6	16	5	25	16	17
6	17	5	25	16	17
6	18	5	25	16	17
7	19	39	34	33	41
8	31	60	61	62	63
9	19	6	5	25	26
10	15	25	5	4	28
11	19	81	78	77	84
12	7	17	18	19	20
12	8	17	18	19	20
13	19	67	60	68	69
14	31	63	62	61	66
15	16	75	76	77	78
15	17	75	76	77	78
15	18	75	76	77	78
16	19	6	5	4	29
17	23	36	74	75	87
18	24	20	19	18	21
18	25	20	19	18	21
19	15	51	54	57	59
20	15	49	51	54	55
21	15	7	10	13	14
22	16	49	68	60	61
22	17	49	68	60	61
22	18	49	68	60	61
23	5	45	47	48	72
23	6	45	47	48	72
24	14	47	48	49	51
25	16	51	49	68	60
25	17	51	49	68	60
25	18	51	49	68	60
26	19	40	34	33	41
27	19	85	76	75	88
28	7	30	3	1	45
28	8	30	3	1	45
29	5	71	48	47	73
29	6	71	48	47	73
30	19	58	57	60	67
31	19	50	49	68	70
32	9	2	1	3	4
32	10	2	1	3	4
33	15	7	5	25	27
34	19	14	13	16	24
35	19	6	5	25	27
36	19	6	5	7	8
37	19	9	7	10	11
38	15	76	77	78	81
39	5	1	3	4	28
39	6	1	3	4	28
40	15	12	10	13	16
41	19	23	17	16	24
42	23	36	74	75	76
43	19	67	60	68	70
44	35	80	79	78	81
45	15	61	60	68	69
46	23	36	74	75	88
47	15	7	5	4	28
48	28	36	35	34	39
48	29	36	35	34	39
49	15	59	57	60	68
50	19	84	77	76	86
51	15	48	49	51	52
52	19	40	34	33	42
53	15	57	60	61	66
54	15	58	57	60	68
55	19	15	13	16	24
56	15	50	49	51	54
57	32	61	62	63	64
58	15	14	13	16	25
59	15	48	49	68	69
60	15	32	33	34	39
61	5	5	4	3	30
61	6	5	4	3	30
62	26	20	19	31	32
62	27	20	19	31	32
63	15	9	7	5	25
64	14	18	17	16	24
65	14	33	34	35	36
66	19	66	61	60	67
67	15	76	77	78	82
68	15	78	77	76	86
69	14	57	60	61	62
70	35	80	79	78	82
71	1	45	47	48	49
71	2	45	47	48	49
71	3	45	47	48	49
71	4	45	47	48	49
72	19	56	54	57	59
73	15	7	5	4	29
74	15	35	34	33	42
75	15	54	57	60	67
76	15	65	61	60	68
77	19	83	77	76	85
78	16	10	7	5	25
78	17	10	7	5	25
78	18	10	7	5	25
79	19	86	76	75	87
80	15	48	49	51	53
81	16	32	33	34	35
81	17	32	33	34	35
81	18	32	33	34	35
82	19	11	10	13	14
83	5	21	18	17	23
83	6	21	18	17	23
84	15	15	13	16	25
85	15	13	16	25	27
86	19	55	54	57	58
87	15	4	5	25	27
88	1	16	17	18	19
88	2	16	17	18	19
88	3	16	17	18	19
88	4	16	17	18	19
89	15	51	49	68	69
90	15	14	13	16	17
91	19	52	51	54	55
92	1	1	3	4	5
92	2	1	3	4	5
92	3	1	3	4	5
92	4	1	3	4	5
93	14	62	61	60	67
94	14	18	17	16	25
95	19	55	54	57	59
96	28	74	75	76	86
96	29	74	75	76	86
97	19	82	78	77	84
98	15	75	76	77	83
99	19	37	35	34	39
100	15	56	54	57	60
101	16	54	57	60	68
101	17	54	57	60	68
101	18	54	57	60	68
102	14	3	4	5	6
103	19	53	51	54	55
104	16	7	5	25	16
104	17	7	5	25	16
104	18	7	5	25	16
105	19	39	34	33	42
106	15	52	51	49	68
107	15	59	57	60	61
108	19	50	49	48	71
109	15	25	5	4	29
110	15	6	5	25	16
111	15	58	57	60	61
112	15	13	16	17	22
113	15	15	13	16	17
114	19	8	7	10	11
115	7	1	45	47	48
115	8	1	45	47	48
116	23	19	31	32	43
117	16	51	54	57	60
117	17	51	54	57	60
117	18	51	54	57	60
118	15	49	51	54	56
119	15	7	10	13	15
120	19	52	51	54	56
121	15	53	51	49	68
122	15	55	54	57	60
123	15	77	76	75	87
124	15	75	76	77	84
125	15	5	7	10	11
126	19	37	35	34	40
127	14	47	48	49	68
128	14	3	4	5	7
129	11	2	1	3	30
129	12	2	1	3	30
130	14	13	16	17	18
131	15	49	68	60	67
132	19	53	51	54	56
133	19	42	33	32	43
134	5	72	48	47	73
134	6	72	48	47	73
135	15	6	5	7	10
136	19	6	5	7	9
137	19	9	7	10	12
138	5	28	4	3	30
138	6	28	4	3	30
139	5	49	48	47	73
139	6	49	48	47	73
140	5	1	3	4	29
140	6	1	3	4	29
141	15	23	17	16	25
142	15	61	60	68	70
143	19	8	7	10	12
144	15	4	5	7	8
145	13	3	1	45	46
146	23	19	31	32	44
147	28	36	35	34	40
147	29	36	35	34	40
148	16	7	10	13	16
148	17	7	10	13	16
148	18	7	10	13	16
149	16	49	51	54	57
149	17	49	51	54	57
149	18	49	51	54	57
150	15	77	76	75	88
151	19	83	77	76	86
152	15	5	7	10	12
153	28	79	78	77	83
153	29	79	78	77	83
154	15	34	33	32	43
155	15	68	49	48	71
156	15	48	49	68	70
157	16	4	5	25	16
157	17	4	5	25	16
157	18	4	5	25	16
158	15	10	13	16	24
159	5	29	4	3	30
159	6	29	4	3	30
160	15	32	33	34	40
161	15	33	34	35	37
162	15	17	16	25	26
163	15	9	7	10	13
164	9	46	45	47	48
164	10	46	45	47	48
165	16	54	57	60	61
165	17	54	57	60	61
165	18	54	57	60	61
166	15	57	60	68	69
167	15	66	61	60	68
168	28	31	32	33	41
168	29	31	32	33	41
169	19	84	77	76	85
170	19	24	16	25	26
171	16	4	5	7	10
171	17	4	5	7	10
171	18	4	5	7	10
172	5	19	18	17	22
172	6	19	18	17	22
173	15	4	5	7	9
174	21	19	31	32	33
174	22	19	31	32	33
175	19	86	76	75	88
176	16	48	49	51	54
176	17	48	49	51	54
176	18	48	49	51	54
177	19	11	10	13	15
178	14	76	77	78	79
179	20	18	19	31	32
180	14	31	32	33	34
181	19	12	10	13	14
182	15	78	77	76	85
183	31	63	62	61	65
184	19	6	5	4	28
185	15	51	49	68	70
186	16	54	51	49	68
186	17	54	51	49	68
186	18	54	51	49	68
187	16	10	13	16	25
187	17	10	13	16	25
187	18	10	13	16	25
188	15	57	60	68	70
189	7	4	3	1	45
189	8	4	3	1	45
190	7	1	45	47	73
190	8	1	45	47	73
191	15	17	16	25	27
192	14	62	61	60	68
193	19	24	16	25	27
194	19	50	49	51	52
195	15	7	5	25	26
196	19	38	35	34	39
197	15	50	49	68	60
198	15	11	10	13	16
199	19	50	49	48	72
200	7	17	18	19	31
200	8	17	18	19	31
201	19	41	33	32	43
202	19	12	10	13	15
203	15	51	49	48	71
204	23	37	35	36	74
205	28	74	75	76	85
205	29	74	75	76	85
206	15	13	16	17	23
207	5	16	17	18	21
207	6	16	17	18	21
208	15	5	25	16	24
209	19	59	57	60	67
210	15	52	51	54	57
211	33	77	78	79	80
211	34	77	78	79	80
212	16	5	25	16	13
212	17	5	25	16	13
212	18	5	25	16	13
213	14	3	4	5	25
214	16	10	13	16	17
214	17	10	13	16	17
214	18	10	13	16	17
215	13	2	1	45	46
216	19	22	17	16	24
217	15	57	60	61	65
218	23	34	35	36	74
219	19	50	49	51	53
220	19	38	35	34	40
221	15	53	51	54	57
222	19	42	33	32	44
223	16	49	68	60	57
223	17	49	68	60	57
223	18	49	68	60	57
224	23	38	35	36	74
225	19	41	33	32	44
226	15	51	49	48	72
227	7	21	18	19	31
227	8	21	18	19	31
228	11	46	45	47	73
228	12	46	45	47	73
229	15	8	7	10	13
230	13	3	1	45	47
231	19	56	54	57	58
232	15	35	34	33	41
233	19	65	61	60	67
234	14	74	75	76	77
235	15	22	17	16	25
236	13	2	1	45	47
237	30	35	36	74	75
238	19	81	78	77	83
239	5	21	18	17	22
239	6	21	18	17	22
240	16	5	7	10	13
240	17	5	7	10	13
240	18	5	7	10	13
241	15	13	16	25	26
242	15	34	33	32	44
243	15	68	49	48	72
244	15	4	5	25	26
245	28	79	78	77	84
245	29	79	78	77	84
246	15	51	54	57	58
247	19	85	76	75	87
248	15	33	34	35	38
249	5	45	47	48	71
249	6	45	47	48	71
250	14	47	48	49	50
251	16	48	49	68	60
251	17	48	49	68	60
251	18	48	49	68	60

Impropers

78	2	45	1	46	47
89	2	45	47	1	46
93	1	47	48	73	45
94	3	19	20	31	18
96	2	45	46	47	1
97	3	19	31	18	20
175	1	3	4	30	1
181	1	18	17	19	21
219	1	47	73	45	48
246	1	3	1	4	30
315	3	19	18	20	31
366	1	18	21	17	19
379	1	47	45	48	73
411	1	3	30	1	4
424	2	1	45	2	3
430	1	18	19	21	17
505	2	1	3	45	2
553	2	1	2	3	45
