Title

88 atoms
89 bonds
168 angles
342 dihedrals
18 impropers

11 atom types
14 bond types
9 angle types
35 dihedral types
3 improper types
-5.199999809 94.80000019 xlo xhi
-2.825999975 97.17400002 ylo yhi
-8.751999855 91.24800014 zlo zhi
0.0 0.0 0.0 xy xz yz

Masses

1	12.01078
2	15.99943
3	14.00672
4	12.01078
5	1.007947
6	1.007947
7	1.007947
8	15.99943
9	12.01078
10	15.99943
11	1.007947


Pair Coeffs

1	0.086879315	3.4806469
2	0.2102061	3.0398122
3	0.16769152	3.206876
4	0.10884061	3.3795318
5	0.015779483	2.6445434
6	0.014090815	1.1034277
7	0.016409246	2.5832257
8	0.16846514	3.0251065
9	0.21	3.3996695
10	0.20947353	2.99716
11	1.2326e-05	0.53453923

Bond Coeffs

1 harmonic	582.698766451	1.225198386222
2 harmonic	492.76746816345	1.381897776683
3 harmonic	279.1350963404	1.454628925034
4 harmonic	352.0565580496	1.450098586273
5 harmonic	505.144496193	1.019481865027
6 harmonic	264.62148576755	1.52190126495
7 harmonic	370.04670688625	1.093899492634
8 harmonic	301.15400723785	1.345741232799
9 harmonic	366.7408841747	1.425895053732
10 harmonic	300.03137914615	1.451203938761
11 harmonic	366.34047229585	1.464762957261
12 harmonic	602.81384337	1.196112346392
13 harmonic	329.96998057905	1.427343958716
14 harmonic	543.5267831885	0.9716763312559


Angle Coeffs

1 harmonic	55.42182150775	117.3465570514
2 harmonic	63.44422595415	115.5071327674
3 harmonic	57.8982893754	126.8062420451
4 harmonic	53.20531626545	116.5475862634
5 harmonic	48.776492647595	115.6030999533
6 harmonic	65.09061609600001	110.3538806181
7 harmonic	201.41175231035	127.4691416191
8 harmonic	55.07882548015	112.8714009681
9 harmonic	33.56981613361	180


Dihedral Coeffs

1 fourier 1	-0.1488678166443	4	180
2 fourier 1	-0.1230328948768	3	180
3 fourier 1	0.2939295466901	2	0
4 fourier 1	-0.3024127022865	1	0
5 fourier 1	0.182238503271	2	0
6 fourier 1	0.02972342374561	3	0
7 fourier 1	1.809047390003	2	180
8 fourier 1	-0.04816277792592	1	0
9 fourier 1	3.101948770557	2	180
10 fourier 1	-0.4252153282372	1	0
11 fourier 1	2.348375642009	2	180
12 fourier 1	1.256156174911	1	0
13 fourier 1	0.9974165607242	2	180
14 fourier 1	0.1155372516788	3	0
15 fourier 1	0.1040663847541	3	0
16 fourier 1	0.09223874044423	3	0
17 fourier 1	0.3159935921949	2	180
18 fourier 1	0.3247796806857	1	180
19 fourier 1	0.1911926717192	3	0
20 fourier 1	2.779853741805	2	180
21 fourier 1	0.1918272375143	3	0
22 fourier 1	0.9202179876409	1	180
23 fourier 1	0.0473758381877	3	0
24 fourier 1	0.4860993122944	2	180
25 fourier 1	0.8916986138746	1	0
26 fourier 1	1.163809172478	2	180
27 fourier 1	0.1679186987369	1	180
28 fourier 1	0.1115525666802	3	0
29 fourier 1	0.3432490222662	1	0
30 fourier 1	0.457973137376	1	0
31 fourier 1	-1.382973039546	1	0
32 fourier 1	0	1	0
33 fourier 1	0.3445382149273	3	0
34 fourier 1	0.1364556373303	1	0
35 fourier 1	0.3026390167484	3	0


Improper Coeffs

1 0.3333333333333333	-1	2
2 0.3666666666666667	-1	2
3 3.5	-1	2


Atoms

1	1	1	0.54229701	4.0300002	1.353	0.85900003
2	1	2	-0.68572998	3.3570001	1.548	1.906
3	1	3	-0.495334	3.405	1.35	-0.428
4	1	4	0.023554999	1.9680001	1.556	-0.611
5	1	4	-0.077595003	1.1670001	0.301	-0.208
6	1	5	0.081343003	1.454	0.025	0.83200002
7	1	4	-0.17219999	1.493	-0.89399999	-1.123
8	1	5	0.099343002	2.589	-1.075	-1.151
9	1	5	0.099343002	1.165	-0.66000003	-2.1600001
10	1	4	-0.13237099	0.792	-2.1819999	-0.64600003
11	1	5	0.089198001	1.475	-2.747	0.025
12	1	5	0.089198001	0.59100002	-2.826	-1.53
13	1	4	-0.17219999	-0.528	-1.923	0.107
14	1	5	0.099343002	-0.31600001	-1.802	1.193
15	1	5	0.099343002	-1.186	-2.8110001	-0.0080000004
16	1	4	-0.077451997	-1.24	-0.66100001	-0.414
17	1	4	0.020275	-2.615	-0.49900001	0.26699999
18	1	3	-0.44896999	-3.3870001	0.59200001	-0.331
19	1	1	0.78571498	-4.6739998	0.96100003	0.17200001
20	1	2	-0.609146	-5.1789999	0.359	1.156
21	1	6	0.32421401	-3.0179999	1.1160001	-1.156
22	1	7	0.069611996	-2.4749999	-0.303	1.353
23	1	7	0.069611996	-3.1949999	-1.442	0.15899999
24	1	5	0.081343003	-1.416	-0.80500001	-1.505
25	1	4	-0.179335	-0.354	0.602	-0.219
26	1	5	0.104635	-0.59200001	1.317	-1.0369999
27	1	5	0.104635	-0.60799998	1.11	0.73799998
28	1	7	0.064170003	1.768	1.796	-1.678
29	1	7	0.064170003	1.643	2.4300001	-0.0060000001
30	1	6	0.316356	4.0110002	1.255	-1.273
31	1	8	-0.49733299	-5.1999998	1.734	-0.278
32	1	4	0.113729	-4.4510002	2.132	-1.3940001
33	1	4	-0.13641299	-3.2709999	3.006	-0.95300001
34	1	4	-0.143621	-2.303	3.336	-2.102
35	1	4	0.035181999	-2.8870001	4.3070002	-3.1340001
36	1	8	-0.16561501	-3.757	3.632	-4
37	1	7	0.087220997	-2.05	4.7399998	-3.727
38	1	7	0.087220997	-3.4189999	5.1399999	-2.6229999
39	1	5	0.095326997	-1.401	3.8099999	-1.658
40	1	5	0.095326997	-1.967	2.402	-2.6040001
41	1	5	0.094223998	-2.7	2.46	-0.171
42	1	5	0.094223998	-3.652	3.9449999	-0.495
43	1	7	0.087199003	-4.0890002	1.24	-1.954
44	1	7	0.087199003	-5.118	2.714	-2.0639999
45	1	1	0.54229701	5.098	1.193	0.93599999
46	1	2	-0.68572998	5.5289998	0.089000002	1.362
47	1	3	-0.495334	6	2.2349999	0.55400002
48	1	4	0.023554999	7.4510002	2.056	0.62800002
49	1	4	-0.077832997	8.2060003	3.3469999	0.23800001
50	1	5	0.081343003	7.8600001	3.642	-0.778
51	1	4	-0.17219999	7.869	4.5040002	1.2180001
52	1	5	0.099343002	6.927	5.0009999	0.89999998
53	1	5	0.099343002	7.7090001	4.1149998	2.2479999
54	1	4	-0.13248201	8.9870005	5.5489998	1.268
55	1	5	0.089198001	9.1330004	5.9679999	0.24699999
56	1	5	0.089198001	8.6850004	6.3870001	1.933
57	1	4	-0.167933	10.313	4.9439998	1.772
58	1	5	0.099697001	11.147	5.526	1.3200001
59	1	5	0.099697001	10.38	5.079	2.8740001
60	1	4	-0.054143999	10.466	3.4349999	1.449
61	1	4	0.16913299	11.953	3.043	1.393
62	1	3	-0.62087399	12.093	1.592	1.3
63	1	9	0.59916103	12.71	0.91600001	2.184
64	1	2	-0.46579999	13.31	0.25799999	3.0439999
65	1	7	0.062507004	12.436	3.507	0.50599998
66	1	7	0.062507004	12.471	3.428	2.302
67	1	5	0.084784999	9.9949999	2.855	2.2750001
68	1	4	-0.17505801	9.7349997	3.0840001	0.13699999
69	1	5	0.105018	9.9309998	2.026	-0.146
70	1	5	0.105018	10.155	3.7090001	-0.68199998
71	1	7	0.064170003	7.737	1.234	-0.063000001
72	1	7	0.064170003	7.7360001	1.7539999	1.66
73	1	6	0.316356	5.5900002	3.1259999	0.19499999
74	1	8	-0.16561501	-4.1100001	4.3179998	-4.6259999
75	1	4	0.035294998	-3.0780001	4.6059999	-5.5300002
76	1	4	-0.13788299	-2.0469999	5.533	-4.8759999
77	1	4	-0.16493399	-0.796	5.75	-5.744
78	1	4	0.088752002	-1.058	6.6030002	-6.9910002
79	1	10	-0.67964703	-1.6720001	5.8330002	-7.987
80	1	11	0.38552901	-1.8279999	6.4460001	-8.7519999
81	1	7	0.078566	-0.083999999	6.98	-7.3740001
82	1	7	0.078566	-1.694	7.4790001	-6.7329998
83	1	5	0.097791001	-0.039999999	6.2779999	-5.1220002
84	1	5	0.097791001	-0.354	4.7729998	-6.0370002
85	1	5	0.095501997	-1.721	5.0770001	-3.915
86	1	5	0.095501997	-2.52	6.5100002	-4.638
87	1	7	0.087220997	-2.5929999	3.6630001	-5.8740001
88	1	7	0.087220997	-3.526	5.1069999	-6.4120002

Bonds

1	1	1	2
2	2	1	3
3	3	1	45
4	4	3	4
5	5	3	30
6	6	4	5
7	7	4	28
8	7	4	29
9	7	5	6
10	6	5	7
11	6	5	25
12	7	7	8
13	7	7	9
14	6	7	10
15	7	10	11
16	7	10	12
17	6	10	13
18	7	13	14
19	7	13	15
20	6	13	16
21	6	16	17
22	7	16	24
23	6	16	25
24	4	17	18
25	7	17	22
26	7	17	23
27	2	18	19
28	5	18	21
29	1	19	20
30	8	19	31
31	7	25	26
32	7	25	27
33	9	31	32
34	6	32	33
35	7	32	43
36	7	32	44
37	6	33	34
38	7	33	41
39	7	33	42
40	6	34	35
41	7	34	39
42	7	34	40
43	9	35	36
44	7	35	37
45	7	35	38
46	10	36	74
47	1	45	46
48	2	45	47
49	4	47	48
50	5	47	73
51	6	48	49
52	7	48	71
53	7	48	72
54	7	49	50
55	6	49	51
56	6	49	68
57	7	51	52
58	7	51	53
59	6	51	54
60	7	54	55
61	7	54	56
62	6	54	57
63	7	57	58
64	7	57	59
65	6	57	60
66	6	60	61
67	7	60	67
68	6	60	68
69	11	61	62
70	7	61	65
71	7	61	66
72	12	62	63
73	1	63	64
74	7	68	69
75	7	68	70
76	9	74	75
77	6	75	76
78	7	75	87
79	7	75	88
80	6	76	77
81	7	76	85
82	7	76	86
83	6	77	78
84	7	77	83
85	7	77	84
86	13	78	79
87	7	78	81
88	7	78	82
89	14	79	80

Angles

1	4	76	77	83
2	4	5	25	16
3	3	1	45	46
4	4	13	16	25
5	4	75	76	77
6	6	78	79	80
7	5	39	34	40
8	4	61	60	68
9	4	49	48	72
10	4	49	68	60
11	4	5	7	10
12	4	36	35	37
13	4	5	7	9
14	4	33	34	39
15	4	10	13	15
16	4	31	32	43
17	4	35	34	40
18	4	48	49	50
19	2	1	3	30
20	4	13	16	17
21	5	41	33	42
22	4	79	78	82
23	3	2	1	45
24	4	18	17	23
25	5	81	78	82
26	4	57	60	68
27	4	58	57	60
28	4	77	76	85
29	4	47	48	72
30	4	34	35	37
31	4	16	17	22
32	4	50	49	68
33	5	65	61	66
34	5	55	54	56
35	4	33	34	40
36	4	32	33	41
37	4	10	13	16
38	6	19	31	32
39	4	76	75	87
40	5	52	51	53
41	4	51	54	55
42	4	16	17	18
43	4	77	78	82
44	4	7	5	25
45	4	75	76	86
46	4	77	76	86
47	4	34	35	38
48	4	51	49	68
49	3	18	19	31
50	4	62	61	65
51	3	18	19	20
52	4	76	75	88
53	4	49	68	69
54	4	3	4	28
55	4	33	32	43
56	4	52	51	54
57	4	51	54	56
58	5	22	17	23
59	4	49	51	52
60	4	76	77	84
61	4	47	48	49
62	3	1	45	47
63	5	43	32	44
64	3	46	45	47
65	5	71	48	72
66	4	54	57	58
67	4	57	60	61
68	4	62	61	66
69	1	45	47	48
70	4	32	33	34
71	2	48	47	73
72	6	36	74	75
73	4	77	78	79
74	4	4	5	6
75	1	17	18	19
76	4	34	33	41
77	4	49	68	70
78	4	36	35	38
79	5	87	75	88
80	4	31	32	44
81	2	4	3	30
82	4	48	49	51
83	4	31	32	33
84	4	16	25	26
85	4	7	10	11
86	3	2	1	3
87	5	69	68	70
88	7	20	19	31
89	2	19	18	21
90	4	16	17	23
91	4	55	54	57
92	4	32	33	42
93	5	28	4	29
94	4	60	68	69
95	4	7	10	12
96	4	48	49	68
97	4	5	25	26
98	9	62	63	64
99	4	13	16	24
100	4	53	51	54
101	4	9	7	10
102	8	61	62	63
103	5	83	77	84
104	4	3	4	29
105	4	33	32	44
106	4	51	54	57
107	4	49	51	53
108	4	5	7	8
109	4	5	25	27
110	4	10	13	14
111	4	35	34	39
112	1	1	3	4
113	4	56	54	57
114	4	17	16	24
115	4	59	57	60
116	5	14	13	15
117	4	54	57	59
118	4	8	7	10
119	4	15	13	16
120	5	8	7	9
121	5	37	35	38
122	4	60	61	65
123	6	35	36	74
124	4	3	4	5
125	4	79	78	81
126	4	4	5	7
127	4	50	49	51
128	4	34	33	42
129	4	18	17	22
130	4	57	60	67
131	5	58	57	59
132	4	24	16	25
133	4	47	48	71
134	4	34	35	36
135	4	49	51	54
136	4	5	4	28
137	4	67	60	68
138	4	74	75	87
139	4	16	25	27
140	4	17	16	25
141	4	4	5	25
142	5	11	10	12
143	4	14	13	16
144	2	45	47	73
145	4	54	57	60
146	4	74	75	76
147	4	78	77	83
148	3	3	1	45
149	4	60	61	66
150	4	33	34	35
151	4	77	78	81
152	2	17	18	21
153	4	6	5	7
154	4	75	76	85
155	5	26	25	27
156	4	61	60	67
157	4	5	4	29
158	4	12	10	13
159	4	60	61	62
160	4	60	68	70
161	5	85	76	86
162	4	76	77	78
163	4	74	75	88
164	4	7	10	13
165	4	11	10	13
166	4	6	5	25
167	4	49	48	71
168	4	78	77	84

Dihedrals

1	19	14	13	16	24
2	14	47	48	49	51
3	19	9	7	10	12
4	19	50	49	68	69
5	14	57	60	61	62
6	15	57	60	68	70
7	23	36	74	75	88
8	19	85	76	75	88
9	23	19	31	32	43
10	19	50	49	48	72
11	15	68	49	48	72
12	19	23	17	16	24
13	35	80	79	78	81
14	19	50	49	51	52
15	28	74	75	76	86
15	29	74	75	76	86
16	30	35	36	74	75
17	19	56	54	57	58
18	19	41	33	32	43
19	15	59	57	60	68
20	15	35	34	33	41
21	5	71	48	47	73
21	6	71	48	47	73
22	5	21	18	17	23
22	6	21	18	17	23
23	19	55	54	57	58
24	31	63	62	61	65
25	1	16	17	18	19
25	2	16	17	18	19
25	3	16	17	18	19
25	4	16	17	18	19
26	16	10	13	16	25
26	17	10	13	16	25
26	18	10	13	16	25
27	32	61	62	63	64
28	5	45	47	48	72
28	6	45	47	48	72
29	11	46	45	47	73
29	12	46	45	47	73
30	19	24	16	25	27
31	19	6	5	7	8
32	15	9	7	10	13
33	16	49	68	60	61
33	17	49	68	60	61
33	18	49	68	60	61
34	14	18	17	16	24
35	14	47	48	49	68
36	23	19	31	32	44
37	15	48	49	68	69
38	19	81	78	77	84
39	19	12	10	13	15
40	28	79	78	77	83
40	29	79	78	77	83
41	23	38	35	36	74
42	15	78	77	76	86
43	19	83	77	76	85
44	19	56	54	57	59
45	31	60	61	62	63
46	15	4	5	25	26
47	19	52	51	54	55
48	15	6	5	25	16
49	16	49	68	60	57
49	17	49	68	60	57
49	18	49	68	60	57
50	19	11	10	13	14
51	15	58	57	60	61
52	24	20	19	18	21
52	25	20	19	18	21
53	33	77	78	79	80
53	34	77	78	79	80
54	15	13	16	25	27
55	16	75	76	77	78
55	17	75	76	77	78
55	18	75	76	77	78
56	16	10	13	16	17
56	17	10	13	16	17
56	18	10	13	16	17
57	28	36	35	34	40
57	29	36	35	34	40
58	5	5	4	3	30
58	6	5	4	3	30
59	15	7	10	13	14
60	14	3	4	5	7
61	15	12	10	13	16
62	15	75	76	77	83
63	15	25	5	4	29
64	19	82	78	77	83
65	19	86	76	75	87
66	11	2	1	3	30
66	12	2	1	3	30
67	15	59	57	60	61
68	16	32	33	34	35
68	17	32	33	34	35
68	18	32	33	34	35
69	15	33	34	35	38
70	16	54	57	60	61
70	17	54	57	60	61
70	18	54	57	60	61
71	14	3	4	5	25
72	1	45	47	48	49
72	2	45	47	48	49
72	3	45	47	48	49
72	4	45	47	48	49
73	19	8	7	10	11
74	19	39	34	33	41
75	19	37	35	34	39
76	16	5	7	10	13
76	17	5	7	10	13
76	18	5	7	10	13
77	19	22	17	16	24
78	19	6	5	4	29
79	15	7	10	13	15
80	28	31	32	33	41
80	29	31	32	33	41
81	7	1	45	47	48
81	8	1	45	47	48
82	15	8	7	5	25
83	15	51	54	57	58
84	13	2	1	45	46
85	19	86	76	75	88
86	15	14	13	16	25
87	15	48	49	51	52
88	19	50	49	68	70
89	15	61	60	68	69
90	5	28	4	3	30
90	6	28	4	3	30
91	19	66	61	60	67
92	15	7	5	4	28
93	19	42	33	32	43
94	5	19	18	17	22
94	6	19	18	17	22
95	5	72	48	47	73
95	6	72	48	47	73
96	15	77	76	75	87
97	15	23	17	16	25
98	15	76	77	78	81
99	35	80	79	78	82
100	19	50	49	51	53
101	21	19	31	32	33
101	22	19	31	32	33
102	19	65	61	60	67
103	19	39	34	33	42
104	15	49	51	54	55
105	19	37	35	34	40
106	19	41	33	32	44
107	7	4	3	1	45
107	8	4	3	1	45
108	15	35	34	33	42
109	19	53	51	54	55
110	19	55	54	57	59
111	13	3	1	45	46
112	31	63	62	61	66
113	15	51	49	48	71
114	15	9	7	5	25
115	15	6	5	7	10
116	15	14	13	16	17
117	19	6	5	7	9
118	15	66	61	60	68
119	14	18	17	16	25
120	15	32	33	34	39
121	15	7	5	4	29
122	15	52	51	49	68
123	15	48	49	68	70
124	15	76	77	78	82
125	15	50	49	51	54
126	15	7	5	25	26
127	28	79	78	77	84
127	29	79	78	77	84
128	15	49	51	54	56
129	19	83	77	76	86
130	5	1	3	4	28
130	6	1	3	4	28
131	15	56	54	57	60
132	15	49	68	60	67
133	15	4	5	25	27
134	19	52	51	54	56
135	15	55	54	57	60
136	19	11	10	13	15
137	5	16	17	18	21
137	6	16	17	18	21
138	15	5	25	16	24
139	14	31	32	33	34
140	16	5	25	16	13
140	17	5	25	16	13
140	18	5	25	16	13
141	14	13	16	17	18
142	19	15	13	16	24
143	15	57	60	61	65
144	15	32	33	34	40
145	16	51	49	68	60
145	17	51	49	68	60
145	18	51	49	68	60
146	15	77	76	75	88
147	19	82	78	77	84
148	15	7	5	25	27
149	15	75	76	77	84
150	26	20	19	31	32
150	27	20	19	31	32
151	14	47	48	49	50
152	19	9	7	10	11
153	19	40	34	33	41
154	19	38	35	34	39
155	15	52	51	54	57
156	15	11	10	13	16
157	23	36	74	75	87
158	15	57	60	68	69
159	14	62	61	60	67
160	7	17	18	19	31
160	8	17	18	19	31
161	19	50	49	48	71
162	9	46	45	47	48
162	10	46	45	47	48
163	15	54	57	60	67
164	15	68	49	48	71
165	16	10	7	5	25
165	17	10	7	5	25
165	18	10	7	5	25
166	19	85	76	75	87
167	19	8	7	10	12
168	16	54	51	49	68
168	17	54	51	49	68
168	18	54	51	49	68
169	15	22	17	16	25
170	16	7	10	13	16
170	17	7	10	13	16
170	18	7	10	13	16
171	15	15	13	16	25
172	5	21	18	17	22
172	6	21	18	17	22
173	15	53	51	49	68
174	28	31	32	33	42
174	29	31	32	33	42
175	15	51	54	57	59
176	1	1	3	4	5
176	2	1	3	4	5
176	3	1	3	4	5
176	4	1	3	4	5
177	13	2	1	45	47
178	5	45	47	48	71
178	6	45	47	48	71
179	15	48	49	51	53
180	19	24	16	25	26
181	19	40	34	33	42
182	15	61	60	68	70
183	19	38	35	34	40
184	14	62	61	60	68
185	15	4	5	7	8
186	15	34	33	32	43
187	19	42	33	32	44
188	5	19	18	17	23
188	6	19	18	17	23
189	16	54	57	60	68
189	17	54	57	60	68
189	18	54	57	60	68
190	15	50	49	68	60
191	20	18	19	31	32
192	19	84	77	76	85
193	19	81	78	77	83
194	19	12	10	13	14
195	15	65	61	60	68
196	16	5	25	16	17
196	17	5	25	16	17
196	18	5	25	16	17
197	15	8	7	10	13
198	15	78	77	76	85
199	7	1	45	47	73
199	8	1	45	47	73
200	19	6	5	25	26
201	15	13	16	17	22
202	14	74	75	76	77
203	19	53	51	54	56
204	13	3	1	45	47
205	15	15	13	16	17
206	14	33	34	35	36
207	16	4	5	25	16
207	17	4	5	25	16
207	18	4	5	25	16
208	23	34	35	36	74
209	23	37	35	36	74
210	15	51	49	48	72
211	16	51	54	57	60
211	17	51	54	57	60
211	18	51	54	57	60
212	15	17	16	25	26
213	19	67	60	68	69
214	15	13	16	25	26
215	28	36	35	34	39
215	29	36	35	34	39
216	16	48	49	51	54
216	17	48	49	51	54
216	18	48	49	51	54
217	15	5	7	10	11
218	16	4	5	7	10
218	17	4	5	7	10
218	18	4	5	7	10
219	19	58	57	60	67
220	15	51	49	68	69
221	15	4	5	7	9
222	14	3	4	5	6
223	15	34	33	32	44
224	19	84	77	76	86
225	9	2	1	3	4
225	10	2	1	3	4
226	5	49	48	47	73
226	6	49	48	47	73
227	15	25	5	4	28
228	16	48	49	68	60
228	17	48	49	68	60
228	18	48	49	68	60
229	16	49	51	54	57
229	17	49	51	54	57
229	18	49	51	54	57
230	5	1	3	4	29
230	6	1	3	4	29
231	16	7	5	25	16
231	17	7	5	25	16
231	18	7	5	25	16
232	19	6	5	25	27
233	15	13	16	17	23
234	15	53	51	54	57
235	19	67	60	68	70
236	7	30	3	1	45
236	8	30	3	1	45
237	15	33	34	35	37
238	14	76	77	78	79
239	15	17	16	25	27
240	7	21	18	19	31
240	8	21	18	19	31
241	23	36	74	75	76
242	7	17	18	19	20
242	8	17	18	19	20
243	28	74	75	76	85
243	29	74	75	76	85
244	19	59	57	60	67
245	15	5	7	10	12
246	15	57	60	61	66
247	19	6	5	4	28
248	15	51	49	68	70
249	15	58	57	60	68
250	5	29	4	3	30
250	6	29	4	3	30
251	15	10	13	16	24

Impropers

3	1	3	1	4	30
91	2	1	3	45	2
116	2	45	1	46	47
193	3	19	18	20	31
201	1	47	48	73	45
211	3	19	31	18	20
221	2	45	47	1	46
287	2	1	45	2	3
288	1	47	73	45	48
317	1	3	4	30	1
321	3	19	20	31	18
327	1	18	21	17	19
335	2	1	2	3	45
431	1	18	19	21	17
439	1	3	30	1	4
486	2	45	46	47	1
503	1	18	17	19	21
522	1	47	45	48	73
