Title

11000 atoms
11125 bonds
21000 angles
42500 dihedrals
2250 impropers

11 atom types
14 bond types
9 angle types
35 dihedral types
3 improper types
-11.8816382 126.115011 xlo xhi
-12.3859527 123.6113303 ylo yhi
-12.77598434 126.2301491 zlo zhi
0.0 0.0 0.0 xy xz yz

Masses

1	12.01078
2	15.99943
3	14.00672
4	12.01078
5	1.007947
6	1.007947
7	1.007947
8	15.99943
9	12.01078
10	15.99943
11	1.007947


Pair Coeffs

1	0.086879315	3.4806469
2	0.2102061	3.0398122
3	0.16769152	3.206876
4	0.10884061	3.3795318
5	0.016409246	2.5832257
6	0.015779483	2.6445434
7	0.014090815	1.1034277
8	0.16846514	3.0251065
9	0.21	3.3996695
10	0.20947353	2.99716
11	1.2326e-05	0.53453923

Bond Coeffs

1 harmonic	582.698766451	1.225198386222
2 harmonic	492.76746816345	1.381897776683
3 harmonic	279.1350963404	1.454628925034
4 harmonic	352.0565580496	1.450098586273
5 harmonic	505.144496193	1.019481865027
6 harmonic	370.04670688625	1.093899492634
7 harmonic	264.62148576755	1.52190126495
8 harmonic	301.15400723785	1.345741232799
9 harmonic	366.7408841747	1.425895053732
10 harmonic	300.03137914615	1.451203938761
11 harmonic	366.34047229585	1.464762957261
12 harmonic	602.81384337	1.196112346392
13 harmonic	329.96998057905	1.427343958716
14 harmonic	543.5267831885	0.9716763312559


Angle Coeffs

1 harmonic	55.42182150775	117.3465570514
2 harmonic	63.44422595415	115.5071327674
3 harmonic	57.8982893754	126.8062420451
4 harmonic	53.20531626545	116.5475862634
5 harmonic	48.776492647595	115.6030999533
6 harmonic	65.09061609600001	110.3538806181
7 harmonic	201.41175231035	127.4691416191
8 harmonic	55.07882548015	112.8714009681
9 harmonic	33.56981613361	180


Dihedral Coeffs

1 fourier 1	0.182238503271	2	0
2 fourier 1	0.02972342374561	3	0
3 fourier 1	-0.1488678166443	4	180
4 fourier 1	-0.1230328948768	3	180
5 fourier 1	0.2939295466901	2	0
6 fourier 1	-0.3024127022865	1	0
7 fourier 1	1.809047390003	2	180
8 fourier 1	-0.04816277792592	1	0
9 fourier 1	3.101948770557	2	180
10 fourier 1	-0.4252153282372	1	0
11 fourier 1	2.348375642009	2	180
12 fourier 1	1.256156174911	1	0
13 fourier 1	0.9974165607242	2	180
14 fourier 1	0.1155372516788	3	0
15 fourier 1	0.1040663847541	3	0
16 fourier 1	0.09223874044423	3	0
17 fourier 1	0.3159935921949	2	180
18 fourier 1	0.3247796806857	1	180
19 fourier 1	0.1911926717192	3	0
20 fourier 1	2.779853741805	2	180
21 fourier 1	0.1918272375143	3	0
22 fourier 1	0.9202179876409	1	180
23 fourier 1	0.0473758381877	3	0
24 fourier 1	0.4860993122944	2	180
25 fourier 1	0.8916986138746	1	0
26 fourier 1	1.163809172478	2	180
27 fourier 1	0.1679186987369	1	180
28 fourier 1	0.1115525666802	3	0
29 fourier 1	0.3432490222662	1	0
30 fourier 1	0.457973137376	1	0
31 fourier 1	-1.382973039546	1	0
32 fourier 1	0	1	0
33 fourier 1	0.3445382149273	3	0
34 fourier 1	0.1364556373303	1	0
35 fourier 1	0.3026390167484	3	0


Improper Coeffs

1 0.3333333333333333	-1	2
2 0.3666666666666667	-1	2
3 3.5	-1	2


Atoms

1	6	1	0.55797261	1.0646506	-3.6336368	-1.6938942
2	6	2	-0.67216713	1.6599166	-3.7790489	-0.59326003
3	6	3	-0.55944127	0.50703637	-2.3698109	-2.0713536
4	6	4	0.091819857	0.67214991	-1.1571062	-1.2638179
5	6	5	0.050164778	0.84327788	-1.4402043	-0.20117654
6	6	4	-0.17642729	1.9155236	-0.3667622	-1.7433147
7	6	6	0.10234441	2.4221059	0.091360657	-0.86472732
8	6	6	0.10234441	2.6504671	-1.0505271	-2.2215267
9	6	4	-0.17487508	1.5387204	0.74800142	-2.7249676
10	6	6	0.10234443	1.0368633	0.28900438	-3.6052603
11	6	6	0.10234443	2.4599145	1.2414755	-3.1052751
12	6	4	0.092673209	0.58956682	1.7874537	-2.0761846
13	6	3	-0.50757844	1.3581459	2.8809108	-1.4693437
14	6	1	0.81059003	0.7650805	4.1394716	-1.1289803
15	6	2	-0.59970069	-0.45304483	4.3641179	-1.35669
16	6	7	0.31710165	2.3770136	2.758506	-1.2738378
17	6	5	0.053403151	-0.033612425	2.2089181	-2.8972263
18	6	4	-0.17487511	-0.34975348	1.1586263	-1.0152414
19	6	6	0.10234443	0.10617079	1.2369099	-0.0031402462
20	6	6	0.10234443	-1.311021	1.7171368	-0.99205107
21	6	4	-0.17642729	-0.62926535	-0.31843101	-1.307592
22	6	6	0.10234443	-1.1123506	-0.39297031	-2.3071526
23	6	6	0.10234443	-1.3505629	-0.71491578	-0.55973655
24	6	7	0.31410259	0.11403545	-2.287323	-3.0360821
25	7	8	-0.49702838	1.3465819	4.8777848	-0.69074787
26	7	4	0.11871486	0.55869419	5.4691565	0.3073761
27	7	4	-0.13766766	0.48464836	4.5563085	1.5336353
28	7	4	-0.14009741	-0.33633174	5.2066313	2.6573087
29	7	4	-0.13887611	-0.54567215	4.2684936	3.8558946
30	7	4	-0.14364928	0.7450758	4.040812	4.6605261
31	7	4	0.037183423	0.48151827	3.2351299	5.9341853
32	7	8	-0.16242835	0.042207561	1.9459984	5.6064338
33	7	5	0.089305099	-0.28127775	3.7518028	6.5580975
34	7	5	0.089305099	1.4275791	3.1674325	6.5168104
35	7	6	0.095389877	1.490926	3.4968829	4.0440932
36	7	6	0.095389877	1.1802343	5.0228498	4.9488917
37	7	6	0.090168055	-1.307129	4.73023	4.5222354
38	7	6	0.090168055	-0.9521726	3.2953722	3.5039742
39	7	6	0.089988005	0.15690241	6.144923	2.9929764
40	7	6	0.089988005	-1.3377448	5.4782597	2.2565745
41	7	6	0.094234962	0.017888958	3.5906875	1.2401837
42	7	6	0.094234962	1.5186445	4.3564751	1.887574
43	7	5	0.089232516	1.0211942	6.4375755	0.59228208
44	7	5	0.089232516	-0.46393051	5.677691	-0.084018996
45	4	1	0.55797273	0.9765881	-4.4780517	-2.3641319
46	4	2	-0.67216719	0.78535152	-5.6283655	-1.8879936
47	4	3	-0.55944127	1.0871317	-4.2756052	-3.7777611
48	4	4	0.092195314	0.96567113	-5.3724983	-4.7430247
49	4	5	0.050164778	1.550373	-6.2450224	-4.3720593
50	4	4	-0.1751535	1.550621	-4.950342	-6.1046898
51	4	6	0.10059443	1.0388641	-4.0325942	-6.4708768
52	4	6	0.10059443	2.6304971	-4.7172191	-5.9863078
53	4	4	-0.13680065	1.3921331	-6.0687069	-7.1427816
54	4	6	0.098206293	1.9968944	-6.9495767	-6.8339287
55	4	6	0.098206293	1.7812524	-5.7116191	-8.1217895
56	4	4	0.21178284	-0.082760974	-6.4714507	-7.2976808
57	4	3	-0.62871164	-0.18365364	-7.5875825	-8.2353793
58	4	9	0.60789281	-0.84755272	-7.502222	-9.3171374
59	4	2	-0.4652521	-1.4940263	-7.4190255	-10.369439
60	4	5	0.043429468	-0.65540821	-5.5916746	-7.677078
61	4	4	-0.13680065	-0.67110937	-6.8924734	-5.9413228
62	4	6	0.098206263	-1.7514425	-7.1218044	-6.0635014
63	4	6	0.098206263	-0.16421799	-7.8136695	-5.5774674
64	4	4	-0.1751535	-0.51122114	-5.7779961	-4.899117
65	4	6	0.10059444	-1.1143138	-4.8945359	-5.2058471
66	4	6	0.10059444	-0.90806491	-6.1396217	-3.9268722
67	4	7	0.31410259	1.2964862	-3.3069086	-4.1105924
68	5	8	-0.16242835	-0.11421239	1.4809061	6.4693167
69	5	4	0.037183423	0.20207666	2.3975518	7.4815987
70	5	4	-0.14364928	-0.92206706	3.426782	7.6331414
71	5	4	-0.1388238	-0.61593144	4.4140449	8.7693271
72	5	4	-0.13472815	-1.6547712	5.5428324	8.8675353
73	5	4	-0.16557345	-3.0143161	5.0509075	9.3917113
74	5	4	0.09055854	-3.9804076	6.2125208	9.6301057
75	5	10	-0.67842204	-4.2829925	6.8446734	8.4177512
76	5	11	0.38738566	-4.9040359	7.5856648	8.6409772
77	5	5	0.080899719	-3.5297522	6.9408646	10.340691
78	5	5	0.080899719	-4.9155471	5.8127181	10.083257
79	5	6	0.09774695	-3.4748816	4.3493935	8.6651279
80	5	6	0.09774695	-2.8670861	4.5108194	10.353333
81	5	6	0.090168055	-1.2584393	6.3121761	9.5660797
82	5	6	0.090168055	-1.7809605	6.0242084	7.8729261
83	5	6	0.090168055	-0.5562239	3.8708215	9.7380893
84	5	6	0.090168055	0.37713313	4.8793254	8.5826836
85	5	6	0.095389877	-1.0364544	3.9820642	6.6761565
86	5	6	0.095389877	-1.8685511	2.8867912	7.8446573
87	5	5	0.089305099	0.32402768	1.8407128	8.434538
88	5	5	0.089305099	1.1658165	2.9064182	7.2535145
89	6	1	0.55797261	-0.31759688	-3.8180939	27.479121
90	6	2	-0.67216713	0.45077754	-3.334477	28.352389
91	6	3	-0.55944127	-0.59968548	-3.1081642	26.267886
92	6	4	0.091819857	0.049634364	-1.8396619	25.922466
93	6	5	0.050164778	0.37535587	-1.3246794	26.853774
94	6	4	-0.17642729	1.3148216	-2.1074708	25.069168
95	6	6	0.10234441	2.1060226	-1.3745501	25.343478
96	6	6	0.10234441	1.7217182	-3.1197483	25.28386
97	6	4	-0.17487508	1.0287983	-1.9777334	23.569274
98	6	6	0.10234443	0.24142999	-2.7140039	23.294664
99	6	6	0.10234443	1.9367553	-2.2511494	22.988235
100	6	4	0.092673209	0.55069192	-0.55104119	23.197473
101	6	3	-0.50757844	1.6913458	0.29697209	22.830866
102	6	1	0.81059003	1.5353786	1.5218136	22.104928
103	6	2	-0.59970069	0.397692	1.9143649	21.733822
104	6	7	0.31710165	2.6609812	0.012970498	23.096285
105	6	5	0.053403151	-0.10997345	-0.65615317	22.30721
106	6	4	-0.17487511	-0.25679728	0.12418761	24.335618
107	6	6	0.10234443	0.41858661	0.73193185	24.97815
108	6	6	0.10234443	-1.0106603	0.81440147	23.897665
109	6	4	-0.17642729	-0.966504	-0.90682909	25.218009
110	6	6	0.10234443	-1.6636355	-1.494185	24.579989
111	6	6	0.10234443	-1.5792253	-0.3816645	25.983211
112	6	7	0.31410259	-1.1637962	-3.6037459	25.541158
113	7	8	-0.49702838	2.3707201	2.0932688	21.879226
114	7	4	0.11871486	2.0066663	3.4325879	22.080294
115	7	4	-0.13766766	1.975965	3.7540023	23.576368
116	7	4	-0.14009741	1.6241653	5.2297833	23.816945
117	7	4	-0.13887611	1.4535919	5.5618354	25.307307
118	7	4	-0.14364928	2.7879735	5.5495665	26.071883
119	7	4	0.037183423	2.6174834	6.0354223	27.512602
120	7	8	-0.16242835	1.7982239	5.1506661	28.22555
121	7	5	0.089305099	2.1738874	7.055847	27.518162
122	7	5	0.089305099	3.6195487	6.0831558	27.994943
123	7	6	0.095389877	3.2102796	4.5231933	26.090764
124	7	6	0.095389877	3.5151802	6.2167465	25.559089
125	7	6	0.090168055	1.0065674	6.5775176	25.382046
126	7	6	0.090168055	0.74138274	4.8456703	25.771981
127	7	6	0.089988005	2.4052427	5.8833773	23.370764
128	7	6	0.089988005	0.6635077	5.4560637	23.30398
129	7	6	0.094234962	1.2221636	3.1041784	24.072265
130	7	6	0.094234962	2.9753055	3.5283743	24.00621
131	7	5	0.089232516	2.7552735	4.0795731	21.576399
132	7	5	0.089232516	1.0118691	3.633364	21.619311
133	4	1	0.55797273	-0.76861753	-4.7866051	27.648167
134	4	2	-0.67216719	-1.1388195	-5.1022311	28.809989
135	4	3	-0.55944127	-0.92910082	-5.6948554	26.552321
136	4	4	0.092195314	-1.5428141	-7.0172763	26.707948
137	4	5	0.050164778	-1.1356441	-7.4973298	27.626943
138	4	4	-0.1751535	-1.189088	-7.9130214	25.505022
139	4	6	0.10059443	-1.5149567	-7.4261861	24.558951
140	4	6	0.10059443	-0.087557487	-8.0507329	25.458555
141	4	4	-0.13680065	-1.8594574	-9.2876044	25.625933
142	4	6	0.098206293	-1.4495064	-9.8234572	26.510162
143	4	6	0.098206293	-1.6208504	-9.8876044	24.720147
144	4	4	0.21178284	-3.3841946	-9.14725	25.756264
145	4	3	-0.62871164	-3.9773747	-10.46919	25.945524
146	4	9	0.60789281	-4.8215298	-10.953605	25.126382
147	4	2	-0.4652521	-5.6432703	-11.424508	24.329399
148	4	5	0.043429468	-3.7800519	-8.6727161	24.826754
149	4	4	-0.13680065	-3.7420105	-8.2533883	26.954638
150	4	6	0.098206263	-4.8438413	-8.115838	26.99573
151	4	6	0.098206263	-3.422127	-8.7423643	27.901479
152	4	4	-0.1751535	-3.0704077	-6.8788001	26.839425
153	4	6	0.10059444	-3.4776461	-6.3404036	25.954783
154	4	6	0.10059444	-3.3189608	-6.283774	27.743683
155	4	7	0.31410259	-0.55668664	-5.3974089	25.62183
156	5	8	-0.16242835	1.7243791	5.522591	29.142918
157	5	4	0.037183423	2.4851495	6.6998406	29.160373
158	5	4	-0.14364928	1.7285746	7.8289096	28.454131
159	5	4	-0.1388238	2.5258004	9.1409428	28.50235
160	5	4	-0.13472815	1.8631587	10.265454	27.690332
161	5	4	-0.16557345	0.57589773	10.78999	28.348309
162	5	4	0.09055854	0.021501625	12.009111	27.609461
163	5	10	-0.67842204	-0.37112282	11.650496	26.314
164	5	11	0.38738566	-0.71331954	12.479965	25.890355
165	5	5	0.080899719	0.7923163	12.810794	27.568766
166	5	5	0.080899719	-0.85904575	12.396948	28.169723
167	5	6	0.09774695	-0.20088286	9.9970938	28.358001
168	5	6	0.09774695	0.79014707	11.081831	29.400457
169	5	6	0.090168055	2.5908179	11.102604	27.608935
170	5	6	0.090168055	1.646126	9.9066568	26.660256
171	5	6	0.090168055	2.6585919	9.4655588	29.557882
172	5	6	0.090168055	3.5373951	8.9621502	28.075491
173	5	6	0.095389877	1.5501521	7.5386564	27.395282
174	5	6	0.095389877	0.74702554	7.9629201	28.954894
175	5	5	0.089305099	2.6693715	6.9837059	30.217973
176	5	5	0.089305099	3.471163	6.5289136	28.672189
177	6	1	0.55797261	2.1402042	1.1859469	48.429207
178	6	2	-0.67216713	3.0961343	1.1858262	49.249621
179	6	3	-0.55944127	0.78543416	1.0498558	48.872763
180	6	4	0.091819857	0.41636724	1.0006463	50.291001
181	6	5	0.050164778	1.2792656	0.62558597	50.885452
182	6	4	-0.17642729	0.08105994	2.4248356	50.800699
183	6	6	0.10234441	0.43904066	2.5347681	51.848641
184	6	6	0.10234441	0.61273082	3.190253	50.194213
185	6	4	-0.17487508	-1.4257968	2.7017321	50.768574
186	6	6	0.10234443	-1.7821653	2.5966018	49.72005
187	6	6	0.10234443	-1.6210647	3.7550977	51.06697
188	6	4	0.092673209	-2.2089999	1.7214515	51.678473
189	6	3	-0.50757844	-2.3571843	2.2766585	53.029178
190	6	1	0.81059003	-3.3257267	1.7812537	53.96087
191	6	2	-0.59970069	-4.1097072	0.84755377	53.645075
192	6	7	0.31710165	-1.7463177	3.0647294	53.34076
193	6	5	0.053403151	-3.2225993	1.6091622	51.231146
194	6	4	-0.17487511	-1.5463589	0.32227173	51.759404
195	6	6	0.10234443	-0.85873373	0.27227546	52.632912
196	6	6	0.10234443	-2.3303051	-0.45234912	51.907383
197	6	4	-0.17642729	-0.74659361	-0.0019386648	50.494273
198	6	6	0.10234443	-1.4410406	0.019020954	49.625162
199	6	6	0.10234443	-0.33756577	-1.0334695	50.567746
200	6	7	0.31410259	0.03255111	1.1565903	48.156014
201	7	8	-0.49702838	-3.3846366	2.1980749	54.908545
202	7	4	0.11871486	-3.5831785	1.135744	55.802286
203	7	4	-0.13766766	-2.271118	0.38030684	56.026557
204	7	4	-0.14009741	-2.4565966	-0.75989041	57.039038
205	7	4	-0.13887611	-1.1963673	-1.6251588	57.192878
206	7	4	-0.14364928	-0.061783184	-0.89126682	57.927332
207	7	4	0.037183423	1.12154	-1.8193766	58.208673
208	7	8	-0.16242835	1.7000936	-2.2408003	57.004533
209	7	5	0.089305099	0.78069228	-2.6997057	58.797671
210	7	5	0.089305099	1.8770199	-1.2639715	58.80854
211	7	6	0.095389877	0.29615239	-0.03314544	57.32099
212	7	6	0.095389877	-0.44031959	-0.49961783	58.896991
213	7	6	0.090168055	-1.4732401	-2.5315527	57.774959
214	7	6	0.090168055	-0.84781377	-1.9613691	56.192114
215	7	6	0.089988005	-2.7535691	-0.34509359	58.027014
216	7	6	0.089988005	-3.282411	-1.4175943	56.688818
217	7	6	0.094234962	-1.9201716	-0.03441864	55.056381
218	7	6	0.094234962	-1.5101859	1.0982804	56.400523
219	7	5	0.089232516	-3.9426145	1.5510283	56.767303
220	7	5	0.089232516	-4.3665298	0.44609185	55.410905
221	4	1	0.55797273	2.3484453	1.2930804	47.373192
222	4	2	-0.67216719	3.3710801	0.74277932	46.885454
223	4	3	-0.55944127	1.4645975	2.0640364	46.551004
224	4	4	0.092195314	1.6799257	2.2401576	45.111464
225	4	5	0.050164778	2.7573518	2.4591847	44.932662
226	4	4	-0.1751535	0.85755491	3.4356057	44.592692
227	4	6	0.10059443	-0.2205194	3.2849566	44.823581
228	4	6	0.10059443	1.1918423	4.3634836	45.104344
229	4	4	-0.13680065	1.0332157	3.6093441	43.078608
230	4	6	0.098206293	2.0905264	3.8731216	42.855957
231	4	6	0.098206293	0.39019866	4.4489183	42.733606
232	4	4	0.21178284	0.64177616	2.3268431	42.327958
233	4	3	-0.62871164	0.89469351	2.5056925	40.899934
234	4	9	0.60789281	-0.03497147	2.4283037	40.035074
235	4	2	-0.4652521	-0.93970342	2.3524722	39.193707
236	4	5	0.043429468	-0.44069317	2.1232904	42.508788
237	4	4	-0.13680065	1.4590084	1.1309937	42.842931
238	4	6	0.098206263	1.1196775	0.20499067	42.331059
239	4	6	0.098206263	2.5363276	1.2779381	42.606874
240	4	4	-0.1751535	1.2890194	0.95605048	44.357631
241	4	6	0.10059444	0.23167467	0.69314208	44.583921
242	4	6	0.10059444	1.9284636	0.11212554	44.692921
243	4	7	0.31410259	0.66070003	2.5388055	47.021453
244	5	8	-0.16242835	2.4520059	-2.8385449	57.254881
245	5	4	0.037183423	2.4729477	-2.8908847	58.655529
246	5	4	-0.14364928	1.3512668	-3.7995106	59.167593
247	5	4	-0.1388238	1.3851873	-3.9071448	60.699452
248	5	4	-0.13472815	0.19621447	-4.70223	61.262636
249	5	4	-0.16557345	0.29188456	-6.2059789	60.954904
250	5	4	0.09055854	-0.8139448	-6.9964033	61.656246
251	5	10	-0.67842204	-2.0669896	-6.6183881	61.158289
252	5	11	0.38738566	-2.7350033	-7.1592483	61.654092
253	5	5	0.080899719	-0.76818269	-6.8201583	62.75413
254	5	5	0.080899719	-0.65223921	-8.0817933	61.467954
255	5	6	0.09774695	0.21373057	-6.3797777	59.861353
256	5	6	0.09774695	1.276252	-6.5928484	61.300506
257	5	6	0.090168055	0.18342642	-4.5623159	62.365901
258	5	6	0.090168055	-0.75511842	-4.2902649	60.859965
259	5	6	0.090168055	2.340244	-4.3745883	61.025826
260	5	6	0.090168055	1.3466717	-2.8830434	61.132155
261	5	6	0.095389877	0.37174162	-3.3837303	58.84371
262	5	6	0.095389877	1.4768129	-4.8047747	58.713894
263	5	5	0.089305099	3.4544407	-3.2984003	58.977457
264	5	5	0.089305099	2.3678994	-1.8673771	59.081157
265	6	1	0.55797261	0.90262411	1.930823	81.226604
266	6	2	-0.67216713	2.015155	2.0938191	80.658635
267	6	3	-0.55944127	-0.087930816	1.0562185	80.674759
268	6	4	0.091819857	0.15560636	0.23090715	79.487502
269	6	5	0.050164778	0.94855605	0.70242463	78.864977
270	6	4	-0.17642729	0.66483997	-1.169621	79.911461
271	6	6	0.10234441	1.4222478	-1.523972	79.177168
272	6	6	0.10234441	1.1712277	-1.1166053	80.899957
273	6	4	-0.17487508	-0.47217401	-2.1951867	79.972578
274	6	6	0.10234443	-1.2265321	-1.8429546	80.710366
275	6	6	0.10234443	-0.08363614	-3.1652311	80.353106
276	6	4	0.092673209	-1.1514856	-2.38191	78.592019
277	6	3	-0.50757844	-0.50706202	-3.4664054	77.841549
278	6	1	0.81059003	-1.1320626	-4.1004815	76.719554
279	6	2	-0.59970069	-2.2826983	-3.75714	76.339685
280	6	7	0.31710165	0.44036782	-3.8055514	78.122001
281	6	5	0.053403151	-2.2081567	-2.6715102	78.791197
282	6	4	-0.17487511	-1.1458139	-1.084882	77.742882
283	6	6	0.10234443	-0.25269026	-1.0634172	77.079397
284	6	6	0.10234443	-2.0462526	-1.0635234	77.090762
285	6	4	-0.17642729	-1.1268898	0.16947744	78.621244
286	6	6	0.10234443	-2.0357005	0.16207332	79.26316
287	6	6	0.10234443	-1.1824587	1.0745035	77.977351
288	6	7	0.31410259	-0.94886125	0.88705454	81.242331
289	7	8	-0.49702838	-0.63180617	-4.8546767	76.213362
290	7	4	0.11871486	-0.87103684	-4.6477674	74.847091
291	7	4	-0.13766766	-0.012365988	-3.4918725	74.328364
292	7	4	-0.14009741	-0.22519259	-3.2786421	72.822108
293	7	4	-0.13887611	0.51798965	-2.0442955	72.288626
294	7	4	-0.14364928	2.0422337	-2.2447969	72.246435
295	7	4	0.037183423	2.7475841	-1.0692281	71.567235
296	7	8	-0.16242835	2.5696117	0.099036891	72.319404
297	7	5	0.089305099	2.3440048	-0.92767878	70.540024
298	7	5	0.089305099	3.8340177	-1.2993891	71.49138
299	7	6	0.095389877	2.4438549	-2.3535036	73.275524
300	7	6	0.095389877	2.2785951	-3.17216	71.679825
301	7	6	0.090168055	0.15353873	-1.8455846	71.256775
302	7	6	0.090168055	0.26719706	-1.1576239	72.910698
303	7	6	0.089988005	0.094891288	-4.1842732	72.261998
304	7	6	0.089988005	-1.3113566	-3.1325246	72.63212
305	7	6	0.094234962	-0.28099753	-2.5640026	74.879088
306	7	6	0.094234962	1.0545991	-3.7268611	74.530156
307	7	5	0.089232516	-0.61120831	-5.5784437	74.300059
308	7	5	0.089232516	-1.9518139	-4.4368745	74.674224
309	4	1	0.55797273	0.69538946	2.4594078	82.14729
310	4	2	-0.67216719	1.1156536	3.6379451	82.291958
311	4	3	-0.55944127	-0.044269686	1.8088738	83.187127
312	4	4	0.092195314	-0.3707724	2.4701113	84.454338
313	4	5	0.050164778	0.53168631	3.0098039	84.821884
314	4	4	-0.1751535	-0.7656019	1.4236996	85.51436
315	4	6	0.10059443	-1.6198938	0.81281073	85.146597
316	4	6	0.10059443	0.091713041	0.7407264	85.696161
317	4	4	-0.13680065	-1.1554248	2.0983978	86.835841
318	4	6	0.098206293	-0.26874681	2.6161501	87.263384
319	4	6	0.098206293	-1.4787328	1.3176835	87.559263
320	4	4	0.21178284	-2.2997852	3.1021766	86.625185
321	4	3	-0.62871164	-2.5897141	3.7774676	87.88817
322	4	9	0.60789281	-3.7300522	3.7028832	88.447021
323	4	2	-0.4652521	-4.8398996	3.6305181	88.990336
324	4	5	0.043429468	-3.1992626	2.5480876	86.264909
325	4	4	-0.13680065	-1.910856	4.1477076	85.567489
326	4	6	0.098206263	-2.7716348	4.8266493	85.386553
327	4	6	0.098206263	-1.0607596	4.7630845	85.937056
328	4	4	-0.1751535	-1.5166221	3.4767543	84.245287
329	4	6	0.10059444	-2.4015196	2.9567164	83.815377
330	4	6	0.10059444	-1.2019016	4.2628949	83.526641
331	4	7	0.31410259	-0.32266656	0.8135347	83.029729
332	5	8	-0.16242835	3.0431415	0.81866603	71.826202
333	5	4	0.037183423	3.5985689	0.22364476	70.684955
334	5	4	-0.14364928	2.5116539	-0.020681254	69.633813
335	5	4	-0.1388238	3.1076043	-0.63064282	68.356271
336	5	4	-0.13472815	2.0321767	-1.014322	67.327077
337	5	4	-0.16557345	1.3744416	0.21290559	66.674076
338	5	4	0.09055854	0.4243713	-0.19045761	65.545283
339	5	10	-0.67842204	-0.64912935	-0.92843189	66.059061
340	5	11	0.38738566	-1.2200827	-1.1617033	65.281765
341	5	5	0.080899719	0.9724497	-0.78941282	64.78412
342	5	5	0.080899719	0.039205824	0.73209992	65.055171
343	5	6	0.09774695	0.80249893	0.78991541	67.430454
344	5	6	0.09774695	2.1628804	0.87526607	66.252495
345	5	6	0.090168055	2.5195173	-1.6238507	66.534671
346	5	6	0.090168055	1.2582945	-1.6490761	67.811935
347	5	6	0.090168055	3.8314337	0.079300285	67.898877
348	5	6	0.090168055	3.6665563	-1.5537861	68.62623
349	5	6	0.095389877	1.7476595	-0.71011783	70.055989
350	5	6	0.095389877	2.023448	0.94827799	69.399433
351	5	5	0.089305099	4.3667686	0.90941697	70.269479
352	5	5	0.089305099	4.0998293	-0.73338658	70.954382
353	6	1	0.55797261	-4.094666	0.49680517	103.99669
354	6	2	-0.67216713	-3.7897052	1.7120756	103.86631
355	6	3	-0.55944127	-3.0858851	-0.50284247	104.18035
356	6	4	0.091819857	-1.6635555	-0.1771169	104.32496
357	6	5	0.050164778	-1.4545684	0.79740706	103.82971
358	6	4	-0.17642729	-1.3046397	-0.026098799	105.82459
359	6	6	0.10234441	-0.55485371	0.78756129	105.94374
360	6	6	0.10234441	-2.2014053	0.27057834	106.41124
361	6	4	-0.17487508	-0.71819228	-1.3181804	106.40332
362	6	6	0.10234443	-1.4700029	-2.1299963	106.28847
363	6	6	0.10234443	-0.54525322	-1.1967009	107.49515
364	6	4	0.092673209	0.59275618	-1.7260242	105.68405
365	6	3	-0.50757844	1.757453	-1.1498225	106.36676
366	6	1	0.81059003	3.0878567	-1.6386541	106.16031
367	6	2	-0.59970069	3.3091813	-2.6070287	105.3861
368	6	7	0.31710165	1.6327208	-0.35611883	107.03442
369	6	5	0.053403151	0.66130141	-2.8357039	105.74735
370	6	4	-0.17487511	0.60751238	-1.3140517	104.18959
371	6	6	0.10234443	1.0854096	-0.31617986	104.07038
372	6	6	0.10234443	1.2116829	-2.0446796	103.6085
373	6	4	-0.17642729	-0.80614577	-1.2470303	103.60446
374	6	6	0.10234443	-1.2723107	-2.2530881	103.69713
375	6	6	0.10234443	-0.7481967	-1.0064467	102.52025
376	6	7	0.31410259	-3.4062379	-1.4769995	104.38122
377	7	8	-0.49702838	3.8806933	-1.1909818	106.6566
378	7	4	0.11871486	4.9345829	-1.107012	105.73518
379	7	4	-0.13766766	4.6832915	0.033456837	104.74591
380	7	4	-0.14009741	5.8493103	0.17234253	103.75561
381	7	4	-0.13887611	5.5769457	1.2188337	102.66419
382	7	4	-0.14364928	5.6048539	2.6581127	103.20548
383	7	4	0.037183423	5.4893138	3.68709	102.07914
384	7	8	-0.16242835	4.2428212	3.5746147	101.44995
385	7	5	0.089305099	6.306137	3.5323762	101.33958
386	7	5	0.089305099	5.5945794	4.7064656	102.51372
387	7	6	0.095389877	4.7689347	2.8164987	103.91843
388	7	6	0.095389877	6.5615448	2.8327395	103.74508
389	7	6	0.090168055	6.363953	1.113052	101.88544
390	7	6	0.090168055	4.5966732	1.011725	102.18229
391	7	6	0.089988005	6.7825156	0.43015815	104.30242
392	7	6	0.089988005	6.0124304	-0.80810708	103.25631
393	7	6	0.094234962	3.7421085	-0.16891759	104.18947
394	7	6	0.094234962	4.5595224	0.97697124	105.31933
395	7	5	0.089232516	5.8748422	-0.91436523	106.2935
396	7	5	0.089232516	5.0480753	-2.0740357	105.19258
397	4	1	0.55797273	-5.136314	0.2063832	103.9715
398	4	2	-0.67216719	-5.9235714	0.7946057	103.18364
399	4	3	-0.55944127	-5.6033987	-0.8337628	104.83838
400	4	4	0.092195314	-6.9983125	-1.2851969	104.84754
401	4	5	0.050164778	-7.6655285	-0.39354244	104.82377
402	4	4	-0.1751535	-7.2954842	-2.0691252	106.14046
403	4	6	0.10059443	-6.593433	-2.9272497	106.23531
404	4	6	0.10059443	-7.1456103	-1.4043215	107.018
405	4	4	-0.13680065	-8.7384111	-2.5900624	106.14938
406	4	6	0.098206293	-9.4430017	-1.7297176	106.1698
407	4	6	0.098206293	-8.9013257	-3.1889279	107.07253
408	4	4	0.21178284	-9.0149073	-3.4672855	104.91831
409	4	3	-0.62871164	-10.416602	-3.8801232	104.9233
410	4	9	0.60789281	-10.759363	-5.1043258	104.96903
411	4	2	-0.4652521	-11.092582	-6.2956341	105.01306
412	4	5	0.043429468	-8.3462763	-4.3601462	104.95837
413	4	4	-0.13680065	-8.7187683	-2.6896663	103.62574
414	4	6	0.098206263	-8.8669373	-3.3587078	102.75106
415	4	6	0.098206263	-9.4244311	-1.835134	103.52702
416	4	4	-0.1751535	-7.2775849	-2.1636608	103.61453
417	4	6	0.10059444	-6.5699117	-3.0222256	103.59526
418	4	6	0.10059444	-7.1209491	-1.5730469	102.68708
419	4	7	0.31410259	-4.9147416	-1.2497499	105.50598
420	5	8	-0.16242835	4.233939	4.2603724	100.73231
421	5	4	0.037183423	5.4701481	4.9185807	100.79182
422	5	4	-0.14364928	6.5663656	4.0412937	100.17973
423	5	4	-0.1388238	7.9219755	4.7634153	100.19342
424	5	4	-0.13472815	9.0738604	3.8675449	99.710124
425	5	4	-0.16557345	9.011709	3.5886791	98.199004
426	5	4	0.09055854	10.248316	2.8300767	97.714405
427	5	10	-0.67842204	10.295204	1.559404	98.301065
428	5	11	0.38738566	11.116507	1.125211	97.952451
429	5	5	0.080899719	11.168089	3.4034958	97.966822
430	5	5	0.080899719	10.192671	2.72546	96.607322
431	5	6	0.09774695	8.1095653	2.9892944	97.956021
432	5	6	0.09774695	8.9496668	4.5526511	97.646739
433	5	6	0.090168055	10.030149	4.3869266	99.939661
434	5	6	0.090168055	9.0668242	2.9097534	100.27535
435	5	6	0.090168055	7.869294	5.6810629	99.567074
436	5	6	0.090168055	8.1496157	5.0797865	101.23533
437	5	6	0.095389877	6.6406235	3.0958324	100.76097
438	5	6	0.095389877	6.2788525	3.794085	99.136478
439	5	5	0.089305099	5.3919181	5.8660695	100.21808
440	5	5	0.089305099	5.7208318	5.1734092	101.84633
441	6	1	0.55797261	-3.4058967	25.38147	-2.3125741
442	6	2	-0.67216713	-3.4227236	24.260568	-1.7379635
443	6	3	-0.55944127	-2.2709783	26.248524	-2.2084493
444	6	4	0.091819857	-1.0356163	25.858914	-1.5213443
445	6	5	0.050164778	-1.2656468	25.08296	-0.7573956
446	6	4	-0.17642729	-0.039936008	25.238277	-2.5332584
447	6	6	0.10234441	0.51687547	24.409853	-2.0412299
448	6	6	0.10234441	-0.58608075	24.79546	-3.3946536
449	6	4	-0.17487508	0.97160684	26.270087	-3.0436222
450	6	6	0.10234443	0.41476873	27.095466	-3.5397409
451	6	6	0.10234443	1.6183581	25.809459	-3.8222648
452	6	4	0.092673209	1.8311959	26.849667	-1.8914649
453	6	3	-0.50757844	3.0559573	26.060493	-1.7131882
454	6	1	0.81059003	4.1908229	26.55634	-0.99362939
455	6	2	-0.59970069	4.186223	27.712299	-0.49374431
456	6	7	0.31710165	3.1242773	25.101306	-2.1213407
457	6	5	0.053403151	2.1188518	27.882021	-2.1941068
458	6	4	-0.17487511	1.0590498	26.924811	-0.54926857
459	6	6	0.10234443	1.2353514	26.002603	0.048054579
460	6	6	0.10234443	1.4335033	27.785222	0.047375212
461	6	4	-0.17642729	-0.44873021	27.078814	-0.76876013
462	6	6	0.10234443	-0.62609361	28.016794	-1.3404105
463	6	6	0.10234443	-0.9578018	27.187526	0.21398383
464	6	7	0.31410259	-2.2769962	27.118817	-2.7868169
465	7	8	-0.49702838	5.0296423	25.956631	-0.88395278
466	7	4	0.11871486	5.4836968	26.138636	0.43037122
467	7	4	-0.13766766	4.5925254	25.370752	1.4094795
468	7	4	-0.14009741	5.1005377	25.519349	2.8514962
469	7	4	-0.13887611	4.1594229	24.873134	3.8797192
470	7	4	-0.14364928	4.183567	23.336568	3.8190137
471	7	4	0.037183423	3.3640156	22.714018	4.9510743
472	7	8	-0.16242835	2.0113291	23.048116	4.8065292
473	7	5	0.089305099	3.7431624	23.071747	5.9341067
474	7	5	0.089305099	3.4791092	21.607636	4.9093926
475	7	6	0.095389877	3.7746584	22.984133	2.8491044
476	7	6	0.095389877	5.2329422	22.978586	3.906054
477	7	6	0.090168055	4.4854869	25.197373	4.8924276
478	7	6	0.090168055	3.1230065	25.244526	3.7249127
479	7	6	0.089988005	6.1182409	25.080692	2.9420745
480	7	6	0.089988005	5.1787951	26.602354	3.0926896
481	7	6	0.094234962	3.5534547	25.759962	1.3370228
482	7	6	0.094234962	4.5900312	24.298703	1.1178292
483	7	5	0.089232516	6.524605	25.758101	0.49831438
484	7	5	0.089232516	5.4962117	27.22364	0.6854188
485	4	1	0.55797273	-4.26293	25.690859	-2.8954825
486	4	2	-0.67216719	-5.4210031	25.397748	-2.4961662
487	4	3	-0.55944127	-4.0665688	26.419436	-4.1129264
488	4	4	0.092195314	-5.1826664	26.879729	-4.9448625
489	4	5	0.050164778	-5.9280482	26.056862	-5.0347839
490	4	4	-0.1751535	-4.6830817	27.227731	-6.3604274
491	4	6	0.10059443	-3.8798796	27.995699	-6.3026294
492	4	6	0.10059443	-4.2553598	26.318627	-6.834851
493	4	4	-0.13680065	-5.8282057	27.755288	-7.2344223
494	4	6	0.098206293	-6.5791423	26.949276	-7.3877082
495	4	6	0.098206293	-5.4220768	28.039716	-8.2301844
496	4	4	0.21178284	-6.4952024	28.979659	-6.5882484
497	4	3	-0.62871164	-7.6260251	29.404766	-7.4102776
498	4	9	0.60789281	-7.6804299	30.561519	-7.9367866
499	4	2	-0.4652521	-7.7333143	31.687332	-8.4485862
500	4	5	0.043429468	-5.7406319	29.798547	-6.511317
501	4	4	-0.13680065	-6.9943769	28.637562	-5.1751259
502	4	6	0.098206263	-7.4185153	29.549757	-4.7032714
503	4	6	0.098206263	-7.8018927	27.874306	-5.2324916
504	4	4	-0.1751535	-5.8527536	28.105952	-4.2988247
505	4	6	0.10059444	-5.0989323	28.909837	-4.1444635
506	4	6	0.10059444	-6.2648594	27.830858	-3.3048376
507	4	7	0.31410259	-3.0814428	26.588977	-4.4191318
508	5	8	-0.16242835	1.5395106	22.621228	5.5684343
509	5	4	0.037183423	2.514629	21.947044	6.3165065
510	5	4	-0.14364928	3.3242866	22.944262	7.150766
511	5	4	-0.1388238	4.3689825	22.220747	8.013588
512	5	4	-0.13472815	5.2911914	23.194014	8.765437
513	5	4	-0.16557345	4.5684716	23.93232	9.9046001
514	5	4	0.09055854	5.53846	24.773545	10.735848
515	5	10	-0.67842204	6.0853146	25.795869	9.9504935
516	5	11	0.38738566	6.7043471	26.296801	10.542489
517	5	5	0.080899719	6.3480473	24.127448	11.142829
518	5	5	0.080899719	4.982438	25.220028	11.590931
519	5	6	0.09774695	3.7831998	24.599694	9.4921361
520	5	6	0.09774695	4.0798001	23.190889	10.575098
521	5	6	0.090168055	6.1310027	22.605478	9.1958739
522	5	6	0.090168055	5.7254388	23.927234	8.0507959
523	5	6	0.090168055	3.8614081	21.546213	8.7378313
524	5	6	0.090168055	5.0042247	21.589277	7.3538827
525	5	6	0.095389877	3.8339508	23.658766	6.467414
526	5	6	0.095389877	2.6244751	23.511949	7.7989603
527	5	5	0.089305099	2.0047462	21.228373	6.992204
528	5	5	0.089305099	3.1867151	21.369516	5.6423221
529	6	1	0.55797261	-3.1014659	28.583992	25.318476
530	6	2	-0.67216713	-3.3054926	27.872593	24.29908
531	6	3	-0.55944127	-1.9102398	28.433112	26.098784
532	6	4	0.091819857	-0.82195202	27.5273	25.717781
533	6	5	0.050164778	-1.2272509	26.70774	25.083204
534	6	4	-0.17642729	0.23306487	28.29067	24.87829