Title

79 atoms
78 bonds
145 angles
260 dihedrals
15 impropers

9 atom types
12 bond types
9 angle types
39 dihedral types
3 improper types
-4.103000164 95.89699984 xlo xhi
-11.25800037 88.74199963 ylo yhi
-3.47300005 96.52699995 zlo zhi
0.0 0.0 0.0 xy xz yz

Masses

1	14.00672
2	12.01078
3	1.007947
4	1.007947
5	1.007947
6	12.01078
7	15.99943
8	15.99943
9	1.007947


Pair Coeffs

1	0.16769152	3.206876
2	0.10884061	3.3795318
3	0.014090815	1.1034277
4	0.016409246	2.5832257
5	0.015779483	2.6445434
6	0.086879315	3.4806469
7	0.2102061	3.0398122
8	0.20947353	2.99716
9	1.2326e-05	0.53453923

Bond Coeffs

1 harmonic	366.34047229585	1.464762957261
2 harmonic	505.144496193	1.019481865027
3 harmonic	422.7150220147	1.421786517481
4 harmonic	264.62148576755	1.52190126495
5 harmonic	370.04670688625	1.093899492634
6 harmonic	352.0565580496	1.450098586273
7 harmonic	492.76746816345	1.381897776683
8 harmonic	582.698766451	1.225198386222
9 harmonic	329.44145381095	1.523435958334
10 harmonic	279.1350963404	1.454628925034
11 harmonic	385.7604595587	1.369745182308
12 harmonic	543.5267831885	0.9716763312559


Angle Coeffs

1 harmonic	53.20531626545	116.5475862634
2 harmonic	49.015990027215	114.8414599994
3 harmonic	94.53012429075	110.92021963
4 harmonic	63.44422595415	115.5071327674
5 harmonic	55.42182150775	117.3465570514
6 harmonic	57.8982893754	126.8062420451
7 harmonic	48.776492647595	115.6030999533
8 harmonic	65.09061609600001	110.3538806181
9 harmonic	201.41175231035	127.4691416191


Dihedral Coeffs

1 fourier 1	0.1155372516788	3	0
2 fourier 1	0.2036670163956	3	0
3 fourier 1	0.6761465733405	3	0
4 fourier 1	1.653011589151	2	0
5 fourier 1	1.713184811193	1	0
6 fourier 1	0.774151252041	3	0
7 fourier 1	1.087509576657	2	0
8 fourier 1	1.518874939494	1	0
9 fourier 1	0.09223874044423	3	0
10 fourier 1	0.3159935921949	2	180
11 fourier 1	0.3247796806857	1	180
12 fourier 1	0.1040663847541	3	0
13 fourier 1	0.182238503271	2	0
14 fourier 1	0.02972342374561	3	0
15 fourier 1	-0.1488678166443	4	180
16 fourier 1	-0.1230328948768	3	180
17 fourier 1	0.2939295466901	2	0
18 fourier 1	-0.3024127022865	1	0
19 fourier 1	3.101948770557	2	180
20 fourier 1	-0.4252153282372	1	0
21 fourier 1	1.809047390003	2	180
22 fourier 1	-0.04816277792592	1	0
23 fourier 1	-0.04561822763521	4	0
24 fourier 1	0.1536091026885	2	0
25 fourier 1	0.02664938770063	3	0
26 fourier 1	2.348375642009	2	180
27 fourier 1	1.256156174911	1	0
28 fourier 1	0.1911926717192	3	0
29 fourier 1	0.3917343745784	3	0
30 fourier 1	0.9467782973395	2	0
31 fourier 1	0.2726597146827	1	0
32 fourier 1	-0.3703352413219	2	0
33 fourier 1	0.4541676554336	1	0
34 fourier 1	0.1489710476446	2	0
35 fourier 1	0.02960027280666	3	180
36 fourier 1	0.9974165607242	2	180
37 fourier 1	2.687457892086	2	180
38 fourier 1	2.772607909663	2	180
39 fourier 1	0.09692684957115	1	0


Improper Coeffs

1 0.3333333333333333	-1	2
2 0.3666666666666667	-1	2
3 3.5	-1	2


Atoms

1	1	1	-0.63603801	-3.73	0.76800001	-0.67199999
2	1	2	0.032150999	-3.329	-0.105	0.43099999
3	1	2	-0.154937	-1.973	-0.787	0.18000001
4	1	2	-0.143584	-0.80000001	0.204	0.20299999
5	1	2	-0.143622	0.542	-0.52999997	0.092
6	1	2	-0.14498501	1.7130001	0.45899999	0.102
7	1	2	0.016359	3.0539999	-0.27200001	-0.0060000001
8	1	1	-0.48880699	4.152	0.68900001	-0.017000001
9	1	3	0.31937301	4.223	1.115	0.93599999
10	1	4	0.051217999	3.0769999	-0.861	-0.949
11	1	4	0.051217999	3.1760001	-0.97299999	0.85100001
12	1	5	0.084980004	1.692	1.0470001	1.0470001
13	1	5	0.084980004	1.613	1.163	-0.75300002
14	1	5	0.083866	0.56300002	-1.1160001	-0.85299999
15	1	5	0.083866	0.648	-1.234	0.94700003
16	1	5	0.085364997	-0.89300001	0.912	-0.64899999
17	1	5	0.085364997	-0.824	0.78399998	1.152
18	1	5	0.090706997	-1.819	-1.546	0.97799999
19	1	5	0.090706997	-1.995	-1.323	-0.79400003
20	1	4	0.092005	-3.2950001	0.479	1.376
21	1	4	0.092005	-4.1030002	-0.89200002	0.55500001
22	1	3	0.36234999	-3.1029999	1.604	-0.69499999
23	1	6	0.72728097	5.0560002	0.147	-0.17399999
24	1	7	-0.73519498	5.9450002	0.65200001	-0.83999997
25	1	2	-0.181695	5.2449999	-1.221	0.412
26	1	2	-0.118286	4.0100002	-1.66	1.2079999
27	1	2	-0.092308998	4.2090001	-3.0580001	1.8049999
28	1	2	-0.256717	2.9749999	-3.497	2.5999999
29	1	6	0.51877701	3.164	-4.8649998	3.1860001
30	1	7	-0.671682	2.2750001	-5.3699999	3.8529999
31	1	5	0.115846	2.7869999	-2.777	3.4260001
32	1	5	0.115846	2.086	-3.513	1.932
33	1	5	0.077587999	5.0949998	-3.049	2.477
34	1	5	0.077587999	4.395	-3.786	0.98400003
35	1	5	0.085686997	3.825	-0.93199998	2.029
36	1	5	0.085686997	3.1240001	-1.669	0.53500003
37	1	5	0.118924	6.1329999	-1.205	1.08
38	1	5	0.118924	5.4330001	-1.941	-0.41299999
39	1	1	-0.63603801	-3.625	0.25600001	-1.5779999
40	1	2	0.032150999	-2.984	1.1289999	-2.5599999
41	1	2	-0.154937	-1.72	1.811	-2.007
42	1	2	-0.143659	-0.574	0.81999999	-1.763
43	1	2	-0.142296	0.708	1.554	-1.349
44	1	2	-0.156423	1.851	0.565	-1.0930001
45	1	2	0.029228	3.132	1.296	-0.68199998
46	1	1	-0.97373998	4.198	0.33500001	-0.421
47	1	3	0.38267201	5.027	0.86699998	-0.068999998
48	1	3	0.38267201	4.4850001	-0.090999998	-1.3329999
49	1	4	0.080224	2.9400001	1.885	0.242
50	1	4	0.080224	3.4460001	1.997	-1.489
51	1	5	0.091590002	2.046	-0.023	-2.017
52	1	5	0.091590002	1.559	-0.139	-0.28200001
53	1	5	0.085364997	0.51300001	2.1400001	-0.42399999
54	1	5	0.085364997	1.006	2.2579999	-2.1570001
55	1	5	0.085364997	-0.85799998	0.112	-0.954
56	1	5	0.085364997	-0.38100001	0.23999999	-2.6919999
57	1	5	0.090706997	-1.3890001	2.5699999	-2.75
58	1	5	0.090706997	-1.964	2.3469999	-1.064
59	1	4	0.092005	-2.7349999	0.54500002	-3.473
60	1	4	0.092005	-3.71	1.916	-2.858
61	1	3	0.36234999	-3.0209999	-0.57999998	-1.4119999
62	1	6	0.51877701	4.0840001	-5.4169998	3.027
63	1	7	-0.671682	4.9710002	-5.3649998	3.865
64	1	2	-0.256717	4.2670002	-6.2210002	1.775
65	1	2	-0.091404997	4.3740001	-7.7160001	2.0940001
66	1	2	-0.109706	4.5310001	-8.5430002	0.80900002
67	1	2	-0.218438	4.7059999	-10.039	1.098
68	1	6	0.82609898	3.454	-10.648	1.651
69	1	7	-0.54533702	2.5020001	-10.943	0.88099998
70	1	8	-0.663113	3.332	-10.859	3.0209999
71	1	9	0.39738101	2.487	-11.258	3.4119999
72	1	5	0.120431	5.546	-10.195	1.809
73	1	5	0.120431	4.9699998	-10.561	0.152
74	1	5	0.086560003	5.4310002	-8.1879997	0.259
75	1	5	0.086560003	3.6489999	-8.3900003	0.149
76	1	5	0.077587999	5.2519999	-7.8920002	2.753
77	1	5	0.077587999	3.4560001	-8.0380001	2.6340001
78	1	5	0.115846	3.3970001	-6.0450001	1.1059999
79	1	5	0.115846	5.1859999	-5.8759999	1.253

Bonds

1	1	1	2
2	2	1	22
3	3	1	39
4	4	2	3
5	5	2	20
6	5	2	21
7	4	3	4
8	5	3	18
9	5	3	19
10	4	4	5
11	5	4	16
12	5	4	17
13	4	5	6
14	5	5	14
15	5	5	15
16	4	6	7
17	5	6	12
18	5	6	13
19	6	7	8
20	5	7	10
21	5	7	11
22	2	8	9
23	7	8	23
24	8	23	24
25	9	23	25
26	4	25	26
27	5	25	37
28	5	25	38
29	4	26	27
30	5	26	35
31	5	26	36
32	4	27	28
33	5	27	33
34	5	27	34
35	9	28	29
36	5	28	31
37	5	28	32
38	8	29	30
39	10	29	62
40	1	39	40
41	2	39	61
42	4	40	41
43	5	40	59
44	5	40	60
45	4	41	42
46	5	41	57
47	5	41	58
48	4	42	43
49	5	42	55
50	5	42	56
51	4	43	44
52	5	43	53
53	5	43	54
54	4	44	45
55	5	44	51
56	5	44	52
57	1	45	46
58	5	45	49
59	5	45	50
60	2	46	47
61	2	46	48
62	8	62	63
63	9	62	64
64	4	64	65
65	5	64	78
66	5	64	79
67	4	65	66
68	5	65	76
69	5	65	77
70	4	66	67
71	5	66	74
72	5	66	75
73	9	67	68
74	5	67	72
75	5	67	73
76	8	68	69
77	11	68	70
78	12	70	71

Angles

1	1	27	28	29
2	1	41	42	43
3	1	3	4	16
4	7	33	27	34
5	9	69	68	70
6	3	1	39	61
7	1	28	27	34
8	1	67	66	74
9	1	23	25	38
10	7	18	3	19
11	1	43	42	55
12	6	30	29	62
13	1	8	7	11
14	1	68	67	73
15	3	40	39	61
16	1	66	65	77
17	1	6	7	11
18	1	66	67	72
19	1	2	3	19
20	1	26	25	37
21	1	5	6	12
22	1	6	5	15
23	1	4	5	14
24	1	43	44	45
25	7	16	4	17
26	7	14	5	15
27	1	43	42	56
28	1	29	28	32
29	6	67	68	70
30	5	7	8	23
31	3	45	46	48
32	1	46	45	50
33	7	78	64	79
34	1	5	6	7
35	1	42	43	53
36	1	62	64	65
37	1	25	26	35
38	2	2	1	39
39	1	4	5	6
40	1	26	27	33
41	1	25	26	27
42	1	66	67	73
43	1	65	66	74
44	1	1	2	20
45	1	64	65	66
46	1	66	67	68
47	7	76	65	77
48	1	40	41	42
49	1	1	2	3
50	7	72	67	73
51	8	68	70	71
52	6	28	29	30
53	1	41	42	55
54	1	64	65	77
55	1	2	3	18
56	6	28	29	62
57	6	29	62	64
58	1	7	6	13
59	1	26	25	38
60	1	44	43	54
61	3	47	46	48
62	1	40	41	57
63	1	8	7	10
64	1	44	45	50
65	1	3	2	20
66	1	39	40	41
67	1	65	66	67
68	1	25	26	36
69	1	40	41	58
70	7	74	66	75
71	1	27	28	31
72	1	65	64	79
73	1	26	27	34
74	7	53	43	54
75	7	51	44	52
76	1	4	3	19
77	7	10	7	11
78	1	42	43	44
79	1	62	64	79
80	4	9	8	23
81	1	5	6	13
82	1	44	45	46
83	1	65	64	78
84	1	5	4	17
85	1	67	66	75
86	1	43	44	52
87	1	27	26	35
88	1	1	2	21
89	1	62	64	78
90	1	26	27	28
91	3	22	1	39
92	7	59	40	60
93	1	41	40	59
94	1	45	44	52
95	6	8	23	25
96	6	63	62	64
97	4	7	8	9
98	7	35	26	36
99	1	42	41	57
100	6	29	62	63
101	6	8	23	24
102	7	12	6	13
103	1	41	40	60
104	7	49	45	50
105	1	66	65	76
106	3	2	1	22
107	1	68	67	72
108	1	23	25	26
109	1	46	45	49
110	1	3	4	17
111	1	2	3	4
112	1	6	7	10
113	1	41	42	56
114	1	7	6	12
115	7	57	41	58
116	1	42	41	58
117	6	24	23	25
118	1	39	40	59
119	1	27	28	32
120	1	3	2	21
121	1	44	43	53
122	1	6	5	14
123	1	4	3	18
124	7	20	2	21
125	1	3	4	5
126	6	67	68	69
127	1	28	27	33
128	1	39	40	60
129	2	1	39	40
130	7	55	42	56
131	1	43	44	51
132	1	27	26	36
133	1	23	25	37
134	1	4	5	15
135	1	65	66	75
136	1	6	7	8
137	1	45	44	51
138	3	45	46	47
139	1	5	4	16
140	7	31	28	32
141	1	42	43	54
142	1	44	45	49
143	1	64	65	76
144	7	37	25	38
145	1	29	28	31

Dihedrals

1	28	76	65	64	78
2	12	28	27	26	36
3	28	31	28	27	34
4	12	2	3	4	16
5	2	47	46	45	49
6	33	63	62	64	78
6	34	63	62	64	78
6	35	63	62	64	78
7	13	9	8	7	10
7	14	9	8	7	10
8	36	28	29	62	64
9	28	56	42	41	58
10	12	44	43	42	55
11	2	20	2	1	22
12	28	51	44	43	53
13	2	3	2	1	39
14	12	3	4	5	14
15	23	8	23	25	26
15	24	8	23	25	26
16	9	2	3	4	5
16	10	2	3	4	5
16	11	2	3	4	5
17	25	66	67	68	70
18	36	28	29	62	63
19	28	10	7	6	12
20	2	59	40	39	61
21	28	34	27	26	36
22	1	8	7	6	12
23	12	26	27	28	31
24	28	57	41	40	59
25	36	30	29	62	63
26	28	74	66	65	77
27	1	29	28	27	34
28	29	22	1	39	61
28	30	22	1	39	61
28	31	22	1	39	61
29	12	65	66	67	72
30	12	25	26	27	33
31	12	44	43	42	56
32	28	36	26	25	38
33	12	5	6	7	10
34	28	13	6	5	15
35	33	24	23	25	38
35	34	24	23	25	38
35	35	24	23	25	38
36	28	19	3	2	20
37	12	40	41	42	56
38	1	62	64	65	66
39	2	44	45	46	48
40	9	3	4	5	6
40	10	3	4	5	6
40	11	3	4	5	6
41	28	57	41	40	60
42	28	76	65	64	79
43	33	30	29	28	31
43	34	30	29	28	31
43	35	30	29	28	31
44	28	12	6	5	15
45	12	5	4	3	18
46	28	19	3	2	21
47	12	45	44	43	54
48	28	16	4	3	19
49	2	48	46	45	49
50	15	6	7	8	23
50	16	6	7	8	23
50	17	6	7	8	23
50	18	6	7	8	23
51	28	18	3	2	20
52	28	14	5	4	17
53	12	64	65	66	75
54	28	54	43	42	55
55	21	9	8	23	25
55	22	9	8	23	25
56	12	6	5	4	17
57	21	7	8	23	25
57	22	7	8	23	25
58	28	14	5	4	16
59	28	52	44	43	53
60	1	5	6	7	8
61	12	45	44	43	53
62	19	7	8	23	24
62	20	7	8	23	24
63	12	42	43	44	51
64	12	65	66	67	73
65	1	65	66	67	68
66	12	43	44	45	49
67	33	69	68	67	72
67	34	69	68	67	72
67	35	69	68	67	72
68	28	58	41	40	60
69	28	75	66	65	76
70	28	72	67	66	74
71	13	11	7	8	23
71	14	11	7	8	23
72	32	27	28	29	30
73	25	31	28	29	62
74	1	1	2	3	19
75	25	29	62	64	65
76	25	27	28	29	62
77	12	4	5	6	12
78	28	15	5	4	17
79	12	26	27	28	32
80	28	32	28	27	33
81	28	77	65	64	79
82	12	25	26	27	34
83	9	42	43	44	45
83	10	42	43	44	45
83	11	42	43	44	45
84	2	21	2	1	39
85	28	53	43	42	55
86	28	77	65	64	78
87	28	16	4	3	18
88	33	30	29	28	32
88	34	30	29	28	32
88	35	30	29	28	32
89	28	56	42	41	57
90	9	40	41	42	43
90	10	40	41	42	43
90	11	40	41	42	43
91	13	9	8	7	11
91	14	9	8	7	11
92	1	68	67	66	75
93	28	73	67	66	75
94	9	25	26	27	28
94	10	25	26	27	28
94	11	25	26	27	28
95	12	41	42	43	54
96	28	49	45	44	52
97	25	8	23	25	37
98	2	3	2	1	22
99	1	46	45	44	52
100	33	69	68	67	73
100	34	69	68	67	73
100	35	69	68	67	73
101	25	70	68	67	72
102	28	75	66	65	77
103	28	11	7	6	13
104	2	60	40	39	61
105	12	7	6	5	14
106	1	8	7	6	13
107	28	58	41	40	59
108	28	18	3	2	21
109	28	12	6	5	14
110	12	4	3	2	20
111	1	23	25	26	35
112	28	53	43	42	56
113	2	1	39	40	41
114	12	6	5	4	16
115	3	2	1	39	40
115	4	2	1	39	40
115	5	2	1	39	40
116	28	17	4	3	19
117	1	23	25	26	27
118	26	9	8	23	24
118	27	9	8	23	24
119	12	5	6	7	11
120	12	4	3	2	21
121	12	27	26	25	37
122	12	41	42	43	53
123	2	47	46	45	50
124	1	1	2	3	18
125	28	32	28	27	34
126	12	66	65	64	79
127	1	26	27	28	29
128	1	39	40	41	57
129	28	54	43	42	56
130	25	29	62	64	79
131	28	50	45	44	52
132	2	20	2	1	39
133	28	55	42	41	57
134	25	70	68	67	73
135	28	15	5	4	16
136	12	66	65	64	78
137	13	6	7	8	9
137	14	6	7	8	9
138	28	33	27	26	35
139	32	66	67	68	69
140	1	39	40	41	58
141	25	29	62	64	78
142	28	35	26	25	37
143	28	51	44	43	54
144	12	67	66	65	76
145	32	63	62	64	65
146	28	49	45	44	51
147	1	43	44	45	46
148	25	8	23	25	38
149	12	64	65	66	74
150	28	55	42	41	58
151	9	4	5	6	7
151	10	4	5	6	7
151	11	4	5	6	7
152	1	46	45	44	51
153	12	2	3	4	17
154	12	3	4	5	15
155	37	67	68	70	71
156	28	10	7	6	13
157	28	13	6	5	14
158	2	48	46	45	50
159	38	69	68	70	71
159	39	69	68	70	71
160	12	4	5	6	13
161	1	23	25	26	36
162	6	2	1	39	61
162	7	2	1	39	61
162	8	2	1	39	61
163	28	17	4	3	18
164	1	39	40	41	42
165	12	28	27	26	35
166	28	31	28	27	33
167	1	62	64	65	76
168	32	24	23	25	26
169	12	27	26	25	38
170	13	10	7	8	23
170	14	10	7	8	23
171	12	40	41	42	55
172	12	43	42	41	57
173	12	42	43	44	52
174	2	44	45	46	47
175	2	1	39	40	59
176	36	30	29	62	64
177	12	42	41	40	59
178	28	11	7	6	12
179	2	21	2	1	22
180	9	41	42	43	44
180	10	41	42	43	44
180	11	41	42	43	44
181	12	43	44	45	50
182	28	50	45	44	51
183	12	67	66	65	77
184	28	72	67	66	75
185	28	34	27	26	35
186	12	43	42	41	58
187	2	41	40	39	61
188	9	64	65	66	67
188	10	64	65	66	67
188	11	64	65	66	67
189	2	1	39	40	60
190	1	29	28	27	33
191	12	42	41	40	60
192	28	33	27	26	36
193	28	52	44	43	54
194	12	7	6	5	15
195	25	32	28	29	62
196	28	35	26	25	38
197	6	22	1	39	40
197	7	22	1	39	40
197	8	22	1	39	40
198	1	1	2	3	4
199	28	36	26	25	37
200	1	68	67	66	74
201	28	73	67	66	74
202	33	24	23	25	37
202	34	24	23	25	37
202	35	24	23	25	37
203	1	62	64	65	77
204	28	74	66	65	76
205	33	63	62	64	79
205	34	63	62	64	79
205	35	63	62	64	79
206	12	5	4	3	19

Impropers

52	2	29	30	62	28
97	2	23	24	25	8
139	2	62	63	64	29
187	3	68	67	69	70
225	3	68	70	67	69
246	2	29	62	28	30
282	2	23	8	24	25
301	1	8	7	9	23
314	2	29	28	30	62
320	2	62	64	29	63
373	3	68	69	70	67
407	2	23	25	8	24
449	2	62	29	63	64
450	1	8	9	23	7
483	1	8	23	7	9
