Title

111 atoms
118 bonds
205 angles
333 dihedrals
132 impropers

9 atom types
13 bond types
9 angle types
19 dihedral types
3 improper types
-11.09399986 88.90600014 xlo xhi
-17.88100052 82.11899948 ylo yhi
-6.715000153 93.28499985 zlo zhi
0.0 0.0 0.0 xy xz yz

Masses

1	14.00672
2	12.01078
3	1.007947
4	1.007947
5	15.99943
6	12.01078
7	1.007947
8	15.99943
9	1.007947


Pair Coeffs

1	0.16769152	3.206876
2	0.086879315	3.4806469
3	0.015611343	2.5725815
4	0.014090815	1.1034277
5	0.2102061	3.0398122
6	0.10884061	3.3795318
7	0.015779483	2.6445434
8	0.20947353	2.99716
9	1.2326e-05	0.53453923

Bond Coeffs

1 harmonic	390.03554688505	1.390160554689
2 harmonic	505.144496193	1.019481865027
3 harmonic	422.7150220147	1.421786517481
4 harmonic	360.7852444772	1.387193227181
5 harmonic	397.2545789619	1.085358495916
6 harmonic	492.76746816345	1.381897776683
7 harmonic	582.698766451	1.225198386222
8 harmonic	279.1350963404	1.454628925034
9 harmonic	289.73813263395	1.498646816465
10 harmonic	264.62148576755	1.52190126495
11 harmonic	370.04670688625	1.093899492634
12 harmonic	385.7604595587	1.369745182308
13 harmonic	543.5267831885	0.9716763312559


Angle Coeffs

1 harmonic	57.8982893754	126.8062420451
2 harmonic	55.42182150775	117.3465570514
3 harmonic	63.44422595415	115.5071327674
4 harmonic	34.066775159195	129.1835929926
5 harmonic	53.20531626545	116.5475862634
6 harmonic	14.32262199324	138.3184368373
7 harmonic	48.776492647595	115.6030999533
8 harmonic	65.09061609600001	110.3538806181
9 harmonic	201.41175231035	127.4691416191


Dihedral Coeffs

1 fourier 1	3.661930099076	2	180
2 fourier 1	1.193093382682	2	180
3 fourier 1	0.02021088501612	1	0
4 fourier 1	3.101948770557	2	180
5 fourier 1	-0.4252153282372	1	0
6 fourier 1	1.809047390003	2	180
7 fourier 1	-0.04816277792592	1	0
8 fourier 1	0.9974165607242	2	180
9 fourier 1	2.348375642009	2	180
10 fourier 1	1.256156174911	1	0
11 fourier 1	0.02664938770063	3	0
12 fourier 1	0.1155372516788	3	0
13 fourier 1	0.09223874044423	3	0
14 fourier 1	0.3159935921949	2	180
15 fourier 1	0.3247796806857	1	180
16 fourier 1	0.1040663847541	3	0
17 fourier 1	2.687457892086	2	180
18 fourier 1	2.772607909663	2	180
19 fourier 1	0.09692684957115	1	0


Improper Coeffs

1 0.3666666666666667	-1	2
2 0.3333333333333333	-1	2
3 3.5	-1	2


Atoms

1	1	1	-0.42834201	-2.2550001	-1.0930001	-0.87300003
2	1	2	0.149964	-1.151	-0.303	-0.42399999
3	1	2	-0.45082301	-1.256	1.034	-0.34900001
4	1	3	0.224711	-2.178	1.531	-0.62699997
5	1	2	-0.058299001	-0.112	1.844	0.115
6	1	3	0.228048	-0.204	2.921	0.17299999
7	1	2	-0.434865	1.035	1.249	0.463
8	1	3	0.222634	1.8710001	1.849	0.80299997
9	1	2	0.239418	1.163	-0.22499999	0.38499999
10	1	1	-0.54991901	2.391	-0.85500002	0.75800002
11	1	4	0.319507	3.201	-0.28299999	1.086
12	1	2	-0.49162	0.121	-0.95999998	-0.037999999
13	1	3	0.22634	0.20299999	-2.0380001	-0.1
14	1	4	0.37281901	-3.1589999	-0.64899999	-1.149
15	1	2	0.76820397	2.5039999	-1.911	0.70899999
16	1	5	-0.65826797	3.2720001	-2.4809999	1.529
17	1	2	-0.37097201	1.771	-2.6900001	-0.30500001
18	1	2	-0.079588003	0.958	-2.0680001	-1.173
19	1	3	0.224075	0.83399999	-0.99199998	-1.141
20	1	2	-0.249796	0.219	-2.839	-2.194
21	1	3	0.214086	-0.40200001	-2.279	-2.878
22	1	2	-0.21054401	0.322	-4.1849999	-2.2579999
23	1	6	0.024672	-0.396	-5.027	-3.326
24	1	6	-0.131678	-1.5700001	-4.296	-4.0209999
25	1	7	0.087333001	-1.201	-3.457	-4.6479998
26	1	7	0.087333001	-2.1229999	-4.9889998	-4.691
27	1	7	0.087333001	-2.2850001	-3.898	-3.2690001
28	1	2	-0.12582301	-0.93099999	-6.289	-2.723
29	1	2	-0.15322199	-1.789	-6.3959999	-1.698
30	1	3	0.21343701	-2.1659999	-5.5149999	-1.194
31	1	2	-0.001224	-2.2160001	-7.7459998	-1.26
32	1	3	0.21426401	-2.904	-7.8309999	-0.42699999
33	1	2	-0.34613499	-1.757	-8.8459997	-1.892
34	1	2	0.58573502	-2.1889999	-10.184	-1.452
35	1	5	-0.51617599	-1.77	-11.221	-2.0309999
36	1	2	0.069844	-0.81300002	-8.6929998	-3.036
37	1	3	0.208038	-0.44299999	-9.5620003	-3.5650001
38	1	2	-0.181675	-0.43000001	-7.461	-3.404
39	1	6	-0.027432	0.48500001	-7.0890002	-4.526
40	1	6	-0.131271	-0.153	-7.467	-5.8759999
41	1	7	0.091573998	-0.29100001	-8.5670004	-5.9510002
42	1	7	0.091573998	-1.145	-6.9809999	-5.9899998
43	1	7	0.091573998	0.498	-7.1399999	-6.7150002
44	1	6	-0.131271	1.853	-7.7820001	-4.3699999
45	1	7	0.091573998	1.753	-8.8839998	-4.4689999
46	1	7	0.091573998	2.2920001	-7.559	-3.3729999
47	1	7	0.091573998	2.556	-7.4250002	-5.1529999
48	1	6	-0.181364	0.62599999	-5.5380001	-4.3940001
49	1	7	0.12977099	0.47799999	-5.033	-5.3740001
50	1	7	0.12977099	1.664	-5.2709999	-4.092
51	1	2	-0.249796	1.249	-4.8610001	-1.3049999
52	1	3	0.214086	1.391	-5.9330001	-1.353
53	1	2	-0.079588003	1.924	-4.1609998	-0.38600001
54	1	3	0.224075	2.589	-4.6799998	0.29300001
55	1	1	-0.42834201	-2.1719999	-2.132	-0.93099999
56	1	2	0.186988	-2.1199999	-2.9230001	0.259
57	1	2	-0.45082301	-2.0139999	-4.2600002	0.185
58	1	3	0.224711	-1.967	-4.756	-0.77600002
59	1	2	-0.0051600002	-1.961	-5.0700002	1.419
60	1	3	0.228048	-1.875	-6.1469998	1.352
61	1	2	-0.481484	-2.0179999	-4.4749999	2.6170001
62	1	3	0.22849	-1.978	-5.0739999	3.517
63	1	2	0.339349	-2.135	-3.0009999	2.711
64	1	1	-0.85483998	-2.1949999	-2.3710001	3.993
65	1	4	0.36641201	-2.2780001	-1.3329999	4.0809999
66	1	4	0.36641201	-2.158	-2.9430001	4.8660002
67	1	2	-0.52606499	-2.1830001	-2.266	1.587
68	1	3	0.236981	-2.2690001	-1.188	1.6440001
69	1	4	0.37281901	-2.1289999	-2.576	-1.876
70	1	2	0.59123898	-2.8759999	-10.289	-0.62199998
71	1	5	-0.52658802	-2.7639999	-9.5120001	0.36399999
72	1	2	-0.334645	-3.918	-11.331	-0.662
73	1	2	0.0040440001	-4.7909999	-11.493	0.34599999
74	1	3	0.22187901	-4.756	-10.858	1.223
75	1	2	-0.24320801	-5.8239999	-12.546	0.27700001
76	1	3	0.214086	-6.52	-12.631	1.102
77	1	2	-0.21054401	-5.9060001	-13.378	-0.78500003
78	1	6	0.024672	-7.0110002	-14.447	-0.83899999
79	1	6	-0.131678	-6.8179998	-15.472	-1.98
80	1	7	0.087333001	-5.816	-15.949	-1.915
81	1	7	0.087333001	-6.9239998	-14.984	-2.9719999
82	1	7	0.087333001	-7.585	-16.275	-1.92
83	1	2	-0.12582301	-7.086	-15.2	0.454
84	1	2	-0.172515	-6.0999999	-15.883	1.051
85	1	3	0.21343701	-5.1110001	-15.928	0.61400002
86	1	2	-0.062043998	-6.3829999	-16.580999	2.3269999
87	1	3	0.23067699	-5.579	-17.125999	2.806
88	1	2	-0.227883	-7.619	-16.537001	2.875
89	1	2	0.835208	-7.9180002	-17.231001	4.1459999
90	1	5	-0.48083201	-7.0219998	-17.881001	4.7490001
91	1	8	-0.664599	-9.1990004	-17.17	4.6880002
92	1	9	0.417766	-9.4180002	-17.641001	5.5580001
93	1	2	0.0046379999	-8.6949997	-15.776	2.178
94	1	3	0.223364	-9.6949997	-15.736	2.5880001
95	1	2	-0.175843	-8.4099998	-15.141	1.03
96	1	6	-0.027432	-9.3430004	-14.345	0.17399999
97	1	6	-0.131271	-9.9849997	-13.201	0.98299998
98	1	7	0.091573998	-10.642	-13.602	1.784
99	1	7	0.091573998	-9.2019997	-12.569	1.456
100	1	7	0.091573998	-10.601	-12.559	0.317
101	1	6	-0.131271	-10.433	-15.261	-0.412
102	1	7	0.091573998	-9.9759998	-16.096001	-0.986
103	1	7	0.091573998	-11.061	-15.694	0.396
104	1	7	0.091573998	-11.094	-14.685	-1.096
105	1	6	-0.181364	-8.4230003	-13.781	-0.95700002
106	1	7	0.12977099	-8.8699999	-13.95	-1.9630001
107	1	7	0.12977099	-8.3380003	-12.675	-0.87
108	1	2	-0.24320801	-4.941	-13.176	-1.906
109	1	3	0.214086	-4.9699998	-13.794	-2.7920001
110	1	2	0.0040440001	-4.0079999	-12.218	-1.842
111	1	3	0.22187901	-3.3169999	-12.091	-2.6670001

Bonds

1	1	1	2
2	2	1	14
3	3	1	55
4	4	2	3
5	4	2	12
6	5	3	4
7	4	3	5
8	5	5	6
9	4	5	7
10	5	7	8
11	4	7	9
12	1	9	10
13	4	9	12
14	2	10	11
15	6	10	15
16	5	12	13
17	7	15	16
18	8	15	17
19	4	17	18
20	4	17	53
21	5	18	19
22	4	18	20
23	5	20	21
24	4	20	22
25	9	22	23
26	4	22	51
27	10	23	24
28	9	23	28
29	10	23	48
30	11	24	25
31	11	24	26
32	11	24	27
33	4	28	29
34	4	28	38
35	5	29	30
36	4	29	31
37	5	31	32
38	4	31	33
39	8	33	34
40	4	33	36
41	7	34	35
42	8	34	70
43	5	36	37
44	4	36	38
45	9	38	39
46	10	39	40
47	10	39	44
48	10	39	48
49	11	40	41
50	11	40	42
51	11	40	43
52	11	44	45
53	11	44	46
54	11	44	47
55	11	48	49
56	11	48	50
57	5	51	52
58	4	51	53
59	5	53	54
60	1	55	56
61	2	55	69
62	4	56	57
63	4	56	67
64	5	57	58
65	4	57	59
66	5	59	60
67	4	59	61
68	5	61	62
69	4	61	63
70	1	63	64
71	4	63	67
72	2	64	65
73	2	64	66
74	5	67	68
75	7	70	71
76	8	70	72
77	4	72	73
78	4	72	110
79	5	73	74
80	4	73	75
81	5	75	76
82	4	75	77
83	9	77	78
84	4	77	108
85	10	78	79
86	9	78	83
87	10	78	105
88	11	79	80
89	11	79	81
90	11	79	82
91	4	83	84
92	4	83	95
93	5	84	85
94	4	84	86
95	5	86	87
96	4	86	88
97	8	88	89
98	4	88	93
99	7	89	90
100	12	89	91
101	13	91	92
102	5	93	94
103	4	93	95
104	9	95	96
105	10	96	97
106	10	96	101
107	10	96	105
108	11	97	98
109	11	97	99
110	11	97	100
111	11	101	102
112	11	101	103
113	11	101	104
114	11	105	106
115	11	105	107
116	5	108	109
117	4	108	110
118	5	110	111

Angles

1	5	22	23	28
2	5	38	39	44
3	4	84	86	87
4	1	83	84	86
5	5	40	39	48
6	4	72	73	74
7	4	58	57	59
8	1	34	70	72
9	1	83	95	93
10	1	70	72	110
11	5	38	39	40
12	4	8	7	9
13	5	78	105	106
14	4	3	5	6
15	5	23	48	50
16	7	41	40	43
17	5	40	39	44
18	1	35	34	70
19	5	96	105	107
20	5	95	96	105
21	5	39	44	46
22	5	79	78	105
23	5	78	79	81
24	1	16	15	17
25	4	62	61	63
26	4	57	59	60
27	1	72	73	75
28	4	56	67	68
29	1	1	2	3
30	4	2	3	4
31	3	2	1	14
32	7	46	44	47
33	5	95	96	101
34	1	15	17	53
35	7	102	101	103
36	5	78	105	107
37	1	3	5	7
38	5	97	96	105
39	5	96	97	99
40	3	65	64	66
41	1	33	34	70
42	4	18	20	21
43	5	78	79	82
44	1	23	22	51
45	5	95	96	97
46	1	29	28	38
47	7	26	24	27
48	1	57	59	61
49	5	97	96	101
50	4	37	36	38
51	4	85	84	86
52	4	29	31	32
53	1	10	15	16
54	4	109	108	110
55	1	71	70	72
56	1	15	17	18
57	4	9	12	13
58	5	83	78	105
59	5	23	24	27
60	5	96	97	100
61	4	72	110	111
62	4	77	108	109
63	1	78	83	95
64	1	5	7	9
65	4	87	86	88
66	7	81	79	82
67	3	63	64	65
68	1	88	93	95
69	7	106	105	107
70	1	88	89	90
71	4	63	67	68
72	1	34	33	36
73	1	86	88	93
74	2	1	55	56
75	5	23	48	39
76	1	29	31	33
77	1	10	15	17
78	4	74	73	75
79	1	78	77	108
80	1	75	77	78
81	1	84	86	88
82	3	11	10	15
83	5	39	40	41
84	6	23	28	29
85	1	1	2	12
86	4	94	93	95
87	4	17	18	19
88	7	42	40	43
89	1	86	88	89
90	8	89	91	92
91	4	59	61	62
92	4	108	110	111
93	7	98	97	99
94	3	63	64	66
95	6	93	95	96
96	5	96	101	102
97	4	76	75	77
98	1	31	33	34
99	1	55	56	67
100	5	78	105	96
101	1	72	110	108
102	5	39	44	47
103	5	39	40	42
104	1	17	18	20
105	5	96	105	106
106	1	2	3	5
107	1	59	61	63
108	1	70	72	73
109	4	17	53	54
110	4	73	75	76
111	1	7	9	12
112	4	22	51	52
113	7	98	97	100
114	7	25	24	26
115	7	102	101	104
116	3	1	55	69
117	1	20	22	23
118	5	23	24	25
119	5	77	78	83
120	4	32	31	33
121	5	28	23	48
122	5	39	48	49
123	5	101	96	105
124	4	6	5	7
125	1	33	34	35
126	1	18	20	22
127	6	78	83	84
128	7	103	101	104
129	4	30	29	31
130	5	77	78	79
131	7	49	48	50
132	1	83	95	96
133	1	73	75	77
134	7	80	79	81
135	3	14	1	55
136	1	23	28	38
137	4	56	57	58
138	2	9	10	15
139	1	18	17	53
140	4	83	84	85
141	3	56	55	69
142	1	20	22	51
143	4	4	3	5
144	1	64	63	67
145	4	2	12	13
146	1	77	108	110
147	5	79	78	83
148	1	34	70	71
149	1	17	53	51
150	1	28	38	39
151	3	9	10	11
152	1	88	89	91
153	5	23	48	49
154	4	51	53	54
155	7	41	40	42
156	1	84	83	95
157	4	60	59	61
158	6	36	38	39
159	2	2	1	55
160	1	61	63	67
161	7	45	44	46
162	7	80	79	82
163	4	19	18	20
164	1	56	57	59
165	1	10	9	12
166	5	78	79	80
167	4	33	36	37
168	5	22	23	24
169	4	21	20	22
170	5	96	101	103
171	4	52	51	53
172	5	96	97	98
173	7	45	44	47
174	1	55	56	57
175	1	89	88	93
176	7	99	97	100
177	1	33	36	38
178	1	7	9	10
179	5	39	40	43
180	1	28	38	36
181	5	44	39	48
182	5	24	23	48
183	1	3	2	12
184	1	61	63	64
185	4	28	29	30
186	1	2	12	9
187	1	22	51	53
188	7	25	24	27
189	5	24	23	28
190	5	96	101	104
191	5	23	24	26
192	1	31	33	36
193	9	90	89	91
194	5	39	48	50
195	4	5	7	8
196	5	38	39	48
197	4	88	93	94
198	1	56	67	63
199	1	75	77	108
200	1	57	56	67
201	5	22	23	48
202	1	73	72	110
203	1	28	29	31
204	5	77	78	105
205	5	39	44	45

Dihedrals

1	11	22	23	28	29
2	1	1	2	12	9
3	1	29	31	33	36
4	1	31	29	28	38
5	1	6	5	7	9
6	16	99	97	96	101
7	1	83	95	93	94
8	11	83	95	96	101
9	13	23	48	39	40
9	14	23	48	39	40
9	15	23	48	39	40
10	1	1	2	3	5
11	2	7	9	10	11
12	2	61	63	64	66
13	1	21	20	22	23
14	6	9	10	15	17
14	7	9	10	15	17
15	11	36	38	39	44
16	12	38	39	40	42
17	1	8	7	9	10
18	8	33	34	70	72
19	12	28	23	48	49
20	1	72	73	75	76
21	1	2	12	9	10
22	1	32	31	33	34
23	12	22	23	24	25
24	2	57	56	55	69
25	16	43	40	39	48
26	1	84	86	88	93
27	11	93	95	96	101
28	1	88	93	95	96
29	11	28	23	22	51
30	6	11	10	15	17
30	7	11	10	15	17
31	1	59	61	63	67
32	16	26	24	23	48
33	1	2	3	5	7
34	16	25	24	23	48
35	1	70	72	110	111
36	1	28	29	31	33
37	12	26	24	23	28
38	12	25	24	23	28
39	13	23	48	39	44
39	14	23	48	39	44
39	15	23	48	39	44
40	1	37	36	38	39
41	16	79	78	105	106
42	8	36	33	34	70
43	1	56	67	63	64
44	1	20	22	51	53
45	16	100	97	96	105
46	16	101	96	105	107
47	1	5	7	9	10
48	11	20	22	23	28
49	1	4	3	5	7
50	1	86	88	93	95
51	1	17	18	20	22
52	1	18	20	22	51
53	1	17	53	51	52
54	1	58	57	56	67
55	12	81	79	78	83
56	12	95	96	105	106
57	1	55	56	57	58
58	1	58	57	59	61
59	16	24	23	48	50
60	1	23	22	51	52
61	1	34	33	36	38
62	1	8	7	9	12
63	1	56	57	59	60
64	8	34	70	72	73
65	2	12	9	10	15
66	1	3	2	12	13
67	2	11	10	9	12
68	11	24	23	28	38
69	1	19	18	20	21
70	16	40	39	44	46
71	1	23	28	29	30
72	1	78	83	84	85
73	1	6	5	7	8
74	1	30	29	31	33
75	3	14	1	55	69
76	1	3	5	7	9
77	1	1	2	3	4
78	2	61	63	64	65
79	1	28	38	36	33
80	12	38	39	44	46
81	4	9	10	15	16
81	5	9	10	15	16
82	12	38	39	40	41
83	1	72	110	108	109
84	8	35	34	70	72
85	12	95	96	97	98
86	12	28	23	48	39
87	1	5	7	9	12
88	1	73	72	110	108
89	11	79	78	83	84
90	1	85	84	83	95
91	1	28	29	31	32
92	12	83	78	105	96
93	11	24	23	22	51
94	11	77	78	83	95
95	8	10	15	17	18
96	12	77	78	79	81
97	8	90	89	88	93
98	1	20	22	51	52
99	1	15	17	18	19
100	1	70	72	73	74
101	1	18	20	22	23
102	12	77	78	105	107
103	11	84	83	78	105
104	8	34	70	72	110
105	1	58	57	59	60
106	11	83	95	96	97
107	16	24	23	48	49
108	12	22	23	48	50
109	11	36	38	39	40
110	12	82	79	78	83
111	11	20	22	23	24
112	16	27	24	23	48
113	12	27	24	23	28
114	16	40	39	48	50
115	16	43	40	39	44
116	1	84	86	88	89
117	11	93	95	96	97
118	11	22	23	28	38
119	16	40	39	44	45
120	2	1	55	56	67
121	12	95	96	101	104
122	12	78	105	96	95
123	2	12	2	1	55
124	12	38	39	48	50
125	12	38	39	44	45
126	1	15	17	53	54
127	16	100	97	96	101
128	8	16	15	17	18
129	12	83	78	105	106
130	1	85	84	86	88
131	1	78	77	108	109
132	1	75	77	108	110
133	12	77	78	79	80
134	1	89	88	93	94
135	16	42	40	39	48
136	16	97	96	105	106
137	11	20	22	23	48
138	1	32	31	33	36
139	1	73	72	110	111
140	8	91	89	88	93
141	8	86	88	89	90
142	11	48	23	22	51
143	12	77	78	105	106
144	11	75	77	78	83
145	13	78	105	96	101
145	14	78	105	96	101
145	15	78	105	96	101
146	13	24	23	48	39
146	14	24	23	48	39
146	15	24	23	48	39
147	2	12	2	1	14
148	1	59	57	56	67
149	1	15	17	53	51
150	1	74	73	75	77
151	1	3	2	12	9
152	1	84	83	95	93
153	16	104	101	96	105
154	1	23	28	38	36
155	1	60	59	61	63
156	1	87	86	88	93
157	16	44	39	48	49
158	16	40	39	48	49
159	11	29	28	23	48
160	16	41	40	39	48
161	12	22	23	24	27
162	16	81	79	78	105
163	1	20	18	17	53
164	2	1	55	56	57
165	16	47	44	39	48
166	12	38	39	48	49
167	1	52	51	53	54
168	1	61	63	67	68
169	16	98	97	96	105
170	8	33	34	70	71
171	18	90	89	91	92
171	19	90	89	91	92
172	1	57	56	67	68
173	1	76	75	77	108
174	1	55	56	67	68
175	2	3	2	1	55
176	9	11	10	15	16
176	10	11	10	15	16
177	1	2	3	5	6
178	1	109	108	110	111
179	11	95	83	78	105
180	1	85	84	86	87
181	16	80	79	78	105
182	11	77	78	83	84
183	11	38	28	23	48
184	1	75	77	108	109
185	12	38	39	40	43
186	16	101	96	105	106
187	12	95	96	97	100
188	1	4	3	5	6
189	1	86	88	93	94
190	1	17	18	20	21
191	1	78	83	95	93
192	1	4	3	2	12
193	1	22	51	53	54
194	12	77	78	105	96
195	8	71	70	72	110
196	16	79	78	105	107
197	12	22	23	48	39
198	1	33	36	38	39
199	1	34	33	36	37
200	1	7	9	12	13
201	1	74	73	75	76
202	16	97	96	101	104
203	1	62	61	63	64
204	1	60	59	61	62
205	1	72	110	108	77
206	2	3	2	1	14
207	1	29	31	33	34
208	1	30	29	31	32
209	1	57	59	61	63
210	8	31	33	34	70
211	1	3	5	7	8
212	11	79	78	77	108
213	12	23	48	39	38
214	16	82	79	78	105
215	1	77	108	110	111
216	16	42	40	39	44
217	1	84	83	95	96
218	2	65	64	63	67
219	8	35	34	70	71
220	1	23	28	38	39
221	1	19	18	20	22
222	16	40	39	44	47
223	1	76	75	77	78
224	1	30	29	28	38
225	1	19	18	17	53
226	1	94	93	95	96
227	1	1	2	12	13
228	11	75	77	78	79
229	13	78	105	96	97
229	14	78	105	96	97
229	15	78	105	96	97
230	8	10	15	17	53
231	11	28	38	39	48
232	12	38	39	44	47
233	2	67	56	55	69
234	12	95	96	97	99
235	1	87	86	88	89
236	16	41	40	39	44
237	1	83	84	86	88
238	1	29	28	38	36
239	1	73	75	77	78
240	16	99	97	96	105
241	11	83	95	96	105
242	2	7	9	10	15
243	12	22	23	48	49
244	12	77	78	79	82
245	11	36	38	39	48
246	1	15	17	18	20
247	1	70	72	73	75
248	16	98	97	96	101
249	8	71	70	72	73
250	16	97	96	101	103
251	16	103	101	96	105
252	8	35	34	33	36
253	11	93	95	96	105
254	1	78	83	95	96
255	1	75	73	72	110
256	11	75	77	78	105
257	1	57	59	61	62
258	12	95	96	101	103
259	1	31	33	36	38
260	3	14	1	55	56
261	1	62	61	63	67
262	11	24	23	28	29
263	1	59	61	63	64
264	16	46	44	39	48
265	16	45	44	39	48
266	8	16	15	17	53
267	1	64	63	67	68
268	1	70	72	110	108
269	1	74	73	72	110
270	1	21	20	22	51
271	1	18	17	53	54
272	1	56	67	63	61
273	12	80	79	78	83
274	12	28	23	48	50
275	1	72	73	75	77
276	1	10	9	12	13
277	16	102	101	96	105
278	12	22	23	24	26
279	11	79	78	83	95
280	1	73	75	77	108
281	1	83	84	86	87
282	1	86	84	83	95
283	1	17	53	51	22
284	1	5	3	2	12
285	12	83	78	105	107
286	1	78	77	108	110
287	1	83	95	93	88
288	1	28	38	36	37
289	1	2	12	9	7
290	1	89	88	93	95
291	8	31	33	34	35
292	11	28	38	39	40
293	13	79	78	105	96
293	14	79	78	105	96
293	15	79	78	105	96
294	16	97	96	105	107
295	17	88	89	91	92
296	16	97	96	101	102
297	3	2	1	55	56
298	1	57	56	67	63
299	8	86	88	89	91
300	1	29	28	38	39
301	1	55	56	67	63
302	11	83	78	77	108
303	12	95	96	105	107
304	1	55	56	57	59
305	12	95	96	101	102
306	1	31	33	36	37
307	11	105	78	77	108
308	1	23	22	51	53
309	11	28	38	39	44
310	1	18	17	53	51
311	1	56	57	59	61
312	2	66	64	63	67
313	3	2	1	55	69
314	16	44	39	48	50
315	1	23	28	29	31
316	1	78	83	84	86

Impropers

4	1	84	83	85	86
6	1	77	75	78	108
25	1	83	84	95	78
27	2	64	65	66	63
28	1	61	62	63	59
31	1	59	60	61	57
36	1	84	86	83	85
37	1	75	76	77	73
40	2	1	55	2	14
41	1	5	7	3	6
44	1	15	10	16	17
48	1	28	38	23	29
53	1	110	111	72	108
76	1	57	59	56	58
84	1	12	9	13	2
85	1	86	87	88	84
88	1	93	88	94	95
96	1	70	34	71	72
100	1	36	38	33	37
103	1	33	34	36	31
104	1	86	88	84	87
105	1	17	15	18	53
106	1	56	67	55	57
108	1	73	72	74	75
112	3	89	91	88	90
118	1	29	31	28	30
131	2	10	9	11	15
133	1	22	51	20	23
144	1	15	17	10	16
151	2	55	69	1	56
157	1	3	2	4	5
159	1	38	28	36	39
167	1	22	20	23	51
169	1	57	56	58	59
177	1	83	78	84	95
179	1	88	86	89	93
180	1	70	71	72	34
189	1	75	77	73	76
197	1	34	70	33	35
205	1	61	63	59	62
212	1	20	18	21	22
214	1	110	108	111	72
216	2	10	15	9	11
217	1	95	96	83	93
222	1	95	83	93	96
223	1	29	28	30	31
230	1	17	53	15	18
231	1	31	33	29	32
241	1	108	110	77	109
243	1	18	19	20	17
245	1	86	84	87	88
246	1	95	93	96	83
247	1	18	17	19	20
252	1	38	39	28	36
254	1	56	55	57	67
255	1	3	5	2	4
259	2	55	56	69	1
266	1	53	54	17	51
270	1	77	78	108	75
271	1	31	32	33	29
276	1	56	57	67	55
284	1	3	4	5	2
285	1	53	17	51	54
289	1	59	61	57	60
290	1	31	29	32	33
293	1	5	3	6	7
296	1	72	110	70	73
298	1	2	3	12	1
300	1	73	75	72	74
303	1	7	8	9	5
314	1	67	63	68	56
318	1	72	70	73	110
323	1	72	73	110	70
324	1	57	58	59	56
327	1	5	6	7	3
328	1	9	7	10	12
329	1	75	73	76	77
330	1	63	61	64	67
331	1	22	23	51	20
333	1	20	22	18	21
334	1	110	72	108	111
337	1	12	13	2	9
342	2	64	63	65	66
347	1	88	93	86	89
349	1	29	30	31	28
354	1	88	89	93	86
356	1	108	109	110	77
357	2	64	66	63	65
359	1	61	59	62	63
361	1	28	29	38	23
362	2	10	11	15	9
375	1	9	12	7	10
379	1	36	37	38	33
380	1	17	18	53	15
394	1	51	22	52	53
396	2	55	1	56	69
397	1	53	51	54	17
400	2	1	2	14	55
401	1	83	95	78	84
408	1	34	35	70	33
418	1	33	31	34	36
420	1	20	21	22	18
422	1	2	12	1	3
425	1	108	77	109	110
430	1	36	33	37	38
432	1	38	36	39	28
434	3	89	90	91	88
435	1	33	36	31	34
447	1	84	85	86	83
449	1	7	9	5	8
451	1	67	56	63	68
454	1	9	10	12	7
460	1	67	68	56	63
470	1	70	72	34	71
471	1	18	20	17	19
473	1	15	16	17	10
477	1	77	108	75	78
482	1	93	95	88	94
484	2	1	14	55	2
490	1	73	74	75	72
505	1	63	64	67	61
507	1	93	94	95	88
513	1	63	67	61	64
514	1	34	33	35	70
515	1	51	52	53	22
517	1	51	53	22	52
524	1	28	23	29	38
538	1	59	57	60	61
539	1	2	1	3	12
542	3	89	88	90	91
546	1	12	2	9	13
547	1	7	5	8	9
