Title

225 atoms
244 bonds
401 angles
623 dihedrals
360 impropers

10 atom types
14 bond types
9 angle types
19 dihedral types
3 improper types
-11.92599964 88.07400036 xlo xhi
-7.484000206 92.51599979 ylo yhi
-4.276000023 95.72399998 zlo zhi
0.0 0.0 0.0 xy xz yz

Masses

1	14.00672
2	12.01078
3	1.007947
4	15.99943
5	12.01078
6	1.007947
7	18.998403
8	15.99943
9	15.99943
10	1.007947


Pair Coeffs

1	0.16769152	3.206876
2	0.086879315	3.4806469
3	0.015611343	2.5725815
4	0.16846514	3.0251065
5	0.10884061	3.3795318
6	0.014090815	1.1034277
7	0.061	3.1181455
8	0.2102061	3.0398122
9	0.20947353	2.99716
10	1.2326e-05	0.53453923

Bond Coeffs

1 harmonic	390.03554688505	1.390160554689
2 harmonic	505.144496193	1.019481865027
3 harmonic	422.7150220147	1.421786517481
4 harmonic	360.7852444772	1.387193227181
5 harmonic	397.2545789619	1.085358495916
6 harmonic	279.1350963404	1.454628925034
7 harmonic	425.69104206635	1.362945806494
8 harmonic	289.73813263395	1.498646816465
9 harmonic	352.0565580496	1.450098586273
10 harmonic	492.76746816345	1.381897776683
11 harmonic	340.45121009905	1.358690858053
12 harmonic	582.698766451	1.225198386222
13 harmonic	385.7604595587	1.369745182308
14 harmonic	543.5267831885	0.9716763312559


Angle Coeffs

1 harmonic	57.8982893754	126.8062420451
2 harmonic	55.42182150775	117.3465570514
3 harmonic	63.44422595415	115.5071327674
4 harmonic	34.066775159195	129.1835929926
5 harmonic	65.09061609600001	110.3538806181
6 harmonic	53.20531626545	116.5475862634
7 harmonic	14.32262199324	138.3184368373
8 harmonic	39.628116874445	129.8027304608
9 harmonic	201.41175231035	127.4691416191


Dihedral Coeffs

1 fourier 1	3.661930099076	2	180
2 fourier 1	1.193093382682	2	180
3 fourier 1	0.02021088501612	1	0
4 fourier 1	1.163235555439	2	180
5 fourier 1	1.532232714475	2	180
6 fourier 1	0.02664938770063	3	0
7 fourier 1	-0.6891728821899999	2	180
8 fourier 1	0.2727846432367	1	0
9 fourier 1	1.57666786751	2	180
10 fourier 1	3.101948770557	2	180
11 fourier 1	-0.4252153282372	1	0
12 fourier 1	1.809047390003	2	180
13 fourier 1	-0.04816277792592	1	0
14 fourier 1	0.9974165607242	2	180
15 fourier 1	2.348375642009	2	180
16 fourier 1	1.256156174911	1	0
17 fourier 1	2.687457892086	2	180
18 fourier 1	2.772607909663	2	180
19 fourier 1	0.09692684957115	1	0


Improper Coeffs

1 0.3666666666666667	-1	2
2 0.3333333333333333	-1	2
3 3.5	-1	2


Atoms

1	1	1	-0.41150099	-11.091	5.553	1.375
2	1	2	0.12759399	-9.9469995	4.915	0.80299997
3	1	2	-0.40580201	-9.927	3.585	0.62400001
4	1	3	0.22244	-10.778	2.98	0.91399997
5	1	2	-0.112876	-8.7320004	2.9260001	0.052999999
6	1	3	0.20459101	-8.7370005	1.847	-0.037
7	1	2	-0.12723	-7.6529999	3.6470001	-0.301
8	1	2	-0.133488	-6.4310002	2.9779999	-0.81800002
9	1	2	-0.127867	-5.2090001	3.3800001	-0.41299999
10	1	3	0.207873	-5.0939999	4.1919999	0.28999999
11	1	2	-0.29486999	-4.0009999	2.6889999	-0.89200002
12	1	3	0.225188	-3.03	3.007	-0.53500003
13	1	2	0.33034101	-4.1040001	1.653	-1.735
14	1	4	-0.27079701	-2.9519999	0.97500002	-2.131
15	1	2	0.26630601	-2.3	0.021	-1.335
16	1	2	-0.291778	-2.8659999	-0.50999999	-0.236
17	1	3	0.23205601	-3.8570001	-0.221	0.082999997
18	1	2	-0.15517899	-2.148	-1.524	0.55900002
19	1	3	0.219312	-2.6600001	-1.949	1.409
20	1	2	-0.144949	-0.88999999	-1.8940001	0.236
21	1	5	0.190428	-0.131	-2.9590001	1.048
22	1	2	-0.144949	1.387	-2.723	1.0650001
23	1	2	-0.15517899	2.2590001	-3.743	1.211
24	1	3	0.219312	1.918	-4.7639999	1.295
25	1	2	-0.291778	3.714	-3.494	1.274
26	1	3	0.23205601	4.3990002	-4.3330002	1.3099999
27	1	2	0.26630601	4.1859999	-2.2420001	1.2539999
28	1	4	-0.27079701	5.5700002	-2.033	1.276
29	1	2	0.33034101	6.1630001	-0.83499998	0.86199999
30	1	2	-0.29486999	6.8610001	-0.119	1.753
31	1	3	0.225188	6.9809999	-0.48100001	2.7650001
32	1	2	-0.127867	7.4050002	1.2029999	1.3940001
33	1	3	0.207873	7.9590001	1.757	2.1440001
34	1	2	-0.133488	7.2179999	1.7029999	0.162
35	1	2	-0.12723	7.7150002	3.0539999	-0.191
36	1	2	-0.126936	8.2810001	3.286	-1.393
37	1	3	0.20459101	8.415	2.484	-2.1099999
38	1	2	-0.373799	8.7510004	4.6399999	-1.751
39	1	3	0.21886601	9.1990004	4.8010001	-2.723
40	1	2	0.199818	8.6000004	5.658	-0.889
41	1	1	-0.53173703	9.0229998	6.9759998	-1.247
42	1	6	0.31996101	9.4639997	7.1719999	-2.1719999
43	1	2	-0.373799	7.9790001	5.4130001	0.43200001
44	1	3	0.21886601	7.8590002	6.2280002	1.132
45	1	2	-0.126936	7.5689998	4.1830001	0.76700002
46	1	3	0.20459101	7.1059999	4.0229998	1.732
47	1	2	-0.055342	6.4879999	0.889	-0.847
48	1	3	0.206885	6.3499999	1.289	-1.8430001
49	1	2	-0.32108599	6.0219998	-0.33899999	-0.54500002
50	1	5	0.76713902	5.3410001	-1.169	-1.614
51	1	7	-0.206553	5.54	-2.5179999	-1.383
52	1	7	-0.206553	5.8530002	-0.87800002	-2.868
53	1	7	-0.206553	3.9849999	-0.89999998	-1.615
54	1	2	-0.291778	3.233	-1.1059999	1.2460001
55	1	3	0.23205601	3.596	-0.088	1.323
56	1	2	-0.15517899	1.92	-1.332	1.166
57	1	3	0.219312	1.247	-0.486	1.1849999
58	1	2	0.086792	-0.58399999	-3.0179999	2.5009999
59	1	2	-0.050198	-0.53500003	-2.0669999	3.444
60	1	3	0.217104	-0.13500001	-1.084	3.2320001
61	1	2	-0.26609299	-1.061	-2.3870001	4.7979999
62	1	3	0.223115	-1.039	-1.633	5.573
63	1	2	-0.25065801	-1.58	-3.6040001	5.0580001
64	1	3	0.214561	-1.9630001	-3.8329999	6.0419998
65	1	2	0.0088280002	-1.628	-4.6399999	3.9979999
66	1	3	0.22054499	-2.046	-5.6209998	4.1900001
67	1	2	-0.236274	-1.1390001	-4.322	2.802
68	1	2	0.68630099	-1.064	-5.0910001	1.594
69	1	8	-0.551952	-1.4630001	-6.2779999	1.461
70	1	1	-0.44887099	-0.48699999	-4.3140001	0.54400003
71	1	2	0.205835	-0.207	-4.8569999	-0.76200002
72	1	2	-0.339908	-0.81099999	-4.3629999	-1.862
73	1	3	0.207131	-1.5369999	-3.5669999	-1.788
74	1	2	-0.164152	-0.53399998	-4.948	-3.191
75	1	3	0.232733	-0.99400002	-4.5180001	-4.0689998
76	1	2	-0.2617	0.271	-6.0110002	-3.303
77	1	3	0.227485	0.46799999	-6.4419999	-4.276
78	1	2	-0.164152	0.88800001	-6.6030002	-2.0940001
79	1	3	0.232732	1.513	-7.4840002	-2.178
80	1	2	-0.339908	0.65600002	-6.0609999	-0.88999999
81	1	3	0.207131	1.0779999	-6.52	-0.0089999996
82	1	2	-0.15517899	-0.28799999	-1.325	-1.01
83	1	3	0.219312	0.68199998	-1.664	-1.354
84	1	2	-0.291778	-0.95300001	-0.42300001	-1.739
85	1	3	0.23205601	-0.50800002	-0.026000001	-2.6429999
86	1	2	-0.32108599	-5.4390001	1.2180001	-2.2320001
87	1	5	0.76713902	-5.5479999	0.022	-3.151
88	1	7	-0.206553	-4.552	0.061000001	-4.1110001
89	1	7	-0.206553	-5.4029999	-1.135	-2.408
90	1	7	-0.206553	-6.7680001	-0.016000001	-3.802
91	1	2	-0.055342	-6.54	1.837	-1.767
92	1	3	0.206885	-7.5229998	1.512	-2.0780001
93	1	2	-0.112876	-7.6890001	5.125	-0.118
94	1	3	0.20459101	-6.8390002	5.7340002	-0.40900001
95	1	2	-0.40580201	-8.7690001	5.7199998	0.40400001
96	1	3	0.22244	-8.7770004	6.7969999	0.542
97	1	6	0.37337801	-11.926	5.0009999	1.66
98	1	2	0.76804203	8.8610001	7.7870002	-0.579
99	1	8	-0.65657699	9.8479996	8.4799995	-0.212
100	1	2	-0.353719	7.4980001	8.0799999	-0.1
101	1	2	-0.074004002	7.2529998	9.0979996	0.74599999
102	1	3	0.22345801	8.0539999	9.7340002	1.103
103	1	2	-0.242852	5.8769999	9.3660002	1.2079999
104	1	3	0.21390501	5.6900001	10.187	1.8890001
105	1	2	-0.021723	4.8639998	8.6000004	0.78799999
106	1	3	0.22300901	3.8599999	8.8100004	1.135
107	1	2	-0.292687	5.1160002	7.474	-0.146
108	1	2	0.58808202	4.006	6.6240001	-0.61400002
109	1	8	-0.52400202	2.825	6.8369999	-0.23199999
110	1	2	0.056995999	6.3709998	7.2329998	-0.56400001
111	1	3	0.240584	6.572	6.414	-1.245
112	1	1	-0.41150099	-11.11	6.5840001	1.508
113	1	2	0.12759399	-10.168	7.223	2.3740001
114	1	2	-0.40580201	-10.199	8.552	2.552
115	1	3	0.22244	-10.936	9.1569996	2.0380001
116	1	2	-0.112876	-9.2069998	9.2119999	3.4300001
117	1	3	0.20459101	-9.2370005	10.29	3.516
118	1	2	-0.12723	-8.2679996	8.4899998	4.0689998
119	1	2	-0.133488	-7.2360001	9.1590004	4.9029999
120	1	2	-0.127867	-5.9499998	8.7580004	4.8509998
121	1	3	0.207873	-5.6459999	7.9450002	4.2069998
122	1	2	-0.29486999	-4.921	9.448	5.645
123	1	3	0.225188	-3.8900001	9.1309996	5.5700002
124	1	2	0.33034101	-5.2529998	10.484	6.4260001
125	1	4	-0.27079701	-4.2550001	11.163	7.1259999
126	1	2	0.26630601	-3.408	12.117	6.54
127	1	2	-0.291778	-3.6489999	12.648	5.3270001
128	1	3	0.23205601	-4.5139999	12.358	4.7470002
129	1	2	-0.15517899	-2.7390001	13.661	4.7620001
130	1	3	0.219312	-2.997	14.086	3.803
131	1	2	-0.144949	-1.619	14.031	5.4200001
132	1	5	0.190428	-0.66600001	15.096	4.849
133	1	2	-0.144949	0.79799998	14.86	5.2509999
134	1	2	-0.15517899	1.676	15.881	5.3520002
135	1	3	0.219312	1.372	16.900999	5.177
136	1	2	-0.291778	3.092	15.631	5.6929998
137	1	3	0.23205601	3.76	16.471001	5.848
138	1	2	0.26630601	3.54	14.38	5.8429999
139	1	4	-0.27079701	4.8769999	14.171	6.2030001
140	1	2	0.33034101	5.3319998	12.972	6.7649999
141	1	2	-0.29486999	6.2490001	12.257	6.1009998
142	1	3	0.225188	6.6430001	12.618	5.1609998
143	1	2	-0.127867	6.6719999	10.934	6.5960002
144	1	3	0.207873	7.4120002	10.381	6.0289998
145	1	2	-0.133488	6.1529999	10.435	7.7290001
146	1	2	-0.12723	6.533	9.0830002	8.2060003
147	1	2	-0.076177001	6.7449999	8.8509998	9.5170002
148	1	3	0.20459101	6.6760001	9.6529999	10.243
149	1	2	-0.44997999	7.098	7.4970002	9.9910002
150	1	3	0.231003	7.2610002	7.336	11.048
151	1	2	0.31967899	7.191	6.4790001	9.1210003
152	1	1	-0.844248	7.4980001	5.1609998	9.5810003
153	1	6	0.36723101	7.527	4.3660002	8.908
154	1	6	0.36723101	7.6669998	4.9650002	10.592
155	1	2	-0.44997999	6.9590001	6.724	7.6799998
156	1	3	0.231003	7.0359998	5.9089999	6.974
157	1	2	-0.076177001	6.6570001	7.9549999	7.2449999
158	1	3	0.20459101	6.4790001	8.1140003	6.1890001
159	1	2	-0.055342	5.1719999	11.249	8.4969997
160	1	3	0.206885	4.7649999	10.849	9.4169998
161	1	2	-0.32108599	4.8080001	12.476	8.0780001
162	1	5	0.76713902	3.859	13.307	8.9180002
163	1	7	-0.206553	4.1139998	14.656	8.75
164	1	7	-0.206553	4.0040002	13.015	10.264
165	1	7	-0.206553	2.5539999	13.037	8.5439997
166	1	2	-0.291778	2.622	13.244	5.5869999
167	1	3	0.23205601	2.9920001	12.225	5.6129999
168	1	2	-0.15517899	1.3380001	13.469	5.302
169	1	3	0.219312	0.69599998	12.624	5.0970001
170	1	2	0.086792	-0.70099998	15.155	3.3269999
171	1	2	-0.050198	-0.39300001	14.204	2.434
172	1	3	0.217104	-0.067000002	13.221	2.7490001
173	1	2	-0.26609299	-0.52499998	14.525	0.98799998
174	1	3	0.223115	-0.28999999	13.77	0.249
175	1	2	-0.25065801	-0.95200002	15.741	0.59399998
176	1	3	0.214561	-1.048	15.971	-0.45699999
177	1	2	0.0088280002	-1.291	16.778	1.6
178	1	3	0.22054499	-1.6390001	17.757999	1.3
179	1	2	-0.236274	-1.15	16.459999	2.8840001
180	1	2	0.68630099	-1.4119999	17.229	4.066
181	1	8	-0.551952	-1.832	18.415001	4.0840001
182	1	1	-0.44887099	-1.147	16.451	5.2350001
183	1	2	0.205835	-1.239	16.995001	6.5679998
184	1	2	-0.339908	-2.1229999	16.500999	7.4580002
185	1	3	0.207131	-2.8010001	15.704	7.1859999
186	1	2	-0.164152	-2.223	17.084999	8.8109999
187	1	3	0.232733	-2.908	16.656	9.5290003
188	1	2	-0.2617	-1.48	18.148001	9.1420002
189	1	3	0.227485	-1.5599999	18.58	10.131
190	1	2	-0.164152	-0.55400002	18.74	8.1499996
191	1	3	0.232732	0.024	19.622	8.4040003
192	1	2	-0.339908	-0.44400001	18.198	6.9289999
193	1	3	0.207131	0.204	18.657	6.198
194	1	2	-0.15517899	-1.385	13.462	6.783
195	1	3	0.219312	-0.54799998	13.801	7.382
196	1	2	-0.291778	-2.2249999	12.561	7.3010001
197	1	3	0.23205601	-2.0469999	12.164	8.2919998
198	1	2	-0.32108599	-6.6729999	10.919	6.5359998
199	1	5	0.76713902	-7.0310001	12.116	7.3889999
200	1	7	-0.206553	-6.3400002	12.076	8.5869999
201	1	7	-0.206553	-6.6869998	13.272	6.7150002
202	1	7	-0.206553	-8.3839998	12.153	7.678
203	1	2	-0.055342	-7.6030002	10.301	5.7849998
204	1	3	0.206885	-8.6330004	10.625	5.8119998
205	1	2	-0.112876	-8.2519999	7.013	3.8829999
206	1	3	0.20459101	-7.5159998	6.4039998	4.3969998
207	1	2	-0.40580201	-9.1459999	6.4169998	3.0829999
208	1	3	0.22244	-9.1160002	5.3410001	2.948
209	1	6	0.37337801	-11.834	7.1360002	1.0039999
210	1	2	0.58808202	4.197	5.8049998	-1.295
211	1	8	-0.52400202	4.698	6.0539999	-2.4230001
212	1	2	-0.28817701	3.8670001	4.4250002	-0.889
213	1	2	-0.021723	4.0890002	3.381	-1.707
214	1	3	0.22300901	4.5180001	3.5220001	-2.6919999
215	1	2	-0.244003	3.7479999	2.0120001	-1.273
216	1	3	0.21390501	3.931	1.178	-1.939
217	1	2	-0.059765	3.217	1.801	-0.064000003
218	1	3	0.233913	2.974	0.79000002	0.237
219	1	2	-0.21803799	2.964	2.9400001	0.85399997
220	1	2	0.83904999	2.3759999	2.691	2.1889999
221	1	8	-0.48607901	2.154	3.6459999	2.9820001
222	1	9	-0.66484702	2.0610001	1.392	2.5799999
223	1	10	0.41837299	1.658	1.206	3.4909999
224	1	2	0.073748998	3.277	4.1880002	0.45100001
225	1	3	0.25065801	3.1029999	5.0359998	1.102

Bonds

1	1	1	2
2	2	1	97
3	3	1	112
4	4	2	3
5	4	2	95
6	5	3	4
7	4	3	5
8	5	5	6
9	4	5	7
10	6	7	8
11	4	7	93
12	4	8	9
13	4	8	91
14	5	9	10
15	4	9	11
16	5	11	12
17	4	11	13
18	7	13	14
19	4	13	86
20	7	14	15
21	4	15	16
22	4	15	84
23	5	16	17
24	4	16	18
25	5	18	19
26	4	18	20
27	8	20	21
28	4	20	82
29	8	21	22
30	8	21	58
31	9	21	70
32	4	22	23
33	4	22	56
34	5	23	24
35	4	23	25
36	5	25	26
37	4	25	27
38	7	27	28
39	4	27	54
40	7	28	29
41	4	29	30
42	4	29	49
43	5	30	31
44	4	30	32
45	5	32	33
46	4	32	34
47	6	34	35
48	4	34	47
49	4	35	36
50	4	35	45
51	5	36	37
52	4	36	38
53	5	38	39
54	4	38	40
55	1	40	41
56	4	40	43
57	2	41	42
58	10	41	98
59	5	43	44
60	4	43	45
61	5	45	46
62	5	47	48
63	4	47	49
64	8	49	50
65	11	50	51
66	11	50	52
67	11	50	53
68	5	54	55
69	4	54	56
70	5	56	57
71	4	58	59
72	4	58	67
73	5	59	60
74	4	59	61
75	5	61	62
76	4	61	63
77	5	63	64
78	4	63	65
79	5	65	66
80	4	65	67
81	6	67	68
82	12	68	69
83	10	68	70
84	1	70	71
85	4	71	72
86	4	71	80
87	5	72	73
88	4	72	74
89	5	74	75
90	4	74	76
91	5	76	77
92	4	76	78
93	5	78	79
94	4	78	80
95	5	80	81
96	5	82	83
97	4	82	84
98	5	84	85
99	8	86	87
100	4	86	91
101	11	87	88
102	11	87	89
103	11	87	90
104	5	91	92
105	5	93	94
106	4	93	95
107	5	95	96
108	12	98	99
109	6	98	100
110	4	100	101
111	4	100	110
112	5	101	102
113	4	101	103
114	5	103	104
115	4	103	105
116	5	105	106
117	4	105	107
118	6	107	108
119	4	107	110
120	12	108	109
121	6	108	210
122	5	110	111
123	1	112	113
124	2	112	209
125	4	113	114
126	4	113	207
127	5	114	115
128	4	114	116
129	5	116	117
130	4	116	118
131	6	118	119
132	4	118	205
133	4	119	120
134	4	119	203
135	5	120	121
136	4	120	122
137	5	122	123
138	4	122	124
139	7	124	125
140	4	124	198
141	7	125	126
142	4	126	127
143	4	126	196
144	5	127	128
145	4	127	129
146	5	129	130
147	4	129	131
148	8	131	132
149	4	131	194
150	8	132	133
151	8	132	170
152	9	132	182
153	4	133	134
154	4	133	168
155	5	134	135
156	4	134	136
157	5	136	137
158	4	136	138
159	7	138	139
160	4	138	166
161	7	139	140
162	4	140	141
163	4	140	161
164	5	141	142
165	4	141	143
166	5	143	144
167	4	143	145
168	6	145	146
169	4	145	159
170	4	146	147
171	4	146	157
172	5	147	148
173	4	147	149
174	5	149	150
175	4	149	151
176	1	151	152
177	4	151	155
178	2	152	153
179	2	152	154
180	5	155	156
181	4	155	157
182	5	157	158
183	5	159	160
184	4	159	161
185	8	161	162
186	11	162	163
187	11	162	164
188	11	162	165
189	5	166	167
190	4	166	168
191	5	168	169
192	4	170	171
193	4	170	179
194	5	171	172
195	4	171	173
196	5	173	174
197	4	173	175
198	5	175	176
199	4	175	177
200	5	177	178
201	4	177	179
202	6	179	180
203	12	180	181
204	10	180	182
205	1	182	183
206	4	183	184
207	4	183	192
208	5	184	185
209	4	184	186
210	5	186	187
211	4	186	188
212	5	188	189
213	4	188	190
214	5	190	191
215	4	190	192
216	5	192	193
217	5	194	195
218	4	194	196
219	5	196	197
220	8	198	199
221	4	198	203
222	11	199	200
223	11	199	201
224	11	199	202
225	5	203	204
226	5	205	206
227	4	205	207
228	5	207	208
229	12	210	211
230	6	210	212
231	4	212	213
232	4	212	224
233	5	213	214
234	4	213	215
235	5	215	216
236	4	215	217
237	5	217	218
238	4	217	219
239	6	219	220
240	4	219	224
241	12	220	221
242	13	220	222
243	14	222	223
244	5	224	225

Angles

1	1	129	131	194
2	4	12	11	13
3	4	184	186	187
4	1	147	146	157
5	4	134	136	137
6	6	198	199	201
7	1	27	54	56
8	1	118	205	207
9	1	212	213	215
10	1	132	170	179
11	6	49	50	53
12	1	217	219	220
13	3	151	152	153
14	5	124	125	126
15	6	201	199	202
16	4	151	155	156
17	6	58	21	70
18	4	71	80	81
19	1	145	146	157
20	1	132	133	168
21	1	103	105	107
22	4	194	196	197
23	1	21	22	23
24	4	117	116	118
25	1	116	118	205
26	1	30	29	49
27	1	126	127	129
28	4	8	91	92
29	4	138	166	167
30	1	22	23	25
31	1	120	119	203
32	2	1	112	113
33	1	132	133	134
34	4	175	177	178
35	4	216	215	217
36	1	28	29	30
37	4	8	9	10
38	1	34	35	36
39	1	98	100	101
40	4	101	103	104
41	1	122	124	125
42	1	41	98	99
43	4	2	95	96
44	4	34	47	48
45	6	20	21	58
46	1	11	13	14
47	4	188	190	191
48	4	176	175	177
49	4	78	80	81
50	4	66	65	67
51	8	69	68	70
52	4	131	194	195
53	4	61	63	64
54	1	113	114	116
55	1	215	217	219
56	1	35	36	38
57	1	145	159	161
58	1	145	146	147
59	1	140	161	159
60	6	133	132	182
61	1	21	22	56
62	1	18	20	82
63	1	38	40	41
64	1	170	179	180
65	1	23	25	27
66	1	58	59	61
67	4	26	25	27
68	1	182	183	192
69	1	101	100	110
70	6	131	132	182
71	4	22	56	57
72	6	198	199	200
73	4	27	54	55
74	1	139	138	166
75	4	113	207	208
76	8	67	68	69
77	4	100	110	111
78	7	177	179	180
79	4	212	213	214
80	6	49	50	52
81	1	119	120	122
82	6	51	50	53
83	1	213	212	224
84	4	60	59	61
85	1	29	30	32
86	1	139	140	141
87	6	88	87	90
88	1	2	95	93
89	1	2	3	5
90	1	179	180	182
91	1	32	34	35
92	1	112	113	114
93	1	70	71	80
94	1	59	61	63
95	4	104	103	105
96	7	132	170	171
97	4	126	127	128
98	1	140	141	143
99	1	199	198	203
100	7	65	67	68
101	4	205	207	208
102	1	125	124	198
103	4	22	23	24
104	1	41	40	43
105	1	36	38	40
106	1	15	16	18
107	1	125	126	127
108	6	163	162	165
109	1	139	140	161
110	4	206	205	207
111	1	129	131	132
112	1	5	7	93
113	1	113	207	205
114	4	172	171	173
115	1	18	20	21
116	2	40	41	98
117	4	155	157	158
118	4	83	82	84
119	4	113	114	115
120	4	215	217	218
121	4	35	36	37
122	1	105	107	108
123	4	145	159	160
124	2	21	70	68
125	4	73	72	74
126	6	89	87	90
127	2	68	70	71
128	6	161	162	165
129	4	94	93	95
130	4	156	155	157
131	1	141	143	145
132	1	170	171	173
133	4	82	84	85
134	1	14	13	86
135	4	106	105	107
136	4	58	59	60
137	1	114	113	207
138	1	72	74	76
139	6	49	50	51
140	4	119	120	121
141	6	51	50	52
142	1	15	84	82
143	1	140	161	162
144	1	63	65	67
145	6	164	162	165
146	1	127	129	131
147	1	58	67	65
148	1	108	107	110
149	1	213	215	217
150	1	118	119	203
151	4	146	147	148
152	1	146	145	159
153	2	2	1	112
154	4	2	3	4
155	8	179	180	181
156	1	182	183	184
157	6	86	87	89
158	4	150	149	151
159	1	3	5	7
160	1	16	18	20
161	4	64	63	65
162	4	59	61	62
163	1	212	224	219
164	1	20	82	84
165	1	30	32	34
166	1	159	161	162
167	1	16	15	84
168	1	183	184	186
169	1	219	220	222
170	4	36	38	39
171	1	119	203	198
172	1	34	35	45
173	1	98	100	110
174	1	133	134	136
175	4	130	129	131
176	1	13	86	91
177	4	35	45	46
178	1	3	2	95
179	4	15	16	17
180	4	160	159	161
181	6	163	162	164
182	4	144	143	145
183	1	136	138	139
184	1	152	151	155
185	1	171	173	175
186	1	136	138	166
187	4	37	36	38
188	1	146	157	155
189	1	70	71	72
190	1	100	110	107
191	1	76	78	80
192	1	25	27	28
193	1	21	58	67
194	1	28	27	54
195	1	87	86	91
196	1	184	183	192
197	2	132	182	180
198	6	52	50	53
199	4	77	76	78
200	4	72	74	75
201	4	118	205	206
202	4	142	141	143
203	1	220	219	224
204	1	9	11	13
205	1	171	170	179
206	2	180	182	183
207	1	100	101	103
208	2	21	70	71
209	4	127	129	130
210	1	147	149	151
211	1	122	124	198
212	1	173	175	177
213	1	38	40	43
214	4	218	217	219
215	9	221	220	222
216	4	213	215	216
217	4	103	105	106
218	1	120	122	124
219	1	35	45	43
220	4	4	3	5
221	1	184	186	188
222	1	134	136	138
223	6	198	199	202
224	6	86	87	88
225	1	124	198	199
226	4	16	18	19
227	4	190	192	193
228	1	210	212	224
229	4	15	84	85
230	4	44	43	45
231	4	20	82	83
232	4	166	168	169
233	1	58	67	68
234	4	121	120	122
235	1	116	118	119
236	1	219	220	221
237	1	7	93	95
238	4	17	16	18
239	1	29	49	47
240	1	149	151	152
241	4	31	30	32
242	1	71	72	74
243	4	93	95	96
244	1	25	27	54
245	3	42	41	98
246	4	126	196	197
247	3	153	152	154
248	3	2	1	97
249	4	76	78	79
250	1	143	145	146
251	1	28	29	49
252	1	1	2	95
253	1	186	188	190
254	4	148	147	149
255	1	7	8	91
256	6	133	132	170
257	1	125	126	196
258	1	101	103	105
259	1	8	7	93
260	4	23	25	26
261	1	41	98	100
262	1	124	198	203
263	6	20	21	70
264	3	40	41	42
265	1	40	43	45
266	4	146	157	158
267	1	131	194	196
268	1	61	63	65
269	5	13	14	15
270	4	9	11	12
271	1	105	107	110
272	1	107	108	210
273	4	75	74	76
274	1	8	91	86
275	1	11	13	86
276	1	112	113	207
277	4	173	175	176
278	1	8	9	11
279	1	74	76	78
280	4	29	30	31
281	4	120	122	123
282	1	13	86	87
283	2	132	182	183
284	6	22	21	58
285	6	88	87	89
286	4	86	91	92
287	1	134	133	168
288	1	126	196	194
289	1	67	68	70
290	4	174	173	175
291	1	109	108	210
292	4	198	203	204
293	4	140	141	142
294	4	185	184	186
295	1	143	145	159
296	1	36	35	45
297	1	114	116	118
298	1	132	131	194
299	4	219	224	225
300	4	7	93	94
301	1	5	7	8
302	4	128	127	129
303	1	35	34	47
304	4	24	23	25
305	3	1	112	209
306	4	71	72	73
307	1	14	15	84
308	1	211	210	212
309	4	214	213	215
310	1	107	108	109
311	1	108	210	212
312	3	97	1	112
313	1	217	219	224
314	1	1	2	3
315	1	118	119	120
316	5	220	222	223
317	4	133	168	169
318	4	191	190	192
319	6	161	162	164
320	4	186	188	189
321	1	29	49	50
322	4	79	78	80
323	1	149	151	155
324	4	141	143	144
325	4	170	171	172
326	1	32	34	47
327	1	119	118	205
328	4	187	186	188
329	4	195	194	196
330	4	183	192	193
331	6	131	132	133
332	4	40	43	44
333	6	200	199	202
334	4	212	224	225
335	4	102	101	103
336	4	178	177	179
337	4	63	65	66
338	6	20	21	22
339	1	71	80	78
340	1	23	22	56
341	4	74	76	77
342	4	43	45	46
343	4	55	54	56
344	1	47	49	50
345	4	115	114	116
346	4	3	5	6
347	1	210	212	213
348	1	9	8	91
349	4	30	32	33
350	4	119	203	204
351	1	133	168	166
352	3	151	152	154
353	1	21	20	82
354	1	151	155	157
355	4	114	116	117
356	4	183	184	185
357	4	133	134	135
358	6	22	21	70
359	4	135	134	136
360	3	113	112	209
361	4	10	9	11
362	6	86	87	90
363	4	171	173	174
364	1	59	58	67
365	1	183	192	190
366	4	123	122	124
367	1	108	210	211
368	4	107	110	111
369	4	19	18	20
370	1	138	166	168
371	1	99	98	100
372	4	137	136	138
373	6	161	162	163
374	4	167	166	168
375	1	127	126	196
376	4	33	32	34
377	1	175	177	179
378	1	170	179	177
379	1	14	15	16
380	8	181	180	182
381	4	189	188	190
382	4	6	5	7
383	4	48	47	49
384	1	72	71	80
385	1	34	47	49
386	1	146	147	149
387	1	22	56	54
388	1	7	8	9
389	6	170	132	182
390	6	131	132	170
391	1	141	140	161
392	1	188	190	192
393	4	62	61	63
394	6	200	199	201
395	4	54	56	57
396	4	100	101	102
397	5	138	139	140
398	4	147	149	150
399	5	27	28	29
400	7	21	58	59
401	4	39	38	40

Dihedrals

1	1	28	27	54	55
2	1	7	8	91	86
3	1	138	166	168	169
4	1	173	175	177	178
5	1	1	2	95	96
6	1	100	101	103	104
7	1	120	119	203	198
8	1	118	119	120	122
9	6	170	132	131	194
10	1	76	78	80	81
11	1	4	3	5	6
12	1	213	212	224	219
13	6	20	21	22	23
14	1	28	29	30	31
15	1	118	119	203	204
16	5	124	125	126	127
17	14	110	107	108	210
18	1	132	170	179	180
19	1	25	23	22	56
20	1	102	101	100	110
21	1	140	161	159	160
22	5	25	27	28	29
23	1	145	146	157	155
24	1	136	138	166	167
25	1	210	212	213	214
26	1	16	18	20	82
27	1	38	40	43	44
28	3	2	1	112	113
29	1	187	186	188	190
30	5	126	125	124	198
31	1	5	7	93	95
32	4	36	35	34	47
33	1	172	171	170	179
34	1	21	58	59	61
35	1	33	32	34	35
36	1	31	30	32	33
37	14	58	67	68	69
38	1	71	80	78	76
39	1	21	22	56	57
40	2	1	112	113	207
41	1	16	15	84	82
42	1	98	100	101	103
43	1	139	138	166	167
44	1	146	157	155	156
45	1	117	116	118	119
46	1	133	134	136	137
47	1	160	159	161	162
48	1	14	13	86	87
49	14	108	210	212	213
50	1	149	147	146	157
51	6	124	198	199	200
52	1	119	203	198	124
53	6	133	132	170	179
54	7	20	21	70	71
54	8	20	21	70	71
55	1	147	146	157	158
56	1	19	18	20	21
57	1	171	173	175	176
58	18	221	220	222	223
58	19	221	220	222	223
59	1	17	16	18	19
60	1	129	127	126	196
61	1	115	114	116	117
62	1	150	149	151	155
63	1	64	63	65	67
64	1	26	25	27	28
65	2	43	40	41	98
66	1	116	118	205	206
67	1	148	147	149	151
68	1	12	11	13	14
69	1	71	72	74	75
70	6	20	21	22	56
71	1	35	45	43	44
72	1	35	34	47	48
73	1	3	5	7	93
74	1	23	22	56	57
75	1	7	8	91	92
76	1	10	9	11	13
77	1	176	175	177	179
78	1	178	177	179	180
79	1	87	86	91	92
80	1	185	184	186	188
81	1	139	140	161	159
82	2	21	70	71	72
83	1	108	107	110	111
84	1	14	13	86	91
85	1	216	215	217	218
86	1	1	2	95	93
87	1	28	29	49	50
88	1	214	213	215	216
89	2	68	70	71	80
90	1	186	188	190	192
91	6	200	199	198	203
92	1	215	213	212	224
93	1	29	30	32	33
94	6	47	49	50	51
95	1	23	25	27	28
96	6	29	49	50	53
97	2	153	152	151	155
98	1	30	32	34	35
99	1	30	29	49	47
100	1	126	196	194	131
101	1	34	35	45	46
102	14	222	220	219	224
103	1	146	147	149	150
104	1	1	2	3	4
105	9	179	180	182	183
106	1	141	140	161	159
107	4	157	146	145	159
108	1	21	22	56	54
109	1	22	23	25	27
110	1	16	18	20	21
111	1	105	107	110	111
112	1	127	126	196	194
113	1	210	212	224	219
114	1	121	120	122	124
115	1	74	72	71	80
116	1	72	71	80	81
117	6	171	170	132	182
118	6	131	132	170	171
119	1	119	120	122	124
120	1	132	133	168	166
121	9	21	70	68	69
122	7	20	21	70	68
122	8	20	21	70	68
123	1	147	146	157	155
124	1	22	56	54	55
125	1	4	3	2	95
126	1	150	149	151	152
127	6	159	161	162	163
128	1	156	155	157	158
129	1	7	93	95	96
130	1	144	143	145	146
131	1	132	133	134	135
132	2	3	2	1	112
133	1	187	186	188	189
134	1	39	38	40	43
135	1	18	16	15	84
136	1	5	7	93	94
137	1	142	141	143	145
138	1	184	186	188	190
139	1	21	58	59	60
140	5	122	124	125	126
141	1	23	22	56	54
142	6	23	22	21	70
143	6	13	86	87	90
144	1	139	140	141	143
145	1	98	100	101	102
146	14	99	98	100	101
147	1	133	168	166	167
148	1	28	29	49	47
149	1	140	161	159	145
150	14	177	179	180	182
151	6	59	58	21	70
152	1	9	11	13	86
153	12	40	41	98	100
153	13	40	41	98	100
154	1	37	36	38	40
155	1	184	183	192	190
156	1	126	196	194	195
157	1	143	141	140	161
158	1	64	63	65	66
159	1	61	59	58	67
160	1	48	47	49	50
161	2	38	40	41	98
162	1	106	105	107	108
163	1	34	35	45	43
164	1	148	147	149	150
165	1	15	84	82	20
166	1	170	171	173	175
167	1	19	18	20	82
168	5	138	139	140	141
169	6	22	21	58	67
170	1	176	175	177	178
171	4	143	145	146	147
172	1	122	120	119	203
173	1	185	184	186	187
174	1	24	23	25	27
175	1	20	82	84	85
176	1	210	212	224	225
177	5	15	14	13	86
178	1	188	190	192	193
179	1	145	146	147	149
180	1	186	188	190	191
181	6	133	132	170	171
182	1	11	13	86	87
183	6	168	133	132	182
184	6	29	49	50	52
185	4	32	34	35	45
186	1	40	43	45	46
187	1	6	5	7	93
188	1	137	136	138	139
189	1	73	72	74	75
190	1	137	136	138	166
191	1	144	143	145	159
192	5	11	13	14	15
193	1	25	27	54	56
194	5	138	139	140	161
195	1	104	103	105	106
196	1	136	134	133	168
197	7	58	21	70	68
197	8	58	21	70	68
198	1	22	23	25	26
199	1	139	140	161	162
200	6	140	161	162	165
201	1	189	188	190	191
202	1	83	82	84	85
203	1	147	149	151	155
204	1	101	100	110	111
205	14	107	108	210	211
206	2	68	70	71	72
207	9	69	68	70	71
208	1	121	120	122	123
209	2	180	182	183	192
210	1	103	101	100	110
211	1	119	120	122	123
212	1	114	116	118	119
213	1	11	13	86	91
214	1	126	127	129	131
215	1	182	183	184	186
216	1	15	16	18	20
217	1	128	127	126	196
218	1	30	29	49	50
219	1	119	118	205	207
220	1	175	177	179	180
221	1	21	20	82	84
222	14	105	107	108	210
223	1	142	141	143	144
224	1	173	171	170	179
225	2	95	2	1	112
226	1	135	134	136	137
227	1	184	186	188	189
228	1	70	71	72	73
229	1	134	133	168	166
230	4	5	7	8	9
231	1	77	76	78	80
232	1	2	95	93	94
233	1	35	45	43	40
234	14	109	108	210	212
235	7	131	132	182	180
235	8	131	132	182	180
236	1	191	190	192	193
237	1	171	170	179	180
238	1	7	8	9	10
239	1	31	30	29	49
240	1	132	131	194	195
241	1	141	140	161	162
242	1	152	151	155	157
243	1	141	143	145	146
244	3	2	1	112	209
245	1	9	11	13	14
246	5	124	125	126	196
247	2	42	41	40	43
248	1	127	126	196	197
249	1	41	40	43	44
250	14	177	179	180	181
251	1	75	74	76	78
252	1	118	205	207	208
253	1	59	61	63	65
254	1	132	133	168	169
255	14	217	219	220	221
256	10	40	41	98	99
256	11	40	41	98	99
257	6	182	132	131	194
258	1	129	131	194	196
259	1	140	141	143	145
260	1	103	105	107	108
261	1	55	54	56	57
262	1	148	147	146	157
263	1	9	8	91	86
264	1	70	71	80	81
265	1	18	20	82	83
266	1	36	38	40	41
267	1	134	136	138	139
268	5	140	139	138	166
269	1	134	136	138	166
270	6	20	21	58	67
271	1	170	171	173	174
272	1	172	171	173	175
273	1	98	100	110	111
274	6	134	133	132	170
275	2	3	2	1	97
276	5	13	14	15	16
277	1	146	145	159	161
278	1	147	149	151	152
279	1	213	212	224	225
280	6	124	198	199	202
281	1	2	3	5	6
282	14	105	107	108	109
283	4	9	8	7	93
284	1	184	183	192	193
285	4	203	119	118	205
286	1	2	95	93	7
287	1	21	22	23	24
288	1	29	49	47	48
289	4	120	119	118	205
290	5	27	28	29	30
291	1	125	126	127	128
292	1	122	124	198	199
293	6	56	22	21	58
294	4	91	8	7	93
295	1	142	141	140	161
296	1	34	35	36	38
297	1	113	114	116	118
298	1	120	119	203	204
299	1	171	170	179	177
300	1	25	27	54	55
301	6	22	21	58	59
302	6	140	161	162	164
303	1	14	15	16	18
304	1	112	113	114	116
305	4	143	145	146	157
306	1	141	143	145	159
307	1	118	119	120	121
308	1	8	7	93	95
309	6	18	20	21	70
310	6	70	21	20	82
311	14	211	210	212	224
312	1	132	170	171	173
313	6	47	49	50	53
314	9	21	70	68	67
315	1	102	101	103	105
316	1	126	127	129	130
317	1	182	183	184	185
318	1	15	16	18	19
319	2	154	152	151	155
320	1	212	213	215	217
321	1	119	118	205	206
322	1	58	59	61	63
323	14	170	179	180	182
324	1	36	35	45	43
325	1	218	217	219	224
326	1	70	71	80	78
327	1	29	49	47	34
328	1	77	76	78	79
329	1	132	131	194	196
330	6	90	87	86	91
331	1	170	179	177	175
332	7	133	132	182	180
332	8	133	132	182	180
333	6	89	87	86	91
334	6	88	87	86	91
335	7	58	21	70	71
335	8	58	21	70	71
336	1	11	9	8	91
337	14	99	98	100	110
338	1	152	151	155	156
339	1	10	9	8	91
340	1	34	47	49	50
341	1	183	184	186	188
342	1	213	215	217	219
343	4	45	35	34	47
344	1	130	129	131	132
345	1	4	3	5	7
346	1	26	25	27	54
347	1	28	29	30	32
348	1	59	58	67	65
349	5	13	14	15	84
350	1	122	124	198	203
351	1	217	219	224	225
352	1	59	61	63	64
353	6	179	170	132	182
354	1	60	59	61	63
355	1	136	138	166	168
356	1	3	5	7	8
357	1	210	212	213	215
358	6	129	131	132	133
359	1	38	40	43	45
360	6	159	161	162	165
361	1	117	116	118	205
362	1	118	119	203	198
363	1	60	59	58	67
364	1	134	133	168	169
365	3	97	1	112	209
366	1	127	129	131	132
367	1	116	114	113	207
368	7	131	132	182	183
368	8	131	132	182	183
369	1	172	171	173	174
370	14	41	98	100	101
371	1	31	30	32	34
372	1	10	9	11	12
373	14	58	67	68	70
374	1	143	145	159	161
375	2	95	2	1	97
376	2	21	70	71	80
377	1	23	25	27	54
378	1	146	145	159	160
379	1	35	36	38	40
380	1	101	103	105	107
381	1	133	134	136	138
382	1	195	194	196	197
383	1	125	126	196	194
384	2	149	151	152	154
385	6	124	198	199	201
386	1	101	100	110	107
387	1	149	151	155	157
388	9	132	182	180	179
389	1	183	192	190	188
390	1	171	173	175	177
391	1	32	30	29	49
392	1	8	91	86	87
393	1	106	105	107	110