Title

194 atoms
213 bonds
344 angles
542 dihedrals
336 impropers

9 atom types
15 bond types
10 angle types
21 dihedral types
3 improper types
-33.23699951 66.76300049 xlo xhi
-12.43900013 87.56099987 ylo yhi
-4.977000237 95.02299976 zlo zhi
0.0 0.0 0.0 xy xz yz

Masses

1	12.01078
2	15.99943
3	14.00672
4	1.007947
5	1.007947
6	15.99943
7	12.01078
8	15.99943
9	1.007947


Pair Coeffs

1	0.086879315	3.4806469
2	0.2102061	3.0398122
3	0.16769152	3.206876
4	0.015611343	2.5725815
5	0.014090815	1.1034277
6	0.16846514	3.0251065
7	0.21	3.3996695
8	0.20947353	2.99716
9	1.2326e-05	0.53453923

Bond Coeffs

1 harmonic	582.698766451	1.225198386222
2 harmonic	492.76746816345	1.381897776683
3 harmonic	279.1350963404	1.454628925034
4 harmonic	390.03554688505	1.390160554689
5 harmonic	505.144496193	1.019481865027
6 harmonic	360.7852444772	1.387193227181
7 harmonic	397.2545789619	1.085358495916
8 harmonic	445.3060766333	1.328776712165
9 harmonic	301.15400723785	1.345741232799
10 harmonic	425.69104206635	1.362945806494
11 harmonic	300.03137914615	1.451203938761
12 harmonic	382.5450169811	1.379244394267
13 harmonic	602.81384337	1.196112346392
14 harmonic	385.7604595587	1.369745182308
15 harmonic	543.5267831885	0.9716763312559


Angle Coeffs

1 harmonic	55.42182150775	117.3465570514
2 harmonic	63.44422595415	115.5071327674
3 harmonic	57.8982893754	126.8062420451
4 harmonic	34.066775159195	129.1835929926
5 harmonic	14.32262199324	138.3184368373
6 harmonic	39.628116874445	129.8027304608
7 harmonic	55.07882548015	112.8714009681
8 harmonic	65.09061609600001	110.3538806181
9 harmonic	201.41175231035	127.4691416191
10 harmonic	33.56981613361	180


Dihedral Coeffs

1 fourier 1	1.193093382682	2	180
2 fourier 1	1.809047390003	2	180
3 fourier 1	-0.04816277792592	1	0
4 fourier 1	3.101948770557	2	180
5 fourier 1	-0.4252153282372	1	0
6 fourier 1	2.348375642009	2	180
7 fourier 1	1.256156174911	1	0
8 fourier 1	0.9974165607242	2	180
9 fourier 1	3.661930099076	2	180
10 fourier 1	1.57666786751	2	180
11 fourier 1	1.163235555439	2	180
12 fourier 1	3.731869940596	2	180
13 fourier 1	5.913282223828	2	180
14 fourier 1	2.779853741805	2	180
15 fourier 1	1.532232714475	2	180
16 fourier 1	0.4860993122944	2	180
17 fourier 1	0.8916986138746	1	0
18 fourier 1	0.457973137376	1	0
19 fourier 1	1.550515418264	2	180
20 fourier 1	0	1	0
21 fourier 1	0.8283030590042	2	180


Improper Coeffs

1 0.3333333333333333	-1	2
2 0.3666666666666667	-1	2
3 3.5	-1	2


Atoms

1	1	1	0.57692599	-10.786	7.0689998	-1.607
2	1	2	-0.57608598	-9.8739996	6.9429998	-2.467
3	1	3	-0.50417399	-10.535	6.8340001	-0.21699999
4	1	1	0.23763201	-9.3330002	6.2350001	0.296
5	1	1	-0.38348699	-8.882	6.5929999	1.525
6	1	4	0.213415	-9.408	7.342	2.1040001
7	1	1	0.11409	-7.6529999	5.9819999	2.098
8	1	4	0.217655	-7.2870002	6.2729998	3.075
9	1	1	-0.247325	-7.02	5.0650001	1.367
10	1	1	-0.169808	-7.5079999	4.6500001	0.068000004
11	1	1	-0.14394601	-8.6049995	5.1789999	-0.47799999
12	1	4	0.220456	-8.9650002	4.823	-1.434
13	1	1	0.71222597	-6.6009998	3.6129999	-0.41
14	1	2	-0.53250802	-6.6820002	3.0339999	-1.526
15	1	3	-0.52950001	-5.5609999	3.3789999	0.55000001
16	1	1	0.239812	-4.4910002	2.4230001	0.447
17	1	1	-0.34752899	-3.26	2.723	0.89300001
18	1	4	0.20711	-3.046	3.6949999	1.316
19	1	1	-0.14957	-2.1619999	1.74	0.78500003
20	1	4	0.21527299	-1.186	2.0179999	1.163
21	1	1	-0.193261	-2.378	0.52399999	0.245
22	1	1	0.362441	-1.272	-0.463	0.145
23	1	3	-0.70877999	-0.039999999	-0.043000001	0.098999999
24	1	1	0.362441	1.091	-0.92900002	0.011
25	1	1	-0.193261	2.454	-0.329	-0.043000001
26	1	1	-0.14957	3.516	-0.98100001	-0.56400001
27	1	4	0.21527299	3.424	-1.974	-0.98100001
28	1	1	-0.34752899	4.8410001	-0.33000001	-0.62900001
29	1	4	0.20711	5.6700001	-0.87400001	-1.063
30	1	1	0.239812	5.0019999	0.93199998	-0.2
31	1	3	-0.52950001	6.2789998	1.581	-0.29100001
32	1	1	0.71566898	6.526	2.934	-0.69499999
33	1	2	-0.53250802	5.6339998	3.734	-1.0829999
34	1	1	-0.247325	7.954	3.2249999	-0.63999999
35	1	1	0.11409	8.6400003	4.3249998	-0.94800001
36	1	4	0.217655	8.1409998	5.2150002	-1.306
37	1	1	-0.37519801	10.12	4.283	-0.79500002
38	1	4	0.213415	10.685	5.1560001	-1.089
39	1	1	0.26462799	10.742	3.1659999	-0.33000001
40	1	3	-0.49110699	12.173	3.102	-0.189
41	1	1	0.84024	13.013	4.2049999	0.178
42	1	2	-0.56869602	12.525	5.302	0.56400001
43	1	5	0.33228299	12.63	2.165	-0.25299999
44	1	1	-0.144714	9.9329996	1.947	-0.026000001
45	1	4	0.220456	10.404	1.033	0.31400001
46	1	1	-0.169808	8.6099997	2.017	-0.184
47	1	1	0.71222597	7.5619998	1.022	0.022
48	1	2	-0.53250802	7.7410002	-0.148	0.45500001
49	1	1	-0.34752899	3.842	1.658	0.36199999
50	1	4	0.20711	3.96	2.6689999	0.72899997
51	1	1	-0.14957	2.6459999	1.063	0.44499999
52	1	4	0.21527299	1.818	1.6109999	0.87699997
53	1	1	-0.33252099	0.875	-2.2590001	-0.0020000001
54	1	4	0.20878901	1.698	-2.9590001	-0.034000002
55	1	1	0.018395999	-0.50999999	-2.7869999	0.039000001
56	1	1	-0.124368	-0.74400002	-4.2529998	0.0060000001
57	1	1	-0.169044	-1.735	-4.783	-0.73500001
58	1	4	0.214945	-2.381	-4.152	-1.332
59	1	1	-0.169044	-1.937	-6.2449999	-0.787
60	1	4	0.214945	-2.724	-6.6339998	-1.421
61	1	1	-0.056586999	-1.137	-7.073	-0.088
62	1	1	-0.058554001	-1.314	-8.5469999	-0.147
63	1	1	-0.164729	-2.5420001	-9.1059999	-0.17200001
64	1	4	0.217122	-3.434	-8.4949999	-0.132
65	1	1	-0.176971	-2.697	-10.574	-0.22400001
66	1	4	0.233766	-3.688	-11.009	-0.241
67	1	1	-0.21882001	-1.617	-11.363	-0.245
68	1	4	0.23660301	-1.73	-12.439	-0.28099999
69	1	1	-0.176971	-0.26800001	-10.765	-0.219
70	1	4	0.233766	0.60399997	-11.406	-0.241
71	1	1	-0.164729	-0.122	-9.4350004	-0.17200001
72	1	4	0.217122	0.87599999	-9.0129995	-0.17299999
73	1	1	-0.169044	-0.048999999	-6.4889998	0.736
74	1	4	0.214945	0.59100002	-7.1300001	1.3279999
75	1	1	-0.169044	0.13699999	-5.164	0.77899998
76	1	4	0.214945	0.926	-4.7620001	1.401
77	1	1	-0.33252099	-1.5369999	-1.9220001	0.117
78	1	4	0.20878901	-2.5510001	-2.29	0.20299999
79	1	1	-0.14957	-3.7379999	0.20100001	-0.26300001
80	1	4	0.21527299	-3.9400001	-0.75	-0.73799998
81	1	1	-0.34752899	-4.7309999	1.094	-0.16500001
82	1	4	0.20711	-5.7160001	0.833	-0.52899998
83	1	1	0.71566898	-5.8270001	4.2719998	1.641
84	1	2	-0.53250802	-5.152	4.3179998	2.704
85	1	5	0.328161	-11.245	7.1919999	0.461
86	1	6	-0.43587601	14.054	4.0869999	0.16
87	1	1	0.37671801	14.635	2.8239999	0.075999998
88	1	1	-0.285312	15.969	2.7060001	0.055
89	1	4	0.243303	16.597	3.5869999	0.102
90	1	1	-0.040908001	16.594	1.369	-0.034000002
91	1	4	0.24019399	17.672001	1.279	-0.050999999
92	1	1	-0.346468	15.827	0.273	-0.093000002
93	1	4	0.24562	16.285999	-0.70499998	-0.15800001
94	1	1	0.32613301	14.353	0.39500001	-0.07
95	1	6	-0.016845001	13.57	-0.75599998	-0.132
96	1	1	-0.31589001	13.786	1.61	0.011
97	1	4	0.243204	12.708	1.71	0.028999999
98	1	1	0.57692599	-11.767	7.4000001	-1.9220001
99	1	2	-0.57608598	-11.861	8.3330002	-2.763
100	1	3	-0.50417399	-12.932	6.8049998	-1.3380001
101	1	1	0.23763201	-14.279	7.046	-1.779
102	1	1	-0.38348699	-14.577	7.2210002	-3.095
103	1	4	0.213415	-13.805	7.178	-3.8499999
104	1	1	0.11409	-15.983	7.4260001	-3.5369999
105	1	4	0.217655	-16.225	7.566	-4.5819998
106	1	1	-0.247325	-16.933001	7.4180002	-2.602
107	1	1	-0.169808	-16.628	7.2150002	-1.202
108	1	1	-0.14394601	-15.38	7.0250001	-0.77100003
109	1	4	0.220456	-15.174	6.8639998	0.27900001
110	1	1	0.71222597	-17.898001	7.2389998	-0.48699999
111	1	2	-0.53250802	-18.039	7.0430002	0.75
112	1	3	-0.52950001	-18.982	7.4590001	-1.402
113	1	1	0.239812	-20.388	7.427	-1.1
114	1	1	-0.34752899	-20.860001	7.994	0.023
115	1	4	0.20711	-20.193001	8.5030003	0.70700002
116	1	1	-0.14957	-22.302	7.9489999	0.33700001
117	1	4	0.21527299	-22.641001	8.4040003	1.26
118	1	1	-0.193261	-23.167	7.3309999	-0.491
119	1	1	0.362441	-24.612	7.2620001	-0.156
120	1	3	-0.70877999	-25.146	8.1879997	0.59100002
121	1	1	0.362441	-26.535	8.184	0.97000003
122	1	1	-0.193261	-27.052999	9.2749996	1.8380001
123	1	1	-0.14957	-26.216999	9.9379997	2.6589999
124	1	4	0.21527299	-25.166	9.6800003	2.7119999
125	1	1	-0.34752899	-26.716	11.019	3.533
126	1	4	0.20711	-26.011999	11.537	4.1700001
127	1	1	0.239812	-28.014	11.368	3.5150001
128	1	3	-0.52950001	-28.504	12.422	4.3639998
129	1	1	0.71566898	-28.110001	12.705	5.7160001
130	1	2	-0.53250802	-27.257	12.04	6.3629999
131	1	1	-0.28209499	-28.877001	13.826	6.2449999
132	1	1	0.039466001	-28.85	14.425	7.4359999
133	1	4	0.207757	-28.171	14.101	8.2139997
134	1	1	-0.189372	-29.787001	15.559	7.6599998
135	1	4	0.21875399	-29.782	16.061001	8.6199999
136	1	1	0.46619299	-30.639999	15.96	6.6880002
137	1	3	-0.30941501	-31.528999	17.052999	6.9580002
138	1	7	0.61749899	-32.395	17.472	6.1240001
139	1	2	-0.22476	-33.237	17.881001	5.3140001
140	1	1	-0.124904	-30.636999	15.257	5.362
141	1	4	0.23453	-31.301001	15.551	4.5599999
142	1	1	-0.10523	-29.782	14.245	5.1960001
143	1	1	0.70371097	-29.533001	13.374	4.053
144	1	2	-0.53250802	-30.101	13.467	2.9319999
145	1	1	-0.34752899	-28.937	10.656	2.599
146	1	4	0.20711	-29.986	10.916	2.5710001
147	1	1	-0.14957	-28.486	9.6759996	1.807
148	1	4	0.21527299	-29.179001	9.1960001	1.13
149	1	1	-0.33252099	-27.320999	7.1760001	0.55299997
150	1	4	0.20878901	-28.351	7.1069999	0.875
151	1	1	0.018395999	-26.761	6.0999999	-0.301
152	1	1	-0.124368	-27.628	4.987	-0.76800001
153	1	1	-0.169044	-28.895	5.2189999	-1.1569999
154	1	4	0.214945	-29.304001	6.2220001	-1.155
155	1	1	-0.169044	-29.754999	4.112	-1.623
156	1	4	0.214945	-30.775	4.3369999	-1.905
157	1	1	-0.056586999	-29.283001	2.852	-1.673
158	1	1	-0.058554001	-30.139	1.726	-2.1289999
159	1	1	-0.164729	-30.989	1.87	-3.1670001
160	1	4	0.217122	-31.059999	2.8069999	-3.7049999
161	1	1	-0.176971	-31.822001	0.73500001	-3.6159999
162	1	4	0.233766	-32.499001	0.86199999	-4.4499998
163	1	1	-0.21882001	-31.737	-0.447	-2.9960001
164	1	4	0.23660301	-32.345001	-1.28	-3.326
165	1	1	-0.176971	-30.812	-0.61900002	-1.859
166	1	4	0.233766	-30.750999	-1.575	-1.357
167	1	1	-0.164729	-30.055	0.40599999	-1.448
168	1	4	0.217122	-29.395	0.26800001	-0.60100001
169	1	1	-0.169044	-27.886999	2.5929999	-1.2410001
170	1	4	0.214945	-27.481001	1.59	-1.277
171	1	1	-0.169044	-27.110001	3.595	-0.81400001
172	1	4	0.214945	-26.1	3.3759999	-0.49000001
173	1	1	-0.33252099	-25.459999	6.145	-0.63499999
174	1	4	0.20878901	-25.028999	5.3639998	-1.247
175	1	1	-0.14957	-22.645	6.724	-1.744
176	1	4	0.21527299	-23.315001	6.257	-2.4519999
177	1	1	-0.34752899	-21.337999	6.7680001	-2.027
178	1	4	0.20711	-20.979	6.3070002	-2.9360001
179	1	1	0.71566898	-18.379999	7.5630002	-2.701
180	1	2	-0.53250802	-19.017	7.79	-3.7639999
181	1	5	0.328161	-12.793	6.2379999	-0.472
182	1	6	-0.016845001	12.558	-0.71499997	-0.118
183	1	1	0.39024001	11.813	-0.92400002	-1.276
184	1	1	-0.346468	10.475	-0.86199999	-1.226
185	1	4	0.24562	9.9720001	-0.64999998	-0.29100001
186	1	1	0.01651	9.677	-1.0829999	-2.45
187	1	4	0.24019399	8.5959997	-1.0319999	-2.404
188	1	1	-0.43204901	10.288	-1.345	-3.612
189	1	4	0.251766	9.7019997	-1.506	-4.507
190	1	1	0.46557701	11.764	-1.415	-3.675
191	1	8	-0.64476001	12.384	-1.689	-4.8930001
192	1	9	0.449058	13.393	-1.745	-4.9770002
193	1	1	-0.470388	12.489	-1.214	-2.562
194	1	4	0.248253	13.57	-1.263	-2.599

Bonds

1	1	1	2
2	2	1	3
3	3	1	98
4	4	3	4
5	5	3	85
6	6	4	5
7	6	4	11
8	7	5	6
9	6	5	7
10	7	7	8
11	6	7	9
12	6	9	10
13	3	9	83
14	6	10	11
15	3	10	13
16	7	11	12
17	1	13	14
18	2	13	15
19	4	15	16
20	2	15	83
21	6	16	17
22	6	16	81
23	7	17	18
24	6	17	19
25	7	19	20
26	6	19	21
27	3	21	22
28	6	21	79
29	8	22	23
30	6	22	77
31	8	23	24
32	3	24	25
33	6	24	53
34	6	25	26
35	6	25	51
36	7	26	27
37	6	26	28
38	7	28	29
39	6	28	30
40	4	30	31
41	6	30	49
42	2	31	32
43	2	31	47
44	1	32	33
45	3	32	34
46	6	34	35
47	6	34	46
48	7	35	36
49	6	35	37
50	7	37	38
51	6	37	39
52	4	39	40
53	6	39	44
54	2	40	41
55	5	40	43
56	1	41	42
57	9	41	86
58	7	44	45
59	6	44	46
60	3	46	47
61	1	47	48
62	7	49	50
63	6	49	51
64	7	51	52
65	7	53	54
66	6	53	55
67	3	55	56
68	6	55	77
69	6	56	57
70	6	56	75
71	7	57	58
72	6	57	59
73	7	59	60
74	6	59	61
75	3	61	62
76	6	61	73
77	6	62	63
78	6	62	71
79	7	63	64
80	6	63	65
81	7	65	66
82	6	65	67
83	7	67	68
84	6	67	69
85	7	69	70
86	6	69	71
87	7	71	72
88	7	73	74
89	6	73	75
90	7	75	76
91	7	77	78
92	7	79	80
93	6	79	81
94	7	81	82
95	1	83	84
96	10	86	87
97	6	87	88
98	6	87	96
99	7	88	89
100	6	88	90
101	7	90	91
102	6	90	92
103	7	92	93
104	6	92	94
105	10	94	95
106	6	94	96
107	11	95	182
108	7	96	97
109	1	98	99
110	2	98	100
111	4	100	101
112	5	100	181
113	6	101	102
114	6	101	108
115	7	102	103
116	6	102	104
117	7	104	105
118	6	104	106
119	6	106	107
120	3	106	179
121	6	107	108
122	3	107	110
123	7	108	109
124	1	110	111
125	2	110	112
126	4	112	113
127	2	112	179
128	6	113	114
129	6	113	177
130	7	114	115
131	6	114	116
132	7	116	117
133	6	116	118
134	3	118	119
135	6	118	175
136	8	119	120
137	6	119	173
138	8	120	121
139	3	121	122
140	6	121	149
141	6	122	123
142	6	122	147
143	7	123	124
144	6	123	125
145	7	125	126
146	6	125	127
147	4	127	128
148	6	127	145
149	2	128	129
150	2	128	143
151	1	129	130
152	3	129	131
153	6	131	132
154	6	131	142
155	7	132	133
156	6	132	134
157	7	134	135
158	6	134	136
159	12	136	137
160	6	136	140
161	13	137	138
162	1	138	139
163	7	140	141
164	6	140	142
165	3	142	143
166	1	143	144
167	7	145	146
168	6	145	147
169	7	147	148
170	7	149	150
171	6	149	151
172	3	151	152
173	6	151	173
174	6	152	153
175	6	152	171
176	7	153	154
177	6	153	155
178	7	155	156
179	6	155	157
180	3	157	158
181	6	157	169
182	6	158	159
183	6	158	167
184	7	159	160
185	6	159	161
186	7	161	162
187	6	161	163
188	7	163	164
189	6	163	165
190	7	165	166
191	6	165	167
192	7	167	168
193	7	169	170
194	6	169	171
195	7	171	172
196	7	173	174
197	7	175	176
198	6	175	177
199	7	177	178
200	1	179	180
201	10	182	183
202	6	183	184
203	6	183	193
204	7	184	185
205	6	184	186
206	7	186	187
207	6	186	188
208	7	188	189
209	6	188	190
210	14	190	191
211	6	190	193
212	15	191	192
213	7	193	194

Angles

1	3	159	158	167
2	4	90	92	93
3	3	106	107	110
4	5	11	10	13
5	3	152	153	155
6	3	31	32	34
7	1	16	15	83
8	3	35	37	39
9	3	149	151	152
10	4	158	159	160
11	4	145	147	148
12	4	16	81	82
13	3	16	17	19
14	3	121	122	123
15	4	29	28	30
16	3	30	49	51
17	3	1	98	100
18	3	157	169	171
19	4	17	19	20
20	4	141	140	142
21	3	186	188	190
22	3	104	106	107
23	3	39	44	46
24	3	34	46	44
25	1	39	40	41
26	4	45	44	46
27	3	128	129	131
28	4	93	92	94
29	4	24	53	54
30	3	132	134	136
31	3	131	142	140
32	3	15	16	17
33	3	62	61	73
34	4	105	104	106
35	1	127	128	129
36	4	87	96	97
37	4	150	149	151
38	3	63	62	71
39	3	9	10	13
40	4	114	116	117
41	4	184	186	187
42	4	101	108	109
43	3	23	24	53
44	4	119	173	174
45	4	25	26	27
46	3	116	118	175
47	3	32	34	46
48	4	94	96	97
49	10	137	138	139
50	4	67	69	70
51	3	61	73	75
52	3	95	94	96
53	4	159	161	162
54	4	60	59	61
55	1	113	112	179
56	4	4	5	6
57	3	183	184	186
58	3	21	79	81
59	4	101	102	103
60	6	31	32	33
61	3	134	136	140
62	3	163	165	167
63	3	24	25	51
64	3	19	21	79
65	3	112	113	114
66	3	158	167	165
67	3	153	152	171
68	6	46	47	48
69	4	16	17	18
70	3	191	190	193
71	3	122	123	125
72	3	31	47	46
73	4	25	51	52
74	4	152	171	172
75	4	157	169	170
76	3	100	101	108
77	4	36	35	37
78	3	128	127	145
79	3	125	127	145
80	3	184	183	193
81	6	128	129	130
82	4	166	165	167
83	4	161	163	164
84	4	187	186	188
85	3	118	119	120
86	4	88	90	91
87	3	5	4	11
88	4	57	59	60
89	3	65	67	69
90	3	35	34	46
91	3	2	1	98
92	4	175	177	178
93	7	22	23	24
94	3	151	152	153
95	3	155	157	169
96	3	10	13	15
97	3	34	46	47
98	4	176	175	177
99	6	112	179	180
100	3	21	22	23
101	3	86	87	96
102	3	153	155	157
103	3	131	142	143
104	4	102	104	105
105	3	188	190	191
106	3	7	9	10
107	4	89	88	90
108	4	56	75	76
109	3	25	51	49
110	3	31	30	49
111	4	79	81	82
112	4	189	188	190
113	3	55	56	57
114	4	154	153	155
115	6	33	32	34
116	4	21	79	80
117	3	28	30	31
118	3	3	1	98
119	3	182	183	184
120	4	50	49	51
121	4	122	147	148
122	3	59	61	73
123	5	129	131	132
124	3	62	63	65
125	4	122	123	124
126	3	92	94	95
127	3	157	158	167
128	4	164	163	165
129	6	130	129	131
130	3	61	62	63
131	3	56	55	77
132	3	114	113	177
133	3	17	16	81
134	3	131	132	134
135	4	158	167	168
136	2	1	3	85
137	4	156	155	157
138	3	56	75	73
139	3	25	24	53
140	3	128	143	142
141	4	170	169	171
142	4	165	167	168
143	1	110	112	179
144	4	66	65	67
145	4	133	132	134
146	3	40	41	86
147	3	26	28	30
148	3	125	127	128
149	5	32	34	35
150	3	127	145	147
151	3	122	147	145
152	3	118	175	177
153	2	101	100	181
154	3	132	131	142
155	3	19	21	22
156	2	41	40	43
157	4	146	145	147
158	3	23	22	77
159	3	136	140	142
160	3	63	65	67
161	3	5	7	9
162	6	111	110	112
163	3	22	77	55
164	1	13	15	83
165	6	142	143	144
166	4	74	73	75
167	4	69	71	72
168	4	152	153	154
169	3	123	122	147
170	4	35	37	38
171	3	56	57	59
172	4	20	19	21
173	3	129	131	142
174	8	95	182	183
175	4	62	63	64
176	3	122	121	149
177	2	4	3	85
178	6	31	47	48
179	3	102	101	108
180	4	124	123	125
181	4	30	49	50
182	3	107	106	179
183	3	116	118	119
184	3	1	98	99
185	4	160	159	161
186	1	30	31	32
187	4	186	188	189
188	3	90	92	94
189	4	39	44	45
190	3	123	125	127
191	4	169	171	172
192	3	149	151	173
193	4	132	134	135
194	3	34	35	37
195	3	87	88	90
196	6	14	13	15
197	3	9	83	15
198	3	17	19	21
199	3	28	30	49
200	3	155	157	158
201	4	26	28	29
202	3	62	71	69
203	3	158	157	169
204	5	104	106	179
205	4	127	145	146
206	3	113	114	116
207	4	113	177	178
208	4	6	5	7
209	7	119	120	121
210	4	27	26	28
211	4	54	53	55
212	6	106	179	180
213	4	61	73	74
214	4	49	51	52
215	3	118	119	173
216	3	184	186	188
217	7	136	137	138
218	4	63	65	66
219	4	183	184	185
220	1	1	3	4
221	3	10	9	83
222	3	182	183	193
223	3	53	55	77
224	3	106	107	108
225	4	91	90	92
226	3	40	39	44
227	3	37	39	44
228	4	163	165	166
229	3	188	190	193
230	4	64	63	65
231	3	107	110	112
232	3	59	61	62
233	3	67	69	71
234	1	127	128	143
235	5	108	107	110
236	3	57	56	75
237	4	73	75	76
238	4	117	116	118
239	5	140	142	143
240	4	22	77	78
241	3	4	5	7
242	5	44	46	47
243	4	10	11	12
244	3	101	102	104
245	4	123	125	126
246	3	23	24	25
247	1	98	100	101
248	4	107	108	109
249	3	88	87	96
250	3	183	193	190
251	4	34	35	36
252	3	113	177	175
253	4	70	69	71
254	4	65	67	68
255	2	98	100	181
256	3	112	113	177
257	4	87	88	89
258	3	15	16	81
259	3	9	10	11
260	4	103	102	104
261	6	10	13	14
262	3	101	108	107
263	2	39	40	43
264	4	80	79	81
265	4	153	155	156
266	3	161	163	165
267	4	113	114	115
268	4	18	17	19
269	8	94	95	182
270	4	183	193	194
271	3	121	122	147
272	3	88	90	92
273	3	40	41	42
274	3	57	59	61
275	4	68	67	69
276	3	21	22	77
277	3	99	98	100
278	6	128	143	144
279	3	100	101	102
280	4	62	71	72
281	8	190	191	192
282	6	9	83	84
283	4	58	57	59
284	3	53	55	56
285	3	106	179	112
286	3	86	87	88
287	4	185	184	186
288	3	102	104	106
289	6	107	110	111
290	3	16	81	79
291	4	8	7	9
292	8	41	86	87
293	3	121	149	151
294	3	61	62	71
295	6	15	83	84
296	4	135	134	136
297	3	120	121	149
298	3	119	118	175
299	4	131	132	133
300	3	158	159	161
301	4	126	125	127
302	3	120	119	173
303	3	151	152	171
304	3	92	94	96
305	3	3	4	5
306	3	87	96	94
307	4	38	37	39
308	3	157	158	159
309	3	152	151	173
310	3	4	11	10
311	4	151	173	174
312	3	119	173	151
313	3	26	25	51
314	3	137	136	140
315	3	24	53	55
316	3	22	21	79
317	3	2	1	3
318	4	190	193	194
319	3	37	39	40
320	3	120	121	122
321	4	118	175	176
322	1	13	15	16
323	1	30	31	47
324	3	114	116	118
325	4	162	161	163
326	3	55	56	75
327	4	136	140	141
328	4	5	7	8
329	3	25	26	28
330	3	134	136	137
331	4	56	57	58
332	1	129	128	143
333	1	32	31	47
334	4	115	114	116
335	1	110	112	113
336	3	24	25	26
337	3	3	4	11
338	4	55	77	78
339	3	159	161	163
340	4	121	149	150
341	3	152	171	169
342	5	7	9	83
343	4	4	11	12
344	9	42	41	86

Dihedrals

1	9	191	190	193	194
2	1	32	31	30	49
3	9	65	63	62	71
4	9	102	101	108	109
5	9	24	53	55	77
6	9	136	140	142	143
7	9	3	4	11	12
8	9	183	193	190	188
9	9	26	28	30	31
10	9	116	114	113	177
11	10	30	31	32	33
12	1	43	40	39	44
13	11	116	118	119	120
14	9	100	101	102	104
15	9	114	113	177	175
16	14	40	41	86	87
17	1	47	31	30	49
18	9	185	184	186	188
19	9	95	94	96	97
20	9	22	21	79	80
21	9	153	152	171	169
22	8	107	106	179	112
23	9	61	62	71	72
24	9	18	17	19	20
25	9	133	132	134	135
26	11	120	119	118	175
27	9	125	127	145	147
28	9	184	183	193	190
29	9	60	59	61	62
30	9	8	7	9	83
31	9	58	57	59	60
32	9	113	177	175	176
33	10	129	128	143	144
34	9	15	16	81	79
35	9	150	149	151	173
36	9	152	153	155	157
37	9	132	131	142	140
38	9	62	63	65	66
39	9	59	57	56	75
40	9	100	101	108	107
41	9	155	153	152	171
42	9	102	104	106	179
43	9	163	165	167	168
44	9	126	125	127	145
45	12	118	119	120	121
46	9	183	184	186	187
47	9	31	30	49	51
48	11	53	55	56	57
49	11	63	62	61	73
50	12	22	23	24	25
51	9	88	87	96	97
52	9	120	119	173	151
53	11	116	118	119	173
54	6	2	1	3	85
54	7	2	1	3	85
55	9	110	107	106	179
56	9	184	183	193	194
57	8	128	143	142	140
58	9	120	121	149	151
59	11	155	157	158	159
60	10	127	128	143	142
61	9	156	155	157	158
62	9	16	17	19	21
63	9	184	186	188	190
64	9	131	142	140	136
65	15	41	86	87	96
66	10	30	31	47	46
67	9	28	26	25	51
68	9	17	19	21	22
69	9	26	25	51	49
70	9	103	102	104	106
71	9	23	24	53	55
72	9	28	30	49	50
73	11	19	21	22	77
74	10	107	110	112	113
75	9	19	21	79	81
76	9	189	188	190	193
77	8	128	129	131	142
78	9	115	114	116	117
79	9	61	62	71	69
80	8	11	10	13	15
81	9	20	19	21	79
82	9	159	158	167	165
83	9	113	114	116	117
84	9	25	51	49	50
85	8	3	1	98	99
86	9	182	183	184	185
87	9	61	73	75	76
88	9	122	123	125	126
89	9	57	59	61	73
90	9	57	59	61	62
91	9	17	16	81	79
92	9	64	63	65	67
93	9	157	158	167	168
94	9	162	161	163	165
95	11	149	151	152	153
96	1	81	16	15	83
97	9	129	131	142	143
98	9	119	173	151	152
99	9	62	61	73	75
100	9	24	53	55	56
101	9	64	63	62	71
102	8	33	32	34	35
103	9	154	153	155	156
104	9	100	101	102	103
105	9	185	184	186	187
106	9	57	56	75	76
107	9	87	96	94	95
108	9	121	122	123	124
109	11	57	56	55	77
110	9	27	26	25	51
111	10	110	112	179	180
112	10	106	179	112	113
113	9	117	116	118	175
114	1	1	3	4	5
115	2	85	3	1	98
115	3	85	3	1	98
116	9	125	127	145	146
117	1	28	30	31	32
118	9	37	39	44	46
119	1	37	39	40	41
120	9	105	104	106	179
121	10	10	13	15	83
122	9	129	131	132	134
123	9	80	79	81	82
124	8	2	1	98	99
125	9	150	149	151	152
126	9	183	193	190	191
127	9	38	37	39	40
128	9	32	34	35	37
129	10	111	110	112	179
130	2	39	40	41	42
130	3	39	40	41	42
131	9	153	152	171	172
132	9	6	5	4	11
133	9	158	167	165	163
134	9	39	44	46	47
135	9	63	65	67	69
136	9	122	147	145	127
137	9	161	163	165	167
138	9	123	125	127	128
139	9	4	11	10	9
140	9	155	157	169	171
141	9	15	16	81	82
142	8	3	1	98	100
143	9	15	16	17	19
144	9	26	28	30	49
145	9	137	136	140	141
146	9	16	17	19	20
147	11	23	24	25	26
148	9	29	28	30	31
149	9	184	186	188	189
150	8	10	9	83	84
151	9	152	151	173	174
152	8	31	32	34	46
153	9	38	37	39	44
154	9	116	118	175	177
155	1	129	128	127	145
156	9	153	155	157	158
157	9	103	102	104	105
158	9	23	24	53	54
159	9	57	56	75	73
160	9	120	119	173	174
161	9	126	125	127	128
162	9	124	123	125	126
163	9	160	159	161	162
164	9	59	61	73	74
165	9	118	119	173	151
166	9	158	157	169	171
167	9	186	188	190	193
168	9	108	107	106	179
169	1	1	3	4	11
170	8	11	10	13	14
171	11	120	121	122	123
172	9	7	9	10	13
173	9	56	57	59	61
174	11	19	21	22	23
175	11	153	152	151	173
176	11	77	22	21	79
177	9	119	118	175	177
178	9	102	101	108	107
179	9	24	25	26	28
180	9	62	61	73	74
181	9	90	92	94	96
182	15	41	86	87	88
183	8	106	107	110	112
184	9	127	145	147	148
185	11	173	119	118	175
186	9	86	87	88	89
187	4	2	1	3	4
187	5	2	1	3	4
188	9	21	79	81	82
189	9	26	25	51	52
190	1	98	100	101	102
191	9	9	10	11	12
192	9	25	26	28	30
193	9	8	7	9	10
194	11	120	121	122	147
195	9	176	175	177	178
196	9	36	35	34	46
197	9	128	127	145	147
198	9	68	67	69	71
199	9	66	65	67	69
200	9	54	53	55	77
201	9	34	35	37	39
202	9	123	125	127	145
203	9	104	102	101	108
204	9	159	158	167	168
205	8	10	9	83	15
206	9	157	169	171	172
207	9	115	114	113	177
208	10	14	13	15	83
209	9	37	39	44	45
210	9	91	90	92	93
211	9	17	16	81	82
212	9	89	88	90	91
213	9	134	136	140	142
214	9	56	75	73	61
215	9	157	158	159	161
216	9	159	161	163	165
217	15	95	182	183	184
218	9	135	134	136	137
219	9	5	4	11	10
220	8	9	10	13	14
221	9	32	34	35	36
222	9	113	177	175	118
223	4	99	98	100	101
223	5	99	98	100	101
224	9	122	147	145	146
225	9	125	123	122	147
226	9	132	134	136	137
227	9	63	65	67	68
228	9	58	57	56	75
229	9	16	81	79	21
230	10	16	15	83	84
231	9	123	122	147	145
232	9	70	69	71	72
233	2	1	98	100	101
233	3	1	98	100	101
234	21	192	191	190	193
235	9	56	75	73	74
236	9	18	17	16	81
237	10	30	31	47	48
238	9	100	101	108	109
239	10	13	15	83	84
240	2	1	98	100	181
240	3	1	98	100	181
241	9	20	19	21	22
242	9	86	87	96	94
243	8	108	107	110	112
244	15	92	94	95	182
245	9	65	67	69	71
246	1	41	40	39	44
247	9	187	186	188	190
248	1	13	15	16	81
249	9	116	118	175	176
250	9	87	88	90	92
251	9	102	104	106	107
252	1	98	100	101	108
253	10	131	129	128	143
254	1	108	101	100	181
255	10	130	129	128	143
256	9	12	11	10	13
257	9	55	56	75	73
258	11	59	61	62	71
259	9	27	26	28	30
260	9	158	167	165	166
261	9	151	152	171	169
262	9	88	90	92	94
263	9	158	157	169	170
264	9	35	34	46	47
265	9	103	102	101	108
266	8	104	106	179	180
267	9	36	35	37	39
268	9	131	132	134	135
269	9	121	149	151	173
270	9	146	145	147	148
271	13	119	120	121	149
272	9	56	55	77	78
273	11	167	158	157	169
274	11	23	24	25	51
275	9	55	56	57	59
276	9	56	57	59	60
277	10	127	128	143	144
278	9	6	5	7	9
279	9	104	106	107	108
280	9	24	25	26	27
281	1	110	112	113	114
282	8	106	107	110	111
283	11	51	25	24	53
284	13	22	23	24	53
285	9	37	35	34	46
286	9	141	140	142	143
287	9	118	119	173	174
288	1	177	113	112	179
289	10	14	13	15	16
290	16	42	41	40	43
290	17	42	41	40	43
291	8	34	46	47	48
292	9	68	67	69	70
293	9	66	65	67	68
294	9	34	35	37	38
295	9	40	39	44	46
296	9	54	53	55	56
297	11	23	22	21	79
298	9	134	132	131	142
299	9	29	28	30	49
300	11	147	122	121	149
301	12	119	120	121	122
302	9	122	121	149	151
303	9	25	51	49	30
304	9	34	46	44	39
305	9	152	171	169	157
306	9	152	153	155	156
307	9	5	7	9	83
308	11	123	122	121	149
309	9	159	161	163	164
310	9	154	153	152	171
311	15	96	94	95	182
312	10	30	31	32	34
313	9	166	165	167	168
314	9	186	184	183	193
315	9	63	62	71	69
316	9	31	30	49	50
317	9	22	21	79	81
318	9	109	108	107	110
319	10	9	83	15	13
320	11	159	158	157	169
321	9	18	17	19	21
322	8	130	129	131	132
323	9	114	116	118	119
324	9	35	34	46	44
325	9	61	62	63	65
326	9	11	10	9	83
327	9	24	25	51	52
328	10	107	110	112	179
329	9	120	121	149	150
330	1	37	39	40	43
331	9	62	63	65	67
332	2	39	40	41	86
332	3	39	40	41	86
333	10	33	32	31	47
334	9	135	134	136	140
335	9	65	67	69	70
336	19	134	136	137	138
337	9	112	113	177	175
338	8	31	32	34	35
339	9	87	88	90	91
340	9	19	21	79	80
341	9	50	49	51	52
342	10	113	112	179	180
343	9	88	90	92	93
344	9	186	188	190	191
345	9	132	134	136	140
346	11	26	25	24	53
347	9	185	184	183	193
348	9	101	102	104	106
349	9	123	122	147	148
350	9	93	92	94	96
351	8	31	47	46	34
352	9	34	46	44	45
353	9	6	5	7	8
354	9	64	63	65	66
355	9	32	34	46	47
356	9	162	161	163	164
357	9	86	87	96	97
358	1	125	127	128	143
359	8	104	106	179	112
360	21	188	190	191	192
361	2	4	3	1	98
361	3	4	3	1	98
362	1	102	101	100	181
363	11	71	62	61	73
364	9	28	30	49	51
365	9	55	56	75	76
366	9	151	152	171	172
367	9	182	183	193	194
368	11	59	61	62	63
369	10	10	13	15	16
370	1	17	16	15	83
371	2	43	40	41	86
371	3	43	40	41	86
372	9	105	104	106	107
373	9	24	25	51	49
374	1	143	128	127	145
375	9	122	123	125	127
376	10	129	128	143	142
377	9	122	121	149	150
378	9	129	131	132	133
379	15	95	182	183	193
380	9	131	142	140	141
381	9	188	190	193	194
382	9	3	4	5	7
383	8	131	142	143	144
384	9	21	22	77	55
385	9	62	71	69	67
386	9	154	153	155	157
387	11	53	55	56	75
388	9	35	37	39	40
389	9	13	10	9	83
390	8	7	9	83	15
391	9	121	122	123	125
392	9	158	159	161	163
393	1	110	112	113	177
394	8	130	129	131	142
395	9	22	77	55	53
396	9	61	62	63	64
397	9	161	163	165	166
398	9	60	59	61	73
399	9	53	55	77	78
400	6	99	98	100	181
400	7	99	98	100	181
401	9	4	5	7	9
402	9	155	157	169	170
403	13	24	23	22	77
404	9	15	16	17	18
405	9	19	17	16	81
406	9	32	34	46	44
407	8	2	1	98	100
408	9	23	22	77	55
409	9	124	123	122	147
410	9	35	37	39	44
411	9	63	62	71	72
412	9	74	73	75	76
413	9	149	151	173	174
414	9	160	159	158	167
415	9	170	169	171	172
416	1	125	127	128	129
417	9	106	107	108	109
418	11	171	152	151	173
419	9	7	5	4	11
420	10	9	83	15	16
421	9	189	188	190	191
422	9	25	24	53	55
423	8	31	47	46	44
424	9	101	102	104	105
425	9	118	175	177	178
426	11	75	56	55	77
427	9	93	92	94	95
428	1	13	15	16	17
429	9	121	122	147	148
430	9	156	155	157	169
431	11	149	151	152	171
432	9	151	152	153	155
433	8	128	143	142	131
434	9	119	118	175	176
435	9	137	136	140	142
436	10	111	110	112	113
437	13	121	120	119	173
438	1	114	113	112	179
439	9	92	94	96	97
440	8	44	46	47	48
441	9	90	92	94	95
442	9	101	108	107	106
443	9	5	4	11	12
444	20	136	137	138	139
445	9	16	81	79	80
446	18	94	95	182	183
447	9	112	113	177	178
448	10	127	128	129	131
449	9	161	159	158	167
450	9	124	123	125	127
451	9	160	159	161	163
452	9	25	26	28	29
453	9	59	61	73	75
454	9	112	113	114	116
455	9	128	127	145	146
456	9	164	163	165	167
457	9	45	44	46	47
458	9	5	7	9	10
459	9	17	19	21	79
460	8	107	106	179	180
461	9	134	136	140	141
462	9	114	116	118	175
463	8	140	142	143	144
464	9	104	106	107	110
465	9	157	158	159	160
466	9	101	108	107	110
467	9	3	4	5	6
468	12	21	22	23	24
469	8	33	32	34	46
470	9	86	87	88	90
471	15	42	41	86	87
472	9	158	159	161	162
473	9	133	132	131	142
474	9	30	49	51	52
475	9	88	87	96	94
476	9	133	132	134	136
477	9	4	5	7	8
478	9	121	122	147	145
479	9	90	88	87	96
480	11	155	157	158	167
481	9	58	57	59	61
482	19	138	137	136	140
483	9	152	171	169	170
484	9	91	90	92	94
485	9	89	88	90	92
486	9	21	22	77	78
487	9	3	4	11	10
488	9	62	71	69	70
489	8	108	107	110	111
490	9	117	116	118	119
491	8	9	10	13	15
492	9	187	186	188	189
493	9	114	113	177	178
494	9	119	173	151	149
495	9	183	184	186	188
496	10	34	32	31	47
497	1	11	4	3	85
498	9	27	26	28	29
499	9	182	183	193	190
500	9	22	77	55	56
501	1	5	4	3	85
502	9	36	35	37	38
503	10	32	31	47	48
504	9	25	24	53	54
505	1	28	30	31	47
506	10	32	31	47	46
507	9	67	69	71	72
508	9	121	149	151	152
509	9	7	9	10	11
510	9	55	56	57	58
511	8	7	9	83	84
512	9	151	152	153	154
513	9	23	22	77	78
514	9	4	11	10	13
515	9	132	131	142	143
516	9	157	158	167	165
517	9	129	131	142	140
518	9	89	88	87	96
519	9	153	155	157	169
520	10	127	128	129	130
521	9	87	96	94	92
522	9	112	113	114	115
523	9	164	163	165	166
524	9	115	114	116	118
525	8	128	129	131	132
526	9	131	132	134	136
527	10	106	179	112	110
528	9	113	114	116	118
529	9	182	183	184	186
530	9	40	39	44	45

Impropers

4	2	179	112	180	106
5	3	41	42	86	40
6	2	46	34	44	47
7	2	73	61	74	75
8	2	131	129	132	142
12	2	175	176	177	118