Title

194 atoms
213 bonds
344 angles
542 dihedrals
336 impropers

9 atom types
15 bond types
10 angle types
21 dihedral types
3 improper types
-33.23699951 66.76300049 xlo xhi
-12.43900013 87.56099987 ylo yhi
-4.977000237 95.02299976 zlo zhi
0.0 0.0 0.0 xy xz yz

Masses

1	12.01078
2	15.99943
3	14.00672
4	1.007947
5	1.007947
6	15.99943
7	12.01078
8	15.99943
9	1.007947


Pair Coeffs

1	0.086879315	3.4806469
2	0.2102061	3.0398122
3	0.16769152	3.206876
4	0.015611343	2.5725815
5	0.014090815	1.1034277
6	0.16846514	3.0251065
7	0.21	3.3996695
8	0.20947353	2.99716
9	1.2326e-05	0.53453923

Bond Coeffs

1 harmonic	582.698766451	1.225198386222
2 harmonic	492.76746816345	1.381897776683
3 harmonic	279.1350963404	1.454628925034
4 harmonic	390.03554688505	1.390160554689
5 harmonic	505.144496193	1.019481865027
6 harmonic	360.7852444772	1.387193227181
7 harmonic	397.2545789619	1.085358495916
8 harmonic	445.3060766333	1.328776712165
9 harmonic	301.15400723785	1.345741232799
10 harmonic	425.69104206635	1.362945806494
11 harmonic	300.03137914615	1.451203938761
12 harmonic	382.5450169811	1.379244394267
13 harmonic	602.81384337	1.196112346392
14 harmonic	385.7604595587	1.369745182308
15 harmonic	543.5267831885	0.9716763312559


Angle Coeffs

1 harmonic	55.42182150775	117.3465570514
2 harmonic	63.44422595415	115.5071327674
3 harmonic	57.8982893754	126.8062420451
4 harmonic	34.066775159195	129.1835929926
5 harmonic	14.32262199324	138.3184368373
6 harmonic	39.628116874445	129.8027304608
7 harmonic	55.07882548015	112.8714009681
8 harmonic	65.09061609600001	110.3538806181
9 harmonic	201.41175231035	127.4691416191
10 harmonic	33.56981613361	180


Dihedral Coeffs

1 fourier 1	1.193093382682	2	180
2 fourier 1	1.809047390003	2	180
3 fourier 1	-0.04816277792592	1	0
4 fourier 1	3.101948770557	2	180
5 fourier 1	-0.4252153282372	1	0
6 fourier 1	2.348375642009	2	180
7 fourier 1	1.256156174911	1	0
8 fourier 1	0.9974165607242	2	180
9 fourier 1	3.661930099076	2	180
10 fourier 1	1.57666786751	2	180
11 fourier 1	1.163235555439	2	180
12 fourier 1	3.731869940596	2	180
13 fourier 1	5.913282223828	2	180
14 fourier 1	2.779853741805	2	180
15 fourier 1	1.532232714475	2	180
16 fourier 1	0.4860993122944	2	180
17 fourier 1	0.8916986138746	1	0
18 fourier 1	0.457973137376	1	0
19 fourier 1	1.550515418264	2	180
20 fourier 1	0	1	0
21 fourier 1	0.8283030590042	2	180


Improper Coeffs

1 0.3333333333333333	-1	2
2 0.3666666666666667	-1	2
3 3.5	-1	2


Atoms

1	1	1	0.57692599	-10.786	7.0689998	-1.607
2	1	2	-0.57608598	-9.8739996	6.9429998	-2.467
3	1	3	-0.50417399	-10.535	6.8340001	-0.21699999
4	1	1	0.23763201	-9.3330002	6.2350001	0.296
5	1	1	-0.38348699	-8.882	6.5929999	1.525
6	1	4	0.213415	-9.408	7.342	2.1040001
7	1	1	0.11409	-7.6529999	5.9819999	2.098
8	1	4	0.217655	-7.2870002	6.2729998	3.075
9	1	1	-0.247325	-7.02	5.0650001	1.367
10	1	1	-0.169808	-7.5079999	4.6500001	0.068000004
11	1	1	-0.14394601	-8.6049995	5.1789999	-0.47799999
12	1	4	0.220456	-8.9650002	4.823	-1.434
13	1	1	0.71222597	-6.6009998	3.6129999	-0.41
14	1	2	-0.53250802	-6.6820002	3.0339999	-1.526
15	1	3	-0.52950001	-5.5609999	3.3789999	0.55000001
16	1	1	0.239812	-4.4910002	2.4230001	0.447
17	1	1	-0.34752899	-3.26	2.723	0.89300001
18	1	4	0.20711	-3.046	3.6949999	1.316
19	1	1	-0.14957	-2.1619999	1.74	0.78500003
20	1	4	0.21527299	-1.186	2.0179999	1.163
21	1	1	-0.193261	-2.378	0.52399999	0.245
22	1	1	0.362441	-1.272	-0.463	0.145
23	1	3	-0.70877999	-0.039999999	-0.043000001	0.098999999
24	1	1	0.362441	1.091	-0.92900002	0.011
25	1	1	-0.193261	2.454	-0.329	-0.043000001
26	1	1	-0.14957	3.516	-0.98100001	-0.56400001
27	1	4	0.21527299	3.424	-1.974	-0.98100001
28	1	1	-0.34752899	4.8410001	-0.33000001	-0.62900001
29	1	4	0.20711	5.6700001	-0.87400001	-1.063
30	1	1	0.239812	5.0019999	0.93199998	-0.2
31	1	3	-0.52950001	6.2789998	1.581	-0.29100001
32	1	1	0.71566898	6.526	2.934	-0.69499999
33	1	2	-0.53250802	5.6339998	3.734	-1.0829999
34	1	1	-0.247325	7.954	3.2249999	-0.63999999
35	1	1	0.11409	8.6400003	4.3249998	-0.94800001
36	1	4	0.217655	8.1409998	5.2150002	-1.306
37	1	1	-0.37519801	10.12	4.283	-0.79500002
38	1	4	0.213415	10.685	5.1560001	-1.089
39	1	1	0.26462799	10.742	3.1659999	-0.33000001
40	1	3	-0.49110699	12.173	3.102	-0.189
41	1	1	0.84024	13.013	4.2049999	0.178
42	1	2	-0.56869602	12.525	5.302	0.56400001
43	1	5	0.33228299	12.63	2.165	-0.25299999
44	1	1	-0.144714	9.9329996	1.947	-0.026000001
45	1	4	0.220456	10.404	1.033	0.31400001
46	1	1	-0.169808	8.6099997	2.017	-0.184
47	1	1	0.71222597	7.5619998	1.022	0.022
48	1	2	-0.53250802	7.7410002	-0.148	0.45500001
49	1	1	-0.34752899	3.842	1.658	0.36199999
50	1	4	0.20711	3.96	2.6689999	0.72899997
51	1	1	-0.14957	2.6459999	1.063	0.44499999
52	1	4	0.21527299	1.818	1.6109999	0.87699997
53	1	1	-0.33252099	0.875	-2.2590001	-0.0020000001
54	1	4	0.20878901	1.698	-2.9590001	-0.034000002
55	1	1	0.018395999	-0.50999999	-2.7869999	0.039000001
56	1	1	-0.124368	-0.74400002	-4.2529998	0.0060000001
57	1	1	-0.169044	-1.735	-4.783	-0.73500001
58	1	4	0.214945	-2.381	-4.152	-1.332
59	1	1	-0.169044	-1.937	-6.2449999	-0.787
60	1	4	0.214945	-2.724	-6.6339998	-1.421
61	1	1	-0.056586999	-1.137	-7.073	-0.088
62	1	1	-0.058554001	-1.314	-8.5469999	-0.147
63	1	1	-0.164729	-2.5420001	-9.1059999	-0.17200001
64	1	4	0.217122	-3.434	-8.4949999	-0.132
65	1	1	-0.176971	-2.697	-10.574	-0.22400001
66	1	4	0.233766	-3.688	-11.009	-0.241
67	1	1	-0.21882001	-1.617	-11.363	-0.245
68	1	4	0.23660301	-1.73	-12.439	-0.28099999
69	1	1	-0.176971	-0.26800001	-10.765	-0.219
70	1	4	0.233766	0.60399997	-11.406	-0.241
71	1	1	-0.164729	-0.122	-9.4350004	-0.17200001
72	1	4	0.217122	0.87599999	-9.0129995	-0.17299999
73	1	1	-0.169044	-0.048999999	-6.4889998	0.736
74	1	4	0.214945	0.59100002	-7.1300001	1.3279999
75	1	1	-0.169044	0.13699999	-5.164	0.77899998
76	1	4	0.214945	0.926	-4.7620001	1.401
77	1	1	-0.33252099	-1.5369999	-1.9220001	0.117
78	1	4	0.20878901	-2.5510001	-2.29	0.20299999
79	1	1	-0.14957	-3.7379999	0.20100001	-0.26300001
80	1	4	0.21527299	-3.9400001	-0.75	-0.73799998
81	1	1	-0.34752899	-4.7309999	1.094	-0.16500001
82	1	4	0.20711	-5.7160001	0.833	-0.52899998
83	1	1	0.71566898	-5.8270001	4.2719998	1.641
84	1	2	-0.53250802	-5.152	4.3179998	2.704
85	1	5	0.328161	-11.245	7.1919999	0.461
86	1	6	-0.43587601	14.054	4.0869999	0.16
87	1	1	0.37671801	14.635	2.8239999	0.075999998
88	1	1	-0.285312	15.969	2.7060001	0.055
89	1	4	0.243303	16.597	3.5869999	0.102
90	1	1	-0.040908001	16.594	1.369	-0.034000002
91	1	4	0.24019399	17.672001	1.279	-0.050999999
92	1	1	-0.346468	15.827	0.273	-0.093000002
93	1	4	0.24562	16.285999	-0.70499998	-0.15800001
94	1	1	0.32613301	14.353	0.39500001	-0.07
95	1	6	-0.016845001	13.57	-0.75599998	-0.132
96	1	1	-0.31589001	13.786	1.61	0.011
97	1	4	0.243204	12.708	1.71	0.028999999
98	1	1	0.57692599	-11.767	7.4000001	-1.9220001
99	1	2	-0.57608598	-11.861	8.3330002	-2.763
100	1	3	-0.50417399	-12.932	6.8049998	-1.3380001
101	1	1	0.23763201	-14.279	7.046	-1.779
102	1	1	-0.38348699	-14.577	7.2210002	-3.095
103	1	4	0.213415	-13.805	7.178	-3.8499999
104	1	1	0.11409	-15.983	7.4260001	-3.5369999
105	1	4	0.217655	-16.225	7.566	-4.5819998
106	1	1	-0.247325	-16.933001	7.4180002	-2.602
107	1	1	-0.169808	-16.628	7.2150002	-1.202
108	1	1	-0.14394601	-15.38	7.0250001	-0.77100003
109	1	4	0.220456	-15.174	6.8639998	0.27900001
110	1	1	0.71222597	-17.898001	7.2389998	-0.48699999
111	1	2	-0.53250802	-18.039	7.0430002	0.75
112	1	3	-0.52950001	-18.982	7.4590001	-1.402
113	1	1	0.239812	-20.388	7.427	-1.1
114	1	1	-0.34752899	-20.860001	7.994	0.023
115	1	4	0.20711	-20.193001	8.5030003	0.70700002
116	1	1	-0.14957	-22.302	7.9489999	0.33700001
117	1	4	0.21527299	-22.641001	8.4040003	1.26
118	1	1	-0.193261	-23.167	7.3309999	-0.491
119	1	1	0.362441	-24.612	7.2620001	-0.156
120	1	3	-0.70877999	-25.146	8.1879997	0.59100002
121	1	1	0.362441	-26.535	8.184	0.97000003
122	1	1	-0.193261	-27.052999	9.2749996	1.8380001
123	1	1	-0.14957	-26.216999	9.9379997	2.6589999
124	1	4	0.21527299	-25.166	9.6800003	2.7119999
125	1	1	-0.34752899	-26.716	11.019	3.533
126	1	4	0.20711	-26.011999	11.537	4.1700001
127	1	1	0.239812	-28.014	11.368	3.5150001
128	1	3	-0.52950001	-28.504	12.422	4.3639998
129	1	1	0.71566898	-28.110001	12.705	5.7160001
130	1	2	-0.53250802	-27.257	12.04	6.3629999
131	1	1	-0.28209499	-28.877001	13.826	6.2449999
132	1	1	0.039466001	-28.85	14.425	7.4359999
133	1	4	0.207757	-28.171	14.101	8.2139997
134	1	1	-0.189372	-29.787001	15.559	7.6599998
135	1	4	0.21875399	-29.782	16.061001	8.6199999
136	1	1	0.46619299	-30.639999	15.96	6.6880002
137	1	3	-0.30941501	-31.528999	17.052999	6.9580002
138	1	7	0.61749899	-32.395	17.472	6.1240001
139	1	2	-0.22476	-33.237	17.881001	5.3140001
140	1	1	-0.124904	-30.636999	15.257	5.362
141	1	4	0.23453	-31.301001	15.551	4.5599999
142	1	1	-0.10523	-29.782	14.245	5.1960001
143	1	1	0.70371097	-29.533001	13.374	4.053
144	1	2	-0.53250802	-30.101	13.467	2.9319999
145	1	1	-0.34752899	-28.937	10.656	2.599
146	1	4	0.20711	-29.986	10.916	2.5710001
147	1	1	-0.14957	-28.486	9.6759996	1.807
148	1	4	0.21527299	-29.179001	9.1960001	1.13
149	1	1	-0.33252099	-27.320999	7.1760001	0.55299997
150	1	4	0.20878901	-28.351	7.1069999	0.875
151	1	1	0.018395999	-26.761	6.0999999	-0.301
152	1	1	-0.124368	-27.628	4.987	-0.76800001
153	1	1	-0.169044	-28.895	5.2189999	-1.1569999
154	1	4	0.214945	-29.304001	6.2220001	-1.155
155	1	1	-0.169044	-29.754999	4.112	-1.623
156	1	4	0.214945	-30.775	4.3369999	-1.905
157	1	1	-0.056586999	-29.283001	2.852	-1.673
158	1	1	-0.058554001	-30.139	1.726	-2.1289999
159	1	1	-0.164729	-30.989	1.87	-3.1670001
160	1	4	0.217122	-31.059999	2.8069999	-3.7049999
161	1	1	-0.176971	-31.822001	0.73500001	-3.6159999
162	1	4	0.233766	-32.499001	0.86199999	-4.4499998
163	1	1	-0.21882001	-31.737	-0.447	-2.9960001
164	1	4	0.23660301	-32.345001	-1.28	-3.326
165	1	1	-0.176971	-30.812	-0.61900002	-1.859
166	1	4	0.233766	-30.750999	-1.575	-1.357
167	1	1	-0.164729	-30.055	0.40599999	-1.448
168	1	4	0.217122	-29.395	0.26800001	-0.60100001
169	1	1	-0.169044	-27.886999	2.5929999	-1.2410001
170	1	4	0.214945	-27.481001	1.59	-1.277
171	1	1	-0.169044	-27.110001	3.595	-0.81400001
172	1	4	0.214945	-26.1	3.3759999	-0.49000001
173	1	1	-0.33252099	-25.459999	6.145	-0.63499999
174	1	4	0.20878901	-25.028999	5.3639998	-1.247
175	1	1	-0.14957	-22.645	6.724	-1.744
176	1	4	0.21527299	-23.315001	6.257	-2.4519999
177	1	1	-0.34752899	-21.337999	6.7680001	-2.027
178	1	4	0.20711	-20.979	6.3070002	-2.9360001
179	1	1	0.71566898	-18.379999	7.5630002	-2.701
180	1	2	-0.53250802	-19.017	7.79	-3.7639999
181	1	5	0.328161	-12.793	6.2379999	-0.472
182	1	6	-0.016845001	12.558	-0.71499997	-0.118
183	1	1	0.39024001	11.813	-0.92400002	-1.276
184	1	1	-0.346468	10.475	-0.86199999	-1.226
185	1	4	0.24562	9.9720001	-0.64999998	-0.29100001
186	1	1	0.01651	9.677	-1.0829999	-2.45
187	1	4	0.24019399	8.5959997	-1.0319999	-2.404
188	1	1	-0.43204901	10.288	-1.345	-3.612
189	1	4	0.251766	9.7019997	-1.506	-4.507
190	1	1	0.46557701	11.764	-1.415	-3.675
191	1	8	-0.64476001	12.384	-1.689	-4.8930001
192	1	9	0.449058	13.393	-1.745	-4.9770002
193	1	1	-0.470388	12.489	-1.214	-2.562
194	1	4	0.248253	13.57	-1.263	-2.599

Bonds

1	1	1	2
2	2	1	3
3	3	1	98
4	4	3	4
5	5	3	85
6	6	4	5
7	6	4	11
8	7	5	6
9	6	5	7
10	7	7	8
11	6	7	9
12	6	9	10
13	3	9	83
14	6	10	11
15	3	10	13
16	7	11	12
17	1	13	14
18	2	13	15
19	4	15	16
20	2	15	83
21	6	16	17
22	6	16	81
23	7	17	18
24	6	17	19
25	7	19	20
26	6	19	21
27	3	21	22
28	6	21	79
29	8	22	23
30	6	22	77
31	8	23	24
32	3	24	25
33	6	24	53
34	6	25	26
35	6	25	51
36	7	26	27
37	6	26	28
38	7	28	29
39	6	28	30
40	4	30	31
41	6	30	49
42	2	31	32
43	2	31	47
44	1	32	33
45	3	32	34
46	6	34	35
47	6	34	46
48	7	35	36
49	6	35	37
50	7	37	38
51	6	37	39
52	4	39	40
53	6	39	44
54	2	40	41
55	5	40	43
56	1	41	42
57	9	41	86
58	7	44	45
59	6	44	46
60	3	46	47
61	1	47	48
62	7	49	50
63	6	49	51
64	7	51	52
65	7	53	54
66	6	53	55
67	3	55	56
68	6	55	77
69	6	56	57
70	6	56	75
71	7	57	58
72	6	57	59
73	7	59	60
74	6	59	61
75	3	61	62
76	6	61	73
77	6	62	63
78	6	62	71
79	7	63	64
80	6	63	65
81	7	65	66
82	6	65	67
83	7	67	68
84	6	67	69
85	7	69	70
86	6	69	71
87	7	71	72
88	7	73	74
89	6	73	75
90	7	75	76
91	7	77	78
92	7	79	80
93	6	79	81
94	7	81	82
95	1	83	84
96	10	86	87
97	6	87	88
98	6	87	96
99	7	88	89
100	6	88	90
101	7	90	91
102	6	90	92
103	7	92	93
104	6	92	94
105	10	94	95
106	6	94	96
107	11	95	182
108	7	96	97
109	1	98	99
110	2	98	100
111	4	100	101
112	5	100	181
113	6	101	102
114	6	101	108
115	7	102	103
116	6	102	104
117	7	104	105
118	6	104	106
119	6	106	107
120	3	106	179
121	6	107	108
122	3	107	110
123	7	108	109
124	1	110	111
125	2	110	112
126	4	112	113
127	2	112	179
128	6	113	114
129	6	113	177
130	7	114	115
131	6	114	116
132	7	116	117
133	6	116	118
134	3	118	119
135	6	118	175
136	8	119	120
137	6	119	173
138	8	120	121
139	3	121	122
140	6	121	149
141	6	122	123
142	6	122	147
143	7	123	124
144	6	123	125
145	7	125	126
146	6	125	127
147	4	127	128
148	6	127	145
149	2	128	129
150	2	128	143
151	1	129	130
152	3	129	131
153	6	131	132
154	6	131	142
155	7	132	133
156	6	132	134
157	7	134	135
158	6	134	136
159	12	136	137
160	6	136	140
161	13	137	138
162	1	138	139
163	7	140	141
164	6	140	142
165	3	142	143
166	1	143	144
167	7	145	146
168	6	145	147
169	7	147	148
170	7	149	150
171	6	149	151
172	3	151	152
173	6	151	173
174	6	152	153
175	6	152	171
176	7	153	154
177	6	153	155
178	7	155	156
179	6	155	157
180	3	157	158
181	6	157	169
182	6	158	159
183	6	158	167
184	7	159	160
185	6	159	161
186	7	161	162
187	6	161	163
188	7	163	164
189	6	163	165
190	7	165	166
191	6	165	167
192	7	167	168
193	7	169	170
194	6	169	171
195	7	171	172
196	7	173	174
197	7	175	176
198	6	175	177
199	7	177	178
200	1	179	180
201	10	182	183
202	6	183	184
203	6	183	193
204	7	184	185
205	6	184	186
206	7	186	187
207	6	186	188
208	7	188	189
209	6	188	190
210	14	190	191
211	6	190	193
212	15	191	192
213	7	193	194

Angles

1	8	94	95	182
2	4	162	161	163
3	6	128	143	144
4	3	31	30	49
5	4	91	90	92
6	3	21	22	77
7	4	119	173	174
8	3	5	7	9
9	4	123	125	126
10	3	101	102	104
11	3	102	104	106
12	4	154	153	155
13	1	39	40	41
14	3	121	149	151
15	3	88	90	92
16	4	74	73	75
17	4	24	53	54
18	3	19	21	79
19	4	90	92	93
20	4	141	140	142
21	3	62	71	69
22	9	42	41	86
23	4	158	159	160
24	3	152	171	169
25	4	164	163	165
26	3	102	101	108
27	4	89	88	90
28	3	152	151	173
29	4	158	167	168
30	4	136	140	141
31	3	128	127	145
32	3	9	10	11
33	6	10	13	14
34	3	99	98	100
35	4	66	65	67
36	3	112	113	114
37	1	30	31	32
38	3	63	62	71
39	1	127	128	143
40	1	13	15	83
41	3	137	136	140
42	3	2	1	3
43	4	105	104	106
44	3	16	81	79
45	3	34	35	37
46	3	157	158	159
47	4	189	188	190
48	1	32	31	47
49	3	35	34	46
50	4	165	167	168
51	3	37	39	40
52	4	5	7	8
53	5	140	142	143
54	3	157	169	171
55	1	1	3	4
56	3	56	55	77
57	3	134	136	140
58	4	107	108	109
59	4	39	44	45
60	1	110	112	113
61	4	79	81	82
62	3	182	183	184
63	4	58	57	59
64	3	53	55	56
65	3	57	56	75
66	3	125	127	145
67	4	73	75	76
68	3	95	94	96
69	3	188	190	193
70	3	24	25	26
71	1	127	128	129
72	3	116	118	119
73	6	33	32	34
74	4	184	186	187
75	3	28	30	31
76	4	169	171	172
77	3	116	118	175
78	3	61	62	63
79	4	70	69	71
80	3	1	98	100
81	3	128	129	131
82	3	131	132	134
83	3	61	73	75
84	3	15	16	81
85	3	35	37	39
86	4	161	163	164
87	10	137	138	139
88	3	92	94	95
89	4	176	175	177
90	3	134	136	137
91	3	151	152	153
92	3	104	106	107
93	3	88	87	96
94	3	23	22	77
95	4	175	177	178
96	4	185	184	186
97	3	62	61	73
98	4	157	169	170
99	6	9	83	84
100	4	21	79	80
101	5	44	46	47
102	3	155	157	169
103	3	100	101	102
104	4	135	134	136
105	4	17	19	20
106	3	114	116	118
107	1	13	15	16
108	3	87	88	90
109	3	149	151	173
110	4	8	7	9
111	5	7	9	83
112	4	170	169	171
113	3	3	4	5
114	3	4	5	7
115	3	106	107	110
116	4	45	44	46
117	3	56	57	59
118	3	152	153	155
119	5	108	107	110
120	4	187	186	188
121	2	98	100	181
122	3	121	122	147
123	3	118	119	120
124	3	183	193	190
125	3	182	183	193
126	3	132	134	136
127	3	23	24	53
128	2	39	40	43
129	4	10	11	12
130	6	31	32	33
131	4	80	79	81
132	3	122	123	125
133	6	14	13	15
134	3	32	34	46
135	6	128	129	130
136	4	131	132	133
137	1	98	100	101
138	3	125	127	128
139	3	113	177	175
140	3	25	24	53
141	3	31	47	46
142	6	111	110	112
143	4	156	155	157
144	3	159	161	163
145	3	106	107	108
146	4	64	63	65
147	4	36	35	37
148	3	26	25	51
149	3	9	10	13
150	3	3	4	11
151	4	186	188	189
152	4	88	90	91
153	3	61	62	71
154	4	152	171	172
155	3	62	63	65
156	4	122	147	148
157	4	87	96	97
158	4	6	5	7
159	4	68	67	69
160	3	57	59	61
161	3	118	119	173
162	3	2	1	98
163	4	121	149	150
164	4	113	114	115
165	1	129	128	143
166	6	106	179	180
167	2	1	3	85
168	3	132	131	142
169	4	114	116	117
170	4	55	77	78
171	4	67	69	70
172	4	4	5	6
173	4	16	81	82
174	4	118	175	176
175	6	15	83	84
176	4	152	153	154
177	3	118	175	177
178	3	186	188	190
179	3	123	125	127
180	3	25	26	28
181	8	190	191	192
182	3	59	61	73
183	5	129	131	132
184	4	132	134	135
185	4	62	63	64
186	3	106	179	112
187	3	53	55	77
188	4	25	51	52
189	4	151	173	174
190	4	133	132	134
191	3	17	16	81
192	4	62	71	72
193	3	21	22	23
194	3	113	114	116
195	4	63	65	66
196	4	150	149	151
197	3	21	79	81
198	3	122	147	145
199	4	56	75	76
200	3	158	167	165
201	3	101	108	107
202	3	90	92	94
203	4	60	59	61
204	4	115	114	116
205	4	29	28	30
206	3	159	158	167
207	3	128	143	142
208	3	136	140	142
209	3	86	87	88
210	4	34	35	36
211	3	131	142	140
212	4	69	71	72
213	4	160	159	161
214	8	41	86	87
215	3	119	173	151
216	3	107	110	112
217	3	127	145	147
218	3	4	11	10
219	4	145	147	148
220	3	19	21	22
221	6	107	110	111
222	3	121	122	123
223	4	166	165	167
224	3	10	9	83
225	3	188	190	191
226	3	151	152	171
227	3	56	75	73
228	4	146	145	147
229	3	158	157	169
230	6	112	179	180
231	3	191	190	193
232	3	30	49	51
233	3	25	51	49
234	3	40	41	86
235	3	16	17	19
236	4	183	193	194
237	3	22	77	55
238	3	155	157	158
239	4	163	165	166
240	4	25	26	27
241	3	63	65	67
242	2	41	40	43
243	3	129	131	142
244	3	39	44	46
245	3	1	98	99
246	3	153	155	157
247	3	34	46	44
248	3	163	165	167
249	3	122	121	149
250	4	124	123	125
251	3	55	56	57
252	3	15	16	17
253	3	100	101	108
254	2	101	100	181
255	3	59	61	62
256	3	26	28	30
257	3	119	118	175
258	3	123	122	147
259	3	120	121	149
260	5	32	34	35
261	4	35	37	38
262	4	4	11	12
263	3	107	106	179
264	4	101	108	109
265	6	142	143	144
266	4	20	19	21
267	4	49	51	52
268	3	149	151	152
269	4	101	102	103
270	3	7	9	10
271	2	4	3	85
272	3	5	4	11
273	3	87	96	94
274	4	50	49	51
275	1	110	112	179
276	3	157	158	167
277	4	190	193	194
278	4	87	88	89
279	3	161	163	165
280	6	46	47	48
281	3	120	119	173
282	4	127	145	146
283	6	31	47	48
284	3	24	25	51
285	3	120	121	122
286	4	126	125	127
287	4	38	37	39
288	7	22	23	24
289	7	136	137	138
290	3	131	142	143
291	7	119	120	121
292	3	86	87	96
293	4	30	49	50
294	4	56	57	58
295	3	92	94	96
296	4	16	17	18
297	8	95	182	183
298	4	22	77	78
299	4	65	67	68
300	1	30	31	47
301	4	61	73	74
302	3	22	21	79
303	3	28	30	49
304	4	103	102	104
305	4	153	155	156
306	3	112	113	177
307	4	113	177	178
308	3	17	19	21
309	3	24	53	55
310	3	183	184	186
311	4	122	123	124
312	5	11	10	13
313	1	16	15	83
314	4	26	28	29
315	3	3	1	98
316	3	55	56	75
317	3	65	67	69
318	4	117	116	118
319	3	37	39	44
320	4	54	53	55
321	3	158	159	161
322	3	67	69	71
323	4	183	184	185
324	4	27	26	28
325	3	34	46	47
326	6	130	129	131
327	4	159	161	162
328	3	184	186	188
329	3	23	24	25
330	3	31	32	34
331	4	94	96	97
332	4	18	17	19
333	3	40	41	42
334	3	9	83	15
335	3	10	13	15
336	3	114	113	177
337	5	104	106	179
338	1	113	112	179
339	3	40	39	44
340	4	102	104	105
341	4	93	92	94
342	3	184	183	193
343	4	57	59	60
344	3	153	152	171

Dihedrals

1	9	22	77	55	53
2	9	40	39	44	46
3	11	59	61	62	63
4	9	19	21	79	81
5	9	59	61	73	75
6	9	17	19	21	79
7	9	126	125	127	128
8	8	131	142	143	144
9	10	30	31	47	48
10	18	94	95	182	183
11	9	117	116	118	119
12	4	99	98	100	101
12	5	99	98	100	101
13	1	28	30	31	47
14	9	122	121	149	151
15	9	24	25	26	28
16	1	108	101	100	181
17	9	122	123	125	127
18	11	26	25	24	53
19	9	117	116	118	175
20	8	130	129	131	142
21	9	183	193	190	188
22	9	68	67	69	71
23	9	134	136	140	142
24	9	133	132	134	135
25	8	108	107	110	112
26	1	98	100	101	102
27	9	157	158	167	168
28	9	164	163	165	166
29	9	20	19	21	22
30	9	27	26	25	51
31	9	86	87	88	89
32	9	36	35	34	46
33	9	66	65	67	68
34	8	108	107	110	111
35	13	121	120	119	173
36	11	116	118	119	120
37	9	34	35	37	38
38	9	9	10	11	12
39	13	24	23	22	77
40	9	24	53	55	77
41	9	158	157	169	171
42	9	183	193	190	191
43	9	4	11	10	13
44	9	164	163	165	167
45	9	170	169	171	172
46	9	119	173	151	152
47	9	37	39	44	45
48	9	129	131	132	134
49	9	125	123	122	147
50	9	131	132	134	135
51	9	176	175	177	178
52	9	131	142	140	141
53	9	152	171	169	170
54	2	4	3	1	98
54	3	4	3	1	98
55	9	157	158	159	160
56	9	154	153	155	157
57	9	185	184	186	187
58	10	30	31	32	34
59	9	63	62	71	69
60	9	141	140	142	143
61	9	66	65	67	69
62	9	113	114	116	117
63	8	3	1	98	100
64	9	89	88	90	92
65	11	120	121	122	123
66	9	61	62	63	64
67	10	107	110	112	113
68	9	191	190	193	194
69	9	162	161	163	164
70	9	64	63	65	67
71	8	106	107	110	112
72	9	160	159	161	162
73	9	58	57	59	60
74	9	23	22	77	55
75	9	135	134	136	140
76	8	2	1	98	100
77	8	106	107	110	111
78	9	182	183	184	186
79	9	6	5	4	11
80	9	5	4	11	10
81	15	96	94	95	182
82	9	152	153	155	156
83	9	184	183	193	194
84	9	105	104	106	107
85	15	41	86	87	96
86	9	56	57	59	61
87	9	115	114	116	117
88	10	111	110	112	179
89	9	100	101	102	104
90	10	129	128	143	144
91	9	15	16	17	18
92	9	137	136	140	142
93	9	87	96	94	95
94	9	108	107	106	179
95	11	120	121	122	147
96	9	128	127	145	147
97	8	31	47	46	34
98	9	182	183	184	185
99	9	36	35	37	39
100	9	62	63	65	66
101	9	112	113	114	115
102	9	88	87	96	97
103	9	153	155	157	158
104	8	11	10	13	14
105	9	112	113	177	175
106	9	24	25	51	49
107	9	90	92	94	95
108	9	65	67	69	70
109	9	87	88	90	92
110	9	91	90	92	94
111	9	15	16	81	79
112	9	4	5	7	9
113	9	24	25	26	27
114	9	122	123	125	126
115	10	113	112	179	180
116	9	61	62	71	72
117	9	74	73	75	76
118	9	158	159	161	163
119	9	26	28	30	49
120	1	13	15	16	17
121	9	101	108	107	110
122	9	7	5	4	11
123	1	110	112	113	114
124	9	161	163	165	166
125	9	95	94	96	97
126	9	22	77	55	56
127	9	159	161	163	164
128	9	158	157	169	170
129	10	127	128	143	144
130	9	120	119	173	151
131	9	104	106	107	108
132	9	161	163	165	167
133	9	57	56	75	76
134	9	129	131	132	133
135	1	114	113	112	179
136	9	93	92	94	96
137	15	42	41	86	87
138	9	5	4	11	12
139	9	156	155	157	169
140	14	40	41	86	87
141	9	154	153	155	156
142	9	102	104	106	107
143	9	112	113	114	116
144	9	15	16	81	82
145	9	118	175	177	178
146	19	134	136	137	138
147	9	183	184	186	188
148	9	5	7	9	10
149	1	5	4	3	85
150	9	53	55	77	78
151	8	33	32	34	35
152	10	14	13	15	83
153	9	151	152	153	155
154	9	3	4	5	7
155	9	26	25	51	49
156	1	37	39	40	43
157	9	23	22	77	78
158	9	59	57	56	75
159	9	58	57	56	75
160	9	155	153	152	171
161	9	152	171	169	157
162	9	102	101	108	107
163	9	92	94	96	97
164	9	8	7	9	83
165	10	32	31	47	46
166	9	56	57	59	60
167	8	7	9	83	15
168	9	32	34	46	44
169	9	57	56	75	73
170	9	137	136	140	141
171	9	13	10	9	83
172	2	39	40	41	42
172	3	39	40	41	42
173	8	140	142	143	144
174	11	120	119	118	175
175	11	149	151	152	153
176	9	150	149	151	152
177	9	146	145	147	148
178	11	155	157	158	159
179	9	159	158	167	165
180	9	23	24	53	55
181	9	64	63	65	66
182	9	27	26	28	30
183	9	28	30	49	50
184	10	34	32	31	47
185	9	163	165	167	168
186	9	29	28	30	31
187	10	13	15	83	84
188	9	25	26	28	30
189	9	63	65	67	68
190	8	10	9	83	84
191	9	120	121	149	150
192	9	155	157	169	171
193	11	23	22	21	79
194	9	50	49	51	52
195	9	18	17	16	81
196	1	125	127	128	129
197	9	61	62	63	65
198	9	37	35	34	46
199	6	2	1	3	85
199	7	2	1	3	85
200	9	6	5	7	9
201	9	38	37	39	44
202	9	62	71	69	67
203	10	106	179	112	110
204	9	4	11	10	9
205	9	67	69	71	72
206	9	62	71	69	70
207	9	151	152	171	172
208	9	24	25	51	52
209	9	45	44	46	47
210	11	147	122	121	149
211	9	63	65	67	69
212	9	18	17	19	20
213	11	159	158	157	169
214	9	132	131	142	143
215	9	122	147	145	146
216	11	19	21	22	77
217	11	23	24	25	26
218	12	21	22	23	24
219	15	92	94	95	182
220	9	55	56	57	59
221	9	186	188	190	193
222	11	167	158	157	169
223	9	166	165	167	168
224	9	129	131	142	140
225	9	151	152	153	154
226	1	98	100	101	108
227	9	22	21	79	80
228	9	16	81	79	21
229	9	3	4	5	6
230	9	187	186	188	189
231	11	57	56	55	77
232	9	16	17	19	21
233	9	87	96	94	92
234	9	17	16	81	79
235	9	121	122	123	125
236	9	20	19	21	79
237	2	43	40	41	86
237	3	43	40	41	86
238	9	116	114	113	177
239	1	17	16	15	83
240	11	77	22	21	79
241	9	35	37	39	44
242	9	88	90	92	94
243	11	53	55	56	57
244	9	114	113	177	178
245	9	103	102	104	105
246	9	40	39	44	45
247	21	188	190	191	192
248	9	23	24	53	54
249	9	185	184	183	193
250	9	189	188	190	193
251	9	27	26	28	29
252	9	26	25	51	52
253	9	3	4	11	10
254	9	25	26	28	29
255	9	186	184	183	193
256	10	14	13	15	16
257	9	155	157	169	170
258	10	127	128	129	131
259	10	106	179	112	113
260	9	187	186	188	190
261	9	122	121	149	150
262	9	131	142	140	136
263	9	184	186	188	189
264	8	44	46	47	48
265	9	32	34	46	47
266	9	90	88	87	96
267	9	132	131	142	140
268	11	171	152	151	173
269	9	134	136	140	141
270	9	7	9	10	11
271	9	114	116	118	119
272	1	41	40	39	44
273	10	111	110	112	113
274	9	54	53	55	56
275	9	103	102	104	106
276	15	95	182	183	184
277	9	114	116	118	175
278	9	34	46	44	39
279	9	153	152	171	169
280	9	21	22	77	55
281	8	3	1	98	99
282	9	89	88	90	91
283	11	153	152	151	173
284	1	1	3	4	5
285	10	30	31	32	33
286	9	157	158	167	165
287	9	65	67	69	71
288	9	184	186	188	190
289	8	2	1	98	99
290	9	133	132	134	136
291	9	183	184	186	187
292	9	26	28	30	31
293	9	118	119	173	151
294	9	55	56	57	58
295	9	34	35	37	39
296	9	59	61	73	74
297	9	156	155	157	158
298	9	3	4	11	12
299	9	56	75	73	61
300	9	103	102	101	108
301	9	150	149	151	173
302	9	149	151	173	174
303	9	60	59	61	73
304	9	16	17	19	20
305	9	64	63	62	71
306	8	9	10	13	15
307	10	9	83	15	16
308	9	112	113	177	178
309	9	124	123	125	127
310	9	86	87	88	90
311	1	28	30	31	32
312	9	157	169	171	172
313	9	80	79	81	82
314	9	17	19	21	22
315	8	128	129	131	142
316	9	113	177	175	176
317	9	154	153	152	171
318	9	124	123	122	147
319	9	87	88	90	91
320	9	63	62	71	72
321	11	75	56	55	77
322	9	123	122	147	148
323	9	91	90	92	93
324	13	22	23	24	53
325	1	81	16	15	83
326	9	121	122	147	145
327	9	104	102	101	108
328	9	128	127	145	146
329	9	113	114	116	118
330	9	89	88	87	96
331	9	182	183	193	190
332	9	28	26	25	51
333	9	38	37	39	40
334	10	10	13	15	16
335	1	129	128	127	145
336	9	36	35	37	38
337	9	129	131	142	143
338	11	53	55	56	75
339	9	68	67	69	70
340	9	115	114	113	177
341	10	30	31	47	46
342	9	39	44	46	47
343	8	128	143	142	131
344	9	55	56	75	76
345	10	127	128	129	130
346	9	106	107	108	109
347	9	4	5	7	8
348	9	11	10	9	83
349	20	136	137	138	139
350	1	1	3	4	11
351	9	16	81	79	80
352	9	152	153	155	157
353	10	32	31	47	48
354	9	115	114	116	118
355	9	15	16	17	19
356	9	158	159	161	162
357	9	19	17	16	81
358	9	31	30	49	51
359	11	51	25	24	53
360	11	19	21	22	23
361	9	93	92	94	95
362	1	102	101	100	181
363	8	31	32	34	46
364	8	7	9	83	84
365	9	24	53	55	56
366	9	86	87	96	97
367	8	31	32	34	35
368	11	149	151	152	171
369	9	110	107	106	179
370	8	11	10	13	15
371	9	22	21	79	81
372	9	136	140	142	143
373	9	21	22	77	78
374	9	8	7	9	10
375	9	121	149	151	152
376	9	125	127	145	147
377	4	2	1	3	4
377	5	2	1	3	4
378	9	100	101	108	107
379	9	114	113	177	175
380	1	43	40	39	44
381	9	35	34	46	44
382	9	123	122	147	145
383	9	35	37	39	40
384	1	32	31	30	49
385	10	10	13	15	83
386	9	55	56	75	73
387	10	107	110	112	179
388	9	90	92	94	96
389	2	39	40	41	86
389	3	39	40	41	86
390	9	101	108	107	106
391	9	159	161	163	165
392	10	9	83	15	13
393	15	95	182	183	193
394	9	19	21	79	80
395	1	13	15	16	81
396	9	132	134	136	137
397	9	61	73	75	76
398	2	85	3	1	98
398	3	85	3	1	98
399	1	47	31	30	49
400	9	102	101	108	109
401	8	9	10	13	14
402	12	118	119	120	121
403	9	124	123	125	126
404	10	131	129	128	143
405	8	107	106	179	180
406	10	129	128	143	142
407	8	128	129	131	132
408	9	185	184	186	188
409	9	88	87	96	94
410	9	57	59	61	73
411	9	158	167	165	163
412	9	65	63	62	71
413	9	101	102	104	105
414	9	60	59	61	62
415	1	11	4	3	85
416	9	161	159	158	167
417	9	152	151	173	174
418	9	126	125	127	145
419	9	32	34	35	37
420	9	105	104	106	179
421	10	33	32	31	47
422	9	159	158	167	168
423	9	188	190	193	194
424	9	134	132	131	142
425	9	116	118	175	176
426	11	71	62	61	73
427	9	116	118	175	177
428	9	70	69	71	72
429	13	119	120	121	149
430	9	153	155	157	169
431	9	160	159	158	167
432	8	107	106	179	112
433	9	17	16	81	82
434	9	104	106	107	110
435	1	177	113	112	179
436	9	25	24	53	55
437	9	31	30	49	50
438	9	121	122	147	148
439	10	130	129	128	143
440	9	184	183	193	190
441	9	6	5	7	8
442	12	22	23	24	25
443	10	16	15	83	84
444	9	101	102	104	106
445	11	116	118	119	173
446	9	5	7	9	83
447	9	113	177	175	118
448	10	127	128	143	142
449	9	28	30	49	51
450	9	123	125	127	128
451	11	123	122	121	149
452	9	119	173	151	149
453	21	192	191	190	193
454	9	100	101	108	109
455	9	186	188	190	191
456	9	120	121	149	151
457	9	125	127	145	146
458	11	173	119	118	175
459	9	127	145	147	148
460	12	119	120	121	122
461	9	133	132	131	142
462	9	62	61	73	74
463	8	130	129	131	132
464	9	12	11	10	13
465	10	110	112	179	180
466	9	7	9	10	13
467	11	59	61	62	71
468	19	138	137	136	140
469	9	100	101	102	103
470	9	102	104	106	179
471	9	120	119	173	174
472	9	88	90	92	93
473	9	21	79	81	82
474	9	56	55	77	78
475	9	109	108	107	110
476	2	1	98	100	181
476	3	1	98	100	181
477	9	54	53	55	77
478	9	37	39	44	46
479	8	104	106	179	180
480	1	37	39	40	41
481	9	135	134	136	137
482	9	18	17	19	21
483	9	121	122	123	124
484	9	131	132	134	136
485	9	56	75	73	74
486	9	189	188	190	191
487	15	41	86	87	88
488	9	157	158	159	161
489	9	182	183	193	194
490	1	143	128	127	145
491	9	35	34	46	47
492	1	125	127	128	143
493	9	119	118	175	176
494	9	118	119	173	174
495	9	122	147	145	127
496	9	119	118	175	177
497	8	33	32	34	46
498	9	32	34	35	36
499	9	123	125	127	145
500	9	29	28	30	49
501	9	132	134	136	140
502	9	153	152	171	172
503	1	110	112	113	177
504	8	10	9	83	15
505	2	1	98	100	101
505	3	1	98	100	101
506	9	62	63	65	67
507	8	104	106	179	112
508	8	128	143	142	140
509	9	162	161	163	165
510	9	34	46	44	45
511	9	57	59	61	62
512	9	160	159	161	163
513	9	58	57	59	61
514	8	34	46	47	48
515	11	155	157	158	167
516	9	151	152	171	169
517	9	25	51	49	50
518	6	99	98	100	181
518	7	99	98	100	181
519	9	30	49	51	52
520	9	25	51	49	30
521	9	86	87	96	94
522	11	23	24	25	51
523	9	62	61	73	75
524	9	25	24	53	54
525	9	61	62	71	69
526	16	42	41	40	43
526	17	42	41	40	43
527	9	158	167	165	166
528	11	63	62	61	73
529	9	121	149	151	173
530	8	31	47	46	44

Impropers

1	2	55	53	56	77
2	2	34	46	32	35
3	2	155	156	157	153
4	2	125	123	126	127
5	2	53	54	55	24
6	1	128	127	129	143