Title

103 atoms
106 bonds
175 angles
282 dihedrals
126 impropers

9 atom types
14 bond types
8 angle types
30 dihedral types
3 improper types
-14.77400017 85.22599983 xlo xhi
-10.47399998 89.52600002 ylo yhi
-2.579999924 97.42000008 zlo zhi
0.0 0.0 0.0 xy xz yz

Masses

1	14.00672
2	12.01078
3	1.007947
4	15.99943
5	1.007947
6	12.01078
7	1.007947
8	15.99943
9	1.007947


Pair Coeffs

1	0.16769152	3.206876
2	0.086879315	3.4806469
3	0.015611343	2.5725815
4	0.2102061	3.0398122
5	0.014090815	1.1034277
6	0.10884061	3.3795318
7	0.015779483	2.6445434
8	0.20947353	2.99716
9	1.2326e-05	0.53453923

Bond Coeffs

1 harmonic	390.03554688505	1.390160554689
2 harmonic	505.144496193	1.019481865027
3 harmonic	422.7150220147	1.421786517481
4 harmonic	360.7852444772	1.387193227181
5 harmonic	397.2545789619	1.085358495916
6 harmonic	279.1350963404	1.454628925034
7 harmonic	399.1592953295	1.371688562017
8 harmonic	582.698766451	1.225198386222
9 harmonic	492.76746816345	1.381897776683
10 harmonic	329.44145381095	1.523435958334
11 harmonic	264.62148576755	1.52190126495
12 harmonic	370.04670688625	1.093899492634
13 harmonic	385.7604595587	1.369745182308
14 harmonic	543.5267831885	0.9716763312559


Angle Coeffs

1 harmonic	57.8982893754	126.8062420451
2 harmonic	55.42182150775	117.3465570514
3 harmonic	63.44422595415	115.5071327674
4 harmonic	34.066775159195	129.1835929926
5 harmonic	53.20531626545	116.5475862634
6 harmonic	48.776492647595	115.6030999533
7 harmonic	65.09061609600001	110.3538806181
8 harmonic	201.41175231035	127.4691416191


Dihedral Coeffs

1 fourier 1	3.661930099076	2	180
2 fourier 1	1.193093382682	2	180
3 fourier 1	0.02021088501612	1	0
4 fourier 1	1.163235555439	2	180
5 fourier 1	5.294842998052	2	180
6 fourier 1	0.2347635637734	2	180
7 fourier 1	0.4747469131102	3	0
8 fourier 1	0.9974165607242	2	180
9 fourier 1	3.101948770557	2	180
10 fourier 1	-0.4252153282372	1	0
11 fourier 1	1.809047390003	2	180
12 fourier 1	-0.04816277792592	1	0
13 fourier 1	-0.04561822763521	4	0
14 fourier 1	0.1536091026885	2	0
15 fourier 1	0.02664938770063	3	0
16 fourier 1	2.348375642009	2	180
17 fourier 1	1.256156174911	1	0
18 fourier 1	0.1155372516788	3	0
19 fourier 1	-0.3703352413219	2	0
20 fourier 1	0.4541676554336	1	0
21 fourier 1	0.1489710476446	2	0
22 fourier 1	0.02960027280666	3	180
23 fourier 1	0.09223874044423	3	0
24 fourier 1	0.3159935921949	2	180
25 fourier 1	0.3247796806857	1	180
26 fourier 1	0.1040663847541	3	0
27 fourier 1	0.1911926717192	3	0
28 fourier 1	2.687457892086	2	180
29 fourier 1	2.772607909663	2	180
30 fourier 1	0.09692684957115	1	0


Improper Coeffs

1 0.3666666666666667	-1	2
2 0.3333333333333333	-1	2
3 3.5	-1	2


Atoms

1	1	1	-0.41415599	-6.9429998	-0.057	-0.81300002
2	1	2	0.1166	-5.6259999	-0.13500001	-0.25999999
3	1	2	-0.41706699	-5.3800001	-0.917	0.80299997
4	1	3	0.231056	-6.1729999	-1.5	1.255
5	1	2	-0.087844998	-4.0209999	-0.98400003	1.375
6	1	3	0.224242	-3.835	-1.599	2.247
7	1	2	-0.28601599	-3.026	-0.27700001	0.829
8	1	3	0.218116	-2.04	-0.31400001	1.275
9	1	2	-0.083169997	-3.277	0.56900001	-0.368
10	1	2	0.031440999	-2.201	1.396	-0.95700002
11	1	2	-0.46325701	-0.94400001	0.98299998	-1.179
12	1	2	0.60329902	-0.479	-0.419	-1.0599999
13	1	4	-0.56862599	-1.279	-1.363	-1.301
14	1	2	-0.46325701	0.92299998	-0.75800002	-0.73900002
15	1	2	0.031440999	1.802	0.133	-0.25400001
16	1	2	-0.089933001	3.2130001	-0.189	0.071999997
17	1	2	-0.28601599	3.6340001	-1.4400001	0.35699999
18	1	3	0.218116	2.9530001	-2.279	0.375
19	1	2	-0.10526	5.0500002	-1.693	0.69199997
20	1	3	0.224242	5.3769999	-2.701	0.91100001
21	1	2	-0.393132	5.9239998	-0.68199998	0.73100001
22	1	3	0.22874101	6.96	-0.87599999	0.98000002
23	1	2	0.18354701	5.4770002	0.69800001	0.44100001
24	1	1	-0.49380299	6.415	1.776	0.493
25	1	5	0.31284401	6.1209998	2.7579999	0.292
26	1	2	-0.33811301	4.191	0.92799997	0.133
27	1	3	0.226408	3.859	1.938	-0.081
28	1	3	0.213864	1.495	1.161	-0.112
29	1	3	0.174807	1.222	-1.783	-0.90399998
30	1	3	0.174807	-0.236	1.717	-1.541
31	1	3	0.213864	-2.448	2.418	-1.219
32	1	2	-0.342471	-4.5240002	0.65399998	-0.86000001
33	1	3	0.226555	-4.7340002	1.2920001	-1.711
34	1	5	0.377018	-7.1339998	0.55199999	-1.6390001
35	1	2	0.76191097	7.4349999	1.5930001	0.73799998
36	1	4	-0.662889	8.2049999	2.536	0.829
37	1	6	-0.182173	7.9330001	0.197	0.97100002
38	1	6	-0.109997	6.8060002	-0.829	0.80699998
39	1	6	-0.083463997	7.3189998	-2.2539999	1.046
40	1	6	-0.24722099	6.1929998	-3.279	0.88200003
41	1	2	0.53482598	6.6900001	-4.6750002	1.115
42	1	4	-0.53022403	5.921	-5.618	1.024
43	1	7	0.13604601	5.381	-3.062	1.61
44	1	7	0.13604601	5.776	-3.2149999	-0.147
45	1	7	0.100896	7.7360001	-2.3269999	2.075
46	1	7	0.100896	8.1309996	-2.48	0.31900001
47	1	7	0.109262	5.9949999	-0.60299999	1.534
48	1	7	0.109262	6.3899999	-0.75599998	-0.223
49	1	7	0.140405	8.3500004	0.132	2
50	1	7	0.140405	8.7440004	-0.02	0.243
51	1	1	-0.41415599	-7.7329998	-0.60500002	-0.405
52	1	2	0.1166	-8.0430002	-0.528	0.98900002
53	1	2	-0.41706699	-7.3189998	0.255	1.8049999
54	1	3	0.231056	-6.4910002	0.83700001	1.419
55	1	2	-0.087844998	-7.6370001	0.322	3.2449999
56	1	3	0.224242	-7.0339999	0.93599999	3.9000001
57	1	2	-0.28601599	-8.6590004	-0.38600001	3.7409999
58	1	3	0.218116	-8.8640003	-0.34799999	4.803
59	1	2	-0.083169997	-9.4899998	-1.2309999	2.8440001
60	1	2	0.031440999	-10.592	-2.0580001	3.3800001
61	1	2	-0.46325701	-11.5	-1.645	4.2779999
62	1	2	0.60329902	-11.672	-0.243	4.7259998
63	1	4	-0.56862599	-11.407	0.70099998	3.934
64	1	2	-0.46325701	-12.221	0.094999999	6.0549998
65	1	2	0.031440999	-12.334	-0.79500002	7.053
66	1	2	-0.037234001	-12.884	-0.47299999	8.3929996
67	1	2	-0.28601599	-12.895	0.77700001	8.901
68	1	3	0.218116	-12.486	1.617	8.3559999
69	1	2	-0.039227001	-13.44	1.031	10.25
70	1	3	0.224242	-13.451	2.039	10.644
71	1	2	-0.453805	-13.914	0.02	10.986
72	1	3	0.23504201	-14.31	0.214	11.975
73	1	2	0.31619999	-13.892	-1.36	10.454
74	1	1	-0.84927201	-14.392	-2.438	11.249
75	1	5	0.37255901	-14.774	-2.2590001	12.204
76	1	5	0.37255901	-14.385	-3.4200001	10.892
77	1	2	-0.408613	-13.399	-1.59	9.2250004
78	1	3	0.23625199	-13.382	-2.5999999	8.8319998
79	1	3	0.213864	-12.041	-1.823	6.8850002
80	1	3	0.174807	-12.529	1.1210001	6.204
81	1	3	0.174807	-12.205	-2.3800001	4.6459999
82	1	3	0.213864	-10.663	-3.0799999	3.0280001
83	1	2	-0.342471	-9.1700001	-1.317	1.541
84	1	3	0.226555	-9.743	-1.954	0.87800002
85	1	5	0.377018	-8.2959995	-1.214	-1.039
86	1	2	0.53482598	7.7290001	-4.862	1.365
87	1	4	-0.53022403	8.0570002	-4.9710002	2.536
88	1	6	-0.24722099	8.7539997	-4.9660001	0.27500001
89	1	6	-0.082534	9.3529997	-6.375	0.219
90	1	6	-0.10056	10.382	-6.4899998	-0.91600001
91	1	6	-0.207691	11.049	-7.8709998	-0.958
92	1	2	0.846654	10.085	-8.9420004	-1.3660001
93	1	4	-0.44467899	9.7810001	-9.0889997	-2.5799999
94	1	8	-0.64173901	9.5	-9.7539997	-0.40000001
95	1	9	0.42672899	8.8360004	-10.474	-0.65799999
96	1	7	0.143462	11.484	-8.1149998	0.035999998
97	1	7	0.143462	11.885	-7.8449998	-1.6900001
98	1	7	0.110356	11.175	-5.7259998	-0.764
99	1	7	0.110356	9.8929996	-6.2810001	-1.893
100	1	7	0.100896	9.849	-6.605	1.188
101	1	7	0.100896	8.5349998	-7.1110001	0.057
102	1	7	0.13604601	8.2679996	-4.73	-0.69599998
103	1	7	0.13604601	9.5550003	-4.217	0.458

Bonds

1	1	1	2
2	2	1	34
3	3	1	51
4	4	2	3
5	4	2	32
6	5	3	4
7	4	3	5
8	5	5	6
9	4	5	7
10	5	7	8
11	4	7	9
12	6	9	10
13	4	9	32
14	7	10	11
15	5	10	31
16	6	11	12
17	5	11	30
18	8	12	13
19	6	12	14
20	7	14	15
21	5	14	29
22	6	15	16
23	5	15	28
24	4	16	17
25	4	16	26
26	5	17	18
27	4	17	19
28	5	19	20
29	4	19	21
30	5	21	22
31	4	21	23
32	1	23	24
33	4	23	26
34	2	24	25
35	9	24	35
36	5	26	27
37	5	32	33
38	8	35	36
39	10	35	37
40	11	37	38
41	12	37	49
42	12	37	50
43	11	38	39
44	12	38	47
45	12	38	48
46	11	39	40
47	12	39	45
48	12	39	46
49	10	40	41
50	12	40	43
51	12	40	44
52	8	41	42
53	6	41	86
54	1	51	52
55	2	51	85
56	4	52	53
57	4	52	83
58	5	53	54
59	4	53	55
60	5	55	56
61	4	55	57
62	5	57	58
63	4	57	59
64	6	59	60
65	4	59	83
66	7	60	61
67	5	60	82
68	6	61	62
69	5	61	81
70	8	62	63
71	6	62	64
72	7	64	65
73	5	64	80
74	6	65	66
75	5	65	79
76	4	66	67
77	4	66	77
78	5	67	68
79	4	67	69
80	5	69	70
81	4	69	71
82	5	71	72
83	4	71	73
84	1	73	74
85	4	73	77
86	2	74	75
87	2	74	76
88	5	77	78
89	5	83	84
90	8	86	87
91	10	86	88
92	11	88	89
93	12	88	102
94	12	88	103
95	11	89	90
96	12	89	100
97	12	89	101
98	11	90	91
99	12	90	98
100	12	90	99
101	10	91	92
102	12	91	96
103	12	91	97
104	8	92	93
105	13	92	94
106	14	94	95

Angles

1	1	40	41	42
2	5	86	88	102
3	1	5	7	9
4	1	57	59	83
5	4	66	67	68
6	1	51	52	83
7	4	62	64	80
8	4	17	19	20
9	6	43	40	44
10	4	56	55	57
11	4	72	71	73
12	5	38	39	46
13	1	41	86	87
14	4	67	69	70
15	4	18	17	19
16	4	16	26	27
17	5	39	40	41
18	4	22	21	23
19	1	1	2	3
20	1	53	55	57
21	1	62	64	65
22	5	86	88	103
23	1	65	66	77
24	1	16	26	23
25	4	12	11	30
26	4	69	71	72
27	1	24	23	26
28	1	36	35	37
29	1	12	14	15
30	5	40	39	45
31	4	3	5	6
32	1	41	86	88
33	5	41	40	43
34	1	67	69	71
35	1	55	57	59
36	4	16	15	28
37	1	3	2	32
38	1	7	9	10
39	1	24	35	36
40	1	91	92	94
41	1	57	59	60
42	5	37	38	39
43	1	64	65	66
44	4	70	69	71
45	1	21	23	26
46	4	52	53	54
47	5	40	39	46
48	2	23	24	35
49	4	15	14	29
50	3	34	1	51
51	1	53	52	83
52	8	93	92	94
53	2	2	1	51
54	1	17	16	26
55	4	4	3	5
56	5	90	91	96
57	4	66	65	79
58	5	89	88	103
59	4	6	5	7
60	1	1	2	32
61	1	10	11	12
62	5	90	91	92
63	5	37	38	47
64	1	71	73	77
65	7	92	94	95
66	6	47	38	48
67	6	100	89	101
68	5	38	39	40
69	4	73	77	78
70	4	59	83	84
71	1	66	67	69
72	5	86	88	89
73	1	11	12	13
74	4	9	32	33
75	1	67	66	77
76	1	10	9	32
77	4	8	7	9
78	1	15	16	17
79	1	17	19	21
80	5	38	37	49
81	1	51	52	53
82	5	90	89	100
83	5	89	90	98
84	4	2	32	33
85	5	37	38	48
86	4	60	61	81
87	2	1	51	52
88	1	14	15	16
89	3	25	24	35
90	5	91	90	98
91	1	69	71	73
92	4	61	60	82
93	1	42	41	86
94	1	60	59	83
95	1	3	5	7
96	5	38	37	50
97	5	41	40	44
98	1	71	73	74
99	5	92	91	96
100	5	39	40	43
101	4	16	17	18
102	1	59	60	61
103	5	39	38	47
104	1	24	35	37
105	4	11	10	31
106	4	14	15	28
107	1	7	9	32
108	1	74	73	77
109	5	91	90	99
110	5	88	89	100
111	5	35	37	38
112	1	52	53	55
113	1	61	62	63
114	4	2	3	4
115	1	87	86	88
116	1	52	83	59
117	3	75	74	76
118	3	1	51	85
119	4	5	7	8
120	4	52	83	84
121	3	73	74	75
122	1	13	12	14
123	1	15	16	26
124	5	90	91	97
125	6	102	88	103
126	1	63	62	64
127	6	45	39	46
128	5	38	39	45
129	4	64	65	79
130	4	12	14	29
131	5	88	89	101
132	1	2	32	9
133	1	2	3	5
134	4	58	57	59
135	4	53	55	56
136	4	9	10	31
137	4	20	19	21
138	6	96	91	97
139	3	73	74	76
140	1	11	12	14
141	1	65	66	67
142	4	19	21	22
143	1	9	10	11
144	1	21	23	24
145	4	23	26	27
146	4	55	57	58
147	5	90	89	101
148	5	89	90	99
149	4	10	11	30
150	6	49	37	50
151	1	91	92	93
152	5	35	37	49
153	1	60	61	62
154	1	19	21	23
155	3	2	1	34
156	1	66	77	73
157	4	59	60	82
158	1	40	41	86
159	3	23	24	25
160	5	92	91	97
161	4	68	67	69
162	5	39	40	44
163	1	16	17	19
164	5	39	38	48
165	6	98	90	99
166	4	66	77	78
167	5	89	90	91
168	5	89	88	102
169	3	52	51	85
170	5	35	37	50
171	4	62	61	81
172	4	65	64	80
173	4	54	53	55
174	1	61	62	64
175	5	88	89	90

Dihedrals

1	1	4	3	2	32
2	19	36	35	37	38
3	15	41	86	88	89
4	2	1	51	52	83
5	1	54	53	55	57
6	4	57	59	60	82
7	27	97	91	90	98
8	8	11	12	14	29
9	15	43	40	41	86
10	1	55	57	59	83
11	1	2	32	9	7
12	1	15	16	26	27
13	1	55	53	52	83
14	1	52	83	59	60
15	27	43	40	39	45
16	1	52	53	55	56
17	8	64	62	61	81
18	2	53	52	51	85
19	15	94	92	91	96
20	5	16	15	14	29
21	26	91	90	89	100
22	18	41	40	39	45
23	8	61	62	64	65
24	5	62	61	60	82
25	15	24	35	37	50
26	1	67	66	77	73
27	27	101	89	88	102
28	1	18	17	19	21
29	5	62	64	65	79
30	4	82	60	59	83
31	2	32	2	1	51
32	1	8	7	9	10
33	18	35	37	38	39
34	5	12	14	15	16
35	6	63	62	64	65
35	7	63	62	64	65
36	18	38	39	40	41
37	27	46	39	38	47
38	1	5	7	9	32
39	8	60	61	62	64
40	27	43	40	39	46
41	1	16	26	23	24
42	27	47	38	37	50
43	27	96	91	90	98
44	11	25	24	35	37
44	12	25	24	35	37
45	2	26	23	24	35
46	18	41	40	39	46
47	26	89	90	91	96
48	23	37	38	39	40
48	24	37	38	39	40
48	25	37	38	39	40
49	1	19	17	16	26
50	20	87	86	88	102
50	21	87	86	88	102
50	22	87	86	88	102
51	1	55	57	59	60
52	26	39	38	37	49
53	1	52	83	59	57
54	5	12	14	15	28
55	9	23	24	35	36
55	10	23	24	35	36
56	1	17	19	21	22
57	1	1	2	32	9
58	5	81	61	60	82
59	1	70	69	71	72
60	18	89	90	91	92
61	8	13	12	11	30
62	1	7	9	32	33
63	4	14	15	16	17
64	1	65	66	67	69
65	6	13	12	14	15
65	7	13	12	14	15
66	18	86	88	89	90
67	27	44	40	39	45
68	26	90	89	88	102
69	18	35	37	38	47
70	15	44	40	41	86
71	2	75	74	73	77
72	26	89	90	91	97
73	1	65	66	77	78
74	1	66	67	69	70
75	1	24	23	26	27
76	1	69	71	73	74
77	26	39	38	37	50
78	5	12	11	10	31
79	27	45	39	38	47
80	20	87	86	88	103
80	21	87	86	88	103
80	22	87	86	88	103
81	1	4	3	5	7
82	4	17	16	15	28
83	1	5	3	2	32
84	1	5	7	9	10
85	8	40	41	86	88
86	1	17	19	21	23
87	26	40	39	38	47
88	20	42	41	40	44
88	21	42	41	40	44
88	22	42	41	40	44
89	4	7	9	10	31
90	1	67	69	71	72
91	20	36	35	37	50
91	21	36	35	37	50
91	22	36	35	37	50
92	1	15	16	17	19
93	1	70	69	71	73
94	5	79	65	64	80
95	27	97	91	90	99
96	27	99	90	89	100
97	15	41	86	88	102
98	5	59	60	61	81
99	4	7	9	10	11
100	2	21	23	24	25
101	1	22	21	23	24
102	18	35	37	38	48
103	26	90	89	88	103
104	3	34	1	51	85
105	8	42	41	86	87
106	4	77	66	65	79
107	18	86	88	89	101
108	27	100	89	88	102
109	5	9	10	11	30
110	1	20	19	21	22
111	27	48	38	37	49
112	1	56	55	57	58
113	1	67	66	77	78
114	1	6	5	7	8
115	27	45	39	38	48
116	1	52	53	55	57
117	2	25	24	23	26
118	5	28	15	14	29
119	26	40	39	38	48
120	1	51	52	83	59
121	26	88	89	90	98
122	15	94	92	91	97
123	1	2	3	5	6
124	26	91	90	89	101
125	1	51	52	83	84
126	1	72	71	73	77
127	18	92	91	90	98
128	8	11	12	14	15
129	1	66	77	73	74
130	27	101	89	88	103
131	1	17	16	26	27
132	1	19	21	23	24
133	1	53	52	83	59
134	1	18	17	16	26
135	2	71	73	74	75
136	2	3	2	1	51
137	1	2	32	9	10
138	6	10	11	12	13
138	7	10	11	12	13
139	1	10	9	32	33
140	4	14	15	16	26
141	26	37	38	39	45
142	1	6	5	7	9
143	27	48	38	37	50
144	1	56	55	57	59
145	29	93	92	94	95
145	30	93	92	94	95
146	27	46	39	38	48
147	26	88	89	90	99
148	1	17	16	26	23
149	1	68	67	69	70
150	19	90	91	92	93
151	2	76	74	73	77
152	5	66	65	64	80
153	1	2	3	5	7
154	27	96	91	90	99
155	1	16	17	19	20
156	20	36	35	37	49
156	21	36	35	37	49
156	22	36	35	37	49
157	5	30	11	10	31
158	1	3	5	7	8
159	1	58	57	59	83
160	19	87	86	88	89
161	1	16	26	23	21
162	1	1	2	3	4
163	11	23	24	35	37
163	12	23	24	35	37
164	6	60	61	62	63
164	7	60	61	62	63
165	1	72	71	73	74
166	26	38	39	40	43
167	1	66	77	73	71
168	18	86	88	89	100
169	4	64	65	66	67
170	1	3	2	32	33
171	28	91	92	94	95
172	8	14	12	11	30
173	27	44	40	39	46
174	1	68	67	69	71
175	1	54	53	55	56
176	4	57	59	60	61
177	23	88	89	90	91
177	24	88	89	90	91
177	25	88	89	90	91
178	27	98	90	89	100
179	1	66	67	69	71
180	2	1	51	52	53
181	15	39	40	41	86
182	1	3	5	7	9
183	1	57	59	83	84
184	1	67	69	71	73
185	1	53	55	57	58
186	27	99	90	89	101
187	15	24	35	37	49
188	26	38	39	40	44
189	2	32	2	1	34
190	15	41	86	88	103
191	8	63	62	61	81
192	20	93	92	91	96
192	21	93	92	91	96
192	22	93	92	91	96
193	13	24	35	37	38
193	14	24	35	37	38
194	1	18	17	19	20
195	8	61	62	64	80
196	27	98	90	89	101
197	8	42	41	86	88
198	1	53	52	83	84
199	1	71	73	77	78
200	1	51	52	53	54
201	5	59	60	61	62
202	27	100	89	88	103
203	1	8	7	9	32
204	1	20	19	21	23
205	1	58	57	59	60
206	8	63	62	64	80
207	4	67	66	65	79
208	19	39	40	41	42
209	27	47	38	37	49
210	3	2	1	51	52
211	16	25	24	35	36
211	17	25	24	35	36
212	1	53	55	57	59
213	8	13	12	14	29
214	1	74	73	77	78
215	1	21	23	26	27
216	2	3	2	1	34
217	4	61	60	59	83
218	1	68	67	66	77
219	2	83	52	51	85
220	18	92	91	90	99
221	20	93	92	91	97
221	21	93	92	91	97
221	22	93	92	91	97
222	1	15	16	26	23
223	1	22	21	23	26
224	4	31	10	9	32
225	2	71	73	74	76
226	1	51	52	53	55
227	26	37	38	39	46
228	8	10	11	12	14
229	1	3	2	32	9
230	1	65	66	67	68
231	1	69	71	73	77
232	5	9	10	11	12
233	4	26	16	15	28
234	15	90	91	92	94
235	4	64	65	66	77
236	5	62	64	65	66
237	1	69	67	66	77
238	1	16	17	19	21
239	1	19	21	23	26
240	1	54	53	52	83
241	1	4	3	5	6
242	3	34	1	51	52
243	1	1	2	3	5
244	8	40	41	86	87
245	20	42	41	40	43
245	21	42	41	40	43
245	22	42	41	40	43
246	1	60	59	83	84
247	4	11	10	9	32
248	3	2	1	51	85
249	1	15	16	17	18
250	1	1	2	32	33
251	1	65	66	77	73
252	2	21	23	24	35

Impropers

4	1	2	32	1	3
18	1	16	26	15	17
19	2	74	73	75	76
21	3	92	94	91	93
25	1	32	2	9	33
26	1	62	61	63	64
32	1	9	10	32	7
34	2	1	51	2	34
45	1	26	23	27	16
47	1	57	58	59	55
56	1	14	12	15	29
60	1	35	37	24	36
62	1	64	80	62	65
72	1	60	59	61	82
73	2	51	1	52	85
74	2	51	85	1	52
76	1	7	9	5	8
81	1	53	55	52	54
82	1	71	73	69	72
83	1	3	4	5	2
88	1	21	19	22	23
90	1	12	11	13	14
92	1	5	6	7	3
94	1	69	70	71	67
96	1	9	32	7	10
97	1	57	59	55	58
98	1	55	57	53	56
99	1	26	27	16	23
102	1	61	81	60	62
103	1	17	16	18	19
108	1	21	22	23	19
109	2	24	23	25	35
111	1	59	57	60	83
112	1	15	16	28	14
115	1	16	15	17	26
117	1	66	65	67	77
121	1	60	61	82	59
127	1	86	88	41	87
131	1	59	83	57	60
135	1	10	11	31	9
136	1	66	77	65	67
140	1	41	86	40	42
142	1	21	23	19	22
143	1	77	73	78	66
144	1	19	21	17	20
147	1	19	20	21	17
149	2	1	34	51	2
150	2	51	52	85	1
154	1	32	9	33	2
156	1	65	64	66	79
159	1	83	84	52	59
160	1	53	52	54	55
161	1	32	33	2	9
164	2	74	75	76	73
169	1	5	7	3	6
170	3	92	93	94	91
171	2	1	2	34	51
172	1	7	5	8	9
175	2	24	35	23	25
180	1	65	66	79	64
182	1	53	54	55	52
183	1	2	1	3	32
184	1	11	30	10	12
188	1	5	3	6	7
190	1	86	87	88	41
192	1	10	9	11	31
195	1	11	12	30	10
196	1	17	18	19	16
198	1	64	65	80	62
208	1	11	10	12	30
219	1	52	51	53	83
222	1	26	16	23	27
223	1	7	8	9	5
225	1	23	26	21	24
226	1	52	83	51	53
230	1	65	79	64	66
238	1	3	2	4	5
243	1	14	29	12	15
244	1	35	24	36	37
250	1	59	60	83	57
252	1	15	28	14	16
259	1	41	40	42	86
267	1	16	17	26	15
269	1	77	66	73	78
274	1	35	36	37	24
276	1	14	15	29	12
280	1	64	62	65	80
282	1	71	69	72	73
291	1	62	64	61	63
294	1	52	53	83	51
300	1	60	82	59	61
313	1	67	66	68	69
314	1	23	21	24	26
322	1	55	53	56	57
326	1	62	63	64	61
328	1	66	67	77	65
333	1	15	14	16	28
339	1	69	67	70	71
341	1	77	78	66	73
343	1	73	74	77	71
347	1	55	56	57	53
351	1	61	60	62	81
355	1	73	77	71	74
357	1	3	5	2	4
360	1	12	14	11	13
367	1	71	72	73	69
368	1	17	19	16	18
369	1	12	13	14	11
373	1	67	68	69	66
375	1	86	41	87	88
377	1	83	59	84	52
382	1	69	71	67	70
385	1	10	31	9	11
397	2	24	25	35	23
398	1	57	55	58	59
399	1	41	42	86	40
400	1	67	69	66	68
401	1	19	17	20	21
407	1	9	7	10	32
420	1	2	3	32	1
421	3	92	91	93	94
422	2	74	76	73	75
432	1	23	24	26	21
435	1	61	62	81	60
440	1	73	71	74	77
441	1	83	52	59	84
