Title

8500 atoms
8875 bonds
14750 angles
21375 dihedrals
9750 impropers

9 atom types
13 bond types
6 angle types
9 dihedral types
2 improper types
-8.092796775 96.54363917 xlo xhi
-8.334591819 96.03183056 ylo yhi
-9.312255508 96.9634724 zlo zhi
0.0 0.0 0.0 xy xz yz

Masses

1	15.99943
2	12.01078
3	35.4532
4	1.007947
5	12.01078
6	1.007947
7	15.99943
8	15.99943
9	1.007947


Pair Coeffs

1	0.16846514	3.0251065
2	0.086879315	3.4806469
3	0.2656001	3.3075278
4	0.015611343	2.5725815
5	0.10884061	3.3795318
6	0.015779483	2.6445434
7	0.2102061	3.0398122
8	0.20947353	2.99716
9	1.2326e-05	0.53453923

Bond Coeffs

1 harmonic	425.69104206635	1.362945806494
2 harmonic	300.03137914615	1.451203938761
3 harmonic	360.7852444772	1.387193227181
4 harmonic	218.0227703685	1.746066037062
5 harmonic	397.2545789619	1.085358495916
6 harmonic	289.73813263395	1.498646816465
7 harmonic	264.62148576755	1.52190126495
8 harmonic	301.15400723785	1.345741232799
9 harmonic	370.04670688625	1.093899492634
10 harmonic	582.698766451	1.225198386222
11 harmonic	279.1350963404	1.454628925034
12 harmonic	385.7604595587	1.369745182308
13 harmonic	543.5267831885	0.9716763312559


Angle Coeffs

1 harmonic	57.8982893754	126.8062420451
2 harmonic	65.09061609600001	110.3538806181
3 harmonic	34.066775159195	129.1835929926
4 harmonic	53.20531626545	116.5475862634
5 harmonic	201.41175231035	127.4691416191
6 harmonic	48.776492647595	115.6030999533


Dihedral Coeffs

1 fourier 1	3.661930099076	2	180
2 fourier 1	1.532232714475	2	180
3 fourier 1	0.457973137376	1	0
4 fourier 1	0.02664938770063	3	0
5 fourier 1	0.1155372516788	3	0
6 fourier 1	2.779853741805	2	180
7 fourier 1	0.9974165607242	2	180
8 fourier 1	0.1040663847541	3	0
9 fourier 1	0.8283030590042	2	180


Improper Coeffs

1 0.3666666666666667	-1	2
2 3.5	-1	2


Atoms

1	4	1	-0.095482991	2.1916472	2.5649878	1.9927549
2	4	2	0.24909432	1.9862866	2.0435616	0.71409167
3	4	2	-0.10529655	1.9388147	2.8733572	-0.33842095
4	4	3	-0.040715743	2.134978	4.6076318	-0.12886805
5	4	2	-0.13434266	1.7198189	2.3399961	-1.6980326
6	4	4	0.22164389	1.6998202	3.0381236	-2.5252926
7	4	2	-0.22049712	1.5422357	1.0178502	-1.9127498
8	4	5	0.017458193	1.3370626	0.50160861	-3.3501615
9	4	2	-0.22049709	0.22128147	1.308251	-4.0423836
10	4	2	-0.13090183	-0.97184262	1.4596613	-3.4275545
11	4	4	0.22164389	-1.1397622	1.0342725	-2.4454031
12	4	2	-0.079839156	-2.0771852	2.2075937	-4.0628717
13	4	3	-0.045311783	-3.5838356	2.3728141	-3.1699373
14	4	2	0.52111375	-1.9112695	2.7371392	-5.2906088
15	4	1	-0.41512433	-2.9274703	3.4528122	-5.9285876
16	4	2	-0.079839163	-0.6206164	2.5593158	-5.9907342
17	4	3	-0.045311764	-0.3967378	3.2313068	-7.5984221
18	4	2	-0.13090174	0.38028751	1.8860012	-5.4095072
19	4	4	0.22164392	1.3045333	1.7721755	-5.9573598
20	4	5	-0.12855597	2.6990684	0.62182597	-4.0758708
21	4	6	0.092861309	2.6644182	0.14551763	-5.0795335
22	4	6	0.092861309	2.9973399	1.685032	-4.1923054
23	4	6	0.092861309	3.4938686	0.10675886	-3.4929192
24	4	5	-0.12855597	0.91881562	-0.98718178	-3.3959392
25	4	6	0.092861309	0.6888312	-1.2925167	-4.4409013
26	4	6	0.092861309	0.011236692	-1.1672545	-2.7809528
27	4	6	0.092861309	1.7358204	-1.6478282	-3.0321557
28	4	2	-0.13434264	1.6167005	0.10244398	-0.73439526
29	4	4	0.22164386	1.5071837	-0.9652426	-0.85448461
30	4	2	-0.1052966	1.8199645	0.58304573	0.50033659
31	4	3	-0.040715732	1.8935143	-0.54153678	1.8497626
32	5	2	0.62906784	-3.8691666	3.6218461	-5.498538
33	5	7	-0.4652516	-4.8422401	3.7962878	-6.2112006
34	1	1	-0.095482991	2.2337119	1.977627	2.8161624
35	1	2	0.24909432	1.4098511	0.86366189	2.9816321
36	1	2	-0.10529655	1.5138585	0.12510565	4.0966439
37	1	3	-0.040715743	2.6726381	0.54300081	5.3502365
38	1	2	-0.13434266	0.6527481	-1.0588821	4.2885578
39	1	4	0.22164389	0.75531992	-1.6243794	5.206421
40	1	2	-0.22049712	-0.23980183	-1.4363867	3.3476317
41	1	5	0.017458193	-1.1353465	-2.6664745	3.5976409
42	1	2	-0.22049709	-0.26737164	-3.8678378	4.0206893
43	1	2	-0.082143292	0.80296633	-4.2152363	3.2736439
44	1	4	0.22164389	1.063519	-3.6426886	2.3915144
45	1	2	-0.17546471	1.6498041	-5.3712457	3.6308344
46	1	3	-0.039817863	3.0375766	-5.7259937	2.6098049
47	1	2	0.43684947	1.3490327	-6.1171808	4.7117912
48	1	8	-0.62854636	2.1227933	-7.2172383	5.0876929
49	1	9	0.43741596	2.9450923	-7.5168294	4.5800283
50	1	2	-0.17546475	0.16623151	-5.7683112	5.5284847
51	1	3	-0.039817833	-0.24885776	-6.7417101	6.9308004
52	1	2	-0.082143248	-0.59727076	-4.7158235	5.204812
53	1	4	0.22164392	-1.4556801	-4.4992045	5.8224435
54	1	5	-0.12855597	-2.1686284	-2.2653314	4.6766176
55	1	6	0.092861309	-2.9333299	-3.0592174	4.817297
56	1	6	0.092861309	-1.6734153	-2.0674657	5.6516362
57	1	6	0.092861309	-2.7057094	-1.3399188	4.3735918
58	1	5	-0.12855597	-1.9255222	-3.0961557	2.3381146
59	1	6	0.092861309	-2.4807141	-4.0390477	2.5336025
60	1	6	0.092861309	-1.2430683	-3.2738769	1.4801072
61	1	6	0.092861309	-2.6731364	-2.3261371	2.0495951
62	1	2	-0.13434264	-0.36013023	-0.59362041	2.1196691
63	1	4	0.22164386	-1.0757957	-0.8365412	1.3486403
64	1	2	-0.1052966	0.41696125	0.48394718	1.9452073
65	1	3	-0.040715732	0.23521478	1.4364644	0.47701248
66	2	2	0.47146845	-3.9759928	3.6406376	-4.4194513
67	2	7	-0.52938628	-3.0221885	3.3782266	-3.7071143
68	2	3	-0.062643566	-5.5223893	4.0481374	-3.6992767
69	4	1	-0.095482991	-1.4336926	-3.6400677	19.125049
70	4	2	0.24909432	-0.83973211	-2.736047	20.007656
71	4	2	-0.10529655	-1.3399868	-2.5933405	21.24377
72	4	3	-0.040715743	-2.731081	-3.5318398	21.767388
73	4	2	-0.13434266	-0.72634489	-1.6399705	22.190081
74	4	4	0.22164389	-1.1490435	-1.5602882	23.183619
75	4	2	-0.22049712	0.33118774	-0.87884029	21.83229
76	4	5	0.017458193	0.95361604	0.088511947	22.85775
77	4	2	-0.22049709	-0.14670168	0.9665039	23.48484
78	4	2	-0.13090183	-1.0086447	1.6293069	22.683446
79	4	4	0.22164389	-0.94147399	1.5308288	21.606616
80	4	2	-0.079839156	-2.0663374	2.4986566	23.240519
81	4	3	-0.045311783	-3.157097	3.2978612	22.11529
82	4	2	0.52111375	-2.1709077	2.6586653	24.574216
83	4	1	-0.41512433	-3.1556266	3.4689761	25.144825
84	4	2	-0.079839163	-1.2195699	1.9617468	25.466877
85	4	3	-0.045311764	-1.3352287	2.1743998	27.206921
86	4	2	-0.13090174	-0.26633416	1.1705117	24.958669
87	4	4	0.22164392	0.41321748	0.6852522	25.64428
88	4	5	-0.12855597	1.6977873	-0.77508008	23.904929
89	4	6	0.092861309	2.2845453	-0.14239375	24.605523
90	4	6	0.092861309	0.98626074	-1.395078	24.489961
91	4	6	0.092861309	2.4133604	-1.4613326	23.401097
92	4	5	-0.12855597	1.9926733	1.0433893	22.223642
93	4	6	0.092861309	2.3455016	1.7849321	22.974438
94	4	6	0.092861309	1.5531886	1.6044354	21.371343
95	4	6	0.092861309	2.8862763	0.48748647	21.864846
96	4	2	-0.13434264	0.89077574	-1.0614879	20.459143
97	4	4	0.22164386	1.7510904	-0.49660616	20.131824
98	4	2	-0.1052966	0.33888122	-1.9293773	19.59947
99	4	3	-0.040715732	1.0374147	-2.0985323	17.99495
100	5	2	0.62906784	-3.8659131	3.9951623	24.580087
101	5	7	-0.4652516	-4.3613376	5.0167461	25.022932
102	1	1	-0.095482991	-1.0914244	-3.7803837	18.18275
103	1	2	0.24909432	-0.61583516	-2.7299988	17.396906
104	1	2	-0.10529655	-0.17578399	-2.98118	16.154812
105	1	3	-0.040715743	-0.19158972	-4.6143254	15.505592
106	1	2	-0.13434266	0.33381417	-1.8832982	15.309156
107	1	4	0.22164389	0.66924818	-2.1208819	14.307249
108	1	2	-0.22049712	0.38735078	-0.61337608	15.766243
109	1	5	0.017458193	0.90590065	0.50709142	14.842512
110	1	2	-0.22049709	2.2647784	0.10052292	14.239373
111	1	2	-0.082143292	3.2549375	-0.32900894	15.051452
112	1	4	0.22164389	3.091565	-0.40635104	16.119712
113	1	2	-0.17546471	4.5787266	-0.70915317	14.518395
114	1	3	-0.039817863	5.7934533	-1.2825642	15.654132
115	1	2	0.43684947	4.8253878	-0.61186052	13.197395
116	1	8	-0.62854636	6.0613128	-0.96219292	12.649772
117	1	9	0.43741596	6.8356657	-1.3065122	13.20247
118	1	2	-0.17546475	3.7622615	-0.11957949	12.294544
119	1	3	-0.039817833	4.0743078	0.029302528	10.572117
120	1	2	-0.082143248	2.5605311	0.21974823	12.780477
121	1	4	0.22164392	1.8143757	0.58130464	12.089255
122	1	5	-0.12855597	-0.17859736	0.74779023	13.76608
123	1	6	0.092861309	0.065038338	1.6323739	13.139209
124	1	6	0.092861309	-0.29193532	-0.1392242	13.106226
125	1	6	0.092861309	-1.1629324	0.94383345	14.244954
126	1	5	-0.12855597	1.1208747	1.8455383	15.589343
127	1	6	0.092861309	1.5845495	2.5953223	14.912343
128	1	6	0.092861309	1.7942747	1.7118228	16.462359
129	1	6	0.092861309	0.1558589	2.2699401	15.941091
130	1	2	-0.13434264	-0.12477253	-0.34373013	17.143794
131	1	4	0.22164386	-0.12833689	0.65753811	17.547678
132	1	2	-0.1052966	-0.59198654	-1.3375939	17.911522
133	1	3	-0.040715732	-1.1776033	-0.96220425	19.527707
134	2	2	0.47146845	-4.1584018	3.6295647	23.601833
135	2	7	-0.52938628	-3.5992938	2.6589619	23.12084
136	2	3	-0.062643566	-5.4361487	4.4360749	22.711353
137	4	1	-0.095482991	-2.1653969	-1.7570181	35.935481
138	4	2	0.24909432	-0.84459113	-1.4979072	36.306118
139	4	2	-0.10529655	0.064071489	-2.4824625	36.246283
140	4	3	-0.040715743	-0.38593323	-4.0930408	35.704403
141	4	2	-0.13434266	1.465283	-2.2274917	36.636889
142	4	4	0.22164389	2.1740378	-3.0426515	36.563937
143	4	2	-0.22049712	1.8601677	-1.0137763	37.080364
144	4	5	0.017458193	3.3366127	-0.78552784	37.458209
145	4	2	-0.22049709	3.8049629	-1.8859894	38.430034
146	4	2	-0.13090183	3.0773434	-2.1526287	39.536361
147	4	4	0.22164389	2.1594979	-1.6112369	39.731882
148	4	2	-0.079839156	3.4992953	-3.1849869	40.506415
149	4	3	-0.045311783	2.469548	-3.4775217	41.902363
150	4	2	0.52111375	4.6433208	-3.8677249	40.305518
151	4	1	-0.41512433	5.08014	-4.8528066	41.194716
152	4	2	-0.079839163	5.4670412	-3.5713957	39.113354
153	4	3	-0.045311764	6.9688729	-4.4434269	38.847991
154	4	2	-0.13090174	5.0785157	-2.63944	38.23387
155	4	4	0.22164392	5.7121629	-2.447912	37.379975
156	4	5	-0.12855597	4.1468131	-0.7690769	36.139319
157	4	6	0.092861309	5.2041185	-0.47738727	36.319406
158	4	6	0.092861309	4.1270151	-1.7635262	35.645752
159	4	6	0.092861309	3.7157412	-0.028237692	35.430681
160	4	5	-0.12855597	3.5700175	0.57284381	38.160969
161	4	6	0.092861309	4.6261529	0.65605737	38.501148
162	4	6	0.092861309	2.9156523	0.6801873	39.052383
163	4	6	0.092861309	3.3785314	1.4231602	37.470619
164	4	2	-0.13434264	0.84259656	0.079244099	37.12382
165	4	4	0.22164386	1.1117845	1.0743071	37.445934
166	4	2	-0.1052966	-0.42898488	-0.14784496	36.765535
167	4	3	-0.040715732	-1.5838307	1.1756275	36.841679
168	5	2	0.62906784	4.5528301	-5.1202621	42.061156
169	5	7	-0.4652516	5.1479112	-5.5849809	43.017767
170	1	1	-0.095482991	-2.8851187	-1.0457744	35.965396
171	1	2	0.24909432	-2.949723	-0.091088968	36.980998
172	1	2	-0.10529655	-3.928931	0.82564884	36.96434
173	1	3	-0.040715743	-5.1302559	0.83866993	35.68155
174	1	2	-0.13434266	-4.0121932	1.8456409	38.028695
175	1	4	0.22164389	-4.8232189	2.5622493	37.990084
176	1	2	-0.22049712	-3.1028275	1.8935389	39.026321
177	1	5	0.017458193	-3.2392811	2.9613289	40.130325
178	1	2	-0.22049709	-3.4038976	4.3547866	39.492516
179	1	2	-0.082143292	-2.5268595	4.7671864	38.551709
180	1	4	0.22164389	-1.7219048	4.116552	38.231438
181	1	2	-0.17546471	-2.6351454	6.1020534	37.929229
182	1	3	-0.039817863	-1.4606828	6.5354793	36.693495
183	1	2	0.43684947	-3.6133502	6.9457254	38.312221
184	1	8	-0.62854636	-3.7545301	8.2159313	37.74939
185	1	9	0.43741596	-3.1411175	8.5752532	37.029482
186	1	2	-0.17546475	-4.568577	6.5225053	39.35919
187	1	3	-0.039817833	-5.8388092	7.6179286	39.881542
188	1	2	-0.082143248	-4.470873	5.30881	39.9185
189	1	4	0.22164392	-5.1831956	5.041168	40.684152
190	1	5	-0.12855597	-4.4483128	2.5577703	41.006773
191	1	6	0.092861309	-4.5315349	3.2090972	41.903244
192	1	6	0.092861309	-5.3973849	2.6162458	40.431542
193	1	6	0.092861309	-4.3330847	1.512372	41.368068
194	1	5	-0.12855597	-1.9996981	3.0267586	41.054751
195	1	6	0.092861309	-2.0971724	3.8700866	41.772244
196	1	6	0.092861309	-1.0710124	3.1850666	40.466545
197	1	6	0.092861309	-1.8929817	2.0955015	41.651803
198	1	2	-0.13434264	-2.029311	0.85437852	39.044592
199	1	4	0.22164386	-1.292789	0.83215152	39.833714
200	1	2	-0.1052966	-1.9542823	-0.075121988	38.082376
201	1	3	-0.040715732	-0.66563808	-1.271138	38.15208
202	2	2	0.47146845	3.4780073	-4.9823167	42.104973
203	2	7	-0.52938628	2.8948261	-4.4359428	41.184429
204	2	3	-0.062643566	2.5788571	-5.5451639	43.501677
205	4	1	-0.095482991	-3.5193974	-1.7199488	58.128069
206	4	2	0.24909432	-2.2907704	-1.6763932	58.789595
207	4	2	-0.10529655	-2.2629665	-1.6162508	60.129075
208	4	3	-0.040715743	-3.7528241	-1.5948453	61.061796
209	4	2	-0.13434266	-0.97265298	-1.5668877	60.845756
210	4	4	0.22164389	-0.988455	-1.5314853	61.927716
211	4	2	-0.22049712	0.20141972	-1.5597365	60.177017
212	4	5	0.017458193	1.5253406	-1.5281728	60.965047
213	4	2	-0.22049709	1.4934551	-0.38459899	61.997536
214	4	2	-0.13090183	1.1577923	0.86238166	61.601487
215	4	4	0.22164389	0.89330729	1.0565169	60.56895
216	4	2	-0.079839156	1.1339455	1.993317	62.552923
217	4	3	-0.045311783	0.65712437	3.5740957	61.945959
218	4	2	0.52111375	1.472353	1.7939495	63.841728
219	4	1	-0.41512433	1.4625994	2.8326929	64.775958
220	4	2	-0.079839163	1.8681486	0.44068722	64.288504
221	4	3	-0.045311764	2.3268257	0.17060554	65.962728
222	4	2	-0.13090174	1.8829957	-0.58247361	63.424844
223	4	4	0.22164392	2.1851299	-1.553633	63.78939
224	4	5	-0.12855597	1.6984178	-2.9198448	61.620379
225	4	6	0.092861309	2.6967493	-3.0186749	62.098893
226	4	6	0.092861309	0.91359952	-3.1021401	62.38442
227	4	6	0.092861309	1.6192139	-3.7205816	60.852667
228	4	5	-0.12855597	2.7550106	-1.2886446	60.057269
229	4	6	0.092861309	3.6749413	-1.1776144	60.673279
230	4	6	0.092861309	2.6342379	-0.36251911	59.455572
231	4	6	0.092861309	2.9216063	-2.1452219	59.368205
232	4	2	-0.13434264	0.15689605	-1.6466169	58.686211
233	4	4	0.22164386	1.0669733	-1.6702379	58.105202
234	4	2	-0.1052966	-1.0126146	-1.6962196	58.033033
235	4	3	-0.040715732	-1.0034097	-1.7928668	56.277579
236	5	2	0.62906784	1.1941792	3.8182747	64.53745
237	5	7	-0.4652516	1.6407422	4.7462789	65.189047
238	1	1	-0.095482991	-3.5892899	-1.7647753	57.119175
239	1	2	0.24909432	-2.7234045	-1.063992	56.278824
240	1	2	-0.10529655	-2.8681858	-1.1647539	54.949004
241	1	3	-0.040715743	-4.1336335	-2.1663349	54.253031
242	1	2	-0.13434266	-1.9599197	-0.43306309	54.043548
243	1	4	0.22164389	-2.1140605	-0.5279181	52.975829
244	1	2	-0.22049712	-0.95792292	0.33393893	54.525427
245	1	5	0.017458193	-0.045832525	1.098971	53.545408
246	1	2	-0.22049709	0.49181119	0.13441127	52.470146
247	1	2	-0.082143292	1.0776621	-1.0238257	52.843847
248	1	4	0.22164389	1.1537643	-1.2849705	53.89259
249	1	2	-0.17546471	1.6246038	-1.9673864	51.848043
250	1	3	-0.039817863	2.3435333	-3.4622273	52.433578
251	1	2	0.43684947	1.5628301	-1.670805	50.535194
252	1	8	-0.62854636	2.0652235	-2.534106	49.55926
253	1	9	0.43741596	2.4989686	-3.4225155	49.774313
254	1	2	-0.17546475	0.94785336	-0.39558574	50.107016
255	1	3	-0.039817833	0.87554189	0.01317092	48.399976
256	1	2	-0.082143248	0.44789463	0.45617029	51.012545
257	1	4	0.22164392	0.014070202	1.3793958	50.659402
258	1	5	-0.12855597	-0.88571029	2.2526188	52.948349
259	1	6	0.092861309	-0.25827308	2.9296621	52.329682
260	1	6	0.092861309	-1.7160918	1.861119	52.322056
261	1	6	0.092861309	-1.3323596	2.8671602	53.760452
262	1	5	-0.12855597	1.1813448	1.733706	54.242945
263	1	6	0.092861309	1.859903	2.1904311	53.490309
264	1	6	0.092861309	1.7600232	0.97042002	54.805111
265	1	6	0.092861309	0.87408433	2.5400143	54.943342
266	1	2	-0.13434264	-0.82024389	0.45401489	56.008415
267	1	4	0.22164386	-0.05234723	1.0745871	56.445334
268	1	2	-0.1052966	-1.6460826	-0.20533804	56.83225
269	1	3	-0.040715732	-1.4338996	-0.03059541	58.570168
270	2	2	0.47146845	0.51954816	4.0105252	63.710343
271	2	7	-0.52938628	0.1434017	3.091469	63.003324
272	2	3	-0.062643566	-0.029733523	5.6450097	63.389718
273	4	1	-0.095482991	-0.99892236	-3.4205677	75.746865
274	4	2	0.24909432	-0.027630434	-2.8189105	76.549136
275	4	2	-0.10529655	0.40074366	-3.4485631	77.653052
276	4	3	-0.040715743	-0.24247955	-5.0221402	78.100511
277	4	2	-0.13434266	1.4256954	-2.8262089	78.5151
278	4	4	0.22164389	1.7566579	-3.3690747	79.3914
279	4	2	-0.22049712	1.9382593	-1.6092218	78.228866
280	4	5	0.017458193	3.0209974	-1.0055408	79.14429
281	4	2	-0.22049709	2.5534985	-1.054864	80.611881
282	4	2	-0.13090183	1.3388903	-0.56457908	80.941779
283	4	4	0.22164389	0.68731257	-0.15629812	80.178544
284	4	2	-0.079839156	0.85789189	-0.57244951	82.339417
285	4	3	-0.045311783	-0.74978796	0.063767299	82.663791
286	4	2	0.52111375	1.6465252	-1.0572585	83.318346
287	4	1	-0.41512433	1.2328259	-1.0859018	84.652476
288	4	2	-0.079839163	2.9903546	-1.5743774	82.980274
289	4	3	-0.045311764	4.034629	-2.1947501	84.249519
290	4	2	-0.13090174	3.4202776	-1.5708164	81.71215
291	4	4	0.22164392	4.4109678	-1.9506014	81.508127
292	4	5	-0.12855597	4.3210002	-1.8108468	78.904205
293	4	6	0.092861309	5.1837407	-1.3503663	79.432453
294	4	6	0.092861309	4.2090939	-2.8614355	79.245776
295	4	6	0.092861309	4.5689233	-1.8294735	77.820221
296	4	5	-0.12855597	3.3262023	0.47442925	78.812535
297	4	6	0.092861309	4.0396412	0.89796967	79.553943
298	4	6	0.092861309	2.4015818	1.0897955	78.839648
299	4	6	0.092861309	3.7952423	0.57529564	77.809481
300	4	2	-0.13434264	1.4667766	-0.92721678	76.986044
301	4	4	0.22164386	1.8632264	0.035113144	76.697741
302	4	2	-0.1052966	0.53995348	-1.4915968	76.199068
303	4	3	-0.040715732	0.019865766	-0.64007597	74.751495
304	5	2	0.62906784	0.29603567	-0.7383564	84.971761
305	5	7	-0.4652516	0.1529094	-0.33175743	86.111666
306	1	1	-0.095482991	-1.3529019	-2.9826388	74.905629
307	1	2	0.24909432	-1.5764384	-1.6081715	74.816656
308	1	2	-0.10529655	-2.047347	-1.0883071	73.673188
309	1	3	-0.040715743	-2.3865773	-2.1154938	72.288013
310	1	2	-0.13434266	-2.2875638	0.36406986	73.558881
311	1	4	0.22164389	-2.6799428	0.74714205	72.625031
312	1	2	-0.22049712	-2.0241962	1.2010558	74.585813
313	1	5	0.017458193	-2.3104014	2.7084022	74.432143
314	1	2	-0.22049709	-1.6617041	3.2343785	73.136703
315	1	2	-0.082143292	-0.35799466	2.9805669	72.891128
316	1	4	0.22164389	0.22641432	2.3944619	73.590269
317	1	2	-0.17546471	0.30882118	3.482459	71.672711
318	1	3	-0.039817863	2.0027499	3.075005	71.430128
319	1	2	0.43684947	-0.38043349	4.2280061	70.787027
320	1	8	-0.62854636	0.20900461	4.7214237	69.621164
321	1	9	0.43741596	1.1749112	4.5512367	69.372739
322	1	2	-0.17546475	-1.8024456	4.5383251	71.050277
323	1	3	-0.039817833	-2.7096806	5.5237323	69.913531
324	1	2	-0.082143248	-2.4060949	4.0772744	72.15412
325	1	4	0.22164392	-3.4429559	4.3322404	72.312773
326	1	5	-0.12855597	-3.8472656	2.8834601	74.445604
327	1	6	0.092861309	-4.1303672	3.9577329	74.470211
328	1	6	0.092861309	-4.3121936	2.4103127	73.553965
329	1	6	0.092861309	-4.2835659	2.406506	75.350494
330	1	5	-0.12855597	-1.7394644	3.5471569	75.600873
331	1	6	0.092861309	-1.8820672	4.6316958	75.403544
332	1	6	0.092861309	-0.65159283	3.3640824	75.72942
333	1	6	0.092861309	-2.2587563	3.3137967	76.555325
334	1	2	-0.13434264	-1.5194737	0.60691171	75.860518
335	1	4	0.22164386	-1.3176006	1.2284075	76.719973
336	1	2	-0.1052966	-1.3050031	-0.7113632	75.968285
337	1	3	-0.040715732	-0.70501277	-1.354951	77.492005
338	2	2	0.47146845	-0.54455031	-0.7407131	84.286486
339	2	7	-0.52938628	-0.38178808	-1.0628943	83.122126
340	2	3	-0.062643566	-2.1387504	-0.2798912	84.854129
341	4	1	-0.095482991	-1.2489126	18.447102	3.6040475
342	4	2	0.24909432	-1.1439638	17.9343	2.3098071
343	4	2	-0.10529655	-0.70530712	16.679865	2.1293399
344	4	3	-0.040715743	-0.26421838	15.672819	3.5009816
345	4	2	-0.13434266	-0.58534681	16.121509	0.76741993
346	4	4	0.22164389	-0.23964125	15.101115	0.66053814
347	4	2	-0.22049712	-0.89105241	16.859134	-0.32260898
348	4	5	0.017458193	-0.77103289	16.230463	-1.724437
349	4	2	-0.22049709	0.61760607	15.583466	-1.8914347
350	4	2	-0.13090183	1.7261819	16.300696	-1.6066071
351	4	4	0.22164389	1.6420869	17.318259	-1.2442986
352	4	2	-0.079839156	3.0787068	15.727766	-1.771657
353	4	3	-0.045311783	4.4592153	16.732469	-1.3481068
354	4	2	0.52111375	3.2237304	14.471052	-2.2352539
355	4	1	-0.41512433	4.4820636	13.888424	-2.4055808
356	4	2	-0.079839163	2.0222972	13.679206	-2.5774825
357	4	3	-0.045311764	2.1981647	12.045	-3.1978012
358	4	2	-0.13090174	0.79852536	14.199721	-2.4211733
359	4	4	0.22164392	-0.05293647	13.591196	-2.6895733
360	4	5	-0.12855597	-1.9263306	15.209997	-1.8662202
361	4	6	0.092861309	-1.9858205	14.809781	-2.9014483
362	4	6	0.092861309	-1.8001153	14.362781	-1.1596622
363	4	6	0.092861309	-2.9010654	15.697039	-1.6436984
364	4	5	-0.12855597	-0.92969642	17.268953	-2.8601693
365	4	6	0.092861309	-0.7418062	16.793337	-3.8483772
366	4	6	0.092861309	-0.20779722	18.105141	-2.7419158
367	4	6	0.092861309	-1.9603229	17.685411	-2.8858712
368	4	2	-0.13434264	-1.3968649	18.248244	-0.10682833
369	4	4	0.22164386	-1.6795768	18.87099	-0.94266967
370	4	2	-0.1052966	-1.5112554	18.756307	1.1283409
371	4	3	-0.040715732	-2.1078082	20.398891	1.3209264
372	5	2	0.62906784	5.3799503	14.384133	-2.1856279
373	5	7	-0.4652516	6.4048303	14.076242	-2.7687355
374	1	1	-0.095482991	-1.5738261	19.387946	3.7884558
375	1	2	0.24909432	-1.2364336	20.467937	2.9718598
376	1	2	-0.10529655	-1.6989824	21.691288	3.2701823
377	1	3	-0.040715743	-2.7224929	21.950472	4.6752271
378	1	2	-0.13434266	-1.3551841	22.845948	2.4165252
379	1	4	0.22164389	-1.7359608	23.820856	2.6946348
380	1	2	-0.22049712	-0.58942909	22.698864	1.3135825
381	1	5	0.017458193	-0.23565702	23.934657	0.46194739
382	1	2	-0.22049709	-1.5180535	24.718011	0.11925285
383	1	2	-0.082143292	-2.5742345	24.069423	-0.41759088
384	1	4	0.22164389	-2.529949	23.000711	-0.59005742
385	1	2	-0.17546471	-3.8147938	24.784164	-0.77985404
386	1	3	-0.039817863	-5.1444856	23.845716	-1.447308
387	1	2	0.43684947	-3.9025601	26.115872	-0.59491924
388	1	8	-0.62854636	-5.0563974	26.831676	-0.92113833
389	1	9	0.43741596	-5.8854555	26.400985	-1.3094964
390	1	2	-0.17546475	-2.7475931	26.848429	-0.031777264
391	1	3	-0.039817833	-2.8405098	28.587504	0.19904473
392	1	2	-0.082143248	-1.6251977	26.19641	0.30068289
393	1	4	0.22164392	-0.8025824	26.768788	0.70186532
394	1	5	-0.12855597	0.77819452	24.772965	1.2756572
395	1	6	0.092861309	1.1810776	25.614853	0.67256183
396	1	6	0.092861309	0.31101794	25.182996	2.1968892
397	1	6	0.092861309	1.6423771	24.144204	1.5830928
398	1	5	-0.12855597	0.44283569	23.562278	-0.87834773
399	1	6	0.092861309	0.59219395	24.470813	-1.5010475
400	1	6	0.092861309	-0.18237762	22.850537	-1.4580356
401	1	6	0.092861309	1.4432941	23.108289	-0.71078908
402	1	2	-0.13434264	-0.06381812	21.334879	1.0038988
403	1	4	0.22164386	0.57363781	21.167503	0.14873335
404	1	2	-0.1052966	-0.37060474	20.286237	1.7795866
405	1	3	-0.040715732	0.27254201	18.702134	1.3637791
406	2	2	0.47146845	5.395149	15.171017	-1.4394537
407	2	7	-0.52938628	4.3556554	15.540236	-0.92065132
408	2	3	-0.062643566	6.9163947	15.913015	-0.97978036
409	4	1	-0.095482991	2.813393	20.514574	16.880697
410	4	2	0.24909432	2.2663096	20.773259	18.138799
411	4	2	-0.10529655	3.0805278	20.961387	19.187729
412	4	3	-0.040715743	4.8266542	20.889625	18.998008
413	4	2	-0.13434266	2.5196633	21.233512	20.526518
414	4	4	0.22164389	3.2072678	21.39264	21.347505
415	4	2	-0.22049712	1.1849582	21.278709	20.732013
416	4	5	0.017458193	0.64241379	21.586017	22.141255
417	4	2	-0.22049709	1.3091242	20.65629	23.173687
418	4	2	-0.13090183	1.3212584	19.322569	22.960321
419	4	4	0.22164389	0.88294965	18.907845	22.060507
420	4	2	-0.079839156	1.9311258	18.391642	23.933075
421	4	3	-0.045311783	1.9211165	16.674343	23.551753
422	4	2	0.52111375	2.4716508	18.868755	25.071267
423	4	1	-0.41512433	3.0599829	18.026436	26.017963
424	4	2	-0.079839163	2.4444469	20.323875	25.334836
425	4	3	-0.045311764	3.131745	20.957268	26.82238
426	4	2	-0.13090174	1.8961483	21.164571	24.448504
427	4	4	0.22164392	1.8899029	22.219448	24.682006
428	4	5	-0.12855597	0.91948011	23.083382	22.419279
429	4	6	0.092861309	0.43841963	23.413404	23.365363
430	4	6	0.092861309	2.0099647	23.283169	22.481395
431	4	6	0.092861309	0.50403209	23.711299	21.60077
432	4	5	-0.12855597	-0.88547363	21.37019	22.253065
433	4	6	0.092861309	-1.2199479	21.509481	23.305108
434	4	6	0.092861309	-1.1688427	20.342924	21.938804
435	4	6	0.092861309	-1.4437385	22.102907	21.630366
436	4	2	-0.13434264	0.28941	21.086716	19.551689
437	4	4	0.22164386	-0.78421128	21.138768	19.65656
438	4	2	-0.1052966	0.79553202	20.844145	18.334374
439	4	3	-0.040715732	-0.30715928	20.621663	16.983219
440	5	2	0.62906784	3.118525	16.985327	25.904066
441	5	7	-0.4652516	3.1741921	16.26684	26.886852
442	1	1	-0.095482991	2.2383679	20.365195	16.061067
443	1	2	0.24909432	1.0357088	19.659403	16.111207
444	1	2	-0.10529655	0.31900686	19.495262	14.989187
445	1	3	-0.040715743	0.87558675	20.156439	13.458839
446	1	2	-0.13434266	-0.95747235	18.753883	15.022769
447	1	4	0.22164389	-1.5032773	18.630069	14.095651
448	1	2	-0.22049712	-1.4413124	18.243168	16.175837
449	1	5	0.017458193	-2.7673985	17.456435	16.162856
450	1	2	-0.22049709	-3.85636	18.278974	15.446464
451	1	2	-0.082143292	-4.078116	19.559273	15.815309
452	1	4	0.22164389	-3.4823569	20.014292	16.597536
453	1	2	-0.17546471	-5.1247943	20.37715	15.16985
454	1	3	-0.039817863	-5.3175141	22.04273	15.701794
455	1	2	0.43684947	-5.896681	19.841973	14.203865
456	1	8	-0.62854636	-6.896339	20.578836	13.565233
457	1	9	0.43741596	-7.098912	21.545605	13.784266
458	1	2	-0.17546475	-5.686446	18.433768	13.803272
459	1	3	-0.039817833	-6.6964076	17.716597	12.557504
460	1	2	-0.082143248	-4.7326084	17.695744	14.387176
461	1	4	0.22164392	-4.616248	16.670109	14.071276
462	1	5	-0.12855597	-2.4865839	16.102682	15.469117
463	1	6	0.092861309	-3.3645227	15.424928	15.537577
464	1	6	0.092861309	-2.2278374	16.247455	14.398071
465	1	6	0.092861309	-1.6321578	15.586264	15.95895
466	1	5	-0.12855597	-3.2922487	17.146595	17.585509
467	1	6	0.092861309	-4.2932347	16.666355	17.531704
468	1	6	0.092861309	-3.3916836	18.075927	18.185475
469	1	6	0.092861309	-2.616895	16.444055	18.119769
470	1	2	-0.13434264	-0.62350155	18.415212	17.41447
471	1	4	0.22164386	-0.95216764	18.004198	18.357189
472	1	2	-0.1052966	0.53746448	19.083637	17.385741
473	1	3	-0.040715732	1.4560635	19.259672	18.876078
474	2	2	0.47146845	3.1288835	16.549116	24.911189
475	2	7	-0.52938628	2.9835883	17.259258	23.93108
476	2	3	-0.062643566	3.3540889	14.820745	24.716083
477	4	1	-0.095482991	0.76044587	22.166017	41.298201
478	4	2	0.24909432	0.80766123	21.879983	39.932554
479	4	2	-0.10529655	0.36488187	22.788642	39.051145
480	4	3	-0.040715743	-0.27071449	24.335388	39.593083
481	4	2	-0.13434266	0.40466481	22.502423	37.602879
482	4	4	0.22164389	0.050461106	23.264275	36.920044
483	4	2	-0.22049712	0.8637877	21.321476	37.133539
484	4	5	0.017458193	0.90684639	21.072185	35.613423
485	4	2	-0.22049709	-0.46486631	21.396011	34.990244
486	4	2	-0.13090183	-1.5827347	20.853001	35.51939
487	4	4	0.22164389	-1.5203567	20.208972	36.38836
488	4	2	-0.079839156	-2.917073	21.119356	34.941974
489	4	3	-0.045311783	-4.3151454	20.387582	35.719486
490	4	2	0.52111375	-3.0328899	21.902261	33.851592
491	4	1	-0.41512433	-4.2733911	22.18231	33.273148
492	4	2	-0.079839163	-1.8174952	22.484628	33.242293
493	4	3	-0.045311764	-1.9532782	23.494341	31.81107
494	4	2	-0.13090174	-0.61100911	22.245649	33.771695
495	4	4	0.22164392	0.25246472	22.68379	33.292346
496	4	5	-0.12855597	2.0455398	21.950179	35.040125
497	4	6	0.092861309	2.2257883	21.725988	33.966506
498	4	6	0.092861309	1.8102689	23.030006	35.147605
499	4	6	0.092861309	2.995869	21.752743	35.583013
500	4	5	-0.12855597	1.2332831	19.602178	35.258401
501	4	6	0.092861309	1.1604233	19.444206	34.159399
502	4	6	0.092861309	0.52285215	18.90409	35.750635
503	4	6	0.092861309	2.2687313	19.333563	35.561686
504	4	2	-0.13434264	1.3719808	20.325744	38.124646
505	4	4	0.22164386	1.7733258	19.376879	37.800692
506	4	2	-0.1052966	1.3414891	20.584433	39.439563
507	4	3	-0.040715732	1.9487891	19.372818	40.559483
508	5	2	0.62906784	-5.1795249	21.807729	33.645864
509	5	7	-0.4652516	-6.1295695	21.654989	32.898017
510	1	1	-0.095482991	1.0822768	21.510839	41.999577
511	1	2	0.24909432	0.87741694	20.135248	41.886323
512	1	2	-0.10529655	1.3282137	19.318804	42.850551
513	1	3	-0.040715743	2.1716818	19.959346	44.253109
514	1	2	-0.13434266	1.123515	17.860186	42.747115
515	1	4	0.22164389	1.4897152	17.232614	43.550129
516	1	2	-0.22049712	0.50015276	17.313739	41.680666
517	1	5	0.017458193	0.28728814	15.78765	41.622695
518	1	2	-0.22049709	1.6214832	15.063151	41.888494
519	1	2	-0.082143292	2.7209663	15.407044	41.183327
520	1	4	0.22164389	2.6727894	16.200632	40.447291
521	1	2	-0.17546471	4.0144749	14.725362	41.391226
522	1	3	-0.039817863	5.3946419	15.264567	40.443251
523	1	2	0.43684947	4.110612	13.723104	42.286539
524	1	8	-0.62854636	5.3135861	13.052347	42.516914
525	1	9	0.43741596	6.174367	13.274856	42.034007
526	1	2	-0.17546475	2.9118884	13.314593	43.050671
527	1	3	-0.039817833	3.0172697	11.997979	44.208996
528	1	2	-0.082143248	1.7408611	13.938372	42.863522
529	1	4	0.22164392	0.88830495	13.605239	43.435737
530	1	5	-0.12855597	-0.80062908	15.439988	42.665933
531	1	6	0.092861309	-1.1032676	14.373297	42.592495
532	1	6	0.092861309	-0.443937	15.641351	43.699021
533	1	6	0.092861309	-1.7118626	16.053986	42.494675
534	1	5	-0.12855597	-0.22499887	15.307811	40.243301
535	1	6	0.092861309	-0.27211938	14.197674	40.213727
536	1	6	0.092861309	0.45099271	15.642283	39.428028
537	1	6	0.092861309	-1.2494012	15.687644	40.039768
538	1	2	-0.13434264	-0.015175354	18.23563	40.623699
539	1	4	0.22164386	-0.54316441	17.852496	39.763404
540	1	2	-0.1052966	0.16527684	19.560056	40.717477
541	1	3	-0.040715732	-0.45854835	20.597221	39.440353
542	2	2	0.47146845	-5.2698279	21.556077	34.696916
543	2	7	-0.52938628	-4.2956555	21.623982	35.426576
544	2	3	-0.062643566	-6.8184484	21.050421	35.346637
545	4	1	-0.095482991	2.6973575	20.713355	55.541734
546	4	2	0.24909432	2.2873638	19.552714	56.20041
547	4	2	-0.10529655	2.2225564	18.396538	55.523908
548	4	3	-0.040715743	2.650102	18.323452	53.820393
549	4	2	-0.13434266	1.7885391	17.159309	56.203518
550	4	4	0.22164389	1.7602483	16.242036	55.629105
551	4	2	-0.22049712	1.4287481	17.163573	57.505917
552	4	5	0.017458193	1.0016665	15.845903	58.181269
553	4	2	-0.22049709	-0.078869086	15.148234	57.332439