Title

387 atoms
395 bonds
698 angles
1229 dihedrals
237 impropers

12 atom types
18 bond types
10 angle types
33 dihedral types
3 improper types
-8.996999741 91.00300026 xlo xhi
-2.134000063 97.86599994 ylo yhi
-20.90699959 79.09300041 zlo zhi
0.0 0.0 0.0 xy xz yz

Masses

1	15.99943
2	12.01078
3	14.00672
4	12.01078
5	1.007947
6	1.007947
7	1.007947
8	15.99943
9	1.007947
10	12.01078
11	15.99943
12	1.007947


Pair Coeffs

1	0.2102061	3.0398122
2	0.086879315	3.4806469
3	0.16769152	3.206876
4	0.10884061	3.3795318
5	0.014090815	1.1034277
6	0.016409246	2.5832257
7	0.015779483	2.6445434
8	0.16846514	3.0251065
9	0.015611343	2.5725815
10	0.21	3.3996695
11	0.20947353	2.99716
12	1.2326e-05	0.53453923

Bond Coeffs

1 harmonic	582.698766451	1.225198386222
2 harmonic	492.76746816345	1.381897776683
3 harmonic	301.15400723785	1.345741232799
4 harmonic	352.0565580496	1.450098586273
5 harmonic	505.144496193	1.019481865027
6 harmonic	264.62148576755	1.52190126495
7 harmonic	370.04670688625	1.093899492634
8 harmonic	279.1350963404	1.454628925034
9 harmonic	366.7408841747	1.425895053732
10 harmonic	289.73813263395	1.498646816465
11 harmonic	445.3060766333	1.328776712165
12 harmonic	360.7852444772	1.387193227181
13 harmonic	397.2545789619	1.085358495916
14 harmonic	300.03137914615	1.451203938761
15 harmonic	366.34047229585	1.464762957261
16 harmonic	602.81384337	1.196112346392
17 harmonic	329.96998057905	1.427343958716
18 harmonic	543.5267831885	0.9716763312559


Angle Coeffs

1 harmonic	57.8982893754	126.8062420451
2 harmonic	201.41175231035	127.4691416191
3 harmonic	55.42182150775	117.3465570514
4 harmonic	63.44422595415	115.5071327674
5 harmonic	65.09061609600001	110.3538806181
6 harmonic	53.20531626545	116.5475862634
7 harmonic	48.776492647595	115.6030999533
8 harmonic	55.07882548015	112.8714009681
9 harmonic	34.066775159195	129.1835929926
10 harmonic	33.56981613361	180


Dihedral Coeffs

1 fourier 1	1.809047390003	2	180
2 fourier 1	-0.04816277792592	1	0
3 fourier 1	0.4860993122944	2	180
4 fourier 1	0.8916986138746	1	0
5 fourier 1	1.163809172478	2	180
6 fourier 1	0.1679186987369	1	180
7 fourier 1	-0.1488678166443	4	180
8 fourier 1	-0.1230328948768	3	180
9 fourier 1	0.2939295466901	2	0
10 fourier 1	-0.3024127022865	1	0
11 fourier 1	0.182238503271	2	0
12 fourier 1	0.02972342374561	3	0
13 fourier 1	0.0473758381877	3	0
14 fourier 1	2.779853741805	2	180
15 fourier 1	0.1155372516788	3	0
16 fourier 1	0.09223874044423	3	0
17 fourier 1	0.3159935921949	2	180
18 fourier 1	0.3247796806857	1	180
19 fourier 1	0.1040663847541	3	0
20 fourier 1	3.101948770557	2	180
21 fourier 1	-0.4252153282372	1	0
22 fourier 1	0.9974165607242	2	180
23 fourier 1	2.348375642009	2	180
24 fourier 1	1.256156174911	1	0
25 fourier 1	0.1911926717192	3	0
26 fourier 1	0.02664938770063	3	0
27 fourier 1	3.731869940596	2	180
28 fourier 1	3.661930099076	2	180
29 fourier 1	5.913282223828	2	180
30 fourier 1	0.457973137376	1	0
31 fourier 1	-1.382973039546	1	0
32 fourier 1	0	1	0
33 fourier 1	0.3026390167484	3	0


Improper Coeffs

1 3.5	-1	2
2 0.3333333333333333	-1	2
3 0.3666666666666667	-1	2


Atoms

1	1	1	-0.57593101	5.5929999	0.308	0.098999999
2	1	2	0.78787398	4.6459999	1.073	-0.22499999
3	1	3	-0.45426399	3.2980001	0.59799999	-0.25600001
4	1	4	0.031059001	2.967	-0.78899997	0.072999999
5	1	4	-0.139699	1.454	-1.039	0.015
6	1	4	-0.13774601	0.71100003	-0.33000001	1.16
7	1	4	-0.13774601	-0.78399998	-0.685	1.204
8	1	4	-0.14100599	-1.574	-0.057999998	0.045000002
9	1	4	0.036679	-3.075	-0.32100001	0.199
10	1	3	-0.51234102	-3.812	0.237	-0.93300003
11	1	2	0.55105799	-4.0619998	1.6390001	-1.0779999
12	1	1	-0.63414502	-3.6559999	2.4619999	-0.215
13	1	5	0.32991099	-4.224	-0.41499999	-1.637
14	1	6	0.069879003	-3.25	-1.419	0.237
15	1	6	0.069879003	-3.454	0.119	1.148
16	1	7	0.100401	-1.39	1.038	0.024
17	1	7	0.100401	-1.2359999	-0.491	-0.92000002
18	1	7	0.098846003	-0.90899998	-1.79	1.194
19	1	7	0.098846003	-1.197	-0.308	2.165
20	1	7	0.098846003	1.164	-0.64300001	2.1270001
21	1	7	0.098846003	0.82999998	0.77100003	1.076
22	1	7	0.100401	1.278	-2.1340001	0.089000002
23	1	7	0.100401	1.0700001	-0.69599998	-0.97000003
24	1	6	0.073620997	3.467	-1.461	-0.65700001
25	1	6	0.073620997	3.3499999	-1.0369999	1.087
26	1	5	0.33648601	2.55	1.27	-0.54100001
27	1	8	-0.49177	0.80500001	6.6859999	1.3200001
28	1	4	0.168383	0.77200001	5.7270002	0.30199999
29	1	2	0.202021	1.393	4.46	0.796
30	1	3	-0.65944397	2.6559999	4.224	0.57099998
31	1	2	0.202021	3.3099999	3.0369999	1.057
32	1	4	0.168383	4.7509999	2.7980001	0.71600002
33	1	8	-0.49177	4.849	2.0610001	-0.47099999
34	1	6	0.089399002	5.276	2.276	1.549
35	1	6	0.089399002	5.257	3.776	0.56999999
36	1	2	-0.356134	2.609	2.1329999	1.761
37	1	2	-0.15230501	1.1849999	2.3870001	2.0510001
38	1	2	-0.356134	0.60000002	3.4990001	1.595
39	1	9	0.20965099	-0.44400001	3.6900001	1.808
40	1	9	0.22036199	0.61699998	1.6720001	2.632
41	1	9	0.20965099	3.073	1.222	2.1199999
42	1	6	0.089399002	-0.28099999	5.5320001	-0.001
43	1	6	0.089399002	1.329	6.099	-0.58700001
44	1	1	-0.57593101	3.5969999	13.745	-5.9549999
45	1	2	0.78787398	3.345	12.559	-5.6110001
46	1	3	-0.45426399	2.8989999	12.26	-4.2849998
47	1	4	0.031059001	2.7309999	13.309	-3.2780001
48	1	4	-0.139699	2.198	12.743	-1.955
49	1	4	-0.13774601	0.736	12.281	-2.076
50	1	4	-0.13774601	0.14	11.846	-0.72799999
51	1	4	-0.139699	0.72100002	10.515	-0.228
52	1	4	0.031059001	0.0080000004	10.049	1.046
53	1	3	-0.45426399	0.60100001	8.8079996	1.54
54	1	2	0.78787398	0.36000001	7.5370002	0.92799997
55	1	1	-0.57593101	-0.39199999	7.434	-0.077
56	1	5	0.33648601	1.177	8.8380003	2.411
57	1	6	0.073620997	0.108	10.834	1.827
58	1	6	0.073620997	-1.077	9.8959999	0.852
59	1	7	0.100401	0.61000001	9.7419996	-1.018
60	1	7	0.100401	1.802	10.636	-0.0020000001
61	1	7	0.098846003	0.30500001	12.641	0.030999999
62	1	7	0.098846003	-0.958	11.73	-0.861
63	1	7	0.098846003	0.125	13.126	-2.4630001
64	1	7	0.098846003	0.65200001	11.447	-2.8069999
65	1	7	0.100401	2.2650001	13.54	-1.183
66	1	7	0.100401	2.848	11.9	-1.636
67	1	6	0.073620997	3.7160001	13.788	-3.0899999
68	1	6	0.073620997	2.036	14.089	-3.661
69	1	5	0.33648601	2.714	11.26	-4.0469999
70	1	8	-0.49177	-0.69199997	6.9239998	-6.382
71	1	4	0.168383	0.38	7.2529998	-5.5450001
72	1	2	0.202021	0.44	8.7379999	-5.3790002
73	1	3	-0.65944397	1.212	9.448	-6.1539998
74	1	2	0.202021	1.277	10.884	-6.059
75	1	4	0.168383	2.227	11.638	-6.9419999
76	1	8	-0.49177	3.4619999	11.792	-6.2989998
77	1	6	0.089399002	1.8049999	12.629	-7.2259998
78	1	6	0.089399002	2.3840001	11.066	-7.8800001
79	1	2	-0.356134	0.52899998	11.524	-5.145
80	1	2	-0.15230501	-0.37099999	10.747	-4.2719998
81	1	2	-0.356134	-0.41999999	9.415	-4.382
82	1	9	0.20965099	-1.082	8.8409996	-3.7460001
83	1	9	0.22036199	-0.99000001	11.256	-3.5439999
84	1	9	0.20965099	0.57599998	12.601	-5.04
85	1	6	0.089399002	0.24699999	6.7719998	-4.5500002
86	1	6	0.089399002	1.3329999	6.8850002	-5.9879999
87	1	1	-0.57593101	5.6069999	-0.082999997	-11.047
88	1	2	0.78787398	5.4200001	0.85299999	-10.225
89	1	3	-0.45426399	4.112	1.392	-10.013
90	1	4	0.031059001	2.9489999	0.88999999	-10.746
91	1	4	-0.139699	1.658	1.5930001	-10.307
92	1	4	-0.13774601	1.242	1.192	-8.882
93	1	4	-0.13774601	-0.123	1.773	-8.4790001
94	1	4	-0.139699	-0.074000001	3.29	-8.2460003
95	1	4	0.031059001	-1.416	3.8069999	-7.717
96	1	3	-0.45426399	-1.374	5.2579999	-7.5450001
97	1	2	0.78787398	-0.69	5.8899999	-6.4580002
98	1	1	-0.57593101	-0.090999998	5.2069998	-5.585
99	1	5	0.33648601	-1.9119999	5.8600001	-8.2080002
100	1	6	0.073620997	-2.217	3.553	-8.4449997
101	1	6	0.073620997	-1.6670001	3.322	-6.7480001
102	1	7	0.100401	0.72799999	3.526	-7.5139999
103	1	7	0.100401	0.154	3.812	-9.1999998
104	1	7	0.098846003	-0.87900001	1.533	-9.2589998
105	1	7	0.098846003	-0.442	1.276	-7.5370002
106	1	7	0.098846003	1.17	0.083999999	-8.8280001
107	1	7	0.098846003	2.0139999	1.513	-8.1490002
108	1	7	0.100401	0.84799999	1.3099999	-11.015
109	1	7	0.100401	1.804	2.6919999	-10.376
110	1	6	0.073620997	3.1029999	1.071	-11.832
111	1	6	0.073620997	2.852	-0.207	-10.59
112	1	5	0.33648601	4.0120001	2.175	-9.3290005
113	1	8	-0.49177	5.4840002	2.971	-3.5799999
114	1	4	0.168383	5.1259999	3.5669999	-4.7940001
115	1	2	0.202021	4.723	2.5050001	-5.7670002
116	1	3	-0.65944397	5.599	2.023	-6.6020002
117	1	2	0.202021	5.2709999	0.97299999	-7.533
118	1	4	0.168383	6.3099999	0.50099999	-8.5059996
119	1	8	-0.49177	6.2259998	1.2359999	-9.6949997
120	1	6	0.089399002	6.1999998	-0.58899999	-8.7089996
121	1	6	0.089399002	7.3179998	0.653	-8.0649996
122	1	2	-0.356134	4.026	0.47099999	-7.5549998
123	1	2	-0.15230501	3.0209999	0.98199999	-6.6030002
124	1	2	-0.356134	3.3499999	1.951	-5.744
125	1	9	0.20965099	2.6159999	2.3269999	-5.0419998
126	1	9	0.22036199	2.02	0.57099998	-6.6030002
127	1	9	0.20965099	3.7490001	-0.30399999	-8.2600002
128	1	6	0.089399002	4.277	4.2690001	-4.6360002
129	1	6	0.089399002	5.987	4.1440001	-5.2010002
130	1	1	-0.57593101	13.584	9.6590004	-3.1329999
131	1	2	0.78787398	12.598	9.1630001	-3.74
132	1	3	-0.45426399	11.762	8.1899996	-3.109
133	1	4	0.031059001	12.023	7.7249999	-1.7460001
134	1	4	-0.139699	10.961	6.7199998	-1.278
135	1	4	-0.13774601	9.5959997	7.3920002	-1.052
136	1	4	-0.13774601	8.559	6.434	-0.447
137	1	4	-0.139699	8.085	5.3670001	-1.446
138	1	4	0.031059001	6.9569998	4.5190001	-0.85000002
139	1	3	-0.45426399	6.5479999	3.4779999	-1.79
140	1	2	0.78787398	5.7470002	3.7479999	-2.9449999
141	1	1	-0.57593101	5.3509998	4.9159999	-3.1989999
142	1	5	0.33648601	6.7989998	2.4849999	-1.582
143	1	6	0.073620997	7.3179998	4.039	0.086000003
144	1	6	0.073620997	6.0830002	5.1570001	-0.59200001
145	1	7	0.100401	7.7249999	5.8639998	-2.3729999
146	1	7	0.100401	8.9289999	4.6960001	-1.71
147	1	7	0.098846003	8.9809999	5.9439998	0.45899999
148	1	7	0.098846003	7.6820002	7.0370002	-0.125
149	1	7	0.098846003	9.7279997	8.2419996	-0.347
150	1	7	0.098846003	9.2060003	7.8080001	-2.007
151	1	7	0.100401	11.306	6.2680001	-0.32300001
152	1	7	0.100401	10.876	5.9089999	-2.0320001
153	1	6	0.073620997	13.018	7.23	-1.719
154	1	6	0.073620997	12.051	8.5930004	-1.052
155	1	5	0.33648601	10.964	7.8010001	-3.6600001
156	1	8	-0.49177	6.3189998	10.166	-6.605
157	1	4	0.168383	7.1360002	9.0480003	-6.4039998
158	1	2	0.202021	8.0319996	9.2950001	-5.2329998
159	1	3	-0.65944397	9.2320004	9.7690001	-5.4219999
160	1	2	0.202021	10.12	10.059	-4.3260002
161	1	4	0.168383	11.508	10.55	-4.6129999
162	1	8	-0.49177	12.391	9.4659996	-4.711
163	1	6	0.089399002	11.848	11.265	-3.829
164	1	6	0.089399002	11.509	11.096	-5.5799999
165	1	2	-0.356134	9.7150002	9.835	-3.0650001
166	1	2	-0.15230501	8.3529997	9.3219995	-2.822
167	1	2	-0.356134	7.5440001	9.066	-3.8540001
168	1	9	0.20965099	6.5419998	8.6929998	-3.6800001
169	1	9	0.22036199	8.0129995	9.1540003	-1.808
170	1	9	0.20965099	10.372	10.025	-2.2249999
171	1	6	0.089399002	6.5079999	8.1490002	-6.21
172	1	6	0.089399002	7.7480001	8.8579998	-7.3140001
173	1	1	-0.57593101	8.04	9.0810003	-16.92
174	1	2	0.78787398	8.2620001	8.7469997	-15.726
175	1	3	-0.45426399	7.5359998	9.3470001	-14.65
176	1	4	0.031059001	6.5209999	10.374	-14.89
177	1	4	-0.139699	5.8520002	10.823	-13.584
178	1	4	-0.13774601	4.954	9.7229996	-12.992
179	1	4	-0.13774601	4.164	10.203	-11.764
180	1	4	-0.139699	5.0549998	10.409	-10.531
181	1	4	0.031059001	4.2140002	10.755	-9.2969999
182	1	3	-0.45426399	5.0760002	10.996	-8.1420002
183	1	2	0.78787398	5.7179999	9.9399996	-7.4200001
184	1	1	-0.57593101	5.5570002	8.7360001	-7.7550001
185	1	5	0.33648601	5.1830001	11.974	-7.789
186	1	6	0.073620997	3.6240001	11.674	-9.5050001
187	1	6	0.073620997	3.5009999	9.934	-9.0679998
188	1	7	0.100401	5.6350002	9.4809999	-10.335
189	1	7	0.100401	5.7690001	11.239	-10.715
190	1	7	0.098846003	3.6270001	11.147	-12.006
191	1	7	0.098846003	3.3970001	9.4329996	-11.528
192	1	7	0.098846003	4.2220001	9.4040003	-13.765
193	1	7	0.098846003	5.5609999	8.8330002	-12.719
194	1	7	0.100401	5.2319999	11.721	-13.8
195	1	7	0.100401	6.6389999	11.117	-12.858
196	1	6	0.073620997	7.0050001	11.255	-15.363
197	1	6	0.073620997	5.7519999	9.9849997	-15.593
198	1	5	0.33648601	7.7659998	9.0430002	-13.677
199	1	8	-0.49177	7.9980001	3.7750001	-10.842
200	1	4	0.168383	8.3710003	5.1230001	-10.847
201	1	2	0.202021	7.658	5.8299999	-11.956
202	1	3	-0.65944397	8.2370005	5.9710002	-13.115
203	1	2	0.202021	7.579	6.6100001	-14.225
204	1	4	0.168383	8.3210001	6.7909999	-15.516
205	1	8	-0.49177	8.9809999	8.0270004	-15.523
206	1	6	0.089399002	7.631	6.7090001	-16.386999
207	1	6	0.089399002	9.0769997	5.9850001	-15.618
208	1	2	-0.356134	6.3309999	7.085	-14.074
209	1	2	-0.15230501	5.6440001	6.9159999	-12.78
210	1	2	-0.356134	6.2719998	6.3140001	-11.765
211	1	9	0.20965099	5.7690001	6.1849999	-10.815
212	1	9	0.22036199	4.632	7.2810001	-12.655
213	1	9	0.20965099	5.823	7.5879998	-14.888
214	1	6	0.089399002	8.1059999	5.5939999	-9.8739996
215	1	6	0.089399002	9.4709997	5.211	-10.99
216	1	1	-0.57593101	18.09	1.391	-9.1079998
217	1	2	0.78787398	17.184	2.23	-9.3570004
218	1	3	-0.45426399	15.811	1.8329999	-9.4099998
219	1	4	0.031059001	15.406	0.44400001	-9.1890001
220	1	4	-0.139699	13.881	0.28299999	-9.25
221	1	4	-0.13774601	13.188	0.935	-8.0419998
222	1	4	-0.13774601	11.676	0.66000003	-8.0089998
223	1	4	-0.139699	10.913	1.421	-9.1029997
224	1	4	0.031059001	9.401	1.228	-8.9530001
225	1	3	-0.45426399	8.6870003	1.916	-10.027
226	1	2	0.78787398	8.5129995	3.3369999	-10.056
227	1	1	-0.57593101	8.9709997	4.0640001	-9.1350002
228	1	5	0.33648601	8.2340002	1.346	-10.776
229	1	6	0.073620997	9.1660004	0.14300001	-9.0010004
230	1	6	0.073620997	9.0539999	1.6109999	-7.9679999
231	1	7	0.100401	11.157	2.5039999	-9.0389996
232	1	7	0.100401	11.219	1.05	-10.104
233	1	7	0.098846003	11.489	-0.43200001	-8.1059999
234	1	7	0.098846003	11.291	0.98000002	-7.0159998
235	1	7	0.098846003	13.63	0.52200001	-7.1090002
236	1	7	0.098846003	13.367	2.0320001	-8.0380001
237	1	7	0.100401	13.646	-0.80400002	-9.2609997
238	1	7	0.100401	13.509	0.72399998	-10.198
239	1	6	0.073620997	15.863	-0.193	-9.9779997
240	1	6	0.073620997	15.783	0.094999999	-8.2030001
241	1	5	0.33648601	15.1	2.566	-9.632
242	1	8	-0.49177	13.671	7.901	-7.3200002
243	1	4	0.168383	13.577	7.0300002	-8.4119997
244	1	2	0.202021	14.131	5.6950002	-8.0279999
245	1	3	-0.65944397	15.377	5.4099998	-8.2869997
246	1	2	0.202021	15.968	4.1529999	-7.9060001
247	1	4	0.168383	17.391001	3.865	-8.2819996
248	1	8	-0.49177	17.438999	3.221	-9.526
249	1	6	0.089399002	17.893	3.2490001	-7.5009999
250	1	6	0.089399002	17.950001	4.822	-8.3559999
251	1	2	-0.356134	15.223	3.2349999	-7.2680001
252	1	2	-0.15230501	13.818	3.5420001	-6.941
253	1	2	-0.356134	13.292	4.717	-7.2989998
254	1	9	0.20965099	12.261	4.948	-7.059
255	1	9	0.22036199	13.215	2.8139999	-6.4130001
256	1	9	0.20965099	15.639	2.2750001	-6.9889998
257	1	6	0.089399002	12.512	6.9180002	-8.717
258	1	6	0.089399002	14.147	7.4419999	-9.2740002
259	1	1	-0.57593101	16.792999	15.361	-14.038
260	1	2	0.78787398	16.478001	14.168	-13.787
261	1	3	-0.45426399	16.027	13.787	-12.485
262	1	4	0.031059001	15.924	14.759	-11.395
263	1	4	-0.139699	15.372	14.117	-10.115
264	1	4	-0.13774601	13.885	13.747	-10.255
265	1	4	-0.13774601	13.277	13.237	-8.9390001
266	1	4	-0.139699	13.787	11.841	-8.5539999
267	1	4	0.031059001	13.059	11.313	-7.3140001
268	1	3	-0.45426399	13.586	10.006	-6.928
269	1	2	0.78787398	13.271	8.8030005	-7.6370001
270	1	1	-0.57593101	12.506	8.823	-8.6379995
271	1	5	0.33648601	14.17	9.9329996	-6.0650001
272	1	6	0.073620997	13.208	12.025	-6.473
273	1	6	0.073620997	11.966	11.235	-7.506
274	1	7	0.100401	13.627	11.142	-9.4029999
275	1	7	0.100401	14.875	11.884	-8.3330002
276	1	7	0.098846003	13.491	13.959	-8.1199999
277	1	7	0.098846003	12.173	13.192	-9.0670004
278	1	7	0.098846003	13.319	14.653	-10.565
279	1	7	0.098846003	13.75	12.981	-11.049
280	1	7	0.100401	15.488	14.844	-9.2819996
281	1	7	0.100401	15.976	13.218	-9.8719997
282	1	6	0.073620997	16.936001	15.167	-11.181
283	1	6	0.073620997	15.271	15.603	-11.705
284	1	5	0.33648601	15.789	12.782	-12.325
285	1	8	-0.49177	12.13	8.842	-14.959
286	1	4	0.168383	13.225	9.0430002	-14.112
287	1	2	0.202021	13.368	10.505	-13.828
288	1	3	-0.65944397	14.172	11.232	-14.552
289	1	2	0.202021	14.318	12.649	-14.343
290	1	4	0.168383	15.301	13.419	-15.174
291	1	8	-0.49177	16.548	13.453	-14.536
292	1	6	0.089399002	14.932	14.452	-15.373
293	1	6	0.089399002	15.419	12.917	-16.158001
294	1	2	-0.356134	13.613	13.253	-13.372
295	1	2	-0.15230501	12.678	12.458	-12.553
296	1	2	-0.356134	12.555	11.145	-12.77
297	1	9	0.20965099	11.867	10.558	-12.173
298	1	9	0.22036199	12.094	12.939	-11.78
299	1	9	0.20965099	13.721	14.314	-13.182
300	1	6	0.089399002	13.073	8.4910002	-13.157
301	1	6	0.089399002	14.153	8.6599998	-14.594
302	1	1	-0.57593101	17.996	1.902	-20.247999
303	1	2	0.78787398	17.867001	2.777	-19.351
304	1	3	-0.45426399	16.593	3.368	-19.080999
305	1	4	0.031059001	15.398	2.99	-19.837999
306	1	4	-0.139699	14.151	3.7249999	-19.329
307	1	4	-0.13774601	13.725	3.234	-17.934999
308	1	4	-0.13774601	12.397	3.8540001	-17.469999
309	1	4	-0.139699	12.532	5.342	-17.117001
310	1	4	0.031059001	11.225	5.8870001	-16.531
311	1	3	-0.45426399	11.349	7.3150001	-16.243999
312	1	2	0.78787398	12.074	7.8179998	-15.118
313	1	1	-0.57593101	12.641	7.0349998	-14.31
314	1	5	0.33648601	10.839	7.9959998	-16.85
315	1	6	0.073620997	10.405	5.737	-17.268
316	1	6	0.073620997	10.955	5.3390002	-15.602
317	1	7	0.100401	13.352	5.474	-16.378
318	1	7	0.100401	12.781	5.9260001	-18.028
319	1	7	0.098846003	11.623	3.7190001	-18.257
320	1	7	0.098846003	12.059	3.3	-16.566999
321	1	7	0.098846003	13.592	2.1300001	-17.969999
322	1	7	0.098846003	14.519	3.451	-17.188
323	1	7	0.100401	13.322	3.5450001	-20.047001
324	1	7	0.100401	14.358	4.8169999	-19.311001
325	1	6	0.073620997	15.553	3.25	-20.907
326	1	6	0.073620997	15.242	1.892	-19.77
327	1	5	0.33648601	16.542	4.0970001	-18.334999
328	1	8	-0.119883	18.1	4.3439999	-12.559
329	1	4	0.075067997	17.764999	5.0549998	-13.717
330	1	2	0.245268	17.297001	4.099	-14.767
331	1	3	-0.65483499	18.139	3.638	-15.649
332	1	2	0.205007	17.746	2.687	-16.657
333	1	4	0.168383	18.75	2.2390001	-17.677
334	1	8	-0.49177	18.697001	3.072	-18.802999
335	1	6	0.089399002	18.577999	1.176	-17.965
336	1	6	0.089399002	19.768	2.3	-17.238001
337	1	2	-0.356134	16.475	2.257	-16.704
338	1	2	-0.15077899	15.507	2.743	-15.702
339	1	2	-0.34944201	15.896	3.6210001	-14.772
340	1	9	0.20983399	15.189	3.9779999	-14.033
341	1	9	0.22036199	14.484	2.3889999	-15.723
342	1	9	0.20965099	16.15	1.558	-17.465
343	1	6	0.10542	16.958	5.7880001	-13.493
344	1	6	0.10542	18.653999	5.6149998	-14.086
345	1	1	-0.63414502	-5.77	1.549	-2.1619999
346	1	2	0.55105799	-4.6149998	1.998	-1.936
347	1	3	-0.51234102	-4.026	2.9749999	-2.799
348	1	4	0.036679	-4.7350001	3.4860001	-3.9719999
349	1	4	-0.14100599	-3.8829999	4.5229998	-4.7150002
350	1	4	-0.137568	-4.645	5.2210002	-5.8540001
351	1	4	-0.133388	-5.0100002	4.2800002	-7.0219998
352	1	4	-0.117554	-6.4879999	3.8599999	-6.9879999
353	1	4	0.189858	-6.8109999	2.8859999	-8.1219997
354	1	3	-0.57773399	-8.2259998	2.5339999	-8.0780001
355	1	10	0.59722	-8.6169996	1.332	-7.934
356	1	1	-0.39136499	-8.9969997	0.163	-7.7930002
357	1	6	0.045630999	-6.5939999	3.3659999	-9.1000004
358	1	6	0.045630999	-6.171	1.978	-8.0290003
359	1	7	0.093959004	-7.1279998	4.763	-7.092
360	1	7	0.093959004	-6.7280002	3.3759999	-6.0180001
361	1	7	0.097539999	-4.8249998	4.8150001	-7.9790001
362	1	7	0.097539999	-4.3559999	3.3800001	-7.02
363	1	7	0.098846003	-3.9820001	6.0219998	-6.25
364	1	7	0.098846003	-5.546	5.7319999	-5.4489999
365	1	7	0.100401	-3.559	5.302	-3.9920001
366	1	7	0.100401	-2.9679999	4.0349998	-5.1170001
367	1	6	0.069879003	-5.6890001	3.954	-3.645
368	1	6	0.069879003	-4.961	2.6359999	-4.6500001
369	1	5	0.32991099	-3.0639999	3.3139999	-2.5710001
370	1	8	-0.119883	18.396999	5.0209999	-11.896
371	1	4	0.075067997	19.771999	5.2010002	-12.097
372	1	2	0.247885	20.532	4.0320001	-11.544
373	1	2	-0.34944201	20.745001	3.911	-10.223
374	1	2	-0.148874	21.473	2.734	-9.7110004
375	1	2	-0.349843	21.896	1.7920001	-10.56
376	1	2	0.19459	21.621	1.942	-12.006
377	1	3	-0.65089798	20.993	3	-12.437
378	1	4	0.14501201	22.112	0.917	-12.982
379	1	11	-0.67109102	23.469999	1.126	-13.257
380	1	12	0.390926	23.518	1.9069999	-13.868
381	1	6	0.083117001	21.987	-0.097000003	-12.546
382	1	6	0.083117001	21.514	0.95200002	-13.921
383	1	9	0.20983399	22.433001	0.92699999	-10.189
384	1	9	0.22036199	21.662001	2.6359999	-8.6499996
385	1	9	0.20983399	20.392	4.664	-9.5299997
386	1	6	0.10542	19.993	5.323	-13.182
387	1	6	0.10542	20.091999	6.1350002	-11.587

Bonds

1	1	1	2
2	2	2	3
3	3	2	33
4	4	3	4
5	5	3	26
6	6	4	5
7	7	4	24
8	7	4	25
9	6	5	6
10	7	5	22
11	7	5	23
12	6	6	7
13	7	6	20
14	7	6	21
15	6	7	8
16	7	7	18
17	7	7	19
18	6	8	9
19	7	8	16
20	7	8	17
21	4	9	10
22	7	9	14
23	7	9	15
24	2	10	11
25	5	10	13
26	1	11	12
27	8	11	346
28	9	27	28
29	3	27	54
30	10	28	29
31	7	28	42
32	7	28	43
33	11	29	30
34	12	29	38
35	11	30	31
36	10	31	32
37	12	31	36
38	9	32	33
39	7	32	34
40	7	32	35
41	12	36	37
42	13	36	41
43	12	37	38
44	13	37	40
45	13	38	39
46	1	44	45
47	2	45	46
48	3	45	76
49	4	46	47
50	5	46	69
51	6	47	48
52	7	47	67
53	7	47	68
54	6	48	49
55	7	48	65
56	7	48	66
57	6	49	50
58	7	49	63
59	7	49	64
60	6	50	51
61	7	50	61
62	7	50	62
63	6	51	52
64	7	51	59
65	7	51	60
66	4	52	53
67	7	52	57
68	7	52	58
69	2	53	54
70	5	53	56
71	1	54	55
72	9	70	71
73	3	70	97
74	10	71	72
75	7	71	85
76	7	71	86
77	11	72	73
78	12	72	81
79	11	73	74
80	10	74	75
81	12	74	79
82	9	75	76
83	7	75	77
84	7	75	78
85	12	79	80
86	13	79	84
87	12	80	81
88	13	80	83
89	13	81	82
90	1	87	88
91	2	88	89
92	3	88	119
93	4	89	90
94	5	89	112
95	6	90	91
96	7	90	110
97	7	90	111
98	6	91	92
99	7	91	108
100	7	91	109
101	6	92	93
102	7	92	106
103	7	92	107
104	6	93	94
105	7	93	104
106	7	93	105
107	6	94	95
108	7	94	102
109	7	94	103
110	4	95	96
111	7	95	100
112	7	95	101
113	2	96	97
114	5	96	99
115	1	97	98
116	9	113	114
117	3	113	140
118	10	114	115
119	7	114	128
120	7	114	129
121	11	115	116
122	12	115	124
123	11	116	117
124	10	117	118
125	12	117	122
126	9	118	119
127	7	118	120
128	7	118	121
129	12	122	123
130	13	122	127
131	12	123	124
132	13	123	126
133	13	124	125
134	1	130	131
135	2	131	132
136	3	131	162
137	4	132	133
138	5	132	155
139	6	133	134
140	7	133	153
141	7	133	154
142	6	134	135
143	7	134	151
144	7	134	152
145	6	135	136
146	7	135	149
147	7	135	150
148	6	136	137
149	7	136	147
150	7	136	148
151	6	137	138
152	7	137	145
153	7	137	146
154	4	138	139
155	7	138	143
156	7	138	144
157	2	139	140
158	5	139	142
159	1	140	141
160	9	156	157
161	3	156	183
162	10	157	158
163	7	157	171
164	7	157	172
165	11	158	159
166	12	158	167
167	11	159	160
168	10	160	161
169	12	160	165
170	9	161	162
171	7	161	163
172	7	161	164
173	12	165	166
174	13	165	170
175	12	166	167
176	13	166	169
177	13	167	168
178	1	173	174
179	2	174	175
180	3	174	205
181	4	175	176
182	5	175	198
183	6	176	177
184	7	176	196
185	7	176	197
186	6	177	178
187	7	177	194
188	7	177	195
189	6	178	179
190	7	178	192
191	7	178	193
192	6	179	180
193	7	179	190
194	7	179	191
195	6	180	181
196	7	180	188
197	7	180	189
198	4	181	182
199	7	181	186
200	7	181	187
201	2	182	183
202	5	182	185
203	1	183	184
204	9	199	200
205	3	199	226
206	10	200	201
207	7	200	214
208	7	200	215
209	11	201	202
210	12	201	210
211	11	202	203
212	10	203	204
213	12	203	208
214	9	204	205
215	7	204	206
216	7	204	207
217	12	208	209
218	13	208	213
219	12	209	210
220	13	209	212
221	13	210	211
222	1	216	217
223	2	217	218
224	3	217	248
225	4	218	219
226	5	218	241
227	6	219	220
228	7	219	239
229	7	219	240
230	6	220	221
231	7	220	237
232	7	220	238
233	6	221	222
234	7	221	235
235	7	221	236
236	6	222	223
237	7	222	233
238	7	222	234
239	6	223	224
240	7	223	231
241	7	223	232
242	4	224	225
243	7	224	229
244	7	224	230
245	2	225	226
246	5	225	228
247	1	226	227
248	9	242	243
249	3	242	269
250	10	243	244
251	7	243	257
252	7	243	258
253	11	244	245
254	12	244	253
255	11	245	246
256	10	246	247
257	12	246	251
258	9	247	248
259	7	247	249
260	7	247	250
261	12	251	252
262	13	251	256
263	12	252	253
264	13	252	255
265	13	253	254
266	1	259	260
267	2	260	261
268	3	260	291
269	4	261	262
270	5	261	284
271	6	262	263
272	7	262	282
273	7	262	283
274	6	263	264
275	7	263	280
276	7	263	281
277	6	264	265
278	7	264	278
279	7	264	279
280	6	265	266
281	7	265	276
282	7	265	277
283	6	266	267
284	7	266	274
285	7	266	275
286	4	267	268
287	7	267	272
288	7	267	273
289	2	268	269
290	5	268	271
291	1	269	270
292	9	285	286
293	3	285	312
294	10	286	287
295	7	286	300
296	7	286	301
297	11	287	288
298	12	287	296
299	11	288	289
300	10	289	290
301	12	289	294
302	9	290	291
303	7	290	292
304	7	290	293
305	12	294	295
306	13	294	299
307	12	295	296
308	13	295	298
309	13	296	297
310	1	302	303
311	2	303	304
312	3	303	334
313	4	304	305
314	5	304	327
315	6	305	306
316	7	305	325
317	7	305	326
318	6	306	307
319	7	306	323
320	7	306	324
321	6	307	308
322	7	307	321
323	7	307	322
324	6	308	309
325	7	308	319
326	7	308	320
327	6	309	310
328	7	309	317
329	7	309	318
330	4	310	311
331	7	310	315
332	7	310	316
333	2	311	312
334	5	311	314
335	1	312	313
336	9	328	329
337	14	328	370
338	10	329	330
339	7	329	343
340	7	329	344
341	11	330	331
342	12	330	339
343	11	331	332
344	10	332	333
345	12	332	337
346	9	333	334
347	7	333	335
348	7	333	336
349	12	337	338
350	13	337	342
351	12	338	339
352	13	338	341
353	13	339	340
354	1	345	346
355	2	346	347
356	4	347	348
357	5	347	369
358	6	348	349
359	7	348	367
360	7	348	368
361	6	349	350
362	7	349	365
363	7	349	366
364	6	350	351
365	7	350	363
366	7	350	364
367	6	351	352
368	7	351	361
369	7	351	362
370	6	352	353
371	7	352	359
372	7	352	360
373	15	353	354
374	7	353	357
375	7	353	358
376	16	354	355
377	1	355	356
378	9	370	371
379	10	371	372
380	7	371	386
381	7	371	387
382	12	372	373
383	11	372	377
384	12	373	374
385	13	373	385
386	12	374	375
387	13	374	384
388	12	375	376
389	13	375	383
390	11	376	377
391	10	376	378
392	17	378	379
393	7	378	381
394	7	378	382
395	18	379	380

Angles

1	4	183	182	185
2	6	370	371	372
3	6	349	350	363
4	1	12	11	346
5	6	49	48	66
6	4	269	268	271
7	6	135	134	152
8	9	339	338	341
9	9	74	79	84
10	2	216	217	248
11	6	9	8	17
12	1	87	88	89
13	6	379	378	382
14	6	179	180	189
15	4	312	311	314
16	1	11	346	345
17	6	6	5	22
18	6	263	264	279
19	6	134	135	136
20	6	265	266	275
21	6	372	371	387
22	7	292	290	293
23	6	180	181	187
24	7	104	93	105
25	1	75	74	79
26	6	307	308	319
27	6	70	71	85
28	6	376	378	381
29	6	138	137	145
30	7	276	265	277
31	6	47	48	65
32	7	153	133	154
33	9	374	375	383
34	7	190	179	191
35	6	261	262	263
36	7	272	267	273
37	2	44	45	76
38	6	91	92	107
39	9	374	373	385
40	1	331	332	337
41	6	49	50	62
42	9	208	209	212
43	6	246	247	250
44	6	96	95	101
45	6	350	351	361
46	5	286	285	312
47	6	139	138	143
48	1	115	124	123
49	6	48	49	63
50	6	177	176	197
51	6	309	310	311
52	6	134	135	149
53	6	310	309	318
54	7	151	134	152
55	6	311	310	315
56	6	182	181	187
57	6	289	290	293
58	6	177	178	193
59	2	242	269	270
60	6	332	333	335
61	6	351	352	360
62	6	263	262	283
63	1	73	72	81
64	6	201	200	215
65	6	178	177	195
66	9	338	339	340
67	6	135	136	147
68	7	100	95	101
69	1	371	372	377
70	1	159	158	167
71	6	266	267	273
72	6	264	265	266
73	6	178	179	191
74	9	253	252	255
75	7	186	181	187
76	6	74	75	76
77	6	308	307	322
78	6	76	75	77
79	1	251	252	253
80	1	287	296	295
81	7	34	32	35
82	6	308	309	318
83	6	244	243	258
84	8	372	377	376
85	4	348	347	369
86	3	88	89	90
87	6	29	28	43
88	6	91	92	93
89	6	287	286	300
90	1	286	287	296
91	6	162	161	163
92	7	120	118	121
93	3	224	225	226
94	3	260	261	262
95	6	263	264	265
96	6	348	349	365
97	3	174	175	176
98	9	166	165	170
99	6	304	305	326
100	6	351	352	353
101	6	351	350	364
102	6	330	329	343
103	4	9	10	13
104	1	175	174	205
105	1	28	29	30
106	2	156	183	184
107	6	221	220	238
108	7	257	243	258
109	4	140	139	142
110	4	90	89	112
111	4	226	225	228
112	5	157	156	183
113	7	57	52	58
114	4	133	132	155
115	1	261	260	291
116	1	114	115	116
117	6	221	222	234
118	1	288	289	294
119	6	328	329	344
120	6	352	353	358
121	6	9	8	16
122	6	90	91	108
123	6	264	263	281
124	7	300	286	301
125	6	133	134	151
126	6	31	32	35
127	6	347	348	368
128	1	113	140	139
129	6	379	378	381
130	6	136	135	150
131	1	216	217	218
132	1	27	54	53
133	6	5	4	25
134	6	225	224	230
135	6	220	221	236
136	8	201	202	203
137	6	117	118	121
138	1	200	201	210
139	6	222	223	232
140	6	263	264	278
141	7	361	351	362
142	7	280	263	281
143	9	330	339	340
144	7	249	247	250
145	6	372	371	386
146	1	373	374	375
147	8	287	288	289
148	7	128	114	129
149	6	177	178	179
150	10	354	355	356
151	2	87	88	119
152	7	233	222	234
153	7	63	49	64
154	4	54	53	56
155	7	365	349	366
156	6	218	219	220
157	6	309	308	320
158	5	114	113	140
159	6	205	204	206
160	1	202	203	208
161	1	165	166	167
162	3	138	139	140
163	7	196	176	197
164	1	244	253	252
165	6	49	50	61
166	6	72	71	86
167	3	310	311	312
168	5	243	242	269
169	6	96	95	100
170	6	177	176	196
171	6	268	267	272
172	6	50	51	60
173	6	136	137	146
174	6	7	8	17
175	5	303	334	333
176	6	182	181	186
177	6	289	290	292
178	6	115	114	129
179	6	220	219	240
180	6	177	178	192
181	6	351	352	359
182	6	263	262	282
183	6	137	136	148
184	7	359	352	360
185	9	295	296	297
186	7	42	28	43
187	1	375	376	378
188	6	132	133	154
189	1	304	303	334
190	6	178	177	194
191	6	51	52	58
192	1	30	29	38
193	6	137	138	144
194	6	8	9	15
195	6	132	133	134
196	6	135	136	137
197	6	264	265	276
198	6	46	47	48
199	6	178	179	190
200	4	95	96	99
201	1	3	2	33
202	1	74	79	80
203	7	239	219	240
204	6	308	307	321
205	6	328	329	330
206	7	22	5	23
207	7	16	8	17
208	4	267	268	271
209	4	303	304	327
210	6	160	161	164
211	1	29	38	37
212	6	3	4	25
213	6	308	309	317
214	6	244	243	257
215	7	163	161	164
216	1	243	244	253
217	6	203	204	207
218	7	77	75	78
219	6	352	351	362
220	3	217	218	219
221	6	158	157	172
222	6	220	221	222
223	7	325	305	326
224	6	305	306	307
225	6	50	49	64
226	6	351	350	363
227	6	304	305	325
228	9	296	295	298
229	4	97	96	99
230	6	119	118	120
231	9	124	123	126
232	6	92	93	105
233	1	201	210	209
234	1	218	217	248
235	2	199	226	227
236	1	333	332	337
237	1	116	117	122
238	1	245	246	251
239	6	285	286	301
240	6	51	50	62
241	6	49	50	51
242	6	328	329	343
243	7	381	378	382
244	6	352	353	357
245	6	264	263	280
246	6	46	47	68
247	1	70	97	96
248	1	331	332	333
249	6	31	32	34
250	6	347	348	367
251	6	6	7	19
252	6	136	135	149
253	4	131	132	155
254	4	181	182	185
255	6	225	224	229
256	6	265	264	279
257	6	93	94	103
258	6	267	266	275
259	6	308	309	310
260	6	220	221	235