Title

8125 atoms
8250 bonds
14375 angles
23375 dihedrals
4500 impropers

9 atom types
13 bond types
7 angle types
27 dihedral types
2 improper types
-8.324899673 91.67510033 xlo xhi
-8.522999763 91.47700024 ylo yhi
-8.577599525 91.42240047 zlo zhi
0.0 0.0 0.0 xy xz yz

Masses

1	15.99943
2	12.01078
3	1.007947
4	1.007947
5	12.01078
6	15.99943
7	1.007947
8	15.99943
9	1.007947


Pair Coeffs

1	0.16846514	3.0251065
2	0.10884061	3.3795318
3	0.016409246	2.5832257
4	0.015779483	2.6445434
5	0.086879315	3.4806469
6	0.2102061	3.0398122
7	0.015611343	2.5725815
8	0.20947353	2.99716
9	1.2326e-05	0.53453923

Bond Coeffs

1 harmonic	366.7408841747	1.425895053732
2 harmonic	300.03137914615	1.451203938761
3 harmonic	264.62148576755	1.52190126495
4 harmonic	370.04670688625	1.093899492634
5 harmonic	301.15400723785	1.345741232799
6 harmonic	582.698766451	1.225198386222
7 harmonic	279.1350963404	1.454628925034
8 harmonic	399.1592953295	1.371688562017
9 harmonic	369.34270398985	1.364116986116
10 harmonic	397.2545789619	1.085358495916
11 harmonic	329.96998057905	1.427343958716
12 harmonic	543.5267831885	0.9716763312559
13 harmonic	385.7604595587	1.369745182308


Angle Coeffs

1 harmonic	53.20531626545	116.5475862634
2 harmonic	65.09061609600001	110.3538806181
3 harmonic	201.41175231035	127.4691416191
4 harmonic	57.8982893754	126.8062420451
5 harmonic	48.776492647595	115.6030999533
6 harmonic	39.628116874445	129.8027304608
7 harmonic	79.1895422237	112.4630193006


Dihedral Coeffs

1 fourier 1	0.1155372516788	3	0
2 fourier 1	0.1115525666802	3	0
3 fourier 1	0.3432490222662	1	0
4 fourier 1	0.0473758381877	3	0
5 fourier 1	0.457973137376	1	0
6 fourier 1	0.09223874044423	3	0
7 fourier 1	0.3159935921949	2	180
8 fourier 1	0.3247796806857	1	180
9 fourier 1	0.1040663847541	3	0
10 fourier 1	0.1918272375143	3	0
11 fourier 1	0.9202179876409	1	180
12 fourier 1	1.163809172478	2	180
13 fourier 1	0.1679186987369	1	180
14 fourier 1	2.779853741805	2	180
15 fourier 1	0.9974165607242	2	180
16 fourier 1	0.1911926717192	3	0
17 fourier 1	5.294842998052	2	180
18 fourier 1	1.659715194912	2	180
19 fourier 1	0.2347635637734	2	180
20 fourier 1	0.4747469131102	3	0
21 fourier 1	1.163235555439	2	180
22 fourier 1	0.3445382149273	3	0
23 fourier 1	0.1364556373303	1	0
24 fourier 1	0.3026390167484	3	0
25 fourier 1	2.687457892086	2	180
26 fourier 1	2.772607909663	2	180
27 fourier 1	0.09692684957115	1	0


Improper Coeffs

1 3.5	-1	2
2 0.3666666666666667	-1	2


Atoms

1	4	1	-0.17060301	1.6154	-2.5177	-6.8137002
2	4	2	0.035204001	1.7502	-1.2603	-6.2107
3	4	2	-0.14525899	0.8506	-1.1652	-4.9761
4	4	2	-0.14040799	1.0185	0.19050001	-4.2736001
5	4	2	-0.141627	0.036899999	0.37819999	-3.1071
6	4	2	-0.140725	0.37490001	-0.51340002	-1.9005001
7	4	2	0.14011499	-0.5169	-0.1987	-0.69809997
8	4	1	-0.49516699	-1.852	-0.50340003	-0.99440002
9	4	3	0.074142002	-0.4199	0.87699997	-0.42719999
10	4	3	0.074142002	-0.1794	-0.81199998	0.1672
11	4	4	0.090106003	0.2462	-1.5844001	-2.1666
12	4	4	0.090106003	1.4349	-0.35260001	-1.6066
13	4	4	0.086060002	0.082800001	1.4426	-2.7895999
14	4	4	0.086060002	-0.99940002	0.1752	-3.4533999
15	4	4	0.086236	2.0639	0.30109999	-3.9086001
16	4	4	0.086236	0.83209997	1.0019	-5.0110998
17	4	4	0.091192	-0.2093	-1.2944	-5.2884998
18	4	4	0.091192	1.118	-1.9876	-4.2802
19	4	3	0.083958998	2.8111999	-1.1286	-5.9074001
20	4	3	0.083958998	1.4979	-0.45469999	-6.9394002
21	5	5	0.672342	-2.3966999	-0.26199999	-0.1452
22	5	6	-0.53808898	-3.6270001	-0.0196	-0.2449
23	5	5	0.24924099	-1.7399	-0.2035	1.1612999
24	5	5	-0.28958401	-0.45339999	-0.43869999	1.3823
25	5	7	0.17431401	0.2877	-0.70520002	0.6397
26	5	5	-0.30151901	-0.2397	-0.26879999	2.816
27	5	7	0.158952	0.69330001	-0.3831	3.3541999
28	5	5	0.301256	-1.4151	0.0546	3.3378999
29	5	5	0.43525001	-1.6657	0.31959999	4.7554998
30	5	6	-0.54342002	-2.8234	0.62050003	5.1471
31	5	1	-0.22474401	-2.3875999	0.1101	2.3485
32	1	1	-0.17060301	0.75239998	-2.5067	-7.3052001
33	1	2	0.035204001	-0.2441	-2.2309	-6.3579001
34	1	2	-0.14525899	-0.2325	-0.74379998	-5.9937
35	1	2	-0.140356	-1.3474	-0.41240001	-4.9910998
36	1	2	-0.136261	-1.2871	1.0419	-4.4991999
37	1	2	-0.167183	-1.6906	2.0517001	-5.5858002
38	1	2	0.088486001	-1.7752	3.4744999	-5.0316
39	1	8	-0.68156397	-0.50989997	3.9037001	-4.6097999
40	1	9	0.38262299	-0.63489997	4.8237	-4.2589002
41	1	3	0.074914001	-2.4935	3.5078001	-4.1822
42	1	3	0.074914001	-2.1464	4.1506	-5.835
43	1	4	0.093547001	-0.9526	2.0374999	-6.4168
44	1	4	0.093547001	-2.6847999	1.7740999	-5.9990001
45	1	4	0.086236	-1.9863	1.1411999	-3.6403
46	1	4	0.086236	-0.2638	1.2702	-4.1282001
47	1	4	0.086236	-2.3403001	-0.61489999	-5.4485998
48	1	4	0.086236	-1.2428	-1.0781	-4.1062999
49	1	4	0.091192	0.7554	-0.48609999	-5.5521998
50	1	4	0.091192	-0.36930001	-0.1515	-6.9239001
51	1	3	0.083958998	-1.2296	-2.4971001	-6.7974
52	1	3	0.083958998	-0.093199998	-2.8552999	-5.448
53	2	5	0.43525001	-0.85820001	0.25889999	5.4733
54	2	6	-0.54342002	-1.1206	0.24240001	6.7034998
55	2	5	0.301256	0.53189999	0.19509999	5.0173998
56	2	5	-0.30151999	0.9224	0.2044	3.7507999
57	2	7	0.158952	0.28119999	0.26120001	2.8808999
58	2	5	-0.29329401	2.3799	0.1257	3.7646999
59	2	7	0.17431401	3.0371001	0.1115	2.9045999
60	2	5	0.26011801	2.7460001	0.074299999	5.0402999
61	2	5	0.71656698	4.1233001	-0.0125	5.5367999
62	2	6	-0.52976799	5.0927	-0.044300001	4.7325001
63	2	8	-0.70003498	4.3583999	-0.058499999	6.9070001
64	2	9	0.393664	5.3007998	-0.118	7.2712002
65	2	1	-0.228257	1.6294	0.1143	5.8638
66	4	1	-0.17060301	-1.4426	-7.1866002	19.281099
67	4	2	0.035204001	-2.1506	-6.1829	18.607401
68	4	2	-0.14525899	-1.6473	-4.8017001	19.033701
69	4	2	-0.14040799	-2.3801999	-3.6875	18.271299
70	4	2	-0.141627	-1.9991	-2.2836001	18.764601
71	4	2	-0.140725	-0.56730002	-1.886	18.3685
72	4	2	0.14011499	-0.26390001	-0.4314	18.7318
73	4	1	-0.49516699	-0.30109999	-0.26320001	20.122299
74	4	3	0.074142002	-1.0044	0.2422	18.243999
75	4	3	0.074142002	0.75050002	-0.1728	18.353701
76	4	4	0.090106003	0.1689	-2.5407	18.882401
77	4	4	0.090106003	-0.4382	-2.0109999	17.2714
78	4	4	0.086060002	-2.7098999	-1.5579	18.312799
79	4	4	0.086060002	-2.1191001	-2.2290001	19.868
80	4	4	0.086236	-2.1719999	-3.7739999	17.181601
81	4	4	0.086236	-3.4755001	-3.8148999	18.415701
82	4	4	0.091192	-1.8128	-4.6766	20.1266
83	4	4	0.091192	-0.5575	-4.7451	18.8312
84	4	3	0.083958998	-1.992	-6.3144002	17.5152
85	4	3	0.083958998	-3.2428999	-6.2793002	18.810699
86	5	5	0.672342	-0.094499998	0.7385	20.2959
87	5	6	-0.53808898	-0.47099999	1.2728	21.3706
88	5	5	0.24924099	0.6304	1.5264	19.298201
89	5	5	-0.28958401	1.0721999	1.0678999	18.1346
90	5	7	0.17431401	0.96359998	0.058600001	17.758801
91	5	5	-0.30151901	1.73	2.1879001	17.468901
92	5	7	0.158952	2.2086999	2.1788001	16.4974
93	5	5	0.301256	1.6288	3.2265	18.287001
94	5	5	0.43525001	2.1531	4.5667	18.019501
95	5	6	-0.54342002	2.0016999	5.4851999	18.8666
96	5	1	-0.22474401	0.95029998	2.8692999	19.4445
97	1	1	-0.17060301	-1.8029	-7.2172999	20.2061
98	1	2	0.035204001	-1.6159	-5.9387999	20.751101
99	1	2	-0.14525899	-2.6572001	-4.9661999	20.191
100	1	2	-0.140356	-2.4981	-3.5702	20.8106
101	1	2	-0.136261	-3.438	-2.5321	20.1786
102	1	2	-0.167183	-4.9095998	-2.7537	20.563601
103	1	2	0.088486001	-5.8035998	-1.6222	20.0543
104	1	8	-0.68156397	-5.8088002	-1.6054	18.653299
105	1	9	0.38262299	-6.3978	-0.85119998	18.3899
106	1	3	0.074914001	-5.4403	-0.64649999	20.447399
107	1	3	0.074914001	-6.8400002	-1.7893	20.426201
108	1	4	0.093547001	-5.2768998	-3.714	20.1416
109	1	4	0.093547001	-4.9995999	-2.8034999	21.6707
110	1	4	0.086236	-3.1227	-1.526	20.5319
111	1	4	0.086236	-3.3269	-2.5502	19.0721
112	1	4	0.086236	-2.6745999	-3.6205001	21.907101
113	1	4	0.086236	-1.4522001	-3.2258999	20.6539
114	1	4	0.091192	-2.5358	-4.9007001	19.0872
115	1	4	0.091192	-3.6696999	-5.3670998	20.4121
116	1	3	0.083958998	-1.7288001	-6.0075998	21.854601
117	1	3	0.083958998	-0.58630002	-5.5745001	20.5326
118	2	5	0.43525001	2.6724999	4.7749	17.0933
119	2	6	-0.54342002	3.3287001	5.8417001	16.9753
120	2	5	0.301256	2.6140001	3.8213999	15.9834
121	2	5	-0.30151999	1.9564	2.6705999	15.9979
122	2	7	0.158952	1.3741	2.2734001	16.818899
123	2	5	-0.29329401	2.1721001	2.0524001	14.6933
124	2	7	0.17431401	1.7811	1.102	14.3531
125	2	5	0.26011801	2.9435	2.8831999	14.0014
126	2	5	0.71656698	3.4200001	2.6735001	12.6303
127	2	6	-0.52976799	3.1043999	1.6319	11.9953
128	2	8	-0.70003498	4.2254	3.6345	12.028
129	2	9	0.393664	4.5648999	3.5102	11.0827
130	2	1	-0.228257	3.2481999	4.0035	14.762
131	4	1	-0.17060301	-1.5915999	-1.074	43.185699
132	4	2	0.035204001	-0.3818	-0.94059998	42.492001
133	4	2	-0.14525899	-0.59429997	-1.2064	40.999699
134	4	2	-0.14040799	0.71249998	-1.0197999	40.2141
135	4	2	-0.141627	0.5733	-1.4057	38.733799
136	4	2	-0.140725	-0.28040001	-0.40329999	37.939098
137	4	2	0.14011499	-0.27680001	-0.71990001	36.4426
138	4	1	-0.49516699	-0.88660002	-1.9597	36.209801
139	4	3	0.074142002	0.7694	-0.72930002	36.061001
140	4	3	0.074142002	-0.84009999	0.077	35.907398
141	4	4	0.090106003	-1.3303	-0.4206	38.302502
142	4	4	0.090106003	0.1216	0.62290001	38.084702
143	4	4	0.086060002	1.5927	-1.4371001	38.291401
144	4	4	0.086060002	0.1398	-2.4256001	38.651901
145	4	4	0.086236	1.0579	0.0348	40.298302
146	4	4	0.086236	1.4967999	-1.6675	40.663898
147	4	4	0.091192	-0.96450001	-2.2467999	40.865501
148	4	4	0.091192	-1.3662	-0.50370002	40.622398
149	4	3	0.083958998	-0.0082	0.0964	42.634399
150	4	3	0.083958998	0.37990001	-1.6411	42.907799
151	5	5	0.672342	-0.8441	-2.1125	35.1847
152	5	6	-0.53808898	-0.91170001	-3.2825999	34.728001
153	5	5	0.24924099	-0.70670003	-0.97530001	34.273899
154	5	5	-0.28958401	-0.6257	0.29589999	34.6437
155	5	7	0.17431401	-0.65009999	0.67259997	35.658199
156	5	5	-0.30151901	-0.4998	1.0785	33.418201
157	5	7	0.158952	-0.41100001	2.155	33.338299
158	5	5	0.301256	-0.51520002	0.2131	32.413502
159	5	5	0.43525001	-0.4127	0.56269997	30.9958
160	5	6	-0.54342002	-0.43700001	-0.33989999	30.118999
161	5	1	-0.22474401	-0.6419	-1.0843	32.891399
162	1	1	-0.17060301	-1.7657	-2.0481999	43.269699
163	1	2	0.035204001	-1.8095	-2.5608001	41.965099
164	1	2	-0.14525899	-0.39340001	-2.6856	41.396702
165	1	2	-0.140356	-0.41659999	-3.2887001	39.984699
166	1	2	-0.136261	0.97189999	-3.3083999	39.327202
167	1	2	-0.167183	1.9158	-4.3388	39.9678
168	1	2	0.088486001	3.2337	-4.4520001	39.2001
169	1	8	-0.68156397	3.9382	-3.2428999	39.270901
170	1	9	0.38262299	4.7732	-3.381	38.752399
171	1	3	0.074914001	3.0316	-4.7154999	38.137901
172	1	3	0.074914001	3.8450999	-5.2638001	39.655499
173	1	4	0.093547001	2.1401	-4.0538001	41.018398
174	1	4	0.093547001	1.4251	-5.3365002	39.975498
175	1	4	0.086236	0.83780003	-3.5641999	38.253502
176	1	4	0.086236	1.425	-2.2939	39.377499
177	1	4	0.086236	-0.83160001	-4.3195	40.020199
178	1	4	0.086236	-1.0901	-2.6768999	39.345001
179	1	4	0.091192	0.0748	-1.6772	41.364201
180	1	4	0.091192	0.2041	-3.3310001	42.076
181	1	3	0.083958998	-2.2853999	-3.5646999	41.998199
182	1	3	0.083958998	-2.4330001	-1.9056	41.315201
183	2	5	0.43525001	-0.315	1.5974	30.6945
184	2	6	-0.54342002	-0.4754	1.9104	29.486601
185	2	5	0.301256	0.00069999998	2.6285999	31.685101
186	2	5	-0.30151999	0.1886	2.4133999	32.9795
187	2	7	0.158952	0.1384	1.4585	33.486198
188	2	5	-0.29329401	0.47670001	3.7125001	33.5793
189	2	7	0.17431401	0.68260002	3.9142001	34.6227
190	2	5	0.26011801	0.43709999	4.6032	32.594799
191	2	5	0.71656698	0.66649997	6.0454998	32.7304
192	2	6	-0.52976799	0.93010002	6.5486002	33.855099
193	2	8	-0.70003498	0.59329998	6.8617001	31.6064
194	2	9	0.393664	0.74860001	7.8593001	31.677299
195	2	1	-0.228257	0.1434	3.9777999	31.3911
196	4	1	-0.17060301	-2.3915	-2.2907	47.330502
197	4	2	0.035204001	-2.7370999	-2.6545999	48.6385
198	4	2	-0.14525899	-1.6365	-2.2321	49.6147
199	4	2	-0.14040799	-2.0176001	-2.5813	51.061199
200	4	2	-0.141627	-0.88410002	-2.2946	52.057499
201	4	2	-0.140725	-0.6516	-0.7895	52.271702
202	4	2	0.14011499	0.37029999	-0.52770001	53.379299
203	4	1	-0.49516699	1.6257	-1.0253	53.005501
204	4	3	0.074142002	0.033300001	-1.0086	54.3255
205	4	3	0.074142002	0.44150001	0.57020003	53.547699
206	4	4	0.090106003	-0.2854	-0.3204	51.333401
207	4	4	0.090106003	-1.6108	-0.30289999	52.552898
208	4	4	0.086060002	-1.1594	-2.7562001	53.030602
209	4	4	0.086060002	0.0528	-2.7797	51.708401
210	4	4	0.086236	-2.9317	-2.0204	51.358101
211	4	4	0.086236	-2.2556	-3.6663001	51.117199
212	4	4	0.091192	-0.69099998	-2.7513001	49.342602
213	4	4	0.091192	-1.4802999	-1.1374	49.518299
214	4	3	0.083958998	-3.6865001	-2.1424999	48.905899
215	4	3	0.083958998	-2.9103	-3.7546	48.6992
216	5	5	0.672342	2.263	-0.8211	53.7981
217	5	6	-0.53808898	3.3095	-1.5035	53.945099
218	5	5	0.24924099	1.9485	0.25369999	54.740299
219	5	5	-0.28958401	0.87669998	1.0329	54.682301
220	5	7	0.17431401	0.090000004	0.98909998	53.939999
221	5	5	-0.30151901	0.97100002	1.9547	55.809898
222	5	7	0.158952	0.2676	2.7342999	56.075298
223	5	5	0.301256	2.0912001	1.6531	56.452301
224	5	5	0.43525001	2.5846	2.3292	57.653198
225	5	6	-0.54342002	3.6638	1.9622999	58.186699
226	5	1	-0.22474401	2.7409	0.59719998	55.827202
227	1	1	-0.17060301	-1.7118	-2.9463	47.0228
228	1	2	0.035204001	-0.64219999	-2.8678	47.9263
229	1	2	-0.14525899	-0.9971	-3.5850999	49.231499
230	1	2	-0.140356	0.1793	-3.5501001	50.217999
231	1	2	-0.136261	-0.18080001	-4.1430998	51.588799
232	1	2	-0.167183	-0.3583	-5.6694999	51.545502
233	1	2	0.088486001	-0.56	-6.2549	52.943901
234	1	8	-0.68156397	-1.7568001	-5.7806001	53.497002
235	1	9	0.38262299	-1.8239	-6.1903	54.398602
236	1	3	0.074914001	0.2985	-5.9805002	53.5966
237	1	3	0.074914001	-0.60320002	-7.3649998	52.864899
238	1	4	0.093547001	-1.2362	-5.9366999	50.918499
239	1	4	0.093547001	0.54530001	-6.1350999	51.095001
240	1	4	0.086236	0.64319998	-3.8980999	52.294102
241	1	4	0.086236	-1.1072	-3.6628001	51.973598
242	1	4	0.086236	1.0493	-4.0932002	49.788898
243	1	4	0.086236	0.486	-2.4921	50.372101
244	1	4	0.091192	-1.8823	-3.0901	49.6884
245	1	4	0.091192	-1.2635	-4.6375999	48.994801
246	1	3	0.083958998	0.2437	-3.355	47.464699
247	1	3	0.083958998	-0.38440001	-1.8027	48.1255
248	2	5	0.43525001	2.0246	3.1466	58.088299
249	2	6	-0.54342002	2.5658	3.8763001	58.958599
250	2	5	0.301256	0.64590001	3.404	57.6674
251	2	5	-0.30151999	-0.0206	2.7025001	56.761501
252	2	7	0.158952	0.35010001	1.8489	56.2094
253	2	5	-0.29329401	-1.3455	3.3067	56.6604
254	2	7	0.17431401	-2.1554999	2.9900999	56.0159
255	2	5	0.26011801	-1.3660001	4.3238001	57.514301
256	2	5	0.71656698	-2.4993	5.2237	57.752701
257	2	6	-0.52976799	-3.5804	5.072	57.123402
258	2	8	-0.70003498	-2.3773999	6.2511001	58.6824
259	2	9	0.393664	-3.1470001	6.8832998	58.862701
260	2	1	-0.228257	-0.1464	4.428	58.168598
261	4	1	-0.17060301	-6.5146999	-1.1622	75.395798
262	4	2	0.035204001	-6.1226001	-0.2922	74.370201
263	4	2	-0.14525899	-4.6012998	-0.1236	74.370598
264	4	2	-0.14040799	-4.1469002	0.7913	73.223396
265	4	2	-0.141627	-2.6414001	1.0931	73.268204
266	4	2	-0.140725	-1.7823	-0.12819999	72.899803
267	4	2	0.14011499	-0.29949999	0.234	72.7985
268	4	1	-0.49516699	0.18539999	0.63770002	74.0495
269	4	3	0.074142002	-0.15970001	1.0483	72.051903
270	4	3	0.074142002	0.2642	-0.66140002	72.4533
271	4	4	0.090106003	-1.9009	-0.92559999	73.664398
272	4	4	0.090106003	-2.1152999	-0.53329998	71.919601
273	4	4	0.086060002	-2.4344001	1.9084001	72.541298
274	4	4	0.086060002	-2.3636999	1.4645	74.278099
275	4	4	0.086236	-4.4106002	0.33149999	72.245003
276	4	4	0.086236	-4.6915998	1.758	73.298599
277	4	4	0.091192	-4.2849002	0.31330001	75.343498
278	4	4	0.091192	-4.1350999	-1.1251	74.263199
279	4	3	0.083958998	-6.4474001	-0.72509998	73.399498
280	4	3	0.083958998	-6.6241002	0.69660002	74.491096
281	5	5	0.672342	1.1859	0.87230003	73.907402
282	5	6	-0.53808898	1.7612	1.6507	74.7108
283	5	5	0.24924099	1.925	0.30219999	72.780296
284	5	5	-0.28958401	1.4208	-0.5255	71.874702
285	5	7	0.17431401	0.40419999	-0.89560002	71.838097
286	5	5	-0.30151901	2.5033	-0.83569998	70.946198
287	5	7	0.158952	2.4532001	-1.4828	70.079201
288	5	5	0.301256	3.5681	-0.16869999	71.3703
289	5	5	0.43525001	4.8856001	-0.1874	70.732803
290	5	6	-0.54342002	5.8320999	0.48519999	71.218399
291	5	1	-0.22474401	3.2627001	0.55919999	72.512497
292	1	1	-0.17060301	-6.46	-0.64670002	76.242996
293	1	2	0.035204001	-5.1332998	-0.20720001	76.359001
294	1	2	-0.14525899	-4.8825002	0.9752	75.419296
295	1	2	-0.140356	-3.4470999	1.501	75.564903
296	1	2	-0.136261	-3.1142001	2.6015999	74.5457
297	1	2	-0.167183	-3.8410001	3.9231999	74.842903
298	1	2	0.088486001	-3.3762	5.0451002	73.9133
299	1	8	-0.68156397	-3.7219999	4.7477002	72.588501
300	1	9	0.38262299	-3.3896999	5.5061998	72.041199
301	1	3	0.074914001	-2.2746999	5.1774001	74.0009
302	1	3	0.074914001	-3.8717	5.9938002	74.221001
303	1	4	0.093547001	-4.9383001	3.7939	74.722702
304	1	4	0.093547001	-3.6398001	4.2287998	75.892799
305	1	4	0.086236	-2.0172999	2.7797999	74.581596
306	1	4	0.086236	-3.365	2.2513001	73.520302
307	1	4	0.086236	-3.2862999	1.8818001	76.597
308	1	4	0.086236	-2.7390001	0.65869999	75.403198
309	1	4	0.091192	-5.0556002	0.64819998	74.3703
310	1	4	0.091192	-5.6086998	1.7802	75.663101
311	1	3	0.083958998	-4.9594998	0.111	77.409599
312	1	3	0.083958998	-4.4306998	-1.0409	76.131104
313	2	5	0.43525001	5.0525999	-0.77829999	69.841797
314	2	6	-0.54342002	6.2284002	-0.98680001	69.4459
315	2	5	0.301256	3.9182999	-1.3336999	69.100601
316	2	5	-0.30151999	2.6427	-1.1789	69.426003
317	2	7	0.158952	2.2581	-0.62669998	70.273499
318	2	5	-0.29329401	1.8669	-1.8954	68.418404
319	2	7	0.17431401	0.78890002	-1.9816	68.369904
320	2	5	0.26011801	2.7413001	-2.4236	67.569603
321	2	5	0.71656698	2.4144001	-3.2333	66.391296
322	2	6	-0.52976799	1.2145	-3.4869001	66.101799
323	2	8	-0.70003498	3.4389999	-3.7227001	65.587898
324	2	9	0.393664	3.2358	-4.2831001	64.769798
325	2	1	-0.228257	4.0366998	-2.1026001	67.950798
326	4	1	-0.17060301	0.25400001	16.7598	-7.3332
327	4	2	0.035204001	-0.79149997	17.0989	-6.4645
328	4	2	-0.14525899	-0.4048	16.777399	-5.0187998
329	4	2	-0.14040799	-1.5209	17.184999	-4.0451999
330	4	2	-0.141627	-1.2289	16.758801	-2.5985
331	4	2	-0.140725	-0.097199999	17.579201	-1.9572999
332	4	2	0.14011499	0.071000002	17.2467	-0.47369999
333	4	1	-0.49516699	0.47549999	15.9141	-0.3204
334	4	3	0.074142002	-0.88889998	17.420401	0.063500002
335	4	3	0.074142002	0.84380001	17.921301	-0.041700002
336	4	4	0.090106003	0.86430001	17.378401	-2.4767001
337	4	4	0.090106003	-0.3251	18.663099	-2.0534
338	4	4	0.086060002	-2.1575	16.9051	-2.0050001
339	4	4	0.086060002	-0.97899997	15.6763	-2.5703001
340	4	4	0.086236	-1.6792001	18.285601	-4.0896001
341	4	4	0.086236	-2.4684	16.695801	-4.3610001
342	4	4	0.091192	-0.2121	15.6855	-4.9288998
343	4	4	0.091192	0.52950001	17.3239	-4.7733998
344	4	3	0.083958998	-0.98930001	18.1882	-6.5619001
345	4	3	0.083958998	-1.7214	16.5532	-6.7494998
346	5	5	0.672342	0.56339997	15.7565	0.70120001
347	5	6	-0.53808898	0.48800001	14.5868	1.1576999
348	5	5	0.24924099	0.77410001	16.886499	1.607
349	5	5	-0.28958401	0.86809999	18.156799	1.2369
350	5	7	0.17431401	0.8046	18.5376	0.2256
351	5	5	-0.30151901	1.0742	18.931299	2.4567001
352	5	7	0.158952	1.1941	20.0049	2.5348001
353	5	5	0.301256	1.0867	18.0627	3.4586
354	5	5	0.43525001	1.2667	18.4044	4.8705001
355	5	6	-0.54342002	1.2617	17.4995	5.7452998
356	5	1	-0.22474401	0.90289998	16.7708	2.9844
357	1	1	-0.17060301	0.23469999	15.7715	-7.4298
358	1	2	0.035204001	0.38420001	15.2404	-6.1406002
359	1	2	-0.14525899	-0.92739999	15.3645	-5.3606
360	1	2	-0.140356	-0.79769999	14.7466	-3.9607999
361	1	2	-0.136261	-2.0499001	14.9679	-3.0985
362	1	2	-0.167183	-3.2507	14.1338	-3.5732999
363	1	2	0.088486001	-4.4342999	14.2488	-2.6115999
364	1	8	-0.68156397	-4.9116998	15.5659	-2.5899999
365	1	9	0.38262299	-5.6687002	15.573	-1.948
366	1	3	0.074914001	-4.1230998	13.9377	-1.5894001
367	1	3	0.074914001	-5.2444	13.5671	-2.9572001
368	1	4	0.093547001	-3.5778	14.4699	-4.5809002
369	1	4	0.093547001	-2.9549999	13.0643	-3.6426001
370	1	4	0.086236	-1.8015	14.6765	-2.0545001
371	1	4	0.086236	-2.3150001	16.048	-3.0924001
372	1	4	0.086236	-0.58569998	13.6585	-4.0454998
373	1	4	0.086236	0.064800002	15.2177	-3.4398999
374	1	4	0.091192	-1.1955	16.4403	-5.2704
375	1	4	0.091192	-1.728	14.8473	-5.9317999
376	1	3	0.083958998	0.66060001	14.1678	-6.2326002
377	1	3	0.083958998	1.2076	15.763	-5.6025
378	2	5	0.43525001	1.4044	19.435301	5.1694002
379	2	6	-0.54342002	1.8013	19.6966	6.3341999
380	2	5	0.301256	1.1321	20.5208	4.2248998
381	2	5	-0.30151999	0.71289998	20.361799	2.9776001
382	2	7	0.158952	0.51209998	19.421	2.4820001
383	2	5	-0.29329401	0.57550001	21.700199	2.4116001
384	2	7	0.17431401	0.25229999	21.9508	1.4093
385	2	5	0.26011801	0.92500001	22.5548	3.3663001
386	2	5	0.71656698	0.94129997	24.0165	3.2481999
387	2	6	-0.52976799	0.60399997	24.5753	2.1703999
388	2	8	-0.70003498	1.3314	24.789801	4.3367
389	2	9	0.393664	1.3496	25.799999	4.2771001
390	2	1	-0.228257	1.2816	21.8692	4.5193
391	4	1	-0.17060301	4.849	15.7992	23.1968
392	4	2	0.035204001	3.4616001	15.6512	23.070999
393	4	2	-0.14525899	2.9072001	16.6749	22.0774
394	4	2	-0.14040799	1.3927	16.498699	21.8904
395	4	2	-0.141627	0.77499998	17.5902	21.003401
396	4	2	-0.140725	1.175	17.447599	19.525299
397	4	2	0.14011499	0.42789999	18.445601	18.639
398	4	1	-0.49516699	0.79220003	19.7563	18.974501
399	4	3	0.074142002	-0.67079997	18.3099	18.7603
400	4	3	0.074142002	0.69230002	18.247499	17.5762
401	4	4	0.090106003	2.2667999	17.615101	19.4053
402	4	4	0.090106003	0.94	16.4188	19.1756
403	4	4	0.086060002	-0.331	17.5109	21.084
404	4	4	0.086060002	1.0688	18.5923	21.3834
405	4	4	0.086236	1.1784	15.4957	21.458799
406	4	4	0.086236	0.90030003	16.548599	22.886499
407	4	4	0.091192	3.1194	17.6994	22.4554
408	4	4	0.091192	3.4263999	16.5408	21.1056
409	4	3	0.083958998	3.2502999	14.6243	22.702
410	4	3	0.083958998	2.9700999	15.7677	24.0653
411	5	5	0.672342	0.2483	20.375601	18.344601
412	5	6	-0.53808898	0.0337	21.568701	18.680401
413	5	5	0.24924099	-0.26660001	19.866301	17.072901
414	5	5	-0.28958401	-0.1017	18.630501	16.6203
415	5	7	0.17431401	0.43090001	17.83	17.117599
416	5	5	-0.30151901	-0.7755	18.5676	15.3272
417	5	7	0.158952	-0.84530002	17.709999	14.6694
418	5	5	0.301256	-1.2898	19.770399	15.1098
419	5	5	0.43525001	-2.0558	20.16	13.9249
420	5	6	-0.54342002	-2.5014999	21.3321	13.8177
421	5	1	-0.22474401	-1.0024	20.620701	16.1691
422	1	1	-0.17060301	4.9995999	16.5994	23.765499
423	1	2	0.035204001	4.3790002	17.6754	23.1147
424	1	2	-0.14525899	2.8617001	17.607901	23.307699
425	1	2	-0.140356	2.1668	18.8039	22.6406
426	1	2	-0.136261	0.63459998	18.704599	22.697399
427	1	2	-0.167183	0.079599999	18.917801	24.115101
428	1	2	0.088486001	-1.4488	18.971201	24.121401
429	1	8	-0.68156397	-1.976	17.735701	23.723101
430	1	9	0.38262299	-2.9630001	17.839001	23.7432
431	1	3	0.074914001	-1.8023	19.7761	23.4391
432	1	3	0.074914001	-1.7948999	19.2057	25.153799
433	1	4	0.093547001	0.4091	18.0942	24.7847
434	1	4	0.093547001	0.46790001	19.875601	24.525
435	1	4	0.086236	0.2165	19.487301	22.027399
436	1	4	0.086236	0.30809999	17.7164	22.305201
437	1	4	0.086236	2.5012	19.7505	23.1182
438	1	4	0.086236	2.4683001	18.842199	21.5707
439	1	4	0.091192	2.4814	16.6609	22.8652
440	1	4	0.091192	2.6443	17.601299	24.3974
441	1	3	0.083958998	4.7665	18.620899	23.552
442	1	3	0.083958998	4.6339002	17.667801	22.0305
443	2	5	0.43525001	-2.2430999	19.4433	13.136
444	2	6	-0.54342002	-2.6791999	19.8419	12.0253
445	2	5	0.301256	-1.9903001	18.018101	13.3577
446	2	5	-0.30151999	-1.5318	17.488899	14.4832
447	2	7	0.158952	-1.2823	18.023899	15.39
448	2	5	-0.29329401	-1.434	16.050301	14.2563
449	2	7	0.17431401	-1.0957	15.3035	14.9631
450	2	5	0.26011801	-1.8413	15.833	13.0109
451	2	5	0.71656698	-1.9127001	14.5282	12.3449
452	2	6	-0.52976799	-1.5718	13.4792	12.954
453	2	8	-0.70003498	-2.3618	14.4511	11.0307
454	2	9	0.393664	-2.4194	13.561	10.5522
455	2	1	-0.228257	-2.1997001	17.029499	12.4058
456	4	1	-0.17060301	-1.7209001	18.3214	43.228802
457	4	2	0.035204001	-0.83020002	19.0529	42.4324
458	4	2	-0.14525899	-0.52149999	18.288401	41.142799
459	4	2	-0.14040799	0.41819999	19.095301	40.2341
460	4	2	-0.141627	0.85860002	18.308399	38.990501
461	4	2	-0.140725	-0.28209999	18.117901	37.9767
462	4	2	0.14011499	0.2146	17.4715	36.682301
463	4	1	-0.49516699	0.67589998	16.1733	36.937099
464	4	3	0.074142002	1.0296	18.088499	36.240601
465	4	3	0.074142002	-0.62870002	17.430099	35.9571
466	4	4	0.090106003	-1.0782	17.4757	38.410801
467	4	4	0.090106003	-0.72759998	19.106199	37.7304
468	4	4	0.086060002	1.6811	18.8743	38.501499
469	4	4	0.086060002	1.2658	17.3209	39.297001
470	4	4	0.086236	-0.075400002	20.043699	39.9254
471	4	4	0.086236	1.3311	19.3631	40.810101
472	4	4	0.091192	-0.045899998	17.3167	41.401901
473	4	4	0.091192	-1.4766999	18.086201	40.615002
474	4	3	0.083958998	-1.3026	20.027201	42.181702
475	4	3	0.083958998	0.1092	19.260799	42.9963
476	5	5	0.672342	1.0005	15.8	36.0252
477	5	6	-0.53808898	1.8381	14.8618	36.001202
478	5	5	0.24924099	0.4883	16.359699	34.7738
479	5	5	-0.28958401	-0.39300001	17.3466	34.681099
480	5	7	0.17431401	-0.85600001	17.874001	35.505299
481	5	5	-0.30151901	-0.6124	17.575899	33.2565
482	5	7	0.158952	-1.2714	18.3092	32.808102
483	5	5	0.301256	0.1551	16.7083	32.611099
484	5	5	0.43525001	0.2511	16.5847	31.1558
485	5	6	-0.54342002	1.0141	15.7247	30.643499
486	5	1	-0.22474401	0.86489999	15.9241	33.5107
487	1	1	-0.17060301	-1.1927	17.595301	43.653301
488	1	2	0.035204001	-0.63090003	16.8461	42.609501
489	1	2	-0.14525899	0.55870003	17.5935	42.000999
490	1	2	-0.140356	1.2168	16.768499	40.885502
491	1	2	-0.136261	2.3315001	17.5378	40.160099
492	1	2	-0.167183	3.5834999	17.7279	41.031601
493	1	2	0.088486001	4.7326999	18.354401	40.2407
494	1	8	-0.68156397	4.3892999	19.6514	39.8368
495	1	9	0.38262299	5.1689	19.996	39.328201
496	1	3	0.074914001	4.9675002	17.7265	39.352402
497	1	3	0.074914001	5.6350999	18.3965	40.8922
498	1	4	0.093547001	3.3518	18.381901	41.899899
499	1	4	0.093547001	3.9186001	16.7411	41.419201
500	1	4	0.086236	2.6110001	16.959299	39.252602
501	1	4	0.086236	1.9476	18.526199	39.8242
502	1	4	0.086236	1.6228	15.8219	41.3041
503	1	4	0.086236	0.4418	16.499001	40.134602
504	1	4	0.091192	0.2049	18.563999	41.588402
505	1	4	0.091192	1.2957	17.799601	42.806702
506	1	3	0.083958998	-0.2859	15.8733	43.021702
507	1	3	0.083958998	-1.3985	16.636801	41.830002
508	2	5	0.43525001	-0.33199999	17.2314	30.513399
509	2	6	-0.54342002	-0.43529999	16.9615	29.289
510	2	5	0.301256	-0.99860001	18.4132	31.064199
511	2	5	-0.30151999	-0.95880002	18.7913	32.334
512	2	7	0.158952	-0.4348	18.2906	33.137501
513	2	5	-0.29329401	-1.7558	20.010401	32.429699
514	2	7	0.17431401	-1.9419	20.595501	33.321301
515	2	5	0.26011801	-2.2105	20.264601	31.208099
516	2	5	0.71656698	-3.0606	21.396799	30.8253
517	2	6	-0.52976799	-3.4275999	22.241199	31.685499
518	2	8	-0.70003498	-3.4624	21.5378	29.500999
519	2	9	0.393664	-4.0486002	22.3118	29.215099
520	2	1	-0.228257	-1.7666	19.2967	30.3179
521	4	1	-0.17060301	-0.1232	22.5079	48.0765
522	4	2	0.035204001	-0.63330001	21.222401	48.2999
523	4	2	-0.14525899	0.061500002	20.5777	49.501701
524	4	2	-0.14040799	-0.5165	19.184299	49.791599
525	4	2	-0.141627	0.24259999	18.4489	50.9063
526	4	2	-0.140725	-0.0078999996	19.0602	52.295101
527	4	2	0.14011499	0.6293	18.222	53.404598
528	4	1	-0.49516699	2.0239	18.222	53.269402
529	4	3	0.074142002	0.23980001	17.1796	53.361599
530	4	3	0.074142002	0.35190001	18.6616	54.388802
531	4	4	0.090106003	0.41049999	20.088499	52.342999
532	4	4	0.090106003	-1.1022	19.1206	52.4813
533	4	4	0.086060002	-0.1007	17.3916	50.913601
534	4	4	0.086060002	1.3307	18.447599	50.680401
535	4	4	0.086236	-1.5930001	19.269199	50.060699
536	4	4	0.086236	-0.44819999	18.5686	48.867901
537	4	4	0.091192	1.1501	20.492701	49.289001
538	4	4	0.091192	-0.077100001	21.235901	50.384499
539	4	3	0.083958998	-1.7226	21.3076	48.503201
540	4	3	0.083958998	-0.50129998	20.591999	47.3894
541	5	5	0.672342	2.3873999	17.635	54.043598
542	5	6	-0.53808898	3.5234001	17.104799	53.940102
543	5	5	0.24924099	1.5852	17.423901	55.249298
544	5	5	-0.28958401	0.3788	17.931499	55.464401
545	5	7	0.17431401	-0.1802	18.5674	54.789902
546	5	5	-0.30151901	-0.0396	17.4655	56.7827
547	5	7	0.158952	-0.97329998	17.6849	57.285702
548	5	5	0.301256	0.94959998	16.7164	57.250599
549	5	5	0.43525001	0.95649999	16.0415	58.5494
550	5	6	-0.54342002	1.9497	15.3513	58.897598
551	5	1	-0.22474401	1.9897	16.656	56.332802
552	1	1	-0.17060301	0.76300001	22.391199	47.6436
553	1	2	0.035204001	1.5411	21.6259	48.5242
554	1	2	-0.14525899	1.1215	20.1549	48.460602
555	1	2	-0.140356	1.9931999	19.292	49.384701
556	1	2	-0.136261	1.5197001	17.8318	49.450401
557	1	2	-0.167183	1.7897	17.062599	48.147202
558	1	2	0.088486001	1.456	15.5768	48.288502
559	1	8	-0.68156397	0.082999997	15.4103	48.5131
560	1	9	0.38262299	-0.064300001	14.4327	48.600601
561	1	3	0.074914001	2.0374	15.1364	49.129002
562	1	3	0.074914001	1.7431	15.054	47.348
563	1	4	0.093547001	1.1825	17.4858	47.3181
564	1	4	0.093547001	2.8636	17.158701	47.875801
565	1	4	0.086236	2.0653999	17.332899	50.2808
566	1	4	0.086236	0.4348	17.799999	49.6936
567	1	4	0.086236	3.0525999	19.330099	49.049801
568	1	4	0.086236	1.9502	19.7129	50.4133
569	1	4	0.091192	0.055199999	20.068199	48.765202
570	1	4	0.091192	1.2189	19.805099	47.4104
571	1	3	0.083958998	2.6069	21.720699	48.2239
572	1	3	0.083958998	1.4404	22.0145	49.563202
573	2	5	0.43525001	0.1089	16.131701	59.216
574	2	6	-0.54342002	0.2185	15.7629	60.413799
575	2	5	0.301256	-1.1584001	16.6805	58.729099
576	2	5	-0.30151999	-1.3853	17.0996	57.492199
577	2	7	0.158952	-0.6785	17.0965	56.672798
578	2	5	-0.29329401	-2.7697999	17.5606	57.457001
579	2	7	0.17431401	-3.2959001	17.969601	56.603901
580	2	5	0.26011801	-3.2616	17.381399	58.677601
581	2	5	0.71656698	-4.6247001	17.7052	59.1115
582	2	6	-0.52976799	-5.4534998	18.200199	58.3018
583	2	8	-0.70003498	-5.0029998	17.4618	60.4277
584	2	9	0.393664	-5.9386001	17.677299	60.748199
585	2	1	-0.228257	-2.2955	16.834499	59.510601
586	4	1	-0.17060301	-4.5625	12.217	70.926498
587	4	2	0.035204001	-4.7302999	13.4521	71.5662
588	4	2	-0.14525899	-3.3685	14.0626	71.9058
589	4	2	-0.14040799	-3.5302	15.4397	72.566902
590	4	2	-0.141627	-2.1935999	16.027901	73.043602
591	4	2	-0.140725	-1.2938	16.472	71.878197
592	4	2	0.14011499	-0.0407	17.194599	72.375702