Title

95 atoms
96 bonds
173 angles
287 dihedrals
48 impropers

9 atom types
12 bond types
6 angle types
23 dihedral types
2 improper types
-5.289000034 94.71099997 xlo xhi
-3.536000013 96.46399999 ylo yhi
-4.705999851 95.29400015 zlo zhi
0.0 0.0 0.0 xy xz yz

Masses

1	15.99943
2	12.01078
3	1.007947
4	1.007947
5	12.01078
6	15.99943
7	1.007947
8	15.99943
9	1.007947


Pair Coeffs

1	0.16846514	3.0251065
2	0.10884061	3.3795318
3	0.016409246	2.5832257
4	0.015779483	2.6445434
5	0.086879315	3.4806469
6	0.2102061	3.0398122
7	0.015611343	2.5725815
8	0.20947353	2.99716
9	1.2326e-05	0.53453923

Bond Coeffs

1 harmonic	366.7408841747	1.425895053732
2 harmonic	300.03137914615	1.451203938761
3 harmonic	264.62148576755	1.52190126495
4 harmonic	370.04670688625	1.093899492634
5 harmonic	301.15400723785	1.345741232799
6 harmonic	582.698766451	1.225198386222
7 harmonic	279.1350963404	1.454628925034
8 harmonic	360.7852444772	1.387193227181
9 harmonic	397.2545789619	1.085358495916
10 harmonic	329.96998057905	1.427343958716
11 harmonic	543.5267831885	0.9716763312559
12 harmonic	385.7604595587	1.369745182308


Angle Coeffs

1 harmonic	53.20531626545	116.5475862634
2 harmonic	65.09061609600001	110.3538806181
3 harmonic	201.41175231035	127.4691416191
4 harmonic	57.8982893754	126.8062420451
5 harmonic	48.776492647595	115.6030999533
6 harmonic	34.066775159195	129.1835929926


Dihedral Coeffs

1 fourier 1	0.1155372516788	3	0
2 fourier 1	0.1115525666802	3	0
3 fourier 1	0.3432490222662	1	0
4 fourier 1	0.0473758381877	3	0
5 fourier 1	0.457973137376	1	0
6 fourier 1	0.09223874044423	3	0
7 fourier 1	0.3159935921949	2	180
8 fourier 1	0.3247796806857	1	180
9 fourier 1	0.1040663847541	3	0
10 fourier 1	0.1918272375143	3	0
11 fourier 1	0.9202179876409	1	180
12 fourier 1	1.163809172478	2	180
13 fourier 1	0.1679186987369	1	180
14 fourier 1	2.779853741805	2	180
15 fourier 1	0.9974165607242	2	180
16 fourier 1	0.1911926717192	3	0
17 fourier 1	3.661930099076	2	180
18 fourier 1	0.3445382149273	3	0
19 fourier 1	0.1364556373303	1	0
20 fourier 1	0.3026390167484	3	0
21 fourier 1	2.687457892086	2	180
22 fourier 1	2.772607909663	2	180
23 fourier 1	0.09692684957115	1	0


Improper Coeffs

1 3.5	-1	2
2 0.3666666666666667	-1	2


Atoms

1	1	1	-0.166511	-3.987	2.6689999	0.88
2	1	2	0.036194999	-4.0469999	1.324	0.491
3	1	2	-0.144453	-2.6389999	0.72299999	0.44499999
4	1	2	-0.138291	-2.684	-0.75800002	0.041000001
5	1	2	-0.14072201	-1.3049999	-1.431	0.112
6	1	2	-0.139448	-0.34799999	-0.93300003	-0.98500001
7	1	2	-0.139448	0.94199997	-1.768	-1.074
8	1	2	-0.140772	1.801	-1.779	0.207
9	1	2	-0.13956299	2.217	-0.38999999	0.72399998
10	1	2	-0.139011	3.069	0.39199999	-0.289
11	1	2	0.13922299	3.6340001	1.681	0.315
12	1	1	-0.50694197	2.6040001	2.5910001	0.59600002
13	1	3	0.078734003	4.2350001	1.456	1.227
14	1	3	0.078734003	4.3189998	2.1470001	-0.42399999
15	1	4	0.092173003	2.4590001	0.65499997	-1.179
16	1	4	0.092173003	3.918	-0.242	-0.62400001
17	1	4	0.088026002	2.8110001	-0.54000002	1.652
18	1	4	0.088026002	1.318	0.197	1.006
19	1	4	0.086240999	1.253	-2.3099999	1.013
20	1	4	0.086240999	2.7179999	-2.375	0.0080000004
21	1	4	0.086240999	1.552	-1.3940001	-1.923
22	1	4	0.086240999	0.67199999	-2.8180001	-1.322
23	1	4	0.086240999	-0.861	-1	-1.969
24	1	4	0.086240999	-0.092	0.134	-0.82300001
25	1	4	0.086240999	-1.449	-2.527	-0.0070000002
26	1	4	0.086240999	-0.86299998	-1.2539999	1.1160001
27	1	4	0.088203996	-3.1010001	-0.85900003	-0.98500001
28	1	4	0.088203996	-3.365	-1.3	0.73500001
29	1	4	0.093292996	-2.033	1.295	-0.28799999
30	1	4	0.093292996	-2.1700001	0.824	1.448
31	1	3	0.086635001	-4.6620002	0.77100003	1.233
32	1	3	0.086635001	-4.54	1.2309999	-0.50300002
33	1	5	0.78733701	2.29	2.4000001	1.566
34	1	6	-0.57653999	3.099	2.576	2.5139999
35	1	5	-0.31001401	0.91600001	1.932	1.822
36	1	5	-0.113425	0.064999998	1.75	0.79799998
37	1	7	0.205429	0.375	1.944	-0.221
38	1	5	-0.070676997	-1.314	1.28	1.0470001
39	1	7	0.187793	-1.979	1.142	0.20200001
40	1	5	-0.37214801	-1.733	1.029	2.299
41	1	5	0.57739002	-3.109	0.56099999	2.5380001
42	1	6	-0.617428	-3.517	0.322	3.7049999
43	1	5	-0.070676997	-0.79400003	1.23	3.431
44	1	7	0.187793	-1.112	1.033	4.447
45	1	5	-0.113425	0.456	1.655	3.2060001
46	1	7	0.205429	1.127	1.796	4.0440001
47	1	1	-0.166511	-3.677	3.1800001	0.088
48	1	2	0.036194999	-3.9849999	4.526	0.333
49	1	2	-0.144453	-2.9820001	5.1259999	1.322
50	1	2	-0.138291	-3.289	6.6079998	1.5880001
51	1	2	-0.14072201	-2.2279999	7.2800002	2.4719999
52	1	2	-0.139448	-2.27	6.7820001	3.927
53	1	2	-0.139448	-1.383	7.6170001	4.868
54	1	2	-0.14072201	0.118	7.6279998	4.5100002
55	1	2	-0.134206	0.77399999	6.2389998	4.4130001
56	1	2	-0.16637699	0.71200001	5.4569998	5.7350001
57	1	2	0.089523003	1.5369999	4.1680002	5.6750002
58	1	8	-0.67999101	0.97100002	3.2579999	4.77
59	1	9	0.38500699	1.38	3.441	3.8840001
60	1	3	0.077909999	2.5969999	4.3930001	5.4120002
61	1	3	0.077909999	1.539	3.7019999	6.6830001
62	1	4	0.095648997	-0.34	5.1939998	5.974
63	1	4	0.095648997	1.109	6.092	6.5570002
64	1	4	0.088203996	1.84	6.3889999	4.1339998
65	1	4	0.088203996	0.30500001	5.652	3.596
66	1	4	0.086240999	0.26199999	8.1590004	3.5450001
67	1	4	0.086240999	0.65600002	8.224	5.2789998
68	1	4	0.086240999	-1.511	7.244	5.9060001
69	1	4	0.086240999	-1.749	8.6669998	4.8660002
70	1	4	0.086240999	-3.3139999	6.849	4.302
71	1	4	0.086240999	-1.972	5.7150002	3.9820001
72	1	4	0.086240999	-2.415	8.3760004	2.461
73	1	4	0.086240999	-1.222	7.1030002	2.0339999
74	1	4	0.088203996	-4.2919998	6.7080002	2.059
75	1	4	0.088203996	-3.3180001	7.1490002	0.61699998
76	1	4	0.093292996	-3.0350001	4.5539999	2.2720001
77	1	4	0.093292996	-1.957	5.0250001	0.903
78	1	3	0.086635001	-3.934	5.0780001	-0.63
79	1	3	0.086635001	-5.0219998	4.618	0.72899997
80	1	5	0.57739002	-3.789	0.417	1.706
81	1	6	-0.617428	-4.9250002	0.95899999	1.747
82	1	5	-0.37214801	-3.3829999	-0.40000001	0.55000001
83	1	5	-0.070676997	-2.168	-0.97100002	0.52200001
84	1	7	0.187793	-1.474	-0.83899999	1.344
85	1	5	-0.11097	-1.753	-1.793	-0.634
86	1	7	0.205429	-0.76499999	-2.2379999	-0.62300003
87	1	5	-0.29916599	-2.5869999	-1.98	-1.675
88	1	5	0.82519799	-2.187	-2.8	-2.8399999
89	1	6	-0.55494702	-1.05	-3.3440001	-2.8829999
90	1	8	-0.67992002	-3.069	-2.9779999	-3.902
91	1	9	0.396447	-2.809	-3.536	-4.7059999
92	1	5	-0.11097	-3.9300001	-1.348	-1.642
93	1	7	0.205429	-4.619	-1.484	-2.467
94	1	5	-0.070676997	-4.3049998	-0.60399997	-0.59500003
95	1	7	0.187793	-5.289	-0.152	-0.59100002

Bonds

1	1	1	2
2	2	1	47
3	3	2	3
4	4	2	31
5	4	2	32
6	3	3	4
7	4	3	29
8	4	3	30
9	3	4	5
10	4	4	27
11	4	4	28
12	3	5	6
13	4	5	25
14	4	5	26
15	3	6	7
16	4	6	23
17	4	6	24
18	3	7	8
19	4	7	21
20	4	7	22
21	3	8	9
22	4	8	19
23	4	8	20
24	3	9	10
25	4	9	17
26	4	9	18
27	3	10	11
28	4	10	15
29	4	10	16
30	1	11	12
31	4	11	13
32	4	11	14
33	5	12	33
34	6	33	34
35	7	33	35
36	8	35	36
37	8	35	45
38	9	36	37
39	8	36	38
40	9	38	39
41	8	38	40
42	7	40	41
43	8	40	43
44	6	41	42
45	7	41	80
46	9	43	44
47	8	43	45
48	9	45	46
49	1	47	48
50	3	48	49
51	4	48	78
52	4	48	79
53	3	49	50
54	4	49	76
55	4	49	77
56	3	50	51
57	4	50	74
58	4	50	75
59	3	51	52
60	4	51	72
61	4	51	73
62	3	52	53
63	4	52	70
64	4	52	71
65	3	53	54
66	4	53	68
67	4	53	69
68	3	54	55
69	4	54	66
70	4	54	67
71	3	55	56
72	4	55	64
73	4	55	65
74	3	56	57
75	4	56	62
76	4	56	63
77	10	57	58
78	4	57	60
79	4	57	61
80	11	58	59
81	6	80	81
82	7	80	82
83	8	82	83
84	8	82	94
85	9	83	84
86	8	83	85
87	9	85	86
88	8	85	87
89	7	87	88
90	8	87	92
91	6	88	89
92	12	88	90
93	11	90	91
94	9	92	93
95	8	92	94
96	9	94	95

Angles

1	1	56	55	65
2	4	35	36	38
3	1	54	55	64
4	1	6	7	8
5	1	5	6	24
6	4	85	87	92
7	4	87	88	90
8	2	2	1	47
9	1	7	8	9
10	1	47	48	79
11	5	19	8	20
12	1	10	9	17
13	4	36	38	40
14	1	58	57	61
15	6	84	83	85
16	4	42	41	80
17	4	33	35	36
18	1	50	49	76
19	4	40	43	45
20	1	53	52	70
21	1	52	51	73
22	1	55	54	66
23	1	54	55	65
24	1	50	51	72
25	4	83	85	87
26	5	62	56	63
27	4	35	45	43
28	4	36	35	45
29	1	2	3	29
30	1	10	9	18
31	4	41	80	81
32	6	92	94	95
33	4	34	33	35
34	1	54	53	68
35	1	53	52	71
36	1	12	11	13
37	1	56	57	58
38	1	10	11	12
39	1	49	50	74
40	5	13	11	14
41	1	48	49	77
42	1	51	52	70
43	6	82	94	95
44	1	3	4	27
45	6	43	45	46
46	1	53	54	67
47	6	37	36	38
48	4	41	80	82
49	6	82	83	84
50	1	6	5	26
51	1	47	48	49
52	6	87	92	93
53	5	60	57	61
54	5	70	52	71
55	1	54	53	69
56	3	12	33	34
57	1	48	49	50
58	1	1	2	32
59	1	12	11	14
60	1	49	50	75
61	5	66	54	67
62	4	33	35	45
63	1	5	4	27
64	1	9	10	11
65	4	88	87	92
66	1	4	3	29
67	1	11	10	15
68	5	64	55	65
69	1	55	56	57
70	1	7	8	19
71	5	17	9	18
72	1	4	5	25
73	2	1	47	48
74	5	74	50	75
75	1	51	50	74
76	2	88	90	91
77	4	81	80	82
78	1	50	49	77
79	4	40	41	80
80	1	49	48	78
81	2	57	58	59
82	4	83	82	94
83	4	38	40	41
84	2	11	12	33
85	5	15	10	16
86	1	6	7	21
87	1	55	54	67
88	6	44	43	45
89	1	8	9	17
90	1	50	51	73
91	1	52	53	68
92	1	2	3	30
93	1	4	5	26
94	1	51	50	75
95	3	89	88	90
96	1	4	5	6
97	5	21	7	22
98	5	76	49	77
99	1	10	11	13
100	1	6	7	22
101	6	39	38	40
102	1	51	52	71
103	1	8	9	10
104	1	57	56	62
105	1	3	4	28
106	1	7	6	23
107	1	3	4	5
108	4	41	40	43
109	1	56	55	64
110	4	82	83	85
111	1	1	2	3
112	4	87	92	94
113	4	82	94	92
114	5	29	3	30
115	4	12	33	35
116	4	87	88	89
117	1	56	57	60
118	1	9	8	19
119	5	23	6	24
120	6	36	38	39
121	1	58	57	60
122	1	55	56	62
123	6	93	92	94
124	1	2	3	4
125	1	8	7	21
126	6	35	45	46
127	1	7	6	24
128	1	5	4	28
129	1	53	54	55
130	1	9	10	15
131	1	52	51	72
132	1	4	3	30
133	1	3	2	31
134	1	11	10	16
135	1	7	8	20
136	6	83	85	86
137	1	52	53	54
138	5	27	4	28
139	1	56	57	61
140	1	9	8	20
141	1	55	56	63
142	5	78	48	79
143	1	8	7	22
144	4	40	41	42
145	1	49	48	79
146	4	85	87	88
147	5	68	53	69
148	1	9	10	16
149	5	25	5	26
150	6	86	85	87
151	1	8	9	18
152	1	3	2	32
153	1	48	49	76
154	1	52	53	69
155	1	54	55	56
156	1	53	54	66
157	1	5	6	7
158	4	80	82	94
159	5	31	2	32
160	6	35	36	37
161	1	6	5	25
162	1	51	52	53
163	1	5	6	23
164	5	72	51	73
165	4	80	82	83
166	1	1	2	31
167	1	47	48	78
168	1	10	11	14
169	4	38	40	43
170	1	57	56	63
171	1	49	50	51
172	6	40	43	44
173	1	50	51	52

Dihedrals

1	9	7	8	9	18
2	17	33	35	36	37
3	9	51	50	49	77
4	6	7	8	9	10
4	7	7	8	9	10
4	8	7	8	9	10
5	15	42	41	80	82
6	16	16	10	9	17
7	16	19	8	7	21
8	16	62	56	55	64
9	4	32	2	1	47
10	6	53	54	55	56
10	7	53	54	55	56
10	8	53	54	55	56
11	17	35	36	38	40
12	9	4	5	6	24
13	16	13	11	10	16
14	15	42	41	40	43
15	16	17	9	8	20
16	15	43	40	41	80
17	9	52	51	50	74
18	16	68	53	52	70
19	16	72	51	50	74
20	9	3	4	5	25
21	1	1	2	3	4
22	17	83	85	87	88
23	17	33	35	45	46
24	2	58	57	56	63
24	3	58	57	56	63
25	9	52	53	54	66
26	17	37	36	38	40
27	9	49	50	51	72
28	17	88	87	92	94
29	16	20	8	7	22
30	17	80	82	83	85
31	15	90	88	87	92
32	17	85	87	92	93
33	16	61	57	56	62
34	15	38	40	41	80
35	4	1	47	48	78
36	15	81	80	82	83
37	22	89	88	90	91
37	23	89	88	90	91
38	16	14	11	10	16
39	16	73	51	50	75
40	16	67	54	53	68
41	15	12	33	35	45
42	16	30	3	2	31
43	17	39	38	40	43
44	16	72	51	50	75
45	9	55	54	53	68
46	9	3	4	5	26
47	17	84	83	82	94
48	17	41	40	43	44
49	9	2	3	4	27
50	9	52	53	54	67
51	9	53	54	55	64
52	9	57	56	55	65
53	16	64	55	54	66
54	17	38	36	35	45
55	16	18	9	8	19
56	6	3	4	5	6
56	7	3	4	5	6
56	8	3	4	5	6
57	9	53	52	51	72
58	16	22	7	6	23
59	16	66	54	53	69
60	2	47	48	49	77
60	3	47	48	49	77
61	17	85	87	92	94
62	17	93	92	94	95
63	5	2	1	47	48
64	16	21	7	6	23
65	17	33	35	45	43
66	9	54	53	52	71
67	9	54	55	56	62
68	16	67	54	53	69
69	6	6	7	8	9
69	7	6	7	8	9
69	8	6	7	8	9
70	16	29	3	2	32
71	6	8	9	10	11
71	7	8	9	10	11
71	8	8	9	10	11
72	16	30	3	2	32
73	15	85	87	88	89
74	9	51	52	53	68
75	9	55	54	53	69
76	16	74	50	49	76
77	16	60	57	56	62
78	9	9	10	11	13
79	17	83	85	87	92
80	9	2	3	4	28
81	17	86	85	87	92
82	9	53	54	55	65
83	1	47	48	49	50
84	1	55	56	57	58
85	16	24	6	5	26
86	15	40	41	80	82
87	6	2	3	4	5
87	7	2	3	4	5
87	8	2	3	4	5
88	17	36	35	45	46
89	16	22	7	6	24
90	9	53	52	51	73
91	4	31	2	1	47
92	9	50	49	48	79
93	17	86	85	87	88
94	16	25	5	4	28
95	2	12	11	10	15
95	3	12	11	10	15
96	17	40	43	45	46
97	9	56	55	54	66
98	6	5	6	7	8
98	7	5	6	7	8
98	8	5	6	7	8
99	9	54	55	56	63
100	15	85	87	88	90
101	17	33	35	36	38
102	16	74	50	49	77
103	16	65	55	54	66
104	16	60	57	56	63
105	9	9	10	11	14
106	16	16	10	9	18
107	9	50	51	52	70
108	16	19	8	7	22
109	16	77	49	48	78
110	16	62	56	55	65
111	20	59	58	57	60
112	16	76	49	48	78
113	17	36	38	40	43
114	16	68	53	52	71
115	9	48	49	50	74
116	9	52	51	50	75
117	9	8	7	6	23
118	17	35	45	43	44
119	6	48	49	50	51
119	7	48	49	50	51
119	8	48	49	50	51
120	9	4	3	2	31
121	17	37	36	35	45
122	9	49	50	51	73
123	9	56	55	54	67
124	17	80	82	94	95
125	17	36	35	45	43
126	16	77	49	48	79
127	15	34	33	35	36
128	16	61	57	56	63
129	17	35	45	43	40
130	15	38	40	41	42
131	9	50	51	52	71
132	16	65	55	54	67
133	17	82	94	92	87
134	4	1	47	48	79
135	9	9	8	7	21
136	17	83	82	94	95
137	17	84	83	85	86
138	9	5	4	3	29
139	2	1	2	3	29
139	3	1	2	3	29
140	9	48	49	50	75
141	17	41	40	43	45
142	9	5	6	7	21
143	9	4	3	2	32
144	6	51	52	53	54
144	7	51	52	53	54
144	8	51	52	53	54
145	16	26	5	4	27
146	16	64	55	54	67
147	12	11	12	33	34
147	13	11	12	33	34
148	16	71	52	51	72
149	16	27	4	3	29
150	16	18	9	8	20
151	10	10	11	12	33
151	11	10	11	12	33
152	9	10	9	8	19
153	16	21	7	6	24
154	17	85	83	82	94
155	16	23	6	5	25
156	9	5	4	3	30
157	2	1	2	3	30
157	3	1	2	3	30
158	17	80	82	94	92
159	9	11	10	9	17
160	15	41	80	82	94
161	9	8	9	10	15
162	9	51	52	53	69
163	17	80	82	83	84
164	16	69	53	52	70
165	9	5	6	7	22
166	17	38	40	43	44
167	18	56	57	58	59
167	19	56	57	58	59
168	14	11	12	33	35
169	16	28	4	3	29
170	17	35	36	38	39
171	17	82	83	85	86
172	4	3	2	1	47
173	9	4	5	6	23
174	16	13	11	10	15
175	16	15	10	9	17
176	16	17	9	8	19
177	17	39	38	40	41
178	9	10	9	8	20
179	16	23	6	5	26
180	2	12	11	10	16
180	3	12	11	10	16
181	16	70	52	51	72
182	15	34	33	35	45
183	9	7	6	5	25
184	9	11	10	9	18
185	4	1	47	48	49
186	9	8	9	10	16
187	16	75	50	49	76
188	16	69	53	52	71
189	17	38	40	43	45
190	9	55	56	57	60
191	16	28	4	3	30
192	20	59	58	57	61
193	16	76	49	48	79
194	16	14	11	10	15
195	16	73	51	50	74
196	17	82	83	85	87
197	16	15	10	9	18
198	9	8	7	6	24
199	15	89	88	87	92
200	6	50	51	52	53
200	7	50	51	52	53
200	8	50	51	52	53
201	9	57	56	55	64
202	16	70	52	51	73
203	9	7	6	5	26
204	16	66	54	53	68
205	9	6	5	4	27
206	4	13	11	12	33
207	2	47	48	49	76
207	3	47	48	49	76
208	16	75	50	49	77
209	15	81	80	82	94
210	9	9	8	7	22
211	16	63	56	55	64
212	9	55	56	57	61
213	9	6	7	8	19
214	9	54	53	52	70
215	17	84	83	85	87
216	21	87	88	90	91
217	16	29	3	2	31
218	17	82	94	92	93
219	9	7	8	9	17
220	9	51	50	49	76
221	17	83	82	94	92
222	15	12	33	35	36
223	1	9	10	11	12
224	15	41	80	82	83
225	15	42	41	80	81
226	6	4	5	6	7
226	7	4	5	6	7
226	8	4	5	6	7
227	17	87	92	94	95
228	16	26	5	4	28
229	6	52	53	54	55
229	7	52	53	54	55
229	8	52	53	54	55
230	16	27	4	3	30
231	16	24	6	5	25
232	17	36	38	40	41
233	4	14	11	12	33
234	15	40	41	80	81
235	16	71	52	51	73
236	6	54	55	56	57
236	7	54	55	56	57
236	8	54	55	56	57
237	9	6	5	4	28
238	6	49	50	51	52
238	7	49	50	51	52
238	8	49	50	51	52
239	17	44	43	45	46
240	9	50	49	48	78
241	2	58	57	56	62
241	3	58	57	56	62
242	16	63	56	55	65
243	16	25	5	4	27
244	9	6	7	8	20
245	17	37	36	38	39
246	17	88	87	92	93
247	16	20	8	7	21

Impropers

3	2	85	86	87	83
12	2	35	36	45	33
15	1	33	34	35	12
38	2	36	35	37	38
39	1	88	87	89	90
40	2	92	94	87	93
53	2	41	42	80	40
64	2	85	83	86	87
73	2	43	44	45	40
78	2	40	38	41	43
81	2	94	82	92	95
84	2	38	39	40	36
105	2	92	87	93	94
111	2	87	85	88	92
116	2	80	82	41	81
117	2	41	80	40	42
123	1	88	89	90	87
132	2	43	40	44	45
139	2	36	38	35	37
161	2	35	45	33	36
173	1	88	90	87	89
180	2	92	93	94	87
186	1	33	12	34	35
187	2	82	80	83	94
205	2	82	94	80	83
224	2	83	84	85	82
226	2	45	46	35	43
249	2	94	92	95	82
263	2	87	88	92	85
264	2	83	82	84	85
267	2	40	43	38	41
286	2	83	85	82	84
314	2	43	45	40	44
323	2	80	81	82	41
328	2	80	41	81	82
340	2	45	43	46	35
348	2	87	92	85	88
370	2	41	40	42	80
415	2	45	35	43	46
425	1	33	35	12	34
427	2	94	95	82	92
439	2	36	37	38	35
443	2	38	36	39	40
449	2	35	33	36	45
495	2	85	87	83	86
536	2	40	41	43	38
540	2	38	40	36	39
546	2	82	83	94	80
