Title

59 atoms
62 bonds
101 angles
157 dihedrals
72 impropers

8 atom types
12 bond types
6 angle types
20 dihedral types
2 improper types
-6.699999809 93.30000019 xlo xhi
-1.483999968 98.51600003 ylo yhi
-6.409999847 93.59000015 zlo zhi
0.0 0.0 0.0 xy xz yz

Masses

1	15.99943
2	12.01078
3	1.007947
4	12.01078
5	15.99943
6	1.007947
7	15.99943
8	1.007947


Pair Coeffs

1	0.16846514	3.0251065
2	0.10884061	3.3795318
3	0.016409246	2.5832257
4	0.086879315	3.4806469
5	0.2102061	3.0398122
6	0.015611343	2.5725815
7	0.20947353	2.99716
8	1.2326e-05	0.53453923

Bond Coeffs

1 harmonic	366.7408841747	1.425895053732
2 harmonic	300.03137914615	1.451203938761
3 harmonic	264.62148576755	1.52190126495
4 harmonic	370.04670688625	1.093899492634
5 harmonic	301.15400723785	1.345741232799
6 harmonic	582.698766451	1.225198386222
7 harmonic	279.1350963404	1.454628925034
8 harmonic	360.7852444772	1.387193227181
9 harmonic	397.2545789619	1.085358495916
10 harmonic	329.96998057905	1.427343958716
11 harmonic	543.5267831885	0.9716763312559
12 harmonic	385.7604595587	1.369745182308


Angle Coeffs

1 harmonic	53.20531626545	116.5475862634
2 harmonic	65.09061609600001	110.3538806181
3 harmonic	201.41175231035	127.4691416191
4 harmonic	57.8982893754	126.8062420451
5 harmonic	48.776492647595	115.6030999533
6 harmonic	34.066775159195	129.1835929926


Dihedral Coeffs

1 fourier 1	-0.0309670556842	3	0
2 fourier 1	0.4598191477945	2	0
3 fourier 1	0.1115525666802	3	0
4 fourier 1	0.3432490222662	1	0
5 fourier 1	0.0473758381877	3	0
6 fourier 1	0.457973137376	1	0
7 fourier 1	0.1918272375143	3	0
8 fourier 1	0.9202179876409	1	180
9 fourier 1	1.163809172478	2	180
10 fourier 1	0.1679186987369	1	180
11 fourier 1	2.779853741805	2	180
12 fourier 1	0.9974165607242	2	180
13 fourier 1	0.1911926717192	3	0
14 fourier 1	3.661930099076	2	180
15 fourier 1	0.3445382149273	3	0
16 fourier 1	0.1364556373303	1	0
17 fourier 1	0.3026390167484	3	0
18 fourier 1	2.687457892086	2	180
19 fourier 1	2.772607909663	2	180
20 fourier 1	0.09692684957115	1	0


Improper Coeffs

1 3.5	-1	2
2 0.3666666666666667	-1	2


Atoms

1	1	1	-0.130638	1.576	-0.336	0.85699999
2	1	2	0.053449001	0.63599998	-0.419	-0.17900001
3	1	2	0.158435	-0.71899998	0.11	0.28999999
4	1	1	-0.500723	-1.675	-0.035999998	-0.72399998
5	1	3	0.093463004	-1.051	-0.46900001	1.177
6	1	3	0.093463004	-0.63099998	1.1799999	0.58899999
7	1	3	0.101105	0.52999997	-1.484	-0.477
8	1	3	0.101105	0.98699999	0.154	-1.068
9	1	4	0.79408997	-1.49	0.71499997	-1.4170001
10	1	5	-0.54623598	-0.36300001	0.76300001	-1.976
11	1	4	-0.269077	-2.5350001	1.704	-1.7359999
12	1	4	-0.081724003	-3.733	1.636	-1.128
13	1	6	0.22223499	-3.9430001	0.86000001	-0.40200001
14	1	4	-0.217232	-4.7880001	2.6229999	-1.4400001
15	1	6	0.19162001	-5.7459998	2.55	-0.93900001
16	1	4	-0.083241001	-4.5539999	3.595	-2.3340001
17	1	4	-0.21083701	-5.579	4.598	-2.6730001
18	1	6	0.19162001	-6.552	4.566	-2.198
19	1	4	-0.049052	-5.3150001	5.5560002	-3.5699999
20	1	6	0.20442501	-6.086	6.2800002	-3.8010001
21	1	4	-0.33146799	-3.997	5.651	-4.2550001
22	1	4	0.58125299	-3.7909999	6.7389998	-5.2309999
23	1	5	-0.568739	-2.698	6.8730001	-5.8439999
24	1	4	0.010823	-3.0190001	4.763	-3.9879999
25	1	6	0.201764	-2.0599999	4.8340001	-4.4879999
26	1	4	-0.17802399	-3.2379999	3.6789999	-3.01
27	1	4	-0.032965999	-2.279	2.783	-2.7260001
28	1	6	0.212487	-1.317	2.8440001	-3.22
29	1	1	-0.125016	1.845	0.61799997	0.92000002
30	1	2	0.025431	3.148	0.70099998	0.41100001
31	1	2	0.097459003	4.1529999	0.17200001	1.434
32	1	7	-0.67537999	5.461	0.31799999	0.95200002
33	1	8	0.39982101	5.5970001	-0.40000001	0.27900001
34	1	3	0.099359997	4.0549998	0.75199997	2.3759999
35	1	3	0.099359997	3.941	-0.89700001	1.663
36	1	3	0.101806	3.3759999	1.766	0.192
37	1	3	0.101806	3.23	0.12800001	-0.54100001
38	1	4	0.58125299	-4.5910001	7.4400001	-5.4299998
39	1	5	-0.56874001	-5.355	7.2319999	-6.4099998
40	1	4	-0.33146799	-4.7670002	8.6160002	-4.5570002
41	1	4	-0.049052	-5.75	9.5120001	-4.7719998
42	1	6	0.20442501	-6.4419999	9.3940001	-5.5960002
43	1	4	-0.21083701	-5.9029999	10.681	-3.881
44	1	6	0.19162001	-6.6999998	11.39	-4.0700002
45	1	4	-0.083241001	-5.0609999	10.854	-2.852
46	1	4	-0.217232	-5.1799998	12.006	-1.9400001
47	1	6	0.19162001	-5.9619999	12.741	-2.0899999
48	1	4	-0.074252002	-4.3239999	12.152	-0.921
49	1	6	0.22223499	-4.441	13.011	-0.27200001
50	1	4	-0.26197201	-3.2279999	11.175	-0.66299999
51	1	4	0.833435	-2.3169999	11.4	0.48300001
52	1	5	-0.51905698	-1.38	10.592	0.73000002
53	1	7	-0.67206502	-2.49	12.512	1.304
54	1	8	0.40787399	-1.874	12.678	2.0910001
55	1	4	-0.027619001	-3.0710001	10.101	-1.464
56	1	6	0.212487	-2.2750001	9.3889999	-1.279
57	1	4	-0.17802399	-3.9779999	9.875	-2.6070001
58	1	4	0.010823	-3.8380001	8.8129997	-3.4159999
59	1	6	0.201764	-3.046	8.0939999	-3.2409999

Bonds

1	1	1	2
2	2	1	29
3	3	2	3
4	4	2	7
5	4	2	8
6	1	3	4
7	4	3	5
8	4	3	6
9	5	4	9
10	6	9	10
11	7	9	11
12	8	11	12
13	8	11	27
14	9	12	13
15	8	12	14
16	9	14	15
17	8	14	16
18	8	16	17
19	8	16	26
20	9	17	18
21	8	17	19
22	9	19	20
23	8	19	21
24	7	21	22
25	8	21	24
26	6	22	23
27	7	22	38
28	9	24	25
29	8	24	26
30	8	26	27
31	9	27	28
32	1	29	30
33	3	30	31
34	4	30	36
35	4	30	37
36	10	31	32
37	4	31	34
38	4	31	35
39	11	32	33
40	6	38	39
41	7	38	40
42	8	40	41
43	8	40	58
44	9	41	42
45	8	41	43
46	9	43	44
47	8	43	45
48	8	45	46
49	8	45	57
50	9	46	47
51	8	46	48
52	9	48	49
53	8	48	50
54	7	50	51
55	8	50	55
56	6	51	52
57	12	51	53
58	11	53	54
59	9	55	56
60	8	55	57
61	8	57	58
62	9	58	59

Angles

1	1	2	3	5
2	5	7	2	8
3	4	40	41	43
4	4	16	26	27
5	4	23	22	38
6	4	14	16	17
7	4	14	16	26
8	3	52	51	53
9	5	36	30	37
10	4	46	45	57
11	6	11	27	28
12	2	3	4	9
13	4	21	22	38
14	4	43	45	46
15	4	48	50	51
16	4	19	21	24
17	4	50	51	53
18	4	22	38	39
19	4	17	16	26
20	6	17	19	20
21	4	21	22	23
22	6	26	27	28
23	6	12	14	15
24	6	42	41	43
25	6	15	14	16
26	6	40	41	42
27	1	1	2	3
28	1	1	2	8
29	6	18	17	19
30	1	3	2	7
31	4	39	38	40
32	3	4	9	10
33	4	41	40	58
34	4	22	21	24
35	6	11	12	13
36	6	16	17	18
37	4	21	24	26
38	5	34	31	35
39	6	47	46	48
40	4	45	57	55
41	4	10	9	11
42	6	56	55	57
43	1	31	30	37
44	4	38	40	58
45	4	55	57	58
46	4	17	19	21
47	5	5	3	6
48	6	21	24	25
49	4	19	21	22
50	4	24	26	27
51	1	2	3	4
52	4	41	43	45
53	4	16	17	19
54	4	9	11	12
55	4	43	45	57
56	6	46	48	49
57	1	29	30	37
58	4	40	58	57
59	1	29	30	31
60	4	12	14	16
61	2	31	32	33
62	4	12	11	27
63	6	45	46	47
64	4	45	57	58
65	6	40	58	59
66	1	4	3	6
67	4	9	11	27
68	6	25	24	26
69	4	50	51	52
70	4	46	48	50
71	2	51	53	54
72	4	51	50	55
73	1	4	3	5
74	6	20	19	21
75	1	32	31	35
76	1	32	31	34
77	1	3	2	8
78	4	38	40	41
79	1	30	31	35
80	2	2	1	29
81	1	30	31	34
82	4	48	50	55
83	1	31	30	36
84	4	45	46	48
85	6	44	43	45
86	1	1	2	7
87	4	22	38	40
88	6	50	55	56
89	4	50	55	57
90	6	13	12	14
91	6	57	58	59
92	2	1	29	30
93	4	11	27	26
94	4	16	26	24
95	6	41	43	44
96	1	2	3	6
97	4	4	9	11
98	6	49	48	50
99	4	11	12	14
100	1	29	30	36
101	1	30	31	32

Dihedrals

1	13	6	3	2	7
2	14	19	21	24	25
3	3	4	3	2	8
3	4	4	3	2	8
4	14	42	41	43	45
5	5	7	2	1	29
6	12	23	22	38	39
7	14	17	16	26	24
8	14	43	45	46	48
9	12	39	38	40	58
10	14	22	21	24	26
11	14	41	43	45	57
12	13	5	3	2	7
13	11	3	4	9	11
14	12	22	38	40	58
15	14	16	17	19	20
16	14	20	19	21	24
17	12	21	22	38	39
18	14	43	45	57	55
19	13	34	31	30	37
20	14	44	43	45	57
21	14	16	26	27	28
22	14	13	12	14	16
23	14	55	57	58	59
24	14	48	50	55	56
25	3	32	31	30	36
25	4	32	31	30	36
26	19	52	51	53	54
26	20	52	51	53	54
27	14	47	46	45	57
28	14	18	17	19	20
29	14	14	16	26	27
30	14	38	40	58	57
31	14	17	16	26	27
32	1	1	2	3	4
32	2	1	2	3	4
33	14	14	16	17	18
34	5	3	2	1	29
35	14	11	27	26	16
36	14	21	24	26	27
37	14	9	11	12	14
38	14	50	55	57	58
39	14	45	57	55	50
40	14	51	50	55	56
41	14	25	24	26	27
42	14	11	12	14	15
43	18	50	51	53	54
44	14	45	46	48	50
45	14	46	45	57	58
46	14	14	16	26	24
47	14	38	40	41	43
48	12	39	38	40	41
49	3	29	30	31	35
49	4	29	30	31	35
50	14	46	48	50	55
51	3	29	30	31	34
51	4	29	30	31	34
52	12	22	38	40	41
53	15	30	31	32	33
53	16	30	31	32	33
54	13	35	31	30	37
55	14	19	17	16	26
56	14	41	40	58	59
57	14	16	26	24	21
58	14	16	17	19	21
59	14	17	19	21	24
60	14	45	57	58	59
61	14	14	16	17	19
62	14	42	41	43	44
63	14	44	43	45	46
64	14	45	46	48	49
65	14	40	41	43	45
66	12	52	51	50	55
67	12	19	21	22	23
68	14	48	50	55	57
69	14	18	17	19	21
70	14	24	26	27	28
71	14	49	48	50	51
72	5	1	29	30	37
73	14	20	19	21	22
74	5	1	29	30	31
75	14	14	12	11	27
76	12	23	22	21	24
77	12	48	50	51	53
78	9	3	4	9	10
78	10	3	4	9	10
79	14	22	21	24	25
80	13	35	31	30	36
81	13	34	31	30	36
82	14	17	19	21	22
83	13	6	3	2	8
84	14	12	11	27	26
85	14	51	50	55	57
86	17	33	32	31	35
87	17	33	32	31	34
88	12	24	21	22	38
89	1	29	30	31	32
89	2	29	30	31	32
90	13	5	3	2	8
91	14	38	40	41	42
92	3	4	3	2	7
92	4	4	3	2	7
93	14	43	41	40	58
94	12	19	21	22	38
95	3	1	2	3	6
95	4	1	2	3	6
96	14	41	40	58	57
97	14	9	11	12	13
98	14	43	45	57	58
99	5	8	2	1	29
100	14	11	12	14	16
101	14	15	14	16	17
102	14	41	43	45	46
103	14	15	14	16	26
104	14	9	11	27	26
105	14	47	46	48	49
106	3	1	2	3	5
106	4	1	2	3	5
107	6	2	1	29	30
108	14	46	48	50	51
109	14	40	58	57	45
110	14	12	14	16	17
111	14	12	14	16	26
112	12	21	22	38	40
113	12	10	9	11	12
114	14	13	12	14	15
115	3	32	31	30	37
115	4	32	31	30	37
116	14	47	46	48	50
117	14	40	41	43	44
118	14	46	45	57	55
119	5	1	29	30	36
120	14	49	48	50	55
121	12	4	9	11	12
122	7	2	3	4	9
122	8	2	3	4	9
123	5	6	3	4	9
124	14	9	11	27	28
125	12	10	9	11	27
126	14	42	41	40	58
127	14	11	27	26	24
128	14	56	55	57	58
129	14	13	12	11	27
130	14	43	45	46	47
131	14	18	17	16	26
132	14	19	21	24	26
133	12	53	51	50	55
134	5	5	3	4	9
135	14	45	57	55	56
136	14	48	46	45	57
137	14	16	26	24	25
138	12	23	22	38	40
139	14	38	40	58	59
140	12	4	9	11	27
141	14	12	11	27	28
142	14	40	58	57	55
143	12	48	50	51	52

Impropers

6	2	16	17	26	14
18	2	38	40	22	39
20	2	48	50	46	49
22	2	38	39	40	22
23	1	51	50	52	53
27	2	58	40	57	59
28	2	46	47	48	45
29	2	43	45	41	44
31	1	9	10	11	4
35	2	21	22	24	19
40	2	19	20	21	17
42	2	50	48	51	55
43	2	45	43	46	57
47	2	12	13	14	11
51	2	43	44	45	41
56	2	21	24	19	22
58	2	41	40	42	43
59	2	27	26	28	11
63	2	16	14	17	26
64	2	46	45	47	48
66	1	51	52	53	50
69	2	48	46	49	50
70	2	50	55	48	51
71	2	38	22	39	40
74	2	11	9	12	27
75	2	57	45	55	58
76	2	46	48	45	47
77	2	17	18	19	16
78	2	19	17	20	21
81	2	50	51	55	48
85	2	22	21	23	38
87	2	14	16	12	15
98	2	11	12	27	9
99	2	43	41	44	45
103	2	26	24	27	16
104	2	48	49	50	46
115	1	9	4	10	11
116	2	40	38	41	58
121	2	16	26	14	17
122	2	22	38	21	23
126	2	41	42	43	40
129	2	41	43	40	42
135	2	17	16	18	19
139	2	55	50	56	57
145	2	57	58	45	55
158	2	57	55	58	45
160	2	26	27	16	24
162	2	12	14	11	13
173	2	21	19	22	24
177	2	14	12	15	16
180	2	24	25	26	21
182	2	45	46	57	43
183	2	40	58	38	41
185	2	24	26	21	25
186	2	58	57	59	40
187	2	14	15	16	12
188	2	26	16	24	27
191	2	24	21	25	26
193	1	9	11	4	10
194	2	58	59	40	57
200	2	55	57	50	56
202	2	27	11	26	28
203	2	11	27	9	12
206	2	12	11	13	14
216	2	45	57	43	46
226	2	40	41	58	38
227	1	51	53	50	52
232	2	17	19	16	18
233	2	19	21	17	20
234	2	27	28	11	26
236	2	55	56	57	50
239	2	22	23	38	21
