Title

594 atoms
603 bonds
1080 angles
1982 dihedrals
261 impropers

11 atom types
16 bond types
10 angle types
43 dihedral types
3 improper types
-17.9640007 82.0359993 xlo xhi
-20.25099945 79.74900055 ylo yhi
-2.917000055 97.08299994 zlo zhi
0.0 0.0 0.0 xy xz yz

Masses

1	12.01078
2	15.99943
3	1.007947
4	15.99943
5	12.01078
6	15.99943
7	1.007947
8	1.007947
9	14.00672
10	1.007947
11	1.007947


Pair Coeffs

1	0.10884061	3.3795318
2	0.20947353	2.99716
3	1.2326e-05	0.53453923
4	0.16846514	3.0251065
5	0.086879315	3.4806469
6	0.2102061	3.0398122
7	0.016409246	2.5832257
8	0.015779483	2.6445434
9	0.16769152	3.206876
10	0.014090815	1.1034277
11	0.015611343	2.5725815

Bond Coeffs

1 harmonic	329.96998057905	1.427343958716
2 harmonic	264.62148576755	1.52190126495
3 harmonic	370.04670688625	1.093899492634
4 harmonic	543.5267831885	0.9716763312559
5 harmonic	366.7408841747	1.425895053732
6 harmonic	301.15400723785	1.345741232799
7 harmonic	582.698766451	1.225198386222
8 harmonic	279.1350963404	1.454628925034
9 harmonic	492.76746816345	1.381897776683
10 harmonic	505.144496193	1.019481865027
11 harmonic	352.0565580496	1.450098586273
12 harmonic	289.73813263395	1.498646816465
13 harmonic	360.7852444772	1.387193227181
14 harmonic	397.2545789619	1.085358495916
15 harmonic	366.34047229585	1.464762957261
16 harmonic	422.7150220147	1.421786517481


Angle Coeffs

1 harmonic	65.09061609600001	110.3538806181
2 harmonic	53.20531626545	116.5475862634
3 harmonic	201.41175231035	127.4691416191
4 harmonic	57.8982893754	126.8062420451
5 harmonic	48.776492647595	115.6030999533
6 harmonic	55.42182150775	117.3465570514
7 harmonic	63.44422595415	115.5071327674
8 harmonic	34.066775159195	129.1835929926
9 harmonic	94.53012429075	110.92021963
10 harmonic	49.015990027215	114.8414599994


Dihedral Coeffs

1 fourier 1	0.1918272375143	3	0
2 fourier 1	0.9202179876409	1	180
3 fourier 1	0.4552156463534	3	0
4 fourier 1	-0.03687743385131	2	180
5 fourier 1	-0.0309670556842	3	0
6 fourier 1	0.4598191477945	2	0
7 fourier 1	0.1115525666802	3	0
8 fourier 1	0.3432490222662	1	0
9 fourier 1	0.3445382149273	3	0
10 fourier 1	0.1364556373303	1	0
11 fourier 1	0.3026390167484	3	0
12 fourier 1	0.1155372516788	3	0
13 fourier 1	0.1040663847541	3	0
14 fourier 1	1.163809172478	2	180
15 fourier 1	0.1679186987369	1	180
16 fourier 1	2.779853741805	2	180
17 fourier 1	0.9974165607242	2	180
18 fourier 1	0.0473758381877	3	0
19 fourier 1	0.1911926717192	3	0
20 fourier 1	0.09223874044423	3	0
21 fourier 1	0.3159935921949	2	180
22 fourier 1	0.3247796806857	1	180
23 fourier 1	1.809047390003	2	180
24 fourier 1	-0.04816277792592	1	0
25 fourier 1	-0.6891728821899999	2	180
26 fourier 1	0.2727846432367	1	0
27 fourier 1	0.182238503271	2	0
28 fourier 1	0.02972342374561	3	0
29 fourier 1	0.4860993122944	2	180
30 fourier 1	0.8916986138746	1	0
31 fourier 1	0.02664938770063	3	0
32 fourier 1	3.661930099076	2	180
33 fourier 1	0.2036670163956	3	0
34 fourier 1	0.3917343745784	3	0
35 fourier 1	0.9467782973395	2	0
36 fourier 1	0.2726597146827	1	0
37 fourier 1	0.774151252041	3	0
38 fourier 1	1.087509576657	2	0
39 fourier 1	1.518874939494	1	0
40 fourier 1	0.6761465733405	3	0
41 fourier 1	1.653011589151	2	0
42 fourier 1	1.713184811193	1	0
43 fourier 1	1.659715194912	2	180


Improper Coeffs

1 3.5	-1	2
2 0.3333333333333333	-1	2
3 0.3666666666666667	-1	2


Atoms

1	1	1	0.13893101	-5.2849998	0.25299999	1.2180001
2	1	2	-0.69306099	-6.5469999	-0.36300001	1.268
3	1	3	0.42162901	-6.6139998	-0.84200001	2.1359999
4	1	1	0.114955	-5.151	1.301	2.339
5	1	4	-0.48712	-6.2080002	2.2579999	2.2709999
6	1	5	0.631078	-6.2509999	3.2880001	1.327
7	1	6	-0.50710398	-5.3319998	3.4330001	0.47400001
8	1	7	0.105517	-4.1690001	1.8200001	2.276
9	1	7	0.105517	-5.2020001	0.79400003	3.326
10	1	7	0.108269	-5.2010002	0.76999998	0.23899999
11	1	1	0.049718998	-4.1690001	-0.80400002	1.298
12	1	4	-0.46906501	-2.8970001	-0.20100001	1.14
13	1	1	0.08405	-2.4549999	-0.26499999	-0.204
14	1	1	-0.153686	-1.591	-1.517	-0.41600001
15	1	1	-0.133912	-0.99699998	-1.594	-1.839
16	1	1	-0.133912	0.495	-1.225	-1.902
17	1	1	-0.153686	0.75099999	0.26699999	-1.647
18	1	1	0.084022999	2.22	0.62900001	-1.868
19	1	4	-0.47138801	3.0139999	0.0020000001	-0.88200003
20	1	1	0.089576997	4.381	0.183	-1.184
21	1	1	0.16337401	5.2379999	-0.31900001	-0.016000001
22	1	1	0.098407	5.0689998	0.59500003	1.211
23	1	2	-0.671193	5.7010002	0.039999999	2.3329999
24	1	3	0.40094399	6.6350002	0.37799999	2.336
25	1	7	0.106358	5.4710002	1.613	0.99199998
26	1	7	0.106358	3.9890001	0.70899999	1.448
27	1	4	-0.48797801	6.605	-0.34	-0.43200001
28	1	5	0.78886998	7.5669999	-1.2	0.104
29	1	6	-0.57896698	7.2620001	-2.0710001	0.96200001
30	1	7	0.116205	4.9000001	-1.349	0.236
31	1	7	0.103812	4.6230001	1.2539999	-1.377
32	1	7	0.103812	4.6430001	-0.41100001	-2.089
33	1	7	0.093841001	2.3210001	1.735	-1.785
34	1	7	0.093841001	2.5190001	0.31900001	-2.8959999
35	1	8	0.10518	0.47600001	0.52700001	-0.60299999
36	1	8	0.10518	0.126	0.87400001	-2.3380001
37	1	8	0.099197	1.064	-1.839	-1.17
38	1	8	0.099197	0.86699998	-1.485	-2.9170001
39	1	8	0.099197	-1.575	-0.96799999	-2.5539999
40	1	8	0.099197	-1.092	-2.6429999	-2.1960001
41	1	8	0.10518	-2.2290001	-2.4130001	-0.25
42	1	8	0.10518	-0.78600001	-1.548	0.35299999
43	1	7	0.093841001	-3.2920001	-0.237	-0.94199997
44	1	7	0.093841001	-1.8430001	0.639	-0.39899999
45	1	7	0.10566	-4.197	-1.285	2.299
46	1	7	0.10566	-4.3649998	-1.619	0.56300002
47	1	9	-0.43619701	5.98	-5.1040001	3.171
48	1	10	0.33039299	6.4699998	-4.9429998	4.0809999
49	1	1	0.094011001	6.8610001	-5.8899999	2.313
50	1	5	-0.230342	8.0439997	-5.0619998	1.896
51	1	5	-0.29375601	7.96	-4.2259998	0.84600002
52	1	5	-0.230342	9.1199999	-3.385	0.45899999
53	1	1	0.094011001	9.0019999	-2.4360001	-0.70099998
54	1	9	-0.43785501	8.5760002	-1.123	-0.228
55	1	10	0.33039299	8.5690002	-0.47600001	-1.049
56	1	7	0.048764002	8.2709999	-2.8269999	-1.444
57	1	7	0.048764002	9.9829998	-2.3429999	-1.217
58	1	5	-0.281598	10.245	-3.434	1.192
59	1	5	-0.227277	10.336	-4.3390002	2.355
60	1	5	-0.281598	9.2950001	-5.1090002	2.691
61	1	11	0.211862	9.3690004	-5.7649999	3.55
62	1	11	0.214589	11.247	-4.3740001	2.9389999
63	1	11	0.211862	11.094	-2.809	0.94400001
64	1	11	0.205442	7.0409999	-4.1599998	0.27500001
65	1	7	0.048762999	6.2979999	-6.2270002	1.414
66	1	7	0.048762999	7.2010002	-6.802	2.8529999
67	1	1	0.142682	1.946	-5.9180002	3.3970001
68	1	2	-0.69306099	1.651	-4.6079998	2.983
69	1	3	0.42162901	1.215	-4.1430001	3.744
70	1	1	0.095096	2.9460001	-5.9029999	4.5679998
71	1	4	-0.481071	4.1269999	-5.1820002	4.2210002
72	1	5	0.79281902	5.125	-5.6989999	3.388
73	1	6	-0.56967598	5.0339999	-6.8590002	2.901
74	1	7	0.116042	3.2130001	-6.9400001	4.8699999
75	1	7	0.116042	2.4790001	-5.4060001	5.4450002
76	1	7	0.108269	2.415	-6.4450002	2.5380001
77	1	1	0.049718998	0.653	-6.6659999	3.7679999
78	1	4	-0.46906501	0.93000001	-8.0190001	4.0819998
79	1	1	0.08405	0.74400002	-8.8620005	2.9590001
80	1	1	-0.153686	-0.68199998	-9.4329996	2.96
81	1	1	-0.133912	-0.91799998	-10.438	1.812
82	1	1	-0.133912	-0.91900003	-11.906	2.2720001
83	1	1	-0.153686	0.472	-12.397	2.7
84	1	1	0.084022999	0.46700001	-13.896	3.0039999
85	1	4	-0.47138801	-0.31900001	-14.142	4.151
86	1	1	0.089576997	-0.47600001	-15.534	4.3319998
87	1	1	0.16337401	-1.154	-15.805	5.6799998
88	1	1	0.098407	-0.20900001	-15.448	6.842
89	1	2	-0.671193	-0.88499999	-15.517	8.0690002
90	1	3	0.40094399	-0.78100002	-16.445999	8.4040003
91	1	7	0.106358	0.67900002	-16.122	6.8390002
92	1	7	0.106358	0.163	-14.408	6.7160001
93	1	4	-0.48797801	-1.508	-17.188	5.7389998
94	1	5	0.78886998	-2.5669999	-17.687	6.5029998
95	1	6	-0.57896698	-3.3280001	-16.917999	7.1490002
96	1	7	0.116205	-2.069	-15.174	5.7350001
97	1	7	0.103812	0.50300002	-16.066999	4.3049998
98	1	7	0.103812	-1.128	-15.942	3.526
99	1	7	0.093841001	1.518	-14.215	3.191
100	1	7	0.093841001	0.081	-14.445	2.1140001
101	1	8	0.10518	0.80299997	-11.854	3.609
102	1	8	0.10518	1.202	-12.2	1.885
103	1	8	0.099197	-1.642	-12.036	3.1070001
104	1	8	0.099197	-1.274	-12.529	1.4220001
105	1	8	0.099197	-0.18099999	-10.297	0.991
106	1	8	0.099197	-1.918	-10.23	1.372
107	1	8	0.10518	-1.396	-8.5889997	2.8429999
108	1	8	0.10518	-0.89399999	-9.8999996	3.947
109	1	7	0.093841001	0.96200001	-8.3540001	1.99
110	1	7	0.093841001	1.472	-9.6940002	3.0409999
111	1	7	0.10566	0.206	-6.191	4.6680002
112	1	7	0.10566	-0.101	-6.5469999	2.9560001
113	1	9	-0.43619701	-5.934	-14.303	8.5939999
114	1	10	0.33039299	-5.8829999	-14.479	9.6239996
115	1	1	0.094011001	-6.9200001	-15.215	8.0240002
116	1	5	-0.230342	-6.4060001	-16.627001	8.0810003
117	1	5	-0.29375601	-5.5890002	-17.097	7.1220002
118	1	5	-0.230342	-5.0560002	-18.48	7.1999998
119	1	1	0.094011001	-4.1209998	-18.983	6.1350002
120	1	9	-0.43785501	-2.7390001	-18.738001	6.5300002
121	1	10	0.33039299	-2.1199999	-19.158001	5.8000002
122	1	7	0.048764002	-4.335	-18.478001	5.1669998
123	1	7	0.048764002	-4.2740002	-20.075001	5.9809999
124	1	5	-0.281598	-5.3639998	-19.247999	8.2600002
125	1	5	-0.227277	-6.2490001	-18.73	9.3219995
126	1	5	-0.281598	-6.7420001	-17.488001	9.2399998
127	1	11	0.211862	-7.3839998	-17.114	10.027
128	1	11	0.214589	-6.494	-19.356001	10.17
129	1	11	0.211862	-4.9650002	-20.250999	8.3509998
130	1	11	0.205442	-5.3109999	-16.466999	6.2849998
131	1	7	0.048762999	-7.1240001	-14.928	6.9689999
132	1	7	0.048762999	-7.8800001	-15.133	8.5819998
133	1	1	0.142682	-5.7529998	-10.358	7.415
134	1	2	-0.69306099	-4.415	-10.53	7.0180001
135	1	3	0.42162901	-3.849	-9.9820004	7.6220002
136	1	1	0.095096	-5.9619999	-10.878	8.849
137	1	4	-0.481071	-5.5510001	-12.239	8.9630003
138	1	5	0.79281902	-6.303	-13.312	8.4750004
139	1	6	-0.56967598	-7.414	-13.126	7.9050002
140	1	7	0.116042	-7.0289998	-10.78	9.1499996
141	1	7	0.116042	-5.3559999	-10.27	9.5550003
142	1	7	0.108269	-6.388	-10.954	6.7259998
143	1	1	0.049718998	-6.1620002	-8.8800001	7.2849998
144	1	4	-0.46906501	-7.539	-8.7150002	7.5780001
145	1	1	0.08405	-8.3269997	-8.7299995	6.402
146	1	1	-0.153686	-8.5389996	-7.2969999	5.8909998
147	1	1	-0.133912	-9.4729996	-7.2379999	4.6630001
148	1	1	-0.133912	-10.891	-6.743	4.994
149	1	1	-0.153686	-11.696	-7.7550001	5.823
150	1	1	0.084022999	-13.146	-7.302	6.0040002
151	1	4	-0.47138801	-13.181	-6.1399999	6.8060002
152	1	1	0.089576997	-14.492	-5.6149998	6.8280001
153	1	1	0.16337401	-14.574	-4.4790001	7.8540001
154	1	1	0.098407	-14.439	-5.0300002	9.2849998
155	1	2	-0.671193	-14.327	-3.983	10.211
156	1	3	0.40094399	-15.249	-3.75	10.497
157	1	7	0.106358	-15.307	-5.6859999	9.5299997
158	1	7	0.106358	-13.52	-5.6529999	9.3610001
159	1	4	-0.48797801	-15.831	-3.8169999	7.697
160	1	5	0.78886998	-16.051001	-2.477	8.0310001
161	1	6	-0.57896698	-15.112	-1.742	8.4399996
162	1	7	0.116205	-13.741	-3.7709999	7.6459999
163	1	7	0.103812	-15.244	-6.395	7.0900002
164	1	7	0.103812	-14.742	-5.1989999	5.8260002
165	1	7	0.093841001	-13.705	-8.1239996	6.507
166	1	7	0.093841001	-13.597	-7.1240001	5.0009999
167	1	8	0.10518	-11.236	-7.875	6.8260002
168	1	8	0.10518	-11.691	-8.7419996	5.3109999
169	1	8	0.099197	-10.833	-5.7719998	5.5310001
170	1	8	0.099197	-11.421	-6.5630002	4.0339999
171	1	8	0.099197	-9.5240002	-8.2209997	4.1440001
172	1	8	0.099197	-9.0360003	-6.5229998	3.9319999
173	1	8	0.10518	-7.5489998	-6.8800001	5.6030002
174	1	8	0.10518	-8.9280005	-6.6620002	6.717
175	1	7	0.093841001	-7.8990002	-9.3739996	5.5970001
176	1	7	0.093841001	-9.3079996	-9.1750002	6.6620002
177	1	7	0.10566	-5.5819998	-8.2770004	8.0159998
178	1	7	0.10566	-5.8769999	-8.4940004	6.2779999
179	1	9	-0.43619701	-11.929	0.52200001	9.1169996
180	1	10	0.33039299	-12.098	0.86400002	10.091
181	1	1	0.094011001	-12.585	1.439	8.191
182	1	5	-0.230342	-14.078	1.3150001	8.3179998
183	1	5	-0.29375601	-14.744	0.35299999	7.6529999
184	1	5	-0.230342	-16.212999	0.212	7.8080001
185	1	1	0.094011001	-16.940001	-0.88499999	7.0799999
186	1	9	-0.43785501	-17.028	-2.0699999	7.927
187	1	10	0.33039299	-17.594999	-2.7839999	7.415
188	1	7	0.048764002	-16.410999	-1.133	6.1329999
189	1	7	0.048764002	-17.964001	-0.546	6.809
190	1	5	-0.281598	-16.870001	1.028	8.6499996
191	1	5	-0.227277	-16.139999	2.075	9.3920002
192	1	5	-0.281598	-14.818	2.211	9.2379999
193	1	11	0.211862	-14.29	2.9779999	9.7919998
194	1	11	0.214589	-16.677999	2.73	10.066
195	1	11	0.211862	-17.938	0.926	8.7980003
196	1	11	0.205442	-14.21	-0.329	7.0009999
197	1	7	0.048762999	-12.271	1.202	7.151
198	1	7	0.048762999	-12.267	2.4849999	8.4040003
199	1	1	0.142682	-8.1590004	-0.95200002	8.3400002
200	1	2	-0.69306099	-8.6529999	-2.266	8.3979998
201	1	3	0.42162901	-8.2480001	-2.7049999	9.1920004
202	1	1	0.095096	-8.5939999	-0.156	9.5839996
203	1	4	-0.481071	-10.013	-0.17900001	9.7340002
204	1	5	0.79281902	-10.88	0.58999997	8.9510002
205	1	6	-0.56967598	-10.44	1.369	8.0600004
206	1	7	0.116042	-8.2390003	0.89700001	9.5209999
207	1	7	0.116042	-8.1400003	-0.611	10.491
208	1	7	0.108269	-8.5939999	-0.46799999	7.4400001
209	1	1	0.049718998	-6.6279998	-0.96200001	8.184
210	1	4	-0.46906501	-6.1329999	0.35499999	8.0159998
211	1	1	0.08405	-5.974	0.68000001	6.6469998
212	1	1	-0.153686	-4.539	0.37	6.1950002
213	1	1	-0.133912	-4.2740002	0.79400003	4.7340002
214	1	1	-0.133912	-3.448	2.086	4.6110001
215	1	1	-0.153686	-4.2259998	3.3340001	5.0539999
216	1	1	0.084022999	-3.4360001	4.6139998	4.776
217	1	4	-0.47138801	-2.289	4.6490002	5.599
218	1	1	0.089576997	-1.464	5.7319999	5.2220001
219	1	1	0.16337401	-0.32800001	5.8920002	6.2379999
220	1	1	0.098407	-0.87699997	6.3790002	7.592
221	1	2	-0.671193	0.125	6.349	8.5719995
222	1	3	0.40094399	0.57700002	7.2329998	8.552
223	1	7	0.106358	-1.302	7.4050002	7.4889998
224	1	7	0.106358	-1.7	5.71	7.9250002
225	1	4	-0.48797801	0.61500001	6.8330002	5.7199998
226	1	5	0.78886998	1.972	6.8369999	6.0539999
227	1	6	-0.57896698	2.4649999	5.9499998	6.8010001
228	1	7	0.116205	0.15700001	4.8979998	6.3670001
229	1	7	0.103812	-2.0369999	6.6859999	5.165
230	1	7	0.103812	-1.013	5.5250001	4.2249999
231	1	7	0.093841001	-4.092	5.4829998	5.006
232	1	7	0.093841001	-3.168	4.6459999	3.694
233	1	8	0.10518	-4.4400001	3.2809999	6.1420002
234	1	8	0.10518	-5.1919999	3.3840001	4.506
235	1	8	0.099197	-2.5120001	1.9910001	5.2020001
236	1	8	0.099197	-3.1589999	2.204	3.5439999
237	1	8	0.099197	-5.2220001	0.89200002	4.1609998
238	1	8	0.099197	-3.694	-0.016000001	4.2399998
239	1	8	0.10518	-4.3759999	-0.72600001	6.2800002
240	1	8	0.10518	-3.8180001	0.85799998	6.888
241	1	7	0.093841001	-6.7129998	0.16599999	5.987
242	1	7	0.093841001	-6.1669998	1.766	6.5359998
243	1	7	0.10566	-6.1729999	-1.383	9.1059999
244	1	7	0.10566	-6.335	-1.652	7.3579998
245	1	9	-0.43619701	3.908	2.7520001	8.6490002
246	1	10	0.33039299	4.2940001	3.1570001	9.533
247	1	1	0.094011001	4.9429998	2.8269999	7.6240001
248	1	5	-0.230342	5.1830001	4.2600002	7.2389998
249	1	5	-0.29375601	4.401	4.8649998	6.3270001
250	1	5	-0.230342	4.619	6.29	5.9759998
251	1	1	0.094011001	3.7190001	6.961	4.9749999
252	1	9	-0.43785501	2.6010001	7.6009998	5.6609998
253	1	10	0.33039299	2.0369999	8.1090002	4.9419999
254	1	7	0.048764002	3.3380001	6.2150002	4.2420001
255	1	7	0.048764002	4.29	7.7259998	4.4039998
256	1	5	-0.281598	5.5799999	6.987	6.6079998
257	1	5	-0.227277	6.4310002	6.3299999	7.6199999
258	1	5	-0.281598	6.243	5.04	7.9219999
259	1	11	0.211862	6.8670001	4.5689998	8.6709995
260	1	11	0.214589	7.204	6.8979998	8.1219997
261	1	11	0.211862	5.7389998	8.0349998	6.3860002
262	1	11	0.205442	3.602	4.3150001	5.8439999
263	1	7	0.048762999	4.6240001	2.244	6.7319999
264	1	7	0.048762999	5.8839998	2.368	8.0010004
265	1	1	0.142682	1.561	-0.611	9.0640001
266	1	2	-0.69306099	0.405	0.163	8.8640003
267	1	3	0.42162901	-0.108	0.163	9.7139997
268	1	1	0.095096	2.4549999	0.024	10.146
269	1	4	-0.481071	2.7750001	1.374	9.8149996
270	1	5	0.79281902	3.72	1.724	8.8439999
271	1	6	-0.56967598	4.3579998	0.84200001	8.2049999
272	1	7	0.116042	3.3900001	-0.565	10.276
273	1	7	0.116042	1.916	0.021	11.118
274	1	7	0.108269	2.1240001	-0.62900001	8.1059999
275	1	1	0.049718998	1.181	-2.0580001	9.4230003
276	1	4	-0.46906501	2.3380001	-2.8699999	9.5200005
277	1	1	0.08405	2.598	-3.553	8.3070002
278	1	1	-0.153686	1.947	-4.9429998	8.335
279	1	1	-0.133912	2.2750001	-5.777	7.0780001
280	1	1	-0.133912	3.329	-6.8699999	7.3239999
281	1	1	-0.153686	4.7329998	-6.2979999	7.5700002
282	1	1	0.084022999	5.7820001	-7.408	7.658
283	1	4	-0.47138801	5.5510001	-8.184	8.8149996
284	1	1	0.089576997	6.3990002	-9.3140001	8.8079996
285	1	1	0.16337401	6.2950001	-10.044	10.152
286	1	1	0.098407	6.9169998	-9.198	11.277
287	1	2	-0.671193	6.6599998	-9.7740002	12.53
288	1	3	0.40094399	7.4099998	-10.396	12.721
289	1	7	0.106358	8.0139999	-9.0810003	11.111
290	1	7	0.106358	6.4699998	-8.1800003	11.272
291	1	4	-0.48797801	6.9749999	-11.296	10.042
292	1	5	0.78886998	6.658	-12.423	10.806
293	1	6	-0.57896698	5.6880002	-12.416	11.61
294	1	7	0.116205	5.2150002	-10.214	10.365
295	1	7	0.103812	7.4619999	-9.0299997	8.6309996
296	1	7	0.103812	6.0770001	-10.015	8.0050001
297	1	7	0.093841001	6.7859998	-6.9310002	7.7179999
298	1	7	0.093841001	5.7340002	-8.0249996	6.7309999
299	1	8	0.10518	4.7470002	-5.723	8.5190001
300	1	8	0.10518	5.006	-5.6129999	6.7379999
301	1	8	0.099197	3.0190001	-7.5019999	8.184
302	1	8	0.099197	3.359	-7.5219998	6.4239998
303	1	8	0.099197	2.5899999	-5.1279998	6.23
304	1	8	0.099197	1.342	-6.2870002	6.7490001
305	1	8	0.10518	0.84399998	-4.8109999	8.3929996
306	1	8	0.10518	2.256	-5.48	9.2589998
307	1	7	0.093841001	2.267	-2.983	7.4050002
308	1	7	0.093841001	3.697	-3.664	8.2139997
309	1	7	0.10566	0.67500001	-2.0650001	10.413
310	1	7	0.10566	0.43000001	-2.4460001	8.6960001
311	1	9	-0.43619701	2.2620001	-12.371	13.606
312	1	10	0.33039299	2.5739999	-12.517	14.593
313	1	1	0.094011001	2.072	-13.679	12.989
314	1	5	-0.230342	3.401	-14.358	12.806
315	1	5	-0.29375601	4.1630001	-14.092	11.73
316	1	5	-0.230342	5.4899998	-14.738	11.571
317	1	1	0.094011001	6.3429999	-14.41	10.377
318	1	9	-0.43785501	7.2420001	-13.306	10.696
319	1	10	0.33039299	7.862	-13.151	9.8690004
320	1	7	0.048764002	5.7010002	-14.138	9.5100002
321	1	7	0.048764002	6.941	-15.301	10.082
322	1	5	-0.281598	5.9429998	-15.562	12.531
323	1	5	-0.227277	5.1149998	-15.845	13.72
324	1	5	-0.281598	3.9119999	-15.275	13.853
325	1	11	0.211862	3.3150001	-15.483	14.732
326	1	11	0.214589	5.487	-16.511999	14.488
327	1	11	0.211862	6.9200001	-16.024	12.448
328	1	11	0.205442	3.8150001	-13.4	10.973
329	1	7	0.048762999	1.571	-13.555	12.004
330	1	7	0.048762999	1.405	-14.305	13.624
331	1	1	0.142682	-0.433	-9.3140001	12.987
332	1	2	-0.69306099	0.59299999	-8.5050001	12.47
333	1	3	0.42162901	0.727	-7.75	13.1
334	1	1	0.095096	-0.017999999	-9.9099998	14.345
335	1	4	-0.481071	1.212	-10.626	14.233
336	1	5	0.79281902	1.311	-11.896	13.657
337	1	6	-0.56967598	0.294	-12.491	13.206
338	1	7	0.116042	-0.81199998	-10.584	14.737
339	1	7	0.116042	0.122	-9.0900002	15.081
340	1	7	0.108269	-0.59899998	-10.147	12.271
341	1	1	0.049718998	-1.742	-8.5129995	13.099
342	1	4	-0.46906501	-2.8069999	-9.349	13.518
343	1	1	0.08405	-3.5480001	-9.8380003	12.414
344	1	1	-0.153686	-4.7410002	-8.9139996	12.13
345	1	1	-0.133912	-5.645	-9.4460001	10.997
346	1	1	-0.133912	-6.9559999	-10.073	11.502
347	1	1	-0.153686	-6.7350001	-11.402	12.239
348	1	1	0.084022999	-8.0629997	-12.074	12.592
349	1	4	-0.47138801	-8.7460003	-11.294	13.551
350	1	1	0.089576997	-10.046	-11.809	13.747
351	1	1	0.16337401	-10.712	-11.092	14.927
352	1	1	0.098407	-10.026	-11.474	16.25
353	1	2	-0.671193	-10.506	-10.684	17.304001
354	1	3	0.40094399	-11.288	-11.16	17.690001
355	1	7	0.106358	-10.178	-12.558	16.465
356	1	7	0.106358	-8.9300003	-11.303	16.167
357	1	4	-0.48797801	-12.092	-11.461	14.961
358	1	5	0.78886998	-13.099	-10.654	15.498
359	1	6	-0.57896698	-12.849	-9.4980001	15.934
360	1	7	0.116205	-10.615	-9.9960003	14.758
361	1	7	0.103812	-10.029	-12.905	13.952
362	1	7	0.103812	-10.66	-11.626	12.836
363	1	7	0.093841001	-7.8410001	-13.08	13.014
364	1	7	0.093841001	-8.6630001	-12.202	11.661
365	1	8	0.10518	-6.1680002	-11.228	13.176
366	1	8	0.10518	-6.1469998	-12.091	11.593
367	1	8	0.099197	-7.4840002	-9.3540001	12.166
368	1	8	0.099197	-7.6079998	-10.255	10.621
369	1	8	0.099197	-5.1020002	-10.169	10.349
370	1	8	0.099197	-5.9200001	-8.5889997	10.344
371	1	8	0.10518	-4.3470001	-7.9190001	11.829
372	1	8	0.10518	-5.3239999	-8.7600002	13.065
373	1	7	0.093841001	-2.928	-9.9729996	11.496
374	1	7	0.093841001	-3.921	-10.847	12.683
375	1	7	0.10566	-1.614	-7.7150002	13.863
376	1	7	0.10566	-1.948	-7.9840002	12.139
377	1	9	-0.43619701	-11.956	-5.7080002	16.681
378	1	10	0.33039299	-12.16	-5.625	17.702999
379	1	1	0.094011001	-13.188	-5.4419999	15.947
380	1	5	-0.230342	-14.169	-6.5599999	16.167999
381	1	5	-0.29375601	-14.108	-7.6810002	15.427
382	1	5	-0.230342	-15.056	-8.7959995	15.671
383	1	1	0.094011001	-14.958	-10.054	14.853
384	1	9	-0.43785501	-14.098	-11.02	15.527
385	1	10	0.33039299	-14.108	-11.902	14.964
386	1	7	0.048764002	-14.552	-9.8240004	13.843
387	1	7	0.048764002	-15.97	-10.494	14.711
388	1	5	-0.281598	-15.952	-8.6949997	16.667999
389	1	5	-0.227277	-16.011999	-7.4720001	17.493
390	1	5	-0.281598	-15.168	-6.461	17.259001
391	1	11	0.211862	-15.214	-5.5710001	17.875
392	1	11	0.214589	-16.738001	-7.3990002	18.292
393	1	11	0.211862	-16.636	-9.5080004	16.881001
394	1	11	0.205442	-13.363	-7.7779999	14.646
395	1	7	0.048762999	-12.961	-5.3460002	14.862
396	1	7	0.048762999	-13.627	-4.4749999	16.281
397	1	1	0.142682	-8.3500004	-4.1620002	15.417
398	1	2	-0.69306099	-7.8169999	-5.46	15.326
399	1	3	0.42162901	-7.1090002	-5.5440001	16.016001
400	1	1	0.095096	-9.0100002	-3.9460001	16.791
401	1	4	-0.481071	-10.002	-4.9400001	17.044001
402	1	5	0.79281902	-11.266	-4.9330001	16.447001
403	1	6	-0.56967598	-11.605	-4.02	15.644
404	1	7	0.116042	-9.4680004	-2.9330001	16.851
405	1	7	0.116042	-8.2370005	-4.013	17.587
406	1	7	0.108269	-9.1280003	-4.0609999	14.631
407	1	1	0.049718998	-7.256	-3.115	15.145
408	1	4	-0.46906501	-7.8060002	-1.8099999	15.128
409	1	1	0.08405	-8.118	-1.3940001	13.811
410	1	1	-0.153686	-6.9380002	-0.61400002	13.212
411	1	1	-0.133912	-7.2519999	-0.048999999	11.81
412	1	1	-0.133912	-7.539	1.462	11.808
413	1	1	-0.153686	-8.8730001	1.816	12.482
414	1	1	0.084022999	-9.2010002	3.302	12.328
415	1	4	-0.47138801	-8.2670002	4.0700002	13.059
416	1	1	0.089576997	-8.4519997	5.441	12.777
417	1	1	0.16337401	-7.5799999	6.2820001	13.716
418	1	1	0.098407	-8.099	6.191	15.163
419	1	2	-0.671193	-7.2020001	6.8039999	16.049999
420	1	3	0.40094399	-7.4710002	7.757	16.121
421	1	7	0.106358	-9.1120005	6.6529999	15.24
422	1	7	0.106358	-8.1969995	5.1240001	15.459
423	1	4	-0.48797801	-7.6069999	7.638	13.266
424	1	5	0.78886998	-6.5739999	8.5530005	13.493
425	1	6	-0.57896698	-5.507	8.2060003	14.067
426	1	7	0.116205	-6.5419998	5.8839998	13.666
427	1	7	0.103812	-9.5170002	5.7470002	12.9
428	1	7	0.103812	-8.1389999	5.651	11.729
429	1	7	0.093841001	-10.226	3.474	12.729
430	1	7	0.093841001	-9.1929998	3.5650001	11.245
431	1	8	0.10518	-8.8269997	1.575	13.564
432	1	8	0.10518	-9.691	1.22	12.021
433	1	8	0.099197	-6.7049999	2.003	12.307
434	1	8	0.099197	-7.5700002	1.802	10.749
435	1	8	0.099197	-8.0930004	-0.597	11.33
436	1	8	0.099197	-6.3629999	-0.21600001	11.163
437	1	8	0.10518	-6.0700002	-1.3049999	13.128
438	1	8	0.10518	-6.6360002	0.198	13.91
439	1	7	0.093841001	-8.4090004	-2.2390001	13.143
440	1	7	0.093841001	-9.0030003	-0.72899997	13.871
441	1	7	0.10566	-6.5019999	-3.158	15.961
442	1	7	0.10566	-6.7059999	-3.3740001	14.21
443	1	9	-0.43619701	-2.033	6.7690001	15.327
444	1	10	0.33039299	-1.89	7.2820001	16.228001
445	1	1	0.094011001	-1.488	7.585	14.247
446	1	5	-0.230342	-2.335	8.8109999	14.053
447	1	5	-0.29375601	-3.447	8.7639999	13.298
448	1	5	-0.230342	-4.2989998	9.9680004	13.137
449	1	1	0.094011001	-5.5539999	9.8929996	12.313
450	1	9	-0.43785501	-6.6900001	9.559	13.165
451	1	10	0.33039299	-7.5500002	9.5799999	12.571
452	1	7	0.048764002	-5.441	9.1269999	11.512
453	1	7	0.048764002	-5.7399998	10.87	11.814
454	1	5	-0.281598	-3.9719999	11.1	13.785
455	1	5	-0.227277	-2.76	11.152	14.627
456	1	5	-0.281598	-1.985	10.069	14.756
457	1	11	0.211862	-1.101	10.115	15.381
458	1	11	0.214589	-2.503	12.068	15.143
459	1	11	0.211862	-4.5939999	11.983	13.704
460	1	11	0.205442	-3.7309999	7.842	12.803
461	1	7	0.048762999	-1.464	6.9879999	13.308
462	1	7	0.048762999	-0.43900001	7.875	14.483
463	1	1	0.142682	-1.415	2.6960001	15.439
464	1	2	-0.69306099	-2.8039999	2.4779999	15.44
465	1	3	0.42162901	-3.0469999	2.0840001	16.318001
466	1	1	0.095096	-1.028	3.7119999	16.528
467	1	4	-0.481071	-1.752	4.9320002	16.368999
468	1	5	0.79281902	-1.449	5.882	15.389
469	1	6	-0.56967598	-0.49200001	5.71	14.584
470	1	7	0.116042	0.066	3.918	16.503
471	1	7	0.116042	-1.268	3.2920001	17.528999
472	1	7	0.108269	-1.141	3.1170001	14.448
473	1	1	0.049718998	-0.66500002	1.364	15.617
474	1	4	-0.46906501	0.73400003	1.559	15.51
475	1	1	0.08405	1.1950001	1.302	14.195
476	1	1	-0.153686	1.66	-0.156	14.076
477	1	1	-0.133912	2.266	-0.47299999	12.692
478	1	1	-0.133912	3.802	-0.56099999	12.699
479	1	1	-0.153686	4.474	0.80299997	12.917
480	1	1	0.084022999	5.994	0.708	12.766
481	1	4	-0.47138801	6.5240002	-0.074000001	13.815
482	1	1	0.089576997	7.895	-0.317	13.584
483	1	1	0.16337401	8.5150003	-0.98900002	14.815
484	1	1	0.098407	8.5699997	-0.0060000001	15.998
485	1	2	-0.671193	8.9619999	-0.66500002	17.172001
486	1	3	0.40094399	9.9519997	-0.61500001	17.215
487	1	7	0.106358	9.2629995	0.838	15.767
488	1	7	0.106358	7.5619998	0.43000001	16.171
489	1	4	-0.48797801	9.8319998	-1.429	14.476
490	1	5	0.78886998	10.474	-2.5050001	15.095
491	1	6	-0.57896698	9.8879995	-3.2060001	15.964
492	1	7	0.116205	7.8779998	-1.8609999	15.083
493	1	7	0.103812	8.4499998	0.62599999	13.368
494	1	7	0.103812	8.0100002	-1.005	12.716
495	1	7	0.093841001	6.4120002	1.739	12.816
496	1	7	0.093841001	6.2319999	0.27399999	11.767
497	1	8	0.10518	4.244	1.182	13.933
498	1	8	0.10518	4.086	1.531	12.171
499	1	8	0.099197	4.1329999	-1.277	13.483
500	1	8	0.099197	4.1240001	-0.96799999	11.716
501	1	8	0.099197	1.9299999	0.25799999	11.924
502	1	8	0.099197	1.881	-1.465	12.366
503	1	8	0.10518	0.77999997	-0.81699997	14.236
504	1	8	0.10518	2.3859999	-0.38299999	14.889
505	1	7	0.093841001	0.43599999	1.538	13.412
506	1	7	0.093841001	2.053	1.978	14.004
507	1	7	0.10566	-0.87699997	0.96200001	16.631001
508	1	7	0.10566	-1.061	0.60600001	14.902
509	1	9	-0.62082303	7.6760001	-5.619	18.201
510	1	10	0.373319	8.1520004	-5.5630002	19.131001
511	1	1	0.093897	8.323	-6.6690001	17.421
512	1	5	-0.25974101	9.7139997	-6.2449999	17.042999
513	1	5	-0.26457399	9.9250002	-5.474	15.961
514	1	5	-0.222628	11.297	-5.0279999	15.611
515	1	1	0.094011001	11.514	-4.1440001	14.414
516	1	9	-0.43785501	11.474	-2.743	14.817
517	1	10	0.33039299	11.694	-2.1630001	13.975
518	1	7	0.048764002	10.734	-4.3410001	13.645
519	1	7	0.048764002	12.5	-4.368	13.951
520	1	5	-0.281598	12.325	-5.368	16.407
521	1	5	-0.217379	12.096	-6.2020001	17.604
522	1	5	-0.25395599	10.86	-6.6160002	17.908001
523	1	11	0.21363799	10.7	-7.2210002	18.791
524	1	11	0.214589	12.93	-6.4720001	18.238001
525	1	11	0.211862	13.331	-5.0320001	16.184999
526	1	11	0.207489	9.0930004	-5.1690001	15.338
527	1	7	0.085019	7.7249999	-6.8699999	16.504
528	1	7	0.085019	8.3559999	-7.6129999	18.01
529	1	1	0.098838001	-8.9720001	5.8369999	-0.597
530	1	2	-0.671193	-9.5760002	4.5869999	-0.41600001
531	1	3	0.40094399	-10.272	4.7049999	0.28200001
532	1	1	0.174338	-8.0240002	6.1609998	0.57200003
533	1	4	-0.50384098	-6.9790001	5.1880002	0.64099997
534	1	5	0.63699698	-7.085	3.977	1.334
535	1	6	-0.509763	-8.132	3.6760001	1.969
536	1	7	0.108999	-8.6000004	6.1690001	1.525
537	1	1	0.088720001	-7.3829999	7.5440001	0.38800001
538	1	4	-0.47138801	-8.3690004	8.5629997	0.361
539	1	1	0.084022999	-8.5769997	9.1199999	1.648
540	1	1	-0.153686	-7.6529999	10.321	1.89
541	1	1	-0.133912	-7.8990002	11.447	0.87300003
542	1	1	-0.133912	-6.8860002	12.599	1.005
543	1	1	-0.154548	-7.0190001	13.431	2.2969999
544	1	1	0.088825002	-8.3030005	14.266	2.3640001
545	1	4	-0.46996599	-8.3559999	15.146	1.257
546	1	1	0.14362501	-9.4589996	16.025999	1.367
547	1	1	0.208937	-9.0200005	17.355	1.994
548	1	1	0.167941	-10.147	18.427	1.954
549	1	4	-0.38401899	-9.6079998	19.497999	1.1900001
550	1	5	0.80982101	-8.3330002	19.166	0.79699999
551	1	4	-0.38297799	-7.9520001	17.923	1.244
552	1	6	-0.37753201	-7.605	19.907	0.086999997
553	1	7	0.15542001	-10.384	18.783001	2.98
554	1	7	0.15542001	-11.077	18.055	1.469
555	1	7	0.16929001	-8.6859999	17.194	3.043
556	1	7	0.108463	-9.8339996	16.225	0.33899999
557	1	7	0.108463	-10.316	15.596	1.939
558	1	7	0.094690003	-9.1890001	13.595	2.3770001
559	1	7	0.094690003	-8.2840004	14.836	3.3210001
560	1	8	0.10518	-6.9549999	12.776	3.1919999
561	1	8	0.10518	-6.151	14.125	2.3510001
562	1	8	0.099197	-5.8569999	12.179	0.95899999
563	1	8	0.099197	-6.9910002	13.269	0.125
564	1	8	0.099197	-7.796	11.032	-0.153
565	1	8	0.099197	-8.9379997	11.825	0.96600002
566	1	8	0.10518	-7.8460002	10.696	2.9159999
567	1	8	0.10518	-6.5939999	9.9910002	1.8380001
568	1	7	0.093841001	-9.632	9.4639997	1.7079999
569	1	7	0.093841001	-8.4519997	8.375	2.47
570	1	7	0.103812	-6.6069999	7.7059999	1.173
571	1	7	0.103812	-6.8410001	7.5640001	-0.58200002
572	1	7	0.106358	-8.3959999	5.816	-1.548
573	1	7	0.106358	-9.757	6.6230001	-0.69400001
574	1	9	-0.62082303	6.6919999	-5.921	18.388
575	1	10	0.373319	6.7280002	-6.7090001	19.075001
576	1	1	0.093897	6.105	-6.408	17.142
577	1	5	-0.252069	6.8990002	-7.5619998	16.584999
578	1	5	-0.25395599	7.9320002	-7.3449998	15.752
579	1	5	-0.207415	8.7299995	-8.4799995	15.245
580	1	5	-0.254592	8.434	-9.7299995	15.619
581	1	5	-0.27904999	7.3010001	-9.9849997	16.542
582	1	5	-0.236407	6.585	-8.948	17.011
583	1	11	0.209353	5.7729998	-9.1169996	17.709
584	1	1	0.097200997	7.0089998	-11.391	16.999001
585	1	9	-0.96425802	7.7550001	-11.714	18.212999
586	1	10	0.39167699	8.7770004	-11.593	18.023001
587	1	10	0.39167699	7.4889998	-11.034	18.962999
588	1	7	0.073100001	5.921	-11.519	17.191999
589	1	7	0.073100001	7.2839999	-12.113	16.200001
590	1	11	0.21363799	9.0279999	-10.555	15.248
591	1	11	0.214589	9.5579996	-8.2969999	14.574
592	1	11	0.21363799	8.1960001	-6.3400002	15.448
593	1	7	0.085019	5.0580001	-6.7290001	17.333
594	1	7	0.085019	6.0599999	-5.5760002	16.406

Bonds

1	1	1	2
2	2	1	4
3	3	1	10
4	2	1	11
5	4	2	3
6	5	4	5
7	3	4	8
8	3	4	9
9	6	5	6
10	7	6	7
11	8	6	534
12	5	11	12
13	3	11	45
14	3	11	46