Title

14500 atoms
14375 bonds
27000 angles
49000 dihedrals
2250 impropers

11 atom types
14 bond types
9 angle types
35 dihedral types
3 improper types
-14.98223178 160.8256372 xlo xhi
-17.02299975 161.368688 ylo yhi
-17.06766196 161.1893956 zlo zhi
0.0 0.0 0.0 xy xz yz

Masses

1	12.01078
2	15.99943
3	14.00672
4	12.01078
5	1.007947
6	1.007947
7	1.007947
8	15.99943
9	12.01078
10	15.99943
11	1.007947


Pair Coeffs

1	0.086879315	3.4806469
2	0.2102061	3.0398122
3	0.16769152	3.206876
4	0.10884061	3.3795318
5	0.014090815	1.1034277
6	0.016409246	2.5832257
7	0.015779483	2.6445434
8	0.16846514	3.0251065
9	0.21	3.3996695
10	0.20947353	2.99716
11	1.2326e-05	0.53453923

Bond Coeffs

1 harmonic	582.698766451	1.225198386222
2 harmonic	492.76746816345	1.381897776683
3 harmonic	279.1350963404	1.454628925034
4 harmonic	352.0565580496	1.450098586273
5 harmonic	505.144496193	1.019481865027
6 harmonic	264.62148576755	1.52190126495
7 harmonic	370.04670688625	1.093899492634
8 harmonic	301.15400723785	1.345741232799
9 harmonic	366.7408841747	1.425895053732
10 harmonic	300.03137914615	1.451203938761
11 harmonic	366.34047229585	1.464762957261
12 harmonic	602.81384337	1.196112346392
13 harmonic	329.96998057905	1.427343958716
14 harmonic	543.5267831885	0.9716763312559


Angle Coeffs

1 harmonic	55.42182150775	117.3465570514
2 harmonic	63.44422595415	115.5071327674
3 harmonic	57.8982893754	126.8062420451
4 harmonic	53.20531626545	116.5475862634
5 harmonic	65.09061609600001	110.3538806181
6 harmonic	201.41175231035	127.4691416191
7 harmonic	48.776492647595	115.6030999533
8 harmonic	55.07882548015	112.8714009681
9 harmonic	33.56981613361	180


Dihedral Coeffs

1 fourier 1	-0.1488678166443	4	180
2 fourier 1	-0.1230328948768	3	180
3 fourier 1	0.2939295466901	2	0
4 fourier 1	-0.3024127022865	1	0
5 fourier 1	0.182238503271	2	0
6 fourier 1	0.02972342374561	3	0
7 fourier 1	1.809047390003	2	180
8 fourier 1	-0.04816277792592	1	0
9 fourier 1	3.101948770557	2	180
10 fourier 1	-0.4252153282372	1	0
11 fourier 1	2.348375642009	2	180
12 fourier 1	1.256156174911	1	0
13 fourier 1	0.9974165607242	2	180
14 fourier 1	0.1155372516788	3	0
15 fourier 1	0.09223874044423	3	0
16 fourier 1	0.3159935921949	2	180
17 fourier 1	0.3247796806857	1	180
18 fourier 1	0.1040663847541	3	0
19 fourier 1	2.779853741805	2	180
20 fourier 1	0.1918272375143	3	0
21 fourier 1	0.9202179876409	1	180
22 fourier 1	0.0473758381877	3	0
23 fourier 1	0.4860993122944	2	180
24 fourier 1	0.8916986138746	1	0
25 fourier 1	1.163809172478	2	180
26 fourier 1	0.1679186987369	1	180
27 fourier 1	0.1911926717192	3	0
28 fourier 1	0.1115525666802	3	0
29 fourier 1	0.3432490222662	1	0
30 fourier 1	0.457973137376	1	0
31 fourier 1	-1.382973039546	1	0
32 fourier 1	0	1	0
33 fourier 1	0.3445382149273	3	0
34 fourier 1	0.1364556373303	1	0
35 fourier 1	0.3026390167484	3	0


Improper Coeffs

1 0.3333333333333333	-1	2
2 0.3666666666666667	-1	2
3 3.5	-1	2


Atoms

1	6	1	0.54220046	1.2147677	-1.6005038	-7.0188114
2	6	2	-0.69144802	1.8969334	-2.6055199	-6.6829487
3	6	3	-0.52321242	1.1729116	-0.43441971	-6.1927685
4	6	4	0.030397713	1.9143385	-0.35869448	-4.9347125
5	6	4	-0.14620465	1.692156	0.99372383	-4.2502144
6	6	4	-0.14278871	2.4548612	1.0716508	-2.9189574
7	6	4	-0.14278871	2.4131093	2.4730062	-2.283926
8	6	4	-0.14492174	1.0062586	2.9784852	-1.9154818
9	6	4	0.0245597	0.30544199	2.0974706	-0.87259951
10	6	3	-0.46707319	-0.94509037	2.7122559	-0.42960524
11	6	1	0.78523154	-1.7816841	2.0897898	0.54925938
12	6	2	-0.61456476	-1.4598907	0.98542119	1.0636016
13	6	5	0.32468064	-1.2570989	3.6269348	-0.8288472
14	6	6	0.055258294	0.076540587	1.1045851	-1.3133755
15	6	6	0.055258294	0.97386451	1.9579901	0.0052054341
16	6	7	0.086997164	0.37503815	3.0639091	-2.8252068
17	6	7	0.086997164	1.1154384	4.0024691	-1.4981071
18	6	7	0.085825396	3.0418475	2.4633244	-1.3661404
19	6	7	0.085825396	2.8773753	3.1984415	-2.9858026
20	6	7	0.085825396	2.0593899	0.31393172	-2.2091404
21	6	7	0.085825396	3.5217089	0.81822614	-3.1021893
22	6	7	0.086997164	0.60467138	1.1220297	-4.0657994
23	6	7	0.086997164	2.0398956	1.8061409	-4.9264633
24	6	6	0.05170709	2.9977649	-0.49691956	-5.1418021
25	6	6	0.05170709	1.5718719	-1.1748045	-4.2603498
26	6	5	0.31809701	0.59276906	0.37374699	-6.5143617
27	7	8	-0.49851586	-2.663562	2.5509521	0.84075151
28	7	4	0.11398539	-3.4940188	1.5429196	1.3505289
29	7	4	-0.1389549	-3.0401548	1.145476	2.7575812
30	7	4	-0.14002802	-3.9504812	0.05633222	3.3444351
31	7	4	-0.14123011	-3.6084476	-0.27554721	4.8051371
32	7	4	-0.13990455	-2.2657629	-1.0125404	4.9438594
33	7	4	-0.13990455	-2.0320253	-1.55973	6.3637753
34	7	4	-0.14117958	-1.9993794	-0.4925497	7.4761598
35	7	4	-0.13875744	-0.96983644	0.63322098	7.2696371
36	7	4	-0.14494436	0.47604924	0.11552627	7.2081327
37	7	4	0.035590497	1.49269	1.2598249	7.200183
38	7	8	-0.16900555	1.3968088	2.0001459	6.0112669
39	7	6	0.085003582	1.3578197	1.9120242	8.093693
40	7	6	0.085003582	2.5140994	0.82757489	7.2585953
41	7	7	0.09201203	0.62386333	-0.4980709	6.2943168
42	7	7	0.09201203	0.67507997	-0.52584994	8.0940651
43	7	7	0.087004428	-1.0635057	1.3366692	8.1255037
44	7	7	0.087004428	-1.212583	1.2070031	6.3503585
45	7	7	0.085054328	-3.007549	-0.03948016	7.5810027
46	7	7	0.085054328	-1.7827708	-1.0006866	8.4419628
47	7	7	0.085054328	-1.0794812	-2.1314158	6.3738322
48	7	7	0.085054328	-2.8359543	-2.2889098	6.6032224
49	7	7	0.085054328	-2.2535769	-1.875873	4.2442728
50	7	7	0.085054328	-1.4256934	-0.34902219	4.6556637
51	7	7	0.085054328	-4.4175858	-0.92082274	5.2098293
52	7	7	0.085054328	-3.5947197	0.66383037	5.3985933
53	7	7	0.08682738	-3.8877406	-0.86482058	2.7233666
54	7	7	0.08682738	-5.0040769	0.41158911	3.311793
55	7	7	0.090912653	-1.9952641	0.77374272	2.702185
56	7	7	0.090912653	-3.0623109	2.0452331	3.4120583
57	7	6	0.085036439	-4.5336664	1.9326624	1.3911545
58	7	6	0.085036439	-3.4836566	0.65650891	0.67618275
59	4	1	0.54220052	0.65468287	-1.6226731	-7.943683
60	4	2	-0.69144808	0.55583977	-0.57313183	-8.6329312
61	4	3	-0.52321248	0.028325914	-2.8399671	-8.3632941
62	4	4	0.030397716	-0.74590587	-2.9464807	-9.5987025
63	4	4	-0.14620465	0.18657701	-3.0010468	-10.813051
64	4	4	-0.14260417	-0.61567625	-3.1349064	-12.116731
65	4	4	-0.1383981	0.28363327	-3.3246475	-13.348437
66	4	4	-0.12259088	1.0431642	-2.0438635	-13.730037
67	4	4	0.18379697	1.8542085	-2.2235969	-15.022915
68	4	3	-0.64964263	0.98999098	-2.4597443	-16.176027
69	4	9	0.5929311	0.21007808	-1.5616753	-16.628782
70	4	2	-0.47645258	-0.54969466	-0.68824066	-17.067662
71	4	6	0.03053853	2.476808	-1.3191991	-15.201508
72	4	6	0.03053853	2.5428664	-3.087542	-14.907989
73	4	7	0.080640545	1.7540875	-1.777447	-12.919473
74	4	7	0.080640545	0.33097457	-1.199187	-13.851287
75	4	7	0.084546742	1.0035579	-4.1523937	-13.165547
76	4	7	0.084546742	-0.36643184	-3.6272821	-14.198416
77	4	7	0.085825396	-1.2805631	-4.0218736	-12.038528
78	4	7	0.085825396	-1.2623149	-2.240802	-12.256473
79	4	7	0.086997164	0.79627271	-2.0745488	-10.843014
80	4	7	0.086997164	0.87009914	-3.8720299	-10.704535
81	4	6	0.05170709	-1.4429688	-2.0833968	-9.6808324
82	4	6	0.05170709	-1.3541814	-3.87589	-9.5627816
83	4	5	0.31809704	0.078929435	-3.6675424	-7.727628
84	5	8	-0.16900555	0.73653903	2.7226423	6.1752354
85	5	4	0.035590497	-0.42831308	2.1038207	6.6475873
86	5	4	-0.14494436	-0.25661063	1.6994921	8.1143257
87	5	4	-0.13875744	-1.5309811	1.0370737	8.6569275
88	5	4	-0.14117958	-1.444752	0.73802705	10.161574
89	5	4	-0.13990455	-0.45456537	-0.39532361	10.482661
90	5	4	-0.13990455	-0.53998963	-0.86409791	11.9463
91	5	4	-0.14117958	-0.23215314	0.22207838	12.997682
92	5	4	-0.13467218	1.1346562	0.91205769	12.841392
93	5	4	-0.1668682	2.3133909	-0.067735349	12.962152
94	5	4	0.088890982	3.6599445	0.66128859	13.000437
95	5	10	-0.68094991	3.9216178	1.283954	11.771697
96	5	11	0.38355358	3.540343	2.1987581	11.824848
97	5	6	0.076083456	3.6844956	1.3954561	13.838774
98	5	6	0.076083456	4.4604811	-0.08504334	13.190969
99	5	7	0.094367576	2.314908	-0.77208983	12.1028
100	5	7	0.094367576	2.2058386	-0.65938506	13.897785
101	5	7	0.087004428	1.2193977	1.6764451	13.643565
102	5	7	0.087004428	1.1804089	1.4512119	11.872353
103	5	7	0.085054328	-1.0289908	0.99654344	12.969707
104	5	7	0.085054328	-0.28442104	-0.24305774	14.006116
105	5	7	0.085054328	0.15230451	-1.720398	12.088764
106	5	7	0.085054328	-1.5634587	-1.254908	12.137393
107	5	7	0.085054328	-0.68420824	-1.269191	9.8348895
108	5	7	0.085054328	0.58442842	-0.082119913	10.250456
109	5	7	0.085054328	-2.4573913	0.44096971	10.512189
110	5	7	0.085054328	-1.1571986	1.6646644	10.702511
111	5	7	0.087004428	-1.738963	0.099363736	8.0971556
112	5	7	0.087004428	-2.391059	1.7238618	8.4944551
113	5	7	0.09201203	0.59666071	0.99386901	8.1896722
114	5	7	0.09201203	-0.020873928	2.6066874	8.7128213
115	5	6	0.085003582	-1.2705413	2.8231354	6.55616
116	5	6	0.085003582	-0.66899841	1.2106047	6.0253833
117	6	1	0.54220046	0.96743558	-7.0862265	32.71431
118	6	2	-0.69144802	-0.28013323	-7.2629404	32.690745
119	6	3	-0.52321242	1.5506505	-6.0931683	33.561391
120	6	4	0.030397713	0.73152592	-5.2485866	34.429648
121	6	4	-0.14620465	1.6049115	-4.2721684	35.223841
122	6	4	-0.14278871	0.74747418	-3.3701753	36.124533
123	6	4	-0.14278871	1.5869987	-2.499956	37.076753
124	6	4	-0.14492174	2.5366491	-1.5064232	36.382818
125	6	4	0.0245597	1.7994722	-0.47420925	35.519083
126	6	3	-0.46707319	2.7240582	0.54593324	35.026654
127	6	1	0.78523154	2.2788341	1.6277851	34.203914
128	6	2	-0.61456476	1.0658166	1.7340931	33.879852
129	6	5	0.32468064	3.7409913	0.49994586	35.265637
130	6	6	0.055258294	1.3314699	-0.9795119	34.648368
131	6	6	0.055258294	1.0045093	0.015619695	36.123141
132	6	7	0.086997164	3.2842294	-2.0506513	35.767777
133	6	7	0.086997164	3.0982316	-0.96795821	37.176131
134	6	7	0.085825396	0.89540429	-1.9320839	37.737778
135	6	7	0.085825396	2.1882453	-3.1646812	37.733314
136	6	7	0.085825396	0.08362617	-2.7323688	35.502533
137	6	7	0.085825396	0.088283583	-4.0111216	36.749527
138	6	7	0.086997164	2.1783107	-3.6474521	34.506877
139	6	7	0.086997164	2.3212893	-4.8497725	35.849487
140	6	6	0.05170709	0.161648	-5.8939804	35.132862
141	6	6	0.05170709	0.010414693	-4.6755248	33.805402
142	6	5	0.31809701	2.5903973	-5.9845277	33.545738
143	7	8	-0.49851586	2.9603399	2.3341298	33.869289
144	7	4	0.11398539	2.4044823	2.9154979	32.720944
145	7	4	-0.1389549	1.3089128	3.911468	33.110201
146	7	4	-0.14002802	0.70050265	4.5770569	31.866757
147	7	4	-0.14123011	-0.30989368	5.6789615	32.22128
148	7	4	-0.13990455	-1.607002	5.1172485	32.827245
149	7	4	-0.13990455	-2.7111784	6.1819617	32.95912
150	7	4	-0.14117958	-2.3556907	7.3811517	33.860736
151	7	4	-0.13875744	-1.9314418	7.0155385	35.29472
152	7	4	-0.14494436	-3.0328195	6.2783771	36.073139
153	7	4	0.035590497	-2.6672461	6.099228	37.548707
154	7	8	-0.16900555	-1.577205	5.2254612	37.687026
155	7	6	0.085003582	-2.4572474	7.084895	38.024391
156	7	6	0.085003582	-3.5369094	5.6559805	38.078562
157	7	7	0.09201203	-3.2116993	5.277266	35.626833
158	7	7	0.09201203	-3.9781239	6.8602973	36.01296
159	7	7	0.087004428	-1.6879817	7.961571	35.825634
160	7	7	0.087004428	-1.0024633	6.4074515	35.273407
161	7	7	0.085054328	-1.5420294	7.9693289	33.386739
162	7	7	0.085054328	-3.2398414	8.0546465	33.911532
163	7	7	0.085054328	-3.6334443	5.6945054	33.341322
164	7	7	0.085054328	-2.9590159	6.5679247	31.946722
165	7	7	0.085054328	-1.9941297	4.3108292	32.167902
166	7	7	0.085054328	-1.408165	4.659897	33.817358
167	7	7	0.085054328	-0.55694632	6.2318561	31.289543
168	7	7	0.085054328	0.16475744	6.3956668	32.925445
169	7	7	0.08682738	0.21223323	3.8088867	31.226684
170	7	7	0.08682738	1.5172013	5.0404779	31.27045
171	7	7	0.090912653	0.51918799	3.3694447	33.671981
172	7	7	0.090912653	1.7469727	4.6889604	33.775034
173	7	6	0.085036439	3.2112441	3.4458972	32.171191
174	7	6	0.085036439	1.9905289	2.1276661	32.051215
175	4	1	0.54220052	1.6028367	-7.6943075	32.084963
176	4	2	-0.69144808	2.7312694	-8.0570855	32.510876
177	4	3	-0.52321248	1.155292	-8.0679569	30.777182
178	4	4	0.030397716	1.958366	-8.8854871	29.869586
179	4	4	-0.14620465	1.9312699	-10.354197	30.304674
180	4	4	-0.14260417	2.7548508	-11.22717	29.345121
181	4	4	-0.1383981	2.6480065	-12.725738	29.668751
182	4	4	-0.12259088	3.3971338	-13.108596	30.955274
183	4	4	0.18379697	3.36695	-14.624617	31.20507
184	4	3	-0.64964263	4.0833643	-15.359122	30.166051
185	4	9	0.5929311	5.3451609	-15.269751	30.025833
186	4	2	-0.47645258	6.5723966	-15.18103	29.888796
187	4	6	0.03053853	3.8160647	-14.848126	32.197945
188	4	6	0.03053853	2.3123484	-14.972684	31.227957
189	4	7	0.080640545	2.9181669	-12.613053	31.826154
190	4	7	0.080640545	4.4513973	-12.760728	30.901325
191	4	7	0.084546742	1.5781568	-13.018126	29.751424
192	4	7	0.084546742	3.0842948	-13.288177	28.814378
193	4	7	0.085825396	2.3805418	-11.072999	28.310217
194	4	7	0.085825396	3.8212369	-10.911896	29.367805
195	4	7	0.086997164	2.3444039	-10.435165	31.331216
196	4	7	0.086997164	0.87643737	-10.707383	30.318035
197	4	6	0.05170709	3.0034433	-8.5049212	29.846369
198	4	6	0.05170709	1.5399059	-8.8003516	28.843558
199	4	5	0.31809704	0.24246353	-7.6885797	30.439055
200	5	8	-0.16900555	-0.75663094	5.7827145	37.65588
201	5	4	0.035590497	-0.83092991	6.543349	36.481635
202	5	4	-0.14494436	-1.8131955	7.7037996	36.662725
203	5	4	-0.13875744	-1.8936482	8.5620256	35.392209
204	5	4	-0.14117958	-2.7673632	9.811926	35.579818
205	5	4	-0.13990455	-4.2627028	9.4729956	35.710721
206	5	4	-0.13990455	-5.1632505	10.720069	35.654966
207	5	4	-0.14117958	-4.9077552	11.758851	36.766541
208	5	4	-0.13467218	-5.007274	11.214777	38.202767
209	5	4	-0.1668682	-6.400226	10.652867	38.531301
210	5	4	0.088890982	-6.5374118	10.298799	40.015203
211	5	10	-0.68094991	-5.7019626	9.2228457	40.347371
212	5	11	0.38355358	-4.8307806	9.6089816	40.624866
213	5	6	0.076083456	-6.3231148	11.18828	40.651846
214	5	6	0.076083456	-7.5887121	9.9977015	40.210859
215	5	7	0.094367576	-6.5964705	9.7402815	37.928575
216	5	7	0.094367576	-7.1725913	11.411624	38.276812
217	5	7	0.087004428	-4.7857824	12.054085	38.896637
218	5	7	0.087004428	-4.2305293	10.44009	38.371129
219	5	7	0.085054328	-3.901766	12.20955	36.623765
220	5	7	0.085054328	-5.6403205	12.586453	36.646358
221	5	7	0.085054328	-6.2248441	10.396732	35.690874
222	5	7	0.085054328	-5.0220386	11.219356	34.671346
223	5	7	0.085054328	-4.5565321	8.8071911	34.870271
224	5	7	0.085054328	-4.4547006	8.9149319	36.650522
225	5	7	0.085054328	-2.6236393	10.468641	34.693995
226	5	7	0.085054328	-2.4196888	10.36988	36.475231
227	5	7	0.087004428	-2.2824323	7.9532415	34.547147
228	5	7	0.087004428	-0.86906863	8.8998111	35.120278
229	5	7	0.09201203	-2.813929	7.2869895	36.900327
230	5	7	0.09201203	-1.4772467	8.3299144	37.518231
231	5	6	0.085003582	0.18113265	6.9441702	36.257597
232	5	6	0.085003582	-1.1442087	5.9008614	35.626084
233	6	1	0.54220046	-1.6144761	1.9579108	75.207013
234	6	2	-0.69144802	-0.9248246	3.0052443	75.081776
235	6	3	-0.52321242	-1.2657611	0.76289467	74.50403
236	6	4	0.030397713	-0.10354345	0.70539942	73.618537
237	6	4	-0.14620465	0.037797006	-0.68554291	72.992246
238	6	4	-0.14278871	1.2472766	-0.74608616	72.046979
239	6	4	-0.14278871	1.5401797	-2.1682641	71.536662
240	6	4	-0.14492174	0.41111472	-2.8071745	70.707509
241	6	4	0.0245597	0.095242691	-2.0294027	69.422897
242	6	3	-0.46707319	-0.85404167	-2.7663198	68.589921
243	6	1	0.78523154	-1.3022166	-2.2553631	67.331513
244	6	2	-0.61456476	-0.88551895	-1.1469808	66.900722
245	6	5	0.32468064	-1.2311982	-3.689258	68.905071
246	6	6	0.055258294	-0.34786783	-1.0445323	69.68016
247	6	6	0.055258294	1.0330634	-1.8649479	68.848239
248	6	7	0.086997164	-0.50787663	-2.9134069	71.321924
249	6	7	0.086997164	0.73682294	-3.8325298	70.429614
250	6	7	0.085825396	2.4649493	-2.1379493	70.91891
251	6	7	0.085825396	1.7547662	-2.8242666	72.407319
252	6	7	0.085825396	1.0971265	-0.052267075	71.192317
253	6	7	0.085825396	2.1481851	-0.39444879	72.595319
254	6	7	0.086997164	-0.89009591	-0.91445354	72.426818
255	6	7	0.086997164	0.16004173	-1.4391975	73.801763
256	6	6	0.05170709	0.81143571	0.94467	74.202804
257	6	6	0.05170709	-0.22186564	1.4632577	72.812476
258	6	5	0.31809701	-1.8688543	-0.080140342	74.640747
259	7	8	-0.49851586	-1.9776494	-2.801758	66.765306
260	7	4	0.11398539	-2.6217037	-1.8891024	65.918008
261	7	4	-0.1389549	-1.7010993	-1.505992	64.756343
262	7	4	-0.14002802	-2.3955256	-0.52236289	63.802629
263	7	4	-0.14123011	-1.5538453	-0.2162094	62.554179
264	7	4	-0.13990455	-0.30944415	0.62889142	62.874297
265	7	4	-0.13990455	0.40244712	1.1415038	61.609129
266	7	4	-0.14117958	0.9207911	0.040844362	60.661919
267	7	4	-0.13875744	1.870465	-0.98294454	61.309951
268	7	4	-0.14494436	3.1498665	-0.33981731	61.868427
269	7	4	0.035590497	4.1632808	-1.3905023	62.328963
270	7	8	-0.16900555	3.6783349	-2.0919509	63.444125
271	7	6	0.085003582	4.4170015	-2.084486	61.494741
272	7	6	0.085003582	5.100826	-0.87370076	62.62469
273	7	7	0.09201203	2.9030778	0.31760915	62.728831
274	7	7	0.09201203	3.6232192	0.28326421	61.078769
275	7	7	0.087004428	2.1515913	-1.7229837	60.52929
276	7	7	0.087004428	1.3396808	-1.5412956	62.109787
277	7	7	0.085054328	0.05807329	-0.50156221	60.221257
278	7	7	0.085054328	1.4492242	0.52985702	59.813672
279	7	7	0.085054328	1.2488875	1.7929291	61.914824
280	7	7	0.085054328	-0.29981142	1.7888318	61.040675
281	7	7	0.085054328	-0.61799918	1.515262	63.469321
282	7	7	0.085054328	0.40358001	0.051868385	63.496929
283	7	7	0.085054328	-2.1933823	0.34103547	61.836313
284	7	7	0.085054328	-1.2560389	-1.1721191	62.072145
285	7	7	0.08682738	-2.6317579	0.42305831	64.339805
286	7	7	0.08682738	-3.3583085	-0.96625886	63.465965
287	7	7	0.090912653	-0.78046597	-1.0431981	65.170236
288	7	7	0.090912653	-1.4162433	-2.4278245	64.201838
289	7	6	0.085036439	-3.5418244	-2.3688251	65.520942
290	7	6	0.085036439	-2.9240231	-0.98084672	66.487436
291	4	1	0.54220052	-2.4805436	1.9655242	75.854657
292	4	2	-0.69144808	-2.7603033	0.9375292	76.526469
293	4	3	-0.52321248	-3.2982088	3.1385317	75.930011
294	4	4	0.030397716	-4.4843247	3.2229954	76.78031
295	4	4	-0.14620465	-4.0809113	3.4030682	78.247272
296	4	4	-0.14260417	-5.3203537	3.5148449	79.148603
297	4	4	-0.1383981	-4.9631372	3.8272524	80.610333
298	4	4	-0.12259088	-4.3184277	2.6321741	81.330785
299	4	4	0.18379697	-4.0650916	2.9292176	82.817128
300	4	3	-0.64964263	-5.3122135	3.1318903	83.549191
301	4	9	0.5929311	-6.1432005	2.1868607	83.739345
302	4	2	-0.47645258	-6.9520062	1.267591	83.922469
303	4	6	0.03053853	-3.4960073	2.0894707	83.273669
304	4	6	0.03053853	-3.4428453	3.8448289	82.908367
305	4	7	0.080640545	-3.3394392	2.3987112	80.861231
306	4	7	0.080640545	-4.9660887	1.7339369	81.235396
307	4	7	0.084546742	-4.2840887	4.7070303	80.652618
308	4	7	0.084546742	-5.9030416	4.1035082	81.136547
309	4	7	0.085825396	-5.9650085	4.3372755	78.770543
310	4	7	0.085825396	-5.9110359	2.5737711	79.09794
311	4	7	0.086997164	-3.4665707	2.5347127	78.562818
312	4	7	0.086997164	-3.4662863	4.3254772	78.342075
313	4	6	0.05170709	-5.1021066	2.3063012	76.655517
314	4	6	0.05170709	-5.0953126	4.0941525	76.459576
315	4	5	0.31809704	-3.0683358	3.9433421	75.304749
316	5	8	-0.16900555	3.1774479	-2.874577	63.095626
317	5	4	0.035590497	2.236115	-2.3770336	62.184978
318	5	4	-0.14494436	2.9177235	-2.0137574	60.862963
319	5	4	-0.13875744	1.8985459	-1.4849088	59.843732
320	5	4	-0.14117958	2.5223508	-1.235262	58.461932
321	5	4	-0.13990455	3.4827256	-0.032891301	58.456016
322	5	4	-0.13990455	3.9211131	0.37234524	57.037254
323	5	4	-0.14117958	4.6723215	-0.72109331	56.249837
324	5	4	-0.13467218	5.9236227	-1.2836207	56.947314
325	5	4	-0.1668682	6.9934946	-0.2103659	57.207105
326	5	4	0.088890982	8.3016059	-0.82070507	57.719432
327	5	10	-0.68094991	8.1245094	-1.3725249	58.996193
328	5	11	0.38355358	7.8528911	-2.3183001	58.866598
329	5	6	0.076083456	8.6875266	-1.5804207	57.000884
330	5	6	0.076083456	9.0634902	-0.015265619	57.789949
331	5	7	0.094367576	6.6257896	0.52270754	57.956772
332	5	7	0.094367576	7.2053018	0.33477164	56.261067
333	5	7	0.087004428	6.3536597	-2.0668632	56.286596
334	5	7	0.087004428	5.6386464	-1.7806261	57.897889
335	5	7	0.085054328	3.9766687	-1.5602209	56.031982
336	5	7	0.085054328	4.970977	-0.29979587	55.265289
337	5	7	0.085054328	4.5575541	1.2796444	57.104841
338	5	7	0.085054328	3.020293	0.66554566	56.454764
339	5	7	0.085054328	2.9692756	0.84106906	58.912689
340	5	7	0.085054328	4.3773139	-0.24596617	59.077172
341	5	7	0.085054328	1.6975946	-1.0403461	57.741934
342	5	7	0.085054328	3.0528222	-2.1527876	58.129212
343	5	7	0.087004428	1.433854	-0.54875959	60.222661
344	5	7	0.087004428	1.0881518	-2.2372725	59.721179
345	5	7	0.09201203	3.6879083	-1.2400168	61.062446
346	5	7	0.09201203	3.4205601	-2.9185491	60.456417
347	5	6	0.085003582	1.4710268	-3.1628529	62.005398
348	5	6	0.085003582	1.7207477	-1.4857131	62.612583
349	6	1	0.54220046	-0.33464982	7.0340497	100.61582
350	6	2	-0.69144802	-1.4672261	6.8488941	100.09505
351	6	3	-0.52321242	0.64125464	5.9895391	100.63725
352	6	4	0.030397713	0.36939857	4.6739403	100.0598
353	6	4	-0.14620465	1.5779957	3.746391	100.22068
354	6	4	-0.14278871	1.2910679	2.3569723	99.631424
355	6	4	-0.14278871	2.5331052	1.4484962	99.602793
356	6	4	-0.14492174	3.1375485	1.1294723	100.98242
357	6	4	0.0245597	2.169045	0.37417764	101.90245
358	6	3	-0.46707319	2.844367	-0.056552404	103.12575
359	6	1	0.78523154	2.157578	-0.79008678	104.14348
360	6	2	-0.61456476	0.94097219	-1.0904469	104.01163
361	6	5	0.32468064	3.8527503	0.17092199	103.28322
362	6	6	0.055258294	1.3213831	1.0357222	102.17873
363	6	6	0.055258294	1.7725588	-0.51886697	101.37136
364	6	7	0.086997164	3.4828827	2.0610908	101.47857
365	6	7	0.086997164	4.0358415	0.4965151	100.8178
366	6	7	0.085825396	2.2600981	0.49332579	99.101942
367	6	7	0.085825396	3.3146252	1.9296437	98.976572
368	6	7	0.085825396	0.46753379	1.8677902	100.19433
369	6	7	0.085825396	0.93997872	2.4780256	98.583547
370	6	7	0.086997164	1.8100227	3.6527128	101.30257
371	6	7	0.086997164	2.4543717	4.1963526	99.703229
372	6	6	0.05170709	0.13273152	4.7921707	98.98007
373	6	6	0.05170709	-0.51089062	4.2260448	100.57221
374	6	5	0.31809701	1.5663038	6.1917735	101.08054
375	7	8	-0.49851586	2.6647575	-1.0793394	105.00048
376	7	4	0.11398539	1.6948509	-1.2762381	105.99354
377	7	4	-0.1389549	0.97197732	-2.6070867	105.76983
378	7	4	-0.14002802	-0.081342594	-2.8535255	106.86029
379	7	4	-0.14123011	-0.73630074	-4.2387667	106.74664
380	7	4	-0.13990455	-1.6569584	-4.3572388	105.52044
381	7	4	-0.13990455	-2.4987659	-5.6462103	105.53157
382	7	4	-0.14117958	-1.6851189	-6.9559038	105.52702
383	7	4	-0.13875744	-0.68678213	-7.0992211	104.36394
384	7	4	-0.14494436	-1.3686309	-7.0800109	102.9866
385	7	4	0.035590497	-0.38965272	-7.4189134	101.85975
386	7	8	-0.16900555	0.57613315	-6.4094845	101.72154
387	7	6	0.085003582	0.086017032	-8.4109898	102.03705
388	7	6	0.085003582	-0.95600814	-7.4903188	100.90703
389	7	7	0.09201203	-1.8045131	-6.0776788	102.78975
390	7	7	0.09201203	-2.1923127	-7.8264891	102.9735
391	7	7	0.087004428	-0.15936038	-8.0697838	104.49026
392	7	7	0.087004428	0.08356521	-6.3015468	104.42315
393	7	7	0.085054328	-1.1324013	-7.0489453	106.48542
394	7	7	0.085054328	-2.3973902	-7.8099375	105.49247
395	7	7	0.085054328	-3.1819767	-5.6340745	104.65558
396	7	7	0.085054328	-3.1480864	-5.6419044	106.43362
397	7	7	0.085054328	-2.3596908	-3.496422	105.51181
398	7	7	0.085054328	-1.0666138	-4.304056	104.58359
399	7	7	0.085054328	-1.3359254	-4.4122358	107.666
400	7	7	0.085054328	0.057765665	-5.0151463	106.70788
401	7	7	0.08682738	-0.86237261	-2.0620703	106.81815
402	7	7	0.08682738	0.40939473	-2.7875971	107.85637
403	7	7	0.090912653	0.4837016	-2.5830648	104.7728
404	7	7	0.090912653	1.7202878	-3.4307063	105.77857
405	7	6	0.085036439	2.2028362	-1.2902442	106.98155
406	7	6	0.085036439	0.96497327	-0.43489898	105.99244
407	4	1	0.54220052	-0.10026178	7.9957145	101.05152
408	4	2	-0.69144808	1.0680346	8.4545557	100.94703
409	4	3	-0.52321248	-1.117602	8.7251802	101.74658
410	4	4	0.030397716	-0.87577932	10.028656	102.3626
411	4	4	-0.14620465	-0.81308291	11.123938	101.29322
412	4	4	-0.14260417	-0.58069551	12.502444	101.93105
413	4	4	-0.1383981	-0.64152794	13.64654	100.90674
414	4	4	-0.12259088	0.57751649	13.668673	99.970606
415	4	4	0.18379697	0.55010014	14.87926	99.024374
416	4	3	-0.64964263	0.66167858	16.139404	99.753684
417	4	9	0.5929311	1.7262607	16.470858	100.36735
418	4	2	-0.47645258	2.7615201	16.791935	100.9656
419	4	6	0.03053853	1.3816303	14.797631	98.289966
420	4	6	0.03053853	-0.40281794	14.878431	98.45358
421	4	7	0.080640545	0.58298074	12.75098	99.345134
422	4	7	0.080640545	1.5160671	13.682149	100.56587
423	4	7	0.084546742	-1.5767781	13.568777	100.30995
424	4	7	0.084546742	-0.6824642	14.603879	101.47107
425	4	7	0.085825396	-1.3699569	12.682355	102.69236
426	4	7	0.085825396	0.40085397	12.51668	102.45397
427	4	7	0.086997164	0.012383943	10.894514	100.58824
428	4	7	0.086997164	-1.7708992	11.131356	100.72743
429	4	6	0.05170709	0.070960672	9.9986589	102.94599
430	4	6	0.05170709	-1.7054344	10.252755	103.06726
431	4	5	0.31809704	-2.0533409	8.2766046	101.86776
432	5	8	-0.16900555	1.3330169	-6.6528517	102.31546
433	5	4	0.035590497	0.79277135	-6.8608232	103.59132
434	5	4	-0.14494436	0.088740065	-8.2190107	103.65418
435	5	4	-0.13875744	-0.49321303	-8.4747277	105.05174
436	5	4	-0.14117958	-1.0911273	-9.8831135	105.19236
437	5	4	-0.13990455	-2.3861652	-10.058744	104.37991
438	5	4	-0.13990455	-3.1182315	-11.373696	104.70281
439	5	4	-0.14117958	-2.3104811	-12.656603	104.41709
440	5	4	-0.13467218	-1.7899579	-12.791769	102.97506
441	5	4	-0.1668682	-2.9213099	-12.824595	101.93441
442	5	4	0.088890982	-2.398455	-13.155025	100.53313
443	5	10	-0.68094991	-1.5863717	-12.119107	100.05004
444	5	11	0.38355358	-0.65771158	-12.324213	100.33391
445	5	6	0.076083456	-1.853357	-14.127273	100.53733
446	5	6	0.076083456	-3.2667616	-13.265736	99.849055
447	5	7	0.094367576	-3.4367534	-11.840909	101.89859
448	5	7	0.094367576	-3.6659597	-13.598116	102.22456
449	5	7	0.087004428	-1.2163374	-13.741472	102.91202
450	5	7	0.087004428	-1.0815732	-11.968305	102.74721
451	5	7	0.085054328	-1.4473095	-12.710215	105.11537
452	5	7	0.085054328	-2.9538446	-13.533294	104.64843
453	5	7	0.085054328	-4.0696198	-11.40328	104.13115
454	5	7	0.085054328	-3.4003062	-11.371013	105.77853
455	5	7	0.085054328	-3.0773806	-9.2210226	104.61746
456	5	7	0.085054328	-2.1734499	-10.006705	103.29199
457	5	7	0.085054328	-1.3149309	-10.056381	106.26777
458	5	7	0.085054328	-0.33527811	-10.634118	104.87829
459	5	7	0.087004428	-1.2666254	-7.7113217	105.28615
460	5	7	0.087004428	0.31959064	-8.3725671	105.80455
461	5	7	0.09201203	-0.7243237	-8.2318073	102.89892
462	5	7	0.09201203	0.82122273	-9.0164953	103.40069
463	5	6	0.085003582	1.6208414	-6.8364274	104.33215
464	5	6	0.085003582	0.079187486	-6.0427295	103.84514
465	6	1	0.54220046	2.8242205	-1.055477	130.07389
466	6	2	-0.69144802	3.7757492	-1.7156612	130.57084
467	6	3	-0.52321242	2.2112193	0.00935276	130.80479
468	6	4	0.030397713	2.6592187	0.375138	132.14779
469	6	4	-0.14620465	1.833256	1.5409589	132.70059
470	6	4	-0.14278871	2.2882483	1.9175325	134.11876
471	6	4	-0.14278871	1.6157935	3.1979647	134.64516
472	6	4	-0.14492174	0.083429932	3.1220682	134.77397
473	6	4	0.0245597	-0.38366297	2.0459122	135.76323
474	6	3	-0.46707319	-1.8270658	2.1318385	135.98058
475	6	1	0.78523154	-2.5063018	1.2410532	136.86978
476	6	2	-0.61456476	-1.8733318	0.35103927	137.49823
477	6	5	0.32468064	-2.3969721	2.8515638	135.48
478	6	6	0.055258294	-0.14411911	1.0387113	135.3624
479	6	6	0.055258294	0.13987633	2.1823057	136.73488
480	6	7	0.086997164	-0.38057725	2.950007	133.77977
481	6	7	0.086997164	-0.27333341	4.1114323	135.1325
482	6	7	0.085825396	2.0473937	3.4389578	135.64185
483	6	7	0.085825396	1.8729081	4.0415378	133.96936
484	6	7	0.085825396	2.1048544	1.0708797	134.8144
485	6	7	0.085825396	3.3855839	2.0955339	134.10727
486	6	7	0.086997164	0.76463236	1.2396163	132.71875
487	6	7	0.086997164	1.9470217	2.4198066	132.02758
488	6	6	0.05170709	3.731505	0.66560245	132.10732
489	6	6	0.05170709	2.5519618	-0.50508691	132.81994
490	6	5	0.31809701	1.4254158	0.5276332	130.34979
491	7	8	-0.49851586	-3.5314202	1.3269605	137.00054
492	7	4	0.11398539	-3.984063	0.079710484	137.45347
493	7	4	-0.1389549	-3.6411421	-0.10102381	138.93451
494	7	4	-0.14002802	-4.1477811	-1.4534272	139.45763
495	7	4	-0.14123011	-3.9401886	-1.6166168	140.97125
496	7	4	-0.13990455	-2.4580463	-1.7754036	141.34973
497	7	4	-0.13990455	-2.2605875	-2.1793233	142.82217
498	7	4	-0.14117958	-2.8132027	-1.1748045	143.85314
499	7	4	-0.13875744	-2.2719436	0.26022746	143.72012
500	7	4	-0.14494436	-0.74779875	0.3421583	143.90081
501	7	4	0.035590497	-0.25668932	1.790694	143.96078
502	7	8	-0.16900555	-0.438647	2.4276927	142.72308
503	7	6	0.085003582	-0.76916434	2.3461907	144.77975
504	7	6	0.085003582	0.82929639	1.7879492	144.1935
505	7	7	0.09201203	-0.23504454	-0.17288103	143.06103
506	7	7	0.09201203	-0.46179029	-0.16584275	144.84737
507	7	7	0.087004428	-2.7604847	0.87865676	144.50434
508	7	7	0.087004428	-2.566744	0.68874616	142.73896
509	7	7	0.085054328	-3.9208256	-1.1465754	143.78211
510	7	7	0.085054328	-2.5745781	-1.5525836	144.87208
511	7	7	0.085054328	-1.1765473	-2.3376315	143.00672
512	7	7	0.085054328	-2.7527119	-3.1611251	142.9931
513	7	7	0.085054328	-2.0074397	-2.5716762	140.719
514	7	7	0.085054328	-1.9002773	-0.84050035	141.14025
515	7	7	0.085054328	-4.4951185	-2.5218966	141.29894
516	7	7	0.085054328	-4.3794324	-0.74095488	141.49574
517	7	7	0.08682738	-3.6414712	-2.2828821	138.91556
518	7	7	0.08682738	-5.2378016	-1.5339465	139.25097
519	7	7	0.090912653	-2.5388783	-0.03969298	139.05411
520	7	7	0.090912653	-4.1075983	0.7246519	139.51681
521	7	6	0.085036439	-5.0860855	0.036908941	137.31882
522	7	6	0.085036439	-3.5303028	-0.73836661	136.84897
523	4	1	0.54220052	2.4684184	-1.2993126	129.08216
524	4	2	-0.69144808	2.0870386	-0.37479435	128.31653
525	4	3	-0.52321248	2.4281201	-2.6671221	128.66064
526	4	4	0.030397716	1.9584014	-3.0738318	127.3374
527	4	4	-0.14620465	3.0202377	-2.7718395	126.27512
528	4	4	-0.14260417	2.5461912	-3.215096	124.88231
529	4	4	-0.1383981	3.6320787	-3.0507018	123.80729
530	4	4	-0.12259088	3.8959112	-1.5785127	123.45237
531	4	4	0.18379697	4.9072337	-1.4394939	122.30366
532	4	3	-0.64964263	4.3919776	-1.9999739	121.0576