Title

7375 atoms
7500 bonds
14125 angles
27125 dihedrals
1500 impropers

8 atom types
11 bond types
5 angle types
29 dihedral types
2 improper types
-5.944499969 94.05550003 xlo xhi
-5.80369997 94.19630003 ylo yhi
-6.107500076 93.89249992 zlo zhi
0.0 0.0 0.0 xy xz yz

Masses

1	15.99943
2	12.01078
3	1.007947
4	12.01078
5	15.99943
6	1.007947
7	15.99943
8	1.007947


Pair Coeffs

1	0.16846514	3.0251065
2	0.10884061	3.3795318
3	0.016409246	2.5832257
4	0.086879315	3.4806469
5	0.2102061	3.0398122
6	0.015779483	2.6445434
7	0.20947353	2.99716
8	1.2326e-05	0.53453923

Bond Coeffs

1 harmonic	366.7408841747	1.425895053732
2 harmonic	300.03137914615	1.451203938761
3 harmonic	264.62148576755	1.52190126495
4 harmonic	370.04670688625	1.093899492634
5 harmonic	301.15400723785	1.345741232799
6 harmonic	582.698766451	1.225198386222
7 harmonic	329.44145381095	1.523435958334
8 harmonic	279.1350963404	1.454628925034
9 harmonic	329.96998057905	1.427343958716
10 harmonic	543.5267831885	0.9716763312559
11 harmonic	385.7604595587	1.369745182308


Angle Coeffs

1 harmonic	53.20531626545	116.5475862634
2 harmonic	65.09061609600001	110.3538806181
3 harmonic	201.41175231035	127.4691416191
4 harmonic	57.8982893754	126.8062420451
5 harmonic	48.776492647595	115.6030999533


Dihedral Coeffs

1 fourier 1	-0.0309670556842	3	0
2 fourier 1	0.4598191477945	2	0
3 fourier 1	0.1115525666802	3	0
4 fourier 1	0.3432490222662	1	0
5 fourier 1	0.0473758381877	3	0
6 fourier 1	0.457973137376	1	0
7 fourier 1	0.1918272375143	3	0
8 fourier 1	0.9202179876409	1	180
9 fourier 1	1.163809172478	2	180
10 fourier 1	0.1679186987369	1	180
11 fourier 1	2.779853741805	2	180
12 fourier 1	0.02664938770063	3	0
13 fourier 1	0.1911926717192	3	0
14 fourier 1	0.1155372516788	3	0
15 fourier 1	0.4541676554336	1	0
16 fourier 1	0.1489710476446	2	0
17 fourier 1	0.02960027280666	3	180
18 fourier 1	-0.3703352413219	2	0
19 fourier 1	0.1040663847541	3	0
20 fourier 1	0.09223874044423	3	0
21 fourier 1	0.3159935921949	2	180
22 fourier 1	0.3247796806857	1	180
23 fourier 1	0.9974165607242	2	180
24 fourier 1	0.3445382149273	3	0
25 fourier 1	0.1364556373303	1	0
26 fourier 1	0.3026390167484	3	0
27 fourier 1	2.687457892086	2	180
28 fourier 1	2.772607909663	2	180
29 fourier 1	0.09692684957115	1	0


Improper Coeffs

1 3.5	-1	2
2 0.3666666666666667	-1	2


Atoms

1	4	1	-0.16220801	-3.8927	-0.57889998	1.0261
2	4	2	0.047304001	-2.8455	-1.5042	0.92140001
3	4	2	0.146781	-3.3999	-2.9094999	0.69
4	4	1	-0.48241001	-2.3562	-3.8436999	0.65319997
5	4	3	0.081439003	-4.0846	-3.1747	1.5226001
6	4	3	0.081439003	-3.9823999	-2.9410999	-0.2597
7	4	3	0.081446998	-2.2648001	-1.4911	1.8684
8	4	3	0.081446998	-2.1579001	-1.2194999	0.091899998
9	5	4	0.701796	-1.8999	-3.7437999	-0.27590001
10	5	5	-0.518076	-2.3643999	-4.3355999	-1.238
11	5	2	-0.151297	-0.67519999	-2.8805001	-0.41679999
12	5	6	0.130199	-0.42809999	-2.4881001	0.59609997
13	5	2	-0.130593	0.52789998	-3.7063999	-0.90420002
14	5	6	0.098173	0.3179	-4.086	-1.9293
15	5	6	0.098173	0.67690003	-4.5886002	-0.24339999
16	5	2	-0.106816	1.8255	-2.8710001	-0.93199998
17	5	6	0.090590999	2.4755001	-3.2753	-1.7394
18	5	6	0.090590999	2.3719001	-3.0127001	0.0262
19	5	2	-0.219613	1.5768	-1.3548	-1.1348
20	5	4	0.49469	2.789	-0.68099999	-1.7230999
21	5	5	-0.64914399	3.1868999	-0.97149998	-2.8412001
22	5	6	0.110271	1.3939	-0.89469999	-0.13770001
23	5	2	-0.106816	0.33250001	-1.1038001	-2.0023999
24	5	6	0.090590999	0.47839999	-1.581	-2.9974999
25	5	6	0.090590999	0.19750001	-0.0121	-2.1705999
26	5	2	-0.130593	-0.9461	-1.6743	-1.3516999
27	5	6	0.098173998	-1.6475	-1.9586999	-2.1677001
28	5	6	0.098173998	-1.4432	-0.875	-0.75950003
29	1	1	-0.156394	-4.2220001	-0.41780001	0.1031
30	1	2	0.017378001	-3.7946999	0.86769998	-0.25569999
31	1	2	0.089367002	-4.6641998	1.9256999	0.42320001
32	1	7	-0.687262	-4.2802	3.2091	0.0111
33	1	8	0.38229099	-3.4410999	3.424	0.49770001
34	1	3	0.077482998	-5.7254	1.7641	0.1384
35	1	3	0.077482998	-4.5858998	1.8341	1.5303
36	1	3	0.082105003	-3.882	0.9756	-1.358
37	1	3	0.082105003	-2.7253001	1.0125999	0.021299999
38	2	4	0.49469	3.3136001	0.0779	-1.1515
39	2	5	-0.64914399	4.5311999	0.14560001	-1.2217
40	2	2	-0.219613	2.5350001	1.0355999	-0.289
41	2	6	0.110271	1.4553	0.80010003	-0.42379999
42	2	2	-0.106816	2.8880999	0.85259998	1.2085
43	2	6	0.090590999	2.2894001	0.0063999998	1.6112
44	2	6	0.090590999	3.9605	0.57929999	1.3293999
45	2	2	-0.12576699	2.6213	2.1126001	2.0601001
46	2	6	0.098173	2.3541999	1.8034	3.0945001
47	2	6	0.098173	3.5558	2.7149999	2.1194
48	2	2	-0.17215499	1.4989001	2.9789	1.4615999
49	2	4	0.76895601	1.1671	4.1349001	2.3657999
50	2	5	-0.52310199	2.0706	4.9305	2.7421999
51	2	7	-0.64795399	-0.1481	4.3397999	2.7713001
52	2	8	0.396819	-0.3908	5.1167998	3.3729
53	2	6	0.132475	0.58899999	2.3410001	1.3827
54	2	2	-0.12576699	1.8685	3.4772	0.043099999
55	2	6	0.098173	2.4038999	4.4510999	0.095700003
56	2	6	0.098173	0.92750001	3.6531	-0.5237
57	2	2	-0.106816	2.7564001	2.4888	-0.74239999
58	2	6	0.090590999	2.5364001	2.5874	-1.8286
59	2	6	0.090590999	3.8255999	2.7602	-0.58990002
60	4	1	-0.16220801	-3.4117999	1.9081	11.1594
61	4	2	0.047304001	-2.8676	1.7208	12.4371
62	4	2	0.146781	-3.9607	1.8246	13.5001
63	4	1	-0.48241001	-3.4057	1.705	14.7811
64	4	3	0.081439003	-4.4573002	2.8141	13.4193
65	4	3	0.081439003	-4.7318001	1.0367	13.3363
66	4	3	0.081446998	-2.1059	2.5093	12.617
67	4	3	0.081446998	-2.3601	0.73079997	12.5012
68	5	4	0.701796	-3.2	0.69559997	14.9234
69	5	5	-0.518076	-4.086	-0.0462	15.3187
70	5	2	-0.151297	-1.8171	0.1697	14.6474
71	5	6	0.130199	-1.1878999	1.0366	14.3417
72	5	2	-0.130593	-1.1942	-0.43520001	15.9175
73	5	6	0.098173	-1.7886	-1.3237	16.227301
74	5	6	0.098173	-1.2338001	0.30219999	16.749399
75	5	2	-0.106816	0.27149999	-0.86320001	15.6913
76	5	6	0.090590999	0.48519999	-1.7216001	16.366199
77	5	6	0.090590999	0.94590002	-0.033599999	15.9976
78	5	2	-0.219613	0.58459997	-1.2312	14.2188
79	5	4	0.49469	1.7690001	-2.1582999	14.1322
80	5	5	-0.64914399	1.7237999	-3.2797	14.6152
81	5	6	0.110271	0.8549	-0.29769999	13.6756
82	5	2	-0.106816	-0.64310002	-1.8405	13.5219
83	5	6	0.090590999	-0.95209998	-2.7614999	14.0652
84	5	6	0.090590999	-0.38420001	-2.1362	12.4808
85	5	2	-0.130593	-1.8304	-0.85430002	13.484
86	5	6	0.098173998	-2.7704	-1.4502	13.495
87	5	6	0.098173998	-1.8111	-0.2951	12.5229
88	1	1	-0.156394	-3.8773	1.0633	10.9228
89	1	2	0.017378001	-3.0938001	0.4346	9.9456997
90	1	2	0.089367002	-3.2825999	1.1187	8.5918999
91	1	7	-0.687262	-2.552	0.4481	7.6013999
92	1	8	0.38229099	-1.601	0.70670003	7.7266002
93	1	3	0.077482998	-4.3583999	1.0943	8.3170996
94	1	3	0.077482998	-2.9658	2.1845	8.6528997
95	1	3	0.082105003	-3.4110999	-0.62709999	9.8657999
96	1	3	0.082105003	-2.0192001	0.4522	10.2394
97	2	4	0.49469	2.6730001	-1.8311	13.6287
98	2	5	-0.64914399	3.7604001	-2.1689999	14.0706
99	2	2	-0.219613	2.573	-0.97430003	12.3944
100	2	6	0.110271	1.4905	-0.83890003	12.172
101	2	2	-0.106816	3.1979001	0.42340001	12.6324
102	2	6	0.090590999	2.4433	1.0658	13.1371
103	2	6	0.090590999	4.0738001	0.35170001	13.3158
104	2	2	-0.12576699	3.6654	1.1154	11.3338
105	2	6	0.098173	3.5734999	2.2172	11.4546
106	2	6	0.098173	4.7414999	0.8836	11.1663
107	2	2	-0.17215499	2.8522	0.64859998	10.1135
108	2	4	0.76895601	3.2353001	1.4207	8.8802004
109	2	5	-0.52310199	4.4394999	1.473	8.5085001
110	2	7	-0.64795399	2.2523999	2.0627	8.1335001
111	2	8	0.396819	2.4909	2.5799999	7.2968001
112	2	6	0.132475	1.7790999	0.86150002	10.3244
113	2	2	-0.12576699	3.0097001	-0.87410003	9.8814001
114	2	6	0.098173	3.8738	-1.0822999	9.2122002
115	2	6	0.098173	2.0987999	-1.2465	9.3627005
116	2	2	-0.106816	3.2145	-1.6753	11.1847
117	2	6	0.090590999	2.7801001	-2.6918001	11.0581
118	2	6	0.090590999	4.3059001	-1.7967	11.3694
119	4	1	-0.16220801	1.7509	-3.0518	26.603701
120	4	2	0.047304001	2.1050999	-2.4727001	25.377701
121	4	2	0.146781	2.925	-3.4561999	24.543301
122	4	1	-0.48241001	3.3362999	-2.8534	23.347
123	4	3	0.081439003	3.8261001	-3.7598	25.1159
124	4	3	0.081439003	2.3261001	-4.3716998	24.3304
125	4	3	0.081446998	2.7142	-1.5652	25.577101
126	4	3	0.081446998	1.1932	-2.1594	24.819
127	5	4	0.701796	2.5053	-2.8346	22.7222
128	5	5	-0.518076	2.2399001	-3.8183	22.0488
129	5	2	-0.151297	1.6513	-1.5972	22.653299
130	5	6	0.130199	2.1173	-0.8355	23.319401
131	5	2	-0.130593	1.6307	-1.0207	21.2269
132	5	6	0.098173	1.1415	-1.7522	20.5455
133	5	6	0.098173	2.6705999	-0.86650002	20.863501
134	5	2	-0.106816	0.86790001	0.3195	21.159401
135	5	6	0.090590999	0.42269999	0.40889999	20.1437
136	5	6	0.090590999	1.5905	1.1573	21.2721
137	5	2	-0.219613	-0.2225	0.46239999	22.2514
138	5	4	0.49469	-1.2869999	1.4412	21.829
139	5	5	-0.64914399	-1.9985	1.2148	20.861799
140	5	6	0.110271	0.2554	0.86989999	23.170601
141	5	2	-0.106816	-0.83840001	-0.9005	22.6078
142	5	6	0.090590999	-1.298	-1.3436	21.695999
143	5	6	0.090590999	-1.6469001	-0.7694	23.361099
144	5	2	-0.130593	0.2166	-1.8789001	23.1677
145	5	6	0.098173998	-0.1006	-2.9123001	22.9027
146	5	6	0.098173998	0.2221	-1.8151	24.277901
147	1	1	-0.156394	1.0081	-3.6833999	26.414801
148	1	2	0.017378001	-0.15620001	-3.0975001	26.9298
149	1	2	0.089367002	-0.19419999	-3.2388999	28.4513
150	1	7	-0.687262	-1.3902	-2.7135999	28.959299
151	1	8	0.38229099	-1.2963001	-1.7248	28.9405
152	1	3	0.077482998	-0.13680001	-4.3150001	28.7197
153	1	3	0.077482998	0.68080002	-2.7221	28.9067
154	1	3	0.082105003	-1.0367	-3.6150999	26.4928
155	1	3	0.082105003	-0.20990001	-2.0225999	26.6415
156	2	4	0.49469	-1.4309	2.3569	22.3934
157	2	5	-0.64914399	-1.7179	3.3863001	21.8018
158	2	2	-0.219613	-1.2812001	2.3429	23.891701
159	2	6	0.110271	-1.061	1.294	24.192801
160	2	2	-0.106816	-0.098200001	3.2358	24.343399
161	2	6	0.090590999	0.84249997	2.6508	24.245899
162	2	6	0.090590999	0.00039999999	4.1238999	23.679399
163	2	2	-0.12576699	-0.2318	3.7425001	25.7957
164	2	6	0.098173	0.78329998	3.8694999	26.2321
165	2	6	0.098173	-0.72219998	4.7420001	25.7876
166	2	2	-0.17215499	-1.0622	2.7792001	26.6623
167	2	4	0.76895601	-1.0791	3.2227001	28.1
168	2	5	-0.52310199	-1.4521	4.3887	28.4039
169	2	7	-0.64795399	-0.70179999	2.3339	29.1019
170	2	8	0.396819	-0.71469998	2.6125	30.0749
171	2	6	0.132475	-0.56730002	1.7818	26.623199
172	2	2	-0.12576699	-2.5027001	2.6296	26.1147
173	2	6	0.098173	-3.1751001	3.3938999	26.563601
174	2	6	0.098173	-2.8927	1.6332999	26.4196
175	2	2	-0.106816	-2.5920999	2.7611001	24.579399
176	2	6	0.090590999	-3.4338	2.1343999	24.2097
177	2	6	0.090590999	-2.8204999	3.8190999	24.317699
178	4	1	-0.16220801	1.9651999	1.346	33.548801
179	4	2	0.047304001	0.63389999	0.93309999	33.693199
180	4	2	0.146781	0.065700002	0.49180001	32.344799
181	4	1	-0.48241001	-1.2852	0.1437	32.477299
182	4	3	0.081439003	0.147	1.3298	31.6213
183	4	3	0.081439003	0.6505	-0.36829999	31.9445
184	4	3	0.081446998	0.037799999	1.7873	34.0798
185	4	3	0.081446998	0.5636	0.1018	34.431999
186	5	4	0.701796	-1.3082	-0.79400003	32.926201
187	5	5	-0.518076	-1.1953	-1.7929	32.232601
188	5	2	-0.151297	-1.4869	-0.90369999	34.4165
189	5	6	0.130199	-1.6066	0.1305	34.812801
190	5	2	-0.130593	-2.7651999	-1.6873	34.761902
191	5	6	0.098173	-2.6586001	-2.7351	34.4021
192	5	6	0.098173	-3.6391001	-1.2398	34.238998
193	5	2	-0.106816	-3.0383	-1.7012	36.281101
194	5	6	0.090590999	-3.5750999	-2.6451001	36.523499
195	5	6	0.090590999	-3.7232001	-0.86320001	36.5369
196	5	2	-0.219613	-1.7544	-1.5639	37.1381
197	5	4	0.49469	-1.9564	-2.1452	38.513199
198	5	5	-0.64914399	-2.1730001	-3.3382001	38.663898
199	5	6	0.110271	-1.5345	-0.48010001	37.2663
200	5	2	-0.106816	-0.54530001	-2.2084999	36.440601
201	5	6	0.090590999	-0.7529	-3.2893	36.2738
202	5	6	0.090590999	0.35460001	-2.1364	37.091099
203	5	2	-0.130593	-0.2401	-1.5379	35.083801
204	5	6	0.098173998	0.2154	-2.3046999	34.417999
205	5	6	0.098173998	0.52249998	-0.7421	35.232399
206	1	1	-0.156394	2.5105	0.52020001	33.463402
207	1	2	0.017378001	3.214	0.37869999	34.667099
208	1	2	0.089367002	4.3888998	1.3554	34.714001
209	1	7	-0.687262	5.1321998	1.1668	35.887199
210	1	8	0.38229099	4.6106	1.5829	36.623299
211	1	3	0.077482998	5.0507998	1.1726	33.841202
212	1	3	0.077482998	4.0190001	2.404	34.653301
213	1	3	0.082105003	3.6003001	-0.66079998	34.731899
214	1	3	0.082105003	2.5365	0.54960001	35.534901
215	2	4	0.49469	-1.9025	-1.4994	39.383801
216	2	5	-0.64914399	-2.6545	-1.6995	40.325401
217	2	2	-0.219613	-0.9012	-0.37540001	39.420101
218	2	6	0.110271	-0.31330001	-0.42500001	38.475899
219	2	2	-0.106816	-1.6089	1.0017	39.479099
220	2	6	0.090590999	-1.8974	1.2945	38.445801
221	2	6	0.090590999	-2.5481999	0.93620002	40.0732
222	2	2	-0.12576699	-0.73460001	2.1147001	40.095901
223	2	6	0.098173	-1.0102	3.0901999	39.638302
224	2	6	0.098173	-0.94889998	2.1819	41.186501
225	2	2	-0.17215499	0.76599997	1.841	39.8918
226	2	4	0.76895601	1.5984	2.9921	40.387798
227	2	5	-0.52310199	1.469	3.4101	41.570801
228	2	7	-0.64795399	2.5318	3.5846	39.5429
229	2	8	0.396819	3.1059	4.3546	39.862202
230	2	6	0.132475	0.94319999	1.7446001	38.796101
231	2	2	-0.12576699	1.1942	0.51779997	40.5723
232	2	6	0.098173	1.5112	0.70090002	41.622898
233	2	6	0.098173	2.0783	0.1144	40.030899
234	2	2	-0.106816	0.080399998	-0.55059999	40.591499
235	2	6	0.090590999	0.54540002	-1.5606	40.551998
236	2	6	0.090590999	-0.47920001	-0.4754	41.5513
237	4	1	-0.16220801	-0.5887	-3.3262999	51.3922
238	4	2	0.047304001	-1.2436	-2.9075	50.2262
239	4	2	0.146781	-2.6305001	-3.5437	50.138699
240	4	1	-0.48241001	-3.2578001	-3.1787	48.940102
241	4	3	0.081439003	-2.5287001	-4.6487999	50.163898
242	4	3	0.081439003	-3.2509	-3.234	51.0112
243	4	3	0.081446998	-0.64029998	-3.2226	49.348099
244	4	3	0.081446998	-1.327	-1.7965	50.205898
245	5	4	0.701796	-3.5861001	-2.1995001	49.062099
246	5	5	-0.518076	-4.6615	-1.9913	49.6021
247	5	2	-0.151297	-2.7363999	-1.0604	48.566399
248	5	6	0.130199	-1.8368	-1.5045	48.082199
249	5	2	-0.130593	-3.4832001	-0.2392	47.501099
250	5	6	0.098173	-4.3723001	0.2406	47.968102
251	5	6	0.098173	-3.8491001	-0.90859997	46.691601
252	5	2	-0.106816	-2.5854001	0.85479999	46.884701
253	5	6	0.090590999	-3.2392001	1.7016	46.5788
254	5	6	0.090590999	-2.1113	0.46000001	45.959499
255	5	2	-0.219613	-1.4663	1.3422	47.8395
256	5	4	0.49469	-1.0115	2.7318001	47.476299
257	5	5	-0.64914399	-1.7747	3.6824999	47.557899
258	5	6	0.110271	-0.58929998	0.6663	47.723202
259	5	2	-0.106816	-1.9170001	1.2772	49.308102
260	5	6	0.090590999	-2.8131001	1.9233	49.444302
261	5	6	0.090590999	-1.1154	1.6712	49.971802
262	5	2	-0.130593	-2.2636001	-0.16419999	49.739201
263	5	6	0.098173998	-3.0448999	-0.1062	50.5298
264	5	6	0.098173998	-1.3674999	-0.63340002	50.201401
265	1	1	-0.156394	-0.99239999	-2.8162999	52.142799
266	1	2	0.017378001	-0.035999998	-1.8753999	52.5476
267	1	2	0.089367002	1.0602	-2.552	53.370399
268	1	7	-0.687262	1.9798	-1.6003	53.832298
269	1	8	0.38229099	2.5529001	-1.3602999	53.057098
270	1	3	0.077482998	0.6006	-3.056	54.246799
271	1	3	0.077482998	1.5769	-3.3259001	52.758701
272	1	3	0.082105003	-0.53799999	-1.1052001	53.1712
273	1	3	0.082105003	0.40700001	-1.3662	51.661098
274	2	4	0.49469	0.0087000001	2.8947001	47.1441
275	2	5	-0.64914399	0.2296	3.7186	46.269798
276	2	2	-0.219613	1.1324	2.1101	47.768002
277	2	6	0.110271	0.68660003	1.4632	48.556801
278	2	2	-0.106816	1.8229001	1.1966	46.724201
279	2	6	0.090590999	1.2280999	0.2622	46.625099
280	2	6	0.090590999	1.835	1.6826	45.722698
281	2	2	-0.12576699	3.2778001	0.83459997	47.092999
282	2	6	0.098173	3.5176001	-0.1716	46.684399
283	2	6	0.098173	3.9665	1.5659	46.6129
284	2	2	-0.17215499	3.5023999	0.85339999	48.615398
285	2	4	0.76895601	4.8873	0.37959999	48.964001
286	2	5	-0.52310199	5.8985	0.92809999	48.446701
287	2	7	-0.64795399	5.0538998	-0.65530002	49.879002
288	2	8	0.396819	5.9782	-0.98159999	50.131199
289	2	6	0.132475	2.7778001	0.13959999	49.07
290	2	2	-0.12576699	3.2361	2.2595999	49.2061
291	2	6	0.098173	4.1657	2.8708	49.2001
292	2	6	0.098173	2.9305	2.1419001	50.269199
293	2	2	-0.106816	2.1452	3.0465	48.448898
294	2	6	0.090590999	1.6217999	3.7203	49.163101
295	2	6	0.090590999	2.6285	3.6860001	47.6759
296	4	1	-0.16220801	2.4797001	9.1143999	-0.60009998
297	4	2	0.047304001	1.6119	9.3848	0.46650001
298	4	2	0.146781	2.0632999	8.6372004	1.7208
299	4	1	-0.48241001	1.1576	8.8537998	2.7678001
300	4	3	0.081439003	2.1022999	7.5492001	1.5044
301	4	3	0.081439003	3.0855	8.9673996	2.0176001
302	4	3	0.081446998	0.5909	9.0475998	0.1869
303	4	3	0.081446998	1.5704	10.4806	0.66460001
304	5	4	0.701796	1.3437001	9.8108997	3.1291001
305	5	5	-0.518076	2.2262001	9.9777002	3.9567001
306	5	2	-0.151297	0.52020001	10.9689	2.6329999
307	5	6	0.130199	-0.23549999	10.5587	1.9248
308	5	2	-0.130593	-0.23980001	11.6402	3.7901001
309	5	6	0.098173	0.49439999	12.0855	4.4984002
310	5	6	0.098173	-0.82880002	10.8808	4.3501
311	5	2	-0.106816	-1.1908	12.7474	3.2876999
312	5	6	0.090590999	-1.2788	13.5129	4.0903001
313	5	6	0.090590999	-2.2049999	12.3171	3.1368001
314	5	2	-0.219613	-0.73089999	13.3965	1.9577
315	5	4	0.49469	-1.2998	14.7833	1.8067
316	5	5	-0.64914399	-0.99229997	15.675	2.5834
317	5	6	0.110271	-1.1249	12.784	1.1158
318	5	2	-0.106816	0.80250001	13.4158	1.8462
319	5	6	0.090590999	1.2234	13.9989	2.6959
320	5	6	0.090590999	1.1111	13.9237	0.90539998
321	5	2	-0.130593	1.3979	11.9915	1.8674001
322	5	6	0.098173998	2.4142001	12.0523	2.3171
323	5	6	0.098173998	1.5257	11.6328	0.82249999
324	1	1	-0.156394	3.3004	9.6505003	-0.44069999
325	1	2	0.017378001	3.2859001	10.6929	-1.3771
326	1	2	0.089367002	3.6867001	10.173	-2.7574999
327	1	7	-0.687262	3.7379999	11.2279	-3.6789999
328	1	8	0.38229099	2.7974	11.4482	-3.9105
329	1	3	0.077482998	4.6929002	9.7074003	-2.6945
330	1	3	0.077482998	2.9667001	9.3948002	-3.0984001
331	1	3	0.082105003	4.0117002	11.4696	-1.0545
332	1	3	0.082105003	2.276	11.1616	-1.4206001
333	2	4	0.49469	-1.9865	14.9979	0.99419999
334	2	5	-0.64914399	-2.9195001	15.7629	1.1848
335	2	2	-0.219613	-1.7757	14.3567	-0.35190001
336	2	6	0.110271	-0.84920001	13.743	-0.285
337	2	2	-0.106816	-2.9540999	13.4182	-0.71439999
338	2	6	0.090590999	-2.7865	12.4352	-0.2221
339	2	6	0.090590999	-3.9138	13.8209	-0.31909999
340	2	2	-0.12576699	-3.1210001	13.202	-2.234
341	2	6	0.098173	-3.5404999	12.1878	-2.4138
342	2	6	0.098173	-3.8522	13.9435	-2.6278
343	2	2	-0.17215499	-1.7862999	13.3617	-2.9833
344	2	4	0.76895601	-1.9412	13.0273	-4.4421
345	2	5	-0.52310199	-2.8153	13.6093	-5.1409001
346	2	7	-0.64795399	-1.1007	12.0862	-5.0286002
347	2	8	0.396819	-1.1854	11.8547	-6.0102
348	2	6	0.132475	-1.0666	12.6328	-2.5452001
349	2	2	-0.12576699	-1.2067	14.7861	-2.8029001
350	2	6	0.098173	-1.5783	15.4656	-3.6018
351	2	6	0.098173	-0.1008	14.7315	-2.9101
352	2	2	-0.106816	-1.5535001	15.4214	-1.4397
353	2	6	0.090590999	-0.73100001	16.108	-1.1393
354	2	6	0.090590999	-2.4784999	16.0319	-1.5477
355	4	1	-0.16220801	-2.3206	15.5303	13.0582
356	4	2	0.047304001	-1.977	14.4545	13.8878
357	4	2	0.146781	-3.0111001	14.2914	15.0013
358	4	1	-0.48241001	-2.6314001	13.2592	15.8696
359	4	3	0.081439003	-3.0776	15.2361	15.5804
360	4	3	0.081439003	-4.0151	14.0819	14.5654
361	4	3	0.081446998	-0.9824	14.6582	14.3388
362	4	3	0.081446998	-1.8995	13.5153	13.2929
363	5	4	0.701796	-2.8440001	12.3661	15.3812
364	5	5	-0.518076	-3.9724	11.9033	15.4436
365	5	2	-0.151297	-1.7593	11.6582	14.6148
366	5	6	0.130199	-0.824	12.2501	14.7413
367	5	2	-0.130593	-1.505	10.254	15.1899
368	5	6	0.098173	-2.4170001	9.6317997	15.0484
369	5	6	0.098173	-1.3095	10.3198	16.2829
370	5	2	-0.106816	-0.30939999	9.5594997	14.5037
371	5	6	0.090590999	-0.49079999	8.4619999	14.529
372	5	6	0.090590999	0.61260003	9.7498999	15.0955
373	5	2	-0.219613	-0.068099998	10.0428	13.0511
374	5	4	0.49469	0.66579998	9.0004997	12.2483
375	5	5	-0.64914399	0.1569	7.9138999	12.0175
376	5	6	0.110271	0.57870001	10.9482	13.0875
377	5	2	-0.106816	-1.3875	10.4362	12.3666
378	5	6	0.090590999	-2.0651	9.5532999	12.3444
379	5	6	0.090590999	-1.1962	10.7388	11.313
380	5	2	-0.130593	-2.0931001	11.5956	13.1026
381	5	6	0.098173998	-3.1893001	11.4833	12.9459
382	5	6	0.098173998	-1.795	12.5602	12.6363
383	1	1	-0.156394	-3.0611999	15.2146	12.4766
384	1	2	0.017378001	-2.5214	15.0524	11.1936
385	1	2	0.089367002	-2.3403001	16.4112	10.5174
386	1	7	-0.687262	-1.8644	16.244699	9.2096004
387	1	8	0.38229099	-0.89810002	16.0268	9.2851
388	1	3	0.077482998	-3.3204999	16.931601	10.4749
389	1	3	0.077482998	-1.6389	17.043301	11.1079
390	1	3	0.082105003	-3.2203	14.4345	10.5903
391	1	3	0.082105003	-1.5462	14.5164	11.2478
392	2	4	0.49469	1.6568	9.2173004	11.8627
393	2	5	-0.64914399	2.4960001	8.3301001	11.8349
394	2	2	-0.219613	1.9788001	10.6012	11.364
395	2	6	0.110271	1.0511	11.2101	11.4547
396	2	2	-0.106816	3.0806	11.2642	12.2284
397	2	6	0.090590999	2.6036999	11.7029	13.1321
398	2	6	0.090590999	3.813	10.5044	12.583
399	2	2	-0.12576699	3.8643999	12.3663	11.4834
400	2	6	0.098173	4.2002001	13.133	12.2157
401	2	6	0.098173	4.7743001	11.9174	11.0247
402	2	2	-0.17215499	3.0155001	13.0248	10.3814
403	2	4	0.76895601	3.7486999	14.1768	9.7494001
404	2	5	-0.52310199	4.9001002	14.0102	9.2621002
405	2	7	-0.64795399	3.1436	15.428	9.6827002
406	2	8	0.396819	3.6187	16.2122	9.2540998
407	2	6	0.132475	2.0982001	13.4333	10.864
408	2	2	-0.12576699	2.5839	11.9925	9.3113003
409	2	6	0.098173	3.3410001	11.9291	8.4984999
410	2	6	0.098173	1.636	12.3436	8.8466997
411	2	2	-0.106816	2.3752999	10.572	9.8780003
412	2	6	0.090590999	1.5893	10.0557	9.2833996
413	2	6	0.090590999	3.3190999	9.9924002	9.7630997
414	4	1	-0.16220801	-0.1418	8.2621002	23.960899
415	4	2	0.047304001	0.034299999	9.3018999	23.038
416	4	2	0.146781	-0.37959999	8.8458996	21.6392
417	4	1	-0.48241001	-0.13959999	9.8629999	20.705799
418	4	3	0.081439003	0.2163	7.954	21.3536
419	4	3	0.081439003	-1.4565001	8.5587997	21.6318
420	4	3	0.081446998	1.1077	9.5881004	23.0271
421	4	3	0.081446998	-0.55720001	10.1956	23.3431
422	5	4	0.701796	-0.89709997	10.5647	20.8288
423	5	5	-0.518076	-1.9657	10.398	20.261499
424	5	2	-0.151297	-0.66170001	11.7729	21.694799
425	5	6	0.130199	0.38870001	11.7181	22.061501
426	5	2	-0.130593	-0.8053	13.0706	20.880699
427	5	6	0.098173	-1.8565	13.1643	20.5271
428	5	6	0.098173	-0.15090001	13.0308	19.982201
429	5	2	-0.106816	-0.4413	14.3166	21.716
430	5	6	0.090590999	-1.0393	15.1726	21.331699
431	5	6	0.090590999	0.62919998	14.5677	21.549999
432	5	2	-0.219613	-0.67000002	14.1258	23.2369
433	5	4	0.49469	-0.8714	15.451	23.9247
434	5	5	-0.64914399	-1.8362	16.153299	23.6621
435	5	6	0.110271	0.24429999	13.663	23.672001
436	5	2	-0.106816	-1.8503	13.1791	23.510201
437	5	6	0.090590999	-2.7736001	13.6061	23.0581
438	5	6	0.090590999	-2.0236001	13.0904	24.605801
439	5	2	-0.130593	-1.6056	11.7719	22.924101
440	5	6	0.098173998	-2.5945001	11.3344	22.660601
441	5	6	0.098173998	-1.1608	11.1211	23.708599
442	1	1	-0.156394	-1.1163	8.2088003	24.1453
443	1	2	0.017378001	-1.307	8.7121	25.439199
444	1	2	0.089367002	-0.87910002	7.6778998	26.480301
445	1	7	-0.687262	-1.1332999	8.1548996	27.773399
446	1	8	0.38229099	-0.42250001	8.8189001	27.975599
447	1	3	0.077482998	-1.4586999	6.7431998	26.3263
448	1	3	0.077482998	0.2018	7.4376998	26.360901
449	1	3	0.082105003	-2.3854001	8.9421997	25.5748
450	1	3	0.082105003	-0.73290002	9.6569004	25.576599
451	2	4	0.49469	-0.1557	15.7856	24.668699
452	2	5	-0.64914399	0.1261	16.972099	24.7376
453	2	2	-0.219613	0.4716	14.7868	25.6049
454	2	6	0.110271	0.0286	13.7921	25.373301
455	2	2	-0.106816	2.0028	14.6992	25.384199
456	2	6	0.090590999	2.1972001	14.0162	24.5284
457	2	6	0.090590999	2.418	15.6944	25.107401
458	2	2	-0.12576699	2.7729001	14.1921	26.622601
459	2	6	0.098173	3.6803	13.6431	26.2876
460	2	6	0.098173	3.1110001	15.0668	27.222799
461	2	2	-0.17215499	1.9002	13.2814	27.5042
462	2	4	0.76895601	2.6997001	12.6976	28.6373
463	2	5	-0.52310199	3.3374	13.4508	29.422701
464	2	7	-0.64795399	2.7179	11.3201	28.8326
465	2	8	0.396819	3.2437999	10.9106	29.594299
466	2	6	0.132475	1.5494	12.436	26.868799
467	2	2	-0.12576699	0.65859997	14.0369	28.037701
468	2	6	0.098173	0.8854	14.5285	29.009701
469	2	6	0.098173	-0.1487	13.2956	28.2283
470	2	2	-0.106816	0.1355	15.1187	27.068899
471	2	6	0.090590999	-0.96560001	15.2171	27.194799
472	2	6	0.090590999	0.59329998	16.098101	27.3358
473	4	1	-0.16220801	-1.2093	8.5839996	35.660099
474	4	2	0.047304001	0.081699997	9.1237001	35.737202
475	4	2	0.146781	1.0263	8.3769999	34.795898
476	4	1	-0.48241001	2.3309	8.8722	34.923401
477	4	3	0.081439003	1.0285	7.2986002	35.0592
478	4	3	0.081439003	0.67540002	8.4747	33.742599
479	4	3	0.081446998	0.44749999	9.0200005	36.780998
480	4	3	0.081446998	0.064000003	10.2089	35.484699
481	5	4	0.701796	2.3554001	9.7802	34.417099
482	5	5	-0.518076	2.5492001	9.7886	33.211399
483	5	2	-0.151297	2.1594	11.0641	35.177601
484	5	6	0.130199	2.0434999	10.7977	36.253101
485	5	2	-0.130593	3.3943999	11.9729	35.0518
486	5	6	0.098173	3.5150001	12.2783	33.9883
487	5	6	0.098173	4.3098998	11.4144	35.346802
488	5	2	-0.106816	3.2695	13.2373	35.928299
489	5	6	0.090590999	3.8399999	14.0544	35.433399
490	5	6	0.090590999	3.756	13.0504	36.910702
491	5	2	-0.219613	1.8024	13.6676	36.1819
492	5	4	0.49469	1.7171	15.1363	36.506699
493	5	5	-0.64914399	2.0353	15.9801	35.682301
494	5	6	0.110271	1.4234	13.1104	37.068001
495	5	2	-0.106816	0.90219998	13.3155	34.986198
496	5	6	0.090590999	1.2789	13.8383	34.078602
497	5	6	0.090590999	-0.13590001	13.671	35.171398
498	5	2	-0.130593	0.87260002	11.7954	34.717499
499	5	6	0.098173998	0.70209998	11.6439	33.628201
500	5	6	0.098173998	0.0041999999	11.3468	35.2481
501	1	1	-0.156394	-1.607	8.9197998	34.814201
502	1	2	0.017378001	-2.5715001	9.8703003	35.174999
503	1	2	0.089367002	-3.8318	9.1780996	35.6936
504	1	7	-0.687262	-4.8207998	10.126	35.9902
505	1	8	0.38229099	-4.5609999	10.5468	36.851799
506	1	3	0.077482998	-4.2203999	8.4926996	34.910999
507	1	3	0.077482998	-3.5927999	8.5713997	36.596298
508	1	3	0.082105003	-2.8285999	10.4728	34.277802
509	1	3	0.082105003	-2.1652999	10.5608	35.949299
510	2	4	0.49469	1.3622	15.452	37.482399
511	2	5	-0.64914399	1.8673	16.427401	38.016701
512	2	2	-0.219613	0.2525	14.6897	38.157001
513	2	6	0.110271	-0.063500002	13.8799	37.461399
514	2	2	-0.106816	0.7439	14.0349	39.4725
515	2	6	0.090590999	1.248	13.0758	39.222198
516	2	6	0.090590999	1.5006	14.6792	39.974098
517	2	2	-0.12576699	-0.391	13.7622	40.483101
518	2	6	0.098173	-0.13169999	12.8665	41.089298
519	2	6	0.098173	-0.47279999	14.6275	41.179001
520	2	2	-0.17215499	-1.7431999	13.5501	39.779499
521	2	4	0.76895601	-2.8118999	13.1642	40.765999
522	2	5	-0.52310199	-3.0425	13.8881	41.7728
523	2	7	-0.64795399	-3.5646999	12.0133	40.554401
524	2	8	0.396819	-4.2929001	11.7427	41.203201
525	2	6	0.132475	-1.6209	12.7027	39.0667
526	2	2	-0.12576699	-2.1624	14.8054	38.976002
527	2	6	0.098173	-2.7578001	15.498	39.611401
528	2	6	0.098173	-2.8211	14.4832	38.1395
529	2	2	-0.106816	-0.96600002	15.5954	38.404099
530	2	6	0.090590999	-1.2755001	16.086201	37.4547
531	2	6	0.090590999	-0.68440002	16.399	39.1217
532	4	1	-0.16220801	-1.6032	10.5787	45.7999
533	4	2	0.047304001	-0.2748	10.9281	46.077499
534	4	2	0.146781	0.50410002	11.1283	44.777802
535	4	1	-0.48241001	1.8480999	11.4109	45.0555
536	4	3	0.081439003	0.4542	10.1981	44.174099
537	4	3	0.081439003	0.049699999	11.9525	44.180801
538	4	3	0.081446998	0.193	10.1071	46.6618
539	4	3	0.081446998	-0.2385	11.8547	46.695499
540	5	4	0.701796	1.8855	12.4021	45.367802
541	5	5	-0.518076	1.948	13.2911	44.532902
542	5	2	-0.151297	1.8694	12.7222	46.838402
543	5	6	0.130199	1.8508	11.7534	47.3881
544	5	2	-0.130593	3.148	13.4706	47.2533
545	5	6	0.098173	3.1754	14.4574	46.739399
546	5	6	0.098173	4.0457001	12.8986	46.930599
547	5	2	-0.106816	3.2133999	13.6948	48.779099
548	5	6	0.090590999	3.7865	14.6306	48.9631
549	5	6	0.090590999	3.7879	12.865	49.246101
550	5	2	-0.219613	1.8186001	13.7641	49.451099
551	5	4	0.49469	1.8789001	14.531	50.746399
552	5	5	-0.64914399	2.1682	15.7181	50.759201
553	5	6	0.110271	1.4971	12.7267	49.695599
554	5	2	-0.106816	0.77060002	14.3685	48.502201
555	5	6	0.090590999	1.085	15.3979	48.218399
556	5	6	0.090590999	-0.2119	14.4483	49.0186
557	5	2	-0.130593	0.59869999	13.5223	47.222301
558	5	6	0.098173998	0.30050001	14.207	46.396999
559	5	6	0.098173998	-0.2383	12.8046	47.367802
560	1	1	-0.156394	-2.0638001	11.4136	45.5219
561	1	2	0.017378001	-2.9099	11.775	46.578899
562	1	2	0.089367002	-4.1550002	10.8883	46.590099
563	1	7	-0.687262	-5.0324998	11.294	47.605
564	1	8	0.38229099	-4.6503	10.9621	48.459801
565	1	3	0.077482998	-4.6760998	10.978	45.613499
566	1	3	0.077482998	-3.8657	9.8221998	46.730701
567	1	3	0.082105003	-3.2168	12.8338	46.441399
568	1	3	0.082105003	-2.372	11.6954	47.5513
569	2	4	0.49469	1.6561	14.0269	51.681301
570	2	5	-0.64914399	2.2874999	14.32	52.685001
571	2	2	-0.219613	0.57200003	12.9828	51.727798
572	2	6	0.110271	0.1231	12.9259	50.710602
573	2	2	-0.106816	1.1525	11.5901	52.080502
574	2	6	0.090590999	1.5535001	11.1296	51.1511
575	2	6	0.090590999	2.0049	11.6873	52.789799
576	2	2	-0.12576699	0.1162	10.636	52.7127
577	2	6	0.098173	0.37189999	9.5883999	52.440399
578	2	6	0.098173	0.175	10.7197	53.8214
579	2	2	-0.17215499	-1.3161	10.9655	52.256401
580	2	4	0.76895601	-2.2976999	9.9531002	52.781502
581	2	5	-0.52310199	-2.3634	9.7095003	54.017399
582	2	7	-0.64795399	-3.1529	9.2981005	51.900902
583	2	8	0.396819	-3.8248	8.6201	52.2374
584	2	6	0.132475	-1.3352	10.9075	51.143902
585	2	2	-0.12576699	-1.7247	12.3986	52.676201
586	2	6	0.098173	-2.1946001	12.3938	53.6847
587	2	6	0.098173	-2.4923	12.7688	51.961102
588	2	2	-0.106816	-0.54159999	13.3893	52.708099
589	2	6	0.090590999	-0.91439998	14.4082	52.460999
590	2	6	0.090590999	-0.1247	13.425	53.740101
591	4	1	-0.16220801	3.0994	26.2243	-2.0437
592	4	2	0.047304001	2.3353	26.7477	-0.99199998
593	4	2	0.146781	2.3913	28.275	-1.0042
594	4	1	-0.48241001	1.6832	28.795799	0.087099999
595	4	3	0.081439003	3.4491	28.603201	-0.9303
596	4	3	0.081439003	1.9737999	28.667	-1.9603
597	4	3	0.081446998	2.7506001	26.3738	-0.031800002
598	4	3	0.081446998	1.2795	26.399799	-1.0692
599	5	4	0.701796	0.67330003	28.7141	-0.1471
600	5	5	-0.518076	0.1408	29.5872	-0.81459999
601	5	2	-0.151297	-0.1134	27.5292	0.34509999
602	5	6	0.130199	0.57669997	26.9046	0.95719999
603	5	2	-0.130593	-1.2707	27.975901	1.2552
604	5	6	0.098173	-1.9917001	28.5783	0.65850002
605	5	6	0.098173	-0.88450003	28.6257	2.0711999
606	5	2	-0.106816	-2.0116999	26.772301	1.8757
607	5	6	0.090590999	-3.0706999	27.070801	2.0411