Title

59 atoms
60 bonds
113 angles
217 dihedrals
12 impropers

8 atom types
11 bond types
5 angle types
29 dihedral types
2 improper types
-2.411000013 97.58899999 xlo xhi
-4.28399992 95.71600008 ylo yhi
-7.860000134 92.13999987 zlo zhi
0.0 0.0 0.0 xy xz yz

Masses

1	15.99943
2	12.01078
3	1.007947
4	12.01078
5	15.99943
6	1.007947
7	15.99943
8	1.007947


Pair Coeffs

1	0.16846514	3.0251065
2	0.10884061	3.3795318
3	0.016409246	2.5832257
4	0.086879315	3.4806469
5	0.2102061	3.0398122
6	0.015779483	2.6445434
7	0.20947353	2.99716
8	1.2326e-05	0.53453923

Bond Coeffs

1 harmonic	366.7408841747	1.425895053732
2 harmonic	300.03137914615	1.451203938761
3 harmonic	264.62148576755	1.52190126495
4 harmonic	370.04670688625	1.093899492634
5 harmonic	301.15400723785	1.345741232799
6 harmonic	582.698766451	1.225198386222
7 harmonic	329.44145381095	1.523435958334
8 harmonic	279.1350963404	1.454628925034
9 harmonic	329.96998057905	1.427343958716
10 harmonic	543.5267831885	0.9716763312559
11 harmonic	385.7604595587	1.369745182308


Angle Coeffs

1 harmonic	53.20531626545	116.5475862634
2 harmonic	65.09061609600001	110.3538806181
3 harmonic	201.41175231035	127.4691416191
4 harmonic	57.8982893754	126.8062420451
5 harmonic	48.776492647595	115.6030999533


Dihedral Coeffs

1 fourier 1	-0.0309670556842	3	0
2 fourier 1	0.4598191477945	2	0
3 fourier 1	0.1115525666802	3	0
4 fourier 1	0.3432490222662	1	0
5 fourier 1	0.0473758381877	3	0
6 fourier 1	0.457973137376	1	0
7 fourier 1	0.1918272375143	3	0
8 fourier 1	0.9202179876409	1	180
9 fourier 1	1.163809172478	2	180
10 fourier 1	0.1679186987369	1	180
11 fourier 1	2.779853741805	2	180
12 fourier 1	0.02664938770063	3	0
13 fourier 1	0.1911926717192	3	0
14 fourier 1	0.1155372516788	3	0
15 fourier 1	0.4541676554336	1	0
16 fourier 1	0.1489710476446	2	0
17 fourier 1	0.02960027280666	3	180
18 fourier 1	-0.3703352413219	2	0
19 fourier 1	0.1040663847541	3	0
20 fourier 1	0.09223874044423	3	0
21 fourier 1	0.3159935921949	2	180
22 fourier 1	0.3247796806857	1	180
23 fourier 1	0.9974165607242	2	180
24 fourier 1	0.3445382149273	3	0
25 fourier 1	0.1364556373303	1	0
26 fourier 1	0.3026390167484	3	0
27 fourier 1	2.687457892086	2	180
28 fourier 1	2.772607909663	2	180
29 fourier 1	0.09692684957115	1	0


Improper Coeffs

1 3.5	-1	2
2 0.3666666666666667	-1	2


Atoms

1	1	1	-0.16220801	1.576	-0.336	0.85699999
2	1	2	0.047304001	0.63599998	-0.419	-0.17900001
3	1	2	0.146781	-0.71899998	0.11	0.28999999
4	1	1	-0.48241001	-1.675	-0.035999998	-0.72399998
5	1	3	0.081439003	-1.051	-0.46900001	1.177
6	1	3	0.081439003	-0.63099998	1.1799999	0.58899999
7	1	3	0.081446998	0.52999997	-1.484	-0.477
8	1	3	0.081446998	0.98699999	0.154	-1.068
9	1	4	0.701796	-1.49	0.71600002	-1.418
10	1	5	-0.518076	-1.961	1.8279999	-1.2359999
11	1	2	-0.151297	-0.65399998	0.41999999	-2.6340001
12	1	6	0.130199	-0.38	-0.65899998	-2.5929999
13	1	2	-0.130593	-1.459	0.64899999	-3.925
14	1	6	0.098173	-1.72	1.728	-4.0050001
15	1	6	0.098173	-2.411	0.075000003	-3.8870001
16	1	2	-0.106816	-0.66500002	0.228	-5.1799998
17	1	6	0.090590999	-1	0.86699998	-6.027
18	1	6	0.090590999	-0.92500001	-0.82099998	-5.4419999
19	1	2	-0.219613	0.87099999	0.32100001	-4.9959998
20	1	4	0.49469	1.567	0.477	-6.323
21	1	5	-0.64914399	1.386	1.469	-7.013
22	1	6	0.110271	1.227	-0.63300002	-4.546
23	1	2	-0.106816	1.251	1.462	-4.0380001
24	1	6	0.090590999	0.87900001	2.4260001	-4.4520001
25	1	6	0.090590999	2.358	1.538	-3.954
26	1	2	-0.130593	0.653	1.253	-2.6300001
27	1	6	0.098173998	0.479	2.256	-2.1800001
28	1	6	0.098173998	1.399	0.73400003	-1.989
29	1	1	-0.156394	1.845	0.61799997	0.92000002
30	1	2	0.017378001	3.148	0.70099998	0.41100001
31	1	2	0.089367002	4.1529999	0.17200001	1.434
32	1	7	-0.687262	5.461	0.31799999	0.95200002
33	1	8	0.38229099	5.5970001	-0.40000001	0.27900001
34	1	3	0.077482998	4.0549998	0.75199997	2.3759999
35	1	3	0.077482998	3.941	-0.89700001	1.663
36	1	3	0.082105003	3.3759999	1.766	0.192
37	1	3	0.082105003	3.23	0.12800001	-0.54100001
38	1	4	0.49469	2.244	-0.29699999	-6.6700001
39	1	5	-0.64914399	2.2820001	-0.56999999	-7.8600001
40	1	2	-0.219613	3.1270001	-1.015	-5.684
41	1	6	0.110271	2.9400001	-0.565	-4.6830001
42	1	2	-0.106816	2.7739999	-2.5220001	-5.612
43	1	6	0.090590999	1.908	-2.6489999	-4.9260001
44	1	6	0.090590999	2.457	-2.9000001	-6.6100001
45	1	2	-0.12576699	3.9430001	-3.4030001	-5.1209998
46	1	6	0.098173	3.533	-4.2839999	-4.5799999
47	1	6	0.098173	4.507	-3.7820001	-6.0029998
48	1	2	-0.17215499	4.902	-2.6210001	-4.2059999
49	1	4	0.76895601	5.9640002	-3.523	-3.638
50	1	5	-0.52310199	6.6869998	-4.2179999	-4.4029999
51	1	7	-0.64795399	6.164	-3.5739999	-2.2620001
52	1	8	0.396819	6.8790002	-4.1690001	-1.863
53	1	6	0.132475	4.3039999	-2.2260001	-3.3529999
54	1	2	-0.12576699	5.5380001	-1.4220001	-4.9510002
55	1	6	0.098173	6.4840002	-1.727	-5.4510002
56	1	6	0.098173	5.802	-0.64300001	-4.2020001
57	1	2	-0.106816	4.6129999	-0.80400002	-6.0209999
58	1	6	0.090590999	4.8340001	0.28299999	-6.1079998
59	1	6	0.090590999	4.8340001	-1.272	-7.007

Bonds

1	1	1	2
2	2	1	29
3	3	2	3
4	4	2	7
5	4	2	8
6	1	3	4
7	4	3	5
8	4	3	6
9	5	4	9
10	6	9	10
11	7	9	11
12	4	11	12
13	3	11	13
14	3	11	26
15	4	13	14
16	4	13	15
17	3	13	16
18	4	16	17
19	4	16	18
20	3	16	19
21	7	19	20
22	4	19	22
23	3	19	23
24	6	20	21
25	8	20	38
26	4	23	24
27	4	23	25
28	3	23	26
29	4	26	27
30	4	26	28
31	1	29	30
32	3	30	31
33	4	30	36
34	4	30	37
35	9	31	32
36	4	31	34
37	4	31	35
38	10	32	33
39	6	38	39
40	7	38	40
41	4	40	41
42	3	40	42
43	3	40	57
44	4	42	43
45	4	42	44
46	3	42	45
47	4	45	46
48	4	45	47
49	3	45	48
50	7	48	49
51	4	48	53
52	3	48	54
53	6	49	50
54	11	49	51
55	10	51	52
56	4	54	55
57	4	54	56
58	3	54	57
59	4	57	58
60	4	57	59

Angles

1	1	1	2	8
2	1	54	57	58
3	5	5	3	6
4	2	31	32	33
5	2	1	29	30
6	1	16	19	22
7	5	17	16	18
8	1	24	23	26
9	1	49	48	54
10	1	3	2	8
11	1	12	11	13
12	4	19	20	21
13	1	2	3	5
14	1	29	30	36
15	1	40	57	54
16	1	4	3	5
17	1	42	45	48
18	4	20	38	39
19	1	40	42	43
20	1	17	16	19
21	1	31	30	36
22	1	25	23	26
23	1	9	11	13
24	1	19	23	26
25	1	29	30	37
26	1	16	19	23
27	1	13	16	18
28	5	36	30	37
29	1	48	54	55
30	1	22	19	23
31	1	38	40	42
32	1	43	42	45
33	1	45	48	53
34	1	42	45	47
35	1	31	30	37
36	1	11	13	16
37	4	19	20	38
38	1	11	26	28
39	5	7	2	8
40	1	12	11	26
41	1	46	45	48
42	4	48	49	51
43	4	20	38	40
44	3	50	49	51
45	1	23	26	28
46	1	11	13	14
47	1	1	2	7
48	1	13	16	19
49	1	2	3	6
50	5	43	42	44
51	5	24	23	25
52	3	4	9	10
53	4	4	9	11
54	1	56	54	57
55	1	42	45	46
56	1	4	3	6
57	1	40	57	59
58	1	41	40	42
59	1	41	40	57
60	1	3	2	7
61	1	1	2	3
62	1	30	31	35
63	1	48	54	57
64	1	9	11	26
65	1	18	16	19
66	1	14	13	16
67	1	55	54	57
68	1	32	31	35
69	5	34	31	35
70	4	21	20	38
71	1	9	11	12
72	1	30	31	34
73	1	13	16	17
74	1	20	19	22
75	1	38	40	57
76	5	46	45	47
77	2	49	51	52
78	1	32	31	34
79	1	29	30	31
80	1	19	23	25
81	1	44	42	45
82	5	14	13	15
83	2	3	4	9
84	1	16	19	20
85	5	27	26	28
86	1	2	3	4
87	1	40	42	45
88	4	10	9	11
89	1	19	23	24
90	1	40	57	58
91	1	11	13	15
92	4	39	38	40
93	1	54	57	59
94	1	45	48	54
95	2	2	1	29
96	1	40	42	44
97	1	13	11	26
98	1	20	19	23
99	1	53	48	54
100	1	11	26	23
101	4	48	49	50
102	1	38	40	41
103	1	49	48	53
104	1	45	48	49
105	1	42	40	57
106	1	11	26	27
107	1	48	54	56
108	1	15	13	16
109	1	47	45	48
110	5	55	54	56
111	1	23	26	27
112	5	58	57	59
113	1	30	31	32

Dihedrals

1	20	16	19	23	26
1	21	16	19	23	26
1	22	16	19	23	26
2	1	1	2	3	4
2	2	1	2	3	4
3	19	41	40	57	54
4	13	5	3	2	8
5	12	23	19	20	38
6	19	43	42	45	48
7	19	40	42	45	47
8	19	15	13	11	26
9	19	43	42	40	57
10	5	3	2	1	29
11	14	9	11	13	16
12	19	13	16	19	22
13	13	15	13	16	17
14	13	55	54	57	59
15	14	47	45	48	49
16	13	22	19	23	24
17	13	41	40	42	43
18	14	9	11	26	28
19	14	46	45	48	49
20	15	39	38	40	41
20	16	39	38	40	41
20	17	39	38	40	41
21	12	20	38	40	42
22	13	34	31	30	37
23	12	16	19	20	38
24	13	12	11	13	14
25	13	14	13	16	18
26	14	38	40	57	59
27	14	38	40	42	45
28	5	1	29	30	36
29	14	9	11	13	15
30	19	40	42	45	46
31	13	53	48	54	55
32	13	56	54	57	59
33	19	48	54	57	59
34	13	25	23	26	27
35	14	17	16	19	20
36	3	4	3	2	7
36	4	4	3	2	7
37	19	45	48	54	55
38	12	4	9	11	13
39	13	34	31	30	36
40	20	42	40	57	54
40	21	42	40	57	54
40	22	42	40	57	54
41	13	43	42	45	47
42	19	19	23	26	27
43	23	21	20	38	39
44	19	13	11	26	28
45	12	51	49	48	54
46	13	22	19	23	25
47	28	50	49	51	52
47	29	50	49	51	52
48	20	42	45	48	54
48	21	42	45	48	54
48	22	42	45	48	54
49	20	11	13	16	19
49	21	11	13	16	19
49	22	11	13	16	19
50	20	13	16	19	23
50	21	13	16	19	23
50	22	13	16	19	23
51	14	20	19	23	26
52	12	45	48	49	51
53	13	55	54	57	58
54	5	1	29	30	37
55	19	14	13	16	19
56	3	29	30	31	34
56	4	29	30	31	34
57	19	12	11	13	16
58	13	24	23	26	27
59	13	43	42	45	46
60	13	12	11	26	28
61	23	19	20	38	39
62	14	18	16	19	20
63	3	1	2	3	5
63	4	1	2	3	5
64	14	49	48	54	57
65	19	16	19	23	25
66	14	38	40	57	58
67	12	20	38	40	57
68	20	45	42	40	57
68	21	45	42	40	57
68	22	45	42	40	57
69	19	53	48	54	57
70	13	56	54	57	58
71	14	42	45	48	49
72	7	2	3	4	9
72	8	2	3	4	9
73	19	11	26	23	25
74	19	48	54	57	58
75	20	45	48	54	57
75	21	45	48	54	57
75	22	45	48	54	57
76	13	12	11	13	15
77	13	5	3	2	7
78	19	44	42	45	48
79	19	16	19	23	24
80	19	11	13	16	17
81	23	21	20	38	40
82	19	11	26	23	24
83	19	14	13	11	26
84	14	49	48	54	56
85	13	14	13	16	17
86	3	4	3	2	8
86	4	4	3	2	8
87	19	44	42	40	57
88	3	29	30	31	35
88	4	29	30	31	35
89	24	30	31	32	33
89	25	30	31	32	33
90	13	44	42	45	46
91	15	50	49	48	53
91	16	50	49	48	53
91	17	50	49	48	53
92	14	38	40	42	44
93	13	47	45	48	53
94	13	46	45	48	53
95	27	48	49	51	52
96	19	46	45	48	54
97	18	39	38	40	42
98	12	4	9	11	26
99	13	17	16	19	22
100	14	9	11	26	23
101	18	10	9	11	13
102	19	40	57	54	56
103	5	6	3	4	9
104	23	19	20	38	40
105	19	41	40	42	45
106	19	22	19	23	26
107	14	9	11	26	27
108	12	4	9	11	12
109	19	42	40	57	59
110	13	41	40	57	59
111	12	20	38	40	41
112	14	38	40	42	43
113	26	33	32	31	35
114	15	21	20	19	22
114	16	21	20	19	22
114	17	21	20	19	22
115	13	6	3	2	7
116	5	8	2	1	29
117	20	16	13	11	26
117	21	16	13	11	26
117	22	16	13	11	26
118	13	44	42	45	47
119	13	25	23	26	28
120	5	7	2	1	29
121	18	50	49	48	54
122	13	35	31	30	37
123	1	29	30	31	32
123	2	29	30	31	32
124	19	47	45	48	54
125	14	13	16	19	20
126	5	1	29	30	31
127	19	19	23	26	28
128	11	3	4	9	11
129	9	3	4	9	10
129	10	3	4	9	10
130	13	15	13	16	18
131	20	13	11	26	23
131	21	13	11	26	23
131	22	13	11	26	23
132	13	18	16	19	22
133	3	1	2	3	6
133	4	1	2	3	6
134	26	33	32	31	34
135	6	2	1	29	30
136	18	45	48	49	50
137	13	53	48	54	56
138	19	13	11	26	27
139	14	20	19	23	24
140	14	38	40	57	54
141	19	17	16	19	23
142	19	45	48	54	56
143	3	32	31	30	37
143	4	32	31	30	37
144	13	35	31	30	36
145	5	5	3	4	9
146	18	16	19	20	21
147	20	11	26	23	19
147	21	11	26	23	19
147	22	11	26	23	19
148	13	24	23	26	28
149	20	40	42	45	48
149	21	40	42	45	48
149	22	40	42	45	48
150	19	12	11	26	23
151	18	39	38	40	57
152	12	51	49	48	53
153	19	42	40	57	58
154	13	41	40	57	58
155	19	11	13	16	18
156	19	42	45	48	53
157	14	9	11	13	14
158	13	12	11	26	27
159	18	10	9	11	26
160	20	40	57	54	48
160	21	40	57	54	48
160	22	40	57	54	48
161	19	15	13	16	19
162	18	21	20	19	23
163	14	49	48	54	55
164	15	10	9	11	12
164	16	10	9	11	12
164	17	10	9	11	12
165	3	32	31	30	36
165	4	32	31	30	36
166	19	18	16	19	23
167	13	41	40	42	44
168	12	22	19	20	38
169	13	6	3	2	8
170	19	40	57	54	55
171	14	20	19	23	25

Impropers

1	1	49	48	50	51
12	1	9	4	10	11
71	1	49	51	48	50
88	2	20	19	21	38
100	1	9	10	11	4
105	1	9	11	4	10
157	1	49	50	51	48
175	2	20	21	38	19
185	2	38	20	39	40
261	2	20	38	19	21
395	2	38	40	20	39
406	2	38	39	40	20
