Title

11500 atoms
12625 bonds
20750 angles
32875 dihedrals
18750 impropers

8 atom types
11 bond types
6 angle types
8 dihedral types
2 improper types
-10.14411664 106.0991372 xlo xhi
-9.930798974 105.6541822 ylo yhi
-10.51974133 106.1092004 zlo zhi
0.0 0.0 0.0 xy xz yz

Masses

1	15.99943
2	12.01078
3	1.007947
4	12.01078
5	15.99943
6	15.99943
7	1.007947
8	35.4532


Pair Coeffs

1	0.16846514	3.0251065
2	0.086879315	3.4806469
3	0.015611343	2.5725815
4	0.10884061	3.3795318
5	0.2102061	3.0398122
6	0.20947353	2.99716
7	1.2326e-05	0.53453923
8	0.2656001	3.3075278

Bond Coeffs

1 harmonic	425.69104206635	1.362945806494
2 harmonic	300.03137914615	1.451203938761
3 harmonic	360.7852444772	1.387193227181
4 harmonic	397.2545789619	1.085358495916
5 harmonic	289.73813263395	1.498646816465
6 harmonic	301.15400723785	1.345741232799
7 harmonic	279.1350963404	1.454628925034
8 harmonic	582.698766451	1.225198386222
9 harmonic	385.7604595587	1.369745182308
10 harmonic	543.5267831885	0.9716763312559
11 harmonic	218.0227703685	1.746066037062


Angle Coeffs

1 harmonic	57.8982893754	126.8062420451
2 harmonic	65.09061609600001	110.3538806181
3 harmonic	34.066775159195	129.1835929926
4 harmonic	53.20531626545	116.5475862634
5 harmonic	14.32262199324	138.3184368373
6 harmonic	201.41175231035	127.4691416191


Dihedral Coeffs

1 fourier 1	3.661930099076	2	180
2 fourier 1	1.532232714475	2	180
3 fourier 1	0.457973137376	1	0
4 fourier 1	0.02664938770063	3	0
5 fourier 1	2.779853741805	2	180
6 fourier 1	0.9974165607242	2	180
7 fourier 1	1.163235555439	2	180
8 fourier 1	0.8283030590042	2	180


Improper Coeffs

1 0.3666666666666667	-1	2
2 3.5	-1	2


Atoms

1	4	1	-0.0322068	-0.98747015	-2.1397344	-2.5852683
2	4	2	0.27261618	-0.67159	-2.4122129	-1.256062
3	4	2	-0.33685937	-1.1887672	-1.6782018	-0.26061965
4	4	3	0.22348297	-1.8601365	-0.85741692	-0.47643534
5	4	2	-0.13276505	-0.84341562	-1.9814427	1.142425
6	4	3	0.20601319	-1.2531601	-1.3447913	1.9164079
7	4	2	-0.11473553	-0.040320947	-3.0231524	1.4528485
8	4	4	0.20874216	0.36304838	-3.2900487	2.910244
9	4	2	-0.11473553	-0.78751975	-3.1010162	3.9111864
10	4	2	-0.13393685	-0.57360592	-2.6646798	5.1739221
11	4	3	0.20601322	0.41454818	-2.3949924	5.5193235
12	4	2	-0.29666942	-1.6893723	-2.5544219	6.1360778
13	4	3	0.22276329	-1.4948176	-2.172436	7.1304923
14	4	2	0.43290532	-2.926472	-2.9284178	5.7816297
15	4	1	-0.44407993	-3.9883947	-2.8292515	6.6793196
16	4	2	-0.29666939	-3.168247	-3.4587745	4.4272591
17	4	3	0.2227633	-4.1621769	-3.783873	4.147266
18	4	2	-0.13393686	-2.1634015	-3.549743	3.5494685
19	4	3	0.20601321	-2.3634339	-3.9615216	2.5677973
20	4	2	-0.058525216	1.5868672	-2.438492	3.2269516
21	4	2	-0.061157797	1.6793756	-1.0999255	3.2338738
22	4	3	0.20257946	0.82470305	-0.47999008	2.9989164
23	4	2	-0.28270459	2.9809255	-0.4764916	3.5833361
24	4	3	0.2107918	3.0715451	0.60267244	3.5911498
25	4	2	-0.24444437	4.044212	-1.2439667	3.8921463
26	4	3	0.2048807	4.989046	-0.78188558	4.1473534
27	4	2	-0.19795866	3.9276132	-2.7226509	3.8881715
28	4	3	0.19332627	4.7780471	-3.3417218	4.1424754
29	4	2	-0.015303309	2.7461603	-3.2585944	3.5679349
30	4	2	-0.015303262	2.3453923	-4.6446989	3.4951862
31	4	2	-0.19795866	3.054791	-5.7563812	3.7158439
32	4	3	0.1933263	4.0981467	-5.7114714	4.0000094
33	4	2	-0.2444444	2.3714483	-7.06315	3.556913
34	4	3	0.20488073	2.9213482	-7.9791585	3.7293851
35	4	2	-0.28270459	1.073401	-7.1135846	3.1985337
36	4	3	0.21079178	0.58163503	-8.0704812	3.0828439
37	4	2	-0.061157745	0.31085287	-5.8622228	2.9585942
38	4	3	0.20257944	-0.72738373	-5.908273	2.659681
39	4	2	-0.058525313	0.93702604	-4.6856644	3.108699
40	4	2	-0.13276504	0.55966435	-3.8029035	0.32878003
41	4	3	0.20601319	1.2617506	-4.6036642	0.52143325
42	4	2	-0.33685937	0.25182809	-3.5185577	-0.94254302
43	4	3	0.22348295	0.69244491	-4.0941345	-1.7466059
44	5	2	0.62619233	-3.8570138	-2.4596603	7.651815
45	5	5	-0.51033467	-4.4693423	-1.4699123	8.0158559
46	1	1	-0.0322068	-1.6167076	-1.3865479	-2.8410384
47	1	2	0.27261618	-1.1419762	-0.13379611	-3.2240424
48	1	2	-0.33685937	0.17256875	0.12272041	-3.2646106
49	1	3	0.22348297	0.88943463	-0.64242741	-2.9945863
50	1	2	-0.13276505	0.65729619	1.4556277	-3.6740754
51	1	3	0.20601319	1.7247327	1.6354097	-3.6606323
52	1	2	-0.11473553	-0.20555561	2.4232985	-4.0559995
53	1	4	0.20874216	0.30549837	3.8256274	-4.4185011
54	1	2	-0.11473553	1.5994323	3.8133618	-5.2494971
55	1	2	-0.08665954	2.5266768	4.7927501	-5.1462437
56	1	3	0.20601322	2.4118834	5.6075973	-4.4445661
57	1	2	-0.43452307	3.7292545	4.7904593	-6.0030766
58	1	3	0.22854562	4.4698961	5.5701583	-5.8789053
59	1	2	0.42617536	3.8963829	3.8369653	-6.9307544
60	1	6	-0.6525591	5.0264224	3.8226251	-7.7468072
61	1	7	0.4310388	5.7527337	4.5242373	-7.6652398
62	1	2	-0.43452295	2.8692538	2.7913614	-7.0958348
63	1	3	0.22854564	2.9905586	2.0349637	-7.8600524
64	1	2	-0.086659533	1.7843616	2.7836452	-6.3136677
65	1	3	0.20601321	1.0348007	2.0176795	-6.4685772
66	1	2	-0.058525216	0.42153507	4.6348903	-3.1331392
67	1	2	-0.061157797	1.2157843	4.3975925	-2.0782345
68	1	3	0.20257946	1.8851647	3.5483245	-2.0635823
69	1	2	-0.28270459	1.1699894	5.3316157	-0.92466941
70	1	3	0.2107918	1.8025918	5.151909	-0.066077079
71	1	2	-0.24444437	0.34807041	6.398818	-0.94314469
72	1	3	0.2048807	0.3211019	7.0766114	-0.099283984
73	1	2	-0.19795866	-0.52058585	6.6568117	-2.1180338
74	1	3	0.19332627	-1.1763762	7.5162998	-2.139676
75	1	2	-0.015303309	-0.46134868	5.7984021	-3.1417764
76	1	2	-0.015303262	-1.1726063	5.8058213	-4.4011884
77	1	2	-0.19795866	-2.0859834	6.6640583	-4.8648096
78	1	3	0.1933263	-2.4048857	7.5181056	-4.2830523
79	1	2	-0.2444444	-2.6587677	6.4123367	-6.2108539
80	1	3	0.20488073	-3.3997408	7.0909992	-6.6121381
81	1	2	-0.28270459	-2.261375	5.3451059	-6.9306729
82	1	3	0.21079178	-2.684524	5.1659352	-7.9104733
83	1	2	-0.061157745	-1.2454096	4.406931	-6.3877637
84	1	3	0.20257944	-0.93789926	3.5453763	-6.9638764
85	1	2	-0.058525313	-0.73165592	4.6465976	-5.1713962
86	1	2	-0.13276504	-1.6675916	2.1331095	-3.9652958
87	1	3	0.20601319	-2.3996741	2.8951628	-4.1943216
88	1	2	-0.33685937	-2.1029032	0.92666563	-3.5835813
89	1	3	0.22348295	-3.1656785	0.73012589	-3.5243371
90	2	2	0.46578586	-3.1769733	-2.9580446	8.3341258
91	2	5	-0.59095692	-2.4981526	-3.8931653	7.9443238
92	2	8	-0.092045222	-3.0526072	-2.4176902	9.9977361
93	4	1	-0.0322068	-0.98637326	2.4462653	23.756476
94	4	2	0.27261618	0.28505714	2.0347311	23.362879
95	4	2	-0.33685937	0.59208334	1.8916257	22.065803
96	4	3	0.22348297	-0.14787422	2.0918563	21.302016
97	4	2	-0.13276505	1.9448016	1.4550109	21.666707
98	4	3	0.20601319	2.1444699	1.3172409	20.611521
99	4	2	-0.11473553	2.9065422	1.2342874	22.590189
100	4	4	0.20874216	4.2901471	0.71925335	22.16791
101	4	2	-0.11473553	4.8277092	1.3791168	20.888444
102	4	2	-0.13393685	5.6230221	0.71360588	20.019409
103	4	3	0.20601322	5.8829802	-0.32451027	20.171786
104	4	2	-0.29666942	6.1795656	1.3917776	18.830638
105	4	3	0.22276329	6.7873954	0.82660939	18.135114
106	4	2	0.43290532	5.9378704	2.6930261	18.620262
107	4	1	-0.44407993	6.4563561	3.3451793	17.502573
108	4	2	-0.29666939	5.1190604	3.4483183	19.586252
109	4	3	0.2227633	4.9429107	4.5050582	19.430515
110	4	2	-0.13393686	4.6039559	2.835804	20.6577
111	4	3	0.20601321	4.0227965	3.4177384	21.362582
112	4	2	-0.058525216	4.2244259	-0.8011663	22.083117
113	4	2	-0.061157797	3.4715449	-1.5484058	21.261431
114	4	3	0.20257946	2.8064587	-1.0898687	20.54213
115	4	2	-0.28270459	3.5744415	-3.0272335	21.346912
116	4	3	0.2107918	2.9714869	-3.6436135	20.691633
117	4	2	-0.24444437	4.4129811	-3.6030817	22.230207
118	4	3	0.2048807	4.4834218	-4.6816771	22.285261
119	4	2	-0.19795866	5.2456296	-2.7662984	23.12832
120	4	3	0.19332627	5.9252115	-3.2258122	23.834134
121	4	2	-0.015303309	5.1325291	-1.4382392	23.033004
122	4	2	-0.015303262	5.8169961	-0.39431501	23.760273
123	4	2	-0.19795866	6.7337505	-0.48234384	24.729596
124	4	3	0.1933263	7.0815689	-1.441659	25.090282
125	4	2	-0.2444444	7.2638675	0.7776864	25.305061
126	4	3	0.20488073	8.0069234	0.73623338	26.090783
127	4	2	-0.28270459	6.8241066	1.9694929	24.855491
128	4	3	0.21079178	7.2140425	2.8847765	25.28102
129	4	2	-0.061157745	5.80396	2.0365575	23.778569
130	4	3	0.20257944	5.4456309	2.9952713	23.429466
131	4	2	-0.058525313	5.3338274	0.89141734	23.262291
132	4	2	-0.13276504	2.5337669	1.3579503	24.031463
133	4	3	0.20601319	3.2477942	1.1268353	24.811212
134	4	2	-0.33685937	1.3032357	1.7445176	24.389565
135	4	3	0.22348295	1.0484335	1.8322536	25.438053
136	5	2	0.62619233	7.0449048	2.8439256	16.794081
137	5	5	-0.51033467	6.6828167	2.7871486	15.631007
138	1	1	-0.0322068	-1.7137123	2.6533159	23.080639
139	1	2	0.27261618	-2.6781497	1.7105402	22.730662
140	1	2	-0.33685937	-2.676169	0.48670122	23.276271
141	1	3	0.22348297	-1.918294	0.20897285	23.997903
142	1	2	-0.13276505	-3.7067177	-0.49886004	22.894299
143	1	3	0.20601319	-3.651319	-1.4882561	23.330131
144	1	2	-0.11473553	-4.6916793	-0.17580339	22.026975
145	1	4	0.20874216	-5.7207498	-1.2280982	21.587886
146	1	2	-0.11473553	-6.2033876	-2.1327043	22.734061
147	1	2	-0.08665954	-6.5558543	-3.4224449	22.529168
148	1	3	0.20601322	-6.476161	-3.8816074	21.553297
149	1	2	-0.43452307	-7.07773	-4.2497915	23.635289
150	1	3	0.22854562	-7.3241867	-5.2875353	23.450233
151	1	2	0.42617536	-7.2522961	-3.7174334	24.853398
152	1	6	-0.6525591	-7.7444519	-4.4864784	25.906721
153	1	7	0.4310388	-7.9822176	-5.4641682	25.788268
154	1	2	-0.43452295	-6.9253368	-2.2976038	25.082995
155	1	3	0.22854564	-7.088177	-1.8598083	26.059058
156	1	2	-0.086659533	-6.4414977	-1.5482895	24.086369
157	1	3	0.20601321	-6.2289497	-0.50338155	24.274871
158	1	2	-0.058525216	-5.1356831	-2.0022984	20.413647
159	1	2	-0.061157797	-4.0390552	-2.7750749	20.399871
160	1	3	0.20257946	-3.4449841	-2.9167211	21.292372
161	1	2	-0.28270459	-3.6544924	-3.4476011	19.132974
162	1	3	0.2107918	-2.7716017	-4.0716423	19.105812
163	1	2	-0.24444437	-4.3983916	-3.2857527	18.021564
164	1	3	0.2048807	-4.1130178	-3.7804808	17.101761
165	1	2	-0.19795866	-5.6139115	-2.4353238	18.049332
166	1	3	0.19332627	-6.217615	-2.3087124	17.16121
167	1	2	-0.015303309	-5.9356151	-1.8393839	19.202496
168	1	2	-0.015303262	-7.0529809	-0.9781985	19.521737
169	1	2	-0.19795866	-8.0476997	-0.54073586	18.743962
170	1	3	0.1933263	-8.1155122	-0.82252419	17.702072
171	1	2	-0.2444444	-9.0663013	0.35182943	19.351464
172	1	3	0.20488073	-9.8834091	0.7208353	18.745806
173	1	2	-0.28270459	-8.9759542	0.70337279	20.648883
174	1	3	0.21079178	-9.7206073	1.3562744	21.085206
175	1	2	-0.061157745	-7.8570739	0.20278537	21.488304
176	1	3	0.20257944	-7.7819705	0.49669345	22.525957
177	1	2	-0.058525313	-6.9441651	-0.60664364	20.929417
178	1	2	-0.13276504	-4.6543491	1.1781153	21.39809
179	1	3	0.20601319	-5.3795319	1.4614703	20.647795
180	1	2	-0.33685937	-3.7121619	2.0649345	21.739475
181	1	3	0.22348295	-3.6987132	3.0433495	21.276709
182	2	2	0.46578586	7.9760234	2.3764904	17.095598
183	2	5	-0.59095692	8.2951153	2.3556079	18.272432
184	2	8	-0.092045222	9.0218462	1.6492128	15.890454
185	4	1	-0.0322068	-1.1499242	-3.1774399	42.012458
186	4	2	0.27261618	-1.5103765	-2.3538987	43.076726
187	4	2	-0.33685937	-1.7835409	-1.056015	42.881716
188	4	3	0.22348297	-1.7248232	-0.62643698	41.890244
189	4	2	-0.13276505	-2.1644294	-0.19798044	44.021215
190	4	3	0.20601319	-2.3435445	0.85250207	43.829723
191	4	2	-0.11473553	-2.2870306	-0.70768298	45.266869
192	4	4	0.20874216	-2.6213201	0.20651092	46.45449
193	4	2	-0.11473553	-3.6857482	1.2673079	46.133353
194	4	2	-0.13393685	-3.6815952	2.4863827	46.720285
195	4	3	0.20601322	-2.9050309	2.777664	47.413528
196	4	2	-0.29666942	-4.7541656	3.4638744	46.442909
197	4	3	0.22276329	-4.7089777	4.4435633	46.90203
198	4	2	0.43290532	-5.7732289	3.137748	45.636017
199	4	1	-0.44407993	-6.7915705	4.0504988	45.365411
200	4	2	-0.29666939	-5.8235933	1.7939258	45.031321
201	4	3	0.2227633	-6.6584297	1.5206052	44.398607
202	4	2	-0.13393686	-4.8490589	0.90990177	45.270674
203	4	3	0.20601321	-4.920025	-0.077255578	44.830518
204	4	2	-0.058525216	-1.3179633	0.79662872	46.980044
205	4	2	-0.061157797	-0.46199213	1.6056755	46.337297
206	4	3	0.20257946	-0.65096461	1.9241651	45.321008
207	4	2	-0.28270459	0.75349795	2.0708754	47.052139
208	4	3	0.2107918	1.4547095	2.7225647	46.545709
209	4	2	-0.24444437	0.98544958	1.6898073	48.323338
210	4	3	0.2048807	1.8729274	2.0345008	48.838052
211	4	2	-0.19795866	0.028039225	0.80100734	49.025846
212	4	3	0.19332627	0.20808854	0.49872559	50.049255
213	4	2	-0.015303309	-1.0566288	0.39466889	48.359511
214	4	2	-0.015303262	-2.1469166	-0.45025561	48.789125
215	4	2	-0.19795866	-2.350779	-1.0590877	49.961958
216	4	3	0.1933263	-1.6461316	-0.96064853	50.777519
217	4	2	-0.2444444	-3.574911	-1.8820097	50.117397
218	4	3	0.20488073	-3.7654289	-2.3859681	51.055979
219	4	2	-0.28270459	-4.4467806	-2.0049346	49.09728
220	4	3	0.21079178	-5.3370227	-2.6082338	49.217147
221	4	2	-0.061157745	-4.1934728	-1.3182124	47.805303
222	4	3	0.20257944	-4.8902076	-1.4295724	46.985813
223	4	2	-0.058525313	-3.0855336	-0.57340169	47.6763
224	4	2	-0.13276504	-1.937787	-2.1456042	45.471651
225	4	3	0.20601319	-1.9544528	-2.5854278	46.460355
226	4	2	-0.33685937	-1.5832458	-2.9179744	44.437426
227	4	3	0.22348295	-1.3354866	-3.9590585	44.600852
228	5	2	0.62619233	-6.7932222	5.0146507	45.777739
229	5	5	-0.51033467	-6.7800789	5.9905139	45.046582
230	1	1	-0.0322068	-1.0869586	-2.8263116	41.063041
231	1	2	0.27261618	0.12773837	-2.4284317	40.508377
232	1	2	-0.33685937	1.2633644	-2.4928542	41.21667
233	1	3	0.22348297	1.2534272	-2.8528046	42.237746
234	1	2	-0.13276505	2.5413652	-2.0681033	40.61205
235	1	3	0.20601319	3.4315791	-2.1016884	41.227123
236	1	2	-0.11473553	2.5994257	-1.6506743	39.327859
237	1	4	0.20874216	3.9225408	-1.1507643	38.729054
238	1	2	-0.11473553	5.1418208	-1.991952	39.142249
239	1	2	-0.08665954	6.3710695	-1.4473513	39.290581
240	1	3	0.20601322	6.5385393	-0.38692241	39.160391
241	1	2	-0.43452307	7.5371684	-2.2894143	39.624504
242	1	3	0.22854562	8.5039245	-1.823515	39.766699
243	1	2	0.42617536	7.4001635	-3.6180426	39.741317
244	1	6	-0.6525591	8.4922843	-4.4252446	40.055696
245	1	7	0.4310388	9.4162541	-4.0381257	40.20689
246	1	2	-0.43452295	6.0781977	-4.2368258	39.529074
247	1	3	0.22854564	5.970402	-5.3112328	39.599151
248	1	2	-0.086659533	5.0174496	-3.4759846	39.237921
249	1	3	0.20601321	4.0622222	-3.9561598	39.066124
250	1	2	-0.058525216	4.0670871	0.32764815	39.066588
251	1	2	-0.061157797	4.1701168	0.89008242	40.280268
252	1	3	0.20257946	4.1586525	0.28671485	41.177685
253	1	2	-0.28270459	4.3116751	2.3652962	40.374684
254	1	3	0.2107918	4.393233	2.8332561	41.346293
255	1	2	-0.24444437	4.3403098	3.1206763	39.259608
256	1	3	0.2048807	4.4454617	4.195553	39.335866
257	1	2	-0.19795866	4.2336151	2.4881342	37.921701
258	1	3	0.19332627	4.2634261	3.0903369	37.024087
259	1	2	-0.015303309	4.1043155	1.1582562	37.865746
260	1	2	-0.015303262	3.9935587	0.28426468	36.718604
261	1	2	-0.19795866	3.9763332	0.57854464	35.415195
262	1	3	0.1933263	4.055227	1.5988956	35.065629
263	1	2	-0.2444444	3.8431667	-0.54104128	34.449755
264	1	3	0.20488073	3.8270199	-0.33264508	33.38817
265	1	2	-0.28270459	3.7414275	-1.810355	34.88968
266	1	3	0.21079178	3.6423005	-2.6219406	34.180688
267	1	2	-0.061157745	3.7614337	-2.1064446	36.345371
268	1	3	0.20257944	3.6678558	-3.1253397	36.694429
269	1	2	-0.058525313	3.8861244	-1.0867207	37.208823
270	1	2	-0.13276504	1.3186475	-1.5465027	38.567108
271	1	3	0.20601319	1.3021627	-1.1543138	37.559617
272	1	2	-0.33685937	0.16081585	-1.9228025	39.122566
273	1	3	0.22348295	-0.75952214	-1.8434987	38.558369
274	2	2	0.46578586	-6.8072496	5.1439635	46.854527
275	2	5	-0.59095692	-6.7306482	4.1717961	47.586795
276	2	8	-0.092045222	-6.9384514	6.751678	47.542342
277	4	1	-0.0322068	1.5298251	-3.0198592	63.494313
278	4	2	0.27261618	1.7389708	-1.7270582	63.019195
279	4	2	-0.33685937	1.8842322	-0.69726912	63.865116
280	4	3	0.22348297	1.8379359	-0.85566453	64.934587
281	4	2	-0.13276505	2.1056629	0.6662389	63.343991
282	4	3	0.20601319	2.1835103	1.4772027	64.057113
283	4	2	-0.11473553	2.2091301	0.89650903	62.016304
284	4	4	0.20874216	2.3755788	2.3269105	61.483211
285	4	2	-0.11473553	3.3387008	3.1858654	62.317488
286	4	2	-0.13393685	3.1717238	4.5215939	62.453862
287	4	3	0.20601322	2.3298907	5.0345147	62.01034
288	4	2	-0.29666942	4.1492015	5.3337646	63.207354
289	4	3	0.22276329	3.974195	6.3956425	63.327408
290	4	2	0.43290532	5.2420294	4.7615446	63.731008
291	4	1	-0.44407993	6.1721256	5.5159241	64.444586
292	4	2	-0.29666939	5.4690969	3.3166047	63.544885
293	4	3	0.2227633	6.363374	2.8573242	63.946522
294	4	2	-0.13393686	4.5812612	2.5755779	62.873221
295	4	3	0.20601321	4.7815495	1.5203317	62.733245
296	4	2	-0.058525216	0.98891189	2.9421948	61.335681
297	4	2	-0.061157797	0.090868998	3.1899637	62.301339
298	4	3	0.20257946	0.30363762	2.954507	63.335398
299	4	2	-0.28270459	-1.2063259	3.8084144	61.927667
300	4	3	0.2107918	-1.9419953	4.0124506	62.6958
301	4	2	-0.24444437	-1.469904	4.1181042	60.643308
302	4	3	0.2048807	-2.4171517	4.5701687	60.379262
303	4	2	-0.19795866	-0.46619068	3.8460969	59.585627
304	4	3	0.19332627	-0.67222675	4.100038	58.554017
305	4	2	-0.015303309	0.69210497	3.2868867	59.947916
306	4	2	-0.015303262	1.8388892	2.9263052	59.146629
307	4	2	-0.19795866	2.0377207	3.0446722	57.829728
308	4	3	0.1933263	1.2805839	3.4665952	57.18159
309	4	2	-0.2444444	3.3309218	2.5764614	57.274507
310	4	3	0.20488073	3.5189825	2.6603277	56.212053
311	4	2	-0.28270459	4.2684937	2.0477406	58.085259
312	4	3	0.21079178	5.2090818	1.7066906	57.673133
313	4	2	-0.061157745	4.0192416	1.9274625	59.54415
314	4	3	0.20257944	4.7701168	1.4916141	60.188842
315	4	2	-0.058525313	2.848113	2.3572963	60.036709
316	4	2	-0.13276504	2.0025823	-0.25585302	61.088444
317	4	3	0.20601319	2.0083765	-0.11262609	60.015733
318	4	2	-0.33685937	1.7921556	-1.4890467	61.564713
319	4	3	0.22348295	1.6467961	-2.3148944	60.880027
320	5	2	0.62619233	6.047969	6.5459982	64.5967
321	5	5	-0.51033467	5.9740938	6.9904715	65.729863
322	1	1	-0.0322068	1.4851702	-3.2233074	64.486917
323	1	2	0.27261618	0.26938228	-3.3208834	65.160555
324	1	2	-0.33685937	-0.89216388	-3.1443403	64.516258
325	1	3	0.22348297	-0.90336716	-2.9175326	63.45763
326	1	2	-0.13276505	-2.1707423	-3.2527396	65.246156
327	1	3	0.20601319	-3.086528	-3.0689629	64.698903
328	1	2	-0.11473553	-2.1981536	-3.5733235	66.558879
329	1	4	0.20874216	-3.5297994	-3.6205413	67.322816
330	1	2	-0.11473553	-4.6751899	-4.2645244	66.523856
331	1	2	-0.08665954	-5.9616365	-3.874695	66.674631
332	1	3	0.20601322	-6.2324481	-3.0652093	67.338634
333	1	2	-0.43452307	-7.0495513	-4.5541765	65.943121
334	1	3	0.22854562	-8.0667439	-4.2025237	66.059563
335	1	2	0.42617536	-6.7798559	-5.6012029	65.150234
336	1	6	-0.6525591	-7.7968857	-6.2524299	64.454037
337	1	7	0.4310388	-8.7637968	-5.9576109	64.521902
338	1	2	-0.43452295	-5.3898258	-6.0758214	65.015747
339	1	3	0.22854564	-5.173295	-6.9355305	64.395348
340	1	2	-0.086659533	-4.4003839	-5.4555384	65.667736
341	1	3	0.20601321	-3.3914129	-5.8360283	65.56901
342	1	2	-0.058525216	-3.8491215	-2.2117791	67.806498
343	1	2	-0.061157797	-4.0811273	-1.1181228	67.064841
344	1	3	0.20257946	-4.0579226	-1.1612977	65.984499
345	1	2	-0.28270459	-4.3830689	0.16205977	67.754169
346	1	3	0.2107918	-4.5697565	1.0526747	67.169691
347	1	2	-0.24444437	-4.4267861	0.21877335	69.099414
348	1	3	0.2048807	-4.6492147	1.155179	69.595299
349	1	2	-0.19795866	-4.1765381	-0.99826329	69.910393
350	1	3	0.19332627	-4.2178212	-0.95838537	70.990187
351	1	2	-0.015303309	-3.9043565	-2.1369809	69.264123
352	1	2	-0.015303262	-3.6355971	-3.4587716	69.786329
353	1	2	-0.19795866	-3.5741401	-3.8844687	71.051548
354	1	3	0.1933263	-3.740083	-3.2121365	71.882192
355	1	2	-0.2444444	-3.2676921	-5.3170186	71.290653
356	1	3	0.20488073	-3.2122284	-5.6899515	72.304802
357	1	2	-0.28270459	-3.0579834	-6.1503352	70.253037
358	1	3	0.21079178	-2.8327345	-7.193224	70.434177
359	1	2	-0.061157745	-3.1308265	-5.6474347	68.857009
360	1	3	0.20257944	-2.9504309	-6.3170316	68.027646
361	1	2	-0.058525313	-3.4123987	-4.3513146	68.652748
362	1	2	-0.13276504	-0.89367816	-3.7259978	67.269527
363	1	3	0.20601319	-0.86044008	-3.9152933	68.333569
364	1	2	-0.33685937	0.2633317	-3.6165959	66.60615
365	1	3	0.22348295	1.2012432	-3.7316468	67.134084
366	2	2	0.46578586	5.9858792	7.2161978	63.74619
367	2	5	-0.59095692	5.9702089	6.7646242	62.613481
368	2	8	-0.092045222	5.906345	8.949436	64.000372
369	4	1	-0.0322068	-0.82337042	0.47832806	89.200652
370	4	2	0.27261618	-1.3346755	-0.41541594	88.262248
371	4	2	-0.33685937	-0.51781533	-1.1413863	87.485809
372	4	3	0.22348297	0.55593473	-1.0409808	87.575143
373	4	2	-0.13276505	-1.0771088	-2.0841913	86.496837
374	4	3	0.20601319	-0.38640223	-2.6270368	85.86398
375	4	2	-0.11473553	-2.4115997	-2.2657759	86.384391
376	4	4	0.20874216	-2.983855	-3.2010059	85.309304
377	4	2	-0.11473553	-2.1851897	-4.5026573	85.138239
378	4	2	-0.13393685	-2.0813236	-5.1270706	83.942426
379	4	3	0.20601322	-2.526663	-4.7141149	83.048209
380	4	2	-0.29666942	-1.3623861	-6.4118896	83.819122
381	4	3	0.22276329	-1.2676119	-6.8738108	82.844303
382	4	2	0.43290532	-0.83878174	-6.999777	84.903625
383	4	1	-0.44407993	-0.15760383	-8.2117708	84.801504
384	4	2	-0.29666939	-0.99034701	-6.3615251	86.224124
385	4	3	0.2227633	-0.58897263	-6.8470035	87.104573
386	4	2	-0.13393686	-1.630544	-5.192967	86.338692
387	4	3	0.20601321	-1.7457428	-4.755099	87.322691
388	4	2	-0.058525216	-3.1286656	-2.405495	84.017261
389	4	2	-0.061157797	-2.1577858	-1.8321412	83.28992
390	4	3	0.20257946	-1.1209124	-1.9002415	83.59033
391	4	2	-0.28270459	-2.5299255	-1.1062106	82.04921
392	4	3	0.2107918	-1.7575332	-0.63653706	81.452816
393	4	2	-0.24444437	-3.8182366	-1.0319828	81.662293
394	4	3	0.2048807	-4.0811803	-0.50237385	80.755796
395	4	2	-0.19795866	-4.8818909	-1.6761501	82.470875
396	4	3	0.19332627	-5.9168866	-1.6241464	82.159048
397	4	2	-0.015303309	-4.5208005	-2.3211265	83.584086
398	4	2	-0.015303262	-5.3277919	-3.0393533	84.543308
399	4	2	-0.19795866	-6.6498769	-3.2361585	84.57697
400	4	3	0.1933263	-7.2985202	-2.8359526	83.808559
401	4	2	-0.2444444	-7.2100808	-4.0201135	85.704555
402	4	3	0.20488073	-8.2767859	-4.195039	85.756989
403	4	2	-0.28270459	-6.3985441	-4.512357	86.661116
404	4	3	0.21079178	-6.8142777	-5.0820529	87.481775
405	4	2	-0.061157745	-4.9338028	-4.2766446	86.598431
406	4	3	0.20257944	-4.2881583	-4.6637039	87.37479
407	4	2	-0.058525313	-4.436878	-3.5697307	85.572637
408	4	2	-0.13276504	-3.3063555	-1.4176776	87.227994
409	4	3	0.20601319	-4.3824064	-1.4760619	87.128175
410	4	2	-0.33685937	-2.7954316	-0.55674812	88.116608
411	4	3	0.22348295	-3.4564209	0.049364146	88.722966
412	5	2	0.62619233	-0.030641392	-8.6983057	83.881302
413	5	5	-0.51033467	1.0914855	-8.9190974	83.458035
414	1	1	-0.0322068	0.17469352	0.60494368	89.329045
415	1	2	0.27261618	0.86691828	1.6433382	88.70936
416	1	2	-0.33685937	0.23392367	2.5155077	87.913047
417	1	3	0.22348297	-0.82999221	2.4232975	87.734606
418	1	2	-0.13276505	0.98350963	3.6102604	87.265821
419	1	3	0.20601319	0.44402628	4.2735982	86.601846
420	1	2	-0.11473553	2.3043659	3.7809208	87.495995
421	1	4	0.20874216	3.0871007	4.8837279	86.76781
422	1	2	-0.11473553	2.3206041	6.2124057	86.657954
423	1	2	-0.08665954	2.47848	7.0457407	85.604259
424	1	3	0.20601322	3.1248128	6.7918908	84.775212
425	1	2	-0.43452307	1.7795534	8.3455366	85.555339
426	1	3	0.22854562	1.9004832	8.9798793	84.686498
427	1	2	0.42617536	1.0105762	8.738483	86.580979
428	1	6	-0.6525591	0.34526077	9.9630007	86.548596
429	1	7	0.4310388	0.41843502	10.589489	85.755753
430	1	2	-0.43452295	0.86979125	7.8676299	87.763065
431	1	3	0.22854564	0.26907652	8.1935299	88.602
432	1	2	-0.086659533	1.4920917	6.6845204	87.805843
433	1	3	0.20601321	1.3897289	6.0728561	88.693498
434	1	2	-0.058525216	3.5382772	4.3342425	85.420579
435	1	2	-0.061157797	2.7716494	3.9234272	84.399071
436	1	3	0.20257946	1.6925792	3.9567334	84.462626
437	1	2	-0.28270459	3.4314897	3.4273258	83.164687
438	1	3	0.2107918	2.8266391	3.0904292	82.333834
439	1	2	-0.24444437	4.7752743	3.3963737	83.074699
440	1	3	0.2048807	5.249615	3.0350006	82.171016
441	1	2	-0.19795866	5.6141537	3.8604315	84.207139
442	1	3	0.19332627	6.6930046	3.8438867	84.136034
443	1	2	-0.015303309	4.9940789	4.2995999	85.307622
444	1	2	-0.015303262	5.5467807	4.815349	86.540742
445	1	2	-0.19795866	6.8216889	4.9737842	86.908547
446	1	3	0.1933263	7.6367451	4.7072043	86.249642
447	1	2	-0.2444444	7.0937815	5.5287079	88.258104
448	1	3	0.20488073	8.1164375	5.6686021	88.582538
449	1	2	-0.28270459	6.0754346	5.8560091	89.07718
450	1	3	0.21079178	6.2805576	6.2580337	90.060779
451	1	2	-0.061157745	4.667921	5.6664917	88.64118
452	1	3	0.20257944	3.8538803	5.9195937	89.306027
453	1	2	-0.058525313	4.4338669	5.1676505	87.417534
454	1	2	-0.13276504	3.0011424	2.7758811	88.352957
455	1	3	0.20601319	4.0691992	2.8285252	88.512976
456	1	2	-0.33685937	2.3196572	1.7788728	88.929378
457	1	3	0.22348295	2.8377477	1.0588125	89.549639
458	2	2	0.46578586	-0.89736066	-9.0057291	83.306256
459	2	5	-0.59095692	-2.0176456	-8.7072374	83.684486
460	2	8	-0.092045222	-0.68723637	-9.930799	81.831419
461	4	1	-0.0322068	1.2127321	20.100578	2.9869898
462	4	2	0.27261618	1.3999409	21.36128	2.4244961
463	4	2	-0.33685937	0.36236717	22.064554	1.9491064
464	4	3	0.22348297	-0.64027344	21.659843	1.9929454
465	4	2	-0.13276505	0.57914945	23.399403	1.3567035
466	4	3	0.20601319	-0.27840844	23.92193	0.95195044
467	4	2	-0.11473553	1.8110039	23.954139	1.3208415
468	4	4	0.20874216	2.0345071	25.314839	0.64520704
469	4	2	-0.11473553	0.92511731	26.33681	0.93890221
470	4	2	-0.13393685	0.56313182	27.279335	0.038201564
471	4	3	0.20601322	1.0158017	27.328158	-0.94220056
472	4	2	-0.29666942	-0.46092501	28.290949	0.37103786
473	4	3	0.22276329	-0.75403813	29.014111	-0.37979303
474	4	2	0.43290532	-1.0156686	28.314675	1.5907176
475	4	1	-0.44407993	-1.9833017	29.263336	1.9179642
476	4	2	-0.29666939	-0.59313817	27.329891	2.6034965
477	4	3	0.2227633	-1.0226774	27.362824	3.5966699
478	4	2	-0.13393686	0.32527049	26.405377	2.3029874
479	4	3	0.20601321	0.63291408	25.706203	3.0709486
480	4	2	-0.058525216	2.2571142	25.074148	-0.84331535
481	4	2	-0.061157797	1.3986798	24.547265	-1.7297975
482	4	3	0.20257946	0.40846281	24.232663	-1.4289893
483	4	2	-0.28270459	1.8277893	24.412002	-3.1448575
484	4	3	0.2107918	1.1466423	23.986649	-3.8714812
485	4	2	-0.24444437	3.0543296	24.816911	-3.527751
486	4	3	0.2048807	3.3590223	24.716419	-4.5613973
487	4	2	-0.19795866	3.9918508	25.404617	-2.5399382
488	4	3	0.19332627	4.9752352	25.737132	-2.8457907
489	4	2	-0.015303309	3.5821931	25.513059	-1.2726423
490	4	2	-0.015303262	4.2671564	26.048598	-0.11885918
491	4	2	-0.19795866	5.4962635	26.564142	-0.012631559
492	4	3	0.1933263	6.1530347	26.63544	-0.86990986
493	4	2	-0.2444444	5.9418435	27.036583	1.3208297
494	4	3	0.20488073	6.9317653	27.458517	1.4358698
495	4	2	-0.28270459	5.1218153	26.941376	2.3859097
496	4	3	0.21079178	5.4540565	27.286554	3.3561349
497	4	2	-0.061157745	3.7622214	26.362882	2.2382391
498	4	3	0.20257944	3.1123212	26.277809	3.0983538
499	4	2	-0.058525313	3.3675609	25.942108	1.0274104
500	4	2	-0.13276504	2.9600714	23.138389	1.816544
501	4	3	0.20601319	3.9744541	23.509343	1.7481376
502	4	2	-0.33685937	2.7606331	21.924328	2.3439492
503	4	3	0.22348295	3.6029143	21.345849	2.701543
504	5	2	0.62619233	-2.3087219	29.981648	1.22678
505	5	5	-0.51033467	-3.4835697	30.028265	0.90331038
506	1	1	-0.0322068	0.29308532	19.678936	3.0585116
507	1	2	0.27261618	-0.17130167	18.769352	2.1106446
508	1	2	-0.33685937	0.58533324	18.420001	1.0613912
509	1	3	0.22348297	1.5725972	18.844998	0.93120378
510	1	2	-0.13276505	0.0771967	17.453751	0.067700474
511	1	3	0.20601319	0.70346007	17.223211	-0.78468941
512	1	2	-0.11473553	-1.1337474	16.872471	0.2176815
513	1	4	0.20874216	-1.6790561	15.917704	-0.85477707
514	1	2	-0.11473553	-0.61897091	14.958304	-1.4211184
515	1	2	-0.08665954	-0.65766213	14.522494	-2.7010468
516	1	3	0.20601322	-1.4179752	14.862569	-3.3908135
517	1	2	-0.43452307	0.3354924	13.550601	-3.2004762
518	1	3	0.22854562	0.29937178	13.241345	-4.2372766
519	1	2	0.42617536	1.2661997	13.050576	-2.3749895
520	1	6	-0.6525591	2.2096784	12.132129	-2.8326345
521	1	7	0.4310388	2.2244255	11.816755	-3.7953197
522	1	2	-0.43452295	1.2905	13.472104	-0.96174608
523	1	3	0.22854564	2.0256252	13.051582	-0.28822314
524	1	2	-0.086659533	0.39973596	14.36101	-0.50873177
525	1	3	0.20601321	0.42526743	14.638497	0.5376387
526	1	2	-0.058525216	-2.3708375	16.752283	-1.9250305
527	1	2	-0.061157797	-1.8246122	17.672798	-2.7338911
528	1	3	0.20257946	-0.76996039	17.90627	-2.6815322
529	1	2	-0.28270459	-2.694311	18.365706	-3.7181222
530	1	3	0.2107918	-2.268748	19.111964	-4.3751276
531	1	2	-0.24444437	-4.0060332	18.069145	-3.7971744
532	1	3	0.2048807	-4.6338672	18.577081	-4.5183244
533	1	2	-0.19795866	-4.5988191	17.043783	-2.9034592
534	1	3	0.19332627	-5.6497607	16.797806	-2.968774
535	1	2	-0.015303309	-3.7935571	16.437258	-2.0247636
536	1	2	-0.015303262	-4.0885157	15.406645	-1.0537351
537	1	2	-0.19795866	-5.245937	14.80177	-0.77040657
538	1	3	0.1933263	-6.1569984	15.050932	-1.2971154
539	1	2	-0.2444444	-5.2501506	13.770376	0.29706231
540	1	3	0.20488073	-6.1727616	13.263629	0.54736196
541	1	2	-0.28270459	-4.1136598	13.465692	0.95326238
542	1	3	0.21079178	-4.1239046	12.714366	1.7320878
543	1	2	-0.061157745	-2.8421519	14.156837	0.61756188
544	1	3	0.20257944	-1.9348947	13.917552	1.1545647
545	1	2	-0.058525313	-2.849462	15.084771	-0.35188047
546	1	2	-0.13276504	-1.9795606	17.304287	1.3701229
547	1	3	0.20601319	-2.9823033	16.920169	1.4969433
548	1	2	-0.33685937	-1.5190841	18.18838	2.2628995
549	1	3	0.22348295	-2.1427204	18.490626	3.0943766
550	2	2	0.46578586	-1.6004972	30.683568	0.80002988
551	2	5	-0.59095692	-0.41210035	30.581637	1.0540318
552	2	8	-0.092045222	-2.1646117	31.96421	-0.25674769
553	4	1	-0.0322068	-1.9573106	20.64112	24.240328
554	4	2	0.27261618	-2.3244952	21.121566	22.985274
555	4	2	-0.33685937	-1.8298754	20.573799	21.866144
556	4	3	0.22348297	-1.1324315	19.748285	21.92182
557	4	2	-0.13276505	-2.2303978	21.095434	20.544313
558	4	3	0.20601319	-1.7830539	20.650152	19.664613
559	4	2	-0.11473553	-3.1293835	22.098528	20.434266
560	4	4	0.20874216	-3.4900516	22.675396	19.057645