Title

378 atoms
413 bonds
694 angles
1081 dihedrals
576 impropers

10 atom types
13 bond types
8 angle types
17 dihedral types
3 improper types
-10.33050828 13.20426119 xlo xhi
-17.80172689 16.32163814 ylo yhi
-20.18181955 21.80949571 zlo zhi
0.0 0.0 0.0 xy xz yz

Masses

1	12.01078
2	15.99943
3	1.007947
4	12.01078
5	18.998403
6	14.00672
7	15.99943
8	1.007947
9	15.99943
10	1.007947


Pair Coeffs

1	0.086879315	3.4806469
2	0.2102061	3.0398122
3	0.015611343	2.5725815
4	0.10884061	3.3795318
5	0.061	3.1181455
6	0.16769152	3.206876
7	0.16846514	3.0251065
8	0.014090815	1.1034277
9	0.20947353	2.99716
10	1.2326e-05	0.53453923

Bond Coeffs

1 harmonic	582.698766451	1.225198386222
2 harmonic	279.1350963404	1.454628925034
3 harmonic	492.76746816345	1.381897776683
4 harmonic	360.7852444772	1.387193227181
5 harmonic	397.2545789619	1.085358495916
6 harmonic	289.73813263395	1.498646816465
7 harmonic	264.62148576755	1.52190126495
8 harmonic	340.45121009905	1.358690858053
9 harmonic	390.03554688505	1.390160554689
10 harmonic	505.144496193	1.019481865027
11 harmonic	425.69104206635	1.362945806494
12 harmonic	385.7604595587	1.369745182308
13 harmonic	543.5267831885	0.9716763312559


Angle Coeffs

1 harmonic	57.8982893754	126.8062420451
2 harmonic	55.42182150775	117.3465570514
3 harmonic	63.44422595415	115.5071327674
4 harmonic	34.066775159195	129.1835929926
5 harmonic	53.20531626545	116.5475862634
6 harmonic	65.09061609600001	110.3538806181
7 harmonic	79.1895422237	112.4630193006
8 harmonic	201.41175231035	127.4691416191


Dihedral Coeffs

1 fourier 1	3.661930099076	2	180
2 fourier 1	1.193093382682	2	180
3 fourier 1	0.9974165607242	2	180
4 fourier 1	3.101948770557	2	180
5 fourier 1	-0.4252153282372	1	0
6 fourier 1	2.348375642009	2	180
7 fourier 1	1.256156174911	1	0
8 fourier 1	1.809047390003	2	180
9 fourier 1	-0.04816277792592	1	0
10 fourier 1	0.02664938770063	3	0
11 fourier 1	0.1155372516788	3	0
12 fourier 1	1.163235555439	2	180
13 fourier 1	1.532232714475	2	180
14 fourier 1	1.659715194912	2	180
15 fourier 1	2.687457892086	2	180
16 fourier 1	2.772607909663	2	180
17 fourier 1	0.09692684957115	1	0


Improper Coeffs

1 0.3666666666666667	-1	2
2 0.3333333333333333	-1	2
3 3.5	-1	2


Atoms

1	1	1	0.76873004	-2.6103939	6.6321227	-8.8015046
2	1	2	-0.65585858	-2.000572	7.4866959	-8.1753602
3	1	1	-0.37103647	-3.1188846	7.0274002	-10.149784
4	1	1	-0.084072608	-4.391659	6.6216452	-10.572198
5	1	3	0.22371834	-4.9796638	5.9362088	-9.9738826
6	1	1	-0.24719671	-4.973105	7.1753519	-11.720929
7	1	3	0.21177779	-5.9749674	6.856215	-11.955305
8	1	1	-0.037998593	-4.283687	8.1250869	-12.516258
9	1	4	-0.26243046	-4.9094156	8.804935	-13.770859
10	1	1	-0.037998612	-4.6109324	10.335611	-13.733859
11	1	1	-0.24719674	-4.9817231	11.092906	-12.604205
12	1	3	0.2117778	-5.4694233	10.626427	-11.759882
13	1	1	-0.084072585	-4.719824	12.462697	-12.530172
14	1	3	0.22371836	-5.041828	12.99123	-11.644374
15	1	1	-0.37103644	-4.0692268	13.139344	-13.581029
16	1	1	0.76873004	-3.7824919	14.611224	-13.5129
17	1	2	-0.65585858	-3.8188153	15.247497	-14.556817
18	1	1	-0.084072555	-3.7273732	12.406284	-14.724659
19	1	3	0.22371836	-3.2402699	12.895102	-15.559203
20	1	1	-0.24719674	-3.9765455	11.030881	-14.796137
21	1	3	0.21177776	-3.6644295	10.538455	-15.701313
22	1	4	0.753497	-4.2989925	8.099817	-15.026147
23	1	5	-0.19978312	-4.5423477	6.7370581	-14.975113
24	1	5	-0.19978312	-4.8565873	8.5809465	-16.200288
25	1	5	-0.19978312	-2.9275214	8.2773212	-15.077131
26	1	4	0.753497	-6.4739252	8.6492905	-13.837532
27	1	5	-0.19978312	-7.0770327	9.1096663	-12.679639
28	1	5	-0.19978312	-6.9805098	9.3877245	-14.894624
29	1	5	-0.19978312	-6.8603427	7.3341215	-14.030853
30	1	1	-0.24719677	-2.9775802	8.4774272	-12.107946
31	1	3	0.21177779	-2.4023923	9.2002714	-12.672953
32	1	1	-0.084072585	-2.4190744	7.960657	-10.932096
33	1	3	0.22371834	-1.4419299	8.3085406	-10.621014
34	1	6	-0.53157109	-3.5401608	15.290284	-12.345751
35	1	1	0.20018817	-3.1981662	14.689181	-11.09467
36	1	1	-0.37341449	-3.5769109	15.303064	-9.8959974
37	1	3	0.21922938	-4.1343768	16.231466	-9.9149255
38	1	1	-0.1264382	-3.2707912	14.709115	-8.6649861
39	1	3	0.20490318	-3.597148	15.217	-7.7692016
40	1	1	-0.12691441	-2.5384307	13.501654	-8.6022661
41	1	1	-0.13318123	-2.201615	12.850147	-7.2936283
42	1	1	-0.12730587	-1.1010668	11.977938	-7.1863549
43	1	3	0.20818214	-0.46071611	11.760167	-8.0272609
44	1	1	-0.29446793	-0.77504474	11.382772	-5.9726184
45	1	3	0.22558553	0.082327285	10.724449	-5.9188402
46	1	1	0.33077326	-1.5411993	11.619171	-4.8311856
47	1	7	-0.2796934	-1.1648062	10.996107	-3.6901296
48	1	1	0.30215269	-1.8024143	9.9454491	-3.1108376
49	1	1	-0.31814742	-2.9152029	9.313031	-3.695453
50	1	3	0.23190665	-3.3110555	9.6470184	-4.6457914
51	1	1	-0.1032956	-3.5314411	8.2380005	-3.0506913
52	1	3	0.21481801	-4.3883362	7.7692463	-3.5171218
53	1	1	-0.10789854	-3.0520393	7.7750093	-1.8088386
54	1	1	0.2443622	-1.9326278	8.4085284	-1.2328791
55	1	1	-0.3209621	-1.3184979	9.4811217	-1.8858026
56	1	3	0.2280381	-0.45937026	9.9599183	-1.4334846
57	1	7	-0.3029593	-1.4302264	7.9984485	-0.049647389
58	1	1	0.2443622	-1.956595	6.9982257	0.69303387
59	1	1	-0.32096213	-1.3560986	6.6765065	1.9089574
60	1	3	0.22803805	-0.48103168	7.2224714	2.2415324
61	1	1	0.30215266	-1.8806144	5.6595545	2.7183971
62	1	7	-0.27969337	-1.2938813	5.3667603	3.8941968
63	1	1	0.33077329	-0.16843524	4.6224774	4.0481158
64	1	1	-0.29446793	0.28414824	3.7496256	3.0384357
65	1	3	0.22558552	-0.25506721	3.6579179	2.104246
66	1	1	-0.12730591	1.4305995	2.971772	3.2300348
67	1	3	0.20818212	1.7425395	2.3122848	2.4307851
68	1	1	-0.13318122	2.1739166	3.0710679	4.4190949
69	1	1	-0.12691443	3.4050465	2.2507423	4.6412006
70	1	1	-0.12643819	3.5428849	0.96938834	4.0695656
71	1	3	0.20490321	2.7603234	0.54661786	3.4528253
72	1	1	-0.37341446	4.6778483	0.19037696	4.3291697
73	1	3	0.2192294	4.7485181	-0.80313226	3.9033421
74	1	1	0.2001881	5.723305	0.69217755	5.118068
75	1	6	-0.53157103	6.8604509	-0.12384842	5.4021294
76	1	8	0.32015356	6.6699309	-1.1296238	5.5350731
77	1	1	-0.37341452	5.5926753	1.9734063	5.6785666
78	1	3	0.21922943	6.3646928	2.3794152	6.3188414
79	1	1	-0.12643819	4.4473886	2.7350416	5.4541406
80	1	3	0.20490321	4.3978416	3.7132693	5.9110536
81	1	1	-0.054853058	1.7233749	3.9553981	5.4195514
82	1	3	0.20718354	2.2662678	4.027318	6.3498787
83	1	1	-0.32072333	0.55266021	4.7149513	5.2530399
84	1	4	0.76732284	0.062405997	5.6283747	6.3571279
85	1	5	-0.2060573	0.012818546	6.930584	5.8951776
86	1	5	-0.2060573	0.8886168	5.5898933	7.4677786
87	1	5	-0.2060573	-1.2055277	5.2355277	6.7462208
88	1	1	-0.31814742	-3.0174147	4.9599281	2.2967894
89	1	3	0.23190666	-3.4311058	4.1771728	2.9206737
90	1	1	-0.10329566	-3.6144008	5.2649914	1.0721907
91	1	3	0.21481801	-4.4872729	4.7048203	0.76166934
92	1	1	-0.10789859	-3.0933485	6.2873509	0.25039114
93	1	4	0.09946866	-3.7293756	6.6086833	-1.0962818
94	1	1	0.047139318	-3.7241808	5.3793524	-1.9716672
95	1	1	-0.13109616	-2.6186124	4.6673972	-2.4455386
96	1	3	0.21808256	-1.6125988	4.9807232	-2.1976345
97	1	1	-0.25904572	-2.8402567	3.5377274	-3.2479812
98	1	3	0.22345835	-1.9968647	2.972147	-3.6231009
99	1	1	-0.22974778	-4.1520113	3.1350292	-3.5642008
100	1	3	0.21826391	-4.3120041	2.2612886	-4.1827076
101	1	1	-0.16745995	-5.2544337	3.8602209	-3.0816173
102	1	3	0.20442319	-6.2637787	3.5539466	-3.3217001
103	1	1	-0.012711983	-5.0101969	4.9805861	-2.2845601
104	1	1	-0.012712059	-5.9401303	5.9003669	-1.6591074
105	1	1	-0.16745988	-7.334431	5.9161751	-1.6897267
106	1	3	0.2044232	-7.889851	5.1665832	-2.2380164
107	1	1	-0.22974785	-8.00291	6.9344954	-0.99240212
108	1	3	0.21826394	-9.0848714	6.9707102	-1.0021002
109	1	1	-0.25904563	-7.2741405	7.9086336	-0.28198619
110	1	3	0.22345833	-7.8004343	8.6901796	0.25070753
111	1	1	-0.13109623	-5.869531	7.8730085	-0.26171198
112	1	3	0.21808257	-5.3066415	8.6212963	0.28172961
113	1	1	0.047139333	-5.2168344	6.8543595	-0.96098767
114	1	1	-0.32072339	-2.6616401	12.486381	-4.9027897
115	1	4	0.76732284	-3.5509149	12.817528	-3.7203554
116	1	5	-0.2060573	-3.09449	12.288789	-2.5296325
117	1	5	-0.2060573	-3.6188331	14.191269	-3.5689215
118	1	5	-0.2060573	-4.8236782	12.331885	-3.9597588
119	1	1	-0.054853025	-2.9721988	13.090965	-6.1360756
120	1	3	0.20718354	-3.8338748	13.741586	-6.1814186
121	1	1	-0.12643823	-2.1186057	12.922541	-9.8156845
122	1	3	0.20490323	-1.5587681	11.999972	-9.8466498
123	1	1	-0.37341443	-2.4435136	13.503438	-11.035005
124	1	3	0.21922943	-2.0929688	13.019194	-11.935153
125	1	8	0.32015356	-3.5491942	16.321638	-12.3772
126	1	1	0.76873004	8.1443791	0.30890668	5.6098443
127	1	2	-0.65585864	8.9411819	-0.47837785	6.1024998
128	1	1	-0.37103647	8.6804259	1.6441522	5.1706562
129	1	1	-0.084072593	8.1031194	2.3600747	4.1071891
130	1	3	0.22371834	7.2369724	1.9878988	3.581962
131	1	1	-0.24719671	8.6598597	3.5523314	3.6492403
132	1	3	0.21177779	8.1611238	4.0224858	2.819345
133	1	1	-0.037998593	9.8389481	4.0785319	4.2197782
134	1	4	-0.26243046	10.523874	5.3691964	3.6878131
135	1	1	-0.037998612	10.768302	6.3362063	4.8735566
136	1	1	-0.24719674	9.6834235	6.7195053	5.6849054
137	1	3	0.2117778	8.6872601	6.3458234	5.4925453
138	1	1	-0.084072585	9.8603094	7.5796432	6.7656326
139	1	3	0.22371836	8.9862616	7.8496531	7.3400995
140	1	1	-0.37103644	11.132271	8.0909586	7.0897136
141	1	1	0.76873004	11.330647	9.0131281	8.2536948
142	1	2	-0.65585858	12.188141	9.880545	8.1571444
143	1	1	-0.084072555	12.21363	7.7451723	6.2702771
144	1	3	0.22371836	13.204261	8.1310696	6.4786742
145	1	1	-0.24719674	12.041239	6.8715738	5.1908156
146	1	3	0.21177776	12.923275	6.637611	4.6189587
147	1	4	0.753497	11.851841	4.9209279	2.9788737
148	1	5	-0.19978312	11.572705	3.9983705	1.9838768
149	1	5	-0.19978312	12.500393	5.9927689	2.3884686
150	1	5	-0.19978312	12.7247	4.3175472	3.867818
151	1	4	0.753497	9.6575971	6.1408428	2.6245204
152	1	5	-0.19978312	8.4059124	6.4633392	3.1209713
153	1	5	-0.19978312	10.28023	7.3262207	2.2717991
154	1	5	-0.19978312	9.4843393	5.3998236	1.4672195
155	1	1	-0.24719677	10.415987	3.3598321	5.2910051
156	1	3	0.21177779	11.314484	3.7190633	5.7730244
157	1	1	-0.0840726	9.8507677	2.1639883	5.7535631
158	1	3	0.22371834	10.336571	1.6392396	6.5670806
159	1	6	-0.53157109	10.568151	8.9729416	9.3916248
160	1	1	0.20018817	9.7269715	7.8866504	9.7856679
161	1	1	-0.37341449	8.5642191	8.1321911	10.523374
162	1	3	0.21922938	8.2973051	9.147321	10.791398
163	1	1	-0.1264382	7.7206784	7.0778783	10.892182
164	1	3	0.20490318	6.8301266	7.323203	11.451574
165	1	1	-0.12691441	8.0429407	5.7405564	10.565908
166	1	1	-0.13318123	7.1532952	4.599688	10.959364
167	1	1	-0.12730587	7.6731803	3.2981773	11.095008
168	1	3	0.20818214	8.7176356	3.0795016	10.934497
169	1	1	-0.29446793	6.8586056	2.2401773	11.479734
170	1	3	0.22558553	7.2880709	1.251896	11.586732
171	1	1	0.33077326	5.4999239	2.435287	11.721224
172	1	7	-0.2796934	4.7738072	1.3550477	12.083002
173	1	1	0.30215269	3.872318	0.70720298	11.302732
174	1	1	-0.31814742	3.6504214	1.0415419	9.9538765
175	1	3	0.23190665	4.2018697	1.8413792	9.4782358
176	1	1	-0.1032956	2.70542	0.3368104	9.2035499
177	1	3	0.21481801	2.547664	0.61338502	8.1676848
178	1	1	-0.10789854	1.9598348	-0.70815866	9.7875938
179	1	1	0.2443622	2.1954877	-1.0361811	11.137381
180	1	1	-0.3209621	3.1454152	-0.33483635	11.877645
181	1	3	0.2280381	3.3163621	-0.59683022	12.91506
182	1	7	-0.3029593	1.5134247	-2.030363	11.744372
183	1	1	0.2443622	0.54525788	-2.7557007	11.149535
184	1	1	-0.32096213	-0.10216433	-3.7411843	11.896663
185	1	3	0.22803805	0.18221711	-3.9081733	12.929212
186	1	1	0.30215266	-1.1197229	-4.5080113	11.325993
187	1	7	-0.27969337	-1.7452389	-5.4438349	12.073094
188	1	1	0.33077329	-1.3214256	-6.7218051	12.262302
189	1	1	-0.29446793	-0.29200991	-7.2863355	11.490362
190	1	3	0.22558552	0.20150025	-6.7083227	10.719664
191	1	1	-0.12730591	0.11703542	-8.6045383	11.699198
192	1	3	0.20818212	0.92345718	-8.9651398	11.080179
193	1	1	-0.13318122	-0.48050936	-9.408969	12.693522
194	1	1	-0.12691443	-0.0047395699	-10.822549	12.949135
195	1	1	-0.12643819	0.84445831	-11.505984	12.041044
196	1	3	0.20490321	1.1457044	-11.070072	11.10331
197	1	1	-0.37341446	1.3557651	-12.778008	12.337464
198	1	3	0.2192294	2.0322992	-13.255419	11.64071
199	1	1	0.2001881	1.0570314	-13.393751	13.555775
200	1	6	-0.53157103	1.6947569	-14.626058	13.915621
201	1	8	0.32015356	1.8637369	-15.310656	13.162759
202	1	1	-0.37341452	0.14881756	-12.761309	14.421928
203	1	3	0.21922943	-0.13983271	-13.224204	15.356624
204	1	1	-0.12643819	-0.36433191	-11.503329	14.132015
205	1	3	0.20490321	-1.0016929	-11.074802	14.885565
206	1	1	-0.054853058	-1.5096518	-8.8228091	13.469347
207	1	3	0.20718354	-2.0042927	-9.3842934	14.241282
208	1	1	-0.32072333	-1.9350366	-7.4978008	13.261352
209	1	4	0.76732284	-3.0337664	-6.892483	14.110447
210	1	5	-0.2060573	-2.5431	-5.7816622	14.773674
211	1	5	-0.2060573	-3.5163981	-7.7831738	15.054411
212	1	5	-0.2060573	-4.0852916	-6.5062189	13.29794
213	1	1	-0.31814742	-1.4936441	-4.2892419	9.9967643
214	1	3	0.23190666	-2.2862664	-4.8776967	9.5538875
215	1	1	-0.10329566	-0.8413326	-3.3119228	9.2370888
216	1	3	0.21481801	-1.1402554	-3.1620982	8.2071724
217	1	1	-0.10789859	0.18740225	-2.5309993	9.8026223
218	1	4	0.09946866	0.91814842	-1.4724671	8.978585
219	1	1	0.047139318	1.5567476	-2.1082346	7.7666173
220	1	1	-0.13109616	2.5427212	-3.0967733	7.734226
221	1	3	0.21808256	2.9460034	-3.5049576	8.6528527
222	1	1	-0.25904572	2.9974661	-3.5532897	6.4877967
223	1	3	0.22345835	3.7598088	-4.3198678	6.4428466
224	1	1	-0.22974778	2.4671507	-3.0180734	5.2965834
225	1	3	0.21826391	2.8239824	-3.3772115	4.3409108
226	1	1	-0.16745995	1.4764467	-2.023372	5.3441617
227	1	3	0.20442319	1.0661752	-1.6105908	4.4320937
228	1	1	-0.012711983	1.0380945	-1.5857841	6.5949495
229	1	1	-0.012712059	0.04420637	-0.58943699	6.9360549
230	1	1	-0.16745988	-0.73690528	0.21067467	6.1021323
231	1	3	0.2044232	-0.65614569	0.14278512	5.0251853
232	1	1	-0.22974785	-1.6326937	1.1135232	6.6956411
233	1	3	0.21826394	-2.2488992	1.7479326	6.0712554
234	1	1	-0.25904563	-1.7319729	1.2003529	8.0990958
235	1	3	0.22345833	-2.4257203	1.9012494	8.5458538
236	1	1	-0.13109623	-0.93622363	0.38473603	8.9207576
237	1	3	0.21808257	-1.0070557	0.45032099	9.998769
238	1	1	0.047139333	-0.047812454	-0.50976903	8.3173512
239	1	1	-0.32072339	4.9374117	3.731035	11.586427
240	1	4	0.76732284	3.4773218	4.0528814	11.838074
241	1	5	-0.2060573	2.7567492	2.9782969	12.320112
242	1	5	-0.2060573	3.386765	5.0698788	12.77086
243	1	5	-0.2060573	2.8952404	4.4774906	10.656261
244	1	1	-0.054853025	5.7782135	4.7951296	11.208911
245	1	3	0.20718354	5.3381695	5.7762563	11.100534
246	1	1	-0.12643823	9.2398363	5.5027889	9.8638653
247	1	3	0.20490323	9.5478218	4.508919	9.5772896
248	1	1	-0.37341443	10.063037	6.5542062	9.481205
249	1	3	0.21922943	10.973112	6.3150037	8.9483902
250	1	8	0.32015356	10.642582	9.7642099	10.050858
251	1	6	-0.53157109	-2.9252369	5.4682181	-8.158559
252	1	1	0.20018817	-3.2023114	4.1920347	-8.7452442
253	1	1	-0.37341449	-3.9692365	3.2554191	-8.0375874
254	1	3	0.21922938	-4.4572938	3.5424222	-7.1143245
255	1	1	-0.1264382	-4.0842576	1.9318096	-8.4843603
256	1	3	0.20490318	-4.6619283	1.2378061	-7.888239
257	1	1	-0.12691441	-3.3747773	1.4927465	-9.6196129
258	1	1	-0.13318123	-3.3633571	0.03933438	-9.9981665
259	1	1	-0.12730587	-2.201455	-0.53627531	-10.546297
260	1	3	0.20818214	-1.312448	0.054816634	-10.714885
261	1	1	-0.29446793	-2.1466585	-1.8996742	-10.841393
262	1	3	0.22558553	-1.2326599	-2.3193526	-11.245363
263	1	1	0.33077326	-3.2529749	-2.7261341	-10.62872
264	1	7	-0.2796934	-3.1399548	-4.038596	-10.961051
265	1	1	0.30215269	-3.6763038	-4.6126762	-12.072941
266	1	1	-0.31814742	-4.3410863	-3.8561674	-13.053766
267	1	3	0.23190665	-4.4454155	-2.7843163	-12.955193
268	1	1	-0.1032956	-4.8817418	-4.4767842	-14.178338
269	1	3	0.21481801	-5.3877708	-3.8677598	-14.91574
270	1	1	-0.10789854	-4.7768173	-5.8693774	-14.351222
271	1	1	0.2443622	-4.1079136	-6.6325185	-13.373401
272	1	1	-0.3209621	-3.5608944	-6.0000678	-12.245921
273	1	3	0.2280381	-3.0488915	-6.5932561	-11.498006
274	1	7	-0.3029593	-3.9809127	-7.9741161	-13.507425
275	1	1	0.2443622	-4.4994071	-8.6874201	-14.535794
276	1	1	-0.32096213	-4.3194072	-10.076159	-14.560631
277	1	3	0.22803805	-3.7670457	-10.561027	-13.764822
278	1	1	0.30215266	-4.8561919	-10.845658	-15.600208
279	1	7	-0.27969337	-4.6866256	-12.187818	-15.605384
280	1	1	0.33077329	-3.5466103	-12.830459	-15.977998
281	1	1	-0.29446793	-2.5695271	-12.199784	-16.767795
282	1	3	0.22558552	-2.7003777	-11.177161	-17.097818
283	1	1	-0.12730591	-1.4168442	-12.884048	-17.157962
284	1	3	0.20818212	-0.69502872	-12.355246	-17.764162
285	1	1	-0.13318122	-1.1890467	-14.210687	-16.74345
286	1	1	-0.12691443	0.053530794	-14.94589	-17.148488
287	1	1	-0.075649026	0.73181368	-14.622815	-18.343751
288	1	3	0.20490321	0.36747174	-13.850053	-19.005287
289	1	1	-0.44963485	1.8789961	-15.323578	-18.728673
290	1	3	0.23139505	2.3700587	-15.069059	-19.65931
291	1	1	0.32024562	2.3882887	-16.346609	-17.921288
292	1	6	-0.84406513	3.5539993	-17.052869	-18.3096
293	1	8	0.3675788	3.9382028	-17.801727	-17.714855
294	1	8	0.3675788	4.0322248	-16.831628	-19.195373
295	1	1	-0.44963491	1.7352558	-16.667915	-16.726582
296	1	3	0.23139509	2.1223109	-17.451675	-16.086497
297	1	1	-0.075649011	0.57659099	-15.983717	-16.34747
298	1	3	0.20490321	0.11380966	-16.261502	-15.411554
299	1	1	-0.054853058	-2.168086	-14.835117	-15.943496
300	1	3	0.20718354	-2.0287132	-15.86006	-15.631277
301	1	1	-0.32072333	-3.3506021	-14.16644	-15.572824
302	1	4	0.76732284	-4.4100365	-14.865219	-14.748645
303	1	5	-0.2060573	-4.6063642	-14.176578	-13.565632
304	1	5	-0.2060573	-4.0555226	-16.168054	-14.44418
305	1	5	-0.2060573	-5.5973654	-14.89368	-15.45834
306	1	1	-0.31814742	-5.5784698	-10.224321	-16.622118
307	1	3	0.23190666	-6.0005605	-10.815388	-17.425312
308	1	1	-0.10329566	-5.7474577	-8.8383354	-16.616701
309	1	3	0.21481801	-6.2997676	-8.3751446	-17.425164
310	1	1	-0.10789859	-5.2102861	-8.0528565	-15.575258
311	1	4	0.09946866	-5.3775522	-6.5384789	-15.581304
312	1	1	0.047139318	-4.7721039	-5.9606939	-16.836633
313	1	1	-0.13109616	-3.4373263	-6.0123274	-17.248221
314	1	3	0.21808256	-2.6918842	-6.5099983	-16.641569
315	1	1	-0.25904572	-3.084862	-5.4060078	-18.462894
316	1	3	0.22345835	-2.0567146	-5.4360717	-18.79951
317	1	1	-0.22974778	-4.0615752	-4.7597574	-19.246779
318	1	3	0.21826391	-3.7789872	-4.2957993	-20.18182
319	1	1	-0.16745995	-5.3994721	-4.7151968	-18.819532
320	1	3	0.20442319	-6.1524609	-4.2204351	-19.418464
321	1	1	-0.012711983	-5.7276471	-5.3263331	-17.608836
322	1	1	-0.012712059	-7.0070171	-5.4336535	-16.935468
323	1	1	-0.16745988	-8.2564828	-4.947272	-17.316904
324	1	3	0.2044232	-8.3844019	-4.3961613	-18.239562
325	1	1	-0.22974785	-9.3496379	-5.1873861	-16.469423
326	1	3	0.21826394	-10.330508	-4.8186029	-16.741405
327	1	1	-0.25904563	-9.1766157	-5.9027026	-15.267888
328	1	3	0.22345833	-10.025783	-6.0800564	-14.622002
329	1	1	-0.13109623	-7.9078986	-6.3851204	-14.90241
330	1	3	0.21808257	-7.7705605	-6.933096	-13.979078
331	1	1	0.047139333	-6.8280158	-6.1387316	-15.75532
332	1	1	-0.32072339	-4.4432933	-2.1725678	-10.086882
333	1	4	0.76732284	-5.6998392	-2.9814801	-9.8207934
334	1	5	-0.2060573	-5.5436316	-4.3300436	-10.069449
335	1	5	-0.2060573	-6.0681757	-2.8366989	-8.4966093
336	1	5	-0.2060573	-6.7199647	-2.5035852	-10.624422
337	1	1	-0.054853025	-4.4740011	-0.79652354	-9.7673559
338	1	3	0.20718354	-5.3803412	-0.37932956	-9.3490621
339	1	1	-0.12643823	-2.6160309	2.4437583	-10.336317
340	1	3	0.20490323	-2.0506734	2.1521629	-11.211647
341	1	1	-0.37341443	-2.5508613	3.7834616	-9.9205576
342	1	3	0.21922943	-1.9169739	4.4681188	-10.466536
343	1	8	0.32015356	-2.7609488	5.4352089	-7.1391627
344	1	1	0.76873004	2.0918794	-14.9564	15.1918
345	1	2	-0.65585864	2.4465185	-16.104863	15.41595
346	1	1	-0.37103647	2.1394781	-13.96665	16.320638
347	1	1	-0.084072593	1.887912	-14.366072	17.640681
348	1	3	0.22371834	1.6881235	-15.405242	17.868572
349	1	1	-0.24719671	1.8256443	-13.417499	18.674442
350	1	3	0.21177779	1.5825194	-13.783677	19.655119
351	1	1	-0.037998593	2.0409897	-12.03891	18.421916
352	1	4	-0.26243046	1.8879542	-10.945249	19.518131
353	1	1	-0.037998612	2.7243301	-9.6911347	19.119811
354	1	1	-0.24615613	2.1782847	-8.3901194	18.995973
355	1	3	0.2117778	1.1428779	-8.1767397	19.201552
356	1	1	-0.055427666	2.9698291	-7.3122875	18.587137
357	1	3	0.23438294	2.5137647	-6.3334453	18.501101
358	1	1	-0.26377738	4.3250013	-7.4957202	18.272127
359	1	1	0.8392443	5.1567183	-6.3626291	17.797082
360	1	2	-0.48526913	4.6796695	-5.2404406	17.706985
361	1	9	-0.66466999	6.4412912	-6.570522	17.43557
362	1	10	0.41863054	6.9941298	-5.8518915	17.097153
363	1	1	-0.05542774	4.8802586	-8.7752638	18.398812
364	1	3	0.23438291	5.9204557	-8.9539657	18.157871
365	1	1	-0.24615617	4.0976261	-9.8496076	18.824153
366	1	3	0.21177776	4.5658289	-10.822663	18.882782
367	1	4	0.753497	2.4019376	-11.411102	20.923559
368	1	5	-0.19978312	1.6137018	-12.409692	21.466544
369	1	5	-0.19978312	3.7000326	-11.879612	20.855328
370	1	5	-0.19978312	2.3713532	-10.345716	21.809496
371	1	4	0.753497	0.35405342	-10.642397	19.616615
372	1	5	-0.19978312	-0.36003997	-11.794212	19.902932
373	1	5	-0.19978312	0.076652741	-9.7205515	20.61199
374	1	5	-0.19978312	-0.1169231	-10.153886	18.406867
375	1	1	-0.24719677	2.3509847	-11.67028	17.09622
376	1	3	0.21177779	2.5191384	-10.641834	16.811337
377	1	1	-0.0840726	2.420004	-12.610766	16.081825
378	1	3	0.22371834	2.6678274	-12.251316	15.093489

Bonds

1	1	1	2
2	2	1	3
3	3	1	251
4	4	3	4
5	4	3	32
6	5	4	5
7	4	4	6
8	5	6	7
9	4	6	8
10	6	8	9
11	4	8	30
12	6	9	10
13	7	9	22
14	7	9	26
15	4	10	11
16	4	10	20
17	5	11	12
18	4	11	13
19	5	13	14
20	4	13	15
21	2	15	16
22	4	15	18
23	1	16	17
24	3	16	34
25	5	18	19
26	4	18	20
27	5	20	21
28	8	22	23
29	8	22	24
30	8	22	25
31	8	26	27
32	8	26	28
33	8	26	29
34	5	30	31
35	4	30	32
36	5	32	33
37	9	34	35
38	10	34	125
39	4	35	36
40	4	35	123
41	5	36	37
42	4	36	38
43	5	38	39
44	4	38	40
45	2	40	41
46	4	40	121
47	4	41	42
48	4	41	119
49	5	42	43
50	4	42	44
51	5	44	45
52	4	44	46
53	11	46	47
54	4	46	114
55	11	47	48
56	4	48	49
57	4	48	55
58	5	49	50
59	4	49	51
60	5	51	52
61	4	51	53
62	4	53	54
63	6	53	93
64	4	54	55
65	11	54	57
66	5	55	56
67	11	57	58
68	4	58	59
69	4	58	92
70	5	59	60
71	4	59	61
72	11	61	62
73	4	61	88
74	11	62	63
75	4	63	64
76	4	63	83
77	5	64	65
78	4	64	66
79	5	66	67
80	4	66	68
81	2	68	69
82	4	68	81
83	4	69	70
84	4	69	79
85	5	70	71
86	4	70	72
87	5	72	73
88	4	72	74
89	9	74	75
90	4	74	77
91	10	75	76
92	3	75	126
93	5	77	78
94	4	77	79
95	5	79	80
96	5	81	82
97	4	81	83
98	6	83	84
99	8	84	85
100	8	84	86
101	8	84	87
102	5	88	89
103	4	88	90
104	5	90	91
105	4	90	92
106	6	92	93
107	6	93	94
108	6	93	113
109	4	94	95
110	4	94	103
111	5	95	96
112	4	95	97
113	5	97	98
114	4	97	99
115	5	99	100
116	4	99	101
117	5	101	102
118	4	101	103
119	2	103	104
120	4	104	105
121	4	104	113
122	5	105	106
123	4	105	107
124	5	107	108
125	4	107	109
126	5	109	110
127	4	109	111
128	5	111	112
129	4	111	113
130	6	114	115
131	4	114	119
132	8	115	116
133	8	115	117
134	8	115	118
135	5	119	120
136	5	121	122
137	4	121	123
138	5	123	124
139	1	126	127
140	2	126	128
141	4	128	129
142	4	128	157
143	5	129	130
144	4	129	131
145	5	131	132
146	4	131	133
147	6	133	134
148	4	133	155
149	6	134	135
150	7	134	147
151	7	134	151
152	4	135	136
153	4	135	145
154	5	136	137
155	4	136	138
156	5	138	139
157	4	138	140
158	2	140	141
159	4	140	143
160	1	141	142
161	3	141	159
162	5	143	144
163	4	143	145
164	5	145	146
165	8	147	148
166	8	147	149
167	8	147	150
168	8	151	152
169	8	151	153
170	8	151	154
171	5	155	156
172	4	155	157
173	5	157	158
174	9	159	160
175	10	159	250
176	4	160	161
177	4	160	248
178	5	161	162
179	4	161	163
180	5	163	164
181	4	163	165
182	2	165	166
183	4	165	246
184	4	166	167
185	4	166	244
186	5	167	168
187	4	167	169
188	5	169	170
189	4	169	171
190	11	171	172
191	4	171	239
192	11	172	173
193	4	173	174
194	4	173	180
195	5	174	175
196	4	174	176
197	5	176	177
198	4	176	178
199	4	178	179
200	6	178	218
201	4	179	180
202	11	179	182
203	5	180	181
204	11	182	183
205	4	183	184
206	4	183	217
207	5	184	185
208	4	184	186
209	11	186	187
210	4	186	213
211	11	187	188
212	4	188	189
213	4	188	208
214	5	189	190
215	4	189	191
216	5	191	192
217	4	191	193
218	2	193	194
219	4	193	206
220	4	194	195
221	4	194	204
222	5	195	196
223	4	195	197
224	5	197	198
225	4	197	199
226	9	199	200
227	4	199	202
228	10	200	201
229	3	200	344
230	5	202	203
231	4	202	204
232	5	204	205
233	5	206	207
234	4	206	208
235	6	208	209
236	8	209	210
237	8	209	211
238	8	209	212
239	5	213	214
240	4	213	215
241	5	215	216
242	4	215	217
243	6	217	218
244	6	218	219
245	6	218	238
246	4	219	220
247	4	219	228
248	5	220	221
249	4	220	222
250	5	222	223
251	4	222	224
252	5	224	225
253	4	224	226
254	5	226	227
255	4	226	228
256	2	228	229
257	4	229	230
258	4	229	238
259	5	230	231
260	4	230	232
261	5	232	233
262	4	232	234
263	5	234	235
264	4	234	236
265	5	236	237
266	4	236	238
267	6	239	240
268	4	239	244
269	8	240	241
270	8	240	242
271	8	240	243
272	5	244	245
273	5	246	247
274	4	246	248
275	5	248	249
276	9	251	252
277	10	251	343
278	4	252	253
279	4	252	341
280	5	253	254
281	4	253	255
282	5	255	256
283	4	255	257
284	2	257	258
285	4	257	339
286	4	258	259
287	4	258	337
288	5	259	260
289	4	259	261
290	5	261	262
291	4	261	263
292	11	263	264
293	4	263	332
294	11	264	265
295	4	265	266
296	4	265	272
297	5	266	267
298	4	266	268
299	5	268	269
300	4	268	270
301	4	270	271
302	6	270	311
303	4	271	272
304	11	271	274
305	5	272	273
306	11	274	275
307	4	275	276
308	4	275	310
309	5	276	277
310	4	276	278
311	11	278	279
312	4	278	306
313	11	279	280
314	4	280	281
315	4	280	301
316	5	281	282
317	4	281	283
318	5	283	284
319	4	283	285
320	2	285	286
321	4	285	299
322	4	286	287
323	4	286	297
324	5	287	288
325	4	287	289
326	5	289	290
327	4	289	291
328	9	291	292
329	4	291	295
330	10	292	293
331	10	292	294
332	5	295	296
333	4	295	297
334	5	297	298
335	5	299	300
336	4	299	301
337	6	301	302
338	8	302	303
339	8	302	304
340	8	302	305
341	5	306	307
342	4	306	308
343	5	308	309
344	4	308	310
345	6	310	311
346	6	311	312
347	6	311	331
348	4	312	313
349	4	312	321
350	5	313	314
351	4	313	315
352	5	315	316
353	4	315	317
354	5	317	318
355	4	317	319
356	5	319	320
357	4	319	321
358	2	321	322
359	4	322	323
360	4	322	331
361	5	323	324
362	4	323	325
363	5	325	326
364	4	325	327
365	5	327	328
366	4	327	329
367	5	329	330
368	4	329	331
369	6	332	333
370	4	332	337
371	8	333	334
372	8	333	335
373	8	333	336
374	5	337	338
375	5	339	340
376	4	339	341
377	5	341	342
378	1	344	345
379	2	344	346
380	4	346	347
381	4	346	377
382	5	347	348
383	4	347	349
384	5	349	350
385	4	349	351
386	6	351	352
387	4	351	375
388	6	352	353
389	7	352	367
390	7	352	371
391	4	353	354
392	4	353	365
393	5	354	355
394	4	354	356
395	5	356	357
396	4	356	358
397	2	358	359
398	4	358	363
399	1	359	360
400	12	359	361
401	13	361	362
402	5	363	364
403	4	363	365
404	5	365	366
405	8	367	368
406	8	367	369
407	8	367	370
408	8	371	372
409	8	371	373
410	8	371	374
411	5	375	376
412	4	375	377
413	5	377	378

Angles

1	4	100	99	101
2	4	247	246	248
3	5	303	302	305
4	1	88	90	92
5	4	351	375	376
6	1	259	258	337
7	1	101	103	104
8	5	352	367	368
9	5	241	240	242
10	4	194	204	205
11	1	226	228	229
12	1	193	206	208
13	1	349	351	375
14	1	333	332	337
15	1	344	346	347
16	1	312	313	315
17	1	8	30	32
18	4	185	184	186
19	1	4	3	32
20	4	48	55	56
21	4	179	180	181
22	5	217	218	238
23	1	6	8	30
24	1	36	38	40
25	1	311	312	313
26	1	38	40	121
27	5	153	151	154
28	1	265	272	271
29	5	22	9	26
30	5	83	84	87
31	4	91	90	92
32	4	186	213	214
33	5	368	367	369
34	1	49	51	53
35	4	78	77	79
36	1	311	331	329
37	4	96	95	97
38	1	3	4	6
39	1	126	128	157
40	1	199	202	204
41	5	304	302	305
42	1	323	325	327
43	1	66	68	81
44	1	280	301	302
45	3	141	159	250
46	4	262	261	263
47	5	10	9	26
48	4	219	220	221
49	5	239	240	241
50	1	275	310	308
51	4	41	42	43
52	1	44	46	47
53	1	53	54	57
54	1	17	16	34
55	6	186	187	188
56	4	353	354	355
57	1	188	208	209
58	1	312	321	322
59	2	16	34	35
60	4	156	155	157
61	4	104	105	106
62	1	61	88	90
63	1	189	188	208
64	4	194	195	196
65	4	229	230	231
66	1	189	191	193
67	3	1	251	343
68	1	142	141	159
69	1	57	58	92
70	4	260	259	261
71	1	268	270	311
72	4	353	365	366
73	4	316	315	317
74	1	280	281	283
75	4	18	20	21
76	4	11	13	14
77	4	129	131	132
78	4	109	111	112
79	4	237	236	238
80	1	93	113	111
81	5	9	22	23
82	1	36	35	123
83	1	270	271	274
84	1	182	183	184
85	1	261	263	332
86	5	152	151	154
87	1	265	266	268
88	4	64	66	67
89	1	41	40	121
90	1	93	94	103
91	5	334	333	336
92	1	274	275	310
93	4	363	365	366
94	1	59	58	92
95	4	193	206	207
96	4	195	197	198
97	5	94	93	113
98	1	95	97	99
99	5	239	240	243
100	1	171	239	240
101	5	135	134	151
102	4	284	283	285
103	1	180	179	182
104	4	8	30	31
105	5	352	367	370
106	4	166	167	168
107	4	135	145	146
108	5	85	84	86
109	4	144	143	145
110	1	161	163	165
111	1	134	133	155
112	4	60	59	61
113	5	270	311	331
114	1	222	224	226
115	5	303	302	304
116	1	272	271	274
117	1	68	69	79
118	5	9	22	25
119	2	74	75	126
120	4	128	129	130
121	4	323	325	326
122	1	3	32	30
123	1	9	8	30
124	5	53	93	92
125	1	188	189	191
126	1	200	344	345
127	1	159	160	248
128	1	184	186	187
129	1	261	263	264
130	1	258	257	339
131	4	254	253	255
132	5	241	240	243
133	1	255	257	258
134	1	257	339	341
135	1	129	128	157
136	1	74	77	79
137	4	224	226	227
138	1	69	70	72
139	1	276	278	306
140	1	131	133	155
141	1	68	69	70
142	4	256	255	257
143	1	286	287	289
144	1	176	178	179
145	1	255	257	339
146	4	166	244	245
147	4	177	176	178
148	4	280	281	282
149	5	310	311	331
150	5	28	26	29
151	5	149	147	150
152	4	89	88	90
153	1	253	252	341
154	1	174	173	180
155	1	64	63	83
156	1	268	270	271
157	7	54	57	58
158	1	279	280	301
159	1	62	63	83
160	4	265	266	267
161	1	264	265	272
162	1	183	217	215
163	1	47	48	55
164	1	11	13	15
165	1	266	265	272
166	1	173	180	179
167	1	321	322	323
168	4	36	38	39
169	5	312	311	331
170	4	307	306	308
171	4	50	49	51
172	4	49	51	52
173	3	293	292	294
174	4	196	195	197
175	4	175	174	176
176	4	3	4	5
177	1	6	8	9
178	1	133	155	157
179	4	161	163	164
180	4	14	13	15
181	1	171	239	244
182	4	358	363	364
183	1	186	213	215
184	1	194	193	206
185	5	152	151	153
186	5	53	93	94
187	1	354	353	365
188	5	9	26	28
189	1	191	193	206
190	4	188	189	190
191	1	257	258	337
192	4	165	246	247
193	1	219	220	222
194	5	373	371	374