Title

128 atoms
127 bonds
240 angles
436 dihedrals
18 impropers

11 atom types
14 bond types
9 angle types
35 dihedral types
3 improper types
-11.72099972 88.27900028 xlo xhi
-13.41300011 86.58699989 ylo yhi
-7.053999901 92.9460001 zlo zhi
0.0 0.0 0.0 xy xz yz

Masses

1	12.01078
2	15.99943
3	14.00672
4	12.01078
5	1.007947
6	1.007947
7	1.007947
8	15.99943
9	12.01078
10	15.99943
11	1.007947


Pair Coeffs

1	0.086879315	3.4806469
2	0.2102061	3.0398122
3	0.16769152	3.206876
4	0.10884061	3.3795318
5	0.014090815	1.1034277
6	0.016409246	2.5832257
7	0.015779483	2.6445434
8	0.16846514	3.0251065
9	0.21	3.3996695
10	0.20947353	2.99716
11	1.2326e-05	0.53453923

Bond Coeffs

1 harmonic	582.698766451	1.225198386222
2 harmonic	492.76746816345	1.381897776683
3 harmonic	279.1350963404	1.454628925034
4 harmonic	352.0565580496	1.450098586273
5 harmonic	505.144496193	1.019481865027
6 harmonic	264.62148576755	1.52190126495
7 harmonic	370.04670688625	1.093899492634
8 harmonic	301.15400723785	1.345741232799
9 harmonic	366.7408841747	1.425895053732
10 harmonic	300.03137914615	1.451203938761
11 harmonic	366.34047229585	1.464762957261
12 harmonic	602.81384337	1.196112346392
13 harmonic	329.96998057905	1.427343958716
14 harmonic	543.5267831885	0.9716763312559


Angle Coeffs

1 harmonic	55.42182150775	117.3465570514
2 harmonic	63.44422595415	115.5071327674
3 harmonic	57.8982893754	126.8062420451
4 harmonic	53.20531626545	116.5475862634
5 harmonic	65.09061609600001	110.3538806181
6 harmonic	201.41175231035	127.4691416191
7 harmonic	48.776492647595	115.6030999533
8 harmonic	55.07882548015	112.8714009681
9 harmonic	33.56981613361	180


Dihedral Coeffs

1 fourier 1	-0.1488678166443	4	180
2 fourier 1	-0.1230328948768	3	180
3 fourier 1	0.2939295466901	2	0
4 fourier 1	-0.3024127022865	1	0
5 fourier 1	0.182238503271	2	0
6 fourier 1	0.02972342374561	3	0
7 fourier 1	1.809047390003	2	180
8 fourier 1	-0.04816277792592	1	0
9 fourier 1	3.101948770557	2	180
10 fourier 1	-0.4252153282372	1	0
11 fourier 1	2.348375642009	2	180
12 fourier 1	1.256156174911	1	0
13 fourier 1	0.9974165607242	2	180
14 fourier 1	0.1155372516788	3	0
15 fourier 1	0.09223874044423	3	0
16 fourier 1	0.3159935921949	2	180
17 fourier 1	0.3247796806857	1	180
18 fourier 1	0.1040663847541	3	0
19 fourier 1	2.779853741805	2	180
20 fourier 1	0.1918272375143	3	0
21 fourier 1	0.9202179876409	1	180
22 fourier 1	0.0473758381877	3	0
23 fourier 1	0.4860993122944	2	180
24 fourier 1	0.8916986138746	1	0
25 fourier 1	1.163809172478	2	180
26 fourier 1	0.1679186987369	1	180
27 fourier 1	0.1911926717192	3	0
28 fourier 1	0.1115525666802	3	0
29 fourier 1	0.3432490222662	1	0
30 fourier 1	0.457973137376	1	0
31 fourier 1	-1.382973039546	1	0
32 fourier 1	0	1	0
33 fourier 1	0.3445382149273	3	0
34 fourier 1	0.1364556373303	1	0
35 fourier 1	0.3026390167484	3	0


Improper Coeffs

1 0.3333333333333333	-1	2
2 0.3666666666666667	-1	2
3 3.5	-1	2


Atoms

1	1	1	0.54158199	-6.6880002	-0.20299999	-0.079000004
2	1	2	-0.69544601	-6.9689999	-0.45899999	1.122
3	1	3	-0.52397102	-5.3270001	-0.134	-0.51499999
4	1	4	0.029960001	-4.2150002	-0.35499999	0.40799999
5	1	4	-0.146567	-2.8710001	-0.223	-0.31600001
6	1	4	-0.141882	-1.7	-0.454	0.64700001
7	1	4	-0.141496	-0.35600001	-0.32300001	-0.079000004
8	1	4	-0.141496	0.81599998	-0.54299998	0.88999999
9	1	4	-0.141882	2.1789999	-0.55500001	0.17900001
10	1	4	-0.14528599	2.5929999	0.83700001	-0.329
11	1	4	0.024106	4.0139999	0.83399999	-0.90700001
12	1	3	-0.46794	5.0240002	0.69599998	0.14300001
13	1	1	0.78449202	6.4190001	0.62599999	-0.164
14	1	2	-0.61803401	6.8210001	0.67199999	-1.357
15	1	5	0.32385701	4.744	0.66399997	1.149
16	1	6	0.053977001	4.1199999	0.0040000002	-1.641
17	1	6	0.053977001	4.184	1.7920001	-1.444
18	1	7	0.086061999	1.898	1.155	-1.135
19	1	7	0.086061999	2.53	1.5829999	0.49399999
20	1	7	0.084917001	2.155	-1.274	-0.66900003
21	1	7	0.084917001	2.9360001	-0.921	0.90499997
22	1	7	0.084151	0.685	-1.526	1.393
23	1	7	0.084151	0.80900002	0.242	1.677
24	1	7	0.084151	-0.30599999	-1.074	-0.89700001
25	1	7	0.084151	-0.287	0.69300002	-0.52399999
26	1	7	0.084917001	-1.747	0.292	1.47
27	1	7	0.084917001	-1.7819999	-1.472	1.087
28	1	7	0.086061999	-2.826	-0.96899998	-1.1390001
29	1	7	0.086061999	-2.793	0.796	-0.755
30	1	6	0.050439	-4.3010001	-1.374	0.84500003
31	1	6	0.050439	-4.2680001	0.39199999	1.23
32	1	5	0.31727299	-5.145	0.082000002	-1.521
33	1	8	-0.49924499	7.1110001	0.53600001	0.60399997
34	1	4	0.113533	6.4060001	0.083999999	1.728
35	1	4	-0.139327	6.105	-1.411	1.598
36	1	4	-0.14038201	5.3509998	-1.932	2.8310001
37	1	4	-0.141579	5.1479998	-3.4549999	2.7980001
38	1	4	-0.14025199	4.1389999	-3.8929999	1.722
39	1	4	-0.14025199	3.7479999	-5.3769999	1.842
40	1	4	-0.141528	4.9169998	-6.3720002	1.698
41	1	4	-0.139112	5.7290001	-6.2410002	0.39700001
42	1	4	-0.145318	4.8800001	-6.4790001	-0.86199999
43	1	4	0.035131	5.7399998	-6.5380001	-2.128
44	1	8	-0.17090499	6.3150001	-5.2870002	-2.3959999
45	1	6	0.083761998	6.52	-7.3299999	-2.036
46	1	6	0.083761998	5.0900002	-6.8130002	-2.9849999
47	1	7	0.091036998	4.132	-5.6659999	-0.97899997
48	1	7	0.091036998	4.335	-7.4429998	-0.76099998
49	1	7	0.086090997	6.5430002	-6.9970002	0.43000001
50	1	7	0.086090997	6.2150002	-5.244	0.35100001
51	1	7	0.084151	5.605	-6.2579999	2.562
52	1	7	0.084151	4.507	-7.4039998	1.76
53	1	7	0.084151	2.974	-5.605	1.0779999
54	1	7	0.084151	3.2690001	-5.5409999	2.8310001
55	1	7	0.084151	3.211	-3.29	1.83
56	1	7	0.084151	4.54	-3.6930001	0.708
57	1	7	0.084151	4.7719998	-3.7739999	3.7950001
58	1	7	0.084151	6.1279998	-3.951	2.6300001
59	1	7	0.085914999	4.3670001	-1.421	2.9170001
60	1	7	0.085914999	5.9390001	-1.6849999	3.7420001
61	1	7	0.089952998	5.493	-1.572	0.68599999
62	1	7	0.089952998	7.0640001	-1.964	1.484
63	1	6	0.083825	7.0320001	0.25999999	2.6289999
64	1	6	0.083825	5.46	0.66000003	1.848
65	1	1	0.54158199	-7.487	-0.034000002	-0.78799999
66	1	2	-0.69544601	-7.2740002	0.68400002	-1.802
67	1	3	-0.52397102	-8.7729998	-0.61900002	-0.55900002
68	1	4	0.029960001	-9.8999996	-0.43900001	-1.473
69	1	4	-0.146567	-9.7220001	-1.275	-2.7479999
70	1	4	-0.141882	-9.7089996	-2.7809999	-2.448
71	1	4	-0.141496	-9.5880003	-3.596	-3.7449999
72	1	4	-0.141315	-9.4300003	-5.1030002	-3.4860001
73	1	4	-0.1375	-10.74	-5.7639999	-3.0250001
74	1	4	-0.122942	-10.58	-7.27	-2.75
75	1	4	0.183374	-10.405	-8.1169996	-4.0170002
76	1	3	-0.65465999	-11.575	-7.994	-4.8769999
77	1	9	0.592632	-11.649	-8.6219997	-5.98
78	1	2	-0.482389	-11.721	-9.2329998	-7.0539999
79	1	6	0.029486001	-10.281	-9.1809998	-3.7160001
80	1	6	0.029486001	-9.4910002	-7.8119998	-4.5679998
81	1	7	0.079710998	-11.483	-7.6290002	-2.21
82	1	7	0.079710998	-9.71	-7.4349999	-2.0780001
83	1	7	0.083640002	-11.538	-5.5949998	-3.779
84	1	7	0.083640002	-11.073	-5.29	-2.0769999
85	1	7	0.084151	-9.1020002	-5.5700002	-4.4390001
86	1	7	0.084151	-8.6289997	-5.2750001	-2.734
87	1	7	0.084151	-8.6890001	-3.2490001	-4.3010001
88	1	7	0.084151	-10.474	-3.415	-4.3920002
89	1	7	0.084917001	-8.8500004	-3.017	-1.784
90	1	7	0.084917001	-10.65	-3.049	-1.9220001
91	1	7	0.086061999	-8.7790003	-0.98400003	-3.2590001
92	1	7	0.086061999	-10.566	-1.0470001	-3.4349999
93	1	6	0.050439	-9.9969997	0.63499999	-1.74
94	1	6	0.050439	-10.841	-0.741	-0.96399999
95	1	5	0.31727299	-8.9239998	-1.15	0.32800001
96	1	8	-0.17090499	7.1890001	-5.2649999	-1.925
97	1	4	0.035131	6.9320002	-5.585	-0.58499998
98	1	4	-0.145318	6.6999998	-7.0910001	-0.43599999
99	1	4	-0.139112	6.4369998	-7.4660001	1.03
100	1	4	-0.141528	6.3299999	-8.9849997	1.24
101	1	4	-0.14025199	5.0489998	-9.5769997	0.62800002
102	1	4	-0.14025199	4.8150001	-11.042	1.04
103	1	4	-0.141528	5.928	-12.023	0.62
104	1	4	-0.13502701	6.2480001	-12.04	-0.88599998
105	1	4	-0.16724201	5.0430002	-12.455	-1.7460001
106	1	4	0.088408999	5.4310002	-12.656	-3.2130001
107	1	10	-0.68168002	5.803	-11.437	-3.8
108	1	11	0.382447	6.7810001	-11.337	-3.661
109	1	6	0.074693002	6.244	-13.413	-3.3039999
110	1	6	0.074693002	4.5489998	-13.051	-3.7609999
111	1	7	0.093392	4.2490001	-11.679	-1.691
112	1	7	0.093392	4.6240001	-13.409	-1.358
113	1	7	0.086090997	7.0710001	-12.769	-1.0470001
114	1	7	0.086090997	6.6259999	-11.047	-1.206
115	1	7	0.084151	6.8579998	-11.785	1.179
116	1	7	0.084151	5.6279998	-13.046	0.93300003
117	1	7	0.084151	3.846	-11.381	0.616
118	1	7	0.084151	4.7059999	-11.089	2.145
119	1	7	0.084151	4.1750002	-8.9849997	0.977
120	1	7	0.084151	5.0739999	-9.4989996	-0.47799999
121	1	7	0.084151	6.3309999	-9.1820002	2.3340001
122	1	7	0.084151	7.2270002	-9.4770002	0.80599999
123	1	7	0.086090997	5.5079999	-6.9699998	1.388
124	1	7	0.086090997	7.2789998	-7.0929999	1.654
125	1	7	0.091036998	5.829	-7.3790002	-1.061
126	1	7	0.091036998	7.5970001	-7.6329999	-0.80699998
127	1	6	0.083761998	7.8109999	-5.2820001	0.023
128	1	6	0.083761998	6.046	-5.0180001	-0.21600001

Bonds

1	1	1	2
2	2	1	3
3	3	1	65
4	4	3	4
5	5	3	32
6	6	4	5
7	7	4	30
8	7	4	31
9	6	5	6
10	7	5	28
11	7	5	29
12	6	6	7
13	7	6	26
14	7	6	27
15	6	7	8
16	7	7	24
17	7	7	25
18	6	8	9
19	7	8	22
20	7	8	23
21	6	9	10
22	7	9	20
23	7	9	21
24	6	10	11
25	7	10	18
26	7	10	19
27	4	11	12
28	7	11	16
29	7	11	17
30	2	12	13
31	5	12	15
32	1	13	14
33	8	13	33
34	9	33	34
35	6	34	35
36	7	34	63
37	7	34	64
38	6	35	36
39	7	35	61
40	7	35	62
41	6	36	37
42	7	36	59
43	7	36	60
44	6	37	38
45	7	37	57
46	7	37	58
47	6	38	39
48	7	38	55
49	7	38	56
50	6	39	40
51	7	39	53
52	7	39	54
53	6	40	41
54	7	40	51
55	7	40	52
56	6	41	42
57	7	41	49
58	7	41	50
59	6	42	43
60	7	42	47
61	7	42	48
62	9	43	44
63	7	43	45
64	7	43	46
65	10	44	96
66	1	65	66
67	2	65	67
68	4	67	68
69	5	67	95
70	6	68	69
71	7	68	93
72	7	68	94
73	6	69	70
74	7	69	91
75	7	69	92
76	6	70	71
77	7	70	89
78	7	70	90
79	6	71	72
80	7	71	87
81	7	71	88
82	6	72	73
83	7	72	85
84	7	72	86
85	6	73	74
86	7	73	83
87	7	73	84
88	6	74	75
89	7	74	81
90	7	74	82
91	11	75	76
92	7	75	79
93	7	75	80
94	12	76	77
95	1	77	78
96	9	96	97
97	6	97	98
98	7	97	127
99	7	97	128
100	6	98	99
101	7	98	125
102	7	98	126
103	6	99	100
104	7	99	123
105	7	99	124
106	6	100	101
107	7	100	121
108	7	100	122
109	6	101	102
110	7	101	119
111	7	101	120
112	6	102	103
113	7	102	117
114	7	102	118
115	6	103	104
116	7	103	115
117	7	103	116
118	6	104	105
119	7	104	113
120	7	104	114
121	6	105	106
122	7	105	111
123	7	105	112
124	13	106	107
125	7	106	109
126	7	106	110
127	14	107	108

Angles

1	4	70	69	91
2	4	74	75	80
3	7	30	4	31
4	4	37	38	56
5	4	76	75	80
6	7	93	68	94
7	3	12	13	14
8	4	35	36	60
9	7	121	100	122
10	4	104	105	112
11	4	71	72	86
12	4	100	101	119
13	4	96	97	127
14	4	9	10	18
15	4	98	99	123
16	4	10	11	17
17	4	12	11	16
18	4	74	75	76
19	4	98	99	100
20	7	20	9	21
21	4	103	102	117
22	4	68	69	92
23	4	97	98	125
24	7	91	69	92
25	7	85	72	86
26	4	72	73	74
27	7	28	5	29
28	4	40	39	53
29	7	63	34	64
30	5	13	33	34
31	4	96	97	128
32	4	33	34	35
33	4	8	9	20
34	3	12	13	33
35	4	37	36	59
36	5	44	96	97
37	4	69	70	71
38	4	6	7	24
39	4	5	6	7
40	4	5	4	31
41	4	43	42	48
42	4	71	70	89
43	4	104	103	115
44	4	7	8	9
45	4	36	35	61
46	4	3	4	30
47	4	67	68	94
48	4	106	105	112
49	4	42	41	50
50	4	105	106	110
51	4	35	36	37
52	7	55	38	56
53	4	101	102	118
54	4	99	100	101
55	4	40	39	54
56	4	102	103	104
57	4	36	37	57
58	4	75	74	81
59	4	101	100	121
60	4	38	37	57
61	4	42	43	46
62	4	70	71	87
63	2	13	12	15
64	4	37	36	60
65	7	117	102	118
66	4	34	35	62
67	4	33	34	63
68	4	9	10	11
69	1	11	12	13
70	4	69	68	94
71	7	16	11	17
72	4	98	97	127
73	1	1	3	4
74	4	101	102	103
75	4	36	35	62
76	4	74	73	84
77	4	6	7	8
78	4	39	40	51
79	7	127	97	128
80	4	102	103	116
81	7	22	8	23
82	4	38	39	54
83	4	73	74	81
84	3	2	1	65
85	4	8	9	10
86	4	70	71	72
87	4	102	101	119
88	4	36	37	58
89	4	75	74	82
90	4	101	100	122
91	4	38	37	58
92	4	70	71	88
93	4	99	100	121
94	4	72	73	83
95	4	36	37	38
96	4	70	69	92
97	4	33	34	64
98	4	99	98	125
99	7	111	105	112
100	4	98	97	128
101	4	105	106	107
102	6	14	13	33
103	4	96	97	98
104	4	8	7	24
105	7	109	106	110
106	7	119	101	120
107	4	100	101	120
108	4	9	10	19
109	4	98	99	124
110	3	2	1	3
111	4	12	11	17
112	4	10	11	16
113	4	102	101	120
114	7	47	42	48
115	4	103	102	118
116	4	97	98	126
117	4	10	9	20
118	4	11	10	18
119	7	57	37	58
120	7	89	70	90
121	4	99	98	126
122	4	7	8	22
123	4	100	101	102
124	4	7	6	26
125	4	10	11	12
126	4	44	43	45
127	4	4	5	28
128	7	79	75	80
129	4	8	9	21
130	4	42	43	44
131	2	65	67	95
132	4	6	7	25
133	9	76	77	78
134	4	41	40	51
135	4	97	98	99
136	4	104	103	116
137	4	71	70	90
138	4	100	99	123
139	4	73	72	85
140	3	1	65	66
141	4	3	4	31
142	7	59	36	60
143	4	41	42	47
144	4	6	5	28
145	4	7	6	27
146	7	53	39	54
147	7	83	73	84
148	4	4	5	29
149	4	40	41	49
150	4	34	35	36
151	4	37	38	39
152	7	49	41	50
153	4	104	105	106
154	4	41	42	43
155	4	74	75	79
156	4	68	69	70
157	4	37	38	55
158	4	100	99	124
159	4	3	4	5
160	3	1	65	67
161	2	1	3	32
162	4	73	72	86
163	4	69	70	89
164	7	123	99	124
165	4	39	40	52
166	7	26	6	27
167	4	6	5	29
168	4	103	104	105
169	4	73	74	82
170	5	106	107	108
171	3	66	65	67
172	4	107	106	109
173	4	99	100	122
174	4	72	73	84
175	8	75	76	77
176	2	11	12	15
177	7	18	10	19
178	2	4	3	32
179	4	9	8	22
180	7	81	74	82
181	4	8	7	25
182	4	69	70	90
183	4	38	39	40
184	1	65	67	68
185	7	115	103	116
186	7	125	98	126
187	4	5	4	30
188	4	39	38	55
189	4	43	42	47
190	7	61	35	62
191	4	10	9	21
192	4	67	68	93
193	4	11	10	19
194	7	24	7	25
195	4	40	41	42
196	4	106	105	111
197	4	103	104	113
198	4	7	8	23
199	4	107	106	110
200	4	42	41	49
201	4	71	72	73
202	4	101	102	117
203	4	105	106	109
204	4	105	104	113
205	4	9	8	23
206	7	51	40	52
207	5	43	44	96
208	4	44	43	46
209	4	5	6	26
210	4	72	71	87
211	4	35	34	63
212	7	113	104	114
213	4	42	43	45
214	4	34	35	61
215	4	41	40	52
216	4	69	68	93
217	4	39	38	56
218	4	67	68	69
219	4	73	74	75
220	2	68	67	95
221	4	35	36	59
222	4	76	75	79
223	4	74	73	83
224	4	104	105	111
225	4	71	72	85
226	4	103	104	114
227	4	41	42	48
228	4	102	103	115
229	4	39	40	41
230	7	87	71	88
231	4	38	39	53
232	4	105	104	114
233	4	4	5	6
234	3	3	1	65
235	4	5	6	27
236	7	45	43	46
237	4	72	71	88
238	4	40	41	50
239	4	68	69	91
240	4	35	34	64

Dihedrals

1	15	36	37	38	39
1	16	36	37	38	39
1	17	36	37	38	39
2	18	4	5	6	27
3	27	90	70	69	91
4	28	33	34	35	62
4	29	33	34	35	62
5	27	85	72	71	87
6	18	70	71	72	85
7	18	103	102	101	120
8	27	111	105	104	114
9	35	108	107	106	109
10	18	101	102	103	116
11	27	125	98	97	127
12	5	15	12	11	16
12	6	15	12	11	16
13	14	12	11	10	18
14	14	76	75	74	82
15	27	118	102	101	120
16	18	97	98	99	124
17	18	72	73	74	81
18	27	87	71	70	90
19	27	24	7	6	26
20	14	41	42	43	44
21	27	58	37	36	59
22	18	103	104	105	111
23	1	65	67	68	69
23	2	65	67	68	69
23	3	65	67	68	69
23	4	65	67	68	69
24	18	6	5	4	31
25	18	70	69	68	94
26	27	57	37	36	60
27	27	92	69	68	93
28	27	16	11	10	18
29	18	71	72	73	84
30	13	2	1	65	67
31	11	2	1	3	32
31	12	2	1	3	32
32	27	86	72	71	88
33	15	5	6	7	8
33	16	5	6	7	8
33	17	5	6	7	8
34	18	72	71	70	89
35	18	38	37	36	59
36	27	124	99	98	125
37	5	5	4	3	32
37	6	5	4	3	32
38	27	21	9	8	23
39	18	8	7	6	27
40	28	96	97	98	125
40	29	96	97	98	125
41	14	73	74	75	76
42	18	104	105	106	110
43	5	31	4	3	32
43	6	31	4	3	32
44	18	41	40	39	54
45	5	94	68	67	95
45	6	94	68	67	95
46	5	1	3	4	31
46	6	1	3	4	31
47	27	80	75	74	82
48	15	68	69	70	71
48	16	68	69	70	71
48	17	68	69	70	71
49	18	74	73	72	86
50	27	23	8	7	24
51	18	38	39	40	51
52	33	105	106	107	108
52	34	105	106	107	108
53	14	3	4	5	29
54	15	34	35	36	37
54	16	34	35	36	37
54	17	34	35	36	37
55	28	33	34	35	61
55	29	33	34	35	61
56	5	10	11	12	15
56	6	10	11	12	15
57	27	112	105	104	113
58	18	103	102	101	119
59	28	44	43	42	48
59	29	44	43	42	48
60	27	111	105	104	113
61	27	88	71	70	90
62	27	51	40	39	53
63	22	44	96	97	128
64	15	40	41	42	43
64	16	40	41	42	43
64	17	40	41	42	43
65	18	104	103	102	118
66	27	114	104	103	116
67	27	126	98	97	128
68	27	47	42	41	49
69	14	76	75	74	81
70	27	118	102	101	119
71	27	120	101	100	122
72	27	87	71	70	89
73	27	25	7	6	26
74	14	104	105	106	107
75	18	39	38	37	58
76	18	105	104	103	115
77	15	102	103	104	105
77	16	102	103	104	105
77	17	102	103	104	105
78	18	101	100	99	123
79	14	3	4	5	6
80	9	2	1	3	4
80	10	2	1	3	4
81	27	86	72	71	87
82	18	71	72	73	83
83	18	36	37	38	55
84	27	123	99	98	126
85	27	20	9	8	22
86	27	60	36	35	62
87	25	14	13	33	34
87	26	14	13	33	34
88	27	54	39	38	56
89	27	116	103	102	118
90	27	50	41	40	51
91	15	97	98	99	100
91	16	97	98	99	100
91	17	97	98	99	100
92	18	98	99	100	122
93	27	110	106	105	112
94	18	99	100	101	120
95	18	41	40	39	53
96	18	100	101	102	117
97	18	68	69	70	90
98	18	7	8	9	20
99	27	83	73	72	86
100	18	74	73	72	85
101	18	99	98	97	127
102	31	77	76	75	80
103	18	71	70	69	91
104	27	82	74	73	84
105	27	26	6	5	29
106	27	18	10	9	21
107	18	69	70	71	87
108	18	9	10	11	16
109	28	44	43	42	47
109	29	44	43	42	47
110	14	67	68	69	92
111	27	88	71	70	89
112	18	73	74	75	79
113	27	22	8	7	25
114	15	7	8	9	10
114	16	7	8	9	10
114	17	7	8	9	10
115	22	44	96	97	127
116	18	104	103	102	117
117	27	52	40	39	54
118	27	81	74	73	84
119	27	120	101	100	121
120	18	34	35	36	60
121	27	46	43	42	48
122	27	45	43	42	48
123	27	119	101	100	122
124	18	43	42	41	50
125	18	5	6	7	24
126	18	7	6	5	28
127	18	100	99	98	125
128	18	42	41	40	52
129	15	100	101	102	103
129	16	100	101	102	103
129	17	100	101	102	103
130	15	98	99	100	101
130	16	98	99	100	101
130	17	98	99	100	101
131	31	74	75	76	77
132	18	37	36	35	62
133	27	115	103	102	117
134	27	59	36	35	61
135	27	53	39	38	56
136	27	54	39	38	55
137	18	106	105	104	113
138	18	98	99	100	121
139	18	40	41	42	48
140	18	8	9	10	19
141	27	121	100	99	124
142	27	17	11	10	19
143	31	77	76	75	79
144	18	102	101	100	121
145	27	49	41	40	52
146	18	4	5	6	26
147	27	82	74	73	83
148	18	75	74	73	84
149	18	6	7	8	23
150	27	18	10	9	20
151	14	67	68	69	91
152	15	70	71	72	73
152	16	70	71	72	73
152	17	70	71	72	73
153	18	101	102	103	115
154	20	13	33	34	35
154	21	13	33	34	35
155	18	36	35	34	64
156	18	39	40	41	50
157	27	22	8	7	24
158	27	61	35	34	64
159	18	40	39	38	56
160	5	13	12	11	17
160	6	13	12	11	17
161	27	55	38	37	58
162	27	109	106	105	112
163	27	52	40	39	53
164	27	113	104	103	116
165	7	11	12	13	33
165	8	11	12	13	33
166	27	81	74	73	83
167	18	97	98	99	123
168	27	46	43	42	47
169	27	90	70	69	92
170	18	43	42	41	49
171	18	70	71	72	86
172	27	84	73	72	86
173	18	6	5	4	30
174	18	70	69	68	93
175	18	102	103	104	114
176	27	57	37	36	59
177	18	42	41	40	51
178	5	69	68	67	95
178	6	69	68	67	95
179	13	2	1	65	66
180	18	73	72	71	88
181	27	28	5	4	31
182	27	53	39	38	55
183	27	19	10	9	21
184	7	32	3	1	65
184	8	32	3	1	65
185	14	9	10	11	12
186	27	21	9	8	22
187	14	33	34	35	36
188	15	69	70	71	72
188	16	69	70	71	72
188	17	69	70	71	72
189	18	8	7	6	26
190	5	13	12	11	16
190	6	13	12	11	16
191	27	89	70	69	92
192	18	104	105	106	109
193	5	1	3	4	30
193	6	1	3	4	30
194	27	92	69	68	94
195	5	15	12	11	17
195	6	15	12	11	17
196	27	80	75	74	81
197	7	15	12	13	33
197	8	15	12	13	33
198	27	17	11	10	18
199	27	16	11	10	19
200	15	99	100	101	102
200	16	99	100	101	102
200	17	99	100	101	102
201	22	42	43	44	96
202	27	49	41	40	51
203	14	3	4	5	28
204	28	107	106	105	112
204	29	107	106	105	112
205	27	124	99	98	126
206	18	75	74	73	83
207	5	65	67	68	94
207	6	65	67	68	94
208	18	36	35	34	63
209	14	67	68	69	70
210	18	39	40	41	49
211	18	9	8	7	25
212	18	40	39	38	55
213	27	126	98	97	127
214	27	114	104	103	115
215	27	55	38	37	57
216	27	113	104	103	115
217	18	37	38	39	54
218	27	23	8	7	25
219	18	38	39	40	52
220	18	11	10	9	21
221	27	91	69	68	94
222	13	3	1	65	67
223	7	1	65	67	95
223	8	1	65	67	95
224	19	12	13	33	34
225	27	112	105	104	114
226	30	43	44	96	97
227	18	10	9	8	23
228	27	84	73	72	85
229	27	122	100	99	124
230	27	51	40	39	54
231	27	117	102	101	120
232	15	39	40	41	42
232	16	39	40	41	42
232	17	39	40	41	42
233	18	102	103	104	113
234	18	39	38	37	57
235	27	48	42	41	50
236	27	29	5	4	31
237	27	47	42	41	50
238	27	123	99	98	125
239	18	73	72	71	87
240	27	60	36	35	61
241	27	28	5	4	30
242	18	41	42	43	46
243	27	19	10	9	20
244	27	116	103	102	117
245	11	66	65	67	95
245	12	66	65	67	95
246	7	1	65	67	68
246	8	1	65	67	68
247	27	25	7	6	27
248	27	110	106	105	111
249	27	89	70	69	91
250	18	99	100	101	119
251	5	30	4	3	32
251	6	30	4	3	32
252	18	105	104	103	116
253	18	68	69	70	89
254	18	101	100	99	124
255	27	83	73	72	85
256	18	35	36	37	58
257	18	36	37	38	56
258	15	37	38	39	40
258	16	37	38	39	40
258	17	37	38	39	40
259	15	35	36	37	38
259	16	35	36	37	38
259	17	35	36	37	38
260	27	27	6	5	29
261	27	20	9	8	23
262	32	75	76	77	78
263	28	107	106	105	111
263	29	107	106	105	111
264	22	13	33	34	64
265	1	10	11	12	13
265	2	10	11	12	13
265	3	10	11	12	13
265	4	10	11	12	13
266	23	14	13	12	15
266	24	14	13	12	15
267	27	26	6	5	28
268	27	50	41	40	52
269	5	65	67	68	93
269	6	65	67	68	93
270	27	79	75	74	82
271	15	103	104	105	106
271	16	103	104	105	106
271	17	103	104	105	106
272	15	101	102	103	104
272	16	101	102	103	104
272	17	101	102	103	104
273	9	66	65	67	68
273	10	66	65	67	68
274	27	62	35	34	64
275	18	9	8	7	24
276	18	100	101	102	118
277	18	7	8	9	21
278	27	56	38	37	58
279	18	99	98	97	128
280	18	37	38	39	53
281	18	71	70	69	92
282	18	34	35	36	59
283	18	11	10	9	20
284	27	91	69	68	93
285	27	45	43	42	47
286	13	3	1	65	66
287	27	119	101	100	121
288	27	85	72	71	88
289	18	10	9	8	22
290	18	69	70	71	88
291	35	108	107	106	110
292	27	125	98	97	128
293	27	122	100	99	123
294	18	73	74	75	80
295	14	12	11	10	19
296	27	117	102	101	119
297	5	93	68	67	95
297	6	93	68	67	95
298	27	48	42	41	49
299	27	29	5	4	30
300	15	6	7	8	9
300	16	6	7	8	9
300	17	6	7	8	9
301	18	37	36	35	61
302	18	72	73	74	82
303	27	24	7	6	27
304	18	41	42	43	45
305	18	5	6	7	25
306	27	58	37	36	60
307	18	103	104	105	112
308	18	7	6	5	29
309	15	8	9	10	11
309	16	8	9	10	11
309	17	8	9	10	11
310	18	9	10	11	17
311	18	100	99	98	126
312	18	40	41	42	47
313	22	46	43	44	96
314	18	8	9	10	18
315	22	45	43	44	96
316	27	121	100	99	123
317	18	35	36	37	57
318	15	71	72	73	74
318	16	71	72	73	74
318	17	71	72	73	74
319	27	115	103	102	118
320	27	27	6	5	28
321	15	72	73	74	75
321	16	72	73	74	75
321	17	72	73	74	75
322	27	59	36	35	62
323	18	72	71	70	90
324	18	38	37	36	60
325	22	13	33	34	63
326	18	6	7	8	22
327	18	106	105	104	114
328	27	79	75	74	81
329	28	96	97	98	126
329	29	96	97	98	126
330	27	62	35	34	63
331	1	1	3	4	5
331	2	1	3	4	5
331	3	1	3	4	5
331	4	1	3	4	5
332	27	61	35	34	63
333	7	4	3	1	65
333	8	4	3	1	65
334	7	11	12	13	14
334	8	11	12	13	14
335	15	4	5	6	7
335	16	4	5	6	7
335	17	4	5	6	7
336	27	56	38	37	57
337	27	109	106	105	111
338	14	96	97	98	99
339	18	102	101	100	122
340	22	44	96	97	98
341	15	38	39	40	41
341	16	38	39	40	41
341	17	38	39	40	41

Impropers

20	2	65	66	67	1
26	2	1	65	2	3
65	2	1	3	65	2
126	2	1	2	3	65
186	1	67	95	65	68
229	3	13	33	12	14
404	1	12	13	15	11
441	1	67	65	68	95
506	2	65	1	66	67
527	3	13	12	14	33
636	1	3	32	1	4
719	1	67	68	95	65
729	1	12	15	11	13
745	1	12	11	13	15
759	3	13	14	33	12
824	2	65	67	1	66
885	1	3	1	4	32
893	1	3	4	32	1
