Title

51 atoms
50 bonds
89 angles
151 dihedrals
12 impropers

8 atom types
11 bond types
5 angle types
29 dihedral types
2 improper types
-2.398999929 97.60100007 xlo xhi
-1.483999968 98.51600003 ylo yhi
-5.290999889 94.70900011 zlo zhi
0.0 0.0 0.0 xy xz yz

Masses

1	15.99943
2	12.01078
3	1.007947
4	12.01078
5	15.99943
6	1.007947
7	15.99943
8	1.007947


Pair Coeffs

1	0.16846514	3.0251065
2	0.10884061	3.3795318
3	0.016409246	2.5832257
4	0.086879315	3.4806469
5	0.2102061	3.0398122
6	0.015779483	2.6445434
7	0.20947353	2.99716
8	1.2326e-05	0.53453923

Bond Coeffs

1 harmonic	366.7408841747	1.425895053732
2 harmonic	300.03137914615	1.451203938761
3 harmonic	264.62148576755	1.52190126495
4 harmonic	370.04670688625	1.093899492634
5 harmonic	301.15400723785	1.345741232799
6 harmonic	582.698766451	1.225198386222
7 harmonic	329.44145381095	1.523435958334
8 harmonic	279.1350963404	1.454628925034
9 harmonic	329.96998057905	1.427343958716
10 harmonic	543.5267831885	0.9716763312559
11 harmonic	385.7604595587	1.369745182308


Angle Coeffs

1 harmonic	53.20531626545	116.5475862634
2 harmonic	65.09061609600001	110.3538806181
3 harmonic	201.41175231035	127.4691416191
4 harmonic	57.8982893754	126.8062420451
5 harmonic	48.776492647595	115.6030999533


Dihedral Coeffs

1 fourier 1	-0.0309670556842	3	0
2 fourier 1	0.4598191477945	2	0
3 fourier 1	0.1115525666802	3	0
4 fourier 1	0.3432490222662	1	0
5 fourier 1	0.0473758381877	3	0
6 fourier 1	0.457973137376	1	0
7 fourier 1	0.1918272375143	3	0
8 fourier 1	0.9202179876409	1	180
9 fourier 1	1.163809172478	2	180
10 fourier 1	0.1679186987369	1	180
11 fourier 1	2.779853741805	2	180
12 fourier 1	0.02664938770063	3	0
13 fourier 1	0.1911926717192	3	0
14 fourier 1	0.1155372516788	3	0
15 fourier 1	-0.3703352413219	2	0
16 fourier 1	0.4541676554336	1	0
17 fourier 1	0.1489710476446	2	0
18 fourier 1	0.02960027280666	3	180
19 fourier 1	0.09223874044423	3	0
20 fourier 1	0.3159935921949	2	180
21 fourier 1	0.3247796806857	1	180
22 fourier 1	0.1040663847541	3	0
23 fourier 1	0.9974165607242	2	180
24 fourier 1	0.3445382149273	3	0
25 fourier 1	0.1364556373303	1	0
26 fourier 1	0.3026390167484	3	0
27 fourier 1	2.687457892086	2	180
28 fourier 1	2.772607909663	2	180
29 fourier 1	0.09692684957115	1	0


Improper Coeffs

1 3.5	-1	2
2 0.3666666666666667	-1	2


Atoms

1	1	1	-0.15964399	1.576	-0.336	0.85699999
2	1	2	0.048083998	0.63599998	-0.419	-0.17900001
3	1	2	0.149662	-0.71899998	0.11	0.28999999
4	1	1	-0.49376899	-1.675	-0.035999998	-0.72399998
5	1	3	0.083898999	-1.051	-0.46900001	1.177
6	1	3	0.083898999	-0.63099998	1.1799999	0.58899999
7	1	3	0.083044	0.52999997	-1.484	-0.477
8	1	3	0.083044	0.98699999	0.154	-1.068
9	1	4	0.76249701	-1.49	0.71600002	-1.418
10	1	5	-0.54793	-2.3989999	1.101	-2.135
11	1	2	-0.20882501	-0.126	1.327	-1.546
12	1	2	-0.112569	0.86000001	0.69800001	-0.55500001
13	1	2	-0.091732003	2.2520001	1.326	-0.69
14	1	2	-0.25706801	3.2379999	0.69700003	0.301
15	1	4	0.51818502	4.6020002	1.308	0.17299999
16	1	5	-0.67690402	5.5110002	0.92199999	0.88999999
17	1	6	0.1151	2.872	0.85000002	1.339
18	1	6	0.1151	3.3150001	-0.39500001	0.108
19	1	6	0.076727003	2.1830001	2.4189999	-0.495
20	1	6	0.076727003	2.6259999	1.173	-1.727
21	1	6	0.085681997	0.486	0.85000002	0.48199999
22	1	6	0.085681997	0.92900002	-0.396	-0.75
23	1	6	0.118544	-0.20299999	2.4189999	-1.353
24	1	6	0.118544	0.23899999	1.173	-2.5840001
25	1	1	-0.153846	1.845	0.61799997	0.92000002
26	1	2	0.018031999	3.148	0.70099998	0.41100001
27	1	2	0.090024002	4.1529999	0.17200001	1.434
28	1	7	-0.686297	5.461	0.31799999	0.95200002
29	1	8	0.383715	5.5970001	-0.40000001	0.27900001
30	1	3	0.079259999	4.0549998	0.75199997	2.3759999
31	1	3	0.079259999	3.941	-0.89700001	1.663
32	1	3	0.083705001	3.3759999	1.766	0.192
33	1	3	0.083705001	3.23	0.12800001	-0.54100001
34	1	4	0.51818502	4.7950001	2.092	-0.551
35	1	5	-0.67690402	4.7340002	3.2609999	-0.204
36	1	2	-0.25706801	5.1149998	1.737	-1.972
37	1	2	-0.091732003	6.5419998	2.1619999	-2.336
38	1	2	-0.110043	6.8790002	1.771	-3.7820001
39	1	2	-0.218835	8.2790003	2.24	-4.1999998
40	1	4	0.82533997	9.3549995	1.499	-3.4679999
41	1	5	-0.54905301	9.6759996	0.33399999	-3.8269999
42	1	7	-0.66390198	9.9790001	2.0840001	-2.3710001
43	1	8	0.39629701	10.699	1.59	-1.857
44	1	6	0.119581	8.3850002	3.332	-4.0180001
45	1	6	0.119581	8.4060001	2.0699999	-5.2909999
46	1	6	0.085681997	6.138	2.24	-4.4660001
47	1	6	0.085681997	6.803	0.66799998	-3.905
48	1	6	0.076727003	6.6399999	3.2639999	-2.221
49	1	6	0.076727003	7.2550001	1.668	-1.64
50	1	6	0.1151	5.0110002	0.63700002	-2.098
51	1	6	0.1151	4.3839998	2.237	-2.6440001

Bonds

1	1	1	2
2	2	1	25
3	3	2	3
4	4	2	7
5	4	2	8
6	1	3	4
7	4	3	5
8	4	3	6
9	5	4	9
10	6	9	10
11	7	9	11
12	3	11	12
13	4	11	23
14	4	11	24
15	3	12	13
16	4	12	21
17	4	12	22
18	3	13	14
19	4	13	19
20	4	13	20
21	7	14	15
22	4	14	17
23	4	14	18
24	6	15	16
25	8	15	34
26	1	25	26
27	3	26	27
28	4	26	32
29	4	26	33
30	9	27	28
31	4	27	30
32	4	27	31
33	10	28	29
34	6	34	35
35	7	34	36
36	3	36	37
37	4	36	50
38	4	36	51
39	3	37	38
40	4	37	48
41	4	37	49
42	3	38	39
43	4	38	46
44	4	38	47
45	7	39	40
46	4	39	44
47	4	39	45
48	6	40	41
49	11	40	42
50	10	42	43

Angles

1	1	1	2	7
2	1	13	14	15
3	1	25	26	32
4	1	9	11	12
5	1	36	37	38
6	4	39	40	41
7	1	11	12	21
8	1	38	37	48
9	5	21	12	22
10	1	12	13	14
11	1	4	3	5
12	1	40	39	45
13	1	15	14	17
14	1	2	3	6
15	1	9	11	24
16	3	4	9	10
17	1	11	12	13
18	1	15	14	18
19	4	35	34	36
20	1	28	27	31
21	5	44	39	45
22	1	34	36	37
23	1	3	2	8
24	5	7	2	8
25	1	26	27	30
26	5	32	26	33
27	1	37	36	51
28	1	12	11	23
29	1	1	2	8
30	1	25	26	33
31	1	12	13	19
32	4	39	40	42
33	1	11	12	22
34	4	15	34	35
35	1	34	36	50
36	5	17	14	18
37	1	38	37	49
38	1	13	12	21
39	1	12	11	24
40	1	2	3	4
41	4	14	15	16
42	1	13	14	17
43	2	2	1	25
44	1	12	13	20
45	1	34	36	51
46	5	5	3	6
47	1	13	12	22
48	1	2	3	5
49	5	23	11	24
50	1	13	14	18
51	5	48	37	49
52	2	3	4	9
53	1	4	3	6
54	1	14	13	19
55	3	41	40	42
56	1	39	38	46
57	1	36	37	48
58	2	27	28	29
59	1	26	27	31
60	4	4	9	11
61	1	14	13	20
62	1	40	39	44
63	1	37	38	46
64	1	9	11	23
65	5	46	38	47
66	1	36	37	49
67	2	1	25	26
68	4	15	34	36
69	1	27	26	32
70	2	40	42	43
71	5	30	27	31
72	1	38	39	44
73	5	50	36	51
74	1	37	38	47
75	1	28	27	30
76	1	26	27	28
77	1	3	2	7
78	4	16	15	34
79	1	38	39	40
80	1	27	26	33
81	1	1	2	3
82	1	38	39	45
83	4	10	9	11
84	5	19	13	20
85	1	37	38	39
86	1	25	26	27
87	1	37	36	50
88	4	14	15	34
89	1	39	38	47

Dihedrals

1	26	29	28	27	31
2	3	28	27	26	33
2	4	28	27	26	33
3	14	37	38	39	40
4	13	46	38	37	48
5	5	1	25	26	27
6	12	13	14	15	34
7	22	36	37	38	46
8	13	5	3	2	8
9	22	38	37	36	50
10	5	1	25	26	32
11	5	8	2	1	25
12	12	38	39	40	42
13	19	11	12	13	14
13	20	11	12	13	14
13	21	11	12	13	14
14	7	2	3	4	9
14	8	2	3	4	9
15	13	31	27	26	32
16	9	3	4	9	10
16	10	3	4	9	10
17	13	46	38	37	49
18	5	5	3	4	9
19	13	18	14	13	19
20	22	11	12	13	19
21	6	2	1	25	26
22	13	44	39	38	47
23	13	6	3	2	8
24	16	41	40	39	45
24	17	41	40	39	45
24	18	41	40	39	45
25	22	14	13	12	22
26	3	1	2	3	5
26	4	1	2	3	5
27	13	45	39	38	47
28	12	4	9	11	12
29	12	15	34	36	50
30	16	10	9	11	23
30	17	10	9	11	23
30	18	10	9	11	23
31	22	39	38	37	48
32	22	13	12	11	23
33	19	36	37	38	39
33	20	36	37	38	39
33	21	36	37	38	39
34	15	35	34	36	37
35	22	12	13	14	17
36	16	16	15	14	18
36	17	16	15	14	18
36	18	16	15	14	18
37	22	37	38	39	45
38	12	4	9	11	24
39	13	30	27	26	32
40	27	39	40	42	43
41	5	3	2	1	25
42	3	25	26	27	30
42	4	25	26	27	30
43	13	47	38	37	48
44	3	4	3	2	7
44	4	4	3	2	7
45	12	15	34	36	51
46	14	34	36	37	48
47	22	12	13	14	18
48	14	40	39	38	46
49	13	19	13	12	21
50	23	14	15	34	35
51	13	17	14	13	19
52	22	36	37	38	47
53	22	38	37	36	51
54	5	1	25	26	33
55	11	3	4	9	11
56	3	4	3	2	8
56	4	4	3	2	8
57	14	34	36	37	49
58	13	31	27	26	33
59	13	48	37	36	50
60	23	16	15	34	35
61	12	18	14	15	34
62	13	18	14	13	20
63	22	11	12	13	20
64	14	40	39	38	47
65	13	19	13	12	22
66	14	9	11	12	13
67	13	17	14	13	20
68	13	22	12	11	23
69	15	10	9	11	12
70	15	13	14	15	16
71	13	21	12	11	23
72	5	6	3	4	9
73	14	15	14	13	19
74	23	16	15	34	36
75	26	29	28	27	30
76	16	10	9	11	24
76	17	10	9	11	24
76	18	10	9	11	24
77	13	22	12	11	24
78	22	39	38	37	49
79	28	41	40	42	43
79	29	41	40	42	43
80	22	13	12	11	24
81	13	20	13	12	21
82	14	9	11	12	21
83	13	30	27	26	33
84	13	5	3	2	7
85	3	25	26	27	31
85	4	25	26	27	31
86	13	47	38	37	49
87	15	38	39	40	41
88	16	35	34	36	50
88	17	35	34	36	50
88	18	35	34	36	50
89	13	49	37	36	50
90	3	1	2	3	6
90	4	1	2	3	6
91	14	34	36	37	38
92	13	20	13	12	22
93	5	7	2	1	25
94	14	9	11	12	22
95	24	26	27	28	29
95	25	26	27	28	29
96	12	17	14	15	34
97	23	14	15	34	36
98	12	15	34	36	37
99	12	42	40	39	44
100	13	44	39	38	46
101	14	12	13	14	15
102	13	6	3	2	7
103	16	41	40	39	44
103	17	41	40	39	44
103	18	41	40	39	44
104	16	35	34	36	51
104	17	35	34	36	51
104	18	35	34	36	51
105	22	14	13	12	21
106	1	1	2	3	4
106	2	1	2	3	4
107	13	49	37	36	51
108	13	48	37	36	51
109	13	45	39	38	46
110	1	25	26	27	28
110	2	25	26	27	28
111	3	28	27	26	32
111	4	28	27	26	32
112	12	42	40	39	45
113	13	21	12	11	24
114	16	16	15	14	17
114	17	16	15	14	17
114	18	16	15	14	17
115	14	15	14	13	20
116	22	37	38	39	44
117	12	4	9	11	23

Impropers

60	1	40	39	41	42
74	2	15	14	16	34
164	1	40	42	39	41
187	1	9	10	11	4
200	2	34	36	15	35
205	1	9	11	4	10
223	2	34	35	36	15
245	2	15	34	14	16
257	2	15	16	34	14
263	2	34	15	35	36
292	1	40	41	42	39
295	1	9	4	10	11
