Title

103 atoms
106 bonds
175 angles
282 dihedrals
126 impropers

9 atom types
14 bond types
8 angle types
30 dihedral types
3 improper types
-14.77400017 85.22599983 xlo xhi
-10.47399998 89.52600002 ylo yhi
-2.579999924 97.42000008 zlo zhi
0.0 0.0 0.0 xy xz yz

Masses

1	14.00672
2	12.01078
3	1.007947
4	15.99943
5	1.007947
6	12.01078
7	1.007947
8	15.99943
9	1.007947


Pair Coeffs

1	0.16769152	3.206876
2	0.086879315	3.4806469
3	0.015611343	2.5725815
4	0.2102061	3.0398122
5	0.014090815	1.1034277
6	0.10884061	3.3795318
7	0.015779483	2.6445434
8	0.20947353	2.99716
9	1.2326e-05	0.53453923

Bond Coeffs

1 harmonic	390.03554688505	1.390160554689
2 harmonic	505.144496193	1.019481865027
3 harmonic	422.7150220147	1.421786517481
4 harmonic	360.7852444772	1.387193227181
5 harmonic	397.2545789619	1.085358495916
6 harmonic	279.1350963404	1.454628925034
7 harmonic	399.1592953295	1.371688562017
8 harmonic	582.698766451	1.225198386222
9 harmonic	492.76746816345	1.381897776683
10 harmonic	329.44145381095	1.523435958334
11 harmonic	264.62148576755	1.52190126495
12 harmonic	370.04670688625	1.093899492634
13 harmonic	385.7604595587	1.369745182308
14 harmonic	543.5267831885	0.9716763312559


Angle Coeffs

1 harmonic	57.8982893754	126.8062420451
2 harmonic	55.42182150775	117.3465570514
3 harmonic	63.44422595415	115.5071327674
4 harmonic	34.066775159195	129.1835929926
5 harmonic	53.20531626545	116.5475862634
6 harmonic	48.776492647595	115.6030999533
7 harmonic	65.09061609600001	110.3538806181
8 harmonic	201.41175231035	127.4691416191


Dihedral Coeffs

1 fourier 1	3.661930099076	2	180
2 fourier 1	1.193093382682	2	180
3 fourier 1	0.02021088501612	1	0
4 fourier 1	1.163235555439	2	180
5 fourier 1	5.294842998052	2	180
6 fourier 1	0.2347635637734	2	180
7 fourier 1	0.4747469131102	3	0
8 fourier 1	0.9974165607242	2	180
9 fourier 1	3.101948770557	2	180
10 fourier 1	-0.4252153282372	1	0
11 fourier 1	1.809047390003	2	180
12 fourier 1	-0.04816277792592	1	0
13 fourier 1	-0.04561822763521	4	0
14 fourier 1	0.1536091026885	2	0
15 fourier 1	0.02664938770063	3	0
16 fourier 1	2.348375642009	2	180
17 fourier 1	1.256156174911	1	0
18 fourier 1	0.1155372516788	3	0
19 fourier 1	-0.3703352413219	2	0
20 fourier 1	0.4541676554336	1	0
21 fourier 1	0.1489710476446	2	0
22 fourier 1	0.02960027280666	3	180
23 fourier 1	0.09223874044423	3	0
24 fourier 1	0.3159935921949	2	180
25 fourier 1	0.3247796806857	1	180
26 fourier 1	0.1040663847541	3	0
27 fourier 1	0.1911926717192	3	0
28 fourier 1	2.687457892086	2	180
29 fourier 1	2.772607909663	2	180
30 fourier 1	0.09692684957115	1	0


Improper Coeffs

1 0.3666666666666667	-1	2
2 0.3333333333333333	-1	2
3 3.5	-1	2


Atoms

1	1	1	-0.41415599	-6.9429998	-0.057	-0.81300002
2	1	2	0.1166	-5.6259999	-0.13500001	-0.25999999
3	1	2	-0.41706699	-5.3800001	-0.917	0.80299997
4	1	3	0.231056	-6.1729999	-1.5	1.255
5	1	2	-0.087844998	-4.0209999	-0.98400003	1.375
6	1	3	0.224242	-3.835	-1.599	2.247
7	1	2	-0.28601599	-3.026	-0.27700001	0.829
8	1	3	0.218116	-2.04	-0.31400001	1.275
9	1	2	-0.083169997	-3.277	0.56900001	-0.368
10	1	2	0.031440999	-2.201	1.396	-0.95700002
11	1	2	-0.46325701	-0.94400001	0.98299998	-1.179
12	1	2	0.60329902	-0.479	-0.419	-1.0599999
13	1	4	-0.56862599	-1.279	-1.363	-1.301
14	1	2	-0.46325701	0.92299998	-0.75800002	-0.73900002
15	1	2	0.031440999	1.802	0.133	-0.25400001
16	1	2	-0.089933001	3.2130001	-0.189	0.071999997
17	1	2	-0.28601599	3.6340001	-1.4400001	0.35699999
18	1	3	0.218116	2.9530001	-2.279	0.375
19	1	2	-0.10526	5.0500002	-1.693	0.69199997
20	1	3	0.224242	5.3769999	-2.701	0.91100001
21	1	2	-0.393132	5.9239998	-0.68199998	0.73100001
22	1	3	0.22874101	6.96	-0.87599999	0.98000002
23	1	2	0.18354701	5.4770002	0.69800001	0.44100001
24	1	1	-0.49380299	6.415	1.776	0.493
25	1	5	0.31284401	6.1209998	2.7579999	0.292
26	1	2	-0.33811301	4.191	0.92799997	0.133
27	1	3	0.226408	3.859	1.938	-0.081
28	1	3	0.213864	1.495	1.161	-0.112
29	1	3	0.174807	1.222	-1.783	-0.90399998
30	1	3	0.174807	-0.236	1.717	-1.541
31	1	3	0.213864	-2.448	2.418	-1.219
32	1	2	-0.342471	-4.5240002	0.65399998	-0.86000001
33	1	3	0.226555	-4.7340002	1.2920001	-1.711
34	1	5	0.377018	-7.1339998	0.55199999	-1.6390001
35	1	2	0.76191097	7.4349999	1.5930001	0.73799998
36	1	4	-0.662889	8.2049999	2.536	0.829
37	1	6	-0.182173	7.9330001	0.197	0.97100002
38	1	6	-0.109997	6.8060002	-0.829	0.80699998
39	1	6	-0.083463997	7.3189998	-2.2539999	1.046
40	1	6	-0.24722099	6.1929998	-3.279	0.88200003
41	1	2	0.53482598	6.6900001	-4.6750002	1.115
42	1	4	-0.53022403	5.921	-5.618	1.024
43	1	7	0.13604601	5.381	-3.062	1.61
44	1	7	0.13604601	5.776	-3.2149999	-0.147
45	1	7	0.100896	7.7360001	-2.3269999	2.075
46	1	7	0.100896	8.1309996	-2.48	0.31900001
47	1	7	0.109262	5.9949999	-0.60299999	1.534
48	1	7	0.109262	6.3899999	-0.75599998	-0.223
49	1	7	0.140405	8.3500004	0.132	2
50	1	7	0.140405	8.7440004	-0.02	0.243
51	1	1	-0.41415599	-7.7329998	-0.60500002	-0.405
52	1	2	0.1166	-8.0430002	-0.528	0.98900002
53	1	2	-0.41706699	-7.3189998	0.255	1.8049999
54	1	3	0.231056	-6.4910002	0.83700001	1.419
55	1	2	-0.087844998	-7.6370001	0.322	3.2449999
56	1	3	0.224242	-7.0339999	0.93599999	3.9000001
57	1	2	-0.28601599	-8.6590004	-0.38600001	3.7409999
58	1	3	0.218116	-8.8640003	-0.34799999	4.803
59	1	2	-0.083169997	-9.4899998	-1.2309999	2.8440001
60	1	2	0.031440999	-10.592	-2.0580001	3.3800001
61	1	2	-0.46325701	-11.5	-1.645	4.2779999
62	1	2	0.60329902	-11.672	-0.243	4.7259998
63	1	4	-0.56862599	-11.407	0.70099998	3.934
64	1	2	-0.46325701	-12.221	0.094999999	6.0549998
65	1	2	0.031440999	-12.334	-0.79500002	7.053
66	1	2	-0.037234001	-12.884	-0.47299999	8.3929996
67	1	2	-0.28601599	-12.895	0.77700001	8.901
68	1	3	0.218116	-12.486	1.617	8.3559999
69	1	2	-0.039227001	-13.44	1.031	10.25
70	1	3	0.224242	-13.451	2.039	10.644
71	1	2	-0.453805	-13.914	0.02	10.986
72	1	3	0.23504201	-14.31	0.214	11.975
73	1	2	0.31619999	-13.892	-1.36	10.454
74	1	1	-0.84927201	-14.392	-2.438	11.249
75	1	5	0.37255901	-14.774	-2.2590001	12.204
76	1	5	0.37255901	-14.385	-3.4200001	10.892
77	1	2	-0.408613	-13.399	-1.59	9.2250004
78	1	3	0.23625199	-13.382	-2.5999999	8.8319998
79	1	3	0.213864	-12.041	-1.823	6.8850002
80	1	3	0.174807	-12.529	1.1210001	6.204
81	1	3	0.174807	-12.205	-2.3800001	4.6459999
82	1	3	0.213864	-10.663	-3.0799999	3.0280001
83	1	2	-0.342471	-9.1700001	-1.317	1.541
84	1	3	0.226555	-9.743	-1.954	0.87800002
85	1	5	0.377018	-8.2959995	-1.214	-1.039
86	1	2	0.53482598	7.7290001	-4.862	1.365
87	1	4	-0.53022403	8.0570002	-4.9710002	2.536
88	1	6	-0.24722099	8.7539997	-4.9660001	0.27500001
89	1	6	-0.082534	9.3529997	-6.375	0.219
90	1	6	-0.10056	10.382	-6.4899998	-0.91600001
91	1	6	-0.207691	11.049	-7.8709998	-0.958
92	1	2	0.846654	10.085	-8.9420004	-1.3660001
93	1	4	-0.44467899	9.7810001	-9.0889997	-2.5799999
94	1	8	-0.64173901	9.5	-9.7539997	-0.40000001
95	1	9	0.42672899	8.8360004	-10.474	-0.65799999
96	1	7	0.143462	11.484	-8.1149998	0.035999998
97	1	7	0.143462	11.885	-7.8449998	-1.6900001
98	1	7	0.110356	11.175	-5.7259998	-0.764
99	1	7	0.110356	9.8929996	-6.2810001	-1.893
100	1	7	0.100896	9.849	-6.605	1.188
101	1	7	0.100896	8.5349998	-7.1110001	0.057
102	1	7	0.13604601	8.2679996	-4.73	-0.69599998
103	1	7	0.13604601	9.5550003	-4.217	0.458

Bonds

1	1	1	2
2	2	1	34
3	3	1	51
4	4	2	3
5	4	2	32
6	5	3	4
7	4	3	5
8	5	5	6
9	4	5	7
10	5	7	8
11	4	7	9
12	6	9	10
13	4	9	32
14	7	10	11
15	5	10	31
16	6	11	12
17	5	11	30
18	8	12	13
19	6	12	14
20	7	14	15
21	5	14	29
22	6	15	16
23	5	15	28
24	4	16	17
25	4	16	26
26	5	17	18
27	4	17	19
28	5	19	20
29	4	19	21
30	5	21	22
31	4	21	23
32	1	23	24
33	4	23	26
34	2	24	25
35	9	24	35
36	5	26	27
37	5	32	33
38	8	35	36
39	10	35	37
40	11	37	38
41	12	37	49
42	12	37	50
43	11	38	39
44	12	38	47
45	12	38	48
46	11	39	40
47	12	39	45
48	12	39	46
49	10	40	41
50	12	40	43
51	12	40	44
52	8	41	42
53	6	41	86
54	1	51	52
55	2	51	85
56	4	52	53
57	4	52	83
58	5	53	54
59	4	53	55
60	5	55	56
61	4	55	57
62	5	57	58
63	4	57	59
64	6	59	60
65	4	59	83
66	7	60	61
67	5	60	82
68	6	61	62
69	5	61	81
70	8	62	63
71	6	62	64
72	7	64	65
73	5	64	80
74	6	65	66
75	5	65	79
76	4	66	67
77	4	66	77
78	5	67	68
79	4	67	69
80	5	69	70
81	4	69	71
82	5	71	72
83	4	71	73
84	1	73	74
85	4	73	77
86	2	74	75
87	2	74	76
88	5	77	78
89	5	83	84
90	8	86	87
91	10	86	88
92	11	88	89
93	12	88	102
94	12	88	103
95	11	89	90
96	12	89	100
97	12	89	101
98	11	90	91
99	12	90	98
100	12	90	99
101	10	91	92
102	12	91	96
103	12	91	97
104	8	92	93
105	13	92	94
106	14	94	95

Angles

1	1	57	59	83
2	5	38	37	49
3	1	57	59	60
4	8	93	92	94
5	5	92	91	97
6	1	55	57	59
7	1	74	73	77
8	1	41	86	88
9	1	1	2	32
10	1	42	41	86
11	1	10	9	32
12	5	86	88	89
13	4	62	61	81
14	4	61	60	82
15	1	17	19	21
16	4	8	7	9
17	1	15	16	17
18	5	38	37	50
19	4	54	53	55
20	5	89	88	103
21	1	40	41	42
22	1	61	62	63
23	4	52	83	84
24	5	88	89	101
25	5	90	91	96
26	3	25	24	35
27	4	68	67	69
28	4	62	64	80
29	5	39	40	44
30	1	14	15	16
31	4	56	55	57
32	4	72	71	73
33	3	75	74	76
34	4	2	3	4
35	4	67	69	70
36	6	98	90	99
37	4	10	11	30
38	3	2	1	34
39	5	90	91	92
40	1	3	2	32
41	1	3	5	7
42	4	60	61	81
43	3	34	1	51
44	1	21	23	26
45	1	53	55	57
46	4	66	77	78
47	4	16	17	18
48	1	61	62	64
49	2	23	24	35
50	4	14	15	28
51	5	86	88	102
52	5	40	39	45
53	3	73	74	76
54	1	2	3	5
55	1	67	69	71
56	4	16	26	27
57	5	39	38	47
58	1	36	35	37
59	1	51	52	83
60	5	39	40	41
61	4	5	7	8
62	6	96	91	97
63	6	43	40	44
64	1	15	16	26
65	1	16	26	23
66	5	41	40	43
67	5	40	39	46
68	4	12	14	29
69	5	37	38	47
70	5	39	38	48
71	1	60	59	83
72	5	88	89	90
73	1	91	92	93
74	6	100	89	101
75	4	9	10	31
76	1	7	9	32
77	1	24	35	36
78	6	47	38	48
79	5	38	39	40
80	1	40	41	86
81	1	9	10	11
82	5	41	40	44
83	5	38	39	45
84	4	15	14	29
85	4	23	26	27
86	1	64	65	66
87	1	62	64	65
88	4	70	69	71
89	4	52	53	54
90	1	71	73	77
91	7	92	94	95
92	1	65	66	77
93	5	35	37	49
94	5	89	90	98
95	5	37	38	39
96	5	90	91	97
97	4	4	3	5
98	1	67	66	77
99	1	2	32	9
100	1	24	35	37
101	1	11	12	13
102	3	1	51	85
103	1	51	52	53
104	4	2	32	33
105	4	69	71	72
106	3	23	24	25
107	1	59	60	61
108	2	2	1	51
109	4	22	21	23
110	1	87	86	88
111	1	16	17	19
112	1	60	61	62
113	5	89	90	99
114	5	86	88	103
115	4	9	32	33
116	5	90	89	100
117	1	71	73	74
118	5	92	91	96
119	4	19	21	22
120	1	41	86	87
121	1	10	11	12
122	1	69	71	73
123	1	52	83	59
124	1	5	7	9
125	4	11	10	31
126	4	17	19	20
127	5	89	90	91
128	5	91	90	98
129	1	21	23	24
130	1	7	9	10
131	5	89	88	102
132	5	90	89	101
133	5	37	38	48
134	5	88	89	100
135	1	19	21	23
136	1	91	92	94
137	5	35	37	38
138	1	1	2	3
139	5	39	40	43
140	1	63	62	64
141	6	45	39	46
142	4	12	11	30
143	1	24	23	26
144	1	53	52	83
145	4	66	67	68
146	1	12	14	15
147	4	18	17	19
148	4	3	5	6
149	4	66	65	79
150	5	91	90	99
151	4	58	57	59
152	5	38	39	46
153	4	53	55	56
154	1	52	53	55
155	4	16	15	28
156	4	59	83	84
157	5	35	37	50
158	4	65	64	80
159	1	65	66	67
160	4	6	5	7
161	4	20	19	21
162	3	73	74	75
163	1	11	12	14
164	4	73	77	78
165	1	66	77	73
166	4	59	60	82
167	3	52	51	85
168	1	66	67	69
169	1	13	12	14
170	6	102	88	103
171	4	55	57	58
172	4	64	65	79
173	6	49	37	50
174	2	1	51	52
175	1	17	16	26

Dihedrals

1	8	64	62	61	81
2	19	36	35	37	38
3	1	66	77	73	74
4	15	41	86	88	102
5	1	74	73	77	78
6	15	94	92	91	96
7	26	38	39	40	43
8	20	42	41	40	44
8	21	42	41	40	44
8	22	42	41	40	44
9	27	97	91	90	99
10	1	22	21	23	26
11	1	1	2	32	33
12	1	2	32	9	7
13	9	23	24	35	36
13	10	23	24	35	36
14	27	101	89	88	102
15	1	4	3	2	32
16	15	24	35	37	49
17	27	99	90	89	100
18	1	54	53	52	83
19	13	24	35	37	38
19	14	24	35	37	38
20	1	56	55	57	58
21	5	66	65	64	80
22	1	67	66	77	78
23	1	10	9	32	33
24	8	40	41	86	87
25	19	90	91	92	93
26	1	69	67	66	77
27	3	2	1	51	85
28	1	15	16	26	23
29	15	94	92	91	97
30	18	35	37	38	48
31	1	16	17	19	20
32	26	38	39	40	44
33	1	4	3	5	7
34	2	3	2	1	51
35	1	3	5	7	8
36	26	37	38	39	45
37	1	72	71	73	77
38	18	92	91	90	98
39	1	1	2	3	4
40	1	17	19	21	23
41	1	65	66	77	73
42	27	44	40	39	45
43	6	13	12	14	15
43	7	13	12	14	15
44	1	19	21	23	24
45	15	24	35	37	50
46	1	66	77	73	71
47	6	60	61	62	63
47	7	60	61	62	63
48	5	59	60	61	81
49	2	53	52	51	85
50	27	43	40	39	46
51	1	20	19	21	22
52	1	52	83	59	60
53	8	63	62	64	80
54	1	65	66	77	78
55	8	40	41	86	88
56	15	90	91	92	94
57	1	68	67	69	70
58	5	9	10	11	30
59	18	86	88	89	100
60	11	25	24	35	37
60	12	25	24	35	37
61	27	45	39	38	47
62	26	37	38	39	46
63	26	40	39	38	47
64	1	15	16	17	18
65	1	1	2	32	9
66	1	66	67	69	71
67	5	62	64	65	79
68	1	69	71	73	74
69	27	47	38	37	49
70	1	5	7	9	32
71	1	52	53	55	56
72	1	65	66	67	68
73	1	67	69	71	72
74	1	70	69	71	73
75	1	20	19	21	23
76	4	31	10	9	32
77	1	55	57	59	83
78	20	87	86	88	103
78	21	87	86	88	103
78	22	87	86	88	103
79	4	64	65	66	67
80	20	93	92	91	96
80	21	93	92	91	96
80	22	93	92	91	96
81	2	21	23	24	25
82	5	59	60	61	62
83	1	5	3	2	32
84	1	15	16	26	27
85	1	16	26	23	24
86	1	55	57	59	60
87	18	86	88	89	101
88	2	32	2	1	34
89	15	44	40	41	86
90	1	55	53	52	83
91	2	83	52	51	85
92	26	91	90	89	100
93	27	96	91	90	98
94	2	1	51	52	83
95	5	16	15	14	29
96	27	98	90	89	100
97	27	100	89	88	102
98	26	39	38	37	49
99	1	52	83	59	57
100	29	93	92	94	95
100	30	93	92	94	95
101	1	51	52	83	84
102	15	41	86	88	103
103	5	30	11	10	31
104	1	52	53	55	57
105	1	67	69	71	73
106	20	93	92	91	97
106	21	93	92	91	97
106	22	93	92	91	97
107	18	41	40	39	45
108	1	53	55	57	58
109	4	61	60	59	83
110	8	63	62	61	81
111	11	23	24	35	37
111	12	23	24	35	37
112	27	101	89	88	103
113	27	99	90	89	101
114	2	71	73	74	75
115	1	18	17	19	20
116	1	58	57	59	83
117	26	90	89	88	102
118	1	71	73	77	78
119	1	53	52	83	59
120	1	51	52	53	54
121	1	56	55	57	59
122	1	2	3	5	6
123	2	25	24	23	26
124	1	58	57	59	60
125	1	19	17	16	26
126	4	57	59	60	61
127	1	21	23	26	27
128	19	39	40	41	42
129	1	57	59	83	84
130	1	16	17	19	21
131	18	41	40	39	46
132	1	3	5	7	9
133	26	88	89	90	98
134	1	2	32	9	10
135	18	92	91	90	99
136	3	2	1	51	52
137	1	1	2	3	5
138	1	60	59	83	84
139	4	14	15	16	17
140	8	42	41	86	87
141	27	44	40	39	46
142	2	71	73	74	76
143	6	63	62	64	65
143	7	63	62	64	65
144	6	10	11	12	13
144	7	10	11	12	13
145	8	11	12	14	29
146	27	46	39	38	47
147	27	48	38	37	49
148	4	57	59	60	82
149	8	60	61	62	64
150	26	90	89	88	103
151	18	38	39	40	41
152	1	72	71	73	74
153	1	22	21	23	24
154	18	89	90	91	92
155	1	24	23	26	27
156	1	68	67	69	71
157	2	1	51	52	53
158	5	12	11	10	31
159	4	26	16	15	28
160	3	34	1	51	52
161	1	54	53	55	56
162	1	6	5	7	8
163	4	17	16	15	28
164	1	5	7	9	10
165	27	45	39	38	48
166	18	86	88	89	90
167	4	82	60	59	83
168	26	88	89	90	99
169	26	40	39	38	48
170	1	3	2	32	33
171	4	7	9	10	31
172	1	15	16	17	19
173	1	8	7	9	32
174	1	19	21	23	26
175	8	14	12	11	30
176	8	10	11	12	14
177	8	13	12	11	30
178	4	7	9	10	11
179	27	47	38	37	50
180	1	65	66	67	69
181	20	42	41	40	43
181	21	42	41	40	43
181	22	42	41	40	43
182	1	18	17	16	26
183	8	61	62	64	80
184	5	28	15	14	29
185	1	54	53	55	57
186	26	91	90	89	101
187	27	96	91	90	99
188	27	100	89	88	103
189	27	98	90	89	101
190	26	39	38	37	50
191	5	9	10	11	12
192	8	13	12	14	29
193	2	32	2	1	51
194	20	36	35	37	49
194	21	36	35	37	49
194	22	36	35	37	49
195	23	88	89	90	91
195	24	88	89	90	91
195	25	88	89	90	91
196	19	87	86	88	89
197	1	17	16	26	27
198	1	16	26	23	21
199	4	67	66	65	79
200	18	35	37	38	47
201	2	26	23	24	35
202	8	61	62	64	65
203	1	4	3	5	6
204	1	53	55	57	59
205	1	68	67	66	77
206	5	12	14	15	28
207	4	14	15	16	26
208	5	62	61	60	82
209	26	89	90	91	96
210	1	67	66	77	73
211	28	91	92	94	95
212	1	17	19	21	22
213	15	39	40	41	86
214	1	17	16	26	23
215	1	18	17	19	21
216	4	11	10	9	32
217	15	41	86	88	89
218	1	51	52	53	55
219	5	62	64	65	66
220	27	43	40	39	45
221	1	2	3	5	7
222	1	7	9	32	33
223	20	36	35	37	50
223	21	36	35	37	50
223	22	36	35	37	50
224	23	37	38	39	40
224	24	37	38	39	40
224	25	37	38	39	40
225	1	3	2	32	9
226	1	69	71	73	77
227	16	25	24	35	36
227	17	25	24	35	36
228	4	77	66	65	79
229	18	35	37	38	39
230	26	89	90	91	97
231	8	42	41	86	88
232	1	53	52	83	84
233	2	75	74	73	77
234	27	48	38	37	50
235	1	66	67	69	70
236	27	46	39	38	48
237	5	79	65	64	80
238	3	34	1	51	85
239	4	64	65	66	77
240	1	51	52	83	59
241	1	70	69	71	72
242	5	81	61	60	82
243	20	87	86	88	102
243	21	87	86	88	102
243	22	87	86	88	102
244	27	97	91	90	98
245	1	8	7	9	10
246	2	76	74	73	77
247	5	12	14	15	16
248	1	6	5	7	9
249	2	21	23	24	35
250	8	11	12	14	15
251	15	43	40	41	86
252	2	3	2	1	34

Impropers

6	2	1	51	2	34
7	1	52	51	53	83
16	1	35	36	37	24
20	1	69	71	67	70
23	1	35	37	24	36
27	1	55	57	53	56
29	1	73	74	77	71
31	1	15	14	16	28
35	1	86	41	87	88
36	1	21	22	23	19
37	1	83	52	59	84
40	2	1	2	34	51
43	1	2	32	1	3
46	1	73	77	71	74
48	1	65	64	66	79
50	3	92	93	94	91
60	1	12	14	11	13
65	1	32	33	2	9
70	1	61	62	81	60
71	1	62	63	64	61
78	1	53	55	52	54
87	1	2	3	32	1
99	1	55	53	56	57
101	1	67	69	66	68
102	1	16	26	15	17
104	1	66	67	77	65
107	1	77	66	73	78
108	1	77	78	66	73
109	1	71	73	69	72
110	2	51	52	85	1
112	1	5	7	3	6
113	1	60	61	82	59
118	1	86	88	41	87
120	1	5	6	7	3
123	1	26	16	23	27
124	1	3	5	2	4
125	1	23	24	26	21
129	3	92	91	93	94
132	1	71	72	73	69
140	1	52	53	83	51
141	1	64	80	62	65
145	2	24	35	23	25
156	2	74	76	73	75
157	1	86	87	88	41
158	1	17	18	19	16
159	1	62	64	61	63
163	1	66	65	67	77
166	1	32	2	9	33
167	1	57	59	55	58
169	1	14	15	29	12
171	1	65	79	64	66
180	1	23	21	24	26
181	1	61	60	62	81
182	1	32	9	33	2
185	1	26	23	27	16
186	1	35	24	36	37
194	1	11	30	10	12
199	2	74	75	76	73
200	1	83	59	84	52
206	1	73	71	74	77
211	2	24	23	25	35
215	1	77	73	78	66
221	1	67	66	68	69
223	1	9	7	10	32
227	1	7	9	5	8
229	1	59	57	60	83
233	1	14	12	15	29
235	2	74	73	75	76
238	3	92	94	91	93
241	1	12	13	14	11
244	1	15	28	14	16
246	1	65	66	79	64
247	1	67	68	69	66
249	1	17	16	18	19
259	1	15	16	28	14
261	1	53	54	55	52
262	1	3	2	4	5
263	1	16	15	17	26
267	1	57	58	59	55
268	1	12	11	13	14
270	2	51	85	1	52
275	1	14	29	12	15
282	1	9	32	7	10
286	1	2	1	3	32
290	1	59	60	83	57
296	2	24	25	35	23
298	1	3	4	5	2
301	1	11	10	12	30
314	2	51	1	52	85
316	1	21	19	22	23
318	1	10	11	31	9
326	1	19	20	21	17
329	1	10	31	9	11
335	1	61	81	60	62
339	1	60	82	59	61
345	1	5	3	6	7
347	1	11	12	30	10
349	1	64	65	80	62
351	1	52	83	51	53
356	1	7	5	8	9
358	1	41	40	42	86
360	1	53	52	54	55
374	1	60	59	61	82
375	1	21	23	19	22
376	1	23	26	21	24
377	1	19	21	17	20
380	1	17	19	16	18
381	1	10	9	11	31
386	1	64	62	65	80
389	1	83	84	52	59
392	1	41	86	40	42
394	1	62	61	63	64
404	1	7	8	9	5
407	1	9	10	32	7
408	1	59	83	57	60
410	1	41	42	86	40
411	1	16	17	26	15
413	1	71	69	72	73
414	1	19	17	20	21
416	1	69	67	70	71
422	1	57	55	58	59
426	2	1	34	51	2
431	1	55	56	57	53
432	1	66	77	65	67
437	1	26	27	16	23
438	1	69	70	71	67
