Title

10125 atoms
10750 bonds
18625 angles
30625 dihedrals
10500 impropers

9 atom types
14 bond types
7 angle types
24 dihedral types
2 improper types
-6.136043323 72.98673027 xlo xhi
-7.005094326 72.73334257 ylo yhi
-6.960767662 72.93065739 zlo zhi
0.0 0.0 0.0 xy xz yz

Masses

1	15.99943
2	12.01078
3	1.007947
4	12.01078
5	15.99943
6	1.007947
7	1.007947
8	15.99943
9	1.007947


Pair Coeffs

1	0.16846514	3.0251065
2	0.10884061	3.3795318
3	0.016409246	2.5832257
4	0.086879315	3.4806469
5	0.2102061	3.0398122
6	0.015611343	2.5725815
7	0.015779483	2.6445434
8	0.20947353	2.99716
9	1.2326e-05	0.53453923

Bond Coeffs

1 harmonic	366.7408841747	1.425895053732
2 harmonic	300.03137914615	1.451203938761
3 harmonic	264.62148576755	1.52190126495
4 harmonic	370.04670688625	1.093899492634
5 harmonic	301.15400723785	1.345741232799
6 harmonic	582.698766451	1.225198386222
7 harmonic	329.44145381095	1.523435958334
8 harmonic	289.73813263395	1.498646816465
9 harmonic	279.1350963404	1.454628925034
10 harmonic	360.7852444772	1.387193227181
11 harmonic	397.2545789619	1.085358495916
12 harmonic	329.96998057905	1.427343958716
13 harmonic	543.5267831885	0.9716763312559
14 harmonic	385.7604595587	1.369745182308


Angle Coeffs

1 harmonic	53.20531626545	116.5475862634
2 harmonic	65.09061609600001	110.3538806181
3 harmonic	201.41175231035	127.4691416191
4 harmonic	57.8982893754	126.8062420451
5 harmonic	48.776492647595	115.6030999533
6 harmonic	14.32262199324	138.3184368373
7 harmonic	34.066775159195	129.1835929926


Dihedral Coeffs

1 fourier 1	-0.0309670556842	3	0
2 fourier 1	0.4598191477945	2	0
3 fourier 1	0.1115525666802	3	0
4 fourier 1	0.3432490222662	1	0
5 fourier 1	0.0473758381877	3	0
6 fourier 1	0.457973137376	1	0
7 fourier 1	0.1918272375143	3	0
8 fourier 1	0.9202179876409	1	180
9 fourier 1	1.163809172478	2	180
10 fourier 1	0.1679186987369	1	180
11 fourier 1	2.779853741805	2	180
12 fourier 1	0.02664938770063	3	0
13 fourier 1	0.1911926717192	3	0
14 fourier 1	-0.3703352413219	2	0
15 fourier 1	0.1155372516788	3	0
16 fourier 1	0.9974165607242	2	180
17 fourier 1	3.661930099076	2	180
18 fourier 1	0.1040663847541	3	0
19 fourier 1	0.3445382149273	3	0
20 fourier 1	0.1364556373303	1	0
21 fourier 1	0.3026390167484	3	0
22 fourier 1	2.687457892086	2	180
23 fourier 1	2.772607909663	2	180
24 fourier 1	0.09692684957115	1	0


Improper Coeffs

1 3.5	-1	2
2 0.3666666666666667	-1	2


Atoms

1	4	1	-0.13289582	0.28478216	1.5796539	2.2074486
2	4	2	0.053356572	-0.13997053	1.8835943	0.90706774
3	4	2	0.16362098	0.66871456	1.0860451	-0.11556155
4	4	1	-0.48095724	0.29037095	1.4405148	-1.4173508
5	4	3	0.1022994	1.7477655	1.3118222	0.014468024
6	4	3	0.1022994	0.52235117	-0.0067566309	0.046941372
7	4	3	0.099699046	0.013447985	2.9693757	0.72872373
8	4	3	0.099699046	-1.2270155	1.6662082	0.79336866
9	5	4	0.75775963	-0.62095787	0.97411001	-1.599865
10	5	5	-0.52363658	-1.5664598	1.6599465	-1.9591483
11	5	2	-0.31874361	-0.74797051	-0.53386098	-1.4715674
12	5	4	0.53958577	0.32785099	-1.0701748	-0.54548448
13	5	5	-0.50560295	0.2851285	-2.2215322	-0.13866249
14	5	4	0.10653103	-2.1150254	-0.87754304	-0.96162649
15	5	4	-0.084841472	-2.6228093	-0.65023509	0.25954856
16	5	6	0.20103352	-2.0205178	-0.19964181	1.0377102
17	5	4	-0.26541868	-4.0345693	-1.0220363	0.52342084
18	5	6	0.20606	-4.458076	-0.86047648	1.5060492
19	5	4	-0.24492386	-4.7899116	-1.5515621	-0.4580513
20	5	6	0.20606001	-5.8215263	-1.8156467	-0.26514848
21	5	4	-0.20791956	-4.2143286	-1.7656156	-1.8089978
22	5	6	0.2053636	-4.8235801	-2.1691636	-2.6076363
23	5	4	-0.084389154	-2.9330756	-1.4427562	-2.0165705
24	5	2	-0.16083066	-2.1829192	-1.5345333	-3.2913091
25	5	7	0.12999501	-2.5752285	-0.77083767	-3.9904525
26	5	7	0.12999501	-2.2951107	-2.5438234	-3.744622
27	5	2	0.10790287	-0.71527722	-1.2738161	-2.8569275
28	5	4	-0.18731692	0.17152832	-0.63341535	-3.9177955
29	5	4	-0.23607619	-0.21901366	0.43586406	-4.6439466
30	5	6	0.20385817	-1.1917699	0.88666757	-4.5075741
31	5	4	-0.2154753	0.69235291	1.0418452	-5.6368951
32	5	6	0.21140848	0.36299774	1.8931612	-6.2195677
33	5	4	-0.22255158	1.9218368	0.54653247	-5.8119824
34	5	6	0.21089427	2.5900937	0.99162298	-6.5366831
35	5	4	-0.21547529	2.3710059	-0.6068451	-5.0095727
36	5	6	0.2114085	3.3706628	-0.99922576	-5.1455892
37	5	4	-0.23607617	1.5471938	-1.1636318	-4.1131235
38	5	6	0.20385814	1.894451	-2.0045657	-3.5251851
39	5	7	0.11746817	-0.30639679	-2.2955225	-2.6803976
40	1	1	-0.1272608	-0.099123156	0.69128238	2.4307392
41	1	2	0.024855472	-1.1227534	0.91965952	3.3601498
42	1	2	0.096880432	-0.5329812	1.2032126	4.741512
43	1	8	-0.67623031	-1.5573095	1.3642347	5.6845536
44	1	9	0.39856726	-1.9387699	2.2696003	5.5370749
45	1	3	0.097795572	0.10237682	0.34629629	5.0503526
46	1	3	0.097795572	0.10800578	2.1131607	4.7057886
47	1	3	0.10039676	-1.7610735	0.01206515	3.4148297
48	1	3	0.10039676	-1.76178	1.7713979	3.0322112
49	2	4	0.54247183	1.1623034	-0.44214905	-0.2459334
50	2	5	-0.50560301	1.6436408	0.32169488	-1.0695855
51	2	2	-0.33873203	1.6878112	-0.49169701	1.1788657
52	2	4	0.80133003	3.2080198	-0.47225394	1.1802398
53	2	5	-0.51478952	3.873952	-1.4012456	1.7148666
54	2	8	-0.65890026	3.8805384	0.61096415	0.62163856
55	2	9	0.41224498	4.8928932	0.65424206	0.62608685
56	2	4	0.10881247	1.1329555	-1.7196867	1.8435501
57	2	4	-0.084841472	1.3724497	-3.004231	1.5322454
58	2	6	0.20103352	2.0674007	-3.2654691	0.74473293
59	2	4	-0.26541868	0.65709795	-4.0658572	2.2812517
60	2	6	0.20606	0.85394883	-5.105978	2.0576437
61	2	4	-0.24492386	-0.23924987	-3.7380442	3.2294691
62	2	6	0.20606001	-0.76455274	-4.5135742	3.770619
63	2	4	-0.20791956	-0.52031144	-2.3126937	3.5263954
64	2	6	0.2053636	-1.2648677	-2.0419679	4.2636853
65	2	4	-0.084389132	0.15428356	-1.3731879	2.8532539
66	2	2	-0.16083066	-0.02685057	0.092438001	2.95324
67	2	7	0.12999501	0.053805454	0.42512855	4.0110234
68	2	7	0.12999501	-1.0303707	0.35639798	2.5629228
69	2	2	0.11683514	1.1320266	0.66442228	2.0951237
70	2	4	-0.18731692	0.76721129	1.9559928	1.3719361
71	2	4	-0.23607619	1.5987334	3.0159335	1.4246695
72	2	6	0.20385817	2.5219904	2.9714676	1.9881952
73	2	4	-0.2154753	1.2675671	4.2673785	0.71291374
74	2	6	0.21140848	1.9393031	5.1138188	0.77306664
75	2	4	-0.22255158	0.14322934	4.3547941	-0.0052207783
76	2	6	0.21089427	-0.09922962	5.2710491	-0.52747009
77	2	4	-0.21547529	-0.76701869	3.1970325	-0.09233848
78	2	6	0.2114085	-1.6667721	3.2646026	-0.68978731
79	2	4	-0.23607617	-0.47469846	2.0614579	0.55341714
80	2	6	0.20385814	-1.1406255	1.214947	0.45352446
81	2	7	0.11746817	1.9264926	0.90606308	2.8423362
82	4	1	-0.13289582	0.97184042	0.6761787	11.742251
83	4	2	0.053356572	1.4217579	-0.25874052	12.684209
84	4	2	0.16362098	1.2439628	0.28709925	14.100639
85	4	1	-0.48095724	1.7561574	-0.61929557	15.038484
86	4	3	0.1022994	1.7954907	1.2457725	14.19549
87	4	3	0.1022994	0.16635929	0.48698153	14.302785
88	4	3	0.099699046	2.499487	-0.45639374	12.500638
89	4	3	0.099699046	0.87088669	-1.220644	12.569607
90	5	4	0.75775963	1.0599665	-1.3873129	15.121144
91	5	5	-0.52363658	1.4348777	-2.5369734	14.944644
92	5	2	-0.31874361	-0.3765712	-1.079669	15.50622
93	5	4	0.53958577	-0.71266221	0.35840373	15.157446
94	5	5	-0.50560295	-1.867699	0.75565875	15.189562
95	5	4	0.10653103	-1.2962435	-2.0314307	14.80241
96	5	4	-0.084841472	-1.5762001	-2.0930433	13.491453
97	5	6	0.20103352	-1.1524215	-1.3786177	12.797671
98	5	4	-0.26541868	-2.475365	-3.168509	13.005853
99	5	6	0.20606	-2.7251392	-3.2261522	11.954516
100	5	4	-0.24492386	-2.9733668	-4.0753574	13.868319
101	5	6	0.20606001	-3.6235804	-4.8630874	13.510709
102	5	4	-0.20791956	-2.6250504	-4.0040818	15.309071
103	5	6	0.2053636	-3.0037383	-4.743959	16.002641
104	5	4	-0.084389154	-1.8301355	-3.0126682	15.726375
105	5	2	-0.16083066	-1.3290945	-2.7872532	17.102697
106	5	7	0.12999501	-0.6037859	-3.585754	17.352222
107	5	7	0.12999501	-2.1651264	-2.8042804	17.835846
108	5	2	0.10790287	-0.68524942	-1.3769876	17.017559
109	5	4	-0.18731692	0.47056467	-1.1320543	17.979889
110	5	4	-0.23607619	1.4787806	-2.0147473	18.145813
111	5	6	0.20385817	1.5080379	-2.947956	17.601441
112	5	4	-0.2154753	2.5952131	-1.7142522	19.066156
113	5	6	0.21140848	3.3925537	-2.4351938	19.197351
114	5	4	-0.22255158	2.6260562	-0.55423434	19.730255
115	5	6	0.21089427	3.4445137	-0.33284157	20.401803
116	5	4	-0.21547529	1.5435923	0.42994159	19.541672
117	5	6	0.2114085	1.5764075	1.3728867	20.072289
118	5	4	-0.23607617	0.52655797	0.16014581	18.713934
119	5	6	0.20385814	-0.25642759	0.89649049	18.579178
120	5	7	0.11746817	-1.5064582	-0.69209338	17.33183
121	1	1	-0.1272608	-0.020437825	0.63488807	11.753429
122	1	2	0.024855472	-0.408274	0.0033655537	10.564084
123	1	2	0.096880432	-0.29058282	0.97018174	9.3860309
124	1	8	-0.67623031	-0.74280757	0.35976782	8.208155
125	1	9	0.39856726	-0.024099843	-0.26098994	7.9164908
126	1	3	0.097795572	-0.91648228	1.8658338	9.584589
127	1	3	0.097795572	0.76483471	1.3055392	9.268663
128	1	3	0.10039676	-1.4653764	-0.32320487	10.664366
129	1	3	0.10039676	0.21644602	-0.90132235	10.38347
130	2	4	0.54247183	0.072828015	1.0605406	14.89199
131	2	5	-0.50560301	1.137544	0.99891702	15.488755
132	2	2	-0.33873203	-0.14335237	2.0684318	13.775707
133	2	4	0.80133003	0.40993553	3.4261905	14.177923
134	2	5	-0.51478952	-0.32671243	4.4502781	14.208112
135	2	8	-0.65890026	1.7636461	3.5542287	14.475836
136	2	9	0.41224498	2.1585593	4.4521781	14.729776
137	2	4	0.10881247	-1.6126655	2.1208115	13.465861
138	2	4	-0.084841472	-2.6084144	2.5394918	14.264306
139	2	6	0.20103352	-2.4016522	2.9369391	15.249528
140	2	4	-0.26541868	-4.0054476	2.4378438	13.776704
141	2	6	0.20606	-4.8178206	2.7899629	14.398528
142	2	4	-0.24492386	-4.2634543	1.9026161	12.56965
143	2	6	0.20606001	-5.2834611	1.8237022	12.218094
144	2	4	-0.20791956	-3.1518095	1.4064566	11.722976
145	2	6	0.2053636	-3.3549331	0.94371271	10.765969
146	2	4	-0.084389132	-1.898255	1.5298316	12.174915
147	2	2	-0.16083066	-0.66573592	1.0406784	11.517274
148	2	7	0.12999501	-0.60224413	1.4199697	10.474105
149	2	7	0.12999501	-0.68388478	-0.06770924	11.502357
150	2	2	0.11683514	0.47356148	1.6210327	12.395747
151	2	4	-0.18731692	1.6905298	0.70732183	12.487211
152	2	4	-0.23607619	2.9262226	1.2087539	12.288935
153	2	6	0.20385817	3.0705883	2.2545538	12.049346
154	2	4	-0.2154753	4.1160162	0.33935902	12.393461
155	2	6	0.21140848	5.1010063	0.75333718	12.22105
156	2	4	-0.22255158	3.9781839	-0.95420515	12.701987
157	2	6	0.21089427	4.8495863	-1.5911499	12.779532
158	2	4	-0.21547529	2.6351423	-1.5145642	12.944453
159	2	6	0.2114085	2.5283921	-2.5575323	13.212575
160	2	4	-0.23607617	1.5526497	-0.73303488	12.847485
161	2	6	0.20385814	0.57959707	-1.1564268	13.05707
162	2	7	0.11746817	0.78446577	2.5480945	11.855573
163	4	1	-0.13289582	0.72158904	2.2186487	26.986469
164	4	2	0.053356572	1.3586917	1.5539221	28.042889
165	4	2	0.16362098	0.32760535	1.0530998	29.053762
166	4	1	-0.48095724	0.96900076	0.44847405	30.143022
167	4	3	0.1022994	-0.26848341	1.912722	29.425195
168	4	3	0.1022994	-0.37017371	0.33369233	28.566318
169	4	3	0.099699046	2.0481007	2.265706	28.545227
170	4	3	0.099699046	1.964734	0.70246816	27.65612
171	5	4	0.75775963	1.2818848	-0.48949522	29.821025
172	5	5	-0.52363658	2.4612216	-0.78557323	29.943224
173	5	2	-0.31874361	0.27652857	-1.4813958	29.26249
174	5	4	0.53958577	-0.94054915	-0.7465156	28.732088
175	5	5	-0.50560295	-1.7755325	-1.3275377	28.055206
176	5	4	0.10653103	0.92507898	-2.2943391	28.182906
177	5	4	-0.084841472	1.3204557	-1.8876608	26.966735
178	5	6	0.20103352	1.1520162	-0.87035183	26.638048
179	5	4	-0.26541868	2.0035592	-2.860137	26.078709
180	5	6	0.20606	2.3167066	-2.5557251	25.088613
181	5	4	-0.24492386	2.240831	-4.1155565	26.505149
182	5	6	0.20606001	2.7454342	-4.8212219	25.858162
183	5	4	-0.20791956	1.8206898	-4.5328956	27.86584
184	5	6	0.2053636	2.0296334	-5.5335244	28.222136
185	5	4	-0.084389154	1.1872024	-3.6449154	28.639868
186	5	2	-0.16083066	0.72673211	-3.8421364	30.034568
187	5	7	0.12999501	1.6126848	-3.9108227	30.695104
188	5	7	0.12999501	0.12482614	-4.7729135	30.124619
189	5	2	0.10790287	-0.14218608	-2.5832971	30.300911
190	5	4	-0.18731692	-0.19304616	-2.1252444	31.75335
191	5	4	-0.23607619	0.91329221	-2.0079082	32.51848
192	5	6	0.20385817	1.8950277	-2.2421673	32.131965
193	5	4	-0.2154753	0.81422521	-1.5256833	33.911819
194	5	6	0.21140848	1.7082096	-1.4455278	34.517697
195	5	4	-0.22255158	-0.37297944	-1.1827374	34.422264
196	5	6	0.21089427	-0.44540474	-0.82709038	35.441153
197	5	4	-0.21547529	-1.5874628	-1.2835098	33.591139
198	5	6	0.2114085	-2.5459453	-0.99504021	34.003296
199	5	4	-0.23607617	-1.5042712	-1.7257527	32.330267
200	5	6	0.20385814	-2.4036903	-1.7859138	31.729555
201	5	7	0.11746817	-1.1738795	-2.9140702	30.039323
202	1	1	-0.1272608	0.32849476	1.5157785	26.40518
203	1	2	0.024855472	1.1091823	1.4753126	25.242137
204	1	2	0.096880432	0.7712766	2.6572571	24.33372
205	1	8	-0.67623031	1.5028576	2.5791687	23.140742
206	1	9	0.39856726	2.4294255	2.8648465	23.357096
207	1	3	0.097795572	-0.31156178	2.6315622	24.088427
208	1	3	0.097795572	0.98410592	3.6168419	24.857215
209	1	3	0.10039676	0.8943622	0.52766853	24.703627
210	1	3	0.10039676	2.1926931	1.4865694	25.501434
211	2	4	0.54247183	-1.0958445	0.30372464	28.963035
212	2	5	-0.50560301	-0.80115478	0.70624966	30.078686
213	2	2	-0.33873203	-1.6322799	1.2516547	27.903634
214	2	4	0.80133003	-2.6684831	2.1852646	28.508671
215	2	5	-0.51478952	-3.845953	2.2363712	28.057816
216	2	8	-0.65890026	-2.3026322	3.033059	29.55034
217	2	9	0.41224498	-2.9712791	3.6760226	29.958095
218	2	4	0.10881247	-2.19342	0.43080699	26.777153
219	2	4	-0.084841472	-3.2492407	-0.39897856	26.8091
220	2	6	0.20103352	-3.8401994	-0.51284006	27.708645
221	2	4	-0.26541868	-3.58847	-1.1703129	25.588544
222	2	6	0.20606	-4.4481668	-1.8272143	25.590516
223	2	4	-0.24492386	-2.8262581	-1.0607159	24.48535
224	2	6	0.20606001	-3.0716014	-1.6286279	23.597929
225	2	4	-0.20791956	-1.6394284	-0.17177337	24.48654
226	2	6	0.2053636	-1.0025454	-0.10514062	23.614076
227	2	4	-0.084389132	-1.3669099	0.53119662	25.592178
228	2	2	-0.16083066	-0.20116781	1.4151956	25.816805
229	2	7	0.12999501	-0.12088337	2.1703597	25.004785
230	2	7	0.12999501	0.71891664	0.79691997	25.832768
231	2	2	0.11683514	-0.50860851	2.0879295	27.180416
232	2	4	-0.18731692	0.73897457	2.3658837	28.011393
233	2	4	-0.23607619	0.91912621	3.5788527	28.571692
234	2	6	0.20385817	0.19500427	4.3708422	28.429067
235	2	4	-0.2154753	2.1136059	3.8565565	29.395392
236	2	6	0.21140848	2.2504016	4.8382458	29.829998
237	2	4	-0.22255158	3.0223633	2.8987693	29.605862
238	2	6	0.21089427	3.8970155	3.1015707	30.209939
239	2	4	-0.21547529	2.8298151	1.558944	29.019051
240	2	6	0.2114085	3.5575451	0.78036038	29.20689
241	2	4	-0.23607617	1.7515936	1.3019519	28.268469
242	2	6	0.20385814	1.6145829	0.30527584	27.871124
243	2	7	0.11746817	-0.95652766	3.07217	26.90018
244	4	1	-0.13289582	1.0490248	-0.3904748	40.11504
245	4	2	0.053356572	0.80719875	-1.2889114	41.162951
246	4	2	0.16362098	1.1108958	-0.62981795	42.508012
247	4	1	-0.48095724	0.93417438	-1.5492616	43.550529
248	4	3	0.1022994	2.165206	-0.28253813	42.515812
249	4	3	0.1022994	0.4536808	0.25766799	42.657953
250	4	3	0.099699046	1.4669336	-2.1730308	41.03124
251	4	3	0.099699046	-0.24977745	-1.6409333	41.135879
252	5	4	0.75775963	-0.091452669	-1.641992	43.694942
253	5	5	-0.52363658	-0.5888554	-2.7574128	43.65185
254	5	2	-0.31874361	-0.93425227	-0.41728802	44.005358
255	5	4	0.53958577	-0.2421246	0.8337099	43.496814
256	5	5	-0.50560295	-0.83378766	1.9019381	43.454668
257	5	4	0.10653103	-2.2883238	-0.5725853	43.381364
258	5	4	-0.084841472	-2.6037679	-0.5583782	42.077111
259	5	6	0.20103352	-1.8472392	-0.382486	41.323419
260	5	4	-0.26541868	-4.0141047	-0.7973587	41.683703
261	5	6	0.20606	-4.2913428	-0.77514632	40.63792
262	5	4	-0.24492386	-4.9456517	-1.0490815	42.623428
263	5	6	0.20606001	-5.9725267	-1.229917	42.333588
264	5	4	-0.20791956	-4.5663966	-1.0892406	44.057556
265	5	6	0.2053636	-5.3064095	-1.3140641	44.814984
266	5	4	-0.084389154	-3.2930668	-0.84917371	44.389118
267	5	2	-0.16083066	-2.7007284	-0.88406805	45.74707
268	5	7	0.12999501	-2.6818927	-1.9334131	46.099858
269	5	7	0.12999501	-3.2963013	-0.26634806	46.454503
270	5	2	0.10790287	-1.2855998	-0.2830803	45.530602
271	5	4	-0.18731692	-0.21458772	-0.7816237	46.493081
272	5	4	-0.23607619	-0.045916657	-2.0903171	46.779522
273	5	6	0.20385817	-0.67436517	-2.8508524	46.338257
274	5	4	-0.2154753	1.0307789	-2.5256526	47.693283
275	5	6	0.21140848	1.1489105	-3.5774872	47.922215
276	5	4	-0.22255158	1.8612778	-1.6264343	48.231148
277	5	6	0.21089427	2.6511783	-1.9450755	48.897773
278	5	4	-0.21547529	1.7039972	-0.19548635	47.909364
279	5	6	0.2114085	2.3843748	0.52938899	48.337639
280	5	4	-0.23607617	0.72633383	0.20503688	47.087139
281	5	6	0.20385814	0.62896735	1.2582837	46.85343
282	5	7	0.11746817	-1.4229953	0.80147389	45.747615
283	1	1	-0.1272608	0.28464394	0.24358016	40.103112
284	1	2	0.024855472	-0.48508034	-0.078425832	38.977228
285	1	2	0.096880432	0.18789931	0.4410708	37.706946
286	1	8	-0.67623031	-0.6150101	0.17879143	36.588442
287	1	9	0.39856726	-0.50984977	-0.78774912	36.384262
288	1	3	0.097795572	0.33041754	1.5391719	37.791979
289	1	3	0.097795572	1.1900416	-0.028725516	37.583867
290	1	3	0.10039676	-1.4834757	0.39731292	39.082344
291	1	3	0.10039676	-0.63359673	-1.1806545	38.910956
292	2	4	0.54247183	0.79666334	0.80038272	43.180164
293	2	5	-0.50560301	1.5769487	0.10116899	43.809291
294	2	2	-0.33873203	1.2520616	1.5793888	41.957696
295	2	4	0.80133003	2.5895032	2.2496229	42.228712
296	2	5	-0.51478952	2.7269028	3.5000771	42.129704
297	2	8	-0.65890026	3.6959865	1.4679505	42.548651
298	2	9	0.41224498	4.6014387	1.8906467	42.716697
299	2	4	0.10881247	0.17944675	2.5702032	41.603559
300	2	4	-0.084841472	-0.24079883	3.622286	42.325249
301	2	6	0.20103352	0.22785992	3.872921	43.268075
302	2	4	-0.26541868	-1.37146	4.4339249	41.812769
303	2	6	0.20606	-1.7087751	5.2971521	42.371033
304	2	4	-0.24492386	-1.9813484	4.0943896	40.662652
305	2	6	0.20606001	-2.8097804	4.6839556	40.293402
306	2	4	-0.20791956	-1.5291117	2.9030079	39.904446
307	2	6	0.2053636	-2.0372075	2.604545	38.996695
308	2	4	-0.084389132	-0.49238087	2.1998437	40.375209
309	2	2	-0.16083066	0.063914814	0.95120474	39.807492
310	2	7	0.12999501	0.31142375	1.0869037	38.732123
311	2	7	0.12999501	-0.68987514	0.14472154	39.909769
312	2	2	0.11683514	1.3422153	0.7028371	40.650575
313	2	4	-0.18731692	1.6415561	-0.77553446	40.872064
314	2	4	-0.23607619	2.8843858	-1.2512895	40.655926
315	2	6	0.20385817	3.6773422	-0.60009465	40.310807
316	2	4	-0.2154753	3.1937616	-2.6775497	40.884946
317	2	6	0.21140848	4.1932416	-3.0476517	40.696869
318	2	4	-0.22255158	2.2438306	-3.5090718	41.325056
319	2	6	0.21089427	2.4703323	-4.5537142	41.493795
320	2	4	-0.21547529	0.88414309	-3.0006914	41.588404
321	2	6	0.2114085	0.12247214	-3.6721713	41.962622
322	2	4	-0.23607617	0.596262	-1.7102138	41.379184
323	2	6	0.20385814	-0.39874835	-1.3514168	41.60554
324	2	7	0.11746817	2.1645075	1.1259053	40.023883
325	4	1	-0.13289582	1.8874233	1.9710467	56.762754
326	4	2	0.053356572	1.2867931	1.2954002	57.833516
327	4	2	0.16362098	-0.18947026	1.0349258	57.535813
328	4	1	-0.48095724	-0.80549821	0.42024609	58.634051
329	4	3	0.1022994	-0.69902871	2.0010226	57.33772
330	4	3	0.1022994	-0.29144959	0.39781991	56.62711
331	4	3	0.099699046	1.3708172	1.9273763	58.743357
332	4	3	0.099699046	1.8156374	0.33469342	58.031549
333	5	4	0.75775963	-0.50688131	-0.57579032	58.623832
334	5	5	-0.52363658	0.012155735	-1.0402595	59.627973
335	5	2	-0.31874361	-0.76420945	-1.4392199	57.401195
336	5	4	0.53958577	-0.90707649	-0.56651083	56.168061
337	5	5	-0.50560295	-0.91139946	-1.0600173	55.050301
338	5	4	0.10653103	0.35812109	-2.4193474	57.237732
339	5	4	-0.084841472	1.6304255	-2.168753	56.892441
340	5	6	0.20103352	1.9543223	-1.1645218	56.651743
341	5	4	-0.26541868	2.5925754	-3.2973466	56.854034
342	5	6	0.20606	3.6195071	-3.1182675	56.563586
343	5	4	-0.24492386	2.1924405	-4.5396309	57.186974
344	5	6	0.20606001	2.8977397	-5.3601457	57.164853
345	5	4	-0.20791956	0.78701617	-4.7863139	57.594528
346	5	6	0.2053636	0.46587593	-5.7783249	57.885467
347	5	4	-0.084389154	-0.067019516	-3.7569831	57.600452
348	5	2	-0.16083066	-1.4901077	-3.7780684	58.013358
349	5	7	0.12999501	-1.5402792	-3.9337933	59.108425
350	5	7	0.12999501	-2.0396392	-4.5958558	57.497621
351	5	2	0.10790287	-2.0081315	-2.3842835	57.566537
352	5	4	-0.18731692	-3.1508807	-1.8185775	58.40085
353	5	4	-0.23607619	-3.134782	-1.8172904	59.751004
354	5	6	0.20385817	-2.3035129	-2.2277172	60.306538
355	5	4	-0.2154753	-4.2529194	-1.2246744	60.514106
356	5	6	0.21140848	-4.2320011	-1.238987	61.596731
357	5	4	-0.22255158	-5.2843392	-0.66640864	59.872129
358	5	6	0.21089427	-6.1015267	-0.23008446	60.430421
359	5	4	-0.21547529	-5.305011	-0.63955403	58.397427
360	5	6	0.2114085	-6.1360433	-0.17741338	57.880138
361	5	4	-0.23607617	-4.2976736	-1.1806121	57.701133
362	5	6	0.20385814	-4.3228817	-1.1453821	56.61875
363	5	7	0.11746817	-2.4238214	-2.5704432	56.549297
364	1	1	-0.1272608	2.0354226	1.2964104	56.049026
365	1	2	0.024855472	3.4145525	1.0509517	56.009912
366	1	2	0.096880432	4.1395452	2.2009903	55.311205
367	1	8	-0.67623031	5.5098722	1.9238308	55.211754
368	1	9	0.39856726	5.8966358	2.078435	56.113675
369	1	3	0.097795572	3.7271438	2.3245095	54.287469
370	1	3	0.097795572	3.9754303	3.1521099	55.866708
371	1	3	0.10039676	3.5915425	0.11080301	55.445143
372	1	3	0.10039676	3.8137913	0.91412962	57.04105
373	2	4	0.54247183	-1.0264053	0.50919239	56.263356
374	2	5	-0.50560301	-1.7091816	0.94224429	57.179778
375	2	2	-0.33873203	-0.32477101	1.4481608	55.29655
376	2	4	0.80133003	-1.2606976	2.5721019	54.881566
377	2	5	-0.51478952	-1.5475458	2.7707981	53.668902
378	2	8	-0.65890026	-1.7772021	3.4275029	55.850684
379	2	9	0.41224498	-2.3892365	4.1939616	55.596303
380	2	4	0.10881247	0.1550672	0.64317804	54.122077
381	2	4	-0.084841472	-0.58714941	-0.0094278213	53.212384
382	2	6	0.20103352	-1.6681473	0.035408584	53.240865
383	2	4	-0.26541868	0.10125462	-0.80671271	52.168245
384	2	6	0.20606	-0.48074195	-1.3213848	51.415254
385	2	4	-0.24492386	1.4435672	-0.89707307	52.16124
386	2	6	0.20606001	1.943755	-1.4839485	51.402542
387	2	4	-0.20791956	2.241181	-0.20393131	53.201505
388	2	6	0.2053636	3.3189234	-0.30039283	53.221986
389	2	4	-0.084389132	1.5986919	0.52784067	54.119431
390	2	2	-0.16083066	2.2018685	1.2357492	55.270912
391	2	7	0.12999501	3.0199595	1.907908	54.931761
392	2	7	0.12999501	2.613929	0.48595759	55.975961
393	2	2	0.11683514	1.0191572	2.046003	55.863541
394	2	4	-0.18731692	1.0848386	2.1886212	57.379981
395	2	4	-0.23607619	0.91001904	3.3971431	57.951468
396	2	6	0.20385817	0.73690573	4.2786191	57.347337
397	2	4	-0.2154753	0.95175808	3.5471623	59.420527
398	2	6	0.21140848	0.82056379	4.5252566	59.864856
399	2	4	-0.22255158	1.1487554	2.4788504	60.199882
400	2	6	0.21089427	1.1784832	2.5882313	61.276082
401	2	4	-0.21547529	1.319362	1.145298	59.592359
402	2	6	0.2114085	1.4596915	0.27979184	60.22661
403	2	4	-0.23607617	1.2864886	1.0031383	58.261686
404	2	6	0.20385814	1.3850109	0.013043249	57.837395
405	2	7	0.11746817	1.141725	3.0642631	55.420803
406	4	1	-0.13289582	-1.1002749	16.224073	-1.4654463
407	4	2	0.053356572	-0.95874674	16.062769	-0.080622943
408	4	2	0.16362098	-1.1769152	14.60101	0.30859514
409	4	1	-0.48095724	-1.1025156	14.452368	1.699932
410	4	3	0.1022994	-2.1837961	14.278433	-0.029589523
411	4	3	0.1022994	-0.42045919	13.953309	-0.1917074
412	4	3	0.099699046	-1.7172196	16.694489	0.4291946
413	4	3	0.099699046	0.050131239	16.403027	0.24837604
414	5	4	0.75775963	-0.093812436	14.490366	1.9498103
415	5	5	-0.52363658	0.27068089	15.304348	2.7852783
416	5	2	-0.31874361	0.88691357	13.514465	1.323422
417	5	4	0.53958577	0.34183416	13.004156	0.0023893401
418	5	5	-0.50560295	1.0531281	12.37362	-0.76535988
419	5	4	0.10653103	2.2105539	14.191474	1.1320301
420	5	4	-0.084841472	2.5186667	15.176332	0.27418282
421	5	6	0.20103352	1.7836868	15.557466	-0.4228586
422	5	4	-0.26541868	3.8897003	15.742311	0.30361891
423	5	6	0.20606	4.1621504	16.526785	-0.39020349
424	5	4	-0.24492386	4.7907006	15.287694	1.1956667
425	5	6	0.20606001	5.7881488	15.706851	1.2198667
426	5	4	-0.20791956	4.4168809	14.218434	2.1543701
427	5	6	0.2053636	5.1298032	13.865705	2.8886629
428	5	4	-0.084389154	3.1817298	13.708831	2.0940343
429	5	2	-0.16083066	2.5964772	12.675273	2.9802358
430	5	7	0.12999501	2.4579597	13.109257	3.9893988
431	5	7	0.12999501	3.2633576	11.787848	3.0472779
432	5	2	0.10790287	1.2594537	12.321191	2.2748084
433	5	4	-0.18731692	0.14293063	11.8505	3.1988237
434	5	4	-0.23607619	-0.17482687	12.493933	4.3425898
435	5	6	0.20385817	0.35888188	13.378399	4.6603164
436	5	4	-0.2154753	-1.2899225	12.016944	5.18686
437	5	6	0.21140848	-1.5280037	12.536468	6.1067149
438	5	4	-0.22255158	-2.0077302	10.952083	4.8147777
439	5	6	0.21089427	-2.8257366	10.604437	5.4311148
440	5	4	-0.21547529	-1.6872975	10.252704	3.5561731
441	5	6	0.2114085	-2.276787	9.3973552	3.2517762
442	5	4	-0.23607617	-0.6741205	10.676783	2.7907135
443	5	6	0.20385814	-0.4565254	10.158175	1.8649019
444	5	7	0.11746817	1.5228032	11.450311	1.6310333
445	1	1	-0.1272608	-0.26760974	15.873776	-1.8782498
446	1	2	0.024855472	0.45366923	16.986688	-2.3309783
447	1	2	0.096880432	-0.16120063	17.529874	-3.6206601
448	1	8	-0.67623031	0.60000267	18.600308	-4.1097855
449	1	9	0.39856726	0.38242039	19.38584	-3.5418535
450	1	3	0.097795572	-0.17499552	16.725186	-4.3859412
451	1	3	0.097795572	-1.2116851	17.851865	-3.439139
452	1	3	0.10039676	1.5010267	16.67378	-2.5292237
453	1	3	0.10039676	0.47304168	17.780675	-1.5495915
454	2	4	0.54247183	-0.69546023	13.176787	-0.27088128
455	2	5	-0.50560301	-1.5482369	13.110743	0.60201975
456	2	2	-0.33873203	-1.0638805	13.529701	-1.7020989
457	2	4	0.80133003	-2.3131545	12.773898	-2.1257607
458	2	5	-0.51478952	-2.3051676	12.005032	-3.1263103
459	2	8	-0.65890026	-3.5011081	12.96569	-1.4260038
460	2	9	0.41224498	-4.350552	12.486112	-1.7002399
461	2	4	0.10881247	0.11450197	13.221526	-2.5819124
462	2	4	-0.084841472	0.65767475	12.020494	-2.8403868
463	2	6	0.20103352	0.22619107	11.115513	-2.4327011
464	2	4	-0.26541868	1.8721064	11.953743	-3.689203
465	2	6	0.20606	2.3101553	10.992853	-3.924586
466	2	4	-0.24492386	2.4324701	13.083274	-4.1584263
467	2	6	0.20606001	3.3217197	13.033131	-4.772392
468	2	4	-0.20791956	1.8411804	14.401409	-3.8242388
469	2	6	0.2053636	2.3064736	15.31535	-4.169879
470	2	4	-0.084389132	0.73240182	14.434693	-3.0756593
471	2	2	-0.16083066	0.032117907	15.640941	-2.5802441
472	2	7	0.12999501	-0.20363072	16.329175	-3.4209882
473	2	7	0.12999501	0.68784723	16.162512	-1.8542567
474	2	2	0.11683514	-1.2619142	15.075726	-1.9379517
475	2	4	-0.18731692	-1.7294719	15.869531	-0.72324629
476	2	4	-0.23607619	-3.0201966	16.244973	-0.61953039
477	2	6	0.20385817	-3.7341067	16.003775	-1.3967679
478	2	4	-0.2154753	-3.4916402	16.997727	0.56092844
479	2	6	0.21140848	-4.528263	17.301939	0.62556186
480	2	4	-0.22255158	-2.6422248	17.301043	1.5478362
481	2	6	0.21089427	-2.987426	17.851654	2.4131209
482	2	4	-0.21547529	-1.2314015	16.87838	1.4613107
483	2	6	0.2114085	-0.55076457	17.108901	2.2704216
484	2	4	-0.23607617	-0.7969461	16.199425	0.39254996
485	2	6	0.20385814	0.23412751	15.873937	0.36152468
486	2	7	0.11746817	-2.032889	15.192882	-2.7378051
487	4	1	-0.13289582	1.649922	13.487852	12.147697
488	4	2	0.053356572	0.52802227	12.848028	12.691527
489	4	2	0.16362098	0.50107044	13.022915	14.20959
490	4	1	-0.48095724	-0.58303661	12.326167	14.759773
491	4	3	0.1022994	1.4397974	12.617437	14.641578
492	4	3	0.1022994	0.43965587	14.104656	14.47057
493	4	3	0.099699046	0.58493937	11.765414	12.448686
494	4	3	0.099699046	-0.40658668	13.253526	12.239942
495	5	4	0.75775963	-1.4322811	12.892744	14.561937
496	5	5	-0.52363658	-2.3684426	12.359959	13.984726
497	5	2	-0.31874361	-1.5171071	14.334243	15.032524
498	5	4	0.53958577	-0.12313579	14.902837	15.222786
499	5	5	-0.50560295	0.044931546	16.100648	15.395858
500	5	4	0.10653103	-2.2934883	15.139655	14.034756
501	5	4	-0.084841472	-1.9316755	15.483259	12.78904
502	5	6	0.20103352	-0.95959893	15.213156	12.39733
503	5	4	-0.26541868	-2.8959089	16.237055	11.950603
504	5	6	0.20606	-2.6174134	16.5363	10.94865
505	5	4	-0.24492386	-4.1169256	16.541576	12.430824
506	5	6	0.20606001	-4.821146	17.085536	11.814901
507	5	4	-0.20791956	-4.5047138	16.124381	13.80113
508	5	6	0.2053636	-5.4928808	16.346165	14.183491
509	5	4	-0.084389154	-3.610592	15.4648	14.545733
510	5	2	-0.16083066	-3.8089139	14.92386	15.911079
511	5	7	0.12999501	-4.5156857	14.073261	15.857283
512	5	7	0.12999501	-4.2190042	15.703513	16.589837
513	5	2	0.10790287	-2.375558	14.505792	16.336924
514	5	4	-0.18731692	-2.3036818	13.345804	17.322439
515	5	4	-0.23607619	-3.0127483	12.20822	17.160254
516	5	6	0.20385817	-3.6751789	12.070638	16.317441
517	5	4	-0.2154753	-2.8811903	11.097916	18.126518
518	5	6	0.21140848	-3.4630116	10.194823	17.990031
519	5	4	-0.22255158	-2.0424557	11.203342	19.16239
520	5	6	0.21089427	-1.943881	10.389727	19.868207
521	5	4	-0.21547529	-1.2438707	12.430804	19.339853
522	5	6	0.2114085	-0.5575784	12.509398	20.173282
523	5	4	-0.23607617	-1.3638536	13.442226	18.470987
524	5	6	0.20385814	-0.76426365	14.33368	18.609665
525	5	7	0.11746817	-1.9883987	15.400982	16.876341
526	1	1	-0.1272608	1.4476615	14.460232	12.143883
527	1	2	0.024855472	1.2239807	14.81738	10.807398
528	1	2	0.096880432	2.5504683	14.915645	10.054292
529	1	8	-0.67623031	2.3317773	15.338845	8.7361183
530	1	9	0.39856726	1.9791525	14.553145	8.2408592
531	1	3	0.097795572	3.204276	15.656587	10.561154
532	1	3	0.097795572	3.0714115	13.931439	10.064387
533	1	3	0.10039676	0.71690566	15.80557	10.784504
534	1	3	0.10039676	0.55531001	14.075193	10.314047
535	2	4	0.54247183	0.74450718	14.248894	15.226309
536	2	5	-0.50560301	0.64857589	13.154009	15.760696
537	2	2	-0.33873203	2.0330585	14.679224	14.545781
538	2	4	0.80133003	3.2309981	14.314141	15.407796
539	2	5	-0.51478952	4.0448091	15.193554	15.803601
540	2	8	-0.65890026	3.4622025	12.980076	15.73105
541	2	9	0.41224498	4.2634077	12.710718	16.289862
542	2	4	0.10881247	1.9536196	16.155237	14.276146
543	2	4	-0.084841472	1.8960402	17.154301	15.172181
544	2	6	0.20103352	1.9470417	16.952531	16.234285
545	2	4	-0.26541868	1.7492596	18.546177	14.681339