Title

91 atoms
94 bonds
185 angles
377 dihedrals
12 impropers

8 atom types
11 bond types
5 angle types
27 dihedral types
2 improper types
-6.796999931 93.20300007 xlo xhi
-2.424999952 97.57500005 ylo yhi
-7.896999836 92.10300016 zlo zhi
0.0 0.0 0.0 xy xz yz

Masses

1	15.99943
2	12.01078
3	1.007947
4	1.007947
5	12.01078
6	15.99943
7	15.99943
8	1.007947


Pair Coeffs

1	0.16846514	3.0251065
2	0.10884061	3.3795318
3	0.015779483	2.6445434
4	0.016409246	2.5832257
5	0.086879315	3.4806469
6	0.2102061	3.0398122
7	0.20947353	2.99716
8	1.2326e-05	0.53453923

Bond Coeffs

1 harmonic	366.7408841747	1.425895053732
2 harmonic	300.03137914615	1.451203938761
3 harmonic	264.62148576755	1.52190126495
4 harmonic	370.04670688625	1.093899492634
5 harmonic	301.15400723785	1.345741232799
6 harmonic	582.698766451	1.225198386222
7 harmonic	329.44145381095	1.523435958334
8 harmonic	279.1350963404	1.454628925034
9 harmonic	329.96998057905	1.427343958716
10 harmonic	543.5267831885	0.9716763312559
11 harmonic	385.7604595587	1.369745182308


Angle Coeffs

1 harmonic	53.20531626545	116.5475862634
2 harmonic	65.09061609600001	110.3538806181
3 harmonic	48.776492647595	115.6030999533
4 harmonic	201.41175231035	127.4691416191
5 harmonic	57.8982893754	126.8062420451


Dihedral Coeffs

1 fourier 1	0.1115525666802	3	0
2 fourier 1	0.3432490222662	1	0
3 fourier 1	0.1155372516788	3	0
4 fourier 1	0.0473758381877	3	0
5 fourier 1	0.457973137376	1	0
6 fourier 1	0.1040663847541	3	0
7 fourier 1	0.09223874044423	3	0
8 fourier 1	0.3159935921949	2	180
9 fourier 1	0.3247796806857	1	180
10 fourier 1	0.1911926717192	3	0
11 fourier 1	0.1918272375143	3	0
12 fourier 1	0.9202179876409	1	180
13 fourier 1	1.163809172478	2	180
14 fourier 1	0.1679186987369	1	180
15 fourier 1	2.779853741805	2	180
16 fourier 1	0.02664938770063	3	0
17 fourier 1	0.4541676554336	1	0
18 fourier 1	0.1489710476446	2	0
19 fourier 1	0.02960027280666	3	180
20 fourier 1	-0.3703352413219	2	0
21 fourier 1	0.9974165607242	2	180
22 fourier 1	0.3445382149273	3	0
23 fourier 1	0.1364556373303	1	0
24 fourier 1	0.3026390167484	3	0
25 fourier 1	2.687457892086	2	180
26 fourier 1	2.772607909663	2	180
27 fourier 1	0.09692684957115	1	0


Improper Coeffs

1 3.5	-1	2
2 0.3666666666666667	-1	2


Atoms

1	1	1	-0.154956	3.734	0.289	0.2
2	1	2	0.014841	2.721	-0.61799997	-0.14300001
3	1	2	-0.074804999	1.439	0.125	-0.56800002
4	1	3	0.083659999	1.692	0.74000001	-1.461
5	1	2	-0.166711	0.33199999	-0.87400001	-1.003
6	1	3	0.089565001	0.77499998	-1.819	-1.388
7	1	3	0.089565001	-0.249	-0.43200001	-1.842
8	1	2	-0.16711999	-0.63700002	-1.1950001	0.142
9	1	3	0.088926002	-1.3609999	-1.967	-0.197
10	1	3	0.088926002	-0.057	-1.648	0.97600001
11	1	2	-0.075319998	-1.369	0.075000003	0.66100001
12	1	2	0.104018	-2.76	0.23	0.023
13	1	1	-0.471201	-3.592	-0.82700002	0.419
14	1	4	0.090292998	-2.6689999	0.244	-1.086
15	1	4	0.090292998	-3.214	1.191	0.354
16	1	3	0.080844998	-1.518	-0.052000001	1.757
17	1	2	-0.16711999	-0.53899997	1.367	0.44999999
18	1	3	0.088926002	-0.82700002	2.1210001	1.215
19	1	3	0.088926002	-0.74699998	1.809	-0.55000001
20	1	2	-0.166711	0.963	1.087	0.55299997
21	1	3	0.089565001	1.1720001	0.65499997	1.557
22	1	3	0.089565001	1.521	2.046	0.479
23	1	4	0.090875	2.5079999	-1.2640001	0.736
24	1	4	0.090875	3.073	-1.28	-0.96700001
25	1	5	0.69810998	-4.5019999	-0.67199999	-0.057999998
26	1	6	-0.52775699	-5.5370002	-0.76300001	0.58399999
27	1	2	-0.15242399	-4.5300002	-0.34599999	-1.528
28	1	3	0.1285	-3.477	-0.36000001	-1.89
29	1	2	-0.131458	-5.3099999	-1.414	-2.313
30	1	3	0.095968999	-6.375	-1.4	-1.99
31	1	3	0.095968999	-4.9039998	-2.425	-2.0880001
32	1	2	-0.107637	-5.2410002	-1.171	-3.836
33	1	3	0.088376001	-6.177	-1.568	-4.2880001
34	1	3	0.088376001	-4.3990002	-1.7589999	-4.2620001
35	1	2	-0.220404	-5.039	0.31799999	-4.2129998
36	1	5	0.49355099	-5.5440001	0.59899998	-5.6040001
37	1	6	-0.65797299	-6.7290001	0.48100001	-5.8759999
38	1	3	0.108475	-3.947	0.53500003	-4.2080002
39	1	2	-0.107637	-5.7059999	1.25	-3.187
40	1	3	0.088376001	-6.7969999	1.033	-3.151
41	1	3	0.088376001	-5.585	2.3110001	-3.5
42	1	2	-0.131458	-5.1090002	1.0700001	-1.774
43	1	3	0.095968999	-5.9060001	1.304	-1.034
44	1	3	0.095968999	-4.2969999	1.814	-1.624
45	1	1	-0.154956	4.0710001	0.67400002	-0.64999998
46	1	2	0.014841	3.0969999	1.581	-1.0930001
47	1	2	-0.074804999	1.8710001	0.838	-1.661
48	1	3	0.083659999	1.4450001	0.223	-0.83600003
49	1	2	-0.165925	0.76599997	1.837	-2.0999999
50	1	3	0.089565001	0.82499999	2.7820001	-1.517
51	1	3	0.089565001	-0.23199999	1.395	-1.887
52	1	2	-0.158859	0.84299999	2.158	-3.598
53	1	3	0.089565001	0.083999999	2.9300001	-3.8469999
54	1	3	0.089565001	1.836	2.6110001	-3.8099999
55	1	2	-0.11625	0.66500002	0.88800001	-4.4780002
56	1	2	0.077036001	-0.78600001	0.73400003	-4.9650002
57	1	7	-0.67630601	-1.122	1.79	-5.822
58	1	8	0.37401801	-2.0669999	1.642	-6.086
59	1	4	0.079031996	-1.479	0.71899998	-4.0929999
60	1	4	0.079031996	-0.89099997	-0.228	-5.5170002
61	1	3	0.087334998	1.306	1.015	-5.3800001
62	1	2	-0.158859	1.126	-0.40400001	-3.756
63	1	3	0.089565001	1.439	-1.158	-4.5110002
64	1	3	0.089565001	0.28999999	-0.84600002	-3.1689999
65	1	2	-0.165925	2.2909999	-0.124	-2.803
66	1	3	0.089565001	3.131	0.308	-3.3929999
67	1	3	0.089565001	2.648	-1.0829999	-2.368
68	1	4	0.090875	3.543	2.227	-1.88
69	1	4	0.090875	2.79	2.243	-0.25099999
70	1	5	0.49355	-4.8499999	0.91600001	-6.375
71	1	6	-0.657974	-5.007	0.52399999	-7.5209999
72	1	2	-0.220404	-3.7130001	1.839	-6.0229998
73	1	3	0.108475	-3.8080001	2.0829999	-4.941
74	1	2	-0.107637	-2.3440001	1.147	-6.2459998
75	1	3	0.088376001	-2.1140001	0.52600002	-5.3530002
76	1	3	0.088376001	-2.3870001	0.45899999	-7.119
77	1	2	-0.126636	-1.187	2.141	-6.4840002
78	1	3	0.095968999	-0.242	1.7	-6.0949998
79	1	3	0.095968999	-1.0599999	2.296	-7.579
80	1	2	-0.17300799	-1.451	3.4979999	-5.8080001
81	1	5	0.76756001	-0.264	4.4109998	-5.9450002
82	1	6	-0.52959102	0.219	4.6659999	-7.0809999
83	1	7	-0.64938301	0.292	4.9949999	-4.8109999
84	1	8	0.39486	1.087	5.619	-4.8839998
85	1	3	0.130758	-1.607	3.3069999	-4.7220001
86	1	2	-0.126636	-2.7279999	4.1680002	-6.3730001
87	1	3	0.095968999	-2.4820001	4.8070002	-7.2490001
88	1	3	0.095968999	-3.1500001	4.8369999	-5.5900002
89	1	2	-0.107637	-3.809	3.1559999	-6.8119998
90	1	3	0.088376001	-4.8130002	3.6129999	-6.6700001
91	1	3	0.088376001	-3.687	2.9419999	-7.8969998

Bonds

1	1	1	2
2	2	1	45
3	3	2	3
4	4	2	23
5	4	2	24
6	4	3	4
7	3	3	5
8	3	3	20
9	4	5	6
10	4	5	7
11	3	5	8
12	4	8	9
13	4	8	10
14	3	8	11
15	3	11	12
16	4	11	16
17	3	11	17
18	1	12	13
19	4	12	14
20	4	12	15
21	5	13	25
22	4	17	18
23	4	17	19
24	3	17	20
25	4	20	21
26	4	20	22
27	6	25	26
28	7	25	27
29	4	27	28
30	3	27	29
31	3	27	42
32	4	29	30
33	4	29	31
34	3	29	32
35	4	32	33
36	4	32	34
37	3	32	35
38	7	35	36
39	4	35	38
40	3	35	39
41	6	36	37
42	8	36	70
43	4	39	40
44	4	39	41
45	3	39	42
46	4	42	43
47	4	42	44
48	1	45	46
49	3	46	47
50	4	46	68
51	4	46	69
52	4	47	48
53	3	47	49
54	3	47	65
55	4	49	50
56	4	49	51
57	3	49	52
58	4	52	53
59	4	52	54
60	3	52	55
61	3	55	56
62	4	55	61
63	3	55	62
64	9	56	57
65	4	56	59
66	4	56	60
67	10	57	58
68	4	62	63
69	4	62	64
70	3	62	65
71	4	65	66
72	4	65	67
73	6	70	71
74	7	70	72
75	4	72	73
76	3	72	74
77	3	72	89
78	4	74	75
79	4	74	76
80	3	74	77
81	4	77	78
82	4	77	79
83	3	77	80
84	7	80	81
85	4	80	85
86	3	80	86
87	6	81	82
88	11	81	83
89	10	83	84
90	4	86	87
91	4	86	88
92	3	86	89
93	4	89	90
94	4	89	91

Angles

1	1	39	42	43
2	1	49	52	55
3	1	62	65	67
4	1	70	72	89
5	1	81	80	85
6	1	3	2	24
7	3	53	52	54
8	1	88	86	89
9	1	25	27	28
10	2	56	57	58
11	1	45	46	69
12	1	72	89	86
13	1	74	77	79
14	1	5	3	20
15	1	10	8	11
16	1	29	32	35
17	1	51	49	52
18	1	48	47	65
19	2	12	13	25
20	2	1	45	46
21	1	41	39	42
22	1	81	80	86
23	1	53	52	55
24	1	3	5	6
25	5	26	25	27
26	1	57	56	59
27	1	52	55	62
28	1	74	77	80
29	1	73	72	89
30	1	50	49	52
31	3	78	77	79
32	3	66	65	67
33	3	40	39	41
34	1	28	27	29
35	1	2	3	4
36	1	85	80	86
37	1	55	56	59
38	1	72	89	90
39	1	2	3	20
40	1	57	56	60
41	3	6	5	7
42	1	29	27	42
43	1	9	8	11
44	3	18	17	19
45	1	76	74	77
46	1	19	17	20
47	1	70	72	73
48	1	11	17	20
49	5	35	36	70
50	1	16	11	17
51	3	68	46	69
52	1	86	89	91
53	1	27	42	39
54	1	36	35	39
55	1	47	65	67
56	1	31	29	32
57	1	55	62	63
58	5	80	81	82
59	1	2	3	5
60	1	27	29	30
61	1	35	39	42
62	3	63	62	64
63	1	56	55	62
64	1	45	46	47
65	1	48	47	49
66	1	55	56	60
67	5	36	70	71
68	1	72	89	91
69	1	13	12	14
70	1	46	47	48
71	1	70	72	74
72	1	18	17	20
73	1	39	42	44
74	1	11	12	13
75	1	72	74	75
76	1	25	27	29
77	1	32	35	36
78	5	80	81	83
79	1	77	80	85
80	1	63	62	65
81	1	12	11	17
82	1	5	8	10
83	1	5	8	9
84	5	36	70	72
85	1	13	12	15
86	3	21	20	22
87	3	23	2	24
88	1	46	47	49
89	1	49	47	65
90	1	5	8	11
91	1	77	80	81
92	1	46	47	65
93	1	3	5	7
94	1	73	72	74
95	1	27	42	43
96	1	80	86	87
97	1	1	2	23
98	1	55	56	57
99	1	47	49	50
100	1	34	32	35
101	1	49	52	53
102	1	77	80	86
103	1	74	72	89
104	1	1	2	3
105	1	47	65	62
106	1	78	77	80
107	1	3	20	21
108	3	90	89	91
109	3	75	74	76
110	1	35	39	40
111	1	3	5	8
112	3	87	86	88
113	1	8	11	16
114	3	30	29	31
115	1	3	20	17
116	1	29	32	33
117	1	6	5	8
118	1	17	20	21
119	1	49	52	54
120	4	82	81	83
121	1	3	2	23
122	1	28	27	42
123	1	55	62	64
124	1	8	11	12
125	4	13	25	26
126	1	45	46	68
127	1	74	77	78
128	1	27	29	31
129	1	35	39	41
130	1	87	86	89
131	1	54	52	55
132	1	7	5	8
133	1	17	20	22
134	1	11	12	14
135	1	52	55	56
136	3	59	56	60
137	1	72	74	76
138	1	55	62	65
139	5	13	25	27
140	1	52	55	61
141	1	61	55	62
142	1	27	29	32
143	3	50	49	51
144	2	81	83	84
145	5	71	70	72
146	1	11	17	18
147	1	38	35	39
148	3	33	32	34
149	1	40	39	42
150	1	47	46	68
151	1	11	12	15
152	3	43	42	44
153	1	25	27	42
154	1	72	74	77
155	1	4	3	20
156	5	35	36	37
157	1	80	86	88
158	1	27	42	44
159	1	1	2	24
160	1	79	77	80
161	1	12	11	16
162	1	47	49	51
163	1	32	35	38
164	1	64	62	65
165	5	37	36	70
166	2	2	1	45
167	1	62	65	66
168	3	14	12	15
169	1	3	20	22
170	1	11	17	19
171	1	86	89	90
172	1	47	65	66
173	1	33	32	35
174	1	36	35	38
175	1	4	3	5
176	1	75	74	77
177	1	47	46	69
178	3	9	8	10
179	1	56	55	61
180	1	80	86	89
181	1	8	11	17
182	1	30	29	32
183	1	29	32	34
184	1	47	49	52
185	1	32	35	39

Dihedrals

1	10	48	47	49	50
2	10	61	55	62	64
3	6	49	47	46	69
4	6	27	29	32	33
5	6	47	65	62	63
6	6	52	55	56	59
7	6	65	47	46	68
8	6	7	5	3	20
9	3	1	2	3	5
10	6	51	49	52	55
11	4	1	45	46	69
12	6	15	12	11	17
13	7	49	47	65	62
13	8	49	47	65	62
13	9	49	47	65	62
14	6	77	80	86	88
15	10	63	62	65	67
16	10	48	47	46	68
17	6	52	55	62	63
18	16	38	35	36	70
19	10	73	72	89	91
20	6	3	20	17	19
21	10	34	32	35	38
22	10	41	39	42	43
23	6	31	29	27	42
24	7	29	27	42	39
24	8	29	27	42	39
24	9	29	27	42	39
25	6	47	49	52	53
26	6	32	35	39	41
27	7	49	52	55	56
27	8	49	52	55	56
27	9	49	52	55	56
28	6	54	52	55	62
29	16	77	80	81	83
30	10	31	29	32	34
31	6	49	47	65	67
32	22	55	56	57	58
32	23	55	56	57	58
33	16	13	25	27	29
34	10	30	29	32	34
35	10	48	47	49	51
36	10	6	5	8	10
37	6	2	3	5	7
38	6	52	55	56	60
39	10	6	5	8	9
40	6	47	65	62	64
41	6	61	55	62	65
42	6	49	52	55	61
43	6	49	47	65	66
44	10	76	74	77	78
45	3	13	12	11	17
46	3	25	27	29	31
47	10	19	17	20	22
48	6	3	5	8	10
49	7	8	5	3	20
49	8	8	5	3	20
49	9	8	5	3	20
50	10	38	35	39	40
51	6	3	5	8	9
52	10	48	47	46	69
53	6	35	39	42	43
54	4	24	2	1	45
55	10	50	49	52	54
56	10	4	3	2	23
57	10	4	3	20	22
58	10	79	77	80	85
59	10	28	27	42	44
60	10	28	27	29	30
61	10	16	11	17	19
62	7	32	29	27	42
62	8	32	29	27	42
62	9	32	29	27	42
63	7	3	20	17	11
63	8	3	20	17	11
63	9	3	20	17	11
64	6	34	32	35	39
65	17	71	70	72	73
65	18	71	70	72	73
65	19	71	70	72	73
66	6	60	56	55	62
67	3	36	35	39	42
68	4	23	2	1	45
69	10	48	47	65	66
70	24	58	57	56	59
71	3	25	27	42	39
72	6	30	29	32	35
73	6	53	52	55	56
74	20	32	35	36	37
75	6	74	72	89	90
76	7	2	3	5	8
76	8	2	3	5	8
76	9	2	3	5	8
77	10	9	8	11	16
78	20	71	70	72	89
79	6	85	80	86	89
80	3	79	77	80	81
81	7	29	32	35	39
81	8	29	32	35	39
81	9	29	32	35	39
82	10	87	86	89	91
83	20	26	25	27	42
84	3	25	27	29	32
85	6	33	32	35	39
86	6	5	3	2	24
87	6	56	55	62	63
88	1	57	56	55	61
88	2	57	56	55	61
89	21	37	36	70	71
90	6	35	39	42	44
91	3	52	55	56	57
92	6	9	8	11	12
93	6	50	49	52	55
94	10	4	3	2	24
95	7	74	72	89	86
95	8	74	72	89	86
95	9	74	72	89	86
96	6	20	3	2	23
97	10	28	27	29	31
98	6	16	11	17	20
99	6	29	27	42	43
100	3	70	72	74	76
101	6	73	72	74	77
102	11	11	12	13	25
102	12	11	12	13	25
103	6	72	89	86	87
104	6	8	11	12	14
105	10	48	47	65	67
106	16	83	81	80	85
107	10	51	49	52	53
108	7	77	74	72	89
108	8	77	74	72	89
108	9	77	74	72	89
109	6	12	11	17	18
110	6	46	47	49	50
111	10	40	39	42	43
112	6	80	86	89	90
113	6	30	29	27	42
114	6	27	29	32	34
115	6	65	47	46	69
116	6	8	11	17	18
117	6	2	3	20	21
118	3	70	72	74	77
119	6	29	27	42	44
120	16	39	35	36	70
121	10	7	5	8	10
122	3	29	32	35	36
123	6	72	89	86	88
124	10	7	5	8	9
125	6	8	11	12	15
126	13	12	13	25	26
126	14	12	13	25	26
127	6	6	5	8	11
128	3	33	32	35	36
129	7	77	80	86	89
129	8	77	80	86	89
129	9	77	80	86	89
130	17	26	25	27	28
130	18	26	25	27	28
130	19	26	25	27	28
131	10	75	74	77	78
132	6	52	55	62	64
133	10	4	3	5	6
134	7	2	3	20	17
134	8	2	3	20	17
134	9	2	3	20	17
135	10	18	17	20	21
136	10	41	39	42	44
137	6	47	49	52	54
138	26	82	81	83	84
138	27	82	81	83	84
139	7	3	5	8	11
139	8	3	5	8	11
139	9	3	5	8	11
140	6	46	47	49	51
141	6	31	29	32	35
142	3	36	35	39	40
143	10	78	77	80	85
144	6	48	47	49	52
145	6	80	86	89	91
146	7	27	29	32	35
146	8	27	29	32	35
146	9	27	29	32	35
147	6	8	11	17	19
148	4	3	2	1	45
149	7	49	52	55	62
149	8	49	52	55	62
149	9	49	52	55	62
150	10	76	74	77	79
151	6	46	47	65	66
152	10	53	52	55	61
153	6	72	74	77	78
154	10	38	35	39	41
155	7	72	89	86	80
155	8	72	89	86	80
155	9	72	89	86	80
156	3	81	80	86	87
157	7	27	42	39	35
157	8	27	42	39	35
157	9	27	42	39	35
158	3	78	77	80	81
159	10	75	74	77	79
160	10	4	3	5	7
161	3	81	80	86	89
162	6	79	77	80	86
163	7	47	49	52	55
163	8	47	49	52	55
163	9	47	49	52	55
164	20	71	70	72	74
165	10	10	8	11	16
166	16	13	25	27	42
167	10	73	72	74	75
168	24	58	57	56	60
169	7	46	47	65	62
169	8	46	47	65	62
169	9	46	47	65	62
170	10	59	56	55	61
171	3	70	72	89	86
172	16	36	70	72	73
173	6	74	72	89	91
174	6	9	8	11	17
175	17	82	81	80	85
175	18	82	81	80	85
175	19	82	81	80	85
176	1	45	46	47	48
176	2	45	46	47	48
177	16	36	70	72	89
178	6	76	74	77	80
179	4	1	45	46	47
180	6	28	27	42	39
181	3	34	32	35	36
182	6	10	8	11	12
183	6	53	52	55	62
184	17	37	36	35	38
184	18	37	36	35	38
184	19	37	36	35	38
185	6	72	74	77	79
186	3	81	80	86	88
187	6	5	8	11	16
188	6	56	55	62	64
189	3	57	56	55	62
190	21	37	36	70	72
191	10	61	55	62	63
192	6	49	47	46	68
193	6	11	17	20	21
194	3	74	77	80	81
195	6	20	3	2	24
196	6	28	27	29	32
197	3	25	27	42	43
198	16	83	81	80	86
199	6	54	52	55	56
200	10	51	49	52	54
201	4	1	45	46	68
202	10	15	12	11	16
203	6	55	62	65	66
204	7	5	8	11	12
204	8	5	8	11	12
204	9	5	8	11	12
205	10	73	72	89	90
206	20	82	81	80	86
207	6	3	20	17	18
208	3	1	2	3	20
209	6	12	11	17	19
210	6	7	5	8	11
211	4	14	12	13	25
212	3	45	46	47	49
213	7	32	35	39	42
213	8	32	35	39	42
213	9	32	35	39	42
214	20	77	80	81	82
215	20	37	36	35	39
216	10	54	52	55	61
217	6	6	5	3	20
218	6	75	74	72	89
219	10	40	39	42	44
220	3	45	46	47	65
221	16	13	25	27	28
222	10	30	29	32	33
223	7	56	55	62	65
223	8	56	55	62	65
223	9	56	55	62	65
224	6	2	3	5	6
225	6	2	3	20	22
226	6	11	17	20	22
227	10	14	12	11	16
228	6	50	49	47	65
229	6	73	72	89	86
230	10	85	80	86	87
231	3	25	27	42	44
232	1	13	12	11	16
232	2	13	12	11	16
233	3	25	27	29	30
234	15	12	13	25	27
235	10	19	17	20	21
236	3	70	72	89	90
237	6	55	62	65	67
238	6	5	3	20	21
239	20	26	25	27	29
240	7	52	55	62	65
240	8	52	55	62	65
240	9	52	55	62	65
241	10	50	49	52	53
242	10	4	3	20	21
243	7	12	11	17	20
243	8	12	11	17	20
243	9	12	11	17	20
244	10	18	17	20	22
245	10	28	27	42	43
246	10	16	11	17	18
247	7	52	49	47	65
247	8	52	49	47	65
247	9	52	49	47	65
248	10	60	56	55	61
249	7	46	47	49	52
249	8	46	47	49	52
249	9	46	47	49	52
250	3	36	35	39	41
251	6	27	42	39	40
252	6	78	77	80	86
253	21	35	36	70	71
254	10	88	86	89	90
255	7	5	3	20	17
255	8	5	3	20	17
255	9	5	3	20	17
256	7	8	11	17	20
256	8	8	11	17	20
256	9	8	11	17	20
257	6	74	77	80	85
258	6	14	12	11	17
259	25	80	81	83	84
260	7	47	65	62	55
260	8	47	65	62	55
260	9	47	65	62	55
261	10	85	80	86	88
262	6	4	3	20	17
263	6	29	32	35	38
264	10	87	86	89	90
265	6	46	47	65	67
266	3	70	72	89	91
267	6	38	35	39	42
268	10	33	32	35	38
269	6	5	3	2	23
270	6	5	3	20	22
271	10	64	62	65	66
272	16	32	35	36	70
273	6	75	74	77	80
274	6	4	3	5	8
275	4	15	12	13	25
276	3	70	72	74	75
277	6	10	8	11	17
278	10	73	72	74	76
279	3	8	11	12	13
280	6	27	42	39	41
281	1	1	2	3	4
281	2	1	2	3	4
282	16	36	70	72	74
283	6	59	56	55	62
284	21	35	36	70	72
285	6	77	80	86	87
286	10	88	86	89	91
287	10	63	62	65	66
288	7	74	77	80	86
288	8	74	77	80	86
288	9	74	77	80	86
289	10	64	62	65	67
290	6	51	49	47	65
291	6	76	74	72	89
292	6	32	35	39	40
293	7	72	74	77	80
293	8	72	74	77	80
293	9	72	74	77	80
294	5	2	1	45	46
295	10	31	29	32	33
296	6	48	47	65	62
297	7	5	8	11	17
297	8	5	8	11	17
297	9	5	8	11	17

Impropers

2	2	70	72	36	71
70	1	81	83	80	82
122	1	25	26	27	13
132	2	70	71	72	36
161	2	36	37	70	35
225	1	25	27	13	26
372	2	70	36	71	72
504	2	36	35	37	70
555	1	81	80	82	83
581	1	25	13	26	27
600	1	81	82	83	80
691	2	36	70	35	37
