Title

91 atoms
94 bonds
185 angles
377 dihedrals
12 impropers

8 atom types
11 bond types
5 angle types
27 dihedral types
2 improper types
-6.796999931 93.20300007 xlo xhi
-2.424999952 97.57500005 ylo yhi
-7.896999836 92.10300016 zlo zhi
0.0 0.0 0.0 xy xz yz

Masses

1	15.99943
2	12.01078
3	1.007947
4	1.007947
5	12.01078
6	15.99943
7	15.99943
8	1.007947


Pair Coeffs

1	0.16846514	3.0251065
2	0.10884061	3.3795318
3	0.015779483	2.6445434
4	0.016409246	2.5832257
5	0.086879315	3.4806469
6	0.2102061	3.0398122
7	0.20947353	2.99716
8	1.2326e-05	0.53453923

Bond Coeffs

1 harmonic	366.7408841747	1.425895053732
2 harmonic	300.03137914615	1.451203938761
3 harmonic	264.62148576755	1.52190126495
4 harmonic	370.04670688625	1.093899492634
5 harmonic	301.15400723785	1.345741232799
6 harmonic	582.698766451	1.225198386222
7 harmonic	329.44145381095	1.523435958334
8 harmonic	279.1350963404	1.454628925034
9 harmonic	329.96998057905	1.427343958716
10 harmonic	543.5267831885	0.9716763312559
11 harmonic	385.7604595587	1.369745182308


Angle Coeffs

1 harmonic	53.20531626545	116.5475862634
2 harmonic	65.09061609600001	110.3538806181
3 harmonic	48.776492647595	115.6030999533
4 harmonic	201.41175231035	127.4691416191
5 harmonic	57.8982893754	126.8062420451


Dihedral Coeffs

1 fourier 1	0.1115525666802	3	0
2 fourier 1	0.3432490222662	1	0
3 fourier 1	0.1155372516788	3	0
4 fourier 1	0.0473758381877	3	0
5 fourier 1	0.457973137376	1	0
6 fourier 1	0.1040663847541	3	0
7 fourier 1	0.09223874044423	3	0
8 fourier 1	0.3159935921949	2	180
9 fourier 1	0.3247796806857	1	180
10 fourier 1	0.1911926717192	3	0
11 fourier 1	0.1918272375143	3	0
12 fourier 1	0.9202179876409	1	180
13 fourier 1	1.163809172478	2	180
14 fourier 1	0.1679186987369	1	180
15 fourier 1	2.779853741805	2	180
16 fourier 1	0.02664938770063	3	0
17 fourier 1	0.4541676554336	1	0
18 fourier 1	0.1489710476446	2	0
19 fourier 1	0.02960027280666	3	180
20 fourier 1	-0.3703352413219	2	0
21 fourier 1	0.9974165607242	2	180
22 fourier 1	0.3445382149273	3	0
23 fourier 1	0.1364556373303	1	0
24 fourier 1	0.3026390167484	3	0
25 fourier 1	2.687457892086	2	180
26 fourier 1	2.772607909663	2	180
27 fourier 1	0.09692684957115	1	0


Improper Coeffs

1 3.5	-1	2
2 0.3666666666666667	-1	2


Atoms

1	1	1	-0.154956	3.734	0.289	0.2
2	1	2	0.014841	2.721	-0.61799997	-0.14300001
3	1	2	-0.074804999	1.439	0.125	-0.56800002
4	1	3	0.083659999	1.692	0.74000001	-1.461
5	1	2	-0.166711	0.33199999	-0.87400001	-1.003
6	1	3	0.089565001	0.77499998	-1.819	-1.388
7	1	3	0.089565001	-0.249	-0.43200001	-1.842
8	1	2	-0.16711999	-0.63700002	-1.1950001	0.142
9	1	3	0.088926002	-1.3609999	-1.967	-0.197
10	1	3	0.088926002	-0.057	-1.648	0.97600001
11	1	2	-0.075319998	-1.369	0.075000003	0.66100001
12	1	2	0.104018	-2.76	0.23	0.023
13	1	1	-0.471201	-3.592	-0.82700002	0.419
14	1	4	0.090292998	-2.6689999	0.244	-1.086
15	1	4	0.090292998	-3.214	1.191	0.354
16	1	3	0.080844998	-1.518	-0.052000001	1.757
17	1	2	-0.16711999	-0.53899997	1.367	0.44999999
18	1	3	0.088926002	-0.82700002	2.1210001	1.215
19	1	3	0.088926002	-0.74699998	1.809	-0.55000001
20	1	2	-0.166711	0.963	1.087	0.55299997
21	1	3	0.089565001	1.1720001	0.65499997	1.557
22	1	3	0.089565001	1.521	2.046	0.479
23	1	4	0.090875	2.5079999	-1.2640001	0.736
24	1	4	0.090875	3.073	-1.28	-0.96700001
25	1	5	0.69810998	-4.5019999	-0.67199999	-0.057999998
26	1	6	-0.52775699	-5.5370002	-0.76300001	0.58399999
27	1	2	-0.15242399	-4.5300002	-0.34599999	-1.528
28	1	3	0.1285	-3.477	-0.36000001	-1.89
29	1	2	-0.131458	-5.3099999	-1.414	-2.313
30	1	3	0.095968999	-6.375	-1.4	-1.99
31	1	3	0.095968999	-4.9039998	-2.425	-2.0880001
32	1	2	-0.107637	-5.2410002	-1.171	-3.836
33	1	3	0.088376001	-6.177	-1.568	-4.2880001
34	1	3	0.088376001	-4.3990002	-1.7589999	-4.2620001
35	1	2	-0.220404	-5.039	0.31799999	-4.2129998
36	1	5	0.49355099	-5.5440001	0.59899998	-5.6040001
37	1	6	-0.65797299	-6.7290001	0.48100001	-5.8759999
38	1	3	0.108475	-3.947	0.53500003	-4.2080002
39	1	2	-0.107637	-5.7059999	1.25	-3.187
40	1	3	0.088376001	-6.7969999	1.033	-3.151
41	1	3	0.088376001	-5.585	2.3110001	-3.5
42	1	2	-0.131458	-5.1090002	1.0700001	-1.774
43	1	3	0.095968999	-5.9060001	1.304	-1.034
44	1	3	0.095968999	-4.2969999	1.814	-1.624
45	1	1	-0.154956	4.0710001	0.67400002	-0.64999998
46	1	2	0.014841	3.0969999	1.581	-1.0930001
47	1	2	-0.074804999	1.8710001	0.838	-1.661
48	1	3	0.083659999	1.4450001	0.223	-0.83600003
49	1	2	-0.165925	0.76599997	1.837	-2.0999999
50	1	3	0.089565001	0.82499999	2.7820001	-1.517
51	1	3	0.089565001	-0.23199999	1.395	-1.887
52	1	2	-0.158859	0.84299999	2.158	-3.598
53	1	3	0.089565001	0.083999999	2.9300001	-3.8469999
54	1	3	0.089565001	1.836	2.6110001	-3.8099999
55	1	2	-0.11625	0.66500002	0.88800001	-4.4780002
56	1	2	0.077036001	-0.78600001	0.73400003	-4.9650002
57	1	7	-0.67630601	-1.122	1.79	-5.822
58	1	8	0.37401801	-2.0669999	1.642	-6.086
59	1	4	0.079031996	-1.479	0.71899998	-4.0929999
60	1	4	0.079031996	-0.89099997	-0.228	-5.5170002
61	1	3	0.087334998	1.306	1.015	-5.3800001
62	1	2	-0.158859	1.126	-0.40400001	-3.756
63	1	3	0.089565001	1.439	-1.158	-4.5110002
64	1	3	0.089565001	0.28999999	-0.84600002	-3.1689999
65	1	2	-0.165925	2.2909999	-0.124	-2.803
66	1	3	0.089565001	3.131	0.308	-3.3929999
67	1	3	0.089565001	2.648	-1.0829999	-2.368
68	1	4	0.090875	3.543	2.227	-1.88
69	1	4	0.090875	2.79	2.243	-0.25099999
70	1	5	0.49355	-4.8499999	0.91600001	-6.375
71	1	6	-0.657974	-5.007	0.52399999	-7.5209999
72	1	2	-0.220404	-3.7130001	1.839	-6.0229998
73	1	3	0.108475	-3.8080001	2.0829999	-4.941
74	1	2	-0.107637	-2.3440001	1.147	-6.2459998
75	1	3	0.088376001	-2.1140001	0.52600002	-5.3530002
76	1	3	0.088376001	-2.3870001	0.45899999	-7.119
77	1	2	-0.126636	-1.187	2.141	-6.4840002
78	1	3	0.095968999	-0.242	1.7	-6.0949998
79	1	3	0.095968999	-1.0599999	2.296	-7.579
80	1	2	-0.17300799	-1.451	3.4979999	-5.8080001
81	1	5	0.76756001	-0.264	4.4109998	-5.9450002
82	1	6	-0.52959102	0.219	4.6659999	-7.0809999
83	1	7	-0.64938301	0.292	4.9949999	-4.8109999
84	1	8	0.39486	1.087	5.619	-4.8839998
85	1	3	0.130758	-1.607	3.3069999	-4.7220001
86	1	2	-0.126636	-2.7279999	4.1680002	-6.3730001
87	1	3	0.095968999	-2.4820001	4.8070002	-7.2490001
88	1	3	0.095968999	-3.1500001	4.8369999	-5.5900002
89	1	2	-0.107637	-3.809	3.1559999	-6.8119998
90	1	3	0.088376001	-4.8130002	3.6129999	-6.6700001
91	1	3	0.088376001	-3.687	2.9419999	-7.8969998

Bonds

1	1	1	2
2	2	1	45
3	3	2	3
4	4	2	23
5	4	2	24
6	4	3	4
7	3	3	5
8	3	3	20
9	4	5	6
10	4	5	7
11	3	5	8
12	4	8	9
13	4	8	10
14	3	8	11
15	3	11	12
16	4	11	16
17	3	11	17
18	1	12	13
19	4	12	14
20	4	12	15
21	5	13	25
22	4	17	18
23	4	17	19
24	3	17	20
25	4	20	21
26	4	20	22
27	6	25	26
28	7	25	27
29	4	27	28
30	3	27	29
31	3	27	42
32	4	29	30
33	4	29	31
34	3	29	32
35	4	32	33
36	4	32	34
37	3	32	35
38	7	35	36
39	4	35	38
40	3	35	39
41	6	36	37
42	8	36	70
43	4	39	40
44	4	39	41
45	3	39	42
46	4	42	43
47	4	42	44
48	1	45	46
49	3	46	47
50	4	46	68
51	4	46	69
52	4	47	48
53	3	47	49
54	3	47	65
55	4	49	50
56	4	49	51
57	3	49	52
58	4	52	53
59	4	52	54
60	3	52	55
61	3	55	56
62	4	55	61
63	3	55	62
64	9	56	57
65	4	56	59
66	4	56	60
67	10	57	58
68	4	62	63
69	4	62	64
70	3	62	65
71	4	65	66
72	4	65	67
73	6	70	71
74	7	70	72
75	4	72	73
76	3	72	74
77	3	72	89
78	4	74	75
79	4	74	76
80	3	74	77
81	4	77	78
82	4	77	79
83	3	77	80
84	7	80	81
85	4	80	85
86	3	80	86
87	6	81	82
88	11	81	83
89	10	83	84
90	4	86	87
91	4	86	88
92	3	86	89
93	4	89	90
94	4	89	91

Angles

1	1	17	20	22
2	3	87	86	88
3	1	8	11	16
4	1	73	72	74
5	1	81	80	86
6	1	25	27	42
7	1	3	20	22
8	1	3	20	17
9	3	18	17	19
10	1	46	47	48
11	1	77	80	81
12	2	56	57	58
13	1	64	62	65
14	1	11	17	18
15	1	73	72	89
16	3	43	42	44
17	5	35	36	37
18	1	62	65	66
19	1	38	35	39
20	1	36	35	38
21	5	36	70	72
22	3	53	52	54
23	1	49	52	54
24	1	70	72	74
25	5	80	81	83
26	1	11	17	20
27	3	9	8	10
28	1	75	74	77
29	1	40	39	42
30	1	3	2	23
31	1	8	11	17
32	1	19	17	20
33	1	29	27	42
34	1	32	35	39
35	3	21	20	22
36	4	82	81	83
37	1	11	12	14
38	1	28	27	42
39	1	34	32	35
40	1	80	86	87
41	1	47	49	51
42	1	30	29	32
43	1	4	3	20
44	1	27	29	31
45	3	40	39	41
46	1	74	77	80
47	1	47	49	52
48	3	33	32	34
49	3	68	46	69
50	1	17	20	21
51	5	71	70	72
52	1	79	77	80
53	1	45	46	69
54	5	35	36	70
55	1	56	55	61
56	1	47	65	66
57	1	47	49	50
58	1	3	20	21
59	1	8	11	12
60	5	37	36	70
61	3	23	2	24
62	3	6	5	7
63	1	11	12	13
64	1	36	35	39
65	1	3	5	6
66	1	27	29	32
67	5	26	25	27
68	1	52	55	56
69	1	27	42	43
70	2	1	45	46
71	1	25	27	29
72	1	11	17	19
73	1	12	11	16
74	1	48	47	49
75	1	53	52	55
76	1	49	52	55
77	1	55	62	64
78	1	62	65	67
79	1	11	12	15
80	1	72	89	90
81	1	35	39	41
82	1	3	5	7
83	3	75	74	76
84	3	30	29	31
85	1	85	80	86
86	2	12	13	25
87	1	72	89	86
88	1	70	72	89
89	1	5	3	20
90	1	86	89	90
91	1	47	65	62
92	1	74	77	79
93	1	1	2	23
94	1	39	42	44
95	1	1	2	3
96	1	46	47	65
97	1	16	11	17
98	1	41	39	42
99	1	5	8	11
100	1	12	11	17
101	3	59	56	60
102	1	54	52	55
103	1	4	3	5
104	1	33	32	35
105	1	28	27	29
106	1	76	74	77
107	1	48	47	65
108	1	72	74	75
109	1	47	65	67
110	1	56	55	62
111	1	35	39	42
112	1	49	52	53
113	1	31	29	32
114	1	46	47	49
115	1	7	5	8
116	1	35	39	40
117	1	45	46	68
118	1	74	72	89
119	1	47	46	69
120	1	51	49	52
121	3	63	62	64
122	1	78	77	80
123	1	6	5	8
124	1	70	72	73
125	1	3	2	24
126	1	52	55	61
127	1	9	8	11
128	3	50	49	51
129	1	49	47	65
130	1	72	74	77
131	1	80	86	89
132	1	2	3	4
133	1	27	29	30
134	1	50	49	52
135	1	55	56	57
136	1	55	62	63
137	1	2	3	20
138	3	14	12	15
139	1	61	55	62
140	1	55	56	60
141	1	72	89	91
142	1	3	5	8
143	2	81	83	84
144	1	55	62	65
145	2	2	1	45
146	1	77	80	85
147	1	27	42	39
148	1	80	86	88
149	1	86	89	91
150	1	13	12	14
151	1	18	17	20
152	5	36	70	71
153	1	25	27	28
154	1	29	32	34
155	1	29	32	33
156	4	13	25	26
157	1	57	56	59
158	1	32	35	36
159	1	74	77	78
160	3	78	77	79
161	1	29	32	35
162	1	57	56	60
163	1	27	42	44
164	1	81	80	85
165	1	5	8	9
166	1	45	46	47
167	1	88	86	89
168	3	90	89	91
169	1	10	8	11
170	3	66	65	67
171	1	47	46	68
172	1	87	86	89
173	1	77	80	86
174	1	52	55	62
175	1	1	2	24
176	1	72	74	76
177	1	39	42	43
178	1	55	56	59
179	1	13	12	15
180	5	80	81	82
181	1	32	35	38
182	1	5	8	10
183	1	2	3	5
184	1	63	62	65
185	5	13	25	27

Dihedrals

1	6	27	29	32	33
2	7	77	74	72	89
2	8	77	74	72	89
2	9	77	74	72	89
3	7	27	29	32	35
3	8	27	29	32	35
3	9	27	29	32	35
4	16	36	70	72	74
5	6	72	89	86	87
6	3	13	12	11	17
7	6	75	74	72	89
8	6	28	27	42	39
9	3	8	11	12	13
10	7	3	20	17	11
10	8	3	20	17	11
10	9	3	20	17	11
11	6	73	72	74	77
12	7	5	8	11	17
12	8	5	8	11	17
12	9	5	8	11	17
13	10	15	12	11	16
14	3	25	27	42	39
15	7	47	65	62	55
15	8	47	65	62	55
15	9	47	65	62	55
16	3	70	72	74	75
17	7	3	5	8	11
17	8	3	5	8	11
17	9	3	5	8	11
18	3	1	2	3	5
19	16	13	25	27	28
20	6	54	52	55	62
21	7	29	27	42	39
21	8	29	27	42	39
21	9	29	27	42	39
22	10	75	74	77	78
23	3	81	80	86	89
24	17	26	25	27	28
24	18	26	25	27	28
24	19	26	25	27	28
25	6	27	42	39	40
26	6	30	29	27	42
27	16	36	70	72	89
28	3	36	35	39	42
29	4	15	12	13	25
30	3	45	46	47	65
31	10	73	72	89	91
32	4	1	45	46	47
33	6	4	3	5	8
34	6	8	11	17	19
35	4	14	12	13	25
36	10	31	29	32	33
37	17	82	81	80	85
37	18	82	81	80	85
37	19	82	81	80	85
38	6	77	80	86	87
39	6	8	11	12	15
40	3	33	32	35	36
41	3	36	35	39	40
42	6	11	17	20	21
43	20	77	80	81	82
44	6	10	8	11	17
45	6	5	3	2	24
46	10	28	27	42	44
47	20	32	35	36	37
48	6	12	11	17	19
49	6	38	35	39	42
50	6	49	47	65	67
51	3	25	27	42	44
52	6	51	49	52	55
53	3	34	32	35	36
54	6	51	49	47	65
55	10	4	3	20	22
56	6	27	42	39	41
57	6	29	27	42	44
58	10	38	35	39	40
59	6	46	47	65	66
60	10	60	56	55	61
61	6	76	74	72	89
62	6	3	20	17	18
63	7	8	5	3	20
63	8	8	5	3	20
63	9	8	5	3	20
64	10	9	8	11	16
65	3	45	46	47	49
66	10	18	17	20	22
67	3	70	72	74	77
68	21	37	36	70	72
69	6	49	47	46	69
70	6	53	52	55	56
71	3	36	35	39	41
72	10	48	47	46	68
73	10	78	77	80	85
74	3	79	77	80	81
75	6	75	74	77	80
76	4	1	45	46	69
77	24	58	57	56	59
78	10	53	52	55	61
79	7	47	49	52	55
79	8	47	49	52	55
79	9	47	49	52	55
80	10	30	29	32	33
81	6	49	52	55	61
82	24	58	57	56	60
83	6	72	74	77	78
84	6	10	8	11	12
85	10	33	32	35	38
86	10	48	47	49	51
87	1	57	56	55	61
87	2	57	56	55	61
88	21	35	36	70	71
89	7	2	3	5	8
89	8	2	3	5	8
89	9	2	3	5	8
90	20	82	81	80	86
91	6	29	32	35	38
92	16	13	25	27	42
93	6	5	3	20	22
94	6	48	47	49	52
95	20	26	25	27	42
96	16	77	80	81	83
97	10	61	55	62	63
98	10	48	47	49	50
99	10	4	3	2	24
100	6	20	3	2	23
101	7	27	42	39	35
101	8	27	42	39	35
101	9	27	42	39	35
102	16	32	35	36	70
103	6	2	3	20	22
104	17	71	70	72	73
104	18	71	70	72	73
104	19	71	70	72	73
105	6	80	86	89	90
106	10	51	49	52	53
107	10	73	72	74	76
108	7	74	72	89	86
108	8	74	72	89	86
108	9	74	72	89	86
109	6	79	77	80	86
110	6	74	77	80	85
111	10	85	80	86	87
112	10	88	86	89	90
113	10	50	49	52	54
114	7	46	47	65	62
114	8	46	47	65	62
114	9	46	47	65	62
115	6	61	55	62	65
116	10	87	86	89	90
117	6	47	65	62	64
118	6	6	5	8	11
119	4	23	2	1	45
120	13	12	13	25	26
120	14	12	13	25	26
121	6	5	3	2	23
122	10	76	74	77	78
123	22	55	56	57	58
123	23	55	56	57	58
124	17	37	36	35	38
124	18	37	36	35	38
124	19	37	36	35	38
125	10	75	74	77	79
126	6	52	55	62	64
127	6	4	3	20	17
128	11	11	12	13	25
128	12	11	12	13	25
129	10	18	17	20	21
130	6	47	49	52	53
131	6	48	47	65	62
132	7	52	49	47	65
132	8	52	49	47	65
132	9	52	49	47	65
133	6	9	8	11	12
134	6	32	35	39	41
135	6	46	47	65	67
136	6	65	47	46	69
137	3	70	72	89	91
138	3	70	72	74	76
139	6	31	29	27	42
140	6	33	32	35	39
141	6	15	12	11	17
142	6	35	39	42	44
143	6	60	56	55	62
144	3	81	80	86	88
145	10	41	39	42	43
146	7	29	32	35	39
146	8	29	32	35	39
146	9	29	32	35	39
147	6	3	20	17	19
148	3	52	55	56	57
149	16	83	81	80	85
150	6	52	55	62	63
151	10	16	11	17	18
152	3	78	77	80	81
153	7	74	77	80	86
153	8	74	77	80	86
153	9	74	77	80	86
154	26	82	81	83	84
154	27	82	81	83	84
155	6	49	47	46	68
156	6	7	5	8	11
157	10	40	39	42	44
158	10	48	47	65	66
159	10	64	62	65	66
160	10	28	27	29	31
161	6	5	3	20	21
162	6	53	52	55	62
163	3	25	27	29	31
164	7	49	52	55	62
164	8	49	52	55	62
164	9	49	52	55	62
165	7	52	55	62	65
165	8	52	55	62	65
165	9	52	55	62	65
166	3	57	56	55	62
167	10	59	56	55	61
168	6	16	11	17	20
169	16	36	70	72	73
170	7	5	3	20	17
170	8	5	3	20	17
170	9	5	3	20	17
171	6	74	72	89	90
172	10	34	32	35	38
173	15	12	13	25	27
174	6	56	55	62	64
175	6	2	3	20	21
176	21	35	36	70	72
177	6	76	74	77	80
178	6	72	89	86	88
179	6	9	8	11	17
180	7	2	3	20	17
180	8	2	3	20	17
180	9	2	3	20	17
181	7	32	35	39	42
181	8	32	35	39	42
181	9	32	35	39	42
182	16	13	25	27	29
183	6	6	5	3	20
184	6	28	27	29	32
185	6	50	49	52	55
186	6	50	49	47	65
187	3	25	27	29	32
188	20	26	25	27	29
189	21	37	36	70	71
190	10	28	27	42	43
191	20	37	36	35	39
192	6	32	35	39	40
193	10	48	47	46	69
194	6	56	55	62	63
195	1	13	12	11	16
195	2	13	12	11	16
196	3	25	27	42	43
197	3	74	77	80	81
198	16	83	81	80	86
199	10	85	80	86	88
200	6	29	27	42	43
201	6	5	8	11	16
202	1	45	46	47	48
202	2	45	46	47	48
203	6	77	80	86	88
204	10	4	3	20	21
205	7	56	55	62	65
205	8	56	55	62	65
205	9	56	55	62	65
206	6	46	47	49	51
207	7	72	74	77	80
207	8	72	74	77	80
207	9	72	74	77	80
208	6	2	3	5	7
209	4	24	2	1	45
210	4	3	2	1	45
211	7	46	47	49	52
211	8	46	47	49	52
211	9	46	47	49	52
212	6	47	65	62	63
213	6	3	5	8	9
214	10	4	3	5	6
215	6	46	47	49	50
216	10	63	62	65	66
217	6	55	62	65	66
218	6	54	52	55	56
219	6	7	5	3	20
220	6	52	55	56	59
221	6	27	29	32	34
222	6	34	32	35	39
223	6	65	47	46	68
224	10	6	5	8	9
225	1	1	2	3	4
225	2	1	2	3	4
226	10	19	17	20	22
227	7	32	29	27	42
227	8	32	29	27	42
227	9	32	29	27	42
228	5	2	1	45	46
229	6	52	55	56	60
230	10	76	74	77	79
231	10	73	72	89	90
232	10	14	12	11	16
233	3	1	2	3	20
234	10	16	11	17	19
235	6	20	3	2	24
236	10	54	52	55	61
237	10	4	3	5	7
238	10	48	47	65	67
239	7	49	47	65	62
239	8	49	47	65	62
239	9	49	47	65	62
240	10	50	49	52	53
241	10	64	62	65	67
242	6	78	77	80	86
243	6	85	80	86	89
244	20	71	70	72	74
245	6	3	5	8	10
246	4	1	45	46	68
247	6	8	11	17	18
248	6	73	72	89	86
249	6	59	56	55	62
250	7	77	80	86	89
250	8	77	80	86	89
250	9	77	80	86	89
251	10	4	3	2	23
252	10	31	29	32	34
253	6	12	11	17	18
254	10	6	5	8	10
255	16	38	35	36	70
256	3	70	72	89	90
257	20	71	70	72	89
258	6	31	29	32	35
259	25	80	81	83	84
260	6	74	72	89	91
261	7	8	11	17	20
261	8	8	11	17	20
261	9	8	11	17	20
262	7	72	89	86	80
262	8	72	89	86	80
262	9	72	89	86	80
263	3	29	32	35	36
264	6	2	3	5	6
265	6	49	47	65	66
266	10	51	49	52	54
267	6	11	17	20	22
268	6	72	74	77	79
269	10	7	5	8	9
270	16	39	35	36	70
271	3	70	72	89	86
272	6	80	86	89	91
273	7	12	11	17	20
273	8	12	11	17	20
273	9	12	11	17	20
274	7	5	8	11	12
274	8	5	8	11	12
274	9	5	8	11	12
275	6	14	12	11	17
276	10	79	77	80	85
277	10	73	72	74	75
278	10	88	86	89	91
279	7	49	52	55	56
279	8	49	52	55	56
279	9	49	52	55	56
280	6	8	11	12	14
281	6	35	39	42	43
282	3	81	80	86	87
283	10	28	27	29	30
284	10	87	86	89	91
285	3	25	27	29	30
286	10	61	55	62	64
287	10	30	29	32	34
288	10	38	35	39	41
289	6	47	49	52	54
290	10	41	39	42	44
291	10	7	5	8	10
292	10	10	8	11	16
293	10	40	39	42	43
294	6	30	29	32	35
295	10	63	62	65	67
296	6	55	62	65	67
297	10	19	17	20	21

Impropers

37	2	70	36	71	72
66	1	81	80	82	83
107	1	81	83	80	82
131	1	25	13	26	27
168	2	36	70	35	37
227	1	25	26	27	13
318	1	25	27	13	26
407	2	70	72	36	71
419	1	81	82	83	80
512	2	36	37	70	35
567	2	70	71	72	36
616	2	36	35	37	70
