Title

486 atoms
503 bonds
986 angles
2172 dihedrals
102 impropers

11 atom types
14 bond types
9 angle types
35 dihedral types
3 improper types
-20.95800018 79.04199982 xlo xhi
-14.39999962 85.60000038 ylo yhi
-3.322000027 96.67799997 zlo zhi
0.0 0.0 0.0 xy xz yz

Masses

1	15.99943
2	12.01078
3	14.00672
4	12.01078
5	1.007947
6	1.007947
7	1.007947
8	15.99943
9	12.01078
10	15.99943
11	1.007947


Pair Coeffs

1	0.2102061	3.0398122
2	0.086879315	3.4806469
3	0.16769152	3.206876
4	0.10884061	3.3795318
5	0.014090815	1.1034277
6	0.016409246	2.5832257
7	0.015779483	2.6445434
8	0.16846514	3.0251065
9	0.21	3.3996695
10	0.20947353	2.99716
11	1.2326e-05	0.53453923

Bond Coeffs

1 harmonic	582.698766451	1.225198386222
2 harmonic	492.76746816345	1.381897776683
3 harmonic	301.15400723785	1.345741232799
4 harmonic	352.0565580496	1.450098586273
5 harmonic	505.144496193	1.019481865027
6 harmonic	264.62148576755	1.52190126495
7 harmonic	370.04670688625	1.093899492634
8 harmonic	279.1350963404	1.454628925034
9 harmonic	366.7408841747	1.425895053732
10 harmonic	300.03137914615	1.451203938761
11 harmonic	366.34047229585	1.464762957261
12 harmonic	602.81384337	1.196112346392
13 harmonic	329.96998057905	1.427343958716
14 harmonic	543.5267831885	0.9716763312559


Angle Coeffs

1 harmonic	57.8982893754	126.8062420451
2 harmonic	201.41175231035	127.4691416191
3 harmonic	55.42182150775	117.3465570514
4 harmonic	63.44422595415	115.5071327674
5 harmonic	65.09061609600001	110.3538806181
6 harmonic	53.20531626545	116.5475862634
7 harmonic	48.776492647595	115.6030999533
8 harmonic	55.07882548015	112.8714009681
9 harmonic	33.56981613361	180


Dihedral Coeffs

1 fourier 1	1.809047390003	2	180
2 fourier 1	-0.04816277792592	1	0
3 fourier 1	0.4860993122944	2	180
4 fourier 1	0.8916986138746	1	0
5 fourier 1	1.163809172478	2	180
6 fourier 1	0.1679186987369	1	180
7 fourier 1	-0.1488678166443	4	180
8 fourier 1	-0.1230328948768	3	180
9 fourier 1	0.2939295466901	2	0
10 fourier 1	-0.3024127022865	1	0
11 fourier 1	0.182238503271	2	0
12 fourier 1	0.02972342374561	3	0
13 fourier 1	0.1918272375143	3	0
14 fourier 1	0.9202179876409	1	180
15 fourier 1	0.0473758381877	3	0
16 fourier 1	2.779853741805	2	180
17 fourier 1	0.1155372516788	3	0
18 fourier 1	0.09223874044423	3	0
19 fourier 1	0.3159935921949	2	180
20 fourier 1	0.3247796806857	1	180
21 fourier 1	0.1040663847541	3	0
22 fourier 1	3.101948770557	2	180
23 fourier 1	-0.4252153282372	1	0
24 fourier 1	0.9974165607242	2	180
25 fourier 1	2.348375642009	2	180
26 fourier 1	1.256156174911	1	0
27 fourier 1	0.1911926717192	3	0
28 fourier 1	0.1115525666802	3	0
29 fourier 1	0.3432490222662	1	0
30 fourier 1	0.457973137376	1	0
31 fourier 1	-1.382973039546	1	0
32 fourier 1	0	1	0
33 fourier 1	0.3445382149273	3	0
34 fourier 1	0.1364556373303	1	0
35 fourier 1	0.3026390167484	3	0


Improper Coeffs

1 3.5	-1	2
2 0.3333333333333333	-1	2
3 0.3666666666666667	-1	2


Atoms

1	1	1	-0.62943399	-4.5229998	-0.189	2.6500001
2	1	2	0.77752799	-3.4920001	-0.88800001	2.8440001
3	1	3	-0.45409599	-2.4549999	-0.95300001	1.8609999
4	1	4	0.017871	-2.5539999	-0.226	0.59399998
5	1	4	-0.079746	-1.283	-0.403	-0.26300001
6	1	4	-0.18182699	-0.037999999	0.215	0.43099999
7	1	4	-0.079879001	1.08	0.62699997	-0.56400001
8	1	4	0.021245999	2.4749999	0.64499998	0.097000003
9	1	3	-0.49914899	2.924	-0.68400002	0.52100003
10	1	2	0.53908199	4.1989999	-0.87800002	1.14
11	1	1	-0.70667398	4.9759998	0.093999997	1.335
12	1	5	0.312177	2.3210001	-1.526	0.38999999
13	1	6	0.058775	2.448	1.319	0.98000002
14	1	6	0.058775	3.211	1.064	-0.62400001
15	1	4	-0.174652	1.048	-0.227	-1.846
16	1	4	-0.134738	-0.28999999	-0.068000004	-2.5940001
17	1	4	-0.174652	-1.489	0.208	-1.6619999
18	1	7	0.092868999	-2.408	-0.207	-2.131
19	1	7	0.092868999	-1.631	1.307	-1.562
20	1	7	0.082393996	-0.48199999	-0.99400002	-3.178
21	1	7	0.082393996	-0.207	0.76800001	-3.322
22	1	7	0.092868999	1.8789999	0.068000004	-2.523
23	1	7	0.092868999	1.188	-1.3	-1.59
24	1	7	0.076116003	0.87300003	1.677	-0.875
25	1	7	0.098442003	0.347	-0.51999998	1.17
26	1	7	0.098442003	-0.33000001	1.12	1.0089999
27	1	7	0.076116003	-1.1109999	-1.4960001	-0.396
28	1	6	0.064168997	-2.7219999	0.85399997	0.79799998
29	1	6	0.064168997	-3.434	-0.61199999	0.035
30	1	5	0.31996101	-1.628	-1.557	2.066
31	1	8	-0.488718	3.023	-3.3169999	6.0549998
32	1	4	0.089106001	2.661	-3.082	4.7210002
33	1	4	-0.074305996	1.261	-3.6530001	4.421
34	1	4	-0.16663399	0.977	-3.595	2.898
35	1	4	-0.16663399	-0.52700001	-3.5999999	2.612
36	1	4	-0.074305996	-1.216	-2.336	3.187
37	1	4	-0.16663399	-0.52499998	-1.818	4.4790001
38	1	4	-0.16663399	0.16	-2.9460001	5.2600002
39	1	7	0.092412002	0.57499999	-2.5369999	6.2069998
40	1	7	0.092412002	-0.61199999	-3.6919999	5.5500002
41	1	7	0.092412002	-1.251	-1.3	5.1440001
42	1	7	0.092412002	0.244	-1.064	4.204
43	1	4	0.089106001	-2.717	-2.6070001	3.411
44	1	8	-0.488718	-3.3970001	-1.421	3.7279999
45	1	6	0.094182998	-2.848	-3.3269999	4.2459998
46	1	6	0.094182998	-3.165	-3.0650001	2.4990001
47	1	7	0.083646998	-1.131	-1.533	2.4200001
48	1	7	0.092412002	-0.69300002	-3.6459999	1.513
49	1	7	0.092412002	-0.96600002	-4.5229998	3.0539999
50	1	7	0.092412002	1.451	-4.4679999	2.3989999
51	1	7	0.092412002	1.4170001	-2.675	2.451
52	1	7	0.083646998	1.267	-4.7259998	4.7179999
53	1	6	0.094182998	2.6670001	-1.9859999	4.5380001
54	1	6	0.094182998	3.4159999	-3.539	4.04
55	1	1	-0.62943399	-4.2950001	-8.9169998	6.7309999
56	1	2	0.77752799	-3.7869999	-7.7880001	6.4959998
57	1	3	-0.45409599	-2.592	-7.369	7.1589999
58	1	4	0.017871	-1.921	-8.2229996	8.1409998
59	1	4	-0.079746	-0.62099999	-7.5770001	8.6619997
60	1	4	-0.18182699	0.42699999	-7.4120002	7.527
61	1	4	-0.079746	1.891	-7.368	8.0430002
62	1	4	0.017871	2.8310001	-6.6160002	7.0760002
63	1	3	-0.45409599	2.51	-5.191	6.9590001
64	1	2	0.77752799	3.276	-4.3210001	6.1220002
65	1	1	-0.62943298	4.257	-4.7579999	5.4629998
66	1	5	0.31996101	1.706	-4.7740002	7.4770002
67	1	6	0.064168997	2.7679999	-7.0879998	6.0710001
68	1	6	0.064168997	3.878	-6.7249999	7.4330001
69	1	4	-0.174652	1.974	-6.8260002	9.4829998
70	1	4	-0.134738	1.186	-7.7150002	10.464
71	1	4	-0.174652	-0.039999999	-8.401	9.8269997
72	1	7	0.092868999	-0.81300002	-8.5530005	10.613
73	1	7	0.092868999	0.255	-9.4060001	9.4510002
74	1	7	0.082393996	0.85500002	-7.0890002	11.322
75	1	7	0.082393996	1.86	-8.5	10.872
76	1	7	0.092868999	3.0350001	-6.7740002	9.8120003
77	1	7	0.092868999	1.5599999	-5.796	9.5240002
78	1	7	0.076116003	2.26	-8.4189997	8.0760002
79	1	7	0.098442003	0.184	-6.487	6.9629998
80	1	7	0.098442003	0.34599999	-8.2539997	6.8049998
81	1	7	0.076116003	-0.87599999	-6.5679998	9.0600004
82	1	6	0.064168997	-1.692	-9.2089996	7.6810002
83	1	6	0.064168997	-2.6159999	-8.3940001	8.9919996
84	1	5	0.31996101	-2.2190001	-6.4190001	6.9369998
85	1	8	-0.488718	-0.47400001	-2.0880001	2.595
86	1	4	0.089106001	-0.20200001	-2.655	3.849
87	1	4	-0.074305996	-1.503	-2.8800001	4.6459999
88	1	4	-0.16663399	-1.17	-3.2820001	6.105
89	1	4	-0.16663399	-2.3310001	-4.0440001	6.7509999
90	1	4	-0.074305996	-2.596	-5.388	6.026
91	1	4	-0.16663399	-2.2690001	-5.3210001	4.5079999
92	1	4	-0.16663399	-2.437	-3.904	3.944
93	1	7	0.092412002	-2.2620001	-3.924	2.846
94	1	7	0.092412002	-3.4949999	-3.592	4.0890002
95	1	7	0.092412002	-2.9030001	-6.0240002	3.927
96	1	7	0.092412002	-1.215	-5.6389999	4.348
97	1	4	0.089106001	-4.046	-5.848	6.277
98	1	8	-0.488718	-4.244	-7.1560001	5.8109999
99	1	6	0.094182998	-4.7509999	-5.171	5.75
100	1	6	0.094182998	-4.2820001	-5.7969999	7.3649998
101	1	7	0.083646998	-1.92	-6.1490002	6.4780002
102	1	7	0.092412002	-2.0940001	-4.2399998	7.8200002
103	1	7	0.092412002	-3.2360001	-3.3959999	6.723
104	1	7	0.092412002	-0.95099998	-2.368	6.7010002
105	1	7	0.092412002	-0.264	-3.927	6.1389999
106	1	7	0.083646998	-2.0439999	-1.9069999	4.6830001
107	1	6	0.094182998	0.31799999	-3.625	3.6960001
108	1	6	0.094182998	0.48800001	-1.9910001	4.4200001
109	1	1	-0.62943399	-9.1490002	-0.69	5.4520001
110	1	2	0.77752799	-8.1759996	-1.4529999	5.2119999
111	1	3	-0.45409599	-7.2399998	-1.1440001	4.1760001
112	1	4	0.017871	-7.381	0.056000002	3.3499999
113	1	4	-0.079746	-6.2129998	0.199	2.352
114	1	4	-0.18182699	-4.8590002	0.403	3.086
115	1	4	-0.079746	-3.799	1.145	2.2279999
116	1	4	0.017871	-2.355	0.81300002	2.664
117	1	3	-0.45409599	-1.998	-0.58999997	2.438
118	1	2	0.77752799	-0.69800001	-1.089	2.7620001
119	1	1	-0.62943298	0.182	-0.331	3.25
120	1	5	0.31996101	-2.687	-1.266	2.0409999
121	1	6	0.064168997	-2.2409999	1.049	3.744
122	1	6	0.064168997	-1.65	1.4630001	2.1010001
123	1	4	-0.174652	-4.0240002	0.91900003	0.72100002
124	1	4	-0.134738	-5.402	1.4450001	0.273
125	1	4	-0.174652	-6.4829998	1.3559999	1.3710001
126	1	7	0.092868999	-7.4749999	1.225	0.88499999
127	1	7	0.092868999	-6.5120001	2.3139999	1.936
128	1	7	0.082393996	-5.7309999	0.86500001	-0.61699998
129	1	7	0.082393996	-5.3049998	2.507	-0.044
130	1	7	0.092868999	-3.2309999	1.433	0.134
131	1	7	0.092868999	-3.964	-0.16500001	0.48699999
132	1	7	0.076116003	-3.9330001	2.2360001	2.4100001
133	1	7	0.098442003	-4.4809999	-0.59299999	3.3989999
134	1	7	0.098442003	-5.013	0.99000001	4.0190001
135	1	7	0.076116003	-6.1560001	-0.74000001	1.756
136	1	6	0.064168997	-7.428	0.954	4.0040002
137	1	6	0.064168997	-8.3389997	-0.012	2.79
138	1	5	0.31996101	-6.4580002	-1.817	4.0100002
139	1	8	-0.488718	-1.66	-5.3270001	6.3130002
140	1	4	0.089106001	-2.115	-4.5300002	5.2519999
141	1	4	-0.074305996	-3.5829999	-4.8520002	4.9109998
142	1	4	-0.16663399	-3.994	-4.138	3.598
143	1	4	-0.16663399	-5.5110002	-3.9489999	3.517
144	1	4	-0.074305996	-6.0240002	-3.0179999	4.645
145	1	4	-0.16663399	-5.177	-3.132	5.9429998
146	1	4	-0.16663399	-4.5349998	-4.5159998	6.0939999
147	1	7	0.092412002	-4.0019999	-4.5689998	7.0669999
148	1	7	0.092412002	-5.3449998	-5.277	6.1360002
149	1	7	0.092412002	-5.789	-2.9119999	6.8439999
150	1	7	0.092412002	-4.3670001	-2.3699999	5.9180002
151	1	4	0.089106001	-7.5180001	-3.2850001	4.9130001
152	1	8	-0.488718	-8.0539999	-2.316	5.7750001
153	1	6	0.094182998	-7.6430001	-4.2849998	5.381
154	1	6	0.094182998	-8.0860004	-3.29	3.954
155	1	7	0.083646998	-5.9320002	-1.97	4.2789998
156	1	7	0.092412002	-5.777	-3.5150001	2.529
157	1	7	0.092412002	-5.994	-4.9499998	3.5829999
158	1	7	0.092412002	-3.6489999	-4.7379999	2.727
159	1	7	0.092412002	-3.5109999	-3.138	3.526
160	1	7	0.083646998	-3.652	-5.948	4.73
161	1	6	0.094182998	-2.0220001	-3.4619999	5.5440001
162	1	6	0.094182998	-1.469	-4.6900001	4.3579998
163	1	1	-0.62943399	-9.3850002	-10.324	5.46
164	1	2	0.77752799	-8.7959995	-9.2279997	5.658
165	1	3	-0.45409599	-7.513	-9.1890001	6.2880001
166	1	4	0.017871	-6.842	-10.411	6.7360001
167	1	4	-0.079746	-5.4460001	-10.111	7.3189998
168	1	4	-0.18182699	-4.4910002	-9.5290003	6.2410002
169	1	4	-0.079746	-2.99	-9.7799997	6.5479999
170	1	4	0.017871	-2.072	-8.7340002	5.8790002
171	1	3	-0.45409599	-2.266	-7.381	6.4060001
172	1	2	0.77752799	-1.498	-6.2750001	5.9229999
173	1	1	-0.62943298	-0.625	-6.4369998	5.0300002
174	1	5	0.31996101	-2.9790001	-7.1849999	7.1430001
175	1	6	0.064168997	-2.267	-8.7299995	4.7839999
176	1	6	0.064168997	-1.012	-9.0340004	6.0300002
177	1	4	-0.174652	-2.7290001	-9.9049997	8.0620003
178	1	4	-0.134738	-3.5079999	-11.088	8.6689997
179	1	4	-0.174652	-4.8449998	-11.379	7.9559999
180	1	7	0.092868999	-5.5560002	-11.813	8.6920004
181	1	7	0.092868999	-4.6799998	-12.141	7.1620002
182	1	7	0.082393996	-3.7019999	-10.872	9.7419996
183	1	7	0.082393996	-2.878	-12.004	8.6280003
184	1	7	0.092868999	-1.643	-10.049	8.2530003
185	1	7	0.092868999	-3.04	-8.9720001	8.5790005
186	1	7	0.076116003	-2.72	-10.761	6.0960002
187	1	7	0.098442003	-4.6950002	-8.4420004	6.1469998
188	1	7	0.098442003	-4.7140002	-9.9790001	5.2480001
189	1	7	0.076116003	-5.5689998	-9.3559999	8.1289997
190	1	6	0.064168997	-6.7480001	-11.117	5.882
191	1	6	0.064168997	-7.473	-10.894	7.5139999
192	1	5	0.31996101	-7.0739999	-8.2539997	6.4400001
193	1	8	-0.488718	-5.3179998	-2.5780001	4.1269999
194	1	4	0.089106001	-4.9910002	-3.6359999	4.9879999
195	1	4	-0.074305996	-6.2309999	-4.1149998	5.7670002
196	1	4	-0.16663399	-5.8109999	-5.1149998	6.8740001
197	1	4	-0.16663399	-6.9770002	-6.0229998	7.277
198	1	4	-0.074305996	-7.4299998	-6.9169998	6.0939999
199	1	4	-0.16663399	-7.2329998	-6.2259998	4.7160001
200	1	4	-0.16663399	-7.316	-4.698	4.8179998
201	1	7	0.092412002	-7.2410002	-4.2579999	3.8010001
202	1	7	0.092412002	-8.323	-4.427	5.2059999
203	1	7	0.092412002	-7.98	-6.585	3.9749999
204	1	7	0.092412002	-6.2319999	-6.4970002	4.3119998
205	1	4	0.089106001	-8.8889999	-7.3699999	6.302
206	1	8	-0.488718	-9.25	-8.3439999	5.3600001
207	1	6	0.094182998	-9.5719995	-6.5	6.1929998
208	1	6	0.094182998	-9.0229998	-7.7750001	7.3309999
209	1	7	0.083646998	-6.7919998	-7.829	6.1030002
210	1	7	0.092412002	-6.6669998	-6.6659999	8.1289997
211	1	7	0.092412002	-7.816	-5.382	7.6300001
212	1	7	0.092412002	-5.4559999	-4.553	7.7649999
213	1	7	0.092412002	-4.9699998	-5.756	6.527
214	1	7	0.083646998	-6.6739998	-3.2260001	6.2709999
215	1	6	0.094182998	-4.5799999	-4.473	4.3829999
216	1	6	0.094182998	-4.1939998	-3.3110001	5.6960001
217	1	1	-0.62943399	-13.537	-2.1110001	8.3210001
218	1	2	0.77752799	-12.665	-2.7460001	7.6700001
219	1	3	-0.45409599	-11.799	-2.0710001	6.7540002
220	1	4	0.017871	-11.899	-0.62800002	6.527
221	1	4	-0.079746	-10.815	-0.131	5.5479999
222	1	4	-0.18182699	-9.3879995	-0.324	6.1329999
223	1	4	-0.079746	-8.3430004	0.66100001	5.5430002
224	1	4	0.017871	-6.9039998	0.106	5.6240001
225	1	3	-0.45409599	-6.7020001	-1.0829999	4.7919998
226	1	2	0.77752799	-5.4310002	-1.735	4.7210002
227	1	1	-0.62943298	-4.4439998	-1.299	5.3720002
228	1	5	0.31996101	-7.4840002	-1.492	4.2350001
229	1	6	0.064168997	-6.6729999	-0.146	6.6820002
230	1	6	0.064168997	-6.1929998	0.89899999	5.3039999
231	1	4	-0.174652	-8.7200003	1.108	4.1170001
232	1	4	-0.134738	-10.076	1.84	4.099
233	1	4	-0.174652	-11.06	1.345	5.1799998
234	1	7	0.092868999	-12.098	1.48	4.8060002
235	1	7	0.092868999	-10.949	1.972	6.092
236	1	7	0.082393996	-10.535	1.71	3.0940001
237	1	7	0.082393996	-9.908	2.9300001	4.244
238	1	7	0.092868999	-7.9369998	1.784	3.7090001
239	1	7	0.092868999	-8.783	0.22400001	3.447
240	1	7	0.076116003	-8.3570004	1.576	6.1789999
241	1	7	0.098442003	-9.0799999	-1.375	5.954
242	1	7	0.098442003	-9.4029999	-0.183	7.2360001
243	1	7	0.076116003	-10.899	-0.72899997	4.612
244	1	6	0.064168997	-11.803	-0.093000002	7.4970002
245	1	6	0.064168997	-12.905	-0.40599999	6.1090002
246	1	5	0.31996101	-11.102	-2.6459999	6.23
247	1	8	-0.488718	-6.4720001	-7.0289998	6.2659998
248	1	4	0.089106001	-6.9400001	-5.835	5.697
249	1	4	-0.074305996	-8.4569998	-5.9109998	5.4320002
250	1	4	-0.16663399	-8.9119997	-4.6869998	4.5949998
251	1	4	-0.16663399	-10.407	-4.4089999	4.783
252	1	4	-0.074305996	-10.729	-4.0219998	6.2490001
253	1	4	-0.16663399	-9.7849998	-4.7179999	7.27
254	1	4	-0.16663399	-9.2650003	-6.0640001	6.75
255	1	7	0.092412002	-8.6560001	-6.552	7.5419998
256	1	7	0.092412002	-10.137	-6.7309999	6.5679998
257	1	7	0.092412002	-10.292	-4.8730001	8.2460003
258	1	7	0.092412002	-8.9119997	-4.0580001	7.4679999
259	1	4	0.089106001	-12.212	-4.3060002	6.5580001
260	1	8	-0.488718	-12.576	-3.7709999	7.802
261	1	6	0.094182998	-12.389	-5.4029999	6.5770001
262	1	6	0.094182998	-12.86	-3.8759999	5.7600002
263	1	7	0.083646998	-10.571	-2.924	6.3460002
264	1	7	0.092412002	-10.716	-3.5840001	4.105
265	1	7	0.092412002	-10.974	-5.3189998	4.4819999
266	1	7	0.092412002	-8.7040005	-4.8759999	3.5190001
267	1	7	0.092412002	-8.3459997	-3.776	4.8899999
268	1	7	0.083646998	-8.6440001	-6.8210001	4.8189998
269	1	6	0.094182998	-6.7220001	-4.9990001	6.395
270	1	6	0.094182998	-6.3940001	-5.631	4.7480001
271	1	1	-0.62943399	-14.677	-10.812	4.336
272	1	2	0.77752799	-13.973	-9.934	4.901
273	1	3	-0.45409599	-12.641	-10.228	5.3309999
274	1	4	0.017871	-12.051	-11.554	5.145
275	1	4	-0.079746	-10.587	-11.598	5.6290002
276	1	4	-0.18182699	-9.6800003	-10.66	4.7859998
277	1	4	-0.079746	-8.1879997	-11.089	4.7789998
278	1	4	0.017871	-7.2389998	-9.9040003	4.5019999
279	1	3	-0.45409599	-7.2579999	-8.8950005	5.5650001
280	1	2	0.77752799	-6.434	-7.7280002	5.5
281	1	1	-0.62943298	-5.6620002	-7.5359998	4.5229998
282	1	5	0.31996101	-7.881	-8.9980001	6.3959999
283	1	6	0.064168997	-7.5279999	-9.4250002	3.5409999
284	1	6	0.064168997	-6.2020001	-10.29	4.3870001
285	1	4	-0.174652	-7.809	-11.858	6.059
286	1	4	-0.134738	-8.6389999	-13.149	6.2049999
287	1	4	-0.174652	-10.055	-13.044	5.6009998
288	1	7	0.092868999	-10.736	-13.715	6.1680002
289	1	7	0.092868999	-10.032	-13.403	4.5479999
290	1	7	0.082393996	-8.7159996	-13.4	7.2859998
291	1	7	0.082393996	-8.1029997	-13.989	5.711
292	1	7	0.092868999	-6.7280002	-12.122	6.0409999
293	1	7	0.092868999	-7.9829998	-11.22	6.9510002
294	1	7	0.076116003	-8.052	-11.797	3.9289999
295	1	7	0.098442003	-9.7880001	-9.6280003	5.1799998
296	1	7	0.098442003	-10.031	-10.634	3.73
297	1	7	0.076116003	-10.567	-11.254	6.6880002
298	1	6	0.064168997	-12.1	-11.835	4.0700002
299	1	6	0.064168997	-12.653	-12.291	5.7199998
300	1	5	0.31996101	-12.104	-9.4680004	5.8060002
301	1	8	-0.488718	-10.032	-3.438	5.881
302	1	4	0.089106001	-9.7320004	-4.776	6.1760001
303	1	4	-0.074305996	-10.939	-5.4809999	6.8260002
304	1	4	-0.16663399	-10.519	-6.8759999	7.3559999
305	1	4	-0.16663399	-11.724	-7.8119998	7.48
306	1	4	-0.074305996	-12.362	-8.0950003	6.0949998
307	1	4	-0.16663399	-12.223	-6.895	5.118
308	1	4	-0.16663399	-12.153	-5.553	5.8579998
309	1	7	0.092412002	-12.126	-4.7259998	5.1160002
310	1	7	0.092412002	-13.091	-5.4239998	6.441
311	1	7	0.092412002	-13.062	-6.868	4.3899999
312	1	7	0.092412002	-11.292	-7.0159998	4.5219998
313	1	4	0.089106001	-13.833	-8.5229998	6.2680001
314	1	8	-0.488718	-14.365	-8.9860001	5.0560002
315	1	6	0.094182998	-14.438	-7.658	6.6149998
316	1	6	0.094182998	-13.913	-9.3199997	7.0419998
317	1	7	0.083646998	-11.815	-8.9540005	5.6459999
318	1	7	0.092412002	-11.402	-8.7700005	7.9419999
319	1	7	0.092412002	-12.465	-7.342	8.165
320	1	7	0.092412002	-10.035	-6.7639999	8.3509998
321	1	7	0.092412002	-9.776	-7.348	6.6750002
322	1	7	0.083646998	-11.249	-4.8709998	7.704
323	1	6	0.094182998	-9.4560003	-5.296	5.2329998
324	1	6	0.094182998	-8.849	-4.823	6.8540001
325	1	1	-0.62943399	-17.77	-4.4050002	10.837
326	1	2	0.77752799	-17.021999	-4.744	9.882
327	1	3	-0.45409599	-16.181	-3.786	9.2340002
328	1	4	0.017871	-16.163	-2.381	9.6440001
329	1	4	-0.079746	-15.128	-1.567	8.8400002
330	1	4	-0.18182699	-13.68	-2.059	9.1160002
331	1	4	-0.079746	-12.603	-0.96799999	8.8699999
332	1	4	0.017871	-11.221	-1.573	8.54
333	1	3	-0.45409599	-11.205	-2.3039999	7.27
334	1	2	0.77752799	-10.013	-2.924	6.7820001
335	1	1	-0.62943298	-8.9359999	-2.8540001	7.4320002
336	1	5	0.31996101	-12.069	-2.3989999	6.691
337	1	6	0.064168997	-10.923	-2.2620001	9.3599997
338	1	6	0.064168997	-10.469	-0.755	8.4969997
339	1	4	-0.174652	-13.06	0.059999999	7.8179998
340	1	4	-0.134738	-14.338	0.79500002	8.2690001
341	1	4	-0.174652	-15.265	-0.064999998	9.1529999
342	1	7	0.092868999	-16.315001	0.266	8.9969997
343	1	7	0.092868999	-15.015	0.109	10.224
344	1	7	0.082393996	-14.894	1.127	7.3639998
345	1	7	0.082393996	-14.056	1.71	8.8339996
346	1	7	0.092868999	-12.256	0.80800003	7.638
347	1	7	0.092868999	-13.264	-0.44999999	6.8520002
348	1	7	0.076116003	-12.474	-0.41	9.8260002
349	1	7	0.098442003	-13.489	-2.948	8.4790001
350	1	7	0.098442003	-13.585	-2.3989999	10.171
351	1	7	0.076116003	-15.351	-1.706	7.757
352	1	6	0.064168997	-15.933	-2.313	10.73
353	1	6	0.064168997	-17.177	-1.954	9.4799995
354	1	5	0.31996101	-15.589	-4.1160002	8.4390001
355	1	8	-0.488718	-11.407	-8.3149996	6.0890002
356	1	4	0.089106001	-11.81	-6.9720001	6.131
357	1	4	-0.074305996	-13.344	-6.855	6.0409999
358	1	4	-0.16663399	-13.754	-5.3720002	5.8530002
359	1	4	-0.16663399	-15.193	-5.1279998	6.316
360	1	4	-0.074305996	-15.347	-5.3860002	7.8369999
361	1	4	-0.16663399	-14.387	-6.494	8.3529997
362	1	4	-0.16663399	-14.044	-7.5159998	7.2620001
363	1	7	0.092412002	-13.415	-8.3219995	7.6989999
364	1	7	0.092412002	-14.987	-7.9980001	6.9239998
365	1	7	0.092412002	-14.818	-7.0250001	9.2290001
366	1	7	0.092412002	-13.442	-6.0240002	8.7030001
367	1	4	0.089106001	-16.816999	-5.7030001	8.1739998
368	1	8	-0.488718	-17.018	-5.7309999	9.5620003
369	1	6	0.094182998	-17.094	-6.6939998	7.7550001
370	1	6	0.094182998	-17.49	-4.9439998	7.7119999
371	1	7	0.083646998	-15.079	-4.4429998	8.3640003
372	1	7	0.092412002	-15.482	-4.0799999	6.0869999
373	1	7	0.092412002	-15.868	-5.796	5.7340002
374	1	7	0.092412002	-13.66	-5.0949998	4.7800002
375	1	7	0.092412002	-13.08	-4.6999998	6.4310002
376	1	7	0.083646998	-13.669	-7.4089999	5.132
377	1	6	0.094182998	-11.453	-6.5229998	7.0830002
378	1	6	0.094182998	-11.332	-6.4099998	5.2950001
379	1	1	-0.62943399	-20.07	-10.52	3.7520001
380	1	2	0.77752799	-19.239	-10	4.5440001
381	1	3	-0.45409599	-17.908001	-10.513	4.6500001
382	1	4	0.017871	-17.464001	-11.661	3.858
383	1	4	-0.079746	-15.974	-11.977	4.0999999
384	1	4	-0.18182699	-15.061	-10.814	3.6229999
385	1	4	-0.079746	-13.622	-11.271	3.26
386	1	4	0.017871	-12.593	-10.127	3.392
387	1	3	-0.45409599	-12.424	-9.6669998	4.7729998
388	1	2	0.77752799	-11.503	-8.6239996	5.1030002
389	1	1	-0.62943298	-10.805	-8.0719995	4.211
390	1	5	0.31996101	-12.979	-10.083	5.553
391	1	6	0.064168997	-12.92	-9.2720003	2.76
392	1	6	0.064168997	-11.612	-10.477	3.003
393	1	4	-0.174652	-13.205	-12.529	4.0469999
394	1	4	-0.134738	-14.137	-13.717	3.7390001
395	1	4	-0.174652	-15.585	-13.298	3.408
396	1	7	0.092868999	-16.273001	-14.113	3.72
397	1	7	0.092868999	-15.689	-13.176	2.3069999
398	1	7	0.082393996	-14.143	-14.4	4.6170001
399	1	7	0.082393996	-13.729	-14.292	2.8789999
400	1	7	0.092868999	-12.161	-12.811	3.7909999
401	1	7	0.092868999	-13.24	-12.322	5.138
402	1	7	0.076116003	-13.629	-11.556	2.1830001
403	1	7	0.098442003	-15.036	-10.044	4.4219999
404	1	7	0.098442003	-15.499	-10.325	2.7260001
405	1	7	0.076116003	-15.829	-12.118	5.1960001
406	1	6	0.064168997	-17.632999	-11.456	2.7780001
407	1	6	0.064168997	-18.08	-12.543	4.1399999
408	1	5	0.31996101	-17.261999	-10.054	5.3299999
409	1	8	-0.150132	-14.634	-4.7360001	7.6659999
410	1	4	0.016280999	-14.436	-6.085	7.3369999
411	1	4	-0.073513001	-15.642	-6.9400001	7.7729998
412	1	4	-0.165372	-15.31	-8.4469995	7.619
413	1	4	-0.165792	-16.583	-9.2869997	7.4829998
414	1	4	-0.074305996	-17.364	-8.9239998	6.1939998
415	1	4	-0.165792	-17.198999	-7.4299998	5.7979999
416	1	4	-0.165372	-16.938	-6.5349998	7.0170002
417	1	7	0.093042001	-16.899	-5.474	6.6900001
418	1	7	0.093042001	-17.805	-6.6209998	7.7080002
419	1	7	0.092412002	-18.093	-7.0560002	5.2540002
420	1	7	0.092412002	-16.339001	-7.3309999	5.0999999
421	1	4	0.089106001	-18.848	-9.3129997	6.3470001
422	1	8	-0.488718	-19.525999	-9.191	5.125
423	1	6	0.094182998	-19.334999	-8.6499996	7.0929999
424	1	6	0.094182998	-18.934	-10.359	6.7220001
425	1	7	0.083646998	-16.941	-9.5360003	5.3660002
426	1	7	0.092412002	-16.313	-10.365	7.4619999
427	1	7	0.092412002	-17.212999	-9.118	8.3859997
428	1	7	0.093042001	-14.732	-8.7910004	8.5039997
429	1	7	0.093042001	-14.677	-8.6199999	6.7189999
430	1	7	0.086554997	-15.815	-6.7470002	8.8559999
431	1	6	0.094066001	-14.295	-6.1659999	6.2379999
432	1	6	0.094066001	-13.505	-6.4569998	7.8239999
433	1	1	-0.70667398	4.2709999	-2.849	0.68800002
434	1	2	0.53908199	4.5009999	-1.87	1.446
435	1	3	-0.49914899	5.1539998	-2.056	2.7049999
436	1	4	0.021245999	5.566	-3.382	3.1659999
437	1	4	-0.080114	6.3150001	-3.309	4.513
438	1	4	-0.174652	7.691	-2.6259999	4.348
439	1	4	-0.13484301	8.448	-2.5780001	5.6810002
440	1	4	-0.17035501	8.6210003	-3.984	6.2659998
441	1	4	-0.056281	7.256	-4.678	6.441
442	1	4	-0.177518	6.494	-4.7249999	5.0999999
443	1	7	0.098837003	5.494	-5.1810002	5.2670002
444	1	7	0.098837003	7.0440001	-5.3610001	4.3709998
445	1	4	0.166816	7.4120002	-6.0819998	7.0539999
446	1	3	-0.64773297	8.1730003	-6.9650002	6.1719999
447	1	9	0.597588	9.2559996	-7.5180001	6.5450001
448	1	1	-0.496874	10.31	-8.0550003	6.908
449	1	6	0.058081999	6.4060001	-6.5250001	7.217
450	1	6	0.058081999	7.9000001	-5.9959998	8.052
451	1	7	0.079621002	6.6529999	-4.0760002	7.158
452	1	7	0.093252003	9.2749996	-4.579	5.592
453	1	7	0.093252003	9.1280003	-3.902	7.2519999
454	1	7	0.082393996	9.448	-2.1229999	5.5180001
455	1	7	0.082393996	7.895	-1.937	6.4029999
456	1	7	0.092868999	8.302	-3.1760001	3.599
457	1	7	0.092868999	7.5599999	-1.585	3.9809999
458	1	7	0.076116003	5.698	-2.714	5.224
459	1	6	0.058775	4.6570001	-4.0120001	3.2809999
460	1	6	0.058775	6.2179999	-3.8559999	2.3989999
461	1	5	0.312177	5.3070002	-1.212	3.303
462	1	8	-0.150132	-14.493	-4.658	8.6459999
463	1	4	0.016280999	-15.446	-3.743	9.118
464	1	4	-0.073513001	-16.846001	-4.3860002	9.1750002
465	1	4	-0.16458599	-17.917	-3.3039999	9.4700003
466	1	4	-0.15752301	-19.176001	-3.921	10.085
467	1	4	-0.114947	-18.875999	-4.5599999	11.464
468	1	4	-0.15752301	-17.431999	-5.1290002	11.556
469	1	4	-0.16458599	-16.896	-5.5650001	10.187
470	1	7	0.093042001	-15.894	-6.0279999	10.316
471	1	7	0.093042001	-17.562	-6.3610001	9.7860003
472	1	7	0.093042001	-17.381001	-5.987	12.26
473	1	7	0.093042001	-16.757	-4.3449998	11.964
474	1	4	0.078438997	-19.933001	-5.632	11.793
475	1	10	-0.674312	-19.806	-6.0710001	13.119
476	1	11	0.37702101	-20.177	-5.3520002	13.694
477	1	6	0.082514003	-19.808001	-6.5040002	11.115
478	1	6	0.082514003	-20.958	-5.2249999	11.628
479	1	7	0.090193003	-18.965	-3.756	12.23
480	1	7	0.093042001	-19.952999	-3.1340001	10.202
481	1	7	0.093042001	-19.576	-4.6820002	9.3769999
482	1	7	0.093042001	-18.184	-2.7809999	8.526
483	1	7	0.093042001	-17.52	-2.539	10.175
484	1	7	0.086554997	-17.063	-4.8039999	8.1660004
485	1	6	0.094066001	-15.145	-3.4059999	10.133
486	1	6	0.094066001	-15.463	-2.8440001	8.4580002

Bonds

1	1	1	2
2	2	2	3
3	3	2	44
4	4	3	4
5	5	3	30
6	6	4	5
7	7	4	28
8	7	4	29
9	6	5	6
10	7	5	27
11	6	5	17
12	6	6	7
13	7	6	25
14	7	6	26
15	6	7	8
16	6	7	15
17	7	7	24
18	4	8	9
19	7	8	13
20	7	8	14
21	2	9	10
22	5	9	12
23	1	10	11
24	8	10	434
25	6	15	16
26	7	15	22
27	7	15	23
28	6	16	17
29	7	16	20
30	7	16	21
31	7	17	18
32	7	17	19
33	9	31	32
34	3	31	64
35	6	32	33
36	7	32	53
37	7	32	54
38	6	33	34
39	7	33	52
40	6	33	38
41	6	34	35
42	7	34	50
43	7	34	51
44	6	35	36
45	7	35	48
46	7	35	49
47	6	36	37
48	6	36	43
49	7	36	47
50	6	37	38
51	7	37	41
52	7	37	42
53	7	38	39
54	7	38	40
55	9	43	44
56	7	43	45
57	7	43	46
58	1	55	56
59	2	56	57
60	3	56	98
61	4	57	58
62	5	57	84
63	6	58	59
64	7	58	82
65	7	58	83
66	6	59	60
67	7	59	81
68	6	59	71
69	6	60	61
70	7	60	79
71	7	60	80
72	6	61	62
73	6	61	69
74	7	61	78
75	4	62	63
76	7	62	67
77	7	62	68
78	2	63	64
79	5	63	66
80	1	64	65
81	6	69	70
82	7	69	76
83	7	69	77
84	6	70	71
85	7	70	74
86	7	70	75
87	7	71	72
88	7	71	73
89	9	85	86
90	3	85	118
91	6	86	87
92	7	86	107
93	7	86	108
94	6	87	88
95	7	87	106
96	6	87	92
97	6	88	89
98	7	88	104
99	7	88	105
100	6	89	90
101	7	89	102
102	7	89	103
103	6	90	91
104	6	90	97
105	7	90	101
106	6	91	92
107	7	91	95
108	7	91	96
109	7	92	93
110	7	92	94
111	9	97	98
112	7	97	99
113	7	97	100
114	1	109	110
115	2	110	111
116	3	110	152
117	4	111	112
118	5	111	138
119	6	112	113
120	7	112	136
121	7	112	137
122	6	113	114
123	7	113	135
124	6	113	125
125	6	114	115
126	7	114	133
127	7	114	134
128	6	115	116
129	6	115	123
130	7	115	132
131	4	116	117
132	7	116	121
133	7	116	122
134	2	117	118
135	5	117	120
136	1	118	119
137	6	123	124
138	7	123	130
139	7	123	131
140	6	124	125
141	7	124	128
142	7	124	129
143	7	125	126
144	7	125	127
145	9	139	140
146	3	139	172
147	6	140	141
148	7	140	161
149	7	140	162
150	6	141	142
151	7	141	160
152	6	141	146
153	6	142	143
154	7	142	158
155	7	142	159
156	6	143	144
157	7	143	156
158	7	143	157
159	6	144	145
160	6	144	151
161	7	144	155
162	6	145	146
163	7	145	149
164	7	145	150
165	7	146	147
166	7	146	148
167	9	151	152
168	7	151	153
169	7	151	154
170	1	163	164
171	2	164	165
172	3	164	206
173	4	165	166
174	5	165	192
175	6	166	167
176	7	166	190
177	7	166	191
178	6	167	168
179	7	167	189
180	6	167	179
181	6	168	169
182	7	168	187
183	7	168	188
184	6	169	170
185	6	169	177
186	7	169	186
187	4	170	171
188	7	170	175
189	7	170	176
190	2	171	172
191	5	171	174
192	1	172	173
193	6	177	178
194	7	177	184
195	7	177	185
196	6	178	179
197	7	178	182
198	7	178	183
199	7	179	180
200	7	179	181
201	9	193	194
202	3	193	226
203	6	194	195
204	7	194	215
205	7	194	216
206	6	195	196
207	7	195	214
208	6	195	200
209	6	196	197
210	7	196	212
211	7	196	213
212	6	197	198
213	7	197	210
214	7	197	211
215	6	198	199
216	6	198	205
217	7	198	209
218	6	199	200
219	7	199	203
220	7	199	204
221	7	200	201
222	7	200	202
223	9	205	206
224	7	205	207
225	7	205	208
226	1	217	218
227	2	218	219
228	3	218	260
229	4	219	220
230	5	219	246
231	6	220	221
232	7	220	244
233	7	220	245
234	6	221	222
235	7	221	243
236	6	221	233
237	6	222	223
238	7	222	241
239	7	222	242
240	6	223	224
241	6	223	231
242	7	223	240
243	4	224	225
244	7	224	229
245	7	224	230
246	2	225	226
247	5	225	228
248	1	226	227
249	6	231	232
250	7	231	238
251	7	231	239
252	6	232	233
253	7	232	236
254	7	232	237
255	7	233	234
256	7	233	235
257	9	247	248
258	3	247	280
259	6	248	249
260	7	248	269
261	7	248	270
262	6	249	250
263	7	249	268
264	6	249	254
265	6	250	251
266	7	250	266
267	7	250	267
268	6	251	252
269	7	251	264
270	7	251	265
271	6	252	253
272	6	252	259
273	7	252	263
274	6	253	254
275	7	253	257
276	7	253	258
277	7	254	255
278	7	254	256
279	9	259	260
280	7	259	261
281	7	259	262
282	1	271	272
283	2	272	273
284	3	272	314
285	4	273	274
286	5	273	300
287	6	274	275
288	7	274	298
289	7	274	299
290	6	275	276
291	7	275	297
292	6	275	287
293	6	276	277
294	7	276	295
295	7	276	296
296	6	277	278
297	6	277	285
298	7	277	294
299	4	278	279
300	7	278	283
301	7	278	284
302	2	279	280
303	5	279	282
304	1	280	281
305	6	285	286
306	7	285	292
307	7	285	293
308	6	286	287
309	7	286	290
310	7	286	291
311	7	287	288
312	7	287	289
313	9	301	302
314	3	301	334
315	6	302	303
316	7	302	323
317	7	302	324
318	6	303	304
319	7	303	322
320	6	303	308
321	6	304	305
322	7	304	320
323	7	304	321
324	6	305	306
325	7	305	318
326	7	305	319
327	6	306	307
328	6	306	313
329	7	306	317
330	6	307	308
331	7	307	311
332	7	307	312
333	7	308	309
334	7	308	310
335	9	313	314
336	7	313	315
337	7	313	316
338	1	325	326
339	2	326	327
340	3	326	368
341	4	327	328
342	5	327	354
343	6	328	329
344	7	328	352
345	7	328	353
346	6	329	330
347	7	329	351
348	6	329	341
349	6	330	331
350	7	330	349