Title

129 atoms
128 bonds
245 angles
431 dihedrals
12 impropers

8 atom types
11 bond types
5 angle types
27 dihedral types
2 improper types
-19.92200089 80.07799911 xlo xhi
-1.297000051 98.70299995 ylo yhi
-8.510000229 91.48999977 zlo zhi
0.0 0.0 0.0 xy xz yz

Masses

1	15.99943
2	12.01078
3	1.007947
4	1.007947
5	12.01078
6	15.99943
7	15.99943
8	1.007947


Pair Coeffs

1	0.16846514	3.0251065
2	0.10884061	3.3795318
3	0.016409246	2.5832257
4	0.015779483	2.6445434
5	0.086879315	3.4806469
6	0.2102061	3.0398122
7	0.20947353	2.99716
8	1.2326e-05	0.53453923

Bond Coeffs

1 harmonic	366.7408841747	1.425895053732
2 harmonic	300.03137914615	1.451203938761
3 harmonic	264.62148576755	1.52190126495
4 harmonic	370.04670688625	1.093899492634
5 harmonic	301.15400723785	1.345741232799
6 harmonic	582.698766451	1.225198386222
7 harmonic	329.44145381095	1.523435958334
8 harmonic	279.1350963404	1.454628925034
9 harmonic	329.96998057905	1.427343958716
10 harmonic	543.5267831885	0.9716763312559
11 harmonic	385.7604595587	1.369745182308


Angle Coeffs

1 harmonic	53.20531626545	116.5475862634
2 harmonic	65.09061609600001	110.3538806181
3 harmonic	201.41175231035	127.4691416191
4 harmonic	57.8982893754	126.8062420451
5 harmonic	48.776492647595	115.6030999533


Dihedral Coeffs

1 fourier 1	0.1155372516788	3	0
2 fourier 1	0.1115525666802	3	0
3 fourier 1	0.3432490222662	1	0
4 fourier 1	0.0473758381877	3	0
5 fourier 1	0.457973137376	1	0
6 fourier 1	0.1040663847541	3	0
7 fourier 1	0.1918272375143	3	0
8 fourier 1	0.9202179876409	1	180
9 fourier 1	1.163809172478	2	180
10 fourier 1	0.1679186987369	1	180
11 fourier 1	2.779853741805	2	180
12 fourier 1	0.02664938770063	3	0
13 fourier 1	0.1911926717192	3	0
14 fourier 1	-0.3703352413219	2	0
15 fourier 1	0.4541676554336	1	0
16 fourier 1	0.1489710476446	2	0
17 fourier 1	0.02960027280666	3	180
18 fourier 1	0.09223874044423	3	0
19 fourier 1	0.3159935921949	2	180
20 fourier 1	0.3247796806857	1	180
21 fourier 1	0.9974165607242	2	180
22 fourier 1	0.3445382149273	3	0
23 fourier 1	0.1364556373303	1	0
24 fourier 1	0.3026390167484	3	0
25 fourier 1	2.687457892086	2	180
26 fourier 1	2.772607909663	2	180
27 fourier 1	0.09692684957115	1	0


Improper Coeffs

1 3.5	-1	2
2 0.3666666666666667	-1	2


Atoms

1	1	1	-0.18686	-1.834	0.66500002	-0.51800001
2	1	2	0.038697999	-1.288	-0.54500002	-0.064999998
3	1	2	-0.137413	0.113	-0.331	0.51700002
4	1	2	0.143718	1.099	0.17299999	-0.54100001
5	1	1	-0.49729699	2.3800001	0.29899999	0.012
6	1	3	0.074413002	0.76099998	1.15	-0.95499998
7	1	3	0.074413002	1.149	-0.55599999	-1.378
8	1	4	0.087517001	0.48199999	-1.2970001	0.926
9	1	4	0.087517001	0.057	0.39899999	1.354
10	1	3	0.076398	-1.949	-0.99699998	0.70999998
11	1	3	0.076398	-1.2359999	-1.258	-0.91600001
12	1	5	0.75929701	2.3710001	1.163	0.58899999
13	1	6	-0.567505	1.571	1.268	1.505
14	1	2	-0.210039	3.349	2.2650001	0.30199999
15	1	2	-0.11675	2.6489999	3.556	-0.14300001
16	1	2	-0.137418	1.972	3.4059999	-1.513
17	1	2	-0.142757	1.323	4.723	-1.954
18	1	2	-0.142858	0.63200003	4.566	-3.3169999
19	1	2	-0.142858	0.089000002	5.8959999	-3.865
20	1	2	-0.142858	-1.145	6.3940001	-3.0929999
21	1	2	-0.142858	-1.732	7.684	-3.6889999
22	1	2	-0.142858	-2.5969999	7.4169998	-4.9330001
23	1	2	-0.142858	-3.076	8.71	-5.619
24	1	2	-0.142858	-3.9649999	9.6210003	-4.7519999
25	1	2	-0.142858	-5.2729998	8.941	-4.3150001
26	1	2	-0.142757	-6.2150002	9.8909998	-3.556
27	1	2	-0.14006899	-6.8390002	11.012	-4.4120002
28	1	2	-0.098384	-7.7589998	10.496	-5.5409999
29	1	2	-0.25892699	-7.1009998	10.546	-6.9289999
30	1	5	0.51491398	-6.9250002	11.954	-7.4229999
31	1	6	-0.705733	-6.4099998	12.157	-8.5100002
32	1	4	0.110983	-7.7490001	10.002	-7.6490002
33	1	4	0.110983	-6.1149998	10.04	-6.9120002
34	1	4	0.073864996	-8.085	9.4540005	-5.3309999
35	1	4	0.073864996	-8.6870003	11.11	-5.566
36	1	4	0.075515002	-7.4559999	11.634	-3.7279999
37	1	4	0.075515002	-6.0510001	11.689	-4.8010001
38	1	4	0.077381998	-7.0359998	9.29	-3.1070001
39	1	4	0.077381998	-5.6589999	10.354	-2.7119999
40	1	4	0.077381998	-5.7940001	8.4949999	-5.1880002
41	1	4	0.077381998	-5.027	8.1079998	-3.6229999
42	1	4	0.077381998	-3.404	9.9750004	-3.862
43	1	4	0.077381998	-4.198	10.518	-5.3629999
44	1	4	0.077381998	-2.187	9.2919998	-5.9460001
45	1	4	0.077381998	-3.638	8.434	-6.5380001
46	1	4	0.077381998	-3.4649999	6.7789998	-4.664
47	1	4	0.077381998	-2.0050001	6.8509998	-5.6820002
48	1	4	0.077381998	-2.3659999	8.1540003	-2.908
49	1	4	0.077381998	-0.91299999	8.3950005	-3.9349999
50	1	4	0.077381998	-0.84899998	6.6139998	-2.0450001
51	1	4	0.077381998	-1.926	5.6020002	-3.063
52	1	4	0.077381998	-0.18099999	5.7329998	-4.9289999
53	1	4	0.077381998	0.889	6.6680002	-3.8380001
54	1	4	0.077381998	-0.19400001	3.825	-3.24
55	1	4	0.077381998	1.3710001	4.171	-4.0489998
56	1	4	0.077381998	0.57700002	5.0279999	-1.189
57	1	4	0.077381998	2.1040001	5.5110002	-2.023
58	1	4	0.075515002	1.191	2.6159999	-1.4579999
59	1	4	0.075515002	2.7309999	3.099	-2.266
60	1	4	0.082589999	1.898	3.858	0.62099999
61	1	4	0.082589999	3.4130001	4.362	-0.20299999
62	1	4	0.113884	3.937	2.4679999	1.223
63	1	4	0.113884	4.0599999	1.933	-0.48500001
64	1	1	-0.186149	-2.105	1.174	0.28999999
65	1	2	0.047107998	-1.397	2.3840001	0.25799999
66	1	2	-0.172668	0.071999997	2.1700001	0.639
67	1	2	0.093883999	0.22	1.666	2.0780001
68	1	7	-0.68798101	1.576	1.54	2.4100001
69	1	8	0.374156	1.901	0.71399999	1.965
70	1	3	0.068061002	-0.29899999	0.68800002	2.2049999
71	1	3	0.068061002	-0.24600001	2.395	2.776
72	1	4	0.091278002	0.61299998	3.135	0.53500003
73	1	4	0.091278002	0.53299999	1.4400001	-0.061999999
74	1	3	0.076232001	-1.456	2.836	-0.75800002
75	1	3	0.076232001	-1.868	3.0969999	0.96799999
76	1	5	0.51491398	-7.2490001	12.799	-6.8239999
77	1	6	-0.705733	-6.882	12.892	-5.664
78	1	2	-0.25892699	-8.1409998	13.844	-7.428
79	1	2	-0.098384	-9.4910002	13.941	-6.7069998
80	1	2	-0.14006899	-10.33	12.664	-6.8699999
81	1	2	-0.142757	-11.698	12.812	-6.184
82	1	2	-0.142858	-12.623	11.607	-6.4289999
83	1	2	-0.142858	-12.101	10.258	-5.8920002
84	1	2	-0.142858	-11.764	10.238	-4.3889999
85	1	2	-0.142858	-12.997	10.481	-3.5020001
86	1	2	-0.142858	-12.67	10.379	-2.0009999
87	1	2	-0.142858	-12.529	8.9259996	-1.494
88	1	2	-0.142858	-13.779	8.3990002	-0.76800001
89	1	2	-0.142858	-14.98	8.21	-1.7079999
90	1	2	-0.142757	-16.173	7.5320001	-1.012
91	1	2	-0.137418	-15.96	6.02	-0.81699997
92	1	2	-0.114218	-17.231001	5.3010001	-0.33700001
93	1	2	-0.22013301	-17.598	5.6539998	1.113
94	1	5	0.82115102	-18.739	4.8099999	1.584
95	1	6	-0.56956702	-19.922001	5.2259998	1.476
96	1	7	-0.66825801	-18.493	3.5450001	2.1059999
97	1	8	0.39031601	-19.254	2.9530001	2.4170001
98	1	4	0.114887	-16.725	5.4790001	1.779
99	1	4	0.114887	-17.884001	6.7249999	1.188
100	1	4	0.082589999	-18.083	5.5430002	-1.011
101	1	4	0.082589999	-17.049	4.2059999	-0.405
102	1	4	0.075515002	-15.141	5.8330002	-0.090999998
103	1	4	0.075515002	-15.66	5.5710001	-1.788
104	1	4	0.077381998	-16.360001	8.0270004	-0.035
105	1	4	0.077381998	-17.073999	7.6880002	-1.645
106	1	4	0.077381998	-14.682	7.6230001	-2.605
107	1	4	0.077381998	-15.318	9.21	-2.052
108	1	4	0.077381998	-13.509	7.427	-0.30700001
109	1	4	0.077381998	-14.055	9.0930004	0.056000002
110	1	4	0.077381998	-11.69	8.901	-0.764
111	1	4	0.077381998	-12.251	8.2259998	-2.312
112	1	4	0.077381998	-13.458	10.909	-1.423
113	1	4	0.077381998	-11.724	10.93	-1.801
114	1	4	0.077381998	-13.801	9.7650003	-3.773
115	1	4	0.077381998	-13.379	11.506	-3.6900001
116	1	4	0.077381998	-10.972	10.982	-4.1599998
117	1	4	0.077381998	-11.335	9.2390003	-4.158
118	1	4	0.077381998	-12.87	9.4799995	-6.0960002
119	1	4	0.077381998	-11.199	9.9580002	-6.4650002
120	1	4	0.077381998	-12.792	11.503	-7.5229998
121	1	4	0.077381998	-13.616	11.822	-5.9819999
122	1	4	0.077381998	-11.564	12.981	-5.0949998
123	1	4	0.077381998	-12.206	13.715	-6.5890002
124	1	4	0.075515002	-10.48	12.459	-7.9520001
125	1	4	0.075515002	-9.7819996	11.812	-6.4169998
126	1	4	0.073864996	-10.05	14.801	-7.1370001
127	1	4	0.073864996	-9.323	14.15	-5.6269999
128	1	4	0.110983	-7.625	14.829	-7.3720002
129	1	4	0.110983	-8.3079996	13.611	-8.5030003

Bonds

1	1	1	2
2	2	1	64
3	3	2	3
4	4	2	10
5	4	2	11
6	3	3	4
7	4	3	8
8	4	3	9
9	1	4	5
10	4	4	6
11	4	4	7
12	5	5	12
13	6	12	13
14	7	12	14
15	3	14	15
16	4	14	62
17	4	14	63
18	3	15	16
19	4	15	60
20	4	15	61
21	3	16	17
22	4	16	58
23	4	16	59
24	3	17	18
25	4	17	56
26	4	17	57
27	3	18	19
28	4	18	54
29	4	18	55
30	3	19	20
31	4	19	52
32	4	19	53
33	3	20	21
34	4	20	50
35	4	20	51
36	3	21	22
37	4	21	48
38	4	21	49
39	3	22	23
40	4	22	46
41	4	22	47
42	3	23	24
43	4	23	44
44	4	23	45
45	3	24	25
46	4	24	42
47	4	24	43
48	3	25	26
49	4	25	40
50	4	25	41
51	3	26	27
52	4	26	38
53	4	26	39
54	3	27	28
55	4	27	36
56	4	27	37
57	3	28	29
58	4	28	34
59	4	28	35
60	7	29	30
61	4	29	32
62	4	29	33
63	6	30	31
64	8	30	76
65	1	64	65
66	3	65	66
67	4	65	74
68	4	65	75
69	3	66	67
70	4	66	72
71	4	66	73
72	9	67	68
73	4	67	70
74	4	67	71
75	10	68	69
76	6	76	77
77	7	76	78
78	3	78	79
79	4	78	128
80	4	78	129
81	3	79	80
82	4	79	126
83	4	79	127
84	3	80	81
85	4	80	124
86	4	80	125
87	3	81	82
88	4	81	122
89	4	81	123
90	3	82	83
91	4	82	120
92	4	82	121
93	3	83	84
94	4	83	118
95	4	83	119
96	3	84	85
97	4	84	116
98	4	84	117
99	3	85	86
100	4	85	114
101	4	85	115
102	3	86	87
103	4	86	112
104	4	86	113
105	3	87	88
106	4	87	110
107	4	87	111
108	3	88	89
109	4	88	108
110	4	88	109
111	3	89	90
112	4	89	106
113	4	89	107
114	3	90	91
115	4	90	104
116	4	90	105
117	3	91	92
118	4	91	102
119	4	91	103
120	3	92	93
121	4	92	100
122	4	92	101
123	7	93	94
124	4	93	98
125	4	93	99
126	6	94	95
127	11	94	96
128	10	96	97

Angles

1	1	16	17	18
2	1	27	26	38
3	5	34	28	35
4	1	16	17	57
5	1	26	27	36
6	1	64	65	66
7	1	89	88	108
8	1	23	24	43
9	4	31	30	76
10	1	87	86	112
11	1	88	87	111
12	1	84	85	114
13	5	122	81	123
14	1	79	78	128
15	1	86	85	115
16	1	94	93	98
17	1	76	78	79
18	1	1	2	11
19	1	17	16	58
20	1	82	83	118
21	1	93	92	101
22	1	66	65	74
23	5	112	86	113
24	1	2	3	8
25	4	5	12	14
26	1	88	89	107
27	1	12	14	63
28	4	93	94	95
29	1	28	29	30
30	1	66	67	68
31	1	79	80	124
32	1	92	91	103
33	5	40	25	41
34	1	23	24	25
35	1	80	79	127
36	1	83	82	120
37	1	90	89	107
38	5	46	22	47
39	1	27	26	39
40	2	94	96	97
41	5	32	29	33
42	1	26	27	37
43	1	78	79	126
44	1	85	84	117
45	1	89	88	109
46	1	92	93	99
47	1	90	91	92
48	1	84	85	115
49	5	6	4	7
50	1	80	81	123
51	1	18	17	56
52	1	83	84	116
53	1	68	67	71
54	1	82	83	119
55	1	94	93	99
56	1	17	16	59
57	5	116	84	117
58	1	66	65	75
59	1	89	90	105
60	1	85	86	113
61	1	24	23	44
62	1	19	20	50
63	1	27	28	29
64	1	3	2	10
65	1	24	25	40
66	1	65	66	73
67	1	81	82	121
68	1	76	78	128
69	1	18	17	57
70	5	50	20	51
71	1	64	65	75
72	4	77	76	78
73	1	15	16	58
74	1	25	24	42
75	1	84	83	118
76	4	30	76	78
77	1	20	21	48
78	1	4	3	8
79	1	79	80	81
80	5	118	83	119
81	1	14	15	16
82	5	10	2	11
83	3	95	94	96
84	1	5	4	7
85	5	52	19	53
86	1	3	4	6
87	1	81	80	124
88	1	82	81	123
89	5	8	3	9
90	5	100	92	101
91	1	87	86	113
92	1	18	19	20
93	2	2	1	64
94	1	22	23	24
95	1	2	3	9
96	1	86	87	110
97	4	93	94	96
98	1	79	80	125
99	1	83	84	85
100	1	91	92	100
101	1	26	25	40
102	1	83	82	121
103	5	36	27	37
104	1	17	18	19
105	1	81	80	125
106	1	78	79	127
107	1	90	91	102
108	1	24	25	26
109	1	78	79	80
110	1	28	27	36
111	1	83	84	117
112	5	62	14	63
113	1	82	83	84
114	1	85	86	87
115	1	27	28	34
116	1	22	21	48
117	5	104	90	105
118	1	3	2	11
119	1	25	26	38
120	5	98	93	99
121	1	17	18	54
122	5	110	87	111
123	4	29	30	31
124	1	24	23	45
125	1	28	29	32
126	1	66	67	70
127	5	72	66	73
128	1	19	20	51
129	1	22	23	44
130	1	79	78	129
131	1	24	25	41
132	1	21	22	46
133	5	54	18	55
134	1	89	90	91
135	1	28	27	37
136	1	23	22	46
137	5	60	15	61
138	1	21	22	23
139	5	102	91	103
140	1	15	16	59
141	1	14	15	60
142	1	18	19	52
143	1	25	24	43
144	1	84	83	119
145	1	28	29	33
146	2	1	64	65
147	1	20	21	49
148	1	4	3	9
149	1	23	24	42
150	1	88	89	90
151	1	91	90	104
152	1	93	92	100
153	1	29	28	34
154	3	5	12	13
155	1	88	89	106
156	1	19	18	54
157	5	70	67	71
158	1	92	91	102
159	5	42	24	43
160	1	67	66	72
161	1	80	79	126
162	1	1	2	10
163	1	14	15	61
164	1	20	21	22
165	1	3	4	7
166	4	30	76	77
167	1	85	84	116
168	1	92	93	98
169	1	81	82	83
170	2	4	5	12
171	1	76	78	129
172	1	80	81	122
173	1	15	14	62
174	1	91	90	105
175	1	30	29	32
176	1	68	67	70
177	1	87	88	108
178	5	120	82	121
179	1	29	28	35
180	1	15	16	17
181	1	86	87	111
182	4	29	30	76
183	1	85	86	112
184	1	20	19	52
185	1	89	90	104
186	5	74	65	75
187	1	19	18	55
188	1	19	20	21
189	1	25	26	27
190	1	12	14	15
191	1	65	66	67
192	1	91	92	101
193	1	26	25	41
194	1	92	93	94
195	1	80	81	82
196	1	3	4	5
197	1	67	66	73
198	5	38	26	39
199	5	56	17	57
200	5	126	79	127
201	1	65	66	72
202	1	90	91	103
203	5	44	23	45
204	5	128	78	129
205	1	81	82	120
206	1	26	27	28
207	1	16	15	60
208	2	67	68	69
209	1	15	14	63
210	1	30	29	33
211	1	87	88	109
212	1	27	28	35
213	1	22	21	49
214	1	21	20	50
215	1	64	65	74
216	5	114	85	115
217	1	25	26	39
218	1	1	2	3
219	1	20	19	53
220	1	17	18	55
221	1	16	17	56
222	5	108	88	109
223	1	66	67	71
224	1	84	85	86
225	1	87	88	89
226	4	13	12	14
227	1	88	87	110
228	5	124	80	125
229	1	22	23	45
230	1	86	85	114
231	1	91	92	93
232	1	2	3	4
233	5	58	16	59
234	1	12	14	62
235	1	21	22	47
236	1	16	15	61
237	1	23	22	47
238	1	5	4	6
239	1	86	87	88
240	5	106	89	107
241	1	90	89	106
242	1	21	20	51
243	5	48	21	49
244	1	18	19	53
245	1	82	81	122

Dihedrals

1	13	101	92	91	103
2	13	38	26	25	40
3	6	80	79	78	128
4	6	87	86	85	115
5	13	108	88	87	111
6	6	84	83	82	121
7	4	11	2	1	64
8	6	28	27	26	39
9	6	21	20	19	52
10	13	40	25	24	43
11	6	27	26	25	40
12	6	18	17	16	58
13	13	58	16	15	60
14	6	22	23	24	42
15	13	102	91	90	105
16	13	52	19	18	54
17	13	71	67	66	72
18	6	24	23	22	47
19	6	23	24	25	41
20	12	96	94	93	99
21	13	46	22	21	49
22	6	67	66	65	74
23	6	82	83	84	117
24	6	92	91	90	105
25	6	16	17	18	54
26	6	85	84	83	119
27	13	110	87	86	113
28	13	60	15	14	63
29	13	56	17	16	58
30	1	30	29	28	35
31	18	21	22	23	24
31	19	21	22	23	24
31	20	21	22	23	24
32	13	51	20	19	52
33	13	50	20	19	52
34	12	5	12	14	62
35	13	70	67	66	73
36	13	109	88	87	111
37	18	19	20	21	22
37	19	19	20	21	22
37	20	19	20	21	22
38	13	104	90	89	107
39	13	54	18	17	57
40	18	24	25	26	27
40	19	24	25	26	27
40	20	24	25	26	27
41	14	13	12	14	15
42	6	80	81	82	121
43	13	48	21	20	51
44	6	21	22	23	44
45	6	91	90	89	106
46	13	107	89	88	108
47	6	14	15	16	58
48	13	101	92	91	102
49	6	19	18	17	57
50	18	87	88	89	90
50	19	87	88	89	90
50	20	87	88	89	90
51	13	8	3	2	10
52	18	85	86	87	88
52	19	85	86	87	88
52	20	85	86	87	88
53	6	90	89	88	109
54	13	108	88	87	110
55	6	84	83	82	120
56	18	25	26	27	28
56	19	25	26	27	28
56	20	25	26	27	28
57	13	33	29	28	35
58	18	26	27	28	29
58	19	26	27	28	29
58	20	26	27	28	29
59	18	17	18	19	20
59	19	17	18	19	20
59	20	17	18	19	20
60	6	86	87	88	108
61	14	28	29	30	31
62	6	27	28	29	32
63	12	96	94	93	98
64	13	46	22	21	48
65	21	29	30	76	78
66	13	42	24	23	45
67	6	92	91	90	104
68	6	22	21	20	51
69	13	7	4	3	9
70	13	6	4	3	9
71	13	47	22	21	49
72	13	120	82	81	123
73	6	85	84	83	118
74	4	1	64	65	75
75	6	86	85	84	116
76	1	30	29	28	34
77	6	87	88	89	107
78	13	125	80	79	126
79	18	78	79	80	81
79	19	78	79	80	81
79	20	78	79	80	81
80	13	70	67	66	72
81	13	109	88	87	110
82	6	17	18	19	53
83	13	59	16	15	60
84	1	65	66	67	68
85	15	95	94	93	98
85	16	95	94	93	98
85	17	95	94	93	98
86	13	119	83	82	120
87	6	79	80	81	123
88	22	66	67	68	69
88	23	66	67	68	69
89	18	14	15	16	17
89	19	14	15	16	17
89	20	14	15	16	17
90	13	35	28	27	36
91	2	1	2	3	9
91	3	1	2	3	9
92	6	26	25	24	43
93	13	53	19	18	54
94	13	124	80	79	126
95	2	5	4	3	8
95	3	5	4	3	8
96	18	83	84	85	86
96	19	83	84	85	86
96	20	83	84	85	86
97	6	80	81	82	120
98	13	73	66	65	75
99	6	26	27	28	35
100	4	3	2	1	64
101	13	45	23	22	46
102	7	3	4	5	12
102	8	3	4	5	12
103	6	78	79	80	125
104	13	72	66	65	75
105	13	39	26	25	40
106	13	117	84	83	119
107	1	12	14	15	16
108	21	29	30	76	77
109	13	37	27	26	38
110	6	17	16	15	61
111	12	30	76	78	79
112	6	88	89	90	105
113	6	15	16	17	57
114	13	103	91	90	105
115	6	81	82	83	119
116	13	105	90	89	107
117	6	85	86	87	111
118	6	89	88	87	110
119	13	42	24	23	44
120	13	99	93	92	101
121	13	121	82	81	123
122	6	2	3	4	7
123	13	7	4	3	8
124	6	20	19	18	55
125	13	47	22	21	48
126	13	120	82	81	122
127	13	126	79	78	129
128	2	68	67	66	72
128	3	68	67	66	72
129	13	41	25	24	43
130	13	116	84	83	119
131	6	91	92	93	99
132	6	4	3	2	10
133	4	10	2	1	64
134	1	12	14	15	60
135	1	64	65	66	67
136	6	81	80	79	127
137	13	32	29	28	35
138	6	19	20	21	49
139	15	13	12	14	62
139	16	13	12	14	62
139	17	13	12	14	62
140	6	87	88	89	106
141	26	95	94	96	97
141	27	95	94	96	97
142	6	90	91	92	101
143	13	43	24	23	45
144	6	84	85	86	112
145	13	55	18	17	57
146	6	79	80	81	122
147	13	57	17	16	59
148	13	113	86	85	114
149	18	79	80	81	82
149	19	79	80	81	82
149	20	79	80	81	82
150	6	93	92	91	102
151	24	69	68	67	71
152	5	2	1	64	65
153	18	88	89	90	91
153	19	88	89	90	91
153	20	88	89	90	91
154	6	78	79	80	124
155	6	83	82	81	122
156	13	72	66	65	74
157	6	87	86	85	114
158	1	76	78	79	127
159	6	65	66	67	71
160	6	25	26	27	37
161	6	28	27	26	38
162	13	44	23	22	47
163	13	40	25	24	42
164	13	126	79	78	128
165	6	88	89	90	104
166	6	15	16	17	56
167	15	31	30	29	33
167	16	31	30	29	33
167	17	31	30	29	33
168	13	114	85	84	117
169	13	103	91	90	104
170	2	64	65	66	73
170	3	64	65	66	73
171	6	81	82	83	118
172	13	102	91	90	104
173	18	80	81	82	83
173	19	80	81	82	83
173	20	80	81	82	83
174	1	94	93	92	101
175	14	77	76	78	79
176	6	24	23	22	46
177	6	23	24	25	40
178	13	105	90	89	106
179	6	85	86	87	110
180	13	38	26	25	41
181	12	30	76	78	129
182	6	82	83	84	116
183	13	99	93	92	100
184	6	2	3	4	6
185	1	76	78	79	80
186	18	20	21	22	23
186	19	20	21	22	23
186	20	20	21	22	23
187	13	41	25	24	42
188	13	116	84	83	118
189	6	91	92	93	98
190	6	18	17	16	59
191	13	123	81	80	125
192	13	110	87	86	112
193	13	60	15	14	62
194	6	80	79	78	129
195	6	81	80	79	126
196	6	89	90	91	103
197	6	19	20	21	48
198	13	115	85	84	117
199	6	90	91	92	100
200	6	25	24	23	45
201	18	23	24	25	26
201	19	23	24	25	26
201	20	23	24	25	26
202	6	83	84	85	115
203	13	104	90	89	106
204	13	54	18	17	56
205	13	98	93	92	101
206	13	48	21	20	50
207	6	29	28	27	37
208	24	69	68	67	70
209	13	56	17	16	59
210	18	18	19	20	21
210	19	18	19	20	21
210	20	18	19	20	21
211	18	16	17	18	19
211	19	16	17	18	19
211	20	16	17	18	19
212	6	16	15	14	63
213	6	19	18	17	56
214	13	50	20	19	53
215	12	5	12	14	63
216	18	90	91	92	93
216	19	90	91	92	93
216	20	90	91	92	93
217	6	20	21	22	47
218	6	90	89	88	108
219	13	112	86	85	115
220	6	24	25	26	39
221	6	25	26	27	36
222	1	2	3	4	5
223	13	33	29	28	34
224	1	1	2	3	4
225	15	31	30	29	32
225	16	31	30	29	32
225	17	31	30	29	32
226	6	91	90	89	107
227	2	64	65	66	72
227	3	64	65	66	72
228	6	88	87	86	113
229	1	94	93	92	100
230	6	14	15	16	59
231	13	9	3	2	10
232	11	4	5	12	14
233	6	22	21	20	50
234	13	6	4	3	8
235	15	77	76	78	129
235	16	77	76	78	129
235	17	77	76	78	129
236	13	36	27	26	39
237	13	123	81	80	124
238	4	1	64	65	74
239	6	86	87	88	109
240	13	127	79	78	129
241	13	49	21	20	51
242	18	86	87	88	89
242	19	86	87	88	89
242	20	86	87	88	89
243	6	89	90	91	102
244	6	27	28	29	33
245	13	115	85	84	116
246	13	8	3	2	11
247	13	111	87	86	113
248	6	25	24	23	44
249	13	61	15	14	63
250	4	7	4	5	12
251	6	17	18	19	52
252	6	83	84	85	114
253	4	6	4	5	12
254	13	34	28	27	37
255	12	33	29	30	76
256	6	23	22	21	49
257	13	98	93	92	100
258	2	1	2	3	8
258	3	1	2	3	8
259	6	26	25	24	42
260	12	28	29	30	76
261	13	73	66	65	74
262	6	26	27	28	34
263	6	82	81	80	125
264	6	29	28	27	36
265	6	86	85	84	117
266	13	122	81	80	125
267	6	16	15	14	62
268	13	106	89	88	109
269	13	125	80	79	127
270	6	20	21	22	46
271	13	117	84	83	118
272	13	100	92	91	103
273	13	59	16	15	61
274	13	112	86	85	114
275	15	95	94	93	99
275	16	95	94	93	99
275	17	95	94	93	99
276	13	119	83	82	121
277	6	24	25	26	38
278	6	17	16	15	60
279	13	35	28	27	37
280	13	53	19	18	55
281	6	18	19	20	51
282	13	124	80	79	127
283	2	5	4	3	9
283	3	5	4	3	9
284	15	77	76	78	128
284	16	77	76	78	128
284	17	77	76	78	128
285	1	91	92	93	94
286	12	5	12	14	15
287	12	92	93	94	96
288	13	118	83	82	121
289	13	45	23	22	47
290	6	88	87	86	112
291	1	27	28	29	30
292	13	127	79	78	128
293	13	39	26	25	41
294	18	15	16	17	18
294	19	15	16	17	18
294	20	15	16	17	18
295	9	4	5	12	13
295	10	4	5	12	13
296	13	121	82	81	122
297	6	20	19	18	54
298	18	84	85	86	87
298	19	84	85	86	87
298	20	84	85	86	87
299	18	82	83	84	85
299	19	82	83	84	85
299	20	82	83	84	85
300	13	37	27	26	39
301	21	31	30	76	78
302	6	21	20	19	53
303	6	27	26	25	41
304	13	36	27	26	38
305	13	58	16	15	61
306	6	22	23	24	43
307	13	52	19	18	55
308	13	71	67	66	73
309	13	32	29	28	34
310	13	49	21	20	50
311	18	89	90	91	92
311	19	89	90	91	92
311	20	89	90	91	92
312	18	22	23	24	25
312	19	22	23	24	25
312	20	22	23	24	25
313	13	43	24	23	44
314	6	67	66	65	75
315	6	89	88	87	111
316	13	111	87	86	112
317	13	61	15	14	62
318	13	55	18	17	56
319	13	34	28	27	36
320	6	23	22	21	48
321	6	16	17	18	55
322	2	68	67	66	73
322	3	68	67	66	73
323	13	57	17	16	58
324	6	82	81	80	124
325	1	12	14	15	61
326	4	1	64	65	66
327	15	13	12	14	63
327	16	13	12	14	63
327	17	13	12	14	63
328	13	122	81	80	124
329	18	81	82	83	84
329	19	81	82	83	84
329	20	81	82	83	84
330	13	51	20	19	53
331	13	9	3	2	11
332	13	106	89	88	108
333	6	84	85	86	113
334	1	76	78	79	126
335	13	100	92	91	102
336	12	30	76	78	128
337	6	65	66	67	70
338	25	93	94	96	97
339	6	18	19	20	50
340	13	44	23	22	46
341	6	21	22	23	45
342	6	4	3	2	11
343	21	31	30	76	77
344	13	113	86	85	115
345	14	92	93	94	95
346	6	93	92	91	103
347	13	118	83	82	120
348	13	114	85	84	116
349	12	32	29	30	76
350	13	107	89	88	109
351	6	83	82	81	123

Impropers

5	2	76	30	77	78
31	2	30	76	29	31
175	2	76	77	78	30
195	2	30	31	76	29
257	1	12	13	14	5
284	1	94	96	93	95
636	1	94	95	96	93
662	1	12	14	5	13
714	1	94	93	95	96
761	2	30	29	31	76
836	2	76	78	30	77
883	1	12	5	13	14
