Title

193 atoms
206 bonds
341 angles
503 dihedrals
276 impropers

10 atom types
14 bond types
7 angle types
17 dihedral types
3 improper types
-22.20499992 77.79500008 xlo xhi
-3.348999977 96.65100002 ylo yhi
-4.025000095 95.9749999 zlo zhi
0.0 0.0 0.0 xy xz yz

Masses

1	14.00672
2	12.01078
3	1.007947
4	15.99943
5	12.01078
6	1.007947
7	18.998403
8	15.99943
9	15.99943
10	1.007947


Pair Coeffs

1	0.16769152	3.206876
2	0.086879315	3.4806469
3	0.015611343	2.5725815
4	0.16846514	3.0251065
5	0.10884061	3.3795318
6	0.014090815	1.1034277
7	0.061	3.1181455
8	0.2102061	3.0398122
9	0.20947353	2.99716
10	1.2326e-05	0.53453923

Bond Coeffs

1 harmonic	390.03554688505	1.390160554689
2 harmonic	505.144496193	1.019481865027
3 harmonic	422.7150220147	1.421786517481
4 harmonic	360.7852444772	1.387193227181
5 harmonic	397.2545789619	1.085358495916
6 harmonic	279.1350963404	1.454628925034
7 harmonic	425.69104206635	1.362945806494
8 harmonic	289.73813263395	1.498646816465
9 harmonic	264.62148576755	1.52190126495
10 harmonic	492.76746816345	1.381897776683
11 harmonic	340.45121009905	1.358690858053
12 harmonic	582.698766451	1.225198386222
13 harmonic	385.7604595587	1.369745182308
14 harmonic	543.5267831885	0.9716763312559


Angle Coeffs

1 harmonic	57.8982893754	126.8062420451
2 harmonic	55.42182150775	117.3465570514
3 harmonic	63.44422595415	115.5071327674
4 harmonic	34.066775159195	129.1835929926
5 harmonic	65.09061609600001	110.3538806181
6 harmonic	53.20531626545	116.5475862634
7 harmonic	201.41175231035	127.4691416191


Dihedral Coeffs

1 fourier 1	3.661930099076	2	180
2 fourier 1	1.193093382682	2	180
3 fourier 1	0.02021088501612	1	0
4 fourier 1	1.163235555439	2	180
5 fourier 1	1.532232714475	2	180
6 fourier 1	0.02664938770063	3	0
7 fourier 1	0.1155372516788	3	0
8 fourier 1	3.101948770557	2	180
9 fourier 1	-0.4252153282372	1	0
10 fourier 1	1.809047390003	2	180
11 fourier 1	-0.04816277792592	1	0
12 fourier 1	0.9974165607242	2	180
13 fourier 1	2.348375642009	2	180
14 fourier 1	1.256156174911	1	0
15 fourier 1	2.687457892086	2	180
16 fourier 1	2.772607909663	2	180
17 fourier 1	0.09692684957115	1	0


Improper Coeffs

1 0.3666666666666667	-1	2
2 0.3333333333333333	-1	2
3 3.5	-1	2


Atoms

1	1	1	-0.41210201	-13.347	3.1819999	0.139
2	1	2	0.12628099	-12.174	2.4000001	-0.1
3	1	2	-0.40702701	-11.19	2.8710001	-0.88
4	1	3	0.22114	-11.271	3.848	-1.339
5	1	2	-0.114635	-9.9700003	2.069	-1.1059999
6	1	3	0.20351601	-9.1750002	2.4949999	-1.706
7	1	2	-0.128319	-9.8339996	0.85299999	-0.53899997
8	1	2	-0.134545	-8.5880003	0.061000001	-0.71100003
9	1	2	-0.129803	-7.9549999	0.0060000001	-1.898
10	1	3	0.20680501	-8.3529997	0.514	-2.767
11	1	2	-0.296258	-6.6849999	-0.73100001	-2.033
12	1	3	0.223818	-6.1550002	-0.704	-2.977
13	1	2	0.328852	-6.1469998	-1.3559999	-0.97899997
14	1	4	-0.272282	-4.881	-1.934	-1.113
15	1	2	0.257936	-3.744	-1.443	-0.456
16	1	2	-0.27773601	-2.6400001	-2.1960001	-0.41299999
17	1	3	0.228085	-2.6329999	-3.174	-0.87599999
18	1	2	-0.152971	-1.431	-1.715	0.285
19	1	3	0.215664	-0.57200003	-2.3740001	0.317
20	1	2	-0.080962002	-1.391	-0.49200001	0.86500001
21	1	5	-0.26326799	-0.124	-0.046	1.638
22	1	2	-0.080962002	1.125	-0.31799999	0.76300001
23	1	2	-0.152971	2.3080001	-0.73000002	1.277
24	1	3	0.215664	2.4360001	-0.94499999	2.325
25	1	2	-0.27773601	3.497	-0.88700002	0.41800001
26	1	3	0.228085	4.4159999	-1.25	0.86000001
27	1	2	0.257936	3.438	-0.58700001	-0.889
28	1	4	-0.272282	4.553	-0.72100002	-1.729
29	1	2	0.328852	5.8800001	-0.447	-1.355
30	1	2	-0.296258	6.1700001	0.54699999	-0.498
31	1	3	0.223818	5.3850002	1.1619999	-0.078000002
32	1	2	-0.129803	7.5669999	0.84600002	-0.139
33	1	3	0.20680501	7.7589998	1.668	0.54000002
34	1	2	-0.134545	8.5760002	0.133	-0.66900003
35	1	2	-0.128319	9.9860001	0.43799999	-0.31099999
36	1	2	-0.12865201	10.961	0.38699999	-1.239
37	1	3	0.20351601	10.739	0.14	-2.2690001
38	1	2	-0.37512401	12.359	0.70099998	-0.88
39	1	3	0.217613	13.123	0.65700001	-1.646
40	1	2	0.198539	12.674	1.044	0.37900001
41	1	1	-0.532309	14.025	1.354	0.73000002
42	1	6	0.319296	14.789	1.317	0.018999999
43	1	2	-0.37512401	11.612	1.099	1.4069999
44	1	3	0.217613	11.86	1.365	2.427
45	1	2	-0.12865201	10.345	0.81099999	1.085
46	1	3	0.20351601	9.5869999	0.83600003	1.857
47	1	2	-0.057029001	8.2589998	-0.96399999	-1.622
48	1	3	0.205856	9.0719995	-1.549	-2.03
49	1	2	-0.32233599	6.9819999	-1.245	-1.957
50	1	5	0.76650298	6.6430001	-2.3570001	-2.9219999
51	1	7	-0.20826501	7.77	-3.0350001	-3.3559999
52	1	7	-0.20826501	5.8000002	-3.2620001	-2.3010001
53	1	7	-0.20826501	5.9990001	-1.825	-4.0250001
54	1	2	-0.27773601	2.161	-0.133	-1.4680001
55	1	3	0.228085	2.1070001	0.109	-2.5209999
56	1	2	-0.152971	1.08	0.013	-0.69300002
57	1	3	0.215664	0.16500001	0.37900001	-1.142
58	1	5	0.75267798	-0.122	-0.84299999	2.9890001
59	1	7	-0.201904	0.792	-0.32100001	3.888
60	1	7	-0.201904	-1.3710001	-0.78200001	3.5869999
61	1	7	-0.201904	0.184	-2.178	2.7750001
62	1	5	0.75267798	-0.115	1.4859999	1.951
63	1	7	-0.201904	-0.36300001	2.2219999	0.80500001
64	1	7	-0.201904	-1.062	1.812	2.9070001
65	1	7	-0.201904	1.1210001	1.874	2.4419999
66	1	2	-0.152971	-2.6329999	0.34	0.80800003
67	1	3	0.215664	-2.6830001	1.317	1.261
68	1	2	-0.27773601	-3.7290001	-0.104	0.182
69	1	3	0.228085	-4.6079998	0.52700001	0.14399999
70	1	2	-0.32233599	-6.8899999	-1.403	0.31799999
71	1	5	0.76650298	-6.3600001	-2.1860001	1.499
72	1	7	-0.20826501	-5.6339998	-3.2839999	1.074
73	1	7	-0.20826501	-7.3990002	-2.6470001	2.29
74	1	7	-0.20826501	-5.5479999	-1.374	2.266
75	1	2	-0.057029001	-8.0240002	-0.68699998	0.44100001
76	1	3	0.205856	-8.5389996	-0.64999998	1.393
77	1	2	-0.114635	-10.937	0.33000001	0.30899999
78	1	3	0.20351601	-10.863	-0.653	0.75599998
79	1	2	-0.40702701	-12.039	1.061	0.51700002
80	1	3	0.22114	-12.834	0.66799998	1.137
81	1	6	0.37255901	-13.455	4.1360002	-0.27399999
82	1	2	0.76749498	14.273	1.636	1.726
83	1	8	-0.65905398	15.483	1.632	2.0769999
84	1	2	-0.35444	13.203	2.02	2.665
85	1	2	-0.075520001	13.476	2.382	3.9319999
86	1	3	0.222415	14.494	2.402	4.302
87	1	2	-0.243991	12.383	2.7620001	4.849
88	1	3	0.21252701	12.613	3.052	5.8670001
89	1	2	-0.023490001	11.114	2.7490001	4.4260001
90	1	3	0.22191	10.324	3.0309999	5.1110001
91	1	2	-0.29352701	10.795	2.3529999	3.0320001
92	1	2	0.58746201	9.3999996	2.336	2.5569999
93	1	8	-0.52779102	8.4530001	2.6570001	3.323
94	1	2	0.055682998	11.794	2.0079999	2.2
95	1	3	0.23953401	11.577	1.716	1.179
96	1	1	-0.41210201	-14.107	2.819	0.755
97	1	2	0.12628099	-14.585	3.6010001	1.852
98	1	2	-0.40702701	-15.552	3.1300001	2.6530001
99	1	3	0.22114	-15.984	2.1530001	2.477
100	1	2	-0.114635	-16.028	3.9319999	3.799
101	1	3	0.20351601	-16.780001	3.5050001	4.4510002
102	1	2	-0.128319	-15.502	5.1479998	4.0500002
103	1	2	-0.134545	-15.929	5.9400001	5.2319999
104	1	2	-0.129803	-17.221001	5.9949999	5.6040001
105	1	3	0.20680501	-17.989	5.487	5.0339999
106	1	2	-0.296258	-17.618	6.7319999	6.8189998
107	1	3	0.223818	-18.650999	6.704	7.1399999
108	1	2	0.328852	-16.698999	7.3569999	7.5650001
109	1	4	-0.272282	-17.093	7.9349999	8.7749996
110	1	2	0.257936	-16.687	7.4429998	10.024
111	1	2	-0.27773601	-16.875	8.1969995	11.112
112	1	3	0.228085	-17.329	9.1750002	11.023
113	1	2	-0.152971	-16.444	7.7160001	12.44
114	1	3	0.215664	-16.591	8.375	13.287
115	1	2	-0.080962002	-15.885	6.493	12.6
116	1	5	-0.26326799	-15.392	6.0469999	14
117	1	2	-0.080962002	-16.507999	6.3179998	15.04
118	1	2	-0.152971	-16.250999	6.7309999	16.302999
119	1	3	0.215664	-15.253	6.9460001	16.646999
120	1	2	-0.27773601	-17.339001	6.888	17.288
121	1	3	0.228085	-17.098	7.25	18.278
122	1	2	0.257936	-18.605	6.5879998	16.958
123	1	4	-0.272282	-19.658001	6.7220001	17.874001
124	1	2	0.328852	-19.569	6.448	19.249001
125	1	2	-0.296258	-18.791	5.4530001	19.712
126	1	3	0.223818	-18.216999	4.8390002	19.031
127	1	2	-0.129803	-18.73	5.1550002	21.153
128	1	3	0.20680501	-18.106001	4.3330002	21.482
129	1	2	-0.134545	-19.459	5.868	22.030001
130	1	2	-0.128319	-19.402	5.5619998	23.483
131	1	2	-0.077999003	-20.513	5.6139998	24.243999
132	1	3	0.20351601	-21.474001	5.8610001	23.812
133	1	2	-0.45116901	-20.452	5.2989998	25.687
134	1	3	0.229651	-21.360001	5.3439999	26.275
135	1	2	0.31772399	-19.287001	4.9569998	26.256001
136	1	1	-0.844877	-19.224001	4.6459999	27.650999
137	1	6	0.36603099	-18.318001	4.3699999	28.091999
138	1	6	0.36603099	-20.077999	4.684	28.25
139	1	2	-0.45116901	-18.059999	4.902	25.431
140	1	3	0.229651	-17.114	4.6360002	25.886
141	1	2	-0.077999003	-18.111	5.1900001	24.125
142	1	3	0.20351601	-17.198	5.165	23.544001
143	1	2	-0.057029001	-20.325001	6.9650002	21.521
144	1	3	0.205856	-20.893	7.5500002	22.232
145	1	2	-0.32233599	-20.386999	7.2449999	20.202999
146	1	5	0.76650298	-21.26	8.3579998	19.67
147	1	7	-0.20826501	-21.919001	9.0360003	20.681999
148	1	7	-0.20826501	-20.478001	9.2629995	18.975
149	1	7	-0.20826501	-22.205	7.8249998	18.811001
150	1	2	-0.27773601	-18.905001	6.1329999	15.589
151	1	3	0.228085	-19.924999	5.8920002	15.317
152	1	2	-0.152971	-17.923	5.9879999	14.693
153	1	3	0.215664	-18.172001	5.6220002	13.705
154	1	5	0.75267798	-14.072	6.8439999	14.283
155	1	7	-0.201904	-13.382	6.322	15.364
156	1	7	-0.201904	-13.226	6.783	13.186
157	1	7	-0.201904	-14.345	8.1789999	14.538
158	1	5	0.75267798	-15.088	4.5149999	14.074
159	1	7	-0.201904	-16.158001	3.779	13.593
160	1	7	-0.201904	-13.956	4.1880002	13.347
161	1	7	-0.201904	-14.865	4.1269999	15.385
162	1	2	-0.152971	-15.682	5.6609998	11.373
163	1	3	0.215664	-15.229	4.684	11.419
164	1	2	-0.27773601	-16.066999	6.105	10.171
165	1	3	0.228085	-15.921	5.474	9.3039999
166	1	2	-0.32233599	-15.276	7.4039998	7.1079998
167	1	5	0.76650298	-14.231	8.1870003	7.8720002
168	1	7	-0.20826501	-14.798	9.2849998	8.493
169	1	7	-0.20826501	-13.241	8.6479998	7.0190001
170	1	7	-0.20826501	-13.65	7.3740001	8.8260002
171	1	2	-0.057029001	-14.919	6.6880002	6.0240002
172	1	3	0.205856	-13.881	6.6500001	5.7179999
173	1	2	-0.114635	-14.443	5.671	3.148
174	1	3	0.20351601	-14.02	6.6539998	3.313
175	1	2	-0.40702701	-14.01	4.9400001	2.1129999
176	1	3	0.22114	-13.238	5.3330002	1.464
177	1	6	0.37255901	-14.489	1.865	0.56300002
178	1	2	0.58746201	9.1739998	2.046	1.539
179	1	8	-0.52779102	9.6599998	2.7190001	0.59100002
180	1	2	-0.289022	8.3079996	0.87900001	1.286
181	1	2	-0.023490001	8.0050001	0.48699999	0.035
182	1	3	0.22191	8.3879995	1.0190001	-0.82599998
183	1	2	-0.245142	7.1360002	-0.685	-0.186
184	1	3	0.21252701	6.8969998	-0.99199998	-1.196
185	1	2	-0.061358001	6.645	-1.3660001	0.85500002
186	1	3	0.23286501	6.0089998	-2.223	0.67299998
187	1	2	-0.218824	6.9679999	-0.95099998	2.244
188	1	2	0.83848	6.4169998	-1.714	3.385
189	1	8	-0.48887101	6.6799998	-1.377	4.572
190	1	9	-0.66545802	5.599	-2.8169999	3.1559999
191	1	10	0.41748399	5.2150002	-3.349	3.928
192	1	2	0.072393	7.7620001	0.121	2.4389999
193	1	3	0.249603	8.0120001	0.44400001	3.4419999

Bonds

1	1	1	2
2	2	1	81
3	3	1	96
4	4	2	3
5	4	2	79
6	5	3	4
7	4	3	5
8	5	5	6
9	4	5	7
10	6	7	8
11	4	7	77
12	4	8	9
13	4	8	75
14	5	9	10
15	4	9	11
16	5	11	12
17	4	11	13
18	7	13	14
19	4	13	70
20	7	14	15
21	4	15	16
22	4	15	68
23	5	16	17
24	4	16	18
25	5	18	19
26	4	18	20
27	8	20	21
28	4	20	66
29	8	21	22
30	9	21	58
31	9	21	62
32	4	22	23
33	4	22	56
34	5	23	24
35	4	23	25
36	5	25	26
37	4	25	27
38	7	27	28
39	4	27	54
40	7	28	29
41	4	29	30
42	4	29	49
43	5	30	31
44	4	30	32
45	5	32	33
46	4	32	34
47	6	34	35
48	4	34	47
49	4	35	36
50	4	35	45
51	5	36	37
52	4	36	38
53	5	38	39
54	4	38	40
55	1	40	41
56	4	40	43
57	2	41	42
58	10	41	82
59	5	43	44
60	4	43	45
61	5	45	46
62	5	47	48
63	4	47	49
64	8	49	50
65	11	50	51
66	11	50	52
67	11	50	53
68	5	54	55
69	4	54	56
70	5	56	57
71	11	58	59
72	11	58	60
73	11	58	61
74	11	62	63
75	11	62	64
76	11	62	65
77	5	66	67
78	4	66	68
79	5	68	69
80	8	70	71
81	4	70	75
82	11	71	72
83	11	71	73
84	11	71	74
85	5	75	76
86	5	77	78
87	4	77	79
88	5	79	80
89	12	82	83
90	6	82	84
91	4	84	85
92	4	84	94
93	5	85	86
94	4	85	87
95	5	87	88
96	4	87	89
97	5	89	90
98	4	89	91
99	6	91	92
100	4	91	94
101	12	92	93
102	6	92	178
103	5	94	95
104	1	96	97
105	2	96	177
106	4	97	98
107	4	97	175
108	5	98	99
109	4	98	100
110	5	100	101
111	4	100	102
112	6	102	103
113	4	102	173
114	4	103	104
115	4	103	171
116	5	104	105
117	4	104	106
118	5	106	107
119	4	106	108
120	7	108	109
121	4	108	166
122	7	109	110
123	4	110	111
124	4	110	164
125	5	111	112
126	4	111	113
127	5	113	114
128	4	113	115
129	8	115	116
130	4	115	162
131	8	116	117
132	9	116	154
133	9	116	158
134	4	117	118
135	4	117	152
136	5	118	119
137	4	118	120
138	5	120	121
139	4	120	122
140	7	122	123
141	4	122	150
142	7	123	124
143	4	124	125
144	4	124	145
145	5	125	126
146	4	125	127
147	5	127	128
148	4	127	129
149	6	129	130
150	4	129	143
151	4	130	131
152	4	130	141
153	5	131	132
154	4	131	133
155	5	133	134
156	4	133	135
157	1	135	136
158	4	135	139
159	2	136	137
160	2	136	138
161	5	139	140
162	4	139	141
163	5	141	142
164	5	143	144
165	4	143	145
166	8	145	146
167	11	146	147
168	11	146	148
169	11	146	149
170	5	150	151
171	4	150	152
172	5	152	153
173	11	154	155
174	11	154	156
175	11	154	157
176	11	158	159
177	11	158	160
178	11	158	161
179	5	162	163
180	4	162	164
181	5	164	165
182	8	166	167
183	4	166	171
184	11	167	168
185	11	167	169
186	11	167	170
187	5	171	172
188	5	173	174
189	4	173	175
190	5	175	176
191	12	178	179
192	6	178	180
193	4	180	181
194	4	180	192
195	5	181	182
196	4	181	183
197	5	183	184
198	4	183	185
199	5	185	186
200	4	185	187
201	6	187	188
202	4	187	192
203	12	188	189
204	13	188	190
205	14	190	191
206	5	192	193

Angles

1	1	102	103	104
2	1	124	145	143
3	1	1	2	79
4	4	23	25	26
5	4	174	173	175
6	4	20	66	67
7	1	106	108	166
8	6	59	58	60
9	6	160	158	161
10	4	115	162	163
11	1	85	84	94
12	4	77	79	80
13	6	166	167	170
14	6	116	158	161
15	1	181	183	185
16	4	26	25	27
17	1	109	110	111
18	4	124	125	126
19	1	15	16	18
20	1	34	35	36
21	1	40	43	45
22	1	7	8	9
23	1	2	3	5
24	4	180	192	193
25	1	11	13	70
26	1	179	178	180
27	1	122	150	152
28	6	115	116	154
29	3	137	136	138
30	4	98	100	101
31	1	27	54	56
32	1	187	188	189
33	1	38	40	41
34	2	2	1	96
35	6	20	21	22
36	1	188	187	192
37	1	7	77	79
38	4	163	162	164
39	1	29	30	32
40	6	166	167	169
41	4	22	23	24
42	6	64	62	65
43	6	20	21	58
44	4	86	85	87
45	1	133	135	136
46	1	82	84	94
47	1	180	181	183
48	4	130	141	142
49	1	35	45	43
50	1	185	187	192
51	5	122	123	124
52	1	113	115	116
53	4	88	87	89
54	4	10	9	11
55	1	116	117	152
56	1	14	15	16
57	1	29	49	50
58	4	39	38	40
59	1	96	97	98
60	1	3	5	7
61	6	72	71	73
62	4	99	98	100
63	4	134	133	135
64	1	8	75	70
65	1	111	113	115
66	4	29	30	31
67	1	21	22	23
68	6	115	116	158
69	4	36	38	39
70	1	116	117	118
71	1	3	2	79
72	1	15	68	66
73	3	81	1	96
74	1	32	34	47
75	1	85	87	89
76	4	118	120	121
77	4	2	3	4
78	4	8	75	76
79	1	98	100	102
80	6	169	167	170
81	1	36	35	45
82	4	101	100	102
83	1	22	23	25
84	6	22	21	58
85	1	103	171	166
86	6	116	154	156
87	1	92	178	179
88	1	125	124	145
89	1	103	104	106
90	6	156	154	157
91	1	83	82	84
92	6	116	158	160
93	4	117	152	153
94	4	19	18	20
95	1	84	85	87
96	4	12	11	13
97	1	35	36	38
98	1	41	40	43
99	1	123	124	145
100	6	49	50	52
101	1	120	122	123
102	4	132	131	133
103	6	58	21	62
104	1	8	9	11
105	4	97	175	176
106	4	6	5	7
107	1	100	102	103
108	2	40	41	82
109	1	71	70	75
110	6	70	71	74
111	1	38	40	43
112	1	187	188	190
113	1	130	129	143
114	1	109	110	164
115	4	103	171	172
116	1	131	133	135
117	6	145	146	149
118	1	82	84	85
119	1	41	82	84
120	1	109	108	166
121	4	4	3	5
122	1	5	7	8
123	1	127	129	130
124	4	181	183	184
125	1	110	111	113
126	3	42	41	82
127	4	40	43	44
128	4	110	164	165
129	1	123	124	125
130	6	145	146	148
131	1	104	103	171
132	6	168	167	170
133	4	31	30	32
134	4	90	89	91
135	4	107	106	108
136	1	34	35	45
137	1	103	102	173
138	1	135	139	141
139	1	180	192	187
140	6	52	50	53
141	1	23	22	56
142	1	5	7	77
143	4	140	139	141
144	4	3	5	6
145	6	159	158	161
146	6	20	21	62
147	1	100	102	173
148	1	102	103	171
149	5	108	109	110
150	1	89	91	94
151	1	20	66	68
152	4	117	118	119
153	4	151	150	152
154	4	9	11	12
155	1	13	70	75
156	4	182	181	183
157	4	15	68	69
158	1	136	135	139
159	4	15	16	17
160	6	168	167	169
161	4	35	45	46
162	1	93	92	178
163	4	150	152	153
164	1	84	94	91
165	4	78	77	79
166	1	23	25	27
167	4	122	150	151
168	6	51	50	52
169	5	27	28	29
170	5	188	190	191
171	1	124	125	127
172	6	73	71	74
173	1	11	13	14
174	4	112	111	113
175	4	55	54	56
176	1	91	92	178
177	1	96	97	175
178	4	2	79	80
179	1	117	118	120
180	6	49	50	53
181	6	22	21	62
182	1	89	91	92
183	6	21	58	60
184	4	34	47	48
185	1	106	108	109
186	4	103	104	105
187	4	84	94	95
188	4	111	113	114
189	1	131	130	141
190	1	110	164	162
191	6	155	154	157
192	4	27	54	55
193	1	124	145	146
194	3	1	96	177
195	4	119	118	120
196	4	8	9	10
197	6	72	71	74
198	4	125	127	128
199	4	135	139	140
200	1	91	92	93
201	4	33	32	34
202	1	14	15	68
203	6	116	154	155
204	6	21	62	64
205	1	22	56	54
206	4	104	106	107
207	1	123	122	150
208	4	173	175	176
209	4	121	120	122
210	1	118	117	152
211	1	143	145	146
212	4	102	173	174
213	1	30	32	34
214	4	17	16	18
215	1	18	20	66
216	4	186	185	187
217	1	28	29	49
218	4	35	36	37
219	4	84	85	86
220	1	127	129	143
221	1	21	22	56
222	6	49	50	51
223	6	159	158	160
224	1	36	38	40
225	3	97	96	177
226	1	183	185	187
227	1	113	115	162
228	4	43	45	46
229	1	108	166	171
230	4	44	43	45
231	6	21	62	63
232	4	54	56	57
233	1	92	91	94
234	6	60	58	61
235	1	129	130	131
236	1	129	130	141
237	1	9	8	75
238	1	185	187	188
239	4	139	141	142
240	4	126	125	127
241	6	117	116	154
242	1	47	49	50
243	1	97	98	100
244	1	111	110	164
245	1	181	180	192
246	1	129	143	145
247	6	155	154	156
248	6	147	146	149
249	4	66	68	69
250	6	166	167	168
251	4	130	131	132
252	1	28	27	54
253	1	118	120	122
254	7	189	188	190
255	4	7	77	78
256	4	87	89	90
257	1	14	13	70
258	6	116	154	157
259	4	91	94	95
260	1	102	173	175
261	1	8	7	77
262	4	48	47	49
263	6	51	50	53
264	1	98	97	175
265	6	147	146	148
266	1	130	141	139
267	1	13	70	71
268	3	135	136	138
269	6	148	146	149
270	1	7	8	75
271	1	29	49	47
272	6	63	62	64
273	6	21	62	65
274	4	183	185	186
275	6	21	58	59
276	4	131	133	134
277	6	70	71	72
278	1	18	20	21
279	1	125	127	129
280	4	128	127	129
281	1	1	2	3
282	4	110	111	112
283	4	180	181	182
284	4	187	192	193
285	1	21	20	66
286	3	40	41	42
287	1	28	29	30
288	1	115	162	164
289	4	184	183	185
290	1	34	47	49
291	4	85	87	88
292	5	13	14	15
293	1	167	166	171
294	3	2	1	81
295	6	21	58	61
296	6	117	116	158
297	1	25	27	28
298	4	114	113	115
299	6	145	146	147
300	1	133	135	139
301	4	22	56	57
302	4	37	36	38
303	4	30	32	33
304	6	70	71	73
305	4	162	164	165
306	1	178	180	181
307	4	67	66	68
308	1	16	15	68
309	1	92	178	180
310	1	87	89	91
311	1	2	79	77
312	2	1	96	97
313	4	129	143	144
314	6	154	116	158
315	1	41	82	83
316	1	117	152	150
317	1	32	34	35
318	6	115	116	117
319	1	16	18	20
320	1	104	106	108
321	1	108	166	167
322	4	166	171	172
323	1	35	34	47
324	4	105	104	106
325	3	135	136	137
326	1	120	122	150
327	6	63	62	65
328	4	24	23	25
329	1	97	175	173
330	1	116	115	162
331	6	116	158	159
332	4	70	75	76
333	1	9	11	13
334	4	144	143	145
335	4	16	18	19
336	1	130	131	133
337	1	178	180	192
338	4	97	98	99
339	1	30	29	49
340	6	59	58	61
341	1	25	27	54

Dihedrals

1	6	13	70	71	73
2	1	25	27	54	55
3	7	22	21	58	60
4	1	37	36	35	45
5	5	13	14	15	16
6	7	20	21	58	59
7	1	98	100	102	103
8	7	115	116	158	161
9	1	123	124	125	126
10	12	89	91	92	178
11	1	107	106	108	166
12	1	92	91	94	95
13	1	100	98	97	175
14	1	103	104	106	107
15	6	118	117	116	158
16	1	133	131	130	141
17	5	29	28	27	54
18	1	109	108	166	167
19	1	98	97	175	173
20	1	123	122	150	152
21	1	8	7	77	78
22	1	131	130	141	139
23	1	110	111	113	115
24	1	31	30	29	49
25	1	118	117	152	153
26	1	188	187	192	193
27	1	120	122	150	151
28	1	98	97	175	176
29	1	15	16	18	20
30	1	163	162	164	165
31	1	119	118	117	152
32	1	2	3	5	6
33	1	9	11	13	14
34	7	58	21	62	63
35	1	135	139	141	142
36	1	97	98	100	102
37	4	100	102	103	171
38	7	20	21	58	60
39	1	124	125	127	129
40	1	41	40	43	44
41	1	34	35	36	38
42	6	124	145	146	147
43	1	15	16	18	19
44	1	23	22	56	54
45	2	1	96	97	98
46	1	24	23	22	56
47	1	121	120	122	150
48	1	129	130	131	132
49	1	10	9	11	12
50	1	22	23	25	27
51	5	11	13	14	15
52	1	78	77	79	80
53	1	99	98	100	101
54	12	92	178	180	181
55	1	121	120	122	123
56	1	84	85	87	89
57	6	72	71	70	75
58	1	98	100	102	173
59	6	20	21	22	56
60	6	115	116	117	152
61	1	127	125	124	145
62	1	88	87	89	90
63	7	58	21	62	65
64	6	56	22	21	62
65	1	114	113	115	162
66	1	84	94	91	89
67	12	189	188	187	192
68	1	103	102	173	175
69	1	18	16	15	68
70	1	25	27	54	56
71	1	182	181	183	185
72	7	22	21	62	63
73	12	41	82	84	94
74	5	27	28	29	49
75	1	35	36	38	39
76	6	115	116	117	118
77	5	106	108	109	110
78	1	39	38	40	43
79	1	3	5	7	77
80	1	40	43	45	46
81	7	20	21	62	63
82	1	34	35	45	46
83	1	14	15	16	17
84	12	185	187	188	189
85	1	102	103	104	106
86	1	97	175	173	102
87	1	113	115	162	164
88	1	182	181	183	184
89	1	127	129	143	144
90	1	14	15	68	66
91	1	116	115	162	164
92	1	30	29	49	50
93	1	12	11	13	70
94	1	11	9	8	75
95	6	29	49	50	53
96	1	16	15	68	66
97	1	129	130	141	139
98	1	28	29	30	32
99	1	27	54	56	57
100	1	5	7	77	78
101	1	7	8	75	70
102	12	92	178	180	192
103	6	170	167	166	171
104	1	103	171	166	167
105	2	43	40	41	82
106	7	115	116	154	156
107	1	109	110	111	112
108	12	93	92	178	180
109	7	155	154	116	158
110	1	105	104	106	107
111	7	117	116	154	155
112	4	171	103	102	173
113	1	96	97	98	100
114	1	7	77	79	80
115	1	7	8	75	76
116	1	85	84	94	91
117	1	126	125	127	128
118	12	83	82	84	94
119	1	107	106	108	109
120	6	58	21	20	66
121	1	1	2	79	80
122	7	20	21	62	65
123	1	11	13	70	71
124	7	115	116	158	160
125	1	8	75	70	13
126	1	130	129	143	144
127	1	18	20	66	67
128	1	33	32	34	47
129	2	42	41	40	43
130	1	99	98	100	102
131	1	136	135	139	140
132	4	36	35	34	47
133	1	90	89	91	94
134	1	4	3	5	6
135	1	111	110	164	162
136	6	113	115	116	117
137	1	88	87	89	91
138	1	130	131	133	134
139	4	131	130	129	143
140	1	28	29	30	31
141	2	79	2	1	81
142	7	157	154	116	158
143	12	91	92	178	180
144	1	181	180	192	187
145	1	17	16	18	20
146	1	1	2	79	77
147	1	100	102	173	174
148	1	123	124	145	143
149	1	89	91	94	95
150	1	116	117	152	153
151	1	38	36	35	45
152	1	10	9	8	75
153	1	24	23	25	26
154	1	103	104	106	108
155	1	33	32	34	35
156	1	117	118	120	122
157	5	110	109	108	166
158	1	110	164	162	115
159	1	104	106	108	166
160	1	112	111	113	115
161	2	38	40	41	82
162	1	85	84	94	95
163	1	108	166	171	172
164	12	190	188	187	192
165	6	29	49	50	51
166	1	36	38	40	41
167	1	17	16	18	19
168	1	129	130	131	133
169	1	132	131	133	135
170	1	103	102	173	174
171	1	23	22	56	57
172	1	8	7	77	79
173	1	7	8	9	11
174	6	18	20	21	22
175	1	8	9	11	12
176	1	2	79	77	78
177	1	87	89	91	94
178	6	47	49	50	53
179	1	101	100	102	103
180	1	113	115	162	163
181	2	175	97	96	177
182	2	138	136	135	139
183	12	93	92	91	94
184	1	178	180	192	187
185	1	105	104	103	171
186	6	62	21	20	66
187	6	143	145	146	148
188	1	116	115	162	163
189	6	18	20	21	58
190	1	36	35	45	43
191	1	26	25	27	28
192	7	117	116	154	157
193	1	133	135	139	140
194	7	20	21	58	61
195	1	134	133	135	139
196	1	178	180	181	182
197	1	131	130	141	142
198	2	133	135	136	137
199	12	41	82	84	85
200	1	180	181	183	185
201	6	113	115	116	154
202	12	89	91	92	93
203	1	4	3	5	7
204	1	109	110	164	165
205	1	3	2	79	80
206	1	55	54	56	57
207	1	100	102	173	175
208	1	6	5	7	77
209	1	19	18	20	21
210	1	21	22	23	25
211	1	3	5	7	8
212	5	122	123	124	145
213	4	5	7	8	9
214	1	82	84	85	87
215	1	106	104	103	171
216	1	181	183	185	187
217	1	126	125	127	129
218	1	1	2	3	5
219	1	28	27	54	55
220	1	110	111	113	114
221	1	22	56	54	55
222	7	154	116	158	159
223	1	32	30	29	49
224	6	13	70	71	74
225	1	96	97	175	173
226	12	185	187	188	190
227	1	117	152	150	122
228	1	35	45	43	40
229	1	20	66	68	69
230	1	118	120	122	150
231	2	3	2	1	81
232	1	2	3	5	7
233	3	2	1	96	97
234	6	74	71	70	75
235	1	123	122	150	151
236	6	108	166	167	170
237	1	118	120	122	123
238	5	108	109	110	111
239	5	13	14	15	68
240	1	109	108	166	171
241	12	83	82	84	85
242	1	124	145	143	129
243	1	111	113	115	162
244	1	96	97	98	99
245	1	123	124	125	127
246	6	47	49	50	51
247	1	125	124	145	143
248	1	101	100	102	173
249	1	14	13	70	75
250	1	102	103	104	105
251	7	154	116	158	161
252	1	14	15	68	69
253	1	34	35	36	37
254	2	1	96	97	175
255	1	97	175	173	174
256	1	103	171	166	108
257	1	87	85	84	94
258	1	130	131	133	135
259	1	16	15	68	69
260	4	104	103	102	173
261	4	141	130	129	143
262	1	26	25	27	54
263	2	38	40	41	42
264	6	108	166	167	168
265	6	113	115	116	158
266	1	85	87	89	90
267	1	99	98	97	175
268	5	122	123	124	125
269	1	102	103	171	166
270	1	30	32	34	47
271	1	181	183	185	186
272	7	59	58	21	62
273	1	5	7	77	79
274	1	29	30	32	33
275	1	29	49	47	48
276	1	8	9	11	13
277	1	35	34	47	48
278	2	133	135	136	138
279	1	151	150	152	153
280	1	44	43	45	46
281	1	117	152	150	151
282	4	32	34	35	36
283	1	34	47	49	50
284	6	108	166	167	169
285	1	5	3	2	79
286	12	94	91	92	178
287	1	123	124	145	146
288	1	132	131	130	141
289	1	184	183	185	187
290	16	189	188	190	191
290	17	189	188	190	191
291	7	117	116	158	159
292	6	124	145	146	149
293	1	120	118	117	152
294	1	30	32	34	35
295	12	179	178	180	181
296	1	28	29	49	47
297	12	93	92	178	179
298	7	60	58	21	62
299	1	122	150	152	153
300	1	9	11	13	70
301	1	48	47	49	50
302	1	119	118	120	121
303	1	124	145	143	144
304	1	131	133	135	139
305	1	180	192	187	185
306	1	114	113	115	116
307	1	36	38	40	43
308	6	13	70	71	72
309	1	120	122	150	152
310	1	67	66	68	69
311	6	124	145	146	148
312	1	10	9	11	13
313	7	115	116	154	155
314	6	29	49	50	52
315	1	22	23	25	26
316	7	117	116	158	161
317	1	29	49	47	34
318	6	20	21	22	23
319	1	134	133	135	136
320	4	100	102	103	104
321	1	17	16	15	68
322	1	102	103	171	172
323	1	174	173	175	176
324	1	8	75	70	71
325	6	23	22	21	58
326	1	15	68	66	20
327	4	9	8	7	77
328	5	27	28	29	30
329	1	7	8	9	10
330	1	85	87	89	91
331	6	152	117	116	154
332	1	38	40	43	45
333	6	143	145	146	149
334	1	129	143	145	146
335	6	73	71	70	75
336	1	184	183	185	186
337	4	75	8	7	77
338	7	58	21	62	64
339	1	6	5	7	8
340	1	9	8	75	76
341	1	35	36	38	40
342	1	12	11	13	14
343	1	71	70	75	76
344	12	179	178	180	192
345	1	23	25	27	28
346	1	90	89	91	92
347	1	106	108	166	171
348	8	40	41	82	83
348	9	40	41	82	83
349	1	118	117	152	150
350	3	81	1	96	177
351	1	178	180	181	183
352	5	120	122	123	124
353	1	178	180	192	193
354	1	16	18	20	66
355	2	98	97	96	177
356	1	15	68	66	67
357	1	82	84	94	91
358	1	84	94	91	92
359	1	186	185	187	188
360	6	18	20	21	62
361	1	130	141	139	140
362	1	18	20	66	68
363	1	104	103	171	166
364	1	21	20	66	68
365	1	125	127	129	143
366	1	112	111	113	114
367	1	127	129	143	145
368	1	125	127	129	130
369	1	36	35	45	46
370	6	158	116	115	162
371	7	154	116	158	160
372	1	4	3	2	79
373	1	117	118	120	121
374	1	180	181	183	184
375	1	111	110	164	165
376	1	136	135	139	141
377	1	14	15	16	18
378	1	21	22	56	57
379	1	31	30	32	34
380	7	115	116	154	157
381	1	125	124	145	146
382	7	22	21	62	64
383	1	3	2	79	77
384	1	41	40	43	45
385	1	86	85	84	94
386	2	137	136	135	139
387	6	47	49	50	52
388	1	13	70	75	76
389	1	87	89	91	92
390	1	113	111	110	164
391	6	152	117	116	158
392	6	154	116	115	162
393	7	20	21	62	64
394	5	108	109	110	164
395	1	82	84	94	95
396	1	96	97	175	176
397	1	130	129	143	145
398	1	186	185	187	192
399	1	37	36	38	40
400	1	84	85	87	88
401	1	109	110	111	113
402	1	24	23	25	27
403	1	132	131	133	134
404	1	167	166	171	172
405	1	14	13	70	71
406	7	61	58	21	62
407	1	115	162	164	165
408	15	187	188	190	191
409	1	23	25	27	54
410	10	40	41	82	84
410	11	40	41	82	84
411	6	56	22	21	58
412	1	180	192	187	188
413	13	42	41	82	83
413	14	42	41	82	83
414	2	79	2	1	96
415	1	110	164	162	163
416	1	104	103	171	172
417	1	116	117	118	119
418	1	34	35	45	43
419	1	35	34	47	49
420	1	21	22	56	54
421	1	82	84	85	86
422	1	30	29	49	47
423	6	169	167	166	171
424	1	183	185	187	188
425	1	16	18	20	21
426	6	117	116	115	162
427	6	168	167	166	171
428	1	131	133	135	136
429	3	2	1	96	177
430	1	130	141	139	135
431	1	119	118	120	122
432	1	105	104	106	108
433	1	25	23	22	56
434	4	5	7	8	75
435	7	117	116	154	156
436	1	35	45	43	44
437	6	143	145	146	147
438	1	133	135	139	141
439	1	104	106	108	109
440	5	124	123	122	150
441	7	117	116	158	160
442	1	126	125	124	145
443	1	129	130	141	142
444	1	2	79	77	7
445	1	1	2	3	4
446	1	112	111	110	164
447	1	183	181	180	192
448	5	15	14	13	70
449	1	144	143	145	146
450	6	118	117	116	154
451	1	124	125	127	128
452	4	32	34	35	45
453	1	39	38	40	41
454	1	86	85	87	88
455	1	116	117	118	120
456	1	28	27	54	56
457	1	106	108	166	167
458	1	181	180	192	193
459	1	183	185	187	192
460	7	22	21	62	65
461	7	22	21	58	59
462	1	111	113	115	116
463	1	185	187	192	193
464	1	86	85	87	89
465	1	102	173	175	176
466	1	109	110	164	162
467	1	11	13	70	75
468	1	21	20	66	67
469	1	97	98	100	101
470	1	116	117	152	150
471	1	128	127	129	143
472	7	156	154	116	158
473	12	91	92	178	179
474	1	182	181	180	192
475	1	28	29	49	50
476	10	42	41	82	84
476	11	42	41	82	84
477	1	128	127	129	130
478	6	22	21	20	66
479	1	19	18	20	66
480	7	115	116	158	159
481	4	127	129	130	131
482	1	37	36	38	39
483	1	32	34	47	49
484	1	9	8	75	70
485	6	23	22	21	62
486	4	127	129	130	141
487	1	22	56	54	27
488	5	25	27	28	29
489	7	22	21	58	61
490	1	38	40	43	44
491	1	21	22	23	24
492	4	45	35	34	47
493	1	29	30	32	34
494	1	31	30	32	33
495	1	140	139	141	142
496	2	3	2	1	96
497	3	81	1	96	97
498	1	32	34	47	48

Impropers

3	1	8	75	7	9
5	1	124	125	145	123
6	1	164	110	162	165
8	1	38	36	39	40
11	1	139	135	140	141
12	1	180	181	192	178
16	1	100	98	101	102
19	1	143	129	144	145
20	1	16	18	15	17
25	1	35	45	34	36
27	1	91	92	94	89
31	1	175	173	176	97
34	1	3	2	4	5
35	1	110	164	109	111
38	1	171	166	172	103
39	1	180	192	178	181
46	1	23	22	24	25
47	1	87	88	89	85
51	1	40	43	38	41
53	1	68	66	69	15
69	1	118	117	119	120
73	3	188	190	187	189
75	1	178	179	180	92
76	2	41	82	40	42
81	1	49	50	29	47
83	1	54	56	27	55
85	2	1	96	2	81
87	1	85	87	84	86
89	1	23	24	25	22
95	1	43	40	44	45
96	1	85	84	86	87
97	1	127	128	129	125
102	1	84	85	94	82
110	1	104	106	103	105
113	2	96	97	177	1
117	1	120	121	122	118
119	1	20	21	66	18
120	1	175	176	97	173
122	1	29	49	28	30
126	1	192	193	180	187
127	1	30	31	32	29
131	1	164	162	165	110
135	1	75	8	70	76
137	1	102	173	100	103
138	1	18	20	16	19
142	1	3	5	2	4
143	1	97	96	98	175
144	1	139	140	141	135
148	2	136	135	137	138
149	1	9	10	11	8
150	1	162	164	115	163
151	1	66	68	20	67
152	1	25	23	26	27
153	1	187	188	192	185
154	1	35	36	45	34
159	1	34	32	35	47
160	1	108	109	166	106
163	1	38	39	40	36
166	1	79	80	2	77
170	1	108	106	109	166
174	1	102	103	173	100
178	1	113	111	114	115
183	1	117	116	118	152
185	1	97	175	96	98
187	1	115	116	162	113
188	1	5	6	7	3
189	1	150	151	152	122
191	1	56	54	57	22
192	1	22	21	23	56
193	1	84	82	85	94
196	1	115	113	116	162
198	1	11	13	9	12
200	1	35	34	36	45
204	1	111	113	110	112
209	2	96	1	97	177