Title

81 atoms
80 bonds
149 angles
255 dihedrals
12 impropers

8 atom types
11 bond types
5 angle types
27 dihedral types
2 improper types
-4.046999931 95.95300007 xlo xhi
-3.177999973 96.82200003 ylo yhi
-5.56799984 94.43200016 zlo zhi
0.0 0.0 0.0 xy xz yz

Masses

1	15.99943
2	12.01078
3	1.007947
4	1.007947
5	12.01078
6	15.99943
7	15.99943
8	1.007947


Pair Coeffs

1	0.16846514	3.0251065
2	0.10884061	3.3795318
3	0.016409246	2.5832257
4	0.015779483	2.6445434
5	0.086879315	3.4806469
6	0.2102061	3.0398122
7	0.20947353	2.99716
8	1.2326e-05	0.53453923

Bond Coeffs

1 harmonic	366.7408841747	1.425895053732
2 harmonic	300.03137914615	1.451203938761
3 harmonic	264.62148576755	1.52190126495
4 harmonic	370.04670688625	1.093899492634
5 harmonic	301.15400723785	1.345741232799
6 harmonic	582.698766451	1.225198386222
7 harmonic	329.44145381095	1.523435958334
8 harmonic	279.1350963404	1.454628925034
9 harmonic	329.96998057905	1.427343958716
10 harmonic	543.5267831885	0.9716763312559
11 harmonic	385.7604595587	1.369745182308


Angle Coeffs

1 harmonic	53.20531626545	116.5475862634
2 harmonic	65.09061609600001	110.3538806181
3 harmonic	201.41175231035	127.4691416191
4 harmonic	57.8982893754	126.8062420451
5 harmonic	48.776492647595	115.6030999533


Dihedral Coeffs

1 fourier 1	0.1155372516788	3	0
2 fourier 1	0.1115525666802	3	0
3 fourier 1	0.3432490222662	1	0
4 fourier 1	0.0473758381877	3	0
5 fourier 1	0.457973137376	1	0
6 fourier 1	0.09223874044423	3	0
7 fourier 1	0.3159935921949	2	180
8 fourier 1	0.3247796806857	1	180
9 fourier 1	0.1040663847541	3	0
10 fourier 1	0.1918272375143	3	0
11 fourier 1	0.9202179876409	1	180
12 fourier 1	1.163809172478	2	180
13 fourier 1	0.1679186987369	1	180
14 fourier 1	2.779853741805	2	180
15 fourier 1	0.02664938770063	3	0
16 fourier 1	0.1911926717192	3	0
17 fourier 1	-0.3703352413219	2	0
18 fourier 1	0.4541676554336	1	0
19 fourier 1	0.1489710476446	2	0
20 fourier 1	0.02960027280666	3	180
21 fourier 1	0.9974165607242	2	180
22 fourier 1	0.3445382149273	3	0
23 fourier 1	0.1364556373303	1	0
24 fourier 1	0.3026390167484	3	0
25 fourier 1	2.687457892086	2	180
26 fourier 1	2.772607909663	2	180
27 fourier 1	0.09692684957115	1	0


Improper Coeffs

1 3.5	-1	2
2 0.3666666666666667	-1	2


Atoms

1	1	1	-0.179441	-3.8510001	0.213	1.086
2	1	2	0.033062998	-3.0139999	-0.426	0.162
3	1	2	-0.146999	-1.5880001	0.119	0.273
4	1	2	-0.14206401	-0.64399999	-0.602	-0.70099998
5	1	2	-0.14328	0.76700002	0.0049999999	-0.71600002
6	1	2	-0.140845	1.551	-0.289	0.574
7	1	2	0.13494299	3.0009999	0.18799999	0.47499999
8	1	1	-0.494827	3.043	1.5829999	0.35100001
9	1	3	0.078571998	3.497	-0.28999999	-0.40000001
10	1	3	0.078571998	3.5420001	-0.119	1.398
11	1	4	0.085640997	1.0700001	0.21600001	1.439
12	1	4	0.085640997	1.551	-1.3839999	0.76599997
13	1	4	0.081813	1.318	-0.43200001	-1.577
14	1	4	0.081813	0.70099998	1.102	-0.88099998
15	1	4	0.081984997	-0.58700001	-1.683	-0.44299999
16	1	4	0.081984997	-1.061	-0.523	-1.729
17	1	4	0.086653002	-1.597	1.2079999	0.046
18	1	4	0.086653002	-1.2359999	-0.023	1.316
19	1	3	0.078179002	-3.013	-1.515	0.384
20	1	3	0.078179002	-3.405	-0.28600001	-0.87300003
21	1	5	0.76139098	4.0479999	1.835	0.28299999
22	1	6	-0.55656499	4.4029999	2.6730001	-0.53100002
23	1	2	-0.208811	5.0419998	1.199	1.211
24	1	2	-0.116142	5.915	0.152	0.50300002
25	1	2	-0.130981	6.973	0.78600001	-0.414
26	1	2	-0.097847998	7.8959999	-0.28400001	-1.008
27	1	2	-0.257844	8.9469995	0.34599999	-1.929
28	1	5	0.51674199	9.8339996	-0.704	-2.5280001
29	1	6	-0.68962097	10.58	-1.362	-1.8200001
30	1	4	0.113284	8.4390001	0.89499998	-2.7509999
31	1	4	0.113284	9.5719995	1.067	-1.358
32	1	4	0.076522999	8.408	-0.82800001	-0.183
33	1	4	0.076522999	7.289	-1.0140001	-1.589
34	1	4	0.073706001	7.5809999	1.512	0.17
35	1	4	0.073706001	6.4710002	1.329	-1.243
36	1	4	0.085306004	5.2709999	-0.54100001	-0.082999997
37	1	4	0.085306004	6.4320002	-0.447	1.284
38	1	4	0.116489	5.6729999	1.9809999	1.686
39	1	4	0.116489	4.4780002	0.68900001	2.0209999
40	1	1	-0.179441	-4.0469999	1.114	0.71700001
41	1	2	0.033062998	-2.8110001	1.7539999	0.546
42	1	2	-0.146999	-2.099	1.209	-0.69499999
43	1	2	-0.142012	-0.76300001	1.9299999	-0.926
44	1	2	-0.137918	0.044	1.323	-2.0840001
45	1	2	-0.16892201	-0.57999998	1.6160001	-3.4579999
46	1	2	0.086245	0.31900001	1.14	-4.5999999
47	1	7	-0.68496102	0.44499999	-0.255	-4.5650001
48	1	8	0.37747401	1.04	-0.49599999	-5.322
49	1	3	0.068442002	1.321	1.617	-4.5170002
50	1	3	0.068442002	-0.139	1.446	-5.5679998
51	1	4	0.089005999	-1.566	1.1109999	-3.5480001
52	1	4	0.089005999	-0.73900002	2.711	-3.5669999
53	1	4	0.081984997	1.066	1.76	-2.0539999
54	1	4	0.081984997	0.14300001	0.22499999	-1.937
55	1	4	0.081984997	-0.94400001	3.01	-1.118
56	1	4	0.081984997	-0.149	1.851	-0.0020000001
57	1	4	0.086653002	-1.9170001	0.12	-0.56
58	1	4	0.086653002	-2.7639999	1.35	-1.574
59	1	3	0.078179002	-2.994	2.8429999	0.41999999
60	1	3	0.078179002	-2.177	1.614	1.451
61	1	5	0.51674199	9.8260002	-0.87300003	-3.5999999
62	1	6	-0.68962097	10.658	-0.31400001	-4.296
63	1	2	-0.257844	8.8140001	-1.786	-4.2309999
64	1	2	-0.097847998	7.829	-2.3640001	-3.2049999
65	1	2	-0.130981	6.8460002	-1.3049999	-2.6849999
66	1	2	-0.113626	5.8520002	-1.921	-1.689
67	1	2	-0.218907	4.895	-0.875	-1.101
68	1	5	0.823493	3.9449999	-0.34999999	-2.132
69	1	6	-0.55810201	2.9389999	-1.03	-2.47
70	1	7	-0.66582298	4.191	0.87699997	-2.7409999
71	1	8	0.393659	3.5650001	1.24	-3.451
72	1	4	0.11751	5.473	-0.035	-0.65899998
73	1	4	0.11751	4.309	-1.344	-0.28099999
74	1	4	0.085306004	5.2670002	-2.7260001	-2.1849999
75	1	4	0.085306004	6.4190001	-2.381	-0.85000002
76	1	4	0.073706001	7.4060001	-0.48800001	-2.1819999
77	1	4	0.073706001	6.289	-0.87300003	-3.5450001
78	1	4	0.076522999	7.2519999	-3.178	-3.697
79	1	4	0.076522999	8.3920002	-2.813	-2.3570001
80	1	4	0.113284	9.3549995	-2.625	-4.717
81	1	4	0.113284	8.2580004	-1.235	-5.0209999

Bonds

1	1	1	2
2	2	1	40
3	3	2	3
4	4	2	19
5	4	2	20
6	3	3	4
7	4	3	17
8	4	3	18
9	3	4	5
10	4	4	15
11	4	4	16
12	3	5	6
13	4	5	13
14	4	5	14
15	3	6	7
16	4	6	11
17	4	6	12
18	1	7	8
19	4	7	9
20	4	7	10
21	5	8	21
22	6	21	22
23	7	21	23
24	3	23	24
25	4	23	38
26	4	23	39
27	3	24	25
28	4	24	36
29	4	24	37
30	3	25	26
31	4	25	34
32	4	25	35
33	3	26	27
34	4	26	32
35	4	26	33
36	7	27	28
37	4	27	30
38	4	27	31
39	6	28	29
40	8	28	61
41	1	40	41
42	3	41	42
43	4	41	59
44	4	41	60
45	3	42	43
46	4	42	57
47	4	42	58
48	3	43	44
49	4	43	55
50	4	43	56
51	3	44	45
52	4	44	53
53	4	44	54
54	3	45	46
55	4	45	51
56	4	45	52
57	9	46	47
58	4	46	49
59	4	46	50
60	10	47	48
61	6	61	62
62	7	61	63
63	3	63	64
64	4	63	80
65	4	63	81
66	3	64	65
67	4	64	78
68	4	64	79
69	3	65	66
70	4	65	76
71	4	65	77
72	3	66	67
73	4	66	74
74	4	66	75
75	7	67	68
76	4	67	72
77	4	67	73
78	6	68	69
79	11	68	70
80	10	70	71

Angles

1	5	11	6	12
2	1	40	41	59
3	1	42	43	44
4	1	21	23	39
5	5	30	27	31
6	5	38	23	39
7	5	78	64	79
8	1	7	6	11
9	1	40	41	42
10	4	29	28	61
11	3	8	21	22
12	1	4	5	6
13	1	25	26	32
14	1	45	46	49
15	1	64	63	81
16	1	65	66	74
17	1	65	66	67
18	4	67	68	69
19	1	65	66	75
20	5	76	65	77
21	1	45	44	54
22	4	28	61	62
23	1	7	6	12
24	1	44	43	56
25	1	68	67	73
26	1	24	25	34
27	5	57	42	58
28	1	42	43	56
29	2	7	8	21
30	2	1	40	41
31	1	4	5	14
32	1	46	45	52
33	1	5	6	12
34	1	3	4	5
35	1	44	45	46
36	4	28	61	63
37	5	74	66	75
38	1	23	24	36
39	1	26	27	31
40	1	25	26	27
41	1	6	5	13
42	1	27	26	32
43	1	4	3	18
44	1	3	4	16
45	1	43	44	54
46	1	26	25	35
47	1	1	2	3
48	5	9	7	10
49	1	44	45	52
50	1	63	64	78
51	1	25	24	36
52	1	3	2	19
53	1	26	27	28
54	1	66	67	73
55	5	55	43	56
56	5	34	25	35
57	2	46	47	48
58	1	43	44	53
59	1	2	3	18
60	1	65	64	78
61	1	61	63	64
62	1	24	25	26
63	1	68	67	72
64	1	64	65	77
65	5	36	24	37
66	5	17	3	18
67	5	53	44	54
68	5	32	26	33
69	1	47	46	50
70	1	45	44	53
71	1	26	25	34
72	1	46	45	51
73	1	5	4	16
74	1	43	44	45
75	1	6	5	14
76	1	1	2	20
77	1	4	3	17
78	1	45	46	50
79	1	42	41	59
80	5	49	46	50
81	3	69	68	70
82	1	8	7	9
83	1	27	26	33
84	1	21	23	24
85	1	26	27	30
86	1	5	6	7
87	1	44	45	51
88	1	66	67	72
89	1	64	65	66
90	2	2	1	40
91	1	6	7	8
92	1	8	7	10
93	1	25	26	33
94	1	67	66	74
95	1	43	42	57
96	1	42	41	60
97	1	67	66	75
98	1	3	4	15
99	1	43	42	58
100	1	1	2	19
101	1	47	46	49
102	5	72	67	73
103	5	59	41	60
104	1	63	64	79
105	1	2	3	17
106	1	28	27	31
107	2	68	70	71
108	4	62	61	63
109	1	64	65	76
110	4	8	21	23
111	1	6	7	9
112	1	23	24	37
113	1	23	24	25
114	5	80	63	81
115	1	24	23	39
116	1	5	6	11
117	1	45	46	47
118	1	6	7	10
119	1	65	64	79
120	1	28	27	30
121	1	40	41	60
122	1	25	24	37
123	1	2	3	4
124	1	61	63	81
125	1	63	64	65
126	1	41	42	57
127	1	64	63	80
128	4	67	68	70
129	1	41	42	58
130	1	4	5	13
131	5	19	2	20
132	4	27	28	29
133	4	27	28	61
134	4	22	21	23
135	1	66	67	68
136	1	21	23	38
137	1	3	2	20
138	1	44	43	55
139	1	5	4	15
140	1	41	42	43
141	1	61	63	80
142	1	42	43	55
143	1	66	65	77
144	5	15	4	16
145	1	24	23	38
146	1	24	25	35
147	1	66	65	76
148	5	13	5	14
149	5	51	45	52

Dihedrals

1	9	3	4	5	13
2	6	41	42	43	44
2	7	41	42	43	44
2	8	41	42	43	44
3	16	75	66	65	77
4	9	26	25	24	36
5	9	25	24	23	39
6	17	66	67	68	69
7	1	21	23	24	37
8	1	28	27	26	32
9	16	16	4	3	17
10	16	57	42	41	60
11	16	55	43	42	57
12	16	56	43	42	57
13	1	21	23	24	25
14	9	43	42	41	59
15	9	2	3	4	16
16	16	36	24	23	38
17	9	65	66	67	72
18	16	49	46	45	52
19	16	55	43	42	58
20	16	56	43	42	58
21	9	42	43	44	54
22	16	54	44	43	55
23	6	4	5	6	7
23	7	4	5	6	7
23	8	4	5	6	7
24	2	8	7	6	11
24	3	8	7	6	11
25	16	12	6	5	14
26	15	66	67	68	70
27	16	34	25	24	37
28	18	29	28	27	31
28	19	29	28	27	31
28	20	29	28	27	31
29	6	23	24	25	26
29	7	23	24	25	26
29	8	23	24	25	26
30	16	13	5	4	16
31	16	17	3	2	19
32	9	43	42	41	60
33	2	47	46	45	52
33	3	47	46	45	52
34	4	1	40	41	59
35	24	48	47	46	49
36	9	25	24	23	38
37	12	7	8	21	22
37	13	7	8	21	22
38	16	35	25	24	37
39	16	50	46	45	51
40	6	3	4	5	6
40	7	3	4	5	6
40	8	3	4	5	6
41	9	41	42	43	55
42	17	22	21	23	24
43	17	26	27	28	29
44	15	26	27	28	61
45	16	36	24	23	39
46	9	43	44	45	52
47	4	1	40	41	42
48	16	77	65	64	78
49	15	30	27	28	61
50	9	64	65	66	74
51	16	53	44	43	55
52	18	29	28	27	30
52	19	29	28	27	30
52	20	29	28	27	30
53	9	64	65	66	75
54	4	20	2	1	40
55	9	5	4	3	18
56	18	62	61	63	81
56	19	62	61	63	81
56	20	62	61	63	81
57	1	61	63	64	78
58	16	58	42	41	59
59	9	4	5	6	11
60	9	3	4	5	14
61	4	3	2	1	40
62	9	6	5	4	16
63	16	51	45	44	53
64	1	68	67	66	74
65	9	27	26	25	35
66	9	25	26	27	31
67	16	75	66	65	76
68	18	62	61	63	80
68	19	62	61	63	80
68	20	62	61	63	80
69	1	68	67	66	75
70	1	65	66	67	68
71	2	40	41	42	57
71	3	40	41	42	57
72	6	43	44	45	46
72	7	43	44	45	46
72	8	43	44	45	46
73	16	54	44	43	56
74	18	22	21	23	39
74	19	22	21	23	39
74	20	22	21	23	39
75	9	7	6	5	13
76	16	30	27	26	32
77	21	29	28	61	63
78	6	42	43	44	45
78	7	42	43	44	45
78	8	42	43	44	45
79	2	40	41	42	58
79	3	40	41	42	58
80	16	58	42	41	60
81	1	5	6	7	8
82	15	8	21	23	24
83	9	46	45	44	54
84	1	25	26	27	28
85	1	28	27	26	33
86	15	28	61	63	64
87	1	40	41	42	43
88	16	33	26	25	35
89	9	65	64	63	81
90	16	49	46	45	51
91	9	41	42	43	56
92	15	70	68	67	73
93	2	1	2	3	18
93	3	1	2	3	18
94	16	52	45	44	54
95	16	53	44	43	56
96	9	66	65	64	78
97	9	42	43	44	53
98	16	76	65	64	79
99	16	31	27	26	33
100	9	65	64	63	80
101	9	5	6	7	9
102	16	14	5	4	15
103	9	24	25	26	33
104	2	8	7	6	12
104	3	8	7	6	12
105	18	22	21	23	38
105	19	22	21	23	38
105	20	22	21	23	38
106	9	45	44	43	55
107	9	67	66	65	77
108	9	27	26	25	34
109	1	21	23	24	36
110	9	5	6	7	10
111	16	73	67	66	75
112	21	29	28	61	62
113	9	5	4	3	17
114	16	52	45	44	53
115	9	63	64	65	77
116	9	26	25	24	37
117	16	11	6	5	13
118	25	67	68	70	71
119	16	50	46	45	52
120	18	69	68	67	73
120	19	69	68	67	73
120	20	69	68	67	73
121	16	34	25	24	36
122	16	33	26	25	34
123	16	79	64	63	81
124	9	23	24	25	34
125	18	69	68	67	72
125	19	69	68	67	72
125	20	69	68	67	72
126	16	77	65	64	79
127	16	32	26	25	34
128	9	7	6	5	14
129	16	10	7	6	11
130	16	15	4	3	18
131	16	35	25	24	36
132	9	4	5	6	12
133	15	8	21	23	38
134	21	27	28	61	63
135	5	2	1	40	41
136	10	6	7	8	21
136	11	6	7	8	21
137	9	23	24	25	35
138	16	79	64	63	80
139	16	72	67	66	74
140	16	74	66	65	77
141	9	25	26	27	30
142	16	32	26	25	35
143	16	72	67	66	75
144	9	6	5	4	15
145	4	19	2	1	40
146	16	9	7	6	11
147	16	37	24	23	38
148	9	45	44	43	56
149	15	70	68	67	72
150	9	44	45	46	50
151	9	2	3	4	15
152	2	1	2	3	17
152	3	1	2	3	17
153	16	10	7	6	12
154	15	31	27	28	61
155	9	46	45	44	53
156	16	17	3	2	20
157	2	47	46	45	51
157	3	47	46	45	51
158	16	16	4	3	18
159	4	10	7	8	21
160	6	63	64	65	66
160	7	63	64	65	66
160	8	63	64	65	66
161	9	4	3	2	20
162	16	73	67	66	74
163	15	8	21	23	39
164	9	44	43	42	57
165	16	78	64	63	80
166	9	65	66	67	73
167	16	76	65	64	78
168	9	43	44	45	51
169	9	67	66	65	76
170	9	44	43	42	58
171	16	14	5	4	16
172	16	9	7	6	12
173	16	13	5	4	15
174	6	24	25	26	27
174	7	24	25	26	27
174	8	24	25	26	27
175	15	28	61	63	81
176	1	61	63	64	65
177	22	45	46	47	48
177	23	45	46	47	48
178	17	62	61	63	64
179	16	12	6	5	13
180	4	9	7	8	21
181	16	18	3	2	20
182	16	37	24	23	39
183	9	63	64	65	76
184	21	27	28	61	62
185	16	11	6	5	14
186	9	66	65	64	79
187	16	31	27	26	32
188	1	1	2	3	4
189	9	24	25	26	32
190	14	7	8	21	23
191	26	69	68	70	71
191	27	69	68	70	71
192	15	28	61	63	80
193	9	4	3	2	19
194	16	51	45	44	54
195	16	15	4	3	17
196	1	61	63	64	79
197	16	30	27	26	33
198	24	48	47	46	50
199	6	64	65	66	67
199	7	64	65	66	67
199	8	64	65	66	67
200	9	44	45	46	49
201	6	2	3	4	5
201	7	2	3	4	5
201	8	2	3	4	5
202	16	57	42	41	59
203	1	44	45	46	47
204	16	74	66	65	76
205	16	78	64	63	81
206	16	18	3	2	19
207	4	1	40	41	60

Impropers

41	2	61	28	62	63
46	1	21	8	22	23
180	2	61	63	28	62
376	2	28	29	61	27
390	1	21	23	8	22
402	1	21	22	23	8
423	2	28	27	29	61
472	2	28	61	27	29
495	1	68	67	69	70
545	2	61	62	63	28
547	1	68	70	67	69
549	1	68	69	70	67
