Title

81 atoms
80 bonds
149 angles
255 dihedrals
12 impropers

8 atom types
11 bond types
5 angle types
27 dihedral types
2 improper types
-4.046999931 95.95300007 xlo xhi
-3.177999973 96.82200003 ylo yhi
-5.56799984 94.43200016 zlo zhi
0.0 0.0 0.0 xy xz yz

Masses

1	15.99943
2	12.01078
3	1.007947
4	1.007947
5	12.01078
6	15.99943
7	15.99943
8	1.007947


Pair Coeffs

1	0.16846514	3.0251065
2	0.10884061	3.3795318
3	0.016409246	2.5832257
4	0.015779483	2.6445434
5	0.086879315	3.4806469
6	0.2102061	3.0398122
7	0.20947353	2.99716
8	1.2326e-05	0.53453923

Bond Coeffs

1 harmonic	366.7408841747	1.425895053732
2 harmonic	300.03137914615	1.451203938761
3 harmonic	264.62148576755	1.52190126495
4 harmonic	370.04670688625	1.093899492634
5 harmonic	301.15400723785	1.345741232799
6 harmonic	582.698766451	1.225198386222
7 harmonic	329.44145381095	1.523435958334
8 harmonic	279.1350963404	1.454628925034
9 harmonic	329.96998057905	1.427343958716
10 harmonic	543.5267831885	0.9716763312559
11 harmonic	385.7604595587	1.369745182308


Angle Coeffs

1 harmonic	53.20531626545	116.5475862634
2 harmonic	65.09061609600001	110.3538806181
3 harmonic	201.41175231035	127.4691416191
4 harmonic	57.8982893754	126.8062420451
5 harmonic	48.776492647595	115.6030999533


Dihedral Coeffs

1 fourier 1	0.1155372516788	3	0
2 fourier 1	0.1115525666802	3	0
3 fourier 1	0.3432490222662	1	0
4 fourier 1	0.0473758381877	3	0
5 fourier 1	0.457973137376	1	0
6 fourier 1	0.09223874044423	3	0
7 fourier 1	0.3159935921949	2	180
8 fourier 1	0.3247796806857	1	180
9 fourier 1	0.1040663847541	3	0
10 fourier 1	0.1918272375143	3	0
11 fourier 1	0.9202179876409	1	180
12 fourier 1	1.163809172478	2	180
13 fourier 1	0.1679186987369	1	180
14 fourier 1	2.779853741805	2	180
15 fourier 1	0.02664938770063	3	0
16 fourier 1	0.1911926717192	3	0
17 fourier 1	-0.3703352413219	2	0
18 fourier 1	0.4541676554336	1	0
19 fourier 1	0.1489710476446	2	0
20 fourier 1	0.02960027280666	3	180
21 fourier 1	0.9974165607242	2	180
22 fourier 1	0.3445382149273	3	0
23 fourier 1	0.1364556373303	1	0
24 fourier 1	0.3026390167484	3	0
25 fourier 1	2.687457892086	2	180
26 fourier 1	2.772607909663	2	180
27 fourier 1	0.09692684957115	1	0


Improper Coeffs

1 3.5	-1	2
2 0.3666666666666667	-1	2


Atoms

1	1	1	-0.179441	-3.8510001	0.213	1.086
2	1	2	0.033062998	-3.0139999	-0.426	0.162
3	1	2	-0.146999	-1.5880001	0.119	0.273
4	1	2	-0.14206401	-0.64399999	-0.602	-0.70099998
5	1	2	-0.14328	0.76700002	0.0049999999	-0.71600002
6	1	2	-0.140845	1.551	-0.289	0.574
7	1	2	0.13494299	3.0009999	0.18799999	0.47499999
8	1	1	-0.494827	3.043	1.5829999	0.35100001
9	1	3	0.078571998	3.497	-0.28999999	-0.40000001
10	1	3	0.078571998	3.5420001	-0.119	1.398
11	1	4	0.085640997	1.0700001	0.21600001	1.439
12	1	4	0.085640997	1.551	-1.3839999	0.76599997
13	1	4	0.081813	1.318	-0.43200001	-1.577
14	1	4	0.081813	0.70099998	1.102	-0.88099998
15	1	4	0.081984997	-0.58700001	-1.683	-0.44299999
16	1	4	0.081984997	-1.061	-0.523	-1.729
17	1	4	0.086653002	-1.597	1.2079999	0.046
18	1	4	0.086653002	-1.2359999	-0.023	1.316
19	1	3	0.078179002	-3.013	-1.515	0.384
20	1	3	0.078179002	-3.405	-0.28600001	-0.87300003
21	1	5	0.76139098	4.0479999	1.835	0.28299999
22	1	6	-0.55656499	4.4029999	2.6730001	-0.53100002
23	1	2	-0.208811	5.0419998	1.199	1.211
24	1	2	-0.116142	5.915	0.152	0.50300002
25	1	2	-0.130981	6.973	0.78600001	-0.414
26	1	2	-0.097847998	7.8959999	-0.28400001	-1.008
27	1	2	-0.257844	8.9469995	0.34599999	-1.929
28	1	5	0.51674199	9.8339996	-0.704	-2.5280001
29	1	6	-0.68962097	10.58	-1.362	-1.8200001
30	1	4	0.113284	8.4390001	0.89499998	-2.7509999
31	1	4	0.113284	9.5719995	1.067	-1.358
32	1	4	0.076522999	8.408	-0.82800001	-0.183
33	1	4	0.076522999	7.289	-1.0140001	-1.589
34	1	4	0.073706001	7.5809999	1.512	0.17
35	1	4	0.073706001	6.4710002	1.329	-1.243
36	1	4	0.085306004	5.2709999	-0.54100001	-0.082999997
37	1	4	0.085306004	6.4320002	-0.447	1.284
38	1	4	0.116489	5.6729999	1.9809999	1.686
39	1	4	0.116489	4.4780002	0.68900001	2.0209999
40	1	1	-0.179441	-4.0469999	1.114	0.71700001
41	1	2	0.033062998	-2.8110001	1.7539999	0.546
42	1	2	-0.146999	-2.099	1.209	-0.69499999
43	1	2	-0.142012	-0.76300001	1.9299999	-0.926
44	1	2	-0.137918	0.044	1.323	-2.0840001
45	1	2	-0.16892201	-0.57999998	1.6160001	-3.4579999
46	1	2	0.086245	0.31900001	1.14	-4.5999999
47	1	7	-0.68496102	0.44499999	-0.255	-4.5650001
48	1	8	0.37747401	1.04	-0.49599999	-5.322
49	1	3	0.068442002	1.321	1.617	-4.5170002
50	1	3	0.068442002	-0.139	1.446	-5.5679998
51	1	4	0.089005999	-1.566	1.1109999	-3.5480001
52	1	4	0.089005999	-0.73900002	2.711	-3.5669999
53	1	4	0.081984997	1.066	1.76	-2.0539999
54	1	4	0.081984997	0.14300001	0.22499999	-1.937
55	1	4	0.081984997	-0.94400001	3.01	-1.118
56	1	4	0.081984997	-0.149	1.851	-0.0020000001
57	1	4	0.086653002	-1.9170001	0.12	-0.56
58	1	4	0.086653002	-2.7639999	1.35	-1.574
59	1	3	0.078179002	-2.994	2.8429999	0.41999999
60	1	3	0.078179002	-2.177	1.614	1.451
61	1	5	0.51674199	9.8260002	-0.87300003	-3.5999999
62	1	6	-0.68962097	10.658	-0.31400001	-4.296
63	1	2	-0.257844	8.8140001	-1.786	-4.2309999
64	1	2	-0.097847998	7.829	-2.3640001	-3.2049999
65	1	2	-0.130981	6.8460002	-1.3049999	-2.6849999
66	1	2	-0.113626	5.8520002	-1.921	-1.689
67	1	2	-0.218907	4.895	-0.875	-1.101
68	1	5	0.823493	3.9449999	-0.34999999	-2.132
69	1	6	-0.55810201	2.9389999	-1.03	-2.47
70	1	7	-0.66582298	4.191	0.87699997	-2.7409999
71	1	8	0.393659	3.5650001	1.24	-3.451
72	1	4	0.11751	5.473	-0.035	-0.65899998
73	1	4	0.11751	4.309	-1.344	-0.28099999
74	1	4	0.085306004	5.2670002	-2.7260001	-2.1849999
75	1	4	0.085306004	6.4190001	-2.381	-0.85000002
76	1	4	0.073706001	7.4060001	-0.48800001	-2.1819999
77	1	4	0.073706001	6.289	-0.87300003	-3.5450001
78	1	4	0.076522999	7.2519999	-3.178	-3.697
79	1	4	0.076522999	8.3920002	-2.813	-2.3570001
80	1	4	0.113284	9.3549995	-2.625	-4.717
81	1	4	0.113284	8.2580004	-1.235	-5.0209999

Bonds

1	1	1	2
2	2	1	40
3	3	2	3
4	4	2	19
5	4	2	20
6	3	3	4
7	4	3	17
8	4	3	18
9	3	4	5
10	4	4	15
11	4	4	16
12	3	5	6
13	4	5	13
14	4	5	14
15	3	6	7
16	4	6	11
17	4	6	12
18	1	7	8
19	4	7	9
20	4	7	10
21	5	8	21
22	6	21	22
23	7	21	23
24	3	23	24
25	4	23	38
26	4	23	39
27	3	24	25
28	4	24	36
29	4	24	37
30	3	25	26
31	4	25	34
32	4	25	35
33	3	26	27
34	4	26	32
35	4	26	33
36	7	27	28
37	4	27	30
38	4	27	31
39	6	28	29
40	8	28	61
41	1	40	41
42	3	41	42
43	4	41	59
44	4	41	60
45	3	42	43
46	4	42	57
47	4	42	58
48	3	43	44
49	4	43	55
50	4	43	56
51	3	44	45
52	4	44	53
53	4	44	54
54	3	45	46
55	4	45	51
56	4	45	52
57	9	46	47
58	4	46	49
59	4	46	50
60	10	47	48
61	6	61	62
62	7	61	63
63	3	63	64
64	4	63	80
65	4	63	81
66	3	64	65
67	4	64	78
68	4	64	79
69	3	65	66
70	4	65	76
71	4	65	77
72	3	66	67
73	4	66	74
74	4	66	75
75	7	67	68
76	4	67	72
77	4	67	73
78	6	68	69
79	11	68	70
80	10	70	71

Angles

1	5	11	6	12
2	1	27	26	33
3	4	62	61	63
4	1	25	26	27
5	1	44	45	46
6	1	26	25	35
7	1	45	44	54
8	1	3	4	15
9	1	66	67	73
10	5	72	67	73
11	1	6	7	10
12	4	29	28	61
13	1	6	7	9
14	1	42	43	55
15	4	22	21	23
16	1	41	42	58
17	1	26	27	31
18	1	43	44	45
19	2	46	47	48
20	3	69	68	70
21	1	63	64	78
22	1	1	2	3
23	1	6	5	13
24	1	5	6	11
25	1	65	66	75
26	1	1	2	19
27	1	4	5	13
28	4	28	61	62
29	1	3	4	16
30	1	2	3	17
31	1	21	23	24
32	1	68	67	72
33	5	74	66	75
34	1	43	42	57
35	1	6	5	14
36	1	5	6	12
37	4	8	21	23
38	1	26	27	28
39	4	28	61	63
40	1	43	44	53
41	1	66	65	77
42	1	65	64	78
43	1	40	41	42
44	1	5	4	15
45	1	67	66	74
46	5	53	44	54
47	1	64	65	76
48	1	3	2	19
49	1	42	41	59
50	1	24	23	39
51	5	32	26	33
52	1	46	45	52
53	1	25	26	32
54	1	47	46	49
55	1	44	45	51
56	1	23	24	36
57	1	42	43	44
58	1	43	44	54
59	1	5	6	7
60	5	13	5	14
61	1	65	64	79
62	5	57	42	58
63	1	4	3	17
64	1	40	41	59
65	1	41	42	43
66	1	3	4	5
67	1	42	43	56
68	1	45	46	49
69	1	44	45	52
70	1	21	23	38
71	1	63	64	79
72	1	61	63	64
73	5	17	3	18
74	1	64	65	66
75	4	67	68	69
76	1	1	2	20
77	2	1	40	41
78	1	4	5	14
79	1	2	3	18
80	1	4	5	6
81	1	64	63	80
82	1	68	67	73
83	1	24	25	26
84	5	34	25	35
85	1	43	42	58
86	1	66	67	68
87	1	25	24	36
88	1	44	43	55
89	1	28	27	30
90	5	36	24	37
91	5	15	4	16
92	2	2	1	40
93	1	7	6	11
94	1	23	24	25
95	1	5	4	16
96	1	67	66	75
97	1	64	65	77
98	1	3	2	20
99	1	8	7	10
100	1	42	41	60
101	1	45	44	53
102	1	8	7	9
103	1	61	63	80
104	1	28	27	31
105	5	76	65	77
106	1	6	7	8
107	1	25	26	33
108	1	24	25	34
109	1	47	46	50
110	1	23	24	37
111	1	26	27	30
112	1	7	6	12
113	1	63	64	65
114	1	4	3	18
115	1	65	66	74
116	4	27	28	29
117	1	40	41	60
118	5	51	45	52
119	5	9	7	10
120	5	80	63	81
121	1	61	63	81
122	1	45	46	50
123	1	24	25	35
124	1	65	66	67
125	1	21	23	39
126	4	27	28	61
127	5	38	23	39
128	3	8	21	22
129	2	68	70	71
130	4	67	68	70
131	5	59	41	60
132	1	64	63	81
133	1	66	65	76
134	1	27	26	32
135	5	55	43	56
136	5	30	27	31
137	2	7	8	21
138	5	49	46	50
139	1	26	25	34
140	5	78	64	79
141	1	25	24	37
142	1	24	23	38
143	1	66	67	72
144	1	44	43	56
145	1	46	45	51
146	1	2	3	4
147	5	19	2	20
148	1	45	46	47
149	1	41	42	57

Dihedrals

1	16	31	27	26	32
2	16	77	65	64	79
3	10	6	7	8	21
3	11	6	7	8	21
4	16	35	25	24	36
5	9	67	66	65	77
6	9	42	43	44	53
7	16	13	5	4	16
8	9	25	26	27	30
9	9	46	45	44	54
10	9	6	5	4	15
11	12	7	8	21	22
11	13	7	8	21	22
12	2	40	41	42	58
12	3	40	41	42	58
13	16	58	42	41	59
14	16	56	43	42	57
15	15	70	68	67	72
16	2	1	2	3	18
16	3	1	2	3	18
17	16	9	7	6	12
18	9	5	4	3	17
19	9	44	45	46	50
20	9	66	65	64	78
21	4	19	2	1	40
22	16	50	46	45	51
23	15	8	21	23	38
24	16	36	24	23	39
25	16	35	25	24	37
26	21	27	28	61	63
27	16	33	26	25	34
28	9	42	43	44	54
29	2	8	7	6	11
29	3	8	7	6	11
30	1	61	63	64	65
31	16	34	25	24	36
32	9	26	25	24	36
33	6	41	42	43	44
33	7	41	42	43	44
33	8	41	42	43	44
34	16	56	43	42	58
35	16	58	42	41	60
36	9	5	6	7	10
37	18	29	28	27	31
37	19	29	28	27	31
37	20	29	28	27	31
38	9	5	6	7	9
39	9	5	4	3	18
40	2	47	46	45	51
40	3	47	46	45	51
41	16	72	67	66	74
42	9	43	44	45	52
43	16	17	3	2	19
44	16	16	4	3	17
45	16	57	42	41	59
46	9	45	44	43	56
47	16	10	7	6	12
48	9	27	26	25	34
49	6	2	3	4	5
49	7	2	3	4	5
49	8	2	3	4	5
50	16	15	4	3	18
51	16	12	6	5	13
52	9	41	42	43	56
53	16	51	45	44	53
54	16	34	25	24	37
55	1	44	45	46	47
56	16	14	5	4	15
57	17	66	67	68	69
58	9	25	24	23	38
59	17	62	61	63	64
60	9	3	4	5	13
61	16	73	67	66	75
62	16	79	64	63	81
63	6	24	25	26	27
63	7	24	25	26	27
63	8	24	25	26	27
64	2	47	46	45	52
64	3	47	46	45	52
65	16	72	67	66	75
66	16	32	26	25	35
67	5	2	1	40	41
68	16	76	65	64	78
69	9	44	43	42	58
70	1	65	66	67	68
71	16	74	66	65	76
72	15	28	61	63	81
73	1	68	67	66	74
74	18	22	21	23	38
74	19	22	21	23	38
74	20	22	21	23	38
75	16	51	45	44	54
76	9	63	64	65	76
77	16	14	5	4	16
78	16	31	27	26	33
79	1	40	41	42	43
80	9	25	26	27	31
81	9	4	3	2	19
82	9	6	5	4	16
83	16	11	6	5	13
84	14	7	8	21	23
85	15	70	68	67	73
86	9	65	66	67	72
87	16	54	44	43	55
88	16	53	44	43	55
89	16	18	3	2	19
90	18	62	61	63	80
90	19	62	61	63	80
90	20	62	61	63	80
91	9	66	65	64	79
92	16	50	46	45	52
93	15	8	21	23	39
94	1	61	63	64	78
95	1	28	27	26	32
96	16	33	26	25	35
97	2	8	7	6	12
97	3	8	7	6	12
98	4	1	40	41	42
99	4	9	7	8	21
100	18	69	68	67	72
100	19	69	68	67	72
100	20	69	68	67	72
101	16	11	6	5	14
102	9	4	5	6	11
103	9	26	25	24	37
104	1	1	2	3	4
105	6	43	44	45	46
105	7	43	44	45	46
105	8	43	44	45	46
106	16	78	64	63	80
107	16	30	27	26	32
108	1	21	23	24	36
109	25	67	68	70	71
110	1	25	26	27	28
111	15	8	21	23	24
112	6	23	24	25	26
112	7	23	24	25	26
112	8	23	24	25	26
113	16	53	44	43	56
114	18	62	61	63	81
114	19	62	61	63	81
114	20	62	61	63	81
115	6	63	64	65	66
115	7	63	64	65	66
115	8	63	64	65	66
116	16	17	3	2	20
117	16	16	4	3	18
118	16	55	43	42	57
119	16	57	42	41	60
120	16	52	45	44	53
121	9	27	26	25	35
122	9	24	25	26	32
123	1	28	27	26	33
124	18	69	68	67	73
124	19	69	68	67	73
124	20	69	68	67	73
125	16	12	6	5	14
126	21	29	28	61	62
127	9	4	5	6	12
128	24	48	47	46	49
129	15	66	67	68	70
130	9	25	24	23	39
131	9	3	4	5	14
132	9	46	45	44	53
133	16	13	5	4	15
134	17	26	27	28	29
135	9	65	64	63	80
136	2	40	41	42	57
136	3	40	41	42	57
137	9	43	42	41	59
138	16	76	65	64	79
139	16	74	66	65	77
140	16	75	66	65	76
141	9	23	24	25	34
142	4	10	7	8	21
143	9	64	65	66	74
144	18	22	21	23	39
144	19	22	21	23	39
144	20	22	21	23	39
145	21	29	28	61	63
146	9	63	64	65	77
147	1	68	67	66	75
148	15	26	27	28	61
149	9	44	45	46	49
150	24	48	47	46	50
151	16	37	24	23	38
152	4	3	2	1	40
153	6	4	5	6	7
153	7	4	5	6	7
153	8	4	5	6	7
154	16	36	24	23	38
155	21	27	28	61	62
156	9	4	3	2	20
157	6	64	65	66	67
157	7	64	65	66	67
157	8	64	65	66	67
158	9	65	64	63	81
159	15	28	61	63	64
160	16	49	46	45	51
161	17	22	21	23	24
162	9	43	42	41	60
163	18	29	28	27	30
163	19	29	28	27	30
163	20	29	28	27	30
164	9	65	66	67	73
165	1	5	6	7	8
166	16	75	66	65	77
167	9	23	24	25	35
168	9	64	65	66	75
169	16	54	44	43	56
170	1	21	23	24	25
171	16	18	3	2	20
172	9	43	44	45	51
173	16	37	24	23	39
174	9	2	3	4	15
175	9	45	44	43	55
176	16	10	7	6	11
177	26	69	68	70	71
177	27	69	68	70	71
178	1	61	63	64	79
179	16	15	4	3	17
180	9	41	42	43	55
181	6	42	43	44	45
181	7	42	43	44	45
181	8	42	43	44	45
182	16	49	46	45	52
183	4	1	40	41	59
184	9	7	6	5	13
185	16	78	64	63	81
186	16	30	27	26	33
187	4	20	2	1	40
188	1	21	23	24	37
189	16	73	67	66	74
190	16	77	65	64	78
191	9	67	66	65	76
192	16	79	64	63	80
193	6	3	4	5	6
193	7	3	4	5	6
193	8	3	4	5	6
194	15	31	27	28	61
195	16	32	26	25	34
196	16	55	43	42	58
197	9	2	3	4	16
198	16	52	45	44	54
199	15	30	27	28	61
200	9	44	43	42	57
201	9	24	25	26	33
202	2	1	2	3	17
202	3	1	2	3	17
203	16	9	7	6	11
204	15	28	61	63	80
205	22	45	46	47	48
205	23	45	46	47	48
206	4	1	40	41	60
207	9	7	6	5	14

Impropers

96	2	28	29	61	27
121	2	61	28	62	63
138	1	68	70	67	69
144	1	21	23	8	22
257	1	68	69	70	67
360	2	61	63	28	62
402	2	28	27	29	61
409	1	21	22	23	8
417	1	68	67	69	70
507	1	21	8	22	23
514	2	28	61	27	29
552	2	61	62	63	28
