Title

95 atoms
96 bonds
173 angles
287 dihedrals
48 impropers

9 atom types
12 bond types
6 angle types
23 dihedral types
2 improper types
-5.289000034 94.71099997 xlo xhi
-3.536000013 96.46399999 ylo yhi
-4.705999851 95.29400015 zlo zhi
0.0 0.0 0.0 xy xz yz

Masses

1	15.99943
2	12.01078
3	1.007947
4	1.007947
5	12.01078
6	15.99943
7	1.007947
8	15.99943
9	1.007947


Pair Coeffs

1	0.16846514	3.0251065
2	0.10884061	3.3795318
3	0.016409246	2.5832257
4	0.015779483	2.6445434
5	0.086879315	3.4806469
6	0.2102061	3.0398122
7	0.015611343	2.5725815
8	0.20947353	2.99716
9	1.2326e-05	0.53453923

Bond Coeffs

1 harmonic	366.7408841747	1.425895053732
2 harmonic	300.03137914615	1.451203938761
3 harmonic	264.62148576755	1.52190126495
4 harmonic	370.04670688625	1.093899492634
5 harmonic	301.15400723785	1.345741232799
6 harmonic	582.698766451	1.225198386222
7 harmonic	279.1350963404	1.454628925034
8 harmonic	360.7852444772	1.387193227181
9 harmonic	397.2545789619	1.085358495916
10 harmonic	329.96998057905	1.427343958716
11 harmonic	543.5267831885	0.9716763312559
12 harmonic	385.7604595587	1.369745182308


Angle Coeffs

1 harmonic	53.20531626545	116.5475862634
2 harmonic	65.09061609600001	110.3538806181
3 harmonic	201.41175231035	127.4691416191
4 harmonic	57.8982893754	126.8062420451
5 harmonic	48.776492647595	115.6030999533
6 harmonic	34.066775159195	129.1835929926


Dihedral Coeffs

1 fourier 1	0.1155372516788	3	0
2 fourier 1	0.1115525666802	3	0
3 fourier 1	0.3432490222662	1	0
4 fourier 1	0.0473758381877	3	0
5 fourier 1	0.457973137376	1	0
6 fourier 1	0.09223874044423	3	0
7 fourier 1	0.3159935921949	2	180
8 fourier 1	0.3247796806857	1	180
9 fourier 1	0.1040663847541	3	0
10 fourier 1	0.1918272375143	3	0
11 fourier 1	0.9202179876409	1	180
12 fourier 1	1.163809172478	2	180
13 fourier 1	0.1679186987369	1	180
14 fourier 1	2.779853741805	2	180
15 fourier 1	0.9974165607242	2	180
16 fourier 1	0.1911926717192	3	0
17 fourier 1	3.661930099076	2	180
18 fourier 1	0.3445382149273	3	0
19 fourier 1	0.1364556373303	1	0
20 fourier 1	0.3026390167484	3	0
21 fourier 1	2.687457892086	2	180
22 fourier 1	2.772607909663	2	180
23 fourier 1	0.09692684957115	1	0


Improper Coeffs

1 3.5	-1	2
2 0.3666666666666667	-1	2


Atoms

1	1	1	-0.166511	-3.987	2.6689999	0.88
2	1	2	0.036194999	-4.0469999	1.324	0.491
3	1	2	-0.144453	-2.6389999	0.72299999	0.44499999
4	1	2	-0.138291	-2.684	-0.75800002	0.041000001
5	1	2	-0.14072201	-1.3049999	-1.431	0.112
6	1	2	-0.139448	-0.34799999	-0.93300003	-0.98500001
7	1	2	-0.139448	0.94199997	-1.768	-1.074
8	1	2	-0.140772	1.801	-1.779	0.207
9	1	2	-0.13956299	2.217	-0.38999999	0.72399998
10	1	2	-0.139011	3.069	0.39199999	-0.289
11	1	2	0.13922299	3.6340001	1.681	0.315
12	1	1	-0.50694197	2.6040001	2.5910001	0.59600002
13	1	3	0.078734003	4.2350001	1.456	1.227
14	1	3	0.078734003	4.3189998	2.1470001	-0.42399999
15	1	4	0.092173003	2.4590001	0.65499997	-1.179
16	1	4	0.092173003	3.918	-0.242	-0.62400001
17	1	4	0.088026002	2.8110001	-0.54000002	1.652
18	1	4	0.088026002	1.318	0.197	1.006
19	1	4	0.086240999	1.253	-2.3099999	1.013
20	1	4	0.086240999	2.7179999	-2.375	0.0080000004
21	1	4	0.086240999	1.552	-1.3940001	-1.923
22	1	4	0.086240999	0.67199999	-2.8180001	-1.322
23	1	4	0.086240999	-0.861	-1	-1.969
24	1	4	0.086240999	-0.092	0.134	-0.82300001
25	1	4	0.086240999	-1.449	-2.527	-0.0070000002
26	1	4	0.086240999	-0.86299998	-1.2539999	1.1160001
27	1	4	0.088203996	-3.1010001	-0.85900003	-0.98500001
28	1	4	0.088203996	-3.365	-1.3	0.73500001
29	1	4	0.093292996	-2.033	1.295	-0.28799999
30	1	4	0.093292996	-2.1700001	0.824	1.448
31	1	3	0.086635001	-4.6620002	0.77100003	1.233
32	1	3	0.086635001	-4.54	1.2309999	-0.50300002
33	1	5	0.78733701	2.29	2.4000001	1.566
34	1	6	-0.57653999	3.099	2.576	2.5139999
35	1	5	-0.31001401	0.91600001	1.932	1.822
36	1	5	-0.113425	0.064999998	1.75	0.79799998
37	1	7	0.205429	0.375	1.944	-0.221
38	1	5	-0.070676997	-1.314	1.28	1.0470001
39	1	7	0.187793	-1.979	1.142	0.20200001
40	1	5	-0.37214801	-1.733	1.029	2.299
41	1	5	0.57739002	-3.109	0.56099999	2.5380001
42	1	6	-0.617428	-3.517	0.322	3.7049999
43	1	5	-0.070676997	-0.79400003	1.23	3.431
44	1	7	0.187793	-1.112	1.033	4.447
45	1	5	-0.113425	0.456	1.655	3.2060001
46	1	7	0.205429	1.127	1.796	4.0440001
47	1	1	-0.166511	-3.677	3.1800001	0.088
48	1	2	0.036194999	-3.9849999	4.526	0.333
49	1	2	-0.144453	-2.9820001	5.1259999	1.322
50	1	2	-0.138291	-3.289	6.6079998	1.5880001
51	1	2	-0.14072201	-2.2279999	7.2800002	2.4719999
52	1	2	-0.139448	-2.27	6.7820001	3.927
53	1	2	-0.139448	-1.383	7.6170001	4.868
54	1	2	-0.14072201	0.118	7.6279998	4.5100002
55	1	2	-0.134206	0.77399999	6.2389998	4.4130001
56	1	2	-0.16637699	0.71200001	5.4569998	5.7350001
57	1	2	0.089523003	1.5369999	4.1680002	5.6750002
58	1	8	-0.67999101	0.97100002	3.2579999	4.77
59	1	9	0.38500699	1.38	3.441	3.8840001
60	1	3	0.077909999	2.5969999	4.3930001	5.4120002
61	1	3	0.077909999	1.539	3.7019999	6.6830001
62	1	4	0.095648997	-0.34	5.1939998	5.974
63	1	4	0.095648997	1.109	6.092	6.5570002
64	1	4	0.088203996	1.84	6.3889999	4.1339998
65	1	4	0.088203996	0.30500001	5.652	3.596
66	1	4	0.086240999	0.26199999	8.1590004	3.5450001
67	1	4	0.086240999	0.65600002	8.224	5.2789998
68	1	4	0.086240999	-1.511	7.244	5.9060001
69	1	4	0.086240999	-1.749	8.6669998	4.8660002
70	1	4	0.086240999	-3.3139999	6.849	4.302
71	1	4	0.086240999	-1.972	5.7150002	3.9820001
72	1	4	0.086240999	-2.415	8.3760004	2.461
73	1	4	0.086240999	-1.222	7.1030002	2.0339999
74	1	4	0.088203996	-4.2919998	6.7080002	2.059
75	1	4	0.088203996	-3.3180001	7.1490002	0.61699998
76	1	4	0.093292996	-3.0350001	4.5539999	2.2720001
77	1	4	0.093292996	-1.957	5.0250001	0.903
78	1	3	0.086635001	-3.934	5.0780001	-0.63
79	1	3	0.086635001	-5.0219998	4.618	0.72899997
80	1	5	0.57739002	-3.789	0.417	1.706
81	1	6	-0.617428	-4.9250002	0.95899999	1.747
82	1	5	-0.37214801	-3.3829999	-0.40000001	0.55000001
83	1	5	-0.070676997	-2.168	-0.97100002	0.52200001
84	1	7	0.187793	-1.474	-0.83899999	1.344
85	1	5	-0.11097	-1.753	-1.793	-0.634
86	1	7	0.205429	-0.76499999	-2.2379999	-0.62300003
87	1	5	-0.29916599	-2.5869999	-1.98	-1.675
88	1	5	0.82519799	-2.187	-2.8	-2.8399999
89	1	6	-0.55494702	-1.05	-3.3440001	-2.8829999
90	1	8	-0.67992002	-3.069	-2.9779999	-3.902
91	1	9	0.396447	-2.809	-3.536	-4.7059999
92	1	5	-0.11097	-3.9300001	-1.348	-1.642
93	1	7	0.205429	-4.619	-1.484	-2.467
94	1	5	-0.070676997	-4.3049998	-0.60399997	-0.59500003
95	1	7	0.187793	-5.289	-0.152	-0.59100002

Bonds

1	1	1	2
2	2	1	47
3	3	2	3
4	4	2	31
5	4	2	32
6	3	3	4
7	4	3	29
8	4	3	30
9	3	4	5
10	4	4	27
11	4	4	28
12	3	5	6
13	4	5	25
14	4	5	26
15	3	6	7
16	4	6	23
17	4	6	24
18	3	7	8
19	4	7	21
20	4	7	22
21	3	8	9
22	4	8	19
23	4	8	20
24	3	9	10
25	4	9	17
26	4	9	18
27	3	10	11
28	4	10	15
29	4	10	16
30	1	11	12
31	4	11	13
32	4	11	14
33	5	12	33
34	6	33	34
35	7	33	35
36	8	35	36
37	8	35	45
38	9	36	37
39	8	36	38
40	9	38	39
41	8	38	40
42	7	40	41
43	8	40	43
44	6	41	42
45	7	41	80
46	9	43	44
47	8	43	45
48	9	45	46
49	1	47	48
50	3	48	49
51	4	48	78
52	4	48	79
53	3	49	50
54	4	49	76
55	4	49	77
56	3	50	51
57	4	50	74
58	4	50	75
59	3	51	52
60	4	51	72
61	4	51	73
62	3	52	53
63	4	52	70
64	4	52	71
65	3	53	54
66	4	53	68
67	4	53	69
68	3	54	55
69	4	54	66
70	4	54	67
71	3	55	56
72	4	55	64
73	4	55	65
74	3	56	57
75	4	56	62
76	4	56	63
77	10	57	58
78	4	57	60
79	4	57	61
80	11	58	59
81	6	80	81
82	7	80	82
83	8	82	83
84	8	82	94
85	9	83	84
86	8	83	85
87	9	85	86
88	8	85	87
89	7	87	88
90	8	87	92
91	6	88	89
92	12	88	90
93	11	90	91
94	9	92	93
95	8	92	94
96	9	94	95

Angles

1	1	6	7	8
2	1	57	56	62
3	1	4	3	29
4	2	88	90	91
5	1	56	55	65
6	1	10	9	17
7	1	56	57	58
8	1	54	55	65
9	1	49	48	78
10	1	12	11	14
11	1	53	54	55
12	1	5	4	27
13	4	87	88	90
14	1	50	49	76
15	1	52	51	72
16	4	81	80	82
17	5	27	4	28
18	4	42	41	80
19	1	54	53	68
20	6	83	85	86
21	4	40	43	45
22	1	8	9	17
23	5	78	48	79
24	1	2	3	30
25	1	51	52	71
26	4	85	87	92
27	1	49	50	75
28	1	5	6	24
29	1	52	53	54
30	1	47	48	78
31	6	40	43	44
32	4	87	88	89
33	5	19	8	20
34	1	50	51	73
35	1	7	6	23
36	1	11	10	16
37	1	6	5	26
38	5	31	2	32
39	4	85	87	88
40	1	7	8	9
41	4	80	82	83
42	1	12	11	13
43	1	9	10	11
44	1	54	53	69
45	1	48	49	77
46	1	55	56	57
47	4	82	83	85
48	1	4	5	25
49	1	1	2	31
50	5	62	56	63
51	1	58	57	61
52	1	11	10	15
53	4	38	40	43
54	4	40	41	80
55	4	83	82	94
56	1	5	6	7
57	6	92	94	95
58	1	47	48	49
59	6	82	83	84
60	5	64	55	65
61	1	8	9	10
62	1	55	54	67
63	1	55	56	62
64	1	3	2	32
65	4	12	33	35
66	1	55	54	66
67	1	4	3	30
68	5	15	10	16
69	5	70	52	71
70	4	41	40	43
71	6	35	45	46
72	1	57	56	63
73	5	66	54	67
74	5	23	6	24
75	1	49	50	74
76	1	50	51	52
77	1	8	9	18
78	1	50	49	77
79	1	10	11	14
80	1	53	52	70
81	1	5	4	28
82	5	68	53	69
83	1	48	49	50
84	6	84	83	85
85	1	3	2	31
86	6	36	38	39
87	5	76	49	77
88	1	4	5	26
89	1	52	53	68
90	4	36	35	45
91	1	6	7	21
92	1	51	52	53
93	1	58	57	60
94	3	89	88	90
95	4	38	40	41
96	1	55	56	63
97	4	80	82	94
98	5	13	11	14
99	5	25	5	26
100	5	74	50	75
101	1	7	8	20
102	1	50	51	72
103	5	60	57	61
104	4	34	33	35
105	1	56	57	61
106	1	3	4	27
107	1	9	8	20
108	5	21	7	22
109	1	10	9	18
110	2	57	58	59
111	3	12	33	34
112	1	47	48	79
113	6	82	94	95
114	6	39	38	40
115	1	51	50	75
116	4	40	41	42
117	1	52	53	69
118	1	8	7	22
119	4	41	80	82
120	1	10	11	13
121	5	17	9	18
122	1	5	6	23
123	4	41	80	81
124	1	3	4	28
125	4	33	35	36
126	1	48	49	76
127	1	49	48	79
128	1	56	57	60
129	1	1	2	3
130	1	7	8	19
131	1	7	6	24
132	6	35	36	37
133	1	49	50	51
134	1	2	3	29
135	6	43	45	46
136	1	9	8	19
137	1	52	51	73
138	1	6	5	25
139	1	56	55	64
140	6	37	36	38
141	5	29	3	30
142	1	54	55	64
143	1	2	3	4
144	1	51	50	74
145	6	87	92	93
146	6	86	85	87
147	1	9	10	16
148	2	1	47	48
149	4	87	92	94
150	1	4	5	6
151	4	33	35	45
152	1	10	11	12
153	6	44	43	45
154	1	54	55	56
155	1	51	52	70
156	4	82	94	92
157	2	2	1	47
158	1	8	7	21
159	6	93	92	94
160	1	53	54	67
161	1	9	10	15
162	4	36	38	40
163	1	53	54	66
164	4	35	45	43
165	4	83	85	87
166	4	35	36	38
167	2	11	12	33
168	1	1	2	32
169	1	6	7	22
170	5	72	51	73
171	1	3	4	5
172	1	53	52	71
173	4	88	87	92

Dihedrals

1	9	54	55	56	62
2	9	9	8	7	21
3	16	75	50	49	76
4	6	4	5	6	7
4	7	4	5	6	7
4	8	4	5	6	7
5	16	76	49	48	79
6	17	82	83	85	87
7	17	36	35	45	46
8	9	48	49	50	75
9	16	28	4	3	30
10	9	51	50	49	77
11	18	56	57	58	59
11	19	56	57	58	59
12	4	1	47	48	79
13	17	41	40	43	45
14	9	50	49	48	79
15	9	52	51	50	75
16	12	11	12	33	34
16	13	11	12	33	34
17	16	17	9	8	20
18	16	20	8	7	22
19	16	21	7	6	24
20	16	30	3	2	31
21	17	83	85	87	88
22	6	6	7	8	9
22	7	6	7	8	9
22	8	6	7	8	9
23	1	55	56	57	58
24	9	56	55	54	67
25	16	74	50	49	77
26	6	3	4	5	6
26	7	3	4	5	6
26	8	3	4	5	6
27	17	35	36	38	40
28	16	22	7	6	24
29	9	56	55	54	66
30	16	61	57	56	63
31	17	86	85	87	92
32	21	87	88	90	91
33	17	82	94	92	93
34	17	37	36	38	40
35	15	42	41	80	82
36	16	15	10	9	18
37	1	47	48	49	50
38	9	54	55	56	63
39	16	14	11	10	16
40	15	41	80	82	83
41	15	42	41	80	81
42	20	59	58	57	61
43	17	44	43	45	46
44	15	40	41	80	82
45	17	36	38	40	41
46	17	39	38	40	41
47	15	40	41	80	81
48	15	42	41	40	43
49	15	38	40	41	42
50	15	90	88	87	92
51	15	12	33	35	45
52	16	62	56	55	65
53	16	60	57	56	63
54	16	77	49	48	78
55	9	5	6	7	21
56	16	69	53	52	70
57	2	1	2	3	30
57	3	1	2	3	30
58	16	16	10	9	17
59	17	85	87	92	93
60	16	14	11	10	15
61	16	27	4	3	30
62	17	33	35	36	37
63	16	25	5	4	28
64	16	68	53	52	70
65	17	82	83	85	86
66	16	72	51	50	74
67	17	84	83	85	86
68	17	85	87	92	94
69	17	35	45	43	40
70	9	10	9	8	19
71	17	35	45	43	44
72	9	57	56	55	64
73	9	48	49	50	74
74	17	38	40	43	44
75	9	52	51	50	74
76	16	67	54	53	68
77	9	8	7	6	24
78	17	40	43	45	46
79	16	70	52	51	73
80	9	55	54	53	68
81	15	43	40	41	80
82	4	32	2	1	47
83	16	17	9	8	19
84	9	4	5	6	23
85	9	9	10	11	14
86	20	59	58	57	60
87	17	80	82	94	92
88	4	13	11	12	33
89	9	7	8	9	17
90	9	11	10	9	17
91	9	49	50	51	73
92	9	6	5	4	28
93	9	7	6	5	25
94	16	64	55	54	67
95	17	33	35	45	43
96	16	63	56	55	64
97	9	6	7	8	20
98	16	26	5	4	27
99	16	64	55	54	66
100	17	85	83	82	94
101	15	41	80	82	94
102	9	50	49	48	78
103	9	54	53	52	71
104	2	47	48	49	76
104	3	47	48	49	76
105	17	83	82	94	92
106	6	51	52	53	54
106	7	51	52	53	54
106	8	51	52	53	54
107	15	34	33	35	36
108	15	89	88	87	92
109	9	5	4	3	29
110	16	67	54	53	69
111	9	55	54	53	69
112	16	71	52	51	73
113	17	38	40	43	45
114	17	86	85	87	88
115	9	4	3	2	32
116	6	8	9	10	11
116	7	8	9	10	11
116	8	8	9	10	11
117	9	9	8	7	22
118	9	57	56	55	65
119	16	24	6	5	25
120	16	66	54	53	68
121	9	2	3	4	27
122	16	71	52	51	72
123	16	18	9	8	20
124	16	23	6	5	25
125	17	38	36	35	45
126	16	74	50	49	76
127	6	49	50	51	52
127	7	49	50	51	52
127	8	49	50	51	52
128	9	3	4	5	25
129	9	9	10	11	13
130	9	50	51	52	71
131	4	3	2	1	47
132	16	19	8	7	22
133	16	73	51	50	75
134	16	21	7	6	23
135	6	7	8	9	10
135	7	7	8	9	10
135	8	7	8	9	10
136	17	36	35	45	43
137	16	22	7	6	23
138	9	52	53	54	67
139	9	2	3	4	28
140	9	52	53	54	66
141	16	70	52	51	72
142	16	63	56	55	65
143	15	34	33	35	45
144	16	75	50	49	77
145	9	55	56	57	61
146	6	50	51	52	53
146	7	50	51	52	53
146	8	50	51	52	53
147	9	6	7	8	19
148	16	15	10	9	17
149	16	76	49	48	78
150	16	20	8	7	21
151	6	48	49	50	51
151	7	48	49	50	51
151	8	48	49	50	51
152	9	53	52	51	73
153	2	12	11	10	16
153	3	12	11	10	16
154	17	35	36	38	39
155	16	66	54	53	69
156	4	1	47	48	78
157	9	49	50	51	72
158	9	53	54	55	64
159	16	28	4	3	29
160	17	33	35	36	38
161	16	24	6	5	26
162	9	5	6	7	22
163	16	13	11	10	15
164	17	87	92	94	95
165	17	37	36	38	39
166	9	51	52	53	68
167	16	23	6	5	26
168	6	5	6	7	8
168	7	5	6	7	8
168	8	5	6	7	8
169	2	12	11	10	15
169	3	12	11	10	15
170	9	3	4	5	26
171	4	31	2	1	47
172	17	39	38	40	43
173	6	53	54	55	56
173	7	53	54	55	56
173	8	53	54	55	56
174	9	51	50	49	76
175	2	58	57	56	62
175	3	58	57	56	62
176	2	47	48	49	77
176	3	47	48	49	77
177	16	65	55	54	67
178	15	81	80	82	83
179	17	80	82	83	85
180	16	65	55	54	66
181	6	52	53	54	55
181	7	52	53	54	55
181	8	52	53	54	55
182	16	18	9	8	19
183	16	26	5	4	28
184	16	69	53	52	71
185	16	30	3	2	32
186	16	16	10	9	18
187	15	85	87	88	90
188	22	89	88	90	91
188	23	89	88	90	91
189	17	83	85	87	92
190	16	68	53	52	71
191	17	84	83	85	87
192	9	8	7	6	23
193	17	93	92	94	95
194	1	9	10	11	12
195	16	73	51	50	74
196	17	80	82	94	95
197	17	80	82	83	84
198	4	1	47	48	49
199	9	7	6	5	26
200	9	8	9	10	16
201	9	55	56	57	60
202	16	60	57	56	62
203	9	5	4	3	30
204	16	19	8	7	21
205	9	4	3	2	31
206	17	33	35	45	46
207	2	1	2	3	29
207	3	1	2	3	29
208	9	51	52	53	69
209	17	83	82	94	95
210	16	27	4	3	29
211	2	58	57	56	63
211	3	58	57	56	63
212	16	77	49	48	79
213	16	13	11	10	16
214	9	4	5	6	24
215	5	2	1	47	48
216	9	54	53	52	70
217	14	11	12	33	35
218	9	8	9	10	15
219	16	25	5	4	27
220	17	41	40	43	44
221	17	82	94	92	87
222	15	85	87	88	89
223	9	7	8	9	18
224	9	11	10	9	18
225	15	38	40	41	80
226	9	53	54	55	65
227	1	1	2	3	4
228	6	2	3	4	5
228	7	2	3	4	5
228	8	2	3	4	5
229	4	14	11	12	33
230	9	50	51	52	70
231	16	29	3	2	32
232	9	53	52	51	72
233	6	54	55	56	57
233	7	54	55	56	57
233	8	54	55	56	57
234	17	84	83	82	94
235	15	81	80	82	94
236	16	62	56	55	64
237	17	36	38	40	43
238	17	88	87	92	93
239	10	10	11	12	33
239	11	10	11	12	33
240	17	37	36	35	45
241	16	61	57	56	62
242	15	12	33	35	36
243	17	88	87	92	94
244	9	6	5	4	27
245	16	29	3	2	31
246	16	72	51	50	75
247	9	10	9	8	20

Impropers

8	1	33	12	34	35
13	2	87	92	85	88
25	1	88	87	89	90
58	2	82	94	80	83
75	2	94	95	82	92
77	2	45	43	46	35
83	2	92	93	94	87
112	1	88	89	90	87
136	2	40	38	41	43
187	2	40	41	43	38
194	2	94	82	92	95
212	1	33	34	35	12
213	2	87	88	92	85
228	2	85	87	83	86
237	2	85	83	86	87
243	2	43	40	44	45
272	2	80	41	81	82
273	2	94	92	95	82
274	2	35	36	45	33
281	2	41	42	80	40
297	2	41	80	40	42
311	2	92	94	87	93
322	2	82	83	94	80
326	2	82	80	83	94
341	2	85	86	87	83
351	2	35	33	36	45
370	2	43	44	45	40
371	2	38	39	40	36
392	2	43	45	40	44
410	2	83	82	84	85
417	2	36	35	37	38
422	2	83	84	85	82
427	2	45	46	35	43
444	2	87	85	88	92
452	2	40	43	38	41
456	2	92	87	93	94
462	2	35	45	33	36
474	2	38	36	39	40
495	2	80	82	41	81
508	2	36	38	35	37
519	2	45	35	43	46
523	2	41	40	42	80
524	1	33	35	12	34
530	2	38	40	36	39
534	2	36	37	38	35
542	2	80	81	82	41
564	2	83	85	82	84
570	1	88	90	87	89
