Title

95 atoms
96 bonds
173 angles
287 dihedrals
48 impropers

9 atom types
12 bond types
6 angle types
23 dihedral types
2 improper types
-5.289000034 94.71099997 xlo xhi
-3.536000013 96.46399999 ylo yhi
-4.705999851 95.29400015 zlo zhi
0.0 0.0 0.0 xy xz yz

Masses

1	15.99943
2	12.01078
3	1.007947
4	1.007947
5	12.01078
6	15.99943
7	1.007947
8	15.99943
9	1.007947


Pair Coeffs

1	0.16846514	3.0251065
2	0.10884061	3.3795318
3	0.016409246	2.5832257
4	0.015779483	2.6445434
5	0.086879315	3.4806469
6	0.2102061	3.0398122
7	0.015611343	2.5725815
8	0.20947353	2.99716
9	1.2326e-05	0.53453923

Bond Coeffs

1 harmonic	366.7408841747	1.425895053732
2 harmonic	300.03137914615	1.451203938761
3 harmonic	264.62148576755	1.52190126495
4 harmonic	370.04670688625	1.093899492634
5 harmonic	301.15400723785	1.345741232799
6 harmonic	582.698766451	1.225198386222
7 harmonic	279.1350963404	1.454628925034
8 harmonic	360.7852444772	1.387193227181
9 harmonic	397.2545789619	1.085358495916
10 harmonic	329.96998057905	1.427343958716
11 harmonic	543.5267831885	0.9716763312559
12 harmonic	385.7604595587	1.369745182308


Angle Coeffs

1 harmonic	53.20531626545	116.5475862634
2 harmonic	65.09061609600001	110.3538806181
3 harmonic	201.41175231035	127.4691416191
4 harmonic	57.8982893754	126.8062420451
5 harmonic	48.776492647595	115.6030999533
6 harmonic	34.066775159195	129.1835929926


Dihedral Coeffs

1 fourier 1	0.1155372516788	3	0
2 fourier 1	0.1115525666802	3	0
3 fourier 1	0.3432490222662	1	0
4 fourier 1	0.0473758381877	3	0
5 fourier 1	0.457973137376	1	0
6 fourier 1	0.09223874044423	3	0
7 fourier 1	0.3159935921949	2	180
8 fourier 1	0.3247796806857	1	180
9 fourier 1	0.1040663847541	3	0
10 fourier 1	0.1918272375143	3	0
11 fourier 1	0.9202179876409	1	180
12 fourier 1	1.163809172478	2	180
13 fourier 1	0.1679186987369	1	180
14 fourier 1	2.779853741805	2	180
15 fourier 1	0.9974165607242	2	180
16 fourier 1	0.1911926717192	3	0
17 fourier 1	3.661930099076	2	180
18 fourier 1	0.3445382149273	3	0
19 fourier 1	0.1364556373303	1	0
20 fourier 1	0.3026390167484	3	0
21 fourier 1	2.687457892086	2	180
22 fourier 1	2.772607909663	2	180
23 fourier 1	0.09692684957115	1	0


Improper Coeffs

1 3.5	-1	2
2 0.3666666666666667	-1	2


Atoms

1	1	1	-0.166511	-3.987	2.6689999	0.88
2	1	2	0.036194999	-4.0469999	1.324	0.491
3	1	2	-0.144453	-2.6389999	0.72299999	0.44499999
4	1	2	-0.138291	-2.684	-0.75800002	0.041000001
5	1	2	-0.14072201	-1.3049999	-1.431	0.112
6	1	2	-0.139448	-0.34799999	-0.93300003	-0.98500001
7	1	2	-0.139448	0.94199997	-1.768	-1.074
8	1	2	-0.140772	1.801	-1.779	0.207
9	1	2	-0.13956299	2.217	-0.38999999	0.72399998
10	1	2	-0.139011	3.069	0.39199999	-0.289
11	1	2	0.13922299	3.6340001	1.681	0.315
12	1	1	-0.50694197	2.6040001	2.5910001	0.59600002
13	1	3	0.078734003	4.2350001	1.456	1.227
14	1	3	0.078734003	4.3189998	2.1470001	-0.42399999
15	1	4	0.092173003	2.4590001	0.65499997	-1.179
16	1	4	0.092173003	3.918	-0.242	-0.62400001
17	1	4	0.088026002	2.8110001	-0.54000002	1.652
18	1	4	0.088026002	1.318	0.197	1.006
19	1	4	0.086240999	1.253	-2.3099999	1.013
20	1	4	0.086240999	2.7179999	-2.375	0.0080000004
21	1	4	0.086240999	1.552	-1.3940001	-1.923
22	1	4	0.086240999	0.67199999	-2.8180001	-1.322
23	1	4	0.086240999	-0.861	-1	-1.969
24	1	4	0.086240999	-0.092	0.134	-0.82300001
25	1	4	0.086240999	-1.449	-2.527	-0.0070000002
26	1	4	0.086240999	-0.86299998	-1.2539999	1.1160001
27	1	4	0.088203996	-3.1010001	-0.85900003	-0.98500001
28	1	4	0.088203996	-3.365	-1.3	0.73500001
29	1	4	0.093292996	-2.033	1.295	-0.28799999
30	1	4	0.093292996	-2.1700001	0.824	1.448
31	1	3	0.086635001	-4.6620002	0.77100003	1.233
32	1	3	0.086635001	-4.54	1.2309999	-0.50300002
33	1	5	0.78733701	2.29	2.4000001	1.566
34	1	6	-0.57653999	3.099	2.576	2.5139999
35	1	5	-0.31001401	0.91600001	1.932	1.822
36	1	5	-0.113425	0.064999998	1.75	0.79799998
37	1	7	0.205429	0.375	1.944	-0.221
38	1	5	-0.070676997	-1.314	1.28	1.0470001
39	1	7	0.187793	-1.979	1.142	0.20200001
40	1	5	-0.37214801	-1.733	1.029	2.299
41	1	5	0.57739002	-3.109	0.56099999	2.5380001
42	1	6	-0.617428	-3.517	0.322	3.7049999
43	1	5	-0.070676997	-0.79400003	1.23	3.431
44	1	7	0.187793	-1.112	1.033	4.447
45	1	5	-0.113425	0.456	1.655	3.2060001
46	1	7	0.205429	1.127	1.796	4.0440001
47	1	1	-0.166511	-3.677	3.1800001	0.088
48	1	2	0.036194999	-3.9849999	4.526	0.333
49	1	2	-0.144453	-2.9820001	5.1259999	1.322
50	1	2	-0.138291	-3.289	6.6079998	1.5880001
51	1	2	-0.14072201	-2.2279999	7.2800002	2.4719999
52	1	2	-0.139448	-2.27	6.7820001	3.927
53	1	2	-0.139448	-1.383	7.6170001	4.868
54	1	2	-0.14072201	0.118	7.6279998	4.5100002
55	1	2	-0.134206	0.77399999	6.2389998	4.4130001
56	1	2	-0.16637699	0.71200001	5.4569998	5.7350001
57	1	2	0.089523003	1.5369999	4.1680002	5.6750002
58	1	8	-0.67999101	0.97100002	3.2579999	4.77
59	1	9	0.38500699	1.38	3.441	3.8840001
60	1	3	0.077909999	2.5969999	4.3930001	5.4120002
61	1	3	0.077909999	1.539	3.7019999	6.6830001
62	1	4	0.095648997	-0.34	5.1939998	5.974
63	1	4	0.095648997	1.109	6.092	6.5570002
64	1	4	0.088203996	1.84	6.3889999	4.1339998
65	1	4	0.088203996	0.30500001	5.652	3.596
66	1	4	0.086240999	0.26199999	8.1590004	3.5450001
67	1	4	0.086240999	0.65600002	8.224	5.2789998
68	1	4	0.086240999	-1.511	7.244	5.9060001
69	1	4	0.086240999	-1.749	8.6669998	4.8660002
70	1	4	0.086240999	-3.3139999	6.849	4.302
71	1	4	0.086240999	-1.972	5.7150002	3.9820001
72	1	4	0.086240999	-2.415	8.3760004	2.461
73	1	4	0.086240999	-1.222	7.1030002	2.0339999
74	1	4	0.088203996	-4.2919998	6.7080002	2.059
75	1	4	0.088203996	-3.3180001	7.1490002	0.61699998
76	1	4	0.093292996	-3.0350001	4.5539999	2.2720001
77	1	4	0.093292996	-1.957	5.0250001	0.903
78	1	3	0.086635001	-3.934	5.0780001	-0.63
79	1	3	0.086635001	-5.0219998	4.618	0.72899997
80	1	5	0.57739002	-3.789	0.417	1.706
81	1	6	-0.617428	-4.9250002	0.95899999	1.747
82	1	5	-0.37214801	-3.3829999	-0.40000001	0.55000001
83	1	5	-0.070676997	-2.168	-0.97100002	0.52200001
84	1	7	0.187793	-1.474	-0.83899999	1.344
85	1	5	-0.11097	-1.753	-1.793	-0.634
86	1	7	0.205429	-0.76499999	-2.2379999	-0.62300003
87	1	5	-0.29916599	-2.5869999	-1.98	-1.675
88	1	5	0.82519799	-2.187	-2.8	-2.8399999
89	1	6	-0.55494702	-1.05	-3.3440001	-2.8829999
90	1	8	-0.67992002	-3.069	-2.9779999	-3.902
91	1	9	0.396447	-2.809	-3.536	-4.7059999
92	1	5	-0.11097	-3.9300001	-1.348	-1.642
93	1	7	0.205429	-4.619	-1.484	-2.467
94	1	5	-0.070676997	-4.3049998	-0.60399997	-0.59500003
95	1	7	0.187793	-5.289	-0.152	-0.59100002

Bonds

1	1	1	2
2	2	1	47
3	3	2	3
4	4	2	31
5	4	2	32
6	3	3	4
7	4	3	29
8	4	3	30
9	3	4	5
10	4	4	27
11	4	4	28
12	3	5	6
13	4	5	25
14	4	5	26
15	3	6	7
16	4	6	23
17	4	6	24
18	3	7	8
19	4	7	21
20	4	7	22
21	3	8	9
22	4	8	19
23	4	8	20
24	3	9	10
25	4	9	17
26	4	9	18
27	3	10	11
28	4	10	15
29	4	10	16
30	1	11	12
31	4	11	13
32	4	11	14
33	5	12	33
34	6	33	34
35	7	33	35
36	8	35	36
37	8	35	45
38	9	36	37
39	8	36	38
40	9	38	39
41	8	38	40
42	7	40	41
43	8	40	43
44	6	41	42
45	7	41	80
46	9	43	44
47	8	43	45
48	9	45	46
49	1	47	48
50	3	48	49
51	4	48	78
52	4	48	79
53	3	49	50
54	4	49	76
55	4	49	77
56	3	50	51
57	4	50	74
58	4	50	75
59	3	51	52
60	4	51	72
61	4	51	73
62	3	52	53
63	4	52	70
64	4	52	71
65	3	53	54
66	4	53	68
67	4	53	69
68	3	54	55
69	4	54	66
70	4	54	67
71	3	55	56
72	4	55	64
73	4	55	65
74	3	56	57
75	4	56	62
76	4	56	63
77	10	57	58
78	4	57	60
79	4	57	61
80	11	58	59
81	6	80	81
82	7	80	82
83	8	82	83
84	8	82	94
85	9	83	84
86	8	83	85
87	9	85	86
88	8	85	87
89	7	87	88
90	8	87	92
91	6	88	89
92	12	88	90
93	11	90	91
94	9	92	93
95	8	92	94
96	9	94	95

Angles

1	5	78	48	79
2	1	6	5	26
3	1	7	6	23
4	4	38	40	43
5	1	52	51	72
6	4	87	92	94
7	4	36	35	45
8	1	58	57	61
9	1	4	3	29
10	5	13	11	14
11	4	35	45	43
12	4	81	80	82
13	6	84	83	85
14	4	87	88	89
15	4	33	35	45
16	1	5	4	27
17	4	80	82	94
18	1	1	2	3
19	1	4	5	6
20	1	8	7	21
21	1	11	10	15
22	1	53	52	70
23	5	60	57	61
24	4	41	80	82
25	1	52	51	73
26	1	48	49	76
27	1	12	11	14
28	1	49	50	74
29	1	4	3	30
30	1	8	9	17
31	1	54	55	64
32	5	31	2	32
33	4	41	40	43
34	4	36	38	40
35	1	51	50	75
36	5	64	55	65
37	4	35	36	38
38	1	1	2	31
39	1	52	53	54
40	1	53	52	71
41	1	55	56	57
42	5	23	6	24
43	1	3	4	28
44	6	82	94	95
45	1	48	49	77
46	1	10	11	12
47	1	50	51	72
48	1	8	9	18
49	1	55	56	62
50	1	50	51	52
51	1	9	8	19
52	1	54	55	56
53	1	5	6	24
54	1	47	48	49
55	1	1	2	32
56	1	7	8	9
57	5	72	51	73
58	2	1	47	48
59	1	5	6	7
60	1	9	10	15
61	1	10	11	13
62	4	42	41	80
63	1	3	2	31
64	1	7	6	24
65	1	9	8	20
66	1	9	10	11
67	1	56	55	64
68	6	43	45	46
69	1	3	4	5
70	6	40	43	44
71	4	85	87	88
72	1	8	9	10
73	4	87	88	90
74	4	40	41	80
75	1	56	57	60
76	1	9	10	16
77	6	86	85	87
78	5	19	8	20
79	5	74	50	75
80	1	5	4	28
81	1	6	7	8
82	1	3	2	32
83	1	8	7	22
84	1	11	10	16
85	1	48	49	50
86	1	51	52	53
87	2	11	12	33
88	1	6	7	21
89	1	57	56	62
90	1	49	50	75
91	6	37	36	38
92	1	52	53	68
93	4	88	87	92
94	1	2	3	4
95	4	85	87	92
96	1	4	5	25
97	1	47	48	78
98	1	54	55	65
99	4	38	40	41
100	1	2	3	29
101	5	27	4	28
102	5	68	53	69
103	5	62	56	63
104	2	88	90	91
105	1	6	7	22
106	1	49	50	51
107	1	50	51	73
108	3	12	33	34
109	1	53	54	66
110	5	15	10	16
111	1	55	56	63
112	1	47	48	79
113	1	6	5	25
114	4	34	33	35
115	4	82	94	92
116	1	49	48	78
117	6	87	92	93
118	3	89	88	90
119	5	25	5	26
120	6	44	43	45
121	4	33	35	36
122	6	36	38	39
123	1	58	57	60
124	1	54	53	68
125	1	10	11	14
126	5	66	54	67
127	6	83	85	86
128	6	92	94	95
129	1	50	49	76
130	4	41	80	81
131	1	49	48	79
132	5	21	7	22
133	6	39	38	40
134	1	7	8	19
135	1	12	11	13
136	1	55	54	66
137	1	56	55	65
138	6	82	83	84
139	1	54	53	69
140	4	40	43	45
141	5	29	3	30
142	1	56	57	61
143	5	70	52	71
144	1	51	50	74
145	4	83	85	87
146	6	35	36	37
147	1	50	49	77
148	6	93	92	94
149	1	3	4	27
150	1	57	56	63
151	2	2	1	47
152	1	7	8	20
153	1	10	9	17
154	1	55	54	67
155	1	52	53	69
156	1	51	52	70
157	4	82	83	85
158	6	35	45	46
159	1	53	54	55
160	4	83	82	94
161	1	4	5	26
162	2	57	58	59
163	1	2	3	30
164	1	5	6	23
165	4	80	82	83
166	5	17	9	18
167	5	76	49	77
168	4	40	41	42
169	1	56	57	58
170	1	53	54	67
171	1	10	9	18
172	4	12	33	35
173	1	51	52	71

Dihedrals

1	16	23	6	5	26
2	9	55	54	53	69
3	6	48	49	50	51
3	7	48	49	50	51
3	8	48	49	50	51
4	17	86	85	87	92
5	17	84	83	85	87
6	16	26	5	4	27
7	9	7	8	9	17
8	9	52	51	50	75
9	6	6	7	8	9
9	7	6	7	8	9
9	8	6	7	8	9
10	16	22	7	6	23
11	17	33	35	36	37
12	4	3	2	1	47
13	17	35	36	38	40
14	9	55	56	57	61
15	17	80	82	83	85
16	16	77	49	48	79
17	17	37	36	38	39
18	16	18	9	8	19
19	17	33	35	45	46
20	9	3	4	5	26
21	2	47	48	49	76
21	3	47	48	49	76
22	9	8	9	10	15
23	9	51	50	49	76
24	17	39	38	40	43
25	16	17	9	8	19
26	9	4	5	6	24
27	5	2	1	47	48
28	6	50	51	52	53
28	7	50	51	52	53
28	8	50	51	52	53
29	9	54	53	52	71
30	16	73	51	50	74
31	17	41	40	43	44
32	17	87	92	94	95
33	16	66	54	53	68
34	17	85	83	82	94
35	4	1	47	48	78
36	16	70	52	51	72
37	6	4	5	6	7
37	7	4	5	6	7
37	8	4	5	6	7
38	9	51	52	53	69
39	9	8	7	6	23
40	15	12	33	35	45
41	9	4	3	2	31
42	16	60	57	56	62
43	16	18	9	8	20
44	15	43	40	41	80
45	17	36	35	45	43
46	9	8	9	10	16
47	2	47	48	49	77
47	3	47	48	49	77
48	16	63	56	55	64
49	1	55	56	57	58
50	16	64	55	54	66
51	9	50	49	48	78
52	9	57	56	55	64
53	16	71	52	51	73
54	16	73	51	50	75
55	16	69	53	52	71
56	9	6	7	8	19
57	17	41	40	43	45
58	16	24	6	5	25
59	2	12	11	10	16
59	3	12	11	10	16
60	2	1	2	3	30
60	3	1	2	3	30
61	6	51	52	53	54
61	7	51	52	53	54
61	8	51	52	53	54
62	4	1	47	48	79
63	16	28	4	3	29
64	16	70	52	51	73
65	14	11	12	33	35
66	15	34	33	35	45
67	17	40	43	45	46
68	17	85	87	92	94
69	9	5	6	7	22
70	16	15	10	9	17
71	15	40	41	80	81
72	10	10	11	12	33
72	11	10	11	12	33
73	6	3	4	5	6
73	7	3	4	5	6
73	8	3	4	5	6
74	9	4	3	2	32
75	17	38	40	43	45
76	17	82	94	92	93
77	16	64	55	54	67
78	2	58	57	56	62
78	3	58	57	56	62
79	4	13	11	12	33
80	16	63	56	55	65
81	16	68	53	52	71
82	16	25	5	4	28
83	6	7	8	9	10
83	7	7	8	9	10
83	8	7	8	9	10
84	1	9	10	11	12
85	16	19	8	7	21
86	17	36	38	40	41
87	9	56	55	54	66
88	9	9	8	7	22
89	16	28	4	3	30
90	17	82	83	85	86
91	16	72	51	50	74
92	16	16	10	9	17
93	9	2	3	4	27
94	9	53	54	55	64
95	16	15	10	9	18
96	17	88	87	92	93
97	15	41	80	82	83
98	2	58	57	56	63
98	3	58	57	56	63
99	17	80	82	94	95
100	21	87	88	90	91
101	16	26	5	4	28
102	9	7	8	9	18
103	16	22	7	6	24
104	17	33	35	36	38
105	9	52	53	54	66
106	1	47	48	49	50
107	17	82	94	92	87
108	15	81	80	82	83
109	16	30	3	2	31
110	16	14	11	10	15
111	15	42	41	80	81
112	16	16	10	9	18
113	16	13	11	10	15
114	9	7	6	5	25
115	9	51	50	49	77
116	6	54	55	56	57
116	7	54	55	56	57
116	8	54	55	56	57
117	16	72	51	50	75
118	16	17	9	8	20
119	17	35	45	43	44
120	16	75	50	49	76
121	16	29	3	2	31
122	15	38	40	41	80
123	6	53	54	55	56
123	7	53	54	55	56
123	8	53	54	55	56
124	16	74	50	49	76
125	9	10	9	8	19
126	16	76	49	48	78
127	15	12	33	35	36
128	17	88	87	92	94
129	16	66	54	53	69
130	17	33	35	45	43
131	17	35	36	38	39
132	16	61	57	56	62
133	9	50	51	52	70
134	16	65	55	54	66
135	9	8	7	6	24
136	9	5	4	3	29
137	16	27	4	3	29
138	17	35	45	43	40
139	15	41	80	82	94
140	17	44	43	45	46
141	16	60	57	56	63
142	4	14	11	12	33
143	16	30	3	2	32
144	17	80	82	94	92
145	20	59	58	57	60
146	16	75	50	49	77
147	16	13	11	10	16
148	9	7	6	5	26
149	9	50	49	48	79
150	15	34	33	35	36
151	16	21	7	6	23
152	16	20	8	7	21
153	9	49	50	51	72
154	9	57	56	55	65
155	15	85	87	88	89
156	16	62	56	55	64
157	9	6	7	8	20
158	9	6	5	4	27
159	15	81	80	82	94
160	16	24	6	5	26
161	17	37	36	38	40
162	9	53	52	51	72
163	6	49	50	51	52
163	7	49	50	51	52
163	8	49	50	51	52
164	9	50	51	52	71
165	17	39	38	40	41
166	16	65	55	54	67
167	9	5	4	3	30
168	16	27	4	3	30
169	15	90	88	87	92
170	15	40	41	80	82
171	9	11	10	9	17
172	9	52	51	50	74
173	9	55	56	57	60
174	20	59	58	57	61
175	16	21	7	6	24
176	16	20	8	7	22
177	17	38	36	35	45
178	9	9	10	11	13
179	16	19	8	7	22
180	17	37	36	35	45
181	17	80	82	83	84
182	9	56	55	54	67
183	22	89	88	90	91
183	23	89	88	90	91
184	9	53	52	51	73
185	6	52	53	54	55
185	7	52	53	54	55
185	8	52	53	54	55
186	9	3	4	5	25
187	17	82	83	85	87
188	9	2	3	4	28
189	16	67	54	53	68
190	9	53	54	55	65
191	9	4	5	6	23
192	15	38	40	41	42
193	9	11	10	9	18
194	4	31	2	1	47
195	9	54	53	52	70
196	17	36	35	45	46
197	9	54	55	56	62
198	17	93	92	94	95
199	9	51	52	53	68
200	9	9	10	11	14
201	17	36	38	40	43
202	9	52	53	54	67
203	17	83	82	94	95
204	17	84	83	82	94
205	16	77	49	48	78
206	9	48	49	50	74
207	17	83	85	87	88
208	16	14	11	10	16
209	15	42	41	80	82
210	15	42	41	40	43
211	16	67	54	53	69
212	18	56	57	58	59
212	19	56	57	58	59
213	16	29	3	2	32
214	16	76	49	48	79
215	1	1	2	3	4
216	16	71	52	51	72
217	9	10	9	8	20
218	16	69	53	52	70
219	16	74	50	49	77
220	2	12	11	10	15
220	3	12	11	10	15
221	2	1	2	3	29
221	3	1	2	3	29
222	6	5	6	7	8
222	7	5	6	7	8
222	8	5	6	7	8
223	16	61	57	56	63
224	6	8	9	10	11
224	7	8	9	10	11
224	8	8	9	10	11
225	9	54	55	56	63
226	12	11	12	33	34
226	13	11	12	33	34
227	17	85	87	92	93
228	9	5	6	7	21
229	16	23	6	5	25
230	9	55	54	53	68
231	17	38	40	43	44
232	15	89	88	87	92
233	4	1	47	48	49
234	6	2	3	4	5
234	7	2	3	4	5
234	8	2	3	4	5
235	9	48	49	50	75
236	17	86	85	87	88
237	17	83	85	87	92
238	16	68	53	52	70
239	17	84	83	85	86
240	16	25	5	4	27
241	4	32	2	1	47
242	9	49	50	51	73
243	15	85	87	88	90
244	16	62	56	55	65
245	9	6	5	4	28
246	17	83	82	94	92
247	9	9	8	7	21

Impropers

7	2	83	82	84	85
9	2	45	46	35	43
23	2	43	44	45	40
28	2	38	39	40	36
42	2	85	87	83	86
54	1	88	89	90	87
65	2	35	36	45	33
75	2	92	93	94	87
76	2	82	80	83	94
90	2	82	94	80	83
94	2	85	86	87	83
112	2	80	41	81	82
118	2	43	45	40	44
128	1	33	12	34	35
159	2	41	42	80	40
181	2	40	41	43	38
197	1	88	87	89	90
227	2	87	85	88	92
234	2	41	80	40	42
235	2	80	82	41	81
236	1	88	90	87	89
239	2	36	38	35	37
245	1	33	34	35	12
246	2	36	35	37	38
251	2	38	36	39	40
254	2	43	40	44	45
257	2	82	83	94	80
262	2	41	40	42	80
304	2	87	88	92	85
310	2	40	38	41	43
328	2	45	35	43	46
339	2	92	87	93	94
344	2	83	85	82	84
345	2	35	33	36	45
346	2	94	95	82	92
352	2	38	40	36	39
386	2	83	84	85	82
390	2	94	82	92	95
427	2	85	83	86	87
442	2	80	81	82	41
453	2	36	37	38	35
458	1	33	35	12	34
478	2	94	92	95	82
486	2	45	43	46	35
529	2	92	94	87	93
531	2	40	43	38	41
538	2	87	92	85	88
545	2	35	45	33	36
