Title

405 atoms
422 bonds
716 angles
1167 dihedrals
426 impropers

12 atom types
15 bond types
10 angle types
26 dihedral types
3 improper types
-9.637999535 90.36200047 xlo xhi
-5.642000198 94.3579998 ylo yhi
-2.755000114 97.24499989 zlo zhi
0.0 0.0 0.0 xy xz yz

Masses

1	12.01078
2	15.99943
3	14.00672
4	12.01078
5	1.007947
6	1.007947
7	1.007947
8	15.99943
9	1.007947
10	15.99943
11	1.007947
12	12.01078


Pair Coeffs

1	0.086879315	3.4806469
2	0.2102061	3.0398122
3	0.16769152	3.206876
4	0.10884061	3.3795318
5	0.014090815	1.1034277
6	0.015611343	2.5725815
7	0.015779483	2.6445434
8	0.16846514	3.0251065
9	0.016409246	2.5832257
10	0.20947353	2.99716
11	1.2326e-05	0.53453923
12	0.21	3.3996695

Bond Coeffs

1 harmonic	582.698766451	1.225198386222
2 harmonic	492.76746816345	1.381897776683
3 harmonic	301.15400723785	1.345741232799
4 harmonic	390.03554688505	1.390160554689
5 harmonic	505.144496193	1.019481865027
6 harmonic	360.7852444772	1.387193227181
7 harmonic	397.2545789619	1.085358495916
8 harmonic	289.73813263395	1.498646816465
9 harmonic	370.04670688625	1.093899492634
10 harmonic	366.7408841747	1.425895053732
11 harmonic	264.62148576755	1.52190126495
12 harmonic	329.96998057905	1.427343958716
13 harmonic	543.5267831885	0.9716763312559
14 harmonic	382.5450169811	1.379244394267
15 harmonic	602.81384337	1.196112346392


Angle Coeffs

1 harmonic	55.42182150775	117.3465570514
2 harmonic	63.44422595415	115.5071327674
3 harmonic	65.09061609600001	110.3538806181
4 harmonic	57.8982893754	126.8062420451
5 harmonic	201.41175231035	127.4691416191
6 harmonic	34.066775159195	129.1835929926
7 harmonic	53.20531626545	116.5475862634
8 harmonic	48.776492647595	115.6030999533
9 harmonic	55.07882548015	112.8714009681
10 harmonic	33.56981613361	180


Dihedral Coeffs

1 fourier 1	1.193093382682	2	180
2 fourier 1	0.1918272375143	3	0
3 fourier 1	0.9202179876409	1	180
4 fourier 1	0.0473758381877	3	0
5 fourier 1	1.809047390003	2	180
6 fourier 1	-0.04816277792592	1	0
7 fourier 1	0.4860993122944	2	180
8 fourier 1	0.8916986138746	1	0
9 fourier 1	1.163809172478	2	180
10 fourier 1	0.1679186987369	1	180
11 fourier 1	2.779853741805	2	180
12 fourier 1	3.661930099076	2	180
13 fourier 1	0.02664938770063	3	0
14 fourier 1	0.1155372516788	3	0
15 fourier 1	0.1115525666802	3	0
16 fourier 1	0.3432490222662	1	0
17 fourier 1	0.09223874044423	3	0
18 fourier 1	0.3159935921949	2	180
19 fourier 1	0.3247796806857	1	180
20 fourier 1	0.1040663847541	3	0
21 fourier 1	0.1911926717192	3	0
22 fourier 1	0.3445382149273	3	0
23 fourier 1	0.1364556373303	1	0
24 fourier 1	0.3026390167484	3	0
25 fourier 1	1.550515418264	2	180
26 fourier 1	0	1	0


Improper Coeffs

1 0.3333333333333333	-1	2
2 3.5	-1	2
3 0.3666666666666667	-1	2


Atoms

1	1	1	0.82011902	-5.7150002	-0.498	1.609
2	1	2	-0.55282003	-5.9759998	-1.04	0.50300002
3	1	3	-0.47038901	-4.5219998	0.27399999	1.798
4	1	1	0.22902	-3.4389999	0.33899999	0.85399997
5	1	1	-0.36768699	-2.694	1.523	0.74400002
6	1	1	-0.142562	-1.622	1.607	-0.149
7	1	1	-0.24559399	-1.273	0.50300002	-0.94099998
8	1	4	-0.050790999	-0.093999997	0.57999998	-1.873
9	1	1	-0.24559399	1.164	0.171	-1.155
10	1	1	-0.142562	1.924	1.123	-0.45899999
11	1	1	-0.36768699	3.072	0.73799998	0.23899999
12	1	1	0.22902	3.4820001	-0.60699999	0.24699999
13	1	3	-0.47038901	4.645	-1.035	0.977
14	1	1	0.82011902	5.836	-0.25299999	1.133
15	1	2	-0.55282003	6.013	0.80800003	0.477
16	1	1	-0.36768699	2.701	-1.562	-0.41999999
17	1	1	-0.142562	1.553	-1.177	-1.119
18	1	1	-0.142562	-1.993	-0.69400001	-0.80699998
19	1	1	-0.36768699	-3.066	-0.77700001	0.085000001
20	1	5	0.32513201	-4.487	0.89499998	2.638
21	1	6	0.21634699	-2.951	2.385	1.347
22	1	6	0.214586	-1.062	2.5309999	-0.219
23	1	7	0.125816	-0.25999999	-0.077	-2.7550001
24	1	7	0.125816	0.012	1.613	-2.2709999
25	1	6	0.214586	1.62	2.1630001	-0.447
26	1	6	0.21634699	3.619	1.488	0.79500002
27	1	5	0.32513201	4.6680002	-2.0109999	1.347
28	1	6	0.21634699	2.987	-2.6059999	-0.40400001
29	1	6	0.214586	0.96499997	-1.9299999	-1.628
30	1	6	0.214586	-1.716	-1.567	-1.386
31	1	6	0.21634699	-3.5810001	-1.722	0.192
32	1	8	-0.48721701	6.585	-0.58499998	1.7690001
33	1	4	0.124773	6.0139999	-0.67500001	3.046
34	1	4	-0.131605	5.8730001	0.71799999	3.6630001
35	1	4	-0.131605	5.2800002	0.639	5.0760002
36	1	4	0.124773	5.1539998	2.023	5.7160001
37	1	8	-0.48721701	4.2259998	2.799	5.0100002
38	1	9	0.106263	5.0209999	-1.177	2.99
39	1	9	0.106263	6.678	-1.298	3.684
40	1	7	0.109259	5.2140002	1.336	3.0150001
41	1	7	0.109259	6.8759999	1.198	3.707
42	1	7	0.109259	4.2750001	0.163	5.0380001
43	1	7	0.109259	5.9369998	0.012	5.717
44	1	9	0.106263	4.8109999	1.901	6.7680001
45	1	9	0.106263	6.1469998	2.527	5.7249999
46	1	1	0.82011998	4.1960001	3.7179999	5.4899998
47	1	2	-0.55282003	3.115	4.1059999	6.007
48	1	3	-0.47038901	5.3940001	4.4970002	5.5970001
49	1	1	0.22902	5.4460001	5.8429999	6.0999999
50	1	1	-0.36768699	6.5900002	6.276	6.7870002
51	1	1	-0.142562	6.6760001	7.586	7.2680001
52	1	1	-0.24559399	5.6199999	8.4870005	7.0619998
53	1	4	-0.050790999	5.7290001	9.908	7.5440001
54	1	1	-0.24559399	6.3649998	10.769	6.4860001
55	1	1	-0.142562	7.7600002	10.906	6.4289999
56	1	1	-0.36768699	8.3540001	11.676	5.4239998
57	1	1	0.22902	7.559	12.325	4.4629998
58	1	3	-0.47038901	8.1440001	13.103	3.404
59	1	1	0.82011902	9.3319998	13.893	3.5409999
60	1	2	-0.55282003	9.8509998	14.105	4.6700001
61	1	1	-0.36768699	6.1669998	12.157	4.5019999
62	1	1	-0.142562	5.573	11.388	5.507
63	1	1	-0.142562	4.4889998	8.0670004	6.3439999
64	1	1	-0.36768699	4.4029999	6.757	5.8649998
65	1	5	0.32513201	6.2940001	4.0159998	5.3740001
66	1	6	0.21634699	7.4130001	5.5939999	6.9559999
67	1	6	0.214586	7.5679998	7.8990002	7.7969999
68	1	7	0.125816	4.7220001	10.302	7.803
69	1	7	0.125816	6.3280001	9.9490004	8.4809999
70	1	6	0.214586	8.3889999	10.408	7.1560001
71	1	6	0.21634699	9.4329996	11.736	5.3850002
72	1	5	0.32513201	7.631	13.173	2.497
73	1	6	0.21634699	5.5409999	12.629	3.756
74	1	6	0.214586	4.4959998	11.272	5.5190001
75	1	6	0.214586	3.6789999	8.7589998	6.1469998
76	1	6	0.21634699	3.5350001	6.4720001	5.2849998
77	1	8	-0.48721701	9.7530003	14.332	2.701
78	1	4	0.124773	10.085	13.287	1.827
79	1	4	-0.131605	11.357	12.581	2.3039999
80	1	4	-0.131605	11.756	11.454	1.3430001
81	1	4	0.124773	13.039	10.753	1.793
82	1	8	-0.48721701	12.826	10.092	3.01
83	1	9	0.106263	9.2419996	12.562	1.756
84	1	9	0.106263	10.255	13.716	0.81599998
85	1	7	0.109259	11.179	12.162	3.319
86	1	7	0.109259	12.181	13.325	2.369
87	1	7	0.109259	10.936	10.706	1.277
88	1	7	0.109259	11.921	11.877	0.32800001
89	1	9	0.106263	13.335	10.014	1.016
90	1	9	0.106263	13.859	11.499	1.901
91	1	1	0.82011998	13.73	9.6479998	3.2579999
92	1	2	-0.55282003	13.792	8.3950005	3.358
93	1	3	-0.47038901	14.894	10.468	3.428
94	1	1	0.22902	16.16	9.9899998	3.9170001
95	1	1	-0.36768699	17.343	10.579	3.4489999
96	1	1	-0.142562	18.586	10.15	3.924
97	1	1	-0.24559399	18.663	9.1269999	4.8800001
98	1	4	-0.050790999	19.999001	8.6920004	5.421
99	1	1	-0.24559399	20.372	9.5249996	6.618
100	1	1	-0.142562	21.070999	10.73	6.4510002
101	1	1	-0.36768699	21.386	11.523	7.559
102	1	1	0.22902	21.01	11.119	8.8529997
103	1	3	-0.47038901	21.299	11.927	10.007
104	1	1	0.82011902	22.482	12.721	10.164
105	1	2	-0.55282003	23.448	12.62	9.3620005
106	1	1	-0.36768699	20.280001	9.9320002	9.0109997
107	1	1	-0.142562	19.966	9.1379995	7.9039998
108	1	1	-0.142562	17.48	8.559	5.3759999
109	1	1	-0.36768699	16.237	8.9879999	4.901
110	1	5	0.32513201	14.833	11.454	3.089
111	1	6	0.21634699	17.302	11.369	2.71
112	1	6	0.214586	19.487	10.618	3.5480001
113	1	7	0.125816	19.966	7.6160002	5.6999998
114	1	7	0.125816	20.778	8.7849998	4.6329999
115	1	6	0.214586	21.363001	11.062	5.4629998
116	1	6	0.21634699	21.895	12.463	7.3979998
117	1	5	0.32513201	20.653999	11.87	10.827
118	1	6	0.21634699	19.959999	9.6169996	9.9960003
119	1	6	0.214586	19.402	8.2250004	8.0489998
120	1	6	0.214586	17.518999	7.7919998	6.1399999
121	1	6	0.21634699	15.341	8.5570002	5.3260002
122	1	8	-0.48721701	22.561001	13.364	10.974
123	1	4	0.124773	21.497999	14.272	10.87
124	1	4	-0.131605	21.799999	15.318	9.7939997
125	1	4	-0.131605	20.663	16.343	9.6859999
126	1	4	0.124773	20.959	17.41	8.6300001
127	1	8	-0.48721701	21.004	16.829	7.3559999
128	1	9	0.106263	20.552	13.734	10.633
129	1	9	0.106263	21.370001	14.776	11.852
130	1	7	0.109259	21.934	14.805	8.8170004
131	1	7	0.109259	22.747999	15.84	10.051
132	1	7	0.109259	19.712999	15.827	9.4250002
133	1	7	0.109259	20.525999	16.846001	10.668
134	1	9	0.106263	20.153	18.176001	8.6599998
135	1	9	0.106263	21.929001	17.907	8.8579998
136	1	1	0.82011998	21.214001	17.6	6.6960001
137	1	2	-0.55282003	20.377001	17.886999	5.7989998
138	1	3	-0.47038901	22.424	18.353001	6.8520002
139	1	1	0.22902	22.895	19.337999	5.9159999
140	1	1	-0.36768699	23.618999	20.441999	6.388
141	1	1	-0.142562	24.108	21.403	5.4990001
142	1	1	-0.24559399	23.886	21.27	4.1199999
143	1	4	-0.050790999	24.447001	22.283001	3.1589999
144	1	1	-0.24559399	25.837	21.888	2.7390001
145	1	1	-0.142562	26.948	22.302	3.4909999
146	1	1	-0.36768699	28.237	21.905001	3.1229999
147	1	1	0.22902	28.436001	21.091	1.993
148	1	3	-0.47038901	29.747999	20.648001	1.607
149	1	1	0.82011902	30.941999	21.429001	1.753
150	1	2	-0.55282003	30.892	22.646	2.0699999
151	1	1	-0.36768699	27.32	20.65	1.266
152	1	1	-0.142562	26.031	21.047001	1.633
153	1	1	-0.142562	23.193001	20.148001	3.641
154	1	1	-0.36768699	22.702999	19.187	4.5310001
155	1	5	0.32513201	22.944	18.233	7.7509999
156	1	6	0.21634699	23.799	20.562	7.4489999
157	1	6	0.214586	24.664	22.249001	5.8850002
158	1	7	0.125816	23.788	22.368	2.266
159	1	7	0.125816	24.462	23.290001	3.6300001
160	1	6	0.214586	26.813999	22.923	4.368
161	1	6	0.21634699	29.070999	22.211	3.74
162	1	5	0.32513201	29.837	19.736	1.1059999
163	1	6	0.21634699	27.452	20.003	0.40799999
164	1	6	0.214586	25.184	20.695999	1.056
165	1	6	0.214586	23.041	20.011	2.5780001
166	1	6	0.21634699	22.202	18.316	4.132
167	1	8	-0.48721701	31.863001	20.993	1.557
168	1	4	0.124773	31.995001	19.917999	2.4460001
169	1	4	-0.131605	32.344002	20.427999	3.846
170	1	4	-0.131605	32.525002	19.263	4.829
171	1	4	0.124773	32.896999	19.754999	6.2280002
172	1	8	-0.48721701	31.839001	20.490999	6.7779999
173	1	9	0.106263	31.054001	19.322001	2.473
174	1	9	0.106263	32.808998	19.257	2.0780001
175	1	7	0.109259	31.527	21.094	4.2030001
176	1	7	0.109259	33.284	21.02	3.793
177	1	7	0.109259	31.586	18.67	4.888
178	1	7	0.109259	33.334999	18.594999	4.4619999
179	1	9	0.106263	33.110001	18.872999	6.8730001
180	1	9	0.106263	33.813999	20.384001	6.1760001
181	1	1	0.82011998	32.159	20.797001	7.7160001
182	1	2	-0.55282003	31.532	20.408001	8.7370005
183	1	3	-0.47038901	33.334	21.610001	7.8299999
184	1	1	0.22902	33.785999	22.218	9.052
185	1	1	-0.36768699	35.161999	22.391001	9.2650003
186	1	1	-0.142562	35.627998	23	10.434
187	1	1	-0.24559399	34.723999	23.451	11.407
188	1	4	-0.050790999	35.223	24.143	12.646
189	1	1	-0.24559399	35.346001	25.622999	12.403
190	1	1	-0.142562	36.534	26.159	11.883
191	1	1	-0.36768699	36.636002	27.528999	11.623
192	1	1	0.22902	35.550999	28.385	11.883
193	1	3	-0.47038901	35.620998	29.794001	11.601
194	1	1	0.82011902	36.803001	30.591	11.744
195	1	2	-0.55282003	37.834	30.136999	12.308
196	1	1	-0.36768699	34.354	27.84	12.369
197	1	1	-0.142562	34.251999	26.471001	12.631
198	1	1	-0.142562	33.346001	23.312	11.18
199	1	1	-0.36768699	32.879002	22.702999	10.012
200	1	5	0.32513201	33.941002	21.686001	6.9829998
201	1	6	0.21634699	35.874001	22.047001	8.526
202	1	6	0.214586	36.695	23.122	10.578
203	1	7	0.125816	34.532001	23.951	13.496
204	1	7	0.125816	36.208	23.722	12.947
205	1	6	0.214586	37.377998	25.514999	11.669
206	1	6	0.21634699	37.551998	27.909	11.19
207	1	5	0.32513201	34.737	30.296	11.361
208	1	6	0.21634699	33.5	28.48	12.552
209	1	6	0.214586	33.318001	26.070999	13.007
210	1	6	0.214586	32.632	23.684999	11.904
211	1	6	0.21634699	31.812	22.639	9.8479996
212	1	8	-0.48721701	36.799	31.573	11.411
213	1	4	0.124773	36.528	31.530001	10.037
214	1	4	-0.131605	37.776001	31.094	9.2650003
215	1	4	-0.131605	37.511002	31.070999	7.7529998
216	1	4	0.124773	38.755001	30.66	6.9660001
217	1	8	-0.48721701	39.098999	29.334999	7.2620001
218	1	9	0.106263	35.682999	30.833	9.8319998
219	1	9	0.106263	36.223	32.546001	9.7069998
220	1	7	0.109259	38.077999	30.08	9.6070004
221	1	7	0.109259	38.605	31.802	9.4860001
222	1	7	0.109259	36.683998	30.362	7.526
223	1	7	0.109259	37.199001	32.084	7.4190001
224	1	9	0.106263	38.536999	30.752001	5.8779998
225	1	9	0.106263	39.601002	31.34	7.2150002
226	1	1	0.82011998	39.948002	29.125999	6.704
227	1	2	-0.55282003	39.903999	28.212999	5.8369999
228	1	3	-0.47038901	41.129002	29.914	6.895
229	1	1	0.22902	42.403999	29.627001	6.296
230	1	1	-0.36768699	43.258999	30.686001	5.9590001
231	1	1	-0.142562	44.513	30.434999	5.395
232	1	1	-0.24559399	44.935001	29.115999	5.165
233	1	4	-0.050790999	46.300999	28.844	4.5960002
234	1	1	-0.24559399	47.313	28.731001	5.704
235	1	1	-0.142562	47.973999	29.874001	6.1789999
236	1	1	-0.36768699	48.887001	29.775999	7.2319999
237	1	1	0.22902	49.158001	28.530001	7.8249998
238	1	3	-0.47038901	50.074001	28.403999	8.9259996
239	1	1	0.82011902	51.263	29.188999	9.085
240	1	2	-0.55282003	51.685001	29.931999	8.1590004
241	1	1	-0.36768699	48.470001	27.395	7.3709998
242	1	1	-0.142562	47.556999	27.493	6.3169999
243	1	1	-0.142562	44.097	28.052999	5.5349998
244	1	1	-0.36768699	42.841999	28.305	6.0970001
245	1	5	0.32513201	41.023998	30.802	7.4369998
246	1	6	0.21634699	42.949001	31.709999	6.1269999
247	1	6	0.214586	45.157001	31.268	5.1409998
248	1	7	0.125816	46.285	27.907	3.9960001
249	1	7	0.125816	46.591	29.656	3.895
250	1	6	0.214586	47.772999	30.844	5.7399998
251	1	6	0.21634699	49.355999	30.679001	7.5999999
252	1	5	0.32513201	49.919998	27.634001	9.6149998
253	1	6	0.21634699	48.646999	26.431	7.8319998
254	1	6	0.214586	47.037998	26.604	5.9819999
255	1	6	0.214586	44.418999	27.028	5.3959999
256	1	6	0.21634699	42.230999	27.466	6.4029999
257	1	8	-0.48721701	51.808998	29.117001	9.9639997
258	1	4	0.124773	50.950001	29.504999	11.002
259	1	4	-0.131605	50.798	31.028	11.021
260	1	4	-0.131605	49.886002	31.476999	12.171
261	1	4	0.124773	49.742001	32.999001	12.219
262	1	8	-0.48721701	49.080002	33.458	11.073
263	1	9	0.106263	49.955002	29.018	10.881
264	1	9	0.106263	51.386002	29.163	11.965
265	1	7	0.109259	50.368	31.362	10.052
266	1	7	0.109259	51.801998	31.490999	11.14
267	1	7	0.109259	48.879002	31.018999	12.055
268	1	7	0.109259	50.314999	31.132	13.137
269	1	9	0.106263	49.153999	33.275002	13.122
270	1	9	0.106263	50.748001	33.471001	12.295
271	1	1	0.82011998	49.022999	34.488998	11.167
272	1	2	-0.55282003	47.891998	35.040001	11.222
273	1	3	-0.47038901	50.23	35.254002	11.284
274	1	1	0.22902	50.285999	36.691002	11.267
275	1	1	-0.36768699	51.272999	37.348	12.017
276	1	1	-0.142562	51.365002	38.743	12.001
277	1	1	-0.24559399	50.473	39.502998	11.228
278	1	4	-0.050790999	50.597	41.000999	11.179
279	1	1	-0.24559399	51.539001	41.41	10.079
280	1	1	-0.142562	52.915001	41.518002	10.328
281	1	1	-0.36768699	53.794998	41.862	9.2980003
282	1	1	0.22902	53.310001	42.108002	8.0010004
283	1	3	-0.47038901	54.195	42.438999	6.9169998
284	1	1	0.82011902	55.386002	43.224998	7.0549998
285	1	2	-0.55282003	55.644001	43.84	8.1239996
286	1	1	-0.36768699	51.938	41.965	7.7480001
287	1	1	-0.142562	51.057999	41.622002	8.7779999
288	1	1	-0.142562	49.507999	38.846001	10.45
289	1	1	-0.36768699	49.416	37.451	10.466
290	1	5	0.32513201	51.109001	34.723999	11.482
291	1	6	0.21634699	51.967999	36.778	12.62
292	1	6	0.214586	52.132999	39.23	12.588
293	1	7	0.125816	49.598	41.462002	11.018
294	1	7	0.125816	50.962002	41.386002	12.157
295	1	6	0.214586	53.308998	41.324001	11.319
296	1	6	0.21634699	54.855	41.903999	9.5109997
297	1	5	0.32513201	53.916	42.167999	5.947
298	1	6	0.21634699	51.549	42.125999	6.75
299	1	6	0.214586	50.001999	41.518002	8.5609999
300	1	6	0.214586	48.833	39.414001	9.8210001
301	1	6	0.21634699	48.685001	36.971001	9.8299999
302	1	8	-0.48721701	56.029999	43.321999	6.2480001
303	1	4	0.124773	56.459	42.028999	5.9200001
304	1	4	-0.131605	57.514	41.550999	6.921
305	1	4	-0.131605	58.021	40.147999	6.5609999
306	1	4	0.124773	59.092999	39.665001	7.539
307	1	8	-0.48721701	58.542999	39.500999	8.8170004
308	1	9	0.106263	55.592999	41.327	5.9050002
309	1	9	0.106263	56.898998	42.053001	4.9000001
310	1	7	0.109259	57.067001	41.536999	7.9390001
311	1	7	0.109259	58.365002	42.265999	6.9190001
312	1	7	0.109259	57.173	39.428001	6.5650001
313	1	7	0.109259	58.457001	40.165001	5.5380001
314	1	9	0.106263	59.493	38.691002	7.1799998
315	1	9	0.106263	59.93	40.398998	7.5739999
316	1	1	0.82011998	59.319	39.181999	9.4250002
317	1	2	-0.55282003	59.241001	38.054001	9.9809999
318	1	3	-0.47038901	60.481998	40.007	9.5769997
319	1	1	0.22902	61.549	39.744999	10.505
320	1	1	-0.36768699	62.858002	40.120998	10.17
321	1	1	-0.142562	63.91	39.898998	11.062
322	1	1	-0.24559399	63.667999	39.301998	12.309
323	1	4	-0.050790999	64.793999	39.099998	13.286
324	1	1	-0.24559399	64.953003	40.317001	14.157
325	1	1	-0.142562	65.778999	41.375999	13.751
326	1	1	-0.36768699	65.898003	42.522999	14.541
327	1	1	0.22902	65.195	42.625999	15.755
328	1	3	-0.47038901	65.279999	43.804001	16.575001
329	1	1	0.82011902	66.460999	44.601002	16.729
330	1	2	-0.55282003	67.574997	44.212002	16.285999
331	1	1	-0.36768699	64.343002	41.581001	16.139999
332	1	1	-0.142562	64.223999	40.433998	15.35
333	1	1	-0.142562	62.354	38.958	12.662
334	1	1	-0.36768699	61.301998	39.179001	11.769
335	1	5	0.32513201	60.591999	40.797001	8.9029999
336	1	6	0.21634699	63.063	40.581001	9.2110004
337	1	6	0.214586	64.914001	40.195999	10.783
338	1	7	0.125816	64.598999	38.203999	13.914
339	1	7	0.125816	65.741997	38.895	12.74
340	1	6	0.214586	66.322998	41.318001	12.816
341	1	6	0.21634699	66.515999	43.337002	14.187
342	1	5	0.32513201	64.459	44.055	17.171
343	1	6	0.21634699	63.773998	41.653	17.059
344	1	6	0.214586	63.561001	39.638	15.667
345	1	6	0.214586	62.143002	38.528	13.633
346	1	6	0.21634699	60.294998	38.935001	12.08
347	1	8	-0.48721701	66.407997	45.498001	17.246
348	1	4	0.124773	65.487	46.303001	16.561001
349	1	4	-0.131605	66.126999	46.875999	15.293
350	1	4	-0.131605	65.144997	47.786999	14.544
351	1	4	0.124773	65.777	48.388	13.287
352	1	8	-0.48721701	66.064003	47.375999	12.361
353	1	9	0.106263	64.577003	45.714001	16.302999
354	1	9	0.106263	65.181	47.133999	17.231001
355	1	7	0.109259	66.436996	46.037998	14.633
356	1	7	0.109259	67.031998	47.457001	15.576
357	1	7	0.109259	64.238998	47.209999	14.257
358	1	7	0.109259	64.830002	48.618	15.212
359	1	9	0.106263	65.059998	49.110001	12.836
360	1	9	0.106263	66.708	48.935001	13.556
361	1	8	-0.48721701	-6.3670001	-0.579	2.3540001
362	1	4	0.124843	-6.5739999	-1.95	2.559
363	1	4	-0.126066	-7.4889998	-2.516	1.47
364	1	4	-0.16009	-7.7550001	-4.0110002	1.694
365	1	4	0.096266001	-8.6870003	-4.5869999	0.62800002
366	1	10	-0.66816199	-8.0679998	-4.5450001	-0.62800002
367	1	9	0.106263	-5.599	-2.49	2.5650001
368	1	9	0.106263	-7.0500002	-2.0880001	3.553
369	1	7	0.109431	-7.0079999	-2.3659999	0.479
370	1	7	0.109431	-8.4519997	-1.96	1.482
371	1	7	0.113077	-6.7940001	-4.5710001	1.6799999
372	1	7	0.113077	-8.2259998	-4.1550002	2.691
373	1	9	0.100448	-8.9219999	-5.6420002	0.88999999
374	1	9	0.100448	-9.6379995	-4.0079999	0.60500002
375	1	11	0.40293899	-8.7229996	-4.9239998	-1.27
376	1	1	0.82011998	66.511002	47.868999	11.508
377	1	2	-0.55282003	67.165001	48.931	11.684
378	1	3	-0.47038901	66.304001	47.332001	10.195
379	1	1	0.22902	66.966003	47.806	9.0089998
380	1	1	-0.36768699	68.295998	48.262001	9.0419998
381	1	1	-0.142562	68.924004	48.694	7.8699999
382	1	1	-0.24559399	68.236	48.674	6.6479998
383	1	4	-0.050790999	68.925003	49.103001	5.381
384	1	1	-0.26008901	69.621002	47.93	4.7449999
385	1	1	-0.187574	68.938004	47.108002	3.8369999
386	1	1	-0.25986201	69.572998	45.997002	3.2739999
387	1	1	0.44103801	70.894997	45.685001	3.615
388	1	3	-0.34890601	71.507004	44.534	3.0120001
389	1	12	0.61494797	72.699997	44.158001	3.25
390	1	2	-0.30700001	73.859001	43.792	3.4809999
391	1	1	-0.25986201	71.578003	46.502998	4.5359998
392	1	1	-0.187574	70.942001	47.613998	5.099
393	1	1	-0.142562	66.919998	48.187	6.6079998
394	1	1	-0.36768699	66.292999	47.754002	7.7800002
395	1	5	0.32513201	65.556999	46.609001	10.091
396	1	6	0.21634699	68.862	48.256001	9.9639997
397	1	6	0.214586	69.950996	49.035	7.914
398	1	7	0.125816	69.657997	49.91	5.599
399	1	7	0.125816	68.185997	49.537998	4.6729999
400	1	6	0.200672	67.912003	47.326	3.5650001
401	1	6	0.208408	69.032997	45.375	2.5710001
402	1	6	0.208408	72.598	46.285	4.8249998
403	1	6	0.200672	71.478996	48.227001	5.8130002
404	1	6	0.214586	66.382004	48.139	5.6700001
405	1	6	0.21634699	65.277	47.382	7.7309999

Bonds

1	1	1	2
2	2	1	3
3	3	1	361
4	4	3	4
5	5	3	20
6	6	4	5
7	6	4	19
8	6	5	6
9	7	5	21
10	6	6	7
11	7	6	22
12	8	7	8
13	6	7	18
14	8	8	9
15	9	8	23
16	9	8	24
17	6	9	10
18	6	9	17
19	6	10	11
20	7	10	25
21	6	11	12
22	7	11	26
23	4	12	13
24	6	12	16
25	2	13	14
26	5	13	27
27	1	14	15
28	3	14	32
29	6	16	17
30	7	16	28
31	7	17	29
32	6	18	19
33	7	18	30
34	7	19	31
35	10	32	33
36	11	33	34
37	9	33	38
38	9	33	39
39	11	34	35
40	9	34	40
41	9	34	41
42	11	35	36
43	9	35	42
44	9	35	43
45	10	36	37
46	9	36	44
47	9	36	45
48	3	37	46
49	1	46	47
50	2	46	48
51	4	48	49
52	5	48	65
53	6	49	50
54	6	49	64
55	6	50	51
56	7	50	66
57	6	51	52
58	7	51	67
59	8	52	53
60	6	52	63
61	8	53	54
62	9	53	68
63	9	53	69
64	6	54	55
65	6	54	62
66	6	55	56
67	7	55	70
68	6	56	57
69	7	56	71
70	4	57	58
71	6	57	61
72	2	58	59
73	5	58	72
74	1	59	60
75	3	59	77
76	6	61	62
77	7	61	73
78	7	62	74
79	6	63	64
80	7	63	75
81	7	64	76
82	10	77	78
83	11	78	79
84	9	78	83
85	9	78	84
86	11	79	80
87	9	79	85
88	9	79	86
89	11	80	81
90	9	80	87
91	9	80	88
92	10	81	82
93	9	81	89
94	9	81	90
95	3	82	91
96	1	91	92
97	2	91	93
98	4	93	94
99	5	93	110
100	6	94	95
101	6	94	109
102	6	95	96
103	7	95	111
104	6	96	97
105	7	96	112
106	8	97	98
107	6	97	108
108	8	98	99
109	9	98	113
110	9	98	114
111	6	99	100
112	6	99	107
113	6	100	101
114	7	100	115
115	6	101	102
116	7	101	116
117	4	102	103
118	6	102	106
119	2	103	104
120	5	103	117
121	1	104	105
122	3	104	122
123	6	106	107
124	7	106	118
125	7	107	119
126	6	108	109
127	7	108	120
128	7	109	121
129	10	122	123
130	11	123	124
131	9	123	128
132	9	123	129
133	11	124	125
134	9	124	130
135	9	124	131
136	11	125	126
137	9	125	132
138	9	125	133
139	10	126	127
140	9	126	134
141	9	126	135
142	3	127	136
143	1	136	137
144	2	136	138
145	4	138	139
146	5	138	155
147	6	139	140
148	6	139	154
149	6	140	141
150	7	140	156
151	6	141	142
152	7	141	157
153	8	142	143
154	6	142	153
155	8	143	144
156	9	143	158
157	9	143	159
158	6	144	145
159	6	144	152
160	6	145	146
161	7	145	160
162	6	146	147
163	7	146	161
164	4	147	148
165	6	147	151
166	2	148	149
167	5	148	162
168	1	149	150
169	3	149	167
170	6	151	152
171	7	151	163
172	7	152	164
173	6	153	154
174	7	153	165
175	7	154	166
176	10	167	168
177	11	168	169
178	9	168	173
179	9	168	174
180	11	169	170
181	9	169	175
182	9	169	176
183	11	170	171
184	9	170	177
185	9	170	178
186	10	171	172
187	9	171	179
188	9	171	180
189	3	172	181
190	1	181	182
191	2	181	183
192	4	183	184
193	5	183	200
194	6	184	185
195	6	184	199
196	6	185	186
197	7	185	201
198	6	186	187
199	7	186	202
200	8	187	188
201	6	187	198
202	8	188	189
203	9	188	203
204	9	188	204
205	6	189	190
206	6	189	197
207	6	190	191
208	7	190	205
209	6	191	192
210	7	191	206
211	4	192	193
212	6	192	196
213	2	193	194
214	5	193	207
215	1	194	195
216	3	194	212
217	6	196	197
218	7	196	208
219	7	197	209
220	6	198	199
221	7	198	210
222	7	199	211
223	10	212	213
224	11	213	214
225	9	213	218
226	9	213	219
227	11	214	215
228	9	214	220
229	9	214	221
230	11	215	216
231	9	215	222
232	9	215	223
233	10	216	217
234	9	216	224
235	9	216	225
236	3	217	226
237	1	226	227
238	2	226	228
239	4	228	229
240	5	228	245
241	6	229	230
242	6	229	244
243	6	230	231
244	7	230	246
245	6	231	232
246	7	231	247
247	8	232	233
248	6	232	243
249	8	233	234
250	9	233	248
251	9	233	249
252	6	234	235
253	6	234	242
254	6	235	236
255	7	235	250
256	6	236	237
257	7	236	251
258	4	237	238
259	6	237	241
260	2	238	239
261	5	238	252
262	1	239	240
263	3	239	257
264	6	241	242
265	7	241	253
266	7	242	254
267	6	243	244
268	7	243	255
269	7	244	256
270	10	257	258
271	11	258	259
272	9	258	263
273	9	258	264
274	11	259	260
275	9	259	265
276	9	259	266
277	11	260	261
278	9	260	267
279	9	260	268
280	10	261	262
281	9	261	269
282	9	261	270
283	3	262	271
284	1	271	272
285	2	271	273
286	4	273	274
287	5	273	290
288	6	274	275
289	6	274	289
290	6	275	276
291	7	275	291
292	6	276	277
293	7	276	292
294	8	277	278
295	6	277	288
296	8	278	279
297	9	278	293
298	9	278	294
299	6	279	280
300	6	279	287
301	6	280	281
302	7	280	295
303	6	281	282
304	7	281	296
305	4	282	283
306	6	282	286
307	2	283	284
308	5	283	297
309	1	284	285
310	3	284	302
311	6	286	287
312	7	286	298
313	7	287	299
314	6	288	289
315	7	288	300
316	7	289	301
317	10	302	303
318	11	303	304
319	9	303	308
320	9	303	309
321	11	304	305
322	9	304	310
323	9	304	311
324	11	305	306
325	9	305	312
326	9	305	313
327	10	306	307
328	9	306	314
329	9	306	315
330	3	307	316
331	1	316	317
332	2	316	318
333	4	318	319
334	5	318	335
335	6	319	320
336	6	319	334
337	6	320	321
338	7	320	336
339	6	321	322
340	7	321	337
341	8	322	323
342	6	322	333
343	8	323	324
344	9	323	338
345	9	323	339
346	6	324	325
347	6	324	332
348	6	325	326
349	7	325	340
350	6	326	327
351	7	326	341
352	4	327	328
353	6	327	331
354	2	328	329
355	5	328	342
356	1	329	330
357	3	329	347
358	6	331	332
359	7	331	343
360	7	332	344
361	6	333	334
362	7	333	345
363	7	334	346
364	10	347	348
365	11	348	349
366	9	348	353
367	9	348	354
368	11	349	350
369	9	349	355
370	9	349	356
371	11	350	351
372	9	350	357
373	9	350	358
374	10	351	352
375	9	351	359
376	9	351	360
377	3	352	376
378	10	361	362
379	11	362	363
380	9	362	367
381	9	362	368
382	11	363	364
383	9	363	369
384	9	363	370
385	11	364	365
386	9	364	371
387	9	364	372
388	12	365	366
389	9	365	373
390	9	365	374
391	13	366	375
392	1	376	377
393	2	376	378
394	4	378	379
395	5	378	395
396	6	379	380
397	6	379	394
398	6	380	381
399	7	380	396
400	6	381	382
401	7	381	397
402	8	382	383
403	6	382	393
404	8	383	384
405	9	383	398
406	9	383	399
407	6	384	385
408	6	384	392
409	6	385	386
410	7	385	400
411	6	386	387
412	7	386	401
413	14	387	388
414	6	387	391
415	15	388	389
416	1	389	390
417	6	391	392
418	7	391	402
419	7	392	403
420	6	393	394
421	7	393	404
422	7	394	405

Angles

1	6	96	95	111
2	8	269	261	270
3	7	187	188	203
4	7	168	169	170
5	6	232	231	247
6	6	244	243	255
7	4	385	386	387
8	7	348	349	355
9	6	139	140	156
10	4	230	229	244
11	4	281	282	283
12	4	13	14	15
13	8	85	79	86
14	6	62	61	73
15	4	185	184	199
16	7	35	36	44
17	4	236	237	241
18	2	376	378	395
19	7	167	168	169
20	8	359	351	360
21	6	16	17	29
22	1	57	58	59
23	4	232	243	244
24	7	258	259	260
25	7	122	123	129
26	2	4	3	20
27	7	304	305	312
28	6	382	381	397
29	6	229	230	246
30	4	95	96	97
31	4	58	57	61
32	4	98	99	100
33	4	141	142	153
34	7	232	233	249
35	4	12	16	17
36	6	52	63	75
37	8	68	53	69
38	4	234	235	236
39	7	364	365	373
40	5	195	194	212
41	6	322	321	337
42	7	260	261	269
43	8	224	216	225
44	4	386	387	391
45	4	56	57	58
46	4	48	49	64
47	6	198	199	211
48	7	303	304	311
49	7	35	34	41
50	7	347	348	349
51	2	94	93	110
52	7	215	216	225
53	2	284	283	297
54	4	278	279	287
55	3	149	167	168
56	6	9	10	25
57	7	365	364	372
58	4	3	4	19
59	8	222	215	223
60	2	57	58	72
61	7	32	33	34
62	7	35	36	37
63	7	99	98	113
64	6	102	101	116
65	7	306	305	312
66	7	349	348	354
67	4	326	327	331
68	6	231	230	246
69	3	365	366	375
70	4	319	334	333
71	4	384	385	386
72	2	194	193	207
73	7	81	80	87
74	4	387	391	392
75	4	191	192	196
76	4	273	274	289
77	7	213	214	220
78	6	331	332	344
79	7	36	35	43
80	8	175	169	176
81	7	259	260	267
82	7	352	351	359
83	7	126	125	132
84	7	82	81	90
85	1	91	93	94
86	4	184	185	186
87	7	187	188	189
88	3	239	257	258
89	5	2	1	361
90	4	58	59	77
91	7	361	362	363
92	7	364	365	366
93	7	7	8	23
94	7	257	258	259
95	7	260	261	262
96	6	99	100	115
97	7	212	213	219
98	4	278	279	280
99	7	80	79	85
100	4	148	149	150
101	4	274	275	276
102	6	51	50	66
103	4	92	91	93
104	7	215	214	220
105	7	142	143	158
106	4	307	316	318
107	6	199	198	210
108	4	318	319	334
109	4	6	7	18
110	7	259	258	264
111	7	382	383	399
112	4	98	97	108
113	7	350	349	356
114	4	273	274	275
115	4	230	231	232
116	7	302	303	309
117	4	97	108	109
118	4	272	271	273
119	4	238	239	240
120	6	286	287	299
121	6	94	109	121
122	8	179	171	180
123	7	124	125	133
124	3	351	352	376
125	7	364	363	370
126	6	319	320	336
127	4	182	181	183
128	4	185	186	187
129	7	37	36	45
130	6	56	55	70
131	7	322	323	339
132	4	48	49	50
133	8	83	78	84
134	8	130	124	131
135	7	260	259	266
136	4	13	12	16
137	4	7	18	19
138	4	137	136	138
139	5	285	284	302
140	4	3	4	5
141	4	3	1	361
142	7	122	123	128
143	6	187	198	210
144	4	378	379	394
145	2	181	183	200
146	8	312	305	313
147	4	101	102	106
148	2	327	328	342
149	4	318	319	320
150	6	146	145	160
151	6	276	275	291
152	7	170	171	180
153	4	281	282	286
154	7	303	304	310
155	7	124	125	126
156	4	148	147	151
157	7	78	79	80
158	8	398	383	399
159	4	228	229	244
160	8	158	143	159
161	6	6	5	21
162	6	102	106	118
163	4	99	100	101
164	4	148	149	167
165	7	169	170	171
166	6	4	5	21
167	7	169	170	178
168	4	188	189	197
169	7	362	363	364
170	1	46	48	49
171	6	387	391	402
172	7	142	143	144
173	3	14	32	33
174	8	314	306	315
175	1	237	238	239
176	4	184	199	198
177	6	288	289	301
178	4	189	197	196
179	4	237	241	242
180	7	350	351	352
181	8	357	350	358
182	8	44	36	45
183	5	217	226	227
184	4	379	394	393
185	6	141	140	156
186	6	192	191	206
187	7	34	35	42
188	4	238	239	257
189	7	7	8	9
190	4	99	107	106
191	4	378	379	380
192	8	355	349	356
193	4	47	46	48
194	4	381	382	393
195	4	56	57	61
196	7	351	350	357
197	6	147	146	161
198	4	2	1	3
199	10	388	389	390
200	7	54	53	69
201	6	142	153	165
202	8	293	278	294
203	5	352	376	377
204	7	212	213	218
205	3	126	127	136
206	1	271	273	274
207	7	214	213	219
208	6	332	331	343
209	4	49	64	63
210	6	322	333	345
211	4	328	329	330
212	6	327	331	343
213	2	237	238	252
214	6	184	199	211
215	4	188	189	190
216	6	189	197	209
217	5	307	316	317
218	4	52	63	64
219	6	381	380	396
220	8	113	98	114
221	6	11	10	25
222	3	216	217	226
223	7	79	80	88
224	7	189	188	203
225	6	242	241	253
226	7	34	33	39
227	7	382	383	398
228	7	33	34	35
229	6	63	64	76
230	6	99	107	119
231	4	101	102	103
232	7	350	349	355
233	7	144	143	159
234	8	218	213	219
235	4	50	49	64