Title

405 atoms
422 bonds
716 angles
1164 dihedrals
426 impropers

12 atom types
17 bond types
10 angle types
32 dihedral types
3 improper types
-16.29899979 83.70100021 xlo xhi
-7.903999805 92.09600019 ylo yhi
-5.723999977 94.27600002 zlo zhi
0.0 0.0 0.0 xy xz yz

Masses

1	15.99943
2	12.01078
3	14.00672
4	1.007947
5	12.01078
6	1.007947
7	1.007947
8	15.99943
9	1.007947
10	12.01078
11	15.99943
12	1.007947


Pair Coeffs

1	0.2102061	3.0398122
2	0.086879315	3.4806469
3	0.16769152	3.206876
4	0.015611343	2.5725815
5	0.10884061	3.3795318
6	0.014090815	1.1034277
7	0.015779483	2.6445434
8	0.16846514	3.0251065
9	0.016409246	2.5832257
10	0.21	3.3996695
11	0.20947353	2.99716
12	1.2326e-05	0.53453923

Bond Coeffs

1 harmonic	582.698766451	1.225198386222
2 harmonic	492.76746816345	1.381897776683
3 harmonic	301.15400723785	1.345741232799
4 harmonic	390.03554688505	1.390160554689
5 harmonic	505.144496193	1.019481865027
6 harmonic	360.7852444772	1.387193227181
7 harmonic	397.2545789619	1.085358495916
8 harmonic	289.73813263395	1.498646816465
9 harmonic	370.04670688625	1.093899492634
10 harmonic	279.1350963404	1.454628925034
11 harmonic	366.7408841747	1.425895053732
12 harmonic	264.62148576755	1.52190126495
13 harmonic	300.03137914615	1.451203938761
14 harmonic	382.5450169811	1.379244394267
15 harmonic	602.81384337	1.196112346392
16 harmonic	329.96998057905	1.427343958716
17 harmonic	543.5267831885	0.9716763312559


Angle Coeffs

1 harmonic	57.8982893754	126.8062420451
2 harmonic	201.41175231035	127.4691416191
3 harmonic	55.42182150775	117.3465570514
4 harmonic	63.44422595415	115.5071327674
5 harmonic	65.09061609600001	110.3538806181
6 harmonic	34.066775159195	129.1835929926
7 harmonic	53.20531626545	116.5475862634
8 harmonic	48.776492647595	115.6030999533
9 harmonic	55.07882548015	112.8714009681
10 harmonic	33.56981613361	180


Dihedral Coeffs

1 fourier 1	1.809047390003	2	180
2 fourier 1	-0.04816277792592	1	0
3 fourier 1	0.4860993122944	2	180
4 fourier 1	0.8916986138746	1	0
5 fourier 1	1.163809172478	2	180
6 fourier 1	0.1679186987369	1	180
7 fourier 1	1.193093382682	2	180
8 fourier 1	0.1918272375143	3	0
9 fourier 1	0.9202179876409	1	180
10 fourier 1	0.0473758381877	3	0
11 fourier 1	2.779853741805	2	180
12 fourier 1	3.661930099076	2	180
13 fourier 1	0.02664938770063	3	0
14 fourier 1	3.101948770557	2	180
15 fourier 1	-0.4252153282372	1	0
16 fourier 1	0.9974165607242	2	180
17 fourier 1	2.348375642009	2	180
18 fourier 1	1.256156174911	1	0
19 fourier 1	0.1155372516788	3	0
20 fourier 1	0.1115525666802	3	0
21 fourier 1	0.3432490222662	1	0
22 fourier 1	0.09223874044423	3	0
23 fourier 1	0.3159935921949	2	180
24 fourier 1	0.3247796806857	1	180
25 fourier 1	0.1040663847541	3	0
26 fourier 1	0.1911926717192	3	0
27 fourier 1	0.457973137376	1	0
28 fourier 1	1.550515418264	2	180
29 fourier 1	0	1	0
30 fourier 1	0.3445382149273	3	0
31 fourier 1	0.1364556373303	1	0
32 fourier 1	0.3026390167484	3	0


Improper Coeffs

1 3.5	-1	2
2 0.3333333333333333	-1	2
3 0.3666666666666667	-1	2


Atoms

1	1	1	-0.55118299	5.888	1.24	-0.66600001
2	1	2	0.820481	5.763	0.13699999	-1.261
3	1	3	-0.47001699	4.664	-0.73799998	-0.98100001
4	1	2	0.22979601	3.517	-0.37	-0.19499999
5	1	2	-0.36686301	2.8740001	-1.309	0.51999998
6	1	2	-0.141712	1.6849999	-0.95899999	1.324
7	1	2	-0.24492399	1.228	0.30500001	1.3430001
8	1	2	-0.141712	1.906	1.335	0.51999998
9	1	2	-0.36686301	2.983	1.017	-0.208
10	1	4	0.217088	3.4389999	1.776	-0.829
11	1	4	0.215303	1.521	2.346	0.493
12	1	5	-0.050567999	-0.0060000001	0.66500002	2.1259999
13	1	2	-0.24492399	-1.234	0.47	1.28
14	1	2	-0.141712	-1.6900001	1.4579999	0.491
15	1	2	-0.37905499	-2.8740001	1.243	-0.366
16	1	2	0.206089	-3.5139999	0.061000001	-0.36300001
17	1	2	-0.37905499	-2.983	-1.044	0.477
18	1	2	-0.141712	-1.91	-0.84899998	1.253
19	1	4	0.215303	-1.527	-1.666	1.852
20	1	4	0.217088	-3.4360001	-2.026	0.44600001
21	1	3	-0.50758398	-4.6560001	-0.12899999	-1.216
22	1	2	0.57143801	-5.7550001	-0.995	-0.90799999
23	1	1	-0.60944802	-5.8860002	-1.506	0.235
24	1	6	0.32155699	-4.737	0.44999999	-2.082
25	1	4	0.217088	-3.227	2.056	-0.98799998
26	1	4	0.215303	-1.1950001	2.421	0.47
27	1	7	0.12620001	0.061999999	1.72	2.4719999
28	1	7	0.12620001	-0.077	0.039999999	3.043
29	1	4	0.215303	1.189	-1.735	1.893
30	1	4	0.217088	3.2290001	-2.332	0.52700001
31	1	6	0.32553101	4.7480001	-1.726	-1.313
32	1	8	-0.48686299	7.6269999	3.8710001	-5.0970001
33	1	5	0.124991	6.4530001	3.1730001	-4.7839999
34	1	5	-0.131422	6.7940001	1.832	-4.1279998
35	1	5	-0.131422	5.5219998	1.036	-3.8050001
36	1	5	0.124991	5.8470001	-0.32100001	-3.1730001
37	1	8	-0.48686299	6.4910002	-0.15800001	-1.938
38	1	9	0.106845	6.5100002	-0.90100002	-3.8510001
39	1	9	0.106845	4.9089999	-0.90600002	-3.0420001
40	1	7	0.109724	4.8779998	1.619	-3.1110001
41	1	7	0.109724	4.9499998	0.861	-4.7420001
42	1	7	0.109724	7.3629999	2.0220001	-3.1919999
43	1	7	0.109724	7.4359999	1.244	-4.8189998
44	1	9	0.106845	5.8899999	2.993	-5.724
45	1	9	0.106845	5.8099999	3.7820001	-4.1079998
46	1	1	-0.55118299	14.997	0.72899997	4.678
47	1	2	0.820481	14.064	-0.116	4.619
48	1	3	-0.47001699	12.765	0.242	4.1339998
49	1	2	0.22979601	12.46	1.487	3.4809999
50	1	2	-0.36686301	11.232	2.017	3.6040001
51	1	2	-0.141712	10.891	3.2869999	2.9300001
52	1	2	-0.24492399	11.806	3.925	2.181
53	1	2	-0.141712	13.148	3.3210001	2.006
54	1	2	-0.36686301	13.458	2.171	2.6159999
55	1	4	0.217088	14.43	1.73	2.4430001
56	1	4	0.215303	13.88	3.803	1.37
57	1	5	-0.050567999	11.457	5.197	1.4579999
58	1	2	-0.24492399	10.889	4.8860002	0.1
59	1	2	-0.141712	11.695	4.7379999	-0.96499997
60	1	2	-0.36686301	11.13	4.3930001	-2.2850001
61	1	2	0.22979601	9.8050003	4.2309999	-2.441
62	1	2	-0.36686301	8.9200001	4.3520002	-1.253
63	1	2	-0.141712	9.4320002	4.664	-0.056000002
64	1	4	0.215303	8.7770004	4.7379999	0.80299997
65	1	4	0.217088	7.8590002	4.1570001	-1.335
66	1	3	-0.47001699	9.2799997	3.881	-3.733
67	1	2	0.820481	7.9840002	4.2670002	-4.2069998
68	1	1	-0.55118299	7.2859998	5.1129999	-3.5869999
69	1	6	0.32553101	9.8999996	3.378	-4.4070001
70	1	4	0.217088	11.799	4.2859998	-3.131
71	1	4	0.215303	12.766	4.8660002	-0.86900002
72	1	7	0.12620001	12.363	5.836	1.3609999
73	1	7	0.12620001	10.722	5.7880001	2.0480001
74	1	4	0.215303	9.8929996	3.6930001	3.049
75	1	4	0.217088	10.48	1.526	4.2090001
76	1	6	0.32553101	11.983	-0.41999999	4.3410001
77	1	8	-0.48686299	18.815001	-2.799	3.0780001
78	1	5	0.124991	17.632999	-2.3210001	2.4960001
79	1	5	-0.131422	16.487	-2.365	3.51
80	1	5	-0.131422	15.176	-1.875	2.8829999
81	1	5	0.124991	14.012	-1.939	3.878
82	1	8	-0.48686299	14.232	-1.08	4.9640002
83	1	9	0.106845	13.899	-2.9779999	4.256
84	1	9	0.106845	13.064	-1.6670001	3.3599999
85	1	7	0.109724	15.296	-0.82800001	2.526
86	1	7	0.109724	14.926	-2.5120001	2.006
87	1	7	0.109724	16.749001	-1.723	4.3790002
88	1	7	0.109724	16.361	-3.4100001	3.869
89	1	9	0.106845	17.384001	-2.9660001	1.626
90	1	9	0.106845	17.781	-1.281	2.122
91	1	1	-0.55118299	17.631001	1.558	14.883
92	1	2	0.820481	16.487	1.574	14.356
93	1	3	-0.47001699	16.318001	1.793	12.951
94	1	2	0.22979601	17.393999	1.791	11.997
95	1	2	-0.36686301	17.306999	2.559	10.898
96	1	2	-0.141712	18.393	2.5639999	9.8970003
97	1	2	-0.24492399	19.481001	1.793	10.071
98	1	2	-0.141712	19.561001	0.91100001	11.259
99	1	2	-0.36686301	18.577	0.90600002	12.166
100	1	4	0.217088	18.639999	0.226	13.005
101	1	4	0.215303	20.410999	0.25299999	11.388
102	1	5	-0.050567999	20.573999	1.76	9.0380001
103	1	2	-0.24492399	20.275	0.71499997	7.9980001
104	1	2	-0.141712	20.671	-0.55800003	8.1680002
105	1	2	-0.36686301	20.339001	-1.584	7.1589999
106	1	2	0.22979601	19.643	-1.258	6.0560002
107	1	2	-0.36686301	19.167999	0.141	5.8909998
108	1	2	-0.141712	19.469999	1.071	6.8049998
109	1	4	0.215303	19.107	2.0829999	6.6789999
110	1	4	0.217088	18.547001	0.41499999	5.0489998
111	1	3	-0.47001699	19.319	-2.277	5.0949998
112	1	2	0.820481	19.173	-2.0409999	3.6889999
113	1	1	-0.55118299	19.514999	-0.94499999	3.171
114	1	6	0.32553101	19.254999	-3.2690001	5.4169998
115	1	4	0.217088	20.674999	-2.6010001	7.3140001
116	1	4	0.215303	21.236	-0.84799999	9.0450001
117	1	7	0.12620001	21.549999	1.549	9.5290003
118	1	7	0.12620001	20.677999	2.756	8.5539999
119	1	4	0.215303	18.298	3.1960001	9.0220003
120	1	4	0.217088	16.445	3.1949999	10.739
121	1	6	0.32553101	15.357	2.04	12.622
122	1	8	-0.48686299	16.438999	-2.527	18.27
123	1	5	0.124991	16.443001	-2.3959999	16.874001
124	1	5	-0.131422	15.737	-1.102	16.462
125	1	5	-0.131422	15.703	-0.954	14.935
126	1	5	0.124991	14.974	0.32300001	14.505
127	1	8	-0.48686299	15.651	1.464	14.96
128	1	9	0.106845	13.944	0.32499999	14.921
129	1	9	0.106845	14.887	0.347	13.395
130	1	7	0.109724	16.74	-0.93800002	14.534
131	1	7	0.109724	15.175	-1.827	14.493
132	1	7	0.109724	16.275	-0.23800001	16.909
133	1	7	0.109724	14.698	-1.114	16.858999
134	1	9	0.106845	15.907	-3.266	16.438
135	1	9	0.106845	17.489	-2.4070001	16.489
136	1	1	-0.55118299	17.826	9.5170002	21.839001
137	1	2	0.820481	17.427999	9.5190001	20.643999
138	1	3	-0.47001699	17.781	8.4639997	19.74
139	1	2	0.22979601	18.406	7.2329998	20.141001
140	1	2	-0.36686301	19.23	6.5999999	19.288
141	1	2	-0.141712	19.872999	5.3260002	19.67
142	1	2	-0.24492399	19.636	4.7810001	20.875999
143	1	2	-0.141712	18.694	5.4520001	21.802
144	1	2	-0.36686301	18.111	6.6069999	21.455999
145	1	4	0.217088	17.398001	7.0580001	22.132999
146	1	4	0.215303	18.461	5.0009999	22.759001
147	1	5	-0.050567999	20.254	3.464	21.26
148	1	2	-0.24492399	19.371	2.3280001	20.820999
149	1	2	-0.141712	18.389	1.872	21.618
150	1	2	-0.36686301	17.504	0.78200001	21.162001
151	1	2	0.22979601	17.671	0.227	19.948999
152	1	2	-0.36686301	18.729	0.76200002	19.052
153	1	2	-0.141712	19.531	1.75	19.466
154	1	4	0.215303	20.290001	2.138	18.798
155	1	4	0.217088	18.84	0.38299999	18.045
156	1	3	-0.47001699	16.787001	-0.82300001	19.521
157	1	2	0.820481	17.165001	-1.881	18.631001
158	1	1	-0.55118299	18.368999	-2.0710001	18.315001
159	1	6	0.32553101	15.828	-0.87099999	19.934
160	1	4	0.217088	16.724001	0.426	21.823999
161	1	4	0.215303	18.233999	2.2980001	22.601999
162	1	7	0.12620001	20.410999	3.428	22.361
163	1	7	0.12620001	21.26	3.3599999	20.798
164	1	4	0.215303	20.535	4.8390002	18.964001
165	1	4	0.217088	19.441999	7.0229998	18.313999
166	1	6	0.32553101	17.635	8.6450005	18.721001
167	1	8	-0.48686299	13.132	11.433	23.809
168	1	5	0.124991	13.481	10.288	23.079
169	1	5	-0.131422	14.386	10.666	21.903
170	1	5	-0.131422	14.754	9.4300003	21.070999
171	1	5	0.124991	15.638	9.7959995	19.874001
172	1	8	-0.48686299	16.867001	10.32	20.299
173	1	9	0.106845	15.122	10.551	19.243
174	1	9	0.106845	15.805	8.8920002	19.243999
175	1	7	0.109724	15.287	8.691	21.709
176	1	7	0.109724	13.825	8.9519997	20.691
177	1	7	0.109724	15.311	11.14	22.297001
178	1	7	0.109724	13.857	11.404	21.261
179	1	9	0.106845	12.55	9.8199997	22.694
180	1	9	0.106845	13.991	9.5500002	23.739
181	1	1	-0.55118299	23.802	18.159	23.011
182	1	2	0.820481	23.829	17.296	22.094
183	1	3	-0.47001699	23.198	16.018999	22.254999
184	1	2	0.22979601	22.315001	15.685	23.339001
185	1	2	-0.36686301	22.254999	14.416	23.778
186	1	2	-0.141712	21.344999	14.045	24.881001
187	1	2	-0.24492399	20.561001	14.973	25.455
188	1	2	-0.141712	20.591	16.364	24.945
189	1	2	-0.36686301	21.415001	16.701	23.945999
190	1	4	0.217088	21.392	17.712999	23.565001
191	1	4	0.215303	19.931999	17.111	25.370001
192	1	5	-0.050567999	19.601999	14.598	26.552
193	1	2	-0.24492399	18.284	14.169	25.966999
194	1	2	-0.141712	17.320999	15.07	25.705999
195	1	2	-0.36686301	16.046	14.643	25.094999
196	1	2	0.22979601	15.829	13.35	24.798
197	1	2	-0.36686301	16.910999	12.362	25.046
198	1	2	-0.141712	18.066999	12.749	25.6
199	1	4	0.215303	18.851999	12.021	25.764999
200	1	4	0.217088	16.791	11.328	24.753
201	1	3	-0.47001699	14.585	12.961	24.190001
202	1	2	0.820481	13.961	11.685	24.379
203	1	1	-0.55118299	14.37	10.881	25.257999
204	1	6	0.32553101	14.056	13.669	23.632
205	1	4	0.217088	15.282	15.386	24.900999
206	1	4	0.215303	17.466999	16.117001	25.938
207	1	7	0.12620001	19.457001	15.462	27.238001
208	1	7	0.12620001	20.025	13.777	27.171
209	1	4	0.215303	21.32	13.015	25.216999
210	1	4	0.217088	22.882999	13.653	23.336
211	1	6	0.32553101	23.462999	15.271	21.575001
212	1	8	-0.48686299	23.125999	22.334999	19.593
213	1	5	0.124991	22.386	21.176001	19.864
214	1	5	-0.131422	23.309	19.955	19.899
215	1	5	-0.131422	22.514	18.669001	20.163
216	1	5	0.124991	23.42	17.433001	20.173
217	1	8	-0.48686299	24.35	17.502001	21.221001
218	1	9	0.106845	23.968	17.362	19.209
219	1	9	0.106845	22.798	16.514999	20.273001
220	1	7	0.109724	21.987	18.745001	21.139999
221	1	7	0.109724	21.749001	18.539	19.367001
222	1	7	0.109724	24.066999	20.097	20.700001
223	1	7	0.109724	23.837	19.872	18.924
224	1	9	0.106845	21.629	21.046	19.061001
225	1	9	0.106845	21.846001	21.281	20.833
226	1	1	-0.55118299	33.859001	19.864	25.792
227	1	2	0.820481	33.258999	18.77	25.622
228	1	3	-0.47001699	31.827999	18.704	25.582001
229	1	2	0.22979601	30.968	19.854	25.507
230	1	2	-0.36686301	29.747	19.806	26.066
231	1	2	-0.141712	28.839001	20.969999	25.99
232	1	2	-0.24492399	29.223	22.089001	25.354
233	1	2	-0.141712	30.552	22.131001	24.697001
234	1	2	-0.36686301	31.374001	21.077	24.766001
235	1	4	0.217088	32.321999	21.117001	24.247
236	1	4	0.215303	30.855	23.011999	24.143999
237	1	5	-0.050567999	28.292999	23.264999	25.235001
238	1	2	-0.24492399	27.434999	23.129	24.007
239	1	2	-0.141712	27.856001	23.597	22.819
240	1	2	-0.36686301	27.023001	23.423	21.611
241	1	2	0.22979601	25.834	22.801001	21.684999
242	1	2	-0.36686301	25.391001	22.245001	22.99
243	1	2	-0.141712	26.145	22.403	24.084
244	1	4	0.215303	25.816	21.983	25.027
245	1	4	0.217088	24.472	21.679001	23.063999
246	1	3	-0.47001699	25.048	22.629999	20.492001
247	1	2	0.820481	23.615999	22.587	20.472
248	1	1	-0.55118299	22.937	22.893999	21.487
249	1	6	0.32553101	25.535999	22.608999	19.568001
250	1	4	0.217088	27.379999	23.815001	20.667
251	1	4	0.215303	28.808001	24.105	22.731001
252	1	7	0.12620001	28.879999	24.209	25.193001
253	1	7	0.12620001	27.648001	23.34	26.139
254	1	4	0.215303	27.862	20.903999	26.452
255	1	4	0.217088	29.417999	18.917999	26.591
256	1	6	0.32553101	31.393999	17.759001	25.688999
257	1	8	-0.48686299	37.824001	18.68	22.261
258	1	5	0.124991	36.431	18.792999	22.150999
259	1	5	-0.131422	35.747002	18.035	23.292999
260	1	5	-0.131422	34.220001	18.118	23.174
261	1	5	0.124991	33.52	17.341	24.292999
262	1	8	-0.48686299	33.812	17.896	25.548
263	1	9	0.106845	33.855	16.282	24.280001
264	1	9	0.106845	32.419998	17.346001	24.118999
265	1	7	0.109724	33.896	19.181999	23.207001
266	1	7	0.109724	33.903	17.691999	22.197001
267	1	7	0.109724	36.070999	18.472	24.261999
268	1	7	0.109724	36.066002	16.969999	23.261999
269	1	9	0.106845	36.118999	18.358	21.177999
270	1	9	0.106845	36.127998	19.865	22.162001
271	1	1	-0.55118299	39.292	18.919001	34.812
272	1	2	0.820481	38.09	18.624001	34.576
273	1	3	-0.47001699	37.415001	19.122999	33.415001
274	1	2	0.22979601	38.07	19.798	32.327
275	1	2	-0.36686301	37.403	20.732	31.629
276	1	2	-0.141712	38.049	21.427999	30.497
277	1	2	-0.24492399	39.312	21.129999	30.149
278	1	2	-0.141712	40.036999	20.068001	30.888
279	1	2	-0.36686301	39.452	19.437	31.913
280	1	4	0.217088	39.986	18.641001	32.411999
281	1	4	0.215303	41.039001	19.788	30.589001
282	1	5	-0.050567999	39.966	21.802999	28.973
283	1	2	-0.24492399	39.674999	21.042999	27.709
284	1	2	-0.141712	40.469002	20.032	27.316
285	1	2	-0.36686301	40.151001	19.264999	26.093
286	1	2	0.22979601	39.070999	19.572001	25.356001
287	1	2	-0.36686301	38.169998	20.662001	25.815001
288	1	2	-0.141712	38.457001	21.356001	26.923
289	1	4	0.215303	37.786999	22.139	27.253
290	1	4	0.217088	37.256001	20.882999	25.280001
291	1	3	-0.47001699	38.773998	18.802999	24.177999
292	1	2	0.820481	38.115002	19.327	23.018
293	1	1	-0.55118299	37.923	20.563999	22.878
294	1	6	0.32553101	39.120998	17.818001	24.121
295	1	4	0.217088	40.810001	18.459999	25.792999
296	1	4	0.215303	41.348	19.764999	27.889
297	1	7	0.12620001	41.063999	21.870001	29.139999
298	1	7	0.12620001	39.602001	22.85	28.875999
299	1	4	0.215303	37.488998	22.179001	29.954
300	1	4	0.217088	36.387001	20.995001	31.895
301	1	6	0.32553101	36.372002	19.051001	33.405998
302	1	8	-0.48686299	40.556	13.954	36.638
303	1	5	0.124991	40.067001	14.442	35.418999
304	1	5	-0.131422	38.91	15.414	35.664001
305	1	5	-0.131422	38.337002	15.936	34.339001
306	1	5	0.124991	37.159	16.889	34.566002
307	1	8	-0.48686299	37.57	18.039	35.257
308	1	9	0.106845	36.370998	16.375999	35.157001
309	1	9	0.106845	36.713001	17.171	33.585999
310	1	7	0.109724	39.131001	16.464001	33.766998
311	1	7	0.109724	37.984001	15.078	33.727001
312	1	7	0.109724	39.277	16.268	36.273998
313	1	7	0.109724	38.111	14.89	36.234001
314	1	9	0.106845	39.707001	13.581	34.814999
315	1	9	0.106845	40.882	14.945	34.848999
316	1	1	-0.55118299	39.332001	24.157	43.994999
317	1	2	0.820481	38.587002	24.320999	42.993
318	1	3	-0.47001699	38.925999	23.77	41.715
319	1	2	0.22979601	39.987999	22.825001	41.498001
320	1	2	-0.36686301	40.639	22.816999	40.323002
321	1	2	-0.141712	41.723999	21.846001	40.070999
322	1	2	-0.24492399	42.068001	20.952999	41.014999
323	1	2	-0.141712	41.323002	20.927999	42.296001
324	1	2	-0.36686301	40.34	21.808001	42.523998
325	1	4	0.217088	39.785	21.746	43.451
326	1	4	0.215303	41.561001	20.186001	43.047001
327	1	5	-0.050567999	43.143002	19.934	40.755001
328	1	2	-0.24492399	42.551998	18.702999	40.123001
329	1	2	-0.141712	42.069	17.705	40.882
330	1	2	-0.36686301	41.455002	16.518	40.251999
331	1	2	0.22979601	41.376999	16.417999	38.915001
332	1	2	-0.36686301	41.872002	17.542	38.077
333	1	2	-0.141712	42.429001	18.617001	38.647999
334	1	4	0.215303	42.775002	19.434	38.028
335	1	4	0.217088	41.757999	17.518999	37.001999
336	1	3	-0.47001699	40.762001	15.26	38.324001
337	1	2	0.820481	41.130001	14.713	37.051998
338	1	1	-0.55118299	42.164001	15.102	36.446999
339	1	6	0.32553101	40.051998	14.731	38.880001
340	1	4	0.217088	41.078999	15.724	40.884998
341	1	4	0.215303	42.120998	17.757999	41.963001
342	1	7	0.12620001	43.653	19.672001	41.708
343	1	7	0.12620001	43.926998	20.360001	40.089001
344	1	4	0.215303	42.234001	21.864	39.116001
345	1	4	0.217088	40.384998	23.532	39.549999
346	1	6	0.32553101	38.41	24.143	40.886002
347	1	8	-0.134821	35.188999	23.48	47.452999
348	1	5	0.042660002	35.609001	22.802	46.299999
349	1	5	-0.137421	35.924	23.802	45.183998
350	1	5	-0.130243	36.355999	23.08	43.901001
351	1	5	0.125062	36.647999	24.066	42.764999
352	1	8	-0.48686299	37.73	24.898001	43.089001
353	1	9	0.106845	35.752998	24.695999	42.576
354	1	9	0.106845	36.863998	23.503	41.828999
355	1	7	0.109896	37.263	22.469	44.098999
356	1	7	0.109896	35.542999	22.395	43.573002
357	1	7	0.111286	36.738998	24.478001	45.523998
358	1	7	0.111286	35.019001	24.415001	44.98
359	1	9	0.10736	34.790001	22.127001	45.972
360	1	9	0.10736	36.504002	22.177	46.523998
361	1	1	-0.60944802	-6.1880002	-1.151	-2.8770001
362	1	2	0.57143801	-6.5110002	-1.184	-1.66
363	1	3	-0.50758398	-7.8660002	-1.416	-1.2539999
364	1	2	0.206089	-8.927	-1.813	-2.141
365	1	2	-0.37905499	-8.7119999	-2.6530001	-3.171
366	1	2	-0.141712	-9.8310003	-3.069	-4.0419998
367	1	2	-0.24492399	-11.076	-2.618	-3.8110001
368	1	2	-0.141712	-11.32	-1.723	-2.655
369	1	2	-0.37905499	-10.306	-1.347	-1.8660001
370	1	4	0.217088	-10.497	-0.69400001	-1.024
371	1	4	0.215303	-12.322	-1.373	-2.4419999
372	1	5	-0.050567999	-12.228	-3.069	-4.6659999
373	1	2	-0.25936499	-12.841	-4.3189998	-4.0939999
374	1	2	-0.18677001	-12.39	-5.5320001	-4.4559999
375	1	2	-0.25877801	-12.971	-6.7529998	-3.859
376	1	2	0.44144601	-13.943	-6.665	-2.9389999
377	1	2	-0.25877801	-14.431	-5.3210001	-2.5250001
378	1	2	-0.18677001	-13.908	-4.2160001	-3.0710001
379	1	4	0.201427	-14.268	-3.244	-2.7590001
380	1	4	0.209103	-15.21	-5.224	-1.78
381	1	3	-0.345716	-14.48	-7.8730001	-2.3800001
382	1	10	0.61510903	-15.402	-7.888	-1.503
383	1	1	-0.30254799	-16.299	-7.9039998	-0.64999998
384	1	4	0.209103	-12.599	-7.7210002	-4.171
385	1	4	0.201427	-11.595	-5.632	-5.1849999
386	1	7	0.12620001	-12.995	-2.266	-4.7150002
387	1	7	0.12620001	-11.892	-3.243	-5.7119999
388	1	4	0.215303	-9.6330004	-3.7479999	-4.862
389	1	4	0.217088	-7.73	-3.066	-3.3610001
390	1	6	0.32155699	-8.1120005	-1.182	-0.26699999
391	1	8	-0.134821	36.005001	23.858999	47.873001
392	1	5	0.042775001	35.778999	23.865	49.256001
393	1	5	-0.13167199	34.844002	25.017	49.633999
394	1	5	-0.15872701	34.608002	25.062	51.148998
395	1	5	0.096582003	33.695999	26.228001	51.547001
396	1	11	-0.66781199	32.417999	26.077	50.990002
397	1	12	0.40347001	31.961	25.368999	51.514
398	1	9	0.101116	34.133999	27.184999	51.192001
399	1	9	0.101116	33.625	26.284	52.657001
400	1	7	0.113752	34.151001	24.106001	51.487999
401	1	7	0.113752	35.583	25.183001	51.669998
402	1	7	0.111477	33.873001	24.882999	49.108002
403	1	7	0.111477	35.297001	25.976	49.299
404	1	9	0.10736	36.755001	23.995001	49.771
405	1	9	0.10736	35.345001	22.891001	49.580002

Bonds

1	1	1	2
2	2	2	3
3	3	2	37
4	4	3	4
5	5	3	31
6	6	4	5
7	6	4	9
8	6	5	6
9	7	5	30
10	6	6	7
11	7	6	29
12	6	7	8
13	8	7	12
14	6	8	9
15	7	8	11
16	7	9	10
17	8	12	13
18	9	12	27
19	9	12	28
20	6	13	14
21	6	13	18
22	6	14	15
23	7	14	26
24	6	15	16
25	7	15	25
26	6	16	17
27	4	16	21
28	6	17	18
29	7	17	20
30	7	18	19
31	2	21	22
32	5	21	24
33	1	22	23
34	10	22	362
35	11	32	33
36	3	32	67
37	12	33	34
38	9	33	44
39	9	33	45
40	12	34	35
41	9	34	42
42	9	34	43
43	12	35	36
44	9	35	40
45	9	35	41
46	11	36	37
47	9	36	38
48	9	36	39
49	1	46	47
50	2	47	48
51	3	47	82
52	4	48	49
53	5	48	76
54	6	49	50
55	6	49	54
56	6	50	51
57	7	50	75
58	6	51	52
59	7	51	74
60	6	52	53
61	8	52	57
62	6	53	54
63	7	53	56
64	7	54	55
65	8	57	58
66	9	57	72
67	9	57	73
68	6	58	59
69	6	58	63
70	6	59	60
71	7	59	71
72	6	60	61
73	7	60	70
74	6	61	62
75	4	61	66
76	6	62	63
77	7	62	65
78	7	63	64
79	2	66	67
80	5	66	69
81	1	67	68
82	11	77	78
83	3	77	112
84	12	78	79
85	9	78	89
86	9	78	90
87	12	79	80
88	9	79	87
89	9	79	88
90	12	80	81
91	9	80	85
92	9	80	86
93	11	81	82
94	9	81	83
95	9	81	84
96	1	91	92
97	2	92	93
98	3	92	127
99	4	93	94
100	5	93	121
101	6	94	95
102	6	94	99
103	6	95	96
104	7	95	120
105	6	96	97
106	7	96	119
107	6	97	98
108	8	97	102
109	6	98	99
110	7	98	101
111	7	99	100
112	8	102	103
113	9	102	117
114	9	102	118
115	6	103	104
116	6	103	108
117	6	104	105
118	7	104	116
119	6	105	106
120	7	105	115
121	6	106	107
122	4	106	111
123	6	107	108
124	7	107	110
125	7	108	109
126	2	111	112
127	5	111	114
128	1	112	113
129	11	122	123
130	3	122	157
131	12	123	124
132	9	123	134
133	9	123	135
134	12	124	125
135	9	124	132
136	9	124	133
137	12	125	126
138	9	125	130
139	9	125	131
140	11	126	127
141	9	126	128
142	9	126	129
143	1	136	137
144	2	137	138
145	3	137	172
146	4	138	139
147	5	138	166
148	6	139	140
149	6	139	144
150	6	140	141
151	7	140	165
152	6	141	142
153	7	141	164
154	6	142	143
155	8	142	147
156	6	143	144
157	7	143	146
158	7	144	145
159	8	147	148
160	9	147	162
161	9	147	163
162	6	148	149
163	6	148	153
164	6	149	150
165	7	149	161
166	6	150	151
167	7	150	160
168	6	151	152
169	4	151	156
170	6	152	153
171	7	152	155
172	7	153	154
173	2	156	157
174	5	156	159
175	1	157	158
176	11	167	168
177	3	167	202
178	12	168	169
179	9	168	179
180	9	168	180
181	12	169	170
182	9	169	177
183	9	169	178
184	12	170	171
185	9	170	175
186	9	170	176
187	11	171	172
188	9	171	173
189	9	171	174
190	1	181	182
191	2	182	183
192	3	182	217
193	4	183	184
194	5	183	211
195	6	184	185
196	6	184	189
197	6	185	186
198	7	185	210
199	6	186	187
200	7	186	209
201	6	187	188
202	8	187	192
203	6	188	189
204	7	188	191
205	7	189	190
206	8	192	193
207	9	192	207
208	9	192	208
209	6	193	194
210	6	193	198
211	6	194	195
212	7	194	206
213	6	195	196
214	7	195	205
215	6	196	197
216	4	196	201
217	6	197	198
218	7	197	200
219	7	198	199
220	2	201	202
221	5	201	204
222	1	202	203
223	11	212	213
224	3	212	247
225	12	213	214
226	9	213	224
227	9	213	225
228	12	214	215
229	9	214	222
230	9	214	223
231	12	215	216
232	9	215	220
233	9	215	221
234	11	216	217
235	9	216	218
236	9	216	219
237	1	226	227
238	2	227	228
239	3	227	262
240	4	228	229
241	5	228	256
242	6	229	230
243	6	229	234
244	6	230	231
245	7	230	255
246	6	231	232
247	7	231	254
248	6	232	233
249	8	232	237
250	6	233	234
251	7	233	236
252	7	234	235
253	8	237	238
254	9	237	252
255	9	237	253
256	6	238	239
257	6	238	243
258	6	239	240
259	7	239	251
260	6	240	241
261	7	240	250
262	6	241	242
263	4	241	246
264	6	242	243
265	7	242	245
266	7	243	244
267	2	246	247
268	5	246	249
269	1	247	248
270	11	257	258
271	3	257	292
272	12	258	259
273	9	258	269
274	9	258	270
275	12	259	260
276	9	259	267
277	9	259	268
278	12	260	261
279	9	260	265
280	9	260	266
281	11	261	262
282	9	261	263
283	9	261	264
284	1	271	272
285	2	272	273
286	3	272	307
287	4	273	274
288	5	273	301
289	6	274	275
290	6	274	279
291	6	275	276
292	7	275	300
293	6	276	277
294	7	276	299
295	6	277	278
296	8	277	282
297	6	278	279
298	7	278	281
299	7	279	280
300	8	282	283
301	9	282	297
302	9	282	298
303	6	283	284
304	6	283	288
305	6	284	285
306	7	284	296
307	6	285	286
308	7	285	295
309	6	286	287
310	4	286	291
311	6	287	288
312	7	287	290
313	7	288	289
314	2	291	292
315	5	291	294
316	1	292	293
317	11	302	303
318	3	302	337
319	12	303	304
320	9	303	314
321	9	303	315
322	12	304	305
323	9	304	312
324	9	304	313
325	12	305	306
326	9	305	310
327	9	305	311
328	11	306	307
329	9	306	308
330	9	306	309
331	1	316	317
332	2	317	318
333	3	317	352
334	4	318	319
335	5	318	346
336	6	319	320
337	6	319	324
338	6	320	321
339	7	320	345
340	6	321	322
341	7	321	344
342	6	322	323
343	8	322	327
344	6	323	324
345	7	323	326
346	7	324	325
347	8	327	328
348	9	327	342
349	9	327	343
350	6	328	329
351	6	328	333
352	6	329	330
353	7	329	341
354	6	330	331
355	7	330	340
356	6	331	332
357	4	331	336
358	6	332	333
359	7	332	335
360	7	333	334
361	2	336	337
362	5	336	339
363	1	337	338
364	11	347	348
365	13	347	391
366	12	348	349
367	9	348	359
368	9	348	360
369	12	349	350
370	9	349	357
371	9	349	358
372	12	350	351
373	9	350	355
374	9	350	356
375	11	351	352
376	9	351	353
377	9	351	354
378	1	361	362
379	2	362	363
380	4	363	364
381	5	363	390
382	6	364	365
383	6	364	369
384	6	365	366
385	7	365	389
386	6	366	367
387	7	366	388
388	6	367	368
389	8	367	372
390	6	368	369
391	7	368	371
392	7	369	370
393	8	372	373
394	9	372	386
395	9	372	387
396	6	373	374
397	6	373	378
398	6	374	375
399	7	374	385
400	6	375	376
401	7	375	384
402	6	376	377
403	14	376	381
404	6	377	378
405	7	377	380
406	7	378	379
407	15	381	382
408	1	382	383
409	11	391	392
410	12	392	393
411	9	392	404
412	9	392	405
413	12	393	394
414	9	393	402
415	9	393	403
416	12	394	395
417	9	394	400
418	9	394	401
419	16	395	396
420	9	395	398
421	9	395	399
422	17	396	397

Angles

1	1	15	16	17
2	1	192	193	194
3	6	278	279	280
4	6	144	143	146
5	6	369	368	371
6	6	367	366	388
7	7	262	261	263
8	1	228	229	230
9	8	44	33	45
10	1	53	52	57
11	1	278	277	282
12	7	304	303	315
13	4	67	66	69
14	7	168	169	170
15	6	322	321	344
16	6	105	104	116
17	6	140	141	164
18	4	364	363	390
19	1	102	103	104
20	1	105	106	107
21	7	257	258	269
22	8	297	282	298
23	1	4	5	6
24	8	357	349	358
25	1	52	53	54
26	4	227	228	256
27	1	274	275	276
28	1	277	278	279
29	6	328	329	341
30	1	242	241	246
31	1	318	317	352
32	7	78	79	80
33	7	395	394	400
34	6	275	276	299
35	1	32	67	66
36	1	212	247	246
37	6	243	242	245
38	1	59	60	61
39	1	197	196	201
40	1	291	292	293
41	3	331	336	337
42	1	152	151	156
43	7	307	306	309
44	1	61	62	63
45	8	224	213	225
46	1	238	239	240
47	7	169	170	176
48	1	195	196	197
49	7	7	12	13
50	1	374	375	376
51	2	271	272	307
52	1	228	229	234
53	8	353	351	354
54	1	91	92	93
55	1	94	95	96
56	6	322	323	326
57	7	214	215	216
58	6	141	140	165
59	6	285	284	296
60	7	349	350	355
61	7	127	126	129
62	7	79	80	86
63	6	148	153	154
64	3	151	156	157
65	7	303	304	313
66	6	373	378	379
67	6	14	15	25
68	6	194	195	205
69	1	12	13	18
70	6	333	332	335
71	7	232	237	253
72	7	212	213	214
73	7	258	259	260
74	3	227	228	229
75	5	137	172	171
76	1	141	142	143
77	7	350	351	353
78	1	366	367	368
79	6	139	140	165
80	7	80	81	84
81	7	258	259	267
82	4	157	156	159
83	1	4	9	8
84	7	123	124	133
85	1	13	18	17
86	1	104	105	106
87	1	241	242	243
88	6	230	231	254
89	7	216	215	220
90	6	377	378	379
91	4	182	183	211
92	1	105	106	111
93	7	169	168	180
94	1	139	144	143
95	7	396	395	398
96	1	16	17	18
97	1	327	328	329
98	6	8	9	10
99	7	328	327	342
100	7	304	303	314
101	6	366	365	389
102	7	79	78	90
103	7	352	351	353
104	8	134	123	135
105	1	143	142	147
106	6	96	95	120
107	7	170	169	178
108	7	36	35	40
109	7	304	305	306
110	7	347	348	359
111	6	365	366	388
112	1	368	367	372
113	8	386	372	387
114	1	186	187	188
115	4	286	291	294
116	6	186	185	210
117	1	5	4	9
118	7	187	192	208
119	6	184	189	190
120	1	122	157	156
121	7	193	192	208
122	7	259	260	261
123	1	149	150	151
124	3	106	111	112
125	1	21	22	362
126	6	50	51	74
127	6	331	330	340
128	1	329	328	333
129	7	348	349	357
130	6	284	285	295
131	1	3	2	37
132	3	182	183	184
133	1	271	272	273
134	2	46	47	82
135	7	58	57	73
136	1	5	6	7
137	6	274	279	280
138	1	196	197	198
139	6	234	233	236
140	2	302	337	338
141	6	151	150	160
142	1	328	333	332
143	7	52	57	72
144	7	122	123	135
145	4	139	138	166
146	2	226	227	262
147	1	186	187	192
148	7	34	33	45
149	7	170	171	174
150	7	305	304	312
151	3	61	66	67
152	6	238	243	244
153	6	240	239	251
154	7	169	170	175
155	7	34	35	41
156	8	398	395	399
157	1	367	368	369
158	7	32	33	34
159	6	193	194	206
160	7	305	306	308
161	6	94	99	100
162	7	393	392	405
163	1	93	94	99
164	1	96	97	102
165	7	348	349	350
166	6	7	6	29
167	6	97	96	119
168	10	381	382	383
169	1	185	186	187
170	6	188	189	190
171	4	247	246	249
172	7	79	80	85
173	3	362	363	364
174	8	402	393	403
175	7	35	36	39
176	7	81	80	86
177	7	52	57	58
178	7	277	282	283
179	1	93	92	127
180	6	229	230	255
181	1	282	283	288
182	7	212	213	224
183	1	285	286	291
184	6	283	284	296
185	1	77	112	111
186	1	95	96	97
187	6	98	99	100
188	1	140	139	144
189	6	150	149	161
190	6	331	332	335
191	7	283	282	298
192	1	6	7	12
193	6	13	14	26
194	7	367	372	387
195	3	241	246	247
196	8	404	392	405
197	7	322	327	343
198	4	337	336	339
199	7	394	395	396
200	3	16	21	22
201	3	196	201	202
202	7	169	168	179
203	4	92	93	121
204	7	260	259	268
205	1	239	240	241
206	1	319	324	323
207	5	47	82	81
208	6	151	152	155
209	7	260	261	264
210	6	320	321	344
211	7	391	392	404
212	7	392	393	402
213	1	62	61	66
214	6	5	6	29
215	7	35	34	43
216	1	140	141	142
217	1	229	234	233
218	1	50	49	54
219	1	275	274	279
220	1	57	58	63