Title

1053 atoms
1151 bonds
1904 angles
2996 dihedrals
1722 impropers

11 atom types
17 bond types
12 angle types
22 dihedral types
3 improper types
-34.13199997 65.86800003 xlo xhi
-9.385000229 90.61499977 ylo yhi
-130.2590027 -30.25900269 zlo zhi
0.0 0.0 0.0 xy xz yz

Masses

1	15.99943
2	12.01078
3	14.00672
4	1.007947
5	1.007947
6	15.99943
7	12.01078
8	1.007947
9	12.01078
10	15.99943
11	1.007947


Pair Coeffs

1	0.2102061	3.0398122
2	0.086879315	3.4806469
3	0.16769152	3.206876
4	0.015611343	2.5725815
5	0.014090815	1.1034277
6	0.16846514	3.0251065
7	0.10884061	3.3795318
8	0.015779483	2.6445434
9	0.21	3.3996695
10	0.20947353	2.99716
11	1.2326e-05	0.53453923

Bond Coeffs

1 harmonic	582.698766451	1.225198386222
2 harmonic	492.76746816345	1.381897776683
3 harmonic	301.15400723785	1.345741232799
4 harmonic	390.03554688505	1.390160554689
5 harmonic	505.144496193	1.019481865027
6 harmonic	360.7852444772	1.387193227181
7 harmonic	397.2545789619	1.085358495916
8 harmonic	279.1350963404	1.454628925034
9 harmonic	425.69104206635	1.362945806494
10 harmonic	289.73813263395	1.498646816465
11 harmonic	264.62148576755	1.52190126495
12 harmonic	370.04670688625	1.093899492634
13 harmonic	300.03137914615	1.451203938761
14 harmonic	382.5450169811	1.379244394267
15 harmonic	602.81384337	1.196112346392
16 harmonic	385.7604595587	1.369745182308
17 harmonic	543.5267831885	0.9716763312559


Angle Coeffs

1 harmonic	57.8982893754	126.8062420451
2 harmonic	201.41175231035	127.4691416191
3 harmonic	55.42182150775	117.3465570514
4 harmonic	63.44422595415	115.5071327674
5 harmonic	65.09061609600001	110.3538806181
6 harmonic	34.066775159195	129.1835929926
7 harmonic	14.32262199324	138.3184368373
8 harmonic	39.628116874445	129.8027304608
9 harmonic	53.20531626545	116.5475862634
10 harmonic	48.776492647595	115.6030999533
11 harmonic	55.07882548015	112.8714009681
12 harmonic	33.56981613361	180


Dihedral Coeffs

1 fourier 1	1.809047390003	2	180
2 fourier 1	-0.04816277792592	1	0
3 fourier 1	0.4860993122944	2	180
4 fourier 1	0.8916986138746	1	0
5 fourier 1	1.532232714475	2	180
6 fourier 1	1.193093382682	2	180
7 fourier 1	2.779853741805	2	180
8 fourier 1	3.661930099076	2	180
9 fourier 1	0.9974165607242	2	180
10 fourier 1	1.57666786751	2	180
11 fourier 1	1.163235555439	2	180
12 fourier 1	3.101948770557	2	180
13 fourier 1	-0.4252153282372	1	0
14 fourier 1	2.348375642009	2	180
15 fourier 1	1.256156174911	1	0
16 fourier 1	0.02664938770063	3	0
17 fourier 1	0.1155372516788	3	0
18 fourier 1	0.1040663847541	3	0
19 fourier 1	0.457973137376	1	0
20 fourier 1	1.550515418264	2	180
21 fourier 1	0	1	0
22 fourier 1	0.8283030590042	2	180


Improper Coeffs

1 3.5	-1	2
2 0.3333333333333333	-1	2
3 0.3666666666666667	-1	2


Atoms

1	1	1	-0.57414597	13.021	-5.007	0.74199998
2	1	2	0.83896101	12.508	-5.8629999	-0.026000001
3	1	3	-0.492423	11.169	-5.7189999	-0.51499999
4	1	2	0.261922	10.381	-4.5240002	-0.38299999
5	1	2	-0.14778601	9.0369997	-4.625	-0.30599999
6	1	2	-0.171681	8.2390003	-3.3940001	-0.191
7	1	2	0.71120602	6.7940001	-3.2130001	-0.1
8	1	3	-0.530505	6.4819999	-1.819	-0.017000001
9	1	2	0.71465701	7.7649999	-1.188	-0.071000002
10	1	2	-0.249088	8.8120003	-2.201	-0.169
11	1	2	0.111005	10.27	-2.052	-0.28200001
12	1	2	-0.37793401	11.019	-3.164	-0.39199999
13	1	4	0.210823	12.088	-3.0599999	-0.51700002
14	1	4	0.214984	10.727	-1.0700001	-0.29800001
15	1	1	-0.53926498	7.9499998	0.057	-0.089000002
16	1	2	0.237363	5.1830001	-1.201	-0.012
17	1	2	-0.34498999	4.967	-0.061999999	0.667
18	1	2	-0.15538	3.625	0.55900002	0.68300003
19	1	2	-0.139313	2.599	-0.011	0.026000001
20	1	2	-0.15538	2.8439999	-1.262	-0.73799998
21	1	2	-0.34498999	4.059	-1.821	-0.75400001
22	1	4	0.204541	4.2199998	-2.7160001	-1.34
23	1	4	0.212218	2.0450001	-1.7179999	-1.3099999
24	1	2	-0.089636996	1.243	0.59299999	0.050999999
25	1	2	-0.14208101	0.15000001	-0.185	0.15099999
26	1	2	-0.089636996	-1.2130001	0.40700001	0.155
27	1	2	-0.139313	-2.414	-0.47099999	0.227
28	1	2	-0.155379	-2.437	-1.6589999	-0.40700001
29	1	2	-0.34498999	-3.631	-2.526	-0.34
30	1	2	0.237363	-4.717	-2.1400001	0.34900001
31	1	2	-0.34498999	-4.698	-0.83499998	1.052
32	1	2	-0.155379	-3.615	-0.050000001	0.99800003
33	1	4	0.212218	-3.6140001	0.88499999	1.543
34	1	4	0.204541	-5.553	-0.52100003	1.6359999
35	1	3	-0.530505	-5.8870001	-2.974	0.40099999
36	1	2	0.71120602	-7.2579999	-2.5680001	0.405
37	1	2	-0.171681	-8.1219997	-3.7409999	0.46599999
38	1	2	-0.249089	-7.3579998	-4.822	0.50099999
39	1	2	0.71465701	-5.9619999	-4.401	0.46599999
40	1	1	-0.53926498	-4.9639997	-5.1669998	0.537
41	1	2	0.111005	-7.9440002	-6.1690001	0.58700001
42	1	2	-0.38628799	-9.2840004	-6.2800002	0.61900002
43	1	2	0.234942	-10.157	-5.0640001	0.55400002
44	1	2	-0.14712299	-9.5909996	-3.8369999	0.498
45	1	4	0.217822	-10.186	-2.9319999	0.50800002
46	1	3	-0.50546801	-11.583	-5.2319999	0.62400001
47	1	2	0.57583398	-12.531	-4.3979998	-0.055
48	1	1	-0.58278602	-12.164	-3.563	-0.92299998
49	1	5	0.32671201	-11.957	-6.0710001	1.12
50	1	4	0.210823	-9.7360001	-7.2610002	0.685
51	1	4	0.214984	-7.3130002	-7.0479999	0.62800002
52	1	1	-0.53926498	-7.6500001	-1.375	0.31999999
53	1	4	0.204541	-3.625	-3.461	-0.884
54	1	4	0.212218	-1.596	-1.992	-1
55	1	2	-0.14208101	-1.341	1.744	0.082999997
56	1	2	-0.089636996	-0.147	2.622	-0.011
57	1	2	-0.14208101	1.077	2.0650001	-0.037
58	1	4	0.205428	1.957	2.691	-0.11
59	1	2	-0.075864002	-0.30899999	4.0949998	-0.086000003
60	1	2	-0.172446	-1.21	4.7249999	0.69
61	1	2	-0.172446	-1.3610001	6.1929998	0.62699997
62	1	2	-0.058913	-0.597	6.9239998	-0.206
63	1	2	-0.172446	0.39300001	6.23	-1.068
64	1	2	-0.172446	0.528	4.9000001	-1.013
65	1	4	0.21259999	1.2509999	4.415	-1.656
66	1	4	0.21259999	1.023	6.7969999	-1.7409999
67	1	2	-0.060779002	-0.741	8.3999996	-0.28600001
68	1	2	-0.168395	-0.90899998	9.1470003	0.824
69	1	2	-0.179461	-1.031	10.616	0.72500002
70	1	2	-0.221714	-0.97899997	11.216	-0.46900001
71	1	2	-0.179461	-0.79799998	10.41	-1.6930001
72	1	2	-0.168395	-0.68300003	9.0780001	-1.608
73	1	4	0.214846	-0.56800002	8.4980001	-2.516
74	1	4	0.23093399	-0.76200002	10.897	-2.6589999
75	1	4	0.233914	-1.071	12.292	-0.542
76	1	4	0.23093399	-1.165	11.207	1.622
77	1	4	0.214846	-0.935	8.691	1.804
78	1	4	0.21259999	-2.1110001	6.6610003	1.2509999
79	1	4	0.21259999	-1.822	4.171	1.392
80	1	4	0.205428	-2.325	2.197	0.046999998
81	1	4	0.205428	0.25999999	-1.255	0.26300001
82	1	4	0.212218	3.4809999	1.461	1.2639999
83	1	4	0.204541	5.7610002	0.40400001	1.235
84	1	1	-0.53926498	5.9440002	-4.1409998	-0.052999999
85	1	4	0.217822	8.5469999	-5.5900002	-0.31799999
86	1	5	0.33089301	10.719	-6.5690002	-0.92500001
87	1	6	-0.42739299	20.379	-2.257	-4.3109999
88	1	2	0.355719	19.504	-3.335	-4.4239998
89	1	2	-0.236973	19.312	-4.1469998	-3.381
90	1	2	-0.134562	18.386999	-5.2930002	-3.49
91	1	2	-0.25256401	17.704	-5.533	-4.6329999
92	1	2	-0.134562	17.945	-4.6240001	-5.7950001
93	1	2	-0.236973	18.788	-3.589	-5.691
94	1	4	0.24017499	18.950001	-2.938	-6.5409999
95	1	4	0.222755	17.448	-4.776	-6.7420001
96	1	7	0.010929	16.767	-6.7540002	-4.7179999
97	1	2	-0.25256401	15.802999	-6.7600002	-3.516
98	1	2	-0.134562	15.09	-5.6479998	-3.2249999
99	1	2	-0.236973	14.139	-5.625	-2.096
100	1	2	0.355719	13.953	-6.7210002	-1.349
101	1	2	-0.236973	14.702	-7.9520001	-1.6619999
102	1	2	-0.134562	15.569	-7.9780002	-2.681
103	1	4	0.222755	16.09	-8.9040003	-2.8769999
104	1	4	0.24017499	14.545	-8.8409996	-1.064
105	1	6	-0.42739299	13.059	-6.7160001	-0.28
106	1	4	0.24017499	13.593	-4.7150002	-1.881
107	1	4	0.222755	15.204	-4.7469997	-3.8150001
108	1	7	-0.128296	17.663	-8.0139999	-4.77
109	1	8	0.093548	18.405001	-7.928	-5.5939999
110	1	8	0.093548	18.223	-8.1459999	-3.8199999
111	1	8	0.093548	17.062	-8.9289999	-4.9619999
112	1	7	-0.128296	15.899	-6.7509999	-5.9990001
113	1	8	0.093548	15.321	-5.8059998	-6.0890002
114	1	8	0.093548	15.174	-7.5929999	-5.9770002
115	1	8	0.093548	16.524	-6.8759999	-6.9099998
116	1	4	0.222755	18.267	-5.9369998	-2.628
117	1	4	0.24017499	19.834999	-3.9720001	-2.4489999
118	1	1	-0.57414597	17.990999	14.833	-24.534
119	1	2	0.83896101	18.344999	15.366	-23.448999
120	1	3	-0.492423	18.929001	14.593	-22.393999
121	1	2	0.261922	19.374001	13.234	-22.535
122	1	2	-0.14778601	19.344	12.415	-21.462
123	1	2	-0.171681	19.82	11.031	-21.613001
124	1	2	0.71120602	19.905001	9.9519997	-20.634001
125	1	3	-0.530505	20.451	8.7810001	-21.247
126	1	2	0.71465701	20.691999	9.1929998	-22.596001
127	1	2	-0.249088	20.278999	10.582	-22.77
128	1	2	0.111005	20.356001	11.455	-23.952
129	1	2	-0.37793401	19.929001	12.725	-23.834999
130	1	4	0.210823	20.021	13.384	-24.688
131	1	4	0.214984	20.764999	11.089	-24.885
132	1	1	-0.53926498	21.233999	8.4770002	-23.476999
133	1	2	0.237363	20.792999	7.5310001	-20.622
134	1	2	-0.34498999	20.686001	6.3730001	-21.295
135	1	2	-0.15538	21.021999	5.0900002	-20.641001
136	1	2	-0.139313	21.431	5.0619998	-19.360001
137	1	2	-0.15538	21.563999	6.3439999	-18.622
138	1	2	-0.34498999	21.263	7.5040002	-19.215
139	1	4	0.204541	21.393999	8.427	-18.667
140	1	4	0.212218	21.931999	6.3520002	-17.603001
141	1	2	-0.089636996	21.753	3.7779999	-18.687
142	1	2	-0.14208101	21.395	3.569	-17.407
143	1	2	-0.089636996	21.73	2.2969999	-16.716
144	1	2	-0.139313	21.361	2.0970001	-15.288
145	1	2	-0.155379	21.421	3.118	-14.412
146	1	2	-0.34498999	21.061001	2.9170001	-12.993
147	1	2	0.237363	20.674	1.709	-12.552
148	1	2	-0.34498999	20.601999	0.57999998	-13.511
149	1	2	-0.155379	20.922001	0.76200002	-14.799
150	1	4	0.212218	20.834999	-0.07	-15.485
151	1	4	0.204541	20.264	-0.39300001	-13.18
152	1	3	-0.530505	20.34	1.506	-11.168
153	1	2	0.71120602	20.596001	0.35499999	-10.361
154	1	2	-0.171681	20.087999	0.57300001	-9.0109997
155	1	2	-0.249089	19.542999	1.779	-8.9589996
156	1	2	0.71465701	19.67	2.3989999	-10.274
157	1	1	-0.53926498	19.214001	3.5279999	-10.597
158	1	2	0.111005	18.922001	2.2839999	-7.7249999
159	1	2	-0.37793401	18.927999	1.4909999	-6.6389999
160	1	2	0.261922	19.563999	0.13500001	-6.6799998
161	1	2	-0.14778601	20.108999	-0.31200001	-7.835
162	1	4	0.217822	20.525999	-1.307	-7.9219999
163	1	3	-0.492423	19.517	-0.68800002	-5.5030003
164	1	2	0.83896101	20.545	-1.608	-5.1149998
165	1	1	-0.57414597	21.664	-1.619	-5.6929998
166	1	5	0.33089301	18.731001	-0.542	-4.8299999
167	1	4	0.210823	18.473	1.842	-5.7210002
168	1	4	0.214984	18.466999	3.266	-7.6929998
169	1	1	-0.53926498	21.209999	-0.671	-10.754
170	1	4	0.204541	21.146	3.753	-12.312
171	1	4	0.212218	21.759001	4.099	-14.719
172	1	2	-0.14208101	22.379	1.337	-17.400999
173	1	2	-0.089636996	22.768	1.541	-18.819
174	1	2	-0.14208101	22.476999	2.7090001	-19.419001
175	1	4	0.205428	22.757999	2.875	-20.452
176	1	2	-0.075864002	23.481001	0.47	-19.558001
177	1	2	-0.172446	23.108999	-0.81699997	-19.424999
178	1	2	-0.172446	23.808001	-1.882	-20.172001
179	1	2	-0.058913	24.826	-1.5829999	-21
180	1	2	-0.172446	25.242001	-0.164	-21.143
181	1	2	-0.172446	24.610001	0.801	-20.464001
182	1	4	0.21259999	24.936001	1.827	-20.577999
183	1	4	0.21259999	26.054001	0.102	-21.806999
184	1	2	-0.060779002	25.544001	-2.642	-21.752001
185	1	2	-0.168395	24.877001	-3.6630001	-22.33
186	1	2	-0.179461	25.606001	-4.698	-23.091999
187	1	2	-0.221714	26.937	-4.631	-23.211
188	1	2	-0.179461	27.68	-3.5209999	-22.582001
189	1	2	-0.168395	27.021999	-2.5780001	-21.893999
190	1	4	0.214846	27.582001	-1.779	-21.423
191	1	4	0.23093399	28.757	-3.4720001	-22.674999
192	1	4	0.233914	27.472	-5.3909998	-23.767
193	1	4	0.23093399	25.062	-5.5120001	-23.552
194	1	4	0.214846	23.799	-3.7319999	-22.266001
195	1	4	0.21259999	23.493999	-2.908	-20.021999
196	1	4	0.21259999	22.277	-1.091	-18.788
197	1	4	0.205428	22.667	0.417	-16.908001
198	1	4	0.205428	20.825001	4.322	-16.878
199	1	4	0.212218	20.896	4.1750002	-21.205999
200	1	4	0.204541	20.326	6.3569999	-22.315001
201	1	1	-0.53926498	19.514999	10.019	-19.438999
202	1	4	0.217822	18.969	12.759	-20.507
203	1	5	0.33089301	18.959	15.032	-21.445999
204	1	6	-0.42739299	23.271	19.531	-30.639999
205	1	2	0.355719	22.962	19.743	-29.299
206	1	2	-0.236973	21.684	19.785999	-28.909
207	1	2	-0.134562	21.346001	20.009001	-27.49
208	1	2	-0.25256401	22.313	20.155001	-26.555
209	1	2	-0.134562	23.737	20.121	-27.011999
210	1	2	-0.236973	24.037001	19.923	-28.301001
211	1	4	0.24017499	25.073	19.898001	-28.615999
212	1	4	0.222755	24.554001	20.254999	-26.318001
213	1	7	0.010929	21.922001	20.413	-25.087
214	1	2	-0.25256401	20.896	19.360001	-24.625
215	1	2	-0.134562	21.158001	18.046	-24.811001
216	1	2	-0.236973	20.209999	17.007999	-24.358
217	1	2	0.355719	19.076	17.356001	-23.735001
218	1	2	-0.236973	18.781	18.781	-23.500999
219	1	2	-0.134562	19.634001	19.726999	-23.912001
220	1	4	0.222755	19.379	20.757999	-23.712999
221	1	4	0.24017499	17.868999	19.062	-22.989
222	1	6	-0.42739299	18.171	16.388	-23.302999
223	1	4	0.24017499	20.441999	15.965	-24.534
224	1	4	0.222755	22.07	17.726999	-25.299
225	1	7	-0.128296	21.370001	21.857	-25.009001
226	1	8	0.093548	22.103001	22.575001	-25.437
227	1	8	0.093548	20.423	21.955	-25.580999
228	1	8	0.093548	21.184999	22.160999	-23.955999
229	1	7	-0.128296	23.129999	20.327999	-24.124001
230	1	8	0.093548	23.653	19.351999	-24.224001
231	1	8	0.093548	22.791	20.426001	-23.07
232	1	8	0.093548	23.857	21.146	-24.316
233	1	4	0.222755	20.299999	20.051001	-27.214001
234	1	4	0.24017499	20.889	19.659	-29.632999
235	1	1	-0.57414597	48.990002	13.884	-34.297001
236	1	2	0.83896101	48.221001	13.351	-35.140999
237	1	3	-0.492423	46.902	13.859	-35.374001
238	1	2	0.261922	46.416	15.114	-34.868999
239	1	2	-0.14778601	45.098999	15.254	-34.609001
240	1	2	-0.171681	44.608002	16.549	-34.111
241	1	2	0.71120602	43.257	16.973	-33.759998
242	1	3	-0.530505	43.27	18.339001	-33.334999
243	1	2	0.71465701	44.646999	18.709	-33.451
244	1	2	-0.249088	45.429001	17.570999	-33.924
245	1	2	0.111005	46.862999	17.464001	-34.228001
246	1	2	-0.37793401	47.333	16.290001	-34.687
247	1	4	0.210823	48.379002	16.216	-34.952
248	1	4	0.214984	47.521	18.316	-34.105
249	1	1	-0.53926498	45.098999	19.864	-33.233002
250	1	2	0.237363	42.146999	19.172001	-32.995998
251	1	2	-0.34498999	42.261002	20.134001	-32.064999
252	1	2	-0.15538	41.098999	20.975	-31.708
253	1	2	-0.139313	39.908001	20.785	-32.305
254	1	2	-0.15538	39.787998	19.732	-33.346001
255	1	2	-0.34498999	40.841	18.974001	-33.669998
256	1	4	0.204541	40.737	18.232	-34.450001
257	1	4	0.212218	38.851002	19.587	-33.870998
258	1	2	-0.089636996	38.729	21.611	-31.941999
259	1	2	-0.14208101	37.508999	21.054001	-31.841
260	1	2	-0.089636996	36.318001	21.874001	-31.499001
261	1	2	-0.139313	34.967999	21.249001	-31.431
262	1	2	-0.155379	34.616001	20.275	-32.291
263	1	2	-0.34498999	33.275002	19.66	-32.226002
264	1	2	0.237363	32.381001	20.066999	-31.309999
265	1	2	-0.34498999	32.762001	21.136	-30.357
266	1	2	-0.155379	33.98	21.691	-30.41
267	1	4	0.212218	34.243999	22.450001	-29.684999
268	1	4	0.204541	32.064999	21.457001	-29.594
269	1	3	-0.530505	31.068001	19.482	-31.257
270	1	2	0.71120602	29.83	20.127001	-30.952999
271	1	2	-0.171681	28.74	19.159	-31.01
272	1	2	-0.249089	29.246	17.976999	-31.325001
273	1	2	0.71465701	30.688999	18.122	-31.486
274	1	1	-0.53926498	31.495001	17.186001	-31.736
275	1	2	0.111005	28.391001	16.785	-31.438
276	1	2	-0.37793401	27.070999	16.926001	-31.224001
277	1	2	0.261922	26.485001	18.264	-30.891001
278	1	2	-0.14778601	27.298	19.339001	-30.771
279	1	4	0.217822	26.922001	20.309999	-30.476999
280	1	3	-0.492423	25.073	18.358	-30.638
281	1	2	0.83896101	24.264	19.493999	-30.968
282	1	1	-0.57414597	24.711	20.429001	-31.684
283	1	5	0.33089301	24.579	17.51	-30.280001
284	1	4	0.210823	26.424	16.061001	-31.299
285	1	4	0.214984	28.813999	15.819	-31.684
286	1	1	-0.53926498	29.702999	21.357	-30.719999
287	1	4	0.204541	33.016998	18.899	-32.951
288	1	4	0.212218	35.294998	19.941	-33.064999
289	1	2	-0.14208101	36.48	23.188999	-31.263
290	1	2	-0.089636996	37.820999	23.820999	-31.353001
291	1	2	-0.14208101	38.882	23.065001	-31.687
292	1	4	0.205428	39.866001	23.511999	-31.76
293	1	2	-0.075864002	37.98	25.271999	-31.086
294	1	2	-0.172446	37.328999	25.855	-30.063
295	1	2	-0.172446	37.499001	27.296	-29.788
296	1	2	-0.058913	38.311001	28.048	-30.554001
297	1	2	-0.172446	39.025002	27.407	-31.687
298	1	2	-0.172446	38.868999	26.101999	-31.938
299	1	4	0.21259999	39.394001	25.659	-32.775002
300	1	4	0.21259999	39.688	27.99	-32.313999
301	1	2	-0.060779002	38.487	29.499001	-30.295
302	1	2	-0.168395	38.608002	29.975	-29.039
303	1	2	-0.179461	38.803001	31.421	-28.802
304	1	2	-0.221714	38.856998	32.27	-29.834
305	1	2	-0.179461	38.723	31.761999	-31.214001
306	1	2	-0.168395	38.550999	30.452999	-31.434
307	1	4	0.214846	38.437	30.097	-32.451
308	1	4	0.23093399	38.762001	32.452	-32.048
309	1	4	0.233914	38.997002	33.328999	-29.66
310	1	4	0.23093399	38.900002	31.792	-27.790001
311	1	4	0.214846	38.588001	29.309999	-28.186001
312	1	4	0.21259999	36.941002	27.733999	-28.969
313	1	4	0.21259999	36.688999	25.275	-29.409
314	1	4	0.205428	35.622002	23.813999	-31.049999
315	1	4	0.205428	37.391998	19.987	-31.978001
316	1	4	0.212218	41.220001	21.721001	-30.934
317	1	4	0.204541	43.195	20.290001	-31.541
318	1	1	-0.53926498	42.234001	16.239	-33.779999
319	1	4	0.217822	44.41	14.431	-34.749001
320	1	5	0.33089301	46.235001	13.233	-35.881001
321	1	6	-0.42739299	56.186001	16.323999	-39.728001
322	1	2	0.355719	55.089001	15.491	-39.931
323	1	2	-0.236973	54.835999	14.503	-39.068001
324	1	2	-0.134562	53.674999	13.614	-39.273998
325	1	2	-0.25256401	52.837002	13.79	-40.320999
326	1	2	-0.134562	53.146	14.89	-41.285999
327	1	2	-0.236973	54.202	15.689	-41.096001
328	1	4	0.24017499	54.410999	16.483	-41.801998
329	1	4	0.222755	52.528	15.067	-42.154999
330	1	7	0.010929	51.651001	12.826	-40.519001
331	1	2	-0.25256401	50.844002	12.713	-39.209999
332	1	2	-0.134562	50.428001	13.837	-38.582001
333	1	2	-0.236973	49.632	13.767	-37.34
334	1	2	0.355719	49.291	12.578	-36.825001
335	1	2	-0.236973	49.713001	11.34	-37.505001
336	1	2	-0.134562	50.438999	11.396	-38.629002
337	1	4	0.222755	50.719002	10.464	-39.096001
338	1	4	0.24017499	49.429001	10.38	-37.092999
339	1	6	-0.42739299	48.540001	12.495	-35.653
340	1	4	0.24017499	49.327	14.684	-36.854
341	1	4	0.222755	50.674	14.815	-38.977001
342	1	7	-0.128296	52.236	11.469	-40.976002
343	1	8	0.093548	52.886002	11.609	-41.867001
344	1	8	0.093548	52.852001	11.008	-40.174
345	1	8	0.093548	51.431	10.758	-41.263
346	1	7	-0.128296	50.672001	13.302	-41.618999
347	1	8	0.093548	50.310001	14.332	-41.414001
348	1	8	0.093548	49.785999	12.631	-41.664001
349	1	8	0.093548	51.153	13.283	-42.620998
350	1	4	0.222755	53.508999	12.816	-38.561001
351	1	4	0.24017499	55.480999	14.347	-38.213001
352	1	1	-0.57414597	55.458	37.914001	-55.222
353	1	2	0.83896101	56.035	38.094002	-54.118
354	1	3	-0.492423	56.546001	36.993	-53.355
355	1	2	0.261922	56.661999	35.648998	-53.849998
356	1	2	-0.14778601	56.569	34.617001	-52.984001
357	1	2	-0.171681	56.709	33.245998	-53.499001
358	1	2	0.71120602	56.659	31.966999	-52.798
359	1	3	-0.530505	56.865002	30.896	-53.723999
360	1	2	0.71465701	57.043999	31.568001	-54.973999
361	1	2	-0.249088	56.931	33.009998	-54.782001
362	1	2	0.111005	57.070999	34.111	-55.748001
363	1	2	-0.37793401	56.949001	35.373001	-55.299
364	1	4	0.210823	57.091	36.188	-55.994999
365	1	4	0.214984	57.285999	33.909	-56.790001
366	1	1	-0.53926498	57.317001	30.995001	-56.062
367	1	2	0.237363	56.988998	29.490999	-53.439999
368	1	2	-0.34498999	56.557999	28.570999	-54.32
369	1	2	-0.15538	56.671001	27.129	-54.014999
370	1	2	-0.139313	57.200001	26.716	-52.848
371	1	2	-0.15538	57.689999	27.733	-51.882999
372	1	2	-0.34498999	57.59	29.038	-52.161999
373	1	4	0.204541	57.979	29.76	-51.457001
374	1	4	0.212218	58.158001	27.426001	-50.956001
375	1	2	-0.089636996	57.300999	25.271	-52.522999
376	1	2	-0.14208101	57.046001	24.830999	-51.277
377	1	2	-0.089636996	57.165001	23.389999	-50.933998
378	1	2	-0.139313	56.917	22.926001	-49.541
379	1	2	-0.155379	57.292999	23.676001	-48.487999
380	1	2	-0.34498999	57.053001	23.211	-47.106998
381	1	2	0.237363	56.459	22.028	-46.877998
382	1	2	-0.34498999	56.037998	21.198	-48.033001
383	1	2	-0.155379	56.25	21.621	-49.285
384	1	4	0.212218	55.908001	21.01	-50.112
385	1	4	0.204541	55.532001	20.256001	-47.868
386	1	3	-0.530505	56.238998	21.565001	-45.535
387	1	2	0.71120602	56.320999	20.226	-45.041
388	1	2	-0.171681	56.021999	20.205	-43.613998
389	1	2	-0.249089	55.764	21.444	-43.222
390	1	2	0.71465701	55.882999	22.326	-44.377998
391	1	1	-0.53926498	55.654999	23.566	-44.377998
392	1	2	0.111005	55.404999	21.745001	-41.827
393	1	2	-0.37793401	55.354	20.726999	-40.950001
394	1	2	0.261922	55.667	19.326	-41.376999
395	1	2	-0.14778601	55.973	19.075001	-42.671001
396	1	4	0.217822	56.150002	18.07	-43.032001
397	1	3	-0.492423	55.568001	18.268	-40.41
398	1	2	0.83896101	56.403999	17.104	-40.390999
399	1	1	-0.57414597	57.424	17.021	-41.125
400	1	5	0.33089301	54.91	18.393	-39.608002
401	1	4	0.210823	55.089001	20.926001	-39.917999
402	1	4	0.214984	55.183998	22.757999	-41.516998
403	1	1	-0.53926498	56.648998	19.228001	-45.734001
404	1	4	0.204541	57.393002	23.827	-46.285
405	1	4	0.212218	57.805	24.618999	-48.627998
406	1	2	-0.14208101	57.508999	22.518999	-51.898998
407	1	2	-0.089636996	57.778999	22.981001	-53.284
408	1	2	-0.14208101	57.688999	24.292	-53.568001
409	1	4	0.205428	57.887001	24.646	-54.573002
410	1	2	-0.075864002	58.154999	22.004	-54.335999
411	1	2	-0.172446	57.526001	20.818001	-54.424
412	1	2	-0.172446	57.889	19.851	-55.48
413	1	2	-0.058913	58.853001	20.143	-56.374001
414	1	2	-0.172446	59.551998	21.448999	-56.272999
415	1	2	-0.172446	59.224998	22.323	-55.314999
416	1	4	0.21259999	59.755001	23.266001	-55.257
417	1	4	0.21259999	60.327	21.708	-56.984001
418	1	2	-0.060779002	59.234001	19.179001	-57.437
419	1	2	-0.168395	58.300999	18.473	-58.108002
420	1	2	-0.179461	58.698002	17.533001	-59.175999
421	1	2	-0.221714	59.990002	17.374001	-59.484001
422	1	2	-0.179461	61.021999	18.138	-58.755001
423	1	2	-0.168395	60.667	18.993999	-57.789001
424	1	4	0.214846	61.436001	19.535	-57.251999
425	1	4	0.23093399	62.068001	18.003	-59.002998
426	1	4	0.233914	60.282001	16.683001	-60.264999
427	1	4	0.23093399	57.942001	16.972	-59.709
428	1	4	0.214846	57.247002	18.596001	-57.893002
429	1	4	0.21259999	57.375	18.898001	-55.506001
430	1	4	0.21259999	56.726002	20.561001	-53.738998
431	1	4	0.205428	57.639	21.469	-51.665001
432	1	4	0.205428	56.716	25.528	-50.516998
433	1	4	0.212218	56.287998	26.417999	-54.735001
434	1	4	0.204541	56.096001	28.868999	-55.250999
435	1	1	-0.53926498	56.424999	31.816999	-51.57
436	1	4	0.217822	56.382999	34.785	-51.931999
437	1	5	0.33089301	56.772999	37.176998	-52.351002
438	1	6	-0.42739299	60.955002	42.856998	-60.931
439	1	2	0.355719	60.847	42.793999	-59.543999
440	1	2	-0.236973	59.659	42.983002	-58.960999
441	1	2	-0.134562	59.533001	42.917999	-57.491001
442	1	2	-0.25256401	60.603001	42.648998	-56.709
443	1	2	-0.134562	61.926998	42.457001	-57.377998
444	1	2	-0.236973	62.035999	42.521999	-58.710999
445	1	4	0.24017499	63.000999	42.376999	-59.18
446	1	4	0.222755	62.824001	42.262001	-56.806999
447	1	7	0.010929	60.438999	42.615002	-55.176998
448	1	2	-0.25256401	59.262001	41.695	-54.797001
449	1	2	-0.134562	59.206001	40.439999	-55.296001
450	1	2	-0.236973	58.108002	39.521999	-54.933998
451	1	2	0.355719	57.152	39.917999	-54.083
452	1	2	-0.236973	57.205002	41.273998	-53.507
453	1	2	-0.134562	58.195999	42.112999	-53.834999
454	1	4	0.222755	58.196999	43.094002	-53.382999
455	1	4	0.24017499	56.438	41.591	-52.812
456	1	6	-0.42739299	56.108002	39.063999	-53.730999
457	1	4	0.24017499	58.084	38.528	-55.362
458	1	4	0.222755	59.967999	40.081001	-55.977001
459	1	7	-0.128296	60.229	44.075001	-54.708
460	1	8	0.093548	61.051998	44.723	-55.082001
461	1	8	0.093548	59.271	44.485001	-55.092999
462	1	8	0.093548	60.230999	44.146	-53.598999
463	1	7	-0.128296	61.694	42.073002	-54.453999
464	1	8	0.093548	61.976002	41.07	-54.84
465	1	8	0.093548	61.500999	41.977001	-53.362999
466	1	8	0.093548	62.558998	42.759998	-54.577999
467	1	4	0.222755	58.556999	43.09	-57.054001
468	1	4	0.24017499	58.782001	43.187	-59.563
469	1	1	-0.57414597	84.254997	33.491001	-69.656998
470	1	2	0.83896101	83.302002	33.332001	-70.464996
471	1	3	-0.492423	82.110001	34.122002	-70.375999
472	1	2	0.261922	81.969002	35.286999	-69.546997
473	1	2	-0.14778601	80.75	35.606998	-69.060997
474	1	2	-0.171681	80.613998	36.812	-68.227997
475	1	2	0.71120602	79.434998	37.387001	-67.589996
476	1	3	-0.530505	79.793999	38.583	-66.890999
477	1	2	0.71465701	81.197998	38.702999	-67.138
478	1	2	-0.249088	81.653999	37.584999	-67.958
479	1	2	0.111005	82.988998	37.285	-68.497002
480	1	2	-0.37793401	83.136002	36.188999	-69.263
481	1	4	0.210823	84.105003	35.985001	-69.696999
482	1	4	0.214984	83.827003	37.941002	-68.299004
483	1	1	-0.53926498	81.913002	39.664001	-66.750999
484	1	2	0.237363	78.925003	39.507	-66.211998
485	1	2	-0.34498999	79.347	40.176998	-65.125999
486	1	2	-0.15538	78.444	41.112	-64.422997
487	1	2	-0.139313	77.182999	41.299999	-64.853996
488	1	2	-0.15538	76.723	40.571999	-66.064003
489	1	2	-0.34498999	77.542	39.728001	-66.700996
490	1	4	0.204541	77.194	39.23	-67.596001
491	1	4	0.212218	75.726997	40.737999	-66.456001
492	1	2	-0.089636996	76.261002	42.223	-64.143997
493	1	2	-0.14208101	74.966003	41.898998	-63.976002
494	1	2	-0.089636996	74.028	42.823002	-63.286999
495	1	2	-0.139313	72.589996	42.466999	-63.144001
496	1	2	-0.155379	71.942001	41.813	-64.126999
497	1	2	-0.34498999	70.513	41.466999	-63.987999
498	1	2	0.237363	69.834	41.803001	-62.877998
499	1	2	-0.34498999	70.541	42.519001	-61.790001
500	1	2	-0.155379	71.837997	42.828999	-61.911999
501	1	4	0.212218	72.339996	43.327	-61.091999
502	1	4	0.204541	70.017998	42.771999	-60.876999
503	1	3	-0.530505	68.438004	41.481998	-62.747002
504	1	2	0.71120602	67.412003	42.257999	-62.125
505	1	2	-0.171681	66.136002	41.556	-62.216999
506	1	2	-0.249089	66.333	40.410999	-62.851002
507	1	2	0.71465701	67.747002	40.314999	-63.200001
508	1	1	-0.53926498	68.295998	39.331001	-63.764999
509	1	2	0.111005	65.230003	39.466	-63.082001
510	1	2	-0.37793401	64.003998	39.798	-62.639
511	1	2	0.261922	63.765999	41.102001	-61.942001
512	1	2	-0.14778601	64.804001	41.943001	-61.723999
513	1	4	0.217822	64.683998	42.867001	-61.174999
514	1	3	-0.492423	62.445	41.398998	-61.459
515	1	2	0.83896101	61.875	42.713001	-61.409
516	1	1	-0.57414597	62.437	43.689999	-61.971001
517	1	5	0.33089301	61.818001	40.598999	-61.216999
518	1	4	0.210823	63.178001	39.115002	-62.796001
519	1	4	0.214984	65.401001	38.525002	-63.59
520	1	1	-0.53926498	67.584999	43.396	-61.618
521	1	4	0.204541	70.016998	40.966	-64.808998
522	1	4	0.212218	72.443001	41.554001	-65.051003
523	1	2	-0.14208101	74.5	43.987	-62.804001
524	1	2	-0.089636996	75.93	44.355999	-62.964001
525	1	2	-0.14208101	76.757004	43.515999	-63.612
526	1	4	0.205428	77.801003	43.772999	-63.740002
527	1	2	-0.075864002	76.431999	45.643002	-62.422001
528	1	2	-0.172446	76.039001	46.075001	-61.209999
529	1	2	-0.172446	76.551003	47.348	-60.664001
530	1	2	-0.058913	77.420998	48.095001	-61.368999
531	1	2	-0.172446	77.850998	47.623001	-62.709
532	1	2	-0.172446	77.385002	46.470001	-63.206001
533	1	4	0.21259999	77.707001	46.150002	-64.189003
534	1	4	0.21259999	78.554001	48.202999	-63.292999
535	1	2	-0.060779002	77.939003	49.381001	-60.837002
536	1	2	-0.168395	78.296997	49.507999	-59.542999
537	1	2	-0.179461	78.829002	50.790001	-59.035999
538	1	2	-0.221714	78.958	51.837002	-59.859001
539	1	2	-0.179461	78.568001	51.712002	-61.278
540	1	2	-0.168395	78.087997	50.550999	-61.743
541	1	4	0.214846	77.791	50.479	-62.782001
542	1	4	0.23093399	78.667	52.561001	-61.941002
543	1	4	0.233914	79.345001	52.777	-59.487999
544	1	4	0.23093399	79.112999	50.882	-57.995998
545	1	4	0.214846	78.222	48.673	-58.859001
546	1	4	0.21259999	76.195	47.674	-59.694
547	1	4	0.21259999	75.361	45.487	-60.604
548	1	4	0.205428	73.830002	44.693001	-62.332001
549	1	4	0.205428	74.602997	40.938	-64.318001
550	1	4	0.212218	78.808998	41.612999	-63.535
551	1	4	0.204541	80.343002	40.022999	-64.733002
552	1	1	-0.53926498	78.278999	36.888	-67.607002
553	1	4	0.217822	79.887001	34.987999	-69.264999
554	1	5	0.33089301	81.271004	33.775002	-70.894997
555	1	6	-0.42739299	91.184998	35.758999	-75.492996
556	1	2	0.355719	89.916	35.222	-75.695999
557	1	2	-0.236973	89.545998	34.120998	-75.035004
558	1	2	-0.134562	88.203003	33.544998	-75.242996
559	1	2	-0.25256401	87.317001	34.123001	-76.084999
560	1	2	-0.134562	87.753998	35.344002	-76.830002
561	1	2	-0.236973	88.974998	35.860001	-76.639999
562	1	4	0.24017499	89.276001	36.745998	-77.183998
563	1	4	0.222755	87.101997	35.839001	-77.533997
564	1	7	0.010929	85.932999	33.478001	-76.296997
565	1	2	-0.25256401	85.266998	33.208	-74.932999
566	1	2	-0.134562	85.179001	34.205002	-74.023003
567	1	2	-0.236973	84.525002	33.990002	-72.717003
568	1	2	0.355719	83.987999	32.799999	-72.419998
569	1	2	-0.236973	84.051003	31.705	-73.404999
570	1	2	-0.134562	84.647003	31.892	-74.589996
571	1	4	0.222755	84.663002	31.063	-75.282997
572	1	4	0.24017499	83.609001	30.745001	-73.168999
573	1	6	-0.42739299	83.367996	32.581001	-71.191002
574	1	4	0.24017499	84.483002	34.805	-72.004997
575	1	4	0.222755	85.589996	35.183998	-74.234001
576	1	7	-0.128296	86.153	32.185001	-77.117996
577	1	8	0.093548	86.719002	32.41	-78.049004
578	1	8	0.093548	86.735001	31.437	-76.539001
579	1	8	0.093548	85.184998	31.731001	-77.420998
580	1	7	-0.128296	84.971001	34.381001	-77.105003
581	1	8	0.093548	84.869003	35.381001	-76.630997
582	1	8	0.093548	83.959999	33.922001	-77.153999
583	1	8	0.093548	85.324997	34.514	-78.150002
584	1	4	0.222755	87.943001	32.645	-74.698997
585	1	4	0.24017499	90.230003	33.645	-74.343002
586	1	1	-0.57414597	93.567001	60.18	-85.723999
587	1	2	0.83896101	94.283997	59.974998	-84.709999
588	1	3	-0.492423	94.619003	58.646999	-84.289001
589	1	2	0.261922	94.382004	57.464001	-85.070999
590	1	2	-0.14778601	94.157997	56.291	-84.441002
591	1	2	-0.171681	93.936996	55.083	-85.250999
592	1	2	0.71120602	93.682999	53.707001	-84.839996
593	1	3	-0.530505	93.546997	52.870998	-85.992996
594	1	2	0.71465701	93.734001	53.778	-87.084
595	1	2	-0.249088	93.961998	55.125999	-86.573997
596	1	2	0.111005	94.236	56.380001	-87.292
597	1	2	-0.37793401	94.444	57.495998	-86.570999
598	1	4	0.210823	94.686996	58.412998	-87.091003