Title

12375 atoms
12250 bonds
23125 angles
39125 dihedrals
1500 impropers

8 atom types
11 bond types
5 angle types
25 dihedral types
2 improper types
-11.44190025 88.55809975 xlo xhi
-11.74909973 88.25090027 ylo yhi
-11.52540016 88.47459984 zlo zhi
0.0 0.0 0.0 xy xz yz

Masses

1	15.99943
2	12.01078
3	1.007947
4	1.007947
5	12.01078
6	15.99943
7	15.99943
8	1.007947


Pair Coeffs

1	0.16846514	3.0251065
2	0.10884061	3.3795318
3	0.015779483	2.6445434
4	0.016409246	2.5832257
5	0.086879315	3.4806469
6	0.2102061	3.0398122
7	0.20947353	2.99716
8	1.2326e-05	0.53453923

Bond Coeffs

1 harmonic	366.7408841747	1.425895053732
2 harmonic	300.03137914615	1.451203938761
3 harmonic	264.62148576755	1.52190126495
4 harmonic	370.04670688625	1.093899492634
5 harmonic	301.15400723785	1.345741232799
6 harmonic	582.698766451	1.225198386222
7 harmonic	329.44145381095	1.523435958334
8 harmonic	279.1350963404	1.454628925034
9 harmonic	329.96998057905	1.427343958716
10 harmonic	543.5267831885	0.9716763312559
11 harmonic	385.7604595587	1.369745182308


Angle Coeffs

1 harmonic	53.20531626545	116.5475862634
2 harmonic	65.09061609600001	110.3538806181
3 harmonic	48.776492647595	115.6030999533
4 harmonic	201.41175231035	127.4691416191
5 harmonic	57.8982893754	126.8062420451


Dihedral Coeffs

1 fourier 1	0.1155372516788	3	0
2 fourier 1	0.0473758381877	3	0
3 fourier 1	0.457973137376	1	0
4 fourier 1	0.1040663847541	3	0
5 fourier 1	0.09223874044423	3	0
6 fourier 1	0.3159935921949	2	180
7 fourier 1	0.3247796806857	1	180
8 fourier 1	0.1918272375143	3	0
9 fourier 1	0.9202179876409	1	180
10 fourier 1	1.163809172478	2	180
11 fourier 1	0.1679186987369	1	180
12 fourier 1	2.779853741805	2	180
13 fourier 1	0.02664938770063	3	0
14 fourier 1	0.1911926717192	3	0
15 fourier 1	-0.3703352413219	2	0
16 fourier 1	0.4541676554336	1	0
17 fourier 1	0.1489710476446	2	0
18 fourier 1	0.02960027280666	3	180
19 fourier 1	0.9974165607242	2	180
20 fourier 1	0.3445382149273	3	0
21 fourier 1	0.1364556373303	1	0
22 fourier 1	0.3026390167484	3	0
23 fourier 1	2.687457892086	2	180
24 fourier 1	2.772607909663	2	180
25 fourier 1	0.09692684957115	1	0


Improper Coeffs

1 3.5	-1	2
2 0.3666666666666667	-1	2


Atoms

1	4	1	-0.164178	1.3372999	-3.9633999	-1.0773
2	4	2	0.000711	0.52389997	-3.6652	-2.1803999
3	4	2	-0.052942999	-0.1948	-4.9387002	-2.7028
4	4	2	-0.158527	-1.0985	-4.5082002	-3.8827
5	4	3	0.069735996	-1.8124	-3.7203	-3.5596001
6	4	3	0.069735996	-1.6976	-5.3541002	-4.2767
7	4	3	0.069735996	-0.48590001	-4.1016002	-4.7164001
8	4	2	0.109169	-1.0606	-5.5229998	-1.5517
9	4	1	-0.489629	-1.951	-6.4998002	-2.0214
10	4	4	0.085068002	-0.40169999	-5.9661999	-0.77160001
11	4	4	0.085068002	-1.6509	-4.7070999	-1.076
12	4	2	-0.169903	0.89660001	-5.9492002	-3.1819
13	4	2	-0.121097	0.38069999	-7.2803998	-3.7381999
14	4	3	0.043956	-0.31560001	-7.1261001	-4.5854001
15	4	3	0.043956	1.2426	-7.8713002	-4.1156001
16	4	3	0.043956	-0.1088	-7.8807001	-2.9451001
17	4	3	0.090533003	1.5826	-6.1849999	-2.3385999
18	4	3	0.090533003	1.515	-5.4695001	-3.9727001
19	4	4	0.090415999	1.1497	-3.2244	-2.9902
20	4	4	0.090415999	-0.227	-2.8979001	-1.8818001
21	5	5	0.76046401	-2.4669001	-6.8463001	-1.188
22	5	6	-0.55458999	-2.4495001	-8.0390997	-0.9321
23	5	2	-0.208589	-3.2276001	-5.9025002	-0.30410001
24	5	2	-0.115515	-3.1249001	-4.4590998	-0.8179
25	5	2	-0.136188	-3.9856	-3.4777	-0.0040000002
26	5	2	-0.141528	-3.3625	-3.1412001	1.3621
27	5	2	-0.141528	-4.2645001	-2.2400999	2.2253001
28	5	2	-0.13884699	-4.5623002	-0.85119998	1.6319
29	5	2	-0.097190998	-3.2981999	-0.0068000001	1.4157
30	5	2	-0.257649	-3.6584001	1.4261	1.0078
31	5	5	0.51707202	-2.428	2.2528	0.77789998
32	5	6	-0.68671203	-2.5332999	3.4216001	0.44440001
33	5	3	0.113699	-4.2651	1.9024	1.809
34	5	3	0.113699	-4.2575002	1.4079	0.071599998
35	5	3	0.077001996	-2.6812	-0.46110001	0.61140001
36	5	3	0.077001996	-2.7031	0.018200001	2.355
37	5	3	0.078704998	-5.2312002	-0.31990001	2.3443
38	5	3	0.078704998	-5.1216002	-0.95120001	0.67769998
39	5	3	0.080578998	-3.7818999	-2.1073	3.2183001
40	5	3	0.080578998	-5.2289	-2.7629001	2.404
41	5	3	0.080578998	-2.3671999	-2.6694	1.2218
42	5	3	0.080578998	-3.1982	-4.0795002	1.9317
43	5	3	0.078704998	-5.0072999	-3.8924999	0.1318
44	5	3	0.078704998	-4.0742998	-2.5439999	-0.59899998
45	5	3	0.085795999	-3.4802001	-4.4324002	-1.8717999
46	5	3	0.085795999	-2.0632999	-4.1271	-0.81120002
47	5	3	0.116959	-4.2929001	-6.2171001	-0.28029999
48	5	3	0.116959	-2.8104	-5.9755001	0.72149998
49	1	1	-0.163858	1.7622	-3.1087	-0.80720001
50	1	2	0.010377	1.4672	-2.1877	-1.8224
51	1	2	-0.088048004	2.0783	-0.79579997	-1.5059
52	1	2	-0.151436	1.7431	0.1383	-2.6937001
53	1	3	0.06955	2.1300001	-0.2881	-3.6443999
54	1	3	0.06955	2.2004001	1.142	-2.5732999
55	1	3	0.06955	0.64380002	0.26769999	-2.7916
56	1	2	0.059124999	3.6187	-0.95249999	-1.3672
57	1	7	-0.680457	4.2666998	0.29089999	-1.3621
58	1	8	0.37709501	5.2340999	0.099299997	-1.2499
59	1	4	0.080427997	3.8594999	-1.5007	-0.42820001
60	1	4	0.080427997	4.0113001	-1.5524	-2.2202001
61	1	2	-0.16264001	1.4268	-0.26800001	-0.18619999
62	1	2	-0.121421	1.9026999	1.1058	0.29609999
63	1	3	0.043956	1.7525001	1.8852	-0.47819999
64	1	3	0.043956	1.3117	1.3996	1.1881
65	1	3	0.043956	2.9676001	1.0724	0.60259998
66	1	3	0.090208001	1.612	-0.99159998	0.63660002
67	1	3	0.090208001	0.324	-0.21430001	-0.322
68	1	4	0.090443999	0.36149999	-2.0999999	-1.9303
69	1	4	0.090443999	1.8692	-2.5692	-2.7888999
70	2	5	0.51707202	-1.4382	1.8253	0.90509999
71	2	6	-0.68671203	-0.83109999	1.4117	-0.069700003
72	2	2	-0.257649	-0.83410001	1.7309999	2.2753999
73	2	2	-0.097190998	0.43239999	2.5888	2.4068
74	2	2	-0.13884699	0.125	4.0918002	2.3285
75	2	2	-0.141528	1.4001	4.9236002	2.51
76	2	2	-0.141528	1.0934	6.4261999	2.4173999
77	2	2	-0.136188	2.3171	7.3024001	2.7279
78	2	2	-0.11298	3.3708999	7.2663999	1.6068
79	2	2	-0.218686	4.5502	8.2058001	1.8914
80	2	5	0.823915	4.1511002	9.6457005	1.7905
81	2	6	-0.556032	3.9841001	10.3303	2.835
82	2	7	-0.66538399	3.9412	10.2198	0.54079998
83	2	8	0.394263	3.6605999	11.1898	0.45539999
84	2	3	0.117984	5.3512998	8.0108004	1.1461999
85	2	3	0.117984	4.9723001	7.9923	2.8984001
86	2	3	0.085795999	2.9028001	7.5383	0.63499999
87	2	3	0.085795999	3.7741001	6.2361999	1.5137
88	2	3	0.078704998	2.7758	6.9826002	3.6898999
89	2	3	0.078704998	1.9605	8.3466997	2.8570001
90	2	3	0.080578998	0.70139998	6.6717	1.4062001
91	2	3	0.080578998	0.2987	6.6754999	3.1554999
92	2	3	0.080578998	2.1273999	4.6409998	1.7201999
93	2	3	0.080578998	1.8476	4.6981001	3.5030999
94	2	3	0.078704998	-0.3263	4.3278999	1.3408999
95	2	3	0.078704998	-0.60530001	4.3582001	3.1238
96	2	3	0.077001996	1.1596	2.3076999	1.614
97	2	3	0.077001996	0.90189999	2.3664	3.3901999
98	2	3	0.113699	-1.5825	2.0493	3.0321
99	2	3	0.113699	-0.57749999	0.66960001	2.48
100	4	1	-0.164178	2.654	2.7158999	25.6229
101	4	2	0.000711	2.7597001	3.2072001	24.313299
102	4	2	-0.052942999	4.1929002	3.7333	24.0298
103	4	2	-0.158527	4.2275	4.2096	22.5581
104	4	3	0.069735996	3.9354999	3.3838999	21.874201
105	4	3	0.069735996	5.2396998	4.5462999	22.254601
106	4	3	0.069735996	3.5222001	5.0548	22.4039
107	4	2	0.109169	5.1966	2.5646999	24.2374
108	4	1	-0.489629	6.4664001	2.8803999	23.732
109	4	4	0.085068002	5.2779002	2.3254001	25.321501
110	4	4	0.085068002	4.8249002	1.6545	23.714199
111	4	2	-0.169903	4.4738998	4.9229999	25.003201
112	4	2	-0.121097	5.8505998	5.5832	24.875999
113	4	3	0.043956	6.0325999	5.9527001	23.848
114	4	3	0.043956	5.8951998	6.4579	25.5597
115	4	3	0.043956	6.6567001	4.8855	25.18
116	4	3	0.090533003	4.3669	4.5776	26.055099
117	4	3	0.090533003	3.7051001	5.7117	24.845699
118	4	4	0.090415999	2.0193999	4.0272002	24.1674
119	4	4	0.090415999	2.5028999	2.3926001	23.5975
120	5	5	0.76046401	7.0707002	2.0585999	23.933001
121	5	6	-0.55458999	8.0967999	2.2182	24.573601
122	5	2	-0.208589	6.6977	0.6893	23.4464
123	5	2	-0.115515	5.3821998	0.72259998	22.6551
124	5	2	-0.136188	5.0249	-0.64209998	22.0418
125	5	2	-0.141528	4.4865999	-1.6346	23.087299
126	5	2	-0.141528	4.2216001	-3.0342	22.5026
127	5	2	-0.13884699	3.1543	-3.0895	21.394699
128	5	2	-0.097190998	1.771	-2.6215999	21.8694
129	5	2	-0.257649	0.70749998	-2.8745999	20.795
130	5	5	0.51707202	-0.64399999	-2.4043	21.244801
131	5	6	-0.68671203	-1.6083	-2.5286	20.507799
132	5	3	0.113699	0.65179998	-3.9626999	20.571899
133	5	3	0.113699	0.98280001	-2.3345001	19.863199
134	5	3	0.077001996	1.8024	-1.5332	22.0893
135	5	3	0.077001996	1.4922	-3.1682999	22.797001
136	5	3	0.078704998	3.0789001	-4.1462998	21.055799
137	5	3	0.078704998	3.4783001	-2.4916	20.516701
138	5	3	0.080578998	3.9109001	-3.7082	23.330601
139	5	3	0.080578998	5.1736999	-3.4403999	22.097601
140	5	3	0.080578998	3.5643001	-1.2319	23.556601
141	5	3	0.080578998	5.2351999	-1.7562	23.8976
142	5	3	0.078704998	5.9116001	-1.0700999	21.5271
143	5	3	0.078704998	4.2399998	-0.46509999	21.2761
144	5	3	0.085795999	5.4878998	1.4539	21.8234
145	5	3	0.085795999	4.5531998	1.0727	23.308901
146	5	3	0.116959	7.5152998	0.3064	22.7988
147	5	3	0.116959	6.5985999	0.0231	24.328199
148	1	1	-0.163858	1.7175	2.4061999	25.7279
149	1	2	0.010377	1.028	2.8541999	24.5923
150	1	2	-0.088048004	-0.46200001	2.4195001	24.638201
151	1	2	-0.151436	-1.1509	2.9923	23.375999
152	1	3	0.06955	-1.0328	4.0967002	23.336399
153	1	3	0.06955	-2.2392001	2.7772999	23.3645
154	1	3	0.06955	-0.70240003	2.5604999	22.4555
155	1	2	0.059124999	-1.1112	3.0155001	25.918699
156	1	7	-0.680457	-2.5088	2.9065001	25.8887
157	1	8	0.37709501	-2.8355	3.2883999	26.744699
158	1	4	0.080427997	-0.7173	2.4935	26.82
159	1	4	0.080427997	-0.84240001	4.0932999	26.006599
160	1	2	-0.16264001	-0.5122	0.8567	24.634701
161	1	2	-0.121421	-1.9089	0.2288	24.675501
162	1	3	0.043956	-2.539	0.57889998	23.833099
163	1	3	0.043956	-1.8115	-0.87309998	24.5875
164	1	3	0.043956	-2.4110999	0.43920001	25.641199
165	1	3	0.090208001	0.054699998	0.46340001	25.5058
166	1	3	0.090208001	0.00079999998	0.479	23.722799
167	1	4	0.090443999	1.5149	2.441	23.6789
168	1	4	0.090443999	1.0991	3.9647	24.5369
169	2	5	0.51707202	-0.77929997	-1.9524	22.222601
170	2	6	-0.68671203	-0.78640002	-0.73640001	22.3283
171	2	2	-0.257649	-0.9386	-2.8234	23.434
172	2	2	-0.097190998	-2.3168001	-2.6531	24.088699
173	2	2	-0.13884699	-3.4507	-3.1842999	23.198799
174	2	2	-0.141528	-4.8084002	-3.0446999	23.8971
175	2	2	-0.141528	-5.9429998	-3.5634	23.000299
176	2	2	-0.136188	-7.3059001	-3.5690999	23.7104
177	2	2	-0.11298	-7.8731999	-2.1530001	23.914101
178	2	2	-0.218686	-9.2687998	-2.1754	24.551399
179	2	5	0.823915	-10.3026	-2.7076001	23.607599
180	2	6	-0.556032	-10.75	-3.8764	23.7533
181	2	7	-0.66538399	-10.7506	-1.9169	22.5543
182	2	8	0.394263	-11.4419	-2.2657001	21.9006
183	2	3	0.117984	-9.5509996	-1.1378	24.832199
184	2	3	0.117984	-9.2510996	-2.7804	25.485001
185	2	3	0.085795999	-7.9155998	-1.6158	22.941
186	2	3	0.085795999	-7.2023001	-1.5814	24.589199
187	2	3	0.078704998	-7.2182002	-4.0872002	24.6912
188	2	3	0.078704998	-8.0108995	-4.1553998	23.083
189	2	3	0.080578998	-6.0037999	-2.9519	22.0737
190	2	3	0.080578998	-5.711	-4.6090999	22.6982
191	2	3	0.080578998	-4.98	-1.9741	24.135599
192	2	3	0.080578998	-4.7941999	-3.6231999	24.847
193	2	3	0.078704998	-3.4717	-2.6155	22.244499
194	2	3	0.078704998	-3.2634001	-4.256	22.9676
195	2	3	0.077001996	-2.4897001	-1.5805	24.325001
196	2	3	0.077001996	-2.3169999	-3.2149	25.048599
197	2	3	0.113699	-0.78839999	-3.8861001	23.147499
198	2	3	0.113699	-0.1505	-2.5578001	24.1707
199	4	1	-0.164178	-2.9842999	-2.9433999	48.1717
200	4	2	0.000711	-2.0056	-3.2267001	49.135799
201	4	2	-0.052942999	-1.9549	-4.7469001	49.447899
202	4	2	-0.158527	-0.824	-4.9692001	50.480301
203	4	3	0.069735996	0.14210001	-4.5837998	50.0891
204	4	3	0.069735996	-0.67989999	-6.0439	50.712898
205	4	3	0.069735996	-1.0513999	-4.4382	51.429901
206	4	2	0.109169	-1.635	-5.5096002	48.131802
207	4	1	-0.489629	-1.296	-6.8477001	48.3811
208	4	4	0.085068002	-2.5141001	-5.4706001	47.450001
209	4	4	0.085068002	-0.77960002	-5.0195999	47.613602
210	4	2	-0.169903	-3.3376	-5.1659999	50.043201
211	4	2	-0.121097	-3.4860001	-6.6437001	50.419701
212	4	3	0.043956	-2.7097001	-6.9604001	51.143299
213	4	3	0.043956	-4.4755998	-6.7950001	50.901699
214	4	3	0.043956	-3.4554999	-7.2894001	49.5191
215	4	3	0.090533003	-4.1448002	-4.9254999	49.316601
216	4	3	0.090533003	-3.5388999	-4.5627999	50.9561
217	4	4	0.090415999	-2.2302999	-2.6561999	50.066399
218	4	4	0.090415999	-1.015	-2.8801	48.7612
219	5	5	0.76046401	-1.1221	-7.2804999	47.452
220	5	6	-0.55458999	-1.7575001	-8.2708998	47.129601
221	5	2	-0.208589	-0.1051	-6.7049999	46.511101
222	5	2	-0.115515	0.58139998	-5.4752998	47.1231
223	5	2	-0.136188	1.7114	-4.9249001	46.236301
224	5	2	-0.141528	1.1794	-4.1464	45.020199
225	5	2	-0.141528	2.2994001	-3.6784	44.072899
226	5	2	-0.13884699	3.3132	-2.6989	44.691299
227	5	2	-0.097190998	2.6682	-1.3911	45.172199
228	5	2	-0.257649	3.7356	-0.3777	45.6003
229	5	5	0.51707202	3.1125	0.89679998	46.087799
230	5	6	-0.68671203	3.8210001	1.8135	46.470001
231	5	3	0.113699	4.3986001	-0.1451	44.738201
232	5	3	0.113699	4.3534999	-0.80949998	46.4174
233	5	3	0.077001996	2.0077	-1.6	46.040501
234	5	3	0.077001996	2.0569	-0.95490003	44.351799
235	5	3	0.078704998	4.0675001	-2.4607	43.909199
236	5	3	0.078704998	3.8584001	-3.1851001	45.527802
237	5	3	0.080578998	1.8319	-3.1953001	43.187199
238	5	3	0.080578998	2.8499	-4.5692	43.700001
239	5	3	0.080578998	0.57249999	-3.2797999	45.357498
240	5	3	0.080578998	0.50629997	-4.8024998	44.430199
241	5	3	0.078704998	2.3698001	-5.7551999	45.902401
242	5	3	0.078704998	2.3202	-4.2399001	46.8638
243	5	3	0.085795999	1.0256	-5.7676001	48.1003
244	5	3	0.085795999	-0.1691	-4.6778998	47.3186
245	5	3	0.116959	0.65359998	-7.4847999	46.286098
246	5	3	0.116959	-0.6221	-6.4271002	45.569401
247	1	1	-0.163858	-2.9593	-1.9617	48.031601
248	1	2	0.010377	-2.1293001	-1.4446	49.036301
249	1	2	-0.088048004	-2.0044	0.098499998	48.9156
250	1	2	-0.151436	-1.1128	0.58389997	50.084
251	1	3	0.06955	-1.5441	0.2687	51.058701
252	1	3	0.06955	-1.0243	1.6896	50.105801
253	1	3	0.06955	-0.090700001	0.1558	50.000401
254	1	2	0.059124999	-3.4245	0.71969998	49.032799
255	1	7	-0.680457	-3.3678999	2.1087999	49.2155
256	1	8	0.37709501	-4.3088999	2.4217	49.258701
257	1	4	0.080427997	-4.0144	0.48930001	48.116901
258	1	4	0.080427997	-3.9581001	0.2703	49.901699
259	1	2	-0.16264001	-1.3389	0.42559999	47.539101
260	1	2	-0.121421	-1.1262	1.911	47.231201
261	1	3	0.043956	-0.51950002	2.408	48.014999
262	1	3	0.043956	-0.57779998	2.0053999	46.271099
263	1	3	0.043956	-2.0959001	2.4345	47.109798
264	1	3	0.090208001	-1.9539	0.00039999999	46.716999
265	1	3	0.090208001	-0.34670001	-0.074900001	47.4874
266	1	4	0.090443999	-1.1212	-1.9132	48.958801
267	1	4	0.090443999	-2.5495	-1.7158	50.031898
268	2	5	0.51707202	2.0339	1.0179	46.105499
269	2	6	-0.68671203	1.4220999	0.81590003	47.1423
270	2	2	-0.257649	1.3045	1.4145	44.855598
271	2	2	-0.097190998	0.62290001	2.783	44.995899
272	2	2	-0.13884699	1.6404001	3.9277999	45.113201
273	2	2	-0.141528	0.93260002	5.2846999	45.204201
274	2	2	-0.141528	1.951	6.4275999	45.335602
275	2	2	-0.136188	1.294	7.8162999	45.293598
276	2	2	-0.11298	0.50199997	8.1355	46.574001
277	2	2	-0.218686	-0.0823	9.5541	46.553799
278	2	5	0.823915	0.98549998	10.5971	46.673801
279	2	6	-0.556032	1.3441	11.2544	45.6604
280	2	7	-0.66538399	1.5984	10.822	47.902199
281	2	8	0.394263	2.3299999	11.5167	47.998199
282	2	3	0.117984	-0.7802	9.6661997	47.411499
283	2	3	0.117984	-0.67079997	9.71	45.622601
284	2	3	0.085795999	1.1547	8.0129995	47.4664
285	2	3	0.085795999	-0.34380001	7.4226999	46.670799
286	2	3	0.078704998	0.62690002	7.8913002	44.4063
287	2	3	0.078704998	2.1024001	8.5684004	45.1702
288	2	3	0.080578998	2.5297999	6.3133001	46.278099
289	2	3	0.080578998	2.6709001	6.3646998	44.4893
290	2	3	0.080578998	0.26030001	5.2795	46.0877
291	2	3	0.080578998	0.31799999	5.4404998	44.290199
292	2	3	0.078704998	2.2629001	3.7801001	46.021702
293	2	3	0.078704998	2.3067	3.9184	44.222698
294	2	3	0.077001996	-0.0482	2.7783999	45.882401
295	2	3	0.077001996	-0.0078999996	2.9505999	44.095299
296	2	3	0.113699	2.0167	1.436	44.003201
297	2	3	0.113699	0.53430003	0.64539999	44.632599
298	4	1	-0.164178	-0.93000001	-2.6096001	74.007004
299	4	2	0.000711	-0.90200001	-1.3707	74.664101
300	4	2	-0.052942999	-0.34689999	-1.5179	76.106796
301	4	2	-0.158527	-0.31029999	-0.104	76.734398
302	4	3	0.069735996	0.30239999	0.58289999	76.1119
303	4	3	0.069735996	0.134	-0.1124	77.750397
304	4	3	0.069735996	-1.3363	0.317	76.809998
305	4	2	0.109169	1.0906	-2.1036	76.024101
306	4	1	-0.489629	1.7595	-2.0027001	77.252899
307	4	4	0.085068002	1.0455	-3.1714001	75.712997
308	4	4	0.085068002	1.6770999	-1.5493	75.256599
309	4	2	-0.169903	-1.3122	-2.4525001	76.904701
310	4	2	-0.121097	-0.93150002	-2.7216001	78.364197
311	4	3	0.043956	-0.8369	-1.7811	78.941299
312	4	3	0.043956	-1.7323999	-3.3276999	78.839401
313	4	3	0.043956	0.0077999998	-3.3067	78.429604
314	4	3	0.090533003	-1.3849	-3.4375999	76.393204
315	4	3	0.090533003	-2.3338001	-2.0122001	76.897598
316	4	4	0.090415999	-1.9327	-0.94819999	74.696198
317	4	4	0.090415999	-0.26800001	-0.6638	74.080803
318	5	5	0.76046401	2.6942	-2.4349	77.110199
319	5	6	-0.55458999	3.0409999	-3.3533001	77.834702
320	5	2	-0.208589	3.6145999	-1.9441	76.031898
321	5	2	-0.115515	2.9842999	-0.7798	75.253998
322	5	2	-0.136188	3.9428	-0.1736	74.214897
323	5	2	-0.141528	4.0922999	-1.0585001	72.964897
324	5	2	-0.141528	5.1262999	-0.51050001	71.964203
325	5	2	-0.13884699	4.7944002	0.87029999	71.370003
326	5	2	-0.097190998	3.4768	0.88389999	70.581703
327	5	2	-0.257649	3.2869	2.2191	69.853302
328	5	5	0.51707202	1.9931999	2.2465999	69.094398
329	5	6	-0.68671203	1.6823	3.2392001	68.456902
330	5	3	0.113699	4.1243	2.3787	69.139
331	5	3	0.113699	3.2864001	3.0501001	70.591797
332	5	3	0.077001996	2.6252	0.7349	71.278999
333	5	3	0.077001996	3.4809999	0.057700001	69.837097
334	5	3	0.078704998	5.6255002	1.1477	70.684799
335	5	3	0.078704998	4.7670002	1.6386	72.171501
336	5	3	0.080578998	5.2315001	-1.2405	71.132103
337	5	3	0.080578998	6.1160002	-0.45109999	72.466698
338	5	3	0.080578998	3.1071999	-1.1884	72.4692
339	5	3	0.080578998	4.4368	-2.0685999	73.269402
340	5	3	0.078704998	4.9366002	0.0088999998	74.677002
341	5	3	0.078704998	3.5232999	0.80919999	73.911903
342	5	3	0.085795999	2.7114999	0.021600001	75.9758
343	5	3	0.085795999	2.049	-1.1171	74.755096
344	5	3	0.116959	4.5658002	-1.6111	76.499702
345	5	3	0.116959	3.8299	-2.7908001	75.3479
346	1	1	-0.163858	-1.298	-2.4352	73.102501
347	1	2	0.010377	-1.7685	-1.1145999	73.119904
348	1	2	-0.088048004	-2.3668001	-0.71869999	71.742798
349	1	2	-0.151436	-2.8985	0.72960001	71.867699
350	1	3	0.06955	-3.6435001	0.8003	72.689499
351	1	3	0.06955	-3.401	1.068	70.938301
352	1	3	0.06955	-2.0676999	1.4337	72.088799
353	1	2	0.059124999	-3.5346999	-1.6904	71.413803
354	1	7	-0.680457	-4.3011999	-1.2308	70.333397
355	1	8	0.37709501	-5.0037999	-1.9151	70.180496
356	1	4	0.080427997	-3.1303999	-2.7011001	71.179001
357	1	4	0.080427997	-4.1996002	-1.7894	72.302399
358	1	2	-0.16264001	-1.2261	-0.79909998	70.676498
359	1	2	-0.121421	-1.6212	-0.43990001	69.2407
360	1	3	0.043956	-2.0562999	0.57810003	69.179199
361	1	3	0.043956	-0.71399999	-0.45699999	68.601997
362	1	3	0.043956	-2.3306	-1.184	68.825798
363	1	3	0.090208001	-0.8046	-1.8272001	70.657898
364	1	3	0.090208001	-0.39840001	-0.12	70.978302
365	1	4	0.090443999	-0.92989999	-0.42820001	73.3797
366	1	4	0.090443999	-2.5427999	-1.0138	73.914597
367	2	5	0.51707202	1.3247	1.3913	69.102699
368	2	6	-0.68671203	0.3827	1.3707	69.8787
369	2	2	-0.257649	1.5732	0.23810001	68.175499
370	2	2	-0.097190998	0.43619999	0.060600001	67.159203
371	2	2	-0.13884699	0.36489999	1.2254	66.160202
372	2	2	-0.141528	-0.74769998	0.99839997	65.129997
373	2	2	-0.141528	-0.82709998	2.1707001	64.140099
374	2	2	-0.136188	-1.8369	1.9248	63.008099
375	2	2	-0.11298	-3.2966001	1.9997	63.4902
376	2	2	-0.218686	-4.2954998	1.832	62.3377
377	2	5	0.823915	-4.2912002	3.0164001	61.421299
378	2	6	-0.556032	-3.7265	2.9442	60.297298
379	2	7	-0.66538399	-4.8915	4.2051001	61.823898
380	2	8	0.394263	-4.8881998	5.0190001	61.2201
381	2	3	0.117984	-5.3165998	1.7205	62.762199
382	2	3	0.117984	-4.0675998	0.9034	61.768799
383	2	3	0.085795999	-3.4788001	2.9691999	64.004402
384	2	3	0.085795999	-3.4847	1.1861	64.221901
385	2	3	0.078704998	-1.6431	0.93510002	62.537998
386	2	3	0.078704998	-1.6707	2.7028999	62.2327
387	2	3	0.080578998	-1.0881	3.1066	64.680801
388	2	3	0.080578998	0.17470001	2.3176	63.6782
389	2	3	0.080578998	-1.7151	0.89429998	65.664803
390	2	3	0.080578998	-0.54589999	0.057	64.5728
391	2	3	0.078704998	0.1672	2.1724	66.707001
392	2	3	0.078704998	1.3407	1.3176	65.634804
393	2	3	0.077001996	-0.53299999	-0.040800001	67.694702
394	2	3	0.077001996	0.61409998	-0.88450003	66.600601
395	2	3	0.113699	2.5337	0.39480001	67.639702
396	2	3	0.113699	1.6705	-0.69010001	68.778397
397	4	1	-0.164178	3.7519	0.62529999	92.210403
398	4	2	0.000711	3.6487	1.832	92.918098
399	4	2	-0.052942999	4.2456999	3.0097001	92.100899
400	4	2	-0.158527	4.0478001	4.2979002	92.934799
401	4	3	0.069735996	2.9724	4.4477	93.171501
402	4	3	0.069735996	4.3944001	5.2007999	92.392197
403	4	3	0.069735996	4.6090002	4.2340999	93.892197
404	4	2	0.109169	3.4724	3.1185999	90.756897
405	4	1	-0.489629	3.7593999	4.3206	90.0933
406	4	4	0.085068002	3.7358	2.2599001	90.099403
407	4	4	0.085068002	2.3764999	3.0757999	90.950996
408	4	2	-0.169903	5.7655001	2.7233	91.877403
409	4	2	-0.121097	6.5381999	3.7821	91.084
410	4	3	0.043956	6.4601998	4.7817998	91.554001
411	4	3	0.043956	7.6136999	3.5037	91.064301
412	4	3	0.043956	6.1894002	3.8255	90.0326
413	4	3	0.090533003	5.8881998	1.7542	91.345299
414	4	3	0.090533003	6.2641001	2.6110001	92.865601
415	4	4	0.090415999	4.1849999	1.7352	93.890099
416	4	4	0.090415999	2.5757999	2.0295999	93.1455
417	5	5	0.76046401	3.2212999	4.2962999	89.204102
418	5	6	-0.55458999	3.8152001	4.427	88.1464
419	5	2	-0.208589	1.7333	4.1047001	89.207901
420	5	2	-0.115515	1.1957	3.9756999	90.640503
421	5	2	-0.136188	-0.33950001	3.8928001	90.692101
422	5	2	-0.141528	-0.86940002	2.5134001	90.262802
423	5	2	-0.141528	-2.4072001	2.4521	90.213997
424	5	2	-0.13884699	-3.1149001	2.6882999	91.560501
425	5	2	-0.097190998	-2.7393	1.6493	92.626801
426	5	2	-0.257649	-3.6075001	1.8099999	93.879601
427	5	5	0.51707202	-3.2348001	0.80919999	94.932999
428	5	6	-0.68671203	-3.8276999	0.79799998	95.999199
429	5	3	0.113699	-4.6781998	1.6684	93.614197
430	5	3	0.113699	-3.4768	2.8327999	94.295303
431	5	3	0.077001996	-1.674	1.7795	92.9133
432	5	3	0.077001996	-2.8782001	0.6261	92.213501
433	5	3	0.078704998	-4.2104001	2.6336	91.376297
434	5	3	0.078704998	-2.9014001	3.7121	91.934097
435	5	3	0.080578998	-2.7072001	1.455	89.823898
436	5	3	0.080578998	-2.7737	3.2063	89.484299
437	5	3	0.080578998	-0.47330001	1.7255	90.9375
438	5	3	0.080578998	-0.50120002	2.2802	89.242104
439	5	3	0.078704998	-0.78359997	4.6891999	90.057297
440	5	3	0.078704998	-0.64579999	4.0851002	91.742302
441	5	3	0.085795999	1.5091	4.8733001	91.2183
442	5	3	0.085795999	1.6399	3.0840001	91.135201
443	5	3	0.116959	1.2606	4.9766002	88.7071
444	5	3	0.116959	1.5001	3.1889	88.626503
445	1	1	-0.163858	3.3578999	-0.072999999	92.794502
446	1	2	0.010377	3.1513	0.53200001	94.042198
447	1	2	-0.088048004	2.5243001	-0.46959999	95.049599
448	1	2	-0.151436	2.3747001	0.26660001	96.402901
449	1	3	0.06955	3.3589001	0.65249997	96.746002
450	1	3	0.06955	1.9886	-0.40329999	97.198402
451	1	3	0.06955	1.6778001	1.1267	96.305397
452	1	2	0.059124999	3.4851999	-1.6818	95.203796
453	1	7	-0.680457	3.1312001	-2.4868	96.295898
454	1	8	0.37709501	3.7776999	-3.2399001	96.306702
455	1	4	0.080427997	3.4746001	-2.293	94.273003
456	1	4	0.080427997	4.5264001	-1.3157001	95.357101
457	1	2	-0.16264001	1.1267999	-0.90249997	94.497902
458	1	2	-0.121421	0.3425	-1.8971	95.359398
459	1	3	0.043956	0.18430001	-1.5116	96.386902
460	1	3	0.043956	-0.65609998	-2.0597	94.903702
461	1	3	0.043956	0.8527	-2.8807001	95.394997
462	1	3	0.090208001	1.2478	-1.3578	93.491402
463	1	3	0.090208001	0.4928	0.0019	94.365196
464	1	4	0.090443999	2.4807	1.4134001	93.917702
465	1	4	0.090443999	4.1258998	0.9048	94.432701
466	2	5	0.51707202	-2.441	0.089100003	94.760696
467	2	6	-0.68671203	-1.3177	0.3193	95.179298
468	2	2	-0.257649	-2.7260001	-1.1708	93.9972
469	2	2	-0.097190998	-2.5371001	-2.4244001	94.863098
470	2	2	-0.13884699	-3.586	-2.5197001	95.9813
471	2	2	-0.141528	-3.4022	-3.8034999	96.799103
472	2	2	-0.141528	-4.4429998	-3.8906	97.925797
473	2	2	-0.136188	-4.3839998	-5.2242999	98.687103
474	2	2	-0.11298	-3.1394	-5.3388	99.585197
475	2	2	-0.218686	-3.132	-6.6389999	100.3999
476	2	5	0.823915	-4.1872001	-6.6353998	101.4625
477	2	6	-0.556032	-5.2410002	-7.309	101.3096
478	2	7	-0.66538399	-4.0123	-5.8670001	102.6089
479	2	8	0.394263	-4.7213001	-5.8450999	103.3327
480	2	3	0.117984	-2.1407001	-6.7487001	100.8902
481	2	3	0.117984	-3.2683001	-7.5123	99.724098
482	2	3	0.085795999	-3.0845001	-4.4664998	100.2733
483	2	3	0.085795999	-2.2270999	-5.3309999	98.952499
484	2	3	0.078704998	-4.4109001	-6.0716	97.966301
485	2	3	0.078704998	-5.2950001	-5.2926002	99.319298
486	2	3	0.080578998	-4.3053999	-3.0457001	98.635399
487	2	3	0.080578998	-5.4593	-3.7951	97.482498
488	2	3	0.080578998	-2.3801999	-3.8085001	97.232903
489	2	3	0.080578998	-3.5086	-4.6845999	96.128502
490	2	3	0.078704998	-3.4911001	-1.6417	96.655701
491	2	3	0.078704998	-4.6030002	-2.5116999	95.531197
492	2	3	0.077001996	-1.5145	-2.4279001	95.299698
493	2	3	0.077001996	-2.6269	-3.3171	94.205902
494	2	3	0.113699	-3.7651	-1.1387	93.605797
495	2	3	0.113699	-2.0386	-1.2234	93.1259
496	4	1	-0.164178	-0.66320002	26.187799	-3.3666999
497	4	2	0.000711	-1.6324	25.205999	-3.6198001
498	4	2	-0.052942999	-1.8071001	24.976	-5.1455002
499	4	2	-0.158527	-2.8552001	23.8522	-5.3263998
500	4	3	0.069735996	-2.5359001	22.931601	-4.7922001
501	4	3	0.069735996	-2.9944999	23.5825	-6.3930001
502	4	3	0.069735996	-3.8403001	24.166901	-4.9187002
503	4	2	0.109169	-0.43970001	24.5319	-5.7364001
504	4	1	-0.489629	-0.57870001	24.0368	-7.0414
505	4	4	0.085068002	0.26719999	25.391899	-5.7393999
506	4	4	0.085068002	0.00069999998	23.730801	-5.1002002
507	4	2	-0.169903	-2.3115001	26.310801	-5.7824001
508	4	2	-0.121097	-2.5467999	26.285101	-7.2961001
509	4	3	0.043956	-3.2663	25.4939	-7.5839
510	4	3	0.043956	-2.977	27.260201	-7.6103001
511	4	3	0.043956	-1.5930001	26.152901	-7.8455
512	4	3	0.090533003	-1.581	27.123199	-5.5734
513	4	3	0.090533003	-3.2674999	26.6075	-5.2967
514	4	4	0.090415999	-2.6022	25.522301	-3.171
515	4	4	0.090415999	-1.3269	24.256599	-3.1226001
516	5	5	0.76046401	0.37900001	23.787901	-7.3604002
517	5	6	-0.55458999	0.81260002	24.288099	-8.3852997
518	5	2	-0.208589	1.2264	22.8265	-6.5802999
519	5	2	-0.115515	0.48100001	22.312201	-5.3403001
520	5	2	-0.136188	1.2728	21.237101	-4.5763998
521	5	2	-0.141528	2.4317	21.8307	-3.7564001
522	5	2	-0.141528	3.2915001	20.753799	-3.0696001
523	5	2	-0.13884699	2.5506001	19.8841	-2.0378001
524	5	2	-0.097190998	1.9766999	20.697201	-0.86849999
525	5	2	-0.257649	1.4202	19.773899	0.221
526	5	5	0.51707202	0.84200001	20.561199	1.3595001
527	5	6	-0.68671203	0.3529	19.9809	2.3146
528	5	3	0.113699	2.2330999	19.123501	0.61220002
529	5	3	0.113699	0.62379998	19.128	-0.2084
530	5	3	0.077001996	1.1554	21.348301	-1.2366
531	5	3	0.077001996	2.7758	21.337099	-0.4337
532	5	3	0.078704998	3.2801001	19.145901	-1.6378
533	5	3	0.078704998	1.7424001	19.3041	-2.5316
534	5	3	0.080578998	4.1461	21.255199	-2.5648999
535	5	3	0.080578998	3.7235999	20.0886	-3.8483
536	5	3	0.080578998	2.0394001	22.548	-3.0050001
537	5	3	0.080578998	3.1027	22.402901	-4.4302001
538	5	3	0.078704998	1.6566	20.473301	-5.2862
539	5	3	0.078704998	0.56410003	20.7332	-3.8854001
540	5	3	0.085795999	-0.48109999	21.8598	-5.6679001
541	5	3	0.085795999	0.2413	23.16	-4.6610999
542	5	3	0.116959	1.4936	21.972099	-7.2384
543	5	3	0.116959	2.1571	23.3503	-6.2790999
544	1	1	-0.163858	-0.61369997	26.2806	-2.3803
545	1	2	0.010377	-1.6905	25.546	-1.8642
546	1	2	-0.088048004	-1.7149	25.6092	-0.31290001
547	1	2	-0.151436	-2.954	24.813601	0.164
548	1	3	0.06955	-3.8798001	25.226801	-0.2915
549	1	3	0.06955	-3.0790999	24.8627	1.2652
550	1	3	0.06955	-2.8687999	23.744801	-0.12809999
551	1	2	0.059124999	-1.8365	27.097601	0.1189
552	1	7	-0.680457	-2.1463001	27.2173	1.4812
553	1	8	0.37709501	-2.1835999	28.1905	1.6729
554	1	4	0.080427997	-0.88270003	27.631701	-0.093400002
555	1	4	0.080427997	-2.6410999	27.593201	-0.47150001
556	1	2	-0.16264001	-0.3987	24.9552	0.22059999
557	1	2	-0.121421	-0.23459999	24.9198	1.7431999
558	1	3	0.043956	-1.0817	24.3986	2.2333
559	1	3	0.043956	0.6925	24.363501	1.9931
560	1	3	0.043956	-0.12620001	25.9433	2.1551001
561	1	3	0.090208001	0.48030001	25.4925	-0.1961
562	1	3	0.090208001	-0.33770001	23.908001	-0.1496
563	1	4	0.090443999	-1.6073999	24.486099	-2.1984999
564	1	4	0.090443999	-2.6415999	25.954	-2.2767999
565	2	5	0.51707202	0.8524	21.6467	1.3475
566	2	6	-0.68671203	-0.139	22.2544	0.97640002
567	2	2	-0.257649	2.0868001	22.3881	1.7696
568	2	2	-0.097190998	1.8477	23.236601	3.0265999
569	2	2	-0.13884699	1.5903	22.371201	4.2694001
570	2	2	-0.141528	1.4024	23.243	5.5165
571	2	2	-0.141528	1.1311001	22.3769	6.7561998
572	2	2	-0.136188	1.0707	23.198799	8.0532999
573	2	2	-0.11298	-0.20389999	24.0557	8.1525002
574	2	2	-0.218686	-0.2913	24.809799	9.4858999
575	2	5	0.823915	-0.5438	23.882	10.6339
576	2	6	-0.556032	0.39210001	23.582199	11.4224
577	2	7	-0.66538399	-1.809	23.332199	10.814
578	2	8	0.394263	-1.994	22.6945	11.5796
579	2	3	0.117984	-1.1298	25.537201	9.4315996
580	2	3	0.117984	0.64270002	25.3897	9.6569996
581	2	3	0.085795999	-1.1045001	23.415199	8.0257998
582	2	3	0.085795999	-0.205	24.8092	7.3371
583	2	3	0.078704998	1.9711	23.8479	8.1309004
584	2	3	0.078704998	1.0961	22.4865	8.9055996
585	2	3	0.080578998	0.18260001	21.811899	6.6240001
586	2	3	0.080578998	1.9529999	21.6339	6.8606
587	2	3	0.080578998	0.5478	23.9312	5.3469
588	2	3	0.080578998	2.3201001	23.849199	5.6827002
589	2	3	0.078704998	0.67699999	21.757999	4.1127
590	2	3	0.078704998	2.4533	21.687	4.4245
591	2	3	0.077001996	0.99010003	23.9238	2.8575001
592	2	3	0.077001996	2.7514999	23.860701	3.2012999
593	2	3	0.113699	2.9073999	21.6632	1.9571
594	2	3	0.113699	2.4063001	23.051901	0.93790001
595	4	1	-0.164178	-1.248	22.545401	19.556601