Title

81 atoms
86 bonds
149 angles
245 dihedrals
84 impropers

9 atom types
14 bond types
7 angle types
24 dihedral types
2 improper types
-7.298999786 92.70100021 xlo xhi
-4.147999763 95.85200024 ylo yhi
-4.376999855 95.62300014 zlo zhi
0.0 0.0 0.0 xy xz yz

Masses

1	15.99943
2	12.01078
3	1.007947
4	12.01078
5	15.99943
6	1.007947
7	1.007947
8	15.99943
9	1.007947


Pair Coeffs

1	0.16846514	3.0251065
2	0.10884061	3.3795318
3	0.016409246	2.5832257
4	0.086879315	3.4806469
5	0.2102061	3.0398122
6	0.015611343	2.5725815
7	0.015779483	2.6445434
8	0.20947353	2.99716
9	1.2326e-05	0.53453923

Bond Coeffs

1 harmonic	366.7408841747	1.425895053732
2 harmonic	300.03137914615	1.451203938761
3 harmonic	264.62148576755	1.52190126495
4 harmonic	370.04670688625	1.093899492634
5 harmonic	301.15400723785	1.345741232799
6 harmonic	582.698766451	1.225198386222
7 harmonic	329.44145381095	1.523435958334
8 harmonic	289.73813263395	1.498646816465
9 harmonic	279.1350963404	1.454628925034
10 harmonic	360.7852444772	1.387193227181
11 harmonic	397.2545789619	1.085358495916
12 harmonic	329.96998057905	1.427343958716
13 harmonic	543.5267831885	0.9716763312559
14 harmonic	385.7604595587	1.369745182308


Angle Coeffs

1 harmonic	53.20531626545	116.5475862634
2 harmonic	65.09061609600001	110.3538806181
3 harmonic	201.41175231035	127.4691416191
4 harmonic	57.8982893754	126.8062420451
5 harmonic	48.776492647595	115.6030999533
6 harmonic	14.32262199324	138.3184368373
7 harmonic	34.066775159195	129.1835929926


Dihedral Coeffs

1 fourier 1	-0.0309670556842	3	0
2 fourier 1	0.4598191477945	2	0
3 fourier 1	0.1115525666802	3	0
4 fourier 1	0.3432490222662	1	0
5 fourier 1	0.0473758381877	3	0
6 fourier 1	0.457973137376	1	0
7 fourier 1	0.1918272375143	3	0
8 fourier 1	0.9202179876409	1	180
9 fourier 1	1.163809172478	2	180
10 fourier 1	0.1679186987369	1	180
11 fourier 1	2.779853741805	2	180
12 fourier 1	0.02664938770063	3	0
13 fourier 1	0.1911926717192	3	0
14 fourier 1	-0.3703352413219	2	0
15 fourier 1	0.1155372516788	3	0
16 fourier 1	0.9974165607242	2	180
17 fourier 1	3.661930099076	2	180
18 fourier 1	0.1040663847541	3	0
19 fourier 1	0.3445382149273	3	0
20 fourier 1	0.1364556373303	1	0
21 fourier 1	0.3026390167484	3	0
22 fourier 1	2.687457892086	2	180
23 fourier 1	2.772607909663	2	180
24 fourier 1	0.09692684957115	1	0


Improper Coeffs

1 3.5	-1	2
2 0.3666666666666667	-1	2


Atoms

1	1	1	-0.13289601	1.576	-0.336	0.85699999
2	1	2	0.053357001	0.63599998	-0.419	-0.17900001
3	1	2	0.16362099	-0.71899998	0.11	0.28999999
4	1	1	-0.480957	-1.675	-0.035999998	-0.72399998
5	1	3	0.102299	-1.051	-0.46900001	1.177
6	1	3	0.102299	-0.63099998	1.1799999	0.58899999
7	1	3	0.099698998	0.52999997	-1.484	-0.477
8	1	3	0.099698998	0.98699999	0.154	-1.068
9	1	4	0.75775999	-1.49	0.71600002	-1.418
10	1	5	-0.523637	-1.3200001	0.403	-2.5869999
11	1	2	-0.318744	-1.487	2.1719999	-0.986
12	1	4	0.53958601	-1.192	2.2739999	0.49900001
13	1	5	-0.50560302	-0.93800002	3.3529999	1.013
14	1	4	0.106531	-0.47099999	2.928	-1.788
15	1	4	-0.084840998	0.866	2.826	-1.735
16	1	6	0.20103399	1.346	2.164	-1.026
17	1	4	-0.26541901	1.679	3.635	-2.6760001
18	1	6	0.20606001	2.7590001	3.5780001	-2.6389999
19	1	4	-0.24492399	1.076	4.4320002	-3.579
20	1	6	0.20606001	1.671	5.0159998	-4.2690001
21	1	4	-0.20792	-0.405	4.5050001	-3.638
22	1	6	0.205364	-0.89499998	5.1259999	-4.3769999
23	1	4	-0.084389001	-1.1160001	3.783	-2.7650001
24	1	2	-0.160831	-2.592	3.6789999	-2.6830001
25	1	7	0.129995	-2.9590001	3.1240001	-3.5680001
26	1	7	0.129995	-3.059	4.6880002	-2.6589999
27	1	2	0.107903	-2.819	2.9230001	-1.346
28	1	4	-0.187317	-4.0830002	2.0739999	-1.2869999
29	1	4	-0.236076	-4.441	1.232	-2.28
30	1	6	0.203858	-3.8429999	1.126	-3.174
31	1	4	-0.21547499	-5.6589999	0.40400001	-2.1589999
32	1	6	0.211408	-5.9400001	-0.25999999	-2.967
33	1	4	-0.222552	-6.4089999	0.46799999	-1.054
34	1	6	0.210894	-7.2989998	-0.14	-0.96399999
35	1	4	-0.21547499	-6.0180001	1.3660001	0.048999999
36	1	6	0.211408	-6.6209998	1.408	0.94700003
37	1	4	-0.236076	-4.9190001	2.1229999	-0.057999998
38	1	6	0.203858	-4.6399999	2.7709999	0.764
39	1	7	0.117468	-2.954	3.74	-0.60000002
40	1	1	-0.127261	1.845	0.61799997	0.92000002
41	1	2	0.024855001	3.148	0.70099998	0.41100001
42	1	2	0.096879996	4.1529999	0.17200001	1.434
43	1	8	-0.67623001	5.461	0.31799999	0.95200002
44	1	9	0.39856699	5.5970001	-0.40000001	0.27900001
45	1	3	0.097796001	4.0549998	0.75199997	2.3759999
46	1	3	0.097796001	3.941	-0.89700001	1.663
47	1	3	0.100397	3.3759999	1.766	0.192
48	1	3	0.100397	3.23	0.12800001	-0.54100001
49	1	4	0.542472	-1.221	1.39	1.13
50	1	5	-0.50560302	-2.082	0.54900002	0.91799998
51	1	2	-0.338732	-0.186	1.194	2.2249999
52	1	4	0.80132997	-0.84899998	0.66799998	3.4879999
53	1	5	-0.51479	-0.76700002	1.295	4.5799999
54	1	8	-0.65890002	-1.522	-0.55000001	3.4530001
55	1	9	0.41224501	-1.957	-0.92900002	4.2859998
56	1	4	0.108812	0.514	2.5039999	2.4519999
57	1	4	-0.084840998	-0.011	3.648	2.921
58	1	6	0.20103399	-1.0470001	3.6989999	3.23
59	1	4	-0.26541901	0.85299999	4.8509998	2.9990001
60	1	6	0.20606001	0.45199999	5.7750001	3.3940001
61	1	4	-0.24492399	2.128	4.7969999	2.573
62	1	6	0.20606001	2.7550001	5.677	2.625
63	1	4	-0.20792	2.674	3.5350001	2.0179999
64	1	6	0.205364	3.688	3.494	1.642
65	1	4	-0.084389001	1.882	2.457	1.979
66	1	2	-0.160831	2.2130001	1.133	1.406
67	1	7	0.129995	3.158	0.74299997	1.8430001
68	1	7	0.129995	2.3340001	1.238	0.30899999
69	1	2	0.116835	1.003	0.248	1.8049999
70	1	4	-0.187317	0.66100001	-0.81199998	0.764
71	1	4	-0.236076	0.461	-2.0899999	1.1440001
72	1	6	0.203858	0.55400002	-2.3829999	2.1819999
73	1	4	-0.21547499	0.11	-3.1240001	0.149
74	1	6	0.211408	-0.037	-4.1479998	0.46700001
75	1	4	-0.222552	-0.028000001	-2.7969999	-1.14
76	1	6	0.210894	-0.28600001	-3.5539999	-1.869
77	1	4	-0.21547499	0.16500001	-1.399	-1.5700001
78	1	6	0.211408	0.034000002	-1.1339999	-2.6110001
79	1	4	-0.236076	0.48699999	-0.458	-0.67400002
80	1	6	0.203858	0.59600002	0.56599998	-1.005
81	1	7	0.117468	1.348	-0.28	2.727

Bonds

1	1	1	2
2	2	1	40
3	3	2	3
4	4	2	7
5	4	2	8
6	1	3	4
7	4	3	5
8	4	3	6
9	5	4	9
10	6	9	10
11	7	9	11
12	7	11	12
13	8	11	14
14	3	11	27
15	6	12	13
16	9	12	49
17	10	14	15
18	10	14	23
19	11	15	16
20	10	15	17
21	11	17	18
22	10	17	19
23	11	19	20
24	10	19	21
25	11	21	22
26	10	21	23
27	8	23	24
28	4	24	25
29	4	24	26
30	3	24	27
31	8	27	28
32	4	27	39
33	10	28	29
34	10	28	37
35	11	29	30
36	10	29	31
37	11	31	32
38	10	31	33
39	11	33	34
40	10	33	35
41	11	35	36
42	10	35	37
43	11	37	38
44	1	40	41
45	3	41	42
46	4	41	47
47	4	41	48
48	12	42	43
49	4	42	45
50	4	42	46
51	13	43	44
52	6	49	50
53	7	49	51
54	7	51	52
55	8	51	56
56	3	51	69
57	6	52	53
58	14	52	54
59	13	54	55
60	10	56	57
61	10	56	65
62	11	57	58
63	10	57	59
64	11	59	60
65	10	59	61
66	11	61	62
67	10	61	63
68	11	63	64
69	10	63	65
70	8	65	66
71	4	66	67
72	4	66	68
73	3	66	69
74	8	69	70
75	4	69	81
76	10	70	71
77	10	70	79
78	11	71	72
79	10	71	73
80	11	73	74
81	10	73	75
82	11	75	76
83	10	75	77
84	11	77	78
85	10	77	79
86	11	79	80

Angles

1	1	23	24	27
2	4	69	70	79
3	4	4	9	11
4	7	20	19	21
5	4	71	70	79
6	5	5	3	6
7	7	36	35	37
8	1	25	24	27
9	4	28	29	31
10	4	57	59	61
11	4	17	19	21
12	7	31	33	34
13	7	62	61	63
14	4	11	14	23
15	1	70	69	81
16	4	14	23	24
17	7	34	33	35
18	1	56	51	69
19	4	12	49	51
20	1	9	11	14
21	4	61	63	65
22	4	59	61	63
23	1	65	66	67
24	4	15	14	23
25	1	42	41	47
26	1	49	51	69
27	4	69	70	71
28	4	31	33	35
29	5	7	2	8
30	7	71	73	74
31	7	64	63	65
32	4	70	71	73
33	4	29	28	37
34	7	33	35	36
35	4	70	79	77
36	2	52	54	55
37	1	43	42	46
38	4	14	15	17
39	7	30	29	31
40	7	78	77	79
41	1	4	3	5
42	5	45	42	46
43	1	66	69	81
44	4	11	12	13
45	6	51	56	57
46	7	15	17	18
47	1	40	41	48
48	1	9	11	27
49	7	58	57	59
50	1	11	27	39
51	7	29	31	32
52	7	56	57	58
53	7	75	77	78
54	1	12	11	14
55	1	41	42	43
56	1	52	51	56
57	7	19	21	22
58	4	15	17	19
59	1	9	11	12
60	7	77	79	80
61	5	67	66	68
62	1	11	27	24
63	7	28	37	38
64	1	1	2	3
65	6	21	23	24
66	4	27	28	29
67	4	19	21	23
68	2	3	4	9
69	7	74	73	75
70	1	65	66	68
71	1	28	27	39
72	4	14	23	21
73	1	42	41	48
74	1	66	69	70
75	4	11	12	49
76	1	2	3	6
77	7	35	37	38
78	1	1	2	7
79	1	12	11	27
80	2	2	1	40
81	4	71	73	75
82	1	23	24	25
83	1	3	2	7
84	4	33	35	37
85	4	28	37	35
86	7	16	15	17
87	4	51	56	65
88	4	27	28	37
89	1	49	51	52
90	1	65	66	69
91	1	11	27	28
92	1	40	41	42
93	7	32	31	33
94	4	51	52	53
95	1	51	69	81
96	7	73	75	76
97	1	23	24	26
98	1	3	2	8
99	5	47	41	48
100	7	57	59	60
101	4	50	49	51
102	4	29	31	33
103	4	56	57	59
104	4	75	77	79
105	1	24	27	39
106	1	52	51	69
107	1	51	69	66
108	3	4	9	10
109	1	14	11	27
110	4	57	56	65
111	7	22	21	23
112	4	12	49	50
113	4	51	52	54
114	4	73	75	77
115	4	13	12	49
116	4	56	65	63
117	7	59	61	62
118	1	4	3	6
119	4	56	65	66
120	1	67	66	69
121	7	70	79	80
122	1	49	51	56
123	7	72	71	73
124	1	41	42	45
125	7	70	71	72
126	2	1	40	41
127	7	76	75	77
128	7	61	63	64
129	1	43	42	45
130	7	14	15	16
131	1	68	66	69
132	6	63	65	66
133	1	2	3	4
134	1	1	2	8
135	3	53	52	54
136	1	41	42	46
137	1	40	41	47
138	6	11	14	15
139	1	51	69	70
140	4	10	9	11
141	5	25	24	26
142	7	28	29	30
143	7	17	19	20
144	1	26	24	27
145	7	18	17	19
146	1	24	27	28
147	1	2	3	5
148	7	60	59	61
149	2	42	43	44

Dihedrals

1	12	4	9	11	27
2	17	69	70	79	77
3	17	11	14	15	16
4	5	7	2	1	40
5	17	51	56	57	58
6	15	49	51	69	81
7	15	68	66	69	70
8	17	60	59	61	62
9	17	33	35	37	38
10	13	26	24	27	39
11	17	31	33	35	36
12	3	40	41	42	45
12	4	40	41	42	45
13	17	62	61	63	65
14	12	24	27	28	37
15	12	79	70	69	81
16	17	71	73	75	76
17	12	57	56	51	69
18	17	29	31	33	34
19	17	14	15	17	18
20	12	9	11	14	15
21	17	34	33	35	37
22	15	11	27	24	23
23	14	10	9	11	27
24	13	5	3	2	7
25	12	27	11	12	49
26	17	20	19	21	22
27	3	43	42	41	48
27	4	43	42	41	48
28	15	14	11	27	39
29	14	53	52	51	56
30	17	14	23	21	19
31	17	72	71	73	74
32	17	59	61	63	64
33	12	21	23	24	26
34	17	60	59	61	63
35	15	65	66	69	81
36	3	40	41	42	46
36	4	40	41	42	46
37	22	51	52	54	55
38	13	67	66	69	81
39	14	10	9	11	12
40	13	45	42	41	47
41	12	49	51	52	54
42	12	24	27	28	29
43	23	53	52	54	55
43	24	53	52	54	55
44	15	14	11	27	24
45	17	14	15	17	19
46	17	73	75	77	79
47	15	56	51	69	70
48	13	5	3	2	8
49	16	11	12	49	51
50	17	20	19	21	23
51	12	52	51	56	57
52	17	27	28	37	35
53	14	50	49	51	56
54	12	12	11	14	15
55	14	13	12	11	27
56	17	16	15	14	23
57	12	15	14	11	27
58	12	21	23	24	27
59	12	9	11	14	23
60	5	1	40	41	42
61	7	2	3	4	9
61	8	2	3	4	9
62	17	15	17	19	20
63	13	6	3	2	7
64	1	1	2	3	4
64	2	1	2	3	4
65	13	46	42	41	48
66	21	44	43	42	46
67	15	56	51	69	66
68	5	5	3	4	9
69	13	45	42	41	48
70	14	50	49	51	52
71	12	11	27	28	37
72	17	28	29	31	32
73	12	14	11	12	49
74	15	49	51	69	70
75	15	52	51	69	81
76	17	32	31	33	34
77	12	54	52	51	69
78	17	30	29	31	32
79	17	36	35	37	38
80	15	52	51	69	70
81	15	26	24	27	28
82	17	70	79	77	75
83	17	27	28	29	30
84	17	56	57	59	61
85	12	63	65	66	67
86	17	69	70	71	72
87	17	18	17	19	20
88	17	15	17	19	21
89	13	6	3	2	8
90	17	16	15	17	18
91	15	23	24	27	39
92	15	49	51	69	66
93	18	51	69	66	68
94	12	12	11	14	23
95	15	23	24	27	28
96	15	52	51	69	66
97	3	4	3	2	7
97	4	4	3	2	7
98	17	11	14	15	17
99	17	51	56	57	59
100	15	14	11	27	28
101	17	58	57	59	60
102	17	28	29	31	33
103	12	11	27	28	29
104	17	31	33	35	37
105	17	30	29	31	33
106	17	75	77	79	80
107	15	65	66	69	70
108	14	9	11	12	13
109	16	13	12	49	50
110	17	31	29	28	37
111	13	25	24	27	39
112	12	63	65	66	68
113	17	71	73	75	77
114	17	29	31	33	35
115	12	12	49	51	69
116	15	67	66	69	70
117	12	56	65	66	67
118	17	16	15	17	19
119	17	73	71	70	79
120	12	14	23	24	25
121	17	76	75	77	78
122	14	53	52	51	69
123	17	30	29	28	37
124	17	72	71	73	75
125	17	11	14	23	24
126	17	71	70	79	80
127	17	74	73	75	76
128	17	22	21	23	24
129	17	29	28	37	38
130	17	56	65	63	64
131	15	9	11	27	39
132	12	52	51	56	65
133	17	62	61	63	64
134	15	51	69	66	65
135	12	4	9	11	14
136	5	1	40	41	47
137	17	76	75	77	79
138	17	17	15	14	23
139	12	56	65	66	68
140	18	11	27	24	25
141	12	14	23	24	26
142	15	9	11	27	24
143	17	28	37	35	36
144	1	40	41	42	43
144	2	40	41	42	43
145	17	69	70	79	80
146	17	15	14	23	24
147	17	19	21	23	24
148	5	8	2	1	40
149	17	17	19	21	22
150	3	1	2	3	5
150	4	1	2	3	5
151	15	12	11	27	39
152	17	57	59	61	62
153	17	11	14	23	21
154	17	64	63	65	66
155	17	71	70	79	77
156	17	29	28	37	35
157	12	49	51	56	57
158	5	3	2	1	40
159	12	66	69	70	79
160	5	1	40	41	48
161	17	56	65	63	61
162	17	59	61	63	65
163	12	37	28	27	39
164	17	32	31	33	35
165	17	70	71	73	74
166	12	54	52	51	56
167	17	14	23	21	22
168	12	9	11	12	49
169	17	58	57	56	65
170	17	59	57	56	65
171	17	27	28	29	31
172	5	6	3	4	9
173	15	12	11	27	24
174	17	51	56	65	63
175	17	51	56	65	66
176	17	69	70	71	73
177	17	18	17	19	21
178	12	23	14	11	27
179	15	25	24	27	28
180	17	34	33	35	36
181	17	61	63	65	66
182	17	28	37	35	33
183	17	57	59	61	63
184	12	65	56	51	69
185	3	4	3	2	8
185	4	4	3	2	8
186	13	68	66	69	81
187	17	15	14	23	21
188	17	58	57	59	61
189	12	21	23	24	25
190	14	13	12	11	14
191	12	66	69	70	71
192	15	9	11	27	28
193	17	70	71	73	75
194	12	71	70	69	81
195	17	27	28	37	38
196	12	29	28	27	39
197	19	41	42	43	44
197	20	41	42	43	44
198	16	13	12	49	51
199	14	49	51	52	53
200	12	63	65	66	69
201	12	4	9	11	12
202	17	78	77	79	80
203	12	12	49	51	56
204	17	73	75	77	78
205	12	51	69	70	71
206	16	11	12	49	50
207	14	50	49	51	69
208	17	74	73	75	77
209	9	3	4	9	10
209	10	3	4	9	10
210	12	12	49	51	52
211	18	51	69	66	67
212	13	46	42	41	47
213	21	44	43	42	45
214	3	1	2	3	6
214	4	1	2	3	6
215	17	70	79	77	78
216	14	10	9	11	14
217	15	12	11	27	28
218	15	56	51	69	81
219	12	56	65	66	69
220	11	3	4	9	11
221	18	11	27	24	26
222	12	14	23	24	27
223	6	2	1	40	41
224	12	49	51	56	65
225	17	56	57	59	60
226	17	72	71	70	79
227	12	51	69	70	79
228	17	17	19	21	23
229	17	57	56	65	63
230	3	43	42	41	47
230	4	43	42	41	47
231	17	57	56	65	66

Impropers

5	2	23	21	24	14
6	2	28	37	27	29
21	2	21	22	23	19
26	2	61	62	63	59
28	2	31	29	32	33
29	1	52	53	54	51
33	2	79	80	70	77
35	1	9	10	11	4
36	2	63	61	64	65
38	2	49	12	50	51
43	2	17	15	18	19
50	2	57	56	58	59
54	2	12	49	11	13
60	2	37	38	28	35
61	1	52	51	53	54
62	2	35	37	33	36
69	2	73	75	71	74
75	2	61	63	59	62
78	2	21	23	19	22
80	2	71	73	70	72
85	2	59	60	61	57
92	2	59	57	60	61
97	2	77	75	78	79
100	2	14	23	11	15
104	2	49	51	12	50
106	2	17	19	15	18
111	2	63	65	61	64
113	2	37	28	35	38
115	2	49	50	51	12
118	2	71	70	72	73
120	2	65	56	63	66
123	2	77	78	79	75
125	2	14	15	23	11
128	2	75	76	77	73
130	2	63	64	65	61
131	2	65	63	66	56
136	2	61	59	62	63
141	2	12	13	49	11
147	2	29	30	31	28
150	2	15	16	17	14
151	2	23	24	14	21
153	2	33	34	35	31
157	2	33	31	34	35
158	2	73	74	75	71
159	2	57	58	59	56
163	2	56	65	51	57
165	2	28	29	37	27
166	2	73	71	74	75
172	2	77	79	75	78
173	2	75	77	73	76
174	1	9	4	10	11
180	2	79	77	80	70
185	2	29	28	30	31
197	1	52	54	51	53
202	2	56	57	65	51
203	2	33	35	31	34
206	2	15	14	16	17
213	2	31	32	33	29
216	2	17	18	19	15
226	2	28	27	29	37
227	2	65	66	56	63
228	2	70	69	71	79
232	2	71	72	73	70
238	2	56	51	57	65
256	2	31	33	29	32
258	2	23	14	21	24
262	2	70	79	69	71
268	2	35	33	36	37
283	2	79	70	77	80
290	2	57	59	56	58
294	2	14	11	15	23
295	2	19	20	21	17
310	2	35	36	37	33
316	2	12	11	13	49
322	1	9	11	4	10
332	2	21	19	22	23
334	2	19	17	20	21
335	2	19	21	17	20
355	2	37	35	38	28
360	2	75	73	76	77
373	2	29	31	28	30
382	2	70	71	79	69
384	2	15	17	14	16
394	2	59	61	57	60
