Title

92 atoms
95 bonds
166 angles
259 dihedrals
78 impropers

9 atom types
13 bond types
6 angle types
13 dihedral types
2 improper types
-5.728000164 94.27199984 xlo xhi
-14.28299999 85.71700001 ylo yhi
-4.202000141 95.79799986 zlo zhi
0.0 0.0 0.0 xy xz yz

Masses

1	15.99943
2	12.01078
3	1.007947
4	12.01078
5	1.007947
6	15.99943
7	15.99943
8	1.007947
9	35.4532


Pair Coeffs

1	0.16846514	3.0251065
2	0.086879315	3.4806469
3	0.015611343	2.5725815
4	0.10884061	3.3795318
5	0.015779483	2.6445434
6	0.2102061	3.0398122
7	0.20947353	2.99716
8	1.2326e-05	0.53453923
9	0.2656001	3.3075278

Bond Coeffs

1 harmonic	425.69104206635	1.362945806494
2 harmonic	300.03137914615	1.451203938761
3 harmonic	360.7852444772	1.387193227181
4 harmonic	397.2545789619	1.085358495916
5 harmonic	289.73813263395	1.498646816465
6 harmonic	264.62148576755	1.52190126495
7 harmonic	301.15400723785	1.345741232799
8 harmonic	370.04670688625	1.093899492634
9 harmonic	582.698766451	1.225198386222
10 harmonic	279.1350963404	1.454628925034
11 harmonic	385.7604595587	1.369745182308
12 harmonic	543.5267831885	0.9716763312559
13 harmonic	218.0227703685	1.746066037062


Angle Coeffs

1 harmonic	57.8982893754	126.8062420451
2 harmonic	65.09061609600001	110.3538806181
3 harmonic	34.066775159195	129.1835929926
4 harmonic	53.20531626545	116.5475862634
5 harmonic	201.41175231035	127.4691416191
6 harmonic	48.776492647595	115.6030999533


Dihedral Coeffs

1 fourier 1	3.661930099076	2	180
2 fourier 1	1.532232714475	2	180
3 fourier 1	0.457973137376	1	0
4 fourier 1	0.02664938770063	3	0
5 fourier 1	0.1155372516788	3	0
6 fourier 1	0.09223874044423	3	0
7 fourier 1	0.3159935921949	2	180
8 fourier 1	0.3247796806857	1	180
9 fourier 1	0.1040663847541	3	0
10 fourier 1	2.779853741805	2	180
11 fourier 1	0.9974165607242	2	180
12 fourier 1	0.1911926717192	3	0
13 fourier 1	0.8283030590042	2	180


Improper Coeffs

1 0.3666666666666667	-1	2
2 3.5	-1	2


Atoms

1	1	1	-0.029348999	2.3180001	-3.7939999	-3.8670001
2	1	2	0.271696	1.7359999	-2.98	-2.898
3	1	2	-0.324862	1.425	-3.4630001	-1.688
4	1	3	0.222394	1.6160001	-4.5	-1.446
5	1	2	-0.15568	0.80800003	-2.586	-0.671
6	1	3	0.207166	0.52600002	-3.043	0.26699999
7	1	2	-0.25739899	0.59600002	-1.271	-0.91500002
8	1	4	0.026458001	-0.109	-0.35100001	0.112
9	1	2	-0.25739899	0.39300001	1.096	-0.119
10	1	2	-0.158951	1.699	1.3839999	0.093999997
11	1	3	0.207166	2.382	0.62300003	0.44999999
12	1	2	-0.27686501	2.2349999	2.7379999	-0.148
13	1	3	0.22259501	3.277	2.944	0.061999999
14	1	2	0.433972	1.441	3.7	-0.625
15	1	1	-0.443151	1.954	4.9749999	-0.84799999
16	1	2	-0.27686501	0.026000001	3.4000001	-0.92000002
17	1	3	0.22259501	-0.611	4.1690001	-1.3380001
18	1	2	-0.158951	-0.46799999	2.177	-0.69400001
19	1	3	0.207166	-1.498	1.999	-0.96399999
20	1	4	-0.130539	0.233	-0.80800003	1.586
21	1	4	-0.13032	0.131	0.273	2.6889999
22	1	4	-0.122608	0.114	-0.35800001	4.079
23	1	5	0.066003002	-0.78600001	-0.99800003	4.1999998
24	1	5	0.066003002	1.026	-0.972	4.2350001
25	1	5	0.066003002	0.086000003	0.44	4.8499999
26	1	5	0.087996997	1.008	0.95099998	2.6370001
27	1	5	0.087996997	-0.77399999	0.89700001	2.5769999
28	1	5	0.103596	-0.42199999	-1.665	1.862
29	1	5	0.103596	1.277	-1.191	1.624
30	1	4	-0.130539	-1.641	-0.54400003	-0.171
31	1	4	-0.13032	-2.6159999	0.114	0.824
32	1	4	-0.122608	-4.0549998	0.021	0.322
33	1	5	0.066003002	-4.164	0.56999999	-0.63800001
34	1	5	0.066003002	-4.7399998	0.47600001	1.069
35	1	5	0.066003002	-4.3449998	-1.041	0.17399999
36	1	5	0.087996997	-2.3740001	1.183	0.98199999
37	1	5	0.087996997	-2.563	-0.41	1.802
38	1	5	0.103596	-1.87	-0.20299999	-1.205
39	1	5	0.103596	-1.869	-1.6339999	-0.164
40	1	2	-0.15568	0.903	-0.76800001	-2.2920001
41	1	3	0.207166	0.67699999	0.25299999	-2.5699999
42	1	2	-0.324862	1.449	-1.569	-3.2130001
43	1	3	0.222394	1.668	-1.1849999	-4.2020001
44	1	2	0.62678999	1.351	5.7449999	-1.225
45	1	6	-0.50634199	1.852	6.8070002	-1.556
46	1	1	-0.029348999	2.5280001	-4.77	-3.688
47	1	2	0.271696	1.663	-5.585	-2.96
48	1	2	-0.324862	0.51700002	-5.1020002	-2.4619999
49	1	3	0.222394	0.249	-4.0640001	-2.6129999
50	1	2	-0.15568	-0.38999999	-5.9780002	-1.693
51	1	3	0.207166	-1.271	-5.5209999	-1.266
52	1	2	-0.25739899	-0.115	-7.2940001	-1.522
53	1	4	0.026458001	-1.0190001	-8.2139997	-0.66299999
54	1	2	-0.25739899	-0.86900002	-9.6599998	-1.196
55	1	2	-0.114434	-1.285	-9.948	-2.4519999
56	1	3	0.207166	-1.745	-9.1879997	-3.0699999
57	1	2	-0.41571999	-1.131	-11.302	-3.0190001
58	1	3	0.227457	-1.502	-11.508	-4.0149999
59	1	2	0.42477599	-0.53399998	-12.264	-2.3110001
60	1	7	-0.65156001	-0.39500001	-13.539	-2.8529999
61	1	8	0.43234399	0.056000002	-14.283	-2.3340001
62	1	2	-0.41571999	-0.02	-11.964	-0.95999998
63	1	3	0.227457	0.493	-12.733	-0.396
64	1	2	-0.114434	-0.16500001	-10.741	-0.43599999
65	1	3	0.207166	0.26300001	-10.563	0.53799999
66	1	4	-0.130539	-2.5280001	-7.756	-0.76899999
67	1	4	-0.13032	-3.6010001	-8.8369999	-0.49399999
68	1	4	-0.122608	-4.9710002	-8.2060003	-0.25799999
69	1	5	0.066003002	-4.9489999	-7.566	0.64899999
70	1	5	0.066003002	-5.2690001	-7.592	-1.135
71	1	5	0.066003002	-5.7280002	-9.0050001	-0.11
72	1	5	0.087996997	-3.687	-9.5150003	-1.369
73	1	5	0.087996997	-3.348	-9.4610004	0.38100001
74	1	5	0.103596	-2.697	-6.9000001	-0.079000004
75	1	5	0.103596	-2.73	-7.3730001	-1.794
76	1	4	-0.130539	-0.498	-8.0209999	0.80400002
77	1	4	-0.13032	-1.326	-8.6780005	1.925
78	1	4	-0.122608	-0.60399997	-8.5860004	3.266
79	1	5	0.066003002	0.36199999	-9.1339998	3.2219999
80	1	5	0.066003002	-1.233	-9.04	4.0599999
81	1	5	0.066003002	-0.41100001	-7.5240002	3.529
82	1	5	0.087996997	-1.52	-9.7469997	1.71
83	1	5	0.087996997	-2.3010001	-8.1549997	2.026
84	1	5	0.103596	0.55900002	-8.3610001	0.86799997
85	1	5	0.103596	-0.46799999	-6.9310002	1.031
86	1	2	-0.15568	1.196	-7.7969999	-2.0420001
87	1	3	0.207166	1.506	-8.8170004	-1.863
88	1	2	-0.324862	2.02	-6.9949999	-2.727
89	1	3	0.222394	2.961	-7.3790002	-3.098
90	1	2	0.46628901	0.28	5.598	-1.319
91	1	6	-0.58550298	-0.20999999	4.5089998	-1.072
92	1	9	-0.089441001	-0.74599999	6.927	-1.8279999

Bonds

1	1	1	2
2	2	1	46
3	3	2	3
4	3	2	42
5	4	3	4
6	3	3	5
7	4	5	6
8	3	5	7
9	5	7	8
10	3	7	40
11	5	8	9
12	6	8	20
13	6	8	30
14	3	9	10
15	3	9	18
16	4	10	11
17	3	10	12
18	4	12	13
19	3	12	14
20	1	14	15
21	3	14	16
22	7	15	44
23	4	16	17
24	3	16	18
25	4	18	19
26	6	20	21
27	8	20	28
28	8	20	29
29	6	21	22
30	8	21	26
31	8	21	27
32	8	22	23
33	8	22	24
34	8	22	25
35	6	30	31
36	8	30	38
37	8	30	39
38	6	31	32
39	8	31	36
40	8	31	37
41	8	32	33
42	8	32	34
43	8	32	35
44	4	40	41
45	3	40	42
46	4	42	43
47	9	44	45
48	10	44	90
49	1	46	47
50	3	47	48
51	3	47	88
52	4	48	49
53	3	48	50
54	4	50	51
55	3	50	52
56	5	52	53
57	3	52	86
58	5	53	54
59	6	53	66
60	6	53	76
61	3	54	55
62	3	54	64
63	4	55	56
64	3	55	57
65	4	57	58
66	3	57	59
67	11	59	60
68	3	59	62
69	12	60	61
70	4	62	63
71	3	62	64
72	4	64	65
73	6	66	67
74	8	66	74
75	8	66	75
76	6	67	68
77	8	67	72
78	8	67	73
79	8	68	69
80	8	68	70
81	8	68	71
82	6	76	77
83	8	76	84
84	8	76	85
85	6	77	78
86	8	77	82
87	8	77	83
88	8	78	79
89	8	78	80
90	8	78	81
91	4	86	87
92	3	86	88
93	4	88	89
94	9	90	91
95	13	90	92

Angles

1	6	23	22	25
2	3	6	5	7
3	4	20	21	27
4	1	44	90	92
5	6	38	30	39
6	3	49	48	50
7	3	87	86	88
8	1	55	54	64
9	6	74	66	75
10	4	52	53	66
11	3	47	88	89
12	1	12	14	16
13	3	41	40	42
14	3	63	62	64
15	1	54	55	57
16	4	54	53	66
17	3	14	16	17
18	4	32	31	36
19	3	48	50	51
20	3	86	88	89
21	6	79	78	80
22	1	1	2	3
23	1	1	2	42
24	1	9	18	16
25	4	68	67	72
26	4	20	8	30
27	1	2	42	40
28	1	53	54	64
29	4	9	8	30
30	1	8	7	40
31	1	53	52	86
32	3	16	18	19
33	3	62	64	65
34	4	53	76	84
35	4	7	8	20
36	3	11	10	12
37	4	8	30	31
38	6	33	32	34
39	4	53	66	67
40	1	14	16	18
41	4	32	31	37
42	6	34	32	35
43	3	3	5	6
44	1	48	50	52
45	4	21	22	23
46	3	40	42	43
47	1	47	88	86
48	4	8	30	39
49	4	67	68	69
50	4	66	67	72
51	6	84	76	85
52	4	77	78	81
53	3	13	12	14
54	1	8	9	18
55	1	3	2	42
56	4	53	76	85
57	3	2	3	4
58	4	66	67	68
59	6	33	32	35
60	1	3	5	7
61	1	45	44	90
62	3	56	55	57
63	4	76	77	82
64	4	31	30	39
65	4	21	22	24
66	4	67	68	70
67	4	8	20	28
68	1	15	44	90
69	3	59	62	63
70	4	76	77	78
71	3	58	57	59
72	4	77	76	84
73	4	53	76	77
74	4	31	32	33
75	1	50	52	53
76	1	15	14	16
77	3	51	50	52
78	6	26	21	27
79	6	72	67	73
80	3	52	86	87
81	4	8	20	29
82	1	8	9	10
83	3	7	40	41
84	1	91	90	92
85	3	17	16	18
86	1	59	62	64
87	1	57	59	60
88	4	78	77	82
89	4	66	53	76
90	6	79	78	81
91	6	69	68	70
92	4	77	76	85
93	4	31	32	34
94	4	68	67	73
95	6	70	68	71
96	2	2	1	46
97	3	54	64	65
98	4	9	8	20
99	4	8	20	21
100	1	7	40	42
101	2	14	15	44
102	1	50	52	86
103	6	82	77	83
104	6	24	22	25
105	4	78	77	83
106	6	69	68	71
107	6	36	31	37
108	4	66	67	73
109	3	10	12	13
110	4	21	20	28
111	4	7	8	9
112	4	20	21	26
113	1	44	90	91
114	1	2	3	5
115	4	30	31	32
116	5	15	44	45
117	6	28	20	29
118	4	52	53	76
119	4	76	77	83
120	4	20	21	22
121	4	21	22	25
122	2	59	60	61
123	1	12	14	15
124	4	67	68	71
125	3	9	18	19
126	4	54	53	76
127	3	54	55	56
128	4	21	20	29
129	3	47	48	49
130	1	46	47	88
131	4	53	66	74
132	4	77	78	79
133	2	1	46	47
134	4	31	30	38
135	4	7	8	30
136	1	10	9	18
137	3	55	57	58
138	4	22	21	26
139	1	52	86	88
140	6	80	78	81
141	1	46	47	48
142	3	9	10	11
143	4	67	66	74
144	1	47	48	50
145	4	31	32	35
146	4	30	31	36
147	4	53	66	75
148	4	77	78	80
149	3	4	3	5
150	6	23	22	24
151	1	60	59	62
152	1	55	57	59
153	4	22	21	27
154	1	53	54	55
155	1	5	7	8
156	1	9	10	12
157	4	67	66	75
158	1	54	64	62
159	1	57	59	62
160	4	8	30	38
161	4	30	31	37
162	4	52	53	54
163	1	5	7	40
164	1	10	12	14
165	3	2	42	43
166	1	48	47	88

Dihedrals

1	1	50	52	86	87
2	9	68	67	66	75
3	1	4	3	2	42
4	12	23	22	21	27
5	1	55	54	64	65
6	9	76	77	78	81
7	9	8	20	21	26
8	1	51	50	52	86
9	5	54	53	76	85
10	1	3	2	42	43
11	5	54	53	66	74
12	12	37	31	30	38
13	1	7	40	42	43
14	1	8	9	10	11
15	5	9	8	20	28
16	4	5	7	8	9
17	9	32	31	30	39
18	5	52	53	66	75
19	4	18	9	8	20
20	9	30	31	32	35
21	12	27	21	20	29
22	9	20	8	30	38
23	1	48	47	88	86
24	2	42	2	1	46
25	5	52	53	76	77
26	6	8	20	21	22
26	7	8	20	21	22
26	8	8	20	21	22
27	12	71	68	67	72
28	1	53	52	86	87
29	1	50	52	86	88
30	1	53	54	55	56
31	1	58	57	59	62
32	4	30	8	7	40
33	1	56	55	54	64
34	1	10	9	18	19
35	5	7	8	20	29
36	13	57	59	60	61
37	1	1	2	3	5
38	1	3	5	7	40
39	12	27	21	20	28
40	9	22	21	20	29
41	12	70	68	67	72
42	1	13	12	14	16
43	9	28	20	8	30
44	1	55	54	64	62
45	4	5	7	8	30
46	11	45	44	90	91
47	4	66	53	52	86
48	4	64	54	53	66
49	12	69	68	67	73
50	4	9	8	7	40
51	1	53	54	64	65
52	1	4	3	5	6
53	2	16	14	15	44
54	5	52	53	66	67
55	2	12	14	15	44
56	12	83	77	76	84
57	5	9	8	30	31
58	11	15	44	90	91
59	1	3	2	42	40
60	12	35	32	31	37
61	1	53	52	86	88
62	1	5	3	2	42
63	9	66	67	68	69
64	4	10	9	8	20
65	12	80	78	77	83
66	1	56	55	57	59
67	1	46	47	48	49
68	1	48	50	52	53
69	12	72	67	66	74
70	5	9	8	20	21
71	1	4	3	5	7
72	1	10	9	18	16
73	12	83	77	76	85
74	6	20	8	30	31
74	7	20	8	30	31
74	8	20	8	30	31
75	1	41	40	42	43
76	4	76	53	52	86
77	1	46	47	88	89
78	1	3	5	7	8
79	1	53	54	64	62
80	9	78	77	76	85
81	12	25	22	21	26
82	9	20	21	22	23
83	1	60	59	62	64
84	9	75	66	53	76
85	11	15	44	90	92
86	1	55	57	59	60
87	4	50	52	53	66
88	1	17	16	18	19
89	12	72	67	66	75
90	1	54	64	62	63
91	12	26	21	20	28
92	4	52	53	54	55
93	5	7	8	30	38
94	12	36	31	30	39
95	9	8	20	21	27
96	12	33	32	31	36
97	4	7	8	9	18
98	5	54	53	66	75
99	1	48	50	52	86
100	1	8	9	10	12
101	5	9	8	20	29
102	12	73	67	66	74
103	1	54	64	62	59
104	9	66	53	76	84
105	3	2	1	46	47
106	1	2	42	40	41
107	12	25	22	21	27
108	9	20	21	22	24
109	4	55	54	53	76
110	12	34	32	31	36
111	1	57	55	54	64
112	1	1	2	42	43
113	1	10	12	14	15
114	12	71	68	67	73
115	1	8	7	40	41
116	1	9	10	12	13
117	2	14	15	44	45
118	9	29	20	8	30
119	1	53	54	55	57
120	1	46	47	88	86
121	12	70	68	67	73
122	1	14	16	18	19
123	4	20	8	7	40
124	1	63	62	64	65
125	5	9	8	30	39
126	9	32	31	30	38
127	11	45	44	90	92
128	5	54	53	66	67
129	4	5	7	8	20
130	9	66	53	76	85
131	4	50	52	53	54
132	1	5	7	40	41
133	9	76	77	78	79
134	13	61	60	59	62
135	2	3	2	1	46
136	1	8	7	40	42
137	1	9	10	12	14
138	1	54	55	57	58
139	12	37	31	30	39
140	4	7	8	9	10
141	9	66	67	68	70
142	1	47	48	50	51
143	12	82	77	76	84
144	1	15	14	16	18
145	9	30	31	32	33
146	1	9	18	16	17
147	5	7	8	30	31
148	1	15	14	16	17
149	1	51	50	52	53
150	9	74	66	53	76
151	12	79	78	77	83
152	1	12	10	9	18
153	9	20	8	30	39
154	1	49	48	50	51
155	12	79	78	77	82
156	1	46	47	48	50
157	1	1	2	42	40
158	12	24	22	21	26
159	4	52	53	54	64
160	1	58	57	59	60
161	1	11	10	12	13
162	6	53	76	77	78
162	7	53	76	77	78
162	8	53	76	77	78
163	6	66	53	76	77
163	7	66	53	76	77
163	8	66	53	76	77
164	12	23	22	21	26
165	4	54	53	52	86
166	9	76	77	78	80
167	1	59	62	64	65
168	5	54	53	76	84
169	6	8	30	31	32
169	7	8	30	31	32
169	8	8	30	31	32
170	9	53	66	67	72
171	4	18	9	8	30
172	1	8	9	18	19
173	1	47	48	50	52
174	9	30	31	32	34
175	6	67	66	53	76
175	7	67	66	53	76
175	8	67	66	53	76
176	1	12	14	16	17
177	12	24	22	21	27
178	12	26	21	20	29
179	6	53	66	67	68
179	7	53	66	67	68
179	8	53	66	67	68
180	1	60	59	62	63
181	1	11	10	12	14
182	5	7	8	20	28
183	1	1	2	3	4
184	1	9	18	16	14
185	9	22	21	20	28
186	1	47	88	86	87
187	1	13	12	14	15
188	12	33	32	31	37
189	4	64	54	53	76
190	9	53	66	67	73
191	1	6	5	7	8
192	12	69	68	67	72
193	12	73	67	66	75
194	2	1	46	47	88
195	9	20	21	22	25
196	1	11	10	9	18
197	12	34	32	31	37
198	1	12	14	16	18
199	1	49	48	47	88
200	1	55	57	59	62
201	1	10	12	14	16
202	12	35	32	31	36
203	4	55	54	53	66
204	1	57	59	62	63
205	1	6	5	7	40
206	1	8	9	18	16
207	4	10	9	8	30
208	12	36	31	30	38
209	1	52	86	88	89
210	9	53	76	77	82
211	12	81	78	77	82
212	1	47	88	86	52
213	1	2	3	5	6
214	5	52	53	76	84
215	2	1	46	47	48
216	1	50	48	47	88
217	12	80	78	77	82
218	9	8	30	31	36
219	1	56	55	57	58
220	5	54	53	76	77
221	10	14	15	44	90
222	9	68	67	66	74
223	1	5	7	40	42
224	1	2	42	40	7
225	5	7	8	30	39
226	1	48	47	88	89
227	1	54	55	57	59
228	1	57	59	62	64
229	1	87	86	88	89
230	9	66	67	68	71
231	5	52	53	66	74
232	12	81	78	77	83
233	9	53	76	77	83
234	6	21	20	8	30
234	7	21	20	8	30
234	8	21	20	8	30
235	12	82	77	76	85
236	5	9	8	30	38
237	5	52	53	76	85
238	1	2	3	5	7
239	9	78	77	76	84
240	5	7	8	20	21
241	4	50	52	53	76
242	1	49	48	50	52
243	9	8	30	31	37

Impropers

6	1	86	52	87	88
9	1	59	62	57	60
18	1	47	46	48	88
26	1	16	14	17	18
29	1	14	12	15	16
40	1	7	40	5	8
45	1	14	15	16	12
46	1	50	51	52	48
49	1	40	41	42	7
51	1	57	58	59	55
74	1	64	65	54	62
85	1	12	13	14	10
90	1	18	19	9	16
96	1	2	1	3	42
104	1	5	3	6	7
105	1	52	53	86	50
111	1	57	59	55	58
112	1	62	63	64	59
117	2	44	90	15	45
119	1	12	10	13	14
137	1	7	8	40	5
139	1	90	91	92	44
140	1	16	17	18	14
142	1	18	16	19	9
156	1	88	86	89	47
158	1	54	53	55	64
168	1	3	5	2	4
178	1	50	48	51	52
181	1	40	7	41	42
187	1	52	86	50	53
196	1	9	18	8	10
201	1	16	18	14	17
204	1	59	60	62	57
209	1	47	88	46	48
221	1	9	8	10	18
252	1	62	59	63	64
254	1	18	9	16	19
262	1	2	42	1	3
263	1	47	48	88	46
274	1	88	47	86	89
282	1	90	92	44	91
284	1	5	6	7	3
289	1	52	50	53	86
299	1	5	7	3	6
305	1	88	89	47	86
319	1	9	10	18	8
320	2	44	15	45	90
321	1	55	57	54	56
325	2	44	45	90	15
330	1	7	5	8	40
332	1	40	42	7	41
338	1	57	55	58	59
342	1	12	14	10	13
344	1	3	4	5	2
348	1	10	12	9	11
351	1	10	9	11	12
352	1	10	11	12	9
359	1	42	2	40	43
363	1	55	56	57	54
375	1	90	44	91	92
386	1	64	62	65	54
397	1	62	64	59	63
407	1	48	50	47	49
418	1	2	3	42	1
422	1	54	64	53	55
427	1	42	40	43	2
430	1	59	57	60	62
433	1	50	52	48	51
444	1	14	16	12	15
446	1	42	43	2	40
449	1	86	88	52	87
457	1	48	49	50	47
464	1	55	54	56	57
475	1	64	54	62	65
476	1	86	87	88	52
483	1	3	2	4	5
484	1	54	55	64	53
492	1	48	47	49	50
