Title

96 atoms
101 bonds
164 angles
243 dihedrals
120 impropers

12 atom types
17 bond types
10 angle types
22 dihedral types
3 improper types
-13.71399975 86.28600025 xlo xhi
-7.385000229 92.61499977 ylo yhi
-5.004000187 94.99599981 zlo zhi
0.0 0.0 0.0 xy xz yz

Masses

1	12.01078
2	15.99943
3	14.00672
4	1.007947
5	12.01078
6	1.007947
7	1.007947
8	15.99943
9	1.007947
10	12.01078
11	15.99943
12	1.007947


Pair Coeffs

1	0.086879315	3.4806469
2	0.2102061	3.0398122
3	0.16769152	3.206876
4	0.015611343	2.5725815
5	0.10884061	3.3795318
6	0.014090815	1.1034277
7	0.015779483	2.6445434
8	0.16846514	3.0251065
9	0.016409246	2.5832257
10	0.21	3.3996695
11	0.20947353	2.99716
12	1.2326e-05	0.53453923

Bond Coeffs

1 harmonic	582.698766451	1.225198386222
2 harmonic	492.76746816345	1.381897776683
3 harmonic	279.1350963404	1.454628925034
4 harmonic	390.03554688505	1.390160554689
5 harmonic	505.144496193	1.019481865027
6 harmonic	360.7852444772	1.387193227181
7 harmonic	397.2545789619	1.085358495916
8 harmonic	289.73813263395	1.498646816465
9 harmonic	370.04670688625	1.093899492634
10 harmonic	301.15400723785	1.345741232799
11 harmonic	366.7408841747	1.425895053732
12 harmonic	445.3060766333	1.328776712165
13 harmonic	300.03137914615	1.451203938761
14 harmonic	382.5450169811	1.379244394267
15 harmonic	602.81384337	1.196112346392
16 harmonic	329.96998057905	1.427343958716
17 harmonic	543.5267831885	0.9716763312559


Angle Coeffs

1 harmonic	55.42182150775	117.3465570514
2 harmonic	63.44422595415	115.5071327674
3 harmonic	57.8982893754	126.8062420451
4 harmonic	34.066775159195	129.1835929926
5 harmonic	53.20531626545	116.5475862634
6 harmonic	65.09061609600001	110.3538806181
7 harmonic	201.41175231035	127.4691416191
8 harmonic	48.776492647595	115.6030999533
9 harmonic	55.07882548015	112.8714009681
10 harmonic	33.56981613361	180


Dihedral Coeffs

1 fourier 1	1.193093382682	2	180
2 fourier 1	1.809047390003	2	180
3 fourier 1	-0.04816277792592	1	0
4 fourier 1	3.101948770557	2	180
5 fourier 1	-0.4252153282372	1	0
6 fourier 1	2.348375642009	2	180
7 fourier 1	1.256156174911	1	0
8 fourier 1	0.9974165607242	2	180
9 fourier 1	3.661930099076	2	180
10 fourier 1	0.02664938770063	3	0
11 fourier 1	2.779853741805	2	180
12 fourier 1	0.0473758381877	3	0
13 fourier 1	0.4860993122944	2	180
14 fourier 1	0.8916986138746	1	0
15 fourier 1	1.163809172478	2	180
16 fourier 1	0.1679186987369	1	180
17 fourier 1	3.731869940596	2	180
18 fourier 1	5.913282223828	2	180
19 fourier 1	0.457973137376	1	0
20 fourier 1	1.550515418264	2	180
21 fourier 1	0	1	0
22 fourier 1	0.3026390167484	3	0


Improper Coeffs

1 0.3333333333333333	-1	2
2 0.3666666666666667	-1	2
3 3.5	-1	2


Atoms

1	1	1	0.57530302	5.5349998	-0.74699998	1.5319999
2	1	2	-0.58573997	5.362	0.024	2.513
3	1	3	-0.503016	4.6830001	-0.69	0.382
4	1	1	0.215446	3.4579999	0.059999999	0.31900001
5	1	1	-0.368476	3.0510001	0.56800002	-0.85600001
6	1	4	0.22627699	3.651	0.43599999	-1.748
7	1	1	-0.131162	1.788	1.33	-0.949
8	1	4	0.224195	1.4859999	1.73	-1.909
9	1	1	-0.236608	1.028	1.518	0.14300001
10	1	5	-0.047798999	-0.28	2.257	0.052000001
11	1	1	-0.236608	-1.397	1.299	-0.25999999
12	1	1	-0.131162	-1.729	1.021	-1.5319999
13	1	4	0.224195	-1.214	1.502	-2.355
14	1	1	-0.35662901	-2.799	0.046	-1.8279999
15	1	4	0.22627699	-3.056	-0.154	-2.8610001
16	1	1	0.23942301	-3.4289999	-0.60000002	-0.833
17	1	3	-0.46520099	-4.474	-1.538	-1.145
18	1	1	0.81715	-4.776	-2.697	-0.359
19	1	2	-0.54584098	-4.0100002	-3.0810001	0.56300002
20	1	6	0.330477	-5.0029998	-1.419	-2.0380001
21	1	1	-0.35662901	-3.0680001	-0.28400001	0.574
22	1	4	0.22627699	-3.598	-0.74699998	1.396
23	1	1	-0.131162	-2.105	0.60600001	0.84200001
24	1	4	0.224195	-1.855	0.829	1.872
25	1	7	0.13096	-0.486	2.7709999	1.015
26	1	7	0.13096	-0.223	3.0550001	-0.722
27	1	1	-0.131162	1.45	0.921	1.433
28	1	4	0.224195	0.824	1.028	2.3099999
29	1	1	-0.368476	2.5940001	0.23100001	1.517
30	1	4	0.22627699	2.862	-0.227	2.4590001
31	1	6	0.326689	5.0229998	-1.169	-0.48300001
32	1	8	-0.48471099	-5.6240001	-3.2539999	-0.57800001
33	1	5	0.176806	-5.7350001	-3.2839999	-1.974
34	1	1	0.22204401	-6.2670002	-1.976	-2.4749999
35	1	3	-0.63810402	-7.5539999	-1.795	-2.5739999
36	1	1	0.263037	-8.118	-0.546	-3.017
37	1	5	0.07999	-9.6059999	-0.39300001	-3.0869999
38	1	8	-0.10553	-10.062	0.244	-1.927
39	1	9	0.116087	-10.076	-1.397	-3.175
40	1	9	0.116087	-9.8850002	0.204	-3.9849999
41	1	1	-0.33167499	-7.3049998	0.48300001	-3.3080001
42	1	4	0.224929	-7.7059999	1.439	-3.622
43	1	1	-0.134225	-5.8439999	0.30899999	-3.1919999
44	1	4	0.23597801	-5.1820002	1.133	-3.425
45	1	1	-0.33881399	-5.3439999	-0.86400002	-2.7920001
46	1	4	0.224778	-4.2729998	-0.99400002	-2.6989999
47	1	9	0.099660002	-4.7480001	-3.507	-2.441
48	1	9	0.099660002	-6.4289999	-4.1030002	-2.26
49	1	1	0.57530302	6.368	-1.437	1.544
50	1	2	-0.58573997	6.388	-2.3900001	0.722
51	1	3	-0.503016	7.4499998	-1.219	2.46
52	1	1	0.215446	8.54	-2.135	2.668
53	1	1	-0.368476	8.3599997	-3.4690001	2.635
54	1	4	0.22627699	7.3829999	-3.8970001	2.4590001
55	1	1	-0.131162	9.4940004	-4.382	2.888
56	1	4	0.224195	9.323	-5.4510002	2.859
57	1	1	-0.236608	10.715	-3.8900001	3.1589999
58	1	5	-0.047798999	11.866	-4.8099999	3.46
59	1	1	-0.250386	11.912	-5.1230001	4.9310002
60	1	1	-0.176788	12.587	-4.3309999	5.7820001
61	1	4	0.210802	13.132	-3.4679999	5.4190001
62	1	1	-0.245324	12.591	-4.6220002	7.23
63	1	4	0.21773	13.153	-3.9690001	7.8860002
64	1	1	0.4465	11.905	-5.6789999	7.7150002
65	1	3	-0.306115	11.875	-6.0050001	9.1140003
66	1	10	0.61711502	12.482	-5.3439999	10.018
67	1	2	-0.247271	13.072	-4.7020001	10.897
68	1	1	-0.245324	11.15	-6.539	6.777
69	1	4	0.21773	10.59	-7.3850002	7.1550002
70	1	1	-0.176788	11.15	-6.277	5.4640002
71	1	4	0.210802	10.588	-6.9130001	4.7919998
72	1	7	0.13096	11.77	-5.7529998	2.8770001
73	1	7	0.13096	12.821	-4.3400002	3.1359999
74	1	1	-0.131162	10.906	-2.4219999	3.233
75	1	4	0.224195	11.878	-2.0120001	3.4760001
76	1	1	-0.368476	9.8789997	-1.595	3.0039999
77	1	4	0.22627699	10.03	-0.52499998	3.0610001
78	1	6	0.326689	7.4949999	-0.287	2.9289999
79	1	8	-0.10553	-11.047	0.31999999	-2.0250001
80	1	5	0.079989001	-11.306	0.44	-3.3970001
81	1	1	0.265506	-10.987	1.829	-3.8599999
82	1	3	-0.63361299	-11.902	2.757	-3.8069999
83	1	1	0.21295901	-11.638	4.1139998	-4.2080002
84	1	5	0.15015601	-12.725	5.1389999	-4.1020002
85	1	11	-0.66438699	-12.572	5.8559999	-2.9100001
86	1	12	0.40168101	-13.312	6.5170002	-2.8900001
87	1	9	0.096146002	-13.714	4.6290002	-4.1100001
88	1	9	0.096146002	-12.682	5.8309999	-4.9720001
89	1	1	-0.33216301	-10.405	4.4580002	-4.618
90	1	4	0.224929	-10.176	5.4780002	-4.9029999
91	1	1	-0.132393	-9.3479996	3.431	-4.6739998
92	1	4	0.23597801	-8.3520002	3.6989999	-5.0040002
93	1	1	-0.33167499	-9.6199999	2.174	-4.3109999
94	1	4	0.224929	-8.8450003	1.418	-4.3439999
95	1	9	0.116087	-10.714	-0.30700001	-3.973
96	1	9	0.116087	-12.38	0.22400001	-3.5780001

Bonds

1	1	1	2
2	2	1	3
3	3	1	49
4	4	3	4
5	5	3	31
6	6	4	5
7	6	4	29
8	7	5	6
9	6	5	7
10	7	7	8
11	6	7	9
12	8	9	10
13	6	9	27
14	8	10	11
15	9	10	25
16	9	10	26
17	6	11	12
18	6	11	23
19	7	12	13
20	6	12	14
21	7	14	15
22	6	14	16
23	4	16	17
24	6	16	21
25	2	17	18
26	5	17	20
27	1	18	19
28	10	18	32
29	7	21	22
30	6	21	23
31	7	23	24
32	7	27	28
33	6	27	29
34	7	29	30
35	11	32	33
36	8	33	34
37	9	33	47
38	9	33	48
39	12	34	35
40	6	34	45
41	12	35	36
42	8	36	37
43	6	36	41
44	11	37	38
45	9	37	39
46	9	37	40
47	13	38	79
48	7	41	42
49	6	41	43
50	7	43	44
51	6	43	45
52	7	45	46
53	1	49	50
54	2	49	51
55	4	51	52
56	5	51	78
57	6	52	53
58	6	52	76
59	7	53	54
60	6	53	55
61	7	55	56
62	6	55	57
63	8	57	58
64	6	57	74
65	8	58	59
66	9	58	72
67	9	58	73
68	6	59	60
69	6	59	70
70	7	60	61
71	6	60	62
72	7	62	63
73	6	62	64
74	14	64	65
75	6	64	68
76	15	65	66
77	1	66	67
78	7	68	69
79	6	68	70
80	7	70	71
81	7	74	75
82	6	74	76
83	7	76	77
84	11	79	80
85	8	80	81
86	9	80	95
87	9	80	96
88	12	81	82
89	6	81	93
90	12	82	83
91	8	83	84
92	6	83	89
93	16	84	85
94	9	84	87
95	9	84	88
96	17	85	86
97	7	89	90
98	6	89	91
99	7	91	92
100	6	91	93
101	7	93	94

Angles

1	4	90	89	91
2	3	4	5	7
3	3	37	36	41
4	4	28	27	29
5	3	3	1	49
6	5	32	33	47
7	3	7	9	27
8	3	35	36	37
9	6	38	79	80
10	2	4	3	31
11	3	1	49	50
12	4	16	21	22
13	5	36	37	39
14	2	18	17	20
15	4	61	60	62
16	4	6	5	7
17	3	52	53	55
18	4	4	29	30
19	3	3	4	29
20	5	59	58	72
21	3	82	81	93
22	4	75	74	76
23	3	5	4	29
24	5	57	58	59
25	3	41	43	45
26	4	22	21	23
27	5	85	84	88
28	3	59	60	62
29	6	18	32	33
30	3	3	4	5
31	3	51	52	76
32	8	87	84	88
33	3	57	74	76
34	3	52	76	74
35	3	35	34	45
36	5	59	58	73
37	3	62	64	68
38	1	1	3	4
39	9	34	35	36
40	4	53	55	56
41	3	12	11	23
42	3	17	18	19
43	5	79	80	95
44	3	89	91	93
45	4	60	62	63
46	5	11	10	25
47	3	4	29	27
48	4	11	23	24
49	4	91	93	94
50	4	83	89	90
51	3	65	64	68
52	3	55	57	58
53	5	34	33	47
54	3	82	83	84
55	3	2	1	49
56	5	83	84	85
57	4	69	68	70
58	3	55	57	74
59	5	57	58	72
60	5	38	37	40
61	3	80	81	93
62	4	54	53	55
63	3	33	34	35
64	3	34	45	43
65	3	60	62	64
66	3	58	59	60
67	8	47	33	48
68	8	39	37	40
69	4	44	43	45
70	4	92	91	93
71	5	32	33	48
72	3	51	52	53
73	5	34	33	48
74	4	56	55	57
75	3	1	49	51
76	3	16	21	23
77	3	17	18	32
78	5	36	37	40
79	3	11	23	21
80	1	16	17	18
81	4	59	70	71
82	4	5	7	8
83	5	81	80	95
84	5	9	10	25
85	3	10	11	23
86	4	27	29	30
87	4	15	14	16
88	4	43	45	46
89	4	63	62	64
90	4	64	68	69
91	3	10	9	27
92	2	49	51	78
93	4	36	41	42
94	4	11	12	13
95	3	5	7	9
96	4	9	27	28
97	4	12	14	15
98	5	9	10	26
99	3	60	59	70
100	3	14	16	21
101	3	53	55	57
102	4	81	93	94
103	6	37	38	79
104	3	64	68	70
105	5	79	80	96
106	3	82	83	89
107	3	59	70	68
108	3	80	81	82
109	5	11	10	26
110	4	4	5	6
111	10	65	66	67
112	9	81	82	83
113	6	84	85	86
114	3	58	59	70
115	3	14	16	17
116	3	62	64	65
117	4	42	41	43
118	8	72	58	73
119	3	83	89	91
120	3	50	49	51
121	3	9	27	29
122	5	79	80	81
123	3	12	14	16
124	3	2	1	3
125	8	25	10	26
126	5	57	58	73
127	3	33	34	45
128	7	19	18	32
129	3	17	16	21
130	4	52	53	54
131	3	10	11	12
132	3	53	52	76
133	3	81	93	91
134	3	84	83	89
135	9	64	65	66
136	5	83	84	87
137	4	52	76	77
138	4	68	70	71
139	4	13	12	14
140	4	41	43	44
141	5	85	84	87
142	4	59	60	61
143	5	32	33	34
144	4	57	74	75
145	5	81	80	96
146	1	49	51	52
147	4	89	91	92
148	4	74	76	77
149	5	83	84	88
150	3	36	41	43
151	3	11	12	14
152	2	52	51	78
153	2	16	17	20
154	8	95	80	96
155	5	9	10	11
156	4	34	45	46
157	3	58	57	74
158	4	21	23	24
159	3	7	9	10
160	5	36	37	38
161	5	38	37	39
162	4	8	7	9
163	3	35	36	41
164	2	1	3	31

Dihedrals

1	12	40	37	38	79
2	10	9	10	11	12
3	1	1	3	4	5
4	9	11	12	14	15
5	9	17	16	21	22
6	9	81	93	91	92
7	10	7	9	10	26
8	22	86	85	84	87
9	9	56	55	57	58
10	10	88	84	83	89
11	9	13	12	11	23
12	9	60	59	70	71
13	9	65	64	68	69
14	10	35	36	37	38
15	9	56	55	57	74
16	9	62	60	59	70
17	17	80	81	82	83
18	9	54	53	52	76
19	21	64	65	66	67
20	9	90	89	91	93
21	12	18	32	33	47
22	9	58	57	74	75
23	8	3	1	49	51
24	9	52	76	74	75
25	9	58	59	60	62
26	10	7	9	10	11
27	9	10	11	12	14
28	9	10	9	27	28
29	2	31	3	1	49
29	3	31	3	1	49
30	4	50	49	51	52
30	5	50	49	51	52
31	9	17	16	21	23
32	9	6	5	7	9
33	9	10	11	23	21
34	17	33	34	35	36
35	12	38	79	80	95
36	9	51	52	76	77
37	9	9	27	29	30
38	10	82	81	80	95
39	10	60	59	58	72
40	9	5	7	9	27
41	10	35	36	37	39
42	9	12	11	23	24
43	10	82	83	84	87
44	12	18	32	33	48
45	9	81	93	91	89
46	9	59	60	62	64
47	9	3	4	5	6
48	9	51	52	53	55
49	9	14	16	21	23
50	9	60	59	70	68
51	9	52	53	55	56
52	1	5	4	3	31
53	9	59	70	68	64
54	18	81	82	83	89
55	9	60	62	64	65
56	9	33	34	45	43
57	18	34	35	36	41
58	6	2	1	3	31
58	7	2	1	3	31
59	9	54	53	55	56
60	9	36	41	43	44
61	9	44	43	45	46
62	10	55	57	58	59
63	10	82	83	84	88
64	18	36	35	34	45
65	9	84	83	89	91
66	9	12	14	16	21
67	12	39	37	38	79
68	9	3	4	5	7
69	9	14	12	11	23
70	10	45	34	33	47
71	9	51	52	76	74
72	9	11	23	21	22
73	9	64	68	70	71
74	9	80	81	93	94
75	9	5	4	29	30
76	2	1	49	51	52
76	3	1	49	51	52
77	9	7	5	4	29
78	9	16	21	23	24
79	17	34	35	36	37
80	10	79	80	81	93
81	1	76	52	51	78
82	10	32	33	34	35
83	9	52	53	55	57
84	10	79	80	81	82
85	9	55	57	74	76
86	9	75	74	76	77
87	9	12	14	16	17
88	10	93	81	80	96
89	10	38	37	36	41
90	9	42	41	43	44
91	9	13	12	14	15
92	9	36	41	43	45
93	1	49	51	52	53
94	9	4	29	27	9
95	9	11	12	14	16
96	22	86	85	84	88
97	10	35	34	33	47
98	9	83	89	91	92
99	9	62	64	68	69
100	9	22	21	23	24
101	9	4	5	7	8
102	9	65	64	68	70
103	9	3	4	29	30
104	10	25	10	9	27
105	10	59	58	57	74
106	9	58	57	74	76
107	9	55	53	52	76
108	9	63	62	64	68
109	9	80	81	93	91
110	9	5	4	29	27
111	9	42	41	43	45
112	9	10	9	27	29
113	9	37	36	41	42
114	9	13	12	14	16
115	9	82	81	93	94
116	6	50	49	51	78
116	7	50	49	51	78
117	1	14	16	17	18
118	10	35	34	33	48
119	2	4	3	1	49
119	3	4	3	1	49
120	12	38	79	80	96
121	9	62	64	68	70
122	9	83	89	91	93
123	9	4	5	7	9
124	10	85	84	83	89
125	10	82	81	80	96
126	9	35	34	45	46
127	4	2	1	3	4
127	5	2	1	3	4
128	9	58	59	60	61
129	10	60	59	58	73
130	10	35	36	37	40
131	1	18	17	16	21
132	9	7	9	27	28
133	2	20	17	18	32
133	3	20	17	18	32
134	9	57	74	76	77
135	9	59	70	68	69
136	10	73	58	57	74
137	22	83	84	85	86
138	13	19	18	17	20
138	14	19	18	17	20
139	12	38	79	80	81
140	9	3	4	29	27
141	9	52	76	74	57
142	10	57	58	59	60
143	9	12	11	23	21
144	11	17	18	32	33
145	9	8	7	9	10
146	9	53	52	76	77
147	12	18	32	33	34
148	9	58	59	70	71
149	8	2	1	49	50
150	9	53	55	57	58
151	10	12	11	10	25
152	10	23	11	10	25
153	20	62	64	65	66
154	9	54	53	55	57
155	9	53	55	57	74
156	9	82	81	93	91
157	10	7	9	10	25
158	10	45	34	33	48
159	9	41	43	45	46
160	10	40	37	36	41
161	9	35	36	41	42
162	10	32	33	34	45
163	10	87	84	83	89
164	9	92	91	93	94
165	9	15	14	16	21
166	10	23	11	10	26
167	9	90	89	91	92
168	10	82	83	84	85
169	8	3	1	49	50
170	10	55	57	58	72
171	9	61	60	59	70
172	10	9	10	11	23
173	2	16	17	18	19
173	3	16	17	18	19
174	1	29	4	3	31
175	10	70	59	58	72
176	9	15	14	16	17
177	9	6	5	7	8
178	9	89	91	93	94
179	9	53	52	76	74
180	9	58	59	70	68
181	9	35	36	41	43
182	18	83	82	81	93
183	19	37	38	79	80
184	10	26	10	9	27
185	9	60	62	64	68
186	9	34	45	43	44
187	9	5	7	9	10
188	9	59	60	62	63
189	9	4	29	27	28
190	9	51	52	53	54
191	9	33	34	45	46
192	10	55	57	58	73
193	9	14	16	21	22
194	1	20	17	16	21
195	9	37	36	41	43
196	10	70	59	58	73
197	9	28	27	29	30
198	20	66	65	64	68
199	9	63	62	64	65
200	9	69	68	70	71
201	9	82	83	89	90
202	9	11	23	21	16
203	9	61	60	62	63
204	12	36	37	38	79
205	9	7	9	27	29
206	15	19	18	32	33
206	16	19	18	32	33
207	10	11	10	9	27
208	9	84	83	89	90
209	1	1	3	4	29
210	2	16	17	18	32
210	3	16	17	18	32
211	1	49	51	52	76
212	17	81	82	83	84
213	9	35	34	45	43
214	9	8	7	9	27
215	10	57	58	59	70
216	2	1	49	51	78
216	3	1	49	51	78
217	10	39	37	36	41
218	10	72	58	57	74
219	1	14	16	17	20
220	9	10	11	23	24
221	1	53	52	51	78
222	9	6	5	4	29
223	9	55	57	74	75
224	9	34	45	43	41
225	10	93	81	80	95
226	9	82	83	89	91
227	8	2	1	49	51
228	9	61	60	62	64
229	10	12	11	10	26
230	9	10	11	12	13

Impropers

1	2	64	68	62	65
3	2	21	23	16	22
5	2	55	53	56	57
19	2	59	58	60	70
20	2	7	8	9	5
22	2	49	50	51	1
23	2	21	22	23	16
25	2	64	65	68	62
26	1	51	78	49	52
29	3	18	32	17	19
30	2	53	54	55	52
33	2	4	29	3	5
35	2	7	9	5	8
40	2	12	13	14	11
41	2	11	23	10	12
42	2	12	11	13	14
43	2	49	51	1	50
47	2	21	16	22	23
48	2	93	81	91	94
56	2	4	5	29	3
58	2	49	1	50	51
62	2	89	91	83	90
65	2	91	93	89	92
66	2	83	89	82	84
67	1	51	49	52	78
80	2	27	9	28	29
81	2	52	53	76	51
83	2	60	62	59	61
84	2	70	71	59	68
85	2	59	60	70	58
86	2	1	3	49	2
92	2	81	82	93	80
95	2	27	28	29	9
100	2	14	12	15	16
103	2	83	84	89	82
106	2	52	76	51	53
113	2	64	62	65	68
115	2	57	58	74	55
116	2	68	69	70	64
120	2	53	52	54	55
125	3	18	19	32	17
129	2	34	45	33	35
131	2	41	42	43	36
133	2	60	59	61	62
136	2	45	34	43	46
137	3	18	17	19	32
138	2	45	43	46	34
140	2	7	5	8	9
144	2	16	14	17	21
146	2	74	75	76	57
148	2	1	49	2	3
155	2	41	36	42	43
157	2	55	57	53	56
159	2	29	30	4	27
163	2	52	51	53	76
165	2	70	68	71	59
166	2	41	43	36	42
167	2	62	63	64	60
170	2	89	83	90	91
175	2	93	91	94	81
177	2	5	6	7	4
178	2	59	70	58	60
180	2	12	14	11	13
184	2	55	56	57	53
186	2	57	74	55	58
194	1	17	16	18	20
203	2	62	64	60	63
205	2	53	55	52	54
206	2	76	77	52	74
207	2	70	59	68	71
216	1	3	4	31	1
220	2	57	55	58	74
221	2	9	10	27	7
227	2	9	27	7	10
230	2	29	4	27	30
232	2	34	35	45	33
240	2	34	33	35	45
241	2	91	92	93	89
248	2	14	15	16	12
250	1	51	52	78	49
253	2	76	52	74	77
254	2	4	3	5	29
255	2	5	4	6	7
266	2	11	12	23	10
267	2	36	41	35	37
269	2	81	80	82	93
270	2	68	64	69	70
272	2	27	29	9	28
273	2	74	57	75	76
276	2	23	11	21	24
278	2	81	93	80	82
285	1	3	31	1	4
287	2	16	17	21	14
297	2	43	44	45	41
303	2	74	76	57	75
307	2	93	94	81	91
314	2	9	7	10	27
319	2	16	21	14	17
320	2	76	74	77	52
327	1	17	20	16	18
333	2	11	10	12	23
334	2	43	45	41	44
336	1	3	1	4	31
339	2	89	90	91	83
341	2	68	70	64	69
349	2	36	35	37	41
350	2	62	60	63	64
353	2	83	82	84	89
356	2	60	61	62	59
357	2	36	37	41	35
360	2	1	2	3	49
361	2	45	46	34	43
365	2	43	41	44	45
372	1	17	18	20	16
374	2	23	21	24	11
376	2	14	16	12	15
377	2	5	7	4	6
378	2	91	89	92	93
380	2	29	27	30	4
383	2	23	24	11	21
