Title

12000 atoms
12625 bonds
20500 angles
30375 dihedrals
15000 impropers

12 atom types
17 bond types
10 angle types
22 dihedral types
3 improper types
-15.86834275 161.3271845 xlo xhi
-16.46440046 161.5965719 ylo yhi
-16.29496389 161.0618196 zlo zhi
0.0 0.0 0.0 xy xz yz

Masses

1	12.01078
2	15.99943
3	14.00672
4	1.007947
5	12.01078
6	1.007947
7	1.007947
8	15.99943
9	1.007947
10	12.01078
11	15.99943
12	1.007947


Pair Coeffs

1	0.086879315	3.4806469
2	0.2102061	3.0398122
3	0.16769152	3.206876
4	0.015611343	2.5725815
5	0.10884061	3.3795318
6	0.014090815	1.1034277
7	0.015779483	2.6445434
8	0.16846514	3.0251065
9	0.016409246	2.5832257
10	0.21	3.3996695
11	0.20947353	2.99716
12	1.2326e-05	0.53453923

Bond Coeffs

1 harmonic	582.698766451	1.225198386222
2 harmonic	492.76746816345	1.381897776683
3 harmonic	279.1350963404	1.454628925034
4 harmonic	390.03554688505	1.390160554689
5 harmonic	505.144496193	1.019481865027
6 harmonic	360.7852444772	1.387193227181
7 harmonic	397.2545789619	1.085358495916
8 harmonic	289.73813263395	1.498646816465
9 harmonic	370.04670688625	1.093899492634
10 harmonic	301.15400723785	1.345741232799
11 harmonic	366.7408841747	1.425895053732
12 harmonic	445.3060766333	1.328776712165
13 harmonic	300.03137914615	1.451203938761
14 harmonic	382.5450169811	1.379244394267
15 harmonic	602.81384337	1.196112346392
16 harmonic	329.96998057905	1.427343958716
17 harmonic	543.5267831885	0.9716763312559


Angle Coeffs

1 harmonic	55.42182150775	117.3465570514
2 harmonic	63.44422595415	115.5071327674
3 harmonic	57.8982893754	126.8062420451
4 harmonic	34.066775159195	129.1835929926
5 harmonic	53.20531626545	116.5475862634
6 harmonic	65.09061609600001	110.3538806181
7 harmonic	201.41175231035	127.4691416191
8 harmonic	48.776492647595	115.6030999533
9 harmonic	55.07882548015	112.8714009681
10 harmonic	33.56981613361	180


Dihedral Coeffs

1 fourier 1	1.193093382682	2	180
2 fourier 1	1.809047390003	2	180
3 fourier 1	-0.04816277792592	1	0
4 fourier 1	3.101948770557	2	180
5 fourier 1	-0.4252153282372	1	0
6 fourier 1	2.348375642009	2	180
7 fourier 1	1.256156174911	1	0
8 fourier 1	0.9974165607242	2	180
9 fourier 1	3.661930099076	2	180
10 fourier 1	0.02664938770063	3	0
11 fourier 1	2.779853741805	2	180
12 fourier 1	0.0473758381877	3	0
13 fourier 1	0.4860993122944	2	180
14 fourier 1	0.8916986138746	1	0
15 fourier 1	1.163809172478	2	180
16 fourier 1	0.1679186987369	1	180
17 fourier 1	3.731869940596	2	180
18 fourier 1	5.913282223828	2	180
19 fourier 1	0.457973137376	1	0
20 fourier 1	1.550515418264	2	180
21 fourier 1	0	1	0
22 fourier 1	0.3026390167484	3	0


Improper Coeffs

1 0.3333333333333333	-1	2
2 0.3666666666666667	-1	2
3 3.5	-1	2


Atoms

1	3	1	0.5753029	3.2501249	-1.7614481	-3.85641
2	3	2	-0.58574033	2.4385737	-1.4137217	-4.7548542
3	3	3	-0.50301587	2.7931634	-2.2318359	-2.5829994
4	3	1	0.21544574	1.4309438	-2.1481473	-2.1308403
5	3	1	-0.36847567	0.952412	-3.0808015	-1.2908989
6	3	4	0.22627661	1.5783546	-3.9054398	-0.9726921
7	3	1	-0.13116197	-0.44000118	-3.0082018	-0.80061649
8	3	4	0.22419495	-0.79943984	-3.7754027	-0.12607172
9	3	1	-0.23660753	-1.2426124	-2.0019437	-1.1861912
10	3	5	-0.047799388	-2.6491169	-1.8954068	-0.66115687
11	3	1	-0.23660758	-2.6684857	-1.0964618	0.61324839
12	3	1	-0.13116196	-2.5143956	-1.6986676	1.8045067
13	3	4	0.22419493	-2.3988373	-2.7740323	1.8689434
14	3	1	-0.35662934	-2.4919115	-0.89978175	3.0472524
15	3	4	0.22627662	-2.3768673	-1.4085811	3.9964763
16	3	1	0.2394234	-2.5899858	0.43904211	3.000636
17	3	3	-0.46520126	-2.5751079	1.1951964	4.2242463
18	3	1	0.81715024	-2.0511599	2.5232082	4.3431755
19	3	2	-0.5458408	-1.3840855	3.0498019	3.4147322
20	3	6	0.33047745	-2.8942878	0.73027661	5.1036921
21	3	1	-0.35662934	-2.770791	1.1032419	1.6830723
22	3	4	0.22627659	-2.9093726	2.1746201	1.6206461
23	3	1	-0.13116197	-2.8002887	0.37850348	0.55827141
24	3	4	0.22419493	-2.93628	0.87561615	-0.39436406
25	3	7	0.13096024	-3.2946487	-1.4045117	-1.4203089
26	3	7	0.13096024	-3.0794549	-2.9081762	-0.49312014
27	3	1	-0.13116194	-0.70564302	-0.94543788	-2.0772873
28	3	4	0.22419493	-1.3290026	-0.10620233	-2.359352
29	3	1	-0.36847576	0.55546231	-1.011478	-2.5212964
30	3	4	0.22627662	0.93635237	-0.21012323	-3.1391195
31	3	6	0.32668925	3.4903502	-2.7316761	-1.9852064
32	4	8	-0.48471141	-2.1914921	3.0487458	5.2271614
33	4	5	0.17680647	-2.0498966	2.1246527	6.2702527
34	4	1	0.22204405	-3.2855944	1.2849529	6.3835855
35	4	3	-0.6381039	-4.2733003	1.6834643	7.1349554
36	4	1	0.26303691	-5.4960864	0.93146067	7.251706
37	4	5	0.07998951	-6.603574	1.4546778	8.1131978
38	4	8	-0.10553042	-7.5346866	2.1279513	7.3137997
39	4	9	0.11608721	-6.1832732	2.1520458	8.8706178
40	4	9	0.11608721	-7.0985587	0.6129164	8.6489981
41	4	1	-0.3316752	-5.6494846	-0.19976976	6.5436963
42	4	4	0.22492881	-6.5681595	-0.77113706	6.5976308
43	4	1	-0.13422538	-4.5515034	-0.66690622	5.6750919
44	4	4	0.23597755	-4.666925	-1.5775941	5.101651
45	4	1	-0.33881441	-3.4209607	0.041070775	5.5940318
46	4	4	0.22477779	-2.6154178	-0.29437545	4.9528091
47	4	9	0.099659862	-1.1557126	1.480472	6.1045622
48	4	9	0.099659862	-1.8872438	2.6788079	7.2192781
49	1	1	0.57530296	4.3108951	-1.7412127	-4.0673367
50	1	2	-0.58574039	5.1283314	-1.8085668	-3.1125831
51	1	3	-0.50301581	4.7572926	-1.6895142	-5.4294529
52	1	1	0.21544576	6.1279607	-1.5195029	-5.8329191
53	1	1	-0.36847573	6.9753787	-0.72967897	-5.1465475
54	1	4	0.22627661	6.648495	-0.18765626	-4.2701643
55	1	1	-0.13116197	8.367358	-0.54884514	-5.6083122
56	1	4	0.22419495	9.0286915	0.094082214	-5.0407512
57	1	1	-0.23660753	8.7997618	-1.1664586	-6.7209336
58	1	5	-0.047799388	10.201598	-0.95525409	-7.222978
59	1	1	-0.25038555	10.253568	0.23936558	-8.1362736
60	1	1	-0.17678834	10.018665	0.10897039	-9.4534325
61	1	4	0.21080235	9.8140512	-0.86366499	-9.8843347
62	1	1	-0.24532366	10.029526	1.2937292	-10.335266
63	1	4	0.21772976	9.8459234	1.1514485	-11.392921
64	1	1	0.4465003	10.261988	2.5218102	-9.8245322
65	1	3	-0.30611458	10.282001	3.7060967	-10.637823
66	1	10	0.61711484	10.088415	3.7153504	-11.896801
67	1	2	-0.24727067	9.9005586	3.7248386	-13.120535
68	1	1	-0.24532369	10.504093	2.6632567	-8.3716566
69	1	4	0.21772978	10.684171	3.6437978	-7.9493878
70	1	1	-0.17678839	10.498049	1.5883822	-7.5733952
71	1	4	0.21080238	10.671595	1.7099703	-6.5117822
72	1	7	0.13096024	10.899946	-0.80746771	-6.369266
73	1	7	0.13096024	10.553071	-1.8651071	-7.7582684
74	1	1	-0.13116194	7.8571667	-2.0057793	-7.4981314
75	1	4	0.22419493	8.1843245	-2.4881985	-8.4103663
76	1	1	-0.36847576	6.596405	-2.1695407	-7.0800871
77	1	4	0.22627662	5.9169073	-2.7843387	-7.6556357
78	1	6	0.32668919	4.048321	-1.8895452	-6.169694
79	2	8	-0.10553042	-8.2423059	2.4515834	7.9303564
80	2	5	0.079989495	-8.312646	1.5273449	8.9814037
81	2	1	0.26550627	-9.0365172	0.29428982	8.5330328
82	2	3	-0.63361275	-10.333931	0.22542973	8.647895
83	2	1	0.21295949	-11.080532	-0.92178946	8.2024498
84	2	5	0.15015638	-12.571845	-0.93048885	8.3415126
85	2	11	-0.66438693	-13.153284	-0.54742414	7.1276127
86	2	12	0.4016814	-14.13464	-0.57008645	7.2737203
87	2	9	0.096146094	-12.871022	-0.21897251	9.143088
88	2	9	0.096146094	-12.921599	-1.9468265	8.6284673
89	2	1	-0.33216348	-10.437872	-1.9460474	7.6154154
90	2	4	0.22492881	-10.980678	-2.8102218	7.2512309
91	2	1	-0.132393	-8.9723919	-1.8875579	7.4603028
92	2	4	0.23597755	-8.4462844	-2.7086605	6.9894085
93	2	1	-0.33167517	-8.2982025	-0.81874725	7.8949458
94	2	4	0.22492883	-7.222661	-0.76850094	7.7768962
95	2	9	0.11608721	-7.2915651	1.268516	9.3428596
96	2	9	0.11608721	-8.8577433	1.9920448	9.8298234
97	3	1	0.5753029	1.3356922	-2.3142618	29.081405
98	3	2	-0.58574033	0.37678193	-3.126845	29.164654
99	3	3	-0.50301587	2.0207552	-1.8500362	30.250522
100	3	1	0.21544574	1.5662154	-2.072133	31.596316
101	3	1	-0.36847567	2.4634135	-2.1791883	32.590254
102	3	4	0.22627661	3.5243975	-2.1229153	32.379935
103	3	1	-0.13116197	2.0201603	-2.3929584	33.983915
104	3	4	0.22419495	2.7659598	-2.4779398	34.764534
105	3	1	-0.23660753	0.71070152	-2.4765639	34.273287
106	3	5	-0.047799388	0.24658728	-2.6531071	35.694095
107	3	1	-0.23660758	0.054929504	-1.3120999	36.348132
108	3	1	-0.13116196	1.0677929	-0.71225133	36.996037
109	3	4	0.22419493	2.0334499	-1.196353	37.080104
110	3	1	-0.35662934	0.88131082	0.62413907	37.598056
111	3	4	0.22627662	1.709301	1.08311	38.124284
112	3	1	0.2394234	-0.28957952	1.2709842	37.476203
113	3	3	-0.46520126	-0.45084561	2.5672012	38.078721
114	3	1	0.81715024	-1.2966724	3.5982116	37.555389
115	3	2	-0.5458408	-1.8126999	3.5042765	36.411192
116	3	6	0.33047745	0.13727792	2.8105943	38.907166
117	3	1	-0.35662934	-1.4125218	0.60201587	36.768172
118	3	4	0.22627659	-2.3834937	1.0753904	36.704272
119	3	1	-0.13116197	-1.2460777	-0.61242726	36.230847
120	3	4	0.22419493	-2.0741777	-1.0892859	35.72096
121	3	7	0.13096024	-0.71114851	-3.2157666	35.706643
122	3	7	0.13096024	0.97666382	-3.2664094	36.268532
123	3	1	-0.13116194	-0.28495008	-2.3140223	33.186617
124	3	4	0.22419493	-1.3433892	-2.3352546	33.414015
125	3	1	-0.36847576	0.11675623	-2.1205383	31.924441
126	3	4	0.22627662	-0.62730588	-1.9669171	31.155205
127	3	6	0.32668925	2.9461396	-1.3859452	30.103726
128	4	8	-0.48471141	-1.4575375	4.4576846	38.114623
129	4	5	0.17680647	-0.23797694	4.7715187	38.727989
130	4	1	0.22204405	-0.00084920132	3.8617175	39.894574
131	4	3	-0.6381039	-0.45162891	4.1881996	41.073191
132	4	1	0.26303691	-0.28087219	3.3338462	42.220043
133	4	5	0.07998951	-0.84266573	3.75486	43.542763
134	4	8	-0.10553042	-2.0836896	3.1374035	43.737473
135	4	9	0.11608721	-0.96554241	4.8600227	43.556059
136	4	9	0.11608721	-0.14246012	3.4706704	44.361055
137	4	1	-0.3316752	0.33025744	2.1461216	42.077488
138	4	4	0.22492881	0.4511204	1.4764671	42.920274
139	4	1	-0.13422538	0.83885751	1.7461364	40.750992
140	4	4	0.23597755	1.3328271	0.79098671	40.627736
141	4	1	-0.33881441	0.68055785	2.5622637	39.704662
142	4	4	0.22477779	1.0461542	2.269884	38.728218
143	4	9	0.099659862	0.59983366	4.6934866	37.997255
144	4	9	0.099659862	-0.2745637	5.8251842	39.078194
145	1	1	0.57530296	1.6718666	-1.9935027	28.104556
146	1	2	-0.58574039	2.4212649	-0.98636739	28.013048
147	1	3	-0.50301581	1.2972097	-2.7523577	26.946508
148	1	1	0.21544576	1.5625901	-2.3544851	25.589419
149	1	1	-0.36847573	1.5102006	-1.0646356	25.20655
150	1	4	0.22627661	1.2566902	-0.28294098	25.908956
151	1	1	-0.13116197	1.7532854	-0.69363157	23.797011
152	1	4	0.22419495	1.7023638	0.35029856	23.513357
153	1	1	-0.23660753	2.02359	-1.6403766	22.882158
154	1	5	-0.047799388	2.2302485	-1.2776904	21.437322
155	1	1	-0.25038555	0.91360699	-1.2676627	20.709118
156	1	1	-0.17678834	0.4295149	-2.3890581	20.147676
157	1	4	0.21080235	0.99238363	-3.3138249	20.187023
158	1	1	-0.24532366	-0.88382379	-2.3795891	19.472063
159	1	4	0.21772976	-1.2392476	-3.2981596	19.022073
160	1	1	0.4465003	-1.6176498	-1.2472306	19.423753
161	1	3	-0.30611458	-2.901015	-1.1846642	18.780763
162	1	10	0.61711484	-3.4624446	-2.1707418	18.201942
163	1	2	-0.24727067	-4.0084413	-3.1288135	17.639011
164	1	1	-0.24532369	-1.0886286	-0.018978681	20.057001
165	1	4	0.21772978	-1.6713319	0.89315957	20.031297
166	1	1	-0.17678839	0.10378159	-0.027195026	20.665855
167	1	4	0.21080238	0.47380415	0.87867171	21.128903
168	1	7	0.13096024	2.7140773	-0.27897242	21.354702
169	1	7	0.13096024	2.9282958	-2.001671	20.961419
170	1	1	-0.13116194	2.044076	-3.0638101	23.294952
171	1	4	0.22419493	2.2346134	-3.8390159	22.563731
172	1	1	-0.36847576	1.8238125	-3.3999645	24.571503
173	1	4	0.22627662	1.8409236	-4.4423619	24.861442
174	1	6	0.32668919	0.89528665	-3.7021884	27.110488
175	2	8	-0.10553042	-2.4088339	3.4482622	44.622489
176	2	5	0.079989495	-1.2725726	3.6754925	45.410614
177	2	1	0.26550627	-0.71147251	2.3714544	45.890304
178	2	3	-0.63361275	-1.1399367	1.8522287	47.007462
179	2	1	0.21295949	-0.65837982	0.58676467	47.49598
180	2	5	0.15015638	-1.2068108	0.033058722	48.775066
181	2	11	-0.66438693	-2.2202418	-0.88748366	48.485375
182	2	12	0.4016814	-2.5464608	-1.221672	49.361058
183	2	9	0.096146094	-1.6181801	0.86447782	49.389723
184	2	9	0.096146094	-0.39606013	-0.46143911	49.354522
185	2	1	-0.33216348	0.23402528	-0.10952286	46.771051
186	2	4	0.22492881	0.5939589	-1.0748693	47.10664
187	2	1	-0.132393	0.72446584	0.44826994	45.496904
188	2	4	0.23597755	1.4442077	-0.10537379	44.906828
189	2	1	-0.33167517	0.27450984	1.6320833	45.070375
190	2	4	0.22492883	0.62677814	2.0423785	44.131857
191	2	9	0.11608721	-0.50466034	4.2405207	44.835025
192	2	9	0.11608721	-1.5613104	4.3002942	46.281904
193	3	1	0.5753029	2.0069857	4.939995	67.74055
194	3	2	-0.58574033	3.1826491	4.5162344	67.58252
195	3	3	-0.50301587	1.0250077	4.1658175	68.439136
196	3	1	0.21544574	1.2000208	2.7905211	68.819956
197	3	1	-0.36847567	0.5936743	2.3259348	69.924873
198	3	4	0.22627661	-0.0048233353	2.985877	70.540799
199	3	1	-0.13116197	0.74647077	0.91246247	70.328867
200	3	4	0.22419495	0.24796306	0.56627231	71.225776
201	3	1	-0.23660753	1.4908256	0.073008861	69.589501
202	3	5	-0.047799388	1.6200612	-1.3777593	69.968758
203	3	1	-0.23660758	0.52036311	-2.1813107	69.330193
204	3	1	-0.13116196	-0.6542903	-2.3593699	69.957868
205	3	4	0.22419493	-0.82022903	-1.9480495	70.9464
206	3	1	-0.35662934	-1.7431752	-3.1140096	69.303659
207	3	4	0.22627662	-2.6774562	-3.2533245	69.83361
208	3	1	0.2394234	-1.586412	-3.6012251	68.06177
209	3	3	-0.46520126	-2.6571031	-4.3408018	67.448696
210	3	1	0.81715024	-2.9148876	-4.3647022	66.039705
211	3	2	-0.5458408	-2.3308423	-3.5741682	65.25342
212	3	6	0.33047745	-3.3413847	-4.8342389	68.064918
213	3	1	-0.35662934	-0.28290411	-3.4125309	67.372504
214	3	4	0.22627659	-0.10921341	-3.843026	66.395028
215	3	1	-0.13116197	0.70643525	-2.736767	67.96903
216	3	4	0.22419493	1.6520652	-2.6101517	67.456311
217	3	7	0.13096024	2.6071069	-1.7639254	69.636166
218	3	7	0.13096024	1.5959535	-1.4942199	71.075549
219	3	1	-0.13116194	2.1253033	0.56961788	68.344748
220	3	4	0.22419493	2.6908429	-0.10789889	67.71738
221	3	1	-0.36847576	1.9868654	1.8498709	67.979126
222	3	4	0.22627662	2.4268667	2.179729	67.048243
223	3	6	0.32668925	0.16131272	4.6664395	68.750061
224	4	8	-0.48471141	-3.6253138	-5.0210104	65.663051
225	4	5	0.17680647	-4.6783238	-5.0457901	66.58641
226	4	1	0.22204405	-4.3012656	-5.8793678	67.772945
227	4	3	-0.6381039	-4.5386257	-7.1609871	67.766371
228	4	1	0.26303691	-4.1653646	-8.0127383	68.866163
229	4	5	0.07998951	-4.4445162	-9.4819004	68.788126
230	4	8	-0.10553042	-3.2897859	-10.151873	68.367365
231	4	9	0.11608721	-5.2695117	-9.662376	68.064613
232	4	9	0.11608721	-4.7641146	-9.8616753	69.785263
233	4	1	-0.3316752	-3.5220996	-7.4886801	69.922603
234	4	4	0.22492881	-3.2114968	-8.1124108	70.751951
235	4	1	-0.13422538	-3.2294247	-6.0423561	69.949832
236	4	4	0.23597755	-2.7118703	-5.6121472	70.797515
237	4	1	-0.33881441	-3.5981258	-5.270149	68.92334
238	4	4	0.22477779	-3.3794247	-4.2096786	68.93608
239	4	9	0.099659862	-4.9437823	-4.0117022	66.906068
240	4	9	0.099659862	-5.5747356	-5.4805914	66.094896
241	1	1	0.57530296	1.7478013	5.9247401	67.375539
242	1	2	-0.58574039	0.53403784	6.2412461	67.271159
243	1	3	-0.50301581	2.7916017	6.8595098	67.06896
244	1	1	0.21544576	2.5828273	8.1413604	66.449531
245	1	1	-0.36847573	1.6455242	8.3249128	65.500417
246	1	4	0.22627661	1.0221569	7.5078309	65.165038
247	1	1	-0.13116197	1.4809561	9.645926	64.859032
248	1	4	0.22419495	0.72209017	9.7673983	64.096005
249	1	1	-0.23660753	2.2688034	10.675776	65.212657
250	1	5	-0.047799388	2.1380947	12.012468	64.53592
251	1	1	-0.25038555	3.0062996	12.061997	63.308039
252	1	1	-0.17678834	4.2891344	12.45572	63.388087
253	1	4	0.21080235	4.7124343	12.769837	64.334506
254	1	1	-0.24532366	5.1458469	12.460191	62.184997
255	1	4	0.21772976	6.1717593	12.792495	62.283314
256	1	1	0.4465003	4.6525005	12.055525	60.99507
257	1	3	-0.30611458	5.4433676	12.039187	59.795638
258	1	10	0.61711484	6.6636824	12.399515	59.735792
259	1	2	-0.24727067	7.8497307	12.749865	59.677059
260	1	1	-0.24532369	3.2445826	11.60752	60.914279
261	1	4	0.21772978	2.8399423	11.273645	59.967181
262	1	1	-0.17678839	2.4673202	11.607454	62.004451
263	1	4	0.21080238	1.4409791	11.271474	61.929184
264	1	7	0.13096024	1.0779669	12.201985	64.255623
265	1	7	0.13096024	2.4227772	12.823726	65.242119
266	1	1	-0.13116194	3.3259275	10.464971	66.230022
267	1	4	0.22419493	3.9848196	11.278477	66.505709
268	1	1	-0.36847576	3.4751565	9.268558	66.810905
269	1	4	0.22627662	4.2504929	9.1260846	67.552191
270	1	6	0.32668919	3.7508734	6.6298832	67.412004
271	2	8	-0.10553042	-3.5284653	-11.114934	68.333431
272	2	5	0.079989495	-4.4985912	-11.323355	69.323018
273	2	1	0.26550627	-3.8529954	-11.361445	70.67476
274	2	3	-0.63361275	-3.409081	-12.491906	71.150382
275	2	1	0.21295949	-2.7517902	-12.577705	72.428096
276	2	5	0.15015638	-2.2440489	-13.902339	72.908693
277	2	11	-0.66438693	-0.87924127	-14.009158	72.618431
278	2	12	0.4016814	-0.59537675	-14.898373	72.955535
279	2	9	0.096146094	-2.802365	-14.71806	72.397648
280	2	9	0.096146094	-2.4100487	-13.998969	74.004467
281	2	1	-0.33216348	-2.550355	-11.460782	73.148257
282	2	4	0.22492881	-2.037682	-11.496729	74.102165
283	2	1	-0.132393	-3.0299015	-10.167142	72.62706
284	2	4	0.23597755	-2.8727931	-9.2623416	73.200988
285	2	1	-0.33167517	-3.6509274	-10.113642	71.445
286	2	4	0.22492883	-3.9986723	-9.1647664	71.055181
287	2	9	0.11608721	-5.2732808	-10.524196	69.284941
288	2	9	0.11608721	-5.0081573	-12.289955	69.125738
289	3	1	0.5753029	-4.5050859	-2.796497	101.77101
290	3	2	-0.58574033	-4.2526986	-3.513146	100.7663
291	3	3	-0.50301587	-4.1181692	-1.4181684	101.81747
292	3	1	0.21544574	-3.2420607	-0.7912094	100.8654
293	3	1	-0.36847567	-3.3929668	0.51357772	100.58416
294	3	4	0.22627661	-4.1835333	1.0876339	101.05165
295	3	1	-0.13116197	-2.4954657	1.1839538	99.620025
296	3	4	0.22419495	-2.6421228	2.2363622	99.410903
297	3	1	-0.23660753	-1.5120586	0.49467053	99.017359
298	3	5	-0.047799388	-0.56672245	1.1764154	98.065083
299	3	1	-0.23660758	0.6143341	1.7307971	98.81379
300	3	1	-0.13116196	0.58649974	2.9766836	99.316269
301	3	4	0.22419493	-0.27820015	3.6126097	99.168596
302	3	1	-0.35662934	1.7349596	3.4963663	100.08705
303	3	4	0.22627662	1.6936664	4.5074037	100.47337
304	3	1	0.2394234	2.8052436	2.7204385	100.32511
305	3	3	-0.46520126	3.9155302	3.2511367	101.06998
306	3	1	0.81715024	4.76717	2.4665894	101.91347
307	3	2	-0.5458408	4.4774795	1.2791377	102.21403
308	3	6	0.33047745	4.074946	4.2836047	101.0631
309	3	1	-0.35662934	2.8392738	1.3459349	99.759946
310	3	4	0.22627659	3.7121393	0.71923996	99.887666
311	3	1	-0.13116197	1.8026422	0.87866168	99.054011
312	3	4	0.22419493	1.8428141	-0.12352058	98.645177
313	3	7	0.13096024	-0.2176807	0.44930371	97.301224
314	3	7	0.13096024	-1.0910031	1.985877	97.509177
315	3	1	-0.13116194	-1.3128305	-0.93458981	99.358117
316	3	4	0.22419493	-0.49648385	-1.489067	98.912485
317	3	1	-0.36847576	-2.1259026	-1.5415542	100.23127
318	3	4	0.22627662	-1.9378713	-2.5736992	100.49256
319	3	6	0.32668925	-4.5669671	-0.82523106	102.55251
320	4	8	-0.48471141	5.6214311	2.897078	102.31625
321	4	5	0.17680647	5.2840469	4.2123049	102.66033
322	4	1	0.22204405	5.2357877	5.0682231	101.43152
323	4	3	-0.6381039	6.3171156	5.6643819	101.01408
324	4	1	0.26303691	6.3329985	6.4700605	99.820357
325	4	5	0.07998951	7.6133044	7.1100207	99.38022
326	4	8	-0.10553042	8.2167152	6.3140676	98.399577
327	4	9	0.11608721	8.2937489	7.2119879	100.25387
328	4	9	0.11608721	7.4100431	8.1271534	98.974289
329	4	1	-0.3316752	5.2141027	6.5916711	99.087026
330	4	4	0.22492881	5.206515	7.1739825	98.173686
331	4	1	-0.13422538	3.9788516	5.9164019	99.530218
332	4	4	0.23597755	3.0729531	6.0096883	98.945278
333	4	1	-0.33881441	3.9856529	5.1854633	100.64897
334	4	4	0.22477779	3.0833775	4.6827823	100.97424
335	4	9	0.099659862	4.3049933	4.2395284	103.19202
336	4	9	0.099659862	6.0515712	4.6070119	103.35983
337	1	1	0.57530296	-5.0598777	-3.2220396	102.59639
338	1	2	-0.58574039	-5.0716663	-2.621969	103.70277
339	1	3	-0.50301581	-5.8072709	-4.4295027	102.39455
340	1	1	0.21544576	-6.4680542	-5.1644606	103.44031
341	1	1	-0.36847573	-5.9391591	-5.2708847	104.674
342	1	4	0.22627661	-4.9908946	-4.8122033	104.9171
343	1	1	-0.13116197	-6.626202	-6.0629378	105.71523
344	1	4	0.22419495	-6.1789877	-6.135945	106.69885
345	1	1	-0.23660753	-7.7828632	-6.6894664	105.43965
346	1	5	-0.047799388	-8.4679621	-7.5328625	106.47943
347	1	1	-0.25038555	-7.9509701	-8.9449665	106.42836
348	1	1	-0.17678834	-8.5130751	-9.854217	105.61326
349	1	4	0.21080235	-9.365716	-9.5924721	104.9984
350	1	1	-0.24532366	-7.9716582	-11.226305	105.53813
351	1	4	0.21772976	-8.454646	-11.9362	104.87831
352	1	1	0.4465003	-6.8977121	-11.577026	106.27752
353	1	3	-0.30611458	-6.3313243	-12.896949	106.24031
354	1	10	0.61711484	-6.7779959	-13.849475	105.52214
355	1	2	-0.24727067	-7.2119184	-14.77569	104.82447
356	1	1	-0.24532369	-6.2718599	-10.56876	107.16137
357	1	4	0.21772978	-5.4056565	-10.836081	107.75334
358	1	1	-0.17678839	-6.7655523	-9.3262272	107.23202
359	1	4	0.21080238	-6.2924788	-8.599084	107.87963
360	1	7	0.13096024	-8.3012533	-7.1070931	107.49396
361	1	7	0.13096024	-9.5680186	-7.5190217	106.31334
362	1	1	-0.13116194	-8.3464344	-6.6042384	104.0714
363	1	4	0.22419493	-9.2636769	-7.1251738	103.82804
364	1	1	-0.36847576	-7.724219	-5.8870151	103.12825
365	1	4	0.22627662	-8.1446752	-5.8320742	102.13269
366	1	6	0.32668919	-5.9611869	-4.7336013	101.40741
367	2	8	-0.10553042	9.0548524	6.7811584	98.14471
368	2	5	0.079989495	8.8166541	8.1522383	98.309836
369	2	1	0.26550627	7.9879527	8.6697231	97.173652
370	2	3	-0.63361275	8.570495	9.1024839	96.089871
371	2	1	0.21295949	7.8203944	9.5787242	94.9574
372	2	5	0.15015638	8.5480645	10.041604	93.732791
373	2	11	-0.66438693	8.5882838	9.0024174	92.796396
374	2	12	0.4016814	9.0773752	9.3596961	92.010226
375	2	9	0.096146094	9.5840382	10.338363	94.010239
376	2	9	0.096146094	8.0356864	10.928021	93.297651
377	2	1	-0.33216348	6.476973	9.548888	94.989862
378	2	4	0.22492881	5.8907579	9.8804755	94.141058
379	2	1	-0.132393	5.7929856	9.0510477	96.197931
380	2	4	0.23597755	4.7109588	9.0243476	96.233219
381	2	1	-0.33167517	6.5099412	8.6278355	97.243238
382	2	4	0.22492883	6.0118589	8.2549767	98.129884
383	2	9	0.11608721	8.3079742	8.3460323	99.281401
384	2	9	0.11608721	9.7912006	8.6838542	98.333003
385	3	1	0.5753029	-4.2393066	0.17951043	131.58321
386	3	2	-0.58574033	-3.6253813	0.90359188	130.75524
387	3	3	-0.50301587	-3.9989387	0.29147948	132.99081
388	3	1	0.21544574	-2.9199715	1.0448176	133.56995
389	3	1	-0.36847567	-3.0784127	1.6080266	134.7791
390	3	4	0.22627661	-4.0196653	1.5176213	135.30726
391	3	1	-0.13116197	-1.9788969	2.3748025	135.40166
392	3	4	0.22419495	-2.135871	2.8198962	136.37637
393	3	1	-0.23660753	-0.80335257	2.5118773	134.76549
394	3	5	-0.047799388	0.33671611	3.2556287	135.40763
395	3	1	-0.23660758	1.1717579	2.314494	136.23211
396	3	1	-0.13116196	0.88646786	2.0970743	137.52703
397	3	4	0.22419493	0.064767463	2.6158193	138.00623
398	3	1	-0.35662934	1.6864999	1.1381582	138.3167
399	3	4	0.22627662	1.4440907	0.9873149	139.3615
400	3	1	0.2394234	2.6851787	0.44660375	137.74343
401	3	3	-0.46520126	3.45644	-0.47462395	138.53445
402	3	1	0.81715024	4.0576221	-1.6690808	138.02051
403	3	2	-0.5458408	3.7840601	-2.096857	136.86879
404	3	6	0.33047745	3.5264076	-0.31315255	139.56425
405	3	1	-0.35662934	3.0064805	0.6955906	136.31354
406	3	4	0.22627659	3.8414698	0.19488743	135.84126
407	3	1	-0.13116197	2.2874316	1.5710257	135.60088
408	3	4	0.22419493	2.5351948	1.7449918	134.56094
409	3	7	0.13096024	0.96665535	3.7238766	134.62155
410	3	7	0.13096024	-0.048002378	4.0891619	136.03719
411	3	1	-0.13116194	-0.60806829	1.854333	133.45092
412	3	4	0.22419493	0.34906465	1.9204985	132.94895
413	3	1	-0.36847576	-1.6040909	1.160018	132.88722
414	3	4	0.22627662	-1.4261374	0.6578705	131.9464
415	3	6	0.32668925	-4.7032806	-0.14655724	133.62744
416	4	8	-0.48471141	4.7031355	-2.2143082	138.6233
417	4	5	0.17680647	4.1697846	-2.1783768	139.91801
418	4	1	0.22204405	4.4441502	-0.84769786	140.5496
419	4	3	-0.6381039	5.5504532	-0.66096979	141.21304
420	4	1	0.26303691	5.8783851	0.60807283	141.80998
421	4	5	0.07998951	7.1764344	0.76566272	142.53984
422	4	8	-0.10553042	8.1209169	1.3477353	141.68635
423	4	9	0.11608721	7.5350774	-0.23261261	142.87373
424	4	9	0.11608721	7.0310435	1.4045929	143.44055
425	4	1	-0.3316752	5.0429609	1.6488446	141.65717
426	4	4	0.22492881	5.2779485	2.6189735	142.07784
427	4	1	-0.13422538	3.7893681	1.4681368	140.89948
428	4	4	0.23597755	3.1106129	2.3015514	140.77212
429	4	1	-0.33881441	3.5005921	0.27709897	140.36659
430	4	4	0.22477779	2.5851881	0.14180906	139.80417
431	4	9	0.099659862	3.0739624	-2.3800899	139.89627
432	4	9	0.099659862	4.6423212	-2.9823068	140.52183
433	1	1	0.57530296	-4.9906446	-0.51110604	131.2245
434	1	2	-0.58574039	-5.3999441	-1.4243281	131.98791
435	1	3	-0.50301581	-5.5363199	-0.33757894	129.90942
436	1	1	0.21544576	-6.4327163	-1.2634334	129.26936
437	1	1	-0.36847573	-6.3144843	-2.5942186	129.43692
438	1	4	0.22627661	-5.5318653	-3.0124893	130.05437
439	1	1	-0.13116197	-7.2296837	-3.5192403	128.73672
440	1	4	0.22419495	-7.1122403	-4.5855175	128.88539
441	1	1	-0.23660753	-8.1855372	-3.0417575	127.92143
442	1	5	-0.047799388	-9.0943157	-3.9760502	127.17108
443	1	1	-0.25038555	-8.4760997	-4.358071	125.85358
444	1	1	-0.17678834	-8.676585	-3.6077191	124.75637
445	1	4	0.21080235	-9.3090587	-2.7291065	124.79612
446	1	1	-0.24532366	-8.0308821	-3.9666391	123.47745
447	1	4	0.21772976	-8.2217089	-3.345832	122.61098
448	1	1	0.4465003	-7.2214693	-5.0446471	123.40117
449	1	3	-0.30611458	-6.5683437	-5.4361857	122.18276
450	1	10	0.61711484	-6.6869043	-4.8191191	121.07472
451	1	2	-0.24727067	-6.8020106	-4.2198365	119.99745
452	1	1	-0.24532369	-6.9904218	-5.8587449	124.61497
453	1	4	0.21772978	-6.3374396	-6.7210686	124.56794
454	1	1	-0.17678839	-7.5791964	-5.5351586	125.7731
455	1	4	0.21080238	-7.3952616	-6.1382306	126.65309
456	1	7	0.13096024	-9.2918447	-4.8904328	127.77377
457	1	7	0.13096024	-10.082713	-3.4922413	127.00707
458	1	1	-0.13116194	-8.29228	-1.5790642	127.70668
459	1	4	0.22419493	-9.040492	-1.1819262	127.0326
460	1	1	-0.36847576	-7.4633744	-0.74118303	128.34069
461	1	4	0.22627662	-7.5502967	0.32479309	128.1761
462	1	6	0.32668919	-5.3451337	0.57123842	129.43182
463	2	8	-0.10553042	8.9562815	1.4292364	142.21656
464	2	5	0.079989495	8.5688076	1.6140153	143.55057
465	2	1	0.26550627	8.1033371	3.0229779	143.75941
466	2	3	-0.63361275	8.9620656	3.948347	144.08727
467	2	1	0.21295949	8.5730293	5.3224773	144.26717
468	2	5	0.15015638	9.611069	6.3424098	144.62163
469	2	11	-0.66438693	10.028729	7.0022874	143.46039
470	2	12	0.4016814	10.711042	7.6623368	143.74971
471	2	9	0.096146094	10.478728	5.8343248	145.09839
472	2	9	0.096146094	9.1932213	7.0745987	145.34752
473	2	1	-0.33216348	7.295292	5.6842062	144.05917
474	2	4	0.22492881	6.9830504	6.7162787	144.16593
475	2	1	-0.132393	6.3065824	4.659949	143.67386
476	2	4	0.23597755	5.2747816	4.942225	143.50519
477	2	1	-0.33167517	6.687603	3.3875063	143.52718
478	2	4	0.22492883	5.9662597	2.6331408	143.23762
479	2	9	0.11608721	7.7650881	0.89440943	143.82707
480	2	9	0.11608721	9.4399824	1.40784	144.20741
481	3	1	0.5753029	-1.5126114	38.241824	2.3847747
482	3	2	-0.58574033	-2.1214153	37.610551	3.288978
483	3	3	-0.50301587	-1.4456507	37.741323	1.0443759
484	3	1	0.21544574	-1.8507263	36.418351	0.65353952
485	3	1	-0.36847567	-2.3360492	36.211069	-0.58170694
486	3	4	0.22627661	-2.4453896	37.036945	-1.2738504
487	3	1	-0.13116197	-2.7453444	34.857555	-1.0117527
488	3	4	0.22419495	-3.135409	34.720577	-2.0126975
489	3	1	-0.23660753	-2.630182	33.815666	-0.17115111
490	3	5	-0.047799388	-3.005399	32.42639	-0.6120508
491	3	1	-0.23660758	-1.8195002	31.74092	-1.2337998
492	3	1	-0.13116196	-1.5777559	31.845763	-2.551396
493	3	4	0.22419493	-2.2477721	32.405463	-3.1930571
494	3	1	-0.35662934	-0.38643023	31.204221	-3.1449517
495	3	4	0.22627662	-0.21817661	31.293906	-4.211153
496	3	1	0.2394234	0.4875035	30.538559	-2.3720511
497	3	3	-0.46520126	1.6353041	29.914109	-2.9735729
498	3	1	0.81715024	2.897724	29.748435	-2.3169687
499	3	2	-0.5458408	3.147388	30.319859	-1.2236076
500	3	6	0.33047745	1.5807124	29.627356	-3.9766898
501	3	1	-0.35662934	0.21357392	30.414478	-0.91623785
502	3	4	0.22627659	0.87013775	29.836201	-0.27947026
503	3	1	-0.13116197	-0.87048961	30.987989	-0.38034211
504	3	4	0.22419493	-1.0592749	30.886266	0.68132713
505	3	7	0.13096024	-3.3601766	31.840396	0.2624458
506	3	7	0.13096024	-3.8556126	32.462246	-1.3296721
507	3	1	-0.13116194	-2.0531006	34.031139	1.1776043
508	3	4	0.22419493	-1.914245	33.192092	1.8478079
509	3	1	-0.36847576	-1.6825865	35.257131	1.5669055
510	3	4	0.22627662	-1.2294629	35.383455	2.5403905
511	3	6	0.32668925	-1.1509788	38.415698	0.30164175
512	4	8	-0.48471141	3.6359681	29.176267	-2.7696652
513	4	5	0.17680647	3.5704851	29.449466	-4.1419304
514	4	1	0.22204405	2.4087633	28.728079	-4.7542148
515	4	3	-0.6381039	2.5635441	27.514563	-5.2040527
516	4	1	0.26303691	1.4720369	26.764639	-5.7702441
517	4	5	0.07998951	1.7089926	25.36545	-6.2483374
518	4	8	-0.10553042	1.3189869	24.462525	-5.2523817
519	4	9	0.11608721	2.7892481	25.231734	-6.4759955
520	4	9	0.11608721	1.1290708	25.178953	-7.1808413
521	4	1	-0.3316752	0.24431281	27.308244	-5.8112099
522	4	4	0.22492881	-0.59697109	26.75601	-6.211974
523	4	1	-0.13422538	0.038683619	28.676174	-5.2966823
524	4	4	0.23597755	-0.94732378	29.121611	-5.326419
525	4	1	-0.33881441	1.0701384	29.357255	-4.7885899
526	4	4	0.22477779	0.92245616	30.358609	-4.4037898
527	4	9	0.099659862	3.4846889	30.546309	-4.3195864
528	4	9	0.099659862	4.5141949	29.109698	-4.6195939
529	1	1	0.57530296	-1.066915	39.199319	2.618633
530	1	2	-0.58574039	-0.22904269	39.697629	1.8224232
531	1	3	-0.50301581	-1.4791335	39.897988	3.8015286
532	1	1	0.21544576	-0.86632227	41.103897	4.2921055
533	1	1	-0.36847573	0.45986875	41.314962	4.193547
534	1	4	0.22627661	1.1117767	40.576585	3.7480096
535	1	1	-0.13116197	1.0622382	42.548864	4.7395981
536	1	4	0.22419495	2.1317706	42.693943	4.6507407
537	1	1	-0.23660753	0.29324853	43.470065	5.344899
538	1	5	-0.047799388	0.90213064	44.708978	5.9416893
539	1	1	-0.25038555	1.3208946	44.450771	7.3636217
540	1	1	-0.17678834	0.45806285	44.631704	8.3784491
541	1	4	0.21080235	-0.546236	44.992443	8.1918633