Title

13000 atoms
12875 bonds
24000 angles
43500 dihedrals
2250 impropers

11 atom types
14 bond types
9 angle types
35 dihedral types
3 improper types
-8.284505269 86.30328889 xlo xhi
-8.345934578 85.93987955 ylo yhi
-8.13052918 86.16653248 zlo zhi
0.0 0.0 0.0 xy xz yz

Masses

1	12.01078
2	15.99943
3	14.00672
4	12.01078
5	1.007947
6	1.007947
7	1.007947
8	15.99943
9	12.01078
10	15.99943
11	1.007947


Pair Coeffs

1	0.086879315	3.4806469
2	0.2102061	3.0398122
3	0.16769152	3.206876
4	0.10884061	3.3795318
5	0.014090815	1.1034277
6	0.016409246	2.5832257
7	0.015779483	2.6445434
8	0.16846514	3.0251065
9	0.21	3.3996695
10	0.20947353	2.99716
11	1.2326e-05	0.53453923

Bond Coeffs

1 harmonic	582.698766451	1.225198386222
2 harmonic	492.76746816345	1.381897776683
3 harmonic	279.1350963404	1.454628925034
4 harmonic	352.0565580496	1.450098586273
5 harmonic	505.144496193	1.019481865027
6 harmonic	264.62148576755	1.52190126495
7 harmonic	370.04670688625	1.093899492634
8 harmonic	301.15400723785	1.345741232799
9 harmonic	366.7408841747	1.425895053732
10 harmonic	300.03137914615	1.451203938761
11 harmonic	366.34047229585	1.464762957261
12 harmonic	602.81384337	1.196112346392
13 harmonic	329.96998057905	1.427343958716
14 harmonic	543.5267831885	0.9716763312559


Angle Coeffs

1 harmonic	55.42182150775	117.3465570514
2 harmonic	63.44422595415	115.5071327674
3 harmonic	57.8982893754	126.8062420451
4 harmonic	53.20531626545	116.5475862634
5 harmonic	65.09061609600001	110.3538806181
6 harmonic	201.41175231035	127.4691416191
7 harmonic	48.776492647595	115.6030999533
8 harmonic	55.07882548015	112.8714009681
9 harmonic	33.56981613361	180


Dihedral Coeffs

1 fourier 1	-0.1488678166443	4	180
2 fourier 1	-0.1230328948768	3	180
3 fourier 1	0.2939295466901	2	0
4 fourier 1	-0.3024127022865	1	0
5 fourier 1	0.182238503271	2	0
6 fourier 1	0.02972342374561	3	0
7 fourier 1	1.809047390003	2	180
8 fourier 1	-0.04816277792592	1	0
9 fourier 1	3.101948770557	2	180
10 fourier 1	-0.4252153282372	1	0
11 fourier 1	2.348375642009	2	180
12 fourier 1	1.256156174911	1	0
13 fourier 1	0.9974165607242	2	180
14 fourier 1	0.1155372516788	3	0
15 fourier 1	0.09223874044423	3	0
16 fourier 1	0.3159935921949	2	180
17 fourier 1	0.3247796806857	1	180
18 fourier 1	0.1040663847541	3	0
19 fourier 1	2.779853741805	2	180
20 fourier 1	0.1918272375143	3	0
21 fourier 1	0.9202179876409	1	180
22 fourier 1	0.0473758381877	3	0
23 fourier 1	0.4860993122944	2	180
24 fourier 1	0.8916986138746	1	0
25 fourier 1	1.163809172478	2	180
26 fourier 1	0.1679186987369	1	180
27 fourier 1	0.1911926717192	3	0
28 fourier 1	0.1115525666802	3	0
29 fourier 1	0.3432490222662	1	0
30 fourier 1	0.457973137376	1	0
31 fourier 1	-1.382973039546	1	0
32 fourier 1	0	1	0
33 fourier 1	0.3445382149273	3	0
34 fourier 1	0.1364556373303	1	0
35 fourier 1	0.3026390167484	3	0


Improper Coeffs

1 0.3333333333333333	-1	2
2 0.3666666666666667	-1	2
3 3.5	-1	2


Atoms

1	6	1	0.54290378	4.202667	-1.2031127	-1.6912919
2	6	2	-0.68689799	5.3294746	-1.7341677	-1.5019504
3	6	3	-0.52234924	3.6381394	-1.1303565	-3.0029981
4	6	4	0.029514465	4.3453468	-1.6562535	-4.1721443
5	6	4	-0.14658524	3.5138968	-1.5027405	-5.4518376
6	6	4	-0.14528683	2.3042748	-2.4516275	-5.466768
7	6	4	0.023641288	1.4973441	-2.3269111	-6.7656331
8	6	3	-0.46608659	0.90976752	-0.99407633	-6.8997911
9	6	1	0.78607339	-0.21512245	-0.56119947	-6.1289142
10	6	2	-0.61061644	-0.76447567	-1.3310289	-5.2964578
11	6	5	0.32561797	1.2903497	-0.34758522	-7.6263325
12	6	6	0.056716324	0.69231751	-3.0928742	-6.7820879
13	6	6	0.056716324	2.1634947	-2.5264747	-7.6331391
14	6	7	0.088548259	1.644602	-2.2474973	-4.5977843
15	6	7	0.088548259	2.6634829	-3.5003622	-5.3786429
16	6	7	0.088548259	3.1781981	-0.44710088	-5.5472861
17	6	7	0.088548259	4.1645195	-1.7332338	-6.3228416
18	6	6	0.053149992	4.5935382	-2.7274883	-4.0103237
19	6	6	0.053149992	5.2981579	-1.096823	-4.2965725
20	6	5	0.31903511	2.7058966	-0.67047016	-3.1079976
21	7	8	-0.49768618	-0.58936529	0.39748992	-6.2606258
22	7	4	0.11450049	-1.9830976	0.30370313	-6.1403711
23	7	4	-0.13853189	-2.37957	0.17160025	-4.6674388
24	7	4	-0.1396247	-3.9050818	0.088910875	-4.5120127
25	7	4	-0.14083354	-4.3493861	0.088016388	-3.0406535
26	7	4	-0.13950884	-3.9836109	-1.218053	-2.3146478
27	7	4	-0.13950884	-4.6315243	-1.3258938	-0.92291769
28	7	4	-0.14078289	-4.2367248	-0.21391345	0.068892272
29	7	4	-0.13835341	-2.7233252	-0.058504019	0.30622445
30	7	4	-0.14451878	-2.0791813	-1.324601	0.89162425
31	7	4	0.03611396	-0.6228202	-1.0872351	1.3009993
32	7	8	-0.16684416	0.17734295	-0.84790233	0.17338067
33	7	6	0.08641714	-0.55250356	-0.24914556	2.0320666
34	7	6	0.08641714	-0.24392403	-1.9999721	1.8076252
35	7	7	0.093122052	-2.1088062	-2.1485241	0.14682756
36	7	7	0.093122052	-2.6497864	-1.646156	1.7901214
37	7	7	0.088044056	-2.5779526	0.78212797	1.0198235
38	7	7	0.088044056	-2.2173607	0.22920297	-0.64011515
39	7	7	0.086082475	-4.6438282	0.75699366	-0.28541298
40	7	7	0.086082475	-4.7303095	-0.42138014	1.043236
41	7	7	0.086082475	-4.3773175	-2.3158549	-0.48642018
42	7	7	0.086082475	-5.7371731	-1.3121742	-1.0409407
43	7	7	0.086082475	-4.3386986	-2.0794415	-2.9197722
44	7	7	0.086082475	-2.8818565	-1.3171386	-2.2229778
45	7	7	0.086082475	-5.4525512	0.21801258	-3.0145842
46	7	7	0.086082475	-3.892497	0.95811544	-2.5216313
47	7	7	0.087866025	-4.2904229	-0.8219428	-5.0231642
48	7	7	0.087866025	-4.3656098	0.97173265	-5.0075333
49	7	7	0.092004427	-1.9081703	-0.74563362	-4.2546685
50	7	7	0.092004427	-1.9927556	1.0504927	-4.1086396
51	7	6	0.086415352	-2.4341359	1.2256647	-6.5649761
52	7	6	0.086415352	-2.3630239	-0.56625913	-6.7238038
53	4	1	0.54290384	3.6568705	-0.7982192	-0.84969966
54	4	2	-0.68689805	2.4329688	-1.0656591	-0.71803567
55	4	3	-0.5223493	4.3311214	0.032967871	0.098809046
56	4	4	0.029806448	3.6346583	0.60205926	1.2511385
57	4	4	-0.14145344	4.5876576	1.4480652	2.10195
58	4	4	-0.12340714	3.8629112	2.0482366	3.3119951
59	4	4	0.18390685	4.8172182	2.8976738	4.1606814
60	4	3	-0.64393282	4.1410652	3.4183976	5.3443489
61	4	9	0.59327161	3.2206425	4.2948129	5.2646044
62	4	2	-0.46969631	2.326096	5.1458567	5.1856988
63	4	6	0.031736904	5.6686404	2.2670905	4.4951228
64	4	6	0.031736904	5.2261674	3.739849	3.5590881
65	4	7	0.082437576	3.4498045	1.2281762	3.9406188
66	4	7	0.082437576	3.0204359	2.6821869	2.9583803
67	4	7	0.087508345	5.0038951	2.2689264	1.4760752
68	4	7	0.087508345	5.4279426	0.80885701	2.4523154
69	4	6	0.053149992	2.795496	1.2370227	0.89272808
70	4	6	0.053149992	3.2193175	-0.22306283	1.8706855
71	4	5	0.31903514	5.347525	0.22599876	-0.053873546
72	5	8	-0.16684416	0.16728822	0.13274452	0.017013562
73	5	4	0.03611396	-1.1789238	0.51579181	-0.051761005
74	5	4	-0.14451878	-1.7878424	0.56450205	1.3518082
75	5	4	-0.13835341	-3.2591512	1.0025485	1.3014426
76	5	4	-0.14078289	-3.8665372	1.1919099	2.7001243
77	5	4	-0.13950884	-4.0598358	-0.14068224	3.4448925
78	5	4	-0.13950884	-4.884247	0.01395843	4.7349024
79	5	4	-0.14078289	-4.2724655	0.95742611	5.790964
80	5	4	-0.134268	-2.8409976	0.60280102	6.2305386
81	5	4	-0.16644272	-2.7423855	-0.78896992	6.8739905
82	5	4	0.089438969	-1.3580437	-1.0422891	7.477776
83	5	10	-0.68011921	-0.38303646	-1.1160764	6.4721506
84	5	11	0.38481289	-0.042182913	-0.19439374	6.3334639
85	5	6	0.077666172	-1.1073609	-0.25566277	8.2268596
86	5	6	0.077666172	-1.3788897	-2.0147794	8.0150888
87	5	7	0.095478104	-2.9486628	-1.575923	6.1173542
88	5	7	0.095478104	-3.5013117	-0.87577963	7.6817635
89	5	7	0.088044056	-2.5175247	1.3654718	6.97209
90	5	7	0.088044056	-2.147441	0.67773278	5.3657152
91	5	7	0.086082475	-4.2800647	1.9982933	5.402542
92	5	7	0.086082475	-4.9317714	0.95379866	6.6865865
93	5	7	0.086082475	-5.0369716	-0.99082874	5.1840905
94	5	7	0.086082475	-5.8951302	0.39506504	4.4703145
95	5	7	0.086082475	-4.6009441	-0.84993822	2.7817675
96	5	7	0.086082475	-3.0785439	-0.60044426	3.6809728
97	5	7	0.086082475	-4.8561722	1.6852579	2.5808959
98	5	7	0.086082475	-3.2178846	1.8725192	3.2909473
99	5	7	0.088044056	-3.8557258	0.2605968	0.72738201
100	5	7	0.088044056	-3.3262731	1.9745765	0.76477681
101	5	7	0.093122052	-1.7111565	-0.44536934	1.8078488
102	5	7	0.093122052	-1.2044804	1.2791968	1.9739571
103	5	6	0.08641714	-1.234524	1.5229689	-0.51611635
104	5	6	0.08641714	-1.7486915	-0.19266412	-0.69593878
105	6	1	0.54290378	-3.6776237	-2.5708476	18.329824
106	6	2	-0.68689799	-4.7433429	-2.6612541	18.995883
107	6	3	-0.52234924	-3.4591285	-3.39461	17.181681
108	6	4	0.029514465	-4.4523418	-4.3766134	16.74258
109	6	4	-0.14658524	-4.0068732	-5.098295	15.464604
110	6	4	-0.14528683	-4.0423378	-4.1695838	14.239845
111	6	4	0.023641288	-3.6368353	-4.9037726	12.955214
112	6	3	-0.46608659	-2.2484537	-5.359734	13.019934
113	6	1	0.78607339	-1.1337939	-4.4715194	12.894957
114	6	2	-0.61061644	-1.3068327	-3.2378291	12.706607
115	6	5	0.32561797	-2.0587933	-6.3830695	13.10636
116	6	6	0.056716324	-3.7679385	-4.2302978	12.080982
117	6	6	0.056716324	-4.3066585	-5.7782409	12.804247
118	6	7	0.088548259	-3.3725469	-3.2987591	14.398004
119	6	7	0.088548259	-5.0758035	-3.7807483	14.107948
120	6	7	0.088548259	-2.9828821	-5.5059694	15.610969
121	6	7	0.088548259	-4.6924607	-5.9550002	15.28822
122	6	6	0.053149992	-5.4278408	-3.8726351	16.570137
123	6	6	0.053149992	-4.5916444	-5.1305347	17.54787
124	6	5	0.31903511	-2.5542648	-3.2884741	16.670257
125	7	8	-0.49768618	-0.16860808	-4.8476902	12.953291
126	7	4	0.11450049	0.60150512	-4.1195157	12.035448
127	7	4	-0.13853189	0.92866831	-2.7345345	12.600216
128	7	4	-0.1396247	1.7906012	-1.9277962	11.618164
129	7	4	-0.14083354	2.2500403	-0.58280923	12.203169
130	7	4	-0.13950884	1.0935862	0.42024145	12.355472
131	7	4	-0.13950884	1.578633	1.8372102	12.709397
132	7	4	-0.14078289	2.3579456	1.9484102	14.034675
133	7	4	-0.13835341	1.6132132	1.4226659	15.275571
134	7	4	-0.14451878	0.30425554	2.1791172	15.549482
135	7	4	0.03611396	-0.31865426	1.7758623	16.888992
136	7	8	-0.16684416	-0.75473373	0.44260517	16.852587
137	7	6	0.08641714	0.40159149	1.9431846	17.722687
138	7	6	0.08641714	-1.2002107	2.4239404	17.079186
139	7	7	0.093122052	-0.43077304	1.9773626	14.741102
140	7	7	0.093122052	0.50814704	3.2719441	15.570521
141	7	7	0.088044056	2.2885327	1.5432667	16.151024
142	7	7	0.088044056	1.4145284	0.33491741	15.167582
143	7	7	0.086082475	3.3226953	1.4057967	13.941109
144	7	7	0.086082475	2.6166364	3.016791	14.200974
145	7	7	0.086082475	0.70060946	2.5178644	12.740358
146	7	7	0.086082475	2.2310112	2.2075258	11.888516
147	7	7	0.086082475	0.54091868	0.48321014	11.393783
148	7	7	0.086082475	0.37231328	0.069297008	13.122732
149	7	7	0.086082475	3.0123526	-0.15267271	11.518761
150	7	7	0.086082475	2.7376302	-0.760551	13.185955
151	7	7	0.087866025	1.2292102	-1.7558906	10.672275
152	7	7	0.087866025	2.6984372	-2.5190409	11.36664
153	7	7	0.092004427	-0.023945843	-2.1974306	12.795051
154	7	7	0.092004427	1.4701857	-2.8552433	13.562776
155	7	6	0.086415352	1.5441883	-4.6766871	11.849313
156	7	6	0.086415352	0.059693158	-4.0251038	11.066378
157	4	1	0.54290384	-2.9199603	-1.8602356	18.63163
158	4	2	-0.68689805	-2.3869916	-1.1170086	17.765401
159	4	3	-0.5223493	-2.5352092	-1.7752656	20.006367
160	4	4	0.029806448	-1.5163685	-0.83047666	20.460378
161	4	4	-0.14145344	-1.2985771	-0.94723264	21.972578
162	4	4	-0.12340714	-0.23058653	0.040916556	22.454895
163	4	4	0.18390685	-0.011134576	-0.07960854	23.968113
164	4	3	-0.64393282	0.96145158	0.90295351	24.435074
165	4	9	0.59327161	2.1929772	0.83643463	24.117961
166	4	2	-0.46969631	3.3891124	0.77101325	23.808614
167	4	6	0.031736904	-0.97275485	0.10565545	24.49287
168	4	6	0.031736904	0.3334967	-1.1048904	24.229722
169	4	7	0.082437576	-0.551607	1.0792464	22.215853
170	4	7	0.082437576	0.72583106	-0.16472411	21.926049
171	4	7	0.087508345	-0.97841628	-1.9850917	22.215748
172	4	7	0.087508345	-2.2582954	-0.7408488	22.495807
173	4	6	0.053149992	-0.56175573	-1.0417471	19.931314
174	4	6	0.053149992	-1.8412844	0.20394809	20.212249
175	4	5	0.31903514	-3.0066458	-2.4134559	20.687623
176	5	8	-0.16684416	0.0080982272	-0.1173759	17.153799
177	5	4	0.03611396	1.1029252	0.22748908	16.349956
178	5	4	-0.14451878	1.690521	1.5667468	16.801931
179	5	4	-0.13835341	2.9057776	1.9544092	15.946337
180	5	4	-0.14078289	3.6033528	3.2258689	16.454142
181	5	4	-0.13950884	2.7606915	4.4928612	16.225016
182	5	4	-0.13950884	3.5452572	5.7866687	16.504679
183	5	4	-0.14078289	4.0705146	5.9321148	17.947809
184	5	4	-0.134268	2.9969547	5.8296086	19.045556
185	5	4	-0.16644272	1.9203446	6.9197522	18.930322
186	5	4	0.089438969	0.97701637	6.9206659	20.136664
187	5	10	-0.68011921	0.20494396	5.7499927	20.164853
188	5	11	0.38481289	0.71478279	5.081523	20.69223
189	5	6	0.077666172	1.5516365	7.0487626	21.083317
190	5	6	0.077666172	0.28977815	7.7893937	20.047825
191	5	7	0.095478104	1.3180633	6.7670235	18.009304
192	5	7	0.095478104	2.4102521	7.915559	18.864282
193	5	7	0.088044056	3.5083055	5.9316789	20.027544
194	5	7	0.088044056	2.5288833	4.8220661	19.027605
195	5	7	0.086082475	4.848725	5.1616636	18.135233
196	5	7	0.086082475	4.5788772	6.917226	18.03703
197	5	7	0.086082475	2.8990563	6.6566622	16.259266
198	5	7	0.086082475	4.4131278	5.8362509	15.810795
199	5	7	0.086082475	2.4315177	4.5207284	15.163675
200	5	7	0.086082475	1.8442356	4.4688421	16.84918
201	5	7	0.086082475	4.5669722	3.3301206	15.908656
202	5	7	0.086082475	3.8362483	3.1084487	17.533504
203	5	7	0.088044056	2.5955123	2.0905088	14.887493
204	5	7	0.088044056	3.6450256	1.12373	15.975291
205	5	7	0.093122052	0.9048342	2.3470544	16.715269
206	5	7	0.093122052	1.9934317	1.4863053	17.869612
207	5	6	0.08641714	1.8728337	-0.56708709	16.444891
208	5	6	0.08641714	0.79394625	0.28204543	15.280814
209	6	1	0.54290378	-0.45853829	3.3973398	30.752941
210	6	2	-0.68689799	-0.34004379	4.614106	30.447975
211	6	3	-0.52234924	-0.42529811	2.3829898	29.745694
212	6	4	0.029514465	-0.26413217	2.714684	28.32879
213	6	4	-0.14658524	-0.21128948	1.45464	27.455871
214	6	4	-0.14528683	1.0951479	0.67022026	27.660081
215	6	4	0.023641288	1.1650003	-0.56708064	26.755676
216	6	3	-0.46608659	0.11352793	-1.528018	27.088389
217	6	1	0.78607339	0.15566941	-2.3493936	28.259106
218	6	2	-0.61061644	1.1265633	-2.2865149	29.059619
219	6	5	0.32561797	-0.67573173	-1.6620174	26.417741
220	6	6	0.056716324	2.1596875	-1.0517444	26.859292
221	6	6	0.056716324	1.0572047	-0.25356229	25.694434
222	6	7	0.088548259	1.1965298	0.36158609	28.721419
223	6	7	0.088548259	1.9570765	1.3293383	27.416599
224	6	7	0.088548259	-1.088375	0.81129631	27.686108
225	6	7	0.088548259	-0.28502643	1.7623909	26.390537
226	6	6	0.053149992	0.66275474	3.3111679	28.185903
227	6	6	0.053149992	-1.1273119	3.336582	28.00559
228	6	5	0.31903511	-0.53878342	1.389848	30.049647
229	7	8	-0.49768618	-0.62001039	-3.0115456	28.449806
230	7	4	0.11450049	-0.039177674	-4.1594483	29.007211
231	7	4	-0.13853189	0.32877085	-3.9084374	30.472058
232	7	4	-0.1396247	0.94758109	-5.1617565	31.108019
233	7	4	-0.14083354	1.209382	-4.9921528	32.613011
234	7	4	-0.13950884	2.3557797	-4.0087876	32.905343
235	7	4	-0.13950884	2.7825666	-4.0161467	34.383901
236	7	4	-0.14078289	1.6776148	-3.6231893	35.38426
237	7	4	-0.13835341	1.0234687	-2.2529049	35.128779
238	7	4	-0.14451878	2.0255596	-1.0908363	35.206408
239	7	4	0.03611396	1.3270791	0.27049661	35.144636
240	7	8	-0.16684416	0.74356857	0.47258542	33.88458
241	7	6	0.08641714	0.57208262	0.36128169	35.959213
242	7	6	0.08641714	2.0853272	1.0654649	35.307135
243	7	7	0.093122052	2.7521745	-1.1553746	34.368366
244	7	7	0.093122052	2.5895541	-1.1543848	36.162523
245	7	7	0.088044056	0.23874192	-2.1037328	35.902711
246	7	7	0.088044056	0.51012161	-2.2541358	34.143484
247	7	7	0.086082475	0.88581928	-4.4022813	35.383017
248	7	7	0.086082475	2.1136739	-3.6242614	36.406936
249	7	7	0.086082475	3.651271	-3.3341847	34.508216
250	7	7	0.086082475	3.1455103	-5.0339388	34.64648
251	7	7	0.086082475	3.2406595	-4.2943968	32.29734
252	7	7	0.086082475	2.0720858	-2.9791102	32.603074
253	7	7	0.086082475	1.4731941	-5.987522	33.030378
254	7	7	0.086082475	0.27473984	-4.6526085	33.109355
255	7	7	0.087866025	1.8960229	-5.4235321	30.587107
256	7	7	0.087866025	0.24647765	-6.0151766	30.97714
257	7	7	0.092004427	1.0522742	-3.0667109	30.516268
258	7	7	0.092004427	-0.5868545	-3.6178041	31.030177
259	7	6	0.086415352	-0.77503496	-4.9892267	28.946219
260	7	6	0.086415352	0.86392154	-4.4560461	28.425821
261	4	1	0.54290384	-0.5864049	3.1185863	31.790272
262	4	2	-0.68689805	0.098561152	2.1753182	32.267621
263	4	3	-0.5223493	-1.5291281	3.823227	32.602621
264	4	4	0.029806448	-1.7356264	3.4817587	34.008873
265	4	4	-0.14145344	-2.796167	4.3891846	34.641049
266	4	4	-0.12340714	-3.0177105	4.0356334	36.116038
267	4	4	0.18390685	-4.0820673	4.9423812	36.746487
268	4	3	-0.64393282	-4.2481399	4.6449481	38.165416
269	4	9	0.59327161	-4.7532961	3.5482845	38.570122
270	4	2	-0.46969631	-5.2436672	2.4821361	38.962014
271	4	6	0.031736904	-3.764302	6.0024187	36.647736
272	4	6	0.031736904	-5.0550753	4.8226793	36.219857
273	4	7	0.082437576	-2.0619743	4.1554004	36.673306
274	4	7	0.082437576	-3.3431215	2.9751579	36.19478
275	4	7	0.087508345	-3.7535411	4.2729676	34.085428
276	4	7	0.087508345	-2.4653147	5.4480655	34.559012
277	4	6	0.053149992	-2.0634831	2.4220651	34.082286
278	4	6	0.053149992	-0.77503883	3.5976217	34.557527
279	4	5	0.31903514	-2.0739303	4.5987343	32.160548
280	5	8	-0.16684416	-0.18101196	0.11371065	33.935371
281	5	4	0.03611396	-0.076149542	-1.2056715	34.395781
282	5	4	-0.14451878	0.19158905	-1.2207687	35.902847
283	5	4	-0.13835341	0.28985114	-2.6590896	36.432704
284	5	4	-0.14078289	0.42521585	-2.7163923	37.962239
285	5	4	-0.13950884	1.7920962	-2.2079723	38.45315
286	5	4	-0.13950884	2.0274876	-2.486432	39.948056
287	5	4	-0.14078289	1.0093001	-1.8289786	40.902374
288	5	4	-0.134268	0.87507942	-0.30251183	40.761062
289	5	4	-0.16644272	2.1884816	0.44078843	41.049611
290	5	4	0.089438969	1.9878251	1.9582808	41.095261
291	5	10	-0.68011921	1.6450919	2.4527295	39.828209
292	5	11	0.38481289	0.65494116	2.4255573	39.766751
293	5	6	0.077666172	1.2195495	2.2292217	41.856243
294	5	6	0.077666172	2.9431023	2.4323086	41.407703
295	5	7	0.095478104	2.9410809	0.2059903	40.266791
296	5	7	0.095478104	2.5919155	0.10817541	42.030739
297	5	7	0.088044056	0.103352	0.036458042	41.486139
298	5	7	0.088044056	0.5013409	-0.045325738	39.746799
299	5	7	0.086082475	0.010768155	-2.2916666	40.750099
300	5	7	0.086082475	1.3067047	-2.0655914	41.947555
301	5	7	0.086082475	3.052417	-2.1518614	40.216895
302	5	7	0.086082475	2.0034297	-3.585734	40.115658
303	5	7	0.086082475	2.5952154	-2.723716	37.883427
304	5	7	0.086082475	1.8979066	-1.1221112	38.253754
305	5	7	0.086082475	0.29936794	-3.7751501	38.27875
306	5	7	0.086082475	-0.39373935	-2.1253669	38.423816
307	5	7	0.088044056	1.1492638	-3.1799291	35.95723
308	5	7	0.088044056	-0.63437013	-3.2098235	36.150107
309	5	7	0.093122052	1.1420263	-0.68105031	36.100501
310	5	7	0.093122052	-0.63426836	-0.68516835	36.42175
311	5	6	0.08641714	-1.0319993	-1.7292705	34.182899
312	5	6	0.08641714	0.73755533	-1.7395728	33.853246
313	6	1	0.54290378	-0.35225283	0.79582931	55.530045
314	6	2	-0.68689799	-1.0795809	1.0386021	56.529856
315	6	3	-0.52234924	0.91653565	0.15503858	55.685355
316	6	4	0.029514465	1.423314	-0.23263962	57.003116
317	6	4	-0.14658524	2.7786712	-0.94327918	56.900703
318	6	4	-0.14528683	2.645872	-2.3446012	56.282273
319	6	4	0.023641288	3.9959507	-3.0705704	56.21904
320	6	3	-0.46608659	4.9317475	-2.3754193	55.335444
321	6	1	0.78607339	4.8196678	-2.4051383	53.909412
322	6	2	-0.61061644	3.8997598	-3.0557562	53.345608
323	6	5	0.32561797	5.7488126	-1.8806294	55.757633
324	6	6	0.056716324	3.845774	-4.1111428	55.85891
325	6	6	0.056716324	4.4287609	-3.1320878	57.241312
326	6	7	0.088548259	2.2123659	-2.275564	55.262823
327	6	7	0.088548259	1.9519231	-2.952143	56.903537
328	6	7	0.088548259	3.4757015	-0.31989239	56.299274
329	6	7	0.088548259	3.2031321	-1.0385625	57.923365
330	6	6	0.053149992	0.68768864	-0.89524938	57.508222
331	6	6	0.053149992	1.5460447	0.68191351	57.623458
332	6	5	0.31903511	1.486045	-0.014064117	54.825901
333	7	8	-0.49768618	5.508583	-1.8897847	53.329501
334	7	4	0.11450049	5.7417276	-2.674994	52.191592
335	7	4	-0.13853189	4.5719389	-2.5478194	51.212004
336	7	4	-0.1396247	4.8175214	-3.384358	49.947855
337	7	4	-0.14083354	3.7275641	-3.1798746	48.883672
338	7	4	-0.13950884	2.3785972	-3.7944959	49.295038
339	7	4	-0.13950884	1.356079	-3.8075288	48.144986
340	7	4	-0.14078289	0.98830324	-2.4202129	47.582714
341	7	4	-0.13835341	0.45926207	-1.4144593	48.621671
342	7	4	-0.14451878	-0.82975997	-1.8906479	49.308899
343	7	4	0.03611396	-1.4438781	-0.79902062	50.18988
344	7	8	-0.16684416	-0.61432698	-0.52106185	51.286989
345	7	6	0.08641714	-1.6457569	0.11974944	49.592465
346	7	6	0.08641714	-2.4195014	-1.1626478	50.576216
347	7	7	0.093122052	-0.62057477	-2.7805634	49.940359
348	7	7	0.093122052	-1.5743174	-2.1793644	48.535231
349	7	7	0.088044056	0.25261702	-0.45869433	48.091737
350	7	7	0.088044056	1.2438411	-1.2015167	49.378919
351	7	7	0.086082475	1.8753539	-1.9799449	47.079493
352	7	7	0.086082475	0.21740016	-2.554818	46.793028
353	7	7	0.086082475	0.43346963	-4.3200491	48.493251
354	7	7	0.086082475	1.7606004	-4.4252946	47.313538
355	7	7	0.086082475	2.5426609	-4.8464077	49.612556
356	7	7	0.086082475	1.9541747	-3.2540597	50.166748
357	7	7	0.086082475	4.0709596	-3.6612111	47.942956
358	7	7	0.086082475	3.6110004	-2.0924478	48.685885
359	7	7	0.087866025	4.8878042	-4.4631668	50.213655
360	7	7	0.087866025	5.791261	-3.0847497	49.501686
361	7	7	0.092004427	3.6461244	-2.8936673	51.719125
362	7	7	0.092004427	4.4460984	-1.479055	50.935887
363	7	6	0.086415352	6.6741028	-2.3180654	51.704749
364	7	6	0.086415352	5.8904186	-3.7404487	52.481884
365	4	1	0.54290384	-0.69391255	1.0759575	54.542672
366	4	2	-0.68689805	-0.60305695	0.24837645	53.597341
367	4	3	-0.5223493	-1.2422885	2.3787423	54.325438
368	4	4	0.029806448	-1.7165808	2.8011663	53.008853
369	4	4	-0.14145344	-2.2529739	4.2356911	53.05613
370	4	4	-0.12340714	-2.751529	4.6848434	51.677951
371	4	4	0.18390685	-3.2848157	6.1221341	51.726065
372	4	3	-0.64393282	-3.8145653	6.5267667	50.427973
373	4	9	0.59327161	-3.0610029	6.6999838	49.416153
374	4	2	-0.46969631	-2.3278376	6.8673305	48.433718
375	4	6	0.031736904	-4.1063423	6.1824783	52.471624
376	4	6	0.031736904	-2.4805047	6.8240658	52.040372
377	4	7	0.082437576	-3.5658987	4.0062633	51.339344
378	4	7	0.082437576	-1.9149816	4.6261731	50.947577
379	4	7	0.087508345	-1.4413166	4.9174103	53.395626
380	4	7	0.087508345	-3.0888792	4.2880623	53.78821
381	4	6	0.053149992	-0.87648327	2.7436259	52.283074
382	4	6	0.053149992	-2.525405	2.1146616	52.674656
383	4	5	0.31903514	-1.2966079	3.0300379	55.14184
384	5	8	-0.16684416	0.0068263249	0.19950035	51.00207
385	5	4	0.03611396	0.62070313	-0.24128895	49.821985
386	5	4	-0.14451878	-0.34396343	-0.10642273	48.641142
387	5	4	-0.13835341	0.31625003	-0.56539999	47.332467
388	5	4	-0.14078289	-0.57456286	-0.32030351	46.104678
389	5	4	-0.13950884	-1.8002183	-1.2500343	46.069816
390	5	4	-0.13950884	-2.559981	-1.181465	44.733496
391	5	4	-0.14078289	-3.123764	0.20874827	44.374149
392	5	4	-0.134268	-4.0516332	0.82943478	45.433343
393	5	4	-0.16644272	-5.3028661	-0.020922898	45.701837
394	5	4	0.089438969	-6.3024005	0.70384724	46.6078
395	5	10	-0.68011921	-5.7771234	0.86550688	47.898272
396	5	11	0.38481289	-5.2953634	1.7331216	47.906391
397	5	6	0.077666172	-6.5938381	1.6842152	46.164301
398	5	6	0.077666172	-7.2244349	0.087964118	46.681405
399	5	7	0.095478104	-5.0174514	-0.98000836	46.184577
400	5	7	0.095478104	-5.804352	-0.25292986	44.737116
401	5	7	0.088044056	-4.3686289	1.8276878	45.060242
402	5	7	0.088044056	-3.4913801	0.99982154	46.37761
403	5	7	0.086082475	-2.2823182	0.90815723	44.181458
404	5	7	0.086082475	-3.6830493	0.12222721	43.416783
405	5	7	0.086082475	-3.3898044	-1.9201034	44.755823
406	5	7	0.086082475	-1.8771666	-1.5029537	43.916462
407	5	7	0.086082475	-1.4618881	-2.2992667	46.212017
408	5	7	0.086082475	-2.4908238	-1.0150168	46.905208
409	5	7	0.086082475	0.038966381	-0.49809768	45.194208
410	5	7	0.086082475	-0.89696479	0.74223328	46.093562
411	5	7	0.088044056	0.58006717	-1.6433115	47.399148
412	5	7	0.088044056	1.2614366	0.0031326533	47.188429
413	5	7	0.093122052	-1.2443314	-0.72396088	48.845294
414	5	7	0.093122052	-0.65735854	0.95740896	48.550507
415	5	6	0.08641714	1.5208324	0.38292818	49.639658
416	5	6	0.08641714	0.95163888	-1.2995509	49.931863
417	6	1	0.54290378	1.1551674	-4.4309973	68.900165
418	6	2	-0.68689799	0.88354063	-5.5081351	69.494772
419	6	3	-0.52234924	1.9749744	-4.4274367	67.728644
420	6	4	0.029514465	2.5366974	-5.6642315	67.182367
421	6	4	-0.14658524	3.3370759	-5.4034119	65.900237
422	6	4	-0.14528683	2.4249014	-5.0233817	64.722395
423	6	4	0.023641288	3.222858	-4.8037735	63.430583
424	6	3	-0.46608659	4.1368897	-3.6688181	63.557529
425	6	1	0.78607339	3.6916634	-2.3091825	63.544281
426	6	2	-0.61061644	2.471117	-2.0288184	63.406177
427	6	5	0.32561797	5.1637408	-3.8530747	63.605302
428	6	6	0.056716324	2.524871	-4.6277448	62.583904
429	6	6	0.056716324	3.8039815	-5.7222859	63.196533
430	6	7	0.088548259	1.847355	-4.1066974	64.963435
431	6	7	0.088548259	1.6961801	-5.8448375	64.546849
432	6	7	0.088548259	4.0804827	-4.5984255	66.08871
433	6	7	0.088548259	3.8954295	-6.3286119	65.640754
434	6	6	0.053149992	1.7194107	-6.3885244	66.975554
435	6	6	0.053149992	3.2138016	-6.1158683	67.939894
436	6	5	0.31903511	2.179415	-3.506697	67.279156
437	7	8	-0.49768618	4.382851	-1.5417084	63.642943
438	7	4	0.11450049	3.947651	-0.5009096	62.810425
439	7	4	-0.13853189	2.7787205	0.24372647	63.461032
440	7	4	-0.1396247	2.3004706	1.4023981	62.573937
441	7	4	-0.14083354	1.2157392	2.2553175	63.250835
442	7	4	-0.13950884	-0.12428331	1.5109633	63.381102
443	7	4	-0.13950884	-1.2731325	2.42995	63.832703
444	7	4	-0.14078289	-1.0723846	3.0987996	65.206892
445	7	4	-0.13835341	-0.80999576	2.1280167	66.372906
446	7	4	-0.14451878	-1.9694029	1.1464792	66.603069
447	7	4	0.03611396	-1.7767293	0.32478338	67.880806
448	7	8	-0.16684416	-0.68139202	-0.54292814	67.752829
449	7	6	0.08641714	-1.6612243	0.99436077	68.764051
450	7	6	0.08641714	-2.6872573	-0.28857598	68.048287
451	7	7	0.093122052	-2.0572085	0.44925297	65.742479
452	7	7	0.093122052	-2.9211139	1.7148136	66.689829
453	7	7	0.088044056	-0.66541806	2.7362791	67.292761
454	7	7	0.088044056	0.13665159	1.5727635	66.200028
455	7	7	0.086082475	-0.22918097	3.8193701	65.145966
456	7	7	0.086082475	-1.9784864	3.6991046	65.440617
457	7	7	0.086082475	-2.2168317	1.8430132	63.843243
458	7	7	0.086082475	-1.411962	3.2292856	63.072199
459	7	7	0.086082475	-0.40001552	1.0874765	62.391717
460	7	7	0.086082475	-0.028995456	0.65791903	64.084892
461	7	7	0.086082475	1.062658	3.1680672	62.636013
462	7	7	0.086082475	1.5767283	2.5765648	64.25168
463	7	7	0.087866025	1.9200479	1.007391	61.605089
464	7	7	0.087866025	3.1654571	2.0646012	62.349691
465	7	7	0.092004427	1.947398	-0.47492398	63.623388
466	7	7	0.092004427	3.1046534	0.63668517	64.447787
467	7	6	0.086415352	4.7945089	0.20084636	62.655157
468	7	6	0.086415352	3.6460847	-0.90278729	61.815878
469	4	1	0.54290384	0.7619089	-3.4984217	69.281951
470	4	2	-0.68689805	0.23096341	-2.6779353	68.487159
471	4	3	-0.5223493	0.85048648	-3.2112219	70.680102
472	4	4	0.029806448	0.33294226	-1.9644898	71.24099
473	4	4	-0.14145344	0.55544181	-1.913591	72.756153
474	4	4	-0.12340714	0.015164077	-0.6079599	73.350374
475	4	4	0.18390685	0.24179917	-0.55689222	74.866469
476	4	3	-0.64393282	-0.32697695	0.65874507	75.439291
477	4	9	0.59327161	0.15813	1.8105442	75.195014
478	4	2	-0.46969631	0.63002594	2.9290615	74.956376
479	4	6	0.031736904	-0.2550753	-1.4305498	75.340013
480	4	6	0.031736904	1.3289411	-0.60993887	75.098248
481	4	7	0.082437576	-1.0753912	-0.52998531	73.143171
482	4	7	0.082437576	0.52920372	0.25406517	72.871441
483	4	7	0.087508345	1.6453566	-1.9925121	72.967442
484	4	7	0.087508345	0.039414685	-2.7780272	73.229321
485	4	6	0.053149992	0.85161826	-1.1060898	70.761454
486	4	6	0.053149992	-0.75553993	-1.8908382	71.024299
487	4	5	0.31903514	1.3000441	-3.9240041	71.299366
488	5	8	-0.16684416	0.11714335	-0.046448392	68.072312
489	5	4	0.03611396	0.15725651	1.1564373	67.354538
490	5	4	-0.14451878	-0.8805581	2.1370523	67.90635
491	5	4	-0.13835341	-0.83968948	3.4712209	67.146419
492	5	4	-0.14078289	-1.7741891	4.526984	67.757288
493	5	4	-0.13950884	-3.261037	4.1958985	67.539316
494	5	4	-0.13950884	-4.1916361	5.3576717	67.929138
495	5	4	-0.14078289	-4.1089012	5.792146	69.406995
496	5	4	-0.134268	-4.3613732	4.6714507	70.430902
497	5	4	-0.16644272	-5.761596	4.0518185	70.303572
498	5	4	0.089438969	-6.062739	3.0807131	71.448735
499	5	10	-0.68011921	-5.2355628	1.9505147	71.372596
500	5	11	0.38481289	-4.4183374	2.1560384	71.896826
501	5	6	0.077666172	-5.9586461	3.5921503	72.433796
502	5	6	0.077666172	-7.1188118	2.7463035	71.360658
503	5	7	0.095478104	-5.851663	3.5040701	69.341177
504	5	7	0.095478104	-6.5245745	4.8603392	70.316227
505	5	7	0.088044056	-4.2541602	5.1120828	71.446061
506	5	7	0.088044056	-3.5818244	3.8855031	70.335272
507	5	7	0.086082475	-3.1106533	6.2383995	69.603701
508	5	7	0.086082475	-4.8516107	6.6026892	69.575041
509	5	7	0.086082475	-5.2383782	5.0736839	67.687531
510	5	7	0.086082475	-3.9516274	6.2377361	67.292729
511	5	7	0.086082475	-3.4281947	3.9765678	66.462502
512	5	7	0.086082475	-3.54368	3.2844562	68.104502
513	5	7	0.086082475	-1.5482751	5.5045277	67.277333
514	5	7	0.086082475	-1.5563786	4.6238865	68.841824
515	5	7	0.088044056	-1.1015425	3.3069456	66.07853
516	5	7	0.088044056	0.19746628	3.8719029	67.179822
517	5	7	0.093122052	-1.8881854	1.679754	67.810123
518	5	7	0.093122052	-0.67318788	2.3131128	68.985316
519	5	6	0.08641714	1.1729333	1.5934185	67.457354
520	5	6	0.08641714	-0.028027766	0.96582833	66.272481
521	6	1	0.54290378	-4.5654804	16.96504	1.0614389
522	6	2	-0.68689799	-5.7393951	16.611571	0.77066581
523	6	3	-0.52234924	-4.1984956	17.244434	2.414886
524	6	4	0.029514465	-5.1667632	17.14235	3.5083437
525	6	4	-0.14658524	-4.5200141	17.444301	4.8659267
526	6	4	-0.14528683	-3.5579776	16.327721	5.3035686
527	6	4	0.023641288	-2.9439115	16.610997	6.6806739
528	6	3	-0.46608659	-2.1104094	17.812755	6.6533396
529	6	1	0.78607339	-0.81764211	17.846237	6.0412589
530	6	2	-0.61061644	-0.32954404	16.817317	5.5022847