Title

219 atoms
236 bonds
401 angles
639 dihedrals
300 impropers

11 atom types
15 bond types
8 angle types
22 dihedral types
3 improper types
-24.10899925 75.89100075 xlo xhi
-4.603000164 95.39699984 ylo yhi
-24.47699928 75.52300072 zlo zhi
0.0 0.0 0.0 xy xz yz

Masses

1	14.00672
2	12.01078
3	1.007947
4	15.99943
5	12.01078
6	1.007947
7	18.998403
8	1.007947
9	15.99943
10	15.99943
11	1.007947


Pair Coeffs

1	0.16769152	3.206876
2	0.086879315	3.4806469
3	0.015611343	2.5725815
4	0.16846514	3.0251065
5	0.10884061	3.3795318
6	0.014090815	1.1034277
7	0.061	3.1181455
8	0.015779483	2.6445434
9	0.2102061	3.0398122
10	0.20947353	2.99716
11	1.2326e-05	0.53453923

Bond Coeffs

1 harmonic	390.03554688505	1.390160554689
2 harmonic	505.144496193	1.019481865027
3 harmonic	422.7150220147	1.421786517481
4 harmonic	360.7852444772	1.387193227181
5 harmonic	397.2545789619	1.085358495916
6 harmonic	279.1350963404	1.454628925034
7 harmonic	425.69104206635	1.362945806494
8 harmonic	289.73813263395	1.498646816465
9 harmonic	264.62148576755	1.52190126495
10 harmonic	492.76746816345	1.381897776683
11 harmonic	340.45121009905	1.358690858053
12 harmonic	370.04670688625	1.093899492634
13 harmonic	582.698766451	1.225198386222
14 harmonic	385.7604595587	1.369745182308
15 harmonic	543.5267831885	0.9716763312559


Angle Coeffs

1 harmonic	57.8982893754	126.8062420451
2 harmonic	55.42182150775	117.3465570514
3 harmonic	63.44422595415	115.5071327674
4 harmonic	34.066775159195	129.1835929926
5 harmonic	65.09061609600001	110.3538806181
6 harmonic	53.20531626545	116.5475862634
7 harmonic	48.776492647595	115.6030999533
8 harmonic	201.41175231035	127.4691416191


Dihedral Coeffs

1 fourier 1	3.661930099076	2	180
2 fourier 1	1.193093382682	2	180
3 fourier 1	0.02021088501612	1	0
4 fourier 1	1.163235555439	2	180
5 fourier 1	1.532232714475	2	180
6 fourier 1	0.02664938770063	3	0
7 fourier 1	0.1155372516788	3	0
8 fourier 1	0.1040663847541	3	0
9 fourier 1	0.09223874044423	3	0
10 fourier 1	0.3159935921949	2	180
11 fourier 1	0.3247796806857	1	180
12 fourier 1	3.101948770557	2	180
13 fourier 1	-0.4252153282372	1	0
14 fourier 1	1.809047390003	2	180
15 fourier 1	-0.04816277792592	1	0
16 fourier 1	0.9974165607242	2	180
17 fourier 1	2.348375642009	2	180
18 fourier 1	1.256156174911	1	0
19 fourier 1	0.1911926717192	3	0
20 fourier 1	2.687457892086	2	180
21 fourier 1	2.772607909663	2	180
22 fourier 1	0.09692684957115	1	0


Improper Coeffs

1 0.3666666666666667	-1	2
2 0.3333333333333333	-1	2
3 3.5	-1	2


Atoms

1	1	1	-0.41220301	14.317	0.495	-0.056000002
2	1	2	0.12605999	12.923	0.41	0.25799999
3	1	2	-0.407233	12.207	1.527	0.48800001
4	1	3	0.22092099	12.682	2.5009999	0.447
5	1	2	-0.114931	10.761	1.434	0.79000002
6	1	3	0.203335	10.206	2.3499999	0.96799999
7	1	2	-0.12850299	10.143	0.237	0.81800002
8	1	2	-0.13472299	8.6929998	0.148	1.094
9	1	2	-0.13012899	7.8779998	-0.51300001	0.25099999
10	1	3	0.206625	8.2690001	-1.003	-0.625
11	1	2	-0.29649201	6.421	-0.51300001	0.47499999
12	1	3	0.22358701	5.7909999	-1.021	-0.244
13	1	2	0.328601	5.8920002	0.12800001	1.536
14	1	4	-0.27253199	4.5079999	0.198	1.765
15	1	2	0.25844499	3.5179999	-0.156	0.83899999
16	1	2	-0.26811501	2.7720001	0.80500001	0.26899999
17	1	3	0.227191	2.961	1.845	0.49599999
18	1	2	-0.175515	1.6569999	0.44999999	-0.62599999
19	1	3	0.217296	1.054	1.252	-1.041
20	1	2	-0.187702	1.349	-0.84500003	-0.87900001
21	1	5	0.015449	0.077	-1.164	-1.6950001
22	1	2	-0.187702	-1.137	-0.59600002	-0.912
23	1	2	-0.175515	-2.2279999	-0.055	-1.507
24	1	3	0.217296	-2.313	0.028000001	-2.5780001
25	1	2	-0.26811501	-3.3440001	0.49700001	-0.70599997
26	1	3	0.227191	-4.1739998	0.97899997	-1.214
27	1	2	0.25844499	-3.3069999	0.433	0.634
28	1	4	-0.27253199	-4.3099999	0.99199998	1.4349999
29	1	2	0.328601	-5.677	1.028	1.118
30	1	2	-0.29649201	-6.2979999	2.2160001	1.122
31	1	3	0.22358701	-5.7379999	3.122	1.316
32	1	2	-0.13012899	-7.75	2.309	0.88099998
33	1	3	0.206625	-8.2119999	3.283	0.92400002
34	1	2	-0.13472299	-8.4779997	1.2029999	0.65100002
35	1	2	-0.12850299	-9.9549999	1.273	0.52600002
36	1	2	-0.128942	-10.613	0.495	-0.354
37	1	3	0.203335	-10.076	-0.15899999	-1.029
38	1	2	-0.375348	-12.091	0.51800001	-0.41800001
39	1	3	0.217401	-12.599	-0.131	-1.1160001
40	1	2	0.19832399	-12.791	1.306	0.40900001
41	1	1	-0.53240502	-14.219	1.313	0.37599999
42	1	6	0.31918401	-14.765	1.936	1.012
43	1	2	-0.375348	-12.074	2.171	1.369
44	1	3	0.217401	-12.627	2.813	2.0409999
45	1	2	-0.128942	-10.738	2.161	1.4220001
46	1	3	0.203335	-10.232	2.773	2.1570001
47	1	2	-0.057312999	-7.7940001	-0.113	0.62300003
48	1	3	0.20568199	-8.3909998	-1.001	0.46200001
49	1	2	-0.32254699	-6.4720001	-0.22	0.87400001
50	1	5	0.76639599	-5.8189998	-1.5880001	0.94499999
51	1	7	-0.208553	-6.7529998	-2.586	1.1670001
52	1	7	-0.208553	-5.1599998	-1.854	-0.245
53	1	7	-0.208553	-4.9109998	-1.631	1.988
54	1	2	-0.26811501	-2.1619999	-0.222	1.298
55	1	3	0.227191	-2.151	-0.32300001	2.378
56	1	2	-0.175515	-1.1569999	-0.72799999	0.57700002
57	1	3	0.217296	-0.354	-1.247	1.089
58	1	5	-0.12909	-0.133	-2.698	-1.844
59	1	8	0.111131	-0.29800001	-3.1689999	-0.85100001
60	1	8	0.111131	0.77399999	-3.1570001	-2.293
61	1	5	-0.128838	-1.324	-3.0539999	-2.7509999
62	1	8	0.11353	-1.279	-4.1409998	-2.9719999
63	1	8	0.11353	-2.2780001	-2.8800001	-2.2049999
64	1	5	-0.150391	-1.352	-2.2709999	-4.0760002
65	1	8	0.116227	-2.237	-1.607	-4.1030002
66	1	8	0.116227	-1.471	-2.9779999	-4.9250002
67	1	5	-0.128838	-0.090999998	-1.438	-4.3130002
68	1	8	0.11353	-0.227	-0.81300002	-5.223
69	1	8	0.11353	0.75599998	-2.131	-4.5139999
70	1	5	-0.12909	0.27200001	-0.52399999	-3.1259999
71	1	8	0.111131	1.342	-0.26699999	-3.2909999
72	1	8	0.111131	-0.25099999	0.45300001	-3.217
73	1	2	-0.175515	2.214	-1.9069999	-0.264
74	1	3	0.217296	2.0250001	-2.9560001	-0.42699999
75	1	2	-0.26811501	3.2349999	-1.574	0.54500002
76	1	3	0.227191	3.835	-2.349	1.005
77	1	2	-0.32254699	6.7930002	0.81199998	2.5090001
78	1	5	0.76639599	6.1960001	1.451	3.7390001
79	1	7	-0.208553	5.6079998	0.47400001	4.5190001
80	1	7	-0.208553	7.1529999	2.115	4.4920001
81	1	7	-0.208553	5.2309999	2.3640001	3.365
82	1	2	-0.057312999	8.1219997	0.81999999	2.2839999
83	1	3	0.20568199	8.8009996	1.303	2.973
84	1	2	-0.114931	10.936	-0.99400002	0.56400001
85	1	3	0.203335	10.46	-1.97	0.58700001
86	1	2	-0.407233	12.252	-0.91000003	0.31799999
87	1	3	0.22092099	12.832	-1.816	0.148
88	1	6	0.372421	14.89	-0.37400001	-0.13600001
89	1	2	0.76775098	-14.76	0.68300003	-0.289
90	1	9	-0.65947199	-15.218	-0.40799999	0.14300001
91	1	2	-0.36961001	-14.964	1.086	-1.692
92	1	2	-0.079804003	-14.467	2.2539999	-2.135
93	1	3	0.221801	-13.914	2.9089999	-1.472
94	1	2	-0.21230499	-14.666	2.6689999	-3.54
95	1	3	0.203146	-14.257	3.6140001	-3.8759999
96	1	2	-0.117995	-15.347	1.878	-4.3829999
97	1	2	0.031215001	-15.567	2.256	-5.7930002
98	1	3	0.21270201	-15.167	3.198	-6.1529999
99	1	2	-0.322642	-16.254	1.444	-6.6199999
100	1	2	0.58784097	-16.481001	1.811	-8.0310001
101	1	9	-0.52842897	-16.041	2.891	-8.507
102	1	2	-0.032814998	-16.804001	0.152	-6.1279998
103	1	3	0.216673	-17.353001	-0.486	-6.8099999
104	1	2	-0.205562	-16.639999	-0.25099999	-4.8610001
105	1	3	0.203146	-17.056999	-1.2	-4.546
106	1	2	-0.14044	-15.898	0.58899999	-3.904
107	1	2	-0.040922999	-15.718	0.211	-2.628
108	1	3	0.219135	-16.122	-0.73199999	-2.279
109	1	1	-0.41220301	14.755	1.408	-0.28799999
110	1	2	0.12605999	15.797	1.493	-1.266
111	1	2	-0.407233	16.389	0.377	-1.73
112	1	3	0.22092099	16.089001	-0.59799999	-1.36
113	1	2	-0.114931	17.450001	0.46900001	-2.7579999
114	1	3	0.203335	17.909	-0.447	-3.1170001
115	1	2	-0.12850299	17.82	1.666	-3.2539999
116	1	2	-0.13472299	18.861	1.755	-4.3000002
117	1	2	-0.13012899	18.621	2.4159999	-5.447
118	1	3	0.206625	17.676001	2.9070001	-5.6139998
119	1	2	-0.29649201	19.622999	2.4170001	-6.527
120	1	3	0.22358701	19.381001	2.925	-7.4520001
121	1	2	0.328601	20.799	1.775	-6.3709998
122	1	4	-0.27253199	21.764	1.705	-7.388
123	1	2	0.25844499	21.552999	2.059	-8.7270002
124	1	2	-0.26811501	21.5	1.099	-9.665
125	1	3	0.227191	21.582001	0.057999998	-9.3800001
126	1	2	-0.175515	21.384001	1.4529999	-11.089
127	1	3	0.217296	21.379	0.65100002	-11.821
128	1	2	-0.187702	21.348	2.7479999	-11.486
129	1	5	0.015449	21.385	3.0669999	-12.997
130	1	2	-0.187702	22.714001	2.4990001	-13.563
131	1	2	-0.175515	22.834	1.9579999	-14.8
132	1	3	0.217296	21.993999	1.875	-15.471
133	1	2	-0.26811501	24.122999	1.406	-15.275
134	1	3	0.227191	24.167999	0.92400002	-16.246
135	1	2	0.25844499	25.211	1.47	-14.492
136	1	4	-0.27253199	26.437	0.91100001	-14.873
137	1	2	0.328601	26.941999	0.875	-16.183001
138	1	2	-0.29649201	27.292	-0.31200001	-16.695
139	1	3	0.22358701	27.139	-1.219	-16.122
140	1	2	-0.13012899	27.908001	-0.40599999	-18.032
141	1	3	0.206625	28.202	-1.38	-18.391001
142	1	2	-0.13472299	28.125999	0.69999999	-18.764
143	1	2	-0.12850299	28.851	0.63	-20.056999
144	1	2	-0.078305997	28.490999	1.408	-21.096001
145	1	3	0.203335	27.631001	2.062	-21.028999
146	1	2	-0.45136899	29.266001	1.385	-22.355
147	1	3	0.229423	28.974001	2.0339999	-23.167
148	1	2	0.31739399	30.344999	0.597	-22.469999
149	1	1	-0.84498298	31.118	0.58999997	-23.672001
150	1	6	0.36582899	30.875	1.209	-24.476999
151	1	6	0.36582899	31.951	-0.033	-23.766001
152	1	2	-0.45136899	30.737	-0.26800001	-21.337999
153	1	3	0.229423	31.603001	-0.91000003	-21.419001
154	1	2	-0.078305997	30.032	-0.25799999	-20.202
155	1	3	0.203335	30.356001	-0.87	-19.371
156	1	2	-0.057312999	27.719	2.016	-18.214001
157	1	3	0.20568199	27.921	2.904	-18.798
158	1	2	-0.32254699	27.184999	2.1240001	-16.978001
159	1	5	0.76639599	26.877001	3.4909999	-16.398001
160	1	7	-0.208553	27.584999	4.4889998	-17.046
161	1	7	-0.208553	25.523001	3.757	-16.52
162	1	7	-0.208553	27.232	3.5339999	-15.061
163	1	2	-0.26811501	25.118999	2.1259999	-13.172
164	1	3	0.227191	26.007	2.2260001	-12.558
165	1	2	-0.175515	23.958	2.631	-12.745
166	1	3	0.217296	23.931999	3.1500001	-11.793
167	1	5	-0.12909	21.379999	4.6009998	-13.255
168	1	8	0.111131	22.295	5.072	-12.834
169	1	8	0.111131	20.499001	5.0609999	-12.755
170	1	5	-0.128838	21.297001	4.9569998	-14.749
171	1	8	0.11353	21.087999	6.0450001	-14.835
172	1	8	0.11353	22.283001	4.783	-15.233
173	1	5	-0.150391	20.215	4.1739998	-15.516
174	1	8	0.116227	20.688999	3.51	-16.264
175	1	8	0.116227	19.579	4.881	-16.09
176	1	5	-0.128838	19.312	3.3410001	-14.604
177	1	8	0.11353	18.634001	2.7160001	-15.227
178	1	8	0.11353	18.671	4.0339999	-14.016
179	1	5	-0.12909	20.091	2.427	-13.638
180	1	8	0.111131	19.354	2.1700001	-12.845
181	1	8	0.111131	20.309	1.451	-14.122
182	1	2	-0.175515	21.371	3.8110001	-10.425
183	1	3	0.217296	21.341999	4.8590002	-10.673
184	1	2	-0.26811501	21.468	3.477	-9.1260004
185	1	3	0.227191	21.513	4.2529998	-8.3710003
186	1	2	-0.32254699	21.099001	1.092	-5.079
187	1	5	0.76639599	22.451	0.45199999	-4.8829999
188	1	7	-0.208553	23.427999	1.429	-4.9330001
189	1	7	-0.208553	22.539	-0.212	-3.6689999
190	1	7	-0.208553	22.684	-0.461	-5.8920002
191	1	2	-0.057312999	20.167	1.0829999	-4.105
192	1	3	0.20568199	20.357	0.60000002	-3.1559999
193	1	2	-0.114931	17.164	2.8970001	-2.74
194	1	3	0.203335	17.451	3.8729999	-3.1210001
195	1	2	-0.407233	16.223	2.8139999	-1.788
196	1	3	0.22092099	15.757	3.72	-1.403
197	1	6	0.372421	14.367	2.277	0.141
198	1	2	0.58784097	-17.035999	1.142	-8.677
199	1	9	-0.52842897	-16.743999	1.097	-9.9020004
200	1	2	-0.322642	-18.115	0.303	-8.1260004
201	1	2	-0.032814998	-18.413	0.366	-6.816
202	1	3	0.216673	-17.868	1.029	-6.1550002
203	1	2	-0.205562	-19.493	-0.472	-6.2519999
204	1	3	0.203146	-19.715	-0.405	-5.1939998
205	1	2	-0.140826	-20.184	-1.301	-7.0479999
206	1	2	-0.0046359999	-21.268999	-2.1530001	-6.5219998
207	1	3	0.223361	-21.507999	-2.102	-5.4660001
208	1	2	-0.253681	-21.951	-2.98	-7.3390002
209	1	2	0.83949602	-23.037001	-3.8299999	-6.8010001
210	1	9	-0.489342	-23.676001	-4.6030002	-7.5650001
211	1	10	-0.66556102	-23.367001	-3.7850001	-5.448
212	1	11	0.41733399	-24.108999	-4.3639998	-5.0739999
213	1	2	-0.059930999	-21.618	-3.046	-8.7919998
214	1	3	0.23380101	-22.173	-3.7149999	-9.4379997
215	1	2	-0.212247	-20.646	-2.3010001	-9.3310003
216	1	3	0.203146	-20.438	-2.382	-10.392
217	1	2	-0.117995	-19.863001	-1.377	-8.4919996
218	1	2	0.031215001	-18.882999	-0.61699998	-9.0050001
219	1	3	0.21270201	-18.649	-0.67400002	-10.062

Bonds

1	1	1	2
2	2	1	88
3	3	1	109
4	4	2	3
5	4	2	86
6	5	3	4
7	4	3	5
8	5	5	6
9	4	5	7
10	6	7	8
11	4	7	84
12	4	8	9
13	4	8	82
14	5	9	10
15	4	9	11
16	5	11	12
17	4	11	13
18	7	13	14
19	4	13	77
20	7	14	15
21	4	15	16
22	4	15	75
23	5	16	17
24	4	16	18
25	5	18	19
26	4	18	20
27	8	20	21
28	4	20	73
29	8	21	22
30	9	21	58
31	9	21	70
32	4	22	23
33	4	22	56
34	5	23	24
35	4	23	25
36	5	25	26
37	4	25	27
38	7	27	28
39	4	27	54
40	7	28	29
41	4	29	30
42	4	29	49
43	5	30	31
44	4	30	32
45	5	32	33
46	4	32	34
47	6	34	35
48	4	34	47
49	4	35	36
50	4	35	45
51	5	36	37
52	4	36	38
53	5	38	39
54	4	38	40
55	1	40	41
56	4	40	43
57	2	41	42
58	10	41	89
59	5	43	44
60	4	43	45
61	5	45	46
62	5	47	48
63	4	47	49
64	8	49	50
65	11	50	51
66	11	50	52
67	11	50	53
68	5	54	55
69	4	54	56
70	5	56	57
71	12	58	59
72	12	58	60
73	9	58	61
74	12	61	62
75	12	61	63
76	9	61	64
77	12	64	65
78	12	64	66
79	9	64	67
80	12	67	68
81	12	67	69
82	9	67	70
83	12	70	71
84	12	70	72
85	5	73	74
86	4	73	75
87	5	75	76
88	8	77	78
89	4	77	82
90	11	78	79
91	11	78	80
92	11	78	81
93	5	82	83
94	5	84	85
95	4	84	86
96	5	86	87
97	13	89	90
98	6	89	91
99	4	91	92
100	4	91	107
101	5	92	93
102	4	92	94
103	5	94	95
104	4	94	96
105	4	96	97
106	4	96	106
107	5	97	98
108	4	97	99
109	6	99	100
110	4	99	102
111	13	100	101
112	6	100	198
113	5	102	103
114	4	102	104
115	5	104	105
116	4	104	106
117	4	106	107
118	5	107	108
119	1	109	110
120	2	109	197
121	4	110	111
122	4	110	195
123	5	111	112
124	4	111	113
125	5	113	114
126	4	113	115
127	6	115	116
128	4	115	193
129	4	116	117
130	4	116	191
131	5	117	118
132	4	117	119
133	5	119	120
134	4	119	121
135	7	121	122
136	4	121	186
137	7	122	123
138	4	123	124
139	4	123	184
140	5	124	125
141	4	124	126
142	5	126	127
143	4	126	128
144	8	128	129
145	4	128	182
146	8	129	130
147	9	129	167
148	9	129	179
149	4	130	131
150	4	130	165
151	5	131	132
152	4	131	133
153	5	133	134
154	4	133	135
155	7	135	136
156	4	135	163
157	7	136	137
158	4	137	138
159	4	137	158
160	5	138	139
161	4	138	140
162	5	140	141
163	4	140	142
164	6	142	143
165	4	142	156
166	4	143	144
167	4	143	154
168	5	144	145
169	4	144	146
170	5	146	147
171	4	146	148
172	1	148	149
173	4	148	152
174	2	149	150
175	2	149	151
176	5	152	153
177	4	152	154
178	5	154	155
179	5	156	157
180	4	156	158
181	8	158	159
182	11	159	160
183	11	159	161
184	11	159	162
185	5	163	164
186	4	163	165
187	5	165	166
188	12	167	168
189	12	167	169
190	9	167	170
191	12	170	171
192	12	170	172
193	9	170	173
194	12	173	174
195	12	173	175
196	9	173	176
197	12	176	177
198	12	176	178
199	9	176	179
200	12	179	180
201	12	179	181
202	5	182	183
203	4	182	184
204	5	184	185
205	8	186	187
206	4	186	191
207	11	187	188
208	11	187	189
209	11	187	190
210	5	191	192
211	5	193	194
212	4	193	195
213	5	195	196
214	13	198	199
215	6	198	200
216	4	200	201
217	4	200	218
218	5	201	202
219	4	201	203
220	5	203	204
221	4	203	205
222	4	205	206
223	4	205	217
224	5	206	207
225	4	206	208
226	6	208	209
227	4	208	213
228	13	209	210
229	14	209	211
230	15	211	212
231	5	213	214
232	4	213	215
233	5	215	216
234	4	215	217
235	4	217	218
236	5	218	219

Angles

1	4	4	3	5
2	1	146	148	152
3	1	131	133	135
4	1	208	209	211
5	1	135	163	165
6	1	130	165	163
7	4	217	218	219
8	1	99	100	198
9	3	2	1	88
10	1	205	217	215
11	4	118	117	119
12	1	41	40	43
13	1	9	11	13
14	4	106	107	108
15	1	119	121	186
16	1	117	119	121
17	1	200	201	203
18	7	168	167	169
19	4	163	165	166
20	1	149	148	152
21	6	64	67	70
22	4	23	25	26
23	1	8	7	84
24	6	189	187	190
25	4	91	92	93
26	6	61	64	66
27	1	116	191	186
28	1	30	32	34
29	1	110	111	113
30	1	144	143	154
31	4	73	75	76
32	1	122	123	184
33	1	140	142	143
34	4	164	163	165
35	1	28	29	49
36	1	9	8	82
37	4	116	117	118
38	6	186	187	188
39	4	40	43	44
40	6	51	50	52
41	6	68	67	70
42	6	129	179	181
43	1	113	115	116
44	1	11	13	77
45	4	17	16	18
46	6	21	58	61
47	6	129	167	170
48	4	130	131	132
49	6	170	173	174
50	4	141	140	142
51	1	136	137	158
52	4	29	30	31
53	4	31	30	32
54	1	146	148	149
55	6	77	78	81
56	6	66	64	67
57	4	2	3	4
58	6	21	70	67
59	4	204	203	205
60	1	3	5	7
61	1	16	18	20
62	1	126	128	129
63	4	114	113	115
64	1	143	154	152
65	1	8	82	77
66	4	36	38	39
67	1	116	115	193
68	4	157	156	158
69	4	152	154	155
70	1	208	213	215
71	6	69	67	70
72	1	121	186	187
73	4	116	191	192
74	4	135	163	164
75	5	13	14	15
76	6	158	159	162
77	1	104	106	107
78	4	145	144	146
79	1	117	116	191
80	1	18	20	73
81	4	137	138	139
82	1	23	22	56
83	6	169	167	170
84	4	132	131	133
85	1	111	113	115
86	1	34	35	45
87	6	58	61	64
88	1	1	2	3
89	6	65	64	67
90	4	117	119	120
91	4	200	201	202
92	1	113	115	193
93	6	64	67	69
94	1	144	146	148
95	1	92	94	96
96	4	96	97	98
97	7	71	70	72
98	6	79	78	81
99	1	121	186	191
100	4	110	111	112
101	1	38	40	43
102	4	85	84	86
103	1	124	126	128
104	4	186	191	192
105	1	14	15	16
106	6	172	170	173
107	6	129	179	180
108	6	49	50	51
109	6	21	58	60
110	4	8	82	83
111	1	129	128	182
112	4	44	43	45
113	1	35	34	47
114	6	67	70	72
115	3	1	109	197
116	6	77	78	80
117	4	7	84	85
118	6	128	129	130
119	4	134	133	135
120	1	198	200	201
121	1	78	77	82
122	1	110	195	193
123	6	22	21	58
124	1	133	135	163
125	1	94	96	97
126	4	16	18	19
127	4	93	92	94
128	3	148	149	151
129	1	137	158	156
130	1	133	135	136
131	1	21	20	73
132	1	34	47	49
133	1	29	49	47
134	1	47	49	50
135	7	171	170	172
136	1	25	27	54
137	1	92	91	107
138	5	27	28	29
139	1	97	99	100
140	6	158	159	161
141	1	8	9	11
142	4	84	86	87
143	1	142	156	158
144	6	173	176	179
145	1	15	75	73
146	4	143	154	155
147	4	202	201	203
148	7	65	64	66
149	1	41	89	91
150	4	98	97	99
151	4	216	215	217
152	4	144	146	147
153	4	92	94	95
154	1	198	200	218
155	4	112	111	113
156	6	20	21	70
157	1	201	200	218
158	1	201	203	205
159	1	200	218	217
160	6	128	129	167
161	1	96	106	107
162	4	125	124	126
163	1	1	2	86
164	4	10	9	11
165	6	67	70	71
166	6	77	78	79
167	1	143	142	156
168	1	99	102	104
169	1	2	86	84
170	6	80	78	81
171	3	42	41	89
172	6	167	170	171
173	6	130	129	167
174	2	40	41	89
175	6	186	187	190
176	1	3	2	86
177	6	170	173	176
178	1	205	206	208
179	1	5	7	8
180	1	143	144	146
181	4	6	5	7
182	1	140	142	156
183	4	131	133	134
184	1	208	209	210
185	1	22	56	54
186	6	160	159	162
187	6	174	173	176
188	6	177	176	179
189	1	38	40	41
190	1	36	35	45
191	5	121	122	123
192	1	137	158	159
193	4	142	156	157
194	4	95	94	96
195	4	9	11	12
196	6	129	179	176
197	7	180	179	181
198	4	183	182	184
199	4	19	18	20
200	4	55	54	56
201	1	29	49	50
202	3	40	41	42
203	1	96	106	104
204	1	126	128	182
205	1	131	130	165
206	1	32	34	47
207	4	110	195	196
208	1	128	182	184
209	6	61	64	65
210	1	123	184	182
211	4	30	32	33
212	4	201	203	204
213	4	43	45	46
214	6	59	58	61
215	6	62	61	64
216	4	105	104	106
217	1	22	23	25
218	7	68	67	69
219	4	54	56	57
220	4	15	75	76
221	6	20	21	22
222	1	138	140	142
223	6	129	167	169
224	6	161	159	162
225	1	28	29	30
226	6	60	58	61
227	1	203	205	217
228	1	90	89	91
229	4	77	82	83
230	1	91	92	94
231	1	91	107	106
232	1	94	96	106
233	1	89	91	107
234	4	3	5	6
235	1	102	104	106
236	3	150	149	151
237	1	116	117	119
238	6	186	187	189
239	1	40	43	45
240	1	35	45	43
241	1	148	152	154
242	4	12	11	13
243	6	49	50	53
244	1	20	73	75
245	4	127	126	128
246	6	170	173	175
247	4	193	195	196
248	4	205	206	207
249	6	63	61	64
250	1	7	8	9
251	4	26	25	27
252	6	58	21	70
253	1	18	20	21
254	1	213	215	217
255	4	208	213	214
256	6	160	159	161
257	1	142	143	144
258	4	2	86	87
259	1	35	36	38
260	6	130	129	179
261	1	7	8	82
262	8	210	209	211
263	4	111	113	114
264	6	58	61	63
265	3	88	1	109
266	6	64	67	68
267	1	13	77	82
268	1	100	198	200
269	4	182	184	185
270	1	206	208	213
271	6	79	78	80
272	4	48	47	49
273	4	22	56	57
274	1	109	110	111
275	1	122	121	186
276	1	123	124	126
277	4	128	182	183
278	1	206	205	217
279	6	21	70	72
280	1	199	198	200
281	1	97	99	102
282	7	59	58	60
283	1	5	7	84
284	7	62	61	63
285	4	124	126	127
286	1	137	138	140
287	4	22	23	24
288	1	97	96	106
289	4	138	140	141
290	6	21	58	59
291	1	124	123	184
292	6	129	167	168
293	6	178	176	179
294	4	39	38	40
295	1	14	15	75
296	1	122	123	124
297	1	96	97	99
298	1	14	13	77
299	4	123	184	185
300	1	136	137	138
301	4	139	138	140
302	1	27	54	56
303	1	209	208	213
304	1	138	137	158
305	4	102	104	105
306	6	188	187	190
307	3	148	149	150
308	4	8	9	10
309	4	148	152	153
310	4	200	218	219
311	1	16	15	75
312	6	49	50	52
313	4	207	206	208
314	4	20	73	74
315	4	34	47	48
316	4	103	102	104
317	1	15	16	18
318	4	33	32	34
319	1	7	84	86
320	4	213	215	216
321	1	21	22	23
322	4	120	119	121
323	1	109	110	195
324	1	142	143	154
325	6	22	21	70
326	1	30	29	49
327	6	158	159	160
328	4	35	36	37
329	6	167	170	173
330	3	110	109	197
331	4	35	45	46
332	1	89	91	92
333	6	173	176	178
334	1	100	99	102
335	6	176	179	181
336	6	58	61	62
337	1	129	130	165
338	5	135	136	137
339	1	41	89	90
340	1	187	186	191
341	1	111	110	195
342	1	34	35	36
343	1	100	198	199
344	6	171	170	173
345	4	123	124	125
346	6	20	21	58
347	6	21	70	71
348	1	11	13	14
349	4	24	23	25
350	1	99	100	101
351	1	115	193	195
352	4	153	152	154
353	1	115	116	191
354	1	25	27	28
355	1	215	217	218
356	1	21	22	56
357	6	167	129	179
358	4	194	193	195
359	6	168	167	170
360	1	203	205	206
361	1	23	25	27
362	6	175	173	176
363	2	2	1	109
364	6	61	64	67
365	4	37	36	38
366	1	129	130	131
367	4	99	102	103
368	4	130	165	166
369	4	27	54	55
370	6	188	187	189
371	1	205	217	218
372	6	51	50	53
373	6	128	129	179
374	1	136	135	163
375	1	156	158	159
376	1	130	131	133
377	4	15	16	17
378	1	29	30	32
379	4	147	146	148
380	4	143	144	145
381	4	214	213	215
382	2	1	109	110
383	1	13	77	78
384	1	206	208	209
385	5	209	211	212
386	6	52	50	53
387	4	74	73	75
388	1	2	3	5
389	4	91	107	108
390	1	32	34	35
391	1	115	116	117
392	6	167	170	172
393	1	119	121	122
394	7	174	173	175
395	7	177	176	178
396	1	28	27	54
397	6	173	176	177
398	6	176	179	180
399	4	115	193	194
400	1	101	100	198
401	1	36	38	40

Dihedrals

1	1	21	20	73	74
2	5	11	13	14	15
3	1	157	156	158	159
4	1	25	27	54	56
5	8	129	179	176	177
6	1	206	205	217	218
7	1	138	140	142	143
8	8	65	64	67	70
9	1	36	35	45	43
10	7	128	129	167	170
11	1	140	142	156	157
12	1	18	20	73	75
13	1	5	3	2	86
14	1	206	208	213	215
15	1	110	195	193	115
16	4	32	34	35	45
17	1	4	3	2	86
18	1	142	143	144	145
19	6	23	22	21	58
20	1	216	215	217	218
21	1	35	34	47	48
22	2	1	109	110	111
23	1	30	29	49	50
24	19	172	170	173	175
25	1	96	106	104	102
26	1	146	148	152	154
27	19	168	167	170	171
28	7	128	129	179	176
29	1	8	7	84	86
30	1	111	110	195	193
31	1	21	22	23	25
32	4	5	7	8	9
33	1	125	124	126	128
34	1	24	23	25	26
35	1	136	137	158	156
36	1	94	96	106	107
37	1	97	99	102	103
38	1	120	119	121	122
39	1	164	163	165	166
40	6	156	158	159	162
41	1	31	30	32	33
42	1	8	82	77	13
43	16	90	89	91	107
44	4	9	8	7	84
45	1	35	36	38	39
46	1	89	91	92	93
47	1	91	107	106	104
48	8	60	58	61	64
49	1	129	130	165	166
50	4	5	7	8	82
51	1	128	182	184	185
52	19	68	67	70	71
53	1	207	206	208	213
54	6	56	22	21	58
55	19	59	58	61	63
56	1	113	111	110	195
57	1	118	117	116	191
58	1	7	8	82	77
59	8	169	167	170	173
60	5	137	136	135	163
61	1	114	113	115	193
62	1	153	152	154	155
63	1	134	133	135	136
64	7	20	21	70	67
65	1	129	130	131	133
66	1	8	9	11	13
67	1	119	121	186	187
68	4	144	143	142	156
69	3	2	1	109	197
70	1	206	205	217	215
71	1	92	94	96	97
72	1	143	142	156	157
73	7	22	21	70	72
74	1	131	130	165	166
75	1	22	56	54	55
76	1	98	97	96	106
77	1	142	143	154	155
78	1	120	119	121	186
79	1	2	3	5	6
80	1	98	97	99	100
81	1	96	106	107	108
82	1	110	111	113	114
83	19	177	176	179	181
84	1	34	47	49	50
85	6	126	128	129	179
86	2	1	109	110	195
87	7	22	21	58	59
88	6	179	129	128	182
89	7	130	129	179	181
90	9	58	21	70	67
90	10	58	21	70	67
90	11	58	21	70	67
91	1	201	203	205	206
92	5	133	135	136	137
93	7	20	21	70	71
94	7	130	129	167	168
95	4	140	142	143	144
96	9	167	129	179	176
96	10	167	129	179	176
96	11	167	129	179	176
97	1	10	9	8	82
98	1	34	35	36	38
99	7	20	21	58	60
100	5	123	122	121	186
101	1	138	137	158	156
102	8	63	61	64	67
103	3	88	1	109	197
104	1	202	201	200	218
105	1	25	27	54	55
106	1	147	146	148	149
107	1	95	94	96	97
108	19	65	64	67	69
109	1	30	32	34	35
110	9	167	170	173	176
110	10	167	170	173	176
110	11	167	170	173	176
111	1	4	3	5	6
112	1	36	38	40	41
113	1	28	29	30	31
114	5	13	14	15	75
115	1	132	131	133	134
116	1	129	128	182	184
117	8	173	176	179	181
118	6	20	21	22	56
119	7	128	129	167	169
120	2	38	40	41	89
121	1	136	135	163	165
122	1	129	130	165	163
123	1	18	20	73	74
124	1	118	117	119	120
125	1	204	203	205	206
126	1	201	200	218	217
127	2	42	41	40	43
128	6	70	21	20	73
129	1	127	126	128	129
130	1	7	8	82	83
131	19	172	170	173	174
132	1	93	92	94	96
133	1	8	7	84	85
134	1	29	49	47	48
135	1	21	22	23	24
136	1	91	92	94	96
137	1	125	124	126	127
138	8	167	129	179	180
139	1	5	7	84	86
140	1	9	8	82	77
141	1	116	191	186	121
142	1	135	163	165	166
143	6	156	158	159	161
144	19	171	170	173	174
145	1	132	131	130	165
146	1	202	201	203	205
147	1	1	2	86	84
148	1	126	128	182	183
149	1	131	130	165	163
150	1	18	16	15	75
151	19	60	58	61	63
152	4	191	116	115	193
153	1	142	143	154	152
154	8	62	61	64	67
155	8	58	61	64	66
156	1	131	133	135	163
157	1	33	32	34	47
158	1	26	25	27	28
159	1	3	5	7	8
160	19	59	58	61	62
161	1	39	38	40	43
162	5	27	28	29	49
163	2	38	40	41	42
164	8	21	70	67	68
165	2	146	148	149	150
166	1	137	138	140	142
167	6	18	20	21	58
168	6	58	21	20	73
169	1	131	133	135	136
170	1	200	201	203	205
171	1	8	9	11	12
172	1	136	137	158	159
173	1	127	126	128	182
174	1	140	138	137	158
175	6	137	158	159	162
176	9	129	179	176	173
176	10	129	179	176	173
176	11	129	179	176	173
177	1	28	29	49	50
178	2	150	149	148	152
179	1	29	49	47	34
180	7	22	21	70	71
181	1	123	124	126	128
182	1	91	107	106	96
183	6	47	49	50	51
184	1	113	115	193	195
185	2	86	2	1	109
186	8	66	64	67	70
187	1	14	13	77	82
188	1	7	84	86	87
189	6	56	22	21	70
190	4	113	115	116	191
191	1	130	131	133	135
192	1	145	144	146	147
193	1	203	205	217	215
194	16	90	89	91	92
195	1	124	126	128	129
196	19	177	176	179	180
197	1	19	18	20	73
198	6	81	78	77	82
199	1	111	110	195	196
200	1	31	30	29	49
201	4	140	142	143	154
202	6	165	130	129	167
203	1	94	92	91	107
204	1	22	23	25	27
205	16	199	198	200	218
206	1	104	106	107	108
207	1	92	91	107	108
208	1	93	92	91	107
209	1	141	140	142	156
210	19	69	67	70	71
211	8	21	58	61	62
212	1	28	27	54	55
213	2	3	2	1	109
214	2	43	40	41	89
215	1	109	110	111	113
216	8	173	176	179	180
217	1	133	135	163	165
218	7	128	129	167	168
219	4	154	143	142	156
220	1	139	138	137	158
221	8	61	64	67	68
222	8	175	173	176	179
223	6	121	186	187	189
224	1	29	30	32	34
225	1	23	25	27	54
226	16	206	208	209	210
227	1	207	206	208	209
228	1	15	16	18	20
229	1	115	116	191	192
230	1	146	144	143	154
231	1	208	206	205	217
232	8	174	173	176	179
233	1	142	156	158	159
234	1	20	73	75	76
235	1	91	92	94	95
236	1	138	137	158	159
237	6	130	129	128	182
238	1	147	146	148	152
239	1	28	29	49	47
240	1	94	96	97	99
241	4	113	115	116	117
242	8	60	58	21	70
243	1	202	201	203	204
244	16	100	198	200	201
245	1	116	115	193	195
246	6	190	187	186	191
247	19	60	58	61	62
248	1	37	36	38	40
249	19	62	61	64	66
250	6	13	77	78	79
251	1	23	22	56	57
252	8	58	61	64	65
253	1	134	133	135	163
254	1	113	115	193	194
255	9	170	167	129	179
255	10	170	167	129	179
255	11	170	167	129	179
256	1	17	16	18	19
257	1	16	18	20	73
258	16	41	89	91	107
259	2	86	2	1	88
260	16	97	99	100	198
261	8	168	167	170	173
262	1	137	138	140	141
263	1	138	140	142	156
264	8	170	173	176	178
265	1	148	152	154	155
266	1	9	11	13	77
267	6	137	158	159	161
268	1	92	94	96	106
269	1	1	2	3	5
270	1	96	97	99	100
271	1	10	9	11	13
272	1	34	35	45	43
273	1	205	206	208	213
274	1	1	2	86	87
275	9	61	58	21	70
275	10	61	58	21	70
275	11	61	58	21	70
276	1	144	143	154	152
277	1	99	97	96	106
278	6	128	129	130	165
279	1	74	73	75	76
280	5	119	121	122	123
281	1	16	15	75	73
282	1	130	131	133	134
283	8	129	167	170	172
284	2	3	2	1	88
285	6	29	49	50	51
286	1	117	119	121	122
287	1	2	86	84	85
288	1	14	15	16	17
289	1	123	184	182	183
290	1	143	154	152	148
291	1	205	217	215	213
292	1	214	213	215	217
293	1	99	102	104	106
294	1	119	117	116	191
295	1	209	208	213	214
296	19	178	176	179	181
297	1	22	23	25	26
298	1	41	40	43	45
299	8	169	167	129	179
300	1	95	94	96	106
301	1	3	5	7	84
302	1	136	137	138	140
303	8	168	167	129	179
304	16	100	198	200	218
305	1	97	96	106	107
306	1	109	110	111	112
307	1	133	135	163	164
308	1	122	123	184	185
309	1	98	97	99	102
310	1	23	22	56	54
311	6	121	186	187	188
312	1	203	205	217	218
313	1	206	208	213	214
314	1	116	115	193	194
315	8	64	67	70	72
316	1	117	116	191	186
317	1	11	13	77	82
318	9	21	70	67	64
318	10	21	70	67	64
318	11	21	70	67	64
319	7	22	21	58	61
320	6	128	129	130	131
321	1	146	148	152	153
322	19	174	173	176	178
323	1	149	148	152	154
324	1	24	23	22	56
325	1	39	38	40	41
326	7	130	129	167	170
327	6	80	78	77	82
328	1	117	119	121	186
329	1	32	34	47	49
330	2	111	110	109	197
331	2	151	149	148	152
332	16	199	198	200	201
333	1	200	218	217	215
334	1	94	96	97	98
335	1	2	86	84	7
336	1	109	110	195	193
337	7	22	21	70	67
338	1	13	77	82	83
339	1	38	36	35	45
340	14	40	41	89	91
340	15	40	41	89	91
341	2	195	110	109	197
342	1	14	13	77	78
343	16	99	100	198	200
344	5	121	122	123	124
345	1	201	200	218	219
346	6	23	22	21	70
347	1	198	200	201	203
348	1	142	143	144	146
349	1	78	77	82	83
350	1	35	45	43	44
351	1	40	43	45	46
352	19	169	167	170	172
353	8	172	170	173	176
354	14	42	41	89	91
354	15	42	41	89	91
355	19	168	167	170	172
356	7	130	129	179	176
357	16	210	209	208	213
358	1	129	130	131	132
359	8	170	173	176	177
360	5	135	136	137	138
361	1	137	158	156	157
362	1	17	16	15	75
363	1	116	117	119	121
364	8	171	170	173	176
365	1	12	11	13	14
366	1	10	9	11	12
367	6	131	130	129	167
368	1	97	96	106	104
369	1	126	124	123	184
370	1	89	91	92	94
371	1	35	36	38	40
372	1	198	200	218	219
373	1	122	123	184	182
374	1	130	165	163	164
375	5	29	28	27	54
376	4	117	116	115	193
377	1	89	91	107	106
378	8	129	167	170	171
379	8	59	58	61	64
380	1	125	124	123	184
381	5	135	136	137	158
382	1	213	215	217	218
383	1	122	121	186	191
384	1	22	56	54	27
385	1	103	102	104	106
386	7	130	129	179	180
387	1	205	217	218	219
388	6	126	128	129	167
389	1	214	213	215	216
390	7	128	129	179	181
391	1	99	102	104	105
392	1	112	111	113	115
393	1	34	35	36	37
394	7	20	21	58	59
395	1	41	40	43	44
396	19	63	61	64	66
397	1	9	8	82	83
398	16	41	89	91	92
399	1	208	213	215	217
400	19	65	64	67	68
401	1	34	35	45	46
402	8	167	170	173	175