Title

130 atoms
131 bonds
246 angles
492 dihedrals
18 impropers

11 atom types
14 bond types
9 angle types
39 dihedral types
3 improper types
-3.724999905 96.2750001 xlo xhi
-3.025000095 96.9749999 ylo yhi
-2.822999954 97.17700005 zlo zhi
0.0 0.0 0.0 xy xz yz

Masses

1	12.01078
2	15.99943
3	14.00672
4	12.01078
5	1.007947
6	1.007947
7	1.007947
8	15.99943
9	12.01078
10	15.99943
11	1.007947


Pair Coeffs

1	0.086879315	3.4806469
2	0.2102061	3.0398122
3	0.16769152	3.206876
4	0.10884061	3.3795318
5	0.015779483	2.6445434
6	0.014090815	1.1034277
7	0.016409246	2.5832257
8	0.16846514	3.0251065
9	0.21	3.3996695
10	0.20947353	2.99716
11	1.2326e-05	0.53453923

Bond Coeffs

1 harmonic	582.698766451	1.225198386222
2 harmonic	492.76746816345	1.381897776683
3 harmonic	279.1350963404	1.454628925034
4 harmonic	352.0565580496	1.450098586273
5 harmonic	505.144496193	1.019481865027
6 harmonic	264.62148576755	1.52190126495
7 harmonic	370.04670688625	1.093899492634
8 harmonic	301.15400723785	1.345741232799
9 harmonic	366.7408841747	1.425895053732
10 harmonic	300.03137914615	1.451203938761
11 harmonic	366.34047229585	1.464762957261
12 harmonic	602.81384337	1.196112346392
13 harmonic	329.96998057905	1.427343958716
14 harmonic	543.5267831885	0.9716763312559


Angle Coeffs

1 harmonic	55.42182150775	117.3465570514
2 harmonic	63.44422595415	115.5071327674
3 harmonic	57.8982893754	126.8062420451
4 harmonic	53.20531626545	116.5475862634
5 harmonic	48.776492647595	115.6030999533
6 harmonic	65.09061609600001	110.3538806181
7 harmonic	201.41175231035	127.4691416191
8 harmonic	55.07882548015	112.8714009681
9 harmonic	33.56981613361	180


Dihedral Coeffs

1 fourier 1	-0.1488678166443	4	180
2 fourier 1	-0.1230328948768	3	180
3 fourier 1	0.2939295466901	2	0
4 fourier 1	-0.3024127022865	1	0
5 fourier 1	0.182238503271	2	0
6 fourier 1	0.02972342374561	3	0
7 fourier 1	1.809047390003	2	180
8 fourier 1	-0.04816277792592	1	0
9 fourier 1	3.101948770557	2	180
10 fourier 1	-0.4252153282372	1	0
11 fourier 1	2.348375642009	2	180
12 fourier 1	1.256156174911	1	0
13 fourier 1	0.9974165607242	2	180
14 fourier 1	0.1155372516788	3	0
15 fourier 1	0.1040663847541	3	0
16 fourier 1	0.09223874044423	3	0
17 fourier 1	0.3159935921949	2	180
18 fourier 1	0.3247796806857	1	180
19 fourier 1	0.1911926717192	3	0
20 fourier 1	2.779853741805	2	180
21 fourier 1	0.1918272375143	3	0
22 fourier 1	0.9202179876409	1	180
23 fourier 1	0.0473758381877	3	0
24 fourier 1	0.4860993122944	2	180
25 fourier 1	0.8916986138746	1	0
26 fourier 1	1.163809172478	2	180
27 fourier 1	0.1679186987369	1	180
28 fourier 1	-0.0309670556842	3	0
29 fourier 1	0.4598191477945	2	0
30 fourier 1	0.1115525666802	3	0
31 fourier 1	0.3432490222662	1	0
32 fourier 1	0.4552156463534	3	0
33 fourier 1	-0.03687743385131	2	180
34 fourier 1	0.457973137376	1	0
35 fourier 1	-1.382973039546	1	0
36 fourier 1	0	1	0
37 fourier 1	0.3445382149273	3	0
38 fourier 1	0.1364556373303	1	0
39 fourier 1	0.3026390167484	3	0


Improper Coeffs

1 0.3333333333333333	-1	2
2 0.3666666666666667	-1	2
3 3.5	-1	2


Atoms

1	1	1	0.54474199	4.0289998	0.48899999	1.378
2	1	2	-0.67865801	4.243	-0.71499997	1.679
3	1	3	-0.48804599	2.914	0.85399997	0.56
4	1	4	0.00072000001	1.977	-0.15700001	0.055
5	1	4	-0.0072809998	0.87	0.421	-0.88499999
6	1	4	-0.169067	1.567	1.123	-2.082
7	1	5	0.075104997	2.2520001	0.419	-2.602
8	1	5	0.075104997	0.82099998	1.485	-2.823
9	1	5	0.075104997	2.151	2.0090001	-1.763
10	1	4	-0.20396499	-0.037	1.4579999	-0.167
11	1	5	0.114352	0.574	2.2349999	0.338
12	1	5	0.114352	-0.65399998	1.99	-0.92699999
13	1	4	0.12921201	-0.98799998	0.82499999	0.86299998
14	1	3	-0.51543099	-1.8049999	1.867	1.4960001
15	1	1	0.80814099	-2.503	1.655	2.7279999
16	1	2	-0.59764898	-2.428	0.55299997	3.3340001
17	1	6	0.317581	-1.867	2.8169999	1.064
18	1	7	0.049795002	-0.382	0.33899999	1.655
19	1	4	-0.20755801	-1.905	-0.20100001	0.17399999
20	1	5	0.115885	-2.5439999	0.345	-0.55699998
21	1	5	0.115885	-2.5910001	-0.65200001	0.926
22	1	4	-0.027038001	-1.128	-1.3279999	-0.55500001
23	1	4	-0.170812	-2.1259999	-2.092	-1.46
24	1	5	0.078139998	-1.614	-2.924	-1.99
25	1	5	0.078139998	-2.575	-1.419	-2.2219999
26	1	5	0.078139998	-2.9590001	-2.52	-0.86000001
27	1	4	-0.170812	-0.56800002	-2.3559999	0.463
28	1	5	0.078139998	-0.152	-1.8839999	1.37
29	1	5	0.078139998	0.212	-2.9949999	-0.0040000002
30	1	5	0.078139998	-1.375	-3.0250001	0.833
31	1	4	-0.209874	-0.011	-0.73100001	-1.473
32	1	5	0.116081	-0.51999998	-0.32600001	-2.378
33	1	5	0.116081	0.64200002	-1.549	-1.851
34	1	7	0.072323002	2.556	-0.926	-0.50099999
35	1	7	0.072323002	1.536	-0.66000003	0.92799997
36	1	6	0.31823999	2.7869999	1.869	0.36199999
37	1	8	-0.49610299	-3.075	2.4200001	3.132
38	1	4	0.109596	-2.914	3.529	2.29
39	1	4	0.079397999	-1.563	4.1939998	2.539
40	1	8	-0.485567	-1.4450001	5.3260002	1.705
41	1	4	0.059999	-0.198	5.9489999	1.9299999
42	1	4	0.060256999	-0.078000002	7.1700001	1.021
43	1	8	-0.48566899	1.197	7.7659998	1.17
44	1	4	0.060256999	1.137	8.8500004	2.0739999
45	1	4	0.060256999	2.5539999	9.3109999	2.408
46	1	8	-0.48776099	3.3169999	8.2329998	2.9200001
47	1	4	0.080320001	3.296	8.2349997	4.3319998
48	1	4	0.029947	3.9790001	6.9699998	4.842
49	1	8	-0.142147	3.9489999	6.9299998	6.243
50	1	7	0.091867	5.0300002	6.9260001	4.474
51	1	7	0.091867	3.4400001	6.0809999	4.4499998
52	1	7	0.087995999	3.849	9.1199999	4.7210002
53	1	7	0.087995999	2.253	8.25	4.7210002
54	1	7	0.087820001	2.5179999	10.195	3.089
55	1	7	0.087820001	3.0380001	9.6590004	1.471
56	1	7	0.087820001	0.59100002	9.7010002	1.607
57	1	7	0.087820001	0.62099999	8.5690002	3.02
58	1	7	0.087820001	-0.17399999	6.8319998	-0.033
59	1	7	0.087820001	-0.92500001	7.8730001	1.206
60	1	7	0.087820001	0.639	5.2519999	1.692
61	1	7	0.087820001	-0.111	6.2810001	2.9890001
62	1	7	0.086474001	-0.75999999	3.454	2.3150001
63	1	7	0.086474001	-1.5089999	4.487	3.6129999
64	1	7	0.094365999	-2.9990001	3.223	1.222
65	1	7	0.094365999	-3.7249999	4.2579999	2.5039999
66	1	1	0.55740601	4.698	1.256	1.745
67	1	2	-0.668154	4.2490001	2.158	2.5009999
68	1	3	-0.56667799	6.0770001	1.2359999	1.36
69	1	4	0.127009	7.0419998	2.2379999	1.83
70	1	7	0.047618002	6.5580001	3.2320001	1.76
71	1	4	-0.208672	7.4299998	1.9349999	3.289
72	1	5	0.115885	6.52	1.96	3.928
73	1	5	0.115885	7.8239999	0.89399999	3.3299999
74	1	4	-0.027574001	8.4890003	2.9130001	3.862
75	1	4	-0.170812	9.0039997	2.3329999	5.2010002
76	1	5	0.078140996	9.7609997	3.0090001	5.6550002
77	1	5	0.078140996	8.1709995	2.2049999	5.9260001
78	1	5	0.078140996	9.4759998	1.337	5.053
79	1	4	-0.170812	7.8559999	4.29	4.1830001
80	1	5	0.078140996	7.23	4.6789999	3.365
81	1	5	0.078140996	7.1830001	4.2140002	5.0640001
82	1	5	0.078140996	8.6420002	5.039	4.4190001
83	1	4	-0.208581	9.7060003	3.0380001	2.8929999
84	1	5	0.114766	10.292	2.095	2.9849999
85	1	5	0.114766	10.391	3.8369999	3.25
86	1	4	0.025485	9.3879995	3.2290001	1.373
87	1	4	-0.167621	10.675	2.908	0.57099998
88	1	5	0.071644999	10.5	3.0209999	-0.52100003
89	1	5	0.071644999	11.504	3.5880001	0.86500001
90	1	5	0.071644999	11.011	1.864	0.75199997
91	1	4	0.144316	8.9680004	4.684	1.0089999
92	1	3	-0.61489999	9.9189997	5.6589999	1.533
93	1	9	0.60131502	9.7629995	6.9060001	1.335
94	1	2	-0.4524	9.6110001	8.1190004	1.142
95	1	7	0.070598997	7.9569998	4.9299998	1.372
96	1	7	0.070598997	8.9189997	4.7880001	-0.098999999
97	1	4	-0.205073	8.2919998	2.2219999	0.93099999
98	1	5	0.11423	8.7130003	1.191	0.94199997
99	1	5	0.11423	7.987	2.4349999	-0.118
100	1	6	0.314601	6.3790002	0.49200001	0.69099998
101	1	8	-0.142147	4.6469998	7.5599999	6.5599999
102	1	4	0.029947	4.0349998	8.816	6.6680002
103	1	4	0.080320001	3.868	9.4469995	5.289
104	1	8	-0.48776099	3.283	10.723	5.4330001
105	1	4	0.060256999	3.1270001	11.316	4.1609998
106	1	4	0.060256999	2.4909999	12.694	4.3260002
107	1	8	-0.48566899	2.25	13.275	3.059
108	1	4	0.060256999	3.2950001	14.16	2.71
109	1	4	0.060256999	3.142	14.575	1.249
110	1	8	-0.483518	3.1070001	13.434	0.41100001
111	1	4	0.052467	4.3920002	13.158	-0.107
112	1	4	0.074790999	4.3509998	11.831	-0.85900003
113	1	10	-0.67983902	5.6209998	11.516	-1.3609999
114	1	11	0.39165199	5.7600002	12.086	-2.1619999
115	1	7	0.088518001	3.6070001	11.883	-1.687
116	1	7	0.088518001	4.0349998	11.026	-0.163
117	1	7	0.088881001	4.6989999	13.96	-0.815
118	1	7	0.088881001	5.1459999	13.073	0.708
119	1	7	0.087820001	3.938	15.307	0.97399998
120	1	7	0.087820001	2.175	15.111	1.138
121	1	7	0.087820001	3.244	15.074	3.3429999
122	1	7	0.087820001	4.2950001	13.687	2.8429999
123	1	7	0.087820001	1.511	12.568	4.835
124	1	7	0.087820001	3.1159999	13.329	4.9990001
125	1	7	0.087820001	2.4590001	10.697	3.5179999
126	1	7	0.087820001	4.1139998	11.435	3.6600001
127	1	7	0.087995999	3.2179999	8.783	4.6739998
128	1	7	0.087995999	4.8740001	9.5240002	4.8150001
129	1	7	0.091867	3.0439999	8.724	7.1700001
130	1	7	0.091867	4.677	9.4709997	7.2950001

Bonds

1	1	1	2
2	2	1	3
3	3	1	66
4	4	3	4
5	5	3	36
6	6	4	5
7	7	4	34
8	7	4	35
9	6	5	6
10	6	5	10
11	6	5	31
12	7	6	7
13	7	6	8
14	7	6	9
15	7	10	11
16	7	10	12
17	6	10	13
18	4	13	14
19	7	13	18
20	6	13	19
21	2	14	15
22	5	14	17
23	1	15	16
24	8	15	37
25	7	19	20
26	7	19	21
27	6	19	22
28	6	22	23
29	6	22	27
30	6	22	31
31	7	23	24
32	7	23	25
33	7	23	26
34	7	27	28
35	7	27	29
36	7	27	30
37	7	31	32
38	7	31	33
39	9	37	38
40	6	38	39
41	7	38	64
42	7	38	65
43	9	39	40
44	7	39	62
45	7	39	63
46	9	40	41
47	6	41	42
48	7	41	60
49	7	41	61
50	9	42	43
51	7	42	58
52	7	42	59
53	9	43	44
54	6	44	45
55	7	44	56
56	7	44	57
57	9	45	46
58	7	45	54
59	7	45	55
60	9	46	47
61	6	47	48
62	7	47	52
63	7	47	53
64	9	48	49
65	7	48	50
66	7	48	51
67	10	49	101
68	1	66	67
69	2	66	68
70	4	68	69
71	5	68	100
72	7	69	70
73	6	69	71
74	6	69	97
75	7	71	72
76	7	71	73
77	6	71	74
78	6	74	75
79	6	74	79
80	6	74	83
81	7	75	76
82	7	75	77
83	7	75	78
84	7	79	80
85	7	79	81
86	7	79	82
87	7	83	84
88	7	83	85
89	6	83	86
90	6	86	87
91	6	86	91
92	6	86	97
93	7	87	88
94	7	87	89
95	7	87	90
96	11	91	92
97	7	91	95
98	7	91	96
99	12	92	93
100	1	93	94
101	7	97	98
102	7	97	99
103	9	101	102
104	6	102	103
105	7	102	129
106	7	102	130
107	9	103	104
108	7	103	127
109	7	103	128
110	9	104	105
111	6	105	106
112	7	105	125
113	7	105	126
114	9	106	107
115	7	106	123
116	7	106	124
117	9	107	108
118	6	108	109
119	7	108	121
120	7	108	122
121	9	109	110
122	7	109	119
123	7	109	120
124	9	110	111
125	6	111	112
126	7	111	117
127	7	111	118
128	13	112	113
129	7	112	115
130	7	112	116
131	14	113	114

Angles

1	4	19	22	23
2	9	92	93	94
3	4	72	71	74
4	4	111	112	113
5	4	74	83	86
6	4	68	69	71
7	4	69	97	86
8	4	112	111	117
9	1	1	3	4
10	4	22	27	28
11	4	73	71	74
12	4	23	22	27
13	6	112	113	114
14	4	107	106	123
15	4	86	87	89
16	4	74	79	80
17	4	14	13	19
18	4	40	39	63
19	4	19	22	31
20	3	1	66	68
21	4	41	42	59
22	4	48	47	52
23	4	86	91	92
24	4	101	102	129
25	4	109	108	121
26	4	10	5	31
27	4	40	41	42
28	4	22	23	26
29	4	44	45	54
30	4	74	83	85
31	4	110	109	119
32	5	117	111	118
33	4	105	106	107
34	4	23	22	31
35	4	86	91	96
36	4	22	27	30
37	4	41	42	58
38	4	43	44	57
39	4	102	103	128
40	2	66	68	100
41	4	103	102	130
42	6	39	40	41
43	4	105	106	123
44	4	101	102	130
45	4	91	86	97
46	6	49	101	102
47	4	4	5	10
48	4	10	13	18
49	2	15	14	17
50	4	69	97	98
51	4	22	31	33
52	5	76	75	78
53	4	70	69	97
54	4	110	109	120
55	4	12	10	13
56	5	11	10	12
57	4	38	39	62
58	5	125	105	126
59	5	58	42	59
60	4	86	91	95
61	5	24	23	26
62	4	39	38	65
63	4	83	86	87
64	3	14	15	37
65	4	49	48	51
66	4	40	41	61
67	4	43	42	59
68	4	85	83	86
69	5	7	6	8
70	4	5	10	11
71	4	37	38	64
72	4	106	105	125
73	4	105	106	124
74	5	95	91	96
75	5	72	71	73
76	4	13	19	20
77	5	25	23	26
78	4	43	44	56
79	4	83	86	91
80	4	107	108	121
81	4	110	111	117
82	4	40	41	60
83	4	113	112	115
84	4	22	27	29
85	4	11	10	13
86	6	103	104	105
87	5	115	112	116
88	4	43	42	58
89	4	4	5	31
90	5	127	103	128
91	4	49	48	50
92	4	71	74	75
93	5	28	27	30
94	4	68	69	70
95	6	15	37	38
96	5	29	27	30
97	4	5	10	12
98	5	7	6	9
99	4	107	106	124
100	4	86	87	88
101	4	112	111	118
102	4	74	75	76
103	3	14	15	16
104	4	86	97	99
105	3	1	66	67
106	4	110	111	118
107	5	129	102	130
108	5	88	87	90
109	4	109	108	122
110	5	50	48	51
111	4	10	13	19
112	4	44	45	46
113	4	27	22	31
114	4	110	111	112
115	4	84	83	86
116	4	108	109	110
117	4	5	6	9
118	4	5	31	22
119	4	44	45	55
120	4	69	71	72
121	4	74	83	84
122	4	87	86	97
123	5	62	39	63
124	4	22	23	24
125	7	16	15	37
126	4	92	91	96
127	4	3	4	35
128	4	46	47	48
129	4	5	10	13
130	4	68	69	97
131	4	79	74	83
132	4	5	31	32
133	4	43	44	45
134	4	107	108	109
135	4	5	4	34
136	4	3	4	5
137	4	42	41	61
138	4	37	38	39
139	4	104	103	127
140	5	28	27	29
141	5	123	106	124
142	3	2	1	3
143	4	10	13	14
144	4	46	45	54
145	4	21	19	22
146	4	71	69	97
147	5	76	75	77
148	4	104	105	125
149	4	74	79	82
150	5	60	41	61
151	4	108	109	119
152	5	52	47	53
153	4	5	6	8
154	4	38	39	63
155	6	42	43	44
156	4	42	41	60
157	4	20	19	22
158	2	69	68	100
159	4	71	74	79
160	4	111	112	116
161	5	80	79	82
162	4	3	4	34
163	4	101	102	103
164	4	83	86	97
165	4	37	38	65
166	3	3	1	66
167	6	45	46	47
168	5	81	79	82
169	4	106	105	126
170	4	41	42	43
171	4	69	71	74
172	4	45	44	57
173	4	104	105	106
174	4	46	47	53
175	4	71	74	83
176	4	22	23	25
177	4	107	108	122
178	4	5	4	35
179	4	5	6	7
180	4	18	13	19
181	4	102	103	104
182	3	67	66	68
183	4	111	112	115
184	1	66	68	69
185	4	6	5	10
186	4	19	22	27
187	4	48	47	53
188	4	70	69	71
189	5	80	79	81
190	4	13	19	22
191	5	8	6	9
192	4	75	74	79
193	4	74	75	78
194	4	46	47	52
195	2	13	14	17
196	4	102	103	127
197	6	109	110	111
198	5	64	38	65
199	4	86	97	98
200	4	47	48	49
201	4	4	5	6
202	8	91	92	93
203	4	14	13	18
204	4	75	74	83
205	5	89	87	90
206	4	103	102	129
207	4	45	44	56
208	5	24	23	25
209	5	88	87	89
210	4	13	19	21
211	6	48	49	101
212	1	13	14	15
213	4	5	31	33
214	5	84	83	85
215	4	69	97	99
216	6	106	107	108
217	5	54	45	55
218	4	6	5	31
219	4	47	48	51
220	4	74	75	77
221	3	2	1	66
222	4	92	91	95
223	2	4	3	36
224	4	39	38	64
225	4	22	31	32
226	4	87	86	91
227	4	104	103	128
228	5	121	108	122
229	5	98	97	99
230	4	46	45	55
231	4	69	71	73
232	4	86	87	90
233	5	77	75	78
234	4	104	105	126
235	4	74	79	81
236	4	40	39	62
237	5	34	4	35
238	4	108	109	120
239	4	113	112	116
240	4	47	48	50
241	5	20	19	21
242	5	119	109	120
243	4	38	39	40
244	5	32	31	33
245	5	56	44	57
246	2	1	3	36

Dihedrals

1	7	36	3	1	66
1	8	36	3	1	66
2	15	6	5	31	32
3	15	6	5	4	34
4	16	13	10	5	31
4	17	13	10	5	31
4	18	13	10	5	31
5	15	19	22	31	33
6	30	107	106	105	125
6	31	107	106	105	125
7	15	95	91	86	97
8	30	46	47	48	50
8	31	46	47	48	50
9	32	44	45	46	47
9	33	44	45	46	47
10	23	39	40	41	60
11	19	128	103	102	129
12	15	83	86	97	98
13	5	15	14	13	18
13	6	15	14	13	18
14	23	42	43	44	56
15	15	24	23	22	27
16	23	103	104	105	125
17	30	43	42	41	60
17	31	43	42	41	60
18	19	55	45	44	57
19	15	24	23	22	31
20	30	37	38	39	63
20	31	37	38	39	63
21	15	91	86	97	98
22	15	83	86	91	95
23	11	2	1	3	36
23	12	2	1	3	36
24	15	71	74	79	82
25	30	101	102	103	128
25	31	101	102	103	128
26	15	87	86	91	96
27	15	84	83	86	87
28	14	11	10	13	14
29	30	107	108	109	119
29	31	107	108	109	119
30	19	120	109	108	122
31	15	85	83	86	87
32	15	87	86	97	99
33	15	75	74	79	82
34	32	42	43	44	45
34	33	42	43	44	45
35	15	73	71	74	75
36	15	23	22	31	32
37	30	104	103	102	129
37	31	104	103	102	129
38	15	19	22	23	25
39	19	12	10	13	18
40	34	48	49	101	102
41	16	5	31	22	19
41	17	5	31	22	19
41	18	5	31	22	19
42	15	6	5	10	11
43	19	127	103	102	129
44	15	71	74	75	78
45	15	11	10	13	19
46	19	58	42	41	61
47	7	13	14	15	37
47	8	13	14	15	37
48	16	4	5	31	22
48	17	4	5	31	22
48	18	4	5	31	22
49	30	104	105	106	123
49	31	104	105	106	123
50	15	77	75	74	83
51	23	45	46	47	53
52	15	9	6	5	10
53	5	10	13	14	17
53	6	10	13	14	17
54	13	3	1	66	68
55	30	49	48	47	52
55	31	49	48	47	52
56	19	59	42	41	60
57	23	49	101	102	130
58	30	46	47	48	51
58	31	46	47	48	51
59	13	3	1	66	67
60	15	72	71	74	75
61	23	42	43	44	57
62	15	76	75	74	83
63	23	15	37	38	65
64	5	17	14	13	18
64	6	17	14	13	18
65	15	4	5	6	7
66	15	83	86	97	99
67	35	93	92	91	95
68	28	104	105	106	107
68	29	104	105	106	107
69	16	69	71	74	79
69	17	69	71	74	79
69	18	69	71	74	79
70	16	10	5	31	22
70	17	10	5	31	22
70	18	10	5	31	22
71	7	1	66	68	100
71	8	1	66	68	100
72	23	49	101	102	103
73	15	89	87	86	97
74	19	116	112	111	117
75	23	109	110	111	118
76	15	12	10	5	31
77	16	13	19	22	23
77	17	13	19	22	23
77	18	13	19	22	23
78	30	46	45	44	56
78	31	46	45	44	56
79	15	82	79	74	83
80	15	71	69	97	98
81	23	106	107	108	122
82	15	83	86	91	96
83	20	14	15	37	38
84	30	101	102	103	127
84	31	101	102	103	127
85	15	76	75	74	79
86	19	123	106	105	126
87	15	30	27	22	31
88	19	120	109	108	121
89	15	27	22	31	32
90	19	119	109	108	121
91	16	69	97	86	83
91	17	69	97	86	83
91	18	69	97	86	83
92	15	85	83	86	97
93	14	68	69	97	98
94	15	10	5	4	35
95	14	68	69	71	72
96	19	50	48	47	52
97	9	2	1	3	4
97	10	2	1	3	4
98	30	40	39	38	64
98	31	40	39	38	64
99	24	16	15	14	17
99	25	16	15	14	17
100	15	11	10	5	31
101	30	40	41	42	59
101	31	40	41	42	59
102	32	109	110	111	112
102	33	109	110	111	112
103	15	20	19	22	27
104	15	75	74	83	84
105	30	40	41	42	58
105	31	40	41	42	58
106	15	20	19	22	31
107	5	1	3	4	34
107	6	1	3	4	34
108	19	58	42	41	60
109	23	49	101	102	129
110	32	102	103	104	105
110	33	102	103	104	105
111	5	35	4	3	36
111	6	35	4	3	36
112	19	51	48	47	53
113	39	114	113	112	115
114	14	3	4	5	10
115	7	1	66	68	69
115	8	1	66	68	69
116	15	84	83	86	91
117	35	93	92	91	96
118	15	85	83	86	91
119	15	10	5	31	33
120	16	5	31	22	27
120	17	5	31	22	27
120	18	5	31	22	27
121	15	21	19	22	27
122	19	70	69	97	98
123	30	43	44	45	55
123	31	43	44	45	55
124	32	41	42	43	44
124	33	41	42	43	44
125	15	80	79	74	83
126	15	4	5	10	12
127	30	46	45	44	57
127	31	46	45	44	57
128	23	44	43	42	59
129	16	74	83	86	97
129	17	74	83	86	97
129	18	74	83	86	97
130	19	54	45	44	57
131	15	29	27	22	31
132	15	71	69	97	99
133	26	16	15	37	38
133	27	16	15	37	38
134	23	106	107	108	121
135	23	44	43	42	58
136	23	105	104	103	128
137	19	123	106	105	125
138	35	86	91	92	93
139	16	4	5	10	13
139	17	4	5	10	13
139	18	4	5	10	13
140	5	5	4	3	36
140	6	5	4	3	36
141	15	4	5	31	32
142	15	25	23	22	27
143	14	68	69	97	99
144	15	73	71	74	79
145	15	79	74	83	85
146	16	6	5	31	22
146	17	6	5	31	22
146	18	6	5	31	22
147	15	19	22	27	30
148	19	124	106	105	126
149	14	68	69	71	73
150	15	83	86	87	88
151	32	106	107	108	109
151	33	106	107	108	109
152	15	90	87	86	97
153	16	69	71	74	83
153	17	69	71	74	83
153	18	69	71	74	83
154	15	31	5	4	34
155	14	68	69	97	86
156	15	75	74	79	80
157	15	75	74	83	85
158	15	6	5	4	35
159	15	19	22	23	26
160	5	66	68	69	70
160	6	66	68	69	70
161	19	70	69	71	73
162	28	37	38	39	40
162	29	37	38	39	40
163	14	5	10	13	14
164	23	108	107	106	124
165	15	72	71	74	79
166	30	110	111	112	115
166	31	110	111	112	115
167	15	78	75	74	83
168	23	51	48	49	101
169	39	114	113	112	116
170	19	116	112	111	118
171	23	39	40	41	61
172	30	113	112	111	117
172	31	113	112	111	117
173	16	69	97	86	87
173	17	69	97	86	87
173	18	69	97	86	87
174	16	5	10	13	19
174	17	5	10	13	19
174	18	5	10	13	19
175	30	43	44	45	54
175	31	43	44	45	54
176	15	10	13	19	20
177	15	8	6	5	31
178	30	43	42	41	61
178	31	43	42	41	61
179	16	74	83	86	87
179	17	74	83	86	87
179	18	74	83	86	87
180	19	115	112	111	117
181	30	110	109	108	122
181	31	110	109	108	122
182	30	37	38	39	62
182	31	37	38	39	62
183	15	81	79	74	83
184	15	91	86	97	99
185	15	78	75	74	79
186	1	1	3	4	5
186	2	1	3	4	5
186	3	1	3	4	5
186	4	1	3	4	5
187	19	18	13	19	20
188	23	105	104	103	127
189	19	11	10	13	18
190	28	110	111	112	113
190	29	110	111	112	113
191	30	49	48	47	53
191	31	49	48	47	53
192	19	62	39	38	64
193	32	38	39	40	41
193	33	38	39	40	41
194	15	6	5	31	33
195	16	79	74	83	86
195	17	79	74	83	86
195	18	79	74	83	86
196	15	7	6	5	31
197	5	71	69	68	100
197	6	71	69	68	100
198	19	62	39	38	65
199	19	124	106	105	125
200	15	83	86	87	89
201	1	15	14	13	19
201	2	15	14	13	19
201	3	15	14	13	19
201	4	15	14	13	19
202	19	55	45	44	56
203	11	67	66	68	100
203	12	67	66	68	100
204	15	71	74	83	84
205	23	111	110	109	120
206	28	43	44	45	46
206	29	43	44	45	46
207	19	70	69	71	72
208	30	40	39	38	65
208	31	40	39	38	65
209	15	87	86	97	98
210	15	75	74	79	81
211	5	34	4	3	36
211	6	34	4	3	36
212	16	10	13	19	22
212	17	10	13	19	22
212	18	10	13	19	22
213	15	89	87	86	91
214	15	4	5	6	9
215	30	104	103	102	130
215	31	104	103	102	130
216	15	23	22	27	28
217	19	59	42	41	61
218	23	108	107	106	123
219	30	110	111	112	116
219	31	110	111	112	116
220	16	13	19	22	27
220	17	13	19	22	27
220	18	13	19	22	27
221	15	10	13	19	21
222	28	46	47	48	49
222	29	46	47	48	49
223	15	18	13	19	22
224	15	4	5	6	8
225	32	45	46	47	48
225	33	45	46	47	48
226	16	13	19	22	31
226	17	13	19	22	31
226	18	13	19	22	31
227	16	6	5	10	13
227	17	6	5	10	13
227	18	6	5	10	13
228	15	12	10	13	19
229	15	73	71	74	83
230	15	96	91	86	97
231	19	18	13	19	21
232	28	40	41	42	43
232	29	40	41	42	43
233	15	23	22	31	33
234	32	105	106	107	108
234	33	105	106	107	108
235	30	110	109	108	121
235	31	110	109	108	121
236	23	41	40	39	63
237	15	21	19	22	31
238	15	23	22	27	29
239	23	45	46	47	52
240	15	19	22	31	32
241	9	67	66	68	69
241	10	67	66	68	69
242	15	25	23	22	31
243	7	17	14	15	37
243	8	17	14	15	37
244	15	8	6	5	10
245	14	14	13	19	20
246	37	111	112	113	114
246	38	111	112	113	114
247	16	71	69	97	86
247	17	71	69	97	86
247	18	71	69	97	86
248	5	17	14	13	19
248	6	17	14	13	19
249	15	72	71	74	83
250	15	83	86	87	90
251	1	66	68	69	97
251	2	66	68	69	97
251	3	66	68	69	97
251	4	66	68	69	97
252	15	71	74	79	80
253	15	26	23	22	27
254	15	71	74	83	85
255	36	91	92	93	94
256	23	111	110	109	119
257	5	70	69	68	100
257	6	70	69	68	100
258	19	119	109	108	122
259	19	63	39	38	64
260	16	69	97	86	91
260	17	69	97	86	91
260	18	69	97	86	91
261	15	10	5	31	32
262	15	26	23	22	31
263	15	10	5	4	34
264	15	71	74	75	76
265	5	1	3	4	35
265	6	1	3	4	35
266	30	113	112	111	118
266	31	113	112	111	118
267	15	7	6	5	10
268	16	74	83	86	91
268	17	74	83	86	91
268	18	74	83	86	91
269	19	63	39	38	65
270	28	107	108	109	110
270	29	107	108	109	110
271	23	47	46	45	55
272	14	3	4	5	31
273	19	115	112	111	118
274	14	87	86	91	92
275	32	103	104	105	106
275	33	103	104	105	106
276	32	108	109	110	111
276	33	108	109	110	111
277	15	19	22	23	24
278	15	27	22	31	33
279	23	50	48	49	101
280	14	92	91	86	97
281	15	4	5	10	11
282	19	70	69	97	99
283	15	28	27	22	31
284	13	2	1	66	68
285	30	107	106	105	126
285	31	107	106	105	126
286	23	15	37	38	64
287	15	23	22	27	30
288	23	41	40	39	62
289	14	14	13	19	22
290	15	90	87	86	91
291	15	20	19	22	23
292	14	68	69	71	74
293	15	88	87	86	97
294	19	128	103	102	130
295	13	2	1	66	67
296	5	97	69	68	100
296	6	97	69	68	100
297	15	77	75	74	79
298	14	14	13	19	21
299	16	69	71	74	75
299	17	69	71	74	75
299	18	69	71	74	75
300	1	66	68	69	71
300	2	66	68	69	71
300	3	66	68	69	71
300	4	66	68	69	71
301	15	70	69	97	86
302	23	103	104	105	126
303	15	73	71	69	97
304	23	47	48	49	101
305	15	19	22	27	28
306	15	70	69	71	74
307	1	10	13	14	15
307	2	10	13	14	15
307	3	10	13	14	15
307	4	10	13	14	15
308	21	15	37	38	39
308	22	15	37	38	39
309	15	71	74	79	81
310	15	87	86	91	95
311	16	71	74	83	86
311	17	71	74	83	86
311	18	71	74	83	86
312	19	54	45	44	56
313	14	3	4	5	6
314	19	51	48	47	52
315	7	13	14	15	16
315	8	13	14	15	16
316	30	107	108	109	120
316	31	107	108	109	120
317	7	4	3	1	66
317	8	4	3	1	66
318	15	84	83	86	97
319	15	31	5	4	35
320	15	9	6	5	31
321	16	5	31	22	23
321	17	5	31	22	23
321	18	5	31	22	23
322	15	21	19	22	23
323	16	75	74	83	86
323	17	75	74	83	86
323	18	75	74	83	86
324	15	79	74	83	84
325	23	109	110	111	117
326	14	12	10	13	14
327	19	127	103	102	130
328	15	5	10	13	18
329	15	71	74	75	77
330	23	47	46	45	54
331	28	101	102	103	104
331	29	101	102	103	104
332	15	6	5	10	12
333	15	72	71	69	97
334	32	39	40	41	42
334	33	39	40	41	42
335	14	83	86	91	92
336	15	88	87	86	91
337	15	19	22	27	29
338	15	4	5	31	33
339	16	74	71	69	97
339	17	74	71	69	97
339	18	74	71	69	97
340	30	104	105	106	124
340	31	104	105	106	124
341	19	50	48	47	53

Impropers

24	2	1	66	2	3
36	1	3	4	36	1
114	2	1	3	66	2
124	2	66	1	67	68
197	2	66	67	68	1
222	1	3	36	1	4
261	3	15	37	14	16
262	2	66	68	1	67
315	2	1	2	3	66
418	3	15	16	37	14
478	1	3	1	4	36
549	1	68	69	100	66
661	1	14	15	17	13
700	1	14	13	15	17
766	1	68	100	66	69
795	1	68	66	69	100
876	1	14	17	13	15
899	3	15	14	16	37
