Title

130 atoms
131 bonds
246 angles
492 dihedrals
18 impropers

11 atom types
14 bond types
9 angle types
39 dihedral types
3 improper types
-3.724999905 96.2750001 xlo xhi
-3.025000095 96.9749999 ylo yhi
-2.822999954 97.17700005 zlo zhi
0.0 0.0 0.0 xy xz yz

Masses

1	12.01078
2	15.99943
3	14.00672
4	12.01078
5	1.007947
6	1.007947
7	1.007947
8	15.99943
9	12.01078
10	15.99943
11	1.007947


Pair Coeffs

1	0.086879315	3.4806469
2	0.2102061	3.0398122
3	0.16769152	3.206876
4	0.10884061	3.3795318
5	0.015779483	2.6445434
6	0.014090815	1.1034277
7	0.016409246	2.5832257
8	0.16846514	3.0251065
9	0.21	3.3996695
10	0.20947353	2.99716
11	1.2326e-05	0.53453923

Bond Coeffs

1 harmonic	582.698766451	1.225198386222
2 harmonic	492.76746816345	1.381897776683
3 harmonic	279.1350963404	1.454628925034
4 harmonic	352.0565580496	1.450098586273
5 harmonic	505.144496193	1.019481865027
6 harmonic	264.62148576755	1.52190126495
7 harmonic	370.04670688625	1.093899492634
8 harmonic	301.15400723785	1.345741232799
9 harmonic	366.7408841747	1.425895053732
10 harmonic	300.03137914615	1.451203938761
11 harmonic	366.34047229585	1.464762957261
12 harmonic	602.81384337	1.196112346392
13 harmonic	329.96998057905	1.427343958716
14 harmonic	543.5267831885	0.9716763312559


Angle Coeffs

1 harmonic	55.42182150775	117.3465570514
2 harmonic	63.44422595415	115.5071327674
3 harmonic	57.8982893754	126.8062420451
4 harmonic	53.20531626545	116.5475862634
5 harmonic	48.776492647595	115.6030999533
6 harmonic	65.09061609600001	110.3538806181
7 harmonic	201.41175231035	127.4691416191
8 harmonic	55.07882548015	112.8714009681
9 harmonic	33.56981613361	180


Dihedral Coeffs

1 fourier 1	-0.1488678166443	4	180
2 fourier 1	-0.1230328948768	3	180
3 fourier 1	0.2939295466901	2	0
4 fourier 1	-0.3024127022865	1	0
5 fourier 1	0.182238503271	2	0
6 fourier 1	0.02972342374561	3	0
7 fourier 1	1.809047390003	2	180
8 fourier 1	-0.04816277792592	1	0
9 fourier 1	3.101948770557	2	180
10 fourier 1	-0.4252153282372	1	0
11 fourier 1	2.348375642009	2	180
12 fourier 1	1.256156174911	1	0
13 fourier 1	0.9974165607242	2	180
14 fourier 1	0.1155372516788	3	0
15 fourier 1	0.1040663847541	3	0
16 fourier 1	0.09223874044423	3	0
17 fourier 1	0.3159935921949	2	180
18 fourier 1	0.3247796806857	1	180
19 fourier 1	0.1911926717192	3	0
20 fourier 1	2.779853741805	2	180
21 fourier 1	0.1918272375143	3	0
22 fourier 1	0.9202179876409	1	180
23 fourier 1	0.0473758381877	3	0
24 fourier 1	0.4860993122944	2	180
25 fourier 1	0.8916986138746	1	0
26 fourier 1	1.163809172478	2	180
27 fourier 1	0.1679186987369	1	180
28 fourier 1	-0.0309670556842	3	0
29 fourier 1	0.4598191477945	2	0
30 fourier 1	0.1115525666802	3	0
31 fourier 1	0.3432490222662	1	0
32 fourier 1	0.4552156463534	3	0
33 fourier 1	-0.03687743385131	2	180
34 fourier 1	0.457973137376	1	0
35 fourier 1	-1.382973039546	1	0
36 fourier 1	0	1	0
37 fourier 1	0.3445382149273	3	0
38 fourier 1	0.1364556373303	1	0
39 fourier 1	0.3026390167484	3	0


Improper Coeffs

1 0.3333333333333333	-1	2
2 0.3666666666666667	-1	2
3 3.5	-1	2


Atoms

1	1	1	0.54474199	4.0289998	0.48899999	1.378
2	1	2	-0.67865801	4.243	-0.71499997	1.679
3	1	3	-0.48804599	2.914	0.85399997	0.56
4	1	4	0.00072000001	1.977	-0.15700001	0.055
5	1	4	-0.0072809998	0.87	0.421	-0.88499999
6	1	4	-0.169067	1.567	1.123	-2.082
7	1	5	0.075104997	2.2520001	0.419	-2.602
8	1	5	0.075104997	0.82099998	1.485	-2.823
9	1	5	0.075104997	2.151	2.0090001	-1.763
10	1	4	-0.20396499	-0.037	1.4579999	-0.167
11	1	5	0.114352	0.574	2.2349999	0.338
12	1	5	0.114352	-0.65399998	1.99	-0.92699999
13	1	4	0.12921201	-0.98799998	0.82499999	0.86299998
14	1	3	-0.51543099	-1.8049999	1.867	1.4960001
15	1	1	0.80814099	-2.503	1.655	2.7279999
16	1	2	-0.59764898	-2.428	0.55299997	3.3340001
17	1	6	0.317581	-1.867	2.8169999	1.064
18	1	7	0.049795002	-0.382	0.33899999	1.655
19	1	4	-0.20755801	-1.905	-0.20100001	0.17399999
20	1	5	0.115885	-2.5439999	0.345	-0.55699998
21	1	5	0.115885	-2.5910001	-0.65200001	0.926
22	1	4	-0.027038001	-1.128	-1.3279999	-0.55500001
23	1	4	-0.170812	-2.1259999	-2.092	-1.46
24	1	5	0.078139998	-1.614	-2.924	-1.99
25	1	5	0.078139998	-2.575	-1.419	-2.2219999
26	1	5	0.078139998	-2.9590001	-2.52	-0.86000001
27	1	4	-0.170812	-0.56800002	-2.3559999	0.463
28	1	5	0.078139998	-0.152	-1.8839999	1.37
29	1	5	0.078139998	0.212	-2.9949999	-0.0040000002
30	1	5	0.078139998	-1.375	-3.0250001	0.833
31	1	4	-0.209874	-0.011	-0.73100001	-1.473
32	1	5	0.116081	-0.51999998	-0.32600001	-2.378
33	1	5	0.116081	0.64200002	-1.549	-1.851
34	1	7	0.072323002	2.556	-0.926	-0.50099999
35	1	7	0.072323002	1.536	-0.66000003	0.92799997
36	1	6	0.31823999	2.7869999	1.869	0.36199999
37	1	8	-0.49610299	-3.075	2.4200001	3.132
38	1	4	0.109596	-2.914	3.529	2.29
39	1	4	0.079397999	-1.563	4.1939998	2.539
40	1	8	-0.485567	-1.4450001	5.3260002	1.705
41	1	4	0.059999	-0.198	5.9489999	1.9299999
42	1	4	0.060256999	-0.078000002	7.1700001	1.021
43	1	8	-0.48566899	1.197	7.7659998	1.17
44	1	4	0.060256999	1.137	8.8500004	2.0739999
45	1	4	0.060256999	2.5539999	9.3109999	2.408
46	1	8	-0.48776099	3.3169999	8.2329998	2.9200001
47	1	4	0.080320001	3.296	8.2349997	4.3319998
48	1	4	0.029947	3.9790001	6.9699998	4.842
49	1	8	-0.142147	3.9489999	6.9299998	6.243
50	1	7	0.091867	5.0300002	6.9260001	4.474
51	1	7	0.091867	3.4400001	6.0809999	4.4499998
52	1	7	0.087995999	3.849	9.1199999	4.7210002
53	1	7	0.087995999	2.253	8.25	4.7210002
54	1	7	0.087820001	2.5179999	10.195	3.089
55	1	7	0.087820001	3.0380001	9.6590004	1.471
56	1	7	0.087820001	0.59100002	9.7010002	1.607
57	1	7	0.087820001	0.62099999	8.5690002	3.02
58	1	7	0.087820001	-0.17399999	6.8319998	-0.033
59	1	7	0.087820001	-0.92500001	7.8730001	1.206
60	1	7	0.087820001	0.639	5.2519999	1.692
61	1	7	0.087820001	-0.111	6.2810001	2.9890001
62	1	7	0.086474001	-0.75999999	3.454	2.3150001
63	1	7	0.086474001	-1.5089999	4.487	3.6129999
64	1	7	0.094365999	-2.9990001	3.223	1.222
65	1	7	0.094365999	-3.7249999	4.2579999	2.5039999
66	1	1	0.55740601	4.698	1.256	1.745
67	1	2	-0.668154	4.2490001	2.158	2.5009999
68	1	3	-0.56667799	6.0770001	1.2359999	1.36
69	1	4	0.127009	7.0419998	2.2379999	1.83
70	1	7	0.047618002	6.5580001	3.2320001	1.76
71	1	4	-0.208672	7.4299998	1.9349999	3.289
72	1	5	0.115885	6.52	1.96	3.928
73	1	5	0.115885	7.8239999	0.89399999	3.3299999
74	1	4	-0.027574001	8.4890003	2.9130001	3.862
75	1	4	-0.170812	9.0039997	2.3329999	5.2010002
76	1	5	0.078140996	9.7609997	3.0090001	5.6550002
77	1	5	0.078140996	8.1709995	2.2049999	5.9260001
78	1	5	0.078140996	9.4759998	1.337	5.053
79	1	4	-0.170812	7.8559999	4.29	4.1830001
80	1	5	0.078140996	7.23	4.6789999	3.365
81	1	5	0.078140996	7.1830001	4.2140002	5.0640001
82	1	5	0.078140996	8.6420002	5.039	4.4190001
83	1	4	-0.208581	9.7060003	3.0380001	2.8929999
84	1	5	0.114766	10.292	2.095	2.9849999
85	1	5	0.114766	10.391	3.8369999	3.25
86	1	4	0.025485	9.3879995	3.2290001	1.373
87	1	4	-0.167621	10.675	2.908	0.57099998
88	1	5	0.071644999	10.5	3.0209999	-0.52100003
89	1	5	0.071644999	11.504	3.5880001	0.86500001
90	1	5	0.071644999	11.011	1.864	0.75199997
91	1	4	0.144316	8.9680004	4.684	1.0089999
92	1	3	-0.61489999	9.9189997	5.6589999	1.533
93	1	9	0.60131502	9.7629995	6.9060001	1.335
94	1	2	-0.4524	9.6110001	8.1190004	1.142
95	1	7	0.070598997	7.9569998	4.9299998	1.372
96	1	7	0.070598997	8.9189997	4.7880001	-0.098999999
97	1	4	-0.205073	8.2919998	2.2219999	0.93099999
98	1	5	0.11423	8.7130003	1.191	0.94199997
99	1	5	0.11423	7.987	2.4349999	-0.118
100	1	6	0.314601	6.3790002	0.49200001	0.69099998
101	1	8	-0.142147	4.6469998	7.5599999	6.5599999
102	1	4	0.029947	4.0349998	8.816	6.6680002
103	1	4	0.080320001	3.868	9.4469995	5.289
104	1	8	-0.48776099	3.283	10.723	5.4330001
105	1	4	0.060256999	3.1270001	11.316	4.1609998
106	1	4	0.060256999	2.4909999	12.694	4.3260002
107	1	8	-0.48566899	2.25	13.275	3.059
108	1	4	0.060256999	3.2950001	14.16	2.71
109	1	4	0.060256999	3.142	14.575	1.249
110	1	8	-0.483518	3.1070001	13.434	0.41100001
111	1	4	0.052467	4.3920002	13.158	-0.107
112	1	4	0.074790999	4.3509998	11.831	-0.85900003
113	1	10	-0.67983902	5.6209998	11.516	-1.3609999
114	1	11	0.39165199	5.7600002	12.086	-2.1619999
115	1	7	0.088518001	3.6070001	11.883	-1.687
116	1	7	0.088518001	4.0349998	11.026	-0.163
117	1	7	0.088881001	4.6989999	13.96	-0.815
118	1	7	0.088881001	5.1459999	13.073	0.708
119	1	7	0.087820001	3.938	15.307	0.97399998
120	1	7	0.087820001	2.175	15.111	1.138
121	1	7	0.087820001	3.244	15.074	3.3429999
122	1	7	0.087820001	4.2950001	13.687	2.8429999
123	1	7	0.087820001	1.511	12.568	4.835
124	1	7	0.087820001	3.1159999	13.329	4.9990001
125	1	7	0.087820001	2.4590001	10.697	3.5179999
126	1	7	0.087820001	4.1139998	11.435	3.6600001
127	1	7	0.087995999	3.2179999	8.783	4.6739998
128	1	7	0.087995999	4.8740001	9.5240002	4.8150001
129	1	7	0.091867	3.0439999	8.724	7.1700001
130	1	7	0.091867	4.677	9.4709997	7.2950001

Bonds

1	1	1	2
2	2	1	3
3	3	1	66
4	4	3	4
5	5	3	36
6	6	4	5
7	7	4	34
8	7	4	35
9	6	5	6
10	6	5	10
11	6	5	31
12	7	6	7
13	7	6	8
14	7	6	9
15	7	10	11
16	7	10	12
17	6	10	13
18	4	13	14
19	7	13	18
20	6	13	19
21	2	14	15
22	5	14	17
23	1	15	16
24	8	15	37
25	7	19	20
26	7	19	21
27	6	19	22
28	6	22	23
29	6	22	27
30	6	22	31
31	7	23	24
32	7	23	25
33	7	23	26
34	7	27	28
35	7	27	29
36	7	27	30
37	7	31	32
38	7	31	33
39	9	37	38
40	6	38	39
41	7	38	64
42	7	38	65
43	9	39	40
44	7	39	62
45	7	39	63
46	9	40	41
47	6	41	42
48	7	41	60
49	7	41	61
50	9	42	43
51	7	42	58
52	7	42	59
53	9	43	44
54	6	44	45
55	7	44	56
56	7	44	57
57	9	45	46
58	7	45	54
59	7	45	55
60	9	46	47
61	6	47	48
62	7	47	52
63	7	47	53
64	9	48	49
65	7	48	50
66	7	48	51
67	10	49	101
68	1	66	67
69	2	66	68
70	4	68	69
71	5	68	100
72	7	69	70
73	6	69	71
74	6	69	97
75	7	71	72
76	7	71	73
77	6	71	74
78	6	74	75
79	6	74	79
80	6	74	83
81	7	75	76
82	7	75	77
83	7	75	78
84	7	79	80
85	7	79	81
86	7	79	82
87	7	83	84
88	7	83	85
89	6	83	86
90	6	86	87
91	6	86	91
92	6	86	97
93	7	87	88
94	7	87	89
95	7	87	90
96	11	91	92
97	7	91	95
98	7	91	96
99	12	92	93
100	1	93	94
101	7	97	98
102	7	97	99
103	9	101	102
104	6	102	103
105	7	102	129
106	7	102	130
107	9	103	104
108	7	103	127
109	7	103	128
110	9	104	105
111	6	105	106
112	7	105	125
113	7	105	126
114	9	106	107
115	7	106	123
116	7	106	124
117	9	107	108
118	6	108	109
119	7	108	121
120	7	108	122
121	9	109	110
122	7	109	119
123	7	109	120
124	9	110	111
125	6	111	112
126	7	111	117
127	7	111	118
128	13	112	113
129	7	112	115
130	7	112	116
131	14	113	114

Angles

1	4	102	103	128
2	3	3	1	66
3	4	74	79	81
4	6	49	101	102
5	4	72	71	74
6	4	111	112	116
7	4	110	111	117
8	4	105	106	107
9	4	108	109	110
10	4	47	48	51
11	4	69	71	73
12	4	86	87	90
13	6	106	107	108
14	6	109	110	111
15	5	25	23	26
16	2	4	3	36
17	4	105	106	123
18	5	32	31	33
19	4	68	69	70
20	4	104	105	126
21	4	22	27	30
22	3	14	15	16
23	2	13	14	17
24	4	48	47	52
25	4	68	69	97
26	4	86	97	99
27	4	19	22	27
28	4	40	39	62
29	4	83	86	87
30	4	104	105	106
31	4	40	41	42
32	5	20	19	21
33	4	14	13	18
34	5	50	48	51
35	4	71	74	83
36	6	112	113	114
37	5	80	79	81
38	4	86	91	96
39	4	5	31	32
40	4	19	22	23
41	4	39	38	65
42	4	13	19	21
43	2	69	68	100
44	4	68	69	71
45	4	107	108	122
46	6	39	40	41
47	6	42	43	44
48	6	45	46	47
49	4	49	48	50
50	4	71	74	79
51	4	43	42	58
52	4	48	47	53
53	4	113	112	116
54	4	86	91	92
55	4	73	71	74
56	4	23	22	31
57	4	20	19	22
58	4	14	13	19
59	4	42	41	60
60	4	22	31	32
61	4	38	39	63
62	4	71	74	75
63	5	80	79	82
64	4	5	31	33
65	3	1	66	68
66	3	67	66	68
67	4	112	111	117
68	1	1	3	4
69	4	5	6	8
70	4	6	5	10
71	4	23	22	27
72	4	49	48	51
73	5	88	87	90
74	4	108	109	119
75	4	74	75	76
76	4	107	106	123
77	4	19	22	31
78	5	62	39	63
79	4	83	86	91
80	5	34	4	35
81	4	75	74	79
82	2	15	14	17
83	4	92	91	95
84	4	101	102	130
85	5	28	27	29
86	4	5	10	13
87	4	5	4	35
88	4	74	83	85
89	6	103	104	105
90	4	22	23	25
91	4	106	105	126
92	4	79	74	83
93	4	5	6	9
94	4	74	79	82
95	4	74	75	77
96	4	110	111	118
97	5	58	42	59
98	5	76	75	77
99	4	87	86	97
100	4	69	71	74
101	4	38	39	40
102	4	109	108	121
103	5	115	112	116
104	4	105	106	124
105	4	45	44	56
106	5	11	10	12
107	4	111	112	113
108	4	22	23	26
109	4	4	5	10
110	4	12	10	13
111	4	3	4	34
112	4	40	39	63
113	4	4	5	31
114	4	37	38	39
115	5	95	91	96
116	4	21	19	22
117	4	75	74	83
118	6	48	49	101
119	4	84	83	86
120	4	110	109	119
121	4	104	103	127
122	4	5	31	22
123	4	13	19	22
124	5	127	103	128
125	4	91	86	97
126	4	69	97	98
127	4	6	5	31
128	4	11	10	13
129	4	43	42	59
130	4	74	83	86
131	4	103	102	129
132	4	101	102	103
133	4	44	45	46
134	4	47	48	49
135	7	16	15	37
136	5	24	23	25
137	5	52	47	53
138	2	1	3	36
139	4	86	87	88
140	4	42	41	61
141	4	22	31	33
142	5	98	97	99
143	4	22	27	28
144	4	40	41	60
145	1	13	14	15
146	4	46	45	54
147	4	4	5	6
148	4	102	103	127
149	4	43	44	56
150	4	112	111	118
151	4	3	4	5
152	5	123	106	124
153	4	43	44	45
154	6	15	37	38
155	5	72	71	73
156	4	108	109	120
157	4	107	106	124
158	3	14	15	37
159	2	66	68	100
160	5	77	75	78
161	5	24	23	26
162	4	86	87	89
163	4	92	91	96
164	5	64	38	65
165	4	70	69	97
166	5	28	27	30
167	4	10	5	31
168	4	83	86	97
169	4	107	108	109
170	4	110	111	112
171	4	44	45	54
172	4	69	97	86
173	1	66	68	69
174	4	86	97	98
175	5	117	111	118
176	4	43	44	57
177	4	87	86	91
178	5	119	109	120
179	4	27	22	31
180	4	18	13	19
181	4	74	75	78
182	5	7	6	8
183	8	91	92	93
184	5	54	45	55
185	5	8	6	9
186	4	37	38	64
187	5	76	75	78
188	4	86	91	95
189	5	129	102	130
190	4	39	38	64
191	4	70	69	71
192	4	109	108	122
193	3	2	1	3
194	4	13	19	20
195	5	60	41	61
196	3	2	1	66
197	4	71	69	97
198	4	107	108	121
199	5	29	27	30
200	4	45	44	57
201	4	102	103	104
202	4	113	112	115
203	4	3	4	35
204	4	44	45	55
205	5	81	79	82
206	4	85	83	86
207	4	46	47	52
208	5	7	6	9
209	4	38	39	62
210	9	92	93	94
211	4	5	10	11
212	4	10	13	18
213	4	37	38	65
214	5	125	105	126
215	3	1	66	67
216	4	41	42	58
217	4	110	109	120
218	5	84	83	85
219	4	104	103	128
220	5	56	44	57
221	4	5	6	7
222	5	89	87	90
223	4	74	79	80
224	4	46	47	48
225	5	88	87	89
226	4	69	97	99
227	4	111	112	115
228	4	103	102	130
229	4	10	13	14
230	4	47	48	50
231	4	69	71	72
232	4	101	102	129
233	5	121	108	122
234	4	46	47	53
235	4	41	42	43
236	4	104	105	125
237	4	5	10	12
238	4	22	27	29
239	4	40	41	61
240	4	10	13	19
241	4	5	4	34
242	4	22	23	24
243	4	106	105	125
244	4	74	83	84
245	4	41	42	59
246	4	46	45	55

Dihedrals

1	23	49	101	102	130
2	28	40	41	42	43
2	29	40	41	42	43
3	14	87	86	91	92
4	15	21	19	22	31
5	20	14	15	37	38
6	15	19	22	31	32
7	35	93	92	91	95
8	15	7	6	5	10
9	23	111	110	109	119
10	15	19	22	23	26
11	19	128	103	102	129
12	19	120	109	108	121
13	19	58	42	41	60
14	32	41	42	43	44
14	33	41	42	43	44
15	15	6	5	31	32
16	30	37	38	39	63
16	31	37	38	39	63
17	15	28	27	22	31
18	15	85	83	86	97
19	19	54	45	44	56
20	7	36	3	1	66
20	8	36	3	1	66
21	15	87	86	91	96
22	23	49	101	102	103
23	19	62	39	38	64
24	23	106	107	108	121
25	30	107	108	109	120
25	31	107	108	109	120
26	30	113	112	111	117
26	31	113	112	111	117
27	19	55	45	44	57
28	15	10	5	31	32
29	23	105	104	103	128
30	34	48	49	101	102
31	15	4	5	6	8
32	23	15	37	38	64
33	16	5	10	13	19
33	17	5	10	13	19
33	18	5	10	13	19
34	9	2	1	3	4
34	10	2	1	3	4
35	14	14	13	19	20
36	15	23	22	27	28
37	15	71	74	75	78
38	19	51	48	47	53
39	15	25	23	22	31
40	32	108	109	110	111
40	33	108	109	110	111
41	5	17	14	13	19
41	6	17	14	13	19
42	15	75	74	83	84
43	39	114	113	112	116
44	23	47	48	49	101
45	30	43	44	45	54
45	31	43	44	45	54
46	23	49	101	102	129
47	23	45	46	47	52
48	15	20	19	22	27
49	23	103	104	105	126
50	15	9	6	5	31
51	15	87	86	97	99
52	32	103	104	105	106
52	33	103	104	105	106
53	13	3	1	66	68
54	37	111	112	113	114
54	38	111	112	113	114
55	16	13	19	22	27
55	17	13	19	22	27
55	18	13	19	22	27
56	32	109	110	111	112
56	33	109	110	111	112
57	13	2	1	66	68
58	15	11	10	5	31
59	15	19	22	27	30
60	15	19	22	23	25
61	30	104	105	106	124
61	31	104	105	106	124
62	16	4	5	10	13
62	17	4	5	10	13
62	18	4	5	10	13
63	7	17	14	15	37
63	8	17	14	15	37
64	15	72	71	74	83
65	5	15	14	13	18
65	6	15	14	13	18
66	30	110	109	108	121
66	31	110	109	108	121
67	15	24	23	22	27
68	16	74	71	69	97
68	17	74	71	69	97
68	18	74	71	69	97
69	16	5	31	22	27
69	17	5	31	22	27
69	18	5	31	22	27
70	23	39	40	41	60
71	15	71	74	79	82
72	19	116	112	111	117
73	15	91	86	97	99
74	16	6	5	31	22
74	17	6	5	31	22
74	18	6	5	31	22
75	5	1	3	4	35
75	6	1	3	4	35
76	9	67	66	68	69
76	10	67	66	68	69
77	15	78	75	74	83
78	15	87	86	91	95
79	14	68	69	97	86
80	30	40	39	38	65
80	31	40	39	38	65
81	15	21	19	22	23
82	19	50	48	47	52
83	30	49	48	47	53
83	31	49	48	47	53
84	14	68	69	71	74
85	7	1	66	68	69
85	8	1	66	68	69
86	30	110	111	112	115
86	31	110	111	112	115
87	28	107	108	109	110
87	29	107	108	109	110
88	19	55	45	44	56
89	14	12	10	13	14
90	15	73	71	74	83
91	23	105	104	103	127
92	16	10	5	31	22
92	17	10	5	31	22
92	18	10	5	31	22
93	16	79	74	83	86
93	17	79	74	83	86
93	18	79	74	83	86
94	30	40	41	42	59
94	31	40	41	42	59
95	1	66	68	69	71
95	2	66	68	69	71
95	3	66	68	69	71
95	4	66	68	69	71
96	14	68	69	97	99
97	15	23	22	31	32
98	15	5	10	13	18
99	15	71	74	75	77
100	32	38	39	40	41
100	33	38	39	40	41
101	19	51	48	47	52
102	23	47	46	45	55
103	15	77	75	74	83
104	14	3	4	5	6
105	5	17	14	13	18
105	6	17	14	13	18
106	15	75	74	79	82
107	5	35	4	3	36
107	6	35	4	3	36
108	30	104	103	102	129
108	31	104	103	102	129
109	1	1	3	4	5
109	2	1	3	4	5
109	3	1	3	4	5
109	4	1	3	4	5
110	14	83	86	91	92
111	23	51	48	49	101
112	24	16	15	14	17
112	25	16	15	14	17
113	23	42	43	44	57
114	15	87	86	97	98
115	13	3	1	66	67
116	15	70	69	71	74
117	30	43	42	41	61
117	31	43	42	41	61
118	5	10	13	14	17
118	6	10	13	14	17
119	15	19	22	27	29
120	16	6	5	10	13
120	17	6	5	10	13
120	18	6	5	10	13
121	30	104	105	106	123
121	31	104	105	106	123
122	15	4	5	10	12
123	15	79	74	83	85
124	15	83	86	97	99
125	19	18	13	19	21
126	15	8	6	5	10
127	15	71	74	79	81
128	30	107	106	105	126
128	31	107	106	105	126
129	15	4	5	31	33
130	15	83	86	91	96
131	7	4	3	1	66
131	8	4	3	1	66
132	19	63	39	38	64
133	30	101	102	103	128
133	31	101	102	103	128
134	28	43	44	45	46
134	29	43	44	45	46
135	30	40	39	38	64
135	31	40	39	38	64
136	14	68	69	71	73
137	23	50	48	49	101
138	19	124	106	105	125
139	15	25	23	22	27
140	15	70	69	97	86
141	28	104	105	106	107
141	29	104	105	106	107
142	15	6	5	4	35
143	16	5	31	22	19
143	17	5	31	22	19
143	18	5	31	22	19
144	16	69	71	74	83
144	17	69	71	74	83
144	18	69	71	74	83
145	30	46	47	48	51
145	31	46	47	48	51
146	15	83	86	87	88
147	16	71	74	83	86
147	17	71	74	83	86
147	18	71	74	83	86
148	30	40	41	42	58
148	31	40	41	42	58
149	5	66	68	69	70
149	6	66	68	69	70
150	14	68	69	97	98
151	15	73	71	69	97
152	1	66	68	69	97
152	2	66	68	69	97
152	3	66	68	69	97
152	4	66	68	69	97
153	32	102	103	104	105
153	33	102	103	104	105
154	32	45	46	47	48
154	33	45	46	47	48
155	15	20	19	22	23
156	23	47	46	45	54
157	16	13	19	22	23
157	17	13	19	22	23
157	18	13	19	22	23
158	15	26	23	22	31
159	19	70	69	97	99
160	5	5	4	3	36
160	6	5	4	3	36
161	15	72	71	74	79
162	23	108	107	106	124
163	15	75	74	79	81
164	15	10	5	4	35
165	16	5	31	22	23
165	17	5	31	22	23
165	18	5	31	22	23
166	16	71	69	97	86
166	17	71	69	97	86
166	18	71	69	97	86
167	15	30	27	22	31
168	15	78	75	74	79
169	14	14	13	19	22
170	15	23	22	27	30
171	23	42	43	44	56
172	19	70	69	71	73
173	15	11	10	13	19
174	15	6	5	4	34
175	15	4	5	10	11
176	7	13	14	15	37
176	8	13	14	15	37
177	14	3	4	5	31
178	15	83	86	97	98
179	15	29	27	22	31
180	15	27	22	31	33
181	15	12	10	5	31
182	15	71	74	83	85
183	19	18	13	19	20
184	15	71	74	79	80
185	32	105	106	107	108
185	33	105	106	107	108
186	30	107	106	105	125
186	31	107	106	105	125
187	15	73	71	74	79
188	30	37	38	39	62
188	31	37	38	39	62
189	15	83	86	91	95
190	14	5	10	13	14
191	19	119	109	108	122
192	21	15	37	38	39
192	22	15	37	38	39
193	14	68	69	71	72
194	15	19	22	31	33
195	15	77	75	74	79
196	19	127	103	102	130
197	28	110	111	112	113
197	29	110	111	112	113
198	30	107	108	109	119
198	31	107	108	109	119
199	32	39	40	41	42
199	33	39	40	41	42
200	16	75	74	83	86
200	17	75	74	83	86
200	18	75	74	83	86
201	30	46	47	48	50
201	31	46	47	48	50
202	15	4	5	6	7
203	19	123	106	105	126
204	19	115	112	111	118
205	5	34	4	3	36
205	6	34	4	3	36
206	15	7	6	5	31
207	23	109	110	111	118
208	15	9	6	5	10
209	23	44	43	42	59
210	15	89	87	86	91
211	19	59	42	41	61
212	5	1	3	4	34
212	6	1	3	4	34
213	15	31	5	4	35
214	16	69	97	86	87
214	17	69	97	86	87
214	18	69	97	86	87
215	39	114	113	112	115
216	15	85	83	86	91
217	15	76	75	74	83
218	14	14	13	19	21
219	15	23	22	27	29
220	23	103	104	105	125
221	16	10	13	19	22
221	17	10	13	19	22
221	18	10	13	19	22
222	28	101	102	103	104
222	29	101	102	103	104
223	13	2	1	66	67
224	19	11	10	13	18
225	15	19	22	23	24
226	15	82	79	74	83
227	15	75	74	83	85
228	16	69	97	86	91
228	17	69	97	86	91
228	18	69	97	86	91
229	5	97	69	68	100
229	6	97	69	68	100
230	15	80	79	74	83
231	15	27	22	31	32
232	15	71	74	83	84
233	15	72	71	69	97
234	15	91	86	97	98
235	16	74	83	86	87
235	17	74	83	86	87
235	18	74	83	86	87
236	16	69	71	74	79
236	17	69	71	74	79
236	18	69	71	74	79
237	16	4	5	31	22
237	17	4	5	31	22
237	18	4	5	31	22
238	30	43	44	45	55
238	31	43	44	45	55
239	11	2	1	3	36
239	12	2	1	3	36
240	23	45	46	47	53
241	19	119	109	108	121
242	30	49	48	47	52
242	31	49	48	47	52
243	15	26	23	22	27
244	15	89	87	86	97
245	15	84	83	86	91
246	15	31	5	4	34
247	19	127	103	102	129
248	1	15	14	13	19
248	2	15	14	13	19
248	3	15	14	13	19
248	4	15	14	13	19
249	15	72	71	74	75
250	30	110	109	108	122
250	31	110	109	108	122
251	19	116	112	111	118
252	23	39	40	41	61
253	16	74	83	86	91
253	17	74	83	86	91
253	18	74	83	86	91
254	28	46	47	48	49
254	29	46	47	48	49
255	19	123	106	105	125
256	19	115	112	111	117
257	15	90	87	86	91
258	35	86	91	92	93
259	15	71	74	75	76
260	19	50	48	47	53
261	23	109	110	111	117
262	23	44	43	42	58
263	30	110	111	112	116
263	31	110	111	112	116
264	19	59	42	41	60
265	23	41	40	39	63
266	15	88	87	86	91
267	14	92	91	86	97
268	15	73	71	74	75
269	15	83	86	87	90
270	30	46	45	44	57
270	31	46	45	44	57
271	15	23	22	31	33
272	15	10	13	19	21
273	32	44	45	46	47
273	33	44	45	46	47
274	30	43	42	41	60
274	31	43	42	41	60
275	32	42	43	44	45
275	33	42	43	44	45
276	15	84	83	86	97
277	15	19	22	27	28
278	15	6	5	10	12
279	16	69	97	86	83
279	17	69	97	86	83
279	18	69	97	86	83
280	5	70	69	68	100
280	6	70	69	68	100
281	15	79	74	83	84
282	16	13	10	5	31
282	17	13	10	5	31
282	18	13	10	5	31
283	30	104	103	102	130
283	31	104	103	102	130
284	15	12	10	13	19
285	16	74	83	86	97
285	17	74	83	86	97
285	18	74	83	86	97
286	15	71	69	97	99
287	15	4	5	31	32
288	28	37	38	39	40
288	29	37	38	39	40
289	30	101	102	103	127
289	31	101	102	103	127
290	15	90	87	86	97
291	26	16	15	37	38
291	27	16	15	37	38
292	36	91	92	93	94
293	35	93	92	91	96
294	23	111	110	109	120
295	19	128	103	102	130
296	19	120	109	108	122
297	32	106	107	108	109
297	33	106	107	108	109
298	15	10	5	4	34
299	19	58	42	41	61
300	15	88	87	86	97
301	15	6	5	31	33
302	15	18	13	19	22
303	15	85	83	86	87
304	5	71	69	68	100
304	6	71	69	68	100
305	19	54	45	44	57
306	19	63	39	38	65
307	15	20	19	22	31
308	15	76	75	74	79
309	16	13	19	22	31
309	17	13	19	22	31
309	18	13	19	22	31
310	19	124	106	105	126
311	15	81	79	74	83
312	19	62	39	38	65
313	23	106	107	108	122
314	19	70	69	97	98
315	14	11	10	13	14
316	7	13	14	15	16
316	8	13	14	15	16
317	15	8	6	5	31
318	23	41	40	39	62
319	15	96	91	86	97
320	30	113	112	111	118
320	31	113	112	111	118
321	23	108	107	106	123
322	15	75	74	79	80
323	15	24	23	22	31
324	14	3	4	5	10
325	15	10	5	31	33
326	16	69	71	74	75
326	17	69	71	74	75
326	18	69	71	74	75
327	15	83	86	87	89
328	15	4	5	6	9
329	23	15	37	38	65
330	11	67	66	68	100
330	12	67	66	68	100
331	15	95	91	86	97
332	30	46	45	44	56
332	31	46	45	44	56
333	15	21	19	22	27
334	15	10	13	19	20
335	19	70	69	71	72
336	1	10	13	14	15
336	2	10	13	14	15
336	3	10	13	14	15
336	4	10	13	14	15
337	7	1	66	68	100
337	8	1	66	68	100
338	15	84	83	86	87
339	15	6	5	10	11
340	19	12	10	13	18
341	15	71	69	97	98

Impropers

34	1	14	15	17	13
45	1	3	1	4	36
71	1	14	17	13	15
219	1	3	4	36	1
237	3	15	37	14	16
283	2	66	1	67	68
393	1	14	13	15	17
467	1	68	100	66	69
491	3	15	14	16	37
593	1	68	66	69	100
606	1	3	36	1	4
607	1	68	69	100	66
661	2	1	3	66	2
682	3	15	16	37	14
706	2	66	68	1	67
769	2	1	2	3	66
841	2	66	67	68	1
863	2	1	66	2	3
