Title

621 atoms
665 bonds
1058 angles
1610 dihedrals
966 impropers

12 atom types
17 bond types
10 angle types
19 dihedral types
3 improper types
-16.29899979 83.70100021 xlo xhi
-10.91300011 89.08699989 ylo yhi
-5.94299984 94.05700016 zlo zhi
0.0 0.0 0.0 xy xz yz

Masses

1	15.99943
2	12.01078
3	14.00672
4	1.007947
5	12.01078
6	1.007947
7	1.007947
8	15.99943
9	1.007947
10	12.01078
11	15.99943
12	1.007947


Pair Coeffs

1	0.2102061	3.0398122
2	0.086879315	3.4806469
3	0.16769152	3.206876
4	0.015611343	2.5725815
5	0.10884061	3.3795318
6	0.014090815	1.1034277
7	0.015779483	2.6445434
8	0.16846514	3.0251065
9	0.013106998	2.4536265
10	0.21	3.3996695
11	0.20947353	2.99716
12	1.2326e-05	0.53453923

Bond Coeffs

1 harmonic	582.698766451	1.225198386222
2 harmonic	492.76746816345	1.381897776683
3 harmonic	301.15400723785	1.345741232799
4 harmonic	390.03554688505	1.390160554689
5 harmonic	505.144496193	1.019481865027
6 harmonic	360.7852444772	1.387193227181
7 harmonic	397.2545789619	1.085358495916
8 harmonic	289.73813263395	1.498646816465
9 harmonic	370.04670688625	1.093899492634
10 harmonic	279.1350963404	1.454628925034
11 harmonic	425.69104206635	1.362945806494
12 harmonic	382.5450169811	1.379244394267
13 harmonic	505.481965552	1.304826179986
14 harmonic	300.03137914615	1.451203938761
15 harmonic	602.81384337	1.196112346392
16 harmonic	385.7604595587	1.369745182308
17 harmonic	543.5267831885	0.9716763312559


Angle Coeffs

1 harmonic	57.8982893754	126.8062420451
2 harmonic	201.41175231035	127.4691416191
3 harmonic	55.42182150775	117.3465570514
4 harmonic	63.44422595415	115.5071327674
5 harmonic	65.09061609600001	110.3538806181
6 harmonic	34.066775159195	129.1835929926
7 harmonic	53.20531626545	116.5475862634
8 harmonic	48.776492647595	115.6030999533
9 harmonic	55.07882548015	112.8714009681
10 harmonic	33.56981613361	180


Dihedral Coeffs

1 fourier 1	1.809047390003	2	180
2 fourier 1	-0.04816277792592	1	0
3 fourier 1	0.4860993122944	2	180
4 fourier 1	0.8916986138746	1	0
5 fourier 1	1.532232714475	2	180
6 fourier 1	1.193093382682	2	180
7 fourier 1	2.779853741805	2	180
8 fourier 1	3.661930099076	2	180
9 fourier 1	0.02664938770063	3	0
10 fourier 1	3.101948770557	2	180
11 fourier 1	-0.4252153282372	1	0
12 fourier 1	0.9974165607242	2	180
13 fourier 1	2.348375642009	2	180
14 fourier 1	1.256156174911	1	0
15 fourier 1	1.550515418264	2	180
16 fourier 1	6.736762477654	2	180
17 fourier 1	0.457973137376	1	0
18 fourier 1	0	1	0
19 fourier 1	0.8283030590042	2	180


Improper Coeffs

1 3.5	-1	2
2 0.3333333333333333	-1	2
3 0.3666666666666667	-1	2


Atoms

1	1	1	-0.59713298	5.888	1.24	-0.66600001
2	1	2	0.83357197	5.763	0.13699999	-1.261
3	1	3	-0.496077	4.664	-0.73799998	-0.98100001
4	1	2	0.23577499	3.517	-0.37	-0.19499999
5	1	2	-0.367553	2.8740001	-1.309	0.51999998
6	1	2	-0.142424	1.6849999	-0.95899999	1.324
7	1	2	-0.24548499	1.228	0.30500001	1.3430001
8	1	2	-0.142424	1.906	1.335	0.51999998
9	1	2	-0.367553	2.983	1.017	-0.208
10	1	4	0.21646801	3.4389999	1.776	-0.829
11	1	4	0.21470299	1.521	2.346	0.493
12	1	5	-0.050754	-0.0060000001	0.66500002	2.1259999
13	1	2	-0.24548499	-1.234	0.47	1.28
14	1	2	-0.142424	-1.6900001	1.4579999	0.491
15	1	2	-0.379769	-2.8740001	1.243	-0.366
16	1	2	0.205458	-3.5139999	0.061000001	-0.36300001
17	1	2	-0.379769	-2.983	-1.044	0.477
18	1	2	-0.142424	-1.91	-0.84899998	1.253
19	1	4	0.21470299	-1.527	-1.666	1.852
20	1	4	0.21646801	-3.4360001	-2.026	0.44600001
21	1	3	-0.50789201	-4.6560001	-0.12899999	-1.216
22	1	2	0.57117701	-5.7550001	-0.995	-0.90799999
23	1	1	-0.61104703	-5.8860002	-1.506	0.235
24	1	6	0.32121101	-4.737	0.44999999	-2.082
25	1	4	0.21646801	-3.227	2.056	-0.98799998
26	1	4	0.21470299	-1.1950001	2.421	0.47
27	1	7	0.125879	0.061999999	1.72	2.4719999
28	1	7	0.125879	-0.077	0.039999999	3.043
29	1	4	0.21470299	1.189	-1.735	1.893
30	1	4	0.21646801	3.2290001	-2.332	0.52700001
31	1	6	0.32439399	4.7480001	-1.726	-1.313
32	1	8	-0.433422	17.127001	-8.7989998	-2.8559999
33	1	2	0.27899799	15.816	-8.5120001	-3.2260001
34	1	2	-0.190401	15.44	-8.6470003	-4.5040002
35	1	2	-0.14336599	14.051	-8.3409996	-4.9070001
36	1	2	0.203372	13.166	-7.8930001	-4.0040002
37	1	2	-0.14336599	13.576	-7.7800002	-2.579
38	1	2	-0.190401	14.833	-8.0629997	-2.214
39	1	4	0.213008	15.125	-7.9780002	-1.176
40	1	4	0.207568	12.859	-7.4840002	-1.825
41	1	3	-0.56582201	11.816	-7.632	-4.4169998
42	1	2	0.42135	11.038	-6.6659999	-4.0159998
43	1	2	-0.27604499	11.479	-5.5320001	-3.174
44	1	2	-0.179859	12.626	-4.8730001	-3.418
45	1	2	-0.179859	13.018	-3.7219999	-2.579
46	1	2	-0.27604499	12.208	-3.2869999	-1.6
47	1	2	-0.179859	10.94	-4.013	-1.3329999
48	1	2	-0.179859	10.59	-5.0619998	-2.0869999
49	1	4	0.20884401	9.6619997	-5.5819998	-1.883
50	1	4	0.20884401	10.295	-3.707	-0.51999998
51	1	2	0.42135	12.628	-2.1459999	-0.75800002
52	1	3	-0.56582201	11.829	-1.201	-0.35100001
53	1	2	0.203372	10.473	-0.97000003	-0.76499999
54	1	2	-0.14336599	9.5749998	-0.551	0.139
55	1	2	-0.190401	8.1800003	-0.27599999	-0.26499999
56	1	2	0.27899799	7.8099999	-0.41299999	-1.548
57	1	2	-0.190401	8.8070002	-0.829	-2.5569999
58	1	2	-0.14336599	10.069	-1.0829999	-2.1919999
59	1	4	0.207568	10.795	-1.3559999	-2.9460001
60	1	4	0.213008	8.5170002	-0.91399997	-3.5969999
61	1	8	-0.433422	6.4980001	-0.161	-1.9450001
62	1	4	0.213008	7.4629998	0.035	0.484
63	1	4	0.207568	9.8610001	-0.428	1.176
64	1	9	0.15018	13.66	-2.115	-0.43099999
65	1	4	0.20884401	13.959	-3.223	-2.78
66	1	4	0.20884401	13.271	-5.1620002	-4.2379999
67	1	9	0.15018	10.005	-6.6760001	-4.3369999
68	1	4	0.207568	13.761	-8.4639997	-5.9429998
69	1	4	0.213008	16.15	-8.9820004	-5.25
70	1	1	-0.59713298	12.374	-7.5419998	8.7950001
71	1	2	0.83357197	11.948	-6.5780001	8.1059999
72	1	3	-0.496077	12.728	-6.0250001	7.0380001
73	1	2	0.23577499	13.924	-6.6269999	6.5149999
74	1	2	-0.367553	14.893	-5.8460002	6.0089998
75	1	2	-0.142424	16.125	-6.4419999	5.4520001
76	1	2	-0.24548499	16.288	-7.776	5.4400001
77	1	2	-0.142424	15.203	-8.6440001	5.9569998
78	1	2	-0.367553	14.087	-8.1040001	6.461
79	1	4	0.21646801	13.293	-8.7580004	6.7969999
80	1	4	0.21470299	15.304	-9.7209997	5.9130001
81	1	5	-0.050754	17.521	-8.3950005	4.8400002
82	1	2	-0.24548499	17.32	-8.632	3.368
83	1	2	-0.142424	16.771999	-9.7749996	2.9230001
84	1	2	-0.367553	16.542999	-9.9799995	1.478
85	1	2	0.23577499	16.886	-9.0319996	0.58999997
86	1	2	-0.367553	17.451	-7.75	1.087
87	1	2	-0.142424	17.658001	-7.5640001	2.3970001
88	1	4	0.21470299	18.059999	-6.6209998	2.747
89	1	4	0.21646801	17.67	-6.9419999	0.40200001
90	1	3	-0.496077	16.639999	-9.2480001	-0.81
91	1	2	0.83357102	17.444	-8.7019997	-1.862
92	1	1	-0.59713399	18.549	-8.1470003	-1.6210001
93	1	6	0.32439399	15.875	-9.9029999	-1.09
94	1	4	0.21646801	16.107	-10.913	1.143
95	1	4	0.21470299	16.489	-10.559	3.6159999
96	1	7	0.125879	17.752001	-9.3529997	5.3569999
97	1	7	0.125879	18.402	-7.7350001	5
98	1	4	0.21470299	16.891001	-5.7880001	5.0539999
99	1	4	0.21646801	14.788	-4.7680001	6.0139999
100	1	6	0.32439399	12.438	-5.0879998	6.6760001
101	1	8	-0.433422	5.8699999	5.0079999	14.459
102	1	2	0.27899799	6.1100001	4.3319998	13.266
103	1	2	-0.190401	5.1409998	4.2389998	12.346
104	1	2	-0.14336599	5.3850002	3.5190001	11.079
105	1	2	0.203372	6.566	2.925	10.853
106	1	2	-0.14336599	7.6529999	3.062	11.859
107	1	2	-0.190401	7.4320002	3.7190001	13.004
108	1	4	0.213008	8.2270002	3.8139999	13.733
109	1	4	0.207568	8.6330004	2.6459999	11.666
110	1	3	-0.56582201	6.7859998	2.2579999	9.6000004
111	1	2	0.42135	7.447	1.153	9.3970003
112	1	2	-0.27604499	7.9520001	0.271	10.471
113	1	2	-0.179859	7.1919999	-0.059	11.532
114	1	2	-0.179859	7.7150002	-0.972	12.569
115	1	2	-0.27604499	8.9309998	-1.526	12.436
116	1	2	-0.179859	9.7679996	-1.165	11.263
117	1	2	-0.179859	9.2980003	-0.329	10.33
118	1	4	0.20884401	9.9169998	-0.075000003	9.4779997
119	1	4	0.20884401	10.768	-1.5650001	11.161
120	1	2	0.42135	9.4449997	-2.421	13.496
121	1	3	-0.56582201	10.122	-3.5120001	13.27
122	1	2	0.203372	10.344	-4.151	12.004
123	1	2	-0.14336599	11.533	-4.7210002	11.759
124	1	2	-0.190401	11.781	-5.4130001	10.477
125	1	2	0.27899799	10.805	-5.5029998	9.5600004
126	1	2	-0.190401	9.4779997	-4.9180002	9.8430004
127	1	2	-0.14336599	9.2530003	-4.2870002	11.002
128	1	4	0.207568	8.2679996	-3.8900001	11.209
129	1	4	0.213008	8.6809998	-5.013	9.1160002
130	1	8	-0.433422	11.023	-6.1490002	8.3439999
131	1	4	0.213008	12.756	-5.8429999	10.286
132	1	4	0.207568	12.328	-4.664	12.492
133	1	9	0.15018	9.276	-2.131	14.525
134	1	4	0.20884401	7.0939999	-1.202	13.426
135	1	4	0.20884401	6.1849999	0.324	11.636
136	1	9	0.15018	7.6199999	0.84299999	8.375
137	1	4	0.207568	4.5939999	3.461	10.342
138	1	4	0.213008	4.1729999	4.6900001	12.526
139	1	1	-0.59713298	18.348	3.5320001	15.891
140	1	2	0.83357197	17.877001	2.4289999	15.509
141	1	3	-0.496077	16.549999	2.0220001	15.865
142	1	2	0.23577499	15.577	2.8870001	16.476999
143	1	2	-0.367553	14.656	2.3659999	17.306999
144	1	2	-0.142424	13.638	3.2309999	17.936001
145	1	2	-0.24548499	13.616	4.5510001	17.681
146	1	2	-0.142424	14.6	5.1220002	16.731001
147	1	2	-0.367553	15.524	4.3379998	16.160999
148	1	4	0.21646801	16.207001	4.77	15.443
149	1	4	0.21470299	14.565	6.1750002	16.483
150	1	5	-0.050754	12.558	5.434	18.284
151	1	2	-0.24548499	11.342	5.4689999	17.4
152	1	2	-0.142424	11.241	6.3670001	16.405001
153	1	2	-0.367553	10.06	6.368	15.517
154	1	2	0.23577499	9.0699997	5.4759998	15.696
155	1	2	-0.367553	9.2040005	4.4559999	16.768999
156	1	2	-0.142424	10.274	4.4559999	17.573
157	1	4	0.21470299	10.365	3.7	18.343
158	1	4	0.21646801	8.4569998	3.6830001	16.889999
159	1	3	-0.496077	7.9369998	5.487	14.81
160	1	2	0.83357102	6.6129999	5.0949998	15.192
161	1	1	-0.59713399	6.3119998	4.8969998	16.399
162	1	6	0.32439399	8.0579996	5.8720002	13.846
163	1	4	0.21646801	9.9969997	7.1059999	14.727
164	1	4	0.21470299	12.022	7.099	16.24
165	1	7	0.125879	12.961	6.461	18.427999
166	1	7	0.125879	12.278	5.066	19.296
167	1	4	0.21470299	12.91	2.786	18.604
168	1	4	0.21646801	14.659	1.308	17.534
169	1	6	0.32439399	16.312	1.013	15.734
170	1	8	-0.433422	25.733	-9.7709999	16.509001
171	1	2	0.27899799	24.591	-9.165	15.992
172	1	2	-0.190401	24.204	-9.4329996	14.738
173	1	2	-0.14336599	22.995001	-8.7919998	14.18
174	1	2	0.203372	22.294001	-7.9130001	14.911
175	1	2	-0.14336599	22.704	-7.6469998	16.316
176	1	2	-0.190401	23.796	-8.2320004	16.822001
177	1	4	0.213008	24.09	-8.033	17.844999
178	1	4	0.207568	22.114	-6.9910002	16.944
179	1	3	-0.56582201	21.106001	-7.3280001	14.355
180	1	2	0.42135	20.681	-6.105	14.505
181	1	2	-0.27604499	21.458	-5.0229998	15.148
182	1	2	-0.179859	22.759001	-4.8239999	14.87
183	1	2	-0.179859	23.496	-3.711	15.504
184	1	2	-0.27604499	22.861	-2.8510001	16.316999
185	1	2	-0.179859	21.423	-3.069	16.620001
186	1	2	-0.179859	20.759001	-4.0840001	16.055
187	1	4	0.20884401	19.709999	-4.23	16.282
188	1	4	0.20884401	20.903999	-2.414	17.309
189	1	2	0.42135	23.621	-1.756	16.957001
190	1	3	-0.56582201	23.167999	-0.54400003	17.115
191	1	2	0.203372	21.965	0.014	16.563
192	1	2	-0.14336599	21.243	0.87099999	17.299999
193	1	2	-0.190401	20.018	1.484	16.746
194	1	2	0.27899799	19.636999	1.2130001	15.488
195	1	2	-0.190401	20.454	0.30599999	14.655
196	1	2	-0.14336599	21.562	-0.25400001	15.157
197	1	4	0.207568	22.167	-0.89099997	14.525
198	1	4	0.213008	20.164	0.107	13.631
199	1	8	-0.433422	18.482	1.78	14.952
200	1	4	0.213008	19.433001	2.152	17.365
201	1	4	0.207568	21.542	1.107	18.313
202	1	9	0.15018	24.603001	-1.987	17.349001
203	1	4	0.20884401	24.549	-3.5880001	15.284
204	1	4	0.20884401	23.284	-5.4640002	14.172
205	1	9	0.15018	19.705	-5.8540001	14.113
206	1	4	0.207568	22.691	-9.026	13.167
207	1	4	0.213008	24.775	-10.12	14.126
208	1	1	-0.59713298	21.525	-4.723	27.313
209	1	2	0.83357197	21.444	-3.836	26.423
210	1	3	-0.496077	22.372	-3.7880001	25.332001
211	1	2	0.23577499	23.313	-4.8309999	25.025999
212	1	2	-0.367553	24.488001	-4.5180001	24.455
213	1	2	-0.142424	25.465	-5.573	24.117001
214	1	2	-0.24548499	25.186001	-6.8629999	24.372
215	1	2	-0.142424	23.872	-7.2179999	24.959
216	1	2	-0.367553	22.987	-6.2620001	25.266001
217	1	4	0.21646801	22.021	-6.5479999	25.658001
218	1	4	0.21470299	23.618	-8.257	25.129
219	1	5	-0.050754	26.156	-7.9489999	23.995001
220	1	2	-0.24548499	25.905001	-8.4049997	22.584
221	1	2	-0.142424	25.02	-9.382	22.323999
222	1	2	-0.367553	24.752001	-9.7950001	20.931
223	1	2	0.23577499	25.393	-9.2060003	19.908001
224	1	2	-0.367553	26.34	-8.0950003	20.194
225	1	2	-0.142424	26.582001	-7.7210002	21.455999
226	1	4	0.21470299	27.264999	-6.9029999	21.65
227	1	4	0.21646801	26.816	-7.5560002	19.386
228	1	3	-0.496077	25.105	-9.6149998	18.559999
229	1	2	0.83357102	26.054001	-9.5780001	17.487
230	1	1	-0.59713399	27.275999	-9.3640003	17.702
231	1	6	0.32439399	24.171	-10.036	18.351999
232	1	4	0.21646801	24.039	-10.59	20.747
233	1	4	0.21470299	24.49	-9.8769999	23.129
234	1	7	0.125879	26.058001	-8.8039999	24.700001
235	1	7	0.125879	27.202	-7.5840001	24.093
236	1	4	0.21470299	26.406	-5.2909999	23.660999
237	1	4	0.21646801	24.739	-3.4849999	24.247999
238	1	6	0.32439399	22.407	-2.902	24.778
239	1	8	-0.433422	19.398001	10.119	29.979
240	1	2	0.27899799	19.417	9.1719999	28.958
241	1	2	-0.190401	18.48	9.2049999	28.002001
242	1	2	-0.14336599	18.49	8.2019997	26.916
243	1	2	0.203372	19.416	7.2319999	26.898001
244	1	2	-0.14336599	20.478001	7.2199998	27.938999
245	1	2	-0.190401	20.471001	8.1330004	28.919001
246	1	4	0.213008	21.246	8.1190004	29.674999
247	1	4	0.207568	21.271999	6.4860001	27.903999
248	1	3	-0.56582201	19.42	6.289	25.813999
249	1	2	0.42135	19.688	5.0139999	25.875999
250	1	2	-0.27604499	19.867001	4.257	27.134001
251	1	2	-0.179859	19.031	4.408	28.177
252	1	2	-0.179859	19.218	3.609	29.405001
253	1	2	-0.27604499	20.188	2.6830001	29.473
254	1	2	-0.179859	21.110001	2.5139999	28.32
255	1	2	-0.179859	20.947001	3.2460001	27.212
256	1	4	0.20884401	21.624001	3.112	26.377001
257	1	4	0.20884401	21.927	1.806	28.372
258	1	2	0.42135	20.372999	1.909	30.719
259	1	3	-0.56582201	20.66	0.63800001	30.757
260	1	2	0.203372	20.676001	-0.28299999	29.656
261	1	2	-0.14336599	21.617001	-1.238	29.615
262	1	2	-0.190401	21.639999	-2.2190001	28.51
263	1	2	0.27899799	20.697001	-2.181	27.555
264	1	2	-0.190401	19.629	-1.161	27.620001
265	1	2	-0.14336599	19.611	-0.26899999	28.618
266	1	4	0.207568	18.806	0.45300001	28.67
267	1	4	0.213008	18.853001	-1.145	26.865999
268	1	8	-0.433422	20.705999	-3.096	26.504
269	1	4	0.213008	22.424	-2.9649999	28.478001
270	1	4	0.207568	22.379999	-1.2869999	30.382
271	1	9	0.15018	20.297001	2.441	31.659
272	1	4	0.20884401	18.547001	3.767	30.24
273	1	4	0.20884401	18.202	5.1030002	28.129
274	1	9	0.15018	19.761999	4.4640002	24.947001
275	1	4	0.207568	17.731001	8.2480001	26.145
276	1	4	0.213008	17.709999	9.9659996	28.018
277	1	1	-0.59713298	30.702	5.0970001	32.611
278	1	2	0.83357197	29.900999	4.145	32.41
279	1	3	-0.496077	28.511	4.2610002	32.735001
280	1	2	0.23577499	27.865	5.4949999	33.096001
281	1	2	-0.367553	26.818001	5.474	33.937
282	1	2	-0.142424	26.129	6.7259998	34.312
283	1	2	-0.24548499	26.540001	7.9029999	33.808998
284	1	2	-0.142424	27.666	7.9260001	32.846001
285	1	2	-0.367553	28.291	6.7919998	32.507
286	1	4	0.21646801	29.084999	6.829	31.774
287	1	4	0.21470299	27.979	8.8629999	32.401001
288	1	5	-0.050754	25.820999	9.1789999	34.152
289	1	2	-0.24548499	24.691	9.4160004	33.187
290	1	2	-0.142424	24.898001	10.076	32.035
291	1	2	-0.367553	23.791	10.269	31.076
292	1	2	0.23577499	22.563	9.7930002	31.344999
293	1	2	-0.367553	22.347	9.0240002	32.598999
294	1	2	-0.142424	23.35	8.8500004	33.466999
295	1	4	0.21470299	23.181999	8.2779999	34.372002
296	1	4	0.21646801	21.388	8.5699997	32.806999
297	1	3	-0.496077	21.504999	9.9799995	30.389
298	1	2	0.83357102	20.121	10.114	30.737
299	1	1	-0.59713399	19.759001	10.272	31.933001
300	1	6	0.32439399	21.754	10.101	29.382
301	1	4	0.21646801	23.98	10.811	30.158001
302	1	4	0.21470299	25.877001	10.473	31.792999
303	1	7	0.125879	26.534	10.032	34.127998
304	1	7	0.125879	25.426001	9.1330004	35.191002
305	1	4	0.21470299	25.289	6.6789999	34.993999
306	1	4	0.21646801	26.473	4.5380001	34.361
307	1	6	0.32439399	27.959	3.375	32.779999
308	1	8	-0.433422	33.353001	-9.4370003	36.303001
309	1	2	0.27899799	32.474998	-8.6210003	35.596001
310	1	2	-0.190401	32.035999	-9.0030003	34.389999
311	1	2	-0.14336599	31.106001	-8.1400003	33.630001
312	1	2	0.203372	30.722	-6.9549999	34.125
313	1	2	-0.14336599	31.181	-6.5500002	35.480999
314	1	2	-0.190401	32.018002	-7.335	36.171001
315	1	4	0.213008	32.349998	-7.0349998	37.157001
316	1	4	0.207568	30.83	-5.6290002	35.925999
317	1	3	-0.56582201	29.795	-6.151	33.379002
318	1	2	0.42135	29.789	-4.8530002	33.262001
319	1	2	-0.27604499	30.868	-3.964	33.743999
320	1	2	-0.179859	32.167	-4.2490001	33.534
321	1	2	-0.179859	33.217999	-3.3210001	33.999001
322	1	2	-0.27604499	32.889	-2.158	34.583
323	1	2	-0.179859	31.455999	-1.842	34.811001
324	1	2	-0.179859	30.504	-2.688	34.401001
325	1	4	0.20884401	29.462	-2.4460001	34.570999
326	1	4	0.20884401	31.171	-0.93099999	35.321999
327	1	2	0.42135	33.957001	-1.252	35.060001
328	1	3	-0.56582201	33.921001	0.046	34.950001
329	1	2	0.203372	32.972	0.82999998	34.210999
330	1	2	-0.14336599	32.560001	2.003	34.715
331	1	2	-0.190401	31.606001	2.846	33.964001
332	1	2	0.27899799	31.171	2.4579999	32.755001
333	1	2	-0.190401	31.658001	1.189	32.174
334	1	2	-0.14336599	32.516998	0.42199999	32.855
335	1	4	0.207568	32.889	-0.48899999	32.403999
336	1	4	0.213008	31.327999	0.88700002	31.187
337	1	8	-0.433422	30.268999	3.2390001	32.034
338	1	4	0.213008	31.263	3.776	34.398998
339	1	4	0.207568	32.909	2.3340001	35.686001
340	1	9	0.15018	34.806999	-1.697	35.562
341	1	4	0.20884401	34.257	-3.585	33.84
342	1	4	0.20884401	32.462002	-5.1500001	33.012001
343	1	9	0.15018	28.951	-4.3909998	32.756001
344	1	4	0.207568	30.753	-8.4680004	32.66
345	1	4	0.213008	32.358002	-9.9440002	33.964001
346	1	1	-0.59713298	30.903	-1.222	45.599998
347	1	2	0.83357197	31.124001	-0.55699998	44.554001
348	1	3	-0.496077	32.028	-1.029	43.548
349	1	2	0.23577499	32.582001	-2.3559999	43.518002
350	1	2	-0.367553	33.800999	-2.5539999	42.990002
351	1	2	-0.142424	34.384998	-3.9089999	42.933998
352	1	2	-0.24548499	33.699001	-4.9640002	43.405998
353	1	2	-0.142424	32.334999	-4.757	43.949001
354	1	2	-0.367553	31.806	-3.529	44
355	1	4	0.21646801	30.795	-3.408	44.365002
356	1	4	0.21470299	31.754999	-5.605	44.292999
357	1	5	-0.050754	34.266998	-6.3540001	43.318001
358	1	2	-0.24548499	33.896	-6.9860001	42.004002
359	1	2	-0.142424	32.743999	-7.6630001	41.868
360	1	2	-0.367553	32.370998	-8.2460003	40.562
361	1	2	0.23577499	33.18	-8.1120005	39.498001
362	1	2	-0.367553	34.432999	-7.3239999	39.639
363	1	2	-0.142424	34.77	-6.796	40.821999
364	1	4	0.21470299	35.68	-6.2150002	40.908001
365	1	4	0.21646801	35.067001	-7.1409998	38.782001
366	1	3	-0.496077	32.787998	-8.6750002	38.234001
367	1	2	0.83357102	33.709	-9.1599998	37.249001
368	1	1	-0.59713399	34.931999	-9.3050003	37.511002
369	1	6	0.32439399	31.771	-8.8129997	38.039001
370	1	4	0.21646801	31.441	-8.7939997	40.479
371	1	4	0.21470299	32.074001	-7.79	42.709
372	1	7	0.125879	33.889	-6.9710002	44.162998
373	1	7	0.125879	35.374001	-6.3260002	43.424
374	1	4	0.21470299	35.372002	-4.039	42.505001
375	1	4	0.21646801	34.375999	-1.7180001	42.610001
376	1	6	0.32439399	32.355	-0.333	42.84
377	1	8	-0.433422	33.689999	13.744	45.23
378	1	2	0.27899799	33.410999	12.653	44.411999
379	1	2	-0.190401	32.546001	12.784	43.397999
380	1	2	-0.14336599	32.240002	11.63	42.527
381	1	2	0.203372	32.799999	10.434	42.764
382	1	2	-0.14336599	33.790001	10.301	43.866001
383	1	2	-0.190401	34.069	11.348	44.651001
384	1	4	0.213008	34.790001	11.244	45.452999
385	1	4	0.207568	34.301998	9.3620005	44.030998
386	1	3	-0.56582201	32.508999	9.3380003	41.882999
387	1	2	0.42135	32.347	8.085	42.205002
388	1	2	-0.27604499	32.257	7.5840001	43.594002
389	1	2	-0.179859	31.504	8.2010002	44.521999
390	1	2	-0.179859	31.409	7.6529999	45.890999
391	1	2	-0.27604499	32.025002	6.5029998	46.207001
392	1	2	-0.179859	32.853001	5.8189998	45.18
393	1	2	-0.179859	32.948002	6.322	43.944
394	1	4	0.20884401	33.554001	5.8130002	43.203999
395	1	4	0.20884401	33.395	4.915	45.428001
396	1	2	0.42135	31.934	5.9809999	47.588001
397	1	3	-0.56582201	31.792	4.7210002	47.888
398	1	2	0.203372	31.518999	3.6370001	46.986
399	1	2	-0.14336599	32.098999	2.447	47.199001
400	1	2	-0.190401	31.813	1.3049999	46.305
401	1	2	0.27899799	30.943001	1.444	45.292
402	1	2	-0.190401	30.264999	2.74	45.081001
403	1	2	-0.14336599	30.527	3.776	45.886002
404	1	4	0.207568	30	4.7090001	45.738998
405	1	4	0.213008	29.544001	2.846	44.279999
406	1	8	-0.433422	30.665001	0.37799999	44.437
407	1	4	0.213008	32.312	0.36000001	46.476002
408	1	4	0.207568	32.796001	2.3169999	48.016998
409	1	9	0.15018	32.025002	6.6900001	48.401001
410	1	4	0.20884401	30.816999	8.1829996	46.626999
411	1	4	0.20884401	30.947001	9.0979996	44.280998
412	1	9	0.15018	32.247002	7.362	41.405998
413	1	4	0.207568	31.545	11.755	41.706001
414	1	4	0.213008	32.064999	13.736	43.210999
415	1	1	-0.59713298	42.717999	6.053	49.619999
416	1	2	0.83357197	41.653999	5.3839998	49.543999
417	1	3	-0.496077	40.373001	5.9980001	49.734001
418	1	2	0.23577499	40.16	7.4190001	49.804001
419	1	2	-0.367553	39.153999	7.902	50.550999
420	1	2	-0.142424	38.905998	9.3570004	50.627998
421	1	2	-0.24548499	39.681999	10.214	49.943001
422	1	2	-0.142424	40.765999	9.6829996	49.082001
423	1	2	-0.367553	40.990002	8.3649998	49.013
424	1	4	0.21646801	41.761002	7.9990001	48.348999
425	1	4	0.21470299	41.369999	10.361	48.492001
426	1	5	-0.050754	39.414001	11.694	49.981998
427	1	2	-0.24548499	38.432999	12.073	48.905998
428	1	2	-0.142424	38.855999	12.385	47.668999
429	1	2	-0.367553	37.881001	12.717	46.610001
430	1	2	0.23577499	36.563	12.72	46.869999
431	1	2	-0.367553	36.095001	12.332	48.227001
432	1	2	-0.142424	36.978001	12.031	49.186001
433	1	4	0.21470299	36.624001	11.739	50.167
434	1	4	0.21646801	35.037998	12.257	48.444
435	1	3	-0.496077	35.632999	13.033	45.819
436	1	2	0.83357102	34.363998	13.665	46.028
437	1	1	-0.59713399	34.061001	14.171	47.140999
438	1	6	0.32439399	35.917999	12.86	44.827999
439	1	4	0.21646801	38.245998	12.972	45.622002
440	1	4	0.21470299	39.911999	12.394	47.431999
441	1	7	0.125879	40.366001	12.253	49.851002
442	1	7	0.125879	39.014999	11.988	50.977001
443	1	4	0.21470299	38.089001	9.7189999	51.240002
444	1	4	0.21646801	38.52	7.2309999	51.117001
445	1	6	0.32439399	39.563	5.3600001	49.903999
446	1	8	-0.433422	40.459999	-7.4949999	56.195999
447	1	2	0.27899799	39.903	-6.605	55.282001
448	1	2	-0.190401	39.375999	-7.066	54.139999
449	1	2	-0.14336599	38.785	-6.1290002	53.161999
450	1	2	0.203372	38.801998	-4.8080001	53.391998
451	1	2	-0.14336599	39.354	-4.302	54.678001
452	1	2	-0.190401	39.882999	-5.152	55.564999
453	1	4	0.213008	40.284	-4.7779999	56.499001
454	1	4	0.207568	39.316002	-3.2460001	54.910999
455	1	3	-0.56582201	38.194	-3.9230001	52.438999
456	1	2	0.42135	38.612	-2.7420001	52.077
457	1	2	-0.27604499	39.917	-2.1619999	52.462002
458	1	2	-0.179859	41.054001	-2.8789999	52.41
459	1	2	-0.179859	42.346001	-2.257	52.768002
460	1	2	-0.27604499	42.407001	-0.95599997	53.094002
461	1	2	-0.179859	41.151001	-0.164	53.148998
462	1	2	-0.179859	39.98	-0.73000002	52.834999
463	1	4	0.20884401	39.073002	-0.141	52.876999
464	1	4	0.20884401	41.173	0.875	53.453999
465	1	2	0.42135	43.706001	-0.35800001	53.471001
466	1	3	-0.56582201	44.095001	0.83399999	53.113998
467	1	2	0.203372	43.459999	1.71	52.169998
468	1	2	-0.14336599	43.446999	3.03	52.409
469	1	2	-0.190401	42.827	3.9590001	51.441002
470	1	2	0.27899799	42.301998	3.49	50.298
471	1	2	-0.190401	42.355999	2.0420001	50.007
472	1	2	-0.14336599	42.911999	1.199	50.884998
473	1	4	0.207568	42.972	0.145	50.645
474	1	4	0.213008	41.957001	1.665	49.074001
475	1	8	-0.433422	41.709999	4.3520002	49.375999
476	1	4	0.213008	42.800999	5.0180001	51.664001
477	1	4	0.207568	43.874001	3.424	53.321999
478	1	9	0.15018	44.360001	-0.93599999	54.111
479	1	4	0.20884401	43.243999	-2.8629999	52.742001
480	1	4	0.20884401	41.046001	-3.914	52.091999
481	1	9	0.15018	37.976002	-2.152	51.431
482	1	4	0.207568	38.355	-6.5190001	52.248001
483	1	4	0.213008	39.379002	-8.1280003	53.926998
484	1	1	-0.59713298	40.717999	2.79	63.549999
485	1	2	0.83357197	41.153999	3.1229999	62.416
486	1	3	-0.496077	41.866001	2.194	61.59
487	1	2	0.23577499	41.958	0.78299999	61.855
488	1	2	-0.367553	43.053001	0.106	61.467999
489	1	2	-0.142424	43.165001	-1.346	61.715
490	1	2	-0.24548499	42.167999	-2.0090001	62.326
491	1	2	-0.142424	40.939999	-1.276	62.714001
492	1	2	-0.367553	40.838001	0.039999999	62.490002
493	1	4	0.21646801	39.917999	0.546	62.748001
494	1	4	0.21470299	40.112	-1.807	63.167
495	1	5	-0.050754	42.254002	-3.4949999	62.546001
496	1	2	-0.24548499	41.712002	-4.2309999	61.352001
497	1	2	-0.142424	40.403	-4.5219998	61.258999
498	1	2	-0.367553	39.874001	-5.21	60.063999
499	1	2	0.23577499	40.694	-5.5599999	59.057999
500	1	2	-0.367553	42.132999	-5.197	59.141998
501	1	2	-0.142424	42.612	-4.5739999	60.224998
502	1	4	0.21470299	43.66	-4.3049998	60.269001
503	1	4	0.21646801	42.801998	-5.4029999	58.317001
504	1	3	-0.496077	40.153999	-6.2160001	57.897999
505	1	2	0.83357102	40.876999	-7.158	57.096001
506	1	1	-0.59713399	41.984001	-7.625	57.473999
507	1	6	0.32439399	39.148998	-6.0609999	57.655998
508	1	4	0.21646801	38.818001	-5.441	60.015999
509	1	4	0.21470299	39.720001	-4.256	62.056
510	1	7	0.125879	41.687	-3.7739999	63.462002
511	1	7	0.125879	43.308998	-3.7980001	62.729
512	1	4	0.21470299	44.060001	-1.865	61.395
513	1	4	0.21646801	43.872002	0.62	60.980999
514	1	6	0.32439399	42.408001	2.5910001	60.790001
515	1	8	-0.018979	48.223999	15.697	60.557999
516	1	2	0.174555	47.613998	14.607	59.943001
517	1	2	-0.24155299	46.848999	14.796	58.860001
518	1	2	-0.141396	46.194	13.645	58.202999
519	1	2	0.203372	46.332001	12.408	58.703999
520	1	2	-0.141396	47.213001	12.197	59.883999
521	1	2	-0.24155299	47.810001	13.239	60.474998
522	1	4	0.212007	48.449001	13.079	61.334
523	1	4	0.207568	47.389999	11.199	60.263
524	1	3	-0.56582201	45.709	11.305	58.028
525	1	2	0.42135	45.146	10.262	58.569
526	1	2	-0.27604499	44.882999	10.109	60.016998
527	1	2	-0.179859	44.362	11.109	60.750999
528	1	2	-0.179859	44.078999	10.911	62.188
529	1	2	-0.27604499	44.284	9.7150002	62.762001
530	1	2	-0.179859	44.855999	8.6099997	61.950001
531	1	2	-0.179859	45.123001	8.7930002	60.652
532	1	4	0.20884401	45.536999	7.9790001	60.07
533	1	4	0.20884401	45.071999	7.652	62.404999
534	1	2	0.42135	44.014999	9.5430002	64.206001
535	1	3	-0.56582201	43.466999	8.4820004	64.727997
536	1	2	0.203372	42.866001	7.3800001	64.030998
537	1	2	-0.14336599	43.025002	6.1370001	64.509003
538	1	2	-0.190401	42.393002	4.987	63.828999
539	1	2	0.27899799	41.625999	5.1830001	62.744999
540	1	2	-0.190401	41.409	6.5549998	62.241001
541	1	2	-0.14336599	41.985001	7.5970001	62.852001
542	1	4	0.207568	41.792	8.599	62.491001
543	1	4	0.213008	40.769001	6.7179999	61.382
544	1	8	-0.433422	41.026001	4.1100001	62.09
545	1	4	0.213008	42.555	3.9879999	64.213997
546	1	4	0.207568	43.633999	5.9640002	65.388
547	1	9	0.15018	44.323002	10.337	64.874001
548	1	4	0.20884401	43.683998	11.74	62.763
549	1	4	0.20884401	44.129002	12.067	60.303001
550	1	9	0.15018	44.824001	9.46	57.917
551	1	4	0.207568	45.585999	13.813	57.323002
552	1	4	0.212007	46.706001	15.791	58.459999
553	1	1	-0.61104798	-6.1880002	-1.151	-2.8770001
554	1	2	0.57117701	-6.5110002	-1.184	-1.66
555	1	3	-0.50789201	-7.8660002	-1.416	-1.2539999
556	1	2	0.205458	-8.927	-1.813	-2.141
557	1	2	-0.379769	-8.7119999	-2.6530001	-3.171
558	1	2	-0.142424	-9.8310003	-3.069	-4.0419998
559	1	2	-0.24548499	-11.076	-2.618	-3.8110001
560	1	2	-0.142424	-11.32	-1.723	-2.655
561	1	2	-0.379769	-10.306	-1.347	-1.8660001
562	1	4	0.21646801	-10.497	-0.69400001	-1.024
563	1	4	0.21470299	-12.322	-1.373	-2.4419999
564	1	5	-0.050754	-12.228	-3.069	-4.6659999
565	1	2	-0.25997099	-12.841	-4.3189998	-4.0939999
566	1	2	-0.187444	-12.39	-5.5320001	-4.4559999
567	1	2	-0.25968599	-12.971	-6.7529998	-3.859
568	1	2	0.44110501	-13.943	-6.665	-2.9389999
569	1	2	-0.25968599	-14.431	-5.3210001	-2.5250001
570	1	2	-0.187444	-13.908	-4.2160001	-3.0710001
571	1	4	0.200794	-14.268	-3.244	-2.7590001
572	1	4	0.20852099	-15.21	-5.224	-1.78
573	1	3	-0.348387	-14.48	-7.8730001	-2.3800001
574	1	10	0.61497402	-15.402	-7.888	-1.503
575	1	1	-0.30627599	-16.299	-7.9039998	-0.64999998
576	1	4	0.20852099	-12.599	-7.7210002	-4.171
577	1	4	0.200794	-11.595	-5.632	-5.1849999
578	1	7	0.125879	-12.995	-2.266	-4.7150002
579	1	7	0.125879	-11.892	-3.243	-5.7119999
580	1	4	0.21470299	-9.6330004	-3.7479999	-4.862
581	1	4	0.21646801	-7.73	-3.066	-3.3610001
582	1	6	0.32121101	-8.1120005	-1.182	-0.26699999
583	1	8	-0.018979	48.807999	15.578	61.376999
584	1	2	0.174555	48.271999	15.146	62.588001
585	1	2	-0.24155299	49.068001	15	63.653999
586	1	2	-0.141396	48.508999	14.538	64.942001
587	1	2	0.203372	47.207001	14.23	65.044998
588	1	2	-0.141396	46.318001	14.43	63.869999
589	1	2	-0.24155299	46.825001	14.854	62.706001
590	1	4	0.212007	46.173	14.996	61.854
591	1	4	0.207568	45.254002	14.251	63.952
592	1	3	-0.56582201	46.685001	13.814	66.317001
593	1	2	0.42135	45.778	12.904	66.539001
594	1	2	-0.27604499	45.237999	11.991	65.509003
595	1	2	-0.179859	46.039001	11.363	64.628998
596	1	2	-0.179859	45.470001	10.43	63.634998
597	1	2	-0.27604499	44.155998	10.154	63.637001
598	1	2	-0.179859	43.271999	10.844	64.611
599	1	2	-0.179859	43.786999	11.698	65.502998
600	1	4	0.20884401	43.132	12.193	66.209999
601	1	4	0.20884401	42.203999	10.67	64.598999
602	1	2	0.42135	43.602001	9.2329998	62.619999
603	1	3	-0.56582201	42.68	8.3439999	62.861
604	1	2	0.203372	42.16	7.9559999	64.141998
605	1	2	-0.111598	40.853001	7.6750002	64.259003
606	1	2	-0.37055001	40.294998	7.244	65.557999
607	1	2	0.30439299	41.098999	7.098	66.623001
608	1	2	-0.37055001	42.547001	7.3600001	66.487999
609	1	2	-0.111598	43.054001	7.756	65.314003
610	1	4	0.207568	44.119999	7.9130001	65.222
611	1	4	0.216418	43.202	7.217	67.337997
612	1	11	-0.647937	40.588001	6.6960001	67.856003
613	1	12	0.43708199	39.602001	6.5050001	67.987999
614	1	4	0.216418	39.233002	7.0489998	65.640999
615	1	4	0.207568	40.193001	7.7800002	63.407001
616	1	9	0.15018	43.964001	9.3280001	61.605
617	1	4	0.20884401	46.132999	9.9569998	62.921001
618	1	4	0.20884401	47.111	11.519	64.641998