Title

621 atoms
665 bonds
1058 angles
1609 dihedrals
966 impropers

12 atom types
16 bond types
10 angle types
14 dihedral types
3 improper types
-7.96999979 92.03000021 xlo xhi
-87.65899658 12.34100342 ylo yhi
-2.755000114 97.24499989 zlo zhi
0.0 0.0 0.0 xy xz yz

Masses

1	12.01078
2	15.99943
3	14.00672
4	12.01078
5	1.007947
6	1.007947
7	1.007947
8	15.99943
9	1.007947
10	15.99943
11	1.007947
12	12.01078


Pair Coeffs

1	0.086879315	3.4806469
2	0.2102061	3.0398122
3	0.16769152	3.206876
4	0.10884061	3.3795318
5	0.014090815	1.1034277
6	0.015611343	2.5725815
7	0.015779483	2.6445434
8	0.16846514	3.0251065
9	0.013106998	2.4536265
10	0.20947353	2.99716
11	1.2326e-05	0.53453923
12	0.21	3.3996695

Bond Coeffs

1 harmonic	582.698766451	1.225198386222
2 harmonic	492.76746816345	1.381897776683
3 harmonic	301.15400723785	1.345741232799
4 harmonic	390.03554688505	1.390160554689
5 harmonic	505.144496193	1.019481865027
6 harmonic	360.7852444772	1.387193227181
7 harmonic	397.2545789619	1.085358495916
8 harmonic	289.73813263395	1.498646816465
9 harmonic	370.04670688625	1.093899492634
10 harmonic	425.69104206635	1.362945806494
11 harmonic	382.5450169811	1.379244394267
12 harmonic	505.481965552	1.304826179986
13 harmonic	279.1350963404	1.454628925034
14 harmonic	385.7604595587	1.369745182308
15 harmonic	543.5267831885	0.9716763312559
16 harmonic	602.81384337	1.196112346392


Angle Coeffs

1 harmonic	55.42182150775	117.3465570514
2 harmonic	63.44422595415	115.5071327674
3 harmonic	65.09061609600001	110.3538806181
4 harmonic	57.8982893754	126.8062420451
5 harmonic	201.41175231035	127.4691416191
6 harmonic	34.066775159195	129.1835929926
7 harmonic	53.20531626545	116.5475862634
8 harmonic	48.776492647595	115.6030999533
9 harmonic	55.07882548015	112.8714009681
10 harmonic	33.56981613361	180


Dihedral Coeffs

1 fourier 1	1.193093382682	2	180
2 fourier 1	1.532232714475	2	180
3 fourier 1	1.809047390003	2	180
4 fourier 1	-0.04816277792592	1	0
5 fourier 1	0.4860993122944	2	180
6 fourier 1	0.8916986138746	1	0
7 fourier 1	2.779853741805	2	180
8 fourier 1	3.661930099076	2	180
9 fourier 1	0.02664938770063	3	0
10 fourier 1	1.550515418264	2	180
11 fourier 1	6.736762477654	2	180
12 fourier 1	0.9974165607242	2	180
13 fourier 1	0.8283030590042	2	180
14 fourier 1	0	1	0


Improper Coeffs

1 0.3333333333333333	-1	2
2 3.5	-1	2
3 0.3666666666666667	-1	2


Atoms

1	1	1	0.833363	-5.7150002	-0.498	1.609
2	1	2	-0.59802198	-5.9759998	-1.04	0.50300002
3	1	3	-0.49629101	-4.5219998	0.27399999	1.798
4	1	1	0.235329	-3.4389999	0.33899999	0.85399997
5	1	1	-0.36802399	-2.694	1.523	0.74400002
6	1	1	-0.14291	-1.622	1.607	-0.149
7	1	1	-0.245868	-1.273	0.50300002	-0.94099998
8	1	4	-0.050882	-0.093999997	0.57999998	-1.873
9	1	1	-0.245868	1.164	0.171	-1.155
10	1	1	-0.14291	1.924	1.123	-0.45899999
11	1	1	-0.36802399	3.072	0.73799998	0.23899999
12	1	1	0.235329	3.4820001	-0.60699999	0.24699999
13	1	3	-0.49629101	4.645	-1.035	0.977
14	1	1	0.833363	5.836	-0.25299999	1.133
15	1	2	-0.59802198	6.013	0.80800003	0.477
16	1	1	-0.36802399	2.701	-1.562	-0.41999999
17	1	1	-0.14291	1.553	-1.177	-1.119
18	1	1	-0.14291	-1.993	-0.69400001	-0.80699998
19	1	1	-0.36802399	-3.066	-0.77700001	0.085000001
20	1	5	0.324168	-4.487	0.89499998	2.638
21	1	6	0.21604501	-2.951	2.385	1.347
22	1	6	0.214293	-1.062	2.5309999	-0.219
23	1	7	0.125659	-0.25999999	-0.077	-2.7550001
24	1	7	0.125659	0.012	1.613	-2.2709999
25	1	6	0.214293	1.62	2.1630001	-0.447
26	1	6	0.21604501	3.619	1.488	0.79500002
27	1	5	0.324168	4.6680002	-2.0109999	1.347
28	1	6	0.21604501	2.987	-2.6059999	-0.40400001
29	1	6	0.214293	0.96499997	-1.9299999	-1.628
30	1	6	0.214293	-1.716	-1.567	-1.386
31	1	6	0.21604501	-3.5810001	-1.722	0.192
32	1	8	-0.43365499	6.592	-0.588	1.776
33	1	1	0.27834201	6.7270002	-1.936	2.0999999
34	1	1	-0.19095799	5.8499999	-2.8900001	1.569
35	1	6	0.212524	5.0599999	-2.5869999	0.89399999
36	1	1	-0.14398	5.993	-4.2410002	1.902
37	1	6	0.20716	5.3130002	-4.9499998	1.452
38	1	1	0.203107	7.0170002	-4.652	2.7809999
39	1	3	-0.56643301	7.2220001	-6.026	3.1530001
40	1	1	0.42090899	6.3909998	-7.0089998	2.974
41	1	9	0.149786	5.4159999	-6.842	2.5380001
42	1	1	-0.27631	6.7410002	-8.3800001	3.398
43	1	1	-0.180342	5.8150001	-9.4180002	3.2090001
44	1	6	0.208463	4.855	-9.2200003	2.75
45	1	1	-0.180342	6.1230001	-10.723	3.6029999
46	1	6	0.208463	5.4029999	-11.51	3.421
47	1	1	-0.27631	7.3569999	-11.008	4.2129998
48	1	1	0.42090899	7.7189999	-12.385	4.6149998
49	1	9	0.149786	8.7119999	-12.735	4.3649998
50	1	3	-0.56643301	6.9120002	-13.21	5.2220001
51	1	1	0.203107	5.6139998	-12.923	5.7659998
52	1	1	-0.14398	4.5939999	-13.871	5.6259999
53	1	6	0.20716	4.777	-14.789	5.0809999
54	1	1	-0.19095799	3.329	-13.635	6.1739998
55	1	6	0.212524	2.5450001	-14.37	6.046
56	1	1	0.27834299	3.0810001	-12.455	6.8889999
57	1	8	-0.43365499	1.825	-12.206	7.4369998
58	1	1	-0.19095799	4.1069999	-11.519	7.059
59	1	6	0.212524	3.9260001	-10.613	7.6230001
60	1	1	-0.14398	5.3720002	-11.755	6.5120001
61	1	6	0.20716	6.1620002	-11.035	6.6820002
62	1	1	-0.180342	8.2950001	-9.9790001	4.3730001
63	1	6	0.208463	9.2609997	-10.185	4.8169999
64	1	1	-0.180342	7.9879999	-8.6730003	3.9790001
65	1	6	0.208463	8.7270002	-7.8959999	4.1279998
66	1	1	-0.14398	7.8969998	-3.6900001	3.2950001
67	1	6	0.20716	8.6960001	-3.9890001	3.9619999
68	1	1	-0.19095799	7.7509999	-2.3399999	2.961
69	1	6	0.212524	8.4350004	-1.608	3.3710001
70	1	1	0.833363	1.0369999	-12.888	7.329
71	1	2	-0.59802198	-0.003	-12.74	8.0249996
72	1	3	-0.49629101	1.1390001	-13.937	6.3579998
73	1	1	0.235329	0.197	-15.015	6.223
74	1	1	-0.36802399	-0.045000002	-15.561	4.954
75	1	1	-0.14291	-0.93900001	-16.624001	4.7979999
76	1	1	-0.245868	-1.602	-17.162001	5.9109998
77	1	4	-0.050882	-2.533	-18.332001	5.7480001
78	1	1	-0.245868	-1.771	-19.625	5.8660002
79	1	1	-0.14291	-1.1849999	-20.207001	4.7319999
80	1	1	-0.36802399	-0.44600001	-21.388	4.8460002
81	1	1	0.235329	-0.28600001	-22.007999	6.098
82	1	3	-0.49629101	0.49000001	-23.209999	6.2490001
83	1	1	0.833363	0.55900002	-24.257	5.2719998
84	1	2	-0.59802198	-0.212	-24.274	4.276
85	1	1	-0.36802399	-0.84299999	-21.403999	7.2350001
86	1	1	-0.14291	-1.5829999	-20.224001	7.1209998
87	1	1	-0.14291	-1.335	-16.641001	7.1869998
88	1	1	-0.36802399	-0.44100001	-15.577	7.3429999
89	1	5	0.324168	1.904	-13.855	5.6500001
90	1	6	0.21604501	0.45699999	-15.158	4.0840001
91	1	6	0.214293	-1.112	-17.030001	3.809
92	1	7	0.125659	-3.336	-18.291	6.5170002
93	1	7	0.125659	-3.0450001	-18.278999	4.7620001
94	1	6	0.214293	-1.291	-19.74	3.7609999
95	1	6	0.21604501	0.023	-21.796	3.961
96	1	5	0.324168	0.96799999	-23.382	7.1620002
97	1	6	0.21604501	-0.70899999	-21.854	8.2110004
98	1	6	0.214293	-2.0050001	-19.775	8.0109997
99	1	6	0.214293	-1.811	-17.066	8.0620003
100	1	6	0.21604501	-0.23	-15.219	8.3409996
101	1	8	-0.43365499	1.237	-25.044001	5.4070001
102	1	1	0.27834201	1.712	-25.386999	6.671
103	1	1	-0.19095799	1.29	-24.684999	7.8070002
104	1	6	0.212524	0.583	-23.870001	7.7129998
105	1	1	-0.14398	1.773	-25.035999	9.0719995
106	1	6	0.20716	1.404	-24.489	9.927
107	1	1	0.203107	2.6949999	-26.094	9.2110004
108	1	3	-0.56643301	3.22	-26.51	10.484
109	1	1	0.42090899	3.152	-25.851999	11.603
110	1	9	0.149786	2.697	-24.872	11.645
111	1	1	-0.27631	3.7279999	-26.409	12.844
112	1	1	-0.180342	3.655	-25.666	14.032
113	1	6	0.208463	3.174	-24.695	14.044
114	1	1	-0.180342	4.1939998	-26.171	15.218
115	1	6	0.208463	4.0999999	-25.591	16.127001
116	1	1	-0.27631	4.835	-27.422001	15.231
117	1	1	0.42090899	5.3899999	-27.992001	16.478001
118	1	9	0.149786	5.1830001	-29.033001	16.688
119	1	3	-0.56643301	6.0840001	-27.316999	17.35
120	1	1	0.203107	6.5900002	-25.978001	17.218
121	1	1	-0.14398	6.5560002	-25.125999	18.329
122	1	6	0.20716	6.1170001	-25.465	19.259001
123	1	1	-0.19095799	7.0710001	-23.829	18.240999
124	1	6	0.212524	7.0240002	-23.176001	19.103001
125	1	1	0.27834299	7.6469998	-23.381001	17.045
126	1	8	-0.43365499	8.1619997	-22.09	16.944
127	1	1	-0.19095799	7.7129998	-24.239	15.942
128	1	6	0.212524	8.1709995	-23.903999	15.021
129	1	1	-0.14398	7.1989999	-25.535999	16.028999
130	1	6	0.20716	7.2880001	-26.197001	15.177
131	1	1	-0.180342	4.8800001	-28.179001	14.052
132	1	6	0.208463	5.3460002	-29.157	14.049
133	1	1	-0.180342	4.3410001	-27.674999	12.865
134	1	6	0.208463	4.402	-28.277	11.967
135	1	1	-0.14398	3.099	-26.798	8.0690002
136	1	6	0.20716	3.7969999	-27.622	8.1590004
137	1	1	-0.19095799	2.615	-26.444	6.8060002
138	1	6	0.212524	2.941	-26.993999	5.9320002
139	1	1	0.833363	8.1289997	-21.424	17.750999
140	1	2	-0.59802198	8.802	-20.360001	17.698
141	1	3	-0.49629101	7.283	-21.712999	18.871
142	1	1	0.235329	7.2690001	-20.959	20.094999
143	1	1	-0.36802399	6.0689998	-20.834	20.811001
144	1	1	-0.14291	6.0310001	-20.125999	22.016001
145	1	1	-0.245868	7.197	-19.535999	22.527
146	1	4	-0.050882	7.165	-18.808001	23.843
147	1	1	-0.245868	7.4289999	-19.764	24.974001
148	1	1	-0.14291	6.369	-20.459	25.576
149	1	1	-0.36802399	6.6170001	-21.375999	26.601999
150	1	1	0.235329	7.9310002	-21.608	27.045
151	1	3	-0.49629101	8.217	-22.563999	28.080999
152	1	1	0.833363	7.3649998	-22.82	29.205
153	1	2	-0.59802198	6.3759999	-22.082001	29.457001
154	1	1	-0.36802399	8.9910002	-20.938	26.417
155	1	1	-0.14291	8.7440004	-20.021	25.392
156	1	1	-0.14291	8.4060001	-19.688999	21.830999
157	1	1	-0.36802399	8.4429998	-20.396999	20.625999
158	1	5	0.324168	6.572	-22.469	18.745001
159	1	6	0.21604501	5.1589999	-21.282	20.431
160	1	6	0.214293	5.0939999	-20.040001	22.551001
161	1	7	0.125659	7.9219999	-17.993	23.847
162	1	7	0.125659	6.178	-18.313999	23.983
163	1	6	0.214293	5.3509998	-20.299	25.243
164	1	6	0.21604501	5.7839999	-21.922001	27.024
165	1	5	0.324168	9.1450005	-23.045	28.070999
166	1	6	0.21604501	10.012	-21.122999	26.728001
167	1	6	0.214293	9.5769997	-19.514	24.922001
168	1	6	0.214293	9.3219995	-19.268999	22.228001
169	1	6	0.21604501	9.3950005	-20.528	20.129999
170	1	8	-0.43365499	7.5890002	-23.613001	29.851999
171	1	1	0.27834201	8.8850002	-24.111	29.971001
172	1	1	-0.19095799	9.934	-23.559	29.225
173	1	6	0.212524	9.7469997	-22.732	28.552
174	1	1	-0.14398	11.231	-24.066	29.351
175	1	6	0.20716	12.018	-23.597	28.778999
176	1	1	0.203107	11.491	-25.143	30.225
177	1	3	-0.56643301	12.804	-25.702	30.406
178	1	1	0.42090899	13.841	-25.506001	29.648001
179	1	9	0.149786	13.771	-24.899	28.754999
180	1	1	-0.27631	15.138	-26.139	29.962999
181	1	1	-0.180342	16.235001	-25.924	29.115
182	1	6	0.208463	16.136999	-25.292999	28.239
183	1	1	-0.180342	17.471001	-26.513	29.392
184	1	6	0.208463	18.309	-26.309	28.737
185	1	1	-0.27631	17.625999	-27.346001	30.513
186	1	1	0.42090899	18.93	-27.959999	30.844
187	1	9	0.149786	19.256001	-27.917999	31.875
188	1	3	-0.56643301	19.723	-28.518999	29.973
189	1	1	0.203107	19.441999	-28.805	28.593
190	1	1	-0.14398	20.448999	-28.612	27.639999
191	1	6	0.20716	21.410999	-28.215	27.940001
192	1	1	-0.19095799	20.216999	-28.914	26.295
193	1	6	0.212524	21	-28.746	25.566
194	1	1	0.27834299	18.979	-29.434999	25.893999
195	1	8	-0.43365499	18.733999	-29.738001	24.556999
196	1	1	-0.19095799	17.981001	-29.660999	26.847
197	1	6	0.212524	17.028	-30.077999	26.546
198	1	1	-0.14398	18.212	-29.360001	28.193001
199	1	6	0.20716	17.438999	-29.570999	28.92
200	1	1	-0.180342	16.540001	-27.535999	31.379
201	1	6	0.208463	16.648001	-28.153	32.263
202	1	1	-0.180342	15.303	-26.945999	31.103001
203	1	6	0.208463	14.479	-27.122	31.783001
204	1	1	-0.14398	10.436	-25.677999	30.976
205	1	6	0.20716	10.619	-26.497	31.66
206	1	1	-0.19095799	9.1400003	-25.169001	30.847
207	1	6	0.212524	8.3339996	-25.597	31.43
208	1	1	0.833363	19.462	-29.583	23.819
209	1	2	-0.59802198	19.290001	-30.077	22.673
210	1	3	-0.49629101	20.605	-28.771	24.115999
211	1	1	0.235329	21.737	-28.611	23.242001
212	1	1	-0.36802399	22.431999	-27.392	23.235001
213	1	1	-0.14291	23.548	-27.216999	22.413
214	1	1	-0.245868	23.992001	-28.261999	21.589001
215	1	4	-0.050882	25.218	-28.087	20.733999
216	1	1	-0.245868	26.450001	-28.479	21.504
217	1	1	-0.14291	27.124001	-27.532	22.291
218	1	1	-0.36802399	28.247	-27.903	23.035999
219	1	1	0.235329	28.716999	-29.228001	23.002001
220	1	3	-0.49629101	29.855	-29.643	23.777
221	1	1	0.833363	30.997999	-28.82	24.042
222	1	2	-0.59802198	31.163	-27.721001	23.451
223	1	1	-0.36802399	28.018999	-30.18	22.243
224	1	1	-0.14291	26.896999	-29.809	21.497
225	1	1	-0.14291	23.320999	-29.493999	21.621
226	1	1	-0.36802399	22.202999	-29.669001	22.441999
227	1	5	0.324168	20.563999	-28.194	24.986
228	1	6	0.21604501	22.101999	-26.575001	23.863001
229	1	6	0.214293	24.069	-26.267	22.422001
230	1	7	0.125659	25.132	-28.704	19.812
231	1	7	0.125659	25.299	-27.031	20.393999
232	1	6	0.214293	26.773001	-26.507999	22.334999
233	1	6	0.21604501	28.726999	-27.16	23.659
234	1	5	0.324168	29.900999	-30.636	24.1
235	1	6	0.21604501	28.351	-31.209999	22.224001
236	1	6	0.214293	26.374001	-30.559	20.917
237	1	6	0.214293	23.67	-30.323	21.017
238	1	6	0.21604501	21.726999	-30.639	22.472
239	1	8	-0.43365499	31.73	-29.156	24.712
240	1	1	0.27834201	31.908001	-30.511999	24.976999
241	1	1	-0.19095799	31.107	-31.474001	24.348
242	1	6	0.212524	30.344	-31.17	23.643
243	1	1	-0.14398	31.292	-32.833	24.622
244	1	6	0.20716	30.672001	-33.546001	24.098
245	1	1	0.203107	32.280998	-33.243999	25.539
246	1	3	-0.56643301	32.528	-34.625999	25.854
247	1	1	0.42090899	31.754	-35.632999	25.579
248	1	9	0.149786	30.799	-35.485001	25.094
249	1	1	-0.27631	32.140999	-37.007999	25.954
250	1	1	-0.180342	31.275999	-38.073002	25.66
251	1	6	0.208463	30.334999	-37.893002	25.155001
252	1	1	-0.180342	31.621	-39.382999	26.007
253	1	6	0.208463	30.948	-40.188999	25.743999
254	1	1	-0.27631	32.828999	-39.646	26.674
255	1	1	0.42090899	33.23	-41.025002	27.028999
256	1	9	0.149786	34.25	-41.32	26.820999
257	1	3	-0.56643301	32.428001	-41.915001	27.545
258	1	1	0.203107	31.089001	-41.710999	28.024
259	1	1	-0.14398	30.122999	-42.694	27.778
260	1	6	0.20716	30.378	-43.573002	27.200001
261	1	1	-0.19095799	28.819	-42.540001	28.261
262	1	6	0.212524	28.077999	-43.300999	28.049999
263	1	1	0.27834299	28.478001	-41.410999	29.016001
264	1	8	-0.43365499	27.181999	-41.244999	29.500999
265	1	1	-0.19095799	29.448	-40.442001	29.292999
266	1	6	0.212524	29.194	-39.575001	29.889999
267	1	1	-0.14398	30.752001	-40.595001	28.812
268	1	6	0.20716	31.497	-39.852001	29.063
269	1	1	-0.180342	33.708	-38.588001	26.940001
270	1	6	0.208463	34.655998	-38.775002	27.43
271	1	1	-0.180342	33.365002	-37.278	26.593
272	1	6	0.208463	34.058998	-36.479	26.823999
273	1	1	-0.14398	33.085999	-32.273998	26.150999
274	1	6	0.20716	33.859001	-32.571999	26.849001
275	1	1	-0.19095799	32.897999	-30.916	25.875999
276	1	6	0.212524	33.523998	-30.177999	26.361
277	1	1	0.833363	26.433001	-41.952999	29.313
278	1	2	-0.59802198	25.35	-41.886002	29.952
279	1	3	-0.49629101	26.639	-42.945	28.299
280	1	1	0.235329	25.756001	-44.053001	28.055
281	1	1	-0.36802399	25.612	-44.543999	26.749001
282	1	1	-0.14291	24.778	-45.633999	26.487
283	1	1	-0.245868	24.077999	-46.257	27.532
284	1	4	-0.050882	23.212	-47.456001	27.257
285	1	1	-0.245868	24.023001	-48.717999	27.356001
286	1	1	-0.14291	24.700001	-49.216	26.231001
287	1	1	-0.36802399	25.483999	-50.368999	26.330999
288	1	1	0.235329	25.6	-51.046001	27.558001
289	1	3	-0.49629101	26.42	-52.219002	27.695
290	1	1	0.833363	26.593	-53.209999	26.673
291	1	2	-0.59802198	25.882	-53.208	25.634001
292	1	1	-0.36802399	24.952	-50.525002	28.688
293	1	1	-0.14291	24.167	-49.373001	28.587999
294	1	1	-0.14291	24.247	-45.791	28.844999
295	1	1	-0.36802399	25.080999	-44.700001	29.106001
296	1	5	0.324168	27.438	-42.792999	27.643
297	1	6	0.21604501	26.143999	-44.074001	25.931
298	1	6	0.214293	24.681	-45.994999	25.471001
299	1	7	0.125659	22.365	-47.487999	27.976999
300	1	7	0.125659	22.754999	-47.373001	26.245001
301	1	6	0.214293	24.628	-48.703999	25.278999
302	1	6	0.21604501	26.021	-50.709999	25.455999
303	1	5	0.324168	26.853001	-52.417	28.625
304	1	6	0.21604501	25.051001	-51.019001	29.646999
305	1	6	0.214293	23.674	-48.990002	29.473
306	1	6	0.214293	23.740999	-46.280998	29.667999
307	1	6	0.21604501	25.219	-44.384998	30.132
308	1	8	-0.43365499	27.298	-53.973	26.809999
309	1	1	0.27834201	27.714001	-54.360001	28.080999
310	1	1	-0.19095799	27.195999	-53.737	29.224001
311	1	6	0.212524	26.459	-52.950001	29.127001
312	1	1	-0.14398	27.622	-54.132	30.496
313	1	6	0.20716	27.18	-53.646	31.354
314	1	1	0.203107	28.582001	-55.155998	30.638
315	1	3	-0.56643301	29.051001	-55.615002	31.917999
316	1	1	0.42090899	28.889	-55.019001	33.062
317	1	9	0.149786	28.389	-54.062	33.124001
318	1	1	-0.27631	29.417999	-55.613998	34.305
319	1	1	-0.180342	29.243999	-54.938	35.521999
320	1	6	0.208463	28.719	-53.990002	35.554001
321	1	1	-0.180342	29.737	-55.480999	36.712002
322	1	6	0.208463	29.563999	-54.952	37.640999
323	1	1	-0.27631	30.431999	-56.701	36.701
324	1	1	0.42090899	30.940001	-57.312	37.949001
325	1	9	0.149786	30.768999	-58.369999	38.096001
326	1	3	-0.56643301	31.552	-56.653	38.894001
327	1	1	0.203107	32.001999	-55.289001	38.858002
328	1	1	-0.14398	31.865999	-54.498001	40.005001
329	1	6	0.20716	31.391001	-54.903	40.889999
330	1	1	-0.19095799	32.326	-53.178001	40.012001
331	1	6	0.212524	32.200001	-52.571999	40.901001
332	1	1	0.27834299	32.949001	-52.644001	38.875999
333	1	8	-0.43365499	33.408001	-51.328999	38.868999
334	1	1	-0.19095799	33.117001	-53.439999	37.737999
335	1	6	0.212524	33.611	-53.037998	36.862999
336	1	1	-0.14398	32.658001	-54.761002	37.730999
337	1	6	0.20716	32.826	-55.372002	36.853001
338	1	1	-0.180342	30.579	-57.394001	35.491001
339	1	6	0.208463	31.087999	-58.349998	35.466999
340	1	1	-0.180342	30.086	-56.852001	34.300999
341	1	6	0.208463	30.226	-57.403999	33.379002
342	1	1	-0.14398	29.082001	-55.782001	29.488001
343	1	6	0.20716	29.811001	-56.578999	29.577999
344	1	1	-0.19095799	28.655001	-55.383999	28.218
345	1	6	0.212524	29.056	-55.873001	27.339001
346	1	1	0.833363	33.299999	-50.707001	39.705002
347	1	2	-0.59802198	33.924999	-49.615002	39.743999
348	1	3	-0.49629101	32.403999	-51.09	40.757
349	1	1	0.235329	32.285999	-50.401001	42.014
350	1	1	-0.36802399	31.042999	-50.365002	42.662998
351	1	1	-0.14291	30.903999	-49.722	43.896
352	1	1	-0.245868	32.009998	-49.110001	44.504002
353	1	4	-0.050882	31.870001	-48.452999	45.849998
354	1	1	-0.245868	32.112	-49.455002	46.945999
355	1	1	-0.14291	31.052	-50.224998	47.449001
356	1	1	-0.36802399	31.283001	-51.181999	48.442001
357	1	1	0.235329	32.578999	-51.381001	48.951
358	1	3	-0.49629101	32.848999	-52.375999	49.953999
359	1	1	0.833363	31.945999	-52.726002	51.009998
360	1	2	-0.59802198	30.910999	-52.044998	51.238998
361	1	1	-0.36802399	33.641998	-50.634998	48.419998
362	1	1	-0.14291	33.410999	-49.676998	47.429001
363	1	1	-0.14291	33.263	-49.175999	43.875
364	1	1	-0.36802399	33.401001	-49.818001	42.640999
365	1	5	0.324168	31.738001	-51.868	40.551998
366	1	6	0.21604501	30.177999	-50.831001	42.207001
367	1	6	0.214293	29.934	-49.705002	44.377998
368	1	7	0.125659	32.588001	-47.608002	45.939999
369	1	7	0.125659	30.855	-48.009998	45.955002
370	1	6	0.214293	30.049	-50.091999	47.064999
371	1	6	0.21604501	30.452999	-51.785	48.785999
372	1	5	0.324168	33.796001	-52.816002	49.974998
373	1	6	0.21604501	34.650002	-50.792	48.782001
374	1	6	0.214293	34.245998	-49.111	47.034
375	1	6	0.214293	34.134998	-48.738998	44.346001
376	1	6	0.21604501	34.384998	-49.882999	42.195999
377	1	8	-0.43365499	32.168999	-53.541	51.630001
378	1	1	0.27834201	33.477001	-53.988998	51.800999
379	1	1	-0.19095799	34.541	-53.355	51.146999
380	1	6	0.212524	34.355	-52.502998	50.505001
381	1	1	-0.14398	35.849998	-53.812	51.325001
382	1	6	0.20716	36.646	-53.280998	50.825001
383	1	1	0.203107	36.108002	-54.921001	52.158001
384	1	3	-0.56643301	37.432999	-55.431	52.389999
385	1	1	0.42090899	38.501999	-55.153	51.705002
386	1	9	0.149786	38.455002	-54.504002	50.841
387	1	1	-0.27631	39.806	-55.744999	52.064999
388	1	1	-0.180342	40.938	-55.439999	51.294998
389	1	6	0.208463	40.862	-54.769001	50.446999
390	1	1	-0.180342	42.182999	-55.988998	51.616001
391	1	6	0.208463	43.046001	-55.716	51.021999
392	1	1	-0.27631	42.311001	-56.872002	52.702
393	1	1	0.42090899	43.620998	-57.445999	53.078999
394	1	9	0.149786	43.884998	-57.444	54.129002
395	1	3	-0.56643301	44.487	-57.924999	52.23
396	1	1	0.203107	44.298	-58.151001	50.824001
397	1	1	-0.14398	45.348999	-57.866001	49.943001
398	1	6	0.20716	46.272999	-57.445	50.319
399	1	1	-0.19095799	45.208	-58.108002	48.573002
400	1	6	0.212524	46.021999	-57.868999	47.901001
401	1	1	0.27834299	44.02	-58.66	48.074001
402	1	8	-0.43365499	43.866001	-58.902	46.710999
403	1	1	-0.19095799	42.98	-58.977001	48.953999
404	1	6	0.212524	42.066002	-59.417	48.577
405	1	1	-0.14398	43.119999	-58.736	50.324001
406	1	6	0.20716	42.317001	-59.018002	50.993
407	1	1	-0.180342	41.187	-57.152	53.491001
408	1	6	0.208463	41.271999	-57.808998	54.348
409	1	1	-0.180342	39.942001	-56.603001	53.172001
410	1	6	0.208463	39.089001	-56.848999	53.792
411	1	1	-0.14398	35.036999	-55.537998	52.818001
412	1	6	0.20716	35.219002	-56.382999	53.471001
413	1	1	-0.19095799	33.729	-55.078999	52.638
414	1	6	0.212524	32.911999	-55.570999	53.150002
415	1	1	0.833363	44.626999	-58.678001	46.026001
416	1	2	-0.59802198	44.542999	-59.119999	44.849998
417	1	3	-0.49629101	45.713001	-57.834999	46.43
418	1	1	0.235329	46.883999	-57.582001	45.634998
419	1	1	-0.36802399	47.521999	-56.335999	45.729
420	1	1	-0.14291	48.674999	-56.070999	44.984001
421	1	1	-0.245868	49.212002	-57.051998	44.138
422	1	4	-0.050882	50.476002	-56.780998	43.367001
423	1	1	-0.245868	51.678001	-57.159	44.188999
424	1	1	-0.14291	52.262001	-56.226002	45.058998
425	1	1	-0.36802399	53.356998	-56.587002	45.851002
426	1	1	0.235329	53.888	-57.888	45.778999
427	1	3	-0.49629101	54.997002	-58.293999	46.599998
428	1	1	0.833363	56.084	-57.437	46.972
429	1	2	-0.59802198	56.233002	-56.301998	46.446999
430	1	1	-0.36802399	53.278999	-58.827999	44.935001
431	1	1	-0.14291	52.185001	-58.466999	44.143002
432	1	1	-0.14291	48.597	-58.312	44.069
433	1	1	-0.36802399	47.444	-58.577	44.813
434	1	5	0.324168	45.595001	-57.306	47.324001
435	1	6	0.21604501	47.119999	-55.567001	46.375999
436	1	6	0.214293	49.150002	-55.102001	45.070999
437	1	7	0.125659	50.471001	-57.352001	42.411999
438	1	7	0.125659	50.528	-55.706001	43.084999
439	1	6	0.214293	51.862999	-55.222	45.133999
440	1	6	0.21604501	53.764999	-55.858002	46.536999
441	1	5	0.324168	55.069	-59.299	46.875999
442	1	6	0.21604501	53.658001	-59.841	44.884998
443	1	6	0.214293	51.730999	-59.208	43.495998
444	1	6	0.214293	49.016998	-59.092999	43.446999
445	1	6	0.21604501	47.011002	-59.567001	44.765999
446	1	8	-0.43365499	56.792	-57.776001	47.667
447	1	1	0.27834201	57.014999	-59.134998	47.875
448	1	1	-0.19095799	56.296001	-60.096001	47.153999
449	1	6	0.212524	55.562	-59.789001	46.419998
450	1	1	-0.14398	56.527	-61.459	47.370998
451	1	6	0.20716	55.972	-62.168999	46.776001
452	1	1	0.203107	57.48	-61.874001	48.324001
453	1	3	-0.56643301	57.771	-63.258999	48.584
454	1	1	0.42090899	57.061001	-64.282997	48.214001
455	1	9	0.149786	56.130001	-64.150002	47.681
456	1	1	-0.27631	57.488998	-65.656998	48.543999
457	1	1	-0.180342	56.691002	-66.741997	48.146999
458	1	6	0.208463	55.773998	-66.575996	47.596001
459	1	1	-0.180342	57.075001	-68.051003	48.449001
460	1	6	0.208463	56.456001	-68.871002	48.105999
461	1	1	-0.27631	58.252998	-68.296997	49.173
462	1	1	0.42090899	58.695999	-69.675003	49.481998
463	1	9	0.149786	59.738998	-69.914001	49.320999
464	1	3	-0.56643301	57.908001	-70.623001	49.904999
465	1	1	0.203107	56.535999	-70.501999	50.313999
466	1	1	-0.14398	55.631001	-71.511002	49.962002
467	1	6	0.20716	55.959	-72.347	49.356998
468	1	1	-0.19095799	54.296001	-71.438004	50.373001
469	1	6	0.212524	53.603001	-72.217003	50.082001
470	1	1	0.27834299	53.861	-70.364998	51.161999
471	1	8	-0.43365499	52.533001	-70.279999	51.576
472	1	1	-0.19095799	54.768002	-69.371002	51.543999
473	1	6	0.212524	54.441002	-68.547997	52.166
474	1	1	-0.14398	56.103001	-69.443001	51.133999
475	1	6	0.20716	56.798	-68.682999	51.465
476	1	1	-0.180342	59.067001	-67.218002	49.542
477	1	6	0.208463	59.993	-67.389	50.077999
478	1	1	-0.180342	58.685001	-65.906998	49.241001
479	1	6	0.208463	59.327	-65.092003	49.550999
480	1	1	-0.14398	58.203999	-60.903	49.028999
481	1	6	0.20716	58.948002	-61.203999	49.756001
482	1	1	-0.19095799	57.970001	-59.542	48.811001
483	1	6	0.212524	58.533001	-58.804001	49.368
484	1	1	0.833363	51.828999	-71.008003	51.308998
485	1	2	-0.59802198	50.709	-71.019997	51.886002
486	1	3	-0.49629101	52.138	-71.935997	50.262001
487	1	1	0.235329	51.320999	-73.068001	49.911999
488	1	1	-0.36802399	51.275002	-73.495003	48.577
489	1	1	-0.14291	50.507999	-74.605003	48.213001
490	1	1	-0.245868	49.778	-75.309998	49.181999
491	1	4	-0.050882	48.985001	-76.528999	48.797001
492	1	1	-0.245868	49.846001	-77.760002	48.882
493	1	1	-0.14291	50.608002	-78.168999	47.776001
494	1	1	-0.36802399	51.437	-79.291	47.866001
495	1	1	0.235329	51.514	-80.025002	49.063
496	1	3	-0.49629101	52.376999	-81.167999	49.189999
497	1	1	0.833363	52.653	-82.096001	48.132999
498	1	2	-0.59802198	52.002998	-82.070999	47.055
499	1	1	-0.36802399	50.778999	-79.592003	50.175999
500	1	1	-0.14291	49.949001	-78.471001	50.087002
501	1	1	-0.14291	49.851002	-74.906998	50.523998
502	1	1	-0.36802399	50.617001	-73.795998	50.888
503	1	5	0.324168	52.966	-71.717003	49.662998
504	1	6	0.21604501	51.831001	-72.961998	47.816002
505	1	6	0.214293	50.486	-74.917	47.175999
506	1	7	0.125659	48.099998	-76.635002	49.463001
507	1	7	0.125659	48.584	-76.414001	47.765999
508	1	6	0.214293	50.567001	-77.612	46.848
509	1	6	0.21604501	52.037998	-79.563004	47.007999
510	1	5	0.324168	52.764	-81.394997	50.133999
511	1	6	0.21604501	50.845001	-80.129997	51.113998
512	1	6	0.214293	49.389	-78.154999	50.959
513	1	6	0.214293	49.320999	-75.459999	51.291
514	1	6	0.21604501	50.681999	-73.528999	51.933998
515	1	8	-0.43365499	53.382999	-82.834999	48.273998
516	1	1	0.27834201	53.743	-83.268997	49.547001
517	1	1	-0.19095799	53.132999	-82.728996	50.686001
518	1	6	0.212524	52.368	-81.969002	50.584999
519	1	1	-0.14398	53.501999	-83.170998	51.960999
520	1	6	0.20716	52.991001	-82.749001	52.813
521	1	1	0.203107	54.498001	-84.158997	52.108002
522	1	3	-0.56643301	54.914001	-84.663002	53.389999
523	1	1	0.42090899	54.66	-84.134003	54.549999
524	1	9	0.149786	54.113998	-83.204002	54.630001
525	1	1	-0.27631	55.143002	-84.769997	55.792
526	1	1	-0.180342	54.868999	-84.165001	57.028
527	1	6	0.208463	54.300999	-83.244003	57.075001
528	1	1	-0.180342	55.317001	-84.748001	58.216999
529	1	6	0.208463	55.068001	-84.276001	59.159
530	1	1	-0.27631	56.067001	-85.935997	58.187
531	1	1	0.42090899	56.529999	-86.586998	59.431999
532	1	9	0.149786	56.400002	-87.658997	59.515999
533	1	3	-0.56643301	57.056	-85.953003	60.443001
534	1	1	0.203107	57.445	-84.571999	60.5
535	1	1	-0.14398	57.208	-83.848	61.674999
536	1	6	0.20716	56.702	-84.318001	62.508999
537	1	1	-0.19095799	57.605999	-82.511002	61.775002
538	1	6	0.212524	57.402	-81.958	62.682999
539	1	1	0.27834299	58.268002	-81.892998	60.705002
540	1	8	-0.43365499	58.667	-80.560997	60.790001
541	1	1	-0.19095799	58.536999	-82.621002	59.542
542	1	6	0.212524	59.061001	-82.153	58.717999
543	1	1	-0.14398	58.139999	-83.958	59.442001
544	1	6	0.20716	58.384998	-84.514999	58.547001
545	1	1	-0.180342	56.313999	-86.557999	56.956001
546	1	6	0.208463	56.868	-87.487999	56.915001
547	1	1	-0.180342	55.866001	-85.976997	55.765999
548	1	6	0.208463	56.084	-86.473	54.828999
549	1	1	-0.14398	55.091999	-84.703003	50.960999
550	1	6	0.20716	55.848999	-85.471001	51.055
551	1	1	-0.19095799	54.721001	-84.258003	49.688999
552	1	6	0.212524	55.192001	-84.682999	48.812
553	1	8	-0.43365499	-6.3800001	-0.58099997	2.369
554	1	1	0.27834201	-5.9640002	-0.78200001	3.6830001
555	1	1	-0.19095799	-4.6009998	-0.875	3.9949999
556	1	6	0.212524	-3.8570001	-0.78299999	3.214
557	1	1	-0.14398	-4.1929998	-1.0779999	5.3169999
558	1	6	0.20716	-3.1329999	-1.118	5.5209999
559	1	1	0.203107	-5.151	-1.2	6.3449998
560	1	3	-0.56643301	-4.7950001	-1.398	7.724
561	1	1	0.42090899	-3.6300001	-1.751	8.1809998
562	1	9	0.149786	-2.8099999	-1.9630001	7.5089998
563	1	1	-0.27631	-3.4030001	-1.9069999	9.632
564	1	1	-0.180342	-2.1389999	-2.3069999	10.093
565	1	6	0.208463	-1.332	-2.4920001	9.3940001
566	1	1	-0.180342	-1.901	-2.4630001	11.461
567	1	6	0.208463	-0.90899998	-2.7449999	11.792
568	1	1	-0.27631	-2.9300001	-2.2420001	12.391
569	1	1	0.42090899	-2.698	-2.3740001	13.846
570	1	9	0.149786	-3.0880001	-1.596	14.489
571	1	3	-0.56643301	-2.029	-3.348	14.399
572	1	1	0.203107	-1.544	-4.5430002	13.767
573	1	1	-0.112273	-0.28299999	-5.0370002	14.126
574	1	6	0.20716	0.32699999	-4.4990001	14.84
575	1	1	-0.371034	0.20299999	-6.217	13.554
576	1	6	0.215868	1.1849999	-6.5799999	13.829
577	1	1	0.30349001	-0.57999998	-6.927	12.634
578	1	10	-0.64822298	-0.107	-8.1020002	12.055
579	1	11	0.436708	0.81	-8.4709997	12.28
580	1	1	-0.371034	-1.853	-6.4559999	12.297
581	1	6	0.215868	-2.4690001	-7.0079999	11.599
582	1	1	-0.112273	-2.3399999	-5.277	12.869
583	1	6	0.20716	-3.3399999	-4.9450002	12.621
584	1	1	-0.180342	-4.184	-1.812	11.935
585	1	6	0.208463	-4.9819999	-1.6109999	12.639
586	1	1	-0.180342	-4.4229999	-1.655	10.566
587	1	6	0.208463	-5.4060001	-1.335	10.242
588	1	1	-0.14398	-6.5110002	-1.091	6.0229998
589	1	6	0.20716	-7.2600002	-1.17	6.802
590	1	1	-0.19095799	-6.9159999	-0.889	4.7010002
591	1	6	0.212524	-7.9699998	-0.81300002	4.467
592	1	1	0.833363	58.476002	-79.969002	61.675999
593	1	2	-0.59802198	57.342999	-80.029999	62.223999
594	1	3	-0.49629101	59.497002	-79.095001	62.173
595	1	1	0.235329	59.418999	-78.378998	63.417999
596	1	1	-0.36802399	58.794998	-78.935997	64.549004
597	1	1	-0.14291	58.754002	-78.228996	65.753998
598	1	1	-0.245868	59.34	-76.958	65.849998
599	1	4	-0.050882	59.330002	-76.213997	67.158997
600	1	1	-0.26038501	60.540001	-76.581001	67.973999
601	1	1	-0.187903	61.737	-75.863998	67.825996
602	1	1	-0.26030499	62.872002	-76.227997	68.556999
603	1	1	0.44087201	62.833	-77.315002	69.439003
604	1	3	-0.35021099	64.023003	-77.652	70.167999
605	1	12	0.61488199	64.099998	-78.619003	70.994003
606	1	2	-0.30882201	64.175003	-79.558998	71.794998
607	1	1	-0.26030499	61.633999	-78.042	69.579002
608	1	1	-0.187903	60.499001	-77.679001	68.848
609	1	1	-0.14291	59.993	-76.416	64.733002
610	1	1	-0.36802399	60.034	-77.124001	63.528