Title

59 atoms
60 bonds
101 angles
155 dihedrals
48 impropers

9 atom types
12 bond types
6 angle types
23 dihedral types
2 improper types
-5.671999931 94.32800007 xlo xhi
-1.873000026 98.12699997 ylo yhi
-5.041999817 94.95800018 zlo zhi
0.0 0.0 0.0 xy xz yz

Masses

1	15.99943
2	12.01078
3	1.007947
4	1.007947
5	12.01078
6	15.99943
7	1.007947
8	15.99943
9	1.007947


Pair Coeffs

1	0.16846514	3.0251065
2	0.10884061	3.3795318
3	0.016409246	2.5832257
4	0.015779483	2.6445434
5	0.086879315	3.4806469
6	0.2102061	3.0398122
7	0.015611343	2.5725815
8	0.20947353	2.99716
9	1.2326e-05	0.53453923

Bond Coeffs

1 harmonic	366.7408841747	1.425895053732
2 harmonic	300.03137914615	1.451203938761
3 harmonic	264.62148576755	1.52190126495
4 harmonic	370.04670688625	1.093899492634
5 harmonic	301.15400723785	1.345741232799
6 harmonic	582.698766451	1.225198386222
7 harmonic	279.1350963404	1.454628925034
8 harmonic	360.7852444772	1.387193227181
9 harmonic	397.2545789619	1.085358495916
10 harmonic	329.96998057905	1.427343958716
11 harmonic	543.5267831885	0.9716763312559
12 harmonic	385.7604595587	1.369745182308


Angle Coeffs

1 harmonic	53.20531626545	116.5475862634
2 harmonic	65.09061609600001	110.3538806181
3 harmonic	201.41175231035	127.4691416191
4 harmonic	57.8982893754	126.8062420451
5 harmonic	48.776492647595	115.6030999533
6 harmonic	34.066775159195	129.1835929926


Dihedral Coeffs

1 fourier 1	0.1155372516788	3	0
2 fourier 1	0.1115525666802	3	0
3 fourier 1	0.3432490222662	1	0
4 fourier 1	0.0473758381877	3	0
5 fourier 1	0.457973137376	1	0
6 fourier 1	0.09223874044423	3	0
7 fourier 1	0.3159935921949	2	180
8 fourier 1	0.3247796806857	1	180
9 fourier 1	0.1040663847541	3	0
10 fourier 1	0.1918272375143	3	0
11 fourier 1	0.9202179876409	1	180
12 fourier 1	1.163809172478	2	180
13 fourier 1	0.1679186987369	1	180
14 fourier 1	2.779853741805	2	180
15 fourier 1	0.9974165607242	2	180
16 fourier 1	0.1911926717192	3	0
17 fourier 1	3.661930099076	2	180
18 fourier 1	0.3445382149273	3	0
19 fourier 1	0.1364556373303	1	0
20 fourier 1	0.3026390167484	3	0
21 fourier 1	2.687457892086	2	180
22 fourier 1	2.772607909663	2	180
23 fourier 1	0.09692684957115	1	0


Improper Coeffs

1 3.5	-1	2
2 0.3666666666666667	-1	2


Atoms

1	1	1	-0.16237	-2.5580001	0.57200003	0.94400001
2	1	2	0.035971001	-1.365	0.62599999	0.20999999
3	1	2	-0.142967	-0.671	-0.741	0.23
4	1	2	-0.136338	0.55199999	-0.81	-0.69999999
5	1	2	0.13943601	1.743	0.017999999	-0.205
6	1	1	-0.50556999	1.545	1.374	-0.49000001
7	1	3	0.081321999	2.661	-0.33199999	-0.72899997
8	1	3	0.081321999	1.8890001	-0.13	0.889
9	1	4	0.095876001	0.87400001	-1.873	-0.75599998
10	1	4	0.095876001	0.27200001	-0.498	-1.73
11	1	4	0.097009003	-1.399	-1.512	-0.104
12	1	4	0.097009003	-0.37400001	-0.99400002	1.272
13	1	3	0.089344002	-1.572	0.94300002	-0.838
14	1	3	0.089344002	-0.708	1.386	0.68000001
15	1	5	0.78903401	2.3740001	1.872	-0.114
16	1	6	-0.56999099	3.5050001	1.322	-0.197
17	1	5	-0.241356	2.2119999	3.201	0.50400001
18	1	5	-0.098738	3.263	3.8770001	1.0039999
19	1	7	0.210967	4.263	3.4649999	0.96600002
20	1	5	-0.26892799	3.0680001	5.2059999	1.6160001
21	1	7	0.183751	3.9200001	5.743	2.0150001
22	1	5	-0.060412999	1.846	5.7470002	1.6799999
23	1	7	0.198964	1.72	6.7220001	2.132
24	1	5	-0.306665	0.676	5.0139999	1.1339999
25	1	5	0.57450098	-0.67400002	5.6009998	1.199
26	1	6	-0.606906	-0.86199999	6.7340002	1.717
27	1	5	0.041129	0.85799998	3.8039999	0.57599998
28	1	7	0.227566	0.014	3.256	0.17299999
29	1	1	-0.16237	-3.2279999	0.123	0.366
30	1	2	0.036083002	-2.677	0.068999998	-0.92199999
31	1	2	-0.137228	-2.8	1.436	-1.605
32	1	2	-0.16428	-2.059	1.506	-2.9519999
33	1	2	0.089576997	-2.724	0.67699999	-4.0580001
34	1	8	-0.67839903	-2.4130001	-0.67900002	-3.904
35	1	9	0.38742	-2.885	-1.155	-4.6350002
36	1	3	0.080943003	-2.3399999	1.027	-5.0419998
37	1	3	0.080943003	-3.8269999	0.82599998	-4.0409999
38	1	4	0.099473	-2.0510001	2.5680001	-3.2780001
39	1	4	0.099473	-1	1.193	-2.826
40	1	4	0.097185999	-2.3610001	2.207	-0.93400002
41	1	4	0.097185999	-3.8729999	1.689	-1.747
42	1	3	0.089344002	-1.6109999	-0.248	-0.87199998
43	1	3	0.089344002	-3.2390001	-0.69099998	-1.503
44	1	5	0.57450098	-1.523	5.0619998	0.79900002
45	1	6	-0.606906	-1.534	4.763	-0.42500001
46	1	5	-0.306665	-2.6400001	4.691	1.689
47	1	5	-0.060412999	-3.7119999	4.0209999	1.229
48	1	7	0.198964	-3.7880001	3.733	0.18799999
49	1	5	-0.26892799	-4.8130002	3.664	2.1440001
50	1	7	0.183751	-5.6719999	3.125	1.765
51	1	5	-0.094632	-4.7529998	4.0050001	3.4360001
52	1	7	0.210967	-5.5710001	3.734	4.092
53	1	5	-0.235236	-3.579	4.7449999	3.964
54	1	5	0.82657897	-3.526	5.1149998	5.3959999
55	1	6	-0.54719102	-2.5369999	5.743	5.862
56	1	8	-0.678222	-4.5749998	4.7690001	6.243
57	1	9	0.39891601	-4.553	5.0149999	7.2259998
58	1	5	0.044075001	-2.576	5.0669999	3.1229999
59	1	7	0.227566	-1.7079999	5.6069999	3.483

Bonds

1	1	1	2
2	2	1	29
3	3	2	3
4	4	2	13
5	4	2	14
6	3	3	4
7	4	3	11
8	4	3	12
9	3	4	5
10	4	4	9
11	4	4	10
12	1	5	6
13	4	5	7
14	4	5	8
15	5	6	15
16	6	15	16
17	7	15	17
18	8	17	18
19	8	17	27
20	9	18	19
21	8	18	20
22	9	20	21
23	8	20	22
24	9	22	23
25	8	22	24
26	7	24	25
27	8	24	27
28	6	25	26
29	7	25	44
30	9	27	28
31	1	29	30
32	3	30	31
33	4	30	42
34	4	30	43
35	3	31	32
36	4	31	40
37	4	31	41
38	3	32	33
39	4	32	38
40	4	32	39
41	10	33	34
42	4	33	36
43	4	33	37
44	11	34	35
45	6	44	45
46	7	44	46
47	8	46	47
48	8	46	58
49	9	47	48
50	8	47	49
51	9	49	50
52	8	49	51
53	9	51	52
54	8	51	53
55	7	53	54
56	8	53	58
57	6	54	55
58	12	54	56
59	11	56	57
60	9	58	59

Angles

1	3	55	54	56
2	1	31	32	33
3	4	53	54	55
4	4	26	25	44
5	1	34	33	37
6	1	3	4	5
7	4	25	44	45
8	5	40	31	41
9	2	2	1	29
10	4	6	15	17
11	1	1	2	13
12	1	31	30	43
13	5	7	5	8
14	4	54	53	58
15	2	33	34	35
16	1	29	30	42
17	1	2	3	4
18	1	33	32	39
19	4	47	46	58
20	5	13	2	14
21	5	38	32	39
22	6	17	27	28
23	4	15	17	27
24	1	32	31	41
25	1	6	5	8
26	6	47	49	50
27	1	29	30	31
28	1	32	33	34
29	4	17	27	24
30	1	4	5	6
31	5	9	4	10
32	1	2	3	12
33	4	46	58	53
34	4	44	46	58
35	6	48	47	49
36	1	31	32	38
37	1	4	5	7
38	6	17	18	19
39	6	50	49	51
40	4	53	54	56
41	2	1	29	30
42	4	24	25	44
43	1	4	3	11
44	1	3	4	10
45	6	20	22	23
46	4	16	15	17
47	1	3	4	9
48	4	25	44	46
49	1	31	32	39
50	6	46	47	48
51	1	1	2	14
52	4	17	18	20
53	1	29	30	43
54	4	22	24	25
55	1	3	2	13
56	4	25	24	27
57	4	20	22	24
58	1	30	31	32
59	6	49	51	52
60	5	42	30	43
61	4	47	49	51
62	1	30	31	40
63	4	44	46	47
64	1	3	2	14
65	6	53	58	59
66	4	49	51	53
67	2	5	6	15
68	1	32	33	36
69	4	18	17	27
70	3	6	15	16
71	6	19	18	20
72	1	4	5	8
73	6	23	22	24
74	1	1	2	3
75	6	18	20	21
76	1	31	30	42
77	4	24	25	26
78	1	33	32	38
79	6	21	20	22
80	1	4	3	12
81	6	52	51	53
82	4	46	47	49
83	1	32	33	37
84	1	32	31	40
85	1	6	5	7
86	4	45	44	46
87	4	18	20	22
88	4	51	53	58
89	2	54	56	57
90	1	2	3	11
91	5	11	3	12
92	6	24	27	28
93	5	36	33	37
94	4	15	17	18
95	1	34	33	36
96	1	5	4	10
97	1	5	4	9
98	4	51	53	54
99	6	46	58	59
100	4	22	24	27
101	1	30	31	41

Dihedrals

1	17	20	18	17	27
2	9	30	31	32	39
3	17	47	46	58	59
4	17	18	20	22	24
5	16	12	3	2	13
6	4	1	29	30	31
7	4	3	2	1	29
8	6	2	3	4	5
8	7	2	3	4	5
8	8	2	3	4	5
9	16	10	4	3	11
10	17	19	18	17	27
11	16	40	31	30	42
12	15	24	25	44	46
13	17	44	46	47	49
14	2	29	30	31	40
14	3	29	30	31	40
15	12	5	6	15	16
15	13	5	6	15	16
16	16	11	3	2	13
17	15	27	24	25	44
18	9	5	4	3	11
19	2	6	5	4	10
19	3	6	5	4	10
20	15	22	24	25	44
21	2	6	5	4	9
21	3	6	5	4	9
22	17	15	17	27	28
23	16	36	33	32	38
24	16	9	4	3	12
25	17	46	47	49	50
26	15	55	54	53	58
27	2	34	33	32	38
27	3	34	33	32	38
28	15	16	15	17	27
29	16	10	4	3	12
30	17	23	22	24	25
31	17	15	17	27	24
32	15	6	15	17	18
33	15	25	44	46	58
34	17	47	49	51	52
35	14	5	6	15	17
36	16	37	33	32	39
37	9	4	3	2	13
38	22	55	54	56	57
38	23	55	54	56	57
39	1	3	4	5	6
40	16	36	33	32	39
41	17	44	46	58	59
42	4	13	2	1	29
43	17	17	18	20	21
44	17	46	47	49	51
45	17	20	22	24	25
46	4	1	29	30	43
47	17	47	49	51	53
48	9	33	32	31	40
49	17	21	20	22	23
50	2	1	2	3	11
50	3	1	2	3	11
51	17	52	51	53	54
52	17	15	17	18	19
53	17	50	49	51	52
54	15	51	53	54	55
55	6	30	31	32	33
55	7	30	31	32	33
55	8	30	31	32	33
56	9	3	4	5	7
57	9	31	32	33	36
58	17	47	46	58	53
59	16	12	3	2	14
60	15	26	25	44	45
61	9	32	31	30	42
62	17	21	20	22	24
63	17	15	17	18	20
64	15	51	53	54	56
65	17	17	27	24	25
66	15	6	15	17	27
67	16	7	5	4	10
68	9	2	3	4	10
69	15	22	24	25	26
70	16	7	5	4	9
71	9	2	3	4	9
72	9	31	32	33	37
73	16	40	31	30	43
74	15	45	44	46	58
75	2	29	30	31	41
75	3	29	30	31	41
76	16	11	3	2	14
77	9	5	4	3	12
78	15	25	44	46	47
79	16	39	32	31	40
80	16	8	5	4	10
81	16	8	5	4	9
82	15	26	25	44	46
83	16	38	32	31	40
84	2	34	33	32	39
84	3	34	33	32	39
85	5	2	1	29	30
86	17	52	51	53	58
87	4	8	5	6	15
88	1	1	2	3	4
89	17	19	18	20	21
90	9	4	3	2	14
91	16	39	32	31	41
92	17	17	27	24	22
93	17	22	24	27	28
94	17	17	18	20	22
95	10	4	5	6	15
95	11	4	5	6	15
96	17	49	51	53	58
97	9	30	31	32	38
98	17	23	22	24	27
99	17	18	17	27	24
100	9	33	32	31	41
101	16	41	31	30	42
102	17	49	51	53	54
103	2	1	2	3	12
103	3	1	2	3	12
104	4	7	5	6	15
105	17	50	49	51	53
106	9	3	4	5	8
107	15	45	44	46	47
108	17	54	53	58	59
109	17	46	58	53	54
110	17	20	22	24	27
111	1	29	30	31	32
112	16	9	4	3	11
113	9	32	31	30	43
114	16	41	31	30	43
115	21	53	54	56	57
116	17	44	46	58	53
117	17	48	47	46	58
118	17	48	47	49	50
119	16	37	33	32	38
120	1	31	32	33	34
121	15	26	25	24	27
122	17	18	17	27	28
123	16	38	32	31	41
124	20	35	34	33	36
125	17	46	58	53	51
126	17	25	24	27	28
127	17	18	20	22	23
128	15	16	15	17	18
129	4	1	29	30	42
130	17	19	18	20	22
131	17	49	47	46	58
132	17	48	47	49	51
133	15	56	54	53	58
134	4	14	2	1	29
135	17	51	53	58	59
136	18	32	33	34	35
136	19	32	33	34	35
137	17	44	46	47	48
138	15	24	25	44	45
139	20	35	34	33	37

Impropers

2	1	15	16	17	6
3	2	20	21	22	18
13	2	47	46	48	49
15	2	58	46	53	59
19	2	49	51	47	50
29	2	46	47	58	44
32	2	46	58	44	47
35	2	18	20	17	19
41	2	58	53	59	46
47	2	20	22	18	21
58	2	17	15	18	27
68	2	27	17	24	28
70	2	51	52	53	49
71	1	54	55	56	53
73	2	49	50	51	47
79	2	47	49	46	48
80	2	20	18	21	22
86	2	46	44	47	58
89	2	25	44	24	26
90	2	51	49	52	53
95	2	49	47	50	51
100	1	54	56	53	55
101	2	27	28	17	24
109	2	17	18	27	15
114	2	51	53	49	52
115	2	25	24	26	44
126	2	24	25	27	22
151	2	53	54	58	51
161	2	18	19	20	17
163	2	22	24	20	23
164	1	15	6	16	17
165	2	47	48	49	46
183	2	22	20	23	24
190	1	54	53	55	56
193	2	53	58	51	54
195	1	15	17	6	16
202	2	27	24	28	17
203	2	58	59	46	53
212	2	17	27	15	18
232	2	24	22	25	27
242	2	24	27	22	25
248	2	44	45	46	25
252	2	22	23	24	20
258	2	25	26	44	24
261	2	18	17	19	20
266	2	44	25	45	46
271	2	44	46	25	45
274	2	53	51	54	58
