Title

59 atoms
60 bonds
101 angles
155 dihedrals
48 impropers

9 atom types
12 bond types
6 angle types
23 dihedral types
2 improper types
-5.671999931 94.32800007 xlo xhi
-1.873000026 98.12699997 ylo yhi
-5.041999817 94.95800018 zlo zhi
0.0 0.0 0.0 xy xz yz

Masses

1	15.99943
2	12.01078
3	1.007947
4	1.007947
5	12.01078
6	15.99943
7	1.007947
8	15.99943
9	1.007947


Pair Coeffs

1	0.16846514	3.0251065
2	0.10884061	3.3795318
3	0.016409246	2.5832257
4	0.015779483	2.6445434
5	0.086879315	3.4806469
6	0.2102061	3.0398122
7	0.015611343	2.5725815
8	0.20947353	2.99716
9	1.2326e-05	0.53453923

Bond Coeffs

1 harmonic	366.7408841747	1.425895053732
2 harmonic	300.03137914615	1.451203938761
3 harmonic	264.62148576755	1.52190126495
4 harmonic	370.04670688625	1.093899492634
5 harmonic	301.15400723785	1.345741232799
6 harmonic	582.698766451	1.225198386222
7 harmonic	279.1350963404	1.454628925034
8 harmonic	360.7852444772	1.387193227181
9 harmonic	397.2545789619	1.085358495916
10 harmonic	329.96998057905	1.427343958716
11 harmonic	543.5267831885	0.9716763312559
12 harmonic	385.7604595587	1.369745182308


Angle Coeffs

1 harmonic	53.20531626545	116.5475862634
2 harmonic	65.09061609600001	110.3538806181
3 harmonic	201.41175231035	127.4691416191
4 harmonic	57.8982893754	126.8062420451
5 harmonic	48.776492647595	115.6030999533
6 harmonic	34.066775159195	129.1835929926


Dihedral Coeffs

1 fourier 1	0.1155372516788	3	0
2 fourier 1	0.1115525666802	3	0
3 fourier 1	0.3432490222662	1	0
4 fourier 1	0.0473758381877	3	0
5 fourier 1	0.457973137376	1	0
6 fourier 1	0.09223874044423	3	0
7 fourier 1	0.3159935921949	2	180
8 fourier 1	0.3247796806857	1	180
9 fourier 1	0.1040663847541	3	0
10 fourier 1	0.1918272375143	3	0
11 fourier 1	0.9202179876409	1	180
12 fourier 1	1.163809172478	2	180
13 fourier 1	0.1679186987369	1	180
14 fourier 1	2.779853741805	2	180
15 fourier 1	0.9974165607242	2	180
16 fourier 1	0.1911926717192	3	0
17 fourier 1	3.661930099076	2	180
18 fourier 1	0.3445382149273	3	0
19 fourier 1	0.1364556373303	1	0
20 fourier 1	0.3026390167484	3	0
21 fourier 1	2.687457892086	2	180
22 fourier 1	2.772607909663	2	180
23 fourier 1	0.09692684957115	1	0


Improper Coeffs

1 3.5	-1	2
2 0.3666666666666667	-1	2


Atoms

1	1	1	-0.16237	-2.5580001	0.57200003	0.94400001
2	1	2	0.035971001	-1.365	0.62599999	0.20999999
3	1	2	-0.142967	-0.671	-0.741	0.23
4	1	2	-0.136338	0.55199999	-0.81	-0.69999999
5	1	2	0.13943601	1.743	0.017999999	-0.205
6	1	1	-0.50556999	1.545	1.374	-0.49000001
7	1	3	0.081321999	2.661	-0.33199999	-0.72899997
8	1	3	0.081321999	1.8890001	-0.13	0.889
9	1	4	0.095876001	0.87400001	-1.873	-0.75599998
10	1	4	0.095876001	0.27200001	-0.498	-1.73
11	1	4	0.097009003	-1.399	-1.512	-0.104
12	1	4	0.097009003	-0.37400001	-0.99400002	1.272
13	1	3	0.089344002	-1.572	0.94300002	-0.838
14	1	3	0.089344002	-0.708	1.386	0.68000001
15	1	5	0.78903401	2.3740001	1.872	-0.114
16	1	6	-0.56999099	3.5050001	1.322	-0.197
17	1	5	-0.241356	2.2119999	3.201	0.50400001
18	1	5	-0.098738	3.263	3.8770001	1.0039999
19	1	7	0.210967	4.263	3.4649999	0.96600002
20	1	5	-0.26892799	3.0680001	5.2059999	1.6160001
21	1	7	0.183751	3.9200001	5.743	2.0150001
22	1	5	-0.060412999	1.846	5.7470002	1.6799999
23	1	7	0.198964	1.72	6.7220001	2.132
24	1	5	-0.306665	0.676	5.0139999	1.1339999
25	1	5	0.57450098	-0.67400002	5.6009998	1.199
26	1	6	-0.606906	-0.86199999	6.7340002	1.717
27	1	5	0.041129	0.85799998	3.8039999	0.57599998
28	1	7	0.227566	0.014	3.256	0.17299999
29	1	1	-0.16237	-3.2279999	0.123	0.366
30	1	2	0.036083002	-2.677	0.068999998	-0.92199999
31	1	2	-0.137228	-2.8	1.436	-1.605
32	1	2	-0.16428	-2.059	1.506	-2.9519999
33	1	2	0.089576997	-2.724	0.67699999	-4.0580001
34	1	8	-0.67839903	-2.4130001	-0.67900002	-3.904
35	1	9	0.38742	-2.885	-1.155	-4.6350002
36	1	3	0.080943003	-2.3399999	1.027	-5.0419998
37	1	3	0.080943003	-3.8269999	0.82599998	-4.0409999
38	1	4	0.099473	-2.0510001	2.5680001	-3.2780001
39	1	4	0.099473	-1	1.193	-2.826
40	1	4	0.097185999	-2.3610001	2.207	-0.93400002
41	1	4	0.097185999	-3.8729999	1.689	-1.747
42	1	3	0.089344002	-1.6109999	-0.248	-0.87199998
43	1	3	0.089344002	-3.2390001	-0.69099998	-1.503
44	1	5	0.57450098	-1.523	5.0619998	0.79900002
45	1	6	-0.606906	-1.534	4.763	-0.42500001
46	1	5	-0.306665	-2.6400001	4.691	1.689
47	1	5	-0.060412999	-3.7119999	4.0209999	1.229
48	1	7	0.198964	-3.7880001	3.733	0.18799999
49	1	5	-0.26892799	-4.8130002	3.664	2.1440001
50	1	7	0.183751	-5.6719999	3.125	1.765
51	1	5	-0.094632	-4.7529998	4.0050001	3.4360001
52	1	7	0.210967	-5.5710001	3.734	4.092
53	1	5	-0.235236	-3.579	4.7449999	3.964
54	1	5	0.82657897	-3.526	5.1149998	5.3959999
55	1	6	-0.54719102	-2.5369999	5.743	5.862
56	1	8	-0.678222	-4.5749998	4.7690001	6.243
57	1	9	0.39891601	-4.553	5.0149999	7.2259998
58	1	5	0.044075001	-2.576	5.0669999	3.1229999
59	1	7	0.227566	-1.7079999	5.6069999	3.483

Bonds

1	1	1	2
2	2	1	29
3	3	2	3
4	4	2	13
5	4	2	14
6	3	3	4
7	4	3	11
8	4	3	12
9	3	4	5
10	4	4	9
11	4	4	10
12	1	5	6
13	4	5	7
14	4	5	8
15	5	6	15
16	6	15	16
17	7	15	17
18	8	17	18
19	8	17	27
20	9	18	19
21	8	18	20
22	9	20	21
23	8	20	22
24	9	22	23
25	8	22	24
26	7	24	25
27	8	24	27
28	6	25	26
29	7	25	44
30	9	27	28
31	1	29	30
32	3	30	31
33	4	30	42
34	4	30	43
35	3	31	32
36	4	31	40
37	4	31	41
38	3	32	33
39	4	32	38
40	4	32	39
41	10	33	34
42	4	33	36
43	4	33	37
44	11	34	35
45	6	44	45
46	7	44	46
47	8	46	47
48	8	46	58
49	9	47	48
50	8	47	49
51	9	49	50
52	8	49	51
53	9	51	52
54	8	51	53
55	7	53	54
56	8	53	58
57	6	54	55
58	12	54	56
59	11	56	57
60	9	58	59

Angles

1	1	32	31	40
2	4	20	22	24
3	1	30	31	41
4	5	7	5	8
5	5	38	32	39
6	1	34	33	36
7	1	3	4	10
8	5	9	4	10
9	5	42	30	43
10	5	40	31	41
11	4	22	24	25
12	1	32	33	37
13	1	29	30	42
14	4	16	15	17
15	1	3	4	9
16	1	4	3	12
17	4	46	58	53
18	2	1	29	30
19	1	32	31	41
20	4	45	44	46
21	4	24	25	44
22	1	31	32	33
23	5	13	2	14
24	2	2	1	29
25	1	2	3	11
26	1	4	5	6
27	4	47	46	58
28	4	25	24	27
29	4	17	27	24
30	4	18	17	27
31	1	3	2	14
32	6	21	20	22
33	4	15	17	27
34	4	17	18	20
35	1	2	3	12
36	1	5	4	9
37	6	17	27	28
38	1	4	3	11
39	4	18	20	22
40	1	29	30	43
41	4	51	53	58
42	1	1	2	13
43	4	24	25	26
44	4	44	46	47
45	6	50	49	51
46	6	20	22	23
47	4	44	46	58
48	6	24	27	28
49	6	46	47	48
50	6	48	47	49
51	1	5	4	10
52	6	17	18	19
53	1	29	30	31
54	5	11	3	12
55	6	46	58	59
56	1	31	32	38
57	1	34	33	37
58	6	19	18	20
59	1	4	5	7
60	2	54	56	57
61	1	31	30	42
62	1	32	33	34
63	1	1	2	14
64	1	4	5	8
65	1	1	2	3
66	4	25	44	45
67	1	33	32	39
68	4	51	53	54
69	4	46	47	49
70	6	52	51	53
71	4	53	54	56
72	1	30	31	32
73	1	31	32	39
74	1	3	4	5
75	4	22	24	27
76	1	30	31	40
77	1	33	32	38
78	3	55	54	56
79	6	23	22	24
80	6	49	51	52
81	1	3	2	13
82	4	49	51	53
83	1	6	5	7
84	2	33	34	35
85	4	47	49	51
86	1	6	5	8
87	4	6	15	17
88	5	36	33	37
89	1	31	30	43
90	4	15	17	18
91	1	32	33	36
92	3	6	15	16
93	4	54	53	58
94	4	26	25	44
95	6	47	49	50
96	4	53	54	55
97	6	18	20	21
98	4	25	44	46
99	1	2	3	4
100	6	53	58	59
101	2	5	6	15

Dihedrals

1	17	44	46	47	48
2	15	26	25	44	46
3	17	47	49	51	52
4	9	30	31	32	38
5	17	17	27	24	22
6	16	39	32	31	40
7	16	40	31	30	43
8	17	46	47	49	50
9	17	22	24	27	28
10	17	46	58	53	54
11	4	1	29	30	43
12	10	4	5	6	15
12	11	4	5	6	15
13	17	52	51	53	58
14	9	3	4	5	7
15	4	13	2	1	29
16	15	51	53	54	55
17	15	26	25	24	27
18	9	3	4	5	8
19	21	53	54	56	57
20	16	38	32	31	40
21	17	19	18	17	27
22	16	36	33	32	38
23	16	41	31	30	43
24	5	2	1	29	30
25	17	23	22	24	27
26	2	6	5	4	9
26	3	6	5	4	9
27	15	56	54	53	58
28	9	4	3	2	13
29	17	51	53	58	59
30	17	21	20	22	24
31	17	49	47	46	58
32	9	31	32	33	37
33	17	44	46	47	49
34	4	1	29	30	31
35	17	17	18	20	21
36	17	50	49	51	53
37	15	55	54	53	58
38	9	2	3	4	10
39	2	1	2	3	11
39	3	1	2	3	11
40	16	12	3	2	13
41	17	23	22	24	25
42	20	35	34	33	37
43	16	39	32	31	41
44	17	44	46	58	53
45	16	9	4	3	12
46	17	18	17	27	24
47	16	36	33	32	39
48	16	10	4	3	11
49	17	47	49	51	53
50	17	20	22	24	27
51	4	8	5	6	15
52	20	35	34	33	36
53	2	1	2	3	12
53	3	1	2	3	12
54	9	2	3	4	9
55	2	6	5	4	10
55	3	6	5	4	10
56	17	18	17	27	28
57	14	5	6	15	17
58	17	49	51	53	58
59	15	27	24	25	44
60	15	6	15	17	18
61	16	10	4	3	12
62	17	44	46	58	59
63	17	48	47	46	58
64	17	52	51	53	54
65	16	11	3	2	13
66	2	34	33	32	39
66	3	34	33	32	39
67	12	5	6	15	16
67	13	5	6	15	16
68	17	18	20	22	23
69	17	20	22	24	25
70	6	30	31	32	33
70	7	30	31	32	33
70	8	30	31	32	33
71	4	14	2	1	29
72	15	25	44	46	47
73	16	7	5	4	10
74	17	54	53	58	59
75	16	9	4	3	11
76	15	25	44	46	58
77	15	16	15	17	18
78	9	5	4	3	11
79	2	34	33	32	38
79	3	34	33	32	38
80	15	22	24	25	44
81	17	19	18	20	21
82	16	7	5	4	9
83	18	32	33	34	35
83	19	32	33	34	35
84	16	37	33	32	38
85	9	5	4	3	12
86	9	32	31	30	42
87	9	33	32	31	40
88	16	8	5	4	10
89	16	38	32	31	41
90	17	48	47	49	51
91	17	46	58	53	51
92	16	11	3	2	14
93	17	21	20	22	23
94	17	17	27	24	25
95	17	49	51	53	54
96	17	46	47	49	51
97	15	22	24	25	26
98	9	31	32	33	36
99	9	4	3	2	14
100	16	8	5	4	9
101	16	37	33	32	39
102	17	47	46	58	53
103	1	29	30	31	32
104	1	31	32	33	34
105	17	15	17	18	19
106	15	26	25	44	45
107	17	48	47	49	50
108	17	15	17	27	24
109	1	3	4	5	6
110	15	24	25	44	45
111	2	29	30	31	40
111	3	29	30	31	40
112	17	15	17	18	20
113	16	12	3	2	14
114	15	24	25	44	46
115	17	20	18	17	27
116	9	32	31	30	43
117	16	40	31	30	42
118	17	47	46	58	59
119	9	33	32	31	41
120	17	15	17	27	28
121	15	6	15	17	27
122	4	1	29	30	42
123	15	51	53	54	56
124	17	25	24	27	28
125	6	2	3	4	5
125	7	2	3	4	5
125	8	2	3	4	5
126	9	30	31	32	39
127	16	41	31	30	42
128	17	17	18	20	22
129	15	16	15	17	27
130	1	1	2	3	4
131	4	7	5	6	15
132	17	19	18	20	22
133	17	50	49	51	52
134	4	3	2	1	29
135	15	45	44	46	47
136	22	55	54	56	57
136	23	55	54	56	57
137	2	29	30	31	41
137	3	29	30	31	41
138	15	45	44	46	58
139	17	18	20	22	24

Impropers

7	2	17	27	15	18
9	2	18	17	19	20
30	2	49	50	51	47
32	2	24	25	27	22
37	2	27	28	17	24
47	2	24	27	22	25
54	2	25	26	44	24
66	2	58	53	59	46
67	2	51	49	52	53
97	2	17	15	18	27
100	2	49	47	50	51
101	2	20	21	22	18
109	2	51	53	49	52
116	2	22	20	23	24
132	1	15	17	6	16
136	1	15	16	17	6
137	1	54	53	55	56
140	2	20	18	21	22
143	2	47	46	48	49
146	2	18	20	17	19
147	2	47	49	46	48
151	2	47	48	49	46
157	2	58	46	53	59
158	2	46	58	44	47
163	2	44	25	45	46
164	2	53	58	51	54
170	2	51	52	53	49
177	2	58	59	46	53
183	2	25	24	26	44
184	2	53	51	54	58
185	2	22	23	24	20
195	1	54	56	53	55
198	1	15	6	16	17
211	2	22	24	20	23
213	2	46	44	47	58
215	2	24	22	25	27
220	2	44	46	25	45
222	2	17	18	27	15
232	2	25	44	24	26
233	2	20	22	18	21
238	2	44	45	46	25
239	1	54	55	56	53
240	2	46	47	58	44
244	2	27	17	24	28
246	2	27	24	28	17
251	2	49	51	47	50
252	2	53	54	58	51
284	2	18	19	20	17
