Title

112 atoms
115 bonds
198 angles
293 dihedrals
90 impropers

12 atom types
18 bond types
11 angle types
29 dihedral types
3 improper types
-11.8920002 88.1079998 xlo xhi
-10.95899963 89.04100037 ylo yhi
-6.974999905 93.0250001 zlo zhi
0.0 0.0 0.0 xy xz yz

Masses

1	12.01078
2	15.99943
3	14.00672
4	1.007947
5	12.01078
6	1.007947
7	1.007947
8	15.99943
9	1.007947
10	12.01078
11	15.99943
12	1.007947


Pair Coeffs

1	0.086879315	3.4806469
2	0.2102061	3.0398122
3	0.16769152	3.206876
4	0.015611343	2.5725815
5	0.10884061	3.3795318
6	0.014090815	1.1034277
7	0.015779483	2.6445434
8	0.16846514	3.0251065
9	0.016409246	2.5832257
10	0.21	3.3996695
11	0.20947353	2.99716
12	1.2326e-05	0.53453923

Bond Coeffs

1 harmonic	582.698766451	1.225198386222
2 harmonic	492.76746816345	1.381897776683
3 harmonic	279.1350963404	1.454628925034
4 harmonic	390.03554688505	1.390160554689
5 harmonic	505.144496193	1.019481865027
6 harmonic	360.7852444772	1.387193227181
7 harmonic	397.2545789619	1.085358495916
8 harmonic	289.73813263395	1.498646816465
9 harmonic	370.04670688625	1.093899492634
10 harmonic	301.15400723785	1.345741232799
11 harmonic	366.7408841747	1.425895053732
12 harmonic	264.62148576755	1.52190126495
13 harmonic	300.03137914615	1.451203938761
14 harmonic	366.34047229585	1.464762957261
15 harmonic	382.5450169811	1.379244394267
16 harmonic	602.81384337	1.196112346392
17 harmonic	329.96998057905	1.427343958716
18 harmonic	543.5267831885	0.9716763312559


Angle Coeffs

1 harmonic	55.42182150775	117.3465570514
2 harmonic	63.44422595415	115.5071327674
3 harmonic	57.8982893754	126.8062420451
4 harmonic	34.066775159195	129.1835929926
5 harmonic	53.20531626545	116.5475862634
6 harmonic	65.09061609600001	110.3538806181
7 harmonic	201.41175231035	127.4691416191
8 harmonic	48.776492647595	115.6030999533
9 harmonic	49.015990027215	114.8414599994
10 harmonic	55.07882548015	112.8714009681
11 harmonic	33.56981613361	180


Dihedral Coeffs

1 fourier 1	1.193093382682	2	180
2 fourier 1	1.809047390003	2	180
3 fourier 1	-0.04816277792592	1	0
4 fourier 1	3.101948770557	2	180
5 fourier 1	-0.4252153282372	1	0
6 fourier 1	2.348375642009	2	180
7 fourier 1	1.256156174911	1	0
8 fourier 1	0.9974165607242	2	180
9 fourier 1	3.661930099076	2	180
10 fourier 1	0.02664938770063	3	0
11 fourier 1	2.779853741805	2	180
12 fourier 1	0.1918272375143	3	0
13 fourier 1	0.9202179876409	1	180
14 fourier 1	0.0473758381877	3	0
15 fourier 1	0.4860993122944	2	180
16 fourier 1	0.8916986138746	1	0
17 fourier 1	1.163809172478	2	180
18 fourier 1	0.1679186987369	1	180
19 fourier 1	0.1155372516788	3	0
20 fourier 1	0.1040663847541	3	0
21 fourier 1	0.2810888471023	3	0
22 fourier 1	0.05324557188047	2	180
23 fourier 1	0.457973137376	1	0
24 fourier 1	0.2036670163956	3	0
25 fourier 1	1.550515418264	2	180
26 fourier 1	0	1	0
27 fourier 1	0.3445382149273	3	0
28 fourier 1	0.1364556373303	1	0
29 fourier 1	0.3026390167484	3	0


Improper Coeffs

1 0.3333333333333333	-1	2
2 0.3666666666666667	-1	2
3 3.5	-1	2


Atoms

1	1	1	0.56984699	5.5349998	-0.74699998	1.5319999
2	1	2	-0.61920601	5.362	0.024	2.513
3	1	3	-0.50946498	4.6830001	-0.69	0.382
4	1	1	0.20223799	3.4579999	0.059999999	0.31900001
5	1	1	-0.38341001	3.0510001	0.56800002	-0.85600001
6	1	4	0.213305	3.651	0.43599999	-1.748
7	1	1	-0.146055	1.788	1.33	-0.949
8	1	4	0.211643	1.4859999	1.73	-1.909
9	1	1	-0.248347	1.028	1.518	0.14300001
10	1	5	-0.051707	-0.28	2.257	0.052000001
11	1	1	-0.248347	-1.397	1.299	-0.25999999
12	1	1	-0.146055	-1.729	1.021	-1.5319999
13	1	4	0.211643	-1.214	1.502	-2.355
14	1	1	-0.371075	-2.799	0.046	-1.8279999
15	1	4	0.21330599	-3.056	-0.154	-2.8610001
16	1	1	0.225833	-3.4289999	-0.60000002	-0.833
17	1	3	-0.47191599	-4.474	-1.538	-1.145
18	1	1	0.81614298	-4.776	-2.697	-0.359
19	1	2	-0.55954701	-4.0100002	-3.0810001	0.56300002
20	1	6	0.323495	-5.0029998	-1.419	-2.0380001
21	1	1	-0.371075	-3.0680001	-0.28400001	0.574
22	1	4	0.213305	-3.598	-0.74699998	1.396
23	1	1	-0.146055	-2.105	0.60600001	0.84200001
24	1	4	0.211643	-1.855	0.829	1.872
25	1	7	0.12424	-0.486	2.7709999	1.015
26	1	7	0.12424	-0.223	3.0550001	-0.722
27	1	1	-0.146055	1.45	0.921	1.433
28	1	4	0.211643	0.824	1.028	2.3099999
29	1	1	-0.38341001	2.5940001	0.23100001	1.517
30	1	4	0.21330599	2.862	-0.227	2.4590001
31	1	6	0.31944501	5.0229998	-1.169	-0.48300001
32	1	8	-0.484853	-5.6240001	-3.2539999	-0.57800001
33	1	5	0.103132	-6.5409999	-2.362	-1.153
34	1	5	-0.01275	-7.8629999	-3.086	-1.522
35	1	5	-0.15816	-8.8070002	-2.046	-2.168
36	1	7	0.091700003	-8.342	-1.607	-3.0769999
37	1	7	0.091700003	-9.7720003	-2.506	-2.4690001
38	1	7	0.091700003	-9.0249996	-1.221	-1.456
39	1	5	0.0084189996	-7.5489998	-4.2160001	-2.539
40	1	8	-0.124052	-8.7250004	-4.7940001	-3.039
41	1	9	0.118556	-6.9629998	-3.8010001	-3.391
42	1	9	0.118556	-6.9299998	-5.0029998	-2.0510001
43	1	5	0.06696	-8.5039997	-3.661	-0.22499999
44	1	3	-0.71428698	-9.8149996	-4.3010001	-0.50300002
45	1	5	0.087049	-10.916	-3.5910001	0.17
46	1	9	0.078993998	-10.805	-3.6340001	1.276
47	1	9	0.078993998	-10.939	-2.527	-0.15000001
48	1	9	0.078993998	-11.892	-4.04	-0.116
49	1	5	0.087049	-9.8199997	-5.7179999	-0.103
50	1	9	0.078993998	-9.0200005	-6.2690001	-0.64099997
51	1	9	0.078993998	-10.787	-6.191	-0.37799999
52	1	9	0.078993998	-9.6599998	-5.8249998	0.99299997
53	1	9	0.098830998	-7.79	-4.381	0.23800001
54	1	9	0.098830998	-8.6009998	-2.8399999	0.523
55	1	9	0.109079	-6.7490001	-1.536	-0.435
56	1	9	0.109079	-6.0890002	-1.91	-2.0650001
57	1	1	0.56984699	6.368	-1.437	1.544
58	1	2	-0.61920601	6.388	-2.3900001	0.722
59	1	3	-0.50946498	7.4499998	-1.219	2.46
60	1	1	0.20223799	8.54	-2.135	2.668
61	1	1	-0.38341001	8.3599997	-3.4690001	2.635
62	1	4	0.213305	7.3829999	-3.8970001	2.4590001
63	1	1	-0.146055	9.4940004	-4.382	2.888
64	1	4	0.211643	9.323	-5.4510002	2.859
65	1	1	-0.248347	10.715	-3.8900001	3.1589999
66	1	5	-0.051707	11.866	-4.8099999	3.46
67	1	1	-0.26306099	11.912	-5.1230001	4.9310002
68	1	1	-0.190879	12.587	-4.3309999	5.7820001
69	1	4	0.197568	13.132	-3.4679999	5.4190001
70	1	1	-0.26431599	12.591	-4.6220002	7.23
71	1	4	0.205552	13.153	-3.9690001	7.8860002
72	1	1	0.439365	11.905	-5.6789999	7.7150002
73	1	3	-0.36201501	11.875	-6.0050001	9.1140003
74	1	10	0.61428398	12.482	-5.3439999	10.018
75	1	2	-0.32529899	13.072	-4.7020001	10.897
76	1	1	-0.26431599	11.15	-6.539	6.777
77	1	4	0.205552	10.59	-7.3850002	7.1550002
78	1	1	-0.190879	11.15	-6.277	5.4640002
79	1	4	0.197568	10.588	-6.9130001	4.7919998
80	1	7	0.12424	11.77	-5.7529998	2.8770001
81	1	7	0.12424	12.821	-4.3400002	3.1359999
82	1	1	-0.146055	10.906	-2.4219999	3.233
83	1	4	0.211643	11.878	-2.0120001	3.4760001
84	1	1	-0.38341001	9.8789997	-1.595	3.0039999
85	1	4	0.21330599	10.03	-0.52499998	3.0610001
86	1	6	0.31944501	7.4949999	-0.287	2.9289999
87	1	8	-0.123583	-8.4379997	-5.5139999	-3.658
88	1	5	0.018395999	-8.8330002	-6.7220001	-3.0639999
89	1	5	-0.046712998	-8.4309998	-7.9330001	-3.9460001
90	1	5	-0.151013	-8.9200001	-9.2180004	-3.237
91	1	7	0.091505997	-10.022	-9.1920004	-3.098
92	1	7	0.091505997	-8.6730003	-10.125	-3.8269999
93	1	7	0.091505997	-8.4449997	-9.3170004	-2.237
94	1	5	0.072251998	-9.125	-7.7989998	-5.329
95	1	11	-0.66663003	-8.9350004	-8.9490004	-6.1090002
96	1	12	0.39964899	-9.3859997	-8.7729998	-6.9749999
97	1	9	0.105786	-10.217	-7.638	-5.1849999
98	1	9	0.105786	-8.7180004	-6.915	-5.8709998
99	1	5	0.077803001	-6.881	-7.9580002	-4.0960002
100	1	3	-0.71453899	-6.428	-9.1429996	-4.868
101	1	5	0.087049	-5.6079998	-10.045	-4.0430002
102	1	9	0.078993998	-4.6719999	-9.5439997	-3.71
103	1	9	0.078993998	-6.1799998	-10.373	-3.148
104	1	9	0.078993998	-5.3470001	-10.959	-4.618
105	1	5	0.087049	-5.6750002	-8.7480001	-6.0700002
106	1	9	0.078993998	-6.3049998	-8.1029997	-6.7199998
107	1	9	0.078993998	-5.402	-9.6459999	-6.664
108	1	9	0.078993998	-4.7490001	-8.1929998	-5.7989998
109	1	9	0.098751001	-6.5539999	-7.0079999	-4.5780001
110	1	9	0.098751001	-6.4219999	-7.9330001	-3.0799999
111	1	9	0.118648	-8.3570004	-6.8099999	-2.0599999
112	1	9	0.118648	-9.9370003	-6.7119999	-2.914

Bonds

1	1	1	2
2	2	1	3
3	3	1	57
4	4	3	4
5	5	3	31
6	6	4	5
7	6	4	29
8	7	5	6
9	6	5	7
10	7	7	8
11	6	7	9
12	8	9	10
13	6	9	27
14	8	10	11
15	9	10	25
16	9	10	26
17	6	11	12
18	6	11	23
19	7	12	13
20	6	12	14
21	7	14	15
22	6	14	16
23	4	16	17
24	6	16	21
25	2	17	18
26	5	17	20
27	1	18	19
28	10	18	32
29	7	21	22
30	6	21	23
31	7	23	24
32	7	27	28
33	6	27	29
34	7	29	30
35	11	32	33
36	12	33	34
37	9	33	55
38	9	33	56
39	12	34	35
40	12	34	39
41	12	34	43
42	9	35	36
43	9	35	37
44	9	35	38
45	11	39	40
46	9	39	41
47	9	39	42
48	13	40	87
49	14	43	44
50	9	43	53
51	9	43	54
52	14	44	45
53	14	44	49
54	9	45	46
55	9	45	47
56	9	45	48
57	9	49	50
58	9	49	51
59	9	49	52
60	1	57	58
61	2	57	59
62	4	59	60
63	5	59	86
64	6	60	61
65	6	60	84
66	7	61	62
67	6	61	63
68	7	63	64
69	6	63	65
70	8	65	66
71	6	65	82
72	8	66	67
73	9	66	80
74	9	66	81
75	6	67	68
76	6	67	78
77	7	68	69
78	6	68	70
79	7	70	71
80	6	70	72
81	15	72	73
82	6	72	76
83	16	73	74
84	1	74	75
85	7	76	77
86	6	76	78
87	7	78	79
88	7	82	83
89	6	82	84
90	7	84	85
91	11	87	88
92	12	88	89
93	9	88	111
94	9	88	112
95	12	89	90
96	12	89	94
97	12	89	99
98	9	90	91
99	9	90	92
100	9	90	93
101	17	94	95
102	9	94	97
103	9	94	98
104	18	95	96
105	14	99	100
106	9	99	109
107	9	99	110
108	14	100	101
109	14	100	105
110	9	101	102
111	9	101	103
112	9	101	104
113	9	105	106
114	9	105	107
115	9	105	108

Angles

1	3	3	4	5
2	11	73	74	75
3	8	106	105	107
4	5	100	101	103
5	5	35	34	43
6	4	12	14	15
7	3	11	12	14
8	5	34	43	44
9	8	47	45	48
10	3	4	29	27
11	5	9	10	26
12	4	69	68	70
13	4	4	29	30
14	3	66	65	82
15	4	76	78	79
16	5	44	49	52
17	5	32	33	55
18	3	11	23	21
19	4	67	78	79
20	4	62	61	63
21	8	109	99	110
22	4	4	5	6
23	3	7	9	10
24	3	17	18	19
25	5	35	34	39
26	5	65	66	81
27	5	100	99	110
28	2	60	59	86
29	4	72	76	77
30	5	100	101	104
31	5	44	43	54
32	3	60	84	82
33	5	40	39	41
34	8	91	90	92
35	9	101	100	105
36	5	34	35	37
37	5	89	90	91
38	5	32	33	56
39	2	1	3	31
40	3	59	60	84
41	3	72	76	78
42	5	88	89	94
43	3	67	78	76
44	5	89	99	100
45	3	63	65	66
46	4	5	7	8
47	8	102	101	103
48	5	95	94	98
49	8	103	101	104
50	5	34	35	38
51	6	39	40	87
52	4	13	12	14
53	1	1	3	4
54	3	16	21	23
55	3	68	67	78
56	5	100	105	106
57	5	88	89	90
58	5	34	43	53
59	6	40	87	88
60	5	87	88	112
61	3	68	70	72
62	4	8	7	9
63	3	66	67	68
64	2	16	17	20
65	2	57	59	86
66	4	9	27	28
67	3	10	11	23
68	3	3	4	29
69	3	61	63	65
70	5	34	33	56
71	5	44	45	47
72	4	15	14	16
73	9	99	100	101
74	8	102	101	104
75	5	65	66	67
76	8	106	105	108
77	5	9	10	11
78	9	45	44	49
79	8	36	35	37
80	3	12	14	16
81	5	33	34	43
82	5	34	39	40
83	5	89	88	111
84	3	7	9	27
85	3	61	60	84
86	3	14	16	17
87	6	94	95	96
88	5	44	45	48
89	4	67	68	69
90	3	63	65	82
91	3	17	18	32
92	3	4	5	7
93	5	90	89	94
94	3	70	72	76
95	3	2	1	57
96	5	33	34	39
97	4	27	29	30
98	5	87	88	89
99	5	89	99	109
100	1	57	59	60
101	8	36	35	38
102	8	50	49	51
103	8	51	49	52
104	5	40	39	42
105	8	91	90	93
106	5	89	94	97
107	5	89	88	112
108	5	33	34	35
109	4	83	82	84
110	5	88	89	99
111	3	2	1	3
112	5	89	90	92
113	2	18	17	20
114	9	99	100	105
115	5	39	34	43
116	4	64	63	65
117	4	28	27	29
118	8	46	45	47
119	1	16	17	18
120	5	89	99	110
121	5	44	49	50
122	3	1	57	58
123	8	55	33	56
124	8	50	49	52
125	3	10	11	12
126	5	67	66	80
127	3	5	7	9
128	8	41	39	42
129	5	89	94	98
130	3	5	4	29
131	6	18	32	33
132	3	14	16	21
133	3	10	9	27
134	4	22	21	23
135	5	100	105	107
136	5	11	10	25
137	5	100	101	102
138	5	34	43	54
139	3	66	67	78
140	3	3	1	57
141	3	73	72	76
142	2	4	3	31
143	4	21	23	24
144	4	11	12	13
145	8	46	45	48
146	4	60	61	62
147	4	82	84	85
148	8	37	35	38
149	8	107	105	108
150	8	92	90	93
151	4	60	84	85
152	5	67	66	81
153	5	32	33	34
154	4	71	70	72
155	5	65	66	80
156	5	100	99	109
157	5	100	105	108
158	5	11	10	26
159	4	65	82	83
160	5	44	43	53
161	5	90	89	99
162	8	53	43	54
163	9	43	44	49
164	5	34	39	41
165	5	89	94	95
166	3	60	61	63
167	5	34	35	36
168	3	67	68	70
169	4	6	5	7
170	8	25	10	26
171	9	43	44	45
172	10	72	73	74
173	3	9	27	29
174	3	17	16	21
175	3	65	82	84
176	8	97	94	98
177	3	70	72	73
178	5	34	39	42
179	5	95	94	97
180	5	94	89	99
181	5	89	90	93
182	4	11	23	24
183	8	111	88	112
184	4	16	21	22
185	5	87	88	111
186	4	68	70	71
187	3	58	57	59
188	5	9	10	25
189	7	19	18	32
190	4	77	76	78
191	3	12	11	23
192	3	1	57	59
193	5	44	49	51
194	3	59	60	61
195	4	61	63	64
196	5	34	33	55
197	5	44	45	46
198	8	80	66	81

Dihedrals

1	8	3	1	57	58
2	9	6	5	7	8
3	9	10	9	27	28
4	24	45	44	49	52
5	2	1	57	59	86
5	3	1	57	59	86
6	19	87	88	89	99
7	20	35	34	43	54
8	19	88	89	99	100
9	9	66	67	68	70
10	10	25	10	9	27
11	15	19	18	17	20
11	16	19	18	17	20
12	20	37	35	34	43
13	9	60	61	63	65
14	1	20	17	16	21
15	9	71	70	72	76
16	9	5	7	9	27
17	2	16	17	18	19
17	3	16	17	18	19
18	9	66	67	78	79
19	9	7	5	4	29
20	20	39	34	33	56
21	9	6	5	4	29
22	11	17	18	32	33
23	24	45	44	43	54
24	9	6	5	7	9
25	9	9	27	29	30
26	24	43	44	49	50
27	24	49	44	43	53
28	9	59	60	84	85
29	9	70	72	76	78
30	9	12	11	23	24
31	24	101	100	99	109
32	10	78	67	66	80
33	24	103	101	100	105
34	9	14	12	11	23
35	20	35	34	39	41
36	9	64	63	65	82
37	27	89	94	95	96
37	28	89	94	95	96
38	20	90	89	88	112
39	1	29	4	3	31
40	20	43	34	33	56
41	9	61	63	65	66
42	6	58	57	59	86
42	7	58	57	59	86
43	9	62	61	63	65
44	10	80	66	65	82
45	9	69	68	67	78
46	9	60	84	82	83
47	2	1	57	59	60
47	3	1	57	59	60
48	20	33	34	35	38
49	2	31	3	1	57
49	3	31	3	1	57
50	14	40	87	88	111
51	24	43	44	49	51
52	9	13	12	11	23
53	20	88	89	90	91
54	1	1	3	4	5
55	9	13	12	14	15
56	24	43	44	45	46
57	24	48	45	44	49
58	19	32	33	34	39
59	20	33	34	43	53
60	10	63	65	66	81
61	14	18	32	33	55
62	9	69	68	70	72
63	25	70	72	73	74
64	9	71	70	72	73
65	20	90	89	99	110
66	9	66	67	78	76
67	10	78	67	66	81
68	9	22	21	23	24
69	20	94	89	99	109
70	1	5	4	3	31
71	20	35	34	39	42
72	10	11	10	9	27
73	9	3	4	5	7
74	9	67	68	70	71
75	9	60	84	82	65
76	19	95	94	89	99
77	10	7	9	10	25
78	9	59	60	84	82
79	20	88	89	99	109
80	25	74	73	72	76
81	9	16	21	23	24
82	19	39	34	43	44
83	9	66	65	82	83
84	8	2	1	57	58
85	9	11	12	14	16
86	9	12	11	23	21
87	19	32	33	34	35
88	9	67	78	76	77
89	14	34	39	40	87
90	9	14	16	21	22
91	20	88	89	94	97
92	14	40	87	88	112
93	29	96	95	94	98
94	20	88	89	90	92
95	9	13	12	14	16
96	9	77	76	78	79
97	9	10	11	12	14
98	20	33	34	43	54
99	20	35	34	33	55
100	14	18	32	33	56
101	24	46	45	44	49
102	20	94	89	99	110
103	24	101	100	105	108
104	19	33	34	39	40
105	9	10	11	23	21
106	8	3	1	57	59
107	9	7	9	27	28
108	9	17	16	21	22
109	10	7	9	10	26
110	10	26	10	9	27
111	20	41	39	34	43
112	24	99	100	101	104
113	24	47	45	44	49
114	9	11	23	21	22
115	14	42	39	40	87
116	24	104	101	100	105
117	19	35	34	43	44
118	9	14	16	21	23
119	20	99	89	88	111
120	9	5	4	29	27
121	9	61	60	84	85
122	9	5	4	29	30
123	1	18	17	16	21
124	19	90	89	94	95
125	19	32	33	34	43
126	20	35	34	33	56
127	2	4	3	1	57
127	3	4	3	1	57
128	9	70	68	67	78
129	24	99	100	105	106
130	20	33	34	39	41
131	9	8	7	9	10
132	1	14	16	17	18
133	20	94	89	88	111
134	21	34	43	44	49
134	22	34	43	44	49
135	24	49	44	43	54
136	10	23	11	10	25
137	9	4	29	27	9
138	24	101	100	99	110
139	9	68	70	72	76
140	10	63	65	66	67
141	14	40	87	88	89
142	9	68	67	78	79
143	20	93	90	89	94
144	9	12	14	16	21
145	20	39	34	43	53
146	20	98	94	89	99
147	21	34	43	44	45
147	22	34	43	44	45
148	9	4	5	7	8
149	9	10	9	27	29
150	24	45	44	49	50
151	20	92	90	89	94
152	9	63	61	60	84
153	24	102	101	100	105
154	10	68	67	66	80
155	1	57	59	60	84
156	1	61	60	59	86
157	24	99	100	105	107
158	10	65	66	67	78
159	1	1	3	4	29
160	9	83	82	84	85
161	20	94	89	88	112
162	9	61	60	84	82
163	10	9	10	11	23
164	19	40	39	34	43
165	9	12	14	16	17
166	24	43	44	49	52
167	1	57	59	60	61
168	24	43	44	45	47
169	24	105	100	99	109
170	20	90	89	94	98
171	20	91	90	89	94
172	19	90	89	99	100
173	17	19	18	32	33
173	18	19	18	32	33
174	10	81	66	65	82
175	20	39	34	43	54
176	4	58	57	59	60
176	5	58	57	59	60
177	9	61	63	65	82
178	9	67	68	70	72
179	9	7	9	27	29
180	24	45	44	49	51
181	20	88	89	99	110
182	9	66	65	82	84
183	10	12	11	10	25
184	8	2	1	57	59
185	9	73	72	76	77
186	20	35	34	43	53
187	10	67	66	65	82
188	6	2	1	3	31
188	7	2	1	3	31
189	9	66	67	68	69
190	20	88	89	94	98
191	20	97	94	89	99
192	20	88	89	90	93
193	23	39	40	87	88
194	9	60	61	63	64
195	2	16	17	18	32
195	3	16	17	18	32
196	20	42	39	34	43
197	10	7	9	10	11
198	9	15	14	16	17
199	21	89	99	100	105
199	22	89	99	100	105
200	9	11	23	21	16
201	20	39	34	33	55
202	9	65	82	84	85
203	9	17	16	21	23
204	20	33	34	35	36
205	9	5	7	9	10
206	9	72	76	78	79
207	4	2	1	3	4
207	5	2	1	3	4
208	10	12	11	10	26
209	20	38	35	34	39
210	9	70	72	76	77
211	9	73	72	76	78
212	9	28	27	29	30
213	19	87	88	89	90
214	20	99	89	88	112
215	21	89	99	100	101
215	22	89	99	100	101
216	20	36	35	34	43
217	19	35	34	39	40
218	9	62	61	60	84
219	20	90	89	88	111
220	9	8	7	9	27
221	14	41	39	40	87
222	20	43	34	33	55
223	9	62	61	63	64
224	20	93	90	89	99
225	20	33	34	39	42
226	20	33	34	35	37
227	20	36	35	34	39
228	20	37	35	34	39
229	19	88	89	94	95
230	10	23	11	10	26
231	20	92	90	89	99
232	9	3	4	29	27
233	9	69	68	70	71
234	10	9	10	11	12
235	9	3	4	29	30
236	10	63	65	66	80
237	20	90	89	99	109
238	9	59	60	61	62
239	24	101	100	105	106
240	9	63	65	82	83
241	9	3	4	5	6
242	12	18	32	33	34
242	13	18	32	33	34
243	9	4	5	7	9
244	20	90	89	94	97
245	24	99	100	101	102
246	9	11	12	14	15
247	26	72	73	74	75
248	10	68	67	66	81
249	9	15	14	16	21
250	9	68	70	72	73
251	1	84	60	59	86
252	9	4	29	27	28
253	20	91	90	89	99
254	24	99	100	105	108
255	9	68	67	78	76
256	9	10	11	23	24
257	1	14	16	17	20
258	2	20	17	18	32
258	3	20	17	18	32
259	10	65	66	67	68
260	29	96	95	94	97
261	9	64	63	65	66
262	20	38	35	34	43
263	24	43	44	45	48
264	9	10	11	12	13
265	9	67	78	76	72
266	9	59	60	61	63
267	24	105	100	99	110
268	19	87	88	89	94
269	19	33	34	43	44
270	24	101	100	105	107
271	24	99	100	101	103
272	19	94	89	99	100
273	9	63	65	82	84
274	24	45	44	43	53

Impropers

10	2	57	59	1	58
12	2	61	60	62	63
14	2	7	8	9	5
24	3	18	19	32	17
26	2	70	72	68	71
39	2	11	23	10	12
72	2	60	59	61	84
74	2	16	17	21	14
78	1	59	60	86	57
80	2	76	77	78	72
87	2	60	61	84	59
96	1	3	31	1	4
106	2	4	3	5	29
107	2	68	67	69	70
109	2	9	27	7	10
111	2	21	16	22	23
115	2	9	7	10	27
119	1	17	18	20	16
123	2	84	85	60	82
128	1	3	4	31	1
137	2	1	3	57	2
151	2	72	76	70	73
161	2	27	29	9	28
162	1	59	57	60	86
172	2	78	79	67	76
177	2	21	22	23	16
193	2	84	82	85	60
203	2	7	9	5	8
204	2	12	13	14	11
211	2	65	82	63	66
212	2	65	63	66	82
216	2	29	30	4	27
223	2	1	57	2	3
235	2	12	14	11	13
236	2	5	7	4	6
247	2	11	12	23	10
250	2	84	60	82	85
252	2	63	65	61	64
253	3	18	17	19	32
257	2	23	24	11	21
262	2	78	67	76	79
275	2	14	16	12	15
282	2	67	78	66	68
283	2	57	58	59	1
286	2	78	76	79	67
298	1	3	1	4	31
302	2	1	2	3	57
307	2	57	1	58	59
308	2	70	68	71	72
315	2	76	72	77	78
318	2	82	83	84	65
323	1	59	86	57	60
325	2	68	70	67	69
329	1	17	20	16	18
346	2	12	11	13	14
347	2	4	29	3	5
353	2	82	84	65	83
363	2	16	21	14	17
368	2	14	12	15	16
372	2	4	5	29	3
381	3	18	32	17	19
393	2	14	15	16	12
398	2	72	70	73	76
418	2	9	10	27	7
420	2	72	73	76	70
430	2	67	66	68	78
432	2	61	63	60	62
434	2	29	27	30	4
463	2	65	66	82	63
465	2	23	21	24	11
469	2	70	71	72	68
481	2	16	14	17	21
482	2	67	68	78	66
485	2	63	61	64	65
494	2	82	65	83	84
499	2	5	4	6	7
502	1	17	16	18	20
508	2	60	84	59	61
509	2	27	9	28	29
517	2	7	5	8	9
521	2	11	10	12	23
522	2	76	78	72	77
525	2	5	6	7	4
528	2	63	64	65	61
537	2	27	28	29	9
551	2	29	4	27	30
556	2	23	11	21	24
558	2	21	23	16	22
559	2	61	62	63	60
565	2	68	69	70	67
