Title

112 atoms
115 bonds
198 angles
293 dihedrals
90 impropers

12 atom types
18 bond types
11 angle types
29 dihedral types
3 improper types
-11.8920002 88.1079998 xlo xhi
-10.95899963 89.04100037 ylo yhi
-6.974999905 93.0250001 zlo zhi
0.0 0.0 0.0 xy xz yz

Masses

1	12.01078
2	15.99943
3	14.00672
4	1.007947
5	12.01078
6	1.007947
7	1.007947
8	15.99943
9	1.007947
10	12.01078
11	15.99943
12	1.007947


Pair Coeffs

1	0.086879315	3.4806469
2	0.2102061	3.0398122
3	0.16769152	3.206876
4	0.015611343	2.5725815
5	0.10884061	3.3795318
6	0.014090815	1.1034277
7	0.015779483	2.6445434
8	0.16846514	3.0251065
9	0.016409246	2.5832257
10	0.21	3.3996695
11	0.20947353	2.99716
12	1.2326e-05	0.53453923

Bond Coeffs

1 harmonic	582.698766451	1.225198386222
2 harmonic	492.76746816345	1.381897776683
3 harmonic	279.1350963404	1.454628925034
4 harmonic	390.03554688505	1.390160554689
5 harmonic	505.144496193	1.019481865027
6 harmonic	360.7852444772	1.387193227181
7 harmonic	397.2545789619	1.085358495916
8 harmonic	289.73813263395	1.498646816465
9 harmonic	370.04670688625	1.093899492634
10 harmonic	301.15400723785	1.345741232799
11 harmonic	366.7408841747	1.425895053732
12 harmonic	264.62148576755	1.52190126495
13 harmonic	300.03137914615	1.451203938761
14 harmonic	366.34047229585	1.464762957261
15 harmonic	382.5450169811	1.379244394267
16 harmonic	602.81384337	1.196112346392
17 harmonic	329.96998057905	1.427343958716
18 harmonic	543.5267831885	0.9716763312559


Angle Coeffs

1 harmonic	55.42182150775	117.3465570514
2 harmonic	63.44422595415	115.5071327674
3 harmonic	57.8982893754	126.8062420451
4 harmonic	34.066775159195	129.1835929926
5 harmonic	53.20531626545	116.5475862634
6 harmonic	65.09061609600001	110.3538806181
7 harmonic	201.41175231035	127.4691416191
8 harmonic	48.776492647595	115.6030999533
9 harmonic	49.015990027215	114.8414599994
10 harmonic	55.07882548015	112.8714009681
11 harmonic	33.56981613361	180


Dihedral Coeffs

1 fourier 1	1.193093382682	2	180
2 fourier 1	1.809047390003	2	180
3 fourier 1	-0.04816277792592	1	0
4 fourier 1	3.101948770557	2	180
5 fourier 1	-0.4252153282372	1	0
6 fourier 1	2.348375642009	2	180
7 fourier 1	1.256156174911	1	0
8 fourier 1	0.9974165607242	2	180
9 fourier 1	3.661930099076	2	180
10 fourier 1	0.02664938770063	3	0
11 fourier 1	2.779853741805	2	180
12 fourier 1	0.1918272375143	3	0
13 fourier 1	0.9202179876409	1	180
14 fourier 1	0.0473758381877	3	0
15 fourier 1	0.4860993122944	2	180
16 fourier 1	0.8916986138746	1	0
17 fourier 1	1.163809172478	2	180
18 fourier 1	0.1679186987369	1	180
19 fourier 1	0.1155372516788	3	0
20 fourier 1	0.1040663847541	3	0
21 fourier 1	0.2810888471023	3	0
22 fourier 1	0.05324557188047	2	180
23 fourier 1	0.457973137376	1	0
24 fourier 1	0.2036670163956	3	0
25 fourier 1	1.550515418264	2	180
26 fourier 1	0	1	0
27 fourier 1	0.3445382149273	3	0
28 fourier 1	0.1364556373303	1	0
29 fourier 1	0.3026390167484	3	0


Improper Coeffs

1 0.3333333333333333	-1	2
2 0.3666666666666667	-1	2
3 3.5	-1	2


Atoms

1	1	1	0.56984699	5.5349998	-0.74699998	1.5319999
2	1	2	-0.61920601	5.362	0.024	2.513
3	1	3	-0.50946498	4.6830001	-0.69	0.382
4	1	1	0.20223799	3.4579999	0.059999999	0.31900001
5	1	1	-0.38341001	3.0510001	0.56800002	-0.85600001
6	1	4	0.213305	3.651	0.43599999	-1.748
7	1	1	-0.146055	1.788	1.33	-0.949
8	1	4	0.211643	1.4859999	1.73	-1.909
9	1	1	-0.248347	1.028	1.518	0.14300001
10	1	5	-0.051707	-0.28	2.257	0.052000001
11	1	1	-0.248347	-1.397	1.299	-0.25999999
12	1	1	-0.146055	-1.729	1.021	-1.5319999
13	1	4	0.211643	-1.214	1.502	-2.355
14	1	1	-0.371075	-2.799	0.046	-1.8279999
15	1	4	0.21330599	-3.056	-0.154	-2.8610001
16	1	1	0.225833	-3.4289999	-0.60000002	-0.833
17	1	3	-0.47191599	-4.474	-1.538	-1.145
18	1	1	0.81614298	-4.776	-2.697	-0.359
19	1	2	-0.55954701	-4.0100002	-3.0810001	0.56300002
20	1	6	0.323495	-5.0029998	-1.419	-2.0380001
21	1	1	-0.371075	-3.0680001	-0.28400001	0.574
22	1	4	0.213305	-3.598	-0.74699998	1.396
23	1	1	-0.146055	-2.105	0.60600001	0.84200001
24	1	4	0.211643	-1.855	0.829	1.872
25	1	7	0.12424	-0.486	2.7709999	1.015
26	1	7	0.12424	-0.223	3.0550001	-0.722
27	1	1	-0.146055	1.45	0.921	1.433
28	1	4	0.211643	0.824	1.028	2.3099999
29	1	1	-0.38341001	2.5940001	0.23100001	1.517
30	1	4	0.21330599	2.862	-0.227	2.4590001
31	1	6	0.31944501	5.0229998	-1.169	-0.48300001
32	1	8	-0.484853	-5.6240001	-3.2539999	-0.57800001
33	1	5	0.103132	-6.5409999	-2.362	-1.153
34	1	5	-0.01275	-7.8629999	-3.086	-1.522
35	1	5	-0.15816	-8.8070002	-2.046	-2.168
36	1	7	0.091700003	-8.342	-1.607	-3.0769999
37	1	7	0.091700003	-9.7720003	-2.506	-2.4690001
38	1	7	0.091700003	-9.0249996	-1.221	-1.456
39	1	5	0.0084189996	-7.5489998	-4.2160001	-2.539
40	1	8	-0.124052	-8.7250004	-4.7940001	-3.039
41	1	9	0.118556	-6.9629998	-3.8010001	-3.391
42	1	9	0.118556	-6.9299998	-5.0029998	-2.0510001
43	1	5	0.06696	-8.5039997	-3.661	-0.22499999
44	1	3	-0.71428698	-9.8149996	-4.3010001	-0.50300002
45	1	5	0.087049	-10.916	-3.5910001	0.17
46	1	9	0.078993998	-10.805	-3.6340001	1.276
47	1	9	0.078993998	-10.939	-2.527	-0.15000001
48	1	9	0.078993998	-11.892	-4.04	-0.116
49	1	5	0.087049	-9.8199997	-5.7179999	-0.103
50	1	9	0.078993998	-9.0200005	-6.2690001	-0.64099997
51	1	9	0.078993998	-10.787	-6.191	-0.37799999
52	1	9	0.078993998	-9.6599998	-5.8249998	0.99299997
53	1	9	0.098830998	-7.79	-4.381	0.23800001
54	1	9	0.098830998	-8.6009998	-2.8399999	0.523
55	1	9	0.109079	-6.7490001	-1.536	-0.435
56	1	9	0.109079	-6.0890002	-1.91	-2.0650001
57	1	1	0.56984699	6.368	-1.437	1.544
58	1	2	-0.61920601	6.388	-2.3900001	0.722
59	1	3	-0.50946498	7.4499998	-1.219	2.46
60	1	1	0.20223799	8.54	-2.135	2.668
61	1	1	-0.38341001	8.3599997	-3.4690001	2.635
62	1	4	0.213305	7.3829999	-3.8970001	2.4590001
63	1	1	-0.146055	9.4940004	-4.382	2.888
64	1	4	0.211643	9.323	-5.4510002	2.859
65	1	1	-0.248347	10.715	-3.8900001	3.1589999
66	1	5	-0.051707	11.866	-4.8099999	3.46
67	1	1	-0.26306099	11.912	-5.1230001	4.9310002
68	1	1	-0.190879	12.587	-4.3309999	5.7820001
69	1	4	0.197568	13.132	-3.4679999	5.4190001
70	1	1	-0.26431599	12.591	-4.6220002	7.23
71	1	4	0.205552	13.153	-3.9690001	7.8860002
72	1	1	0.439365	11.905	-5.6789999	7.7150002
73	1	3	-0.36201501	11.875	-6.0050001	9.1140003
74	1	10	0.61428398	12.482	-5.3439999	10.018
75	1	2	-0.32529899	13.072	-4.7020001	10.897
76	1	1	-0.26431599	11.15	-6.539	6.777
77	1	4	0.205552	10.59	-7.3850002	7.1550002
78	1	1	-0.190879	11.15	-6.277	5.4640002
79	1	4	0.197568	10.588	-6.9130001	4.7919998
80	1	7	0.12424	11.77	-5.7529998	2.8770001
81	1	7	0.12424	12.821	-4.3400002	3.1359999
82	1	1	-0.146055	10.906	-2.4219999	3.233
83	1	4	0.211643	11.878	-2.0120001	3.4760001
84	1	1	-0.38341001	9.8789997	-1.595	3.0039999
85	1	4	0.21330599	10.03	-0.52499998	3.0610001
86	1	6	0.31944501	7.4949999	-0.287	2.9289999
87	1	8	-0.123583	-8.4379997	-5.5139999	-3.658
88	1	5	0.018395999	-8.8330002	-6.7220001	-3.0639999
89	1	5	-0.046712998	-8.4309998	-7.9330001	-3.9460001
90	1	5	-0.151013	-8.9200001	-9.2180004	-3.237
91	1	7	0.091505997	-10.022	-9.1920004	-3.098
92	1	7	0.091505997	-8.6730003	-10.125	-3.8269999
93	1	7	0.091505997	-8.4449997	-9.3170004	-2.237
94	1	5	0.072251998	-9.125	-7.7989998	-5.329
95	1	11	-0.66663003	-8.9350004	-8.9490004	-6.1090002
96	1	12	0.39964899	-9.3859997	-8.7729998	-6.9749999
97	1	9	0.105786	-10.217	-7.638	-5.1849999
98	1	9	0.105786	-8.7180004	-6.915	-5.8709998
99	1	5	0.077803001	-6.881	-7.9580002	-4.0960002
100	1	3	-0.71453899	-6.428	-9.1429996	-4.868
101	1	5	0.087049	-5.6079998	-10.045	-4.0430002
102	1	9	0.078993998	-4.6719999	-9.5439997	-3.71
103	1	9	0.078993998	-6.1799998	-10.373	-3.148
104	1	9	0.078993998	-5.3470001	-10.959	-4.618
105	1	5	0.087049	-5.6750002	-8.7480001	-6.0700002
106	1	9	0.078993998	-6.3049998	-8.1029997	-6.7199998
107	1	9	0.078993998	-5.402	-9.6459999	-6.664
108	1	9	0.078993998	-4.7490001	-8.1929998	-5.7989998
109	1	9	0.098751001	-6.5539999	-7.0079999	-4.5780001
110	1	9	0.098751001	-6.4219999	-7.9330001	-3.0799999
111	1	9	0.118648	-8.3570004	-6.8099999	-2.0599999
112	1	9	0.118648	-9.9370003	-6.7119999	-2.914

Bonds

1	1	1	2
2	2	1	3
3	3	1	57
4	4	3	4
5	5	3	31
6	6	4	5
7	6	4	29
8	7	5	6
9	6	5	7
10	7	7	8
11	6	7	9
12	8	9	10
13	6	9	27
14	8	10	11
15	9	10	25
16	9	10	26
17	6	11	12
18	6	11	23
19	7	12	13
20	6	12	14
21	7	14	15
22	6	14	16
23	4	16	17
24	6	16	21
25	2	17	18
26	5	17	20
27	1	18	19
28	10	18	32
29	7	21	22
30	6	21	23
31	7	23	24
32	7	27	28
33	6	27	29
34	7	29	30
35	11	32	33
36	12	33	34
37	9	33	55
38	9	33	56
39	12	34	35
40	12	34	39
41	12	34	43
42	9	35	36
43	9	35	37
44	9	35	38
45	11	39	40
46	9	39	41
47	9	39	42
48	13	40	87
49	14	43	44
50	9	43	53
51	9	43	54
52	14	44	45
53	14	44	49
54	9	45	46
55	9	45	47
56	9	45	48
57	9	49	50
58	9	49	51
59	9	49	52
60	1	57	58
61	2	57	59
62	4	59	60
63	5	59	86
64	6	60	61
65	6	60	84
66	7	61	62
67	6	61	63
68	7	63	64
69	6	63	65
70	8	65	66
71	6	65	82
72	8	66	67
73	9	66	80
74	9	66	81
75	6	67	68
76	6	67	78
77	7	68	69
78	6	68	70
79	7	70	71
80	6	70	72
81	15	72	73
82	6	72	76
83	16	73	74
84	1	74	75
85	7	76	77
86	6	76	78
87	7	78	79
88	7	82	83
89	6	82	84
90	7	84	85
91	11	87	88
92	12	88	89
93	9	88	111
94	9	88	112
95	12	89	90
96	12	89	94
97	12	89	99
98	9	90	91
99	9	90	92
100	9	90	93
101	17	94	95
102	9	94	97
103	9	94	98
104	18	95	96
105	14	99	100
106	9	99	109
107	9	99	110
108	14	100	101
109	14	100	105
110	9	101	102
111	9	101	103
112	9	101	104
113	9	105	106
114	9	105	107
115	9	105	108

Angles

1	5	34	35	38
2	5	33	34	35
3	5	44	43	54
4	6	40	87	88
5	2	4	3	31
6	2	57	59	86
7	4	67	68	69
8	3	17	18	32
9	5	89	94	98
10	3	7	9	27
11	5	89	90	93
12	5	88	89	94
13	3	60	61	63
14	8	46	45	47
15	5	67	66	80
16	5	9	10	25
17	3	14	16	21
18	4	62	61	63
19	5	44	45	46
20	8	102	101	103
21	5	32	33	34
22	3	3	4	5
23	8	103	101	104
24	4	15	14	16
25	3	72	76	78
26	5	34	39	40
27	5	88	89	90
28	8	107	105	108
29	5	11	10	25
30	5	33	34	43
31	4	4	29	30
32	4	5	7	8
33	5	35	34	43
34	6	39	40	87
35	3	67	68	70
36	8	50	49	51
37	3	68	67	78
38	3	65	82	84
39	3	12	14	16
40	5	89	88	111
41	4	27	29	30
42	5	32	33	55
43	5	9	10	26
44	8	46	45	48
45	2	16	17	20
46	2	60	59	86
47	5	100	99	110
48	8	106	105	107
49	5	33	34	39
50	3	58	57	59
51	3	68	70	72
52	4	22	21	23
53	8	37	35	38
54	8	91	90	92
55	8	102	101	104
56	5	35	34	39
57	5	34	43	53
58	5	89	94	95
59	4	21	23	24
60	5	34	39	41
61	3	73	72	76
62	8	50	49	52
63	4	9	27	28
64	5	87	88	111
65	5	40	39	41
66	3	61	60	84
67	6	94	95	96
68	4	28	27	29
69	8	106	105	108
70	4	77	76	78
71	8	91	90	93
72	5	90	89	94
73	3	4	29	27
74	3	1	57	58
75	5	34	43	54
76	4	76	78	79
77	3	66	67	68
78	4	69	68	70
79	5	89	99	110
80	5	100	105	106
81	3	5	4	29
82	3	9	27	29
83	4	64	63	65
84	5	87	88	112
85	4	83	82	84
86	5	88	89	99
87	1	57	59	60
88	5	89	99	100
89	9	101	100	105
90	4	11	23	24
91	5	100	105	107
92	4	13	12	14
93	5	44	49	50
94	4	8	7	9
95	5	67	66	81
96	4	11	12	13
97	3	3	4	29
98	5	44	45	47
99	3	2	1	57
100	4	4	5	6
101	4	61	63	64
102	4	67	78	79
103	4	82	84	85
104	2	18	17	20
105	5	89	90	92
106	8	97	94	98
107	5	11	10	26
108	5	34	35	36
109	3	5	7	9
110	9	45	44	49
111	3	12	11	23
112	5	95	94	97
113	3	60	84	82
114	5	9	10	11
115	8	36	35	37
116	8	51	49	52
117	5	87	88	89
118	3	2	1	3
119	5	44	49	51
120	5	89	88	112
121	8	109	99	110
122	5	32	33	56
123	5	39	34	43
124	8	41	39	42
125	3	7	9	10
126	4	16	21	22
127	8	92	90	93
128	5	44	45	48
129	3	61	63	65
130	8	55	33	56
131	5	34	39	42
132	5	89	90	91
133	6	18	32	33
134	5	34	35	37
135	8	53	43	54
136	5	90	89	99
137	8	36	35	38
138	3	67	78	76
139	9	99	100	105
140	3	17	16	21
141	3	10	11	23
142	5	40	39	42
143	5	89	99	109
144	5	65	66	67
145	3	16	21	23
146	5	34	33	55
147	9	99	100	101
148	5	89	94	97
149	2	1	3	31
150	5	100	101	102
151	4	60	61	62
152	1	16	17	18
153	4	71	70	72
154	8	111	88	112
155	3	70	72	76
156	10	72	73	74
157	5	94	89	99
158	4	72	76	77
159	3	59	60	84
160	8	47	45	48
161	5	34	33	56
162	1	1	3	4
163	5	100	99	109
164	3	3	1	57
165	5	100	105	108
166	4	60	84	85
167	5	100	101	103
168	4	65	82	83
169	4	12	14	15
170	3	11	12	14
171	3	1	57	59
172	9	43	44	49
173	3	4	5	7
174	4	68	70	71
175	3	11	23	21
176	5	65	66	80
177	3	17	18	19
178	5	100	101	104
179	3	14	16	17
180	9	43	44	45
181	11	73	74	75
182	5	95	94	98
183	5	44	43	53
184	8	25	10	26
185	3	66	65	82
186	5	44	49	52
187	3	70	72	73
188	3	10	11	12
189	3	63	65	66
190	8	80	66	81
191	4	6	5	7
192	3	66	67	78
193	5	65	66	81
194	3	59	60	61
195	3	10	9	27
196	7	19	18	32
197	3	63	65	82
198	5	34	43	44

Dihedrals

1	9	62	61	60	84
2	24	49	44	43	54
3	9	12	14	16	21
4	24	43	44	49	50
5	20	93	90	89	94
6	10	12	11	10	26
7	19	33	34	43	44
8	24	101	100	105	107
9	9	67	68	70	72
10	20	33	34	35	38
11	8	2	1	57	59
12	9	69	68	70	72
13	9	10	11	12	13
14	10	81	66	65	82
15	20	94	89	88	111
16	9	6	5	7	9
17	9	12	14	16	17
18	20	43	34	33	56
19	1	5	4	3	31
20	9	8	7	9	27
21	9	60	61	63	64
22	10	63	65	66	67
23	14	40	87	88	89
24	9	13	12	14	15
25	9	5	7	9	27
26	9	10	9	27	28
27	24	102	101	100	105
28	9	3	4	29	30
29	9	9	27	29	30
30	24	99	100	101	102
31	9	17	16	21	22
32	6	58	57	59	86
32	7	58	57	59	86
33	10	7	9	10	11
34	20	91	90	89	94
35	24	105	100	99	109
36	10	11	10	9	27
37	14	34	39	40	87
38	9	70	72	76	77
39	19	88	89	94	95
40	21	89	99	100	105
40	22	89	99	100	105
41	20	90	89	99	109
42	19	95	94	89	99
43	9	4	29	27	28
44	9	4	5	7	9
45	20	41	39	34	43
46	20	94	89	88	112
47	1	18	17	16	21
48	20	91	90	89	99
49	10	68	67	66	80
50	9	67	78	76	72
51	20	98	94	89	99
52	9	5	4	29	30
53	20	38	35	34	39
54	9	60	61	63	65
55	26	72	73	74	75
56	1	57	59	60	61
57	1	14	16	17	20
58	1	1	3	4	29
59	9	13	12	14	16
60	21	89	99	100	101
60	22	89	99	100	101
61	2	1	57	59	86
61	3	1	57	59	86
62	14	40	87	88	112
63	9	66	67	68	70
64	1	20	17	16	21
65	24	99	100	105	108
66	9	67	78	76	77
67	24	99	100	101	103
68	9	17	16	21	23
69	19	87	88	89	94
70	2	16	17	18	32
70	3	16	17	18	32
71	20	88	89	99	110
72	9	70	72	76	78
73	24	45	44	43	53
74	8	3	1	57	58
75	20	88	89	90	93
76	20	42	39	34	43
77	24	45	44	49	52
78	9	60	84	82	83
79	14	18	32	33	55
80	29	96	95	94	97
81	9	73	72	76	78
82	20	35	34	43	54
83	21	34	43	44	45
83	22	34	43	44	45
84	19	39	34	43	44
85	20	33	34	43	53
86	24	48	45	44	49
87	25	74	73	72	76
88	10	63	65	66	80
89	20	90	89	94	98
90	19	87	88	89	90
91	19	94	89	99	100
92	9	70	68	67	78
93	9	66	65	82	84
94	24	101	100	99	110
95	9	10	11	23	24
96	15	19	18	17	20
96	16	19	18	17	20
97	20	36	35	34	43
98	19	35	34	39	40
99	19	32	33	34	39
100	10	26	10	9	27
101	9	22	21	23	24
102	9	59	60	61	62
103	10	25	10	9	27
104	20	93	90	89	99
105	10	23	11	10	25
106	10	65	66	67	68
107	9	5	4	29	27
108	20	39	34	33	56
109	24	45	44	43	54
110	9	61	60	84	85
111	9	62	61	63	65
112	14	18	32	33	56
113	20	36	35	34	39
114	9	59	60	84	85
115	19	32	33	34	35
116	20	33	34	43	54
117	24	43	44	49	51
118	10	63	65	66	81
119	20	38	35	34	43
120	24	43	44	45	46
121	9	65	82	84	85
122	20	90	89	88	111
123	24	101	100	105	108
124	19	33	34	39	40
125	14	42	39	40	87
126	9	15	14	16	21
127	20	37	35	34	43
128	24	104	101	100	105
129	9	59	60	61	63
130	9	10	11	12	14
131	24	103	101	100	105
132	19	90	89	94	95
133	9	28	27	29	30
134	9	4	29	27	9
135	9	10	11	23	21
136	2	31	3	1	57
136	3	31	3	1	57
137	9	10	9	27	29
138	9	66	67	78	79
139	9	15	14	16	17
140	20	37	35	34	39
141	9	61	63	65	66
142	9	11	23	21	16
143	21	34	43	44	49
143	22	34	43	44	49
144	9	12	11	23	24
145	1	84	60	59	86
146	24	43	44	49	52
147	10	67	66	65	82
148	9	61	63	65	82
149	20	33	34	39	41
150	20	88	89	90	91
151	20	39	34	43	53
152	19	32	33	34	43
153	9	71	70	72	76
154	24	105	100	99	110
155	9	3	4	29	27
156	9	59	60	84	82
157	19	87	88	89	99
158	8	2	1	57	58
159	9	13	12	11	23
160	10	68	67	66	81
161	20	90	89	99	110
162	20	94	89	99	109
163	2	1	57	59	60
163	3	1	57	59	60
164	9	14	16	21	22
165	20	33	34	35	36
166	20	97	94	89	99
167	10	9	10	11	23
168	9	8	7	9	10
169	9	83	82	84	85
170	20	35	34	33	55
171	9	69	68	67	78
172	23	39	40	87	88
173	19	88	89	99	100
174	24	99	100	101	104
175	20	99	89	88	111
176	9	5	7	9	10
177	10	78	67	66	80
178	20	92	90	89	94
179	11	17	18	32	33
180	29	96	95	94	98
181	9	6	5	4	29
182	9	66	67	78	76
183	9	12	11	23	21
184	24	49	44	43	53
185	19	35	34	43	44
186	9	67	68	70	71
187	9	11	12	14	15
188	20	33	34	35	37
189	24	47	45	44	49
190	17	19	18	32	33
190	18	19	18	32	33
191	10	7	9	10	25
192	20	35	34	33	56
193	20	35	34	39	41
194	9	3	4	5	6
195	10	65	66	67	78
196	10	23	11	10	26
197	9	6	5	7	8
198	1	29	4	3	31
199	9	63	61	60	84
200	1	14	16	17	18
201	9	77	76	78	79
202	24	99	100	105	106
203	4	58	57	59	60
203	5	58	57	59	60
204	4	2	1	3	4
204	5	2	1	3	4
205	9	72	76	78	79
206	8	3	1	57	59
207	9	60	84	82	65
208	24	43	44	45	47
209	9	68	70	72	76
210	20	90	89	88	112
211	14	41	39	40	87
212	9	11	12	14	16
213	9	61	60	84	82
214	1	61	60	59	86
215	9	68	67	78	79
216	2	16	17	18	19
216	3	16	17	18	19
217	24	45	44	49	50
218	20	35	34	39	42
219	10	7	9	10	26
220	9	63	65	82	83
221	9	4	5	7	8
222	9	3	4	5	7
223	27	89	94	95	96
223	28	89	94	95	96
224	9	14	12	11	23
225	10	80	66	65	82
226	2	4	3	1	57
226	3	4	3	1	57
227	9	16	21	23	24
228	19	40	39	34	43
229	20	88	89	99	109
230	14	40	87	88	111
231	9	66	67	68	69
232	24	99	100	105	107
233	2	20	17	18	32
233	3	20	17	18	32
234	1	1	3	4	5
235	10	9	10	11	12
236	25	70	72	73	74
237	24	43	44	45	48
238	20	88	89	94	97
239	9	7	9	27	28
240	20	33	34	39	42
241	9	64	63	65	66
242	20	88	89	90	92
243	20	39	34	43	54
244	9	11	23	21	22
245	24	45	44	49	51
246	19	90	89	99	100
247	9	63	65	82	84
248	9	73	72	76	77
249	24	101	100	99	109
250	20	35	34	43	53
251	20	92	90	89	99
252	9	64	63	65	82
253	20	90	89	94	97
254	10	12	11	10	25
255	12	18	32	33	34
255	13	18	32	33	34
256	6	2	1	3	31
256	7	2	1	3	31
257	9	14	16	21	23
258	9	66	65	82	83
259	9	68	70	72	73
260	24	101	100	105	106
261	9	68	67	78	76
262	20	94	89	99	110
263	9	71	70	72	73
264	9	69	68	70	71
265	20	99	89	88	112
266	9	7	5	4	29
267	10	78	67	66	81
268	24	46	45	44	49
269	20	88	89	94	98
270	9	7	9	27	29
271	20	43	34	33	55
272	20	39	34	33	55
273	9	62	61	63	64
274	1	57	59	60	84

Impropers

1	2	78	76	79	67
24	2	14	15	16	12
33	2	60	84	59	61
47	2	57	1	58	59
48	2	61	63	60	62
58	2	29	30	4	27
95	2	14	16	12	15
103	2	11	10	12	23
112	2	65	63	66	82
113	2	68	69	70	67
117	2	27	9	28	29
120	3	18	32	17	19
123	2	82	65	83	84
127	2	72	76	70	73
138	2	21	16	22	23
143	2	60	61	84	59
148	2	4	5	29	3
155	2	23	24	11	21
159	2	65	82	63	66
160	2	67	66	68	78
165	2	21	23	16	22
169	2	63	61	64	65
175	2	9	7	10	27
177	2	5	6	7	4
187	2	14	12	15	16
204	2	23	11	21	24
226	2	23	21	24	11
231	2	16	14	17	21
233	2	7	5	8	9
236	2	57	58	59	1
240	1	17	20	16	18
241	3	18	19	32	17
243	1	59	86	57	60
268	2	16	21	14	17
279	1	3	31	1	4
280	1	59	60	86	57
293	2	65	66	82	63
294	2	76	77	78	72
299	2	16	17	21	14
301	2	76	78	72	77
312	2	61	62	63	60
316	2	1	3	57	2
318	2	1	57	2	3
327	2	12	13	14	11
331	2	76	72	77	78
333	1	17	18	20	16
337	2	84	82	85	60
339	2	4	3	5	29
341	2	61	60	62	63
346	2	1	2	3	57
349	2	67	68	78	66
353	2	68	67	69	70
362	2	70	68	71	72
364	2	72	73	76	70
371	1	59	57	60	86
378	2	67	78	66	68
381	2	63	65	61	64
385	2	27	28	29	9
390	2	63	64	65	61
396	2	29	4	27	30
399	2	70	71	72	68
402	1	3	1	4	31
407	2	78	67	76	79
408	2	27	29	9	28
413	2	84	60	82	85
432	2	78	79	67	76
437	3	18	17	19	32
439	2	68	70	67	69
440	2	70	72	68	71
442	2	5	4	6	7
444	2	84	85	60	82
454	2	11	23	10	12
456	1	17	16	18	20
457	2	5	7	4	6
460	1	3	4	31	1
464	2	21	22	23	16
470	2	7	8	9	5
487	2	72	70	73	76
504	2	12	14	11	13
520	2	82	83	84	65
537	2	57	59	1	58
540	2	82	84	65	83
546	2	9	10	27	7
547	2	60	59	61	84
551	2	29	27	30	4
555	2	11	12	23	10
558	2	12	11	13	14
559	2	7	9	5	8
568	2	4	29	3	5
576	2	9	27	7	10
