Title

104 atoms
107 bonds
190 angles
283 dihedrals
78 impropers

9 atom types
13 bond types
6 angle types
13 dihedral types
2 improper types
-6.18900013 93.81099987 xlo xhi
-6.965000153 93.03499985 ylo yhi
-3.849999905 96.1500001 zlo zhi
0.0 0.0 0.0 xy xz yz

Masses

1	15.99943
2	12.01078
3	1.007947
4	12.01078
5	1.007947
6	15.99943
7	15.99943
8	1.007947
9	35.4532


Pair Coeffs

1	0.16846514	3.0251065
2	0.086879315	3.4806469
3	0.015611343	2.5725815
4	0.10884061	3.3795318
5	0.015779483	2.6445434
6	0.2102061	3.0398122
7	0.20947353	2.99716
8	1.2326e-05	0.53453923
9	0.2656001	3.3075278

Bond Coeffs

1 harmonic	425.69104206635	1.362945806494
2 harmonic	300.03137914615	1.451203938761
3 harmonic	360.7852444772	1.387193227181
4 harmonic	397.2545789619	1.085358495916
5 harmonic	289.73813263395	1.498646816465
6 harmonic	264.62148576755	1.52190126495
7 harmonic	301.15400723785	1.345741232799
8 harmonic	370.04670688625	1.093899492634
9 harmonic	582.698766451	1.225198386222
10 harmonic	279.1350963404	1.454628925034
11 harmonic	385.7604595587	1.369745182308
12 harmonic	543.5267831885	0.9716763312559
13 harmonic	218.0227703685	1.746066037062


Angle Coeffs

1 harmonic	57.8982893754	126.8062420451
2 harmonic	65.09061609600001	110.3538806181
3 harmonic	34.066775159195	129.1835929926
4 harmonic	53.20531626545	116.5475862634
5 harmonic	201.41175231035	127.4691416191
6 harmonic	48.776492647595	115.6030999533


Dihedral Coeffs

1 fourier 1	3.661930099076	2	180
2 fourier 1	1.532232714475	2	180
3 fourier 1	0.457973137376	1	0
4 fourier 1	0.02664938770063	3	0
5 fourier 1	0.1155372516788	3	0
6 fourier 1	0.09223874044423	3	0
7 fourier 1	0.3159935921949	2	180
8 fourier 1	0.3247796806857	1	180
9 fourier 1	0.1040663847541	3	0
10 fourier 1	2.779853741805	2	180
11 fourier 1	0.9974165607242	2	180
12 fourier 1	0.1911926717192	3	0
13 fourier 1	0.8283030590042	2	180


Improper Coeffs

1 0.3666666666666667	-1	2
2 3.5	-1	2


Atoms

1	1	1	-0.0090800002	5.1950002	-0.426	-1.6339999
2	1	2	0.084596999	3.8829999	-0.221	-1.207
3	1	2	-0.256322	3.3150001	0.97000003	-1.4220001
4	1	3	0.224848	3.8710001	1.752	-1.925
5	1	2	-0.159743	1.932	1.237	-0.98699999
6	1	3	0.21073399	1.524	2.201	-1.2410001
7	1	2	-0.219403	1.219	0.29800001	-0.32600001
8	1	4	0.026395001	-0.25099999	0.491	0.126
9	1	2	-0.219402	-1.143	-0.46799999	-0.70300001
10	1	2	-0.161035	-0.88599998	-0.70099998	-2.0109999
11	1	3	0.21073399	-0.034000002	-0.25600001	-2.506
12	1	2	-0.224378	-1.762	-1.568	-2.819
13	1	3	0.225087	-1.5	-1.7690001	-3.8499999
14	1	2	0.305852	-2.8670001	-2.102	-2.2920001
15	1	1	-0.418028	-3.6630001	-2.9230001	-3.092
16	1	2	-0.097398996	-3.2260001	-1.802	-0.87900001
17	1	4	-0.133258	-4.4959998	-2.349	-0.285
18	1	5	0.095959	-4.4679999	-3.4590001	-0.30599999
19	1	5	0.095959	-5.3660002	-1.992	-0.875
20	1	5	0.095959	-4.638	-2.0280001	0.76899999
21	1	2	-0.27355	-2.415	-1.021	-0.141
22	1	3	0.21121	-2.7049999	-0.778	0.87099999
23	1	4	-0.12972	-0.37200001	0.14	1.66
24	1	4	-0.12946799	0.81900001	0.54900002	2.5599999
25	1	4	-0.121697	0.447	0.46399999	4.0370002
26	1	5	0.068448	-0.37	1.181	4.27
27	1	5	0.068448	0.117	-0.565	4.2940001
28	1	5	0.068448	1.33	0.72100002	4.6599998
29	1	5	0.090302996	1.169	1.575	2.345
30	1	5	0.090302996	1.677	-0.13500001	2.3870001
31	1	5	0.105662	-1.3	0.59799999	2.0669999
32	1	5	0.105662	-0.486	-0.95999998	1.7819999
33	1	4	-0.12972	-0.84299999	1.92	-0.15099999
34	1	4	-0.12946799	-0.30000001	3.076	0.71100003
35	1	4	-0.121697	-0.81599998	4.4219999	0.20900001
36	1	5	0.068448	-0.46399999	4.6069999	-0.829
37	1	5	0.068448	-1.926	4.4419999	0.229
38	1	5	0.068448	-0.43399999	5.2350001	0.86199999
39	1	5	0.090302996	0.80800003	3.105	0.699
40	1	5	0.090302996	-0.639	2.9519999	1.761
41	1	5	0.105662	-1.943	1.888	0.021
42	1	5	0.105662	-0.722	2.1670001	-1.229
43	1	2	-0.276759	1.848	-1.041	-0.126
44	1	3	0.21121	1.27	-1.822	0.352
45	1	2	-0.085447997	3.1059999	-1.294	-0.52899998
46	1	4	-0.13639	3.714	-2.651	-0.30599999
47	1	5	0.095959	4.618	-2.553	0.331
48	1	5	0.095959	3.01	-3.346	0.2
49	1	5	0.095959	3.997	-3.0969999	-1.2819999
50	1	2	0.62805098	-4.5419998	-3.372	-2.74
51	1	6	-0.49624801	-5.2909999	-2.7520001	-2.003
52	1	1	-0.0090800002	5.6799998	-1.304	-1.501
53	1	2	0.084596999	6.5890002	-1.5089999	-0.46200001
54	1	2	-0.256322	7.1869998	-2.701	-0.35699999
55	1	3	0.224848	6.967	-3.483	-1.073
56	1	2	-0.159743	8.1529999	-2.967	0.72500002
57	1	3	0.21073399	8.6330004	-3.9319999	0.71600002
58	1	2	-0.219403	8.427	-2.0280001	1.658
59	1	4	0.026395001	9.4580002	-2.2219999	2.799
60	1	2	-0.219402	10.649	-1.263	2.543
61	1	2	-0.118658	11.098	-1.03	1.288
62	1	3	0.21073399	10.618	-1.474	0.426
63	1	2	-0.387757	12.263	-0.162	1.0420001
64	1	3	0.23007201	12.567	0.037999999	0.022
65	1	2	0.28292701	12.943	0.37099999	2.0599999
66	1	7	-0.63819999	14.036	1.192	1.781
67	1	8	0.43595099	14.592	1.626	2.507
68	1	2	-0.26869401	12.529	0.071999997	3.4579999
69	1	4	-0.11923	13.316	0.61900002	4.618
70	1	5	0.095959	13.302	1.728	4.586
71	1	5	0.095959	14.365	0.26199999	4.5570002
72	1	5	0.095959	12.898	0.29800001	5.5960002
73	1	2	-0.23591	11.454	-0.70999998	3.6760001
74	1	3	0.21121	11.186	-0.95300001	4.6950002
75	1	4	-0.12972	8.7770004	-1.8710001	4.178
76	1	4	-0.12946799	7.2930002	-2.279	4.342
77	1	4	-0.121697	6.8569999	-2.1949999	5.802
78	1	5	0.068448	7.4400001	-2.911	6.4200001
79	1	5	0.068448	7.0089998	-1.165	6.191
80	1	5	0.068448	5.7800002	-2.451	5.8850002
81	1	5	0.090302996	7.1030002	-3.3050001	3.9790001
82	1	5	0.090302996	6.645	-1.596	3.7550001
83	1	5	0.105662	9.3660002	-2.329	5.0029998
84	1	5	0.105662	8.8120003	-0.77100003	4.342
85	1	4	-0.12972	10.108	-3.651	2.8640001
86	1	4	-0.12946799	9.2010002	-4.8070002	3.326
87	1	4	-0.121697	9.901	-6.152	3.1589999
88	1	5	0.068448	10.13	-6.3369999	2.0880001
89	1	5	0.068448	10.845	-6.1729999	3.7449999
90	1	5	0.068448	9.2390003	-6.9650002	3.5239999
91	1	5	0.090302996	8.2559996	-4.836	2.7490001
92	1	5	0.090302996	8.9549999	-4.6830001	4.402
93	1	5	0.105662	10.965	-3.618	3.575
94	1	5	0.105662	10.557	-3.8970001	1.876
95	1	2	-0.276759	7.7839999	-0.69	1.508
96	1	3	0.21121	8.0360003	0.092	2.2149999
97	1	2	-0.085447997	6.9099998	-0.43599999	0.51800001
98	1	4	-0.13639	6.2729998	0.921	0.39899999
99	1	5	0.095959	5.1700001	0.82300001	0.48300001
100	1	5	0.095959	6.619	1.6160001	1.194
101	1	5	0.095959	6.5289998	1.367	-0.58499998
102	1	2	0.46756101	-4.7870002	-4.3870001	-3.0309999
103	1	6	-0.57171899	-4.085	-4.9759998	-3.836
104	1	9	-0.082859002	-6.1890001	-5.184	-2.342

Bonds

1	1	1	2
2	2	1	52
3	3	2	3
4	3	2	45
5	4	3	4
6	3	3	5
7	4	5	6
8	3	5	7
9	5	7	8
10	3	7	43
11	5	8	9
12	6	8	23
13	6	8	33
14	3	9	10
15	3	9	21
16	4	10	11
17	3	10	12
18	4	12	13
19	3	12	14
20	1	14	15
21	3	14	16
22	7	15	50
23	5	16	17
24	3	16	21
25	8	17	18
26	8	17	19
27	8	17	20
28	4	21	22
29	6	23	24
30	8	23	31
31	8	23	32
32	6	24	25
33	8	24	29
34	8	24	30
35	8	25	26
36	8	25	27
37	8	25	28
38	6	33	34
39	8	33	41
40	8	33	42
41	6	34	35
42	8	34	39
43	8	34	40
44	8	35	36
45	8	35	37
46	8	35	38
47	4	43	44
48	3	43	45
49	5	45	46
50	8	46	47
51	8	46	48
52	8	46	49
53	9	50	51
54	10	50	102
55	1	52	53
56	3	53	54
57	3	53	97
58	4	54	55
59	3	54	56
60	4	56	57
61	3	56	58
62	5	58	59
63	3	58	95
64	5	59	60
65	6	59	75
66	6	59	85
67	3	60	61
68	3	60	73
69	4	61	62
70	3	61	63
71	4	63	64
72	3	63	65
73	11	65	66
74	3	65	68
75	12	66	67
76	5	68	69
77	3	68	73
78	8	69	70
79	8	69	71
80	8	69	72
81	4	73	74
82	6	75	76
83	8	75	83
84	8	75	84
85	6	76	77
86	8	76	81
87	8	76	82
88	8	77	78
89	8	77	79
90	8	77	80
91	6	85	86
92	8	85	93
93	8	85	94
94	6	86	87
95	8	86	91
96	8	86	92
97	8	87	88
98	8	87	89
99	8	87	90
100	4	95	96
101	3	95	97
102	5	97	98
103	8	98	99
104	8	98	100
105	8	98	101
106	9	102	103
107	13	102	104

Angles

1	4	59	75	76
2	6	81	76	82
3	1	2	45	46
4	4	33	34	40
5	4	45	46	48
6	4	16	17	18
7	4	8	23	24
8	4	68	69	72
9	4	7	8	9
10	4	24	25	26
11	1	53	97	95
12	4	23	24	29
13	4	87	86	91
14	6	78	77	79
15	6	93	85	94
16	4	34	35	38
17	4	77	76	82
18	6	79	77	80
19	1	9	21	16
20	3	44	43	45
21	4	23	24	25
22	1	5	7	8
23	1	50	102	103
24	4	45	46	49
25	4	16	17	19
26	3	58	95	96
27	4	24	25	27
28	4	59	75	84
29	1	65	68	69
30	3	60	73	74
31	6	70	69	71
32	4	76	77	79
33	4	75	59	85
34	1	52	53	54
35	4	8	33	41
36	4	75	76	82
37	1	10	12	14
38	1	43	45	46
39	1	1	2	45
40	1	15	14	16
41	4	34	33	41
42	4	25	24	29
43	2	14	15	50
44	1	103	102	104
45	1	50	102	104
46	1	58	95	97
47	1	59	60	73
48	6	88	87	89
49	1	95	97	98
50	1	14	16	21
51	2	65	66	67
52	6	47	46	48
53	6	41	33	42
54	1	12	14	16
55	6	70	69	72
56	4	76	77	80
57	3	57	56	58
58	1	14	16	17
59	6	36	35	38
60	3	4	3	5
61	6	26	25	27
62	4	34	33	42
63	4	58	59	75
64	4	25	24	30
65	6	27	25	28
66	4	86	85	94
67	3	60	61	62
68	6	88	87	90
69	1	65	68	73
70	4	86	87	88
71	6	47	46	49
72	1	63	65	68
73	4	58	59	60
74	4	8	33	34
75	3	68	73	74
76	4	59	85	93
77	6	18	17	19
78	1	59	60	61
79	4	76	75	83
80	6	26	25	28
81	3	6	5	7
82	4	23	24	30
83	4	87	86	92
84	4	7	8	23
85	1	2	45	43
86	1	56	58	95
87	1	56	58	59
88	6	78	77	80
89	4	85	86	91
90	1	54	53	97
91	1	60	61	63
92	4	9	8	23
93	4	60	59	85
94	4	97	98	99
95	3	13	12	14
96	2	1	52	53
97	1	61	60	73
98	6	99	98	100
99	3	54	56	57
100	1	69	68	73
101	6	100	98	101
102	4	16	17	20
103	4	85	86	87
104	4	59	85	94
105	6	18	17	20
106	4	24	25	28
107	4	35	34	39
108	3	2	3	4
109	1	8	9	21
110	1	1	2	3
111	4	8	33	42
112	4	8	23	31
113	6	91	86	92
114	4	97	98	100
115	4	68	69	70
116	3	9	10	11
117	6	99	98	101
118	5	15	50	51
119	1	5	7	43
120	3	55	54	56
121	4	34	35	36
122	1	8	9	10
123	4	35	34	40
124	6	37	35	38
125	4	59	85	86
126	1	2	3	5
127	3	3	5	6
128	3	11	10	12
129	3	16	21	22
130	1	3	2	45
131	4	24	23	31
132	4	45	46	47
133	4	58	59	85
134	1	15	50	102
135	4	23	8	33
136	6	31	23	32
137	3	62	61	63
138	3	7	43	44
139	4	33	34	35
140	4	34	35	37
141	3	61	63	64
142	4	86	87	89
143	6	48	46	49
144	1	17	16	21
145	1	3	5	7
146	1	60	73	68
147	3	64	63	65
148	4	24	23	32
149	3	9	21	22
150	4	76	75	84
151	4	59	75	83
152	4	7	8	33
153	6	29	24	30
154	2	2	1	52
155	3	53	54	55
156	1	66	65	68
157	4	76	77	78
158	1	7	43	45
159	4	9	8	33
160	6	39	34	40
161	1	61	63	65
162	4	75	76	81
163	4	85	86	92
164	3	10	12	13
165	4	86	87	90
166	1	10	9	21
167	4	60	59	75
168	6	19	17	20
169	1	54	56	58
170	6	71	69	72
171	3	96	95	97
172	4	75	76	77
173	1	53	97	98
174	6	83	75	84
175	1	53	54	56
176	1	12	14	15
177	1	63	65	66
178	4	33	34	39
179	1	51	50	102
180	4	8	23	32
181	4	97	98	101
182	6	89	87	90
183	4	68	69	71
184	6	36	35	37
185	1	9	10	12
186	1	52	53	97
187	1	59	58	95
188	4	86	85	93
189	4	77	76	81
190	1	8	7	43

Dihedrals

1	4	71	69	68	73
2	4	19	17	16	21
3	1	13	12	14	15
4	1	59	58	95	96
5	5	60	59	75	83
6	11	15	50	102	104
7	4	43	45	46	48
8	1	53	97	95	96
9	4	61	60	59	85
10	4	18	17	16	21
11	1	3	2	45	43
12	1	60	61	63	65
13	4	10	9	8	23
14	1	8	7	43	45
15	13	67	66	65	68
16	1	1	2	45	43
17	6	75	59	85	86
17	7	75	59	85	86
17	8	75	59	85	86
18	12	40	34	33	41
19	4	95	97	98	101
20	9	23	8	33	41
21	1	8	9	21	22
22	2	45	2	1	52
23	12	81	76	75	84
24	11	51	50	102	104
25	1	52	53	54	56
26	5	9	8	33	42
27	12	80	77	76	81
28	12	28	25	24	29
29	5	58	59	85	94
30	9	35	34	33	41
31	1	13	12	14	16
32	9	59	75	76	81
33	9	77	76	75	83
34	4	43	45	46	49
35	4	14	16	17	18
36	5	7	8	23	31
37	1	1	2	3	4
38	9	85	86	87	88
39	4	65	68	69	71
40	12	78	77	76	82
41	4	23	8	7	43
42	1	2	45	43	7
43	4	21	9	8	23
44	1	44	43	45	46
45	1	66	65	68	73
46	1	96	95	97	98
47	9	32	23	8	33
48	4	56	58	59	75
49	6	59	75	76	77
49	7	59	75	76	77
49	8	59	75	76	77
50	1	59	60	73	74
51	1	9	21	16	17
52	9	87	86	85	93
53	9	75	59	85	94
54	1	9	10	12	13
55	1	8	9	10	11
56	12	28	25	24	30
57	9	35	34	33	42
58	1	64	63	65	68
59	4	5	7	8	9
60	9	23	24	25	26
61	4	53	97	98	101
62	9	8	33	34	40
63	1	66	65	68	69
64	9	77	76	75	84
65	1	52	53	97	95
66	4	7	8	9	10
67	5	60	59	75	76
68	4	2	45	46	48
69	12	26	25	24	29
70	1	1	2	3	5
71	12	29	24	23	31
72	1	56	58	95	96
73	9	85	86	87	89
74	12	89	87	86	91
75	4	65	68	69	72
76	12	88	87	86	91
77	6	8	23	24	25
77	7	8	23	24	25
77	8	8	23	24	25
78	4	73	60	59	85
79	6	23	8	33	34
79	7	23	8	33	34
79	8	23	8	33	34
80	1	53	97	95	58
81	1	69	68	73	74
82	4	70	69	68	73
83	12	39	34	33	41
84	12	38	35	34	39
85	5	9	8	23	31
86	5	58	59	75	83
87	12	37	35	34	39
88	4	5	7	8	23
89	1	12	10	9	21
90	4	2	45	46	49
91	1	61	63	65	66
92	1	9	21	16	14
93	1	56	54	53	97
94	1	62	61	60	73
95	9	25	24	23	31
96	9	33	34	35	36
97	5	7	8	23	24
98	1	5	3	2	45
99	1	2	45	43	44
100	1	56	58	95	97
101	1	61	60	73	68
102	12	88	87	86	92
103	1	10	9	21	22
104	1	55	54	53	97
105	1	15	14	16	17
106	1	59	58	95	97
107	4	75	59	58	95
108	5	60	59	75	84
109	1	62	61	63	65
110	12	79	77	76	81
111	9	83	75	59	85
112	12	90	87	86	91
113	2	14	15	50	51
114	2	16	14	15	50
115	1	55	54	56	57
116	4	61	60	59	75
117	12	39	34	33	42
118	12	38	35	34	40
119	9	59	85	86	91
120	12	40	34	33	42
121	12	82	76	75	83
122	1	53	54	56	57
123	9	23	8	33	42
124	1	6	5	7	8
125	1	3	5	7	43
126	1	2	3	5	6
127	9	33	34	35	37
128	12	80	77	76	82
129	4	60	59	58	95
130	6	59	85	86	87
130	7	59	85	86	87
130	8	59	85	86	87
131	9	75	76	77	78
132	13	63	65	66	67
133	9	8	23	24	29
134	10	14	15	50	102
135	9	59	75	76	82
136	12	79	77	76	82
137	4	14	16	17	19
138	1	55	54	56	58
139	5	7	8	23	32
140	4	56	58	59	60
141	5	9	8	23	24
142	4	85	59	58	95
143	5	7	8	33	41
144	3	2	1	52	53
145	1	54	53	97	98
146	5	58	59	75	76
147	9	87	86	85	94
148	12	30	24	23	31
149	12	92	86	85	93
150	1	4	3	2	45
151	1	62	61	63	64
152	1	9	10	12	14
153	1	8	9	10	12
154	2	1	52	53	97
155	4	95	97	98	99
156	1	15	14	16	21
157	9	75	76	77	79
158	9	23	24	25	27
159	2	3	2	1	52
160	9	8	23	24	30
161	1	63	65	68	73
162	4	14	16	17	20
163	4	72	69	68	73
164	1	59	60	61	62
165	1	5	7	43	44
166	12	26	25	24	30
167	12	29	24	23	32
168	12	36	35	34	39
169	9	85	86	87	90
170	12	89	87	86	92
171	1	1	2	45	46
172	1	65	68	73	74
173	1	11	10	9	21
174	5	60	59	85	93
175	1	63	61	60	73
176	4	43	45	46	47
177	1	63	65	68	69
178	1	8	9	21	16
179	1	58	95	97	98
180	2	12	14	15	50
181	4	10	9	8	33
182	12	30	24	23	32
183	4	73	60	59	75
184	5	9	8	23	32
185	9	23	24	25	28
186	1	12	14	16	17
187	1	10	9	21	16
188	12	37	35	34	40
189	5	58	59	75	84
190	1	10	12	14	15
191	9	84	75	59	85
192	11	51	50	102	103
193	1	3	5	7	8
194	5	9	8	33	41
195	9	25	24	23	32
196	5	58	59	85	93
197	4	58	59	60	61
198	4	33	8	7	43
199	1	64	63	65	66
200	1	17	16	21	22
201	1	14	16	21	22
202	1	54	56	58	95
203	4	53	97	98	99
204	1	54	56	58	59
205	1	60	73	68	65
206	5	60	59	85	94
207	12	90	87	86	92
208	5	7	8	33	34
209	1	57	56	58	95
210	1	57	56	58	59
211	1	59	60	73	68
212	1	61	60	73	74
213	6	76	75	59	85
213	7	76	75	59	85
213	8	76	75	59	85
214	4	21	9	8	33
215	9	59	85	86	92
216	4	65	68	69	70
217	4	56	58	59	85
218	2	1	52	53	54
219	12	78	77	76	81
220	1	53	54	56	58
221	12	82	76	75	84
222	1	10	12	14	16
223	1	52	53	97	98
224	1	61	63	65	68
225	4	9	8	7	43
226	1	2	3	5	7
227	6	24	23	8	33
227	7	24	23	8	33
227	8	24	23	8	33
228	9	33	34	35	38
229	1	4	3	5	6
230	4	58	59	60	73
231	9	75	59	85	93
232	1	11	10	12	13
233	4	20	17	16	21
234	12	27	25	24	29
235	1	7	43	45	46
236	4	53	97	98	100
237	9	8	33	34	39
238	12	91	86	85	93
239	5	60	59	85	86
240	1	3	2	45	46
241	4	2	45	46	47
242	4	7	8	9	21
243	1	12	14	16	21
244	1	6	5	7	43
245	5	7	8	33	42
246	6	8	33	34	35
246	7	8	33	34	35
246	8	8	33	34	35
247	11	15	50	102	103
248	9	31	23	8	33
249	12	92	86	85	94
250	1	4	3	5	7
251	1	11	10	12	14
252	1	60	61	63	64
253	5	9	8	33	34
254	1	8	7	43	44
255	12	27	25	24	30
256	4	95	97	98	100
257	9	75	76	77	80
258	4	5	7	8	33
259	5	58	59	85	86
260	1	60	73	68	69
261	12	91	86	85	94
262	1	59	60	61	63
263	1	5	7	43	45
264	1	54	53	97	95
265	12	81	76	75	83
266	1	52	53	54	55
267	12	36	35	34	40

Impropers

11	1	10	11	12	9
17	1	60	61	73	59
26	1	3	4	5	2
33	1	95	96	97	58
35	1	68	73	65	69
47	1	7	5	8	43
49	1	60	59	61	73
62	1	73	74	60	68
66	1	12	14	10	13
67	1	73	68	74	60
76	1	7	43	5	8
79	2	50	102	15	51
92	1	16	21	14	17
96	1	2	45	1	3
98	1	68	65	69	73
131	1	65	63	66	68
150	1	63	61	64	65
154	1	53	54	97	52
156	1	68	69	73	65
163	1	7	8	43	5
167	1	14	12	15	16
180	1	97	98	53	95
201	1	95	58	96	97
203	1	14	15	16	12
214	1	53	52	54	97
220	1	21	22	9	16
224	1	56	57	58	54
228	1	21	9	16	22
231	2	50	51	102	15
240	1	2	3	45	1
241	1	16	17	21	14
249	1	10	9	11	12
269	1	95	97	58	96
272	1	14	16	12	15
284	1	56	54	57	58
294	1	16	14	17	21
304	1	54	55	56	53
305	1	102	50	103	104
306	1	61	62	63	60
315	1	5	3	6	7
320	1	65	68	63	66
332	1	43	7	44	45
356	1	43	45	7	44
357	1	58	56	59	95
361	1	2	1	3	45
362	1	58	95	56	59
369	1	43	44	45	7
374	1	65	66	68	63
387	1	102	103	104	50
389	1	54	56	53	55
393	1	21	16	22	9
399	1	12	13	14	10
404	1	97	95	98	53
405	1	54	53	55	56
412	1	5	7	3	6
413	1	45	2	43	46
439	1	73	60	68	74
443	1	9	21	8	10
446	1	3	5	2	4
450	1	58	59	95	56
456	2	50	15	51	102
458	1	45	43	46	2
459	1	12	10	13	14
491	1	61	60	62	63
495	1	60	73	59	61
503	1	63	64	65	61
513	1	97	53	95	98
544	1	53	97	52	54
554	1	9	8	10	21
560	1	63	65	61	64
572	1	102	104	50	103
578	1	61	63	60	62
581	1	3	2	4	5
582	1	5	6	7	3
584	1	9	10	21	8
585	1	10	12	9	11
587	1	56	58	54	57
588	1	45	46	2	43
