Title

7250 atoms
7625 bonds
11750 angles
16875 dihedrals
11250 impropers

7 atom types
11 bond types
4 angle types
8 dihedral types
2 improper types
-9.68333873 103.6141002 xlo xhi
-10.35285895 103.6239335 ylo yhi
-10.37027094 103.988852 zlo zhi
0.0 0.0 0.0 xy xz yz

Masses

1	15.99943
2	12.01078
3	1.007947
4	35.4532
5	15.99943
6	15.99943
7	1.007947


Pair Coeffs

1	0.16846514	3.0251065
2	0.086879315	3.4806469
3	0.015611343	2.5725815
4	0.2656001	3.3075278
5	0.2102061	3.0398122
6	0.20947353	2.99716
7	1.2326e-05	0.53453923

Bond Coeffs

1 harmonic	425.69104206635	1.362945806494
2 harmonic	300.03137914615	1.451203938761
3 harmonic	360.7852444772	1.387193227181
4 harmonic	397.2545789619	1.085358495916
5 harmonic	279.1350963404	1.454628925034
6 harmonic	399.1592953295	1.371688562017
7 harmonic	218.0227703685	1.746066037062
8 harmonic	301.15400723785	1.345741232799
9 harmonic	582.698766451	1.225198386222
10 harmonic	385.7604595587	1.369745182308
11 harmonic	543.5267831885	0.9716763312559


Angle Coeffs

1 harmonic	57.8982893754	126.8062420451
2 harmonic	65.09061609600001	110.3538806181
3 harmonic	34.066775159195	129.1835929926
4 harmonic	201.41175231035	127.4691416191


Dihedral Coeffs

1 fourier 1	3.661930099076	2	180
2 fourier 1	1.532232714475	2	180
3 fourier 1	0.457973137376	1	0
4 fourier 1	1.163235555439	2	180
5 fourier 1	5.294842998052	2	180
6 fourier 1	2.779853741805	2	180
7 fourier 1	0.9974165607242	2	180
8 fourier 1	0.8283030590042	2	180


Improper Coeffs

1 0.3666666666666667	-1	2
2 3.5	-1	2


Atoms

1	4	1	-0.0061562835	0.26269267	-4.1036688	0.56306767
2	4	2	0.28359383	-0.38178481	-2.8711149	0.62920778
3	4	2	-0.26323664	-1.6543649	-2.8066818	1.0422178
4	4	3	0.22943962	-2.1829067	-3.7089406	1.3241107
5	4	2	-0.11414649	-2.3477681	-1.5035524	1.1154564
6	4	3	0.2107358	-3.3781049	-1.4754194	1.4467321
7	4	2	-0.30093914	-1.7005428	-0.37141866	0.7848424
8	4	2	0.12474146	-2.4057878	0.93318023	0.82820444
9	4	2	-0.2297499	-1.919466	1.9675357	1.5478668
10	4	4	0.038940694	-0.51089056	1.7977261	2.5920071
11	4	4	0.038940694	-2.6548487	3.5665817	1.4985002
12	4	2	-0.30093914	-3.6647682	1.0615348	0.053659764
13	4	2	-0.11862733	-3.6842027	0.77861753	-1.2612353
14	4	3	0.21073578	-2.777211	0.4845061	-1.776944
15	4	2	-0.21434857	-4.9442104	0.87573233	-2.0268346
16	4	3	0.22950125	-4.9395113	0.65751147	-3.0866377
17	4	2	0.44733381	-6.0829296	1.2305116	-1.4102704
18	4	1	-0.43560937	-7.2789262	1.3274544	-2.1171367
19	4	2	-0.21434857	-6.0714234	1.5196674	0.03941428
20	4	3	0.22950126	-6.9902441	1.7929867	0.54084828
21	4	2	-0.11862734	-4.9300492	1.43675	0.73454704
22	4	3	0.2107358	-4.9367264	1.6341448	1.7988626
23	4	2	-0.11414648	-0.29553516	-0.44887939	0.31147328
24	4	3	0.21073577	0.22731028	0.44963749	0.0089272853
25	4	2	-0.26323661	0.32905246	-1.6314978	0.24148109
26	4	3	0.22943972	1.3529553	-1.6811913	-0.10658011
27	5	2	0.631643	-7.3303973	1.1296859	-3.1461729
28	5	5	-0.47393864	-6.5378158	0.35588969	-3.6581689
29	1	1	-0.0061562835	1.2242924	-4.1763641	0.2530623
30	1	2	0.28359383	2.0707512	-3.0709636	0.26313043
31	1	2	-0.26323664	3.3378584	-3.1984119	-0.15191437
32	1	3	0.22943962	3.7062965	-4.1573957	-0.49342626
33	1	2	-0.11414649	4.2435036	-2.0305544	-0.14610014
34	1	3	0.2107358	5.2660344	-2.158509	-0.48032974
35	1	2	-0.30093914	3.7979129	-0.82772647	0.25850327
36	1	2	0.12474146	4.7163626	0.33666419	0.29448415
37	1	2	-0.2297499	4.4173873	1.4822226	-0.35435685
38	1	4	0.038940694	3.0060654	1.6230246	-1.3995048
39	1	4	0.038940694	5.4148171	2.9271012	-0.20742251
40	1	2	-0.30093914	5.9729838	0.19869888	1.0692904
41	1	2	-0.088740744	5.9378719	-0.16713047	2.3627501
42	1	3	0.21073578	4.9918848	-0.33352682	2.8639005
43	1	2	-0.36915645	7.1914845	-0.33526296	3.1259852
44	1	3	0.23590788	7.1434504	-0.61676606	4.17072
45	1	2	0.43022472	8.3772419	-0.14111215	2.5269479
46	1	6	-0.6434561	9.5687832	-0.29587142	3.2331715
47	1	7	0.44293946	9.5790478	-0.55528113	4.212407
48	1	2	-0.36915651	8.4230692	0.23748647	1.0996669
49	1	3	0.23590788	9.3784972	0.38067249	0.61077001
50	1	2	-0.088740729	7.2882665	0.39502204	0.40697199
51	1	3	0.2107358	7.3349017	0.65613776	-0.64249537
52	1	2	-0.11414648	2.397158	-0.69525813	0.73453249
53	1	3	0.21073577	2.034558	0.25887224	1.0956495
54	1	2	-0.26323661	1.5800226	-1.7547721	0.73280497
55	1	3	0.22943972	0.56096828	-1.6500611	1.0816171
56	2	2	0.47037348	-8.0865679	1.6116267	-3.7546538
57	2	5	-0.54125035	-8.8217251	2.4513326	-3.2621094
58	2	4	-0.068308979	-8.253573	1.1861948	-5.447367
59	4	1	-0.0061562835	1.2375567	3.951003	21.248273
60	4	2	0.28359383	0.69068911	2.7719917	21.748056
61	4	2	-0.26323664	0.37369847	2.6832611	23.046452
62	4	3	0.22943962	0.54149214	3.5242909	23.707818
63	4	2	-0.11414649	-0.20668388	1.4362017	23.587116
64	4	3	0.2107358	-0.45020819	1.3845933	24.640758
65	4	2	-0.30093914	-0.43699655	0.38794798	22.775911
66	4	2	0.12474146	-0.99032716	-0.87472252	23.324288
67	4	2	-0.2297499	-2.1142952	-1.4247605	22.81589
68	4	4	0.038940694	-3.0735089	-0.61474185	21.580201
69	4	4	0.038940694	-2.7085527	-2.9944565	23.347948
70	4	2	-0.30093914	-0.26589148	-1.5118169	24.451555
71	4	2	-0.11862733	1.0413004	-1.8076997	24.337222
72	4	3	0.21073578	1.5731732	-1.6141209	23.412707
73	4	2	-0.21434857	1.7711571	-2.4132631	25.470269
74	4	3	0.22950125	2.8192161	-2.6572884	25.356916
75	4	2	0.44733381	1.137448	-2.6561718	26.628764
76	4	1	-0.43560937	1.8103112	-3.2269955	27.706206
77	4	2	-0.21434857	-0.29332593	-2.3111504	26.767238
78	4	3	0.22950126	-0.80264449	-2.4939197	27.704021
79	4	2	-0.11862734	-0.95809074	-1.766457	25.740488
80	4	3	0.2107358	-2.0011447	-1.5022201	25.858785
81	4	2	-0.11414648	-0.068648331	0.4843554	21.340937
82	4	3	0.21073577	-0.21586083	-0.36280867	20.683004
83	4	2	-0.26323661	0.46154295	1.6138775	20.854448
84	4	3	0.22943972	0.72986248	1.6767993	19.807529
85	5	2	0.631643	2.8255252	-3.4854999	27.649699
86	5	5	-0.47393864	3.567435	-2.8789793	26.894194
87	1	1	-0.0061562835	1.4855203	4.0404151	20.270223
88	1	2	0.28359383	0.94684776	3.1893299	19.308979
89	1	2	-0.26323664	1.2930816	3.3327814	18.023051
90	1	3	0.22943962	1.9884939	4.1084555	17.728503
91	1	2	-0.11414649	0.72757917	2.4334135	16.995694
92	1	3	0.2107358	1.0171285	2.5719539	15.960987
93	1	2	-0.30093914	-0.12434207	1.4532743	17.345847
94	1	2	0.12474146	-0.71636259	0.57158009	16.310098
95	1	2	-0.2297499	-0.60427876	-0.77150239	16.389165
96	1	4	0.038940694	0.36847504	-1.5563971	17.630809
97	1	4	0.038940694	-1.4218031	-1.8457456	15.257006
98	1	2	-0.30093914	-1.4367543	1.2170151	15.186307
99	1	2	-0.088740744	-2.4425628	2.0763375	15.427173
100	1	3	0.21073578	-2.7610753	2.2829412	16.441863
101	1	2	-0.36915645	-3.1393839	2.7435054	14.308393
102	1	3	0.23590788	-3.9565042	3.421933	14.520696
103	1	2	0.43022472	-2.7601948	2.5095528	13.041885
104	1	6	-0.6434561	-3.4073668	3.1311814	11.97548
105	1	7	0.44293946	-4.1787598	3.7718956	12.119492
106	1	2	-0.36915651	-1.6400183	1.5849139	12.772041
107	1	3	0.23590788	-1.3231925	1.4056904	11.752303
108	1	2	-0.088740729	-1.0099128	0.97545028	13.783941
109	1	3	0.2107358	-0.1796854	0.31309339	13.574791
110	1	2	-0.11414648	-0.51897957	1.3093832	18.770566
111	1	3	0.21073577	-1.2303479	0.54712873	19.062408
112	1	2	-0.26323661	-0.009426852	2.1275041	19.698637
113	1	3	0.22943972	-0.30235884	2.0163917	20.734471
114	2	2	0.47037348	3.2158823	-4.290252	28.261504
115	2	5	-0.54125035	2.4594651	-4.9547407	28.950307
116	2	4	-0.068308979	4.9341922	-4.6389237	28.261318
117	4	1	-0.0061562835	-4.0120003	-0.067579609	42.977138
118	4	2	0.28359383	-2.8542925	-0.61298285	42.428355
119	4	2	-0.26323664	-2.8567575	-1.8797938	41.993185
120	4	3	0.22943962	-3.7549392	-2.4803809	42.067049
121	4	2	-0.11414649	-1.6331163	-2.4684387	41.409647
122	4	3	0.2107358	-1.6560281	-3.4959817	41.069412
123	4	2	-0.30093914	-0.51375814	-1.7309503	41.295274
124	4	2	0.12474146	0.72361954	-2.3310394	40.738481
125	4	2	-0.2297499	1.3616415	-1.7702475	39.68836
126	4	4	0.038940694	0.69678606	-0.38809457	38.82189
127	4	4	0.038940694	2.9078593	-2.3763142	39.103495
128	4	2	-0.30093914	1.2353244	-3.5695514	41.375405
129	4	2	-0.11862733	1.4818411	-3.6005996	42.697386
130	4	3	0.21073578	1.3403192	-2.7155617	43.307116
131	4	2	-0.21434857	1.9614442	-4.8426815	43.338016
132	4	3	0.22950125	2.1676101	-4.8466309	44.400233
133	4	2	0.44733381	2.1376825	-5.9547317	42.606589
134	4	1	-0.43560937	2.5896774	-7.1334981	43.194531
135	4	2	-0.21434857	1.8457081	-5.932192	41.157599
136	4	3	0.22950126	1.9744876	-6.8305509	40.568754
137	4	2	-0.11862734	1.4152893	-4.8066689	40.573854
138	4	3	0.2107358	1.1883789	-4.8063766	39.515417
139	4	2	-0.11414648	-0.51017418	-0.33267088	41.7942
140	4	3	0.21073577	0.39293608	0.26211011	41.740707
141	4	2	-0.26323661	-1.6189426	0.1968899	42.326922
142	4	3	0.22943972	-1.6089263	1.2164495	42.690777
143	5	2	0.631643	2.8071168	-7.1920714	44.21921
144	5	5	-0.47393864	2.2315523	-6.4590832	45.006953
145	1	1	-0.0061562835	-4.0330243	0.88774341	43.31326
146	1	2	0.28359383	-3.0843744	1.8189396	42.899206
147	1	2	-0.26323664	-3.1386875	3.0753234	43.360309
148	1	3	0.22943962	-3.9178311	3.3694637	44.052005
149	1	2	-0.11414649	-2.1354495	4.070497	42.927573
150	1	3	0.2107358	-2.2026486	5.082381	43.308658
151	1	2	-0.30093914	-1.1503242	3.7182371	42.082297
152	1	2	0.12474146	-0.16284517	4.7256543	41.623335
153	1	2	-0.2297499	1.1632707	4.5236003	41.775899
154	1	4	0.038940694	1.8020342	3.1364216	42.654367
155	1	4	0.038940694	2.3601531	5.6310461	41.108691
156	1	2	-0.30093914	-0.68331313	5.9610517	40.989803
157	1	2	-0.088740744	-1.5143153	5.8865461	39.935296
158	1	3	0.21073578	-1.7879175	4.9263012	39.514817
159	1	2	-0.36915645	-2.0578624	7.1166507	39.323953
160	1	3	0.23590788	-2.7147065	7.0379671	38.466406
161	1	2	0.43022472	-1.7393773	8.3189006	39.829644
162	1	6	-0.6434561	-2.2439797	9.4886543	39.264377
163	1	7	0.44293946	-2.8597672	9.4703674	38.460156
164	1	2	-0.36915651	-0.84601385	8.4061896	41.003036
165	1	3	0.23590788	-0.59919498	9.3739082	41.421326
166	1	2	-0.088740729	-0.34838024	7.2931041	41.556048
167	1	3	0.2107358	0.29163187	7.3688179	42.425755
168	1	2	-0.11414648	-1.1046448	2.3285298	41.559905
169	1	3	0.21073577	-0.33794604	2.0396649	40.852106
170	1	2	-0.26323661	-2.0165168	1.4301284	41.949325
171	1	3	0.22943972	-1.9765722	0.41975095	41.563776
172	2	2	0.47037348	3.5420008	-7.9027322	44.578677
173	2	5	-0.54125035	4.181305	-8.5731022	43.784916
174	2	4	-0.068308979	3.8138438	-8.089084	46.30075
175	4	1	-0.0061562835	-1.0552307	-3.9594699	63.534133
176	4	2	0.28359383	-1.2173088	-2.7010569	62.960511
177	4	2	-0.26323664	-2.1847771	-2.5014719	62.055878
178	4	3	0.22943962	-2.8401321	-3.314689	61.769384
179	4	2	-0.11414649	-2.3648764	-1.1698154	61.440595
180	4	3	0.2107358	-3.1496443	-1.0324059	60.707528
181	4	2	-0.30093914	-1.5701278	-0.14469982	61.797591
182	4	2	0.12474146	-1.7302975	1.1840232	61.157224
183	4	2	-0.2297499	-1.9279766	2.297241	61.89613
184	4	4	0.038940694	-2.1555015	2.2307906	63.641686
185	4	4	0.038940694	-1.9733179	3.9018954	61.172804
186	4	2	-0.30093914	-1.6664229	1.2469381	59.676215
187	4	2	-0.11862733	-0.60211819	0.74922828	59.021303
188	4	3	0.21073578	0.23379007	0.32557591	59.566158
189	4	2	-0.21434857	-0.55174252	0.78294075	57.544984
190	4	3	0.22950125	0.3177843	0.39037326	57.034456
191	4	2	0.44733381	-1.5773211	1.2954067	56.846222
192	4	1	-0.43560937	-1.5456223	1.3354168	55.45451
193	4	2	-0.21434857	-2.7595114	1.8222491	57.560499
194	4	3	0.22950126	-3.5926195	2.2236643	56.999101
195	4	2	-0.11862734	-2.8056575	1.7969568	58.898427
196	4	3	0.2107358	-3.683581	2.1698815	59.410242
197	4	2	-0.11414648	-0.48823113	-0.37418921	62.788025
198	4	3	0.21073577	0.18130948	0.43218504	63.05952
199	4	2	-0.26323661	-0.32408431	-1.5830403	63.340591
200	4	3	0.22943972	0.46814888	-1.7441479	64.060594
201	5	2	0.631643	-0.72648006	0.97109327	54.909578
202	5	5	-0.47393864	-0.032289003	0.081849299	55.374798
203	1	1	-0.0061562835	-0.33007337	-4.1335693	64.219624
204	1	2	0.28359383	0.2672878	-3.0882039	64.91882
205	1	2	-0.26323664	1.2229933	-3.3498781	65.820052
206	1	3	0.22943962	1.5312645	-4.3705568	66.007698
207	1	2	-0.11414649	1.863811	-2.2468534	66.566248
208	1	3	0.2107358	2.6301402	-2.4826181	67.294812
209	1	2	-0.30093914	1.5055557	-0.97149022	66.333542
210	1	2	0.12474146	2.1263272	0.13249962	67.105876
211	1	2	-0.2297499	2.7295835	1.1673421	66.483085
212	1	4	0.038940694	2.9516424	1.2052112	64.735732
213	1	4	0.038940694	3.342602	2.5618884	67.368285
214	1	2	-0.30093914	2.0594205	0.060291181	68.585323
215	1	2	-0.088740744	0.87531589	-0.081389604	69.206552
216	1	3	0.21073578	-0.046328425	-0.11147911	68.637871
217	1	2	-0.36915645	0.81163232	-0.18507621	70.678807
218	1	3	0.23590788	-0.15205569	-0.28471476	71.162955
219	1	2	0.43022472	1.9395344	-0.15667742	71.406537
220	1	6	-0.6434561	1.8962767	-0.25347913	72.796224
221	1	7	0.44293946	1.0209645	-0.34540537	73.297901
222	1	2	-0.36915651	3.2453291	-0.025401103	70.728131
223	1	3	0.23590788	4.157177	-0.016606301	71.311929
224	1	2	-0.088740729	3.3054244	0.073412947	69.394322
225	1	3	0.2107358	4.2689674	0.15226176	68.907387
226	1	2	-0.11414648	0.43291459	-0.6876258	65.346056
227	1	3	0.21073577	0.10994789	0.33125082	65.173337
228	1	2	-0.26323661	-0.14927208	-1.6879639	64.67474
229	1	3	0.22943972	-0.93032529	-1.4728227	63.957261
230	2	2	0.47037348	-0.49638361	1.3834482	53.934217
231	2	5	-0.54125035	-1.1344199	2.3312981	53.506838
232	2	4	-0.068308979	0.79339276	0.68993037	52.970022
233	4	1	-0.0061562835	2.8317722	-0.41356723	80.826521
234	4	2	0.28359383	2.2953324	0.18030319	81.966023
235	4	2	-0.26323664	2.9743733	1.1490378	82.594231
236	4	3	0.22943962	3.9380473	1.4711046	82.219403
237	4	2	-0.11414649	2.4141988	1.785442	83.804814
238	4	3	0.2107358	2.9826911	2.5625545	84.299831
239	4	2	-0.30093914	1.2109104	1.4087537	84.274001
240	4	2	0.12474146	0.6624744	2.0253024	85.507011
241	4	2	-0.2297499	-0.55482945	2.6104769	85.514511
242	4	4	0.038940694	-1.5026107	2.8122988	84.043414
243	4	4	0.038940694	-1.2899057	3.2169751	86.99505
244	4	2	-0.30093914	1.4986838	1.9771462	86.731699
245	4	2	-0.11862733	1.9615324	0.80076396	87.191335
246	4	3	0.21073578	1.7048725	-0.1270928	86.69304
247	4	2	-0.21434857	2.8203676	0.75490039	88.392789
248	4	3	0.22950125	3.1731795	-0.20102684	88.756866
249	4	2	0.44733381	3.1591009	1.8904755	89.024002
250	4	1	-0.43560937	3.9671346	1.8649224	90.157975
251	4	2	-0.21434857	2.6722484	3.187838	88.509071
252	4	3	0.22950126	2.9546375	4.1050664	89.00839
253	4	2	-0.11862734	1.8901674	3.2317292	87.423142
254	4	3	0.2107358	1.5535156	4.1885462	87.045063
255	4	2	-0.11414648	0.46911353	0.32305223	83.584716
256	4	3	0.21073577	-0.48442247	-0.014813698	83.970526
257	4	2	-0.26323661	0.98107641	-0.25531972	82.490652
258	4	3	0.22943972	0.43594551	-1.0479151	81.994046
259	5	2	0.631643	4.3343626	0.96587159	90.554874
260	5	5	-0.47393864	4.5113746	0.004726669	89.824153
261	1	1	-0.0061562835	2.3364232	-1.1483136	80.335767
262	1	2	0.28359383	0.96634779	-1.3307912	80.503395
263	1	2	-0.26323664	0.33870812	-2.3105839	79.839964
264	1	3	0.22943962	0.89218228	-2.9595831	79.173261
265	1	2	-0.11414649	-1.1150701	-2.512889	80.012358
266	1	3	0.2107358	-1.6027312	-3.3076943	79.460885
267	1	2	-0.30093914	-1.8154187	-1.7271194	80.849691
268	1	2	0.12474146	-3.2800863	-1.9101508	80.997673
269	1	2	-0.2297499	-3.8397606	-2.1114809	82.209661
270	1	4	0.038940694	-2.868162	-2.318347	83.664718
271	1	4	0.038940694	-5.5860116	-2.1833481	82.43231
272	1	2	-0.30093914	-4.1075985	-1.8624687	79.76828
273	1	2	-0.088740744	-4.0423117	-0.80119885	78.945148
274	1	3	0.21073578	-3.4107037	0.045642752	79.185277
275	1	2	-0.36915645	-4.843062	-0.76775148	77.704172
276	1	3	0.23590788	-4.7884851	0.10137084	77.060224
277	1	2	0.43022472	-5.6291189	-1.8068688	77.380273
278	1	6	-0.6434561	-6.3905692	-1.7906747	76.213052
279	1	7	0.44293946	-6.3776186	-1.0013117	75.578199
280	1	2	-0.36915651	-5.6866862	-2.9860146	78.268456
281	1	3	0.23590788	-6.3089263	-3.8311435	78.002111
282	1	2	-0.088740729	-4.9655334	-3.0168301	79.396024
283	1	3	0.2107358	-5.0029805	-3.8932137	80.030285
284	1	2	-0.11414648	-1.1183199	-0.63075618	81.569627
285	1	3	0.21073577	-1.6753419	0.031450959	82.220363
286	1	2	-0.26323661	0.19711898	-0.44628608	81.408772
287	1	3	0.22943972	0.69751286	0.3550477	81.936575
288	2	2	0.47037348	4.5567123	0.88997696	91.612754
289	2	5	-0.54125035	4.2972397	1.8196921	92.35872
290	2	4	-0.068308979	5.2882812	-0.56892458	92.253514
291	4	1	-0.0061562835	-0.67741479	17.211314	1.6518419
292	4	2	0.28359383	-0.49002553	18.589726	1.7133217
293	4	2	-0.26323664	-0.60722771	19.22577	2.8863099
294	4	3	0.22943962	-0.84726865	18.672151	3.7856309
295	4	2	-0.11414649	-0.41091663	20.688643	2.9623384
296	4	3	0.2107358	-0.5159399	21.183003	3.9197869
297	4	2	-0.30093914	-0.095896744	21.388949	1.8576812
298	4	2	0.12474146	0.070334169	22.861592	1.9278153
299	4	2	-0.2297499	1.2038036	23.458642	1.4999221
300	4	4	0.038940694	2.6057464	22.531234	0.97302556
301	4	4	0.038940694	1.3688411	25.210411	1.4348039
302	4	2	-0.30093914	-1.0522494	23.655581	2.4853212
303	4	2	-0.11862733	-2.2881778	23.539723	1.9672218
304	4	3	0.21073578	-2.4734123	22.890948	1.1187702
305	4	2	-0.21434857	-3.4130544	24.306231	2.5419482
306	4	3	0.22950125	-4.39825	24.21149	2.1046397
307	4	2	0.44733381	-3.2117818	25.111014	3.5976544
308	4	1	-0.43560937	-4.2608267	25.840901	4.1510397
309	4	2	-0.21434857	-1.8600566	25.223776	4.1854064
310	4	3	0.22950126	-1.6982396	25.861529	5.04416
311	4	2	-0.11862734	-0.8381256	24.533682	3.6636335
312	4	3	0.2107358	0.14377897	24.610864	4.1127252
313	4	2	-0.11414648	0.016466893	20.682815	0.5565759
314	4	3	0.21073577	0.23521298	21.237842	-0.34693396
315	4	2	-0.26323661	-0.16657605	19.357827	0.48952704
316	4	3	0.22943972	-0.085285864	18.849388	-0.4627726
317	5	2	0.631643	-5.2348751	25.788392	3.7648411
318	5	5	-0.47393864	-5.6096837	24.777808	3.1927175
319	1	1	-0.0061562835	-0.59447049	16.709638	0.77576906
320	1	2	0.28359383	0.085466424	17.258697	-0.30807774
321	1	2	-0.26323664	0.17929692	16.570714	-1.4534779
322	1	3	0.22943962	-0.26995816	15.589442	-1.5389234
323	1	2	-0.11414649	0.89788979	17.145723	-2.6098117
324	1	3	0.2107358	0.96646026	16.568643	-3.5241026
325	1	2	-0.30093914	1.4472109	18.370659	-2.5271801
326	1	2	0.12474146	2.1958931	18.933667	-3.677461
327	1	2	-0.2297499	1.8705342	20.134294	-4.202172
328	1	4	0.038940694	0.45768284	21.03791	-3.6624328
329	1	4	0.038940694	2.8329275	20.892618	-5.468219
330	1	2	-0.30093914	3.3148149	18.132444	-4.2292868
331	1	2	-0.088740744	4.310407	17.712757	-3.4288115
332	1	3	0.21073578	4.3255039	17.981452	-2.3793803
333	1	2	-0.36915645	5.4087938	16.88783	-3.9723032
334	1	3	0.23590788	6.2095996	16.570552	-3.3157462
335	1	2	0.43022472	5.4106939	16.535821	-5.2679291
336	1	6	-0.6434561	6.4395778	15.757892	-5.7958475
337	1	7	0.44293946	7.2130772	15.437524	-5.2254405
338	1	2	-0.36915651	4.3071046	16.973687	-6.1470948
339	1	3	0.23590788	4.2991426	16.679104	-7.188979
340	1	2	-0.088740729	3.3129088	17.725237	-5.6580469
341	1	3	0.2107358	2.5011511	18.025904	-6.3079598
342	1	2	-0.11414648	1.3558116	19.122305	-1.2493146
343	1	3	0.21073577	1.822851	20.094724	-1.1569889
344	1	2	-0.26323661	0.70871041	18.598134	-0.20203814
345	1	3	0.22943972	0.64696305	19.15198	0.72561886
346	2	2	0.47037348	-5.9083187	26.630389	3.8735859
347	2	5	-0.54125035	-5.5076603	27.672173	4.3658454
348	2	4	-0.068308979	-7.5735787	26.49696	3.3413576
349	4	1	-0.0061562835	-2.1190144	22.535666	17.756991
350	4	2	0.28359383	-1.0396712	22.476654	18.634745
351	4	2	-0.26323664	0.010334079	23.288479	18.45414
352	4	3	0.22943962	0.022558413	23.989326	17.628576
353	4	2	-0.11414649	1.1612694	23.23341	19.379685
354	4	3	0.2107358	2.0017567	23.894818	19.211609
355	4	2	-0.30093914	1.1547959	22.380299	20.419921
356	4	2	0.12474146	2.3233477	22.30266	21.330793
357	4	2	-0.2297499	2.182942	22.466756	22.664087
358	4	4	0.038940694	0.64572229	22.926453	23.391262
359	4	4	0.038940694	3.5250131	22.233685	23.779747
360	4	2	-0.30093914	3.6520742	22.039094	20.725446
361	4	2	-0.11862733	3.8388055	20.962208	19.941344
362	4	3	0.21073578	3.032788	20.258532	19.767368
363	4	2	-0.21434857	5.1530178	20.715883	19.312565
364	4	3	0.22950125	5.2899175	19.837677	18.695446
365	4	2	0.44733381	6.165589	21.576105	19.506007
366	4	1	-0.43560937	7.4106879	21.358508	18.92133
367	4	2	-0.21434857	5.9586122	22.773518	20.347845
368	4	3	0.22950126	6.7692066	23.474814	20.494446
369	4	2	-0.11862734	4.7699514	22.996636	20.922409
370	4	3	0.2107358	4.6248291	23.885523	21.522906
371	4	2	-0.11414648	-0.003342416	21.470404	20.606825
372	4	3	0.21073577	-0.00761351	20.754409	21.418963
373	4	2	-0.26323661	-1.0429543	21.518968	19.763947
374	4	3	0.22943972	-1.8833605	20.851207	19.904679
375	5	2	0.631643	7.5987261	20.522202	18.316424
376	5	5	-0.47393864	6.6857877	20.000855	17.696887
377	1	1	-0.0061562835	-2.9232121	21.930938	17.87375
378	1	2	0.28359383	-3.1910467	21.314612	19.09314
379	1	2	-0.26323664	-4.2629037	20.521017	19.217218
380	1	3	0.22943962	-4.9220086	20.358483	18.373897
381	1	2	-0.11414649	-4.5547456	19.86145	20.507147
382	1	3	0.2107358	-5.4306633	19.228843	20.586065
383	1	2	-0.30093914	-3.7372551	20.038241	21.560477
384	1	2	0.12474146	-4.048479	19.40172	22.863793
385	1	2	-0.2297499	-3.1505099	18.608089	23.485472
386	1	4	0.038940694	-1.6231346	18.156803	22.732176
387	1	4	0.038940694	-3.4348535	17.96077	25.099243
388	1	2	-0.30093914	-5.3793307	19.66913	23.460268
389	1	2	-0.088740744	-5.7924922	20.932608	23.662803
390	1	3	0.21073578	-5.1471088	21.769418	23.424139
391	1	2	-0.36915645	-7.1311167	21.199498	24.227777
392	1	3	0.23590788	-7.4415998	22.223195	24.39709
393	1	2	0.43022472	-7.9527351	20.18053	24.526454
394	1	6	-0.6434561	-9.2186496	20.415731	25.059946
395	1	7	0.44293946	-9.5561459	21.353802	25.240004
396	1	2	-0.36915651	-7.5138097	18.790925	24.283737
397	1	3	0.23590788	-8.1801504	17.96817	24.510516
398	1	2	-0.088740729	-6.2993594	18.546212	23.776148
399	1	3	0.2107358	-5.9953686	17.524668	23.587005
400	1	2	-0.11414648	-2.5597785	20.933197	21.42311
401	1	3	0.21073577	-1.9122142	21.112359	22.272115
402	1	2	-0.26323661	-2.2997287	21.533079	20.25572
403	1	3	0.22943972	-1.4400783	22.183989	20.163944
404	2	2	0.47037348	8.6025948	20.121091	18.24114
405	2	5	-0.54125035	9.4979201	20.585386	18.927423
406	2	4	-0.068308979	8.9409318	18.804107	17.134233
407	4	1	-0.0061562835	-1.9082469	20.71101	38.238817
408	4	2	0.28359383	-1.6815076	21.267102	39.495108
409	4	2	-0.26323664	-2.3328323	22.379922	39.85787
410	4	3	0.22943962	-3.0339403	22.848001	39.177986
411	4	2	-0.11414649	-2.0989465	22.97855	41.188757
412	4	3	0.2107358	-2.6320301	23.881284	41.458983
413	4	2	-0.30093914	-1.243872	22.400437	42.051639
414	4	2	0.12474146	-0.98525317	23.018385	43.375454
415	4	2	-0.2297499	-1.1525329	22.318681	44.518584
416	4	4	0.038940694	-1.8238983	20.690075	44.526419
417	4	4	0.038940694	-0.71235645	22.979195	46.090251
418	4	2	-0.30093914	-0.53700421	24.432569	43.399579
419	4	2	-0.11862733	0.54636962	24.812918	42.698862
420	4	3	0.21073578	1.1223084	24.088296	42.134673
421	4	2	-0.21434857	0.97516416	26.226893	42.696939
422	4	3	0.22950125	1.8566697	26.51347	42.138686
423	4	2	0.44733381	0.27486163	27.145445	43.381439
424	4	1	-0.43560937	0.66563306	28.482112	43.390684
425	4	2	-0.21434857	-0.93002028	26.736526	44.134017
426	4	3	0.22950126	-1.5032552	27.477139	44.675557
427	4	2	-0.11862734	-1.3181046	25.455058	44.141017
428	4	3	0.2107358	-2.2115735	25.169973	44.681588
429	4	2	-0.11414648	-0.51130785	21.176693	41.639421
430	4	3	0.21073577	0.20579195	20.719753	42.309651
431	4	2	-0.26323661	-0.72148542	20.638883	40.431041
432	4	3	0.22943972	-0.18242603	19.747645	40.135912
433	5	2	0.631643	1.5133261	28.813793	42.86907
434	5	5	-0.47393864	1.8880405	28.216602	41.873059
435	1	1	-0.0061562835	-1.4265135	19.870489	37.942982
436	1	2	0.28359383	-0.84184138	19.010624	38.868885
437	1	2	-0.26323664	-0.21241087	17.906014	38.447317
438	1	3	0.22943962	-0.15805212	17.678821	37.390219
439	1	2	-0.11414649	0.41234219	16.987914	39.422454
440	1	3	0.2107358	0.91070395	16.097282	39.059051
441	1	2	-0.30093914	0.36953735	17.263293	40.738275
442	1	2	0.12474146	0.96881158	16.324944	41.718592
443	1	2	-0.2297499	1.8926339	16.742419	42.610193
444	1	4	0.038940694	2.5539312	18.375041	42.575293
445	1	4	0.038940694	2.5101584	15.687736	43.879223
446	1	2	-0.30093914	0.51634598	14.913328	41.685886
447	1	2	-0.088740744	-0.79156636	14.615904	41.780788
448	1	3	0.21073578	-1.5275517	15.399479	41.915198
449	1	2	-0.36915645	-1.2450252	13.21142	41.716441
450	1	3	0.23590788	-2.3011072	12.989603	41.808692
451	1	2	0.43022472	-0.35397088	12.222013	41.544228
452	1	6	-0.6434561	-0.76580319	10.892007	41.481363
453	1	7	0.44293946	-1.7410195	10.630687	41.564825
454	1	2	-0.36915651	1.0820018	12.544342	41.415175
455	1	3	0.23590788	1.8008765	11.749288	41.261965
456	1	2	-0.088740729	1.4960077	13.815993	41.477808
457	1	3	0.2107358	2.5487774	14.041195	41.365123
458	1	2	-0.11414648	-0.3448378	18.48014	41.20219
459	1	3	0.21073577	-0.41726832	18.696665	42.260547
460	1	2	-0.26323661	-0.91377658	19.307796	40.318121
461	1	3	0.22943972	-1.4327766	20.192072	40.664242
462	2	2	0.47037348	2.0562453	29.686014	43.213713
463	2	5	-0.54125035	1.7361641	30.230589	44.257336
464	2	4	-0.068308979	3.3955397	30.31471	42.272867
465	4	1	-0.0061562835	1.8910696	18.151748	65.277363
466	4	2	0.28359383	1.6262197	19.446116	64.837611
467	4	2	-0.26323664	2.1783262	20.489974	65.469851
468	4	3	0.22943962	2.8288204	20.330628	66.320943
469	4	2	-0.11414649	1.9031888	21.867851	65.011513
470	4	3	0.2107358	2.3555596	22.696948	65.540747
471	4	2	-0.30093914	1.1107812	22.082526	63.94571
472	4	2	0.12474146	0.80921957	23.46663	63.504635
473	4	2	-0.2297499	1.0483165	23.864177	62.23613
474	4	4	0.038940694	1.8629206	22.825009	61.070069
475	4	4	0.038940694	0.5642487	25.4518	61.648504
476	4	2	-0.30093914	0.23630959	24.399235	64.506357
477	4	2	-0.11862733	-0.88275704	24.071084	65.176712
478	4	3	0.21073578	-1.3962888	23.138556	64.972341
479	4	2	-0.21434857	-1.4364964	24.98515	66.19703
480	4	3	0.22950125	-2.3448904	24.711826	66.717548
481	4	2	0.44733381	-0.81544549	26.14277	66.474363
482	4	1	-0.43560937	-1.3242947	27.015892	67.432588
483	4	2	-0.21434857	0.42764082	26.49713	65.75708
484	4	3	0.22950126	0.93685268	27.423226	65.988208
485	4	2	-0.11862734	0.92900847	25.672618	64.82884
486	4	3	0.2107358	1.8490317	25.934376	64.322069
487	4	2	-0.11414648	0.48727726	20.923827	63.258118
488	4	3	0.21073577	-0.18022453	21.08251	62.420565
489	4	2	-0.26323661	0.73440617	19.676459	63.678352
490	4	3	0.22943972	0.27484021	18.83609	63.1738
491	5	2	0.631643	-2.2027393	26.801639	67.964667
492	5	5	-0.47393864	-2.5309863	25.642178	68.156998
493	1	1	-0.0061562835	1.4840476	17.347563	64.815107
494	1	2	0.28359383	0.98672646	17.436688	63.517713
495	1	2	-0.26323664	0.455185	16.355564	62.932306
496	1	3	0.22943962	0.41232388	15.41312	63.463334
497	1	2	-0.11414649	-0.076414756	16.440646	61.555978
498	1	3	0.2107358	-0.4960888	15.551903	61.100279
499	1	2	-0.30093914	-0.047156091	17.607503	60.887669
500	1	2	0.12474146	-0.55152202	17.68437	59.494702
501	1	2	-0.2297499	-1.5013396	18.577501	59.144205
502	1	4	0.038940694	-2.3065086	19.599675	60.331997
503	1	4	0.038940694	-2.0109815	18.791625	57.471319
504	1	2	-0.30093914	0.025283803	16.74729	58.500904
505	1	2	-0.088740744	1.355348	16.690386	58.311714
506	1	3	0.21073578	2.0193059	17.349871	58.857581
507	1	2	-0.36915645	1.9322325	15.734483	57.344349
508	1	3	0.23590788	3.0046923	15.712362	57.194807
509	1	2	0.43022472	1.1319493	14.901939	56.659529
510	1	6	-0.6434561	1.6607169	13.994349	55.743473
511	1	7	0.44293946	2.6561025	13.935149	55.564577
512	1	2	-0.36915651	-0.32817987	14.943067	56.880661
513	1	3	0.23590788	-0.9742296	14.262848	56.340026
514	1	2	-0.088740729	-0.8538866	15.811642	57.753375
515	1	3	0.2107358	-1.9235262	15.820939	57.919275
516	1	2	-0.11414648	0.55929437	18.799232	61.534404
517	1	3	0.21073577	0.62112049	19.736498	60.995925
518	1	2	-0.26323661	1.0441906	18.719109	62.778887
519	1	3	0.22943972	1.48484	19.591838	63.242868
520	2	2	0.47037348	-2.8186329	27.608708	68.343644
521	2	5	-0.54125035	-2.5396753	28.765869	68.076579
522	2	4	-0.068308979	-4.2168911	27.252558	69.339733
523	4	1	-0.0061562835	-3.2887242	18.573748	84.684095
524	4	2	0.28359383	-2.4998361	19.365866	83.853963
525	4	2	-0.26323664	-2.8199098	19.498817	82.560106
526	4	3	0.22943962	-3.6888658	18.992616	82.158152
527	4	2	-0.11414649	-1.9888905	20.33671	81.670353
528	4	3	0.2107358	-2.2628809	20.425604	80.626726
529	4	2	-0.30093914	-0.91572872	20.985666	82.157296
530	4	2	0.12474146	-0.063367367	21.801538	81.257817
531	4	2	-0.2297499	0.1926495	23.10052	81.525053
532	4	4	0.038940694	-0.57823306	23.947734	82.863379
533	4	4	0.038940694	1.3170994	24.048649	80.55715
534	4	2	-0.30093914	0.49748144	21.140463	80.053718
535	4	2	-0.11862733	1.2201409	20.012309	80.173722
536	4	3	0.21073578	1.4279608	19.590105	81.15027
537	4	2	-0.21434857	1.7524993	19.335895	78.972785
538	4	3	0.22950125	2.343121	18.436616	79.088058
539	4	2	0.44733381	1.5030483	19.834141	77.751218
540	4	1	-0.43560937	1.9977906	19.209404	76.609114
541	4	2	-0.21434857	0.68958788	21.060685	77.612651
542	4	3	0.22950126	0.47636533	21.456585	76.628694
543	4	2	-0.11862734	0.20979778	21.678036	78.699619
544	4	3	0.2107358	-0.39887373	22.565855	78.585284
545	4	2	-0.11414648	-0.55461073	20.822231	83.588032
546	4	3	0.21073577	0.32587412	21.310333	83.986451
547	4	2	-0.26323661	-1.3065778	20.058579	84.391136
548	4	3	0.22943972	-1.03645	19.941938	85.432971
549	5	2	0.631643	2.5779512	18.336984	76.66365
550	5	5	-0.47393864	2.4364056	17.568906	77.601257
551	1	1	-0.0061562835	-3.0653427	18.458231	85.665328
552	1	2	0.28359383	-2.2388108	19.361696	86.327974
553	1	2	-0.26323664	-1.9622929	19.183053	87.626316
554	1	3	0.22943962	-2.3800681	18.340257	88.162212
555	1	2	-0.11414649	-1.0849972	20.135971	88.337946
556	1	3	0.2107358	-0.8801413	19.975025	89.389507
557	1	2	-0.30093914	-0.54332079	21.178913	87.683798
558	1	2	0.12474146	0.31107045	22.152836	88.40639
559	1	2	-0.2297499	1.5613821	22.434496	87.98204
560	1	4	0.038940694	2.3122511	21.566162	86.645559
561	1	4	0.038940694	2.5412523	23.692632	88.731091
562	1	2	-0.30093914	-0.25691359	22.807102	89.60963
563	1	2	-0.088740744	-1.4275356	23.464794	89.537599