Title

17500 atoms
17500 bonds
32250 angles
56375 dihedrals
1875 impropers

10 atom types
13 bond types
9 angle types
45 dihedral types
2 improper types
-14.7415254 142.5063616 xlo xhi
-14.01215075 142.1459648 ylo yhi
-14.74602618 142.5681503 zlo zhi
0.0 0.0 0.0 xy xz yz

Masses

1	12.01078
2	15.99943
3	15.99943
4	12.01078
5	15.99943
6	1.007947
7	1.007947
8	1.007947
9	14.00672
10	1.007947


Pair Coeffs

1	0.086879315	3.4806469
2	0.2102061	3.0398122
3	0.16846514	3.0251065
4	0.10884061	3.3795318
5	0.20947353	2.99716
6	1.2326e-05	0.53453923
7	0.016409246	2.5832257
8	0.015779483	2.6445434
9	0.16769152	3.206876
10	0.014090815	1.1034277

Bond Coeffs

1 harmonic	582.698766451	1.225198386222
2 harmonic	301.15400723785	1.345741232799
3 harmonic	279.1350963404	1.454628925034
4 harmonic	366.7408841747	1.425895053732
5 harmonic	264.62148576755	1.52190126495
6 harmonic	370.04670688625	1.093899492634
7 harmonic	329.96998057905	1.427343958716
8 harmonic	543.5267831885	0.9716763312559
9 harmonic	492.76746816345	1.381897776683
10 harmonic	352.0565580496	1.450098586273
11 harmonic	505.144496193	1.019481865027
12 harmonic	366.34047229585	1.464762957261
13 harmonic	422.7150220147	1.421786517481


Angle Coeffs

1 harmonic	65.09061609600001	110.3538806181
2 harmonic	57.8982893754	126.8062420451
3 harmonic	201.41175231035	127.4691416191
4 harmonic	53.20531626545	116.5475862634
5 harmonic	55.42182150775	117.3465570514
6 harmonic	63.44422595415	115.5071327674
7 harmonic	48.776492647595	115.6030999533
8 harmonic	49.015990027215	114.8414599994
9 harmonic	94.53012429075	110.92021963


Dihedral Coeffs

1 fourier 1	0.1918272375143	3	0
2 fourier 1	0.9202179876409	1	180
3 fourier 1	0.0473758381877	3	0
4 fourier 1	2.779853741805	2	180
5 fourier 1	1.163809172478	2	180
6 fourier 1	0.1679186987369	1	180
7 fourier 1	0.9974165607242	2	180
8 fourier 1	-0.0309670556842	3	0
9 fourier 1	0.4598191477945	2	0
10 fourier 1	0.1155372516788	3	0
11 fourier 1	0.1115525666802	3	0
12 fourier 1	0.3432490222662	1	0
13 fourier 1	0.3445382149273	3	0
14 fourier 1	0.1364556373303	1	0
15 fourier 1	0.1040663847541	3	0
16 fourier 1	0.4552156463534	3	0
17 fourier 1	-0.03687743385131	2	180
18 fourier 1	0.3026390167484	3	0
19 fourier 1	0.09223874044423	3	0
20 fourier 1	0.3159935921949	2	180
21 fourier 1	0.3247796806857	1	180
22 fourier 1	1.809047390003	2	180
23 fourier 1	-0.04816277792592	1	0
24 fourier 1	-0.1488678166443	4	180
25 fourier 1	-0.1230328948768	3	180
26 fourier 1	0.2939295466901	2	0
27 fourier 1	-0.3024127022865	1	0
28 fourier 1	0.182238503271	2	0
29 fourier 1	0.02972342374561	3	0
30 fourier 1	0.4860993122944	2	180
31 fourier 1	0.8916986138746	1	0
32 fourier 1	0.1911926717192	3	0
33 fourier 1	0.2810888471023	3	0
34 fourier 1	0.05324557188047	2	180
35 fourier 1	0.2036670163956	3	0
36 fourier 1	0.6761465733405	3	0
37 fourier 1	1.653011589151	2	0
38 fourier 1	1.713184811193	1	0
39 fourier 1	0.774151252041	3	0
40 fourier 1	1.087509576657	2	0
41 fourier 1	1.518874939494	1	0
42 fourier 1	0.3917343745784	3	0
43 fourier 1	0.9467782973395	2	0
44 fourier 1	0.2726597146827	1	0
45 fourier 1	1.659715194912	2	180


Improper Coeffs

1 3.5	-1	2
2 0.3333333333333333	-1	2


Atoms

1	4	1	0.62321026	-2.3219993	-0.41936582	-2.9497378
2	4	2	-0.56593631	-1.5150218	-1.3863262	-2.9090323
3	4	3	-0.49631663	-2.7458333	0.22229273	-1.7815199
4	4	4	0.10820555	-2.2699905	-0.11140952	-0.47752669
5	4	4	0.13091998	-0.952724	0.61993162	-0.17375028
6	4	5	-0.70392673	0.044760501	0.16766043	-1.0506565
7	4	6	0.40654652	0.75508603	0.8618934	-1.0624979
8	4	4	0.042917387	-0.50681497	0.3754532	1.2756977
9	4	3	-0.48073749	-1.4494658	0.93710826	2.165582
10	4	4	0.078084496	-0.99275889	0.84523659	3.5029337
11	4	4	-0.15879098	-0.29629362	2.1412984	3.9358122
12	4	4	-0.13880898	-1.2497285	3.3456612	3.8833025
13	4	4	-0.13880898	-0.54267947	4.682536	4.1708116
14	4	4	-0.15879098	0.080906981	4.7990937	5.5743177
15	4	4	0.078084496	-0.95111867	4.6842807	6.7027144
16	4	3	-0.48073749	-0.33154024	4.946166	7.9478985
17	4	4	0.04291738	-0.59624891	6.268314	8.3700928
18	4	4	0.13457449	0.15782067	6.558522	9.6788691
19	4	5	-0.70392673	0.22584684	7.9452956	9.8984083
20	4	6	0.40654652	-0.70496066	8.2805628	9.9895472
21	4	4	0.087914524	-0.47205724	5.865053	10.90284
22	4	3	-0.49095391	-0.33288856	4.4455743	10.825243
23	4	1	0.78290839	-1.3508636	3.5849899	10.400484
24	4	2	-0.61605512	-2.4819063	4.0253949	10.065156
25	4	7	0.099052628	0.067002977	6.2083363	11.810649
26	4	7	0.099052628	-1.5364379	6.161659	11.026127
27	4	7	0.092374635	1.2013072	6.1880795	9.5693148
28	4	7	0.088721467	-1.6878506	6.4187588	8.5356286
29	4	7	0.088721467	-0.24765255	6.9930859	7.5997836
30	4	7	0.07670488	-1.8322515	5.3374499	6.4917146
31	4	7	0.07670488	-1.3304413	3.6421688	6.7378433
32	4	8	0.091791888	0.87536625	4.0352262	5.7114419
33	4	8	0.091791888	0.57548249	5.7918615	5.6411836
34	4	8	0.086611969	0.25687447	4.836599	3.4144221
35	4	8	0.086611969	-1.2767814	5.5063992	4.0366002
36	4	8	0.086611969	-1.6885792	3.4161266	2.864053
37	4	8	0.086611969	-2.0938084	3.1961101	4.5891443
38	4	8	0.091791888	0.5840722	2.3271581	3.2847338
39	4	8	0.091791888	0.067216264	2.0008715	4.9752399
40	4	7	0.07670488	-1.8739007	0.67817598	4.1588071
41	4	7	0.07670488	-0.31214797	-0.02217303	3.6790907
42	4	7	0.088721467	-0.41557552	-0.72124457	1.44645
43	4	7	0.088721467	0.49324984	0.84594667	1.4144178
44	4	7	0.092374635	-1.1186828	1.7135543	-0.32034563
45	4	7	0.088719962	-3.0422852	0.2089284	0.25401036
46	4	7	0.088719962	-2.145978	-1.2121984	-0.37531773
47	5	9	-0.47109817	-1.1641788	2.5388232	10.359579
48	5	4	0.033439805	-1.433182	2.0932958	8.9955904
49	5	4	-0.15376744	-1.0737713	0.61315719	8.844218
50	5	4	0.094200139	-1.3234682	0.12560401	7.4153746
51	5	9	-0.85185348	-0.98887855	-1.3010904	7.3109345
52	5	4	0.095575718	-1.3747608	-1.8516676	6.0022433
53	5	4	-0.16596835	-2.8219961	-2.3620254	6.0168998
54	5	4	0.03894698	-3.0186441	-3.4996044	7.0256518
55	5	9	-0.63710778	-4.398141	-3.976051	6.9819256
56	5	10	0.36394341	-4.5122275	-4.6904942	7.7367608
57	5	7	0.092722145	-2.3243108	-4.3380365	6.7957325
58	5	7	0.092722145	-2.7983128	-3.1293399	8.0511801
59	5	8	0.098503125	-3.0731152	-2.7328006	4.9992363
60	5	8	0.098503125	-3.5194514	-1.5303373	6.253359
61	5	7	0.071909217	-1.2513962	-1.0974948	5.1915826
62	5	7	0.071909217	-0.70466689	-2.7036104	5.7471265
63	5	10	0.37617843	0.051447724	-1.3880428	7.3972509
64	5	7	0.070373525	-2.394479	0.288812	7.1673562
65	5	7	0.070373525	-0.69925359	0.71664418	6.7067777
66	5	8	0.0930275	-0.001214461	0.4698443	9.1018694
67	5	8	0.0930275	-1.6890913	0.0098784637	9.5478045
68	5	7	0.052780201	-2.5084635	2.2516496	8.7544419
69	5	7	0.052780201	-0.82085005	2.6957626	8.2892813
70	5	10	0.3243268	-1.8627984	2.0889626	10.994601
71	2	1	0.62321026	-2.7029427	-0.084644027	-3.9049302
72	2	2	-0.56593625	-3.5068122	0.88404134	-3.9477249
73	2	3	-0.49631663	-2.2939895	-0.73511615	-5.0714504
74	2	4	0.10820555	-2.7546641	-0.35230033	-6.3644991
75	2	4	0.13091998	-2.1280563	-1.2485953	-7.441311
76	2	5	-0.70392673	-2.4258715	-2.5948698	-7.1775586
77	2	6	0.40654652	-3.3746167	-2.7354316	-7.4361137
78	2	4	0.042917387	-0.60583317	-1.0612151	-7.502917
79	2	3	-0.48073749	-0.073108628	-1.7849213	-8.5979499
80	2	4	0.078084496	0.61517816	-2.9486362	-8.1739819
81	2	4	-0.15879098	2.0824176	-2.638774	-7.8495996
82	2	4	-0.13880898	2.8259989	-2.070625	-9.0691628
83	2	4	-0.13880898	4.3316645	-1.8956518	-8.8143104
84	2	4	-0.15965104	4.636835	-0.72864644	-7.8591044
85	2	4	0.082802971	6.146275	-0.51181996	-7.6914016
86	2	3	-0.48189585	6.7552668	-0.21977965	-8.9347063
87	2	4	0.13595508	6.8721236	1.1771546	-9.1185358
88	2	4	0.19596787	7.3113772	1.4759625	-10.555156
89	2	7	0.14221568	7.3457789	2.576043	-10.710914
90	2	3	-0.39671077	6.3933739	0.90059618	-11.477374
91	2	1	0.80031575	7.0737312	0.028631964	-12.294263
92	2	2	-0.42983948	6.530337	-0.63825951	-13.212461
93	2	3	-0.39796774	8.4138583	-0.036796628	-11.993552
94	2	4	0.15560421	8.6871134	0.8443026	-10.912167
95	2	7	0.1251709	9.1299733	0.27352135	-10.068394
96	2	7	0.1251709	9.4017454	1.6275914	-11.24327
97	2	7	0.090743599	7.630205	1.5944144	-8.4173504
98	2	7	0.090743599	5.899354	1.6907799	-8.9463812
99	2	7	0.077591201	6.5981034	-1.4469766	-7.2964595
100	2	7	0.077591201	6.3300244	0.26853861	-6.9144263
101	2	8	0.091791888	4.2086809	-0.94314081	-6.8576124
102	2	8	0.091791888	4.168152	0.20342416	-8.240504
103	2	8	0.086611969	4.8189976	-1.6971278	-9.7940816
104	2	8	0.086611969	4.7594323	-2.8390085	-8.4107166
105	2	8	0.086611969	2.70283	-2.7732921	-9.9225779
106	2	8	0.086611969	2.3816025	-1.0969902	-9.3676674
107	2	8	0.091791888	2.5753529	-3.5797208	-7.5208216
108	2	8	0.091791888	2.1239111	-1.9178317	-7.0063899
109	2	7	0.07670488	0.58160291	-3.6888824	-9.0002901
110	2	7	0.07670488	0.12569352	-3.4442478	-7.3034275
111	2	7	0.088721467	-0.3872052	0.013782661	-7.6767172
112	2	7	0.088721467	-0.14434572	-1.3160205	-6.5189147
113	2	7	0.092374635	-2.5497927	-0.95691035	-8.4314571
114	2	7	0.088719962	-3.8616734	-0.45117289	-6.4066853
115	2	7	0.088719962	-2.4928334	0.71077579	-6.5590211
116	3	9	-0.63710784	-4.5416655	-4.477078	6.0756527
117	3	4	0.03894698	-3.321642	-4.3309614	5.2891594
118	3	4	-0.16596836	-3.4290818	-5.1400135	3.9936404
119	3	4	0.095575718	-2.1501945	-5.0250031	3.1598983
120	3	9	-0.85176735	-2.2959512	-5.7946506	1.9174557
121	3	4	0.097423261	-1.1594561	-5.5727856	1.0094133
122	3	4	-0.16797246	-1.4053085	-4.3649833	0.094406564
123	3	4	0.038958387	-2.6295793	-4.5663956	-0.8052156
124	3	9	-0.97426217	-2.803774	-3.4113691	-1.6806509
125	3	10	0.38457285	-2.02988	-3.4124861	-2.3831635
126	3	10	0.38457285	-3.6909241	-3.5499652	-2.2178675
127	3	7	0.082036679	-2.5046977	-5.4866061	-1.4189813
128	3	7	0.082036679	-3.5383102	-4.6826521	-0.17572004
129	3	8	0.098997144	-0.50603629	-4.2206908	-0.54372132
130	3	8	0.098997144	-1.5373785	-3.4449158	0.70214681
131	3	7	0.071909217	-0.20981188	-5.4278761	1.5734931
132	3	7	0.071909217	-1.0153593	-6.4737094	0.37027445
133	3	10	0.37617843	-2.3025373	-6.8104201	2.1751145
134	3	7	0.071909217	-1.9741753	-3.9517252	2.9294276
135	3	7	0.071909217	-1.2866835	-5.4093655	3.7490056
136	3	8	0.098503125	-3.6107186	-6.2082352	4.2452979
137	3	8	0.098503125	-4.2893609	-4.7674223	3.3953138
138	3	7	0.092722145	-3.1525611	-3.2561437	5.0529888
139	3	7	0.092722145	-2.4589245	-4.7014958	5.8841962
140	3	10	0.36394338	-5.3138309	-3.9749977	5.5789114
141	4	1	0.62321026	-2.9661097	1.9863463	30.738979
142	4	2	-0.56593631	-2.3758611	1.4586177	31.719281
143	4	3	-0.49631663	-2.2658041	2.3709462	29.591047
144	4	4	0.10820555	-0.86719029	2.1521394	29.406155
145	4	4	0.13091998	-0.60327585	0.73908146	28.862145
146	4	5	-0.70392673	-0.99557871	-0.20962958	29.818458
147	4	6	0.40654652	-1.1285985	-1.0676981	29.336082
148	4	4	0.042917387	0.88372348	0.54387882	28.530131
149	4	3	-0.48073749	1.2561515	1.4139938	27.481257
150	4	4	0.078084496	2.5850417	1.156825	27.064788
151	4	4	-0.15879098	2.6089574	0.21372835	25.855565
152	4	4	-0.13880898	1.883202	0.8211706	24.644541
153	4	4	-0.13880898	1.763353	-0.15957018	23.464034
154	4	4	-0.15879098	3.1047073	-0.62153476	22.86434
155	4	4	0.078084496	3.9382235	0.53251155	22.294283
156	4	3	-0.48073749	5.0798713	0.019152312	21.633944
157	4	4	0.04291738	4.8788317	-0.0083581678	20.235652
158	4	4	0.13457449	6.0948314	-0.650494	19.546635
159	4	5	-0.70392673	5.7581786	-1.037907	18.237994
160	4	6	0.40654652	5.5086653	-0.21702914	17.73698
161	4	4	0.087914524	7.3279763	0.2737825	19.51806
162	4	3	-0.49095391	7.8486042	0.48717825	20.830964
163	4	1	0.78290839	7.5914503	1.6308059	21.594696
164	4	2	-0.61605512	6.8765831	2.5671065	21.149764
165	4	7	0.099052628	8.1188069	-0.22264646	18.917484
166	4	7	0.099052628	7.0939495	1.2364991	19.013591
167	4	7	0.092374635	6.3658163	-1.5729766	20.106713
168	4	7	0.088721467	4.7344434	1.0222048	19.837252
169	4	7	0.088721467	3.9787366	-0.61648736	19.990299
170	4	7	0.07670488	3.3038166	1.190057	21.651859
171	4	7	0.07670488	4.2999995	1.1626645	23.132818
172	4	8	0.091791888	3.6982903	-1.1767845	23.621188
173	4	8	0.091791888	2.8781532	-1.3379353	22.045739
174	4	8	0.086611969	1.1971925	-1.0560349	23.797141
175	4	8	0.086611969	1.1615723	0.32298033	22.663613
176	4	8	0.086611969	0.8508539	1.1042658	24.945439
177	4	8	0.086611969	2.3929063	1.753287	24.321416
178	4	8	0.091791888	2.1416062	-0.75586989	26.12934
179	4	8	0.091791888	3.6708752	0.022965558	25.594396
180	4	7	0.07670488	3.0490923	2.1230185	26.772184
181	4	7	0.07670488	3.2300817	0.74156582	27.876049
182	4	7	0.088721467	1.4886652	0.75174051	29.44176
183	4	7	0.088721467	1.0353985	-0.5185355	28.23179
184	4	7	0.092374635	-1.20136	0.60663816	27.929516
185	4	7	0.088719962	-0.50467192	2.9003941	28.66934
186	4	7	0.088719962	-0.31489613	2.3214178	30.35688
187	5	9	-0.47109817	8.0076603	1.7091999	22.570202
188	5	4	0.033439805	6.9071348	1.9177728	23.506506
189	5	4	-0.15376744	7.4327722	1.9260624	24.944051
190	5	4	0.094200139	6.294995	2.1189486	25.948993
191	5	9	-0.85185348	6.8361835	2.1432324	27.314584
192	5	4	0.095575718	5.8015988	2.497014	28.299057
193	5	4	-0.16596835	5.7073042	4.0172127	28.486872
194	5	4	0.03894698	7.0158541	4.6112458	29.020875
195	5	9	-0.63710778	6.870454	6.0509356	29.216008
196	5	10	0.36394341	7.8026868	6.4293442	29.50056
197	5	7	0.092722145	7.2894812	4.1273938	29.984693
198	5	7	0.092722145	7.8332236	4.428202	28.288924
199	5	8	0.098503125	4.890595	4.2308947	29.210405
200	5	8	0.098503125	5.4415174	4.506532	27.52563
201	5	7	0.071909217	4.8057741	2.0931021	28.005196
202	5	7	0.071909217	6.0528675	2.036853	29.281418
203	5	10	0.37617843	7.1696451	1.1758476	27.538772
204	5	7	0.070373525	5.7803766	3.0775035	25.721937
205	5	7	0.070373525	5.5616517	1.2869152	25.844064
206	5	8	0.0930275	7.9484766	0.96217034	25.149628
207	5	8	0.0930275	8.1683665	2.7520287	25.063545
208	5	7	0.052780201	6.3996605	2.8824635	23.280009
209	5	7	0.052780201	6.1687903	1.0945583	23.388378
210	5	10	0.3243268	8.6036489	2.5685561	22.56898
211	2	1	0.62321026	-4.0331574	2.1550741	30.788871
212	2	2	-0.56593625	-4.6252907	2.6791362	29.808501
213	2	3	-0.49631663	-4.7316425	1.7871836	31.941217
214	2	4	0.10820555	-6.1366239	1.9803881	32.080655
215	2	4	0.13091998	-6.6114639	1.475733	33.450092
216	2	5	-0.70392673	-5.9079228	2.1310285	34.472996
217	2	6	0.40654652	-6.2859669	3.047121	34.540694
218	2	4	0.042917387	-6.4156439	-0.041003515	33.581373
219	2	3	-0.48073749	-6.9949238	-0.50094512	34.789484
220	2	4	0.078084496	-6.0098279	-0.81982948	35.756758
221	2	4	-0.15879098	-5.5291345	-2.2687314	35.602982
222	2	4	-0.13880898	-6.684612	-3.2702647	35.760601
223	2	4	-0.13880898	-6.2046147	-4.7304671	35.762959
224	2	4	-0.15965104	-5.7464652	-5.2033364	34.372297
225	2	4	0.082802971	-5.3600664	-6.688001	34.376047
226	2	3	-0.48189585	-6.4565003	-7.4937442	34.764088
227	2	4	0.13595508	-7.1472271	-7.9784346	33.629696
228	2	4	0.19596787	-8.4553171	-8.6457245	34.06528
229	2	7	0.14221568	-9.0213819	-8.9733613	33.166478
230	2	3	-0.39671077	-9.2482851	-7.7286992	34.809947
231	2	1	0.80031575	-9.4889698	-8.2602872	36.054937
232	2	2	-0.42983948	-10.16228	-7.6796995	36.945263
233	2	3	-0.39796774	-8.9084265	-9.4956792	36.220542
234	2	4	0.15560421	-8.2314749	-9.8511667	35.022309
235	2	7	0.1251709	-7.157614	-10.033334	35.24027
236	2	7	0.1251709	-8.6840447	-10.773571	34.600148
237	2	7	0.090743599	-6.5235131	-8.7283388	33.092035
238	2	7	0.090743599	-7.4036917	-7.1524085	32.928528
239	2	7	0.077591201	-4.5415831	-6.8405292	35.111891
240	2	7	0.077591201	-4.9344976	-6.9682988	33.3827
241	2	8	0.091791888	-4.858153	-4.6194528	34.052467
242	2	8	0.091791888	-6.5552245	-5.0322361	33.630328
243	2	8	0.086611969	-7.0545833	-5.3646206	36.098011
244	2	8	0.086611969	-5.3802974	-4.8567965	36.498035
245	2	8	0.086611969	-7.1962314	-3.0767285	36.729115
246	2	8	0.086611969	-7.4305124	-3.1231028	34.950333
247	2	8	0.091791888	-4.7587235	-2.4671407	36.379874
248	2	8	0.091791888	-5.051278	-2.3895989	34.608233
249	2	7	0.07670488	-6.4632707	-0.69972025	36.762661
250	2	7	0.07670488	-5.1406615	-0.12198569	35.731172
251	2	7	0.088721467	-6.94862	-0.54146958	32.745254
252	2	7	0.088721467	-5.337205	-0.3037542	33.462678
253	2	7	0.092374635	-7.7014673	1.6903097	33.545907
254	2	7	0.088719962	-6.3715308	3.0637092	31.989775
255	2	7	0.088719962	-6.6741938	1.4389531	31.271711
256	3	9	-0.63710784	6.2276642	6.2071493	30.025561
257	3	4	0.03894698	5.7274634	4.9051654	30.453365
258	3	4	-0.16596836	4.8660906	5.0578865	31.710024
259	3	4	0.095575718	4.3485035	3.7015589	32.196218
260	3	9	-0.85176735	3.5108342	3.8874921	33.388277
261	3	4	0.097423261	2.8542841	2.6323324	33.786903
262	3	4	-0.16797246	1.5073675	2.4568959	33.071707
263	3	4	0.038958387	0.52163457	3.5769675	33.421702
264	3	9	-0.97426217	-0.75379544	3.3506271	32.748749
265	3	10	0.38457285	-1.2160323	2.5241512	33.191142
266	3	10	0.38457285	-1.3685063	4.1740192	32.946238
267	3	7	0.082036679	0.36298442	3.6152136	34.522819
268	3	7	0.082036679	0.93617174	4.553787	33.090712
269	3	8	0.098997144	1.0720313	1.481103	33.379974
270	3	8	0.098997144	1.6591552	2.4248774	31.972048
271	3	7	0.071909217	3.5038462	1.7505019	33.583303
272	3	7	0.071909217	2.6694463	2.6442696	34.885365
273	3	10	0.37617843	4.1406244	4.1793236	34.1734
274	3	7	0.071909217	3.7564683	3.235741	31.37858
275	3	7	0.071909217	5.2109585	3.0382923	32.434297
276	3	8	0.098503125	5.4738655	5.5303435	32.513028
277	3	8	0.098503125	4.0007322	5.71991	31.486912
278	3	7	0.092722145	5.128246	4.444951	29.6356
279	3	7	0.092722145	6.5895902	4.239893	30.676515
280	3	10	0.36394338	5.4207838	6.7640618	29.659681
281	4	1	0.62321026	2.6081257	-2.3829094	60.345174
282	4	2	-0.56593631	2.8912392	-2.0732137	59.156975
283	4	3	-0.49631663	1.9458763	-1.4871772	61.190859
284	4	4	0.10820555	1.4896512	-0.1987479	60.77856
285	4	4	0.13091998	0.10728037	-0.29642368	60.113849
286	4	5	-0.70392673	0.21103295	-1.0407805	58.929088
287	4	6	0.40654652	-0.70245077	-1.3637353	58.710205
288	4	4	0.042917387	-0.45099125	1.0981371	59.792855
289	4	3	-0.48073749	-0.67263698	1.8105797	60.992538
290	4	4	0.078084496	-1.3144764	3.0454988	60.730721
291	4	4	-0.15879098	-2.833429	2.9226392	60.903674
292	4	4	-0.13880898	-3.2136363	2.5305475	62.340334
293	4	4	-0.13880898	-4.7192286	2.257004	62.508202
294	4	4	-0.15879098	-5.634109	3.4639794	62.22806
295	4	4	0.078084496	-5.373283	4.6475822	63.167524
296	4	3	-0.48073749	-6.342104	5.6558713	62.949158
297	4	4	0.04291738	-7.3524397	5.6007983	63.935354
298	4	4	0.13457449	-8.438303	6.6459372	63.628234
299	4	5	-0.70392673	-9.6095372	6.349253	64.346673
300	4	6	0.40654652	-9.3886358	6.3986837	65.314078
301	4	4	0.087914524	-7.9885833	8.0884007	63.932867
302	4	3	-0.49095391	-6.9546232	8.5099724	63.042074
303	4	1	0.78290839	-5.5952105	8.5141583	63.372647
304	4	2	-0.61605512	-5.1976917	8.1476779	64.509893
305	4	7	0.099052628	-8.8588564	8.7612465	63.783035
306	4	7	0.099052628	-7.6763673	8.1936081	64.994721
307	4	7	0.092374635	-8.6875205	6.5817282	62.545708
308	4	7	0.088721467	-6.9284474	5.799889	64.946405
309	4	7	0.088721467	-7.8293712	4.5944614	63.938879
310	4	7	0.07670488	-5.3175707	4.2981854	64.226941
311	4	7	0.07670488	-4.3831467	5.086308	62.926139
312	4	8	0.091791888	-5.5324765	3.7920182	61.171877
313	4	8	0.091791888	-6.6848034	3.1272563	62.359677
314	4	8	0.086611969	-5.0117391	1.4263497	61.830265
315	4	8	0.086611969	-4.9006042	1.9048083	63.546821
316	4	8	0.086611969	-2.6752391	1.5974256	62.61572
317	4	8	0.086611969	-2.8827727	3.3166233	63.051434
318	4	8	0.091791888	-3.230752	2.1712469	60.188807
319	4	8	0.091791888	-3.2842844	3.9062996	60.655863
320	4	7	0.07670488	-0.93273255	3.7947142	61.45697
321	4	7	0.07670488	-1.0851744	3.4570724	59.718452
322	4	7	0.088721467	0.276947	1.6398339	59.147179
323	4	7	0.088721467	-1.404036	0.96875157	59.230981
324	4	7	0.092374635	-0.58586819	-0.80779678	60.823134
325	4	7	0.088719962	1.4138894	0.43711269	61.686384
326	4	7	0.088719962	2.2265241	0.2777078	60.094769
327	5	9	-0.47109817	-4.8847363	8.8323855	62.648114
328	5	4	0.033439805	-3.9261208	7.7473921	62.460581
329	5	4	-0.15376744	-2.9406152	8.1020617	61.344388
330	5	4	0.094200139	-1.9380423	6.9700076	61.109971
331	5	9	-0.85185348	-0.99599665	7.3514998	60.049156
332	5	4	0.095575718	0.087467839	6.3659767	59.909293
333	5	4	-0.16596835	1.2620468	6.692682	60.841386
334	5	4	0.03894698	1.8885231	8.0542177	60.518764
335	5	9	-0.63710778	3.0204332	8.3084084	61.405382
336	5	10	0.36394341	3.3667874	9.2754401	61.210166
337	5	7	0.092722145	2.2286764	8.0766338	59.459649
338	5	7	0.092722145	1.1309796	8.8557557	60.663728
339	5	8	0.098503125	2.0340706	5.9014266	60.722777
340	5	8	0.098503125	0.92648202	6.6790352	61.900287
341	5	7	0.071909217	-0.27495828	5.3320257	60.111181
342	5	7	0.071909217	0.45988096	6.3719774	58.859917
343	5	10	0.37617843	-1.5275495	7.368582	59.146687
344	5	7	0.070373525	-1.3919906	6.7781493	62.058777
345	5	7	0.070373525	-2.484772	6.043799	60.819616
346	5	8	0.0930275	-3.5060237	8.2956404	60.406229
347	5	8	0.0930275	-2.3876709	9.0271716	61.620109
348	5	7	0.052780201	-3.3764094	7.5640398	63.411191
349	5	7	0.052780201	-4.4758724	6.8203109	62.186569
350	5	10	0.3243268	-4.3796561	9.646561	63.067291
351	2	1	0.62321026	2.8911111	-3.3559717	60.722822
352	2	2	-0.56593625	2.6057068	-3.6685067	61.9091
353	2	3	-0.49631663	3.5676236	-4.2456342	59.884993
354	2	4	0.10820555	3.9743056	-5.542779	60.312508
355	2	4	0.13091998	4.6885157	-6.2810512	59.172173
356	2	5	-0.70392673	5.7871562	-5.5286321	58.727686
357	2	6	0.40654652	6.5018789	-5.633004	59.409598
358	2	4	0.042917387	3.7356734	-6.5429957	57.997632
359	2	3	-0.48073749	4.3757573	-7.3512718	57.026228
360	2	4	0.078084496	4.7412456	-6.6042819	55.878995
361	2	4	-0.15879098	3.5914612	-6.5460364	54.864779
362	2	4	-0.13880898	3.1737555	-7.9499953	54.39845
363	2	4	-0.13880898	2.1299635	-7.911765	53.270784
364	2	4	-0.15965104	0.74247848	-7.4674905	53.765713
365	2	4	0.082802971	-0.30516637	-7.5255645	52.64651
366	2	3	-0.48189585	-0.43049073	-8.8409257	52.140463
367	2	4	0.13595508	-1.4966224	-9.5207167	52.773015
368	2	4	0.19596787	-1.4675644	-11.002873	52.387688
369	2	7	0.14221568	-2.2718737	-11.54321	52.932431
370	2	3	-0.39671077	-0.20830761	-11.572024	52.726218
371	2	1	0.80031575	0.36808573	-12.082159	51.586899
372	2	2	-0.42983948	1.4912427	-12.648842	51.564601
373	2	3	-0.39796774	-0.41774506	-11.900549	50.473284
374	2	4	0.15560421	-1.6132903	-11.23408	50.856542
375	2	7	0.1251709	-1.7114244	-10.286022	50.286082
376	2	7	0.1251709	-2.4866513	-11.886046	50.641951
377	2	7	0.090743599	-2.4714658	-9.0862116	52.454676
378	2	7	0.090743599	-1.4169238	-9.4557762	53.88169
379	2	7	0.077591201	0.025076179	-6.8656803	51.815765
380	2	7	0.077591201	-1.2696807	-7.0981037	53.011755
381	2	8	0.091791888	0.79352941	-6.4210058	54.132556
382	2	8	0.091791888	0.41910957	-8.1121558	54.610535
383	2	8	0.086611969	2.0512724	-8.9377148	52.848775
384	2	8	0.086611969	2.4766082	-7.2387329	52.456745
385	2	8	0.086611969	4.0723493	-8.4817289	54.015022
386	2	8	0.086611969	2.7767386	-8.5346077	55.255867
387	2	8	0.091791888	3.9265615	-5.9493296	53.98836
388	2	8	0.091791888	2.7270496	-6.0229158	55.3248
389	2	7	0.07670488	5.6102173	-7.1055185	55.404098
390	2	7	0.07670488	5.0855757	-5.5737194	56.128932
391	2	7	0.088721467	2.8561515	-7.1078421	58.373151
392	2	7	0.088721467	3.337765	-5.5789437	57.5996
393	2	7	0.092374635	5.0387036	-7.2675698	59.556205
394	2	7	0.088719962	4.668796	-5.4465072	61.175896
395	2	7	0.088719962	3.0874579	-6.1265522	60.643015
396	3	9	-0.63710784	3.7945661	7.6574451	61.140952
397	3	4	0.03894698	3.2889442	6.7635642	60.104756
398	3	4	-0.16596836	4.413041	5.8572755	59.59532
399	3	4	0.095575718	3.9153556	4.9252276	58.487393
400	3	9	-0.85176735	5.0119492	4.0577042	58.03778
401	3	4	0.097423261	4.5361791	3.0313479	57.096705
402	3	4	-0.16797246	4.0653117	1.7719948	57.837503
403	3	4	0.038958387	5.1986435	1.118196	58.63552
404	3	9	-0.97426217	4.7152319	-0.092025741	59.293163
405	3	10	0.38457285	4.536505	-0.81490855	58.559723
406	3	10	0.38457285	5.4912064	-0.46178132	59.889812
407	3	7	0.082036679	6.0448977	0.86443203	57.958358
408	3	7	0.082036679	5.5658102	1.827261	59.408817
409	3	8	0.098997144	3.6849031	1.0457593	57.086111
410	3	8	0.098997144	3.2251757	2.0208581	58.519818
411	3	7	0.071909217	3.7119723	3.4181712	56.454786
412	3	7	0.071909217	5.366001	2.7453721	56.410747
413	3	10	0.37617843	5.7014922	4.6601992	57.528124
414	3	7	0.071909217	3.0800129	4.3121591	58.89035
415	3	7	0.071909217	3.5333757	5.5319102	57.635066
416	3	8	0.098503125	5.2402649	6.488749	59.202429
417	3	8	0.098503125	4.8054268	5.2459267	60.437451
418	3	7	0.092722145	2.4581866	6.1452748	60.513606
419	3	7	0.092722145	2.8947955	7.3708996	59.261289
420	3	10	0.36394338	4.0048984	7.0863863	61.992262
421	4	1	0.62321026	-1.6119434	0.68483859	85.165251
422	4	2	-0.56593631	-1.2509083	-0.52124161	85.21916
423	4	3	-0.49631663	-2.0101071	1.3756094	86.314336
424	4	4	0.10820555	-1.987287	0.81110989	87.625443
425	4	4	0.13091998	-0.59250818	0.9515218	88.255687
426	4	5	-0.70392673	0.3306496	0.19450698	87.518668
427	4	6	0.40654652	1.2321492	0.55543057	87.7277
428	4	4	0.042917387	-0.59518107	0.47267837	89.715209
429	4	3	-0.48073749	-1.4310627	1.3080515	90.489415
430	4	4	0.078084496	-1.3430378	0.97138874	91.862164
431	4	4	-0.15879098	-0.3272854	1.8661705	92.583162
432	4	4	-0.13880898	-0.72991623	3.3482683	92.523499
433	4	4	-0.13880898	0.34208495	4.2844315	93.110206
434	4	4	-0.15879098	0.64375935	4.07041	94.605352
435	4	4	0.078084496	-0.57556522	4.3060059	95.504952
436	4	3	-0.48073749	-0.18922937	4.2358128	96.864645
437	4	4	0.04291738	-0.029331538	5.5307892	97.406736
438	4	4	0.13457449	0.47514381	5.4305514	98.856285
439	4	5	-0.70392673	1.0034312	6.6660483	99.269112
440	4	6	0.40654652	0.26760628	7.33284	99.2365
441	4	4	0.087914524	-0.61651145	4.9720331	99.843098
442	4	3	-0.49095391	-1.0006616	3.6176831	99.601285
443	4	1	0.78290839	-2.1469014	3.248227	98.889291
444	4	2	-0.61605512	-2.9319538	4.1133976	98.419363
445	4	7	0.099052628	-0.19945363	5.0267056	100.87053
446	4	7	0.099052628	-1.4942619	5.6537308	99.81271
447	4	7	0.092374635	1.3036538	4.6884195	98.886378
448	4	7	0.088721467	-0.99505756	6.0864995	97.392976
449	4	7	0.088721467	0.7215052	6.1029744	96.815941
450	4	7	0.07670488	-1.083017	5.262143	95.229561
451	4	7	0.07670488	-1.3123222	3.4948013	95.331018
452	4	8	0.091791888	1.0479158	3.0505092	94.778332
453	4	8	0.091791888	1.4441352	4.7856087	94.892673
454	4	8	0.086611969	1.2853323	4.155233	92.536848
455	4	8	0.086611969	0.014052841	5.3357086	92.958943
456	4	8	0.086611969	-0.87880035	3.6407389	91.461086
457	4	8	0.086611969	-1.7007217	3.5018017	93.040232
458	4	8	0.091791888	0.6778684	1.7287966	92.131182
459	4	8	0.091791888	-0.27676324	1.5377491	93.642338
460	4	7	0.07670488	-2.3429581	1.1260743	92.321209
461	4	7	0.07670488	-1.0885631	-0.10130819	92.038873
462	4	7	0.088721467	-0.95675108	-0.58006177	89.750314
463	4	7	0.088721467	0.4522385	0.50648867	90.092709
464	4	7	0.092374635	-0.30478676	2.0293051	88.230341
465	4	7	0.088719962	-2.724518	1.3669137	88.243322
466	4	7	0.088719962	-2.3059074	-0.2544167	87.599059
467	5	9	-0.47109817	-2.3576079	2.216289	98.741996
468	5	4	0.033439805	-2.4697556	1.9872929	97.30453
469	5	4	-0.15376744	-2.6615412	0.49520393	97.022062
470	5	4	0.094200139	-2.7577736	0.22362596	95.519186
471	5	9	-0.85185348	-2.9623277	-1.2122459	95.285211
472	5	4	0.095575718	-3.2309831	-1.4951359	93.866581
473	5	4	-0.16596835	-4.7302351	-1.3992751	93.553173
474	5	4	0.03894698	-5.5487848	-2.4232893	94.347974
475	5	9	-0.63710778	-6.9616225	-2.3195229	93.994354
476	5	10	0.36394341	-7.4935278	-2.9730135	94.613424
477	5	7	0.092722145	-5.1830358	-3.4523263	94.135276
478	5	7	0.092722145	-5.4350488	-2.2257563	95.436733
479	5	8	0.098503125	-4.8736659	-1.5856789	92.466502
480	5	8	0.098503125	-5.1027245	-0.37557519	93.770779
481	5	7	0.071909217	-2.6638441	-0.80568801	93.200112
482	5	7	0.071909217	-2.8866639	-2.5257239	93.623168
483	5	10	0.37617843	-2.0740031	-1.7034706	95.543798
484	5	7	0.070373525	-3.6104163	0.80582635	95.107777
485	5	7	0.070373525	-1.8210891	0.56181792	95.019856
486	5	8	0.0930275	-1.8022119	-0.069852049	97.445814
487	5	8	0.0930275	-3.5936479	0.14256723	97.516453
488	5	7	0.052780201	-3.3295465	2.5663234	96.8984
489	5	7	0.052780201	-1.5400572	2.3405015	96.806842
490	5	10	0.3243268	-3.293125	2.0409516	99.17531
491	2	1	0.62321026	-1.6244021	1.1939485	84.211207
492	2	2	-0.56593625	-1.9815376	2.4005143	84.15605
493	2	3	-0.49631663	-1.2433129	0.50080157	83.059927
494	2	4	0.10820555	-1.2365911	1.1038959	81.768813
495	2	4	0.13091998	-0.76965366	0.094872993	80.71082
496	2	5	-0.70392673	-1.5952853	-1.0402654	80.733343
497	2	6	0.40654652	-2.4479499	-0.7843754	80.292651
498	2	4	0.042917387	0.68766563	-0.3244617	80.94841
499	2	3	-0.48073749	1.1378228	-1.1372114	79.879093
500	2	4	0.078084496	1.2355103	-2.4988269	80.258804
501	2	4	-0.15879098	2.6048536	-2.8054246	80.879228
502	2	4	-0.13880898	3.7517204	-2.5067321	79.900188
503	2	4	-0.13880898	5.1208036	-2.9484504	80.441566
504	2	4	-0.15965104	5.622007	-2.0481356	81.584228
505	2	4	0.082802971	7.0289409	-2.4480666	82.04698
506	2	3	-0.48189585	7.956998	-2.349159	80.983546
507	2	4	0.13595508	8.6206903	-1.1011614	81.013354
508	2	4	0.19596787	9.4399568	-0.91903748	79.732049
509	2	7	0.14221568	9.9129698	0.086881829	79.734498
510	2	3	-0.39671077	8.5977692	-1.0380622	78.591516
511	2	1	0.80031575	9.0658518	-2.0600719	77.79974
512	2	2	-0.42983948	8.5270721	-2.4098144	76.71784
513	2	3	-0.39796774	10.186323	-2.6605107	78.323825
514	2	4	0.15560421	10.525249	-2.0173781	79.545261
515	2	7	0.1251709	10.530213	-2.7614356	80.370018
516	2	7	0.1251709	11.532969	-1.5587021	79.4559
517	2	7	0.090743599	9.3077953	-1.0527171	81.888565
518	2	7	0.090743599	7.8955677	-0.25856049	81.076201
519	2	7	0.077591201	7.0042265	-3.5056675	82.386856
520	2	7	0.077591201	7.3157428	-1.8457263	82.942159
521	2	8	0.091791888	4.9384825	-2.1331284	82.454792
522	2	8	0.091791888	5.6274191	-0.98753028	81.254119
523	2	8	0.086611969	5.8471218	-2.9024573	79.600612
524	2	8	0.086611969	5.0694447	-4.0046597	80.784464
525	2	8	0.086611969	3.5650321	-3.0571476	78.951811
526	2	8	0.086611969	3.7764908	-1.4220005	79.66081
527	2	8	0.091791888	2.6294667	-3.8807612	81.161197
528	2	8	0.091791888	2.726792	-2.2057351	81.805503
529	2	7	0.07670488	1.1098912	-3.12028	79.347819