Title

11500 atoms
11375 bonds
21000 angles
38000 dihedrals
2250 impropers

11 atom types
14 bond types
9 angle types
35 dihedral types
3 improper types
-13.07890549 136.3683595 xlo xhi
-13.53926929 135.9972526 ylo yhi
-13.72315112 136.6922852 zlo zhi
0.0 0.0 0.0 xy xz yz

Masses

1	12.01078
2	15.99943
3	14.00672
4	12.01078
5	1.007947
6	1.007947
7	1.007947
8	15.99943
9	12.01078
10	15.99943
11	1.007947


Pair Coeffs

1	0.086879315	3.4806469
2	0.2102061	3.0398122
3	0.16769152	3.206876
4	0.10884061	3.3795318
5	0.014090815	1.1034277
6	0.016409246	2.5832257
7	0.015779483	2.6445434
8	0.16846514	3.0251065
9	0.21	3.3996695
10	0.20947353	2.99716
11	1.2326e-05	0.53453923

Bond Coeffs

1 harmonic	582.698766451	1.225198386222
2 harmonic	492.76746816345	1.381897776683
3 harmonic	279.1350963404	1.454628925034
4 harmonic	352.0565580496	1.450098586273
5 harmonic	505.144496193	1.019481865027
6 harmonic	264.62148576755	1.52190126495
7 harmonic	370.04670688625	1.093899492634
8 harmonic	301.15400723785	1.345741232799
9 harmonic	366.7408841747	1.425895053732
10 harmonic	300.03137914615	1.451203938761
11 harmonic	366.34047229585	1.464762957261
12 harmonic	602.81384337	1.196112346392
13 harmonic	329.96998057905	1.427343958716
14 harmonic	543.5267831885	0.9716763312559


Angle Coeffs

1 harmonic	55.42182150775	117.3465570514
2 harmonic	63.44422595415	115.5071327674
3 harmonic	57.8982893754	126.8062420451
4 harmonic	53.20531626545	116.5475862634
5 harmonic	65.09061609600001	110.3538806181
6 harmonic	201.41175231035	127.4691416191
7 harmonic	48.776492647595	115.6030999533
8 harmonic	55.07882548015	112.8714009681
9 harmonic	33.56981613361	180


Dihedral Coeffs

1 fourier 1	-0.1488678166443	4	180
2 fourier 1	-0.1230328948768	3	180
3 fourier 1	0.2939295466901	2	0
4 fourier 1	-0.3024127022865	1	0
5 fourier 1	0.182238503271	2	0
6 fourier 1	0.02972342374561	3	0
7 fourier 1	1.809047390003	2	180
8 fourier 1	-0.04816277792592	1	0
9 fourier 1	3.101948770557	2	180
10 fourier 1	-0.4252153282372	1	0
11 fourier 1	2.348375642009	2	180
12 fourier 1	1.256156174911	1	0
13 fourier 1	0.9974165607242	2	180
14 fourier 1	0.1155372516788	3	0
15 fourier 1	0.09223874044423	3	0
16 fourier 1	0.3159935921949	2	180
17 fourier 1	0.3247796806857	1	180
18 fourier 1	0.1040663847541	3	0
19 fourier 1	2.779853741805	2	180
20 fourier 1	0.1918272375143	3	0
21 fourier 1	0.9202179876409	1	180
22 fourier 1	0.0473758381877	3	0
23 fourier 1	0.4860993122944	2	180
24 fourier 1	0.8916986138746	1	0
25 fourier 1	1.163809172478	2	180
26 fourier 1	0.1679186987369	1	180
27 fourier 1	0.1911926717192	3	0
28 fourier 1	0.1115525666802	3	0
29 fourier 1	0.3432490222662	1	0
30 fourier 1	0.457973137376	1	0
31 fourier 1	-1.382973039546	1	0
32 fourier 1	0	1	0
33 fourier 1	0.3445382149273	3	0
34 fourier 1	0.1364556373303	1	0
35 fourier 1	0.3026390167484	3	0


Improper Coeffs

1 0.3333333333333333	-1	2
2 0.3666666666666667	-1	2
3 3.5	-1	2


Atoms

1	6	1	0.54377282	0.29750644	5.6960362	0.82436291
2	6	2	-0.68127608	-0.62419335	6.4456001	1.2448799
3	6	3	-0.52128267	0.13938756	4.2752024	0.81537044
4	6	4	0.031512628	-1.0873688	3.6370012	1.2906818
5	6	4	-0.14528178	-0.99327677	2.1128751	1.1677011
6	6	4	-0.1418936	-2.2867905	1.4383261	1.6492019
7	6	4	-0.1418936	-2.1746813	-0.095110924	1.7185379
8	6	4	-0.14399474	-1.8943017	-0.78829378	0.37266498
9	6	4	0.025713318	-3.0045295	-0.56209356	-0.66230449
10	6	3	-0.46486759	-2.7777996	-1.3787278	-1.8538321
11	6	1	0.78711361	-3.6801908	-1.3541593	-2.9631631
12	6	2	-0.60573799	-4.7064104	-0.62327102	-2.943047
13	6	5	0.32677618	-1.9388937	-1.9994303	-1.9197593
14	6	6	0.058517846	-3.025163	0.50648364	-0.96266764
15	6	6	0.058517846	-3.9874802	-0.8316947	-0.21743593
16	6	7	0.089376553	-0.91852742	-0.45408582	-0.039045524
17	6	7	0.089376553	-1.8086757	-1.8788802	0.56748398
18	6	7	0.088136634	-3.1219926	-0.49946345	2.1390571
19	6	7	0.088136634	-1.3649045	-0.36336771	2.4303874
20	6	7	0.088136634	-3.1358283	1.7344824	0.99666677
21	6	7	0.088136634	-2.5217574	1.8039403	2.6724706
22	6	7	0.089376553	-0.81129189	1.8548084	0.10309925
23	6	7	0.089376553	-0.13545851	1.7502045	1.776696
24	6	6	0.054932816	-1.2535573	3.9145202	2.3542464
25	6	6	0.054932816	-1.9466316	4.0040846	0.68652841
26	6	5	0.32019421	0.93252701	3.6958162	0.45709347
27	7	8	-0.49666104	-3.4898657	-1.9440023	-3.7945527
28	7	4	0.11513694	-4.009328	-3.2151794	-3.5121831
29	7	4	-0.13800922	-3.0811707	-3.9644661	-2.5527507
30	7	4	-0.14042391	-3.6091379	-5.3784831	-2.2664487
31	7	4	-0.13920309	-2.7780064	-6.1166917	-1.2049905
32	7	4	-0.14399293	-1.3878232	-6.5237115	-1.7202849
33	7	4	0.03676075	-0.64058405	-7.3910139	-0.70643822
34	7	8	-0.16417357	-0.3800537	-6.6554674	0.45775433
35	7	6	0.088163717	-1.2455944	-8.2924858	-0.46042218
36	7	6	0.088163717	0.32035755	-7.7231984	-1.156931
37	7	7	0.094493589	-0.77748694	-5.6209468	-1.9332561
38	7	7	0.094493589	-1.4977202	-7.1014991	-2.664419
39	7	7	0.089328608	-3.3349508	-7.0335841	-0.91240326
40	7	7	0.089328608	-2.677459	-5.4797166	-0.29879625
41	7	7	0.089149355	-3.6326344	-5.9709154	-3.2067768
42	7	7	0.089149355	-4.6529323	-5.3020131	-1.8911922
43	7	7	0.093353404	-3.0063444	-3.3942812	-1.6007906
44	7	7	0.093353404	-2.070823	-4.0223417	-3.0115272
45	7	6	0.088119118	-4.0915615	-3.7803184	-4.4649626
46	7	6	0.088119118	-5.0295421	-3.1257768	-3.0751713
47	4	1	0.54377287	1.2185766	6.1351973	0.46611535
48	4	2	-0.68127614	2.3110778	5.5486591	0.68698635
49	4	3	-0.52128273	1.1795665	7.3686735	-0.25998084
50	4	4	0.031512632	2.3814058	8.0210448	-0.77670896
51	4	4	-0.14528178	3.1494483	8.7066412	0.35784527
52	4	4	-0.14171013	4.4040742	9.4145608	-0.17682645
53	4	4	-0.13750881	5.1335339	10.224828	0.9063227
54	4	4	-0.1216968	5.8490304	9.3317926	1.9327076
55	4	4	0.1848728	6.65786	10.158429	2.9446846
56	4	3	-0.6368779	7.7534985	10.879307	2.3026437
57	4	9	0.59369242	8.7508672	10.274736	1.7932041
58	4	2	-0.46134839	9.7199616	9.6859763	1.2962368
59	4	6	0.0332176	7.0635528	9.4882108	3.7344201
60	4	6	0.0332176	5.9870702	10.89246	3.4397594
61	4	7	0.083004727	5.0982026	8.7428021	2.500821
62	4	7	0.083004727	6.5224392	8.6164235	1.4129369
63	4	7	0.086853287	4.4134374	10.895903	1.424033
64	4	7	0.086853287	5.8856366	10.867726	0.39871866
65	4	7	0.088136634	4.1026737	10.116097	-0.98423301
66	4	7	0.088136634	5.0989637	8.6684407	-0.6212648
67	4	7	0.089376553	3.4421206	7.9443165	1.108997
68	4	7	0.089376553	2.4822129	9.4496587	0.8480616
69	4	6	0.054932816	3.0260611	7.2714084	-1.2866313
70	4	6	0.054932816	2.0819645	8.7830917	-1.5281812
71	4	5	0.32019424	0.24672104	7.7849948	-0.47904437
72	5	8	-0.16417357	0.097469884	-7.2715438	1.0718937
73	5	4	0.03676075	0.21800785	-8.4952951	0.39820286
74	5	4	-0.14399293	-1.1195475	-9.239773	0.41021964
75	5	4	-0.13915086	-0.99803038	-10.604306	-0.28378372
76	5	4	-0.13505535	-2.3480898	-11.327884	-0.40959233
77	5	4	-0.16591701	-2.8743546	-11.837809	0.94163166
78	5	4	0.09011606	-4.1355519	-12.685737	0.77226032
79	5	10	-0.67909283	-5.1801861	-11.901867	0.26477823
80	5	11	0.38636884	-5.9600627	-12.509504	0.17387304
81	5	6	0.079621761	-3.9292088	-13.539269	0.087052656
82	5	6	0.079621761	-4.4284401	-13.095096	1.7656089
83	5	7	0.09685026	-3.1093934	-10.982316	1.6102951
84	5	7	0.09685026	-2.0941276	-12.458869	1.4320988
85	5	7	0.089328608	-2.2094888	-12.194626	-1.0909911
86	5	7	0.089328608	-3.0947062	-10.647758	-0.87797927
87	5	7	0.089328608	-0.27657348	-11.247079	0.26863176
88	5	7	0.089328608	-0.59563276	-10.450597	-1.3090815
89	5	7	0.094493589	-1.8834995	-8.6223611	-0.11193064
90	5	7	0.094493589	-1.4375535	-9.3786721	1.4655794
91	5	6	0.088163717	0.986808	-9.1069087	0.91589507
92	5	6	0.088163717	0.55817015	-8.3262911	-0.64886268
93	6	1	0.54377282	1.0699629	-1.6210757	22.770434
94	6	2	-0.68127608	1.5794476	-2.7113704	22.39641
95	6	3	-0.52128267	0.71373211	-1.4103657	24.138846
96	6	4	0.031512628	0.92254855	-2.4424591	25.153406
97	6	4	-0.14528178	0.45910595	-1.9566036	26.530397
98	6	4	-0.1418936	0.69287849	-3.0309055	27.603366
99	6	4	-0.1418936	0.077326804	-2.6635143	28.965322
100	6	4	-0.14399474	0.64552787	-1.3874938	29.61294
101	6	4	0.025713318	2.1460393	-1.4861863	29.918978
102	6	3	-0.46486759	2.596603	-0.32654136	30.687256
103	6	1	0.78711361	3.9569863	-0.18633121	31.105858
104	6	2	-0.60573799	4.8121572	-1.0677106	30.823755
105	6	5	0.32677618	1.925506	0.4332821	30.943534
106	6	6	0.058517846	2.7203695	-1.528436	28.969841
107	6	6	0.058517846	2.3457277	-2.4107222	30.503907
108	6	7	0.089376553	0.44740083	-0.50506106	28.968429
109	6	7	0.089376553	0.099713014	-1.2227133	30.566668
110	6	7	0.088136634	0.22886125	-3.5169771	29.662728
111	6	7	0.088136634	-1.0196865	-2.5390132	28.840859
112	6	7	0.088136634	1.7805842	-3.2295752	27.712006
113	6	7	0.088136634	0.22203466	-3.9804704	27.267815
114	6	7	0.089376553	1.0271133	-1.0386532	26.790836
115	6	7	0.089376553	-0.62431915	-1.7071308	26.483383
116	6	6	0.054932816	0.35184412	-3.3531103	24.869125
117	6	6	0.054932816	2.00482	-2.6972455	25.196492
118	6	5	0.32019421	0.29399479	-0.48909744	24.40001
119	7	8	-0.49666104	4.245067	0.64934003	31.648085
120	7	4	0.11513694	3.9511066	0.37697907	32.99154
121	7	4	-0.13800922	2.4476518	0.51791782	33.24289
122	7	4	-0.14042391	2.1098504	0.26848444	34.720671
123	7	4	-0.13920309	0.59661924	0.26968751	34.990031
124	7	4	-0.14399293	-0.022834489	1.6723856	34.878147
125	7	4	0.03676075	-1.4919811	1.6772232	35.30247
126	7	8	-0.16417357	-2.2496923	0.88971172	34.425003
127	7	6	0.088163717	-1.5873567	1.2895817	36.341628
128	7	6	0.088163717	-1.8689741	2.7232036	35.280102
129	7	7	0.094493589	0.045966401	2.040569	33.832892
130	7	7	0.094493589	0.53519083	2.3766911	35.533789
131	7	7	0.089328608	0.433193	-0.11365916	36.020964
132	7	7	0.089328608	0.090751016	-0.42788316	34.286805
133	7	7	0.089149355	2.607118	1.0328545	35.356445
134	7	7	0.089149355	2.5090955	-0.72613115	35.016501
135	7	7	0.093353404	1.9031774	-0.21425767	32.606962
136	7	7	0.093353404	2.1349793	1.5431371	32.949992
137	7	6	0.088119118	4.5023712	1.10351	33.625727
138	7	6	0.088119118	4.2956906	-0.6469407	33.261094
139	4	1	0.54377287	0.90120735	-0.83638802	22.045616
140	4	2	-0.68127614	-0.12098802	-0.1077779	22.14864
141	4	3	-0.52128273	1.8457321	-0.63340747	20.988794
142	4	4	0.031512632	1.6865871	0.40703661	19.974318
143	4	4	-0.14528178	0.62097665	0.00032236447	18.951477
144	4	4	-0.14171013	0.46014359	1.0772492	17.867285
145	4	4	-0.13750881	-0.50441101	0.6520159	16.748953
146	4	4	-0.1216968	-1.9713124	0.6320155	17.207989
147	4	4	0.1848728	-2.928449	0.3069894	16.050458
148	4	3	-0.6368779	-2.9100021	1.345842	15.024422
149	4	9	0.59369242	-3.3553906	2.5177006	15.243866
150	4	2	-0.46134839	-3.7871695	3.6579923	15.458481
151	4	6	0.0332176	-3.9623342	0.18818733	16.443432
152	4	6	0.0332176	-2.6322263	-0.65871963	15.588379
153	4	7	0.083004727	-2.106648	-0.14750845	17.987368
154	4	7	0.083004727	-2.2453873	1.6124802	17.654045
155	4	7	0.086853287	-0.21441189	-0.34939007	16.361667
156	4	7	0.086853287	-0.3958155	1.3787093	15.91423
157	4	7	0.088136634	1.4525335	1.2731379	17.407187
158	4	7	0.088136634	0.10881251	2.0272141	18.326878
159	4	7	0.089376553	-0.34535791	-0.14928861	19.475728
160	4	7	0.089376553	0.92140386	-0.96156421	18.480194
161	4	6	0.054932816	1.4120799	1.3684616	20.46203
162	4	6	0.054932816	2.6572361	0.5522715	19.452936
163	4	5	0.32019424	2.7130383	-1.2158468	20.981219
164	5	8	-0.16417357	-3.1843544	0.92977	34.755983
165	5	4	0.03676075	-3.1716975	1.7482068	35.894384
166	5	4	-0.14399293	-2.5965711	0.98349318	37.089327
167	5	4	-0.13915086	-2.6155422	1.8476877	38.358644
168	5	4	-0.13505535	-1.927049	1.165016	39.551116
169	5	4	-0.16591701	-2.7371267	-0.018626248	40.103882
170	5	4	0.09011606	-2.1124559	-0.58260864	41.380595
171	5	10	-0.67909283	-0.85023036	-1.1237009	41.102644
172	5	11	0.38636884	-0.50086228	-1.4636314	41.967562
173	5	6	0.079621761	-2.0245419	0.22120336	42.146599
174	5	6	0.079621761	-2.7771195	-1.3804627	41.782778
175	5	7	0.09685026	-2.7948389	-0.8311861	39.348476
176	5	7	0.09685026	-3.7713501	0.31634308	40.334543
177	5	7	0.089328608	-1.8043694	1.9224847	40.354825
178	5	7	0.089328608	-0.9102645	0.82489361	39.251351
179	5	7	0.089328608	-3.6650009	2.1041814	38.626352
180	5	7	0.089328608	-2.0782937	2.7993693	38.152605
181	5	7	0.094493589	-1.5508342	0.68242705	36.858558
182	5	7	0.094493589	-3.2026361	0.065851573	37.246884
183	5	6	0.088163717	-4.2153477	2.0544122	36.118354
184	5	6	0.088163717	-2.5754965	2.6687264	35.699944
185	6	1	0.54377282	5.3862806	1.1688481	54.708981
186	6	2	-0.68127608	6.4073781	0.45580849	54.901712
187	6	3	-0.52128267	4.0824092	0.6861453	55.0418
188	6	4	0.031512628	3.8800111	-0.64424023	55.613868
189	6	4	-0.14528178	2.3936091	-0.90525087	55.877346
190	6	4	-0.1418936	2.1772153	-2.2950575	56.495123
191	6	4	-0.1418936	0.6906403	-2.6773672	56.60799
192	6	4	-0.14399474	-0.15156017	-1.7551937	57.508425
193	6	4	0.025713318	0.32198542	-1.7450526	58.968078
194	6	3	-0.46486759	-0.61010456	-0.99771521	59.811127
195	6	1	0.78711361	-0.39631216	-0.84948283	61.217487
196	6	2	-0.60573799	0.60914288	-1.3658129	61.774436
197	6	5	0.32677618	-1.4577431	-0.54813597	59.395472
198	6	6	0.058517846	1.3221039	-1.2677227	59.034563
199	6	6	0.058517846	0.39436133	-2.7898091	59.342284
200	6	7	0.089376553	-0.15791845	-0.72058873	57.104831
201	6	7	0.089376553	-1.1999207	-2.1222474	57.478817
202	6	7	0.088136634	0.62238265	-3.7174146	56.997064
203	6	7	0.088136634	0.24390601	-2.6831394	55.590727
204	6	7	0.088136634	2.6666506	-2.3489554	57.491077
205	6	7	0.088136634	2.6706441	-3.054329	55.850145
206	6	7	0.089376553	2.0153562	-0.12503027	56.571086
207	6	7	0.089376553	1.8350981	-0.83354554	54.917564
208	6	6	0.054932816	4.2719242	-1.4077803	54.907316
209	6	6	0.054932816	4.4435078	-0.7190448	56.570403
210	6	5	0.32019421	3.2663932	1.3148915	54.863146
211	7	8	-0.49666104	-1.0754032	-0.31153083	61.78739
212	7	4	0.11513694	-2.1067833	-1.1986743	62.126059
213	7	4	-0.13800922	-3.0283465	-1.4216296	60.924215
214	7	4	-0.14042391	-4.1926794	-2.3555641	61.287887
215	7	4	-0.13920309	-5.0670027	-2.7111402	60.074813
216	7	4	-0.14399293	-5.9104905	-1.5226445	59.58511
217	7	4	0.03676075	-6.8857718	-1.9375232	58.482763
218	7	8	-0.16417357	-6.1795429	-2.3562343	57.346907
219	7	6	0.088163717	-7.5425592	-2.7589529	58.847587
220	7	6	0.088163717	-7.5240701	-1.0653635	58.220825
221	7	7	0.094493589	-5.2516545	-0.71976259	59.192469
222	7	7	0.094493589	-6.4959625	-1.1090265	60.435667
223	7	7	0.089328608	-5.7495125	-3.5357206	60.376033
224	7	7	0.089328608	-4.4252258	-3.0893885	59.248928
225	7	7	0.089149355	-4.8178194	-1.8896432	62.080265
226	7	7	0.089149355	-3.778061	-3.3014611	61.699643
227	7	7	0.093353404	-2.4389653	-1.8664987	60.092555
228	7	7	0.093353404	-3.4213383	-0.43659565	60.592713
229	7	6	0.088119118	-2.6891961	-0.75693627	62.962478
230	7	6	0.088119118	-1.6824422	-2.1671347	62.475098
231	4	1	0.54377287	5.5001034	2.1579281	54.286679
232	4	2	-0.68127614	4.6295988	2.5938737	53.48759
233	4	3	-0.52128273	6.6313058	2.9571313	54.649799
234	4	4	0.031512632	6.851643	4.30258	54.122321
235	4	4	-0.14528178	7.3553458	4.2362068	52.676975
236	4	4	-0.14171013	7.6112793	5.6447264	52.118692
237	4	4	-0.13750881	8.241362	5.6205641	50.717168
238	4	4	-0.1216968	7.2520958	5.1686248	49.630882
239	4	4	0.1848728	7.8686142	5.2513982	48.225647
240	4	3	-0.6368779	8.1768793	6.6283223	47.849672
241	4	9	0.59369242	7.2643181	7.492382	47.648645
242	4	2	-0.46134839	6.3762205	8.3329329	47.454957
243	4	6	0.0332176	7.1671442	4.8095879	47.48389
244	4	6	0.0332176	8.8048381	4.6542105	48.198991
245	4	7	0.083004727	6.9599408	4.1122304	49.809994
246	4	7	0.083004727	6.3310138	5.789433	49.670872
247	4	7	0.086853287	9.1342427	4.9574896	50.716728
248	4	7	0.086853287	8.5888227	6.6510502	50.484773
249	4	7	0.088136634	8.3098159	6.1779892	52.798823
250	4	7	0.088136634	6.6600168	6.2205693	52.094267
251	4	7	0.089376553	6.5975184	3.7190322	52.053074
252	4	7	0.089376553	8.2986868	3.6471611	52.650088
253	4	6	0.054932816	5.9073649	4.8879065	54.179659
254	4	6	0.054932816	7.6112216	4.8152898	54.751018
255	4	5	0.32019424	7.2920232	2.5829902	55.367423
256	5	8	-0.16417357	-6.8640536	-2.6149411	56.676636
257	5	4	0.03676075	-8.1132372	-2.4020415	57.276778
258	5	4	-0.14399293	-8.417285	-3.5206305	58.276658
259	5	4	-0.13915086	-9.8020995	-3.3309892	58.912804
260	5	4	-0.13505535	-10.09262	-4.3585535	60.018138
261	5	4	-0.16591701	-10.319804	-5.7745503	59.464852
262	5	4	0.09011606	-10.758508	-6.745284	60.561894
263	5	10	-0.67909283	-9.7358333	-6.9003682	61.507058
264	5	11	0.38636884	-10.085304	-7.5324073	62.1883
265	5	6	0.079621761	-11.682401	-6.3667942	61.055627
266	5	6	0.079621761	-10.986623	-7.7315071	60.097752
267	5	7	0.09685026	-9.386618	-6.1607765	59.002018
268	5	7	0.09685026	-11.109298	-5.7442133	58.683311
269	5	7	0.089328608	-11.008388	-4.0323256	60.556376
270	5	7	0.089328608	-9.2554739	-4.365209	60.751988
271	5	7	0.089328608	-10.589992	-3.3887101	58.128767
272	5	7	0.089328608	-9.8523679	-2.3170175	59.366809
273	5	7	0.094493589	-7.6384851	-3.5192725	59.070969
274	5	7	0.094493589	-8.3761498	-4.4936589	57.742122
275	5	6	0.088163717	-8.8883117	-2.3955048	56.481576
276	5	6	0.088163717	-8.1318157	-1.4115043	57.785807
277	6	1	0.54377282	-0.86085917	-4.7753121	81.479574
278	6	2	-0.68127608	-1.8302532	-5.0077887	80.708574
279	6	3	-0.52128267	-0.68805538	-3.4850233	82.070458
280	6	4	0.031512628	-1.6200246	-2.3895902	81.806616
281	6	4	-0.14528178	-1.2050661	-1.1247154	82.564798
282	6	4	-0.1418936	-2.1911939	0.024252473	82.305064
283	6	4	-0.1418936	-1.7196421	1.3653963	82.89479
284	6	4	-0.14399474	-1.5542859	1.3806258	84.425448
285	6	4	0.025713318	-2.8657656	1.1076216	85.174063
286	6	3	-0.46486759	-2.6934018	1.3055793	86.612513
287	6	1	0.78711361	-3.7748564	1.1214408	87.530161
288	6	2	-0.60573799	-4.9172828	0.78292636	87.120284
289	6	5	0.32677618	-1.7637728	1.5838484	87.002048
290	6	6	0.058517846	-3.1883761	0.060424209	84.995734
291	6	6	0.058517846	-3.6554728	1.797367	84.803389
292	6	7	0.089376553	-0.77979347	0.64883092	84.738456
293	6	7	0.089376553	-1.1850927	2.3882004	84.713814
294	6	7	0.088136634	-2.4492117	2.1539601	82.605599
295	6	7	0.088136634	-0.74776735	1.638839	82.430981
296	6	7	0.088136634	-3.1954142	-0.23977672	82.700293
297	6	7	0.088136634	-2.3007396	0.16075029	81.207189
298	6	7	0.089376553	-1.1787022	-1.3561635	83.650538
299	6	7	0.089376553	-0.18567648	-0.82137981	82.237553
300	6	6	0.054932816	-1.6359756	-2.1801796	80.714967
301	6	6	0.054932816	-2.6408644	-2.6945409	82.127514
302	6	5	0.32019421	0.13179168	-3.3412567	82.703153
303	7	8	-0.49666104	-3.6193569	1.2679046	88.54491
304	7	4	0.11513694	-3.7690528	2.6419328	88.779649
305	7	4	-0.13800922	-2.526106	3.3981494	88.303586
306	7	4	-0.14042391	-2.6504414	4.9016054	88.593969
307	7	4	-0.13920309	-1.4828136	5.7149419	88.012975
308	7	4	-0.14399293	-0.16333159	5.4753278	88.764876
309	7	4	0.03676075	0.94460411	6.4081104	88.274101
310	7	8	-0.16417357	1.2503264	6.1304867	86.934808
311	7	6	0.088163717	0.62158972	7.4681831	88.379556
312	7	6	0.088163717	1.8500394	6.2512047	88.900413
313	7	7	0.094493589	0.17087195	4.4251761	88.629449
314	7	7	0.094493589	-0.31883672	5.6547955	89.851575
315	7	7	0.089328608	-1.7474186	6.7924494	88.086785
316	7	7	0.089328608	-1.3571351	5.4717193	86.934976
317	7	7	0.089149355	-2.7194347	5.0704781	89.69054
318	7	7	0.089149355	-3.5909344	5.2783607	88.136038
319	7	7	0.093353404	-2.4007981	3.2384536	87.21009
320	7	7	0.093353404	-1.6379647	2.9828767	88.826445
321	7	6	0.088119118	-3.902741	2.7990193	89.871155
322	7	6	0.088119118	-4.6780442	3.0240615	88.262425
323	4	1	0.54377287	-0.15222402	-5.5631585	81.695694
324	4	2	-0.68127614	1.0670805	-5.2787268	81.83268
325	4	3	-0.52128273	-0.61264154	-6.9121433	81.83155
326	4	4	0.031512632	0.28428616	-8.0286226	82.124822
327	4	4	-0.14528178	1.0798363	-8.4199817	80.875389
328	4	4	-0.14171013	2.0109202	-9.6073136	81.165967
329	4	4	-0.13750881	2.7311512	-10.116654	79.907517
330	4	4	-0.1216968	3.8171297	-9.1473371	79.413566
331	4	4	0.1848728	4.5955315	-9.7210609	78.219178
332	4	3	-0.6368779	5.3511745	-10.914853	78.58819
333	4	9	0.59369242	6.3423126	-10.865446	79.385048
334	4	2	-0.46134839	7.3052752	-10.817024	80.161654
335	4	6	0.0332176	5.2890842	-8.9483362	77.820001
336	4	6	0.0332176	3.8834969	-9.9838208	77.408115
337	4	7	0.083004727	3.3458821	-8.1969838	79.08469
338	4	7	0.083004727	4.5226026	-8.9111362	80.239345
339	4	7	0.086853287	1.9908857	-10.30127	79.098303
340	4	7	0.086853287	3.2029975	-11.091672	80.15919
341	4	7	0.088136634	1.4062584	-10.444352	81.57664
342	4	7	0.088136634	2.7585271	-9.3215864	81.938325
343	4	7	0.089376553	1.6791899	-7.5484641	80.540341
344	4	7	0.089376553	0.36819268	-8.693512	80.065244
345	4	6	0.054932816	0.97208632	-7.750277	82.953683
346	4	6	0.054932816	-0.32152308	-8.8980667	82.459715
347	4	5	0.32019424	-1.6403137	-7.0923897	81.777567
348	5	8	-0.16417357	1.9659688	6.7680285	86.677626
349	5	4	0.03676075	2.2306304	7.5515608	87.809875
350	5	4	-0.14399293	1.1275105	8.5957531	88.00023
351	5	4	-0.13915086	1.4214092	9.494932	89.209964
352	5	4	-0.13505535	0.27486222	10.47185	89.515111
353	5	4	-0.16591701	0.15150576	11.586418	88.463776
354	5	4	0.09011606	-0.89023877	12.630351	88.867829
355	5	10	-0.67909283	-2.1646217	12.049557	88.911157
356	5	11	0.38636884	-2.7870381	12.773539	89.183447
357	5	6	0.079621761	-0.63073983	13.059538	89.862346
358	5	6	0.079621761	-0.88336167	13.45292	88.117208
359	5	7	0.09685026	-0.13902247	11.157478	87.481012
360	5	7	0.09685026	1.1330789	12.093939	88.345607
361	5	7	0.089328608	0.47350301	10.933624	90.506103
362	5	7	0.089328608	-0.68389568	9.9111665	89.591338
363	5	7	0.089328608	2.3638987	10.062077	89.040022
364	5	7	0.089328608	1.5713504	8.8531908	90.105772
365	5	7	0.094493589	0.15615727	8.0746712	88.149921
366	5	7	0.094493589	1.0605082	9.2116091	87.078038
367	5	6	0.088163717	3.2044165	8.0644526	87.662184
368	5	6	0.088163717	2.3134816	6.906032	88.713781
369	6	1	0.54377282	-0.70086689	2.5368097	117.91228
370	6	2	-0.68127608	-1.2855246	3.6301115	118.13829
371	6	3	-0.52128267	-0.73521055	1.9428939	116.61231
372	6	4	0.031512628	-1.4449886	2.5727773	115.49983
373	6	4	-0.14528178	-1.3195125	1.7317351	114.22553
374	6	4	-0.1418936	-2.0486277	2.3982539	113.04901
375	6	4	-0.1418936	-2.1083981	1.506082	111.79631
376	6	4	-0.14399474	-0.73985509	1.132313	111.19809
377	6	4	0.025713318	0.062122631	2.3520106	110.72469
378	6	3	-0.46486759	1.2677663	1.9351467	110.01007
379	6	1	0.78711361	2.1812204	2.8882726	109.4599
380	6	2	-0.60573799	1.9689143	4.1249974	109.57465
381	6	5	0.32677618	1.4896578	0.92026822	109.89104
382	6	6	0.058517846	0.36217402	2.9660999	111.59954
383	6	6	0.058517846	-0.56726945	2.9703249	110.04768
384	6	7	0.089376553	-0.14381347	0.54780909	111.9305
385	6	7	0.089376553	-0.92396033	0.46924848	110.32567
386	6	7	0.088136634	-2.7081786	2.0291891	111.01891
387	6	7	0.088136634	-2.6520357	0.57047152	112.04835
388	6	7	0.088136634	-1.5705442	3.3716593	112.80757
389	6	7	0.088136634	-3.0947792	2.6180233	113.35435
390	6	7	0.089376553	-0.24214203	1.6184858	113.98152
391	6	7	0.089376553	-1.7537667	0.72387134	114.40962
392	6	6	0.054932816	-2.5181071	2.6828537	115.76835
393	6	6	0.054932816	-1.0157252	3.5833373	115.31931
394	6	5	0.32019421	-0.23504176	1.0351637	116.47455
395	7	8	-0.49666104	3.0285127	2.5600481	108.96019
396	7	4	0.11513694	2.6395946	2.3002962	107.63855
397	7	4	-0.13800922	1.8718071	0.97806827	107.5635
398	7	4	-0.14042391	1.4761252	0.65159374	106.11539
399	7	4	-0.13920309	0.5895349	-0.59968926	106.01208
400	7	4	-0.14399293	1.3610296	-1.8969108	106.30502
401	7	4	0.03676075	0.50374083	-3.1359591	106.04372
402	7	8	-0.16417357	-0.58131196	-3.1670333	106.93025
403	7	6	0.088163717	0.13714857	-3.1280957	104.99264
404	7	6	0.088163717	1.1290866	-4.0434328	106.19249
405	7	7	0.094493589	1.6962498	-1.9139562	107.36341
406	7	7	0.094493589	2.2608089	-1.9475816	105.653
407	7	7	0.089328608	0.18644257	-0.64780297	104.97686
408	7	7	0.089328608	-0.27431846	-0.5046338	106.70617
409	7	7	0.089149355	2.3887967	0.51995617	105.49455
410	7	7	0.089149355	0.90626746	1.5099652	105.6975
411	7	7	0.093353404	0.95748286	1.053138	108.19224
412	7	7	0.093353404	2.5172736	0.1709646	107.97165
413	7	6	0.088119118	3.5533305	2.2341917	107.01034
414	7	6	0.088119118	2.0138428	3.1354133	107.25019
415	4	1	0.54377287	-0.16695592	2.0435853	118.71306
416	4	2	-0.68127614	-0.17692932	0.7859594	118.78123
417	4	3	-0.52128273	0.54861767	2.8267263	119.67475
418	4	4	0.031512632	1.2943174	2.2318279	120.78247
419	4	4	-0.14528178	0.33631618	1.7520844	121.87756
420	4	4	-0.14171013	1.1103433	1.1440804	123.05753
421	4	4	-0.13750881	0.19638446	0.76913179	124.23479
422	4	4	-0.1216968	-0.67958602	-0.45838513	123.93681
423	4	4	0.1848728	-1.5081911	-0.88031776	125.16034
424	4	3	-0.6368779	-0.65955394	-1.3302434	126.2602
425	4	9	0.59369242	0.028284536	-2.3985677	126.18712
426	4	2	-0.46134839	0.69854411	-3.4369676	126.11476
427	4	6	0.0332176	-2.21013	-1.6940347	124.87292
428	4	6	0.0332176	-2.1174687	-0.018592815	125.50685
429	4	7	0.083004727	-1.3876758	-0.2195319	123.11525
430	4	7	0.083004727	-0.045410174	-1.3087454	123.60499
431	4	7	0.086853287	-0.44521363	1.6364693	124.50494
432	4	7	0.086853287	0.84583753	0.54704433	125.10973
433	4	7	0.088136634	1.8501171	1.8887995	123.42226
434	4	7	0.088136634	1.6745148	0.24763246	122.71814
435	4	7	0.089376553	-0.35050035	0.99266452	121.45026
436	4	7	0.089376553	-0.26742705	2.6162091	122.23305
437	4	6	0.054932816	1.9129549	1.3865382	120.40786
438	4	6	0.054932816	1.9801332	2.9968639	121.2061
439	4	5	0.32019424	0.58628054	3.8621667	119.54074
440	5	8	-0.16417357	-1.0965891	-3.9850845	106.70658
441	5	4	0.03676075	-0.42310707	-4.6051306	105.64455
442	5	4	-0.14399293	-0.70082459	-3.8612646	104.33574
443	5	4	-0.13915086	-0.0084653342	-4.5510443	103.15117
444	5	4	-0.13505535	-0.15322007	-3.7635833	101.8393
445	5	4	-0.16591701	-1.5852812	-3.8004032	101.28196
446	5	4	0.09011606	-1.671164	-3.1445702	99.903266
447	5	10	-0.67909283	-1.3690126	-1.7796506	99.997871
448	5	11	0.38636884	-1.436417	-1.4190752	99.075301
449	5	6	0.079621761	-0.96648711	-3.6452209	99.200853
450	5	6	0.079621761	-2.706016	-3.2685669	99.511085
451	5	7	0.09685026	-2.2792759	-3.2718744	101.96989
452	5	7	0.09685026	-1.9205824	-4.856161	101.19265
453	5	7	0.089328608	0.53446758	-4.2145163	101.09197
454	5	7	0.089328608	0.16745841	-2.7094469	101.99853
455	5	7	0.089328608	-0.41612419	-5.578431	103.02036
456	5	7	0.089328608	1.0767146	-4.6453015	103.37542
457	5	7	0.094493589	-0.33131903	-2.8159637	104.42669
458	5	7	0.094493589	-1.7989991	-3.8354296	104.16976
459	5	6	0.088163717	-0.78724819	-5.6508226	105.56053
460	5	6	0.088163717	0.67149246	-4.6355492	105.84838
461	6	1	0.54377282	-0.62788823	22.967552	-2.3406596
462	6	2	-0.68127608	-1.4453848	22.076479	-1.9858371
463	6	3	-0.52128267	-0.68404118	24.279774	-1.7760615
464	6	4	0.031512628	-1.684443	24.640784	-0.77255708
465	6	4	-0.14528178	-1.5186955	26.099918	-0.3362166
466	6	4	-0.1418936	-2.5562623	26.479134	0.73134483
467	6	4	-0.1418936	-2.5505048	27.980988	1.067809
468	6	4	-0.14399474	-1.2294693	28.510994	1.6547051
469	6	4	0.025713318	-0.85622215	27.849245	2.9880125
470	6	3	-0.46486759	0.30469179	28.506381	3.5867502
471	6	1	0.78711361	0.84459947	28.079758	4.840553
472	6	2	-0.60573799	0.3283586	27.11858	5.4709191
473	6	5	0.32677618	0.77030783	29.30676	3.1009754
474	6	6	0.058517846	-0.61153032	26.779452	2.8201755
475	6	6	0.058517846	-1.7159827	27.917688	3.6900897
476	6	7	0.089376553	-0.40277998	28.384105	0.92407522
477	6	7	0.089376553	-1.3501955	29.602707	1.8227935
478	6	7	0.088136634	-3.3706771	28.183509	1.7917138
479	6	7	0.088136634	-2.7841287	28.5556	0.14603366
480	6	7	0.088136634	-2.3937479	25.876681	1.6505923
481	6	7	0.088136634	-3.5697611	26.224401	0.35201224
482	6	7	0.089376553	-0.49525968	26.232038	0.07392654
483	6	7	0.089376553	-1.638245	26.761481	-1.2229521
484	6	6	0.054932816	-2.69955	24.494074	-1.2013215
485	6	6	0.054932816	-1.5698709	23.975371	0.11185412
486	6	5	0.32019421	0.015737069	24.984527	-2.1027964
487	7	8	-0.49666104	1.6702123	28.565748	5.2374469
488	7	4	0.11513694	1.1837924	29.685304	5.9269783
489	7	4	-0.13800922	0.79379276	30.786943	4.9381868
490	7	4	-0.14042391	0.30103199	32.041079	5.676084
491	7	4	-0.13920309	-0.22512902	33.122344	4.7187723
492	7	4	-0.14399293	0.89749223	33.79447	3.9114489
493	7	4	0.03676075	0.37391405	34.969758	3.0849924
494	7	8	-0.16417357	-0.52849852	34.512723	2.1149307
495	7	6	0.088163717	-0.12475135	35.709004	3.7513713
496	7	6	0.088163717	1.2330617	35.468536	2.585208
497	7	7	0.094493589	1.3697135	33.060387	3.225169
498	7	7	0.094493589	1.6778301	34.173672	4.6075693
499	7	7	0.089328608	-0.74145384	33.895873	5.3283195
500	7	7	0.089328608	-0.97716371	32.678521	4.0299328
501	7	7	0.089149355	1.1196182	32.457328	6.302501
502	7	7	0.089149355	-0.52974427	31.753141	6.3565796
503	7	7	0.093353404	-0.010178463	30.407041	4.2701728
504	7	7	0.093353404	1.6816321	31.035781	4.3181471
505	7	6	0.088119118	1.9848855	30.058341	6.6000506
506	7	6	0.088119118	0.31004873	29.400537	6.555698
507	4	1	0.54377287	0.12477113	22.734443	-3.0814279
508	4	2	-0.68127614	0.46020708	23.611772	-3.9205619
509	4	3	-0.52128273	0.73275364	21.438105	-3.089654
510	4	4	0.031512632	1.757413	21.050816	-4.0576904
511	4	4	-0.14528178	1.1249822	20.769119	-5.4243736
512	4	4	-0.14171013	2.1902533	20.339896	-6.4451941
513	4	4	-0.13750881	1.583363	19.921482	-7.7937013
514	4	4	-0.1216968	1.033766	21.114938	-8.5915234
515	4	4	0.1848728	0.52726792	20.690806	-9.9790395
516	4	3	-0.6368779	1.6103222	20.191539	-10.821673
517	4	9	0.59369242	2.5409347	20.950594	-11.243069
518	4	2	-0.46134839	3.4469044	21.689098	-11.651222
519	4	6	0.0332176	0.034739494	21.555236	-10.476671
520	4	6	0.0332176	-0.23509048	19.891203	-9.8636933
521	4	7	0.083004727	0.17994822	21.567066	-8.0438179
522	4	7	0.083004727	1.8188909	21.893686	-8.7034383
523	4	7	0.086853287	0.7780086	19.172496	-7.6283913
524	4	7	0.086853287	2.3842602	19.427458	-8.3862729
525	4	7	0.088136634	2.7480748	19.470092	-6.0363199
526	4	7	0.088136634	2.9198564	21.164978	-6.6001494
527	4	7	0.089376553	0.61282931	21.686085	-5.7820024
528	4	7	0.089376553	0.36851689	19.961138	-5.3124997
529	4	6	0.054932816	2.5203845	21.856241	-4.139679
530	4	6	0.054932816	2.2666008	20.132304	-3.6941611
531	4	5	0.32019424	0.47377251	20.764941	-2.3338153