Title

92 atoms
95 bonds
166 angles
219 dihedrals
78 impropers

10 atom types
14 bond types
6 angle types
8 dihedral types
2 improper types
-10.32999992 89.67000008 xlo xhi
-3.73300004 96.26699996 ylo yhi
-9.416000366 90.58399963 zlo zhi
0.0 0.0 0.0 xy xz yz

Masses

1	15.99943
2	12.01078
3	12.01078
4	1.007947
5	1.007947
6	18.998403
7	15.99943
8	15.99943
9	1.007947
10	35.4532


Pair Coeffs

1	0.16846514	3.0251065
2	0.086879315	3.4806469
3	0.10884061	3.3795318
4	0.015779483	2.6445434
5	0.015611343	2.5725815
6	0.061	3.1181455
7	0.2102061	3.0398122
8	0.20947353	2.99716
9	1.2326e-05	0.53453923
10	0.2656001	3.3075278

Bond Coeffs

1 harmonic	425.69104206635	1.362945806494
2 harmonic	300.03137914615	1.451203938761
3 harmonic	360.7852444772	1.387193227181
4 harmonic	289.73813263395	1.498646816465
5 harmonic	370.04670688625	1.093899492634
6 harmonic	397.2545789619	1.085358495916
7 harmonic	264.62148576755	1.52190126495
8 harmonic	301.15400723785	1.345741232799
9 harmonic	340.45121009905	1.358690858053
10 harmonic	582.698766451	1.225198386222
11 harmonic	279.1350963404	1.454628925034
12 harmonic	385.7604595587	1.369745182308
13 harmonic	543.5267831885	0.9716763312559
14 harmonic	218.0227703685	1.746066037062


Angle Coeffs

1 harmonic	57.8982893754	126.8062420451
2 harmonic	65.09061609600001	110.3538806181
3 harmonic	53.20531626545	116.5475862634
4 harmonic	34.066775159195	129.1835929926
5 harmonic	48.776492647595	115.6030999533
6 harmonic	201.41175231035	127.4691416191


Dihedral Coeffs

1 fourier 1	3.661930099076	2	180
2 fourier 1	1.532232714475	2	180
3 fourier 1	0.457973137376	1	0
4 fourier 1	0.02664938770063	3	0
5 fourier 1	0.1155372516788	3	0
6 fourier 1	2.779853741805	2	180
7 fourier 1	0.9974165607242	2	180
8 fourier 1	0.8283030590042	2	180


Improper Coeffs

1 0.3666666666666667	-1	2
2 3.5	-1	2


Atoms

1	1	1	0.0096270004	-4.6290002	1.83	0.78899997
2	1	2	-0.054852001	-3.5350001	1	0.52899998
3	1	2	-0.022229999	-2.4549999	1.064	1.329
4	1	3	-0.13630299	-2.4189999	2.013	2.4949999
5	1	4	0.099104002	-1.457	1.941	3.0450001
6	1	4	0.099104002	-3.243	1.775	3.2
7	1	4	0.099104002	-2.536	3.0569999	2.1340001
8	1	2	-0.28299999	-1.288	0.193	1.064
9	1	5	0.215434	-0.44100001	0.25400001	1.735
10	1	2	0.0051480001	-1.2589999	-0.653	0.0099999998
11	1	3	-0.267232	-0.024	-1.567	-0.205
12	1	2	0.0051480001	1.262	-0.708	-0.081
13	1	2	-0.277154	2.381	-1.135	0.54500002
14	1	5	0.215434	2.4219999	-2.1010001	1.02
15	1	2	-0.022891	3.6040001	-0.29699999	0.60299999
16	1	3	-0.132745	4.809	-0.824	1.334
17	1	4	0.099104002	5.0799999	-0.13699999	2.164
18	1	4	0.099104002	4.612	-1.825	1.772
19	1	4	0.099104002	5.665	-0.92000002	0.63300002
20	1	2	0.158748	3.6159999	0.912	-0.0020000001
21	1	1	-0.38401401	4.7470002	1.737	0.015
22	1	2	-0.022891	2.4059999	1.39	-0.71499997
23	1	3	-0.132745	2.4349999	2.7090001	-1.434
24	1	4	0.099104002	2.993	2.598	-2.3870001
25	1	4	0.099104002	2.937	3.4749999	-0.80599999
26	1	4	0.099104002	1.41	3.076	-1.659
27	1	2	-0.277154	1.313	0.61299998	-0.77100003
28	1	5	0.215434	0.447	0.95300001	-1.324
29	1	3	0.752446	-0.121	-2.7079999	0.86500001
30	1	6	-0.20250501	0.131	-2.2179999	2.1359999
31	1	6	-0.20250501	0.77399999	-3.733	0.602
32	1	6	-0.20250501	-1.393	-3.2579999	0.86900002
33	1	3	0.752446	0.016000001	-2.2119999	-1.631
34	1	6	-0.20250501	1.244	-2.8150001	-1.854
35	1	6	-0.20250501	-0.16599999	-1.252	-2.6129999
36	1	6	-0.20250501	-0.958	-3.1860001	-1.775
37	1	2	-0.28299999	-2.477	-0.73000002	-0.85000002
38	1	5	0.215434	-2.5139999	-1.4170001	-1.6799999
39	1	2	-0.022229999	-3.55	0.048	-0.616
40	1	3	-0.13630299	-4.7600002	-0.048999999	-1.506
41	1	4	0.099104002	-5.645	-0.33500001	-0.90100002
42	1	4	0.099104002	-4.9450002	0.93300003	-1.99
43	1	4	0.099104002	-4.6329999	-0.80800003	-2.3069999
44	1	2	0.629695	5.6459999	1.4809999	0.49000001
45	1	7	-0.48349699	6.1900001	0.41999999	0.234
46	1	1	0.0096270004	-5.4660001	1.827	0.221
47	1	2	-0.054852001	-5.6300001	2.6570001	-0.89200002
48	1	2	-0.022229999	-6.7719998	2.5929999	-1.6
49	1	3	-0.13630299	-7.868	1.643	-1.2029999
50	1	4	0.099104002	-8.7340002	1.715	-1.8940001
51	1	4	0.099104002	-8.2200003	1.882	-0.177
52	1	4	0.099104002	-7.4889998	0.60000002	-1.228
53	1	2	-0.28299999	-6.9559999	3.464	-2.783
54	1	5	0.215434	-7.8930001	3.402	-3.322
55	1	2	0.0051480001	-5.987	4.3099999	-3.1989999
56	1	3	-0.267232	-6.243	5.223	-4.427
57	1	2	0.0051480001	-6.8330002	4.3639998	-5.5749998
58	1	2	-0.238524	-7.8280001	4.7919998	-6.3839998
59	1	5	0.215434	-8.2849998	5.7579999	-6.2470002
60	1	2	-0.21992099	-8.3339996	3.9530001	-7.5
61	1	3	-0.118152	-9.4589996	4.4809999	-8.349
62	1	4	0.099104002	-10.33	3.7939999	-8.2950001
63	1	4	0.099104002	-9.7930002	5.4819999	-8.0039997
64	1	4	0.099104002	-9.1239996	4.5770001	-9.4040003
65	1	2	0.1248	-7.776	2.7449999	-7.7340002
66	1	8	-0.61850899	-8.2089996	1.92	-8.7790003
67	1	9	0.440009	-8.9560003	2.1670001	-9.4160004
68	1	2	-0.21992099	-6.6669998	2.267	-6.8730001
69	1	3	-0.118152	-6.0089998	0.94700003	-7.165
70	1	4	0.099104002	-5.3299999	1.059	-8.0360003
71	1	4	0.099104002	-6.7779999	0.18099999	-7.4000001
72	1	4	0.099104002	-5.4219999	0.58099997	-6.2950001
73	1	2	-0.238524	-6.2119999	3.0439999	-5.8779998
74	1	5	0.215434	-5.3769999	2.7030001	-5.277
75	1	3	0.752446	-7.2020001	6.3649998	-3.941
76	1	6	-0.20250501	-8.4759998	5.8740001	-3.7049999
77	1	6	-0.20250501	-7.2880001	7.3899999	-4.869
78	1	6	-0.20250501	-6.7360001	6.915	-2.757
79	1	3	0.752446	-4.9330001	5.869	-4.9899998
80	1	6	-0.20250501	-5.1789999	6.4720001	-6.2129998
81	1	6	-0.20250501	-3.9530001	4.9089999	-5.1830001
82	1	6	-0.20250501	-4.4400001	6.8429999	-4.138
83	1	2	-0.28299999	-4.7379999	4.3860002	-2.385
84	1	5	0.215434	-3.9530001	5.073	-2.6570001
85	1	2	-0.022229999	-4.5599999	3.609	-1.301
86	1	3	-0.13630299	-3.286	3.7060001	-0.50599998
87	1	4	0.099104002	-3.5209999	3.9909999	0.54100001
88	1	4	0.099104002	-2.7679999	2.724	-0.51200002
89	1	4	0.099104002	-2.5880001	4.4650002	-0.91900003
90	1	2	0.46916899	6.0910001	2.1600001	1.209
91	1	7	-0.55430502	5.5949998	3.257	1.4
92	1	10	-0.074542999	7.5240002	1.679	2.0969999

Bonds

1	1	1	2
2	2	1	46
3	3	2	3
4	3	2	39
5	4	3	4
6	3	3	8
7	5	4	5
8	5	4	6
9	5	4	7
10	6	8	9
11	3	8	10
12	4	10	11
13	3	10	37
14	4	11	12
15	7	11	29
16	7	11	33
17	3	12	13
18	3	12	27
19	6	13	14
20	3	13	15
21	4	15	16
22	3	15	20
23	5	16	17
24	5	16	18
25	5	16	19
26	1	20	21
27	3	20	22
28	8	21	44
29	4	22	23
30	3	22	27
31	5	23	24
32	5	23	25
33	5	23	26
34	6	27	28
35	9	29	30
36	9	29	31
37	9	29	32
38	9	33	34
39	9	33	35
40	9	33	36
41	6	37	38
42	3	37	39
43	4	39	40
44	5	40	41
45	5	40	42
46	5	40	43
47	10	44	45
48	11	44	90
49	1	46	47
50	3	47	48
51	3	47	85
52	4	48	49
53	3	48	53
54	5	49	50
55	5	49	51
56	5	49	52
57	6	53	54
58	3	53	55
59	4	55	56
60	3	55	83
61	4	56	57
62	7	56	75
63	7	56	79
64	3	57	58
65	3	57	73
66	6	58	59
67	3	58	60
68	4	60	61
69	3	60	65
70	5	61	62
71	5	61	63
72	5	61	64
73	12	65	66
74	3	65	68
75	13	66	67
76	4	68	69
77	3	68	73
78	5	69	70
79	5	69	71
80	5	69	72
81	6	73	74
82	9	75	76
83	9	75	77
84	9	75	78
85	9	79	80
86	9	79	81
87	9	79	82
88	6	83	84
89	3	83	85
90	4	85	86
91	5	86	87
92	5	86	88
93	5	86	89
94	10	90	91
95	14	90	92

Angles

1	3	30	29	32
2	1	2	39	40
3	2	65	66	67
4	5	71	69	72
5	4	38	37	39
6	1	4	3	8
7	3	34	33	36
8	1	11	12	13
9	5	5	4	7
10	4	10	37	38
11	3	15	16	17
12	5	17	16	18
13	3	56	75	78
14	1	91	90	92
15	1	58	60	61
16	2	2	1	46
17	3	10	11	12
18	1	8	10	37
19	3	80	79	81
20	3	57	56	79
21	1	46	47	85
22	3	68	69	71
23	1	13	15	20
24	1	15	20	22
25	1	56	55	83
26	3	15	16	18
27	5	5	4	6
28	3	15	16	19
29	5	51	49	52
30	1	49	48	53
31	1	60	65	66
32	5	18	16	19
33	5	50	49	51
34	5	63	61	64
35	3	56	79	82
36	1	46	47	48
37	3	10	11	33
38	3	60	61	63
39	2	1	46	47
40	1	3	8	10
41	1	2	39	37
42	4	68	73	74
43	3	10	11	29
44	3	48	49	52
45	1	12	13	15
46	1	10	37	39
47	1	56	57	73
48	3	60	61	64
49	6	21	44	45
50	1	58	60	65
51	1	48	47	85
52	1	11	12	27
53	1	57	58	60
54	5	17	16	19
55	3	57	56	75
56	1	12	27	22
57	1	23	22	27
58	1	55	83	85
59	4	84	83	85
60	3	11	33	35
61	1	21	20	22
62	1	47	85	83
63	1	56	57	58
64	5	24	23	26
65	1	44	90	92
66	3	75	56	79
67	3	29	11	33
68	3	31	29	32
69	3	55	56	79
70	3	3	4	5
71	3	39	40	42
72	1	2	3	4
73	3	22	23	24
74	1	2	3	8
75	1	47	48	49
76	4	48	53	54
77	1	66	65	68
78	5	70	69	72
79	3	77	75	78
80	1	37	39	40
81	1	11	10	37
82	3	81	79	82
83	3	76	75	77
84	5	87	86	89
85	1	21	44	90
86	4	55	83	84
87	5	25	23	26
88	4	12	13	14
89	5	42	40	43
90	5	50	49	52
91	1	8	10	11
92	1	53	55	56
93	3	3	4	7
94	4	54	53	55
95	5	87	86	88
96	3	22	23	26
97	3	39	40	43
98	3	56	75	76
99	3	85	86	87
100	1	16	15	20
101	4	57	73	74
102	1	65	68	69
103	4	9	8	10
104	3	11	29	30
105	1	13	15	16
106	5	24	23	25
107	3	55	56	75
108	5	88	86	89
109	1	57	73	68
110	1	53	55	83
111	3	11	33	36
112	1	1	2	39
113	1	58	57	73
114	3	3	4	6
115	5	6	4	7
116	5	62	61	63
117	1	45	44	90
118	1	61	60	65
119	1	20	22	27
120	4	22	27	28
121	5	41	40	42
122	1	3	2	39
123	3	34	33	35
124	4	12	27	28
125	1	65	68	73
126	5	62	61	64
127	4	59	58	60
128	3	56	75	77
129	1	48	53	55
130	1	44	90	91
131	3	80	79	82
132	4	57	58	59
133	1	69	68	73
134	5	70	69	71
135	3	11	33	34
136	3	76	75	78
137	3	48	49	50
138	3	35	33	36
139	1	15	20	21
140	3	39	40	41
141	3	11	29	31
142	4	14	13	15
143	3	68	69	72
144	3	56	79	81
145	1	13	12	27
146	4	3	8	9
147	3	56	79	80
148	3	22	23	25
149	3	60	61	62
150	3	11	29	32
151	1	83	85	86
152	3	85	86	89
153	3	30	29	31
154	3	48	49	51
155	2	20	21	44
156	5	41	40	43
157	3	55	56	57
158	1	60	65	68
159	3	12	11	33
160	1	1	2	3
161	1	47	48	53
162	1	47	85	86
163	1	20	22	23
164	3	12	11	29
165	3	85	86	88
166	3	68	69	70

Dihedrals

1	4	27	12	11	33
2	1	13	15	20	21
3	4	58	60	61	64
4	1	20	22	27	28
5	4	27	12	11	29
6	4	12	11	10	37
7	4	13	15	16	17
8	4	47	48	49	52
9	4	65	68	69	70
10	1	11	12	13	15
11	5	12	11	33	34
12	1	1	2	39	40
13	4	2	39	40	43
14	1	47	48	53	55
15	5	12	11	29	31
16	1	10	37	39	40
17	1	3	2	39	37
18	5	29	11	33	35
19	1	8	3	2	39
20	4	47	85	86	89
21	2	1	46	47	85
22	5	10	11	33	34
23	1	54	53	55	83
24	1	49	48	53	55
25	5	55	56	75	78
26	5	10	11	29	31
27	4	13	15	16	18
28	4	13	15	16	19
29	1	46	47	48	49
30	5	12	11	29	32
31	4	52	49	48	53
32	5	55	56	79	81
33	1	14	13	15	16
34	4	47	85	86	88
35	4	64	61	60	65
36	4	65	68	69	72
37	4	83	85	86	87
38	5	78	75	56	79
39	5	77	75	56	79
40	5	55	56	79	80
41	1	12	27	22	20
42	2	1	46	47	48
43	4	65	68	69	71
44	3	2	1	46	47
45	5	57	56	75	76
46	4	79	56	55	83
47	7	21	44	90	92
48	4	2	39	40	41
49	1	4	3	8	10
50	1	12	13	15	20
51	1	16	15	20	22
52	1	1	2	3	8
53	1	1	2	3	4
54	1	2	39	37	10
55	5	30	29	11	33
56	1	1	2	39	37
57	4	71	69	68	73
58	1	3	8	10	11
59	4	55	56	57	73
60	1	65	68	73	74
61	4	33	11	10	37
62	1	48	53	55	56
63	4	58	60	61	62
64	4	47	48	49	50
65	4	24	23	22	27
66	1	53	55	83	85
67	1	15	20	22	27
68	4	13	12	11	33
69	1	56	55	83	85
70	1	46	47	48	53
71	4	53	55	56	79
72	4	37	39	40	42
73	1	61	60	65	68
74	5	29	11	33	36
75	4	13	12	11	29
76	1	59	58	60	65
77	4	58	57	56	79
78	1	8	10	37	38
79	1	11	12	27	22
80	5	75	56	79	81
81	1	48	47	85	86
82	1	59	58	60	61
83	5	57	56	79	82
84	5	10	11	33	35
85	1	56	57	58	60
86	4	8	10	11	12
87	1	58	57	73	74
88	4	55	56	57	58
89	5	75	56	79	80
90	1	9	8	10	11
91	1	56	57	73	74
92	1	15	13	12	27
93	4	20	22	23	24
94	4	63	61	60	65
95	4	51	49	48	53
96	1	60	58	57	73
97	4	29	11	10	37
98	1	58	57	73	68
99	1	47	48	53	54
100	1	53	55	83	84
101	4	75	56	55	83
102	1	57	73	68	69
103	1	2	3	8	10
104	2	15	20	21	44
105	1	66	65	68	73
106	4	37	39	40	43
107	4	83	85	86	88
108	1	46	47	85	83
109	7	45	44	90	92
110	1	49	48	53	54
111	1	84	83	85	86
112	1	15	20	22	23
113	5	55	56	79	82
114	4	8	10	11	33
115	1	11	12	13	14
116	4	53	55	56	75
117	5	76	75	56	79
118	4	8	10	11	29
119	2	20	21	44	45
120	4	20	22	23	26
121	1	11	10	37	38
122	1	58	60	65	68
123	4	58	57	56	75
124	1	8	10	37	39
125	1	14	13	12	27
126	1	61	60	65	66
127	1	13	15	20	22
128	4	10	11	12	13
129	1	12	27	22	23
130	1	57	73	68	65
131	5	12	11	33	35
132	4	2	39	40	42
133	1	69	68	73	74
134	5	55	56	75	76
135	4	7	4	3	8
136	7	21	44	90	91
137	1	49	48	47	85
138	1	66	65	68	69
139	4	72	69	68	73
140	4	47	48	49	51
141	1	16	15	20	21
142	5	31	29	11	33
143	5	10	11	29	30
144	1	21	20	22	27
145	1	48	53	55	83
146	1	38	37	39	40
147	5	57	56	75	77
148	4	73	57	56	79
149	4	2	3	4	5
150	2	3	2	1	46
151	5	10	11	33	36
152	4	17	16	15	20
153	8	60	65	66	67
154	8	67	66	65	68
155	5	57	56	75	78
156	4	83	85	86	89
157	1	2	39	37	38
158	4	37	39	40	41
159	4	25	23	22	27
160	5	32	29	11	33
161	1	4	3	2	39
162	1	47	85	83	55
163	1	54	53	55	56
164	5	57	56	79	81
165	1	59	58	57	73
166	5	29	11	33	34
167	1	56	55	83	84
168	1	56	57	73	68
169	4	70	69	68	73
170	5	57	56	79	80
171	1	12	13	15	16
172	1	60	65	68	69
173	1	11	12	27	28
174	6	20	21	44	90
175	4	47	85	86	87
176	1	46	47	85	86
177	4	57	56	55	83
178	1	13	12	27	22
179	5	75	56	79	82
180	1	11	10	37	39
181	5	55	56	75	77
182	1	53	48	47	85
183	4	19	16	15	20
184	1	3	2	39	40
185	4	53	55	56	57
186	4	2	3	4	7
187	1	2	3	8	9
188	4	5	4	3	8
189	1	58	60	65	66
190	4	20	22	23	25
191	1	48	47	85	83
192	1	3	8	10	37
193	4	26	23	22	27
194	1	56	57	58	59
195	1	4	3	8	9
196	2	22	20	21	44
197	1	57	58	60	65
198	1	21	20	22	23
199	5	12	11	29	30
200	7	45	44	90	91
201	4	73	57	56	75
202	4	62	61	60	65
203	1	60	65	68	73
204	4	10	11	12	27
205	1	14	13	15	20
206	5	12	11	33	36
207	4	6	4	3	8
208	5	10	11	29	32
209	1	57	58	60	61
210	1	55	83	85	86
211	4	50	49	48	53
212	1	47	85	83	84
213	4	2	3	4	6
214	1	13	12	27	28
215	1	23	22	27	28
216	4	58	60	61	63
217	4	18	16	15	20
218	1	9	8	10	37
219	2	39	2	1	46

Impropers

5	1	12	13	27	11
10	1	47	85	46	48
12	1	48	49	53	47
17	1	13	12	14	15
18	1	58	59	60	57
31	1	2	1	3	39
43	1	83	85	55	84
45	1	90	92	44	91
49	1	55	83	53	56
55	1	90	44	91	92
59	1	57	58	73	56
68	1	12	11	13	27
70	1	39	2	37	40
71	1	68	69	73	65
79	1	15	20	13	16
85	1	15	16	20	13
88	1	85	86	47	83
93	1	83	55	84	85
99	1	13	15	12	14
103	1	48	53	47	49
104	1	10	11	37	8
114	1	60	65	58	61
116	1	58	57	59	60
117	1	83	84	85	55
119	1	27	12	22	28
121	1	39	40	2	37
153	1	47	46	48	85
157	1	73	74	57	68
160	1	65	68	60	66
167	1	90	91	92	44
171	1	53	55	48	54
178	1	58	60	57	59
184	2	44	45	90	21
185	1	47	48	85	46
186	1	22	20	23	27
190	1	2	3	39	1
203	1	8	9	10	3
212	1	12	27	11	13
229	1	55	53	56	83
239	1	15	13	16	20
248	1	57	56	58	73
256	1	37	10	38	39
262	1	3	8	2	4
266	1	85	83	86	47
271	1	2	39	1	3
276	1	20	22	15	21
288	1	68	73	65	69
290	1	20	21	22	15
291	1	3	4	8	2
303	1	37	39	10	38
310	2	44	21	45	90
312	2	44	90	21	45
316	1	39	37	40	2
318	1	85	47	83	86
319	1	60	58	61	65
320	1	48	47	49	53
321	1	73	68	74	57
323	1	27	28	12	22
326	1	37	38	39	10
327	1	57	73	56	58
342	1	53	48	54	55
347	1	73	57	68	74
354	1	13	14	15	12
357	1	20	15	21	22
362	1	27	22	28	12
372	1	8	3	9	10
375	1	22	27	20	23
379	1	65	66	68	60
400	1	60	61	65	58
402	1	65	60	66	68
425	1	10	37	8	11
429	1	8	10	3	9
441	1	55	56	83	53
442	1	68	65	69	73
454	1	3	2	4	8
482	1	53	54	55	48
483	1	10	8	11	37
490	1	22	23	27	20
