Title

16125 atoms
16000 bonds
30625 angles
53875 dihedrals
1500 impropers

8 atom types
11 bond types
5 angle types
27 dihedral types
2 improper types
-11.45934787 137.3151753 xlo xhi
-13.08614546 137.4568158 ylo yhi
-13.88246082 138.3581734 zlo zhi
0.0 0.0 0.0 xy xz yz

Masses

1	15.99943
2	12.01078
3	1.007947
4	1.007947
5	12.01078
6	15.99943
7	15.99943
8	1.007947


Pair Coeffs

1	0.16846514	3.0251065
2	0.10884061	3.3795318
3	0.016409246	2.5832257
4	0.015779483	2.6445434
5	0.086879315	3.4806469
6	0.2102061	3.0398122
7	0.20947353	2.99716
8	1.2326e-05	0.53453923

Bond Coeffs

1 harmonic	366.7408841747	1.425895053732
2 harmonic	300.03137914615	1.451203938761
3 harmonic	264.62148576755	1.52190126495
4 harmonic	370.04670688625	1.093899492634
5 harmonic	301.15400723785	1.345741232799
6 harmonic	582.698766451	1.225198386222
7 harmonic	329.44145381095	1.523435958334
8 harmonic	279.1350963404	1.454628925034
9 harmonic	329.96998057905	1.427343958716
10 harmonic	543.5267831885	0.9716763312559
11 harmonic	385.7604595587	1.369745182308


Angle Coeffs

1 harmonic	53.20531626545	116.5475862634
2 harmonic	65.09061609600001	110.3538806181
3 harmonic	201.41175231035	127.4691416191
4 harmonic	57.8982893754	126.8062420451
5 harmonic	48.776492647595	115.6030999533


Dihedral Coeffs

1 fourier 1	0.1155372516788	3	0
2 fourier 1	0.1115525666802	3	0
3 fourier 1	0.3432490222662	1	0
4 fourier 1	0.0473758381877	3	0
5 fourier 1	0.457973137376	1	0
6 fourier 1	0.1040663847541	3	0
7 fourier 1	0.1918272375143	3	0
8 fourier 1	0.9202179876409	1	180
9 fourier 1	1.163809172478	2	180
10 fourier 1	0.1679186987369	1	180
11 fourier 1	2.779853741805	2	180
12 fourier 1	0.02664938770063	3	0
13 fourier 1	0.1911926717192	3	0
14 fourier 1	-0.3703352413219	2	0
15 fourier 1	0.4541676554336	1	0
16 fourier 1	0.1489710476446	2	0
17 fourier 1	0.02960027280666	3	180
18 fourier 1	0.09223874044423	3	0
19 fourier 1	0.3159935921949	2	180
20 fourier 1	0.3247796806857	1	180
21 fourier 1	0.9974165607242	2	180
22 fourier 1	0.3445382149273	3	0
23 fourier 1	0.1364556373303	1	0
24 fourier 1	0.3026390167484	3	0
25 fourier 1	2.687457892086	2	180
26 fourier 1	2.772607909663	2	180
27 fourier 1	0.09692684957115	1	0


Improper Coeffs

1 3.5	-1	2
2 0.3666666666666667	-1	2


Atoms

1	4	1	-0.18686046	0.54447649	5.4473308	5.7086977
2	4	2	0.038697625	0.83291742	6.5544287	6.5202154
3	4	2	-0.13741321	0.88568628	6.1527959	7.9977903
4	4	2	0.1437177	-0.4683526	5.6412444	8.4982598
5	4	1	-0.4972971	-0.39754896	5.3413615	9.8648991
6	4	3	0.074412549	-0.7819772	4.7409504	7.922691
7	4	3	0.074412549	-1.2388645	6.4282536	8.3518427
8	4	4	0.08751736	1.183447	7.0394715	8.599241
9	4	4	0.08751736	1.6582263	5.3654004	8.1384857
10	4	3	0.0763976	1.8071971	7.0050747	6.2209707
11	4	3	0.0763976	0.047899106	7.3265318	6.3689638
12	5	5	0.75929714	0.10922428	4.437893	9.9450958
13	5	6	-0.56750458	1.2396403	4.3386464	9.4952171
14	5	2	-0.21003926	-0.54502476	3.2704402	10.624999
15	5	2	-0.11675036	-0.77629905	2.0979028	9.662516
16	5	2	-0.13741786	-1.8205377	2.428296	8.5863492
17	5	2	-0.14275683	-2.0667898	1.2245066	7.6696039
18	5	2	-0.14285753	-3.0993307	1.5626723	6.583601
19	5	2	-0.14285753	-3.483052	0.34416114	5.7280068
20	5	2	-0.14285753	-2.3547814	-0.089039045	4.7761207
21	5	2	-0.14285753	-2.7665887	-1.2594816	3.8681759
22	5	2	-0.14285753	-3.6227491	-0.80455892	2.6735694
23	5	2	-0.14285753	-4.1563465	-1.9814176	1.8356174
24	5	2	-0.14285753	-3.0759326	-2.8667436	1.1868996
25	5	2	-0.14285753	-2.1853479	-2.0968204	0.19780409
26	5	2	-0.14275683	-1.1895746	-3.0065284	-0.54166328
27	5	2	-0.14006867	-1.8250736	-3.9841627	-1.5511806
28	5	2	-0.098384326	-2.5436845	-3.2863408	-2.7275904
29	5	2	-0.25892734	-4.0742859	-3.2873793	-2.5887866
30	5	5	0.51491387	-4.6589528	-4.6602027	-2.7648445
31	5	6	-0.70573305	-5.8645952	-4.8234275	-2.6766006
32	5	4	0.11098316	-4.5021345	-2.6230821	-3.3697442
33	5	4	0.11098316	-4.3768859	-2.8865468	-1.600714
34	5	4	0.07386479	-2.1892919	-2.2377538	-2.8325245
35	5	4	0.07386479	-2.2732682	-3.7994371	-3.6775442
36	5	4	0.075515302	-0.9976522	-4.5952415	-1.9723521
37	5	4	0.075515302	-2.4910183	-4.7026442	-1.0307038
38	5	4	0.077381963	-0.45926626	-2.3650359	-1.082015
39	5	4	0.077381963	-0.6102167	-3.5915041	0.20532325
40	5	4	0.077381963	-2.8047103	-1.5298286	-0.5284166
41	5	4	0.077381963	-1.5855449	-1.3530291	0.76373688
42	5	4	0.077381963	-2.4504698	-3.3479628	1.9675156
43	5	4	0.077381963	-3.6070454	-3.6820036	0.65258764
44	5	4	0.077381963	-4.7949301	-2.6210288	2.4829833
45	5	4	0.077381963	-4.812019	-1.5750304	1.0346655
46	5	4	0.077381963	-3.0433749	-0.10674329	2.0330947
47	5	4	0.077381963	-4.5048969	-0.24109988	3.0425548
48	5	4	0.077381963	-1.8357977	-1.7261744	3.4826334
49	5	4	0.077381963	-3.3106351	-2.0266356	4.4617129
50	5	4	0.077381963	-1.4839245	-0.42375754	5.3793551
51	5	4	0.077381963	-2.0228641	0.77246979	4.1550262
52	5	4	0.077381963	-4.380345	0.6210692	5.1366084
53	5	4	0.077381963	-3.7672258	-0.50415292	6.3885532
54	5	4	0.077381963	-2.710016	2.3742648	5.9301198
55	5	4	0.077381963	-4.0236665	1.9403612	7.0744414
56	5	4	0.077381963	-1.1052145	0.93402271	7.1944638
57	5	4	0.077381963	-2.4350982	0.37019176	8.2780126
58	5	4	0.075515302	-1.4652684	3.2857525	7.9734561
59	5	4	0.075515302	-2.775264	2.7184584	9.0779206
60	5	4	0.082590381	0.18619422	1.8109803	9.1827419
61	5	4	0.082590381	-1.131078	1.2267113	10.255887
62	5	4	0.11388415	0.106698	2.9336414	11.459876
63	5	4	0.11388415	-1.5139781	3.5930439	11.063372
64	1	1	-0.1861493	1.3735864	4.9031289	5.6661892
65	1	2	0.047108075	1.0469536	3.6347203	6.1670271
66	1	2	-0.172668	0.90627649	3.6672093	7.6928293
67	1	2	0.093884232	2.2260474	4.0328628	8.3792281
68	1	7	-0.68798088	2.0746418	3.9935557	9.7721988
69	1	8	0.37415637	1.5808965	4.8165551	10.026784
70	1	3	0.068061272	2.5664881	5.0443307	8.0582813
71	1	3	0.068061272	3.0098495	3.2993118	8.0905101
72	1	4	0.091277624	0.58036549	2.6645078	8.0436766
73	1	4	0.091277624	0.12143096	4.4025043	7.9759913
74	1	3	0.076231675	0.095279673	3.2766331	5.7130103
75	1	3	0.076231675	1.8444228	2.9165434	5.8796684
76	2	5	0.51491393	-4.0219927	-5.5148878	-2.9687985
77	2	6	-0.70573299	-3.0651607	-5.7401228	-2.2458325
78	2	2	-0.25892737	-4.3254371	-6.411004	-4.1338746
79	2	2	-0.098384326	-3.1876293	-6.4307119	-5.1618605
80	2	2	-0.14006867	-2.9957011	-5.0665239	-5.842576
81	2	2	-0.14275683	-1.8866944	-5.1320835	-6.9054635
82	2	2	-0.14285753	-1.7450634	-3.8238196	-7.7029981
83	2	2	-0.14285753	-1.3635854	-2.5834425	-6.8683764
84	2	2	-0.14285753	-0.069946432	-2.7220098	-6.0435885
85	2	2	-0.14285753	1.1768009	-2.9120095	-6.924286
86	2	2	-0.14285753	2.4755561	-2.9681036	-6.0994087
87	2	2	-0.14285753	2.9649215	-1.5837094	-5.6176275
88	2	2	-0.14285753	4.0998276	-0.99524954	-6.4737864
89	2	2	-0.14285753	3.6413012	-0.60893905	-7.8887916
90	2	2	-0.14275683	4.7349214	0.12596513	-8.68331
91	2	2	-0.13741786	4.9094681	1.5874198	-8.2325088
92	2	2	-0.11421844	5.8292772	2.388719	-9.1677482
93	2	2	-0.22013274	7.3001562	1.9557235	-9.0636904
94	2	5	0.8211515	8.1720452	2.8685891	-9.8652787
95	2	6	-0.56956696	8.4612205	2.5843868	-11.056839
96	2	7	-0.66825758	8.6311126	4.0547596	-9.3036012
97	2	8	0.39031638	9.2109405	4.6927012	-9.8357066
98	2	4	0.11488678	7.6307377	1.9860599	-8.0025092
99	2	4	0.11488678	7.4229771	0.91651199	-9.4370755
100	2	4	0.082590381	5.4810544	2.2904996	-10.220287
101	2	4	0.082590381	5.7499567	3.461634	-8.8860843
102	2	4	0.075515302	5.3154608	1.6301329	-7.1999627
103	2	4	0.075515302	3.9149396	2.0827023	-8.2254067
104	2	4	0.077381963	5.694081	-0.42681659	-8.5886089
105	2	4	0.077381963	4.4457644	0.11455842	-9.7571275
106	2	4	0.077381963	2.7227966	0.017240269	-7.8415597
107	2	4	0.077381963	3.3923112	-1.5378306	-8.4435387
108	2	4	0.077381963	4.4807748	-0.096945668	-5.9464018
109	2	4	0.077381963	4.9376796	-1.7236903	-6.5383315
110	2	4	0.077381963	3.3607683	-1.7039596	-4.5850137
111	2	4	0.077381963	2.1322633	-0.85001824	-5.54845
112	2	4	0.077381963	3.2666006	-3.4619498	-6.7046297
113	2	4	0.077381963	2.3127131	-3.6263504	-5.2169631
114	2	4	0.077381963	1.2311806	-2.0986163	-7.6779088
115	2	4	0.077381963	1.0881763	-3.874163	-7.4704538
116	2	4	0.077381963	-0.16076844	-3.5584769	-5.3188022
117	2	4	0.077381963	0.041645116	-1.7939331	-5.4422366
118	2	4	0.077381963	-1.2557975	-1.7176549	-7.5590677
119	2	4	0.077381963	-2.199223	-2.3295409	-6.1834116
120	2	4	0.077381963	-2.707895	-3.6131096	-8.2175557
121	2	4	0.077381963	-0.99247225	-3.973841	-8.5049851
122	2	4	0.077381963	-0.91927344	-5.4032944	-6.4332566
123	2	4	0.077381963	-2.1300017	-5.9426109	-7.6275057
124	2	4	0.075515302	-3.9494822	-4.7585865	-6.3229147
125	2	4	0.075515302	-2.7234018	-4.3145676	-5.0732699
126	2	4	0.07386479	-3.4349134	-7.1913942	-5.9346437
127	2	4	0.07386479	-2.2421097	-6.7442647	-4.6658945
128	2	4	0.11098316	-4.4935758	-7.4442573	-3.754752
129	2	4	0.11098316	-5.2655784	-6.074171	-4.624263
130	4	1	-0.18686046	-6.3437976	-1.3034285	33.078503
131	4	2	0.038697625	-7.2938577	-1.4032558	34.10556
132	4	2	-0.13741321	-8.1177292	-2.6876356	33.96799
133	4	2	0.1437177	-8.9358112	-2.7042907	32.673371
134	4	1	-0.4972971	-9.7204678	-3.863219	32.61136
135	4	3	0.074412549	-8.2641628	-2.6466752	31.786952
136	4	3	0.074412549	-9.6112538	-1.8223802	32.650545
137	4	4	0.08751736	-8.8094567	-2.7637123	34.835356
138	4	4	0.08751736	-7.4370013	-3.5666442	33.99162
139	4	3	0.0763976	-6.7875732	-1.3891874	35.098197
140	4	3	0.0763976	-7.9663702	-0.51947172	34.061665
141	5	5	0.75929714	-9.0807805	-4.6421402	32.359193
142	5	6	-0.56750458	-8.1240848	-4.8924015	33.074863
143	5	2	-0.21003926	-9.3462974	-5.4604303	31.129088
144	5	2	-0.11675036	-8.2285174	-5.3157976	30.087764
145	5	2	-0.13741786	-8.1730543	-3.9029744	29.488946
146	5	2	-0.14275683	-7.0804946	-3.8008105	28.41841
147	5	2	-0.14285753	-7.0156721	-2.3821305	27.83271
148	5	2	-0.14285753	-6.0312221	-2.2686707	26.657109
149	5	2	-0.14285753	-4.5619368	-2.3460369	27.106508
150	5	2	-0.14285753	-3.5781641	-2.1567293	25.940215
151	5	2	-0.14285753	-3.4000409	-0.67796902	25.554741
152	5	2	-0.14285753	-2.5263742	-0.48619278	24.301021
153	5	2	-0.14285753	-1.08047	-1.0018848	24.424931
154	5	2	-0.14285753	-0.28331155	-0.28955418	25.530081
155	5	2	-0.14275683	1.1939816	-0.71612415	25.569932
156	5	2	-0.14006867	2.0403784	-0.24858395	24.368362
157	5	2	-0.098384326	2.1617814	1.2872344	24.250802
158	5	2	-0.25892734	1.2630426	1.8838624	23.156128
159	5	5	0.51491387	1.7361963	1.5254681	21.775854
160	5	6	-0.70573305	1.1206349	1.9218056	20.800148
161	5	4	0.11098316	1.2734772	2.9906151	23.252198
162	5	4	0.11098316	0.21587803	1.5431499	23.282153
163	5	4	0.07386479	1.9211328	1.7716108	25.222197
164	5	4	0.07386479	3.2187455	1.5545223	24.026773
165	5	4	0.075515302	3.0623735	-0.66037033	24.514604
166	5	4	0.075515302	1.6670979	-0.70455185	23.428495
167	5	4	0.077381963	1.6517151	-0.31732145	26.501747
168	5	4	0.077381963	1.249	-1.8245103	25.635461
169	5	4	0.077381963	-0.36535193	0.8125608	25.424734
170	5	4	0.077381963	-0.72368538	-0.55560168	26.514235
171	5	4	0.077381963	-1.0745561	-2.0983806	24.597555
172	5	4	0.077381963	-0.59236544	-0.82826017	23.443184
173	5	4	0.077381963	-3.0125361	-1.0010595	23.443972
174	5	4	0.077381963	-2.4980463	0.59758349	24.053619
175	5	4	0.077381963	-2.9775065	-0.10936	26.409713
176	5	4	0.077381963	-4.3911256	-0.23049036	25.332626
177	5	4	0.077381963	-2.5960909	-2.561901	26.262992
178	5	4	0.077381963	-3.9159901	-2.7460727	25.059678
179	5	4	0.077381963	-4.3722303	-3.3491016	27.544906
180	5	4	0.077381963	-4.3607162	-1.5895302	27.897288
181	5	4	0.077381963	-6.2155437	-1.2934436	26.160599
182	5	4	0.077381963	-6.2415957	-3.067479	25.912555
183	5	4	0.077381963	-6.7377279	-1.6560548	28.628227
184	5	4	0.077381963	-8.0262409	-2.1026122	27.460433
185	5	4	0.077381963	-6.1031179	-4.060792	28.878747
186	5	4	0.077381963	-7.2952418	-4.5279298	27.605485
187	5	4	0.075515302	-7.9634659	-3.1650611	30.294329
188	5	4	0.075515302	-9.158292	-3.657861	29.034452
189	5	4	0.082590381	-7.2490878	-5.5709889	30.550901
190	5	4	0.082590381	-8.4175149	-6.0476556	29.271924
191	5	4	0.11388415	-9.4338401	-6.5284111	31.423956
192	5	4	0.11388415	-10.316903	-5.1536789	30.683059
193	1	1	-0.1861493	-5.6201421	-1.9464731	33.298054
194	1	2	0.047108075	-5.5395823	-2.8423109	32.222241
195	1	2	-0.172668	-6.705871	-3.8363085	32.247882
196	1	2	0.093884232	-6.6739998	-4.7202431	33.498596
197	1	7	-0.68798088	-7.7178801	-5.6548511	33.457881
198	1	8	0.37415637	-8.5486992	-5.1616875	33.686912
199	1	3	0.068061272	-6.7517485	-4.0974825	34.419518
200	1	3	0.068061272	-5.7099174	-5.2723225	33.538021
201	1	4	0.091277624	-6.6458068	-4.4819682	31.345531
202	1	4	0.091277624	-7.6674093	-3.2788884	32.208526
203	1	3	0.076231675	-5.5464214	-2.2852178	31.258062
204	1	3	0.076231675	-4.5766395	-3.393178	32.282215
205	2	5	0.51491393	2.6213588	0.91431533	21.631696
206	2	6	-0.70573299	2.7193159	-0.15253911	22.215788
207	2	2	-0.25892737	3.7125087	1.3851445	20.715062
208	2	2	-0.098384326	5.043246	1.582388	21.451257
209	2	2	-0.14006867	4.9734627	2.718382	22.483666
210	2	2	-0.14275683	6.3356365	2.9283242	23.165084
211	2	2	-0.14285753	6.3486719	4.139036	24.114653
212	2	2	-0.14285753	5.3674217	4.0532929	25.302277
213	2	2	-0.14285753	5.5284638	2.8089403	26.195938
214	2	2	-0.14285753	6.8934909	2.7601018	26.903344
215	2	2	-0.14285753	7.017803	1.5582993	27.857572
216	2	2	-0.14285753	6.2734137	1.7507612	29.198087
217	2	2	-0.14285753	7.1911934	2.1595634	30.363363
218	2	2	-0.14285753	7.7657956	3.5757407	30.202129
219	2	2	-0.14275683	8.5485837	4.0396303	31.442854
220	2	2	-0.13741786	7.6244993	4.4388762	32.607417
221	2	2	-0.11421844	8.3839678	5.117067	33.758967
222	2	2	-0.22013274	9.2870569	4.1398707	34.527938
223	2	5	0.8211515	9.8738638	4.8063957	35.731042
224	2	6	-0.56956696	11.002013	5.3601956	35.661808
225	2	7	-0.66825758	9.1517768	4.8482904	36.918502
226	2	8	0.39031638	9.5266087	5.307678	37.739946
227	2	4	0.11488678	8.6964927	3.2582278	34.859976
228	2	4	0.11488678	10.110718	3.7810823	33.874244
229	2	4	0.082590381	8.9915805	5.9636417	33.367992
230	2	4	0.082590381	7.6317506	5.5391226	34.460972
231	2	4	0.075515302	7.0877222	3.5499185	33.000394
232	2	4	0.075515302	6.8625831	5.1553414	32.232446
233	2	4	0.077381963	9.2475474	3.2361329	31.759658
234	2	4	0.077381963	9.1607229	4.9216843	31.152867
235	2	4	0.077381963	6.9529004	4.3007157	29.974984
236	2	4	0.077381963	8.470223	3.5737463	29.344016
237	2	4	0.077381963	6.5897525	2.1042592	31.29364
238	2	4	0.077381963	8.0228762	1.4276988	30.460655
239	2	4	0.077381963	5.8090221	0.77757077	29.471376
240	2	4	0.077381963	5.4386747	2.4798626	29.108478
241	2	4	0.077381963	8.0947583	1.3566487	28.045807
242	2	4	0.077381963	6.6236185	0.65153236	27.346779
243	2	4	0.077381963	7.0659384	3.7098439	27.451764
244	2	4	0.077381963	7.6916786	2.6611152	26.138497
245	2	4	0.077381963	5.3683045	1.8835022	25.603355
246	2	4	0.077381963	4.7195984	2.8400298	26.957629
247	2	4	0.077381963	5.498405	4.9629681	25.929649
248	2	4	0.077381963	4.3252968	4.0882431	24.921899
249	2	4	0.077381963	6.1073766	5.053788	23.530514
250	2	4	0.077381963	7.3803779	4.2808894	24.498767
251	2	4	0.077381963	6.6380948	2.0083779	23.707906
252	2	4	0.077381963	7.1046738	3.1061723	22.381216
253	2	4	0.075515302	4.6663643	3.6578775	21.975446
254	2	4	0.075515302	4.2141785	2.4621379	23.251288
255	2	4	0.07386479	5.822243	1.8249694	20.695414
256	2	4	0.07386479	5.3376665	0.63256814	21.950721
257	2	4	0.11098316	3.8497783	0.63126248	19.907327
258	2	4	0.11098316	3.40586	2.3412748	20.235913
259	4	1	-0.18686046	-1.794649	-7.5398681	55.49838
260	4	2	0.038697625	-2.101173	-8.7814773	54.922295
261	4	2	-0.13741321	-3.0953118	-9.5589622	55.79093
262	4	2	0.1437177	-2.5088871	-9.8975266	57.164631
263	4	1	-0.4972971	-3.4215813	-10.658681	57.906439
264	4	3	0.074412549	-2.2461928	-8.9666774	57.71661
265	4	3	0.074412549	-1.5801984	-10.493415	57.034383
266	4	4	0.08751736	-3.3647783	-10.50304	55.268719
267	4	4	0.08751736	-4.0224942	-8.9582574	55.917783
268	4	3	0.0763976	-2.5297602	-8.635771	53.903996
269	4	3	0.0763976	-1.1636382	-9.3674972	54.808791
270	5	5	0.75929714	-4.1505703	-10.000784	58.245926
271	5	6	-0.56750458	-4.7957374	-9.3481192	57.441023
272	5	2	-0.21003926	-4.4140255	-9.870146	59.717926
273	5	2	-0.11675036	-4.0887491	-8.464152	60.239541
274	5	2	-0.13741786	-2.5846953	-8.1595851	60.186719
275	5	2	-0.14275683	-2.2837176	-6.7691553	60.757936
276	5	2	-0.14285753	-0.78056023	-6.4599399	60.688635
277	5	2	-0.14285753	-0.41353326	-5.135809	61.378578
278	5	2	-0.14285753	-0.88798277	-3.9050247	60.586863
279	5	2	-0.14285753	-0.4545784	-2.5818356	61.238949
280	5	2	-0.14285753	1.0128413	-2.2305848	60.938363
281	5	2	-0.14285753	1.4981511	-0.98179417	61.69789
282	5	2	-0.14285753	0.74268375	0.31949943	61.369508
283	5	2	-0.14285753	0.86672212	0.72739553	59.89219
284	5	2	-0.14275683	0.21826559	2.0896328	59.592592
285	5	2	-0.14006867	0.94236924	3.3055189	60.20582
286	5	2	-0.098384326	2.3747447	3.5159508	59.666083
287	5	2	-0.25892734	3.4652005	3.0573092	60.647185
288	5	5	0.51491387	3.556896	3.9508202	61.851638
289	5	6	-0.70573305	4.3740533	3.711722	62.725187
290	5	4	0.11098316	4.4447821	3.0759833	60.123438
291	5	4	0.11098316	3.2788114	2.0163679	60.979181
292	5	4	0.07386479	2.5081643	2.9826825	58.699664
293	5	4	0.07386479	2.5275078	4.5961481	59.445533
294	5	4	0.075515302	0.34380301	4.2039527	59.941312
295	5	4	0.075515302	0.92441521	3.2510989	61.31366
296	5	4	0.077381963	0.17278772	2.2241667	58.489562
297	5	4	0.077381963	-0.83190567	2.0785527	59.95709
298	5	4	0.077381963	1.9299486	0.72609723	59.572763
299	5	4	0.077381963	0.33944087	-0.026000603	59.269584
300	5	4	0.077381963	-0.32717988	0.22683166	61.650473
301	5	4	0.077381963	1.1764188	1.1136257	62.012514
302	5	4	0.077381963	1.4147553	-1.1723752	62.789998
303	5	4	0.077381963	2.5777171	-0.83236446	61.477008
304	5	4	0.077381963	1.1567653	-2.0972468	59.845506
305	5	4	0.077381963	1.6664932	-3.0732375	61.245766
306	5	4	0.077381963	-1.104259	-1.779736	60.829842
307	5	4	0.077381963	-0.62220984	-2.62762	62.337403
308	5	4	0.077381963	-1.9982059	-3.9099328	60.545626
309	5	4	0.077381963	-0.51206794	-3.9517249	59.540617
310	5	4	0.077381963	0.69123359	-5.1074438	61.479823
311	5	4	0.077381963	-0.843468	-5.114738	62.403968
312	5	4	0.077381963	-0.44688442	-6.4370894	59.627774
313	5	4	0.077381963	-0.2236778	-7.2769876	61.198816
314	5	4	0.077381963	-2.8490123	-6.0120665	60.173107
315	5	4	0.077381963	-2.6224393	-6.7267087	61.815826
316	5	4	0.075515302	-2.2324951	-8.2039714	59.132646
317	5	4	0.075515302	-2.0338687	-8.9265798	60.774638
318	5	4	0.082590381	-4.6509943	-7.7058879	59.649781
319	5	4	0.082590381	-4.4349948	-8.3966553	61.294287
320	5	4	0.11388415	-5.4865102	-10.090619	59.908614
321	5	4	0.11388415	-3.8120743	-10.623908	60.269841
322	1	1	-0.1861493	-2.5830054	-6.9554615	55.348884
323	1	2	0.047108075	-3.0301621	-6.5533025	56.615655
324	1	2	-0.172668	-3.7604586	-7.6970657	57.327968
325	1	2	0.093884232	-5.0287085	-8.1176117	56.578753
326	1	7	-0.68798088	-5.7006203	-9.1217229	57.289479
327	1	8	0.37415637	-5.1942266	-9.9624728	57.139043
328	1	3	0.068061272	-4.7767695	-8.4754768	55.553846
329	1	3	0.068061272	-5.7079884	-7.2432232	56.479633
330	1	4	0.091277624	-4.0372212	-7.3629078	58.350936
331	1	4	0.091277624	-3.0767187	-8.5688837	57.424172
332	1	3	0.076231675	-2.1695119	-6.2170032	57.237125
333	1	3	0.076231675	-3.715561	-5.6868077	56.498501
334	2	5	0.51491393	2.9026262	4.8100306	61.958831
335	2	6	-0.70573299	1.6963006	4.6676756	61.84285
336	2	2	-0.25892737	3.4866963	6.1613526	62.250886
337	2	2	-0.098384326	3.1835254	7.1759917	61.141677
338	2	2	-0.14006867	3.8650441	6.8073679	59.8147
339	2	2	-0.14275683	3.588148	7.8703848	58.738946
340	2	2	-0.14285753	4.3545723	7.6102012	57.430293
341	2	2	-0.14285753	4.0081228	6.2860925	56.717999
342	2	2	-0.14285753	2.5167296	6.0931587	56.384081
343	2	2	-0.14285753	1.9924255	7.1406072	55.387054
344	2	2	-0.14285753	0.52425328	6.8944194	54.994376
345	2	2	-0.14285753	0.33911011	5.7526001	53.969628
346	2	2	-0.14285753	0.14300671	6.242782	52.524439
347	2	2	-0.14285753	1.4069341	6.8902078	51.93703
348	2	2	-0.14275683	1.2563159	7.2300833	50.443997
349	2	2	-0.13741786	1.3540213	5.9854602	49.543494
350	2	2	-0.11421844	1.4361532	6.3410944	48.050316
351	2	2	-0.22013274	0.11322585	6.8985715	47.50179
352	2	5	0.8211515	0.19437527	7.073935	46.018982
353	2	6	-0.56956696	0.54257743	8.1800581	45.52964
354	2	7	-0.66825758	-0.077384645	5.998686	45.180405
355	2	8	0.39031638	-0.013788629	6.0942584	44.173863
356	2	4	0.11488678	-0.71905815	6.1988216	47.734091
357	2	4	0.11488678	-0.11531071	7.8794303	47.970991
358	2	4	0.082590381	2.2547265	7.0752942	47.878175
359	2	4	0.082590381	1.6935979	5.413722	47.493113
360	2	4	0.075515302	0.48419163	5.3157378	49.70985
361	2	4	0.075515302	2.2721727	5.4196612	49.810536
362	2	4	0.077381963	0.28960511	7.7528069	50.280432
363	2	4	0.077381963	2.0702527	7.9361185	50.168593
364	2	4	0.077381963	2.287891	6.2273221	52.086962
365	2	4	0.077381963	1.5993072	7.8402666	52.478288
366	2	4	0.077381963	-0.14492535	5.3634875	51.912768
367	2	4	0.077381963	-0.70047439	6.9664906	52.484771
368	2	4	0.077381963	-0.57671092	5.1879225	54.252218
369	2	4	0.077381963	1.1777823	5.0233441	54.004594
370	2	4	0.077381963	0.094405356	7.8383594	54.594206
371	2	4	0.077381963	-0.059016605	6.6602818	55.912795
372	2	4	0.077381963	2.6379562	7.1549288	54.483949
373	2	4	0.077381963	2.0466971	8.1442223	55.857909
374	2	4	0.077381963	1.9074378	6.106064	57.312434
375	2	4	0.077381963	2.4030217	5.0780299	55.945918
376	2	4	0.077381963	4.5951724	6.2335028	55.77414
377	2	4	0.077381963	4.3486	5.4329837	57.341067
378	2	4	0.077381963	5.4448147	7.6119473	57.648425
379	2	4	0.077381963	4.1767592	8.4587898	56.737211
380	2	4	0.077381963	2.4980158	7.9398546	58.540896
381	2	4	0.077381963	3.9082019	8.8631421	59.125594
382	2	4	0.075515302	4.9613905	6.7226907	59.976266
383	2	4	0.075515302	3.477289	5.8263239	59.470294
384	2	4	0.07386479	3.5512498	8.1711607	61.475441
385	2	4	0.07386479	2.082944	7.2512722	60.995531
386	2	4	0.11098316	3.0637527	6.5326087	63.211566
387	2	4	0.11098316	4.5877432	6.068002	62.380441
388	4	1	-0.18686046	2.0484604	1.1224889	78.057275
389	4	2	0.038697625	2.7004059	1.3347795	76.833623
390	4	2	-0.13741321	1.8477705	2.2006871	75.900597
391	4	2	0.1437177	0.53067208	1.5127914	75.529615
392	4	1	-0.4972971	-0.19315306	2.3059974	74.629867
393	4	3	0.074412549	-0.076247858	1.314678	76.442067
394	4	3	0.074412549	0.74631751	0.53795575	75.042068
395	4	4	0.08751736	2.4257073	2.4026713	74.97227
396	4	4	0.08751736	1.6352196	3.1746781	76.393312
397	4	3	0.0763976	3.6848064	1.8282454	77.004786
398	4	3	0.0763976	2.8990385	0.35125133	76.355615
399	5	5	0.75929714	-0.61284545	3.0775645	75.184888
400	5	6	-0.56750458	0.11171605	3.8250926	75.822299
401	5	2	-0.21003926	-2.1008408	3.2753667	75.185985
402	5	2	-0.11675036	-2.7098334	3.0634926	76.578445
403	5	2	-0.13741786	-2.6120121	1.6016159	77.037875
404	5	2	-0.14275683	-3.2703631	1.4097635	78.408983
405	5	2	-0.14285753	-3.1565079	-0.049903244	78.874074
406	5	2	-0.14285753	-3.9252622	-0.32013048	80.177932
407	5	2	-0.14285753	-3.2489092	0.31405399	81.405573
408	5	2	-0.14285753	-3.9768902	-0.020251677	82.717887
409	5	2	-0.14285753	-3.6373363	-1.4281788	83.237015
410	5	2	-0.14285753	-4.4645161	-1.8270127	84.473377
411	5	2	-0.14285753	-4.2676229	-0.93081495	85.710306
412	5	2	-0.14285753	-2.8204347	-0.93669878	86.229772
413	5	2	-0.14275683	-2.6519069	-0.14233876	87.536117
414	5	2	-0.14006867	-3.3201501	-0.77407796	88.774305
415	5	2	-0.098384326	-2.7335073	-2.1485712	89.166625
416	5	2	-0.25892734	-3.6279055	-3.3286826	88.755047
417	5	5	0.51491387	-4.8897871	-3.394627	89.567932
418	5	6	-0.70573305	-5.705579	-4.2758835	89.35375
419	5	4	0.11098316	-3.0633985	-4.2729497	88.909745
420	5	4	0.11098316	-3.8900625	-3.2634251	87.680088
421	5	4	0.07386479	-1.7252723	-2.2832534	88.717779
422	5	4	0.07386479	-2.5867953	-2.1823636	90.269412
423	5	4	0.075515302	-3.1500331	-0.076856086	89.623051
424	5	4	0.075515302	-4.4206135	-0.81946771	88.641964
425	5	4	0.077381963	-1.5650168	-0.026265949	87.741153
426	5	4	0.077381963	-3.0615024	0.88114419	87.392746
427	5	4	0.077381963	-2.4542371	-1.97673	86.35908
428	5	4	0.077381963	-2.1681905	-0.45446627	85.471288
429	5	4	0.077381963	-4.5888524	0.10855686	85.489728
430	5	4	0.077381963	-4.9474149	-1.3171353	86.498252
431	5	4	0.077381963	-5.542182	-1.8199717	84.20032
432	5	4	0.077381963	-4.2069048	-2.8735685	84.747126
433	5	4	0.077381963	-2.5519647	-1.5009746	83.459497
434	5	4	0.077381963	-3.851833	-2.1768834	82.446286
435	5	4	0.077381963	-3.6578936	0.72582073	83.475801
436	5	4	0.077381963	-5.0753809	0.084443096	82.579484
437	5	4	0.077381963	-3.2574541	1.4190153	81.290215
438	5	4	0.077381963	-2.1862116	-0.0094687829	81.469852
439	5	4	0.077381963	-3.9784807	-1.4204914	80.311868
440	5	4	0.077381963	-4.9677186	0.055637522	80.084144
441	5	4	0.077381963	-2.0862974	-0.32383038	79.004071
442	5	4	0.077381963	-3.5792723	-0.71051012	78.084872
443	5	4	0.077381963	-2.7691765	2.0767178	79.142979
444	5	4	0.077381963	-4.3426713	1.6952977	78.343475
445	5	4	0.075515302	-1.542756	1.3022967	77.102571
446	5	4	0.075515302	-3.1161959	0.94790127	76.292359
447	5	4	0.082590381	-2.2036834	3.7277899	77.314259
448	5	4	0.082590381	-3.781201	3.3591377	76.537245
449	5	4	0.11388415	-2.3227985	4.3094583	74.844542
450	5	4	0.11388415	-2.567834	2.5740318	74.461305
451	1	1	-0.1861493	2.1186768	1.9713485	78.567072
452	1	2	0.047108075	0.80678735	2.3891944	78.83304
453	1	2	-0.172668	0.14885489	2.9649606	77.574257
454	1	2	0.093884232	0.86925344	4.2229645	77.079188
455	1	7	-0.68798088	0.20520337	4.7545619	75.965061
456	1	8	0.37415637	0.44005475	4.1762981	75.192804
457	1	3	0.068061272	1.9281214	3.990851	76.820545
458	1	3	0.068061272	0.87274776	4.9893866	77.884412
459	1	4	0.091277624	-0.90744606	3.2195067	77.806972
460	1	4	0.091277624	0.14827595	2.1945121	76.77224
461	1	3	0.076231675	0.20153226	1.5346119	79.211717
462	1	3	0.076231675	0.82855679	3.1618611	79.631052
463	2	5	0.51491393	-5.0895825	-2.6653317	90.346399
464	2	6	-0.70573299	-5.0178263	-1.4745147	90.089994
465	2	2	-0.25892737	-5.4541811	-3.127783	91.726875
466	2	2	-0.098384326	-4.4378281	-2.6685336	92.779427
467	2	2	-0.14006867	-3.0578858	-3.3128272	92.57482
468	2	2	-0.14275683	-2.0772566	-2.8766665	93.675754
469	2	2	-0.14285753	-0.71976594	-3.5956014	93.586163
470	2	2	-0.14285753	0.072180332	-3.3446535	92.28597
471	2	2	-0.14285753	0.35195919	-1.8641517	91.965321
472	2	2	-0.14285753	1.2441685	-1.1877749	93.020112
473	2	2	-0.14285753	1.5874712	0.26746983	92.653042
474	2	2	-0.14285753	2.6844801	0.39241111	91.571793
475	2	2	-0.14285753	4.0791589	0.71110453	92.138018
476	2	2	-0.14285753	4.6733914	-0.45041902	92.950097
477	2	2	-0.14275683	6.1288993	-0.18924642	93.375108
478	2	2	-0.13741786	7.1224678	-0.36201295	92.212133
479	2	2	-0.11421844	8.5874347	-0.33057609	92.676553
480	2	2	-0.22013274	9.0331037	1.0677045	93.13261
481	2	5	0.8211515	10.501028	1.0818032	93.417318
482	2	6	-0.56956696	10.922406	0.87038806	94.584345
483	2	7	-0.66825758	11.403741	1.2896592	92.380433
484	2	8	0.39031638	12.402298	1.288458	92.551276
485	2	4	0.11488678	8.8159516	1.8136697	92.337192
486	2	4	0.11488678	8.4828338	1.3670092	94.050261
487	2	4	0.082590381	8.7414876	-1.0626621	93.500605
488	2	4	0.082590381	9.222723	-0.64873849	91.82101
489	2	4	0.075515302	6.9671013	0.42766834	91.447234
490	2	4	0.075515302	6.9396152	-1.3441625	91.725934
491	2	4	0.077381963	6.2096628	0.83150747	93.806457
492	2	4	0.077381963	6.3877016	-0.91410792	94.177868
493	2	4	0.077381963	4.6127145	-1.399061	92.371842
494	2	4	0.077381963	4.0725643	-0.57619644	93.875173
495	2	4	0.077381963	4.7405978	0.94249878	91.278273
496	2	4	0.077381963	4.0271752	1.6227418	92.772843
497	2	4	0.077381963	2.4034764	1.2320817	90.898416
498	2	4	0.077381963	2.7413412	-0.51474863	90.931296
499	2	4	0.077381963	1.8969726	0.80859941	93.57354
500	2	4	0.077381963	0.66355482	0.77604205	92.297725
501	2	4	0.077381963	2.1718886	-1.7806908	93.162586
502	2	4	0.077381963	0.70330137	-1.1673554	93.9891
503	2	4	0.077381963	-0.60129565	-1.3058829	91.851821
504	2	4	0.077381963	0.85843254	-1.8283487	90.976581
505	2	4	0.077381963	1.0428162	-3.8839216	92.358888
506	2	4	0.077381963	-0.47012375	-3.7996581	91.431096
507	2	4	0.077381963	-0.88811729	-4.6902584	93.684127
508	2	4	0.077381963	-0.10005206	-3.2990339	94.457992
509	2	4	0.077381963	-1.9341737	-1.7761468	93.647087
510	2	4	0.077381963	-2.5214624	-3.1170419	94.666914
511	2	4	0.075515302	-3.1632167	-4.4191158	92.59155
512	2	4	0.075515302	-2.6596775	-3.0062248	91.585456
513	2	4	0.07386479	-4.8273806	-2.9532819	93.781499
514	2	4	0.07386479	-4.3473548	-1.5597683	92.751875
515	2	4	0.11098316	-6.4577533	-2.7210576	91.985784
516	2	4	0.11098316	-5.5267686	-4.2379259	91.737687
517	4	1	-0.18686046	5.2402701	5.4110413	111.73958
518	4	2	0.038697625	6.2467059	6.3798623	111.61349
519	4	2	-0.13741321	5.8867372	7.4080201	110.53616
520	4	2	0.1437177	5.7823208	6.7674696	109.14894
521	4	1	-0.4972971	5.5121043	7.745618	108.1831
522	4	3	0.074412549	4.9879995	5.9870104	109.13864
523	4	3	0.074412549	6.7469712	6.2793108	108.8927
524	4	4	0.08751736	6.6730573	8.1940456	110.51465
525	4	4	0.08751736	4.9209996	7.8933655	110.79769
526	4	3	0.0763976	6.4028375	6.8987718	112.58725
527	4	3	0.0763976	7.2009017	5.8758839	111.34742
528	5	5	0.75929714	4.5064693	7.9884432	108.27923
529	5	6	-0.56750458	4.0870608	8.4092219	109.34559
530	5	2	-0.21003926	3.5837826	7.834808	107.10521
531	5	2	-0.11675036	2.4945695	6.7846716	107.36121
532	5	2	-0.13741786	3.0704936	5.365013	107.46422
533	5	2	-0.14275683	1.9566358	4.3322645	107.67139
534	5	2	-0.14285753	2.5365328	2.914757	107.79094
535	5	2	-0.14285753	1.4481138	1.8308388	107.85816
536	5	2	-0.14285753	0.69466697	1.8316506	109.19945
537	5	2	-0.14285753	-0.3412555	0.699496	109.29419
538	5	2	-0.14285753	0.29921159	-0.65711386	109.63545
539	5	2	-0.14285753	-0.70737322	-1.8220889	109.59664
540	5	2	-0.14285753	-1.8737351	-1.7137217	110.59654
541	5	2	-0.14285753	-1.4066529	-1.6918455	112.06132
542	5	2	-0.14275683	-2.5755882	-1.7099192	113.06092
543	5	2	-0.14006867	-3.3673516	-3.0324111	113.11458
544	5	2	-0.098384326	-2.5309301	-4.2413404	113.59017
545	5	2	-0.25892734	-2.1060481	-5.1725388	112.44371
546	5	5	0.51491387	-3.268704	-5.9300257	111.86759