Title

9875 atoms
9750 bonds
18125 angles
32500 dihedrals
1875 impropers

9 atom types
12 bond types
9 angle types
39 dihedral types
3 improper types
-8.937159987 91.80800999 xlo xhi
-8.216692811 91.20889468 ylo yhi
-8.7516144 91.61349178 zlo zhi
0.0 0.0 0.0 xy xz yz

Masses

1	14.00672
2	12.01078
3	1.007947
4	1.007947
5	1.007947
6	12.01078
7	15.99943
8	15.99943
9	1.007947


Pair Coeffs

1	0.16769152	3.206876
2	0.10884061	3.3795318
3	0.014090815	1.1034277
4	0.016409246	2.5832257
5	0.015779483	2.6445434
6	0.086879315	3.4806469
7	0.2102061	3.0398122
8	0.20947353	2.99716
9	1.2326e-05	0.53453923

Bond Coeffs

1 harmonic	366.34047229585	1.464762957261
2 harmonic	505.144496193	1.019481865027
3 harmonic	422.7150220147	1.421786517481
4 harmonic	264.62148576755	1.52190126495
5 harmonic	370.04670688625	1.093899492634
6 harmonic	352.0565580496	1.450098586273
7 harmonic	492.76746816345	1.381897776683
8 harmonic	582.698766451	1.225198386222
9 harmonic	329.44145381095	1.523435958334
10 harmonic	279.1350963404	1.454628925034
11 harmonic	385.7604595587	1.369745182308
12 harmonic	543.5267831885	0.9716763312559


Angle Coeffs

1 harmonic	53.20531626545	116.5475862634
2 harmonic	49.015990027215	114.8414599994
3 harmonic	94.53012429075	110.92021963
4 harmonic	63.44422595415	115.5071327674
5 harmonic	55.42182150775	117.3465570514
6 harmonic	57.8982893754	126.8062420451
7 harmonic	48.776492647595	115.6030999533
8 harmonic	65.09061609600001	110.3538806181
9 harmonic	201.41175231035	127.4691416191


Dihedral Coeffs

1 fourier 1	0.1155372516788	3	0
2 fourier 1	0.2036670163956	3	0
3 fourier 1	0.6761465733405	3	0
4 fourier 1	1.653011589151	2	0
5 fourier 1	1.713184811193	1	0
6 fourier 1	0.774151252041	3	0
7 fourier 1	1.087509576657	2	0
8 fourier 1	1.518874939494	1	0
9 fourier 1	0.09223874044423	3	0
10 fourier 1	0.3159935921949	2	180
11 fourier 1	0.3247796806857	1	180
12 fourier 1	0.1040663847541	3	0
13 fourier 1	0.182238503271	2	0
14 fourier 1	0.02972342374561	3	0
15 fourier 1	-0.1488678166443	4	180
16 fourier 1	-0.1230328948768	3	180
17 fourier 1	0.2939295466901	2	0
18 fourier 1	-0.3024127022865	1	0
19 fourier 1	3.101948770557	2	180
20 fourier 1	-0.4252153282372	1	0
21 fourier 1	1.809047390003	2	180
22 fourier 1	-0.04816277792592	1	0
23 fourier 1	-0.04561822763521	4	0
24 fourier 1	0.1536091026885	2	0
25 fourier 1	0.02664938770063	3	0
26 fourier 1	2.348375642009	2	180
27 fourier 1	1.256156174911	1	0
28 fourier 1	0.1911926717192	3	0
29 fourier 1	0.3917343745784	3	0
30 fourier 1	0.9467782973395	2	0
31 fourier 1	0.2726597146827	1	0
32 fourier 1	-0.3703352413219	2	0
33 fourier 1	0.4541676554336	1	0
34 fourier 1	0.1489710476446	2	0
35 fourier 1	0.02960027280666	3	180
36 fourier 1	0.9974165607242	2	180
37 fourier 1	2.687457892086	2	180
38 fourier 1	2.772607909663	2	180
39 fourier 1	0.09692684957115	1	0


Improper Coeffs

1 0.3333333333333333	-1	2
2 0.3666666666666667	-1	2
3 3.5	-1	2


Atoms

1	5	1	-0.63603795	-1.8925075	-2.0286264	-6.2831674
2	5	2	0.032150969	-0.57719247	-1.7567229	-5.7038974
3	5	2	-0.15493678	-0.64179881	-1.5024594	-4.1879696
4	5	2	-0.14358364	-1.3485725	-0.18426372	-3.8395877
5	5	2	-0.14362176	-1.2671345	0.10223308	-2.3351514
6	5	2	-0.14498468	-1.9832565	1.411272	-1.9843688
7	5	2	0.016359486	-1.9007843	1.7005784	-0.4831006
8	5	1	-0.48880678	-2.6072005	2.9381789	-0.16914675
9	5	3	0.31937268	-2.0595632	3.736669	-0.56567293
10	5	4	0.051217534	-2.3680561	0.86263818	0.079226914
11	5	4	0.051217534	-0.83538296	1.7853969	-0.16931755
12	5	5	0.084979847	-1.5141227	2.2508194	-2.5449788
13	5	5	0.084979847	-3.052241	1.3423894	-2.2829792
14	5	5	0.083865851	-1.737343	-0.73608248	-1.7756936
15	5	5	0.083865851	-0.19913871	0.17467513	-2.0318131
16	5	5	0.085364923	-2.4183786	-0.2449748	-4.1356385
17	5	5	0.085364923	-0.87133725	0.65064982	-4.3988218
18	5	5	0.090706766	0.40069454	-1.4649639	-3.8027389
19	5	5	0.090706766	-1.155774	-2.3505193	-3.684899
20	5	4	0.092004918	-0.11497298	-0.88701083	-6.2188644
21	5	4	0.092004918	0.075799102	-2.636366	-5.8873398
22	5	3	0.3623496	-2.4640651	-1.1536567	-6.26573
23	6	6	0.72728062	-2.5947977	3.0592519	0.88953947
24	6	7	-0.73519522	-3.5635095	3.5524819	1.443817
25	6	2	-0.18169545	-1.4061861	2.6325143	1.6992546
26	6	2	-0.11828562	-0.30839463	2.0420582	0.80607072
27	6	2	-0.092308797	0.90378717	1.6084765	1.6385587
28	6	2	-0.25671697	2.0005868	1.0180953	0.74638004
29	6	6	0.51877707	3.1891983	0.59135769	1.5560952
30	6	7	-0.67168224	4.1587373	0.098646045	1.0016004
31	6	5	0.11584558	2.3278868	1.7781927	0.0039875686
32	6	5	0.11584558	1.6031728	0.13459457	0.20022114
33	6	5	0.077587649	1.3087653	2.4879593	2.1855173
34	6	5	0.077587649	0.58525096	0.84485675	2.3828977
35	6	5	0.085686594	0.0099767903	2.8062712	0.062519688
36	6	5	0.085686594	-0.7141999	1.1620571	0.25932936
37	6	5	0.11892426	-1.0086073	3.5154218	2.2446255
38	6	5	0.11892426	-1.732659	1.8729352	2.4414298
39	2	1	-0.63603801	-2.3840636	-2.7513144	-5.7086245
40	2	2	0.032150969	-3.7710126	-2.3423381	-5.4931139
41	2	2	-0.15493676	-3.8883766	-0.88576265	-5.0101618
42	2	2	-0.14365903	-3.3429193	-0.68982788	-3.5892399
43	2	2	-0.14229552	-3.6061596	0.73740558	-3.0918616
44	2	2	-0.15642273	-3.0513573	0.93901259	-1.6770631
45	2	2	0.029228386	-3.3153022	2.3622499	-1.1780926
46	2	1	-0.97374034	-2.7587204	2.5380152	0.15881471
47	2	3	0.38267154	-2.8900496	3.5399516	0.42908313
48	2	3	0.38267154	-3.331442	1.9731586	0.828528
49	2	4	0.08022406	-2.8358954	3.0900834	-1.8694599
50	2	4	0.08022406	-4.4111977	2.562003	-1.1591819
51	2	5	0.091589526	-3.5317957	0.2135748	-0.98390804
52	2	5	0.091589526	-1.9541667	0.75253642	-1.6777791
53	2	5	0.085364923	-3.1238194	1.4621298	-3.7840817
54	2	5	0.085364923	-4.7018576	0.92899624	-3.0870695
55	2	5	0.085364923	-2.246552	-0.87505854	-3.5809132
56	2	5	0.085364923	-3.8314624	-1.4141163	-2.9011833
57	2	5	0.090706766	-4.9653034	-0.60702599	-5.0251743
58	2	5	0.090706766	-3.3562068	-0.21157434	-5.7160984
59	2	4	0.092004925	-4.253401	-3.0275751	-4.7621026
60	2	4	0.092004925	-4.3207319	-2.4427527	-6.4538296
61	2	3	0.36234957	-1.8970895	-2.8218777	-4.7871339
62	3	6	0.51877713	3.2026835	0.71472645	2.6335845
63	3	7	-0.67168224	3.7216927	1.7073325	3.1204928
64	3	2	-0.256717	2.5689923	-0.32088938	3.5129845
65	3	2	-0.091404751	3.6185183	-1.0128946	4.3892602
66	3	2	-0.10970575	2.9741755	-2.0952067	5.2685929
67	3	2	-0.21843779	3.9882194	-2.7630374	6.2055449
68	3	6	0.82609922	4.9791697	-3.5942455	5.449698
69	3	7	-0.54533714	4.6576872	-4.7398391	5.0367897
70	3	8	-0.6631127	6.2457985	-3.0864585	5.177469
71	3	9	0.39738086	6.9228458	-3.6308395	4.6565436
72	3	5	0.12043077	4.5216951	-1.992259	6.8028399
73	3	5	0.12043077	3.4427498	-3.4182926	6.9198274
74	3	5	0.086559952	2.1801959	-1.6277147	5.8927504
75	3	5	0.086559952	2.491416	-2.8663138	4.6288507
76	3	5	0.077587649	4.1134684	-0.2588454	5.039318
77	3	5	0.077587649	4.3894612	-1.4759222	3.7340805
78	3	5	0.11584558	2.0644527	-1.075376	2.8714031
79	3	5	0.11584558	1.8004141	0.16622829	4.1517911
80	5	1	-0.63603795	4.207058	5.2605847	19.540434
81	5	2	0.032150969	3.1593168	4.6248256	20.338925
82	5	2	-0.15493678	2.6065193	3.3500358	19.678481
83	5	2	-0.14358364	1.8064328	3.6456133	18.401361
84	5	2	-0.14362176	1.1545378	2.3700968	17.853518
85	5	2	-0.14498468	0.3661853	2.6615142	16.571708
86	5	2	0.016359486	-0.28775441	1.3897842	16.024559
87	5	1	-0.48880678	-1.0134706	1.6861263	14.793802
88	5	3	0.31937268	-1.8515512	2.2623975	15.039277
89	5	4	0.051217534	0.49967055	0.63456651	15.809368
90	5	4	0.051217534	-0.98680972	0.96512736	16.780682
91	5	5	0.084979847	-0.42394719	3.4154774	16.787208
92	5	5	0.084979847	1.0502668	3.0789595	15.800726
93	5	5	0.083865851	1.9445055	1.6178231	17.636961
94	5	5	0.083865851	0.46687525	1.9498508	18.620585
95	5	5	0.085364923	2.4836126	4.0639555	17.625323
96	5	5	0.085364923	1.0155574	4.3952668	18.62522
97	5	5	0.090706766	1.9402326	2.8459979	20.41238
98	5	5	0.090706766	3.4411775	2.6524748	19.447807
99	5	4	0.092004918	2.3366878	5.3497364	20.520647
100	5	4	0.092004918	3.5871356	4.3538136	21.327532
101	5	3	0.3623496	3.7823271	5.6680553	18.676649
102	6	6	0.72728062	-1.3830548	0.7652016	14.405299
103	6	7	-0.73519522	-1.4236959	0.60238816	13.196687
104	6	2	-0.18169545	-1.8508584	-0.32511687	15.323398
105	6	2	-0.11828562	-1.7129049	0.089001295	16.793445
106	6	2	-0.092308797	-2.1929848	-1.0284456	17.726853
107	6	2	-0.25671697	-2.05483	-0.61505607	19.195704
108	6	6	0.51877707	-2.5226336	-1.7053745	20.113803
109	6	7	-0.67168224	-2.4827906	-1.5422992	21.322958
110	6	5	0.11584558	-2.6611886	0.29719891	19.38581
111	6	5	0.11584558	-0.98977838	-0.3885274	19.42187
112	6	5	0.077587649	-3.2588617	-1.2584393	17.508517
113	6	5	0.077587649	-1.5887641	-1.9452152	17.544996
114	6	5	0.085686594	-2.3177225	1.0053041	16.974649
115	6	5	0.085686594	-0.64622987	0.31873313	17.011238
116	6	5	0.11892426	-2.9153132	-0.55117875	15.097886
117	6	5	0.11892426	-1.2452979	-1.23711	15.133836
118	2	1	-0.63603801	4.9096684	4.5418217	19.251084
119	2	2	0.032150969	5.238933	4.7228704	17.838236
120	2	2	-0.15493676	3.9869854	4.8537516	16.952727
121	2	2	-0.14365903	3.1899091	3.5456041	16.861335
122	2	2	-0.14229552	2.0338736	3.6756066	15.861157
123	2	2	-0.15642273	1.2288456	2.3736914	15.777176
124	2	2	0.029228386	0.076048467	2.500841	14.777609
125	2	1	-0.97374034	-0.68932049	1.2598299	14.731784
126	2	3	0.38267154	-1.5088642	1.4144227	14.100422
127	2	3	0.38267154	-0.097630434	0.527184	14.274923
128	2	4	0.08022406	-0.59534677	3.3299709	15.09278
129	2	4	0.08022406	0.47497688	2.7350703	13.764081
130	2	5	0.091589526	1.8983679	1.5440058	15.459518
131	2	5	0.091589526	0.81384139	2.1277061	16.780104
132	2	5	0.085364923	1.3637179	4.5038647	16.180415
133	2	5	0.085364923	2.4429024	3.9195768	14.855941
134	2	5	0.085364923	2.772056	3.2919818	17.860072
135	2	5	0.085364923	3.8639566	2.7223003	16.538039
136	2	5	0.090706766	4.3199097	5.1457985	15.932158
137	2	5	0.090706766	3.3358276	5.6673611	17.340172
138	2	4	0.092004925	5.8671173	3.8742375	17.489191
139	2	4	0.092004925	5.8452424	5.6485041	17.73412
140	2	3	0.36234957	4.4855619	3.5971783	19.389108
141	3	6	0.51877713	-2.8993472	-2.6427387	19.719063
142	3	7	-0.67168224	-4.1018516	-2.7934052	19.567406
143	3	2	-0.256717	-1.9430842	-3.7351748	19.345494
144	3	2	-0.091404751	-2.138386	-4.9644151	20.239396
145	3	2	-0.10970575	-1.1383725	-6.0727848	19.877053
146	3	2	-0.21843779	-1.3502332	-7.342468	20.710828
147	3	6	0.82609922	-0.99418488	-7.1276504	22.150021
148	3	7	-0.54533714	0.21286042	-7.1340978	22.509506
149	3	8	-0.6631127	-1.9974159	-6.8901616	23.084597
150	3	9	0.39738086	-1.7722844	-6.7303648	24.059219
151	3	5	0.12043077	-2.4061894	-7.6801522	20.630935
152	3	5	0.12043077	-0.7097711	-8.1543732	20.301299
153	3	5	0.086559952	-1.2658038	-6.3370607	18.803533
154	3	5	0.086559952	-0.097806253	-5.7046737	20.013614
155	3	5	0.077587649	-3.1738721	-5.3503491	20.117066
156	3	5	0.077587649	-1.9949491	-4.6664805	21.301784
157	3	5	0.11584558	-0.90439165	-3.3555939	19.457177
158	3	5	0.11584558	-2.1033789	-4.0094342	18.280056
159	5	1	-0.63603795	1.468827	-4.2517813	31.205709
160	5	2	0.032150969	2.2535375	-3.8221833	32.362953
161	5	2	-0.15493678	1.4264242	-2.9942335	33.361574
162	5	2	-0.14358364	1.02784	-1.6204495	32.802658
163	5	2	-0.14362176	0.3306118	-0.77251278	33.8736
164	5	2	-0.14498468	-0.079104443	0.59411582	33.313313
165	5	2	0.016359486	-0.77300611	1.443364	34.381763
166	5	1	-0.48880678	-1.1736252	2.7295501	33.820981
167	5	3	0.31937268	-0.30914183	3.2899352	33.638325
168	5	4	0.051217534	-1.6771011	0.90855447	34.746852
169	5	4	0.051217534	-0.086954674	1.6060812	35.24408
170	5	5	0.084979847	0.82592755	1.1310084	32.950169
171	5	5	0.084979847	-0.77217461	0.45210913	32.455334
172	5	5	0.083865851	-0.57429568	-1.3086836	34.234883
173	5	5	0.083865851	1.0212205	-0.62535086	34.733414
174	5	5	0.085364923	0.33487678	-1.7539103	31.943701
175	5	5	0.085364923	1.9372441	-1.0875705	32.446847
176	5	5	0.090706766	2.0420558	-2.8463504	34.275756
177	5	5	0.090706766	0.51588404	-3.5598268	33.657339
178	5	4	0.092004918	3.1357575	-3.2394778	32.020347
179	5	4	0.092004918	2.6348859	-4.7262141	32.883648
180	5	3	0.3623496	1.2427291	-3.4197388	30.614829
181	6	6	0.72728062	-1.7210694	3.2537513	34.570079
182	6	7	-0.73519522	-2.6602911	3.9582445	34.237732
183	6	2	-0.18169545	-1.3505993	3.1350601	36.018942
184	6	2	-0.11828562	-0.147046	2.2042494	36.210288
185	6	2	-0.092308797	0.22746242	2.0873149	37.692341
186	6	2	-0.25671697	1.4296956	1.1570007	37.883791
187	6	6	0.51877707	1.8001657	1.0383095	39.332654
188	6	7	-0.67168224	2.7402972	0.334179	39.665202
189	6	5	0.11584558	2.3031828	1.5548742	37.322777
190	6	5	0.11584558	1.1856192	0.14510227	37.492269
191	6	5	0.077587649	0.47597314	3.0955607	38.090266
192	6	5	0.077587649	-0.6411531	1.6866498	38.261196
193	6	5	0.085686594	0.72115928	2.6057737	35.641739
194	6	5	0.085686594	-0.39646657	1.1956409	35.812162
195	6	5	0.11892426	-1.1061126	4.1460993	36.410158
196	6	5	0.11892426	-2.2231766	2.7375493	36.580158
197	2	1	-0.63603801	0.56955084	-4.6749309	31.531672
198	2	2	0.032150969	-0.53253445	-4.1653481	30.717382
199	2	2	-0.15493676	-0.50546635	-2.6326394	30.580633
200	2	2	-0.14365903	-0.81529103	-1.9170807	31.902343
201	2	2	-0.14229552	-0.91883917	-0.40055939	31.694697
202	2	2	-0.15642273	-1.2163904	0.31749593	33.016047
203	2	2	0.029228386	-1.3224446	1.8309874	32.810283
204	2	1	-0.97374034	-1.5821152	2.4948009	34.083044
205	2	3	0.38267154	-1.5688128	3.5267241	33.912378
206	2	3	0.38267154	-2.5561594	2.2568828	34.383413
207	2	4	0.08022406	-0.36630677	2.2136996	32.389696
208	2	4	0.08022406	-2.1418667	2.0610196	32.09134
209	2	5	0.091589526	-2.1736967	-0.062277844	33.43662
210	2	5	0.091589526	-0.40254087	0.10673456	33.745314
211	2	5	0.085364923	0.039252482	-0.021144586	31.276187
212	2	5	0.085364923	-1.7324206	-0.18355465	30.96787
213	2	5	0.085364923	-0.0067921202	-2.1231372	32.637375
214	2	5	0.085364923	-1.7758281	-2.2974997	32.313853
215	2	5	0.090706766	-1.2700211	-2.3438585	29.825814
216	2	5	0.090706766	0.48599136	-2.306839	30.197297
217	2	4	0.092004925	-1.5017362	-4.4932916	31.152959
218	2	4	0.092004925	-0.45684172	-4.6132381	29.703028
219	2	3	0.36234957	0.420756	-4.397423	32.527723
220	3	6	0.51877713	1.2437154	1.5719241	40.095546
221	3	7	-0.67168224	1.6455283	2.6567553	40.487215
222	3	2	-0.256717	-0.020546952	0.98492922	40.647349
223	3	2	-0.091404751	0.13272556	0.65311258	42.135516
224	3	2	-0.10970575	-1.1523277	0.023509518	42.694122
225	3	2	-0.21843779	-1.0543091	-0.26112328	44.197964
226	3	6	0.82609922	-0.075459428	-1.356022	44.493335
227	3	7	-0.54533714	-0.40386558	-2.5597214	44.32162
228	3	8	-0.6631127	1.2079497	-1.0400687	44.928466
229	3	9	0.39738086	1.8855111	-1.7682532	45.120208
230	3	5	0.12043077	-0.7617157	0.66220609	44.743224
231	3	5	0.12043077	-2.0558295	-0.565776	44.573782
232	3	5	0.086559952	-1.9998578	0.72540239	42.528098
233	3	5	0.086559952	-1.3814754	-0.91849077	42.14909
234	3	5	0.077587649	0.3611725	1.583014	42.700526
235	3	5	0.077587649	0.98059589	-0.055965368	42.263314
236	3	5	0.11584558	-0.26137429	0.058274337	40.08277
237	3	5	0.11584558	-0.85101827	1.7096945	40.502081
238	5	1	-0.63603795	6.1431882	0.53509657	57.619027
239	5	2	0.032150969	5.5719948	-0.49601415	56.752951
240	5	2	-0.15493678	4.2110846	-0.084642669	56.165109
241	5	2	-0.14358364	3.1065164	-0.0084248417	57.229374
242	5	2	-0.14362176	1.7411652	0.26364598	56.586074
243	5	2	-0.14498468	0.63985796	0.3526248	57.648461
244	5	2	0.016359486	-0.72463733	0.62152958	57.008033
245	5	1	-0.48880678	-1.7529948	0.72434384	58.038157
246	5	3	0.31937268	-1.8996049	-0.22641386	58.449607
247	5	4	0.051217534	-0.68253545	1.5765668	56.439851
248	5	4	0.051217534	-0.98176353	-0.19918702	56.300188
249	5	5	0.084979847	0.59549373	-0.60416183	58.215736
250	5	5	0.084979847	0.87512683	1.1736154	58.360686
251	5	5	0.083865851	1.7856541	1.2203808	56.020794
252	5	5	0.083865851	1.499943	-0.55670655	55.874238
253	5	5	0.085364923	3.3347657	0.81022467	57.945985
254	5	5	0.085364923	3.0641989	-0.96929925	57.788396
255	5	5	0.090706766	3.9249509	-0.84180809	55.402594
256	5	5	0.090706766	4.3044818	0.89504955	55.647484
257	5	4	0.092004918	5.4728092	-1.4468478	57.319797
258	5	4	0.092004918	6.2775416	-0.68119875	55.915257
259	5	3	0.3623496	5.5756657	0.60298505	58.494163
260	6	6	0.72728062	-2.6668267	0.99058255	57.558931
261	6	7	-0.73519522	-3.4456388	1.7340458	58.133053
262	6	2	-0.18169545	-3.002804	0.46364121	56.195116
263	6	2	-0.11828562	-1.8905823	-0.44754824	55.661957
264	6	2	-0.092308797	-2.2395378	-0.98358284	54.268647
265	6	2	-0.25671697	-1.1282006	-1.8936719	53.735572
266	6	6	0.51877707	-1.4641779	-2.4206133	52.371756
267	6	7	-0.67168224	-0.68547358	-3.1650705	51.797615
268	6	5	0.11584558	-0.98580858	-2.7533537	54.426
269	6	5	0.11584558	-0.17511522	-1.3238182	53.674776
270	6	5	0.077587649	-3.190514	-1.5575503	54.322188
271	6	5	0.077587649	-2.380983	-0.12887647	53.570012
272	6	5	0.085686594	-1.7501293	-1.3021483	56.360657
273	6	5	0.085686594	-0.93949833	0.12741319	55.608435
274	6	5	0.11892426	-3.9548971	-0.10631889	56.255846
275	6	5	0.11892426	-3.1453038	1.322329	55.504668
276	2	1	-0.63603801	6.1047406	1.4600824	57.132274
277	2	2	0.032150969	5.6290012	2.4817388	58.063523
278	2	2	-0.15493676	4.3577503	2.0488237	58.815277
279	2	2	-0.14365903	3.1325873	1.9538401	57.8961
280	2	2	-0.14229552	1.8617006	1.6596572	58.703553
281	2	2	-0.15642273	0.63834548	1.5523748	57.785948
282	2	2	0.029228386	-0.63141264	1.2611452	58.5904
283	2	1	-0.97374034	-1.7771603	1.1399785	57.695649
284	2	3	0.38267154	-2.604483	0.86447827	58.273408
285	2	3	0.38267154	-1.9901833	2.0880565	57.306601
286	2	4	0.08022406	-0.50378183	0.30702034	59.147999
287	2	4	0.08022406	-0.81228256	2.0785316	59.325526
288	2	5	0.091589526	0.50780036	2.5067929	57.22954
289	2	5	0.091589526	0.79676845	0.7334299	57.049176
290	2	5	0.085364923	1.9920132	0.70429698	59.257946
291	2	5	0.085364923	1.697001	2.4762583	59.440656
292	2	5	0.085364923	3.2830387	1.1378376	57.155894
293	2	5	0.085364923	3.0050643	2.9128082	57.34764
294	2	5	0.090706766	4.1567302	2.8029003	59.608152
295	2	5	0.090706766	4.5316242	1.0716557	59.316268
296	2	4	0.092004925	5.4439401	3.4308623	57.514394
297	2	4	0.092004925	6.4305354	2.6803501	58.807395
298	2	3	0.36234957	5.4354299	1.3809723	56.334131
299	3	6	0.51877713	-2.3942931	-2.1504259	51.883628
300	3	7	-0.67168224	-3.3614734	-2.8904034	51.976969
301	3	2	-0.256717	-2.4910437	-0.86565974	51.117192
302	3	2	-0.091404751	-2.7247977	-1.1326365	49.626448
303	3	2	-0.10970575	-2.7936275	0.18276206	48.83601
304	3	2	-0.21843779	-3.091681	-0.047137125	47.349244
305	3	6	0.82609922	-1.9469978	-0.71419101	46.650006
306	3	7	-0.54533714	-0.93780219	-0.042423067	46.308713
307	3	8	-0.6631127	-1.9867695	-2.0834679	46.405458
308	3	9	0.39738086	-1.2153652	-2.5516499	45.945188
309	3	5	0.12043077	-4.0115055	-0.6604882	47.234438
310	3	5	0.12043077	-3.2842032	0.9347773	46.863574
311	3	5	0.086559952	-3.6052087	0.81597779	49.258974
312	3	5	0.086559952	-1.837814	0.74103053	48.94413
313	3	5	0.077587649	-3.6779684	-1.6897406	49.49514
314	3	5	0.077587649	-1.8922214	-1.7586815	49.235433
315	3	5	0.11584558	-1.5447328	-0.29776492	51.249208
316	3	5	0.11584558	-3.3251184	-0.25799603	51.530875
317	5	1	-0.63603795	-1.773107	6.1733034	75.225588
318	5	2	0.032150969	-1.1600738	5.7654187	73.961721
319	5	2	-0.15493678	-1.1219979	4.2369095	73.791219
320	5	2	-0.14358364	-0.15527805	3.5569378	74.771846
321	5	2	-0.14362176	-0.038235429	2.0564811	74.476937
322	5	2	-0.14498468	0.91657498	1.374344	75.463085
323	5	2	0.016359486	1.0369652	-0.12336776	75.168684
324	5	1	-0.48880678	1.9322393	-0.75562199	76.132004
325	5	3	0.31937268	2.9061896	-0.42614921	75.938111
326	5	4	0.051217534	0.032403219	-0.59467043	75.24236
327	5	4	0.051217534	1.4248376	-0.27880636	74.13615
328	5	5	0.084979847	1.9230456	1.8439815	75.387802
329	5	5	0.084979847	0.54069927	1.5116725	76.50063
330	5	5	0.083865851	-1.0437618	1.5875808	74.553822
331	5	5	0.083865851	0.34010017	1.9137768	73.440416
332	5	5	0.085364923	-0.52405423	3.6902121	75.812067
333	5	5	0.085364923	0.84930732	4.027305	74.687348
334	5	5	0.090706766	-0.79443207	4.0168057	72.751577
335	5	5	0.090706766	-2.1441796	3.817784	73.91745
336	5	4	0.092004918	-0.13294261	6.1843033	73.892625
337	5	4	0.092004918	-1.7521812	6.1995082	73.128177
338	5	3	0.3623496	-1.1393131	5.9140014	76.015285
339	6	6	0.72728062	1.9244565	-1.8042617	75.94247
340	6	7	-0.73519522	2.0075991	-2.5795903	76.881008
341	6	2	-0.18169545	1.8134113	-2.3327272	74.54285
342	6	2	-0.11828562	1.7210263	-1.1908632	73.523452
343	6	2	-0.092308797	1.6085021	-1.7366225	72.095202
344	6	2	-0.25671697	1.5157466	-0.5959021	71.076548
345	6	6	0.51877707	1.4047015	-1.1243677	69.676929
346	6	7	-0.67168224	1.3223392	-0.34879139	68.737816
347	6	5	0.11584558	2.423201	0.042545103	71.146774
348	6	5	0.11584558	0.62241047	0.029258005	71.295469
349	6	5	0.077587649	2.5004251	-2.3606843	71.867866
350	6	5	0.077587649	0.70035286	-2.3749883	72.015357
351	6	5	0.085686594	2.6295855	-0.55339338	73.603467
352	6	5	0.085686594	0.82832286	-0.5670491	73.751361
353	6	5	0.11892426	2.7063375	-2.9569914	74.323759
354	6	5	0.11892426	0.90673736	-2.9709267	74.47205
355	2	1	-0.63603801	-2.6788231	5.6660798	75.35368
356	2	2	0.032150969	-2.7702263	5.1703337	76.725983
357	2	2	-0.15493676	-1.4984674	4.4262025	77.170423
358	2	2	-0.14365903	-1.3060712	3.0945517	76.432437
359	2	2	-0.14229552	-0.11085874	2.3190318	77.001394
360	2	2	-0.15642273	0.090616571	0.99377851	76.257608
361	2	2	0.029228386	1.2816615	0.21730556	76.825715
362	2	1	-0.97374034	1.4686893	-1.027398	76.088333
363	2	3	0.38267154	2.3344286	-1.486862	76.453788
364	2	3	0.38267154	0.6735091	-1.6674729	76.31981
365	2	4	0.08022406	2.2021088	0.83532114	76.734093
366	2	4	0.08022406	1.1115614	-0.0055145049	77.903983
367	2	5	0.091589526	-0.82812868	0.37344363	76.350543
368	2	5	0.091589526	0.27144157	1.1967721	75.178397
369	2	5	0.085364923	0.80772269	2.9388771	76.906284
370	2	5	0.085364923	-0.28688264	2.1114054	78.079908
371	2	5	0.085364923	-1.1254156	3.2884077	75.352537
372	2	5	0.085364923	-2.2257615	2.4777193	76.534307
373	2	5	0.090706766	-1.5842697	4.2253835	78.261295
374	2	5	0.090706766	-0.60953342	5.0759777	77.016574
375	2	4	0.092004925	-3.6563596	4.5058156	76.825025
376	2	4	0.092004925	-2.9288821	6.037102	77.403323
377	2	3	0.36234957	-2.6963314	4.8578618	74.692057
378	3	6	0.51877713	1.3971964	-2.1915245	69.483267
379	3	7	-0.67168224	2.4393768	-2.7595141	69.19523
380	3	2	-0.256717	0.11558385	-2.9619743	69.5895
381	3	2	-0.091404751	-0.29740502	-3.5299199	68.227474
382	3	2	-0.10970575	-1.6262889	-4.2937266	68.329797
383	3	2	-0.21843779	-2.0352831	-4.9303978	66.995805
384	3	6	0.82609922	-2.4045342	-3.896158	65.976886
385	3	7	-0.54533714	-3.5350189	-3.3426624	66.020197
386	3	8	-0.6631127	-1.4850174	-3.5252868	65.000541
387	3	9	0.39738086	-1.7146875	-2.8184231	64.312281
388	3	5	0.12043077	-1.2096818	-5.5644076	66.606098
389	3	5	0.12043077	-2.9117491	-5.5936748	67.166001
390	3	5	0.086559952	-1.5189264	-5.1054717	69.0835
391	3	5	0.086559952	-2.4307253	-3.6105595	68.68065
392	3	5	0.077587649	0.49375249	-4.2182292	67.858095
393	3	5	0.077587649	-0.40437153	-2.6923597	67.502865
394	3	5	0.11584558	-0.68009782	-2.2833097	69.965986
395	3	5	0.11584558	0.24786611	-3.7874936	70.322364
396	5	1	-0.63603795	3.396149	20.055359	5.6737687
397	5	2	0.032150969	3.8514789	19.453321	4.4208662
398	5	2	-0.15493678	2.7393012	19.387847	3.3599067
399	5	2	-0.14358364	1.6285844	18.39351	3.7288792
400	5	2	-0.14362176	0.61595607	18.251494	2.585876
401	5	2	-0.14498468	-0.50011756	17.268938	2.9579318
402	5	2	0.016359486	-1.5107874	17.123621	1.8169956
403	5	1	-0.48880678	-2.5748175	16.2019	2.2010747
404	5	3	0.31937268	-2.1713521	15.237584	2.2461957
405	5	4	0.051217534	-1.9551167	18.117549	1.5903305
406	5	4	0.051217534	-1.0001043	16.748181	0.90103627
407	5	5	0.084979847	-0.05609359	16.273093	3.1823094
408	5	5	0.084979847	-1.0279483	17.631955	3.8669169
409	5	5	0.083865851	0.17157283	19.246385	2.3632195
410	5	5	0.083865851	1.1389497	17.885896	1.6744523
411	5	5	0.085364923	1.0960829	18.749311	4.6375401
412	5	5	0.085364923	2.0787189	17.399701	3.9463636
413	5	5	0.090706766	3.2013453	19.071534	2.3991453
414	5	5	0.090706766	2.3042543	20.39963	3.2066585
415	5	4	0.092004918	4.2518809	18.435736	4.6194471
416	5	4	0.092004918	4.6867472	20.066154	4.020137
417	5	3	0.3623496	2.7275249	19.404929	6.1454005
418	6	6	0.72728062	-3.2947558	16.191955	1.4154419
419	6	7	-0.73519522	-4.4776176	16.079686	1.6931746
420	6	2	-0.18169545	-2.8710391	16.313434	-0.0185205
421	6	2	-0.11828562	-1.3478069	16.443327	-0.13874323
422	6	2	-0.092308797	-0.92056209	16.566372	-1.6059637
423	6	2	-0.25671697	0.60130018	16.696602	-1.7262858
424	6	6	0.51877707	1.0250168	16.818081	-3.1602482
425	6	7	-0.67168224	2.2084424	16.929584	-3.438288
426	6	5	0.11584558	1.0891626	15.800886	-1.2839027
427	6	5	0.11584558	0.9443096	17.598659	-1.1736208
428	6	5	0.077587649	-1.2576406	15.665874	-2.1646613
429	6	5	0.077587649	-1.4025564	17.462928	-2.0559534
430	6	5	0.085686594	-0.86661879	15.546342	0.31084004
431	6	5	0.085686594	-1.0112922	17.344592	0.42026144
432	6	5	0.11892426	-3.2132423	15.411807	-0.57077908
433	6	5	0.11892426	-3.3583378	17.208384	-0.46121063
434	2	1	-0.63603801	2.8927379	20.948958	5.4686761
435	2	2	0.032150969	1.6655677	21.010206	6.2609109
436	2	2	-0.15493676	0.83576988	19.717642	6.164258
437	2	2	-0.14365903	0.22744435	19.510193	4.7707595
438	2	2	-0.14229552	-0.70456392	18.291684	4.7542174
439	2	2	-0.15642273	-1.3040654	18.075371	3.3599749
440	2	2	0.029228386	-2.2364198	16.861022	3.3421788
441	2	1	-0.97374034	-2.7760558	16.660635	2.0017924
442	2	3	0.38267154	-3.3415238	15.780719	2.0145775
443	2	3	0.38267154	-3.4450249	17.439591	1.7985754
444	2	4	0.08022406	-1.666555	15.954325	3.6433669
445	2	4	0.08022406	-3.0704159	17.010665	4.065576
446	2	5	0.091589526	-1.8765284	18.980302	3.058428
447	2	5	0.091589526	-0.48501171	17.914632	2.6238261
448	2	5	0.085364923	-0.13117794	17.38694	5.0537362
449	2	5	0.085364923	-1.5267636	18.447543	5.4870065
450	2	5	0.085364923	1.0396396	19.349455	4.0285311
451	2	5	0.085364923	-0.34766198	20.416005	4.478445
452	2	5	0.090706766	0.013727988	19.783256	6.9110062
453	2	5	0.090706766	1.4677881	18.843996	6.4351388
454	2	4	0.092004925	1.0550529	21.881579	5.9374807
455	2	4	0.092004925	1.9414978	21.175719	7.3247328
456	2	3	0.36234957	2.6495536	20.960469	4.4528036
457	3	6	0.51877713	0.2928484	16.807557	-3.9603754
458	3	7	-0.67168224	0.040817756	15.758849	-4.5334453
459	3	2	-0.256717	-0.41604063	18.072107	-4.3422116
460	3	2	-0.091404751	-0.053917102	18.494106	-5.7701538
461	3	2	-0.10970575	-0.75631645	19.806101	-6.1510824
462	3	2	-0.21843779	-0.46574604	20.222343	-7.5983121
463	3	6	0.82609922	0.96474441	20.626902	-7.7833057
464	3	7	-0.54533714	1.3511626	21.767245	-7.4138067
465	3	8	-0.6631127	1.8733071	19.729454	-8.3359408
466	3	9	0.39738086	2.8466305	19.983142	-8.4559035
467	3	5	0.12043077	-0.71411432	19.390368	-8.2922768
468	3	5	0.12043077	-1.1180942	21.083017	-7.8643531
469	3	5	0.086559952	-1.8557086	19.671655	-6.0425183
470	3	5	0.086559952	-0.44479924	20.618459	-5.4582877
471	3	5	0.077587649	-0.35864162	17.695198	-6.480808
472	3	5	0.077587649	1.0484212	18.628229	-5.8399337
473	3	5	0.11584558	-0.1234029	18.875244	-3.6317385
474	3	5	0.11584558	-1.5131698	17.912789	-4.2585725
475	5	1	-0.63603795	-3.7054141	23.404122	20.716326
476	5	2	0.032150969	-3.125719	22.223722	21.356754
477	5	2	-0.15493678	-2.2139535	21.426349	20.408208
478	5	2	-0.14358364	-2.9936106	20.742012	19.275796
479	5	2	-0.14362176	-2.0734134	19.844842	18.438917
480	5	2	-0.14498468	-2.8478404	19.171184	17.300537
481	5	2	0.016359486	-1.9314704	18.272817	16.465367
482	5	1	-0.48880678	-2.6839144	17.660045	15.375603
483	5	3	0.31937268	-3.3435055	16.959845	15.787168
484	5	4	0.051217534	-1.1063865	18.884214	16.038601
485	5	4	0.051217534	-1.4866462	17.479386	17.108276
486	5	5	0.084979847	-3.6722446	18.556866	17.727364
487	5	5	0.084979847	-3.29292	19.948827	16.64189
488	5	5	0.083865851	-1.2509088	20.459391	18.011509
489	5	5	0.083865851	-1.6274746	19.063201	19.093174
490	5	5	0.085364923	-3.4423217	21.513242	18.612712
491	5	5	0.085364923	-3.8119591	20.125823	19.70961
492	5	5	0.090706766	-1.6930441	20.648366	21.008206
493	5	5	0.090706766	-1.4370269	22.09668	19.979843
494	5	4	0.092004918	-3.938448	21.572291	21.744499
495	5	4	0.092004918	-2.5235797	22.55741	22.228478
496	5	3	0.3623496	-4.4032443	23.099644	20.000169
497	6	6	0.72728062	-1.9959983	17.11078	14.775013
498	6	7	-0.73519522	-2.1630316	17.067194	13.56708
499	6	2	-0.18169545	-0.83267623	16.395412	15.395877
500	6	2	-0.11828562	-0.8140456	16.581417	16.917921
501	6	2	-0.092308797	0.37614135	15.847823	17.546975
502	6	2	-0.25671697	0.39519341	16.033899	19.06767
503	6	6	0.51877707	1.5585155	15.318531	19.688534
504	6	7	-0.67168224	1.7252705	15.361381	20.897083
505	6	5	0.11584558	-0.545387	15.633749	19.504944
506	6	5	0.11584558	0.46894142	17.116544	19.311066
507	6	5	0.077587649	0.30749929	14.763424	17.310276
508	6	5	0.077587649	1.3226425	16.244701	17.116574
509	6	5	0.085686594	-1.7604035	16.183874	17.34759
510	6	5	0.085686594	-0.74512531	17.666554	17.154003
511	6	5	0.11892426	-0.90656744	15.313434	15.153213
512	6	5	0.11892426	0.10762595	16.794826	14.95922
513	2	1	-0.63603801	-2.9520153	23.942499	20.229966
514	2	2	0.032150969	-3.4161611	24.33939	18.901666
515	2	2	-0.15493676	-4.0367662	23.168363	18.119251
516	2	2	-0.14365903	-2.999314	22.110664	17.719375
517	2	2	-0.14229552	-3.6280562	21.036031	16.822981
518	2	2	-0.15642273	-2.596272	19.971723	16.432116
519	2	2	0.029228386	-3.2214734	18.89962	15.535477
520	2	1	-0.97374034	-2.2287005	17.886169	15.195892
521	2	3	0.38267154	-2.7132068	17.135787	14.651512
522	2	3	0.38267154	-1.529251	18.317601	14.547643
523	2	4	0.08022406	-4.0654718	18.414838	16.074193
524	2	4	0.08022406	-3.6177736	19.365674	14.604357
525	2	5	0.091589526	-1.7527937	20.45462	15.890914
526	2	5	0.091589526	-2.1950849	19.487715	17.350477
527	2	5	0.085364923	-4.4699132	20.552166	17.365381
528	2	5	0.085364923	-4.0292188	21.51383	15.902079
529	2	5	0.085364923	-2.5926258	21.622338	18.631813
530	2	5	0.085364923	-2.1623293	22.5995	17.174228
531	2	5	0.090706766	-4.5035259	23.582632	17.198269
532	2	5	0.090706766	-4.8431591	22.698126	18.723145