Title

47 atoms
48 bonds
77 angles
117 dihedrals
48 impropers

8 atom types
12 bond types
6 angle types
20 dihedral types
2 improper types
-8.998999596 91.0010004 xlo xhi
-1.483999968 98.51600003 ylo yhi
-4.002999783 95.99700022 zlo zhi
0.0 0.0 0.0 xy xz yz

Masses

1	15.99943
2	12.01078
3	1.007947
4	12.01078
5	15.99943
6	1.007947
7	15.99943
8	1.007947


Pair Coeffs

1	0.16846514	3.0251065
2	0.10884061	3.3795318
3	0.016409246	2.5832257
4	0.086879315	3.4806469
5	0.2102061	3.0398122
6	0.015611343	2.5725815
7	0.20947353	2.99716
8	1.2326e-05	0.53453923

Bond Coeffs

1 harmonic	366.7408841747	1.425895053732
2 harmonic	300.03137914615	1.451203938761
3 harmonic	264.62148576755	1.52190126495
4 harmonic	370.04670688625	1.093899492634
5 harmonic	301.15400723785	1.345741232799
6 harmonic	582.698766451	1.225198386222
7 harmonic	279.1350963404	1.454628925034
8 harmonic	360.7852444772	1.387193227181
9 harmonic	397.2545789619	1.085358495916
10 harmonic	329.96998057905	1.427343958716
11 harmonic	543.5267831885	0.9716763312559
12 harmonic	385.7604595587	1.369745182308


Angle Coeffs

1 harmonic	53.20531626545	116.5475862634
2 harmonic	65.09061609600001	110.3538806181
3 harmonic	201.41175231035	127.4691416191
4 harmonic	57.8982893754	126.8062420451
5 harmonic	48.776492647595	115.6030999533
6 harmonic	34.066775159195	129.1835929926


Dihedral Coeffs

1 fourier 1	-0.0309670556842	3	0
2 fourier 1	0.4598191477945	2	0
3 fourier 1	0.1115525666802	3	0
4 fourier 1	0.3432490222662	1	0
5 fourier 1	0.0473758381877	3	0
6 fourier 1	0.457973137376	1	0
7 fourier 1	0.1918272375143	3	0
8 fourier 1	0.9202179876409	1	180
9 fourier 1	1.163809172478	2	180
10 fourier 1	0.1679186987369	1	180
11 fourier 1	2.779853741805	2	180
12 fourier 1	0.9974165607242	2	180
13 fourier 1	0.1911926717192	3	0
14 fourier 1	3.661930099076	2	180
15 fourier 1	0.3445382149273	3	0
16 fourier 1	0.1364556373303	1	0
17 fourier 1	0.3026390167484	3	0
18 fourier 1	2.687457892086	2	180
19 fourier 1	2.772607909663	2	180
20 fourier 1	0.09692684957115	1	0


Improper Coeffs

1 3.5	-1	2
2 0.3666666666666667	-1	2


Atoms

1	1	1	-0.14322101	1.576	-0.336	0.85699999
2	1	2	0.050310999	0.63599998	-0.419	-0.17900001
3	1	2	0.155461	-0.71899998	0.11	0.28999999
4	1	1	-0.50474697	-1.675	-0.035999998	-0.72399998
5	1	3	0.085822999	-1.051	-0.46900001	1.177
6	1	3	0.085822999	-0.63099998	1.1799999	0.58899999
7	1	3	0.093269996	0.52999997	-1.484	-0.477
8	1	3	0.093269996	0.98699999	0.154	-1.068
9	1	4	0.79009402	-1.49	0.71399999	-1.4170001
10	1	5	-0.56516898	-0.31	0.89499998	-1.8200001
11	1	4	-0.239728	-2.6040001	1.546	-1.909
12	1	4	-0.095541	-2.405	2.529	-2.8069999
13	1	6	0.213111	-1.4170001	2.7390001	-3.197
14	1	4	-0.26659799	-3.5409999	3.3440001	-3.2809999
15	1	6	0.18656901	-3.3710001	4.132	-4.0029998
16	1	4	-0.056797002	-4.7750001	3.112	-2.8210001
17	1	6	0.20121101	-5.598	3.7190001	-3.178
18	1	4	-0.30493701	-5.013	2.0320001	-1.83
19	1	4	0.57577002	-6.369	1.7690001	-1.318
20	1	5	-0.599159	-7.3509998	2.454	-1.709
21	1	4	0.043861002	-3.9749999	1.2920001	-1.401
22	1	6	0.22972301	-4.132	0.5	-0.67799997
23	1	1	-0.137523	1.845	0.61799997	0.92000002
24	1	2	0.022221999	3.148	0.70099998	0.41100001
25	1	2	0.094233997	4.1529999	0.17200001	1.434
26	1	7	-0.680116	5.461	0.31799999	0.95200002
27	1	8	0.39283401	5.5970001	-0.40000001	0.27900001
28	1	3	0.090640999	4.0549998	0.75199997	2.3759999
29	1	3	0.090640999	3.941	-0.89700001	1.663
30	1	3	0.093953997	3.3759999	1.766	0.192
31	1	3	0.093953997	3.23	0.12800001	-0.54100001
32	1	4	0.57577002	-6.5359998	0.98100001	-0.59500003
33	1	5	-0.599159	-6.2480001	-0.205	-0.91000003
34	1	4	-0.30493701	-7.092	1.308	0.73100001
35	1	4	-0.056797002	-7.3130002	0.35600001	1.655
36	1	6	0.20121101	-7.0890002	-0.68400002	1.452
37	1	4	-0.266599	-7.8699999	0.71499997	2.973
38	1	6	0.18656901	-8.0450001	-0.057999998	3.71
39	1	4	-0.091374002	-8.1590004	1.99	3.2579999
40	1	6	0.213111	-8.5670004	2.234	4.2309999
41	1	4	-0.233629	-7.9229999	3.056	2.253
42	1	4	0.82774502	-8.2469997	4.4619999	2.582
43	1	5	-0.54148	-8.0530005	5.381	1.7410001
44	1	7	-0.67697299	-8.7720003	4.7810001	3.832
45	1	8	0.40073401	-8.9989996	5.7379999	4.072
46	1	4	0.046847999	-7.4130001	2.721	1.05
47	1	6	0.22972301	-7.2319999	3.4809999	0.29899999

Bonds

1	1	1	2
2	2	1	23
3	3	2	3
4	4	2	7
5	4	2	8
6	1	3	4
7	4	3	5
8	4	3	6
9	5	4	9
10	6	9	10
11	7	9	11
12	8	11	12
13	8	11	21
14	9	12	13
15	8	12	14
16	9	14	15
17	8	14	16
18	9	16	17
19	8	16	18
20	7	18	19
21	8	18	21
22	6	19	20
23	7	19	32
24	9	21	22
25	1	23	24
26	3	24	25
27	4	24	30
28	4	24	31
29	10	25	26
30	4	25	28
31	4	25	29
32	11	26	27
33	6	32	33
34	7	32	34
35	8	34	35
36	8	34	46
37	9	35	36
38	8	35	37
39	9	37	38
40	8	37	39
41	9	39	40
42	8	39	41
43	7	41	42
44	8	41	46
45	6	42	43
46	12	42	44
47	11	44	45
48	9	46	47

Angles

1	3	4	9	10
2	1	24	25	28
3	4	11	12	14
4	5	30	24	31
5	6	35	37	38
6	4	12	11	21
7	1	3	2	7
8	1	26	25	29
9	1	4	3	5
10	1	24	25	29
11	1	23	24	25
12	6	34	46	47
13	6	40	39	41
14	6	11	12	13
15	4	19	18	21
16	1	1	2	7
17	4	10	9	11
18	6	11	21	22
19	4	32	34	35
20	4	39	41	42
21	1	1	2	8
22	4	16	18	21
23	2	3	4	9
24	5	28	25	29
25	4	14	16	18
26	6	15	14	16
27	2	1	23	24
28	6	36	35	37
29	4	19	32	33
30	4	4	9	11
31	6	17	16	18
32	3	43	42	44
33	4	20	19	32
34	4	16	18	19
35	1	3	2	8
36	4	39	41	46
37	2	42	44	45
38	1	2	3	5
39	1	4	3	6
40	4	18	19	20
41	4	33	32	34
42	4	41	42	44
43	6	13	12	14
44	4	41	42	43
45	6	14	16	17
46	5	7	2	8
47	2	2	1	23
48	6	38	37	39
49	1	2	3	4
50	6	34	35	36
51	4	32	34	46
52	4	9	11	21
53	4	35	34	46
54	4	11	21	18
55	4	12	14	16
56	5	5	3	6
57	1	26	25	28
58	1	25	24	30
59	6	37	39	40
60	1	25	24	31
61	2	25	26	27
62	1	2	3	6
63	4	42	41	46
64	4	35	37	39
65	4	34	46	41
66	1	23	24	30
67	1	23	24	31
68	6	18	21	22
69	1	24	25	26
70	4	37	39	41
71	4	9	11	12
72	4	18	19	32
73	6	12	14	15
74	1	1	2	3
75	6	41	46	47
76	4	19	32	34
77	4	34	35	37

Dihedrals

1	5	1	23	24	31
2	14	15	14	16	17
3	12	21	18	19	32
4	14	37	39	41	42
5	14	34	46	41	39
6	12	16	18	19	20
7	13	5	3	2	7
8	14	35	37	39	40
9	14	17	16	18	21
10	14	32	34	35	36
11	12	19	32	34	35
12	14	34	35	37	39
13	5	7	2	1	23
14	3	26	25	24	30
14	4	26	25	24	30
15	12	20	19	18	21
16	3	26	25	24	31
16	4	26	25	24	31
17	3	23	24	25	28
17	4	23	24	25	28
18	14	37	39	41	46
19	14	17	16	18	19
20	12	33	32	34	35
21	11	3	4	9	11
22	3	4	3	2	7
22	4	4	3	2	7
23	17	27	26	25	28
24	12	4	9	11	12
25	12	44	42	41	46
26	13	6	3	2	8
27	15	24	25	26	27
27	16	24	25	26	27
28	14	9	11	21	22
29	14	12	11	21	22
30	14	36	35	34	46
31	3	23	24	25	29
31	4	23	24	25	29
32	18	41	42	44	45
33	12	43	42	41	46
34	13	5	3	2	8
35	14	37	35	34	46
36	12	10	9	11	21
37	14	9	11	21	18
38	14	12	11	21	18
39	14	34	35	37	38
40	14	40	39	41	42
41	5	3	2	1	23
42	17	27	26	25	29
43	12	19	32	34	46
44	12	39	41	42	44
45	14	34	46	41	42
46	14	13	12	14	16
47	14	16	18	21	22
48	14	14	16	18	21
49	12	39	41	42	43
50	14	12	14	16	18
51	14	13	12	14	15
52	14	15	14	16	18
53	12	16	18	19	32
54	14	36	35	37	39
55	7	2	3	4	9
55	8	2	3	4	9
56	14	35	37	39	41
57	12	33	32	34	46
58	14	9	11	12	14
59	3	4	3	2	8
59	4	4	3	2	8
60	14	35	34	46	41
61	14	40	39	41	46
62	14	11	21	18	19
63	14	14	16	18	19
64	12	20	19	32	34
65	12	18	19	32	33
66	13	28	25	24	30
67	5	1	23	24	25
68	13	28	25	24	31
69	14	32	34	46	41
70	14	11	12	14	16
71	5	8	2	1	23
72	14	35	34	46	47
73	3	1	2	3	5
73	4	1	2	3	5
74	12	10	9	11	12
75	14	19	18	21	22
76	14	9	11	12	13
77	14	32	34	46	47
78	14	36	35	37	38
79	1	1	2	3	4
79	2	1	2	3	4
80	14	32	34	35	37
81	14	38	37	39	40
82	19	43	42	44	45
82	20	43	42	44	45
83	6	2	1	23	24
84	14	11	21	18	16
85	14	42	41	46	47
86	5	6	3	4	9
87	9	3	4	9	10
87	10	3	4	9	10
88	13	29	25	24	30
89	13	29	25	24	31
90	14	14	12	11	21
91	14	11	12	14	15
92	5	5	3	4	9
93	3	1	2	3	6
93	4	1	2	3	6
94	12	4	9	11	21
95	14	38	37	39	41
96	13	6	3	2	7
97	12	18	19	32	34
98	14	39	41	46	47
99	12	20	19	32	33
100	14	13	12	11	21
101	1	23	24	25	26
101	2	23	24	25	26
102	14	12	14	16	17
103	5	1	23	24	30

Impropers

4	2	46	47	34	41
5	2	19	18	20	32
8	2	35	34	36	37
12	2	19	32	18	20
13	2	19	20	32	18
15	2	34	46	32	35
23	2	11	21	9	12
31	2	11	12	21	9
40	2	32	34	19	33
47	2	14	12	15	16
49	2	11	9	12	21
51	2	14	15	16	12
53	2	16	18	14	17
55	1	42	43	44	41
64	1	9	10	11	4
65	2	46	41	47	34
71	2	12	14	11	13
73	1	9	4	10	11
76	2	16	17	18	14
78	2	46	34	41	47
79	1	42	44	41	43
81	2	18	16	19	21
85	2	37	38	39	35
90	2	41	42	46	39
95	2	21	18	22	11
96	2	16	14	17	18
97	2	39	41	37	40
99	2	39	40	41	37
105	2	14	16	12	15
112	2	18	19	21	16
114	2	41	39	42	46
120	2	12	11	13	14
124	2	21	22	11	18
130	2	37	39	35	38
144	1	9	11	4	10
153	2	34	32	35	46
157	2	39	37	40	41
158	2	35	36	37	34
161	1	42	41	43	44
163	2	32	33	34	19
166	2	21	11	18	22
172	2	34	35	46	32
173	2	35	37	34	36
177	2	18	21	16	19
180	2	41	46	39	42
181	2	37	35	38	39
183	2	12	13	14	11
184	2	32	19	33	34
