Title

111 atoms
118 bonds
205 angles
333 dihedrals
132 impropers

9 atom types
13 bond types
9 angle types
19 dihedral types
3 improper types
-11.09399986 88.90600014 xlo xhi
-17.88100052 82.11899948 ylo yhi
-6.715000153 93.28499985 zlo zhi
0.0 0.0 0.0 xy xz yz

Masses

1	14.00672
2	12.01078
3	1.007947
4	1.007947
5	15.99943
6	12.01078
7	1.007947
8	15.99943
9	1.007947


Pair Coeffs

1	0.16769152	3.206876
2	0.086879315	3.4806469
3	0.015611343	2.5725815
4	0.014090815	1.1034277
5	0.2102061	3.0398122
6	0.10884061	3.3795318
7	0.015779483	2.6445434
8	0.20947353	2.99716
9	1.2326e-05	0.53453923

Bond Coeffs

1 harmonic	390.03554688505	1.390160554689
2 harmonic	505.144496193	1.019481865027
3 harmonic	422.7150220147	1.421786517481
4 harmonic	360.7852444772	1.387193227181
5 harmonic	397.2545789619	1.085358495916
6 harmonic	492.76746816345	1.381897776683
7 harmonic	582.698766451	1.225198386222
8 harmonic	279.1350963404	1.454628925034
9 harmonic	289.73813263395	1.498646816465
10 harmonic	264.62148576755	1.52190126495
11 harmonic	370.04670688625	1.093899492634
12 harmonic	385.7604595587	1.369745182308
13 harmonic	543.5267831885	0.9716763312559


Angle Coeffs

1 harmonic	57.8982893754	126.8062420451
2 harmonic	55.42182150775	117.3465570514
3 harmonic	63.44422595415	115.5071327674
4 harmonic	34.066775159195	129.1835929926
5 harmonic	53.20531626545	116.5475862634
6 harmonic	14.32262199324	138.3184368373
7 harmonic	48.776492647595	115.6030999533
8 harmonic	65.09061609600001	110.3538806181
9 harmonic	201.41175231035	127.4691416191


Dihedral Coeffs

1 fourier 1	3.661930099076	2	180
2 fourier 1	1.193093382682	2	180
3 fourier 1	0.02021088501612	1	0
4 fourier 1	3.101948770557	2	180
5 fourier 1	-0.4252153282372	1	0
6 fourier 1	1.809047390003	2	180
7 fourier 1	-0.04816277792592	1	0
8 fourier 1	0.9974165607242	2	180
9 fourier 1	2.348375642009	2	180
10 fourier 1	1.256156174911	1	0
11 fourier 1	0.02664938770063	3	0
12 fourier 1	0.1155372516788	3	0
13 fourier 1	0.09223874044423	3	0
14 fourier 1	0.3159935921949	2	180
15 fourier 1	0.3247796806857	1	180
16 fourier 1	0.1040663847541	3	0
17 fourier 1	2.687457892086	2	180
18 fourier 1	2.772607909663	2	180
19 fourier 1	0.09692684957115	1	0


Improper Coeffs

1 0.3666666666666667	-1	2
2 0.3333333333333333	-1	2
3 3.5	-1	2


Atoms

1	1	1	-0.42834201	-2.2550001	-1.0930001	-0.87300003
2	1	2	0.149964	-1.151	-0.303	-0.42399999
3	1	2	-0.45082301	-1.256	1.034	-0.34900001
4	1	3	0.224711	-2.178	1.531	-0.62699997
5	1	2	-0.058299001	-0.112	1.844	0.115
6	1	3	0.228048	-0.204	2.921	0.17299999
7	1	2	-0.434865	1.035	1.249	0.463
8	1	3	0.222634	1.8710001	1.849	0.80299997
9	1	2	0.239418	1.163	-0.22499999	0.38499999
10	1	1	-0.54991901	2.391	-0.85500002	0.75800002
11	1	4	0.319507	3.201	-0.28299999	1.086
12	1	2	-0.49162	0.121	-0.95999998	-0.037999999
13	1	3	0.22634	0.20299999	-2.0380001	-0.1
14	1	4	0.37281901	-3.1589999	-0.64899999	-1.149
15	1	2	0.76820397	2.5039999	-1.911	0.70899999
16	1	5	-0.65826797	3.2720001	-2.4809999	1.529
17	1	2	-0.37097201	1.771	-2.6900001	-0.30500001
18	1	2	-0.079588003	0.958	-2.0680001	-1.173
19	1	3	0.224075	0.83399999	-0.99199998	-1.141
20	1	2	-0.249796	0.219	-2.839	-2.194
21	1	3	0.214086	-0.40200001	-2.279	-2.878
22	1	2	-0.21054401	0.322	-4.1849999	-2.2579999
23	1	6	0.024672	-0.396	-5.027	-3.326
24	1	6	-0.131678	-1.5700001	-4.296	-4.0209999
25	1	7	0.087333001	-1.201	-3.457	-4.6479998
26	1	7	0.087333001	-2.1229999	-4.9889998	-4.691
27	1	7	0.087333001	-2.2850001	-3.898	-3.2690001
28	1	2	-0.12582301	-0.93099999	-6.289	-2.723
29	1	2	-0.15322199	-1.789	-6.3959999	-1.698
30	1	3	0.21343701	-2.1659999	-5.5149999	-1.194
31	1	2	-0.001224	-2.2160001	-7.7459998	-1.26
32	1	3	0.21426401	-2.904	-7.8309999	-0.42699999
33	1	2	-0.34613499	-1.757	-8.8459997	-1.892
34	1	2	0.58573502	-2.1889999	-10.184	-1.452
35	1	5	-0.51617599	-1.77	-11.221	-2.0309999
36	1	2	0.069844	-0.81300002	-8.6929998	-3.036
37	1	3	0.208038	-0.44299999	-9.5620003	-3.5650001
38	1	2	-0.181675	-0.43000001	-7.461	-3.404
39	1	6	-0.027432	0.48500001	-7.0890002	-4.526
40	1	6	-0.131271	-0.153	-7.467	-5.8759999
41	1	7	0.091573998	-0.29100001	-8.5670004	-5.9510002
42	1	7	0.091573998	-1.145	-6.9809999	-5.9899998
43	1	7	0.091573998	0.498	-7.1399999	-6.7150002
44	1	6	-0.131271	1.853	-7.7820001	-4.3699999
45	1	7	0.091573998	1.753	-8.8839998	-4.4689999
46	1	7	0.091573998	2.2920001	-7.559	-3.3729999
47	1	7	0.091573998	2.556	-7.4250002	-5.1529999
48	1	6	-0.181364	0.62599999	-5.5380001	-4.3940001
49	1	7	0.12977099	0.47799999	-5.033	-5.3740001
50	1	7	0.12977099	1.664	-5.2709999	-4.092
51	1	2	-0.249796	1.249	-4.8610001	-1.3049999
52	1	3	0.214086	1.391	-5.9330001	-1.353
53	1	2	-0.079588003	1.924	-4.1609998	-0.38600001
54	1	3	0.224075	2.589	-4.6799998	0.29300001
55	1	1	-0.42834201	-2.1719999	-2.132	-0.93099999
56	1	2	0.186988	-2.1199999	-2.9230001	0.259
57	1	2	-0.45082301	-2.0139999	-4.2600002	0.185
58	1	3	0.224711	-1.967	-4.756	-0.77600002
59	1	2	-0.0051600002	-1.961	-5.0700002	1.419
60	1	3	0.228048	-1.875	-6.1469998	1.352
61	1	2	-0.481484	-2.0179999	-4.4749999	2.6170001
62	1	3	0.22849	-1.978	-5.0739999	3.517
63	1	2	0.339349	-2.135	-3.0009999	2.711
64	1	1	-0.85483998	-2.1949999	-2.3710001	3.993
65	1	4	0.36641201	-2.2780001	-1.3329999	4.0809999
66	1	4	0.36641201	-2.158	-2.9430001	4.8660002
67	1	2	-0.52606499	-2.1830001	-2.266	1.587
68	1	3	0.236981	-2.2690001	-1.188	1.6440001
69	1	4	0.37281901	-2.1289999	-2.576	-1.876
70	1	2	0.59123898	-2.8759999	-10.289	-0.62199998
71	1	5	-0.52658802	-2.7639999	-9.5120001	0.36399999
72	1	2	-0.334645	-3.918	-11.331	-0.662
73	1	2	0.0040440001	-4.7909999	-11.493	0.34599999
74	1	3	0.22187901	-4.756	-10.858	1.223
75	1	2	-0.24320801	-5.8239999	-12.546	0.27700001
76	1	3	0.214086	-6.52	-12.631	1.102
77	1	2	-0.21054401	-5.9060001	-13.378	-0.78500003
78	1	6	0.024672	-7.0110002	-14.447	-0.83899999
79	1	6	-0.131678	-6.8179998	-15.472	-1.98
80	1	7	0.087333001	-5.816	-15.949	-1.915
81	1	7	0.087333001	-6.9239998	-14.984	-2.9719999
82	1	7	0.087333001	-7.585	-16.275	-1.92
83	1	2	-0.12582301	-7.086	-15.2	0.454
84	1	2	-0.172515	-6.0999999	-15.883	1.051
85	1	3	0.21343701	-5.1110001	-15.928	0.61400002
86	1	2	-0.062043998	-6.3829999	-16.580999	2.3269999
87	1	3	0.23067699	-5.579	-17.125999	2.806
88	1	2	-0.227883	-7.619	-16.537001	2.875
89	1	2	0.835208	-7.9180002	-17.231001	4.1459999
90	1	5	-0.48083201	-7.0219998	-17.881001	4.7490001
91	1	8	-0.664599	-9.1990004	-17.17	4.6880002
92	1	9	0.417766	-9.4180002	-17.641001	5.5580001
93	1	2	0.0046379999	-8.6949997	-15.776	2.178
94	1	3	0.223364	-9.6949997	-15.736	2.5880001
95	1	2	-0.175843	-8.4099998	-15.141	1.03
96	1	6	-0.027432	-9.3430004	-14.345	0.17399999
97	1	6	-0.131271	-9.9849997	-13.201	0.98299998
98	1	7	0.091573998	-10.642	-13.602	1.784
99	1	7	0.091573998	-9.2019997	-12.569	1.456
100	1	7	0.091573998	-10.601	-12.559	0.317
101	1	6	-0.131271	-10.433	-15.261	-0.412
102	1	7	0.091573998	-9.9759998	-16.096001	-0.986
103	1	7	0.091573998	-11.061	-15.694	0.396
104	1	7	0.091573998	-11.094	-14.685	-1.096
105	1	6	-0.181364	-8.4230003	-13.781	-0.95700002
106	1	7	0.12977099	-8.8699999	-13.95	-1.9630001
107	1	7	0.12977099	-8.3380003	-12.675	-0.87
108	1	2	-0.24320801	-4.941	-13.176	-1.906
109	1	3	0.214086	-4.9699998	-13.794	-2.7920001
110	1	2	0.0040440001	-4.0079999	-12.218	-1.842
111	1	3	0.22187901	-3.3169999	-12.091	-2.6670001

Bonds

1	1	1	2
2	2	1	14
3	3	1	55
4	4	2	3
5	4	2	12
6	5	3	4
7	4	3	5
8	5	5	6
9	4	5	7
10	5	7	8
11	4	7	9
12	1	9	10
13	4	9	12
14	2	10	11
15	6	10	15
16	5	12	13
17	7	15	16
18	8	15	17
19	4	17	18
20	4	17	53
21	5	18	19
22	4	18	20
23	5	20	21
24	4	20	22
25	9	22	23
26	4	22	51
27	10	23	24
28	9	23	28
29	10	23	48
30	11	24	25
31	11	24	26
32	11	24	27
33	4	28	29
34	4	28	38
35	5	29	30
36	4	29	31
37	5	31	32
38	4	31	33
39	8	33	34
40	4	33	36
41	7	34	35
42	8	34	70
43	5	36	37
44	4	36	38
45	9	38	39
46	10	39	40
47	10	39	44
48	10	39	48
49	11	40	41
50	11	40	42
51	11	40	43
52	11	44	45
53	11	44	46
54	11	44	47
55	11	48	49
56	11	48	50
57	5	51	52
58	4	51	53
59	5	53	54
60	1	55	56
61	2	55	69
62	4	56	57
63	4	56	67
64	5	57	58
65	4	57	59
66	5	59	60
67	4	59	61
68	5	61	62
69	4	61	63
70	1	63	64
71	4	63	67
72	2	64	65
73	2	64	66
74	5	67	68
75	7	70	71
76	8	70	72
77	4	72	73
78	4	72	110
79	5	73	74
80	4	73	75
81	5	75	76
82	4	75	77
83	9	77	78
84	4	77	108
85	10	78	79
86	9	78	83
87	10	78	105
88	11	79	80
89	11	79	81
90	11	79	82
91	4	83	84
92	4	83	95
93	5	84	85
94	4	84	86
95	5	86	87
96	4	86	88
97	8	88	89
98	4	88	93
99	7	89	90
100	12	89	91
101	13	91	92
102	5	93	94
103	4	93	95
104	9	95	96
105	10	96	97
106	10	96	101
107	10	96	105
108	11	97	98
109	11	97	99
110	11	97	100
111	11	101	102
112	11	101	103
113	11	101	104
114	11	105	106
115	11	105	107
116	5	108	109
117	4	108	110
118	5	110	111

Angles

1	5	38	39	40
2	7	41	40	42
3	4	57	59	60
4	4	22	51	52
5	5	23	24	25
6	5	39	40	41
7	4	5	7	8
8	1	70	72	110
9	4	72	110	111
10	3	2	1	14
11	7	25	24	26
12	7	80	79	82
13	1	20	22	23
14	1	83	84	86
15	5	96	101	103
16	4	85	84	86
17	1	28	29	31
18	1	83	95	93
19	7	98	97	100
20	5	23	48	39
21	4	108	110	111
22	4	2	12	13
23	2	9	10	15
24	3	1	55	69
25	7	41	40	43
26	5	40	39	44
27	4	58	57	59
28	5	39	44	47
29	1	22	51	53
30	5	24	23	48
31	5	39	40	42
32	1	23	22	51
33	5	78	79	81
34	1	33	36	38
35	4	56	67	68
36	1	15	17	53
37	3	9	10	11
38	1	84	83	95
39	5	77	78	105
40	5	39	48	49
41	4	60	59	61
42	1	72	110	108
43	4	29	31	32
44	4	19	18	20
45	3	63	64	65
46	5	38	39	44
47	4	84	86	87
48	1	31	33	36
49	4	74	73	75
50	1	1	2	3
51	4	56	57	58
52	4	72	73	74
53	5	78	79	82
54	4	88	93	94
55	3	56	55	69
56	5	28	23	48
57	7	45	44	47
58	1	16	15	17
59	1	7	9	12
60	4	37	36	38
61	5	39	48	50
62	1	35	34	70
63	4	2	3	4
64	1	61	63	67
65	7	102	101	103
66	1	84	86	88
67	1	2	12	9
68	5	38	39	48
69	4	6	5	7
70	1	20	22	51
71	7	103	101	104
72	1	55	56	67
73	5	44	39	48
74	4	59	61	62
75	1	72	73	75
76	7	49	48	50
77	7	81	79	82
78	1	88	93	95
79	1	15	17	18
80	4	18	20	21
81	1	34	70	71
82	7	99	97	100
83	4	32	31	33
84	1	57	59	61
85	1	78	83	95
86	5	23	24	26
87	4	51	53	54
88	4	87	86	88
89	1	5	7	9
90	1	2	3	5
91	1	70	72	73
92	4	73	75	76
93	7	25	24	27
94	6	78	83	84
95	7	106	105	107
96	4	109	108	110
97	5	96	101	104
98	7	102	101	104
99	1	18	17	53
100	6	36	38	39
101	7	42	40	43
102	8	89	91	92
103	1	59	61	63
104	5	79	78	105
105	5	101	96	105
106	7	46	44	47
107	1	78	77	108
108	1	18	20	22
109	4	77	108	109
110	5	77	78	83
111	5	97	96	105
112	1	1	2	12
113	4	63	67	68
114	5	79	78	83
115	1	31	33	34
116	5	96	97	99
117	5	40	39	48
118	5	23	24	27
119	5	39	40	43
120	2	2	1	55
121	5	77	78	79
122	5	97	96	101
123	4	8	7	9
124	4	21	20	22
125	4	3	5	6
126	3	14	1	55
127	1	34	33	36
128	5	96	105	106
129	1	29	31	33
130	1	57	56	67
131	3	63	64	66
132	5	83	78	105
133	4	62	61	63
134	5	78	105	106
135	1	56	57	59
136	1	33	34	35
137	1	10	15	16
138	1	88	89	90
139	1	3	2	12
140	4	4	3	5
141	1	3	5	7
142	6	23	28	29
143	5	39	44	45
144	1	75	77	108
145	1	89	88	93
146	7	80	79	81
147	5	96	105	107
148	1	33	34	70
149	4	83	84	85
150	4	17	53	54
151	4	94	93	95
152	4	28	29	30
153	5	22	23	28
154	5	95	96	97
155	7	98	97	99
156	1	10	15	17
157	5	24	23	28
158	1	34	70	72
159	1	88	89	91
160	1	61	63	64
161	4	9	12	13
162	1	73	72	110
163	5	39	44	46
164	1	73	75	77
165	5	22	23	24
166	1	28	38	39
167	5	78	79	80
168	4	33	36	37
169	1	75	77	78
170	3	65	64	66
171	1	64	63	67
172	3	11	10	15
173	1	10	9	12
174	1	77	108	110
175	1	56	67	63
176	1	86	88	93
177	5	96	97	100
178	1	17	53	51
179	5	22	23	48
180	5	96	97	98
181	5	95	96	105
182	1	7	9	10
183	4	17	18	19
184	5	23	48	49
185	6	93	95	96
186	1	23	28	38
187	7	45	44	46
188	1	86	88	89
189	4	30	29	31
190	4	76	75	77
191	1	83	95	96
192	2	1	55	56
193	5	95	96	101
194	1	28	38	36
195	1	29	28	38
196	5	96	101	102
197	1	71	70	72
198	4	52	51	53
199	5	78	105	107
200	9	90	89	91
201	1	17	18	20
202	5	23	48	50
203	7	26	24	27
204	1	55	56	57
205	5	78	105	96

Dihedrals

1	1	86	88	93	94
2	8	33	34	70	71
3	1	59	61	63	67
4	12	28	23	48	49
5	1	28	38	36	33
6	16	40	39	44	46
7	8	16	15	17	53
8	11	48	23	22	51
9	1	85	84	83	95
10	12	95	96	97	100
11	8	10	15	17	53
12	12	38	39	40	42
13	1	20	22	51	53
14	2	65	64	63	67
15	1	74	73	75	76
16	1	21	20	22	51
17	16	46	44	39	48
18	11	83	78	77	108
19	16	45	44	39	48
20	1	85	84	86	88
21	1	78	83	84	86
22	12	22	23	24	27
23	1	30	29	31	33
24	1	89	88	93	94
25	12	38	39	44	47
26	8	35	34	70	71
27	1	70	72	110	111
28	12	23	48	39	38
29	1	7	9	12	13
30	11	22	23	28	38
31	12	83	78	105	106
32	12	22	23	48	49
33	1	20	18	17	53
34	11	38	28	23	48
35	16	97	96	105	106
36	1	23	22	51	53
37	1	22	51	53	54
38	1	19	18	20	22
39	1	75	77	108	110
40	12	77	78	105	106
41	11	77	78	83	95
42	1	32	31	33	36
43	16	40	39	44	45
44	6	9	10	15	17
44	7	9	10	15	17
45	1	8	7	9	10
46	1	84	83	95	96
47	1	2	3	5	7
48	16	100	97	96	105
49	1	20	22	51	52
50	1	75	73	72	110
51	1	70	72	110	108
52	13	23	48	39	44
52	14	23	48	39	44
52	15	23	48	39	44
53	12	38	39	48	50
54	1	87	86	88	93
55	16	80	79	78	105
56	1	18	20	22	51
57	16	27	24	23	48
58	16	99	97	96	101
59	16	82	79	78	105
60	1	21	20	22	23
61	1	78	83	84	85
62	12	22	23	24	26
63	1	30	29	31	32
64	1	29	28	38	36
65	12	38	39	44	46
66	8	16	15	17	18
67	2	66	64	63	67
68	1	57	56	67	63
69	1	55	56	67	68
70	1	78	77	108	110
71	16	47	44	39	48
72	1	3	2	12	9
73	16	99	97	96	105
74	8	10	15	17	18
75	11	24	23	28	29
76	16	41	40	39	44
77	1	86	84	83	95
78	1	28	29	31	32
79	11	79	78	83	84
80	1	52	51	53	54
81	1	94	93	95	96
82	8	91	89	88	93
83	16	101	96	105	106
84	1	23	22	51	52
85	1	19	18	20	21
86	11	36	38	39	48
87	11	28	23	22	51
88	1	1	2	12	13
89	1	78	83	95	93
90	1	3	5	7	9
91	11	75	77	78	83
92	12	77	78	79	80
93	1	109	108	110	111
94	4	9	10	15	16
94	5	9	10	15	16
95	1	58	57	59	61
96	1	56	57	59	61
97	16	97	96	101	104
98	12	25	24	23	28
99	18	90	89	91	92
99	19	90	89	91	92
100	3	14	1	55	56
101	2	11	10	9	12
102	12	38	39	48	49
103	16	41	40	39	48
104	1	84	86	88	93
105	11	93	95	96	105
106	2	7	9	10	15
107	1	29	31	33	36
108	2	3	2	1	55
109	2	61	63	64	66
110	1	18	20	22	23
111	1	76	75	77	78
112	12	95	96	101	103
113	1	31	33	36	38
114	3	14	1	55	69
115	1	18	17	53	51
116	1	78	77	108	109
117	1	57	59	61	63
118	16	98	97	96	105
119	1	2	12	9	7
120	1	23	28	29	31
121	1	29	28	38	39
122	13	24	23	48	39
122	14	24	23	48	39
122	15	24	23	48	39
123	16	81	79	78	105
124	1	83	95	93	88
125	1	73	72	110	108
126	16	100	97	96	101
127	1	15	17	18	20
128	2	12	2	1	55
129	16	44	39	48	50
130	13	23	48	39	40
130	14	23	48	39	40
130	15	23	48	39	40
131	2	1	55	56	57
132	1	87	86	88	89
133	11	36	38	39	40
134	2	57	56	55	69
135	1	73	75	77	78
136	12	82	79	78	83
137	11	77	78	83	84
138	12	78	105	96	95
139	1	77	108	110	111
140	16	24	23	48	50
141	11	28	38	39	48
142	1	58	57	59	60
143	1	56	57	59	60
144	1	6	5	7	9
145	16	97	96	101	103
146	12	95	96	97	99
147	8	33	34	70	72
148	12	38	39	40	41
149	1	34	33	36	38
150	2	3	2	1	14
151	1	33	36	38	39
152	16	42	40	39	44
153	12	28	23	48	50
154	16	104	101	96	105
155	1	5	3	2	12
156	1	60	59	61	63
157	1	78	83	95	96
158	1	23	28	38	36
159	8	71	70	72	110
160	11	36	38	39	44
161	16	79	78	105	107
162	16	40	39	44	47
163	8	31	33	34	70
164	1	59	57	56	67
165	1	85	84	86	87
166	2	61	63	64	65
167	12	26	24	23	28
168	12	95	96	105	107
169	12	95	96	101	102
170	1	2	12	9	10
171	1	17	18	20	22
172	11	24	23	28	38
173	1	15	17	53	54
174	1	57	59	61	62
175	6	11	10	15	17
175	7	11	10	15	17
176	11	75	77	78	79
177	8	34	70	72	110
178	1	83	84	86	88
179	16	103	101	96	105
180	2	12	2	1	14
181	12	95	96	97	98
182	1	56	67	63	61
183	1	8	7	9	12
184	1	76	75	77	108
185	1	17	53	51	22
186	11	105	78	77	108
187	1	23	28	29	30
188	16	42	40	39	48
189	1	37	36	38	39
190	1	30	29	28	38
191	1	18	17	53	54
192	1	1	2	12	9
193	2	1	55	56	67
194	1	75	77	108	109
195	1	84	86	88	89
196	12	83	78	105	107
197	11	20	22	23	28
198	1	64	63	67	68
199	11	93	95	96	101
200	8	35	34	33	36
201	1	1	2	3	5
202	12	22	23	48	50
203	2	7	9	10	11
204	1	58	57	56	67
205	16	24	23	48	49
206	13	78	105	96	101
206	14	78	105	96	101
206	15	78	105	96	101
207	16	97	96	105	107
208	1	6	5	7	8
209	1	2	3	5	6
210	16	43	40	39	44
211	11	28	38	39	40
212	1	73	72	110	111
213	8	86	88	89	91
214	1	34	33	36	37
215	11	20	22	23	48
216	1	55	56	67	63
217	11	83	95	96	101
218	1	62	61	63	64
219	3	2	1	55	56
220	1	60	59	61	62
221	12	77	78	105	107
222	8	71	70	72	73
223	1	15	17	53	51
224	16	79	78	105	106
225	16	98	97	96	101
226	1	73	75	77	108
227	1	29	31	33	34
228	12	77	78	79	82
229	16	25	24	23	48
230	12	22	23	24	25
231	1	72	110	108	77
232	12	81	79	78	83
233	12	95	96	105	106
234	11	28	38	39	44
235	16	40	39	48	50
236	1	5	7	9	10
237	12	38	39	44	45
238	1	17	18	20	21
239	11	83	95	96	105
240	1	72	73	75	77
241	1	28	38	36	37
242	3	2	1	55	69
243	1	23	28	38	39
244	1	55	56	57	59
245	9	11	10	15	16
245	10	11	10	15	16
246	1	31	29	28	38
247	8	34	70	72	73
248	11	75	77	78	105
249	1	83	84	86	87
250	16	43	40	39	48
251	1	4	3	5	7
252	1	59	61	63	64
253	2	67	56	55	69
254	8	31	33	34	35
255	11	95	83	78	105
256	12	80	79	78	83
257	17	88	89	91	92
258	13	79	78	105	96
258	14	79	78	105	96
258	15	79	78	105	96
259	11	22	23	28	29
260	1	17	53	51	52
261	1	3	5	7	8
262	12	28	23	48	39
263	1	32	31	33	34
264	1	1	2	3	4
265	1	28	29	31	33
266	1	56	67	63	64
267	1	61	63	67	68
268	1	70	72	73	75
269	1	5	7	9	12
270	1	86	88	93	95
271	11	29	28	23	48
272	8	86	88	89	90
273	16	101	96	105	107
274	1	57	56	67	68
275	11	93	95	96	97
276	8	90	89	88	93
277	11	84	83	78	105
278	8	36	33	34	70
279	13	78	105	96	97
279	14	78	105	96	97
279	15	78	105	96	97
280	12	77	78	79	81
281	12	27	24	23	28
282	1	83	95	93	94
283	16	40	39	48	49
284	1	31	33	36	37
285	1	19	18	17	53
286	11	83	95	96	97
287	12	38	39	40	43
288	1	74	73	72	110
289	12	83	78	105	96
290	1	72	73	75	76
291	1	10	9	12	13
292	1	74	73	75	77
293	1	62	61	63	67
294	11	24	23	22	51
295	11	20	22	23	24
296	16	26	24	23	48
297	1	55	56	57	58
298	1	88	93	95	96
299	11	79	78	77	108
300	12	22	23	48	39
301	1	4	3	5	6
302	1	89	88	93	95
303	12	95	96	101	104
304	1	4	3	2	12
305	8	35	34	70	72
306	1	15	17	18	19
307	12	77	78	105	96
308	16	44	39	48	49
309	16	102	101	96	105
310	2	12	9	10	15
311	11	79	78	83	95
312	1	3	2	12	13
313	1	70	72	73	74
314	1	72	110	108	109
315	1	84	83	95	93
316	16	97	96	101	102

Impropers

3	1	51	22	52	53
4	2	55	1	56	69
6	1	2	3	12	1
9	1	86	88	84	87
26	1	88	86	89	93
30	1	5	6	7	3
36	1	3	5	2	4
41	1	93	88	94	95
42	1	29	28	30	31
48	1	34	70	33	35
52	1	28	23	29	38
53	1	3	2	4	5
54	3	89	91	88	90
56	1	38	39	28	36
58	1	38	28	36	39
62	1	61	62	63	59
63	1	59	60	61	57
65	1	53	54	17	51
72	1	84	86	83	85
73	1	17	18	53	15
78	2	1	14	55	2
79	1	75	76	77	73
86	1	3	4	5	2
99	2	10	11	15	9
115	1	70	71	72	34
118	1	18	20	17	19
119	1	28	29	38	23
123	1	22	51	20	23
124	2	10	15	9	11
125	1	56	55	57	67
126	1	59	61	57	60
127	1	72	110	70	73
132	1	31	32	33	29
139	1	95	96	83	93
141	1	57	59	56	58
145	1	20	18	21	22
146	1	95	83	93	96
150	1	56	67	55	57
153	1	31	33	29	32
163	1	38	36	39	28
165	1	72	70	73	110
171	1	12	9	13	2
172	1	33	31	34	36
176	1	36	33	37	38
177	1	67	63	68	56
180	1	73	74	75	72
195	1	51	53	22	52
197	1	7	9	5	8
207	1	77	108	75	78
209	1	75	77	73	76
215	1	108	109	110	77
217	1	83	78	84	95
221	2	10	9	11	15
239	2	64	65	66	63
241	1	34	35	70	33
245	1	15	10	16	17
258	1	70	72	34	71
262	1	53	17	51	54
263	1	86	84	87	88
266	1	9	7	10	12
269	1	33	36	31	34
274	1	29	30	31	28
279	1	12	2	9	13
280	1	36	37	38	33
282	1	75	73	76	77
285	1	15	17	10	16
287	1	67	68	56	63
291	1	9	12	7	10
298	1	67	56	63	68
299	1	70	34	71	72
301	1	61	59	62	63
311	1	83	84	95	78
314	1	33	34	36	31
315	3	89	88	90	91
316	1	53	51	54	17
317	1	18	19	20	17
327	1	2	1	3	12
334	1	108	77	109	110
338	1	7	5	8	9
340	1	88	89	93	86
341	1	57	56	58	59
342	1	28	38	23	29
345	2	55	69	1	56
347	2	64	63	65	66
351	3	89	90	91	88
356	1	5	3	6	7
363	1	7	8	9	5
365	1	110	72	108	111
369	1	73	72	74	75
372	1	61	63	59	62
373	1	110	108	111	72
384	1	63	64	67	61
387	1	59	57	60	61
395	1	93	95	88	94
399	1	63	67	61	64
404	1	51	52	53	22
406	1	15	16	17	10
412	1	31	29	32	33
414	1	5	7	3	6
418	1	22	23	51	20
421	1	108	110	77	109
426	1	20	22	18	21
427	2	1	55	2	14
428	1	57	58	59	56
429	1	36	38	33	37
430	1	88	93	86	89
434	2	55	56	69	1
436	1	72	73	110	70
442	1	17	53	15	18
443	1	56	57	67	55
444	1	77	78	108	75
445	1	12	13	2	9
458	1	84	85	86	83
459	2	1	2	14	55
461	1	34	33	35	70
467	1	93	94	95	88
469	1	9	10	12	7
481	1	17	15	18	53
485	1	84	83	85	86
493	1	22	20	23	51
495	2	64	66	63	65
496	1	83	95	78	84
499	1	73	75	72	74
501	1	18	17	19	20
505	1	86	87	88	84
511	1	63	61	64	67
512	1	2	12	1	3
516	1	110	111	72	108
524	1	95	93	96	83
534	1	29	31	28	30
537	1	77	75	78	108
543	1	20	21	22	18
