Title

1134 atoms
1134 bonds
2115 angles
4172 dihedrals
261 impropers

10 atom types
14 bond types
9 angle types
54 dihedral types
3 improper types
-11.07699966 88.92300034 xlo xhi
-61.72100067 38.27899933 ylo yhi
-76.34400177 23.65599823 zlo zhi
0.0 0.0 0.0 xy xz yz

Masses

1	12.01078
2	15.99943
3	1.007947
4	15.99943
5	12.01078
6	15.99943
7	1.007947
8	1.007947
9	14.00672
10	1.007947


Pair Coeffs

1	0.10884061	3.3795318
2	0.20947353	2.99716
3	1.2326e-05	0.53453923
4	0.16846514	3.0251065
5	0.086879315	3.4806469
6	0.2102061	3.0398122
7	0.016409246	2.5832257
8	0.015779483	2.6445434
9	0.16769152	3.206876
10	0.014090815	1.1034277

Bond Coeffs

1 harmonic	329.96998057905	1.427343958716
2 harmonic	264.62148576755	1.52190126495
3 harmonic	370.04670688625	1.093899492634
4 harmonic	543.5267831885	0.9716763312559
5 harmonic	366.7408841747	1.425895053732
6 harmonic	301.15400723785	1.345741232799
7 harmonic	582.698766451	1.225198386222
8 harmonic	279.1350963404	1.454628925034
9 harmonic	492.76746816345	1.381897776683
10 harmonic	505.144496193	1.019481865027
11 harmonic	352.0565580496	1.450098586273
12 harmonic	329.44145381095	1.523435958334
13 harmonic	366.34047229585	1.464762957261
14 harmonic	422.7150220147	1.421786517481


Angle Coeffs

1 harmonic	65.09061609600001	110.3538806181
2 harmonic	53.20531626545	116.5475862634
3 harmonic	201.41175231035	127.4691416191
4 harmonic	57.8982893754	126.8062420451
5 harmonic	48.776492647595	115.6030999533
6 harmonic	55.42182150775	117.3465570514
7 harmonic	63.44422595415	115.5071327674
8 harmonic	94.53012429075	110.92021963
9 harmonic	49.015990027215	114.8414599994


Dihedral Coeffs

1 fourier 1	0.1918272375143	3	0
2 fourier 1	0.9202179876409	1	180
3 fourier 1	0.4552156463534	3	0
4 fourier 1	-0.03687743385131	2	180
5 fourier 1	-0.0309670556842	3	0
6 fourier 1	0.4598191477945	2	0
7 fourier 1	0.1115525666802	3	0
8 fourier 1	0.3432490222662	1	0
9 fourier 1	0.3445382149273	3	0
10 fourier 1	0.1364556373303	1	0
11 fourier 1	0.3026390167484	3	0
12 fourier 1	0.1155372516788	3	0
13 fourier 1	0.1040663847541	3	0
14 fourier 1	1.163809172478	2	180
15 fourier 1	0.1679186987369	1	180
16 fourier 1	2.779853741805	2	180
17 fourier 1	0.9974165607242	2	180
18 fourier 1	0.0473758381877	3	0
19 fourier 1	0.1911926717192	3	0
20 fourier 1	0.09223874044423	3	0
21 fourier 1	0.3159935921949	2	180
22 fourier 1	0.3247796806857	1	180
23 fourier 1	1.809047390003	2	180
24 fourier 1	-0.04816277792592	1	0
25 fourier 1	-0.1488678166443	4	180
26 fourier 1	-0.1230328948768	3	180
27 fourier 1	0.2939295466901	2	0
28 fourier 1	-0.3024127022865	1	0
29 fourier 1	0.182238503271	2	0
30 fourier 1	0.02972342374561	3	0
31 fourier 1	0.4860993122944	2	180
32 fourier 1	0.8916986138746	1	0
33 fourier 1	3.101948770557	2	180
34 fourier 1	-0.4252153282372	1	0
35 fourier 1	-0.04561822763521	4	0
36 fourier 1	0.1536091026885	2	0
37 fourier 1	0.02664938770063	3	0
38 fourier 1	-0.3703352413219	2	0
39 fourier 1	2.348375642009	2	180
40 fourier 1	1.256156174911	1	0
41 fourier 1	0.4541676554336	1	0
42 fourier 1	0.1489710476446	2	0
43 fourier 1	0.02960027280666	3	180
44 fourier 1	0.2036670163956	3	0
45 fourier 1	0.3917343745784	3	0
46 fourier 1	0.9467782973395	2	0
47 fourier 1	0.2726597146827	1	0
48 fourier 1	0.774151252041	3	0
49 fourier 1	1.087509576657	2	0
50 fourier 1	1.518874939494	1	0
51 fourier 1	0.6761465733405	3	0
52 fourier 1	1.653011589151	2	0
53 fourier 1	1.713184811193	1	0
54 fourier 1	1.659715194912	2	180


Improper Coeffs

1 3.5	-1	2
2 0.3333333333333333	-1	2
3 0.3666666666666667	-1	2


Atoms

1	1	1	0.130697	-5.2849998	0.25299999	1.2179999
2	1	2	-0.704229	-6.5469999	-0.36300001	1.268
3	1	3	0.40612701	-6.6139998	-0.84200001	2.1359999
4	1	1	0.108018	-5.151	1.301	2.339
5	1	4	-0.496573	-6.2080002	2.2579999	2.2709999
6	1	5	0.622594	-6.2509999	3.2880001	1.327
7	1	6	-0.56757402	-5.3319998	3.4330001	0.47400001
8	1	7	0.088252001	-4.1690001	1.8199999	2.276
9	1	7	0.088252001	-5.2020001	0.79400003	3.326
10	1	7	0.091931999	-5.2010002	0.76999998	0.23899999
11	1	1	0.042727999	-4.1690001	-0.80400002	1.298
12	1	4	-0.48106301	-2.8970001	-0.20100001	1.14
13	1	1	0.077918001	-2.4549999	-0.26499999	-0.204
14	1	1	-0.158933	-1.5910001	-1.517	-0.41600001
15	1	1	-0.138945	-0.99699998	-1.594	-1.839
16	1	1	-0.138945	0.495	-1.225	-1.902
17	1	1	-0.158933	0.75099999	0.26699999	-1.6470001
18	1	1	0.077894002	2.22	0.62900001	-1.868
19	1	4	-0.483208	3.0139999	0.0020000001	-0.88200003
20	1	1	0.082704	4.381	0.183	-1.184
21	1	1	0.154909	5.2379999	-0.31900001	-0.016000001
22	1	1	0.090971	5.0689998	0.59500003	1.211
23	1	2	-0.68181998	5.7010002	0.039999999	2.3329999
24	1	3	0.38532999	6.6350002	0.37799999	2.336
25	1	7	0.08788	5.4710002	1.6129999	0.99199998
26	1	7	0.08788	3.9890001	0.70899999	1.448
27	1	4	-0.49809599	6.605	-0.34	-0.43200001
28	1	5	0.777713	7.5669999	-1.2	0.104
29	1	6	-0.62595499	7.2620001	-2.0710001	0.96200001
30	1	7	0.099633001	4.9000001	-1.349	0.236
31	1	7	0.086694002	4.6230001	1.2539999	-1.377
32	1	7	0.086694002	4.6430001	-0.41100001	-2.089
33	1	7	0.076228	2.3210001	1.735	-1.7850001
34	1	7	0.076228	2.5190001	0.31900001	-2.8959999
35	1	8	0.091418996	0.47600001	0.52700001	-0.60299999
36	1	8	0.091418996	0.126	0.87400001	-2.3380001
37	1	8	0.086262003	1.064	-1.839	-1.17
38	1	8	0.086262003	0.86699998	-1.485	-2.9170001
39	1	8	0.086262003	-1.575	-0.96799999	-2.5539999
40	1	8	0.086262003	-1.092	-2.6430001	-2.1960001
41	1	8	0.091418996	-2.2290001	-2.4130001	-0.25
42	1	8	0.091418996	-0.78600001	-1.548	0.35299999
43	1	7	0.076228	-3.2920001	-0.237	-0.94199997
44	1	7	0.076228	-1.8429999	0.639	-0.39899999
45	1	7	0.088249996	-4.197	-1.285	2.299
46	1	7	0.088249996	-4.3649998	-1.619	0.56300002
47	1	9	-0.467778	-2.664	-0.34799999	-15.825
48	1	10	0.324011	-2.27	0.602	-15.637
49	1	1	0.024191	-2.224	-1.27	-14.777
50	1	1	-0.145218	-0.727	-1.617	-14.882
51	1	1	-0.143075	0.183	-0.44800001	-14.467
52	1	1	-0.143075	1.679	-0.75099999	-14.686
53	1	1	-0.14449599	2.2490001	-1.88	-13.809
54	1	1	0.016965	2.256	-1.533	-12.313
55	1	9	-0.490293	2.967	-2.556	-11.546
56	1	5	0.73328298	3.2590001	-2.381	-10.153
57	1	1	-0.22523201	4.053	-3.4289999	-9.4130001
58	1	1	0.16275699	3.5479999	-3.6949999	-7.9660001
59	1	1	-0.22523201	4.4050002	-4.8270001	-7.3270001
60	1	5	0.73328298	4.1589999	-5.0419998	-5.855
61	1	9	-0.490293	5.1570001	-5.704	-5.066
62	1	1	0.016965	5.0219998	-5.9070001	-3.6240001
63	1	1	-0.14449599	5.2509999	-4.599	-2.855
64	1	1	-0.143075	6.6799998	-4.0679998	-3.043
65	1	1	-0.143075	6.9060001	-2.793	-2.221
66	1	1	-0.145218	8.3380003	-2.2680001	-2.401
67	1	1	0.024191	8.5679998	-0.93699998	-1.677
68	1	9	-0.46900001	8.5760002	-1.123	-0.228
69	1	10	0.324011	8.9530001	-0.249	0.204
70	1	7	0.054216001	9.5559998	-0.53799999	-1.994
71	1	7	0.054216001	7.7919998	-0.19499999	-1.9679999
72	1	8	0.086236998	8.5319996	-2.1099999	-3.4850001
73	1	8	0.086236998	9.066	-3.023	-2.0309999
74	1	8	0.085087001	6.184	-2.013	-2.549
75	1	8	0.085087001	6.7249999	-3.0190001	-1.148
76	1	8	0.085087001	6.8520002	-3.845	-4.118
77	1	8	0.085087001	7.4070001	-4.8450003	-2.7220001
78	1	8	0.086236998	5.072	-4.7919998	-1.775
79	1	8	0.086236998	4.5190001	-3.832	-3.191
80	1	7	0.052942999	4.0079999	-6.303	-3.395
81	1	7	0.052942999	5.7620001	-6.665	-3.286
82	1	10	0.32047299	6.0019999	-6.0939999	-5.5430002
83	1	6	-0.73715597	3.0680001	-4.691	-5.3260002
84	1	8	0.138937	5.4829998	-4.579	-7.4559999
85	1	8	0.138937	4.2340002	-5.79	-7.8569999
86	1	5	0.69237298	2.089	-4.1240001	-8.0240002
87	1	9	-0.492816	1.0420001	-3.3050001	-7.4770002
88	1	1	0.017549001	-0.36199999	-3.7049999	-7.5780001
89	1	1	-0.14449599	-1.266	-2.7160001	-6.8280001
90	1	1	-0.140582	-2.7390001	-3.1529999	-6.809
91	1	1	-0.146294	-3.4400001	-2.924	-8.1590004
92	1	1	-0.139009	-4.9039998	-3.3930001	-8.1490002
93	1	1	-0.12624501	-5.8059998	-2.51	-7.2860003
94	1	8	0.050941002	-5.6760001	-1.4400001	-7.5500002
95	1	8	0.050941002	-6.8660002	-2.7869999	-7.4580002
96	1	8	0.050941002	-5.5799999	-2.6560001	-6.2090001
97	1	8	0.074946001	-4.9660001	-4.4460001	-7.7979999
98	1	8	0.074946001	-5.2870002	-3.3629999	-9.1920004
99	1	8	0.085207	-2.9130001	-3.497	-8.9510002
100	1	8	0.085207	-3.391	-1.847	-8.4320002
101	1	8	0.085087001	-3.2550001	-2.5580001	-6.026
102	1	8	0.085087001	-2.8109999	-4.224	-6.5180001
103	1	8	0.086236998	-1.173	-1.704	-7.2800002
104	1	8	0.086236998	-0.91299999	-2.6500001	-5.7740002
105	1	7	0.052942999	-0.64399999	-3.744	-8.651
106	1	7	0.052942999	-0.484	-4.7189999	-7.138
107	1	10	0.318351	1.284	-2.4070001	-7
108	1	6	-0.72855997	1.791	-5.2129998	-8.5909996
109	1	2	-0.67525297	3.678	-2.5220001	-7.1929998
110	1	3	0.40213799	4.6370001	-2.26	-7.1890001
111	1	8	0.138937	5.1129999	-3.0970001	-9.3859997
112	1	8	0.138937	4.027	-4.3800001	-9.9890003
113	1	6	-0.73715597	2.915	-1.319	-9.566
114	1	10	0.32047299	3.3	-3.425	-12.023
115	1	7	0.052942999	2.7609999	-0.55400002	-12.171
116	1	7	0.052942999	1.217	-1.46	-11.931
117	1	8	0.086236998	1.696	-2.8280001	-13.977
118	1	8	0.086236998	3.2980001	-2.059	-14.132
119	1	8	0.085087001	2.26	0.18000001	-14.498
120	1	8	0.085087001	1.837	-1.018	-15.756
121	1	8	0.085087001	-0.059999999	0.442	-15.083
122	1	8	0.085087001	-0.0080000004	-0.17299999	-13.408
123	1	8	0.086236998	-0.48500001	-1.939	-15.919
124	1	8	0.086236998	-0.54100001	-2.4790001	-14.207
125	1	7	0.054216001	-2.813	-2.2079999	-14.87
126	1	7	0.054216001	-2.447	-0.83499998	-13.778
127	1	1	0.134349	-0.579	-0.015	-19.365999
128	1	2	-0.704229	-0.26699999	1.322	-19.063999
129	1	3	0.40612701	-0.73500001	1.8970001	-19.725
130	1	1	0.087715	-2.0910001	-0.264	-19.211
131	1	4	-0.49124399	-2.5369999	0.098999999	-17.905001
132	1	5	0.78262401	-2.303	-0.68099999	-16.768999
133	1	6	-0.61738598	-1.6800001	-1.776	-16.844999
134	1	7	0.098580003	-2.335	-1.331	-19.409
135	1	7	0.098580003	-2.6440001	0.35100001	-19.952999
136	1	7	0.091931999	-0.037999999	-0.65899998	-18.639999
137	1	1	0.042727999	-0.090000004	-0.37200001	-20.780001
138	1	4	-0.48106301	-0.303	-1.747	-21.051001
139	1	1	0.077918001	0.85299999	-2.516	-20.777
140	1	1	-0.158933	1.697	-2.6719999	-22.051001
141	1	1	-0.138945	2.924	-3.5840001	-21.84
142	1	1	-0.138945	2.7539999	-4.9899998	-22.441
143	1	1	-0.158933	1.7260001	-5.842	-21.681999
144	1	1	0.077894002	1.6919999	-7.2779999	-22.207001
145	1	4	-0.483208	1.193	-7.2860003	-23.528
146	1	1	0.082704	1.327	-8.5780001	-24.080999
147	1	1	0.154909	0.60600001	-8.6380005	-25.431999
148	1	1	0.090971	-0.91799998	-8.5439997	-25.236
149	1	2	-0.68181998	-1.569	-8.4119997	-26.472
150	1	3	0.38532999	-1.77	-9.3290005	-26.792999
151	1	7	0.08788	-1.293	-9.4370003	-24.684
152	1	7	0.08788	-1.163	-7.6479998	-24.624001
153	1	4	-0.49809599	0.94599998	-9.8690004	-26.073999
154	1	5	0.777713	0.94700003	-10.049	-27.459999
155	1	6	-0.62595499	0.704	-9.092	-28.243999
156	1	7	0.099633001	0.958	-7.7789998	-26.045
157	1	7	0.086694002	0.90399998	-9.3610001	-23.409
158	1	7	0.086694002	2.405	-8.7989998	-24.252001
159	1	7	0.076228	1.021	-7.8719997	-21.546
160	1	7	0.076228	2.7189999	-7.7080002	-22.152
161	1	8	0.091418996	0.713	-5.402	-21.792999
162	1	8	0.091418996	1.987	-5.862	-20.601999
163	1	8	0.086262003	2.464	-4.9070001	-23.511999
164	1	8	0.086262003	3.7420001	-5.4990001	-22.402
165	1	8	0.086262003	3.1949999	-3.6600001	-20.764
166	1	8	0.086262003	3.7950001	-3.1129999	-22.347
167	1	8	0.091418996	2.0539999	-1.664	-22.357
168	1	8	0.091418996	1.056	-3.052	-22.877001
169	1	7	0.076228	1.47	-2.098	-19.945999
170	1	7	0.076228	0.51599997	-3.516	-20.436001
171	1	7	0.088249996	-0.66900003	0.21699999	-21.523001
172	1	7	0.088249996	0.97299999	-0.057999998	-20.905001
173	1	9	-0.467778	14.019	-7.473	-13.983
174	1	10	0.324011	13.339	-8.1929998	-13.647
175	1	1	0.024191	13.633	-7.0310001	-15.323
176	1	1	-0.145218	13.886	-8.1049995	-16.398001
177	1	1	-0.143075	12.889	-9.2729998	-16.315001
178	1	1	-0.143075	13.214	-10.405	-17.309999
179	1	1	-0.14449599	13.082	-10.023	-18.795
180	1	1	0.016965	11.637	-9.7049999	-19.207001
181	1	9	-0.490293	11.537	-9.5249996	-20.655001
182	1	5	0.73328298	10.268	-9.3850002	-21.308001
183	1	1	-0.22523201	10.203	-9.2690001	-22.811001
184	1	1	0.16275699	9.1400003	-8.2539997	-23.318001
185	1	1	-0.22523201	9.2049999	-8.1809998	-24.872
186	1	5	0.73328298	8.0889997	-7.3899999	-25.507999
187	1	9	-0.490293	7.77	-7.612	-26.888
188	1	1	0.016965	6.671	-6.9260001	-27.568001
189	1	1	-0.14449599	5.3130002	-7.4970002	-27.141001
190	1	1	-0.143075	5.1599998	-8.9709997	-27.540001
191	1	1	-0.143075	3.7739999	-9.5059996	-27.156
192	1	1	-0.145218	3.619	-10.977	-27.565001
193	1	1	0.024191	2.2839999	-11.575	-27.103001
194	1	9	-0.46900001	1.168	-11.01	-27.858999
195	1	10	0.324011	0.32499999	-11.599	-27.67
196	1	7	0.054216001	2.3180001	-12.672	-27.277
197	1	7	0.054216001	2.138	-11.406	-26.013
198	1	8	0.086236998	4.4400001	-11.569	-27.105
199	1	8	0.086236998	3.7059999	-11.074	-28.67
200	1	8	0.085087001	3.6370001	-9.4119997	-26.056
201	1	8	0.085087001	2.9990001	-8.8940001	-27.666
202	1	8	0.085087001	5.9390001	-9.5749998	-27.025999
203	1	8	0.085087001	5.3010001	-9.0719995	-28.638
204	1	8	0.086236998	4.513	-6.9000001	-27.632
205	1	8	0.086236998	5.1890001	-7.3899999	-26.041
206	1	7	0.052942999	6.71	-5.8389997	-27.339001
207	1	7	0.052942999	6.7880001	-7.0409999	-28.667999
208	1	10	0.32047299	8.3699999	-8.2609997	-27.448
209	1	6	-0.73715597	7.4710002	-6.506	-24.851999
210	1	8	0.138937	9.1610003	-9.2139997	-25.282
211	1	8	0.138937	10.175	-7.7480001	-25.200001
212	1	5	0.69237298	9.4449997	-6.8839998	-22.725
213	1	9	-0.492816	8.5559998	-6.2589998	-21.784
214	1	1	0.017549001	8.8789997	-4.9639997	-21.184999
215	1	1	-0.14449599	7.7270002	-4.4689999	-20.299
216	1	1	-0.140582	7.9710002	-3.059	-19.737
217	1	1	-0.146294	8.9919996	-3.052	-18.586
218	1	1	-0.139009	9.2600002	-1.638	-18.047001
219	1	1	-0.12624501	8.0699997	-1.056	-17.284
220	1	8	0.050941002	7.7090001	-1.77	-16.514999
221	1	8	0.050941002	8.3809996	-0.121	-16.773001
222	1	8	0.050941002	7.2420001	-0.81099999	-17.98
223	1	8	0.074946001	9.5380001	-0.95700002	-18.879999
224	1	8	0.074946001	10.126	-1.688	-17.351999
225	1	8	0.085207	9.9589996	-3.46	-18.947001
226	1	8	0.085207	8.6350002	-3.7079999	-17.761
227	1	8	0.085087001	6.9990001	-2.675	-19.363001
228	1	8	0.085087001	8.309	-2.382	-20.552
229	1	8	0.086236998	7.5559998	-5.1880002	-19.468
230	1	8	0.086236998	6.8010001	-4.4380002	-20.916
231	1	7	0.052942999	9.8059998	-5.0710001	-20.584
232	1	7	0.052942999	9.0620003	-4.224	-21.995001
233	1	10	0.318351	7.665	-6.7350001	-21.518
234	1	6	-0.72855997	10.516	-6.3000002	-23.049999
235	1	2	-0.67525297	7.8520002	-8.6759996	-22.926001
236	1	3	0.40213799	7.6919999	-9.5760002	-23.313999
237	1	8	0.138937	9.9829998	-10.279	-23.219999
238	1	8	0.138937	11.203	-8.974	-23.197001
239	1	6	-0.73715597	9.2040005	-9.4320002	-20.632
240	1	10	0.32047299	12.404	-9.5270004	-21.239
241	1	7	0.052942999	10.979	-10.544	-18.896999
242	1	7	0.052942999	11.293	-8.7749996	-18.708
243	1	8	0.086236998	13.746	-9.1700001	-19.044001
244	1	8	0.086236998	13.434	-10.89	-19.396999
245	1	8	0.085087001	12.542	-11.268	-17.098
246	1	8	0.085087001	14.255	-10.756	-17.125
247	1	8	0.085087001	12.927	-9.7159996	-15.298
248	1	8	0.085087001	11.853	-8.9040003	-16.471001
249	1	8	0.086236998	14.927999	-8.4849997	-16.313999
250	1	8	0.086236998	13.784	-7.6110001	-17.386999
251	1	7	0.054216001	14.229	-6.1279998	-15.576
252	1	7	0.054216001	12.561	-6.7329998	-15.324
253	1	1	0.134349	16.778999	-10.49	-13.46
254	1	2	-0.704229	15.795	-11.295	-12.861
255	1	3	0.40612701	16.045	-11.417	-11.908
256	1	1	0.087715	16.808001	-9.0970001	-12.805
257	1	4	-0.49124399	15.521	-8.4820004	-12.856
258	1	5	0.78262401	14.987	-7.914	-14.017
259	1	6	-0.61738598	15.636	-7.9070001	-15.1
260	1	7	0.098580003	17.556999	-8.4429998	-13.305
261	1	7	0.098580003	17.105	-9.1949997	-11.739
262	1	7	0.091931999	16.511	-10.371	-14.532
263	1	1	0.042727999	18.153	-11.178	-13.384
264	1	4	-0.48106301	19.129999	-10.423	-14.08
265	1	1	0.077918001	19.299999	-10.89	-15.406
266	1	1	-0.158933	20.441	-11.916	-15.461
267	1	1	-0.138945	20.740999	-12.392	-16.899
268	1	1	-0.138945	22.011	-11.766	-17.5
269	1	1	-0.158933	21.851	-10.269	-17.802
270	1	1	0.077894002	23.072001	-9.7130003	-18.538
271	1	4	-0.483208	24.194	-9.743	-17.679001
272	1	1	0.082704	25.357	-9.4029999	-18.403
273	1	1	0.154909	26.535	-9.2379999	-17.437
274	1	1	0.090971	26.343	-7.9889998	-16.558001
275	1	2	-0.68181998	27.319	-7.9369998	-15.552
276	1	3	0.38532999	28.09	-7.4330001	-15.922
277	1	7	0.08788	26.370001	-7.0669999	-17.184999
278	1	7	0.08788	25.347	-8.0270004	-16.065001
279	1	4	-0.49809599	27.737	-9.1230001	-18.202
280	1	5	0.777713	28.999001	-9.4949999	-17.729
281	1	6	-0.62595499	29.142	-10.025	-16.594
282	1	7	0.099633001	26.577999	-10.145	-16.792999
283	1	7	0.086694002	25.224001	-8.4569998	-18.978001
284	1	7	0.086694002	25.604	-10.222	-19.117001
285	1	7	0.076228	22.85	-8.6630001	-18.832001
286	1	7	0.076228	23.243	-10.314	-19.461
287	1	8	0.091418996	21.721001	-9.7030001	-16.857
288	1	8	0.091418996	20.951	-10.112	-18.436001
289	1	8	0.086262003	22.868999	-11.927	-16.812
290	1	8	0.086262003	22.238001	-12.302	-18.448
291	1	8	0.086262003	19.874001	-12.217	-17.573999
292	1	8	0.086262003	20.896999	-13.493	-16.872999
293	1	8	0.091418996	20.146	-12.798	-14.852
294	1	8	0.091418996	21.351	-11.486	-14.987
295	1	7	0.076228	18.365999	-11.318	-15.842
296	1	7	0.076228	19.561001	-10.017	-16.037001
297	1	7	0.088249996	18.466999	-11.244	-12.32
298	1	7	0.088249996	18.072001	-12.23	-13.742
299	1	9	-0.467778	16.080999	-16.85	-29.483999
300	1	10	0.324011	16.201	-15.839	-29.719
301	1	1	0.024191	16.973	-17.197001	-28.377001
302	1	1	-0.145218	18.455	-17.233	-28.797001
303	1	1	-0.143075	19.035	-15.83	-29.042
304	1	1	-0.143075	20.479	-15.868	-29.579
305	1	1	-0.14449599	21.521999	-16.438999	-28.601
306	1	1	0.016965	21.716	-15.564	-27.354
307	1	9	-0.490293	22.837	-16.049999	-26.548
308	1	5	0.73328298	23.329	-15.31	-25.423
309	1	1	-0.22523201	24.528999	-15.811	-24.658001
310	1	1	0.16275699	24.419001	-15.617	-23.118999
311	1	1	-0.22523201	25.684	-16.219	-22.438
312	1	5	0.73328298	25.806	-15.915	-20.966
313	1	9	-0.490293	27.091	-16.004999	-20.334999
314	1	1	0.016965	27.306	-15.677999	-18.926001
315	1	1	-0.14449599	27.278	-14.161	-18.698
316	1	1	-0.143075	28.416	-13.449	-19.443001
317	1	1	-0.143075	28.405001	-11.943	-19.156
318	1	1	-0.145218	29.549999	-11.233	-19.893999
319	1	1	0.024191	29.507	-9.7110004	-19.712999
320	1	9	-0.46900001	29.851999	-9.3360004	-18.344
321	1	10	0.324011	30.027	-8.3039999	-18.33
322	1	7	0.054216001	30.247999	-9.2600002	-20.408001
323	1	7	0.054216001	28.502001	-9.3140001	-19.981001
324	1	8	0.086236998	29.472	-11.454	-20.98
325	1	8	0.086236998	30.528	-11.622	-19.535
326	1	8	0.085087001	27.433001	-11.514	-19.485001
327	1	8	0.085087001	28.513	-11.784	-18.061001
328	1	8	0.085087001	28.299999	-13.613	-20.537001
329	1	8	0.085087001	29.391001	-13.877	-19.122999
330	1	8	0.086236998	27.379	-13.97	-17.607
331	1	8	0.086236998	26.299	-13.75	-19.025999
332	1	7	0.052942999	26.524	-16.165001	-18.304001
333	1	7	0.052942999	28.291	-16.08	-18.599001
334	1	10	0.32047299	27.903	-16.357	-20.891001
335	1	6	-0.73715597	24.785	-15.631	-20.281
336	1	8	0.138937	26.591	-15.814	-22.941999
337	1	8	0.138937	25.709999	-17.322001	-22.573
338	1	5	0.69237298	23.174	-16.336	-22.618999
339	1	9	-0.492816	22.058001	-15.613	-22.072001
340	1	1	0.017549001	20.847	-16.309	-21.636
341	1	1	-0.14449599	19.853001	-15.327	-21
342	1	1	-0.140582	18.612	-16.028	-20.423
343	1	1	-0.146294	17.625	-16.474001	-21.516001
344	1	1	-0.139009	16.400999	-17.204	-20.941
345	1	1	-0.12624501	15.462	-16.275	-20.17
346	1	8	0.050941002	15.211	-15.38	-20.775999
347	1	8	0.050941002	14.522	-16.815001	-19.934999
348	1	8	0.050941002	15.927	-15.957	-19.214001
349	1	8	0.074946001	16.726999	-18.037001	-20.281
350	1	8	0.074946001	15.831	-17.648001	-21.785
351	1	8	0.085207	18.135	-17.174999	-22.209999
352	1	8	0.085207	17.294001	-15.593	-22.108999
353	1	8	0.085087001	18.104	-15.307	-19.747999
354	1	8	0.085087001	18.923	-16.900999	-19.809
355	1	8	0.086236998	19.547001	-14.563	-21.749001
356	1	8	0.086236998	20.368	-14.799	-20.167
357	1	7	0.052942999	20.386	-16.806	-22.514999
358	1	7	0.052942999	21.122999	-17.086	-20.889999
359	1	10	0.318351	22.107	-14.573	-21.987
360	1	6	-0.72855997	23.113001	-17.594	-22.711
361	1	2	-0.67525297	24.34	-14.241	-22.816
362	1	3	0.40213799	25.157	-13.8	-23.17
363	1	8	0.138937	25.424	-15.276	-25.041
364	1	8	0.138937	24.677999	-16.891001	-24.879999
365	1	6	-0.73715597	22.802999	-14.205	-25.118
366	1	10	0.32047299	23.315001	-16.943001	-26.809
367	1	7	0.052942999	21.922001	-14.52	-27.672001
368	1	7	0.052942999	20.798	-15.576	-26.73
369	1	8	0.086236998	21.257	-17.475	-28.302
370	1	8	0.086236998	22.492001	-16.499001	-29.141001
371	1	8	0.085087001	20.780001	-14.833	-29.863001
372	1	8	0.085087001	20.497999	-16.476	-30.511999
373	1	8	0.085087001	18.42	-15.307	-29.805
374	1	8	0.085087001	18.981001	-15.225	-28.112
375	1	8	0.086236998	18.575001	-17.860001	-29.707001
376	1	8	0.086236998	19.018999	-17.719	-27.973
377	1	7	0.054216001	16.686001	-18.204	-28.002001
378	1	7	0.054216001	16.829	-16.479	-27.540001
379	1	1	0.134349	17.237	-17.431999	-33.396999
380	1	2	-0.704229	17.187	-16.045	-33.625999
381	1	3	0.40612701	16.448	-15.873	-34.266998
382	1	1	0.087715	15.931	-17.919001	-32.744999
383	1	4	-0.49124399	15.659	-17.197001	-31.544001
384	1	5	0.78262401	16.334999	-17.427999	-30.341
385	1	6	-0.61738598	17.23	-18.313	-30.253
386	1	7	0.098580003	15.984	-19.009001	-32.526001
387	1	7	0.098580003	15.084	-17.757999	-33.446999
388	1	7	0.091931999	18.077	-17.627001	-32.696999
389	1	1	0.042727999	17.525999	-18.179001	-34.710999
390	1	4	-0.48106301	17.684999	-19.566999	-34.472
391	1	1	0.077918001	19.049999	-19.914	-34.32
392	1	1	-0.158933	19.636	-20.351999	-35.669998
393	1	1	-0.138945	21.097	-20.837	-35.553001
394	1	1	-0.138945	21.242001	-22.367001	-35.616001
395	1	1	-0.158933	20.686001	-23.07	-34.368999
396	1	1	0.077894002	20.983	-24.570999	-34.393002
397	1	4	-0.483208	20.261	-25.177999	-35.444
398	1	1	0.082704	20.666	-26.523001	-35.587002
399	1	1	0.154909	19.747	-27.235001	-36.584999
400	1	1	0.090971	18.334	-27.4	-35.997002
401	1	2	-0.68181998	17.445	-27.879999	-36.970001
402	1	3	0.38532999	17.471001	-28.871	-36.921001
403	1	7	0.08788	18.360001	-28.079	-35.112999
404	1	7	0.08788	17.955999	-26.414	-35.647999
405	1	4	-0.49809599	20.309	-28.514999	-36.886002
406	1	5	0.777713	20.093	-29.195	-38.088001
407	1	6	-0.62595499	19.427	-28.676001	-39.022999
408	1	7	0.099633001	19.698	-26.614	-37.507
409	1	7	0.086694002	20.636999	-27.068001	-34.613998
410	1	7	0.086694002	21.705999	-26.556999	-35.984001
411	1	7	0.076228	20.663	-25.003	-33.417999
412	1	7	0.076228	22.080999	-24.719999	-34.507
413	1	8	0.091418996	19.587	-22.929001	-34.313
414	1	8	0.091418996	21.146	-22.629999	-33.458
415	1	8	0.086262003	20.738001	-22.754999	-36.528
416	1	8	0.086262003	22.325001	-22.603001	-35.708
417	1	8	0.086262003	21.582001	-20.445999	-34.631001
418	1	8	0.086262003	21.67	-20.417	-36.408001
419	1	8	0.091418996	19.607	-19.482	-36.361
420	1	8	0.091418996	18.99	-21.139999	-36.118
421	1	7	0.076228	19.663	-19.096001	-33.873001
422	1	7	0.076228	19.101999	-20.761	-33.605999
423	1	7	0.088249996	16.663	-18.049	-35.398998
424	1	7	0.088249996	18.399	-17.718	-35.228001
425	1	9	-0.467778	34.155998	-19.059	-30.43
426	1	10	0.324011	33.803001	-19.728001	-29.708
427	1	1	0.024191	33.401001	-19.243	-31.67
428	1	1	-0.145218	33.750999	-20.559999	-32.388
429	1	1	-0.143075	33.186001	-21.796	-31.665001
430	1	1	-0.143075	33.634998	-23.121	-32.312
431	1	1	-0.14449599	33.106998	-23.360001	-33.738998
432	1	1	0.016965	31.583	-23.532	-33.792999
433	1	9	-0.490293	31.152	-23.933001	-35.132999
434	1	5	0.73328298	29.798	-24.32	-35.402
435	1	1	-0.22523201	29.409	-24.791	-36.780998
436	1	1	0.16275699	28.013	-24.288	-37.247002
437	1	1	-0.22523201	27.749001	-24.790001	-38.696999
438	1	5	0.73328298	26.344999	-24.551001	-39.195999
439	1	9	-0.490293	25.844999	-25.334	-40.286999
440	1	1	0.016965	24.481001	-25.202	-40.797001
441	1	1	-0.14449599	23.466	-25.846001	-39.842999
442	1	1	-0.143075	23.688999	-27.358999	-39.707001
443	1	1	-0.143075	22.629999	-27.990999	-38.794998
444	1	1	-0.145218	22.846001	-29.506001	-38.667999
445	1	1	0.024191	21.868999	-30.156	-37.681
446	1	9	-0.46900001	20.51	-30.165001	-38.217999
447	1	10	0.324011	19.936001	-30.805	-37.622002
448	1	7	0.054216001	22.195999	-31.204	-37.509998
449	1	7	0.054216001	21.893999	-29.627001	-36.702
450	1	8	0.086236998	23.879999	-29.695	-38.305
451	1	8	0.086236998	22.740999	-29.988001	-39.665001
452	1	8	0.085087001	22.688	-27.525	-37.786999
453	1	8	0.085087001	21.622999	-27.794001	-39.222
454	1	8	0.085087001	24.698	-27.547001	-39.279999
455	1	8	0.085087001	23.636	-27.830999	-40.712002
456	1	8	0.086236998	22.445	-25.66	-40.242001
457	1	8	0.086236998	23.534	-25.365	-38.842999
458	1	7	0.052942999	24.235001	-24.127001	-40.937
459	1	7	0.052942999	24.409	-25.693001	-41.793999
460	1	10	0.32047299	26.490999	-26.002001	-40.768002
461	1	6	-0.73715597	25.632	-23.638	-38.695
462	1	8	0.138937	27.938	-25.886	-38.738998
463	1	8	0.138937	28.461	-24.316	-39.408001
464	1	5	0.69237298	28.003	-22.766001	-37.219002
465	1	9	-0.492816	27.169001	-22.038	-36.301998
466	1	1	0.017549001	27.198999	-20.576	-36.250999
467	1	1	-0.14449599	26.148001	-20.042	-35.268002
468	1	1	-0.140582	26.062	-18.507	-35.263
469	1	1	-0.146294	27.238001	-17.854	-34.514999
470	1	1	-0.139009	27.17	-16.319	-34.539001
471	1	1	-0.12624501	26.032	-15.76	-33.682999
472	1	8	0.050941002	26.059	-16.194	-32.662998
473	1	8	0.050941002	26.142	-14.659	-33.598
474	1	8	0.050941002	25.049	-15.974	-34.151001
475	1	8	0.074946001	27.062	-15.957	-35.584999
476	1	8	0.074946001	28.128	-15.92	-34.143002
477	1	8	0.085207	28.193001	-18.152	-34.995998
478	1	8	0.085207	27.261999	-18.214001	-33.463001
479	1	8	0.085087001	25.111	-18.226	-34.762001
480	1	8	0.085087001	26.016001	-18.129	-36.307999
481	1	8	0.086236998	26.365999	-20.417	-34.243999
482	1	8	0.086236998	25.153	-20.441	-35.57
483	1	7	0.052942999	28.214001	-20.250999	-35.939999
484	1	7	0.052942999	26.99	-20.172001	-37.265999
485	1	10	0.318351	26.531	-22.556999	-35.657001
486	1	6	-0.72855997	28.764	-22.132	-38.001999
487	1	2	-0.67525297	27.014	-24.796	-36.390999
488	1	3	0.40213799	27.058001	-25.789	-36.418999
489	1	8	0.138937	29.427	-25.902	-36.778999
490	1	8	0.138937	30.18	-24.457001	-37.511002
491	1	6	-0.73715597	28.951	-24.334999	-34.467999
492	1	10	0.32047299	31.849001	-23.969	-35.911999
493	1	7	0.052942999	31.280001	-24.313999	-33.063999
494	1	7	0.052942999	31.079	-22.579	-33.528
495	1	8	0.086236998	33.423	-22.541	-34.418999
496	1	8	0.086236998	33.578999	-24.292999	-34.118999
497	1	8	0.085087001	33.306999	-23.962999	-31.660999
498	1	8	0.085087001	34.749001	-23.148001	-32.337002
499	1	8	0.085087001	33.553001	-21.806999	-30.618
500	1	8	0.085087001	32.077999	-21.74	-31.621
501	1	8	0.086236998	34.854	-20.652	-32.494999
502	1	8	0.086236998	33.313999	-20.506001	-33.407001
503	1	7	0.054216001	33.637001	-18.396	-32.349998
504	1	7	0.054216001	32.311001	-19.201	-31.454
505	1	1	0.134349	37.740002	-21.002001	-29.823999
506	1	2	-0.704229	37.181	-21.714001	-28.749001
507	1	3	0.40612701	37.637001	-21.415001	-27.919001
508	1	1	0.087715	37.477001	-19.493	-29.667
509	1	4	-0.49124399	36.081001	-19.23	-29.531
510	1	5	0.78262401	35.186001	-19.264999	-30.605
511	1	6	-0.61738598	35.577999	-19.525999	-31.775999
512	1	7	0.098580003	37.883999	-18.931999	-30.537001
513	1	7	0.098580003	37.993	-19.121	-28.754999
514	1	7	0.091931999	37.245998	-21.353001	-30.754
515	1	1	0.042727999	39.244999	-21.304001	-29.938999
516	1	4	-0.48106301	39.794998	-20.676001	-31.084
517	1	1	0.077918001	39.834999	-21.556999	-32.192001
518	1	1	-0.158933	41.196999	-22.263	-32.255001
519	1	1	-0.138945	41.339001	-23.166	-33.499001
520	1	1	-0.138945	42.221001	-22.556999	-34.602001
521	1	1	-0.158933	41.563999	-21.351999	-35.291
522	1	1	0.077894002	42.393002	-20.865999	-36.480999
523	1	4	-0.483208	43.617001	-20.334	-36.016998
524	1	1	0.082704	44.459999	-20.052	-37.113998
525	1	1	0.154909	45.699001	-19.291	-36.627998
526	1	1	0.090971	45.317001	-17.875999	-36.16
527	1	2	-0.68181998	46.409	-17.245001	-35.544998
528	1	3	0.38532999	46.904999	-16.764999	-36.257999
529	1	7	0.08788	44.943001	-17.271999	-37.02
530	1	7	0.08788	44.493999	-17.937	-35.415001
531	1	4	-0.49809599	46.638	-19.219	-37.702999
532	1	5	0.777713	48.02	-19.110001	-37.523998
533	1	6	-0.62595499	48.534	-19.135	-36.373001
534	1	7	0.099633001	46.137001	-19.861	-35.778
535	1	7	0.086694002	43.939999	-19.440001	-37.887001
536	1	7	0.086694002	44.797001	-21.004999	-37.578999
537	1	7	0.076228	41.813999	-20.075001	-37.007
538	1	7	0.076228	42.553001	-21.718	-37.181999
539	1	8	0.091418996	41.457001	-20.514999	-34.570999
540	1	8	0.091418996	40.551998	-21.638	-35.653999
541	1	8	0.086262003	43.205002	-22.261999	-34.175999
542	1	8	0.086262003	42.409	-23.347	-35.362
543	1	8	0.086262003	40.346001	-23.444	-33.915001
544	1	8	0.086262003	41.820999	-24.118	-33.181
545	1	8	0.091418996	41.306	-22.893999	-31.346001
546	1	8	0.091418996	42.011002	-21.504	-32.220001
547	1	7	0.076228	39.006001	-22.305	-32.186001
548	1	7	0.076228	39.694	-20.948999	-33.108002
549	1	7	0.088249996	39.764999	-20.899	-29.044001
550	1	7	0.088249996	39.415001	-22.406	-29.916
551	1	9	-0.467778	35.870998	-32.884998	-42.193001
552	1	10	0.324011	35.632999	-32.034	-42.752998
553	1	1	0.024191	37.023998	-32.596001	-41.34
554	1	1	-0.145218	38.335999	-32.471001	-42.137001
555	1	1	-0.143075	38.409	-31.173	-42.959
556	1	1	-0.143075	39.664001	-31.101999	-43.849998
557	1	1	-0.14449599	41	-31.030001	-43.088001
558	1	1	0.016965	41.162998	-29.733	-42.282001
559	1	9	-0.490293	42.512001	-29.632999	-41.724998
560	1	5	0.73328298	42.967999	-28.440001	-41.075001
561	1	1	-0.22523201	44.389	-28.351999	-40.573002
562	1	1	0.16275699	44.528	-27.624001	-39.206001
563	1	1	-0.22523201	46.022999	-27.645	-38.768002
564	1	5	0.73328298	46.333	-26.794001	-37.562
565	1	9	-0.490293	47.682999	-26.368	-37.332001
566	1	1	0.016965	48.060001	-25.5	-36.217999
567	1	1	-0.14449599	47.624001	-24.051001	-36.470001
568	1	1	-0.143075	48.327	-23.445999	-37.693001
569	1	1	-0.143075	47.921001	-21.98	-37.893002
570	1	1	-0.145218	48.632999	-21.372	-39.110001