Title

193 atoms
206 bonds
341 angles
503 dihedrals
276 impropers

10 atom types
14 bond types
7 angle types
17 dihedral types
3 improper types
-22.20499992 77.79500008 xlo xhi
-3.348999977 96.65100002 ylo yhi
-4.025000095 95.9749999 zlo zhi
0.0 0.0 0.0 xy xz yz

Masses

1	14.00672
2	12.01078
3	1.007947
4	15.99943
5	12.01078
6	1.007947
7	18.998403
8	15.99943
9	15.99943
10	1.007947


Pair Coeffs

1	0.16769152	3.206876
2	0.086879315	3.4806469
3	0.015611343	2.5725815
4	0.16846514	3.0251065
5	0.10884061	3.3795318
6	0.014090815	1.1034277
7	0.061	3.1181455
8	0.2102061	3.0398122
9	0.20947353	2.99716
10	1.2326e-05	0.53453923

Bond Coeffs

1 harmonic	390.03554688505	1.390160554689
2 harmonic	505.144496193	1.019481865027
3 harmonic	422.7150220147	1.421786517481
4 harmonic	360.7852444772	1.387193227181
5 harmonic	397.2545789619	1.085358495916
6 harmonic	279.1350963404	1.454628925034
7 harmonic	425.69104206635	1.362945806494
8 harmonic	289.73813263395	1.498646816465
9 harmonic	264.62148576755	1.52190126495
10 harmonic	492.76746816345	1.381897776683
11 harmonic	340.45121009905	1.358690858053
12 harmonic	582.698766451	1.225198386222
13 harmonic	385.7604595587	1.369745182308
14 harmonic	543.5267831885	0.9716763312559


Angle Coeffs

1 harmonic	57.8982893754	126.8062420451
2 harmonic	55.42182150775	117.3465570514
3 harmonic	63.44422595415	115.5071327674
4 harmonic	34.066775159195	129.1835929926
5 harmonic	65.09061609600001	110.3538806181
6 harmonic	53.20531626545	116.5475862634
7 harmonic	201.41175231035	127.4691416191


Dihedral Coeffs

1 fourier 1	3.661930099076	2	180
2 fourier 1	1.193093382682	2	180
3 fourier 1	0.02021088501612	1	0
4 fourier 1	1.163235555439	2	180
5 fourier 1	1.532232714475	2	180
6 fourier 1	0.02664938770063	3	0
7 fourier 1	0.1155372516788	3	0
8 fourier 1	3.101948770557	2	180
9 fourier 1	-0.4252153282372	1	0
10 fourier 1	1.809047390003	2	180
11 fourier 1	-0.04816277792592	1	0
12 fourier 1	0.9974165607242	2	180
13 fourier 1	2.348375642009	2	180
14 fourier 1	1.256156174911	1	0
15 fourier 1	2.687457892086	2	180
16 fourier 1	2.772607909663	2	180
17 fourier 1	0.09692684957115	1	0


Improper Coeffs

1 0.3666666666666667	-1	2
2 0.3333333333333333	-1	2
3 3.5	-1	2


Atoms

1	1	1	-0.41210201	-13.347	3.1819999	0.139
2	1	2	0.12628099	-12.174	2.4000001	-0.1
3	1	2	-0.40702701	-11.19	2.8710001	-0.88
4	1	3	0.22114	-11.271	3.848	-1.339
5	1	2	-0.114635	-9.9700003	2.069	-1.1059999
6	1	3	0.20351601	-9.1750002	2.4949999	-1.706
7	1	2	-0.128319	-9.8339996	0.85299999	-0.53899997
8	1	2	-0.134545	-8.5880003	0.061000001	-0.71100003
9	1	2	-0.129803	-7.9549999	0.0060000001	-1.898
10	1	3	0.20680501	-8.3529997	0.514	-2.767
11	1	2	-0.296258	-6.6849999	-0.73100001	-2.033
12	1	3	0.223818	-6.1550002	-0.704	-2.977
13	1	2	0.328852	-6.1469998	-1.3559999	-0.97899997
14	1	4	-0.272282	-4.881	-1.934	-1.113
15	1	2	0.257936	-3.744	-1.443	-0.456
16	1	2	-0.27773601	-2.6400001	-2.1960001	-0.41299999
17	1	3	0.228085	-2.6329999	-3.174	-0.87599999
18	1	2	-0.152971	-1.431	-1.715	0.285
19	1	3	0.215664	-0.57200003	-2.3740001	0.317
20	1	2	-0.080962002	-1.391	-0.49200001	0.86500001
21	1	5	-0.26326799	-0.124	-0.046	1.638
22	1	2	-0.080962002	1.125	-0.31799999	0.76300001
23	1	2	-0.152971	2.3080001	-0.73000002	1.277
24	1	3	0.215664	2.4360001	-0.94499999	2.325
25	1	2	-0.27773601	3.497	-0.88700002	0.41800001
26	1	3	0.228085	4.4159999	-1.25	0.86000001
27	1	2	0.257936	3.438	-0.58700001	-0.889
28	1	4	-0.272282	4.553	-0.72100002	-1.729
29	1	2	0.328852	5.8800001	-0.447	-1.355
30	1	2	-0.296258	6.1700001	0.54699999	-0.498
31	1	3	0.223818	5.3850002	1.1619999	-0.078000002
32	1	2	-0.129803	7.5669999	0.84600002	-0.139
33	1	3	0.20680501	7.7589998	1.668	0.54000002
34	1	2	-0.134545	8.5760002	0.133	-0.66900003
35	1	2	-0.128319	9.9860001	0.43799999	-0.31099999
36	1	2	-0.12865201	10.961	0.38699999	-1.239
37	1	3	0.20351601	10.739	0.14	-2.2690001
38	1	2	-0.37512401	12.359	0.70099998	-0.88
39	1	3	0.217613	13.123	0.65700001	-1.646
40	1	2	0.198539	12.674	1.044	0.37900001
41	1	1	-0.532309	14.025	1.354	0.73000002
42	1	6	0.319296	14.789	1.317	0.018999999
43	1	2	-0.37512401	11.612	1.099	1.4069999
44	1	3	0.217613	11.86	1.365	2.427
45	1	2	-0.12865201	10.345	0.81099999	1.085
46	1	3	0.20351601	9.5869999	0.83600003	1.857
47	1	2	-0.057029001	8.2589998	-0.96399999	-1.622
48	1	3	0.205856	9.0719995	-1.549	-2.03
49	1	2	-0.32233599	6.9819999	-1.245	-1.957
50	1	5	0.76650298	6.6430001	-2.3570001	-2.9219999
51	1	7	-0.20826501	7.77	-3.0350001	-3.3559999
52	1	7	-0.20826501	5.8000002	-3.2620001	-2.3010001
53	1	7	-0.20826501	5.9990001	-1.825	-4.0250001
54	1	2	-0.27773601	2.161	-0.133	-1.4680001
55	1	3	0.228085	2.1070001	0.109	-2.5209999
56	1	2	-0.152971	1.08	0.013	-0.69300002
57	1	3	0.215664	0.16500001	0.37900001	-1.142
58	1	5	0.75267798	-0.122	-0.84299999	2.9890001
59	1	7	-0.201904	0.792	-0.32100001	3.888
60	1	7	-0.201904	-1.3710001	-0.78200001	3.5869999
61	1	7	-0.201904	0.184	-2.178	2.7750001
62	1	5	0.75267798	-0.115	1.4859999	1.951
63	1	7	-0.201904	-0.36300001	2.2219999	0.80500001
64	1	7	-0.201904	-1.062	1.812	2.9070001
65	1	7	-0.201904	1.1210001	1.874	2.4419999
66	1	2	-0.152971	-2.6329999	0.34	0.80800003
67	1	3	0.215664	-2.6830001	1.317	1.261
68	1	2	-0.27773601	-3.7290001	-0.104	0.182
69	1	3	0.228085	-4.6079998	0.52700001	0.14399999
70	1	2	-0.32233599	-6.8899999	-1.403	0.31799999
71	1	5	0.76650298	-6.3600001	-2.1860001	1.499
72	1	7	-0.20826501	-5.6339998	-3.2839999	1.074
73	1	7	-0.20826501	-7.3990002	-2.6470001	2.29
74	1	7	-0.20826501	-5.5479999	-1.374	2.266
75	1	2	-0.057029001	-8.0240002	-0.68699998	0.44100001
76	1	3	0.205856	-8.5389996	-0.64999998	1.393
77	1	2	-0.114635	-10.937	0.33000001	0.30899999
78	1	3	0.20351601	-10.863	-0.653	0.75599998
79	1	2	-0.40702701	-12.039	1.061	0.51700002
80	1	3	0.22114	-12.834	0.66799998	1.137
81	1	6	0.37255901	-13.455	4.1360002	-0.27399999
82	1	2	0.76749498	14.273	1.636	1.726
83	1	8	-0.65905398	15.483	1.632	2.0769999
84	1	2	-0.35444	13.203	2.02	2.665
85	1	2	-0.075520001	13.476	2.382	3.9319999
86	1	3	0.222415	14.494	2.402	4.302
87	1	2	-0.243991	12.383	2.7620001	4.849
88	1	3	0.21252701	12.613	3.052	5.8670001
89	1	2	-0.023490001	11.114	2.7490001	4.4260001
90	1	3	0.22191	10.324	3.0309999	5.1110001
91	1	2	-0.29352701	10.795	2.3529999	3.0320001
92	1	2	0.58746201	9.3999996	2.336	2.5569999
93	1	8	-0.52779102	8.4530001	2.6570001	3.323
94	1	2	0.055682998	11.794	2.0079999	2.2
95	1	3	0.23953401	11.577	1.716	1.179
96	1	1	-0.41210201	-14.107	2.819	0.755
97	1	2	0.12628099	-14.585	3.6010001	1.852
98	1	2	-0.40702701	-15.552	3.1300001	2.6530001
99	1	3	0.22114	-15.984	2.1530001	2.477
100	1	2	-0.114635	-16.028	3.9319999	3.799
101	1	3	0.20351601	-16.780001	3.5050001	4.4510002
102	1	2	-0.128319	-15.502	5.1479998	4.0500002
103	1	2	-0.134545	-15.929	5.9400001	5.2319999
104	1	2	-0.129803	-17.221001	5.9949999	5.6040001
105	1	3	0.20680501	-17.989	5.487	5.0339999
106	1	2	-0.296258	-17.618	6.7319999	6.8189998
107	1	3	0.223818	-18.650999	6.704	7.1399999
108	1	2	0.328852	-16.698999	7.3569999	7.5650001
109	1	4	-0.272282	-17.093	7.9349999	8.7749996
110	1	2	0.257936	-16.687	7.4429998	10.024
111	1	2	-0.27773601	-16.875	8.1969995	11.112
112	1	3	0.228085	-17.329	9.1750002	11.023
113	1	2	-0.152971	-16.444	7.7160001	12.44
114	1	3	0.215664	-16.591	8.375	13.287
115	1	2	-0.080962002	-15.885	6.493	12.6
116	1	5	-0.26326799	-15.392	6.0469999	14
117	1	2	-0.080962002	-16.507999	6.3179998	15.04
118	1	2	-0.152971	-16.250999	6.7309999	16.302999
119	1	3	0.215664	-15.253	6.9460001	16.646999
120	1	2	-0.27773601	-17.339001	6.888	17.288
121	1	3	0.228085	-17.098	7.25	18.278
122	1	2	0.257936	-18.605	6.5879998	16.958
123	1	4	-0.272282	-19.658001	6.7220001	17.874001
124	1	2	0.328852	-19.569	6.448	19.249001
125	1	2	-0.296258	-18.791	5.4530001	19.712
126	1	3	0.223818	-18.216999	4.8390002	19.031
127	1	2	-0.129803	-18.73	5.1550002	21.153
128	1	3	0.20680501	-18.106001	4.3330002	21.482
129	1	2	-0.134545	-19.459	5.868	22.030001
130	1	2	-0.128319	-19.402	5.5619998	23.483
131	1	2	-0.077999003	-20.513	5.6139998	24.243999
132	1	3	0.20351601	-21.474001	5.8610001	23.812
133	1	2	-0.45116901	-20.452	5.2989998	25.687
134	1	3	0.229651	-21.360001	5.3439999	26.275
135	1	2	0.31772399	-19.287001	4.9569998	26.256001
136	1	1	-0.844877	-19.224001	4.6459999	27.650999
137	1	6	0.36603099	-18.318001	4.3699999	28.091999
138	1	6	0.36603099	-20.077999	4.684	28.25
139	1	2	-0.45116901	-18.059999	4.902	25.431
140	1	3	0.229651	-17.114	4.6360002	25.886
141	1	2	-0.077999003	-18.111	5.1900001	24.125
142	1	3	0.20351601	-17.198	5.165	23.544001
143	1	2	-0.057029001	-20.325001	6.9650002	21.521
144	1	3	0.205856	-20.893	7.5500002	22.232
145	1	2	-0.32233599	-20.386999	7.2449999	20.202999
146	1	5	0.76650298	-21.26	8.3579998	19.67
147	1	7	-0.20826501	-21.919001	9.0360003	20.681999
148	1	7	-0.20826501	-20.478001	9.2629995	18.975
149	1	7	-0.20826501	-22.205	7.8249998	18.811001
150	1	2	-0.27773601	-18.905001	6.1329999	15.589
151	1	3	0.228085	-19.924999	5.8920002	15.317
152	1	2	-0.152971	-17.923	5.9879999	14.693
153	1	3	0.215664	-18.172001	5.6220002	13.705
154	1	5	0.75267798	-14.072	6.8439999	14.283
155	1	7	-0.201904	-13.382	6.322	15.364
156	1	7	-0.201904	-13.226	6.783	13.186
157	1	7	-0.201904	-14.345	8.1789999	14.538
158	1	5	0.75267798	-15.088	4.5149999	14.074
159	1	7	-0.201904	-16.158001	3.779	13.593
160	1	7	-0.201904	-13.956	4.1880002	13.347
161	1	7	-0.201904	-14.865	4.1269999	15.385
162	1	2	-0.152971	-15.682	5.6609998	11.373
163	1	3	0.215664	-15.229	4.684	11.419
164	1	2	-0.27773601	-16.066999	6.105	10.171
165	1	3	0.228085	-15.921	5.474	9.3039999
166	1	2	-0.32233599	-15.276	7.4039998	7.1079998
167	1	5	0.76650298	-14.231	8.1870003	7.8720002
168	1	7	-0.20826501	-14.798	9.2849998	8.493
169	1	7	-0.20826501	-13.241	8.6479998	7.0190001
170	1	7	-0.20826501	-13.65	7.3740001	8.8260002
171	1	2	-0.057029001	-14.919	6.6880002	6.0240002
172	1	3	0.205856	-13.881	6.6500001	5.7179999
173	1	2	-0.114635	-14.443	5.671	3.148
174	1	3	0.20351601	-14.02	6.6539998	3.313
175	1	2	-0.40702701	-14.01	4.9400001	2.1129999
176	1	3	0.22114	-13.238	5.3330002	1.464
177	1	6	0.37255901	-14.489	1.865	0.56300002
178	1	2	0.58746201	9.1739998	2.046	1.539
179	1	8	-0.52779102	9.6599998	2.7190001	0.59100002
180	1	2	-0.289022	8.3079996	0.87900001	1.286
181	1	2	-0.023490001	8.0050001	0.48699999	0.035
182	1	3	0.22191	8.3879995	1.0190001	-0.82599998
183	1	2	-0.245142	7.1360002	-0.685	-0.186
184	1	3	0.21252701	6.8969998	-0.99199998	-1.196
185	1	2	-0.061358001	6.645	-1.3660001	0.85500002
186	1	3	0.23286501	6.0089998	-2.223	0.67299998
187	1	2	-0.218824	6.9679999	-0.95099998	2.244
188	1	2	0.83848	6.4169998	-1.714	3.385
189	1	8	-0.48887101	6.6799998	-1.377	4.572
190	1	9	-0.66545802	5.599	-2.8169999	3.1559999
191	1	10	0.41748399	5.2150002	-3.349	3.928
192	1	2	0.072393	7.7620001	0.121	2.4389999
193	1	3	0.249603	8.0120001	0.44400001	3.4419999

Bonds

1	1	1	2
2	2	1	81
3	3	1	96
4	4	2	3
5	4	2	79
6	5	3	4
7	4	3	5
8	5	5	6
9	4	5	7
10	6	7	8
11	4	7	77
12	4	8	9
13	4	8	75
14	5	9	10
15	4	9	11
16	5	11	12
17	4	11	13
18	7	13	14
19	4	13	70
20	7	14	15
21	4	15	16
22	4	15	68
23	5	16	17
24	4	16	18
25	5	18	19
26	4	18	20
27	8	20	21
28	4	20	66
29	8	21	22
30	9	21	58
31	9	21	62
32	4	22	23
33	4	22	56
34	5	23	24
35	4	23	25
36	5	25	26
37	4	25	27
38	7	27	28
39	4	27	54
40	7	28	29
41	4	29	30
42	4	29	49
43	5	30	31
44	4	30	32
45	5	32	33
46	4	32	34
47	6	34	35
48	4	34	47
49	4	35	36
50	4	35	45
51	5	36	37
52	4	36	38
53	5	38	39
54	4	38	40
55	1	40	41
56	4	40	43
57	2	41	42
58	10	41	82
59	5	43	44
60	4	43	45
61	5	45	46
62	5	47	48
63	4	47	49
64	8	49	50
65	11	50	51
66	11	50	52
67	11	50	53
68	5	54	55
69	4	54	56
70	5	56	57
71	11	58	59
72	11	58	60
73	11	58	61
74	11	62	63
75	11	62	64
76	11	62	65
77	5	66	67
78	4	66	68
79	5	68	69
80	8	70	71
81	4	70	75
82	11	71	72
83	11	71	73
84	11	71	74
85	5	75	76
86	5	77	78
87	4	77	79
88	5	79	80
89	12	82	83
90	6	82	84
91	4	84	85
92	4	84	94
93	5	85	86
94	4	85	87
95	5	87	88
96	4	87	89
97	5	89	90
98	4	89	91
99	6	91	92
100	4	91	94
101	12	92	93
102	6	92	178
103	5	94	95
104	1	96	97
105	2	96	177
106	4	97	98
107	4	97	175
108	5	98	99
109	4	98	100
110	5	100	101
111	4	100	102
112	6	102	103
113	4	102	173
114	4	103	104
115	4	103	171
116	5	104	105
117	4	104	106
118	5	106	107
119	4	106	108
120	7	108	109
121	4	108	166
122	7	109	110
123	4	110	111
124	4	110	164
125	5	111	112
126	4	111	113
127	5	113	114
128	4	113	115
129	8	115	116
130	4	115	162
131	8	116	117
132	9	116	154
133	9	116	158
134	4	117	118
135	4	117	152
136	5	118	119
137	4	118	120
138	5	120	121
139	4	120	122
140	7	122	123
141	4	122	150
142	7	123	124
143	4	124	125
144	4	124	145
145	5	125	126
146	4	125	127
147	5	127	128
148	4	127	129
149	6	129	130
150	4	129	143
151	4	130	131
152	4	130	141
153	5	131	132
154	4	131	133
155	5	133	134
156	4	133	135
157	1	135	136
158	4	135	139
159	2	136	137
160	2	136	138
161	5	139	140
162	4	139	141
163	5	141	142
164	5	143	144
165	4	143	145
166	8	145	146
167	11	146	147
168	11	146	148
169	11	146	149
170	5	150	151
171	4	150	152
172	5	152	153
173	11	154	155
174	11	154	156
175	11	154	157
176	11	158	159
177	11	158	160
178	11	158	161
179	5	162	163
180	4	162	164
181	5	164	165
182	8	166	167
183	4	166	171
184	11	167	168
185	11	167	169
186	11	167	170
187	5	171	172
188	5	173	174
189	4	173	175
190	5	175	176
191	12	178	179
192	6	178	180
193	4	180	181
194	4	180	192
195	5	181	182
196	4	181	183
197	5	183	184
198	4	183	185
199	5	185	186
200	4	185	187
201	6	187	188
202	4	187	192
203	12	188	189
204	13	188	190
205	14	190	191
206	5	192	193

Angles

1	1	118	117	152
2	5	122	123	124
3	4	128	127	129
4	1	29	30	32
5	4	7	77	78
6	4	35	36	37
7	1	100	102	103
8	6	49	50	51
9	4	34	47	48
10	3	1	96	177
11	1	71	70	75
12	1	13	70	75
13	3	135	136	137
14	4	22	23	24
15	1	41	40	43
16	1	36	38	40
17	1	18	20	66
18	6	72	71	73
19	4	15	68	69
20	4	20	66	67
21	4	19	18	20
22	1	109	110	164
23	4	110	164	165
24	4	180	192	193
25	4	86	85	87
26	3	81	1	96
27	4	33	32	34
28	6	166	167	168
29	4	124	125	126
30	1	29	49	50
31	4	119	118	120
32	4	84	94	95
33	4	186	185	187
34	1	178	180	181
35	4	181	183	184
36	6	116	154	157
37	1	167	166	171
38	1	85	87	89
39	6	63	62	64
40	4	163	162	164
41	4	6	5	7
42	6	22	21	58
43	6	21	62	63
44	7	189	188	190
45	4	15	16	17
46	4	111	113	114
47	4	22	56	57
48	4	29	30	31
49	6	155	154	157
50	1	3	5	7
51	1	98	97	175
52	1	110	164	162
53	1	16	18	20
54	6	145	146	147
55	3	97	96	177
56	4	140	139	141
57	6	73	71	74
58	1	30	32	34
59	4	125	127	128
60	4	36	38	39
61	1	34	35	45
62	1	185	187	188
63	4	35	45	46
64	1	111	110	164
65	1	14	13	70
66	1	91	92	178
67	1	108	166	171
68	1	92	178	180
69	4	122	150	151
70	1	2	79	77
71	4	166	171	172
72	6	154	116	158
73	5	13	14	15
74	1	100	102	173
75	1	115	162	164
76	1	28	29	30
77	1	1	2	3
78	1	8	7	77
79	1	116	115	162
80	1	25	27	28
81	4	4	3	5
82	1	27	54	56
83	1	22	56	54
84	1	125	124	145
85	4	10	9	11
86	1	7	8	9
87	6	147	146	149
88	1	91	92	93
89	1	180	181	183
90	1	9	11	13
91	1	8	75	70
92	4	135	139	140
93	1	38	40	41
94	1	28	27	54
95	4	162	164	165
96	1	13	70	71
97	6	116	158	161
98	6	117	116	158
99	4	31	30	32
100	1	103	104	106
101	4	12	11	13
102	1	40	43	45
103	4	91	94	95
104	1	35	45	43
105	1	187	188	190
106	4	184	183	185
107	1	83	82	84
108	1	93	92	178
109	1	102	103	104
110	1	14	15	68
111	4	16	18	19
112	6	21	58	61
113	1	116	117	152
114	1	102	103	171
115	1	25	27	54
116	1	89	91	92
117	4	44	43	45
118	1	23	25	27
119	1	84	94	91
120	1	183	185	187
121	1	117	118	120
122	1	32	34	35
123	4	17	16	18
124	1	136	135	139
125	1	104	103	171
126	1	97	98	100
127	4	107	106	108
128	1	92	178	179
129	1	8	9	11
130	5	27	28	29
131	1	28	29	49
132	4	115	162	163
133	6	70	71	73
134	1	9	8	75
135	1	84	85	87
136	4	27	54	55
137	1	18	20	21
138	4	118	120	121
139	6	147	146	148
140	3	40	41	42
141	4	139	141	142
142	6	51	50	53
143	1	21	20	66
144	6	59	58	61
145	1	5	7	8
146	4	2	79	80
147	1	92	91	94
148	6	159	158	161
149	1	87	89	91
150	3	42	41	82
151	1	116	117	118
152	1	130	131	133
153	4	103	104	105
154	4	173	175	176
155	1	123	122	150
156	4	40	43	44
157	1	110	111	113
158	6	168	167	170
159	2	40	41	82
160	1	35	34	47
161	1	108	166	167
162	4	150	152	153
163	4	174	173	175
164	1	11	13	14
165	1	129	130	131
166	6	148	146	149
167	1	181	180	192
168	4	23	25	26
169	4	183	185	186
170	1	36	35	45
171	6	52	50	53
172	4	151	150	152
173	4	117	118	119
174	1	124	145	146
175	1	2	3	5
176	3	137	136	138
177	4	24	23	25
178	1	35	36	38
179	1	113	115	116
180	2	2	1	96
181	6	145	146	149
182	6	70	71	72
183	4	114	113	115
184	6	21	62	65
185	4	132	131	133
186	1	123	124	145
187	1	32	34	47
188	6	116	154	156
189	6	117	116	154
190	4	90	89	91
191	1	82	84	85
192	4	85	87	88
193	1	123	124	125
194	4	37	36	38
195	6	72	71	74
196	1	131	133	135
197	1	179	178	180
198	4	182	181	183
199	6	51	50	52
200	6	59	58	60
201	1	102	173	175
202	6	20	21	62
203	1	97	175	173
204	1	124	125	127
205	1	1	2	79
206	6	159	158	160
207	1	181	183	185
208	1	23	22	56
209	4	130	131	132
210	6	20	21	22
211	1	85	84	94
212	1	127	129	130
213	1	96	97	98
214	1	129	143	145
215	1	124	145	143
216	1	113	115	162
217	6	155	154	156
218	4	48	47	49
219	1	41	82	84
220	4	43	45	46
221	4	3	5	6
222	4	110	111	112
223	6	168	167	169
224	1	3	2	79
225	6	115	116	154
226	4	134	133	135
227	4	54	56	57
228	1	129	130	141
229	1	38	40	43
230	2	1	96	97
231	6	60	58	61
232	4	30	32	33
233	1	15	16	18
234	1	109	110	111
235	1	127	129	143
236	1	106	108	109
237	4	66	68	69
238	1	111	113	115
239	4	55	54	56
240	4	2	3	4
241	6	63	62	65
242	4	144	143	145
243	6	115	116	158
244	4	67	66	68
245	1	117	152	150
246	4	8	75	76
247	6	58	21	62
248	6	145	146	148
249	6	49	50	53
250	6	169	167	170
251	4	70	75	76
252	1	89	91	94
253	1	133	135	139
254	1	188	187	192
255	1	143	145	146
256	1	98	100	102
257	6	116	154	155
258	1	125	127	129
259	1	120	122	150
260	4	131	133	134
261	6	160	158	161
262	4	180	181	182
263	4	9	11	12
264	1	109	108	166
265	1	122	150	152
266	1	7	8	75
267	6	166	167	170
268	1	130	141	139
269	4	102	173	174
270	1	14	15	16
271	4	99	98	100
272	1	178	180	192
273	6	116	158	160
274	1	104	106	108
275	4	39	38	40
276	4	129	143	144
277	1	96	97	175
278	4	112	111	113
279	1	187	188	189
280	1	41	82	83
281	1	120	122	123
282	1	103	171	166
283	1	106	108	166
284	4	88	87	89
285	1	11	13	70
286	4	8	9	10
287	6	21	58	60
288	1	135	139	141
289	3	2	1	81
290	4	97	175	176
291	1	30	29	49
292	1	5	7	77
293	1	133	135	136
294	4	121	120	122
295	1	47	49	50
296	1	7	77	79
297	1	15	68	66
298	4	101	100	102
299	1	21	22	23
300	6	22	21	62
301	4	97	98	99
302	6	49	50	52
303	6	20	21	58
304	1	34	47	49
305	6	115	116	117
306	1	29	49	47
307	5	108	109	110
308	3	135	136	138
309	1	22	23	25
310	4	98	100	101
311	1	82	84	94
312	4	84	85	86
313	1	103	102	173
314	1	21	22	56
315	1	34	35	36
316	1	20	66	68
317	4	26	25	27
318	1	16	15	68
319	4	117	152	153
320	4	126	125	127
321	5	188	190	191
322	6	166	167	169
323	6	64	62	65
324	4	87	89	90
325	6	70	71	74
326	6	116	158	159
327	4	104	106	107
328	1	130	129	143
329	1	185	187	192
330	4	103	171	172
331	4	187	192	193
332	4	77	79	80
333	1	118	120	122
334	1	180	192	187
335	1	131	130	141
336	4	105	104	106
337	6	21	62	64
338	4	130	141	142
339	6	21	58	59
340	6	156	154	157
341	4	78	77	79

Dihedrals

1	1	123	124	145	143
2	1	99	98	97	175
3	1	130	129	143	144
4	2	79	2	1	96
5	1	115	162	164	165
6	1	13	70	75	76
7	1	120	118	117	152
8	16	189	188	190	191
8	17	189	188	190	191
9	1	15	68	66	67
10	1	15	68	66	20
11	1	85	84	94	91
12	1	18	20	66	67
13	1	109	110	111	112
14	7	154	116	158	159
15	6	47	49	50	53
16	7	20	21	62	65
17	1	101	100	102	103
18	1	125	127	129	143
19	1	124	145	143	144
20	1	112	111	113	114
21	3	2	1	96	97
22	5	27	28	29	30
23	1	125	124	145	143
24	1	82	84	85	87
25	1	113	115	162	164
26	1	96	97	98	100
27	1	71	70	75	76
28	1	1	2	79	80
29	1	118	117	152	153
30	6	154	116	115	162
31	12	41	82	84	85
32	1	27	54	56	57
33	1	37	36	38	40
34	1	85	84	94	95
35	1	7	8	75	70
36	12	190	188	187	192
37	6	20	21	22	23
38	6	152	117	116	154
39	1	119	118	120	121
40	4	9	8	7	77
41	1	127	125	124	145
42	6	29	49	50	53
43	13	42	41	82	83
43	14	42	41	82	83
44	1	32	30	29	49
45	1	97	175	173	102
46	1	40	43	45	46
47	1	104	103	171	172
48	1	36	35	45	46
49	6	170	167	166	171
50	1	48	47	49	50
51	1	5	3	2	79
52	12	83	82	84	94
53	12	91	92	178	179
54	4	100	102	103	104
55	1	99	98	100	101
56	7	115	116	154	156
57	7	157	154	116	158
58	1	112	111	110	164
59	1	8	9	11	12
60	12	89	91	92	178
61	1	104	106	108	166
62	1	106	108	166	167
63	1	131	130	141	142
64	1	120	122	150	152
65	1	29	30	32	33
66	7	20	21	62	64
67	7	58	21	62	65
68	1	32	34	47	49
69	1	108	166	171	172
70	2	133	135	136	138
71	4	32	34	35	45
72	1	132	131	133	135
73	2	3	2	1	81
74	1	39	38	40	41
75	1	86	85	87	88
76	1	98	97	175	173
77	1	128	127	129	130
78	4	45	35	34	47
79	1	28	27	54	55
80	1	22	23	25	27
81	1	117	118	120	122
82	1	36	38	40	43
83	7	115	116	158	161
84	1	151	150	152	153
85	1	3	5	7	77
86	1	35	45	43	44
87	1	110	164	162	115
88	5	122	123	124	145
89	1	124	125	127	129
90	1	130	141	139	135
91	1	33	32	34	47
92	1	90	89	91	94
93	7	117	116	154	156
94	12	89	91	92	93
95	1	78	77	79	80
96	5	122	123	124	125
97	1	118	117	152	150
98	1	16	18	20	66
99	1	136	135	139	141
100	1	100	98	97	175
101	1	7	8	75	76
102	1	16	15	68	69
103	1	9	8	75	70
104	1	132	131	130	141
105	1	23	22	56	54
106	1	183	185	187	188
107	1	128	127	129	143
108	1	184	183	185	187
109	6	115	116	117	152
110	1	44	43	45	46
111	1	7	8	9	11
112	1	28	29	49	47
113	1	102	103	171	172
114	1	188	187	192	193
115	1	30	32	34	35
116	1	82	84	85	86
117	1	89	91	94	95
118	1	98	100	102	103
119	2	42	41	40	43
120	1	180	181	183	185
121	7	58	21	62	64
122	1	96	97	175	173
123	1	105	104	106	107
124	1	109	108	166	167
125	6	23	22	21	62
126	1	134	133	135	136
127	1	105	104	103	171
128	1	131	130	141	139
129	3	81	1	96	97
130	6	124	145	146	147
131	1	37	36	38	39
132	1	23	25	27	54
133	1	109	110	164	162
134	7	22	21	58	59
135	2	138	136	135	139
136	5	13	14	15	68
137	1	34	35	45	43
138	4	5	7	8	9
139	1	116	115	162	163
140	1	101	100	102	173
141	1	87	85	84	94
142	1	86	85	84	94
143	4	141	130	129	143
144	1	178	180	181	182
145	1	84	94	91	92
146	1	114	113	115	116
147	7	59	58	21	62
148	1	186	185	187	192
149	2	79	2	1	81
150	1	1	2	3	5
151	1	41	40	43	45
152	1	9	8	75	76
153	1	32	34	47	48
154	1	9	11	13	70
155	1	132	131	133	134
156	1	26	25	27	28
157	6	13	70	71	74
158	5	15	14	13	70
159	1	174	173	175	176
160	1	100	102	173	175
161	1	102	103	104	106
162	1	113	111	110	164
163	5	108	109	110	111
164	6	115	116	117	118
165	7	115	116	158	160
166	1	124	125	127	128
167	7	117	116	158	160
168	12	179	178	180	192
169	7	117	116	154	155
170	6	169	167	166	171
171	1	133	135	139	141
172	5	25	27	28	29
173	4	127	129	130	141
174	1	34	47	49	50
175	1	14	15	68	69
176	1	14	15	16	18
177	1	12	11	13	14
178	1	87	89	91	94
179	6	108	166	167	170
180	1	184	183	185	186
181	1	98	97	175	176
182	1	21	22	23	25
183	1	114	113	115	162
184	1	25	23	22	56
185	1	25	27	54	55
186	1	84	94	91	89
187	2	1	96	97	98
188	1	28	29	30	32
189	12	41	82	84	94
190	5	108	109	110	164
191	1	22	56	54	55
192	6	22	21	20	66
193	1	4	3	5	6
194	1	110	111	113	114
195	7	22	21	62	63
196	7	154	116	158	161
197	6	143	145	146	147
198	1	23	22	56	57
199	1	38	40	43	45
200	12	93	92	178	180
201	1	28	29	49	50
202	3	2	1	96	177
203	1	15	16	18	19
204	1	144	143	145	146
205	4	5	7	8	75
206	1	121	120	122	150
207	4	100	102	103	171
208	1	35	45	43	40
209	1	98	100	102	173
210	1	7	77	79	80
211	1	96	97	175	176
212	1	134	133	135	139
213	1	183	181	180	192
214	1	122	150	152	153
215	6	20	21	22	56
216	1	1	2	3	4
217	1	21	20	66	68
218	1	14	15	68	66
219	1	35	34	47	49
220	7	20	21	58	59
221	1	41	40	43	44
222	1	109	110	164	165
223	1	103	171	166	108
224	1	123	124	125	126
225	1	88	87	89	91
226	1	129	130	131	132
227	1	34	35	45	46
228	1	10	9	11	13
229	1	17	16	18	19
230	1	2	3	5	7
231	1	103	102	173	175
232	1	131	133	135	139
233	1	163	162	164	165
234	1	123	122	150	152
235	1	178	180	192	187
236	2	175	97	96	177
237	1	111	110	164	162
238	1	121	120	122	123
239	1	116	117	118	120
240	7	117	116	158	159
241	12	92	178	180	192
242	1	18	16	15	68
243	6	23	22	21	58
244	1	11	13	70	75
245	1	133	135	139	140
246	4	127	129	130	131
247	6	18	20	21	62
248	5	106	108	109	110
249	1	5	7	77	79
250	1	3	2	79	77
251	6	108	166	167	169
252	6	47	49	50	52
253	1	85	87	89	91
254	1	39	38	40	43
255	5	27	28	29	49
256	1	21	22	23	24
257	1	111	113	115	116
258	6	18	20	21	22
259	12	94	91	92	178
260	1	4	3	2	79
261	1	113	115	162	163
262	1	135	139	141	142
263	1	96	97	98	99
264	1	130	129	143	145
265	1	106	104	103	171
266	1	186	185	187	188
267	2	1	96	97	175
268	1	37	36	35	45
269	1	129	130	141	142
270	1	16	18	20	21
271	1	18	20	66	68
272	1	109	110	111	113
273	7	154	116	158	160
274	2	3	2	1	96
275	1	84	85	87	89
276	12	93	92	178	179
277	1	112	111	113	115
278	6	29	49	50	52
279	1	107	106	108	109
280	1	133	131	130	141
281	1	35	36	38	40
282	1	167	166	171	172
283	1	131	133	135	136
284	1	178	180	192	193
285	1	24	23	25	27
286	7	115	116	154	155
287	1	120	122	150	151
288	3	81	1	96	177
289	6	124	145	146	149
290	12	185	187	188	190
291	7	20	21	62	63
292	1	55	54	56	57
293	1	35	34	47	48
294	1	82	84	94	91
295	1	6	5	7	8
296	7	60	58	21	62
297	7	22	21	58	61
298	1	22	56	54	27
299	1	88	87	89	90
300	2	133	135	136	137
301	1	31	30	32	34
302	1	10	9	11	12
303	1	19	18	20	66
304	1	124	145	143	129
305	1	7	8	9	10
306	1	2	3	5	6
307	4	75	8	7	77
308	12	93	92	91	94
309	1	103	102	173	174
310	1	127	129	143	145
311	1	21	22	56	57
312	1	22	23	25	26
313	1	117	118	120	121
314	1	99	98	100	102
315	1	92	91	94	95
316	1	181	183	185	187
317	6	58	21	20	66
318	1	104	103	171	166
319	1	14	13	70	75
320	1	97	98	100	102
321	6	113	115	116	158
322	1	103	104	106	108
323	1	30	29	49	47
324	1	116	117	118	119
325	1	8	9	11	13
326	12	179	178	180	181
327	1	129	130	141	139
328	1	136	135	139	140
329	1	82	84	94	95
330	1	12	11	13	70
331	7	155	154	116	158
332	1	117	152	150	122
333	6	47	49	50	51
334	5	13	14	15	16
335	1	86	85	87	89
336	5	120	122	123	124
337	1	8	7	77	79
338	1	180	192	187	185
339	5	11	13	14	15
340	1	111	110	164	165
341	1	107	106	108	166
342	1	180	181	183	184
343	7	58	21	62	63
344	1	8	75	70	71
345	7	117	116	154	157
346	1	119	118	117	152
347	6	56	22	21	62
348	6	158	116	115	162
349	1	26	25	27	54
350	1	3	2	79	80
351	1	17	16	15	68
352	1	2	79	77	78
353	6	62	21	20	66
354	1	10	9	8	75
355	1	84	85	87	88
356	1	29	49	47	48
357	4	104	103	102	173
358	6	29	49	50	51
359	7	61	58	21	62
360	1	35	36	38	39
361	1	30	32	34	47
362	1	21	22	56	54
363	1	24	23	25	26
364	1	102	103	171	166
365	1	126	125	127	129
366	1	130	141	139	140
367	12	189	188	187	192
368	1	105	104	106	108
369	1	130	131	133	135
370	1	116	117	152	150
371	1	11	13	70	71
372	1	182	181	180	192
373	1	140	139	141	142
374	6	124	145	146	148
375	12	185	187	188	189
376	6	143	145	146	149
377	7	22	21	58	60
378	6	18	20	21	58
379	1	31	30	32	33
380	10	40	41	82	84
380	11	40	41	82	84
381	6	13	70	71	73
382	1	116	115	162	164
383	7	156	154	116	158
384	1	100	102	173	174
385	1	34	35	36	38
386	1	102	103	104	105
387	2	98	97	96	177
388	1	127	129	143	144
389	1	3	5	7	8
390	1	178	180	181	183
391	1	36	38	40	41
392	12	83	82	84	85
393	7	115	116	158	159
394	1	181	183	185	186
395	1	182	181	183	185
396	1	97	98	100	101
397	6	118	117	116	154
398	1	103	104	106	107
399	1	90	89	91	92
400	1	20	66	68	69
401	12	92	178	180	181
402	1	14	15	16	17
403	7	20	21	58	61
404	6	113	115	116	117
405	6	152	117	116	158
406	1	181	180	192	187
407	1	23	25	27	28
408	4	32	34	35	36
409	7	22	21	62	65
410	2	38	40	41	42
411	1	29	49	47	34
412	1	8	7	77	78
413	6	117	116	115	162
414	1	24	23	22	56
415	5	110	109	108	166
416	6	118	117	116	158
417	1	30	29	49	50
418	7	117	116	158	161
419	1	28	29	30	31
420	1	38	36	35	45
421	1	106	108	166	171
422	1	1	2	79	77
423	5	29	28	27	54
424	1	67	66	68	69
425	1	38	40	43	44
426	15	187	188	190	191
427	4	171	103	102	173
428	2	43	40	41	82
429	2	38	40	41	82
430	1	25	27	54	56
431	5	124	123	122	150
432	1	36	35	45	43
433	1	118	120	122	150
434	1	180	192	187	188
435	1	123	124	145	146
436	1	14	13	70	71
437	1	126	125	127	128
438	6	113	115	116	154
439	1	130	131	133	134
440	1	185	187	192	193
441	1	21	20	66	67
442	1	4	3	5	7
443	1	110	111	113	115
444	1	111	113	115	162
445	1	31	30	29	49
446	7	22	21	62	64
447	6	143	145	146	148
448	2	137	136	135	139
449	1	119	118	120	122
450	1	183	185	187	192
451	1	181	180	192	193
452	8	40	41	82	83
452	9	40	41	82	83
453	6	13	70	71	72
454	10	42	41	82	84
454	11	42	41	82	84
455	1	34	35	36	37
456	1	15	16	18	20
457	1	125	124	145	146
458	1	126	125	124	145
459	1	11	9	8	75
460	12	91	92	178	180
461	1	123	122	150	151
462	6	74	71	70	75
463	7	115	116	154	157
464	1	182	181	183	184
465	1	8	75	70	13
466	1	118	120	122	123
467	1	109	108	166	171
468	1	33	32	34	35
469	1	116	117	152	153
470	4	131	130	129	143
471	1	29	30	32	34
472	1	117	152	150	151
473	6	56	22	21	58
474	6	73	71	70	75
475	1	129	143	145	146
476	1	2	79	77	7
477	7	20	21	58	60
478	6	72	71	70	75
479	1	16	15	68	66
480	1	123	124	125	127
481	1	5	7	77	78
482	1	110	164	162	163
483	1	129	130	131	133
484	1	87	89	91	92
485	6	108	166	167	168
486	1	85	87	89	90
487	1	6	5	7	77
488	1	103	171	166	167
489	1	9	11	13	14
490	1	17	16	18	20
491	1	28	27	54	56
492	1	125	127	129	130
493	1	19	18	20	21
494	4	36	35	34	47
495	1	104	106	108	109
496	1	97	175	173	174
497	6	168	167	166	171
498	1	102	173	175	176

Impropers

3	1	23	24	25	22
4	1	94	95	84	91
5	1	108	109	166	106
12	1	91	89	92	94
13	1	5	7	3	6
14	1	92	91	93	178
16	1	131	130	132	133
19	1	22	21	23	56
22	1	106	104	107	108
23	1	173	174	175	102
24	1	87	88	89	85
26	1	30	31	32	29
27	3	188	187	189	190
39	1	162	115	163	164
41	1	130	141	129	131
42	1	98	99	100	97
43	1	124	125	145	123
45	1	77	78	79	7
47	1	11	12	13	9
50	2	41	40	42	82
57	1	36	38	35	37
61	1	130	131	141	129
67	1	180	192	178	181
69	1	79	2	77	80
71	1	185	187	183	186
73	1	49	29	47	50
74	1	183	185	181	184
75	1	45	46	35	43
76	1	100	102	98	101
78	1	183	184	185	181
79	1	43	44	45	40
80	1	106	108	104	107
84	1	32	34	30	33
85	1	180	178	181	192
91	1	141	130	139	142
94	1	120	118	121	122
99	1	27	54	25	28
103	1	141	139	142	130
104	1	94	91	95	84
107	1	15	68	14	16
108	1	175	176	97	173
117	1	70	13	71	75
121	1	22	23	56	21
127	1	166	171	108	167
128	1	13	11	14	70
130	1	192	180	187	193
137	2	1	2	81	96
138	1	110	164	109	111
140	1	97	96	98	175
141	1	125	126	127	124
142	1	187	192	185	188
143	1	178	180	92	179
146	1	104	105	106	103
147	1	70	75	13	71
149	1	29	49	28	30
153	1	29	30	49	28
158	1	82	41	83	84
159	1	54	27	55	56
161	1	111	110	112	113
162	1	103	171	102	104
166	1	145	143	146	124
180	1	143	145	129	144
185	1	82	84	41	83
187	1	181	182	183	180
191	1	89	90	91	87
193	1	68	69	15	66
195	1	56	54	57	22
197	1	30	29	31	32
202	1	20	21	66	18
205	1	9	10	11	8
206	1	77	79	7	78
208	1	22	56	21	23
210	2	136	137	138	135
215	1	131	133	130	132