Title

193 atoms
206 bonds
341 angles
503 dihedrals
276 impropers

10 atom types
14 bond types
7 angle types
17 dihedral types
3 improper types
-22.20499992 77.79500008 xlo xhi
-3.348999977 96.65100002 ylo yhi
-4.025000095 95.9749999 zlo zhi
0.0 0.0 0.0 xy xz yz

Masses

1	14.00672
2	12.01078
3	1.007947
4	15.99943
5	12.01078
6	1.007947
7	18.998403
8	15.99943
9	15.99943
10	1.007947


Pair Coeffs

1	0.16769152	3.206876
2	0.086879315	3.4806469
3	0.015611343	2.5725815
4	0.16846514	3.0251065
5	0.10884061	3.3795318
6	0.014090815	1.1034277
7	0.061	3.1181455
8	0.2102061	3.0398122
9	0.20947353	2.99716
10	1.2326e-05	0.53453923

Bond Coeffs

1 harmonic	390.03554688505	1.390160554689
2 harmonic	505.144496193	1.019481865027
3 harmonic	422.7150220147	1.421786517481
4 harmonic	360.7852444772	1.387193227181
5 harmonic	397.2545789619	1.085358495916
6 harmonic	279.1350963404	1.454628925034
7 harmonic	425.69104206635	1.362945806494
8 harmonic	289.73813263395	1.498646816465
9 harmonic	264.62148576755	1.52190126495
10 harmonic	492.76746816345	1.381897776683
11 harmonic	340.45121009905	1.358690858053
12 harmonic	582.698766451	1.225198386222
13 harmonic	385.7604595587	1.369745182308
14 harmonic	543.5267831885	0.9716763312559


Angle Coeffs

1 harmonic	57.8982893754	126.8062420451
2 harmonic	55.42182150775	117.3465570514
3 harmonic	63.44422595415	115.5071327674
4 harmonic	34.066775159195	129.1835929926
5 harmonic	65.09061609600001	110.3538806181
6 harmonic	53.20531626545	116.5475862634
7 harmonic	201.41175231035	127.4691416191


Dihedral Coeffs

1 fourier 1	3.661930099076	2	180
2 fourier 1	1.193093382682	2	180
3 fourier 1	0.02021088501612	1	0
4 fourier 1	1.163235555439	2	180
5 fourier 1	1.532232714475	2	180
6 fourier 1	0.02664938770063	3	0
7 fourier 1	0.1155372516788	3	0
8 fourier 1	3.101948770557	2	180
9 fourier 1	-0.4252153282372	1	0
10 fourier 1	1.809047390003	2	180
11 fourier 1	-0.04816277792592	1	0
12 fourier 1	0.9974165607242	2	180
13 fourier 1	2.348375642009	2	180
14 fourier 1	1.256156174911	1	0
15 fourier 1	2.687457892086	2	180
16 fourier 1	2.772607909663	2	180
17 fourier 1	0.09692684957115	1	0


Improper Coeffs

1 0.3666666666666667	-1	2
2 0.3333333333333333	-1	2
3 3.5	-1	2


Atoms

1	1	1	-0.41210201	-13.347	3.1819999	0.139
2	1	2	0.12628099	-12.174	2.4000001	-0.1
3	1	2	-0.40702701	-11.19	2.8710001	-0.88
4	1	3	0.22114	-11.271	3.848	-1.339
5	1	2	-0.114635	-9.9700003	2.069	-1.1059999
6	1	3	0.20351601	-9.1750002	2.4949999	-1.706
7	1	2	-0.128319	-9.8339996	0.85299999	-0.53899997
8	1	2	-0.134545	-8.5880003	0.061000001	-0.71100003
9	1	2	-0.129803	-7.9549999	0.0060000001	-1.898
10	1	3	0.20680501	-8.3529997	0.514	-2.767
11	1	2	-0.296258	-6.6849999	-0.73100001	-2.033
12	1	3	0.223818	-6.1550002	-0.704	-2.977
13	1	2	0.328852	-6.1469998	-1.3559999	-0.97899997
14	1	4	-0.272282	-4.881	-1.934	-1.113
15	1	2	0.257936	-3.744	-1.443	-0.456
16	1	2	-0.27773601	-2.6400001	-2.1960001	-0.41299999
17	1	3	0.228085	-2.6329999	-3.174	-0.87599999
18	1	2	-0.152971	-1.431	-1.715	0.285
19	1	3	0.215664	-0.57200003	-2.3740001	0.317
20	1	2	-0.080962002	-1.391	-0.49200001	0.86500001
21	1	5	-0.26326799	-0.124	-0.046	1.638
22	1	2	-0.080962002	1.125	-0.31799999	0.76300001
23	1	2	-0.152971	2.3080001	-0.73000002	1.277
24	1	3	0.215664	2.4360001	-0.94499999	2.325
25	1	2	-0.27773601	3.497	-0.88700002	0.41800001
26	1	3	0.228085	4.4159999	-1.25	0.86000001
27	1	2	0.257936	3.438	-0.58700001	-0.889
28	1	4	-0.272282	4.553	-0.72100002	-1.729
29	1	2	0.328852	5.8800001	-0.447	-1.355
30	1	2	-0.296258	6.1700001	0.54699999	-0.498
31	1	3	0.223818	5.3850002	1.1619999	-0.078000002
32	1	2	-0.129803	7.5669999	0.84600002	-0.139
33	1	3	0.20680501	7.7589998	1.668	0.54000002
34	1	2	-0.134545	8.5760002	0.133	-0.66900003
35	1	2	-0.128319	9.9860001	0.43799999	-0.31099999
36	1	2	-0.12865201	10.961	0.38699999	-1.239
37	1	3	0.20351601	10.739	0.14	-2.2690001
38	1	2	-0.37512401	12.359	0.70099998	-0.88
39	1	3	0.217613	13.123	0.65700001	-1.646
40	1	2	0.198539	12.674	1.044	0.37900001
41	1	1	-0.532309	14.025	1.354	0.73000002
42	1	6	0.319296	14.789	1.317	0.018999999
43	1	2	-0.37512401	11.612	1.099	1.4069999
44	1	3	0.217613	11.86	1.365	2.427
45	1	2	-0.12865201	10.345	0.81099999	1.085
46	1	3	0.20351601	9.5869999	0.83600003	1.857
47	1	2	-0.057029001	8.2589998	-0.96399999	-1.622
48	1	3	0.205856	9.0719995	-1.549	-2.03
49	1	2	-0.32233599	6.9819999	-1.245	-1.957
50	1	5	0.76650298	6.6430001	-2.3570001	-2.9219999
51	1	7	-0.20826501	7.77	-3.0350001	-3.3559999
52	1	7	-0.20826501	5.8000002	-3.2620001	-2.3010001
53	1	7	-0.20826501	5.9990001	-1.825	-4.0250001
54	1	2	-0.27773601	2.161	-0.133	-1.4680001
55	1	3	0.228085	2.1070001	0.109	-2.5209999
56	1	2	-0.152971	1.08	0.013	-0.69300002
57	1	3	0.215664	0.16500001	0.37900001	-1.142
58	1	5	0.75267798	-0.122	-0.84299999	2.9890001
59	1	7	-0.201904	0.792	-0.32100001	3.888
60	1	7	-0.201904	-1.3710001	-0.78200001	3.5869999
61	1	7	-0.201904	0.184	-2.178	2.7750001
62	1	5	0.75267798	-0.115	1.4859999	1.951
63	1	7	-0.201904	-0.36300001	2.2219999	0.80500001
64	1	7	-0.201904	-1.062	1.812	2.9070001
65	1	7	-0.201904	1.1210001	1.874	2.4419999
66	1	2	-0.152971	-2.6329999	0.34	0.80800003
67	1	3	0.215664	-2.6830001	1.317	1.261
68	1	2	-0.27773601	-3.7290001	-0.104	0.182
69	1	3	0.228085	-4.6079998	0.52700001	0.14399999
70	1	2	-0.32233599	-6.8899999	-1.403	0.31799999
71	1	5	0.76650298	-6.3600001	-2.1860001	1.499
72	1	7	-0.20826501	-5.6339998	-3.2839999	1.074
73	1	7	-0.20826501	-7.3990002	-2.6470001	2.29
74	1	7	-0.20826501	-5.5479999	-1.374	2.266
75	1	2	-0.057029001	-8.0240002	-0.68699998	0.44100001
76	1	3	0.205856	-8.5389996	-0.64999998	1.393
77	1	2	-0.114635	-10.937	0.33000001	0.30899999
78	1	3	0.20351601	-10.863	-0.653	0.75599998
79	1	2	-0.40702701	-12.039	1.061	0.51700002
80	1	3	0.22114	-12.834	0.66799998	1.137
81	1	6	0.37255901	-13.455	4.1360002	-0.27399999
82	1	2	0.76749498	14.273	1.636	1.726
83	1	8	-0.65905398	15.483	1.632	2.0769999
84	1	2	-0.35444	13.203	2.02	2.665
85	1	2	-0.075520001	13.476	2.382	3.9319999
86	1	3	0.222415	14.494	2.402	4.302
87	1	2	-0.243991	12.383	2.7620001	4.849
88	1	3	0.21252701	12.613	3.052	5.8670001
89	1	2	-0.023490001	11.114	2.7490001	4.4260001
90	1	3	0.22191	10.324	3.0309999	5.1110001
91	1	2	-0.29352701	10.795	2.3529999	3.0320001
92	1	2	0.58746201	9.3999996	2.336	2.5569999
93	1	8	-0.52779102	8.4530001	2.6570001	3.323
94	1	2	0.055682998	11.794	2.0079999	2.2
95	1	3	0.23953401	11.577	1.716	1.179
96	1	1	-0.41210201	-14.107	2.819	0.755
97	1	2	0.12628099	-14.585	3.6010001	1.852
98	1	2	-0.40702701	-15.552	3.1300001	2.6530001
99	1	3	0.22114	-15.984	2.1530001	2.477
100	1	2	-0.114635	-16.028	3.9319999	3.799
101	1	3	0.20351601	-16.780001	3.5050001	4.4510002
102	1	2	-0.128319	-15.502	5.1479998	4.0500002
103	1	2	-0.134545	-15.929	5.9400001	5.2319999
104	1	2	-0.129803	-17.221001	5.9949999	5.6040001
105	1	3	0.20680501	-17.989	5.487	5.0339999
106	1	2	-0.296258	-17.618	6.7319999	6.8189998
107	1	3	0.223818	-18.650999	6.704	7.1399999
108	1	2	0.328852	-16.698999	7.3569999	7.5650001
109	1	4	-0.272282	-17.093	7.9349999	8.7749996
110	1	2	0.257936	-16.687	7.4429998	10.024
111	1	2	-0.27773601	-16.875	8.1969995	11.112
112	1	3	0.228085	-17.329	9.1750002	11.023
113	1	2	-0.152971	-16.444	7.7160001	12.44
114	1	3	0.215664	-16.591	8.375	13.287
115	1	2	-0.080962002	-15.885	6.493	12.6
116	1	5	-0.26326799	-15.392	6.0469999	14
117	1	2	-0.080962002	-16.507999	6.3179998	15.04
118	1	2	-0.152971	-16.250999	6.7309999	16.302999
119	1	3	0.215664	-15.253	6.9460001	16.646999
120	1	2	-0.27773601	-17.339001	6.888	17.288
121	1	3	0.228085	-17.098	7.25	18.278
122	1	2	0.257936	-18.605	6.5879998	16.958
123	1	4	-0.272282	-19.658001	6.7220001	17.874001
124	1	2	0.328852	-19.569	6.448	19.249001
125	1	2	-0.296258	-18.791	5.4530001	19.712
126	1	3	0.223818	-18.216999	4.8390002	19.031
127	1	2	-0.129803	-18.73	5.1550002	21.153
128	1	3	0.20680501	-18.106001	4.3330002	21.482
129	1	2	-0.134545	-19.459	5.868	22.030001
130	1	2	-0.128319	-19.402	5.5619998	23.483
131	1	2	-0.077999003	-20.513	5.6139998	24.243999
132	1	3	0.20351601	-21.474001	5.8610001	23.812
133	1	2	-0.45116901	-20.452	5.2989998	25.687
134	1	3	0.229651	-21.360001	5.3439999	26.275
135	1	2	0.31772399	-19.287001	4.9569998	26.256001
136	1	1	-0.844877	-19.224001	4.6459999	27.650999
137	1	6	0.36603099	-18.318001	4.3699999	28.091999
138	1	6	0.36603099	-20.077999	4.684	28.25
139	1	2	-0.45116901	-18.059999	4.902	25.431
140	1	3	0.229651	-17.114	4.6360002	25.886
141	1	2	-0.077999003	-18.111	5.1900001	24.125
142	1	3	0.20351601	-17.198	5.165	23.544001
143	1	2	-0.057029001	-20.325001	6.9650002	21.521
144	1	3	0.205856	-20.893	7.5500002	22.232
145	1	2	-0.32233599	-20.386999	7.2449999	20.202999
146	1	5	0.76650298	-21.26	8.3579998	19.67
147	1	7	-0.20826501	-21.919001	9.0360003	20.681999
148	1	7	-0.20826501	-20.478001	9.2629995	18.975
149	1	7	-0.20826501	-22.205	7.8249998	18.811001
150	1	2	-0.27773601	-18.905001	6.1329999	15.589
151	1	3	0.228085	-19.924999	5.8920002	15.317
152	1	2	-0.152971	-17.923	5.9879999	14.693
153	1	3	0.215664	-18.172001	5.6220002	13.705
154	1	5	0.75267798	-14.072	6.8439999	14.283
155	1	7	-0.201904	-13.382	6.322	15.364
156	1	7	-0.201904	-13.226	6.783	13.186
157	1	7	-0.201904	-14.345	8.1789999	14.538
158	1	5	0.75267798	-15.088	4.5149999	14.074
159	1	7	-0.201904	-16.158001	3.779	13.593
160	1	7	-0.201904	-13.956	4.1880002	13.347
161	1	7	-0.201904	-14.865	4.1269999	15.385
162	1	2	-0.152971	-15.682	5.6609998	11.373
163	1	3	0.215664	-15.229	4.684	11.419
164	1	2	-0.27773601	-16.066999	6.105	10.171
165	1	3	0.228085	-15.921	5.474	9.3039999
166	1	2	-0.32233599	-15.276	7.4039998	7.1079998
167	1	5	0.76650298	-14.231	8.1870003	7.8720002
168	1	7	-0.20826501	-14.798	9.2849998	8.493
169	1	7	-0.20826501	-13.241	8.6479998	7.0190001
170	1	7	-0.20826501	-13.65	7.3740001	8.8260002
171	1	2	-0.057029001	-14.919	6.6880002	6.0240002
172	1	3	0.205856	-13.881	6.6500001	5.7179999
173	1	2	-0.114635	-14.443	5.671	3.148
174	1	3	0.20351601	-14.02	6.6539998	3.313
175	1	2	-0.40702701	-14.01	4.9400001	2.1129999
176	1	3	0.22114	-13.238	5.3330002	1.464
177	1	6	0.37255901	-14.489	1.865	0.56300002
178	1	2	0.58746201	9.1739998	2.046	1.539
179	1	8	-0.52779102	9.6599998	2.7190001	0.59100002
180	1	2	-0.289022	8.3079996	0.87900001	1.286
181	1	2	-0.023490001	8.0050001	0.48699999	0.035
182	1	3	0.22191	8.3879995	1.0190001	-0.82599998
183	1	2	-0.245142	7.1360002	-0.685	-0.186
184	1	3	0.21252701	6.8969998	-0.99199998	-1.196
185	1	2	-0.061358001	6.645	-1.3660001	0.85500002
186	1	3	0.23286501	6.0089998	-2.223	0.67299998
187	1	2	-0.218824	6.9679999	-0.95099998	2.244
188	1	2	0.83848	6.4169998	-1.714	3.385
189	1	8	-0.48887101	6.6799998	-1.377	4.572
190	1	9	-0.66545802	5.599	-2.8169999	3.1559999
191	1	10	0.41748399	5.2150002	-3.349	3.928
192	1	2	0.072393	7.7620001	0.121	2.4389999
193	1	3	0.249603	8.0120001	0.44400001	3.4419999

Bonds

1	1	1	2
2	2	1	81
3	3	1	96
4	4	2	3
5	4	2	79
6	5	3	4
7	4	3	5
8	5	5	6
9	4	5	7
10	6	7	8
11	4	7	77
12	4	8	9
13	4	8	75
14	5	9	10
15	4	9	11
16	5	11	12
17	4	11	13
18	7	13	14
19	4	13	70
20	7	14	15
21	4	15	16
22	4	15	68
23	5	16	17
24	4	16	18
25	5	18	19
26	4	18	20
27	8	20	21
28	4	20	66
29	8	21	22
30	9	21	58
31	9	21	62
32	4	22	23
33	4	22	56
34	5	23	24
35	4	23	25
36	5	25	26
37	4	25	27
38	7	27	28
39	4	27	54
40	7	28	29
41	4	29	30
42	4	29	49
43	5	30	31
44	4	30	32
45	5	32	33
46	4	32	34
47	6	34	35
48	4	34	47
49	4	35	36
50	4	35	45
51	5	36	37
52	4	36	38
53	5	38	39
54	4	38	40
55	1	40	41
56	4	40	43
57	2	41	42
58	10	41	82
59	5	43	44
60	4	43	45
61	5	45	46
62	5	47	48
63	4	47	49
64	8	49	50
65	11	50	51
66	11	50	52
67	11	50	53
68	5	54	55
69	4	54	56
70	5	56	57
71	11	58	59
72	11	58	60
73	11	58	61
74	11	62	63
75	11	62	64
76	11	62	65
77	5	66	67
78	4	66	68
79	5	68	69
80	8	70	71
81	4	70	75
82	11	71	72
83	11	71	73
84	11	71	74
85	5	75	76
86	5	77	78
87	4	77	79
88	5	79	80
89	12	82	83
90	6	82	84
91	4	84	85
92	4	84	94
93	5	85	86
94	4	85	87
95	5	87	88
96	4	87	89
97	5	89	90
98	4	89	91
99	6	91	92
100	4	91	94
101	12	92	93
102	6	92	178
103	5	94	95
104	1	96	97
105	2	96	177
106	4	97	98
107	4	97	175
108	5	98	99
109	4	98	100
110	5	100	101
111	4	100	102
112	6	102	103
113	4	102	173
114	4	103	104
115	4	103	171
116	5	104	105
117	4	104	106
118	5	106	107
119	4	106	108
120	7	108	109
121	4	108	166
122	7	109	110
123	4	110	111
124	4	110	164
125	5	111	112
126	4	111	113
127	5	113	114
128	4	113	115
129	8	115	116
130	4	115	162
131	8	116	117
132	9	116	154
133	9	116	158
134	4	117	118
135	4	117	152
136	5	118	119
137	4	118	120
138	5	120	121
139	4	120	122
140	7	122	123
141	4	122	150
142	7	123	124
143	4	124	125
144	4	124	145
145	5	125	126
146	4	125	127
147	5	127	128
148	4	127	129
149	6	129	130
150	4	129	143
151	4	130	131
152	4	130	141
153	5	131	132
154	4	131	133
155	5	133	134
156	4	133	135
157	1	135	136
158	4	135	139
159	2	136	137
160	2	136	138
161	5	139	140
162	4	139	141
163	5	141	142
164	5	143	144
165	4	143	145
166	8	145	146
167	11	146	147
168	11	146	148
169	11	146	149
170	5	150	151
171	4	150	152
172	5	152	153
173	11	154	155
174	11	154	156
175	11	154	157
176	11	158	159
177	11	158	160
178	11	158	161
179	5	162	163
180	4	162	164
181	5	164	165
182	8	166	167
183	4	166	171
184	11	167	168
185	11	167	169
186	11	167	170
187	5	171	172
188	5	173	174
189	4	173	175
190	5	175	176
191	12	178	179
192	6	178	180
193	4	180	181
194	4	180	192
195	5	181	182
196	4	181	183
197	5	183	184
198	4	183	185
199	5	185	186
200	4	185	187
201	6	187	188
202	4	187	192
203	12	188	189
204	13	188	190
205	14	190	191
206	5	192	193

Angles

1	1	113	115	116
2	1	41	82	83
3	4	20	66	67
4	6	60	58	61
5	4	22	23	24
6	3	97	96	177
7	1	180	181	183
8	6	63	62	65
9	1	5	7	8
10	1	9	11	13
11	4	97	98	99
12	4	78	77	79
13	1	110	111	113
14	1	11	13	14
15	3	135	136	138
16	6	51	50	53
17	6	115	116	117
18	4	111	113	114
19	3	42	41	82
20	1	109	110	111
21	1	104	103	171
22	1	91	92	93
23	6	166	167	168
24	4	15	68	69
25	6	70	71	74
26	4	130	131	132
27	6	154	116	158
28	6	73	71	74
29	1	129	143	145
30	1	109	110	164
31	1	2	3	5
32	6	147	146	149
33	6	148	146	149
34	6	117	116	158
35	6	64	62	65
36	1	38	40	41
37	4	6	5	7
38	4	36	38	39
39	4	107	106	108
40	6	116	158	160
41	6	59	58	60
42	3	135	136	137
43	1	84	94	91
44	1	179	178	180
45	4	115	162	163
46	1	7	77	79
47	1	185	187	192
48	6	166	167	170
49	1	18	20	21
50	1	34	35	45
51	4	3	5	6
52	1	103	171	166
53	1	92	91	94
54	1	124	125	127
55	1	110	164	162
56	4	23	25	26
57	4	24	23	25
58	1	8	9	11
59	1	28	29	49
60	4	117	152	153
61	4	19	18	20
62	1	103	104	106
63	1	118	120	122
64	6	51	50	52
65	1	124	145	146
66	1	120	122	123
67	6	21	62	64
68	6	156	154	157
69	1	20	66	68
70	4	7	77	78
71	6	21	58	61
72	6	63	62	64
73	1	102	103	104
74	1	127	129	143
75	4	104	106	107
76	1	35	36	38
77	4	166	171	172
78	1	11	13	70
79	2	2	1	96
80	1	116	117	118
81	1	116	115	162
82	4	121	120	122
83	4	30	32	33
84	1	116	117	152
85	2	1	96	97
86	4	163	162	164
87	1	102	173	175
88	1	1	2	3
89	1	96	97	175
90	1	124	145	143
91	1	9	8	75
92	4	31	30	32
93	4	117	118	119
94	4	184	183	185
95	1	122	150	152
96	4	144	143	145
97	1	131	133	135
98	1	130	129	143
99	1	125	124	145
100	1	129	130	141
101	1	130	141	139
102	4	90	89	91
103	1	96	97	98
104	1	113	115	162
105	4	180	192	193
106	6	58	21	62
107	4	16	18	19
108	1	125	127	129
109	1	32	34	47
110	4	99	98	100
111	1	183	185	187
112	1	14	15	16
113	4	17	16	18
114	4	118	120	121
115	1	135	139	141
116	1	23	25	27
117	6	52	50	53
118	4	130	141	142
119	1	21	22	56
120	1	187	188	189
121	4	12	11	13
122	1	15	16	18
123	1	38	40	43
124	6	72	71	74
125	1	97	175	173
126	6	21	58	60
127	1	127	129	130
128	4	55	54	56
129	4	67	66	68
130	1	185	187	188
131	1	188	187	192
132	1	123	122	150
133	6	21	58	59
134	1	109	108	166
135	1	123	124	125
136	6	168	167	170
137	6	21	62	63
138	5	13	14	15
139	4	186	185	187
140	1	27	54	56
141	6	159	158	160
142	4	181	183	184
143	6	145	146	148
144	1	3	5	7
145	6	49	50	51
146	1	35	45	43
147	4	110	111	112
148	4	86	85	87
149	4	8	9	10
150	4	101	100	102
151	4	132	131	133
152	4	88	87	89
153	1	36	35	45
154	4	182	181	183
155	4	97	175	176
156	1	100	102	173
157	4	9	11	12
158	6	145	146	149
159	4	151	150	152
160	3	1	96	177
161	1	89	91	94
162	1	133	135	136
163	4	183	185	186
164	1	108	166	167
165	4	131	133	134
166	1	136	135	139
167	1	8	75	70
168	4	102	173	174
169	4	54	56	57
170	6	145	146	147
171	1	13	70	75
172	1	117	152	150
173	1	28	29	30
174	1	41	82	84
175	4	105	104	106
176	4	2	3	4
177	1	100	102	103
178	6	168	167	169
179	4	10	9	11
180	1	187	188	190
181	1	111	113	115
182	1	22	23	25
183	1	7	8	75
184	1	133	135	139
185	4	87	89	90
186	6	166	167	169
187	5	27	28	29
188	4	8	75	76
189	1	47	49	50
190	1	16	15	68
191	4	139	141	142
192	1	28	27	54
193	1	35	34	47
194	1	8	7	77
195	1	129	130	131
196	6	159	158	161
197	6	70	71	73
198	4	2	79	80
199	1	21	20	66
200	4	4	3	5
201	4	187	192	193
202	1	71	70	75
203	1	85	84	94
204	1	115	162	164
205	4	91	94	95
206	4	180	181	182
207	1	98	100	102
208	3	2	1	81
209	1	29	30	32
210	6	116	158	159
211	4	35	45	46
212	1	40	43	45
213	1	25	27	54
214	1	15	68	66
215	4	22	56	57
216	1	5	7	77
217	4	162	164	165
218	1	7	8	9
219	6	22	21	62
220	1	3	2	79
221	6	116	154	157
222	4	140	139	141
223	3	137	136	138
224	1	34	47	49
225	7	189	188	190
226	1	108	166	171
227	4	27	54	55
228	4	43	45	46
229	4	98	100	101
230	1	29	49	47
231	1	117	118	120
232	4	66	68	69
233	4	44	43	45
234	4	37	36	38
235	6	20	21	62
236	4	84	85	86
237	1	103	102	173
238	6	116	154	156
239	1	82	84	94
240	6	21	62	65
241	4	26	25	27
242	1	30	32	34
243	6	70	71	72
244	1	2	79	77
245	4	48	47	49
246	4	150	152	153
247	1	97	98	100
248	4	119	118	120
249	4	103	171	172
250	2	40	41	82
251	1	91	92	178
252	6	147	146	148
253	6	49	50	53
254	1	93	92	178
255	4	35	36	37
256	4	125	127	128
257	1	83	82	84
258	1	84	85	87
259	1	178	180	192
260	4	128	127	129
261	6	155	154	157
262	1	32	34	35
263	4	114	113	115
264	1	82	84	85
265	6	116	154	155
266	1	13	70	71
267	1	21	22	23
268	1	120	122	150
269	1	16	18	20
270	1	180	192	187
271	6	155	154	156
272	3	40	41	42
273	1	92	178	179
274	4	84	94	95
275	4	29	30	31
276	1	1	2	79
277	1	30	29	49
278	6	160	158	161
279	4	40	43	44
280	6	115	116	154
281	1	14	13	70
282	1	118	117	152
283	4	85	87	88
284	1	89	91	92
285	1	106	108	109
286	4	124	125	126
287	4	34	47	48
288	5	122	123	124
289	4	33	32	34
290	4	39	38	40
291	1	14	15	68
292	4	15	16	17
293	1	178	180	181
294	5	188	190	191
295	1	167	166	171
296	1	18	20	66
297	1	85	87	89
298	1	36	38	40
299	1	131	130	141
300	1	181	183	185
301	1	104	106	108
302	4	129	143	144
303	6	49	50	52
304	1	29	49	50
305	6	72	71	73
306	1	34	35	36
307	4	70	75	76
308	5	108	109	110
309	6	22	21	58
310	4	77	79	80
311	4	112	111	113
312	4	135	139	140
313	1	130	131	133
314	1	143	145	146
315	6	20	21	22
316	6	117	116	154
317	6	169	167	170
318	4	110	164	165
319	1	106	108	166
320	6	20	21	58
321	6	59	58	61
322	3	81	1	96
323	1	23	22	56
324	6	116	158	161
325	1	87	89	91
326	1	111	110	164
327	4	122	150	151
328	4	103	104	105
329	1	22	56	54
330	1	123	124	145
331	4	134	133	135
332	1	92	178	180
333	1	181	180	192
334	1	25	27	28
335	4	126	125	127
336	4	174	173	175
337	1	41	40	43
338	6	115	116	158
339	1	102	103	171
340	1	98	97	175
341	4	173	175	176

Dihedrals

1	7	154	116	158	161
2	5	15	14	13	70
3	12	89	91	92	178
4	1	126	125	127	129
5	6	169	167	166	171
6	2	1	96	97	98
7	6	72	71	70	75
8	1	92	91	94	95
9	1	144	143	145	146
10	1	183	185	187	192
11	6	62	21	20	66
12	3	81	1	96	97
13	1	111	110	164	165
14	1	28	29	49	47
15	5	110	109	108	166
16	1	36	35	45	43
17	7	20	21	62	63
18	1	106	104	103	171
19	12	89	91	92	93
20	1	101	100	102	103
21	1	6	5	7	77
22	6	73	71	70	75
23	1	31	30	32	34
24	7	60	58	21	62
25	1	28	29	30	32
26	6	29	49	50	51
27	1	82	84	94	91
28	1	100	102	173	175
29	1	34	35	36	38
30	7	20	21	58	60
31	1	19	18	20	21
32	1	109	110	111	112
33	1	117	118	120	122
34	1	38	40	43	45
35	7	117	116	158	160
36	6	158	116	115	162
37	7	22	21	58	59
38	6	47	49	50	52
39	1	18	20	66	68
40	1	36	38	40	43
41	1	128	127	129	130
42	6	56	22	21	62
43	1	130	141	139	140
44	1	37	36	38	40
45	1	19	18	20	66
46	1	180	192	187	188
47	1	131	133	135	136
48	1	18	16	15	68
49	1	136	135	139	140
50	6	152	117	116	154
51	2	38	40	41	82
52	1	98	97	175	173
53	10	42	41	82	84
53	11	42	41	82	84
54	7	58	21	62	63
55	1	34	35	45	46
56	4	104	103	102	173
57	1	123	124	125	126
58	1	129	130	141	139
59	1	117	152	150	151
60	1	32	30	29	49
61	1	105	104	106	108
62	6	168	167	166	171
63	1	25	23	22	56
64	4	127	129	130	131
65	1	17	16	18	20
66	1	131	133	135	139
67	1	28	27	54	56
68	1	87	85	84	94
69	1	116	117	118	120
70	1	97	175	173	102
71	1	104	103	171	172
72	12	92	178	180	192
73	6	118	117	116	158
74	1	120	118	117	152
75	12	91	92	178	180
76	1	100	98	97	175
77	1	44	43	45	46
78	1	135	139	141	142
79	1	71	70	75	76
80	1	17	16	15	68
81	1	102	173	175	176
82	1	48	47	49	50
83	7	155	154	116	158
84	2	3	2	1	81
85	1	110	164	162	163
86	6	13	70	71	73
87	2	38	40	41	42
88	1	55	54	56	57
89	1	84	85	87	88
90	1	16	18	20	66
91	1	103	102	173	174
92	1	132	131	133	134
93	1	29	30	32	34
94	7	117	116	158	161
95	1	21	20	66	67
96	1	124	125	127	128
97	7	115	116	154	157
98	1	133	131	130	141
99	1	8	75	70	13
100	1	30	32	34	47
101	1	112	111	110	164
102	1	118	117	152	153
103	1	123	122	150	151
104	4	32	34	35	45
105	1	86	85	87	88
106	6	47	49	50	53
107	1	26	25	27	28
108	1	28	29	30	31
109	1	84	85	87	89
110	5	108	109	110	111
111	4	171	103	102	173
112	6	108	166	167	168
113	6	22	21	20	66
114	1	123	122	150	152
115	1	124	145	143	129
116	1	22	56	54	55
117	1	25	27	54	55
118	12	93	92	178	180
119	1	9	8	75	70
120	1	22	23	25	27
121	1	38	40	43	44
122	1	112	111	113	114
123	7	115	116	154	156
124	1	127	125	124	145
125	6	18	20	21	62
126	1	183	185	187	188
127	1	34	35	45	43
128	6	74	71	70	75
129	1	114	113	115	116
130	5	108	109	110	164
131	5	13	14	15	16
132	1	28	29	49	50
133	1	33	32	34	47
134	1	104	106	108	109
135	7	20	21	62	65
136	6	170	167	166	171
137	1	113	111	110	164
138	1	103	102	173	175
139	1	96	97	175	173
140	1	98	100	102	173
141	1	111	113	115	162
142	1	90	89	91	92
143	1	167	166	171	172
144	1	101	100	102	173
145	1	181	180	192	187
146	1	2	79	77	7
147	1	110	111	113	115
148	1	110	164	162	115
149	15	187	188	190	191
150	1	182	181	183	185
151	1	183	181	180	192
152	6	13	70	71	72
153	12	94	91	92	178
154	1	20	66	68	69
155	1	16	15	68	66
156	6	118	117	116	154
157	1	22	56	54	27
158	1	132	131	133	135
159	1	180	181	183	184
160	1	107	106	108	109
161	1	39	38	40	43
162	6	108	166	167	170
163	5	27	28	29	49
164	1	123	124	145	143
165	1	37	36	38	39
166	1	178	180	192	187
167	1	98	100	102	103
168	7	156	154	116	158
169	1	9	8	75	76
170	1	3	2	79	77
171	16	189	188	190	191
171	17	189	188	190	191
172	12	179	178	180	192
173	1	8	9	11	12
174	1	32	34	47	49
175	6	20	21	22	56
176	1	130	129	143	145
177	1	97	175	173	174
178	6	56	22	21	58
179	1	39	38	40	41
180	7	154	116	158	159
181	5	120	122	123	124
182	5	29	28	27	54
183	1	28	27	54	55
184	7	115	116	154	155
185	1	14	13	70	75
186	1	25	27	54	56
187	7	58	21	62	65
188	5	27	28	29	30
189	1	119	118	117	152
190	1	96	97	175	176
191	1	104	106	108	166
192	5	122	123	124	145
193	6	154	116	115	162
194	12	41	82	84	94
195	1	133	135	139	141
196	1	15	68	66	67
197	1	35	34	47	49
198	1	4	3	5	6
199	10	40	41	82	84
199	11	40	41	82	84
200	1	102	103	171	166
201	2	133	135	136	138
202	6	113	115	116	158
203	1	40	43	45	46
204	7	20	21	58	59
205	1	127	129	143	144
206	6	124	145	146	148
207	1	12	11	13	70
208	1	124	145	143	144
209	1	67	66	68	69
210	1	30	29	49	47
211	1	24	23	22	56
212	1	108	166	171	172
213	1	21	20	66	68
214	1	10	9	11	13
215	1	126	125	127	128
216	1	129	130	131	133
217	1	123	124	125	127
218	7	115	116	158	160
219	12	179	178	180	181
220	1	16	15	68	69
221	12	93	92	91	94
222	1	109	108	166	167
223	1	34	47	49	50
224	6	113	115	116	117
225	6	20	21	22	23
226	1	178	180	181	182
227	5	13	14	15	68
228	1	106	108	166	167
229	1	113	115	162	163
230	6	143	145	146	148
231	1	24	23	25	27
232	1	85	87	89	90
233	1	120	122	150	151
234	6	117	116	115	162
235	2	133	135	136	137
236	7	22	21	62	64
237	1	29	49	47	48
238	12	41	82	84	85
239	1	130	129	143	144
240	1	85	84	94	95
241	1	3	5	7	77
242	1	41	40	43	45
243	1	14	15	68	66
244	1	16	18	20	21
245	1	105	104	106	107
246	1	130	131	133	135
247	6	29	49	50	52
248	1	120	122	150	152
249	1	14	15	16	18
250	6	143	145	146	149
251	1	97	98	100	102
252	1	7	8	9	11
253	1	186	185	187	192
254	4	131	130	129	143
255	1	131	130	141	139
256	4	100	102	103	171
257	1	23	22	56	57
258	1	103	171	166	167
259	1	1	2	3	5
260	3	2	1	96	177
261	5	122	123	124	125
262	1	97	98	100	101
263	1	129	143	145	146
264	1	180	192	187	185
265	6	23	22	21	62
266	7	117	116	154	157
267	6	113	115	116	154
268	1	29	49	47	34
269	1	85	87	89	91
270	8	40	41	82	83
270	9	40	41	82	83
271	1	151	150	152	153
272	1	136	135	139	141
273	1	178	180	181	183
274	1	123	124	145	146
275	7	22	21	58	61
276	5	106	108	109	110
277	1	5	7	77	79
278	1	116	115	162	163
279	1	87	89	91	94
280	1	99	98	100	102
281	1	103	104	106	108
282	1	11	9	8	75
283	1	34	35	36	37
284	7	117	116	158	159
285	5	11	13	14	15
286	1	118	117	152	150
287	7	117	116	154	156
288	1	131	130	141	142
289	1	102	103	104	105
290	1	118	120	122	123
291	7	115	116	158	161
292	1	114	113	115	162
293	1	127	129	143	145
294	1	104	103	171	166
295	4	9	8	7	77
296	13	42	41	82	83
296	14	42	41	82	83
297	1	109	108	166	171
298	1	163	162	164	165
299	1	82	84	85	86
300	1	31	30	32	33
301	1	7	77	79	80
302	2	175	97	96	177
303	1	106	108	166	171
304	3	2	1	96	97
305	1	125	124	145	143
306	1	24	23	25	26
307	1	105	104	103	171
308	5	25	27	28	29
309	2	42	41	40	43
310	1	96	97	98	100
311	12	185	187	188	189
312	6	47	49	50	51
313	1	14	13	70	71
314	1	5	7	77	78
315	1	109	110	111	113
316	1	86	85	84	94
317	1	14	15	16	17
318	6	29	49	50	53
319	4	5	7	8	75
320	1	182	181	180	192
321	1	5	3	2	79
322	1	121	120	122	123
323	1	30	32	34	35
324	1	116	117	152	153
325	1	8	7	77	79
326	1	35	45	43	40
327	1	30	29	49	50
328	1	2	3	5	6
329	7	59	58	21	62
330	6	58	21	20	66
331	1	37	36	35	45
332	1	82	84	85	87
333	1	10	9	8	75
334	1	35	36	38	40
335	12	190	188	187	192
336	1	116	117	152	150
337	4	45	35	34	47
338	1	117	152	150	122
339	1	130	131	133	134
340	1	4	3	5	7
341	1	1	2	79	80
342	1	109	110	164	162
343	7	22	21	62	63
344	12	91	92	178	179
345	1	33	32	34	35
346	1	116	115	162	164
347	1	188	187	192	193
348	1	181	183	185	187
349	7	22	21	58	60
350	1	82	84	94	95
351	1	9	11	13	14
352	1	23	25	27	54
353	1	125	127	129	130
354	1	8	7	77	78
355	1	22	23	25	26
356	1	6	5	7	8
357	4	5	7	8	9
358	1	119	118	120	122
359	6	108	166	167	169
360	1	107	106	108	166
361	6	124	145	146	149
362	1	184	183	185	187
363	1	112	111	113	115
364	12	83	82	84	94
365	1	2	79	77	78
366	4	100	102	103	104
367	1	180	181	183	185
368	1	103	171	166	108
369	1	23	25	27	28
370	2	79	2	1	96
371	1	186	185	187	188
372	1	21	22	23	25
373	4	36	35	34	47
374	2	98	97	96	177
375	1	29	30	32	33
376	1	15	68	66	20
377	1	21	22	56	57
378	1	88	87	89	90
379	1	185	187	192	193
380	6	124	145	146	147
381	1	21	22	56	54
382	1	116	117	118	119
383	1	85	84	94	91
384	2	137	136	135	139
385	7	20	21	62	64
386	1	36	38	40	41
387	12	93	92	178	179
388	1	124	125	127	129
389	5	124	123	122	150
390	12	185	187	188	190
391	1	134	133	135	136
392	1	109	110	164	165
393	1	7	8	9	10
394	1	8	75	70	71
395	4	141	130	129	143
396	1	181	180	192	193
397	1	1	2	79	77
398	6	23	22	21	58
399	1	102	103	104	106
400	1	110	111	113	114
401	2	79	2	1	81
402	2	3	2	1	96
403	12	189	188	187	192
404	1	13	70	75	76
405	1	27	54	56	57
406	1	15	16	18	19
407	6	18	20	21	22
408	12	83	82	84	85
409	1	7	8	75	70
410	1	23	22	56	54
411	1	178	180	192	193
412	6	143	145	146	147
413	1	125	124	145	146
414	4	127	129	130	141
415	1	88	87	89	91
416	1	134	133	135	139
417	7	154	116	158	160
418	6	18	20	21	58
419	1	118	120	122	150
420	4	75	8	7	77
421	1	84	94	91	92
422	1	18	20	66	67
423	1	32	34	47	48
424	1	89	91	94	95
425	1	3	5	7	8
426	1	122	150	152	153
427	1	181	183	185	186
428	1	182	181	183	184
429	1	36	35	45	46
430	7	20	21	58	61
431	1	129	130	141	142
432	1	4	3	2	79
433	1	10	9	11	12
434	1	12	11	13	14
435	6	115	116	117	118
436	7	58	21	62	64
437	1	8	9	11	13
438	1	125	127	129	143
439	2	43	40	41	82
440	1	26	25	27	54
441	1	98	97	175	176
442	1	87	89	91	92
443	6	115	116	117	152
444	1	184	183	185	186
445	1	31	30	29	49
446	1	35	34	47	48
447	2	138	136	135	139
448	1	119	118	120	121
449	1	129	130	131	132
450	1	3	2	79	80
451	1	103	104	106	107
452	1	117	118	120	121
453	1	132	131	130	141
454	1	38	36	35	45
455	1	99	98	100	101
456	1	35	45	43	44
457	1	7	8	75	76
458	1	14	15	68	69
459	1	35	36	38	39
460	1	128	127	129	143
461	1	21	22	23	24
462	1	111	110	164	162
463	1	130	141	139	135
464	1	11	13	70	71
465	1	9	11	13	70
466	1	78	77	79	80
467	1	113	115	162	164
468	3	81	1	96	177
469	7	61	58	21	62
470	1	121	120	122	150
471	7	115	116	158	159
472	1	133	135	139	140
473	1	96	97	98	99
474	1	99	98	97	175
475	1	140	139	141	142
476	12	92	178	180	181
477	1	90	89	91	94
478	7	22	21	62	65
479	1	115	162	164	165
480	1	174	173	175	176
481	1	86	85	87	89
482	6	152	117	116	158
483	1	102	103	171	172
484	1	84	94	91	89
485	1	1	2	3	4
486	1	126	125	124	145
487	1	111	113	115	116
488	1	2	3	5	7
489	2	1	96	97	175
490	1	11	13	70	75
491	1	100	102	173	174
492	7	157	154	116	158
493	1	15	16	18	20
494	1	41	40	43	44
495	6	13	70	71	74
496	4	32	34	35	36
497	7	117	116	154	155
498	1	17	16	18	19

Impropers

1	1	143	129	144	145
2	1	185	187	183	186
3	1	117	116	118	152
4	1	84	85	94	82
6	1	124	125	145	123
7	1	40	38	41	43
8	1	92	91	93	178
14	1	85	87	84	86
17	1	40	43	38	41
18	1	43	45	40	44
20	1	91	94	89	92
22	1	68	66	69	15
23	1	54	55	56	27
26	1	34	47	32	35
27	1	102	100	103	173
29	1	77	78	79	7
33	1	82	83	84	41
36	1	115	116	162	113
38	1	8	9	75	7
39	1	68	69	15	66
40	1	5	7	3	6
41	1	30	29	31	32
43	1	8	75	7	9
45	1	38	39	40	36
47	1	27	28	54	25
50	1	70	71	75	13
51	1	133	134	135	131
52	1	181	183	180	182
53	1	122	120	123	150
54	1	15	16	68	14
58	1	8	7	9	75
64	2	96	1	97	177
66	1	171	172	103	166
68	1	35	34	36	45
71	1	129	143	127	130
75	1	164	110	162	165
77	1	166	167	171	108
84	1	113	111	114	115
85	1	13	14	70	11
93	1	5	3	6	7
98	1	97	96	98	175
101	1	108	106	109	166
103	1	77	7	78	79
107	1	92	93	178	91
111	2	41	82	40	42
113	1	87	89	85	88
115	1	115	113	116	162
118	1	49	47	50	29
119	2	41	42	82	40
120	1	100	101	102	98
121	1	5	6	7	3
128	1	143	145	129	144
130	1	91	89	92	94
131	1	56	57	22	54
135	2	41	40	42	82
136	1	133	131	134	135
140	1	139	140	141	135
143	1	7	77	5	8
144	1	175	173	176	97
146	1	139	141	135	140
152	1	79	2	77	80
156	1	23	25	22	24
160	1	18	19	20	16
167	1	162	115	163	164
169	1	180	181	192	178
178	1	187	192	185	188
180	1	97	98	175	96
183	1	106	108	104	107
188	1	20	66	18	21
189	1	13	11	14	70
193	1	70	75	13	71
200	1	16	17	18	15
202	1	164	165	110	162
205	1	118	120	117	119
206	1	135	139	133	136
207	1	29	49	28	30