Title

139 atoms
146 bonds
239 angles
331 dihedrals
186 impropers

11 atom types
14 bond types
8 angle types
19 dihedral types
3 improper types
-25.60099983 74.39900017 xlo xhi
-3.927999973 96.07200003 ylo yhi
-10.07199955 89.92800045 zlo zhi
0.0 0.0 0.0 xy xz yz

Masses

1	14.00672
2	12.01078
3	1.007947
4	1.007947
5	12.01078
6	1.007947
7	15.99943
8	15.99943
9	1.007947
10	15.99943
11	1.007947


Pair Coeffs

1	0.16769152	3.206876
2	0.086879315	3.4806469
3	0.015611343	2.5725815
4	0.014090815	1.1034277
5	0.10884061	3.3795318
6	0.015779483	2.6445434
7	0.2102061	3.0398122
8	0.16846514	3.0251065
9	0.016409246	2.5832257
10	0.20947353	2.99716
11	1.2326e-05	0.53453923

Bond Coeffs

1 harmonic	390.03554688505	1.390160554689
2 harmonic	505.144496193	1.019481865027
3 harmonic	422.7150220147	1.421786517481
4 harmonic	360.7852444772	1.387193227181
5 harmonic	397.2545789619	1.085358495916
6 harmonic	279.1350963404	1.454628925034
7 harmonic	492.76746816345	1.381897776683
8 harmonic	289.73813263395	1.498646816465
9 harmonic	370.04670688625	1.093899492634
10 harmonic	582.698766451	1.225198386222
11 harmonic	301.15400723785	1.345741232799
12 harmonic	366.7408841747	1.425895053732
13 harmonic	385.7604595587	1.369745182308
14 harmonic	543.5267831885	0.9716763312559


Angle Coeffs

1 harmonic	57.8982893754	126.8062420451
2 harmonic	55.42182150775	117.3465570514
3 harmonic	63.44422595415	115.5071327674
4 harmonic	34.066775159195	129.1835929926
5 harmonic	53.20531626545	116.5475862634
6 harmonic	48.776492647595	115.6030999533
7 harmonic	65.09061609600001	110.3538806181
8 harmonic	201.41175231035	127.4691416191


Dihedral Coeffs

1 fourier 1	3.661930099076	2	180
2 fourier 1	1.193093382682	2	180
3 fourier 1	0.02021088501612	1	0
4 fourier 1	1.163235555439	2	180
5 fourier 1	0.02664938770063	3	0
6 fourier 1	3.101948770557	2	180
7 fourier 1	-0.4252153282372	1	0
8 fourier 1	1.809047390003	2	180
9 fourier 1	-0.04816277792592	1	0
10 fourier 1	0.9974165607242	2	180
11 fourier 1	2.348375642009	2	180
12 fourier 1	1.256156174911	1	0
13 fourier 1	2.779853741805	2	180
14 fourier 1	0.0473758381877	3	0
15 fourier 1	1.163809172478	2	180
16 fourier 1	0.1679186987369	1	180
17 fourier 1	2.687457892086	2	180
18 fourier 1	2.772607909663	2	180
19 fourier 1	0.09692684957115	1	0


Improper Coeffs

1 0.3666666666666667	-1	2
2 0.3333333333333333	-1	2
3 3.5	-1	2


Atoms

1	1	1	-0.41098601	4.9860001	-0.52600002	0.233
2	1	2	0.152439	3.575	-0.30000001	0.182
3	1	2	-0.410032	2.9449999	0.296	1.204
4	1	3	0.228278	3.497	0.61500001	2.0799999
5	1	2	-0.093243003	1.4910001	0.53500003	1.1440001
6	1	3	0.208543	1.0089999	1.038	1.974
7	1	2	-0.17402101	0.77999997	0.152	0.07
8	1	2	-0.17402101	-0.67299998	0.428	0.026000001
9	1	2	-0.107716	-1.142	1.349	-0.833
10	1	3	0.208543	-0.46799999	1.8839999	-1.4910001
11	1	2	-0.384321	-2.582	1.664	-0.88
12	1	3	0.22449701	-2.9360001	2.411	-1.581
13	1	2	0.228341	-3.438	1.039	-0.059999999
14	1	1	-0.52933401	-4.8340001	1.347	-0.097000003
15	1	4	0.32294601	-5.5009999	0.85900003	0.54100001
16	1	2	-0.448576	-2.9319999	0.021	0.889
17	1	3	0.220505	-3.6340001	-0.47600001	1.5470001
18	1	2	0.011517	-1.624	-0.292	0.92699999
19	1	5	-0.147919	-1.13	-1.3329999	1.895
20	1	6	0.103073	-1.9529999	-1.9960001	2.2360001
21	1	6	0.103073	-0.36199999	-1.973	1.4119999
22	1	6	0.103073	-0.68400002	-0.833	2.7809999
23	1	2	0.027062001	1.47	-0.53600001	-1.063
24	1	5	-0.147919	0.70099998	-0.98299998	-2.2780001
25	1	6	0.103073	-0.26800001	-1.431	-1.974
26	1	6	0.103073	1.26	-1.75	-2.855
27	1	6	0.103073	0.50999999	-0.11	-2.9360001
28	1	2	-0.46408901	2.8010001	-0.72799999	-1.006
29	1	3	0.223279	3.323	-1.207	-1.825
30	1	4	0.37705901	5.5500002	-0.23199999	1.061
31	1	2	0.75216597	-5.2189999	2.0739999	-0.77200001
32	1	7	-0.656124	-4.408	2.8199999	-1.38
33	1	2	-0.27521399	-6.6729999	2.138	-1.036
34	1	2	0.021469001	-7.4029999	1.029	-0.815
35	1	3	0.241216	-6.934	0.146	-0.39500001
36	1	2	-0.37879899	-8.8330002	0.963	-1.198
37	1	2	0.83260602	-9.5930004	-0.29300001	-0.98100001
38	1	7	-0.587731	-8.9759998	-1.391	-1.048
39	1	2	-0.37945801	-11.047	-0.31200001	-0.68699998
40	1	2	-0.105132	-11.631	0.66900003	0.018999999
41	1	3	0.223893	-11.053	1.501	0.40099999
42	1	2	-0.096196003	-13.068	0.60900003	0.336
43	1	3	0.229101	-13.49	1.4	0.94599998
44	1	2	-0.17328399	-13.822	-0.433	-0.061000001
45	1	2	0.79031199	-15.232	-0.50700003	0.38600001
46	1	7	-0.50267297	-15.902	0.55299997	0.53399998
47	1	8	-0.495065	-15.806	-1.7460001	0.69
48	1	5	0.14069299	-17.150999	-1.882	1.13
49	1	9	0.094342999	-17.298	-1.327	2.0810001
50	1	9	0.094342999	-17.844999	-1.4910001	0.35600001
51	1	9	0.094342999	-17.372	-2.9549999	1.302
52	1	2	-0.21149901	-13.192	-1.515	-0.88700002
53	1	2	0.57939899	-14.007	-2.596	-1.488
54	1	7	-0.520096	-13.468	-3.6199999	-1.9859999
55	1	2	0.064713001	-11.871	-1.454	-1.151
56	1	3	0.236396	-11.399	-2.2160001	-1.76
57	1	2	-0.105132	-9.3940001	2.02	-1.807
58	1	3	0.223893	-10.421	1.987	-2.1500001
59	1	2	-0.115974	-8.625	3.2609999	-2.0109999
60	1	3	0.229101	-9.1400003	4.118	-2.4289999
61	1	2	-0.18891799	-7.342	3.3499999	-1.618
62	1	2	0.77858299	-6.671	4.6669998	-1.6950001
63	1	7	-0.50267297	-5.8449998	5.0100002	-0.80500001
64	1	8	-0.495065	-6.9990001	5.552	-2.7279999
65	1	5	0.14069299	-6.4109998	6.842	-2.849
66	1	9	0.094342999	-5.3099999	6.7470002	-2.967
67	1	9	0.094342999	-6.6409998	7.4510002	-1.949
68	1	9	0.094342999	-6.8270001	7.3499999	-3.743
69	1	1	-0.41098601	5.4770002	-0.991	-0.56300002
70	1	2	0.152438	4.7979999	-1.217	-1.801
71	1	2	-0.410032	5.428	-1.813	-2.823
72	1	3	0.228278	6.4590001	-2.132	-2.724
73	1	2	-0.093243003	4.7210002	-2.052	-4.0949998
74	1	3	0.208543	5.2459998	-2.556	-4.8990002
75	1	2	-0.17402101	3.4419999	-1.669	-4.2480001
76	1	2	-0.17402101	2.7509999	-1.9450001	-5.526
77	1	2	-0.059951998	1.773	-2.8659999	-5.5599999
78	1	3	0.208543	1.487	-3.401	-4.6620002
79	1	2	-0.44987699	1.0829999	-3.181	-6.8260002
80	1	3	0.237077	0.29899999	-3.928	-6.8270001
81	1	2	0.346167	1.432	-2.556	-7.9590001
82	1	1	-0.84385997	0.77200001	-2.8640001	-9.1890001
83	1	4	0.37261999	0.0099999998	-3.5780001	-9.2290001
84	1	4	0.37261999	1.043	-2.3759999	-10.072
85	1	2	-0.51507401	2.507	-1.538	-7.9330001
86	1	3	0.22695	2.78	-1.041	-8.8559999
87	1	2	0.069459997	3.128	-1.225	-6.7810001
88	1	5	-0.147919	4.2160001	-0.184	-6.7740002
89	1	6	0.103073	4.151	0.479	-7.664
90	1	6	0.103073	4.1290002	0.456	-5.8720002
91	1	6	0.103073	5.2069998	-0.68400002	-6.7740002
92	1	2	0.027062001	2.74	-0.98100001	-3.1229999
93	1	5	-0.147919	1.309	-0.53399998	-3.2639999
94	1	6	0.103073	1.145	-0.086000003	-4.2659998
95	1	6	0.103073	1.044	0.233	-2.506
96	1	6	0.103073	0.63499999	-1.4069999	-3.1400001
97	1	2	-0.46408901	3.3889999	-0.78899997	-1.959
98	1	3	0.223279	2.891	-0.31	-1.125
99	1	4	0.37705901	6.4710002	-1.285	-0.43099999
100	1	2	0.57939899	-15.084	-2.5150001	-1.527
101	1	7	-0.520096	-15.77	-3.402	-0.95200002
102	1	2	-0.21149901	-15.73	-1.401	-2.26
103	1	2	0.064713001	-17.032	-1.494	-2.5969999
104	1	3	0.236396	-17.618	-2.3510001	-2.2850001
105	1	2	-0.37945801	-17.683001	-0.46200001	-3.4389999
106	1	2	0.83260602	-19.108999	-0.61400002	-3.8139999
107	1	7	-0.587731	-19.580999	-1.778	-3.9430001
108	1	2	-0.37790501	-20.000999	0.55199999	-4.0320001
109	1	2	-0.105132	-21.030001	0.47099999	-4.8889999
110	1	3	0.223893	-21.209	-0.43399999	-5.4580002
111	1	2	-0.105264	-21.906	1.6339999	-5.1209998
112	1	3	0.229101	-22.671	1.552	-5.8839998
113	1	2	-0.205841	-21.705999	2.7909999	-4.4640002
114	1	2	0.778234	-22.506001	3.974	-4.8540001
115	1	7	-0.50267297	-22.002001	5.1290002	-4.7859998
116	1	8	-0.495065	-23.805	3.803	-5.3449998
117	1	5	0.14069299	-24.620001	4.895	-5.7550001
118	1	9	0.094342999	-25.601	4.5079999	-6.0999999
119	1	9	0.094342999	-24.785999	5.586	-4.901
120	1	9	0.094342999	-24.132999	5.4400001	-6.5910001
121	1	2	-0.128133	-20.625999	2.8610001	-3.425
122	1	2	0.80542302	-20.493	4.02	-2.5120001
123	1	7	-0.477079	-19.364	4.3379998	-2.049
124	1	10	-0.66235602	-21.618	4.7389998	-2.1199999
125	1	11	0.42236701	-21.538	5.5250001	-1.4859999
126	1	2	0.021454999	-19.812	1.801	-3.2520001
127	1	3	0.248175	-19.049999	1.823	-2.483
128	1	2	-0.105132	-16.945999	0.56	-3.9030001
129	1	3	0.223893	-17.375999	1.303	-4.5630002
130	1	2	-0.096196003	-15.53	0.69499999	-3.52
131	1	3	0.229101	-14.989	1.569	-3.8640001
132	1	2	-0.17328399	-14.941	-0.20999999	-2.7160001
133	1	2	0.79031199	-13.553	0.033	-2.2609999
134	1	7	-0.50267297	-12.735	0.62300003	-3.0209999
135	1	8	-0.495065	-13.163	-0.347	-0.97299999
136	1	5	0.14069299	-11.847	-0.13500001	-0.47499999
137	1	9	0.094342999	-11.784	-0.52200001	0.56300002
138	1	9	0.094342999	-11.613	0.95099998	-0.46900001
139	1	9	0.094342999	-11.11	-0.67400002	-1.1059999

Bonds

1	1	1	2
2	2	1	30
3	3	1	69
4	4	2	3
5	4	2	28
6	5	3	4
7	4	3	5
8	5	5	6
9	4	5	7
10	6	7	8
11	4	7	23
12	4	8	9
13	4	8	18
14	5	9	10
15	4	9	11
16	5	11	12
17	4	11	13
18	1	13	14
19	4	13	16
20	2	14	15
21	7	14	31
22	5	16	17
23	4	16	18
24	8	18	19
25	9	19	20
26	9	19	21
27	9	19	22
28	8	23	24
29	4	23	28
30	9	24	25
31	9	24	26
32	9	24	27
33	5	28	29
34	10	31	32
35	6	31	33
36	4	33	34
37	4	33	61
38	5	34	35
39	4	34	36
40	6	36	37
41	4	36	57
42	10	37	38
43	6	37	39
44	4	39	40
45	4	39	55
46	5	40	41
47	4	40	42
48	5	42	43
49	4	42	44
50	6	44	45
51	4	44	52
52	10	45	46
53	11	45	47
54	12	47	48
55	9	48	49
56	9	48	50
57	9	48	51
58	6	52	53
59	4	52	55
60	10	53	54
61	6	53	100
62	5	55	56
63	5	57	58
64	4	57	59
65	5	59	60
66	4	59	61
67	6	61	62
68	10	62	63
69	11	62	64
70	12	64	65
71	9	65	66
72	9	65	67
73	9	65	68
74	1	69	70
75	2	69	99
76	4	70	71
77	4	70	97
78	5	71	72
79	4	71	73
80	5	73	74
81	4	73	75
82	6	75	76
83	4	75	92
84	4	76	77
85	4	76	87
86	5	77	78
87	4	77	79
88	5	79	80
89	4	79	81
90	1	81	82
91	4	81	85
92	2	82	83
93	2	82	84
94	5	85	86
95	4	85	87
96	8	87	88
97	9	88	89
98	9	88	90
99	9	88	91
100	8	92	93
101	4	92	97
102	9	93	94
103	9	93	95
104	9	93	96
105	5	97	98
106	10	100	101
107	6	100	102
108	4	102	103
109	4	102	132
110	5	103	104
111	4	103	105
112	6	105	106
113	4	105	128
114	10	106	107
115	6	106	108
116	4	108	109
117	4	108	126
118	5	109	110
119	4	109	111
120	5	111	112
121	4	111	113
122	6	113	114
123	4	113	121
124	10	114	115
125	11	114	116
126	12	116	117
127	9	117	118
128	9	117	119
129	9	117	120
130	6	121	122
131	4	121	126
132	10	122	123
133	13	122	124
134	14	124	125
135	5	126	127
136	5	128	129
137	4	128	130
138	5	130	131
139	4	130	132
140	6	132	133
141	10	133	134
142	11	133	135
143	12	135	136
144	9	136	137
145	9	136	138
146	9	136	139

Angles

1	1	81	85	87
2	1	106	108	126
3	1	76	87	85
4	1	113	114	115
5	1	122	121	126
6	6	20	19	22
7	1	107	106	108
8	1	77	76	87
9	1	40	39	55
10	1	53	100	102
11	6	90	88	91
12	1	42	44	45
13	4	6	5	7
14	3	13	14	15
15	1	109	111	113
16	1	8	18	19
17	1	76	87	88
18	1	76	77	79
19	5	116	117	118
20	1	121	122	123
21	1	8	9	11
22	4	102	103	104
23	1	73	75	92
24	1	52	53	100
25	1	79	81	85
26	1	75	92	93
27	1	34	36	37
28	1	75	76	87
29	6	20	19	21
30	4	77	79	80
31	5	135	136	139
32	1	128	130	132
33	4	121	126	127
34	1	34	33	61
35	4	3	5	6
36	1	7	8	9
37	4	41	40	42
38	1	113	121	122
39	1	42	44	52
40	1	39	40	42
41	1	8	18	16
42	1	113	121	126
43	1	36	57	59
44	1	5	7	23
45	1	71	73	75
46	4	74	73	75
47	3	15	14	31
48	1	76	75	92
49	1	113	114	116
50	3	2	1	30
51	4	8	9	10
52	1	5	7	8
53	5	18	19	21
54	1	53	100	101
55	1	93	92	97
56	1	121	122	124
57	1	79	81	82
58	1	31	33	34
59	6	50	48	51
60	1	111	113	121
61	1	114	113	121
62	6	138	136	139
63	1	37	39	40
64	1	44	52	55
65	5	92	93	95
66	2	13	14	31
67	1	102	103	105
68	5	116	117	119
69	5	18	19	20
70	6	89	88	91
71	1	14	13	16
72	1	69	70	71
73	5	92	93	94
74	3	70	69	99
75	1	9	11	13
76	5	87	88	89
77	5	23	24	25
78	1	100	102	103
79	4	10	9	11
80	1	106	105	128
81	1	1	2	28
82	4	23	28	29
83	4	2	3	4
84	1	8	7	23
85	1	70	97	92
86	1	77	79	81
87	1	105	128	130
88	6	118	117	119
89	4	78	77	79
90	1	53	52	55
91	4	110	109	111
92	1	33	34	36
93	1	31	33	61
94	5	23	24	27
95	3	81	82	83
96	1	132	133	135
97	6	137	136	138
98	1	3	2	28
99	1	73	75	76
100	4	70	71	72
101	1	45	44	52
102	6	49	48	50
103	1	9	8	18
104	5	18	19	22
105	1	7	23	28
106	1	14	31	32
107	6	26	24	27
108	1	24	23	28
109	4	60	59	61
110	4	71	73	74
111	5	87	88	91
112	6	21	19	22
113	5	135	136	138
114	4	33	34	35
115	1	14	31	33
116	5	116	117	120
117	1	100	102	132
118	1	11	13	14
119	5	23	24	26
120	1	36	37	38
121	1	38	37	39
122	1	54	53	100
123	2	2	1	69
124	5	64	65	68
125	6	67	65	68
126	1	109	108	126
127	6	137	136	139
128	4	72	71	73
129	4	12	11	13
130	1	102	132	133
131	3	83	82	84
132	4	104	103	105
133	1	75	92	97
134	5	92	93	96
135	6	66	65	68
136	4	81	85	86
137	1	132	133	134
138	7	45	47	48
139	4	108	126	127
140	4	70	97	98
141	4	80	79	81
142	1	36	37	39
143	4	108	109	110
144	7	62	64	65
145	1	39	55	52
146	1	2	28	23
147	1	85	87	88
148	3	1	69	99
149	1	11	13	16
150	1	44	45	46
151	6	49	48	51
152	1	82	81	85
153	6	94	93	95
154	7	114	116	117
155	4	86	85	87
156	8	46	45	47
157	1	61	62	63
158	1	103	105	128
159	5	64	65	67
160	4	129	128	130
161	1	7	8	18
162	1	106	108	109
163	1	32	31	33
164	4	112	111	113
165	4	39	55	56
166	4	105	128	129
167	6	94	93	96
168	7	122	124	125
169	4	2	28	29
170	4	43	42	44
171	4	17	16	18
172	1	1	2	3
173	1	70	71	73
174	5	47	48	50
175	1	59	61	62
176	1	44	52	53
177	4	35	34	36
178	6	66	65	67
179	8	134	133	135
180	1	105	106	107
181	1	33	61	62
182	4	109	111	112
183	1	102	132	130
184	7	133	135	136
185	6	89	88	90
186	6	95	93	96
187	4	4	3	5
188	4	76	77	78
189	4	39	40	41
190	1	40	42	44
191	2	1	69	70
192	1	37	39	55
193	4	57	59	60
194	8	63	62	64
195	4	52	55	56
196	6	118	117	120
197	4	13	16	17
198	1	37	36	57
199	1	7	23	24
200	1	108	126	121
201	6	25	24	27
202	4	58	57	59
203	4	128	130	131
204	1	101	100	102
205	1	111	113	114
206	4	92	97	98
207	1	16	18	19
208	1	2	3	5
209	1	75	76	77
210	8	115	114	116
211	5	47	48	49
212	1	34	36	57
213	4	131	130	132
214	1	103	102	132
215	5	135	136	137
216	3	30	1	69
217	5	87	88	90
218	1	33	61	59
219	6	25	24	26
220	4	36	57	58
221	1	69	70	97
222	1	103	105	106
223	8	123	122	124
224	5	47	48	51
225	1	61	62	64
226	1	130	132	133
227	1	52	53	54
228	4	9	11	12
229	1	57	59	61
230	1	105	106	108
231	6	119	117	120
232	1	71	70	97
233	5	64	65	66
234	1	44	45	47
235	1	3	5	7
236	1	108	109	111
237	3	81	82	84
238	1	13	16	18
239	4	40	42	43

Dihedrals

1	1	7	8	18	16
2	10	113	121	122	124
3	10	33	61	62	63
4	10	42	44	45	47
5	10	38	37	39	40
6	1	58	57	59	60
7	10	54	53	100	101
8	1	60	59	61	62
9	3	2	1	69	70
10	1	24	23	28	29
11	10	103	105	106	108
12	1	7	8	9	10
13	1	42	44	52	55
14	2	3	2	1	69
15	1	106	108	126	127
16	1	73	75	92	93
17	1	34	36	57	58
18	10	59	61	62	64
19	1	12	11	13	14
20	1	37	39	40	41
21	1	76	87	85	86
22	1	77	76	87	88
23	10	33	61	62	64
24	14	114	116	117	118
25	1	108	109	111	112
26	2	11	13	14	15
27	3	30	1	69	70
28	1	37	36	57	58
29	1	13	16	18	19
30	1	102	103	105	106
31	4	5	7	8	9
32	1	39	40	42	43
33	1	80	79	81	85
34	1	102	132	130	131
35	1	111	113	121	126
36	10	52	53	100	101
37	10	14	31	33	34
38	1	33	61	59	57
39	2	16	13	14	31
40	1	41	40	42	43
41	2	11	13	14	31
42	5	8	18	19	20
43	1	3	5	7	23
44	1	45	44	52	55
45	1	36	34	33	61
46	1	40	42	44	52
47	4	73	75	76	77
48	1	12	11	13	16
49	3	2	1	69	99
50	1	110	109	111	112
51	1	14	13	16	18
52	10	123	122	121	126
53	10	42	44	45	46
54	8	13	14	31	33
54	9	13	14	31	33
55	1	79	77	76	87
56	5	95	93	92	97
57	1	104	103	105	128
58	1	114	113	121	122
59	1	40	39	55	52
60	1	35	34	36	37
61	1	104	103	105	106
62	1	42	40	39	55
63	10	105	106	108	126
64	1	109	108	126	127
65	10	101	100	102	103
66	1	43	42	44	52
67	10	111	113	114	115
68	10	34	36	37	39
69	1	105	128	130	131
70	1	82	81	85	87
71	4	73	75	76	87
72	1	11	9	8	18
73	10	113	121	122	123
74	1	7	8	18	19
75	3	30	1	69	99
76	1	3	2	28	23
77	1	110	109	111	113
78	1	113	121	126	127
79	1	3	2	28	29
80	1	109	111	113	114
81	1	5	7	23	24
82	1	1	2	28	23
83	10	116	114	113	121
84	5	27	24	23	28
85	5	94	93	92	97
86	1	72	71	70	97
87	2	28	2	1	30
88	1	106	108	109	110
89	1	1	2	28	29
90	1	100	102	132	130
91	1	31	33	34	36
92	4	18	8	7	23
93	1	131	130	132	133
94	1	7	8	9	11
95	1	2	3	5	7
96	10	46	45	44	52
97	1	79	81	85	86
98	1	112	111	113	121
99	2	83	82	81	85
100	1	76	75	92	93
101	10	107	106	108	126
102	1	10	9	11	13
103	1	77	79	81	85
104	1	9	11	13	16
105	1	11	13	16	17
106	5	25	24	23	28
107	1	2	3	5	6
108	10	107	106	105	128
109	10	14	31	33	61
110	1	81	85	87	88
111	10	102	132	133	135
112	1	71	73	75	76
113	13	61	62	64	65
114	2	28	2	1	69
115	1	9	8	18	19
116	10	39	37	36	57
117	2	97	70	69	99
118	1	35	34	36	57
119	1	103	105	128	129
120	14	114	116	117	119
121	5	16	18	19	21
122	17	121	122	124	125
123	1	42	44	52	53
124	1	41	40	39	55
125	10	102	132	133	134
126	1	108	126	121	113
127	6	13	14	31	32
127	7	13	14	31	32
128	5	8	18	19	22
129	1	76	77	79	80
130	10	34	36	37	38
131	1	6	5	7	23
132	14	45	47	48	51
133	1	129	128	130	132
134	1	114	113	121	126
135	1	35	34	33	61
136	2	79	81	82	83
137	1	86	85	87	88
138	1	80	79	81	82
139	1	103	102	132	133
140	10	115	114	113	121
141	1	75	76	77	78
142	1	40	39	55	56
143	1	108	126	121	122
144	5	7	23	24	27
145	1	37	39	55	56
146	1	71	70	97	98
147	10	107	106	108	109
148	1	108	109	111	113
149	1	34	33	61	62
150	1	102	132	130	128
151	1	8	7	23	28
152	10	32	31	33	34
153	1	31	33	34	35
154	1	69	70	97	98
155	1	36	57	59	61
156	1	45	44	52	53
157	1	31	33	61	62
158	1	37	39	55	52
159	1	74	73	75	76
160	1	33	34	36	37
161	1	71	73	75	92
162	1	39	55	52	44
163	1	9	11	13	14
164	15	134	133	135	136
164	16	134	133	135	136
165	10	54	53	100	102
166	4	87	76	75	92
167	1	10	9	8	18
168	10	54	53	52	55
169	1	8	18	16	13
170	5	85	87	88	89
171	1	100	102	103	104
172	10	55	52	53	100
173	1	58	57	59	61
174	1	75	76	87	85
175	5	16	18	19	20
176	1	106	108	126	121
177	8	15	14	31	33
177	9	15	14	31	33
178	1	122	121	126	127
179	1	34	36	57	59
180	10	44	52	53	100
181	10	53	100	102	132
182	13	44	45	47	48
183	1	2	28	23	7
184	1	109	111	113	121
185	14	133	135	136	137
186	5	8	18	19	21
187	5	76	87	88	90
188	1	4	3	2	28
189	10	108	106	105	128
190	2	3	2	1	30
191	10	124	122	121	126
192	5	75	92	93	95
193	1	11	13	16	18
194	13	132	133	135	136
195	5	75	92	93	94
196	10	47	45	44	52
197	10	38	37	39	55
198	1	73	75	92	97
199	5	75	92	93	96
200	1	37	36	57	59
201	1	5	3	2	28
202	10	52	53	100	102
203	13	113	114	116	117
204	1	78	77	79	80
205	15	115	114	116	117
205	16	115	114	116	117
206	10	105	106	108	109
207	1	77	79	81	82
208	1	4	3	5	6
209	4	9	8	7	23
210	10	101	100	102	132
211	1	79	81	85	87
212	14	114	116	117	120
213	1	70	71	73	75
214	5	7	23	24	25
215	1	76	87	85	81
216	1	44	52	55	56
217	1	74	73	75	92
218	14	62	64	65	66
219	10	103	105	106	107
220	10	32	31	33	61
221	1	33	34	36	57
222	5	76	87	88	89
223	1	76	77	79	81
224	1	100	102	132	133
225	2	84	82	81	85
226	1	104	103	102	132
227	5	76	87	88	91
228	1	109	108	126	121
229	2	1	69	70	71
230	14	62	64	65	68
231	1	102	103	105	128
232	1	69	70	71	73
233	5	85	87	88	90
234	1	105	128	130	132
235	1	34	33	61	59
236	1	39	40	42	44
237	1	2	28	23	24
238	1	111	109	108	126
239	2	15	14	13	16
240	1	106	105	128	129
241	14	133	135	136	139
242	1	8	18	16	17
243	1	31	33	61	59
244	1	8	9	11	12
245	10	53	100	102	103
246	10	44	52	53	54
247	1	9	8	18	16
248	1	40	42	44	45
249	1	70	71	73	74
250	1	41	40	42	44
251	1	77	76	87	85
252	1	57	59	61	62
253	1	72	71	73	75
254	1	78	77	76	87
255	2	71	70	69	99
256	1	33	61	59	60
257	18	123	122	124	125
257	19	123	122	124	125
258	1	53	52	55	56
259	11	15	14	31	32
259	12	15	14	31	32
260	1	75	76	87	88
261	1	75	76	77	79
262	15	46	45	47	48
262	16	46	45	47	48
263	1	8	7	23	24
264	15	63	62	64	65
264	16	63	62	64	65
265	1	82	81	85	86
266	1	110	109	108	126
267	1	111	113	121	122
268	1	100	102	103	105
269	1	14	13	16	17
270	1	103	105	128	130
271	10	130	132	133	135
272	1	129	128	130	131
273	1	43	42	44	45
274	5	16	18	19	22
275	14	62	64	65	67
276	1	70	97	92	93
277	1	6	5	7	8
278	10	36	37	39	55
279	14	45	47	48	50
280	1	1	2	3	5
281	14	133	135	136	138
282	1	106	108	109	111
283	1	17	16	18	19
284	1	8	9	11	13
285	1	37	39	40	42
286	1	93	92	97	98
287	1	3	5	7	8
288	10	38	37	36	57
289	1	71	70	97	92
290	1	70	97	92	75
291	5	85	87	88	91
292	10	130	132	133	134
293	4	77	76	75	92
294	1	5	7	23	28
295	2	79	81	82	84
296	14	45	47	48	49
297	1	105	103	102	132
298	1	10	9	11	12
299	5	96	93	92	97
300	10	36	37	39	40
301	1	128	130	132	133
302	1	69	70	97	92
303	1	76	75	92	97
304	1	73	71	70	97
305	1	7	23	28	29
306	1	36	57	59	60
307	1	39	55	52	53
308	1	69	70	71	72
309	5	26	24	23	28
310	1	72	71	73	74
311	1	4	3	5	7
312	10	59	61	62	63
313	1	106	105	128	130
314	1	78	77	79	81
315	1	75	92	97	98
316	1	112	111	113	114
317	4	5	7	8	18
318	5	7	23	24	26
319	2	1	69	70	97
320	1	1	2	3	4
321	10	111	113	114	116
322	1	103	102	132	130

Impropers

1	1	87	76	85	88
2	1	75	73	76	92
3	1	23	24	28	7
8	1	132	102	130	133
9	1	121	113	122	126
20	1	42	44	40	43
21	1	61	59	62	33
25	1	13	11	14	16
28	1	97	98	70	92
34	3	62	61	63	64
36	1	132	133	102	130
39	1	8	9	18	7
44	1	40	42	39	41
48	1	31	14	32	33
54	1	130	131	132	128
55	1	113	114	121	111
60	1	42	40	43	44
62	1	18	16	19	8
64	1	81	82	85	79
72	1	39	40	55	37
75	1	85	86	87	81
76	1	34	33	35	36
80	1	85	87	81	86
81	3	45	47	44	46
84	1	36	57	34	37
88	1	59	57	60	61
89	3	122	124	121	123
91	1	39	37	40	55
98	1	113	111	114	121
99	1	102	100	103	132
100	1	121	126	113	122
101	1	5	6	7	3
108	1	59	61	57	60
109	1	3	2	4	5
116	1	40	39	41	42
118	1	53	52	54	100
121	2	14	31	13	15
128	1	97	70	92	98
129	1	71	70	72	73
134	1	111	112	113	109
136	3	45	46	47	44
138	1	79	77	80	81
144	1	70	69	71	97
146	1	31	33	14	32
154	1	111	113	109	112
155	1	8	7	9	18
156	1	81	85	79	82
160	1	33	31	34	61
161	1	44	52	42	45
163	1	106	105	107	108
168	1	105	106	128	103
173	1	87	85	88	76
175	1	77	78	79	76
179	1	103	102	104	105
184	1	111	109	112	113
190	1	61	62	33	59
196	1	28	29	2	23
199	1	34	35	36	33
200	1	7	8	23	5
204	1	81	79	82	85
209	3	133	132	134	135
214	1	52	44	53	55
221	1	7	23	5	8
222	1	126	108	121	127
223	1	18	19	8	16
226	1	76	87	75	77
228	3	122	123	124	121
229	1	9	8	10	11
234	1	85	81	86	87
239	1	109	108	110	111
241	1	13	16	11	14
252	1	2	28	1	3
253	1	42	43	44	40
257	3	62	64	61	63
263	1	61	33	59	62
272	1	97	92	98	70
273	1	126	121	127	108
276	2	82	83	84	81
281	1	16	17	18	13
282	1	100	102	53	101
286	1	130	132	128	131
290	1	53	54	100	52
292	1	92	75	93	97
295	1	103	104	105	102
296	1	9	10	11	8
302	1	16	13	17	18
304	3	114	115	116	113
308	1	53	100	52	54
311	1	109	111	108	110
313	1	8	18	7	9
314	1	108	106	109	126
319	1	108	126	106	109
320	1	37	38	39	36
321	1	44	45	52	42
322	1	16	18	13	17
323	1	105	128	103	106
324	2	1	2	30	69
325	1	55	56	39	52
327	1	11	9	12	13
329	2	14	13	15	31
330	3	62	63	64	61
331	1	108	109	126	106
333	1	57	58	59	36
335	1	57	36	58	59
340	1	130	128	131	132
344	1	73	74	75	71
349	1	106	107	108	105
350	1	71	72	73	70
351	1	121	122	126	113
352	2	1	30	69	2
353	1	73	71	74	75
354	1	76	75	77	87
356	1	23	28	7	24
360	1	71	73	70	72
361	1	100	53	101	102
364	1	102	103	132	100
368	1	39	55	37	40
369	1	55	39	52	56
371	1	106	108	105	107
373	1	44	42	45	52
374	2	69	1	70	99
377	1	102	132	100	103
379	1	34	36	33	35
381	1	105	103	106	128
383	1	77	79	76	78
388	1	79	81	77	80
389	1	37	36	38	39
390	1	2	1	3	28
391	1	52	53	55	44
394	1	79	80	81	77
397	1	5	3	6	7
398	1	40	41	42	39
400	1	87	88	76	85
404	1	36	37	57	34
414	1	126	127	108	121
416	1	33	34	61	31
418	1	128	130	105	129
420	1	70	71	97	69
422	1	75	76	92	73
428	1	70	97	69	71
431	1	11	13	9	12
433	1	55	52	56	39
436	1	128	105	129	130
441	2	1	69	2	30
442	1	128	129	130	105
448	1	73	75	71	74
449	1	37	39	36	38
453	2	82	84	81	83
465	1	76	77	87	75
467	3	45	44	46	47
469	1	7	5	8	23
474	1	92	97	75	93
484	1	31	32	33	14
487	1	57	59	36	58
489	1	13	14	16	11
491	1	92	93	97	75
494	1	52	55	44	53
497	1	28	23	29	2
498	1	75	92	73	76
502	2	82	81	83	84
507	3	133	134	135	132
508	1	132	130	133	102
511	1	33	61	31	34
513	1	28	2	23	29
515	1	3	4	5	2
516	1	2	3	28	1
518	1	113	121	111	114
519	1	3	5	2	4
521	1	109	110	111	108
522	1	77	76	78	79
523	1	23	7	24	28
526	3	133	135	132	134
529	1	18	8	16	19
533	2	69	99	1	70
534	1	5	7	3	6
536	2	69	70	99	1
545	1	9	11	8	10
546	1	36	34	37	57
547	1	100	101	102	53
548	3	122	121	123	124
549	1	11	12	13	9
550	2	14	15	31	13
558	1	59	60	61	57
559	3	114	116	113	115
561	1	103	105	102	104
562	3	114	113	115	116
