Title

11000 atoms
11125 bonds
21000 angles
43000 dihedrals
2250 impropers

11 atom types
14 bond types
9 angle types
35 dihedral types
3 improper types
-11.86653202 124.0201161 xlo xhi
-11.74570104 124.7824194 ylo yhi
-12.62297004 125.570289 zlo zhi
0.0 0.0 0.0 xy xz yz

Masses

1	12.01078
2	15.99943
3	14.00672
4	12.01078
5	1.007947
6	1.007947
7	1.007947
8	15.99943
9	12.01078
10	15.99943
11	1.007947


Pair Coeffs

1	0.086879315	3.4806469
2	0.2102061	3.0398122
3	0.16769152	3.206876
4	0.10884061	3.3795318
5	0.014090815	1.1034277
6	0.016409246	2.5832257
7	0.015779483	2.6445434
8	0.16846514	3.0251065
9	0.21	3.3996695
10	0.20947353	2.99716
11	1.2326e-05	0.53453923

Bond Coeffs

1 harmonic	582.698766451	1.225198386222
2 harmonic	492.76746816345	1.381897776683
3 harmonic	279.1350963404	1.454628925034
4 harmonic	352.0565580496	1.450098586273
5 harmonic	505.144496193	1.019481865027
6 harmonic	264.62148576755	1.52190126495
7 harmonic	370.04670688625	1.093899492634
8 harmonic	301.15400723785	1.345741232799
9 harmonic	366.7408841747	1.425895053732
10 harmonic	300.03137914615	1.451203938761
11 harmonic	366.34047229585	1.464762957261
12 harmonic	602.81384337	1.196112346392
13 harmonic	329.96998057905	1.427343958716
14 harmonic	543.5267831885	0.9716763312559


Angle Coeffs

1 harmonic	55.42182150775	117.3465570514
2 harmonic	63.44422595415	115.5071327674
3 harmonic	57.8982893754	126.8062420451
4 harmonic	53.20531626545	116.5475862634
5 harmonic	65.09061609600001	110.3538806181
6 harmonic	201.41175231035	127.4691416191
7 harmonic	48.776492647595	115.6030999533
8 harmonic	55.07882548015	112.8714009681
9 harmonic	33.56981613361	180


Dihedral Coeffs

1 fourier 1	-0.1488678166443	4	180
2 fourier 1	-0.1230328948768	3	180
3 fourier 1	0.2939295466901	2	0
4 fourier 1	-0.3024127022865	1	0
5 fourier 1	0.182238503271	2	0
6 fourier 1	0.02972342374561	3	0
7 fourier 1	1.809047390003	2	180
8 fourier 1	-0.04816277792592	1	0
9 fourier 1	3.101948770557	2	180
10 fourier 1	-0.4252153282372	1	0
11 fourier 1	2.348375642009	2	180
12 fourier 1	1.256156174911	1	0
13 fourier 1	0.9974165607242	2	180
14 fourier 1	0.1155372516788	3	0
15 fourier 1	0.09223874044423	3	0
16 fourier 1	0.3159935921949	2	180
17 fourier 1	0.3247796806857	1	180
18 fourier 1	0.1040663847541	3	0
19 fourier 1	2.779853741805	2	180
20 fourier 1	0.0473758381877	3	0
21 fourier 1	0.1918272375143	3	0
22 fourier 1	0.9202179876409	1	180
23 fourier 1	0.4860993122944	2	180
24 fourier 1	0.8916986138746	1	0
25 fourier 1	1.163809172478	2	180
26 fourier 1	0.1679186987369	1	180
27 fourier 1	0.1911926717192	3	0
28 fourier 1	0.1115525666802	3	0
29 fourier 1	0.3432490222662	1	0
30 fourier 1	0.457973137376	1	0
31 fourier 1	-1.382973039546	1	0
32 fourier 1	0	1	0
33 fourier 1	0.3445382149273	3	0
34 fourier 1	0.1364556373303	1	0
35 fourier 1	0.3026390167484	3	0


Improper Coeffs

1 0.3333333333333333	-1	2
2 0.3666666666666667	-1	2
3 3.5	-1	2


Atoms

1	6	1	0.54390217	-2.1465088	-3.4816877	1.8194465
2	6	2	-0.68043923	-1.7570365	-4.680203	1.8103071
3	6	3	-0.52112388	-2.0101863	-2.6583759	0.65866022
4	6	4	0.03160436	-1.4192837	-3.1679753	-0.57798673
5	6	4	-0.14520585	-1.391235	-2.0819101	-1.6580857
6	6	4	-0.14181995	-0.7548877	-2.607068	-2.9539669
7	6	4	-0.14181995	-0.8697895	-1.6145638	-4.1246667
8	6	4	-0.14391846	-0.16217463	-0.26492569	-3.9050141
9	6	4	0.029923967	1.3533427	-0.40606768	-3.7095145
10	6	3	-0.47824999	1.9976091	0.90623707	-3.6810011
11	6	1	0.81340635	3.4118103	1.0444484	-3.5183308
12	6	2	-0.60091513	4.1487258	0.029628056	-3.3965757
13	6	5	0.32832629	1.4288049	1.7785874	-3.7750627
14	6	6	0.058786011	1.5610145	-0.92467837	-2.7501312
15	6	6	0.058786011	1.7813143	-1.0040316	-4.5438193
16	6	7	0.089572302	-0.60783445	0.26949348	-3.0394972
17	6	7	0.089572302	-0.34640541	0.36161985	-4.8039939
18	6	7	0.088326781	-0.45041207	-2.0945027	-5.0365424
19	6	7	0.088326781	-1.9451587	-1.4217234	-4.3267153
20	6	7	0.088326781	0.30917944	-2.871858	-2.7750162
21	6	7	0.088326781	-1.2752628	-3.5422608	-3.2549423
22	6	7	0.089572302	-0.80489503	-1.2193975	-1.2768096
23	6	7	0.089572302	-2.4317756	-1.7456403	-1.8641315
24	6	6	0.055198199	-2.0167688	-4.0339326	-0.93706106
25	6	6	0.055198199	-0.38098525	-3.5105469	-0.3714318
26	6	5	0.32036675	-2.3483789	-1.6706969	0.71555401
27	7	8	-0.52133798	3.837828	1.9897169	-3.5003469
28	7	4	0.19254631	2.905062	2.8476076	-2.8934836
29	7	6	0.090138442	1.8933771	2.6382821	-3.3147761
30	7	4	-0.15949125	3.2634539	4.318842	-3.2213213
31	7	7	0.1055804	4.0033429	4.3527684	-4.0508026
32	7	7	0.1055804	2.3543233	4.8427038	-3.5927233
33	7	4	-0.14871862	3.8149882	5.1148311	-2.0234025
34	7	7	0.10460372	2.9631736	5.4483035	-1.3896629
35	7	7	0.10460372	4.3255819	6.0310552	-2.3912182
36	7	4	0.074779927	4.7857638	4.2905133	-1.1554624
37	7	8	-0.12915512	6.0169916	4.1175096	-1.8128762
38	7	6	0.094252191	4.9913401	4.8909227	-0.24276746
39	7	4	-0.1487186	4.1936689	2.9284783	-0.70157552
40	7	7	0.10460371	4.9198086	2.1098777	-0.90119828
41	7	7	0.10460371	4.0314329	2.9438254	0.39836855
42	7	4	-0.15949126	2.8568449	2.583243	-1.3791942
43	7	7	0.10558041	2.0431776	3.1909224	-0.92509131
44	7	7	0.10558041	2.6128054	1.5155789	-1.1895577
45	4	1	0.54390222	-2.5888593	-3.072909	2.717667
46	4	2	-0.68043929	-3.5386488	-2.2513185	2.6214438
47	4	3	-0.52112394	-2.0819876	-3.4646271	3.998229
48	4	4	0.031604364	-2.6266933	-2.9536608	5.2549004
49	4	4	-0.14520585	-3.965519	-3.6273531	5.572437
50	4	4	-0.14163657	-4.5376111	-3.1136985	6.9028428
51	4	4	-0.13743564	-5.8144685	-3.8576554	7.3247673
52	4	4	-0.12162324	-7.026484	-3.4962194	6.4510987
53	4	4	0.18496131	-8.3140663	-4.1684977	6.952899
54	4	3	-0.63582777	-8.6964996	-3.6858616	8.2769505
55	4	9	0.59375501	-9.0832167	-2.4891586	8.4722219
56	4	2	-0.4601058	-9.4576293	-1.3244229	8.6618638
57	4	6	0.033438011	-9.1398907	-3.9773036	6.2325381
58	4	6	0.033438011	-8.1599417	-5.2674265	7.002497
59	4	7	0.083199225	-6.849941	-3.839291	5.4096865
60	4	7	0.083199225	-7.1660593	-2.3937622	6.4287197
61	4	7	0.087043054	-5.6386205	-4.9554005	7.2941549
62	4	7	0.087043054	-6.0332874	-3.5823896	8.3797483
63	4	7	0.088326781	-3.7771425	-3.2598975	7.6998462
64	4	7	0.088326781	-4.743569	-2.0231093	6.8301199
65	4	7	0.089572302	-4.681015	-3.4153131	4.7513831
66	4	7	0.089572302	-3.8108259	-4.7273615	5.6327825
67	4	6	0.055198199	-2.7513628	-1.8501663	5.1892232
68	4	6	0.055198199	-1.9059823	-3.1689032	6.0730308
69	4	5	0.32036678	-1.2496367	-4.0952834	4.029496
70	5	8	-0.12915511	5.8588381	3.547099	-2.6109014
71	5	4	0.075318723	4.4736281	3.3228861	-2.6851169
72	5	6	0.094252213	4.0908313	3.074079	-1.6680551
73	5	4	-0.14023484	4.1934415	2.1112932	-3.6093847
74	5	7	0.10488021	5.1352713	1.5484958	-3.7920231
75	5	7	0.10488021	3.5052739	1.4079096	-3.0919818
76	5	4	-0.1959725	3.5609005	2.4846412	-4.9636743
77	5	7	0.10720061	2.4697962	2.6455154	-4.8194663
78	5	7	0.10720061	3.673984	1.6354528	-5.6726687
79	5	4	0.12808829	4.1729777	3.7589635	-5.5765774
80	5	10	-0.70212691	5.4658251	3.5048402	-6.0690802
81	5	11	0.39826599	6.0517357	3.3014383	-5.2953868
82	5	6	0.075558855	3.5438382	4.0305796	-6.4525061
83	5	4	-0.19597257	4.170041	4.968262	-4.6017439
84	5	7	0.10720061	5.1761956	5.4429711	-4.5791781
85	5	7	0.10720061	3.4646901	5.7427511	-4.9744741
86	5	4	-0.14023485	3.7610442	4.5991189	-3.1664515
87	5	7	0.10488019	2.6612048	4.4449993	-3.121715
88	5	7	0.10488019	4.0020737	5.4446579	-2.4850195
89	6	1	0.54390217	-0.36683449	-4.3548269	24.815919
90	6	2	-0.68043923	-0.38076133	-4.858804	23.660919
91	6	3	-0.52112388	-1.0783356	-3.1470169	25.096654
92	6	4	0.03160436	-1.8466383	-2.4519491	24.064789
93	6	4	-0.14520585	-2.5040593	-1.1892281	24.630714
94	6	4	-0.14181995	-3.2979885	-0.44551987	23.545997
95	6	4	-0.14181995	-4.1256803	0.72584587	24.104239
96	6	4	-0.14391846	-3.3032727	1.8443505	24.769883
97	6	4	0.029923967	-2.3287573	2.5301244	23.802945
98	6	3	-0.47824999	-1.7033684	3.6918943	24.433196
99	6	1	0.81340635	-0.75978781	4.5078415	23.733614
100	6	2	-0.60091513	-0.44036169	4.2471665	22.542923
101	6	5	0.32832629	-1.9334238	3.9477043	25.420625
102	6	6	0.058786011	-1.5325316	1.8165139	23.504138
103	6	6	0.058786011	-2.8780883	2.8602907	22.894094
104	6	7	0.089572302	-2.7503091	1.4482174	25.647747
105	6	7	0.089572302	-4.0174468	2.6051765	25.151674
106	6	7	0.088326781	-4.7206755	1.1650821	23.273102
107	6	7	0.088326781	-4.8512307	0.33009973	24.846796
108	6	7	0.088326781	-2.6108217	-0.087979002	22.749541
109	6	7	0.088326781	-4.0050931	-1.1579275	23.068043
110	6	7	0.089572302	-1.7087527	-0.52635898	25.032194
111	6	7	0.089572302	-3.1868014	-1.4747744	25.461728
112	6	6	0.055198199	-2.6307928	-3.1353242	23.672482
113	6	6	0.055198199	-1.1659025	-2.1718361	23.230392
114	6	5	0.32036675	-1.036445	-2.7682273	26.070248
115	7	8	-0.52133798	-0.33253509	5.3240199	24.209696
116	7	4	0.19254631	-0.19969708	4.9832121	25.566353
117	7	6	0.090138442	-1.1423107	4.4958473	25.910977
118	7	4	-0.15949125	0.0076482716	6.2685431	26.406225
119	7	7	0.1055804	-0.24682392	7.1638877	25.797761
120	7	7	0.1055804	-0.70111729	6.262971	27.264426
121	7	4	-0.14871862	1.4328729	6.4312133	26.967537
122	7	7	0.10460372	1.5349043	5.8014822	27.879373
123	7	7	0.10460372	1.5891579	7.4860892	27.281022
124	7	4	0.074779927	2.5222921	6.0212767	25.957416
125	7	8	-0.12915512	2.6418308	6.9817327	24.936985
126	7	6	0.094252191	3.4877406	6.0172388	26.508468
127	7	4	-0.1487186	2.3074888	4.5997487	25.37018
128	7	7	0.10460371	2.3970559	4.6259418	24.261791
129	7	7	0.10460371	3.11134	3.923546	25.73488
130	7	4	-0.15949126	0.95118656	3.9787467	25.744685
131	7	7	0.10558041	0.97990167	3.6357492	26.802544
132	7	7	0.10558041	0.77052416	3.0812463	25.114385
133	4	1	0.54390222	0.19108717	-4.8436211	25.602924
134	4	2	-0.68043929	-0.26193081	-4.8383253	26.778133
135	4	3	-0.52112394	1.4374489	-5.4790225	25.297886
136	4	4	0.031604364	2.2479078	-6.1572782	26.307905
137	4	4	-0.14520585	1.6356504	-7.5160097	26.66306
138	4	4	-0.14163657	2.4911265	-8.2481368	27.708651
139	4	4	-0.13743564	1.9848143	-9.6701973	27.99718
140	4	4	-0.12162324	0.67053569	-9.6804743	28.79435
141	4	4	0.18496131	0.2363146	-11.10779	29.16293
142	4	3	-0.63582777	1.1862906	-11.745701	30.070079
143	4	9	0.59375501	1.3522155	-11.341363	31.265386
144	4	2	-0.4601058	1.5144705	-10.94646	32.427489
145	4	6	0.033438011	-0.770771	-11.08126	29.634667
146	4	6	0.033438011	0.15769112	-11.718599	28.238489
147	4	7	0.083199225	-0.13891999	-9.2282845	28.183031
148	4	7	0.083199225	0.77995546	-9.073722	29.719159
149	4	7	0.087043054	1.8534996	-10.224557	27.042012
150	4	7	0.087043054	2.7691482	-10.19571	28.584798
151	4	7	0.088326781	3.5323525	-8.3261619	27.328307
152	4	7	0.088326781	2.5206514	-7.6600084	28.652222
153	4	7	0.089572302	0.61218719	-7.3586665	27.061546
154	4	7	0.089572302	1.5658497	-8.1329317	25.739954
155	4	6	0.055198199	2.3307257	-5.5179697	27.214537
156	4	6	0.055198199	3.2713052	-6.3119917	25.903168
157	4	5	0.32036678	1.8080895	-5.4003758	24.324257
158	5	8	-0.12915511	1.8012289	6.9699251	24.407387
159	5	4	0.075318723	0.92942643	6.0704845	25.044218
160	5	6	0.094252213	1.4943793	5.1493117	25.318302
161	5	4	-0.14023484	-0.20059186	5.6630533	24.06555
162	5	7	0.10488021	0.070221968	5.9617272	23.028923
163	5	7	0.10488021	-0.29478117	4.5553206	24.056302
164	5	4	-0.1959725	-1.5799576	6.2541007	24.414276
165	5	7	0.10720061	-2.0396657	5.6434003	25.222297
166	5	7	0.10720061	-2.2495347	6.1806176	23.529488
167	5	4	0.12808829	-1.4992027	7.7189899	24.885194
168	5	10	-0.70212691	-1.2268965	8.5767072	23.804101
169	5	11	0.39826599	-0.31222606	8.3751086	23.478523
170	5	6	0.075558855	-2.5080398	7.9923528	25.265146
171	5	4	-0.19597257	-0.48601418	7.9338987	26.042767
172	5	7	0.10720061	0.17985734	8.7951553	25.812426
173	5	7	0.10720061	-1.0359532	8.2005909	26.971596
174	5	4	-0.14023485	0.38083466	6.698849	26.337444
175	5	7	0.10488019	-0.22293069	5.9435884	26.885577
176	5	7	0.10488019	1.2242316	6.9899385	27.00177
177	6	1	0.54390217	0.12943832	-2.3765245	55.363381
178	6	2	-0.68043923	0.88391917	-2.159669	56.349253
179	6	3	-0.52112388	0.62189887	-2.2656223	54.025833
180	6	4	0.03160436	2.0101127	-1.9001976	53.74748
181	6	4	-0.14520585	2.2697843	-1.8500895	52.238508
182	6	4	-0.14181995	3.7224912	-1.4490846	51.940389
183	6	4	-0.14181995	4.0829927	-1.5631098	50.448464
184	6	4	-0.14391846	3.2661279	-0.65544492	49.510719
185	6	4	0.029923967	3.4548421	0.83855584	49.806155
186	6	3	-0.47824999	2.8019097	1.6562885	48.784868
187	6	1	0.81340635	2.8410684	3.0852681	48.829732
188	6	2	-0.60091513	3.4471515	3.684523	49.757787
189	6	5	0.32832629	2.2837356	1.2059961	47.996126
190	6	6	0.058786011	3.0124428	1.0842322	50.794299
191	6	6	0.058786011	4.5404811	1.0789123	49.826199
192	6	7	0.089572302	2.1882323	-0.91827794	49.559667
193	6	7	0.089572302	3.6028814	-0.8560929	48.471006
194	6	7	0.088326781	5.1627512	-1.3240741	50.32714
195	6	7	0.088326781	3.9475927	-2.6178943	50.126709
196	6	7	0.088326781	3.9152502	-0.41804399	52.306689
197	6	7	0.088326781	4.4030377	-2.1250858	52.502387
198	6	7	0.089572302	1.5773195	-1.1097785	51.785158
199	6	7	0.089572302	2.0624987	-2.8513344	51.79942
200	6	6	0.055198199	2.684692	-2.6493316	54.216038
201	6	6	0.055198199	2.2201631	-0.90196593	54.191886
202	6	5	0.32036675	-0.042635053	-2.4554709	53.241312
203	7	8	-0.52133798	2.3661259	3.6365647	48.090916
204	7	4	0.19254631	1.2277724	2.908811	47.705121
205	7	6	0.090138442	1.507852	1.8354621	47.585586
206	7	4	-0.15949125	0.72158167	3.4253642	46.33494
207	7	7	0.1055804	1.5002956	4.0600882	45.858121
208	7	7	0.1055804	0.56430479	2.5597403	45.653142
209	7	4	-0.14871862	-0.59694341	4.218367	46.40867
210	7	7	0.10460372	-1.4457473	3.5011482	46.468229
211	7	7	0.10460372	-0.72990887	4.8034464	45.473008
212	7	4	0.074779927	-0.65854029	5.1616498	47.6259
213	7	8	-0.12915512	0.18510401	6.2713231	47.438992
214	7	6	0.094252191	-1.6973998	5.5539185	47.677488
215	7	4	-0.1487186	-0.35674412	4.4451338	48.970241
216	7	7	0.10460371	0.39512501	5.0230077	49.55161
217	7	7	0.10460371	-1.2796856	4.4171145	49.589779
218	7	4	-0.15949126	0.14959729	3.0031449	48.79779
219	7	7	0.10558041	-0.70312983	2.3400788	48.531824
220	7	7	0.10558041	0.55862706	2.6383837	49.764779
221	4	1	0.54390222	-0.90306235	-2.6495623	55.533577
222	4	2	-0.68043929	-1.4576753	-3.4817825	54.767951
223	4	3	-0.52112394	-1.6233974	-2.0543676	56.618502
224	4	4	0.031604364	-3.0203955	-2.3718155	56.909427
225	4	4	-0.14520585	-3.1297729	-3.7439293	57.582097
226	4	4	-0.14163657	-4.59248	-4.0792647	57.912472
227	4	4	-0.13743564	-4.7352424	-5.3878325	58.705647
228	4	4	-0.12162324	-4.4492841	-6.6328001	57.850546
229	4	4	0.18496131	-4.6988429	-7.9326435	58.631416
230	4	3	-0.63582777	-6.105552	-8.0864786	58.991706
231	4	9	0.59375501	-7.0084091	-8.2789741	58.115593
232	4	2	-0.4601058	-7.8864688	-8.4644346	57.262731
233	4	6	0.033438011	-4.3720939	-8.8032231	58.020853
234	4	6	0.033438011	-4.0893975	-7.9266122	59.56007
235	4	7	0.083199225	-3.3853766	-6.6289683	57.531969
236	4	7	0.083199225	-5.0800904	-6.6208342	56.935486
237	4	7	0.087043054	-4.0580604	-5.3697117	59.58769
238	4	7	0.087043054	-5.779105	-5.4409846	59.085336
239	4	7	0.088326781	-5.0179075	-3.2577436	58.528115
240	4	7	0.088326781	-5.1876859	-4.1401411	56.974861
241	4	7	0.089572302	-2.7143632	-4.514982	56.900967
242	4	7	0.089572302	-2.528271	-3.7362232	58.517899
243	4	6	0.055198199	-3.614304	-2.3501418	55.969023
244	4	6	0.055198199	-3.4307213	-1.5964192	57.591691
245	4	5	0.32036678	-1.1452306	-1.318984	57.186023
246	5	8	-0.12915511	1.1229658	5.9433169	47.431764
247	5	4	0.075318723	1.0663715	4.5414094	47.509473
248	5	6	0.094252213	0.32101638	4.2503394	48.285731
249	5	4	-0.14023484	2.4475508	3.990212	47.944511
250	5	7	0.10488021	3.0787726	4.8174428	48.337435
251	5	7	0.10488021	2.308336	3.2774162	48.786277
252	5	4	-0.1959725	3.2155841	3.2602222	46.826103
253	5	7	0.10720061	2.8166921	2.2262998	46.730842
254	5	7	0.10720061	4.2872666	3.1710382	47.109166
255	5	4	0.12808829	3.0950198	3.9655977	45.461516
256	5	10	-0.70212691	3.8626275	5.1441	45.43909
257	5	11	0.39826599	3.4577012	5.7833289	46.079937
258	5	6	0.075558855	3.5360506	3.2812229	44.703911
259	5	4	-0.19597257	1.6246871	4.2439899	45.045186
260	5	7	0.10720061	1.514435	5.3015431	44.717114
261	5	7	0.10720061	1.3623484	3.6131419	44.16798
262	5	4	-0.14023485	0.6060861	3.9597856	46.161111
263	5	7	0.10488019	0.46413864	2.8621781	46.263627
264	5	7	0.10488019	-0.3791308	4.3934776	45.880683
265	6	1	0.54390217	1.1186389	2.4491314	80.934205
266	6	2	-0.68043923	1.595156	3.6156483	80.914693
267	6	3	-0.52112388	1.559194	1.4622268	79.998373
268	6	4	0.03160436	2.5733942	1.7615931	78.988457
269	6	4	-0.14520585	2.8561491	0.53348946	78.117395
270	6	4	-0.14181995	3.9082647	0.84791203	77.043045
271	6	4	-0.14181995	4.3608814	-0.39895599	76.262492
272	6	4	-0.14391846	3.2483261	-1.109855	75.470449
273	6	4	0.029923967	2.6221843	-0.2227402	74.386056
274	6	3	-0.47824999	1.7009391	-0.99377883	73.552484
275	6	1	0.81340635	0.99487089	-0.39469408	72.462486
276	6	2	-0.60091513	1.1506381	0.82479729	72.18625
277	6	5	0.32832629	1.5354973	-2.0084563	73.743375
278	6	6	0.058786011	2.0605826	0.60926027	74.860271
279	6	6	0.058786011	3.4251075	0.20233306	73.744642
280	6	7	0.089572302	2.4596534	-1.4808283	76.158715
281	6	7	0.089572302	3.6993569	-2.0004594	74.982535
282	6	7	0.088326781	5.1675742	-0.10001738	75.557071
283	6	7	0.088326781	4.8075917	-1.1251055	76.974943
284	6	7	0.088326781	3.5202748	1.6206529	76.345398
285	6	7	0.088326781	4.8063857	1.2787542	77.536721
286	6	7	0.089572302	1.9084367	0.21910418	77.631497
287	6	7	0.089572302	3.2205333	-0.29584082	78.763686
288	6	6	0.055198199	3.509495	2.0807291	79.496072
289	6	6	0.055198199	2.2126223	2.5952311	78.345826
290	6	5	0.32036675	1.1340791	0.50869502	80.054725
291	7	8	-0.52133798	0.34696971	-0.96868279	71.891428
292	7	4	0.19254631	-0.22865412	-1.9167196	72.754095
293	7	6	0.090138442	0.57118468	-2.3520772	73.398713
294	7	4	-0.15949125	-0.84910518	-3.0665605	71.921413
295	7	7	0.1055804	-0.48341396	-3.0148154	70.8725
296	7	7	0.1055804	-0.49798316	-4.0420779	72.326343
297	7	4	-0.14871862	-2.3894223	-3.0804991	71.916237
298	7	7	0.10460372	-2.7485304	-3.5500195	72.85911
299	7	7	0.10460372	-2.7511153	-3.7147671	71.078177
300	7	4	0.074779927	-2.998431	-1.6693882	71.801784
301	7	8	-0.12915512	-2.8388232	-1.1623898	70.499661
302	7	6	0.094252191	-4.0917412	-1.7753093	71.972718
303	7	4	-0.1487186	-2.4480917	-0.67829149	72.86319
304	7	7	0.10460371	-2.1367744	0.2714308	72.374985
305	7	7	0.10460371	-3.2581607	-0.41398502	73.577587
306	7	4	-0.15949126	-1.2616822	-1.2357988	73.667597
307	7	7	0.10558041	-1.6333852	-1.9710261	74.415137
308	7	7	0.10558041	-0.77942506	-0.4093529	74.23314
309	4	1	0.54390222	0.36707367	2.1937087	81.6687
310	4	2	-0.68043929	0.36612736	1.0421431	82.178863
311	4	3	-0.52112394	-0.61792741	3.1639665	82.040955
312	4	4	0.031604364	-1.6651015	2.8914815	83.023906
313	4	4	-0.14520585	-1.0895756	2.9228073	84.44339
314	4	4	-0.14163657	-2.1859591	2.658958	85.48715
315	4	4	-0.13743564	-1.6786617	2.8106077	86.929894
316	4	4	-0.12162324	-0.74306351	1.6663117	87.35198
317	4	4	0.18496131	-0.3308516	1.7795101	88.828089
318	4	3	-0.63582777	-1.4746888	1.6277978	89.723033
319	4	9	0.59375501	-2.0969057	0.5237546	89.840139
320	4	2	-0.4601058	-2.7028879	-0.55000658	89.952301
321	4	6	0.033438011	0.43249501	1.0050927	89.062696
322	4	6	0.033438011	0.13369814	2.7728475	89.005101
323	4	7	0.083199225	0.1827044	1.6974763	86.739291
324	4	7	0.083199225	-1.2359352	0.68559458	87.176864
325	4	7	0.087043054	-1.1597682	3.7873965	87.046244
326	4	7	0.087043054	-2.565367	2.8199069	87.600942
327	4	7	0.088326781	-3.0086493	3.3903454	85.334985
328	4	7	0.088326781	-2.6095371	1.6408562	85.341746
329	4	7	0.089572302	-0.29771764	2.1504735	84.529914
330	4	7	0.089572302	-0.63309034	3.9207466	84.62595
331	4	6	0.055198199	-2.1299836	1.9029888	82.813377
332	4	6	0.055198199	-2.4549189	3.6679531	82.932411
333	4	5	0.32036678	-0.62101548	4.0825148	81.543188
334	5	8	-0.12915511	-1.867537	-1.0222514	70.344132
335	5	4	0.075318723	-1.1973715	-1.5085648	71.479457
336	5	6	0.094252213	-1.7289686	-1.1562579	72.393863
337	5	4	-0.14023484	0.242592	-0.93765804	71.515564
338	5	7	0.10488021	0.33299392	-0.092465308	70.798195
339	5	7	0.10488021	0.44287542	-0.51374982	72.52364
340	5	4	-0.1959725	1.3398067	-1.9751446	71.21005
341	5	7	0.10720061	1.537516	-2.5712634	72.128058
342	5	7	0.10720061	2.2856545	-1.4500303	70.952739
343	5	4	0.12808829	0.95129688	-2.9356344	70.069565
344	5	10	-0.70212691	1.0009674	-2.2801215	68.826011
345	5	11	0.39826599	0.28836852	-1.5906424	68.816708
346	5	6	0.075558855	1.7247443	-3.7343018	70.042135
347	5	4	-0.19597257	-0.42525751	-3.6207243	70.289706
348	5	7	0.10720061	-1.0460821	-3.5344755	69.37028
349	5	7	0.10720061	-0.27380843	-4.7079449	70.466611
350	5	4	-0.14023485	-1.2134719	-3.0473855	71.478659
351	5	7	0.10488019	-0.77462892	-3.4199607	72.429451
352	5	7	0.10488019	-2.2632308	-3.4128722	71.436152
353	6	1	0.54390217	-1.2210138	-1.5450303	107.16398
354	6	2	-0.68043923	-1.7664777	-2.6569883	107.39685
355	6	3	-0.52112388	-1.6127775	-0.75898478	106.03593
356	6	4	0.03160436	-2.6547349	-1.2074901	105.11326
357	6	4	-0.14520585	-2.8738441	-0.18199272	103.99644
358	6	4	-0.14181995	-3.955296	-0.65680128	103.01407
359	6	4	-0.14181995	-4.3417783	0.41687962	101.98128
360	6	4	-0.14391846	-3.1980964	0.87068617	101.05579
361	6	4	0.029923967	-2.6386822	-0.26634091	100.19025
362	6	3	-0.47824999	-1.6828523	0.2487124	99.210887
363	6	1	0.81340635	-1.0265393	-0.613717	98.277615
364	6	2	-0.60091513	-1.2579997	-1.8523136	98.271827
365	6	5	0.32832629	-1.4549503	1.2686842	99.177733
366	6	6	0.058786011	-2.1222337	-1.0086388	100.83428
367	6	6	0.058786011	-3.4729586	-0.77047898	99.654885
368	6	7	0.089572302	-2.3807261	1.3331066	101.64858
369	6	7	0.089572302	-3.6008416	1.6604071	100.38586
370	6	7	0.088326781	-5.1730375	0.022037381	101.35611
371	6	7	0.088326781	-4.7360322	1.3057065	102.51885
372	6	7	0.088326781	-3.6222612	-1.584258	102.50095
373	6	7	0.088326781	-4.8717082	-0.91527386	103.58795
374	6	7	0.089572302	-1.9147901	-0.038331752	103.45545
375	6	7	0.089572302	-3.1805389	0.78806478	104.4472
376	6	6	0.055198199	-3.602229	-1.3517893	105.6765
377	6	6	0.055198199	-2.3518599	-2.1807342	104.667
378	6	5	0.32036675	-1.1308991	0.1565242	105.88507
379	7	8	-0.52133798	-0.35224521	-0.21728698	97.596794
380	7	4	0.19254631	0.28893394	0.8581136	98.234536
381	7	6	0.090138442	-0.47593622	1.4703717	98.768319
382	7	4	-0.15949125	0.96713782	1.7607587	97.173534
383	7	7	0.1055804	0.5868099	1.505698	96.160163
384	7	7	0.1055804	0.67958969	2.8202579	97.357019
385	7	4	-0.14871862	2.5053773	1.6796108	97.167844
386	7	7	0.10460372	2.9028251	2.3192328	97.987196
387	7	7	0.10460372	2.8944771	2.0944252	96.212862
388	7	4	0.074779927	3.0277309	0.24280585	97.362686
389	7	8	-0.12915512	2.822991	-0.52316009	96.201039
390	7	6	0.094252191	4.127331	0.31654524	97.508312
391	7	4	-0.1487186	2.4316465	-0.45994479	98.612707
392	7	7	0.10460371	2.058549	-1.4720604	98.341313
393	7	7	0.10460371	3.2327739	-0.61221325	99.368645
394	7	4	-0.15949126	1.2900712	0.32939364	99.275432
395	7	7	0.10558041	1.7136675	1.1849174	99.846556
396	7	7	0.10558041	0.76598751	-0.32429974	100.00581
397	4	1	0.54390222	-0.44703774	-1.182953	107.82688
398	4	2	-0.68043929	-0.3714382	0.049457686	108.07551
399	4	3	-0.52112394	0.48258939	-2.1077579	108.40197
400	4	4	0.031604364	1.5555414	-1.6932827	109.30419
401	4	4	-0.14520585	0.99575588	-1.3818198	110.69587
402	4	4	-0.14163657	2.1180199	-0.96559798	111.6594
403	4	4	-0.13743564	1.6194286	-0.770499	113.09996
404	4	4	-0.12162324	0.75875551	0.49269565	113.26273
405	4	4	0.18496131	0.35775692	0.72670075	114.72768
406	4	3	-0.63582777	1.5189615	0.99858151	115.57029
407	4	9	0.59375501	2.2072658	2.061916	115.44645
408	4	2	-0.4601058	2.877501	3.0956601	115.32432
409	4	6	0.033438011	-0.35523729	1.578455	114.7878
410	4	6	0.033438011	-0.16313838	-0.17472713	115.11492
411	4	7	0.083199225	-0.17430078	0.3860754	112.66991
412	4	7	0.083199225	1.3071894	1.3805147	112.88012
413	4	7	0.087043054	1.0445703	-1.6656187	113.42431
414	4	7	0.087043054	2.5117604	-0.68831205	113.75846
415	4	7	0.088326781	2.8937762	-1.7611978	111.67054
416	4	7	0.088326781	2.5998651	-0.03071259	111.29759
417	4	7	0.089572302	0.25245274	-0.56239116	110.61184
418	4	7	0.089572302	0.48270026	-2.2870219	111.08954
419	4	6	0.055198199	2.0760888	-0.8038451	108.88528
420	4	6	0.055198199	2.296503	-2.5176945	109.38427
421	4	5	0.32036678	0.42506433	-3.1106721	108.11498
422	5	8	-0.12915511	1.8433271	-0.63432611	96.078052
423	5	4	0.075318723	1.2166501	0.12583646	97.080058
424	5	6	0.094252213	1.7369013	-0.052000604	98.049885
425	5	4	-0.14023484	-0.25429258	-0.33515531	97.236733
426	5	7	0.10488021	-0.4033175	-1.3084036	96.719316
427	5	7	0.10488021	-0.46774852	-0.51802494	98.312384
428	5	4	-0.1959725	-1.2911366	0.67641438	96.712064
429	5	7	0.10720061	-1.4422126	1.4678603	97.478859
430	5	7	0.10720061	-2.2695653	0.16655388	96.573133
431	5	4	0.12808829	-0.85933033	1.342072	95.39122
432	5	10	-0.70212691	-0.96251483	0.43737399	94.319088
433	5	11	0.39826599	-0.29248055	-0.27979934	94.460444
434	5	6	0.075558855	-1.584014	2.1613957	95.190259
435	5	4	-0.19597257	0.55812006	1.9736038	95.459879
436	5	7	0.10720061	1.1619338	1.6529733	94.581921
437	5	7	0.10720061	0.4738826	3.0804979	95.396867
438	5	4	-0.14023485	1.324526	1.6241696	96.746007
439	5	7	0.10488019	0.9198066	2.2195316	97.592853
440	5	7	0.10488019	2.3936547	1.9073223	96.626972
441	6	1	0.54390217	-3.8098225	26.584184	-2.2109051
442	6	2	-0.68043923	-4.8116188	27.203646	-1.7627069
443	6	3	-0.52112388	-3.0964721	25.654888	-1.3915206
444	6	4	0.03160436	-3.4962612	25.385274	-0.011075005
445	6	4	-0.14520585	-2.5635679	24.357092	0.63689385
446	6	4	-0.14181995	-2.9685934	24.083583	2.0933224
447	6	4	-0.14181995	-2.1787757	22.925654	2.7290836
448	6	4	-0.14391846	-0.65815897	23.148759	2.8209398
449	6	4	0.029923967	-0.27942066	24.354235	3.6917553
450	6	3	-0.47824999	1.1679999	24.417828	3.8891528
451	6	1	0.81340635	1.7736197	25.448405	4.674432
452	6	2	-0.60091513	1.069813	26.336748	5.2250977
453	6	5	0.32832629	1.7950301	23.705326	3.4503407
454	6	6	0.058786011	-0.61232925	25.29191	3.199375
455	6	6	0.058786011	-0.77876333	24.268701	4.6817683
456	6	7	0.089572302	-0.22153123	23.26217	1.8061343
457	6	7	0.089572302	-0.21053589	22.234931	3.2672778
458	6	7	0.088326781	-2.5769245	22.74702	3.7524622
459	6	7	0.088326781	-2.3660668	22.000158	2.143584
460	6	7	0.088326781	-2.8547975	25.007586	2.6996601
461	6	7	0.088326781	-4.0456157	23.809216	2.1199283
462	6	7	0.089572302	-1.5261289	24.751841	0.60546678
463	6	7	0.089572302	-2.6049043	23.409553	0.054900137
464	6	6	0.055198199	-4.5385487	24.998785	-0.0028269845
465	6	6	0.055198199	-3.4615392	26.33352	0.57005162
466	6	5	0.32036675	-2.2720206	25.165601	-1.808653
467	7	8	-0.52133798	2.8035829	25.466579	4.7935638
468	7	4	0.19254631	3.3623356	24.978259	3.6003951
469	7	6	0.090138442	2.7973504	24.070691	3.2811411
470	7	4	-0.15949125	4.8336925	24.561473	3.849094
471	7	7	0.1055804	5.0310403	24.501771	4.9418499
472	7	7	0.1055804	4.9966232	23.536725	3.4463094
473	7	4	-0.14871862	5.8716443	25.497549	3.2016263
474	7	7	0.10460372	5.965723	25.239931	2.1231087
475	7	7	0.10460372	6.8666562	25.324583	3.6658408
476	7	4	0.074779927	5.4913257	26.985999	3.3245065
477	7	8	-0.12915512	5.6697034	27.438097	4.6442921
478	7	6	0.094252191	6.2065176	27.554776	2.6914515
479	7	4	-0.1487186	4.0580843	27.294866	2.8125009
480	7	7	0.10460371	3.5061172	27.902398	3.5631482
481	7	7	0.10460371	4.1199541	27.913848	1.8908362
482	7	4	-0.15949126	3.2359078	26.035536	2.4906803
483	7	7	0.10558041	3.5840758	25.601605	1.527342
484	7	7	0.10558041	2.1689804	26.316707	2.3563943
485	4	1	0.54390222	-3.4873674	26.759437	-3.2281971
486	4	2	-0.68043929	-3.0324209	25.80117	-3.9072535
487	4	3	-0.52112394	-3.5741084	28.077195	-3.7815434
488	4	4	0.031604364	-3.1561569	28.391238	-5.1467201
489	4	4	-0.14520585	-4.1973476	27.893452	-6.1543293
490	4	4	-0.14163657	-3.7790661	28.237241	-7.5923697
491	4	4	-0.13743564	-4.856673	27.872465	-8.6255971
492	4	4	-0.12162324	-4.9910584	26.354941	-8.8304746
493	4	4	0.18496131	-5.9974248	26.014626	-9.9408993
494	4	3	-0.63582777	-5.5471239	26.492717	-11.245109
495	4	9	0.59375501	-4.5291658	25.999906	-11.828785
496	4	2	-0.4601058	-3.5377948	25.521329	-12.39527
497	4	6	0.033438011	-6.1522213	24.913714	-9.9795022
498	4	6	0.033438011	-6.9768244	26.483011	-9.7058442
499	4	7	0.083199225	-5.3513318	25.883266	-7.8917889
500	4	7	0.083199225	-4.0011169	25.913575	-9.0766577
501	4	7	0.087043054	-5.8351943	28.30176	-8.3172055
502	4	7	0.087043054	-4.5727433	28.34477	-9.5914902
503	4	7	0.088326781	-3.5962321	29.331255	-7.6602388
504	4	7	0.088326781	-2.8265093	27.720612	-7.8430136
505	4	7	0.089572302	-4.3057641	26.79424	-6.0494331
506	4	7	0.089572302	-5.1765981	28.369722	-5.9266773
507	4	6	0.055198199	-2.1643306	27.930818	-5.3512933
508	4	6	0.055198199	-3.0493215	29.493015	-5.2455397
509	4	5	0.32036678	-3.8935606	28.85471	-3.1611138
510	5	8	-0.12915511	5.0086455	26.969149	5.2190227
511	5	4	0.075318723	4.3396044	26.043208	4.4007298
512	5	6	0.094252213	4.0734831	26.535986	3.4367781
513	5	4	-0.14023484	3.0239038	25.599557	5.0883627
514	5	7	0.10488021	2.7844744	26.288504	5.9281048
515	5	7	0.10488021	2.1849696	25.687408	4.3641384
516	5	4	-0.1959725	3.0456947	24.15249	5.6166794
517	5	7	0.10720061	2.8547641	23.456982	4.7699219
518	5	7	0.10720061	2.2187787	24.011551	6.3466985
519	5	4	0.12808829	4.3884076	23.777468	6.2729312
520	5	10	-0.70212691	4.5255584	24.405995	7.5238251
521	5	11	0.39826599	4.5955687	25.38271	7.3676504
522	5	6	0.075558855	4.3591853	22.682564	6.4657348
523	5	4	-0.19597257	5.6143215	24.062655	5.362703
524	5	7	0.10720061	6.390889	24.620576	5.9318008
525	5	7	0.10720061	6.0793694	23.10054	5.0555447
526	5	4	-0.14023485	5.2645541	24.852886	4.0911656
527	5	7	0.10488019	4.7652879	24.179704	3.3611243
528	5	7	0.10488019	6.200888	25.217796	3.6141957
529	6	1	0.54390217	1.5619025	25.432488	21.605566
530	6	2	-0.68043923	2.508559	24.691368	21.227686
531	6	3	-0.52112388	1.6441592	26.155626	22.836077
532	6	4	0.03160436	2.8204485	26.06764	23.700226
533	6	4	-0.14520585	2.6458268	26.93531	24.950664
534	6	4	-0.14181995	3.8717337	26.832397	25.870772
535	6	4	-0.14181995	3.825154	27.824337	27.046651