Title

504 atoms
521 bonds
905 angles
1371 dihedrals
426 impropers

12 atom types
18 bond types
11 angle types
29 dihedral types
3 improper types
-16.29899979 83.70100021 xlo xhi
-45.38100052 54.61899948 ylo yhi
-10.80799961 89.19200039 zlo zhi
0.0 0.0 0.0 xy xz yz

Masses

1	15.99943
2	12.01078
3	14.00672
4	1.007947
5	12.01078
6	1.007947
7	1.007947
8	15.99943
9	1.007947
10	12.01078
11	15.99943
12	1.007947


Pair Coeffs

1	0.2102061	3.0398122
2	0.086879315	3.4806469
3	0.16769152	3.206876
4	0.015611343	2.5725815
5	0.10884061	3.3795318
6	0.014090815	1.1034277
7	0.015779483	2.6445434
8	0.16846514	3.0251065
9	0.016409246	2.5832257
10	0.21	3.3996695
11	0.20947353	2.99716
12	1.2326e-05	0.53453923

Bond Coeffs

1 harmonic	582.698766451	1.225198386222
2 harmonic	492.76746816345	1.381897776683
3 harmonic	301.15400723785	1.345741232799
4 harmonic	390.03554688505	1.390160554689
5 harmonic	505.144496193	1.019481865027
6 harmonic	360.7852444772	1.387193227181
7 harmonic	397.2545789619	1.085358495916
8 harmonic	289.73813263395	1.498646816465
9 harmonic	370.04670688625	1.093899492634
10 harmonic	279.1350963404	1.454628925034
11 harmonic	366.7408841747	1.425895053732
12 harmonic	264.62148576755	1.52190126495
13 harmonic	366.34047229585	1.464762957261
14 harmonic	300.03137914615	1.451203938761
15 harmonic	382.5450169811	1.379244394267
16 harmonic	602.81384337	1.196112346392
17 harmonic	329.96998057905	1.427343958716
18 harmonic	543.5267831885	0.9716763312559


Angle Coeffs

1 harmonic	57.8982893754	126.8062420451
2 harmonic	201.41175231035	127.4691416191
3 harmonic	55.42182150775	117.3465570514
4 harmonic	63.44422595415	115.5071327674
5 harmonic	65.09061609600001	110.3538806181
6 harmonic	34.066775159195	129.1835929926
7 harmonic	53.20531626545	116.5475862634
8 harmonic	48.776492647595	115.6030999533
9 harmonic	49.015990027215	114.8414599994
10 harmonic	55.07882548015	112.8714009681
11 harmonic	33.56981613361	180


Dihedral Coeffs

1 fourier 1	1.809047390003	2	180
2 fourier 1	-0.04816277792592	1	0
3 fourier 1	0.4860993122944	2	180
4 fourier 1	0.8916986138746	1	0
5 fourier 1	1.163809172478	2	180
6 fourier 1	0.1679186987369	1	180
7 fourier 1	1.193093382682	2	180
8 fourier 1	0.1918272375143	3	0
9 fourier 1	0.9202179876409	1	180
10 fourier 1	0.0473758381877	3	0
11 fourier 1	2.779853741805	2	180
12 fourier 1	3.661930099076	2	180
13 fourier 1	0.02664938770063	3	0
14 fourier 1	3.101948770557	2	180
15 fourier 1	-0.4252153282372	1	0
16 fourier 1	0.9974165607242	2	180
17 fourier 1	2.348375642009	2	180
18 fourier 1	1.256156174911	1	0
19 fourier 1	0.1155372516788	3	0
20 fourier 1	0.1040663847541	3	0
21 fourier 1	0.2810888471023	3	0
22 fourier 1	0.05324557188047	2	180
23 fourier 1	0.2036670163956	3	0
24 fourier 1	0.457973137376	1	0
25 fourier 1	1.550515418264	2	180
26 fourier 1	0	1	0
27 fourier 1	0.3445382149273	3	0
28 fourier 1	0.1364556373303	1	0
29 fourier 1	0.3026390167484	3	0


Improper Coeffs

1 3.5	-1	2
2 0.3333333333333333	-1	2
3 0.3666666666666667	-1	2


Atoms

1	1	1	-0.55797797	5.888	1.24	-0.66600001
2	1	2	0.81648898	5.763	0.13699999	-1.261
3	1	3	-0.47156	4.664	-0.73799998	-0.98100001
4	1	2	0.226577	3.517	-0.37	-0.19499999
5	1	2	-0.370285	2.8740001	-1.309	0.51999998
6	1	2	-0.14523999	1.6849999	-0.95899999	1.324
7	1	2	-0.247705	1.228	0.30500001	1.3430001
8	1	2	-0.14523999	1.906	1.335	0.51999998
9	1	2	-0.370285	2.983	1.017	-0.208
10	1	4	0.21401501	3.4389999	1.776	-0.829
11	1	4	0.212329	1.521	2.346	0.493
12	1	5	-0.051493	-0.0060000001	0.66500002	2.1259999
13	1	2	-0.247705	-1.234	0.47	1.28
14	1	2	-0.14523999	-1.6900001	1.4579999	0.491
15	1	2	-0.38259301	-2.8740001	1.243	-0.366
16	1	2	0.20296	-3.5139999	0.061000001	-0.36300001
17	1	2	-0.38259301	-2.983	-1.044	0.477
18	1	2	-0.14523999	-1.91	-0.84899998	1.253
19	1	4	0.212329	-1.527	-1.666	1.852
20	1	4	0.21401501	-3.4360001	-2.026	0.44600001
21	1	3	-0.509112	-4.6560001	-0.12899999	-1.216
22	1	2	0.57014501	-5.7550001	-0.995	-0.90799999
23	1	1	-0.61737603	-5.8860002	-1.506	0.235
24	1	6	0.319841	-4.737	0.44999999	-2.082
25	1	4	0.21401501	-3.227	2.056	-0.98799998
26	1	4	0.212329	-1.1950001	2.421	0.47
27	1	7	0.124608	0.061999999	1.72	2.4719999
28	1	7	0.124608	-0.077	0.039999999	3.043
29	1	4	0.212329	1.189	-1.735	1.893
30	1	4	0.21401501	3.2290001	-2.332	0.52700001
31	1	6	0.32387701	4.7480001	-1.726	-1.313
32	1	8	-0.48464099	9.8610001	0.02	-4.461
33	1	5	0.098614	8.9069996	0.285	-3.467
34	1	5	-0.011567	7.4920001	0.43200001	-4.086
35	1	5	0.098614	6.467	0.78500003	-2.9749999
36	1	8	-0.48464099	6.4910002	-0.15800001	-1.938
37	1	9	0.109246	5.4419999	0.833	-3.4089999
38	1	9	0.109246	6.704	1.788	-2.552
39	1	5	0.061577	7.0679998	-0.866	-4.8340001
40	1	3	-0.71370697	7.0489998	-2.039	-3.924
41	1	5	0.087279998	8.0450001	-3.0480001	-4.3210001
42	1	9	0.079677999	7.822	-3.457	-5.3319998
43	1	9	0.079677999	8.059	-3.8829999	-3.5869999
44	1	9	0.079677999	9.0620003	-2.6029999	-4.3280001
45	1	5	0.087279998	5.7140002	-2.6559999	-3.868
46	1	9	0.079677999	4.9619999	-1.9119999	-3.5280001
47	1	9	0.079677999	5.7059999	-3.4890001	-3.1329999
48	1	9	0.079677999	5.4099998	-3.046	-4.8649998
49	1	9	0.099446997	6.0689998	-0.69300002	-5.3010001
50	1	9	0.099446997	7.7550001	-1.029	-5.697
51	1	5	-0.16051701	7.5079999	1.597	-5.1020002
52	1	7	0.092352003	6.494	1.761	-5.5279999
53	1	7	0.092352003	8.2010002	1.385	-5.9439998
54	1	7	0.092352003	7.835	2.5420001	-4.6149998
55	1	9	0.109246	9.1820002	1.225	-2.9360001
56	1	9	0.109246	8.9180002	-0.53899997	-2.7190001
57	1	1	-0.55797797	21.011999	-5.8039999	-5.6690001
58	1	2	0.81648898	20.121	-6.6929998	-5.6469998
59	1	3	-0.47156	18.91	-6.5139999	-4.902
60	1	2	0.226577	18.5	-5.2680001	-4.3119998
61	1	2	-0.370285	17.763	-5.277	-3.188
62	1	2	-0.14523999	17.318001	-4.0110002	-2.5710001
63	1	2	-0.247705	17.641001	-2.8329999	-3.132
64	1	2	-0.14523999	18.415001	-2.819	-4.3959999
65	1	2	-0.370285	18.819	-3.9660001	-4.9549999
66	1	4	0.21401501	19.35	-3.9330001	-5.8969998
67	1	4	0.212329	18.643999	-1.878	-4.881
68	1	5	-0.051493	17.159	-1.539	-2.5350001
69	1	2	-0.247705	15.808	-1.1799999	-3.092
70	1	2	-0.14523999	15.699	-0.46599999	-4.2249999
71	1	2	-0.370285	14.368	-0.152	-4.7839999
72	1	2	0.226577	13.251	-0.56999999	-4.165
73	1	2	-0.370285	13.374	-1.397	-2.9360001
74	1	2	-0.14523999	14.58	-1.681	-2.4300001
75	1	4	0.212329	14.656	-2.2939999	-1.54
76	1	4	0.21401501	12.495	-1.806	-2.457
77	1	3	-0.47156	11.966	-0.26499999	-4.7360001
78	1	2	0.81648898	10.771	-0.071000002	-3.971
79	1	1	-0.55797797	10.807	0.037999999	-2.717
80	1	6	0.32387701	11.902	-0.1	-5.7659998
81	1	4	0.21401501	14.305	0.43099999	-5.6950002
82	1	4	0.212329	16.582001	-0.113	-4.744
83	1	7	0.124608	17.891001	-0.72899997	-2.7479999
84	1	7	0.124608	17.1	-1.622	-1.428
85	1	4	0.212329	16.728001	-4.0479999	-1.664
86	1	4	0.21401501	17.497999	-6.2140002	-2.714
87	1	6	0.32387701	18.334999	-7.368	-4.7210002
88	1	8	-0.48464099	22.079	-10.44	-8.6759996
89	1	5	0.098614	21.837	-9.3190002	-7.869
90	1	5	-0.011567	20.604	-8.5270004	-8.3780003
91	1	5	0.098614	20.396	-7.2600002	-7.506
92	1	8	-0.48464099	20.285	-7.586	-6.1469998
93	1	9	0.109246	19.478001	-6.723	-7.836
94	1	9	0.109246	21.26	-6.5679998	-7.638
95	1	5	0.061577	19.325001	-9.4139996	-8.3739996
96	1	3	-0.71370697	19.014	-9.9169998	-7.0120001
97	1	5	0.087279998	19.106001	-11.385	-6.9419999
98	1	9	0.079677999	18.358999	-11.867	-7.6110001
99	1	9	0.079677999	18.937	-11.73	-5.9000001
100	1	9	0.079677999	20.122999	-11.72	-7.2360001
101	1	5	0.087279998	17.677999	-9.4829998	-6.5700002
102	1	9	0.079677999	17.614	-8.3739996	-6.579
103	1	9	0.079677999	17.493	-9.8140001	-5.526
104	1	9	0.079677999	16.882999	-9.8970003	-7.23
105	1	9	0.099446997	18.481001	-8.8179998	-8.7939997
106	1	9	0.099446997	19.461	-10.252	-9.0979996
107	1	5	-0.16051701	20.871	-8.0640001	-9.8290005
108	1	7	0.092352003	20.025	-7.4499998	-10.207
109	1	7	0.092352003	20.993999	-8.9329996	-10.51
110	1	7	0.092352003	21.796	-7.4489999	-9.8839998
111	1	9	0.109246	22.735001	-8.6599998	-7.8779998
112	1	9	0.109246	21.676001	-9.651	-6.8189998
113	1	1	-0.55797797	27.162001	-21.971001	-7.7129998
114	1	2	0.81648898	26.013	-22.018999	-7.1999998
115	1	3	-0.47156	25.438999	-20.879	-6.5500002
116	1	2	0.226577	25.992001	-19.552	-6.6069999
117	1	2	-0.370285	25.819	-18.716	-5.5700002
118	1	2	-0.14523999	26.365	-17.344	-5.612
119	1	2	-0.247705	27.037001	-16.914	-6.6929998
120	1	2	-0.14523999	27.191999	-17.816999	-7.8579998
121	1	2	-0.370285	26.698	-19.061001	-7.8200002
122	1	4	0.21401501	26.790001	-19.688	-8.6960001
123	1	4	0.212329	27.693001	-17.466999	-8.7519999
124	1	5	-0.051493	27.563	-15.506	-6.763
125	1	2	-0.247705	26.514	-14.586	-7.3249998
126	1	2	-0.14523999	26.403999	-14.398	-8.6520004
127	1	2	-0.370285	25.344999	-13.523	-9.1960001
128	1	2	0.226577	24.483999	-12.9	-8.3739996
129	1	2	-0.370285	24.579	-13.144	-6.9109998
130	1	2	-0.14523999	25.538	-13.937	-6.4180002
131	1	4	0.212329	25.589001	-14.115	-5.3509998
132	1	4	0.21401501	23.855	-12.712	-6.2329998
133	1	3	-0.47156	23.452	-12.065	-8.9280005
134	1	2	0.81648898	22.906	-10.916	-8.2690001
135	1	1	-0.55797797	23.437	-10.444	-7.23
136	1	6	0.32387701	23.124001	-12.253	-9.9029999
137	1	4	0.21401501	25.282	-13.381	-10.268
138	1	4	0.212329	27.087	-14.884	-9.3369999
139	1	7	0.124608	28.48	-15.476	-7.3909998
140	1	7	0.124608	27.867001	-15.157	-5.7509999
141	1	4	0.212329	26.214001	-16.693001	-4.7600002
142	1	4	0.21401501	25.288	-19.042999	-4.6849999
143	1	6	0.32387701	24.608999	-21.049999	-5.9390001
144	1	8	-0.48464099	24.462999	-26.888	-8.1730003
145	1	5	0.098614	25.156	-25.681999	-7.993
146	1	5	-0.011567	24.444	-24.518999	-8.7329998
147	1	5	0.098614	25.264	-23.211	-8.5690002
148	1	8	-0.48464099	25.489	-22.914	-7.217
149	1	9	0.109246	24.723	-22.365	-9.0500002
150	1	9	0.109246	26.247999	-23.32	-9.0799999
151	1	5	0.061577	22.99	-24.327	-8.2089996
152	1	3	-0.71370697	22.969	-24.025	-6.7550001
153	1	5	0.087279998	22.289	-25.084999	-5.9920001
154	1	9	0.079677999	21.219999	-25.171	-6.29
155	1	9	0.079677999	22.347	-24.870001	-4.9029999
156	1	9	0.079677999	22.791	-26.061001	-6.1589999
157	1	5	0.087279998	22.326	-22.729	-6.4840002
158	1	9	0.079677999	22.861	-21.917	-7.0229998
159	1	9	0.079677999	22.381001	-22.493	-5.3990002
160	1	9	0.079677999	21.26	-22.735001	-6.8039999
161	1	9	0.099446997	22.506001	-23.516001	-8.8030005
162	1	9	0.099446997	22.395	-25.24	-8.4460001
163	1	5	-0.16051701	24.379	-24.85	-10.242
164	1	7	0.092352003	23.917	-24.011999	-10.808
165	1	7	0.092352003	23.771999	-25.763	-10.425
166	1	7	0.092352003	25.396999	-25.025	-10.652
167	1	9	0.109246	26.193001	-25.794001	-8.3839998
168	1	9	0.109246	25.23	-25.461	-6.9050002
169	1	1	-0.55797797	22.625	-37.832001	-2.1259999
170	1	2	0.81648898	21.896	-36.966999	-1.574
171	1	3	-0.47156	22.288	-35.59	-1.516
172	1	2	0.226577	23.395	-35.034	-2.2460001
173	1	2	-0.370285	24.073	-33.993999	-1.733
174	1	2	-0.14523999	25.205	-33.396	-2.471
175	1	2	-0.247705	25.566	-33.882999	-3.6700001
176	1	2	-0.14523999	24.792999	-35.000999	-4.2610002
177	1	2	-0.370285	23.768	-35.542999	-3.5929999
178	1	4	0.21401501	23.195	-36.332001	-4.0609999
179	1	4	0.212329	25.046	-35.373001	-5.2459998
180	1	5	-0.051493	26.690001	-33.256001	-4.448
181	1	2	-0.247705	26.167999	-32.138	-5.309
182	1	2	-0.14523999	25.712	-32.381001	-6.5489998
183	1	2	-0.370285	25.165001	-31.282	-7.3709998
184	1	2	0.226577	25.122	-30.027	-6.8940001
185	1	2	-0.370285	25.587	-29.768	-5.5050001
186	1	2	-0.14523999	26.083	-30.764	-4.7610002
187	1	4	0.212329	26.407	-30.563999	-3.747
188	1	4	0.21401501	25.499001	-28.781	-5.0710001
189	1	3	-0.47156	24.572001	-28.976	-7.7069998
190	1	2	0.81648898	24.993	-27.608	-7.6479998
191	1	1	-0.55797797	26.021999	-27.267	-7.007
192	1	6	0.32387701	23.872999	-29.225	-8.4429998
193	1	4	0.21401501	24.809999	-31.500999	-8.3710003
194	1	4	0.212329	25.736	-33.382	-6.961
195	1	7	0.124608	27.188999	-34.026001	-5.0770001
196	1	7	0.124608	27.469	-32.867001	-3.756
197	1	4	0.212329	25.735001	-32.560001	-2.0309999
198	1	4	0.21401501	23.806	-33.589001	-0.764
199	1	6	0.32387701	21.775	-34.979	-0.84100002
200	1	8	-0.48464099	17.780001	-39.708	0.039000001
201	1	5	0.098614	19.017	-39.245998	-0.435
202	1	5	-0.011567	18.82	-38.23	-1.592
203	1	5	0.098614	20.202	-37.782001	-2.1389999
204	1	8	-0.48464099	21.013	-37.264999	-1.119
205	1	9	0.109246	20.061001	-37.009998	-2.9289999
206	1	9	0.109246	20.721001	-38.652	-2.6029999
207	1	5	0.061577	17.987	-37	-1.124
208	1	3	-0.71370697	18.648001	-36.290001	0.001
209	1	5	0.087279998	17.834999	-36.344002	1.227
210	1	9	0.079677999	16.858999	-35.827	1.085
211	1	9	0.079677999	18.379999	-35.866001	2.069
212	1	9	0.079677999	17.645	-37.398998	1.517
213	1	5	0.087279998	18.934	-34.888	-0.34299999
214	1	9	0.079677999	19.584	-34.84	-1.244
215	1	9	0.079677999	19.487	-34.395	0.486
216	1	9	0.079677999	17.996	-34.324001	-0.54299998
217	1	9	0.099446997	17.832001	-36.327	-1.999
218	1	9	0.099446997	16.962	-37.34	-0.847
219	1	5	-0.16051701	18.058001	-38.924999	-2.744
220	1	7	0.092352003	17.943001	-38.237	-3.6099999
221	1	7	0.092352003	17.042	-39.237999	-2.4200001
222	1	7	0.092352003	18.604	-39.828999	-3.0899999
223	1	9	0.109246	19.618	-40.111	-0.79699999
224	1	9	0.109246	19.577999	-38.773998	0.40200001
225	1	1	-0.55797797	12.727	-44.159	10.733
226	1	2	0.81648898	12.819	-42.909	10.85
227	1	3	-0.47156	13.87	-42.176998	10.207
228	1	2	0.226577	14.758	-42.735001	9.2220001
229	1	2	-0.370285	16.013	-42.265999	9.1199999
230	1	2	-0.14523999	16.938999	-42.812	8.1059999
231	1	2	-0.247705	16.533001	-43.782001	7.2690001
232	1	2	-0.14523999	15.136	-44.271	7.348
233	1	2	-0.370285	14.297	-43.776001	8.2659998
234	1	4	0.21401501	13.271	-44.120998	8.2799997
235	1	4	0.212329	14.784	-45.02	6.651
236	1	5	-0.051493	17.454	-44.317001	6.2069998
237	1	2	-0.247705	17.337	-43.493999	4.9530001
238	1	2	-0.14523999	16.415001	-43.790001	4.02
239	1	2	-0.370285	16.283001	-42.951	2.8110001
240	1	2	0.226577	17.084	-41.889	2.625
241	1	2	-0.370285	18.073	-41.537998	3.678
242	1	2	-0.14523999	18.193001	-42.297001	4.7740002
243	1	4	0.212329	18.909	-42.023998	5.539
244	1	4	0.21401501	18.681	-40.647999	3.5869999
245	1	3	-0.47156	16.926001	-41.078999	1.447
246	1	2	0.81648898	17.995001	-40.369999	0.80800003
247	1	1	-0.55797797	19.195999	-40.57	1.1289999
248	1	6	0.32387701	15.994	-41.056	0.97500002
249	1	4	0.21401501	15.538	-43.213001	2.0699999
250	1	4	0.212329	15.758	-44.641998	4.1430001
251	1	7	0.124608	17.208	-45.381001	5.9949999
252	1	7	0.124608	18.506001	-44.307999	6.5679998
253	1	4	0.212329	17.945999	-42.417999	8.0489998
254	1	4	0.21401501	16.365	-41.491001	9.7889996
255	1	6	0.32387701	14.038	-41.200001	10.538
256	1	8	-0.48464099	8.7720003	-41.676998	13.875
257	1	5	0.098614	9.8000002	-42.294998	13.149
258	1	5	-0.011567	9.7740002	-41.848999	11.664
259	1	5	0.098614	10.881	-42.594002	10.871
260	1	8	-0.48464099	12.143	-42.405998	11.454
261	1	9	0.109246	10.9	-42.230999	9.8190002
262	1	9	0.109246	10.657	-43.685001	10.85
263	1	5	0.061577	9.9490004	-40.306999	11.537
264	1	3	-0.71370697	11.234	-39.853001	12.129
265	1	5	0.087279998	11.015	-38.966	13.283
266	1	9	0.079677999	10.486	-38.035	12.979
267	1	9	0.079677999	11.988	-38.695999	13.748
268	1	9	0.079677999	10.414	-39.485001	14.059
269	1	5	0.087279998	12.074	-39.171001	11.131
270	1	9	0.079677999	12.28	-39.849998	10.275
271	1	9	0.079677999	13.055	-38.898998	11.577
272	1	9	0.079677999	11.578	-38.25	10.751
273	1	9	0.099446997	9.8739996	-40.030998	10.459
274	1	9	0.099446997	9.0780001	-39.801998	12.016
275	1	5	-0.16051701	8.4099998	-42.236	11.048
276	1	7	0.092352003	8.3780003	-41.973	9.9680004
277	1	7	0.092352003	7.5770001	-41.703999	11.554
278	1	7	0.092352003	8.2290001	-43.328999	11.143
279	1	9	0.109246	9.677	-43.401001	13.209
280	1	9	0.109246	10.78	-42.041	13.612
281	1	1	-0.55797797	6.3270001	-38.005001	25.718
282	1	2	0.81648898	7.1009998	-37.152	25.209
283	1	3	-0.47156	8.0690002	-37.522999	24.219999
284	1	2	0.226577	8.1079998	-38.803001	23.566999
285	1	2	-0.370285	9.2860003	-39.305	23.160999
286	1	2	-0.14523999	9.3500004	-40.612	22.475
287	1	2	-0.247705	8.2270002	-41.311001	22.240999
288	1	2	-0.14523999	6.9200001	-40.741001	22.646
289	1	2	-0.370285	6.862	-39.556999	23.268
290	1	4	0.21401501	5.8940001	-39.144001	23.52
291	1	4	0.212329	6.0040002	-41.275002	22.424
292	1	5	-0.051493	8.276	-42.624001	21.507
293	1	2	-0.247705	8.1750002	-42.395	20.024
294	1	2	-0.14523999	6.9770002	-42.328999	19.417999
295	1	2	-0.370285	6.8889999	-42.063999	17.966999
296	1	2	0.226577	8.0010004	-41.891998	17.233999
297	1	2	-0.370285	9.3240004	-41.921001	17.914
298	1	2	-0.14523999	9.4040003	-42.160999	19.228001
299	1	4	0.212329	10.372	-42.167999	19.712
300	1	4	0.21401501	10.231	-41.716	17.361
301	1	3	-0.47156	7.8889999	-41.620998	15.826
302	1	2	0.81648898	8.8599997	-42.018002	14.85
303	1	1	-0.55797797	9.7939997	-42.810001	15.141
304	1	6	0.32387701	7.0149999	-41.173	15.47
305	1	4	0.21401501	5.9120002	-42.022999	17.5
306	1	4	0.212329	6.0640001	-42.466999	19.983
307	1	7	0.124608	7.448	-43.280998	21.853001
308	1	7	0.124608	9.2200003	-43.161999	21.742001
309	1	4	0.212329	10.315	-40.993999	22.162001
310	1	4	0.21401501	10.206	-38.763	23.344999
311	1	6	0.32387701	8.8330002	-36.835999	24.025
312	1	8	-0.48464099	5.7090001	-32.716999	27.542999
313	1	5	0.098614	5.9159999	-34.042999	27.135
314	1	5	-0.011567	5.6040001	-34.212002	25.625
315	1	5	0.098614	5.7810001	-35.699001	25.214001
316	1	8	-0.48464099	7.0609999	-36.171001	25.542
317	1	9	0.109246	5.6139998	-35.808998	24.118
318	1	9	0.109246	5.0240002	-36.325001	25.738001
319	1	5	0.061577	6.5100002	-33.289001	24.757
320	1	3	-0.71370697	7.9499998	-33.588001	24.962999
321	1	5	0.087279998	8.6610003	-32.444	25.556999
322	1	9	0.079677999	8.6379995	-31.561001	24.879
323	1	9	0.079677999	9.7189999	-32.716	25.763
324	1	9	0.079677999	8.1990004	-32.167	26.527
325	1	5	0.087279998	8.6029997	-33.978001	23.702
326	1	9	0.079677999	8.0979996	-34.868	23.268999
327	1	9	0.079677999	9.6619997	-34.261002	23.889999
328	1	9	0.079677999	8.573	-33.147999	22.961
329	1	9	0.099446997	6.2140002	-33.41	23.688
330	1	9	0.099446997	6.276	-32.224998	24.993
331	1	5	-0.16051701	4.1290002	-33.824001	25.372
332	1	7	0.092352003	3.859	-33.981998	24.305
333	1	7	0.092352003	3.9489999	-32.755001	25.615999
334	1	7	0.092352003	3.4460001	-34.441002	25.996
335	1	9	0.109246	5.2579999	-34.716999	27.73
336	1	9	0.109246	6.9699998	-34.332001	27.347
337	1	1	-0.55797797	9.9779997	-24.645	36.279999
338	1	2	0.81648898	10.845	-24.711	35.368999
339	1	3	-0.47156	11.044	-25.913	34.615002
340	1	2	0.226577	10.164	-27.049999	34.66
341	1	2	-0.370285	10.663	-28.282	34.465
342	1	2	-0.14523999	9.7770004	-29.464001	34.492001
343	1	2	-0.247705	8.4580002	-29.319	34.707001
344	1	2	-0.14523999	7.8959999	-27.958	34.877998
345	1	2	-0.370285	8.6990004	-26.886999	34.853001
346	1	4	0.21401501	8.2609997	-25.902	34.942001
347	1	4	0.212329	6.8299999	-27.825001	35.007
348	1	5	-0.051493	7.5409999	-30.511999	34.695999
349	1	2	-0.247705	7.0570002	-30.784	33.298
350	1	2	-0.14523999	5.9530001	-30.181999	32.823002
351	1	2	-0.370285	5.5079999	-30.426001	31.436001
352	1	2	0.226577	6.1960001	-31.256001	30.634001
353	1	2	-0.370285	7.4419999	-31.886999	31.146
354	1	2	-0.14523999	7.8439999	-31.665001	32.403
355	1	4	0.212329	8.7589998	-32.120998	32.761002
356	1	4	0.21401501	8.0530005	-32.502998	30.500999
357	1	3	-0.47156	5.7529998	-31.466999	29.282
358	1	2	0.81648898	5.9439998	-32.685001	28.552
359	1	1	-0.55797797	6.348	-33.733002	29.122999
360	1	6	0.32387701	5.1890001	-30.719999	28.816999
361	1	4	0.21401501	4.612	-29.936001	31.077999
362	1	4	0.212329	5.3769999	-29.511	33.448002
363	1	7	0.124608	6.6789999	-30.33	35.375
364	1	7	0.124608	8.0670004	-31.407	35.094002
365	1	4	0.212329	10.207	-30.445999	34.334999
366	1	4	0.21401501	11.723	-28.424999	34.298
367	1	6	0.32387701	11.926	-25.983	34.058998
368	1	8	-0.48464099	12.948	-19.954	35.362
369	1	5	0.098614	12.261	-21.146999	35.632
370	1	5	-0.011567	11.395	-21.572001	34.417999
371	1	5	0.098614	10.599	-22.858999	34.764999
372	1	8	-0.48464099	11.451	-23.889	35.187
373	1	9	0.109246	10.022	-23.195999	33.874001
374	1	9	0.109246	9.8699999	-22.641001	35.578999
375	1	5	0.061577	12.272	-21.791	33.150002
376	1	3	-0.71370697	13.297	-22.843	33.370998
377	1	5	0.087279998	14.661	-22.297001	33.285999
378	1	9	0.079677999	14.869	-21.892	32.271
379	1	9	0.079677999	15.406	-23.087	33.522999
380	1	9	0.079677999	14.797	-21.486	34.033001
381	1	5	0.087279998	13.146	-23.951	32.412998
382	1	9	0.079677999	12.132	-24.396999	32.500999
383	1	9	0.079677999	13.879	-24.754999	32.638
384	1	9	0.079677999	13.298	-23.601	31.368
385	1	9	0.099446997	11.6	-22.046	32.297001
386	1	9	0.099446997	12.739	-20.820999	32.859001
387	1	5	-0.16051701	10.373	-20.452	34.115002
388	1	7	0.092352003	9.7019997	-20.747	33.278999
389	1	7	0.092352003	10.886	-19.51	33.825001
390	1	7	0.092352003	9.7419996	-20.240999	35.006001
391	1	9	0.109246	11.61	-21.000999	36.523998
392	1	9	0.109246	12.996	-21.944	35.881001
393	1	1	-0.55797797	23.614	-14.102	38.784
394	1	2	0.81648898	23.923	-15.001	37.959
395	1	3	-0.47156	23.173	-16.218	37.868
396	1	2	0.226577	21.91	-16.438999	38.519001
397	1	2	-0.370285	21.573	-17.68	38.908001
398	1	2	-0.14523999	20.275	-17.934999	39.566002
399	1	2	-0.247705	19.410999	-16.927	39.777
400	1	2	-0.14523999	19.759001	-15.564	39.308998
401	1	2	-0.370285	20.934999	-15.333	38.713001
402	1	4	0.21401501	21.150999	-14.338	38.346001
403	1	4	0.212329	19.054001	-14.752	39.433998
404	1	5	-0.051493	18.07	-17.181999	40.409
405	1	2	-0.247705	17.056	-17.533001	39.355
406	1	2	-0.14523999	16.355	-16.572001	38.729
407	1	2	-0.370285	15.39	-16.926001	37.667
408	1	2	0.226577	15.195	-18.209	37.319
409	1	2	-0.370285	16.004	-19.266001	37.981998
410	1	2	-0.14523999	16.878	-18.945999	38.944
411	1	4	0.212329	17.469	-19.724001	39.410999
412	1	4	0.21401501	15.919	-20.299	37.673
413	1	3	-0.47156	14.261	-18.527	36.272999
414	1	2	0.81648898	13.505	-19.742001	36.210999
415	1	1	-0.55797797	13.465	-20.538	37.186001
416	1	6	0.32387701	14.057	-17.804001	35.546001
417	1	4	0.21401501	14.831	-16.135	37.181999
418	1	4	0.212329	16.488001	-15.53	38.991001
419	1	7	0.124608	17.743	-16.282	40.974998
420	1	7	0.124608	18.143999	-18.007	41.152
421	1	4	0.212329	20.031	-18.945	39.872002
422	1	4	0.21401501	22.254999	-18.507	38.756001
423	1	6	0.32387701	23.617001	-17.011	37.353001
424	1	8	-0.123151	28.056999	-13.015	35.505001
425	1	5	0.0086399997	26.993	-13.322	36.366001
426	1	5	-0.012485	25.669001	-13.476	35.574001
427	1	5	0.103341	24.497999	-13.754	36.555
428	1	8	-0.48451099	24.761	-14.872	37.360001
429	1	9	0.109613	23.558001	-13.923	35.980999
430	1	9	0.109613	24.341999	-12.868	37.212002
431	1	5	0.067175001	25.778	-14.609	34.511002
432	1	3	-0.71393901	26.09	-15.918	35.139
433	1	5	0.087279998	27.4	-16.429001	34.703999
434	1	9	0.079677999	27.413	-16.618999	33.606998
435	1	9	0.079677999	27.639999	-17.374001	35.237999
436	1	9	0.079677999	28.198999	-15.7	34.952999
437	1	5	0.087279998	25.047001	-16.916	34.848
438	1	9	0.079677999	24.061001	-16.556	35.213001
439	1	9	0.079677999	25.266001	-17.867001	35.381001
440	1	9	0.079677999	24.978001	-17.118	33.756001
441	1	9	0.099385001	24.822001	-14.647	33.937
442	1	9	0.099385001	26.547001	-14.325	33.755001
443	1	5	-0.15798	25.365999	-12.149	34.841
444	1	7	0.092189997	24.395	-12.21	34.301998
445	1	7	0.092189997	26.156	-11.913	34.096001
446	1	7	0.092189997	25.308001	-11.304	35.562
447	1	9	0.119102	26.885	-12.51	37.119999
448	1	9	0.119102	27.226	-14.261	36.916
449	1	1	-0.61737603	-6.1880002	-1.151	-2.8770001
450	1	2	0.57014501	-6.5110002	-1.184	-1.66
451	1	3	-0.509112	-7.8660002	-1.416	-1.2539999
452	1	2	0.20296	-8.927	-1.813	-2.141
453	1	2	-0.38259301	-8.7119999	-2.6530001	-3.171
454	1	2	-0.14523999	-9.8310003	-3.069	-4.0419998
455	1	2	-0.247705	-11.076	-2.618	-3.8110001
456	1	2	-0.14523999	-11.32	-1.723	-2.655
457	1	2	-0.38259301	-10.306	-1.347	-1.8660001
458	1	4	0.21401501	-10.497	-0.69400001	-1.024
459	1	4	0.212329	-12.322	-1.373	-2.4419999
460	1	5	-0.051493	-12.228	-3.069	-4.6659999
461	1	2	-0.26236799	-12.841	-4.3189998	-4.0939999
462	1	2	-0.190108	-12.39	-5.5320001	-4.4559999
463	1	2	-0.26327699	-12.971	-6.7529998	-3.859
464	1	2	0.43975499	-13.943	-6.665	-2.9389999
465	1	2	-0.26327699	-14.431	-5.3210001	-2.5250001
466	1	2	-0.190108	-13.908	-4.2160001	-3.0710001
467	1	4	0.198292	-14.268	-3.244	-2.7590001
468	1	4	0.206218	-15.21	-5.224	-1.78
469	1	3	-0.35895801	-14.48	-7.8730001	-2.3800001
470	1	10	0.61443901	-15.402	-7.888	-1.503
471	1	1	-0.321031	-16.299	-7.9039998	-0.64999998
472	1	4	0.206218	-12.599	-7.7210002	-4.171
473	1	4	0.198292	-11.595	-5.632	-5.1849999
474	1	7	0.124608	-12.995	-2.266	-4.7150002
475	1	7	0.124608	-11.892	-3.243	-5.7119999
476	1	4	0.212329	-9.6330004	-3.7479999	-4.862
477	1	4	0.21401501	-7.73	-3.066	-3.3610001
478	1	6	0.319841	-8.1120005	-1.182	-0.26699999
479	1	8	-0.122682	28.864	-12.94	36.078999
480	1	5	0.018619999	28.591	-13.679	37.237999
481	1	5	-0.04645	29.768999	-13.622	38.249001
482	1	5	0.078020997	29.983	-12.177	38.793999
483	1	3	-0.71419102	30.35	-11.224	37.716
484	1	5	0.087279998	31.679001	-10.634	37.945999
485	1	9	0.079677999	32.445999	-11.434	38.021999
486	1	9	0.079677999	31.962999	-9.9849997	37.09
487	1	9	0.079677999	31.694	-10.032	38.882
488	1	5	0.087279998	29.35	-10.151	37.582001
489	1	9	0.079677999	29.296	-9.5349998	38.507
490	1	9	0.079677999	29.604	-9.4960003	36.721001
491	1	9	0.079677999	28.346001	-10.584	37.381001
492	1	9	0.099304996	30.764	-12.21	39.59
493	1	9	0.099304996	29.055	-11.856	39.323002
494	1	5	-0.150831	29.395	-14.522	39.450001
495	1	7	0.091995001	29.228001	-15.572	39.123001
496	1	7	0.091995001	30.205	-14.525	40.210999
497	1	7	0.091995001	28.462999	-14.163	39.938
498	1	5	0.072480999	31.072001	-14.193	37.625999
499	1	11	-0.66628897	31.461	-13.478	36.485001
500	1	12	0.40015599	32.305	-13.895	36.169998
501	1	9	0.106387	30.915001	-15.26	37.345001
502	1	9	0.106387	31.893	-14.157	38.379002
503	1	9	0.119194	28.396999	-14.738	36.951
504	1	9	0.119194	27.667999	-13.281	37.717999

Bonds

1	1	1	2
2	2	2	3
3	3	2	36
4	4	3	4
5	5	3	31
6	6	4	5
7	6	4	9
8	6	5	6
9	7	5	30
10	6	6	7
11	7	6	29
12	6	7	8
13	8	7	12
14	6	8	9
15	7	8	11
16	7	9	10
17	8	12	13
18	9	12	27
19	9	12	28
20	6	13	14
21	6	13	18
22	6	14	15
23	7	14	26
24	6	15	16
25	7	15	25
26	6	16	17
27	4	16	21
28	6	17	18
29	7	17	20
30	7	18	19
31	2	21	22
32	5	21	24
33	1	22	23
34	10	22	450
35	11	32	33
36	3	32	78
37	12	33	34
38	9	33	55
39	9	33	56
40	12	34	35
41	12	34	39
42	12	34	51
43	11	35	36
44	9	35	37
45	9	35	38
46	13	39	40
47	9	39	49
48	9	39	50
49	13	40	41
50	13	40	45
51	9	41	42
52	9	41	43
53	9	41	44
54	9	45	46
55	9	45	47
56	9	45	48
57	9	51	52
58	9	51	53
59	9	51	54
60	1	57	58
61	2	58	59
62	3	58	92
63	4	59	60
64	5	59	87
65	6	60	61
66	6	60	65
67	6	61	62
68	7	61	86
69	6	62	63
70	7	62	85
71	6	63	64
72	8	63	68
73	6	64	65
74	7	64	67
75	7	65	66
76	8	68	69
77	9	68	83
78	9	68	84
79	6	69	70
80	6	69	74
81	6	70	71
82	7	70	82
83	6	71	72
84	7	71	81
85	6	72	73
86	4	72	77
87	6	73	74
88	7	73	76
89	7	74	75
90	2	77	78
91	5	77	80
92	1	78	79
93	11	88	89
94	3	88	134
95	12	89	90
96	9	89	111
97	9	89	112
98	12	90	91
99	12	90	95
100	12	90	107
101	11	91	92
102	9	91	93
103	9	91	94
104	13	95	96
105	9	95	105
106	9	95	106
107	13	96	97
108	13	96	101
109	9	97	98
110	9	97	99
111	9	97	100
112	9	101	102
113	9	101	103
114	9	101	104
115	9	107	108
116	9	107	109
117	9	107	110
118	1	113	114
119	2	114	115
120	3	114	148
121	4	115	116
122	5	115	143
123	6	116	117
124	6	116	121
125	6	117	118
126	7	117	142
127	6	118	119
128	7	118	141
129	6	119	120
130	8	119	124
131	6	120	121
132	7	120	123
133	7	121	122
134	8	124	125
135	9	124	139
136	9	124	140
137	6	125	126
138	6	125	130
139	6	126	127
140	7	126	138
141	6	127	128
142	7	127	137
143	6	128	129
144	4	128	133
145	6	129	130
146	7	129	132
147	7	130	131
148	2	133	134
149	5	133	136
150	1	134	135
151	11	144	145
152	3	144	190
153	12	145	146
154	9	145	167
155	9	145	168
156	12	146	147
157	12	146	151
158	12	146	163
159	11	147	148
160	9	147	149
161	9	147	150
162	13	151	152
163	9	151	161
164	9	151	162
165	13	152	153
166	13	152	157
167	9	153	154
168	9	153	155
169	9	153	156
170	9	157	158
171	9	157	159
172	9	157	160
173	9	163	164
174	9	163	165
175	9	163	166
176	1	169	170
177	2	170	171
178	3	170	204
179	4	171	172
180	5	171	199
181	6	172	173
182	6	172	177
183	6	173	174
184	7	173	198
185	6	174	175
186	7	174	197
187	6	175	176
188	8	175	180
189	6	176	177
190	7	176	179
191	7	177	178
192	8	180	181
193	9	180	195
194	9	180	196
195	6	181	182
196	6	181	186
197	6	182	183
198	7	182	194
199	6	183	184
200	7	183	193
201	6	184	185
202	4	184	189
203	6	185	186
204	7	185	188
205	7	186	187
206	2	189	190
207	5	189	192
208	1	190	191
209	11	200	201
210	3	200	246
211	12	201	202
212	9	201	223
213	9	201	224
214	12	202	203
215	12	202	207
216	12	202	219
217	11	203	204
218	9	203	205
219	9	203	206
220	13	207	208
221	9	207	217
222	9	207	218
223	13	208	209
224	13	208	213
225	9	209	210
226	9	209	211
227	9	209	212
228	9	213	214
229	9	213	215
230	9	213	216
231	9	219	220
232	9	219	221
233	9	219	222
234	1	225	226
235	2	226	227
236	3	226	260
237	4	227	228
238	5	227	255
239	6	228	229
240	6	228	233
241	6	229	230
242	7	229	254
243	6	230	231
244	7	230	253
245	6	231	232
246	8	231	236
247	6	232	233
248	7	232	235
249	7	233	234
250	8	236	237
251	9	236	251
252	9	236	252
253	6	237	238
254	6	237	242
255	6	238	239
256	7	238	250
257	6	239	240
258	7	239	249
259	6	240	241
260	4	240	245
261	6	241	242
262	7	241	244
263	7	242	243
264	2	245	246
265	5	245	248
266	1	246	247
267	11	256	257
268	3	256	302
269	12	257	258
270	9	257	279
271	9	257	280
272	12	258	259
273	12	258	263
274	12	258	275
275	11	259	260
276	9	259	261
277	9	259	262
278	13	263	264
279	9	263	273
280	9	263	274
281	13	264	265
282	13	264	269
283	9	265	266
284	9	265	267
285	9	265	268
286	9	269	270
287	9	269	271
288	9	269	272
289	9	275	276
290	9	275	277
291	9	275	278
292	1	281	282
293	2	282	283
294	3	282	316
295	4	283	284
296	5	283	311
297	6	284	285
298	6	284	289
299	6	285	286
300	7	285	310
301	6	286	287
302	7	286	309
303	6	287	288
304	8	287	292
305	6	288	289
306	7	288	291
307	7	289	290
308	8	292	293
309	9	292	307
310	9	292	308
311	6	293	294
312	6	293	298
313	6	294	295
314	7	294	306
315	6	295	296
316	7	295	305
317	6	296	297
318	4	296	301
319	6	297	298
320	7	297	300
321	7	298	299
322	2	301	302
323	5	301	304
324	1	302	303
325	11	312	313