Title

92 atoms
91 bonds
168 angles
304 dihedrals
18 impropers

11 atom types
14 bond types
9 angle types
35 dihedral types
3 improper types
-12.50599957 87.49400043 xlo xhi
-7.664999962 92.33500004 ylo yhi
-7.673999786 92.32600021 zlo zhi
0.0 0.0 0.0 xy xz yz

Masses

1	12.01078
2	15.99943
3	14.00672
4	12.01078
5	1.007947
6	1.007947
7	1.007947
8	15.99943
9	12.01078
10	15.99943
11	1.007947


Pair Coeffs

1	0.086879315	3.4806469
2	0.2102061	3.0398122
3	0.16769152	3.206876
4	0.10884061	3.3795318
5	0.014090815	1.1034277
6	0.016409246	2.5832257
7	0.015779483	2.6445434
8	0.16846514	3.0251065
9	0.21	3.3996695
10	0.20947353	2.99716
11	1.2326e-05	0.53453923

Bond Coeffs

1 harmonic	582.698766451	1.225198386222
2 harmonic	492.76746816345	1.381897776683
3 harmonic	279.1350963404	1.454628925034
4 harmonic	352.0565580496	1.450098586273
5 harmonic	505.144496193	1.019481865027
6 harmonic	264.62148576755	1.52190126495
7 harmonic	370.04670688625	1.093899492634
8 harmonic	301.15400723785	1.345741232799
9 harmonic	366.7408841747	1.425895053732
10 harmonic	300.03137914615	1.451203938761
11 harmonic	366.34047229585	1.464762957261
12 harmonic	602.81384337	1.196112346392
13 harmonic	329.96998057905	1.427343958716
14 harmonic	543.5267831885	0.9716763312559


Angle Coeffs

1 harmonic	55.42182150775	117.3465570514
2 harmonic	63.44422595415	115.5071327674
3 harmonic	57.8982893754	126.8062420451
4 harmonic	53.20531626545	116.5475862634
5 harmonic	65.09061609600001	110.3538806181
6 harmonic	201.41175231035	127.4691416191
7 harmonic	48.776492647595	115.6030999533
8 harmonic	55.07882548015	112.8714009681
9 harmonic	33.56981613361	180


Dihedral Coeffs

1 fourier 1	-0.1488678166443	4	180
2 fourier 1	-0.1230328948768	3	180
3 fourier 1	0.2939295466901	2	0
4 fourier 1	-0.3024127022865	1	0
5 fourier 1	0.182238503271	2	0
6 fourier 1	0.02972342374561	3	0
7 fourier 1	1.809047390003	2	180
8 fourier 1	-0.04816277792592	1	0
9 fourier 1	3.101948770557	2	180
10 fourier 1	-0.4252153282372	1	0
11 fourier 1	2.348375642009	2	180
12 fourier 1	1.256156174911	1	0
13 fourier 1	0.9974165607242	2	180
14 fourier 1	0.1155372516788	3	0
15 fourier 1	0.09223874044423	3	0
16 fourier 1	0.3159935921949	2	180
17 fourier 1	0.3247796806857	1	180
18 fourier 1	0.1040663847541	3	0
19 fourier 1	2.779853741805	2	180
20 fourier 1	0.1918272375143	3	0
21 fourier 1	0.9202179876409	1	180
22 fourier 1	0.0473758381877	3	0
23 fourier 1	0.4860993122944	2	180
24 fourier 1	0.8916986138746	1	0
25 fourier 1	1.163809172478	2	180
26 fourier 1	0.1679186987369	1	180
27 fourier 1	0.1911926717192	3	0
28 fourier 1	0.1115525666802	3	0
29 fourier 1	0.3432490222662	1	0
30 fourier 1	0.457973137376	1	0
31 fourier 1	-1.382973039546	1	0
32 fourier 1	0	1	0
33 fourier 1	0.3445382149273	3	0
34 fourier 1	0.1364556373303	1	0
35 fourier 1	0.3026390167484	3	0


Improper Coeffs

1 0.3333333333333333	-1	2
2 0.3666666666666667	-1	2
3 3.5	-1	2


Atoms

1	1	1	0.543773	-4.6939998	1.331	-0.38600001
2	1	2	-0.68127602	-5.1230001	1.428	0.79500002
3	1	3	-0.52128297	-3.4430001	0.69599998	-0.66100001
4	1	4	0.031513002	-2.6159999	0.13600001	0.40700001
5	1	4	-0.145282	-1.3329999	-0.479	-0.161
6	1	4	-0.141894	-0.45199999	-1.053	0.95899999
7	1	4	-0.141894	0.75700003	-1.8430001	0.42699999
8	1	4	-0.143995	1.749	-1.023	-0.41800001
9	1	4	0.025713	2.3959999	0.12800001	0.36399999
10	1	3	-0.46486801	3.4519999	0.76200002	-0.42399999
11	1	1	0.78711402	4.2150002	1.858	0.088
12	1	2	-0.60573798	3.9979999	2.3099999	1.244
13	1	5	0.326776	3.668	0.42500001	-1.39
14	1	6	0.058518	1.6289999	0.89200002	0.61000001
15	1	6	0.058518	2.832	-0.264	1.309
16	1	7	0.089377001	1.249	-0.62900001	-1.3279999
17	1	7	0.089377001	2.55	-1.7130001	-0.75999999
18	1	7	0.088137001	1.301	-2.2809999	1.293
19	1	7	0.088137001	0.38800001	-2.6930001	-0.186
20	1	7	0.088137001	-0.114	-0.237	1.633
21	1	7	0.088137001	-1.063	-1.749	1.574
22	1	7	0.089377001	-0.77499998	0.31	-0.708
23	1	7	0.089377001	-1.602	-1.289	-0.875
24	1	6	0.054933	-3.1960001	-0.64499998	0.94499999
25	1	6	0.054933	-2.352	0.94400001	1.125
26	1	5	0.32019401	-3.1300001	0.63999999	-1.6569999
27	1	8	-0.49666101	4.9559999	2.2869999	-0.49700001
28	1	4	0.115137	6.1100001	1.512	-0.315
29	1	4	-0.138009	6	0.206	-1.1059999
30	1	4	-0.140424	7.2750001	-0.63800001	-0.95700002
31	1	4	-0.139203	7.1539998	-2.016	-1.627
32	1	4	-0.14399301	7.151	-1.929	-3.1619999
33	1	4	0.036761001	7.1890001	-3.3150001	-3.8069999
34	1	8	-0.16417401	6.0209999	-4.0240002	-3.4949999
35	1	6	0.088164002	8.0819998	-3.875	-3.4489999
36	1	6	0.088164002	7.2659998	-3.1960001	-4.9099998
37	1	7	0.094494	6.2420001	-1.398	-3.5150001
38	1	7	0.094494	8.0430002	-1.358	-3.5020001
39	1	7	0.089328997	8.0229998	-2.6300001	-1.304
40	1	7	0.089328997	6.2309999	-2.5250001	-1.272
41	1	7	0.089148998	8.1440001	-0.088	-1.3789999
42	1	7	0.089148998	7.473	-0.80000001	0.125
43	1	7	0.093353003	5.125	-0.37099999	-0.73400003
44	1	7	0.093353003	5.8319998	0.454	-2.1760001
45	1	6	0.088119	6.9840002	2.0929999	-0.67900002
46	1	6	0.088119	6.2639999	1.299	0.76700002
47	1	1	0.543773	-5.2810001	1.734	-1.2
48	1	2	-0.68127602	-5.3039999	1.13	-2.3050001
49	1	3	-0.52128297	-6.013	2.95	-1.011
50	1	4	0.031513002	-6.8260002	3.556	-2.0639999
51	1	4	-0.145282	-8.1389999	2.786	-2.2379999
52	1	4	-0.14171	-9.0120001	3.427	-3.3280001
53	1	4	-0.137509	-10.394	2.7650001	-3.4449999
54	1	4	-0.121697	-10.327	1.36	-4.0650001
55	1	4	0.184873	-11.726	0.75800002	-4.27
56	1	3	-0.63687801	-12.506	1.5190001	-5.2420001
57	1	9	0.593692	-12.193	1.558	-6.4749999
58	1	2	-0.461348	-11.887	1.597	-7.6739998
59	1	6	0.033218	-11.632	-0.29699999	-4.6100001
60	1	6	0.033218	-12.269	0.75099999	-3.3010001
61	1	7	0.083005004	-9.7629995	0.68199998	-3.3900001
62	1	7	0.083005004	-9.7910004	1.397	-5.0380001
63	1	7	0.086852998	-10.874	2.7149999	-2.4430001
64	1	7	0.086852998	-11.027	3.415	-4.0879998
65	1	7	0.088137001	-9.1660004	4.4990001	-3.079
66	1	7	0.088137001	-8.4879999	3.381	-4.3080001
67	1	7	0.089377001	-7.9089999	1.7359999	-2.513
68	1	7	0.089377001	-8.6890001	2.7869999	-1.271
69	1	6	0.054933	-6.2540002	3.572	-3.0179999
70	1	6	0.054933	-7.053	4.6069999	-1.783
71	1	5	0.32019401	-5.9109998	3.4530001	-0.101
72	1	8	-0.16417401	6.1100001	-4.9089999	-3.9349999
73	1	4	0.036761001	7.3460002	-4.9050002	-4.5970001
74	1	4	-0.14399301	8.4849997	-5.0949998	-3.592
75	1	4	-0.13915101	9.8459997	-5.1389999	-4.302
76	1	4	-0.13505501	11.026	-5.197	-3.319
77	1	4	-0.16591699	11.132	-6.552	-2.6010001
78	1	4	0.090116002	12.398	-6.6409998	-1.748
79	1	10	-0.679093	12.349	-5.6999998	-0.71100003
80	1	11	0.38636899	13.196	-5.8060002	-0.204
81	1	6	0.079622	13.296	-6.4650002	-2.3829999
82	1	6	0.079622	12.468	-7.665	-1.316
83	1	7	0.09685	10.25	-6.7090001	-1.944
84	1	7	0.09685	11.155	-7.369	-3.3540001
85	1	7	0.089328997	11.96	-5.0219998	-3.895
86	1	7	0.089328997	10.932	-4.3759999	-2.573
87	1	7	0.089328997	9.8859997	-6.013	-4.9899998
88	1	7	0.089328997	9.9589996	-4.2199998	-4.9180002
89	1	7	0.094494	8.4709997	-4.2540002	-2.8640001
90	1	7	0.094494	8.3149996	-6.0440001	-3.04
91	1	6	0.088164002	7.355	-5.7399998	-5.329
92	1	6	0.088164002	7.4790001	-3.9519999	-5.158

Bonds

1	1	1	2
2	2	1	3
3	3	1	47
4	4	3	4
5	5	3	26
6	6	4	5
7	7	4	24
8	7	4	25
9	6	5	6
10	7	5	22
11	7	5	23
12	6	6	7
13	7	6	20
14	7	6	21
15	6	7	8
16	7	7	18
17	7	7	19
18	6	8	9
19	7	8	16
20	7	8	17
21	4	9	10
22	7	9	14
23	7	9	15
24	2	10	11
25	5	10	13
26	1	11	12
27	8	11	27
28	9	27	28
29	6	28	29
30	7	28	45
31	7	28	46
32	6	29	30
33	7	29	43
34	7	29	44
35	6	30	31
36	7	30	41
37	7	30	42
38	6	31	32
39	7	31	39
40	7	31	40
41	6	32	33
42	7	32	37
43	7	32	38
44	9	33	34
45	7	33	35
46	7	33	36
47	10	34	72
48	1	47	48
49	2	47	49
50	4	49	50
51	5	49	71
52	6	50	51
53	7	50	69
54	7	50	70
55	6	51	52
56	7	51	67
57	7	51	68
58	6	52	53
59	7	52	65
60	7	52	66
61	6	53	54
62	7	53	63
63	7	53	64
64	6	54	55
65	7	54	61
66	7	54	62
67	11	55	56
68	7	55	59
69	7	55	60
70	12	56	57
71	1	57	58
72	9	72	73
73	6	73	74
74	7	73	91
75	7	73	92
76	6	74	75
77	7	74	89
78	7	74	90
79	6	75	76
80	7	75	87
81	7	75	88
82	6	76	77
83	7	76	85
84	7	76	86
85	6	77	78
86	7	77	83
87	7	77	84
88	13	78	79
89	7	78	81
90	7	78	82
91	14	79	80

Angles

1	4	5	4	24
2	5	34	72	73
3	4	77	78	79
4	2	4	3	26
5	7	63	53	64
6	4	78	77	84
7	4	32	33	36
8	4	52	53	64
9	4	73	74	90
10	4	52	51	67
11	4	78	77	83
12	5	78	79	80
13	4	55	54	62
14	7	45	28	46
15	7	18	7	19
16	4	3	4	24
17	4	4	5	22
18	4	10	9	15
19	4	76	75	88
20	3	2	1	3
21	4	8	9	10
22	4	6	5	22
23	7	24	4	25
24	4	53	54	55
25	9	56	57	58
26	7	83	77	84
27	4	55	54	61
28	4	53	54	62
29	4	5	6	7
30	4	75	74	89
31	4	72	73	92
32	4	50	51	68
33	7	69	50	70
34	7	35	33	36
35	4	32	31	39
36	4	74	73	92
37	5	33	34	72
38	4	75	76	85
39	4	27	28	45
40	4	53	54	61
41	4	4	5	6
42	4	53	52	65
43	7	37	32	38
44	7	61	54	62
45	4	49	50	70
46	4	54	55	59
47	4	52	51	68
48	4	27	28	29
49	4	51	52	65
50	4	34	33	35
51	4	29	30	31
52	4	10	9	14
53	4	8	7	19
54	4	7	6	21
55	4	56	55	59
56	7	87	75	88
57	4	8	7	18
58	6	12	11	27
59	7	91	73	92
60	4	77	76	86
61	4	76	77	78
62	4	32	31	40
63	7	41	30	42
64	4	54	55	56
65	2	50	49	71
66	4	5	6	21
67	1	9	10	11
68	4	54	53	63
69	4	8	9	15
70	3	10	11	27
71	4	53	52	66
72	4	76	77	84
73	3	2	1	47
74	1	1	3	4
75	4	76	77	83
76	4	51	50	70
77	4	49	50	69
78	4	29	28	46
79	4	31	30	41
80	4	72	73	91
81	4	33	32	37
82	4	34	33	36
83	7	85	76	86
84	4	30	31	39
85	4	74	73	91
86	4	30	31	32
87	4	31	30	42
88	4	52	53	63
89	4	73	74	89
90	7	22	5	23
91	4	7	8	17
92	4	33	32	38
93	4	54	55	60
94	4	74	75	87
95	4	32	33	34
96	7	81	78	82
97	4	50	51	52
98	4	72	73	74
99	4	75	74	90
100	7	14	9	15
101	4	8	9	14
102	4	9	8	17
103	4	56	55	60
104	2	47	49	71
105	4	7	8	16
106	4	4	5	23
107	7	67	51	68
108	7	39	31	40
109	4	74	75	76
110	4	6	7	8
111	1	47	49	50
112	4	30	31	40
113	7	89	74	90
114	4	77	78	81
115	3	10	11	12
116	4	51	52	66
117	4	51	50	69
118	4	52	53	54
119	4	6	5	23
120	4	5	4	25
121	4	9	8	16
122	4	51	52	53
123	4	31	32	33
124	4	73	74	75
125	4	7	8	9
126	4	79	78	81
127	4	30	29	44
128	3	3	1	47
129	7	59	55	60
130	4	3	4	5
131	4	76	75	87
132	4	32	33	35
133	4	3	4	25
134	4	31	32	37
135	3	1	47	48
136	3	1	47	49
137	8	55	56	57
138	3	48	47	49
139	7	16	8	17
140	2	11	10	13
141	7	20	6	21
142	4	28	29	44
143	2	9	10	13
144	4	27	28	46
145	4	49	50	51
146	4	54	53	64
147	4	77	78	82
148	2	1	3	26
149	4	31	32	38
150	4	30	29	43
151	4	7	6	20
152	4	74	75	88
153	4	29	30	41
154	7	43	29	44
155	4	75	76	86
156	4	29	28	45
157	4	79	78	82
158	5	11	27	28
159	4	77	76	85
160	4	50	51	67
161	4	5	6	20
162	4	75	76	77
163	7	65	52	66
164	4	28	29	43
165	4	29	30	42
166	4	6	7	19
167	4	28	29	30
168	4	6	7	18

Dihedrals

1	18	76	77	78	81
2	22	34	72	73	92
3	27	35	33	32	38
4	27	85	76	75	87
5	27	87	75	74	89
6	5	13	10	9	14
6	6	13	10	9	14
7	27	66	52	51	68
8	18	55	54	53	63
9	27	39	31	30	42
10	28	72	73	74	89
10	29	72	73	74	89
11	27	61	54	53	64
12	27	37	32	31	40
13	27	65	52	51	67
14	27	18	7	6	21
15	18	31	32	33	35
16	14	49	50	51	52
17	25	12	11	27	28
17	26	12	11	27	28
18	18	74	75	76	85
19	14	56	55	54	61
20	18	9	8	7	19
21	27	15	9	8	16
22	27	23	5	4	25
23	18	7	8	9	14
24	18	9	8	7	18
25	5	47	49	50	69
25	6	47	49	50	69
26	33	77	78	79	80
26	34	77	78	79	80
27	18	53	54	55	59
28	14	31	32	33	34
29	22	35	33	34	72
30	18	52	51	50	70
31	18	6	7	8	17
32	27	88	75	74	90
33	18	50	51	52	65
34	18	31	30	29	43
35	14	3	4	5	23
36	5	11	10	9	15
36	6	11	10	9	15
37	18	29	30	31	40
38	27	36	33	32	37
39	31	57	56	55	59
40	18	76	77	78	82
41	27	68	51	50	70
42	9	48	47	49	50
42	10	48	47	49	50
43	18	52	53	54	61
44	18	53	54	55	60
45	15	51	52	53	54
45	16	51	52	53	54
45	17	51	52	53	54
46	14	72	73	74	75
47	27	41	30	29	44
48	18	75	74	73	92
49	15	30	31	32	33
49	16	30	31	32	33
49	17	30	31	32	33
50	1	1	3	4	5
50	2	1	3	4	5
50	3	1	3	4	5
50	4	1	3	4	5
51	13	3	1	47	48
52	22	11	27	28	46
53	13	3	1	47	49
54	27	84	77	76	86
55	27	39	31	30	41
56	18	6	7	8	16
57	27	36	33	32	38
58	18	6	5	4	25
59	18	30	29	28	46
60	27	82	78	77	83
61	18	8	7	6	20
62	27	22	5	4	25
63	5	69	50	49	71
63	6	69	50	49	71
64	18	30	31	32	37
65	27	15	9	8	17
66	18	54	53	52	66
67	18	31	30	29	44
68	5	5	4	3	26
68	6	5	4	3	26
69	18	29	30	31	39
70	18	31	32	33	36
71	15	6	7	8	9
71	16	6	7	8	9
71	17	6	7	8	9
72	7	9	10	11	12
72	8	9	10	11	12
73	15	29	30	31	32
73	16	29	30	31	32
73	17	29	30	31	32
74	18	50	51	52	66
75	27	85	76	75	88
76	18	51	52	53	63
77	27	41	30	29	43
78	27	17	8	7	19
79	19	10	11	27	28
80	18	30	31	32	38
81	32	55	56	57	58
82	27	62	54	53	63
83	27	17	8	7	18
84	5	51	50	49	71
84	6	51	50	49	71
85	27	81	78	77	84
86	27	23	5	4	24
87	18	52	51	50	69
88	27	81	78	77	83
89	27	89	74	73	91
90	27	83	77	76	85
91	27	84	77	76	85
92	5	11	10	9	14
92	6	11	10	9	14
93	14	49	50	51	67
94	27	68	51	50	69
95	18	30	29	28	45
96	18	32	31	30	41
97	18	74	75	76	86
98	27	59	55	54	62
99	18	78	77	76	86
100	7	13	10	11	27
100	8	13	10	11	27
101	27	63	53	52	65
102	27	19	7	6	21
103	27	88	75	74	89
104	30	33	34	72	73
105	22	34	72	73	74
106	9	2	1	3	4
106	10	2	1	3	4
107	27	87	75	74	90
108	28	79	78	77	84
108	29	79	78	77	84
109	5	25	4	3	26
109	6	25	4	3	26
110	18	32	31	30	42
111	28	79	78	77	83
111	29	79	78	77	83
112	18	55	54	53	64
113	27	42	30	29	44
114	18	4	5	6	20
115	27	20	6	5	23
116	5	1	3	4	25
116	6	1	3	4	25
117	31	57	56	55	60
118	28	72	73	74	90
118	29	72	73	74	90
119	1	8	9	10	11
119	2	8	9	10	11
119	3	8	9	10	11
119	4	8	9	10	11
120	27	90	74	73	92
121	27	82	78	77	84
122	14	10	9	8	16
123	27	14	9	8	17
124	18	6	5	4	24
125	27	43	29	28	46
126	27	22	5	4	24
127	27	21	6	5	23
128	18	76	75	74	89
129	27	65	52	51	68
130	18	7	6	5	23
131	14	7	8	9	10
132	27	40	31	30	42
133	14	3	4	5	22
134	14	76	77	78	79
135	27	86	76	75	87
136	27	14	9	8	16
137	27	63	53	52	66
138	27	61	54	53	63
139	22	34	72	73	91
140	15	75	76	77	78
140	16	75	76	77	78
140	17	75	76	77	78
141	15	50	51	52	53
141	16	50	51	52	53
141	17	50	51	52	53
142	27	64	53	52	65
143	27	18	7	6	20
144	28	27	28	29	43
144	29	27	28	29	43
145	27	42	30	29	43
146	18	28	29	30	41
147	22	11	27	28	45
148	14	27	28	29	30
149	18	53	52	51	67
150	31	54	55	56	57
151	27	67	51	50	70
152	14	49	50	51	68
153	15	5	6	7	8
153	16	5	6	7	8
153	17	5	6	7	8
154	20	11	27	28	29
154	21	11	27	28	29
155	27	43	29	28	45
156	18	75	76	77	84
157	35	80	79	78	81
158	18	28	29	30	42
159	14	10	9	8	17
160	18	8	7	6	21
161	22	32	33	34	72
162	18	75	76	77	83
163	15	4	5	6	7
163	16	4	5	6	7
163	17	4	5	6	7
164	15	74	75	76	77
164	16	74	75	76	77
164	17	74	75	76	77
165	1	47	49	50	51
165	2	47	49	50	51
165	3	47	49	50	51
165	4	47	49	50	51
166	14	56	55	54	62
167	7	26	3	1	47
167	8	26	3	1	47
168	28	34	33	32	37
168	29	34	33	32	37
169	5	70	50	49	71
169	6	70	50	49	71
170	7	1	47	49	71
170	8	1	47	49	71
171	18	33	32	31	40
172	18	78	77	76	85
173	28	27	28	29	44
173	29	27	28	29	44
174	15	28	29	30	31
174	16	28	29	30	31
174	17	28	29	30	31
175	27	40	31	30	41
176	7	1	47	49	50
176	8	1	47	49	50
177	14	3	4	5	6
178	5	1	3	4	24
178	6	1	3	4	24
179	27	64	53	52	66
180	7	9	10	11	27
180	8	9	10	11	27
181	27	59	55	54	61
182	18	51	52	53	64
183	27	38	32	31	40
184	27	66	52	51	67
185	27	89	74	73	92
186	27	62	54	53	64
187	15	52	53	54	55
187	16	52	53	54	55
187	17	52	53	54	55
188	27	83	77	76	86
189	7	4	3	1	47
189	8	4	3	1	47
190	5	13	10	9	15
190	6	13	10	9	15
191	27	16	8	7	19
192	27	44	29	28	46
193	18	73	74	75	87
194	13	2	1	47	48
195	27	16	8	7	18
196	28	34	33	32	38
196	29	34	33	32	38
197	13	2	1	47	49
198	18	75	74	73	91
199	27	90	74	73	91
200	27	60	55	54	62
201	18	52	53	54	62
202	18	73	74	75	88
203	27	67	51	50	69
204	35	80	79	78	82
205	18	77	76	75	87
206	11	2	1	3	26
206	12	2	1	3	26
207	18	54	53	52	65
208	18	33	32	31	39
209	18	7	8	9	15
210	18	53	52	51	68
211	5	47	49	50	70
211	6	47	49	50	70
212	15	73	74	75	76
212	16	73	74	75	76
212	17	73	74	75	76
213	27	86	76	75	88
214	27	20	6	5	22
215	22	36	33	34	72
216	11	48	47	49	71
216	12	48	47	49	71
217	18	77	76	75	88
218	27	37	32	31	39
219	27	38	32	31	39
220	27	60	55	54	61
221	18	4	5	6	21
222	27	35	33	32	37
223	27	21	6	5	22
224	5	8	9	10	13
224	6	8	9	10	13
225	18	5	6	7	19
226	27	44	29	28	45
227	18	7	6	5	22
228	5	24	4	3	26
228	6	24	4	3	26
229	18	5	6	7	18
230	23	12	11	10	13
230	24	12	11	10	13
231	14	53	54	55	56
232	27	19	7	6	20
233	18	76	75	74	90

Impropers

5	1	49	71	47	50
35	2	1	47	2	3
93	1	49	50	71	47
162	1	10	13	9	11
167	2	1	2	3	47
188	2	47	49	1	48
244	1	3	4	26	1
361	3	11	27	10	12
385	2	1	3	47	2
412	2	47	1	48	49
451	1	10	11	13	9
459	1	3	26	1	4
488	3	11	12	27	10
516	1	10	9	11	13
573	1	49	47	50	71
580	1	3	1	4	26
588	3	11	10	12	27
592	2	47	48	49	1
