Title

92 atoms
91 bonds
168 angles
304 dihedrals
18 impropers

11 atom types
14 bond types
9 angle types
35 dihedral types
3 improper types
-12.50599957 87.49400043 xlo xhi
-7.664999962 92.33500004 ylo yhi
-7.673999786 92.32600021 zlo zhi
0.0 0.0 0.0 xy xz yz

Masses

1	12.01078
2	15.99943
3	14.00672
4	12.01078
5	1.007947
6	1.007947
7	1.007947
8	15.99943
9	12.01078
10	15.99943
11	1.007947


Pair Coeffs

1	0.086879315	3.4806469
2	0.2102061	3.0398122
3	0.16769152	3.206876
4	0.10884061	3.3795318
5	0.014090815	1.1034277
6	0.016409246	2.5832257
7	0.015779483	2.6445434
8	0.16846514	3.0251065
9	0.21	3.3996695
10	0.20947353	2.99716
11	1.2326e-05	0.53453923

Bond Coeffs

1 harmonic	582.698766451	1.225198386222
2 harmonic	492.76746816345	1.381897776683
3 harmonic	279.1350963404	1.454628925034
4 harmonic	352.0565580496	1.450098586273
5 harmonic	505.144496193	1.019481865027
6 harmonic	264.62148576755	1.52190126495
7 harmonic	370.04670688625	1.093899492634
8 harmonic	301.15400723785	1.345741232799
9 harmonic	366.7408841747	1.425895053732
10 harmonic	300.03137914615	1.451203938761
11 harmonic	366.34047229585	1.464762957261
12 harmonic	602.81384337	1.196112346392
13 harmonic	329.96998057905	1.427343958716
14 harmonic	543.5267831885	0.9716763312559


Angle Coeffs

1 harmonic	55.42182150775	117.3465570514
2 harmonic	63.44422595415	115.5071327674
3 harmonic	57.8982893754	126.8062420451
4 harmonic	53.20531626545	116.5475862634
5 harmonic	65.09061609600001	110.3538806181
6 harmonic	201.41175231035	127.4691416191
7 harmonic	48.776492647595	115.6030999533
8 harmonic	55.07882548015	112.8714009681
9 harmonic	33.56981613361	180


Dihedral Coeffs

1 fourier 1	-0.1488678166443	4	180
2 fourier 1	-0.1230328948768	3	180
3 fourier 1	0.2939295466901	2	0
4 fourier 1	-0.3024127022865	1	0
5 fourier 1	0.182238503271	2	0
6 fourier 1	0.02972342374561	3	0
7 fourier 1	1.809047390003	2	180
8 fourier 1	-0.04816277792592	1	0
9 fourier 1	3.101948770557	2	180
10 fourier 1	-0.4252153282372	1	0
11 fourier 1	2.348375642009	2	180
12 fourier 1	1.256156174911	1	0
13 fourier 1	0.9974165607242	2	180
14 fourier 1	0.1155372516788	3	0
15 fourier 1	0.09223874044423	3	0
16 fourier 1	0.3159935921949	2	180
17 fourier 1	0.3247796806857	1	180
18 fourier 1	0.1040663847541	3	0
19 fourier 1	2.779853741805	2	180
20 fourier 1	0.1918272375143	3	0
21 fourier 1	0.9202179876409	1	180
22 fourier 1	0.0473758381877	3	0
23 fourier 1	0.4860993122944	2	180
24 fourier 1	0.8916986138746	1	0
25 fourier 1	1.163809172478	2	180
26 fourier 1	0.1679186987369	1	180
27 fourier 1	0.1911926717192	3	0
28 fourier 1	0.1115525666802	3	0
29 fourier 1	0.3432490222662	1	0
30 fourier 1	0.457973137376	1	0
31 fourier 1	-1.382973039546	1	0
32 fourier 1	0	1	0
33 fourier 1	0.3445382149273	3	0
34 fourier 1	0.1364556373303	1	0
35 fourier 1	0.3026390167484	3	0


Improper Coeffs

1 0.3333333333333333	-1	2
2 0.3666666666666667	-1	2
3 3.5	-1	2


Atoms

1	1	1	0.543773	-4.6939998	1.331	-0.38600001
2	1	2	-0.68127602	-5.1230001	1.428	0.79500002
3	1	3	-0.52128297	-3.4430001	0.69599998	-0.66100001
4	1	4	0.031513002	-2.6159999	0.13600001	0.40700001
5	1	4	-0.145282	-1.3329999	-0.479	-0.161
6	1	4	-0.141894	-0.45199999	-1.053	0.95899999
7	1	4	-0.141894	0.75700003	-1.8430001	0.42699999
8	1	4	-0.143995	1.749	-1.023	-0.41800001
9	1	4	0.025713	2.3959999	0.12800001	0.36399999
10	1	3	-0.46486801	3.4519999	0.76200002	-0.42399999
11	1	1	0.78711402	4.2150002	1.858	0.088
12	1	2	-0.60573798	3.9979999	2.3099999	1.244
13	1	5	0.326776	3.668	0.42500001	-1.39
14	1	6	0.058518	1.6289999	0.89200002	0.61000001
15	1	6	0.058518	2.832	-0.264	1.309
16	1	7	0.089377001	1.249	-0.62900001	-1.3279999
17	1	7	0.089377001	2.55	-1.7130001	-0.75999999
18	1	7	0.088137001	1.301	-2.2809999	1.293
19	1	7	0.088137001	0.38800001	-2.6930001	-0.186
20	1	7	0.088137001	-0.114	-0.237	1.633
21	1	7	0.088137001	-1.063	-1.749	1.574
22	1	7	0.089377001	-0.77499998	0.31	-0.708
23	1	7	0.089377001	-1.602	-1.289	-0.875
24	1	6	0.054933	-3.1960001	-0.64499998	0.94499999
25	1	6	0.054933	-2.352	0.94400001	1.125
26	1	5	0.32019401	-3.1300001	0.63999999	-1.6569999
27	1	8	-0.49666101	4.9559999	2.2869999	-0.49700001
28	1	4	0.115137	6.1100001	1.512	-0.315
29	1	4	-0.138009	6	0.206	-1.1059999
30	1	4	-0.140424	7.2750001	-0.63800001	-0.95700002
31	1	4	-0.139203	7.1539998	-2.016	-1.627
32	1	4	-0.14399301	7.151	-1.929	-3.1619999
33	1	4	0.036761001	7.1890001	-3.3150001	-3.8069999
34	1	8	-0.16417401	6.0209999	-4.0240002	-3.4949999
35	1	6	0.088164002	8.0819998	-3.875	-3.4489999
36	1	6	0.088164002	7.2659998	-3.1960001	-4.9099998
37	1	7	0.094494	6.2420001	-1.398	-3.5150001
38	1	7	0.094494	8.0430002	-1.358	-3.5020001
39	1	7	0.089328997	8.0229998	-2.6300001	-1.304
40	1	7	0.089328997	6.2309999	-2.5250001	-1.272
41	1	7	0.089148998	8.1440001	-0.088	-1.3789999
42	1	7	0.089148998	7.473	-0.80000001	0.125
43	1	7	0.093353003	5.125	-0.37099999	-0.73400003
44	1	7	0.093353003	5.8319998	0.454	-2.1760001
45	1	6	0.088119	6.9840002	2.0929999	-0.67900002
46	1	6	0.088119	6.2639999	1.299	0.76700002
47	1	1	0.543773	-5.2810001	1.734	-1.2
48	1	2	-0.68127602	-5.3039999	1.13	-2.3050001
49	1	3	-0.52128297	-6.013	2.95	-1.011
50	1	4	0.031513002	-6.8260002	3.556	-2.0639999
51	1	4	-0.145282	-8.1389999	2.786	-2.2379999
52	1	4	-0.14171	-9.0120001	3.427	-3.3280001
53	1	4	-0.137509	-10.394	2.7650001	-3.4449999
54	1	4	-0.121697	-10.327	1.36	-4.0650001
55	1	4	0.184873	-11.726	0.75800002	-4.27
56	1	3	-0.63687801	-12.506	1.5190001	-5.2420001
57	1	9	0.593692	-12.193	1.558	-6.4749999
58	1	2	-0.461348	-11.887	1.597	-7.6739998
59	1	6	0.033218	-11.632	-0.29699999	-4.6100001
60	1	6	0.033218	-12.269	0.75099999	-3.3010001
61	1	7	0.083005004	-9.7629995	0.68199998	-3.3900001
62	1	7	0.083005004	-9.7910004	1.397	-5.0380001
63	1	7	0.086852998	-10.874	2.7149999	-2.4430001
64	1	7	0.086852998	-11.027	3.415	-4.0879998
65	1	7	0.088137001	-9.1660004	4.4990001	-3.079
66	1	7	0.088137001	-8.4879999	3.381	-4.3080001
67	1	7	0.089377001	-7.9089999	1.7359999	-2.513
68	1	7	0.089377001	-8.6890001	2.7869999	-1.271
69	1	6	0.054933	-6.2540002	3.572	-3.0179999
70	1	6	0.054933	-7.053	4.6069999	-1.783
71	1	5	0.32019401	-5.9109998	3.4530001	-0.101
72	1	8	-0.16417401	6.1100001	-4.9089999	-3.9349999
73	1	4	0.036761001	7.3460002	-4.9050002	-4.5970001
74	1	4	-0.14399301	8.4849997	-5.0949998	-3.592
75	1	4	-0.13915101	9.8459997	-5.1389999	-4.302
76	1	4	-0.13505501	11.026	-5.197	-3.319
77	1	4	-0.16591699	11.132	-6.552	-2.6010001
78	1	4	0.090116002	12.398	-6.6409998	-1.748
79	1	10	-0.679093	12.349	-5.6999998	-0.71100003
80	1	11	0.38636899	13.196	-5.8060002	-0.204
81	1	6	0.079622	13.296	-6.4650002	-2.3829999
82	1	6	0.079622	12.468	-7.665	-1.316
83	1	7	0.09685	10.25	-6.7090001	-1.944
84	1	7	0.09685	11.155	-7.369	-3.3540001
85	1	7	0.089328997	11.96	-5.0219998	-3.895
86	1	7	0.089328997	10.932	-4.3759999	-2.573
87	1	7	0.089328997	9.8859997	-6.013	-4.9899998
88	1	7	0.089328997	9.9589996	-4.2199998	-4.9180002
89	1	7	0.094494	8.4709997	-4.2540002	-2.8640001
90	1	7	0.094494	8.3149996	-6.0440001	-3.04
91	1	6	0.088164002	7.355	-5.7399998	-5.329
92	1	6	0.088164002	7.4790001	-3.9519999	-5.158

Bonds

1	1	1	2
2	2	1	3
3	3	1	47
4	4	3	4
5	5	3	26
6	6	4	5
7	7	4	24
8	7	4	25
9	6	5	6
10	7	5	22
11	7	5	23
12	6	6	7
13	7	6	20
14	7	6	21
15	6	7	8
16	7	7	18
17	7	7	19
18	6	8	9
19	7	8	16
20	7	8	17
21	4	9	10
22	7	9	14
23	7	9	15
24	2	10	11
25	5	10	13
26	1	11	12
27	8	11	27
28	9	27	28
29	6	28	29
30	7	28	45
31	7	28	46
32	6	29	30
33	7	29	43
34	7	29	44
35	6	30	31
36	7	30	41
37	7	30	42
38	6	31	32
39	7	31	39
40	7	31	40
41	6	32	33
42	7	32	37
43	7	32	38
44	9	33	34
45	7	33	35
46	7	33	36
47	10	34	72
48	1	47	48
49	2	47	49
50	4	49	50
51	5	49	71
52	6	50	51
53	7	50	69
54	7	50	70
55	6	51	52
56	7	51	67
57	7	51	68
58	6	52	53
59	7	52	65
60	7	52	66
61	6	53	54
62	7	53	63
63	7	53	64
64	6	54	55
65	7	54	61
66	7	54	62
67	11	55	56
68	7	55	59
69	7	55	60
70	12	56	57
71	1	57	58
72	9	72	73
73	6	73	74
74	7	73	91
75	7	73	92
76	6	74	75
77	7	74	89
78	7	74	90
79	6	75	76
80	7	75	87
81	7	75	88
82	6	76	77
83	7	76	85
84	7	76	86
85	6	77	78
86	7	77	83
87	7	77	84
88	13	78	79
89	7	78	81
90	7	78	82
91	14	79	80

Angles

1	4	10	9	14
2	4	77	78	79
3	4	7	6	20
4	2	50	49	71
5	4	6	5	22
6	4	5	6	7
7	4	54	53	64
8	4	50	51	67
9	4	56	55	60
10	4	49	50	70
11	4	31	32	37
12	4	52	53	63
13	7	22	5	23
14	2	47	49	71
15	3	10	11	27
16	4	29	30	41
17	4	53	54	61
18	4	4	5	6
19	7	65	52	66
20	7	81	78	82
21	7	14	9	15
22	4	28	29	43
23	2	1	3	26
24	4	8	7	18
25	7	39	31	40
26	4	72	73	74
27	4	76	75	88
28	4	75	74	89
29	4	7	6	21
30	4	31	32	33
31	4	74	73	92
32	4	50	51	52
33	4	6	5	23
34	4	55	54	62
35	3	10	11	12
36	2	4	3	26
37	4	6	7	8
38	4	52	53	64
39	4	49	50	51
40	4	4	5	22
41	7	16	8	17
42	4	8	7	19
43	4	75	74	90
44	7	83	77	84
45	4	72	73	91
46	7	43	29	44
47	7	59	55	60
48	3	2	1	47
49	9	56	57	58
50	4	52	51	67
51	4	29	28	45
52	4	31	30	41
53	1	9	10	11
54	4	5	6	20
55	4	34	33	35
56	7	35	33	36
57	4	32	33	34
58	4	51	50	70
59	7	41	30	42
60	4	10	9	15
61	7	87	75	88
62	3	48	47	49
63	4	51	52	53
64	4	30	29	43
65	7	63	53	64
66	1	1	3	4
67	4	29	28	46
68	4	9	8	16
69	4	78	77	83
70	4	73	74	89
71	4	27	28	45
72	4	5	6	21
73	4	50	51	68
74	4	34	33	36
75	4	31	32	38
76	4	30	31	39
77	4	54	55	59
78	5	33	34	72
79	7	69	50	70
80	4	29	30	42
81	4	32	33	35
82	4	53	54	62
83	7	18	7	19
84	4	8	9	10
85	4	28	29	44
86	4	5	4	24
87	1	47	49	50
88	4	76	77	78
89	4	77	78	81
90	4	79	78	81
91	4	30	29	44
92	4	7	8	16
93	7	61	54	62
94	4	74	75	87
95	4	73	74	90
96	4	30	31	40
97	4	54	55	60
98	5	78	79	80
99	5	11	27	28
100	4	4	5	23
101	7	37	32	38
102	4	33	32	37
103	4	77	78	82
104	3	3	1	47
105	4	8	9	14
106	4	54	55	56
107	7	67	51	68
108	4	72	73	92
109	4	75	76	85
110	7	20	6	21
111	4	52	51	68
112	4	30	31	32
113	4	27	28	29
114	4	32	31	39
115	4	53	54	55
116	4	31	30	42
117	4	54	53	63
118	7	45	28	46
119	7	91	73	92
120	4	29	30	31
121	4	75	76	77
122	4	3	4	5
123	4	51	52	65
124	7	85	76	86
125	4	76	75	87
126	4	74	73	91
127	4	78	77	84
128	4	32	31	40
129	4	9	8	17
130	4	55	54	61
131	4	77	76	85
132	2	9	10	13
133	4	76	77	83
134	4	27	28	46
135	4	74	75	76
136	3	1	47	48
137	4	32	33	36
138	4	52	53	54
139	8	55	56	57
140	4	51	52	66
141	4	5	4	25
142	4	53	52	65
143	4	3	4	24
144	4	73	74	75
145	4	79	78	82
146	3	2	1	3
147	4	7	8	17
148	4	6	7	18
149	4	77	76	86
150	7	89	74	90
151	4	74	75	88
152	2	11	10	13
153	4	76	77	84
154	4	7	8	9
155	6	12	11	27
156	4	28	29	30
157	3	1	47	49
158	5	34	72	73
159	7	24	4	25
160	4	33	32	38
161	4	53	52	66
162	4	56	55	59
163	4	49	50	69
164	4	3	4	25
165	4	8	9	15
166	4	75	76	86
167	4	51	50	69
168	4	6	7	19

Dihedrals

1	27	88	75	74	89
2	18	50	51	52	66
3	28	72	73	74	89
3	29	72	73	74	89
4	5	11	10	9	14
4	6	11	10	9	14
5	27	89	74	73	91
6	30	33	34	72	73
7	27	59	55	54	62
8	31	54	55	56	57
9	7	9	10	11	12
9	8	9	10	11	12
10	27	84	77	76	85
11	22	36	33	34	72
12	5	1	3	4	24
12	6	1	3	4	24
13	18	32	31	30	41
14	5	47	49	50	69
14	6	47	49	50	69
15	27	81	78	77	83
16	27	41	30	29	43
17	27	88	75	74	90
18	18	73	74	75	87
19	14	27	28	29	30
20	18	7	6	5	22
21	28	72	73	74	90
21	29	72	73	74	90
22	15	74	75	76	77
22	16	74	75	76	77
22	17	74	75	76	77
23	14	49	50	51	68
24	27	61	54	53	63
25	11	2	1	3	26
25	12	2	1	3	26
26	15	51	52	53	54
26	16	51	52	53	54
26	17	51	52	53	54
27	18	75	76	77	83
28	32	55	56	57	58
29	18	53	54	55	59
30	18	33	32	31	39
31	18	4	5	6	20
32	18	55	54	53	63
33	28	34	33	32	37
33	29	34	33	32	37
34	18	8	7	6	21
35	5	25	4	3	26
35	6	25	4	3	26
36	27	38	32	31	40
37	11	48	47	49	71
37	12	48	47	49	71
38	18	76	75	74	90
39	18	77	76	75	87
40	27	87	75	74	90
41	27	82	78	77	83
42	5	8	9	10	13
42	6	8	9	10	13
43	18	31	30	29	43
44	13	3	1	47	49
45	18	75	74	73	92
46	18	9	8	7	18
47	27	35	33	32	37
48	18	76	77	78	81
49	35	80	79	78	82
50	27	17	8	7	18
51	27	15	9	8	16
52	14	10	9	8	16
53	14	56	55	54	61
54	27	61	54	53	64
55	27	16	8	7	18
56	31	57	56	55	59
57	27	39	31	30	42
58	18	6	7	8	16
59	27	60	55	54	61
60	18	74	75	76	85
61	18	33	32	31	40
62	18	7	8	9	15
63	27	90	74	73	91
64	18	77	76	75	88
65	18	5	6	7	19
66	5	5	4	3	26
66	6	5	4	3	26
67	28	27	28	29	43
67	29	27	28	29	43
68	18	31	30	29	44
69	22	34	72	73	74
70	18	28	29	30	41
71	14	53	54	55	56
72	5	13	10	9	14
72	6	13	10	9	14
73	18	76	77	78	82
74	27	17	8	7	19
75	18	31	32	33	36
76	27	15	9	8	17
77	22	32	33	34	72
78	14	10	9	8	17
79	27	62	54	53	64
80	18	52	53	54	61
81	14	56	55	54	62
82	22	35	33	34	72
83	18	74	75	76	86
84	27	20	6	5	22
85	7	1	47	49	50
85	8	1	47	49	50
86	27	23	5	4	24
87	15	6	7	8	9
87	16	6	7	8	9
87	17	6	7	8	9
88	5	11	10	9	15
88	6	11	10	9	15
89	15	73	74	75	76
89	16	73	74	75	76
89	17	73	74	75	76
90	27	90	74	73	92
91	27	89	74	73	92
92	18	51	52	53	63
93	27	86	76	75	87
94	27	44	29	28	45
95	19	10	11	27	28
96	27	84	77	76	86
97	27	43	29	28	45
98	9	2	1	3	4
98	10	2	1	3	4
99	27	64	53	52	65
100	22	34	72	73	91
101	5	1	3	4	25
101	6	1	3	4	25
102	22	11	27	28	45
103	27	22	5	4	24
104	18	32	31	30	42
105	5	47	49	50	70
105	6	47	49	50	70
106	27	18	7	6	20
107	18	52	51	50	69
108	14	72	73	74	75
109	27	41	30	29	44
110	27	81	78	77	84
111	27	36	33	32	37
112	18	73	74	75	88
113	15	5	6	7	8
113	16	5	6	7	8
113	17	5	6	7	8
114	18	7	6	5	23
115	27	40	31	30	41
116	27	83	77	76	85
117	14	76	77	78	79
118	28	79	78	77	83
118	29	79	78	77	83
119	14	3	4	5	6
120	27	66	52	51	67
121	27	44	29	28	46
122	18	75	76	77	84
123	18	53	54	55	60
124	18	4	5	6	21
125	27	65	52	51	67
126	18	55	54	53	64
127	18	30	31	32	37
128	28	34	33	32	38
128	29	34	33	32	38
129	18	54	53	52	65
130	27	82	78	77	84
131	15	50	51	52	53
131	16	50	51	52	53
131	17	50	51	52	53
132	27	19	7	6	20
133	18	52	51	50	70
134	13	2	1	47	48
135	18	9	8	7	19
136	27	35	33	32	38
137	27	40	31	30	42
138	1	47	49	50	51
138	2	47	49	50	51
138	3	47	49	50	51
138	4	47	49	50	51
139	15	30	31	32	33
139	16	30	31	32	33
139	17	30	31	32	33
140	27	66	52	51	68
141	18	78	77	76	85
142	27	16	8	7	19
143	31	57	56	55	60
144	18	30	29	28	45
145	18	6	7	8	17
146	27	60	55	54	62
147	14	3	4	5	22
148	27	21	6	5	22
149	18	30	31	32	38
150	18	50	51	52	65
151	18	54	53	52	66
152	18	29	30	31	39
153	18	53	52	51	67
154	28	27	28	29	44
154	29	27	28	29	44
155	20	11	27	28	29
155	21	11	27	28	29
156	18	28	29	30	42
157	5	13	10	9	15
157	6	13	10	9	15
158	7	13	10	11	27
158	8	13	10	11	27
159	27	42	30	29	43
160	27	85	76	75	87
161	7	1	47	49	71
161	8	1	47	49	71
162	18	52	53	54	62
163	27	14	9	8	16
164	1	8	9	10	11
164	2	8	9	10	11
164	3	8	9	10	11
164	4	8	9	10	11
165	7	4	3	1	47
165	8	4	3	1	47
166	33	77	78	79	80
166	34	77	78	79	80
167	14	3	4	5	23
168	27	63	53	52	65
169	27	20	6	5	23
170	27	67	51	50	69
171	27	23	5	4	25
172	18	29	30	31	40
173	14	49	50	51	67
174	14	7	8	9	10
175	18	53	52	51	68
176	18	51	52	53	64
177	27	37	32	31	39
178	27	86	76	75	88
179	5	70	50	49	71
179	6	70	50	49	71
180	27	43	29	28	46
181	27	42	30	29	44
182	27	85	76	75	88
183	18	8	7	6	20
184	22	34	72	73	92
185	27	38	32	31	39
186	22	11	27	28	46
187	27	64	53	52	66
188	18	76	75	74	89
189	27	14	9	8	17
190	27	22	5	4	25
191	27	87	75	74	89
192	27	18	7	6	21
193	14	49	50	51	52
194	13	3	1	47	48
195	23	12	11	10	13
195	24	12	11	10	13
196	27	63	53	52	66
197	9	48	47	49	50
197	10	48	47	49	50
198	18	6	5	4	24
199	27	36	33	32	38
200	25	12	11	27	28
200	26	12	11	27	28
201	27	67	51	50	70
202	27	68	51	50	69
203	18	75	74	73	91
204	15	75	76	77	78
204	16	75	76	77	78
204	17	75	76	77	78
205	35	80	79	78	81
206	27	83	77	76	86
207	14	31	32	33	34
208	28	79	78	77	84
208	29	79	78	77	84
209	27	37	32	31	40
210	15	29	30	31	32
210	16	29	30	31	32
210	17	29	30	31	32
211	15	4	5	6	7
211	16	4	5	6	7
211	17	4	5	6	7
212	27	39	31	30	41
213	5	51	50	49	71
213	6	51	50	49	71
214	27	65	52	51	68
215	18	7	8	9	14
216	7	26	3	1	47
216	8	26	3	1	47
217	5	24	4	3	26
217	6	24	4	3	26
218	27	59	55	54	61
219	27	19	7	6	21
220	18	5	6	7	18
221	15	52	53	54	55
221	16	52	53	54	55
221	17	52	53	54	55
222	27	68	51	50	70
223	13	2	1	47	49
224	18	6	5	4	25
225	1	1	3	4	5
225	2	1	3	4	5
225	3	1	3	4	5
225	4	1	3	4	5
226	15	28	29	30	31
226	16	28	29	30	31
226	17	28	29	30	31
227	18	31	32	33	35
228	27	62	54	53	63
229	18	78	77	76	86
230	7	9	10	11	27
230	8	9	10	11	27
231	18	30	29	28	46
232	5	69	50	49	71
232	6	69	50	49	71
233	27	21	6	5	23

Impropers

42	2	1	47	2	3
73	2	47	1	48	49
95	3	11	27	10	12
126	1	49	50	71	47
135	1	3	26	1	4
245	2	47	48	49	1
288	3	11	12	27	10
335	1	10	13	9	11
382	1	3	1	4	26
434	3	11	10	12	27
435	1	49	71	47	50
442	2	1	3	47	2
473	1	3	4	26	1
477	1	10	9	11	13
519	2	47	49	1	48
529	2	1	2	3	47
566	1	10	11	13	9
580	1	49	47	50	71
