Title

68 atoms
71 bonds
118 angles
171 dihedrals
78 impropers

9 atom types
13 bond types
6 angle types
9 dihedral types
2 improper types
-8.609999657 91.39000034 xlo xhi
-3.019000053 96.98099995 ylo yhi
-8.359000206 91.64099979 zlo zhi
0.0 0.0 0.0 xy xz yz

Masses

1	15.99943
2	12.01078
3	35.4532
4	1.007947
5	12.01078
6	1.007947
7	15.99943
8	15.99943
9	1.007947


Pair Coeffs

1	0.16846514	3.0251065
2	0.086879315	3.4806469
3	0.2656001	3.3075278
4	0.015611343	2.5725815
5	0.10884061	3.3795318
6	0.015779483	2.6445434
7	0.2102061	3.0398122
8	0.20947353	2.99716
9	1.2326e-05	0.53453923

Bond Coeffs

1 harmonic	425.69104206635	1.362945806494
2 harmonic	300.03137914615	1.451203938761
3 harmonic	360.7852444772	1.387193227181
4 harmonic	218.0227703685	1.746066037062
5 harmonic	397.2545789619	1.085358495916
6 harmonic	289.73813263395	1.498646816465
7 harmonic	264.62148576755	1.52190126495
8 harmonic	301.15400723785	1.345741232799
9 harmonic	370.04670688625	1.093899492634
10 harmonic	582.698766451	1.225198386222
11 harmonic	279.1350963404	1.454628925034
12 harmonic	385.7604595587	1.369745182308
13 harmonic	543.5267831885	0.9716763312559


Angle Coeffs

1 harmonic	57.8982893754	126.8062420451
2 harmonic	65.09061609600001	110.3538806181
3 harmonic	34.066775159195	129.1835929926
4 harmonic	53.20531626545	116.5475862634
5 harmonic	201.41175231035	127.4691416191
6 harmonic	48.776492647595	115.6030999533


Dihedral Coeffs

1 fourier 1	3.661930099076	2	180
2 fourier 1	1.532232714475	2	180
3 fourier 1	0.457973137376	1	0
4 fourier 1	0.02664938770063	3	0
5 fourier 1	0.1155372516788	3	0
6 fourier 1	2.779853741805	2	180
7 fourier 1	0.9974165607242	2	180
8 fourier 1	0.1040663847541	3	0
9 fourier 1	0.8283030590042	2	180


Improper Coeffs

1 0.3666666666666667	-1	2
2 3.5	-1	2


Atoms

1	1	1	-0.095482998	-4.8119998	1.365	1.423
2	1	2	0.24909399	-3.642	0.80199999	0.91000003
3	1	2	-0.105297	-2.642	0.48100001	1.744
4	1	3	-0.040716	-2.7869999	0.75700003	3.474
5	1	2	-0.134343	-1.396	-0.113	1.219
6	1	4	0.221644	-0.61500001	-0.37099999	1.923
7	1	2	-0.220497	-1.224	-0.32699999	-0.104
8	1	5	0.017457999	0.083999999	-0.96799999	-0.60699999
9	1	2	-0.220497	1.295	-0.211	-0.028000001
10	1	2	-0.13090201	1.36	1.133	-0.146
11	1	4	0.221644	0.55800003	1.6799999	-0.62699997
12	1	2	-0.079838999	2.5120001	1.898	0.37599999
13	1	3	-0.045311999	2.4909999	3.648	0.198
14	1	2	0.52111399	3.536	1.251	0.96600002
15	1	1	-0.415124	4.6440001	1.933	1.475
16	1	2	-0.079838999	3.4949999	-0.223	1.081
17	1	3	-0.045311999	4.8309999	-1.08	1.834
18	1	2	-0.13090201	2.447	-0.912	0.61199999
19	1	4	0.221644	2.4590001	-1.988	0.70899999
20	1	5	-0.128556	0.052999999	-2.457	-0.185
21	1	6	0.092860997	0.90399998	-3.0190001	-0.62699997
22	1	6	0.092860997	0.089000002	-2.5599999	0.92000002
23	1	6	0.092860997	-0.88300002	-2.9400001	-0.542
24	1	5	-0.128556	0.215	-0.92699999	-2.148
25	1	6	0.092860997	1.211	-1.311	-2.4619999
26	1	6	0.092860997	0.114	0.111	-2.5309999
27	1	6	0.092860997	-0.55299997	-1.566	-2.6359999
28	1	2	-0.134343	-2.3529999	0.017000001	-1.02
29	1	4	0.221644	-2.277	-0.15800001	-2.0829999
30	1	2	-0.105297	-3.487	0.55199999	-0.546
31	1	3	-0.040716	-4.7800002	0.94099998	-1.6720001
32	1	2	0.62906802	4.7470002	2.9760001	1.432
33	1	7	-0.46525201	5.8569999	3.4790001	1.423
34	1	1	-0.095482998	-5.592	1.624	0.83200002
35	1	2	0.24909399	-5.4159999	2.1860001	-0.433
36	1	2	-0.105297	-6.4910002	2.5079999	-1.168
37	1	3	-0.040716	-8.1160002	2.2320001	-0.55800003
38	1	2	-0.134343	-6.3249998	3.1010001	-2.51
39	1	4	0.221644	-7.2150002	3.3599999	-3.0699999
40	1	2	-0.220497	-5.099	3.3150001	-3.0350001
41	1	5	0.017457999	-4.9699998	3.957	-4.4310002
42	1	2	-0.220497	-5.8559999	3.1989999	-5.4390001
43	1	2	-0.082143001	-5.7610002	1.855	-5.5339999
44	1	4	0.221644	-5.0799999	1.308	-4.8930001
45	1	2	-0.175465	-6.5760002	1.091	-6.5
46	1	3	-0.039818	-6.4000001	-0.65899998	-6.5279999
47	1	2	0.436849	-7.4229999	1.737	-7.3249998
48	1	8	-0.628546	-8.2139997	1.0549999	-8.2519999
49	1	9	0.43741599	-8.2010002	0.048999999	-8.3590002
50	1	2	-0.175465	-7.5229998	3.211	-7.2540002
51	1	3	-0.039818	-8.6099997	4.0689998	-8.335
52	1	2	-0.082143001	-6.7859998	3.901	-6.3730001
53	1	4	0.221644	-6.8829999	4.9759998	-6.3579998
54	1	5	-0.128556	-5.3670001	5.4450002	-4.2859998
55	1	6	0.092860997	-5.1739998	6.007	-5.2249999
56	1	6	0.092860997	-6.441	5.5489998	-4.02
57	1	6	0.092860997	-4.7690001	5.9289999	-3.483
58	1	5	-0.128556	-3.5220001	3.9159999	-4.9759998
59	1	6	0.092860997	-3.4909999	4.2989998	-6.0190001
60	1	6	0.092860997	-3.1270001	2.878	-4.9819999
61	1	6	0.092860997	-2.845	4.5549998	-4.369
62	1	2	-0.134343	-3.9100001	2.971	-2.198
63	1	4	0.221644	-2.908	3.1459999	-2.5599999
64	1	2	-0.105297	-4.0580001	2.437	-0.97799999
65	1	3	-0.040716	-2.622	2.0469999	-0.039000001
66	1	2	0.471468	3.865	3.6059999	1.395
67	1	7	-0.52938598	2.7579999	3.102	1.314
68	1	3	-0.062643997	4.0320001	5.3509998	1.451

Bonds

1	1	1	2
2	2	1	34
3	3	2	3
4	3	2	30
5	4	3	4
6	3	3	5
7	5	5	6
8	3	5	7
9	6	7	8
10	3	7	28
11	6	8	9
12	7	8	20
13	7	8	24
14	3	9	10
15	3	9	18
16	5	10	11
17	3	10	12
18	4	12	13
19	3	12	14
20	1	14	15
21	3	14	16
22	8	15	32
23	4	16	17
24	3	16	18
25	5	18	19
26	9	20	21
27	9	20	22
28	9	20	23
29	9	24	25
30	9	24	26
31	9	24	27
32	5	28	29
33	3	28	30
34	4	30	31
35	10	32	33
36	11	32	66
37	1	34	35
38	3	35	36
39	3	35	64
40	4	36	37
41	3	36	38
42	5	38	39
43	3	38	40
44	6	40	41
45	3	40	62
46	6	41	42
47	7	41	54
48	7	41	58
49	3	42	43
50	3	42	52
51	5	43	44
52	3	43	45
53	4	45	46
54	3	45	47
55	12	47	48
56	3	47	50
57	13	48	49
58	4	50	51
59	3	50	52
60	5	52	53
61	9	54	55
62	9	54	56
63	9	54	57
64	9	58	59
65	9	58	60
66	9	58	61
67	5	62	63
68	3	62	64
69	4	64	65
70	10	66	67
71	4	66	68

Angles

1	1	9	10	12
2	4	8	24	25
3	6	25	24	27
4	4	7	8	9
5	3	11	10	12
6	4	9	8	20
7	4	41	54	57
8	2	14	15	32
9	1	34	35	36
10	1	38	40	41
11	4	41	58	60
12	6	25	24	26
13	3	7	28	29
14	3	29	28	30
15	1	35	36	38
16	1	43	45	46
17	3	63	62	64
18	4	42	41	54
19	6	21	20	22
20	6	55	54	57
21	1	2	30	31
22	4	8	20	22
23	1	51	50	52
24	3	6	5	7
25	3	50	52	53
26	1	36	35	64
27	4	41	58	61
28	1	8	9	18
29	1	47	50	51
30	1	32	66	67
31	6	26	24	27
32	2	1	34	35
33	4	40	41	42
34	5	15	32	33
35	4	40	41	54
36	4	54	41	58
37	1	28	30	31
38	1	15	14	16
39	3	40	62	63
40	1	42	43	45
41	2	2	1	34
42	1	40	62	64
43	6	56	54	57
44	1	2	3	4
45	3	42	43	44
46	1	14	16	18
47	1	43	42	52
48	4	8	24	27
49	1	8	7	28
50	3	39	38	40
51	1	46	45	47
52	4	8	24	26
53	1	7	28	30
54	4	41	58	59
55	1	12	14	15
56	1	41	42	43
57	1	35	64	62
58	1	10	12	13
59	3	9	18	19
60	1	32	66	68
61	1	37	36	38
62	1	9	18	16
63	1	3	5	7
64	1	41	40	62
65	2	47	48	49
66	4	7	8	24
67	1	45	47	48
68	1	45	47	50
69	1	14	16	17
70	1	62	64	65
71	1	10	12	14
72	1	42	52	50
73	4	41	54	55
74	4	9	8	24
75	1	12	14	16
76	1	3	2	30
77	1	1	2	3
78	1	47	50	52
79	4	20	8	24
80	6	59	58	60
81	4	41	54	56
82	1	35	64	65
83	4	42	41	58
84	1	15	32	66
85	1	35	36	37
86	6	21	20	23
87	1	41	42	52
88	4	8	20	23
89	1	43	45	47
90	1	2	3	5
91	6	55	54	56
92	1	36	38	40
93	3	3	5	6
94	1	5	7	8
95	6	60	58	61
96	4	40	41	58
97	1	38	40	62
98	1	67	66	68
99	6	22	20	23
100	1	1	2	30
101	1	4	3	5
102	3	36	38	39
103	1	48	47	50
104	1	2	30	28
105	1	8	9	10
106	1	34	35	64
107	1	17	16	18
108	1	10	9	18
109	1	5	7	28
110	3	9	10	11
111	3	44	43	45
112	6	59	58	61
113	1	33	32	66
114	3	42	52	53
115	1	13	12	14
116	4	7	8	20
117	3	16	18	19
118	4	8	20	21

Dihedrals

1	1	12	14	16	18
2	1	35	64	62	63
3	5	7	8	24	26
4	1	8	7	28	29
5	8	54	41	58	61
6	1	43	45	47	48
7	5	9	8	20	21
8	1	43	45	47	50
9	5	40	41	54	56
10	1	7	28	30	31
11	1	2	30	28	29
12	1	43	42	52	50
13	5	9	8	24	25
14	1	45	47	50	51
15	1	41	42	52	50
16	1	46	45	47	50
17	7	15	32	66	68
18	3	2	1	34	35
19	4	5	7	8	24
20	1	13	12	14	16
21	1	36	38	40	41
22	1	44	43	42	52
23	1	3	5	7	28
24	4	24	8	7	28
25	1	41	42	52	53
26	1	15	14	16	17
27	1	4	3	5	6
28	1	35	36	38	40
29	1	38	36	35	64
30	7	33	32	66	67
31	1	3	2	30	31
32	4	43	42	41	58
33	5	9	8	24	27
34	4	9	8	7	28
35	1	35	36	38	39
36	1	48	47	50	52
37	1	5	3	2	30
38	5	7	8	24	27
39	4	42	41	40	62
40	5	9	8	24	26
41	5	40	41	54	55
42	1	44	43	45	47
43	8	57	54	41	58
44	1	1	2	3	5
45	1	5	7	28	30
46	1	9	18	16	17
47	1	51	50	52	53
48	1	39	38	40	62
49	2	14	15	32	33
50	1	6	5	7	28
51	8	20	8	24	27
52	4	20	8	7	28
53	5	40	41	58	60
54	5	42	41	54	55
55	8	54	41	58	59
56	4	10	9	8	20
57	1	34	35	64	65
58	1	1	2	30	28
59	8	20	8	24	26
60	2	1	34	35	64
61	9	49	48	47	50
62	1	2	3	5	6
63	8	23	20	8	24
64	1	34	35	36	37
65	1	43	42	52	53
66	4	40	41	42	52
67	4	18	9	8	24
68	5	42	41	58	60
69	5	42	41	54	56
70	4	54	41	40	62
71	1	42	52	50	51
72	2	12	14	15	32
73	1	9	10	12	14
74	4	7	8	9	10
75	1	8	9	18	19
76	1	8	9	18	16
77	4	38	40	41	58
78	1	42	43	45	47
79	1	12	14	16	17
80	1	4	3	2	30
81	7	33	32	66	68
82	1	35	64	62	40
83	1	37	36	38	40
84	8	21	20	8	24
85	4	5	7	8	20
86	1	39	38	40	41
87	1	41	40	62	64
88	5	40	41	58	61
89	1	10	12	14	15
90	2	1	34	35	36
91	1	37	36	38	39
92	1	45	47	50	52
93	1	11	10	12	14
94	1	44	43	45	46
95	4	5	7	8	9
96	4	43	42	41	54
97	2	3	2	1	34
98	1	9	10	12	13
99	1	40	62	64	65
100	5	42	41	58	61
101	1	38	40	62	63
102	1	4	3	5	7
103	5	7	8	20	23
104	1	1	2	30	31
105	1	8	7	28	30
106	1	9	18	16	14
107	1	36	38	40	62
108	1	38	40	62	64
109	9	45	47	48	49
110	5	40	41	54	57
111	2	30	2	1	34
112	1	37	36	35	64
113	1	29	28	30	31
114	1	17	16	18	19
115	1	41	42	43	45
116	5	7	8	20	22
117	1	48	47	50	51
118	1	42	52	50	47
119	1	34	35	36	38
120	1	11	10	12	13
121	1	36	35	64	62
122	5	42	41	54	57
123	1	41	40	62	63
124	8	22	20	8	24
125	4	7	8	9	18
126	1	41	42	43	44
127	1	47	50	52	53
128	7	15	32	66	67
129	4	18	9	8	20
130	8	56	54	41	58
131	1	42	43	45	46
132	5	7	8	20	21
133	1	3	5	7	8
134	8	54	41	58	60
135	1	1	2	3	4
136	6	14	15	32	66
137	1	8	9	10	11
138	1	46	45	47	48
139	1	10	9	18	19
140	5	40	41	58	59
141	1	2	3	5	7
142	1	11	10	9	18
143	4	52	42	41	58
144	8	55	54	41	58
145	5	7	8	24	25
146	5	9	8	20	23
147	1	10	9	18	16
148	4	58	41	40	62
149	4	38	40	41	42
150	4	40	41	42	43
151	1	45	43	42	52
152	4	38	40	41	54
153	1	63	62	64	65
154	1	34	35	64	62
155	1	3	2	30	28
156	1	8	9	10	12
157	1	15	14	16	18
158	5	42	41	58	59
159	1	12	10	9	18
160	1	14	16	18	19
161	1	5	7	28	29
162	8	20	8	24	25
163	1	36	35	64	65
164	5	9	8	20	22
165	4	10	9	8	24
166	1	10	12	14	16
167	1	13	12	14	15
168	1	6	5	7	8
169	4	52	42	41	54
170	2	16	14	15	32
171	1	2	30	28	7

Impropers

1	1	30	28	31	2
4	1	3	4	5	2
6	1	36	37	38	35
11	1	50	47	51	52
14	1	66	32	67	68
19	1	64	35	62	65
22	1	45	46	47	43
26	1	40	62	38	41
29	1	28	30	7	29
30	1	9	10	18	8
32	2	32	66	15	33
37	1	2	3	30	1
38	1	36	38	35	37
39	1	2	30	1	3
40	1	30	31	2	28
42	1	50	52	47	51
46	1	16	14	17	18
48	1	12	10	13	14
51	1	52	50	53	42
54	1	3	2	4	5
59	1	47	48	50	45
65	1	18	19	9	16
72	1	35	64	34	36
73	1	64	62	65	35
76	1	7	8	28	5
83	1	12	14	10	13
86	1	30	2	28	31
92	1	43	44	45	42
100	1	50	51	52	47
101	1	62	63	64	40
107	1	16	18	14	17
111	1	10	12	9	11
114	1	28	29	30	7
115	1	3	5	2	4
121	1	9	8	10	18
127	1	38	39	40	36
128	1	45	47	43	46
136	1	5	3	6	7
137	1	14	15	16	12
150	1	45	43	46	47
153	1	9	18	8	10
154	1	5	6	7	3
158	2	32	15	33	66
163	2	32	33	66	15
164	1	10	9	11	12
176	1	16	17	18	14
179	1	62	64	40	63
187	1	38	36	39	40
189	1	7	28	5	8
191	1	38	40	36	39
195	1	43	45	42	44
198	1	2	1	3	30
199	1	66	67	68	32
205	1	35	34	36	64
213	1	52	42	50	53
219	1	62	40	63	64
220	1	18	9	16	19
222	1	10	11	12	9
223	1	14	16	12	15
225	1	52	53	42	50
227	1	42	43	52	41
234	1	36	35	37	38
240	1	47	45	48	50
244	1	18	16	19	9
245	1	35	36	64	34
247	1	42	52	41	43
249	1	7	5	8	28
250	1	14	12	15	16
255	1	40	41	62	38
259	1	47	50	45	48
265	1	12	13	14	10
267	1	5	7	3	6
274	1	64	65	35	62
289	1	43	42	44	45
290	1	28	7	29	30
291	1	40	38	41	62
292	1	66	68	32	67
300	1	42	41	43	52
