Title

12000 atoms
12875 bonds
23750 angles
40875 dihedrals
9750 impropers

9 atom types
13 bond types
7 angle types
12 dihedral types
2 improper types
-7.708003565 84.92525632 xlo xhi
-8.329193271 85.091262 ylo yhi
-8.091711693 84.80187793 zlo zhi
0.0 0.0 0.0 xy xz yz

Masses

1	15.99943
2	12.01078
3	1.007947
4	12.01078
5	1.007947
6	15.99943
7	15.99943
8	1.007947
9	35.4532


Pair Coeffs

1	0.16846514	3.0251065
2	0.086879315	3.4806469
3	0.015611343	2.5725815
4	0.10884061	3.3795318
5	0.015779483	2.6445434
6	0.2102061	3.0398122
7	0.20947353	2.99716
8	1.2326e-05	0.53453923
9	0.2656001	3.3075278

Bond Coeffs

1 harmonic	425.69104206635	1.362945806494
2 harmonic	300.03137914615	1.451203938761
3 harmonic	360.7852444772	1.387193227181
4 harmonic	397.2545789619	1.085358495916
5 harmonic	289.73813263395	1.498646816465
6 harmonic	264.62148576755	1.52190126495
7 harmonic	370.04670688625	1.093899492634
8 harmonic	301.15400723785	1.345741232799
9 harmonic	582.698766451	1.225198386222
10 harmonic	279.1350963404	1.454628925034
11 harmonic	385.7604595587	1.369745182308
12 harmonic	543.5267831885	0.9716763312559
13 harmonic	218.0227703685	1.746066037062


Angle Coeffs

1 harmonic	57.8982893754	126.8062420451
2 harmonic	65.09061609600001	110.3538806181
3 harmonic	34.066775159195	129.1835929926
4 harmonic	53.20531626545	116.5475862634
5 harmonic	14.32262199324	138.3184368373
6 harmonic	48.776492647595	115.6030999533
7 harmonic	201.41175231035	127.4691416191


Dihedral Coeffs

1 fourier 1	3.661930099076	2	180
2 fourier 1	1.532232714475	2	180
3 fourier 1	0.457973137376	1	0
4 fourier 1	0.02664938770063	3	0
5 fourier 1	0.1155372516788	3	0
6 fourier 1	0.09223874044423	3	0
7 fourier 1	0.3159935921949	2	180
8 fourier 1	0.3247796806857	1	180
9 fourier 1	0.1040663847541	3	0
10 fourier 1	2.779853741805	2	180
11 fourier 1	0.9974165607242	2	180
12 fourier 1	0.8283030590042	2	180


Improper Coeffs

1 0.3666666666666667	-1	2
2 3.5	-1	2


Atoms

1	4	1	-0.052894879	-3.0051743	-1.4994284	-3.5750035
2	4	2	0.2327081	-2.961637	-0.87231461	-2.3316256
3	4	2	-0.36475202	-1.8050766	-0.37198322	-1.8495037
4	4	3	0.20101419	-0.89119329	-0.45185856	-2.4234604
5	4	2	-0.063865576	-1.7730903	0.28617004	-0.52235744
6	4	3	0.19716113	-0.84270107	0.66864539	-0.12300361
7	4	2	-0.10100998	-2.9150877	0.38805857	0.17487691
8	4	2	-0.20741616	-4.1600474	-0.13841934	-0.34166771
9	4	2	-0.18360917	-4.2064165	-0.75865518	-1.5311136
10	4	3	0.19423274	-5.1329814	-1.1763053	-1.9050881
11	4	4	-0.037238836	-5.278136	0.05689661	0.63519798
12	4	4	-0.13881257	-5.6810512	-1.2968359	1.2467065
13	4	5	0.079107318	-6.0781458	-1.9777631	0.46288632
14	4	5	0.079107318	-6.4693563	-1.1539684	2.0171018
15	4	5	0.079107318	-4.8063135	-1.7886333	1.7250415
16	4	4	-0.13881257	-6.4934049	0.72568743	-0.034000275
17	4	5	0.079107318	-6.949016	0.05203707	-0.7917461
18	4	5	0.079107318	-6.1921729	1.6683028	-0.53967754
19	4	5	0.079107318	-7.2660636	0.9659673	0.72790858
20	4	4	-0.1617141	-4.6535835	0.98853982	1.72206
21	4	5	0.11154282	-4.9587315	0.69178892	2.7484413
22	4	5	0.11154282	-5.0336123	2.0269104	1.5885583
23	4	4	0.1185679	-3.1048732	0.96995286	1.5363719
24	4	2	-0.10101002	-2.5079676	2.3328866	1.6743619
25	4	2	-0.062686991	-2.6837483	3.3902986	0.86844874
26	4	3	0.19716114	-3.3001319	3.3171682	-0.018378317
27	4	2	-0.30265677	-2.0229558	4.6699683	1.2200331
28	4	3	0.20265274	-2.149065	5.5296318	0.57426139
29	4	2	0.39660967	-1.2783697	4.7640565	2.3378708
30	4	1	-0.45433658	-0.66871401	5.9728545	2.6602452
31	4	2	-0.14665013	-1.1131501	3.5799137	3.2208019
32	4	3	0.19289671	-0.53265779	3.6553462	4.130334
33	4	2	-0.20738728	-1.7010446	2.4249048	2.8713501
34	4	4	-0.037238829	-1.6945639	1.1294881	3.6231131
35	4	4	-0.13881257	-0.25692798	0.68023282	3.9483186
36	4	5	0.079107311	0.22379523	1.3784804	4.6662353
37	4	5	0.079107311	0.36072105	0.64748589	3.0244959
38	4	5	0.079107311	-0.2665764	-0.33434156	4.4026838
39	4	4	-0.13881257	-2.516513	1.2701839	4.9169379
40	4	5	0.079107311	-2.5680688	0.29760584	5.4499293
41	4	5	0.079107311	-2.0527291	2.0175396	5.5964038
42	4	5	0.079107311	-3.5524748	1.6017803	4.6888675
43	4	4	-0.1617141	-2.3840112	0.13337558	2.6372975
44	4	5	0.11154282	-3.0773776	-0.55825473	3.1635432
45	4	5	0.11154282	-1.6149394	-0.52061199	2.1659262
46	5	2	0.62367541	-0.084701155	6.0716578	3.5256705
47	5	6	-0.53260195	-0.61294984	6.0473631	4.6247411
48	1	1	-0.052894879	-2.1764873	-1.5972656	-4.1514025
49	1	2	0.2327081	-0.91202542	-1.7675477	-3.5940749
50	1	2	-0.36475202	-0.74562425	-1.8062271	-2.2551467
51	1	3	0.20101419	-1.5959025	-1.7039207	-1.5934903
52	1	2	-0.063865576	0.60701009	-1.9806412	-1.676012
53	1	3	0.19716113	0.74587038	-1.9903866	-0.60213913
54	1	2	-0.10100998	1.6509535	-2.1168992	-2.5066598
55	1	2	-0.20741616	1.4770747	-2.0861137	-3.9435051
56	1	2	-0.18360917	0.26431814	-1.9051137	-4.4888047
57	1	3	0.19423274	0.13807993	-1.8549996	-5.5624533
58	1	4	-0.037238836	2.7908092	-2.2126609	-4.6507535
59	1	4	-0.13881257	3.1717466	-0.86597667	-5.2937786
60	1	5	0.079107318	2.432939	-0.58255854	-6.0742313
61	1	5	0.079107318	4.1733822	-0.93534004	-5.76946
62	1	5	0.079107318	3.1995301	-0.060133989	-4.5287037
63	1	4	-0.13881257	2.744537	-3.3214252	-5.7195596
64	1	5	0.079107318	2.051699	-3.0493663	-6.5431721
65	1	5	0.079107318	2.3999628	-4.2797823	-5.2739294
66	1	5	0.079107318	3.7562522	-3.4784259	-6.1524965
67	1	4	-0.1617141	3.7875864	-2.5792548	-3.5063138
68	1	5	0.11154282	4.7594778	-2.0494049	-3.6163059
69	1	5	0.11154282	4.0352676	-3.6631405	-3.5562228
70	1	4	0.1185679	3.0930802	-2.2618008	-2.1459767
71	1	2	-0.10101002	3.3323003	-3.3318043	-1.1323164
72	1	2	-0.003730787	2.9013498	-4.6018183	-1.1621177
73	1	3	0.19716114	2.283001	-4.9601376	-1.9752604
74	1	2	-0.43636539	3.2950753	-5.513593	-0.062214968
75	1	3	0.20634596	2.9474332	-6.5387332	-0.068659523
76	1	2	0.35635481	4.0857743	-5.0720815	0.93482301
77	1	7	-0.65912622	4.4551853	-5.9391192	1.9585456
78	1	8	0.42460391	5.0495273	-5.629946	2.7180662
79	1	2	-0.37185678	4.5627419	-3.663842	0.93420829
80	1	3	0.20003374	5.2145665	-3.3085625	1.7213869
81	1	2	-0.17799896	4.1746856	-2.8494767	-0.059782903
82	1	4	-0.037238829	4.5578576	-1.4176889	-0.27328691
83	1	4	-0.13881257	4.2664862	-0.56759485	0.97821171
84	1	5	0.079107311	4.921264	-0.86995853	1.8230852
85	1	5	0.079107311	3.2083649	-0.68915895	1.2953464
86	1	5	0.079107311	4.4501777	0.50664621	0.762748
87	1	4	-0.13881257	6.0488027	-1.3257644	-0.64676059
88	1	5	0.079107311	6.3275004	-0.27237937	-0.86777788
89	1	5	0.079107311	6.6852947	-1.6887457	0.1885666
90	1	5	0.079107311	6.2671182	-1.9427291	-1.5458595
91	1	4	-0.1617141	3.6607308	-0.97550994	-1.4715662
92	1	5	0.11154282	4.2145713	-0.33283921	-2.1916919
93	1	5	0.11154282	2.8205691	-0.34657538	-1.0998571
94	2	2	0.46297914	0.98957226	6.1952403	3.4434209
95	2	6	-0.62136769	1.5285515	6.1317192	2.3513663
96	2	9	-0.10656721	1.9511031	6.4874073	4.8803255
97	4	1	-0.052894879	-0.86542666	4.078733	19.282202
98	4	2	0.2327081	0.13569833	3.207998	18.857084
99	4	2	-0.36475202	-0.08268613	2.3454952	17.842785
100	4	3	0.20101419	-1.0424859	2.3169967	17.343825
101	4	2	-0.063865576	0.98959551	1.420696	17.406362
102	4	3	0.19716113	0.81044395	0.71226946	16.607969
103	4	2	-0.10100998	2.1785476	1.4731135	18.026298
104	4	2	-0.20741616	2.4211079	2.4027208	19.108387
105	4	2	-0.18360917	1.4562206	3.2328362	19.534445
106	4	3	0.19423274	1.6297494	3.9094471	20.362029
107	4	4	-0.037238836	3.802115	2.2395582	19.664026
108	4	4	-0.13881257	3.7314477	1.5980353	21.061284
109	4	5	0.079107318	3.1952562	2.2644284	21.771311
110	4	5	0.079107318	4.7545755	1.4178979	21.456385
111	4	5	0.079107318	3.1932562	0.62613232	21.021415
112	4	4	-0.13881257	4.5398713	3.5898287	19.730893
113	4	5	0.079107318	4.0600994	4.2672984	20.470095
114	4	5	0.079107318	4.5298894	4.0907836	18.738966
115	4	5	0.079107318	5.597083	3.4338866	20.036223
116	4	4	-0.1617141	4.4915408	1.2738475	18.648453
117	4	5	0.11154282	5.1280884	0.51974445	19.15911
118	4	5	0.11154282	5.1833351	1.8508061	17.993474
119	4	4	0.1185679	3.3753683	0.61566006	17.779961
120	4	2	-0.10101002	3.7554191	0.54894751	16.336342
121	4	2	-0.062686991	3.9390729	1.5719304	15.488821
122	4	3	0.19716114	3.7915098	2.5946311	15.811385
123	4	2	-0.30265677	4.3584823	1.2765048	14.09791
124	4	3	0.20265274	4.5023494	2.0917822	13.400364
125	4	2	0.39660967	4.5663454	0.0047059407	13.707855
126	4	1	-0.45433658	4.9663305	-0.25888157	12.401206
127	4	2	-0.14665013	4.3698796	-1.1085281	14.672827
128	4	3	0.19289671	4.5548107	-2.1304606	14.370562
129	4	2	-0.20738728	3.9673926	-0.82017613	15.920481
130	4	4	-0.037238829	3.7421513	-1.7732587	17.053703
131	4	4	-0.13881257	2.7739628	-2.9018403	16.649599
132	4	5	0.079107311	3.2270502	-3.5535266	15.872382
133	4	5	0.079107311	1.8284834	-2.4794826	16.245008
134	4	5	0.079107311	2.5299375	-3.5312725	17.53287
135	4	4	-0.13881257	5.0862451	-2.3624063	17.518133
136	4	5	0.079107311	4.9355505	-3.023092	18.397583
137	4	5	0.079107311	5.5529429	-2.9611929	16.706371
138	4	5	0.079107311	5.7914817	-1.5522023	17.803439
139	4	4	-0.1617141	3.120149	-0.87288397	18.168086
140	4	5	0.11154282	3.5216022	-1.1214053	19.174623
141	4	5	0.11154282	2.0236054	-1.0594362	18.232526
142	5	2	0.62367541	5.1354504	-1.2406548	12.073619
143	5	6	-0.53260195	6.095014	-1.866933	12.491478
144	1	1	-0.052894879	-1.7806478	4.091788	18.845475
145	1	2	0.2327081	-2.363306	2.9370666	18.330109
146	1	2	-0.36475202	-1.7220178	1.7510446	18.393476
147	1	3	0.20101419	-0.74168213	1.680996	18.846537
148	1	2	-0.063865576	-2.3511927	0.53170182	17.83421
149	1	3	0.19716113	-1.8296266	-0.41678754	17.864488
150	1	2	-0.10100998	-3.5706728	0.62980771	17.285025
151	1	2	-0.20741616	-4.2672892	1.8973301	17.223231
152	1	2	-0.18360917	-3.7057269	3.0182038	17.701959
153	1	3	0.19423274	-4.2149861	3.9704876	17.631393
154	1	4	-0.037238836	-5.5853259	1.7574231	16.526583
155	1	4	-0.13881257	-5.5220968	2.4341681	15.144493
156	1	5	0.079107318	-5.3499898	3.5269315	15.251808
157	1	5	0.079107318	-6.4768916	2.2828645	14.596924
158	1	5	0.079107318	-4.6952231	2.0074493	14.536476
159	1	4	-0.13881257	-6.7270886	2.3618557	17.366157
160	1	5	0.079107318	-6.6151567	3.462897	17.45309
161	1	5	0.079107318	-6.7314944	1.9281672	18.38971
162	1	5	0.079107318	-7.7080036	2.1476686	16.889103
163	1	4	-0.1617141	-5.757091	0.2127832	16.37731
164	1	5	0.11154282	-6.1810762	-0.064288238	15.386916
165	1	5	0.11154282	-6.4915642	-0.15806406	17.126754
166	1	4	0.1185679	-4.368127	-0.45056294	16.63105
167	1	2	-0.10101002	-4.4798959	-1.6788287	17.472781
168	1	2	-0.003730787	-4.8582604	-1.7621064	18.757089
169	1	3	0.19716114	-5.1059028	-0.87275409	19.322487
170	1	2	-0.43636539	-4.9406493	-3.0995167	19.390086
171	1	3	0.20634596	-5.2360956	-3.1811796	20.428282
172	1	2	0.35635481	-4.6569115	-4.206322	18.676856
173	1	7	-0.65912622	-4.744776	-5.4574417	19.279522
174	1	8	0.42460391	-4.5371463	-6.3035148	18.763042
175	1	2	-0.37185678	-4.2561071	-4.0861311	17.25013
176	1	3	0.20003374	-4.0465141	-4.9725374	16.666089
177	1	2	-0.17799896	-4.1656678	-2.8632627	16.704044
178	1	4	-0.037238829	-3.8145742	-2.5149782	15.29059
179	1	4	-0.13881257	-2.4801843	-3.1601821	14.869969
180	1	5	0.079107311	-2.5705971	-4.2666616	14.831269
181	1	5	0.079107311	-1.6760318	-2.9003446	15.591631
182	1	5	0.079107311	-2.1814438	-2.7999796	13.862413
183	1	4	-0.13881257	-4.9455284	-2.9615239	14.345926
184	1	5	0.079107311	-4.7218398	-2.6515924	13.301873
185	1	5	0.079107311	-5.0601367	-4.0665537	14.366492
186	1	5	0.079107311	-5.9131273	-2.5042958	14.648218
187	1	4	-0.1617141	-3.6999961	-0.95856747	15.316845
188	1	5	0.11154282	-4.1472337	-0.49258606	14.410652
189	1	5	0.11154282	-2.6273382	-0.66053033	15.303539
190	2	2	0.46297914	4.4566531	-1.6994834	11.363118
191	2	6	-0.62136769	3.4499587	-1.1074007	11.012231
192	2	9	-0.10656721	4.8072264	-3.2919129	10.718242
193	4	1	-0.052894879	2.0362476	-2.4084726	29.640483
194	4	2	0.2327081	0.82580053	-2.1165036	30.265566
195	4	2	-0.36475202	0.728562	-1.0950441	31.141676
196	4	3	0.20101419	1.5928742	-0.48637129	31.372914
197	4	2	-0.063865576	-0.56396856	-0.80099576	31.803799
198	4	3	0.19716113	-0.63993928	0.0034999586	32.523806
199	4	2	-0.10100998	-1.6306733	-1.5565973	31.500678
200	4	2	-0.20741616	-1.5341463	-2.6473342	30.554688
201	4	2	-0.18360917	-0.36757046	-2.9450668	29.961325
202	4	3	0.19423274	-0.28965431	-3.7783036	29.27397
203	4	4	-0.037238836	-2.8416338	-3.3647046	30.419067
204	4	4	-0.13881257	-2.7479993	-4.7521737	31.07864
205	4	5	0.079107318	-1.9988218	-5.3847912	30.554953
206	4	5	0.079107318	-3.731579	-5.268001	31.035766
207	4	5	0.079107318	-2.443996	-4.6617901	32.14412
208	4	4	-0.13881257	-3.2529846	-3.5004911	28.941116
209	4	5	0.079107318	-2.5525762	-4.168608	28.394661
210	4	5	0.079107318	-3.2512396	-2.5077859	28.441609
211	4	5	0.079107318	-4.2749181	-3.9309006	28.866012
212	4	4	-0.1617141	-3.8408796	-2.4508428	31.197307
213	4	5	0.11154282	-4.5618663	-3.0432633	31.800508
214	4	5	0.11154282	-4.46233	-1.8747686	30.474537
215	4	4	0.1185679	-3.0065878	-1.465131	32.072326
216	4	2	-0.10101002	-3.5602661	-0.077683431	32.035509
217	4	2	-0.062686991	-3.6148018	0.75566062	30.986186
218	4	3	0.19716114	-3.2100072	0.46646934	30.024807
219	4	2	-0.30265677	-4.2503788	2.0830727	31.164601
220	4	3	0.20265274	-4.2940404	2.7694586	30.32859
221	4	2	0.39660967	-4.7760499	2.4288208	32.354958
222	4	1	-0.45433658	-5.3758701	3.6752949	32.507654
223	4	2	-0.14665013	-4.714932	1.4791797	33.49667
224	4	3	0.19289671	-5.1533484	1.7438026	34.44939
225	4	2	-0.20738728	-4.1142598	0.29190644	33.319591
226	4	4	-0.037238829	-3.9703182	-0.81925	34.313525
227	4	4	-0.13881257	-3.3272344	-0.31839536	35.621185
228	4	5	0.079107311	-4.0006605	0.39096852	36.147825
229	4	5	0.079107311	-2.3670134	0.20088116	35.410618
230	4	5	0.079107311	-3.1239205	-1.1748523	36.30019
231	4	4	-0.13881257	-5.3460178	-1.447356	34.600425
232	4	5	0.079107311	-5.2403898	-2.3114848	35.289461
233	4	5	0.079107311	-6.025149	-0.70460075	35.072024
234	4	5	0.079107311	-5.8181116	-1.8033582	33.659373
235	4	4	-0.1617141	-3.0389634	-1.8400695	33.585572
236	4	5	0.11154282	-3.3629413	-2.890276	33.753348
237	4	5	0.11154282	-2.0100426	-1.7766937	34.008263
238	5	2	0.62367541	-5.7931884	3.9674662	33.42432
239	5	6	-0.53260195	-6.8100768	3.4306358	33.830945
240	1	1	-0.052894879	2.8738405	-1.866316	29.822237
241	1	2	0.2327081	3.124614	-1.3009895	31.069631
242	1	2	-0.36475202	2.2515988	-1.4556121	32.087399
243	1	3	0.20101419	1.3404076	-2.0224549	31.947225
244	1	2	-0.063865576	2.5280951	-0.84204937	33.407447
245	1	3	0.19716113	1.8190695	-0.94648359	34.219208
246	1	2	-0.10100998	3.6656677	-0.1510784	33.5713
247	1	2	-0.20741616	4.6102828	0.0096186016	32.486134
248	1	2	-0.18360917	4.3682007	-0.51728387	31.275902
249	1	3	0.19423274	5.0613644	-0.37425514	30.457223
250	1	4	-0.037238836	5.7737966	0.85550653	32.901853
251	1	4	-0.13881257	5.6968661	2.2292645	32.209738
252	1	5	0.079107318	5.7818643	2.1168702	31.10728
253	1	5	0.079107318	6.5237159	2.8839743	32.559069
254	1	5	0.079107318	4.7306389	2.7293679	32.437324
255	1	4	-0.13881257	7.1113093	0.16514406	32.572755
256	1	5	0.079107318	7.2539883	0.080221777	31.475118
257	1	5	0.079107318	7.1419569	-0.85636399	33.010189
258	1	5	0.079107318	7.9580577	0.75209733	32.990073
259	1	4	-0.1617141	5.5846725	1.0035092	34.444586
260	1	5	0.11154282	5.8174392	2.0333649	34.79477
261	1	5	0.11154282	6.3037254	0.34143766	34.976817
262	1	4	0.1185679	4.1243316	0.57829242	34.791326
263	1	2	-0.10101002	4.0636602	-0.26054514	36.025146
264	1	2	-0.003730787	4.5640339	-1.4920109	36.205867
265	1	3	0.19716114	5.0653606	-2.0122298	35.399646
266	1	2	-0.43636539	4.4263136	-2.1285309	37.537037
267	1	3	0.20634596	4.8175787	-3.1254348	37.694845
268	1	2	0.35635481	3.8249598	-1.4686994	38.545609
269	1	7	-0.65912622	3.7078224	-2.073309	39.793389
270	1	8	0.42460391	3.2605099	-1.5963455	40.56677
271	1	2	-0.37185678	3.2940564	-0.097996351	38.32211
272	1	3	0.20003374	2.8280198	0.4452771	39.133537
273	1	2	-0.17799896	3.4092225	0.44975619	37.102069
274	1	4	-0.037238829	2.977924	1.8162017	36.667064
275	1	4	-0.13881257	1.4945402	2.0672442	36.999263
276	1	5	0.079107311	1.3355416	2.1016574	38.098128
277	1	5	0.079107311	0.85795466	1.2589624	36.579248
278	1	5	0.079107311	1.1646299	3.0370407	36.569362
279	1	4	-0.13881257	3.8637974	2.8821085	37.337826
280	1	5	0.079107311	3.5912638	3.89636	36.972915
281	1	5	0.079107311	3.7355703	2.8605619	38.441339
282	1	5	0.079107311	4.9367908	2.7026204	37.107272
283	1	4	-0.1617141	3.2104425	1.7972672	35.123753
284	1	5	0.11154282	3.6382091	2.7561581	34.755121
285	1	5	0.11154282	2.2350947	1.6874335	34.598176
286	2	2	0.46297914	-5.3202166	4.7471767	34.011218
287	2	6	-0.62136769	-4.2572248	5.2226373	33.649138
288	2	9	-0.10656721	-6.0844159	5.3247685	35.479886
289	4	1	-0.052894879	3.3100718	-3.6065816	50.405651
290	4	2	0.2327081	1.9756528	-3.3264015	50.119328
291	4	2	-0.36475202	1.5763791	-2.0665809	49.847597
292	4	3	0.20101419	2.28946	-1.2526385	49.849168
293	4	2	-0.063865576	0.15245677	-1.7830551	49.551684
294	4	3	0.19716113	-0.17497939	-0.77032737	49.355309
295	4	2	-0.10100998	-0.71996303	-2.8026026	49.542655
296	4	2	-0.20741616	-0.29539085	-4.1570197	49.824106
297	4	2	-0.18360917	0.98526515	-4.4319972	50.117247
298	4	3	0.19423274	1.2974044	-5.4415525	50.354266
299	4	4	-0.037238836	-1.4543011	-5.1050521	49.797674
300	4	4	-0.13881257	-1.7798187	-5.5733807	51.227213
301	4	5	0.079107318	-0.92855563	-6.1462975	51.654808
302	4	5	0.079107318	-2.676375	-6.2302851	51.224294
303	4	5	0.079107318	-1.9825326	-4.7039609	51.889671
304	4	4	-0.13881257	-1.1647571	-6.3151935	48.89009
305	4	5	0.079107318	-0.34944151	-6.9414099	49.312794
306	4	5	0.079107318	-0.85830656	-5.979414	47.876032
307	4	5	0.079107318	-2.0740215	-6.9467889	48.792282
308	4	4	-0.1617141	-2.6200238	-4.239267	49.222521
309	4	5	0.11154282	-3.5804851	-4.4360867	49.745408
310	4	5	0.11154282	-2.8004579	-4.5135884	48.158261
311	4	4	0.1185679	-2.1935127	-2.741465	49.312
312	4	2	-0.10101002	-2.5576883	-1.980893	48.078374
313	4	2	-0.062686991	-2.0662572	-2.1418763	46.841
314	4	3	0.19716114	-1.2962904	-2.8755807	46.639585
315	4	2	-0.30265677	-2.6050795	-1.2992832	45.746687
316	4	3	0.20265274	-2.2119344	-1.412362	44.744392
317	4	2	0.39660967	-3.5811741	-0.40609809	45.99625
318	4	1	-0.45433658	-4.0831173	0.37421242	44.958962
319	4	2	-0.14665013	-4.1177394	-0.25957664	47.374542
320	4	3	0.19289671	-4.9156685	0.44208889	47.576741
321	4	2	-0.20738728	-3.5992921	-1.0159875	48.354765
322	4	4	-0.037238829	-4.0085927	-1.055896	49.794964
323	4	4	-0.13881257	-3.9860317	0.35205509	50.420704
324	4	5	0.079107311	-4.7651138	1.000457	49.966111
325	4	5	0.079107311	-2.9957311	0.83291033	50.265482
326	4	5	0.079107311	-4.1801361	0.28832984	51.513483
327	4	4	-0.13881257	-5.4114179	-1.6761834	49.924204
328	4	5	0.079107311	-5.6975064	-1.7658952	50.993199
329	4	5	0.079107311	-6.1680808	-1.0440346	49.411214
330	4	5	0.079107311	-5.4355665	-2.6890245	49.467303
331	4	4	-0.1617141	-2.934487	-1.9793667	50.452922
332	4	5	0.11154282	-3.3825124	-2.6700171	51.20013
333	4	5	0.11154282	-2.205167	-1.3593398	51.023028
334	5	2	0.62367541	-4.8438252	1.0760951	45.127717
335	5	6	-0.53260195	-5.9742849	0.70022384	45.389202
336	1	1	-0.052894879	4.0163583	-2.8788788	50.417399
337	1	2	0.2327081	3.7224842	-1.5787696	50.819678
338	1	2	-0.36475202	2.4751791	-1.2403038	51.209017
339	1	3	0.20101419	1.6827364	-1.9773576	51.21291
340	1	2	-0.063865576	2.1753016	0.14906041	51.62756
341	1	3	0.19716113	1.170675	0.42825097	51.91972
342	1	2	-0.10100998	3.1683056	1.0503386	51.628415
343	1	2	-0.20741616	4.5101323	0.69052401	51.221302
344	1	2	-0.18360917	4.7980699	-0.55585728	50.815696
345	1	3	0.19423274	5.7948137	-0.81801634	50.48563
346	1	4	-0.037238836	5.4251209	1.8750168	51.264726
347	1	4	-0.13881257	5.7790551	2.3166951	49.832314
348	1	5	0.079107318	6.3425041	1.517091	49.304652
349	1	5	0.079107318	6.4093006	3.2313628	49.855373
350	1	5	0.079107318	4.8576424	2.5376675	49.251226
351	1	4	-0.13881257	6.7070886	1.560902	52.059545
352	1	5	0.079107318	7.3218527	0.79949785	51.53542
353	1	5	0.079107318	6.4551006	1.1726385	53.070247
354	1	5	0.079107318	7.3189374	2.4812768	52.178718
355	1	4	-0.1617141	4.5735148	2.9678387	51.984591
356	1	5	0.11154282	4.7053543	3.9700244	51.520205
357	1	5	0.11154282	4.9196941	3.0821798	53.036128
358	1	4	0.1185679	3.0847691	2.5019458	51.969994
359	1	2	-0.10101002	2.4073147	2.7517366	53.277014
360	1	2	-0.003730787	2.6717704	2.1795466	54.461161
361	1	3	0.19716114	3.4390625	1.4214401	54.553282
362	1	2	-0.43636539	1.8981923	2.6109138	55.649285
363	1	3	0.20634596	2.0948195	2.1516162	56.609593
364	1	2	0.35635481	0.96198329	3.5727185	55.536739
365	1	7	-0.65912622	0.24685497	3.9750316	56.660555
366	1	8	0.42460391	-0.46108988	4.6967639	56.6004
367	1	2	-0.37185678	0.70085337	4.2018111	54.215115
368	1	3	0.20003374	-0.035558346	4.9890591	54.121909
369	1	2	-0.17799896	1.3971589	3.7791474	53.148198
370	1	4	-0.037238829	1.3195716	4.2901001	51.742735
371	1	4	-0.13881257	-0.12877441	4.2669112	51.217795
372	1	5	0.079107311	-0.76265836	4.9902527	51.773616
373	1	5	0.079107311	-0.57034699	3.2537963	51.334349
374	1	5	0.079107311	-0.15039169	4.5406899	50.141347
375	1	4	-0.13881257	1.8904489	5.7184468	51.673634
376	1	5	0.079107311	1.8941202	6.0826549	50.623168
377	1	5	0.079107311	1.2773307	6.4156396	52.284091
378	1	5	0.079107311	2.933877	5.7432487	52.057468
379	1	4	-0.1617141	2.220387	3.2967531	50.94397
380	1	5	0.11154282	2.8438804	3.8185658	50.184158
381	1	5	0.11154282	1.581337	2.590572	50.367323
382	2	2	0.46297914	-4.6252265	2.1367466	45.069976
383	2	6	-0.62136769	-3.4787871	2.5141685	44.895773
384	2	9	-0.10656721	-5.920198	3.3086272	45.225996
385	4	1	-0.052894879	-3.5081457	0.37389618	63.386608
386	4	2	0.2327081	-2.4812996	1.0668213	64.024258
387	4	2	-0.36475202	-1.529721	0.40861285	64.718279
388	4	3	0.20101419	-1.5512035	-0.67087637	64.790602
389	4	2	-0.063865576	-0.44774741	1.159802	65.39692
390	4	3	0.19716113	0.30431682	0.63640753	65.972987
391	4	2	-0.10100998	-0.42646479	2.4973353	65.290965
392	4	2	-0.20741616	-1.4391868	3.2075479	64.540023
393	4	2	-0.18360917	-2.4408064	2.548034	63.937176
394	4	3	0.19423274	-3.2134734	3.0819633	63.397995
395	4	4	-0.037238836	-1.2250085	4.6881607	64.606733
396	4	4	-0.13881257	-2.3104966	5.3347199	65.485683
397	4	5	0.079107318	-3.3160149	5.1934584	65.033247
398	4	5	0.079107318	-2.1247114	6.4255667	65.59
399	4	5	0.079107318	-2.3178483	4.8802293	66.500187
400	4	4	-0.13881257	-1.2292968	5.3165535	63.200643
401	4	5	0.079107318	-2.2354793	5.2383458	62.734761
402	4	5	0.079107318	-0.49710455	4.8036191	62.540517
403	4	5	0.079107318	-0.95607772	6.3921672	63.261037
404	4	4	-0.1617141	0.17933296	4.8231744	65.276726
405	4	5	0.11154282	0.20955116	5.6540551	66.013855
406	4	5	0.11154282	0.93893834	5.083938	64.505065
407	4	4	0.1185679	0.53735824	3.4479236	65.920024
408	4	2	-0.10101002	1.9638457	3.0724161	65.681165
409	4	2	-0.062686991	2.5498974	2.780891	64.510664
410	4	3	0.19716114	1.9807066	2.7754251	63.589941
411	4	2	-0.30265677	4.0001159	2.4734266	64.498618
412	4	3	0.20265274	4.4848641	2.2280669	63.562261
413	4	2	0.39660967	4.7100023	2.5068656	65.642193
414	4	1	-0.45433658	6.0721391	2.2227545	65.616463
415	4	2	-0.14665013	4.0374194	2.8480125	66.922939
416	4	3	0.19289671	4.6067766	2.8959464	67.841332
417	4	2	-0.20738728	2.7190305	3.1001292	66.914575
418	4	4	-0.037238829	1.8541361	3.4932833	68.072453
419	4	4	-0.13881257	1.9887937	2.4910812	69.235142
420	4	5	0.079107311	3.0091631	2.5265066	69.672909
421	4	5	0.079107311	1.7947272	1.4547991	68.882341
422	4	5	0.079107311	1.2574503	2.7339967	70.03641
423	4	4	-0.13881257	2.2220726	4.9117128	68.543684
424	4	5	0.079107311	1.5449513	5.23508	69.361967
425	4	5	0.079107311	3.2667696	4.9401999	68.921978
426	4	5	0.079107311	2.1343089	5.6376943	67.706763
427	4	4	-0.1617141	0.41163699	3.4677272	67.474161
428	4	5	0.11154282	-0.20332332	4.3198973	67.83703
429	4	5	0.11154282	-0.12074554	2.5512294	67.817618
430	5	2	0.62367541	6.6468379	2.2431055	66.493447
431	5	6	-0.53260195	6.8809222	3.3052106	67.045471
432	1	1	-0.052894879	-3.5707866	-0.63767205	63.423157
433	1	2	0.2327081	-3.1532172	-1.3579704	64.539079
434	1	2	-0.36475202	-2.6443099	-0.72760402	65.618692
435	1	3	0.20101419	-2.5523474	0.35063726	65.63164
436	1	2	-0.063865576	-2.197092	-1.5077135	66.796343
437	1	3	0.19716113	-1.7685776	-1.0060231	67.654983
438	1	2	-0.10100998	-2.3261806	-2.8422943	66.772052
439	1	2	-0.20741616	-2.8804394	-3.5228713	65.620828
440	1	2	-0.18360917	-3.269289	-2.8377527	64.534412
441	1	3	0.19423274	-3.6584291	-3.3486379	63.663358
442	1	4	-0.037238836	-2.878079	-5.0074105	65.816406
443	1	4	-0.13881257	-1.8167723	-5.6542163	64.906778
444	1	5	0.079107318	-2.0664984	-5.4894844	63.836372
445	1	5	0.079107318	-1.767486	-6.7489654	65.08968
446	1	5	0.079107318	-0.81346487	-5.2181147	65.103459
447	1	4	-0.13881257	-4.2668091	-5.6101072	65.529995
448	1	5	0.079107318	-4.5293921	-5.5080513	64.456211
449	1	5	0.079107318	-5.0475377	-5.0964978	66.13202
450	1	5	0.079107318	-4.276278	-6.6908059	65.790095
451	1	4	-0.1617141	-2.493353	-5.1768218	67.320063
452	1	5	0.11154282	-1.7876432	-6.0225144	67.475594
453	1	5	0.11154282	-3.3989303	-5.4354913	67.913076
454	1	4	0.1185679	-1.908109	-3.8201924	67.820742
455	1	2	-0.10101002	-2.4102583	-3.4618353	69.180546
456	1	2	-0.003730787	-3.667095	-3.1578798	69.537638
457	1	3	0.19716114	-4.4616427	-3.1266537	68.803017
458	1	2	-0.43636539	-3.9532686	-2.8726399	70.963429
459	1	3	0.20634596	-4.9611935	-2.6173713	71.26465
460	1	2	0.35635481	-2.9678222	-2.9374966	71.87935
461	1	7	-0.65912622	-3.2496039	-2.6748952	73.216461
462	1	8	0.42460391	-2.5252064	-2.7184366	73.922899
463	1	2	-0.37185678	-1.5869037	-3.2931051	71.458347
464	1	3	0.20003374	-0.79507177	-3.3667081	72.192059
465	1	2	-0.17799896	-1.3460094	-3.5247142	70.158299
466	1	4	-0.037238829	-0.049898637	-3.924967	69.524016
467	1	4	-0.13881257	1.0811966	-2.9475112	69.896856
468	1	5	0.079107311	1.3139717	-3.0069692	70.981406
469	1	5	0.079107311	0.78832605	-1.9021923	69.659141
470	1	5	0.079107311	2.0034856	-3.1944992	69.328929
471	1	4	-0.13881257	0.31978057	-5.3577939	69.949685
472	1	5	0.079107311	1.2487673	-5.6862955	69.434698
473	1	5	0.079107311	0.49021411	-5.4092717	71.046476
474	1	5	0.079107311	-0.49576311	-6.067534	69.689217
475	1	4	-0.1617141	-0.35922781	-3.8661336	67.995262
476	1	5	0.11154282	0.10078788	-4.7164194	67.444131
477	1	5	0.11154282	0.093788675	-2.949182	67.555292
478	2	2	0.46297914	7.0330349	1.31927	66.909957
479	2	6	-0.62136769	6.7270021	0.25019425	66.40942
480	2	9	-0.10656721	8.0981434	1.3629365	68.302162
481	4	1	-0.052894879	-0.19838921	20.512591	3.0780104
482	4	2	0.2327081	0.45835508	20.002657	1.9600609
483	4	2	-0.36475202	-0.07813072	18.993181	1.2434394
484	4	3	0.20101419	-1.0292682	18.562979	1.5284868
485	4	2	-0.063865576	0.63549038	18.45674	0.060865137
486	4	3	0.19716113	0.21862474	17.632237	-0.50288357
487	4	2	-0.10100998	1.8091056	19.005756	-0.28825446
488	4	2	-0.20741616	2.3844049	20.09484	0.47125048
489	4	2	-0.18360917	1.7656712	20.580028	1.5590854
490	4	3	0.19423274	2.2096819	21.376908	2.1427362
491	4	4	-0.037238836	3.7123969	20.503324	-0.087422482
492	4	4	-0.13881257	4.8380844	20.067689	0.86752529
493	4	5	0.079107318	4.7462658	20.589565	1.8447329
494	4	5	0.079107318	5.830975	20.313234	0.43253024
495	4	5	0.079107318	4.7957438	18.972259	1.0521198
496	4	4	-0.13881257	3.7725937	22.023212	-0.32888196
497	4	5	0.079107318	3.7333574	22.579067	0.63291355
498	4	5	0.079107318	2.9189295	22.353467	-0.95909048
499	4	5	0.079107318	4.7181127	22.291384	-0.84784092
500	4	4	-0.1617141	3.7978736	19.717931	-1.4346962
501	4	5	0.11154282	4.8160029	19.310624	-1.6139957
502	4	5	0.11154282	3.601761	20.410189	-2.2848591
503	4	4	0.1185679	2.7096897	18.600589	-1.4076633
504	4	2	-0.10101002	1.9953583	18.482906	-2.7148769
505	4	2	-0.062686991	1.1864359	19.384078	-3.291113
506	4	3	0.19716114	0.96012426	20.322104	-2.8005734
507	4	2	-0.30265677	0.61185276	19.075272	-4.6223928
508	4	3	0.20265274	-0.049497115	19.789685	-5.0958656
509	4	2	0.39660967	0.91659245	17.918811	-5.240902
510	4	1	-0.45433658	0.37591191	17.643738	-6.4934185
511	4	2	-0.14665013	1.8281402	16.94494	-4.5853759
512	4	3	0.19289671	2.0921938	16.023461	-5.0864376
513	4	2	-0.20738728	2.3185375	17.234321	-3.3698304
514	4	4	-0.037238829	3.2711603	16.420823	-2.5488404
515	4	4	-0.13881257	2.756206	14.980817	-2.360188
516	4	5	0.079107311	2.743449	14.434452	-3.3273341
517	4	5	0.079107311	1.7240885	14.985822	-1.9470061
518	4	5	0.079107311	3.4155326	14.427729	-1.6564237
519	4	4	-0.13881257	4.6591407	16.409599	-3.2142444
520	4	5	0.079107311	5.3869713	15.859936	-2.5811729
521	4	5	0.079107311	4.6135357	15.912504	-4.2072836
522	4	5	0.079107311	5.0321428	17.446329	-3.360015
523	4	4	-0.1617141	3.3189971	17.182424	-1.1860911
524	4	5	0.11154282	4.3494266	17.225931	-0.7709212
525	4	5	0.11154282	2.7172233	16.631655	-0.42722126
526	5	2	0.62367541	0.59872561	16.75057	-6.9958118
527	5	6	-0.53260195	1.7188797	16.563323	-7.4405436
528	1	1	-0.052894879	-1.0925376	20.14478	3.384187
529	1	2	0.2327081	-1.4248212	18.801774	3.2279939
530	1	2	-0.36475202	-0.56021295	17.937126	2.6563738
531	1	3	0.20101419	0.40672884	18.277218	2.3091138
532	1	2	-0.063865576	-0.93034885	16.51208	2.4899954
533	1	3	0.19716113	-0.24715462	15.820989	2.0122727
534	1	2	-0.10100998	-2.1271226	16.101081	2.9340366
535	1	2	-0.20741616	-3.0543955	17.021958	3.5568192
536	1	2	-0.18360917	-2.749114	18.321351	3.6956394
537	1	3	0.19423274	-3.4530817	19.014998	4.1366071
538	1	4	-0.037238836	-4.3338022	16.336306	3.924397
539	1	4	-0.13881257	-5.4660442	16.80395	2.9908606
540	1	5	0.079107318	-5.6560922	17.891238	3.1210728
541	1	5	0.079107318	-6.4049597	16.255331	3.2184858
542	1	5	0.079107318	-5.198789	16.619989	1.9277392
543	1	4	-0.13881257	-4.7080375	16.604419	5.3947404
544	1	5	0.079107318	-4.9537433	17.675494	5.5522352
545	1	5	0.079107318	-3.8651987	16.335579	6.0678779
546	1	5	0.079107318	-5.5942826	15.997599	5.6810814
547	1	4	-0.1617141	-4.0172429	14.824921	3.6937352
548	1	5	0.11154282	-4.8711319	14.288592	3.2240158
549	1	5	0.11154282	-3.8550532	14.321023	4.6727274
550	1	4	0.1185679	-2.7182813	14.733058	2.8347283
551	1	2	-0.10101002	-1.7964306	13.666243	3.3263969
552	1	2	-0.003730787	-1.1380984	13.624598	4.494475