Title

14250 atoms
14875 bonds
24750 angles
41125 dihedrals
16500 impropers

12 atom types
18 bond types
10 angle types
30 dihedral types
3 improper types
-14.41786809 151.9696046 xlo xhi
-13.73753396 151.0577869 ylo yhi
-15.59423389 151.9819737 zlo zhi
0.0 0.0 0.0 xy xz yz

Masses

1	12.01078
2	15.99943
3	14.00672
4	1.007947
5	12.01078
6	1.007947
7	1.007947
8	15.99943
9	1.007947
10	12.01078
11	15.99943
12	1.007947


Pair Coeffs

1	0.086879315	3.4806469
2	0.2102061	3.0398122
3	0.16769152	3.206876
4	0.015611343	2.5725815
5	0.10884061	3.3795318
6	0.014090815	1.1034277
7	0.015779483	2.6445434
8	0.16846514	3.0251065
9	0.016409246	2.5832257
10	0.21	3.3996695
11	0.20947353	2.99716
12	1.2326e-05	0.53453923

Bond Coeffs

1 harmonic	582.698766451	1.225198386222
2 harmonic	492.76746816345	1.381897776683
3 harmonic	279.1350963404	1.454628925034
4 harmonic	390.03554688505	1.390160554689
5 harmonic	505.144496193	1.019481865027
6 harmonic	360.7852444772	1.387193227181
7 harmonic	397.2545789619	1.085358495916
8 harmonic	289.73813263395	1.498646816465
9 harmonic	370.04670688625	1.093899492634
10 harmonic	301.15400723785	1.345741232799
11 harmonic	366.7408841747	1.425895053732
12 harmonic	264.62148576755	1.52190126495
13 harmonic	366.34047229585	1.464762957261
14 harmonic	300.03137914615	1.451203938761
15 harmonic	382.5450169811	1.379244394267
16 harmonic	602.81384337	1.196112346392
17 harmonic	329.96998057905	1.427343958716
18 harmonic	543.5267831885	0.9716763312559


Angle Coeffs

1 harmonic	55.42182150775	117.3465570514
2 harmonic	63.44422595415	115.5071327674
3 harmonic	57.8982893754	126.8062420451
4 harmonic	34.066775159195	129.1835929926
5 harmonic	53.20531626545	116.5475862634
6 harmonic	65.09061609600001	110.3538806181
7 harmonic	201.41175231035	127.4691416191
8 harmonic	48.776492647595	115.6030999533
9 harmonic	55.07882548015	112.8714009681
10 harmonic	33.56981613361	180


Dihedral Coeffs

1 fourier 1	1.193093382682	2	180
2 fourier 1	1.809047390003	2	180
3 fourier 1	-0.04816277792592	1	0
4 fourier 1	3.101948770557	2	180
5 fourier 1	-0.4252153282372	1	0
6 fourier 1	2.348375642009	2	180
7 fourier 1	1.256156174911	1	0
8 fourier 1	0.9974165607242	2	180
9 fourier 1	3.661930099076	2	180
10 fourier 1	0.02664938770063	3	0
11 fourier 1	2.779853741805	2	180
12 fourier 1	0.1918272375143	3	0
13 fourier 1	0.9202179876409	1	180
14 fourier 1	0.0473758381877	3	0
15 fourier 1	0.4860993122944	2	180
16 fourier 1	0.8916986138746	1	0
17 fourier 1	1.163809172478	2	180
18 fourier 1	0.1679186987369	1	180
19 fourier 1	0.1155372516788	3	0
20 fourier 1	0.1115525666802	3	0
21 fourier 1	0.3432490222662	1	0
22 fourier 1	0.182238503271	2	0
23 fourier 1	0.02972342374561	3	0
24 fourier 1	0.457973137376	1	0
25 fourier 1	0.1911926717192	3	0
26 fourier 1	1.550515418264	2	180
27 fourier 1	0	1	0
28 fourier 1	0.3445382149273	3	0
29 fourier 1	0.1364556373303	1	0
30 fourier 1	0.3026390167484	3	0


Improper Coeffs

1 0.3333333333333333	-1	2
2 0.3666666666666667	-1	2
3 3.5	-1	2


Atoms

1	3	1	0.57223153	-4.1857962	-1.8012102	4.9658852
2	3	2	-0.60457981	-3.832216	-3.0084149	5.0319839
3	3	3	-0.5066461	-4.895684	-1.2953489	3.8293041
4	3	1	0.20801041	-5.0745527	-2.0184248	2.5995639
5	3	1	-0.3768827	-6.1775794	-1.80982	1.8618957
6	3	4	0.21897459	-6.9410089	-1.1197807	2.1996962
7	3	1	-0.13954569	-6.3771404	-2.5301681	0.58685218
8	3	4	0.21712865	-7.2772145	-2.3437753	0.014201972
9	3	1	-0.24321598	-5.4515351	-3.3994816	0.14758376
10	3	5	-0.049999158	-5.6249067	-4.1078197	-1.1690276
11	3	1	-0.24321602	-5.0293569	-3.2889948	-2.2815217
12	3	1	-0.13954568	-5.7687261	-2.3777655	-2.9361103
13	3	4	0.21712864	-6.8142869	-2.2351556	-2.6903867
14	3	1	-0.36476138	-5.1626575	-1.5485124	-3.9982595
15	3	4	0.21897461	-5.781257	-0.82786477	-4.5189702
16	3	1	0.23177295	-3.8592142	-1.6694922	-4.2993253
17	3	3	-0.46906945	-3.2933134	-0.85807274	-5.3436278
18	3	1	0.81962085	-1.935045	-0.40306289	-5.362445
19	3	2	-0.54701012	-1.1897406	-0.52384426	-4.3553556
20	3	6	0.32654664	-3.9212209	-0.50966888	-6.1024412
21	3	1	-0.36476138	-3.0447589	-2.685093	-3.5816599
22	3	4	0.21897458	-2.0066965	-2.8435832	-3.8429268
23	3	1	-0.13954569	-3.596258	-3.4424813	-2.6258855
24	3	4	0.21712864	-2.9916154	-4.180945	-2.1138232
25	3	7	0.12717733	-5.1274202	-5.1001718	-1.1272463
26	3	7	0.12717733	-6.7025008	-4.3066818	-1.36492
27	3	1	-0.13954566	-4.2114788	-3.599662	0.93548056
28	3	4	0.21712864	-3.4386019	-4.2640313	0.5697911
29	3	1	-0.37688279	-4.0310232	-2.9472155	2.0903144
30	3	4	0.21897461	-3.1026152	-3.0804183	2.6281504
31	3	6	0.32261118	-5.3712296	-0.37093049	3.9414339
32	4	8	-0.49014032	-1.5682094	0.070135125	-6.210283
33	4	5	0.12460304	-0.17334732	-0.05911995	-6.1668315
34	4	5	0.15730348	0.41931881	0.93227283	-5.1592933
35	4	3	-0.65622884	1.8774158	0.75896657	-5.0541827
36	4	1	0.28339622	2.4571762	-0.15893597	-4.0800484
37	4	1	-0.42099905	3.7692721	-0.10400511	-3.7516051
38	4	4	0.22266773	4.4380051	0.62241703	-4.1876888
39	4	1	-0.12316088	4.346616	-1.0347072	-2.7608475
40	4	4	0.22798543	5.3985767	-0.97201867	-2.5136354
41	4	1	-0.26709539	3.5756783	-1.9508211	-2.1688944
42	4	4	0.22517033	3.9990637	-2.6323304	-1.4426755
43	4	1	-0.12316088	2.144658	-2.0332423	-2.5070979
44	4	4	0.22798544	1.5237452	-2.7792469	-2.0279472
45	4	1	-0.42099902	1.6143188	-1.1935083	-3.4042373
46	4	4	0.22266771	0.56264232	-1.2935175	-3.627868
47	4	5	0.15904452	2.7148062	1.5388617	-5.9821082
48	4	5	0.042366308	3.080248	2.8964932	-5.37205
49	4	8	-0.12137104	3.9168182	3.6082965	-6.2425574
50	4	9	0.11063308	2.1539404	3.4871292	-5.2118269
51	4	9	0.11063308	3.5713529	2.7717115	-4.3817129
52	4	9	0.090515369	3.625687	0.96890471	-6.2635228
53	4	9	0.090515369	2.1656348	1.7177331	-6.9330424
54	4	9	0.091951036	0.18153881	1.9641189	-5.4977019
55	4	9	0.091951036	-0.060659236	0.82342583	-4.1635833
56	4	9	0.10435397	0.10987945	-1.1037237	-5.9138737
57	4	9	0.10435397	0.23160079	0.15983501	-7.177399
58	1	1	0.57223159	-3.9832638	-1.1457932	5.8022715
59	1	2	-0.60457986	-4.0696213	0.09960405	5.6415822
60	1	3	-0.50664604	-3.6720171	-1.7130751	7.0823578
61	1	1	0.20801042	-3.2505727	-0.95459361	8.2301864
62	1	1	-0.37688276	-2.4546666	0.12506077	8.1121828
63	1	4	0.21897459	-2.0973754	0.4531702	7.1460688
64	1	1	-0.13954569	-2.0111548	0.8608092	9.3144746
65	1	4	0.21712865	-1.3686408	1.7241672	9.1935132
66	1	1	-0.24321598	-2.393218	0.45642787	10.537933
67	1	5	-0.049999158	-1.912744	1.1725368	11.770059
68	1	1	-0.25752127	-0.60388895	0.5923603	12.232897
69	1	1	-0.18472056	-0.57521908	-0.4536706	13.07675
70	1	4	0.20335211	-1.4946908	-0.88012018	13.45921
71	1	1	-0.25601521	0.71354015	-1.0437241	13.491886
72	1	4	0.21087456	0.70049318	-1.8794389	14.180362
73	1	1	0.44248352	1.8755886	-0.54674327	13.016782
74	1	3	-0.33758357	3.1553089	-1.0845772	13.387494
75	1	10	0.61552107	3.3182406	-2.0628683	14.18686
76	1	2	-0.29119643	3.477139	-3.0135465	14.963949
77	1	1	-0.25601524	1.8391894	0.59435093	12.075481
78	1	4	0.21087457	2.7641248	0.99659652	11.681916
79	1	1	-0.1847206	0.67076476	1.1313549	11.702622
80	1	4	0.20335214	0.66153732	1.9624054	11.008941
81	1	7	0.12717733	-1.7909816	2.2591287	11.563066
82	1	7	0.12717733	-2.6758529	1.093121	12.575825
83	1	1	-0.13954566	-3.2381427	-0.75406305	10.67133
84	1	4	0.21712864	-3.5318656	-1.1064291	11.65189
85	1	1	-0.37688279	-3.6397932	-1.4205816	9.5825102
86	1	4	0.21897461	-4.2562218	-2.3031913	9.6918989
87	1	6	0.32261112	-3.8628287	-2.7319014	7.2096131
88	2	8	-0.12137104	4.8204928	3.2079226	-6.1580886
89	2	5	0.042366308	5.5398259	3.5994467	-7.2951945
90	2	5	0.16020832	5.1081921	2.7682909	-8.5071996
91	2	3	-0.6479857	5.8063891	3.2177925	-9.7228094
92	2	1	0.28510109	5.2392922	4.2549601	-10.575599
93	2	1	-0.42099905	5.6912783	4.4598387	-11.835547
94	2	4	0.22266773	6.4805857	3.8612883	-12.263669
95	2	1	-0.12316088	5.1067172	5.511073	-12.69364
96	2	4	0.22798543	5.4836453	5.6548808	-13.697744
97	2	1	-0.26709539	4.1169893	6.2798744	-12.235329
98	2	4	0.22517033	3.68952	7.0497468	-12.864567
99	2	1	-0.12316088	3.6054637	6.0805921	-10.868739
100	2	4	0.22798544	2.804313	6.7083562	-10.499492
101	2	1	-0.42099902	4.1293382	5.1302389	-10.085145
102	2	4	0.22266771	3.7297719	5.0227487	-9.0874091
103	2	5	0.12814276	7.1023744	2.5835901	-10.02484
104	2	5	0.088405491	6.9072208	1.3385205	-10.895422
105	2	11	-0.66747534	8.1471702	0.77279016	-11.217665
106	2	12	0.40593308	8.5414554	1.3403789	-11.931926
107	2	9	0.10435508	6.313728	0.58762071	-10.332497
108	2	9	0.10435508	6.3416329	1.5819532	-11.822433
109	2	9	0.097254933	7.7897118	3.3083787	-10.513136
110	2	9	0.097254933	7.6059656	2.2777345	-9.0820558
111	2	9	0.090515369	5.3440255	1.7002541	-8.3041994
112	2	9	0.090515369	4.0072213	2.8121632	-8.6495888
113	2	9	0.11063308	5.3989666	4.6872649	-7.4843164
114	2	9	0.11063308	6.6204667	3.4329268	-7.1028728
115	3	1	0.57223153	0.19390866	-0.62505308	38.310271
116	3	2	-0.60457981	-0.025279496	0.58529284	38.581841
117	3	3	-0.5066461	1.4224097	-1.0400564	37.701822
118	3	1	0.20801041	2.398554	-0.13835755	37.153028
119	3	1	-0.3768827	3.698209	-0.47739311	37.170052
120	3	4	0.21897459	4.0153738	-1.4125925	37.614908
121	3	1	-0.13954569	4.7188459	0.42616528	36.598786
122	3	4	0.21712865	5.7594718	0.12781238	36.628572
123	3	1	-0.24321598	4.3557595	1.5972232	36.049059
124	3	5	-0.049999158	5.3818043	2.5063758	35.427819
125	3	1	-0.24321602	5.5685765	2.1626263	33.975321
126	3	1	-0.13954568	6.4813968	1.2523898	33.596216
127	3	4	0.21712864	7.1164298	0.76874773	34.328841
128	3	1	-0.36476138	6.6272502	0.89050353	32.171117
129	3	4	0.21897461	7.3770772	0.16176602	31.888559
130	3	1	0.23177295	5.827805	1.439284	31.241618
131	3	3	-0.46906945	5.9945262	1.078651	29.859099
132	3	1	0.81962085	4.9284549	1.0420869	28.902837
133	3	2	-0.54701012	3.7250926	1.1373526	29.259404
134	3	6	0.32654664	6.9320492	0.74816997	29.53772
135	3	1	-0.36476138	4.8253707	2.4537589	31.660894
136	3	4	0.21897458	4.207222	2.9536042	30.926728
137	3	1	-0.13954569	4.6997018	2.7881004	32.950745
138	3	4	0.21712864	3.9674806	3.5314639	33.241248
139	3	7	0.12717733	5.0508601	3.5625306	35.52276
140	3	7	0.12717733	6.3490553	2.4319033	35.97372
141	3	1	-0.13954566	2.9183146	1.955726	35.987247
142	3	4	0.21712864	2.6096383	2.8759656	35.507318
143	3	1	-0.37688279	1.9941246	1.1372606	36.504818
144	3	4	0.21897461	0.94974864	1.4018935	36.414262
145	3	6	0.32261118	1.6438939	-2.0614837	37.731771
146	4	8	-0.49014032	5.1493746	0.89616928	27.899235
147	4	5	0.12460304	4.0612148	1.4005704	27.174168
148	4	5	0.15730348	2.8878903	0.41575978	27.226165
149	4	3	-0.65622884	1.7154051	0.96513752	26.525741
150	4	1	0.28339622	0.72230527	1.7642911	27.234763
151	4	1	-0.42099905	-0.49803024	2.0091725	26.702501
152	4	4	0.22266773	-0.79056981	1.6192848	25.739449
153	4	1	-0.12316088	-1.4988522	2.8158185	27.429695
154	4	4	0.22798543	-2.4684484	2.9984076	26.984488
155	4	1	-0.26709539	-1.2122264	3.3184652	28.633526
156	4	4	0.22517033	-1.9460266	3.9091442	29.166198
157	4	1	-0.12316088	0.10774392	3.067852	29.236739
158	4	4	0.22798544	0.33770807	3.4797567	30.210952
159	4	1	-0.42099902	1.0200273	2.3381162	28.583672
160	4	4	0.22266771	1.9773158	2.1850698	29.059289
161	4	5	0.15904452	1.6021666	0.68421283	25.08395
162	4	5	0.042366308	0.82754138	-0.61630885	24.844197
163	4	8	-0.12137104	0.68371733	-0.8469652	23.469276
164	4	9	0.11063308	1.3904625	-1.4646563	25.28691
165	4	9	0.11063308	-0.16974308	-0.58527722	25.336115
166	4	9	0.090515369	1.1265778	1.5363292	24.55342
167	4	9	0.090515369	2.6147266	0.57745337	24.635414
168	4	9	0.091951036	3.2051415	-0.53683939	26.749014
169	4	9	0.091951036	2.6312838	0.15661808	28.27529
170	4	9	0.10435397	3.7644442	2.397213	27.566638
171	4	9	0.10435397	4.3762656	1.5392386	26.118382
172	1	1	0.57223159	-0.54485075	-1.3680522	38.579195
173	1	2	-0.60457986	-0.47356546	-2.51719	38.070576
174	1	3	-0.50664604	-1.5538882	-1.0407562	39.544609
175	1	1	0.20801042	-2.6668671	-1.8884724	39.880876
176	1	1	-0.37688276	-3.2869683	-2.6437064	38.954517
177	1	4	0.21897459	-2.9721441	-2.6303073	37.920401
178	1	1	-0.13954569	-4.4497613	-3.4763141	39.326284
179	1	4	0.21712865	-4.9333596	-4.0725214	38.562404
180	1	1	-0.24321598	-4.9033483	-3.4837846	40.591412
181	1	5	-0.049999158	-6.1119594	-4.2943949	40.970849
182	1	1	-0.25752127	-7.365729	-3.4886998	40.763863
183	1	1	-0.18472056	-7.8429541	-2.6961863	41.739193
184	1	4	0.20335211	-7.3472664	-2.6446157	42.701065
185	1	1	-0.25601521	-9.0501779	-1.8761689	41.512074
186	1	4	0.21087456	-9.4129484	-1.2563782	42.322534
187	1	1	0.44248352	-9.6786154	-1.9040781	40.317353
188	1	3	-0.33758357	-10.854715	-1.1252523	40.044228
189	1	10	0.61552107	-11.411975	-0.34793702	40.885553
190	1	2	-0.29119643	-11.954123	0.40753309	41.703016
191	1	1	-0.25601524	-9.1408796	-2.7653676	39.241021
192	1	4	0.21087457	-9.631806	-2.7903195	38.276361
193	1	1	-0.1847206	-8.0487731	-3.5115194	39.448804
194	1	4	0.20335214	-7.6652304	-4.1320719	38.648971
195	1	7	0.12717733	-6.1585553	-5.2262626	40.364379
196	1	7	0.12717733	-6.0327018	-4.6179452	42.032421
197	1	1	-0.13954566	-4.2452029	-2.6238873	41.60354
198	1	4	0.21712864	-4.6161153	-2.5999952	42.620293
199	1	1	-0.37688279	-3.1921397	-1.8696645	41.266932
200	1	4	0.21897461	-2.7196967	-1.245529	42.014062
201	1	6	0.32261112	-1.4088538	-0.17352792	40.108072
202	2	8	-0.12137104	-0.032367976	-0.23771663	23.15289
203	2	5	0.042366308	0.1084161	-0.142585	21.761894
204	2	5	0.16020832	1.2757211	0.78452089	21.409817
205	2	3	-0.6479857	1.4781483	0.83738414	19.952605
206	2	1	0.28510109	2.3750133	-0.096824096	19.283685
207	2	1	-0.42099905	2.8137238	0.12463195	18.021851
208	2	4	0.22266773	2.5270201	1.0022626	17.463171
209	2	1	-0.12316088	3.7262691	-0.8264213	17.354103
210	2	4	0.22798543	4.0645812	-0.6270631	16.345747
211	2	1	-0.26709539	4.1343042	-1.9261758	17.990273
212	2	4	0.22517033	4.8026376	-2.6223176	17.500282
213	2	1	-0.12316088	3.6730055	-2.1937683	19.363058
214	2	4	0.22798544	4.003977	-3.0886658	19.874811
215	2	1	-0.42099902	2.8465621	-1.3370521	19.975156
216	2	4	0.22266771	2.5268417	-1.5752195	20.979019
217	2	5	0.12814276	0.72511035	1.8627599	19.207923
218	2	5	0.088405491	1.5259996	3.1653125	19.117756
219	2	11	-0.66747534	0.82348537	4.1156045	18.366234
220	2	12	0.40593308	0.93098057	3.8592303	17.412031
221	2	9	0.10435508	1.6819998	3.5705784	20.139711
222	2	9	0.10435508	2.5308984	2.9883188	18.673515
223	2	9	0.097254933	0.45163854	1.4914525	18.196227
224	2	9	0.097254933	-0.23736552	2.0768852	19.721522
225	2	9	0.090515369	1.0489409	1.8009288	21.800988
226	2	9	0.090515369	2.2079227	0.46504888	21.922919
227	2	9	0.11063308	0.25192607	-1.1537655	21.319315
228	2	9	0.11063308	-0.83037466	0.27420392	21.340634
229	3	1	0.57223153	3.4595266	1.9026847	68.666887
230	3	2	-0.60457981	2.5276953	2.5442427	69.220805
231	3	3	-0.5066461	4.0709295	2.3726668	67.459843
232	3	1	0.20801041	3.5611249	3.4554307	66.66309
233	3	1	-0.3768827	4.4132472	4.2216939	65.962328
234	3	4	0.21897459	5.4803205	4.0432282	66.013246
235	3	1	-0.13954569	3.9121287	5.3313542	65.124476
236	3	4	0.21712865	4.6224857	5.9340844	64.572287
237	3	1	-0.24321598	2.5942465	5.5823669	65.04973
238	3	5	-0.049999158	2.0696676	6.6834794	64.167894
239	3	1	-0.24321602	1.7988001	6.1567563	62.785147
240	3	1	-0.13954568	2.7573452	6.1723236	61.843637
241	3	4	0.21712864	3.7347464	6.5881781	62.057335
242	3	1	-0.36476138	2.4942882	5.6132636	60.501477
243	3	4	0.21897461	3.2791703	5.6464568	59.755825
244	3	1	0.23177295	1.3079457	5.051841	60.215754
245	3	3	-0.46906945	1.0714859	4.5224865	58.899288
246	3	1	0.81962085	0.2148801	3.4082191	58.621951
247	3	2	-0.54701012	-0.24234195	2.6873142	59.546905
248	3	6	0.32654664	1.6103182	4.9183722	58.096552
249	3	1	-0.36476138	0.24487678	5.0445034	61.25482
250	3	4	0.21897458	-0.73840302	4.6502612	61.034168
251	3	1	-0.13954569	0.48044899	5.5592315	62.467607
252	3	4	0.21712864	-0.3046755	5.5502615	63.213682
253	3	7	0.12717733	1.133355	7.0948377	64.601604
254	3	7	0.12717733	2.7932189	7.5284967	64.128544
255	3	1	-0.13954566	1.6462602	4.7114487	65.78554
256	3	4	0.21712864	0.57964909	4.8761921	65.698051
257	3	1	-0.37688279	2.1003762	3.706567	66.54441
258	3	4	0.21897461	1.3887339	3.0617767	67.041162
259	3	6	0.32261118	4.9849	1.9405386	67.19303
260	4	8	-0.49014032	-0.0033538342	3.1665742	57.636408
261	4	5	0.12460304	-1.1954889	2.4300735	57.661221
262	4	5	0.15730348	-0.92159424	0.99437643	58.122741
263	4	3	-0.65622884	-2.1760088	0.22995657	58.218848
264	4	1	0.28339622	-2.9412557	0.19386629	59.460097
265	4	1	-0.42099905	-3.9054744	-0.73309749	59.668684
266	4	4	0.22266773	-4.1431229	-1.4865097	58.933187
267	4	1	-0.12316088	-4.6722371	-0.76469143	60.930512
268	4	4	0.22798543	-5.4385147	-1.5153776	61.075267
269	4	1	-0.26709539	-4.4223625	0.12763905	61.892451
270	4	4	0.22517033	-4.9841771	0.10386847	62.817061
271	4	1	-0.12316088	-3.3788119	1.1474695	61.692596
272	4	4	0.22798544	-3.1815168	1.8711668	62.472966
273	4	1	-0.42099902	-2.6800334	1.1826682	60.551657
274	4	4	0.22266771	-1.9293794	1.9514149	60.444033
275	4	5	0.15904452	-2.6251615	-0.47815529	57.007508
276	4	5	0.042366308	-2.0511199	-1.8985787	56.96561
277	4	8	-0.12137104	-2.5246494	-2.5782941	55.835099
278	4	9	0.11063308	-0.94382901	-1.844354	56.906157
279	4	9	0.11063308	-2.3080014	-2.4620766	57.889733
280	4	9	0.090515369	-3.7342764	-0.49339363	56.949361
281	4	9	0.090515369	-2.2833435	0.065525893	56.098975
282	4	9	0.091951036	-0.2369573	0.51292838	57.391136
283	4	9	0.091951036	-0.38143154	0.9839238	59.093195
284	4	9	0.10435397	-1.9419985	2.9259048	58.318698
285	4	9	0.10435397	-1.617847	2.4102423	56.634385
286	1	1	0.57223159	3.8300451	1.0008339	69.13541
287	1	2	-0.60457986	4.5461096	0.21084079	68.466489
288	1	3	-0.50664604	3.5386009	0.75461037	70.518067
289	1	1	0.20801042	3.8537775	-0.46489545	71.213688
290	1	1	-0.37688276	3.7731587	-1.665677	70.60981
291	1	4	0.21897459	3.4584338	-1.7530614	69.579275
292	1	1	-0.13954569	4.0695474	-2.9018212	71.363225
293	1	4	0.21712865	3.9945452	-3.8557138	70.855971
294	1	1	-0.24321598	4.4171118	-2.8402733	72.660051
295	1	5	-0.049999158	4.6791205	-4.0948506	73.446937
296	1	1	-0.25752127	3.3991508	-4.610807	74.04643
297	1	1	-0.18472056	2.9831394	-4.1844914	75.251536
298	1	4	0.20335211	3.5765078	-3.4816786	75.823839
299	1	1	-0.25601521	1.7039822	-4.6639011	75.813073
300	1	4	0.21087456	1.4037803	-4.3076231	76.790588
301	1	1	0.44248352	0.93289598	-5.5248603	75.115044
302	1	3	-0.33758357	-0.31981158	-6.0202624	75.614721
303	1	10	0.61552107	-0.81707888	-5.7047358	76.744214
304	1	2	-0.29119643	-1.3007085	-5.3985511	77.842057
305	1	1	-0.25601524	1.3864794	-5.9792341	73.781899
306	1	4	0.21087457	0.77311803	-6.6636274	73.209541
307	1	1	-0.1847206	2.5480584	-5.5473689	73.275105
308	1	4	0.20335214	2.8626697	-5.8853513	72.295967
309	1	7	0.12717733	5.1299707	-4.8743439	72.793119
310	1	7	0.12717733	5.4247173	-3.8909682	74.247198
311	1	1	-0.13954566	4.4692805	-1.5220552	73.335744
312	1	4	0.21712864	4.722283	-1.4595853	74.386467
313	1	1	-0.37688279	4.2007481	-0.40242791	72.653524
314	1	4	0.21897461	4.2416455	0.55444789	73.157176
315	1	6	0.32261112	3.1638706	1.5549806	71.074479
316	2	8	-0.12137104	-3.4579728	-2.8475153	56.036319
317	2	5	0.042366308	-4.0677094	-3.1285564	54.806287
318	2	5	0.16020832	-4.4278762	-1.8267979	54.083938
319	2	3	-0.6479857	-5.0054176	-2.1082997	52.759385
320	2	1	0.28510109	-4.1596601	-2.2107667	51.576693
321	2	1	-0.42099905	-4.680557	-2.1554171	50.327959
322	2	4	0.22266773	-5.7377471	-2.0246757	50.155292
323	2	1	-0.12316088	-3.8140822	-2.2558939	49.135375
324	2	4	0.22798543	-4.2533925	-2.2074709	48.147629
325	2	1	-0.26709539	-2.4950766	-2.4039233	49.273131
326	2	4	0.22517033	-1.8611993	-2.4775764	48.398975
327	2	1	-0.12316088	-1.9003128	-2.4681158	50.618893
328	2	4	0.22798544	-0.83001707	-2.5912312	50.72652
329	2	1	-0.42099902	-2.6782574	-2.3775127	51.704355
330	2	4	0.22266771	-2.2021111	-2.4366111	52.672073
331	2	5	0.12814276	-6.4661556	-2.2941491	52.690701
332	2	5	0.088405491	-7.1718559	-0.95783136	52.440823
333	2	11	-0.66747534	-8.5540535	-1.1529739	52.327619
334	2	12	0.40593308	-8.7147592	-1.5283629	51.421505
335	2	9	0.10435508	-6.9817509	-0.27765172	53.297669
336	2	9	0.10435508	-6.7764195	-0.46009485	51.527376
337	2	9	0.097254933	-6.7308161	-3.0378782	51.907754
338	2	9	0.097254933	-6.842085	-2.7164548	53.647951
339	2	9	0.090515369	-5.1593233	-1.2678624	54.708522
340	2	9	0.090515369	-3.5415222	-1.1633819	53.991246
341	2	9	0.11063308	-3.3995176	-3.7623415	54.181153
342	2	9	0.11063308	-4.9939966	-3.7099953	54.997132
343	3	1	0.57223153	-2.7486613	-4.5509774	98.949189
344	3	2	-0.60457981	-3.031414	-5.4063041	98.068736
345	3	3	-0.5066461	-3.4323323	-3.2938521	99.011502
346	3	1	0.20801041	-4.3143566	-2.8009643	97.988669
347	3	1	-0.3768827	-5.3398987	-2.0016618	98.325888
348	3	4	0.21897459	-5.518794	-1.747013	99.363307
349	3	1	-0.13954569	-6.2515203	-1.4705236	97.290852
350	3	4	0.21712865	-7.0713442	-0.83030415	97.592202
351	3	1	-0.24321598	-6.059866	-1.7774952	95.996848
352	3	5	-0.049999158	-6.9571896	-1.2093977	94.930386
353	3	1	-0.24321602	-6.4167214	0.10762408	94.444439
354	3	1	-0.13954568	-6.7760687	1.2588391	95.036947
355	3	4	0.21712864	-7.4815298	1.260065	95.859284
356	3	1	-0.36476138	-6.2062792	2.5431242	94.57968
357	3	4	0.21897461	-6.5189982	3.4590366	95.065941
358	3	1	0.23177295	-5.2973601	2.5738986	93.591167
359	3	3	-0.46906945	-4.763479	3.8369091	93.156438
360	3	1	0.81962085	-3.4400624	4.0154434	92.63781
361	3	2	-0.54701012	-2.5791652	3.1000589	92.710082
362	3	6	0.32654664	-5.3401026	4.6973966	93.292517
363	3	1	-0.36476138	-4.9083716	1.3008018	92.929548
364	3	4	0.21897458	-4.221627	1.3019844	92.093287
365	3	1	-0.13954569	-5.4315672	0.1385586	93.337899
366	3	4	0.21712864	-5.1416311	-0.78084239	92.84417
367	3	7	0.12717733	-7.0250406	-1.9222193	94.081103
368	3	7	0.12717733	-7.9932374	-1.0864808	95.318491
369	3	1	-0.13954566	-4.9029694	-2.6225333	95.614626
370	3	4	0.21712864	-4.7124718	-2.8403658	94.571212
371	3	1	-0.37688279	-4.0775255	-3.1035615	96.552254
372	3	4	0.21897461	-3.2193875	-3.6858458	96.246483
373	3	6	0.32261118	-3.3320549	-2.7439784	99.895159
374	4	8	-0.49014032	-3.1729451	4.9308334	92.227904
375	4	5	0.12460304	-2.0865516	4.6848523	91.377329
376	4	5	0.15730348	-0.80508925	4.4944911	92.196391
377	4	3	-0.65622884	0.33039713	4.1673848	91.318438
378	4	1	0.28339622	0.65576591	2.7829235	90.99439
379	4	1	-0.42099905	1.8535216	2.444931	90.46182
380	4	4	0.22266773	2.6185418	3.1798101	90.262424
381	4	1	-0.12316088	2.1758184	1.0398245	90.140988
382	4	4	0.22798543	3.1402345	0.79306407	89.715928
383	4	1	-0.26709539	1.2830701	0.074236953	90.374781
384	4	4	0.22517033	1.5198088	-0.95527455	90.139909
385	4	1	-0.12316088	-0.028055159	0.41319965	90.953615
386	4	4	0.22798544	-0.75033119	-0.37153152	91.138426
387	4	1	-0.42099902	-0.32752856	1.6843061	91.246661
388	4	4	0.22266771	-1.3026653	1.8891801	91.662799
389	4	5	0.15904452	1.1061474	5.2960842	90.775525
390	4	5	0.042366308	2.2583904	5.664454	91.716547
391	4	8	-0.12137104	3.0179632	6.7058713	91.166278
392	4	9	0.11063308	1.8429481	6.0062707	92.687699
393	4	9	0.11063308	2.905061	4.7830199	91.922491
394	4	9	0.090515369	1.4814912	5.0614217	89.756801
395	4	9	0.090515369	0.45091666	6.1874502	90.657206
396	4	9	0.091951036	-0.59852576	5.4347118	92.752343
397	4	9	0.091951036	-0.93995121	3.7097703	92.970788
398	4	9	0.10435397	-2.2888993	3.7974484	90.739386
399	4	9	0.10435397	-1.9634908	5.5583171	90.702728
400	1	1	0.57223159	-2.0027397	-4.78913	99.695525
401	1	2	-0.60457986	-1.5130051	-3.8621305	100.39203
402	1	3	-0.50664604	-1.6292759	-6.1578467	99.906341
403	1	1	0.20801042	-0.55777135	-6.5882201	100.76487
404	1	1	-0.37688276	0.58270338	-5.8821098	100.88222
405	1	4	0.21897459	0.73422443	-4.968331	100.32478
406	1	1	-0.13954569	1.6779732	-6.370644	101.7455
407	1	4	0.21712865	2.5866363	-5.7862605	101.8208
408	1	1	-0.24321598	1.5488864	-7.5272819	102.41772
409	1	5	-0.049999158	2.6739158	-8.0545923	103.2651
410	1	1	-0.25752127	3.5997113	-8.9009377	102.43412
411	1	1	-0.18472056	3.3729375	-10.216464	102.27583
412	1	4	0.20335211	2.5339419	-10.695216	102.76618
413	1	1	-0.25601521	4.2627016	-11.030843	101.42348
414	1	4	0.21087456	4.0566782	-12.089418	101.3257
415	1	1	0.44248352	5.3050484	-10.458926	100.78356
416	1	3	-0.33758357	6.1992228	-11.205169	99.942161
417	1	10	0.61552107	6.1011688	-12.45596	99.721952
418	1	2	-0.29119643	6.006432	-13.671718	99.507797
419	1	1	-0.25601524	5.5418067	-9.0075234	100.9474
420	1	4	0.21087457	6.3699464	-8.536282	100.43328
421	1	1	-0.1847206	4.737216	-8.27056	101.72337
422	1	4	0.20335214	4.9211932	-7.2089155	101.82819
423	1	7	0.12717733	3.2410027	-7.2132168	103.7221
424	1	7	0.12717733	2.2638154	-8.6491083	104.11142
425	1	1	-0.13954566	0.30918119	-8.3242227	102.25961
426	1	4	0.21712864	0.20204849	-9.2704687	102.77446
427	1	1	-0.37688279	-0.6828179	-7.8819306	101.47768
428	1	4	0.21897461	-1.5832589	-8.4722257	101.36948
429	1	6	0.32261112	-2.2441941	-6.8885943	99.483856
430	2	8	-0.12137104	3.5842026	6.301073	90.459473
431	2	5	0.042366308	4.0085536	7.3521114	89.635467
432	2	5	0.16020832	2.8732087	7.785947	88.703339
433	2	3	-0.6479857	3.2843455	8.9359422	87.88132
434	2	1	0.28510109	3.0654185	10.30287	88.337549
435	2	1	-0.42099905	3.1424032	11.35327	87.486391
436	2	4	0.22266773	3.3591217	11.223637	86.437208
437	2	1	-0.12316088	2.9144925	12.734869	87.957951
438	2	4	0.22798543	2.9799296	13.557967	87.258517
439	2	1	-0.26709539	2.6272914	12.969025	89.239884
440	2	4	0.22517033	2.4606451	13.981402	89.584407
441	2	1	-0.12316088	2.5376894	11.846371	90.188863
442	2	4	0.22798544	2.3073371	12.040722	91.228786
443	2	1	-0.42099902	2.7424288	10.591796	89.769629
444	2	4	0.22266771	2.6743615	9.7988917	90.499941
445	2	5	0.12814276	3.9355061	8.6399956	86.59236
446	2	5	0.088405491	2.8961478	8.5265355	85.472959
447	2	11	-0.66747534	3.5289211	8.2950255	84.24521
448	2	12	0.40593308	3.9061419	9.1662618	83.951207
449	2	9	0.10435508	2.219843	7.6721794	85.686632
450	2	9	0.10435508	2.2666024	9.4424557	85.415855
451	2	9	0.097254933	4.6986549	9.4119426	86.351763
452	2	9	0.097254933	4.4888773	7.6779103	86.656898
453	2	9	0.090515369	2.6052537	6.9261103	88.050338
454	2	9	0.090515369	1.9536405	8.025416	89.278999
455	2	9	0.11063308	4.3678729	8.2051412	90.25368
456	2	9	0.11063308	4.8670041	6.9980111	89.027046
457	3	1	0.57223153	-6.278775	1.0048008	128.64359
458	3	2	-0.60457981	-6.8746807	0.54606115	127.63305
459	3	3	-0.5066461	-5.5358449	2.2276371	128.57742
460	3	1	0.20801041	-5.2148279	2.9142025	127.35567
461	3	1	-0.3768827	-5.091596	4.2517897	127.35919
462	3	4	0.21897459	-5.2556362	4.8153828	128.26943
463	3	1	-0.13954569	-4.7478096	4.978779	126.11912
464	3	4	0.21712865	-4.6574303	6.0574851	126.1512
465	3	1	-0.24321598	-4.548181	4.3067917	124.97283
466	3	5	-0.049999158	-4.1576166	5.0327224	123.71356
467	3	1	-0.24321602	-2.6603497	5.1451379	123.62218
468	3	1	-0.13954568	-2.0162165	6.1972168	124.15482
469	3	4	0.21712864	-2.5671748	6.9956432	124.6374
470	3	1	-0.36476138	-0.54193779	6.2768482	124.09736
471	3	4	0.21897461	-0.045701001	7.1396843	124.52444
472	3	1	0.23177295	0.1747945	5.2845687	123.54426
473	3	3	-0.46906945	1.6085382	5.3884232	123.49129
474	3	1	0.81962085	2.4990288	4.2675	123.54457
475	3	2	-0.54701012	2.0856416	3.1159624	123.84015
476	3	6	0.32654664	2.0416606	6.3391355	123.48984
477	3	1	-0.36476138	-0.53942937	4.126137	122.94614
478	3	4	0.21897458	0.0092675577	3.3402495	122.44388
479	3	1	-0.13954569	-1.8753923	4.0586701	122.99024
480	3	4	0.21712864	-2.3825663	3.2103842	122.54716
481	3	7	0.12717733	-4.5461171	4.4827879	122.83002
482	3	7	0.12717733	-4.6269617	6.0416848	123.6846
483	3	1	-0.13954566	-4.6386745	2.8267905	124.97348
484	3	4	0.21712864	-4.4365361	2.2712726	124.06629
485	3	1	-0.37688279	-4.9501727	2.1685939	126.09671
486	3	4	0.21897461	-4.9731219	1.0877603	126.08175
487	3	6	0.32261118	-5.2809398	2.6762429	129.48683
488	4	8	-0.49014032	3.5122619	4.4134685	123.3732
489	4	5	0.12460304	4.033557	3.1720867	122.98402
490	4	5	0.15730348	4.2056806	2.263242	124.20616
491	4	3	-0.65622884	4.6880058	0.93247015	123.80176
492	4	1	0.28339622	3.7534079	-0.13904105	123.47619
493	4	1	-0.42099905	4.1542843	-1.4303748	123.41105
494	4	4	0.22266773	5.1752791	-1.7226237	123.60398
495	4	1	-0.12316088	3.1998936	-2.5092321	123.08496
496	4	4	0.22798543	3.543099	-3.5347767	123.03877
497	4	1	-0.26709539	1.9165821	-2.2239646	122.84884
498	4	4	0.22517033	1.2175135	-3.014861	122.61032
499	4	1	-0.12316088	1.4526734	-0.82765574	122.9129
500	4	4	0.22798544	0.41268157	-0.59988963	122.71751
501	4	1	-0.42099902	2.3117116	0.15549085	123.20743
502	4	4	0.22266771	1.9308206	1.1654923	123.23668
503	4	5	0.15904452	6.1469072	0.74108403	123.72772
504	4	5	0.042366308	6.6996913	0.26054451	125.07397
505	4	8	-0.12137104	8.0795562	0.034891122	124.97727
506	4	9	0.11063308	6.5233936	1.0423861	125.84222
507	4	9	0.11063308	6.1810296	-0.66317198	125.41347
508	4	9	0.090515369	6.4099243	0.034159652	122.91234
509	4	9	0.090515369	6.6448188	1.7010958	123.46633
510	4	9	0.091951036	4.9335108	2.7379974	124.89944
511	4	9	0.091951036	3.25658	2.1788882	124.77691
512	4	9	0.10435397	3.3760867	2.6986857	122.22309
513	4	9	0.10435397	5.0237289	3.3396404	122.51005
514	1	1	0.57223159	-6.3645038	0.48415403	129.58789
515	1	2	-0.60457986	-5.5624954	0.76187882	130.51738
516	1	3	-0.50664604	-7.4191227	-0.47026444	129.77274
517	1	1	0.20801042	-7.5552726	-1.3230173	130.9237
518	1	1	-0.37688276	-6.4831775	-1.8463112	131.54805
519	1	4	0.21897459	-5.4800766	-1.6484646	131.19686
520	1	1	-0.13954569	-6.6594082	-2.747169	132.70604
521	1	4	0.21712865	-5.7814904	-3.1578102	133.18923
522	1	1	-0.24321598	-7.8915356	-3.0575341	133.14408
523	1	5	-0.049999158	-8.0827775	-4.0069862	134.29463
524	1	1	-0.25752127	-8.1473981	-5.4247846	133.79504
525	1	1	-0.18472056	-9.317335	-5.9681577	133.41677
526	1	4	0.20335211	-10.238409	-5.4026915	133.49048
527	1	1	-0.25601521	-9.3647211	-7.346126	132.88728
528	1	4	0.21087456	-10.325186	-7.7561495	132.60097
529	1	1	0.44248352	-8.2308964	-8.0690113	132.76502
530	1	3	-0.33758357	-8.2217505	-9.4121418	132.25483
531	1	10	0.61552107	-9.2616115	-10.043118	131.87648
532	1	2	-0.29119643	-10.27206	-10.656913	131.50885
533	1	1	-0.25601524	-6.9429799	-7.4616292	133.1673
534	1	4	0.21087457	-6.0262262	-8.0287829	133.0668
535	1	1	-0.1847206	-6.9011782	-6.2138471	133.65093