Title

7750 atoms
7625 bonds
13500 angles
24250 dihedrals
2250 impropers

11 atom types
14 bond types
9 angle types
35 dihedral types
3 improper types
-7.133305304 81.73406198 xlo xhi
-6.510882653 81.55790865 ylo yhi
-7.706534491 82.19889754 zlo zhi
0.0 0.0 0.0 xy xz yz

Masses

1	12.01078
2	15.99943
3	14.00672
4	12.01078
5	1.007947
6	1.007947
7	1.007947
8	15.99943
9	12.01078
10	15.99943
11	1.007947


Pair Coeffs

1	0.086879315	3.4806469
2	0.2102061	3.0398122
3	0.16769152	3.206876
4	0.10884061	3.3795318
5	0.014090815	1.1034277
6	0.016409246	2.5832257
7	0.015779483	2.6445434
8	0.16846514	3.0251065
9	0.21	3.3996695
10	0.20947353	2.99716
11	1.2326e-05	0.53453923

Bond Coeffs

1 harmonic	582.698766451	1.225198386222
2 harmonic	492.76746816345	1.381897776683
3 harmonic	279.1350963404	1.454628925034
4 harmonic	352.0565580496	1.450098586273
5 harmonic	505.144496193	1.019481865027
6 harmonic	264.62148576755	1.52190126495
7 harmonic	370.04670688625	1.093899492634
8 harmonic	301.15400723785	1.345741232799
9 harmonic	366.7408841747	1.425895053732
10 harmonic	300.03137914615	1.451203938761
11 harmonic	366.34047229585	1.464762957261
12 harmonic	602.81384337	1.196112346392
13 harmonic	329.96998057905	1.427343958716
14 harmonic	543.5267831885	0.9716763312559


Angle Coeffs

1 harmonic	55.42182150775	117.3465570514
2 harmonic	63.44422595415	115.5071327674
3 harmonic	57.8982893754	126.8062420451
4 harmonic	53.20531626545	116.5475862634
5 harmonic	65.09061609600001	110.3538806181
6 harmonic	201.41175231035	127.4691416191
7 harmonic	48.776492647595	115.6030999533
8 harmonic	55.07882548015	112.8714009681
9 harmonic	33.56981613361	180


Dihedral Coeffs

1 fourier 1	-0.1488678166443	4	180
2 fourier 1	-0.1230328948768	3	180
3 fourier 1	0.2939295466901	2	0
4 fourier 1	-0.3024127022865	1	0
5 fourier 1	0.182238503271	2	0
6 fourier 1	0.02972342374561	3	0
7 fourier 1	1.809047390003	2	180
8 fourier 1	-0.04816277792592	1	0
9 fourier 1	3.101948770557	2	180
10 fourier 1	-0.4252153282372	1	0
11 fourier 1	2.348375642009	2	180
12 fourier 1	1.256156174911	1	0
13 fourier 1	0.9974165607242	2	180
14 fourier 1	0.1155372516788	3	0
15 fourier 1	0.09223874044423	3	0
16 fourier 1	0.3159935921949	2	180
17 fourier 1	0.3247796806857	1	180
18 fourier 1	0.1040663847541	3	0
19 fourier 1	2.779853741805	2	180
20 fourier 1	0.1918272375143	3	0
21 fourier 1	0.9202179876409	1	180
22 fourier 1	0.0473758381877	3	0
23 fourier 1	0.4860993122944	2	180
24 fourier 1	0.8916986138746	1	0
25 fourier 1	1.163809172478	2	180
26 fourier 1	0.1679186987369	1	180
27 fourier 1	0.1911926717192	3	0
28 fourier 1	0.1115525666802	3	0
29 fourier 1	0.3432490222662	1	0
30 fourier 1	0.457973137376	1	0
31 fourier 1	-1.382973039546	1	0
32 fourier 1	0	1	0
33 fourier 1	0.3445382149273	3	0
34 fourier 1	0.1364556373303	1	0
35 fourier 1	0.3026390167484	3	0


Improper Coeffs

1 0.3333333333333333	-1	2
2 0.3666666666666667	-1	2
3 3.5	-1	2


Atoms

1	6	1	0.54637462	-2.2307947	-1.4528079	0.79718553
2	6	2	-0.66444498	-2.9383228	-2.4361512	1.1436027
3	6	3	-0.51808953	-2.7309063	-0.47784482	-0.1214512
4	6	4	0.031977319	-4.0710602	-0.58697535	-0.70083991
5	6	4	-0.14452092	-4.3898558	0.60223718	-1.6155163
6	6	4	-0.14321312	-4.587463	1.9018414	-0.81816111
7	6	4	0.026189699	-4.9475361	3.0816741	-1.7303476
8	6	3	-0.46121809	-3.8568476	3.3901028	-2.6549899
9	6	1	0.79022771	-2.6520611	4.0426872	-2.2431231
10	6	2	-0.59113258	-2.4845371	4.3974069	-1.0458263
11	6	5	0.33024359	-3.9817948	3.1755694	-3.6693959
12	6	6	0.06391132	-5.1774685	3.9766172	-1.1128964
13	6	6	0.06391132	-5.8637843	2.8330106	-2.3089706
14	6	7	0.093823903	-3.6696933	2.1431428	-0.24245078
15	6	7	0.093823903	-5.4151614	1.7591874	-0.089322157
16	6	7	0.093823903	-3.5709277	0.72477533	-2.3574867
17	6	7	0.093823903	-5.3237801	0.37531617	-2.1735282
18	6	6	0.060270329	-4.8271369	-0.65094107	0.1113087
19	6	6	0.060270329	-4.1280633	-1.52246	-1.2990982
20	6	5	0.32366437	-2.1006066	0.31269898	-0.38481347
21	7	8	-0.49417394	-1.9074872	4.2333763	-2.9400724
22	7	4	0.12748157	-1.5952269	3.0048751	-3.5400269
23	7	4	-0.13131723	-0.76636888	2.1297414	-2.5952199
24	7	4	0.04592662	0.5903328	2.7651757	-2.2717932
25	7	8	-0.15775271	1.3432442	1.909507	-1.4560258
26	7	6	0.095379212	0.44953384	3.7487706	-1.7697157
27	7	6	0.095379212	1.1529389	2.9363292	-3.2138875
28	7	7	0.10369516	-0.59798818	1.1427445	-3.0773807
29	7	7	0.10369516	-1.3339752	1.9605011	-1.6537069
30	7	6	0.092740313	-2.5286332	2.4685354	-3.8220863
31	7	6	0.092740313	-1.0242059	3.1950575	-4.4729512
32	4	1	0.54637468	-1.233053	-1.3463048	1.2012629
33	4	2	-0.66444504	-0.85914795	-0.22722743	1.6424611
34	4	3	-0.51808959	-0.35506618	-2.474824	1.2284424
35	4	4	0.032267631	1.0012855	-2.3782248	1.7648824
36	4	4	-0.13940105	1.7217087	-3.7275113	1.6741615
37	4	4	-0.12140964	3.1451955	-3.6325999	2.2348302
38	4	4	0.18628442	3.8662596	-4.9830075	2.140068
39	4	3	-0.61575651	5.1990636	-4.9063074	2.7292671
40	4	9	0.59495211	6.1325629	-4.2213752	2.1990899
41	4	2	-0.43635607	7.0384745	-3.5550377	1.6833055
42	4	6	0.037650582	3.2833793	-5.748452	2.6957219
43	4	6	0.037650582	3.9415109	-5.3090103	1.078714
44	4	7	0.087683582	3.1031066	-3.3171998	3.3011675
45	4	7	0.087683582	3.7155809	-2.8690035	1.6618712
46	4	7	0.092808166	1.7647456	-4.0469203	0.60883919
47	4	7	0.092808166	1.1465729	-4.4868544	2.2486515
48	4	6	0.060270329	1.5682405	-1.6161025	1.1873344
49	4	6	0.060270329	0.95116002	-2.0564525	2.8284251
50	4	5	0.3236644	-0.71161989	-3.3824329	0.8506005
51	5	8	-0.15698512	0.96235408	1.9805327	-0.54190485
52	5	4	0.054357288	2.0009848	2.4173009	0.29295675
53	5	4	-0.16635413	2.990598	1.2822856	0.57545245
54	5	4	0.10145213	2.3327373	0.12868048	1.3379959
55	5	10	-0.67680639	3.2809334	-0.86122542	1.630334
56	5	11	0.39102712	3.4421281	-1.3583566	0.78720655
57	5	6	0.089459063	1.4962545	-0.30549135	0.74430128
58	5	6	0.089459063	1.914674	0.50722706	2.2955227
59	5	7	0.1077291	3.8319544	1.6842148	1.1810912
60	5	7	0.1077291	3.4065443	0.90680286	-0.38474464
61	5	6	0.095255726	2.5374926	3.2722155	-0.17832488
62	5	6	0.095255726	1.5662131	2.7827849	1.2479934
63	6	1	0.54637462	0.90292261	-2.4149755	17.162926
64	6	2	-0.66444498	1.2066396	-3.6364856	17.219793
65	6	3	-0.51808953	0.21606786	-1.7797017	18.244229
66	6	4	0.031977319	-0.16885537	-2.5191646	19.447824
67	6	4	-0.14452092	-0.84813691	-1.6080214	20.477817
68	6	4	-0.14321312	0.14612749	-0.62538545	21.117864
69	6	4	0.026189699	-0.52596081	0.25678213	22.177967
70	6	3	-0.46121809	-1.5480656	1.1171903	21.582407
71	6	1	0.79022771	-1.2299241	2.2658284	20.790935
72	6	2	-0.59113258	-0.032318664	2.5969304	20.582314
73	6	5	0.33024359	-2.5530188	0.91942128	21.786398
74	6	6	0.06391132	0.23948274	0.88286991	22.685065
75	6	6	0.06391132	-0.99249243	-0.38994474	22.95272
76	6	7	0.093823903	0.60853761	0.015897697	20.338824
77	6	7	0.093823903	0.96134096	-1.2007964	21.608751
78	6	7	0.093823903	-1.6777681	-1.0537298	19.987254
79	6	7	0.093823903	-1.2887975	-2.2458952	21.274071
80	6	6	0.060270329	0.72851751	-2.9947771	19.899315
81	6	6	0.060270329	-0.87894708	-3.3254856	19.161625
82	6	5	0.32366437	-0.02235817	-0.76751135	18.143131
83	7	8	-0.49417394	-1.9948367	2.8393093	20.387798
84	7	4	0.12748157	-2.8026948	1.9659213	19.645352
85	7	4	-0.13131723	-2.1245337	1.5808239	18.327277
86	7	4	0.04592662	-1.9178036	2.7954365	17.415685
87	7	8	-0.15775271	-1.3519777	2.3953276	16.197377
88	7	6	0.095379212	-1.2658394	3.5485582	17.912792
89	7	6	0.095379212	-2.8985976	3.2726784	17.206773
90	7	7	0.10369516	-2.7615555	0.83765174	17.801071
91	7	7	0.10369516	-1.1432993	1.1027471	18.541491
92	7	6	0.092740313	-3.0172953	1.0476475	20.236271
93	7	6	0.092740313	-3.7730505	2.4633619	19.436678
94	4	1	0.54637468	1.1663877	-1.8413035	16.28452
95	4	2	-0.66444504	1.702089	-0.70941445	16.421072
96	4	3	-0.51808959	0.90312358	-2.3749429	14.984107
97	4	4	0.032267631	1.2418386	-1.6360227	13.769175
98	4	4	-0.13940105	0.85504677	-2.433573	12.519327
99	4	4	-0.12140964	1.2073338	-1.6635461	11.241586
100	4	4	0.18628442	0.81633246	-2.4615416	9.9914515
101	4	3	-0.61575651	1.2073342	-1.7542455	8.7764392
102	4	9	0.59495211	0.64801739	-0.66751006	8.4189316
103	4	2	-0.43635607	0.10421566	0.38859356	8.0730417
104	4	6	0.037650582	1.3374251	-3.4426887	10.006242
105	4	6	0.037650582	-0.27994407	-2.6524985	9.9802161
106	4	7	0.087683582	2.3020895	-1.4653078	11.218446
107	4	7	0.087683582	0.67088348	-0.68942108	11.23998
108	4	7	0.092808166	-0.23942498	-2.6348441	12.539514
109	4	7	0.092808166	1.3943007	-3.4064925	12.526737
110	4	6	0.060270329	0.70119313	-0.66466782	13.770688
111	4	6	0.060270329	2.3359498	-1.436189	13.756525
112	4	5	0.3236644	0.45692382	-3.3187586	14.922734
113	5	8	-0.15698512	-0.3909577	2.2198377	16.374529
114	5	4	0.054357288	0.33505554	3.0777524	15.535839
115	5	4	-0.16635413	0.30430561	2.5820107	14.086462
116	5	4	0.10145213	0.98380781	1.2179641	13.935758
117	5	10	-0.67680639	0.98942002	0.82612585	12.590068
118	5	11	0.39102712	0.069750053	0.51992006	12.379278
119	5	6	0.089459063	0.46439845	0.45201634	14.555613
120	5	6	0.089459063	2.0364932	1.2870008	14.285071
121	5	7	0.1077291	0.83010553	3.3219952	13.444447
122	5	7	0.1077291	-0.75024586	2.5146854	13.740969
123	5	6	0.095255726	-0.083899954	4.1086105	15.58716
124	5	6	0.095255726	1.3859122	3.1272376	15.893542
125	6	1	0.54637462	1.2667452	-1.0196762	34.505481
126	6	2	-0.66444498	2.007255	-1.7518045	35.214846
127	6	3	-0.51808953	-0.042582703	-0.65379586	34.948595
128	6	4	0.031977319	-0.57634918	-1.1198528	36.229805
129	6	4	-0.14452092	-1.9763631	-0.55382294	36.498247
130	6	4	-0.14321312	-1.9373704	0.95358269	36.798252
131	6	4	0.026189699	-3.3332109	1.5099701	37.107774
132	6	3	-0.46121809	-4.2186769	1.3973458	35.948913
133	6	1	0.79022771	-4.1066782	2.2452632	34.801959
134	6	2	-0.59113258	-3.2318537	3.1503957	34.748788
135	6	5	0.33024359	-5.0011791	0.7063865	35.979272
136	6	6	0.06391132	-3.2529601	2.5753094	37.413797
137	6	6	0.06391132	-3.7707434	0.95068207	37.963292
138	6	7	0.093823903	-1.4986412	1.5051424	35.940773
139	6	7	0.093823903	-1.2868967	1.1318298	37.68242
140	6	7	0.093823903	-2.6288736	-0.75656297	35.621146
141	6	7	0.093823903	-2.4078416	-1.0852759	37.373729
142	6	6	0.060270329	0.11217192	-0.82772784	37.051955
143	6	6	0.060270329	-0.63810721	-2.2298499	36.210152
144	6	5	0.32366437	-0.62088169	-0.053783753	34.318395
145	7	8	-0.49417394	-4.7584062	2.1189509	34.004597
146	7	4	0.12748157	-4.6538811	0.77745004	33.60948
147	7	4	-0.13131723	-3.3502533	0.53271894	32.843852
148	7	4	0.04592662	-3.2969475	1.3324058	31.537453
149	7	8	-0.15775271	-2.1196989	1.0365133	30.8367
150	7	6	0.095379212	-3.354875	2.4242505	31.746939
151	7	6	0.095379212	-4.1632974	1.0572785	30.899406
152	7	7	0.10369516	-3.2716209	-0.55053682	32.608549
153	7	7	0.10369516	-2.4856669	0.80889864	33.486877
154	7	6	0.092740313	-4.693358	0.11189679	34.500517
155	7	6	0.092740313	-5.5211187	0.52390931	32.964346
156	4	1	0.54637468	1.6280155	-0.66407398	33.549897
157	4	2	-0.66444504	1.4830312	0.54952351	33.245011
158	4	3	-0.51808959	2.2632825	-1.5748206	32.648714
159	4	4	0.032267631	2.7669769	-1.1396104	31.347302
160	4	4	-0.13940105	3.3987636	-2.3103534	30.587026
161	4	4	-0.12140964	3.9285612	-1.8603647	29.220828
162	4	4	0.18628442	4.5574338	-3.0340176	28.459531
163	4	3	-0.61575651	5.1152319	-2.5918494	27.185658
164	4	9	0.59495211	4.3766034	-2.1943532	26.227501
165	4	2	-0.43635607	3.657885	-1.8077956	25.297591
166	4	6	0.037650582	5.3800203	-3.4661227	29.068664
167	4	6	0.037650582	3.8017827	-3.8317843	28.283541
168	4	7	0.087683582	4.6958591	-1.067211	29.363954
169	4	7	0.087683582	3.0910776	-1.4391497	28.62258
170	4	7	0.092808166	2.6343822	-3.1064353	30.44294
171	4	7	0.092808166	4.2351793	-2.7274314	31.190248
172	4	6	0.060270329	1.9260204	-0.72214676	30.752032
173	4	6	0.060270329	3.528201	-0.3428077	31.498353
174	4	5	0.3236644	2.360129	-2.5723687	32.947324
175	5	8	-0.15698512	-1.3854873	1.5204878	31.297613
176	5	4	0.054357288	-0.81054847	2.376728	30.347449
177	5	4	-0.16635413	0.056548609	1.5925257	29.357213
178	5	4	0.10145213	1.2452341	0.91911066	30.04902
179	5	10	-0.67680639	2.04674	0.26321898	29.104644
180	5	11	0.39102712	1.5702427	-0.57101463	28.85768
181	5	6	0.089459063	0.89108904	0.19632809	30.818987
182	5	6	0.089459063	1.8632097	1.6893473	30.5587
183	5	7	0.1077291	0.43725723	2.2934269	28.5826
184	5	7	0.1077291	-0.56538821	0.82350907	28.849487
185	5	6	0.095255726	-1.6069398	2.9248834	29.794174
186	5	6	0.095255726	-0.18935274	3.1332917	30.873212
187	6	1	0.54637462	-0.71253685	-1.493206	50.610749
188	6	2	-0.66444498	-1.4123841	-1.9429434	51.557066
189	6	3	-0.51808953	0.66232927	-1.1560377	50.81229
190	6	4	0.031977319	1.3053846	-1.308332	52.118774
191	6	4	-0.14452092	2.7900424	-0.92692143	52.065791
192	6	4	-0.14321312	3.6183929	-1.9555744	51.278705
193	6	4	0.026189699	5.1094869	-1.5948713	51.262161
194	6	3	-0.46121809	5.3427812	-0.33308306	50.55991
195	6	1	0.79022771	5.2714617	-0.21327198	49.135982
196	6	2	-0.59113258	5.0130791	-1.2130921	48.414173
197	6	5	0.33024359	5.6270665	0.50547288	51.11368
198	6	6	0.06391132	5.6865506	-2.4075689	50.770675
199	6	6	0.06391132	5.4791009	-1.510288	52.307331
200	6	7	0.093823903	3.2432784	-2.0354885	50.237133
201	6	7	0.093823903	3.5063561	-2.954104	51.755179
202	6	7	0.093823903	2.8939593	0.082337656	51.611064
203	6	7	0.093823903	3.1758447	-0.87281837	53.106615
204	6	6	0.060270329	1.1981777	-2.3573686	52.469997
205	6	6	0.060270329	0.79283584	-0.64603661	52.850178
206	6	5	0.32366437	1.1959866	-0.77681569	49.998044
207	7	8	-0.49417394	5.4411792	0.70762715	48.68918
208	7	4	0.12748157	4.5485369	1.6120692	49.282343
209	7	4	-0.13131723	3.1244441	1.3959533	48.761979
210	7	4	0.04592662	3.0189569	1.6692278	47.25758
211	7	8	-0.15775271	1.6922065	1.5208128	46.830699
212	7	6	0.095379212	3.6843071	0.9808168	46.689457
213	7	6	0.095379212	3.3404598	2.7112125	47.047188
214	7	7	0.10369516	2.4378692	2.0818509	49.303415
215	7	7	0.10369516	2.8066245	0.35160601	48.975509
216	7	6	0.092740313	4.5629531	1.4939783	50.388829
217	7	6	0.092740313	4.8790131	2.6467138	49.05239
218	4	1	0.54637468	-1.1590396	-1.3617269	49.634297
219	4	2	-0.66444504	-0.54625617	-1.7703424	48.612375
220	4	3	-0.51808959	-2.4354004	-0.72725683	49.518083
221	4	4	0.032267631	-3.0772442	-0.5281334	48.21994
222	4	4	-0.13940105	-4.4308012	0.17153793	48.381672
223	4	4	-0.12140964	-5.1088497	0.38375818	47.023407
224	4	4	0.18628442	-6.4619175	1.0873869	47.186589
225	4	3	-0.61575651	-7.1333053	1.2341338	45.899301
226	4	9	0.59495211	-6.6902146	2.0101116	44.992014
227	4	2	-0.43635607	-6.2583221	2.7639113	44.111122
228	4	6	0.037650582	-7.1123064	0.47943758	47.851267
229	4	6	0.037650582	-6.3253032	2.0868205	47.65657
230	4	7	0.087683582	-5.2686176	-0.60137102	46.531148
231	4	7	0.087683582	-4.4482666	1.0005212	46.375384
232	4	7	0.092808166	-4.2751414	1.1570685	48.874912
233	4	7	0.092808166	-5.0867116	-0.44971228	49.030711
234	4	6	0.060270329	-2.4147344	0.091102867	47.576933
235	4	6	0.060270329	-3.2275806	-1.5161362	47.731655
236	4	5	0.3236644	-2.9044389	-0.40533219	50.395589
237	5	8	-0.15698512	1.5167396	0.54477782	46.782677
238	5	4	0.054357288	1.1532852	0.26697145	45.457068
239	5	4	-0.16635413	-0.27470022	0.74203391	45.169716
240	5	4	0.10145213	-1.3057691	-0.001564795	46.02354
241	5	10	-0.67680639	-2.6015654	0.41604461	45.690426
242	5	11	0.39102712	-2.7290055	1.307179	46.107109
243	5	6	0.089459063	-1.1140471	0.1718588	47.106983
244	5	6	0.089459063	-1.2290851	-1.0933623	45.831109
245	5	7	0.1077291	-0.49999812	0.56727677	44.095041
246	5	7	0.1077291	-0.34695076	1.8344375	45.363136
247	5	6	0.095255726	1.8607148	0.76293079	44.753937
248	5	6	0.095255726	1.2262914	-0.82842214	45.285362
249	6	1	0.54637462	-1.766791	1.5688351	65.966791
250	6	2	-0.66444498	-2.2313854	2.5669033	66.579634
251	6	3	-0.51808953	-1.9141344	0.24936518	66.497683
252	6	4	0.031977319	-2.596193	0.0068862057	67.770323
253	6	4	-0.14452092	-2.6660056	-1.4898854	68.097876
254	6	4	-0.14321312	-3.6379156	-2.2352989	67.168605
255	6	4	0.026189699	-3.7384847	-3.7242965	67.524294
256	6	3	-0.46121809	-2.4590479	-4.405111	67.326238
257	6	1	0.79022771	-1.942031	-4.7229554	66.030599
258	6	2	-0.59113258	-2.5875638	-4.4356085	64.987465
259	6	5	0.33024359	-1.9233849	-4.7226915	68.164607
260	6	6	0.06391132	-4.5190985	-4.2076145	66.898128
261	6	6	0.06391132	-4.0524993	-3.8285419	68.585744
262	6	7	0.093823903	-3.3189873	-2.1260255	66.111102
263	6	7	0.093823903	-4.6501245	-1.78477	67.263988
264	6	7	0.093823903	-1.6474838	-1.9297261	68.024852
265	6	7	0.093823903	-3.0115247	-1.6035828	69.148007
266	6	6	0.060270329	-3.6221513	0.4327806	67.733547
267	6	6	0.060270329	-2.0374493	0.52372685	68.580864
268	6	5	0.32366437	-1.5014586	-0.54317157	65.956221
269	7	8	-0.49417394	-1.025922	-5.2027997	65.947024
270	7	4	0.12748157	-0.096516954	-4.4175941	66.644394
271	7	4	-0.13131723	0.26271903	-3.1592485	65.848755
272	7	4	0.04592662	0.95228637	-3.4997888	64.523029
273	7	8	-0.15775271	1.3197932	-2.3248406	63.852987
274	7	6	0.095379212	0.280634	-4.1135124	63.881475
275	7	6	0.095379212	1.8709341	-4.0903909	64.724614
276	7	7	0.10369516	0.94551025	-2.5316891	66.461095
277	7	7	0.10369516	-0.66002344	-2.570791	65.649933
278	7	6	0.092740313	-0.50920486	-4.1263755	67.636032
279	7	6	0.092740313	0.81808331	-5.0199028	66.826911
280	4	1	0.54637468	-1.2508065	1.7139724	65.027213
281	4	2	-0.66444504	-1.5273982	0.97252071	64.047141
282	4	3	-0.51808959	-0.26437093	2.7429391	64.911769
283	4	4	0.032267631	0.45801509	2.975808	63.662481
284	4	4	-0.13940105	1.4514023	4.1325903	63.813645
285	4	4	-0.12140964	2.2126917	4.3814676	62.506675
286	4	4	0.18628442	3.209172	5.5372608	62.660568
287	4	3	-0.61575651	3.889217	5.8124841	61.399142
288	4	9	0.59495211	4.7174475	4.9922803	60.886365
289	4	2	-0.43635607	5.5214519	4.1942558	60.388922
290	4	6	0.037650582	2.6614401	6.4536797	62.968095
291	4	6	0.037650582	3.9582611	5.3013091	63.448988
292	4	7	0.087683582	1.4895317	4.6303844	61.698341
293	4	7	0.087683582	2.761008	3.4576519	62.219247
294	4	7	0.092808166	2.175865	3.8876963	64.622327
295	4	7	0.092808166	0.89732979	5.0532759	64.101332
296	4	6	0.060270329	1.0066752	2.0508818	63.380854
297	4	6	0.060270329	-0.27161493	3.2174948	62.858491
298	4	5	0.3236644	-0.070115238	3.3323529	65.753496
299	5	8	-0.15698512	0.48904429	-1.9515301	63.457722
300	5	4	0.054357288	0.70014555	-1.8799791	62.073225
301	5	4	-0.16635413	1.6311448	-0.7153515	61.72069
302	5	4	0.10145213	1.0189735	0.63752544	62.094894
303	5	10	-0.67680639	1.8710627	1.6791938	61.70333
304	5	11	0.39102712	2.6124775	1.7028147	62.361914
305	5	6	0.089459063	0.82804257	0.69029124	63.190997
306	5	6	0.089459063	0.047540364	0.76332536	61.570085
307	5	7	0.1077291	1.8282882	-0.73400994	60.62661
308	5	7	0.1077291	2.6015697	-0.8452126	62.247367
309	5	6	0.095255726	1.1389372	-2.8344829	61.702806
310	5	6	0.095255726	-0.279133	-1.7446963	61.565867
311	6	1	0.54637462	-2.3109395	17.641907	0.29012611
312	6	2	-0.66444498	-3.0584551	18.653192	0.36814535
313	6	3	-0.51808953	-2.475353	16.538556	1.1846336
314	6	4	0.031977319	-3.5039898	16.543096	2.2265063
315	6	4	-0.14452092	-3.509461	15.231121	3.0209767
316	6	4	-0.14321312	-4.0351072	14.055012	2.1817754
317	6	4	0.026189699	-4.0794996	12.752023	2.9904724
318	6	3	-0.46121809	-2.7380084	12.332631	3.3956938
319	6	1	0.79022771	-1.7942512	11.764282	2.4828342
320	6	2	-0.59113258	-2.0916163	11.585937	1.2715633
321	6	5	0.33024359	-2.4735365	12.398883	4.4038215
322	6	6	0.06391132	-4.5538048	11.950353	2.3843393
323	6	6	0.06391132	-4.7091641	12.901466	3.8945402
324	6	7	0.093823903	-3.4026803	13.912466	1.2808387
325	6	7	0.093823903	-5.0665645	14.286669	1.8367077
326	6	7	0.093823903	-2.480571	15.01737	3.3841222
327	6	7	0.093823903	-4.1639447	15.361694	3.90962
328	6	6	0.060270329	-4.5024535	16.709838	1.7675986
329	6	6	0.060270329	-3.3018681	17.383087	2.9264034
330	6	5	0.32366437	-1.8228057	15.72867	1.0853208
331	7	8	-0.49417394	-0.85357643	11.488301	2.8226228
332	7	4	0.12748157	-0.29654869	12.62389	3.4282832
333	7	4	-0.13131723	0.16000458	13.637345	2.3747215
334	7	4	0.04592662	1.2780715	13.075805	1.4894981
335	7	8	-0.15775271	1.7106852	14.050465	0.57988013
336	7	6	0.095379212	0.92561031	12.171411	0.94433084
337	7	6	0.095379212	2.1403816	12.78146	2.1244338
338	7	7	0.10369516	0.53091547	14.548371	2.8918777
339	7	7	0.10369516	-0.70681157	13.929635	1.7419006
340	7	6	0.092740313	-1.0401564	13.099913	4.1057152
341	7	6	0.092740313	0.56949427	12.312147	4.0490633
342	4	1	0.54637468	-1.5360627	17.609656	-0.46395338
343	4	2	-0.66444504	-1.3929467	16.57065	-1.1616489
344	4	3	-0.51808959	-0.68731887	18.744313	-0.6571927
345	4	4	0.032267631	0.37261638	18.746331	-1.6638318
346	4	4	-0.13940105	1.1265761	20.080252	-1.6601574
347	4	4	-0.12140964	2.2400729	20.088442	-2.7135945
348	4	4	0.18628442	2.9961546	21.422909	-2.706287
349	4	3	-0.61575651	4.0155867	21.451744	-3.7499976
350	4	9	0.59495211	5.0518902	20.713269	-3.7013051
351	4	2	-0.43635607	6.0579738	19.994807	-3.6531062
352	4	6	0.037650582	2.2794036	22.250225	-2.8966069
353	4	6	0.037650582	3.4681468	21.595977	-1.713471
354	4	7	0.087683582	1.797473	19.927099	-3.72176
355	4	7	0.087683582	2.9516355	19.260299	-2.5025045
356	4	7	0.092808166	1.5698362	20.245722	-0.65272194
357	4	7	0.092808166	0.40987536	20.904328	-1.8714891
358	4	6	0.060270329	1.0827317	17.918941	-1.4470551
359	4	6	0.060270329	-0.076667744	18.578157	-2.6673428
360	4	5	0.3236644	-0.84558126	19.583297	-0.053281275
361	5	8	-0.15698512	1.018357	14.104013	-0.12973473
362	5	4	0.054357288	1.6605511	13.806731	-1.3404056
363	5	4	-0.16635413	2.5195372	14.98585	-1.8086126
364	5	4	0.10145213	1.6718365	16.225548	-2.1079628
365	5	10	-0.67680639	2.4832205	17.261793	-2.5899427
366	5	11	0.39102712	2.9614395	17.636591	-1.8058381
367	5	6	0.089459063	1.1288642	16.557713	-1.1938897
368	5	6	0.089459063	0.91737551	15.980312	-2.8861529
369	5	7	0.1077291	3.0638744	14.687371	-2.7310186
370	5	7	0.1077291	3.2728951	15.227641	-1.0276093
371	5	6	0.095255726	2.2998361	12.902116	-1.2228734
372	5	6	0.095255726	0.8919708	13.573806	-2.1083445
373	6	1	0.54637462	-2.3159206	16.921522	17.439864
374	6	2	-0.66444498	-3.248473	17.666235	17.843985
375	6	3	-0.51808953	-1.6904007	15.986377	18.322353
376	6	4	0.031977319	-2.0974148	15.864223	19.723436
377	6	4	-0.14452092	-1.3120477	14.762654	20.446094
378	6	4	-0.14321312	-1.7168094	13.35987	19.964266
379	6	4	0.026189699	-0.96078046	12.257713	20.717533
380	6	3	-0.46121809	0.47682897	12.326137	20.45621
381	6	1	0.79022771	1.060168	11.91474	19.216258
382	6	2	-0.59113258	0.34602915	11.454837	18.285718
383	6	5	0.33024359	1.1132176	12.636591	21.223858
384	6	6	0.06391132	-1.3483022	11.261656	20.413009
385	6	6	0.06391132	-1.1438901	12.36591	21.808823
386	6	7	0.093823903	-1.5323713	13.259502	18.874367
387	6	7	0.093823903	-2.8059547	13.216172	20.136761
388	6	7	0.093823903	-0.22325563	14.925496	20.290552
389	6	7	0.093823903	-1.5161755	14.843194	21.535557
390	6	6	0.060270329	-3.1865085	15.649923	19.780703
391	6	6	0.060270329	-1.9092402	16.832135	20.237275
392	6	5	0.32366437	-0.91460028	15.399601	17.941007
393	7	8	-0.49417394	2.0862904	11.989153	19.081996
394	7	4	0.12748157	2.4294655	13.323583	19.343137
395	7	4	-0.13131723	2.0090458	14.233191	18.184954
396	7	4	0.04592662	2.7475346	13.884128	16.888108
397	7	8	-0.15775271	2.3828499	14.774523	15.868931
398	7	6	0.095379212	2.5229918	12.837567	16.582073
399	7	6	0.095379212	3.8427723	13.968096	17.051707
400	7	7	0.10369516	2.2345611	15.286682	18.457522
401	7	7	0.10369516	0.9116639	14.146321	18.025353
402	7	6	0.092740313	1.9420985	13.6672	20.282746
403	7	6	0.092740313	3.5275616	13.389891	19.492703
404	4	1	0.54637468	-1.9861714	16.991618	16.412021
405	4	2	-0.66444504	-1.8178724	15.93838	15.741826
406	4	3	-0.51808959	-1.746496	18.275953	15.830477
407	4	4	0.032267631	-1.3002747	18.419433	14.445887
408	4	4	-0.13940105	-1.1216343	19.896624	14.080089
409	4	4	-0.12140964	-0.65315247	20.053753	12.629052
410	4	4	0.18628442	-0.47134729	21.532696	12.265472
411	4	3	-0.61575651	-0.084123314	21.683229	10.866614
412	4	9	0.59495211	1.0520135	21.301491	10.43637
413	4	2	-0.43635607	2.1559376	20.92961	10.019511
414	4	6	0.037650582	-1.4325102	22.068045	12.420303
415	4	6	0.037650582	0.29534319	22.002072	12.921433
416	4	7	0.087683582	-1.4059628	19.601457	11.945657
417	4	7	0.087683582	0.31298871	19.519611	12.495024
418	4	7	0.092808166	-0.36998897	20.352874	14.762476
419	4	7	0.092808166	-2.0907895	20.425389	14.216352
420	4	6	0.060270329	-0.33312477	17.886534	14.317554
421	4	6	0.060270329	-2.0543246	17.959532	13.769815
422	4	5	0.3236644	-1.9004066	19.120721	16.427408
423	5	8	-0.15698512	1.4785957	14.501396	15.563211
424	5	4	0.054357288	1.5890042	14.205996	14.196806
425	5	4	-0.16635413	1.702648	15.488705	13.366661
426	5	4	0.10145213	0.44507425	16.355061	13.480643
427	5	10	-0.67680639	0.56143307	17.487038	12.662388
428	5	11	0.39102712	1.1742402	18.112749	13.128156
429	5	6	0.089459063	0.27672526	16.662334	14.537962
430	5	6	0.089459063	-0.43957057	15.771	13.147164
431	5	7	0.1077291	1.8570981	15.212114	12.300889
432	5	7	0.1077291	2.5887626	16.069676	13.703187
433	5	6	0.095255726	2.4800893	13.56285	14.014716
434	5	6	0.095255726	0.69286134	13.631096	13.878815
435	6	1	0.54637462	-2.7397373	15.930406	32.674111
436	6	2	-0.66444498	-3.9668759	16.210448	32.616908
437	6	3	-0.51808953	-2.1430114	15.499305	33.899928
438	6	4	0.031977319	-2.9249738	15.376754	35.131646
439	6	4	-0.14452092	-2.0714147	14.852433	36.293117
440	6	4	-0.14321312	-1.6981013	13.372555	36.107665
441	6	4	0.026189699	-0.87986777	12.838058	37.290268
442	6	3	-0.46121809	0.40840391	13.522619	37.397152
443	6	1	0.79022771	1.4950337	13.275037	36.499962
444	6	2	-0.59113258	1.388384	12.430268	35.571306
445	6	5	0.33024359	0.5637906	14.180315	38.19336
446	6	6	0.06391132	-0.71307805	11.746152	37.167954
447	6	6	0.06391132	-1.4548432	12.982941	38.230779
448	6	7	0.093823903	-1.1255548	13.235348	35.166743
449	6	7	0.093823903	-2.6291662	12.769854	36.026973
450	6	7	0.093823903	-1.1540314	15.473913	36.384493
451	6	7	0.093823903	-2.6527868	14.963125	37.233776
452	6	6	0.060270329	-3.7884706	14.697797	34.962177
453	6	6	0.060270329	-3.3227499	16.3784	35.405097
454	6	5	0.32366437	-1.1194616	15.289701	33.896931
455	7	8	-0.49417394	2.3864749	13.79257	36.618211
456	7	4	0.12748157	2.0636894	15.15718	36.60037
457	7	4	-0.13131723	1.7468714	15.625757	35.177139
458	7	4	0.04592662	2.960804	15.496985	34.250421
459	7	8	-0.15775271	2.6511029	15.99102	32.975848
460	7	6	0.095379212	3.2868746	14.434766	34.181617
461	7	6	0.095379212	3.8046576	16.090812	34.661081
462	7	7	0.10369516	1.4304437	16.690447	35.213233
463	7	7	0.10369516	0.90095331	15.028882	34.770409
464	7	6	0.092740313	1.1890978	15.352195	37.260312
465	7	6	0.092740313	2.921769	15.735033	37.003317
466	4	1	0.54637468	-2.1318493	16.01733	31.783591
467	4	2	-0.66444504	-1.3427971	15.084106	31.478164
468	4	3	-0.51808959	-2.2324999	17.187777	30.968067
469	4	4	0.032267631	-1.4312073	17.34903	29.756161
470	4	4	-0.13940105	-1.734173	18.687911	29.07541
471	4	4	-0.12140964	-0.89636673	18.86325	27.803793
472	4	4	0.18628442	-1.1980895	20.20539	27.125458
473	4	3	-0.61575651	-0.44492754	20.344193	25.883328
474	4	9	0.59495211	0.82185824	20.473798	25.873473
475	4	2	-0.43635607	2.052698	20.599022	25.865255
476	4	6	0.037650582	-2.2812408	20.257443	26.883632
477	4	6	0.037650582	-0.95569062	21.049004	27.809541
478	4	7	0.087683582	-1.1241981	18.037678	27.093267
479	4	7	0.087683582	0.18337759	18.817069	28.065939
480	4	7	0.092808166	-1.5085425	19.516313	29.783667
481	4	7	0.092808166	-2.8151401	18.728249	28.815978
482	4	6	0.060270329	-0.35305689	17.3051	30.023541
483	4	6	0.060270329	-1.6596276	16.517083	29.05412
484	4	5	0.3236644	-2.901981	17.934892	31.26347
485	5	8	-0.15698512	2.0934552	15.300305	32.531234
486	5	4	0.054357288	2.7750311	14.923692	31.364988
487	5	4	-0.16635413	2.6533567	16.004866	30.286259
488	5	4	0.10145213	1.2014348	16.208397	29.844042
489	5	10	-0.67680639	1.1372942	17.159408	28.816465
490	5	11	0.39102712	1.2526259	18.047385	29.243293
491	5	6	0.089459063	0.57240685	16.531335	30.704691
492	5	6	0.089459063	0.79243891	15.249197	29.459869
493	5	7	0.1077291	3.2613806	15.701596	29.406168
494	5	7	0.1077291	3.06377	16.962385	30.674452
495	5	6	0.095255726	3.8502889	14.741322	31.591677
496	5	6	0.095255726	2.3472903	13.969207	30.989892
497	6	1	0.54637462	-2.1586269	16.208981	46.629833
498	6	2	-0.66444498	-3.1040073	16.677902	45.941403
499	6	3	-0.51808953	-2.3188222	14.990532	47.360775
500	6	4	0.031977319	-3.5813236	14.249224	47.347891
501	6	4	-0.14452092	-3.4857361	12.956047	48.167066
502	6	4	-0.14321312	-2.5946087	11.907586	47.481197
503	6	4	0.026189699	-2.5336641	10.599691	48.280846
504	6	3	-0.46121809	-1.9071135	10.804434	49.586682
505	6	1	0.79022771	-0.49912314	10.999714	49.749286
506	6	2	-0.59113258	0.27509647	10.989287	48.755361
507	6	5	0.33024359	-2.5019062	10.752218	50.443508
508	6	6	0.06391132	-1.963106	9.8365852	47.708858
509	6	6	0.06391132	-3.564062	10.206812	48.422532
510	6	7	0.093823903	-1.5683606	12.306878	47.342091
511	6	7	0.093823903	-3.0081018	11.681611	46.473924
512	6	7	0.093823903	-3.0950072	13.191597	49.180982
513	6	7	0.093823903	-4.5090267	12.538832	48.284935
514	6	6	0.060270329	-3.8663885	14.011403	46.300271
515	6	6	0.060270329	-4.3780232	14.890118	47.78472
516	6	5	0.32366437	-1.5080122	14.649873	47.92481
517	7	8	-0.49417394	-0.10738018	11.145454	50.698911
518	7	4	0.12748157	-0.79989433	12.229914	51.25662
519	7	4	-0.13131723	-0.3322536	13.552214	50.641511
520	7	4	0.04592662	1.1441436	13.831557	50.94357
521	7	8	-0.15775271	1.5185671	15.07577	50.417966
522	7	6	0.095379212	1.7868587	13.026988	50.520543
523	7	6	0.095379212	1.2991542	13.854425	52.043029
524	7	7	0.10369516	-0.94917668	14.377916	51.056981
525	7	7	0.10369516	-0.49006578	13.524927	49.540776
526	7	6	0.092740313	-1.8942141	12.109606	51.093969
527	7	6	0.092740313	-0.62448623	12.243281	52.352811
528	4	1	0.54637468	-1.2146567	16.735928	46.666677
529	4	2	-0.66444504	-0.1406992	16.095045	46.516082
530	4	3	-0.51808959	-1.1997536	18.149099	46.885492
531	4	4	0.032267631	0.05136864	18.902884	46.94286
532	4	4	-0.13940105	-0.21865571	20.391384	47.186311
533	4	4	-0.12140964	1.0898552	21.187412	47.248039
534	4	4	0.18628442	0.81814527	22.676551	47.49533
535	4	3	-0.61575651	2.0605817	23.441896	47.493327