Title

123 atoms
132 bonds
229 angles
373 dihedrals
156 impropers

9 atom types
13 bond types
9 angle types
19 dihedral types
3 improper types
-10.4630003 89.5369997 xlo xhi
-4.416999817 95.58300018 ylo yhi
-20.29899979 79.70100021 zlo zhi
0.0 0.0 0.0 xy xz yz

Masses

1	14.00672
2	12.01078
3	1.007947
4	1.007947
5	15.99943
6	12.01078
7	1.007947
8	15.99943
9	1.007947


Pair Coeffs

1	0.16769152	3.206876
2	0.086879315	3.4806469
3	0.015611343	2.5725815
4	0.014090815	1.1034277
5	0.2102061	3.0398122
6	0.10884061	3.3795318
7	0.015779483	2.6445434
8	0.20947353	2.99716
9	1.2326e-05	0.53453923

Bond Coeffs

1 harmonic	390.03554688505	1.390160554689
2 harmonic	505.144496193	1.019481865027
3 harmonic	422.7150220147	1.421786517481
4 harmonic	360.7852444772	1.387193227181
5 harmonic	397.2545789619	1.085358495916
6 harmonic	492.76746816345	1.381897776683
7 harmonic	582.698766451	1.225198386222
8 harmonic	279.1350963404	1.454628925034
9 harmonic	289.73813263395	1.498646816465
10 harmonic	264.62148576755	1.52190126495
11 harmonic	370.04670688625	1.093899492634
12 harmonic	385.7604595587	1.369745182308
13 harmonic	543.5267831885	0.9716763312559


Angle Coeffs

1 harmonic	57.8982893754	126.8062420451
2 harmonic	55.42182150775	117.3465570514
3 harmonic	63.44422595415	115.5071327674
4 harmonic	34.066775159195	129.1835929926
5 harmonic	53.20531626545	116.5475862634
6 harmonic	14.32262199324	138.3184368373
7 harmonic	48.776492647595	115.6030999533
8 harmonic	65.09061609600001	110.3538806181
9 harmonic	201.41175231035	127.4691416191


Dihedral Coeffs

1 fourier 1	3.661930099076	2	180
2 fourier 1	1.193093382682	2	180
3 fourier 1	0.02021088501612	1	0
4 fourier 1	3.101948770557	2	180
5 fourier 1	-0.4252153282372	1	0
6 fourier 1	1.809047390003	2	180
7 fourier 1	-0.04816277792592	1	0
8 fourier 1	0.9974165607242	2	180
9 fourier 1	2.348375642009	2	180
10 fourier 1	1.256156174911	1	0
11 fourier 1	0.02664938770063	3	0
12 fourier 1	0.1155372516788	3	0
13 fourier 1	0.09223874044423	3	0
14 fourier 1	0.3159935921949	2	180
15 fourier 1	0.3247796806857	1	180
16 fourier 1	0.1040663847541	3	0
17 fourier 1	2.687457892086	2	180
18 fourier 1	2.772607909663	2	180
19 fourier 1	0.09692684957115	1	0


Improper Coeffs

1 0.3666666666666667	-1	2
2 0.3333333333333333	-1	2
3 3.5	-1	2


Atoms

1	1	1	-0.39358401	-2.5339999	-0.96200001	1.688
2	1	2	0.074134	-1.733	-0.115	0.84799999
3	1	2	-0.42633101	-2.286	1.001	0.34799999
4	1	3	0.225337	-3.3080001	1.258	0.59799999
5	1	2	-0.127294	-1.554	1.9	-0.56199998
6	1	3	0.22693101	-2.0469999	2.7969999	-0.91600001
7	1	2	-0.241901	-0.308	1.636	-0.96100003
8	1	3	0.213778	0.168	2.355	-1.61
9	1	2	-0.18087199	0.40099999	0.42300001	-0.48300001
10	1	2	0.173923	1.669	0.113	-0.86000001
11	1	1	-0.50302202	2.395	0.87400001	-1.836
12	1	4	0.31878299	3.4070001	0.67299998	-2.0020001
13	1	2	-0.42066899	2.3429999	-1.0549999	-0.25
14	1	3	0.22178601	3.359	-1.301	-0.53299999
15	1	2	-0.13608401	1.715	-1.809	0.653
16	1	3	0.22693101	2.221	-2.6570001	1.097
17	1	2	-0.225458	0.33000001	-1.5	1.045
18	1	3	0.213778	-0.125	-2.1359999	1.7869999
19	1	2	-0.194383	-0.31900001	-0.454	0.49599999
20	1	4	0.377087	-2.2490001	-1.929	1.948
21	1	2	0.77014899	1.932	1.561	-2.5009999
22	1	5	-0.64979601	1.609	2.7	-2.072
23	1	2	-0.36855501	1.676	1.1799999	-3.901
24	1	2	-0.074956	2.0239999	-0.037999999	-4.3429999
25	1	3	0.22768401	2.494	-0.75400001	-3.678
26	1	2	-0.24555001	1.771	-0.43099999	-5.744
27	1	3	0.218284	2.0539999	-1.432	-6.033
28	1	2	-0.205807	1.211	0.435	-6.6170001
29	1	6	0.026323	0.89200002	0.061000001	-8.0749998
30	1	6	-0.130602	1.649	-1.189	-8.585
31	1	7	0.090108	1.298	-2.1059999	-8.066
32	1	7	0.090108	1.472	-1.3380001	-9.6719999
33	1	7	0.090108	2.743	-1.0779999	-8.4250002
34	1	2	-0.120792	1.215	1.202	-8.9890003
35	1	2	-0.147588	2.402	1.808	-9.1379995
36	1	3	0.217842	3.26	1.501	-8.5550003
37	1	2	0.0042570001	2.5220001	2.914	-10.118
38	1	3	0.218052	3.48	3.4070001	-10.232
39	1	2	-0.34323099	1.457	3.293	-10.855
40	1	2	0.587834	1.5880001	4.3899999	-11.829
41	1	5	-0.50302398	0.60299999	4.757	-12.524
42	1	2	0.075795002	0.155	2.5910001	-10.674
43	1	3	0.212093	-0.708	2.8710001	-11.264
44	1	2	-0.17784999	0.067000002	1.603	-9.7700005
45	1	6	-0.026053	-1.1289999	0.76499999	-9.4499998
46	1	6	-0.130173	-1.511	-0.097999997	-10.667
47	1	7	0.094288997	-1.812	0.542	-11.524
48	1	7	0.094288997	-0.65399998	-0.72899997	-10.984
49	1	7	0.094288997	-2.3640001	-0.764	-10.414
50	1	6	-0.130173	-2.319	1.649	-9.0279999
51	1	7	0.094288997	-2.6630001	2.2820001	-9.8739996
52	1	7	0.094288997	-2.0309999	2.316	-8.1859999
53	1	7	0.094288997	-3.1700001	1.015	-8.6999998
54	1	6	-0.17999899	-0.64899999	-0.131	-8.2620001
55	1	7	0.132726	-0.91000003	-1.2	-8.4309998
56	1	7	0.132726	-1.189	0.148	-7.329
57	1	2	-0.24555001	0.80299997	1.777	-6.1079998
58	1	3	0.218284	0.31200001	2.4820001	-6.7659998
59	1	2	-0.074956	1.026	2.1270001	-4.836
60	1	3	0.22768401	0.72000003	3.109	-4.4959998
61	1	1	-0.39358401	-3.4860001	-0.65799999	1.995
62	1	2	0.074134	-4.6259999	-1.505	1.7819999
63	1	2	-0.42633101	-4.4699998	-2.6210001	1.053
64	1	3	0.225337	-3.4949999	-2.878	0.65799999
65	1	2	-0.127294	-5.5960002	-3.5209999	0.74299997
66	1	3	0.22693101	-5.4039998	-4.4169998	0.167
67	1	2	-0.194326	-6.8400002	-3.257	1.148
68	1	3	0.213778	-7.6059999	-3.9749999	0.89899999
69	1	2	-0.220147	-7.1360002	-2.043	1.95
70	1	2	0.216406	-8.3850002	-1.733	2.385
71	1	1	-0.81321597	-9.5450001	-2.494	2.0179999
72	1	4	0.37190199	-9.5579996	-3.168	1.224
73	1	4	0.37190199	-10.463	-2.2939999	2.4749999
74	1	2	-0.45179	-8.5749998	-0.565	3.2750001
75	1	3	0.23219401	-9.5649996	-0.31900001	3.6389999
76	1	2	-0.085768998	-7.5380001	0.189	3.6400001
77	1	3	0.22693101	-7.6890001	1.0369999	4.296
78	1	2	-0.225458	-6.1849999	-0.12	3.148
79	1	3	0.213778	-5.382	0.51599997	3.484
80	1	2	-0.160368	-5.9790001	-1.166	2.323
81	1	4	0.377087	-3.5650001	0.30899999	2.372
82	1	2	0.59333301	2.536	4.8959999	-11.957
83	1	5	-0.51363403	3.253	5.1139998	-10.943
84	1	2	-0.33179101	2.9660001	5.3150001	-13.304
85	1	2	0.0095530003	4.1360002	5.9419999	-13.506
86	1	3	0.225679	4.8039999	6.158	-12.681
87	1	2	-0.23876099	4.54	6.349	-14.867
88	1	3	0.218284	5.4990001	6.835	-14.989
89	1	2	-0.205807	3.74	6.119	-15.932
90	1	6	0.026323	4.2010002	6.5310001	-17.341
91	1	6	-0.130602	3.0840001	6.4349999	-18.405001
92	1	7	0.090108	2.1949999	7.026	-18.096001
93	1	7	0.090108	2.78	5.3790002	-18.565001
94	1	7	0.090108	3.438	6.8309999	-19.382
95	1	2	-0.120792	4.723	7.9349999	-17.34
96	1	2	-0.167007	4.0710001	9.0410004	-16.952
97	1	3	0.217842	3.0580001	8.9849997	-16.575001
98	1	2	-0.057064999	4.7600002	10.349	-17.046
99	1	3	0.234378	4.2290001	11.236	-16.725
100	1	2	-0.22510301	6.0229998	10.426	-17.525999
101	1	2	0.83713901	6.723	11.725	-17.629
102	1	5	-0.471228	6.1550002	12.792	-17.27
103	1	8	-0.66250002	8.0229998	11.778	-18.125999
104	1	9	0.42080599	8.5150003	12.66	-18.202
105	1	2	0.0098449998	6.7140002	9.1780005	-17.958
106	1	3	0.227274	7.7189999	9.2150002	-18.357
107	1	2	-0.17212801	6.073	8.0039997	-17.85
108	1	6	-0.026053	6.579	6.652	-18.24
109	1	6	-0.130173	7.8959999	6.3280001	-17.509001
110	1	7	0.094288997	8.7080002	7.0139999	-17.832001
111	1	7	0.094288997	7.7670002	6.4299998	-16.409
112	1	7	0.094288997	8.2119999	5.2859998	-17.731001
113	1	6	-0.130173	6.7849998	6.585	-19.764999
114	1	7	0.094288997	5.842	6.8309999	-20.299
115	1	7	0.094288997	7.5679998	7.3039999	-20.087999
116	1	7	0.094288997	7.105	5.5640001	-20.066999
117	1	6	-0.17999899	5.4369998	5.6820002	-17.792
118	1	7	0.132726	5.1690001	4.9710002	-18.605
119	1	7	0.132726	5.7870002	5.0339999	-16.957001
120	1	2	-0.23876099	2.45	5.4050002	-15.696
121	1	3	0.218284	1.779	5.1729999	-16.51
122	1	2	0.0095530003	2.089	5.0339999	-14.461
123	1	3	0.225679	1.147	4.52	-14.314

Bonds

1	1	1	2
2	2	1	20
3	3	1	61
4	4	2	3
5	4	2	19
6	5	3	4
7	4	3	5
8	5	5	6
9	4	5	7
10	5	7	8
11	4	7	9
12	4	9	10
13	4	9	19
14	1	10	11
15	4	10	13
16	2	11	12
17	6	11	21
18	5	13	14
19	4	13	15
20	5	15	16
21	4	15	17
22	5	17	18
23	4	17	19
24	7	21	22
25	8	21	23
26	4	23	24
27	4	23	59
28	5	24	25
29	4	24	26
30	5	26	27
31	4	26	28
32	9	28	29
33	4	28	57
34	10	29	30
35	9	29	34
36	10	29	54
37	11	30	31
38	11	30	32
39	11	30	33
40	4	34	35
41	4	34	44
42	5	35	36
43	4	35	37
44	5	37	38
45	4	37	39
46	8	39	40
47	4	39	42
48	7	40	41
49	8	40	82
50	5	42	43
51	4	42	44
52	9	44	45
53	10	45	46
54	10	45	50
55	10	45	54
56	11	46	47
57	11	46	48
58	11	46	49
59	11	50	51
60	11	50	52
61	11	50	53
62	11	54	55
63	11	54	56
64	5	57	58
65	4	57	59
66	5	59	60
67	1	61	62
68	2	61	81
69	4	62	63
70	4	62	80
71	5	63	64
72	4	63	65
73	5	65	66
74	4	65	67
75	5	67	68
76	4	67	69
77	4	69	70
78	4	69	80
79	1	70	71
80	4	70	74
81	2	71	72
82	2	71	73
83	5	74	75
84	4	74	76
85	5	76	77
86	4	76	78
87	5	78	79
88	4	78	80
89	7	82	83
90	8	82	84
91	4	84	85
92	4	84	122
93	5	85	86
94	4	85	87
95	5	87	88
96	4	87	89
97	9	89	90
98	4	89	120
99	10	90	91
100	9	90	95
101	10	90	117
102	11	91	92
103	11	91	93
104	11	91	94
105	4	95	96
106	4	95	107
107	5	96	97
108	4	96	98
109	5	98	99
110	4	98	100
111	8	100	101
112	4	100	105
113	7	101	102
114	12	101	103
115	13	103	104
116	5	105	106
117	4	105	107
118	9	107	108
119	10	108	109
120	10	108	113
121	10	108	117
122	11	109	110
123	11	109	111
124	11	109	112
125	11	113	114
126	11	113	115
127	11	113	116
128	11	117	118
129	11	117	119
130	5	120	121
131	4	120	122
132	5	122	123

Angles

1	5	109	108	113
2	1	67	69	70
3	5	29	30	33
4	1	39	40	41
5	4	14	13	15
6	1	10	9	19
7	7	31	30	33
8	4	57	59	60
9	5	108	117	119
10	1	65	67	69
11	4	76	78	79
12	1	87	89	120
13	5	45	54	56
14	1	34	35	37
15	7	92	91	94
16	5	45	50	51
17	4	38	37	39
18	7	51	50	53
19	1	61	62	80
20	5	46	45	54
21	5	28	29	34
22	1	26	28	57
23	4	74	76	77
24	4	64	63	65
25	1	37	39	40
26	5	30	29	54
27	4	68	67	69
28	1	82	84	122
29	5	90	117	119
30	4	63	65	66
31	1	35	34	44
32	5	89	90	117
33	5	46	45	50
34	2	1	61	62
35	3	10	11	12
36	5	28	29	30
37	1	34	44	42
38	1	76	78	80
39	4	89	120	121
40	5	90	91	94
41	1	9	10	13
42	5	29	54	55
43	1	100	105	107
44	4	39	42	43
45	1	100	101	102
46	4	85	87	88
47	4	75	74	76
48	5	108	113	115
49	1	2	3	5
50	3	12	11	21
51	1	63	65	67
52	5	108	109	112
53	7	47	46	48
54	5	34	29	54
55	1	40	82	84
56	1	63	62	80
57	4	23	24	25
58	6	42	44	45
59	4	5	7	8
60	3	2	1	20
61	5	113	108	117
62	6	90	95	96
63	7	52	50	53
64	4	77	76	78
65	4	120	122	123
66	1	11	21	22
67	5	107	108	109
68	5	29	54	56
69	4	36	35	37
70	5	91	90	117
71	1	29	34	44
72	5	108	113	116
73	4	97	96	98
74	4	95	96	97
75	1	39	40	82
76	4	96	98	99
77	4	23	59	60
78	4	43	42	44
79	1	5	7	9
80	7	32	30	33
81	4	70	74	75
82	1	11	21	23
83	2	10	11	21
84	5	90	117	108
85	1	21	23	24
86	1	2	19	17
87	1	69	70	74
88	5	44	45	46
89	4	84	85	86
90	5	90	91	92
91	5	45	50	52
92	5	107	108	117
93	1	62	80	69
94	1	96	98	100
95	4	4	3	5
96	5	45	46	47
97	1	87	89	90
98	1	74	76	78
99	1	21	23	59
100	1	70	74	76
101	7	110	109	111
102	5	107	108	113
103	5	28	29	54
104	4	18	17	19
105	5	108	109	110
106	7	114	113	115
107	4	13	15	16
108	1	22	21	23
109	4	25	24	26
110	1	84	85	87
111	1	89	120	122
112	5	45	50	53
113	4	88	87	89
114	5	45	46	48
115	1	70	69	80
116	5	29	30	31
117	4	6	5	7
118	1	39	42	44
119	1	95	107	108
120	1	100	101	103
121	5	29	54	45
122	1	9	19	17
123	1	37	39	42
124	5	44	45	54
125	9	102	101	103
126	1	82	84	85
127	3	72	71	73
128	7	118	117	119
129	5	91	90	95
130	4	10	13	14
131	3	70	71	72
132	7	114	113	116
133	7	47	46	49
134	4	24	26	27
135	4	35	37	38
136	1	24	23	59
137	1	23	24	26
138	1	41	40	82
139	4	28	57	58
140	6	29	34	35
141	1	67	69	80
142	1	7	9	10
143	5	44	45	50
144	1	69	80	78
145	7	115	113	116
146	5	29	30	32
147	1	71	70	74
148	7	31	30	32
149	1	1	2	3
150	4	79	78	80
151	1	85	84	122
152	1	98	100	105
153	5	108	117	118
154	5	45	54	55
155	1	62	80	78
156	4	86	85	87
157	4	84	122	123
158	7	92	91	93
159	1	95	96	98
160	5	89	90	95
161	1	1	2	19
162	1	2	19	9
163	5	30	29	34
164	1	9	10	11
165	7	51	50	52
166	6	105	107	108
167	1	35	37	39
168	1	28	57	59
169	1	95	107	105
170	1	34	44	45
171	7	55	54	56
172	4	106	105	107
173	1	85	87	89
174	2	2	1	61
175	1	98	100	101
176	8	101	103	104
177	3	1	61	81
178	5	90	117	118
179	5	89	90	91
180	7	111	109	112
181	4	8	7	9
182	4	62	63	64
183	4	3	5	6
184	1	23	59	57
185	1	96	95	107
186	5	90	91	93
187	4	121	120	122
188	1	26	28	29
189	4	16	15	17
190	4	100	105	106
191	1	83	82	84
192	1	7	9	19
193	4	66	65	67
194	5	108	113	114
195	4	15	17	18
196	4	2	3	4
197	1	90	89	120
198	1	69	70	71
199	7	110	109	112
200	1	3	2	19
201	1	84	122	120
202	1	62	63	65
203	5	108	109	111
204	1	3	5	7
205	1	13	15	17
206	1	40	82	83
207	1	11	10	13
208	7	48	46	49
209	1	101	100	105
210	1	29	28	57
211	5	45	46	49
212	3	62	61	81
213	4	27	26	28
214	5	50	45	54
215	3	20	1	61
216	1	15	17	19
217	4	58	57	59
218	1	61	62	63
219	4	65	67	68
220	5	109	108	117
221	4	34	35	36
222	7	93	91	94
223	1	10	13	15
224	3	70	71	73
225	1	40	39	42
226	5	95	90	117
227	1	24	26	28
228	1	90	95	107
229	4	99	98	100

Dihedrals

1	1	34	44	42	43
2	11	34	44	45	50
3	11	30	29	28	57
4	1	35	34	44	45
5	1	121	120	122	123
6	16	109	108	113	116
7	12	95	90	117	108
8	12	34	29	54	45
9	1	61	62	80	69
10	12	107	108	113	116
11	1	34	35	37	39
12	1	27	26	28	29
13	16	46	45	50	51
14	1	62	63	65	66
15	1	25	24	26	27
16	3	20	1	61	62
17	12	44	45	50	51
18	11	107	95	90	117
19	1	65	67	69	70
20	1	85	87	89	90
21	1	10	9	19	17
22	1	7	9	10	11
23	8	40	82	84	122
24	1	4	3	5	7
25	16	48	46	45	50
26	1	13	15	17	18
27	8	41	40	82	84
28	1	2	19	17	18
29	1	66	65	67	69
30	8	83	82	84	122
31	1	106	105	107	108
32	1	58	57	59	60
33	1	67	69	70	71
34	1	36	35	37	38
35	16	110	109	108	113
36	1	24	23	59	57
37	1	96	95	107	105
38	1	77	76	78	79
39	1	21	23	59	57
40	12	31	30	29	34
41	1	23	24	26	28
42	16	49	46	45	50
43	11	34	29	28	57
44	1	69	70	74	75
45	1	97	96	98	99
46	1	35	34	44	42
47	1	13	10	9	19
48	1	86	85	84	122
49	1	84	122	120	89
50	11	30	29	34	44
51	16	110	109	108	117
52	12	89	90	91	93
53	11	95	107	108	109
54	1	21	23	24	26
55	8	11	21	23	24
56	16	91	90	117	118
57	1	36	35	34	44
58	1	88	87	89	90
59	12	94	91	90	95
60	1	9	19	17	18
61	11	35	34	29	54
62	1	29	28	57	59
63	16	49	46	45	54
64	2	69	70	71	72
65	12	89	90	117	119
66	11	87	89	90	95
67	16	115	113	108	117
68	11	91	90	89	120
69	18	102	101	103	104
69	19	102	101	103	104
70	12	95	90	117	118
71	1	101	100	105	107
72	8	22	21	23	59
73	12	34	29	54	55
74	16	109	108	113	115
75	12	28	29	54	56
76	12	107	108	113	115
77	16	46	45	54	55
78	12	90	117	108	107
79	3	20	1	61	81
80	1	87	89	120	122
81	12	44	45	54	55
82	1	85	87	89	120
83	12	28	29	30	31
84	16	93	91	90	117
85	1	65	67	69	80
86	16	113	108	117	119
87	1	85	84	122	123
88	11	105	107	108	117
89	1	4	3	5	6
90	11	91	90	95	96
91	16	53	50	45	54
92	11	42	44	45	50
93	1	66	65	67	68
94	1	75	74	76	77
95	2	1	61	62	80
96	8	40	82	84	85
97	2	12	11	10	13
98	3	2	1	61	62
99	1	29	34	35	37
100	8	37	39	40	82
101	11	95	90	89	120
102	1	9	19	17	15
103	1	23	24	26	27
104	1	99	98	100	105
105	12	44	45	46	49
106	1	68	67	69	70
107	1	90	95	96	97
108	1	37	35	34	44
109	8	103	101	100	105
110	1	67	69	80	78
111	1	38	37	39	42
112	11	44	34	29	54
113	1	62	80	69	67
114	1	67	69	70	74
115	13	90	117	108	113
115	14	90	117	108	113
115	15	90	117	108	113
116	1	63	65	67	69
117	1	88	87	89	120
118	1	24	23	59	60
119	1	74	70	69	80
120	1	86	85	87	88
121	1	21	23	59	60
122	1	85	84	122	120
123	1	1	2	19	17
124	1	74	76	78	79
125	1	16	15	17	19
126	12	29	54	45	44
127	1	90	89	120	122
128	1	61	62	80	78
129	12	107	108	117	119
130	2	72	71	70	74
131	11	28	29	34	35
132	12	32	30	29	34
133	16	113	108	117	118
134	1	10	13	15	17
135	1	43	42	44	45
136	1	9	10	13	15
137	1	26	28	57	59
138	1	84	85	87	89
139	1	90	95	107	105
140	17	100	101	103	104
141	4	10	11	21	22
141	5	10	11	21	22
142	8	41	40	39	42
143	16	32	30	29	54
144	3	2	1	61	81
145	16	46	45	50	53
146	1	70	69	80	78
147	12	44	45	50	53
148	1	98	100	105	107
149	16	111	109	108	117
150	8	22	21	23	24
151	1	82	84	85	87
152	2	9	10	11	12
153	1	7	9	10	13
154	1	5	3	2	19
155	1	68	67	69	80
156	11	105	107	108	109
157	1	2	19	9	7
158	1	82	84	122	120
159	8	37	39	40	41
160	11	87	89	90	91
161	13	29	54	45	50
161	14	29	54	45	50
161	15	29	54	45	50
162	1	87	85	84	122
163	11	89	90	95	107
164	6	12	11	21	23
164	7	12	11	21	23
165	16	52	50	45	54
166	1	26	24	23	59
167	2	1	61	62	63
168	1	63	65	67	68
169	12	107	108	109	110
170	1	64	63	65	67
171	1	8	7	9	10
172	11	30	29	34	35
173	16	31	30	29	54
174	1	6	5	7	9
175	1	7	9	19	17
176	1	64	63	62	80
177	1	37	39	42	43
178	1	29	34	44	45
179	11	105	107	108	113
180	1	2	3	5	7
181	1	14	13	15	17
182	12	89	90	117	108
183	1	16	15	17	18
184	1	28	57	59	60
185	1	90	89	120	121
186	1	84	85	87	88
187	11	42	44	45	46
188	1	23	59	57	28
189	1	62	80	69	70
190	1	4	3	2	19
191	1	8	7	9	19
192	12	92	91	90	95
193	12	28	29	54	45
194	1	34	35	37	38
195	1	24	26	28	57
196	16	94	91	90	117
197	1	89	120	122	123
198	1	71	70	74	76
199	1	26	28	57	58
200	8	39	40	82	84
201	1	63	62	80	69
202	1	99	98	100	101
203	1	71	70	69	80
204	1	3	2	19	9
205	1	95	96	98	100
206	8	41	40	82	83
207	1	2	19	9	10
208	2	3	2	1	61
209	2	73	71	70	74
210	1	11	10	9	19
211	1	25	24	23	59
212	13	90	117	108	109
212	14	90	117	108	109
212	15	90	117	108	109
213	16	46	45	50	52
214	1	25	24	26	28
215	1	61	62	63	65
216	12	28	29	30	33
217	12	44	45	50	52
218	1	82	84	85	86
219	11	96	95	90	117
220	1	29	34	44	42
221	16	114	113	108	117
222	1	90	95	107	108
223	1	3	5	7	9
224	2	63	62	61	81
225	1	98	96	95	107
226	1	97	96	95	107
227	11	95	107	108	117
228	16	30	29	54	56
229	1	36	35	37	39
230	12	89	90	91	92
231	1	64	63	65	66
232	1	21	23	24	25
233	1	5	7	9	10
234	1	35	37	39	40
235	1	29	28	57	58
236	1	82	84	122	123
237	12	89	90	117	118
238	1	2	3	5	6
239	1	96	98	100	101
240	1	84	122	120	121
241	1	97	96	98	100
242	8	98	100	101	103
243	11	26	28	29	34
244	16	109	108	117	119
245	1	101	100	105	106
246	16	109	108	113	114
247	12	28	29	54	55
248	12	107	108	113	114
249	1	87	89	120	121
250	16	91	90	117	119
251	2	3	2	1	20
252	1	70	74	76	78
253	16	111	109	108	113
254	1	23	59	57	58
255	1	24	26	28	29
256	12	33	30	29	34
257	2	69	70	71	73
258	1	71	70	74	75
259	8	39	40	82	83
260	1	96	98	100	105
261	1	62	80	78	79
262	1	95	96	98	99
263	13	29	54	45	46
263	14	29	54	45	46
263	15	29	54	45	46
264	8	42	39	40	82
265	12	95	90	117	119
266	11	28	29	34	44
267	12	34	29	54	56
268	1	95	107	105	100
269	16	50	45	54	56
270	16	46	45	54	56
271	2	19	2	1	61
272	16	51	50	45	54
273	16	33	30	29	54
274	12	44	45	54	56
275	1	61	62	63	64
276	12	28	29	30	32
277	1	29	34	35	36
278	2	9	10	11	21
279	16	112	109	108	113
280	11	117	90	89	120
281	1	69	80	78	79
282	12	44	45	46	48
283	11	34	44	45	54
284	1	3	5	7	8
285	1	75	74	76	78
286	11	89	90	95	96
287	16	30	29	54	55
288	1	1	2	3	5
289	1	11	10	13	15
290	16	112	109	108	117
291	2	13	10	11	21
292	16	48	46	45	54
293	1	90	95	96	98
294	1	62	80	78	76
295	8	98	100	101	102
296	16	109	108	117	118
297	1	95	107	105	106
298	12	107	108	117	118
299	12	107	108	109	112
300	1	40	39	42	44
301	1	70	74	76	77
302	12	93	91	90	95
303	1	10	13	15	16
304	1	39	42	44	45
305	11	87	89	90	117
306	16	116	113	108	117
307	1	63	62	80	78
308	1	9	10	13	14
309	2	19	2	1	20
310	1	69	80	78	76
311	1	74	76	78	80
312	11	54	29	28	57
313	1	27	26	28	57
314	1	2	19	17	15
315	16	92	91	90	117
316	2	80	62	61	81
317	11	95	107	108	113
318	16	50	45	54	55
319	1	62	63	65	67
320	1	86	85	87	89
321	1	100	105	107	108
322	1	98	100	105	106
323	1	1	2	19	9
324	11	91	90	95	107
325	12	44	45	46	47
326	1	13	15	17	19
327	8	102	101	100	105
328	6	10	11	21	23
328	7	10	11	21	23
329	8	11	21	23	59
330	1	38	37	39	40
331	11	26	28	29	30
332	9	12	11	21	22
332	10	12	11	21	22
333	1	1	2	3	4
334	13	30	29	54	45
334	14	30	29	54	45
334	15	30	29	54	45
335	1	6	5	7	8
336	1	11	10	13	14
337	8	83	82	84	85
338	1	77	76	78	80
339	16	47	46	45	50
340	1	69	70	74	76
341	1	14	13	15	16
342	1	34	44	42	39
343	11	34	44	45	46
344	11	42	44	45	54
345	1	3	2	19	17
346	12	89	90	91	94
347	1	65	63	62	80
348	12	107	108	109	111
349	1	5	7	9	19
350	1	35	37	39	42
351	1	40	39	42	43
352	13	91	90	117	108
352	14	91	90	117	108
352	15	91	90	117	108
353	1	96	95	107	108
354	1	37	39	42	44
355	16	47	46	45	54
356	11	26	28	29	54

Impropers

2	1	3	5	2	4
4	1	15	17	13	16
5	1	122	84	120	123
10	1	100	98	101	105
11	1	74	76	70	75
16	1	69	80	67	70
19	1	5	7	3	6
21	1	82	40	83	84
27	1	76	74	77	78
43	1	2	19	1	3
44	3	101	103	100	102
46	1	96	97	98	95
50	2	71	70	72	73
51	2	61	1	62	81
52	1	28	29	57	26
54	2	11	21	10	12
61	1	28	57	26	29
62	1	17	15	18	19
64	1	59	57	60	23
66	1	95	90	96	107
72	1	120	121	122	89
83	2	1	61	2	20
96	1	15	13	16	17
97	1	105	107	100	106
98	2	71	73	70	72
101	1	84	82	85	122
103	1	107	95	105	108
105	1	40	82	39	41
112	1	63	62	64	65
116	1	95	107	90	96
118	1	67	65	68	69
119	1	67	69	65	68
120	1	24	26	23	25
122	1	65	67	63	66
129	1	15	16	17	13
130	1	19	2	9	17
143	1	34	29	35	44
147	1	62	80	61	63
148	1	26	28	24	27
150	1	9	10	19	7
154	1	10	9	11	13
156	1	42	43	44	39
157	1	85	86	87	84
161	1	2	3	19	1
168	1	80	62	69	78
170	1	74	75	76	70
172	1	37	38	39	35
178	2	1	2	20	61
179	1	65	63	66	67
180	1	84	122	82	85
182	1	42	44	39	43
183	1	21	11	22	23
186	1	35	34	36	37
188	1	5	6	7	3
192	1	120	89	121	122
201	1	2	1	3	19
202	1	84	85	122	82
206	1	17	19	15	18
213	1	59	23	57	60
214	1	21	22	23	11
217	1	95	96	107	90
222	1	44	34	42	45
223	1	24	23	25	26
224	1	82	83	84	40
226	1	69	67	70	80
232	2	71	72	73	70
249	1	3	4	5	2
250	3	101	102	103	100
254	1	96	98	95	97
256	1	57	59	28	58
257	1	26	27	28	24
268	1	37	35	38	39
274	1	26	24	27	28
277	3	101	100	102	103
279	1	107	108	95	105
283	1	40	41	82	39
291	1	78	76	79	80
299	1	9	7	10	19
300	1	57	58	59	28
302	1	44	45	34	42
303	1	39	40	42	37
304	1	70	69	71	74
305	1	87	88	89	85
311	1	23	21	24	59
316	1	122	123	84	120
325	1	7	5	8	9
326	1	78	80	76	79
329	1	76	78	74	77
330	1	13	15	10	14
331	1	89	90	120	87
332	1	17	18	19	15
336	1	57	28	58	59
339	1	37	39	35	38
343	1	85	84	86	87
345	1	40	39	41	82
346	1	70	71	74	69
347	2	61	81	1	62
360	1	105	106	107	100
361	1	7	8	9	5
363	1	74	70	75	76
374	1	13	10	14	15
375	1	42	39	43	44
381	1	65	66	67	63
382	2	11	10	12	21
383	1	10	13	9	11
390	2	11	12	21	10
395	1	100	105	98	101
401	2	61	62	81	1
403	1	67	68	69	65
408	1	21	23	11	22
410	2	1	20	61	2
411	1	3	2	4	5
412	1	87	85	88	89
421	1	34	35	44	29
423	1	10	11	13	9
425	1	63	65	62	64
427	1	120	122	89	121
432	1	69	70	80	67
435	1	89	87	90	120
443	1	62	63	80	61
449	1	35	37	34	36
451	1	59	60	23	57
453	1	34	44	29	35
457	1	80	78	62	69
468	1	23	24	59	21
469	1	13	14	15	10
471	1	96	95	97	98
472	1	98	96	99	100
478	1	19	17	2	9
487	1	85	87	84	86
495	1	78	79	80	76
497	1	76	77	78	74
502	1	107	105	108	95
503	1	23	59	21	24
504	1	98	100	96	99
506	1	39	42	37	40
515	1	100	101	105	98
519	1	63	64	65	62
520	1	82	84	40	83
524	1	87	89	85	88
533	1	122	120	123	84
534	1	28	26	29	57
536	1	19	9	17	2
544	1	5	3	6	7
545	1	89	120	87	90
551	1	44	42	45	34
562	1	9	19	7	10
569	1	39	37	40	42
571	1	98	99	100	96
572	1	80	69	78	62
582	1	62	61	63	80
584	1	24	25	26	23
587	1	7	9	5	8
588	1	35	36	37	34
590	1	70	74	69	71
593	1	105	100	106	107
