Title

104 atoms
107 bonds
190 angles
303 dihedrals
78 impropers

9 atom types
13 bond types
6 angle types
13 dihedral types
2 improper types
-11.88399982 88.11600018 xlo xhi
-7.572000027 92.42799997 ylo yhi
-4.021999836 95.97800016 zlo zhi
0.0 0.0 0.0 xy xz yz

Masses

1	15.99943
2	12.01078
3	1.007947
4	12.01078
5	1.007947
6	15.99943
7	15.99943
8	1.007947
9	35.4532


Pair Coeffs

1	0.16846514	3.0251065
2	0.086879315	3.4806469
3	0.015611343	2.5725815
4	0.10884061	3.3795318
5	0.015779483	2.6445434
6	0.2102061	3.0398122
7	0.20947353	2.99716
8	1.2326e-05	0.53453923
9	0.2656001	3.3075278

Bond Coeffs

1 harmonic	425.69104206635	1.362945806494
2 harmonic	300.03137914615	1.451203938761
3 harmonic	360.7852444772	1.387193227181
4 harmonic	397.2545789619	1.085358495916
5 harmonic	289.73813263395	1.498646816465
6 harmonic	264.62148576755	1.52190126495
7 harmonic	301.15400723785	1.345741232799
8 harmonic	370.04670688625	1.093899492634
9 harmonic	582.698766451	1.225198386222
10 harmonic	279.1350963404	1.454628925034
11 harmonic	385.7604595587	1.369745182308
12 harmonic	543.5267831885	0.9716763312559
13 harmonic	218.0227703685	1.746066037062


Angle Coeffs

1 harmonic	57.8982893754	126.8062420451
2 harmonic	65.09061609600001	110.3538806181
3 harmonic	34.066775159195	129.1835929926
4 harmonic	53.20531626545	116.5475862634
5 harmonic	201.41175231035	127.4691416191
6 harmonic	48.776492647595	115.6030999533


Dihedral Coeffs

1 fourier 1	3.661930099076	2	180
2 fourier 1	1.532232714475	2	180
3 fourier 1	0.457973137376	1	0
4 fourier 1	0.02664938770063	3	0
5 fourier 1	0.1155372516788	3	0
6 fourier 1	0.09223874044423	3	0
7 fourier 1	0.3159935921949	2	180
8 fourier 1	0.3247796806857	1	180
9 fourier 1	0.1040663847541	3	0
10 fourier 1	2.779853741805	2	180
11 fourier 1	0.9974165607242	2	180
12 fourier 1	0.1911926717192	3	0
13 fourier 1	0.8283030590042	2	180


Improper Coeffs

1 0.3666666666666667	-1	2
2 3.5	-1	2


Atoms

1	1	1	-0.034768999	-2.4779999	-0.81900001	5.276
2	1	2	0.26696	-1.825	-0.63999999	4.059
3	1	2	-0.32867801	-1.449	0.58499998	3.681
4	1	3	0.219175	-1.6440001	1.437	4.3210001
5	1	2	-0.15905499	-0.75599998	0.78899997	2.392
6	1	3	0.20448899	-0.428	1.7920001	2.1659999
7	1	2	-0.25971001	-0.54699999	-0.243	1.54
8	1	4	0.021713	0.244	-0.086000003	0.219
9	1	2	-0.25971001	-0.31900001	-1.086	-0.82800001
10	1	2	-0.162195	0.463	-1.859	-1.62
11	1	3	0.20448899	1.536	-1.864	-1.5470001
12	1	2	-0.28074899	-0.126	-2.7739999	-2.619
13	1	3	0.219576	0.52600002	-3.375	-3.24
14	1	2	0.430145	-1.452	-2.8629999	-2.757
15	1	1	-0.444913	-1.994	-3.727	-3.704
16	1	2	-0.28074899	-2.3299999	-2.0439999	-1.9
17	1	3	0.219577	-3.405	-2.1210001	-1.998
18	1	2	-0.162195	-1.802	-1.214	-0.99400002
19	1	3	0.20448899	-2.473	-0.64200002	-0.36700001
20	1	4	-0.124075	0.149	1.363	-0.38600001
21	1	4	-0.13798399	-1.273	1.891	-0.67199999
22	1	4	-0.1363	-1.252	3.4000001	-0.94700003
23	1	4	-0.121314	-2.648	3.921	-1.275
24	1	5	0.064168997	-3.046	3.4170001	-2.1819999
25	1	5	0.064168997	-3.3369999	3.7379999	-0.42199999
26	1	5	0.064168997	-2.602	5.013	-1.466
27	1	5	0.087407	-0.57700002	3.615	-1.8049999
28	1	5	0.087407	-0.86900002	3.9389999	-0.052999999
29	1	5	0.096809998	-1.952	1.6950001	0.183
30	1	5	0.096809998	-1.679	1.38	-1.5700001
31	1	5	0.101084	0.69099998	1.3890001	-1.3559999
32	1	5	0.101084	0.68199998	2.0769999	0.278
33	1	4	-0.124075	1.738	-0.39300001	0.61799997
34	1	4	-0.13798399	2.8380001	0.178	-0.30899999
35	1	4	-0.1363	4.1939998	-0.47799999	-0.021
36	1	4	-0.121314	5.2919998	0.115	-0.89899999
37	1	5	0.064168997	5.0560002	-0.045000002	-1.973
38	1	5	0.064168997	6.2589998	-0.38100001	-0.67000002
39	1	5	0.064168997	5.3959999	1.204	-0.70499998
40	1	5	0.087407	4.1290002	-1.571	-0.21799999
41	1	5	0.087407	4.4640002	-0.32699999	1.046
42	1	5	0.096809998	2.9289999	1.272	-0.132
43	1	5	0.096809998	2.5869999	0.035	-1.3789999
44	1	5	0.101084	1.947	0.033	1.626
45	1	5	0.101084	1.865	-1.492	0.73500001
46	1	2	-0.15905499	-0.92299998	-1.613	2.0120001
47	1	3	0.20448899	-0.69199997	-2.4809999	1.408
48	1	2	-0.32867801	-1.535	-1.794	3.187
49	1	3	0.219175	-1.804	-2.7939999	3.506
50	1	2	0.62565601	-3.0320001	-3.8139999	-3.8280001
51	1	6	-0.51391399	-3.7079999	-2.8180001	-4.0219998
52	1	1	-0.034768999	-2.77	-1.739	5.5840001
53	1	2	0.26696	-3.9489999	-1.919	6.302
54	1	2	-0.32867801	-4.3070002	-3.1440001	6.698
55	1	3	0.219175	-3.678	-3.9949999	6.4679999
56	1	2	-0.15905499	-5.5560002	-3.348	7.4590001
57	1	3	0.20448899	-5.7639999	-4.3509998	7.7989998
58	1	2	-0.25971001	-6.395	-2.3150001	7.7140002
59	1	4	0.021713	-7.671	-2.4719999	8.5760002
60	1	2	-0.25971001	-8.7480001	-1.473	8.0710001
61	1	2	-0.118023	-9.4960003	-0.69999999	8.8950005
62	1	3	0.20448899	-9.3640003	-0.69400001	9.9619999
63	1	2	-0.41879201	-10.525	0.215	8.3599997
64	1	3	0.22407299	-11.11	0.81599998	9.0450001
65	1	2	0.41933	-10.735	0.30399999	7.0440001
66	1	7	-0.65345401	-11.71	1.169	6.5539999
67	1	8	0.42986801	-11.884	1.252	5.559
68	1	2	-0.41879201	-9.9259996	-0.514	6.1209998
69	1	3	0.22407299	-10.083	-0.43700001	5.052
70	1	2	-0.118023	-8.9940004	-1.345	6.599
71	1	3	0.20448899	-8.4040003	-1.916	5.895
72	1	4	-0.124075	-8.2810001	-3.921	8.5139999
73	1	4	-0.13798399	-8.6429996	-4.4499998	7.1100001
74	1	4	-0.1363	-8.9169998	-5.9580002	7.1459999
75	1	4	-0.121314	-9.3199997	-6.4790001	5.7690001
76	1	5	0.064168997	-10.247	-5.9759998	5.4219999
77	1	5	0.064168997	-8.5059996	-6.2969999	5.0349998
78	1	5	0.064168997	-9.5089998	-7.572	5.8260002
79	1	5	0.087407	-9.7370005	-6.1739998	7.8660002
80	1	5	0.087407	-8.0039997	-6.4970002	7.4790001
81	1	5	0.096809998	-7.8270001	-4.2540002	6.3850002
82	1	5	0.096809998	-9.5620003	-3.9389999	6.7529998
83	1	5	0.101084	-9.2200003	-3.948	9.1079998
84	1	5	0.101084	-7.5890002	-4.6360002	9.0100002
85	1	4	-0.124075	-7.1919999	-2.1659999	10.046
86	1	4	-0.13798399	-8.0579996	-2.7360001	11.195
87	1	4	-0.1363	-7.697	-2.0799999	12.533
88	1	4	-0.121314	-8.5139999	-2.6730001	13.677
89	1	5	0.064168997	-9.599	-2.513	13.5
90	1	5	0.064168997	-8.2329998	-2.178	14.63
91	1	5	0.064168997	-8.3140001	-3.7620001	13.77
92	1	5	0.087407	-7.8969998	-0.98799998	12.479
93	1	5	0.087407	-6.6170001	-2.2309999	12.745
94	1	5	0.096809998	-7.8759999	-3.8299999	11.276
95	1	5	0.096809998	-9.1400003	-2.5940001	11.002
96	1	5	0.101084	-6.1739998	-2.592	10.2
97	1	5	0.101084	-7.0679998	-1.066	10.166
98	1	2	-0.15905499	-5.9450002	-0.94599998	7.3140001
99	1	3	0.20448899	-6.5349998	-0.077	7.5770001
100	1	2	-0.32867801	-4.8049998	-0.764	6.6389999
101	1	3	0.219175	-4.5009999	0.235	6.3530002
102	1	2	0.46533501	-3.5039999	-4.789	-3.7850001
103	1	6	-0.59584498	-2.8199999	-5.7930002	-3.6800001
104	1	9	-0.094379999	-5.25	-4.9229999	-3.8659999

Bonds

1	1	1	2
2	2	1	52
3	3	2	3
4	3	2	48
5	4	3	4
6	3	3	5
7	4	5	6
8	3	5	7
9	5	7	8
10	3	7	46
11	5	8	9
12	6	8	20
13	6	8	33
14	3	9	10
15	3	9	18
16	4	10	11
17	3	10	12
18	4	12	13
19	3	12	14
20	1	14	15
21	3	14	16
22	7	15	50
23	4	16	17
24	3	16	18
25	4	18	19
26	6	20	21
27	8	20	31
28	8	20	32
29	6	21	22
30	8	21	29
31	8	21	30
32	6	22	23
33	8	22	27
34	8	22	28
35	8	23	24
36	8	23	25
37	8	23	26
38	6	33	34
39	8	33	44
40	8	33	45
41	6	34	35
42	8	34	42
43	8	34	43
44	6	35	36
45	8	35	40
46	8	35	41
47	8	36	37
48	8	36	38
49	8	36	39
50	4	46	47
51	3	46	48
52	4	48	49
53	9	50	51
54	10	50	102
55	1	52	53
56	3	53	54
57	3	53	100
58	4	54	55
59	3	54	56
60	4	56	57
61	3	56	58
62	5	58	59
63	3	58	98
64	5	59	60
65	6	59	72
66	6	59	85
67	3	60	61
68	3	60	70
69	4	61	62
70	3	61	63
71	4	63	64
72	3	63	65
73	11	65	66
74	3	65	68
75	12	66	67
76	4	68	69
77	3	68	70
78	4	70	71
79	6	72	73
80	8	72	83
81	8	72	84
82	6	73	74
83	8	73	81
84	8	73	82
85	6	74	75
86	8	74	79
87	8	74	80
88	8	75	76
89	8	75	77
90	8	75	78
91	6	85	86
92	8	85	96
93	8	85	97
94	6	86	87
95	8	86	94
96	8	86	95
97	6	87	88
98	8	87	92
99	8	87	93
100	8	88	89
101	8	88	90
102	8	88	91
103	4	98	99
104	3	98	100
105	4	100	101
106	9	102	103
107	13	102	104

Angles

1	3	13	12	14
2	4	72	73	81
3	4	7	8	9
4	1	66	65	68
5	1	1	2	48
6	1	51	50	102
7	6	29	21	30
8	4	33	34	42
9	2	65	66	67
10	4	85	86	87
11	4	59	85	97
12	5	15	50	51
13	3	9	18	19
14	4	87	86	94
15	4	8	33	44
16	4	59	72	84
17	4	7	8	20
18	1	9	18	16
19	6	89	88	90
20	1	10	12	14
21	4	72	59	85
22	4	34	33	44
23	4	72	73	82
24	3	62	61	63
25	4	74	73	81
26	4	33	34	43
27	6	96	85	97
28	4	9	8	20
29	1	56	58	98
30	1	54	53	100
31	6	81	73	82
32	1	7	46	48
33	6	77	75	78
34	4	87	86	95
35	1	9	10	12
36	1	3	5	7
37	1	65	68	70
38	3	2	48	49
39	3	54	56	57
40	4	74	75	77
41	4	58	59	85
42	4	35	36	37
43	4	74	73	82
44	1	15	14	16
45	4	20	21	29
46	1	59	60	70
47	3	14	16	17
48	6	37	36	38
49	3	46	48	49
50	2	14	15	50
51	4	58	59	72
52	4	34	33	45
53	3	47	46	48
54	4	35	34	42
55	1	52	53	54
56	4	7	8	33
57	4	21	20	32
58	4	34	35	36
59	4	73	72	84
60	4	75	74	79
61	1	54	56	58
62	1	8	9	18
63	4	20	8	33
64	1	60	61	63
65	1	53	100	98
66	1	56	58	59
67	1	61	63	65
68	3	17	16	18
69	1	60	70	68
70	1	52	53	100
71	4	35	34	43
72	1	59	60	61
73	4	88	87	93
74	4	9	8	33
75	4	8	33	34
76	4	22	23	24
77	3	64	63	65
78	4	33	34	35
79	4	74	75	76
80	4	73	74	79
81	2	1	52	53
82	6	89	88	91
83	1	61	60	70
84	4	35	36	38
85	4	60	59	85
86	3	61	63	64
87	4	87	88	89
88	6	25	23	26
89	1	103	102	104
90	4	20	21	30
91	4	86	87	92
92	6	37	36	39
93	3	2	3	4
94	1	10	9	18
95	3	10	12	13
96	4	34	35	40
97	4	59	85	86
98	4	8	33	45
99	4	60	59	72
100	3	58	98	99
101	4	86	87	88
102	6	27	22	28
103	4	86	85	96
104	4	23	22	27
105	1	3	2	48
106	1	8	7	46
107	4	87	88	90
108	3	98	100	101
109	4	21	22	27
110	4	85	86	94
111	3	53	100	101
112	4	75	74	80
113	4	22	23	25
114	6	76	75	78
115	4	22	21	29
116	1	15	50	102
117	4	72	73	74
118	1	12	14	16
119	4	21	22	23
120	6	38	36	39
121	4	59	72	73
122	3	60	61	62
123	6	24	23	25
124	3	4	3	5
125	4	8	20	31
126	6	92	87	93
127	4	21	22	28
128	4	35	36	39
129	4	22	23	26
130	4	59	85	96
131	1	12	14	15
132	3	7	46	47
133	3	60	70	71
134	3	6	5	7
135	1	2	3	5
136	4	73	74	80
137	4	34	35	41
138	4	36	35	40
139	6	31	20	32
140	4	58	59	60
141	3	65	68	69
142	6	90	88	91
143	1	5	7	8
144	6	24	23	26
145	3	53	54	55
146	1	59	58	98
147	1	53	54	56
148	3	68	70	71
149	1	63	65	68
150	3	9	10	11
151	4	20	21	22
152	4	21	20	31
153	3	3	5	6
154	6	79	74	80
155	4	8	20	21
156	3	16	18	19
157	1	50	102	104
158	1	5	7	46
159	4	22	21	30
160	6	76	75	77
161	6	44	33	45
162	4	86	87	93
163	1	14	16	18
164	6	42	34	43
165	1	50	102	103
166	6	40	35	41
167	1	63	65	66
168	4	8	20	32
169	3	99	98	100
170	3	69	68	70
171	6	83	72	84
172	3	57	56	58
173	1	2	48	46
174	4	86	85	97
175	4	23	22	28
176	4	73	72	83
177	6	94	86	95
178	4	87	88	91
179	4	85	86	95
180	1	1	2	3
181	2	2	1	52
182	1	8	9	10
183	3	55	54	56
184	4	74	75	78
185	4	36	35	41
186	4	73	74	75
187	4	59	72	83
188	3	11	10	12
189	4	88	87	92
190	1	58	98	100

Dihedrals

1	1	61	63	65	68
2	9	83	72	59	85
3	9	36	35	34	43
4	1	62	61	60	70
5	12	81	73	72	84
6	9	20	8	33	44
7	5	7	8	20	21
8	9	31	20	8	33
9	9	34	35	36	37
10	4	58	59	60	70
11	9	23	22	21	29
12	13	63	65	66	67
13	5	7	8	33	44
14	12	90	88	87	92
15	1	10	12	14	15
16	1	2	3	5	6
17	1	1	2	48	46
18	12	94	86	85	97
19	12	38	36	35	40
20	12	30	21	20	31
21	1	99	98	100	101
22	13	67	66	65	68
23	1	1	2	3	4
24	1	6	5	7	8
25	1	4	3	5	7
26	12	26	23	22	28
27	9	8	33	34	42
28	4	72	59	58	98
29	4	85	59	58	98
30	5	60	59	85	96
31	1	55	54	56	57
32	1	59	60	70	68
33	5	9	8	33	44
34	9	86	87	88	89
35	1	11	10	12	13
36	9	33	34	35	41
37	12	40	35	34	42
38	4	18	9	8	20
39	1	15	14	16	17
40	4	56	58	59	85
41	1	56	54	53	100
42	9	22	21	20	32
43	5	58	59	85	97
44	6	72	59	85	86
44	7	72	59	85	86
44	8	72	59	85	86
45	9	85	86	87	93
46	12	29	21	20	32
47	4	5	7	8	33
48	9	59	72	73	81
49	6	59	85	86	87
49	7	59	85	86	87
49	8	59	85	86	87
50	9	87	86	85	96
51	1	8	9	18	19
52	6	8	33	34	35
52	7	8	33	34	35
52	8	8	33	34	35
53	9	21	22	23	25
54	12	79	74	73	82
55	1	8	9	18	16
56	1	55	54	56	58
57	12	40	35	34	43
58	2	1	52	53	54
59	1	8	7	46	47
60	5	60	59	72	84
61	5	60	59	85	97
62	1	59	60	70	71
63	12	77	75	74	80
64	1	10	12	14	16
65	4	56	58	59	72
66	1	9	18	16	17
67	1	53	54	56	58
68	1	52	53	100	101
69	6	73	72	59	85
69	7	73	72	59	85
69	8	73	72	59	85
70	1	52	53	100	98
71	1	8	9	10	12
72	11	51	50	102	104
73	9	35	34	33	45
74	4	7	8	9	18
75	9	34	35	36	38
76	9	23	22	21	30
77	1	54	56	58	59
78	1	61	60	70	71
79	2	16	14	15	50
80	2	1	52	53	100
81	1	60	61	63	65
82	9	74	73	72	84
83	12	28	22	21	29
84	12	92	87	86	95
85	9	59	72	73	82
86	1	2	48	46	47
87	6	8	20	21	22
87	7	8	20	21	22
87	8	8	20	21	22
88	5	9	8	33	45
89	12	30	21	20	32
90	6	20	8	33	34
90	7	20	8	33	34
90	8	20	8	33	34
91	9	21	22	23	26
92	4	33	8	7	46
93	12	38	36	35	41
94	12	39	36	35	40
95	11	51	50	102	103
96	1	9	10	12	13
97	1	1	2	3	5
98	1	55	54	53	100
99	4	61	60	59	85
100	9	20	21	22	27
101	5	7	8	33	34
102	12	89	88	87	92
103	9	59	85	86	95
104	1	1	2	48	49
105	4	18	9	8	33
106	1	5	7	46	48
107	1	12	14	16	18
108	1	61	63	65	66
109	4	61	60	59	72
110	9	72	59	85	96
111	6	20	21	22	23
111	7	20	21	22	23
111	8	20	21	22	23
112	12	41	35	34	42
113	1	54	56	58	98
114	9	72	73	74	79
115	6	21	20	8	33
115	7	21	20	8	33
115	8	21	20	8	33
116	9	84	72	59	85
117	1	63	65	68	70
118	12	25	23	22	27
119	5	9	8	33	34
120	3	2	1	52	53
121	1	60	61	63	64
122	12	90	88	87	93
123	10	14	15	50	102
124	1	65	68	70	71
125	1	59	60	61	62
126	9	72	73	74	80
127	1	4	3	5	6
128	9	88	87	86	94
129	12	41	35	34	43
130	1	2	3	5	7
131	9	20	8	33	45
132	1	53	100	98	58
133	1	59	58	98	99
134	1	10	9	18	19
135	12	24	23	22	27
136	1	66	65	68	70
137	12	80	74	73	81
138	1	10	9	18	16
139	1	17	16	18	19
140	5	7	8	33	45
141	5	58	59	72	73
142	1	56	58	98	99
143	1	58	98	100	101
144	12	37	36	35	40
145	1	15	14	16	18
146	9	34	35	36	39
147	4	10	9	8	20
148	1	59	58	98	100
149	9	86	87	88	90
150	5	60	59	72	73
151	12	93	87	86	94
152	12	28	22	21	30
153	1	57	56	58	98
154	12	42	34	33	44
155	9	75	74	73	81
156	12	39	36	35	41
157	1	7	46	48	49
158	5	58	59	72	83
159	1	3	5	7	8
160	1	69	68	70	71
161	9	87	86	85	97
162	12	24	23	22	28
163	12	27	22	21	29
164	1	60	70	68	65
165	1	8	9	10	11
166	12	95	86	85	96
167	4	9	8	7	46
168	9	86	87	88	91
169	5	7	8	20	31
170	12	93	87	86	95
171	9	75	74	73	82
172	5	58	59	85	86
173	1	3	5	7	46
174	1	64	63	65	68
175	2	48	2	1	52
176	1	12	10	9	18
177	1	60	70	68	69
178	1	63	61	60	70
179	12	81	73	72	83
180	5	60	59	85	86
181	12	91	88	87	93
182	6	72	73	74	75
182	7	72	73	74	75
182	8	72	73	74	75
183	1	4	3	2	48
184	1	57	56	58	59
185	1	11	10	9	18
186	1	8	7	46	48
187	9	20	21	22	28
188	4	56	58	59	60
189	1	62	61	63	64
190	1	14	16	18	19
191	5	9	8	20	31
192	12	89	88	87	93
193	1	53	100	98	99
194	4	10	9	8	33
195	9	73	74	75	78
196	1	3	2	48	46
197	12	43	34	33	44
198	12	37	36	35	41
199	1	64	63	65	66
200	1	66	65	68	69
201	9	72	59	85	97
202	1	5	3	2	48
203	1	11	10	12	14
204	12	26	23	22	27
205	12	76	75	74	80
206	9	8	20	21	29
207	1	13	12	14	15
208	2	12	14	15	50
209	1	12	14	16	17
210	4	20	8	7	46
211	12	25	23	22	28
212	4	58	59	60	61
213	6	59	72	73	74
213	7	59	72	73	74
213	8	59	72	73	74
214	12	27	22	21	30
215	11	15	50	102	104
216	9	88	87	86	95
217	5	58	59	85	96
218	9	85	86	87	92
219	1	59	60	61	63
220	9	35	34	33	44
221	1	62	61	63	65
222	1	2	48	46	7
223	12	79	74	73	81
224	12	80	74	73	82
225	12	82	73	72	83
226	1	54	53	100	101
227	5	9	8	20	21
228	5	60	59	72	83
229	5	7	8	20	32
230	11	15	50	102	103
231	1	54	53	100	98
232	6	85	86	87	88
232	7	85	86	87	88
232	8	85	86	87	88
233	1	53	54	56	57
234	4	70	60	59	85
235	9	32	20	8	33
236	1	47	46	48	49
237	2	14	15	50	51
238	12	78	75	74	79
239	12	43	34	33	45
240	1	5	7	46	47
241	1	6	5	7	46
242	4	5	7	8	9
243	1	61	60	70	68
244	9	73	74	75	76
245	12	91	88	87	92
246	4	7	8	9	10
247	9	33	34	35	40
248	9	8	33	34	43
249	1	9	10	12	14
250	5	58	59	72	84
251	4	60	59	58	98
252	9	74	73	72	83
253	12	77	75	74	79
254	12	78	75	74	80
255	12	92	87	86	94
256	5	9	8	20	32
257	1	9	18	16	14
258	1	63	65	68	69
259	1	13	12	14	16
260	4	70	60	59	72
261	9	22	21	20	31
262	9	36	35	34	42
263	12	82	73	72	84
264	12	29	21	20	31
265	1	56	58	98	100
266	9	73	74	75	77
267	12	95	86	85	97
268	2	3	2	1	52
269	12	42	34	33	45
270	12	94	86	85	96
271	9	59	85	86	94
272	6	33	34	35	36
272	7	33	34	35	36
272	8	33	34	35	36
273	1	52	53	54	55
274	9	8	20	21	30
275	1	52	53	54	56
276	4	5	7	8	20
277	12	76	75	74	79
278	1	3	2	48	49
279	9	21	22	23	24

Impropers

9	2	50	15	51	102
27	1	10	11	12	9
29	1	70	71	60	68
38	1	60	59	61	70
43	1	65	68	63	66
47	1	48	46	49	2
56	1	54	56	53	55
57	1	98	100	58	99
59	1	68	70	65	69
66	1	5	7	3	6
80	1	68	69	70	65
92	1	3	2	4	5
94	1	2	1	3	48
98	2	50	102	15	51
101	1	12	13	14	10
102	1	60	70	59	61
115	1	7	5	8	46
125	1	12	10	13	14
131	1	2	48	1	3
135	1	65	63	66	68
149	1	63	64	65	61
160	1	102	103	104	50
172	1	14	16	12	15
174	1	61	60	62	63
187	1	14	15	16	12
189	1	102	104	50	103
191	1	7	46	5	8
194	1	56	54	57	58
204	1	18	9	16	19
212	1	100	53	98	101
222	1	61	62	63	60
225	1	70	60	68	71
258	1	54	53	55	56
267	1	54	55	56	53
279	1	5	3	6	7
290	2	50	51	102	15
297	1	16	14	17	18
311	1	3	5	2	4
318	1	58	56	59	98
322	1	46	48	7	47
329	1	68	65	69	70
330	1	65	66	68	63
334	1	100	101	53	98
336	1	7	8	46	5
337	1	18	19	9	16
350	1	56	57	58	54
351	1	9	8	10	18
366	1	56	58	54	57
368	1	100	98	101	53
377	1	53	54	100	52
385	1	12	14	10	13
388	1	53	100	52	54
401	1	10	12	9	11
402	1	61	63	60	62
404	1	58	59	98	56
428	1	46	7	47	48
438	1	46	47	48	7
451	1	102	50	103	104
452	1	58	98	56	59
456	1	63	65	61	64
464	1	5	6	7	3
467	1	98	58	99	100
470	1	14	12	15	16
481	1	3	4	5	2
482	1	98	99	100	58
508	1	70	68	71	60
523	1	63	61	64	65
524	1	9	10	18	8
536	1	60	61	70	59
548	1	18	16	19	9
550	1	16	18	14	17
571	1	9	18	8	10
578	1	53	52	54	100
581	1	48	49	2	46
582	1	48	2	46	49
583	1	10	9	11	12
585	1	2	3	48	1
587	1	16	17	18	14
