Title

82 atoms
81 bonds
146 angles
266 dihedrals
18 impropers

11 atom types
14 bond types
9 angle types
39 dihedral types
3 improper types
-12.50599957 87.49400043 xlo xhi
-9.25399971 90.74600029 ylo yhi
-7.673999786 92.32600021 zlo zhi
0.0 0.0 0.0 xy xz yz

Masses

1	12.01078
2	15.99943
3	14.00672
4	12.01078
5	1.007947
6	1.007947
7	1.007947
8	15.99943
9	12.01078
10	15.99943
11	1.007947


Pair Coeffs

1	0.086879315	3.4806469
2	0.2102061	3.0398122
3	0.16769152	3.206876
4	0.10884061	3.3795318
5	0.014090815	1.1034277
6	0.016409246	2.5832257
7	0.015779483	2.6445434
8	0.16846514	3.0251065
9	0.21	3.3996695
10	0.20947353	2.99716
11	1.2326e-05	0.53453923

Bond Coeffs

1 harmonic	582.698766451	1.225198386222
2 harmonic	492.76746816345	1.381897776683
3 harmonic	279.1350963404	1.454628925034
4 harmonic	352.0565580496	1.450098586273
5 harmonic	505.144496193	1.019481865027
6 harmonic	264.62148576755	1.52190126495
7 harmonic	370.04670688625	1.093899492634
8 harmonic	301.15400723785	1.345741232799
9 harmonic	366.7408841747	1.425895053732
10 harmonic	300.03137914615	1.451203938761
11 harmonic	366.34047229585	1.464762957261
12 harmonic	602.81384337	1.196112346392
13 harmonic	329.96998057905	1.427343958716
14 harmonic	543.5267831885	0.9716763312559


Angle Coeffs

1 harmonic	55.42182150775	117.3465570514
2 harmonic	63.44422595415	115.5071327674
3 harmonic	57.8982893754	126.8062420451
4 harmonic	53.20531626545	116.5475862634
5 harmonic	65.09061609600001	110.3538806181
6 harmonic	201.41175231035	127.4691416191
7 harmonic	48.776492647595	115.6030999533
8 harmonic	55.07882548015	112.8714009681
9 harmonic	33.56981613361	180


Dihedral Coeffs

1 fourier 1	-0.1488678166443	4	180
2 fourier 1	-0.1230328948768	3	180
3 fourier 1	0.2939295466901	2	0
4 fourier 1	-0.3024127022865	1	0
5 fourier 1	0.182238503271	2	0
6 fourier 1	0.02972342374561	3	0
7 fourier 1	1.809047390003	2	180
8 fourier 1	-0.04816277792592	1	0
9 fourier 1	3.101948770557	2	180
10 fourier 1	-0.4252153282372	1	0
11 fourier 1	2.348375642009	2	180
12 fourier 1	1.256156174911	1	0
13 fourier 1	0.9974165607242	2	180
14 fourier 1	0.1155372516788	3	0
15 fourier 1	0.09223874044423	3	0
16 fourier 1	0.3159935921949	2	180
17 fourier 1	0.3247796806857	1	180
18 fourier 1	0.1040663847541	3	0
19 fourier 1	2.779853741805	2	180
20 fourier 1	0.1918272375143	3	0
21 fourier 1	0.9202179876409	1	180
22 fourier 1	0.0473758381877	3	0
23 fourier 1	0.4860993122944	2	180
24 fourier 1	0.8916986138746	1	0
25 fourier 1	1.163809172478	2	180
26 fourier 1	0.1679186987369	1	180
27 fourier 1	0.1911926717192	3	0
28 fourier 1	-0.0309670556842	3	0
29 fourier 1	0.4598191477945	2	0
30 fourier 1	0.1115525666802	3	0
31 fourier 1	0.3432490222662	1	0
32 fourier 1	0.4552156463534	3	0
33 fourier 1	-0.03687743385131	2	180
34 fourier 1	0.457973137376	1	0
35 fourier 1	-1.382973039546	1	0
36 fourier 1	0	1	0
37 fourier 1	0.3445382149273	3	0
38 fourier 1	0.1364556373303	1	0
39 fourier 1	0.3026390167484	3	0


Improper Coeffs

1 0.3333333333333333	-1	2
2 0.3666666666666667	-1	2
3 3.5	-1	2


Atoms

1	1	1	0.54579401	-4.6939998	1.331	-0.38600001
2	1	2	-0.66820198	-5.1230001	1.428	0.79500002
3	1	3	-0.51880199	-3.4430001	0.69599998	-0.66100001
4	1	4	0.032946002	-2.6159999	0.13600001	0.40700001
5	1	4	-0.144096	-1.3329999	-0.479	-0.161
6	1	4	-0.140743	-0.45199999	-1.053	0.95899999
7	1	4	-0.140743	0.75700003	-1.8430001	0.42699999
8	1	4	-0.142803	1.749	-1.023	-0.41800001
9	1	4	0.027195999	2.3959999	0.12800001	0.36399999
10	1	3	-0.462033	3.4519999	0.76200002	-0.42399999
11	1	1	0.78823203	4.2150002	1.858	0.088
12	1	2	-0.59439301	3.9979999	2.3099999	1.244
13	1	5	0.32947001	3.668	0.42500001	-1.39
14	1	6	0.062706999	1.6289999	0.89200002	0.61000001
15	1	6	0.062706999	2.832	-0.264	1.309
16	1	7	0.092435002	1.249	-0.62900001	-1.3279999
17	1	7	0.092435002	2.55	-1.7130001	-0.75999999
18	1	7	0.091107003	1.301	-2.2809999	1.293
19	1	7	0.091107003	0.38800001	-2.6930001	-0.186
20	1	7	0.091107003	-0.114	-0.237	1.633
21	1	7	0.091107003	-1.063	-1.749	1.574
22	1	7	0.092435002	-0.77499998	0.31	-0.708
23	1	7	0.092435002	-1.602	-1.289	-0.875
24	1	6	0.059078999	-3.1960001	-0.64499998	0.94499999
25	1	6	0.059078999	-2.352	0.94400001	1.125
26	1	5	0.32289001	-3.1300001	0.63999999	-1.6569999
27	1	8	-0.49359399	4.9559999	2.2869999	-0.49700001
28	1	4	0.107045	5.947	1.311	-0.66799998
29	1	4	0.080219001	6.7880001	1.1799999	0.60299999
30	1	8	-0.48633301	7.862	0.28299999	0.389
31	1	4	0.081024997	7.5320001	-1.007	0.86000001
32	1	4	0.030838	8.6490002	-1.976	0.486
33	1	8	-0.13858899	8.3690004	-3.2579999	0.97899997
34	1	6	0.094090998	8.776	-2.0039999	-0.62099999
35	1	6	0.094090998	9.6040001	-1.625	0.93199998
36	1	6	0.090196997	6.5819998	-1.369	0.405
37	1	6	0.090196997	7.4310002	-0.99599999	1.97
38	1	6	0.088627003	7.2189999	2.1760001	0.83999997
39	1	6	0.088627003	6.1389999	0.90399998	1.469
40	1	6	0.096575998	6.6040001	1.6160001	-1.51
41	1	6	0.096575998	5.4850001	0.333	-0.93099999
42	1	1	0.54579401	-5.2810001	1.734	-1.2
43	1	2	-0.66820198	-5.3039999	1.13	-2.3050001
44	1	3	-0.51880199	-6.013	2.95	-1.011
45	1	4	0.032946002	-6.8260002	3.556	-2.0639999
46	1	4	-0.144096	-8.1389999	2.786	-2.2379999
47	1	4	-0.140561	-9.0120001	3.427	-3.3280001
48	1	4	-0.13636599	-10.394	2.7650001	-3.4449999
49	1	4	-0.120548	-10.327	1.36	-4.0650001
50	1	4	0.18625601	-11.726	0.75800002	-4.27
51	1	3	-0.620471	-12.506	1.5190001	-5.2420001
52	1	9	0.59467101	-12.193	1.558	-6.4749999
53	1	2	-0.441935	-11.887	1.597	-7.6739998
54	1	6	0.036660999	-11.632	-0.29699999	-4.6100001
55	1	6	0.036660999	-12.269	0.75099999	-3.3010001
56	1	7	0.086043	-9.7629995	0.68199998	-3.3900001
57	1	7	0.086043	-9.7910004	1.397	-5.0380001
58	1	7	0.089818001	-10.874	2.7149999	-2.4430001
59	1	7	0.089818001	-11.027	3.415	-4.0879998
60	1	7	0.091107003	-9.1660004	4.4990001	-3.079
61	1	7	0.091107003	-8.4879999	3.381	-4.3080001
62	1	7	0.092435002	-7.9089999	1.7359999	-2.513
63	1	7	0.092435002	-8.6890001	2.7869999	-1.271
64	1	6	0.059078999	-6.2540002	3.572	-3.0179999
65	1	6	0.059078999	-7.053	4.6069999	-1.783
66	1	5	0.32289001	-5.9109998	3.4530001	-0.101
67	1	8	-0.13858899	7.6849999	-3.651	0.37599999
68	1	4	0.030838	7.9120002	-5.0339999	0.36199999
69	1	4	0.081150003	9.1210003	-5.3649998	-0.514
70	1	8	-0.484099	9.276	-6.7670002	-0.625
71	1	4	0.053300999	10.228	-7.237	0.30599999
72	1	4	0.075698003	10.265	-8.7609997	0.25799999
73	1	10	-0.67849898	11.233	-9.2539997	1.143
74	1	11	0.393626	10.844	-9.1899996	2.0550001
75	1	6	0.090970002	9.2609997	-9.1759996	0.50800002
76	1	6	0.090970002	10.525	-9.0889997	-0.77100003
77	1	6	0.091075003	9.9639997	-6.9219999	1.342
78	1	6	0.091075003	11.241	-6.8509998	0.048
79	1	6	0.090196997	8.9350004	-4.961	-1.5319999
80	1	6	0.090196997	10.03	-4.842	-0.12899999
81	1	6	0.094090998	7.0120001	-5.5359998	-0.054000001
82	1	6	0.094090998	8.0670004	-5.4109998	1.398

Bonds

1	1	1	2
2	2	1	3
3	3	1	42
4	4	3	4
5	5	3	26
6	6	4	5
7	7	4	24
8	7	4	25
9	6	5	6
10	7	5	22
11	7	5	23
12	6	6	7
13	7	6	20
14	7	6	21
15	6	7	8
16	7	7	18
17	7	7	19
18	6	8	9
19	7	8	16
20	7	8	17
21	4	9	10
22	7	9	14
23	7	9	15
24	2	10	11
25	5	10	13
26	1	11	12
27	8	11	27
28	9	27	28
29	6	28	29
30	7	28	40
31	7	28	41
32	9	29	30
33	7	29	38
34	7	29	39
35	9	30	31
36	6	31	32
37	7	31	36
38	7	31	37
39	9	32	33
40	7	32	34
41	7	32	35
42	10	33	67
43	1	42	43
44	2	42	44
45	4	44	45
46	5	44	66
47	6	45	46
48	7	45	64
49	7	45	65
50	6	46	47
51	7	46	62
52	7	46	63
53	6	47	48
54	7	47	60
55	7	47	61
56	6	48	49
57	7	48	58
58	7	48	59
59	6	49	50
60	7	49	56
61	7	49	57
62	11	50	51
63	7	50	54
64	7	50	55
65	12	51	52
66	1	52	53
67	9	67	68
68	6	68	69
69	7	68	81
70	7	68	82
71	9	69	70
72	7	69	79
73	7	69	80
74	9	70	71
75	6	71	72
76	7	71	77
77	7	71	78
78	13	72	73
79	7	72	75
80	7	72	76
81	14	73	74

Angles

1	4	70	69	79
2	4	50	49	56
3	7	18	7	19
4	4	7	8	9
5	7	60	47	61
6	3	2	1	3
7	4	69	68	82
8	7	54	50	55
9	4	5	6	21
10	7	16	8	17
11	4	46	45	64
12	4	8	7	19
13	4	68	69	80
14	4	9	8	16
15	7	38	29	39
16	4	51	50	54
17	5	29	30	31
18	4	70	69	80
19	4	50	49	57
20	4	67	68	82
21	7	58	48	59
22	1	9	10	11
23	3	43	42	44
24	4	71	72	75
25	4	3	4	24
26	4	45	46	62
27	4	47	46	62
28	4	31	32	33
29	4	47	48	49
30	4	73	72	75
31	2	4	3	26
32	4	70	71	77
33	4	72	71	77
34	4	51	50	55
35	4	28	29	39
36	4	48	49	57
37	4	45	46	47
38	3	1	42	44
39	2	1	3	26
40	7	62	46	63
41	4	3	4	25
42	4	45	46	63
43	4	7	6	20
44	5	32	33	67
45	4	31	32	34
46	4	6	7	19
47	7	14	9	15
48	1	1	3	4
49	4	49	50	55
50	2	9	10	13
51	2	42	44	66
52	4	30	29	38
53	4	48	47	60
54	4	49	50	51
55	7	36	31	37
56	4	27	28	40
57	4	47	48	58
58	4	48	49	50
59	2	11	10	13
60	4	30	29	39
61	4	49	48	58
62	4	6	5	22
63	4	48	47	61
64	4	32	31	36
65	4	9	8	17
66	4	44	45	64
67	4	4	5	22
68	4	68	69	70
69	8	50	51	52
70	4	33	32	34
71	4	71	72	76
72	4	8	9	14
73	4	27	28	41
74	4	47	48	59
75	4	47	46	63
76	4	73	72	76
77	4	8	9	10
78	4	49	48	59
79	4	70	71	78
80	4	10	9	14
81	3	10	11	12
82	4	32	31	37
83	4	72	71	78
84	4	46	47	60
85	4	4	5	23
86	4	46	45	65
87	4	30	31	36
88	3	3	1	42
89	7	40	28	41
90	5	72	73	74
91	4	5	4	24
92	6	12	11	27
93	4	7	6	21
94	4	30	31	32
95	4	31	32	35
96	9	51	52	53
97	4	69	68	81
98	7	56	49	57
99	4	29	28	40
100	4	10	9	15
101	4	67	68	69
102	7	77	71	78
103	4	71	72	73
104	7	79	69	80
105	4	5	6	20
106	4	6	7	8
107	4	27	28	29
108	7	22	5	23
109	4	7	8	16
110	4	68	69	79
111	4	4	5	6
112	7	20	6	21
113	4	46	47	48
114	4	67	68	81
115	4	29	28	41
116	4	5	6	7
117	7	24	4	25
118	7	64	45	65
119	7	75	72	76
120	2	45	44	66
121	4	6	5	23
122	4	7	8	17
123	1	42	44	45
124	4	28	29	38
125	4	48	49	56
126	3	1	42	43
127	4	33	32	35
128	4	70	71	72
129	4	8	9	15
130	4	3	4	5
131	5	11	27	28
132	5	33	67	68
133	7	81	68	82
134	4	6	7	18
135	4	46	47	61
136	4	49	50	54
137	3	10	11	27
138	4	30	31	37
139	4	28	29	30
140	4	44	45	46
141	4	44	45	65
142	4	8	7	18
143	3	2	1	42
144	4	5	4	25
145	7	34	32	35
146	5	69	70	71

Dihedrals

1	22	31	32	33	67
2	18	47	46	45	65
3	18	6	5	4	24
4	27	80	69	68	81
5	27	22	5	4	24
6	27	61	47	46	63
7	18	46	47	48	59
8	5	8	9	10	13
8	6	8	9	10	13
9	23	12	11	10	13
9	24	12	11	10	13
10	27	38	29	28	41
11	14	10	9	8	17
12	27	79	69	68	82
13	14	48	49	50	51
14	27	18	7	6	20
15	18	7	6	5	22
16	27	58	48	47	60
17	30	70	69	68	81
17	31	70	69	68	81
18	27	16	8	7	18
19	27	35	32	31	36
20	22	71	70	69	80
21	32	28	29	30	31
21	33	28	29	30	31
22	14	51	50	49	56
23	30	70	71	72	76
23	31	70	71	72	76
24	14	3	4	5	22
25	27	23	5	4	25
26	35	52	51	50	54
27	18	49	48	47	61
28	27	22	5	4	25
29	11	2	1	3	26
29	12	2	1	3	26
30	27	19	7	6	21
31	27	57	49	48	59
32	18	45	46	47	60
33	27	63	46	45	65
34	27	18	7	6	21
35	5	11	10	9	15
35	6	11	10	9	15
36	18	7	6	5	23
37	30	70	69	68	82
37	31	70	69	68	82
38	27	16	8	7	19
39	5	5	4	3	26
39	6	5	4	3	26
40	9	2	1	3	4
40	10	2	1	3	4
41	30	73	72	71	77
41	31	73	72	71	77
42	14	51	50	49	57
43	30	27	28	29	39
43	31	27	28	29	39
44	27	76	72	71	78
45	34	32	33	67	68
46	27	20	6	5	22
47	5	1	3	4	24
47	6	1	3	4	24
48	35	52	51	50	55
49	18	48	47	46	63
50	22	33	67	68	69
51	22	11	27	28	40
52	22	29	30	31	37
53	5	13	10	9	15
53	6	13	10	9	15
54	18	9	8	7	18
55	5	25	4	3	26
55	6	25	4	3	26
56	14	44	45	46	47
57	18	50	49	48	59
58	9	43	42	44	45
58	10	43	42	44	45
59	27	20	6	5	23
60	5	1	3	4	25
60	6	1	3	4	25
61	22	33	67	68	81
62	15	45	46	47	48
62	16	45	46	47	48
62	17	45	46	47	48
63	18	47	48	49	56
64	14	44	45	46	63
65	7	26	3	1	42
65	8	26	3	1	42
66	13	3	1	42	44
67	32	69	70	71	72
67	33	69	70	71	72
68	19	10	11	27	28
69	22	11	27	28	41
70	18	7	8	9	14
71	5	42	44	45	64
71	6	42	44	45	64
72	27	34	32	31	36
73	14	3	4	5	6
74	7	1	42	44	66
74	8	1	42	44	66
75	18	6	5	4	25
76	5	65	45	44	66
76	6	65	45	44	66
77	14	7	8	9	10
78	27	80	69	68	82
79	27	54	50	49	56
80	27	15	9	8	16
81	22	33	67	68	82
82	39	74	73	72	75
83	27	58	48	47	61
84	27	56	49	48	58
85	27	35	32	31	37
86	27	62	46	45	65
87	27	60	47	46	62
88	18	7	8	9	15
89	28	30	31	32	33
89	29	30	31	32	33
90	14	3	4	5	23
91	7	13	10	11	27
91	8	13	10	11	27
92	18	47	46	45	64
93	27	75	72	71	77
94	18	45	46	47	61
95	28	70	71	72	73
95	29	70	71	72	73
96	20	11	27	28	29
96	21	11	27	28	29
97	18	8	7	6	20
98	32	68	69	70	71
98	33	68	69	70	71
99	39	74	73	72	76
100	7	9	10	11	12
100	8	9	10	11	12
101	36	50	51	52	53
102	27	21	6	5	22
103	27	60	47	46	63
104	30	73	72	71	78
104	31	73	72	71	78
105	5	24	4	3	26
105	6	24	4	3	26
106	30	30	31	32	34
106	31	30	31	32	34
107	15	5	6	7	8
107	16	5	6	7	8
107	17	5	6	7	8
108	27	75	72	71	78
109	28	67	68	69	70
109	29	67	68	69	70
110	15	4	5	6	7
110	16	4	5	6	7
110	17	4	5	6	7
111	27	17	8	7	18
112	18	48	49	50	54
113	18	9	8	7	19
114	22	69	70	71	77
115	7	9	10	11	27
115	8	9	10	11	27
116	27	39	29	28	40
117	27	63	46	45	64
118	27	61	47	46	62
119	30	30	29	28	40
119	31	30	29	28	40
120	27	59	48	47	60
121	27	38	29	28	40
122	15	46	47	48	49
122	16	46	47	48	49
122	17	46	47	48	49
123	27	79	69	68	81
124	18	6	7	8	16
125	27	14	9	8	16
126	18	47	48	49	57
127	37	71	72	73	74
127	38	71	72	73	74
128	15	6	7	8	9
128	16	6	7	8	9
128	17	6	7	8	9
129	22	71	70	69	79
130	27	34	32	31	37
131	22	31	30	29	38
132	27	23	5	4	24
133	22	69	70	71	78
134	5	46	45	44	66
134	6	46	45	44	66
135	18	49	48	47	60
136	25	12	11	27	28
136	26	12	11	27	28
137	13	2	1	42	43
138	27	39	29	28	41
139	27	54	50	49	57
140	30	30	29	28	41
140	31	30	29	28	41
141	27	15	9	8	17
142	27	19	7	6	20
143	27	59	48	47	61
144	27	57	49	48	58
145	35	49	50	51	52
146	11	43	42	44	66
146	12	43	42	44	66
147	30	33	32	31	36
147	31	33	32	31	36
148	5	11	10	9	14
148	6	11	10	9	14
149	18	6	7	8	17
150	27	14	9	8	17
151	18	4	5	6	20
152	27	56	49	48	59
153	18	5	6	7	18
154	7	4	3	1	42
154	8	4	3	1	42
155	27	55	50	49	56
156	30	27	28	29	38
156	31	27	28	29	38
157	22	31	30	29	39
158	27	76	72	71	77
159	1	42	44	45	46
159	2	42	44	45	46
159	3	42	44	45	46
159	4	42	44	45	46
160	5	42	44	45	65
160	6	42	44	45	65
161	13	2	1	42	44
162	22	35	32	33	67
163	18	48	47	46	62
164	30	67	68	69	79
164	31	67	68	69	79
165	1	8	9	10	11
165	2	8	9	10	11
165	3	8	9	10	11
165	4	8	9	10	11
166	22	34	32	33	67
167	22	29	30	31	36
168	30	33	32	31	37
168	31	33	32	31	37
169	5	13	10	9	14
169	6	13	10	9	14
170	18	8	7	6	21
171	7	1	42	44	45
171	8	1	42	44	45
172	18	4	5	6	21
173	18	5	6	7	19
174	27	21	6	5	23
175	15	47	48	49	50
175	16	47	48	49	50
175	17	47	48	49	50
176	18	46	47	48	58
177	5	64	45	44	66
177	6	64	45	44	66
178	27	55	50	49	57
179	30	30	31	32	35
179	31	30	31	32	35
180	18	50	49	48	58
181	14	10	9	8	16
182	32	29	30	31	32
182	33	29	30	31	32
183	27	62	46	45	64
184	28	27	28	29	30
184	29	27	28	29	30
185	1	1	3	4	5
185	2	1	3	4	5
185	3	1	3	4	5
185	4	1	3	4	5
186	14	44	45	46	62
187	13	3	1	42	43
188	30	67	68	69	80
188	31	67	68	69	80
189	30	70	71	72	75
189	31	70	71	72	75
190	18	48	49	50	55
191	27	17	8	7	19

Impropers

111	1	44	66	42	45
133	1	10	13	9	11
149	2	1	2	3	42
168	1	3	4	26	1
176	2	42	1	43	44
178	1	3	26	1	4
196	1	10	11	13	9
211	1	44	45	66	42
221	2	1	3	42	2
254	1	44	42	45	66
258	2	42	44	1	43
281	2	42	43	44	1
388	3	11	10	12	27
410	3	11	12	27	10
430	3	11	27	10	12
449	2	1	42	2	3
472	1	3	1	4	26
479	1	10	9	11	13
