Title

75 atoms
74 bonds
137 angles
233 dihedrals
12 impropers

8 atom types
11 bond types
5 angle types
27 dihedral types
2 improper types
-10.85499954 89.14500046 xlo xhi
-1.827999949 98.17200005 ylo yhi
-3.845000029 96.15499997 zlo zhi
0.0 0.0 0.0 xy xz yz

Masses

1	15.99943
2	12.01078
3	1.007947
4	1.007947
5	12.01078
6	15.99943
7	15.99943
8	1.007947


Pair Coeffs

1	0.16846514	3.0251065
2	0.10884061	3.3795318
3	0.016409246	2.5832257
4	0.015779483	2.6445434
5	0.086879315	3.4806469
6	0.2102061	3.0398122
7	0.20947353	2.99716
8	1.2326e-05	0.53453923

Bond Coeffs

1 harmonic	366.7408841747	1.425895053732
2 harmonic	300.03137914615	1.451203938761
3 harmonic	264.62148576755	1.52190126495
4 harmonic	370.04670688625	1.093899492634
5 harmonic	301.15400723785	1.345741232799
6 harmonic	582.698766451	1.225198386222
7 harmonic	329.44145381095	1.523435958334
8 harmonic	279.1350963404	1.454628925034
9 harmonic	329.96998057905	1.427343958716
10 harmonic	543.5267831885	0.9716763312559
11 harmonic	385.7604595587	1.369745182308


Angle Coeffs

1 harmonic	53.20531626545	116.5475862634
2 harmonic	65.09061609600001	110.3538806181
3 harmonic	201.41175231035	127.4691416191
4 harmonic	57.8982893754	126.8062420451
5 harmonic	48.776492647595	115.6030999533


Dihedral Coeffs

1 fourier 1	0.1155372516788	3	0
2 fourier 1	0.1115525666802	3	0
3 fourier 1	0.3432490222662	1	0
4 fourier 1	0.0473758381877	3	0
5 fourier 1	0.457973137376	1	0
6 fourier 1	0.09223874044423	3	0
7 fourier 1	0.3159935921949	2	180
8 fourier 1	0.3247796806857	1	180
9 fourier 1	0.1040663847541	3	0
10 fourier 1	0.1918272375143	3	0
11 fourier 1	0.9202179876409	1	180
12 fourier 1	1.163809172478	2	180
13 fourier 1	0.1679186987369	1	180
14 fourier 1	2.779853741805	2	180
15 fourier 1	0.02664938770063	3	0
16 fourier 1	0.1911926717192	3	0
17 fourier 1	-0.3703352413219	2	0
18 fourier 1	0.4541676554336	1	0
19 fourier 1	0.1489710476446	2	0
20 fourier 1	0.02960027280666	3	180
21 fourier 1	0.9974165607242	2	180
22 fourier 1	0.3445382149273	3	0
23 fourier 1	0.1364556373303	1	0
24 fourier 1	0.3026390167484	3	0
25 fourier 1	2.687457892086	2	180
26 fourier 1	2.772607909663	2	180
27 fourier 1	0.09692684957115	1	0


Improper Coeffs

1 3.5	-1	2
2 0.3666666666666667	-1	2


Atoms

1	1	1	-0.17854001	-3.6329999	0.37200001	0.51899999
2	1	2	0.033280998	-2.4920001	0.52999997	-0.27900001
3	1	2	-0.14809	-1.2589999	-0.016000001	0.44600001
4	1	2	-0.14005101	0.0080000004	0.178	-0.396
5	1	2	-0.14185999	1.2410001	-0.37	0.33199999
6	1	2	0.13516	2.5079999	-0.178	-0.50599998
7	1	1	-0.494515	3.6170001	-0.713	0.163
8	1	3	0.079149999	2.671	0.903	-0.72000003
9	1	3	0.079149999	2.395	-0.70700002	-1.476
10	1	4	0.086097002	1.363	0.15700001	1.303
11	1	4	0.086097002	1.102	-1.455	0.53500003
12	1	4	0.083894998	-0.111	-0.352	-1.367
13	1	4	0.083894998	0.153	1.262	-0.59899998
14	1	4	0.087116003	-1.406	-1.099	0.65100002
15	1	4	0.087116003	-1.145	0.51499999	1.4170001
16	1	3	0.078768	-2.6289999	0.011	-1.255
17	1	3	0.078768	-2.3529999	1.613	-0.48300001
18	1	5	0.76172203	3.869	-0.035	0.91000003
19	1	6	-0.55483299	3.3540001	1.071	0.91500002
20	1	2	-0.208616	4.8270001	-0.44	1.993
21	1	2	-0.115977	6.2080002	0.211	1.824
22	1	2	-0.130817	6.2090001	1.702	2.1930001
23	1	2	-0.097687997	7.6259999	2.2839999	2.1240001
24	1	2	-0.257673	7.6269999	3.773	2.484
25	1	5	0.51703101	9.0089998	4.3460002	2.3929999
26	1	6	-0.68707001	9.8859997	3.9719999	3.155
27	1	4	0.113648	6.9640002	4.3260002	1.783
28	1	4	0.113648	7.2420001	3.9170001	3.517
29	1	4	0.076943003	8.2840004	1.733	2.8310001
30	1	4	0.076943003	8.0270004	2.155	1.094
31	1	4	0.074132003	5.8109999	1.8279999	3.224
32	1	4	0.074132003	5.5560002	2.2609999	1.49
33	1	4	0.085735999	6.5599999	0.078000002	0.77700001
34	1	4	0.085735999	6.921	-0.322	2.4890001
35	1	4	0.116901	4.3979998	-0.199	2.9890001
36	1	4	0.116901	4.9549999	-1.543	1.944
37	1	1	-0.17854001	-3.8870001	-0.58700001	0.46399999
38	1	2	0.033280998	-4.5960002	-0.745	-0.73400003
39	1	2	-0.14803401	-6.0190001	-0.199	-0.58399999
40	1	2	-0.134554	-6.8239999	-0.39300001	-1.874
41	1	2	-0.17001	-8.2480001	0.155	-1.722
42	1	2	0.086474001	-9.0539999	-0.037	-3.0079999
43	1	7	-0.684614	-10.341	0.498	-2.858
44	1	8	0.37799901	-10.855	-0.149	-2.3069999
45	1	3	0.069101997	-9.1140003	-1.118	-3.27
46	1	3	0.069101997	-8.5500002	0.49200001	-3.845
47	1	4	0.089469001	-8.7609997	-0.37200001	-0.88800001
48	1	4	0.089469001	-8.2049999	1.24	-1.479
49	1	4	0.084072001	-6.3130002	0.13699999	-2.7090001
50	1	4	0.084072001	-6.8720002	-1.477	-2.1199999
51	1	4	0.087116003	-5.9689999	0.884	-0.33700001
52	1	4	0.087116003	-6.5240002	-0.73000002	0.25299999
53	1	3	0.078768	-4.0669999	-0.226	-1.567
54	1	3	0.078768	-4.638	-1.8279999	-0.977
55	1	5	0.51703101	9.2320004	5.1110001	1.655
56	1	6	-0.68707001	9.177	6.2849998	1.98
57	1	2	-0.257673	9.6090002	4.7410002	0.249
58	1	2	-0.097687997	9.585	3.223	0.017999999
59	1	2	-0.130817	8.1549997	2.6619999	-0.0049999999
60	1	2	-0.11346	8.1630001	1.15	-0.27399999
61	1	2	-0.218713	6.7519999	0.54699999	-0.23999999
62	1	5	0.82386303	5.9190001	1.016	-1.393
63	1	6	-0.55628699	6.0739999	0.50400001	-2.5339999
64	1	7	-0.665438	4.9970002	2.0420001	-1.21
65	1	8	0.39418799	4.4359999	2.3800001	-1.983
66	1	4	0.117925	6.25	0.80599999	0.71700001
67	1	4	0.117925	6.8330002	-0.56099999	-0.285
68	1	4	0.085735999	8.6350002	0.94199997	-1.2589999
69	1	4	0.085735999	8.7729998	0.648	0.50800002
70	1	4	0.074132003	7.6599998	2.8570001	0.97100002
71	1	4	0.074132003	7.5770001	3.178	-0.80199999
72	1	4	0.076943003	10.069	3.013	-0.96100003
73	1	4	0.076943003	10.183	2.714	0.80599999
74	1	4	0.113648	10.636	5.1149998	0.052999999
75	1	4	0.113648	8.9209995	5.243	-0.465

Bonds

1	1	1	2
2	2	1	37
3	3	2	3
4	4	2	16
5	4	2	17
6	3	3	4
7	4	3	14
8	4	3	15
9	3	4	5
10	4	4	12
11	4	4	13
12	3	5	6
13	4	5	10
14	4	5	11
15	1	6	7
16	4	6	8
17	4	6	9
18	5	7	18
19	6	18	19
20	7	18	20
21	3	20	21
22	4	20	35
23	4	20	36
24	3	21	22
25	4	21	33
26	4	21	34
27	3	22	23
28	4	22	31
29	4	22	32
30	3	23	24
31	4	23	29
32	4	23	30
33	7	24	25
34	4	24	27
35	4	24	28
36	6	25	26
37	8	25	55
38	1	37	38
39	3	38	39
40	4	38	53
41	4	38	54
42	3	39	40
43	4	39	51
44	4	39	52
45	3	40	41
46	4	40	49
47	4	40	50
48	3	41	42
49	4	41	47
50	4	41	48
51	9	42	43
52	4	42	45
53	4	42	46
54	10	43	44
55	6	55	56
56	7	55	57
57	3	57	58
58	4	57	74
59	4	57	75
60	3	58	59
61	4	58	72
62	4	58	73
63	3	59	60
64	4	59	70
65	4	59	71
66	3	60	61
67	4	60	68
68	4	60	69
69	7	61	62
70	4	61	66
71	4	61	67
72	6	62	63
73	11	62	64
74	10	64	65

Angles

1	1	18	20	35
2	1	61	60	68
3	1	55	57	75
4	1	6	5	10
5	1	55	57	58
6	1	60	61	66
7	5	68	60	69
8	1	59	60	69
9	1	62	61	67
10	1	5	4	13
11	2	62	64	65
12	1	39	40	41
13	1	58	59	60
14	1	38	39	51
15	1	5	6	9
16	1	59	60	61
17	1	22	23	24
18	1	38	39	52
19	2	42	43	44
20	1	60	61	62
21	1	43	42	46
22	1	39	40	49
23	1	4	5	10
24	1	41	40	49
25	1	60	61	67
26	4	25	55	56
27	1	18	20	21
28	5	29	23	30
29	1	4	5	6
30	1	24	23	29
31	5	10	5	11
32	1	37	38	54
33	4	19	18	20
34	1	21	22	32
35	2	2	1	37
36	2	6	7	18
37	1	37	38	53
38	1	40	39	51
39	1	7	6	9
40	1	21	20	35
41	5	16	2	17
42	1	39	40	50
43	2	1	37	38
44	5	72	58	73
45	1	20	21	33
46	1	59	60	68
47	1	22	21	34
48	4	26	25	55
49	1	2	3	15
50	5	66	61	67
51	1	23	24	28
52	1	23	22	32
53	1	42	41	47
54	5	8	6	9
55	1	41	42	45
56	1	42	41	48
57	1	41	42	43
58	5	12	4	13
59	1	40	41	42
60	1	22	23	29
61	4	24	25	55
62	1	25	24	28
63	1	2	3	14
64	1	37	38	39
65	5	49	40	50
66	1	57	58	73
67	1	24	23	30
68	1	1	2	16
69	1	3	2	16
70	1	60	59	70
71	1	40	39	52
72	1	41	40	50
73	4	7	18	20
74	5	51	39	52
75	1	5	6	8
76	1	23	24	25
77	1	1	2	3
78	1	4	3	15
79	1	41	42	46
80	4	56	55	57
81	4	24	25	26
82	1	58	57	74
83	1	18	20	36
84	5	70	59	71
85	1	39	38	54
86	1	5	6	7
87	1	3	4	13
88	1	20	21	22
89	1	22	21	33
90	1	61	60	69
91	1	57	58	59
92	1	60	59	71
93	1	20	21	34
94	1	58	59	71
95	1	40	41	47
96	4	61	62	64
97	5	47	41	48
98	1	23	24	27
99	1	40	41	48
100	1	22	23	30
101	5	45	42	46
102	1	59	58	73
103	1	3	4	12
104	4	25	55	57
105	1	6	5	11
106	5	27	24	28
107	1	59	58	72
108	1	58	57	75
109	1	21	22	31
110	1	25	24	27
111	1	57	58	72
112	5	74	57	75
113	1	7	6	8
114	3	63	62	64
115	1	3	4	5
116	1	58	59	70
117	1	5	4	12
118	1	38	39	40
119	3	7	18	19
120	5	14	3	15
121	1	55	57	74
122	1	4	5	11
123	1	43	42	45
124	1	62	61	66
125	5	31	22	32
126	1	21	22	23
127	5	33	21	34
128	1	23	22	31
129	1	1	2	17
130	5	35	20	36
131	4	61	62	63
132	1	3	2	17
133	1	2	3	4
134	1	21	20	36
135	5	53	38	54
136	1	39	38	53
137	1	4	3	14

Dihedrals

1	16	66	61	60	68
2	1	62	61	60	69
3	10	5	6	7	18
3	11	5	6	7	18
4	9	22	21	20	35
5	16	15	3	2	17
6	2	1	2	3	14
6	3	1	2	3	14
7	18	56	55	57	74
7	19	56	55	57	74
7	20	56	55	57	74
8	16	12	4	3	15
9	16	52	39	38	53
10	9	4	5	6	8
11	15	7	18	20	36
12	16	8	6	5	10
13	4	17	2	1	37
14	4	1	37	38	54
15	16	14	3	2	17
16	16	50	40	39	51
17	16	30	23	22	31
18	16	28	24	23	30
19	16	33	21	20	35
20	9	58	59	60	68
21	1	55	57	58	59
22	16	48	41	40	49
23	1	4	5	6	7
24	4	1	37	38	53
25	22	41	42	43	44
25	23	41	42	43	44
26	16	12	4	3	14
27	15	25	55	57	75
28	9	60	59	58	72
29	18	26	25	24	27
29	19	26	25	24	27
29	20	26	25	24	27
30	9	24	23	22	32
31	16	31	22	21	34
32	16	67	61	60	69
33	9	3	4	5	11
34	16	29	23	22	32
35	18	56	55	57	75
35	19	56	55	57	75
35	20	56	55	57	75
36	9	20	21	22	32
37	6	2	3	4	5
37	7	2	3	4	5
37	8	2	3	4	5
38	16	67	61	60	68
39	9	40	39	38	54
40	4	16	2	1	37
41	16	34	21	20	35
42	1	55	57	58	72
43	9	41	40	39	52
44	16	13	4	3	14
45	16	32	22	21	33
46	16	45	42	41	47
47	1	18	20	21	22
48	16	69	60	59	70
49	18	19	18	20	36
49	19	19	18	20	36
49	20	19	18	20	36
50	2	7	6	5	11
50	3	7	6	5	11
51	16	45	42	41	48
52	15	28	24	25	55
53	6	21	22	23	24
53	7	21	22	23	24
53	8	21	22	23	24
54	1	18	20	21	34
55	1	1	2	3	4
56	17	23	24	25	26
57	15	25	55	57	74
58	21	24	25	55	57
59	16	48	41	40	50
60	9	5	4	3	15
61	6	39	40	41	42
61	7	39	40	41	42
61	8	39	40	41	42
62	2	43	42	41	47
62	3	43	42	41	47
63	14	6	7	18	20
64	1	62	61	60	68
65	16	47	41	40	49
66	2	43	42	41	48
66	3	43	42	41	48
67	9	4	3	2	17
68	4	1	37	38	39
69	9	40	41	42	45
70	1	40	41	42	43
71	16	9	6	5	11
72	16	71	59	58	73
73	16	15	3	2	16
74	15	60	61	62	64
75	16	69	60	59	71
76	16	11	5	4	13
77	15	7	18	20	35
78	5	2	1	37	38
79	16	50	40	39	52
80	16	73	58	57	75
81	15	25	55	57	58
82	9	3	4	5	10
83	16	14	3	2	16
84	16	49	40	39	51
85	16	11	5	4	12
86	17	56	55	57	58
87	16	47	41	40	50
88	16	70	59	58	73
89	6	3	4	5	6
89	7	3	4	5	6
89	8	3	4	5	6
90	2	7	6	5	10
90	3	7	6	5	10
91	16	31	22	21	33
92	9	23	22	21	34
93	9	22	23	24	28
94	9	40	39	38	53
95	16	33	21	20	36
96	9	4	5	6	9
97	21	26	25	55	56
98	16	46	42	41	47
99	16	73	58	57	74
100	18	26	25	24	28
100	19	26	25	24	28
100	20	26	25	24	28
101	16	46	42	41	48
102	9	40	41	42	46
103	16	68	60	59	71
104	1	37	38	39	40
105	16	10	5	4	13
106	1	59	60	61	62
107	15	7	18	20	21
108	16	9	6	5	10
109	9	42	41	40	49
110	6	38	39	40	41
110	7	38	39	40	41
110	8	38	39	40	41
111	9	39	40	41	47
112	9	59	60	61	67
113	1	18	20	21	33
114	1	25	24	23	29
115	9	21	22	23	29
116	16	34	21	20	36
117	9	39	40	41	48
118	17	60	61	62	63
119	16	32	22	21	34
120	16	51	39	38	54
121	9	6	5	4	13
122	4	8	6	7	18
123	16	10	5	4	12
124	9	21	22	23	30
125	16	71	59	58	72
126	18	63	62	61	67
126	19	63	62	61	67
126	20	63	62	61	67
127	9	5	4	3	14
128	4	3	2	1	37
129	9	38	39	40	49
130	9	22	21	20	36
131	9	24	23	22	31
132	16	68	60	59	70
133	9	6	5	4	12
134	16	29	23	22	31
135	16	66	61	60	69
136	9	20	21	22	31
137	26	63	62	64	65
137	27	63	62	64	65
138	24	44	43	42	45
139	9	61	60	59	70
140	9	59	60	61	66
141	16	52	39	38	54
142	9	57	58	59	70
143	1	22	23	24	25
144	16	49	40	39	52
145	17	19	18	20	21
146	9	42	41	40	50
147	9	2	3	4	13
148	2	37	38	39	51
148	3	37	38	39	51
149	16	70	59	58	72
150	18	63	62	61	66
150	19	63	62	61	66
150	20	63	62	61	66
151	15	23	24	25	55
152	16	8	6	5	11
153	16	28	24	23	29
154	9	58	59	60	69
155	2	37	38	39	52
155	3	37	38	39	52
156	4	9	6	7	18
157	15	27	24	25	55
158	16	72	58	57	74
159	9	2	3	4	12
160	16	30	23	22	32
161	18	19	18	20	35
161	19	19	18	20	35
161	20	19	18	20	35
162	12	6	7	18	19
162	13	6	7	18	19
163	9	23	22	21	33
164	6	20	21	22	23
164	7	20	21	22	23
164	8	20	21	22	23
165	9	22	23	24	27
166	21	26	25	55	57
167	9	38	39	40	50
168	6	58	59	60	61
168	7	58	59	60	61
168	8	58	59	60	61
169	9	60	59	58	73
170	9	59	58	57	74
171	15	64	62	61	67
172	9	61	60	59	71
173	16	13	4	3	15
174	16	27	24	23	29
175	9	57	58	59	71
176	16	27	24	23	30
177	9	41	40	39	51
178	1	25	24	23	30
179	1	55	57	58	73
180	9	4	3	2	16
181	16	51	39	38	53
182	2	1	2	3	15
182	3	1	2	3	15
183	24	44	43	42	46
184	6	57	58	59	60
184	7	57	58	59	60
184	8	57	58	59	60
185	16	72	58	57	75
186	15	64	62	61	66
187	21	24	25	55	56
188	25	61	62	64	65
189	9	59	58	57	75

Impropers

24	1	62	63	64	61
81	1	62	64	61	63
110	2	25	55	24	26
117	1	18	19	20	7
148	2	55	25	56	57
165	2	25	24	26	55
213	1	62	61	63	64
331	2	55	56	57	25
344	1	18	7	19	20
345	2	25	26	55	24
454	1	18	20	7	19
499	2	55	57	25	56
