Title

75 atoms
74 bonds
137 angles
233 dihedrals
12 impropers

8 atom types
11 bond types
5 angle types
27 dihedral types
2 improper types
-10.85499954 89.14500046 xlo xhi
-1.827999949 98.17200005 ylo yhi
-3.845000029 96.15499997 zlo zhi
0.0 0.0 0.0 xy xz yz

Masses

1	15.99943
2	12.01078
3	1.007947
4	1.007947
5	12.01078
6	15.99943
7	15.99943
8	1.007947


Pair Coeffs

1	0.16846514	3.0251065
2	0.10884061	3.3795318
3	0.016409246	2.5832257
4	0.015779483	2.6445434
5	0.086879315	3.4806469
6	0.2102061	3.0398122
7	0.20947353	2.99716
8	1.2326e-05	0.53453923

Bond Coeffs

1 harmonic	366.7408841747	1.425895053732
2 harmonic	300.03137914615	1.451203938761
3 harmonic	264.62148576755	1.52190126495
4 harmonic	370.04670688625	1.093899492634
5 harmonic	301.15400723785	1.345741232799
6 harmonic	582.698766451	1.225198386222
7 harmonic	329.44145381095	1.523435958334
8 harmonic	279.1350963404	1.454628925034
9 harmonic	329.96998057905	1.427343958716
10 harmonic	543.5267831885	0.9716763312559
11 harmonic	385.7604595587	1.369745182308


Angle Coeffs

1 harmonic	53.20531626545	116.5475862634
2 harmonic	65.09061609600001	110.3538806181
3 harmonic	201.41175231035	127.4691416191
4 harmonic	57.8982893754	126.8062420451
5 harmonic	48.776492647595	115.6030999533


Dihedral Coeffs

1 fourier 1	0.1155372516788	3	0
2 fourier 1	0.1115525666802	3	0
3 fourier 1	0.3432490222662	1	0
4 fourier 1	0.0473758381877	3	0
5 fourier 1	0.457973137376	1	0
6 fourier 1	0.09223874044423	3	0
7 fourier 1	0.3159935921949	2	180
8 fourier 1	0.3247796806857	1	180
9 fourier 1	0.1040663847541	3	0
10 fourier 1	0.1918272375143	3	0
11 fourier 1	0.9202179876409	1	180
12 fourier 1	1.163809172478	2	180
13 fourier 1	0.1679186987369	1	180
14 fourier 1	2.779853741805	2	180
15 fourier 1	0.02664938770063	3	0
16 fourier 1	0.1911926717192	3	0
17 fourier 1	-0.3703352413219	2	0
18 fourier 1	0.4541676554336	1	0
19 fourier 1	0.1489710476446	2	0
20 fourier 1	0.02960027280666	3	180
21 fourier 1	0.9974165607242	2	180
22 fourier 1	0.3445382149273	3	0
23 fourier 1	0.1364556373303	1	0
24 fourier 1	0.3026390167484	3	0
25 fourier 1	2.687457892086	2	180
26 fourier 1	2.772607909663	2	180
27 fourier 1	0.09692684957115	1	0


Improper Coeffs

1 3.5	-1	2
2 0.3666666666666667	-1	2


Atoms

1	1	1	-0.17854001	-3.6329999	0.37200001	0.51899999
2	1	2	0.033280998	-2.4920001	0.52999997	-0.27900001
3	1	2	-0.14809	-1.2589999	-0.016000001	0.44600001
4	1	2	-0.14005101	0.0080000004	0.178	-0.396
5	1	2	-0.14185999	1.2410001	-0.37	0.33199999
6	1	2	0.13516	2.5079999	-0.178	-0.50599998
7	1	1	-0.494515	3.6170001	-0.713	0.163
8	1	3	0.079149999	2.671	0.903	-0.72000003
9	1	3	0.079149999	2.395	-0.70700002	-1.476
10	1	4	0.086097002	1.363	0.15700001	1.303
11	1	4	0.086097002	1.102	-1.455	0.53500003
12	1	4	0.083894998	-0.111	-0.352	-1.367
13	1	4	0.083894998	0.153	1.262	-0.59899998
14	1	4	0.087116003	-1.406	-1.099	0.65100002
15	1	4	0.087116003	-1.145	0.51499999	1.4170001
16	1	3	0.078768	-2.6289999	0.011	-1.255
17	1	3	0.078768	-2.3529999	1.613	-0.48300001
18	1	5	0.76172203	3.869	-0.035	0.91000003
19	1	6	-0.55483299	3.3540001	1.071	0.91500002
20	1	2	-0.208616	4.8270001	-0.44	1.993
21	1	2	-0.115977	6.2080002	0.211	1.824
22	1	2	-0.130817	6.2090001	1.702	2.1930001
23	1	2	-0.097687997	7.6259999	2.2839999	2.1240001
24	1	2	-0.257673	7.6269999	3.773	2.484
25	1	5	0.51703101	9.0089998	4.3460002	2.3929999
26	1	6	-0.68707001	9.8859997	3.9719999	3.155
27	1	4	0.113648	6.9640002	4.3260002	1.783
28	1	4	0.113648	7.2420001	3.9170001	3.517
29	1	4	0.076943003	8.2840004	1.733	2.8310001
30	1	4	0.076943003	8.0270004	2.155	1.094
31	1	4	0.074132003	5.8109999	1.8279999	3.224
32	1	4	0.074132003	5.5560002	2.2609999	1.49
33	1	4	0.085735999	6.5599999	0.078000002	0.77700001
34	1	4	0.085735999	6.921	-0.322	2.4890001
35	1	4	0.116901	4.3979998	-0.199	2.9890001
36	1	4	0.116901	4.9549999	-1.543	1.944
37	1	1	-0.17854001	-3.8870001	-0.58700001	0.46399999
38	1	2	0.033280998	-4.5960002	-0.745	-0.73400003
39	1	2	-0.14803401	-6.0190001	-0.199	-0.58399999
40	1	2	-0.134554	-6.8239999	-0.39300001	-1.874
41	1	2	-0.17001	-8.2480001	0.155	-1.722
42	1	2	0.086474001	-9.0539999	-0.037	-3.0079999
43	1	7	-0.684614	-10.341	0.498	-2.858
44	1	8	0.37799901	-10.855	-0.149	-2.3069999
45	1	3	0.069101997	-9.1140003	-1.118	-3.27
46	1	3	0.069101997	-8.5500002	0.49200001	-3.845
47	1	4	0.089469001	-8.7609997	-0.37200001	-0.88800001
48	1	4	0.089469001	-8.2049999	1.24	-1.479
49	1	4	0.084072001	-6.3130002	0.13699999	-2.7090001
50	1	4	0.084072001	-6.8720002	-1.477	-2.1199999
51	1	4	0.087116003	-5.9689999	0.884	-0.33700001
52	1	4	0.087116003	-6.5240002	-0.73000002	0.25299999
53	1	3	0.078768	-4.0669999	-0.226	-1.567
54	1	3	0.078768	-4.638	-1.8279999	-0.977
55	1	5	0.51703101	9.2320004	5.1110001	1.655
56	1	6	-0.68707001	9.177	6.2849998	1.98
57	1	2	-0.257673	9.6090002	4.7410002	0.249
58	1	2	-0.097687997	9.585	3.223	0.017999999
59	1	2	-0.130817	8.1549997	2.6619999	-0.0049999999
60	1	2	-0.11346	8.1630001	1.15	-0.27399999
61	1	2	-0.218713	6.7519999	0.54699999	-0.23999999
62	1	5	0.82386303	5.9190001	1.016	-1.393
63	1	6	-0.55628699	6.0739999	0.50400001	-2.5339999
64	1	7	-0.665438	4.9970002	2.0420001	-1.21
65	1	8	0.39418799	4.4359999	2.3800001	-1.983
66	1	4	0.117925	6.25	0.80599999	0.71700001
67	1	4	0.117925	6.8330002	-0.56099999	-0.285
68	1	4	0.085735999	8.6350002	0.94199997	-1.2589999
69	1	4	0.085735999	8.7729998	0.648	0.50800002
70	1	4	0.074132003	7.6599998	2.8570001	0.97100002
71	1	4	0.074132003	7.5770001	3.178	-0.80199999
72	1	4	0.076943003	10.069	3.013	-0.96100003
73	1	4	0.076943003	10.183	2.714	0.80599999
74	1	4	0.113648	10.636	5.1149998	0.052999999
75	1	4	0.113648	8.9209995	5.243	-0.465

Bonds

1	1	1	2
2	2	1	37
3	3	2	3
4	4	2	16
5	4	2	17
6	3	3	4
7	4	3	14
8	4	3	15
9	3	4	5
10	4	4	12
11	4	4	13
12	3	5	6
13	4	5	10
14	4	5	11
15	1	6	7
16	4	6	8
17	4	6	9
18	5	7	18
19	6	18	19
20	7	18	20
21	3	20	21
22	4	20	35
23	4	20	36
24	3	21	22
25	4	21	33
26	4	21	34
27	3	22	23
28	4	22	31
29	4	22	32
30	3	23	24
31	4	23	29
32	4	23	30
33	7	24	25
34	4	24	27
35	4	24	28
36	6	25	26
37	8	25	55
38	1	37	38
39	3	38	39
40	4	38	53
41	4	38	54
42	3	39	40
43	4	39	51
44	4	39	52
45	3	40	41
46	4	40	49
47	4	40	50
48	3	41	42
49	4	41	47
50	4	41	48
51	9	42	43
52	4	42	45
53	4	42	46
54	10	43	44
55	6	55	56
56	7	55	57
57	3	57	58
58	4	57	74
59	4	57	75
60	3	58	59
61	4	58	72
62	4	58	73
63	3	59	60
64	4	59	70
65	4	59	71
66	3	60	61
67	4	60	68
68	4	60	69
69	7	61	62
70	4	61	66
71	4	61	67
72	6	62	63
73	11	62	64
74	10	64	65

Angles

1	1	4	5	11
2	2	42	43	44
3	1	2	3	4
4	1	40	39	51
5	1	1	2	17
6	1	5	6	8
7	5	47	41	48
8	1	39	40	49
9	5	16	2	17
10	1	40	41	47
11	1	22	21	33
12	1	21	20	36
13	5	74	57	75
14	1	59	58	73
15	2	2	1	37
16	1	4	5	6
17	1	4	3	14
18	1	40	39	52
19	1	5	6	9
20	1	22	23	30
21	5	35	20	36
22	4	25	55	56
23	1	58	59	60
24	1	40	41	48
25	1	22	21	34
26	1	20	21	22
27	5	53	38	54
28	4	24	25	26
29	4	26	25	55
30	5	49	40	50
31	5	10	5	11
32	1	60	61	62
33	1	23	24	28
34	5	12	4	13
35	2	6	7	18
36	1	38	39	40
37	4	25	55	57
38	1	18	20	36
39	1	20	21	34
40	1	42	41	47
41	5	66	61	67
42	1	7	6	8
43	1	37	38	53
44	2	1	37	38
45	1	37	38	39
46	1	41	40	49
47	1	24	23	29
48	1	57	58	59
49	5	27	24	28
50	1	6	5	10
51	5	45	42	46
52	1	23	22	31
53	4	61	62	63
54	1	25	24	27
55	1	60	59	70
56	1	23	24	25
57	1	42	41	48
58	1	39	40	50
59	1	38	39	51
60	1	37	38	54
61	1	41	40	50
62	1	60	61	66
63	5	70	59	71
64	1	24	23	30
65	4	19	18	20
66	5	51	39	52
67	2	62	64	65
68	1	21	22	31
69	1	22	23	24
70	1	41	42	43
71	1	1	2	3
72	1	59	60	68
73	1	41	42	46
74	1	23	22	32
75	1	4	3	15
76	1	43	42	46
77	1	60	59	71
78	5	31	22	32
79	1	38	39	52
80	1	3	2	16
81	1	60	61	67
82	1	39	38	53
83	1	55	57	58
84	1	3	4	12
85	1	59	60	69
86	1	21	22	23
87	5	8	6	9
88	4	24	25	55
89	1	40	41	42
90	1	55	57	74
91	1	18	20	21
92	1	2	3	14
93	1	39	38	54
94	1	1	2	16
95	1	5	6	7
96	1	62	61	66
97	1	3	4	13
98	1	4	5	10
99	1	6	5	11
100	1	7	6	9
101	4	56	55	57
102	1	59	60	61
103	1	61	60	68
104	1	2	3	15
105	1	59	58	72
106	1	39	40	41
107	1	58	57	74
108	4	61	62	64
109	5	14	3	15
110	1	25	24	28
111	3	63	62	64
112	3	7	18	19
113	1	62	61	67
114	1	22	23	29
115	1	58	59	70
116	1	3	4	5
117	1	5	4	12
118	1	61	60	69
119	1	57	58	72
120	1	21	22	32
121	1	58	57	75
122	4	7	18	20
123	1	23	24	27
124	5	29	23	30
125	1	58	59	71
126	1	3	2	17
127	1	18	20	35
128	1	20	21	33
129	5	72	58	73
130	1	5	4	13
131	1	57	58	73
132	5	68	60	69
133	1	41	42	45
134	1	43	42	45
135	1	55	57	75
136	5	33	21	34
137	1	21	20	35

Dihedrals

1	9	3	4	5	11
2	6	38	39	40	41
2	7	38	39	40	41
2	8	38	39	40	41
3	9	6	5	4	13
4	1	18	20	21	34
5	16	34	21	20	36
6	4	8	6	7	18
7	6	20	21	22	23
7	7	20	21	22	23
7	8	20	21	22	23
8	15	28	24	25	55
9	15	23	24	25	55
10	9	4	3	2	17
11	16	15	3	2	17
12	6	58	59	60	61
12	7	58	59	60	61
12	8	58	59	60	61
13	15	7	18	20	36
14	16	66	61	60	68
15	1	55	57	58	59
16	16	31	22	21	34
17	16	30	23	22	32
18	2	43	42	41	47
18	3	43	42	41	47
19	18	19	18	20	36
19	19	19	18	20	36
19	20	19	18	20	36
20	9	39	40	41	48
21	15	64	62	61	66
22	16	8	6	5	10
23	2	1	2	3	15
23	3	1	2	3	15
24	4	3	2	1	37
25	16	13	4	3	14
26	9	20	21	22	31
27	17	19	18	20	21
28	9	5	4	3	14
29	1	18	20	21	22
30	18	26	25	24	28
30	19	26	25	24	28
30	20	26	25	24	28
31	21	24	25	55	56
32	16	14	3	2	16
33	15	25	55	57	58
34	16	12	4	3	14
35	2	43	42	41	48
35	3	43	42	41	48
36	9	59	58	57	74
37	9	42	41	40	49
38	15	25	55	57	74
39	15	64	62	61	67
40	16	28	24	23	29
41	16	50	40	39	51
42	16	10	5	4	12
43	9	40	39	38	53
44	9	59	60	61	66
45	16	46	42	41	48
46	6	39	40	41	42
46	7	39	40	41	42
46	8	39	40	41	42
47	16	27	24	23	30
48	9	41	40	39	51
49	1	55	57	58	72
50	1	37	38	39	40
51	16	73	58	57	74
52	6	21	22	23	24
52	7	21	22	23	24
52	8	21	22	23	24
53	9	20	21	22	32
54	16	72	58	57	74
55	9	59	58	57	75
56	9	38	39	40	49
57	9	42	41	40	50
58	1	59	60	61	62
59	9	21	22	23	29
60	9	57	58	59	71
61	9	40	39	38	54
62	4	16	2	1	37
63	18	63	62	61	66
63	19	63	62	61	66
63	20	63	62	61	66
64	16	73	58	57	75
65	16	69	60	59	70
66	9	22	23	24	27
67	16	29	23	22	31
68	16	72	58	57	75
69	15	7	18	20	21
70	16	9	6	5	10
71	9	24	23	22	31
72	16	33	21	20	35
73	2	37	38	39	51
73	3	37	38	39	51
74	1	1	2	3	4
75	16	66	61	60	69
76	9	40	41	42	45
77	16	9	6	5	11
78	16	8	6	5	11
79	1	62	61	60	68
80	12	6	7	18	19
80	13	6	7	18	19
81	1	25	24	23	29
82	9	22	21	20	35
83	24	44	43	42	46
84	9	60	59	58	72
85	16	33	21	20	36
86	9	23	22	21	33
87	25	61	62	64	65
88	1	4	5	6	7
89	16	48	41	40	49
90	16	51	39	38	53
91	16	45	42	41	47
92	16	49	40	39	51
93	2	37	38	39	52
93	3	37	38	39	52
94	16	13	4	3	15
95	17	60	61	62	63
96	9	5	4	3	15
97	2	7	6	5	10
97	3	7	6	5	10
98	21	24	25	55	57
99	16	14	3	2	17
100	16	12	4	3	15
101	9	58	59	60	68
102	1	25	24	23	30
103	15	25	55	57	75
104	16	47	41	40	49
105	9	22	21	20	36
106	16	71	59	58	72
107	16	28	24	23	30
108	16	50	40	39	52
109	6	57	58	59	60
109	7	57	58	59	60
109	8	57	58	59	60
110	16	70	59	58	73
111	16	10	5	4	13
112	22	41	42	43	44
112	23	41	42	43	44
113	4	1	37	38	53
114	16	70	59	58	72
115	9	59	60	61	67
116	16	51	39	38	54
117	16	49	40	39	52
118	9	41	40	39	52
119	1	55	57	58	73
120	9	6	5	4	12
121	17	23	24	25	26
122	9	4	3	2	16
123	16	15	3	2	16
124	16	67	61	60	68
125	16	68	60	59	70
126	9	38	39	40	50
127	9	3	4	5	10
128	9	21	22	23	30
129	26	63	62	64	65
129	27	63	62	64	65
130	15	27	24	25	55
131	16	47	41	40	50
132	16	32	22	21	33
133	16	71	59	58	73
134	16	11	5	4	12
135	18	63	62	61	67
135	19	63	62	61	67
135	20	63	62	61	67
136	16	31	22	21	33
137	16	30	23	22	31
138	9	2	3	4	12
139	18	19	18	20	35
139	19	19	18	20	35
139	20	19	18	20	35
140	9	39	40	41	47
141	16	69	60	59	71
142	9	22	23	24	28
143	16	29	23	22	32
144	16	68	60	59	71
145	9	24	23	22	32
146	16	67	61	60	69
147	16	52	39	38	53
148	2	1	2	3	14
148	3	1	2	3	14
149	9	61	60	59	70
150	16	32	22	21	34
151	16	11	5	4	13
152	10	5	6	7	18
152	11	5	6	7	18
153	18	26	25	24	27
153	19	26	25	24	27
153	20	26	25	24	27
154	1	62	61	60	69
155	9	2	3	4	13
156	14	6	7	18	20
157	17	56	55	57	58
158	6	3	4	5	6
158	7	3	4	5	6
158	8	3	4	5	6
159	2	7	6	5	11
159	3	7	6	5	11
160	5	2	1	37	38
161	18	56	55	57	74
161	19	56	55	57	74
161	20	56	55	57	74
162	9	60	59	58	73
163	9	23	22	21	34
164	21	26	25	55	56
165	16	52	39	38	54
166	9	4	5	6	8
167	16	48	41	40	50
168	16	46	42	41	47
169	4	1	37	38	39
170	16	45	42	41	48
171	9	61	60	59	71
172	16	27	24	23	29
173	1	18	20	21	33
174	15	60	61	62	64
175	16	34	21	20	35
176	1	22	23	24	25
177	9	58	59	60	69
178	4	9	6	7	18
179	4	17	2	1	37
180	6	2	3	4	5
180	7	2	3	4	5
180	8	2	3	4	5
181	9	57	58	59	70
182	24	44	43	42	45
183	15	7	18	20	35
184	18	56	55	57	75
184	19	56	55	57	75
184	20	56	55	57	75
185	1	40	41	42	43
186	9	40	41	42	46
187	21	26	25	55	57
188	4	1	37	38	54
189	9	4	5	6	9

Impropers

78	1	62	63	64	61
83	1	18	20	7	19
104	1	62	61	63	64
186	1	62	64	61	63
222	2	25	24	26	55
273	1	18	19	20	7
288	2	55	57	25	56
306	2	25	26	55	24
358	1	18	7	19	20
362	2	55	25	56	57
423	2	55	56	57	25
448	2	25	55	24	26
