Title

11750 atoms
11875 bonds
22500 angles
47000 dihedrals
2250 impropers

11 atom types
14 bond types
9 angle types
35 dihedral types
3 improper types
-8.372688196 88.1849498 xlo xhi
-8.177752466 87.8384015 ylo yhi
-8.457113803 87.72355318 zlo zhi
0.0 0.0 0.0 xy xz yz

Masses

1	12.01078
2	15.99943
3	14.00672
4	12.01078
5	1.007947
6	1.007947
7	1.007947
8	15.99943
9	12.01078
10	15.99943
11	1.007947


Pair Coeffs

1	0.086879315	3.4806469
2	0.2102061	3.0398122
3	0.16769152	3.206876
4	0.10884061	3.3795318
5	0.015779483	2.6445434
6	0.014090815	1.1034277
7	0.016409246	2.5832257
8	0.16846514	3.0251065
9	0.21	3.3996695
10	0.20947353	2.99716
11	1.2326e-05	0.53453923

Bond Coeffs

1 harmonic	582.698766451	1.225198386222
2 harmonic	492.76746816345	1.381897776683
3 harmonic	279.1350963404	1.454628925034
4 harmonic	352.0565580496	1.450098586273
5 harmonic	505.144496193	1.019481865027
6 harmonic	264.62148576755	1.52190126495
7 harmonic	370.04670688625	1.093899492634
8 harmonic	301.15400723785	1.345741232799
9 harmonic	366.7408841747	1.425895053732
10 harmonic	300.03137914615	1.451203938761
11 harmonic	366.34047229585	1.464762957261
12 harmonic	602.81384337	1.196112346392
13 harmonic	329.96998057905	1.427343958716
14 harmonic	543.5267831885	0.9716763312559


Angle Coeffs

1 harmonic	55.42182150775	117.3465570514
2 harmonic	63.44422595415	115.5071327674
3 harmonic	57.8982893754	126.8062420451
4 harmonic	53.20531626545	116.5475862634
5 harmonic	48.776492647595	115.6030999533
6 harmonic	65.09061609600001	110.3538806181
7 harmonic	201.41175231035	127.4691416191
8 harmonic	55.07882548015	112.8714009681
9 harmonic	33.56981613361	180


Dihedral Coeffs

1 fourier 1	-0.1488678166443	4	180
2 fourier 1	-0.1230328948768	3	180
3 fourier 1	0.2939295466901	2	0
4 fourier 1	-0.3024127022865	1	0
5 fourier 1	0.182238503271	2	0
6 fourier 1	0.02972342374561	3	0
7 fourier 1	1.809047390003	2	180
8 fourier 1	-0.04816277792592	1	0
9 fourier 1	3.101948770557	2	180
10 fourier 1	-0.4252153282372	1	0
11 fourier 1	2.348375642009	2	180
12 fourier 1	1.256156174911	1	0
13 fourier 1	0.9974165607242	2	180
14 fourier 1	0.1155372516788	3	0
15 fourier 1	0.1040663847541	3	0
16 fourier 1	0.09223874044423	3	0
17 fourier 1	0.3159935921949	2	180
18 fourier 1	0.3247796806857	1	180
19 fourier 1	0.1911926717192	3	0
20 fourier 1	2.779853741805	2	180
21 fourier 1	0.1918272375143	3	0
22 fourier 1	0.9202179876409	1	180
23 fourier 1	0.0473758381877	3	0
24 fourier 1	0.4860993122944	2	180
25 fourier 1	0.8916986138746	1	0
26 fourier 1	1.163809172478	2	180
27 fourier 1	0.1679186987369	1	180
28 fourier 1	0.1115525666802	3	0
29 fourier 1	0.3432490222662	1	0
30 fourier 1	0.457973137376	1	0
31 fourier 1	-1.382973039546	1	0
32 fourier 1	0	1	0
33 fourier 1	0.3445382149273	3	0
34 fourier 1	0.1364556373303	1	0
35 fourier 1	0.3026390167484	3	0


Improper Coeffs

1 0.3333333333333333	-1	2
2 0.3666666666666667	-1	2
3 3.5	-1	2


Atoms

1	6	1	0.54368281	0.26701891	-2.0612964	0.65888676
2	6	2	-0.6855799	0.052226754	-2.820082	1.6407838
3	6	3	-0.48930088	-0.57997638	-2.0941451	-0.49310887
4	6	4	-2.2058197e-05	-1.7318636	-3.0013558	-0.56549304
5	6	4	-0.0080689646	-2.4904072	-2.9517371	-1.9312465
6	6	4	-0.16972669	-1.4833212	-3.3045361	-3.0594011
7	6	5	0.073411054	-1.008108	-4.2900225	-2.8638764
8	6	5	0.073411054	-1.9919179	-3.359548	-4.0467937
9	6	5	0.073411054	-0.684122	-2.5433291	-3.1576746
10	6	4	-0.20480341	-3.0892642	-1.5491957	-2.2275398
11	6	5	0.11244008	-2.3191078	-0.7581738	-2.1125679
12	6	5	0.11244008	-3.4200798	-1.5117767	-3.2907773
13	6	4	0.12836319	-4.2958607	-1.2023817	-1.3388132
14	6	3	-0.5168885	-4.7993819	0.13375706	-1.6781386
15	6	1	0.80975228	-5.6546238	0.8785486	-0.80417131
16	6	2	-0.60378343	-5.9999779	0.4144658	0.31503499
17	6	6	0.31614813	-4.5087187	0.59024561	-2.5726223
18	6	7	0.047358095	-3.9640958	-1.1829071	-0.28039516
19	6	4	-0.2084069	-5.4142559	-2.2404326	-1.5386342
20	6	5	0.11397841	-5.7643836	-2.1701191	-2.5937478
21	6	5	0.11397841	-6.2837899	-1.9803512	-0.89383241
22	6	4	-0.027808395	-4.9654022	-3.6937307	-1.2357251
23	6	4	-0.17148243	-6.0535751	-4.6550137	-1.7747426
24	6	5	0.076462715	-5.7811006	-5.7113372	-1.5621253
25	6	5	0.076462715	-6.1809408	-4.5435739	-2.8731657
26	6	5	0.076462715	-7.0381312	-4.4460137	-1.3014127
27	6	4	-0.17148243	-4.8739354	-3.9325016	0.29441551
28	6	5	0.076462715	-4.4273082	-3.0824886	0.83892543
29	6	5	0.076462715	-4.2941023	-4.853177	0.52015948
30	6	5	0.076462715	-5.886662	-4.0549575	0.73611611
31	6	4	-0.21065767	-3.6258147	-4.027971	-1.9709874
32	6	5	0.11416805	-3.880157	-4.197669	-3.0427353
33	6	5	0.11416805	-3.2321521	-5.0041796	-1.6097901
34	6	7	0.070542804	-1.3734261	-4.038915	-0.39018893
35	6	7	0.070542804	-2.4000715	-2.7497468	0.27105347
36	6	6	0.31687432	-0.35449961	-1.4292753	-1.2629572
37	7	8	-0.49842656	-5.991681	1.816119	-1.0922324
38	7	4	0.12846936	-5.0889021	2.2877571	-2.0566502
39	7	4	-0.13313606	-3.7770304	2.7375697	-1.4051694
40	7	4	0.043828364	-3.9885669	3.9196071	-0.4534956
41	7	8	-0.16620138	-2.7607024	4.3398161	0.07556214
42	7	7	0.089869692	-4.6845629	3.6376605	0.36992934
43	7	7	0.089869692	-4.4394525	4.7676783	-1.0100524
44	7	5	0.098999462	-3.0652324	3.0389628	-2.2046541
45	7	5	0.098999462	-3.3289887	1.8849622	-0.84919091
46	7	7	0.087369858	-4.8793404	1.4928296	-2.8068097
47	7	7	0.087369858	-5.5512621	3.1422924	-2.5953872
48	4	1	0.55634606	1.1031875	-1.3754281	0.68963795
49	4	2	-0.67499858	0.88850932	-0.13570024	0.6285709
50	4	3	-0.56800348	2.436127	-1.8883413	0.79190402
51	4	4	0.12618303	3.6152076	-1.0151401	0.85036414
52	4	7	0.045214865	3.4842543	-0.21940882	0.090854409
53	4	4	-0.20951672	3.7296208	-0.3973463	2.2561644
54	4	5	0.11397842	2.8130989	0.19232273	2.4782546
55	4	5	0.11397842	3.7638746	-1.2301249	2.9950179
56	4	4	-0.028343013	4.978672	0.50515909	2.4340665
57	4	4	-0.17148241	5.1369054	0.81485441	3.9419117
58	4	5	0.07646273	6.0176885	1.4705063	4.1165048
59	4	5	0.07646273	4.2349445	1.3289274	4.3395216
60	4	5	0.07646273	5.2789608	-0.11737846	4.5313742
61	4	4	-0.17148241	4.7883893	1.8636328	1.7142049
62	4	5	0.07646273	4.4095603	1.7582976	0.68575256
63	4	5	0.07646273	4.037222	2.4854948	2.2470288
64	4	5	0.07646273	5.7428369	2.4317854	1.6872753
65	4	4	-0.20934589	6.2670855	-0.23590299	1.9581539
66	4	5	0.11285391	6.5080563	-0.99819749	2.7340077
67	4	5	0.11285391	7.129598	0.46485544	1.9673579
68	4	4	0.024741464	6.1892721	-0.98958151	0.58924239
69	4	4	-0.16826575	7.3835216	-1.9750707	0.51717819
70	4	5	0.069978497	7.3702269	-2.5447099	-0.43738585
71	4	5	0.069978497	8.3502973	-1.4304486	0.5865208
72	4	5	0.069978497	7.3474	-2.7112474	1.3492431
73	4	4	0.1435841	6.2968871	-0.042867387	-0.64285841
74	4	3	-0.62374592	7.4484534	0.84654139	-0.53128256
75	4	9	0.60079867	7.7207112	1.6918623	-1.4422476
76	4	2	-0.46255994	7.9853492	2.5139313	-2.3287527
77	4	7	0.069186314	5.3850012	0.55856871	-0.78827069
78	4	7	0.069186314	6.4010663	-0.65271348	-1.5692036
79	4	4	-0.20588842	4.8822698	-1.8246614	0.51842189
80	4	5	0.11231688	4.9483144	-2.6737788	1.2360295
81	4	5	0.11231688	4.7739422	-2.2676849	-0.49685652
82	4	6	0.31310996	2.5536351	-2.9268395	0.78811273
83	5	8	-0.16545019	-2.5079578	3.6767813	0.77057726
84	5	4	0.052253164	-2.3825836	4.3844233	1.9745233
85	5	4	-0.16818677	-1.0864518	5.202237	1.9956174
86	5	4	0.099255501	0.15428174	4.3046141	1.9360332
87	5	10	-0.68004984	1.3178401	5.0827419	2.0194355
88	5	11	0.3861303	1.4392822	5.5075242	1.1302399
89	5	7	0.083248242	0.15865284	3.7070109	0.99636659
90	5	7	0.083248242	0.14206622	3.5987247	2.7933802
91	5	5	0.10295397	-1.0569494	5.8007601	2.9326877
92	5	5	0.10295397	-1.0801003	5.907854	1.1363891
93	5	7	0.08973389	-3.2540122	5.0643981	2.1120825
94	5	7	0.08973389	-2.3844234	3.6628938	2.8188039
95	6	1	0.54368281	1.2339517	-1.7175883	17.909839
96	6	2	-0.6855799	1.162988	-2.8605788	18.433814
97	6	3	-0.48930088	1.3137601	-1.5647596	16.490033
98	6	4	-2.2058197e-05	1.3034122	-2.7299843	15.597139
99	6	4	-0.0080689646	1.4782414	-2.3698201	14.086229
100	6	4	-0.16972669	2.8193282	-1.604515	13.921256
101	6	5	0.073411054	3.6633693	-2.2054791	14.323347
102	6	5	0.073411054	3.0297295	-1.3924994	12.850078
103	6	5	0.073411054	2.8072477	-0.62575265	14.440574
104	6	4	-0.20480341	0.32960261	-1.4697068	13.553344
105	6	5	0.11244008	0.18083625	-0.58793017	14.210925
106	6	5	0.11244008	0.61452278	-1.0698131	12.553234
107	6	4	0.12836319	-1.0088418	-2.2135107	13.407356
108	6	3	-0.5168885	-2.0381645	-1.2967466	12.903392
109	6	1	0.80975228	-3.4379894	-1.5777589	13.010605
110	6	2	-0.60378343	-3.8466035	-2.6324895	13.565441
111	6	6	0.31614813	-1.7609942	-0.38407182	12.475409
112	6	7	0.047358095	-1.3293485	-2.5687503	14.408244
113	6	4	-0.2084069	-0.85205017	-3.396396	12.43551
114	6	5	0.11397841	-0.6041406	-2.9852861	11.43036
115	6	5	0.11397841	-1.8254848	-3.9271021	12.334134
116	6	4	-0.027808395	0.24225085	-4.4066375	12.868195
117	6	4	-0.17148243	0.52356033	-5.3513459	11.673575
118	6	5	0.076462715	1.2918466	-6.1068298	11.946061
119	6	5	0.076462715	0.89097881	-4.7853153	10.79052
120	6	5	0.076462715	-0.40053011	-5.8881435	11.36539
121	6	4	-0.17148243	-0.26219864	-5.2964021	14.034625
122	6	5	0.076462715	-0.83660249	-4.7336268	14.790821
123	6	5	0.076462715	0.58355816	-5.816157	14.533984
124	6	5	0.076462715	-0.96386344	-6.0743226	13.66285
125	6	4	-0.21065767	1.5760195	-3.6678209	13.217528
126	6	5	0.11416805	2.0482594	-3.3805508	12.249749
127	6	5	0.11416805	2.2896224	-4.3816887	13.686122
128	6	7	0.070542804	2.1255259	-3.413371	15.901852
129	6	7	0.070542804	0.36048942	-3.2684018	15.772132
130	6	6	0.31687432	1.3547237	-0.59071963	16.122438
131	7	8	-0.49842656	-4.1275672	-0.90222267	12.63145
132	7	4	0.12846936	-3.4789931	0.33993385	12.568579
133	7	4	-0.13313606	-3.340467	0.95667445	13.964362
134	7	4	0.043828364	-4.7049358	1.2571313	14.593324
135	7	8	-0.16620138	-4.5368881	1.8736967	15.840616
136	7	7	0.089869692	-5.2975324	0.32002239	14.705525
137	7	7	0.089869692	-5.2730605	1.9468581	13.934697
138	7	5	0.098999462	-2.7632152	1.9035691	13.881653
139	7	5	0.098999462	-2.7706308	0.26257997	14.620344
140	7	7	0.087369858	-2.4713613	0.22354186	12.110654
141	7	7	0.087369858	-4.0663764	1.0202828	11.915624
142	4	1	0.55634606	1.2332559	-0.84087958	18.543811
143	4	2	-0.67499858	0.30307571	0.0013085501	18.433244
144	4	3	-0.56800348	2.2909676	-0.65064772	19.490026
145	4	4	0.12618303	2.3462902	0.50906267	20.388992
146	4	7	0.045214865	2.0909905	1.4089739	19.79555
147	4	4	-0.20951672	1.3352845	0.32120882	21.535122
148	4	5	0.11397842	0.31095346	0.22006864	21.11374
149	4	5	0.11397842	1.5701637	-0.64055536	22.045454
150	4	4	-0.028343013	1.3546869	1.4758413	22.570854
151	4	4	-0.17148241	0.52867474	1.0313133	23.801563
152	4	5	0.07646273	0.50632532	1.8353619	24.569122
153	4	5	0.07646273	-0.51867509	0.79455174	23.513639
154	4	5	0.07646273	0.96216025	0.12026907	24.269316
155	4	4	-0.17148241	0.6672807	2.7424014	22.002385
156	4	5	0.07646273	1.0048452	2.9978769	20.985968
157	4	5	0.07646273	-0.43028488	2.587937	21.922656
158	4	5	0.07646273	0.8404688	3.6159123	22.666822
159	4	4	-0.20934589	2.8121464	1.7635776	23.049074
160	4	5	0.11285391	3.0999147	0.93117063	23.731274
161	4	5	0.11285391	2.8265226	2.6741012	23.68611
162	4	4	0.024741464	3.9183931	1.8502483	21.946028
163	4	4	-0.16826575	5.2976981	1.7149256	22.64016
164	4	5	0.069978497	6.1221937	1.7619384	21.895946
165	4	5	0.069978497	5.4486338	2.529247	23.381899
166	4	5	0.069978497	5.3835734	0.7454735	23.177171
167	4	4	0.1435841	3.9188314	3.2054473	21.178332
168	4	3	-0.62374592	3.922626	4.3380551	22.098542
169	4	9	0.60079867	3.9346801	5.5362368	21.671033
170	4	2	-0.46255994	3.9466085	6.7016954	21.254757
171	4	7	0.069186314	3.0615719	3.2968272	20.49192
172	4	7	0.069186314	4.824165	3.2634025	20.531885
173	4	4	-0.20588842	3.7702478	0.66537708	20.953676
174	4	5	0.11231688	4.0442328	-0.28315725	21.46898
175	4	5	0.11231688	4.4836324	0.79145054	20.108701
176	4	6	0.31310996	3.0604181	-1.3578566	19.500151
177	5	8	-0.16545019	-4.2714683	1.159701	16.478035
178	5	4	0.052253164	-5.2421759	1.1428005	17.489669
179	5	4	-0.16818677	-5.0652522	2.3345258	18.437145
180	5	4	0.099255501	-3.7245971	2.2791848	19.177603
181	5	10	-0.68004984	-3.6256696	3.3494634	20.078172
182	5	11	0.3861303	-3.4260198	4.1577644	19.537204
183	5	7	0.083248242	-2.8781534	2.30646	18.454477
184	5	7	0.083248242	-3.6573923	1.3305825	19.751284
185	5	5	0.10295397	-5.8917954	2.3249136	19.181413
186	5	5	0.10295397	-5.1347324	3.2811396	17.858091
187	5	7	0.08973389	-6.2620945	1.17076	17.042835
188	5	7	0.08973389	-5.1523769	0.19396968	18.059822
189	6	1	0.54368281	1.4799834	1.6012532	34.754979
190	6	2	-0.6855799	1.5872241	2.8474403	34.901711
191	6	3	-0.48930088	1.8323868	0.70475445	35.812181
192	6	4	-2.2058197e-05	2.3178395	1.2047368	37.10426
193	6	4	-0.0080689646	2.7272239	0.076087388	38.105104
194	6	4	-0.16972669	3.8314509	-0.788017	37.4377
195	6	5	0.073411054	4.6891131	-0.15305184	37.127094
196	6	5	0.073411054	4.214073	-1.5604908	38.140213
197	6	5	0.073411054	3.4555028	-1.3294611	36.547018
198	6	4	-0.20480341	1.535936	-0.84935126	38.476504
199	6	5	0.11244008	1.0252273	-1.2217633	37.564057
200	6	5	0.11244008	1.9250799	-1.7487603	39.006545
201	6	4	0.12836319	0.49797229	-0.17007418	39.386012
202	6	3	-0.5168885	-0.5916988	-1.1059082	39.687299
203	6	1	0.80975228	-1.8615178	-0.67298573	40.187409
204	6	2	-0.60378343	-2.1013699	0.54945007	40.375522
205	6	6	0.31614813	-0.4676699	-2.1281516	39.506735
206	6	7	0.047358095	0.063806254	0.69586126	38.845316
207	6	4	-0.2084069	1.1627979	0.28573692	40.696939
208	6	5	0.11397841	1.51538	-0.62207987	41.237635
209	6	5	0.11397841	0.40422293	0.77373854	41.349564
210	6	4	-0.027808395	2.3532695	1.2552938	40.477768
211	6	4	-0.17148243	3.1243126	1.3796299	41.815213
212	6	5	0.076462715	3.9788408	2.0823307	41.709095
213	6	5	0.076462715	3.5227775	0.39534717	42.143217
214	6	5	0.076462715	2.4597786	1.7570547	42.623308
215	6	4	-0.17148243	1.8450765	2.6765021	40.119139
216	6	5	0.076462715	0.99296222	2.6669347	39.417499
217	6	5	0.076462715	2.662039	3.2952869	39.689619
218	6	5	0.076462715	1.4653608	3.1998502	41.023369
219	6	4	-0.21065767	3.3428201	0.68956611	39.406524
220	6	5	0.11416805	3.9297013	-0.11680005	39.903993
221	6	5	0.11416805	4.0916298	1.4678567	39.138262
222	6	7	0.070542804	3.1975129	1.8588597	36.919772
223	6	7	0.070542804	1.5283994	1.8441637	37.525611
224	6	6	0.31687432	1.7050598	-0.31300904	35.629142
225	7	8	-0.49842656	-2.5978843	-1.3736338	40.39352
226	7	4	0.12846936	-2.2894194	-2.5137465	39.636852
227	7	4	-0.13313606	-2.6267231	-2.2972705	38.157957
228	7	4	0.043828364	-4.1273408	-2.0760683	37.941487
229	7	8	-0.16620138	-4.4037502	-1.9419177	36.574107
230	7	7	0.089869692	-4.4716937	-1.1709357	38.49293
231	7	7	0.089869692	-4.6907801	-2.9504198	38.329203
232	7	5	0.098999462	-2.3058678	-3.1932818	37.58273
233	7	5	0.098999462	-2.0599732	-1.4208436	37.773947
234	7	7	0.087369858	-1.2095328	-2.7620528	39.740553
235	7	7	0.087369858	-2.8698612	-3.3752728	40.030685
236	4	1	0.55634606	1.1151747	1.2056534	33.816388
237	4	2	-0.67499858	0.050174811	0.53313355	33.801115
238	4	3	-0.56800348	1.8515314	1.4471934	32.612351
239	4	4	0.12618303	1.4084559	0.95059387	31.303458
240	4	7	0.045214865	1.0714524	-0.096358523	31.435788
241	4	4	-0.20951672	0.24952559	1.8229333	30.786797
242	4	5	0.11397842	-0.59494537	1.7844189	31.509591
243	4	5	0.11397842	0.60154941	2.8792856	30.758563
244	4	4	-0.028343013	-0.25651907	1.4074248	29.380538
245	4	4	-0.17148241	-1.1948987	2.521819	28.858891
246	4	5	0.07646273	-1.5913534	2.2608556	27.853475
247	4	5	0.07646273	-2.0562582	2.6708058	29.54574
248	4	5	0.07646273	-0.65937891	3.4929929	28.77677
249	4	4	-0.17148241	-1.0990047	0.10955427	29.455431
250	4	5	0.07646273	-0.61995316	-0.68274204	30.051332
251	4	5	0.07646273	-2.0749163	0.30604315	29.949248
252	4	5	0.07646273	-1.3061369	-0.28442065	28.437407
253	4	4	-0.20934589	0.93546673	1.2766301	28.38167
254	4	5	0.11285391	1.2660939	2.3112645	28.134029
255	4	5	0.11285391	0.57555997	0.85280912	27.419423
256	4	4	0.024741464	2.2001722	0.50269777	28.881223
257	4	4	-0.16826575	3.378125	0.85010917	27.935524
258	4	5	0.069978497	4.3078476	0.3297526	28.252862
259	4	5	0.069978497	3.1478912	0.54939045	26.890231
260	4	5	0.069978497	3.5859313	1.9420826	27.937381
261	4	4	0.1435841	2.0268572	-1.0449192	28.853572
262	4	3	-0.62374592	1.5374497	-1.5022659	27.557071
263	4	9	0.60079867	1.3392492	-2.737188	27.324191
264	4	2	-0.46255994	1.1467516	-3.9386409	27.097966
265	4	7	0.069186314	1.3496742	-1.4035037	29.645561
266	4	7	0.069186314	3.0081047	-1.5301697	29.059888
267	4	4	-0.20588842	2.5830839	0.97965852	30.308289
268	4	5	0.11231688	2.9674395	2.0236717	30.257003
269	4	5	0.11231688	3.410566	0.3501426	30.705502
270	4	6	0.31310996	2.7532998	1.9687902	32.696325
271	5	8	-0.16545019	-4.1143006	-1.0283294	36.313116
272	5	4	0.052253164	-5.2488355	-0.37540178	35.810644
273	5	4	-0.16818677	-5.5964133	-0.88501819	34.407539
274	5	4	0.099255501	-4.4854935	-0.57600669	33.398051
275	5	10	-0.68004984	-4.8651419	-1.001109	32.116855
276	5	11	0.3861303	-4.762364	-1.9885903	32.103651
277	5	7	0.083248242	-3.5347908	-1.070711	33.70063
278	5	7	0.083248242	-4.3087271	0.51998634	33.366021
279	5	5	0.10295397	-6.5375873	-0.3957915	34.072801
280	5	5	0.10295397	-5.7736189	-1.9819938	34.445639
281	5	7	0.08973389	-6.1163211	-0.53624775	36.490551
282	5	7	0.08973389	-5.0499613	0.71663588	35.774301
283	6	1	0.54368281	-0.035828348	-0.74786874	50.089587
284	6	2	-0.6855799	-0.40471912	-1.7395013	49.406507
285	6	3	-0.48930088	-0.80736454	0.45622052	50.11138
286	6	4	-2.2058197e-05	-2.0575907	0.57316302	49.350871
287	6	4	-0.0080689646	-2.7179527	1.9874148	49.434219
288	6	4	-0.16972669	-1.6954796	3.0325985	48.911188
289	6	5	0.073411054	-1.3611025	2.7709846	47.88406
290	6	5	0.073411054	-2.1449281	4.0491757	48.876432
291	6	5	0.073411054	-0.80228357	3.1042008	49.563021
292	6	4	-0.20480341	-3.1160235	2.3725423	50.885687
293	6	5	0.11244008	-2.2610143	2.2345049	51.579934
294	6	5	0.11244008	-3.3731237	3.4561521	50.917345
295	6	4	0.12836319	-4.3219858	1.5792107	51.416978
296	6	3	-0.5168885	-4.6313611	1.9985287	52.788984
297	6	1	0.80975228	-5.438432	1.2105561	53.670861
298	6	2	-0.60378343	-5.9079871	0.10116688	53.302027
299	6	6	0.31614813	-4.2308061	2.8872208	53.166807
300	6	7	0.047358095	-4.0564861	0.50235896	51.441397
301	6	4	-0.2084069	-5.5476419	1.816353	50.517079
302	6	5	0.11397841	-5.8202249	2.8943172	50.584085
303	6	5	0.11397841	-6.4157096	1.2406697	50.910206
304	6	4	-0.027808395	-5.3048901	1.4328459	49.034078
305	6	4	-0.17148243	-6.469988	2.0089166	48.191811
306	6	5	0.076462715	-6.3463195	1.7412857	47.120201
307	6	5	0.076462715	-6.5141559	3.1166499	48.270233
308	6	5	0.076462715	-7.4477697	1.6100845	48.541023
309	6	4	-0.17148243	-5.3389859	-0.10748473	48.85262
310	6	5	0.076462715	-4.8234395	-0.65013919	49.663932
311	6	5	0.076462715	-4.8947328	-0.40392043	47.878158
312	6	5	0.076462715	-6.3844271	-0.48464155	48.875321
313	6	4	-0.21065767	-3.9751565	2.064718	48.505525
314	6	5	0.11416805	-4.1820844	3.1443691	48.322044
315	6	5	0.11416805	-3.730599	1.6436792	47.504858
316	6	7	0.070542804	-1.8441398	0.33766375	48.28564
317	6	7	0.070542804	-2.7392433	-0.20745907	49.719107
318	6	6	0.31687432	-0.45282684	1.2323699	50.709254
319	7	8	-0.49842656	-5.6363289	1.5535192	54.629422
320	7	4	0.12846936	-4.6234768	2.4716116	54.943732
321	7	4	-0.13313606	-3.308227	1.7503401	55.256224
322	7	4	0.043828364	-3.4277187	0.85739648	56.495585
323	7	8	-0.16620138	-2.1918032	0.26275795	56.783764
324	7	7	0.089869692	-4.2032364	0.072808241	56.337704
325	7	7	0.089869692	-3.732985	1.4725163	57.367777
326	7	5	0.098999462	-2.5160957	2.5106905	55.432477
327	7	5	0.098999462	-3.0063117	1.1358261	54.379861
328	7	7	0.087369858	-4.4696707	3.1774658	54.097163
329	7	7	0.087369858	-4.9403922	3.0699577	55.824522
330	4	1	0.55634606	0.87651121	-0.8100599	50.66778
331	4	2	-0.67499858	0.82378466	-0.6909061	51.920682
332	4	3	-0.56800348	2.1253904	-1.0192071	49.999331
333	4	4	0.12618303	3.399121	-1.1252861	50.722164
334	4	7	0.045214865	3.4165845	-0.33101029	51.494182
335	4	4	-0.20951672	3.503255	-2.5128134	51.381677
336	4	5	0.11397842	2.6562862	-2.6521787	52.088973
337	4	5	0.11397842	3.3866612	-3.2813481	50.583957
338	4	4	-0.028343013	4.8425688	-2.7416262	52.130127
339	4	4	-0.17148241	4.944998	-4.2447492	52.483221
340	4	5	0.07646273	5.8888143	-4.4544203	53.032211
341	4	5	0.07646273	4.0920788	-4.562783	53.121407
342	4	5	0.07646273	4.9318577	-4.8750423	51.567109
343	4	4	-0.17148241	4.8696748	-1.9629839	53.469097
344	4	5	0.07646273	4.5449156	-0.91591212	53.366661
345	4	5	0.07646273	4.1712675	-2.4220939	54.20143
346	4	5	0.07646273	5.8878729	-1.9797278	53.91349
347	4	4	-0.20934589	6.0543896	-2.3793599	51.215836
348	4	5	0.11285391	6.1490548	-3.1960941	50.464109
349	4	5	0.11285391	6.9960193	-2.4212969	51.804606
350	4	4	0.024741464	5.9671082	-1.0358744	50.418695
351	4	4	-0.16826575	7.0299592	-1.0786747	49.291251
352	4	5	0.069978497	7.0041078	-0.14613807	48.686631
353	4	5	0.069978497	8.0514493	-1.1930722	49.714982
354	4	5	0.069978497	6.8500828	-1.9320325	48.602035
355	4	4	0.1435841	6.2690062	0.21906114	51.290426
356	4	3	-0.62374592	7.5142506	0.062429745	52.03503
357	4	9	0.60079867	7.9465465	0.9825625	52.799899
358	4	2	-0.46255994	8.3668588	1.8779902	53.54372
359	4	7	0.069186314	5.4508301	0.44625425	51.992834
360	4	7	0.069186314	6.3526619	1.1141914	50.632684
361	4	4	-0.20588842	4.5722829	-0.90757838	49.748895
362	4	5	0.11231688	4.4864227	-1.6576297	48.930132
363	4	5	0.11231688	4.4720296	0.096330623	49.278884
364	4	6	0.31310996	2.1112475	-1.0600699	48.955094
365	5	8	-0.16545019	-2.0679881	-0.47063782	56.125477
366	5	4	0.052253164	-1.9292117	-1.6544366	56.863938
367	5	4	-0.16818677	-0.54424854	-1.7330345	57.515798
368	5	4	0.099255501	0.57491603	-1.7882694	56.470275
369	5	10	-0.68004984	1.8197681	-1.9215516	57.10185
370	5	11	0.3861303	2.0484563	-1.0279571	57.469338
371	5	7	0.083248242	0.56211475	-0.87275796	55.836401
372	5	7	0.083248242	0.4209588	-2.6673599	55.809238
373	5	5	0.10295397	-0.49763222	-2.6481862	58.146294
374	5	5	0.10295397	-0.39601533	-0.85168617	58.177206
375	5	7	0.08973389	-2.7149391	-1.7093239	57.651526
376	5	7	0.08973389	-2.0740566	-2.521745	56.185547
377	6	1	0.54368281	2.0566789	0.13669601	70.227781
378	6	2	-0.6855799	2.9387362	-0.52789104	70.833018
379	6	3	-0.48930088	2.0929497	0.28007804	68.805212
380	6	4	-2.2058197e-05	3.1486771	-0.35026346	68.0032
381	6	4	-0.0080689646	3.0680456	-0.016679446	66.478289
382	6	4	-0.16972669	3.1454163	1.5254977	66.313591
383	6	5	0.073411054	4.0642954	1.9236231	66.795668
384	6	5	0.073411054	3.1705516	1.8122915	65.239459
385	6	5	0.073411054	2.2676451	2.0364932	66.756552
386	6	4	-0.20480341	1.7468581	-0.51477675	65.830288
387	6	5	0.11244008	0.86669988	-0.17057708	66.41246
388	6	5	0.11244008	1.6466161	-0.064871321	64.815966
389	6	4	0.12836319	1.6796919	-2.0444784	65.683689
390	6	3	-0.5168885	0.40503659	-2.4324947	65.068352
391	6	1	0.80975228	-0.1072714	-3.7677389	65.136436
392	6	2	-0.60378343	0.5190341	-4.6715923	65.751298
393	6	6	0.31614813	-0.18184225	-1.7149486	64.584959
394	6	7	0.047358095	1.7233462	-2.5008547	66.693892
395	6	4	-0.2084069	2.8455634	-2.5428117	64.811511
396	6	5	0.11397841	2.7167166	-2.1183466	63.789736
397	6	5	0.11397841	2.7876412	-3.6498874	64.708898
398	6	4	-0.027808395	4.239683	-2.1495794	65.365676
399	6	4	-0.17148243	5.2896276	-2.4168411	64.258918
400	6	5	0.076462715	6.3101415	-2.1653974	64.620298
401	6	5	0.076462715	5.0825971	-1.8084218	63.352199
402	6	5	0.076462715	5.2808734	-3.4861014	63.952848
403	6	4	-0.17148243	4.6230037	-3.0448408	66.573268
404	6	5	0.076462715	3.7785352	-3.2303051	67.259537
405	6	5	0.076462715	5.4657929	-2.6018093	67.14619
406	6	5	0.076462715	4.9409652	-4.053729	66.231574
407	6	4	-0.21065767	4.2909571	-0.62572091	65.715029
408	6	5	0.11416805	4.382059	-0.076664528	64.749437
409	6	5	0.11416805	5.2304141	-0.39781122	66.266296
410	6	7	0.070542804	4.1339916	-0.014820708	68.393548
411	6	7	0.070542804	3.08944	-1.4345256	68.177801
412	6	6	0.31687432	1.3241123	0.83018879	68.367234
413	7	8	-0.49842656	-1.0094149	-3.9952836	64.678194
414	7	4	0.12846936	-1.7097175	-2.7867367	64.549568
415	7	4	-0.13313606	-2.2781823	-2.3368465	65.899462
416	7	4	0.043828364	-3.3079564	-3.3316589	66.444949
417	7	8	-0.16620138	-3.8477872	-2.8573973	67.64819
418	7	7	0.089869692	-2.8398763	-4.3307289	66.60209
419	7	7	0.089869692	-4.1336226	-3.4497784	65.712418
420	7	5	0.098999462	-2.765196	-1.3454806	65.770306
421	7	5	0.098999462	-1.4476942	-2.2196035	66.629761
422	7	7	0.087369858	-1.0388818	-1.9960968	64.145299
423	7	7	0.087369858	-2.5381422	-2.9261347	63.82257
424	4	1	0.55634606	1.2611505	0.60362964	70.793153
425	4	2	-0.67499858	0.067780605	0.26156764	70.579605
426	4	3	-0.56800348	1.5778516	1.6046887	71.766728
427	4	4	0.12618303	0.55003726	2.2702502	72.577132
428	4	7	0.045214865	-0.29330574	2.5290543	71.907068
429	4	4	-0.20951672	0.074621313	1.3179272	73.689829
430	4	5	0.11397842	-0.34514933	0.39440807	73.233812
431	4	5	0.11397842	0.96659273	1.0086847	74.280891
432	4	4	-0.028343013	-0.9797591	1.9508623	74.635328
433	4	4	-0.17148241	-1.1479711	1.0194899	75.859582
434	4	5	0.07646273	-1.9051866	1.4300227	76.562596
435	4	5	0.07646273	-1.476982	0.0050084077	75.545771
436	4	5	0.07646273	-0.1901015	0.9053444	76.412899
437	4	4	-0.17148241	-2.363335	2.0380106	73.943966
438	4	5	0.07646273	-2.3123926	2.4558579	72.926553
439	4	5	0.07646273	-2.8064347	1.0254108	73.829204
440	4	5	0.07646273	-3.0668502	2.6507547	74.547376
441	4	4	-0.20934589	-0.4934063	3.3407338	75.152429
442	4	5	0.11285391	0.30241864	3.1456002	75.90721
443	4	5	0.11285391	-1.3097794	3.8383951	75.718947
444	4	4	0.024741464	0.11406826	4.3202676	74.094368
445	4	4	-0.16826575	0.89755483	5.4202529	74.855154
446	4	5	0.069978497	1.3584033	6.1412728	74.145501
447	4	5	0.069978497	0.22554316	5.9830233	75.539089
448	4	5	0.069978497	1.7149065	4.9807293	75.466994
449	4	4	0.1435841	-0.96331937	5.036742	73.227292
450	4	3	-0.62374592	-1.9973427	5.6443267	74.058699
451	4	9	0.60079867	-2.9655139	6.2886242	73.542875
452	4	2	-0.46255994	-3.9070978	6.9154963	73.040707
453	4	7	0.069186314	-1.4343021	4.3559827	72.499866
454	4	7	0.069186314	-0.47743658	5.8324579	72.617673
455	4	4	-0.20588842	1.1221348	3.5623243	73.188856
456	4	5	0.11231688	2.0231857	3.2932675	73.785545
457	4	5	0.11231688	1.4662104	4.2307269	72.368097
458	4	6	0.31310996	2.5809699	1.8817428	71.863142
459	5	8	-0.16545019	-3.1598716	-3.0088207	68.348464
460	5	4	0.052253164	-3.7466499	-3.8367932	69.315994
461	5	4	-0.16818677	-4.7413936	-3.0509886	70.177515
462	5	4	0.099255501	-4.0498904	-1.9411563	70.97676
463	5	10	-0.68004984	-4.9792779	-1.2860749	71.797378
464	5	11	0.3861303	-5.5092344	-0.6900397	71.205986
465	5	7	0.083248242	-3.5625994	-1.2119244	70.290545
466	5	7	0.083248242	-3.2631948	-2.3853059	71.622758
467	5	5	0.10295397	-5.2349064	-3.7539012	70.884311
468	5	5	0.10295397	-5.5271478	-2.609843	69.526216
469	5	7	0.08973389	-4.2708778	-4.6881747	68.825066
470	5	7	0.08973389	-2.947507	-4.2619254	69.959462
471	6	1	0.54368281	-1.7211035	16.656395	-1.1268525
472	6	2	-0.6855799	-2.7853036	15.997072	-0.98979614
473	6	3	-0.48930088	-1.7459147	18.084974	-1.1910381
474	6	4	-2.2058197e-05	-3.0066544	18.829907	-1.0874798
475	6	4	-0.0080689646	-2.8435271	20.374982	-1.2585526
476	6	4	-0.16972669	-2.1964735	20.644717	-2.6441885
477	6	5	0.073411054	-2.8006404	20.181094	-3.4536801
478	6	5	0.073411054	-2.1296056	21.735717	-2.8488536
479	6	5	0.073411054	-1.1638146	20.247765	-2.7062993
480	6	4	-0.20480341	-1.9381223	21.001683	-0.16263742
481	6	5	0.11244008	-0.97560848	20.454391	-0.084450668
482	6	5	0.11244008	-1.6816905	22.04565	-0.45536655
483	6	4	0.12836319	-2.6014585	21.043234	1.2245355
484	6	3	-0.5168885	-1.6841872	21.644424	2.1997927
485	6	1	0.80975228	-1.8545471	21.490141	3.6129969
486	6	2	-0.60378343	-2.8046912	20.807554	4.0805075
487	6	6	0.31614813	-0.85055479	22.182585	1.87054
488	6	7	0.047358095	-2.8111537	20.003556	1.5497962
489	6	4	-0.2084069	-3.9005357	21.866042	1.1639389
490	6	5	0.11397841	-3.631088	22.916006	0.90748109
491	6	5	0.11397841	-4.3722397	21.892741	2.1720478
492	6	4	-0.027808395	-4.9233738	21.324914	0.13132986
493	6	4	-0.17148243	-6.0218053	22.398938	-0.065253864
494	6	5	0.076462715	-6.7894537	22.044483	-0.78660382
495	6	5	0.076462715	-5.5923538	23.347669	-0.4533956
496	6	5	0.076462715	-6.5277657	22.630659	0.89775297
497	6	4	-0.17148243	-5.6300702	20.054321	0.6725174
498	6	5	0.076462715	-4.9427343	19.366284	1.1946881
499	6	5	0.076462715	-6.1422245	19.504012	-0.14581443
500	6	5	0.076462715	-6.3975956	20.322128	1.4307351
501	6	4	-0.21065767	-4.240204	21.080876	-1.2545081
502	6	5	0.11416805	-4.1041494	22.080949	-1.7272391
503	6	5	0.11416805	-4.9393361	20.536273	-1.9275892
504	6	7	0.070542804	-3.7026763	18.452734	-1.8678847
505	6	7	0.070542804	-3.4548301	18.581655	-0.11427455
506	6	6	0.31687432	-0.82820118	18.568304	-1.2897916
507	7	8	-0.49842656	-1.1842542	21.941559	4.2630383
508	7	4	0.12846936	-0.0056097501	22.160916	3.5348667
509	7	4	-0.13313606	0.76367841	20.851611	3.3307025
510	7	4	0.043828364	1.2295628	20.250277	4.660737
511	7	8	-0.16620138	1.9788141	19.08863	4.4298051
512	7	7	0.089869692	0.35517367	20.019481	5.3119743
513	7	7	0.089869692	1.8720511	20.982011	5.193702
514	7	5	0.098999462	1.6523485	21.054168	2.6935949
515	7	5	0.098999462	0.1164301	20.121989	2.7963669
516	7	7	0.087369858	-0.24438983	22.611273	2.5455602
517	7	7	0.087369858	0.62958038	22.885695	4.0875638
518	4	1	0.55634606	-0.7765042	16.133383	-1.1956267
519	4	2	-0.67499858	0.10748548	16.336033	-0.32142062
520	4	3	-0.56800348	-0.5461288	15.227678	-2.2804735
521	4	4	0.12618303	0.70682549	14.476493	-2.4286446
522	4	7	0.045214865	1.5440787	15.172087	-2.2228592
523	4	4	-0.20951672	0.72727266	13.30613	-1.4282115
524	4	5	0.11397842	0.6459881	13.702023	-0.39201313
525	4	5	0.11397842	-0.17984916	12.68533	-1.6080327
526	4	4	-0.028343013	1.9940855	12.418223	-1.5426725
527	4	4	-0.17148241	1.7579273	11.134622	-0.71132187
528	4	5	0.07646273	2.6480995	10.469994	-0.75608624
529	4	5	0.07646273	1.5599349	11.381384	0.3544201
530	4	5	0.07646273	0.88243064	10.564193	-1.0918735
531	4	4	-0.17148241	3.2268222	13.129208	-0.93052906
532	4	5	0.07646273	3.3346835	14.172376	-1.2659213