Title

75 atoms
74 bonds
137 angles
239 dihedrals
12 impropers

8 atom types
11 bond types
5 angle types
29 dihedral types
2 improper types
-4.804999828 95.19500017 xlo xhi
-1.483999968 98.51600003 ylo yhi
-2.473999977 97.52600002 zlo zhi
0.0 0.0 0.0 xy xz yz

Masses

1	15.99943
2	12.01078
3	1.007947
4	12.01078
5	15.99943
6	1.007947
7	15.99943
8	1.007947


Pair Coeffs

1	0.16846514	3.0251065
2	0.10884061	3.3795318
3	0.016409246	2.5832257
4	0.086879315	3.4806469
5	0.2102061	3.0398122
6	0.015779483	2.6445434
7	0.20947353	2.99716
8	1.2326e-05	0.53453923

Bond Coeffs

1 harmonic	366.7408841747	1.425895053732
2 harmonic	300.03137914615	1.451203938761
3 harmonic	264.62148576755	1.52190126495
4 harmonic	370.04670688625	1.093899492634
5 harmonic	301.15400723785	1.345741232799
6 harmonic	582.698766451	1.225198386222
7 harmonic	329.44145381095	1.523435958334
8 harmonic	279.1350963404	1.454628925034
9 harmonic	329.96998057905	1.427343958716
10 harmonic	543.5267831885	0.9716763312559
11 harmonic	385.7604595587	1.369745182308


Angle Coeffs

1 harmonic	53.20531626545	116.5475862634
2 harmonic	65.09061609600001	110.3538806181
3 harmonic	201.41175231035	127.4691416191
4 harmonic	57.8982893754	126.8062420451
5 harmonic	48.776492647595	115.6030999533


Dihedral Coeffs

1 fourier 1	-0.0309670556842	3	0
2 fourier 1	0.4598191477945	2	0
3 fourier 1	0.1115525666802	3	0
4 fourier 1	0.3432490222662	1	0
5 fourier 1	0.0473758381877	3	0
6 fourier 1	0.457973137376	1	0
7 fourier 1	0.1918272375143	3	0
8 fourier 1	0.9202179876409	1	180
9 fourier 1	1.163809172478	2	180
10 fourier 1	0.1679186987369	1	180
11 fourier 1	2.779853741805	2	180
12 fourier 1	0.02664938770063	3	0
13 fourier 1	0.1911926717192	3	0
14 fourier 1	0.1155372516788	3	0
15 fourier 1	-0.3703352413219	2	0
16 fourier 1	0.4541676554336	1	0
17 fourier 1	0.1489710476446	2	0
18 fourier 1	0.02960027280666	3	180
19 fourier 1	0.09223874044423	3	0
20 fourier 1	0.3159935921949	2	180
21 fourier 1	0.3247796806857	1	180
22 fourier 1	0.1040663847541	3	0
23 fourier 1	0.9974165607242	2	180
24 fourier 1	0.3445382149273	3	0
25 fourier 1	0.1364556373303	1	0
26 fourier 1	0.3026390167484	3	0
27 fourier 1	2.687457892086	2	180
28 fourier 1	2.772607909663	2	180
29 fourier 1	0.09692684957115	1	0


Improper Coeffs

1 3.5	-1	2
2 0.3666666666666667	-1	2


Atoms

1	1	1	-0.16472	1.576	-0.336	0.85699999
2	1	2	0.046806999	0.63599998	-0.419	-0.17900001
3	1	2	0.148399	-0.71899998	0.11	0.28999999
4	1	1	-0.49546099	-1.675	-0.035999998	-0.72399998
5	1	3	0.080751002	-1.051	-0.46900001	1.177
6	1	3	0.080751002	-0.63099998	1.1799999	0.58899999
7	1	3	0.079883002	0.52999997	-1.484	-0.477
8	1	3	0.079883002	0.98699999	0.154	-1.068
9	1	4	0.76071	-1.49	0.71600002	-1.418
10	1	5	-0.55721098	-0.949	0.43099999	-2.474
11	1	2	-0.208883	-1.878	2.1370001	-1.136
12	1	2	-0.115766	-2.552	2.266	0.23800001
13	1	2	-0.136438	-3.0680001	3.687	0.51499999
14	1	2	-0.14177801	-1.9349999	4.6659999	0.86900002
15	1	2	-0.14177801	-2.4289999	6.1139998	1.049
16	1	2	-0.13909499	-3.4360001	6.3239999	2.194
17	1	2	-0.097433001	-2.8640001	5.9569998	3.572
18	1	2	-0.25790799	-3.829	6.362	4.6919999
19	1	4	0.51663399	-3.2839999	5.9920001	6.039
20	1	5	-0.69057298	-3.927	6.2410002	7.046
21	1	6	0.113148	-3.9949999	7.461	4.664
22	1	6	0.113148	-4.8049998	5.8499999	4.546
23	1	6	0.076366	-2.698	4.8600001	3.625
24	1	6	0.076366	-1.891	6.4759998	3.72
25	1	6	0.078057997	-3.7179999	7.4000001	2.198
26	1	6	0.078057997	-4.3660002	5.7480001	2.0020001
27	1	6	0.07993	-1.546	6.7680001	1.225
28	1	6	0.07993	-2.8970001	6.454	0.1
29	1	6	0.07993	-1.406	4.3239999	1.783
30	1	6	0.07993	-1.188	4.677	0.048
31	1	6	0.078057997	-3.6389999	4.0619998	-0.36300001
32	1	6	0.078057997	-3.7690001	3.6229999	1.374
33	1	6	0.085144997	-3.4230001	1.573	0.271
34	1	6	0.085144997	-1.845	1.956	1.039
35	1	6	0.116335	-2.5769999	2.48	-1.929
36	1	6	0.116335	-0.96200001	2.7620001	-1.173
37	1	1	-0.15889101	1.845	0.61799997	0.92000002
38	1	2	0.016736999	3.148	0.70099998	0.41100001
39	1	2	0.088722996	4.1529999	0.17200001	1.434
40	1	7	-0.68820798	5.461	0.31799999	0.95200002
41	1	8	0.380896	5.5970001	-0.40000001	0.27900001
42	1	3	0.075742997	4.0549998	0.75199997	2.3759999
43	1	3	0.075742997	3.941	-0.89700001	1.663
44	1	3	0.080536999	3.3759999	1.766	0.192
45	1	3	0.080536999	3.23	0.12800001	-0.54100001
46	1	4	0.51663399	-2.3199999	5.5019999	6.1350002
47	1	5	-0.69057298	-2.27	4.2870002	6.2480001
48	1	2	-0.25790799	-1.0599999	6.3169999	6.1110001
49	1	2	-0.097433001	-0.296	6.2360001	7.4400001
50	1	2	-0.13909499	-1.058	6.914	8.5889997
51	1	2	-0.14177801	-0.25099999	6.8590002	9.8920002
52	1	2	-0.14177801	-1.02	7.5250001	11.042
53	1	2	-0.136438	-0.19400001	7.6149998	12.335
54	1	2	-0.113232	-0.0080000004	6.2459998	13.014
55	1	2	-0.21898	0.75	6.3590002	14.343
56	1	4	0.82335401	-0.074000001	7.0320001	15.398
57	1	5	-0.558779	0.164	8.2270002	15.72
58	1	7	-0.66596699	-1.12	6.3429999	16.004
59	1	8	0.393462	-1.694	6.7870002	16.711
60	1	6	0.117355	1.006	5.3379998	14.698
61	1	6	0.117355	1.706	6.908	14.193
62	1	6	0.085144997	-0.99699998	5.7680001	13.187
63	1	6	0.085144997	0.57999998	5.5819998	12.347
64	1	6	0.078057997	0.79799998	8.0690002	12.118
65	1	6	0.078057997	-0.73000002	8.2950001	13.032
66	1	6	0.07993	-1.966	6.973	11.237
67	1	6	0.07993	-1.293	8.5600004	10.739
68	1	6	0.07993	-0.048	5.796	10.142
69	1	6	0.07993	0.71899998	7.382	9.7440004
70	1	6	0.078057997	-2.033	6.401	8.7419996
71	1	6	0.078057997	-1.255	7.9749999	8.3219995
72	1	6	0.076366	-0.096000001	5.171	7.6929998
73	1	6	0.076366	0.685	6.743	7.3080001
74	1	6	0.113148	-1.3099999	7.3759999	5.8860002
75	1	6	0.113148	-0.40900001	5.9419999	5.2930002

Bonds

1	1	1	2
2	2	1	37
3	3	2	3
4	4	2	7
5	4	2	8
6	1	3	4
7	4	3	5
8	4	3	6
9	5	4	9
10	6	9	10
11	7	9	11
12	3	11	12
13	4	11	35
14	4	11	36
15	3	12	13
16	4	12	33
17	4	12	34
18	3	13	14
19	4	13	31
20	4	13	32
21	3	14	15
22	4	14	29
23	4	14	30
24	3	15	16
25	4	15	27
26	4	15	28
27	3	16	17
28	4	16	25
29	4	16	26
30	3	17	18
31	4	17	23
32	4	17	24
33	7	18	19
34	4	18	21
35	4	18	22
36	6	19	20
37	8	19	46
38	1	37	38
39	3	38	39
40	4	38	44
41	4	38	45
42	9	39	40
43	4	39	42
44	4	39	43
45	10	40	41
46	6	46	47
47	7	46	48
48	3	48	49
49	4	48	74
50	4	48	75
51	3	49	50
52	4	49	72
53	4	49	73
54	3	50	51
55	4	50	70
56	4	50	71
57	3	51	52
58	4	51	68
59	4	51	69
60	3	52	53
61	4	52	66
62	4	52	67
63	3	53	54
64	4	53	64
65	4	53	65
66	3	54	55
67	4	54	62
68	4	54	63
69	7	55	56
70	4	55	60
71	4	55	61
72	6	56	57
73	11	56	58
74	10	58	59

Angles

1	1	53	54	63
2	5	68	51	69
3	1	13	14	30
4	1	14	15	16
5	4	18	19	46
6	1	13	12	34
7	1	17	18	19
8	1	17	16	25
9	1	2	3	5
10	1	50	51	68
11	1	52	51	68
12	1	54	55	60
13	1	56	55	61
14	1	38	39	42
15	1	52	53	64
16	1	53	54	55
17	1	39	38	45
18	1	37	38	45
19	1	49	50	71
20	1	15	14	30
21	1	15	16	17
22	5	64	53	65
23	1	50	49	73
24	1	13	14	29
25	1	53	52	67
26	1	18	17	23
27	1	37	38	39
28	1	17	18	21
29	1	49	50	51
30	5	72	49	73
31	5	5	3	6
32	1	12	11	36
33	1	53	52	66
34	1	19	18	22
35	5	7	2	8
36	5	25	16	26
37	1	14	15	28
38	1	48	49	73
39	1	40	39	43
40	1	14	15	27
41	1	54	53	64
42	1	38	39	40
43	1	49	48	75
44	1	39	38	44
45	2	1	37	38
46	1	12	11	35
47	4	55	56	57
48	1	11	12	13
49	1	16	17	24
50	1	4	3	6
51	5	31	13	32
52	1	15	16	26
53	5	23	17	24
54	1	3	2	8
55	3	57	56	58
56	1	2	3	6
57	5	33	12	34
58	1	54	55	61
59	1	12	13	14
60	1	51	50	70
61	1	38	39	43
62	5	44	38	45
63	1	1	2	8
64	1	12	13	32
65	1	2	3	4
66	1	51	52	53
67	1	50	51	69
68	1	12	13	31
69	1	51	52	67
70	1	49	48	74
71	1	3	2	7
72	1	52	53	65
73	4	4	9	11
74	1	14	13	32
75	2	3	4	9
76	1	15	14	29
77	1	54	55	56
78	1	37	38	44
79	1	11	12	34
80	1	16	15	28
81	1	19	18	21
82	1	16	15	27
83	5	29	14	30
84	1	13	12	33
85	1	1	2	7
86	2	39	40	41
87	1	15	16	25
88	1	46	48	75
89	1	54	53	65
90	3	4	9	10
91	1	40	39	42
92	1	51	50	71
93	1	50	49	72
94	1	50	51	52
95	2	56	58	59
96	1	1	2	3
97	1	18	17	24
98	5	66	52	67
99	1	52	51	69
100	1	16	17	18
101	2	2	1	37
102	5	35	11	36
103	1	13	14	15
104	1	56	55	60
105	1	9	11	36
106	1	48	49	72
107	1	16	17	23
108	1	17	16	26
109	1	46	48	49
110	1	51	52	66
111	1	14	13	31
112	1	11	12	33
113	1	9	11	35
114	1	46	48	74
115	5	27	15	28
116	5	21	18	22
117	1	17	18	22
118	1	49	50	70
119	1	52	53	54
120	4	19	46	48
121	1	55	54	62
122	4	18	19	20
123	5	62	54	63
124	5	60	55	61
125	1	9	11	12
126	1	53	54	62
127	5	74	48	75
128	4	19	46	47
129	4	10	9	11
130	4	20	19	46
131	5	70	50	71
132	5	42	39	43
133	1	55	54	63
134	1	48	49	50
135	4	47	46	48
136	4	55	56	58
137	1	4	3	5

Dihedrals

1	22	51	50	49	72
2	13	69	51	50	71
3	5	1	37	38	39
4	16	20	19	18	21
4	17	20	19	18	21
4	18	20	19	18	21
5	12	19	46	48	74
6	16	57	56	55	61
6	17	57	56	55	61
6	18	57	56	55	61
7	23	18	19	46	48
8	14	16	17	18	19
9	16	47	46	48	75
9	17	47	46	48	75
9	18	47	46	48	75
10	13	70	50	49	72
11	22	12	13	14	30
12	3	1	2	3	5
12	4	1	2	3	5
13	13	5	3	2	8
14	13	30	14	13	32
15	15	54	55	56	57
16	22	14	15	16	25
17	23	18	19	46	47
18	13	63	54	53	65
19	13	26	16	15	28
20	13	26	16	15	27
21	9	3	4	9	10
21	10	3	4	9	10
22	3	1	2	3	6
22	4	1	2	3	6
23	5	7	2	1	37
24	22	15	14	13	32
25	12	58	56	55	60
26	13	31	13	12	34
27	14	46	48	49	73
28	13	24	17	16	26
29	14	46	48	49	50
30	22	53	54	55	60
31	13	24	17	16	25
32	15	17	18	19	20
33	13	73	49	48	75
34	26	41	40	39	43
35	22	48	49	50	71
36	22	16	17	18	21
37	13	23	17	16	26
38	1	1	2	3	4
38	2	1	2	3	4
39	22	12	13	14	29
40	22	18	17	16	25
41	13	72	49	48	74
42	13	61	55	54	62
43	13	21	18	17	23
44	13	29	14	13	31
45	13	28	15	14	30
46	13	42	39	38	44
47	22	55	54	53	65
48	11	3	4	9	11
49	27	55	56	58	59
50	12	22	18	19	46
51	5	5	3	4	9
52	13	65	53	52	67
53	13	67	52	51	69
54	6	2	1	37	38
55	13	27	15	14	29
56	22	52	51	50	70
57	22	13	12	11	36
58	22	49	50	51	68
59	22	51	52	53	65
60	12	17	18	19	46
61	22	16	15	14	30
62	22	53	52	51	69
63	13	6	3	2	7
64	5	8	2	1	37
65	23	20	19	46	48
66	22	13	12	11	35
67	3	4	3	2	7
67	4	4	3	2	7
68	5	1	37	38	44
69	22	50	49	48	75
70	13	30	14	13	31
71	13	25	16	15	28
72	28	57	56	58	59
72	29	57	56	58	59
73	13	25	16	15	27
74	19	11	12	13	14
74	20	11	12	13	14
74	21	11	12	13	14
75	13	73	49	48	74
76	22	52	53	54	62
77	23	20	19	46	47
78	3	37	38	39	42
78	4	37	38	39	42
79	14	19	18	17	24
80	14	9	11	12	33
81	22	15	14	13	31
82	13	63	54	53	64
83	16	57	56	55	60
83	17	57	56	55	60
83	18	57	56	55	60
84	22	11	12	13	32
85	19	13	14	15	16
85	20	13	14	15	16
85	21	13	14	15	16
86	13	60	55	54	62
87	22	14	13	12	34
88	13	6	3	2	8
89	3	40	39	38	45
89	4	40	39	38	45
90	22	15	16	17	24
91	3	4	3	2	8
91	4	4	3	2	8
92	22	16	15	14	29
93	13	22	18	17	24
94	13	23	17	16	25
95	22	51	50	49	73
96	19	12	13	14	15
96	20	12	13	14	15
96	21	12	13	14	15
97	15	47	46	48	49
98	13	71	50	49	72
99	13	60	55	54	63
100	13	68	51	50	70
101	12	21	18	19	46
102	19	48	49	50	51
102	20	48	49	50	51
102	21	48	49	50	51
103	13	66	52	51	68
104	13	70	50	49	73
105	22	52	51	50	71
106	13	32	13	12	33
107	16	47	46	48	74
107	17	47	46	48	74
107	18	47	46	48	74
108	13	43	39	38	45
109	16	10	9	11	36
109	17	10	9	11	36
109	18	10	9	11	36
110	19	52	53	54	55
110	20	52	53	54	55
110	21	52	53	54	55
111	13	61	55	54	63
112	12	4	9	11	35
113	1	37	38	39	40
113	2	37	38	39	40
114	26	41	40	39	42
115	13	62	54	53	65
116	13	65	53	52	66
117	22	50	49	48	74
118	13	64	53	52	67
119	19	14	15	16	17
119	20	14	15	16	17
119	21	14	15	16	17
120	19	50	51	52	53
120	20	50	51	52	53
120	21	50	51	52	53
121	13	67	52	51	68
122	5	3	2	1	37
123	3	40	39	38	44
123	4	40	39	38	44
124	13	28	15	14	29
125	14	53	54	55	56
126	16	10	9	11	35
126	17	10	9	11	35
126	18	10	9	11	35
127	22	50	51	52	67
128	14	46	48	49	72
129	13	31	13	12	33
130	24	38	39	40	41
130	25	38	39	40	41
131	12	4	9	11	12
132	19	51	52	53	54
132	20	51	52	53	54
132	21	51	52	53	54
133	16	20	19	18	22
133	17	20	19	18	22
133	18	20	19	18	22
134	22	50	51	52	66
135	22	49	50	51	69
136	12	58	56	55	61
137	15	10	9	11	12
138	22	11	12	13	31
139	14	56	55	54	62
140	22	52	53	54	63
141	13	21	18	17	24
142	22	53	54	55	61
143	12	4	9	11	36
144	13	68	51	50	71
145	13	69	51	50	70
146	12	54	55	56	58
147	13	42	39	38	45
148	12	19	46	48	75
149	22	14	15	16	26
150	22	17	16	15	28
151	14	56	55	54	63
152	22	17	16	15	27
153	22	55	54	53	64
154	13	34	12	11	36
155	5	6	3	4	9
156	22	16	17	18	22
157	19	15	16	17	18
157	20	15	16	17	18
157	21	15	16	17	18
158	14	19	18	17	23
159	13	33	12	11	36
160	14	9	11	12	34
161	13	27	15	14	30
162	22	13	14	15	28
163	22	51	52	53	64
164	22	13	14	15	27
165	19	49	50	51	52
165	20	49	50	51	52
165	21	49	50	51	52
166	14	9	11	12	13
167	13	34	12	11	35
168	7	2	3	4	9
168	8	2	3	4	9
169	13	29	14	13	32
170	22	15	16	17	23
171	22	54	53	52	67
172	13	62	54	53	64
173	13	64	53	52	66
174	13	66	52	51	69
175	22	18	17	16	26
176	22	48	49	50	70
177	13	22	18	17	23
178	5	1	37	38	45
179	22	53	52	51	68
180	13	33	12	11	35
181	3	37	38	39	43
181	4	37	38	39	43
182	13	5	3	2	7
183	22	54	53	52	66
184	13	43	39	38	44
185	22	14	13	12	33
186	13	71	50	49	73
187	13	72	49	48	75
188	12	19	46	48	49
189	13	32	13	12	34

Impropers

26	2	46	47	48	19
84	1	56	58	55	57
99	1	9	4	10	11
149	1	9	11	4	10
177	2	19	46	18	20
198	1	9	10	11	4
266	1	56	57	58	55
294	2	19	20	46	18
301	1	56	55	57	58
340	2	46	19	47	48
412	2	19	18	20	46
447	2	46	48	19	47
