Title

79 atoms
82 bonds
149 angles
277 dihedrals
48 impropers

9 atom types
12 bond types
6 angle types
23 dihedral types
2 improper types
-9.725000381 90.27499962 xlo xhi
-7.828999996 92.171 ylo yhi
-6.085999966 93.91400003 zlo zhi
0.0 0.0 0.0 xy xz yz

Masses

1	15.99943
2	12.01078
3	1.007947
4	1.007947
5	12.01078
6	15.99943
7	1.007947
8	15.99943
9	1.007947


Pair Coeffs

1	0.16846514	3.0251065
2	0.10884061	3.3795318
3	0.015779483	2.6445434
4	0.016409246	2.5832257
5	0.086879315	3.4806469
6	0.2102061	3.0398122
7	0.015611343	2.5725815
8	0.20947353	2.99716
9	1.2326e-05	0.53453923

Bond Coeffs

1 harmonic	366.7408841747	1.425895053732
2 harmonic	300.03137914615	1.451203938761
3 harmonic	264.62148576755	1.52190126495
4 harmonic	370.04670688625	1.093899492634
5 harmonic	301.15400723785	1.345741232799
6 harmonic	582.698766451	1.225198386222
7 harmonic	279.1350963404	1.454628925034
8 harmonic	360.7852444772	1.387193227181
9 harmonic	397.2545789619	1.085358495916
10 harmonic	329.96998057905	1.427343958716
11 harmonic	543.5267831885	0.9716763312559
12 harmonic	385.7604595587	1.369745182308


Angle Coeffs

1 harmonic	53.20531626545	116.5475862634
2 harmonic	65.09061609600001	110.3538806181
3 harmonic	48.776492647595	115.6030999533
4 harmonic	201.41175231035	127.4691416191
5 harmonic	57.8982893754	126.8062420451
6 harmonic	34.066775159195	129.1835929926


Dihedral Coeffs

1 fourier 1	0.1115525666802	3	0
2 fourier 1	0.3432490222662	1	0
3 fourier 1	0.1155372516788	3	0
4 fourier 1	0.0473758381877	3	0
5 fourier 1	0.457973137376	1	0
6 fourier 1	0.1040663847541	3	0
7 fourier 1	0.09223874044423	3	0
8 fourier 1	0.3159935921949	2	180
9 fourier 1	0.3247796806857	1	180
10 fourier 1	0.1911926717192	3	0
11 fourier 1	0.1918272375143	3	0
12 fourier 1	0.9202179876409	1	180
13 fourier 1	1.163809172478	2	180
14 fourier 1	0.1679186987369	1	180
15 fourier 1	2.779853741805	2	180
16 fourier 1	0.9974165607242	2	180
17 fourier 1	3.661930099076	2	180
18 fourier 1	0.3445382149273	3	0
19 fourier 1	0.1364556373303	1	0
20 fourier 1	0.3026390167484	3	0
21 fourier 1	2.687457892086	2	180
22 fourier 1	2.772607909663	2	180
23 fourier 1	0.09692684957115	1	0


Improper Coeffs

1 3.5	-1	2
2 0.3666666666666667	-1	2


Atoms

1	1	1	-0.139322	3.734	0.289	0.2
2	1	2	0.019507	2.721	-0.61799997	-0.14300001
3	1	2	-0.070616998	1.439	0.125	-0.56800002
4	1	3	0.093038999	1.692	0.74000001	-1.461
5	1	2	-0.16237199	0.33199999	-0.87400001	-1.003
6	1	3	0.100833	0.77499998	-1.819	-1.388
7	1	3	0.100833	-0.249	-0.43200001	-1.842
8	1	2	-0.162815	-0.63700002	-1.1950001	0.142
9	1	3	0.10022	-1.3609999	-1.967	-0.197
10	1	3	0.10022	-0.057	-1.648	0.97600001
11	1	2	-0.071663	-1.369	0.075000003	0.66100001
12	1	2	0.112726	-2.76	0.23	0.023
13	1	1	-0.49167001	-3.592	-0.82700002	0.419
14	1	4	0.094223998	-2.6689999	0.244	-1.086
15	1	4	0.094223998	-3.214	1.191	0.354
16	1	3	0.089924999	-1.518	-0.052000001	1.757
17	1	2	-0.162815	-0.53899997	1.367	0.44999999
18	1	3	0.10022	-0.82700002	2.1210001	1.215
19	1	3	0.10022	-0.74699998	1.809	-0.55000001
20	1	2	-0.16237199	0.963	1.087	0.55299997
21	1	3	0.100833	1.1720001	0.65499997	1.557
22	1	3	0.100833	1.521	2.046	0.479
23	1	4	0.101217	2.5079999	-1.2640001	0.736
24	1	4	0.101217	3.073	-1.28	-0.96700001
25	1	5	0.780123	-4.5009999	-0.67199999	-0.057
26	1	6	-0.572312	-4.6859999	0.40599999	-0.68000001
27	1	5	-0.309082	-5.553	-1.702	0
28	1	5	-0.11081	-5.3400002	-2.8469999	0.67000002
29	1	7	0.20750199	-4.3969998	-3.027	1.173
30	1	5	-0.067872003	-6.3899999	-3.885	0.73199999
31	1	7	0.189991	-6.1900001	-4.7979999	1.279
32	1	5	-0.370509	-7.5710001	-3.6949999	0.12
33	1	5	0.57856399	-8.6129999	-4.7350001	0.18700001
34	1	6	-0.61016202	-9.7250004	-4.572	-0.38100001
35	1	5	-0.067872003	-7.809	-2.4300001	-0.62
36	1	7	0.189991	-8.7539997	-2.2590001	-1.12
37	1	5	-0.11081	-6.8579998	-1.49	-0.67699999
38	1	7	0.20750199	-7.0489998	-0.574	-1.221
39	1	1	-0.139322	4.0710001	0.67400002	-0.64999998
40	1	2	0.019507	3.0969999	1.581	-1.0930001
41	1	2	-0.070616998	1.8710001	0.838	-1.661
42	1	3	0.093038999	1.4450001	0.223	-0.83600003
43	1	2	-0.161586	0.76599997	1.837	-2.0999999
44	1	3	0.100833	0.82499999	2.7820001	-1.517
45	1	3	0.100833	-0.23199999	1.395	-1.887
46	1	2	-0.15453	0.84299999	2.158	-3.598
47	1	3	0.100833	0.083999999	2.9300001	-3.8469999
48	1	3	0.100833	1.836	2.6110001	-3.8099999
49	1	2	-0.112026	0.66500002	0.88800001	-4.4780002
50	1	2	0.081583001	-0.78600001	0.73400003	-4.9650002
51	1	8	-0.669846	-1.122	1.79	-5.822
52	1	9	0.38374901	-2.0669999	1.642	-6.086
53	1	4	0.090314001	-1.479	0.71899998	-4.0929999
54	1	4	0.090314001	-0.89099997	-0.228	-5.5170002
55	1	3	0.096597001	1.306	1.015	-5.3800001
56	1	2	-0.15453	1.126	-0.40400001	-3.756
57	1	3	0.100833	1.439	-1.158	-4.5110002
58	1	3	0.100833	0.28999999	-0.84600002	-3.1689999
59	1	2	-0.161586	2.2909999	-0.124	-2.803
60	1	3	0.100833	3.131	0.308	-3.3929999
61	1	3	0.100833	2.648	-1.0829999	-2.368
62	1	4	0.101217	3.543	2.227	-1.88
63	1	4	0.101217	2.79	2.243	-0.25099999
64	1	5	0.57856399	-8.4320002	-5.6539998	0.72899997
65	1	6	-0.61016202	-8.6400003	-6.7529998	0.15000001
66	1	5	-0.370509	-7.9499998	-5.6129999	2.1210001
67	1	5	-0.067872003	-7.7340002	-4.4320002	2.724
68	1	7	0.189991	-7.9089999	-3.5009999	2.198
69	1	5	-0.108313	-7.25	-4.382	4.1199999
70	1	7	0.20750199	-7.0869999	-3.4119999	4.573
71	1	5	-0.29764801	-7.0209999	-5.5170002	4.8049998
72	1	5	0.82627797	-6.5370002	-5.4840002	6.2030001
73	1	6	-0.549591	-6.3280001	-4.3850002	6.7849998
74	1	8	-0.67874801	-6.3080001	-6.6729999	6.8899999
75	1	9	0.39815199	-5.9759998	-6.6659999	7.8470001
76	1	5	-0.108313	-7.2610002	-6.822	4.138
77	1	7	0.20750199	-7.0830002	-7.7490001	4.6680002
78	1	5	-0.067872003	-7.698	-6.8670001	2.8729999
79	1	7	0.189991	-7.8670001	-7.829	2.405

Bonds

1	1	1	2
2	2	1	39
3	3	2	3
4	4	2	23
5	4	2	24
6	4	3	4
7	3	3	5
8	3	3	20
9	4	5	6
10	4	5	7
11	3	5	8
12	4	8	9
13	4	8	10
14	3	8	11
15	3	11	12
16	4	11	16
17	3	11	17
18	1	12	13
19	4	12	14
20	4	12	15
21	5	13	25
22	4	17	18
23	4	17	19
24	3	17	20
25	4	20	21
26	4	20	22
27	6	25	26
28	7	25	27
29	8	27	28
30	8	27	37
31	9	28	29
32	8	28	30
33	9	30	31
34	8	30	32
35	7	32	33
36	8	32	35
37	6	33	34
38	7	33	64
39	9	35	36
40	8	35	37
41	9	37	38
42	1	39	40
43	3	40	41
44	4	40	62
45	4	40	63
46	4	41	42
47	3	41	43
48	3	41	59
49	4	43	44
50	4	43	45
51	3	43	46
52	4	46	47
53	4	46	48
54	3	46	49
55	3	49	50
56	4	49	55
57	3	49	56
58	10	50	51
59	4	50	53
60	4	50	54
61	11	51	52
62	4	56	57
63	4	56	58
64	3	56	59
65	4	59	60
66	4	59	61
67	6	64	65
68	7	64	66
69	8	66	67
70	8	66	78
71	9	67	68
72	8	67	69
73	9	69	70
74	8	69	71
75	7	71	72
76	8	71	76
77	6	72	73
78	12	72	74
79	11	74	75
80	9	76	77
81	8	76	78
82	9	78	79

Angles

1	1	2	3	5
2	1	11	17	18
3	4	13	25	26
4	5	13	25	27
5	5	25	27	37
6	3	44	43	45
7	5	32	33	34
8	1	3	20	22
9	1	3	5	7
10	1	11	12	13
11	5	34	33	64
12	1	5	8	9
13	3	21	20	22
14	1	41	59	61
15	1	49	50	51
16	5	64	66	78
17	1	40	41	43
18	5	71	72	73
19	3	62	40	63
20	2	2	1	39
21	1	49	56	57
22	1	39	40	63
23	1	41	40	62
24	1	17	20	22
25	1	45	43	46
26	1	8	11	12
27	1	39	40	41
28	5	67	66	78
29	6	27	37	38
30	6	76	78	79
31	1	17	20	21
32	6	27	28	29
33	1	13	12	14
34	1	42	41	43
35	1	49	56	59
36	3	6	5	7
37	1	51	50	54
38	5	33	64	65
39	5	30	32	35
40	1	12	11	17
41	5	32	35	37
42	1	9	8	11
43	1	3	2	24
44	6	66	78	79
45	1	57	56	59
46	1	4	3	20
47	1	49	50	54
48	5	28	30	32
49	5	28	27	37
50	1	18	17	20
51	1	8	11	16
52	1	46	49	50
53	1	3	2	23
54	1	3	20	21
55	5	32	33	64
56	1	13	12	15
57	1	7	5	8
58	5	69	71	72
59	6	67	69	70
60	1	4	3	5
61	6	71	76	77
62	1	41	59	56
63	5	26	25	27
64	1	50	49	55
65	3	47	46	48
66	1	51	50	53
67	1	58	56	59
68	1	55	49	56
69	5	64	66	67
70	3	9	8	10
71	6	32	35	36
72	1	50	49	56
73	5	69	71	76
74	3	53	50	54
75	1	11	12	14
76	1	43	46	49
77	1	39	40	62
78	1	49	50	53
79	5	71	72	74
80	6	77	76	78
81	1	11	17	20
82	5	30	32	33
83	2	1	39	40
84	1	40	41	42
85	4	73	72	74
86	1	41	43	46
87	5	27	37	35
88	5	25	27	28
89	1	3	5	8
90	1	56	59	60
91	1	41	43	45
92	6	29	28	30
93	1	43	41	59
94	3	14	12	15
95	1	3	5	6
96	5	66	67	69
97	1	43	46	47
98	1	40	41	59
99	5	65	64	66
100	1	11	12	15
101	6	35	37	38
102	6	70	69	71
103	1	16	11	17
104	3	18	17	19
105	3	57	56	58
106	3	60	59	61
107	5	66	78	76
108	5	67	69	71
109	1	41	59	60
110	1	1	2	24
111	5	72	71	76
112	5	33	32	35
113	6	36	35	37
114	1	5	8	11
115	1	3	20	17
116	1	6	5	8
117	1	10	8	11
118	1	1	2	23
119	1	8	11	17
120	2	12	13	25
121	1	12	11	16
122	1	47	46	49
123	1	42	41	59
124	6	31	30	32
125	1	46	49	55
126	6	28	30	31
127	6	66	67	68
128	1	41	43	44
129	1	5	3	20
130	1	11	17	19
131	1	2	3	20
132	5	33	64	66
133	1	56	59	61
134	1	1	2	3
135	5	71	76	78
136	1	46	49	56
137	6	68	67	69
138	5	27	28	30
139	1	48	46	49
140	2	50	51	52
141	1	49	56	58
142	1	2	3	4
143	1	19	17	20
144	1	5	8	10
145	1	44	43	46
146	3	23	2	24
147	2	72	74	75
148	1	41	40	63
149	1	43	46	48

Dihedrals

1	6	2	3	5	7
2	17	33	32	35	37
3	6	7	5	3	20
4	6	55	49	56	59
5	7	46	49	56	59
5	8	46	49	56	59
5	9	46	49	56	59
6	6	4	3	20	17
7	6	4	3	5	8
8	4	14	12	13	25
9	7	12	11	17	20
9	8	12	11	17	20
9	9	12	11	17	20
10	17	69	67	66	78
11	5	2	1	39	40
12	4	24	2	1	39
13	10	45	43	46	47
14	6	6	5	3	20
15	10	14	12	11	16
16	17	28	30	32	33
17	10	47	46	49	55
18	17	64	66	78	79
19	16	73	72	71	76
20	10	7	5	8	10
21	17	30	28	27	37
22	7	5	8	11	17
22	8	5	8	11	17
22	9	5	8	11	17
23	10	9	8	11	16
24	6	47	46	49	56
25	7	5	3	20	17
25	8	5	3	20	17
25	9	5	3	20	17
26	7	8	11	17	20
26	8	8	11	17	20
26	9	8	11	17	20
27	17	66	78	76	71
28	7	43	46	49	56
28	8	43	46	49	56
28	9	43	46	49	56
29	7	41	43	46	49
29	8	41	43	46	49
29	9	41	43	46	49
30	10	6	5	8	10
31	10	16	11	17	18
32	6	50	49	56	57
33	6	3	20	17	18
34	11	11	12	13	25
34	12	11	12	13	25
35	6	43	41	59	60
36	10	18	17	20	21
37	16	26	25	27	28
38	6	42	41	59	56
39	7	3	20	17	11
39	8	3	20	17	11
39	9	3	20	17	11
40	17	25	27	37	35
41	10	10	8	11	16
42	17	70	69	71	72
43	10	57	56	59	61
44	17	68	67	69	71
45	6	45	43	46	49
46	18	49	50	51	52
46	19	49	50	51	52
47	16	32	33	64	65
48	4	1	39	40	63
49	10	6	5	8	9
50	7	41	59	56	49
50	8	41	59	56	49
50	9	41	59	56	49
51	16	30	32	33	64
52	17	70	69	71	76
53	1	39	40	41	42
53	2	39	40	41	42
54	10	19	17	20	22
55	10	16	11	17	19
56	6	49	56	59	60
57	22	73	72	74	75
57	23	73	72	74	75
58	17	28	27	37	35
59	10	42	41	43	45
60	4	1	39	40	41
61	7	50	49	56	59
61	8	50	49	56	59
61	9	50	49	56	59
62	10	4	3	20	22
63	6	40	41	59	61
64	16	65	64	66	78
65	6	8	11	12	14
66	10	4	3	2	23
67	10	44	43	46	48
68	6	48	46	49	56
69	17	69	71	76	78
70	17	71	76	78	79
71	6	43	46	49	55
72	4	1	39	40	62
73	6	5	3	20	22
74	17	29	28	30	32
75	6	2	3	5	6
76	6	40	41	43	44
77	4	15	12	13	25
78	7	46	43	41	59
78	8	46	43	41	59
78	9	46	43	41	59
79	17	67	66	78	79
80	3	39	40	41	59
81	10	15	12	11	16
82	17	72	71	76	78
83	6	43	41	40	63
84	17	64	66	67	69
85	10	4	3	20	21
86	17	67	69	71	76
87	17	25	27	28	29
88	20	52	51	50	54
89	6	11	17	20	22
90	10	55	49	56	58
91	10	58	56	59	60
92	17	68	67	66	78
93	16	33	64	66	78
94	7	5	8	11	12
94	8	5	8	11	12
94	9	5	8	11	12
95	6	43	41	59	61
96	6	46	49	56	58
97	10	42	41	59	60
98	16	65	64	66	67
99	6	5	3	20	21
100	10	7	5	8	9
101	17	33	32	35	36
102	7	8	5	3	20
102	8	8	5	3	20
102	9	8	5	3	20
103	6	8	11	17	19
104	6	8	11	12	15
105	6	42	41	43	46
106	17	66	78	76	77
107	17	64	66	78	76
108	6	48	46	49	50
109	16	13	25	27	37
110	6	54	50	49	56
111	16	69	71	72	73
112	1	13	12	11	16
112	2	13	12	11	16
113	10	4	3	2	24
114	10	4	3	5	7
115	16	34	33	64	66
116	10	53	50	49	55
117	6	14	12	11	17
118	6	41	59	56	58
119	6	43	41	40	62
120	1	51	50	49	55
120	2	51	50	49	55
121	6	11	17	20	21
122	6	12	11	17	18
123	17	27	28	30	31
124	3	46	49	50	51
125	6	9	8	11	17
126	6	45	43	41	59
127	6	53	50	49	56
128	16	32	33	64	66
129	17	31	30	32	35
130	7	2	3	20	17
130	8	2	3	20	17
130	9	2	3	20	17
131	7	2	3	5	8
131	8	2	3	5	8
131	9	2	3	5	8
132	6	49	56	59	61
133	6	47	46	49	50
134	3	51	50	49	56
135	17	30	32	35	37
136	6	41	43	46	48
137	6	8	11	17	18
138	20	52	51	50	53
139	10	55	49	56	57
140	17	67	69	71	72
141	16	26	25	27	37
142	17	32	35	37	38
143	10	19	17	20	21
144	17	29	28	27	37
145	6	10	8	11	17
146	6	5	3	2	24
147	17	64	66	67	68
148	6	5	8	11	16
149	6	16	11	17	20
150	17	77	76	78	79
151	6	59	41	40	63
152	7	3	5	8	11
152	8	3	5	8	11
152	9	3	5	8	11
153	6	20	3	2	23
154	10	45	43	46	48
155	17	28	27	37	38
156	6	12	11	17	19
157	4	23	2	1	39
158	6	50	49	56	58
159	6	41	59	56	57
160	6	5	3	2	23
161	3	1	2	3	5
162	6	6	5	8	11
163	7	40	41	59	56
163	8	40	41	59	56
163	9	40	41	59	56
164	10	42	41	40	63
165	16	74	72	71	76
166	10	44	43	46	47
167	10	54	50	49	55
168	17	27	37	35	32
169	10	58	56	59	61
170	17	36	35	37	38
171	17	66	67	69	70
172	10	42	41	59	61
173	10	18	17	20	22
174	3	39	40	41	43
175	17	67	66	78	76
176	17	66	67	69	71
177	17	27	37	35	36
178	6	59	41	40	62
179	17	31	30	32	33
180	13	12	13	25	26
180	14	12	13	25	26
181	6	2	3	20	22
182	6	3	5	8	10
183	15	12	13	25	27
184	17	25	27	28	30
185	10	42	41	43	44
186	6	40	41	43	45
187	21	71	72	74	75
188	17	25	27	37	38
189	6	46	49	50	54
190	17	28	30	32	35
191	10	42	41	40	62
192	3	8	11	12	13
193	6	15	12	11	17
194	10	4	3	5	6
195	6	44	43	46	49
196	7	43	46	49	50
196	8	43	46	49	50
196	9	43	46	49	50
197	7	43	41	59	56
197	8	43	41	59	56
197	9	43	41	59	56
198	6	20	3	2	24
199	16	30	32	33	34
200	3	1	2	3	20
201	16	33	64	66	67
202	17	69	71	76	77
203	6	46	49	56	57
204	10	57	56	59	60
205	17	68	67	69	70
206	17	29	28	30	31
207	16	34	33	32	35
208	1	1	2	3	4
208	2	1	2	3	4
209	6	9	8	11	12
210	16	34	33	64	65
211	6	44	43	41	59
212	6	2	3	20	21
213	17	72	71	76	77
214	6	3	5	8	9
215	6	7	5	8	11
216	16	35	32	33	64
217	3	13	12	11	17
218	16	69	71	72	74
219	4	3	2	1	39
220	6	10	8	11	12
221	10	48	46	49	55
222	6	40	41	59	60
223	6	41	43	46	47
224	17	27	28	30	32
225	6	3	20	17	19
226	17	30	32	35	36
227	7	40	41	43	46
227	8	40	41	43	46
227	9	40	41	43	46
228	6	46	49	50	53
229	16	13	25	27	28

Impropers

10	1	72	71	73	74
11	2	69	71	67	70
21	2	71	72	76	69
38	2	28	30	27	29
46	2	66	67	78	64
57	2	67	68	69	66
64	1	25	26	27	13
78	2	33	34	64	32
81	2	69	70	71	67
83	2	28	29	30	27
84	2	71	69	72	76
86	2	76	78	71	77
92	2	30	32	28	31
106	2	32	30	33	35
114	2	78	66	76	79
118	2	37	27	35	38
129	2	67	69	66	68
148	2	27	25	28	37
158	2	27	37	25	28
163	2	28	27	29	30
168	2	78	79	66	76
179	1	72	74	71	73
182	2	37	38	27	35
185	2	64	65	66	33
194	2	35	37	32	36
198	2	66	64	67	78
249	2	67	66	68	69
264	2	66	78	64	67
271	1	72	73	74	71
274	2	37	35	38	27
278	2	32	35	30	33
295	2	30	31	32	28
310	2	64	66	33	65
319	1	25	13	26	27
322	2	33	64	32	34
325	2	35	36	37	32
343	2	69	67	70	71
362	2	35	32	36	37
373	2	64	33	65	66
379	2	78	76	79	66
382	2	71	76	69	72
402	2	76	71	77	78
409	2	27	28	37	25
427	2	30	28	31	32
435	1	25	27	13	26
442	2	32	33	35	30
458	2	76	77	78	71
469	2	33	32	34	64
