Title

79 atoms
82 bonds
149 angles
277 dihedrals
48 impropers

9 atom types
12 bond types
6 angle types
23 dihedral types
2 improper types
-9.725000381 90.27499962 xlo xhi
-7.828999996 92.171 ylo yhi
-6.085999966 93.91400003 zlo zhi
0.0 0.0 0.0 xy xz yz

Masses

1	15.99943
2	12.01078
3	1.007947
4	1.007947
5	12.01078
6	15.99943
7	1.007947
8	15.99943
9	1.007947


Pair Coeffs

1	0.16846514	3.0251065
2	0.10884061	3.3795318
3	0.015779483	2.6445434
4	0.016409246	2.5832257
5	0.086879315	3.4806469
6	0.2102061	3.0398122
7	0.015611343	2.5725815
8	0.20947353	2.99716
9	1.2326e-05	0.53453923

Bond Coeffs

1 harmonic	366.7408841747	1.425895053732
2 harmonic	300.03137914615	1.451203938761
3 harmonic	264.62148576755	1.52190126495
4 harmonic	370.04670688625	1.093899492634
5 harmonic	301.15400723785	1.345741232799
6 harmonic	582.698766451	1.225198386222
7 harmonic	279.1350963404	1.454628925034
8 harmonic	360.7852444772	1.387193227181
9 harmonic	397.2545789619	1.085358495916
10 harmonic	329.96998057905	1.427343958716
11 harmonic	543.5267831885	0.9716763312559
12 harmonic	385.7604595587	1.369745182308


Angle Coeffs

1 harmonic	53.20531626545	116.5475862634
2 harmonic	65.09061609600001	110.3538806181
3 harmonic	48.776492647595	115.6030999533
4 harmonic	201.41175231035	127.4691416191
5 harmonic	57.8982893754	126.8062420451
6 harmonic	34.066775159195	129.1835929926


Dihedral Coeffs

1 fourier 1	0.1115525666802	3	0
2 fourier 1	0.3432490222662	1	0
3 fourier 1	0.1155372516788	3	0
4 fourier 1	0.0473758381877	3	0
5 fourier 1	0.457973137376	1	0
6 fourier 1	0.1040663847541	3	0
7 fourier 1	0.09223874044423	3	0
8 fourier 1	0.3159935921949	2	180
9 fourier 1	0.3247796806857	1	180
10 fourier 1	0.1911926717192	3	0
11 fourier 1	0.1918272375143	3	0
12 fourier 1	0.9202179876409	1	180
13 fourier 1	1.163809172478	2	180
14 fourier 1	0.1679186987369	1	180
15 fourier 1	2.779853741805	2	180
16 fourier 1	0.9974165607242	2	180
17 fourier 1	3.661930099076	2	180
18 fourier 1	0.3445382149273	3	0
19 fourier 1	0.1364556373303	1	0
20 fourier 1	0.3026390167484	3	0
21 fourier 1	2.687457892086	2	180
22 fourier 1	2.772607909663	2	180
23 fourier 1	0.09692684957115	1	0


Improper Coeffs

1 3.5	-1	2
2 0.3666666666666667	-1	2


Atoms

1	1	1	-0.139322	3.734	0.289	0.2
2	1	2	0.019507	2.721	-0.61799997	-0.14300001
3	1	2	-0.070616998	1.439	0.125	-0.56800002
4	1	3	0.093038999	1.692	0.74000001	-1.461
5	1	2	-0.16237199	0.33199999	-0.87400001	-1.003
6	1	3	0.100833	0.77499998	-1.819	-1.388
7	1	3	0.100833	-0.249	-0.43200001	-1.842
8	1	2	-0.162815	-0.63700002	-1.1950001	0.142
9	1	3	0.10022	-1.3609999	-1.967	-0.197
10	1	3	0.10022	-0.057	-1.648	0.97600001
11	1	2	-0.071663	-1.369	0.075000003	0.66100001
12	1	2	0.112726	-2.76	0.23	0.023
13	1	1	-0.49167001	-3.592	-0.82700002	0.419
14	1	4	0.094223998	-2.6689999	0.244	-1.086
15	1	4	0.094223998	-3.214	1.191	0.354
16	1	3	0.089924999	-1.518	-0.052000001	1.757
17	1	2	-0.162815	-0.53899997	1.367	0.44999999
18	1	3	0.10022	-0.82700002	2.1210001	1.215
19	1	3	0.10022	-0.74699998	1.809	-0.55000001
20	1	2	-0.16237199	0.963	1.087	0.55299997
21	1	3	0.100833	1.1720001	0.65499997	1.557
22	1	3	0.100833	1.521	2.046	0.479
23	1	4	0.101217	2.5079999	-1.2640001	0.736
24	1	4	0.101217	3.073	-1.28	-0.96700001
25	1	5	0.780123	-4.5009999	-0.67199999	-0.057
26	1	6	-0.572312	-4.6859999	0.40599999	-0.68000001
27	1	5	-0.309082	-5.553	-1.702	0
28	1	5	-0.11081	-5.3400002	-2.8469999	0.67000002
29	1	7	0.20750199	-4.3969998	-3.027	1.173
30	1	5	-0.067872003	-6.3899999	-3.885	0.73199999
31	1	7	0.189991	-6.1900001	-4.7979999	1.279
32	1	5	-0.370509	-7.5710001	-3.6949999	0.12
33	1	5	0.57856399	-8.6129999	-4.7350001	0.18700001
34	1	6	-0.61016202	-9.7250004	-4.572	-0.38100001
35	1	5	-0.067872003	-7.809	-2.4300001	-0.62
36	1	7	0.189991	-8.7539997	-2.2590001	-1.12
37	1	5	-0.11081	-6.8579998	-1.49	-0.67699999
38	1	7	0.20750199	-7.0489998	-0.574	-1.221
39	1	1	-0.139322	4.0710001	0.67400002	-0.64999998
40	1	2	0.019507	3.0969999	1.581	-1.0930001
41	1	2	-0.070616998	1.8710001	0.838	-1.661
42	1	3	0.093038999	1.4450001	0.223	-0.83600003
43	1	2	-0.161586	0.76599997	1.837	-2.0999999
44	1	3	0.100833	0.82499999	2.7820001	-1.517
45	1	3	0.100833	-0.23199999	1.395	-1.887
46	1	2	-0.15453	0.84299999	2.158	-3.598
47	1	3	0.100833	0.083999999	2.9300001	-3.8469999
48	1	3	0.100833	1.836	2.6110001	-3.8099999
49	1	2	-0.112026	0.66500002	0.88800001	-4.4780002
50	1	2	0.081583001	-0.78600001	0.73400003	-4.9650002
51	1	8	-0.669846	-1.122	1.79	-5.822
52	1	9	0.38374901	-2.0669999	1.642	-6.086
53	1	4	0.090314001	-1.479	0.71899998	-4.0929999
54	1	4	0.090314001	-0.89099997	-0.228	-5.5170002
55	1	3	0.096597001	1.306	1.015	-5.3800001
56	1	2	-0.15453	1.126	-0.40400001	-3.756
57	1	3	0.100833	1.439	-1.158	-4.5110002
58	1	3	0.100833	0.28999999	-0.84600002	-3.1689999
59	1	2	-0.161586	2.2909999	-0.124	-2.803
60	1	3	0.100833	3.131	0.308	-3.3929999
61	1	3	0.100833	2.648	-1.0829999	-2.368
62	1	4	0.101217	3.543	2.227	-1.88
63	1	4	0.101217	2.79	2.243	-0.25099999
64	1	5	0.57856399	-8.4320002	-5.6539998	0.72899997
65	1	6	-0.61016202	-8.6400003	-6.7529998	0.15000001
66	1	5	-0.370509	-7.9499998	-5.6129999	2.1210001
67	1	5	-0.067872003	-7.7340002	-4.4320002	2.724
68	1	7	0.189991	-7.9089999	-3.5009999	2.198
69	1	5	-0.108313	-7.25	-4.382	4.1199999
70	1	7	0.20750199	-7.0869999	-3.4119999	4.573
71	1	5	-0.29764801	-7.0209999	-5.5170002	4.8049998
72	1	5	0.82627797	-6.5370002	-5.4840002	6.2030001
73	1	6	-0.549591	-6.3280001	-4.3850002	6.7849998
74	1	8	-0.67874801	-6.3080001	-6.6729999	6.8899999
75	1	9	0.39815199	-5.9759998	-6.6659999	7.8470001
76	1	5	-0.108313	-7.2610002	-6.822	4.138
77	1	7	0.20750199	-7.0830002	-7.7490001	4.6680002
78	1	5	-0.067872003	-7.698	-6.8670001	2.8729999
79	1	7	0.189991	-7.8670001	-7.829	2.405

Bonds

1	1	1	2
2	2	1	39
3	3	2	3
4	4	2	23
5	4	2	24
6	4	3	4
7	3	3	5
8	3	3	20
9	4	5	6
10	4	5	7
11	3	5	8
12	4	8	9
13	4	8	10
14	3	8	11
15	3	11	12
16	4	11	16
17	3	11	17
18	1	12	13
19	4	12	14
20	4	12	15
21	5	13	25
22	4	17	18
23	4	17	19
24	3	17	20
25	4	20	21
26	4	20	22
27	6	25	26
28	7	25	27
29	8	27	28
30	8	27	37
31	9	28	29
32	8	28	30
33	9	30	31
34	8	30	32
35	7	32	33
36	8	32	35
37	6	33	34
38	7	33	64
39	9	35	36
40	8	35	37
41	9	37	38
42	1	39	40
43	3	40	41
44	4	40	62
45	4	40	63
46	4	41	42
47	3	41	43
48	3	41	59
49	4	43	44
50	4	43	45
51	3	43	46
52	4	46	47
53	4	46	48
54	3	46	49
55	3	49	50
56	4	49	55
57	3	49	56
58	10	50	51
59	4	50	53
60	4	50	54
61	11	51	52
62	4	56	57
63	4	56	58
64	3	56	59
65	4	59	60
66	4	59	61
67	6	64	65
68	7	64	66
69	8	66	67
70	8	66	78
71	9	67	68
72	8	67	69
73	9	69	70
74	8	69	71
75	7	71	72
76	8	71	76
77	6	72	73
78	12	72	74
79	11	74	75
80	9	76	77
81	8	76	78
82	9	78	79

Angles

1	1	41	59	61
2	6	31	30	32
3	3	57	56	58
4	3	60	59	61
5	5	67	69	71
6	1	49	56	58
7	1	10	8	11
8	1	12	11	16
9	5	26	25	27
10	1	2	3	4
11	1	49	50	53
12	1	47	46	49
13	6	76	78	79
14	3	18	17	19
15	6	32	35	36
16	1	8	11	16
17	5	28	30	32
18	1	49	56	59
19	6	66	78	79
20	1	12	11	17
21	3	21	20	22
22	1	17	20	21
23	5	64	66	78
24	1	49	50	54
25	6	66	67	68
26	4	73	72	74
27	1	40	41	42
28	1	18	17	20
29	3	23	2	24
30	6	71	76	77
31	5	34	33	64
32	1	50	49	55
33	1	44	43	46
34	1	11	12	15
35	1	8	11	17
36	1	43	46	47
37	2	12	13	25
38	6	36	35	37
39	1	19	17	20
40	6	27	28	29
41	5	28	27	37
42	1	1	2	3
43	5	72	71	76
44	1	3	20	21
45	1	41	43	45
46	5	69	71	76
47	1	39	40	41
48	1	50	49	56
49	1	13	12	14
50	6	27	37	38
51	1	51	50	54
52	1	3	20	17
53	2	50	51	52
54	5	69	71	72
55	5	65	64	66
56	1	2	3	20
57	2	72	74	75
58	1	39	40	62
59	1	3	5	6
60	5	67	66	78
61	3	62	40	63
62	1	43	41	59
63	6	35	37	38
64	1	57	56	59
65	1	41	43	46
66	3	9	8	10
67	1	45	43	46
68	1	48	46	49
69	1	5	8	10
70	1	11	17	18
71	1	5	8	9
72	1	2	3	5
73	1	46	49	50
74	1	3	2	23
75	1	42	41	43
76	5	64	66	67
77	1	9	8	11
78	1	4	3	5
79	1	3	5	7
80	1	42	41	59
81	5	32	35	37
82	5	30	32	33
83	5	27	37	35
84	3	6	5	7
85	1	1	2	23
86	5	33	64	65
87	1	11	17	19
88	1	17	20	22
89	1	41	40	62
90	5	25	27	28
91	5	66	67	69
92	1	40	41	43
93	1	5	3	20
94	5	71	76	78
95	2	1	39	40
96	1	7	5	8
97	3	53	50	54
98	5	66	78	76
99	1	40	41	59
100	5	71	72	73
101	1	43	46	48
102	4	13	25	26
103	1	49	50	51
104	3	14	12	15
105	1	56	59	60
106	2	2	1	39
107	1	41	59	60
108	5	27	28	30
109	1	41	40	63
110	6	29	28	30
111	1	4	3	20
112	1	3	20	22
113	6	67	69	70
114	1	49	56	57
115	1	41	59	56
116	1	43	46	49
117	1	13	12	15
118	5	32	33	64
119	1	56	59	61
120	1	58	56	59
121	3	47	46	48
122	1	5	8	11
123	1	39	40	63
124	1	46	49	55
125	1	11	12	13
126	6	28	30	31
127	6	68	67	69
128	5	25	27	37
129	1	3	2	24
130	1	55	49	56
131	1	3	5	8
132	1	16	11	17
133	3	44	43	45
134	1	11	12	14
135	1	46	49	56
136	1	6	5	8
137	1	1	2	24
138	5	33	64	66
139	1	11	17	20
140	5	33	32	35
141	1	8	11	12
142	1	41	43	44
143	6	77	76	78
144	5	71	72	74
145	5	32	33	34
146	5	30	32	35
147	5	13	25	27
148	1	51	50	53
149	6	70	69	71

Dihedrals

1	7	2	3	5	8
1	8	2	3	5	8
1	9	2	3	5	8
2	16	13	25	27	37
3	6	49	56	59	60
4	10	53	50	49	55
5	6	3	20	17	19
6	17	33	32	35	36
7	6	7	5	8	11
8	17	28	30	32	35
9	13	12	13	25	26
9	14	12	13	25	26
10	6	10	8	11	17
11	6	42	41	59	56
12	17	31	30	32	33
13	17	67	69	71	72
14	4	1	39	40	62
15	6	55	49	56	59
16	6	5	3	20	21
17	17	72	71	76	78
18	3	51	50	49	56
19	4	15	12	13	25
20	6	8	11	12	14
21	3	13	12	11	17
22	16	34	33	64	65
23	17	25	27	28	29
24	16	65	64	66	67
25	10	42	41	40	62
26	10	14	12	11	16
27	17	64	66	78	79
28	6	49	56	59	61
29	6	40	41	43	45
30	7	5	3	20	17
30	8	5	3	20	17
30	9	5	3	20	17
31	6	50	49	56	57
32	17	33	32	35	37
33	6	16	11	17	20
34	17	29	28	30	32
35	10	18	17	20	22
36	17	27	28	30	31
37	6	5	3	20	22
38	6	40	41	59	60
39	16	30	32	33	34
40	6	59	41	40	62
41	17	28	27	37	38
42	10	42	41	40	63
43	7	5	8	11	12
43	8	5	8	11	12
43	9	5	8	11	12
44	6	14	12	11	17
45	6	43	41	40	62
46	6	5	3	2	23
47	7	40	41	43	46
47	8	40	41	43	46
47	9	40	41	43	46
48	16	69	71	72	74
49	7	40	41	59	56
49	8	40	41	59	56
49	9	40	41	59	56
50	16	26	25	27	28
51	17	64	66	67	69
52	17	30	28	27	37
53	17	68	67	69	70
54	4	3	2	1	39
55	17	67	69	71	76
56	6	9	8	11	12
57	17	64	66	78	76
58	17	27	28	30	32
59	1	39	40	41	42
59	2	39	40	41	42
60	6	46	49	50	54
61	6	59	41	40	63
62	6	47	46	49	56
63	6	42	41	43	46
64	6	43	46	49	55
65	16	35	32	33	64
66	6	45	43	41	59
67	17	29	28	27	37
68	7	41	59	56	49
68	8	41	59	56	49
68	9	41	59	56	49
69	6	5	3	2	24
70	17	25	27	37	35
71	6	44	43	41	59
72	7	41	43	46	49
72	8	41	43	46	49
72	9	41	43	46	49
73	10	58	56	59	60
74	10	4	3	5	6
75	10	42	41	59	61
76	17	68	67	69	71
77	10	45	43	46	47
78	10	57	56	59	60
79	3	39	40	41	43
80	10	44	43	46	47
81	6	12	11	17	18
82	6	53	50	49	56
83	16	73	72	71	76
84	20	52	51	50	53
85	3	39	40	41	59
86	15	12	13	25	27
87	10	16	11	17	18
88	4	1	39	40	63
89	16	33	64	66	78
90	10	58	56	59	61
91	3	46	49	50	51
92	6	8	11	17	18
93	17	32	35	37	38
94	6	2	3	20	21
95	6	8	11	12	15
96	4	24	2	1	39
97	17	66	78	76	71
98	17	67	66	78	79
99	6	41	59	56	57
100	16	34	33	64	66
101	17	25	27	28	30
102	6	10	8	11	12
103	10	4	3	20	21
104	10	45	43	46	48
105	22	73	72	74	75
105	23	73	72	74	75
106	16	26	25	27	37
107	17	69	71	76	77
108	6	12	11	17	19
109	6	50	49	56	58
110	20	52	51	50	54
111	6	6	5	3	20
112	7	2	3	20	17
112	8	2	3	20	17
112	9	2	3	20	17
113	6	20	3	2	23
114	6	46	49	56	57
115	1	1	2	3	4
115	2	1	2	3	4
116	6	4	3	20	17
117	17	69	67	66	78
118	6	2	3	5	6
119	6	40	41	59	61
120	6	8	11	17	19
121	3	1	2	3	20
122	17	28	30	32	33
123	17	70	69	71	72
124	6	41	59	56	58
125	6	43	41	59	60
126	7	8	5	3	20
126	8	8	5	3	20
126	9	8	5	3	20
127	11	11	12	13	25
127	12	11	12	13	25
128	7	43	46	49	50
128	8	43	46	49	50
128	9	43	46	49	50
129	6	48	46	49	50
130	6	43	41	40	63
131	10	55	49	56	57
132	17	77	76	78	79
133	7	50	49	56	59
133	8	50	49	56	59
133	9	50	49	56	59
134	6	7	5	3	20
135	6	11	17	20	21
136	17	28	27	37	35
137	10	54	50	49	55
138	3	1	2	3	5
139	10	6	5	8	10
140	17	30	32	35	36
141	10	6	5	8	9
142	7	43	41	59	56
142	8	43	41	59	56
142	9	43	41	59	56
143	6	2	3	5	7
144	17	66	67	69	70
145	6	48	46	49	56
146	7	43	46	49	56
146	8	43	46	49	56
146	9	43	46	49	56
147	10	10	8	11	16
148	6	3	5	8	10
149	10	19	17	20	21
150	6	5	8	11	16
151	6	3	5	8	9
152	6	43	41	59	61
153	7	46	43	41	59
153	8	46	43	41	59
153	9	46	43	41	59
154	10	55	49	56	58
155	17	27	37	35	36
156	16	33	64	66	67
157	10	4	3	5	7
158	1	51	50	49	55
158	2	51	50	49	55
159	6	54	50	49	56
160	10	7	5	8	10
161	10	9	8	11	16
162	10	7	5	8	9
163	1	13	12	11	16
163	2	13	12	11	16
164	5	2	1	39	40
165	17	30	32	35	37
166	10	57	56	59	61
167	4	23	2	1	39
168	10	44	43	46	48
169	6	40	41	43	44
170	17	27	37	35	32
171	16	13	25	27	28
172	18	49	50	51	52
172	19	49	50	51	52
173	17	66	67	69	71
174	10	16	11	17	19
175	10	19	17	20	22
176	17	31	30	32	35
177	7	5	8	11	17
177	8	5	8	11	17
177	9	5	8	11	17
178	4	14	12	13	25
179	17	29	28	30	31
180	10	18	17	20	21
181	6	4	3	5	8
182	16	34	33	32	35
183	6	2	3	20	22
184	16	65	64	66	78
185	10	42	41	43	44
186	6	9	8	11	17
187	6	45	43	46	49
188	10	4	3	20	22
189	16	32	33	64	65
190	17	69	71	76	78
191	6	44	43	46	49
192	7	12	11	17	20
192	8	12	11	17	20
192	9	12	11	17	20
193	16	74	72	71	76
194	16	69	71	72	73
195	6	41	43	46	47
196	21	71	72	74	75
197	17	64	66	67	68
198	6	47	46	49	50
199	17	66	78	76	77
200	6	20	3	2	24
201	6	46	49	56	58
202	7	3	20	17	11
202	8	3	20	17	11
202	9	3	20	17	11
203	17	67	66	78	76
204	17	71	76	78	79
205	10	4	3	2	23
206	10	48	46	49	55
207	10	15	12	11	16
208	17	25	27	37	38
209	6	46	49	50	53
210	7	8	11	17	20
210	8	8	11	17	20
210	9	8	11	17	20
211	10	47	46	49	55
212	6	3	20	17	18
213	16	30	32	33	64
214	10	42	41	43	45
215	17	70	69	71	76
216	6	6	5	8	11
217	16	32	33	64	66
218	17	68	67	66	78
219	6	41	43	46	48
220	17	72	71	76	77
221	4	1	39	40	41
222	6	11	17	20	22
223	10	42	41	59	60
224	7	3	5	8	11
224	8	3	5	8	11
224	9	3	5	8	11
225	3	8	11	12	13
226	7	46	49	56	59
226	8	46	49	56	59
226	9	46	49	56	59
227	17	36	35	37	38
228	10	4	3	2	24
229	6	15	12	11	17

Impropers

15	2	66	78	64	67
38	2	28	30	27	29
39	2	37	35	38	27
44	2	37	38	27	35
57	2	66	64	67	78
60	1	72	73	74	71
65	1	25	26	27	13
94	2	66	67	78	64
106	2	67	69	66	68
120	2	30	28	31	32
135	2	64	65	66	33
148	2	32	35	30	33
151	2	32	30	33	35
157	1	72	71	73	74
160	2	35	36	37	32
180	2	69	67	70	71
191	2	78	66	76	79
203	2	69	70	71	67
204	2	35	37	32	36
206	1	25	27	13	26
210	2	33	34	64	32
219	2	28	29	30	27
242	2	28	27	29	30
257	2	37	27	35	38
266	2	27	25	28	37
289	2	78	79	66	76
306	2	78	76	79	66
317	2	71	72	76	69
318	2	67	66	68	69
339	2	33	64	32	34
340	2	27	28	37	25
352	2	64	33	65	66
365	1	25	13	26	27
375	2	76	78	71	77
381	1	72	74	71	73
385	2	67	68	69	66
388	2	76	71	77	78
393	2	32	33	35	30
398	2	71	76	69	72
421	2	69	71	67	70
427	2	33	32	34	64
429	2	35	32	36	37
434	2	64	66	33	65
436	2	30	32	28	31
443	2	71	69	72	76
445	2	76	77	78	71
478	2	27	37	25	28
480	2	30	31	32	28
