Title

11500 atoms
11875 bonds
20750 angles
27375 dihedrals
9750 impropers

10 atom types
14 bond types
6 angle types
8 dihedral types
2 improper types
-9.97048388 106.3497399 xlo xhi
-10.65436616 106.0575521 ylo yhi
-10.59173799 106.3039715 zlo zhi
0.0 0.0 0.0 xy xz yz

Masses

1	15.99943
2	12.01078
3	12.01078
4	1.007947
5	1.007947
6	18.998403
7	15.99943
8	15.99943
9	1.007947
10	35.4532


Pair Coeffs

1	0.16846514	3.0251065
2	0.086879315	3.4806469
3	0.10884061	3.3795318
4	0.015779483	2.6445434
5	0.015611343	2.5725815
6	0.061	3.1181455
7	0.2102061	3.0398122
8	0.20947353	2.99716
9	1.2326e-05	0.53453923
10	0.2656001	3.3075278

Bond Coeffs

1 harmonic	425.69104206635	1.362945806494
2 harmonic	300.03137914615	1.451203938761
3 harmonic	360.7852444772	1.387193227181
4 harmonic	289.73813263395	1.498646816465
5 harmonic	370.04670688625	1.093899492634
6 harmonic	397.2545789619	1.085358495916
7 harmonic	264.62148576755	1.52190126495
8 harmonic	301.15400723785	1.345741232799
9 harmonic	340.45121009905	1.358690858053
10 harmonic	582.698766451	1.225198386222
11 harmonic	279.1350963404	1.454628925034
12 harmonic	385.7604595587	1.369745182308
13 harmonic	543.5267831885	0.9716763312559
14 harmonic	218.0227703685	1.746066037062


Angle Coeffs

1 harmonic	57.8982893754	126.8062420451
2 harmonic	65.09061609600001	110.3538806181
3 harmonic	53.20531626545	116.5475862634
4 harmonic	34.066775159195	129.1835929926
5 harmonic	48.776492647595	115.6030999533
6 harmonic	201.41175231035	127.4691416191


Dihedral Coeffs

1 fourier 1	3.661930099076	2	180
2 fourier 1	1.532232714475	2	180
3 fourier 1	0.457973137376	1	0
4 fourier 1	0.02664938770063	3	0
5 fourier 1	0.1155372516788	3	0
6 fourier 1	2.779853741805	2	180
7 fourier 1	0.9974165607242	2	180
8 fourier 1	0.8283030590042	2	180


Improper Coeffs

1 0.3666666666666667	-1	2
2 3.5	-1	2


Atoms

1	4	1	0.0096274674	-1.970277	-2.6197971	1.2386519
2	4	2	-0.05485198	-2.1980531	-1.7626998	0.15844901
3	4	2	-0.022230369	-2.2031141	-2.2639248	-1.0902478
4	4	3	-0.13630335	-1.970912	-3.7303341	-1.3293692
5	4	4	0.099103685	-2.0035435	-3.973236	-2.412449
6	4	4	0.099103685	-2.7545921	-4.3247222	-0.81440004
7	4	4	0.099103685	-0.97330912	-4.0220043	-0.93737045
8	4	2	-0.28300041	-2.4401776	-1.3675882	-2.2439967
9	4	5	0.21543371	-2.4561863	-1.8023312	-3.235013
10	4	2	0.0051477788	-2.621719	-0.037634914	-2.08356
11	4	3	-0.26723192	-2.8976453	0.85300548	-3.3235077
12	4	2	0.0051477779	-1.8611744	0.51084505	-4.4260989
13	4	2	-0.27715448	-2.1751374	0.4261355	-5.737822
14	4	5	0.21543374	-3.1862497	0.56846702	-6.0811231
15	4	2	-0.022891425	-1.1433018	0.13846493	-6.7644173
16	4	3	-0.13274458	-1.5640343	0.037063355	-8.2055339
17	4	4	0.099103685	-1.3151235	-0.96980534	-8.6037409
18	4	4	0.099103685	-2.658142	0.1868767	-8.3201566
19	4	4	0.099103685	-1.0476015	0.81531624	-8.8063438
20	4	2	0.15874756	0.14634814	-0.019893911	-6.3908194
21	4	1	-0.3840141	1.1593605	-0.28304771	-7.3206748
22	4	2	-0.02289144	0.51657917	0.092482682	-4.9585996
23	4	3	-0.13274458	1.9566927	-0.029095421	-4.5476803
24	4	4	0.099103692	2.4917257	0.91166976	-4.79384
25	4	4	0.099103692	2.4375047	-0.87242769	-5.0868969
26	4	4	0.099103692	2.0570667	-0.22435369	-3.4578462
27	4	2	-0.27715448	-0.42669235	0.36825165	-4.044431
28	4	5	0.21543374	-0.1429396	0.48487429	-3.0065251
29	4	3	0.75244617	-4.3803483	0.5777871	-3.7501652
30	4	6	-0.20250512	-4.5111993	-0.68732413	-4.2991794
31	4	6	-0.20250512	-4.8273968	1.5082799	-4.6749083
32	4	6	-0.20250512	-5.2196507	0.64942789	-2.6497384
33	4	3	0.75244617	-2.7316916	2.3809861	-3.0254547
34	4	6	-0.20250512	-2.7498287	3.1079462	-4.2055064
35	4	6	-0.20250512	-1.524627	2.6332155	-2.3942467
36	4	6	-0.20250512	-3.7589215	2.8569962	-2.2277698
37	4	2	-0.28300047	-2.6402617	0.49560171	-0.68915409
38	4	5	0.21543371	-2.8184322	1.5436734	-0.51015954
39	4	2	-0.022230378	-2.4364633	-0.30819849	0.37091217
40	4	3	-0.13630335	-2.4546452	0.26193878	1.7638307
41	4	4	0.099103692	-3.2482559	-0.23502809	2.3590213
42	4	4	0.099103692	-1.4695689	0.092943222	2.2474319
43	4	4	0.099103692	-2.6564474	1.3542142	1.7684447
44	5	2	0.62969535	0.99220988	-0.37549007	-8.3516341
45	5	7	-0.48349715	0.40604805	0.50701718	-8.9556111
46	1	1	0.0096274674	-1.9529627	-2.2993523	2.1979315
47	1	2	-0.05485198	-0.78457173	-1.8657844	2.8315294
48	1	2	-0.022230369	-0.8424426	-1.4509868	4.1098556
49	1	3	-0.13630335	-2.1466422	-1.4535351	4.8584422
50	1	4	0.099103685	-2.0172651	-1.0780016	5.8951954
51	1	4	0.099103685	-2.5490731	-2.4875053	4.9099779
52	1	4	0.099103685	-2.8788166	-0.79945998	4.3405412
53	1	2	-0.28300041	0.38728149	-0.98576852	4.790544
54	1	5	0.21543371	0.31185801	-0.67467033	5.8248859
55	1	2	0.0051477788	1.5765851	-0.9334689	4.1497985
56	1	3	-0.26723192	2.8407378	-0.46681911	4.918723
57	1	2	0.0051477779	2.5065127	0.83835673	5.6859874
58	1	2	-0.23852414	2.9466824	1.0945568	6.9383062
59	1	5	0.21543374	3.5380836	0.3766676	7.4820466
60	1	2	-0.2199214	2.6389485	2.3773899	7.6202533
61	1	3	-0.11815235	3.1413657	2.5891848	9.0230826
62	1	4	0.099103685	2.2864743	2.7648489	9.7099805
63	1	4	0.099103685	3.6988635	1.7032137	9.3929926
64	1	4	0.099103685	3.8284097	3.4619071	9.0512308
65	1	2	0.12480032	1.9254192	3.324193	6.9723152
66	1	8	-0.61850876	1.6171786	4.5539975	7.5662073
67	1	9	0.44000893	1.9006804	4.8110591	8.5034015
68	1	2	-0.21992138	1.4535689	3.0725591	5.5889412
69	1	3	-0.11815235	0.70591302	4.1454414	4.8469423
70	1	4	0.099103692	1.4217476	4.9190197	4.498541
71	1	4	0.099103692	-0.044377783	4.6191995	5.5147439
72	1	4	0.099103692	0.16415019	3.7336395	3.9681151
73	1	2	-0.23852414	1.7529549	1.9137524	4.9820523
74	1	5	0.21543374	1.4359523	1.752818	3.9581791
75	1	3	0.75244617	3.2576614	-1.6551956	5.8535905
76	1	6	-0.20250512	2.3549	-1.806388	6.8937903
77	1	6	-0.20250512	4.5213287	-1.4657081	6.3887955
78	1	6	-0.20250512	3.2826928	-2.8438261	5.1408192
79	1	3	0.75244617	4.0390638	-0.12513287	3.971279
80	1	6	-0.20250512	5.0485986	0.50764426	4.6785885
81	1	6	-0.20250512	3.6376077	0.72754884	2.9558895
82	1	6	-0.20250512	4.5808227	-1.2669393	3.4052363
83	1	2	-0.28300047	1.6257702	-1.4229484	2.7404144
84	1	5	0.21543371	2.559371	-1.4348288	2.201502
85	1	2	-0.022230378	0.51917828	-1.859052	2.1113381
86	1	3	-0.13630335	0.60233749	-2.3399474	0.68784444
87	1	4	0.099103692	0.26306446	-3.3955511	0.63080259
88	1	4	0.099103692	-0.046717332	-1.7101422	0.043827965
89	1	4	0.099103692	1.6366427	-2.2905477	0.28581657
90	2	2	0.46916866	1.3404502	-1.2562682	-8.879825
91	2	7	-0.55430454	2.0019838	-2.0965381	-8.2948244
92	2	10	-0.074542713	0.95110945	-1.4713821	-10.575565
93	4	1	0.0096274674	1.1316294	3.3157543	21.508521
94	4	2	-0.05485198	1.3098933	2.3298474	20.534074
95	4	2	-0.022230369	0.73370285	2.4841891	19.327974
96	4	3	-0.13630335	-0.091632602	3.7035499	19.022305
97	4	4	0.099103685	-0.49514893	3.6695221	17.98831
98	4	4	0.099103685	0.53259129	4.616076	19.123723
99	4	4	0.099103685	-0.94743599	3.7650172	19.727832
100	4	2	-0.28300041	0.91154025	1.4468498	18.287274
101	4	5	0.21543371	0.45092354	1.6069859	17.321065
102	4	2	0.0051477788	1.6169397	0.31817835	18.523886
103	4	3	-0.26723192	1.7993962	-0.72337488	17.388667
104	4	2	0.0051477779	0.41982799	-0.99632356	16.733424
105	4	2	-0.27715448	0.24878373	-1.1467087	15.401323
106	4	5	0.21543374	1.0759775	-1.0546496	14.717409
107	4	2	-0.022891425	-1.0824511	-1.4496121	14.820461
108	4	3	-0.13274458	-1.2073405	-1.5840907	13.326997
109	4	4	0.099103685	-1.9258558	-0.83186919	12.936858
110	4	4	0.099103685	-0.23287038	-1.4171882	12.821819
111	4	4	0.099103685	-1.5567962	-2.6056195	13.066781
112	4	2	0.15874756	-2.1491196	-1.6042286	15.636648
113	4	1	-0.3840141	-3.4242921	-1.9000712	15.140174
114	4	2	-0.02289144	-1.9788718	-1.4666717	17.103975
115	4	3	-0.13274458	-3.1513377	-1.69171	18.016249
116	4	4	0.099103692	-3.3445976	-2.780842	18.107552
117	4	4	0.099103692	-4.055594	-1.1953452	17.605048
118	4	4	0.099103692	-2.9683549	-1.2735312	19.029947
119	4	2	-0.27715448	-0.76478675	-1.2075364	17.61423
120	4	5	0.21543374	-0.64176053	-1.1449248	18.687687
121	4	3	0.75244617	2.8559511	-0.12420998	16.398272
122	4	6	-0.20250512	2.3248796	0.94395001	15.693969
123	4	6	-0.20250512	3.3019306	-1.0725112	15.491273
124	4	6	-0.20250512	3.9618191	0.33706436	17.094535
125	4	3	0.75244617	2.3188726	-2.1060229	17.90783
126	4	6	-0.20250512	2.2341718	-3.0606701	16.906433
127	4	6	-0.20250512	1.5587087	-2.5496311	18.977601
128	4	6	-0.20250512	3.644252	-2.0343131	18.303197
129	4	2	-0.28300047	2.2715932	0.17754859	19.858317
130	4	5	0.21543371	2.874681	-0.68823833	20.079532
131	4	2	-0.022230378	2.1277997	1.1167491	20.811519
132	4	3	-0.13630335	2.7954437	0.94169405	22.149135
133	4	4	0.099103692	3.4899782	1.7874241	22.331915
134	4	4	0.099103692	2.025229	0.91673271	22.948479
135	4	4	0.099103692	3.3806975	-0.00062372377	22.206808
136	5	2	0.62969535	-3.6378454	-2.0187054	14.120525
137	5	7	-0.48349715	-2.9873074	-2.8013145	13.448576
138	1	1	0.0096274674	1.5384412	3.2525378	22.432485
139	1	2	-0.05485198	0.88046383	2.6544616	23.511343
140	1	2	-0.022230369	1.4886423	2.6061038	24.71022
141	1	3	-0.13630335	2.8615882	3.1902654	24.897569
142	1	4	0.099103685	3.2155969	3.0613867	25.94193
143	1	4	0.099103685	2.8430208	4.2767274	24.667446
144	1	4	0.099103685	3.5813891	2.6835093	24.221403
145	1	2	-0.28300041	0.80380255	1.971868	25.859448
146	1	5	0.21543371	1.3116996	1.9640123	26.815645
147	1	2	0.0051477788	-0.41633433	1.403536	25.732966
148	1	3	-0.26723192	-1.102874	0.77929041	26.976376
149	1	2	0.0051477779	-0.082263104	-0.13027681	27.707763
150	1	2	-0.23852414	0.02395065	-0.19074468	29.054148
151	1	5	0.21543374	-0.58869459	0.42394936	29.692576
152	1	2	-0.2199214	0.98621987	-1.1088864	29.714804
153	1	3	-0.11815235	1.0689756	-1.110286	31.217588
154	1	4	0.099103685	2.0969558	-0.84207317	31.541385
155	1	4	0.099103685	0.36839194	-0.37355967	31.663681
156	1	4	0.099103685	0.80412409	-2.1153587	31.610205
157	1	2	0.12480032	1.7580392	-1.9227328	28.961589
158	1	8	-0.61850876	2.6732067	-2.8136765	29.535023
159	1	9	0.44000893	2.8171356	-2.9050581	30.532881
160	1	2	-0.21992138	1.6398723	-1.889182	27.483551
161	1	3	-0.11815235	2.4588886	-2.8318574	26.646172
162	1	4	0.099103692	2.0132426	-3.8474575	26.692884
163	1	4	0.099103692	3.500851	-2.8744423	27.028066
164	1	4	0.099103692	2.5009406	-2.5050934	25.584625
165	1	2	-0.23852414	0.75483658	-1.0640695	26.903309
166	1	5	0.21543374	0.64870465	-1.0723291	25.824711
167	1	3	0.75244617	-1.6156379	1.9765116	27.850319
168	1	6	-0.20250512	-0.55655561	2.6472356	28.440511
169	1	6	-0.20250512	-2.4788651	1.5496917	28.846245
170	1	6	-0.20250512	-2.3057837	2.8864277	27.064658
171	1	3	0.75244617	-2.3195163	-0.13374909	26.606883
172	1	6	-0.20250512	-2.7412939	-0.84854172	27.716401
173	1	6	-0.20250512	-1.9709297	-1.0467245	25.62494
174	1	6	-0.20250512	-3.3968181	0.61203392	26.158712
175	1	2	-0.28300047	-1.0861121	1.4908841	24.401748
176	1	5	0.21543371	-2.0749988	1.0845736	24.263209
177	1	2	-0.022230378	-0.48157951	2.0735987	23.350343
178	1	3	-0.13630335	-1.1822439	2.1392245	22.020203
179	1	4	0.099103692	-1.2982122	3.1995553	21.71213
180	1	4	0.099103692	-0.58377273	1.5983563	21.257328
181	1	4	0.099103692	-2.1929891	1.6796825	22.052902
182	2	2	0.46916866	-4.4369282	-1.4448154	13.664297
183	2	7	-0.55430454	-5.1434465	-0.72869187	14.352705
184	2	10	-0.074542713	-4.7118961	-1.547105	11.93591
185	4	1	0.0096274674	3.1188884	-0.98620004	41.622039
186	4	2	-0.05485198	2.7673966	-0.55188796	42.903118
187	4	2	-0.022230369	2.8381216	-1.4144445	43.933404
188	4	3	-0.13630335	3.2933449	-2.8314124	43.717936
189	4	4	0.099103685	3.2890236	-3.4060946	44.66812
190	4	4	0.099103685	4.3262421	-2.8374728	43.310834
191	4	4	0.099103685	2.6141209	-3.3397592	43.000869
192	4	2	-0.28300041	2.4662718	-0.96921472	45.295114
193	4	5	0.21543371	2.550247	-1.6801921	46.106798
194	4	2	0.0051477788	2.0204162	0.28431181	45.534607
195	4	3	-0.26723192	1.6734222	0.7098797	46.985584
196	4	2	0.0051477779	0.78110301	-0.38454001	47.628285
197	4	2	-0.27715448	0.91655075	-0.79338861	48.909247
198	4	5	0.21543374	1.684449	-0.38863978	49.547191
199	4	2	-0.022891425	0.012948727	-1.8130581	49.496711
200	4	3	-0.13274458	0.23176351	-2.2388695	50.923217
201	4	4	0.099103685	0.43454219	-3.3303342	50.966755
202	4	4	0.099103685	1.0995529	-1.7137406	51.374699
203	4	4	0.099103685	-0.66633249	-2.0004992	51.531458
204	4	2	0.15874756	-0.98612612	-2.3324116	48.748399
205	4	1	-0.3840141	-1.8717183	-3.2896448	49.257816
206	4	2	-0.02289144	-1.1672862	-1.8802036	47.347099
207	4	3	-0.13274458	-2.3097795	-2.4156621	46.531283
208	4	4	0.099103692	-3.2524115	-1.9221627	46.84719
209	4	4	0.099103692	-2.405291	-3.5117544	46.681627
210	4	4	0.099103692	-2.1573891	-2.2360925	45.444788
211	4	2	-0.27715448	-0.35056269	-0.94583034	46.835803
212	4	5	0.21543374	-0.51187732	-0.59458549	45.824878
213	4	3	0.75244617	3.0376524	0.92151042	47.727392
214	4	6	-0.20250512	3.6725702	-0.289096	47.951794
215	4	6	-0.20250512	2.8638962	1.5607323	48.944775
216	4	6	-0.20250512	3.8850971	1.707422	46.962748
217	4	3	0.75244617	0.85010575	2.0399443	47.050231
218	4	6	-0.20250512	0.36353353	2.2448943	48.331857
219	4	6	-0.20250512	-0.23521991	1.9917147	46.190702
220	4	6	-0.20250512	1.6299674	3.1361054	46.721089
221	4	2	-0.28300047	1.9749915	1.2348501	44.384187
222	4	5	0.21543371	1.6613789	2.2553414	44.53413
223	4	2	-0.022230378	2.3195696	0.84809242	43.14199
224	4	3	-0.13630335	2.2562619	1.8291478	42.002196
225	4	4	0.099103692	3.262862	1.9377386	41.548312
226	4	4	0.099103692	1.5426645	1.4618561	41.234941
227	4	4	0.099103692	1.9187668	2.8348989	42.331396
228	5	2	0.62969535	-1.822496	-3.6647846	50.235676
229	5	7	-0.48349715	-1.8088261	-2.8970252	51.183068
230	1	1	0.0096274674	3.083257	-0.38355489	40.810404
231	1	2	-0.05485198	1.9466291	-0.26216263	40.005479
232	1	2	-0.022230369	1.9754681	0.56306223	38.943548
233	1	3	-0.13630335	3.2153525	1.348553	38.616415
234	1	4	0.099103685	3.0666177	1.9801534	37.715538
235	1	4	0.099103685	4.0598139	0.65434557	38.419789
236	1	4	0.099103685	3.475515	2.0122317	39.467274
237	1	2	-0.28300041	0.77686837	0.70322516	38.085819
238	1	5	0.21543371	0.83667998	1.361688	37.228391
239	1	2	0.0051477788	-0.37161679	0.043965745	38.358017
240	1	3	-0.26723192	-1.5889229	0.20268479	37.409301
241	1	2	0.0051477779	-1.8075956	1.7108292	37.1237
242	1	2	-0.23852414	-2.1418483	2.1929991	35.905719
243	1	5	0.21543374	-2.2457404	1.5409946	35.054326
244	1	2	-0.2199214	-2.3846876	3.6415019	35.685988
245	1	3	-0.11815235	-2.7318705	4.1143183	34.299944
246	1	4	0.099103685	-1.9759503	4.8483664	33.948826
247	1	4	0.099103685	-2.7507078	3.2724729	33.576395
248	1	4	0.099103685	-3.7377532	4.586189	34.301983
249	1	2	0.12480032	-2.2962061	4.4991812	36.726153
250	1	8	-0.61850876	-2.5256052	5.8719732	36.574636
251	1	9	0.44000893	-2.7664728	6.3064471	35.692592
252	1	2	-0.21992138	-1.9542805	3.9873003	38.075505
253	1	3	-0.11815235	-1.9081572	4.9320128	39.244273
254	1	4	0.099103692	-2.943617	5.1755626	39.561657
255	1	4	0.099103692	-1.3863147	5.8692865	38.956974
256	1	4	0.099103692	-1.3613815	4.4909923	40.105645
257	1	2	-0.23852414	-1.7523405	2.673476	38.259529
258	1	5	0.21543374	-1.5392779	2.3030768	39.255579
259	1	3	0.75244617	-1.2661608	-0.63882879	36.125665
260	1	6	-0.20250512	-0.26669867	-0.037054952	35.378138
261	1	6	-0.20250512	-2.3843432	-0.79669932	35.3232
262	1	6	-0.20250512	-0.82537693	-1.9051711	36.477231
263	1	3	0.75244617	-2.9231187	-0.32392417	38.036189
264	1	6	-0.20250512	-4.0049964	0.055601494	37.258144
265	1	6	-0.20250512	-3.1123131	0.19923027	39.304954
266	1	6	-0.20250512	-2.9349372	-1.7062034	38.118611
267	1	2	-0.28300047	-0.37553426	-0.88717483	39.52478
268	1	5	0.21543371	-1.2570589	-1.4621192	39.758299
269	1	2	-0.022230378	0.70902364	-1.0339091	40.307514
270	1	3	-0.13630335	0.66953097	-1.9764089	41.479966
271	1	4	0.099103692	1.4543663	-2.7525845	41.360618
272	1	4	0.099103692	0.85152352	-1.4111292	42.418061
273	1	4	0.099103692	-0.31004031	-2.4916273	41.574009
274	2	2	0.46916866	-1.7833088	-4.7354392	50.403575
275	2	7	-0.55430454	-1.8851444	-5.5044441	49.463273
276	2	10	-0.074542713	-1.5729245	-5.3598702	52.028142
277	4	1	0.0096274674	3.4993456	-0.1754831	64.260177
278	4	2	-0.05485198	2.6392194	0.19173726	65.298766
279	4	2	-0.022230369	2.5542556	-0.589646	66.390882
280	4	3	-0.13630335	3.3756365	-1.8443782	66.502388
281	4	4	0.099103685	3.1820284	-2.3701675	67.461132
282	4	4	0.099103685	4.4559568	-1.5929721	66.453932
283	4	4	0.099103685	3.1226187	-2.5347914	65.669767
284	4	2	-0.28300041	1.6454634	-0.2146902	67.497345
285	4	5	0.21543371	1.6116328	-0.85322216	68.37056
286	4	2	0.0051477788	0.86286287	0.88556735	67.430691
287	4	3	-0.26723192	-0.049217387	1.250847	68.631327
288	4	2	0.0051477779	-0.82316704	-0.018093995	69.076123
289	4	2	-0.27715448	-1.0417835	-0.33700796	70.371062
290	4	5	0.21543374	-0.65664882	0.27416402	71.170188
291	4	2	-0.022891425	-1.8247032	-1.5385145	70.75153
292	4	3	-0.13274458	-2.0132599	-1.8474439	72.212052
293	4	4	0.099103685	-1.5867408	-2.8460354	72.447012
294	4	4	0.099103685	-1.5018187	-1.099865	72.854086
295	4	4	0.099103685	-3.0944209	-1.833201	72.46551
296	4	2	0.15874756	-2.3554248	-2.3241331	69.78769
297	4	1	-0.3840141	-3.1099661	-3.4631418	70.093306
298	4	2	-0.02289144	-2.1474464	-1.9791062	68.359875
299	4	3	-0.13274458	-2.7817641	-2.8198648	67.288274
300	4	4	0.099103692	-3.8635228	-2.5802873	67.222738
301	4	4	0.099103692	-2.6620492	-3.8975495	67.527874
302	4	4	0.099103692	-2.313824	-2.6408122	66.295847
303	4	2	-0.27715448	-1.4495338	-0.88021216	68.032975
304	4	5	0.21543374	-1.3332405	-0.61517686	66.990095
305	4	3	0.75244617	0.88836346	1.8348462	69.743117
306	4	6	-0.20250512	1.6742077	0.83993956	70.301377
307	4	6	-0.20250512	0.1634774	2.4442135	70.755061
308	4	6	-0.20250512	1.7358162	2.7906144	69.205687
309	4	3	0.75244617	-1.1334295	2.3208002	68.269685
310	4	6	-0.20250512	-2.0626386	2.4314569	69.292254
311	4	6	-0.20250512	-1.8154848	1.9636576	67.118035
312	4	6	-0.20250512	-0.56943246	3.5718421	68.082897
313	4	2	-0.28300047	0.99121741	1.7546808	66.223538
314	4	5	0.21543371	0.41440645	2.6618884	66.142906
315	4	2	-0.022230378	1.8205623	1.4327474	65.213629
316	4	3	-0.13630335	1.9218303	2.3269595	64.007089
317	4	4	0.099103692	2.9672372	2.6806334	63.892699
318	4	4	0.099103692	1.6215015	1.7620689	63.099617
319	4	4	0.099103692	1.265457	3.2193164	64.088847
320	5	2	0.62969535	-3.311301	-3.7815652	71.071791
321	5	7	-0.48349715	-3.8036004	-3.007655	71.875469
322	1	1	0.0096274674	3.6026416	0.37117693	63.415372
323	1	2	-0.05485198	2.8153112	0.1659715	62.278461
324	1	2	-0.022230369	3.0104624	0.93637525	61.193142
325	1	3	-0.13630335	4.0654055	2.0080189	61.193249
326	1	4	0.099103685	4.0895111	2.5502535	60.224733
327	1	4	0.099103685	5.0643082	1.5528867	61.362804
328	1	4	0.099103685	3.8548647	2.7429309	61.998042
329	1	2	-0.28300041	2.1803937	0.73142571	59.984437
330	1	5	0.21543371	2.3730393	1.3554493	59.120831
331	1	2	0.0051477788	1.1976724	-0.19626796	59.947338
332	1	3	-0.26723192	0.37733493	-0.39105454	58.644958
333	1	2	0.0051477779	-0.078946514	0.99778395	58.128412
334	1	2	-0.23852414	-0.079989755	1.337437	56.819854
335	1	5	0.21543374	0.2701509	0.6546198	56.063589
336	1	2	-0.2199214	-0.56674402	2.6644831	56.364407
337	1	3	-0.11815235	-0.51987167	2.9864708	54.894939
338	1	4	0.099103685	0.11510279	3.8812276	54.722475
339	1	4	0.099103685	-0.091386318	2.1467457	54.308557
340	1	4	0.099103685	-1.546739	3.1788219	54.516771
341	1	2	0.12480032	-1.0438793	3.5476014	57.268746
342	1	8	-0.61850876	-1.523913	4.8072565	56.890624
343	1	9	0.44000893	-1.543661	5.1358248	55.933316
344	1	2	-0.21992138	-1.0737899	3.1854042	58.706662
345	1	3	-0.11815235	-1.6539298	4.1454395	59.70786
346	1	4	0.099103692	-2.761804	4.119666	59.643233
347	1	4	0.099103692	-1.3015708	5.1770631	59.495875
348	1	4	0.099103692	-1.3472744	3.8898726	60.7452
349	1	2	-0.23852414	-0.6437357	1.9764766	59.099506
350	1	5	0.21543374	-0.70335575	1.7060239	60.147365
351	1	3	0.75244617	1.3080552	-1.1587014	57.642701
352	1	6	-0.20250512	2.3312967	-0.34030203	57.192088
353	1	6	-0.20250512	0.60240292	-1.6284193	56.546971
354	1	6	-0.20250512	1.8869193	-2.254143	58.264341
355	1	3	0.75244617	-0.92686319	-1.2282169	58.865438
356	1	6	-0.20250512	-1.7343431	-1.1692419	57.741004
357	1	6	-0.20250512	-1.6560436	-0.73324947	59.934341
358	1	6	-0.20250512	-0.6404113	-2.5622421	59.101978
359	1	2	-0.28300047	1.014274	-1.0590544	61.151638
360	1	5	0.21543371	0.26779721	-1.836835	61.154385
361	1	2	-0.022230378	1.7677894	-0.89260282	62.253898
362	1	3	-0.13630335	1.5527549	-1.7754689	63.453405
363	1	4	0.099103692	2.4902802	-2.3228444	63.685968
364	1	4	0.099103692	1.264429	-1.1531872	64.326513
365	1	4	0.099103692	0.75072188	-2.5256268	63.286492
366	2	2	0.46916866	-3.0810373	-4.7989498	71.368328
367	2	7	-0.55430454	-2.6710773	-5.5968861	70.543018
368	2	10	-0.074542713	-3.2982438	-5.2954948	73.035559
369	4	1	0.0096274674	-1.2513475	2.1773676	88.201596
370	4	2	-0.05485198	0.067025715	1.948082	87.798289
371	4	2	-0.022230369	0.7467172	2.9306699	87.17939
372	4	3	-0.13630335	0.10325731	4.2656703	86.924074
373	4	4	0.099103685	0.79902194	4.9564364	86.402651
374	4	4	0.099103685	-0.19413922	4.7308868	87.887284
375	4	4	0.099103685	-0.79757057	4.1334564	86.287698
376	4	2	-0.28300041	2.1426602	2.7011269	86.744179
377	4	5	0.21543371	2.6698581	3.515836	86.264927
378	4	2	0.0051477788	2.7541111	1.5086157	86.921712
379	4	3	-0.26723192	4.2291446	1.3300024	86.475372
380	4	2	0.0051477779	4.3866972	1.8840449	85.034793
381	4	2	-0.27715448	5.4602833	2.5971493	84.62827
382	4	5	0.21543374	6.2592953	2.8415831	85.308192
383	4	2	-0.022891425	5.5904167	3.0715064	83.228489
384	4	3	-0.13274458	6.8016396	3.8786826	82.847017
385	4	4	0.099103685	6.4900211	4.877777	82.474171
386	4	4	0.099103685	7.4749575	4.0350449	83.715837
387	4	4	0.099103685	7.3774292	3.3481575	82.059386
388	4	2	0.15874756	4.6298761	2.7674594	82.326953
389	4	1	-0.3840141	4.7094887	3.1823691	80.992192
390	4	2	-0.02289144	3.4543547	1.9655227	82.746476
391	4	3	-0.13274458	2.4131207	1.5804491	81.733997
392	4	4	0.099103692	2.7975275	0.74951777	81.106559
393	4	4	0.099103692	2.1751434	2.4477194	81.082574
394	4	4	0.099103692	1.4682471	1.2548934	82.220995
395	4	2	-0.27715448	3.3594965	1.5312881	84.01295
396	4	5	0.21543374	2.5173606	0.91604201	84.302164
397	4	3	0.75244617	5.1099375	2.0778718	87.534185
398	4	6	-0.20250512	4.9635995	3.4506429	87.4196
399	4	6	-0.20250512	6.4527895	1.7643586	87.395343
400	4	6	-0.20250512	4.729943	1.7183646	88.817485
401	4	3	0.75244617	4.6711036	-0.17082978	86.418135
402	4	6	-0.20250512	5.9010965	-0.28842562	85.789955
403	4	6	-0.20250512	3.7585498	-0.9278495	85.701745
404	4	6	-0.20250512	4.7986483	-0.71110861	87.686961
405	4	2	-0.28300047	1.9937047	0.43975327	87.634711
406	4	5	0.21543371	2.4534004	-0.51527002	87.831811
407	4	2	-0.022230378	0.72729025	0.63643709	88.04566
408	4	3	-0.13630335	-0.014322641	-0.46409853	88.7559
409	4	4	0.099103692	-0.31896476	-0.11676959	89.764663
410	4	4	0.099103692	-0.91732824	-0.74065629	88.172032
411	4	4	0.099103692	0.60640801	-1.3767131	88.880956
412	5	2	0.62969535	5.5031887	3.7481665	80.60583
413	5	7	-0.48349715	6.6521237	3.3671376	80.754014
414	1	1	0.0096274674	-1.8111238	1.476059	88.668521
415	1	2	-0.05485198	-2.6193809	0.56794282	87.978151
416	1	2	-0.022230369	-3.3330535	-0.33837216	88.670096
417	1	3	-0.13630335	-3.270354	-0.37904418	90.172008
418	1	4	0.099103685	-3.9134199	-1.1865225	90.580745
419	1	4	0.099103685	-3.6190755	0.58927462	90.589684
420	1	4	0.099103685	-2.2265424	-0.5662677	90.49991
421	1	2	-0.28300041	-4.1896239	-1.3079473	87.950237
422	1	5	0.21543371	-4.7654654	-2.013643	88.535672
423	1	2	0.0051477788	-4.2534662	-1.3327607	86.600037
424	1	3	-0.26723192	-5.1906006	-2.349464	85.896345
425	1	2	0.0051477779	-4.9661871	-3.7513434	86.519448
426	1	2	-0.23852414	-5.9725261	-4.6158126	86.779572
427	1	5	0.21543374	-6.9998423	-4.3535372	86.588243
428	1	2	-0.2199214	-5.7085734	-5.9667799	87.336914
429	1	3	-0.11815235	-6.8766815	-6.8714693	87.623742
430	1	4	0.099103685	-6.8942733	-7.138483	88.701666
431	1	4	0.099103685	-7.8413128	-6.3793092	87.379106
432	1	4	0.099103685	-6.7990605	-7.7953288	87.011431
433	1	2	0.12480032	-4.4360096	-6.3572197	87.568262
434	1	8	-0.61850876	-4.1326187	-7.6234136	88.082894
435	1	9	0.44000893	-4.832432	-8.3174771	88.313814
436	1	2	-0.21992138	-3.3159513	-5.4328206	87.267195
437	1	3	-0.11815235	-1.8969319	-5.8850763	87.473293
438	1	4	0.099103692	-1.6034738	-6.5646475	86.646074
439	1	4	0.099103692	-1.8054749	-6.426934	88.438367
440	1	4	0.099103692	-1.1931723	-5.0251826	87.500316
441	1	2	-0.23852414	-3.5712097	-4.2210834	86.750169
442	1	5	0.21543374	-2.745178	-3.566014	86.498649
443	1	3	0.75244617	-6.6515668	-1.8084934	86.07792
444	1	6	-0.20250512	-7.0651399	-1.9333139	87.394442
445	1	6	-0.20250512	-7.5504806	-2.4811831	85.266349
446	1	6	-0.20250512	-6.7137833	-0.46508627	85.741916
447	1	3	0.75244617	-4.8926086	-2.4955883	84.366562
448	1	6	-0.20250512	-5.5837475	-3.5753869	83.841
449	1	6	-0.20250512	-3.542164	-2.7115476	84.145407
450	1	6	-0.20250512	-5.2841087	-1.3690685	83.66278
451	1	2	-0.28300047	-3.475297	-0.30225971	85.851108
452	1	5	0.21543371	-3.5245742	-0.25984601	84.775027
453	1	2	-0.022230378	-2.700763	0.59269638	86.491124
454	1	3	-0.13630335	-1.9240747	1.6144678	85.705472
455	1	4	0.099103692	-2.2330798	2.635249	86.013986
456	1	4	0.099103692	-0.83832202	1.4853135	85.898201
457	1	4	0.099103692	-2.0920556	1.5219055	84.611366
458	2	2	0.46916866	5.3015187	4.6721179	80.075104
459	2	7	-0.55430454	4.151448	5.0081496	79.850769
460	2	10	-0.074542713	6.6304653	5.6826748	79.540249
461	4	1	0.0096274674	-0.060287143	19.320941	-2.7907015
462	4	2	-0.05485198	0.75772168	19.285254	-1.6580391
463	4	2	-0.022230369	0.64439146	18.258389	-0.79594751
464	4	3	-0.13630335	-0.346683	17.154732	-1.0432634
465	4	4	0.099103685	-0.31284862	16.392921	-0.23602905
466	4	4	0.099103685	-0.11879215	16.652745	-2.0069641
467	4	4	0.099103685	-1.3745375	17.574125	-1.0829017
468	4	2	-0.28300041	1.5021654	18.208892	0.40926158
469	4	5	0.21543371	1.4009096	17.36164	1.0750555
470	4	2	0.0051477788	2.3850435	19.192638	0.6925336
471	4	3	-0.26723192	3.2826856	19.076984	1.9525767
472	4	2	0.0051477779	2.3955763	18.690278	3.1652387
473	4	2	-0.27715448	2.7783936	17.803915	4.1108478
474	4	5	0.21543374	3.7256272	17.294598	4.0491457
475	4	2	-0.022891425	1.915847	17.495209	5.2779174
476	4	3	-0.13274458	2.3931545	16.482793	6.2835547
477	4	4	0.099103685	1.6715699	15.640336	6.3459397
478	4	4	0.099103685	3.381202	16.063606	5.9994812
479	4	4	0.099103685	2.4982348	16.960197	7.2807494
480	4	2	0.15874756	0.72951629	18.128077	5.4191533
481	4	1	-0.3840141	-0.11681658	17.880171	6.506507
482	4	2	-0.02289144	0.30061137	19.122232	4.4049297
483	4	3	-0.13274458	-0.99182501	19.866245	4.5882787
484	4	4	0.099103692	-0.85700013	20.657462	5.3548891
485	4	4	0.099103692	-1.7894076	19.169237	4.9217258
486	4	4	0.099103692	-1.3309791	20.338691	3.6408044
487	4	2	-0.27715448	1.099676	19.401058	3.3631688
488	4	5	0.21543374	0.79635674	20.153983	2.6473015
489	4	3	0.75244617	4.3858586	18.014881	1.6192053
490	4	6	-0.20250512	3.8455145	16.740602	1.5618697
491	4	6	-0.20250512	5.4025797	18.020847	2.5610447
492	4	6	-0.20250512	4.9593297	18.286195	0.38712598
493	4	3	0.75244617	3.9779816	20.42754	2.3316041
494	4	6	-0.20250512	4.565305	20.333609	3.5836225
495	4	6	-0.20250512	3.0577544	21.462118	2.3749424
496	4	6	-0.20250512	4.9748135	20.756278	1.4280856
497	4	2	-0.28300047	2.5161454	20.309501	-0.28954753
498	4	5	0.21543371	3.2333012	21.097324	-0.12444285
499	4	2	-0.022230378	1.7506364	20.363487	-1.3951924
500	4	3	-0.13630335	1.9026557	21.506836	-2.3622763
501	4	4	0.099103692	2.1832789	21.114345	-3.3613997
502	4	4	0.099103692	0.94248649	22.059151	-2.4386206
503	4	4	0.099103692	2.6875983	22.225343	-2.0438055
504	5	2	0.62969535	0.10477014	17.198649	7.2718756
505	5	7	-0.48349715	1.1638512	17.278339	7.8712001
506	1	1	0.0096274674	-0.020898657	20.068086	-3.4714553
507	1	2	-0.05485198	-0.80683557	21.220587	-3.3786673
508	1	2	-0.022230369	-0.69566036	22.172544	-4.3225649
509	1	3	-0.13630335	0.25992782	22.005104	-5.4715384
510	1	4	0.099103685	0.22937771	22.881491	-6.1524453
511	1	4	0.099103685	-0.0093302189	21.099936	-6.0562369
512	1	4	0.099103685	1.2957894	21.899601	-5.0868634
513	1	2	-0.28300041	-1.519652	23.399347	-4.2332459
514	1	5	0.21543371	-1.4204693	24.139327	-5.0174179
515	1	2	0.0051477788	-2.3682359	23.610778	-3.2022585
516	1	3	-0.26723192	-3.2312018	24.899775	-3.1728225
517	1	2	0.0051477779	-2.3202183	26.118854	-3.4692007
518	1	2	-0.23852414	-2.6997609	27.154101	-4.2514419
519	1	5	0.21543374	-3.6612624	27.165952	-4.7373929
520	1	2	-0.2199214	-1.8115082	28.32327	-4.473845
521	1	3	-0.11815235	-2.2870599	29.431692	-5.3741023
522	1	4	0.099103685	-1.5861015	29.555379	-6.2266777
523	1	4	0.099103685	-3.2933854	29.214127	-5.7895017
524	1	4	0.099103685	-2.3511515	30.38227	-4.8024743
525	1	2	0.12480032	-0.60661068	28.372496	-3.8645973
526	1	8	-0.61850876	0.26370335	29.456196	-4.0327867
527	1	9	0.44000893	0.054093269	30.259265	-4.6123817
528	1	2	-0.21992138	-0.18114865	27.258132	-2.9832002
529	1	3	-0.11815235	1.1358612	27.335925	-2.2620475
530	1	4	0.099103692	1.0426153	28.028055	-1.3992109
531	1	4	0.099103692	1.9242789	27.713449	-2.9470404
532	1	4	0.099103692	1.4589706	26.339127	-1.8913472
533	1	2	-0.23852414	-1.0021101	26.215973	-2.7814442
534	1	5	0.21543374	-0.69894155	25.423611	-2.1069379
535	1	3	0.75244617	-4.3716819	24.696728	-4.2302334
536	1	6	-0.20250512	-3.8655173	24.745445	-5.5191387
537	1	6	-0.20250512	-5.3606256	25.659002	-4.1068497
538	1	6	-0.20250512	-4.9728787	23.459387	-4.0597585
539	1	3	0.75244617	-3.8810881	25.16649	-1.7739315
540	1	6	-0.20250512	-4.4346826	26.436018	-1.7328621
541	1	6	-0.20250512	-2.933454	25.087176	-0.76648518
542	1	6	-0.20250512	-4.8944309	24.262193	-1.5037246
543	1	2	-0.28300047	-2.4972612	22.53133	-2.1792644
544	1	5	0.21543371	-3.1887049	22.639521	-1.3592777
545	1	2	-0.022230378	-1.7634959	21.405834	-2.2521819
546	1	3	-0.13630335	-1.9132894	20.33984	-1.2006456
547	1	4	0.099103692	-2.2314832	19.388775	-1.6769711
548	1	4	0.099103692	-0.94169511	20.18584	-0.68589079
549	1	4	0.099103692	-2.6699253	20.608184	-0.43295574
550	2	2	0.46916866	-0.60809846	16.423093	7.5294766