Title

99 atoms
98 bonds
185 angles
313 dihedrals
12 impropers

8 atom types
11 bond types
5 angle types
25 dihedral types
2 improper types
-12.6079998 87.3920002 xlo xhi
-4.217999935 95.78200006 ylo yhi
-1.692999959 98.30700004 zlo zhi
0.0 0.0 0.0 xy xz yz

Masses

1	15.99943
2	12.01078
3	1.007947
4	1.007947
5	12.01078
6	15.99943
7	15.99943
8	1.007947


Pair Coeffs

1	0.16846514	3.0251065
2	0.10884061	3.3795318
3	0.015779483	2.6445434
4	0.016409246	2.5832257
5	0.086879315	3.4806469
6	0.2102061	3.0398122
7	0.20947353	2.99716
8	1.2326e-05	0.53453923

Bond Coeffs

1 harmonic	366.7408841747	1.425895053732
2 harmonic	300.03137914615	1.451203938761
3 harmonic	264.62148576755	1.52190126495
4 harmonic	370.04670688625	1.093899492634
5 harmonic	301.15400723785	1.345741232799
6 harmonic	582.698766451	1.225198386222
7 harmonic	329.44145381095	1.523435958334
8 harmonic	279.1350963404	1.454628925034
9 harmonic	329.96998057905	1.427343958716
10 harmonic	543.5267831885	0.9716763312559
11 harmonic	385.7604595587	1.369745182308


Angle Coeffs

1 harmonic	53.20531626545	116.5475862634
2 harmonic	65.09061609600001	110.3538806181
3 harmonic	48.776492647595	115.6030999533
4 harmonic	201.41175231035	127.4691416191
5 harmonic	57.8982893754	126.8062420451


Dihedral Coeffs

1 fourier 1	0.1155372516788	3	0
2 fourier 1	0.0473758381877	3	0
3 fourier 1	0.457973137376	1	0
4 fourier 1	0.1040663847541	3	0
5 fourier 1	0.09223874044423	3	0
6 fourier 1	0.3159935921949	2	180
7 fourier 1	0.3247796806857	1	180
8 fourier 1	0.1918272375143	3	0
9 fourier 1	0.9202179876409	1	180
10 fourier 1	1.163809172478	2	180
11 fourier 1	0.1679186987369	1	180
12 fourier 1	2.779853741805	2	180
13 fourier 1	0.02664938770063	3	0
14 fourier 1	0.1911926717192	3	0
15 fourier 1	-0.3703352413219	2	0
16 fourier 1	0.4541676554336	1	0
17 fourier 1	0.1489710476446	2	0
18 fourier 1	0.02960027280666	3	180
19 fourier 1	0.9974165607242	2	180
20 fourier 1	0.3445382149273	3	0
21 fourier 1	0.1364556373303	1	0
22 fourier 1	0.3026390167484	3	0
23 fourier 1	2.687457892086	2	180
24 fourier 1	2.772607909663	2	180
25 fourier 1	0.09692684957115	1	0


Improper Coeffs

1 3.5	-1	2
2 0.3666666666666667	-1	2


Atoms

1	1	1	-0.164178	-1.462	1.771	-1.173
2	1	2	0.000711	-1.209	1.39	0.153
3	1	2	-0.052942999	-0.26800001	0.156	0.208
4	1	2	-0.158527	-0.082999997	-0.21799999	1.698
5	1	3	0.069735996	-1.067	-0.41299999	2.1760001
6	1	3	0.069735996	0.53100002	-1.133	1.823
7	1	3	0.069735996	0.414	0.60900003	2.25
8	1	2	0.109169	-0.94599998	-1.015	-0.55699998
9	1	1	-0.489629	-0.296	-2.234	-0.31400001
10	1	4	0.085068002	-0.94199997	-0.80400002	-1.65
11	1	4	0.085068002	-2.007	-1.11	-0.23199999
12	1	2	-0.169903	1.098	0.55900002	-0.435
13	1	2	-0.121097	2.1700001	-0.53500003	-0.47400001
14	1	3	0.043956	2.3889999	-0.92799997	0.53799999
15	1	3	0.043956	3.1110001	-0.103	-0.87699997
16	1	3	0.043956	1.8710001	-1.362	-1.149
17	1	3	0.090533003	0.93199998	0.89899999	-1.4809999
18	1	3	0.090533003	1.52	1.426	0.12
19	1	4	0.090415999	-0.74599999	2.244	0.699
20	1	4	0.090415999	-2.1760001	1.156	0.65499997
21	1	5	0.76046401	-0.79900002	-2.948	-0.87800002
22	1	6	-0.55458999	-0.17299999	-3.619	-1.682
23	1	2	-0.208589	-2.2750001	-3.161	-0.71399999
24	1	2	-0.115515	-2.8540001	-2.223	0.35499999
25	1	2	-0.136188	-4.3429999	-2.49	0.634
26	1	2	-0.141528	-5.257	-1.948	-0.479
27	1	2	-0.141528	-6.7399998	-2.299	-0.259
28	1	2	-0.13884699	-7.369	-1.7130001	1.018
29	1	2	-0.097190998	-7.3460002	-0.178	1.049
30	1	2	-0.257649	-8.1490002	0.359	2.2390001
31	1	5	0.51707202	-8.1169996	1.858	2.286
32	1	6	-0.68671203	-8.7060003	2.4519999	3.174
33	1	3	0.113699	-9.2069998	0.026000001	2.158
34	1	3	0.113699	-7.723	-0.037999999	3.1860001
35	1	3	0.077001996	-6.2969999	0.176	1.1390001
36	1	3	0.077001996	-7.7800002	0.219	0.105
37	1	3	0.078704998	-8.4259996	-2.0569999	1.058
38	1	3	0.078704998	-6.8629999	-2.1199999	1.919
39	1	3	0.080578998	-7.3200002	-1.942	-1.138
40	1	3	0.080578998	-6.8470001	-3.405	-0.23100001
41	1	3	0.080578998	-5.131	-0.84899998	-0.57499999
42	1	3	0.080578998	-4.9569998	-2.3940001	-1.45
43	1	3	0.078704998	-4.513	-3.579	0.77399999
44	1	3	0.078704998	-4.5970001	-1.9809999	1.5880001
45	1	3	0.085795999	-2.2950001	-2.3800001	1.304
46	1	3	0.085795999	-2.71	-1.163	0.050000001
47	1	3	0.116959	-2.4519999	-4.2179999	-0.421
48	1	3	0.116959	-2.763	-2.9749999	-1.693
49	1	1	-0.163858	-2.0599999	2.5610001	-1.125
50	1	2	0.010377	-2.098	2.941	0.22400001
51	1	2	-0.088048004	-3.0179999	4.1750002	0.42899999
52	1	2	-0.151436	-2.964	4.5489998	1.9299999
53	1	3	0.06955	-1.916	4.7449999	2.244
54	1	3	0.06955	-3.55	5.4650002	2.1500001
55	1	3	0.06955	-3.3659999	3.7219999	2.5539999
56	1	2	0.059124999	-2.4719999	5.3470001	-0.43399999
57	1	7	-0.680457	-3.0739999	6.566	-0.090999998
58	1	8	0.37709501	-2.6860001	7.2480001	-0.699
59	1	4	0.080427997	-2.6489999	5.1360002	-1.513
60	1	4	0.080427997	-1.372	5.441	-0.28299999
61	1	2	-0.16264001	-4.4699998	3.773	0.011
62	1	2	-0.121421	-5.5349998	4.8660002	0.14399999
63	1	3	0.043956	-5.5890002	5.2600002	1.179
64	1	3	0.043956	-6.527	4.4349999	-0.104
65	1	3	0.043956	-5.3470001	5.6929998	-0.56999999
66	1	3	0.090208001	-4.473	3.4330001	-1.0470001
67	1	3	0.090208001	-4.7979999	2.9059999	0.62599999
68	1	4	0.090443999	-2.4679999	2.0869999	0.83700001
69	1	4	0.090443999	-1.064	3.1760001	0.56599998
70	1	5	0.51707202	-7.5749998	2.427	1.5369999
71	1	6	-0.68671203	-6.4429998	2.8150001	1.778
72	1	2	-0.257649	-8.2130003	2.7160001	0.20999999
73	1	2	-0.097190998	-8.4289999	4.2199998	-0.0099999998
74	1	2	-0.13884699	-9.4790001	4.8010001	0.949
75	1	2	-0.141528	-9.7080002	6.2919998	0.67500001
76	1	2	-0.141528	-10.748	6.875	1.6440001
77	1	2	-0.136188	-11.11	8.3330002	1.3200001
78	1	2	-0.11298	-9.9759998	9.3149996	1.664
79	1	2	-0.218686	-10.378	10.774	1.411
80	1	5	0.823915	-11.403	11.247	2.395
81	1	6	-0.556032	-12.608	11.364	2.046
82	1	7	-0.66538399	-11.026	11.534	3.7030001
83	1	8	0.394263	-11.709	11.845	4.3839998
84	1	3	0.117984	-9.4759998	11.416	1.508
85	1	3	0.117984	-10.759	10.889	0.37200001
86	1	3	0.085795999	-9.6730003	9.1899996	2.727
87	1	3	0.085795999	-9.092	9.0930004	1.03
88	1	3	0.078704998	-11.378	8.4250002	0.244
89	1	3	0.078704998	-12.011	8.5970001	1.914
90	1	3	0.080578998	-10.375	6.803	2.6889999
91	1	3	0.080578998	-11.679	6.2690001	1.577
92	1	3	0.080578998	-8.7440004	6.8299999	0.79299998
93	1	3	0.080578998	-10.063	6.4229999	-0.37099999
94	1	3	0.078704998	-9.1359997	4.6719999	1.998
95	1	3	0.078704998	-10.437	4.2509999	0.81999999
96	1	3	0.077001996	-7.4640002	4.7589998	0.111
97	1	3	0.077001996	-8.7720003	4.3720002	-1.057
98	1	3	0.113699	-9.1859999	2.184	0.14399999
99	1	3	0.113699	-7.5570002	2.3210001	-0.59500003

Bonds

1	1	1	2
2	2	1	49
3	3	2	3
4	4	2	19
5	4	2	20
6	3	3	4
7	3	3	8
8	3	3	12
9	4	4	5
10	4	4	6
11	4	4	7
12	1	8	9
13	4	8	10
14	4	8	11
15	5	9	21
16	3	12	13
17	4	12	17
18	4	12	18
19	4	13	14
20	4	13	15
21	4	13	16
22	6	21	22
23	7	21	23
24	3	23	24
25	4	23	47
26	4	23	48
27	3	24	25
28	4	24	45
29	4	24	46
30	3	25	26
31	4	25	43
32	4	25	44
33	3	26	27
34	4	26	41
35	4	26	42
36	3	27	28
37	4	27	39
38	4	27	40
39	3	28	29
40	4	28	37
41	4	28	38
42	3	29	30
43	4	29	35
44	4	29	36
45	7	30	31
46	4	30	33
47	4	30	34
48	6	31	32
49	8	31	70
50	1	49	50
51	3	50	51
52	4	50	68
53	4	50	69
54	3	51	52
55	3	51	56
56	3	51	61
57	4	52	53
58	4	52	54
59	4	52	55
60	9	56	57
61	4	56	59
62	4	56	60
63	10	57	58
64	3	61	62
65	4	61	66
66	4	61	67
67	4	62	63
68	4	62	64
69	4	62	65
70	6	70	71
71	7	70	72
72	3	72	73
73	4	72	98
74	4	72	99
75	3	73	74
76	4	73	96
77	4	73	97
78	3	74	75
79	4	74	94
80	4	74	95
81	3	75	76
82	4	75	92
83	4	75	93
84	3	76	77
85	4	76	90
86	4	76	91
87	3	77	78
88	4	77	88
89	4	77	89
90	3	78	79
91	4	78	86
92	4	78	87
93	7	79	80
94	4	79	84
95	4	79	85
96	6	80	81
97	11	80	82
98	10	82	83

Angles

1	4	9	21	22
2	1	3	4	6
3	1	70	72	99
4	1	12	13	16
5	3	54	52	55
6	3	45	24	46
7	3	64	62	65
8	1	76	77	89
9	3	84	79	85
10	5	9	21	23
11	1	51	52	55
12	1	61	62	63
13	1	3	4	7
14	1	75	74	94
15	1	24	25	26
16	1	4	3	8
17	1	1	2	20
18	4	81	80	82
19	3	14	13	15
20	3	43	25	44
21	1	13	12	18
22	5	79	80	81
23	3	19	2	20
24	1	78	77	89
25	1	8	3	12
26	1	51	56	57
27	1	26	27	28
28	3	86	78	87
29	1	51	56	60
30	1	76	75	92
31	1	57	56	59
32	1	75	74	95
33	1	77	76	90
34	1	27	28	37
35	1	49	50	68
36	1	50	51	61
37	1	72	73	96
38	1	29	30	34
39	3	14	13	16
40	1	24	25	43
41	2	56	57	58
42	1	77	78	86
43	3	5	4	7
44	1	3	8	10
45	1	52	51	56
46	1	26	27	40
47	3	47	23	48
48	3	17	12	18
49	3	66	61	67
50	1	76	75	93
51	1	9	8	10
52	1	73	74	94
53	3	53	52	54
54	1	21	23	47
55	1	27	28	29
56	5	30	31	32
57	5	31	70	72
58	1	76	77	78
59	3	96	73	97
60	1	51	52	53
61	1	3	12	17
62	3	63	62	64
63	1	70	72	73
64	5	22	21	23
65	1	29	28	37
66	1	62	61	66
67	1	31	30	33
68	1	29	30	31
69	1	75	76	77
70	1	3	12	13
71	1	26	25	43
72	3	88	77	89
73	1	21	23	48
74	3	39	27	40
75	1	61	62	64
76	1	25	24	45
77	3	94	74	95
78	1	3	4	5
79	1	51	50	68
80	1	74	73	96
81	1	74	75	76
82	1	1	2	3
83	1	30	29	35
84	1	77	78	79
85	1	79	78	86
86	1	29	28	38
87	5	32	31	70
88	1	25	26	41
89	1	74	75	92
90	1	27	26	41
91	1	26	25	44
92	1	2	3	4
93	1	21	23	24
94	1	3	8	9
95	5	79	80	82
96	1	51	61	66
97	1	12	13	14
98	3	37	28	38
99	1	28	29	30
100	1	61	62	65
101	1	25	24	46
102	1	78	79	84
103	1	77	76	91
104	1	3	2	19
105	1	30	29	36
106	3	68	50	69
107	1	27	28	38
108	5	71	70	72
109	1	80	79	84
110	3	98	72	99
111	1	49	50	69
112	1	72	73	97
113	1	25	26	42
114	1	28	29	35
115	1	75	76	90
116	1	23	24	25
117	1	51	61	62
118	1	27	26	42
119	1	24	25	44
120	1	9	8	11
121	3	35	29	36
122	1	77	78	87
123	1	70	72	98
124	1	78	79	80
125	1	2	3	8
126	3	59	56	60
127	3	10	8	11
128	1	56	51	61
129	1	12	13	15
130	1	51	56	59
131	1	49	50	51
132	1	2	3	12
133	3	90	76	91
134	1	3	2	20
135	3	41	26	42
136	1	73	74	95
137	1	76	77	88
138	3	53	52	55
139	2	2	1	49
140	1	51	52	54
141	1	3	12	18
142	3	63	62	65
143	1	73	74	75
144	1	57	56	60
145	1	52	51	61
146	1	50	51	56
147	1	62	61	67
148	1	24	23	47
149	1	31	30	34
150	1	1	2	19
151	3	33	30	34
152	3	6	4	7
153	1	72	73	74
154	1	13	12	17
155	3	92	75	93
156	1	78	77	88
157	1	50	51	52
158	1	28	27	39
159	3	15	13	16
160	1	51	50	69
161	1	73	72	98
162	1	3	8	11
163	1	74	73	97
164	2	8	9	21
165	1	23	24	45
166	1	79	78	87
167	1	24	23	48
168	1	74	75	93
169	1	29	30	33
170	3	5	4	6
171	1	4	3	12
172	1	26	27	39
173	1	51	61	67
174	2	80	82	83
175	1	28	27	40
176	1	78	79	85
177	1	73	72	99
178	1	25	26	27
179	2	1	49	50
180	1	23	24	46
181	1	80	79	85
182	1	75	76	91
183	1	28	29	36
184	5	31	70	71
185	5	30	31	70

Dihedrals

1	16	22	21	23	47
1	17	22	21	23	47
1	18	22	21	23	47
2	16	32	31	30	33
2	17	32	31	30	33
2	18	32	31	30	33
3	4	2	3	8	11
4	14	85	79	78	87
5	14	94	74	73	96
6	14	33	30	29	35
7	24	81	80	82	83
7	25	81	80	82	83
8	22	58	57	56	60
9	4	52	51	61	67
10	4	61	51	50	69
11	14	90	76	75	93
12	14	35	29	28	37
13	4	30	29	28	37
14	13	9	21	23	24
15	4	52	51	56	59
16	1	80	79	78	86
17	1	57	56	51	61
18	1	49	50	51	56
19	4	50	51	61	67
20	14	39	27	26	42
21	4	50	51	56	59
22	2	3	2	1	49
23	1	9	8	3	12
24	4	8	3	2	20
25	4	50	51	52	54
26	4	51	61	62	64
27	16	71	70	72	99
27	17	71	70	72	99
27	18	71	70	72	99
28	14	91	76	75	93
29	14	93	75	74	95
30	4	4	3	12	17
31	4	28	29	30	33
32	4	11	8	3	12
33	16	32	31	30	34
33	17	32	31	30	34
33	18	32	31	30	34
34	14	36	29	28	38
35	14	87	78	77	89
36	14	92	75	74	94
37	14	35	29	28	38
38	4	30	29	28	38
39	4	29	28	27	39
40	5	4	3	12	13
40	6	4	3	12	13
40	7	4	3	12	13
41	14	42	26	25	44
42	4	79	78	77	88
43	13	82	80	79	84
44	4	53	52	51	61
45	14	46	24	23	47
46	14	65	62	61	66
47	14	86	78	77	88
48	2	20	2	1	49
49	2	1	49	50	69
50	4	51	61	62	65
51	5	74	75	76	77
51	6	74	75	76	77
51	7	74	75	76	77
52	4	77	76	75	92
53	4	4	3	12	18
54	8	3	8	9	21
54	9	3	8	9	21
55	13	31	70	72	73
56	1	31	30	29	36
57	4	74	73	72	98
58	1	4	3	8	9
59	14	43	25	24	46
60	5	52	51	61	62
60	6	52	51	61	62
60	7	52	51	61	62
61	14	63	62	61	67
62	16	81	80	79	84
62	17	81	80	79	84
62	18	81	80	79	84
63	2	1	49	50	51
64	4	25	26	27	39
65	4	29	28	27	40
66	15	78	79	80	81
67	4	75	76	77	88
68	4	79	78	77	89
69	1	1	2	3	8
70	4	3	12	13	15
71	4	4	3	2	19
72	14	45	24	23	48
73	15	29	30	31	32
74	14	65	62	61	67
75	4	7	4	3	8
76	13	33	30	31	70
77	14	40	27	26	41
78	14	89	77	76	91
79	4	73	74	75	92
80	14	44	25	24	45
81	1	1	2	3	12
82	14	16	13	12	17
83	14	97	73	72	98
84	4	7	4	3	12
85	4	23	24	25	44
86	14	38	28	27	40
87	4	74	73	72	99
88	14	34	30	29	35
89	4	52	51	50	68
90	4	55	52	51	61
91	4	54	52	51	61
92	16	22	21	23	48
92	17	22	21	23	48
92	18	22	21	23	48
93	4	74	75	76	90
94	14	94	74	73	97
95	20	51	56	57	58
95	21	51	56	57	58
96	3	2	1	49	50
97	4	3	12	13	16
98	4	2	3	4	6
99	13	34	30	31	70
100	1	70	72	73	96
101	4	27	26	25	43
102	4	76	75	74	94
103	10	8	9	21	22
103	11	8	9	21	22
104	14	33	30	29	36
105	4	56	51	50	68
106	14	88	77	76	90
107	1	77	78	79	80
108	14	44	25	24	46
109	4	72	73	74	94
110	4	76	77	78	86
111	1	80	79	78	87
112	15	71	70	72	73
113	4	12	3	2	19
114	14	34	30	29	36
115	4	50	51	52	55
116	4	52	51	50	69
117	14	41	26	25	43
118	15	22	21	23	24
119	4	24	25	26	41
120	4	28	29	30	34
121	13	31	70	72	98
122	14	88	77	76	91
123	1	70	72	73	97
124	22	58	57	56	59
125	4	75	74	73	96
126	14	92	75	74	95
127	4	26	25	24	45
128	4	2	3	12	17
129	14	14	13	12	17
130	4	60	56	51	61
131	4	76	77	78	87
132	5	27	28	29	30
132	6	27	28	29	30
132	7	27	28	29	30
133	4	4	3	8	11
134	5	73	74	75	76
134	6	73	74	75	76
134	7	73	74	75	76
135	5	25	26	27	28
135	6	25	26	27	28
135	7	25	26	27	28
136	1	49	50	51	61
137	5	8	3	12	13
137	6	8	3	12	13
137	7	8	3	12	13
138	14	46	24	23	48
139	4	12	3	2	20
140	5	56	51	61	62
140	6	56	51	61	62
140	7	56	51	61	62
141	13	82	80	79	85
142	19	30	31	70	72
143	14	86	78	77	89
144	4	26	27	28	37
145	14	41	26	25	44
146	5	2	3	12	13
146	6	2	3	12	13
146	7	2	3	12	13
147	4	77	76	75	93
148	1	52	51	56	57
149	4	52	51	56	60
150	13	31	70	72	99
151	13	9	21	23	47
152	4	5	4	3	8
153	1	50	51	56	57
154	4	75	74	73	97
155	4	50	51	56	60
156	14	15	13	12	17
157	4	26	25	24	46
158	4	2	3	12	18
159	2	10	8	9	21
160	14	14	13	12	18
161	4	77	78	79	84
162	23	79	80	82	83
163	16	81	80	79	85
163	17	81	80	79	85
163	18	81	80	79	85
164	14	95	74	73	96
165	4	25	26	27	40
166	4	5	4	3	12
167	19	30	31	70	71
168	14	37	28	27	39
169	4	75	76	77	89
170	13	78	79	80	82
171	5	76	77	78	79
171	6	76	77	78	79
171	7	76	77	78	79
172	1	28	29	30	31
173	14	85	79	78	86
174	14	89	77	76	90
175	4	4	3	2	20
176	14	40	27	26	42
177	4	73	74	75	93
178	14	90	76	75	92
179	5	26	27	28	29
179	6	26	27	28	29
179	7	26	27	28	29
180	14	16	13	12	18
181	14	97	73	72	99
182	14	96	73	72	98
183	4	53	52	51	56
184	4	2	3	8	10
185	14	96	73	72	99
186	14	95	74	73	97
187	14	15	13	12	18
188	4	8	3	2	19
189	4	51	61	62	63
190	16	71	70	72	98
190	17	71	70	72	98
190	18	71	70	72	98
191	4	77	78	79	85
192	14	84	79	78	86
193	4	10	8	3	12
194	14	37	28	27	40
195	4	74	75	76	91
196	4	28	27	26	41
197	4	8	3	12	17
198	14	36	29	28	37
199	2	19	2	1	49
200	4	2	3	4	7
201	5	50	51	61	62
201	6	50	51	61	62
201	7	50	51	61	62
202	4	56	51	61	66
203	4	27	26	25	44
204	4	76	75	74	95
205	12	8	9	21	23
206	14	87	78	77	88
207	4	56	51	50	69
208	4	72	73	74	95
209	14	42	26	25	43
210	5	72	73	74	75
210	6	72	73	74	75
210	7	72	73	74	75
211	14	84	79	78	87
212	2	1	49	50	68
213	5	23	24	25	26
213	6	23	24	25	26
213	7	23	24	25	26
214	4	27	28	29	35
215	4	24	25	26	42
216	14	64	62	61	66
217	4	28	27	26	42
218	4	8	3	12	18
219	4	2	3	4	5
220	1	31	30	29	35
221	1	49	50	51	52
222	4	56	51	61	67
223	4	78	77	76	90
224	4	59	56	51	61
225	19	32	31	70	71
226	14	43	25	24	45
227	14	63	62	61	66
228	4	55	52	51	56
229	4	54	52	51	56
230	1	21	23	24	45
231	4	25	24	23	47
232	1	1	2	3	4
233	5	75	76	77	78
233	6	75	76	77	78
233	7	75	76	77	78
234	4	3	12	13	14
235	5	24	25	26	27
235	6	24	25	26	27
235	7	24	25	26	27
236	14	45	24	23	47
237	1	21	23	24	25
238	4	26	27	28	38
239	13	29	30	31	70
240	4	52	51	61	66
241	4	61	51	50	68
242	4	27	28	29	36
243	14	64	62	61	67
244	1	70	72	73	74
245	4	6	4	3	8
246	13	9	21	23	48
247	4	23	24	25	43
248	4	4	3	8	10
249	14	38	28	27	39
250	14	39	27	26	41
251	4	50	51	61	66
252	1	2	3	8	9
253	19	32	31	70	72
254	4	78	77	76	91
255	4	50	51	52	53
256	14	91	76	75	92
257	14	93	75	74	94
258	2	11	8	9	21
259	4	6	4	3	12
260	1	21	23	24	46
261	4	25	24	23	48

Impropers

96	1	80	82	79	81
142	2	70	71	72	31
186	1	80	79	81	82
277	2	70	31	71	72
348	1	80	81	82	79
366	2	31	70	30	32
452	2	70	72	31	71
460	1	21	22	23	9
523	1	21	23	9	22
539	2	31	32	70	30
571	2	31	30	32	70
594	1	21	9	22	23
