Title

257 atoms
274 bonds
465 angles
717 dihedrals
324 impropers

11 atom types
15 bond types
9 angle types
21 dihedral types
3 improper types
-19.02799988 80.97200012 xlo xhi
-17.54100037 82.45899963 ylo yhi
-10.82900047 89.17099953 zlo zhi
0.0 0.0 0.0 xy xz yz

Masses

1	14.00672
2	12.01078
3	1.007947
4	15.99943
5	12.01078
6	1.007947
7	1.007947
8	18.998403
9	15.99943
10	15.99943
11	1.007947


Pair Coeffs

1	0.16769152	3.206876
2	0.086879315	3.4806469
3	0.015611343	2.5725815
4	0.16846514	3.0251065
5	0.10884061	3.3795318
6	0.015779483	2.6445434
7	0.014090815	1.1034277
8	0.061	3.1181455
9	0.2102061	3.0398122
10	0.20947353	2.99716
11	1.2326e-05	0.53453923

Bond Coeffs

1 harmonic	390.03554688505	1.390160554689
2 harmonic	505.144496193	1.019481865027
3 harmonic	422.7150220147	1.421786517481
4 harmonic	360.7852444772	1.387193227181
5 harmonic	397.2545789619	1.085358495916
6 harmonic	279.1350963404	1.454628925034
7 harmonic	425.69104206635	1.362945806494
8 harmonic	289.73813263395	1.498646816465
9 harmonic	264.62148576755	1.52190126495
10 harmonic	370.04670688625	1.093899492634
11 harmonic	492.76746816345	1.381897776683
12 harmonic	340.45121009905	1.358690858053
13 harmonic	582.698766451	1.225198386222
14 harmonic	385.7604595587	1.369745182308
15 harmonic	543.5267831885	0.9716763312559


Angle Coeffs

1 harmonic	57.8982893754	126.8062420451
2 harmonic	55.42182150775	117.3465570514
3 harmonic	63.44422595415	115.5071327674
4 harmonic	34.066775159195	129.1835929926
5 harmonic	65.09061609600001	110.3538806181
6 harmonic	53.20531626545	116.5475862634
7 harmonic	14.32262199324	138.3184368373
8 harmonic	48.776492647595	115.6030999533
9 harmonic	201.41175231035	127.4691416191


Dihedral Coeffs

1 fourier 1	3.661930099076	2	180
2 fourier 1	1.193093382682	2	180
3 fourier 1	0.02021088501612	1	0
4 fourier 1	1.163235555439	2	180
5 fourier 1	1.532232714475	2	180
6 fourier 1	0.02664938770063	3	0
7 fourier 1	0.1155372516788	3	0
8 fourier 1	0.09223874044423	3	0
9 fourier 1	0.3159935921949	2	180
10 fourier 1	0.3247796806857	1	180
11 fourier 1	0.1040663847541	3	0
12 fourier 1	3.101948770557	2	180
13 fourier 1	-0.4252153282372	1	0
14 fourier 1	1.809047390003	2	180
15 fourier 1	-0.04816277792592	1	0
16 fourier 1	0.9974165607242	2	180
17 fourier 1	2.348375642009	2	180
18 fourier 1	1.256156174911	1	0
19 fourier 1	2.687457892086	2	180
20 fourier 1	2.772607909663	2	180
21 fourier 1	0.09692684957115	1	0


Improper Coeffs

1 0.3666666666666667	-1	2
2 0.3333333333333333	-1	2
3 3.5	-1	2


Atoms

1	1	1	-0.41166899	11.7	-4.5539999	0.44800001
2	1	2	0.12722699	10.391	-4.0219998	0.66500002
3	1	2	-0.40614501	10.143	-2.7179999	0.46799999
4	1	3	0.222076	10.931	-2.05	0.142
5	1	2	-0.113368	8.7860003	-2.174	0.68900001
6	1	3	0.204291	8.6160002	-1.122	0.49599999
7	1	2	-0.127535	7.783	-2.9790001	1.089
8	1	2	-0.133783	6.415	-2.441	1.303
9	1	2	-0.128408	5.335	-3.1589999	0.94599998
10	1	3	0.20757399	5.4400001	-4.1339998	0.48300001
11	1	2	-0.29525799	3.98	-2.612	1.1289999
12	1	3	0.224805	3.1270001	-3.1900001	0.79799998
13	1	2	0.329925	3.8039999	-1.393	1.655
14	1	4	-0.27121201	2.506	-0.88499999	1.7589999
15	1	2	0.26585901	2.0109999	0.142	0.94800001
16	1	2	-0.27924299	0.85699999	0.72799999	1.281
17	1	3	0.231692	0.32600001	0.41600001	2.1730001
18	1	2	-0.14882401	0.29899999	1.812	0.449
19	1	3	0.21731099	-0.62	2.2809999	0.778
20	1	2	-0.25622401	0.91500002	2.2079999	-0.68900001
21	1	5	0.019377001	0.32800001	3.3599999	-1.523
22	1	5	-0.131551	0.93900001	3.4619999	-2.9400001
23	1	6	0.08766	0.86900002	2.487	-3.4690001
24	1	6	0.08766	2.0039999	3.7709999	-2.8889999
25	1	6	0.08766	0.40200001	4.224	-3.5439999
26	1	2	-0.107642	-1.156	3.2090001	-1.666
27	1	2	-0.125007	-1.814	2.1619999	-2.184
28	1	3	0.216847	-1.276	1.307	-2.573
29	1	2	0.235017	-3.2950001	2.1659999	-2.164
30	1	4	-0.28003499	-3.987	1.059	-2.6630001
31	1	2	0.333823	-4.777	0.19599999	-1.883
32	1	2	-0.29525799	-4.7270002	0.213	-0.537
33	1	3	0.224805	-4.0799999	0.90200001	-0.0099999998
34	1	2	-0.128408	-5.5050001	-0.755	0.257
35	1	3	0.20757399	-5.4029999	-0.73400003	1.334
36	1	2	-0.133783	-6.2789998	-1.6720001	-0.35100001
37	1	2	-0.127535	-7.0180001	-2.6960001	0.43200001
38	1	2	-0.127416	-7.6209998	-2.3889999	1.599
39	1	3	0.204291	-7.6030002	-1.3789999	1.988
40	1	2	-0.37416899	-8.3459997	-3.425	2.365
41	1	3	0.21851601	-8.8149996	-3.155	3.3039999
42	1	2	0.19946	-8.4169998	-4.6820002	1.903
43	1	1	-0.530442	-9.1190004	-5.6869998	2.6389999
44	1	7	0.31977499	-9.1759996	-6.664	2.277
45	1	2	-0.37416899	-7.7610002	-5.027	0.62199998
46	1	3	0.21851601	-7.8070002	-6.0409999	0.245
47	1	2	-0.127416	-7.1030002	-4.092	-0.071999997
48	1	3	0.204291	-6.6139998	-4.3709998	-0.99699998
49	1	2	-0.055813	-6.3530002	-1.6799999	-1.834
50	1	3	0.206597	-6.9949999	-2.405	-2.316
51	1	2	-0.321435	-5.6529999	-0.79299998	-2.5699999
52	1	5	0.76696098	-5.7179999	-0.796	-4.0809999
53	1	8	-0.207032	-4.4790001	-1.1390001	-4.5890002
54	1	8	-0.207032	-6.0580001	0.46599999	-4.5310001
55	1	8	-0.207032	-6.6550002	-1.6950001	-4.5619998
56	1	2	-0.285254	-3.9579999	3.23	-1.666
57	1	3	0.220043	-5.0409999	3.2420001	-1.655
58	1	2	0.012826	-3.2079999	4.3909998	-1.128
59	1	3	0.214837	-3.7420001	5.2459998	-0.73500001
60	1	2	-0.19690999	-1.865	4.3499999	-1.13
61	1	5	-0.02087	-0.91799998	5.3920002	-0.625
62	1	5	-0.13114201	-1.008	6.6550002	-1.5
63	1	6	0.091894001	-0.266	7.4109998	-1.163
64	1	6	0.091894001	-2.0220001	7.1059999	-1.437
65	1	6	0.091894001	-0.796	6.408	-2.5639999
66	1	5	-0.13114201	-1.217	5.7399998	0.84600002
67	1	6	0.091894001	-2.211	6.2249999	0.94300002
68	1	6	0.091894001	-1.2130001	4.823	1.475
69	1	6	0.091894001	-0.44999999	6.441	1.239
70	1	5	-0.18120299	0.48699999	4.7199998	-0.76599997
71	1	6	0.130119	1.207	5.3920002	-1.285
72	1	6	0.130119	0.93800002	4.553	0.23999999
73	1	2	-0.14882401	2.2119999	1.557	-1.046
74	1	3	0.21731099	2.7650001	1.852	-1.928
75	1	2	-0.27924299	2.7219999	0.58600003	-0.278
76	1	3	0.231692	3.658	0.123	-0.56699997
77	1	2	-0.321435	4.9819999	-0.60399997	2.122
78	1	5	0.76696098	4.8000002	0.75300002	2.767
79	1	8	-0.207032	3.648	0.773	3.5339999
80	1	8	-0.207032	4.7049999	1.721	1.784
81	1	8	-0.207032	5.8660002	1.0599999	3.5940001
82	1	2	-0.055813	6.2189999	-1.1	1.9170001
83	1	3	0.206597	7.0910001	-0.53500003	2.227
84	1	2	-0.113368	8.0679998	-4.4229999	1.311
85	1	3	0.204291	7.2870002	-5.0900002	1.653
86	1	2	-0.40614501	9.2959995	-4.9120002	1.109
87	1	3	0.222076	9.4919996	-5.9629998	1.2819999
88	1	7	0.37314901	12.491	-3.9400001	0.15000001
89	1	2	0.75675398	-9.5889997	-5.4629998	3.5639999
90	1	9	-0.66808701	-8.948	-5.6999998	4.6230001
91	1	2	-0.28425601	-10.948	-4.8709998	3.608
92	1	2	-0.107963	-11.398	-4.3410001	4.7579999
93	1	3	0.218183	-10.795	-4.3610001	5.6570001
94	1	2	-0.27741301	-12.708	-3.675	4.8260002
95	1	3	0.2111	-13.005	-3.2460001	5.7750001
96	1	2	-0.043882001	-13.514	-3.5929999	3.7460001
97	1	5	-0.27202401	-14.863	-2.8340001	3.8529999
98	1	2	-0.058927	-15.607	-3.312	5.125
99	1	2	-0.27405301	-16.315001	-2.484	5.921
100	1	3	0.2111	-16.375	-1.423	5.7379999
101	1	2	-0.089855999	-17.016001	-2.99	7.1139998
102	1	3	0.227474	-17.489	-2.2690001	7.77
103	1	2	-0.172664	-17.004999	-4.2979999	7.4219999
104	1	2	0.80206603	-17.584	-4.7259998	8.7159996
105	1	9	-0.49035501	-17.101999	-5.711	9.3369999
106	1	10	-0.66528398	-18.635	-4.0100002	9.283
107	1	11	0.41812399	-19.028	-4.2820001	10.176
108	1	2	-0.170157	-16.334	-5.256	6.4860001
109	1	2	0.802876	-16.462	-6.724	6.6329999
110	1	9	-0.49035501	-17.502001	-7.2290001	7.1329999
111	1	10	-0.66528398	-15.45	-7.5630002	6.1719999
112	1	11	0.41812399	-15.532	-8.5699997	6.25
113	1	2	-0.051686998	-15.662	-4.7729998	5.4239998
114	1	3	0.222426	-15.191	-5.461	4.7319999
115	1	5	0.75313598	-14.514	-1.3049999	3.8729999
116	1	8	-0.20072	-13.622	-1	2.8559999
117	1	8	-0.20072	-13.923	-0.949	5.0749998
118	1	8	-0.20072	-15.64	-0.51999998	3.687
119	1	5	0.75313598	-15.82	-3.118	2.648
120	1	8	-0.20072	-17.082001	-2.605	2.901
121	1	8	-0.20072	-15.955	-4.48	2.4349999
122	1	8	-0.20072	-15.357	-2.529	1.483
123	1	2	-0.013437	-13.012	-4.1760001	2.4660001
124	1	3	0.211953	-13.626	-4.132	1.582
125	1	2	-0.248611	-11.816	-4.7989998	2.3889999
126	1	2	0.58001202	-11.407	-5.4349999	1.112
127	1	9	-0.539002	-12.018	-5.1919999	0.037
128	1	1	-0.41166899	11.882	-5.5760002	0.57800001
129	1	2	0.12722699	12.098	-6.1079998	1.888
130	1	2	-0.40614501	12.365	-7.4120002	2.0580001
131	1	3	0.222076	12.42	-8.0799999	1.207
132	1	2	-0.113368	12.593	-7.9559999	3.414
133	1	3	0.204291	12.831	-9.0080004	3.513
134	1	2	-0.127535	12.538	-7.151	4.493
135	1	2	-0.133783	12.777	-7.6890001	5.8559999
136	1	2	-0.128408	13.463	-6.9710002	6.763
137	1	3	0.20757399	13.867	-5.9959998	6.5149999
138	1	2	-0.29525799	13.726	-7.5180001	8.1049995
139	1	3	0.224805	14.314	-6.9400001	8.8059998
140	1	2	0.329925	13.286	-8.7370005	8.4420004
141	1	4	-0.27121201	13.605	-9.2449999	9.7040005
142	1	2	0.26585901	14.533	-10.272	9.9099998
143	1	2	-0.27924299	14.59	-10.858	11.111
144	1	3	0.231692	13.917	-10.546	11.901
145	1	2	-0.14882401	15.557	-11.941	11.37
146	1	3	0.21731099	15.542	-12.411	12.346
147	1	2	-0.25622401	16.436001	-12.338	10.42
148	1	5	0.019377001	17.415001	-13.49	10.707
149	1	5	-0.131551	18.558001	-13.592	9.6719999
150	1	6	0.08766	19.082001	-12.616	9.5670004
151	1	6	0.08766	18.167	-13.901	8.6800003
152	1	6	0.08766	19.302999	-14.354	9.9849997
153	1	2	-0.107642	18.028	-13.339	12.065
154	1	2	-0.125007	18.731001	-12.292	12.521
155	1	3	0.216847	18.924999	-11.436	11.886
156	1	2	0.235017	19.188999	-12.296	13.929
157	1	4	-0.28003499	19.885	-11.189	14.424
158	1	2	0.333823	19.400999	-10.326	15.423
159	1	2	-0.29525799	18.111	-10.343	15.81
160	1	3	0.224805	17.403999	-11.032	15.367
161	1	2	-0.128408	17.610001	-9.375	16.802
162	1	3	0.20757399	16.558001	-9.3950005	17.052999
163	1	2	-0.133783	18.434999	-8.4580002	17.339001
164	1	2	-0.127535	17.931999	-7.4330001	18.291
165	1	2	-0.076687001	17.021999	-7.7399998	19.238001
166	1	3	0.204291	16.648001	-8.7510004	19.346001
167	1	2	-0.45031199	16.530001	-6.7049999	20.171
168	1	3	0.230625	15.793	-6.9749999	20.917999
169	1	2	0.319132	16.990999	-5.447	20.089001
170	1	1	-0.844423	16.521	-4.4429998	20.990999
171	1	7	0.366896	15.809	-4.6630001	21.722
172	1	7	0.366896	16.882	-3.4660001	20.927999
173	1	2	-0.45031199	17.992001	-5.1020002	19.056
174	1	3	0.230625	18.364	-4.0879998	18.976999
175	1	2	-0.076687001	18.437	-6.0370002	18.209
176	1	3	0.204291	19.155001	-5.7589998	17.447001
177	1	2	-0.055813	19.863001	-8.4499998	16.93
178	1	3	0.206597	20.525999	-7.7249999	17.382999
179	1	2	-0.321435	20.334	-9.3369999	16.031
180	1	5	0.76696098	21.785	-9.3339996	15.605
181	1	8	-0.207032	21.867001	-8.9910002	14.268
182	1	8	-0.207032	22.320999	-10.596	15.782
183	1	8	-0.207032	22.542	-8.4350004	16.337
184	1	2	-0.285254	18.931999	-13.36	14.718
185	1	3	0.220043	19.271	-13.371	15.747
186	1	2	0.012826	18.18	-14.521	14.181
187	1	3	0.214837	17.981001	-15.376	14.814
188	1	2	-0.19690999	17.749001	-14.48	12.91
189	1	5	-0.02087	16.966	-15.522	12.176
190	1	5	-0.13114201	17.823999	-16.784	11.978
191	1	6	0.091894001	17.264999	-17.541	11.386
192	1	6	0.091894001	18.09	-17.235001	12.959
193	1	6	0.091894001	18.761999	-16.538	11.436
194	1	5	-0.13114201	15.67	-15.87	12.934
195	1	6	0.091894001	15.899	-16.354	13.906
196	1	6	0.091894001	15.073	-14.953	13.132
197	1	6	0.091894001	15.051	-16.57	12.335
198	1	5	-0.18120299	16.646	-14.85	10.8
199	1	6	0.130119	16.906	-15.522	9.9519997
200	1	6	0.130119	15.549	-14.683	10.698
201	1	2	-0.14882401	16.355	-11.687	9.0780001
202	1	3	0.21731099	17.011999	-11.982	8.2700005
203	1	2	-0.27924299	15.464	-10.716	8.842
204	1	3	0.231692	15.436	-10.253	7.8639998
205	1	2	-0.321435	12.463	-9.526	7.4759998
206	1	5	0.76696098	11.912	-10.883	7.8569999
207	1	8	-0.207032	11.556	-10.903	9.1949997
208	1	8	-0.207032	12.873	-11.851	7.6300001
209	1	8	-0.207032	10.785	-11.19	7.1149998
210	1	2	-0.055813	12.258	-9.0299997	6.2399998
211	1	3	0.206597	11.683	-9.5950003	5.5139999
212	1	2	-0.113368	12.236	-5.7069998	4.2950001
213	1	3	0.204291	12.163	-5.04	5.1440001
214	1	2	-0.40614501	12.031	-5.2179999	3.066
215	1	3	0.222076	11.804	-4.1669998	2.937
216	1	7	0.37314901	11.908	-6.1900001	-0.26699999
217	1	2	0.58148098	-10.583	-6.1329999	1.077
218	1	9	-0.539002	-10.165	-6.6160002	2.1630001
219	1	2	-0.28257799	-9.9840002	-6.526	-0.219
220	1	2	-0.047536999	-9.2080002	-7.6230001	-0.28600001
221	1	3	0.214229	-8.9709997	-8.1929998	0.60299999
222	1	2	-0.271153	-8.7080002	-8.1230001	-1.579
223	1	3	0.2111	-8.0819998	-8.9989996	-1.55
224	1	2	-0.058927	-9.0500002	-7.5209999	-2.7379999
225	1	5	-0.27202401	-8.5389996	-7.9949999	-4.1230001
226	1	2	-0.058927	-9.6969995	-7.8800001	-5.1479998
227	1	2	-0.27405301	-10.915	-8.3739996	-4.8379998
228	1	3	0.2111	-11.105	-8.8190002	-3.8699999
229	1	2	-0.089855999	-12.042	-8.2790003	-5.7789998
230	1	3	0.227474	-13.018	-8.6049995	-5.4390001
231	1	2	-0.172664	-11.883	-7.73	-6.994
232	1	2	0.80206603	-13.082	-7.506	-7.8340001
233	1	9	-0.49035501	-13.133	-6.5279999	-8.6280003
234	1	10	-0.66528398	-14.185	-8.3479996	-7.7179999
235	1	11	0.41812399	-15.018	-8.1949997	-8.2749996
236	1	2	-0.170157	-10.516	-7.289	-7.415
237	1	2	0.802876	-10.223	-6.8889999	-8.8120003
238	1	9	-0.49035501	-9.3260002	-6.0370002	-9.0539999
239	1	10	-0.66528398	-10.905	-7.4829998	-9.8699999
240	1	11	0.41812399	-10.703	-7.2259998	-10.829
241	1	2	-0.051686998	-9.5019999	-7.3439999	-6.5279999
242	1	3	0.222426	-8.5179996	-7.046	-6.855
243	1	5	0.75313598	-7.3189998	-7.079	-4.4790001
244	1	8	-0.20072	-6.4349999	-7.0170002	-3.414
245	1	8	-0.20072	-7.7360001	-5.7880001	-4.757
246	1	8	-0.20072	-6.6199999	-7.566	-5.5710001
247	1	5	0.75313598	-8.073	-9.4919996	-4.1370001
248	1	8	-0.20072	-9.0229998	-10.31	-3.55
249	1	8	-0.20072	-7.8860002	-9.9259996	-5.4400001
250	1	8	-0.20072	-6.8709998	-9.658	-3.467
251	1	2	-0.040800001	-9.8579998	-6.2690001	-2.655
252	1	3	0.222426	-10.062	-5.723	-3.5680001
253	1	2	-0.113514	-10.289	-5.777	-1.478
254	1	2	0.81496501	-10.995	-4.4749999	-1.4630001
255	1	9	-0.49035501	-11.728	-4.1389999	-2.4330001
256	1	10	-0.66528398	-10.819	-3.589	-0.403
257	1	11	0.41812399	-11.287	-2.691	-0.39300001

Bonds

1	1	1	2
2	2	1	88
3	3	1	128
4	4	2	3
5	4	2	86
6	5	3	4
7	4	3	5
8	5	5	6
9	4	5	7
10	6	7	8
11	4	7	84
12	4	8	9
13	4	8	82
14	5	9	10
15	4	9	11
16	5	11	12
17	4	11	13
18	7	13	14
19	4	13	77
20	7	14	15
21	4	15	16
22	4	15	75
23	5	16	17
24	4	16	18
25	5	18	19
26	4	18	20
27	8	20	21
28	4	20	73
29	9	21	22
30	8	21	26
31	9	21	70
32	10	22	23
33	10	22	24
34	10	22	25
35	4	26	27
36	4	26	60
37	5	27	28
38	4	27	29
39	7	29	30
40	4	29	56
41	7	30	31
42	4	31	32
43	4	31	51
44	5	32	33
45	4	32	34
46	5	34	35
47	4	34	36
48	6	36	37
49	4	36	49
50	4	37	38
51	4	37	47
52	5	38	39
53	4	38	40
54	5	40	41
55	4	40	42
56	1	42	43
57	4	42	45
58	2	43	44
59	11	43	89
60	5	45	46
61	4	45	47
62	5	47	48
63	5	49	50
64	4	49	51
65	8	51	52
66	12	52	53
67	12	52	54
68	12	52	55
69	5	56	57
70	4	56	58
71	5	58	59
72	4	58	60
73	8	60	61
74	9	61	62
75	9	61	66
76	9	61	70
77	10	62	63
78	10	62	64
79	10	62	65
80	10	66	67
81	10	66	68
82	10	66	69
83	10	70	71
84	10	70	72
85	5	73	74
86	4	73	75
87	5	75	76
88	8	77	78
89	4	77	82
90	12	78	79
91	12	78	80
92	12	78	81
93	5	82	83
94	5	84	85
95	4	84	86
96	5	86	87
97	13	89	90
98	6	89	91
99	4	91	92
100	4	91	125
101	5	92	93
102	4	92	94
103	5	94	95
104	4	94	96
105	8	96	97
106	4	96	123
107	8	97	98
108	9	97	115
109	9	97	119
110	4	98	99
111	4	98	113
112	5	99	100
113	4	99	101
114	5	101	102
115	4	101	103
116	6	103	104
117	4	103	108
118	13	104	105
119	14	104	106
120	15	106	107
121	6	108	109
122	4	108	113
123	13	109	110
124	14	109	111
125	15	111	112
126	5	113	114
127	12	115	116
128	12	115	117
129	12	115	118
130	12	119	120
131	12	119	121
132	12	119	122
133	5	123	124
134	4	123	125
135	6	125	126
136	13	126	127
137	6	126	217
138	1	128	129
139	2	128	216
140	4	129	130
141	4	129	214
142	5	130	131
143	4	130	132
144	5	132	133
145	4	132	134
146	6	134	135
147	4	134	212
148	4	135	136
149	4	135	210
150	5	136	137
151	4	136	138
152	5	138	139
153	4	138	140
154	7	140	141
155	4	140	205
156	7	141	142
157	4	142	143
158	4	142	203
159	5	143	144
160	4	143	145
161	5	145	146
162	4	145	147
163	8	147	148
164	4	147	201
165	9	148	149
166	8	148	153
167	9	148	198
168	10	149	150
169	10	149	151
170	10	149	152
171	4	153	154
172	4	153	188
173	5	154	155
174	4	154	156
175	7	156	157
176	4	156	184
177	7	157	158
178	4	158	159
179	4	158	179
180	5	159	160
181	4	159	161
182	5	161	162
183	4	161	163
184	6	163	164
185	4	163	177
186	4	164	165
187	4	164	175
188	5	165	166
189	4	165	167
190	5	167	168
191	4	167	169
192	1	169	170
193	4	169	173
194	2	170	171
195	2	170	172
196	5	173	174
197	4	173	175
198	5	175	176
199	5	177	178
200	4	177	179
201	8	179	180
202	12	180	181
203	12	180	182
204	12	180	183
205	5	184	185
206	4	184	186
207	5	186	187
208	4	186	188
209	8	188	189
210	9	189	190
211	9	189	194
212	9	189	198
213	10	190	191
214	10	190	192
215	10	190	193
216	10	194	195
217	10	194	196
218	10	194	197
219	10	198	199
220	10	198	200
221	5	201	202
222	4	201	203
223	5	203	204
224	8	205	206
225	4	205	210
226	12	206	207
227	12	206	208
228	12	206	209
229	5	210	211
230	5	212	213
231	4	212	214
232	5	214	215
233	13	217	218
234	6	217	219
235	4	219	220
236	4	219	253
237	5	220	221
238	4	220	222
239	5	222	223
240	4	222	224
241	8	224	225
242	4	224	251
243	8	225	226
244	9	225	243
245	9	225	247
246	4	226	227
247	4	226	241
248	5	227	228
249	4	227	229
250	5	229	230
251	4	229	231
252	6	231	232
253	4	231	236
254	13	232	233
255	14	232	234
256	15	234	235
257	6	236	237
258	4	236	241
259	13	237	238
260	14	237	239
261	15	239	240
262	5	241	242
263	12	243	244
264	12	243	245
265	12	243	246
266	12	247	248
267	12	247	249
268	12	247	250
269	5	251	252
270	4	251	253
271	6	253	254
272	13	254	255
273	14	254	256
274	15	256	257

Angles

1	1	8	82	77
2	4	17	16	18
3	1	36	37	38
4	4	155	154	156
5	6	21	22	24
6	1	217	219	220
7	4	28	27	29
8	1	13	77	78
9	6	245	243	246
10	1	161	163	164
11	1	92	91	125
12	1	158	179	177
13	3	2	1	88
14	4	130	132	133
15	1	167	169	173
16	1	31	51	52
17	4	36	49	50
18	1	145	147	201
19	1	14	15	16
20	1	26	60	58
21	4	168	167	169
22	6	189	198	200
23	1	31	32	34
24	4	227	229	230
25	1	163	164	175
26	6	189	194	195
27	6	225	243	244
28	1	8	7	84
29	4	131	130	132
30	4	37	38	39
31	1	147	201	203
32	1	164	163	177
33	1	219	220	222
34	1	220	219	253
35	1	27	29	56
36	6	182	180	183
37	1	38	40	42
38	1	34	36	37
39	6	194	189	198
40	1	97	98	113
41	1	30	31	32
42	1	142	143	145
43	4	142	203	204
44	4	224	251	252
45	5	13	14	15
46	4	9	11	12
47	8	192	190	193
48	8	199	198	200
49	4	39	38	40
50	1	129	130	132
51	6	148	149	150
52	6	21	70	71
53	4	95	94	96
54	6	224	225	247
55	1	126	217	218
56	6	97	119	120
57	1	163	177	179
58	2	2	1	128
59	1	8	9	11
60	6	179	180	182
61	4	45	47	48
62	1	217	219	253
63	6	147	148	149
64	6	188	189	190
65	8	196	194	197
66	4	56	58	59
67	1	148	153	188
68	4	35	34	36
69	1	40	42	45
70	6	62	61	66
71	1	154	153	188
72	1	140	205	210
73	4	164	165	166
74	1	154	156	184
75	1	91	125	123
76	6	205	206	208
77	6	60	61	70
78	4	223	222	224
79	6	189	190	193
80	8	63	62	64
81	1	141	140	205
82	1	5	7	8
83	8	23	22	25
84	4	6	5	7
85	6	61	66	69
86	5	104	106	107
87	8	67	66	69
88	4	162	161	163
89	1	43	89	90
90	1	231	236	237
91	1	32	34	36
92	1	14	15	75
93	1	153	188	189
94	6	51	52	55
95	1	134	135	210
96	1	142	203	201
97	1	97	98	99
98	9	233	232	234
99	1	94	96	97
100	6	116	115	118
101	6	224	225	226
102	1	154	156	157
103	1	96	123	125
104	7	58	60	61
105	4	184	186	187
106	6	189	198	199
107	6	98	97	119
108	6	188	189	194
109	6	148	198	200
110	3	42	43	44
111	4	219	220	221
112	4	38	40	41
113	4	91	92	93
114	4	37	47	48
115	1	158	179	180
116	1	226	227	229
117	1	38	37	47
118	7	148	153	154
119	6	20	21	22
120	6	226	225	247
121	6	181	180	183
122	1	130	129	214
123	1	98	99	101
124	1	37	38	40
125	6	189	190	192
126	6	244	243	245
127	4	15	75	76
128	1	90	89	91
129	5	140	141	142
130	1	236	237	239
131	4	166	165	167
132	6	207	206	209
133	1	135	136	138
134	6	224	225	243
135	6	22	21	26
136	1	135	210	205
137	1	49	51	52
138	3	88	1	128
139	1	27	29	30
140	6	54	52	55
141	1	108	109	111
142	1	21	20	73
143	1	138	140	141
144	6	120	119	122
145	6	97	115	118
146	1	127	126	217
147	1	253	254	256
148	6	208	206	209
149	4	230	229	231
150	6	153	148	198
151	1	222	224	225
152	1	7	8	9
153	1	109	108	113
154	4	213	212	214
155	8	23	22	24
156	1	225	226	241
157	1	18	20	21
158	6	61	66	68
159	6	77	78	81
160	1	158	159	161
161	8	67	66	68
162	4	50	49	51
163	1	169	173	175
164	1	128	129	130
165	1	164	175	173
166	4	201	203	204
167	6	249	247	250
168	4	102	101	103
169	6	51	52	54
170	1	37	47	45
171	1	91	125	126
172	4	19	18	20
173	4	252	251	253
174	9	255	254	256
175	6	60	61	62
176	1	9	8	82
177	1	21	26	60
178	4	202	201	203
179	6	79	78	81
180	4	33	32	34
181	1	165	164	175
182	1	206	205	210
183	1	165	167	169
184	1	219	253	251
185	6	53	52	54
186	6	20	21	70
187	4	10	9	11
188	1	177	179	180
189	1	99	98	113
190	1	148	147	201
191	1	15	75	73
192	1	161	163	177
193	1	134	212	214
194	1	140	205	206
195	4	135	210	211
196	4	41	40	42
197	6	60	61	66
198	1	125	126	127
199	1	11	13	77
200	1	136	138	140
201	4	8	82	83
202	1	143	145	147
203	4	98	99	100
204	6	117	115	118
205	1	138	140	205
206	6	189	194	197
207	6	189	190	191
208	6	225	243	246
209	2	1	128	129
210	1	225	226	227
211	6	61	62	64
212	4	160	159	161
213	4	12	11	13
214	4	15	16	17
215	6	96	97	115
216	1	128	129	214
217	3	44	43	89
218	1	236	237	238
219	4	29	56	57
220	1	92	94	96
221	1	159	161	163
222	5	29	30	31
223	6	207	206	208
224	4	7	84	85
225	4	135	136	137
226	3	169	170	172
227	1	132	134	135
228	6	226	225	243
229	6	148	149	152
230	8	24	22	25
231	6	147	148	198
232	1	108	109	110
233	8	68	66	69
234	6	97	119	122
235	6	97	115	117
236	1	20	73	75
237	4	146	145	147
238	1	251	253	254
239	5	254	256	257
240	1	156	184	186
241	5	232	234	235
242	6	61	70	72
243	6	98	97	115
244	4	158	159	160
245	6	77	78	80
246	1	89	91	92
247	4	133	132	134
248	4	74	73	75
249	6	21	22	23
250	1	97	96	123
251	6	96	97	119
252	1	78	77	82
253	6	148	198	189
254	4	57	56	58
255	8	150	149	152
256	6	149	148	198
257	1	18	20	73
258	6	115	97	119
259	1	89	91	125
260	8	151	149	152
261	1	101	103	104
262	4	31	32	33
263	4	8	9	10
264	4	165	167	168
265	4	139	138	140
266	4	164	175	176
267	4	147	201	202
268	1	32	31	51
269	4	108	113	114
270	1	11	13	14
271	4	129	214	215
272	4	142	143	144
273	1	229	231	236
274	4	84	86	87
275	4	129	130	131
276	4	2	86	87
277	4	100	99	101
278	4	163	177	178
279	1	101	103	108
280	6	149	148	153
281	1	227	229	231
282	6	179	180	181
283	1	219	253	254
284	6	61	62	63
285	5	109	111	112
286	9	238	237	239
287	6	190	189	194
288	4	236	241	242
289	4	137	136	138
290	4	73	75	76
291	1	99	101	103
292	4	159	161	162
293	1	94	96	123
294	3	169	170	171
295	9	110	109	111
296	6	205	206	207
297	6	21	70	72
298	4	228	227	229
299	6	97	119	121
300	1	227	226	241
301	4	124	123	125
302	7	186	188	189
303	4	156	184	185
304	1	26	27	29
305	6	225	247	250
306	7	21	26	27
307	6	190	189	198
308	1	2	3	5
309	4	32	34	35
310	6	96	97	98
311	6	80	78	81
312	8	150	149	151
313	1	129	214	212
314	1	145	147	148
315	4	212	214	215
316	1	159	158	179
317	6	116	115	117
318	1	36	37	47
319	1	2	86	84
320	4	96	123	124
321	1	103	104	106
322	1	237	236	241
323	6	248	247	250
324	6	22	21	70
325	6	148	198	199
326	1	27	26	60
327	8	195	194	197
328	1	153	154	156
329	6	121	119	122
330	1	5	7	84
331	5	156	157	158
332	4	226	227	228
333	1	103	108	113
334	4	77	82	83
335	1	218	217	219
336	4	221	220	222
337	6	181	180	182
338	4	187	186	188
339	4	144	143	145
340	1	184	186	188
341	3	1	128	216
342	1	13	77	82
343	1	91	92	94
344	3	171	170	172
345	4	99	101	102
346	1	40	42	43
347	3	129	128	216
348	4	205	210	211
349	2	42	43	89
350	6	120	119	121
351	1	253	254	255
352	1	43	89	91
353	4	85	84	86
354	1	42	45	47
355	4	26	27	28
356	6	225	247	249
357	6	244	243	246
358	1	222	224	251
359	6	61	66	67
360	4	93	92	94
361	1	14	13	77
362	4	169	173	174
363	4	2	3	4
364	1	30	29	56
365	1	231	232	234
366	1	220	222	224
367	1	1	2	86
368	1	3	5	7
369	1	16	18	20
370	6	51	52	53
371	1	229	231	232
372	4	46	45	47
373	1	167	169	170
374	6	66	61	70
375	8	71	70	72
376	1	16	15	75
377	6	79	78	80
378	1	170	169	173
379	1	31	51	49
380	1	103	104	105
381	1	157	156	184
382	6	248	247	249
383	1	3	2	86
384	6	21	22	25
385	8	195	194	196
386	6	147	148	153
387	1	226	241	236
388	8	191	190	193
389	4	153	154	155
390	1	225	224	251
391	1	43	42	45
392	6	62	61	70
393	4	134	212	213
394	1	130	132	134
395	4	178	177	179
396	1	98	113	108
397	4	173	175	176
398	5	237	239	240
399	1	135	134	212
400	4	136	138	139
401	1	36	49	51
402	4	143	145	146
403	6	189	194	196
404	6	225	243	245
405	1	163	164	165
406	1	30	31	51
407	1	37	36	49
408	8	64	62	65
409	4	174	173	175
410	6	53	52	55
411	1	136	135	210
412	1	143	142	203
413	1	231	236	241
414	1	134	135	136
415	1	123	125	126
416	4	92	94	95
417	4	59	58	60
418	4	185	184	186
419	1	224	251	253
420	1	9	11	13
421	1	125	126	217
422	1	132	134	212
423	6	148	149	151
424	1	126	217	219
425	6	21	70	61
426	1	157	158	179
427	6	97	115	116
428	4	20	73	74
429	1	157	158	159
430	1	26	60	61
431	1	232	231	236
432	4	42	45	46
433	6	188	189	198
434	6	179	180	183
435	6	225	247	248
436	6	61	70	71
437	1	34	36	49
438	6	61	62	65
439	6	77	78	79
440	4	4	3	5
441	1	15	16	18
442	1	1	2	3
443	4	226	241	242
444	1	231	232	233
445	1	141	142	143
446	4	220	222	223
447	1	29	56	58
448	1	56	58	60
449	1	104	103	108
450	4	3	5	6
451	1	153	188	186
452	4	16	18	19
453	1	7	84	86
454	8	191	190	192
455	1	7	8	82
456	1	164	165	167
457	6	243	225	247
458	1	103	108	109
459	6	205	206	209
460	4	98	113	114
461	6	26	21	70
462	1	141	142	203
463	6	20	21	26
464	9	105	104	106
465	8	63	62	65

Dihedrals

1	11	197	194	189	198
2	16	231	236	237	239
3	16	229	231	232	234
4	2	86	2	1	128
5	11	65	62	61	66
6	1	164	175	173	169
7	8	149	148	198	189
7	9	149	148	198	189
7	10	149	148	198	189
8	1	228	227	229	230
9	1	141	140	205	206
10	6	227	226	225	247
11	1	32	31	51	52
12	1	97	96	123	124
13	1	97	98	99	100
14	1	92	91	125	126
15	1	136	135	210	211
16	1	226	227	229	230
17	1	14	15	75	73
18	1	153	188	186	187
19	1	161	159	158	179
20	1	37	47	45	46
21	6	149	148	153	154
22	1	158	159	161	163
23	1	13	77	82	83
24	3	88	1	128	216
25	1	37	36	49	50
26	1	8	7	84	85
27	1	141	142	203	201
28	1	168	167	169	170
29	6	60	26	21	70
30	1	33	32	31	51
31	1	157	156	184	185
32	7	150	149	148	153
33	1	14	13	77	82
34	1	185	184	186	187
35	11	62	61	66	68
36	16	103	108	109	110
37	6	224	225	226	241
38	1	136	138	140	205
39	1	40	42	45	46
40	1	225	226	241	236
41	1	162	161	163	164
42	11	25	22	21	70
43	11	68	66	61	70
44	6	153	188	189	194
45	2	172	170	169	173
46	11	149	148	198	200
47	1	224	251	253	254
48	6	20	21	26	60
49	1	12	11	13	77
50	1	17	16	15	75
51	11	67	66	61	70
52	1	2	3	5	7
53	1	3	2	86	87
54	7	224	225	247	248
55	1	93	92	91	125
56	1	165	167	169	173
57	1	14	15	16	17
58	1	166	165	164	175
59	6	145	147	148	153
60	1	166	165	167	169
61	1	213	212	214	215
62	7	21	70	61	60
63	5	140	141	142	203
64	11	64	62	61	66
65	6	49	51	52	53
66	1	8	9	11	12
67	6	98	97	96	123
68	1	101	99	98	113
69	1	41	40	42	45
70	1	17	16	18	20
71	1	148	153	188	189
72	1	34	32	31	51
73	1	35	34	36	37
74	7	96	97	115	116
75	1	157	158	179	177
76	1	38	40	42	45
77	6	177	179	180	181
78	1	143	142	203	201
79	5	156	157	158	179
80	7	243	225	247	248
81	16	239	237	236	241
82	1	74	73	75	76
83	1	94	96	123	125
84	6	119	97	96	123
85	1	135	136	138	140
86	5	156	157	158	159
87	20	110	109	111	112
87	21	110	109	111	112
88	1	164	165	167	169
89	1	5	7	84	86
90	4	5	7	8	82
91	1	225	224	251	252
92	7	98	97	119	122
93	4	132	134	135	210
94	7	98	97	115	117
95	1	134	212	214	215
96	6	26	60	61	66
97	4	175	164	163	177
98	1	32	31	51	49
99	1	16	15	75	73
100	1	85	84	86	87
101	1	153	188	186	184
102	1	184	186	188	189
103	1	133	132	134	212
104	6	247	225	224	251
105	1	18	20	73	74
106	6	80	78	77	82
107	1	37	38	40	41
108	6	147	148	153	188
109	16	90	89	91	125
110	1	30	31	51	52
111	6	26	21	20	73
112	1	135	210	205	206
113	1	140	205	210	211
114	4	161	163	164	175
115	1	57	56	58	60
116	1	30	31	32	34
117	1	109	108	113	114
118	1	225	226	241	242
119	7	226	225	247	249
120	6	186	188	189	198
121	1	129	130	132	133
122	1	134	135	210	205
123	1	222	224	251	252
124	6	96	97	98	113
125	1	131	130	132	134
126	11	22	21	70	72
127	6	224	225	226	227
128	7	147	148	198	200
129	1	138	136	135	210
130	1	29	27	26	60
131	1	97	98	113	108
132	1	146	145	147	201
133	1	98	113	108	103
134	7	148	198	189	188
135	6	158	179	180	181
136	1	6	5	7	8
137	6	222	224	225	247
138	1	78	77	82	83
139	6	31	51	52	55
140	1	95	94	96	97
141	7	117	115	97	119
142	1	227	229	231	236
143	6	26	60	61	70
144	1	142	203	201	202
145	11	152	149	148	198
146	1	1	2	3	5
147	6	18	20	21	26
148	8	21	70	61	66
148	9	21	70	61	66
148	10	21	70	61	66
149	1	102	101	103	104
150	1	4	3	5	6
151	7	244	243	225	247
152	7	20	21	22	23
153	1	32	34	36	49
154	1	98	99	101	103
155	11	190	189	194	197
156	1	7	8	9	10
157	1	158	159	161	162
158	1	12	11	13	14
159	1	217	219	253	251
160	1	163	177	179	180
161	1	223	222	224	225
162	11	62	61	70	72
163	1	103	108	113	114
164	1	38	37	47	48
165	1	3	5	7	84
166	1	169	173	175	176
167	16	238	237	236	241
168	1	91	125	123	124
169	1	232	231	236	237
170	11	149	148	198	199
171	19	236	237	239	240
172	1	156	184	186	188
173	1	33	32	34	35
174	1	144	143	145	147
175	6	227	226	225	243
176	6	149	148	147	201
177	7	60	61	62	65
178	16	123	125	126	217
179	1	237	236	241	242
180	1	99	98	113	114
181	1	166	165	167	168
182	2	214	129	128	216
183	1	36	37	38	39
184	1	43	42	45	47
185	1	31	51	49	36
186	16	126	217	219	220
187	7	151	149	148	153
188	6	13	77	78	81
189	1	141	142	203	204
190	1	168	167	169	173
191	1	19	18	20	21
192	11	192	190	189	194
193	1	17	16	18	19
194	11	69	66	61	70
195	2	86	2	1	88
196	3	2	1	128	216
197	6	113	98	97	115
198	19	253	254	256	257
199	1	232	231	236	241
200	16	127	126	217	219
201	14	42	43	89	91
201	15	42	43	89	91
202	1	132	134	212	214
203	6	96	97	98	99
204	1	163	164	165	166
205	1	135	136	138	139
206	16	125	126	217	219
207	11	66	61	70	72
208	16	251	253	254	256
209	1	36	49	51	52
210	1	42	45	47	48
211	1	98	113	108	109
212	1	142	143	145	146
213	6	153	188	189	190
214	1	164	175	173	174
215	11	24	22	21	70
216	1	219	220	222	224
217	11	23	22	21	70
218	7	98	97	119	121
219	6	94	96	97	115
220	1	164	163	177	178
221	1	35	34	36	49
222	1	153	154	156	184
223	1	37	47	45	42
224	1	91	92	94	96
225	1	220	219	253	251
226	2	1	128	129	130
227	1	156	154	153	188
228	7	96	97	119	120
229	1	27	29	56	58
230	1	26	60	58	56
231	1	143	145	147	148
232	1	157	158	179	180
233	1	32	34	36	37
234	7	226	225	247	248
235	1	14	13	77	78
236	1	38	37	47	45