Title

77 atoms
78 bonds
139 angles
231 dihedrals
36 impropers

9 atom types
13 bond types
7 angle types
27 dihedral types
2 improper types
-4.296999931 95.70300007 xlo xhi
-2.562000036 97.43799996 ylo yhi
-6.846000195 93.15399981 zlo zhi
0.0 0.0 0.0 xy xz yz

Masses

1	15.99943
2	12.01078
3	1.007947
4	1.007947
5	12.01078
6	15.99943
7	1.007947
8	15.99943
9	1.007947


Pair Coeffs

1	0.16846514	3.0251065
2	0.10884061	3.3795318
3	0.016409246	2.5832257
4	0.015779483	2.6445434
5	0.086879315	3.4806469
6	0.2102061	3.0398122
7	0.015611343	2.5725815
8	0.20947353	2.99716
9	1.2326e-05	0.53453923

Bond Coeffs

1 harmonic	366.7408841747	1.425895053732
2 harmonic	300.03137914615	1.451203938761
3 harmonic	264.62148576755	1.52190126495
4 harmonic	370.04670688625	1.093899492634
5 harmonic	301.15400723785	1.345741232799
6 harmonic	582.698766451	1.225198386222
7 harmonic	279.1350963404	1.454628925034
8 harmonic	399.1592953295	1.371688562017
9 harmonic	369.34270398985	1.364116986116
10 harmonic	397.2545789619	1.085358495916
11 harmonic	329.96998057905	1.427343958716
12 harmonic	543.5267831885	0.9716763312559
13 harmonic	385.7604595587	1.369745182308


Angle Coeffs

1 harmonic	53.20531626545	116.5475862634
2 harmonic	65.09061609600001	110.3538806181
3 harmonic	201.41175231035	127.4691416191
4 harmonic	57.8982893754	126.8062420451
5 harmonic	48.776492647595	115.6030999533
6 harmonic	39.628116874445	129.8027304608
7 harmonic	79.1895422237	112.4630193006


Dihedral Coeffs

1 fourier 1	0.1155372516788	3	0
2 fourier 1	0.1115525666802	3	0
3 fourier 1	0.3432490222662	1	0
4 fourier 1	0.0473758381877	3	0
5 fourier 1	0.457973137376	1	0
6 fourier 1	0.09223874044423	3	0
7 fourier 1	0.3159935921949	2	180
8 fourier 1	0.3247796806857	1	180
9 fourier 1	0.1040663847541	3	0
10 fourier 1	0.1918272375143	3	0
11 fourier 1	0.9202179876409	1	180
12 fourier 1	1.163809172478	2	180
13 fourier 1	0.1679186987369	1	180
14 fourier 1	2.779853741805	2	180
15 fourier 1	0.9974165607242	2	180
16 fourier 1	0.1911926717192	3	0
17 fourier 1	5.294842998052	2	180
18 fourier 1	1.659715194912	2	180
19 fourier 1	0.2347635637734	2	180
20 fourier 1	0.4747469131102	3	0
21 fourier 1	1.163235555439	2	180
22 fourier 1	0.3445382149273	3	0
23 fourier 1	0.1364556373303	1	0
24 fourier 1	0.3026390167484	3	0
25 fourier 1	2.687457892086	2	180
26 fourier 1	2.772607909663	2	180
27 fourier 1	0.09692684957115	1	0


Improper Coeffs

1 3.5	-1	2
2 0.3666666666666667	-1	2


Atoms

1	1	1	-0.172885	3.1489999	2.01	0.96700001
2	1	2	0.034651	2.263	1.3200001	0.127
3	1	2	-0.14570799	2.6730001	-0.154	0.023
4	1	2	-0.139483	1.717	-0.97000003	-0.87400001
5	1	2	-0.141892	0.75199997	-1.878	-0.088
6	1	2	-0.14194199	-0.26100001	-1.132	0.79699999
7	1	2	-0.140752	-1.279	-0.31999999	-0.017999999
8	1	2	-0.141167	-2.3310001	0.317	0.89999998
9	1	2	0.139597	-3.3150001	1.196	0.122
10	1	1	-0.49598101	-4.1139998	0.41499999	-0.72799999
11	1	3	0.072732002	-2.77	1.985	-0.447
12	1	3	0.072732002	-3.9790001	1.711	0.847
13	1	4	0.088953003	-2.895	-0.47799999	1.436
14	1	4	0.088953003	-1.8200001	0.94999999	1.658
15	1	4	0.084963001	-0.759	0.48500001	-0.579
16	1	4	0.084963001	-1.7819999	-0.99199998	-0.74699998
17	1	4	0.083209001	-0.81199998	-1.892	1.393
18	1	4	0.083209001	0.26800001	-0.477	1.52
19	1	4	0.083209001	0.198	-2.5179999	-0.80900002
20	1	4	0.083209001	1.347	-2.562	0.55500001
21	1	4	0.085138999	1.1569999	-0.315	-1.575
22	1	4	0.085138999	2.336	-1.636	-1.515
23	1	4	0.090020001	3.694	-0.19599999	-0.417
24	1	4	0.090020001	2.7409999	-0.597	1.04
25	1	3	0.082466997	2.2490001	1.788	-0.884
26	1	3	0.082466997	1.244	1.406	0.55299997
27	1	5	0.67153102	-3.6259999	0.37	-1.642
28	1	6	-0.54198599	-4.2969999	0.419	-2.7060001
29	1	5	0.247015	-2.168	0.252	-1.697
30	1	5	-0.29231501	-1.365	0.193	-0.64300001
31	1	7	0.172188	-1.666	0.223	0.396
32	1	5	-0.30378899	-0.0060000001	0.079999998	-1.1619999
33	1	7	0.15676001	0.90799999	0.0099999998	-0.58600003
34	1	5	0.298785	-0.105	0.081	-2.4849999
35	1	5	0.43437099	1.021	-0.016000001	-3.415
36	1	6	-0.550659	0.81699997	-0.0060000001	-4.6570001
37	1	1	-0.226174	-1.433	0.186	-2.8729999
38	1	1	-0.172885	3.9779999	2.1619999	0.442
39	1	2	0.034651	3.598	2.852	-0.71799999
40	1	2	-0.14570799	3.329	4.3260002	-0.39199999
41	1	2	-0.139483	2.928	5.1420002	-1.64
42	1	2	-0.141892	4.0510001	6.0500002	-2.1760001
43	1	2	-0.141892	5.2849998	5.3039999	-2.7119999
44	1	2	-0.135398	4.9840002	4.4920001	-3.9809999
45	1	2	-0.167632	6.2639999	3.855	-4.539
46	1	2	0.087907001	5.9829998	2.9760001	-5.7610002
47	1	8	-0.682441	5.5570002	3.757	-6.8460002
48	1	9	0.38129401	4.566	3.8	-6.8000002
49	1	3	0.073243	5.2350001	2.188	-5.5120001
50	1	3	0.073243	6.9229999	2.461	-6.0500002
51	1	4	0.092373997	6.9899998	4.6500001	-4.8189998
52	1	4	0.092373997	6.7309999	3.223	-3.7520001
53	1	4	0.085138999	4.2550001	3.687	-3.7509999
54	1	4	0.085138999	4.5409999	5.164	-4.7470002
55	1	4	0.083209001	6.059	6.0640001	-2.954
56	1	4	0.083209001	5.711	4.6490002	-1.924
57	1	4	0.083209001	3.6370001	6.6900001	-2.9849999
58	1	4	0.083209001	4.3769999	6.7340002	-1.362
59	1	4	0.085138999	2.5339999	4.4879999	-2.4460001
60	1	4	0.085138999	2.0840001	5.8080001	-1.355
61	1	4	0.090020001	2.494	4.368	0.34200001
62	1	4	0.090020001	4.2189999	4.7690001	0.105
63	1	3	0.082466997	2.691	2.3840001	-1.163
64	1	3	0.082466997	4.4190001	2.766	-1.457
65	1	5	0.43437201	2.0339999	-0.096000001	-3.0409999
66	1	6	-0.550659	3.0020001	0.07	-3.829
67	1	5	0.298785	2.2780001	-0.39399999	-1.6289999
68	1	5	-0.30378899	1.337	-0.58600003	-0.71499997
69	1	7	0.15676001	0.26699999	-0.551	-0.875
70	1	5	-0.29608199	2.029	-0.852	0.54299998
71	1	7	0.172188	1.573	-1.054	1.5039999
72	1	5	0.25789699	3.3299999	-0.79799998	0.28
73	1	5	0.71564198	4.4120002	-1.003	1.249
74	1	6	-0.53432298	4.151	-1.257	2.4560001
75	1	8	-0.701042	5.7350001	-0.91600001	0.82999998
76	1	9	0.39228499	6.4970002	-1.054	1.482
77	1	1	-0.22970501	3.539	-0.51499999	-1.062

Bonds

1	1	1	2
2	2	1	38
3	3	2	3
4	4	2	25
5	4	2	26
6	3	3	4
7	4	3	23
8	4	3	24
9	3	4	5
10	4	4	21
11	4	4	22
12	3	5	6
13	4	5	19
14	4	5	20
15	3	6	7
16	4	6	17
17	4	6	18
18	3	7	8
19	4	7	15
20	4	7	16
21	3	8	9
22	4	8	13
23	4	8	14
24	1	9	10
25	4	9	11
26	4	9	12
27	5	10	27
28	6	27	28
29	7	27	29
30	8	29	30
31	9	29	37
32	10	30	31
33	7	30	32
34	10	32	33
35	8	32	34
36	7	34	35
37	9	34	37
38	6	35	36
39	7	35	65
40	1	38	39
41	3	39	40
42	4	39	63
43	4	39	64
44	3	40	41
45	4	40	61
46	4	40	62
47	3	41	42
48	4	41	59
49	4	41	60
50	3	42	43
51	4	42	57
52	4	42	58
53	3	43	44
54	4	43	55
55	4	43	56
56	3	44	45
57	4	44	53
58	4	44	54
59	3	45	46
60	4	45	51
61	4	45	52
62	11	46	47
63	4	46	49
64	4	46	50
65	12	47	48
66	6	65	66
67	7	65	67
68	8	67	68
69	9	67	77
70	10	68	69
71	7	68	70
72	10	70	71
73	8	70	72
74	7	72	73
75	9	72	77
76	6	73	74
77	13	73	75
78	12	75	76

Angles

1	1	7	8	13
2	1	40	41	59
3	1	6	7	16
4	3	74	73	75
5	1	2	3	23
6	2	46	47	48
7	1	45	46	49
8	5	51	45	52
9	1	3	4	22
10	1	1	2	3
11	4	34	35	36
12	1	7	8	14
13	6	27	29	37
14	1	1	2	26
15	5	19	5	20
16	1	2	3	24
17	5	55	43	56
18	1	4	5	20
19	1	41	40	61
20	4	68	70	72
21	1	46	45	51
22	1	41	42	57
23	1	10	9	11
24	1	6	5	20
25	1	7	8	9
26	1	9	8	13
27	1	42	41	59
28	4	30	29	37
29	1	4	3	23
30	1	3	2	26
31	1	47	46	49
32	1	44	45	51
33	2	1	38	39
34	1	5	4	22
35	6	65	67	77
36	1	42	43	55
37	1	5	6	7
38	4	32	34	37
39	1	8	7	16
40	4	34	35	65
41	1	6	7	8
42	1	10	9	12
43	1	39	40	61
44	5	13	8	14
45	1	7	6	18
46	2	9	10	27
47	1	9	8	14
48	1	39	40	41
49	1	38	39	63
50	2	2	1	38
51	1	4	3	24
52	1	45	44	54
53	1	8	9	10
54	1	44	45	52
55	1	40	41	60
56	1	43	44	53
57	4	35	65	66
58	6	29	30	31
59	6	71	70	72
60	1	45	46	50
61	5	17	6	18
62	5	61	40	62
63	6	67	68	69
64	3	10	27	28
65	4	28	27	29
66	1	5	6	17
67	4	68	67	77
68	5	59	41	60
69	1	43	44	45
70	5	53	44	54
71	1	41	40	62
72	1	40	39	63
73	1	44	43	55
74	1	46	45	52
75	4	10	27	29
76	1	38	39	40
77	6	70	72	73
78	4	72	73	74
79	1	41	42	58
80	1	42	43	44
81	1	45	46	47
82	6	27	29	30
83	6	65	67	68
84	1	42	41	60
85	1	40	39	64
86	5	25	2	26
87	1	41	42	43
88	1	47	46	50
89	7	67	77	72
90	5	57	42	58
91	1	3	4	5
92	1	42	43	56
93	4	70	72	77
94	6	31	30	32
95	4	72	73	75
96	5	63	39	64
97	2	73	75	76
98	1	3	4	21
99	1	8	9	11
100	1	39	40	62
101	5	23	3	24
102	4	66	65	67
103	6	69	68	70
104	1	38	39	64
105	1	43	44	54
106	1	1	2	25
107	1	4	5	6
108	6	30	32	33
109	4	35	65	67
110	4	29	30	32
111	1	4	5	19
112	1	8	9	12
113	5	15	7	16
114	6	73	72	77
115	6	68	70	71
116	4	67	68	70
117	5	11	9	12
118	6	32	34	35
119	1	5	6	18
120	6	33	32	34
121	1	6	5	19
122	4	30	32	34
123	5	49	46	50
124	7	29	37	34
125	1	40	41	42
126	1	44	43	56
127	1	43	42	57
128	1	2	3	4
129	6	35	34	37
130	1	3	2	25
131	1	5	4	21
132	1	6	7	15
133	4	36	35	65
134	1	8	7	15
135	1	7	6	17
136	5	21	4	22
137	1	44	45	46
138	1	43	42	58
139	1	45	44	53

Dihedrals

1	17	31	30	29	37
2	6	43	44	45	46
2	7	43	44	45	46
2	8	43	44	45	46
3	16	13	8	7	16
4	9	42	41	40	61
5	24	48	47	46	49
6	16	12	9	8	13
7	17	70	68	67	77
8	14	9	10	27	29
9	9	43	44	45	51
10	17	32	30	29	37
11	17	68	70	72	77
12	16	54	44	43	55
13	9	46	45	44	53
14	17	27	29	30	31
15	6	3	4	5	6
15	7	3	4	5	6
15	8	3	4	5	6
16	17	30	32	34	37
17	16	24	3	2	26
18	9	44	43	42	58
19	16	55	43	42	58
20	9	3	4	5	19
21	9	4	3	2	25
22	9	9	8	7	15
23	9	7	6	5	19
24	9	42	41	40	62
25	10	8	9	10	27
25	11	8	9	10	27
26	17	71	70	72	77
27	24	48	47	46	50
28	16	12	9	8	14
29	15	10	27	29	30
30	21	29	30	32	33
31	9	4	5	6	18
32	19	66	65	67	68
32	20	66	65	67	68
33	16	54	44	43	56
34	9	42	43	44	53
35	16	22	4	3	23
36	17	27	29	30	32
37	9	46	45	44	54
38	16	61	40	39	64
39	16	58	42	41	59
40	16	56	43	42	57
41	9	4	3	2	26
42	16	60	41	40	61
43	9	40	41	42	57
44	9	9	8	7	16
45	9	7	6	5	20
46	21	31	30	32	33
47	9	41	40	39	64
48	2	10	9	8	13
48	3	10	9	8	13
49	16	14	8	7	15
50	6	2	3	4	5
50	7	2	3	4	5
50	8	2	3	4	5
51	9	5	6	7	16
52	16	49	46	45	51
53	5	2	1	38	39
54	16	51	45	44	53
55	9	5	4	3	24
56	16	22	4	3	24
57	2	38	39	40	62
57	3	38	39	40	62
58	16	15	7	6	17
59	9	41	42	43	55
60	9	2	3	4	21
61	1	44	45	46	47
62	6	42	43	44	45
62	7	42	43	44	45
62	8	42	43	44	45
63	18	67	77	72	73
64	9	7	8	9	11
65	15	34	35	65	66
66	9	43	42	41	59
67	4	3	2	1	38
68	21	67	68	70	71
69	15	70	72	73	75
70	16	60	41	40	62
71	9	6	5	4	21
72	18	29	37	34	35
73	16	59	41	40	62
74	2	47	46	45	52
74	3	47	46	45	52
75	21	31	30	32	34
76	2	10	9	8	14
76	3	10	9	8	14
77	16	14	8	7	16
78	9	45	44	43	56
79	16	50	46	45	51
80	16	49	46	45	52
81	16	23	3	2	26
82	16	16	7	6	17
83	21	69	68	70	71
84	9	41	42	43	56
85	4	1	38	39	63
86	9	2	3	4	22
87	15	28	27	29	37
88	6	39	40	41	42
88	7	39	40	41	42
88	8	39	40	41	42
89	4	26	2	1	38
90	15	34	35	65	67
91	21	67	68	70	72
92	9	6	7	8	13
93	17	65	67	68	69
94	25	72	73	75	76
95	16	62	40	39	63
96	9	43	44	45	52
97	16	11	9	8	13
98	18	30	29	37	34
99	9	3	4	5	20
100	16	50	46	45	52
101	19	32	34	35	36
101	20	32	34	35	36
102	4	11	9	10	27
103	18	29	37	34	32
104	16	57	42	41	59
105	22	45	46	47	48
105	23	45	46	47	48
106	21	29	30	32	34
107	9	39	40	41	59
108	16	62	40	39	64
109	9	8	7	6	17
110	9	42	43	44	54
111	1	1	2	3	4
112	6	5	6	7	8
112	7	5	6	7	8
112	8	5	6	7	8
113	18	27	29	37	34
114	17	33	32	34	37
115	16	58	42	41	60
116	6	41	42	43	44
116	7	41	42	43	44
116	8	41	42	43	44
117	16	18	6	5	19
118	16	56	43	42	58
119	9	40	41	42	58
120	15	66	65	67	77
121	16	57	42	41	60
122	15	35	65	67	77
123	6	4	5	6	7
123	7	4	5	6	7
123	8	4	5	6	7
124	17	30	32	34	35
125	16	19	5	4	21
126	16	53	44	43	55
127	19	28	27	29	30
127	20	28	27	29	30
128	15	75	73	72	77
129	6	6	7	8	9
129	7	6	7	8	9
129	8	6	7	8	9
130	16	51	45	44	54
131	9	8	7	6	18
132	16	15	7	6	18
133	16	13	8	7	15
134	9	7	8	9	12
135	9	43	42	41	60
136	16	21	4	3	23
137	2	1	2	3	23
137	3	1	2	3	23
138	9	6	5	4	22
139	4	25	2	1	38
140	15	32	34	35	65
141	17	68	70	72	73
142	18	68	67	77	72
143	16	19	5	4	22
144	18	67	77	72	70
145	15	36	35	65	66
146	9	44	43	42	57
147	15	74	73	72	77
148	16	16	7	6	18
149	21	69	68	70	72
150	9	44	45	46	49
151	4	1	38	39	64
152	17	71	70	72	73
153	15	37	34	35	65
154	16	21	4	3	24
155	9	6	7	8	14
156	17	65	67	68	70
157	2	1	2	3	24
157	3	1	2	3	24
158	17	69	68	67	77
159	9	4	5	6	17
160	16	11	9	8	14
161	4	12	9	10	27
162	18	65	67	77	72
163	16	61	40	39	63
164	15	36	35	65	67
165	17	33	32	34	35
166	4	1	38	39	40
167	16	52	45	44	53
168	16	17	6	5	19
169	9	44	45	46	50
170	16	20	5	4	21
171	9	41	40	39	63
172	26	74	73	75	76
172	27	74	73	75	76
173	9	39	40	41	60
174	9	5	6	7	15
175	15	36	35	34	37
176	9	5	4	3	23
177	15	35	65	67	68
178	2	38	39	40	61
178	3	38	39	40	61
179	6	40	41	42	43
179	7	40	41	42	43
179	8	40	41	42	43
180	15	10	27	29	37
181	16	18	6	5	20
182	19	70	72	73	74
182	20	70	72	73	74
183	1	38	39	40	41
184	12	9	10	27	28
184	13	9	10	27	28
185	16	59	41	40	61
186	2	47	46	45	51
186	3	47	46	45	51
187	16	17	6	5	20
188	16	52	45	44	54
189	16	20	5	4	22
190	16	24	3	2	25
191	16	53	44	43	56
192	1	7	8	9	10
193	16	55	43	42	57
194	9	45	44	43	55
195	16	23	3	2	25

Impropers

2	2	30	31	32	29
46	2	34	32	35	37
57	2	29	30	37	27
64	2	70	71	72	68
143	2	65	35	66	67
158	2	68	69	70	67
160	2	68	67	69	70
162	2	29	37	27	30
165	2	67	77	65	68
175	2	30	29	31	32
177	2	34	35	37	32
183	2	32	34	30	33
191	2	32	30	33	34
193	2	67	65	68	77
197	2	65	66	67	35
268	1	27	29	10	28
280	2	29	27	30	37
284	2	72	77	70	73
313	2	35	65	34	36
318	1	73	75	72	74
320	2	32	33	34	30
342	2	67	68	77	65
346	2	72	73	77	70
356	2	70	68	71	72
378	2	35	34	36	65
390	2	65	67	35	66
391	1	27	28	29	10
400	1	73	74	75	72
404	1	27	10	28	29
410	2	30	32	29	31
411	2	35	36	65	34
418	2	68	70	67	69
424	2	34	37	32	35
430	2	72	70	73	77
433	1	73	72	74	75
438	2	70	72	68	71
