Title

248 atoms
247 bonds
480 angles
876 dihedrals
18 impropers

11 atom types
14 bond types
9 angle types
35 dihedral types
3 improper types
-25.00300026 74.99699974 xlo xhi
-29.44199944 70.55800056 ylo yhi
-25.79599953 74.20400047 zlo zhi
0.0 0.0 0.0 xy xz yz

Masses

1	12.01078
2	15.99943
3	14.00672
4	12.01078
5	1.007947
6	1.007947
7	1.007947
8	15.99943
9	12.01078
10	15.99943
11	1.007947


Pair Coeffs

1	0.086879315	3.4806469
2	0.2102061	3.0398122
3	0.16769152	3.206876
4	0.10884061	3.3795318
5	0.014090815	1.1034277
6	0.016409246	2.5832257
7	0.015779483	2.6445434
8	0.16846514	3.0251065
9	0.21	3.3996695
10	0.20947353	2.99716
11	1.2326e-05	0.53453923

Bond Coeffs

1 harmonic	582.698766451	1.225198386222
2 harmonic	492.76746816345	1.381897776683
3 harmonic	279.1350963404	1.454628925034
4 harmonic	352.0565580496	1.450098586273
5 harmonic	505.144496193	1.019481865027
6 harmonic	264.62148576755	1.52190126495
7 harmonic	370.04670688625	1.093899492634
8 harmonic	301.15400723785	1.345741232799
9 harmonic	366.7408841747	1.425895053732
10 harmonic	300.03137914615	1.451203938761
11 harmonic	366.34047229585	1.464762957261
12 harmonic	602.81384337	1.196112346392
13 harmonic	329.96998057905	1.427343958716
14 harmonic	543.5267831885	0.9716763312559


Angle Coeffs

1 harmonic	55.42182150775	117.3465570514
2 harmonic	63.44422595415	115.5071327674
3 harmonic	57.8982893754	126.8062420451
4 harmonic	53.20531626545	116.5475862634
5 harmonic	65.09061609600001	110.3538806181
6 harmonic	201.41175231035	127.4691416191
7 harmonic	48.776492647595	115.6030999533
8 harmonic	55.07882548015	112.8714009681
9 harmonic	33.56981613361	180


Dihedral Coeffs

1 fourier 1	-0.1488678166443	4	180
2 fourier 1	-0.1230328948768	3	180
3 fourier 1	0.2939295466901	2	0
4 fourier 1	-0.3024127022865	1	0
5 fourier 1	0.182238503271	2	0
6 fourier 1	0.02972342374561	3	0
7 fourier 1	1.809047390003	2	180
8 fourier 1	-0.04816277792592	1	0
9 fourier 1	3.101948770557	2	180
10 fourier 1	-0.4252153282372	1	0
11 fourier 1	2.348375642009	2	180
12 fourier 1	1.256156174911	1	0
13 fourier 1	0.9974165607242	2	180
14 fourier 1	0.1155372516788	3	0
15 fourier 1	0.09223874044423	3	0
16 fourier 1	0.3159935921949	2	180
17 fourier 1	0.3247796806857	1	180
18 fourier 1	0.1040663847541	3	0
19 fourier 1	2.779853741805	2	180
20 fourier 1	0.1918272375143	3	0
21 fourier 1	0.9202179876409	1	180
22 fourier 1	0.0473758381877	3	0
23 fourier 1	0.4860993122944	2	180
24 fourier 1	0.8916986138746	1	0
25 fourier 1	1.163809172478	2	180
26 fourier 1	0.1679186987369	1	180
27 fourier 1	0.1911926717192	3	0
28 fourier 1	0.1115525666802	3	0
29 fourier 1	0.3432490222662	1	0
30 fourier 1	0.457973137376	1	0
31 fourier 1	-1.382973039546	1	0
32 fourier 1	0	1	0
33 fourier 1	0.3445382149273	3	0
34 fourier 1	0.1364556373303	1	0
35 fourier 1	0.3026390167484	3	0


Improper Coeffs

1 0.3333333333333333	-1	2
2 0.3666666666666667	-1	2
3 3.5	-1	2


Atoms

1	1	1	0.53823298	-8.1960001	-0.090000004	-0.329
2	1	2	-0.717112	-7.2550001	0.616	-0.77899998
3	1	3	-0.528081	-8.0039997	-1.48	-0.048
4	1	4	0.027585	-6.7259998	-2.1570001	-0.255
5	1	4	-0.148533	-5.7309999	-1.7690001	0.847
6	1	4	-0.143787	-4.4219999	-2.575	0.78200001
7	1	4	-0.143382	-3.6140001	-2.404	-0.52100003
8	1	4	-0.14213701	-3.256	-0.95099998	-0.88099998
9	1	4	-0.14213701	-2.381	-0.271	0.183
10	1	4	-0.14213701	-1.929	1.117	-0.28400001
11	1	4	-0.14213701	-1.059	1.798	0.778
12	1	4	-0.14213701	-0.60000002	3.187	0.308
13	1	4	-0.14213701	0.37400001	3.8529999	1.301
14	1	4	-0.14213701	1.862	3.697	0.92699999
15	1	4	-0.14213701	2.4330001	2.289	1.186
16	1	4	-0.14213701	2.4949999	1.437	-0.094999999
17	1	4	-0.14213701	2.7869999	-0.046999998	0.191
18	1	4	-0.143382	4.1399999	-0.31999999	0.87699997
19	1	4	-0.143787	5.3759999	0.191	0.111
20	1	4	-0.14726099	5.5180001	-0.34599999	-1.326
21	1	4	0.021648999	5.619	-1.877	-1.414
22	1	3	-0.47263801	6.7210002	-2.388	-0.59899998
23	1	1	0.78048301	8.0939999	-2.247	-0.97399998
24	1	2	-0.63683498	8.4160004	-1.675	-2.049
25	1	5	0.31939399	6.4970002	-2.927	0.26800001
26	1	6	0.047035001	4.6659999	-2.3369999	-1.079
27	1	6	0.047035001	5.7680001	-2.1800001	-2.473
28	1	7	0.080994003	6.4299998	0.101	-1.776
29	1	7	0.080994003	4.664	-0.0020000001	-1.946
30	1	7	0.079994	5.3559999	1.301	0.075999998
31	1	7	0.079994	6.2839999	-0.081	0.69
32	1	7	0.079255	4.1360002	0.14	1.888
33	1	7	0.079255	4.2379999	-1.413	1.043
34	1	7	0.079255	2.733	-0.61400002	-0.76200002
35	1	7	0.079255	1.978	-0.45100001	0.838
36	1	7	0.079255	3.257	1.854	-0.78600001
37	1	7	0.079255	1.526	1.487	-0.63
38	1	7	0.079255	3.4690001	2.404	1.572
39	1	7	0.079255	1.852	1.77	1.979
40	1	7	0.079255	2.0320001	4.0149999	-0.125
41	1	7	0.079255	2.431	4.414	1.5599999
42	1	7	0.079255	0.153	4.9439998	1.306
43	1	7	0.079255	0.19599999	3.497	2.339
44	1	7	0.079255	-0.146	3.131	-0.70499998
45	1	7	0.079255	-1.503	3.8299999	0.21699999
46	1	7	0.079255	-1.643	1.908	1.7180001
47	1	7	0.079255	-0.183	1.154	0.99199998
48	1	7	0.079255	-1.345	1.016	-1.226
49	1	7	0.079255	-2.823	1.747	-0.48800001
50	1	7	0.079255	-1.487	-0.90200001	0.382
51	1	7	0.079255	-2.957	-0.161	1.126
52	1	7	0.079255	-2.6989999	-0.97100002	-1.8430001
53	1	7	0.079255	-4.1789999	-0.35699999	-1.053
54	1	7	0.079255	-2.674	-2.9909999	-0.42899999
55	1	7	0.079255	-4.1799998	-2.8510001	-1.365
56	1	7	0.079994	-4.6599998	-3.654	0.90600002
57	1	7	0.079994	-3.786	-2.2939999	1.649
58	1	7	0.080994003	-6.2049999	-1.966	1.8329999
59	1	7	0.080994003	-5.5139999	-0.68199998	0.80699998
60	1	6	0.043568999	-6.8909998	-3.256	-0.228
61	1	6	0.043568999	-6.3280001	-1.893	-1.258
62	1	5	0.31280601	-8.8280001	-2.0420001	0.26199999
63	1	8	-0.503196	8.8369999	-2.6259999	-0.35699999
64	1	4	0.11108	9.5950003	-3.5109999	-1.136
65	1	4	-0.141341	10.539	-2.7290001	-2.0569999
66	1	4	-0.142303	11.318	-3.6389999	-3.0190001
67	1	4	-0.14346699	12.37	-4.4980001	-2.2969999
68	1	4	-0.14213701	13.321	-5.2179999	-3.267
69	1	4	-0.14213701	12.627	-6.3039999	-4.118
70	1	4	-0.14213701	12.358	-5.8299999	-5.5580001
71	1	4	-0.14213701	11.476	-6.8070002	-6.3520002
72	1	4	-0.14213701	12.215	-8.1040001	-6.7210002
73	1	4	-0.14213701	11.327	-9.0950003	-7.4910002
74	1	4	-0.14213701	11.044	-8.6429996	-8.9350004
75	1	4	-0.14213701	10.26	-9.6969995	-9.7349997
76	1	4	-0.14213701	11.165	-10.818	-10.274
77	1	4	-0.14213701	10.373	-11.95	-10.949
78	1	4	-0.14213701	9.6680002	-11.52	-12.254
79	1	4	-0.14213701	8.1520004	-11.332	-12.061
80	1	4	-0.143417	7.4460001	-10.891	-13.361
81	1	4	-0.141036	6.6859999	-12.026	-14.068
82	1	4	-0.14734501	7.6160002	-13.114	-14.621
83	1	4	0.032637998	6.8410001	-14.117	-15.48
84	1	8	-0.181196	7.6960001	-15.132	-15.93
85	1	6	0.077031001	6.0349998	-14.58	-14.872
86	1	6	0.077031001	6.368	-13.601	-16.347
87	1	7	0.085750997	8.0880003	-13.665	-13.78
88	1	7	0.085750997	8.4139996	-12.647	-15.239
89	1	7	0.081141002	5.9520001	-12.48	-13.365
90	1	7	0.081141002	6.1110001	-11.579	-14.909
91	1	7	0.079255	6.6999998	-10.108	-13.1
92	1	7	0.079255	8.1610003	-10.417	-14.069
93	1	7	0.079255	7.9840002	-10.552	-11.288
94	1	7	0.079255	7.7020001	-12.271	-11.671
95	1	7	0.079255	9.8380003	-12.304	-13.021
96	1	7	0.079255	10.117	-10.583	-12.652
97	1	7	0.079255	11.097	-12.757	-11.196
98	1	7	0.079255	9.6529999	-12.389	-10.224
99	1	7	0.079255	11.743	-11.266	-9.4390001
100	1	7	0.079255	11.897	-10.394	-10.995
101	1	7	0.079255	9.7849998	-9.1809998	-10.596
102	1	7	0.079255	9.4490004	-10.125	-9.1059999
103	1	7	0.079255	10.432	-7.717	-8.908
104	1	7	0.079255	11.996	-8.4029999	-9.4569998
105	1	7	0.079255	10.368	-9.2410002	-6.9460001
106	1	7	0.079255	11.853	-10.072	-7.506
107	1	7	0.079255	12.548	-8.6120005	-5.7919998
108	1	7	0.079255	13.122	-7.869	-7.3200002
109	1	7	0.079255	10.558	-7.0409999	-5.77
110	1	7	0.079255	11.162	-6.289	-7.2820001
111	1	7	0.079255	11.841	-4.849	-5.533
112	1	7	0.079255	13.324	-5.6789999	-6.0879998
113	1	7	0.079255	11.679	-6.632	-3.638
114	1	7	0.079255	13.296	-7.1900001	-4.1570001
115	1	7	0.079255	13.844	-4.4749999	-3.908
116	1	7	0.079255	14.107	-5.7090001	-2.6530001
117	1	7	0.079255	12.984	-3.8429999	-1.6390001
118	1	7	0.079255	11.871	-5.2509999	-1.651
119	1	7	0.080968998	10.603	-4.2919998	-3.5650001
120	1	7	0.080968998	11.83	-2.9920001	-3.7639999
121	1	7	0.084755003	9.934	-2.02	-2.665
122	1	7	0.084755003	11.246	-2.1259999	-1.446
123	1	6	0.077258997	8.9230003	-4.1690001	-1.734
124	1	6	0.077258997	10.185	-4.1539998	-0.44999999
125	1	1	0.53823298	-9.165	0.36199999	-0.16
126	1	2	-0.717112	-9.2309999	1.516	0.34
127	1	3	-0.528081	-10.352	-0.36300001	-0.49700001
128	1	4	0.027585	-11.696	0.18099999	-0.301
129	1	4	-0.148533	-12.021	1.2690001	-1.3380001
130	1	4	-0.143787	-11.868	0.80599999	-2.7969999
131	1	4	-0.143382	-12.88	-0.28200001	-3.187
132	1	4	-0.14213701	-12.798	-0.59200001	-4.6890001
133	1	4	-0.14213701	-13.678	-1.784	-5.0970001
134	1	4	-0.14213701	-15.179	-1.467	-5.0209999
135	1	4	-0.14213701	-16.011999	-2.625	-5.5890002
136	1	4	-0.14213701	-17.525999	-2.4300001	-5.3860002
137	1	4	-0.14213701	-18.121	-1.1799999	-6.066
138	1	4	-0.14213701	-17.872999	-1.082	-7.5819998
139	1	4	-0.14213701	-18.469	-2.263	-8.3610001
140	1	4	-0.14213701	-18.365	-2.0320001	-9.8739996
141	1	4	-0.14213701	-18.754	-3.2720001	-10.698
142	1	4	-0.143198	-20.240999	-3.6619999	-10.567
143	1	4	-0.139393	-20.448	-4.8499999	-9.6149998
144	1	4	-0.124847	-21.937	-5.1830001	-9.4650002
145	1	4	0.18108299	-22.143999	-6.3720002	-8.5179996
146	1	3	-0.68184799	-23.563999	-6.6490002	-8.3299999
147	1	9	0.59100997	-24.294001	-7.0999999	-9.2700005
148	1	2	-0.51455998	-25.003	-7.539	-10.184
149	1	6	0.023778999	-21.632999	-7.277	-8.9160004
150	1	6	0.023778999	-21.701	-6.132	-7.5279999
151	1	7	0.074676	-22.361	-5.428	-10.463
152	1	7	0.074676	-22.476	-4.2979999	-9.059
153	1	7	0.078726999	-19.914	-5.7379999	-10.019
154	1	7	0.078726999	-20.024	-4.6170001	-8.6160002
155	1	7	0.079255	-20.847	-2.7920001	-10.23
156	1	7	0.079255	-20.620001	-3.9530001	-11.571
157	1	7	0.079255	-18.087999	-4.1240001	-10.436
158	1	7	0.079255	-18.551001	-3.0339999	-11.766
159	1	7	0.079255	-17.315001	-1.7690001	-10.129
160	1	7	0.079255	-19.007	-1.173	-10.168
161	1	7	0.079255	-19.537001	-2.378	-8.0780001
162	1	7	0.079255	-17.921	-3.194	-8.099
163	1	7	0.079255	-16.785	-0.99800003	-7.7880001
164	1	7	0.079255	-18.344999	-0.141	-7.9400001
165	1	7	0.079255	-17.716999	-0.26800001	-5.5770001
166	1	7	0.079255	-19.216999	-1.173	-5.8829999
167	1	7	0.079255	-18.055	-3.335	-5.7519999
168	1	7	0.079255	-17.733999	-2.3670001	-4.2950001
169	1	7	0.079255	-15.721	-3.5639999	-5.0700002
170	1	7	0.079255	-15.785	-2.7679999	-6.6669998
171	1	7	0.079255	-15.382	-0.54299998	-5.6040001
172	1	7	0.079255	-15.472	-1.296	-3.964
173	1	7	0.079255	-13.444	-2.6619999	-4.4549999
174	1	7	0.079255	-13.421	-2.0550001	-6.145
175	1	7	0.079255	-11.746	-0.83999997	-4.947
176	1	7	0.079255	-13.086	0.30700001	-5.2779999
177	1	7	0.079255	-13.903	0.068999998	-2.9330001
178	1	7	0.079255	-12.666	-1.21	-2.615
179	1	7	0.079994	-10.833	0.44	-2.973
180	1	7	0.079994	-12.022	1.691	-3.4519999
181	1	7	0.080994003	-13.061	1.626	-1.171
182	1	7	0.080994003	-11.35	2.138	-1.1720001
183	1	6	0.043568999	-12.442	-0.639	-0.37
184	1	6	0.043568999	-11.779	0.60799998	0.722
185	1	5	0.31280601	-10.252	-1.341	-0.84899998
186	1	8	-0.181196	8.243	-14.74	-16.66
187	1	4	0.032637998	7.6329999	-15.113	-17.865
188	1	4	-0.14734501	6.3899999	-14.25	-18.118
189	1	4	-0.141036	5.6110001	-14.684	-19.368999
190	1	4	-0.143417	6.3670001	-14.376	-20.672001
191	1	4	-0.14213701	5.4980001	-14.57	-21.926001
192	1	4	-0.14213701	5.1069999	-16.041	-22.184
193	1	4	-0.14213701	3.655	-16.337	-21.77
194	1	4	-0.14213701	3.3180001	-17.837	-21.811001
195	1	4	-0.14213701	3.2130001	-18.379999	-23.247
196	1	4	-0.14213701	2.904	-19.885	-23.291
197	1	4	-0.14213701	1.456	-20.207001	-22.881001
198	1	4	-0.14213701	1.119	-21.698999	-23.047001
199	1	4	-0.14213701	0.778	-22.065001	-24.500999
200	1	4	-0.14213701	0.58200002	-23.577	-24.704
201	1	4	-0.14213701	-0.66100001	-24.143	-23.983999
202	1	4	-0.14213701	-0.28799999	-24.929001	-22.714001
203	1	4	-0.143417	-1.53	-25.487	-21.985001
204	1	4	-0.136952	-1.7589999	-26.99	-22.216
205	1	4	-0.169268	-2.1270001	-27.322001	-23.669001
206	1	4	0.0858	-2.536	-28.791	-23.812
207	1	10	-0.68563497	-2.8139999	-29.087999	-25.153
208	1	11	0.37645099	-3.7019999	-28.691999	-25.353001
209	1	6	0.067156002	-1.702	-29.441999	-23.473
210	1	6	0.067156002	-3.425	-29.01	-23.177999
211	1	7	0.088104002	-1.252	-27.136	-24.327
212	1	7	0.088104002	-2.971	-26.677	-23.999001
213	1	7	0.081141002	-0.85000002	-27.558001	-21.919001
214	1	7	0.081141002	-2.589	-27.313999	-21.549999
215	1	7	0.079255	-1.383	-25.34	-20.892
216	1	7	0.079255	-2.447	-24.919001	-22.254999
217	1	7	0.079255	0.252	-24.250999	-22.018999
218	1	7	0.079255	0.41499999	-25.750999	-22.971001
219	1	7	0.079255	-1.194	-24.820999	-24.683001
220	1	7	0.079255	-1.3710001	-23.327	-23.728001
221	1	7	0.079255	0.45899999	-23.75	-25.796
222	1	7	0.079255	1.507	-24.118999	-24.406
223	1	7	0.079255	1.601	-21.742001	-25.171
224	1	7	0.079255	-0.141	-21.525	-24.819
225	1	7	0.079255	0.235	-21.917	-22.410999
226	1	7	0.079255	1.964	-22.322001	-22.68
227	1	7	0.079255	1.319	-19.948999	-21.809999
228	1	7	0.079255	0.74199998	-19.591	-23.469999
229	1	7	0.079255	3.6140001	-20.434	-22.632999
230	1	7	0.079255	3.079	-20.231001	-24.330999
231	1	7	0.079255	4.1820002	-18.226	-23.766001
232	1	7	0.079255	2.4360001	-17.82	-23.809999
233	1	7	0.079255	4.0809999	-18.409	-21.24
234	1	7	0.079255	2.3429999	-17.972	-21.299
235	1	7	0.079255	3.4860001	-15.981	-20.733
236	1	7	0.079255	2.9560001	-15.777	-22.429001
237	1	7	0.079255	5.8049998	-16.729	-21.659
238	1	7	0.079255	5.2119999	-16.238001	-23.271999
239	1	7	0.079255	4.599	-13.916	-21.870001
240	1	7	0.079255	6.0910001	-14.21	-22.795
241	1	7	0.079255	6.7080002	-13.317	-20.652
242	1	7	0.079255	7.2690001	-15.019	-20.752001
243	1	7	0.081141002	5.3909998	-15.771	-19.304001
244	1	7	0.081141002	4.6420002	-14.137	-19.375
245	1	7	0.085750997	5.7129998	-14.338	-17.24
246	1	7	0.085750997	6.6880002	-13.182	-18.205999
247	1	6	0.077031001	7.3579998	-16.193001	-17.84
248	1	6	0.077031001	8.3669996	-14.964	-18.684

Bonds

1	1	1	2
2	2	1	3
3	3	1	125
4	4	3	4
5	5	3	62
6	6	4	5
7	7	4	60
8	7	4	61
9	6	5	6
10	7	5	58
11	7	5	59
12	6	6	7
13	7	6	56
14	7	6	57
15	6	7	8
16	7	7	54
17	7	7	55
18	6	8	9
19	7	8	52
20	7	8	53
21	6	9	10
22	7	9	50
23	7	9	51
24	6	10	11
25	7	10	48
26	7	10	49
27	6	11	12
28	7	11	46
29	7	11	47
30	6	12	13
31	7	12	44
32	7	12	45
33	6	13	14
34	7	13	42
35	7	13	43
36	6	14	15
37	7	14	40
38	7	14	41
39	6	15	16
40	7	15	38
41	7	15	39
42	6	16	17
43	7	16	36
44	7	16	37
45	6	17	18
46	7	17	34
47	7	17	35
48	6	18	19
49	7	18	32
50	7	18	33
51	6	19	20
52	7	19	30
53	7	19	31
54	6	20	21
55	7	20	28
56	7	20	29
57	4	21	22
58	7	21	26
59	7	21	27
60	2	22	23
61	5	22	25
62	1	23	24
63	8	23	63
64	9	63	64
65	6	64	65
66	7	64	123
67	7	64	124
68	6	65	66
69	7	65	121
70	7	65	122
71	6	66	67
72	7	66	119
73	7	66	120
74	6	67	68
75	7	67	117
76	7	67	118
77	6	68	69
78	7	68	115
79	7	68	116
80	6	69	70
81	7	69	113
82	7	69	114
83	6	70	71
84	7	70	111
85	7	70	112
86	6	71	72
87	7	71	109
88	7	71	110
89	6	72	73
90	7	72	107
91	7	72	108
92	6	73	74
93	7	73	105
94	7	73	106
95	6	74	75
96	7	74	103
97	7	74	104
98	6	75	76
99	7	75	101
100	7	75	102
101	6	76	77
102	7	76	99
103	7	76	100
104	6	77	78
105	7	77	97
106	7	77	98
107	6	78	79
108	7	78	95
109	7	78	96
110	6	79	80
111	7	79	93
112	7	79	94
113	6	80	81
114	7	80	91
115	7	80	92
116	6	81	82
117	7	81	89
118	7	81	90
119	6	82	83
120	7	82	87
121	7	82	88
122	9	83	84
123	7	83	85
124	7	83	86
125	10	84	186
126	1	125	126
127	2	125	127
128	4	127	128
129	5	127	185
130	6	128	129
131	7	128	183
132	7	128	184
133	6	129	130
134	7	129	181
135	7	129	182
136	6	130	131
137	7	130	179
138	7	130	180
139	6	131	132
140	7	131	177
141	7	131	178
142	6	132	133
143	7	132	175
144	7	132	176
145	6	133	134
146	7	133	173
147	7	133	174
148	6	134	135
149	7	134	171
150	7	134	172
151	6	135	136
152	7	135	169
153	7	135	170
154	6	136	137
155	7	136	167
156	7	136	168
157	6	137	138
158	7	137	165
159	7	137	166
160	6	138	139
161	7	138	163
162	7	138	164
163	6	139	140
164	7	139	161
165	7	139	162
166	6	140	141
167	7	140	159
168	7	140	160
169	6	141	142
170	7	141	157
171	7	141	158
172	6	142	143
173	7	142	155
174	7	142	156
175	6	143	144
176	7	143	153
177	7	143	154
178	6	144	145
179	7	144	151
180	7	144	152
181	11	145	146
182	7	145	149
183	7	145	150
184	12	146	147
185	1	147	148
186	9	186	187
187	6	187	188
188	7	187	247
189	7	187	248
190	6	188	189
191	7	188	245
192	7	188	246
193	6	189	190
194	7	189	243
195	7	189	244
196	6	190	191
197	7	190	241
198	7	190	242
199	6	191	192
200	7	191	239
201	7	191	240
202	6	192	193
203	7	192	237
204	7	192	238
205	6	193	194
206	7	193	235
207	7	193	236
208	6	194	195
209	7	194	233
210	7	194	234
211	6	195	196
212	7	195	231
213	7	195	232
214	6	196	197
215	7	196	229
216	7	196	230
217	6	197	198
218	7	197	227
219	7	197	228
220	6	198	199
221	7	198	225
222	7	198	226
223	6	199	200
224	7	199	223
225	7	199	224
226	6	200	201
227	7	200	221
228	7	200	222
229	6	201	202
230	7	201	219
231	7	201	220
232	6	202	203
233	7	202	217
234	7	202	218
235	6	203	204
236	7	203	215
237	7	203	216
238	6	204	205
239	7	204	213
240	7	204	214
241	6	205	206
242	7	205	211
243	7	205	212
244	13	206	207
245	7	206	209
246	7	206	210
247	14	207	208

Angles

1	4	190	189	243
2	4	81	82	83
3	4	16	17	18
4	4	11	10	48
5	4	68	67	117
6	4	133	132	176
7	4	11	12	45
8	4	68	69	113
9	4	191	190	241
10	4	20	19	31
11	4	186	187	247
12	4	75	74	103
13	7	107	72	108
14	4	129	128	184
15	4	77	76	99
16	4	146	145	150
17	4	80	79	93
18	4	69	68	115
19	4	134	133	174
20	7	211	205	212
21	4	82	81	89
22	4	192	193	235
23	4	129	130	180
24	4	19	20	28
25	4	137	136	168
26	7	157	141	158
27	4	192	191	239
28	4	9	10	48
29	4	187	188	245
30	4	142	141	158
31	4	76	75	101
32	7	111	70	112
33	4	137	138	164
34	4	71	72	107
35	4	73	74	103
36	7	215	203	216
37	4	14	15	38
38	4	83	82	87
39	4	76	77	97
40	7	101	75	102
41	4	135	136	137
42	4	14	13	42
43	4	65	64	123
44	4	63	64	65
45	4	189	190	191
46	5	83	84	186
47	4	143	142	156
48	7	241	190	242
49	4	138	139	162
50	4	5	4	60
51	4	72	73	105
52	4	15	16	36
53	7	149	145	150
54	4	72	73	74
55	4	199	198	226
56	4	19	20	21
57	4	204	203	215
58	7	239	191	240
59	4	67	66	119
60	4	199	200	221
61	2	128	127	185
62	4	204	205	211
63	4	199	200	201
64	7	229	196	230
65	1	1	3	4
66	4	10	11	46
67	4	71	70	111
68	4	20	21	26
69	4	6	7	8
70	4	192	193	194
71	4	84	83	86
72	4	7	8	53
73	4	82	83	84
74	4	79	80	81
75	4	136	135	170
76	4	19	18	33
77	4	143	144	152
78	7	121	65	122
79	7	231	195	232
80	4	72	71	109
81	4	15	14	40
82	4	142	143	153
83	4	191	192	193
84	3	22	23	24
85	7	50	9	51
86	2	125	127	185
87	4	70	71	110
88	4	22	21	26
89	7	235	193	236
90	4	64	65	122
91	4	202	203	204
92	4	205	206	207
93	4	10	11	12
94	4	202	201	219
95	4	133	132	175
96	2	4	3	62
97	4	11	12	44
98	4	71	72	73
99	4	128	129	181
100	4	188	187	248
101	7	58	5	59
102	4	129	130	131
103	4	132	133	134
104	4	63	64	124
105	4	129	128	183
106	7	173	133	174
107	7	34	17	35
108	4	79	78	96
109	4	134	133	173
110	4	143	144	145
111	4	141	140	160
112	4	129	130	179
113	4	189	188	246
114	4	13	14	15
115	2	21	22	25
116	4	194	193	236
117	4	140	139	161
118	4	135	136	167
119	7	177	131	178
120	4	140	141	157
121	4	5	6	7
122	4	6	7	54
123	4	136	137	165
124	7	161	139	162
125	7	243	189	244
126	4	203	202	217
127	7	26	21	27
128	4	197	196	229
129	4	199	198	225
130	4	21	20	29
131	4	145	144	151
132	7	245	188	246
133	4	12	13	43
134	4	193	192	237
135	3	126	125	127
136	4	135	134	171
137	4	17	18	33
138	7	91	80	92
139	7	54	7	55
140	4	188	189	243
141	4	198	197	227
142	4	193	194	233
143	4	84	83	85
144	4	79	80	91
145	4	66	65	121
146	4	141	142	155
147	4	136	135	169
148	4	19	18	32
149	4	133	134	135
150	4	136	137	138
151	4	143	144	151
152	4	189	190	241
153	4	139	140	160
154	4	194	195	231
155	4	3	4	5
156	4	65	66	120
157	4	144	145	150
158	4	67	68	69
159	4	16	15	38
160	4	14	15	16
161	7	56	6	57
162	4	16	17	34
163	7	38	15	39
164	4	188	187	247
165	9	146	147	148
166	4	66	67	68
167	4	195	196	197
168	4	63	64	123
169	7	213	204	214
170	7	28	20	29
171	4	79	78	95
172	7	42	13	43
173	4	141	140	159
174	7	36	16	37
175	4	189	188	245
176	4	135	134	172
177	4	75	76	77
178	4	139	138	164
179	4	194	193	235
180	4	73	72	107
181	4	130	131	178
182	4	144	143	154
183	4	200	201	220
184	4	78	77	97
185	4	205	206	210
186	4	5	6	57
187	4	7	8	9
188	4	17	18	19
189	4	20	21	22
190	4	74	73	105
191	4	131	132	176
192	4	201	202	218
193	7	151	144	152
194	4	74	75	101
195	4	203	204	205
196	7	105	73	106
197	7	209	206	210
198	4	134	135	170
199	4	70	69	114
200	4	8	7	55
201	4	18	19	31
202	4	8	9	51
203	4	11	12	13
204	4	205	204	214
205	4	127	128	129
206	7	233	194	234
207	4	201	200	222
208	4	138	137	166
209	4	195	194	234
210	4	139	140	159
211	4	65	66	119
212	4	190	191	240
213	4	144	145	149
214	4	195	196	230
215	4	10	9	51
216	4	196	195	232
217	4	137	138	139
218	4	140	141	142
219	4	191	192	238
220	7	225	198	226
221	7	89	81	90
222	7	181	129	182
223	4	20	19	30
224	4	80	81	90
225	7	175	132	176
226	4	7	6	57
227	4	146	145	149
228	7	32	18	33
229	7	219	201	220
230	4	137	136	167
231	4	200	199	224
232	7	165	137	166
233	4	142	141	157
234	4	200	201	219
235	4	137	138	163
236	4	134	135	136
237	4	11	10	49
238	4	204	205	206
239	4	205	206	209
240	4	5	6	56
241	4	70	71	72
242	4	66	67	118
243	4	133	134	171
244	4	196	197	228
245	4	143	142	155
246	7	163	138	164
247	4	201	202	217
248	4	15	16	17
249	7	85	83	86
250	4	138	139	161
251	4	75	74	104
252	4	80	79	94
253	4	75	76	100
254	4	192	193	236
255	4	134	135	169
256	4	144	145	146
257	4	64	65	66
258	4	193	194	195
259	4	9	10	49
260	4	81	82	88
261	4	76	75	102
262	4	18	19	30
263	7	247	187	248
264	4	71	72	108
265	4	14	15	39
266	4	76	77	98
267	4	73	74	75
268	4	76	77	78
269	3	3	1	125
270	4	7	8	52
271	4	72	73	106
272	4	206	205	212
273	4	15	16	37
274	3	22	23	63
275	4	3	4	61
276	7	95	78	96
277	4	138	137	165
278	5	84	186	187
279	7	123	64	124
280	4	67	68	116
281	4	69	70	112
282	4	196	197	198
283	4	195	196	229
284	4	10	9	50
285	4	67	66	120
286	4	6	5	59
287	4	70	71	109
288	4	4	5	6
289	4	133	134	172
290	4	64	65	121
291	7	46	11	47
292	4	81	80	92
293	7	40	14	41
294	4	10	11	47
295	4	12	11	47
296	4	17	16	37
297	7	115	68	116
298	4	80	81	89
299	7	30	19	31
300	7	223	199	224
301	4	7	6	56
302	4	13	12	45
303	4	130	129	182
304	5	206	207	208
305	4	18	17	35
306	4	200	199	223
307	4	13	14	41
308	4	207	206	210
309	7	217	202	218
310	4	22	21	27
311	4	202	203	216
312	4	4	5	59
313	4	197	198	199
314	4	131	130	180
315	4	202	201	220
316	4	128	129	182
317	4	66	67	117
318	4	196	197	227
319	7	153	143	154
320	4	203	204	214
321	4	77	78	79
322	4	80	81	82
323	4	130	131	132
324	4	197	198	226
325	4	132	131	178
326	4	138	139	140
327	4	187	188	189
328	4	127	128	184
329	4	75	76	99
330	3	1	125	127
331	4	132	133	174
332	4	140	139	162
333	7	155	142	156
334	4	81	82	87
335	4	135	136	168
336	4	21	20	28
337	4	198	199	224
338	4	18	19	20
339	7	109	71	110
340	4	12	13	42
341	4	140	141	158
342	4	200	201	202
343	7	103	74	104
344	4	17	18	32
345	7	117	67	118
346	7	99	76	100
347	4	6	7	55
348	4	136	137	166
349	4	206	205	211
350	4	3	4	60
351	4	141	142	143
352	4	203	202	218
353	4	197	196	230
354	4	67	68	115
355	4	69	70	111
356	4	6	5	58
357	7	237	192	238
358	2	1	3	62
359	4	145	144	152
360	7	119	66	120
361	4	8	9	10
362	4	193	192	238
363	4	69	70	71
364	4	81	80	91
365	4	188	189	244
366	7	227	197	228
367	4	198	197	228
368	4	186	187	188
369	4	12	11	46
370	4	193	194	234
371	4	194	195	196
372	7	171	134	172
373	4	17	16	36
374	4	77	78	96
375	4	79	80	92
376	4	66	65	122
377	4	82	83	86
378	4	141	142	156
379	4	189	190	242
380	4	9	8	53
381	7	221	200	222
382	4	13	12	44
383	4	68	69	70
384	1	125	127	128
385	4	74	75	76
386	4	130	129	181
387	4	194	195	232
388	4	18	17	34
389	4	78	79	94
390	1	21	22	23
391	4	139	140	141
392	4	13	14	40
393	4	139	138	163
394	4	142	143	144
395	4	188	189	190
396	4	130	131	177
397	7	179	130	180
398	4	16	15	39
399	4	190	189	244
400	4	207	206	209
401	4	144	143	153
402	4	202	203	215
403	3	2	1	3
404	4	4	5	58
405	4	16	17	35
406	4	131	130	179
407	4	68	67	118
408	2	23	22	25
409	4	131	132	175
410	4	68	69	114
411	7	87	82	88
412	7	52	8	53
413	4	191	190	242
414	4	186	187	248
415	4	203	204	213
416	4	77	76	100
417	7	159	140	160
418	4	197	198	225
419	4	132	131	177
420	4	69	68	116
421	4	82	81	90
422	4	127	128	183
423	3	1	125	126
424	4	19	20	29
425	4	132	133	173
426	4	70	69	113
427	4	8	7	54
428	4	192	191	240
429	7	167	136	168
430	8	145	146	147
431	4	65	66	67
432	4	73	72	108
433	7	60	4	61
434	4	187	188	246
435	4	9	10	11
436	4	78	77	98
437	4	8	9	50
438	4	12	13	14
439	4	198	199	223
440	3	2	1	125
441	4	73	74	104
442	7	93	79	94
443	4	83	82	88
444	4	14	13	43
445	4	65	64	124
446	4	205	204	213
447	4	74	73	106
448	7	48	10	49
449	4	190	191	192
450	4	5	4	61
451	4	198	199	200
452	4	74	75	102
453	7	97	77	98
454	4	201	200	221
455	7	169	135	170
456	4	195	194	233
457	4	190	191	239
458	4	204	203	216
459	4	78	79	80
460	4	199	200	222
461	4	128	129	130
462	4	131	132	133
463	4	204	205	212
464	4	196	195	231
465	4	71	70	112
466	4	191	192	237
467	4	20	21	27
468	5	23	63	64
469	4	77	78	95
470	7	113	69	114
471	4	82	83	85
472	7	183	128	184
473	4	201	202	203
474	7	44	12	45
475	4	9	8	52
476	4	72	71	110
477	4	15	14	41
478	4	142	143	154
479	6	24	23	63
480	4	78	79	93

Dihedrals

1	18	15	14	13	43
2	27	243	189	188	245
3	18	196	197	198	225
4	5	183	128	127	185
4	6	183	128	127	185
5	18	81	82	83	85
6	27	171	134	133	174
7	27	45	12	11	46
8	15	200	201	202	203
8	16	200	201	202	203
8	17	200	201	202	203
9	27	151	144	143	154
10	18	21	20	19	30
11	18	72	71	70	111
12	27	214	204	203	216
13	18	69	68	67	117
14	18	133	134	135	170
15	18	134	133	132	175
16	18	76	77	78	95
17	27	232	195	194	234
18	18	137	138	139	162
19	18	73	74	75	101
20	18	198	199	200	221
21	27	226	198	197	228
22	18	16	15	14	40
23	15	198	199	200	201
23	16	198	199	200	201
23	17	198	199	200	201
24	18	75	74	73	106
25	18	194	193	192	238
26	18	132	131	130	179
27	14	146	145	144	152
28	27	120	66	65	121
29	27	56	6	5	59
30	27	92	80	79	93
31	18	199	200	201	219
32	27	31	19	18	33
33	18	83	82	81	90
34	18	12	11	10	49
35	13	3	1	125	126
36	27	166	137	136	168
37	27	113	69	68	116
38	27	42	13	12	45
39	27	165	137	136	168
40	27	168	136	135	169
41	13	2	1	125	126
42	27	50	9	8	53
43	27	54	7	6	57
44	27	159	140	139	162
45	18	64	65	66	119
46	5	125	127	128	184
46	6	125	127	128	184
47	18	129	130	131	177
48	27	172	134	133	174
49	15	187	188	189	190
49	16	187	188	189	190
49	17	187	188	189	190
50	27	116	68	67	117
51	27	238	192	191	239
52	27	48	10	9	51
53	27	41	14	13	43
54	27	44	12	11	46
55	18	193	192	191	240
56	15	5	6	7	8
56	16	5	6	7	8
56	17	5	6	7	8
57	27	105	73	72	107
58	15	17	18	19	20
58	16	17	18	19	20
58	17	17	18	19	20
59	27	212	205	204	213
60	18	17	16	15	39
61	18	69	70	71	110
62	18	74	75	76	100
63	14	127	128	129	181
64	27	224	199	198	226
65	15	15	16	17	18
65	16	15	16	17	18
65	17	15	16	17	18
66	15	138	139	140	141
66	16	138	139	140	141
66	17	138	139	140	141
67	15	13	14	15	16
67	16	13	14	15	16
67	17	13	14	15	16
68	18	202	201	200	221
69	27	242	190	189	243
70	18	135	136	137	166
71	27	97	77	76	99
72	18	203	202	201	219
73	18	67	68	69	113
74	27	223	199	198	225
75	27	91	80	79	93
76	15	71	72	73	74
76	16	71	72	73	74
76	17	71	72	73	74
77	18	10	11	12	44
78	27	33	18	17	34
79	18	201	202	203	215
80	27	30	19	18	33
81	27	32	18	17	34
82	18	204	205	206	210
83	18	143	144	145	149
84	27	163	138	137	165
85	20	23	63	64	65
85	21	23	63	64	65
86	15	133	134	135	136
86	16	133	134	135	136
86	17	133	134	135	136
87	27	209	206	205	212
88	15	131	132	133	134
88	16	131	132	133	134
88	17	131	132	133	134
89	18	145	144	143	154
90	18	139	138	137	165
91	18	14	13	12	44
92	27	90	81	80	91
93	18	192	191	190	241
94	15	189	190	191	192
94	16	189	190	191	192
94	17	189	190	191	192
95	27	237	192	191	239
96	27	217	202	201	219
97	18	7	8	9	51
98	18	66	67	68	115
99	18	70	69	68	116
100	18	131	132	133	173
101	22	84	186	187	188
102	27	112	70	69	114
103	27	211	205	204	213
104	27	107	72	71	110
105	18	16	17	18	33
106	14	81	82	83	84
107	27	171	134	133	173
108	18	189	190	191	239
109	18	13	12	11	46
110	18	195	194	193	236
111	27	151	144	143	153
112	27	40	14	13	43
113	9	126	125	127	128
113	10	126	125	127	128
114	27	214	204	203	215
115	27	101	75	74	104
116	27	215	203	202	218
117	18	4	5	6	57
118	27	53	8	7	55
119	27	226	198	197	227
120	18	9	8	7	55
121	27	178	131	130	180
122	27	93	79	78	96
123	18	5	6	7	54
124	18	19	18	17	35
125	18	75	74	73	105
126	18	194	193	192	237
127	18	14	15	16	36
128	7	25	22	23	63
128	8	25	22	23	63
129	27	56	6	5	58
130	18	187	188	189	243
131	18	68	69	70	111
132	27	118	67	66	119
133	27	117	67	66	120
134	18	140	139	138	163
135	27	31	19	18	32
136	18	83	82	81	89
137	27	177	131	130	179
138	27	166	137	136	167
139	18	202	203	204	213
140	18	6	7	8	53
141	27	219	201	200	221
142	15	68	69	70	71
142	16	68	69	70	71
142	17	68	69	70	71
143	18	77	78	79	94
144	27	50	9	8	52
145	27	54	7	6	56
146	18	132	133	134	172
147	27	121	65	64	124
148	27	174	133	132	176
149	18	190	191	192	238
150	27	159	140	139	161
151	15	11	12	13	14
151	16	11	12	13	14
151	17	11	12	13	14
152	22	84	186	187	248
153	5	125	127	128	183
153	6	125	127	128	183
154	27	239	191	190	242
155	18	142	143	144	152
156	18	193	194	195	231
157	27	85	83	82	88
158	27	41	14	13	42
159	14	19	20	21	22
160	27	233	194	193	236
161	18	10	9	8	52
162	18	11	10	9	51
163	27	213	204	203	216
164	18	17	18	19	30
165	18	17	16	15	38
166	18	69	70	71	109
167	18	74	75	76	99
168	15	12	13	14	15
168	16	12	13	14	15
168	17	12	13	14	15
169	27	224	199	198	225
170	18	200	199	198	226
171	18	76	75	74	104
172	22	82	83	84	186
173	27	106	73	72	108
174	18	135	136	137	165
175	18	15	16	17	35
176	27	52	8	7	55
177	15	129	130	131	132
177	16	129	130	131	132
177	17	129	130	131	132
178	5	1	3	4	60
178	6	1	3	4	60
179	18	73	72	71	110
180	27	111	70	69	113
181	18	144	143	142	156
182	18	80	79	78	96
183	5	25	22	21	27
183	6	25	22	21	27
184	15	16	17	18	19
184	16	16	17	18	19
184	17	16	17	18	19
185	18	77	76	75	102
186	5	23	22	21	27
186	6	23	22	21	27
187	27	30	19	18	32
188	18	204	205	206	209
189	27	179	130	129	182
190	15	142	143	144	145
190	16	142	143	144	145
190	17	142	143	144	145
191	15	140	141	142	143
191	16	140	141	142	143
191	17	140	141	142	143
192	27	114	69	68	116
193	18	6	5	4	61
194	27	173	133	132	176
195	18	20	19	18	32
196	27	28	20	19	31
197	27	26	21	20	28
198	27	176	132	131	178
199	18	138	137	136	168
200	27	58	5	4	61
201	18	7	8	9	50
202	18	18	17	16	37
203	18	71	72	73	106
204	27	181	129	128	184
205	27	241	190	189	244