Title

10000 atoms
10375 bonds
17750 angles
26875 dihedrals
9750 impropers

9 atom types
13 bond types
6 angle types
13 dihedral types
2 improper types
-9.231380397 99.54001018 xlo xhi
-9.57439654 100.4105677 ylo yhi
-9.856168164 100.1890589 zlo zhi
0.0 0.0 0.0 xy xz yz

Masses

1	15.99943
2	12.01078
3	1.007947
4	12.01078
5	1.007947
6	15.99943
7	15.99943
8	1.007947
9	35.4532


Pair Coeffs

1	0.16846514	3.0251065
2	0.086879315	3.4806469
3	0.015611343	2.5725815
4	0.10884061	3.3795318
5	0.015779483	2.6445434
6	0.2102061	3.0398122
7	0.20947353	2.99716
8	1.2326e-05	0.53453923
9	0.2656001	3.3075278

Bond Coeffs

1 harmonic	425.69104206635	1.362945806494
2 harmonic	300.03137914615	1.451203938761
3 harmonic	360.7852444772	1.387193227181
4 harmonic	397.2545789619	1.085358495916
5 harmonic	289.73813263395	1.498646816465
6 harmonic	264.62148576755	1.52190126495
7 harmonic	301.15400723785	1.345741232799
8 harmonic	370.04670688625	1.093899492634
9 harmonic	582.698766451	1.225198386222
10 harmonic	279.1350963404	1.454628925034
11 harmonic	385.7604595587	1.369745182308
12 harmonic	543.5267831885	0.9716763312559
13 harmonic	218.0227703685	1.746066037062


Angle Coeffs

1 harmonic	57.8982893754	126.8062420451
2 harmonic	65.09061609600001	110.3538806181
3 harmonic	34.066775159195	129.1835929926
4 harmonic	53.20531626545	116.5475862634
5 harmonic	201.41175231035	127.4691416191
6 harmonic	48.776492647595	115.6030999533


Dihedral Coeffs

1 fourier 1	3.661930099076	2	180
2 fourier 1	1.532232714475	2	180
3 fourier 1	0.457973137376	1	0
4 fourier 1	0.02664938770063	3	0
5 fourier 1	0.1155372516788	3	0
6 fourier 1	0.09223874044423	3	0
7 fourier 1	0.3159935921949	2	180
8 fourier 1	0.3247796806857	1	180
9 fourier 1	0.1040663847541	3	0
10 fourier 1	2.779853741805	2	180
11 fourier 1	0.9974165607242	2	180
12 fourier 1	0.1911926717192	3	0
13 fourier 1	0.8283030590042	2	180


Improper Coeffs

1 0.3666666666666667	-1	2
2 3.5	-1	2


Atoms

1	4	1	-0.02470256	1.498875	-2.23854	1.8844097
2	4	2	0.27575648	1.9133829	-1.7384778	0.65258989
3	4	2	-0.3215909	2.9007759	-0.83888177	0.59952213
4	4	3	0.22515386	3.3786339	-0.49863625	1.508853
5	4	2	-0.14951718	3.3475971	-0.30259618	-0.70172902
6	4	3	0.20946072	4.1545198	0.42082355	-0.70626404
7	4	2	-0.26359719	2.7677298	-0.69738042	-1.8571425
8	4	4	0.022404	3.2802908	-0.13059206	-3.1973791
9	4	2	-0.26359716	3.2044276	1.4112114	-3.1377659
10	4	2	-0.15210424	4.1700821	2.2210203	-3.6342767
11	4	3	0.20946072	5.0731322	1.8344611	-4.0792332
12	4	2	-0.2735348	4.024915	3.6910288	-3.5876419
13	4	3	0.22518322	4.8240781	4.313713	-3.9711085
14	4	2	0.43725309	2.9160943	4.2472117	-3.0817732
15	4	1	-0.44163987	2.7684216	5.6320508	-3.0314094
16	4	2	-0.27353474	1.8346588	3.3833955	-2.5734321
17	4	3	0.22518326	0.93018164	3.8294364	-2.1814557
18	4	2	-0.15210429	1.9633959	2.0522461	-2.6060236
19	4	3	0.20946072	1.1478431	1.4410064	-2.2419581
20	4	4	-0.13307172	2.4000191	-0.55023053	-4.4006727
21	4	5	0.084337391	1.3490555	-0.21871466	-4.2578483
22	4	5	0.084337391	2.3963716	-1.648119	-4.5555617
23	4	5	0.084337391	2.7774918	-0.08368519	-5.3370758
24	4	4	-0.13464262	4.7419205	-0.64966968	-3.4363435
25	4	4	-0.12862399	4.9271187	-2.174668	-3.2802799
26	4	4	-0.12202232	6.3757512	-2.5774944	-3.5376217
27	4	5	0.067575589	7.0520039	-2.0738223	-2.8141194
28	4	5	0.067575589	6.483506	-3.6765359	-3.4171161
29	4	5	0.067575589	6.675769	-2.3041724	-4.5718486
30	4	5	0.089479983	4.6582035	-2.4956888	-2.2512924
31	4	5	0.089479983	4.2828082	-2.7221802	-3.9975584
32	4	5	0.10631069	5.4300585	-0.1481605	-2.721271
33	4	5	0.10631069	5.070125	-0.3760262	-4.4630601
34	4	2	-0.14951719	1.6693815	-1.7096848	-1.7786831
35	4	3	0.20946071	1.1729312	-2.0728233	-2.6661224
36	4	2	-0.32159084	1.2705953	-2.1945196	-0.59693278
37	4	3	0.22515392	0.47336037	-2.92631	-0.55583167
38	5	2	0.6277625	3.5131493	6.2797703	-3.3838112
39	5	6	-0.49985024	3.6731543	6.4306316	-4.5834279
40	1	1	-0.02470256	0.75357081	-2.9211931	1.9488717
41	1	2	0.27575648	-0.510582	-2.5665745	2.4120125
42	1	2	-0.3215909	-1.4743653	-3.4890458	2.4859683
43	1	3	0.22515386	-1.2757859	-4.5109357	2.1882699
44	1	2	-0.14951718	-2.8181218	-3.1226657	2.9768024
45	1	3	0.20946072	-3.5725579	-3.8975911	3.0292885
46	1	2	-0.26359719	-3.1050444	-1.8542451	3.3483798
47	1	4	0.022404	-4.5136079	-1.5183442	3.8785594
48	1	2	-0.26359716	-5.550314	-1.9386152	2.813952
49	1	2	-0.10935336	-6.7271936	-2.536627	3.1188148
50	1	3	0.20946072	-7.0018971	-2.7828444	4.1329041
51	1	2	-0.41308644	-7.7009282	-2.8802771	2.0610529
52	1	3	0.23035736	-8.6222808	-3.3787597	2.3334985
53	1	2	0.42944381	-7.4466263	-2.5742497	0.78197208
54	1	7	-0.64993685	-8.3570285	-2.893484	-0.22479117
55	1	8	0.43446696	-9.2313804	-3.3650981	-0.023105904
56	1	2	-0.41308638	-6.1915795	-1.8870705	0.43264509
57	1	3	0.23035736	-5.9922847	-1.6219305	-0.59842879
58	1	2	-0.10935339	-5.302325	-1.5805399	1.3839071
59	1	3	0.20946072	-4.3951319	-1.0608717	1.102314
60	1	4	-0.13307172	-4.7258944	0.00076348331	4.0959051
61	1	5	0.084337391	-4.5619963	0.56313508	3.1510022
62	1	5	0.084337391	-4.0421399	0.41396108	4.8642303
63	1	5	0.084337391	-5.7655969	0.20224913	4.4319815
64	1	4	-0.13464262	-4.7258776	-2.2568397	5.2464866
65	1	4	-0.12862399	-3.5963507	-2.0572754	6.2794886
66	1	4	-0.12202232	-3.8997379	-2.8076962	7.5731369
67	1	5	0.067575589	-3.9948603	-3.8974509	7.3741435
68	1	5	0.067575589	-3.0723366	-2.6514097	8.2972098
69	1	5	0.067575589	-4.8427749	-2.434168	8.0253216
70	1	5	0.089479983	-2.6323234	-2.4363851	5.8788525
71	1	5	0.089479983	-3.4753424	-0.98223252	6.5234985
72	1	5	0.10631069	-4.8293507	-3.3493278	5.0609762
73	1	5	0.10631069	-5.6734946	-1.9074519	5.7148968
74	1	2	-0.14951719	-2.011631	-0.83755165	3.2657512
75	1	3	0.20946071	-2.1737439	0.18962764	3.557515
76	1	2	-0.32159084	-0.79541099	-1.1761429	2.8229714
77	1	3	0.22515392	-0.014449399	-0.42851402	2.767437
78	2	2	0.46710739	4.1420399	6.8163057	-2.6814234
79	2	6	-0.57663816	3.9255035	6.7343935	-1.4843005
80	2	9	-0.085207641	5.4697683	7.8011435	-3.2663385
81	4	1	-0.02470256	0.40625006	3.0427168	18.966917
82	4	2	0.27575648	0.64951425	1.8335393	18.32041
83	4	2	-0.3215909	-0.21375086	1.3856809	17.403224
84	4	3	0.22515386	-1.0993403	1.9586287	17.161438
85	4	2	-0.14951718	0.035213116	0.10473606	16.712063
86	4	3	0.20946072	-0.68351027	-0.22373908	15.970428
87	4	2	-0.26359719	1.1256933	-0.64217086	16.995019
88	4	4	0.022404	1.3610893	-1.9628787	16.233099
89	4	2	-0.26359716	0.11757133	-2.861223	16.415054
90	4	2	-0.15210424	-0.41286824	-3.6049103	15.414872
91	4	3	0.20946072	-0.012999665	-3.5920269	14.413446
92	4	2	-0.2735348	-1.5792273	-4.4796531	15.656955
93	4	3	0.22518322	-1.996481	-5.0448487	14.832397
94	4	2	0.43725309	-2.1113623	-4.5765772	16.882583
95	4	1	-0.44163987	-3.2118839	-5.3971394	17.122694
96	4	2	-0.27353474	-1.5237812	-3.8071805	17.99473
97	4	3	0.22518326	-1.9397805	-3.8977907	18.989421
98	4	2	-0.15210429	-0.47270069	-3.0079033	17.780301
99	4	3	0.20946072	-0.050252648	-2.4671377	18.617196
100	4	4	-0.13307172	2.5540607	-2.7744553	16.796173
101	4	5	0.084337391	2.4004466	-3.0113301	17.870938
102	4	5	0.084337391	3.5154242	-2.2309036	16.697711
103	4	5	0.084337391	2.6590449	-3.7372396	16.249341
104	4	4	-0.13464262	1.644176	-1.6298595	14.725828
105	4	4	-0.12862399	2.7290541	-0.55746468	14.486489
106	4	4	-0.12202232	2.9330003	-0.31111081	12.994931
107	4	5	0.067575589	1.9894701	0.045208156	12.528834
108	4	5	0.067575589	3.7148919	0.46441994	12.849251
109	4	5	0.067575589	3.2622314	-1.244281	12.489816
110	4	5	0.089479983	2.4350053	0.4048832	14.957241
111	4	5	0.089479983	3.6978926	-0.87785138	14.920193
112	4	5	0.10631069	0.70508431	-1.2771584	14.246158
113	4	5	0.10631069	1.9636316	-2.5533806	14.194976
114	4	2	-0.14951719	2.0838921	-0.12173355	18.018877
115	4	3	0.20946071	2.97832	-0.66628305	18.282212
116	4	2	-0.32159084	1.8547655	1.0412261	18.639888
117	4	3	0.22515392	2.55711	1.404765	19.379713
118	5	2	0.6277625	-3.6570817	-5.9608402	16.35955
119	5	6	-0.49985024	-3.1090222	-6.9689757	15.94635
120	1	1	-0.02470256	1.0465513	3.4020707	19.664432
121	1	2	0.27575648	0.72751597	3.3719999	21.019293
122	1	2	-0.3215909	1.5924672	3.8533949	21.916745
123	1	3	0.22515386	2.5395314	4.2675199	21.59443
124	1	2	-0.14951718	1.2625784	3.8266839	23.355944
125	1	3	0.20946072	1.9846871	4.2312953	24.054003
126	1	2	-0.26359719	0.093236889	3.3085773	23.79582
127	1	4	0.022404	-0.22348234	3.322028	25.304952
128	1	2	-0.26359716	0.918035	2.597417	26.051044
129	1	2	-0.10935336	1.4304971	3.0330026	27.227161
130	1	3	0.20946072	1.0868387	3.9375407	27.704835
131	1	2	-0.41308644	2.4957502	2.2761736	27.918219
132	1	3	0.23035736	2.9013618	2.6619972	28.844621
133	1	2	0.42944381	2.9496678	1.1250519	27.405142
134	1	7	-0.64993685	3.9543399	0.4022612	28.047421
135	1	8	0.43446696	4.3711554	0.72301156	28.914008
136	1	2	-0.41308638	2.3780218	0.61161007	26.148565
137	1	3	0.23035736	2.730338	-0.32829744	25.741652
138	1	2	-0.10935339	1.4195401	1.295672	25.513738
139	1	3	0.20946072	1.005032	0.88785666	24.600382
140	1	4	-0.13307172	-1.5156838	2.541746	25.653332
141	1	5	0.084337391	-1.442683	1.484201	25.318316
142	1	5	0.084337391	-2.4148757	2.9890414	25.184336
143	1	5	0.084337391	-1.6805143	2.5365568	26.752117
144	1	4	-0.13464262	-0.39373127	4.810701	25.770276
145	1	4	-0.12862399	-1.3588319	5.6573708	24.913258
146	1	4	-0.12202232	-1.4597962	7.082302	25.449987
147	1	5	0.067575589	-0.4625226	7.5735302	25.431223
148	1	5	0.067575589	-2.1558098	7.6708425	24.81557
149	1	5	0.067575589	-1.8462138	7.0773515	26.491126
150	1	5	0.089479983	-1.0017778	5.7090144	23.862816
151	1	5	0.089479983	-2.3753286	5.213943	24.915941
152	1	5	0.10631069	0.59940434	5.3129675	25.762468
153	1	5	0.10631069	-0.76959278	4.832439	26.817995
154	1	2	-0.14951719	-0.86511754	2.781522	22.776106
155	1	3	0.20946071	-1.8196005	2.3646733	23.061945
156	1	2	-0.32159084	-0.561853	2.8110806	21.473399
157	1	3	0.22515392	-1.2653955	2.4243548	20.747173
158	2	2	0.46710739	-4.605742	-5.6476283	15.936864
159	2	6	-0.57663816	-5.1966913	-4.6911789	16.408758
160	2	9	-0.085207641	-5.2898739	-6.5156816	14.575489
161	4	1	-0.02470256	-2.9439309	-0.1861071	38.836336
162	4	2	0.27575648	-1.7017336	-0.51883123	38.302014
163	4	2	-0.3215909	-1.3498836	-1.8036041	38.18979
164	4	3	0.22515386	-2.0259247	-2.5848037	38.511805
165	4	2	-0.14951718	-0.034949886	-2.1667677	37.624487
166	4	3	0.20946072	0.21354598	-3.2185266	37.543654
167	4	2	-0.26359719	0.83883746	-1.2178413	37.220611
168	4	4	0.022404	2.1928131	-1.6401509	36.613481
169	4	2	-0.26359716	2.9225376	-2.5477689	37.628468
170	4	2	-0.15210424	3.6115617	-3.6574024	37.269635
171	4	3	0.20946072	3.6683286	-3.9942467	36.246782
172	4	2	-0.2735348	4.3265407	-4.4656118	38.279474
173	4	3	0.22518322	4.8496106	-5.3610371	37.966336
174	4	2	0.43725309	4.3321272	-4.0928559	39.566233
175	4	1	-0.44163987	5.0017639	-4.8475312	40.527573
176	4	2	-0.27353474	3.6227538	-2.865623	39.972165
177	4	3	0.22518326	3.6411513	-2.5520284	41.007538
178	4	2	-0.15210429	2.9674707	-2.1339631	39.063941
179	4	3	0.20946072	2.4690564	-1.2287468	39.385578
180	4	4	-0.13307172	3.1384796	-0.43885906	36.365484
181	4	5	0.084337391	3.3337222	0.11361093	37.309668
182	4	5	0.084337391	2.7232481	0.27702345	35.62761
183	4	5	0.084337391	4.1169016	-0.79197041	35.971779
184	4	4	-0.13464262	1.9267708	-2.3633141	35.246308
185	4	4	-0.12862399	1.0053823	-1.5985709	34.27138
186	4	4	-0.12202232	0.81495277	-2.3793617	32.974795
187	4	5	0.067575589	0.35061206	-3.3671681	33.182365
188	4	5	0.067575589	0.14777318	-1.8107628	32.292452
189	4	5	0.067575589	1.7916751	-2.5322679	32.467868
190	4	5	0.089479983	0.0048326895	-1.438415	34.726831
191	4	5	0.089479983	1.4379071	-0.60919931	34.019466
192	4	5	0.10631069	1.4668361	-3.3567569	35.441001
193	4	5	0.10631069	2.8931667	-2.5393636	34.724933
194	4	2	-0.14951719	0.4250503	0.21393748	37.347397
195	4	3	0.20946071	1.0736444	1.0181275	37.033573
196	4	2	-0.32159084	-0.76903835	0.53712867	37.857621
197	4	3	0.22515392	-1.0543525	1.5782367	37.944108
198	5	2	0.6277625	5.5186523	-5.7247104	40.279118
199	5	6	-0.49985024	6.5957602	-5.6582516	39.710908
200	1	1	-0.02470256	-3.2321723	0.78020544	38.930176
201	1	2	0.27575648	-3.2682751	1.4040151	40.17432
202	1	2	-0.3215909	-3.6528	2.6802703	40.267133
203	1	3	0.22515386	-3.9372842	3.2305436	39.37911
204	1	2	-0.14951718	-3.6951958	3.3502214	41.582505
205	1	3	0.20946072	-4.0179512	4.3830931	41.620491
206	1	2	-0.26359719	-3.3380002	2.6971179	42.711731
207	1	4	0.022404	-3.4198683	3.4254152	44.068511
208	1	2	-0.26359716	-2.5704148	4.7123723	43.985166
209	1	2	-0.10935336	-2.9594674	5.8949187	44.519794
210	1	3	0.20946072	-3.9091093	6.016774	45.017583
211	1	2	-0.41308644	-2.0867051	7.0856831	44.44576
212	1	3	0.23035736	-2.4352744	8.0222867	44.861543
213	1	2	0.42944381	-0.8778614	7.0040913	43.874437
214	1	7	-0.64993685	-0.045626959	8.1202857	43.798209
215	1	8	0.43446696	-0.32711564	9.0214853	44.16725
216	1	2	-0.41308638	-0.4175942	5.7181571	43.323153
217	1	3	0.23035736	0.56689462	5.6452937	42.877503
218	1	2	-0.10935339	-1.2056989	4.6386421	43.379477
219	1	3	0.20946072	-0.83669332	3.7017542	42.981451
220	1	4	-0.13307172	-2.8165335	2.5975793	45.230693
221	1	5	0.084337391	-1.7521697	2.3479441	45.028758
222	1	5	0.084337391	-3.3654189	1.6494694	45.399182
223	1	5	0.084337391	-2.852937	3.1766921	46.178231
224	1	4	-0.13464262	-4.9265854	3.721363	44.390811
225	1	4	-0.12862399	-5.8726218	2.5080852	44.265424
226	1	4	-0.12202232	-7.3086735	2.8972219	44.604584
227	1	5	0.067575589	-7.6689541	3.6871547	43.910022
228	1	5	0.067575589	-7.9687507	2.0098508	44.503734
229	1	5	0.067575589	-7.3723469	3.2704817	45.648583
230	1	5	0.089479983	-5.8588068	2.1104618	43.228464
231	1	5	0.089479983	-5.5618839	1.6972615	44.955285
232	1	5	0.10631069	-5.2985438	4.5161155	43.706219
233	1	5	0.10631069	-5.0155111	4.1091684	45.430599
234	1	2	-0.14951719	-2.9177473	1.2673154	42.588855
235	1	3	0.20946071	-2.6308182	0.68774565	43.453884
236	1	2	-0.32159084	-2.8841171	0.66491394	41.394757
237	1	3	0.22515392	-2.576215	-0.37035872	41.321676
238	2	2	0.46710739	5.0955964	-6.6922459	40.527353
239	2	6	-0.57663816	4.0632033	-6.7581352	41.17274
240	2	9	-0.085207641	5.8952415	-8.1614328	40.001091
241	4	1	-0.02470256	-2.2779904	2.2136085	61.280162
242	4	2	0.27575648	-2.2126512	0.869672	61.639083
243	4	2	-0.3215909	-1.8079946	0.52933794	62.86687
244	4	3	0.22515386	-1.5317925	1.2932032	63.581866
245	4	2	-0.14951718	-1.735324	-0.89294098	63.257187
246	4	3	0.20946072	-1.4083067	-1.1307198	64.262673
247	4	2	-0.26359719	-2.0634373	-1.874408	62.387621
248	4	4	0.022404	-1.9965449	-3.347005	62.842798
249	4	2	-0.26359716	-0.56921006	-3.6355359	63.358484
250	4	2	-0.15210424	-0.31527909	-4.3835679	64.458833
251	4	3	0.20946072	-1.1029626	-4.8026338	65.064517
252	4	2	-0.2735348	1.0729082	-4.6624309	64.882324
253	4	3	0.22518322	1.2452111	-5.2440132	65.77983
254	4	2	0.43725309	2.1062167	-4.2057862	64.162272
255	4	1	-0.44163987	3.4194818	-4.4613371	64.552338
256	4	2	-0.27353474	1.8521215	-3.4241854	62.938087
257	4	3	0.22518326	2.6844625	-3.0699896	62.344428
258	4	2	-0.15210429	0.5978611	-3.1620883	62.553731
259	4	3	0.20946072	0.43896131	-2.6005614	61.642291
260	4	4	-0.13307172	-2.2353703	-4.3439514	61.681785
261	4	5	0.084337391	-1.4916395	-4.1928694	60.87008
262	4	5	0.084337391	-3.2486364	-4.2426912	61.243149
263	4	5	0.084337391	-2.1329434	-5.3905984	62.043779
264	4	4	-0.13464262	-3.0902198	-3.5829634	63.9433
265	4	4	-0.12862399	-4.5078986	-3.098303	63.569716
266	4	4	-0.12202232	-5.4951013	-3.3775867	64.698637
267	4	5	0.067575589	-5.1842534	-2.8480223	65.624592
268	4	5	0.067575589	-6.5050908	-3.0183459	64.407274
269	4	5	0.067575589	-5.5528071	-4.4683864	64.901533
270	4	5	0.089479983	-4.5064522	-2.0042888	63.376543
271	4	5	0.089479983	-4.869838	-3.6144887	62.657605
272	4	5	0.10631069	-2.7875655	-3.0620796	64.877888
273	4	5	0.10631069	-3.1575759	-4.6689239	64.173298
274	4	2	-0.14951719	-2.5205668	-1.4743295	61.02078
275	4	3	0.20946071	-2.8060353	-2.2101621	60.283936
276	4	2	-0.32159084	-2.5873844	-0.18375848	60.673518
277	4	3	0.22515392	-2.919315	0.090583591	59.679864
278	5	2	0.6277625	3.6415776	-5.0139399	65.41469
279	5	6	-0.49985024	3.500399	-6.2253467	65.416489
280	1	1	-0.02470256	-2.5823582	2.4949969	60.356133
281	1	2	0.27575648	-1.6757639	2.9693823	59.412003
282	1	2	-0.3215909	-2.1067257	3.3332216	58.200725
283	1	3	0.22515386	-3.1578625	3.2615818	57.951133
284	1	2	-0.14951718	-1.1528077	3.8384707	57.192956
285	1	3	0.20946072	-1.5386216	4.1301223	56.224181
286	1	2	-0.26359719	0.16845137	3.9327925	57.466201
287	1	4	0.022404	1.1278596	4.4886248	56.394494
288	1	2	-0.26359716	0.97563135	3.6394856	55.113648
289	1	2	-0.10935336	0.96261773	4.1709646	53.867468
290	1	3	0.20946072	1.0310001	5.2339036	53.694417
291	1	2	-0.41308644	0.85532048	3.3056381	52.673813
292	1	3	0.23035736	0.8238676	3.7614124	51.692547
293	1	2	0.42944381	0.80186125	1.9737334	52.806259
294	1	7	-0.64993685	0.7002411	1.1469539	51.688035
295	1	8	0.43446696	0.66159803	1.5240016	50.74786
296	1	2	-0.41308638	0.85590731	1.3721564	54.149602
297	1	3	0.23035736	0.83168293	0.29475949	54.258046
298	1	2	-0.10935339	0.94471335	2.1497939	55.234511
299	1	3	0.20946072	0.99925616	1.6814923	56.209225
300	1	4	-0.13307172	2.6173287	4.3697372	56.803566
301	1	5	0.084337391	2.8898255	3.3108902	57.004948
302	1	5	0.084337391	2.8517732	4.9628397	57.710121
303	1	5	0.084337391	3.2739194	4.7370428	55.985948
304	1	4	-0.13464262	0.79139044	6.0020987	56.153986
305	1	4	-0.12862399	0.70242789	6.86327	57.43196
306	1	4	-0.12202232	0.37849411	8.3150985	57.091429
307	1	5	0.067575589	-0.59870239	8.3794189	56.564967
308	1	5	0.067575589	0.31662257	8.9119749	58.025886
309	1	5	0.067575589	1.1717331	8.7475195	56.445598
310	1	5	0.089479983	-0.095077905	6.480354	58.103482
311	1	5	0.089479983	1.6640306	6.8437965	57.984085
312	1	5	0.10631069	-0.18253211	6.0808232	55.621136
313	1	5	0.10631069	1.5676325	6.4561638	55.497684
314	1	2	-0.14951719	0.63076138	3.5280815	58.829479
315	1	3	0.20946071	1.6710184	3.5896881	59.113334
316	1	2	-0.32159084	-0.23863975	3.0738085	59.73924
317	1	3	0.22515392	0.11148001	2.7832139	60.721536
318	2	2	0.46710739	3.9971707	-4.5083875	66.306145
319	2	6	-0.57663816	4.2225143	-3.3104176	66.278046
320	2	9	-0.085207641	4.2480108	-5.4126579	67.787451
321	4	1	-0.02470256	2.7991099	0.33221179	78.883865
322	4	2	0.27575648	1.5204632	0.091289203	78.387601
323	4	2	-0.3215909	0.83146877	1.0849275	77.81751
324	4	3	0.22515386	1.2631906	2.0741769	77.740051
325	4	2	-0.14951718	-0.52505577	0.83964874	77.288184
326	4	3	0.20946072	-1.0512133	1.6676448	76.827683
327	4	2	-0.26359719	-1.0998804	-0.38058733	77.375829
328	4	4	0.022404	-2.5096061	-0.60074264	76.788967
329	4	2	-0.26359716	-3.4734995	0.41895666	77.435179
330	4	2	-0.15210424	-4.4354632	1.0730196	76.741184
331	4	3	0.20946072	-4.5688533	0.9423251	75.679092
332	4	2	-0.2735348	-5.3578629	2.0070693	77.420082
333	4	3	0.22518322	-6.1021359	2.5338025	76.835229
334	4	2	0.43725309	-5.2780788	2.1965846	78.743882
335	4	1	-0.44163987	-6.1415627	3.0756588	79.39484
336	4	2	-0.27353474	-4.2649375	1.4633745	79.524932
337	4	3	0.22518326	-4.2103646	1.600302	80.596823
338	4	2	-0.15210429	-3.4222664	0.62225183	78.915004
339	4	3	0.20946072	-2.6991314	0.084028391	79.513899
340	4	4	-0.13307172	-3.0864425	-1.9983225	77.125003
341	4	5	0.084337391	-3.1352495	-2.153308	78.224287
342	4	5	0.084337391	-2.4811848	-2.818391	76.688525
343	4	5	0.084337391	-4.1188853	-2.0971478	76.723386
344	4	4	-0.13464262	-2.4339096	-0.44808449	75.22888
345	4	4	-0.12862399	-1.3253981	-1.277035	74.544543
346	4	4	-0.12202232	-1.3391397	-1.0646526	73.034002
347	4	5	0.067575589	-1.1661067	0.0058346779	72.791978
348	4	5	0.067575589	-0.53270681	-1.6684319	72.565876
349	4	5	0.067575589	-2.3135788	-1.3845838	72.606856
350	4	5	0.089479983	-0.32537888	-0.97811594	74.925061
351	4	5	0.089479983	-1.4668213	-2.3586207	74.743455
352	4	5	0.10631069	-2.2664881	0.62103904	74.973304
353	4	5	0.10631069	-3.4045708	-0.75085814	74.778446
354	4	2	-0.14951719	-0.31122693	-1.4816771	78.010583
355	4	3	0.20946071	-0.71036228	-2.4808013	78.101812
356	4	2	-0.32159084	0.91886348	-1.2544029	78.485823
357	4	3	0.22515392	1.477432	-2.0613365	78.943698
358	5	2	0.6277625	-6.8757456	3.6140049	78.875701
359	5	6	-0.49985024	-7.8857828	3.0509269	78.488133
360	1	1	-0.02470256	3.339896	-0.40528696	79.318945
361	1	2	0.27575648	3.529142	-0.44287127	80.697752
362	1	2	-0.3215909	4.2474793	-1.4284822	81.243521
363	1	3	0.22515386	4.6836025	-2.197001	80.617828
364	1	2	-0.14951718	4.4544817	-1.4762997	82.704924
365	1	3	0.20946072	5.047438	-2.2859544	83.111495
366	1	2	-0.26359719	3.9170656	-0.53884732	83.518344
367	1	4	0.022404	4.1774696	-0.61114395	85.036545
368	1	2	-0.26359716	3.714456	-1.9930233	85.547234
369	1	2	-0.10935336	4.4056228	-2.7171092	86.460247
370	1	3	0.20946072	5.3456312	-2.3805078	86.869571
371	1	2	-0.41308644	3.8937074	-4.0166796	86.944163
372	1	3	0.23035736	4.4801073	-4.5829067	87.656289
373	1	2	0.42944381	2.7164541	-4.4846428	86.508899
374	1	7	-0.64993685	2.2231015	-5.7091981	86.957655
375	1	8	0.43446696	2.7359099	-6.2803215	87.619799
376	1	2	-0.41308638	1.9286895	-3.6946517	85.547271
377	1	3	0.23035736	0.9679104	-4.0622139	85.208254
378	1	2	-0.10935339	2.3899226	-2.5216435	85.098997
379	1	3	0.20946072	1.7835582	-1.9532434	84.405028
380	1	4	-0.13307172	3.3550356	0.43011598	85.836153
381	1	5	0.084337391	2.2657757	0.29563788	85.658967
382	1	5	0.084337391	3.6207648	1.471617	85.565524
383	1	5	0.084337391	3.536241	0.31236962	86.926027
384	1	4	-0.13464262	5.7032055	-0.35562363	85.298267
385	1	4	-0.12862399	6.2820482	0.90213168	84.615813
386	1	4	-0.12202232	7.7651497	1.0644707	84.93637
387	1	5	0.067575589	8.337289	0.18271977	84.573901
388	1	5	0.067575589	8.1580104	1.9725374	84.432014
389	1	5	0.067575589	7.9148824	1.173456	86.031366
390	1	5	0.089479983	6.1734893	0.8301543	83.51281
391	1	5	0.089479983	5.7518862	1.8130275	84.960919
392	1	5	0.10631069	6.2877637	-1.2346031	84.945651
393	1	5	0.10631069	5.8812636	-0.25465273	86.392597
394	1	2	-0.14951719	3.1226846	0.56042613	82.88858
395	1	3	0.20946071	2.6764847	1.3447964	83.482021
396	1	2	-0.32159084	2.9410224	0.59999746	81.563694
397	1	3	0.22515392	2.362155	1.4014232	81.122601
398	2	2	0.46710739	-6.7373943	4.6724974	78.682894
399	2	6	-0.57663816	-5.7712197	5.254726	79.14573
400	2	9	-0.085207641	-7.9020669	5.546718	77.706077
401	4	1	-0.02470256	0.42598144	20.634745	3.2227931
402	4	2	0.27575648	1.3753341	20.243607	2.2820489
403	4	2	-0.3215909	2.2688099	21.130409	1.8322517
404	4	3	0.22515386	2.2572866	22.149426	2.1962149
405	4	2	-0.14951718	3.2795428	20.725525	0.83475799
406	4	3	0.20946072	3.9912825	21.469938	0.49747937
407	4	2	-0.26359719	3.3181887	19.464076	0.35067732
408	4	4	0.022404	4.4052659	19.075562	-0.67280798
409	4	2	-0.26359716	4.3090124	20.037318	-1.8778925
410	4	2	-0.15210424	5.3939998	20.553215	-2.5035557
411	4	3	0.20946072	6.4003273	20.345145	-2.1765599
412	4	2	-0.2735348	5.2429727	21.435818	-3.6793
413	4	3	0.22518322	6.1279008	21.852562	-4.1447795
414	4	2	0.43725309	4.0265	21.713412	-4.1670107
415	4	1	-0.44163987	3.8715622	22.545249	-5.2743343
416	4	2	-0.27353474	2.8340419	21.129099	-3.5261417
417	4	3	0.22518326	1.8515713	21.3365	-3.9291468
418	4	2	-0.15210429	2.9638347	20.335532	-2.4570298
419	4	3	0.20946072	2.0736868	19.906237	-2.015865
420	4	4	-0.13307172	4.2022934	17.653053	-1.2508731
421	4	5	0.084337391	3.2093064	17.562312	-1.7413514
422	4	5	0.084337391	4.2734754	16.868626	-0.47050715
423	4	5	0.084337391	4.9787965	17.432266	-2.0159203
424	4	4	-0.13464262	5.8054607	19.138086	0.03320364
425	4	4	-0.12862399	5.895506	18.377201	1.3738079
426	4	4	-0.12202232	7.2929001	18.493653	1.9744398
427	4	5	0.067575589	7.5440938	19.558722	2.1667638
428	4	5	0.067575589	7.3313494	17.94123	2.9374435
429	4	5	0.067575589	8.0478391	18.057096	1.2860891
430	4	5	0.089479983	5.1704638	18.792423	2.1059886
431	4	5	0.089479983	5.6695016	17.301437	1.2287291
432	4	5	0.10631069	6.0711188	20.200431	0.22613144
433	4	5	0.10631069	6.5816391	18.717497	-0.64310855
434	4	2	-0.14951719	2.3150944	18.483944	0.87070513
435	4	3	0.20946071	2.2998775	17.459053	0.53122562
436	4	2	-0.32159084	1.4033422	18.855624	1.7769012
437	4	3	0.22515392	0.68277085	18.135046	2.1434183
438	5	2	0.6277625	4.6938133	22.978544	-5.7585922
439	5	6	-0.49985024	5.4041637	22.299472	-6.4808833
440	1	1	-0.02470256	-0.26001858	19.980065	3.5783872
441	1	2	0.27575648	-1.5927486	20.045781	3.181086
442	1	2	-0.3215909	-2.4753478	19.168233	3.6671195
443	1	3	0.22515386	-2.1584375	18.407321	4.3691869
444	1	2	-0.14951718	-3.8912934	19.230563	3.2523337
445	1	3	0.20946072	-4.5795723	18.507371	3.6715041
446	1	2	-0.26359719	-4.3212222	20.161321	2.3702135
447	1	4	0.022404	-5.8128621	20.207894	1.9818678
448	1	2	-0.26359716	-6.2193626	18.82255	1.4338208
449	1	2	-0.10935336	-7.3993968	18.224951	1.7270778
450	1	3	0.20946072	-8.1225159	18.673709	2.3905365
451	1	2	-0.41308644	-7.753788	16.915103	1.1407163
452	1	3	0.23035736	-8.6936257	16.452023	1.4124955
453	1	2	0.42944381	-6.9228351	16.311751	0.28056858
454	1	7	-0.64993685	-7.2457259	15.076025	-0.27892777
455	1	8	0.43446696	-8.1106194	14.598023	-0.052960232
456	1	2	-0.41308638	-5.652963	16.962681	-0.084263488
457	1	3	0.23035736	-4.9881572	16.485535	-0.79383775
458	1	2	-0.10935339	-5.3223182	18.144178	0.44900184
459	1	3	0.20946072	-4.3906141	18.608648	0.15143676
460	1	4	-0.13307172	-6.1040601	21.213943	0.84035009
461	1	5	0.084337391	-5.5115526	20.966207	-0.067134427
462	1	5	0.084337391	-5.8674797	22.257226	1.1304638
463	1	5	0.084337391	-7.1788049	21.181409	0.56036774
464	1	4	-0.13464262	-6.6486825	20.62246	3.243295
465	1	4	-0.12862399	-6.1453169	21.884842	3.9752539
466	1	4	-0.12202232	-7.0260449	22.206418	5.1792506
467	1	5	0.067575589	-7.0144289	21.362137	5.9026223
468	1	5	0.067575589	-6.6418361	23.114734	5.6897858
469	1	5	0.067575589	-8.0709855	22.396497	4.8547785
470	1	5	0.089479983	-5.1063777	21.734939	4.3381818
471	1	5	0.089479983	-6.1555169	22.760985	3.295423
472	1	5	0.10631069	-6.6508163	19.782717	3.9736915
473	1	5	0.10631069	-7.7053402	20.807218	2.9453068
474	1	2	-0.14951719	-3.3204945	21.139413	1.8430273
475	1	3	0.20946071	-3.602498	21.913129	1.1442124
476	1	2	-0.32159084	-2.0396292	21.079719	2.2247469
477	1	3	0.22515392	-1.3265377	21.793938	1.8331776
478	2	2	0.46710739	4.9133267	24.031449	-5.6174286
479	2	6	-0.57663816	4.1543566	24.730041	-4.9673253
480	2	9	-0.085207641	6.3588067	24.729428	-6.3233372
481	4	1	-0.02470256	-2.796789	21.177819	18.759126
482	4	2	0.27575648	-1.4905349	21.458516	18.366483
483	4	2	-0.3215909	-0.9682044	20.836346	17.304829
484	4	3	0.22515386	-1.5559516	20.116763	16.750076
485	4	2	-0.14951718	0.41594243	21.127066	16.880417
486	4	3	0.20946072	0.80371596	20.607782	16.011822
487	4	2	-0.26359719	1.1827318	22.012767	17.554694
488	4	4	0.022404	2.6158513	22.305631	17.064184
489	4	2	-0.26359716	3.3916169	20.971526	16.994779
490	4	2	-0.15210424	4.2404254	20.658763	15.98656
491	4	3	0.20946072	4.4052063	21.31619	15.147782
492	4	2	-0.2735348	4.9889997	19.384493	15.993355
493	4	3	0.22518322	5.6428489	19.150907	15.161873
494	4	2	0.43725309	4.8645255	18.530384	17.017919
495	4	1	-0.44163987	5.5643458	17.325357	17.034833
496	4	2	-0.27353474	3.977305	18.869899	18.145598
497	4	3	0.22518326	3.8891281	18.190624	18.983146
498	4	2	-0.15210429	3.2913148	20.018374	18.141635
499	4	3	0.20946072	2.6600502	20.250955	18.989394
500	4	4	-0.13307172	3.41107	23.205853	18.041996
501	4	5	0.084337391	3.4725928	22.73997	19.048969
502	4	5	0.084337391	2.9538649	24.209654	18.154736
503	4	5	0.084337391	4.4500648	23.353311	17.673558
504	4	4	-0.13464262	2.5332709	23.02376	15.671209
505	4	4	-0.12862399	1.5838983	24.240407	15.618888
506	4	4	-0.12202232	1.5791567	24.869363	14.229133
507	4	5	0.067575589	1.2350015	24.132672	13.471966
508	4	5	0.067575589	0.88828757	25.739172	14.216568
509	4	5	0.067575589	2.5976089	25.222947	13.960665
510	4	5	0.089479983	0.5441882	23.932956	15.86109
511	4	5	0.089479983	1.8991783	25.013971	16.347991
512	4	5	0.10631069	2.1950242	22.294638	14.902871
513	4	5	0.10631069	3.5454303	23.376061	15.374285
514	4	2	-0.14951719	0.57907641	22.70425	18.735683
515	4	3	0.20946071	1.1361566	23.429412	19.309864
516	4	2	-0.32159084	-0.67680859	22.439124	19.113955
517	4	3	0.22515392	-1.0999864	22.946974	19.971743
518	5	2	0.6277625	6.2056074	17.048426	16.253527
519	5	6	-0.49985024	7.2987463	17.578108	16.144324
520	1	1	-0.02470256	-3.2136029	21.637478	19.559519
521	1	2	0.27575648	-3.4092746	20.958872	20.759329
522	1	2	-0.3215909	-3.9615989	21.591617	21.798498
523	1	3	0.22515386	-4.2583828	22.629181	21.710761
524	1	2	-0.14951718	-4.1740107	20.879935	23.074909
525	1	3	0.20946072	-4.6300919	21.422467	23.893498
526	1	2	-0.26359719	-3.8071909	19.586673	23.223911
527	1	4	0.022404	-4.0688708	18.872735	24.565472
528	1	2	-0.26359716	-3.3904255	19.682981	25.691522
529	1	2	-0.10935336	-3.9630374	19.897687	26.900498
530	1	3	0.20946072	-4.9500772	19.534768	27.142374
531	1	2	-0.41308644	-3.2496095	20.646644	27.956528
532	1	3	0.23035736	-3.7426517	20.822177	28.903998
533	1	2	0.42944381	-2.0066708	21.098422	27.743527
534	1	7	-0.64993685	-1.3235085	21.806419	28.731629
535	1	8	0.43446696	-1.7426101	22.002095	29.633656
536	1	2	-0.41308638	-1.3490934	20.840852	26.450996
537	1	3	0.23035736	-0.33724761	21.188941	26.283267
538	1	2	-0.10935339	-1.9920988	20.170857	25.48804
539	1	3	0.20946072	-1.4799233	19.980912	24.553189
540	1	4	-0.13307172	-3.4378667	17.459146	24.625423
541	1	5	0.084337391	-2.3394405	17.50804	24.460998
542	1	5	0.084337391	-3.8683633	16.775312	23.866727
543	1	5	0.084337391	-3.6092307	17.000617	25.622874
544	1	4	-0.13464262	-5.6186465	18.741104	24.771694
545	1	4	-0.12862399	-6.3890149	18.142822	23.575307
546	1	4	-0.12202232	-7.8820549	18.051125	23.877175
547	1	5	0.067575589	-8.2972607	19.061902	24.08247
548	1	5	0.067575589	-8.4134068	17.621778	23.001604
549	1	5	0.067575589	-8.0597449	17.396543	24.756528
550	1	5	0.089479983	-6.2579367	18.776842	22.672856
551	1	5	0.089479983	-6.0198162	17.123148	23.343232
552	1	5	0.10631069	-6.0466659	19.746103	24.984827
553	1	5	0.10631069	-5.8229478	18.097653	25.656957
554	1	2	-0.14951719	-3.1976425	18.893204	22.047647
555	1	3	0.20946071	-2.893173	17.85823	22.098953
556	1	2	-0.32159084	-3.0103722	19.542419	20.892945