Title

414 atoms
413 bonds
770 angles
1452 dihedrals
102 impropers

11 atom types
14 bond types
9 angle types
35 dihedral types
3 improper types
-8.996999741 91.00300026 xlo xhi
-9.555999756 90.44400024 ylo yhi
-32.94100189 67.05899811 zlo zhi
0.0 0.0 0.0 xy xz yz

Masses

1	15.99943
2	12.01078
3	14.00672
4	12.01078
5	1.007947
6	1.007947
7	1.007947
8	15.99943
9	12.01078
10	15.99943
11	1.007947


Pair Coeffs

1	0.2102061	3.0398122
2	0.086879315	3.4806469
3	0.16769152	3.206876
4	0.10884061	3.3795318
5	0.014090815	1.1034277
6	0.016409246	2.5832257
7	0.015779483	2.6445434
8	0.16846514	3.0251065
9	0.21	3.3996695
10	0.20947353	2.99716
11	1.2326e-05	0.53453923

Bond Coeffs

1 harmonic	582.698766451	1.225198386222
2 harmonic	492.76746816345	1.381897776683
3 harmonic	301.15400723785	1.345741232799
4 harmonic	352.0565580496	1.450098586273
5 harmonic	505.144496193	1.019481865027
6 harmonic	264.62148576755	1.52190126495
7 harmonic	370.04670688625	1.093899492634
8 harmonic	279.1350963404	1.454628925034
9 harmonic	366.7408841747	1.425895053732
10 harmonic	300.03137914615	1.451203938761
11 harmonic	366.34047229585	1.464762957261
12 harmonic	602.81384337	1.196112346392
13 harmonic	329.96998057905	1.427343958716
14 harmonic	543.5267831885	0.9716763312559


Angle Coeffs

1 harmonic	57.8982893754	126.8062420451
2 harmonic	201.41175231035	127.4691416191
3 harmonic	55.42182150775	117.3465570514
4 harmonic	63.44422595415	115.5071327674
5 harmonic	65.09061609600001	110.3538806181
6 harmonic	53.20531626545	116.5475862634
7 harmonic	48.776492647595	115.6030999533
8 harmonic	55.07882548015	112.8714009681
9 harmonic	33.56981613361	180


Dihedral Coeffs

1 fourier 1	1.809047390003	2	180
2 fourier 1	-0.04816277792592	1	0
3 fourier 1	0.4860993122944	2	180
4 fourier 1	0.8916986138746	1	0
5 fourier 1	1.163809172478	2	180
6 fourier 1	0.1679186987369	1	180
7 fourier 1	-0.1488678166443	4	180
8 fourier 1	-0.1230328948768	3	180
9 fourier 1	0.2939295466901	2	0
10 fourier 1	-0.3024127022865	1	0
11 fourier 1	0.182238503271	2	0
12 fourier 1	0.02972342374561	3	0
13 fourier 1	0.1918272375143	3	0
14 fourier 1	0.9202179876409	1	180
15 fourier 1	0.0473758381877	3	0
16 fourier 1	2.779853741805	2	180
17 fourier 1	0.1155372516788	3	0
18 fourier 1	0.09223874044423	3	0
19 fourier 1	0.3159935921949	2	180
20 fourier 1	0.3247796806857	1	180
21 fourier 1	0.1040663847541	3	0
22 fourier 1	3.101948770557	2	180
23 fourier 1	-0.4252153282372	1	0
24 fourier 1	0.9974165607242	2	180
25 fourier 1	2.348375642009	2	180
26 fourier 1	1.256156174911	1	0
27 fourier 1	0.1911926717192	3	0
28 fourier 1	0.1115525666802	3	0
29 fourier 1	0.3432490222662	1	0
30 fourier 1	0.457973137376	1	0
31 fourier 1	-1.382973039546	1	0
32 fourier 1	0	1	0
33 fourier 1	0.3445382149273	3	0
34 fourier 1	0.1364556373303	1	0
35 fourier 1	0.3026390167484	3	0


Improper Coeffs

1 3.5	-1	2
2 0.3333333333333333	-1	2
3 0.3666666666666667	-1	2


Atoms

1	1	1	-0.622531	5.5929999	0.308	0.098999999
2	1	2	0.78353298	4.6459999	1.073	-0.22499999
3	1	3	-0.469064	3.2980001	0.59799999	-0.25600001
4	1	4	0.023519	2.967	-0.78899997	0.072999999
5	1	4	-0.145758	1.454	-1.039	0.015
6	1	4	-0.14359701	0.71100003	-0.33000001	1.16
7	1	4	-0.14359701	-0.78399998	-0.685	1.204
8	1	4	-0.147038	-1.574	-0.057999998	0.045000002
9	1	4	0.029391	-3.075	-0.32100001	0.199
10	1	3	-0.52495402	-3.812	0.237	-0.93300003
11	1	2	0.54078102	-4.0619998	1.6390001	-1.0779999
12	1	1	-0.70062798	-3.6559999	2.4619999	-0.215
13	1	5	0.31620401	-4.224	-0.41499999	-1.637
14	1	6	0.048796002	-3.25	-1.419	0.237
15	1	6	0.048796002	-3.454	0.119	1.148
16	1	7	0.084849998	-1.39	1.038	0.024
17	1	7	0.084849998	-1.2359999	-0.491	-0.92000002
18	1	7	0.083738998	-0.90899998	-1.79	1.194
19	1	7	0.083738998	-1.197	-0.308	2.165
20	1	7	0.083738998	1.164	-0.64300001	2.1270001
21	1	7	0.083738998	0.82999998	0.77100003	1.076
22	1	7	0.084849998	1.278	-2.1340001	0.089000002
23	1	7	0.084849998	1.0700001	-0.69599998	-0.97000003
24	1	6	0.052317001	3.467	-1.461	-0.65700001
25	1	6	0.052317001	3.3499999	-1.0369999	1.087
26	1	5	0.32278901	2.55	1.27	-0.54100001
27	1	8	-0.50019002	0.47	3.595	-6.1500001
28	1	4	0.112946	1.66	2.8800001	-6.348
29	1	4	-0.139808	2.665	3.1659999	-5.2270002
30	1	4	-0.142195	2.145	2.6930001	-3.862
31	1	4	-0.142195	3.174	2.9619999	-2.7590001
32	1	4	-0.139808	2.655	2.4890001	-1.3940001
33	1	4	0.112946	3.6589999	2.776	-0.273
34	1	8	-0.50019002	4.849	2.0599999	-0.47099999
35	1	6	0.082254	3.2090001	2.506	0.70899999
36	1	6	0.082254	3.892	3.862	-0.24699999
37	1	7	0.088710003	2.444	1.398	-1.428
38	1	7	0.088710003	1.704	3.017	-1.16
39	1	7	0.084732004	4.119	2.427	-3.0009999
40	1	7	0.084732004	3.388	4.053	-2.7130001
41	1	7	0.084732004	1.201	3.2290001	-3.6199999
42	1	7	0.084732004	1.931	1.603	-3.908
43	1	7	0.088710003	2.875	4.2579999	-5.1929998
44	1	7	0.088710003	3.615	2.6389999	-5.461
45	1	6	0.082254	2.1099999	3.1489999	-7.3299999
46	1	6	0.082254	1.427	1.794	-6.3740001
47	1	1	-0.622531	7.5380001	8.3100004	-12.344
48	1	2	0.78353298	6.585	7.5029998	-12.177
49	1	3	-0.469064	5.954	7.368	-10.9
50	1	4	0.023519	6.3940001	8.1470003	-9.7419996
51	1	4	-0.145758	5.5310001	7.8600001	-8.5059996
52	1	4	-0.14359701	4.1079998	8.4250002	-8.6560001
53	1	4	-0.14359701	3.2750001	8.2740002	-7.3740001
54	1	4	-0.145758	2.875	6.8179998	-7.0970001
55	1	4	0.023519	1.9349999	6.7270002	-5.8899999
56	1	3	-0.469064	1.6	5.3330002	-5.605
57	1	2	0.78353298	0.67299998	4.5819998	-6.3959999
58	1	1	-0.622531	0.093000002	5.105	-7.3850002
59	1	5	0.32278901	2.007	4.8800001	-4.756
60	1	6	0.052317001	2.4400001	7.165	-5.0009999
61	1	6	0.052317001	1.0039999	7.3060002	-6.0760002
62	1	7	0.084849998	2.369	6.3969998	-7.9920001
63	1	7	0.084849998	3.7809999	6.211	-6.8850002
64	1	7	0.083738998	3.839	8.6850004	-6.507
65	1	7	0.083738998	2.3510001	8.8830004	-7.493
66	1	7	0.083738998	4.177	9.5089998	-8.8929996
67	1	7	0.083738998	3.5829999	7.9310002	-9.5019999
68	1	7	0.084849998	6.0180001	8.3299999	-7.6240001
69	1	7	0.084849998	5.4990001	6.763	-8.3360004
70	1	6	0.052317001	7.448	7.882	-9.5100002
71	1	6	0.052317001	6.3569999	9.2320004	-9.9829998
72	1	5	0.32278901	5.1750002	6.677	-10.812
73	1	8	-0.50019002	4.848	0.29800001	-10.18
74	1	4	0.112946	6.1659999	0.67699999	-10.475
75	1	4	-0.139808	6.1950002	1.779	-11.539
76	1	4	-0.142195	5.5190001	3.0650001	-11.045
77	1	4	-0.142195	5.5840001	4.164	-12.112
78	1	4	-0.139808	4.908	5.4499998	-11.617
79	1	4	0.112946	4.9369998	6.552	-12.682
80	1	8	-0.50019002	6.2550001	6.9310002	-12.976
81	1	6	0.082254	4.3569999	7.4330001	-12.323
82	1	6	0.082254	4.4499998	6.1880002	-13.612
83	1	7	0.088710003	5.4159999	5.8150001	-10.698
84	1	7	0.088710003	3.8469999	5.2340002	-11.362
85	1	7	0.084732004	6.6479998	4.3759999	-12.355
86	1	7	0.084732004	5.073	3.8110001	-13.034
87	1	7	0.084732004	4.4549999	2.8529999	-10.801
88	1	7	0.084732004	6.0300002	3.418	-10.122
89	1	7	0.088710003	5.6869998	1.414	-12.458
90	1	7	0.088710003	7.256	1.995	-11.794
91	1	6	0.082254	6.7459998	-0.204	-10.833
92	1	6	0.082254	6.6529999	1.041	-9.5450001
93	1	1	-0.622531	9.6359997	-5.5320001	-17.503
94	1	2	0.78353298	9.382	-5.2690001	-16.298
95	1	3	-0.469064	8.4720001	-4.2220001	-15.951
96	1	4	0.023519	7.8109999	-3.4119999	-16.975
97	1	4	-0.145758	6.848	-2.391	-16.354
98	1	4	-0.14359701	5.6110001	-3.069	-15.741
99	1	4	-0.14359701	4.5679998	-2.056	-15.244
100	1	4	-0.145758	5.0240002	-1.3099999	-13.981
101	1	4	0.023519	3.9070001	-0.412	-13.441
102	1	3	-0.469064	4.3670001	0.33000001	-12.269
103	1	2	0.78353298	4.5180001	-0.27399999	-10.98
104	1	1	-0.622531	4.2480001	-1.4910001	-10.8
105	1	5	0.32278901	4.539	1.357	-12.357
106	1	6	0.052317001	3.6070001	0.31200001	-14.231
107	1	6	0.052317001	3.013	-1.017	-13.174
108	1	7	0.084849998	5.316	-2.0469999	-13.202
109	1	7	0.084849998	5.9050002	-0.67500001	-14.215
110	1	7	0.083738998	4.335	-1.327	-16.051001
111	1	7	0.083738998	3.6329999	-2.612	-15.013
112	1	7	0.083738998	5.1279998	-3.7019999	-16.518
113	1	7	0.083738998	5.9099998	-3.737	-14.904
114	1	7	0.084849998	6.52	-1.6900001	-17.153
115	1	7	0.084849998	7.3920002	-1.804	-15.585
116	1	6	0.052317001	8.585	-2.865	-17.555
117	1	6	0.052317001	7.2579999	-4.073	-17.677999
118	1	5	0.32278901	8.3039999	-4.0380001	-14.937
119	1	8	-0.50019002	11.53	-0.97100002	-10.312
120	1	4	0.112946	12.339	-1.0930001	-11.452
121	1	4	-0.139808	12.181	-2.4760001	-12.091
122	1	4	-0.142195	10.752	-2.7079999	-12.599
123	1	4	-0.142195	10.62	-4.0840001	-13.261
124	1	4	-0.139808	9.1899996	-4.316	-13.769
125	1	4	0.112946	9.0319996	-5.6999998	-14.409
126	1	8	-0.50019002	9.8409996	-5.8210001	-15.548
127	1	6	0.082254	7.9640002	-5.8660002	-14.678
128	1	6	0.082254	9.3179998	-6.4860001	-13.678
129	1	7	0.088710003	8.9230003	-3.5350001	-14.514
130	1	7	0.088710003	8.4799995	-4.2379999	-12.917
131	1	7	0.084732004	11.331	-4.1500001	-14.114
132	1	7	0.084732004	10.88	-4.8740001	-12.522
133	1	7	0.084732004	10.041	-2.6429999	-11.746
134	1	7	0.084732004	10.491	-1.918	-13.338
135	1	7	0.088710003	12.448	-3.2579999	-11.347
136	1	7	0.088710003	12.891	-2.5539999	-12.943
137	1	6	0.082254	13.407	-0.926	-11.183
138	1	6	0.082254	12.053	-0.30700001	-12.182
139	1	1	-0.622531	21.413	-4.0479999	-8.4630003
140	1	2	0.78353298	20.558001	-3.141	-8.6479998
141	1	3	-0.469064	19.173	-3.4590001	-8.8030005
142	1	4	0.023519	18.695999	-4.842	-8.7639999
143	1	4	-0.145758	17.169001	-4.9180002	-8.9049997
144	1	4	-0.14359701	16.451	-4.375	-7.6570001
145	1	4	-0.14359701	14.929	-4.5749998	-7.7179999
146	1	4	-0.145758	14.253	-3.655	-8.7460003
147	1	4	0.023519	12.728	-3.7869999	-8.6800003
148	1	3	-0.469064	12.097	-2.944	-9.6940002
149	1	2	0.78353298	11.989	-1.523	-9.5629997
150	1	1	-0.622531	12.437	-0.93099999	-8.5450001
151	1	5	0.32278901	11.653	-3.4000001	-10.523
152	1	6	0.052317001	12.446	-4.8460002	-8.8649998
153	1	6	0.052317001	12.354	-3.5039999	-7.6719999
154	1	7	0.084849998	14.542	-2.6010001	-8.5439997
155	1	7	0.084849998	14.586	-3.9230001	-9.7700005
156	1	7	0.083738998	14.697	-5.6370001	-7.9510002
157	1	7	0.083738998	14.514	-4.3520002	-6.711
158	1	7	0.083738998	16.830999	-4.915	-6.7620001
159	1	7	0.083738998	16.68	-3.296	-7.5180001
160	1	7	0.084849998	16.885	-5.9819999	-9.0530005
161	1	7	0.084849998	16.862	-4.3509998	-9.809
162	1	6	0.052317001	19.159	-5.4060001	-9.6029997
163	1	6	0.052317001	19.011	-5.3210001	-7.8119998
164	1	5	0.32278901	18.507	-2.6700001	-8.9659996
165	1	8	-0.50019002	16.899	0.91000003	-14.044
166	1	4	0.112946	18.021	0.12800001	-14.354
167	1	4	-0.139808	19	0.083999999	-13.176
168	1	4	-0.142195	18.381001	-0.58999997	-11.945
169	1	4	-0.142195	19.384001	-0.65100002	-10.788
170	1	4	-0.139808	18.764	-1.325	-9.5559998
171	1	4	0.112946	19.743999	-1.369	-8.3789997
172	1	8	-0.50019002	20.865999	-2.151	-8.6890001
173	1	6	0.082254	19.229	-1.777	-7.48
174	1	6	0.082254	20.079	-0.33899999	-8.132
175	1	7	0.088710003	18.451	-2.3610001	-9.8109999
176	1	7	0.088710003	17.860001	-0.759	-9.2419996
177	1	7	0.084732004	20.281	-1.223	-11.111
178	1	7	0.084732004	19.700001	0.382	-10.521
179	1	7	0.084732004	17.483	-0.017999999	-11.622
180	1	7	0.084732004	18.063999	-1.623	-12.212
181	1	7	0.088710003	19.313999	1.12	-12.921
182	1	7	0.088710003	19.903999	-0.48199999	-13.49
183	1	6	0.082254	18.535999	0.53600001	-15.253
184	1	6	0.082254	17.684999	-0.90200001	-14.601
185	1	1	-0.622531	24.643	5.9899998	-19.018
186	1	2	0.78353298	23.610001	5.2690001	-19.035999
187	1	3	-0.469064	22.917	4.9530001	-17.827
188	1	4	0.023519	23.381001	5.4400001	-16.527
189	1	4	-0.145758	22.443001	5.007	-15.392
190	1	4	-0.14359701	21.089001	5.7350001	-15.458
191	1	4	-0.14359701	20.191999	5.4229999	-14.25
192	1	4	-0.145758	19.642	3.9890001	-14.277
193	1	4	0.023519	18.648001	3.7620001	-13.134
194	1	3	-0.469064	18.167999	2.381	-13.14
195	1	2	0.78353298	17.205999	1.9	-14.084
196	1	1	-0.622531	16.721001	2.6630001	-14.961
197	1	5	0.32278901	18.493	1.732	-12.389
198	1	6	0.052317001	19.155001	3.9630001	-12.165
199	1	6	0.052317001	17.785999	4.4590001	-13.221
200	1	7	0.084849998	19.136	3.806	-15.25
201	1	7	0.084849998	20.475	3.263	-14.17
202	1	7	0.083738998	20.756001	5.5949998	-13.307
203	1	7	0.083738998	19.337999	6.1350002	-14.266
204	1	7	0.083738998	21.273001	6.8309999	-15.473
205	1	7	0.083738998	20.555	5.473	-16.396999
206	1	7	0.084849998	22.936001	5.243	-14.424
207	1	7	0.084849998	22.298	3.9070001	-15.445
208	1	6	0.052317001	24.393999	5.027	-16.329
209	1	6	0.052317001	23.459999	6.5489998	-16.548
210	1	5	0.32278901	22.072001	4.342	-17.893999
211	1	8	-0.50019002	21.101999	-1.9680001	-18.552
212	1	4	0.112946	22.462	-1.678	-18.736
213	1	4	-0.139808	22.642	-0.398	-19.559
214	1	4	-0.142195	22.073999	0.829	-18.834
215	1	4	-0.142195	22.289	2.1040001	-19.659
216	1	4	-0.139808	21.719999	3.3310001	-18.934
217	1	4	0.112946	21.900999	4.6110001	-19.757
218	1	8	-0.50019002	23.26	4.902	-19.941
219	1	6	0.082254	21.393999	5.4590001	-19.243
220	1	6	0.082254	21.42	4.4889998	-20.750999
221	1	7	0.088710003	22.223	3.454	-17.948999
222	1	7	0.088710003	20.634001	3.1800001	-18.75
223	1	7	0.084732004	23.378	2.2479999	-19.833
224	1	7	0.084732004	21.785	1.993	-20.645
225	1	7	0.084732004	20.985001	0.685	-18.660999
226	1	7	0.084732004	22.577	0.94	-17.849001
227	1	7	0.088710003	22.139999	-0.52100003	-20.544001
228	1	7	0.088710003	23.728001	-0.24699999	-19.743
229	1	6	0.082254	22.968	-2.526	-19.250999
230	1	6	0.082254	22.941999	-1.5549999	-17.742001
231	1	1	-0.622531	25.606001	-6.7150002	-26.782
232	1	2	0.78353298	25.327999	-6.6690001	-25.554001
233	1	3	-0.469064	24.51	-5.6209998	-25.027
234	1	4	0.023519	23.974001	-4.5619998	-25.882999
235	1	4	-0.145758	23.089001	-3.589	-25.093
236	1	4	-0.14359701	21.768	-4.2420001	-24.653999
237	1	4	-0.14359701	20.808001	-3.244	-23.988001
238	1	4	-0.145758	21.281	-2.8110001	-22.591999
239	1	4	0.023519	20.233999	-1.925	-21.909
240	1	3	-0.469064	20.715	-1.479	-20.603001
241	1	2	0.78353298	20.752001	-2.336	-19.457001
242	1	1	-0.622531	20.358	-3.53	-19.528999
243	1	5	0.32278901	20.988001	-0.47799999	-20.482
244	1	6	0.052317001	20.039	-1.034	-22.545
245	1	6	0.052317001	19.275	-2.4760001	-21.788
246	1	7	0.084849998	21.466999	-3.7119999	-21.969
247	1	7	0.084849998	22.228001	-2.237	-22.676001
248	1	7	0.083738998	20.68	-2.3510001	-24.639
249	1	7	0.083738998	19.815001	-3.7349999	-23.893
250	1	7	0.083738998	21.259001	-4.658	-25.551001
251	1	7	0.083738998	21.965	-5.0879998	-23.961
252	1	7	0.084849998	22.865	-2.7149999	-25.743
253	1	7	0.084849998	23.655001	-3.223	-24.209999
254	1	6	0.052317001	24.820999	-3.9949999	-26.325001
255	1	6	0.052317001	23.389	-5.0120001	-26.715
256	1	5	0.32278901	24.319	-5.6220002	-23.999001
257	1	8	-0.50019002	27.629	-3.8710001	-18.788
258	1	4	0.112946	28.469999	-3.849	-19.91
259	1	4	-0.139808	28.205	-5.0570002	-20.816
260	1	4	-0.142195	26.783001	-5.0359998	-21.391001
261	1	4	-0.142195	26.546	-6.2350001	-22.316
262	1	4	-0.139808	25.124001	-6.2140002	-22.891001
263	1	4	0.112946	24.858999	-7.4219999	-23.797001
264	1	8	-0.50019002	25.698999	-7.4000001	-24.92
265	1	6	0.082254	23.792	-7.421	-24.117001
266	1	6	0.082254	25.037001	-8.3610001	-23.231001
267	1	7	0.088710003	24.965	-5.2789998	-23.471001
268	1	7	0.088710003	24.389	-6.2319999	-22.056999
269	1	7	0.084732004	27.282	-6.2049999	-23.149
270	1	7	0.084732004	26.698	-7.177	-21.743999
271	1	7	0.084732004	26.046	-5.066	-20.558001
272	1	7	0.084732004	26.631001	-4.0939999	-21.962999
273	1	7	0.088710003	28.364	-5.9920001	-20.236
274	1	7	0.088710003	28.940001	-5.039	-21.65
275	1	6	0.082254	29.537001	-3.8499999	-19.59
276	1	6	0.082254	28.292	-2.9100001	-20.476
277	1	1	-0.622531	37.081001	-8.2530003	-17.371
278	1	2	0.78353298	36.327	-7.244	-17.391001
279	1	3	-0.469064	34.924999	-7.381	-17.636
280	1	4	0.023519	34.314999	-8.6879997	-17.884001
281	1	4	-0.145758	32.796001	-8.5769997	-18.07
282	1	4	-0.14359701	32.082001	-8.217	-16.754999
283	1	4	-0.14359701	30.551001	-8.243	-16.889
284	1	4	-0.145758	30.011	-7.0749998	-17.726999
285	1	4	0.023519	28.479	-7.059	-17.723
286	1	3	-0.469064	27.976	-5.974	-18.562
287	1	2	0.78353298	28.000999	-4.6020002	-18.153
288	1	1	-0.622531	28.459999	-4.2709999	-17.028
289	1	5	0.32278901	27.525	-6.21	-19.475
290	1	6	0.052317001	28.104	-8.0270004	-18.121
291	1	6	0.052317001	28.091999	-6.9419999	-16.687
292	1	7	0.084849998	30.392	-6.1160002	-17.313
293	1	7	0.084849998	30.360001	-7.1700001	-18.777
294	1	7	0.083738998	30.226999	-9.21	-17.333
295	1	7	0.083738998	30.118	-8.1809998	-15.866
296	1	7	0.083738998	32.368999	-8.9580002	-15.978
297	1	7	0.083738998	32.408001	-7.2160001	-16.399
298	1	7	0.084849998	32.416	-9.5559998	-18.433001
299	1	7	0.084849998	32.583	-7.8150001	-18.85
300	1	6	0.052317001	34.756001	-9.1210003	-18.806999
301	1	6	0.052317001	34.542	-9.3739996	-17.039
302	1	5	0.32278901	34.346001	-6.5110002	-17.653
303	1	8	-0.50019002	33.306	-1.86	-21.951
304	1	4	0.112946	34.360001	-2.677	-22.386
305	1	4	-0.139808	35.279999	-3.052	-21.219
306	1	4	-0.142195	34.547001	-3.8859999	-20.160999
307	1	4	-0.142195	35.490002	-4.2750001	-19.017
308	1	4	-0.139808	34.757	-5.1100001	-17.959
309	1	4	0.112946	35.678001	-5.4840002	-16.792
310	1	8	-0.50019002	36.730999	-6.302	-17.226999
311	1	6	0.082254	35.088001	-6.006	-16.004
312	1	6	0.082254	36.099998	-4.5630002	-16.337999
313	1	7	0.088710003	34.355999	-6.0380001	-18.421
314	1	7	0.088710003	33.900002	-4.526	-17.558001
315	1	7	0.084732004	36.341	-4.8629999	-19.427999
316	1	7	0.084732004	35.894001	-3.3529999	-18.544001
317	1	7	0.084732004	33.695999	-3.299	-19.75
318	1	7	0.084732004	34.144001	-4.809	-20.635
319	1	7	0.088710003	35.681999	-2.1240001	-20.757
320	1	7	0.088710003	36.137001	-3.6359999	-21.620001
321	1	6	0.082254	34.949001	-2.1559999	-23.174
322	1	6	0.082254	33.937	-3.599	-22.84
323	1	1	-0.622531	41.709	3.2690001	-25.643999
324	1	2	0.78353298	40.612	2.6760001	-25.827999
325	1	3	-0.469064	39.841	2.2019999	-24.721001
326	1	4	0.023519	40.296001	2.375	-23.34
327	1	4	-0.145758	39.272999	1.8279999	-22.334999
328	1	4	-0.14359701	38	2.6900001	-22.285
329	1	4	-0.14359701	37.027	2.2420001	-21.183001
330	1	4	-0.145758	36.341999	0.90600002	-21.507
331	1	4	0.023519	35.284	0.56300002	-20.454
332	1	3	-0.469064	34.673	-0.73299998	-20.745001
333	1	2	0.78353298	33.709999	-0.91799998	-21.787001
334	1	1	-0.622531	33.338001	0.048	-22.504999
335	1	5	0.32278901	34.902	-1.5470001	-20.131001
336	1	6	0.052317001	35.766998	0.51700002	-19.452999
337	1	6	0.052317001	34.498001	1.349	-20.419001
338	1	7	0.084849998	35.862	0.97000003	-22.507
339	1	7	0.084849998	37.096001	0.090999998	-21.528
340	1	7	0.083738998	37.564999	2.1670001	-20.212
341	1	7	0.083738998	36.247002	3.0280001	-21.075001
342	1	7	0.083738998	38.290001	3.743	-22.077
343	1	7	0.083738998	37.483002	2.674	-23.268
344	1	7	0.084849998	39.744999	1.817	-21.329
345	1	7	0.084849998	39.023998	0.77999997	-22.608999
346	1	6	0.052317001	41.255001	1.83	-23.207001
347	1	6	0.052317001	40.481998	3.4530001	-23.139
348	1	5	0.32278901	38.945	1.707	-24.927
349	1	8	-0.173366	37.396999	-4.2179999	-26.849001
350	1	4	0.034534	38.785	-4.039	-26.941999
351	1	4	-0.145803	39.123001	-2.648	-27.489
352	1	4	-0.14092501	38.646	-1.534	-26.547001
353	1	4	-0.14214399	39.018002	-0.152	-27.097
354	1	4	-0.139808	38.541	0.96100003	-26.155001
355	1	4	0.112946	38.879002	2.352	-26.702
356	1	8	-0.50019002	40.266998	2.5309999	-26.795
357	1	6	0.082254	38.435001	3.131	-26.041
358	1	6	0.082254	38.431	2.477	-27.711
359	1	7	0.088710003	39.011002	0.83600003	-25.155001
360	1	7	0.088710003	37.438	0.88999999	-26.028999
361	1	7	0.084732004	40.122002	-0.090000004	-27.214001
362	1	7	0.084732004	38.548	-0.016000001	-28.096001
363	1	7	0.084907003	37.542	-1.596	-26.43
364	1	7	0.084907003	39.116001	-1.671	-25.548
365	1	7	0.089772001	38.652	-2.523	-28.489
366	1	7	0.089772001	40.224998	-2.5769999	-27.615
367	1	6	0.082152002	39.228001	-4.8179998	-27.603001
368	1	6	0.082152002	39.233002	-4.1630001	-25.933001
369	1	1	-0.70062798	-5.77	1.549	-2.1619999
370	1	2	0.54078102	-4.6149998	1.998	-1.936
371	1	3	-0.52495402	-4.026	2.9749999	-2.799
372	1	4	0.029391	-4.7350001	3.4860001	-3.9719999
373	1	4	-0.147038	-3.8829999	4.5229998	-4.7150002
374	1	4	-0.143411	-4.645	5.2210002	-5.8540001
375	1	4	-0.139201	-5.0100002	4.2800002	-7.0219998
376	1	4	-0.123398	-6.4879999	3.8599999	-6.9879999
377	1	4	0.182826	-6.8109999	2.8859999	-8.1219997
378	1	3	-0.66116297	-8.2259998	2.5339999	-8.0780001
379	1	9	0.59224403	-8.6169996	1.332	-7.934
380	1	1	-0.49008399	-8.9969997	0.163	-7.7930002
381	1	6	0.028121	-6.5939999	3.3659999	-9.1000004
382	1	6	0.028121	-6.171	1.978	-8.0290003
383	1	7	0.078506999	-7.1279998	4.763	-7.092
384	1	7	0.078506999	-6.7280002	3.3759999	-6.0180001
385	1	7	0.082465	-4.8249998	4.8150001	-7.9790001
386	1	7	0.082465	-4.3559999	3.3800001	-7.02
387	1	7	0.083738998	-3.9820001	6.0219998	-6.25
388	1	7	0.083738998	-5.546	5.7319999	-5.4489999
389	1	7	0.084849998	-3.559	5.302	-3.9920001
390	1	7	0.084849998	-2.9679999	4.0349998	-5.1170001
391	1	6	0.048796002	-5.6890001	3.954	-3.645
392	1	6	0.048796002	-4.961	2.6359999	-4.6500001
393	1	5	0.31620401	-3.0639999	3.3139999	-2.5710001
394	1	8	-0.173366	37.066002	-4.3569999	-27.775
395	1	4	0.034534	36.598	-3.1140001	-28.224001
396	1	4	-0.145803	37.764	-2.1789999	-28.563999
397	1	4	-0.140874	38.610001	-2.723	-29.723
398	1	4	-0.136779	39.754002	-1.761	-30.066999
399	1	4	-0.16772699	40.598999	-2.3050001	-31.226999
400	1	4	0.087784998	41.764999	-1.37	-31.566
401	1	10	-0.68262601	41.298	-0.127	-32.015999
402	1	11	0.38101301	40.966999	-0.266	-32.941002
403	1	6	0.072889999	42.407001	-1.842	-32.344002
404	1	6	0.072889999	42.395	-1.214	-30.664
405	1	7	0.092127003	39.962002	-2.438	-32.127998
406	1	7	0.092127003	41.013	-3.2980001	-30.947001
407	1	7	0.084907003	39.328999	-0.773	-30.35
408	1	7	0.084907003	40.401001	-1.625	-29.173
409	1	7	0.084907003	39.035	-3.711	-29.440001
410	1	7	0.084907003	37.963001	-2.859	-30.618
411	1	7	0.089772001	38.402	-2.046	-27.662001
412	1	7	0.089772001	37.349998	-1.186	-28.844
413	1	6	0.082152002	35.957001	-2.642	-27.445999
414	1	6	0.082152002	35.967999	-3.27	-29.125999

Bonds

1	1	1	2
2	2	2	3
3	3	2	34
4	4	3	4
5	5	3	26
6	6	4	5
7	7	4	24
8	7	4	25
9	6	5	6
10	7	5	22
11	7	5	23
12	6	6	7
13	7	6	20
14	7	6	21
15	6	7	8
16	7	7	18
17	7	7	19
18	6	8	9
19	7	8	16
20	7	8	17
21	4	9	10
22	7	9	14
23	7	9	15
24	2	10	11
25	5	10	13
26	1	11	12
27	8	11	370
28	9	27	28
29	3	27	57
30	6	28	29
31	7	28	45
32	7	28	46
33	6	29	30
34	7	29	43
35	7	29	44
36	6	30	31
37	7	30	41
38	7	30	42
39	6	31	32
40	7	31	39
41	7	31	40
42	6	32	33
43	7	32	37
44	7	32	38
45	9	33	34
46	7	33	35
47	7	33	36
48	1	47	48
49	2	48	49
50	3	48	80
51	4	49	50
52	5	49	72
53	6	50	51
54	7	50	70
55	7	50	71
56	6	51	52
57	7	51	68
58	7	51	69
59	6	52	53
60	7	52	66
61	7	52	67
62	6	53	54
63	7	53	64
64	7	53	65
65	6	54	55
66	7	54	62
67	7	54	63
68	4	55	56
69	7	55	60
70	7	55	61
71	2	56	57
72	5	56	59
73	1	57	58
74	9	73	74
75	3	73	103
76	6	74	75
77	7	74	91
78	7	74	92
79	6	75	76
80	7	75	89
81	7	75	90
82	6	76	77
83	7	76	87
84	7	76	88
85	6	77	78
86	7	77	85
87	7	77	86
88	6	78	79
89	7	78	83
90	7	78	84
91	9	79	80
92	7	79	81
93	7	79	82
94	1	93	94
95	2	94	95
96	3	94	126
97	4	95	96
98	5	95	118
99	6	96	97
100	7	96	116
101	7	96	117
102	6	97	98
103	7	97	114
104	7	97	115
105	6	98	99
106	7	98	112
107	7	98	113
108	6	99	100
109	7	99	110
110	7	99	111
111	6	100	101
112	7	100	108
113	7	100	109
114	4	101	102
115	7	101	106
116	7	101	107
117	2	102	103
118	5	102	105
119	1	103	104
120	9	119	120
121	3	119	149
122	6	120	121
123	7	120	137
124	7	120	138
125	6	121	122
126	7	121	135
127	7	121	136
128	6	122	123
129	7	122	133
130	7	122	134
131	6	123	124
132	7	123	131
133	7	123	132
134	6	124	125
135	7	124	129
136	7	124	130
137	9	125	126
138	7	125	127
139	7	125	128
140	1	139	140
141	2	140	141
142	3	140	172
143	4	141	142
144	5	141	164
145	6	142	143
146	7	142	162
147	7	142	163
148	6	143	144
149	7	143	160
150	7	143	161
151	6	144	145
152	7	144	158
153	7	144	159
154	6	145	146
155	7	145	156
156	7	145	157
157	6	146	147
158	7	146	154
159	7	146	155
160	4	147	148
161	7	147	152
162	7	147	153
163	2	148	149
164	5	148	151
165	1	149	150
166	9	165	166
167	3	165	195
168	6	166	167
169	7	166	183
170	7	166	184
171	6	167	168
172	7	167	181
173	7	167	182
174	6	168	169
175	7	168	179
176	7	168	180
177	6	169	170
178	7	169	177
179	7	169	178
180	6	170	171
181	7	170	175
182	7	170	176
183	9	171	172
184	7	171	173
185	7	171	174
186	1	185	186
187	2	186	187
188	3	186	218
189	4	187	188
190	5	187	210
191	6	188	189
192	7	188	208
193	7	188	209
194	6	189	190
195	7	189	206
196	7	189	207
197	6	190	191
198	7	190	204
199	7	190	205
200	6	191	192
201	7	191	202
202	7	191	203
203	6	192	193
204	7	192	200
205	7	192	201
206	4	193	194
207	7	193	198
208	7	193	199
209	2	194	195
210	5	194	197
211	1	195	196
212	9	211	212
213	3	211	241
214	6	212	213
215	7	212	229
216	7	212	230
217	6	213	214
218	7	213	227
219	7	213	228
220	6	214	215
221	7	214	225
222	7	214	226
223	6	215	216
224	7	215	223
225	7	215	224
226	6	216	217
227	7	216	221
228	7	216	222
229	9	217	218
230	7	217	219
231	7	217	220
232	1	231	232
233	2	232	233
234	3	232	264
235	4	233	234
236	5	233	256
237	6	234	235
238	7	234	254
239	7	234	255
240	6	235	236
241	7	235	252
242	7	235	253
243	6	236	237
244	7	236	250
245	7	236	251
246	6	237	238
247	7	237	248
248	7	237	249
249	6	238	239
250	7	238	246
251	7	238	247
252	4	239	240
253	7	239	244
254	7	239	245
255	2	240	241
256	5	240	243
257	1	241	242
258	9	257	258
259	3	257	287
260	6	258	259
261	7	258	275
262	7	258	276
263	6	259	260
264	7	259	273
265	7	259	274
266	6	260	261
267	7	260	271
268	7	260	272
269	6	261	262
270	7	261	269
271	7	261	270
272	6	262	263
273	7	262	267
274	7	262	268
275	9	263	264
276	7	263	265
277	7	263	266
278	1	277	278
279	2	278	279
280	3	278	310
281	4	279	280
282	5	279	302
283	6	280	281
284	7	280	300
285	7	280	301
286	6	281	282
287	7	281	298
288	7	281	299
289	6	282	283
290	7	282	296
291	7	282	297
292	6	283	284
293	7	283	294
294	7	283	295
295	6	284	285
296	7	284	292
297	7	284	293
298	4	285	286
299	7	285	290
300	7	285	291
301	2	286	287
302	5	286	289
303	1	287	288
304	9	303	304
305	3	303	333
306	6	304	305
307	7	304	321
308	7	304	322
309	6	305	306
310	7	305	319
311	7	305	320
312	6	306	307
313	7	306	317
314	7	306	318
315	6	307	308
316	7	307	315
317	7	307	316
318	6	308	309
319	7	308	313
320	7	308	314
321	9	309	310
322	7	309	311
323	7	309	312
324	1	323	324
325	2	324	325
326	3	324	356
327	4	325	326
328	5	325	348
329	6	326	327
330	7	326	346
331	7	326	347
332	6	327	328
333	7	327	344
334	7	327	345
335	6	328	329
336	7	328	342
337	7	328	343
338	6	329	330
339	7	329	340
340	7	329	341
341	6	330	331
342	7	330	338
343	7	330	339
344	4	331	332
345	7	331	336
346	7	331	337
347	2	332	333
348	5	332	335
349	1	333	334
350	9	349	350
351	10	349	394
352	6	350	351
353	7	350	367
354	7	350	368
355	6	351	352
356	7	351	365
357	7	351	366
358	6	352	353
359	7	352	363
360	7	352	364
361	6	353	354
362	7	353	361
363	7	353	362
364	6	354	355
365	7	354	359
366	7	354	360
367	9	355	356
368	7	355	357
369	7	355	358
370	1	369	370
371	2	370	371
372	4	371	372
373	5	371	393
374	6	372	373
375	7	372	391
376	7	372	392
377	6	373	374
378	7	373	389
379	7	373	390
380	6	374	375
381	7	374	387
382	7	374	388
383	6	375	376
384	7	375	385
385	7	375	386
386	6	376	377
387	7	376	383
388	7	376	384
389	11	377	378
390	7	377	381
391	7	377	382
392	12	378	379
393	1	379	380
394	9	394	395
395	6	395	396
396	7	395	413
397	7	395	414
398	6	396	397
399	7	396	411
400	7	396	412
401	6	397	398
402	7	397	409
403	7	397	410
404	6	398	399
405	7	398	407
406	7	398	408
407	6	399	400
408	7	399	405
409	7	399	406
410	13	400	401
411	7	400	403
412	7	400	404
413	14	401	402

Angles

1	6	169	170	175
2	6	32	31	40
3	3	9	10	11
4	6	354	353	361
5	6	308	309	310
6	7	208	188	209
7	6	171	170	176
8	6	356	355	357
9	6	397	398	399
10	6	373	374	387
11	7	177	169	178
12	6	32	33	36
13	6	52	53	64
14	6	212	213	227
15	6	234	235	236
16	7	198	193	199
17	6	145	146	147
18	1	148	149	150
19	6	325	326	327
20	6	124	125	128
21	6	398	397	409
22	6	310	309	312
23	6	328	327	344
24	6	377	376	383
25	6	350	351	365
26	6	192	193	198
27	6	31	32	38
28	6	101	100	108
29	6	352	353	361
30	6	398	399	405
31	5	349	394	395
32	1	279	278	310
33	6	53	54	62
34	6	235	236	251
35	6	282	283	295
36	7	200	192	201
37	6	283	284	292
38	7	45	28	46
39	6	399	398	407
40	6	329	328	343
41	6	394	395	413
42	4	2	3	26
43	6	97	96	116
44	2	47	48	80
45	6	166	167	182
46	6	306	307	316
47	6	76	75	89
48	6	102	101	106
49	6	147	146	155
50	6	54	55	60
51	6	97	98	112
52	7	35	33	36
53	4	11	10	13
54	6	99	100	108
55	7	114	97	115
56	6	142	143	161
57	6	5	6	7
58	6	30	29	44
59	1	1	2	3
60	6	5	6	20
61	6	52	51	68
62	6	218	217	220
63	7	357	355	358
64	6	143	142	163
65	5	186	218	217
66	6	307	308	314
67	6	325	326	347
68	6	170	171	173
69	2	139	140	172
70	6	213	214	215
71	6	216	217	218
72	6	98	99	110
73	6	143	144	159
74	7	89	75	90
75	2	27	57	58
76	6	352	353	354
77	4	372	371	393
78	7	317	306	318
79	6	50	51	52
80	6	53	54	55
81	6	192	191	202
82	6	31	30	42
83	6	189	190	191
84	6	53	52	66
85	6	283	284	285
86	6	372	373	389
87	6	354	355	356
88	3	324	325	326
89	4	48	49	72
90	6	167	166	183
91	6	214	215	224
92	6	27	28	46
93	6	375	376	384
94	7	248	237	249
95	6	262	263	264
96	6	29	30	31
97	7	311	309	312
98	6	10	9	14
99	7	135	121	136
100	6	239	238	247
101	6	399	400	403
102	4	188	187	210
103	4	241	240	243
104	7	321	304	322
105	6	306	305	320
106	5	120	119	149
107	6	193	192	200
108	6	279	280	281
109	6	166	167	168
110	6	54	53	64
111	6	122	121	136
112	6	188	189	206
113	1	303	333	332
114	6	79	78	84
115	6	124	123	132
116	6	49	50	70
117	6	264	263	266
118	6	29	28	45
119	6	376	377	382
120	6	395	396	411
121	6	119	120	138
122	3	101	102	103
123	1	233	232	264
124	7	133	122	134
125	3	285	286	287
126	6	305	304	322
127	6	326	327	328
128	6	168	167	181
129	6	307	306	318
130	6	34	33	35
131	6	75	74	92
132	6	170	169	177
133	6	194	193	198
134	6	213	212	230
135	7	154	146	155
136	6	123	122	134
137	6	98	97	114
138	6	189	190	204
139	6	329	330	338
140	6	165	166	167
141	6	305	306	307
142	6	75	76	88
143	6	260	261	270
144	6	375	376	377
145	9	378	379	380
146	1	12	11	370
147	6	6	5	23
148	6	171	170	175
149	6	214	213	228
150	6	215	216	217
151	6	30	31	39
152	6	166	167	181
153	6	4	5	23
154	7	152	147	153
155	5	140	172	171
156	6	261	262	268
157	6	124	125	127
158	2	93	94	126
159	6	310	309	311
160	6	371	372	392
161	6	55	54	63
162	6	31	32	37
163	6	144	143	160
164	6	74	75	76
165	1	11	370	369
166	6	143	144	145
167	5	2	34	33
168	7	221	216	222
169	6	396	395	414