Title

95 atoms
98 bonds
165 angles
255 dihedrals
84 impropers

9 atom types
13 bond types
6 angle types
26 dihedral types
2 improper types
-24.21100044 75.78899956 xlo xhi
-1.483999968 98.51600003 ylo yhi
-12.15799999 87.84200001 zlo zhi
0.0 0.0 0.0 xy xz yz

Masses

1	15.99943
2	12.01078
3	1.007947
4	12.01078
5	15.99943
6	1.007947
7	1.007947
8	15.99943
9	1.007947


Pair Coeffs

1	0.16846514	3.0251065
2	0.10884061	3.3795318
3	0.016409246	2.5832257
4	0.086879315	3.4806469
5	0.2102061	3.0398122
6	0.015611343	2.5725815
7	0.015779483	2.6445434
8	0.20947353	2.99716
9	1.2326e-05	0.53453923

Bond Coeffs

1 harmonic	366.7408841747	1.425895053732
2 harmonic	300.03137914615	1.451203938761
3 harmonic	264.62148576755	1.52190126495
4 harmonic	370.04670688625	1.093899492634
5 harmonic	301.15400723785	1.345741232799
6 harmonic	582.698766451	1.225198386222
7 harmonic	279.1350963404	1.454628925034
8 harmonic	360.7852444772	1.387193227181
9 harmonic	397.2545789619	1.085358495916
10 harmonic	425.69104206635	1.362945806494
11 harmonic	329.96998057905	1.427343958716
12 harmonic	543.5267831885	0.9716763312559
13 harmonic	385.7604595587	1.369745182308


Angle Coeffs

1 harmonic	53.20531626545	116.5475862634
2 harmonic	65.09061609600001	110.3538806181
3 harmonic	201.41175231035	127.4691416191
4 harmonic	57.8982893754	126.8062420451
5 harmonic	48.776492647595	115.6030999533
6 harmonic	34.066775159195	129.1835929926


Dihedral Coeffs

1 fourier 1	-0.0309670556842	3	0
2 fourier 1	0.4598191477945	2	0
3 fourier 1	0.1115525666802	3	0
4 fourier 1	0.3432490222662	1	0
5 fourier 1	0.0473758381877	3	0
6 fourier 1	0.457973137376	1	0
7 fourier 1	0.1918272375143	3	0
8 fourier 1	0.9202179876409	1	180
9 fourier 1	1.163809172478	2	180
10 fourier 1	0.1679186987369	1	180
11 fourier 1	2.779853741805	2	180
12 fourier 1	0.9974165607242	2	180
13 fourier 1	0.1911926717192	3	0
14 fourier 1	3.661930099076	2	180
15 fourier 1	1.532232714475	2	180
16 fourier 1	0.1155372516788	3	0
17 fourier 1	0.09223874044423	3	0
18 fourier 1	0.3159935921949	2	180
19 fourier 1	0.3247796806857	1	180
20 fourier 1	0.1040663847541	3	0
21 fourier 1	0.3445382149273	3	0
22 fourier 1	0.1364556373303	1	0
23 fourier 1	0.3026390167484	3	0
24 fourier 1	2.687457892086	2	180
25 fourier 1	2.772607909663	2	180
26 fourier 1	0.09692684957115	1	0


Improper Coeffs

1 3.5	-1	2
2 0.3666666666666667	-1	2


Atoms

1	1	1	-0.13947099	1.576	-0.336	0.85699999
2	1	2	0.051245999	0.63599998	-0.419	-0.17900001
3	1	2	0.15634701	-0.71899998	0.11	0.28999999
4	1	1	-0.50354803	-1.675	-0.035999998	-0.72399998
5	1	3	0.088100001	-1.051	-0.46900001	1.177
6	1	3	0.088100001	-0.63099998	1.1799999	0.58899999
7	1	3	0.095605001	0.52999997	-1.484	-0.477
8	1	3	0.095605001	0.98699999	0.154	-1.068
9	1	4	0.79096597	-1.49	0.71499997	-1.4170001
10	1	5	-0.55952698	-0.35299999	0.78200001	-1.9529999
11	1	4	-0.301043	-2.5469999	1.682	-1.763
12	1	4	0.022537	-3.7550001	1.596	-1.183
13	1	6	0.218173	-3.9679999	0.81999999	-0.45699999
14	1	4	-0.361927	-4.8179998	2.563	-1.524
15	1	6	0.202604	-5.7849998	2.4779999	-1.043
16	1	4	0.209567	-4.5939999	3.5420001	-2.4119999
17	1	1	-0.413959	-5.6370001	4.4359999	-2.6960001
18	1	2	0.075537004	-5.5180001	5.6100001	-3.4990001
19	1	2	-0.139833	-4.7610002	6.7249999	-2.7620001
20	1	2	-0.139833	-5.335	7.046	-1.37
21	1	2	0.075537004	-6.7610002	7.6040001	-1.408
22	1	1	-0.413959	-6.809	8.776	-2.217
23	1	4	0.209567	-7.9749999	9.5150003	-2.457
24	1	4	-0.36588499	-7.9000001	10.594	-3.2490001
25	1	6	0.202604	-6.9520001	10.88	-3.688
26	1	4	0.056892999	-9.1020002	11.404	-3.5320001
27	1	6	0.20158	-9.0089998	12.27	-4.177
28	1	4	-0.37096801	-10.289	11.068	-2.9990001
29	1	4	0.58180702	-11.484	11.88	-3.286
30	1	5	-0.59009302	-12.604	11.578	-2.7939999
31	1	4	0.056892999	-10.377	9.8739996	-2.1210001
32	1	6	0.20158	-11.324	9.5880003	-1.681
33	1	4	-0.36588499	-9.2869997	9.1409998	-1.864
34	1	6	0.202604	-9.3760004	8.276	-1.22
35	1	3	0.080870003	-7.461	6.8369999	-1.802
36	1	3	0.080870003	-7.0689998	7.8590002	-0.37099999
37	1	7	0.099785998	-5.316	6.1350002	-0.73400003
38	1	7	0.099785998	-4.677	7.7979999	-0.884
39	1	7	0.099785998	-3.7	6.4239998	-2.6370001
40	1	7	0.099785998	-4.763	7.6420002	-3.3900001
41	1	3	0.080870003	-5.0180001	5.3740001	-4.4619999
42	1	3	0.080870003	-6.5370002	5.9660001	-3.757
43	1	4	-0.361927	-3.2579999	3.635	-3.062
44	1	6	0.202604	-3.0469999	4.401	-3.7939999
45	1	4	0.022537	-2.2939999	2.7579999	-2.753
46	1	6	0.218173	-1.329	2.8399999	-3.237
47	1	1	-0.13379601	1.845	0.61799997	0.92000002
48	1	2	0.023178	3.148	0.70099998	0.41100001
49	1	2	0.095195003	4.1529999	0.17200001	1.434
50	1	8	-0.67870498	5.461	0.31799999	0.95200002
51	1	9	0.394916	5.5970001	-0.40000001	0.27900001
52	1	3	0.093239002	4.0549998	0.75199997	2.3759999
53	1	3	0.093239002	3.941	-0.89700001	1.663
54	1	3	0.096294001	3.3759999	1.766	0.192
55	1	3	0.096294001	3.23	0.12800001	-0.54100001
56	1	4	0.58180702	-11.412	12.749	-3.928
57	1	5	-0.59009397	-10.434	12.845	-4.717
58	1	4	-0.37096801	-12.451	13.794	-3.8640001
59	1	4	0.056892999	-12.397	14.889	-4.6430001
60	1	6	0.20158	-11.585	15.037	-5.3429999
61	1	4	-0.36588499	-13.454	15.92	-4.5580001
62	1	6	0.202604	-13.364	16.781	-5.2010002
63	1	4	0.209567	-14.486	15.769	-3.7030001
64	1	1	-0.413959	-15.526	16.707001	-3.5710001
65	1	2	0.075537004	-15.761	17.851	-4.3959999
66	1	2	-0.139833	-16.688999	17.514	-5.5689998
67	1	2	-0.139833	-16.016001	16.628	-6.6259999
68	1	2	0.075537004	-16.924	16.406	-7.835
69	1	1	-0.413959	-18.089001	15.683	-7.4439998
70	1	4	0.209567	-19.117001	15.319	-8.323
71	1	4	-0.361927	-20.167999	14.645	-7.8369999
72	1	6	0.202604	-20.212999	14.392	-6.7859998
73	1	4	0.026466001	-21.278	14.24	-8.7250004
74	1	6	0.218173	-22.110001	13.697	-8.2950001
75	1	4	-0.29020399	-21.247999	14.542	-10.036
76	1	4	0.82925999	-22.355	14.14	-10.931
77	1	5	-0.53479803	-22.313999	14.429	-12.158
78	1	8	-0.67550999	-23.450001	13.44	-10.431
79	1	9	0.40286201	-24.211	13.161	-11.039
80	1	4	0.026466001	-20.083	15.289	-10.576
81	1	6	0.218173	-20.037001	15.543	-11.628
82	1	4	-0.361927	-19.079	15.656	-9.7709999
83	1	6	0.202604	-18.242001	16.198	-10.19
84	1	3	0.080870003	-17.214001	17.386	-8.2740002
85	1	3	0.080870003	-16.365999	15.821	-8.5979996
86	1	7	0.099785998	-15.764	15.639	-6.1880002
87	1	7	0.099785998	-15.079	17.112	-6.974
88	1	7	0.099785998	-17.599001	17.009001	-5.177
89	1	7	0.099785998	-17.006001	18.468	-6.0450001
90	1	3	0.080870003	-16.280001	18.608	-3.7709999
91	1	3	0.080870003	-14.82	18.33	-4.7360001
92	1	4	-0.36588499	-14.536	14.566	-2.845
93	1	6	0.202604	-15.358	14.438	-2.151
94	1	4	0.056892999	-13.58	13.633	-2.9189999
95	1	6	0.20158	-13.636	12.758	-2.283

Bonds

1	1	1	2
2	2	1	47
3	3	2	3
4	4	2	7
5	4	2	8
6	1	3	4
7	4	3	5
8	4	3	6
9	5	4	9
10	6	9	10
11	7	9	11
12	8	11	12
13	8	11	45
14	9	12	13
15	8	12	14
16	9	14	15
17	8	14	16
18	10	16	17
19	8	16	43
20	1	17	18
21	3	18	19
22	4	18	41
23	4	18	42
24	3	19	20
25	4	19	39
26	4	19	40
27	3	20	21
28	4	20	37
29	4	20	38
30	1	21	22
31	4	21	35
32	4	21	36
33	10	22	23
34	8	23	24
35	8	23	33
36	9	24	25
37	8	24	26
38	9	26	27
39	8	26	28
40	7	28	29
41	8	28	31
42	6	29	30
43	7	29	56
44	9	31	32
45	8	31	33
46	9	33	34
47	9	43	44
48	8	43	45
49	9	45	46
50	1	47	48
51	3	48	49
52	4	48	54
53	4	48	55
54	11	49	50
55	4	49	52
56	4	49	53
57	12	50	51
58	6	56	57
59	7	56	58
60	8	58	59
61	8	58	94
62	9	59	60
63	8	59	61
64	9	61	62
65	8	61	63
66	10	63	64
67	8	63	92
68	1	64	65
69	3	65	66
70	4	65	90
71	4	65	91
72	3	66	67
73	4	66	88
74	4	66	89
75	3	67	68
76	4	67	86
77	4	67	87
78	1	68	69
79	4	68	84
80	4	68	85
81	10	69	70
82	8	70	71
83	8	70	82
84	9	71	72
85	8	71	73
86	9	73	74
87	8	73	75
88	7	75	76
89	8	75	80
90	6	76	77
91	13	76	78
92	12	78	79
93	9	80	81
94	8	80	82
95	9	82	83
96	9	92	93
97	8	92	94
98	9	94	95

Angles

1	4	11	12	14
2	4	30	29	56
3	6	31	33	34
4	5	35	21	36
5	2	1	47	48
6	6	70	71	72
7	1	22	21	35
8	4	23	24	26
9	1	68	67	87
10	6	75	80	81
11	4	9	11	12
12	6	60	59	61
13	1	17	18	42
14	4	14	16	17
15	6	58	94	95
16	6	62	61	63
17	1	22	21	36
18	1	69	68	85
19	5	90	65	91
20	1	18	19	39
21	1	64	65	91
22	1	66	65	91
23	1	2	3	6
24	6	58	59	60
25	1	19	18	41
26	4	24	26	28
27	1	19	20	21
28	5	88	66	89
29	4	9	11	45
30	4	61	63	64
31	4	57	56	58
32	4	71	70	82
33	1	19	20	37
34	1	18	19	40
35	6	32	31	33
36	1	65	66	89
37	4	26	28	31
38	5	37	20	38
39	1	49	48	54
40	6	70	82	83
41	1	2	3	4
42	1	18	19	20
43	2	21	22	23
44	4	64	63	92
45	1	66	67	68
46	4	69	70	71
47	4	24	23	33
48	1	19	18	42
49	6	92	94	95
50	4	61	63	92
51	1	48	49	52
52	1	19	20	38
53	1	20	21	22
54	6	27	26	28
55	2	68	69	70
56	6	63	92	93
57	1	3	2	7
58	1	49	48	55
59	6	11	45	46
60	6	16	43	44
61	4	28	29	56
62	5	5	3	6
63	4	70	71	73
64	1	4	3	6
65	4	75	80	82
66	6	93	92	94
67	2	49	50	51
68	4	70	82	80
69	4	75	76	77
70	5	52	49	53
71	4	59	58	94
72	1	48	49	53
73	4	56	58	59
74	4	63	92	94
75	4	14	16	43
76	6	72	71	73
77	6	23	33	34
78	1	1	2	3
79	1	67	66	88
80	4	58	94	92
81	4	76	75	80
82	1	17	18	19
83	6	13	12	14
84	2	3	4	9
85	4	11	45	43
86	6	59	61	62
87	1	20	21	35
88	1	67	68	84
89	4	58	59	61
90	1	50	49	52
91	6	71	73	74
92	4	28	29	30
93	2	16	17	18
94	1	1	2	7
95	1	48	49	50
96	6	74	73	75
97	6	44	43	45
98	4	56	58	94
99	1	2	3	5
100	6	11	12	13
101	6	43	45	46
102	1	47	48	54
103	5	39	19	40
104	3	4	9	10
105	4	71	73	75
106	6	23	24	25
107	5	54	48	55
108	1	68	67	86
109	6	12	14	15
110	3	77	76	78
111	2	2	1	47
112	1	3	2	8
113	4	17	16	43
114	4	16	43	45
115	4	22	23	24
116	6	28	31	32
117	1	47	48	55
118	5	86	67	87
119	1	20	19	39
120	1	69	68	84
121	6	15	14	16
122	1	66	67	86
123	4	29	56	57
124	4	29	28	31
125	4	12	14	16
126	4	26	28	29
127	1	64	65	90
128	4	73	75	80
129	4	75	76	78
130	1	66	65	90
131	1	65	66	67
132	5	7	2	8
133	4	12	11	45
134	6	24	26	27
135	6	81	80	82
136	4	28	31	33
137	1	21	20	37
138	4	73	75	76
139	2	76	78	79
140	2	63	64	65
141	5	84	68	85
142	1	20	19	40
143	1	67	66	89
144	1	4	3	5
145	1	64	65	66
146	1	67	68	69
147	1	66	67	87
148	4	29	56	58
149	1	65	66	88
150	4	69	70	82
151	5	41	18	42
152	1	20	21	36
153	4	23	33	31
154	1	47	48	49
155	4	59	61	63
156	1	67	68	85
157	1	50	49	53
158	6	80	82	83
159	6	25	24	26
160	1	21	20	38
161	1	1	2	8
162	1	17	18	41
163	4	4	9	11
164	4	22	23	33
165	4	10	9	11

Dihedrals

1	12	77	76	75	80
2	14	59	58	94	95
3	13	35	21	20	38
4	14	56	58	94	92
5	20	21	20	19	39
6	14	22	23	24	26
7	14	23	33	31	32
8	14	24	23	33	34
9	13	39	19	18	41
10	13	87	67	66	89
11	3	64	65	66	89
11	4	64	65	66	89
12	13	88	66	65	90
13	13	86	67	66	89
14	13	6	3	2	8
15	14	17	16	43	45
16	3	1	2	3	5
16	4	1	2	3	5
17	7	2	3	4	9
17	8	2	3	4	9
18	14	44	43	45	46
19	21	48	49	50	51
19	22	48	49	50	51
20	15	68	69	70	71
21	14	23	33	31	28
22	14	70	82	80	75
23	20	19	20	21	35
24	5	23	22	21	36
25	14	71	70	82	83
26	14	76	75	80	82
27	13	38	20	19	39
28	14	9	11	12	14
29	5	6	3	4	9
30	14	60	59	61	62
31	14	24	26	28	31
32	3	17	18	19	39
32	4	17	18	19	39
33	20	21	20	19	40
34	13	39	19	18	42
35	13	37	20	19	39
36	14	58	59	61	62
37	23	51	50	49	52
38	14	63	92	94	95
39	14	72	71	73	74
40	3	69	68	67	86
40	4	69	68	67	86
41	17	18	19	20	21
41	18	18	19	20	21
41	19	18	19	20	21
42	14	69	70	71	73
43	7	63	64	65	66
43	8	63	64	65	66
44	13	5	3	2	7
45	14	14	16	43	45
46	14	15	14	16	43
47	14	24	23	33	31
48	20	19	20	21	36
49	12	73	75	76	78
50	1	47	48	49	50
50	2	47	48	49	50
51	14	81	80	82	83
52	3	22	21	20	38
52	4	22	21	20	38
53	14	69	70	82	80
54	20	67	66	65	90
55	3	4	3	2	7
55	4	4	3	2	7
56	14	9	11	45	46
57	14	73	71	70	82
58	13	38	20	19	40
59	14	61	63	92	94
60	14	56	58	59	60
61	12	57	56	58	94
62	12	26	28	29	56
63	20	20	19	18	42
64	5	16	17	18	41
65	14	58	94	92	93
66	20	66	67	68	84
67	3	50	49	48	55
67	4	50	49	48	55
68	14	12	14	16	43
69	14	13	12	14	15
70	16	17	18	19	20
71	13	36	21	20	38
72	14	72	71	73	75
73	3	69	68	67	87
73	4	69	68	67	87
74	20	68	67	66	88
75	14	11	12	14	15
76	14	70	71	73	74
77	13	5	3	2	8
78	14	27	26	28	29
79	6	2	1	47	48
80	14	25	24	26	27
81	20	18	19	20	38
82	14	11	45	43	44
83	3	4	3	2	8
83	4	4	3	2	8
84	15	18	17	16	43
85	17	65	66	67	68
85	18	65	66	67	68
85	19	65	66	67	68
86	9	3	4	9	10
86	10	3	4	9	10
87	12	28	29	56	58
88	14	56	58	59	61
89	14	61	59	58	94
90	5	16	17	18	42
91	5	5	3	4	9
92	13	84	68	67	86
93	5	63	64	65	90
94	13	40	19	18	41
95	15	61	63	64	65
96	20	68	67	66	89
97	14	70	71	73	75
98	15	21	22	23	24
99	13	88	66	65	91
100	14	93	92	94	95
101	14	59	58	94	92
102	15	65	64	63	92
103	14	12	11	45	46
104	14	16	43	45	46
105	14	11	45	43	16
106	5	1	47	48	54
107	5	63	64	65	91
108	5	70	69	68	84
109	14	60	59	61	63
110	24	75	76	78	79
111	3	17	18	19	40
111	4	17	18	19	40
112	14	23	24	26	27
113	12	29	56	58	94
114	13	37	20	19	40
115	14	70	82	80	81
116	14	71	70	82	80
117	14	58	59	61	63
118	23	51	50	49	53
119	14	75	80	82	83
120	12	4	9	11	12
121	7	16	17	18	19
121	8	16	17	18	19
122	14	26	24	23	33
123	14	25	24	23	33
124	14	64	63	92	93
125	14	71	73	75	76
126	13	85	68	67	86
127	25	77	76	78	79
127	26	77	76	78	79
128	12	31	28	29	56
129	5	8	2	1	47
130	14	32	31	33	34
131	13	52	49	48	54
132	20	67	66	65	91
133	16	66	67	68	69
134	12	10	9	11	12
135	16	64	65	66	67
136	14	23	24	26	28
137	3	1	2	3	6
137	4	1	2	3	6
138	14	12	11	45	43
139	12	57	56	58	59
140	14	12	14	16	17
141	14	29	28	31	32
142	20	66	67	68	85
143	14	13	12	11	45
144	14	13	12	14	16
145	11	3	4	9	11
146	14	9	11	45	43
147	13	35	21	20	37
148	15	21	22	23	33
149	13	85	68	67	87
150	14	11	12	14	16
151	12	30	29	56	57
152	12	30	29	28	31
153	14	24	26	28	29
154	13	87	67	66	88
155	14	22	23	24	25
156	13	53	49	48	54
157	7	20	21	22	23
157	8	20	21	22	23
158	3	47	48	49	52
158	4	47	48	49	52
159	14	25	24	26	28
160	14	59	61	63	92
161	3	64	65	66	88
161	4	64	65	66	88
162	14	17	16	43	44
163	12	4	9	11	45
164	12	26	28	29	30
165	12	78	76	75	80
166	14	73	75	80	81
167	14	76	75	80	81
168	13	84	68	67	87
169	5	23	22	21	35
170	14	22	23	33	34
171	13	40	19	18	42
172	14	62	61	63	92
173	14	60	59	58	94
174	14	9	11	12	13
175	14	71	73	75	80
176	12	10	9	11	45
177	12	30	29	56	58
178	14	27	26	28	31
179	13	53	49	48	55
180	3	47	48	49	53
180	4	47	48	49	53
181	14	69	70	82	83
182	15	68	69	70	82
183	14	15	14	16	17
184	14	69	70	71	72
185	14	59	61	63	64
186	14	73	75	80	82
187	7	67	68	69	70
187	8	67	68	69	70
188	14	14	12	11	45
189	14	14	16	43	44
190	20	65	66	67	86
191	5	1	47	48	55
192	12	73	75	76	77
193	5	70	69	68	85
194	3	22	21	20	37
194	4	22	21	20	37
195	14	26	28	31	32
196	14	56	58	94	95
197	14	61	63	92	93
198	5	7	2	1	47
199	12	29	56	58	59
200	5	3	2	1	47
201	13	89	66	65	90
202	20	20	19	18	41
203	14	72	71	70	82
204	14	62	61	63	64
205	3	50	49	48	54
205	4	50	49	48	54
206	14	74	73	75	80
207	14	22	23	33	31
208	16	19	20	21	22
209	13	36	21	20	37
210	14	64	63	92	94
211	14	58	94	92	63
212	20	65	66	67	87
213	20	18	19	20	37
214	13	52	49	48	55
215	14	74	73	75	76
216	13	86	67	66	88
217	13	6	3	2	7
218	14	28	31	33	34
219	14	26	28	31	33
220	1	1	2	3	4
220	2	1	2	3	4
221	12	28	29	56	57
222	15	14	16	17	18
223	13	89	66	65	91
224	5	1	47	48	49
225	14	29	28	31	33

Impropers

2	2	29	30	56	28
7	2	80	81	82	75
23	2	71	72	73	70
26	2	33	34	23	31
32	1	9	4	10	11
37	2	92	93	94	63
38	2	31	28	32	33
48	2	26	28	24	27
51	2	56	58	29	57
59	2	14	15	16	12
71	1	76	77	78	75
73	2	73	74	75	71
89	2	94	58	92	95
92	2	12	11	13	14
97	2	45	11	43	46
101	2	23	22	24	33
112	1	76	75	77	78
113	2	80	82	75	81
115	2	23	24	33	22
118	2	14	12	15	16
127	2	29	28	30	56
132	2	16	43	14	17
133	2	82	80	83	70
138	2	31	32	33	28
144	2	82	70	80	83
147	2	11	12	45	9
154	2	14	16	12	15
159	2	12	13	14	11
171	2	80	75	81	82
172	2	94	95	58	92
176	2	92	94	63	93
185	2	26	24	27	28
186	2	45	43	46	11
187	2	92	63	93	94
191	2	59	58	60	61
193	2	43	16	44	45
198	2	24	26	23	25
200	2	75	73	76	80
211	2	59	61	58	60
216	2	75	76	80	73
218	2	56	57	58	29
221	1	76	78	75	77
222	1	9	11	4	10
224	2	73	71	74	75
225	2	61	63	59	62
230	2	61	59	62	63
245	2	59	60	61	58
249	2	28	29	31	26
252	2	28	31	26	29
269	1	9	10	11	4
272	2	71	70	72	73
275	2	58	56	59	94
281	2	71	73	70	72
287	2	43	45	16	44
298	2	28	26	29	31
300	2	11	9	12	45
328	2	33	31	34	23
329	2	63	92	61	64
330	2	12	14	11	13
333	2	31	33	28	32
338	2	75	80	73	76
344	2	16	17	43	14
347	2	63	61	64	92
364	2	23	33	22	24
365	2	16	14	17	43
370	2	70	82	69	71
374	2	24	25	26	23
381	2	24	23	25	26
384	2	58	59	94	56
385	2	70	69	71	82
387	2	94	92	95	58
392	2	63	64	92	61
393	2	43	44	45	16
394	2	45	46	11	43
396	2	33	23	31	34
402	2	61	62	63	59
403	2	82	83	70	80
408	2	29	56	28	30
421	2	58	94	56	59
431	2	73	75	71	74
432	2	70	71	82	69
436	2	11	45	9	12
451	2	56	29	57	58
454	2	26	27	28	24
