Title

95 atoms
98 bonds
165 angles
255 dihedrals
84 impropers

9 atom types
13 bond types
6 angle types
26 dihedral types
2 improper types
-24.21100044 75.78899956 xlo xhi
-1.483999968 98.51600003 ylo yhi
-12.15799999 87.84200001 zlo zhi
0.0 0.0 0.0 xy xz yz

Masses

1	15.99943
2	12.01078
3	1.007947
4	12.01078
5	15.99943
6	1.007947
7	1.007947
8	15.99943
9	1.007947


Pair Coeffs

1	0.16846514	3.0251065
2	0.10884061	3.3795318
3	0.016409246	2.5832257
4	0.086879315	3.4806469
5	0.2102061	3.0398122
6	0.015611343	2.5725815
7	0.015779483	2.6445434
8	0.20947353	2.99716
9	1.2326e-05	0.53453923

Bond Coeffs

1 harmonic	366.7408841747	1.425895053732
2 harmonic	300.03137914615	1.451203938761
3 harmonic	264.62148576755	1.52190126495
4 harmonic	370.04670688625	1.093899492634
5 harmonic	301.15400723785	1.345741232799
6 harmonic	582.698766451	1.225198386222
7 harmonic	279.1350963404	1.454628925034
8 harmonic	360.7852444772	1.387193227181
9 harmonic	397.2545789619	1.085358495916
10 harmonic	425.69104206635	1.362945806494
11 harmonic	329.96998057905	1.427343958716
12 harmonic	543.5267831885	0.9716763312559
13 harmonic	385.7604595587	1.369745182308


Angle Coeffs

1 harmonic	53.20531626545	116.5475862634
2 harmonic	65.09061609600001	110.3538806181
3 harmonic	201.41175231035	127.4691416191
4 harmonic	57.8982893754	126.8062420451
5 harmonic	48.776492647595	115.6030999533
6 harmonic	34.066775159195	129.1835929926


Dihedral Coeffs

1 fourier 1	-0.0309670556842	3	0
2 fourier 1	0.4598191477945	2	0
3 fourier 1	0.1115525666802	3	0
4 fourier 1	0.3432490222662	1	0
5 fourier 1	0.0473758381877	3	0
6 fourier 1	0.457973137376	1	0
7 fourier 1	0.1918272375143	3	0
8 fourier 1	0.9202179876409	1	180
9 fourier 1	1.163809172478	2	180
10 fourier 1	0.1679186987369	1	180
11 fourier 1	2.779853741805	2	180
12 fourier 1	0.9974165607242	2	180
13 fourier 1	0.1911926717192	3	0
14 fourier 1	3.661930099076	2	180
15 fourier 1	1.532232714475	2	180
16 fourier 1	0.1155372516788	3	0
17 fourier 1	0.09223874044423	3	0
18 fourier 1	0.3159935921949	2	180
19 fourier 1	0.3247796806857	1	180
20 fourier 1	0.1040663847541	3	0
21 fourier 1	0.3445382149273	3	0
22 fourier 1	0.1364556373303	1	0
23 fourier 1	0.3026390167484	3	0
24 fourier 1	2.687457892086	2	180
25 fourier 1	2.772607909663	2	180
26 fourier 1	0.09692684957115	1	0


Improper Coeffs

1 3.5	-1	2
2 0.3666666666666667	-1	2


Atoms

1	1	1	-0.13947099	1.576	-0.336	0.85699999
2	1	2	0.051245999	0.63599998	-0.419	-0.17900001
3	1	2	0.15634701	-0.71899998	0.11	0.28999999
4	1	1	-0.50354803	-1.675	-0.035999998	-0.72399998
5	1	3	0.088100001	-1.051	-0.46900001	1.177
6	1	3	0.088100001	-0.63099998	1.1799999	0.58899999
7	1	3	0.095605001	0.52999997	-1.484	-0.477
8	1	3	0.095605001	0.98699999	0.154	-1.068
9	1	4	0.79096597	-1.49	0.71499997	-1.4170001
10	1	5	-0.55952698	-0.35299999	0.78200001	-1.9529999
11	1	4	-0.301043	-2.5469999	1.682	-1.763
12	1	4	0.022537	-3.7550001	1.596	-1.183
13	1	6	0.218173	-3.9679999	0.81999999	-0.45699999
14	1	4	-0.361927	-4.8179998	2.563	-1.524
15	1	6	0.202604	-5.7849998	2.4779999	-1.043
16	1	4	0.209567	-4.5939999	3.5420001	-2.4119999
17	1	1	-0.413959	-5.6370001	4.4359999	-2.6960001
18	1	2	0.075537004	-5.5180001	5.6100001	-3.4990001
19	1	2	-0.139833	-4.7610002	6.7249999	-2.7620001
20	1	2	-0.139833	-5.335	7.046	-1.37
21	1	2	0.075537004	-6.7610002	7.6040001	-1.408
22	1	1	-0.413959	-6.809	8.776	-2.217
23	1	4	0.209567	-7.9749999	9.5150003	-2.457
24	1	4	-0.36588499	-7.9000001	10.594	-3.2490001
25	1	6	0.202604	-6.9520001	10.88	-3.688
26	1	4	0.056892999	-9.1020002	11.404	-3.5320001
27	1	6	0.20158	-9.0089998	12.27	-4.177
28	1	4	-0.37096801	-10.289	11.068	-2.9990001
29	1	4	0.58180702	-11.484	11.88	-3.286
30	1	5	-0.59009302	-12.604	11.578	-2.7939999
31	1	4	0.056892999	-10.377	9.8739996	-2.1210001
32	1	6	0.20158	-11.324	9.5880003	-1.681
33	1	4	-0.36588499	-9.2869997	9.1409998	-1.864
34	1	6	0.202604	-9.3760004	8.276	-1.22
35	1	3	0.080870003	-7.461	6.8369999	-1.802
36	1	3	0.080870003	-7.0689998	7.8590002	-0.37099999
37	1	7	0.099785998	-5.316	6.1350002	-0.73400003
38	1	7	0.099785998	-4.677	7.7979999	-0.884
39	1	7	0.099785998	-3.7	6.4239998	-2.6370001
40	1	7	0.099785998	-4.763	7.6420002	-3.3900001
41	1	3	0.080870003	-5.0180001	5.3740001	-4.4619999
42	1	3	0.080870003	-6.5370002	5.9660001	-3.757
43	1	4	-0.361927	-3.2579999	3.635	-3.062
44	1	6	0.202604	-3.0469999	4.401	-3.7939999
45	1	4	0.022537	-2.2939999	2.7579999	-2.753
46	1	6	0.218173	-1.329	2.8399999	-3.237
47	1	1	-0.13379601	1.845	0.61799997	0.92000002
48	1	2	0.023178	3.148	0.70099998	0.41100001
49	1	2	0.095195003	4.1529999	0.17200001	1.434
50	1	8	-0.67870498	5.461	0.31799999	0.95200002
51	1	9	0.394916	5.5970001	-0.40000001	0.27900001
52	1	3	0.093239002	4.0549998	0.75199997	2.3759999
53	1	3	0.093239002	3.941	-0.89700001	1.663
54	1	3	0.096294001	3.3759999	1.766	0.192
55	1	3	0.096294001	3.23	0.12800001	-0.54100001
56	1	4	0.58180702	-11.412	12.749	-3.928
57	1	5	-0.59009397	-10.434	12.845	-4.717
58	1	4	-0.37096801	-12.451	13.794	-3.8640001
59	1	4	0.056892999	-12.397	14.889	-4.6430001
60	1	6	0.20158	-11.585	15.037	-5.3429999
61	1	4	-0.36588499	-13.454	15.92	-4.5580001
62	1	6	0.202604	-13.364	16.781	-5.2010002
63	1	4	0.209567	-14.486	15.769	-3.7030001
64	1	1	-0.413959	-15.526	16.707001	-3.5710001
65	1	2	0.075537004	-15.761	17.851	-4.3959999
66	1	2	-0.139833	-16.688999	17.514	-5.5689998
67	1	2	-0.139833	-16.016001	16.628	-6.6259999
68	1	2	0.075537004	-16.924	16.406	-7.835
69	1	1	-0.413959	-18.089001	15.683	-7.4439998
70	1	4	0.209567	-19.117001	15.319	-8.323
71	1	4	-0.361927	-20.167999	14.645	-7.8369999
72	1	6	0.202604	-20.212999	14.392	-6.7859998
73	1	4	0.026466001	-21.278	14.24	-8.7250004
74	1	6	0.218173	-22.110001	13.697	-8.2950001
75	1	4	-0.29020399	-21.247999	14.542	-10.036
76	1	4	0.82925999	-22.355	14.14	-10.931
77	1	5	-0.53479803	-22.313999	14.429	-12.158
78	1	8	-0.67550999	-23.450001	13.44	-10.431
79	1	9	0.40286201	-24.211	13.161	-11.039
80	1	4	0.026466001	-20.083	15.289	-10.576
81	1	6	0.218173	-20.037001	15.543	-11.628
82	1	4	-0.361927	-19.079	15.656	-9.7709999
83	1	6	0.202604	-18.242001	16.198	-10.19
84	1	3	0.080870003	-17.214001	17.386	-8.2740002
85	1	3	0.080870003	-16.365999	15.821	-8.5979996
86	1	7	0.099785998	-15.764	15.639	-6.1880002
87	1	7	0.099785998	-15.079	17.112	-6.974
88	1	7	0.099785998	-17.599001	17.009001	-5.177
89	1	7	0.099785998	-17.006001	18.468	-6.0450001
90	1	3	0.080870003	-16.280001	18.608	-3.7709999
91	1	3	0.080870003	-14.82	18.33	-4.7360001
92	1	4	-0.36588499	-14.536	14.566	-2.845
93	1	6	0.202604	-15.358	14.438	-2.151
94	1	4	0.056892999	-13.58	13.633	-2.9189999
95	1	6	0.20158	-13.636	12.758	-2.283

Bonds

1	1	1	2
2	2	1	47
3	3	2	3
4	4	2	7
5	4	2	8
6	1	3	4
7	4	3	5
8	4	3	6
9	5	4	9
10	6	9	10
11	7	9	11
12	8	11	12
13	8	11	45
14	9	12	13
15	8	12	14
16	9	14	15
17	8	14	16
18	10	16	17
19	8	16	43
20	1	17	18
21	3	18	19
22	4	18	41
23	4	18	42
24	3	19	20
25	4	19	39
26	4	19	40
27	3	20	21
28	4	20	37
29	4	20	38
30	1	21	22
31	4	21	35
32	4	21	36
33	10	22	23
34	8	23	24
35	8	23	33
36	9	24	25
37	8	24	26
38	9	26	27
39	8	26	28
40	7	28	29
41	8	28	31
42	6	29	30
43	7	29	56
44	9	31	32
45	8	31	33
46	9	33	34
47	9	43	44
48	8	43	45
49	9	45	46
50	1	47	48
51	3	48	49
52	4	48	54
53	4	48	55
54	11	49	50
55	4	49	52
56	4	49	53
57	12	50	51
58	6	56	57
59	7	56	58
60	8	58	59
61	8	58	94
62	9	59	60
63	8	59	61
64	9	61	62
65	8	61	63
66	10	63	64
67	8	63	92
68	1	64	65
69	3	65	66
70	4	65	90
71	4	65	91
72	3	66	67
73	4	66	88
74	4	66	89
75	3	67	68
76	4	67	86
77	4	67	87
78	1	68	69
79	4	68	84
80	4	68	85
81	10	69	70
82	8	70	71
83	8	70	82
84	9	71	72
85	8	71	73
86	9	73	74
87	8	73	75
88	7	75	76
89	8	75	80
90	6	76	77
91	13	76	78
92	12	78	79
93	9	80	81
94	8	80	82
95	9	82	83
96	9	92	93
97	8	92	94
98	9	94	95

Angles

1	5	90	65	91
2	5	84	68	85
3	1	1	2	8
4	6	13	12	14
5	5	7	2	8
6	4	12	11	45
7	1	17	18	19
8	4	56	58	94
9	4	22	23	24
10	1	19	20	37
11	4	69	70	82
12	4	9	11	12
13	1	64	65	90
14	5	35	21	36
15	4	75	80	82
16	1	18	19	39
17	5	88	66	89
18	1	67	66	89
19	1	64	65	91
20	6	75	80	81
21	4	9	11	45
22	1	1	2	7
23	6	81	80	82
24	5	5	3	6
25	4	29	56	57
26	1	48	49	53
27	6	63	92	93
28	2	76	78	79
29	6	71	73	74
30	1	22	21	35
31	6	70	82	83
32	4	24	23	33
33	4	26	28	31
34	4	12	14	16
35	1	69	68	85
36	4	70	71	73
37	4	26	28	29
38	3	77	76	78
39	1	1	2	3
40	2	16	17	18
41	1	19	18	41
42	2	49	50	51
43	5	41	18	42
44	1	66	67	87
45	6	12	14	15
46	4	11	12	14
47	1	68	67	87
48	4	56	58	59
49	1	18	19	20
50	4	75	76	77
51	1	47	48	49
52	6	31	33	34
53	4	63	92	94
54	1	19	18	42
55	6	27	26	28
56	4	59	58	94
57	1	50	49	53
58	1	20	21	36
59	6	80	82	83
60	4	23	33	31
61	2	68	69	70
62	1	2	3	5
63	4	64	63	92
64	1	66	67	68
65	4	16	43	45
66	6	70	71	72
67	6	72	71	73
68	2	63	64	65
69	4	23	24	26
70	1	17	18	42
71	1	2	3	6
72	1	47	48	54
73	1	47	48	55
74	1	22	21	36
75	4	69	70	71
76	1	48	49	52
77	1	20	19	40
78	6	74	73	75
79	3	4	9	10
80	1	65	66	88
81	5	86	67	87
82	1	4	3	5
83	2	3	4	9
84	1	67	66	88
85	4	73	75	76
86	4	22	23	33
87	1	49	48	54
88	4	28	29	56
89	1	49	48	55
90	2	21	22	23
91	6	58	59	60
92	4	59	61	63
93	4	28	31	33
94	1	4	3	6
95	1	65	66	67
96	6	11	45	46
97	6	16	43	44
98	6	60	59	61
99	1	17	18	41
100	4	4	9	11
101	2	2	1	47
102	4	58	94	92
103	1	67	68	84
104	4	71	70	82
105	1	48	49	50
106	4	57	56	58
107	2	1	47	48
108	4	10	9	11
109	6	43	45	46
110	1	50	49	52
111	6	15	14	16
112	4	14	16	43
113	1	19	20	21
114	4	58	59	61
115	6	93	92	94
116	6	23	33	34
117	1	64	65	66
118	5	52	49	53
119	6	62	61	63
120	4	76	75	80
121	1	21	20	38
122	1	18	19	40
123	1	20	21	35
124	6	23	24	25
125	1	3	2	8
126	4	61	63	64
127	4	24	26	28
128	6	58	94	95
129	1	67	68	69
130	6	59	61	62
131	1	65	66	89
132	1	66	65	90
133	6	11	12	13
134	5	54	48	55
135	1	20	19	39
136	6	25	24	26
137	6	32	31	33
138	1	66	65	91
139	6	92	94	95
140	4	73	75	80
141	4	28	29	30
142	4	14	16	17
143	1	2	3	4
144	1	19	20	38
145	4	11	45	43
146	1	3	2	7
147	4	30	29	56
148	5	39	19	40
149	1	69	68	84
150	1	20	21	22
151	4	61	63	92
152	6	28	31	32
153	4	71	73	75
154	4	70	82	80
155	1	21	20	37
156	4	17	16	43
157	4	29	28	31
158	6	44	43	45
159	1	66	67	86
160	5	37	20	38
161	1	68	67	86
162	6	24	26	27
163	1	67	68	85
164	4	75	76	78
165	4	29	56	58

Dihedrals

1	20	66	67	68	85
2	14	27	26	28	31
3	20	67	66	65	91
4	1	1	2	3	4
4	2	1	2	3	4
5	5	3	2	1	47
6	14	24	23	33	31
7	14	27	26	28	29
8	13	37	20	19	40
9	5	63	64	65	90
10	13	86	67	66	88
11	20	19	20	21	36
12	14	60	59	61	63
13	14	61	63	92	93
14	12	57	56	58	59
15	14	70	71	73	74
16	13	85	68	67	86
17	14	73	75	80	82
18	14	60	59	58	94
19	5	63	64	65	91
20	16	66	67	68	69
21	13	85	68	67	87
22	14	15	14	16	17
23	13	38	20	19	40
24	12	57	56	58	94
25	14	63	92	94	95
26	16	64	65	66	67
27	14	72	71	73	74
28	13	88	66	65	90
29	14	58	94	92	93
30	5	70	69	68	85
31	17	65	66	67	68
31	18	65	66	67	68
31	19	65	66	67	68
32	14	26	24	23	33
33	13	88	66	65	91
34	12	30	29	56	58
35	12	10	9	11	45
36	14	25	24	26	27
37	14	12	14	16	17
38	14	72	71	70	82
39	14	74	73	75	80
40	14	28	31	33	34
41	14	69	70	82	83
42	14	13	12	14	16
43	14	64	63	92	94
44	12	26	28	29	56
45	14	44	43	45	46
46	14	70	82	80	81
47	20	18	19	20	37
48	24	75	76	78	79
49	14	58	94	92	63
50	14	69	70	71	72
51	14	13	12	14	15
52	5	7	2	1	47
53	12	29	56	58	94
54	14	13	12	11	45
55	14	26	28	31	33
56	14	61	63	92	94
57	3	69	68	67	87
57	4	69	68	67	87
58	13	35	21	20	37
59	14	73	71	70	82
60	21	48	49	50	51
60	22	48	49	50	51
61	14	14	16	43	44
62	5	8	2	1	47
63	14	60	59	61	62
64	14	76	75	80	81
65	15	68	69	70	82
66	14	61	59	58	94
67	14	62	61	63	64
68	12	30	29	56	57
69	14	59	61	63	64
70	3	64	65	66	89
70	4	64	65	66	89
71	14	12	11	45	46
72	14	58	59	61	62
73	15	65	64	63	92
74	14	14	16	43	45
75	14	23	33	31	32
76	14	25	24	23	33
77	6	2	1	47	48
78	14	71	73	75	76
79	13	37	20	19	39
80	13	36	21	20	38
81	14	9	11	45	46
82	12	30	29	28	31
83	14	73	75	80	81
84	5	23	22	21	35
85	12	28	29	56	58
86	3	47	48	49	53
86	4	47	48	49	53
87	14	62	61	63	92
88	14	24	23	33	34
89	14	24	26	28	29
90	14	59	61	63	92
91	14	14	12	11	45
92	3	17	18	19	40
92	4	17	18	19	40
93	13	38	20	19	39
94	13	87	67	66	89
95	3	4	3	2	8
95	4	4	3	2	8
96	5	1	47	48	54
97	15	21	22	23	24
98	5	1	47	48	55
99	20	20	19	18	41
100	11	3	4	9	11
101	7	16	17	18	19
101	8	16	17	18	19
102	13	52	49	48	54
103	12	29	56	58	59
104	13	52	49	48	55
105	13	84	68	67	86
106	20	19	20	21	35
107	14	29	28	31	33
108	5	5	3	4	9
109	3	17	18	19	39
109	4	17	18	19	39
110	14	11	12	14	16
111	12	26	28	29	30
112	3	47	48	49	52
112	4	47	48	49	52
113	20	68	67	66	89
114	13	39	19	18	41
115	20	20	19	18	42
116	5	1	47	48	49
117	25	77	76	78	79
117	26	77	76	78	79
118	14	17	16	43	44
119	14	11	12	14	15
120	13	36	21	20	37
121	14	26	28	31	32
122	3	22	21	20	38
122	4	22	21	20	38
123	23	51	50	49	53
124	14	70	82	80	75
125	14	64	63	92	93
126	7	67	68	69	70
126	8	67	68	69	70
127	14	12	11	45	43
128	3	1	2	3	5
128	4	1	2	3	5
129	14	22	23	24	25
130	5	6	3	4	9
131	16	19	20	21	22
132	9	3	4	9	10
132	10	3	4	9	10
133	13	39	19	18	42
134	13	86	67	66	89
135	14	71	70	82	80
136	14	17	16	43	45
137	14	56	58	59	60
138	14	71	70	82	83
139	14	11	45	43	16
140	14	9	11	45	43
141	14	11	45	43	44
142	3	1	2	3	6
142	4	1	2	3	6
143	14	23	24	26	28
144	14	24	26	28	31
145	20	21	20	19	40
146	13	53	49	48	54
147	13	53	49	48	55
148	20	65	66	67	86
149	14	56	58	94	92
150	14	59	58	94	95
151	14	71	73	75	80
152	12	78	76	75	80
153	1	47	48	49	50
153	2	47	48	49	50
154	14	75	80	82	83
155	7	2	3	4	9
155	8	2	3	4	9
156	14	16	43	45	46
157	13	5	3	2	8
158	12	4	9	11	12
159	14	23	33	31	28
160	5	23	22	21	36
161	3	22	21	20	37
161	4	22	21	20	37
162	12	73	75	76	78
163	13	40	19	18	42
164	14	56	58	59	61
165	14	81	80	82	83
166	7	63	64	65	66
166	8	63	64	65	66
167	13	84	68	67	87
168	14	12	14	16	43
169	13	6	3	2	8
170	14	29	28	31	32
171	3	64	65	66	88
171	4	64	65	66	88
172	14	9	11	12	13
173	20	18	19	20	38
174	12	28	29	56	57
175	14	59	58	94	92
176	3	4	3	2	7
176	4	4	3	2	7
177	7	20	21	22	23
177	8	20	21	22	23
178	13	5	3	2	7
179	14	56	58	94	95
180	5	70	69	68	84
181	5	16	17	18	41
182	14	23	24	26	27
183	13	35	21	20	38
184	13	89	66	65	90
185	14	70	71	73	75
186	12	77	76	75	80
187	15	61	63	64	65
188	12	10	9	11	12
189	13	89	66	65	91
190	14	58	59	61	63
191	13	6	3	2	7
192	14	74	73	75	76
193	14	22	23	33	31
194	5	16	17	18	42
195	14	72	71	73	75
196	17	18	19	20	21
196	18	18	19	20	21
196	19	18	19	20	21
197	13	87	67	66	88
198	23	51	50	49	52
199	15	14	16	17	18
200	13	40	19	18	41
201	14	69	70	82	80
202	14	93	92	94	95
203	16	17	18	19	20
204	14	9	11	12	14
205	20	65	66	67	87
206	20	66	67	68	84
207	3	69	68	67	86
207	4	69	68	67	86
208	14	15	14	16	43
209	3	50	49	48	54
209	4	50	49	48	54
210	15	21	22	23	33
211	20	21	20	19	39
212	3	50	49	48	55
212	4	50	49	48	55
213	14	76	75	80	82
214	14	22	23	33	34
215	15	68	69	70	71
216	14	22	23	24	26
217	20	68	67	66	88
218	14	69	70	71	73
219	14	32	31	33	34
220	14	25	24	26	28
221	20	67	66	65	90
222	15	18	17	16	43
223	12	73	75	76	77
224	12	4	9	11	45
225	12	31	28	29	56

Impropers

4	2	92	63	93	94
15	2	33	23	31	34
16	2	23	24	33	22
19	2	75	76	80	73
30	2	26	28	24	27
36	2	23	33	22	24
40	2	29	30	56	28
42	2	94	58	92	95
44	2	70	82	69	71
52	2	61	62	63	59
55	1	9	10	11	4
63	2	75	73	76	80
74	2	71	73	70	72
78	2	56	58	29	57
84	2	92	93	94	63
93	2	26	24	27	28
100	2	11	12	45	9
101	2	11	45	9	12
110	2	73	71	74	75
116	2	58	56	59	94
123	2	94	95	58	92
141	2	33	34	23	31
149	2	56	57	58	29
151	2	29	56	28	30
153	2	59	60	61	58
156	1	76	75	77	78
160	2	43	16	44	45
162	2	71	70	72	73
166	2	12	11	13	14
172	2	24	23	25	26
173	2	59	61	58	60
178	2	24	26	23	25
179	2	56	29	57	58
180	2	12	14	11	13
188	2	63	61	64	92
202	2	70	69	71	82
203	2	75	80	73	76
210	2	58	59	94	56
213	2	70	71	82	69
214	2	29	28	30	56
219	2	12	13	14	11
226	2	16	17	43	14
227	2	80	75	81	82
238	2	16	14	17	43
239	2	23	22	24	33
245	2	71	72	73	70
260	2	14	12	15	16
261	2	28	31	26	29
263	2	82	80	83	70
265	2	63	92	61	64
273	2	28	26	29	31
274	2	61	59	62	63
275	2	33	31	34	23
284	2	16	43	14	17
297	1	9	4	10	11
299	2	43	45	16	44
306	2	58	94	56	59
311	2	80	81	82	75
313	2	43	44	45	16
314	2	14	16	12	15
315	1	9	11	4	10
318	2	26	27	28	24
322	2	63	64	92	61
330	2	80	82	75	81
335	2	82	83	70	80
344	2	31	28	32	33
356	1	76	78	75	77
368	2	73	74	75	71
370	2	45	43	46	11
373	2	31	33	28	32
382	2	92	94	63	93
383	2	45	11	43	46
385	2	28	29	31	26
392	2	61	63	59	62
401	2	73	75	71	74
408	2	11	9	12	45
412	2	59	58	60	61
422	2	24	25	26	23
436	2	45	46	11	43
439	2	82	70	80	83
442	2	31	32	33	28
446	1	76	77	78	75
455	2	94	92	95	58
456	2	14	15	16	12
