Title

360 atoms
359 bonds
662 angles
1254 dihedrals
102 impropers

11 atom types
14 bond types
9 angle types
35 dihedral types
3 improper types
-8.996999741 91.00300026 xlo xhi
-2.134000063 97.86599994 ylo yhi
-9.100000381 90.89999962 zlo zhi
0.0 0.0 0.0 xy xz yz

Masses

1	15.99943
2	12.01078
3	14.00672
4	12.01078
5	1.007947
6	1.007947
7	1.007947
8	15.99943
9	12.01078
10	15.99943
11	1.007947


Pair Coeffs

1	0.2102061	3.0398122
2	0.086879315	3.4806469
3	0.16769152	3.206876
4	0.10884061	3.3795318
5	0.014090815	1.1034277
6	0.016409246	2.5832257
7	0.015779483	2.6445434
8	0.16846514	3.0251065
9	0.21	3.3996695
10	0.20947353	2.99716
11	1.2326e-05	0.53453923

Bond Coeffs

1 harmonic	582.698766451	1.225198386222
2 harmonic	492.76746816345	1.381897776683
3 harmonic	301.15400723785	1.345741232799
4 harmonic	352.0565580496	1.450098586273
5 harmonic	505.144496193	1.019481865027
6 harmonic	264.62148576755	1.52190126495
7 harmonic	370.04670688625	1.093899492634
8 harmonic	279.1350963404	1.454628925034
9 harmonic	366.7408841747	1.425895053732
10 harmonic	300.03137914615	1.451203938761
11 harmonic	366.34047229585	1.464762957261
12 harmonic	602.81384337	1.196112346392
13 harmonic	329.96998057905	1.427343958716
14 harmonic	543.5267831885	0.9716763312559


Angle Coeffs

1 harmonic	57.8982893754	126.8062420451
2 harmonic	201.41175231035	127.4691416191
3 harmonic	55.42182150775	117.3465570514
4 harmonic	63.44422595415	115.5071327674
5 harmonic	65.09061609600001	110.3538806181
6 harmonic	53.20531626545	116.5475862634
7 harmonic	48.776492647595	115.6030999533
8 harmonic	55.07882548015	112.8714009681
9 harmonic	33.56981613361	180


Dihedral Coeffs

1 fourier 1	1.809047390003	2	180
2 fourier 1	-0.04816277792592	1	0
3 fourier 1	0.4860993122944	2	180
4 fourier 1	0.8916986138746	1	0
5 fourier 1	1.163809172478	2	180
6 fourier 1	0.1679186987369	1	180
7 fourier 1	-0.1488678166443	4	180
8 fourier 1	-0.1230328948768	3	180
9 fourier 1	0.2939295466901	2	0
10 fourier 1	-0.3024127022865	1	0
11 fourier 1	0.182238503271	2	0
12 fourier 1	0.02972342374561	3	0
13 fourier 1	0.1918272375143	3	0
14 fourier 1	0.9202179876409	1	180
15 fourier 1	0.0473758381877	3	0
16 fourier 1	2.779853741805	2	180
17 fourier 1	0.1155372516788	3	0
18 fourier 1	0.09223874044423	3	0
19 fourier 1	0.3159935921949	2	180
20 fourier 1	0.3247796806857	1	180
21 fourier 1	0.1040663847541	3	0
22 fourier 1	3.101948770557	2	180
23 fourier 1	-0.4252153282372	1	0
24 fourier 1	0.9974165607242	2	180
25 fourier 1	2.348375642009	2	180
26 fourier 1	1.256156174911	1	0
27 fourier 1	0.1911926717192	3	0
28 fourier 1	0.1115525666802	3	0
29 fourier 1	0.3432490222662	1	0
30 fourier 1	0.457973137376	1	0
31 fourier 1	-1.382973039546	1	0
32 fourier 1	0	1	0
33 fourier 1	0.3445382149273	3	0
34 fourier 1	0.1364556373303	1	0
35 fourier 1	0.3026390167484	3	0


Improper Coeffs

1 3.5	-1	2
2 0.3333333333333333	-1	2
3 0.3666666666666667	-1	2


Atoms

1	1	1	-0.618155	5.5929999	0.308	0.098999999
2	1	2	0.78446603	4.6459999	1.073	-0.22499999
3	1	3	-0.46797001	3.2980001	0.59799999	-0.25600001
4	1	4	0.024089999	2.967	-0.78899997	0.072999999
5	1	4	-0.145299	1.454	-1.039	0.015
6	1	4	-0.143153	0.71100003	-0.33000001	1.16
7	1	4	-0.143153	-0.78399998	-0.685	1.204
8	1	4	-0.14658	-1.574	-0.057999998	0.045000002
9	1	4	0.029944001	-3.075	-0.32100001	0.199
10	1	3	-0.52399701	-3.812	0.237	-0.93300003
11	1	2	0.54156101	-4.0619998	1.6390001	-1.0779999
12	1	1	-0.69558501	-3.6559999	2.4619999	-0.215
13	1	5	0.31724399	-4.224	-0.41499999	-1.637
14	1	6	0.050395001	-3.25	-1.419	0.237
15	1	6	0.050395001	-3.454	0.119	1.148
16	1	7	0.086029001	-1.39	1.038	0.024
17	1	7	0.086029001	-1.2359999	-0.491	-0.92000002
18	1	7	0.084885001	-0.90899998	-1.79	1.194
19	1	7	0.084885001	-1.197	-0.308	2.165
20	1	7	0.084885001	1.164	-0.64300001	2.1270001
21	1	7	0.084885001	0.82999998	0.77100003	1.076
22	1	7	0.086029001	1.278	-2.1340001	0.089000002
23	1	7	0.086029001	1.0700001	-0.69599998	-0.97000003
24	1	6	0.053932998	3.467	-1.461	-0.65700001
25	1	6	0.053932998	3.3499999	-1.0369999	1.087
26	1	5	0.32382801	2.55	1.27	-0.54100001
27	1	8	-0.49926999	0.82300001	5.0640001	1.0369999
28	1	4	0.112382	0.954	3.954	0.191
29	1	4	-0.13865501	2.421	3.757	-0.2
30	1	4	-0.13865501	2.5840001	2.5650001	-1.152
31	1	4	0.112382	4.0440001	2.372	-1.576
32	1	8	-0.49926999	4.849	2.0599999	-0.47099999
33	1	6	0.083783001	4.4229999	3.303	-2.0480001
34	1	6	0.083783001	4.1069999	1.561	-2.3369999
35	1	7	0.091329001	2.2179999	1.637	-0.66000003
36	1	7	0.091329001	1.971	2.737	-2.0639999
37	1	7	0.091329001	3.0209999	3.585	0.72000003
38	1	7	0.091329001	2.7909999	4.6820002	-0.69400001
39	1	6	0.083783001	0.34799999	4.1350002	-0.722
40	1	6	0.083783001	0.56	3.04	0.69099998
41	1	1	-0.618155	10.284	3.369	5.2979999
42	1	2	0.78446603	9.4510002	4.1259999	4.7329998
43	1	3	-0.46797001	8.1289997	3.6689999	4.4359999
44	1	4	0.024089999	7.6960001	2.3099999	4.7649999
45	1	4	-0.145299	6.2249999	2.0799999	4.3930001
46	1	4	-0.143153	5.2719998	2.869	5.3070002
47	1	4	-0.143153	3.7939999	2.539	5.0440001
48	1	4	-0.145299	3.2909999	3.1040001	3.707
49	1	4	0.024089999	1.785	2.8729999	3.546
50	1	3	-0.46797001	1.327	3.3710001	2.2509999
51	1	2	0.78446603	1.152	4.7639999	1.974
52	1	1	-0.618155	1.385	5.6329999	2.8559999
53	1	5	0.32382801	1.058	2.6819999	1.512
54	1	6	0.053932998	1.576	1.7819999	3.608
55	1	6	0.053932998	1.223	3.3770001	4.362
56	1	7	0.086029001	3.5050001	4.1939998	3.664
57	1	7	0.086029001	3.8169999	2.6070001	2.865
58	1	7	0.084885001	3.6429999	1.437	5.0710001
59	1	7	0.084885001	3.1930001	2.9809999	5.869
60	1	7	0.084885001	5.4959998	2.6110001	6.3649998
61	1	7	0.084885001	5.4369998	3.961	5.1869998
62	1	7	0.086029001	6.007	0.99400002	4.4899998
63	1	7	0.086029001	6.072	2.3659999	3.3299999
64	1	6	0.053932998	8.3240004	1.587	4.1999998
65	1	6	0.053932998	7.8439999	2.1210001	5.8499999
66	1	5	0.32382801	7.4790001	4.3330002	3.957
67	1	8	-0.49926999	5.5570002	8.243	4.9000001
68	1	4	0.112382	5.8369999	7.0809999	4.1690001
69	1	4	-0.13865501	7.348	6.8390002	4.118
70	1	4	-0.13865501	7.6799998	5.5869999	3.2939999
71	1	4	0.112382	9.191	5.3470001	3.21
72	1	8	-0.49926999	9.7290001	5.0929999	4.48
73	1	6	0.083783001	9.6890001	6.2410002	2.779
74	1	6	0.083783001	9.3950005	4.4899998	2.529
75	1	7	0.091329001	7.191	4.697	3.747
76	1	7	0.091329001	7.2839999	5.711	2.2620001
77	1	7	0.091329001	7.73	6.7150002	5.1550002
78	1	7	0.091329001	7.842	7.7249999	3.664
79	1	6	0.083783001	5.448	7.2129998	3.1359999
80	1	6	0.083783001	5.3200002	6.2049999	4.6230001
81	1	1	-0.618155	13.822	6.6789999	11.208
82	1	2	0.78446603	13.152	7.4109998	10.432
83	1	3	-0.46797001	11.913	6.9559999	9.882
84	1	4	0.024089999	11.382	5.6269999	10.186
85	1	4	-0.145299	10.021	5.395	9.5170002
86	1	4	-0.143153	8.915	6.2529998	10.155
87	1	4	-0.143153	7.52	5.9289999	9.5959997
88	1	4	-0.145299	7.3340001	6.4169998	8.1520004
89	1	4	0.024089999	5.8930001	6.198	7.6799998
90	1	3	-0.46797001	5.7389998	6.6209998	6.29
91	1	2	0.78446603	5.6669998	7.9970002	5.902
92	1	1	-0.618155	5.7280002	8.9160004	6.7610002
93	1	5	0.32382801	5.618	5.8920002	5.552
94	1	6	0.053932998	5.645	5.1170001	7.7579999
95	1	6	0.053932998	5.1810002	6.7600002	8.3240004
96	1	7	0.086029001	7.5819998	7.4990001	8.0930004
97	1	7	0.086029001	8.0159998	5.8610001	7.474
98	1	7	0.084885001	7.336	4.8330002	9.6529999
99	1	7	0.084885001	6.7670002	6.4299998	10.243
100	1	7	0.084885001	8.8970003	6.0580001	11.249
101	1	7	0.084885001	9.132	7.3330002	10.011
102	1	7	0.086029001	9.7559996	4.3200002	9.6269999
103	1	7	0.086029001	10.109	5.6160002	8.4320002
104	1	6	0.053932998	12.097	4.8610001	9.8149996
105	1	6	0.053932998	11.287	5.5029998	11.287
106	1	5	0.32382801	11.401	7.598	9.2349997
107	1	8	-0.49926999	9.4300003	11.587	9.5109997
108	1	4	0.112382	9.8290005	10.377	8.9259996
109	1	4	-0.13865501	11.308	10.111	9.2200003
110	1	4	-0.13865501	11.775	8.8059998	8.5609999
111	1	4	0.112382	13.261	8.5389996	8.8219995
112	1	8	-0.49926999	13.505	8.3559999	10.191
113	1	6	0.083783001	13.866	9.3970003	8.4589996
114	1	6	0.083783001	13.584	7.638	8.2519999
115	1	7	0.091329001	11.175	7.9520001	8.9469995
116	1	7	0.091329001	11.616	8.8699999	7.4629998
117	1	7	0.091329001	11.453	10.046	10.32
118	1	7	0.091329001	11.913	10.96	8.8330002
119	1	6	0.083783001	9.6759996	10.451	7.8280001
120	1	6	0.083783001	9.2010002	9.5389996	9.3070002
121	1	1	-0.618155	16.087999	10.298	17.545
122	1	2	0.78446603	15.622	10.991	16.601999
123	1	3	-0.46797001	14.519	10.52	15.822
124	1	4	0.024089999	13.899	9.2200003	16.079
125	1	4	-0.145299	12.708	8.967	15.145
126	1	4	-0.143153	11.515	9.8789997	15.476
127	1	4	-0.143153	10.266	9.5410004	14.647
128	1	4	-0.145299	10.41	9.941	13.171
129	1	4	0.024089999	9.099	9.7139997	12.411
130	1	3	-0.46797001	9.2620001	10.052	10.998
131	1	2	0.78446603	9.3140001	11.402	10.525
132	1	1	-0.618155	9.2119999	12.372	11.323
133	1	5	0.32382801	9.283	9.2799997	10.294
134	1	6	0.053932998	8.8100004	8.6429996	12.495
135	1	6	0.053932998	8.2810001	10.325	12.851
136	1	7	0.086029001	10.695	11.013	13.106
137	1	7	0.086029001	11.206	9.3339996	12.691
138	1	7	0.084885001	10.043	8.4540005	14.725
139	1	7	0.084885001	9.4049997	10.092	15.085
140	1	7	0.084885001	11.256	9.7530003	16.549999
141	1	7	0.084885001	11.787	10.945	15.321
142	1	7	0.086029001	12.397	7.9050002	15.256
143	1	7	0.086029001	13.036	9.1190004	14.094
144	1	6	0.053932998	14.655	8.4219999	15.917
145	1	6	0.053932998	13.564	9.1669998	17.139
146	1	5	0.32382801	14.178	11.128	15.044
147	1	8	-0.49926999	12.304	15.154	14.654
148	1	4	0.112382	12.787	13.905	14.241
149	1	4	-0.13865501	14.159	13.636	14.864
150	1	4	-0.13865501	14.722	12.286	14.399
151	1	4	0.112382	16.108	12.014	14.992
152	1	8	-0.49926999	16.045	11.914	16.389
153	1	6	0.083783001	16.801001	12.839	14.72
154	1	6	0.083783001	16.521	11.075	14.559
155	1	7	0.091329001	14.029	11.467	14.694
156	1	7	0.091329001	14.806	12.284	13.29
157	1	7	0.091329001	14.061	13.638	15.971
158	1	7	0.091329001	14.857	14.451	14.57
159	1	6	0.083783001	12.877	13.912	13.133
160	1	6	0.083783001	12.069	13.101	14.523
161	1	1	-0.618155	17.028999	14.271	24.004999
162	1	2	0.78446603	16.797001	14.911	22.944
163	1	3	-0.46797001	15.877	14.409	21.972
164	1	4	0.024089999	15.179	13.136	22.162001
165	1	4	-0.145299	14.213	12.842	21.007
166	1	4	-0.143153	13.001	13.791	21.018
167	1	4	-0.143153	11.952	13.42	19.958
168	1	4	-0.145299	12.423	13.726	18.528
169	1	4	0.024089999	11.303	13.471	17.514999
170	1	3	-0.46797001	11.776	13.717	16.153999
171	1	2	0.78446603	11.966	15.035	15.627
172	1	1	-0.618155	11.722	16.052999	16.327
173	1	5	0.32382801	11.928	12.903	15.518
174	1	6	0.053932998	10.973	12.412	17.596001
175	1	6	0.053932998	10.426	14.12	17.731001
176	1	7	0.086029001	12.746	14.787	18.464001
177	1	7	0.086029001	13.288	13.078	18.268999
178	1	7	0.084885001	11.689	12.343	20.048
179	1	7	0.084885001	11.033	14.01	20.165001
180	1	7	0.084885001	12.513	13.735	22.014999
181	1	7	0.084885001	13.331	14.841	20.865
182	1	7	0.086029001	13.855	11.795	21.108999
183	1	7	0.086029001	14.764	12.924	20.046
184	1	6	0.053932998	15.931	12.319	22.215
185	1	6	0.053932998	14.622	13.154	23.125
186	1	5	0.32382801	15.729	14.972	21.104
187	1	8	-0.49926999	14.096	18.993	20.084999
188	1	4	0.112382	14.622	17.712999	19.858999
189	1	4	-0.13865501	15.819	17.462999	20.780001
190	1	4	-0.13865501	16.431	16.079	20.527
191	1	4	0.112382	17.648001	15.825	21.423
192	1	8	-0.49926999	17.282	15.812	22.775999
193	1	6	0.083783001	18.406	16.621	21.261
194	1	6	0.083783001	18.118999	14.854	21.143999
195	1	7	0.091329001	15.669	15.29	20.711
196	1	7	0.091329001	16.753	16.007	19.466
197	1	7	0.091329001	15.483	17.535999	21.837999
198	1	7	0.091329001	16.586	18.247999	20.599001
199	1	6	0.083783001	14.95	17.65	18.799999
200	1	6	0.083783001	13.838	16.938999	20.024
201	1	1	-0.618155	16.659	18.625	30.275
202	1	2	0.78446603	16.681	19.200001	29.153999
203	1	3	-0.46797001	15.979	18.652	28.035
204	1	4	0.024089999	15.222	17.403999	28.142
205	1	4	-0.145299	14.52	17.052999	26.823
206	1	4	-0.143153	13.362	18.018	26.516001
207	1	4	-0.143153	12.557	17.597	25.275999
208	1	4	-0.145299	13.335	17.806	23.968
209	1	4	0.024089999	12.453	17.504999	22.750999
210	1	3	-0.46797001	13.217	17.66	21.514999
211	1	2	0.78446603	13.552	18.938999	20.966999
212	1	1	-0.618155	13.191	20.003	21.535999
213	1	5	0.32382801	13.479	16.805	20.975
214	1	6	0.053932998	12.085	16.458	22.819
215	1	6	0.053932998	11.569	18.179001	22.733
216	1	7	0.086029001	13.692	18.857	23.915001
217	1	7	0.086029001	14.216	17.132	23.940001
218	1	7	0.084885001	12.251	16.532	25.368999
219	1	7	0.084885001	11.631	18.212	25.243999
220	1	7	0.084885001	12.668	18.032	27.384001
221	1	7	0.084885001	13.746	19.052	26.378
222	1	7	0.086029001	14.12	16.018999	26.906
223	1	7	0.086029001	15.268	17.066999	26.002001
224	1	6	0.053932998	15.921	16.580999	28.403999
225	1	6	0.053932998	14.47	17.49	28.958
226	1	5	0.32382801	16.038	19.162001	27.125
227	1	8	-0.49926999	14.776	23.135	25.545
228	1	4	0.112382	15.303	21.837	25.514
229	1	4	-0.13865501	16.264999	21.627001	26.686001
230	1	4	-0.13865501	16.878	20.221001	26.652
231	1	4	0.112382	17.865999	20.004999	27.804001
232	1	8	-0.49926999	17.215	20.082001	29.044001
233	1	6	0.083783001	18.662001	20.778999	27.766001
234	1	6	0.083783001	18.358999	19.013	27.691
235	1	7	0.091329001	16.073	19.457001	26.711
236	1	7	0.091329001	17.42	20.079	25.691999
237	1	7	0.091329001	15.711	21.77	27.639
238	1	7	0.091329001	17.073999	22.388	26.631001
239	1	6	0.083783001	15.85	21.702999	24.556
240	1	6	0.083783001	14.481	21.086	25.548
241	1	1	-0.618155	15.064	23.365	36.053001
242	1	2	0.78446603	15.343	23.868999	34.931999
243	1	3	-0.46797001	14.885	23.263	33.721001
244	1	4	0.024089999	14.088	22.035	33.733002
245	1	4	-0.145299	13.679	21.613001	32.314999
246	1	4	-0.143153	12.642	22.573	31.708
247	1	4	-0.143153	12.113	22.087999	30.349001
248	1	4	-0.145299	13.16	22.204	29.231001
249	1	4	0.024089999	12.555	21.84	27.872
250	1	3	-0.46797001	13.572	21.907	26.823999
251	1	2	0.78446603	14.053	23.143999	26.289
252	1	1	-0.618155	13.607	24.247	26.704
253	1	5	0.32382801	13.921	21.017	26.403999
254	1	6	0.053932998	12.152	20.805	27.917999
255	1	6	0.053932998	11.714	22.525	27.622999
256	1	7	0.086029001	13.55	23.243999	29.197001
257	1	7	0.086029001	14.008	21.516001	29.434999
258	1	7	0.084885001	11.764	21.035	30.434
259	1	7	0.084885001	11.233	22.712999	30.080999
260	1	7	0.084885001	11.777	22.650999	32.402
261	1	7	0.084885001	13.075	23.591	31.597
262	1	7	0.086029001	13.242	20.591999	32.368
263	1	7	0.086029001	14.587	21.565001	31.677
264	1	6	0.053932998	14.691	21.219	34.187
265	1	6	0.053932998	13.181	22.181999	34.358002
266	1	5	0.32382801	15.153	23.714001	32.818001
267	1	8	-0.49926999	14.374	27.599001	30.775
268	1	4	0.112382	14.859	26.294001	30.934
269	1	4	-0.13865501	15.538	26.143999	32.297001
270	1	4	-0.13865501	16.105	24.73	32.479
271	1	4	0.112382	16.813999	24.570999	33.827999
272	1	8	-0.49926999	15.912	24.735001	34.889999
273	1	6	0.083783001	17.620001	25.33	33.919998
274	1	6	0.083783001	17.291	23.566999	33.882999
275	1	7	0.091329001	15.285	23.982	32.404999
276	1	7	0.091329001	16.837999	24.52	31.669001
277	1	7	0.091329001	14.795	26.354	33.097
278	1	7	0.091329001	16.361	26.888	32.375999
279	1	6	0.083783001	15.596	26.093	30.127001
280	1	6	0.083783001	14.028	25.558001	30.832001
281	1	1	-0.618155	12.388	28.478001	41.062
282	1	2	0.78446603	12.916	28.907	40.001999
283	1	3	-0.46797001	12.714	28.233	38.757
284	1	4	0.024089999	11.9	27.02	38.666
285	1	4	-0.145299	11.796	26.517	37.220001
286	1	4	-0.143153	10.942	27.452	36.347
287	1	4	-0.143153	10.707	26.891001	34.936001
288	1	4	-0.145299	11.974	26.923	34.068001
289	1	4	0.024089999	11.667	26.483999	32.632999
290	1	3	-0.46797001	12.887	26.469999	31.83
291	1	2	0.78446603	13.508	27.665001	31.341999
292	1	1	-0.618155	13.012	28.797001	31.586
293	1	5	0.32382801	13.295	25.551001	31.548
294	1	6	0.053932998	11.234	25.459999	32.650002
295	1	6	0.053932998	10.919	27.164	32.167999
296	1	7	0.086029001	12.39	27.952999	34.060001
297	1	7	0.086029001	12.738	26.237	34.491001
298	1	7	0.084885001	10.318	25.851	35.002998
299	1	7	0.084885001	9.9230003	27.511999	34.448002
300	1	7	0.084885001	9.9499998	27.586	36.831001
301	1	7	0.084885001	11.416	28.455	36.275002
302	1	7	0.086029001	11.33	25.507999	37.235001
303	1	7	0.086029001	12.819	26.416	36.799
304	1	6	0.053932998	12.368	26.226	39.286999
305	1	6	0.053932998	10.884	27.219	39.07
306	1	5	0.32382801	13.184	28.624001	37.91
307	1	8	-0.17097101	12.973	32.384998	35.526001
308	1	4	0.033882	13.376	31.084999	35.861
309	1	4	-0.14469901	13.74	31.01	37.346001
310	1	4	-0.137485	14.215	29.601999	37.728001
311	1	4	0.112449	14.61	29.518	39.206001
312	1	8	-0.49926999	13.505	29.761	40.035999
313	1	6	0.083783001	15.398	30.268999	39.426998
314	1	6	0.083783001	15.037	28.511999	39.421001
315	1	7	0.091498002	13.41	28.863001	37.521
316	1	7	0.091498002	15.099	29.332001	37.111
317	1	7	0.092551	12.847	31.281	37.952
318	1	7	0.092551	14.546	31.746	37.558998
319	1	6	0.083718002	14.265	30.823999	35.248001
320	1	6	0.083718002	12.567	30.357	35.623001
321	1	1	-0.69558501	-5.77	1.549	-2.1619999
322	1	2	0.54156101	-4.6149998	1.998	-1.936
323	1	3	-0.52399701	-4.026	2.9749999	-2.799
324	1	4	0.029944001	-4.7350001	3.4860001	-3.9719999
325	1	4	-0.14658	-3.8829999	4.5229998	-4.7150002
326	1	4	-0.142968	-4.645	5.2210002	-5.8540001
327	1	4	-0.13876	-5.0100002	4.2800002	-7.0219998
328	1	4	-0.122955	-6.4879999	3.8599999	-6.9879999
329	1	4	0.183359	-6.8109999	2.8859999	-8.1219997
330	1	3	-0.65483499	-8.2259998	2.5339999	-8.0780001
331	1	9	0.59262103	-8.6169996	1.332	-7.934
332	1	1	-0.48259601	-8.9969997	0.163	-7.7930002
333	1	6	0.029448999	-6.5939999	3.3659999	-9.1000004
334	1	6	0.029448999	-6.171	1.978	-8.0290003
335	1	7	0.079678997	-7.1279998	4.763	-7.092
336	1	7	0.079678997	-6.7280002	3.3759999	-6.0180001
337	1	7	0.083609	-4.8249998	4.8150001	-7.9790001
338	1	7	0.083609	-4.3559999	3.3800001	-7.02
339	1	7	0.084885001	-3.9820001	6.0219998	-6.25
340	1	7	0.084885001	-5.546	5.7319999	-5.4489999
341	1	7	0.086029001	-3.559	5.302	-3.9920001
342	1	7	0.086029001	-2.9679999	4.0349998	-5.1170001
343	1	6	0.050395001	-5.6890001	3.954	-3.645
344	1	6	0.050395001	-4.961	2.6359999	-4.6500001
345	1	5	0.31724399	-3.0639999	3.3139999	-2.5710001
346	1	8	-0.17097101	12.048	32.493999	35.870998
347	1	4	0.033994	11.393	33.368	34.993
348	1	4	-0.138963	11.839	34.808998	35.249001
349	1	4	-0.166013	11.109	35.786999	34.319
350	1	4	0.087389998	11.525	37.238998	34.583
351	1	10	-0.681705	12.886	37.429001	34.305
352	1	11	0.38240901	12.975	37.444	33.316002
353	1	6	0.074643999	11.334	37.495998	35.646
354	1	6	0.074643999	10.907	37.923	33.957001
355	1	7	0.095014997	11.324	35.530998	33.258999
356	1	7	0.095014997	10.013	35.700001	34.48
357	1	7	0.092724003	12.936	34.883999	35.082001
358	1	7	0.092724003	11.625	35.071999	36.307999
359	1	6	0.083718002	10.298	33.282001	35.165001
360	1	6	0.083718002	11.599	33.080002	33.937

Bonds

1	1	1	2
2	2	2	3
3	3	2	32
4	4	3	4
5	5	3	26
6	6	4	5
7	7	4	24
8	7	4	25
9	6	5	6
10	7	5	22
11	7	5	23
12	6	6	7
13	7	6	20
14	7	6	21
15	6	7	8
16	7	7	18
17	7	7	19
18	6	8	9
19	7	8	16
20	7	8	17
21	4	9	10
22	7	9	14
23	7	9	15
24	2	10	11
25	5	10	13
26	1	11	12
27	8	11	322
28	9	27	28
29	3	27	51
30	6	28	29
31	7	28	39
32	7	28	40
33	6	29	30
34	7	29	37
35	7	29	38
36	6	30	31
37	7	30	35
38	7	30	36
39	9	31	32
40	7	31	33
41	7	31	34
42	1	41	42
43	2	42	43
44	3	42	72
45	4	43	44
46	5	43	66
47	6	44	45
48	7	44	64
49	7	44	65
50	6	45	46
51	7	45	62
52	7	45	63
53	6	46	47
54	7	46	60
55	7	46	61
56	6	47	48
57	7	47	58
58	7	47	59
59	6	48	49
60	7	48	56
61	7	48	57
62	4	49	50
63	7	49	54
64	7	49	55
65	2	50	51
66	5	50	53
67	1	51	52
68	9	67	68
69	3	67	91
70	6	68	69
71	7	68	79
72	7	68	80
73	6	69	70
74	7	69	77
75	7	69	78
76	6	70	71
77	7	70	75
78	7	70	76
79	9	71	72
80	7	71	73
81	7	71	74
82	1	81	82
83	2	82	83
84	3	82	112
85	4	83	84
86	5	83	106
87	6	84	85
88	7	84	104
89	7	84	105
90	6	85	86
91	7	85	102
92	7	85	103
93	6	86	87
94	7	86	100
95	7	86	101
96	6	87	88
97	7	87	98
98	7	87	99
99	6	88	89
100	7	88	96
101	7	88	97
102	4	89	90
103	7	89	94
104	7	89	95
105	2	90	91
106	5	90	93
107	1	91	92
108	9	107	108
109	3	107	131
110	6	108	109
111	7	108	119
112	7	108	120
113	6	109	110
114	7	109	117
115	7	109	118
116	6	110	111
117	7	110	115
118	7	110	116
119	9	111	112
120	7	111	113
121	7	111	114
122	1	121	122
123	2	122	123
124	3	122	152
125	4	123	124
126	5	123	146
127	6	124	125
128	7	124	144
129	7	124	145
130	6	125	126
131	7	125	142
132	7	125	143
133	6	126	127
134	7	126	140
135	7	126	141
136	6	127	128
137	7	127	138
138	7	127	139
139	6	128	129
140	7	128	136
141	7	128	137
142	4	129	130
143	7	129	134
144	7	129	135
145	2	130	131
146	5	130	133
147	1	131	132
148	9	147	148
149	3	147	171
150	6	148	149
151	7	148	159
152	7	148	160
153	6	149	150
154	7	149	157
155	7	149	158
156	6	150	151
157	7	150	155
158	7	150	156
159	9	151	152
160	7	151	153
161	7	151	154
162	1	161	162
163	2	162	163
164	3	162	192
165	4	163	164
166	5	163	186
167	6	164	165
168	7	164	184
169	7	164	185
170	6	165	166
171	7	165	182
172	7	165	183
173	6	166	167
174	7	166	180
175	7	166	181
176	6	167	168
177	7	167	178
178	7	167	179
179	6	168	169
180	7	168	176
181	7	168	177
182	4	169	170
183	7	169	174
184	7	169	175
185	2	170	171
186	5	170	173
187	1	171	172
188	9	187	188
189	3	187	211
190	6	188	189
191	7	188	199
192	7	188	200
193	6	189	190
194	7	189	197
195	7	189	198
196	6	190	191
197	7	190	195
198	7	190	196
199	9	191	192
200	7	191	193
201	7	191	194
202	1	201	202
203	2	202	203
204	3	202	232
205	4	203	204
206	5	203	226
207	6	204	205
208	7	204	224
209	7	204	225
210	6	205	206
211	7	205	222
212	7	205	223
213	6	206	207
214	7	206	220
215	7	206	221
216	6	207	208
217	7	207	218
218	7	207	219
219	6	208	209
220	7	208	216
221	7	208	217
222	4	209	210
223	7	209	214
224	7	209	215
225	2	210	211
226	5	210	213
227	1	211	212
228	9	227	228
229	3	227	251
230	6	228	229
231	7	228	239
232	7	228	240
233	6	229	230
234	7	229	237
235	7	229	238
236	6	230	231
237	7	230	235
238	7	230	236
239	9	231	232
240	7	231	233
241	7	231	234
242	1	241	242
243	2	242	243
244	3	242	272
245	4	243	244
246	5	243	266
247	6	244	245
248	7	244	264
249	7	244	265
250	6	245	246
251	7	245	262
252	7	245	263
253	6	246	247
254	7	246	260
255	7	246	261
256	6	247	248
257	7	247	258
258	7	247	259
259	6	248	249
260	7	248	256
261	7	248	257
262	4	249	250
263	7	249	254
264	7	249	255
265	2	250	251
266	5	250	253
267	1	251	252
268	9	267	268
269	3	267	291
270	6	268	269
271	7	268	279
272	7	268	280
273	6	269	270
274	7	269	277
275	7	269	278
276	6	270	271
277	7	270	275
278	7	270	276
279	9	271	272
280	7	271	273
281	7	271	274
282	1	281	282
283	2	282	283
284	3	282	312
285	4	283	284
286	5	283	306
287	6	284	285
288	7	284	304
289	7	284	305
290	6	285	286
291	7	285	302
292	7	285	303
293	6	286	287
294	7	286	300
295	7	286	301
296	6	287	288
297	7	287	298
298	7	287	299
299	6	288	289
300	7	288	296
301	7	288	297
302	4	289	290
303	7	289	294
304	7	289	295
305	2	290	291
306	5	290	293
307	1	291	292
308	9	307	308
309	10	307	346
310	6	308	309
311	7	308	319
312	7	308	320
313	6	309	310
314	7	309	317
315	7	309	318
316	6	310	311
317	7	310	315
318	7	310	316
319	9	311	312
320	7	311	313
321	7	311	314
322	1	321	322
323	2	322	323
324	4	323	324
325	5	323	345
326	6	324	325
327	7	324	343
328	7	324	344
329	6	325	326
330	7	325	341
331	7	325	342
332	6	326	327
333	7	326	339
334	7	326	340
335	6	327	328
336	7	327	337
337	7	327	338
338	6	328	329
339	7	328	335
340	7	328	336
341	11	329	330
342	7	329	333
343	7	329	334
344	12	330	331
345	1	331	332
346	9	346	347
347	6	347	348
348	7	347	359
349	7	347	360
350	6	348	349
351	7	348	357
352	7	348	358
353	6	349	350
354	7	349	355
355	7	349	356
356	13	350	351
357	7	350	353
358	7	350	354
359	14	351	352

Angles

1	6	190	191	194
2	6	166	165	183
3	8	329	330	331
4	6	348	349	356
5	6	249	248	257
6	6	190	189	198
7	6	166	167	179
8	7	304	284	305
9	6	30	31	34
10	1	81	82	83
11	6	205	204	225
12	1	227	251	250
13	6	228	229	237
14	6	330	329	333
15	7	113	111	114
16	6	8	9	10
17	6	250	249	255
18	6	205	206	221
19	7	20	6	21
20	6	290	289	294
21	6	326	325	341
22	6	272	271	273
23	7	343	324	344
24	3	42	43	44
25	6	45	46	47
26	6	28	29	37
27	6	229	230	231
28	7	117	109	118
29	6	125	124	145
30	6	128	129	130
31	6	29	28	39
32	6	45	44	65
33	6	327	326	339
34	3	282	283	284
35	4	11	10	13
36	4	322	323	345
37	6	268	269	277
38	6	29	30	35
39	6	89	88	97
40	7	134	129	135
41	6	327	328	335
42	4	2	3	26
43	6	84	85	103
44	6	228	229	230
45	6	245	246	261
46	7	144	124	145
47	6	149	150	156
48	6	269	268	279
49	4	89	90	93
50	6	189	190	195
51	5	68	67	91
52	6	209	208	217
53	1	67	91	90
54	6	244	245	262
55	6	328	329	330
56	6	191	190	196
57	7	355	349	356
58	6	229	228	239
59	6	323	324	343
60	7	157	149	158
61	3	242	243	244
62	6	269	270	275
63	6	10	9	14
64	1	83	82	112
65	7	197	189	198
66	7	100	86	101
67	6	90	89	95
68	6	3	4	24
69	6	85	86	101
70	6	28	29	30
71	6	9	8	16
72	6	168	169	170
73	5	188	187	211
74	6	205	206	207
75	6	112	111	113
76	6	311	310	315
77	6	69	70	76
78	5	122	152	151
79	6	109	108	120
80	6	310	311	314
81	7	216	208	217
82	2	281	282	312
83	4	284	283	306
84	6	268	269	270
85	6	86	87	99
86	6	351	350	354
87	6	124	125	142
88	1	1	2	3
89	7	184	164	185
90	5	148	147	171
91	6	49	48	56
92	1	107	131	130
93	6	108	109	117
94	6	44	45	62
95	6	312	311	313
96	6	270	271	273
97	7	140	126	141
98	6	168	167	178
99	6	328	327	338
100	6	245	246	247
101	6	163	164	184
102	6	347	348	358
103	6	168	169	174
104	7	222	205	223
105	3	82	83	84
106	6	45	46	60
107	6	309	310	311
108	6	346	347	359
109	6	85	84	105
110	6	190	191	193
111	2	161	162	192
112	6	249	248	256
113	6	128	127	138
114	6	164	165	182
115	6	125	126	127
116	6	70	69	78
117	1	11	322	323
118	6	205	204	224
119	3	209	210	211
120	6	167	168	177
121	6	86	85	103
122	6	70	71	74
123	4	124	123	146
124	6	108	109	110
125	6	250	249	254
126	6	205	206	220
127	6	129	128	136
128	7	339	326	340
129	7	333	329	334
130	4	251	250	253
131	4	211	210	213
132	1	163	162	192
133	6	246	247	259
134	6	246	247	248
135	6	125	124	144
136	6	109	110	115
137	6	85	86	87
138	6	88	89	90
139	1	3	2	32
140	5	268	267	291
141	1	267	291	290
142	6	125	126	140
143	7	337	327	338
144	4	51	50	53
145	4	84	83	106
146	6	208	209	215
147	3	289	290	291
148	4	171	170	173
149	7	359	347	360
150	6	247	248	257
151	6	89	88	96
152	4	164	163	186
153	5	242	272	271
154	3	322	323	324
155	6	325	326	327
156	7	104	84	105
157	6	84	85	102
158	6	149	150	155
159	6	286	285	303
160	6	271	270	276
161	6	165	164	185
162	6	167	166	181
163	3	202	203	204
164	4	291	290	293
165	7	315	310	316
166	6	31	30	36
167	6	286	287	299
168	6	210	209	214
169	6	6	5	22
170	6	90	89	94
171	2	187	211	212
172	6	85	86	100
173	1	321	322	323
174	3	249	250	251
175	6	109	108	119
176	6	310	311	313
177	7	159	148	160
178	4	204	203	226
179	6	287	288	297
180	6	4	5	23
181	6	48	49	55
182	7	275	270	276
183	6	27	28	40
184	7	54	49	55
185	6	231	230	236
186	6	86	87	98
187	6	110	109	118
188	6	351	350	353
189	6	46	45	63
190	1	121	122	123
191	6	130	129	135
192	7	60	46	61
193	6	285	284	304
194	7	317	309	318
195	6	46	47	59
196	6	6	7	19
197	5	82	112	111
198	2	41	42	72
199	1	210	211	212
200	6	232	231	234
201	6	328	327	337
202	2	241	242	272
203	6	227	228	240
204	6	246	245	263
205	6	347	348	357
206	6	126	127	139
207	6	47	48	57
208	6	7	8	17
209	7	39	28	40
210	6	190	191	192
211	4	324	323	345
212	6	88	87	98
213	6	243	244	245
214	6	32	31	34
215	6	245	244	265
216	6	247	246	261
217	6	29	30	31
218	6	166	167	168
219	6	287	286	301
220	7	174	169	175
221	7	115	110	116
222	1	290	291	292
223	6	8	9	15
224	6	167	168	176
225	3	129	130	131
226	3	9	10	11
227	6	43	44	45
228	5	108	107	131
229	6	189	190	191
230	7	258	247	259
231	6	326	327	328
232	6	5	6	21
233	6	269	270	271
234	7	16	8	17
235	6	243	244	265
236	3	162	163	164
237	6	165	166	167
238	6	203	204	205
239	6	246	247	258
240	6	310	309	318
241	6	248	247	259
242	2	81	82	112
243	6	230	229	238
244	6	150	151	154
245	6	126	125	143
246	6	270	269	277
247	5	308	307	346
248	7	353	350	354
249	6	47	46	61
250	6	329	328	335
251	6	348	347	360
252	6	169	168	176
253	4	4	3	26
254	7	14	9	15
255	6	208	209	214
256	5	202	232	231
257	6	324	325	341
258	6	247	248	256
259	7	302	285	303
260	2	227	251	252
261	4	91	90	93
262	6	127	128	137
263	6	30	29	38
264	6	308	309	318
265	6	271	270	275
266	7	357	348	358
267	6	165	164	184
268	6	48	47	59
269	6	206	207	219
270	6	43	44	65
271	7	199	188	200
272	6	150	149	158
273	6	87	86	101
274	6	286	287	298
275	6	165	166	180
276	6	69	68	80
277	6	71	70	76
278	7	260	246	261
279	6	307	308	320
280	6	87	88	97
281	6	309	310	316
282	7	155	150	156
283	4	282	283	306
284	6	349	350	354
285	7	138	127	139
286	6	310	311	312
287	6	287	288	296
288	6	48	49	54
289	4	131	130	133
290	7	195	190	196
291	6	110	109	117
292	6	46	45	62
293	6	247	248	249
294	6	67	68	80
295	6	86	87	88
296	7	94	89	95
297	6	130	129	134
298	6	110	111	113
299	6	46	47	58
300	7	142	125	143
301	1	170	171	172
302	6	127	126	141
303	2	67	91	92
304	6	147	148	160
305	6	151	150	156
306	6	170	169	174
307	6	189	188	199
308	6	206	205	223
309	4	244	243	266
310	6	248	249	254
311	6	47	48	49
312	7	224	204	225
313	6	323	324	325
314	7	98	87	99
315	4	42	43	66
316	6	230	231	233
317	6	126	127	138
318	6	270	271	272
319	6	50	49	54
320	6	109	110	111
321	6	47	48	56
322	6	166	165	182
323	6	348	349	355
324	6	346	347	348
325	6	190	189	197
326	6	5	4	25
327	6	245	244	264
328	6	284	285	286
329	6	166	167	178
330	6	30	31	33
331	1	250	251	252
332	6	267	268	280
333	6	149	148	160
334	6	149	150	151
335	6	326	327	338
336	6	5	6	7
337	5	42	72	71
338	6	283	284	305
339	4	44	43	66
340	6	5	6	20
341	7	24	4	25
342	6	283	284	285
343	3	122	123	124
344	1	50	51	52
345	2	1	2	32
346	6	150	149	157
347	6	310	309	317
348	6	248	247	258
349	7	220	206	221
350	6	230	229	237
351	6	4	5	6
352	6	45	44	64
353	6	150	151	153
354	3	169	170	171
355	6	349	350	351
356	6	152	151	154
357	6	348	347	359
358	6	46	47	48
359	3	49	50	51
360	4	209	210	213
361	6	228	229	238
362	6	330	329	334
363	6	127	128	136
364	6	245	246	260
365	6	30	29	37
366	1	243	242	272
367	6	288	287	299
368	6	206	207	218
369	6	209	208	216
370	6	191	190	195
371	6	326	325	342
372	6	272	271	274
373	6	87	86	100
374	6	288	289	295
375	6	286	287	288
376	6	28	29	38
377	6	69	68	79
378	6	307	308	319
379	6	87	88	96
380	7	58	47	59
381	6	69	70	75
382	2	267	291	292
383	6	289	288	297
384	6	284	285	303
385	2	121	122	152
386	4	289	290	293
387	6	268	269	278
388	6	29	30	36
389	6	27	28	29
390	6	204	205	206
391	6	325	326	340
392	7	35	30	36
393	1	12	11	322