Title

88 atoms
89 bonds
168 angles
340 dihedrals
18 impropers

11 atom types
14 bond types
9 angle types
35 dihedral types
3 improper types
-9.276000023 90.72399998 xlo xhi
-11.85700035 88.14299965 ylo yhi
-2.99000001 97.00999999 zlo zhi
0.0 0.0 0.0 xy xz yz

Masses

1	12.01078
2	15.99943
3	14.00672
4	12.01078
5	1.007947
6	1.007947
7	1.007947
8	15.99943
9	12.01078
10	15.99943
11	1.007947


Pair Coeffs

1	0.086879315	3.4806469
2	0.2102061	3.0398122
3	0.16769152	3.206876
4	0.10884061	3.3795318
5	0.016409246	2.5832257
6	0.015779483	2.6445434
7	0.014090815	1.1034277
8	0.16846514	3.0251065
9	0.21	3.3996695
10	0.20947353	2.99716
11	1.2326e-05	0.53453923

Bond Coeffs

1 harmonic	582.698766451	1.225198386222
2 harmonic	492.76746816345	1.381897776683
3 harmonic	279.1350963404	1.454628925034
4 harmonic	352.0565580496	1.450098586273
5 harmonic	505.144496193	1.019481865027
6 harmonic	370.04670688625	1.093899492634
7 harmonic	264.62148576755	1.52190126495
8 harmonic	301.15400723785	1.345741232799
9 harmonic	366.7408841747	1.425895053732
10 harmonic	300.03137914615	1.451203938761
11 harmonic	366.34047229585	1.464762957261
12 harmonic	602.81384337	1.196112346392
13 harmonic	329.96998057905	1.427343958716
14 harmonic	543.5267831885	0.9716763312559


Angle Coeffs

1 harmonic	55.42182150775	117.3465570514
2 harmonic	63.44422595415	115.5071327674
3 harmonic	57.8982893754	126.8062420451
4 harmonic	53.20531626545	116.5475862634
5 harmonic	48.776492647595	115.6030999533
6 harmonic	65.09061609600001	110.3538806181
7 harmonic	201.41175231035	127.4691416191
8 harmonic	55.07882548015	112.8714009681
9 harmonic	33.56981613361	180


Dihedral Coeffs

1 fourier 1	0.182238503271	2	0
2 fourier 1	0.02972342374561	3	0
3 fourier 1	-0.1488678166443	4	180
4 fourier 1	-0.1230328948768	3	180
5 fourier 1	0.2939295466901	2	0
6 fourier 1	-0.3024127022865	1	0
7 fourier 1	1.809047390003	2	180
8 fourier 1	-0.04816277792592	1	0
9 fourier 1	3.101948770557	2	180
10 fourier 1	-0.4252153282372	1	0
11 fourier 1	2.348375642009	2	180
12 fourier 1	1.256156174911	1	0
13 fourier 1	0.9974165607242	2	180
14 fourier 1	0.1155372516788	3	0
15 fourier 1	0.1040663847541	3	0
16 fourier 1	0.09223874044423	3	0
17 fourier 1	0.3159935921949	2	180
18 fourier 1	0.3247796806857	1	180
19 fourier 1	0.1911926717192	3	0
20 fourier 1	2.779853741805	2	180
21 fourier 1	0.1918272375143	3	0
22 fourier 1	0.9202179876409	1	180
23 fourier 1	0.0473758381877	3	0
24 fourier 1	0.4860993122944	2	180
25 fourier 1	0.8916986138746	1	0
26 fourier 1	1.163809172478	2	180
27 fourier 1	0.1679186987369	1	180
28 fourier 1	0.1115525666802	3	0
29 fourier 1	0.3432490222662	1	0
30 fourier 1	0.457973137376	1	0
31 fourier 1	-1.382973039546	1	0
32 fourier 1	0	1	0
33 fourier 1	0.3445382149273	3	0
34 fourier 1	0.1364556373303	1	0
35 fourier 1	0.3026390167484	3	0


Improper Coeffs

1 0.3333333333333333	-1	2
2 0.3666666666666667	-1	2
3 3.5	-1	2


Atoms

1	1	1	0.55797303	-3.8510001	-0.48100001	-0.68000001
2	1	2	-0.672167	-3.767	-1.332	-1.605
3	1	3	-0.55944097	-2.701	-0.107	0.086999997
4	1	4	0.091820002	-1.354	-0.60500002	-0.20900001
5	1	5	0.050165001	-1.428	-1.5829999	-0.73500001
6	1	4	-0.17642701	-0.62099999	0.38	-1.154
7	1	6	0.102344	0.011	-0.19499999	-1.867
8	1	6	0.102344	-1.354	0.95499998	-1.761
9	1	4	-0.17487501	0.27700001	1.351	-0.38
10	1	6	0.102344	-0.35600001	1.929	0.329
11	1	6	0.102344	0.72500002	2.089	-1.081
12	1	4	0.092673004	1.383	0.60500002	0.40900001
13	1	3	-0.50757802	2.598	0.47299999	-0.40400001
14	1	1	0.81059003	3.875	0.167	0.168
15	1	2	-0.59970099	4.0079999	0.014	1.411
16	1	7	0.31710199	2.552	0.60699999	-1.439
17	1	5	0.053403001	1.6210001	1.232	1.298
18	1	4	-0.17487501	0.92799997	-0.79400003	0.898
19	1	6	0.102344	1.21	-1.572	0.154
20	1	6	0.102344	1.4450001	-1.041	1.851
21	1	4	-0.17642701	-0.58700001	-0.85600001	1.113
22	1	6	0.102344	-0.86400002	-0.097999997	1.8789999
23	1	6	0.102344	-0.86400002	-1.854	1.518
24	1	7	0.31410301	-2.8139999	0.67400002	0.77200001
25	1	8	-0.49702799	4.7030001	0.071999997	-0.449
26	1	4	0.118715	5.4400001	-1.0190001	0.034000002
27	1	4	-0.137668	4.7690001	-2.3329999	-0.373
28	1	4	-0.14009701	5.586	-3.5420001	0.107
29	1	4	-0.13887601	4.8800001	-4.8790002	-0.16599999
30	1	4	-0.143649	4.8540001	-5.2389998	-1.661
31	1	4	0.037183002	4.29	-6.6420002	-1.8940001
32	1	8	-0.16242801	2.947	-6.6929998	-1.499
33	1	5	0.089304999	4.8850002	-7.3889999	-1.323
34	1	5	0.089304999	4.3670001	-6.8829999	-2.9779999
35	1	6	0.095389999	4.2329998	-4.5089998	-2.221
36	1	6	0.095389999	5.888	-5.2030001	-2.069
37	1	6	0.090167999	5.4289999	-5.6739998	0.38499999
38	1	6	0.090167999	3.8440001	-4.8449998	0.236
39	1	6	0.089988001	6.5879998	-3.5380001	-0.375
40	1	6	0.089988001	5.7410002	-3.4549999	1.205
41	1	6	0.094235003	3.7490001	-2.372	0.068000004
42	1	6	0.094235003	4.677	-2.3540001	-1.48
43	1	5	0.089233004	6.461	-0.97299999	-0.40000001
44	1	5	0.089233004	5.5339999	-0.958	1.143
45	1	1	0.55797303	-4.8080001	-0.025	-0.465
46	1	2	-0.672167	-5.8559999	-0.71899998	-0.546
47	1	3	-0.55944097	-4.868	1.359	-0.101
48	1	4	0.092194997	-6.1290002	2.0369999	0.215
49	1	5	0.050165001	-6.895	1.742	-0.53799999
50	1	4	-0.175153	-5.9460001	3.5650001	0.13600001
51	1	6	0.100594	-5.132	3.8870001	0.82300001
52	1	6	0.100594	-5.6550002	3.849	-0.898
53	1	4	-0.136801	-7.243	4.2950001	0.50800002
54	1	6	0.098205999	-8.0279999	4.0630002	-0.245
55	1	6	0.098205999	-7.0599999	5.3920002	0.486
56	1	4	0.21178301	-7.7220001	3.8870001	1.91
57	1	3	-0.628712	-8.9960003	4.5430002	2.1960001
58	1	9	0.60789299	-9.1379995	5.3439999	3.174
59	1	2	-0.46525201	-9.276	6.1230001	4.1259999
60	1	5	0.043428998	-6.9499998	4.1950002	2.655
61	1	4	-0.136801	-7.9050002	2.3629999	1.994
62	1	6	0.098205999	-8.1929998	2.0829999	3.03
63	1	6	0.098205999	-8.7229996	2.0409999	1.312
64	1	4	-0.175153	-6.6110001	1.6289999	1.619
65	1	6	0.100594	-5.823	1.86	2.3699999
66	1	6	0.100594	-6.8000002	0.53500003	1.65
67	1	7	0.31410301	-3.971	1.896	-0.1
68	1	8	-0.16242801	2.645	-7.6230001	-1.67
69	1	4	0.037183002	3.7449999	-8.3100004	-2.2019999
70	1	4	-0.143649	4.7420001	-8.6529999	-1.091
71	1	4	-0.138824	5.934	-9.4469995	-1.646
72	1	4	-0.134728	7.0219998	-9.6960001	-0.58899999
73	1	4	-0.165573	6.586	-10.712	0.47999999
74	1	4	0.090558998	7.7350001	-11.062	1.427
75	1	10	-0.67842197	8.1190004	-9.9309998	2.158
76	1	11	0.38738599	8.8649998	-10.222	2.744
77	1	5	0.080899999	8.599	-11.455	0.84600002
78	1	5	0.080899999	7.3920002	-11.857	2.1270001
79	1	6	0.097746998	5.7449999	-10.303	1.0779999
80	1	6	0.097746998	6.2399998	-11.646	-0.016000001
81	1	6	0.090167999	7.9219999	-10.089	-1.1109999
82	1	6	0.090167999	7.3049998	-8.7340002	-0.108
83	1	6	0.090167999	5.5830002	-10.417	-2.062
84	1	6	0.090167999	6.3930001	-8.8699999	-2.4790001
85	1	6	0.095389999	5.105	-7.71	-0.62599999
86	1	6	0.095389999	4.2160001	-9.25	-0.317
87	1	5	0.089304999	3.3800001	-9.2469997	-2.6730001
88	1	5	0.089304999	4.2379999	-7.697	-2.99

Bonds

1	1	1	2
2	2	1	3
3	3	1	45
4	4	3	4
5	5	3	24
6	6	4	5
7	7	4	6
8	7	4	21
9	6	6	7
10	6	6	8
11	7	6	9
12	6	9	10
13	6	9	11
14	7	9	12
15	4	12	13
16	6	12	17
17	7	12	18
18	2	13	14
19	5	13	16
20	1	14	15
21	8	14	25
22	6	18	19
23	6	18	20
24	7	18	21
25	6	21	22
26	6	21	23
27	9	25	26
28	7	26	27
29	6	26	43
30	6	26	44
31	7	27	28
32	6	27	41
33	6	27	42
34	7	28	29
35	6	28	39
36	6	28	40
37	7	29	30
38	6	29	37
39	6	29	38
40	7	30	31
41	6	30	35
42	6	30	36
43	9	31	32
44	6	31	33
45	6	31	34
46	10	32	68
47	1	45	46
48	2	45	47
49	4	47	48
50	5	47	67
51	6	48	49
52	7	48	50
53	7	48	64
54	6	50	51
55	6	50	52
56	7	50	53
57	6	53	54
58	6	53	55
59	7	53	56
60	11	56	57
61	6	56	60
62	7	56	61
63	12	57	58
64	1	58	59
65	6	61	62
66	6	61	63
67	7	61	64
68	6	64	65
69	6	64	66
70	9	68	69
71	7	69	70
72	6	69	87
73	6	69	88
74	7	70	71
75	6	70	85
76	6	70	86
77	7	71	72
78	6	71	83
79	6	71	84
80	7	72	73
81	6	72	81
82	6	72	82
83	7	73	74
84	6	73	79
85	6	73	80
86	13	74	75
87	6	74	77
88	6	74	78
89	14	75	76

Angles

1	4	73	74	75
2	4	27	28	40
3	3	46	45	47
4	4	28	27	42
5	4	73	74	77
6	3	13	14	15
7	5	39	28	40
8	4	56	61	63
9	4	70	71	83
10	4	72	71	84
11	2	1	3	24
12	4	8	6	9
13	4	50	48	64
14	4	73	72	82
15	4	47	48	64
16	4	30	31	34
17	4	48	50	52
18	4	6	9	12
19	6	14	25	26
20	4	30	29	37
21	4	6	4	21
22	4	6	9	10
23	4	71	70	86
24	5	51	50	52
25	4	56	61	64
26	4	68	69	87
27	2	45	47	67
28	4	47	48	50
29	4	69	70	86
30	4	75	74	77
31	4	13	12	17
32	4	29	30	36
33	4	72	73	80
34	4	71	72	82
35	4	4	6	7
36	4	52	50	53
37	4	29	28	39
38	2	14	13	16
39	4	69	70	71
40	4	10	9	12
41	4	9	12	17
42	4	53	56	57
43	3	13	14	25
44	4	63	61	64
45	6	31	32	68
46	4	28	29	30
47	5	33	31	34
48	4	31	30	35
49	5	83	71	84
50	4	13	12	18
51	4	68	69	70
52	4	48	64	61
53	4	73	72	81
54	4	20	18	21
55	4	29	30	31
56	4	48	50	53
57	1	45	47	48
58	4	56	61	62
59	4	71	70	85
60	4	70	71	72
61	4	3	4	21
62	4	26	27	41
63	4	4	6	8
64	4	9	12	18
65	4	12	18	21
66	4	74	73	80
67	5	19	18	20
68	4	25	26	44
69	8	56	57	58
70	3	1	45	47
71	4	70	69	87
72	4	51	50	53
73	5	10	9	11
74	4	27	26	43
75	4	69	70	85
76	4	27	28	39
77	4	50	53	56
78	4	11	9	12
79	4	27	28	29
80	5	37	29	38
81	5	7	6	8
82	4	71	72	81
83	1	1	3	4
84	4	4	6	9
85	4	26	27	42
86	4	70	69	88
87	4	50	53	54
88	4	28	29	38
89	3	2	1	3
90	4	26	27	28
91	4	18	21	23
92	4	54	53	56
93	4	68	69	88
94	4	70	71	84
95	4	55	53	56
96	4	49	48	64
97	5	77	74	78
98	5	43	26	44
99	4	32	31	33
100	4	72	71	83
101	4	31	30	36
102	5	35	30	36
103	6	74	75	76
104	4	48	64	65
105	4	71	72	73
106	4	18	21	22
107	4	5	4	6
108	4	49	48	50
109	4	57	56	60
110	2	12	13	16
111	4	3	4	5
112	4	12	18	19
113	4	48	50	51
114	4	28	29	37
115	5	87	69	88
116	4	32	31	34
117	4	9	12	13
118	4	30	31	33
119	4	53	56	60
120	5	81	72	82
121	5	22	21	23
122	4	73	74	78
123	4	61	64	65
124	2	48	47	67
125	4	25	26	27
126	2	4	3	24
127	5	62	61	63
128	4	7	6	9
129	4	17	12	18
130	4	60	56	61
131	4	27	26	44
132	4	50	53	55
133	4	5	4	21
134	6	32	68	69
135	4	4	21	18
136	4	72	73	79
137	4	19	18	21
138	4	47	48	49
139	5	65	64	66
140	4	29	28	40
141	4	61	64	66
142	7	15	14	25
143	4	75	74	78
144	4	4	21	23
145	3	3	1	45
146	5	85	70	86
147	4	62	61	64
148	4	29	30	35
149	4	57	56	61
150	5	41	27	42
151	4	30	31	32
152	5	79	73	80
153	4	12	18	20
154	4	3	4	6
155	3	2	1	45
156	1	12	13	14
157	4	28	27	41
158	5	54	53	55
159	4	53	56	61
160	4	30	29	38
161	4	25	26	43
162	3	1	45	46
163	4	6	9	11
164	4	4	21	22
165	9	57	58	59
166	4	48	64	66
167	4	72	73	74
168	4	74	73	79

Dihedrals

1	19	33	31	30	35
2	19	80	73	72	81
3	15	71	72	73	80
4	15	50	48	64	66
5	19	81	72	71	83
6	15	4	21	18	19
7	14	3	4	6	9
8	15	8	6	9	12
9	19	38	29	28	40
10	15	52	50	48	64
11	19	79	73	72	82
12	15	7	6	4	21
13	15	28	29	30	36
14	14	50	53	56	57
15	15	56	61	64	66
16	16	4	6	9	12
16	17	4	6	9	12
16	18	4	6	9	12
17	19	8	6	9	10
18	23	32	68	69	70
19	19	40	28	27	41
20	15	71	70	69	87
21	15	7	6	9	12
22	3	14	13	12	18
22	4	14	13	12	18
22	5	14	13	12	18
22	6	14	13	12	18
23	19	78	74	73	79
24	28	32	31	30	36
24	29	32	31	30	36
25	15	48	64	61	63
26	15	17	12	18	21
27	16	71	72	73	74
27	17	71	72	73	74
27	18	71	72	73	74
28	15	4	6	9	10
29	7	12	13	14	15
29	8	12	13	14	15
30	19	83	71	70	86
31	19	84	71	70	85
32	19	7	6	9	10
33	1	6	4	3	24
33	2	6	4	3	24
34	16	6	4	21	18
34	17	6	4	21	18
34	18	6	4	21	18
35	15	10	9	12	18
36	19	17	12	18	19
37	19	20	18	21	22
38	19	37	29	28	40
39	19	62	61	64	66
40	15	52	50	53	56
41	14	47	48	64	61
42	15	72	71	70	85
43	9	2	1	3	4
43	10	2	1	3	4
44	16	70	71	72	73
44	17	70	71	72	73
44	18	70	71	72	73
45	15	30	29	28	39
46	19	34	31	30	35
47	19	78	74	73	80
48	14	47	48	50	53
49	19	35	30	29	38
50	15	71	70	69	88
51	16	28	29	30	31
51	17	28	29	30	31
51	18	28	29	30	31
52	19	77	74	73	80
53	1	5	4	3	24
53	2	5	4	3	24
54	32	56	57	58	59
55	19	49	48	64	65
56	16	27	28	29	30
56	17	27	28	29	30
56	18	27	28	29	30
57	14	13	12	18	20
58	19	19	18	21	23
59	19	55	53	56	60
60	19	85	70	69	87
61	16	69	70	71	72
61	17	69	70	71	72
61	18	69	70	71	72
62	15	9	12	18	20
63	19	82	72	71	83
64	19	39	28	27	41
65	3	9	12	13	14
65	4	9	12	13	14
65	5	9	12	13	14
65	6	9	12	13	14
66	19	41	27	26	44
67	1	45	47	48	49
67	2	45	47	48	49
68	19	36	30	29	38
69	19	86	70	69	87
70	15	5	4	21	18
71	14	47	48	50	51
72	15	26	27	28	40
73	19	49	48	50	51
74	1	16	13	12	17
74	2	16	13	12	17
75	15	6	4	21	22
76	35	76	75	74	78
77	19	10	9	12	17
78	15	4	21	18	20
79	19	5	4	21	23
80	19	20	18	21	23
81	19	51	50	53	55
82	1	50	48	47	67
82	2	50	48	47	67
83	15	6	9	12	17
84	14	11	9	12	13
85	19	42	27	26	44
86	19	63	61	64	66
87	13	2	1	45	47
88	19	49	48	64	66
89	23	32	68	69	88
90	15	53	56	61	63
91	14	57	56	61	63
92	19	79	73	72	81
93	7	12	13	14	25
93	8	12	13	14	25
94	19	83	71	70	85
95	16	53	50	48	64
95	17	53	50	48	64
95	18	53	50	48	64
96	19	54	53	56	60
97	16	4	21	18	12
97	17	4	21	18	12
97	18	4	21	18	12
98	15	73	72	71	83
99	19	85	70	69	88
100	19	19	18	21	22
101	19	33	31	30	36
102	35	76	75	74	77
103	1	49	48	47	67
103	2	49	48	47	67
104	19	39	28	27	42
105	16	48	50	53	56
105	17	48	50	53	56
105	18	48	50	53	56
106	19	35	30	29	37
107	15	12	18	21	23
108	19	17	12	18	20
109	1	16	13	12	18
109	2	16	13	12	18
110	15	69	70	71	84
111	19	5	4	21	22
112	16	6	9	12	18
112	17	6	9	12	18
112	18	6	9	12	18
113	23	30	31	32	68
114	19	36	30	29	37
115	15	6	4	21	23
116	23	14	25	26	44
117	1	1	3	4	5
117	2	1	3	4	5
118	16	53	56	61	64
118	17	53	56	61	64
118	18	53	56	61	64
119	14	57	56	61	64
120	11	46	45	47	67
120	12	46	45	47	67
121	14	3	4	21	18
122	28	25	26	27	41
122	29	25	26	27	41
123	15	27	28	29	38
124	19	38	29	28	39
125	15	55	53	56	61
126	15	74	73	72	82
127	14	3	4	21	23
128	19	5	4	6	8
129	3	45	47	48	64
129	4	45	47	48	64
129	5	45	47	48	64
129	6	45	47	48	64
130	15	70	71	72	82
131	14	47	48	64	65
132	7	24	3	1	45
132	8	24	3	1	45
133	1	21	4	3	24
133	2	21	4	3	24
134	19	34	31	30	36
135	15	12	18	21	22
136	19	52	50	53	54
137	14	29	30	31	32
138	31	58	57	56	60
139	15	50	53	56	60
140	15	31	30	29	38
141	16	9	6	4	21
141	17	9	6	4	21
141	18	9	6	4	21
142	15	30	29	28	40
143	15	72	73	74	78
144	15	51	50	48	64
145	7	4	3	1	45
145	8	4	3	1	45
146	7	1	45	47	67
146	8	1	45	47	67
147	15	28	27	26	43
148	15	29	30	31	33
149	28	25	26	27	42
149	29	25	26	27	42
150	19	5	4	6	7
151	3	45	47	48	50
151	4	45	47	48	50
151	5	45	47	48	50
151	6	45	47	48	50
152	13	3	1	45	46
153	15	54	53	56	61
154	14	47	48	64	66
155	14	3	4	21	22
156	14	25	26	27	28
157	30	31	32	68	69
158	9	46	45	47	48
158	10	46	45	47	48
159	15	53	56	61	62
160	15	51	50	53	56
161	14	57	56	61	62
162	19	86	70	69	88
163	16	50	48	64	61
163	17	50	48	64	61
163	18	50	48	64	61
164	15	29	28	27	42
165	7	16	13	14	25
165	8	16	13	14	25
166	31	53	56	57	58
167	33	73	74	75	76
167	34	73	74	75	76
168	15	69	70	71	83
169	19	60	56	61	63
170	15	26	27	28	39
171	16	26	27	28	29
171	17	26	27	28	29
171	18	26	27	28	29
172	15	29	30	31	34
173	15	48	64	61	62
174	28	75	74	73	79
174	29	75	74	73	79
175	14	13	12	18	21
176	15	71	72	73	79
177	3	1	3	4	6
177	4	1	3	4	6
177	5	1	3	4	6
177	6	1	3	4	6
178	15	31	30	29	37
179	19	49	48	50	52
180	16	9	12	18	21
180	17	9	12	18	21
180	18	9	12	18	21
181	15	48	50	53	54
182	16	48	64	61	56
182	17	48	64	61	56
182	18	48	64	61	56
183	19	82	72	71	84
184	7	1	45	47	48
184	8	1	45	47	48
185	23	34	31	32	68
186	15	74	73	72	81
187	14	10	9	12	13
188	15	70	71	72	81
189	14	6	9	12	13
190	31	58	57	56	61
191	16	50	53	56	61
191	17	50	53	56	61
191	18	50	53	56	61
192	15	60	56	61	64
193	15	48	50	53	55
194	15	28	29	30	35
195	11	2	1	3	24
195	12	2	1	3	24
196	28	68	69	70	86
196	29	68	69	70	86
197	15	29	28	27	41
198	14	55	53	56	57
199	19	62	61	64	65
200	19	80	73	72	82
201	19	81	72	71	84
202	28	32	31	30	35
202	29	32	31	30	35
203	15	8	6	4	21
204	14	3	4	6	7
205	19	41	27	26	43
206	19	37	29	28	39
207	26	15	14	25	26
207	27	15	14	25	26
208	21	14	25	26	27
208	22	14	25	26	27
209	15	73	72	71	84
210	14	72	73	74	75
211	15	5	4	6	9
212	19	52	50	53	55
213	19	77	74	73	79
214	14	68	69	70	71
215	15	72	73	74	77
216	3	1	3	4	21
216	4	1	3	4	21
216	5	1	3	4	21
216	6	1	3	4	21
217	19	11	9	12	17
218	15	27	28	29	37
219	19	42	27	26	43
220	19	84	71	70	86
221	14	54	53	56	57
222	15	49	48	64	61
223	13	2	1	45	46
224	1	64	48	47	67
224	2	64	48	47	67
225	15	49	48	50	53
226	19	8	6	9	11
227	19	63	61	64	65
228	19	40	28	27	42
229	24	15	14	13	16
229	25	15	14	13	16
230	15	50	48	64	65
231	15	72	71	70	86
232	14	47	48	50	52
233	23	32	68	69	87
234	19	51	50	53	54
235	15	4	6	9	11
236	19	60	56	61	62
237	15	28	27	26	44
238	19	7	6	9	11
239	14	3	4	6	8
240	15	56	61	64	65
241	1	9	12	13	16
241	2	9	12	13	16
242	15	11	9	12	18
243	14	13	12	18	19
244	1	14	13	12	17
244	2	14	13	12	17
245	13	3	1	45	47
246	28	68	69	70	85
246	29	68	69	70	85
247	15	9	12	18	19
248	23	14	25	26	43
249	23	33	31	32	68
250	28	75	74	73	80
250	29	75	74	73	80
251	20	13	14	25	26

Impropers

16	3	14	13	15	25
27	1	3	1	4	24
59	1	13	16	12	14
101	2	1	45	2	3
184	3	14	15	25	13
193	1	47	45	48	67
217	2	45	1	46	47
236	1	47	48	67	45
258	2	1	2	3	45
269	1	47	67	45	48
295	2	45	46	47	1
407	1	3	4	24	1
447	1	13	14	16	12
506	3	14	25	13	15
556	2	1	3	45	2
568	1	13	12	14	16
575	1	3	24	1	4
596	2	45	47	1	46
