Title

88 atoms
89 bonds
168 angles
340 dihedrals
18 impropers

11 atom types
14 bond types
9 angle types
35 dihedral types
3 improper types
-9.276000023 90.72399998 xlo xhi
-11.85700035 88.14299965 ylo yhi
-2.99000001 97.00999999 zlo zhi
0.0 0.0 0.0 xy xz yz

Masses

1	12.01078
2	15.99943
3	14.00672
4	12.01078
5	1.007947
6	1.007947
7	1.007947
8	15.99943
9	12.01078
10	15.99943
11	1.007947


Pair Coeffs

1	0.086879315	3.4806469
2	0.2102061	3.0398122
3	0.16769152	3.206876
4	0.10884061	3.3795318
5	0.016409246	2.5832257
6	0.015779483	2.6445434
7	0.014090815	1.1034277
8	0.16846514	3.0251065
9	0.21	3.3996695
10	0.20947353	2.99716
11	1.2326e-05	0.53453923

Bond Coeffs

1 harmonic	582.698766451	1.225198386222
2 harmonic	492.76746816345	1.381897776683
3 harmonic	279.1350963404	1.454628925034
4 harmonic	352.0565580496	1.450098586273
5 harmonic	505.144496193	1.019481865027
6 harmonic	370.04670688625	1.093899492634
7 harmonic	264.62148576755	1.52190126495
8 harmonic	301.15400723785	1.345741232799
9 harmonic	366.7408841747	1.425895053732
10 harmonic	300.03137914615	1.451203938761
11 harmonic	366.34047229585	1.464762957261
12 harmonic	602.81384337	1.196112346392
13 harmonic	329.96998057905	1.427343958716
14 harmonic	543.5267831885	0.9716763312559


Angle Coeffs

1 harmonic	55.42182150775	117.3465570514
2 harmonic	63.44422595415	115.5071327674
3 harmonic	57.8982893754	126.8062420451
4 harmonic	53.20531626545	116.5475862634
5 harmonic	48.776492647595	115.6030999533
6 harmonic	65.09061609600001	110.3538806181
7 harmonic	201.41175231035	127.4691416191
8 harmonic	55.07882548015	112.8714009681
9 harmonic	33.56981613361	180


Dihedral Coeffs

1 fourier 1	0.182238503271	2	0
2 fourier 1	0.02972342374561	3	0
3 fourier 1	-0.1488678166443	4	180
4 fourier 1	-0.1230328948768	3	180
5 fourier 1	0.2939295466901	2	0
6 fourier 1	-0.3024127022865	1	0
7 fourier 1	1.809047390003	2	180
8 fourier 1	-0.04816277792592	1	0
9 fourier 1	3.101948770557	2	180
10 fourier 1	-0.4252153282372	1	0
11 fourier 1	2.348375642009	2	180
12 fourier 1	1.256156174911	1	0
13 fourier 1	0.9974165607242	2	180
14 fourier 1	0.1155372516788	3	0
15 fourier 1	0.1040663847541	3	0
16 fourier 1	0.09223874044423	3	0
17 fourier 1	0.3159935921949	2	180
18 fourier 1	0.3247796806857	1	180
19 fourier 1	0.1911926717192	3	0
20 fourier 1	2.779853741805	2	180
21 fourier 1	0.1918272375143	3	0
22 fourier 1	0.9202179876409	1	180
23 fourier 1	0.0473758381877	3	0
24 fourier 1	0.4860993122944	2	180
25 fourier 1	0.8916986138746	1	0
26 fourier 1	1.163809172478	2	180
27 fourier 1	0.1679186987369	1	180
28 fourier 1	0.1115525666802	3	0
29 fourier 1	0.3432490222662	1	0
30 fourier 1	0.457973137376	1	0
31 fourier 1	-1.382973039546	1	0
32 fourier 1	0	1	0
33 fourier 1	0.3445382149273	3	0
34 fourier 1	0.1364556373303	1	0
35 fourier 1	0.3026390167484	3	0


Improper Coeffs

1 0.3333333333333333	-1	2
2 0.3666666666666667	-1	2
3 3.5	-1	2


Atoms

1	1	1	0.55797303	-3.8510001	-0.48100001	-0.68000001
2	1	2	-0.672167	-3.767	-1.332	-1.605
3	1	3	-0.55944097	-2.701	-0.107	0.086999997
4	1	4	0.091820002	-1.354	-0.60500002	-0.20900001
5	1	5	0.050165001	-1.428	-1.5829999	-0.73500001
6	1	4	-0.17642701	-0.62099999	0.38	-1.154
7	1	6	0.102344	0.011	-0.19499999	-1.867
8	1	6	0.102344	-1.354	0.95499998	-1.761
9	1	4	-0.17487501	0.27700001	1.351	-0.38
10	1	6	0.102344	-0.35600001	1.929	0.329
11	1	6	0.102344	0.72500002	2.089	-1.081
12	1	4	0.092673004	1.383	0.60500002	0.40900001
13	1	3	-0.50757802	2.598	0.47299999	-0.40400001
14	1	1	0.81059003	3.875	0.167	0.168
15	1	2	-0.59970099	4.0079999	0.014	1.411
16	1	7	0.31710199	2.552	0.60699999	-1.439
17	1	5	0.053403001	1.6210001	1.232	1.298
18	1	4	-0.17487501	0.92799997	-0.79400003	0.898
19	1	6	0.102344	1.21	-1.572	0.154
20	1	6	0.102344	1.4450001	-1.041	1.851
21	1	4	-0.17642701	-0.58700001	-0.85600001	1.113
22	1	6	0.102344	-0.86400002	-0.097999997	1.8789999
23	1	6	0.102344	-0.86400002	-1.854	1.518
24	1	7	0.31410301	-2.8139999	0.67400002	0.77200001
25	1	8	-0.49702799	4.7030001	0.071999997	-0.449
26	1	4	0.118715	5.4400001	-1.0190001	0.034000002
27	1	4	-0.137668	4.7690001	-2.3329999	-0.373
28	1	4	-0.14009701	5.586	-3.5420001	0.107
29	1	4	-0.13887601	4.8800001	-4.8790002	-0.16599999
30	1	4	-0.143649	4.8540001	-5.2389998	-1.661
31	1	4	0.037183002	4.29	-6.6420002	-1.8940001
32	1	8	-0.16242801	2.947	-6.6929998	-1.499
33	1	5	0.089304999	4.8850002	-7.3889999	-1.323
34	1	5	0.089304999	4.3670001	-6.8829999	-2.9779999
35	1	6	0.095389999	4.2329998	-4.5089998	-2.221
36	1	6	0.095389999	5.888	-5.2030001	-2.069
37	1	6	0.090167999	5.4289999	-5.6739998	0.38499999
38	1	6	0.090167999	3.8440001	-4.8449998	0.236
39	1	6	0.089988001	6.5879998	-3.5380001	-0.375
40	1	6	0.089988001	5.7410002	-3.4549999	1.205
41	1	6	0.094235003	3.7490001	-2.372	0.068000004
42	1	6	0.094235003	4.677	-2.3540001	-1.48
43	1	5	0.089233004	6.461	-0.97299999	-0.40000001
44	1	5	0.089233004	5.5339999	-0.958	1.143
45	1	1	0.55797303	-4.8080001	-0.025	-0.465
46	1	2	-0.672167	-5.8559999	-0.71899998	-0.546
47	1	3	-0.55944097	-4.868	1.359	-0.101
48	1	4	0.092194997	-6.1290002	2.0369999	0.215
49	1	5	0.050165001	-6.895	1.742	-0.53799999
50	1	4	-0.175153	-5.9460001	3.5650001	0.13600001
51	1	6	0.100594	-5.132	3.8870001	0.82300001
52	1	6	0.100594	-5.6550002	3.849	-0.898
53	1	4	-0.136801	-7.243	4.2950001	0.50800002
54	1	6	0.098205999	-8.0279999	4.0630002	-0.245
55	1	6	0.098205999	-7.0599999	5.3920002	0.486
56	1	4	0.21178301	-7.7220001	3.8870001	1.91
57	1	3	-0.628712	-8.9960003	4.5430002	2.1960001
58	1	9	0.60789299	-9.1379995	5.3439999	3.174
59	1	2	-0.46525201	-9.276	6.1230001	4.1259999
60	1	5	0.043428998	-6.9499998	4.1950002	2.655
61	1	4	-0.136801	-7.9050002	2.3629999	1.994
62	1	6	0.098205999	-8.1929998	2.0829999	3.03
63	1	6	0.098205999	-8.7229996	2.0409999	1.312
64	1	4	-0.175153	-6.6110001	1.6289999	1.619
65	1	6	0.100594	-5.823	1.86	2.3699999
66	1	6	0.100594	-6.8000002	0.53500003	1.65
67	1	7	0.31410301	-3.971	1.896	-0.1
68	1	8	-0.16242801	2.645	-7.6230001	-1.67
69	1	4	0.037183002	3.7449999	-8.3100004	-2.2019999
70	1	4	-0.143649	4.7420001	-8.6529999	-1.091
71	1	4	-0.138824	5.934	-9.4469995	-1.646
72	1	4	-0.134728	7.0219998	-9.6960001	-0.58899999
73	1	4	-0.165573	6.586	-10.712	0.47999999
74	1	4	0.090558998	7.7350001	-11.062	1.427
75	1	10	-0.67842197	8.1190004	-9.9309998	2.158
76	1	11	0.38738599	8.8649998	-10.222	2.744
77	1	5	0.080899999	8.599	-11.455	0.84600002
78	1	5	0.080899999	7.3920002	-11.857	2.1270001
79	1	6	0.097746998	5.7449999	-10.303	1.0779999
80	1	6	0.097746998	6.2399998	-11.646	-0.016000001
81	1	6	0.090167999	7.9219999	-10.089	-1.1109999
82	1	6	0.090167999	7.3049998	-8.7340002	-0.108
83	1	6	0.090167999	5.5830002	-10.417	-2.062
84	1	6	0.090167999	6.3930001	-8.8699999	-2.4790001
85	1	6	0.095389999	5.105	-7.71	-0.62599999
86	1	6	0.095389999	4.2160001	-9.25	-0.317
87	1	5	0.089304999	3.3800001	-9.2469997	-2.6730001
88	1	5	0.089304999	4.2379999	-7.697	-2.99

Bonds

1	1	1	2
2	2	1	3
3	3	1	45
4	4	3	4
5	5	3	24
6	6	4	5
7	7	4	6
8	7	4	21
9	6	6	7
10	6	6	8
11	7	6	9
12	6	9	10
13	6	9	11
14	7	9	12
15	4	12	13
16	6	12	17
17	7	12	18
18	2	13	14
19	5	13	16
20	1	14	15
21	8	14	25
22	6	18	19
23	6	18	20
24	7	18	21
25	6	21	22
26	6	21	23
27	9	25	26
28	7	26	27
29	6	26	43
30	6	26	44
31	7	27	28
32	6	27	41
33	6	27	42
34	7	28	29
35	6	28	39
36	6	28	40
37	7	29	30
38	6	29	37
39	6	29	38
40	7	30	31
41	6	30	35
42	6	30	36
43	9	31	32
44	6	31	33
45	6	31	34
46	10	32	68
47	1	45	46
48	2	45	47
49	4	47	48
50	5	47	67
51	6	48	49
52	7	48	50
53	7	48	64
54	6	50	51
55	6	50	52
56	7	50	53
57	6	53	54
58	6	53	55
59	7	53	56
60	11	56	57
61	6	56	60
62	7	56	61
63	12	57	58
64	1	58	59
65	6	61	62
66	6	61	63
67	7	61	64
68	6	64	65
69	6	64	66
70	9	68	69
71	7	69	70
72	6	69	87
73	6	69	88
74	7	70	71
75	6	70	85
76	6	70	86
77	7	71	72
78	6	71	83
79	6	71	84
80	7	72	73
81	6	72	81
82	6	72	82
83	7	73	74
84	6	73	79
85	6	73	80
86	13	74	75
87	6	74	77
88	6	74	78
89	14	75	76

Angles

1	4	4	6	7
2	4	30	31	34
3	4	27	26	44
4	4	29	30	31
5	5	77	74	78
6	4	32	31	34
7	4	71	70	85
8	4	72	71	84
9	4	27	28	40
10	4	63	61	64
11	4	61	64	65
12	5	54	53	55
13	4	13	12	17
14	4	72	73	74
15	4	53	56	61
16	5	19	18	20
17	5	41	27	42
18	4	71	70	86
19	4	30	29	37
20	4	57	56	60
21	4	73	72	81
22	4	11	9	12
23	4	68	69	70
24	4	48	50	51
25	3	13	14	25
26	4	53	56	57
27	4	29	28	39
28	4	26	27	28
29	4	61	64	66
30	4	73	74	77
31	4	49	48	50
32	6	74	75	76
33	4	54	53	56
34	4	4	21	23
35	4	8	6	9
36	4	10	9	12
37	4	48	64	65
38	5	79	73	80
39	4	5	4	6
40	8	56	57	58
41	5	87	69	88
42	4	30	29	38
43	4	57	56	61
44	4	69	70	86
45	4	48	64	61
46	5	51	50	52
47	4	25	26	27
48	4	18	21	23
49	1	1	3	4
50	4	3	4	21
51	4	29	28	40
52	5	83	71	84
53	4	6	9	11
54	2	12	13	16
55	3	13	14	15
56	4	25	26	43
57	4	56	61	64
58	4	74	73	79
59	4	29	30	36
60	4	27	28	29
61	2	45	47	67
62	4	50	53	55
63	4	28	29	37
64	4	4	6	8
65	3	3	1	45
66	4	9	12	17
67	4	6	9	12
68	4	25	26	44
69	4	75	74	77
70	4	72	73	79
71	4	70	71	83
72	4	50	53	56
73	4	9	12	13
74	5	35	30	36
75	4	50	48	64
76	1	45	47	48
77	4	4	6	9
78	3	2	1	45
79	4	13	12	18
80	4	55	53	56
81	4	9	12	18
82	4	19	18	21
83	2	1	3	24
84	4	73	72	82
85	3	1	45	46
86	4	47	48	64
87	4	3	4	6
88	2	14	13	16
89	4	71	72	81
90	4	12	18	19
91	4	30	31	32
92	4	48	50	52
93	4	72	73	80
94	4	73	74	78
95	4	68	69	87
96	4	48	64	66
97	3	46	45	47
98	5	62	61	63
99	5	65	64	66
100	4	28	29	30
101	5	37	29	38
102	4	69	70	71
103	4	47	48	49
104	4	70	69	87
105	4	17	12	18
106	3	1	45	47
107	4	51	50	53
108	4	4	21	18
109	5	22	21	23
110	4	12	18	20
111	4	30	31	33
112	4	26	27	41
113	4	48	50	53
114	4	71	72	73
115	5	43	26	44
116	5	81	72	82
117	4	68	69	88
118	4	72	71	83
119	6	14	25	26
120	4	6	4	21
121	4	62	61	64
122	4	74	73	80
123	6	31	32	68
124	4	70	71	72
125	4	73	74	75
126	4	28	29	38
127	7	15	14	25
128	4	60	56	61
129	4	26	27	42
130	4	49	48	64
131	4	53	56	60
132	2	48	47	67
133	9	57	58	59
134	5	7	6	8
135	4	75	74	78
136	5	85	70	86
137	4	70	71	84
138	3	2	1	3
139	1	12	13	14
140	4	20	18	21
141	4	4	21	22
142	5	10	9	11
143	5	39	28	40
144	4	31	30	35
145	4	56	61	62
146	6	32	68	69
147	4	28	27	41
148	4	7	6	9
149	4	69	70	85
150	4	71	72	82
151	4	18	21	22
152	4	27	26	43
153	4	32	31	33
154	4	31	30	36
155	5	33	31	34
156	4	27	28	39
157	4	52	50	53
158	4	56	61	63
159	4	47	48	50
160	4	29	30	35
161	4	70	69	88
162	4	28	27	42
163	4	5	4	21
164	4	50	53	54
165	4	6	9	10
166	2	4	3	24
167	4	3	4	5
168	4	12	18	21

Dihedrals

1	15	29	30	31	33
2	14	47	48	64	66
3	15	52	50	53	56
4	14	3	4	6	8
5	15	52	50	48	64
6	23	33	31	32	68
7	14	47	48	50	52
8	15	17	12	18	21
9	15	70	71	72	82
10	15	51	50	53	56
11	19	77	74	73	80
12	15	27	28	29	37
13	15	31	30	29	38
14	15	6	9	12	17
15	15	51	50	48	64
16	19	84	71	70	86
17	28	25	26	27	42
17	29	25	26	27	42
18	19	80	73	72	81
19	19	5	4	6	8
20	32	56	57	58	59
21	7	1	45	47	48
21	8	1	45	47	48
22	15	7	6	9	12
23	9	2	1	3	4
23	10	2	1	3	4
24	19	42	27	26	43
25	15	6	4	21	22
26	15	29	30	31	34
27	14	3	4	6	9
28	31	53	56	57	58
29	19	41	27	26	44
30	14	3	4	21	23
31	15	26	27	28	40
32	14	47	48	50	53
33	19	63	61	64	66
34	19	34	31	30	35
35	19	36	30	29	37
36	15	50	53	56	60
37	19	55	53	56	60
38	19	60	56	61	62
39	3	1	3	4	6
39	4	1	3	4	6
39	5	1	3	4	6
39	6	1	3	4	6
40	15	27	28	29	38
41	30	31	32	68	69
42	16	6	9	12	18
42	17	6	9	12	18
42	18	6	9	12	18
43	23	32	68	69	87
44	1	50	48	47	67
44	2	50	48	47	67
45	16	9	12	18	21
45	17	9	12	18	21
45	18	9	12	18	21
46	13	3	1	45	46
47	19	33	31	30	35
48	19	80	73	72	82
49	15	5	4	6	9
50	19	5	4	21	23
51	19	11	9	12	17
52	3	9	12	13	14
52	4	9	12	13	14
52	5	9	12	13	14
52	6	9	12	13	14
53	15	48	64	61	62
54	31	58	57	56	61
55	15	6	4	21	23
56	15	73	72	71	83
57	19	49	48	64	65
58	13	2	1	45	47
59	16	53	56	61	64
59	17	53	56	61	64
59	18	53	56	61	64
60	19	78	74	73	80
61	19	34	31	30	36
62	19	60	56	61	63
63	15	72	73	74	77
64	16	9	6	4	21
64	17	9	6	4	21
64	18	9	6	4	21
65	23	32	68	69	88
66	19	86	70	69	88
67	15	56	61	64	65
68	13	3	1	45	47
69	16	27	28	29	30
69	17	27	28	29	30
69	18	27	28	29	30
70	15	12	18	21	23
71	15	4	21	18	20
72	15	49	48	64	61
73	33	73	74	75	76
73	34	73	74	75	76
74	23	34	31	32	68
75	15	11	9	12	18
76	7	16	13	14	25
76	8	16	13	14	25
77	16	4	6	9	12
77	17	4	6	9	12
77	18	4	6	9	12
78	23	14	25	26	43
79	19	20	18	21	22
80	14	55	53	56	57
81	19	19	18	21	22
82	3	45	47	48	64
82	4	45	47	48	64
82	5	45	47	48	64
82	6	45	47	48	64
83	19	49	48	64	66
84	28	68	69	70	85
84	29	68	69	70	85
85	11	2	1	3	24
85	12	2	1	3	24
86	19	49	48	50	52
87	14	57	56	61	64
88	19	62	61	64	66
89	7	12	13	14	15
89	8	12	13	14	15
90	15	28	29	30	35
91	15	48	50	53	54
92	15	8	6	9	12
93	19	38	29	28	39
94	16	53	50	48	64
94	17	53	50	48	64
94	18	53	50	48	64
95	15	56	61	64	66
96	19	81	72	71	83
97	19	35	30	29	37
98	1	45	47	48	49
98	2	45	47	48	49
99	24	15	14	13	16
99	25	15	14	13	16
100	16	28	29	30	31
100	17	28	29	30	31
100	18	28	29	30	31
101	16	26	27	28	29
101	17	26	27	28	29
101	18	26	27	28	29
102	19	19	18	21	23
103	1	14	13	12	17
103	2	14	13	12	17
104	19	54	53	56	60
105	15	9	12	18	19
106	15	49	48	50	53
107	1	16	13	12	17
107	2	16	13	12	17
108	14	13	12	18	19
109	15	48	50	53	55
110	19	38	29	28	40
111	28	75	74	73	79
111	29	75	74	73	79
112	19	42	27	26	44
113	11	46	45	47	67
113	12	46	45	47	67
114	19	81	72	71	84
115	19	79	73	72	81
116	19	35	30	29	38
117	15	72	71	70	85
118	19	83	71	70	85
119	15	30	29	28	39
120	15	71	70	69	88
121	26	15	14	25	26
121	27	15	14	25	26
122	19	36	30	29	38
123	19	39	28	27	41
124	14	25	26	27	28
125	16	50	53	56	61
125	17	50	53	56	61
125	18	50	53	56	61
126	15	55	53	56	61
127	16	71	72	73	74
127	17	71	72	73	74
127	18	71	72	73	74
128	7	24	3	1	45
128	8	24	3	1	45
129	35	76	75	74	77
130	19	33	31	30	36
131	21	14	25	26	27
131	22	14	25	26	27
132	19	52	50	53	54
133	14	13	12	18	20
134	19	37	29	28	39
135	14	3	4	21	18
136	19	17	12	18	19
137	15	48	64	61	63
138	14	50	53	56	57
139	19	51	50	53	54
140	15	74	73	72	81
141	15	73	72	71	84
142	15	28	27	26	43
143	19	82	72	71	83
144	15	72	71	70	86
145	15	50	48	64	65
146	15	29	28	27	41
147	19	40	28	27	41
148	15	69	70	71	83
149	19	10	9	12	17
150	1	1	3	4	5
150	2	1	3	4	5
151	15	5	4	21	18
152	15	60	56	61	64
153	15	72	73	74	78
154	16	69	70	71	72
154	17	69	70	71	72
154	18	69	70	71	72
155	15	4	6	9	10
156	23	30	31	32	68
157	35	76	75	74	78
158	14	29	30	31	32
159	19	52	50	53	55
160	16	50	48	64	61
160	17	50	48	64	61
160	18	50	48	64	61
161	14	3	4	6	7
162	19	37	29	28	40
163	14	47	48	50	51
164	15	7	6	4	21
165	1	9	12	13	16
165	2	9	12	13	16
166	23	14	25	26	44
167	14	10	9	12	13
168	19	8	6	9	10
169	19	20	18	21	23
170	15	31	30	29	37
171	19	7	6	9	10
172	15	28	27	26	44
173	15	70	71	72	81
174	1	5	4	3	24
174	2	5	4	3	24
175	28	68	69	70	86
175	29	68	69	70	86
176	7	1	45	47	67
176	8	1	45	47	67
177	19	5	4	6	7
178	15	28	29	30	36
179	15	69	70	71	84
180	1	64	48	47	67
180	2	64	48	47	67
181	19	7	6	9	11
182	20	13	14	25	26
183	15	53	56	61	62
184	23	32	68	69	70
185	3	45	47	48	50
185	4	45	47	48	50
185	5	45	47	48	50
185	6	45	47	48	50
186	19	41	27	26	43
187	14	3	4	21	22
188	15	26	27	28	39
189	19	63	61	64	65
190	14	68	69	70	71
191	19	77	74	73	79
192	15	71	70	69	87
193	14	72	73	74	75
194	3	14	13	12	18
194	4	14	13	12	18
194	5	14	13	12	18
194	6	14	13	12	18
195	16	48	64	61	56
195	17	48	64	61	56
195	18	48	64	61	56
196	15	9	12	18	20
197	7	4	3	1	45
197	8	4	3	1	45
198	15	54	53	56	61
199	16	70	71	72	73
199	17	70	71	72	73
199	18	70	71	72	73
200	1	16	13	12	18
200	2	16	13	12	18
201	19	5	4	21	22
202	16	48	50	53	56
202	17	48	50	53	56
202	18	48	50	53	56
203	1	21	4	3	24
203	2	21	4	3	24
204	15	71	72	73	79
205	28	75	74	73	80
205	29	75	74	73	80
206	28	32	31	30	35
206	29	32	31	30	35
207	31	58	57	56	60
208	1	49	48	47	67
208	2	49	48	47	67
209	14	6	9	12	13
210	19	79	73	72	82
211	14	54	53	56	57
212	13	2	1	45	46
213	15	53	56	61	63
214	19	83	71	70	86
215	15	30	29	28	40
216	14	57	56	61	62
217	16	4	21	18	12
217	17	4	21	18	12
217	18	4	21	18	12
218	9	46	45	47	48
218	10	46	45	47	48
219	19	78	74	73	79
220	19	39	28	27	42
221	19	86	70	69	87
222	19	85	70	69	87
223	16	6	4	21	18
223	17	6	4	21	18
223	18	6	4	21	18
224	3	1	3	4	21
224	4	1	3	4	21
224	5	1	3	4	21
224	6	1	3	4	21
225	15	4	21	18	19
226	15	12	18	21	22
227	14	47	48	64	65
228	15	8	6	4	21
229	14	13	12	18	21
230	15	71	72	73	80
231	19	17	12	18	20
232	15	4	6	9	11
233	28	32	31	30	36
233	29	32	31	30	36
234	19	51	50	53	55
235	15	74	73	72	82
236	19	82	72	71	84
237	7	12	13	14	25
237	8	12	13	14	25
238	15	50	48	64	66
239	19	84	71	70	85
240	28	25	26	27	41
240	29	25	26	27	41
241	15	29	28	27	42
242	19	40	28	27	42
243	14	47	48	64	61
244	19	49	48	50	51
245	1	6	4	3	24
245	2	6	4	3	24
246	14	57	56	61	63
247	15	10	9	12	18
248	14	11	9	12	13
249	19	62	61	64	65
250	19	8	6	9	11
251	19	85	70	69	88

Impropers

42	1	47	48	67	45
60	2	1	2	3	45
73	2	45	1	46	47
86	2	1	45	2	3
119	2	1	3	45	2
153	2	45	47	1	46
228	1	13	12	14	16
229	1	3	4	24	1
347	1	3	24	1	4
391	1	3	1	4	24
417	1	47	67	45	48
439	1	13	16	12	14
443	1	47	45	48	67
467	3	14	15	25	13
479	2	45	46	47	1
480	3	14	13	15	25
586	1	13	14	16	12
611	3	14	25	13	15
