Title

1320 atoms
1312 bonds
2392 angles
4368 dihedrals
240 impropers

11 atom types
12 bond types
9 angle types
33 dihedral types
2 improper types
-22.71036947 65.64324872 xlo xhi
-20.28201354 72.68388574 ylo yhi
-20.12213863 68.94581313 zlo zhi
0.0 0.0 0.0 xy xz yz

Masses

1	15.99943
2	12.01078
3	1.007947
4	12.01078
5	15.99943
6	14.00672
7	1.007947
8	1.007947
9	12.01078
10	15.99943
11	1.007947


Pair Coeffs

1	0.16846514	3.0251065
2	0.10884061	3.3795318
3	0.016409246	2.5832257
4	0.086879315	3.4806469
5	0.2102061	3.0398122
6	0.16769152	3.206876
7	0.014090815	1.1034277
8	0.015779483	2.6445434
9	0.21	3.3996695
10	0.20947353	2.99716
11	1.2326e-05	0.53453923

Bond Coeffs

1 harmonic	366.7408841747	1.425895053732
2 harmonic	301.15400723785	1.345741232799
3 harmonic	264.62148576755	1.52190126495
4 harmonic	370.04670688625	1.093899492634
5 harmonic	582.698766451	1.225198386222
6 harmonic	492.76746816345	1.381897776683
7 harmonic	352.0565580496	1.450098586273
8 harmonic	505.144496193	1.019481865027
9 harmonic	366.34047229585	1.464762957261
10 harmonic	602.81384337	1.196112346392
11 harmonic	329.96998057905	1.427343958716
12 harmonic	543.5267831885	0.9716763312559


Angle Coeffs

1 harmonic	53.20531626545	116.5475862634
2 harmonic	201.41175231035	127.4691416191
3 harmonic	57.8982893754	126.8062420451
4 harmonic	65.09061609600001	110.3538806181
5 harmonic	48.776492647595	115.6030999533
6 harmonic	55.42182150775	117.3465570514
7 harmonic	63.44422595415	115.5071327674
8 harmonic	55.07882548015	112.8714009681
9 harmonic	33.56981613361	180


Dihedral Coeffs

1 fourier 1	-0.0309670556842	3	0
2 fourier 1	0.4598191477945	2	0
3 fourier 1	0.1115525666802	3	0
4 fourier 1	0.3432490222662	1	0
5 fourier 1	1.809047390003	2	180
6 fourier 1	-0.04816277792592	1	0
7 fourier 1	1.163809172478	2	180
8 fourier 1	0.1679186987369	1	180
9 fourier 1	2.779853741805	2	180
10 fourier 1	0.4552156463534	3	0
11 fourier 1	-0.03687743385131	2	180
12 fourier 1	0.1918272375143	3	0
13 fourier 1	0.9202179876409	1	180
14 fourier 1	0.0473758381877	3	0
15 fourier 1	0.1911926717192	3	0
16 fourier 1	-0.1488678166443	4	180
17 fourier 1	-0.1230328948768	3	180
18 fourier 1	0.2939295466901	2	0
19 fourier 1	-0.3024127022865	1	0
20 fourier 1	0.182238503271	2	0
21 fourier 1	0.02972342374561	3	0
22 fourier 1	0.4860993122944	2	180
23 fourier 1	0.8916986138746	1	0
24 fourier 1	0.1155372516788	3	0
25 fourier 1	0.09223874044423	3	0
26 fourier 1	0.3159935921949	2	180
27 fourier 1	0.3247796806857	1	180
28 fourier 1	0.1040663847541	3	0
29 fourier 1	-1.382973039546	1	0
30 fourier 1	0	1	0
31 fourier 1	0.3445382149273	3	0
32 fourier 1	0.1364556373303	1	0
33 fourier 1	0.3026390167484	3	0


Improper Coeffs

1 3.5	-1	2
2 0.3333333333333333	-1	2


Atoms

1	1	1	-0.49552531	15.349601	-3.7425543	-2.6615625
2	1	2	0.1057702	14.082421	-3.4972683	-3.1544449
3	1	2	0.079016217	13.03513	-3.6800768	-2.0503923
4	1	1	-0.4862738	11.765545	-3.6887393	-2.6497988
5	1	2	0.059615684	10.78927	-3.989045	-1.6828849
6	1	2	0.059873482	9.4703618	-4.2058324	-2.4116834
7	1	1	-0.48637742	8.4332797	-4.4557228	-1.4919479
8	1	2	0.059873482	7.8210195	-3.2418038	-1.109932
9	1	2	0.059615684	7.0651549	-3.4868715	0.17804731
10	1	1	-0.4862738	7.9724739	-3.9589211	1.1620384
11	1	2	0.079016217	8.2630471	-2.9264806	2.0726244
12	1	2	0.1057702	9.3003186	-3.3975725	3.0965332
13	1	1	-0.49552531	9.6099688	-2.4229469	4.03824
14	1	3	0.093338491	8.9169157	-4.3013503	3.6223325
15	1	3	0.093338491	10.228589	-3.6828991	2.560986
16	1	3	0.085473323	7.3182865	-2.687597	2.5952055
17	1	3	0.085473323	8.689402	-2.0407352	1.5448349
18	1	3	0.086797693	6.5157922	-2.5544076	0.46253402
19	1	3	0.086797693	6.2869909	-4.2608139	0.010942964
20	1	3	0.086797693	7.114702	-2.9037551	-1.8985794
21	1	3	0.086797693	8.5604564	-2.4332357	-0.9045357
22	1	3	0.086797693	9.5657818	-5.0944843	-3.0713907
23	1	3	0.086797693	9.2468289	-3.3441402	-3.0827778
24	1	3	0.086797693	11.019311	-4.9264767	-1.1186651
25	1	3	0.086797693	10.701964	-3.1382588	-0.9737576
26	1	3	0.085473323	13.204559	-4.6374931	-1.5138108
27	1	3	0.085473323	13.136162	-2.8481755	-1.3176389
28	1	3	0.093338491	13.886819	-4.1755317	-4.0135233
29	1	3	0.093338491	14.015853	-2.4602652	-3.542829
30	1	4	0.78629755	8.7059506	-2.0418528	4.9726236
31	1	5	-0.60344643	8.8658769	-2.4038786	6.1289743
32	1	6	-0.46429492	7.6193344	-1.3055498	4.622588
33	1	2	0.026012787	6.4751661	-1.1343597	5.493244
34	1	2	-0.14375406	5.1899288	-1.2647216	4.6643309
35	1	2	-0.14166119	3.9585835	-1.036211	5.5435037
36	1	2	-0.14166119	2.6324368	-1.1433722	4.7771458
37	1	2	-0.14375406	2.4870124	-0.17896947	3.5929271
38	1	2	0.026012765	2.6832063	1.3013217	3.9635507
39	1	6	-0.46429492	2.3662141	2.1267766	2.819232
40	1	4	0.78629749	2.4459753	3.4889818	2.8337937
41	1	5	-0.60344655	2.8921976	4.0691135	3.8125495
42	1	7	0.32732009	2.0340705	1.6467885	1.9726554
43	1	3	0.059364033	3.7338319	1.4849574	4.2750836
44	1	3	0.059364033	1.9983632	1.5703551	4.7962993
45	1	8	0.089994223	3.2032035	-0.44434711	2.785574
46	1	8	0.089994223	1.4621362	-0.31873455	3.1833619
47	1	8	0.088736617	1.8088194	-0.94433393	5.4966144
48	1	8	0.088736617	2.507182	-2.1785584	4.3922682
49	1	8	0.088736617	4.029316	-0.033489277	6.0155959
50	1	8	0.088736617	3.9453256	-1.7954574	6.3547979
51	1	8	0.089994223	5.2199986	-0.49590647	3.8618572
52	1	8	0.089994223	5.1382923	-2.2692999	4.1875593
53	1	3	0.059364011	6.4644583	-1.9152965	6.2882893
54	1	3	0.059364011	6.5182272	-0.13062638	5.9614278
55	1	7	0.32732015	7.564957	-0.90477505	3.6751558
56	1	1	-0.49552531	1.9975233	4.2289092	1.7793213
57	1	2	0.10577022	1.1326222	3.7448417	0.8109459
58	1	2	0.079016217	-0.21400903	3.3860938	1.4524327
59	1	1	-0.4862738	-1.0001666	2.7111182	0.50502346
60	1	2	0.059615684	-2.2499367	2.3949111	1.0737833
61	1	2	0.059873482	-2.9629834	1.4442617	0.12101472
62	1	1	-0.48637742	-4.2471195	1.1292662	0.60589663
63	1	2	0.059873482	-5.1973226	2.0400408	0.094095374
64	1	2	0.059615684	-6.4269599	1.9684995	0.97127429
65	1	1	-0.4862738	-6.0578669	2.2725857	2.3087555
66	1	2	0.079016217	-6.4573554	3.5844719	2.6256362
67	1	2	0.1057702	-6.0688364	3.9242308	4.0696964
68	1	1	-0.49552531	-6.4494085	5.2042594	4.4644441
69	1	3	0.093338491	-6.5262538	3.1799315	4.7603758
70	1	3	0.093338491	-4.9664527	3.8409843	4.1659991
71	1	3	0.085473323	-7.554259	3.6028575	2.532339
72	1	3	0.085473323	-5.9577355	4.3214289	1.9540891
73	1	3	0.086797693	-7.2195719	2.6333052	0.54452763
74	1	3	0.086797693	-6.8457151	0.94140436	0.94248808
75	1	3	0.086797693	-5.4680422	1.7672844	-0.94925303
76	1	3	0.086797693	-4.8381272	3.0949869	0.1211597
77	1	3	0.086797693	-2.3821938	0.50019229	0.053151322
78	1	3	0.086797693	-2.987344	1.8707165	-0.90922158
79	1	3	0.086797693	-2.1541422	1.8778665	2.0606989
80	1	3	0.086797693	-2.8444948	3.3266326	1.1980645
81	1	3	0.085473323	-0.049521621	2.7222906	2.3297663
82	1	3	0.085473323	-0.70004628	4.3302165	1.791545
83	1	3	0.093338468	1.5805843	2.8659876	0.30081807
84	1	3	0.093338468	0.96839637	4.5127543	0.026510992
85	1	4	0.78629755	-7.7441517	5.514144	4.7258662
86	1	5	-0.60344643	-8.0760767	5.7352908	5.880709
87	1	6	-0.46429492	-8.6669139	5.5196121	3.7314719
88	1	2	0.026012787	-10.092505	5.4843741	3.9779501
89	1	2	-0.14375406	-10.752893	4.6129839	2.8998255
90	1	2	-0.14166119	-12.272572	4.5873016	3.0585929
91	1	2	-0.14166119	-12.968712	3.6968645	2.0175765
92	1	2	-0.14375406	-12.691291	4.0645252	0.55437485
93	1	2	0.026012765	-13.030851	5.5225389	0.19897567
94	1	6	-0.46429492	-12.89127	5.709414	-1.2278043
95	1	4	0.78629749	-13.12385	6.8985196	-1.8550064
96	1	5	-0.60344655	-13.369899	7.9025203	-1.2022582
97	1	7	0.32732009	-12.637238	4.8847143	-1.7857612
98	1	3	0.059364033	-12.353183	6.2191657	0.73673725
99	1	3	0.059364033	-14.08406	5.7371466	0.48523167
100	1	8	0.089994223	-11.625609	3.872609	0.29954376
101	1	8	0.089994223	-13.306923	3.3837402	-0.074373064
102	1	8	0.088736617	-14.064036	3.7560552	2.1951269
103	1	8	0.088736617	-12.656326	2.6400413	2.1661742
104	1	8	0.088736617	-12.663388	5.6236599	2.9810092
105	1	8	0.088736617	-12.530424	4.1968076	4.0662019
106	1	8	0.089994223	-10.495819	5.0359438	1.9058679
107	1	8	0.089994223	-10.3482	3.5773409	2.9578922
108	1	3	0.059364011	-10.305131	5.0154415	4.9674465
109	1	3	0.059364011	-10.498673	6.5157433	3.9604365
110	1	7	0.32732015	-8.3532953	5.4466692	2.7566249
111	1	4	0.78629755	15.784926	-4.9665557	-2.2471198
112	1	5	-0.60344643	16.865432	-5.0380349	-1.6799532
113	1	6	-0.46429492	15.028086	-6.0915144	-2.4375451
114	1	2	0.026012787	15.412082	-7.4095344	-1.9931057
115	1	2	-0.14375406	16.599593	-7.9213388	-2.8015667
116	1	2	-0.14147802	16.90036	-9.3705593	-2.4169132
117	1	2	-0.13727792	18.03751	-9.9806933	-3.2399363
118	1	2	-0.1214647	19.38756	-9.2952315	-2.9803002
119	1	2	0.18515214	20.527557	-9.9991238	-3.7410473
120	1	6	-0.63356424	20.694787	-11.366324	-3.3205504
121	1	9	0.59388989	21.01382	-11.664766	-2.134869
122	1	5	-0.45742748	21.315949	-11.94641	-1.0150061
123	1	3	0.03391307	21.475472	-9.4400503	-3.5725599
124	1	3	0.03391307	20.302747	-9.9743523	-4.8262096
125	1	8	0.083618433	19.351527	-8.2419726	-3.3227565
126	1	8	0.083618433	19.611923	-9.3031729	-1.8914571
127	1	8	0.087452003	17.785084	-9.929913	-4.3226716
128	1	8	0.087452003	18.108722	-11.049323	-2.9476314
129	1	8	0.088736617	15.986147	-9.9770194	-2.6034462
130	1	8	0.088736617	17.144644	-9.4329283	-1.3335253
131	1	8	0.089994223	17.477913	-7.2731925	-2.615201
132	1	8	0.089994223	16.341731	-7.8778268	-3.8835151
133	1	3	0.059364011	15.623916	-7.3992973	-0.90169273
134	1	3	0.059364011	14.554839	-8.0975056	-2.1716819
135	1	7	0.32732015	14.11563	-6.0395495	-2.9097623
136	1	1	-0.49552531	-13.128272	6.9821288	-3.2174945
137	1	2	0.10577022	-13.285877	5.886833	-4.0543868
138	1	2	0.079016217	-14.670306	5.2611475	-3.825386
139	1	1	-0.4862738	-14.761409	4.0376927	-4.5148579
140	1	2	0.059615684	-16.058847	3.511413	-4.3361573
141	1	2	0.059873482	-16.098274	2.0984187	-4.905807
142	1	1	-0.48637742	-17.407498	1.571091	-4.8207333
143	1	2	0.059873482	-18.105106	1.8148566	-6.027304
144	1	2	0.059873482	-19.58061	1.4784366	-5.8385237
145	1	1	-0.48423064	-20.131019	2.2338356	-4.7747213
146	1	2	0.052079258	-20.754606	3.4028583	-5.2654511
147	1	2	0.074368471	-21.187696	4.263012	-4.082009
148	1	10	-0.68046183	-21.794808	5.4433401	-4.5311484
149	1	11	0.39073386	-22.710369	5.1977135	-4.8240318
150	1	3	0.08737752	-21.882076	3.6982302	-3.4185364
151	1	3	0.08737752	-20.296391	4.5323579	-3.4758926
152	1	3	0.087860295	-21.659926	3.1357817	-5.8559332
153	1	3	0.087860295	-20.052277	4.006141	-5.8831253
154	1	3	0.086797693	-20.128204	1.6103372	-6.8031108
155	1	3	0.086797693	-19.673041	0.40200438	-5.5809324
156	1	3	0.086797693	-17.698961	1.1687163	-6.8371644
157	1	3	0.086797693	-18.034957	2.8815489	-6.3343488
158	1	3	0.086797693	-15.417875	1.4484896	-4.3137451
159	1	3	0.086797693	-15.69622	2.0927649	-5.9469365
160	1	3	0.086797693	-16.34442	3.4455316	-3.2578151
161	1	3	0.086797693	-16.79057	4.1470899	-4.8806919
162	1	3	0.085473323	-14.820643	5.0742686	-2.7397605
163	1	3	0.085473323	-15.43419	5.9909165	-4.1805471
164	1	3	0.093338468	-12.475224	5.1483971	-3.878054
165	1	3	0.093338483	-13.197727	6.203259	-5.1139495
166	2	1	-0.49552531	-4.2991789	5.9259251	63.164209
167	2	2	0.1057702	-3.8819044	4.8542888	62.398493
168	2	2	0.079016217	-4.1804933	5.1080306	60.916727
169	2	1	-0.4862738	-3.9937453	3.9029446	60.220953
170	2	2	0.059615684	-4.388723	4.0656866	58.880906
171	2	2	0.059873482	-4.3801635	2.6905408	58.227788
172	2	1	-0.48637742	-4.7130469	2.7901345	56.862809
173	2	2	0.059873482	-3.5444802	2.9707498	56.090651
174	2	2	0.059615684	-3.9571451	3.5263897	54.744824
175	2	1	-0.4862738	-4.6575919	4.7445126	54.944443
176	2	2	0.079016217	-3.8240106	5.8294799	54.616539
177	2	2	0.1057702	-4.5397461	7.1537987	54.899649
178	2	1	-0.49552531	-3.769746	8.2639126	54.572025
179	2	3	0.093338491	-5.4921236	7.1899703	54.323502
180	2	3	0.093338491	-4.7920218	7.2013132	55.97854
181	2	3	0.085473323	-3.6138958	5.7536316	53.533567
182	2	3	0.085473323	-2.8920431	5.8128689	55.229764
183	2	3	0.086797693	-3.0523313	3.6129051	54.0921
184	2	3	0.086797693	-4.6325473	2.8066068	54.236695
185	2	3	0.086797693	-3.0241325	1.9989287	55.949485
186	2	3	0.086797693	-2.8390363	3.705508	56.543659
187	2	3	0.086797693	-5.1439436	2.0529241	58.721859
188	2	3	0.086797693	-3.4005252	2.1844058	58.392056
189	2	3	0.086797693	-5.4244664	4.4759901	58.78642
190	2	3	0.086797693	-3.671363	4.7405323	58.366806
191	2	3	0.085473323	-5.2267104	5.457981	60.789305
192	2	3	0.085473323	-3.4991996	5.9056407	60.544099
193	2	3	0.093338491	-4.3834741	3.9299163	62.759437
194	2	3	0.093338491	-2.7908172	4.6962944	62.521844
195	2	4	0.78629755	-3.4950519	8.5672663	53.280486
196	2	5	-0.60344643	-4.0645638	9.5177985	52.764801
197	2	6	-0.46429492	-2.633484	7.8033487	52.5597
198	2	2	0.026012787	-2.536675	7.8801634	51.117065
199	2	2	-0.14375406	-2.4280963	6.4599431	50.545129
200	2	2	-0.14166119	-2.2702995	6.5044587	49.023783
201	2	2	-0.14166119	-2.1469952	5.1152975	48.381537
202	2	2	-0.14375406	-0.98212188	4.261647	48.899172
203	2	2	0.026012765	0.39256569	4.9428787	48.783961
204	2	6	-0.46429492	1.4261957	3.9978283	49.144258
205	2	4	0.78629749	2.7556022	4.3058104	49.142693
206	2	5	-0.60344655	3.12203	5.4507668	48.922612
207	2	7	0.32732009	1.1268341	3.0421773	49.37774
208	2	3	0.059364033	0.44364215	5.8248724	49.457806
209	2	3	0.059364033	0.5594605	5.2690927	47.734871
210	2	8	0.089994223	-1.1521049	3.9743076	49.959227
211	2	8	0.089994223	-0.9747683	3.3238956	48.300659
212	2	8	0.088736617	-2.0191196	5.2588215	47.28671
213	2	8	0.088736617	-3.0871515	4.5450464	48.543863
214	2	8	0.088736617	-1.3734328	7.107509	48.768273
215	2	8	0.088736617	-3.157087	7.0068095	48.580973
216	2	8	0.089994223	-1.534653	5.9759984	50.99624
217	2	8	0.089994223	-3.3273227	5.863685	50.819032
218	2	3	0.059364011	-3.442095	8.3669597	50.686579
219	2	3	0.059364011	-1.6361638	8.4645019	50.841095
220	2	7	0.32732015	-2.0700355	7.0874121	53.040497
221	2	1	-0.49552531	3.6988424	3.3420529	49.347591
222	2	2	0.10577022	3.4546738	1.9845244	49.214835
223	2	2	0.079016217	3.0856553	1.6648413	47.760445
224	2	1	-0.4862738	2.6447541	0.33381596	47.688351
225	2	2	0.059615684	2.3233724	0.018918087	46.353078
226	2	2	0.059873482	1.6075163	-1.3255078	46.355752
227	2	1	-0.48637742	1.3044661	-1.7269397	45.040324
228	2	2	0.059873482	2.3560152	-2.5105446	44.516354
229	2	2	0.059615684	2.2194023	-2.5219115	43.01044
230	2	1	-0.4862738	2.2573774	-1.1844554	42.533656
231	2	2	0.079016217	3.5184413	-0.91671769	41.96878
232	2	2	0.1057702	3.5713867	0.52373233	41.445336
233	2	1	-0.49552531	4.7861773	0.85874256	40.852727
234	2	3	0.093338491	2.751973	0.67914388	40.707327
235	2	3	0.093338491	3.3944394	1.2137004	42.29627
236	2	3	0.085473323	3.6307821	-1.6131012	41.123399
237	2	3	0.085473323	4.3242937	-1.0341108	42.7307
238	2	3	0.086797693	3.0033175	-3.1928979	42.577349
239	2	3	0.086797693	1.245638	-2.9727399	42.728224
240	2	3	0.086797693	2.2902669	-3.5506158	44.903897
241	2	3	0.086797693	3.3616614	-2.0899052	44.749598
242	2	3	0.086797693	0.65110931	-1.2227677	46.910657
243	2	3	0.086797693	2.2085606	-2.0859248	46.907436
244	2	3	0.086797693	1.6358896	0.76866334	45.888575
245	2	3	0.086797693	3.2587451	-0.048759068	45.755126
246	2	3	0.085473323	2.2683861	2.3389427	47.421235
247	2	3	0.085473323	3.9878447	1.8333361	47.127784
248	2	3	0.093338468	2.6492517	1.6693942	49.91145
249	2	3	0.093338468	4.3578743	1.404144	49.496589
250	2	4	0.78629755	5.1366479	0.38738725	39.629729
251	2	5	-0.60344643	5.1749964	1.1638384	38.687182
252	2	6	-0.46429492	5.3818527	-0.93379483	39.443469
253	2	2	0.026012787	5.4053439	-1.5552385	38.136734
254	2	2	-0.14375406	4.7855446	-2.9554538	38.250895
255	2	2	-0.14166119	4.8404758	-3.6989959	36.916948
256	2	2	-0.14166119	4.1980102	-5.0933731	36.981409
257	2	2	-0.14375406	4.7957584	-6.0393967	38.030614
258	2	2	0.026012765	6.3138751	-6.248999	37.893495
259	2	6	-0.46429492	6.7375105	-7.2776944	38.816764
260	2	4	0.78629749	8.031605	-7.693535	38.934424
261	2	5	-0.60344655	8.9205746	-7.126082	38.316065
262	2	7	0.32732009	6.007427	-7.7316631	39.379674
263	2	3	0.059364033	6.8555378	-5.3038771	38.110419
264	2	3	0.059364033	6.5492745	-6.5803786	36.858109
265	2	8	0.089994223	4.5762476	-5.671564	39.057241
266	2	8	0.089994223	4.2811897	-7.019118	37.9159
267	2	8	0.088736617	4.3028403	-5.5644309	35.980471
268	2	8	0.088736617	3.1120185	-4.9909885	37.197467
269	2	8	0.088736617	5.8994989	-3.792969	36.596894
270	2	8	0.088736617	4.2987605	-3.1108913	36.145633
271	2	8	0.089994223	5.3568028	-3.5270896	39.012362
272	2	8	0.089994223	3.7296584	-2.8690716	38.593455
273	2	3	0.059364011	4.7865663	-0.97031422	37.416186
274	2	3	0.059364011	6.4500311	-1.6107711	37.769928
275	2	7	0.32732015	5.4587894	-1.5492325	40.26159
276	2	4	0.78629755	-5.6046576	6.2804801	63.335865
277	2	5	-0.60344643	-5.8510167	7.3372439	63.898748
278	2	6	-0.46429492	-6.6221703	5.4895268	62.87363
279	2	2	0.026012787	-8.0215814	5.821541	62.990126
280	2	2	-0.14375406	-8.4668383	5.7565048	64.447264
281	2	2	-0.14147802	-9.9786911	5.9690498	64.535495
282	2	2	-0.13727792	-10.514373	5.8455453	65.963967
283	2	2	-0.1214647	-9.9827048	6.9490175	66.891104
284	2	2	0.18515214	-10.62157	6.8597423	68.290273
285	2	6	-0.63356424	-12.049676	7.0400049	68.24513
286	2	9	0.59388989	-12.573197	8.1164005	67.840176
287	2	5	-0.45742748	-13.067486	9.1335459	67.458351
288	2	3	0.03391307	-10.169463	7.6377912	68.945813
289	2	3	0.03391307	-10.391093	5.8671394	68.726564
290	2	8	0.083618433	-8.8858737	6.8481984	67.012455
291	2	8	0.083618433	-10.197269	7.9474132	66.451616
292	2	8	0.087452003	-10.25682	4.8439393	66.375142
293	2	8	0.087452003	-11.620008	5.9234159	65.900796
294	2	8	0.088736617	-10.476562	5.1870267	63.919916
295	2	8	0.088736617	-10.24716	6.964405	64.117779
296	2	8	0.089994223	-7.9254542	6.5256186	65.031764
297	2	8	0.089994223	-8.2161737	4.7510928	64.85385
298	2	3	0.059364011	-8.2178552	6.8182039	62.53813
299	2	3	0.059364011	-8.6049345	5.0633423	62.420133
300	2	7	0.32732015	-6.4235539	4.6009706	62.394793
301	2	1	-0.49552531	8.3528019	-8.771817	39.707421
302	2	2	0.10577022	7.4351369	-9.7335724	40.104685
303	2	2	0.079016217	6.8789731	-10.454297	38.867024
304	2	1	-0.4862738	5.8049003	-11.283697	39.23982
305	2	2	0.059615684	5.3489831	-11.976827	38.09791
306	2	2	0.059873482	4.0641199	-12.715726	38.452541
307	2	1	-0.48637742	3.6244195	-13.490748	37.354641
308	2	2	0.059873482	4.1248094	-14.809667	37.463974
309	2	2	0.059873482	3.8662114	-15.561228	36.162354
310	2	1	-0.48423064	4.4606509	-14.883796	35.070118
311	2	2	0.052079258	5.738889	-15.416849	34.790381
312	2	2	0.074368471	6.4068899	-14.557459	33.721181
313	2	10	-0.68046183	7.68777	-15.045734	33.43063
314	2	11	0.39073386	7.5629562	-15.847245	32.859344
315	2	3	0.08737752	5.7853589	-14.525804	32.797041
316	2	3	0.08737752	6.501823	-13.514547	34.092221
317	2	3	0.087860295	5.6444401	-16.454808	34.398817
318	2	3	0.087860295	6.389635	-15.400206	35.693149
319	2	3	0.086797693	4.2036874	-16.621471	36.260739
320	2	3	0.086797693	2.7706256	-15.605844	35.985425
321	2	3	0.086797693	3.6034027	-15.345812	38.287994
322	2	3	0.086797693	5.2210812	-14.819147	37.651399
323	2	3	0.086797693	3.2738134	-11.973548	38.698461
324	2	3	0.086797693	4.2124644	-13.321461	39.378127
325	2	3	0.086797693	5.1155964	-11.28809	37.24945
326	2	3	0.086797693	6.1206117	-12.712813	37.78337
327	2	3	0.085473323	6.515887	-9.7049482	38.130307
328	2	3	0.085473323	7.7120924	-11.039619	38.413669
329	2	3	0.093338468	6.6215244	-9.2664118	40.699105
330	2	3	0.093338483	7.9252833	-10.473627	40.770001
331	3	1	-0.49552531	-1.7977919	64.552004	-2.9808611
332	3	2	0.1057702	-0.96688466	63.475549	-2.7365676
333	3	2	0.079016217	-1.7448859	62.343747	-2.0561926
334	3	1	-0.4862738	-0.81936468	61.397321	-1.5883288
335	3	2	0.059615684	-1.4890739	60.411911	-0.84088326
336	3	2	0.059873482	-0.43252362	59.541841	-0.17429337
337	3	1	-0.48637742	-1.0384827	58.495184	0.54766227
338	3	2	0.059873482	-1.1966258	57.362621	-0.28100622
339	3	2	0.059615684	-2.2337119	56.462103	0.3544458
340	3	1	-0.4862738	-3.4447144	57.187195	0.50281046
341	3	2	0.079016217	-4.3655099	56.777386	-0.47888482
342	3	2	0.1057702	-5.6506509	57.604996	-0.38027511
343	3	1	-0.49552531	-6.6085116	57.227274	-1.3143088
344	3	3	0.093338491	-6.0799393	57.500999	0.64206201
345	3	3	0.093338491	-5.4014572	58.674045	-0.53821387
346	3	3	0.085473323	-4.5992352	55.716378	-0.27306005
347	3	3	0.085473323	-3.9467448	56.926795	-1.5022116
348	3	3	0.086797693	-2.3247916	55.525469	-0.25106489
349	3	3	0.086797693	-1.8842307	56.143616	1.3588755
350	3	3	0.086797693	-0.23311953	56.816197	-0.37157426
351	3	3	0.086797693	-1.5710752	57.622987	-1.2982251
352	3	3	0.086797693	0.14560361	60.163454	0.5422168
353	3	3	0.086797693	0.30226166	59.171543	-0.92650209
354	3	3	0.086797693	-2.1254808	60.847172	-0.031207523
355	3	3	0.086797693	-2.1181657	59.799804	-1.5219783
356	3	3	0.085473323	-2.3386933	62.741577	-1.2062535
357	3	3	0.085473323	-2.4492143	61.897573	-2.7937865
358	3	3	0.093338491	-0.11005556	63.80969	-2.111659
359	3	3	0.093338491	-0.54117505	63.095746	-3.6879719
360	3	4	0.78629755	-7.2443863	56.034667	-1.2199403
361	3	5	-0.60344643	-8.4113196	56.016505	-0.85700403
362	3	6	-0.46429492	-6.5842691	54.877103	-1.4839364
363	3	2	0.026012787	-7.0996549	53.577578	-1.1070013
364	3	2	-0.14375406	-5.953353	52.728026	-0.54115687
365	3	2	-0.14166119	-6.4509974	51.326664	-0.18073055
366	3	2	-0.14166119	-5.3527488	50.415342	0.38565708
367	3	2	-0.14375406	-4.1431491	50.206986	-0.53469695
368	3	2	0.026012765	-4.5044037	49.674342	-1.9321593
369	3	6	-0.46429492	-3.2904309	49.36249	-2.6535075
370	3	4	0.78629749	-3.2814247	48.870729	-3.9264048
371	3	5	-0.60344655	-4.3255511	48.763924	-4.5525219
372	3	7	0.32732009	-2.4014268	49.492942	-2.1534535
373	3	3	0.059364033	-5.0872332	50.434134	-2.4957319
374	3	3	0.059364033	-5.106755	48.745876	-1.8322477
375	3	8	0.089994223	-3.5737154	51.154609	-0.64840919
376	3	8	0.089994223	-3.4717901	49.477662	-0.029709449
377	3	8	0.088736617	-5.8103311	49.424324	0.59565615
378	3	8	0.088736617	-4.9826571	50.831519	1.3475609
379	3	8	0.088736617	-6.8909181	50.853089	-1.0837928
380	3	8	0.088736617	-7.2518165	51.41117	0.58502172
381	3	8	0.089994223	-5.1653258	52.651949	-1.3216507
382	3	8	0.089994223	-5.514262	53.220274	0.35552947
383	3	3	0.059364011	-7.8862831	53.677488	-0.32386141
384	3	3	0.059364011	-7.5281598	53.080461	-2.0001916
385	3	7	0.32732015	-5.645857	54.916286	-1.9070821
386	3	1	-0.49552531	-2.1203533	48.45532	-4.5093823
387	3	2	0.10577022	-0.96761761	48.154476	-3.8016966
388	3	2	0.079016217	-1.2245327	46.955709	-2.8794317
389	3	1	-0.4862738	-0.11994873	46.796213	-2.0275658
390	3	2	0.059615684	-0.33229099	45.683856	-1.1891313
391	3	2	0.059873482	0.74818543	45.702452	-0.11574281
392	3	1	-0.48637742	0.62593697	44.581786	0.72835529
393	3	2	0.059873482	1.4096196	43.51473	0.23685768
394	3	2	0.059615684	0.90351174	42.238198	0.87001766
395	3	1	-0.4862738	-0.4730932	42.082108	0.5567311
396	3	2	0.079016217	-0.62407751	41.112472	-0.45225856
397	3	2	0.1057702	-2.1072487	40.93054	-0.79692811
398	3	1	-0.49552531	-2.3393053	39.969857	-1.7779333
399	3	3	0.093338491	-2.6692674	40.653011	0.12359488
400	3	3	0.093338491	-2.5063886	41.901715	-1.1560389
401	3	3	0.085473323	-0.23147721	40.171834	-0.035957763
402	3	3	0.085473323	-0.092314641	41.424794	-1.3814432
403	3	3	0.086797693	1.5539207	41.386918	0.54659481
404	3	3	0.086797693	1.012681	42.300557	1.9724252
405	3	3	0.086797693	2.4775717	43.666064	0.50674104
406	3	3	0.086797693	1.319442	43.389421	-0.86714893
407	3	3	0.086797693	0.62211104	46.613956	0.50591217
408	3	3	0.086797693	1.7587205	45.779245	-0.58132384
409	3	3	0.086797693	-1.3238905	45.717979	-0.67330193
410	3	3	0.086797693	-0.257029	44.750455	-1.7892547
411	3	3	0.085473323	-2.1346393	47.138879	-2.2666026
412	3	3	0.085473323	-1.3851614	46.055143	-3.5164385
413	3	3	0.093338468	-0.63004526	49.040333	-3.2232613
414	3	3	0.093338468	-0.14339205	47.90434	-4.5017552
415	3	4	0.78629755	-2.2233199	38.643294	-1.5181067
416	3	5	-0.60344643	-3.2339678	37.957361	-1.4893345
417	3	6	-0.46429492	-1.0134734	38.098443	-1.2357082
418	3	2	0.026012787	-0.8584596	36.802841	-0.60985934
419	3	2	-0.14375406	0.33054711	36.868146	0.35956587
420	3	2	-0.14166119	0.59607486	35.509686	1.0071535
421	3	2	-0.14166119	1.7586581	35.54175	2.0114329
422	3	2	-0.14375406	3.1000106	36.020688	1.4417939
423	3	2	0.026012765	3.5831848	35.221465	0.21901097
424	3	6	-0.46429492	4.9215735	35.6444	-0.12732335
425	3	4	0.78629749	5.6274972	35.120577	-1.1707452
426	3	5	-0.60344655	5.1013858	34.322065	-1.9324695
427	3	7	0.32732009	5.3603401	36.351411	0.47566672
428	3	3	0.059364033	2.9027657	35.385764	-0.64339578
429	3	3	0.059364033	3.6055871	34.138232	0.4707123
430	3	8	0.089994223	3.0447298	37.097208	1.1670284
431	3	8	0.089994223	3.851262	35.928149	2.2571784
432	3	8	0.088736617	1.8919697	34.514121	2.4126413
433	3	8	0.088736617	1.4948942	36.207761	2.8619625
434	3	8	0.088736617	0.81255976	34.764777	0.21277318
435	3	8	0.088736617	-0.31374256	35.177738	1.5514802
436	3	8	0.089994223	1.2285361	37.182515	-0.21290426
437	3	8	0.089994223	0.12901024	37.630044	1.1460768
438	3	3	0.059364011	-1.765933	36.547281	-0.01371177
439	3	3	0.059364011	-0.69561625	36.030673	-1.3884743
440	3	7	0.32732015	-0.16580564	38.660103	-1.3771365
441	3	4	0.78629755	-2.3563592	65.323443	-2.0049848
442	3	5	-0.60344643	-3.2014343	66.146102	-2.3264828
443	3	6	-0.46429492	-2.0019428	65.173419	-0.691028
444	3	2	0.026012787	-2.5782833	65.930582	0.39372582
445	3	2	-0.14375406	-2.1458427	67.390911	0.31516546
446	3	2	-0.14147802	-2.6461376	68.144921	1.5479805
447	3	2	-0.13727792	-2.1890723	69.605375	1.5780968
448	3	2	-0.1214647	-2.7880111	70.434954	0.43224569
449	3	2	0.18515214	-2.3946543	71.91979	0.55193736
450	3	6	-0.63356424	-2.8898658	72.514142	1.7666512
451	3	9	0.59388989	-4.1267351	72.601124	2.0101228
452	3	5	-0.45742748	-5.2951589	72.683886	2.2395443
453	3	3	0.03391307	-2.7993516	72.474081	-0.32468983
454	3	3	0.03391307	-1.2893625	72.000498	0.52856875
455	3	8	0.083618433	-2.4143041	70.063008	-0.54239669
456	3	8	0.083618433	-3.8961602	70.345993	0.44075732
457	3	8	0.087452003	-1.0776407	69.650682	1.5423175
458	3	8	0.087452003	-2.5248041	70.027601	2.5484013
459	3	8	0.088736617	-2.2349589	67.644229	2.4527525
460	3	8	0.088736617	-3.7563346	68.097076	1.5976535
461	3	8	0.089994223	-2.5455904	67.843245	-0.61320338
462	3	8	0.089994223	-1.0339087	67.434238	0.28826456
463	3	3	0.059364011	-3.6848476	65.822562	0.39091361
464	3	3	0.059364011	-2.1931442	65.510893	1.3505888
465	3	7	0.32732015	-1.2950523	64.480361	-0.41130973
466	3	1	-0.49552531	6.940406	35.443025	-1.3596397
467	3	2	0.10577022	7.7516764	35.975166	-0.36788982
468	3	2	0.079016217	7.8926369	34.961802	0.77831658
469	3	1	-0.4862738	8.5397186	35.565457	1.8725738
470	3	2	0.059615684	8.7083053	34.600675	2.8889512
471	3	2	0.059873482	9.2197715	35.295326	4.1453232
472	3	1	-0.48637742	9.4815189	34.345456	5.1595298
473	3	2	0.059873482	10.841006	33.955815	5.1163265
474	3	2	0.059873482	11.055263	32.755171	6.03201
475	3	1	-0.48423064	10.209944	31.68388	5.6538234
476	3	2	0.052079258	10.891879	30.790743	4.7973413
477	3	2	0.074368471	9.9027426	29.74736	4.2865315
478	3	10	-0.68046183	10.540554	28.852975	3.4166122
479	3	11	0.39073386	11.066189	28.231557	3.9839855
480	3	3	0.08737752	9.4381083	29.196641	5.1363324
481	3	3	0.08737752	9.083657	30.255003	3.7335898
482	3	3	0.087860295	11.699883	30.265796	5.3551604
483	3	3	0.087860295	11.311595	31.320525	3.913087
484	3	3	0.086797693	12.137233	32.478275	6.0508316
485	3	3	0.086797693	10.797731	33.046886	7.07229
486	3	3	0.086797693	11.48574	34.789221	5.4742066
487	3	3	0.086797693	11.151868	33.661716	4.0897299
488	3	3	0.086797693	8.4419685	35.998791	4.5141704
489	3	3	0.086797693	10.108961	35.924203	3.9014269
490	3	3	0.086797693	7.7488956	34.09294	3.1543791
491	3	3	0.086797693	9.4541259	33.845652	2.5577204
492	3	3	0.085473323	6.8849568	34.619749	1.1003242
493	3	3	0.085473323	8.4685006	34.090074	0.3901256
494	3	3	0.093338468	7.3344332	36.938599	-0.0056149532
495	3	3	0.093338483	8.7557381	36.202997	-0.78083318
496	4	1	-0.49552531	5.4991364	52.91042	34.404925
497	4	2	0.1057702	4.5348459	52.302258	35.185389
498	4	2	0.079016217	5.0989442	51.973832	36.572148
499	4	1	-0.4862738	4.1883644	51.127671	37.224885
500	4	2	0.059615684	4.7361787	50.697925	38.446947
501	4	2	0.059873482	3.8204073	49.619115	39.008368
502	4	1	-0.48637742	4.2832858	49.183541	40.265316
503	4	2	0.059873482	3.7046995	49.962256	41.291591
504	4	2	0.059615684	4.5476123	49.791535	42.536835
505	4	1	-0.4862738	5.8788752	50.191564	42.250456
506	4	2	0.079016217	6.126448	51.454798	42.81833
507	4	2	0.1057702	7.5345016	51.934659	42.453134
508	4	1	-0.49552531	7.8436734	53.171387	43.007665
509	4	3	0.093338491	8.2819522	51.184933	42.798831
510	4	3	0.093338491	7.6124762	52.009823	41.349423
511	4	3	0.085473323	6.0574925	51.329993	43.914869
512	4	3	0.085473323	5.402602	52.211414	42.433018
513	4	3	0.086797693	4.0678563	50.346487	43.381869
514	4	3	0.086797693	4.5540112	48.722979	42.837828
515	4	3	0.086797693	2.6668113	49.620125	41.493731
516	4	3	0.086797693	3.6950672	51.050908	41.05184
517	4	3	0.086797693	3.826547	48.747755	38.319372
518	4	3	0.086797693	2.7658751	49.979079	39.043513
519	4	3	0.086797693	5.751956	50.24671	38.325939
520	4	3	0.086797693	4.7909891	51.558951	39.146912
521	4	3	0.085473323	6.0824744	51.466904	36.477467
522	4	3	0.085473323	5.2497523	52.92345	37.133109
523	4	3	0.093338491	4.1712136	51.386765	34.669676
524	4	3	0.093338491	3.6589739	52.972515	35.304772
525	4	4	0.78629755	8.0278584	53.312291	44.342496
526	4	5	-0.60344643	9.1626887	53.473652	44.766653
527	4	6	-0.46429492	6.9748571	53.23397	45.197164
528	4	2	0.026012787	7.1362337	53.06434	46.626028
529	4	2	-0.14375406	6.1098366	52.039802	47.128775
530	4	2	-0.14166119	6.2156314	51.874164	48.646255
531	4	2	-0.14166119	5.2098678	50.867223	49.222416
532	4	2	-0.14375406	3.736474	51.185413	48.937004
533	4	2	0.026012765	3.2977743	52.585884	49.398892
534	4	6	-0.46429492	1.8674543	52.718266	49.231605
535	4	4	0.78629749	1.1780192	53.851435	49.552203
536	4	5	-0.60344655	1.7758889	54.854665	49.912359
537	4	7	0.32732009	1.3580402	51.895399	48.884061
538	4	3	0.059364033	3.8158864	53.368186	48.803784