Title

13750 atoms
13625 bonds
24750 angles
44250 dihedrals
2250 impropers

11 atom types
14 bond types
9 angle types
39 dihedral types
3 improper types
-16.31114969 160.0634799 xlo xhi
-12.85153713 161.0277837 ylo yhi
-16.44879819 161.5033639 zlo zhi
0.0 0.0 0.0 xy xz yz

Masses

1	12.01078
2	15.99943
3	14.00672
4	12.01078
5	1.007947
6	1.007947
7	1.007947
8	15.99943
9	12.01078
10	15.99943
11	1.007947


Pair Coeffs

1	0.086879315	3.4806469
2	0.2102061	3.0398122
3	0.16769152	3.206876
4	0.10884061	3.3795318
5	0.014090815	1.1034277
6	0.016409246	2.5832257
7	0.015779483	2.6445434
8	0.16846514	3.0251065
9	0.21	3.3996695
10	0.20947353	2.99716
11	1.2326e-05	0.53453923

Bond Coeffs

1 harmonic	582.698766451	1.225198386222
2 harmonic	492.76746816345	1.381897776683
3 harmonic	279.1350963404	1.454628925034
4 harmonic	352.0565580496	1.450098586273
5 harmonic	505.144496193	1.019481865027
6 harmonic	264.62148576755	1.52190126495
7 harmonic	370.04670688625	1.093899492634
8 harmonic	301.15400723785	1.345741232799
9 harmonic	366.7408841747	1.425895053732
10 harmonic	300.03137914615	1.451203938761
11 harmonic	366.34047229585	1.464762957261
12 harmonic	602.81384337	1.196112346392
13 harmonic	329.96998057905	1.427343958716
14 harmonic	543.5267831885	0.9716763312559


Angle Coeffs

1 harmonic	55.42182150775	117.3465570514
2 harmonic	63.44422595415	115.5071327674
3 harmonic	57.8982893754	126.8062420451
4 harmonic	53.20531626545	116.5475862634
5 harmonic	65.09061609600001	110.3538806181
6 harmonic	201.41175231035	127.4691416191
7 harmonic	48.776492647595	115.6030999533
8 harmonic	55.07882548015	112.8714009681
9 harmonic	33.56981613361	180


Dihedral Coeffs

1 fourier 1	-0.1488678166443	4	180
2 fourier 1	-0.1230328948768	3	180
3 fourier 1	0.2939295466901	2	0
4 fourier 1	-0.3024127022865	1	0
5 fourier 1	0.182238503271	2	0
6 fourier 1	0.02972342374561	3	0
7 fourier 1	1.809047390003	2	180
8 fourier 1	-0.04816277792592	1	0
9 fourier 1	3.101948770557	2	180
10 fourier 1	-0.4252153282372	1	0
11 fourier 1	2.348375642009	2	180
12 fourier 1	1.256156174911	1	0
13 fourier 1	0.9974165607242	2	180
14 fourier 1	0.1155372516788	3	0
15 fourier 1	0.09223874044423	3	0
16 fourier 1	0.3159935921949	2	180
17 fourier 1	0.3247796806857	1	180
18 fourier 1	0.1040663847541	3	0
19 fourier 1	2.779853741805	2	180
20 fourier 1	0.1918272375143	3	0
21 fourier 1	0.9202179876409	1	180
22 fourier 1	0.0473758381877	3	0
23 fourier 1	0.4860993122944	2	180
24 fourier 1	0.8916986138746	1	0
25 fourier 1	1.163809172478	2	180
26 fourier 1	0.1679186987369	1	180
27 fourier 1	0.1911926717192	3	0
28 fourier 1	-0.0309670556842	3	0
29 fourier 1	0.4598191477945	2	0
30 fourier 1	0.1115525666802	3	0
31 fourier 1	0.3432490222662	1	0
32 fourier 1	0.4552156463534	3	0
33 fourier 1	-0.03687743385131	2	180
34 fourier 1	0.457973137376	1	0
35 fourier 1	-1.382973039546	1	0
36 fourier 1	0	1	0
37 fourier 1	0.3445382149273	3	0
38 fourier 1	0.1364556373303	1	0
39 fourier 1	0.3026390167484	3	0


Improper Coeffs

1 0.3333333333333333	-1	2
2 0.3666666666666667	-1	2
3 3.5	-1	2


Atoms

1	6	1	0.54583358	-2.456813	3.8793041	-7.3032849
2	6	2	-0.66794497	-1.6875426	3.7591448	-8.2942419
3	6	3	-0.51875353	-2.243859	3.1152647	-6.1138542
4	6	4	0.032973826	-1.1347729	2.1693799	-5.9981692
5	6	4	-0.14407225	-1.136663	1.4906166	-4.6247738
6	6	4	-0.14072046	0.037370261	0.50881625	-4.4915405
7	6	4	-0.14072046	-0.025923413	-0.33199727	-3.2039725
8	6	4	-0.14277979	0.039072095	0.47650881	-1.8953157
9	6	4	0.027225239	1.347666	1.2627587	-1.739344
10	6	3	-0.46197698	1.4342704	1.8685333	-0.41134819
11	6	1	0.78827941	2.5660019	2.6477478	-0.014438263
12	6	2	-0.59416974	3.5297987	2.8332791	-0.80462991
13	6	5	0.32952255	0.65871522	1.7459666	0.27921144
14	6	6	0.062789764	1.3938792	2.0689211	-2.5012282
15	6	6	0.062789764	2.2118756	0.57803779	-1.8845476
16	6	7	0.092494938	-0.82838889	1.1661432	-1.8228464
17	6	7	0.092494938	-0.045160017	-0.2417603	-1.0517166
18	6	7	0.09116571	0.81465593	-1.0606936	-3.2167799
19	6	7	0.09116571	-0.96632698	-0.92364995	-3.2082411
20	6	7	0.09116571	1.0011758	1.0587232	-4.546834
21	6	7	0.09116571	0.015636524	-0.19421515	-5.3524915
22	6	7	0.092494938	-1.0582262	2.2750982	-3.8427699
23	6	7	0.092494938	-2.0963106	0.94373536	-4.4896646
24	6	6	0.059160404	-1.2291126	1.3987209	-6.7937757
25	6	6	0.059160404	-0.17501257	2.7142806	-6.1396866
26	6	5	0.32294276	-2.9092946	3.2500281	-5.3187723
27	7	8	-0.49354628	2.5960009	3.0655834	0.93417147
28	7	4	0.10707626	1.7090771	2.3250036	1.7274676
29	7	4	0.080248732	2.3381815	0.99134717	2.1222957
30	7	8	-0.48399258	1.4382065	0.28457358	2.9495447
31	7	4	0.060852758	2.011681	-0.9509077	3.3216361
32	7	4	0.061110794	1.0317588	-1.7092661	4.2125755
33	7	8	-0.48408994	1.5505303	-2.9858663	4.5338356
34	7	4	0.061110794	2.1769667	-2.9630391	5.8000924
35	7	4	0.061110794	2.9414203	-4.2682996	6.0104746
36	7	8	-0.48618696	3.8690704	-4.4744539	4.960089
37	7	4	0.081179838	5.1488017	-4.0055292	5.3289403
38	7	4	0.030870475	6.0755473	-4.0846378	4.1194303
39	7	8	-0.13846085	7.3486404	-3.5978926	4.4475463
40	7	6	0.094171356	6.1424065	-5.1347863	3.7547838
41	7	6	0.094171356	5.6589179	-3.4618527	3.2988649
42	7	6	0.090276856	5.5699724	-4.6411297	6.1416864
43	7	6	0.090276856	5.1086828	-2.9465622	5.6701095
44	7	6	0.090097647	3.4059646	-4.279947	7.0248695
45	7	6	0.090097647	2.2126343	-5.1069424	5.9929433
46	7	6	0.090097647	1.4090088	-2.8722654	6.6005665
47	7	6	0.090097647	2.8911525	-2.114137	5.8900363
48	7	6	0.090097647	0.088554346	-1.8588386	3.6446843
49	7	6	0.090097647	0.7674802	-1.0950936	5.1062528
50	7	6	0.090097647	2.2225196	-1.5740967	2.4223143
51	7	6	0.090097647	2.9573386	-0.78841257	3.8872933
52	7	6	0.088704224	2.5552357	0.4151892	1.1938801
53	7	6	0.088704224	3.2906472	1.1984889	2.6627274
54	7	6	0.096655275	0.75294219	2.1506358	1.1832408
55	7	6	0.096655275	1.4816577	2.9079052	2.6445658
56	4	1	0.54583364	-3.2876085	4.5696931	-7.3553992
57	4	2	-0.66794503	-4.3771187	4.2704489	-6.7988109
58	4	3	-0.51875359	-3.1321811	5.8138956	-8.0467771
59	4	4	0.032973829	-4.2080778	6.7973511	-8.1575719
60	4	4	-0.14407225	-5.2435439	6.3452508	-9.1922507
61	4	4	-0.14053843	-6.3688708	7.382018	-9.3331872
62	4	4	-0.1363433	-7.3600053	7.0312586	-10.454114
63	4	4	-0.12052503	-8.255998	5.833752	-10.099024
64	4	4	0.18628276	-9.3085847	5.5648442	-11.185937
65	4	3	-0.62014866	-10.255135	6.6699804	-11.308496
66	4	9	0.59469014	-11.083347	6.9534707	-10.384658
67	4	2	-0.44155318	-11.887573	7.2298717	-9.4848907
68	4	6	0.036728751	-9.8578458	4.6268503	-10.949419
69	4	6	0.036728751	-8.7998148	5.4184734	-12.162455
70	4	7	0.086103182	-7.6330064	4.9198686	-9.9985076
71	4	7	0.086103182	-8.7623816	6.0109415	-9.1255902
72	4	7	0.089876208	-6.8059705	6.8243979	-11.396005
73	4	7	0.089876208	-8.0003302	7.9231358	-10.630685
74	4	7	0.09116571	-5.9182087	8.3694616	-9.5714301
75	4	7	0.09116571	-6.9122408	7.4840769	-8.3680835
76	4	7	0.092494938	-5.6703282	5.3713549	-8.8753802
77	4	7	0.092494938	-4.7374732	6.2082594	-10.173432
78	4	6	0.059160404	-4.6873919	6.9433404	-7.1643442
79	4	6	0.059160404	-3.7746269	7.7701795	-8.4750875
80	4	5	0.32294279	-2.1914788	6.0505795	-8.4348145
81	5	8	-0.13846085	7.7994573	-4.3115317	4.9703354
82	5	4	0.030870475	7.4651927	-4.0965848	6.3144868
83	5	4	0.081179838	6.0419735	-4.5731353	6.5913561
84	5	8	-0.48618696	5.7472191	-4.3776703	7.9575165
85	5	4	0.061110794	4.4317766	-4.8170233	8.2232266
86	5	4	0.061110794	4.1209348	-4.598154	9.7021853
87	5	8	-0.48408994	2.7805623	-4.9572955	9.977467
88	5	4	0.061110794	2.7135166	-6.2716914	10.49235
89	5	4	0.061110794	1.2550271	-6.7219807	10.542637
90	5	8	-0.48193151	0.6609731	-6.6214187	9.2611329
91	5	4	0.053331047	0.71691442	-7.8621908	8.587552
92	5	4	0.075730968	0.2290421	-7.6743048	7.1551539
93	5	10	-0.67845065	0.30096711	-8.8848262	6.4525312
94	5	11	0.39369741	-0.47078842	-9.4339134	6.7534527
95	5	6	0.091058429	-0.81424505	-7.2836716	7.1532364
96	5	6	0.091058429	0.87599219	-6.9289207	6.6440608
97	5	6	0.09115396	0.056954156	-8.6012156	9.0947342
98	5	6	0.09115396	1.7584638	-8.2566304	8.5530073
99	5	6	0.090097647	1.1856469	-7.7430234	10.988199
100	5	6	0.090097647	0.70346312	-6.0454755	11.228948
101	5	6	0.090097647	3.1240506	-6.2938578	11.527147
102	5	6	0.090097647	3.2870883	-6.9902688	9.8643704
103	5	6	0.090097647	4.2369012	-3.5169832	9.926884
104	5	6	0.090097647	4.8673752	-5.1350095	10.336743
105	5	6	0.090097647	3.6943249	-4.2386629	7.6206303
106	5	6	0.090097647	4.3268293	-5.9015718	7.9924314
107	5	6	0.090276856	5.3434165	-3.9873889	5.9506461
108	5	6	0.090276856	5.9758143	-5.6523836	6.3232459
109	5	6	0.094171356	7.5643076	-3.0171345	6.5725032
110	5	6	0.094171356	8.1721671	-4.6681444	6.952053
111	6	1	0.54583358	-6.3099209	1.3825402	27.959728
112	6	2	-0.66794497	-7.4582627	0.96873915	28.273242
113	6	3	-0.51875353	-5.2454975	1.3823963	28.914114
114	6	4	0.032973826	-5.4427306	0.90733346	30.282897
115	6	4	-0.14407225	-4.1449392	1.0127657	31.09009
116	6	4	-0.14072046	-4.342231	0.49809977	32.524047
117	6	4	-0.14072046	-3.1219844	0.75269559	33.426811
118	6	4	-0.14277979	-1.8238914	0.057536983	32.977147
119	6	4	0.027225239	-1.9369118	-1.4727777	32.959904
120	6	3	-0.46197698	-0.63583961	-2.0865628	32.69815
121	6	1	0.78827941	-0.4739566	-3.5064326	32.640769
122	6	2	-0.59416974	-1.4566991	-4.2747964	32.81843
123	6	5	0.32952255	0.20948275	-1.4914464	32.541155
124	6	6	0.062789764	-2.6446581	-1.7876045	32.164617
125	6	6	0.062789764	-2.3163031	-1.8282359	33.943009
126	6	7	0.092494938	-1.5140907	0.42600304	31.976351
127	6	7	0.092494938	-1.0232655	0.34543626	33.691834
128	6	7	0.09116571	-3.369646	0.41627394	34.457937
129	6	7	0.09116571	-2.9375028	1.8470434	33.479722
130	6	7	0.09116571	-4.5922219	-0.5843245	32.508611
131	6	7	0.09116571	-5.2102167	1.0246384	32.977169
132	6	7	0.092494938	-3.3625446	0.41088466	30.581472
133	6	7	0.092494938	-3.8182744	2.0761419	31.117987
134	6	6	0.059160404	-6.2338785	1.51799	30.769712
135	6	6	0.059160404	-5.7757479	-0.15400736	30.25571
136	6	5	0.32294276	-4.3108283	1.7355842	28.606262
137	7	8	-0.49354628	0.46208624	-3.9104401	32.451168
138	7	4	0.10707626	1.4004545	-2.9254778	32.7884
139	7	4	0.080248732	1.5659462	-2.8477642	34.303944
140	7	8	-0.48399258	2.5421202	-1.8749272	34.611348
141	7	4	0.060852758	2.7037527	-1.7961857	36.011853
142	7	4	0.061110794	3.7577258	-0.74089972	36.335334
143	7	8	-0.48408994	3.8806279	-0.58621998	37.736408
144	7	4	0.061110794	4.9646052	-1.3482652	38.226949
145	7	4	0.061110794	4.9208791	-1.3667523	39.753416
146	7	8	-0.48618696	3.6732404	-1.8599999	40.207782
147	7	4	0.081179838	3.7568255	-3.2421235	40.484191
148	7	4	0.030870475	2.3616492	-3.7712282	40.802878
149	7	8	-0.13846085	2.4081849	-5.1496592	41.054094
150	7	6	0.094171356	1.9363691	-3.2301435	41.678442
151	7	6	0.094171356	1.6954834	-3.5922902	39.931687
152	7	6	0.090276856	4.413659	-3.4170087	41.367319
153	7	6	0.090276856	4.1535258	-3.8061186	39.610146
154	7	6	0.090097647	5.7963875	-1.9305697	40.154077
155	7	6	0.090097647	5.0298996	-0.32305956	40.118899
156	7	6	0.090097647	5.9261597	-0.88722011	37.908188
157	7	6	0.090097647	4.9298425	-2.3975633	37.857421
158	7	6	0.090097647	3.4191119	0.23012402	35.914667
159	7	6	0.090097647	4.7196765	-0.98684782	35.825559
160	7	6	0.090097647	1.7483449	-1.4996012	36.502598
161	7	6	0.090097647	3.0403088	-2.7754509	36.422232
162	7	6	0.088704224	0.58333145	-2.5752085	34.752506
163	7	6	0.088704224	1.8787858	-3.8510253	34.675109
164	7	6	0.096655275	1.0865251	-1.935106	32.386662
165	7	6	0.096655275	2.374864	-3.1907326	32.327174
166	4	1	0.54583364	-6.1296042	1.741563	26.955655
167	4	2	-0.66794503	-5.3502656	2.7146956	26.776729
168	4	3	-0.51875359	-6.7712411	1.0997374	25.848152
169	4	4	0.032973829	-6.5750332	1.5268678	24.463928
170	4	4	-0.14407225	-7.3612578	2.8112854	24.182383
171	4	4	-0.14053843	-7.1799251	3.2583057	22.723479
172	4	4	-0.1363433	-8.054881	4.4689901	22.362159
173	4	4	-0.12052503	-7.5640159	5.7706119	23.016182
174	4	4	0.18628276	-8.3872397	6.9855689	22.560318
175	4	3	-0.62014866	-8.2262617	7.2438722	21.132148
176	4	9	0.59469014	-7.1206392	7.6361812	20.638719
177	4	2	-0.44155318	-6.0443716	8.0160885	20.159057
178	4	6	0.036728751	-8.0788412	7.883765	23.139624
179	4	6	0.036728751	-9.4620185	6.8022277	22.772675
180	4	7	0.086103182	-7.6605761	5.6918726	24.119759
181	4	7	0.086103182	-6.4911567	5.9368256	22.77798
182	4	7	0.089876208	-9.1098358	4.2721311	22.654085
183	4	7	0.089876208	-8.0292669	4.5868705	21.256679
184	4	7	0.09116571	-7.4643146	2.4184389	22.053668
185	4	7	0.09116571	-6.1104819	3.4953385	22.530609
186	4	7	0.092494938	-7.0054031	3.6103377	24.864958
187	4	7	0.092494938	-8.4394349	2.6262738	24.384608
188	4	6	0.059160404	-5.4909429	1.682631	24.268884
189	4	6	0.059160404	-6.9331302	0.72284907	23.785391
190	4	5	0.32294279	-7.3554547	0.25430012	26.036415
191	5	8	-0.13846085	2.7724551	-5.259024	41.971248
192	5	4	0.030870475	4.1669515	-5.3221847	41.844486
193	5	4	0.081179838	4.7434	-3.9284849	41.610781
194	5	8	-0.48618696	6.1489889	-4.0189291	41.523485
195	5	4	0.061110794	6.6913644	-2.733055	41.308128
196	5	4	0.061110794	8.2114624	-2.8416142	41.21137
197	5	8	-0.48408994	8.7732111	-1.5771446	40.916555
198	5	4	0.061110794	9.2191117	-0.9432234	42.098313
199	5	4	0.061110794	9.5852329	0.50663527	41.787917
200	5	8	-0.48193151	8.4854157	1.1813653	41.204472
201	5	4	0.053331047	7.7526726	1.8827019	42.188123
202	5	4	0.075730968	6.486155	2.4500047	41.556312
203	5	10	-0.67845065	5.7230817	3.1275905	42.516942
204	5	11	0.39369741	6.1666522	4.0045458	42.664765
205	5	6	0.091058429	6.7490266	3.1316908	40.715331
206	5	6	0.091058429	5.8781405	1.6154533	41.144972
207	5	6	0.09115396	8.3602706	2.7256802	42.587061
208	5	6	0.09115396	7.4546079	1.2108127	43.025574
209	5	6	0.090097647	9.9799239	1.0056623	42.705009
210	5	6	0.090097647	10.416372	0.50767175	41.051634
211	5	6	0.090097647	10.126503	-1.4597304	42.485218
212	5	6	0.090097647	8.4372253	-0.95168078	42.890953
213	5	6	0.090097647	8.4597578	-3.5280783	40.374719
214	5	6	0.090097647	8.6244556	-3.3096946	42.137863
215	5	6	0.090097647	6.3094963	-2.2992477	40.355528
216	5	6	0.090097647	6.434394	-2.0530978	42.152018
217	5	6	0.090276856	4.315824	-3.5245418	40.66442
218	5	6	0.090276856	4.4414116	-3.2773824	42.462782
219	5	6	0.094171356	4.4514427	-5.99941	41.006608
220	5	6	0.094171356	4.5902581	-5.7398816	42.782209
221	6	1	0.54583358	0.32578099	-1.2480757	58.825712
222	6	2	-0.66794497	1.2484866	-1.9920653	58.397571
223	6	3	-0.51875353	0.063914709	-1.1384959	60.226879
224	6	4	0.032973826	0.84802501	-1.8794932	61.213919
225	6	4	-0.14407225	0.36258572	-1.5778726	62.635296
226	6	4	-0.14072046	1.1949353	-2.3402997	63.677378
227	6	4	-0.14072046	0.63148892	-2.2155475	65.104182
228	6	4	-0.14277979	0.5907389	-0.78201201	65.664365
229	6	4	0.027225239	1.9805922	-0.14118803	65.776555
230	6	3	-0.46197698	1.905729	1.1426932	66.472314
231	6	1	0.78827941	3.0718766	1.9351743	66.712319
232	6	2	-0.59416974	4.2068655	1.5439877	66.329563
233	6	5	0.32952255	0.98641369	1.5119703	66.80679
234	6	6	0.062789764	2.3983647	0.028376509	64.762052
235	6	6	0.062789764	2.6586752	-0.82081555	66.337888
236	6	7	0.092494938	-0.072444485	-0.14268782	65.044052
237	6	7	0.092494938	0.14003865	-0.8300703	66.678872
238	6	7	0.09116571	1.2459947	-2.8477866	65.782705
239	6	7	0.09116571	-0.39870455	-2.6313283	65.120236
240	6	7	0.09116571	2.2505774	-1.9951981	63.647367
241	6	7	0.09116571	1.1993313	-3.4198489	63.41183
242	6	7	0.092494938	0.44983512	-0.48540144	62.814149
243	6	7	0.092494938	-0.70677514	-1.8721291	62.725503
244	6	6	0.059160404	0.75234682	-2.9684207	61.011712
245	6	6	0.059160404	1.9184792	-1.5907177	61.120002
246	6	5	0.32294276	-0.71233983	-0.50846849	60.532846
247	7	8	-0.49354628	2.9847355	2.8423562	67.207066
248	7	4	0.10707626	1.7844997	2.7923797	67.92911
249	7	4	0.080248732	1.9568602	1.9430029	69.185753
250	7	8	-0.48399258	0.74485811	1.9412095	69.910234
251	7	4	0.060852758	0.89430067	1.1587576	71.07607
252	7	4	0.061110794	-0.42034862	1.1596787	71.851199
253	7	8	-0.48408994	-0.32083757	0.31688451	72.983381
254	7	4	0.061110794	-0.017089481	1.0712341	74.138822
255	7	4	0.061110794	0.33215805	0.12394461	75.284694
256	7	8	-0.48618696	1.3964296	-0.73341226	74.912392
257	7	4	0.081179838	2.6318287	-0.21180358	75.354396
258	7	4	0.030870475	3.7632246	-1.0657929	74.789882
259	7	8	-0.13846085	5.00615	-0.55457029	75.188799
260	7	6	0.094171356	3.6511217	-2.1219765	75.124783
261	7	6	0.094171356	3.7135834	-1.0501826	73.6799
262	7	6	0.090276856	2.6843846	-0.24257395	76.467149
263	7	6	0.090276856	2.7766848	0.83547963	75.005638
264	7	6	0.090097647	0.53300176	0.70675299	76.21471
265	7	6	0.090097647	-0.55669206	-0.50733825	75.499602
266	7	6	0.090097647	-0.90194494	1.6757159	74.439472
267	7	6	0.090097647	0.84387268	1.7556459	73.968203
268	7	6	0.090097647	-1.2143596	0.74954527	71.191014
269	7	6	0.090097647	-0.72343519	2.2055088	72.096327
270	7	6	0.090097647	1.1461572	0.10544805	70.813955
271	7	6	0.090097647	1.6943225	1.5775981	71.728128
272	7	6	0.088704224	2.2328669	0.90874936	68.877263
273	7	6	0.088704224	2.7801111	2.381341	69.795902
274	7	6	0.096655275	0.9667519	2.3778372	67.296477
275	7	6	0.096655275	1.5030048	3.8256569	68.22179
276	4	1	0.54583364	-0.27401337	-0.68628127	58.122713
277	4	2	-0.66794503	-1.5015973	-0.52020414	58.350367
278	4	3	-0.51875359	0.3383708	-0.13386515	56.952233
279	4	4	0.032973829	-0.40635634	0.63788632	55.958858
280	4	4	-0.14407225	-1.2543465	-0.2907586	55.083828
281	4	4	-0.14053843	-2.0255154	0.50758956	54.021261
282	4	4	-0.1363433	-2.7869191	-0.39615451	53.03873
283	4	4	-0.12052503	-4.0074828	-1.0740244	53.681871
284	4	4	0.18628276	-4.8143792	-1.8887835	52.65878
285	4	3	-0.62014866	-5.4046258	-1.0355313	51.631222
286	4	9	0.59469014	-6.3270769	-0.20001424	51.897257
287	4	2	-0.44155318	-7.2231547	0.61382859	52.156992
288	4	6	0.036728751	-5.6172366	-2.4539623	53.181708
289	4	6	0.036728751	-4.1466861	-2.6296184	52.16969
290	4	7	0.086103182	-3.6695733	-1.7708877	54.477863
291	4	7	0.086103182	-4.6646182	-0.31085541	54.152127
292	4	7	0.089876208	-2.0995086	-1.166281	52.624875
293	4	7	0.089876208	-3.1290599	0.23792118	52.191661
294	4	7	0.09116571	-1.302881	1.1164923	53.436507
295	4	7	0.09116571	-2.7340801	1.2084444	54.515054
296	4	7	0.092494938	-1.9692676	-0.84236639	55.728531
297	4	7	0.092494938	-0.58580735	-1.0268702	54.585045
298	4	6	0.059160404	-1.0502629	1.3869111	56.470622
299	4	6	0.059160404	0.3147257	1.1878716	55.316481
300	4	5	0.32294279	1.3716321	-0.23794661	56.837992
301	5	8	-0.13846085	5.1341343	-0.82562068	76.13536
302	5	4	0.030870475	4.5629713	0.18360438	76.922707
303	5	4	0.081179838	3.0419292	0.058208235	76.926826
304	5	8	-0.48618696	2.4980863	1.0631816	77.754923
305	5	4	0.061110794	1.0902442	0.95414163	77.765543
306	5	4	0.061110794	0.51105577	2.047356	78.660678
307	5	8	-0.48408994	-0.90267496	2.0089817	78.625269
308	5	4	0.061110794	-1.4085318	1.288311	79.730701
309	5	4	0.061110794	-2.9041238	1.0474719	79.536582
310	5	8	-0.48193151	-3.143445	0.37945342	78.311126
311	5	4	0.053331047	-3.2417028	-1.0152106	78.51512
312	5	4	0.075730968	-3.3247858	-1.7124195	77.161576
313	5	10	-0.67845065	-3.393849	-3.1018206	77.331896
314	5	11	0.39369741	-4.3250626	-3.3075224	77.611512
315	5	6	0.091058429	-4.2101002	-1.3445917	76.594154
316	5	6	0.091058429	-2.4142476	-1.4726067	76.57101
317	5	6	0.09115396	-4.1620192	-1.2516319	79.094828
318	5	6	0.09115396	-2.350567	-1.4081908	79.056456
319	5	6	0.090097647	-3.3238633	0.5164596	80.424113
320	5	6	0.090097647	-3.4145235	2.0326552	79.494026
321	5	6	0.090097647	-1.2658232	1.878376	80.66413
322	5	6	0.090097647	-0.90122367	0.30419627	79.848398
323	5	6	0.090097647	0.83513914	3.0321056	78.263053
324	5	6	0.090097647	0.93519095	1.9671037	79.691076
325	5	6	0.090097647	0.67744758	1.0861718	76.73908
326	5	6	0.090097647	0.77710452	-0.037633538	78.164105
327	5	6	0.090276856	2.6763444	0.17057411	75.880255
328	5	6	0.090276856	2.7752025	-0.95438597	77.307019
329	5	6	0.094171356	4.863095	1.188295	76.545704
330	5	6	0.094171356	4.9407029	0.080044636	77.961735
331	6	1	0.54583358	-6.2266116	-5.2586597	98.205209
332	6	2	-0.66794497	-5.893436	-6.4488043	97.958712
333	6	3	-0.51875353	-5.3236859	-4.3665577	98.863032
334	6	4	0.032973826	-3.9873897	-4.7938802	99.275174
335	6	4	-0.14407225	-3.2308858	-3.6458227	99.950898
336	6	4	-0.14072046	-1.8194917	-4.0845313	100.36987
337	6	4	-0.14072046	-1.0877115	-3.0265951	101.2149
338	6	4	-0.14277979	-0.84398188	-1.682143	100.5053
339	6	4	0.027225239	0.041748032	-1.8126317	99.258949
340	6	3	-0.46197698	0.38548679	-0.49510755	98.726023
341	6	1	0.78827941	1.2121957	-0.34628824	97.568468
342	6	2	-0.59416974	1.6735548	-1.3557599	96.971942
343	6	5	0.32952255	0.024700859	0.37295544	99.183933
344	6	6	0.062789764	-0.49706133	-2.3837651	98.474098
345	6	6	0.062789764	0.97657629	-2.3541963	99.522746
346	6	7	0.092494938	-1.810344	-1.2060992	100.23537
347	6	7	0.092494938	-0.33958337	-1.0064903	101.229
348	6	7	0.09116571	-0.10783681	-3.4459096	101.53389
349	6	7	0.09116571	-1.6744987	-2.8377565	102.13927
350	6	7	0.09116571	-1.2194914	-4.3439909	99.471508
351	6	7	0.09116571	-1.8990945	-5.007807	100.98403
352	6	7	0.092494938	-3.1620564	-2.7988675	99.236039
353	6	7	0.092494938	-3.7988681	-3.3130797	100.84808
354	6	6	0.059160404	-4.0799018	-5.6457419	99.983396
355	6	6	0.059160404	-3.4209593	-5.1329758	98.379487
356	6	5	0.32294276	-5.6462242	-3.3889318	99.045618
357	7	8	-0.49354628	1.4360087	0.6023402	97.214408
358	7	4	0.10707626	1.2450982	1.4861245	98.285337
359	7	4	0.080248732	2.4176474	1.4001783	99.259012
360	7	8	-0.48399258	2.2157778	2.3259977	100.30588
361	7	4	0.060852758	3.2964056	2.2552566	101.21196
362	7	4	0.061110794	3.0688621	3.2563229	102.34121
363	7	8	-0.48408994	4.0990698	3.1483788	103.30509
364	7	4	0.061110794	5.0944599	4.1254656	103.07959
365	7	4	0.061110794	6.3037085	3.8300164	103.96434
366	7	8	-0.48618696	6.7815494	2.5175537	103.72886
367	7	4	0.081179838	7.8380129	2.5345795	102.79224
368	7	4	0.030870475	8.2094806	1.0985118	102.43482
369	7	8	-0.13846085	9.2386429	1.0832135	101.48301
370	7	6	0.094171356	8.5167997	0.54226895	103.34936
371	7	6	0.094171356	7.321329	0.58797699	102.00434
372	7	6	0.090276856	8.7318446	3.0339978	103.23221
373	7	6	0.090276856	7.5415709	3.0620594	101.85773
374	7	6	0.090097647	7.0802814	4.6191936	103.82626
375	7	6	0.090097647	5.9832061	3.8920988	105.0265
376	7	6	0.090097647	4.702593	5.1329484	103.3445
377	7	6	0.090097647	5.4255773	4.1372017	102.01704
378	7	6	0.090097647	2.1085487	3.0057394	102.84073
379	7	6	0.090097647	2.9491813	4.2856305	101.92659
380	7	6	0.090097647	3.3717088	1.2362678	101.65647
381	7	6	0.090097647	4.2532413	2.5053918	100.69957
382	7	6	0.088704224	2.4702101	0.36098101	99.656921
383	7	6	0.088704224	3.3545569	1.6330574	98.702116
384	7	6	0.096655275	0.29162309	1.257035	98.813716
385	7	6	0.096655275	1.1770224	2.5194257	97.885065
386	4	1	0.54583364	-7.2081403	-4.9099028	97.914445
387	4	2	-0.66794503	-7.8216006	-4.0978851	98.656512
388	4	3	-0.51875359	-7.7884043	-5.3689603	96.688574
389	4	4	0.032973829	-9.10836	-4.9407844	96.228795
390	4	4	-0.14407225	-10.209358	-5.6512799	97.022612
391	4	4	-0.14053843	-11.602224	-5.2251572	96.533273
392	4	4	-0.1363433	-12.734557	-6.0110376	97.213032
393	4	4	-0.12052503	-12.927912	-5.6163509	98.686039
394	4	4	0.18628276	-14.13011	-6.3355417	99.317795
395	4	3	-0.62014866	-15.388727	-5.9372653	98.693643
396	4	9	0.59469014	-15.857011	-4.7598473	98.812705
397	4	2	-0.44155318	-16.31115	-3.6138285	98.927408
398	4	6	0.036728751	-14.166824	-6.1142274	100.40735
399	4	6	0.036728751	-14.004221	-7.433142	99.202536
400	4	7	0.086103182	-12.023717	-5.8949335	99.267613
401	4	7	0.086103182	-13.064219	-4.5166207	98.77211
402	4	7	0.089876208	-12.535014	-7.1024206	97.135766
403	4	7	0.089876208	-13.673651	-5.8015459	96.65549
404	4	7	0.09116571	-11.668422	-5.4070156	95.438994
405	4	7	0.09116571	-11.745601	-4.135269	96.702621
406	4	7	0.092494938	-10.098619	-5.4016359	98.097991
407	4	7	0.092494938	-10.090943	-6.7505823	96.899721
408	4	6	0.059160404	-9.2027841	-3.8372546	96.333016
409	4	6	0.059160404	-9.2132581	-5.1933775	95.15163
410	4	5	0.32294279	-7.2164785	-5.9882682	96.071426
411	5	8	-0.13846085	10.078947	1.2894332	101.97003
412	5	4	0.030870475	10.213028	2.6846704	101.96639
413	5	4	0.081179838	9.2762541	3.3116627	102.99529
414	5	8	-0.48618696	9.4593522	4.7109321	102.99411
415	5	4	0.061110794	8.5967449	5.2997514	103.94449
416	5	4	0.061110794	8.7993323	6.8132494	103.93322
417	5	8	-0.48408994	7.8895635	7.4339888	104.82112
418	5	4	0.061110794	8.5055847	7.6876427	106.06748
419	5	4	0.061110794	7.445105	8.1206838	107.0776
420	5	8	-0.48193151	6.4264072	7.142069	107.17676
421	5	4	0.053331047	6.6798768	6.2670587	108.25679
422	5	4	0.075730968	5.6638002	5.1304999	108.22667
423	5	10	-0.67845065	5.9090413	4.2290409	109.27139
424	5	11	0.39369741	5.5636301	4.6546041	110.10039
425	5	6	0.091058429	4.6295922	5.5383518	108.2982
426	5	6	0.091058429	5.7527913	4.5868877	107.26131
427	5	6	0.09115396	6.576002	6.8124285	109.22153
428	5	6	0.09115396	7.7004856	5.8252235	108.18794
429	5	6	0.090097647	7.9257785	8.3656119	108.05475
430	5	6	0.090097647	6.9805831	9.0619228	106.71539
431	5	6	0.090097647	9.2474981	8.5112096	105.96195
432	5	6	0.090097647	9.0259433	6.7855625	106.4614
433	5	6	0.090097647	8.5847471	7.1864513	102.90972
434	5	6	0.090097647	9.8684032	7.0608476	104.14258
435	5	6	0.090097647	7.5319558	5.0866689	103.69494
436	5	6	0.090097647	8.8197119	4.9167061	104.9663
437	5	6	0.090276856	8.2278136	3.0520474	102.7215
438	5	6	0.090276856	9.5165402	2.8824702	103.99484
439	5	6	0.094171356	9.997045	3.0939022	100.95273
440	5	6	0.094171356	11.262279	2.9413051	102.22367
441	6	1	0.54583358	-4.1322288	-2.227629	141.94898
442	6	2	-0.66794497	-4.6563541	-3.3734901	141.97147
443	6	3	-0.51875353	-3.2612024	-1.8414138	140.88314
444	6	4	0.032973826	-2.943399	-2.7520768	139.78412
445	6	4	-0.14407225	-1.994959	-2.0877661	138.78108
446	6	4	-0.14072046	-1.6720433	-3.0342774	137.61494
447	6	4	-0.14072046	-0.58189147	-2.4834748	136.67846
448	6	4	-0.14277979	-0.93728574	-1.1618671	135.9731
449	6	4	0.027225239	-2.1625731	-1.2805817	135.05685
450	6	3	-0.46197698	-2.3515591	-0.055510259	134.28128
451	6	1	0.78827941	-3.4235144	0.08160109	133.34445
452	6	2	-0.59416974	-4.2406988	-0.85922892	133.15796
453	6	5	0.32952255	-1.7016168	0.75459916	134.40243
454	6	6	0.062789764	-3.0721803	-1.4578977	135.66814
455	6	6	0.062789764	-2.0233027	-2.1355366	134.3594
456	6	7	0.092494938	-1.0990446	-0.35586331	136.71978
457	6	7	0.092494938	-0.062015183	-0.86353052	135.35702
458	6	7	0.09116571	-0.35847487	-3.2526341	135.90632
459	6	7	0.09116571	0.35053071	-2.332884	137.26356
460	6	7	0.09116571	-2.5962857	-3.2599858	137.04118
461	6	7	0.09116571	-1.3035091	-3.9984356	138.02791
462	6	7	0.092494938	-2.4799584	-1.1676651	138.39213
463	6	7	0.092494938	-1.0534158	-1.8044544	139.30213
464	6	6	0.059160404	-2.4664342	-3.6676827	140.1964
465	6	6	0.059160404	-3.8850711	-3.0410854	139.26662
466	6	5	0.32294276	-2.8507842	-0.88016366	140.90914
467	7	8	-0.49354628	-3.531239	0.96445599	132.81124
468	7	4	0.10707626	-2.2802291	1.5963046	132.82359
469	7	4	0.080248732	-1.3373599	0.92474878	131.82845
470	7	8	-0.48399258	-0.099594278	1.604235	131.83619
471	7	4	0.060852758	0.77989645	0.9911447	130.9173
472	7	4	0.061110794	2.1154906	1.7294065	130.93421
473	7	8	-0.48408994	3.0410777	1.0849504	130.0798
474	7	4	0.061110794	3.0780098	1.7202093	128.81828
475	7	4	0.061110794	3.8840981	0.86422117	127.84368
476	7	8	-0.48618696	3.3432122	-0.44265719	127.76715
477	7	4	0.081179838	2.457157	-0.54982821	126.67305
478	7	4	0.030870475	1.7660487	-1.9091833	126.72357
479	7	8	-0.13846085	0.85690473	-2.0340234	125.66375
480	7	6	0.094171356	2.5220476	-2.7260768	126.68616
481	7	6	0.094171356	1.2089184	-2.0001863	127.6807
482	7	6	0.090276856	3.0208737	-0.47301486	125.71479
483	7	6	0.090276856	1.6749632	0.24164875	126.70702
484	7	6	0.090097647	3.9561686	1.3760168	126.85483
485	7	6	0.090097647	4.9236559	0.78241932	128.22758
486	7	6	0.090097647	3.5743657	2.7122921	128.90862
487	7	6	0.090097647	2.0562892	1.8667151	128.40186
488	7	6	0.090097647	2.5223187	1.6900131	131.96738
489	7	6	0.090097647	1.9629457	2.8092091	130.69658
490	7	6	0.090097647	0.96318682	-0.071852153	131.19666
491	7	6	0.090097647	0.36041936	1.0341441	129.88636
492	7	6	0.088704224	-1.2045718	-0.1390911	132.13117
493	7	6	0.088704224	-1.804545	0.96825848	130.8175
494	7	6	0.096655275	-1.840047	1.5679981	133.84644
495	7	6	0.096655275	-2.4170104	2.6601691	132.53716
496	4	1	0.54583364	-4.3455419	-1.5293188	142.74675
497	4	2	-0.66794503	-3.4380641	-0.75506652	143.15096
498	4	3	-0.51875359	-5.6560583	-1.4903692	143.32227
499	4	4	0.032973829	-6.0195628	-0.57331099	144.40111
500	4	4	-0.14407225	-5.4421381	-1.0583087	145.73471
501	4	4	-0.14053843	-5.8360381	-0.11332364	146.88055
502	4	4	-0.1363433	-5.3881462	-0.63197128	148.25615
503	4	4	-0.12052503	-3.866839	-0.54085716	148.45674
504	4	4	0.18628276	-3.4503777	-0.9650582	149.87386
505	4	3	-0.62014866	-3.9795167	-0.057751472	150.88831
506	4	9	0.59469014	-3.5843417	1.1481029	150.98594
507	4	2	-0.44155318	-3.2008251	2.3215424	151.07928
508	4	6	0.036728751	-2.3405513	-0.99641875	149.94288
509	4	6	0.036728751	-3.8281584	-1.9896875	150.07703
510	4	7	0.086103182	-3.3557363	-1.2158951	147.73806
511	4	7	0.086103182	-3.5170133	0.49564924	148.26009
512	4	7	0.089876208	-5.7263258	-1.6828384	148.39112
513	4	7	0.089876208	-5.8934201	-0.014938279	149.03113
514	4	7	0.09116571	-6.9425451	-0.011921616	146.89671
515	4	7	0.09116571	-5.407995	0.89749609	146.70135
516	4	7	0.092494938	-4.3366406	-1.1071279	145.65398
517	4	7	0.092494938	-5.8278609	-2.0804066	145.94477
518	4	6	0.059160404	-5.6505024	0.4493014	144.16528
519	4	6	0.059160404	-7.1274136	-0.52865531	144.47702
520	4	5	0.32294279	-6.3960414	-2.1022754	142.91056
521	5	8	-0.13846085	1.3936959	-2.2209097	124.84966
522	5	4	0.030870475	1.7333152	-0.97768308	124.29855
523	5	4	0.081179838	2.8682191	-0.336276	125.09221
524	5	8	-0.48618696	3.2120426	0.89456145	124.49362
525	5	4	0.061110794	4.2627422	1.4950824	125.22124
526	5	4	0.061110794	4.6250126	2.8272241	124.56855
527	5	8	-0.48408994	5.622134	3.4862509	125.32538
528	5	4	0.061110794	6.9029367	3.2421576	124.78022
529	5	4	0.061110794	7.9701474	3.7484335	125.74833