Title

143 atoms
152 bonds
265 angles
413 dihedrals
168 impropers

10 atom types
14 bond types
9 angle types
20 dihedral types
3 improper types
-11.39999962 88.60000038 xlo xhi
-3.647000074 96.35299993 ylo yhi
-3.038000107 96.96199989 zlo zhi
0.0 0.0 0.0 xy xz yz

Masses

1	14.00672
2	12.01078
3	1.007947
4	1.007947
5	12.01078
6	18.998403
7	15.99943
8	1.007947
9	15.99943
10	1.007947


Pair Coeffs

1	0.16769152	3.206876
2	0.086879315	3.4806469
3	0.015611343	2.5725815
4	0.014090815	1.1034277
5	0.10884061	3.3795318
6	0.061	3.1181455
7	0.2102061	3.0398122
8	0.015779483	2.6445434
9	0.20947353	2.99716
10	1.2326e-05	0.53453923

Bond Coeffs

1 harmonic	390.03554688505	1.390160554689
2 harmonic	505.144496193	1.019481865027
3 harmonic	422.7150220147	1.421786517481
4 harmonic	360.7852444772	1.387193227181
5 harmonic	397.2545789619	1.085358495916
6 harmonic	279.1350963404	1.454628925034
7 harmonic	492.76746816345	1.381897776683
8 harmonic	289.73813263395	1.498646816465
9 harmonic	340.45121009905	1.358690858053
10 harmonic	582.698766451	1.225198386222
11 harmonic	264.62148576755	1.52190126495
12 harmonic	370.04670688625	1.093899492634
13 harmonic	385.7604595587	1.369745182308
14 harmonic	543.5267831885	0.9716763312559


Angle Coeffs

1 harmonic	57.8982893754	126.8062420451
2 harmonic	55.42182150775	117.3465570514
3 harmonic	63.44422595415	115.5071327674
4 harmonic	34.066775159195	129.1835929926
5 harmonic	53.20531626545	116.5475862634
6 harmonic	14.32262199324	138.3184368373
7 harmonic	48.776492647595	115.6030999533
8 harmonic	65.09061609600001	110.3538806181
9 harmonic	201.41175231035	127.4691416191


Dihedral Coeffs

1 fourier 1	3.661930099076	2	180
2 fourier 1	1.193093382682	2	180
3 fourier 1	0.02021088501612	1	0
4 fourier 1	1.163235555439	2	180
5 fourier 1	0.02664938770063	3	0
6 fourier 1	3.101948770557	2	180
7 fourier 1	-0.4252153282372	1	0
8 fourier 1	1.809047390003	2	180
9 fourier 1	-0.04816277792592	1	0
10 fourier 1	0.9974165607242	2	180
11 fourier 1	2.348375642009	2	180
12 fourier 1	1.256156174911	1	0
13 fourier 1	0.1155372516788	3	0
14 fourier 1	0.09223874044423	3	0
15 fourier 1	0.3159935921949	2	180
16 fourier 1	0.3247796806857	1	180
17 fourier 1	0.1040663847541	3	0
18 fourier 1	2.687457892086	2	180
19 fourier 1	2.772607909663	2	180
20 fourier 1	0.09692684957115	1	0


Improper Coeffs

1 0.3666666666666667	-1	2
2 0.3333333333333333	-1	2
3 3.5	-1	2


Atoms

1	1	1	-0.41032901	4.994	-0.42699999	-0.315
2	1	2	0.109267	3.5810001	-0.227	-0.219
3	1	2	-0.40867701	2.9690001	0.67199999	-1
4	1	3	0.229698	3.5350001	1.2589999	-1.712
5	1	2	-0.158675	1.515	0.88300002	-0.889
6	1	3	0.20972399	1.049	1.637	-1.511
7	1	2	-0.033876002	0.78399998	0.16599999	-0.018999999
8	1	2	-0.033876002	-0.667	0.43599999	0.085000001
9	1	2	-0.172888	-1.115	1.175	1.114
10	1	3	0.20972399	-0.428	1.5549999	1.8609999
11	1	2	-0.38284501	-2.5469999	1.5	1.238
12	1	3	0.225867	-2.8829999	2.092	2.0799999
13	1	2	0.18375599	-3.4159999	1.076	0.31200001
14	1	1	-0.530146	-4.8049998	1.398	0.42199999
15	1	4	0.323672	-5.4850001	1.068	-0.29899999
16	1	2	-0.33544901	-2.9349999	0.26899999	-0.83200002
17	1	3	0.221855	-3.6570001	-0.046	-1.575
18	1	2	-0.24808601	-1.633	-0.068000004	-0.94499999
19	1	5	0.75397098	-1.154	-0.884	-2.1289999
20	1	6	-0.199405	-0.259	-1.853	-1.714
21	1	6	-0.199405	-0.52999997	-0.050999999	-3.0380001
22	1	6	-0.199405	-2.2030001	-1.526	-2.767
23	1	2	-0.239419	1.452	-0.86400002	0.84299999
24	1	5	0.75397098	0.65700001	-1.673	1.849
25	1	6	-0.199405	-0.51599997	-2.131	1.277
26	1	6	-0.199405	1.367	-2.7750001	2.2950001
27	1	6	-0.199405	0.34999999	-0.87699997	2.9360001
28	1	2	-0.36154601	2.789	-1.018	0.75
29	1	3	0.22575299	3.312	-1.726	1.381
30	1	4	0.37795499	5.572	0.12	-0.99199998
31	1	2	0.77159399	-5.1729999	1.977	1.2359999
32	1	7	-0.64274001	-5.0669999	1.52	2.404
33	1	2	-0.366541	-5.7930002	3.2909999	0.991
34	1	2	-0.071098	-5.9000001	3.763	-0.25999999
35	1	3	0.23069	-5.5349998	3.1860001	-1.101
36	1	2	-0.24201401	-6.5209999	5.079	-0.51599997
37	1	3	0.221779	-6.598	5.3940001	-1.546
38	1	2	-0.20186099	-6.967	5.8460002	0.50300002
39	1	5	0.027698999	-7.6560001	7.204	0.285
40	1	5	-0.12970699	-7.402	7.823	-1.1109999
41	1	8	0.092418998	-7.8930001	7.224	-1.9069999
42	1	8	0.092418998	-7.8210001	8.8509998	-1.166
43	1	8	0.092418998	-6.3130002	7.882	-1.322
44	1	2	-0.116602	-7.2030001	8.191	1.316
45	1	2	-0.142895	-5.9439998	8.5819998	1.564
46	1	3	0.221512	-5.1139998	8.1700001	1.005
47	1	2	0.0088219997	-5.704	9.592	2.622
48	1	3	0.22120699	-4.6859999	9.9020004	2.825
49	1	2	-0.340812	-6.7379999	10.116	3.3139999
50	1	2	0.58958298	-6.4889998	11.122	4.3610001
51	1	7	-0.49206901	-7.4429998	11.62	5.0159998
52	1	2	0.080751002	-8.1260004	9.6680002	3.007
53	1	3	0.21547	-8.9700003	10.086	3.5409999
54	1	2	-0.174665	-8.316	8.7419996	2.0539999
55	1	5	-0.024905	-9.6169996	8.1750002	1.5829999
56	1	5	-0.12925801	-10.458	9.2740002	0.90600002
57	1	8	0.096550003	-10.722	10.071	1.6339999
58	1	8	0.096550003	-9.8950005	9.7379999	0.068000004
59	1	8	0.096550003	-11.4	8.8450003	0.50199997
60	1	5	-0.12925801	-10.399	7.5500002	2.7539999
61	1	8	0.096550003	-10.704	8.3269997	3.487
62	1	8	0.096550003	-9.7749996	6.796	3.2820001
63	1	8	0.096550003	-11.316	7.0469999	2.3789999
64	1	5	-0.178863	-9.1929998	7.0830002	0.54699999
65	1	8	0.135187	-9.776	7.1729999	-0.39700001
66	1	8	0.135187	-9.4390001	6.0689998	0.93599999
67	1	2	-0.24201401	-6.868	5.2979999	1.887
68	1	3	0.221779	-7.2540002	5.8649998	2.7249999
69	1	2	-0.071098	-6.3119998	4.1030002	2.1159999
70	1	3	0.23069	-6.2529998	3.7320001	3.132
71	1	1	-0.41032901	5.473	-1.128	0.29300001
72	1	2	0.109267	5.0469999	-1.3279999	1.643
73	1	2	-0.40867701	5.6630001	-2.227	2.4219999
74	1	3	0.229698	6.4879999	-2.8150001	2.039
75	1	2	-0.158675	5.2140002	-2.438	3.809
76	1	3	0.20972399	5.7090001	-3.1930001	4.4089999
77	1	2	-0.033876002	4.197	-1.721	4.316
78	1	2	-0.033876002	3.7550001	-1.992	5.7010002
79	1	2	-0.117155	2.6489999	-2.73	5.895
80	1	3	0.20972399	2.085	-3.1099999	5.052
81	1	2	-0.44856599	2.1930001	-3.0550001	7.2579999
82	1	3	0.238554	1.296	-3.6470001	7.3870001
83	1	2	0.29624501	2.8889999	-2.631	8.3210001
84	1	1	-0.84317201	2.4560001	-2.954	9.6450005
85	1	4	0.37393099	1.595	-3.5220001	9.8079996
86	1	4	0.37393099	2.997	-2.6240001	10.475
87	1	2	-0.42062601	4.1139998	-1.824	8.1210003
88	1	3	0.23473901	4.6659999	-1.5089999	8.9980001
89	1	2	-0.201231	4.5289998	-1.488	6.8829999
90	1	5	0.75397098	5.7930002	-0.671	6.6950002
91	1	6	-0.199405	5.599	0.29800001	5.7270002
92	1	6	-0.199405	6.823	-1.505	6.302
93	1	6	-0.199405	6.1659999	-0.029999999	7.8649998
94	1	2	-0.239419	3.5150001	-0.69199997	3.464
95	1	5	0.75397098	2.3510001	0.117	4.0009999
96	1	6	-0.199405	2.632	0.57499999	5.2750001
97	1	6	-0.199405	2.0840001	1.22	3.2060001
98	1	6	-0.199405	1.222	-0.67799997	4.0440001
99	1	2	-0.36154601	3.9200001	-0.53799999	2.1860001
100	1	3	0.22575299	3.4300001	0.17	1.53
101	1	4	0.37795499	6.2659998	-1.676	-0.11
102	1	2	0.59507799	-5.4790001	11.444	4.579
103	1	7	-0.50284499	-4.5489998	10.595	4.5489998
104	1	2	-0.32941401	-5.217	12.858	4.9029999
105	1	2	0.014142	-3.9779999	13.299	5.177
106	1	3	0.228843	-3.1300001	12.626	5.1659999
107	1	2	-0.235056	-3.7460001	14.722	5.4980001
108	1	3	0.221779	-2.73	15.04	5.6939998
109	1	2	-0.20186099	-4.7680001	15.605	5.5419998
110	1	5	0.027698999	-4.4899998	17.087	5.8530002
111	1	5	-0.12970699	-5.7709999	17.909	6.1160002
112	1	8	0.092418998	-6.3769999	17.447001	6.9250002
113	1	8	0.092418998	-6.3899999	17.982	5.1960001
114	1	8	0.092418998	-5.5149999	18.945999	6.427
115	1	2	-0.116602	-3.598	17.219999	7.0489998
116	1	2	-0.16241901	-3.8180001	16.738001	8.2810001
117	1	3	0.221512	-4.7119999	16.169001	8.5030003
118	1	2	-0.052917998	-2.8150001	16.995001	9.3400002
119	1	3	0.23746	-2.9979999	16.597	10.33
120	1	2	-0.22278801	-1.701	17.714001	9.0710001
121	1	2	0.83874702	-0.69199997	17.981001	10.119
122	1	7	-0.46322799	-0.85100001	17.544001	11.291
123	1	9	-0.66075099	0.447	18.723	9.816
124	1	10	0.423338	1.146	18.914	10.523
125	1	2	0.014182	-1.493	18.242001	7.6929998
126	1	3	0.23052999	-0.616	18.83	7.4549999
127	1	2	-0.169034	-2.4100001	17.983999	6.7480001
128	1	5	-0.024905	-2.398	18.434	5.3210001
129	1	5	-0.12925801	-1.113	17.966	4.6110001
130	1	8	0.096550003	-0.21699999	18.457001	5.0469999
131	1	8	0.096550003	-0.99199998	16.865	4.7069998
132	1	8	0.096550003	-1.1569999	18.222	3.53
133	1	5	-0.12925801	-2.5179999	19.968	5.25
134	1	8	0.096550003	-3.4360001	20.313999	5.7719998
135	1	8	0.096550003	-1.64	20.454	5.7270002
136	1	8	0.096550003	-2.569	20.302	4.191
137	1	5	-0.178863	-3.6600001	17.749001	4.7030001
138	1	8	0.135187	-4.2729998	18.478001	4.125
139	1	8	0.135187	-3.3559999	16.983999	3.954
140	1	2	-0.235056	-6.1370001	15.105	5.2179999
141	1	3	0.221779	-6.9910002	15.767	5.2140002
142	1	2	0.014142	-6.3439999	13.816	4.9229999
143	1	3	0.228843	-7.3460002	13.475	4.6950002

Bonds

1	1	1	2
2	2	1	30
3	3	1	71
4	4	2	3
5	4	2	28
6	5	3	4
7	4	3	5
8	5	5	6
9	4	5	7
10	6	7	8
11	4	7	23
12	4	8	9
13	4	8	18
14	5	9	10
15	4	9	11
16	5	11	12
17	4	11	13
18	1	13	14
19	4	13	16
20	2	14	15
21	7	14	31
22	5	16	17
23	4	16	18
24	8	18	19
25	9	19	20
26	9	19	21
27	9	19	22
28	8	23	24
29	4	23	28
30	9	24	25
31	9	24	26
32	9	24	27
33	5	28	29
34	10	31	32
35	6	31	33
36	4	33	34
37	4	33	69
38	5	34	35
39	4	34	36
40	5	36	37
41	4	36	38
42	8	38	39
43	4	38	67
44	11	39	40
45	8	39	44
46	11	39	64
47	12	40	41
48	12	40	42
49	12	40	43
50	4	44	45
51	4	44	54
52	5	45	46
53	4	45	47
54	5	47	48
55	4	47	49
56	6	49	50
57	4	49	52
58	10	50	51
59	6	50	102
60	5	52	53
61	4	52	54
62	8	54	55
63	11	55	56
64	11	55	60
65	11	55	64
66	12	56	57
67	12	56	58
68	12	56	59
69	12	60	61
70	12	60	62
71	12	60	63
72	12	64	65
73	12	64	66
74	5	67	68
75	4	67	69
76	5	69	70
77	1	71	72
78	2	71	101
79	4	72	73
80	4	72	99
81	5	73	74
82	4	73	75
83	5	75	76
84	4	75	77
85	6	77	78
86	4	77	94
87	4	78	79
88	4	78	89
89	5	79	80
90	4	79	81
91	5	81	82
92	4	81	83
93	1	83	84
94	4	83	87
95	2	84	85
96	2	84	86
97	5	87	88
98	4	87	89
99	8	89	90
100	9	90	91
101	9	90	92
102	9	90	93
103	8	94	95
104	4	94	99
105	9	95	96
106	9	95	97
107	9	95	98
108	5	99	100
109	10	102	103
110	6	102	104
111	4	104	105
112	4	104	142
113	5	105	106
114	4	105	107
115	5	107	108
116	4	107	109
117	8	109	110
118	4	109	140
119	11	110	111
120	8	110	115
121	11	110	137
122	12	111	112
123	12	111	113
124	12	111	114
125	4	115	116
126	4	115	127
127	5	116	117
128	4	116	118
129	5	118	119
130	4	118	120
131	6	120	121
132	4	120	125
133	10	121	122
134	13	121	123
135	14	123	124
136	5	125	126
137	4	125	127
138	8	127	128
139	11	128	129
140	11	128	133
141	11	128	137
142	12	129	130
143	12	129	131
144	12	129	132
145	12	133	134
146	12	133	135
147	12	133	136
148	12	137	138
149	12	137	139
150	5	140	141
151	4	140	142
152	5	142	143

Angles

1	1	49	50	102
2	1	3	5	7
3	5	115	110	137
4	1	81	83	84
5	1	14	31	33
6	1	44	54	55
7	1	14	13	16
8	5	55	56	58
9	4	33	69	70
10	7	65	64	66
11	7	57	56	58
12	5	94	95	98
13	5	127	128	133
14	1	7	23	28
15	1	2	3	5
16	1	50	49	52
17	7	61	60	62
18	1	107	109	140
19	1	118	120	125
20	1	45	47	49
21	4	37	36	38
22	4	88	87	89
23	5	110	111	112
24	5	92	90	93
25	1	115	116	118
26	5	109	110	115
27	5	23	24	25
28	1	34	33	69
29	6	125	127	128
30	1	5	7	8
31	1	7	23	24
32	1	115	127	125
33	4	33	34	35
34	4	126	125	127
35	1	47	49	52
36	1	118	120	121
37	5	55	56	59
38	1	39	44	54
39	5	89	90	93
40	5	109	110	111
41	5	128	133	136
42	5	21	19	22
43	5	128	129	130
44	1	78	89	87
45	7	61	60	63
46	1	32	31	33
47	5	96	95	97
48	5	110	111	113
49	4	6	5	7
50	1	44	54	52
51	4	74	73	75
52	1	120	125	127
53	7	131	129	132
54	4	94	99	100
55	1	77	94	99
56	4	10	9	11
57	5	23	24	26
58	3	13	14	15
59	5	39	64	65
60	4	72	99	100
61	1	33	34	36
62	1	39	38	67
63	4	44	45	46
64	7	42	40	43
65	4	105	107	108
66	1	120	121	122
67	5	111	110	115
68	4	67	69	70
69	1	77	94	95
70	4	9	11	12
71	1	71	72	99
72	4	76	75	77
73	6	52	54	55
74	3	2	1	30
75	5	55	64	66
76	1	79	78	89
77	5	91	90	92
78	1	50	102	103
79	5	96	95	98
80	5	55	60	61
81	1	8	7	23
82	1	72	73	75
83	5	133	128	137
84	5	39	40	43
85	4	49	52	53
86	5	38	39	64
87	7	112	111	113
88	1	1	2	3
89	5	128	137	138
90	1	7	8	18
91	1	107	109	110
92	7	130	129	131
93	1	31	33	34
94	1	44	45	47
95	5	38	39	44
96	4	108	107	109
97	4	73	75	76
98	5	44	39	64
99	8	121	123	124
100	1	16	18	19
101	1	120	121	123
102	1	9	11	13
103	5	25	24	26
104	4	68	67	69
105	4	80	79	81
106	5	91	90	93
107	4	13	16	17
108	5	110	137	138
109	3	1	71	101
110	4	35	34	36
111	5	38	39	40
112	1	116	115	127
113	1	84	83	87
114	1	49	52	54
115	3	72	71	101
116	1	102	104	105
117	5	128	137	139
118	7	130	129	132
119	7	57	56	59
120	1	11	13	16
121	1	78	77	94
122	1	45	44	54
123	1	73	75	77
124	1	71	72	73
125	4	2	28	29
126	1	33	69	67
127	5	20	19	21
128	4	104	105	106
129	7	135	133	136
130	5	25	24	27
131	3	83	84	85
132	4	34	36	37
133	5	18	19	20
134	5	110	137	139
135	4	4	3	5
136	1	7	8	9
137	4	46	45	47
138	7	62	60	63
139	1	105	104	142
140	2	13	14	31
141	5	127	128	137
142	4	140	142	143
143	4	83	87	88
144	1	9	8	18
145	7	41	40	42
146	7	138	137	139
147	1	36	38	39
148	5	110	111	114
149	1	121	120	125
150	5	20	19	22
151	5	23	24	27
152	4	78	79	80
153	1	8	18	19
154	1	104	105	107
155	4	53	52	54
156	5	94	95	96
157	2	2	1	71
158	7	113	111	114
159	1	1	2	28
160	4	8	9	10
161	1	34	36	38
162	5	39	64	66
163	1	81	83	87
164	5	110	137	128
165	1	5	7	23
166	1	105	107	109
167	4	38	67	68
168	4	141	140	142
169	1	110	115	127
170	1	103	102	104
171	1	50	102	104
172	5	55	60	62
173	1	47	49	50
174	1	77	78	89
175	6	110	115	116
176	4	119	118	120
177	5	54	55	64
178	5	55	56	57
179	7	134	133	135
180	1	36	38	67
181	1	110	109	140
182	7	112	111	114
183	1	78	79	81
184	5	89	90	91
185	5	128	133	134
186	5	128	129	131
187	4	2	3	4
188	4	117	116	118
189	5	60	55	64
190	5	54	55	60
191	4	116	118	119
192	1	8	18	16
193	3	15	14	31
194	1	3	2	28
195	7	58	56	59
196	1	78	89	90
197	1	75	77	78
198	1	13	16	18
199	4	79	81	82
200	4	104	142	143
201	5	55	60	63
202	3	30	1	71
203	7	134	133	136
204	5	129	128	137
205	5	54	55	56
206	5	89	90	92
207	1	2	28	23
208	4	109	140	141
209	5	128	133	135
210	5	128	129	132
211	1	24	23	28
212	1	72	99	94
213	5	39	40	41
214	4	120	125	126
215	5	129	128	133
216	1	116	118	120
217	1	51	50	102
218	1	87	89	90
219	1	79	81	83
220	5	26	24	27
221	3	83	84	86
222	5	18	19	21
223	4	82	81	83
224	3	85	84	86
225	4	106	105	107
226	5	39	64	55
227	1	95	94	99
228	5	111	110	137
229	1	77	78	79
230	4	17	16	18
231	5	40	39	64
232	1	73	72	99
233	1	109	140	142
234	4	48	47	49
235	5	56	55	64
236	1	8	9	11
237	6	39	44	45
238	1	104	142	140
239	4	3	5	6
240	1	83	87	89
241	5	55	64	65
242	7	41	40	43
243	5	40	39	44
244	1	49	50	51
245	1	14	31	32
246	4	72	73	74
247	5	39	40	42
248	5	127	128	129
249	1	75	77	94
250	5	94	95	97
251	1	102	104	142
252	5	18	19	22
253	5	56	55	60
254	1	11	13	14
255	1	115	127	128
256	1	31	33	69
257	5	109	110	137
258	4	45	47	48
259	9	122	121	123
260	4	12	11	13
261	4	23	28	29
262	4	115	116	117
263	5	97	95	98
264	1	38	67	69
265	2	1	71	72

Dihedrals

1	1	126	125	127	128
2	5	127	115	110	137
3	1	115	116	118	119
4	1	74	73	75	77
5	5	38	39	44	54
6	1	31	33	69	67
7	1	78	89	87	83
8	13	44	39	64	55
9	17	134	133	128	137
10	1	102	104	105	106
11	1	107	109	140	142
12	1	36	34	33	69
13	1	88	87	89	90
14	1	83	87	89	90
15	1	38	67	69	70
16	1	105	107	109	140
17	1	1	2	28	29
18	1	39	44	45	47
19	17	132	129	128	133
20	18	120	121	123	124
21	1	8	9	11	13
22	1	81	83	87	88
23	1	104	142	140	109
24	1	78	77	94	99
25	1	7	8	18	16
26	13	114	111	110	115
27	5	115	110	109	140
28	1	78	79	81	83
29	17	56	55	60	62
30	1	116	115	127	128
31	2	1	71	72	73
32	1	14	13	16	17
33	1	71	72	73	75
34	1	8	18	16	13
35	10	52	49	50	102
36	1	108	107	109	110
37	10	47	49	50	102
38	13	109	110	137	138
39	17	132	129	128	137
40	1	11	9	8	18
41	1	7	8	9	11
42	1	117	116	118	119
43	6	13	14	31	32
43	7	13	14	31	32
44	5	44	54	55	64
45	17	129	128	137	139
46	5	87	89	90	92
47	1	47	49	52	53
48	17	129	128	133	134
49	1	4	3	5	6
50	5	115	127	128	129
51	1	34	33	69	70
52	1	7	23	28	29
53	4	79	78	77	94
54	10	49	50	102	103
55	17	57	56	55	64
56	1	33	69	67	38
57	13	127	128	137	139
58	1	82	81	83	87
59	13	127	128	133	134
60	17	136	133	128	137
61	5	77	94	95	97
62	1	79	81	83	87
63	3	2	1	71	72
64	1	47	45	44	54
65	14	110	137	128	129
65	15	110	137	128	129
65	16	110	137	128	129
66	19	122	121	123	124
66	20	122	121	123	124
67	3	30	1	71	72
68	13	44	39	64	65
69	17	56	55	64	66
70	1	84	83	87	88
71	1	9	11	13	16
72	17	130	129	128	137
73	1	1	2	3	4
74	1	2	28	23	24
75	5	40	39	44	45
76	1	49	52	54	55
77	5	137	110	109	140
78	14	39	64	55	60
78	15	39	64	55	60
78	16	39	64	55	60
79	17	58	56	55	64
80	10	123	121	120	125
81	1	76	75	77	78
82	1	3	5	7	8
83	5	27	24	23	28
84	1	48	47	49	52
85	1	3	2	28	23
86	1	39	44	45	46
87	5	8	18	19	22
88	1	35	34	36	37
89	1	141	140	142	143
90	5	97	95	94	99
91	1	78	79	81	82
92	1	33	34	36	38
93	1	6	5	7	23
94	17	56	55	60	61
95	1	119	118	120	125
96	5	125	127	128	137
97	1	75	77	94	99
98	1	45	47	49	52
99	1	71	72	73	74
100	17	133	128	137	138
101	1	13	16	18	19
102	5	111	110	115	116
103	1	110	115	116	117
104	5	52	54	55	64
105	10	103	102	104	142
106	2	11	13	14	15
107	13	112	111	110	115
108	5	7	23	24	27
109	17	129	128	137	138
110	1	7	8	18	19
111	17	41	40	39	64
112	13	54	55	56	58
113	1	33	69	67	68
114	13	41	40	39	44
115	5	107	109	110	137
116	1	108	107	109	140
117	13	38	39	64	66
118	1	5	7	23	28
119	13	127	128	137	138
120	5	78	89	90	92
121	1	104	105	107	109
122	5	77	94	95	96
123	1	39	38	67	69
124	1	11	13	16	17
125	17	61	60	55	64
126	17	56	55	64	65
127	1	45	44	54	55
128	17	113	111	110	137
129	1	78	77	94	95
130	1	37	36	38	67
131	1	71	72	99	94
132	1	110	109	140	141
133	13	115	110	137	139
134	1	120	125	127	128
135	1	110	115	127	125
136	10	51	50	49	52
137	1	10	9	8	18
138	1	80	79	78	89
139	1	17	16	18	19
140	1	46	45	47	49
141	1	95	94	99	100
142	5	96	95	94	99
143	10	50	102	104	105
144	5	44	54	55	60
145	13	38	39	40	42
146	13	127	128	129	131
147	1	5	3	2	28
148	1	50	49	52	54
149	1	10	9	11	13
150	1	4	3	2	28
151	1	24	23	28	29
152	10	47	49	50	51
153	17	57	56	55	60
154	1	77	78	79	81
155	10	51	50	102	103
156	4	75	77	78	79
157	5	16	18	19	21
158	1	107	105	104	142
159	1	36	38	67	69
160	1	2	28	23	7
161	17	130	129	128	133
162	1	45	44	54	52
163	5	7	23	24	26
164	13	54	55	60	62
165	5	109	110	115	127
166	13	54	55	56	57
167	13	109	110	111	113
168	2	85	84	83	87
169	14	39	64	55	56
169	15	39	64	55	56
169	16	39	64	55	56
170	13	38	39	64	65
171	17	58	56	55	60
172	10	103	102	104	105
173	1	106	105	107	109
174	17	60	55	64	65
175	2	28	2	1	30
176	5	78	89	90	91
177	17	40	39	64	66
178	1	44	45	47	49
179	1	77	94	99	100
180	17	111	110	137	139
181	17	114	111	110	137
182	1	39	38	67	68
183	2	16	13	14	31
184	1	74	73	75	76
185	1	8	7	23	28
186	5	52	54	55	56
187	1	53	52	54	55
188	10	14	31	33	69
189	17	129	128	133	136
190	1	107	109	140	141
191	5	40	39	44	54
192	1	76	75	77	94
193	13	127	128	129	130
194	13	115	110	137	138
195	5	36	38	39	64
196	1	119	118	120	121
197	1	2	3	5	7
198	17	131	129	128	137
199	5	36	38	39	44
200	5	125	127	128	133
201	1	39	44	54	52
202	10	50	102	104	142
203	3	30	1	71	101
204	1	75	77	94	95
205	13	127	128	133	136
206	5	111	110	109	140
207	1	105	104	142	140
208	1	31	33	34	36
209	1	48	47	49	50
210	1	46	45	47	48
211	17	42	40	39	64
212	1	117	116	115	127
213	1	115	116	118	120
214	13	42	40	39	44
215	1	7	8	9	10
216	1	77	78	89	87
217	4	9	8	7	23
218	5	52	54	55	60
219	1	8	9	11	12
220	10	32	31	33	69
221	2	15	14	13	16
222	13	38	39	40	41
223	1	121	120	125	127
224	1	12	11	13	14
225	1	102	104	105	107
226	2	1	71	72	99
227	5	25	24	23	28
228	1	72	73	75	77
229	1	109	140	142	143
230	1	37	36	38	39
231	1	1	2	28	23
232	1	110	115	127	128
233	1	116	118	120	121
234	1	5	7	23	24
235	10	118	120	121	123
236	17	62	60	55	64
237	1	73	75	77	78
238	5	107	109	110	115
239	1	3	5	7	23
240	5	16	18	19	20
241	2	99	72	71	101
242	1	72	99	94	95
243	1	34	36	38	67
244	1	78	89	87	88
245	13	54	55	64	66
246	1	118	116	115	127
247	1	81	83	87	89
248	13	54	55	60	61
249	5	87	89	90	91
250	2	11	13	14	31
251	8	15	14	31	33
251	9	15	14	31	33
252	13	109	110	111	112
253	1	72	99	94	77
254	17	56	55	60	63
255	13	113	111	110	115
256	4	75	77	78	89
257	1	106	105	107	108
258	1	116	118	120	125
259	13	38	39	64	55
260	1	14	13	16	18
261	13	115	110	137	128
262	1	104	142	140	141
263	1	102	104	142	140
264	17	111	110	137	138
265	13	109	110	137	139
266	1	79	78	89	87
267	5	44	54	55	56
268	1	9	8	18	16
269	2	3	2	1	71
270	5	45	44	39	64
271	4	5	7	8	9
272	1	44	54	52	49
273	1	2	3	5	6
274	1	31	33	34	35
275	17	112	111	110	137
276	5	8	18	19	21
277	5	77	94	95	98
278	1	3	2	28	29
279	1	35	34	33	69
280	13	44	39	64	66
281	1	84	83	87	89
282	5	38	39	44	45
283	1	1	2	3	5
284	1	121	120	125	126
285	1	115	127	125	120
286	1	33	34	36	37
287	1	44	54	52	53
288	1	72	73	75	76
289	2	81	83	84	86
290	17	59	56	55	64
291	1	39	44	54	55
292	1	118	120	125	127
293	10	118	120	121	122
294	1	105	104	142	143
295	5	125	127	128	129
296	1	35	34	36	38
297	1	74	73	72	99
298	1	77	78	89	90
299	1	106	105	104	142
300	1	8	7	23	24
301	14	111	110	137	128
301	15	111	110	137	128
301	16	111	110	137	128
302	13	54	55	64	65
303	5	26	24	23	28
304	5	109	110	115	116
305	1	68	67	69	70
306	11	15	14	31	32
306	12	15	14	31	32
307	1	71	72	99	100
308	10	14	31	33	34
309	1	73	72	99	94
310	5	40	39	38	67
311	13	39	64	55	54
312	17	131	129	128	133
313	5	36	38	39	40
314	2	86	84	83	87
315	5	116	115	110	137
316	17	133	128	137	139
317	14	40	39	64	55
317	15	40	39	64	55
317	16	40	39	64	55
318	1	104	105	107	108
319	1	110	115	116	118
320	13	110	137	128	127
321	1	9	11	13	14
322	13	54	55	56	59
323	1	115	127	125	126
324	1	34	36	38	39
325	10	32	31	33	34
326	1	80	79	81	83
327	1	81	79	78	89
328	2	3	2	1	30
329	3	2	1	71	101
330	1	46	45	44	54
331	5	78	89	90	93
332	1	102	104	142	143
333	1	8	18	16	17
334	5	107	109	110	111
335	5	8	18	19	20
336	17	135	133	128	137
337	1	11	13	16	18
338	4	89	78	77	94
339	1	79	78	89	90
340	1	105	107	109	110
341	1	9	8	18	19
342	17	43	40	39	64
343	1	50	49	52	53
344	1	10	9	11	12
345	13	43	40	39	44
346	1	6	5	7	8
347	1	73	72	99	100
348	1	110	109	140	142
349	1	73	75	77	94
350	5	98	95	94	99
351	2	81	83	84	85
352	1	116	115	127	125
353	1	118	120	125	126
354	1	77	78	79	80
355	1	45	47	49	50
356	5	64	39	38	67
357	1	36	38	67	68
358	17	63	60	55	64
359	1	31	33	69	70
360	5	115	127	128	133
361	13	38	39	40	43
362	13	127	128	129	132
363	13	109	110	137	128
364	5	7	23	24	25
365	1	12	11	13	16
366	2	73	72	71	101
367	1	34	33	69	67
368	4	5	7	8	18
369	1	82	81	83	84
370	10	51	50	102	104
371	14	110	137	128	133
371	15	110	137	128	133
371	16	110	137	128	133
372	17	40	39	64	65
373	1	44	45	47	48
374	5	111	110	115	127
375	5	16	18	19	22
376	1	79	81	83	84
377	10	122	121	120	125
378	1	117	116	118	120
379	4	18	8	7	23
380	8	13	14	31	33
380	9	13	14	31	33
381	5	54	44	39	64
382	5	115	127	128	137
383	13	54	55	60	63
384	5	87	89	90	93
385	1	47	49	52	54
386	17	129	128	133	135
387	1	4	3	5	7
388	13	109	110	111	114
389	2	28	2	1	71
390	10	49	50	102	104
391	1	80	79	81	82
392	17	59	56	55	60
393	1	75	73	72	99
394	17	60	55	64	66
395	13	127	128	133	135
396	5	44	39	38	67

Impropers

2	1	142	140	143	104
8	1	75	77	73	76
12	1	120	125	118	121
22	1	18	19	8	16
37	1	89	90	78	87
48	1	8	7	9	18
50	1	16	13	17	18
51	1	73	75	72	74
57	1	44	45	54	39
58	1	78	89	77	79
62	1	79	78	80	81
63	1	54	44	52	55
67	1	87	88	89	83
76	1	115	110	116	127
84	1	81	79	82	83
86	1	94	95	99	77
90	1	115	127	110	116
93	1	105	107	104	106
98	1	125	120	126	127
99	1	34	36	33	35
105	1	67	38	68	69
108	1	67	69	38	68
114	1	31	33	14	32
118	1	9	10	11	8
120	1	125	127	120	126
125	1	127	115	125	128
126	1	38	67	36	39
128	1	50	51	102	49
131	1	109	107	110	140
136	1	77	75	78	94
137	1	89	87	90	78
144	1	78	77	79	89
148	1	79	80	81	78
151	1	99	100	72	94
152	1	18	8	16	19
163	1	83	84	87	81
164	1	9	8	10	11
171	1	120	121	125	118
185	1	5	6	7	3
189	1	47	48	49	45
192	1	16	17	18	13
198	1	69	67	70	33
200	1	54	52	55	44
204	1	7	8	23	5
210	2	1	71	2	30
211	1	140	141	142	109
217	1	77	78	94	75
224	1	142	104	140	143
225	1	104	102	105	142
230	1	118	120	116	119
232	1	81	82	83	79
239	1	11	12	13	9
241	1	23	24	28	7
250	1	3	5	2	4
256	1	52	49	53	54
257	1	3	4	5	2
268	1	5	3	6	7
274	1	7	23	5	8
277	1	116	117	118	115
278	1	8	9	18	7
280	1	52	53	54	49
298	1	2	3	28	1
300	1	140	109	141	142
302	2	14	31	13	15
305	2	84	86	83	85
306	1	18	16	19	8
307	1	75	73	76	77
308	1	109	110	140	107
309	1	3	2	4	5
311	1	8	18	7	9
315	1	102	104	50	103
317	3	121	122	123	120
319	2	14	13	15	31
328	1	116	118	115	117
329	1	49	50	52	47
331	1	78	79	89	77
337	1	115	116	127	110
338	1	2	28	1	3
342	1	23	28	7	24
343	1	81	83	79	82
345	1	34	35	36	33
347	1	127	128	115	125
355	1	102	50	103	104
360	1	36	38	34	37
364	1	49	52	47	50
368	2	84	85	86	83
372	1	7	5	8	23
374	1	79	81	78	80
376	1	140	142	109	141
383	1	72	73	99	71
384	1	11	13	9	12
385	1	13	16	11	14
389	1	94	77	95	99
390	1	107	108	109	105
393	1	125	126	127	120
399	2	14	15	31	13
403	2	71	72	101	1
405	1	34	33	35	36
406	1	83	81	84	87
408	1	33	31	34	69
410	1	67	68	69	38
423	1	36	34	37	38
424	1	9	11	8	10
427	1	109	140	107	110
444	1	75	76	77	73
451	1	105	104	106	107
452	1	52	54	49	53
456	1	107	105	108	109
459	1	11	9	12	13
462	1	69	33	67	70
472	1	33	34	69	31
475	1	13	14	16	11
491	1	45	47	44	46
494	1	50	102	49	51
495	1	102	103	104	50
505	1	38	36	39	67
516	1	118	116	119	120
520	1	47	45	48	49
526	1	73	74	75	72
530	1	31	32	33	14
533	1	87	83	88	89
534	1	72	99	71	73
536	1	83	87	81	84
543	1	87	89	83	88
551	1	45	46	47	44
556	1	45	44	46	47
562	1	13	11	14	16
564	1	94	99	77	95
565	1	23	7	24	28
567	1	44	54	39	45
575	2	71	101	1	72
577	1	104	142	102	105
578	1	28	2	23	29
588	1	73	72	74	75
591	1	69	70	33	67
597	3	121	120	122	123
603	1	142	143	104	140
604	1	127	125	128	115
605	1	99	72	94	100
609	1	116	115	117	118
614	1	104	105	142	102
616	1	16	18	13	17
618	1	33	69	31	34
624	1	72	71	73	99
625	1	5	7	3	6
628	2	84	83	85	86
633	1	105	106	107	104
647	1	2	1	3	28
656	2	71	1	72	101
659	1	49	47	50	52
663	1	31	14	32	33
665	1	118	119	120	116
670	1	120	118	121	125
673	1	50	49	51	102
674	1	28	23	29	2
679	1	28	29	2	23
687	1	99	94	100	72
688	1	54	55	44	52
691	1	89	78	87	90
694	1	38	39	67	36
695	1	107	109	105	108
697	2	1	30	71	2
703	1	47	49	45	48
708	1	36	37	38	34
710	2	1	2	30	71
712	3	121	123	120	122
715	1	77	94	75	78
717	1	44	39	45	54
