Title

99 atoms
98 bonds
185 angles
313 dihedrals
12 impropers

8 atom types
11 bond types
5 angle types
25 dihedral types
2 improper types
-12.6079998 87.3920002 xlo xhi
-4.217999935 95.78200006 ylo yhi
-1.692999959 98.30700004 zlo zhi
0.0 0.0 0.0 xy xz yz

Masses

1	15.99943
2	12.01078
3	1.007947
4	1.007947
5	12.01078
6	15.99943
7	15.99943
8	1.007947


Pair Coeffs

1	0.16846514	3.0251065
2	0.10884061	3.3795318
3	0.015779483	2.6445434
4	0.016409246	2.5832257
5	0.086879315	3.4806469
6	0.2102061	3.0398122
7	0.20947353	2.99716
8	1.2326e-05	0.53453923

Bond Coeffs

1 harmonic	366.7408841747	1.425895053732
2 harmonic	300.03137914615	1.451203938761
3 harmonic	264.62148576755	1.52190126495
4 harmonic	370.04670688625	1.093899492634
5 harmonic	301.15400723785	1.345741232799
6 harmonic	582.698766451	1.225198386222
7 harmonic	329.44145381095	1.523435958334
8 harmonic	279.1350963404	1.454628925034
9 harmonic	329.96998057905	1.427343958716
10 harmonic	543.5267831885	0.9716763312559
11 harmonic	385.7604595587	1.369745182308


Angle Coeffs

1 harmonic	53.20531626545	116.5475862634
2 harmonic	65.09061609600001	110.3538806181
3 harmonic	48.776492647595	115.6030999533
4 harmonic	201.41175231035	127.4691416191
5 harmonic	57.8982893754	126.8062420451


Dihedral Coeffs

1 fourier 1	0.1155372516788	3	0
2 fourier 1	0.0473758381877	3	0
3 fourier 1	0.457973137376	1	0
4 fourier 1	0.1040663847541	3	0
5 fourier 1	0.09223874044423	3	0
6 fourier 1	0.3159935921949	2	180
7 fourier 1	0.3247796806857	1	180
8 fourier 1	0.1918272375143	3	0
9 fourier 1	0.9202179876409	1	180
10 fourier 1	1.163809172478	2	180
11 fourier 1	0.1679186987369	1	180
12 fourier 1	2.779853741805	2	180
13 fourier 1	0.02664938770063	3	0
14 fourier 1	0.1911926717192	3	0
15 fourier 1	-0.3703352413219	2	0
16 fourier 1	0.4541676554336	1	0
17 fourier 1	0.1489710476446	2	0
18 fourier 1	0.02960027280666	3	180
19 fourier 1	0.9974165607242	2	180
20 fourier 1	0.3445382149273	3	0
21 fourier 1	0.1364556373303	1	0
22 fourier 1	0.3026390167484	3	0
23 fourier 1	2.687457892086	2	180
24 fourier 1	2.772607909663	2	180
25 fourier 1	0.09692684957115	1	0


Improper Coeffs

1 3.5	-1	2
2 0.3666666666666667	-1	2


Atoms

1	1	1	-0.164178	-1.462	1.771	-1.173
2	1	2	0.000711	-1.209	1.39	0.153
3	1	2	-0.052942999	-0.26800001	0.156	0.208
4	1	2	-0.158527	-0.082999997	-0.21799999	1.698
5	1	3	0.069735996	-1.067	-0.41299999	2.1760001
6	1	3	0.069735996	0.53100002	-1.133	1.823
7	1	3	0.069735996	0.414	0.60900003	2.25
8	1	2	0.109169	-0.94599998	-1.015	-0.55699998
9	1	1	-0.489629	-0.296	-2.234	-0.31400001
10	1	4	0.085068002	-0.94199997	-0.80400002	-1.65
11	1	4	0.085068002	-2.007	-1.11	-0.23199999
12	1	2	-0.169903	1.098	0.55900002	-0.435
13	1	2	-0.121097	2.1700001	-0.53500003	-0.47400001
14	1	3	0.043956	2.3889999	-0.92799997	0.53799999
15	1	3	0.043956	3.1110001	-0.103	-0.87699997
16	1	3	0.043956	1.8710001	-1.362	-1.149
17	1	3	0.090533003	0.93199998	0.89899999	-1.4809999
18	1	3	0.090533003	1.52	1.426	0.12
19	1	4	0.090415999	-0.74599999	2.244	0.699
20	1	4	0.090415999	-2.1760001	1.156	0.65499997
21	1	5	0.76046401	-0.79900002	-2.948	-0.87800002
22	1	6	-0.55458999	-0.17299999	-3.619	-1.682
23	1	2	-0.208589	-2.2750001	-3.161	-0.71399999
24	1	2	-0.115515	-2.8540001	-2.223	0.35499999
25	1	2	-0.136188	-4.3429999	-2.49	0.634
26	1	2	-0.141528	-5.257	-1.948	-0.479
27	1	2	-0.141528	-6.7399998	-2.299	-0.259
28	1	2	-0.13884699	-7.369	-1.7130001	1.018
29	1	2	-0.097190998	-7.3460002	-0.178	1.049
30	1	2	-0.257649	-8.1490002	0.359	2.2390001
31	1	5	0.51707202	-8.1169996	1.858	2.286
32	1	6	-0.68671203	-8.7060003	2.4519999	3.174
33	1	3	0.113699	-9.2069998	0.026000001	2.158
34	1	3	0.113699	-7.723	-0.037999999	3.1860001
35	1	3	0.077001996	-6.2969999	0.176	1.1390001
36	1	3	0.077001996	-7.7800002	0.219	0.105
37	1	3	0.078704998	-8.4259996	-2.0569999	1.058
38	1	3	0.078704998	-6.8629999	-2.1199999	1.919
39	1	3	0.080578998	-7.3200002	-1.942	-1.138
40	1	3	0.080578998	-6.8470001	-3.405	-0.23100001
41	1	3	0.080578998	-5.131	-0.84899998	-0.57499999
42	1	3	0.080578998	-4.9569998	-2.3940001	-1.45
43	1	3	0.078704998	-4.513	-3.579	0.77399999
44	1	3	0.078704998	-4.5970001	-1.9809999	1.5880001
45	1	3	0.085795999	-2.2950001	-2.3800001	1.304
46	1	3	0.085795999	-2.71	-1.163	0.050000001
47	1	3	0.116959	-2.4519999	-4.2179999	-0.421
48	1	3	0.116959	-2.763	-2.9749999	-1.693
49	1	1	-0.163858	-2.0599999	2.5610001	-1.125
50	1	2	0.010377	-2.098	2.941	0.22400001
51	1	2	-0.088048004	-3.0179999	4.1750002	0.42899999
52	1	2	-0.151436	-2.964	4.5489998	1.9299999
53	1	3	0.06955	-1.916	4.7449999	2.244
54	1	3	0.06955	-3.55	5.4650002	2.1500001
55	1	3	0.06955	-3.3659999	3.7219999	2.5539999
56	1	2	0.059124999	-2.4719999	5.3470001	-0.43399999
57	1	7	-0.680457	-3.0739999	6.566	-0.090999998
58	1	8	0.37709501	-2.6860001	7.2480001	-0.699
59	1	4	0.080427997	-2.6489999	5.1360002	-1.513
60	1	4	0.080427997	-1.372	5.441	-0.28299999
61	1	2	-0.16264001	-4.4699998	3.773	0.011
62	1	2	-0.121421	-5.5349998	4.8660002	0.14399999
63	1	3	0.043956	-5.5890002	5.2600002	1.179
64	1	3	0.043956	-6.527	4.4349999	-0.104
65	1	3	0.043956	-5.3470001	5.6929998	-0.56999999
66	1	3	0.090208001	-4.473	3.4330001	-1.0470001
67	1	3	0.090208001	-4.7979999	2.9059999	0.62599999
68	1	4	0.090443999	-2.4679999	2.0869999	0.83700001
69	1	4	0.090443999	-1.064	3.1760001	0.56599998
70	1	5	0.51707202	-7.5749998	2.427	1.5369999
71	1	6	-0.68671203	-6.4429998	2.8150001	1.778
72	1	2	-0.257649	-8.2130003	2.7160001	0.20999999
73	1	2	-0.097190998	-8.4289999	4.2199998	-0.0099999998
74	1	2	-0.13884699	-9.4790001	4.8010001	0.949
75	1	2	-0.141528	-9.7080002	6.2919998	0.67500001
76	1	2	-0.141528	-10.748	6.875	1.6440001
77	1	2	-0.136188	-11.11	8.3330002	1.3200001
78	1	2	-0.11298	-9.9759998	9.3149996	1.664
79	1	2	-0.218686	-10.378	10.774	1.411
80	1	5	0.823915	-11.403	11.247	2.395
81	1	6	-0.556032	-12.608	11.364	2.046
82	1	7	-0.66538399	-11.026	11.534	3.7030001
83	1	8	0.394263	-11.709	11.845	4.3839998
84	1	3	0.117984	-9.4759998	11.416	1.508
85	1	3	0.117984	-10.759	10.889	0.37200001
86	1	3	0.085795999	-9.6730003	9.1899996	2.727
87	1	3	0.085795999	-9.092	9.0930004	1.03
88	1	3	0.078704998	-11.378	8.4250002	0.244
89	1	3	0.078704998	-12.011	8.5970001	1.914
90	1	3	0.080578998	-10.375	6.803	2.6889999
91	1	3	0.080578998	-11.679	6.2690001	1.577
92	1	3	0.080578998	-8.7440004	6.8299999	0.79299998
93	1	3	0.080578998	-10.063	6.4229999	-0.37099999
94	1	3	0.078704998	-9.1359997	4.6719999	1.998
95	1	3	0.078704998	-10.437	4.2509999	0.81999999
96	1	3	0.077001996	-7.4640002	4.7589998	0.111
97	1	3	0.077001996	-8.7720003	4.3720002	-1.057
98	1	3	0.113699	-9.1859999	2.184	0.14399999
99	1	3	0.113699	-7.5570002	2.3210001	-0.59500003

Bonds

1	1	1	2
2	2	1	49
3	3	2	3
4	4	2	19
5	4	2	20
6	3	3	4
7	3	3	8
8	3	3	12
9	4	4	5
10	4	4	6
11	4	4	7
12	1	8	9
13	4	8	10
14	4	8	11
15	5	9	21
16	3	12	13
17	4	12	17
18	4	12	18
19	4	13	14
20	4	13	15
21	4	13	16
22	6	21	22
23	7	21	23
24	3	23	24
25	4	23	47
26	4	23	48
27	3	24	25
28	4	24	45
29	4	24	46
30	3	25	26
31	4	25	43
32	4	25	44
33	3	26	27
34	4	26	41
35	4	26	42
36	3	27	28
37	4	27	39
38	4	27	40
39	3	28	29
40	4	28	37
41	4	28	38
42	3	29	30
43	4	29	35
44	4	29	36
45	7	30	31
46	4	30	33
47	4	30	34
48	6	31	32
49	8	31	70
50	1	49	50
51	3	50	51
52	4	50	68
53	4	50	69
54	3	51	52
55	3	51	56
56	3	51	61
57	4	52	53
58	4	52	54
59	4	52	55
60	9	56	57
61	4	56	59
62	4	56	60
63	10	57	58
64	3	61	62
65	4	61	66
66	4	61	67
67	4	62	63
68	4	62	64
69	4	62	65
70	6	70	71
71	7	70	72
72	3	72	73
73	4	72	98
74	4	72	99
75	3	73	74
76	4	73	96
77	4	73	97
78	3	74	75
79	4	74	94
80	4	74	95
81	3	75	76
82	4	75	92
83	4	75	93
84	3	76	77
85	4	76	90
86	4	76	91
87	3	77	78
88	4	77	88
89	4	77	89
90	3	78	79
91	4	78	86
92	4	78	87
93	7	79	80
94	4	79	84
95	4	79	85
96	6	80	81
97	11	80	82
98	10	82	83

Angles

1	3	68	50	69
2	5	71	70	72
3	1	26	27	39
4	1	25	26	42
5	1	21	23	47
6	1	27	28	29
7	5	30	31	32
8	1	78	79	80
9	3	53	52	54
10	1	8	3	12
11	1	72	73	97
12	1	31	30	33
13	1	3	4	5
14	1	56	51	61
15	1	77	78	79
16	1	51	56	60
17	1	3	2	20
18	3	6	4	7
19	3	94	74	95
20	1	27	26	41
21	3	53	52	55
22	3	59	56	60
23	1	1	2	3
24	1	25	24	45
25	3	19	2	20
26	1	79	78	86
27	5	32	31	70
28	1	31	30	34
29	1	77	76	90
30	1	27	28	37
31	3	10	8	11
32	1	80	79	84
33	1	24	25	26
34	1	2	3	12
35	3	86	78	87
36	3	14	13	15
37	1	21	23	24
38	3	37	28	38
39	1	49	50	69
40	1	28	27	39
41	3	5	4	6
42	1	12	13	14
43	1	27	26	42
44	1	26	25	43
45	1	70	72	73
46	1	62	61	66
47	1	23	24	45
48	1	73	72	98
49	1	77	78	87
50	1	30	29	36
51	1	70	72	98
52	1	79	78	87
53	1	29	30	34
54	1	28	29	35
55	1	75	76	90
56	1	9	8	10
57	1	23	24	25
58	1	26	27	28
59	1	27	28	38
60	1	51	56	57
61	3	64	62	65
62	1	77	76	91
63	1	49	50	51
64	1	13	12	17
65	3	41	26	42
66	1	76	77	88
67	1	9	8	11
68	1	61	62	63
69	1	3	12	13
70	5	22	21	23
71	1	2	3	4
72	2	80	82	83
73	1	78	79	85
74	1	24	25	43
75	1	25	26	27
76	1	62	61	67
77	1	23	24	46
78	1	26	27	40
79	1	75	76	91
80	1	28	29	36
81	5	31	70	71
82	1	21	23	48
83	1	29	28	37
84	1	61	62	64
85	1	29	30	31
86	3	54	52	55
87	1	51	52	53
88	1	2	3	8
89	1	51	61	66
90	3	45	24	46
91	3	17	12	18
92	3	39	27	40
93	1	78	77	88
94	1	72	73	74
95	1	73	74	94
96	1	51	61	62
97	1	50	51	52
98	1	29	28	38
99	1	25	24	46
100	1	75	74	94
101	4	9	21	22
102	3	66	61	67
103	1	1	2	19
104	1	51	50	68
105	1	51	61	67
106	1	74	73	96
107	2	8	9	21
108	1	74	75	76
109	1	80	79	85
110	2	1	49	50
111	1	24	23	47
112	3	14	13	16
113	1	78	77	89
114	3	63	62	64
115	1	74	75	92
116	1	78	79	84
117	1	28	27	40
118	3	5	4	7
119	1	73	74	95
120	1	12	13	15
121	2	2	1	49
122	1	26	25	44
123	1	73	72	99
124	3	92	75	93
125	1	3	4	6
126	1	70	72	99
127	1	3	12	17
128	1	73	74	75
129	1	1	2	20
130	1	51	50	69
131	1	13	12	18
132	1	3	8	10
133	1	3	8	9
134	1	76	77	89
135	3	63	62	65
136	1	74	75	93
137	3	84	79	85
138	1	24	25	44
139	3	35	29	36
140	1	50	51	56
141	1	3	4	7
142	1	3	12	18
143	1	4	3	12
144	5	31	70	72
145	1	51	56	59
146	1	3	2	19
147	3	96	73	97
148	1	50	51	61
149	3	98	72	99
150	3	90	76	91
151	1	61	62	65
152	1	51	52	54
153	1	75	76	77
154	3	43	25	44
155	1	76	75	92
156	5	79	80	81
157	3	88	77	89
158	4	81	80	82
159	1	49	50	68
160	3	33	30	34
161	1	57	56	59
162	1	77	78	86
163	1	75	74	95
164	1	30	29	35
165	5	9	21	23
166	1	29	30	33
167	1	25	26	41
168	1	51	52	55
169	3	15	13	16
170	3	47	23	48
171	1	74	73	97
172	2	56	57	58
173	1	76	75	93
174	5	30	31	70
175	1	72	73	96
176	5	79	80	82
177	1	52	51	56
178	1	24	23	48
179	1	4	3	8
180	1	28	29	30
181	1	76	77	78
182	1	12	13	16
183	1	57	56	60
184	1	3	8	11
185	1	52	51	61

Dihedrals

1	4	4	3	8	11
2	14	42	26	25	43
3	13	31	70	72	99
4	4	25	24	23	48
5	14	91	76	75	92
6	4	3	12	13	16
7	4	75	74	73	97
8	16	22	21	23	47
8	17	22	21	23	47
8	18	22	21	23	47
9	14	34	30	29	36
10	4	27	28	29	36
11	19	30	31	70	72
12	4	54	52	51	56
13	1	57	56	51	61
14	23	79	80	82	83
15	4	4	3	2	19
16	5	75	76	77	78
16	6	75	76	77	78
16	7	75	76	77	78
17	14	37	28	27	39
18	4	74	73	72	99
19	1	21	23	24	46
20	5	4	3	12	13
20	6	4	3	12	13
20	7	4	3	12	13
21	5	2	3	12	13
21	6	2	3	12	13
21	7	2	3	12	13
22	4	50	51	56	59
23	4	52	51	61	66
24	4	28	27	26	41
25	22	58	57	56	60
26	14	91	76	75	93
27	14	36	29	28	37
28	14	96	73	72	99
29	16	22	21	23	48
29	17	22	21	23	48
29	18	22	21	23	48
30	14	40	27	26	41
31	15	71	70	72	73
32	4	5	4	3	8
33	14	93	75	74	94
34	14	15	13	12	17
35	14	35	29	28	38
36	16	81	80	79	84
36	17	81	80	79	84
36	18	81	80	79	84
37	10	8	9	21	22
37	11	8	9	21	22
38	4	51	61	62	63
39	14	85	79	78	87
40	4	50	51	52	54
41	5	52	51	61	62
41	6	52	51	61	62
41	7	52	51	61	62
42	14	64	62	61	66
43	1	70	72	73	96
44	14	14	13	12	17
45	4	77	78	79	84
46	14	88	77	76	91
47	5	23	24	25	26
47	6	23	24	25	26
47	7	23	24	25	26
48	4	30	29	28	37
49	14	63	62	61	66
50	5	76	77	78	79
50	6	76	77	78	79
50	7	76	77	78	79
51	15	22	21	23	24
52	4	52	51	61	67
53	4	24	25	26	41
54	5	74	75	76	77
54	6	74	75	76	77
54	7	74	75	76	77
55	4	76	75	74	94
56	14	84	79	78	86
57	4	27	26	25	43
58	14	16	13	12	18
59	19	32	31	70	71
60	2	1	49	50	68
61	14	43	25	24	45
62	1	77	78	79	80
63	13	29	30	31	70
64	13	82	80	79	85
65	14	15	13	12	18
66	4	51	61	62	64
67	4	50	51	52	55
68	14	64	62	61	67
69	14	39	27	26	41
70	4	3	12	13	14
71	14	41	26	25	43
72	1	1	2	3	8
73	4	55	52	51	56
74	4	78	77	76	90
75	2	20	2	1	49
76	4	77	76	75	93
77	14	33	30	29	35
78	4	60	56	51	61
79	4	72	73	74	94
80	4	23	24	25	43
81	4	27	26	25	44
82	14	44	25	24	45
83	4	76	75	74	95
84	13	78	79	80	82
85	1	28	29	30	31
86	2	1	49	50	69
87	19	32	31	70	72
88	4	54	52	51	61
89	4	56	51	61	66
90	13	9	21	23	47
91	4	76	77	78	87
92	14	95	74	73	96
93	4	11	8	3	12
94	13	31	70	72	73
95	14	42	26	25	44
96	4	4	3	12	17
97	14	41	26	25	44
98	4	2	3	4	6
99	4	2	3	12	17
100	5	56	51	61	62
100	6	56	51	61	62
100	7	56	51	61	62
101	4	7	4	3	12
102	4	25	26	27	39
103	4	52	51	56	59
104	14	90	76	75	92
105	5	26	27	28	29
105	6	26	27	28	29
105	7	26	27	28	29
106	13	34	30	31	70
107	16	71	70	72	98
107	17	71	70	72	98
107	18	71	70	72	98
108	4	4	3	2	20
109	14	94	74	73	96
110	14	33	30	29	36
111	14	92	75	74	94
112	14	37	28	27	40
113	4	8	3	2	19
114	16	32	31	30	33
114	17	32	31	30	33
114	18	32	31	30	33
115	4	56	51	50	68
116	4	12	3	2	19
117	13	9	21	23	48
118	5	8	3	12	13
118	6	8	3	12	13
118	7	8	3	12	13
119	4	29	28	27	39
120	4	50	51	56	60
121	4	28	27	26	42
122	4	10	8	3	12
123	14	36	29	28	38
124	5	73	74	75	76
124	6	73	74	75	76
124	7	73	74	75	76
125	24	81	80	82	83
125	25	81	80	82	83
126	14	40	27	26	42
127	14	86	78	77	88
128	4	52	51	50	68
129	14	65	62	61	66
130	2	10	8	9	21
131	14	93	75	74	95
132	4	73	74	75	92
133	16	71	70	72	99
133	17	71	70	72	99
133	18	71	70	72	99
134	16	81	80	79	85
134	17	81	80	79	85
134	18	81	80	79	85
135	12	8	9	21	23
136	14	94	74	73	97
137	4	79	78	77	88
138	14	92	75	74	95
139	4	26	25	24	45
140	13	9	21	23	24
141	1	70	72	73	97
142	14	14	13	12	18
143	4	8	3	2	20
144	14	46	24	23	47
145	4	77	78	79	85
146	4	12	3	2	20
147	1	9	8	3	12
148	4	26	27	28	37
149	4	30	29	28	38
150	4	6	4	3	12
151	14	63	62	61	67
152	4	29	28	27	40
153	14	84	79	78	87
154	4	24	25	26	42
155	4	55	52	51	61
156	4	53	52	51	56
157	15	29	30	31	32
158	8	3	8	9	21
158	9	3	8	9	21
159	14	43	25	24	46
160	5	27	28	29	30
160	6	27	28	29	30
160	7	27	28	29	30
161	14	45	24	23	47
162	1	49	50	51	56
163	4	51	61	62	65
164	4	7	4	3	8
165	13	31	70	72	98
166	1	50	51	56	57
167	1	80	79	78	87
168	4	25	24	23	47
169	14	39	27	26	42
170	4	3	12	13	15
171	4	75	74	73	96
172	14	34	30	29	35
173	4	27	28	29	35
174	14	38	28	27	39
175	4	26	27	28	38
176	4	74	75	76	90
177	4	78	77	76	91
178	20	51	56	57	58
178	21	51	56	57	58
179	2	1	49	50	51
180	4	75	76	77	88
181	1	49	50	51	52
182	4	4	3	8	10
183	5	25	26	27	28
183	6	25	26	27	28
183	7	25	26	27	28
184	4	61	51	50	68
185	1	4	3	8	9
186	4	23	24	25	44
187	14	44	25	24	46
188	4	72	73	74	95
189	1	21	23	24	45
190	2	19	2	1	49
191	4	2	3	8	10
192	4	56	51	61	67
193	5	72	73	74	75
193	6	72	73	74	75
193	7	72	73	74	75
194	1	2	3	8	9
195	2	3	2	1	49
196	14	45	24	23	48
197	14	95	74	73	97
198	1	70	72	73	74
199	14	97	73	72	98
200	1	21	23	24	25
201	4	4	3	12	18
202	22	58	57	56	59
203	14	96	73	72	98
204	4	2	3	8	11
205	4	2	3	4	7
206	4	8	3	12	17
207	4	2	3	12	18
208	1	31	30	29	35
209	14	38	28	27	40
210	4	74	75	76	91
211	4	25	26	27	40
212	4	52	51	56	60
213	14	90	76	75	93
214	4	75	76	77	89
215	14	35	29	28	37
216	14	85	79	78	86
217	4	6	4	3	8
218	4	61	51	50	69
219	4	50	51	52	53
220	14	89	77	76	90
221	1	1	2	3	12
222	4	50	51	61	66
223	14	87	78	77	88
224	4	28	29	30	33
225	16	32	31	30	34
225	17	32	31	30	34
225	18	32	31	30	34
226	4	56	51	50	69
227	13	33	30	31	70
228	14	88	77	76	90
229	14	97	73	72	99
230	4	59	56	51	61
231	14	86	78	77	89
232	4	2	3	4	5
233	5	50	51	61	62
233	6	50	51	61	62
233	7	50	51	61	62
234	14	16	13	12	17
235	4	8	3	12	18
236	4	52	51	50	69
237	14	65	62	61	67
238	1	31	30	29	36
239	13	82	80	79	84
240	2	11	8	9	21
241	4	73	74	75	93
242	1	80	79	78	86
243	4	79	78	77	89
244	4	26	25	24	46
245	14	89	77	76	91
246	14	87	78	77	89
247	4	50	51	61	67
248	3	2	1	49	50
249	4	28	29	30	34
250	4	5	4	3	12
251	14	46	24	23	48
252	1	1	2	3	4
253	5	24	25	26	27
253	6	24	25	26	27
253	7	24	25	26	27
254	4	53	52	51	61
255	19	30	31	70	71
256	1	49	50	51	61
257	1	52	51	56	57
258	4	77	76	75	92
259	15	78	79	80	81
260	4	74	73	72	98
261	4	76	77	78	86

Impropers

5	2	31	70	30	32
46	1	80	81	82	79
312	2	31	32	70	30
362	1	21	9	22	23
370	1	80	82	79	81
402	2	70	71	72	31
411	1	21	22	23	9
420	1	80	79	81	82
486	1	21	23	9	22
491	2	70	31	71	72
560	2	70	72	31	71
597	2	31	30	32	70
