Title

59 atoms
60 bonds
101 angles
155 dihedrals
48 impropers

9 atom types
12 bond types
6 angle types
23 dihedral types
2 improper types
-5.863999844 94.13600016 xlo xhi
-1.873000026 98.12699997 ylo yhi
-5.041999817 94.95800018 zlo zhi
0.0 0.0 0.0 xy xz yz

Masses

1	15.99943
2	12.01078
3	1.007947
4	1.007947
5	12.01078
6	15.99943
7	1.007947
8	15.99943
9	1.007947


Pair Coeffs

1	0.16846514	3.0251065
2	0.10884061	3.3795318
3	0.016409246	2.5832257
4	0.015779483	2.6445434
5	0.086879315	3.4806469
6	0.2102061	3.0398122
7	0.015611343	2.5725815
8	0.20947353	2.99716
9	1.2326e-05	0.53453923

Bond Coeffs

1 harmonic	366.7408841747	1.425895053732
2 harmonic	300.03137914615	1.451203938761
3 harmonic	264.62148576755	1.52190126495
4 harmonic	370.04670688625	1.093899492634
5 harmonic	301.15400723785	1.345741232799
6 harmonic	582.698766451	1.225198386222
7 harmonic	279.1350963404	1.454628925034
8 harmonic	360.7852444772	1.387193227181
9 harmonic	397.2545789619	1.085358495916
10 harmonic	329.96998057905	1.427343958716
11 harmonic	543.5267831885	0.9716763312559
12 harmonic	385.7604595587	1.369745182308


Angle Coeffs

1 harmonic	53.20531626545	116.5475862634
2 harmonic	65.09061609600001	110.3538806181
3 harmonic	201.41175231035	127.4691416191
4 harmonic	57.8982893754	126.8062420451
5 harmonic	48.776492647595	115.6030999533
6 harmonic	34.066775159195	129.1835929926


Dihedral Coeffs

1 fourier 1	0.1155372516788	3	0
2 fourier 1	0.1115525666802	3	0
3 fourier 1	0.3432490222662	1	0
4 fourier 1	0.0473758381877	3	0
5 fourier 1	0.457973137376	1	0
6 fourier 1	0.09223874044423	3	0
7 fourier 1	0.3159935921949	2	180
8 fourier 1	0.3247796806857	1	180
9 fourier 1	0.1040663847541	3	0
10 fourier 1	0.1918272375143	3	0
11 fourier 1	0.9202179876409	1	180
12 fourier 1	1.163809172478	2	180
13 fourier 1	0.1679186987369	1	180
14 fourier 1	2.779853741805	2	180
15 fourier 1	0.9974165607242	2	180
16 fourier 1	0.1911926717192	3	0
17 fourier 1	3.661930099076	2	180
18 fourier 1	0.3445382149273	3	0
19 fourier 1	0.1364556373303	1	0
20 fourier 1	0.3026390167484	3	0
21 fourier 1	2.687457892086	2	180
22 fourier 1	2.772607909663	2	180
23 fourier 1	0.09692684957115	1	0


Improper Coeffs

1 3.5	-1	2
2 0.3666666666666667	-1	2


Atoms

1	1	1	-0.156973	-2.5580001	0.57200003	0.94400001
2	1	2	0.037280999	-1.365	0.62599999	0.20999999
3	1	2	-0.141881	-0.671	-0.741	0.23
4	1	2	-0.135263	0.55199999	-0.81	-0.69999999
5	1	2	0.14067701	1.743	0.017999999	-0.205
6	1	1	-0.50378197	1.545	1.374	-0.49000001
7	1	3	0.084694996	2.661	-0.33199999	-0.72899997
8	1	3	0.084694996	1.8890001	-0.13	0.889
9	1	4	0.098622002	0.87400001	-1.873	-0.75599998
10	1	4	0.098622002	0.27200001	-0.498	-1.73
11	1	4	0.099806003	-1.399	-1.512	-0.104
12	1	4	0.099806003	-0.37400001	-0.99400002	1.272
13	1	3	0.092873	-1.572	0.94300002	-0.838
14	1	3	0.092873	-0.708	1.386	0.68000001
15	1	5	0.79046601	2.375	1.872	-0.114
16	1	6	-0.56145698	3.477	1.266	-0.063000001
17	1	5	-0.30493599	2.256	3.2650001	0.352
18	1	5	-0.104703	1.072	3.8970001	0.292
19	1	7	0.21234301	0.19499999	3.3940001	-0.097999997
20	1	5	-0.061322	0.94499999	5.2940001	0.75700003
21	1	7	0.19512101	-0.022	5.7779999	0.69599998
22	1	5	-0.36668	2.0120001	5.948	1.2460001
23	1	5	0.58130598	1.876	7.3410001	1.7079999
24	1	6	-0.59319401	2.8670001	7.9679999	2.1689999
25	1	5	-0.061322	3.3210001	5.2509999	1.314
26	1	7	0.19512101	4.1919999	5.7620001	1.705
27	1	5	-0.104703	3.4360001	3.9860001	0.89200002
28	1	7	0.21234301	4.3990002	3.493	0.949
29	1	1	-0.156973	-3.2279999	0.123	0.366
30	1	2	0.037393998	-2.677	0.068999998	-0.92199999
31	1	2	-0.13614	-2.8	1.436	-1.605
32	1	2	-0.163192	-2.059	1.506	-2.9519999
33	1	2	0.090948999	-2.724	0.67699999	-4.0580001
34	1	8	-0.67632502	-2.4130001	-0.67900002	-3.904
35	1	9	0.39056399	-2.885	-1.155	-4.6350002
36	1	3	0.084895	-2.3399999	1.027	-5.0419998
37	1	3	0.084895	-3.8269999	0.82599998	-4.0409999
38	1	4	0.102271	-2.0510001	2.5680001	-3.2780001
39	1	4	0.102271	-1	1.193	-2.826
40	1	4	0.099986002	-2.3610001	2.207	-0.93400002
41	1	4	0.099986002	-3.8729999	1.689	-1.747
42	1	3	0.092873	-1.6109999	-0.248	-0.87199998
43	1	3	0.092873	-3.2390001	-0.69099998	-1.503
44	1	5	0.58130598	0.91799998	7.842	1.655
45	1	6	-0.59319401	0.85000002	8.9689999	1.096
46	1	5	-0.36668	-0.28299999	7.21	2.23
47	1	5	-0.061322	-0.193	6.0079999	2.822
48	1	7	0.19512101	0.75700003	5.4910002	2.885
49	1	5	-0.102107	-1.392	5.3670001	3.402
50	1	7	0.21234301	-1.2819999	4.3979998	3.872
51	1	5	-0.294103	-2.5899999	5.9790001	3.3429999
52	1	5	0.82879901	-3.8	5.3509998	3.918
53	1	6	-0.53708303	-3.7349999	4.223	4.4780002
54	1	8	-0.67601001	-5.027	6.006	3.8440001
55	1	9	0.402134	-5.8639998	5.5879998	4.2329998
56	1	5	-0.102107	-2.688	7.3080001	2.688
57	1	7	0.21234301	-3.6400001	7.8200002	2.628
58	1	5	-0.061322	-1.601	7.888	2.1630001
59	1	7	0.19512101	-1.694	8.8579998	1.6900001

Bonds

1	1	1	2
2	2	1	29
3	3	2	3
4	4	2	13
5	4	2	14
6	3	3	4
7	4	3	11
8	4	3	12
9	3	4	5
10	4	4	9
11	4	4	10
12	1	5	6
13	4	5	7
14	4	5	8
15	5	6	15
16	6	15	16
17	7	15	17
18	8	17	18
19	8	17	27
20	9	18	19
21	8	18	20
22	9	20	21
23	8	20	22
24	7	22	23
25	8	22	25
26	6	23	24
27	7	23	44
28	9	25	26
29	8	25	27
30	9	27	28
31	1	29	30
32	3	30	31
33	4	30	42
34	4	30	43
35	3	31	32
36	4	31	40
37	4	31	41
38	3	32	33
39	4	32	38
40	4	32	39
41	10	33	34
42	4	33	36
43	4	33	37
44	11	34	35
45	6	44	45
46	7	44	46
47	8	46	47
48	8	46	58
49	9	47	48
50	8	47	49
51	9	49	50
52	8	49	51
53	7	51	52
54	8	51	56
55	6	52	53
56	12	52	54
57	11	54	55
58	9	56	57
59	8	56	58
60	9	58	59

Angles

1	2	52	54	55
2	4	20	22	23
3	3	6	15	16
4	4	52	51	56
5	6	46	58	59
6	1	2	3	12
7	4	18	17	27
8	6	17	18	19
9	2	2	1	29
10	5	40	31	41
11	6	50	49	51
12	1	32	31	40
13	4	51	52	53
14	1	1	2	13
15	6	48	47	49
16	1	4	3	11
17	1	6	5	8
18	1	1	2	14
19	1	29	30	43
20	1	33	32	39
21	4	17	27	25
22	4	20	22	25
23	4	47	46	58
24	1	3	4	10
25	5	36	33	37
26	6	51	56	57
27	6	17	27	28
28	6	26	25	27
29	4	44	46	47
30	1	29	30	42
31	1	31	32	39
32	4	23	44	46
33	1	31	30	42
34	1	5	4	9
35	1	30	31	41
36	1	30	31	32
37	1	30	31	40
38	1	4	3	12
39	1	32	33	34
40	4	49	51	56
41	1	4	5	7
42	4	22	25	27
43	1	32	33	37
44	4	22	23	44
45	1	1	2	3
46	1	3	2	13
47	4	51	56	58
48	6	19	18	20
49	4	15	17	18
50	1	3	2	14
51	1	2	3	4
52	5	38	32	39
53	4	47	49	51
54	6	57	56	58
55	1	31	32	33
56	1	4	5	6
57	6	18	20	21
58	5	9	4	10
59	4	51	52	54
60	1	3	4	9
61	4	46	47	49
62	4	49	51	52
63	1	34	33	36
64	1	34	33	37
65	4	17	18	20
66	6	56	58	59
67	4	16	15	17
68	5	11	3	12
69	1	33	32	38
70	5	7	5	8
71	1	32	33	36
72	6	21	20	22
73	6	25	27	28
74	4	44	46	58
75	4	24	23	44
76	5	42	30	43
77	6	46	47	48
78	5	13	2	14
79	1	4	5	8
80	6	22	25	26
81	1	3	4	5
82	4	23	22	25
83	2	1	29	30
84	1	31	32	38
85	4	45	44	46
86	3	53	52	54
87	2	5	6	15
88	1	32	31	41
89	1	6	5	7
90	4	6	15	17
91	1	2	3	11
92	4	23	44	45
93	4	15	17	27
94	4	46	58	56
95	4	18	20	22
96	1	29	30	31
97	4	22	23	24
98	6	47	49	50
99	1	5	4	10
100	2	33	34	35
101	1	31	30	43

Dihedrals

1	17	46	47	49	50
2	16	36	33	32	38
3	2	6	5	4	10
3	3	6	5	4	10
4	15	6	15	17	27
5	17	47	49	51	52
6	17	57	56	58	59
7	15	16	15	17	27
8	4	7	5	6	15
9	9	32	31	30	43
10	12	5	6	15	16
10	13	5	6	15	16
11	15	20	22	23	24
12	17	17	27	25	22
13	4	1	29	30	43
14	2	1	2	3	12
14	3	1	2	3	12
15	9	33	32	31	40
16	14	5	6	15	17
17	17	17	27	25	26
18	16	10	4	3	12
19	17	18	20	22	23
20	9	31	32	33	37
21	15	53	52	51	56
22	9	5	4	3	11
23	9	32	31	30	42
24	16	38	32	31	41
25	9	3	4	5	7
26	17	48	47	46	58
27	20	35	34	33	36
28	15	23	44	46	58
29	17	19	18	20	22
30	4	1	29	30	42
31	16	11	3	2	13
32	18	32	33	34	35
32	19	32	33	34	35
33	16	8	5	4	10
34	16	7	5	4	9
35	16	39	32	31	40
36	15	49	51	52	53
37	17	44	46	47	49
38	22	53	52	54	55
38	23	53	52	54	55
39	16	41	31	30	42
40	4	3	2	1	29
41	17	23	22	25	27
42	15	54	52	51	56
43	4	13	2	1	29
44	16	37	33	32	39
45	1	3	4	5	6
46	17	18	20	22	25
47	17	49	47	46	58
48	16	9	4	3	11
49	9	5	4	3	12
50	9	30	31	32	39
51	17	20	22	25	27
52	9	31	32	33	36
53	15	24	23	44	45
54	9	4	3	2	13
55	17	46	58	56	51
56	17	19	18	17	27
57	15	45	44	46	47
58	9	4	3	2	14
59	17	46	47	49	51
60	2	34	33	32	39
60	3	34	33	32	39
61	17	47	46	58	59
62	16	38	32	31	40
63	17	44	46	58	56
64	6	2	3	4	5
64	7	2	3	4	5
64	8	2	3	4	5
65	5	2	1	29	30
66	15	22	23	44	45
67	16	36	33	32	39
68	9	3	4	5	8
69	16	40	31	30	43
70	17	46	58	56	57
71	17	15	17	18	20
72	9	2	3	4	9
73	4	14	2	1	29
74	16	9	4	3	12
75	17	49	51	56	57
76	17	48	47	49	51
77	17	17	18	20	21
78	17	22	25	27	28
79	17	20	18	17	27
80	15	45	44	46	58
81	16	8	5	4	9
82	17	21	20	22	23
83	4	8	5	6	15
84	1	1	2	3	4
85	17	23	22	25	26
86	17	49	51	56	58
87	10	4	5	6	15
87	11	4	5	6	15
88	15	20	22	23	44
89	17	50	49	51	56
90	6	30	31	32	33
90	7	30	31	32	33
90	8	30	31	32	33
91	2	6	5	4	9
91	3	6	5	4	9
92	16	12	3	2	13
93	17	44	46	47	48
94	16	12	3	2	14
95	17	15	17	18	19
96	17	20	22	25	26
97	15	23	44	46	47
98	15	25	22	23	44
99	15	6	15	17	18
100	15	16	15	17	18
101	21	51	52	54	55
102	17	52	51	56	57
103	4	1	29	30	31
104	17	51	56	58	59
105	2	29	30	31	41
105	3	29	30	31	41
106	9	33	32	31	41
107	17	47	49	51	56
108	1	29	30	31	32
109	17	15	17	27	25
110	1	31	32	33	34
111	16	37	33	32	38
112	16	7	5	4	10
113	17	17	18	20	22
114	17	52	51	56	58
115	17	21	20	22	25
116	2	29	30	31	40
116	3	29	30	31	40
117	15	24	23	22	25
118	9	30	31	32	38
119	17	15	17	27	28
120	15	24	23	44	46
121	17	18	17	27	25
122	2	1	2	3	11
122	3	1	2	3	11
123	17	50	49	51	52
124	16	10	4	3	11
125	16	40	31	30	42
126	17	48	47	49	50
127	9	2	3	4	10
128	16	39	32	31	41
129	16	41	31	30	43
130	17	18	17	27	28
131	2	34	33	32	38
131	3	34	33	32	38
132	20	35	34	33	37
133	17	44	46	58	59
134	15	22	23	44	46
135	17	26	25	27	28
136	15	49	51	52	54
137	16	11	3	2	14
138	17	19	18	20	21
139	17	47	46	58	56

Impropers

4	1	15	16	17	6
8	2	44	46	23	45
9	2	20	22	18	21
39	2	22	23	25	20
51	2	20	18	21	22
53	2	44	23	45	46
56	2	23	22	24	44
60	2	17	18	27	15
72	2	49	47	50	51
80	2	49	51	47	50
84	1	15	17	6	16
85	2	27	25	28	17
86	1	15	6	16	17
89	1	52	53	54	51
92	2	47	49	46	48
100	2	58	56	59	46
101	2	46	58	44	47
102	2	18	17	19	20
105	2	49	50	51	47
112	2	46	44	47	58
118	2	25	26	27	22
124	2	51	56	49	52
125	2	56	51	57	58
137	2	47	46	48	49
138	2	23	44	22	24
152	2	56	57	58	51
157	2	56	58	51	57
166	2	27	28	17	25
177	2	58	59	46	56
179	2	18	20	17	19
183	1	52	51	53	54
187	2	44	45	46	23
189	2	17	15	18	27
191	2	51	52	56	49
194	2	51	49	52	56
195	2	23	24	44	22
211	2	22	25	20	23
217	2	25	22	26	27
220	2	47	48	49	46
227	2	20	21	22	18
238	2	18	19	20	17
243	2	25	27	22	26
248	2	58	46	56	59
253	1	52	54	51	53
260	2	27	17	25	28
264	2	22	20	23	25
278	2	17	27	15	18
288	2	46	47	58	44
