Title

81 atoms
80 bonds
149 angles
255 dihedrals
12 impropers

8 atom types
11 bond types
5 angle types
27 dihedral types
2 improper types
-4.046999931 95.95300007 xlo xhi
-3.177999973 96.82200003 ylo yhi
-5.56799984 94.43200016 zlo zhi
0.0 0.0 0.0 xy xz yz

Masses

1	15.99943
2	12.01078
3	1.007947
4	1.007947
5	12.01078
6	15.99943
7	15.99943
8	1.007947


Pair Coeffs

1	0.16846514	3.0251065
2	0.10884061	3.3795318
3	0.016409246	2.5832257
4	0.015779483	2.6445434
5	0.086879315	3.4806469
6	0.2102061	3.0398122
7	0.20947353	2.99716
8	1.2326e-05	0.53453923

Bond Coeffs

1 harmonic	366.7408841747	1.425895053732
2 harmonic	300.03137914615	1.451203938761
3 harmonic	264.62148576755	1.52190126495
4 harmonic	370.04670688625	1.093899492634
5 harmonic	301.15400723785	1.345741232799
6 harmonic	582.698766451	1.225198386222
7 harmonic	329.44145381095	1.523435958334
8 harmonic	279.1350963404	1.454628925034
9 harmonic	329.96998057905	1.427343958716
10 harmonic	543.5267831885	0.9716763312559
11 harmonic	385.7604595587	1.369745182308


Angle Coeffs

1 harmonic	53.20531626545	116.5475862634
2 harmonic	65.09061609600001	110.3538806181
3 harmonic	201.41175231035	127.4691416191
4 harmonic	57.8982893754	126.8062420451
5 harmonic	48.776492647595	115.6030999533


Dihedral Coeffs

1 fourier 1	0.1155372516788	3	0
2 fourier 1	0.1115525666802	3	0
3 fourier 1	0.3432490222662	1	0
4 fourier 1	0.0473758381877	3	0
5 fourier 1	0.457973137376	1	0
6 fourier 1	0.09223874044423	3	0
7 fourier 1	0.3159935921949	2	180
8 fourier 1	0.3247796806857	1	180
9 fourier 1	0.1040663847541	3	0
10 fourier 1	0.1918272375143	3	0
11 fourier 1	0.9202179876409	1	180
12 fourier 1	1.163809172478	2	180
13 fourier 1	0.1679186987369	1	180
14 fourier 1	2.779853741805	2	180
15 fourier 1	0.02664938770063	3	0
16 fourier 1	0.1911926717192	3	0
17 fourier 1	-0.3703352413219	2	0
18 fourier 1	0.4541676554336	1	0
19 fourier 1	0.1489710476446	2	0
20 fourier 1	0.02960027280666	3	180
21 fourier 1	0.9974165607242	2	180
22 fourier 1	0.3445382149273	3	0
23 fourier 1	0.1364556373303	1	0
24 fourier 1	0.3026390167484	3	0
25 fourier 1	2.687457892086	2	180
26 fourier 1	2.772607909663	2	180
27 fourier 1	0.09692684957115	1	0


Improper Coeffs

1 3.5	-1	2
2 0.3666666666666667	-1	2


Atoms

1	1	1	-0.179441	-3.8510001	0.213	1.086
2	1	2	0.033062998	-3.0139999	-0.426	0.162
3	1	2	-0.146999	-1.5880001	0.119	0.273
4	1	2	-0.14206401	-0.64399999	-0.602	-0.70099998
5	1	2	-0.14328	0.76700002	0.0049999999	-0.71600002
6	1	2	-0.140845	1.551	-0.289	0.574
7	1	2	0.13494299	3.0009999	0.18799999	0.47499999
8	1	1	-0.494827	3.043	1.5829999	0.35100001
9	1	3	0.078571998	3.497	-0.28999999	-0.40000001
10	1	3	0.078571998	3.5420001	-0.119	1.398
11	1	4	0.085640997	1.0700001	0.21600001	1.439
12	1	4	0.085640997	1.551	-1.3839999	0.76599997
13	1	4	0.081813	1.318	-0.43200001	-1.577
14	1	4	0.081813	0.70099998	1.102	-0.88099998
15	1	4	0.081984997	-0.58700001	-1.683	-0.44299999
16	1	4	0.081984997	-1.061	-0.523	-1.729
17	1	4	0.086653002	-1.597	1.2079999	0.046
18	1	4	0.086653002	-1.2359999	-0.023	1.316
19	1	3	0.078179002	-3.013	-1.515	0.384
20	1	3	0.078179002	-3.405	-0.28600001	-0.87300003
21	1	5	0.76139098	4.0479999	1.835	0.28299999
22	1	6	-0.55656499	4.4029999	2.6730001	-0.53100002
23	1	2	-0.208811	5.0419998	1.199	1.211
24	1	2	-0.116142	5.915	0.152	0.50300002
25	1	2	-0.130981	6.973	0.78600001	-0.414
26	1	2	-0.097847998	7.8959999	-0.28400001	-1.008
27	1	2	-0.257844	8.9469995	0.34599999	-1.929
28	1	5	0.51674199	9.8339996	-0.704	-2.5280001
29	1	6	-0.68962097	10.58	-1.362	-1.8200001
30	1	4	0.113284	8.4390001	0.89499998	-2.7509999
31	1	4	0.113284	9.5719995	1.067	-1.358
32	1	4	0.076522999	8.408	-0.82800001	-0.183
33	1	4	0.076522999	7.289	-1.0140001	-1.589
34	1	4	0.073706001	7.5809999	1.512	0.17
35	1	4	0.073706001	6.4710002	1.329	-1.243
36	1	4	0.085306004	5.2709999	-0.54100001	-0.082999997
37	1	4	0.085306004	6.4320002	-0.447	1.284
38	1	4	0.116489	5.6729999	1.9809999	1.686
39	1	4	0.116489	4.4780002	0.68900001	2.0209999
40	1	1	-0.179441	-4.0469999	1.114	0.71700001
41	1	2	0.033062998	-2.8110001	1.7539999	0.546
42	1	2	-0.146999	-2.099	1.209	-0.69499999
43	1	2	-0.142012	-0.76300001	1.9299999	-0.926
44	1	2	-0.137918	0.044	1.323	-2.0840001
45	1	2	-0.16892201	-0.57999998	1.6160001	-3.4579999
46	1	2	0.086245	0.31900001	1.14	-4.5999999
47	1	7	-0.68496102	0.44499999	-0.255	-4.5650001
48	1	8	0.37747401	1.04	-0.49599999	-5.322
49	1	3	0.068442002	1.321	1.617	-4.5170002
50	1	3	0.068442002	-0.139	1.446	-5.5679998
51	1	4	0.089005999	-1.566	1.1109999	-3.5480001
52	1	4	0.089005999	-0.73900002	2.711	-3.5669999
53	1	4	0.081984997	1.066	1.76	-2.0539999
54	1	4	0.081984997	0.14300001	0.22499999	-1.937
55	1	4	0.081984997	-0.94400001	3.01	-1.118
56	1	4	0.081984997	-0.149	1.851	-0.0020000001
57	1	4	0.086653002	-1.9170001	0.12	-0.56
58	1	4	0.086653002	-2.7639999	1.35	-1.574
59	1	3	0.078179002	-2.994	2.8429999	0.41999999
60	1	3	0.078179002	-2.177	1.614	1.451
61	1	5	0.51674199	9.8260002	-0.87300003	-3.5999999
62	1	6	-0.68962097	10.658	-0.31400001	-4.296
63	1	2	-0.257844	8.8140001	-1.786	-4.2309999
64	1	2	-0.097847998	7.829	-2.3640001	-3.2049999
65	1	2	-0.130981	6.8460002	-1.3049999	-2.6849999
66	1	2	-0.113626	5.8520002	-1.921	-1.689
67	1	2	-0.218907	4.895	-0.875	-1.101
68	1	5	0.823493	3.9449999	-0.34999999	-2.132
69	1	6	-0.55810201	2.9389999	-1.03	-2.47
70	1	7	-0.66582298	4.191	0.87699997	-2.7409999
71	1	8	0.393659	3.5650001	1.24	-3.451
72	1	4	0.11751	5.473	-0.035	-0.65899998
73	1	4	0.11751	4.309	-1.344	-0.28099999
74	1	4	0.085306004	5.2670002	-2.7260001	-2.1849999
75	1	4	0.085306004	6.4190001	-2.381	-0.85000002
76	1	4	0.073706001	7.4060001	-0.48800001	-2.1819999
77	1	4	0.073706001	6.289	-0.87300003	-3.5450001
78	1	4	0.076522999	7.2519999	-3.178	-3.697
79	1	4	0.076522999	8.3920002	-2.813	-2.3570001
80	1	4	0.113284	9.3549995	-2.625	-4.717
81	1	4	0.113284	8.2580004	-1.235	-5.0209999

Bonds

1	1	1	2
2	2	1	40
3	3	2	3
4	4	2	19
5	4	2	20
6	3	3	4
7	4	3	17
8	4	3	18
9	3	4	5
10	4	4	15
11	4	4	16
12	3	5	6
13	4	5	13
14	4	5	14
15	3	6	7
16	4	6	11
17	4	6	12
18	1	7	8
19	4	7	9
20	4	7	10
21	5	8	21
22	6	21	22
23	7	21	23
24	3	23	24
25	4	23	38
26	4	23	39
27	3	24	25
28	4	24	36
29	4	24	37
30	3	25	26
31	4	25	34
32	4	25	35
33	3	26	27
34	4	26	32
35	4	26	33
36	7	27	28
37	4	27	30
38	4	27	31
39	6	28	29
40	8	28	61
41	1	40	41
42	3	41	42
43	4	41	59
44	4	41	60
45	3	42	43
46	4	42	57
47	4	42	58
48	3	43	44
49	4	43	55
50	4	43	56
51	3	44	45
52	4	44	53
53	4	44	54
54	3	45	46
55	4	45	51
56	4	45	52
57	9	46	47
58	4	46	49
59	4	46	50
60	10	47	48
61	6	61	62
62	7	61	63
63	3	63	64
64	4	63	80
65	4	63	81
66	3	64	65
67	4	64	78
68	4	64	79
69	3	65	66
70	4	65	76
71	4	65	77
72	3	66	67
73	4	66	74
74	4	66	75
75	7	67	68
76	4	67	72
77	4	67	73
78	6	68	69
79	11	68	70
80	10	70	71

Angles

1	1	5	4	15
2	2	7	8	21
3	5	15	4	16
4	1	64	65	76
5	1	46	45	51
6	1	68	67	72
7	1	43	44	53
8	1	67	66	75
9	1	41	42	57
10	1	63	64	78
11	1	43	42	57
12	1	65	64	78
13	1	64	63	81
14	1	42	41	59
15	5	49	46	50
16	2	68	70	71
17	1	28	27	30
18	1	64	65	77
19	1	44	43	56
20	1	47	46	49
21	1	21	23	38
22	1	23	24	36
23	1	61	63	64
24	1	43	44	54
25	1	42	43	55
26	1	68	67	73
27	5	78	64	79
28	1	41	42	58
29	1	63	64	79
30	1	6	7	8
31	1	25	26	33
32	1	44	45	52
33	1	61	63	80
34	4	28	61	62
35	1	2	3	17
36	1	66	67	68
37	1	45	44	54
38	1	1	2	20
39	1	24	25	34
40	1	40	41	60
41	5	9	7	10
42	1	26	27	31
43	1	45	46	50
44	1	61	63	81
45	5	76	65	77
46	1	25	24	36
47	4	8	21	23
48	1	65	66	74
49	1	3	2	19
50	1	24	25	26
51	5	59	41	60
52	1	5	4	16
53	5	13	5	14
54	1	66	65	76
55	5	80	63	81
56	1	3	4	15
57	5	30	27	31
58	1	26	25	34
59	1	46	45	52
60	1	64	65	66
61	1	25	24	37
62	1	23	24	25
63	1	26	27	28
64	1	66	67	72
65	1	42	43	44
66	1	45	46	47
67	1	65	66	75
68	1	43	42	58
69	1	65	64	79
70	1	4	3	17
71	1	42	41	60
72	1	4	5	13
73	1	66	65	77
74	1	25	26	27
75	1	28	27	31
76	1	3	4	16
77	1	41	42	43
78	1	44	45	46
79	1	47	46	50
80	1	26	25	35
81	1	21	23	39
82	1	23	24	37
83	5	57	42	58
84	1	3	4	5
85	1	42	43	56
86	1	6	7	10
87	1	66	67	73
88	1	6	7	9
89	1	8	7	10
90	5	72	67	73
91	1	8	7	9
92	1	65	66	67
93	1	6	5	13
94	4	28	61	63
95	4	27	28	29
96	5	51	45	52
97	1	1	2	3
98	1	2	3	18
99	1	21	23	24
100	4	22	21	23
101	1	24	25	35
102	1	63	64	65
103	1	4	5	6
104	4	67	68	69
105	1	6	5	14
106	5	36	24	37
107	1	7	6	11
108	2	1	40	41
109	2	2	1	40
110	4	29	28	61
111	1	27	26	32
112	1	3	2	20
113	4	67	68	70
114	5	17	3	18
115	1	40	41	42
116	1	24	23	38
117	5	34	25	35
118	5	53	44	54
119	1	2	3	4
120	1	44	43	55
121	1	7	6	12
122	5	74	66	75
123	4	27	28	61
124	1	25	26	32
125	1	44	45	51
126	1	4	3	18
127	1	27	26	33
128	1	5	6	7
129	1	24	23	39
130	1	4	5	14
131	1	5	6	11
132	1	45	44	53
133	1	1	2	19
134	1	40	41	59
135	1	26	27	30
136	1	43	44	45
137	1	45	46	49
138	2	46	47	48
139	5	32	26	33
140	4	62	61	63
141	5	38	23	39
142	5	11	6	12
143	3	8	21	22
144	1	67	66	74
145	1	5	6	12
146	1	64	63	80
147	5	19	2	20
148	5	55	43	56
149	3	69	68	70

Dihedrals

1	9	4	5	6	11
2	16	18	3	2	19
3	16	49	46	45	51
4	16	32	26	25	35
5	9	41	42	43	56
6	16	79	64	63	80
7	16	34	25	24	37
8	16	77	65	64	78
9	9	67	66	65	77
10	9	4	3	2	19
11	9	7	6	5	13
12	15	8	21	23	24
13	15	28	61	63	81
14	16	75	66	65	77
15	16	9	7	6	11
16	9	45	44	43	55
17	5	2	1	40	41
18	9	63	64	65	76
19	9	64	65	66	75
20	16	76	65	64	79
21	9	24	25	26	33
22	16	50	46	45	52
23	16	12	6	5	14
24	9	23	24	25	34
25	16	18	3	2	20
26	16	49	46	45	52
27	4	1	40	41	59
28	9	26	25	24	37
29	4	3	2	1	40
30	22	45	46	47	48
30	23	45	46	47	48
31	9	43	42	41	60
32	9	4	3	2	20
33	9	7	6	5	14
34	16	17	3	2	19
35	16	9	7	6	12
36	10	6	7	8	21
36	11	6	7	8	21
37	16	10	7	6	11
38	14	7	8	21	23
39	9	25	26	27	30
40	9	44	43	42	57
41	9	63	64	65	77
42	16	73	67	66	75
43	21	29	28	61	62
44	16	13	5	4	15
45	6	64	65	66	67
45	7	64	65	66	67
45	8	64	65	66	67
46	9	23	24	25	35
47	15	66	67	68	70
48	4	1	40	41	60
49	9	43	44	45	51
50	6	4	5	6	7
50	7	4	5	6	7
50	8	4	5	6	7
51	16	16	4	3	18
52	9	25	24	23	39
53	9	5	4	3	17
54	16	36	24	23	38
55	15	31	27	28	61
56	16	33	26	25	35
57	1	40	41	42	43
58	1	61	63	64	79
59	9	65	66	67	72
60	16	10	7	6	12
61	9	25	26	27	31
62	16	58	42	41	60
63	9	3	4	5	13
64	2	47	46	45	51
64	3	47	46	45	51
65	9	27	26	25	34
66	16	54	44	43	55
67	9	43	44	45	52
68	1	28	27	26	32
69	1	65	66	67	68
70	9	5	4	3	18
71	16	55	43	42	57
72	16	53	44	43	55
73	16	52	45	44	53
74	9	4	5	6	12
75	21	27	28	61	62
76	16	79	64	63	81
77	1	1	2	3	4
78	16	77	65	64	79
79	4	9	7	8	21
80	18	29	28	27	30
80	19	29	28	27	30
80	20	29	28	27	30
81	1	44	45	46	47
82	16	54	44	43	56
83	9	46	45	44	53
84	16	74	66	65	76
85	17	26	27	28	29
86	9	45	44	43	56
87	25	67	68	70	71
88	16	78	64	63	80
89	6	63	64	65	66
89	7	63	64	65	66
89	8	63	64	65	66
90	15	70	68	67	72
91	16	72	67	66	74
92	21	27	28	61	63
93	9	2	3	4	15
94	24	48	47	46	49
95	9	66	65	64	78
96	9	6	5	4	15
97	18	22	21	23	38
97	19	22	21	23	38
97	20	22	21	23	38
98	16	17	3	2	20
99	16	15	4	3	17
100	16	14	5	4	15
101	9	42	43	44	53
102	9	44	43	42	58
103	21	29	28	61	63
104	16	57	42	41	59
105	16	13	5	4	16
106	16	37	24	23	38
107	16	72	67	66	75
108	9	2	3	4	16
109	1	68	67	66	74
110	15	8	21	23	38
111	4	19	2	1	40
112	16	36	24	23	39
113	1	21	23	24	36
114	6	2	3	4	5
114	7	2	3	4	5
114	8	2	3	4	5
115	16	31	27	26	32
116	16	35	25	24	36
117	16	51	45	44	53
118	15	30	27	28	61
119	9	41	42	43	55
120	9	65	66	67	73
121	6	42	43	44	45
121	7	42	43	44	45
121	8	42	43	44	45
122	15	28	61	63	64
123	16	34	25	24	36
124	16	11	6	5	13
125	15	26	27	28	61
126	16	57	42	41	60
127	9	3	4	5	14
128	1	5	6	7	8
129	6	24	25	26	27
129	7	24	25	26	27
129	8	24	25	26	27
130	15	28	61	63	80
131	2	47	46	45	52
131	3	47	46	45	52
132	16	75	66	65	76
133	9	27	26	25	35
134	16	30	27	26	32
135	6	3	4	5	6
135	7	3	4	5	6
135	8	3	4	5	6
136	4	20	2	1	40
137	17	62	61	63	64
138	1	28	27	26	33
139	15	8	21	23	39
140	1	25	26	27	28
141	16	55	43	42	58
142	1	21	23	24	37
143	16	53	44	43	56
144	16	52	45	44	54
145	1	61	63	64	65
146	4	1	40	41	42
147	16	50	46	45	51
148	18	62	61	63	80
148	19	62	61	63	80
148	20	62	61	63	80
149	16	35	25	24	37
150	9	65	64	63	80
151	4	10	7	8	21
152	16	51	45	44	54
153	2	8	7	6	11
153	3	8	7	6	11
154	9	26	25	24	36
155	18	69	68	67	72
155	19	69	68	67	72
155	20	69	68	67	72
156	16	11	6	5	14
157	9	5	6	7	10
158	18	29	28	27	31
158	19	29	28	27	31
158	20	29	28	27	31
159	9	5	6	7	9
160	9	43	42	41	59
161	16	30	27	26	33
162	9	46	45	44	54
163	16	74	66	65	77
164	16	78	64	63	81
165	12	7	8	21	22
165	13	7	8	21	22
166	16	73	67	66	74
167	9	65	64	63	81
168	16	56	43	42	57
169	18	62	61	63	81
169	19	62	61	63	81
169	20	62	61	63	81
170	2	40	41	42	57
170	3	40	41	42	57
171	26	69	68	70	71
171	27	69	68	70	71
172	15	70	68	67	73
173	2	1	2	3	17
173	3	1	2	3	17
174	17	66	67	68	69
175	2	8	7	6	12
175	3	8	7	6	12
176	16	16	4	3	17
177	18	69	68	67	73
177	19	69	68	67	73
177	20	69	68	67	73
178	9	25	24	23	38
179	9	44	45	46	49
180	24	48	47	46	50
181	9	66	65	64	79
182	9	6	5	4	16
183	18	22	21	23	39
183	19	22	21	23	39
183	20	22	21	23	39
184	1	21	23	24	25
185	16	15	4	3	18
186	16	14	5	4	16
187	16	33	26	25	34
188	9	42	43	44	54
189	16	32	26	25	34
190	1	61	63	64	78
191	6	43	44	45	46
191	7	43	44	45	46
191	8	43	44	45	46
192	6	41	42	43	44
192	7	41	42	43	44
192	8	41	42	43	44
193	16	56	43	42	58
194	9	67	66	65	76
195	2	40	41	42	58
195	3	40	41	42	58
196	16	58	42	41	59
197	16	37	24	23	39
198	2	1	2	3	18
198	3	1	2	3	18
199	6	23	24	25	26
199	7	23	24	25	26
199	8	23	24	25	26
200	17	22	21	23	24
201	1	68	67	66	75
202	9	64	65	66	74
203	16	76	65	64	78
204	9	44	45	46	50
205	16	31	27	26	33
206	9	24	25	26	32
207	16	12	6	5	13

Impropers

152	2	28	29	61	27
246	1	21	23	8	22
285	2	61	28	62	63
287	1	21	22	23	8
293	2	28	27	29	61
343	2	28	61	27	29
381	2	61	63	28	62
395	1	68	69	70	67
419	1	68	67	69	70
443	1	21	8	22	23
453	2	61	62	63	28
504	1	68	70	67	69
