Title

12875 atoms
13250 bonds
21875 angles
35250 dihedrals
15750 impropers

9 atom types
14 bond types
8 angle types
30 dihedral types
3 improper types
-16.66582201 160.6856933 xlo xhi
-14.40242295 160.8984018 ylo yhi
-16.65317368 159.3156821 zlo zhi
0.0 0.0 0.0 xy xz yz

Masses

1	14.00672
2	12.01078
3	1.007947
4	15.99943
5	1.007947
6	12.01078
7	1.007947
8	15.99943
9	1.007947


Pair Coeffs

1	0.16769152	3.206876
2	0.086879315	3.4806469
3	0.015611343	2.5725815
4	0.2102061	3.0398122
5	0.014090815	1.1034277
6	0.10884061	3.3795318
7	0.015779483	2.6445434
8	0.20947353	2.99716
9	1.2326e-05	0.53453923

Bond Coeffs

1 harmonic	390.03554688505	1.390160554689
2 harmonic	505.144496193	1.019481865027
3 harmonic	422.7150220147	1.421786517481
4 harmonic	360.7852444772	1.387193227181
5 harmonic	397.2545789619	1.085358495916
6 harmonic	279.1350963404	1.454628925034
7 harmonic	399.1592953295	1.371688562017
8 harmonic	582.698766451	1.225198386222
9 harmonic	492.76746816345	1.381897776683
10 harmonic	329.44145381095	1.523435958334
11 harmonic	264.62148576755	1.52190126495
12 harmonic	370.04670688625	1.093899492634
13 harmonic	385.7604595587	1.369745182308
14 harmonic	543.5267831885	0.9716763312559


Angle Coeffs

1 harmonic	57.8982893754	126.8062420451
2 harmonic	55.42182150775	117.3465570514
3 harmonic	63.44422595415	115.5071327674
4 harmonic	34.066775159195	129.1835929926
5 harmonic	53.20531626545	116.5475862634
6 harmonic	48.776492647595	115.6030999533
7 harmonic	65.09061609600001	110.3538806181
8 harmonic	201.41175231035	127.4691416191


Dihedral Coeffs

1 fourier 1	3.661930099076	2	180
2 fourier 1	1.193093382682	2	180
3 fourier 1	0.02021088501612	1	0
4 fourier 1	1.163235555439	2	180
5 fourier 1	5.294842998052	2	180
6 fourier 1	0.2347635637734	2	180
7 fourier 1	0.4747469131102	3	0
8 fourier 1	0.9974165607242	2	180
9 fourier 1	3.101948770557	2	180
10 fourier 1	-0.4252153282372	1	0
11 fourier 1	1.809047390003	2	180
12 fourier 1	-0.04816277792592	1	0
13 fourier 1	-0.04561822763521	4	0
14 fourier 1	0.1536091026885	2	0
15 fourier 1	0.02664938770063	3	0
16 fourier 1	2.348375642009	2	180
17 fourier 1	1.256156174911	1	0
18 fourier 1	0.1155372516788	3	0
19 fourier 1	-0.3703352413219	2	0
20 fourier 1	0.4541676554336	1	0
21 fourier 1	0.1489710476446	2	0
22 fourier 1	0.02960027280666	3	180
23 fourier 1	0.09223874044423	3	0
24 fourier 1	0.3159935921949	2	180
25 fourier 1	0.3247796806857	1	180
26 fourier 1	0.1040663847541	3	0
27 fourier 1	0.1911926717192	3	0
28 fourier 1	2.687457892086	2	180
29 fourier 1	2.772607909663	2	180
30 fourier 1	0.09692684957115	1	0


Improper Coeffs

1 0.3666666666666667	-1	2
2 0.3333333333333333	-1	2
3 3.5	-1	2


Atoms

1	4	1	-0.41415595	1.07281	-5.1449445	3.6044207
2	4	2	0.11660046	1.1132327	-3.9463496	2.8246014
3	4	2	-0.41706672	0.19918306	-3.7274654	1.8661589
4	4	3	0.23105604	-0.58115148	-4.4528146	1.6712522
5	4	2	-0.087845042	0.25370291	-2.4935265	1.0580894
6	4	3	0.22424185	-0.47308051	-2.3344657	0.27088517
7	4	2	-0.28601619	1.2051488	-1.5820216	1.2859041
8	4	3	0.2181162	1.2501874	-0.69409146	0.66781621
9	4	2	-0.083169542	2.2052563	-1.7965375	2.3653918
10	4	2	0.031441454	3.2943612	-0.8233713	2.6008152
11	4	2	-0.46325728	3.1444569	0.50939951	2.6347665
12	4	2	0.60329879	1.8418353	1.2158672	2.6431596
13	4	4	-0.56862646	0.83955524	0.66770787	3.1762384
14	4	2	-0.46325728	1.6867426	2.585841	2.1114794
15	4	2	0.031441454	2.6054613	3.1810988	1.3347097
16	4	2	-0.089933134	2.4673973	4.5556096	0.79384052
17	4	2	-0.28601619	1.2728427	5.1627581	0.62687623
18	4	3	0.2181162	0.34386894	4.6667899	0.86983559
19	4	2	-0.10525995	1.2007579	6.52704	0.065780281
20	4	3	0.22424185	0.23818676	7.0061684	-0.056066978
21	4	2	-0.39313173	2.3177637	7.1664219	-0.29616853
22	4	3	0.22874127	2.2556838	8.1657009	-0.70910995
23	4	2	0.18354652	3.6338564	6.5095295	-0.13900254
24	4	1	-0.49380296	4.8239609	7.1954655	-0.53621162
25	4	5	0.31284378	5.7634883	6.7504342	-0.43424818
26	4	2	-0.33811312	3.7002416	5.271066	0.37418484
27	4	3	0.22640844	4.6629897	4.7858956	0.49185323
28	4	3	0.21386398	3.5236176	2.6585961	1.099812
29	4	3	0.17480686	0.77443817	3.1037626	2.3697602
30	4	3	0.17480686	4.0401757	1.1081638	2.7359249
31	4	3	0.21386398	4.2917716	-1.2209161	2.7466488
32	4	2	-0.34247117	2.1719006	-2.9387678	3.0714338
33	4	3	0.2265553	2.9130678	-3.1289826	3.8394407
34	4	5	0.37701757	1.7844015	-5.3151454	4.3489388
35	5	2	0.76191116	4.7706197	8.1777594	-0.94384788
36	5	4	-0.6628887	5.7948315	8.7215315	-1.3255967
37	5	6	-0.18217329	3.4580989	8.8963899	-1.0532472
38	5	6	-0.10999699	2.3077789	8.035718	-0.51872991
39	5	6	-0.083464384	0.9685498	8.7735884	-0.63243002
40	5	6	-0.24722116	-0.18063566	7.9136862	-0.098259662
41	5	2	0.53482611	-1.4933226	8.6313499	-0.20746473
42	5	4	-0.53022426	-2.5173683	8.0885446	0.1740898
43	5	7	0.13604569	-0.2406875	6.9673837	-0.67905429
44	5	7	0.13604569	0.0033579012	7.6654417	0.97007878
45	5	7	0.10089593	0.77584037	9.0236065	-1.6993944
46	5	7	0.10089593	1.0196999	9.7215017	-0.051230334
47	5	7	0.10926209	2.2567949	7.0887715	-1.1001239
48	5	7	0.10926209	2.5008403	7.7868295	0.54900919
49	5	7	0.1404046	3.2731369	9.1448315	-2.121433
50	5	7	0.1404046	3.5179846	9.8417256	-0.47225832
51	1	1	-0.41415598	0.33504783	-5.8671277	3.4462232
52	1	2	0.11660047	0.098997717	-6.4089382	2.1439226
53	1	2	-0.41706672	0.82585141	-5.9961328	1.0930199
54	1	3	0.23105604	1.5987625	-5.2474938	1.2173259
55	1	2	-0.087845027	0.57023734	-6.5511954	-0.25077323
56	1	3	0.22424185	1.143256	-6.1958563	-1.096358
57	1	2	-0.28601619	-0.37736729	-7.4804666	-0.42473994
58	1	3	0.2181162	-0.57203071	-7.8590321	-1.4197813
59	1	2	-0.083169534	-1.1669796	-7.971313	0.73490538
60	1	2	0.031441454	-2.250551	-8.9609874	0.55588995
61	1	2	-0.46325728	-2.1683374	-10.066401	-0.2009054
62	1	2	0.60329879	-0.92244634	-10.581906	-0.81564253
63	1	4	-0.56862646	0.18299135	-10.382808	-0.24381004
64	1	2	-0.46325728	-0.93335197	-11.39563	-2.0483716
65	1	2	0.031441454	-1.9995399	-11.491955	-2.8575921
66	1	2	-0.037234254	-2.0281512	-12.305283	-4.0983431
67	1	2	-0.28601619	-0.91387236	-12.64495	-4.7792936
68	1	3	0.2181162	0.068853032	-12.326351	-4.4589013
69	1	2	-0.039226975	-1.0091794	-13.441509	-6.0193552
70	1	3	0.22424185	-0.10806931	-13.714928	-6.5528941
71	1	2	-0.45380484	-2.2038075	-13.820344	-6.4860892
72	1	3	0.23504181	-2.2655515	-14.402423	-7.3971024
73	1	2	0.31619982	-3.4376938	-13.440516	-5.7641726
74	1	1	-0.84927183	-4.7124926	-13.840889	-6.2727967
75	1	5	0.37255914	-4.7801175	-14.400942	-7.151294
76	1	5	0.37255914	-5.5959658	-13.582485	-5.7783027
77	1	2	-0.4086132	-3.3500882	-12.718495	-4.6339512
78	1	3	0.23625239	-4.2523245	-12.439044	-4.1022417
79	1	3	0.21386398	-2.9151885	-10.978754	-2.5947806
80	1	3	0.17480686	-0.018599863	-11.919845	-2.2895526
81	1	3	0.17480686	-3.0656417	-10.663044	-0.30830797
82	1	3	0.21386398	-3.1866468	-8.770923	1.0668002
83	1	2	-0.34247117	-0.95490013	-7.4328753	1.9484589
84	1	3	0.22655533	-1.5437225	-7.7533762	2.7994785
85	1	5	0.37701757	-0.23038829	-6.1881997	4.2629243
86	2	2	0.53482617	-1.548311	9.631987	-0.62302671
87	2	4	-0.53022426	-1.8170631	9.7799394	-1.8048001
88	2	6	-0.24722119	-1.2761556	10.820876	0.2499077
89	2	6	-0.082534469	-2.5307681	11.686761	0.40290858
90	2	6	-0.10056023	-2.260236	12.889011	1.3203498
91	2	6	-0.20769105	-3.47904	13.812839	1.4422985
92	2	2	0.84665371	-4.6005081	13.158342	2.1884512
93	2	4	-0.44467881	-4.5676945	13.091042	3.4463124
94	2	8	-0.64173918	-5.6636102	12.595536	1.4900333
95	2	9	0.42672906	-6.4232121	12.137483	1.9789633
96	2	7	0.14346234	-3.827855	14.119656	0.43185859
97	2	7	0.14346234	-3.1789298	14.735109	1.9852069
98	2	7	0.11035641	-1.416892	13.480363	0.90235228
99	2	7	0.11035641	-1.9574457	12.534118	2.3301519
100	2	7	0.10089593	-2.8512457	12.053862	-0.59729547
101	2	7	0.10089593	-3.3492898	11.067349	0.83117839
102	2	7	0.13604569	-0.94783463	10.462587	1.2491908
103	2	7	0.13604569	-0.45177165	11.417873	-0.19739279
104	4	1	-0.41415595	-1.9808083	-4.1594372	37.951892
105	4	2	0.11660046	-1.3848064	-3.4471708	36.863848
106	4	2	-0.41706672	-2.0038174	-2.3840507	36.326624
107	4	3	0.23105604	-2.9603287	-2.0501774	36.709581
108	4	2	-0.087845042	-1.3880661	-1.6606964	35.19695
109	4	3	0.22424185	-1.9042812	-0.81812326	34.753331
110	4	2	-0.28601619	-0.20491828	-2.0523775	34.712453
111	4	3	0.2181162	0.22268897	-1.5298496	33.865932
112	4	2	-0.083169542	0.5071037	-3.2089281	35.31821
113	4	2	0.031441454	1.7932357	-3.6875857	34.7656
114	4	2	-0.46325728	2.8180852	-2.901144	34.40353
115	4	2	0.60329879	2.9111926	-1.4485605	34.681598
116	4	4	-0.56862646	2.3650908	-0.97607711	35.714918
117	4	2	-0.46325728	3.6919555	-0.53225953	33.824646
118	4	2	0.031441454	4.1280597	-0.86452401	32.599427
119	4	2	-0.089933134	4.9142275	0.041387028	31.726417
120	4	2	-0.28601619	4.8831855	1.3861179	31.84559
121	4	3	0.2181162	4.2659699	1.8775437	32.584205
122	4	2	-0.10525995	5.675504	2.2349684	30.932916
123	4	3	0.22424185	5.6485253	3.3110993	31.043226
124	4	2	-0.39313173	6.4184145	1.6787706	29.970499
125	4	3	0.22874127	6.9944308	2.3087332	29.303952
126	4	2	0.18354652	6.4493359	0.20829593	29.812204
127	4	1	-0.49380296	7.2390594	-0.3797584	28.775305
128	4	5	0.31284378	7.2752862	-1.4156115	28.645471
129	4	2	-0.33811312	5.7322775	-0.56379747	30.643624
130	4	3	0.22640844	5.7524924	-1.6423082	30.531705
131	4	3	0.21386398	3.9327909	-1.8573834	32.215634
132	4	3	0.17480686	3.8969407	0.44894534	34.22772
133	4	3	0.17480686	3.6705886	-3.3781033	33.937899
134	4	3	0.21386398	1.9095114	-4.7569202	34.634678
135	4	2	-0.34247117	-0.076824174	-3.8850552	36.321294
136	4	3	0.2265553	0.41055181	-4.7517304	36.753363
137	4	5	0.37701757	-1.4995301	-4.9866714	38.368657
138	5	2	0.76191116	7.8072599	0.23332585	28.115616
139	5	4	-0.6628887	8.4305877	-0.28848295	27.204787
140	5	6	-0.18217329	7.8498463	1.7226136	28.292583
141	5	6	-0.10999699	7.0012274	2.1637576	29.490472
142	5	6	-0.083464384	7.0473658	3.68605	29.667706
143	5	6	-0.24722116	6.1996074	4.1266853	30.864595
144	5	2	0.53482611	6.2414555	5.6155935	31.04212
145	5	4	-0.53022426	5.618866	6.1377818	31.952391
146	5	7	0.13604569	5.1437214	3.8142062	30.710068
147	5	7	0.13604569	6.582105	3.6452164	31.791261
148	5	7	0.10089593	6.6637687	4.175513	28.745026
149	5	7	0.10089593	8.101489	4.0067821	29.825517
150	5	7	0.10926209	5.9478425	1.843405	29.332104
151	5	7	0.10926209	7.3862261	1.6744152	30.413297
152	5	7	0.1404046	7.4672265	2.2049707	27.36636
153	5	7	0.1404046	8.904994	2.0347132	28.447668
154	1	1	-0.41415598	-2.9016433	-3.866903	38.348572
155	1	2	0.11660047	-4.045772	-3.6921109	37.508523
156	1	2	-0.41706672	-3.9568552	-3.9015935	36.185144
157	1	3	0.23105604	-3.0184043	-4.2042107	35.736773
158	1	2	-0.087845027	-5.1386244	-3.7090482	35.321685
159	1	3	0.22424185	-5.0528935	-3.8560179	34.253659
160	1	2	-0.28601619	-6.3086627	-3.3396687	35.856786
161	1	3	0.2181162	-7.1598133	-3.176324	35.208578
162	1	2	-0.083169534	-6.4304232	-3.1366925	37.324155
163	1	2	0.031441454	-7.7005954	-2.6816218	37.928474
164	1	2	-0.46325728	-8.9161785	-3.160624	37.621308
165	1	2	0.60329879	-9.1690632	-4.3552365	36.781759
166	1	4	-0.56862646	-8.3327484	-5.2981619	36.772048
167	1	2	-0.46325728	-10.414647	-4.5198054	36.005019
168	1	2	0.031441454	-11.268786	-3.5138327	35.761425
169	1	2	-0.037234254	-12.524359	-3.6617221	34.984605
170	1	2	-0.28601619	-12.716744	-4.6446883	34.080476
171	1	3	0.2181162	-11.950657	-5.3766491	33.863104
172	1	2	-0.039226975	-13.982902	-4.7279507	33.324663
173	1	3	0.22424185	-14.129233	-5.5254743	32.60775
174	1	2	-0.45380484	-14.944561	-3.8193311	33.519894
175	1	3	0.23504181	-15.869249	-3.8859366	32.96035
176	1	2	0.31619982	-14.744016	-2.7229325	34.492314
177	1	1	-0.84927183	-15.772191	-1.749397	34.690287
178	1	5	0.37255914	-16.665822	-1.8061666	34.153452
179	1	5	0.37255914	-15.650181	-0.96690799	35.371937
180	1	2	-0.4086132	-13.592916	-2.6496609	35.182234
181	1	3	0.23625239	-13.443063	-1.8478249	35.895985
182	1	3	0.21386398	-11.066607	-2.5330168	36.17128
183	1	3	0.17480686	-10.615542	-5.5094559	35.617754
184	1	3	0.17480686	-9.7705691	-2.6800847	38.081495
185	1	3	0.21386398	-7.6443755	-1.8919125	38.667817
186	1	2	-0.34247117	-5.3403726	-3.2761396	38.098719
187	1	3	0.22655533	-5.4014577	-3.0994255	39.165821
188	1	5	0.37701757	-2.9711609	-3.7037574	39.377337
189	2	2	0.53482617	6.8198785	6.240736	30.370098
190	2	4	-0.53022426	6.271984	6.7651542	29.413279
191	2	6	-0.24722119	8.286947	6.4399802	30.61
192	2	6	-0.082534469	8.5942119	7.9043391	30.939331
193	2	6	-0.10056023	10.092739	8.1032237	31.213471
194	2	6	-0.20769105	10.444343	9.572144	31.482658
195	2	2	0.84665371	9.8724186	10.051962	32.780918
196	2	4	-0.44467881	10.435282	9.7529085	33.86792
197	2	8	-0.64173918	8.7005554	10.801232	32.788416
198	2	9	0.42672906	8.2935029	11.121967	33.658645
199	2	7	0.14346234	10.076362	10.211266	30.650246
200	2	7	0.14346234	11.550286	9.6768564	31.518998
201	2	7	0.11035641	10.670719	7.7649273	30.326259
202	2	7	0.11035641	10.4053	7.4790956	32.079554
203	2	7	0.10089593	8.2895604	8.547706	30.084262
204	2	7	0.10089593	8.0078281	8.2056883	31.835103
205	2	7	0.13604569	8.6010411	5.7945616	31.458241
206	2	7	0.13604569	8.8484381	6.1260679	29.703204
207	4	1	-0.41415595	1.1404987	6.0569329	65.476754
208	4	2	0.11660046	0.82812525	4.8071095	66.098643
209	4	2	-0.41706672	0.36731588	3.7800394	65.367349
210	4	3	0.23105604	0.22741512	3.8822763	64.298229
211	4	2	-0.087845042	0.036676778	2.4968961	66.01756
212	4	3	0.22424185	-0.35673505	1.6801045	65.424869
213	4	2	-0.28601619	0.20738306	2.3471384	67.335294
214	4	3	0.2181162	-0.064807065	1.4096828	67.803878
215	4	2	-0.083169542	0.74684497	3.466062	68.152923
216	4	2	0.031441454	0.8971088	3.3363611	69.618946
217	4	2	-0.46325728	1.4109429	2.2702026	70.250755
218	4	2	0.60329879	2.0939057	1.1371543	69.583107
219	4	4	-0.56862646	2.7293733	1.3364548	68.512744
220	4	2	-0.46325728	2.1229066	-0.21913185	70.168951
221	4	2	0.031441454	1.3165047	-0.60450208	71.170427
222	4	2	-0.089933134	1.3330425	-1.9606056	71.771751
223	4	2	-0.28601619	1.7921451	-3.0488441	71.117206
224	4	3	0.2181162	2.1636544	-2.9885132	70.104118
225	4	2	-0.10525995	1.7649258	-4.376058	71.764548
226	4	3	0.22424185	2.1427789	-5.2394544	71.232827
227	4	2	-0.39313173	1.270634	-4.513317	72.999195
228	4	3	0.22874127	1.2521465	-5.490621	73.46553
229	4	2	0.18354652	0.74510924	-3.3357851	73.724145
230	4	1	-0.49380296	0.20979549	-3.4909159	75.040961
231	4	5	0.31284378	-0.16662711	-2.6731647	75.570819
232	4	2	-0.33811312	0.77287674	-2.1287738	73.137704
233	4	3	0.22640844	0.38931786	-1.262622	73.665703
234	4	3	0.21386398	0.6252698	0.10774182	71.60182
235	4	3	0.17480686	2.8312653	-0.91447253	69.74236
236	4	3	0.17480686	1.3875776	2.2742998	71.332652
237	4	3	0.21386398	0.55494443	4.1648216	70.227809
238	4	2	-0.34247117	1.0100449	4.6424703	67.560397
239	4	3	0.2265553	1.3714927	5.4807537	68.145189
240	4	5	0.37701757	1.497866	6.855609	66.046001
241	5	2	0.76191116	0.187479	-4.4488548	75.505471
242	5	4	-0.6628887	-0.3235074	-4.5652992	76.608087
243	5	6	-0.18217329	0.77392983	-5.6497396	74.823517
244	5	6	-0.10999699	1.3599605	-5.2805248	73.456056
245	5	6	-0.083464384	1.9580141	-6.5103057	72.762597
246	5	6	-0.24722116	2.5436	-6.1413123	71.39646
247	5	2	0.53482611	3.1299653	-7.3414499	70.713848
248	5	4	-0.53022426	3.6410372	-7.2257527	69.61189
249	5	7	0.13604569	1.7450034	-5.716378	70.74986
250	5	7	0.13604569	3.3418894	-5.3778518	71.525643
251	5	7	0.10089593	1.1644978	-7.2784988	72.62743
252	5	7	0.10089593	2.7605404	-6.9403791	73.402861
253	5	7	0.10926209	0.5575198	-4.8511986	72.816452
254	5	7	0.10926209	2.1544058	-4.5126724	73.592234
255	5	7	0.1404046	-0.02382923	-6.4137259	74.69367
256	5	7	0.1404046	1.5724408	-6.0739267	75.469458
257	1	1	-0.41415598	1.0194043	6.1932164	64.448342
258	1	2	0.11660047	-0.22372928	5.8987536	63.805554
259	1	2	-0.41706672	-1.2652988	5.437873	64.516781
260	1	3	0.23105604	-1.1775408	5.2821336	65.58512
261	1	2	-0.087845027	-2.5426123	5.1254328	63.845913
262	1	3	0.22424185	-3.3691107	4.7315307	64.421561
263	1	2	-0.28601619	-2.6729258	5.3151608	62.527282
264	1	3	0.2181162	-3.6063656	5.0566742	62.044387
265	1	2	-0.083169534	-1.5393106	5.8563095	61.732758
266	1	2	0.031441454	-1.6470962	6.0269787	60.268216
267	1	2	-0.46325728	-2.7012417	6.557614	59.628966
268	1	2	0.60329879	-3.8373713	7.2412838	60.290553
269	1	4	-0.56862646	-3.6473302	7.8615832	61.371172
270	1	2	-0.46325728	-5.184551	7.2890637	59.68664
271	1	2	0.031441454	-5.5639762	6.4998607	58.669749
272	1	2	-0.037234254	-6.9120338	6.5355034	58.050674
273	1	2	-0.28601619	-8.004382	6.9945606	58.696218
274	1	3	0.2181162	-7.9551961	7.3521855	59.715821
275	1	2	-0.039226975	-9.3235393	6.9870516	58.032057
276	1	3	0.22424185	-10.19139	7.3651879	58.556718
277	1	2	-0.45380484	-9.4486969	6.5104431	56.788806
278	1	3	0.23504181	-10.419642	6.5063718	56.309407
279	1	2	0.31619982	-8.2662197	5.9845612	56.072493
280	1	1	-0.84927183	-8.4078324	5.4681675	54.746827
281	1	5	0.37255914	-9.3409467	5.4595669	54.278624
282	1	5	0.37255914	-7.5853207	5.0916537	54.223822
283	1	2	-0.4086132	-7.0654543	5.994771	56.676189
284	1	3	0.23625239	-6.1968729	5.6106936	56.153801
285	1	3	0.21386398	-4.8520095	5.8086449	58.238262
286	1	3	0.17480686	-5.8807149	7.998158	60.113585
287	1	3	0.17480686	-2.6821502	6.5483107	58.546273
288	1	3	0.21386398	-0.81426186	5.6856793	59.665446
289	1	2	-0.34247117	-0.36730236	6.1015816	62.344185
290	1	3	0.22655533	0.48070864	6.4642252	61.775824
291	1	5	0.37701757	1.8289612	6.5513251	63.895005
292	2	2	0.53482617	3.1071786	-8.3177209	71.186464
293	2	4	-0.53022426	2.2053694	-9.0960598	70.918817
294	2	6	-0.24722119	4.1694008	-8.6952528	72.175754
295	2	6	-0.082534469	5.0151458	-9.8609775	71.653241
296	2	6	-0.10056023	6.1214994	-10.228993	72.65366
297	2	6	-0.20769105	6.9464047	-11.436492	72.189667
298	2	2	0.84665371	7.7760502	-11.11356	70.985423
299	2	4	-0.44467881	8.8519502	-10.470294	71.113754
300	2	8	-0.64173918	7.341862	-11.496069	69.720554
301	2	9	0.42672906	7.8845074	-11.273686	68.894757
302	2	7	0.14346234	6.2746387	-12.29383	71.964944
303	2	7	0.14346234	7.6215544	-11.749952	73.015083
304	2	7	0.11035641	5.6559625	-10.481542	73.630974
305	2	7	0.11035641	6.7928684	-9.3566216	72.813546
306	2	7	0.10089593	4.3622606	-10.74637	71.486814
307	2	7	0.10089593	5.4721284	-9.5709601	70.681583
308	2	7	0.13604569	4.8216465	-7.8133641	72.353464
309	2	7	0.13604569	3.6863566	-8.9742673	73.137476
310	4	1	-0.41415595	-1.7464156	-0.1678557	106.77248
311	4	2	0.11660046	-1.3360135	-0.41439958	105.42446
312	4	2	-0.41706672	-1.6713775	0.43956018	104.44451
313	4	3	0.23105604	-2.2546784	1.3262483	104.66035
314	4	2	-0.087845042	-1.2537627	0.1729549	103.05416
315	4	3	0.22424185	-1.5478362	0.85412305	102.26503
316	4	2	-0.28601619	-0.52819391	-0.91274501	102.76642
317	4	3	0.2181162	-0.25171271	-1.1107587	101.7384
318	4	2	-0.083169542	-0.12260474	-1.8508461	103.84669
319	4	2	0.031441454	0.6383315	-3.0823756	103.54184
320	4	2	-0.46325728	1.6923292	-3.1535047	102.71484
321	4	2	0.60329879	2.3907875	-1.9849376	102.12952
322	4	4	-0.56862646	2.4329082	-0.89976172	102.7697
323	4	2	-0.46325728	3.1131422	-2.0638743	100.84284
324	4	2	0.031441454	2.9614894	-3.0773177	99.975846
325	4	2	-0.089933134	3.6794087	-3.1739069	98.681187
326	4	2	-0.28601619	4.1775913	-2.0976843	98.035411
327	4	3	0.2181162	4.0657498	-1.0968888	98.427719
328	4	2	-0.10525995	4.8669613	-2.2579073	96.739113
329	4	3	0.22424185	5.2687911	-1.388871	96.234869
330	4	2	-0.39313173	4.9896865	-3.4691939	96.186627
331	4	3	0.22874127	5.494477	-3.5774205	95.234573
332	4	2	0.18354652	4.4328981	-4.6572173	96.869925
333	4	1	-0.49380296	4.5598632	-5.9486873	96.269411
334	4	5	0.31284378	4.1740602	-6.8008477	96.734319
335	4	2	-0.33811312	3.8094373	-4.5126598	98.049738
336	4	3	0.22640844	3.4003234	-5.3809263	98.554574
337	4	3	0.21386398	2.3045227	-3.8996978	100.22741
338	4	3	0.17480686	3.7808302	-1.2462305	100.61284
339	4	3	0.17480686	2.1057521	-4.1342849	102.51935
340	4	3	0.21386398	0.30973693	-3.9989144	104.01736
341	4	2	-0.34247117	-0.53797779	-1.6214375	105.10333
342	4	3	0.2265553	-0.28157147	-2.3118948	105.89886
343	4	5	0.37701757	-1.4862214	-0.83271977	107.53399
344	5	2	0.76191116	5.0540647	-6.0626731	95.333095
345	5	4	-0.6628887	5.102459	-7.1669382	94.814745
346	5	6	-0.18217329	5.6878711	-4.8877609	94.648274
347	5	6	-0.10999699	5.5106875	-3.6051158	95.468719
348	5	6	-0.083464384	6.1595826	-2.4070804	94.765468
349	5	6	-0.24722116	5.9826284	-1.1256851	95.585291
350	5	2	0.53482611	6.6158426	0.049552401	94.901208
351	5	4	-0.53022426	6.5680406	1.1534922	95.41882
352	5	7	0.13604569	4.8992399	-0.91767048	95.724633
353	5	7	0.13604569	6.4527724	-1.2534467	96.585025
354	5	7	0.10089593	5.6927041	-2.2709979	93.764686
355	5	7	0.10089593	7.2455172	-2.6065756	94.624412
356	5	7	0.10926209	4.4253452	-3.4059459	95.609037
357	5	7	0.10926209	5.9788777	-3.7417221	96.469429
358	5	7	0.1404046	5.2180899	-4.7590747	93.648424
359	5	7	0.1404046	6.7706674	-5.0954502	94.50967
360	1	1	-0.41415598	-2.3089827	0.67676407	107.01947
361	1	2	0.11660047	-3.5234371	0.98310518	106.32917
362	1	2	-0.41706672	-3.9658404	0.18563271	105.34355
363	1	3	0.23105604	-3.408933	-0.69841633	105.05787
364	1	2	-0.087845027	-5.2144995	0.51295198	104.62736
365	1	3	0.22424185	-5.5514108	-0.12086712	103.81842
366	1	2	-0.28601619	-5.9197226	1.5984353	104.96817
367	1	3	0.2181162	-6.8189824	1.8407801	104.41689
368	1	2	-0.083169534	-5.4599159	2.4719594	106.07936
369	1	2	0.031441454	-6.1981187	3.701427	106.43865
370	1	2	-0.46325728	-7.5317838	3.7932021	106.55845
371	1	2	0.60329879	-8.4646532	2.6418629	106.55039
372	1	4	-0.56862646	-8.0804136	1.5256878	106.99214
373	1	2	-0.46325728	-9.8685837	2.7717431	106.10994
374	1	2	0.031441454	-10.330606	3.829435	105.42533
375	1	2	-0.037234254	-11.737238	3.9766165	104.97643
376	1	2	-0.28601619	-12.562776	2.9253439	104.79205
377	1	3	0.2181162	-12.233228	1.907504	104.95113
378	1	2	-0.039226975	-13.948249	3.1355543	104.32555
379	1	3	0.22424185	-14.603964	2.2853943	104.18885
380	1	2	-0.45380484	-14.391665	4.3705466	104.06735
381	1	3	0.23504181	-15.408121	4.5163053	103.72363
382	1	2	0.31619982	-13.495177	5.533668	104.24445
383	1	1	-0.84927183	-13.972129	6.8507732	103.95834
384	1	5	0.37255914	-14.95039	6.9990975	103.62518
385	1	5	0.37255914	-13.354837	7.6855402	104.07639
386	1	2	-0.4086132	-12.235543	5.3420024	104.67221
387	1	3	0.23625239	-11.576268	6.1922581	104.80359
388	1	3	0.21386398	-9.6632249	4.6512088	105.2014
389	1	3	0.17480686	-10.530453	1.9529267	106.35735
390	1	3	0.17480686	-7.947384	4.7751219	106.74762
391	1	3	0.21386398	-5.6161041	4.5995416	106.60622
392	1	2	-0.34247117	-4.3017445	2.1887483	106.70067
393	1	3	0.22655533	-3.9329656	2.8324851	107.49015
394	1	5	0.37701757	-1.9653051	1.2971166	107.78554
395	2	2	0.53482617	7.1191504	-0.065923512	93.947092
396	2	4	-0.53022426	6.5104624	0.16057922	92.913215
397	2	6	-0.24722119	8.5481276	-0.51955224	93.904828
398	2	6	-0.082534469	9.4543894	0.57716158	93.336386
399	2	6	-0.10056023	10.922102	0.12346982	93.319843
400	2	6	-0.20769105	11.848404	1.1749547	92.695216
401	2	2	0.84665371	11.959629	2.3977501	93.552655
402	2	4	-0.44467881	12.706351	2.3915888	94.567637
403	2	8	-0.64173918	11.212797	3.5305178	93.246379
404	2	9	0.42672906	11.266417	4.3609805	93.823715
405	2	7	0.14346234	11.479411	1.4563321	91.684539
406	2	7	0.14346234	12.860716	0.73367453	92.569152
407	2	7	0.11035641	11.005177	-0.81067601	92.723086
408	2	7	0.11035641	11.259584	-0.10460798	94.354936
409	2	7	0.10089593	9.1344288	0.82078984	92.299011
410	2	7	0.10089593	9.353544	1.4915678	93.961491
411	2	7	0.13604569	8.8732725	-0.77237775	94.936862
412	2	7	0.13604569	8.6190798	-1.4362793	93.279794
413	4	1	-0.41415595	3.2095612	4.7308148	137.01079
414	4	2	0.11660046	2.4785949	3.8474814	136.15534
415	4	2	-0.41706672	2.5591607	2.5179389	136.32218
416	4	3	0.23105604	3.1760059	2.0961324	137.10616
417	4	2	-0.087845042	1.8107639	1.6122884	135.42873
418	4	3	0.22424185	1.8989168	0.54007921	135.55443
419	4	2	-0.28601619	1.0386658	2.1119756	134.45807
420	4	3	0.2181162	0.51660038	1.4360312	133.79247
421	4	2	-0.083169542	0.9150728	3.5834109	134.28164
422	4	2	0.031441454	0.10475649	4.1547779	133.18366
423	4	2	-0.46325728	-1.1210716	3.7383409	132.83177
424	4	2	0.60329879	-1.9450118	2.7796565	133.6051
425	4	4	-0.56862646	-1.8294072	2.729533	134.85943
426	4	2	-0.46325728	-2.9633491	1.9220504	132.96396
427	4	2	0.031441454	-3.0291428	1.7253042	131.63779
428	4	2	-0.089933134	-4.045125	0.86971352	130.97702
429	4	2	-0.28601619	-4.6898197	-0.13089938	131.61468
430	4	3	0.2181162	-4.4862689	-0.37068296	132.64864
431	4	2	-0.10525995	-5.678423	-0.95968368	130.8956
432	4	3	0.22424185	-6.1943111	-1.7536926	131.4194
433	4	2	-0.39313173	-5.9317734	-0.73560217	129.60211
434	4	3	0.22874127	-6.6563986	-1.3496813	129.08176
435	4	2	0.18354652	-5.2207875	0.34335517	128.88193
436	4	1	-0.49380296	-5.4899825	0.5720922	127.49634
437	4	5	0.31284378	-4.9993964	1.3282613	126.96843
438	4	2	-0.33811312	-4.3248562	1.0991781	129.53584
439	4	3	0.22640844	-3.8017661	1.8917274	129.01204
440	4	3	0.21386398	-2.328733	2.2341725	130.98843
441	4	3	0.17480686	-3.6687989	1.4355927	133.62195
442	4	3	0.17480686	-1.5681067	4.1915878	131.95668
443	4	3	0.21386398	0.54267021	4.9661746	132.61445
444	4	2	-0.34247117	1.6282571	4.4001992	135.07444
445	4	3	0.2265553	1.5781998	5.4747087	134.93927
446	4	5	0.37701757	3.1473579	5.7645794	136.88002
447	5	2	0.76191116	-6.2004397	-0.028256877	126.97794
448	5	4	-0.6628887	-6.3735305	0.15069703	125.78276
449	5	6	-0.18217329	-6.9863959	-1.0852506	127.69637
450	5	6	-0.10999699	-6.6140649	-1.1400412	129.18233
451	5	6	-0.083464384	-7.4192491	-2.2213356	129.91267
452	5	6	-0.24722116	-7.0472916	-2.2759147	131.39728
453	5	2	0.53482611	-7.8324921	-3.3326049	132.11629
454	5	4	-0.53022426	-7.660157	-3.5118624	133.31088
455	5	7	0.13604569	-5.9635519	-2.5011436	131.50309
456	5	7	0.13604569	-7.2549606	-1.2915134	131.87125
457	5	7	0.10089593	-7.2150197	-3.2103724	129.4456
458	5	7	0.10089593	-8.5058966	-2.0015438	129.81348
459	5	7	0.10926209	-5.528173	-1.3601367	129.28093
460	5	7	0.10926209	-6.8195818	-0.15050648	129.64909
461	5	7	0.1404046	-6.779109	-2.070167	127.22316
462	5	7	0.1404046	-8.0693799	-0.85971813	127.59113
463	1	1	-0.41415598	3.8141151	4.3613937	137.77819
464	1	2	0.11660047	4.8191873	3.3777825	137.51819
465	1	2	-0.41706672	5.0052882	2.9071521	136.2744
466	1	3	0.23105604	4.3967123	3.2649123	135.45285
467	1	2	-0.087845027	6.0370485	1.883947	136.01414
468	1	3	0.22424185	6.1643743	1.492066	135.01422
469	1	2	-0.28601619	6.8025766	1.4320217	137.01489
470	1	3	0.2181162	7.536826	0.66256506	136.81457
471	1	2	-0.083169534	6.6305618	1.9681354	138.39046
472	1	2	0.031441454	7.4323391	1.4471464	139.518
473	1	2	-0.46325728	8.7539467	1.2157492	139.48271
474	1	2	0.60329879	9.6580159	1.6309748	138.38446
475	1	4	-0.56862646	9.3973277	2.6715714	137.72278
476	1	2	-0.46325728	10.908883	0.90646417	138.08065
477	1	2	0.031441454	11.1849	-0.3175967	138.55642
478	1	2	-0.037234254	12.436258	-1.0588619	138.26246
479	1	2	-0.28601619	13.192476	-0.81890447	137.17102
480	1	3	0.2181162	12.914582	-0.073586387	136.4381
481	1	2	-0.039226975	14.418853	-1.6039258	136.92387
482	1	3	0.22424185	15.021954	-1.3972318	136.04925
483	1	2	-0.45380484	14.782094	-2.5706829	137.77354
484	1	3	0.23504181	15.68148	-3.1432817	137.58431
485	1	2	0.31619982	13.955114	-2.8616997	138.96489
486	1	1	-0.84927183	14.343775	-3.902364	139.86493
487	1	5	0.37255914	15.208766	-4.4596859	139.68837
488	1	5	0.37255914	13.773312	-4.1241103	140.71182
489	1	2	-0.4086132	12.841026	-2.1447172	139.19102
490	1	3	0.23625239	12.233159	-2.3550646	140.06342
491	1	3	0.21386398	10.481242	-0.80137309	139.22102
492	1	3	0.17480686	11.613007	1.4089949	137.43149
493	1	3	0.17480686	9.2015236	0.75626689	140.35519
494	1	3	0.21386398	6.9081928	1.2244736	140.43948
495	1	2	-0.34247117	5.6628897	2.8711312	138.62671
496	1	3	0.22655533	5.4998478	3.2484695	139.62906
497	1	5	0.37701757	3.6696406	4.7268714	138.74533
498	2	2	0.53482617	-8.5561773	-3.9447911	131.58856
499	2	4	-0.53022426	-8.2229288	-5.0391702	131.16196
500	2	6	-0.24722119	-9.9502181	-3.4358648	131.37134
501	2	6	-0.082534469	-10.971169	-4.2985659	132.12009
502	2	6	-0.10056023	-12.396369	-3.7604487	131.92128
503	2	6	-0.20769105	-13.45056	-4.6405976	132.60526
504	2	2	0.84665371	-13.348374	-4.5724735	134.09781
505	2	4	-0.44467881	-13.820469	-3.5827679	134.71865
506	2	8	-0.64173918	-12.702874	-5.5873939	134.79638
507	2	9	0.42672906	-12.613476	-5.5498127	135.80457
508	2	7	0.14346234	-13.343902	-5.695119	132.2685
509	2	7	0.14346234	-14.461692	-4.2942914	132.30017
510	2	7	0.11035641	-12.622811	-3.7295694	130.83343
511	2	7	0.11035641	-12.466555	-2.7211847	132.31158
512	2	7	0.10089593	-10.918553	-5.3443588	131.74402
513	2	7	0.10089593	-10.720451	-4.2994171	133.20369
514	2	7	0.13604569	-10.009161	-2.3884147	131.73755
515	2	7	0.13604569	-10.171951	-3.4399892	130.28189
516	4	1	-0.41415595	3.6098949	36.584641	4.2853854
517	4	2	0.11660046	3.0413322	35.763232	3.2614688
518	4	2	-0.41706672	1.7327399	35.464352	3.2777809
519	4	3	0.23105604	1.0899242	35.841425	4.0636854
520	4	2	-0.087845042	1.1552166	34.607186	2.2240797
521	4	3	0.22424185	0.1032933	34.351055	2.2566261
522	4	2	-0.28601619	1.9296178	34.135738	1.2412117
523	4	3	0.2181162	1.4989368	33.485782	0.48984499
524	4	2	-0.083169542	3.3744479	34.484531	1.1928852
525	4	2	0.031441454	4.257547	33.933669	0.14154636
526	4	2	-0.46325728	3.9541176	33.865331	-1.1635063
527	4	2	0.60329879	2.7775624	34.508	-1.7949215
528	4	4	-0.56862646	2.3207407	35.580046	-1.3140383
529	4	2	-0.46325728	2.1568821	33.975766	-3.0257949
530	4	2	0.031441454	2.4052196	32.745319	-3.5012676
531	4	2	-0.089933134	1.7929388	32.195409	-4.7356066
532	4	2	-0.28601619	0.62510815	32.647673	-5.2406763
533	4	3	0.2181162	0.063404168	33.434653	-4.7578122
534	4	2	-0.10525995	0.057861136	32.045591	-6.4642028
535	4	3	0.22424185	-0.87477475	32.421754	-6.8637591
536	4	2	-0.39313173	0.68892027	31.036508	-7.073328
537	4	3	0.22874127	0.26470204	30.599116	-7.9686829
538	4	2	0.18354652	1.9592238	30.514734	-6.5234281
539	4	1	-0.49380296	2.6245898	29.429529	-7.1747728
540	4	5	0.31284378	3.5223143	29.045459	-6.8036365
541	4	2	-0.33811312	2.4770267	31.063891	-5.4135333
542	4	3	0.22640844	3.4084352	30.685033	-5.0072512