Title

80 atoms
83 bonds
142 angles
195 dihedrals
78 impropers

9 atom types
13 bond types
6 angle types
9 dihedral types
2 improper types
-5.331999779 94.66800022 xlo xhi
-7.106999874 92.89300013 ylo yhi
-2.766000032 97.23399997 zlo zhi
0.0 0.0 0.0 xy xz yz

Masses

1	15.99943
2	12.01078
3	1.007947
4	12.01078
5	1.007947
6	15.99943
7	15.99943
8	1.007947
9	35.4532


Pair Coeffs

1	0.16846514	3.0251065
2	0.086879315	3.4806469
3	0.015611343	2.5725815
4	0.10884061	3.3795318
5	0.015779483	2.6445434
6	0.2102061	3.0398122
7	0.20947353	2.99716
8	1.2326e-05	0.53453923
9	0.2656001	3.3075278

Bond Coeffs

1 harmonic	425.69104206635	1.362945806494
2 harmonic	300.03137914615	1.451203938761
3 harmonic	360.7852444772	1.387193227181
4 harmonic	397.2545789619	1.085358495916
5 harmonic	289.73813263395	1.498646816465
6 harmonic	264.62148576755	1.52190126495
7 harmonic	301.15400723785	1.345741232799
8 harmonic	370.04670688625	1.093899492634
9 harmonic	582.698766451	1.225198386222
10 harmonic	279.1350963404	1.454628925034
11 harmonic	385.7604595587	1.369745182308
12 harmonic	543.5267831885	0.9716763312559
13 harmonic	218.0227703685	1.746066037062


Angle Coeffs

1 harmonic	57.8982893754	126.8062420451
2 harmonic	65.09061609600001	110.3538806181
3 harmonic	34.066775159195	129.1835929926
4 harmonic	53.20531626545	116.5475862634
5 harmonic	201.41175231035	127.4691416191
6 harmonic	48.776492647595	115.6030999533


Dihedral Coeffs

1 fourier 1	3.661930099076	2	180
2 fourier 1	1.532232714475	2	180
3 fourier 1	0.457973137376	1	0
4 fourier 1	0.02664938770063	3	0
5 fourier 1	0.1155372516788	3	0
6 fourier 1	2.779853741805	2	180
7 fourier 1	0.9974165607242	2	180
8 fourier 1	0.1040663847541	3	0
9 fourier 1	0.8283030590042	2	180


Improper Coeffs

1 0.3666666666666667	-1	2
2 3.5	-1	2


Atoms

1	1	1	0.001691	-4.1950002	-1.7130001	1.807
2	1	2	0.093266003	-3.204	-0.96399999	1.1720001
3	1	2	-0.248604	-2.1989999	-0.433	1.88
4	1	3	0.23158699	-2.1489999	-0.574	2.9519999
5	1	2	-0.148504	-1.143	0.347	1.209
6	1	3	0.216269	-0.35499999	0.76999998	1.8200001
7	1	2	-0.22761101	-1.148	0.52200001	-0.13
8	1	4	0.0076069999	-0.033	1.3559999	-0.79000002
9	1	2	-0.22761101	1.341	0.81999999	-0.34400001
10	1	2	-0.148837	2.3599999	1.622	0.034000002
11	1	3	0.216269	2.263	2.6960001	0.068999998
12	1	2	-0.216461	3.668	1.054	0.41499999
13	1	3	0.231405	4.4629998	1.722	0.72100002
14	1	2	0.313649	3.8729999	-0.27000001	0.377
15	1	1	-0.414285	5.1139998	-0.80199999	0.72899997
16	1	2	-0.09003	2.776	-1.1720001	-0.048999999
17	1	4	-0.13170099	3.016	-2.652	-0.15000001
18	1	5	0.099820003	2.062	-3.22	-0.12
19	1	5	0.099820003	3.642	-2.9979999	0.699
20	1	5	0.099820003	3.5409999	-2.8759999	-1.102
21	1	2	-0.26458699	1.592	-0.64999998	-0.41299999
22	1	3	0.216396	0.80199999	-1.304	-0.76200002
23	1	4	-0.12988301	-0.063000001	1.277	-2.3340001
24	1	5	0.089354999	-0.98299998	1.748	-2.744
25	1	5	0.089354999	-0.011	0.223	-2.681
26	1	5	0.089354999	0.80599999	1.8200001	-2.766
27	1	4	-0.12988301	-0.27500001	2.8340001	-0.39399999
28	1	5	0.089354999	0.39899999	3.5190001	-0.95200002
29	1	5	0.089354999	-0.116	2.987	0.69499999
30	1	5	0.089354999	-1.319	3.1329999	-0.63300002
31	1	2	-0.26672399	-2.2809999	-0.066	-0.90899998
32	1	3	0.216396	-2.329	0.055	-1.982
33	1	2	-0.078339003	-3.2609999	-0.75400001	-0.296
34	1	4	-0.134821	-4.3730001	-1.372	-1.096
35	1	5	0.099820003	-4.5079999	-0.85500002	-2.0710001
36	1	5	0.099820003	-4.1409998	-2.441	-1.284
37	1	5	0.099820003	-5.3319998	-1.301	-0.54100001
38	1	2	0.63039899	5.9120002	-0.193	1.033
39	1	6	-0.48059201	7.0430002	-0.64600003	1.076
40	1	1	0.001691	-4.1859999	-1.875	2.8069999
41	1	2	0.093266003	-3.1819999	-2.6240001	3.4219999
42	1	2	-0.248604	-2.191	-3.155	2.6949999
43	1	3	0.23158699	-2.1619999	-3.013	1.622
44	1	2	-0.148504	-1.123	-3.9349999	3.345
45	1	3	0.216269	-0.347	-4.3579998	2.7190001
46	1	2	-0.22761101	-1.101	-4.1100001	4.684
47	1	4	0.0076069999	0.027000001	-4.9439998	5.322
48	1	2	-0.22761101	1.391	-4.4070001	4.849
49	1	2	-0.109841	2.404	-5.21	4.4510002
50	1	3	0.216269	2.3050001	-6.2839999	4.4180002
51	1	2	-0.38143799	3.704	-4.6420002	4.0450001
52	1	3	0.237177	4.493	-5.3099999	3.723
53	1	2	0.29408401	3.9089999	-3.3180001	4.079
54	1	7	-0.63421601	5.1430001	-2.786	3.7030001
55	1	8	0.44102901	5.908	-3.375	3.3940001
56	1	2	-0.26265201	2.8210001	-2.415	4.526
57	1	4	-0.117643	3.063	-0.93599999	4.6220002
58	1	5	0.099820003	2.108	-0.36700001	4.6110001
59	1	5	0.099820003	3.6719999	-0.58999997	3.7609999
60	1	5	0.099820003	3.6059999	-0.71200001	5.5640001
61	1	2	-0.22712301	1.6440001	-2.938	4.9130001
62	1	3	0.216396	0.861	-2.2839999	5.277
63	1	4	-0.12988301	0.027000001	-4.8649998	6.8660002
64	1	5	0.089354999	-0.88499999	-5.336	7.2940001
65	1	5	0.089354999	0.086000003	-3.8110001	7.2119999
66	1	5	0.089354999	0.90399998	-5.408	7.2810001
67	1	4	-0.12988301	-0.223	-6.4219999	4.9299998
68	1	5	0.089354999	0.46200001	-7.1069999	5.4759998
69	1	5	0.089354999	-0.085000001	-6.5749998	3.8380001
70	1	5	0.089354999	-1.262	-6.7210002	5.1900001
71	1	2	-0.26672399	-2.2190001	-3.5220001	5.4850001
72	1	3	0.216396	-2.2449999	-3.642	6.5580001
73	1	2	-0.078339003	-3.21	-2.8329999	4.8909998
74	1	4	-0.134821	-4.3060002	-2.2149999	5.7129998
75	1	5	0.099820003	-4.4219999	-2.7320001	6.6900001
76	1	5	0.099820003	-4.0710001	-1.146	5.8969998
77	1	5	0.099820003	-5.276	-2.286	5.177
78	1	2	0.46953499	5.7309999	0.83999997	1.308
79	1	6	-0.550336	4.6170001	1.319	1.181
80	1	9	-0.072648004	7.0409999	1.823	1.937

Bonds

1	1	1	2
2	2	1	40
3	3	2	3
4	3	2	33
5	4	3	4
6	3	3	5
7	4	5	6
8	3	5	7
9	5	7	8
10	3	7	31
11	5	8	9
12	6	8	23
13	6	8	27
14	3	9	10
15	3	9	21
16	4	10	11
17	3	10	12
18	4	12	13
19	3	12	14
20	1	14	15
21	3	14	16
22	7	15	38
23	5	16	17
24	3	16	21
25	8	17	18
26	8	17	19
27	8	17	20
28	4	21	22
29	8	23	24
30	8	23	25
31	8	23	26
32	8	27	28
33	8	27	29
34	8	27	30
35	4	31	32
36	3	31	33
37	5	33	34
38	8	34	35
39	8	34	36
40	8	34	37
41	9	38	39
42	10	38	78
43	1	40	41
44	3	41	42
45	3	41	73
46	4	42	43
47	3	42	44
48	4	44	45
49	3	44	46
50	5	46	47
51	3	46	71
52	5	47	48
53	6	47	63
54	6	47	67
55	3	48	49
56	3	48	61
57	4	49	50
58	3	49	51
59	4	51	52
60	3	51	53
61	11	53	54
62	3	53	56
63	12	54	55
64	5	56	57
65	3	56	61
66	8	57	58
67	8	57	59
68	8	57	60
69	4	61	62
70	8	63	64
71	8	63	65
72	8	63	66
73	8	67	68
74	8	67	69
75	8	67	70
76	4	71	72
77	3	71	73
78	5	73	74
79	8	74	75
80	8	74	76
81	8	74	77
82	9	78	79
83	13	78	80

Angles

1	4	8	23	26
2	4	7	8	9
3	1	41	42	44
4	2	1	40	41
5	1	17	16	21
6	6	24	23	25
7	6	75	74	76
8	4	23	8	27
9	1	9	21	16
10	4	47	63	66
11	1	48	61	56
12	1	14	16	21
13	1	40	41	73
14	6	64	63	66
15	4	63	47	67
16	4	16	17	19
17	1	8	9	21
18	1	1	2	3
19	1	15	14	16
20	4	56	57	58
21	4	7	8	23
22	1	14	16	17
23	6	24	23	26
24	6	75	74	77
25	4	8	27	28
26	3	50	49	51
27	2	53	54	55
28	4	48	47	63
29	4	47	67	68
30	1	9	10	12
31	3	3	5	6
32	1	41	73	74
33	1	40	41	42
34	1	39	38	78
35	4	33	34	35
36	1	46	71	73
37	3	45	44	46
38	4	8	27	29
39	1	44	46	71
40	6	65	63	66
41	1	51	53	54
42	6	18	17	19
43	6	76	74	77
44	1	5	7	31
45	4	47	63	64
46	4	7	8	27
47	3	52	51	53
48	2	2	1	40
49	1	44	46	47
50	3	16	21	22
51	4	33	34	36
52	1	42	41	73
53	4	9	8	23
54	4	48	47	67
55	1	38	78	79
56	1	41	73	71
57	5	15	38	39
58	1	12	14	15
59	1	15	38	78
60	1	31	33	34
61	4	73	74	75
62	1	8	9	10
63	1	49	48	61
64	4	16	17	20
65	3	41	42	43
66	3	9	21	22
67	4	56	57	59
68	3	42	44	45
69	3	10	12	13
70	6	58	57	59
71	6	28	27	29
72	6	25	23	26
73	3	32	31	33
74	6	35	34	36
75	4	8	23	24
76	4	47	67	69
77	1	53	56	61
78	3	4	3	5
79	1	3	2	33
80	1	3	5	7
81	4	9	8	27
82	1	71	73	74
83	4	56	57	60
84	3	6	5	7
85	1	10	12	14
86	1	53	56	57
87	1	2	33	34
88	6	35	34	37
89	4	8	27	30
90	3	49	51	52
91	4	8	23	25
92	4	47	67	70
93	3	2	3	4
94	3	48	49	50
95	1	5	7	8
96	1	1	2	33
97	6	18	17	20
98	4	47	63	65
99	3	13	12	14
100	6	64	63	65
101	4	33	34	37
102	4	16	17	18
103	1	54	53	56
104	1	8	7	31
105	3	56	61	62
106	1	10	9	21
107	1	49	51	53
108	1	47	48	49
109	1	38	78	80
110	6	68	67	69
111	6	69	67	70
112	1	47	46	71
113	3	48	61	62
114	1	12	14	16
115	1	2	3	5
116	1	48	49	51
117	1	2	33	31
118	1	79	78	80
119	1	51	53	56
120	4	73	74	76
121	4	46	47	67
122	3	72	71	73
123	1	57	56	61
124	3	9	10	11
125	1	47	48	61
126	6	68	67	70
127	1	42	44	46
128	6	59	57	60
129	6	58	57	60
130	4	46	47	63
131	6	28	27	30
132	3	7	31	32
133	3	46	71	72
134	6	19	17	20
135	4	73	74	77
136	3	43	42	44
137	4	46	47	48
138	6	36	34	37
139	3	11	10	12
140	2	14	15	38
141	1	7	31	33
142	6	29	27	30

Dihedrals

1	1	13	12	14	16
2	4	46	47	48	61
3	2	3	2	1	40
4	1	11	10	12	13
5	1	52	51	53	54
6	1	10	12	14	15
7	4	2	33	34	36
8	5	7	8	23	25
9	8	63	47	67	68
10	1	5	7	31	32
11	4	53	56	57	58
12	1	45	44	46	71
13	1	2	33	31	7
14	1	57	56	61	62
15	1	32	31	33	34
16	8	25	23	8	27
17	5	46	47	63	65
18	1	9	10	12	13
19	1	48	49	51	53
20	9	55	54	53	56
21	1	11	10	12	14
22	1	17	16	21	22
23	1	10	12	14	16
24	5	48	47	67	68
25	1	1	2	3	4
26	1	45	44	46	47
27	5	9	8	27	29
28	4	53	56	57	59
29	1	2	33	31	32
30	7	39	38	78	80
31	1	41	73	71	46
32	8	23	8	27	28
33	1	44	42	41	73
34	5	46	47	63	66
35	1	5	3	2	33
36	2	16	14	15	38
37	1	8	7	31	33
38	5	7	8	27	28
39	1	49	48	61	56
40	1	10	9	21	16
41	4	23	8	7	31
42	8	66	63	47	67
43	1	40	41	42	44
44	5	48	47	67	69
45	4	20	17	16	21
46	1	50	49	48	61
47	1	1	2	3	5
48	4	31	33	34	36
49	8	64	63	47	67
50	1	1	2	33	31
51	5	9	8	27	30
52	5	48	47	63	64
53	4	49	48	47	63
54	1	6	5	7	31
55	1	44	46	71	72
56	8	23	8	27	29
57	4	5	7	8	27
58	4	10	9	8	23
59	4	41	73	74	75
60	4	58	57	56	61
61	5	9	8	23	25
62	1	3	5	7	31
63	4	63	47	46	71
64	2	12	14	15	38
65	1	42	41	73	74
66	5	46	47	67	68
67	4	31	33	34	37
68	1	46	71	73	74
69	4	5	7	8	23
70	4	14	16	17	18
71	1	41	42	44	45
72	4	60	57	56	61
73	1	8	9	21	22
74	4	9	8	7	31
75	1	49	51	53	56
76	1	40	41	73	71
77	4	2	33	34	37
78	5	7	8	23	26
79	8	63	47	67	69
80	4	7	8	9	21
81	1	5	7	31	33
82	1	43	42	41	73
83	1	50	49	51	52
84	1	8	9	10	11
85	4	19	17	16	21
86	4	48	47	46	71
87	1	47	48	61	62
88	4	18	17	16	21
89	1	48	61	56	57
90	3	2	1	40	41
91	1	9	10	12	14
92	4	14	16	17	19
93	1	54	53	56	61
94	1	52	51	53	56
95	2	33	2	1	40
96	4	7	8	9	10
97	4	49	48	47	67
98	8	63	47	67	70
99	4	71	73	74	75
100	4	10	9	8	27
101	4	44	46	47	67
102	1	42	41	73	71
103	8	24	23	8	27
104	1	48	61	56	53
105	1	54	53	56	57
106	1	2	3	5	6
107	1	50	49	51	53
108	4	53	56	57	60
109	1	8	9	10	12
110	1	43	42	44	45
111	2	1	40	41	73
112	4	44	46	47	63
113	5	7	8	27	29
114	1	12	10	9	21
115	1	41	73	71	72
116	1	47	46	71	72
117	1	51	49	48	61
118	4	61	48	47	67
119	5	48	47	67	70
120	4	21	9	8	23
121	1	4	3	2	33
122	1	10	9	21	22
123	1	2	3	5	7
124	4	61	48	47	63
125	1	47	48	49	50
126	5	48	47	63	65
127	1	44	46	71	73
128	8	23	8	27	30
129	4	67	47	46	71
130	4	41	73	74	76
131	9	51	53	54	55
132	5	7	8	27	30
133	1	53	56	61	62
134	1	40	41	42	43
135	2	1	40	41	42
136	5	9	8	23	26
137	1	9	21	16	17
138	7	15	38	78	79
139	5	46	47	67	69
140	1	4	3	5	6
141	1	41	42	44	46
142	5	46	47	63	64
143	1	48	49	51	52
144	1	3	2	33	34
145	1	12	14	16	17
146	1	47	48	49	51
147	5	48	47	63	66
148	1	11	10	9	21
149	4	59	57	56	61
150	1	47	48	61	56
151	4	41	73	74	77
152	1	51	53	56	61
153	5	9	8	27	28
154	4	21	9	8	27
155	1	42	44	46	47
156	7	15	38	78	80
157	7	39	38	78	79
158	5	46	47	67	70
159	1	4	3	5	7
160	1	7	31	33	34
161	1	1	2	33	34
162	2	14	15	38	39
163	4	14	16	17	20
164	1	8	7	31	32
165	6	14	15	38	78
166	1	15	14	16	21
167	1	51	53	56	57
168	1	9	21	16	14
169	4	71	73	74	76
170	1	49	48	61	62
171	4	31	33	34	35
172	1	15	14	16	17
173	1	3	2	33	31
174	1	13	12	14	15
175	4	44	46	47	48
176	1	49	51	53	54
177	1	43	42	44	46
178	1	6	5	7	8
179	4	2	33	34	35
180	5	7	8	23	24
181	4	46	47	48	49
182	8	26	23	8	27
183	1	47	46	71	73
184	1	12	14	16	21
185	1	3	5	7	8
186	1	40	41	73	74
187	5	9	8	23	24
188	1	8	9	21	16
189	4	27	8	7	31
190	8	65	63	47	67
191	4	5	7	8	9
192	1	72	71	73	74
193	4	71	73	74	77
194	1	14	16	21	22
195	1	42	44	46	71

Impropers

8	1	7	8	31	5
24	1	16	17	21	14
40	1	7	31	5	8
41	1	48	47	49	61
46	1	14	16	12	15
48	1	46	44	47	71
56	1	61	56	62	48
58	1	9	10	21	8
62	1	10	9	11	12
63	2	38	39	78	15
67	1	14	15	16	12
73	1	33	2	31	34
81	1	46	47	71	44
89	1	78	79	80	38
93	1	2	3	33	1
98	1	49	51	48	50
103	1	16	14	17	21
105	1	53	56	51	54
106	1	48	49	61	47
107	1	71	73	46	72
112	1	78	80	38	79
126	1	53	54	56	51
127	1	16	21	14	17
160	1	42	44	41	43
161	1	41	73	40	42
162	1	41	40	42	73
166	1	46	71	44	47
174	1	51	53	49	52
177	1	12	13	14	10
183	1	33	31	34	2
184	1	21	9	16	22
191	1	73	71	74	41
197	1	73	74	41	71
203	2	38	15	39	78
208	1	44	46	42	45
217	1	73	41	71	74
220	1	48	61	47	49
226	1	78	38	79	80
227	2	38	78	15	39
232	1	7	5	8	31
234	1	51	49	52	53
238	1	56	61	53	57
240	1	5	3	6	7
243	1	9	21	8	10
247	1	31	7	32	33
248	1	49	50	51	48
261	1	56	53	57	61
263	1	41	42	73	40
272	1	3	2	4	5
273	1	61	48	56	62
274	1	31	32	33	7
278	1	9	8	10	21
289	1	14	12	15	16
296	1	10	12	9	11
298	1	3	5	2	4
300	1	33	34	2	31
303	1	53	51	54	56
314	1	21	22	9	16
316	1	2	33	1	3
322	1	61	62	48	56
328	1	10	11	12	9
331	1	44	42	45	46
338	1	3	4	5	2
340	1	2	1	3	33
343	1	49	48	50	51
344	1	12	14	10	13
345	1	12	10	13	14
348	1	42	43	44	41
349	1	5	6	7	3
357	1	31	33	7	32
370	1	44	45	46	42
371	1	51	52	53	49
373	1	21	16	22	9
378	1	71	46	72	73
382	1	56	57	61	53
384	1	5	7	3	6
387	1	71	72	73	46
396	1	42	41	43	44
