Title

81 atoms
80 bonds
149 angles
255 dihedrals
12 impropers

8 atom types
11 bond types
5 angle types
27 dihedral types
2 improper types
-3.872999907 96.12700009 xlo xhi
-1.873000026 98.12699997 ylo yhi
-9.625 90.375 zlo zhi
0.0 0.0 0.0 xy xz yz

Masses

1	15.99943
2	12.01078
3	1.007947
4	1.007947
5	12.01078
6	15.99943
7	15.99943
8	1.007947


Pair Coeffs

1	0.16846514	3.0251065
2	0.10884061	3.3795318
3	0.016409246	2.5832257
4	0.015779483	2.6445434
5	0.086879315	3.4806469
6	0.2102061	3.0398122
7	0.20947353	2.99716
8	1.2326e-05	0.53453923

Bond Coeffs

1 harmonic	366.7408841747	1.425895053732
2 harmonic	300.03137914615	1.451203938761
3 harmonic	264.62148576755	1.52190126495
4 harmonic	370.04670688625	1.093899492634
5 harmonic	301.15400723785	1.345741232799
6 harmonic	582.698766451	1.225198386222
7 harmonic	329.44145381095	1.523435958334
8 harmonic	279.1350963404	1.454628925034
9 harmonic	329.96998057905	1.427343958716
10 harmonic	543.5267831885	0.9716763312559
11 harmonic	385.7604595587	1.369745182308


Angle Coeffs

1 harmonic	53.20531626545	116.5475862634
2 harmonic	65.09061609600001	110.3538806181
3 harmonic	201.41175231035	127.4691416191
4 harmonic	57.8982893754	126.8062420451
5 harmonic	48.776492647595	115.6030999533


Dihedral Coeffs

1 fourier 1	0.1155372516788	3	0
2 fourier 1	0.1115525666802	3	0
3 fourier 1	0.3432490222662	1	0
4 fourier 1	0.0473758381877	3	0
5 fourier 1	0.457973137376	1	0
6 fourier 1	0.09223874044423	3	0
7 fourier 1	0.3159935921949	2	180
8 fourier 1	0.3247796806857	1	180
9 fourier 1	0.1040663847541	3	0
10 fourier 1	0.1918272375143	3	0
11 fourier 1	0.9202179876409	1	180
12 fourier 1	1.163809172478	2	180
13 fourier 1	0.1679186987369	1	180
14 fourier 1	2.779853741805	2	180
15 fourier 1	0.02664938770063	3	0
16 fourier 1	0.1911926717192	3	0
17 fourier 1	-0.3703352413219	2	0
18 fourier 1	0.4541676554336	1	0
19 fourier 1	0.1489710476446	2	0
20 fourier 1	0.02960027280666	3	180
21 fourier 1	0.9974165607242	2	180
22 fourier 1	0.3445382149273	3	0
23 fourier 1	0.1364556373303	1	0
24 fourier 1	0.3026390167484	3	0
25 fourier 1	2.687457892086	2	180
26 fourier 1	2.772607909663	2	180
27 fourier 1	0.09692684957115	1	0


Improper Coeffs

1 3.5	-1	2
2 0.3666666666666667	-1	2


Atoms

1	1	1	-0.17965899	-2.5580001	0.57200003	0.94400001
2	1	2	0.031771999	-1.365	0.62599999	0.20999999
3	1	2	-0.146448	-0.671	-0.741	0.23
4	1	2	-0.13906901	0.55199999	-0.81	-0.69999999
5	1	2	0.134051	1.743	0.017999999	-0.205
6	1	1	-0.49490201	1.545	1.374	-0.49000001
7	1	3	0.078432001	2.661	-0.33199999	-0.72899997
8	1	3	0.078432001	1.8890001	-0.13	0.889
9	1	4	0.087076999	0.87400001	-1.873	-0.75599998
10	1	4	0.087076999	0.27200001	-0.498	-1.73
11	1	4	0.088049002	-1.399	-1.512	-0.104
12	1	4	0.088049002	-0.37400001	-0.99400002	1.272
13	1	3	0.078036003	-1.572	0.94300002	-0.838
14	1	3	0.078036003	-0.708	1.386	0.68000001
15	1	5	0.76130998	2.375	1.872	-0.113
16	1	6	-0.55698401	3.1070001	1.308	0.685
17	1	2	-0.208858	2.6600001	3.2820001	-0.54100001
18	1	2	-0.115744	3.9879999	3.402	-1.306
19	1	2	-0.136416	4.039	2.5829999	-2.609
20	1	2	-0.14165699	3.049	3.0940001	-3.6700001
21	1	2	-0.139073	3.2939999	2.4749999	-5.0549998
22	1	2	-0.097411998	2.934	0.98000002	-5.105
23	1	2	-0.25788599	3.0940001	0.396	-6.5159998
24	1	5	0.51667202	2.072	0.94	-7.4710002
25	1	6	-0.690238	0.88499999	0.70899999	-7.3070002
26	1	4	0.113196	2.9820001	-0.70899999	-6.4679999
27	1	4	0.113196	4.1129999	0.61500001	-6.9000001
28	1	4	0.076421	3.6110001	0.417	-4.428
29	1	4	0.076421	1.892	0.82499999	-4.7509999
30	1	4	0.078114003	4.3569999	2.619	-5.3499999
31	1	4	0.078114003	2.6659999	3.026	-5.7880001
32	1	4	0.079986997	2.0050001	2.8800001	-3.3540001
33	1	4	0.079986997	3.155	4.197	-3.7639999
34	1	4	0.078114003	5.073	2.655	-3.0139999
35	1	4	0.078114003	3.8429999	1.5140001	-2.3840001
36	1	4	0.085202001	4.8169999	3.0680001	-0.64399999
37	1	4	0.085202001	4.1729999	4.474	-1.539
38	1	4	0.116389	1.822	3.658	-1.165
39	1	4	0.116389	2.707	3.925	0.36399999
40	1	1	-0.17965899	-3.2279999	0.123	0.366
41	1	2	0.031883001	-2.677	0.068999998	-0.92199999
42	1	2	-0.140715	-2.8	1.436	-1.605
43	1	2	-0.16776399	-2.059	1.506	-2.9519999
44	1	2	0.085180998	-2.724	0.67699999	-4.0580001
45	1	7	-0.68504399	-2.4130001	-0.67900002	-3.904
46	1	8	0.37734699	-2.885	-1.155	-4.6350002
47	1	3	0.068282001	-2.3399999	1.027	-5.0419998
48	1	3	0.068282001	-3.8269999	0.82599998	-4.0409999
49	1	4	0.090512	-2.0510001	2.5680001	-3.2780001
50	1	4	0.090512	-1	1.193	-2.826
51	1	4	0.088216998	-2.3610001	2.207	-0.93400002
52	1	4	0.088216998	-3.8729999	1.689	-1.747
53	1	3	0.078036003	-1.6109999	-0.248	-0.87199998
54	1	3	0.078036003	-3.2390001	-0.69099998	-1.503
55	1	5	0.51667202	2.3900001	1.535	-8.323
56	1	6	-0.690238	1.545	2.03	-9.052
57	1	2	-0.25788599	3.846	1.751	-8.6110001
58	1	2	-0.097411998	4.7280002	1.046	-7.5749998
59	1	2	-0.139073	6.217	1.286	-7.8660002
60	1	2	-0.14165699	7.1469998	0.45100001	-6.967
61	1	2	-0.136416	7.0240002	0.73699999	-5.4590001
62	1	2	-0.11321	7.3769999	2.1860001	-5.0929999
63	1	2	-0.218954	7.4190001	2.3729999	-3.5739999
64	1	5	0.823403	7.7399998	3.793	-3.23
65	1	6	-0.558541	8.9390001	4.1529999	-3.0829999
66	1	7	-0.66591603	6.7150002	4.7270002	-3.115
67	1	8	0.39353099	6.9159999	5.6960001	-2.8989999
68	1	4	0.11741	8.1879997	1.704	-3.1300001
69	1	4	0.11741	6.4330001	2.108	-3.1340001
70	1	4	0.085202001	6.612	2.8729999	-5.5149999
71	1	4	0.085202001	8.3690004	2.447	-5.5229998
72	1	4	0.078114003	7.724	0.052999999	-4.9299998
73	1	4	0.078114003	6.0009999	0.49200001	-5.1030002
74	1	4	0.079986997	8.198	0.63200003	-7.2810001
75	1	4	0.079986997	6.9400001	-0.62800002	-7.1399999
76	1	4	0.078114003	6.4549999	2.3659999	-7.7680001
77	1	4	0.078114003	6.427	1.002	-8.9200001
78	1	4	0.076421	4.5180001	-0.046	-7.5949998
79	1	4	0.076421	4.4780002	1.441	-6.5669999
80	1	4	0.113196	4.0560002	2.8429999	-8.5979996
81	1	4	0.113196	4.073	1.357	-9.625

Bonds

1	1	1	2
2	2	1	40
3	3	2	3
4	4	2	13
5	4	2	14
6	3	3	4
7	4	3	11
8	4	3	12
9	3	4	5
10	4	4	9
11	4	4	10
12	1	5	6
13	4	5	7
14	4	5	8
15	5	6	15
16	6	15	16
17	7	15	17
18	3	17	18
19	4	17	38
20	4	17	39
21	3	18	19
22	4	18	36
23	4	18	37
24	3	19	20
25	4	19	34
26	4	19	35
27	3	20	21
28	4	20	32
29	4	20	33
30	3	21	22
31	4	21	30
32	4	21	31
33	3	22	23
34	4	22	28
35	4	22	29
36	7	23	24
37	4	23	26
38	4	23	27
39	6	24	25
40	8	24	55
41	1	40	41
42	3	41	42
43	4	41	53
44	4	41	54
45	3	42	43
46	4	42	51
47	4	42	52
48	3	43	44
49	4	43	49
50	4	43	50
51	9	44	45
52	4	44	47
53	4	44	48
54	10	45	46
55	6	55	56
56	7	55	57
57	3	57	58
58	4	57	80
59	4	57	81
60	3	58	59
61	4	58	78
62	4	58	79
63	3	59	60
64	4	59	76
65	4	59	77
66	3	60	61
67	4	60	74
68	4	60	75
69	3	61	62
70	4	61	72
71	4	61	73
72	3	62	63
73	4	62	70
74	4	62	71
75	7	63	64
76	4	63	68
77	4	63	69
78	6	64	65
79	11	64	66
80	10	66	67

Angles

1	1	61	60	74
2	1	63	62	70
3	1	3	4	5
4	1	3	2	14
5	1	62	61	72
6	5	32	20	33
7	1	22	23	24
8	5	74	60	75
9	1	64	63	69
10	2	44	45	46
11	4	23	24	55
12	1	42	43	50
13	1	59	60	75
14	1	62	63	68
15	1	61	60	75
16	2	5	6	15
17	1	18	17	38
18	1	55	57	80
19	1	57	58	78
20	1	58	59	77
21	1	43	42	51
22	1	3	4	10
23	1	3	4	9
24	5	38	17	39
25	1	43	44	45
26	1	22	21	31
27	1	62	63	64
28	1	18	19	34
29	1	1	2	3
30	5	47	44	48
31	1	20	21	30
32	5	53	41	54
33	1	21	20	33
34	1	24	23	26
35	1	60	61	73
36	1	17	18	36
37	1	19	20	32
38	1	44	43	49
39	1	55	57	81
40	1	57	58	79
41	1	21	22	29
42	1	43	42	52
43	4	56	55	57
44	1	23	22	29
45	1	57	58	59
46	1	58	57	80
47	1	20	21	22
48	1	40	41	53
49	1	6	5	7
50	1	42	41	54
51	5	7	5	8
52	5	76	59	77
53	1	44	43	50
54	1	2	3	11
55	4	24	55	56
56	5	11	3	12
57	1	60	59	76
58	1	18	19	20
59	1	41	42	51
60	1	15	17	18
61	1	58	57	81
62	1	5	4	10
63	1	5	4	9
64	1	63	62	71
65	1	20	19	34
66	3	6	15	16
67	1	40	41	54
68	4	63	64	65
69	1	6	5	8
70	1	55	57	58
71	1	62	61	73
72	1	60	59	77
73	1	4	5	6
74	5	26	23	27
75	1	41	42	43
76	1	62	63	69
77	1	60	61	62
78	1	18	17	39
79	1	19	20	21
80	1	61	62	70
81	4	23	24	25
82	4	6	15	17
83	1	18	19	35
84	2	2	1	40
85	1	20	21	31
86	1	59	60	61
87	1	22	23	26
88	1	2	3	4
89	1	21	22	23
90	1	24	23	27
91	2	1	40	41
92	1	17	18	37
93	1	19	20	33
94	1	40	41	42
95	1	15	17	38
96	1	43	44	47
97	5	49	43	50
98	5	78	58	79
99	5	36	18	37
100	1	22	23	27
101	3	65	64	66
102	1	42	43	44
103	1	2	3	12
104	4	24	55	57
105	4	25	24	55
106	1	64	63	68
107	1	41	42	52
108	1	58	59	60
109	1	61	62	63
110	5	70	62	71
111	1	59	60	74
112	1	59	58	78
113	1	58	59	76
114	1	20	19	35
115	1	19	18	36
116	4	63	64	66
117	1	1	2	13
118	1	45	44	47
119	1	22	21	30
120	5	34	19	35
121	1	17	18	19
122	5	30	21	31
123	1	4	5	7
124	1	21	20	32
125	1	60	61	72
126	2	64	66	67
127	1	59	58	79
128	5	13	2	14
129	4	16	15	17
130	1	19	18	37
131	1	21	22	28
132	1	61	62	71
133	5	9	4	10
134	5	68	63	69
135	5	80	57	81
136	1	23	22	28
137	1	1	2	14
138	1	45	44	48
139	1	4	3	11
140	1	4	5	8
141	1	3	2	13
142	5	51	42	52
143	1	42	41	53
144	1	15	17	39
145	5	28	22	29
146	5	72	61	73
147	1	43	44	48
148	1	42	43	49
149	1	4	3	12

Dihedrals

1	9	19	20	21	30
2	1	55	57	58	79
3	4	13	2	1	40
4	16	47	44	43	49
5	18	65	64	63	68
5	19	65	64	63	68
5	20	65	64	63	68
6	16	70	62	61	72
7	1	55	57	58	59
8	14	5	6	15	17
9	9	5	4	3	12
10	10	4	5	6	15
10	11	4	5	6	15
11	16	34	19	18	37
12	25	63	64	66	67
13	16	8	5	4	10
14	16	8	5	4	9
15	9	21	22	23	26
16	4	1	40	41	53
17	9	18	19	20	33
18	9	63	62	61	73
19	16	28	22	21	30
20	16	48	44	43	50
21	18	16	15	17	39
21	19	16	15	17	39
21	20	16	15	17	39
22	6	57	58	59	60
22	7	57	58	59	60
22	8	57	58	59	60
23	9	19	18	17	38
24	9	19	20	21	31
25	1	40	41	42	43
26	4	8	5	6	15
27	9	60	59	58	79
28	16	47	44	43	50
29	9	57	58	59	76
30	9	61	60	59	77
31	26	65	64	66	67
31	27	65	64	66	67
32	16	49	43	42	51
33	17	56	55	57	58
34	16	31	21	20	32
35	2	1	2	3	11
35	3	1	2	3	11
36	9	59	58	57	81
37	16	78	58	57	80
38	16	77	59	58	78
39	16	9	4	3	12
40	4	1	40	41	54
41	9	21	20	19	34
42	2	45	44	43	50
42	3	45	44	43	50
43	16	36	18	17	38
44	16	71	62	61	72
45	16	73	61	60	74
46	21	25	24	55	57
47	9	57	58	59	77
48	16	72	61	60	74
49	9	4	3	2	14
50	16	76	59	58	78
51	9	42	43	44	48
52	16	49	43	42	52
53	16	10	4	3	11
54	16	74	60	59	76
55	16	31	21	20	33
56	16	11	3	2	14
57	15	6	15	17	38
58	2	40	41	42	51
58	3	40	41	42	51
59	2	1	2	3	12
59	3	1	2	3	12
60	9	20	21	22	29
61	6	59	60	61	62
61	7	59	60	61	62
61	8	59	60	61	62
62	16	78	58	57	81
63	9	2	3	4	10
64	16	79	58	57	80
65	9	2	3	4	9
66	16	33	20	19	34
67	16	27	23	22	29
68	9	17	18	19	34
69	9	21	20	19	35
70	18	25	24	23	27
70	19	25	24	23	27
70	20	25	24	23	27
71	6	41	42	43	44
71	7	41	42	43	44
71	8	41	42	43	44
72	16	73	61	60	75
73	16	36	18	17	39
74	16	71	62	61	73
75	15	24	55	57	58
76	9	62	61	60	74
77	16	76	59	58	79
78	16	74	60	59	77
79	16	51	42	41	53
80	16	10	4	3	12
81	2	40	41	42	52
81	3	40	41	42	52
82	16	32	20	19	34
83	4	1	40	41	42
84	15	6	15	17	39
85	16	7	5	4	10
86	6	58	59	60	61
86	7	58	59	60	61
86	8	58	59	60	61
87	16	7	5	4	9
88	17	62	63	64	65
89	1	1	2	3	4
90	18	65	64	63	69
90	19	65	64	63	69
90	20	65	64	63	69
91	16	70	62	61	73
92	16	33	20	19	35
93	9	17	18	19	35
94	1	3	4	5	6
95	1	42	43	44	45
96	1	64	63	62	70
97	16	37	18	17	38
98	16	29	22	21	30
99	21	23	24	55	56
100	9	44	43	42	51
101	9	62	61	60	75
102	9	21	22	23	27
103	16	28	22	21	31
104	16	32	20	19	35
105	9	19	18	17	39
106	15	62	63	64	66
107	6	17	18	19	20
107	7	17	18	19	20
107	8	17	18	19	20
108	16	68	63	62	70
109	17	16	15	17	18
110	9	23	22	21	30
111	16	77	59	58	79
112	16	75	60	59	76
113	9	43	42	41	53
114	15	22	23	24	55
115	9	58	59	60	74
116	16	30	21	20	32
117	1	15	17	18	36
118	1	61	62	63	64
119	16	69	63	62	70
120	6	20	21	22	23
120	7	20	21	22	23
120	8	20	21	22	23
121	18	56	55	57	80
121	19	56	55	57	80
121	20	56	55	57	80
122	16	26	23	22	28
123	16	68	63	62	71
124	16	72	61	60	75
125	9	41	42	43	49
126	1	21	22	23	24
127	9	59	60	61	72
128	1	55	57	58	78
129	16	75	60	59	77
130	16	79	58	57	81
131	1	15	17	18	37
132	6	60	61	62	63
132	7	60	61	62	63
132	8	60	61	62	63
133	16	35	19	18	36
134	22	43	44	45	46
134	23	43	44	45	46
135	16	69	63	62	71
136	16	34	19	18	36
137	9	41	42	43	50
138	9	18	19	20	32
139	16	51	42	41	54
140	9	63	62	61	72
141	16	48	44	43	49
142	18	16	15	17	38
142	19	16	15	17	38
142	20	16	15	17	38
143	16	52	42	41	53
144	16	50	43	42	51
145	9	60	59	58	78
146	9	61	60	59	76
147	15	24	55	57	80
148	15	6	15	17	18
149	2	6	5	4	10
149	3	6	5	4	10
150	2	6	5	4	9
150	3	6	5	4	9
151	9	3	4	5	7
152	16	35	19	18	37
153	24	46	45	44	47
154	9	60	61	62	70
155	1	64	63	62	71
156	1	24	23	22	28
157	16	37	18	17	39
158	9	61	62	63	68
159	9	20	19	18	36
160	21	23	24	55	57
161	16	29	22	21	31
162	9	44	43	42	52
163	9	59	58	57	80
164	15	26	23	24	55
165	16	9	4	3	11
166	9	22	21	20	32
167	16	52	42	41	54
168	2	45	44	43	49
168	3	45	44	43	49
169	16	50	43	42	52
170	4	7	5	6	15
171	6	19	20	21	22
171	7	19	20	21	22
171	8	19	20	21	22
172	21	25	24	55	56
173	16	12	3	2	13
174	15	24	55	57	81
175	9	23	22	21	31
176	9	4	3	2	13
177	9	3	4	5	8
178	9	42	43	44	47
179	24	46	45	44	48
180	9	60	61	62	71
181	4	3	2	1	40
182	16	11	3	2	13
183	1	24	23	22	29
184	9	61	62	63	69
185	9	20	21	22	28
186	9	20	19	18	37
187	15	66	64	63	68
188	1	15	17	18	19
189	9	43	42	41	54
190	5	2	1	40	41
191	6	2	3	4	5
191	7	2	3	4	5
191	8	2	3	4	5
192	9	58	59	60	75
193	15	27	23	24	55
194	16	30	21	20	33
195	16	27	23	22	28
196	18	25	24	23	26
196	19	25	24	23	26
196	20	25	24	23	26
197	9	22	21	20	33
198	12	5	6	15	16
198	13	5	6	15	16
199	9	5	4	3	11
200	18	56	55	57	81
200	19	56	55	57	81
200	20	56	55	57	81
201	16	26	23	22	29
202	17	22	23	24	25
203	16	12	3	2	14
204	4	14	2	1	40
205	9	59	60	61	73
206	6	18	19	20	21
206	7	18	19	20	21
206	8	18	19	20	21
207	15	66	64	63	69

Impropers

130	1	64	65	66	63
196	2	24	25	55	23
212	1	15	17	6	16
245	1	15	16	17	6
247	2	55	57	24	56
250	2	24	55	23	25
267	1	64	66	63	65
341	1	64	63	65	66
367	2	24	23	25	55
432	2	55	24	56	57
453	2	55	56	57	24
472	1	15	6	16	17
