Title

59 atoms
60 bonds
113 angles
217 dihedrals
12 impropers

8 atom types
11 bond types
5 angle types
29 dihedral types
2 improper types
-2.411000013 97.58899999 xlo xhi
-4.28399992 95.71600008 ylo yhi
-7.860000134 92.13999987 zlo zhi
0.0 0.0 0.0 xy xz yz

Masses

1	15.99943
2	12.01078
3	1.007947
4	12.01078
5	15.99943
6	1.007947
7	15.99943
8	1.007947


Pair Coeffs

1	0.16846514	3.0251065
2	0.10884061	3.3795318
3	0.016409246	2.5832257
4	0.086879315	3.4806469
5	0.2102061	3.0398122
6	0.015779483	2.6445434
7	0.20947353	2.99716
8	1.2326e-05	0.53453923

Bond Coeffs

1 harmonic	366.7408841747	1.425895053732
2 harmonic	300.03137914615	1.451203938761
3 harmonic	264.62148576755	1.52190126495
4 harmonic	370.04670688625	1.093899492634
5 harmonic	301.15400723785	1.345741232799
6 harmonic	582.698766451	1.225198386222
7 harmonic	329.44145381095	1.523435958334
8 harmonic	279.1350963404	1.454628925034
9 harmonic	329.96998057905	1.427343958716
10 harmonic	543.5267831885	0.9716763312559
11 harmonic	385.7604595587	1.369745182308


Angle Coeffs

1 harmonic	53.20531626545	116.5475862634
2 harmonic	65.09061609600001	110.3538806181
3 harmonic	201.41175231035	127.4691416191
4 harmonic	57.8982893754	126.8062420451
5 harmonic	48.776492647595	115.6030999533


Dihedral Coeffs

1 fourier 1	-0.0309670556842	3	0
2 fourier 1	0.4598191477945	2	0
3 fourier 1	0.1115525666802	3	0
4 fourier 1	0.3432490222662	1	0
5 fourier 1	0.0473758381877	3	0
6 fourier 1	0.457973137376	1	0
7 fourier 1	0.1918272375143	3	0
8 fourier 1	0.9202179876409	1	180
9 fourier 1	1.163809172478	2	180
10 fourier 1	0.1679186987369	1	180
11 fourier 1	2.779853741805	2	180
12 fourier 1	0.02664938770063	3	0
13 fourier 1	0.1911926717192	3	0
14 fourier 1	0.1155372516788	3	0
15 fourier 1	0.4541676554336	1	0
16 fourier 1	0.1489710476446	2	0
17 fourier 1	0.02960027280666	3	180
18 fourier 1	-0.3703352413219	2	0
19 fourier 1	0.1040663847541	3	0
20 fourier 1	0.09223874044423	3	0
21 fourier 1	0.3159935921949	2	180
22 fourier 1	0.3247796806857	1	180
23 fourier 1	0.9974165607242	2	180
24 fourier 1	0.3445382149273	3	0
25 fourier 1	0.1364556373303	1	0
26 fourier 1	0.3026390167484	3	0
27 fourier 1	2.687457892086	2	180
28 fourier 1	2.772607909663	2	180
29 fourier 1	0.09692684957115	1	0


Improper Coeffs

1 3.5	-1	2
2 0.3666666666666667	-1	2


Atoms

1	1	1	-0.16220801	1.576	-0.336	0.85699999
2	1	2	0.047304001	0.63599998	-0.419	-0.17900001
3	1	2	0.146781	-0.71899998	0.11	0.28999999
4	1	1	-0.48241001	-1.675	-0.035999998	-0.72399998
5	1	3	0.081439003	-1.051	-0.46900001	1.177
6	1	3	0.081439003	-0.63099998	1.1799999	0.58899999
7	1	3	0.081446998	0.52999997	-1.484	-0.477
8	1	3	0.081446998	0.98699999	0.154	-1.068
9	1	4	0.701796	-1.49	0.71600002	-1.418
10	1	5	-0.518076	-1.961	1.8279999	-1.2359999
11	1	2	-0.151297	-0.65399998	0.41999999	-2.6340001
12	1	6	0.130199	-0.38	-0.65899998	-2.5929999
13	1	2	-0.130593	-1.459	0.64899999	-3.925
14	1	6	0.098173	-1.72	1.728	-4.0050001
15	1	6	0.098173	-2.411	0.075000003	-3.8870001
16	1	2	-0.106816	-0.66500002	0.228	-5.1799998
17	1	6	0.090590999	-1	0.86699998	-6.027
18	1	6	0.090590999	-0.92500001	-0.82099998	-5.4419999
19	1	2	-0.219613	0.87099999	0.32100001	-4.9959998
20	1	4	0.49469	1.567	0.477	-6.323
21	1	5	-0.64914399	1.386	1.469	-7.013
22	1	6	0.110271	1.227	-0.63300002	-4.546
23	1	2	-0.106816	1.251	1.462	-4.0380001
24	1	6	0.090590999	0.87900001	2.4260001	-4.4520001
25	1	6	0.090590999	2.358	1.538	-3.954
26	1	2	-0.130593	0.653	1.253	-2.6300001
27	1	6	0.098173998	0.479	2.256	-2.1800001
28	1	6	0.098173998	1.399	0.73400003	-1.989
29	1	1	-0.156394	1.845	0.61799997	0.92000002
30	1	2	0.017378001	3.148	0.70099998	0.41100001
31	1	2	0.089367002	4.1529999	0.17200001	1.434
32	1	7	-0.687262	5.461	0.31799999	0.95200002
33	1	8	0.38229099	5.5970001	-0.40000001	0.27900001
34	1	3	0.077482998	4.0549998	0.75199997	2.3759999
35	1	3	0.077482998	3.941	-0.89700001	1.663
36	1	3	0.082105003	3.3759999	1.766	0.192
37	1	3	0.082105003	3.23	0.12800001	-0.54100001
38	1	4	0.49469	2.244	-0.29699999	-6.6700001
39	1	5	-0.64914399	2.2820001	-0.56999999	-7.8600001
40	1	2	-0.219613	3.1270001	-1.015	-5.684
41	1	6	0.110271	2.9400001	-0.565	-4.6830001
42	1	2	-0.106816	2.7739999	-2.5220001	-5.612
43	1	6	0.090590999	1.908	-2.6489999	-4.9260001
44	1	6	0.090590999	2.457	-2.9000001	-6.6100001
45	1	2	-0.12576699	3.9430001	-3.4030001	-5.1209998
46	1	6	0.098173	3.533	-4.2839999	-4.5799999
47	1	6	0.098173	4.507	-3.7820001	-6.0029998
48	1	2	-0.17215499	4.902	-2.6210001	-4.2059999
49	1	4	0.76895601	5.9640002	-3.523	-3.638
50	1	5	-0.52310199	6.6869998	-4.2179999	-4.4029999
51	1	7	-0.64795399	6.164	-3.5739999	-2.2620001
52	1	8	0.396819	6.8790002	-4.1690001	-1.863
53	1	6	0.132475	4.3039999	-2.2260001	-3.3529999
54	1	2	-0.12576699	5.5380001	-1.4220001	-4.9510002
55	1	6	0.098173	6.4840002	-1.727	-5.4510002
56	1	6	0.098173	5.802	-0.64300001	-4.2020001
57	1	2	-0.106816	4.6129999	-0.80400002	-6.0209999
58	1	6	0.090590999	4.8340001	0.28299999	-6.1079998
59	1	6	0.090590999	4.8340001	-1.272	-7.007

Bonds

1	1	1	2
2	2	1	29
3	3	2	3
4	4	2	7
5	4	2	8
6	1	3	4
7	4	3	5
8	4	3	6
9	5	4	9
10	6	9	10
11	7	9	11
12	4	11	12
13	3	11	13
14	3	11	26
15	4	13	14
16	4	13	15
17	3	13	16
18	4	16	17
19	4	16	18
20	3	16	19
21	7	19	20
22	4	19	22
23	3	19	23
24	6	20	21
25	8	20	38
26	4	23	24
27	4	23	25
28	3	23	26
29	4	26	27
30	4	26	28
31	1	29	30
32	3	30	31
33	4	30	36
34	4	30	37
35	9	31	32
36	4	31	34
37	4	31	35
38	10	32	33
39	6	38	39
40	7	38	40
41	4	40	41
42	3	40	42
43	3	40	57
44	4	42	43
45	4	42	44
46	3	42	45
47	4	45	46
48	4	45	47
49	3	45	48
50	7	48	49
51	4	48	53
52	3	48	54
53	6	49	50
54	11	49	51
55	10	51	52
56	4	54	55
57	4	54	56
58	3	54	57
59	4	57	58
60	4	57	59

Angles

1	5	5	3	6
2	1	31	30	37
3	1	9	11	13
4	1	48	54	56
5	1	42	45	47
6	1	13	16	17
7	1	1	2	7
8	1	20	19	23
9	5	43	42	44
10	4	20	38	40
11	2	1	29	30
12	1	38	40	41
13	1	54	57	58
14	1	29	30	31
15	5	36	30	37
16	1	16	19	22
17	1	48	54	57
18	1	13	16	18
19	1	40	42	44
20	1	11	13	14
21	1	4	3	5
22	1	13	11	26
23	5	55	54	56
24	5	46	45	47
25	1	1	2	8
26	4	10	9	11
27	4	39	38	40
28	1	9	11	26
29	1	3	2	7
30	1	16	19	23
31	5	34	31	35
32	1	22	19	23
33	1	11	13	15
34	1	55	54	57
35	1	45	48	49
36	1	19	23	26
37	1	11	26	27
38	1	38	40	57
39	5	58	57	59
40	1	42	45	48
41	1	30	31	34
42	1	25	23	26
43	1	23	26	27
44	1	11	26	23
45	1	32	31	34
46	1	44	42	45
47	5	17	16	18
48	2	3	4	9
49	1	30	31	35
50	1	29	30	36
51	4	21	20	38
52	1	12	11	26
53	1	23	26	28
54	1	43	42	45
55	1	56	54	57
56	5	14	13	15
57	1	38	40	42
58	1	54	57	59
59	1	45	48	53
60	1	15	13	16
61	1	18	16	19
62	4	48	49	50
63	1	49	48	53
64	1	13	16	19
65	2	31	32	33
66	1	40	42	45
67	1	2	3	6
68	1	14	13	16
69	1	45	48	54
70	4	48	49	51
71	1	3	2	8
72	1	11	13	16
73	5	24	23	25
74	5	27	26	28
75	3	4	9	10
76	1	11	26	28
77	1	16	19	20
78	1	9	11	12
79	1	31	30	36
80	1	48	54	55
81	1	42	45	46
82	1	41	40	42
83	1	42	40	57
84	1	4	3	6
85	1	53	48	54
86	1	1	2	3
87	1	46	45	48
88	1	32	31	35
89	5	7	2	8
90	4	20	38	39
91	1	24	23	26
92	4	19	20	21
93	1	47	45	48
94	1	17	16	19
95	1	40	42	43
96	1	41	40	57
97	1	29	30	37
98	1	19	23	24
99	3	50	49	51
100	1	40	57	58
101	2	2	1	29
102	1	30	31	32
103	2	49	51	52
104	4	19	20	38
105	1	49	48	54
106	1	40	57	54
107	1	2	3	4
108	1	19	23	25
109	1	40	57	59
110	4	4	9	11
111	1	20	19	22
112	1	2	3	5
113	1	12	11	13

Dihedrals

1	14	38	40	42	44
2	3	32	31	30	36
2	4	32	31	30	36
3	5	1	29	30	37
4	19	17	16	19	23
5	5	3	2	1	29
6	12	16	19	20	38
7	13	35	31	30	36
8	12	51	49	48	53
9	19	47	45	48	54
10	19	11	13	16	17
11	19	16	19	23	25
12	3	29	30	31	34
12	4	29	30	31	34
13	12	20	38	40	41
14	13	46	45	48	53
15	28	50	49	51	52
15	29	50	49	51	52
16	24	30	31	32	33
16	25	30	31	32	33
17	13	41	40	42	44
18	19	48	54	57	59
19	13	6	3	2	8
20	12	23	19	20	38
21	19	42	40	57	58
22	7	2	3	4	9
22	8	2	3	4	9
23	3	4	3	2	8
23	4	4	3	2	8
24	13	14	13	16	18
25	14	38	40	42	45
26	12	22	19	20	38
27	14	46	45	48	49
28	19	40	42	45	46
29	20	45	42	40	57
29	21	45	42	40	57
29	22	45	42	40	57
30	19	11	26	23	25
31	13	12	11	13	14
32	3	1	2	3	5
32	4	1	2	3	5
33	13	12	11	26	28
34	20	42	40	57	54
34	21	42	40	57	54
34	22	42	40	57	54
35	5	6	3	4	9
36	14	20	19	23	26
37	5	5	3	4	9
38	19	43	42	45	48
39	19	46	45	48	54
40	14	17	16	19	20
41	19	41	40	42	45
42	14	9	11	26	27
43	13	24	23	26	27
44	19	53	48	54	57
45	13	44	42	45	47
46	19	40	42	45	47
47	19	13	11	26	28
48	15	10	9	11	12
48	16	10	9	11	12
48	17	10	9	11	12
49	14	9	11	26	23
50	12	20	38	40	57
51	26	33	32	31	35
52	12	45	48	49	51
53	13	18	16	19	22
54	15	39	38	40	41
54	16	39	38	40	41
54	17	39	38	40	41
55	14	9	11	26	28
56	18	50	49	48	54
57	13	24	23	26	28
58	19	14	13	11	26
59	13	15	13	16	17
60	5	1	29	30	31
61	18	10	9	11	13
62	13	34	31	30	37
63	13	5	3	2	8
64	13	22	19	23	25
65	19	45	48	54	55
66	3	32	31	30	37
66	4	32	31	30	37
67	12	4	9	11	12
68	19	18	16	19	23
69	13	35	31	30	37
70	23	21	20	38	39
71	12	51	49	48	54
72	19	11	13	16	18
73	13	25	23	26	27
74	20	16	19	23	26
74	21	16	19	23	26
74	22	16	19	23	26
75	3	29	30	31	35
75	4	29	30	31	35
76	12	20	38	40	42
77	19	13	16	19	22
78	13	15	13	16	18
79	15	21	20	19	22
79	16	21	20	19	22
79	17	21	20	19	22
80	19	15	13	11	26
81	9	3	4	9	10
81	10	3	4	9	10
82	19	42	40	57	59
83	20	11	26	23	19
83	21	11	26	23	19
83	22	11	26	23	19
84	19	22	19	23	26
85	19	45	48	54	56
86	19	14	13	16	19
87	14	38	40	57	58
88	19	40	57	54	55
89	14	49	48	54	55
90	19	44	42	45	48
91	11	3	4	9	11
92	13	22	19	23	24
93	13	12	11	13	15
94	14	9	11	13	14
95	13	43	42	45	46
96	14	38	40	57	54
97	20	13	16	19	23
97	21	13	16	19	23
97	22	13	16	19	23
98	18	10	9	11	26
99	19	43	42	40	57
100	14	18	16	19	20
101	14	38	40	57	59
102	13	56	54	57	58
103	1	29	30	31	32
103	2	29	30	31	32
104	13	55	54	57	58
105	19	12	11	13	16
106	13	43	42	45	47
107	20	16	13	11	26
107	21	16	13	11	26
107	22	16	13	11	26
108	14	38	40	42	43
109	5	1	29	30	36
110	13	17	16	19	22
111	18	39	38	40	42
112	3	1	2	3	6
112	4	1	2	3	6
113	13	56	54	57	59
114	14	20	19	23	24
115	20	40	57	54	48
115	21	40	57	54	48
115	22	40	57	54	48
116	13	41	40	42	43
117	19	48	54	57	58
118	6	2	1	29	30
119	19	42	45	48	53
120	14	47	45	48	49
121	3	4	3	2	7
121	4	4	3	2	7
122	13	53	48	54	55
123	18	39	38	40	57
124	12	4	9	11	13
125	13	41	40	57	58
126	27	48	49	51	52
127	20	40	42	45	48
127	21	40	42	45	48
127	22	40	42	45	48
128	19	11	26	23	24
129	5	7	2	1	29
130	23	21	20	38	40
131	1	1	2	3	4
131	2	1	2	3	4
132	13	12	11	26	27
133	20	11	13	16	19
133	21	11	13	16	19
133	22	11	13	16	19
134	14	20	19	23	25
135	13	25	23	26	28
136	14	42	45	48	49
137	19	15	13	16	19
138	18	21	20	19	23
139	19	41	40	57	54
140	20	42	45	48	54
140	21	42	45	48	54
140	22	42	45	48	54
141	20	45	48	54	57
141	21	45	48	54	57
141	22	45	48	54	57
142	19	19	23	26	27
143	19	12	11	26	23
144	19	40	57	54	56
145	13	53	48	54	56
146	13	41	40	57	59
147	13	44	42	45	46
148	14	49	48	54	56
149	5	8	2	1	29
150	19	13	11	26	27
151	19	44	42	40	57
152	14	9	11	13	15
153	18	16	19	20	21
154	23	19	20	38	39
155	26	33	32	31	34
156	18	45	48	49	50
157	20	13	11	26	23
157	21	13	11	26	23
157	22	13	11	26	23
158	13	47	45	48	53
159	15	50	49	48	53
159	16	50	49	48	53
159	17	50	49	48	53
160	19	19	23	26	28
161	12	4	9	11	26
162	19	16	19	23	24
163	14	13	16	19	20
164	14	49	48	54	57
165	13	55	54	57	59
166	14	9	11	13	16
167	13	6	3	2	7
168	13	34	31	30	36
169	13	5	3	2	7
170	23	19	20	38	40
171	13	14	13	16	17

Impropers

10	1	9	10	11	4
13	1	49	50	51	48
26	2	38	39	40	20
109	2	38	20	39	40
158	2	20	21	38	19
202	1	9	11	4	10
225	1	9	4	10	11
229	1	49	51	48	50
288	2	20	38	19	21
304	2	38	40	20	39
367	2	20	19	21	38
397	1	49	48	50	51
