Title

495 atoms
494 bonds
905 angles
1677 dihedrals
102 impropers

11 atom types
14 bond types
9 angle types
39 dihedral types
3 improper types
-9.428999901 90.5710001 xlo xhi
-2.134000063 97.86599994 ylo yhi
-14.06700039 85.93299961 zlo zhi
0.0 0.0 0.0 xy xz yz

Masses

1	15.99943
2	12.01078
3	14.00672
4	12.01078
5	1.007947
6	1.007947
7	1.007947
8	15.99943
9	12.01078
10	15.99943
11	1.007947


Pair Coeffs

1	0.2102061	3.0398122
2	0.086879315	3.4806469
3	0.16769152	3.206876
4	0.10884061	3.3795318
5	0.014090815	1.1034277
6	0.016409246	2.5832257
7	0.015779483	2.6445434
8	0.16846514	3.0251065
9	0.21	3.3996695
10	0.20947353	2.99716
11	1.2326e-05	0.53453923

Bond Coeffs

1 harmonic	582.698766451	1.225198386222
2 harmonic	492.76746816345	1.381897776683
3 harmonic	301.15400723785	1.345741232799
4 harmonic	352.0565580496	1.450098586273
5 harmonic	505.144496193	1.019481865027
6 harmonic	264.62148576755	1.52190126495
7 harmonic	370.04670688625	1.093899492634
8 harmonic	279.1350963404	1.454628925034
9 harmonic	366.7408841747	1.425895053732
10 harmonic	300.03137914615	1.451203938761
11 harmonic	366.34047229585	1.464762957261
12 harmonic	602.81384337	1.196112346392
13 harmonic	329.96998057905	1.427343958716
14 harmonic	543.5267831885	0.9716763312559


Angle Coeffs

1 harmonic	57.8982893754	126.8062420451
2 harmonic	201.41175231035	127.4691416191
3 harmonic	55.42182150775	117.3465570514
4 harmonic	63.44422595415	115.5071327674
5 harmonic	65.09061609600001	110.3538806181
6 harmonic	53.20531626545	116.5475862634
7 harmonic	48.776492647595	115.6030999533
8 harmonic	55.07882548015	112.8714009681
9 harmonic	33.56981613361	180


Dihedral Coeffs

1 fourier 1	1.809047390003	2	180
2 fourier 1	-0.04816277792592	1	0
3 fourier 1	0.4860993122944	2	180
4 fourier 1	0.8916986138746	1	0
5 fourier 1	1.163809172478	2	180
6 fourier 1	0.1679186987369	1	180
7 fourier 1	-0.1488678166443	4	180
8 fourier 1	-0.1230328948768	3	180
9 fourier 1	0.2939295466901	2	0
10 fourier 1	-0.3024127022865	1	0
11 fourier 1	0.182238503271	2	0
12 fourier 1	0.02972342374561	3	0
13 fourier 1	0.1918272375143	3	0
14 fourier 1	0.9202179876409	1	180
15 fourier 1	0.0473758381877	3	0
16 fourier 1	2.779853741805	2	180
17 fourier 1	0.1155372516788	3	0
18 fourier 1	0.09223874044423	3	0
19 fourier 1	0.3159935921949	2	180
20 fourier 1	0.3247796806857	1	180
21 fourier 1	0.1040663847541	3	0
22 fourier 1	3.101948770557	2	180
23 fourier 1	-0.4252153282372	1	0
24 fourier 1	0.9974165607242	2	180
25 fourier 1	2.348375642009	2	180
26 fourier 1	1.256156174911	1	0
27 fourier 1	0.1911926717192	3	0
28 fourier 1	-0.0309670556842	3	0
29 fourier 1	0.4598191477945	2	0
30 fourier 1	0.1115525666802	3	0
31 fourier 1	0.3432490222662	1	0
32 fourier 1	0.4552156463534	3	0
33 fourier 1	-0.03687743385131	2	180
34 fourier 1	0.457973137376	1	0
35 fourier 1	-1.382973039546	1	0
36 fourier 1	0	1	0
37 fourier 1	0.3445382149273	3	0
38 fourier 1	0.1364556373303	1	0
39 fourier 1	0.3026390167484	3	0


Improper Coeffs

1 3.5	-1	2
2 0.3333333333333333	-1	2
3 0.3666666666666667	-1	2


Atoms

1	1	1	-0.60582298	5.5929999	0.308	0.098999999
2	1	2	0.78579003	4.6459999	1.073	-0.22499999
3	1	3	-0.46488899	3.2980001	0.59799999	-0.25600001
4	1	4	0.025702	2.967	-0.78899997	0.072999999
5	1	4	-0.144004	1.454	-1.039	0.015
6	1	4	-0.141902	0.71100003	-0.33000001	1.16
7	1	4	-0.141902	-0.78399998	-0.685	1.204
8	1	4	-0.145291	-1.574	-0.057999998	0.045000002
9	1	4	0.031502001	-3.075	-0.32100001	0.199
10	1	3	-0.52130097	-3.812	0.237	-0.93300003
11	1	2	0.54375798	-4.0619998	1.6390001	-1.0779999
12	1	1	-0.68137401	-3.6559999	2.4619999	-0.215
13	1	5	0.32017401	-4.224	-0.41499999	-1.637
14	1	6	0.054901998	-3.25	-1.419	0.237
15	1	6	0.054901998	-3.454	0.119	1.148
16	1	7	0.089354001	-1.39	1.038	0.024
17	1	7	0.089354001	-1.2359999	-0.491	-0.92000002
18	1	7	0.088114001	-0.90899998	-1.79	1.194
19	1	7	0.088114001	-1.197	-0.308	2.165
20	1	7	0.088114001	1.164	-0.64300001	2.1270001
21	1	7	0.088114001	0.82999998	0.77100003	1.076
22	1	7	0.089354001	1.278	-2.1340001	0.089000002
23	1	7	0.089354001	1.0700001	-0.69599998	-0.97000003
24	1	6	0.058487002	3.467	-1.461	-0.65700001
25	1	6	0.058487002	3.3499999	-1.0369999	1.087
26	1	5	0.326756	2.55	1.27	-0.54100001
27	1	8	-0.496032	-1.069	3.0250001	0.027000001
28	1	4	0.105436	-1.515	2.967	-1.302
29	1	4	0.078700997	-1.51	4.3579998	-1.9349999
30	1	8	-0.48685801	-0.2	4.8839998	-1.904
31	1	4	0.059299	-0.19	6.152	-2.529
32	1	4	0.059556998	1.224	6.7249999	-2.4920001
33	1	8	-0.486963	2.1059999	5.836	-3.1489999
34	1	4	0.059556998	3.4319999	6.3369999	-3.1170001
35	1	4	0.059299	4.1700001	5.881	-1.848
36	1	8	-0.48685801	3.875	4.533	-1.531
37	1	4	0.078700997	4.7179999	3.655	-2.2539999
38	1	4	0.105436	4.4460001	2.223	-1.8049999
39	1	8	-0.496032	4.849	2.0610001	-0.47099999
40	1	6	0.092488997	5.02	1.525	-2.457
41	1	6	0.092488997	3.3610001	2	-1.903
42	1	6	0.084646001	4.506	3.7219999	-3.3469999
43	1	6	0.084646001	5.7989998	3.8770001	-2.066
44	1	6	0.085952997	3.829	6.5079999	-0.99800003
45	1	6	0.085952997	5.2639999	6.079	-1.946
46	1	6	0.085952997	3.9679999	5.9369998	-4.0040002
47	1	6	0.085952997	3.4879999	7.4520001	-3.214
48	1	6	0.085952997	1.5190001	6.8660002	-1.428
49	1	6	0.085952997	1.209	7.7160001	-3.0050001
50	1	6	0.085952997	-0.509	6.0760002	-3.5940001
51	1	6	0.085952997	-0.86500001	6.8610001	-1.992
52	1	6	0.084646001	-2.2119999	5.0120001	-1.373
53	1	6	0.084646001	-1.869	4.2540002	-2.9849999
54	1	6	0.092488997	-0.83600003	2.302	-1.88
55	1	6	0.092488997	-2.54	2.5320001	-1.35
56	1	1	-0.60582298	-2.424	11.604	5.9520001
57	1	2	0.78579003	-2.164	11.06	4.8460002
58	1	3	-0.46488899	-2.214	9.6379995	4.6989999
59	1	4	0.025702	-2.5569999	8.7639999	5.8210001
60	1	4	-0.144004	-2.592	7.289	5.3990002
61	1	4	-0.141902	-3.7850001	6.9840002	4.4759998
62	1	4	-0.141902	-3.9189999	5.487	4.1599998
63	1	4	-0.144004	-2.8150001	4.98	3.22
64	1	4	0.025702	-3.0610001	3.5209999	2.8210001
65	1	3	-0.46488899	-1.979	3.0339999	1.967
66	1	2	0.78579003	-1.8559999	3.4000001	0.58899999
67	1	1	-0.60582298	-2.6949999	4.1659999	0.045000002
68	1	5	0.326756	-1.299	2.345	2.359
69	1	6	0.058487002	-3.105	2.895	3.74
70	1	6	0.058487002	-4.033	3.4189999	2.2909999
71	1	7	0.089354001	-2.7869999	5.6129999	2.3069999
72	1	7	0.089354001	-1.829	5.046	3.7260001
73	1	7	0.088114001	-3.9130001	4.8990002	5.1040001
74	1	7	0.088114001	-4.9060001	5.3270001	3.6719999
75	1	7	0.088114001	-4.7199998	7.3119998	4.9809999
76	1	7	0.088114001	-3.698	7.559	3.529
77	1	7	0.089354001	-2.6730001	6.665	6.3150001
78	1	7	0.089354001	-1.635	7.0349998	4.895
79	1	6	0.058487002	-1.794	8.8879995	6.6199999
80	1	6	0.058487002	-3.5439999	9.059	6.2399998
81	1	5	0.326756	-1.979	9.2360001	3.7639999
82	1	8	-0.496032	-2.7780001	6.7540002	0.64899999
83	1	4	0.105436	-1.48	6.2550001	0.47099999
84	1	4	0.078700997	-0.85399997	6.8200002	-0.80299997
85	1	8	-0.48685801	-0.80500001	8.2290001	-0.71799999
86	1	4	0.059299	-0.186	8.7469997	-1.8789999
87	1	4	0.059556998	-0.13699999	10.27	-1.791
88	1	8	-0.486963	0.57700002	10.649	-0.63200003
89	1	4	0.059556998	0.625	12.062	-0.51700002
90	1	4	0.059299	-0.59399998	12.601	0.249
91	1	8	-0.48685801	-0.92299998	11.775	1.351
92	1	4	0.078700997	-0.145	12.12	2.4820001
93	1	4	0.105436	-0.60399997	11.286	3.674
94	1	8	-0.496032	-1.909	11.653	4.033
95	1	6	0.092488997	0.086000003	11.469	4.5300002
96	1	6	0.092488997	-0.57200003	10.206	3.4089999
97	1	6	0.084646001	0.93300003	11.898	2.2980001
98	1	6	0.084646001	-0.266	13.2	2.7490001
99	1	6	0.085952997	-1.466	12.608	-0.43700001
100	1	6	0.085952997	-0.42899999	13.668	0.53500003
101	1	6	0.085952997	1.545	12.326	0.046
102	1	6	0.085952997	0.72000003	12.584	-1.503
103	1	6	0.085952997	-1.181	10.654	-1.761
104	1	6	0.085952997	0.37	10.653	-2.7090001
105	1	6	0.085952997	0.85699999	8.3690004	-1.979
106	1	6	0.085952997	-0.76700002	8.4709997	-2.7909999
107	1	6	0.084646001	-1.461	6.4980001	-1.677
108	1	6	0.084646001	0.17299999	6.395	-0.89499998
109	1	6	0.092488997	-0.85799998	6.5500002	1.344
110	1	6	0.092488997	-1.494	5.1409998	0.42399999
111	1	1	-0.60582298	-8.8129997	9.5279999	-7.5019999
112	1	2	0.78579003	-7.691	9.4700003	-6.9320002
113	1	3	-0.46488899	-7.5409999	8.8070002	-5.6739998
114	1	4	0.025702	-8.6780005	8.184	-4.9959998
115	1	4	-0.144004	-8.2519999	7.4990001	-3.691
116	1	4	-0.141902	-7.4050002	6.2420001	-3.9530001
117	1	4	-0.141902	-7.0910001	5.4619999	-2.6670001
118	1	4	-0.144004	-6.0819998	6.1900001	-1.766
119	1	4	0.025702	-5.6929998	5.322	-0.565
120	1	3	-0.46488899	-4.7719998	6.0419998	0.31099999
121	1	2	0.78579003	-3.3900001	6.2350001	-0.0089999996
122	1	1	-0.60582298	-2.902	5.777	-1.077
123	1	5	0.326756	-5.1170001	6.382	1.237
124	1	6	0.058487002	-6.6100001	5.0640001	0.0099999998
125	1	6	0.058487002	-5.224	4.3730001	-0.90399998
126	1	7	0.089354001	-5.1719999	6.4369998	-2.3540001
127	1	7	0.089354001	-6.526	7.1350002	-1.3890001
128	1	7	0.088114001	-8.0299997	5.2680001	-2.105
129	1	7	0.088114001	-6.664	4.4770002	-2.9590001
130	1	7	0.088114001	-7.9679999	5.566	-4.6329999
131	1	7	0.088114001	-6.4559999	6.5149999	-4.4640002
132	1	7	0.089354001	-9.1700001	7.2080002	-3.1340001
133	1	7	0.089354001	-7.6890001	8.2259998	-3.0680001
134	1	6	0.058487002	-9.4289999	8.9689999	-4.7579999
135	1	6	0.058487002	-9.158	7.4429998	-5.6719999
136	1	5	0.326756	-6.5910001	8.7969999	-5.2389998
137	1	8	-0.496032	-3.5209999	6.8439999	-3.4319999
138	1	4	0.105436	-3.26	7.7909999	-2.4319999
139	1	4	0.078700997	-1.952	8.5290003	-2.714
140	1	8	-0.48685801	-2.04	9.1800003	-3.9630001
141	1	4	0.059299	-0.84600002	9.8979998	-4.2030001
142	1	4	0.059556998	-0.93699998	10.598	-5.5549998
143	1	8	-0.486963	-2.0510001	11.468	-5.5570002
144	1	4	0.059556998	-2.1689999	12.123	-6.8099999
145	1	4	0.059299	-3.0109999	11.296	-7.7950001
146	1	8	-0.48685801	-4.1279998	10.705	-7.1550002
147	1	4	0.078700997	-5.21	11.616	-7.0999999
148	1	4	0.105436	-6.4250002	10.91	-6.506
149	1	8	-0.496032	-6.8660002	9.9090004	-7.3839998
150	1	6	0.092488997	-7.237	11.657	-6.3509998
151	1	6	0.092488997	-6.1539998	10.461	-5.5240002
152	1	6	0.084646001	-4.9590001	12.483	-6.4439998
153	1	6	0.084646001	-5.4889998	11.984	-8.1190004
154	1	6	0.085952997	-2.381	10.475	-8.1949997
155	1	6	0.085952997	-3.2909999	11.917	-8.6789999
156	1	6	0.085952997	-2.675	13.097	-6.638
157	1	6	0.085952997	-1.181	12.378	-7.2709999
158	1	6	0.085952997	-1.033	9.823	-6.3470001
159	1	6	0.085952997	0.0089999996	11.17	-5.7129998
160	1	6	0.085952997	-0.68000001	10.671	-3.418
161	1	6	0.085952997	0.029999999	9.2060003	-4.2290001
162	1	6	0.084646001	-1.1160001	7.796	-2.7090001
163	1	6	0.084646001	-1.795	9.2670002	-1.8940001
164	1	6	0.092488997	-4.0949998	8.526	-2.4059999
165	1	6	0.092488997	-3.21	7.2989998	-1.433
166	1	1	-0.60582298	4.2259998	2.1440001	-8.7650003
167	1	2	0.78579003	3.7279999	3.1630001	-8.2159996
168	1	3	-0.46488899	2.4849999	3.0829999	-7.5149999
169	1	4	0.025702	1.74	1.827	-7.4169998
170	1	4	-0.144004	0.46599999	1.988	-6.5749998
171	1	4	-0.141902	0.787	2.201	-5.086
172	1	4	-0.141902	-0.47400001	2.22	-4.2080002
173	1	4	-0.144004	-1.314	3.49	-4.4070001
174	1	4	0.025702	-2.4849999	3.5339999	-3.4200001
175	1	3	-0.46488899	-3.3050001	4.7220001	-3.651
176	1	2	0.78579003	-2.9000001	6.0339999	-3.244
177	1	1	-0.60582298	-1.803	6.2189999	-2.654
178	1	5	0.326756	-4.2519999	4.6059999	-4.0770001
179	1	6	0.058487002	-3.115	2.628	-3.5610001
180	1	6	0.058487002	-2.1129999	3.533	-2.372
181	1	7	0.089354001	-0.671	4.3850002	-4.2589998
182	1	7	0.089354001	-1.722	3.5150001	-5.4400001
183	1	7	0.088114001	-1.0930001	1.319	-4.4169998
184	1	7	0.088114001	-0.152	2.1670001	-3.145
185	1	7	0.088114001	1.433	1.3660001	-4.7360001
186	1	7	0.088114001	1.354	3.145	-4.9429998
187	1	7	0.089354001	-0.145	1.067	-6.6880002
188	1	7	0.089354001	-0.123	2.842	-6.973
189	1	6	0.058487002	1.452	1.499	-8.4390001
190	1	6	0.058487002	2.3870001	1.039	-6.973
191	1	5	0.326756	2.109	3.9590001	-7.086
192	1	8	-0.496032	0.505	5.9899998	-3.954
193	1	4	0.105436	-0.48100001	6.6849999	-4.6690001
194	1	4	0.078700997	-0.121	8.165	-4.7849998
195	1	8	-0.48685801	1.117	8.2969999	-5.4499998
196	1	4	0.059299	1.428	9.6680002	-5.5949998
197	1	4	0.059556998	2.7690001	9.8129997	-6.3080001
198	1	8	-0.486963	2.698	9.1800003	-7.5700002
199	1	4	0.059556998	3.938	9.2860003	-8.25
200	1	4	0.059299	4.8720002	8.1190004	-7.8930001
201	1	8	-0.48685801	4.1669998	6.8930001	-7.8169999
202	1	4	0.078700997	4.04	6.3099999	-9.1000004
203	1	4	0.105436	3.375	4.9450002	-8.9630003
204	1	8	-0.496032	4.2290001	4.0710001	-8.2740002
205	1	6	0.092488997	3.1670001	4.54	-9.9799995
206	1	6	0.092488997	2.414	5.0510001	-8.4119997
207	1	6	0.084646001	3.398	6.9439998	-9.7559996
208	1	6	0.084646001	5.039	6.1609998	-9.5830002
209	1	6	0.085952997	5.3140001	8.3140001	-6.8940001
210	1	6	0.085952997	5.7350001	8.085	-8.6000004
211	1	6	0.085952997	3.7309999	9.2559996	-9.3409996
212	1	6	0.085952997	4.4590001	10.262	-8.073
213	1	6	0.085952997	3.5569999	9.3509998	-5.6729999
214	1	6	0.085952997	2.983	10.903	-6.4250002
215	1	6	0.085952997	0.65200001	10.193	-6.1989999
216	1	6	0.085952997	1.511	10.161	-4.5970001
217	1	6	0.084646001	-0.071000002	8.6059999	-3.766
218	1	6	0.084646001	-0.93300003	8.6680002	-5.3610001
219	1	6	0.092488997	-0.56099999	6.2490001	-5.6890001
220	1	6	0.092488997	-1.473	6.5739999	-4.1719999
221	1	1	-0.60582298	6.329	10.676	3.4389999
222	1	2	0.78579003	5.7459998	10.692	2.323
223	1	3	-0.46488899	4.9689999	9.5740004	1.885
224	1	4	0.025702	4.8309999	8.3699999	2.7049999
225	1	4	-0.144004	3.911	7.336	2.0409999
226	1	4	-0.141902	2.4430001	7.7969999	2.0309999
227	1	4	-0.141902	1.489	6.7150002	1.502
228	1	4	-0.144004	1.63	6.4910002	-0.011
229	1	4	0.025702	0.57200003	5.5079999	-0.52100003
230	1	3	-0.46488899	0.74599999	5.2639999	-1.952
231	1	2	0.78579003	0.36000001	6.2129998	-2.9519999
232	1	1	-0.60582298	-0.161	7.3140001	-2.632
233	1	5	0.326756	1.113	4.3369999	-2.2639999
234	1	6	0.058487002	0.67699999	4.5440001	0.024
235	1	6	0.058487002	-0.45100001	5.9000001	-0.329
236	1	7	0.089354001	1.5190001	7.4619999	-0.54000002
237	1	7	0.089354001	2.635	6.0780001	-0.23899999
238	1	7	0.088114001	1.6619999	5.7600002	2.0450001
239	1	7	0.088114001	0.44800001	7.0409999	1.72
240	1	7	0.088114001	2.138	8.0419998	3.072
241	1	7	0.088114001	2.332	8.7209997	1.424
242	1	7	0.089354001	3.9890001	6.3839998	2.609
243	1	7	0.089354001	4.2680001	7.1479998	1.006
244	1	6	0.058487002	5.835	7.914	2.8469999
245	1	6	0.058487002	4.4310002	8.6409998	3.7060001
246	1	5	0.326756	4.5139999	9.6339998	0.94599998
247	1	8	-0.496032	1.281	9.2270002	-1.479
248	1	4	0.105436	1.929	8.5959997	-2.55
249	1	4	0.078700997	2.062	9.5489998	-3.7379999
250	1	8	-0.48685801	2.8010001	10.686	-3.348
251	1	4	0.059299	2.96	11.546	-4.4590001
252	1	4	0.059556998	3.7539999	12.779	-4.039
253	1	8	-0.486963	5.0120001	12.375	-3.5350001
254	1	4	0.059556998	5.7670002	13.502	-3.122
255	1	4	0.059299	5.474	13.864	-1.658
256	1	8	-0.48685801	5.3590002	12.707	-0.84899998
257	1	4	0.078700997	6.6350002	12.274	-0.41499999
258	1	4	0.105436	6.4619999	11.096	0.53899997
259	1	8	-0.496032	5.8309999	11.529	1.714
260	1	6	0.092488997	7.4660001	10.68	0.78500003
261	1	6	0.092488997	5.8520002	10.305	0.050000001
262	1	6	0.084646001	7.2470002	11.93	-1.2819999
263	1	6	0.084646001	7.1789999	13.085	0.131
264	1	6	0.085952997	4.5029998	14.4	-1.615
265	1	6	0.085952997	6.2340002	14.589	-1.28
266	1	6	0.085952997	6.8439999	13.243	-3.217
267	1	6	0.085952997	5.619	14.399	-3.776
268	1	6	0.085952997	3.171	13.326	-3.2650001
269	1	6	0.085952997	3.8800001	13.432	-4.9349999
270	1	6	0.085952997	3.5120001	11.037	-5.283
271	1	6	0.085952997	1.966	11.886	-4.8379998
272	1	6	0.084646001	1.045	9.8380003	-4.0830002
273	1	6	0.084646001	2.5829999	9.0010004	-4.5560002
274	1	6	0.092488997	2.944	8.2819996	-2.221
275	1	6	0.092488997	1.372	7.6810002	-2.858
276	1	1	-0.60582298	-5.756	16.889999	-3
277	1	2	0.78579003	-4.6789999	16.309999	-3.2980001
278	1	3	-0.46488899	-4.2849998	15.106	-2.6329999
279	1	4	0.025702	-5.1069999	14.51	-1.579
280	1	4	-0.144004	-4.4970002	13.202	-1.058
281	1	4	-0.141902	-4.5799999	12.075	-2.102
282	1	4	-0.141902	-4.1069999	10.722	-1.548
283	1	4	-0.144004	-2.5869999	10.671	-1.331
284	1	4	0.025702	-2.1400001	9.2670002	-0.91000003
285	1	3	-0.46488899	-0.69999999	9.243	-0.65899998
286	1	2	0.78579003	0.27000001	9.2460003	-1.712
287	1	1	-0.60582298	-0.086000003	9.2650003	-2.9200001
288	1	5	0.326756	-0.36199999	9.1599998	0.32499999
289	1	6	0.058487002	-2.6730001	8.9790001	0.022
290	1	6	0.058487002	-2.3970001	8.5229998	-1.696
291	1	7	0.089354001	-2.0699999	10.957	-2.2720001
292	1	7	0.089354001	-2.2950001	11.388	-0.53500003
293	1	7	0.088114001	-4.6339998	10.499	-0.59399998
294	1	7	0.088114001	-4.3909998	9.934	-2.2809999
295	1	7	0.088114001	-5.6389999	11.961	-2.421
296	1	7	0.088114001	-3.9860001	12.337	-3.003
297	1	7	0.089354001	-5.0549998	12.896	-0.146
298	1	7	0.089354001	-3.441	13.387	-0.76800001
299	1	6	0.058487002	-5.184	15.228	-0.73400003
300	1	6	0.058487002	-6.1329999	14.32	-1.964
301	1	5	0.326756	-3.3770001	14.671	-2.9100001
302	1	8	-0.496032	-1.156	11.448	-3.9979999
303	1	4	0.105436	-0.044	11.704	-3.1830001
304	1	4	0.078700997	1.146	12.167	-4.0240002
305	1	8	-0.48685801	0.79799998	13.343	-4.724
306	1	4	0.059299	1.913	13.793	-5.4660001
307	1	4	0.059556998	1.538	15.061	-6.2280002
308	1	8	-0.486963	1.115	16.049999	-5.3109999
309	1	4	0.059556998	0.745	17.236	-5.994
310	1	4	0.059299	-0.736	17.205999	-6.402
311	1	8	-0.48685801	-1.546	16.650999	-5.381
312	1	4	0.078700997	-1.898	17.639999	-4.4310002
313	1	4	0.105436	-2.8559999	17.032	-3.4119999
314	1	8	-0.496032	-4.0700002	16.712	-4.0370002
315	1	6	0.092488997	-3.036	17.773001	-2.599
316	1	6	0.092488997	-2.402	16.115999	-2.9719999
317	1	6	0.084646001	-0.99299997	17.997999	-3.8859999
318	1	6	0.084646001	-2.4130001	18.507999	-4.915
319	1	6	0.085952997	-0.84200001	16.563	-7.3000002
320	1	6	0.085952997	-1.0700001	18.223	-6.7210002
321	1	6	0.085952997	0.90799999	18.091	-5.303
322	1	6	0.085952997	1.385	17.451	-6.888
323	1	6	0.085952997	0.727	14.811	-6.9489999
324	1	6	0.085952997	2.438	15.405	-6.7919998
325	1	6	0.085952997	2.7720001	14.029	-4.796
326	1	6	0.085952997	2.2279999	13.022	-6.21
327	1	6	0.084646001	1.426	11.355	-4.73
328	1	6	0.084646001	1.998	12.358	-3.3299999
329	1	6	0.092488997	-0.30700001	12.503	-2.4549999
330	1	6	0.092488997	0.233	10.793	-2.6040001
331	1	1	-0.60582298	-0.108	8.2989998	-13.974
332	1	2	0.78579003	0.259	9.007	-12.999
333	1	3	-0.46488899	-0.375	8.882	-11.723
334	1	4	0.025702	-1.476	7.9429998	-11.503
335	1	4	-0.144004	-1.952	7.961	-10.045
336	1	4	-0.141902	-0.91100001	7.3470001	-9.0939999
337	1	4	-0.141902	-1.428	7.224	-7.652
338	1	4	-0.144004	-1.55	8.585	-6.9499998
339	1	4	0.025702	-1.936	8.4099998	-5.4780002
340	1	3	-0.46488899	-2.0969999	9.7119999	-4.8330002
341	1	2	0.78579003	-0.986	10.531	-4.454
342	1	1	-0.60582298	0.198	10.153	-4.6599998
343	1	5	0.326756	-3.0580001	10.035	-4.5830002
344	1	6	0.058487002	-2.8989999	7.8569999	-5.4169998
345	1	6	0.058487002	-1.165	7.8169999	-4.9390001
346	1	7	0.089354001	-0.579	9.1230001	-7.0170002
347	1	7	0.089354001	-2.329	9.1990004	-7.4489999
348	1	7	0.088114001	-2.4119999	6.7049999	-7.6469998
349	1	7	0.088114001	-0.71100003	6.5910001	-7.0840001
350	1	7	0.088114001	-0.65700001	6.3249998	-9.4530001
351	1	7	0.088114001	0.025	7.9460001	-9.1040001
352	1	7	0.089354001	-2.895	7.3759999	-9.9779997
353	1	7	0.089354001	-2.177	9.0089998	-9.7519999
354	1	6	0.058487002	-2.3269999	8.2270002	-12.16
355	1	6	0.058487002	-1.154	6.9159999	-11.782
356	1	5	0.326756	-0.039999999	9.5	-10.95
357	1	8	-0.496032	1.197	10.064	-7.1220002
358	1	4	0.105436	0.45199999	11.221	-6.8540001
359	1	4	0.078700997	1.363	12.447	-6.789
360	1	8	-0.48685801	2.0350001	12.598	-8.0220003
361	1	4	0.059299	2.8440001	13.757	-7.9749999
362	1	4	0.059556998	3.576	13.92	-9.3039999
363	1	8	-0.486963	2.6300001	14.012	-10.35
364	1	4	0.059556998	3.283	14.149	-11.601
365	1	4	0.059299	3.599	12.778	-12.22
366	1	8	-0.48685801	2.5309999	11.866	-12.033
367	1	4	0.078700997	1.557	12.023	-13.047
368	1	4	0.105436	0.48300001	10.954	-12.876
369	1	8	-0.496032	1.033	9.6879997	-13.125
370	1	6	0.092488997	-0.34299999	11.152	-13.598
371	1	6	0.092488997	0.075999998	10.995	-11.841
372	1	6	0.084646001	1.068	13.023	-12.968
373	1	6	0.084646001	2.0039999	11.904	-14.067
374	1	6	0.085952997	4.4910002	12.358	-11.711
375	1	6	0.085952997	3.892	12.895	-13.29
376	1	6	0.085952997	2.5999999	14.699	-12.283
377	1	6	0.085952997	4.2140002	14.77	-11.549
378	1	6	0.085952997	4.2449999	13.042	-9.4469995
379	1	6	0.085952997	4.1929998	14.848	-9.2480001
380	1	6	0.085952997	2.227	14.669	-7.8010001
381	1	6	0.085952997	3.609	13.671	-7.1669998
382	1	6	0.084646001	2.089	12.314	-5.9569998
383	1	6	0.084646001	0.72299999	13.335	-6.5770001
384	1	6	0.092488997	-0.294	11.365	-7.6659999
385	1	6	0.092488997	-0.105	11.112	-5.895
386	1	1	-0.60582298	11.233	9.118	-4.1329999
387	1	2	0.78579003	10.279	9.8059998	-4.586
388	1	3	-0.46488899	8.967	9.25	-4.7049999
389	1	4	0.025702	8.6829996	7.8660002	-4.3200002
390	1	4	-0.144004	7.198	7.5240002	-4.4959998
391	1	4	-0.141902	6.316	8.2519999	-3.467
392	1	4	-0.141902	4.8449998	7.8109999	-3.533
393	1	4	-0.144004	4.132	8.3219995	-4.7930002
394	1	4	0.025702	2.6389999	7.9790001	-4.756
395	1	3	-0.46488899	1.98	8.4259996	-5.9809999
396	1	2	0.78579003	1.6670001	9.8000002	-6.2350001
397	1	1	-0.60582298	1.948	10.694	-5.3940001
398	1	5	0.326756	1.669	7.711	-6.6760001
399	1	6	0.058487002	2.5209999	6.8769999	-4.664
400	1	6	0.058487002	2.152	8.4499998	-3.8740001
401	1	7	0.089354001	4.256	9.4239998	-4.8670001
402	1	7	0.089354001	4.579	7.855	-5.6960001
403	1	7	0.088114001	4.7810001	6.7020001	-3.484
404	1	7	0.088114001	4.3260002	8.2180004	-2.6370001
405	1	7	0.088114001	6.6950002	8.0240002	-2.4460001
406	1	7	0.088114001	6.382	9.3520002	-3.609
407	1	7	0.089354001	7.0760002	6.4260001	-4.368
408	1	7	0.089354001	6.8870001	7.7859998	-5.5300002
409	1	6	0.058487002	9.2840004	7.1849999	-4.96
410	1	6	0.058487002	8.9860001	7.7010002	-3.263
411	1	5	0.326756	8.2139997	9.8579998	-5.0970001
412	1	8	-0.14517	4.4679999	11.424	-4.961
413	1	4	0.029189	4.1490002	11.263	-6.3169999
414	1	4	0.079614997	4.1360002	12.612	-7.0339999
415	1	8	-0.48905301	5.4070001	13.217	-6.921
416	1	4	0.059556998	5.4060001	14.445	-7.6209998
417	1	4	0.059556998	6.777	15.102	-7.4959998
418	1	8	-0.486963	7.7620001	14.231	-8.0159998
419	1	4	0.059556998	9.0500002	14.812	-7.8990002
420	1	4	0.059299	9.6929998	14.475	-6.5430002
421	1	8	-0.48685801	9.4440002	13.132	-6.1690001
422	1	4	0.078700997	10.395	12.266	-6.7589998
423	1	4	0.105436	10.163	10.848	-6.2459998
424	1	8	-0.496032	10.45	10.788	-4.875
425	1	6	0.092488997	10.831	10.149	-6.8000002
426	1	6	0.092488997	9.1040001	10.555	-6.4260001
427	1	6	0.084646001	10.281	12.256	-7.868
428	1	6	0.084646001	11.441	12.562	-6.4910002
429	1	6	0.085952997	9.2419996	15.128	-5.7680001
430	1	6	0.085952997	10.779	14.732	-6.5570002
431	1	6	0.085952997	9.6859999	14.394	-8.7080002
432	1	6	0.085952997	9.0539999	15.92	-8.0600004
433	1	6	0.085952997	6.9650002	15.322	-6.4219999
434	1	6	0.085952997	6.7550001	16.059	-8.0699997
435	1	6	0.085952997	5.1900001	14.288	-8.7030001
436	1	6	0.085952997	4.6469998	15.142	-7.1919999
437	1	6	0.086126	3.3510001	13.255	-6.5780001
438	1	6	0.086126	3.881	12.427	-8.1029997
439	1	6	0.089978002	4.9120002	10.607	-6.7909999
440	1	6	0.089978002	3.1570001	10.765	-6.428
441	1	1	-0.68137401	-5.77	1.549	-2.1619999
442	1	2	0.54375798	-4.6149998	1.998	-1.936
443	1	3	-0.52130097	-4.026	2.9749999	-2.799
444	1	4	0.031502001	-4.7350001	3.4860001	-3.9719999
445	1	4	-0.145291	-3.8829999	4.5229998	-4.7150002
446	1	4	-0.141719	-4.645	5.2210002	-5.8540001
447	1	4	-0.13751701	-5.0100002	4.2800002	-7.0219998
448	1	4	-0.121705	-6.4879999	3.8599999	-6.9879999
449	1	4	0.184862	-6.8109999	2.8859999	-8.1219997
450	1	3	-0.63700002	-8.2259998	2.5339999	-8.0780001
451	1	9	0.59368497	-8.6169996	1.332	-7.934
452	1	1	-0.46149299	-8.9969997	0.163	-7.7930002
453	1	6	0.033192001	-6.5939999	3.3659999	-9.1000004
454	1	6	0.033192001	-6.171	1.978	-8.0290003
455	1	7	0.082982004	-7.1279998	4.763	-7.092
456	1	7	0.082982004	-6.7280002	3.3759999	-6.0180001
457	1	7	0.086831003	-4.8249998	4.8150001	-7.9790001
458	1	7	0.086831003	-4.3559999	3.3800001	-7.02
459	1	7	0.088114001	-3.9820001	6.0219998	-6.25
460	1	7	0.088114001	-5.546	5.7319999	-5.4489999
461	1	7	0.089354001	-3.559	5.302	-3.9920001
462	1	7	0.089354001	-2.9679999	4.0349998	-5.1170001
463	1	6	0.054901998	-5.6890001	3.954	-3.645
464	1	6	0.054901998	-4.961	2.6359999	-4.6500001
465	1	5	0.32017401	-3.0639999	3.3139999	-2.5710001
466	1	8	-0.14517	3.6489999	11.768	-4.5149999
467	1	4	0.029189	3.707	13.167	-4.5890002
468	1	4	0.079614997	3.335	13.649	-5.9899998
469	1	8	-0.48905301	2.027	13.219	-6.3039999
470	1	4	0.059556998	1.668	13.702	-7.5819998
471	1	4	0.059556998	0.257	13.233	-7.9250002
472	1	8	-0.486963	-0.64300001	13.703	-6.9419999
473	1	4	0.059556998	-1.9630001	13.269	-7.2270002
474	1	4	0.059556998	-2.2449999	11.892	-6.6030002
475	1	8	-0.48482001	-1.691	11.788	-5.3039999
476	1	4	0.051759001	-2.5739999	12.33	-4.3400002
477	1	4	0.074019	-1.994	12.1	-2.9489999
478	1	10	-0.68097699	-1.98	10.727	-2.664
479	1	11	0.38997501	-1.6	10.637	-1.749
480	1	6	0.086434998	-2.6270001	12.632	-2.201
481	1	6	0.086434998	-0.95999998	12.509	-2.902
482	1	6	0.087017	-2.6900001	13.43	-4.4910002
483	1	6	0.087017	-3.579	11.838	-4.382
484	1	6	0.085952997	-1.768	11.115	-7.2350001
485	1	6	0.085952997	-3.339	11.672	-6.632
486	1	6	0.085952997	-2.6670001	14.009	-6.7909999
487	1	6	0.085952997	-2.1949999	13.248	-8.323
488	1	6	0.085952997	0.257	12.122	-7.9689999
489	1	6	0.085952997	-0.0089999996	13.642	-8.9300003
490	1	6	0.085952997	1.683	14.817	-7.6069999
491	1	6	0.085952997	2.3629999	13.308	-8.3620005
492	1	6	0.086126	4.0700002	13.243	-6.7189999
493	1	6	0.086126	3.395	14.762	-5.994
494	1	6	0.089978002	2.9920001	13.596	-3.8540001
495	1	6	0.089978002	4.7270002	13.529	-4.322

Bonds

1	1	1	2
2	2	2	3
3	3	2	39
4	4	3	4
5	5	3	26
6	6	4	5
7	7	4	24
8	7	4	25
9	6	5	6
10	7	5	22
11	7	5	23
12	6	6	7
13	7	6	20
14	7	6	21
15	6	7	8
16	7	7	18
17	7	7	19
18	6	8	9
19	7	8	16
20	7	8	17
21	4	9	10
22	7	9	14
23	7	9	15
24	2	10	11
25	5	10	13
26	1	11	12
27	8	11	442
28	9	27	28
29	3	27	66
30	6	28	29
31	7	28	54
32	7	28	55
33	9	29	30
34	7	29	52
35	7	29	53
36	9	30	31
37	6	31	32
38	7	31	50
39	7	31	51
40	9	32	33
41	7	32	48
42	7	32	49
43	9	33	34
44	6	34	35
45	7	34	46
46	7	34	47
47	9	35	36
48	7	35	44
49	7	35	45
50	9	36	37
51	6	37	38
52	7	37	42
53	7	37	43
54	9	38	39
55	7	38	40
56	7	38	41
57	1	56	57
58	2	57	58
59	3	57	94
60	4	58	59
61	5	58	81
62	6	59	60
63	7	59	79
64	7	59	80
65	6	60	61
66	7	60	77
67	7	60	78
68	6	61	62
69	7	61	75
70	7	61	76
71	6	62	63
72	7	62	73
73	7	62	74
74	6	63	64
75	7	63	71
76	7	63	72
77	4	64	65
78	7	64	69
79	7	64	70
80	2	65	66
81	5	65	68
82	1	66	67
83	9	82	83
84	3	82	121
85	6	83	84
86	7	83	109
87	7	83	110
88	9	84	85
89	7	84	107
90	7	84	108
91	9	85	86
92	6	86	87
93	7	86	105
94	7	86	106
95	9	87	88
96	7	87	103
97	7	87	104
98	9	88	89
99	6	89	90
100	7	89	101
101	7	89	102
102	9	90	91
103	7	90	99
104	7	90	100
105	9	91	92
106	6	92	93
107	7	92	97
108	7	92	98
109	9	93	94
110	7	93	95
111	7	93	96
112	1	111	112
113	2	112	113
114	3	112	149
115	4	113	114
116	5	113	136
117	6	114	115
118	7	114	134
119	7	114	135
120	6	115	116
121	7	115	132
122	7	115	133
123	6	116	117
124	7	116	130
125	7	116	131
126	6	117	118
127	7	117	128
128	7	117	129
129	6	118	119
130	7	118	126
131	7	118	127
132	4	119	120
133	7	119	124
134	7	119	125
135	2	120	121
136	5	120	123
137	1	121	122
138	9	137	138
139	3	137	176
140	6	138	139
141	7	138	164
142	7	138	165
143	9	139	140
144	7	139	162
145	7	139	163
146	9	140	141
147	6	141	142
148	7	141	160
149	7	141	161
150	9	142	143
151	7	142	158
152	7	142	159
153	9	143	144
154	6	144	145
155	7	144	156
156	7	144	157
157	9	145	146
158	7	145	154
159	7	145	155
160	9	146	147
161	6	147	148
162	7	147	152
163	7	147	153
164	9	148	149
165	7	148	150
166	7	148	151
167	1	166	167
168	2	167	168
169	3	167	204
170	4	168	169
171	5	168	191
172	6	169	170
173	7	169	189
174	7	169	190
175	6	170	171
176	7	170	187
177	7	170	188
178	6	171	172
179	7	171	185
180	7	171	186
181	6	172	173
182	7	172	183
183	7	172	184
184	6	173	174
185	7	173	181
186	7	173	182
187	4	174	175
188	7	174	179
189	7	174	180
190	2	175	176
191	5	175	178
192	1	176	177
193	9	192	193
194	3	192	231
195	6	193	194
196	7	193	219
197	7	193	220
198	9	194	195
199	7	194	217
200	7	194	218
201	9	195	196
202	6	196	197
203	7	196	215
204	7	196	216
205	9	197	198
206	7	197	213
207	7	197	214
208	9	198	199
209	6	199	200
210	7	199	211
211	7	199	212
212	9	200	201
213	7	200	209
214	7	200	210
215	9	201	202
216	6	202	203
217	7	202	207
218	7	202	208
219	9	203	204
220	7	203	205
221	7	203	206
222	1	221	222
223	2	222	223
224	3	222	259
225	4	223	224
226	5	223	246
227	6	224	225
228	7	224	244
229	7	224	245
230	6	225	226
231	7	225	242
232	7	225	243
233	6	226	227
234	7	226	240
235	7	226	241
236	6	227	228
237	7	227	238
238	7	227	239
239	6	228	229
240	7	228	236
241	7	228	237
242	4	229	230
243	7	229	234
244	7	229	235
245	2	230	231
246	5	230	233
247	1	231	232
248	9	247	248
249	3	247	286
250	6	248	249
251	7	248	274
252	7	248	275
253	9	249	250
254	7	249	272
255	7	249	273
256	9	250	251
257	6	251	252
258	7	251	270
259	7	251	271
260	9	252	253
261	7	252	268
262	7	252	269
263	9	253	254
264	6	254	255
265	7	254	266
266	7	254	267
267	9	255	256
268	7	255	264
269	7	255	265
270	9	256	257
271	6	257	258
272	7	257	262
273	7	257	263
274	9	258	259
275	7	258	260
276	7	258	261
277	1	276	277
278	2	277	278
279	3	277	314
280	4	278	279
281	5	278	301
282	6	279	280
283	7	279	299
284	7	279	300
285	6	280	281
286	7	280	297
287	7	280	298
288	6	281	282
289	7	281	295
290	7	281	296
291	6	282	283
292	7	282	293
293	7	282	294
294	6	283	284
295	7	283	291
296	7	283	292
297	4	284	285
298	7	284	289
299	7	284	290
300	2	285	286
301	5	285	288
302	1	286	287
303	9	302	303
304	3	302	341
305	6	303	304
306	7	303	329
307	7	303	330
308	9	304	305
309	7	304	327
310	7	304	328
311	9	305	306
312	6	306	307
313	7	306	325
314	7	306	326
315	9	307	308
316	7	307	323
317	7	307	324
318	9	308	309
319	6	309	310
320	7	309	321
321	7	309	322
322	9	310	311
323	7	310	319
324	7	310	320
325	9	311	312
326	6	312	313
327	7	312	317
328	7	312	318
329	9	313	314
330	7	313	315
331	7	313	316
332	1	331	332
333	2	332	333
334	3	332	369
335	4	333	334
336	5	333	356
337	6	334	335