Title

124 atoms
131 bonds
264 angles
660 dihedrals
18 impropers

11 atom types
14 bond types
9 angle types
35 dihedral types
3 improper types
-10.9090004 89.0909996 xlo xhi
-3.131000042 96.86899996 ylo yhi
-16.35499954 83.64500046 zlo zhi
0.0 0.0 0.0 xy xz yz

Masses

1	12.01078
2	15.99943
3	14.00672
4	12.01078
5	1.007947
6	1.007947
7	1.007947
8	15.99943
9	12.01078
10	15.99943
11	1.007947


Pair Coeffs

1	0.086879315	3.4806469
2	0.2102061	3.0398122
3	0.16769152	3.206876
4	0.10884061	3.3795318
5	0.015779483	2.6445434
6	0.014090815	1.1034277
7	0.016409246	2.5832257
8	0.16846514	3.0251065
9	0.21	3.3996695
10	0.20947353	2.99716
11	1.2326e-05	0.53453923

Bond Coeffs

1 harmonic	582.698766451	1.225198386222
2 harmonic	492.76746816345	1.381897776683
3 harmonic	279.1350963404	1.454628925034
4 harmonic	352.0565580496	1.450098586273
5 harmonic	505.144496193	1.019481865027
6 harmonic	264.62148576755	1.52190126495
7 harmonic	370.04670688625	1.093899492634
8 harmonic	301.15400723785	1.345741232799
9 harmonic	366.7408841747	1.425895053732
10 harmonic	300.03137914615	1.451203938761
11 harmonic	366.34047229585	1.464762957261
12 harmonic	602.81384337	1.196112346392
13 harmonic	329.96998057905	1.427343958716
14 harmonic	543.5267831885	0.9716763312559


Angle Coeffs

1 harmonic	55.42182150775	117.3465570514
2 harmonic	63.44422595415	115.5071327674
3 harmonic	57.8982893754	126.8062420451
4 harmonic	53.20531626545	116.5475862634
5 harmonic	48.776492647595	115.6030999533
6 harmonic	65.09061609600001	110.3538806181
7 harmonic	201.41175231035	127.4691416191
8 harmonic	55.07882548015	112.8714009681
9 harmonic	33.56981613361	180


Dihedral Coeffs

1 fourier 1	-0.1488678166443	4	180
2 fourier 1	-0.1230328948768	3	180
3 fourier 1	0.2939295466901	2	0
4 fourier 1	-0.3024127022865	1	0
5 fourier 1	0.182238503271	2	0
6 fourier 1	0.02972342374561	3	0
7 fourier 1	1.809047390003	2	180
8 fourier 1	-0.04816277792592	1	0
9 fourier 1	3.101948770557	2	180
10 fourier 1	-0.4252153282372	1	0
11 fourier 1	2.348375642009	2	180
12 fourier 1	1.256156174911	1	0
13 fourier 1	0.9974165607242	2	180
14 fourier 1	0.1155372516788	3	0
15 fourier 1	0.1040663847541	3	0
16 fourier 1	0.09223874044423	3	0
17 fourier 1	0.3159935921949	2	180
18 fourier 1	0.3247796806857	1	180
19 fourier 1	0.1911926717192	3	0
20 fourier 1	2.779853741805	2	180
21 fourier 1	0.1918272375143	3	0
22 fourier 1	0.9202179876409	1	180
23 fourier 1	0.0473758381877	3	0
24 fourier 1	0.4860993122944	2	180
25 fourier 1	0.8916986138746	1	0
26 fourier 1	1.163809172478	2	180
27 fourier 1	0.1679186987369	1	180
28 fourier 1	0.1115525666802	3	0
29 fourier 1	0.3432490222662	1	0
30 fourier 1	0.457973137376	1	0
31 fourier 1	-1.382973039546	1	0
32 fourier 1	0	1	0
33 fourier 1	0.3445382149273	3	0
34 fourier 1	0.1364556373303	1	0
35 fourier 1	0.3026390167484	3	0


Improper Coeffs

1 0.3333333333333333	-1	2
2 0.3666666666666667	-1	2
3 3.5	-1	2


Atoms

1	1	1	0.53603202	4.0300002	1.353	0.85900003
2	1	2	-0.72654098	3.3570001	1.548	1.906
3	1	3	-0.50276899	3.405	1.35	-0.428
4	1	4	0.019057	1.9680001	1.556	-0.611
5	1	4	-0.082047001	1.1670001	0.301	-0.208
6	1	5	0.071156003	1.454	0.025	0.83200002
7	1	4	-0.17697801	1.493	-0.89399999	-1.123
8	1	5	0.086726002	2.589	-1.075	-1.151
9	1	5	0.086726002	1.165	-0.66000003	-2.1600001
10	1	4	-0.13698401	0.792	-2.1819999	-0.64600003
11	1	5	0.075939998	1.475	-2.747	0.025
12	1	5	0.075939998	0.59100002	-2.826	-1.53
13	1	4	-0.17697801	-0.528	-1.923	0.107
14	1	5	0.086726002	-0.31600001	-1.802	1.193
15	1	5	0.086726002	-1.186	-2.8110001	-0.0080000004
16	1	4	-0.081923001	-1.24	-0.66100001	-0.414
17	1	4	0.01559	-2.615	-0.49900001	0.26699999
18	1	3	-0.45613399	-3.3870001	0.59200001	-0.331
19	1	1	0.77460599	-4.6739998	0.96100003	0.17200001
20	1	2	-0.635243	-5.1789999	0.359	1.156
21	1	6	0.315927	-3.0179999	1.1160001	-1.156
22	1	7	0.059006002	-2.4749999	-0.303	1.353
23	1	7	0.059006002	-3.1949999	-1.442	0.15899999
24	1	5	0.071156003	-1.416	-0.80500001	-1.505
25	1	4	-0.184191	-0.354	0.602	-0.219
26	1	5	0.092565998	-0.59200001	1.317	-1.0369999
27	1	5	0.092565998	-0.60799998	1.11	0.73799998
28	1	7	0.053656001	1.768	1.796	-1.678
29	1	7	0.053656001	1.643	2.4300001	-0.0060000001
30	1	6	0.30821201	4.0110002	1.255	-1.273
31	1	8	-0.49950099	-5.1999998	1.734	-0.278
32	1	4	0.139194	-4.4400001	2.145	-1.383
33	1	4	-0.099339001	-4.5539999	1.125	-2.5280001
34	1	5	0.102538	-4.1929998	0.134	-2.168
35	1	4	-0.160539	-3.723	1.525	-3.7460001
36	1	5	0.107386	-3.6830001	2.632	-3.8499999
37	1	5	0.107386	-2.681	1.15	-3.6489999
38	1	4	-0.078832999	-4.4219999	0.88200003	-4.9499998
39	1	5	0.119019	-3.862	-0.026000001	-5.27
40	1	4	-0.10871	-4.6680002	1.854	-6.132
41	1	5	0.113374	-3.8069999	2.513	-6.3769999
42	1	4	-0.16206101	-5.1880002	1.039	-7.3330002
43	1	5	0.107333	-4.5479999	0.154	-7.5409999
44	1	5	0.107333	-5.211	1.682	-8.2419996
45	1	4	-0.064324997	-6.6090002	0.62199998	-6.8800001
46	1	4	0.060106002	-7.6999998	1.061	-7.8709998
47	1	8	-0.149454	-8.9530001	0.62900001	-7.4190001
48	1	7	0.088330001	-7.7059999	2.1670001	-7.993
49	1	7	0.088330001	-7.4899998	0.602	-8.8629999
50	1	5	0.112995	-6.6659999	-0.486	-6.7800002
51	1	4	-0.095721997	-6.7309999	1.314	-5.4970002
52	1	5	0.123529	-7.7740002	1.478	-5.1479998
53	1	4	-0.141206	-5.9229999	2.5810001	-5.7059999
54	1	5	0.101764	-6.3299999	3.2460001	-6.5
55	1	5	0.101764	-5.7919998	3.1830001	-4.7800002
56	1	4	-0.074767999	-5.8470001	0.52100003	-4.5009999
57	1	5	0.118179	-6.0209999	-0.57700002	-4.5700002
58	1	4	-0.161668	-5.9850001	0.96499997	-3.04
59	1	5	0.107386	-6.5300002	0.20100001	-2.4460001
60	1	5	0.107386	-6.5419998	1.925	-2.961
61	1	7	0.080252998	-4.8099999	3.138	-1.7180001
62	1	7	0.080252998	-3.372	2.266	-1.0880001
63	1	1	0.53603202	5.098	1.193	0.93599999
64	1	2	-0.72654098	5.5289998	0.089000002	1.362
65	1	3	-0.50276798	6	2.2349999	0.55400002
66	1	4	0.019057	7.4510002	2.056	0.62800002
67	1	4	-0.082278997	8.2060003	3.3469999	0.23800001
68	1	5	0.071156003	7.8600001	3.642	-0.778
69	1	4	-0.17697801	7.869	4.5040002	1.2180001
70	1	5	0.086726002	6.927	5.0009999	0.89999998
71	1	5	0.086726002	7.7090001	4.1149998	2.2479999
72	1	4	-0.13708401	8.9870005	5.5489998	1.268
73	1	5	0.075939998	9.1330004	5.9679999	0.24699999
74	1	5	0.075939998	8.6850004	6.3870001	1.933
75	1	4	-0.17265201	10.313	4.9439998	1.772
76	1	5	0.087137997	11.147	5.526	1.3200001
77	1	5	0.087137997	10.38	5.079	2.8740001
78	1	4	-0.058309	10.466	3.4349999	1.449
79	1	4	0.164619	11.953	3.043	1.393
80	1	3	-0.67321199	12.093	1.592	1.3
81	1	9	0.59609598	12.71	0.91600001	2.184
82	1	2	-0.526353	13.31	0.25799999	3.0439999
83	1	7	0.053885002	12.436	3.507	0.50599998
84	1	7	0.053885002	12.471	3.428	2.302
85	1	5	0.074721999	9.9949999	2.855	2.2750001
86	1	4	-0.17985199	9.7349997	3.0840001	0.13699999
87	1	5	0.092974998	9.9309998	2.026	-0.146
88	1	5	0.092974998	10.155	3.7090001	-0.68199998
89	1	7	0.053656001	7.737	1.234	-0.063000001
90	1	7	0.053656001	7.7360001	1.7539999	1.66
91	1	6	0.30821201	5.5900002	3.1259999	0.19499999
92	1	8	-0.147799	-9.6110001	0.93300003	-8.0959997
93	1	4	0.060247	-8.875	1.5140001	-9.1389999
94	1	4	-0.091415003	-8.1920004	0.43000001	-9.9879999
95	1	5	0.105303	-7.5170002	-0.17	-9.3369999
96	1	4	-0.16145299	-7.3600001	1.022	-11.125
97	1	5	0.107279	-7.8189998	1.9630001	-11.5
98	1	5	0.107279	-6.3299999	1.255	-10.776
99	1	4	-0.078166001	-7.3330002	-0.054000001	-12.218
100	1	5	0.119019	-6.3509998	-0.57800001	-12.206
101	1	4	-0.10871	-7.6869998	0.472	-13.633
102	1	5	0.113374	-7.2059999	1.438	-13.901
103	1	4	-0.15653899	-7.428	-0.65600002	-14.651
104	1	5	0.107333	-6.4190001	-1.104	-14.525
105	1	5	0.107333	-7.5120001	-0.25400001	-15.686
106	1	4	-0.106895	-8.5489998	-1.675	-14.332
107	1	4	0.13785399	-9.4160004	-2.006	-15.558
108	1	10	-0.68387997	-10.388	-2.9530001	-15.209
109	1	11	0.37066299	-10.909	-3.131	-16.035
110	1	7	0.071618997	-9.908	-1.0930001	-15.957
111	1	7	0.071618997	-8.7629995	-2.428	-16.355
112	1	5	0.113061	-8.1040001	-2.6259999	-13.962
113	1	4	-0.089325003	-9.3400002	-0.95499998	-13.207
114	1	5	0.123529	-10.387	-1.304	-13.076
115	1	4	-0.141206	-9.198	0.50199997	-13.605
116	1	5	0.101764	-9.6450005	0.74199998	-14.595
117	1	5	0.101764	-9.6120005	1.211	-12.855
118	1	4	-0.074106	-8.4829998	-1.028	-11.917
119	1	5	0.118179	-8.0959997	-2.056	-11.73
120	1	4	-0.162589	-9.1899996	-0.51499999	-10.658
121	1	5	0.107279	-9.4469995	-1.357	-9.9790001
122	1	5	0.107279	-10.13	0.021	-10.913
123	1	7	0.088446997	-9.5649996	2.115	-9.7690001
124	1	7	0.088446997	-8.1079998	2.2079999	-8.724

Bonds

1	1	1	2
2	2	1	3
3	3	1	63
4	4	3	4
5	5	3	30
6	6	4	5
7	7	4	28
8	7	4	29
9	7	5	6
10	6	5	7
11	6	5	25
12	7	7	8
13	7	7	9
14	6	7	10
15	7	10	11
16	7	10	12
17	6	10	13
18	7	13	14
19	7	13	15
20	6	13	16
21	6	16	17
22	7	16	24
23	6	16	25
24	4	17	18
25	7	17	22
26	7	17	23
27	2	18	19
28	5	18	21
29	1	19	20
30	8	19	31
31	7	25	26
32	7	25	27
33	9	31	32
34	6	32	33
35	7	32	61
36	7	32	62
37	7	33	34
38	6	33	35
39	6	33	58
40	7	35	36
41	7	35	37
42	6	35	38
43	7	38	39
44	6	38	40
45	6	38	56
46	7	40	41
47	6	40	42
48	6	40	53
49	7	42	43
50	7	42	44
51	6	42	45
52	6	45	46
53	7	45	50
54	6	45	51
55	9	46	47
56	7	46	48
57	7	46	49
58	10	47	92
59	7	51	52
60	6	51	53
61	6	51	56
62	7	53	54
63	7	53	55
64	7	56	57
65	6	56	58
66	7	58	59
67	7	58	60
68	1	63	64
69	2	63	65
70	4	65	66
71	5	65	91
72	6	66	67
73	7	66	89
74	7	66	90
75	7	67	68
76	6	67	69
77	6	67	86
78	7	69	70
79	7	69	71
80	6	69	72
81	7	72	73
82	7	72	74
83	6	72	75
84	7	75	76
85	7	75	77
86	6	75	78
87	6	78	79
88	7	78	85
89	6	78	86
90	11	79	80
91	7	79	83
92	7	79	84
93	12	80	81
94	1	81	82
95	7	86	87
96	7	86	88
97	9	92	93
98	6	93	94
99	7	93	123
100	7	93	124
101	7	94	95
102	6	94	96
103	6	94	120
104	7	96	97
105	7	96	98
106	6	96	99
107	7	99	100
108	6	99	101
109	6	99	118
110	7	101	102
111	6	101	103
112	6	101	115
113	7	103	104
114	7	103	105
115	6	103	106
116	6	106	107
117	7	106	112
118	6	106	113
119	13	107	108
120	7	107	110
121	7	107	111
122	14	108	109
123	7	113	114
124	6	113	115
125	6	113	118
126	7	115	116
127	7	115	117
128	7	118	119
129	6	118	120
130	7	120	121
131	7	120	122

Angles

1	5	11	10	12
2	4	65	66	89
3	4	38	40	42
4	4	16	25	26
5	4	95	94	120
6	4	37	35	38
7	4	99	118	119
8	4	53	51	56
9	4	94	96	97
10	6	19	31	32
11	4	32	33	58
12	4	35	38	56
13	4	5	25	27
14	4	35	38	40
15	4	40	53	55
16	4	42	40	53
17	4	33	32	62
18	4	74	72	75
19	4	31	32	33
20	4	112	106	113
21	4	5	4	29
22	5	83	79	84
23	4	16	17	18
24	4	6	5	7
25	4	70	69	72
26	4	43	42	45
27	3	18	19	31
28	4	11	10	13
29	4	99	101	102
30	4	7	5	25
31	4	45	46	47
32	4	73	72	75
33	4	39	38	56
34	5	26	25	27
35	4	6	5	25
36	4	33	35	36
37	4	102	101	115
38	4	72	75	76
39	1	1	3	4
40	4	17	16	25
41	4	51	56	57
42	4	103	101	115
43	4	113	118	119
44	4	98	96	99
45	5	73	72	74
46	4	106	113	118
47	6	47	92	93
48	8	79	80	81
49	4	14	13	16
50	4	45	51	52
51	4	93	94	96
52	4	67	86	78
53	4	17	16	24
54	4	78	86	87
55	4	101	103	104
56	4	16	17	23
57	7	20	19	31
58	5	8	7	9
59	4	34	33	35
60	6	107	108	109
61	4	75	78	86
62	4	51	56	58
63	4	67	69	70
64	4	67	86	88
65	4	94	96	99
66	4	105	103	106
67	4	101	115	116
68	4	69	72	75
69	4	108	107	111
70	2	63	65	91
71	4	34	33	58
72	4	108	107	110
73	4	66	67	68
74	4	40	42	45
75	4	7	10	11
76	5	36	35	37
77	4	40	38	56
78	5	14	13	15
79	4	94	96	98
80	4	101	115	113
81	4	69	72	74
82	4	92	93	123
83	4	12	10	13
84	4	5	7	8
85	4	80	79	84
86	4	75	78	79
87	4	99	101	115
88	6	46	47	92
89	4	51	53	55
90	4	67	69	71
91	4	65	66	67
92	5	43	42	44
93	4	16	25	27
94	4	8	7	10
95	4	95	94	96
96	5	121	120	122
97	4	31	32	61
98	4	104	103	106
99	4	15	13	16
100	5	87	86	88
101	4	33	58	59
102	4	42	45	50
103	3	2	1	3
104	4	10	13	16
105	4	96	99	100
106	4	42	45	51
107	4	51	53	54
108	4	45	46	49
109	4	106	113	114
110	4	50	45	51
111	4	78	79	80
112	4	93	94	95
113	5	110	107	111
114	4	67	66	90
115	4	106	113	115
116	4	31	32	62
117	5	104	103	105
118	4	115	113	118
119	4	33	35	37
120	4	76	75	78
121	4	118	120	121
122	4	96	99	101
123	4	38	56	57
124	4	45	51	56
125	4	99	118	113
126	4	103	106	107
127	4	10	13	14
128	2	19	18	21
129	5	54	53	55
130	4	118	120	122
131	3	64	63	65
132	5	89	66	90
133	4	4	5	7
134	4	56	58	59
135	4	46	45	50
136	4	68	67	69
137	4	96	99	118
138	4	113	115	116
139	5	76	75	77
140	4	93	94	120
141	4	46	45	51
142	4	99	118	120
143	2	1	3	30
144	4	52	51	56
145	4	67	66	89
146	4	32	33	34
147	4	40	42	44
148	2	17	18	21
149	4	35	33	58
150	4	40	42	43
151	5	48	46	49
152	4	75	78	85
153	2	66	65	91
154	4	67	86	87
155	4	38	40	41
156	4	4	5	25
157	5	28	4	29
158	4	38	56	58
159	4	92	93	124
160	4	119	118	120
161	4	106	107	110
162	4	107	106	113
163	4	35	38	39
164	4	45	46	48
165	4	99	101	103
166	4	71	69	72
167	4	3	4	5
168	4	66	67	69
169	3	1	63	64
170	4	5	4	28
171	4	36	35	38
172	4	100	99	101
173	2	4	3	30
174	4	47	46	49
175	4	72	75	78
176	4	40	53	51
177	4	78	79	84
178	4	94	93	123
179	4	101	103	106
180	4	102	101	103
181	4	45	51	53
182	4	80	79	83
183	3	18	19	20
184	4	13	16	25
185	4	113	118	120
186	4	67	69	72
187	5	22	17	23
188	4	85	78	86
189	4	92	93	94
190	4	5	7	10
191	4	100	99	118
192	4	38	56	51
193	3	3	1	63
194	4	33	58	60
195	4	97	96	99
196	4	114	113	118
197	4	72	75	77
198	4	79	78	86
199	3	1	63	65
200	4	103	106	113
201	4	106	107	111
202	4	10	13	15
203	4	13	16	24
204	4	52	51	53
205	4	57	56	58
206	1	63	65	66
207	4	114	113	115
208	5	123	93	124
209	4	18	17	22
210	4	78	79	83
211	4	94	120	121
212	4	3	4	28
213	4	24	16	25
214	4	44	42	45
215	4	103	106	112
216	4	68	67	86
217	4	33	58	56
218	4	40	53	54
219	5	97	96	98
220	4	101	103	105
221	4	94	120	118
222	4	94	120	122
223	4	107	106	112
224	4	78	86	88
225	4	5	25	16
226	4	7	10	12
227	4	65	66	90
228	5	59	58	60
229	4	16	17	22
230	4	39	38	40
231	4	69	67	86
232	4	33	35	38
233	4	5	7	9
234	1	17	18	19
235	4	79	78	85
236	4	94	93	124
237	4	96	94	120
238	4	101	99	118
239	4	106	107	108
240	5	116	115	117
241	4	9	7	10
242	3	2	1	63
243	9	80	81	82
244	4	18	17	23
245	4	41	40	53
246	4	4	5	6
247	4	3	4	29
248	5	61	32	62
249	4	5	25	26
250	4	66	67	86
251	4	56	58	60
252	4	101	115	117
253	4	33	32	61
254	4	47	46	48
255	4	77	75	78
256	4	41	40	42
257	4	113	115	117
258	4	7	10	13
259	4	13	16	17
260	5	70	69	71
261	4	69	72	73
262	4	42	45	46
263	4	38	40	53
264	4	32	33	35

Dihedrals

1	19	52	51	53	54
2	19	41	40	53	54
3	15	39	38	56	58
4	19	34	33	58	60
5	15	58	33	32	62
6	19	83	79	78	85
7	31	78	79	80	81
8	19	95	94	96	98
9	19	110	107	106	112
10	14	103	106	107	108
11	15	107	106	113	114
12	15	95	94	120	118
13	15	120	94	93	123
14	15	70	69	72	75
15	15	66	67	69	70
16	15	66	67	86	88
17	16	42	40	38	56
17	17	42	40	38	56
17	18	42	40	38	56
18	16	103	106	113	115
18	17	103	106	113	115
18	18	103	106	113	115
19	15	69	67	66	89
20	15	38	40	42	43
21	19	15	13	16	24
22	15	75	78	86	88
23	16	33	58	56	51
23	17	33	58	56	51
23	18	33	58	56	51
24	9	2	1	3	4
24	10	2	1	3	4
25	15	55	53	51	56
26	19	111	107	106	112
27	15	113	118	120	121
28	15	86	67	66	90
29	24	20	19	18	21
29	25	20	19	18	21
30	15	35	33	32	62
31	16	101	99	118	120
31	17	101	99	118	120
31	18	101	99	118	120
32	15	96	99	118	119
33	16	46	45	51	56
33	17	46	45	51	56
33	18	46	45	51	56
34	23	47	92	93	124
35	14	3	4	5	7
36	15	105	103	101	115
37	15	86	67	66	89
38	16	72	75	78	86
38	17	72	75	78	86
38	18	72	75	78	86
39	15	40	42	45	50
40	16	35	38	40	42
40	17	35	38	40	42
40	18	35	38	40	42
41	16	40	42	45	51
41	17	40	42	45	51
41	18	40	42	45	51
42	15	68	67	86	78
43	15	103	101	115	117
44	15	94	120	118	119
45	19	97	96	99	100
46	15	117	115	113	118
47	15	13	16	17	22
48	16	101	99	118	113
48	17	101	99	118	113
48	18	101	99	118	113
49	15	110	107	106	113
50	16	46	45	51	53
50	17	46	45	51	53
50	18	46	45	51	53
51	16	38	56	51	45
51	17	38	56	51	45
51	18	38	56	51	45
52	15	41	40	42	45
53	15	44	42	45	46
54	16	67	86	78	79
54	17	67	86	78	79
54	18	67	86	78	79
55	15	99	101	115	116
56	19	119	118	120	122
57	16	99	101	115	113
57	17	99	101	115	113
57	18	99	101	115	113
58	7	17	18	19	31
58	8	17	18	19	31
59	16	33	58	56	38
59	17	33	58	56	38
59	18	33	58	56	38
60	15	34	33	35	38
61	15	5	25	16	24
62	16	5	7	10	13
62	17	5	7	10	13
62	18	5	7	10	13
63	5	19	18	17	22
63	6	19	18	17	22
64	15	111	107	106	113
65	16	96	99	101	115
65	17	96	99	101	115
65	18	96	99	101	115
66	15	7	10	13	14
67	15	17	16	25	26
68	15	40	38	56	57
69	15	42	45	46	48
70	19	39	38	56	57
71	19	34	33	58	59
72	15	58	33	32	61
73	15	45	51	56	57
74	16	94	120	118	113
74	17	94	120	118	113
74	18	94	120	118	113
75	19	37	35	38	39
76	15	77	75	78	79
77	15	5	7	10	11
78	15	103	106	107	110
79	19	14	13	16	24
80	5	28	4	3	30
80	6	28	4	3	30
81	15	93	94	96	97
82	15	8	7	10	13
83	16	94	120	118	99
83	17	94	120	118	99
83	18	94	120	118	99
84	15	44	42	40	53
85	16	35	38	56	58
85	17	35	38	56	58
85	18	35	38	56	58
86	16	35	33	58	56
86	17	35	33	58	56
86	18	35	33	58	56
87	28	92	93	94	95
87	29	92	93	94	95
88	19	41	40	42	44
89	9	64	63	65	66
89	10	64	63	65	66
90	16	103	106	113	118
90	17	103	106	113	118
90	18	103	106	113	118
91	14	18	17	16	25
92	16	7	5	25	16
92	17	7	5	25	16
92	18	7	5	25	16
93	16	69	72	75	78
93	17	69	72	75	78
93	18	69	72	75	78
94	19	50	45	51	52
95	15	97	96	94	120
96	35	109	108	107	110
97	16	53	51	56	58
97	17	53	51	56	58
97	18	53	51	56	58
98	15	38	56	51	52
99	15	98	96	94	120
100	15	7	10	13	15
101	19	85	78	86	87
102	1	16	17	18	19
102	2	16	17	18	19
102	3	16	17	18	19
102	4	16	17	18	19
103	15	35	33	32	61
104	14	65	66	67	69
105	15	68	67	69	72
106	14	92	93	94	120
107	16	101	103	106	113
107	17	101	103	106	113
107	18	101	103	106	113
108	15	22	17	16	25
109	14	75	78	79	80
110	19	6	5	7	9
111	16	96	94	120	118
111	17	96	94	120	118
111	18	96	94	120	118
112	26	20	19	31	32
112	27	20	19	31	32
113	19	73	72	75	76
114	5	5	4	3	30
114	6	5	4	3	30
115	16	93	94	96	99
115	17	93	94	96	99
115	18	93	94	96	99
116	31	81	80	79	84
117	15	7	5	4	29
118	15	4	5	7	9
119	19	39	38	40	41
120	15	106	113	115	117
121	21	19	31	32	33
121	22	19	31	32	33
122	19	95	94	120	121
123	16	66	67	86	78
123	17	66	67	86	78
123	18	66	67	86	78
124	15	103	106	113	114
125	15	10	13	16	24
126	15	114	113	118	120
127	16	115	113	118	120
127	17	115	113	118	120
127	18	115	113	118	120
128	15	43	42	45	46
129	15	79	78	86	87
130	13	2	1	63	65
131	15	100	99	118	113
132	15	6	5	7	10
133	15	32	33	58	60
134	15	32	33	35	37
135	16	4	5	7	10
135	17	4	5	7	10
135	18	4	5	7	10
136	15	69	67	86	87
137	19	48	46	45	50
138	15	50	45	51	56
139	15	48	46	45	51
140	15	76	75	78	79
141	16	67	69	72	75
141	17	67	69	72	75
141	18	67	69	72	75
142	15	84	79	78	86
143	16	99	118	113	115
143	17	99	118	113	115
143	18	99	118	113	115
144	15	99	118	120	121
145	5	1	3	4	29
145	6	1	3	4	29
146	15	113	118	120	122
147	19	52	51	56	57
148	15	46	45	51	52
149	28	47	46	45	50
149	29	47	46	45	50
150	15	5	7	10	12
151	16	72	69	67	86
151	17	72	69	67	86
151	18	72	69	67	86
152	15	69	67	66	90
153	19	105	103	106	112
154	14	47	46	45	51
155	16	4	5	25	16
155	17	4	5	25	16
155	18	4	5	25	16
156	15	71	69	72	75
157	14	80	79	78	85
158	15	9	7	5	25
159	11	64	63	65	91
159	12	64	63	65	91
160	15	97	96	99	118
161	16	10	7	5	25
161	17	10	7	5	25
161	18	10	7	5	25
162	15	75	78	79	83
163	19	114	113	115	117
164	15	43	42	40	53
165	15	50	45	51	53
166	16	38	56	51	53
166	17	38	56	51	53
166	18	38	56	51	53
167	15	120	94	93	124
168	14	13	16	17	18
169	20	18	19	31	32
170	15	35	38	56	57
171	19	6	5	7	8
172	7	1	63	65	66
172	8	1	63	65	66
173	19	57	56	58	59
174	16	101	115	113	118
174	17	101	115	113	118
174	18	101	115	113	118
175	15	4	5	7	8
176	23	19	31	32	62
177	16	38	40	53	51
177	17	38	40	53	51
177	18	38	40	53	51
178	15	53	51	56	57
179	16	99	96	94	120
179	17	99	96	94	120
179	18	99	96	94	120
180	33	106	107	108	109
180	34	106	107	108	109
181	16	101	103	106	107
181	17	101	103	106	107
181	18	101	103	106	107
182	30	46	47	92	93
183	19	85	78	86	88
184	15	112	106	113	115
185	15	38	40	53	55
186	19	68	67	69	71
187	19	68	67	86	87
188	15	98	96	99	118
189	16	66	67	69	72
189	17	66	67	69	72
189	18	66	67	69	72
190	16	93	94	120	118
190	17	93	94	120	118
190	18	93	94	120	118
191	19	102	101	103	104
192	19	73	72	75	77
193	15	35	33	58	59
194	15	7	5	4	28
195	19	68	67	66	90
196	19	6	5	25	27
197	15	33	58	56	57
198	15	36	35	33	58
199	15	105	103	106	113
200	15	103	106	107	111
201	19	114	113	115	116
202	16	40	53	51	56
202	17	40	53	51	56
202	18	40	53	51	56
203	15	4	5	25	27
204	15	79	78	86	88
205	15	101	115	113	114
206	15	13	16	25	27
207	14	31	32	33	58
208	15	38	56	58	60
209	15	104	103	101	115
210	13	2	1	63	64
211	15	11	10	13	16
212	16	67	86	78	75
212	17	67	86	78	75
212	18	67	86	78	75
213	15	32	33	35	36
214	16	101	115	113	106
214	17	101	115	113	106
214	18	101	115	113	106
215	16	7	10	13	16
215	17	7	10	13	16
215	18	7	10	13	16
216	15	69	67	86	88
217	15	101	103	106	112
218	19	68	67	66	89
219	16	106	113	118	120
219	17	106	113	118	120
219	18	106	113	118	120
220	5	21	18	17	23
220	6	21	18	17	23
221	16	96	99	118	113
221	17	96	99	118	113
221	18	96	99	118	113
222	19	41	40	42	43
223	35	109	108	107	111
224	15	42	40	53	54
225	5	1	3	4	28
225	6	1	3	4	28
226	19	11	10	13	14
227	15	7	5	25	26
228	16	94	96	99	118
228	17	94	96	99	118
228	18	94	96	99	118
229	19	100	99	101	102
230	14	80	79	78	86
231	19	24	16	25	27
232	15	83	79	78	86
233	15	23	17	16	25
234	16	40	42	45	46
234	17	40	42	45	46
234	18	40	42	45	46
235	19	95	94	93	123
236	16	5	25	16	13
236	17	5	25	16	13
236	18	5	25	16	13
237	23	48	46	47	92
238	19	52	51	53	55
239	7	1	63	65	91
239	8	1	63	65	91
240	15	75	78	79	84
241	15	96	94	120	121
242	15	25	5	4	29
243	15	103	101	115	116
244	15	93	94	96	98
245	19	95	94	120	122
246	19	71	69	72	74
247	15	102	101	103	106
248	15	15	13	16	25
249	15	36	35	38	56
250	15	39	38	40	53
251	16	103	101	115	113
251	17	103	101	115	113
251	18	103	101	115	113
252	13	3	1	63	65
253	19	11	10	13	15
254	16	72	75	78	79
254	17	72	75	78	79
254	18	72	75	78	79
255	14	3	4	5	25
256	15	67	86	78	85
257	19	8	7	10	11
258	19	70	69	72	74
259	15	74	72	75	78
260	15	100	99	118	120
261	15	99	118	113	114
262	16	32	33	58	56
262	17	32	33	58	56
262	18	32	33	58	56
263	19	102	101	103	105
264	5	63	65	66	90
264	6	63	65	66	90
265	16	99	118	113	106
265	17	99	118	113	106
265	18	99	118	113	106
266	15	112	106	113	118
267	15	99	118	120	122
268	15	105	103	106	107
269	15	99	101	103	104
270	15	69	72	75	76
271	16	40	53	51	45
271	17	40	53	51	45
271	18	40	53	51	45
272	15	35	38	40	41
273	19	6	5	25	26
274	19	77	75	78	85
275	5	63	65	66	89
275	6	63	65	66	89
276	15	15	13	16	17
277	15	38	40	53	54
278	15	4	5	25	26
279	5	16	17	18	21
279	6	16	17	18	21
280	15	96	99	101	102
281	16	33	35	38	40
281	17	33	35	38	40
281	18	33	35	38	40
282	15	100	99	101	103
283	15	72	75	78	85
284	19	6	5	4	29
285	5	90	66	65	91
285	6	90	66	65	91
286	19	112	106	113	114
287	19	34	33	35	37
288	15	6	5	25	16
289	16	45	42	40	53
289	17	45	42	40	53
289	18	45	42	40	53
290	19	24	16	25	26
291	15	93	94	120	121
292	7	4	3	1	63
292	8	4	3	1	63
293	15	96	94	93	123
294	15	13	16	17	23
295	7	30	3	1	63
295	8	30	3	1	63
296	15	96	94	93	124
297	15	40	53	51	52
298	15	106	113	115	116
299	15	25	5	4	28
300	16	103	101	99	118
300	17	103	101	99	118
300	18	103	101	99	118
301	15	37	35	33	58
302	16	33	35	38	56
302	17	33	35	38	56
302	18	33	35	38	56
303	15	14	13	16	25
304	19	8	7	10	12
305	1	63	65	66	67
305	2	63	65	66	67
305	3	63	65	66	67
305	4	63	65	66	67
306	16	69	67	86	78
306	17	69	67	86	78
306	18	69	67	86	78
307	19	23	17	16	24
308	16	40	38	56	58
308	17	40	38	56	58
308	18	40	38	56	58
309	15	17	16	25	27
310	19	95	94	96	97
311	13	3	1	63	64
312	16	99	101	103	106
312	17	99	101	103	106
312	18	99	101	103	106
313	14	108	107	106	113
314	32	79	80	81	82
315	16	45	51	56	58
315	17	45	51	56	58
315	18	45	51	56	58
316	19	70	69	72	73
317	16	5	25	16	17
317	17	5	25	16	17
317	18	5	25	16	17
318	19	76	75	78	85
319	19	49	46	45	50
320	15	37	35	38	40
321	14	65	66	67	68
322	15	49	46	45	51
323	16	38	40	42	45
323	17	38	40	42	45
323	18	38	40	42	45
324	15	99	101	103	105
325	16	96	99	118	120
325	17	96	99	118	120
325	18	96	99	118	120
326	14	18	17	16	24
327	15	100	99	101	115
328	15	69	72	75	77
329	15	104	103	106	113
330	15	99	101	115	117
331	15	14	13	16	17
332	15	45	51	53	55
333	16	96	99	101	103
333	17	96	99	101	103
333	18	96	99	101	103
334	14	31	32	33	35
335	15	77	75	78	86
336	19	44	42	45	50
337	19	74	72	75	77
338	15	101	99	118	119
339	15	51	56	58	60
340	15	44	42	45	51
341	15	96	94	120	122
342	15	95	94	96	99
343	5	89	66	65	91
343	6	89	66	65	91
344	16	10	13	16	25
344	17	10	13	16	25
344	18	10	13	16	25
345	23	47	92	93	123
346	15	32	33	58	59
347	19	22	17	16	24
348	15	33	35	38	39
349	5	29	4	3	30
349	6	29	4	3	30
350	15	37	35	38	56
351	15	36	35	38	40
352	14	42	45	46	47
353	16	107	106	113	115
353	17	107	106	113	115
353	18	107	106	113	115
354	31	81	80	79	83
355	19	6	5	4	28
356	15	39	38	40	42
357	16	40	38	56	51
357	17	40	38	56	51
357	18	40	38	56	51
358	19	34	33	35	36
359	15	38	40	42	44
360	16	53	40	38	56
360	17	53	40	38	56
360	18	53	40	38	56
361	15	39	38	56	51
362	15	71	69	67	86
363	15	41	40	53	51
364	15	9	7	10	13
365	15	42	45	51	52
366	15	106	113	118	119
367	19	41	40	53	55
368	16	32	33	35	38
368	17	32	33	35	38
368	18	32	33	35	38
369	16	10	13	16	17
369	17	10	13	16	17
369	18	10	13	16	17
370	19	95	94	93	124
371	15	67	69	72	74
372	15	97	96	99	101
373	19	102	101	115	117
374	19	9	7	10	11
375	19	34	33	32	62
376	19	84	79	78	85
377	15	52	51	56	58
378	16	35	38	40	53
378	17	35	38	40	53
378	18	35	38	40	53
379	23	49	46	47	92
380	11	2	1	3	30
380	12	2	1	3	30
381	23	19	31	32	61
382	23	47	92	93	94
383	19	98	96	99	100
384	15	42	45	46	49
385	14	65	66	67	86
386	15	76	75	78	86
387	15	116	115	113	118
388	15	12	10	13	16
389	15	70	69	67	86
390	19	68	67	69	70
391	19	68	67	86	88
392	15	104	103	106	107
393	15	66	67	69	71
394	15	66	67	86	87
395	19	43	42	45	50
396	15	98	96	99	101
397	15	41	40	38	56
398	15	75	78	86	87
399	19	119	118	120	121
400	16	42	45	51	56
400	17	42	45	51	56
400	18	42	45	51	56
401	15	43	42	45	51
402	14	92	93	94	96
403	15	73	72	75	78
404	5	67	66	65	91
404	6	67	66	65	91
405	19	12	10	13	14
406	19	57	56	58	60
407	15	93	94	120	122
408	28	31	32	33	34
408	29	31	32	33	34
409	19	100	99	118	119
410	19	74	72	75	76
411	15	51	56	58	59
412	28	108	107	106	112
412	29	108	107	106	112
413	15	13	16	25	26
414	15	38	56	58	59
415	19	102	101	115	116
416	14	3	4	5	6
417	16	106	103	101	115
417	17	106	103	101	115
417	18	106	103	101	115
418	15	102	101	115	113
419	5	21	18	17	22
419	6	21	18	17	22
420	16	42	45	51	53
420	17	42	45	51	53
420	18	42	45	51	53
421	19	104	103	106	112
422	19	36	35	38	39
423	15	45	51	53	54
424	15	35	33	58	60
425	15	94	96	99	100
426	16	42	40	53	51
426	17	42	40	53	51
426	18	42	40	53	51
427	19	114	113	118	119
428	15	115	113	118	119
429	15	54	53	51	56
430	15	42	40	53	55
431	23	45	46	47	92
432	19	12	10	13	15
433	16	107	106	113	118
433	17	107	106	113	118
433	18	107	106	113	118
434	19	9	7	10	12
435	15	34	33	58	56
436	16	94	96	99	101
436	17	94	96	99	101
436	18	94	96	99	101
437	16	115	101	99	118
437	17	115	101	99	118
437	18	115	101	99	118
438	15	67	69	72	73
439	16	35	38	56	51
439	17	35	38	56	51
439	18	35	38	56	51
440	15	8	7	5	25
441	19	34	33	32	61
442	7	17	18	19	20
442	8	17	18	19	20
443	15	102	101	99	118
444	7	21	18	19	31
444	8	21	18	19	31
445	19	71	69	72	73
446	1	1	3	4	5
446	2	1	3	4	5
446	3	1	3	4	5
446	4	1	3	4	5
447	15	7	5	25	27
448	5	19	18	17	23
448	6	19	18	17	23
449	16	38	35	33	58
449	17	38	35	33	58
449	18	38	35	33	58

Impropers

127	2	1	2	3	63
139	3	19	20	31	18
141	3	19	31	18	20
243	1	65	63	66	91
265	2	63	64	65	1
300	1	18	19	21	17
353	1	65	66	91	63
364	2	63	65	1	64
430	2	63	1	64	65
487	2	1	3	63	2
519	1	3	30	1	4
581	3	19	18	20	31
633	1	65	91	63	66
657	2	1	63	2	3
670	1	18	21	17	19
820	1	3	1	4	30
828	1	18	17	19	21
870	1	3	4	30	1
