Title

124 atoms
131 bonds
264 angles
660 dihedrals
18 impropers

11 atom types
14 bond types
9 angle types
35 dihedral types
3 improper types
-10.9090004 89.0909996 xlo xhi
-3.131000042 96.86899996 ylo yhi
-16.35499954 83.64500046 zlo zhi
0.0 0.0 0.0 xy xz yz

Masses

1	12.01078
2	15.99943
3	14.00672
4	12.01078
5	1.007947
6	1.007947
7	1.007947
8	15.99943
9	12.01078
10	15.99943
11	1.007947


Pair Coeffs

1	0.086879315	3.4806469
2	0.2102061	3.0398122
3	0.16769152	3.206876
4	0.10884061	3.3795318
5	0.015779483	2.6445434
6	0.014090815	1.1034277
7	0.016409246	2.5832257
8	0.16846514	3.0251065
9	0.21	3.3996695
10	0.20947353	2.99716
11	1.2326e-05	0.53453923

Bond Coeffs

1 harmonic	582.698766451	1.225198386222
2 harmonic	492.76746816345	1.381897776683
3 harmonic	279.1350963404	1.454628925034
4 harmonic	352.0565580496	1.450098586273
5 harmonic	505.144496193	1.019481865027
6 harmonic	264.62148576755	1.52190126495
7 harmonic	370.04670688625	1.093899492634
8 harmonic	301.15400723785	1.345741232799
9 harmonic	366.7408841747	1.425895053732
10 harmonic	300.03137914615	1.451203938761
11 harmonic	366.34047229585	1.464762957261
12 harmonic	602.81384337	1.196112346392
13 harmonic	329.96998057905	1.427343958716
14 harmonic	543.5267831885	0.9716763312559


Angle Coeffs

1 harmonic	55.42182150775	117.3465570514
2 harmonic	63.44422595415	115.5071327674
3 harmonic	57.8982893754	126.8062420451
4 harmonic	53.20531626545	116.5475862634
5 harmonic	48.776492647595	115.6030999533
6 harmonic	65.09061609600001	110.3538806181
7 harmonic	201.41175231035	127.4691416191
8 harmonic	55.07882548015	112.8714009681
9 harmonic	33.56981613361	180


Dihedral Coeffs

1 fourier 1	-0.1488678166443	4	180
2 fourier 1	-0.1230328948768	3	180
3 fourier 1	0.2939295466901	2	0
4 fourier 1	-0.3024127022865	1	0
5 fourier 1	0.182238503271	2	0
6 fourier 1	0.02972342374561	3	0
7 fourier 1	1.809047390003	2	180
8 fourier 1	-0.04816277792592	1	0
9 fourier 1	3.101948770557	2	180
10 fourier 1	-0.4252153282372	1	0
11 fourier 1	2.348375642009	2	180
12 fourier 1	1.256156174911	1	0
13 fourier 1	0.9974165607242	2	180
14 fourier 1	0.1155372516788	3	0
15 fourier 1	0.1040663847541	3	0
16 fourier 1	0.09223874044423	3	0
17 fourier 1	0.3159935921949	2	180
18 fourier 1	0.3247796806857	1	180
19 fourier 1	0.1911926717192	3	0
20 fourier 1	2.779853741805	2	180
21 fourier 1	0.1918272375143	3	0
22 fourier 1	0.9202179876409	1	180
23 fourier 1	0.0473758381877	3	0
24 fourier 1	0.4860993122944	2	180
25 fourier 1	0.8916986138746	1	0
26 fourier 1	1.163809172478	2	180
27 fourier 1	0.1679186987369	1	180
28 fourier 1	0.1115525666802	3	0
29 fourier 1	0.3432490222662	1	0
30 fourier 1	0.457973137376	1	0
31 fourier 1	-1.382973039546	1	0
32 fourier 1	0	1	0
33 fourier 1	0.3445382149273	3	0
34 fourier 1	0.1364556373303	1	0
35 fourier 1	0.3026390167484	3	0


Improper Coeffs

1 0.3333333333333333	-1	2
2 0.3666666666666667	-1	2
3 3.5	-1	2


Atoms

1	1	1	0.53603202	4.0300002	1.353	0.85900003
2	1	2	-0.72654098	3.3570001	1.548	1.906
3	1	3	-0.50276899	3.405	1.35	-0.428
4	1	4	0.019057	1.9680001	1.556	-0.611
5	1	4	-0.082047001	1.1670001	0.301	-0.208
6	1	5	0.071156003	1.454	0.025	0.83200002
7	1	4	-0.17697801	1.493	-0.89399999	-1.123
8	1	5	0.086726002	2.589	-1.075	-1.151
9	1	5	0.086726002	1.165	-0.66000003	-2.1600001
10	1	4	-0.13698401	0.792	-2.1819999	-0.64600003
11	1	5	0.075939998	1.475	-2.747	0.025
12	1	5	0.075939998	0.59100002	-2.826	-1.53
13	1	4	-0.17697801	-0.528	-1.923	0.107
14	1	5	0.086726002	-0.31600001	-1.802	1.193
15	1	5	0.086726002	-1.186	-2.8110001	-0.0080000004
16	1	4	-0.081923001	-1.24	-0.66100001	-0.414
17	1	4	0.01559	-2.615	-0.49900001	0.26699999
18	1	3	-0.45613399	-3.3870001	0.59200001	-0.331
19	1	1	0.77460599	-4.6739998	0.96100003	0.17200001
20	1	2	-0.635243	-5.1789999	0.359	1.156
21	1	6	0.315927	-3.0179999	1.1160001	-1.156
22	1	7	0.059006002	-2.4749999	-0.303	1.353
23	1	7	0.059006002	-3.1949999	-1.442	0.15899999
24	1	5	0.071156003	-1.416	-0.80500001	-1.505
25	1	4	-0.184191	-0.354	0.602	-0.219
26	1	5	0.092565998	-0.59200001	1.317	-1.0369999
27	1	5	0.092565998	-0.60799998	1.11	0.73799998
28	1	7	0.053656001	1.768	1.796	-1.678
29	1	7	0.053656001	1.643	2.4300001	-0.0060000001
30	1	6	0.30821201	4.0110002	1.255	-1.273
31	1	8	-0.49950099	-5.1999998	1.734	-0.278
32	1	4	0.139194	-4.4400001	2.145	-1.383
33	1	4	-0.099339001	-4.5539999	1.125	-2.5280001
34	1	5	0.102538	-4.1929998	0.134	-2.168
35	1	4	-0.160539	-3.723	1.525	-3.7460001
36	1	5	0.107386	-3.6830001	2.632	-3.8499999
37	1	5	0.107386	-2.681	1.15	-3.6489999
38	1	4	-0.078832999	-4.4219999	0.88200003	-4.9499998
39	1	5	0.119019	-3.862	-0.026000001	-5.27
40	1	4	-0.10871	-4.6680002	1.854	-6.132
41	1	5	0.113374	-3.8069999	2.513	-6.3769999
42	1	4	-0.16206101	-5.1880002	1.039	-7.3330002
43	1	5	0.107333	-4.5479999	0.154	-7.5409999
44	1	5	0.107333	-5.211	1.682	-8.2419996
45	1	4	-0.064324997	-6.6090002	0.62199998	-6.8800001
46	1	4	0.060106002	-7.6999998	1.061	-7.8709998
47	1	8	-0.149454	-8.9530001	0.62900001	-7.4190001
48	1	7	0.088330001	-7.7059999	2.1670001	-7.993
49	1	7	0.088330001	-7.4899998	0.602	-8.8629999
50	1	5	0.112995	-6.6659999	-0.486	-6.7800002
51	1	4	-0.095721997	-6.7309999	1.314	-5.4970002
52	1	5	0.123529	-7.7740002	1.478	-5.1479998
53	1	4	-0.141206	-5.9229999	2.5810001	-5.7059999
54	1	5	0.101764	-6.3299999	3.2460001	-6.5
55	1	5	0.101764	-5.7919998	3.1830001	-4.7800002
56	1	4	-0.074767999	-5.8470001	0.52100003	-4.5009999
57	1	5	0.118179	-6.0209999	-0.57700002	-4.5700002
58	1	4	-0.161668	-5.9850001	0.96499997	-3.04
59	1	5	0.107386	-6.5300002	0.20100001	-2.4460001
60	1	5	0.107386	-6.5419998	1.925	-2.961
61	1	7	0.080252998	-4.8099999	3.138	-1.7180001
62	1	7	0.080252998	-3.372	2.266	-1.0880001
63	1	1	0.53603202	5.098	1.193	0.93599999
64	1	2	-0.72654098	5.5289998	0.089000002	1.362
65	1	3	-0.50276798	6	2.2349999	0.55400002
66	1	4	0.019057	7.4510002	2.056	0.62800002
67	1	4	-0.082278997	8.2060003	3.3469999	0.23800001
68	1	5	0.071156003	7.8600001	3.642	-0.778
69	1	4	-0.17697801	7.869	4.5040002	1.2180001
70	1	5	0.086726002	6.927	5.0009999	0.89999998
71	1	5	0.086726002	7.7090001	4.1149998	2.2479999
72	1	4	-0.13708401	8.9870005	5.5489998	1.268
73	1	5	0.075939998	9.1330004	5.9679999	0.24699999
74	1	5	0.075939998	8.6850004	6.3870001	1.933
75	1	4	-0.17265201	10.313	4.9439998	1.772
76	1	5	0.087137997	11.147	5.526	1.3200001
77	1	5	0.087137997	10.38	5.079	2.8740001
78	1	4	-0.058309	10.466	3.4349999	1.449
79	1	4	0.164619	11.953	3.043	1.393
80	1	3	-0.67321199	12.093	1.592	1.3
81	1	9	0.59609598	12.71	0.91600001	2.184
82	1	2	-0.526353	13.31	0.25799999	3.0439999
83	1	7	0.053885002	12.436	3.507	0.50599998
84	1	7	0.053885002	12.471	3.428	2.302
85	1	5	0.074721999	9.9949999	2.855	2.2750001
86	1	4	-0.17985199	9.7349997	3.0840001	0.13699999
87	1	5	0.092974998	9.9309998	2.026	-0.146
88	1	5	0.092974998	10.155	3.7090001	-0.68199998
89	1	7	0.053656001	7.737	1.234	-0.063000001
90	1	7	0.053656001	7.7360001	1.7539999	1.66
91	1	6	0.30821201	5.5900002	3.1259999	0.19499999
92	1	8	-0.147799	-9.6110001	0.93300003	-8.0959997
93	1	4	0.060247	-8.875	1.5140001	-9.1389999
94	1	4	-0.091415003	-8.1920004	0.43000001	-9.9879999
95	1	5	0.105303	-7.5170002	-0.17	-9.3369999
96	1	4	-0.16145299	-7.3600001	1.022	-11.125
97	1	5	0.107279	-7.8189998	1.9630001	-11.5
98	1	5	0.107279	-6.3299999	1.255	-10.776
99	1	4	-0.078166001	-7.3330002	-0.054000001	-12.218
100	1	5	0.119019	-6.3509998	-0.57800001	-12.206
101	1	4	-0.10871	-7.6869998	0.472	-13.633
102	1	5	0.113374	-7.2059999	1.438	-13.901
103	1	4	-0.15653899	-7.428	-0.65600002	-14.651
104	1	5	0.107333	-6.4190001	-1.104	-14.525
105	1	5	0.107333	-7.5120001	-0.25400001	-15.686
106	1	4	-0.106895	-8.5489998	-1.675	-14.332
107	1	4	0.13785399	-9.4160004	-2.006	-15.558
108	1	10	-0.68387997	-10.388	-2.9530001	-15.209
109	1	11	0.37066299	-10.909	-3.131	-16.035
110	1	7	0.071618997	-9.908	-1.0930001	-15.957
111	1	7	0.071618997	-8.7629995	-2.428	-16.355
112	1	5	0.113061	-8.1040001	-2.6259999	-13.962
113	1	4	-0.089325003	-9.3400002	-0.95499998	-13.207
114	1	5	0.123529	-10.387	-1.304	-13.076
115	1	4	-0.141206	-9.198	0.50199997	-13.605
116	1	5	0.101764	-9.6450005	0.74199998	-14.595
117	1	5	0.101764	-9.6120005	1.211	-12.855
118	1	4	-0.074106	-8.4829998	-1.028	-11.917
119	1	5	0.118179	-8.0959997	-2.056	-11.73
120	1	4	-0.162589	-9.1899996	-0.51499999	-10.658
121	1	5	0.107279	-9.4469995	-1.357	-9.9790001
122	1	5	0.107279	-10.13	0.021	-10.913
123	1	7	0.088446997	-9.5649996	2.115	-9.7690001
124	1	7	0.088446997	-8.1079998	2.2079999	-8.724

Bonds

1	1	1	2
2	2	1	3
3	3	1	63
4	4	3	4
5	5	3	30
6	6	4	5
7	7	4	28
8	7	4	29
9	7	5	6
10	6	5	7
11	6	5	25
12	7	7	8
13	7	7	9
14	6	7	10
15	7	10	11
16	7	10	12
17	6	10	13
18	7	13	14
19	7	13	15
20	6	13	16
21	6	16	17
22	7	16	24
23	6	16	25
24	4	17	18
25	7	17	22
26	7	17	23
27	2	18	19
28	5	18	21
29	1	19	20
30	8	19	31
31	7	25	26
32	7	25	27
33	9	31	32
34	6	32	33
35	7	32	61
36	7	32	62
37	7	33	34
38	6	33	35
39	6	33	58
40	7	35	36
41	7	35	37
42	6	35	38
43	7	38	39
44	6	38	40
45	6	38	56
46	7	40	41
47	6	40	42
48	6	40	53
49	7	42	43
50	7	42	44
51	6	42	45
52	6	45	46
53	7	45	50
54	6	45	51
55	9	46	47
56	7	46	48
57	7	46	49
58	10	47	92
59	7	51	52
60	6	51	53
61	6	51	56
62	7	53	54
63	7	53	55
64	7	56	57
65	6	56	58
66	7	58	59
67	7	58	60
68	1	63	64
69	2	63	65
70	4	65	66
71	5	65	91
72	6	66	67
73	7	66	89
74	7	66	90
75	7	67	68
76	6	67	69
77	6	67	86
78	7	69	70
79	7	69	71
80	6	69	72
81	7	72	73
82	7	72	74
83	6	72	75
84	7	75	76
85	7	75	77
86	6	75	78
87	6	78	79
88	7	78	85
89	6	78	86
90	11	79	80
91	7	79	83
92	7	79	84
93	12	80	81
94	1	81	82
95	7	86	87
96	7	86	88
97	9	92	93
98	6	93	94
99	7	93	123
100	7	93	124
101	7	94	95
102	6	94	96
103	6	94	120
104	7	96	97
105	7	96	98
106	6	96	99
107	7	99	100
108	6	99	101
109	6	99	118
110	7	101	102
111	6	101	103
112	6	101	115
113	7	103	104
114	7	103	105
115	6	103	106
116	6	106	107
117	7	106	112
118	6	106	113
119	13	107	108
120	7	107	110
121	7	107	111
122	14	108	109
123	7	113	114
124	6	113	115
125	6	113	118
126	7	115	116
127	7	115	117
128	7	118	119
129	6	118	120
130	7	120	121
131	7	120	122

Angles

1	4	33	58	56
2	4	57	56	58
3	4	18	17	22
4	5	73	72	74
5	5	76	75	77
6	6	46	47	92
7	5	14	13	15
8	4	17	16	25
9	4	96	94	120
10	4	99	118	113
11	4	6	5	7
12	2	63	65	91
13	4	65	66	89
14	4	79	78	86
15	4	106	107	110
16	5	97	96	98
17	5	123	93	124
18	4	94	120	122
19	4	40	53	54
20	4	100	99	101
21	7	20	19	31
22	3	1	63	65
23	4	5	4	28
24	4	107	106	112
25	3	3	1	63
26	4	6	5	25
27	4	105	103	106
28	4	101	99	118
29	4	78	86	87
30	4	16	25	27
31	4	18	17	23
32	4	14	13	16
33	4	94	120	118
34	4	46	45	50
35	4	66	67	68
36	4	65	66	90
37	4	42	40	53
38	4	106	107	111
39	4	97	96	99
40	4	103	106	113
41	5	104	103	105
42	4	3	4	29
43	4	5	25	26
44	4	99	101	102
45	4	40	53	55
46	3	2	1	63
47	4	5	4	29
48	3	18	19	20
49	4	96	99	100
50	4	100	99	118
51	4	44	42	45
52	4	38	56	58
53	4	78	86	88
54	4	67	69	70
55	4	9	7	10
56	4	113	115	116
57	5	22	17	23
58	4	40	53	51
59	4	46	45	51
60	4	101	103	104
61	6	107	108	109
62	4	33	35	36
63	2	1	3	30
64	4	45	46	48
65	4	51	56	58
66	4	104	103	106
67	5	110	107	111
68	4	99	101	103
69	4	118	120	122
70	4	34	33	35
71	4	67	86	78
72	4	94	96	97
73	4	108	107	110
74	4	114	113	118
75	4	93	94	95
76	4	38	40	53
77	4	32	33	34
78	4	70	69	72
79	4	96	99	101
80	4	43	42	45
81	4	67	66	90
82	1	17	18	19
83	4	38	40	42
84	4	101	115	116
85	4	15	13	16
86	4	106	113	114
87	4	36	35	38
88	5	87	86	88
89	4	4	5	7
90	4	78	79	83
91	4	40	42	43
92	4	75	78	85
93	6	19	31	32
94	4	34	33	58
95	4	99	101	115
96	4	24	16	25
97	4	10	13	15
98	4	33	32	61
99	4	31	32	33
100	4	45	46	49
101	4	7	10	11
102	5	59	58	60
103	4	40	38	56
104	4	51	53	54
105	4	73	72	75
106	4	76	75	78
107	4	108	107	111
108	2	19	18	21
109	5	48	46	49
110	4	119	118	120
111	4	52	51	53
112	5	11	10	12
113	4	101	115	117
114	5	83	79	84
115	4	99	118	119
116	4	38	56	51
117	4	42	45	50
118	4	16	17	22
119	5	61	32	62
120	6	47	92	93
121	4	47	46	48
122	4	75	78	86
123	9	80	81	82
124	4	10	13	16
125	4	107	106	113
126	4	32	33	58
127	5	54	53	55
128	4	7	10	12
129	4	92	93	123
130	4	98	96	99
131	4	101	115	113
132	4	103	106	107
133	4	51	53	55
134	4	71	69	72
135	4	103	101	115
136	4	42	45	46
137	4	66	67	69
138	4	113	118	119
139	4	16	17	18
140	4	112	106	113
141	4	69	72	73
142	4	72	75	76
143	4	13	16	24
144	4	106	113	118
145	4	68	67	69
146	4	67	86	87
147	4	5	7	8
148	4	5	25	27
149	4	99	118	120
150	5	116	115	117
151	4	35	33	58
152	4	5	25	16
153	4	35	38	39
154	4	45	51	56
155	4	80	79	83
156	4	106	107	108
157	4	92	93	124
158	4	102	101	115
159	4	67	69	71
160	4	113	115	117
161	4	65	66	67
162	4	101	103	105
163	4	113	118	120
164	4	45	51	52
165	4	33	35	37
166	4	5	7	10
167	4	66	67	86
168	4	67	86	88
169	4	5	7	9
170	3	64	63	65
171	4	8	7	10
172	8	79	80	81
173	4	94	96	98
174	5	8	7	9
175	4	35	38	40
176	4	93	94	96
177	4	32	33	35
178	4	75	78	79
179	4	4	5	25
180	4	85	78	86
181	4	12	10	13
182	4	106	113	115
183	4	7	5	25
184	4	67	69	72
185	4	96	99	118
186	5	28	4	29
187	4	74	72	75
188	4	77	75	78
189	4	40	42	44
190	4	78	79	84
191	4	94	93	123
192	4	101	103	106
193	3	1	63	64
194	4	114	113	115
195	4	33	32	62
196	4	33	35	38
197	4	45	51	53
198	2	4	3	30
199	4	95	94	96
200	4	13	16	17
201	4	31	32	61
202	4	16	25	26
203	1	63	65	66
204	3	2	1	3
205	5	89	66	90
206	4	94	96	99
207	4	102	101	103
208	4	39	38	40
209	4	78	79	80
210	4	53	51	56
211	4	11	10	13
212	2	17	18	21
213	4	56	58	59
214	4	103	106	112
215	4	39	38	56
216	4	3	4	28
217	5	121	120	122
218	4	42	45	51
219	4	94	93	124
220	4	40	42	45
221	4	16	17	23
222	4	95	94	120
223	4	47	46	49
224	4	92	93	94
225	4	50	45	51
226	4	69	67	86
227	4	7	10	13
228	4	31	32	62
229	4	33	58	59
230	4	38	56	57
231	4	41	40	53
232	4	41	40	42
233	4	115	113	118
234	1	1	3	4
235	5	26	25	27
236	4	69	72	74
237	4	72	75	77
238	4	56	58	60
239	4	13	16	25
240	4	45	46	47
241	4	51	56	57
242	4	118	120	121
243	3	18	19	31
244	4	17	16	24
245	4	68	67	86
246	5	70	69	71
247	5	43	42	44
248	4	67	66	89
249	4	80	79	84
250	4	79	78	85
251	4	38	40	41
252	4	35	38	56
253	4	33	58	60
254	2	66	65	91
255	4	94	120	121
256	5	36	35	37
257	4	4	5	6
258	4	37	35	38
259	4	52	51	56
260	4	69	72	75
261	4	3	4	5
262	4	72	75	78
263	4	10	13	14
264	4	93	94	120

Dihedrals

1	15	38	40	53	55
2	15	104	103	106	107
3	15	14	13	16	25
4	23	47	92	93	123
5	19	48	46	45	50
6	16	103	106	113	118
6	17	103	106	113	118
6	18	103	106	113	118
7	19	11	10	13	15
8	15	42	45	46	48
9	28	31	32	33	34
9	29	31	32	33	34
10	19	68	67	86	88
11	16	115	101	99	118
11	17	115	101	99	118
11	18	115	101	99	118
12	16	32	33	58	56
12	17	32	33	58	56
12	18	32	33	58	56
13	19	6	5	7	9
14	15	38	40	42	43
15	16	67	86	78	75
15	17	67	86	78	75
15	18	67	86	78	75
16	15	101	115	113	114
17	15	35	33	32	61
18	15	4	5	7	9
19	16	46	45	51	56
19	17	46	45	51	56
19	18	46	45	51	56
20	15	50	45	51	53
21	23	19	31	32	61
22	7	17	18	19	31
22	8	17	18	19	31
23	19	74	72	75	76
24	16	38	56	51	45
24	17	38	56	51	45
24	18	38	56	51	45
25	7	1	63	65	91
25	8	1	63	65	91
26	15	113	118	120	121
27	15	116	115	113	118
28	15	13	16	17	23
29	15	104	103	101	115
30	15	68	67	69	72
31	19	84	79	78	85
32	15	42	40	53	55
33	16	33	35	38	40
33	17	33	35	38	40
33	18	33	35	38	40
34	16	42	45	51	53
34	17	42	45	51	53
34	18	42	45	51	53
35	14	75	78	79	80
36	15	75	78	86	88
37	19	36	35	38	39
38	16	33	35	38	56
38	17	33	35	38	56
38	18	33	35	38	56
39	15	43	42	45	46
40	7	21	18	19	31
40	8	21	18	19	31
41	15	86	67	66	90
42	28	108	107	106	112
42	29	108	107	106	112
43	15	8	7	10	13
44	31	78	79	80	81
45	15	37	35	33	58
46	15	32	33	58	60
47	16	5	7	10	13
47	17	5	7	10	13
47	18	5	7	10	13
48	5	21	18	17	22
48	6	21	18	17	22
49	1	1	3	4	5
49	2	1	3	4	5
49	3	1	3	4	5
49	4	1	3	4	5
50	5	19	18	17	22
50	6	19	18	17	22
51	5	90	66	65	91
51	6	90	66	65	91
52	15	49	46	45	51
53	19	71	69	72	74
54	15	104	103	106	113
55	19	68	67	66	89
56	15	73	72	75	78
57	15	112	106	113	115
58	15	69	72	75	77
59	16	101	103	106	107
59	17	101	103	106	107
59	18	101	103	106	107
60	16	4	5	7	10
60	17	4	5	7	10
60	18	4	5	7	10
61	14	65	66	67	69
62	19	111	107	106	112
63	15	94	96	99	100
64	16	66	67	86	78
64	17	66	67	86	78
64	18	66	67	86	78
65	16	101	99	118	120
65	17	101	99	118	120
65	18	101	99	118	120
66	15	79	78	86	87
67	15	37	35	38	40
68	15	7	10	13	14
69	15	25	5	4	28
70	15	34	33	35	38
71	5	1	3	4	29
71	6	1	3	4	29
72	19	44	42	45	50
73	16	33	58	56	38
73	17	33	58	56	38
73	18	33	58	56	38
74	15	38	56	58	59
75	16	46	45	51	53
75	17	46	45	51	53
75	18	46	45	51	53
76	15	41	40	53	51
77	19	105	103	106	112
78	19	23	17	16	24
79	19	102	101	115	117
80	19	15	13	16	24
81	15	70	69	67	86
82	19	14	13	16	24
83	23	48	46	47	92
84	16	67	69	72	75
84	17	67	69	72	75
84	18	67	69	72	75
85	5	63	65	66	89
85	6	63	65	66	89
86	19	11	10	13	14
87	14	42	45	46	47
88	19	110	107	106	112
89	1	16	17	18	19
89	2	16	17	18	19
89	3	16	17	18	19
89	4	16	17	18	19
90	16	10	13	16	25
90	17	10	13	16	25
90	18	10	13	16	25
91	19	68	67	86	87
92	15	7	5	25	27
93	15	32	33	35	37
94	16	35	38	56	58
94	17	35	38	56	58
94	18	35	38	56	58
95	16	35	33	58	56
95	17	35	33	58	56
95	18	35	33	58	56
96	15	39	38	40	53
97	16	96	99	118	120
97	17	96	99	118	120
97	18	96	99	118	120
98	19	6	5	7	8
99	15	12	10	13	16
100	15	4	5	25	27
101	15	99	118	120	122
102	19	50	45	51	52
103	16	69	67	86	78
103	17	69	67	86	78
103	18	69	67	86	78
104	14	65	66	67	86
105	15	6	5	25	16
106	7	4	3	1	63
106	8	4	3	1	63
107	15	13	16	17	22
108	15	15	13	16	17
109	15	42	40	53	54
110	15	33	35	38	39
111	14	3	4	5	7
112	15	75	78	86	87
113	15	43	42	40	53
114	15	8	7	5	25
115	19	8	7	10	12
116	15	36	35	38	56
117	16	40	38	56	58
117	17	40	38	56	58
117	18	40	38	56	58
118	32	79	80	81	82
119	19	85	78	86	87
120	13	3	1	63	64
121	16	35	38	56	51
121	17	35	38	56	51
121	18	35	38	56	51
122	15	32	33	58	59
123	16	38	35	33	58
123	17	38	35	33	58
123	18	38	35	33	58
124	15	45	51	53	55
125	19	34	33	58	60
126	15	5	7	10	12
127	16	96	99	118	113
127	17	96	99	118	113
127	18	96	99	118	113
128	15	83	79	78	86
129	16	101	115	113	106
129	17	101	115	113	106
129	18	101	115	113	106
130	16	40	42	45	46
130	17	40	42	45	46
130	18	40	42	45	46
131	5	29	4	3	30
131	6	29	4	3	30
132	19	49	46	45	50
133	19	100	99	118	119
134	16	33	58	56	51
134	17	33	58	56	51
134	18	33	58	56	51
135	16	38	40	53	51
135	17	38	40	53	51
135	18	38	40	53	51
136	19	112	106	113	114
137	15	70	69	72	75
138	16	53	40	38	56
138	17	53	40	38	56
138	18	53	40	38	56
139	16	42	45	51	56
139	17	42	45	51	56
139	18	42	45	51	56
140	16	106	113	118	120
140	17	106	113	118	120
140	18	106	113	118	120
141	16	99	96	94	120
141	17	99	96	94	120
141	18	99	96	94	120
142	19	24	16	25	27
143	19	34	33	32	61
144	19	34	33	35	37
145	16	40	38	56	51
145	17	40	38	56	51
145	18	40	38	56	51
146	5	1	3	4	28
146	6	1	3	4	28
147	15	41	40	42	45
148	15	77	75	78	86
149	19	119	118	120	122
150	15	72	75	78	85
151	15	46	45	51	52
152	16	96	99	101	103
152	17	96	99	101	103
152	18	96	99	101	103
153	15	112	106	113	118
154	19	57	56	58	60
155	15	102	101	99	118
156	16	40	53	51	56
156	17	40	53	51	56
156	18	40	53	51	56
157	15	99	118	113	114
158	15	103	106	107	110
159	14	47	46	45	51
160	16	42	40	53	51
160	17	42	40	53	51
160	18	42	40	53	51
161	19	114	113	115	117
162	15	99	101	103	104
163	15	96	94	93	124
164	19	39	38	56	57
165	15	7	5	25	26
166	15	32	33	35	36
167	15	35	38	56	57
168	15	100	99	101	103
169	15	96	99	118	119
170	15	106	113	115	117
171	16	107	106	113	115
171	17	107	106	113	115
171	18	107	106	113	115
172	15	77	75	78	79
173	19	12	10	13	15
174	15	76	75	78	79
175	15	4	5	25	26
176	15	99	118	120	121
177	15	69	67	86	88
178	24	20	19	18	21
178	25	20	19	18	21
179	19	41	40	53	54
180	19	95	94	96	98
181	15	33	58	56	57
182	19	6	5	25	26
183	7	17	18	19	20
183	8	17	18	19	20
184	15	99	101	115	117
185	15	93	94	96	98
186	15	40	38	56	57
187	15	35	33	58	59
188	35	109	108	107	111
189	19	34	33	58	59
190	16	38	40	42	45
190	17	38	40	42	45
190	18	38	40	42	45
191	15	96	94	120	122
192	11	64	63	65	91
192	12	64	63	65	91
193	15	44	42	45	46
194	19	83	79	78	85
195	15	58	33	32	61
196	15	74	72	75	78
197	15	53	51	56	57
198	15	102	101	115	113
199	19	70	69	72	74
200	15	7	5	4	29
201	16	94	120	118	113
201	17	94	120	118	113
201	18	94	120	118	113
202	19	6	5	4	29
203	15	66	67	86	87
204	13	2	1	63	65
205	15	69	67	66	89
206	15	106	113	118	119
207	15	66	67	69	71
208	15	37	35	38	56
209	15	39	38	40	42
210	16	35	38	40	53
210	17	35	38	40	53
210	18	35	38	40	53
211	19	41	40	42	44
212	19	76	75	78	85
213	19	119	118	120	121
214	7	30	3	1	63
214	8	30	3	1	63
215	23	45	46	47	92
216	5	5	4	3	30
216	6	5	4	3	30
217	15	5	25	16	24
218	15	38	40	53	54
219	19	57	56	58	59
220	14	13	16	17	18
221	15	97	96	99	101
222	23	49	46	47	92
223	7	1	63	65	66
223	8	1	63	65	66
224	15	103	101	115	117
225	16	101	99	118	113
225	17	101	99	118	113
225	18	101	99	118	113
226	15	22	17	16	25
227	16	7	10	13	16
227	17	7	10	13	16
227	18	7	10	13	16
228	19	114	113	115	116
229	15	93	94	120	122
230	15	9	7	5	25
231	15	96	94	93	123
232	19	100	99	101	102
233	15	98	96	99	118
234	16	7	5	25	16
234	17	7	5	25	16
234	18	7	5	25	16
235	15	34	33	58	56
236	15	106	113	115	116
237	15	107	106	113	114
238	16	4	5	25	16
238	17	4	5	25	16
238	18	4	5	25	16
239	21	19	31	32	33
239	22	19	31	32	33
240	15	69	67	86	87
241	15	4	5	7	8
242	19	95	94	96	97
243	16	5	25	16	17
243	17	5	25	16	17
243	18	5	25	16	17
244	16	101	103	106	113
244	17	101	103	106	113
244	18	101	103	106	113
245	15	94	120	118	119
246	15	102	101	103	106
247	19	68	67	69	71
248	15	14	13	16	17
249	16	94	120	118	99
249	17	94	120	118	99
249	18	94	120	118	99
250	16	99	118	113	106
250	17	99	118	113	106
250	18	99	118	113	106
251	15	42	45	51	52
252	15	99	101	115	116
253	15	11	10	13	16
254	15	93	94	96	97
255	15	86	67	66	89
256	5	16	17	18	21
256	6	16	17	18	21
257	14	80	79	78	86
258	16	107	106	113	118
258	17	107	106	113	118
258	18	107	106	113	118
259	5	67	66	65	91
259	6	67	66	65	91
260	16	45	51	56	58
260	17	45	51	56	58
260	18	45	51	56	58
261	15	52	51	56	58
262	15	44	42	40	53
263	19	71	69	72	73
264	19	104	103	106	112
265	19	74	72	75	77
266	14	92	93	94	96
267	19	73	72	75	77
268	15	105	103	106	107
269	16	40	53	51	45
269	17	40	53	51	45
269	18	40	53	51	45
270	15	97	96	99	118
271	16	106	103	101	115
271	17	106	103	101	115
271	18	106	103	101	115
272	19	70	69	72	73
273	15	105	103	101	115
274	15	113	118	120	122
275	15	69	72	75	76
276	16	10	7	5	25
276	17	10	7	5	25
276	18	10	7	5	25
277	16	115	113	118	120
277	17	115	113	118	120
277	18	115	113	118	120
278	19	6	5	4	28
279	14	65	66	67	68
280	15	84	79	78	86
281	16	38	56	51	53
281	17	38	56	51	53
281	18	38	56	51	53
282	15	40	53	51	52
283	13	2	1	63	64
284	15	101	99	118	119
285	19	37	35	38	39
286	15	114	113	118	120
287	15	120	94	93	124
288	15	66	67	69	70
289	15	9	7	10	13
290	14	108	107	106	113
291	19	39	38	40	41
292	16	72	69	67	86
292	17	72	69	67	86
292	18	72	69	67	86
293	15	54	53	51	56
294	15	41	40	38	56
295	19	68	67	66	90
296	19	102	101	115	116
297	9	2	1	3	4
297	10	2	1	3	4
298	15	97	96	94	120
299	15	67	69	72	74
300	15	43	42	45	51
301	16	99	101	115	113
301	17	99	101	115	113
301	18	99	101	115	113
302	23	47	92	93	94
303	15	10	13	16	24
304	14	92	93	94	120
305	19	95	94	93	124
306	26	20	19	31	32
306	27	20	19	31	32
307	30	46	47	92	93
308	16	96	94	120	118
308	17	96	94	120	118
308	18	96	94	120	118
309	15	38	56	58	60
310	15	95	94	120	118
311	15	105	103	106	113
312	15	23	17	16	25
313	15	15	13	16	25
314	15	13	16	25	27
315	15	101	103	106	112
316	19	52	51	53	55
317	19	102	101	103	105
318	19	68	67	69	70
319	31	81	80	79	84
320	14	3	4	5	6
321	5	63	65	66	90
321	6	63	65	66	90
322	16	35	38	40	42
322	17	35	38	40	42
322	18	35	38	40	42
323	16	99	101	103	106
323	17	99	101	103	106
323	18	99	101	103	106
324	19	8	7	10	11
325	15	110	107	106	113
326	16	32	33	35	38
326	17	32	33	35	38
326	18	32	33	35	38
327	16	10	13	16	17
327	17	10	13	16	17
327	18	10	13	16	17
328	14	80	79	78	85
329	15	45	51	53	54
330	15	98	96	99	101
331	15	5	7	10	11
332	15	45	51	56	57
333	19	52	51	56	57
334	11	2	1	3	30
334	12	2	1	3	30
335	19	95	94	120	122
336	15	117	115	113	118
337	28	92	93	94	95
337	29	92	93	94	95
338	19	73	72	75	76
339	15	115	113	118	119
340	16	94	96	99	118
340	17	94	96	99	118
340	18	94	96	99	118
341	15	38	56	51	52
342	15	36	35	33	58
343	16	103	101	115	113
343	17	103	101	115	113
343	18	103	101	115	113
344	16	93	94	120	118
344	17	93	94	120	118
344	18	93	94	120	118
345	19	114	113	118	119
346	15	120	94	93	123
347	19	24	16	25	26
348	19	9	7	10	12
349	19	85	78	86	88
350	13	3	1	63	65
351	19	34	33	35	36
352	19	77	75	78	85
353	16	67	86	78	79
353	17	67	86	78	79
353	18	67	86	78	79
354	16	101	115	113	118
354	17	101	115	113	118
354	18	101	115	113	118
355	15	17	16	25	27
356	5	89	66	65	91
356	6	89	66	65	91
357	15	6	5	7	10
358	15	100	99	118	120
359	15	96	99	101	102
360	16	5	25	16	13
360	17	5	25	16	13
360	18	5	25	16	13
361	15	51	56	58	60
362	16	42	40	38	56
362	17	42	40	38	56
362	18	42	40	38	56
363	15	67	69	72	73
364	15	75	78	79	84
365	28	47	46	45	50
365	29	47	46	45	50
366	16	103	106	113	115
366	17	103	106	113	115
366	18	103	106	113	115
367	14	18	17	16	25
368	14	3	4	5	25
369	19	43	42	45	50
370	14	31	32	33	58
371	1	63	65	66	67
371	2	63	65	66	67
371	3	63	65	66	67
371	4	63	65	66	67
372	19	34	33	32	62
373	19	95	94	93	123
374	19	12	10	13	14
375	16	72	75	78	86
375	17	72	75	78	86
375	18	72	75	78	86
376	16	40	42	45	51
376	17	40	42	45	51
376	18	40	42	45	51
377	16	96	99	101	115
377	17	96	99	101	115
377	18	96	99	101	115
378	15	71	69	67	86
379	9	64	63	65	66
379	10	64	63	65	66
380	15	100	99	118	113
381	15	13	16	25	26
382	20	18	19	31	32
383	23	47	92	93	124
384	19	52	51	53	54
385	19	102	101	103	104
386	16	99	118	113	115
386	17	99	118	113	115
386	18	99	118	113	115
387	15	103	106	107	111
388	15	48	46	45	51
389	31	81	80	79	83
390	15	42	45	46	49
391	14	31	32	33	35
392	15	100	99	101	115
393	15	35	38	40	41
394	15	99	101	103	105
395	15	39	38	56	58
396	15	68	67	86	78
397	35	109	108	107	110
398	15	67	86	78	85
399	19	98	96	99	100
400	15	38	40	42	44
401	15	96	94	120	121
402	16	45	42	40	53
402	17	45	42	40	53
402	18	45	42	40	53
403	15	35	33	32	62
404	16	72	75	78	79
404	17	72	75	78	79
404	18	72	75	78	79
405	19	95	94	120	121
406	19	41	40	53	55
407	23	19	31	32	62
408	15	95	94	96	99
409	19	6	5	25	27
410	15	55	53	51	56
411	15	7	5	4	28
412	16	103	101	99	118
412	17	103	101	99	118
412	18	103	101	99	118
413	15	36	35	38	40
414	16	93	94	96	99
414	17	93	94	96	99
414	18	93	94	96	99
415	19	9	7	10	11
416	15	35	33	58	60
417	15	39	38	56	51
418	19	41	40	42	43
419	5	21	18	17	23
419	6	21	18	17	23
420	5	19	18	17	23
420	6	19	18	17	23
421	15	50	45	51	56
422	5	28	4	3	30
422	6	28	4	3	30
423	15	17	16	25	26
424	15	71	69	72	75
425	15	58	33	32	62
426	16	53	51	56	58
426	17	53	51	56	58
426	18	53	51	56	58
427	16	69	72	75	78
427	17	69	72	75	78
427	18	69	72	75	78
428	19	97	96	99	100
429	15	51	56	58	59
430	15	98	96	94	120
431	15	111	107	106	113
432	15	66	67	86	88
433	14	103	106	107	108
434	16	94	96	99	101
434	17	94	96	99	101
434	18	94	96	99	101
435	15	69	67	66	90
436	15	103	101	115	116
437	15	75	78	79	83
438	15	103	106	113	114
439	15	79	78	86	88
440	19	22	17	16	24
441	15	7	10	13	15
442	14	18	17	16	24
443	33	106	107	108	109
443	34	106	107	108	109
444	15	93	94	120	121
445	16	66	67	69	72
445	17	66	67	69	72
445	18	66	67	69	72
446	15	25	5	4	29
447	15	76	75	78	86
448	15	44	42	45	51
449	15	40	42	45	50

Impropers

47	2	63	65	1	64
158	2	1	2	3	63
206	1	18	21	17	19
326	1	65	91	63	66
352	3	19	18	20	31
410	1	3	4	30	1
434	1	65	66	91	63
501	2	1	3	63	2
507	2	63	1	64	65
527	1	65	63	66	91
650	1	3	1	4	30
774	3	19	20	31	18
775	2	63	64	65	1
778	3	19	31	18	20
892	2	1	63	2	3
896	1	18	17	19	21
946	1	18	19	21	17
950	1	3	30	1	4
