Title

90 atoms
93 bonds
156 angles
247 dihedrals
90 impropers

12 atom types
17 bond types
10 angle types
32 dihedral types
3 improper types
-11.54300022 88.45699978 xlo xhi
-7.385000229 92.61499977 ylo yhi
-9.454999924 90.54500008 zlo zhi
0.0 0.0 0.0 xy xz yz

Masses

1	12.01078
2	15.99943
3	14.00672
4	1.007947
5	12.01078
6	1.007947
7	1.007947
8	15.99943
9	1.007947
10	12.01078
11	15.99943
12	1.007947


Pair Coeffs

1	0.086879315	3.4806469
2	0.2102061	3.0398122
3	0.16769152	3.206876
4	0.015611343	2.5725815
5	0.10884061	3.3795318
6	0.014090815	1.1034277
7	0.015779483	2.6445434
8	0.16846514	3.0251065
9	0.016409246	2.5832257
10	0.21	3.3996695
11	0.20947353	2.99716
12	1.2326e-05	0.53453923

Bond Coeffs

1 harmonic	582.698766451	1.225198386222
2 harmonic	492.76746816345	1.381897776683
3 harmonic	279.1350963404	1.454628925034
4 harmonic	390.03554688505	1.390160554689
5 harmonic	505.144496193	1.019481865027
6 harmonic	360.7852444772	1.387193227181
7 harmonic	397.2545789619	1.085358495916
8 harmonic	289.73813263395	1.498646816465
9 harmonic	370.04670688625	1.093899492634
10 harmonic	301.15400723785	1.345741232799
11 harmonic	366.7408841747	1.425895053732
12 harmonic	264.62148576755	1.52190126495
13 harmonic	300.03137914615	1.451203938761
14 harmonic	382.5450169811	1.379244394267
15 harmonic	602.81384337	1.196112346392
16 harmonic	329.96998057905	1.427343958716
17 harmonic	543.5267831885	0.9716763312559


Angle Coeffs

1 harmonic	55.42182150775	117.3465570514
2 harmonic	63.44422595415	115.5071327674
3 harmonic	57.8982893754	126.8062420451
4 harmonic	34.066775159195	129.1835929926
5 harmonic	53.20531626545	116.5475862634
6 harmonic	65.09061609600001	110.3538806181
7 harmonic	201.41175231035	127.4691416191
8 harmonic	48.776492647595	115.6030999533
9 harmonic	55.07882548015	112.8714009681
10 harmonic	33.56981613361	180


Dihedral Coeffs

1 fourier 1	1.193093382682	2	180
2 fourier 1	1.809047390003	2	180
3 fourier 1	-0.04816277792592	1	0
4 fourier 1	3.101948770557	2	180
5 fourier 1	-0.4252153282372	1	0
6 fourier 1	2.348375642009	2	180
7 fourier 1	1.256156174911	1	0
8 fourier 1	0.9974165607242	2	180
9 fourier 1	3.661930099076	2	180
10 fourier 1	0.02664938770063	3	0
11 fourier 1	2.779853741805	2	180
12 fourier 1	0.1918272375143	3	0
13 fourier 1	0.9202179876409	1	180
14 fourier 1	0.0473758381877	3	0
15 fourier 1	0.4860993122944	2	180
16 fourier 1	0.8916986138746	1	0
17 fourier 1	1.163809172478	2	180
18 fourier 1	0.1679186987369	1	180
19 fourier 1	0.1155372516788	3	0
20 fourier 1	0.1115525666802	3	0
21 fourier 1	0.3432490222662	1	0
22 fourier 1	0.09223874044423	3	0
23 fourier 1	0.3159935921949	2	180
24 fourier 1	0.3247796806857	1	180
25 fourier 1	0.1040663847541	3	0
26 fourier 1	0.457973137376	1	0
27 fourier 1	0.1911926717192	3	0
28 fourier 1	1.550515418264	2	180
29 fourier 1	0	1	0
30 fourier 1	0.3445382149273	3	0
31 fourier 1	0.1364556373303	1	0
32 fourier 1	0.3026390167484	3	0


Improper Coeffs

1 0.3333333333333333	-1	2
2 0.3666666666666667	-1	2
3 3.5	-1	2


Atoms

1	1	1	0.57130402	5.5349998	-0.74699998	1.5319999
2	1	2	-0.61026698	5.362	0.024	2.513
3	1	3	-0.50774199	4.6830001	-0.69	0.382
4	1	1	0.20576601	3.4579999	0.059999999	0.31900001
5	1	1	-0.379421	3.0510001	0.56800002	-0.85600001
6	1	4	0.21676999	3.651	0.43599999	-1.748
7	1	1	-0.142077	1.788	1.33	-0.949
8	1	4	0.214995	1.4859999	1.73	-1.909
9	1	1	-0.24521101	1.028	1.518	0.14300001
10	1	5	-0.050663002	-0.28	2.257	0.052000001
11	1	1	-0.24521101	-1.397	1.299	-0.25999999
12	1	1	-0.142077	-1.729	1.021	-1.5319999
13	1	4	0.214995	-1.214	1.502	-2.355
14	1	1	-0.36721599	-2.799	0.046	-1.8279999
15	1	4	0.21676999	-3.056	-0.154	-2.8610001
16	1	1	0.229463	-3.4289999	-0.60000002	-0.833
17	1	3	-0.47017601	-4.474	-1.538	-1.145
18	1	1	0.82032597	-4.776	-2.697	-0.359
19	1	2	-0.55188501	-4.0100002	-3.0810001	0.56300002
20	1	6	0.32536	-5.0029998	-1.419	-2.0380001
21	1	1	-0.36721599	-3.0680001	-0.28400001	0.574
22	1	4	0.21676999	-3.598	-0.74699998	1.396
23	1	1	-0.142077	-2.105	0.60600001	0.84200001
24	1	4	0.214995	-1.855	0.829	1.872
25	1	7	0.126035	-0.486	2.7709999	1.015
26	1	7	0.126035	-0.223	3.0550001	-0.722
27	1	1	-0.142077	1.45	0.921	1.433
28	1	4	0.214995	0.824	1.028	2.3099999
29	1	1	-0.379421	2.5940001	0.23100001	1.517
30	1	4	0.21676999	2.862	-0.227	2.4590001
31	1	6	0.32137999	5.0229998	-1.169	-0.48300001
32	1	8	-0.48701501	-5.6240001	-3.2539999	-0.57800001
33	1	5	0.124968	-6.0440001	-2.862	-1.8559999
34	1	5	-0.13032199	-6.7789998	-1.5190001	-1.781
35	1	5	-0.1375	-7.1139998	-0.93699998	-3.165
36	1	5	0.042564999	-8.2089996	-1.714	-3.905
37	1	8	-0.135212	-7.6799998	-2.8800001	-4.4720001
38	1	9	0.107105	-8.6160002	-1.069	-4.7160001
39	1	9	0.107105	-9.0419998	-1.965	-3.21
40	1	7	0.111084	-7.4749999	0.104	-3.0150001
41	1	7	0.111084	-6.198	-0.87900001	-3.7920001
42	1	7	0.109697	-6.1269999	-0.78899997	-1.252
43	1	7	0.109697	-7.7069998	-1.633	-1.1799999
44	1	9	0.106596	-5.171	-2.7920001	-2.5439999
45	1	9	0.106596	-6.7309999	-3.642	-2.2449999
46	1	1	0.57130402	6.368	-1.437	1.544
47	1	2	-0.61026698	6.388	-2.3900001	0.722
48	1	3	-0.50774199	7.4499998	-1.219	2.46
49	1	1	0.20576601	8.54	-2.135	2.668
50	1	1	-0.379421	8.3599997	-3.4690001	2.635
51	1	4	0.21676999	7.3829999	-3.8970001	2.4590001
52	1	1	-0.142077	9.4940004	-4.382	2.888
53	1	4	0.214995	9.323	-5.4510002	2.859
54	1	1	-0.24521101	10.715	-3.8900001	3.1589999
55	1	5	-0.050663002	11.866	-4.8099999	3.46
56	1	1	-0.259675	11.912	-5.1230001	4.9310002
57	1	1	-0.187115	12.587	-4.3309999	5.7820001
58	1	4	0.201103	13.132	-3.4679999	5.4190001
59	1	1	-0.25924301	12.591	-4.6220002	7.23
60	1	4	0.20880499	13.153	-3.9690001	7.8860002
61	1	1	0.44127101	11.905	-5.6789999	7.7150002
62	1	3	-0.34708399	11.875	-6.0050001	9.1140003
63	1	10	0.61504	12.482	-5.3439999	10.018
64	1	2	-0.30445701	13.072	-4.7020001	10.897
65	1	1	-0.25924301	11.15	-6.539	6.777
66	1	4	0.20880499	10.59	-7.3850002	7.1550002
67	1	1	-0.187115	11.15	-6.277	5.4640002
68	1	4	0.201103	10.588	-6.9130001	4.7919998
69	1	7	0.126035	11.77	-5.7529998	2.8770001
70	1	7	0.126035	12.821	-4.3400002	3.1359999
71	1	1	-0.142077	10.906	-2.4219999	3.233
72	1	4	0.214995	11.878	-2.0120001	3.4760001
73	1	1	-0.379421	9.8789997	-1.595	3.0039999
74	1	4	0.21676999	10.03	-0.52499998	3.0610001
75	1	6	0.32137999	7.4949999	-0.287	2.9289999
76	1	8	-0.135212	-8.4399996	-3.339	-4.9169998
77	1	5	0.042679999	-8.71	-2.625	-6.092
78	1	5	-0.131751	-9.493	-1.348	-5.7649999
79	1	5	-0.158806	-9.6719999	-0.42300001	-6.98
80	1	5	0.096482001	-10.639	-0.977	-8.033
81	1	11	-0.66796201	-10.004	-1.9529999	-8.8109999
82	1	12	0.40324199	-10.686	-2.279	-9.4549999
83	1	9	0.100829	-10.962	-0.141	-8.6929998
84	1	9	0.100829	-11.543	-1.402	-7.5419998
85	1	7	0.11355	-10.084	0.54299998	-6.6129999
86	1	7	0.11355	-8.6870003	-0.20200001	-7.4460001
87	1	7	0.111275	-8.9379997	-0.78299999	-4.9840002
88	1	7	0.111275	-10.485	-1.6160001	-5.3400002
89	1	9	0.107105	-7.7600002	-2.3770001	-6.619
90	1	9	0.107105	-9.316	-3.2750001	-6.756

Bonds

1	1	1	2
2	2	1	3
3	3	1	46
4	4	3	4
5	5	3	31
6	6	4	5
7	6	4	29
8	7	5	6
9	6	5	7
10	7	7	8
11	6	7	9
12	8	9	10
13	6	9	27
14	8	10	11
15	9	10	25
16	9	10	26
17	6	11	12
18	6	11	23
19	7	12	13
20	6	12	14
21	7	14	15
22	6	14	16
23	4	16	17
24	6	16	21
25	2	17	18
26	5	17	20
27	1	18	19
28	10	18	32
29	7	21	22
30	6	21	23
31	7	23	24
32	7	27	28
33	6	27	29
34	7	29	30
35	11	32	33
36	12	33	34
37	9	33	44
38	9	33	45
39	12	34	35
40	9	34	42
41	9	34	43
42	12	35	36
43	9	35	40
44	9	35	41
45	11	36	37
46	9	36	38
47	9	36	39
48	13	37	76
49	1	46	47
50	2	46	48
51	4	48	49
52	5	48	75
53	6	49	50
54	6	49	73
55	7	50	51
56	6	50	52
57	7	52	53
58	6	52	54
59	8	54	55
60	6	54	71
61	8	55	56
62	9	55	69
63	9	55	70
64	6	56	57
65	6	56	67
66	7	57	58
67	6	57	59
68	7	59	60
69	6	59	61
70	14	61	62
71	6	61	65
72	15	62	63
73	1	63	64
74	7	65	66
75	6	65	67
76	7	67	68
77	7	71	72
78	6	71	73
79	7	73	74
80	11	76	77
81	12	77	78
82	9	77	89
83	9	77	90
84	12	78	79
85	9	78	87
86	9	78	88
87	12	79	80
88	9	79	85
89	9	79	86
90	16	80	81
91	9	80	83
92	9	80	84
93	17	81	82

Angles

1	4	58	57	59
2	5	35	36	37
3	3	49	50	52
4	3	1	46	47
5	4	15	14	16
6	1	46	48	49
7	3	49	73	71
8	5	34	35	40
9	4	50	52	53
10	5	33	34	43
11	3	57	56	67
12	3	52	54	71
13	5	54	55	69
14	5	35	36	38
15	6	37	76	77
16	3	3	4	5
17	5	78	79	80
18	5	11	10	26
19	3	3	4	29
20	3	14	16	21
21	4	57	59	60
22	3	47	46	48
23	5	34	35	41
24	5	32	33	34
25	3	50	52	54
26	3	48	49	50
27	4	56	67	68
28	5	78	79	85
29	5	54	55	70
30	5	33	34	35
31	5	9	10	25
32	3	14	16	17
33	8	25	10	26
34	3	62	61	65
35	4	4	5	6
36	3	54	71	73
37	3	16	21	23
38	5	37	36	38
39	9	61	62	63
40	3	48	49	73
41	1	16	17	18
42	7	19	18	32
43	4	22	21	23
44	8	38	36	39
45	3	59	61	65
46	5	9	10	26
47	4	61	65	66
48	3	4	29	27
49	5	34	33	44
50	5	36	35	41
51	5	54	55	56
52	3	4	5	7
53	3	7	9	27
54	8	44	33	45
55	4	28	27	29
56	5	79	80	81
57	5	37	36	39
58	4	11	12	13
59	5	77	78	79
60	3	1	46	48
61	4	5	7	8
62	2	49	48	75
63	8	42	34	43
64	5	81	80	83
65	3	5	4	29
66	5	76	77	89
67	8	87	78	88
68	3	12	11	23
69	3	3	1	46
70	5	35	36	39
71	4	66	65	67
72	5	81	80	84
73	5	80	79	85
74	5	78	79	86
75	5	77	78	87
76	3	57	59	61
77	5	76	77	90
78	3	2	1	46
79	4	21	23	24
80	4	8	7	9
81	4	65	67	68
82	4	27	29	30
83	3	17	18	19
84	4	9	27	28
85	3	10	11	23
86	2	1	3	31
87	3	56	67	65
88	4	11	23	24
89	5	35	34	42
90	6	80	81	82
91	4	60	59	61
92	5	9	10	11
93	2	18	17	20
94	3	17	16	21
95	4	49	73	74
96	4	49	50	51
97	4	13	12	14
98	5	77	78	88
99	3	61	65	67
100	4	56	57	58
101	5	34	33	45
102	3	2	1	3
103	5	78	77	89
104	5	56	55	69
105	4	6	5	7
106	3	9	27	29
107	3	59	61	62
108	5	35	34	43
109	2	46	48	75
110	5	76	77	78
111	2	4	3	31
112	3	11	12	14
113	2	16	17	20
114	6	18	32	33
115	3	52	54	55
116	1	1	3	4
117	3	56	57	59
118	8	83	80	84
119	5	11	10	25
120	3	11	23	21
121	4	53	52	54
122	3	55	56	67
123	3	5	7	9
124	5	79	78	87
125	5	32	33	44
126	3	17	18	32
127	5	78	77	90
128	8	40	35	41
129	5	56	55	70
130	3	55	54	71
131	4	12	14	15
132	4	71	73	74
133	5	79	80	83
134	10	62	63	64
135	8	89	77	90
136	3	10	9	27
137	5	34	35	36
138	3	55	56	57
139	4	4	29	30
140	3	10	11	12
141	5	79	78	88
142	5	32	33	45
143	8	69	55	70
144	3	50	49	73
145	4	54	71	72
146	3	7	9	10
147	4	16	21	22
148	3	12	14	16
149	5	80	79	86
150	4	51	50	52
151	4	72	71	73
152	5	79	80	84
153	8	85	79	86
154	6	36	37	76
155	5	36	35	40
156	5	33	34	42

Dihedrals

1	9	10	11	12	13
2	27	43	34	33	45
3	10	7	9	10	26
4	25	78	79	80	83
5	9	56	57	59	61
6	25	79	78	77	90
7	10	25	10	9	27
8	9	55	54	71	72
9	8	2	1	46	47
10	9	59	61	65	66
11	9	49	73	71	72
12	20	37	36	35	40
12	21	37	36	35	40
13	10	52	54	55	70
14	2	31	3	1	46
14	3	31	3	1	46
15	10	9	10	11	12
16	19	34	35	36	37
17	22	77	78	79	80
17	23	77	78	79	80
17	24	77	78	79	80
18	9	55	56	67	68
19	1	73	49	48	75
20	25	35	34	33	45
21	9	4	29	27	28
22	1	1	3	4	29
23	2	16	17	18	32
23	3	16	17	18	32
24	9	51	50	52	53
25	9	10	11	12	14
26	1	50	49	48	75
27	9	7	9	27	28
28	12	18	32	33	34
28	13	18	32	33	34
29	9	48	49	73	74
30	25	77	78	79	85
31	27	88	78	77	89
32	9	10	9	27	28
33	25	78	79	80	84
34	27	86	79	78	87
35	9	10	11	23	21
36	11	17	18	32	33
37	9	52	54	71	73
38	9	55	54	71	73
39	8	2	1	46	48
40	9	59	61	65	67
41	20	37	36	35	41
41	21	37	36	35	41
42	25	34	35	36	38
43	28	63	62	61	65
44	14	39	36	37	76
45	9	11	12	14	15
46	27	39	36	35	40
47	9	8	7	9	27
48	9	54	71	73	74
49	1	20	17	16	21
50	20	32	33	34	42
50	21	32	33	34	42
51	10	52	54	55	56
52	9	28	27	29	30
53	27	88	78	77	90
54	10	54	55	56	67
55	9	22	21	23	24
56	20	81	80	79	85
56	21	81	80	79	85
57	9	55	56	67	65
58	27	86	79	78	88
59	9	11	23	21	16
60	10	57	56	55	70
61	9	49	73	71	54
62	2	1	46	48	75
62	3	1	46	48	75
63	9	17	16	21	23
64	10	11	10	9	27
65	32	82	81	80	84
66	9	48	49	73	71
67	9	3	4	5	7
68	9	48	49	50	52
69	28	59	61	62	63
70	9	49	50	52	53
71	10	70	55	54	71
72	14	37	76	77	89
73	9	4	29	27	9
74	19	78	79	80	81
75	9	66	65	67	68
76	19	76	77	78	79
77	27	42	34	33	45
78	1	46	48	49	73
79	10	23	11	10	25
80	2	1	46	48	49
80	3	1	46	48	49
81	10	54	55	56	57
82	25	80	79	78	87
83	9	5	4	29	27
84	9	62	61	65	66
85	9	4	5	7	8
86	20	81	80	79	86
86	21	81	80	79	86
87	9	58	57	59	61
88	6	2	1	3	31
88	7	2	1	3	31
89	10	7	9	10	11
90	1	18	17	16	21
91	27	87	78	77	90
92	9	5	7	9	27
93	9	72	71	73	74
94	8	3	1	46	47
95	14	38	36	37	76
96	9	49	50	52	54
97	27	38	36	35	40
98	2	4	3	1	46
98	3	4	3	1	46
99	14	35	36	37	76
100	9	7	5	4	29
101	9	12	11	23	24
102	9	4	5	7	9
103	9	62	61	65	67
104	9	50	52	54	55
105	20	76	77	78	87
105	21	76	77	78	87
106	9	51	50	52	54
107	1	14	16	17	20
108	9	13	12	11	23
109	1	46	48	49	50
110	10	67	56	55	69
111	9	15	14	16	21
112	9	16	21	23	24
113	9	7	9	27	29
114	25	77	78	79	86
115	8	3	1	46	48
116	9	10	9	27	29
117	4	2	1	3	4
117	5	2	1	3	4
118	25	33	34	35	40
119	9	15	14	16	17
120	9	6	5	7	8
121	27	84	80	79	85
122	9	50	49	73	74
123	9	13	12	14	15
124	25	34	35	36	39
125	9	53	52	54	55
126	9	61	65	67	68
127	9	12	14	16	21
128	9	11	12	14	16
129	20	76	77	78	88
129	21	76	77	78	88
130	27	39	36	35	41
131	27	85	79	78	87
132	9	6	5	4	29
133	22	33	34	35	36
133	23	33	34	35	36
133	24	33	34	35	36
134	9	55	56	57	58
135	14	37	76	77	78
136	1	29	4	3	31
137	20	32	33	34	43
137	21	32	33	34	43
138	9	12	11	23	21
139	9	3	4	29	30
140	27	87	78	77	89
141	25	33	34	35	41
142	9	12	14	16	17
143	27	40	35	34	42
144	9	56	67	65	61
145	9	14	16	21	22
146	15	19	18	17	20
146	16	19	18	17	20
147	10	56	55	54	71
148	9	57	56	67	68
149	9	56	57	59	60
150	10	26	10	9	27
151	9	60	59	61	65
152	14	37	76	77	90
153	9	55	56	57	59
154	9	11	23	21	22
155	10	23	11	10	26
156	10	69	55	54	71
157	25	80	79	78	88
158	9	9	27	29	30
159	19	32	33	34	35
160	27	41	35	34	42
161	29	61	62	63	64
162	25	36	35	34	42
163	27	40	35	34	43
164	9	52	50	49	73
165	27	84	80	79	86
166	14	18	32	33	44
167	9	57	59	61	65
168	9	8	7	9	10
169	9	3	4	29	27
170	27	38	36	35	41
171	9	50	52	54	71
172	1	5	4	3	31
173	9	52	54	71	72
174	10	9	10	11	23
175	9	14	12	11	23
176	9	59	57	56	67
177	9	57	56	67	65
178	9	58	57	56	67
179	27	41	35	34	43
180	9	60	59	61	62
181	25	36	35	34	43
182	1	1	3	4	5
183	27	83	80	79	85
184	14	18	32	33	45
185	10	67	56	55	70
186	26	36	37	76	77
187	10	12	11	10	25
188	9	53	52	54	71
189	10	57	56	55	69
190	9	17	16	21	22
191	2	16	17	18	19
191	3	16	17	18	19
192	9	5	4	29	30
193	9	6	5	7	9
194	6	47	46	48	75
194	7	47	46	48	75
195	9	57	59	61	62
196	9	13	12	14	16
197	9	3	4	5	6
198	2	20	17	18	32
198	3	20	17	18	32
199	10	7	9	10	25
200	27	43	34	33	44
201	9	48	49	50	51
202	9	51	50	49	73
203	9	56	67	65	66
204	27	85	79	78	88
205	27	83	80	79	86
206	9	5	7	9	10
207	25	79	78	77	89
208	27	42	34	33	44
209	9	58	57	59	60
210	30	79	80	81	82
210	31	79	80	81	82
211	17	19	18	32	33
211	18	19	18	32	33
212	4	47	46	48	49
212	5	47	46	48	49
213	10	12	11	10	26
214	10	52	54	55	69
215	9	50	49	73	71
216	32	82	81	80	83
217	9	10	11	23	24
218	25	35	34	33	44
219	9	14	16	21	23
220	1	14	16	17	18

Impropers

5	2	4	5	29	3
6	2	61	65	59	62
12	1	48	49	75	46
13	1	3	4	31	1
14	2	9	10	27	7
15	2	23	11	21	24
26	2	23	21	24	11
31	2	57	59	56	58
33	2	1	2	3	46
40	2	71	54	72	73
44	1	17	18	20	16
47	2	59	61	57	60
49	2	5	6	7	4
52	2	54	52	55	71
53	2	5	4	6	7
56	2	7	5	8	9
67	2	49	48	50	73
77	2	46	1	47	48
79	3	18	32	17	19
80	2	52	54	50	53
89	2	4	29	3	5
107	2	27	28	29	9
110	2	50	52	49	51
113	2	14	12	15	16
125	2	71	72	73	54
126	2	11	23	10	12
138	1	17	16	18	20
140	2	67	65	68	56
145	2	56	67	55	57
146	2	23	24	11	21
155	2	65	67	61	66
156	2	49	73	48	50
163	2	52	50	53	54
165	2	29	4	27	30
166	1	3	1	4	31
172	2	4	3	5	29
173	2	27	29	9	28
175	2	65	61	66	67
186	2	16	14	17	21
188	2	56	55	57	67
197	3	18	19	32	17
201	2	54	71	52	55
202	2	73	74	49	71
216	2	12	14	11	13
217	2	59	60	61	57
221	2	1	46	2	3
226	2	29	27	30	4
227	2	61	62	65	59
234	2	7	9	5	8
243	2	21	22	23	16
246	2	21	16	22	23
249	2	7	8	9	5
257	2	65	66	67	61
266	2	12	13	14	11
269	2	12	11	13	14
271	2	16	21	14	17
278	2	9	27	7	10
280	2	61	59	62	65
283	2	21	23	16	22
284	2	1	3	46	2
287	2	54	55	71	52
290	2	27	9	28	29
297	2	49	50	73	48
308	1	48	75	46	49
315	2	57	58	59	56
316	2	46	47	48	1
318	2	16	17	21	14
320	2	57	56	58	59
327	2	56	57	67	55
328	2	50	51	52	49
332	2	50	49	51	52
341	2	14	15	16	12
343	2	52	53	54	50
348	2	71	73	54	72
351	1	3	31	1	4
356	2	14	16	12	15
357	2	11	10	12	23
358	1	17	20	16	18
360	2	9	7	10	27
361	2	67	56	65	68
369	2	73	49	71	74
374	2	29	30	4	27
383	2	46	48	1	47
391	2	5	7	4	6
399	1	48	46	49	75
405	3	18	17	19	32
406	2	11	12	23	10
409	2	67	68	56	65
415	2	73	71	74	49
420	2	59	57	60	61
