Title

79 atoms
82 bonds
149 angles
277 dihedrals
48 impropers

9 atom types
12 bond types
6 angle types
23 dihedral types
2 improper types
-9.725000381 90.27499962 xlo xhi
-7.828999996 92.171 ylo yhi
-6.085999966 93.91400003 zlo zhi
0.0 0.0 0.0 xy xz yz

Masses

1	15.99943
2	12.01078
3	1.007947
4	1.007947
5	12.01078
6	15.99943
7	1.007947
8	15.99943
9	1.007947


Pair Coeffs

1	0.16846514	3.0251065
2	0.10884061	3.3795318
3	0.015779483	2.6445434
4	0.016409246	2.5832257
5	0.086879315	3.4806469
6	0.2102061	3.0398122
7	0.015611343	2.5725815
8	0.20947353	2.99716
9	1.2326e-05	0.53453923

Bond Coeffs

1 harmonic	366.7408841747	1.425895053732
2 harmonic	300.03137914615	1.451203938761
3 harmonic	264.62148576755	1.52190126495
4 harmonic	370.04670688625	1.093899492634
5 harmonic	301.15400723785	1.345741232799
6 harmonic	582.698766451	1.225198386222
7 harmonic	279.1350963404	1.454628925034
8 harmonic	360.7852444772	1.387193227181
9 harmonic	397.2545789619	1.085358495916
10 harmonic	329.96998057905	1.427343958716
11 harmonic	543.5267831885	0.9716763312559
12 harmonic	385.7604595587	1.369745182308


Angle Coeffs

1 harmonic	53.20531626545	116.5475862634
2 harmonic	65.09061609600001	110.3538806181
3 harmonic	48.776492647595	115.6030999533
4 harmonic	201.41175231035	127.4691416191
5 harmonic	57.8982893754	126.8062420451
6 harmonic	34.066775159195	129.1835929926


Dihedral Coeffs

1 fourier 1	0.1115525666802	3	0
2 fourier 1	0.3432490222662	1	0
3 fourier 1	0.1155372516788	3	0
4 fourier 1	0.0473758381877	3	0
5 fourier 1	0.457973137376	1	0
6 fourier 1	0.1040663847541	3	0
7 fourier 1	0.09223874044423	3	0
8 fourier 1	0.3159935921949	2	180
9 fourier 1	0.3247796806857	1	180
10 fourier 1	0.1911926717192	3	0
11 fourier 1	0.1918272375143	3	0
12 fourier 1	0.9202179876409	1	180
13 fourier 1	1.163809172478	2	180
14 fourier 1	0.1679186987369	1	180
15 fourier 1	2.779853741805	2	180
16 fourier 1	0.9974165607242	2	180
17 fourier 1	3.661930099076	2	180
18 fourier 1	0.3445382149273	3	0
19 fourier 1	0.1364556373303	1	0
20 fourier 1	0.3026390167484	3	0
21 fourier 1	2.687457892086	2	180
22 fourier 1	2.772607909663	2	180
23 fourier 1	0.09692684957115	1	0


Improper Coeffs

1 3.5	-1	2
2 0.3666666666666667	-1	2


Atoms

1	1	1	-0.139322	3.734	0.289	0.2
2	1	2	0.019507	2.721	-0.61799997	-0.14300001
3	1	2	-0.070616998	1.439	0.125	-0.56800002
4	1	3	0.093038999	1.692	0.74000001	-1.461
5	1	2	-0.16237199	0.33199999	-0.87400001	-1.003
6	1	3	0.100833	0.77499998	-1.819	-1.388
7	1	3	0.100833	-0.249	-0.43200001	-1.842
8	1	2	-0.162815	-0.63700002	-1.1950001	0.142
9	1	3	0.10022	-1.3609999	-1.967	-0.197
10	1	3	0.10022	-0.057	-1.648	0.97600001
11	1	2	-0.071663	-1.369	0.075000003	0.66100001
12	1	2	0.112726	-2.76	0.23	0.023
13	1	1	-0.49167001	-3.592	-0.82700002	0.419
14	1	4	0.094223998	-2.6689999	0.244	-1.086
15	1	4	0.094223998	-3.214	1.191	0.354
16	1	3	0.089924999	-1.518	-0.052000001	1.757
17	1	2	-0.162815	-0.53899997	1.367	0.44999999
18	1	3	0.10022	-0.82700002	2.1210001	1.215
19	1	3	0.10022	-0.74699998	1.809	-0.55000001
20	1	2	-0.16237199	0.963	1.087	0.55299997
21	1	3	0.100833	1.1720001	0.65499997	1.557
22	1	3	0.100833	1.521	2.046	0.479
23	1	4	0.101217	2.5079999	-1.2640001	0.736
24	1	4	0.101217	3.073	-1.28	-0.96700001
25	1	5	0.780123	-4.5009999	-0.67199999	-0.057
26	1	6	-0.572312	-4.6859999	0.40599999	-0.68000001
27	1	5	-0.309082	-5.553	-1.702	0
28	1	5	-0.11081	-5.3400002	-2.8469999	0.67000002
29	1	7	0.20750199	-4.3969998	-3.027	1.173
30	1	5	-0.067872003	-6.3899999	-3.885	0.73199999
31	1	7	0.189991	-6.1900001	-4.7979999	1.279
32	1	5	-0.370509	-7.5710001	-3.6949999	0.12
33	1	5	0.57856399	-8.6129999	-4.7350001	0.18700001
34	1	6	-0.61016202	-9.7250004	-4.572	-0.38100001
35	1	5	-0.067872003	-7.809	-2.4300001	-0.62
36	1	7	0.189991	-8.7539997	-2.2590001	-1.12
37	1	5	-0.11081	-6.8579998	-1.49	-0.67699999
38	1	7	0.20750199	-7.0489998	-0.574	-1.221
39	1	1	-0.139322	4.0710001	0.67400002	-0.64999998
40	1	2	0.019507	3.0969999	1.581	-1.0930001
41	1	2	-0.070616998	1.8710001	0.838	-1.661
42	1	3	0.093038999	1.4450001	0.223	-0.83600003
43	1	2	-0.161586	0.76599997	1.837	-2.0999999
44	1	3	0.100833	0.82499999	2.7820001	-1.517
45	1	3	0.100833	-0.23199999	1.395	-1.887
46	1	2	-0.15453	0.84299999	2.158	-3.598
47	1	3	0.100833	0.083999999	2.9300001	-3.8469999
48	1	3	0.100833	1.836	2.6110001	-3.8099999
49	1	2	-0.112026	0.66500002	0.88800001	-4.4780002
50	1	2	0.081583001	-0.78600001	0.73400003	-4.9650002
51	1	8	-0.669846	-1.122	1.79	-5.822
52	1	9	0.38374901	-2.0669999	1.642	-6.086
53	1	4	0.090314001	-1.479	0.71899998	-4.0929999
54	1	4	0.090314001	-0.89099997	-0.228	-5.5170002
55	1	3	0.096597001	1.306	1.015	-5.3800001
56	1	2	-0.15453	1.126	-0.40400001	-3.756
57	1	3	0.100833	1.439	-1.158	-4.5110002
58	1	3	0.100833	0.28999999	-0.84600002	-3.1689999
59	1	2	-0.161586	2.2909999	-0.124	-2.803
60	1	3	0.100833	3.131	0.308	-3.3929999
61	1	3	0.100833	2.648	-1.0829999	-2.368
62	1	4	0.101217	3.543	2.227	-1.88
63	1	4	0.101217	2.79	2.243	-0.25099999
64	1	5	0.57856399	-8.4320002	-5.6539998	0.72899997
65	1	6	-0.61016202	-8.6400003	-6.7529998	0.15000001
66	1	5	-0.370509	-7.9499998	-5.6129999	2.1210001
67	1	5	-0.067872003	-7.7340002	-4.4320002	2.724
68	1	7	0.189991	-7.9089999	-3.5009999	2.198
69	1	5	-0.108313	-7.25	-4.382	4.1199999
70	1	7	0.20750199	-7.0869999	-3.4119999	4.573
71	1	5	-0.29764801	-7.0209999	-5.5170002	4.8049998
72	1	5	0.82627797	-6.5370002	-5.4840002	6.2030001
73	1	6	-0.549591	-6.3280001	-4.3850002	6.7849998
74	1	8	-0.67874801	-6.3080001	-6.6729999	6.8899999
75	1	9	0.39815199	-5.9759998	-6.6659999	7.8470001
76	1	5	-0.108313	-7.2610002	-6.822	4.138
77	1	7	0.20750199	-7.0830002	-7.7490001	4.6680002
78	1	5	-0.067872003	-7.698	-6.8670001	2.8729999
79	1	7	0.189991	-7.8670001	-7.829	2.405

Bonds

1	1	1	2
2	2	1	39
3	3	2	3
4	4	2	23
5	4	2	24
6	4	3	4
7	3	3	5
8	3	3	20
9	4	5	6
10	4	5	7
11	3	5	8
12	4	8	9
13	4	8	10
14	3	8	11
15	3	11	12
16	4	11	16
17	3	11	17
18	1	12	13
19	4	12	14
20	4	12	15
21	5	13	25
22	4	17	18
23	4	17	19
24	3	17	20
25	4	20	21
26	4	20	22
27	6	25	26
28	7	25	27
29	8	27	28
30	8	27	37
31	9	28	29
32	8	28	30
33	9	30	31
34	8	30	32
35	7	32	33
36	8	32	35
37	6	33	34
38	7	33	64
39	9	35	36
40	8	35	37
41	9	37	38
42	1	39	40
43	3	40	41
44	4	40	62
45	4	40	63
46	4	41	42
47	3	41	43
48	3	41	59
49	4	43	44
50	4	43	45
51	3	43	46
52	4	46	47
53	4	46	48
54	3	46	49
55	3	49	50
56	4	49	55
57	3	49	56
58	10	50	51
59	4	50	53
60	4	50	54
61	11	51	52
62	4	56	57
63	4	56	58
64	3	56	59
65	4	59	60
66	4	59	61
67	6	64	65
68	7	64	66
69	8	66	67
70	8	66	78
71	9	67	68
72	8	67	69
73	9	69	70
74	8	69	71
75	7	71	72
76	8	71	76
77	6	72	73
78	12	72	74
79	11	74	75
80	9	76	77
81	8	76	78
82	9	78	79

Angles

1	1	5	8	9
2	6	36	35	37
3	3	21	20	22
4	1	50	49	56
5	1	9	8	11
6	1	43	46	48
7	5	33	32	35
8	1	40	41	42
9	5	28	30	32
10	5	25	27	37
11	2	50	51	52
12	3	6	5	7
13	1	43	41	59
14	5	30	32	33
15	1	3	2	23
16	1	3	20	22
17	1	49	50	53
18	5	28	27	37
19	1	56	59	61
20	5	72	71	76
21	3	44	43	45
22	3	47	46	48
23	5	69	71	76
24	5	71	76	78
25	6	66	67	68
26	1	17	20	22
27	5	71	72	73
28	1	6	5	8
29	5	32	33	64
30	4	73	72	74
31	1	3	2	24
32	6	77	76	78
33	1	46	49	50
34	5	69	71	72
35	2	72	74	75
36	6	70	69	71
37	1	44	43	46
38	1	47	46	49
39	5	34	33	64
40	5	66	67	69
41	1	1	2	23
42	3	23	2	24
43	5	65	64	66
44	1	49	56	58
45	6	68	67	69
46	1	11	12	14
47	5	27	28	30
48	1	3	5	6
49	1	5	8	11
50	1	1	2	3
51	1	40	41	59
52	5	33	64	65
53	1	11	17	18
54	1	19	17	20
55	1	41	43	44
56	1	49	56	59
57	2	1	39	40
58	1	39	40	62
59	1	16	11	17
60	1	43	46	49
61	1	4	3	20
62	5	32	33	34
63	6	66	78	79
64	3	18	17	19
65	1	12	11	16
66	5	64	66	78
67	6	27	37	38
68	1	49	50	54
69	3	14	12	15
70	1	42	41	43
71	5	33	64	66
72	1	11	17	19
73	1	7	5	8
74	1	8	11	16
75	1	42	41	59
76	1	46	49	55
77	1	55	49	56
78	6	67	69	70
79	1	13	12	14
80	5	71	72	74
81	5	30	32	35
82	1	8	11	12
83	1	45	43	46
84	1	48	46	49
85	1	40	41	43
86	5	66	78	76
87	6	32	35	36
88	3	53	50	54
89	3	62	40	63
90	6	31	30	32
91	1	41	40	63
92	1	5	3	20
93	1	49	50	51
94	1	10	8	11
95	1	41	40	62
96	5	67	69	71
97	1	1	2	24
98	1	11	12	15
99	2	12	13	25
100	1	3	5	7
101	6	28	30	31
102	6	76	78	79
103	5	32	35	37
104	3	9	8	10
105	1	51	50	54
106	5	64	66	67
107	1	3	20	21
108	3	57	56	58
109	1	41	43	45
110	1	58	56	59
111	1	4	3	5
112	1	39	40	63
113	1	56	59	60
114	1	2	3	4
115	1	3	5	8
116	1	3	20	17
117	1	41	59	60
118	6	71	76	77
119	2	2	1	39
120	1	18	17	20
121	1	17	20	21
122	1	12	11	17
123	1	2	3	20
124	5	25	27	28
125	1	57	56	59
126	1	41	43	46
127	1	11	17	20
128	1	41	59	56
129	4	13	25	26
130	1	8	11	17
131	1	2	3	5
132	5	27	37	35
133	1	51	50	53
134	1	46	49	56
135	1	39	40	41
136	1	41	59	61
137	1	13	12	15
138	1	50	49	55
139	5	26	25	27
140	6	29	28	30
141	1	49	56	57
142	1	43	46	47
143	1	11	12	13
144	3	60	59	61
145	6	27	28	29
146	5	13	25	27
147	5	67	66	78
148	6	35	37	38
149	1	5	8	10

Dihedrals

1	17	32	35	37	38
2	4	3	2	1	39
3	17	31	30	32	33
4	17	67	69	71	72
5	10	53	50	49	55
6	16	65	64	66	78
7	17	27	28	30	32
8	6	6	5	3	20
9	6	48	46	49	56
10	16	69	71	72	73
11	17	30	32	35	36
12	7	43	46	49	56
12	8	43	46	49	56
12	9	43	46	49	56
13	6	2	3	5	6
14	10	19	17	20	22
15	6	2	3	20	22
16	10	4	3	5	7
17	6	11	17	20	22
18	6	47	46	49	56
19	10	55	49	56	58
20	17	27	37	35	36
21	6	3	5	8	10
22	17	28	27	37	38
23	6	3	5	8	9
24	10	42	41	43	45
25	7	46	43	41	59
25	8	46	43	41	59
25	9	46	43	41	59
26	15	12	13	25	27
27	10	16	11	17	19
28	7	40	41	43	46
28	8	40	41	43	46
28	9	40	41	43	46
29	6	41	43	46	47
30	6	5	3	20	21
31	1	51	50	49	55
31	2	51	50	49	55
32	6	54	50	49	56
33	6	40	41	59	60
34	17	70	69	71	72
35	7	3	20	17	11
35	8	3	20	17	11
35	9	3	20	17	11
36	10	4	3	20	21
37	10	58	56	59	60
38	10	7	5	8	10
39	6	41	59	56	58
40	10	7	5	8	9
41	17	27	37	35	32
42	10	42	41	59	60
43	10	18	17	20	21
44	10	45	43	46	47
45	16	69	71	72	74
46	17	77	76	78	79
47	6	5	8	11	16
48	7	5	3	20	17
48	8	5	3	20	17
48	9	5	3	20	17
49	17	69	67	66	78
50	6	4	3	5	8
51	7	40	41	59	56
51	8	40	41	59	56
51	9	40	41	59	56
52	10	44	43	46	47
53	16	13	25	27	37
54	6	4	3	20	17
55	17	28	30	32	35
56	6	42	41	59	56
57	6	16	11	17	20
58	6	41	43	46	48
59	3	51	50	49	56
60	6	5	3	20	22
61	10	9	8	11	16
62	17	30	28	27	37
63	17	66	78	76	77
64	7	5	8	11	12
64	8	5	8	11	12
64	9	5	8	11	12
65	6	8	11	12	15
66	3	39	40	41	43
67	16	35	32	33	64
68	4	15	12	13	25
69	6	46	49	50	54
70	10	58	56	59	61
71	6	10	8	11	17
72	10	42	41	40	62
73	10	18	17	20	22
74	17	28	27	37	35
75	10	45	43	46	48
76	3	39	40	41	59
77	17	72	71	76	78
78	7	5	8	11	17
78	8	5	8	11	17
78	9	5	8	11	17
79	6	3	20	17	19
80	6	9	8	11	12
81	18	49	50	51	52
81	19	49	50	51	52
82	16	74	72	71	76
83	10	14	12	11	16
84	4	1	39	40	62
85	6	45	43	41	59
86	6	8	11	17	19
87	6	59	41	40	62
88	17	71	76	78	79
89	6	49	56	59	61
90	16	65	64	66	67
91	6	9	8	11	17
92	6	44	43	41	59
93	17	70	69	71	76
94	17	33	32	35	36
95	3	13	12	11	17
96	7	12	11	17	20
96	8	12	11	17	20
96	9	12	11	17	20
97	7	8	5	3	20
97	8	8	5	3	20
97	9	8	5	3	20
98	10	42	41	40	63
99	17	29	28	30	31
100	6	15	12	11	17
101	6	48	46	49	50
102	6	43	41	59	60
103	6	40	41	43	45
104	7	43	46	49	50
104	8	43	46	49	50
104	9	43	46	49	50
105	16	33	64	66	78
106	7	3	5	8	11
106	8	3	5	8	11
106	9	3	5	8	11
107	6	14	12	11	17
108	3	46	49	50	51
109	6	53	50	49	56
110	6	46	49	56	57
111	7	8	11	17	20
111	8	8	11	17	20
111	9	8	11	17	20
112	17	30	32	35	37
113	16	26	25	27	28
114	10	6	5	8	10
115	6	2	3	5	7
116	17	67	66	78	79
117	10	6	5	8	9
118	7	43	41	59	56
118	8	43	41	59	56
118	9	43	41	59	56
119	17	64	66	67	68
120	6	7	5	8	11
121	6	55	49	56	59
122	17	68	67	66	78
123	17	29	28	30	32
124	6	42	41	43	46
125	17	25	27	37	38
126	6	43	41	40	62
127	6	40	41	59	61
128	17	31	30	32	35
129	10	4	3	2	23
130	6	5	3	2	23
131	10	4	3	20	22
132	17	36	35	37	38
133	6	46	49	56	58
134	10	42	41	59	61
135	6	50	49	56	57
136	17	68	67	69	70
137	7	2	3	5	8
137	8	2	3	5	8
137	9	2	3	5	8
138	16	34	33	64	65
139	10	44	43	46	48
140	7	41	43	46	49
140	8	41	43	46	49
140	9	41	43	46	49
141	6	43	41	40	63
142	17	67	66	78	76
143	10	4	3	2	24
144	6	20	3	2	23
145	11	11	12	13	25
145	12	11	12	13	25
146	17	66	67	69	70
147	6	45	43	46	49
148	6	40	41	43	44
149	16	30	32	33	64
150	16	32	33	64	65
151	6	44	43	46	49
152	4	1	39	40	63
153	17	25	27	28	29
154	6	47	46	49	50
155	17	64	66	78	79
156	16	26	25	27	37
157	1	1	2	3	4
157	2	1	2	3	4
158	16	33	64	66	67
159	6	59	41	40	63
160	17	69	71	76	77
161	10	48	46	49	55
162	6	43	46	49	55
163	1	39	40	41	42
163	2	39	40	41	42
164	10	19	17	20	21
165	6	2	3	20	21
166	3	1	2	3	20
167	10	4	3	5	6
168	17	33	32	35	37
169	10	47	46	49	55
170	17	28	30	32	33
171	17	66	67	69	71
172	13	12	13	25	26
172	14	12	13	25	26
173	6	6	5	8	11
174	10	16	11	17	18
175	6	43	41	59	61
176	16	32	33	64	66
177	3	8	11	12	13
178	6	7	5	3	20
179	7	2	3	20	17
179	8	2	3	20	17
179	9	2	3	20	17
180	5	2	1	39	40
181	17	25	27	28	30
182	6	41	59	56	57
183	17	69	71	76	78
184	3	1	2	3	5
185	4	1	39	40	41
186	20	52	51	50	53
187	10	57	56	59	60
188	17	64	66	67	69
189	22	73	72	74	75
189	23	73	72	74	75
190	17	66	78	76	71
191	4	24	2	1	39
192	17	64	66	78	76
193	21	71	72	74	75
194	4	23	2	1	39
195	6	8	11	12	14
196	6	5	3	2	24
197	6	46	49	50	53
198	10	10	8	11	16
199	6	12	11	17	18
200	7	46	49	56	59
200	8	46	49	56	59
200	9	46	49	56	59
201	17	29	28	27	37
202	16	30	32	33	34
203	6	50	49	56	58
204	7	41	59	56	49
204	8	41	59	56	49
204	9	41	59	56	49
205	17	25	27	37	35
206	20	52	51	50	54
207	17	68	67	69	71
208	16	34	33	64	66
209	17	72	71	76	77
210	6	3	20	17	18
211	10	57	56	59	61
212	16	34	33	32	35
213	6	10	8	11	12
214	6	8	11	17	18
215	16	13	25	27	28
216	17	27	28	30	31
217	6	49	56	59	60
218	16	73	72	71	76
219	17	67	69	71	76
220	6	11	17	20	21
221	6	20	3	2	24
222	1	13	12	11	16
222	2	13	12	11	16
223	6	12	11	17	19
224	4	14	12	13	25
225	10	55	49	56	57
226	7	50	49	56	59
226	8	50	49	56	59
226	9	50	49	56	59
227	10	42	41	43	44
228	10	15	12	11	16
229	10	54	50	49	55

Impropers

3	2	71	72	76	69
4	2	66	78	64	67
7	2	66	64	67	78
8	2	28	30	27	29
9	2	69	71	67	70
10	2	69	70	71	67
12	2	35	36	37	32
21	2	78	79	66	76
23	2	76	78	71	77
42	1	25	13	26	27
60	1	25	26	27	13
69	2	27	25	28	37
81	2	67	68	69	66
119	2	71	69	72	76
125	2	33	34	64	32
127	2	78	66	76	79
136	2	67	66	68	69
147	2	33	32	34	64
170	2	37	35	38	27
177	2	35	32	36	37
180	2	28	29	30	27
187	2	30	32	28	31
195	2	37	27	35	38
223	2	66	67	78	64
231	2	67	69	66	68
247	2	32	33	35	30
249	2	32	35	30	33
260	1	72	71	73	74
280	2	32	30	33	35
306	2	78	76	79	66
322	2	37	38	27	35
328	2	64	65	66	33
330	2	27	28	37	25
340	2	69	67	70	71
347	2	76	71	77	78
352	2	64	33	65	66
355	2	27	37	25	28
358	2	30	28	31	32
383	2	28	27	29	30
386	2	71	76	69	72
391	2	33	64	32	34
401	2	64	66	33	65
411	2	76	77	78	71
439	1	25	27	13	26
458	2	30	31	32	28
459	1	72	74	71	73
467	1	72	73	74	71
468	2	35	37	32	36
