Title

41 atoms
42 bonds
67 angles
105 dihedrals
36 impropers

8 atom types
13 bond types
7 angle types
24 dihedral types
2 improper types
-2.391000032 97.60899997 xlo xhi
-1.483999968 98.51600003 ylo yhi
-3.676000118 96.32399988 zlo zhi
0.0 0.0 0.0 xy xz yz

Masses

1	15.99943
2	12.01078
3	1.007947
4	12.01078
5	15.99943
6	1.007947
7	15.99943
8	1.007947


Pair Coeffs

1	0.16846514	3.0251065
2	0.10884061	3.3795318
3	0.016409246	2.5832257
4	0.086879315	3.4806469
5	0.2102061	3.0398122
6	0.015611343	2.5725815
7	0.20947353	2.99716
8	1.2326e-05	0.53453923

Bond Coeffs

1 harmonic	366.7408841747	1.425895053732
2 harmonic	300.03137914615	1.451203938761
3 harmonic	264.62148576755	1.52190126495
4 harmonic	370.04670688625	1.093899492634
5 harmonic	301.15400723785	1.345741232799
6 harmonic	582.698766451	1.225198386222
7 harmonic	279.1350963404	1.454628925034
8 harmonic	399.1592953295	1.371688562017
9 harmonic	369.34270398985	1.364116986116
10 harmonic	397.2545789619	1.085358495916
11 harmonic	329.96998057905	1.427343958716
12 harmonic	543.5267831885	0.9716763312559
13 harmonic	385.7604595587	1.369745182308


Angle Coeffs

1 harmonic	53.20531626545	116.5475862634
2 harmonic	65.09061609600001	110.3538806181
3 harmonic	201.41175231035	127.4691416191
4 harmonic	57.8982893754	126.8062420451
5 harmonic	48.776492647595	115.6030999533
6 harmonic	39.628116874445	129.8027304608
7 harmonic	79.1895422237	112.4630193006


Dihedral Coeffs

1 fourier 1	-0.0309670556842	3	0
2 fourier 1	0.4598191477945	2	0
3 fourier 1	0.1115525666802	3	0
4 fourier 1	0.3432490222662	1	0
5 fourier 1	0.0473758381877	3	0
6 fourier 1	0.457973137376	1	0
7 fourier 1	0.1918272375143	3	0
8 fourier 1	0.9202179876409	1	180
9 fourier 1	1.163809172478	2	180
10 fourier 1	0.1679186987369	1	180
11 fourier 1	2.779853741805	2	180
12 fourier 1	0.9974165607242	2	180
13 fourier 1	0.1911926717192	3	0
14 fourier 1	5.294842998052	2	180
15 fourier 1	1.659715194912	2	180
16 fourier 1	0.2347635637734	2	180
17 fourier 1	0.4747469131102	3	0
18 fourier 1	1.163235555439	2	180
19 fourier 1	0.3445382149273	3	0
20 fourier 1	0.1364556373303	1	0
21 fourier 1	0.3026390167484	3	0
22 fourier 1	2.687457892086	2	180
23 fourier 1	2.772607909663	2	180
24 fourier 1	0.09692684957115	1	0


Improper Coeffs

1 3.5	-1	2
2 0.3666666666666667	-1	2


Atoms

1	1	1	-0.14957801	1.576	-0.336	0.85699999
2	1	2	0.047070999	0.63599998	-0.419	-0.17900001
3	1	2	0.155224	-0.71899998	0.11	0.28999999
4	1	1	-0.49365401	-1.675	-0.035999998	-0.72399998
5	1	3	0.079880998	-1.051	-0.46900001	1.177
6	1	3	0.079880998	-0.63099998	1.1799999	0.58899999
7	1	3	0.089312002	0.52999997	-1.484	-0.477
8	1	3	0.089312002	0.98699999	0.154	-1.068
9	1	4	0.673217	-1.49	0.71399999	-1.4170001
10	1	5	-0.52915001	-2.391	1.043	-2.2320001
11	1	4	0.254347	-0.191	1.388	-1.447
12	1	4	-0.283317	0.82599998	1.123	-0.63800001
13	1	6	0.17919201	0.84500003	0.382	0.15000001
14	1	4	-0.296314	1.908	2.0250001	-1.023
15	1	6	0.16397899	2.8929999	2.089	-0.57700002
16	1	4	0.306925	1.451	2.756	-2.03
17	1	4	0.437264	2.207	3.796	-2.73
18	1	5	-0.52681297	1.677	4.434	-3.6760001
19	1	1	-0.221466	0.145	2.3989999	-2.336
20	1	1	-0.143841	1.845	0.61799997	0.92000002
21	1	2	0.0206	3.148	0.70099998	0.41100001
22	1	2	0.092605002	4.1529999	0.17200001	1.434
23	1	7	-0.68250901	5.461	0.31799999	0.95200002
24	1	8	0.38930401	5.5970001	-0.40000001	0.27900001
25	1	3	0.086236	4.0549998	0.75199997	2.3759999
26	1	3	0.086236	3.941	-0.89700001	1.663
27	1	3	0.089987002	3.3759999	1.766	0.192
28	1	3	0.089987002	3.23	0.12800001	-0.54100001
29	1	4	0.437264	3.224	4.0219998	-2.437
30	1	5	-0.52681297	3.777	5.0679998	-2.8670001
31	1	4	0.30692399	3.954	3.118	-1.546
32	1	4	-0.296314	3.4719999	1.994	-1.035
33	1	6	0.16397899	2.484	1.585	-1.199
34	1	4	-0.28690001	4.5349998	1.4220001	-0.214
35	1	6	0.17919201	4.4910002	0.50199997	0.35499999
36	1	4	0.265214	5.5689998	2.2509999	-0.29899999
37	1	4	0.71868902	6.8649998	2.0799999	0.36700001
38	1	5	-0.519319	7.0809999	1.077	1.1
39	1	7	-0.69772702	7.8610001	3.0339999	0.186
40	1	8	0.39682701	8.7629995	2.9349999	0.63599998
41	1	1	-0.22493599	5.2579999	3.3269999	-1.119

Bonds

1	1	1	2
2	2	1	20
3	3	2	3
4	4	2	7
5	4	2	8
6	1	3	4
7	4	3	5
8	4	3	6
9	5	4	9
10	6	9	10
11	7	9	11
12	8	11	12
13	9	11	19
14	10	12	13
15	7	12	14
16	10	14	15
17	8	14	16
18	7	16	17
19	9	16	19
20	6	17	18
21	7	17	29
22	1	20	21
23	3	21	22
24	4	21	27
25	4	21	28
26	11	22	23
27	4	22	25
28	4	22	26
29	12	23	24
30	6	29	30
31	7	29	31
32	8	31	32
33	9	31	41
34	10	32	33
35	7	32	34
36	10	34	35
37	8	34	36
38	7	36	37
39	9	36	41
40	6	37	38
41	13	37	39
42	12	39	40

Angles

1	1	4	3	5
2	1	3	2	7
3	4	11	12	14
4	6	17	16	19
5	6	31	32	33
6	6	34	36	37
7	1	2	3	6
8	1	22	21	27
9	1	4	3	6
10	6	32	34	35
11	4	32	31	41
12	3	38	37	39
13	3	4	9	10
14	6	9	11	12
15	1	20	21	22
16	4	30	29	31
17	6	12	14	15
18	4	36	37	39
19	5	27	21	28
20	6	15	14	16
21	6	29	31	32
22	4	17	29	31
23	4	10	9	11
24	4	12	11	19
25	2	2	1	20
26	6	29	31	41
27	6	9	11	19
28	1	21	22	25
29	4	4	9	11
30	7	11	19	16
31	2	1	20	21
32	1	1	2	7
33	1	3	2	8
34	5	5	3	6
35	1	20	21	27
36	1	2	3	4
37	1	21	22	23
38	1	23	22	25
39	4	31	32	34
40	7	31	41	36
41	1	22	21	28
42	2	22	23	24
43	6	11	12	13
44	4	32	34	36
45	6	37	36	41
46	6	13	12	14
47	2	3	4	9
48	4	18	17	29
49	6	33	32	34
50	4	12	14	16
51	4	14	16	19
52	4	34	36	41
53	4	16	17	29
54	4	36	37	38
55	2	37	39	40
56	5	7	2	8
57	1	1	2	8
58	4	17	29	30
59	1	21	22	26
60	6	14	16	17
61	5	25	22	26
62	6	35	34	36
63	4	16	17	18
64	1	23	22	26
65	1	1	2	3
66	1	20	21	28
67	1	2	3	5

Dihedrals

1	5	5	3	4	9
2	12	30	29	31	41
3	12	10	9	11	19
4	5	7	2	1	20
5	3	20	21	22	25
5	4	20	21	22	25
6	13	25	22	21	27
7	15	31	41	36	34
8	15	12	11	19	16
9	5	1	20	21	27
10	12	14	16	17	29
11	14	29	31	32	34
12	12	18	17	29	31
13	14	34	32	31	41
14	3	20	21	22	26
14	4	20	21	22	26
15	13	26	22	21	27
16	13	25	22	21	28
17	14	9	11	12	13
18	16	34	36	37	38
18	17	34	36	37	38
19	12	16	17	29	30
20	13	6	3	2	7
21	13	5	3	2	8
22	14	32	34	36	37
23	14	33	32	31	41
24	14	12	14	16	17
25	18	31	32	34	36
26	16	10	9	11	12
26	17	10	9	11	12
27	12	17	29	31	41
28	18	13	12	14	16
29	1	1	2	3	4
29	2	1	2	3	4
30	3	23	22	21	27
30	4	23	22	21	27
31	11	3	4	9	11
32	21	24	23	22	26
33	13	26	22	21	28
34	22	36	37	39	40
35	12	16	17	29	31
36	3	1	2	3	5
36	4	1	2	3	5
37	15	11	19	16	17
38	16	14	16	17	18
38	17	14	16	17	18
39	6	2	1	20	21
40	14	32	34	36	41
41	18	33	32	34	35
42	5	1	20	21	28
43	19	21	22	23	24
43	20	21	22	23	24
44	16	30	29	31	32
44	17	30	29	31	32
45	12	38	37	36	41
46	15	11	19	16	14
47	5	3	2	1	20
48	14	9	11	12	14
49	12	34	36	37	39
50	13	6	3	2	8
51	12	19	16	17	29
52	18	11	12	14	15
53	15	9	11	19	16
54	1	20	21	22	23
54	2	20	21	22	23
55	23	38	37	39	40
55	24	38	37	39	40
56	14	35	34	36	37
57	14	15	14	16	19
58	3	23	22	21	28
58	4	23	22	21	28
59	15	29	31	41	36
60	5	6	3	4	9
61	14	13	12	11	19
62	14	12	14	16	19
63	12	4	9	11	19
64	12	17	29	31	32
65	14	29	31	32	33
66	12	18	17	29	30
67	12	39	37	36	41
68	5	1	20	21	22
69	18	33	32	34	36
70	14	35	34	36	41
71	12	18	17	16	19
72	13	5	3	2	7
73	5	8	2	1	20
74	3	4	3	2	7
74	4	4	3	2	7
75	18	31	32	34	35
76	14	15	14	16	17
77	18	13	12	14	15
78	3	1	2	3	6
78	4	1	2	3	6
79	7	2	3	4	9
79	8	2	3	4	9
80	21	24	23	22	25
81	15	31	41	36	37
82	14	14	12	11	19
83	12	4	9	11	12
84	3	4	3	2	8
84	4	4	3	2	8
85	18	11	12	14	16
86	9	3	4	9	10
86	10	3	4	9	10
87	15	32	31	41	36

Impropers

2	2	32	34	31	33
24	1	9	11	4	10
27	1	37	36	38	39
34	2	31	32	41	29
37	2	17	18	29	16
40	2	12	14	11	13
42	2	16	19	14	17
44	2	36	34	37	41
46	2	34	35	36	32
49	2	32	31	33	34
55	1	9	10	11	4
58	2	29	31	17	30
59	1	37	38	39	36
61	2	14	12	15	16
77	2	11	12	19	9
79	2	16	14	17	19
81	2	32	33	34	31
89	2	31	41	29	32
95	2	17	16	18	29
96	2	29	30	31	17
97	2	11	19	9	12
110	2	34	32	35	36
111	2	34	36	32	35
114	1	37	39	36	38
129	2	16	17	19	14
137	2	36	41	34	37
139	2	14	16	12	15
143	2	14	15	16	12
144	2	17	29	16	18
145	2	11	9	12	19
151	2	31	29	32	41
157	1	9	4	10	11
158	2	29	17	30	31
159	2	36	37	41	34
163	2	12	13	14	11
167	2	12	11	13	14
