Title

104 atoms
107 bonds
190 angles
267 dihedrals
78 impropers

9 atom types
13 bond types
6 angle types
10 dihedral types
2 improper types
-4.741000175 95.25899982 xlo xhi
-8.357999802 91.6420002 ylo yhi
-6.985000134 93.01499987 zlo zhi
0.0 0.0 0.0 xy xz yz

Masses

1	15.99943
2	12.01078
3	1.007947
4	12.01078
5	1.007947
6	15.99943
7	15.99943
8	1.007947
9	35.4532


Pair Coeffs

1	0.16846514	3.0251065
2	0.086879315	3.4806469
3	0.015611343	2.5725815
4	0.10884061	3.3795318
5	0.015779483	2.6445434
6	0.2102061	3.0398122
7	0.20947353	2.99716
8	1.2326e-05	0.53453923
9	0.2656001	3.3075278

Bond Coeffs

1 harmonic	425.69104206635	1.362945806494
2 harmonic	300.03137914615	1.451203938761
3 harmonic	360.7852444772	1.387193227181
4 harmonic	397.2545789619	1.085358495916
5 harmonic	289.73813263395	1.498646816465
6 harmonic	264.62148576755	1.52190126495
7 harmonic	301.15400723785	1.345741232799
8 harmonic	370.04670688625	1.093899492634
9 harmonic	582.698766451	1.225198386222
10 harmonic	279.1350963404	1.454628925034
11 harmonic	385.7604595587	1.369745182308
12 harmonic	543.5267831885	0.9716763312559
13 harmonic	218.0227703685	1.746066037062


Angle Coeffs

1 harmonic	57.8982893754	126.8062420451
2 harmonic	65.09061609600001	110.3538806181
3 harmonic	34.066775159195	129.1835929926
4 harmonic	53.20531626545	116.5475862634
5 harmonic	201.41175231035	127.4691416191
6 harmonic	48.776492647595	115.6030999533


Dihedral Coeffs

1 fourier 1	3.661930099076	2	180
2 fourier 1	1.532232714475	2	180
3 fourier 1	0.457973137376	1	0
4 fourier 1	0.02664938770063	3	0
5 fourier 1	0.1155372516788	3	0
6 fourier 1	2.779853741805	2	180
7 fourier 1	0.9974165607242	2	180
8 fourier 1	0.1040663847541	3	0
9 fourier 1	0.1911926717192	3	0
10 fourier 1	0.8283030590042	2	180


Improper Coeffs

1 0.3666666666666667	-1	2
2 3.5	-1	2


Atoms

1	1	1	-0.033151001	-2.6619999	-1.7920001	3.6849999
2	1	2	0.18512399	-2.0079999	-0.87699997	2.858
3	1	2	-0.281746	-1.364	0.14	3.441
4	1	3	0.228322	-1.3380001	0.21600001	4.5209999
5	1	2	-0.15200099	-0.73100001	1.2	2.6370001
6	1	3	0.213587	-0.249	2.0020001	3.174
7	1	2	-0.241384	-0.78299999	1.1670001	1.29
8	1	4	0.0067139999	-0.185	2.2709999	0.39700001
9	1	2	-0.241384	0.56999999	1.62	-0.778
10	1	2	-0.152207	0.47600001	2.0599999	-2.0510001
11	1	3	0.213587	-0.154	2.8929999	-2.326
12	1	2	-0.24983101	1.234	1.4069999	-3.1340001
13	1	3	0.22834399	1.12	1.77	-4.1469998
14	1	2	0.370444	2.0510001	0.377	-2.872
15	1	1	-0.43019301	2.7550001	-0.235	-3.9100001
16	1	2	-0.26224101	2.207	-0.108	-1.474
17	1	4	-0.075231001	3.131	-1.275	-1.163
18	1	4	-0.131835	2.3440001	-2.4719999	-0.61500001
19	1	5	0.084325999	1.549	-2.763	-1.334
20	1	5	0.084325999	3.0209999	-3.3410001	-0.47600001
21	1	5	0.084325999	1.875	-2.2309999	0.36300001
22	1	4	-0.131835	4.2519999	-0.86199999	-0.2
23	1	5	0.084325999	4.8000002	0.015	-0.60699999
24	1	5	0.084325999	4.9759998	-1.696	-0.079999998
25	1	5	0.084325999	3.849	-0.60100001	0.801
26	1	5	0.102659	3.6259999	-1.618	-2.096
27	1	2	-0.202187	1.51	0.49900001	-0.49200001
28	1	3	0.20358001	1.62	0.163	0.53100002
29	1	4	-0.13054	-1.3660001	3.1630001	-0.056000002
30	1	5	0.087622002	-1.949	3.5090001	0.82499999
31	1	5	0.087622002	-2.0539999	2.5999999	-0.72299999
32	1	5	0.087622002	-1.0089999	4.0700002	-0.588
33	1	4	-0.13054	0.83600003	3.1689999	1.136
34	1	5	0.087622002	1.327	3.8659999	0.42199999
35	1	5	0.087622002	1.6289999	2.5550001	1.615
36	1	5	0.087622002	0.34200001	3.7909999	1.913
37	1	2	-0.202491	-1.513	0.039000001	0.64399999
38	1	3	0.20358001	-1.5930001	0.035999998	-0.43399999
39	1	2	-0.22282	-2.0339999	-0.977	1.363
40	1	4	-0.077436998	-2.6789999	-2.164	0.65499997
41	1	4	-0.131835	-1.818	-2.7049999	-0.49900001
42	1	5	0.084325999	-0.77600002	-2.8729999	-0.15099999
43	1	5	0.084325999	-2.2249999	-3.677	-0.84899998
44	1	5	0.084325999	-1.8049999	-2.0109999	-1.365
45	1	4	-0.131835	-4.0840001	-1.798	0.168
46	1	5	0.084325999	-4.5700002	-2.6830001	-0.29699999
47	1	5	0.084325999	-4.039	-0.97899997	-0.58099997
48	1	5	0.084325999	-4.7090001	-1.4680001	1.025
49	1	5	0.102659	-2.7720001	-3.0139999	1.358
50	1	2	0.62926102	2.6659999	0.083999999	-4.9050002
51	1	6	-0.488177	3.664	0.373	-5.5440001
52	1	1	-0.033151001	-3.303	-2.4960001	3.348
53	1	2	0.18512399	-2.9909999	-3.4100001	2.3399999
54	1	2	-0.281746	-3.836	-4.428	2.1389999
55	1	3	0.228322	-4.7410002	-4.5040002	2.73
56	1	2	-0.15200099	-3.5309999	-5.487	1.163
57	1	3	0.213587	-4.2470002	-6.29	1.069
58	1	2	-0.241384	-2.391	-5.4549999	0.44299999
59	1	4	0.0067139999	-1.993	-6.559	-0.55599999
60	1	2	-0.241384	-1.452	-5.908	-1.8430001
61	1	2	-0.11358	-0.34900001	-6.348	-2.4860001
62	1	3	0.213587	0.234	-7.1799998	-2.122
63	1	2	-0.39616799	0.114	-5.6950002	-3.723
64	1	3	0.233734	1.015	-6.0580001	-4.2030001
65	1	2	0.34863099	-0.56400001	-4.665	-4.2490001
66	1	7	-0.639184	-0.106	-4.052	-5.4159999
67	1	8	0.43856901	0.73500001	-4.3610001	-5.8899999
68	1	2	-0.35591301	-1.8049999	-4.1799998	-3.586
69	1	4	-0.063184001	-2.585	-3.013	-4.1719999
70	1	4	-0.131835	-2.5910001	-1.816	-3.2130001
71	1	5	0.084325999	-1.548	-1.525	-2.964
72	1	5	0.084325999	-3.0880001	-0.94599998	-3.6930001
73	1	5	0.084325999	-3.131	-2.056	-2.273
74	1	4	-0.131835	-4.013	-3.4260001	-4.552
75	1	5	0.084325999	-3.987	-4.303	-5.2329998
76	1	5	0.084325999	-4.5209999	-2.5910001	-5.0799999
77	1	5	0.084325999	-4.6100001	-3.687	-3.6530001
78	1	5	0.102659	-2.095	-2.6700001	-5.1079998
79	1	2	-0.164408	-2.22	-4.7859998	-2.4560001
80	1	3	0.20358001	-3.125	-4.4499998	-1.967
81	1	4	-0.13054	-0.95200002	-7.4499998	0.162
82	1	5	0.087622002	-1.348	-7.796	1.142
83	1	5	0.087622002	-0.012	-6.8870001	0.352
84	1	5	0.087622002	-0.71600002	-8.3579998	-0.433
85	1	4	-0.13054	-3.181	-7.4559999	-0.97899997
86	1	5	0.087622002	-2.8699999	-8.1540003	-1.7869999
87	1	5	0.087622002	-4.0240002	-6.842	-1.362
88	1	5	0.087622002	-3.5420001	-8.0780001	-0.132
89	1	2	-0.202491	-1.446	-4.3270001	0.67900002
90	1	3	0.20358001	-0.51099998	-4.3239999	0.13500001
91	1	2	-0.22282	-1.744	-3.3110001	1.516
92	1	4	-0.077436998	-0.79500002	-2.1240001	1.647
93	1	4	-0.131835	-0.331	-1.5829999	0.28400001
94	1	5	0.084325999	-1.207	-1.415	-0.37799999
95	1	5	0.084325999	0.18799999	-0.61000001	0.42199999
96	1	5	0.084325999	0.37599999	-2.276	-0.21699999
97	1	4	-0.131835	0.40099999	-2.4890001	2.529
98	1	5	0.084325999	1.0599999	-1.605	2.6670001
99	1	5	0.084325999	0.99400002	-3.309	2.069
100	1	5	0.084325999	0.048999999	-2.8199999	3.53
101	1	5	0.102659	-1.322	-1.274	2.122
102	1	2	0.46857899	1.687	0.15800001	-5.3660002
103	1	6	-0.56069601	0.69800001	-0.214	-4.7579999
104	1	9	-0.077595003	1.527	0.81199998	-6.9850001

Bonds

1	1	1	2
2	2	1	52
3	3	2	3
4	3	2	39
5	4	3	4
6	3	3	5
7	4	5	6
8	3	5	7
9	5	7	8
10	3	7	37
11	5	8	9
12	6	8	29
13	6	8	33
14	3	9	10
15	3	9	27
16	4	10	11
17	3	10	12
18	4	12	13
19	3	12	14
20	1	14	15
21	3	14	16
22	7	15	50
23	5	16	17
24	3	16	27
25	6	17	18
26	6	17	22
27	8	17	26
28	8	18	19
29	8	18	20
30	8	18	21
31	8	22	23
32	8	22	24
33	8	22	25
34	4	27	28
35	8	29	30
36	8	29	31
37	8	29	32
38	8	33	34
39	8	33	35
40	8	33	36
41	4	37	38
42	3	37	39
43	5	39	40
44	6	40	41
45	6	40	45
46	8	40	49
47	8	41	42
48	8	41	43
49	8	41	44
50	8	45	46
51	8	45	47
52	8	45	48
53	9	50	51
54	10	50	102
55	1	52	53
56	3	53	54
57	3	53	91
58	4	54	55
59	3	54	56
60	4	56	57
61	3	56	58
62	5	58	59
63	3	58	89
64	5	59	60
65	6	59	81
66	6	59	85
67	3	60	61
68	3	60	79
69	4	61	62
70	3	61	63
71	4	63	64
72	3	63	65
73	11	65	66
74	3	65	68
75	12	66	67
76	5	68	69
77	3	68	79
78	6	69	70
79	6	69	74
80	8	69	78
81	8	70	71
82	8	70	72
83	8	70	73
84	8	74	75
85	8	74	76
86	8	74	77
87	4	79	80
88	8	81	82
89	8	81	83
90	8	81	84
91	8	85	86
92	8	85	87
93	8	85	88
94	4	89	90
95	3	89	91
96	5	91	92
97	6	92	93
98	6	92	97
99	8	92	101
100	8	93	94
101	8	93	95
102	8	93	96
103	8	97	98
104	8	97	99
105	8	97	100
106	9	102	103
107	13	102	104

Angles

1	1	1	2	39
2	1	1	2	3
3	3	61	63	64
4	4	7	8	9
5	6	75	74	76
6	4	40	45	48
7	4	70	69	78
8	3	54	56	57
9	6	34	33	35
10	4	40	41	43
11	4	74	69	78
12	6	31	29	32
13	4	8	33	35
14	4	8	29	30
15	3	90	89	91
16	6	46	45	47
17	4	59	81	83
18	3	53	54	55
19	4	17	22	23
20	1	51	50	102
21	4	70	69	74
22	1	14	16	27
23	4	69	74	77
24	3	13	12	14
25	4	92	97	98
26	1	56	58	59
27	6	94	93	96
28	1	59	60	61
29	1	103	102	104
30	4	92	93	95
31	1	54	56	58
32	1	8	7	37
33	6	47	45	48
34	1	8	9	10
35	3	68	79	80
36	1	63	65	68
37	4	41	40	49
38	4	59	81	84
39	4	17	22	24
40	6	98	97	100
41	4	16	17	26
42	3	3	5	6
43	6	42	41	43
44	4	93	92	101
45	3	9	10	11
46	6	43	41	44
47	1	8	9	27
48	1	61	60	79
49	4	92	93	96
50	4	17	18	19
51	1	59	58	89
52	4	16	17	22
53	6	86	85	87
54	4	93	92	97
55	6	71	70	72
56	4	69	70	71
57	4	22	17	26
58	1	5	7	8
59	3	64	63	65
60	4	45	40	49
61	6	42	41	44
62	4	16	17	18
63	1	2	39	40
64	2	2	1	52
65	4	59	85	86
66	1	5	7	37
67	3	11	10	12
68	4	17	18	20
69	6	23	22	25
70	1	52	53	54
71	4	18	17	26
72	1	65	68	69
73	4	9	8	33
74	6	82	81	83
75	1	61	63	65
76	1	53	91	92
77	6	75	74	77
78	4	29	8	33
79	1	12	14	15
80	6	34	33	36
81	4	40	41	44
82	1	50	102	103
83	4	68	69	78
84	4	8	33	36
85	4	18	17	22
86	4	9	8	29
87	4	8	29	31
88	1	17	16	27
89	6	76	74	77
90	6	95	93	96
91	6	46	45	48
92	2	14	15	50
93	4	58	59	60
94	1	53	54	56
95	3	60	79	80
96	1	69	68	79
97	4	58	59	85
98	4	92	97	99
99	4	68	69	74
100	1	14	16	17
101	6	82	81	84
102	1	15	14	16
103	6	19	18	20
104	6	35	33	36
105	1	50	102	104
106	4	58	59	81
107	4	97	92	101
108	4	68	69	70
109	6	87	85	88
110	1	53	91	89
111	4	91	92	93
112	4	17	22	25
113	4	40	45	46
114	4	92	97	100
115	1	3	5	7
116	6	30	29	31
117	1	9	10	12
118	1	54	53	91
119	3	7	37	38
120	1	59	60	79
121	6	19	18	21
122	4	69	74	75
123	6	86	85	88
124	1	60	79	68
125	3	58	89	90
126	6	71	70	73
127	4	69	70	72
128	3	4	3	5
129	4	40	45	47
130	6	24	22	25
131	1	66	65	68
132	4	91	92	101
133	1	56	58	89
134	1	63	65	66
135	4	59	85	87
136	4	59	81	82
137	1	52	53	91
138	4	17	18	21
139	4	39	40	45
140	4	60	59	85
141	6	94	93	95
142	1	2	39	37
143	1	89	91	92
144	4	91	92	97
145	4	7	8	33
146	4	69	70	73
147	4	92	93	94
148	2	1	52	53
149	1	12	14	16
150	1	9	27	16
151	4	39	40	41
152	4	8	29	32
153	1	10	9	27
154	4	60	59	81
155	4	59	85	88
156	6	83	81	84
157	4	7	8	29
158	6	98	97	99
159	3	60	61	62
160	3	2	3	4
161	3	62	61	63
162	3	9	27	28
163	5	15	50	51
164	3	10	12	13
165	3	55	54	56
166	4	81	59	85
167	6	99	97	100
168	2	65	66	67
169	4	39	40	49
170	6	30	29	32
171	4	40	41	42
172	3	16	27	28
173	6	20	18	21
174	4	8	33	34
175	1	37	39	40
176	1	2	3	5
177	3	57	56	58
178	1	60	61	63
179	6	72	70	73
180	1	15	50	102
181	4	41	40	45
182	3	6	5	7
183	3	38	37	39
184	1	3	2	39
185	1	10	12	14
186	1	7	37	39
187	6	23	22	24
188	1	65	68	79
189	4	69	74	76
190	1	58	89	91

Dihedrals

1	1	2	39	37	38
2	5	91	92	97	100
3	8	94	93	92	97
4	5	7	8	29	31
5	4	5	7	8	9
6	1	59	60	79	80
7	5	58	59	81	82
8	1	54	53	91	92
9	2	39	2	1	52
10	1	62	61	63	64
11	4	29	8	7	37
12	9	48	45	40	49
13	1	9	27	16	14
14	5	39	40	45	46
15	1	57	56	58	59
16	9	73	70	69	78
17	4	7	8	9	27
18	4	14	16	17	26
19	9	77	74	69	78
20	9	42	41	40	49
21	1	52	53	91	92
22	8	81	59	85	88
23	2	1	52	53	54
24	9	76	74	69	78
25	5	58	59	85	88
26	5	58	59	81	83
27	8	70	69	74	76
28	8	73	70	69	74
29	8	29	8	33	34
30	1	12	10	9	27
31	8	42	41	40	45
32	4	58	59	60	79
33	5	60	59	85	87
34	8	84	81	59	85
35	1	59	60	61	62
36	5	60	59	81	82
37	1	62	61	63	65
38	1	8	7	37	38
39	10	63	65	66	67
40	5	91	92	93	96
41	5	68	69	70	73
42	1	54	53	91	89
43	1	2	3	5	6
44	1	7	37	39	40
45	1	10	9	27	16
46	4	78	69	68	79
47	1	3	5	7	8
48	1	90	89	91	92
49	9	94	93	92	101
50	10	67	66	65	68
51	1	53	91	89	90
52	8	70	69	74	77
53	9	75	74	69	78
54	1	3	2	39	40
55	1	63	65	68	79
56	8	29	8	33	35
57	9	98	97	92	101
58	1	52	53	91	89
59	5	16	17	18	19
60	1	59	60	61	63
61	9	44	41	40	49
62	2	3	2	1	52
63	4	37	39	40	49
64	1	15	14	16	17
65	9	96	93	92	101
66	1	4	3	2	39
67	9	100	97	92	101
68	1	13	12	14	15
69	5	91	92	97	98
70	1	6	5	7	8
71	1	10	9	27	28
72	2	14	15	50	51
73	1	56	58	89	91
74	1	2	3	5	7
75	1	55	54	56	57
76	1	65	68	79	80
77	8	96	93	92	97
78	8	44	41	40	45
79	4	37	39	40	45
80	4	22	17	16	27
81	5	9	8	33	35
82	9	25	22	17	26
83	1	8	9	10	11
84	1	64	63	65	68
85	1	6	5	7	37
86	1	1	2	39	40
87	5	9	8	29	30
88	5	68	69	74	75
89	1	60	61	63	65
90	5	16	17	22	25
91	4	89	91	92	101
92	8	81	59	85	86
93	1	61	63	65	66
94	5	16	17	18	20
95	1	61	60	79	68
96	8	41	40	45	46
97	1	54	56	58	59
98	8	18	17	22	25
99	1	13	12	14	16
100	6	14	15	50	102
101	4	37	39	40	41
102	5	7	8	29	32
103	1	11	10	12	13
104	1	57	56	58	89
105	1	10	12	14	15
106	4	53	91	92	101
107	1	3	2	39	37
108	4	61	60	59	85
109	4	89	91	92	97
110	9	43	41	40	49
111	4	9	8	7	37
112	9	95	93	92	101
113	5	39	40	45	47
114	5	9	8	33	36
115	8	83	81	59	85
116	1	53	91	89	58
117	5	39	40	41	42
118	1	17	16	27	28
119	4	53	91	92	97
120	1	4	3	5	6
121	1	38	37	39	40
122	1	61	60	79	80
123	4	33	8	7	37
124	4	61	60	59	81
125	4	89	91	92	93
126	2	1	52	53	91
127	1	9	10	12	13
128	8	31	29	8	33
129	9	20	18	17	26
130	8	43	41	40	45
131	1	2	39	37	7
132	1	11	10	12	14
133	1	59	58	89	90
134	8	95	93	92	97
135	1	10	12	14	16
136	5	58	59	81	84
137	1	1	2	39	37
138	8	82	81	59	85
139	9	19	18	17	26
140	4	53	91	92	93
141	5	60	59	85	88
142	4	18	17	16	27
143	8	93	92	97	98
144	7	51	50	102	103
145	4	56	58	59	60
146	5	60	59	81	83
147	1	8	7	37	39
148	5	7	8	33	34
149	5	39	40	45	48
150	8	20	18	17	22
151	7	15	50	102	103
152	1	53	54	56	57
153	4	81	59	58	89
154	9	99	97	92	101
155	1	14	16	27	28
156	8	19	18	17	22
157	4	10	9	8	33
158	1	55	54	53	91
159	1	59	58	89	91
160	4	70	69	68	79
161	1	1	2	3	4
162	4	26	17	16	27
163	9	24	22	17	26
164	8	32	29	8	33
165	8	29	8	33	36
166	4	27	9	8	33
167	1	12	14	16	27
168	1	63	61	60	79
169	1	15	14	16	27
170	8	93	92	97	99
171	1	5	7	37	38
172	5	60	59	81	84
173	1	63	65	68	69
174	1	60	79	68	69
175	4	65	68	69	74
176	4	10	9	8	29
177	9	23	22	17	26
178	5	7	8	33	35
179	8	30	29	8	33
180	1	53	54	56	58
181	4	58	59	60	61
182	5	58	59	85	86
183	1	58	89	91	92
184	1	66	65	68	69
185	5	91	92	97	99
186	4	2	39	40	49
187	1	55	54	56	58
188	4	27	9	8	29
189	1	56	54	53	91
190	4	65	68	69	70
191	1	60	79	68	65
192	4	60	59	58	89
193	1	54	56	58	89
194	9	72	70	69	78
195	1	8	9	10	12
196	9	46	45	40	49
197	5	91	92	93	94
198	5	68	69	74	76
199	5	9	8	29	31
200	1	3	5	7	37
201	3	2	1	52	53
202	5	68	69	70	71
203	8	81	59	85	87
204	4	2	39	40	45
205	5	16	17	18	21
206	8	41	40	45	47
207	4	7	8	9	10
208	5	58	59	85	87
209	8	72	70	69	74
210	8	70	69	74	75
211	4	5	7	8	33
212	4	79	60	59	81
213	9	71	70	69	78
214	1	8	9	27	28
215	5	60	59	85	86
216	1	62	61	60	79
217	4	2	39	40	41
218	1	52	53	54	55
219	9	47	45	40	49
220	4	56	58	59	85
221	5	91	92	93	95
222	5	39	40	41	43
223	5	9	8	29	32
224	1	11	10	9	27
225	9	21	18	17	26
226	5	68	69	74	77
227	1	4	3	5	7
228	5	68	69	70	72
229	4	5	7	8	29
230	1	61	63	65	68
231	4	65	68	69	78
232	8	71	70	69	74
233	1	9	10	12	14
234	8	41	40	45	48
235	4	56	58	59	81
236	1	64	63	65	66
237	8	21	18	17	22
238	4	14	16	17	22
239	4	74	69	68	79
240	5	16	17	22	23
241	7	51	50	102	104
242	4	85	59	58	89
243	1	52	53	54	56
244	1	9	27	16	17
245	8	18	17	22	23
246	2	16	14	15	50
247	7	15	50	102	104
248	5	39	40	41	44
249	5	7	8	29	30
250	1	56	58	89	90
251	1	69	68	79	80
252	4	14	16	17	18
253	1	59	60	79	68
254	1	8	9	27	16
255	5	9	8	33	34
256	2	12	14	15	50
257	1	1	2	3	5
258	4	79	60	59	85
259	1	60	61	63	64
260	5	16	17	22	24
261	8	93	92	97	100
262	1	5	3	2	39
263	1	5	7	37	39
264	1	12	14	16	17
265	1	66	65	68	79
266	5	7	8	33	36
267	8	18	17	22	24

Impropers

4	1	91	89	92	53
5	1	10	12	9	11
27	1	60	59	61	79
39	1	9	8	10	27
43	2	50	102	15	51
52	1	65	68	63	66
57	1	9	10	27	8
65	1	2	3	39	1
86	1	79	68	80	60
91	1	56	57	58	54
92	1	27	16	28	9
95	1	53	52	54	91
97	1	60	79	59	61
103	1	27	28	9	16
104	1	63	64	65	61
122	1	10	9	11	12
128	1	14	15	16	12
147	1	102	103	104	50
154	1	39	40	2	37
155	1	60	61	79	59
162	1	53	91	52	54
175	1	89	91	58	90
178	1	61	63	60	62
186	2	50	51	102	15
203	1	39	37	40	2
209	1	14	12	15	16
212	1	37	38	39	7
229	1	102	104	50	103
231	1	7	37	5	8
237	1	27	9	16	28
243	1	53	54	91	52
245	1	102	50	103	104
250	1	54	56	53	55
260	1	56	54	57	58
263	1	63	61	64	65
268	1	61	62	63	60
270	1	9	27	8	10
274	1	16	17	27	14
279	1	68	65	69	79
284	1	58	59	89	56
295	1	12	13	14	10
302	1	16	27	14	17
304	1	37	7	38	39
319	1	16	14	17	27
330	1	65	66	68	63
342	1	37	39	7	38
346	1	79	60	68	80
350	1	79	80	60	68
352	1	5	7	3	6
353	1	3	2	4	5
361	1	2	1	3	39
364	1	65	63	66	68
385	1	68	79	65	69
386	1	54	53	55	56
394	2	50	15	51	102
401	1	89	58	90	91
407	1	14	16	12	15
413	1	2	39	1	3
431	1	7	8	37	5
451	1	91	92	53	89
458	1	54	55	56	53
475	1	58	89	56	59
483	1	3	5	2	4
486	1	5	3	6	7
515	1	10	11	12	9
520	1	56	58	54	57
523	1	61	60	62	63
536	1	89	90	91	58
540	1	91	53	89	92
541	1	7	5	8	37
547	1	58	56	59	89
548	1	39	2	37	40
555	1	12	14	10	13
556	1	12	10	13	14
558	1	5	6	7	3
572	1	63	65	61	64
582	1	3	4	5	2
587	1	68	69	79	65
