Title

104 atoms
107 bonds
190 angles
267 dihedrals
78 impropers

9 atom types
13 bond types
6 angle types
10 dihedral types
2 improper types
-4.741000175 95.25899982 xlo xhi
-8.357999802 91.6420002 ylo yhi
-6.985000134 93.01499987 zlo zhi
0.0 0.0 0.0 xy xz yz

Masses

1	15.99943
2	12.01078
3	1.007947
4	12.01078
5	1.007947
6	15.99943
7	15.99943
8	1.007947
9	35.4532


Pair Coeffs

1	0.16846514	3.0251065
2	0.086879315	3.4806469
3	0.015611343	2.5725815
4	0.10884061	3.3795318
5	0.015779483	2.6445434
6	0.2102061	3.0398122
7	0.20947353	2.99716
8	1.2326e-05	0.53453923
9	0.2656001	3.3075278

Bond Coeffs

1 harmonic	425.69104206635	1.362945806494
2 harmonic	300.03137914615	1.451203938761
3 harmonic	360.7852444772	1.387193227181
4 harmonic	397.2545789619	1.085358495916
5 harmonic	289.73813263395	1.498646816465
6 harmonic	264.62148576755	1.52190126495
7 harmonic	301.15400723785	1.345741232799
8 harmonic	370.04670688625	1.093899492634
9 harmonic	582.698766451	1.225198386222
10 harmonic	279.1350963404	1.454628925034
11 harmonic	385.7604595587	1.369745182308
12 harmonic	543.5267831885	0.9716763312559
13 harmonic	218.0227703685	1.746066037062


Angle Coeffs

1 harmonic	57.8982893754	126.8062420451
2 harmonic	65.09061609600001	110.3538806181
3 harmonic	34.066775159195	129.1835929926
4 harmonic	53.20531626545	116.5475862634
5 harmonic	201.41175231035	127.4691416191
6 harmonic	48.776492647595	115.6030999533


Dihedral Coeffs

1 fourier 1	3.661930099076	2	180
2 fourier 1	1.532232714475	2	180
3 fourier 1	0.457973137376	1	0
4 fourier 1	0.02664938770063	3	0
5 fourier 1	0.1155372516788	3	0
6 fourier 1	2.779853741805	2	180
7 fourier 1	0.9974165607242	2	180
8 fourier 1	0.1040663847541	3	0
9 fourier 1	0.1911926717192	3	0
10 fourier 1	0.8283030590042	2	180


Improper Coeffs

1 0.3666666666666667	-1	2
2 3.5	-1	2


Atoms

1	1	1	-0.033151001	-2.6619999	-1.7920001	3.6849999
2	1	2	0.18512399	-2.0079999	-0.87699997	2.858
3	1	2	-0.281746	-1.364	0.14	3.441
4	1	3	0.228322	-1.3380001	0.21600001	4.5209999
5	1	2	-0.15200099	-0.73100001	1.2	2.6370001
6	1	3	0.213587	-0.249	2.0020001	3.174
7	1	2	-0.241384	-0.78299999	1.1670001	1.29
8	1	4	0.0067139999	-0.185	2.2709999	0.39700001
9	1	2	-0.241384	0.56999999	1.62	-0.778
10	1	2	-0.152207	0.47600001	2.0599999	-2.0510001
11	1	3	0.213587	-0.154	2.8929999	-2.326
12	1	2	-0.24983101	1.234	1.4069999	-3.1340001
13	1	3	0.22834399	1.12	1.77	-4.1469998
14	1	2	0.370444	2.0510001	0.377	-2.872
15	1	1	-0.43019301	2.7550001	-0.235	-3.9100001
16	1	2	-0.26224101	2.207	-0.108	-1.474
17	1	4	-0.075231001	3.131	-1.275	-1.163
18	1	4	-0.131835	2.3440001	-2.4719999	-0.61500001
19	1	5	0.084325999	1.549	-2.763	-1.334
20	1	5	0.084325999	3.0209999	-3.3410001	-0.47600001
21	1	5	0.084325999	1.875	-2.2309999	0.36300001
22	1	4	-0.131835	4.2519999	-0.86199999	-0.2
23	1	5	0.084325999	4.8000002	0.015	-0.60699999
24	1	5	0.084325999	4.9759998	-1.696	-0.079999998
25	1	5	0.084325999	3.849	-0.60100001	0.801
26	1	5	0.102659	3.6259999	-1.618	-2.096
27	1	2	-0.202187	1.51	0.49900001	-0.49200001
28	1	3	0.20358001	1.62	0.163	0.53100002
29	1	4	-0.13054	-1.3660001	3.1630001	-0.056000002
30	1	5	0.087622002	-1.949	3.5090001	0.82499999
31	1	5	0.087622002	-2.0539999	2.5999999	-0.72299999
32	1	5	0.087622002	-1.0089999	4.0700002	-0.588
33	1	4	-0.13054	0.83600003	3.1689999	1.136
34	1	5	0.087622002	1.327	3.8659999	0.42199999
35	1	5	0.087622002	1.6289999	2.5550001	1.615
36	1	5	0.087622002	0.34200001	3.7909999	1.913
37	1	2	-0.202491	-1.513	0.039000001	0.64399999
38	1	3	0.20358001	-1.5930001	0.035999998	-0.43399999
39	1	2	-0.22282	-2.0339999	-0.977	1.363
40	1	4	-0.077436998	-2.6789999	-2.164	0.65499997
41	1	4	-0.131835	-1.818	-2.7049999	-0.49900001
42	1	5	0.084325999	-0.77600002	-2.8729999	-0.15099999
43	1	5	0.084325999	-2.2249999	-3.677	-0.84899998
44	1	5	0.084325999	-1.8049999	-2.0109999	-1.365
45	1	4	-0.131835	-4.0840001	-1.798	0.168
46	1	5	0.084325999	-4.5700002	-2.6830001	-0.29699999
47	1	5	0.084325999	-4.039	-0.97899997	-0.58099997
48	1	5	0.084325999	-4.7090001	-1.4680001	1.025
49	1	5	0.102659	-2.7720001	-3.0139999	1.358
50	1	2	0.62926102	2.6659999	0.083999999	-4.9050002
51	1	6	-0.488177	3.664	0.373	-5.5440001
52	1	1	-0.033151001	-3.303	-2.4960001	3.348
53	1	2	0.18512399	-2.9909999	-3.4100001	2.3399999
54	1	2	-0.281746	-3.836	-4.428	2.1389999
55	1	3	0.228322	-4.7410002	-4.5040002	2.73
56	1	2	-0.15200099	-3.5309999	-5.487	1.163
57	1	3	0.213587	-4.2470002	-6.29	1.069
58	1	2	-0.241384	-2.391	-5.4549999	0.44299999
59	1	4	0.0067139999	-1.993	-6.559	-0.55599999
60	1	2	-0.241384	-1.452	-5.908	-1.8430001
61	1	2	-0.11358	-0.34900001	-6.348	-2.4860001
62	1	3	0.213587	0.234	-7.1799998	-2.122
63	1	2	-0.39616799	0.114	-5.6950002	-3.723
64	1	3	0.233734	1.015	-6.0580001	-4.2030001
65	1	2	0.34863099	-0.56400001	-4.665	-4.2490001
66	1	7	-0.639184	-0.106	-4.052	-5.4159999
67	1	8	0.43856901	0.73500001	-4.3610001	-5.8899999
68	1	2	-0.35591301	-1.8049999	-4.1799998	-3.586
69	1	4	-0.063184001	-2.585	-3.013	-4.1719999
70	1	4	-0.131835	-2.5910001	-1.816	-3.2130001
71	1	5	0.084325999	-1.548	-1.525	-2.964
72	1	5	0.084325999	-3.0880001	-0.94599998	-3.6930001
73	1	5	0.084325999	-3.131	-2.056	-2.273
74	1	4	-0.131835	-4.013	-3.4260001	-4.552
75	1	5	0.084325999	-3.987	-4.303	-5.2329998
76	1	5	0.084325999	-4.5209999	-2.5910001	-5.0799999
77	1	5	0.084325999	-4.6100001	-3.687	-3.6530001
78	1	5	0.102659	-2.095	-2.6700001	-5.1079998
79	1	2	-0.164408	-2.22	-4.7859998	-2.4560001
80	1	3	0.20358001	-3.125	-4.4499998	-1.967
81	1	4	-0.13054	-0.95200002	-7.4499998	0.162
82	1	5	0.087622002	-1.348	-7.796	1.142
83	1	5	0.087622002	-0.012	-6.8870001	0.352
84	1	5	0.087622002	-0.71600002	-8.3579998	-0.433
85	1	4	-0.13054	-3.181	-7.4559999	-0.97899997
86	1	5	0.087622002	-2.8699999	-8.1540003	-1.7869999
87	1	5	0.087622002	-4.0240002	-6.842	-1.362
88	1	5	0.087622002	-3.5420001	-8.0780001	-0.132
89	1	2	-0.202491	-1.446	-4.3270001	0.67900002
90	1	3	0.20358001	-0.51099998	-4.3239999	0.13500001
91	1	2	-0.22282	-1.744	-3.3110001	1.516
92	1	4	-0.077436998	-0.79500002	-2.1240001	1.647
93	1	4	-0.131835	-0.331	-1.5829999	0.28400001
94	1	5	0.084325999	-1.207	-1.415	-0.37799999
95	1	5	0.084325999	0.18799999	-0.61000001	0.42199999
96	1	5	0.084325999	0.37599999	-2.276	-0.21699999
97	1	4	-0.131835	0.40099999	-2.4890001	2.529
98	1	5	0.084325999	1.0599999	-1.605	2.6670001
99	1	5	0.084325999	0.99400002	-3.309	2.069
100	1	5	0.084325999	0.048999999	-2.8199999	3.53
101	1	5	0.102659	-1.322	-1.274	2.122
102	1	2	0.46857899	1.687	0.15800001	-5.3660002
103	1	6	-0.56069601	0.69800001	-0.214	-4.7579999
104	1	9	-0.077595003	1.527	0.81199998	-6.9850001

Bonds

1	1	1	2
2	2	1	52
3	3	2	3
4	3	2	39
5	4	3	4
6	3	3	5
7	4	5	6
8	3	5	7
9	5	7	8
10	3	7	37
11	5	8	9
12	6	8	29
13	6	8	33
14	3	9	10
15	3	9	27
16	4	10	11
17	3	10	12
18	4	12	13
19	3	12	14
20	1	14	15
21	3	14	16
22	7	15	50
23	5	16	17
24	3	16	27
25	6	17	18
26	6	17	22
27	8	17	26
28	8	18	19
29	8	18	20
30	8	18	21
31	8	22	23
32	8	22	24
33	8	22	25
34	4	27	28
35	8	29	30
36	8	29	31
37	8	29	32
38	8	33	34
39	8	33	35
40	8	33	36
41	4	37	38
42	3	37	39
43	5	39	40
44	6	40	41
45	6	40	45
46	8	40	49
47	8	41	42
48	8	41	43
49	8	41	44
50	8	45	46
51	8	45	47
52	8	45	48
53	9	50	51
54	10	50	102
55	1	52	53
56	3	53	54
57	3	53	91
58	4	54	55
59	3	54	56
60	4	56	57
61	3	56	58
62	5	58	59
63	3	58	89
64	5	59	60
65	6	59	81
66	6	59	85
67	3	60	61
68	3	60	79
69	4	61	62
70	3	61	63
71	4	63	64
72	3	63	65
73	11	65	66
74	3	65	68
75	12	66	67
76	5	68	69
77	3	68	79
78	6	69	70
79	6	69	74
80	8	69	78
81	8	70	71
82	8	70	72
83	8	70	73
84	8	74	75
85	8	74	76
86	8	74	77
87	4	79	80
88	8	81	82
89	8	81	83
90	8	81	84
91	8	85	86
92	8	85	87
93	8	85	88
94	4	89	90
95	3	89	91
96	5	91	92
97	6	92	93
98	6	92	97
99	8	92	101
100	8	93	94
101	8	93	95
102	8	93	96
103	8	97	98
104	8	97	99
105	8	97	100
106	9	102	103
107	13	102	104

Angles

1	1	65	68	69
2	3	64	63	65
3	4	17	18	21
4	4	16	17	22
5	6	30	29	32
6	4	40	41	42
7	4	60	59	85
8	6	72	70	73
9	1	89	91	92
10	3	6	5	7
11	4	59	81	82
12	6	31	29	32
13	4	97	92	101
14	4	16	17	18
15	6	35	33	36
16	1	53	91	89
17	4	39	40	41
18	3	61	63	64
19	4	7	8	9
20	4	8	29	32
21	1	10	9	27
22	4	60	59	81
23	4	92	97	100
24	1	2	3	5
25	1	9	27	16
26	4	74	69	78
27	6	95	93	96
28	4	59	85	88
29	4	59	81	83
30	4	17	22	23
31	6	34	33	36
32	6	82	81	84
33	2	14	15	50
34	1	14	16	27
35	6	19	18	21
36	1	52	53	91
37	3	62	61	63
38	4	40	45	47
39	4	92	93	94
40	6	46	45	47
41	3	68	79	80
42	6	98	97	99
43	4	8	33	34
44	2	1	52	53
45	1	50	102	103
46	6	23	22	24
47	4	69	74	76
48	3	90	89	91
49	1	37	39	40
50	1	58	89	91
51	1	60	61	63
52	4	40	45	48
53	4	91	92	93
54	4	92	93	95
55	1	103	102	104
56	1	3	2	39
57	1	10	12	14
58	1	7	37	39
59	1	59	58	89
60	3	54	56	57
61	6	98	97	100
62	4	69	70	71
63	4	8	33	35
64	1	65	68	79
65	6	71	70	72
66	6	83	81	84
67	4	70	69	74
68	4	69	74	77
69	2	2	1	52
70	5	15	50	51
71	4	39	40	49
72	1	56	58	59
73	4	41	40	49
74	1	54	56	58
75	1	8	7	37
76	1	66	65	68
77	4	69	70	72
78	1	8	9	10
79	4	9	8	33
80	6	42	41	43
81	1	61	63	65
82	1	59	60	61
83	4	39	40	45
84	4	81	59	85
85	4	41	40	45
86	1	63	65	66
87	1	15	50	102
88	6	75	74	76
89	3	3	5	6
90	6	20	18	21
91	3	9	10	11
92	4	9	8	29
93	6	76	74	77
94	4	58	59	60
95	4	59	81	84
96	1	69	68	79
97	4	17	22	24
98	3	38	37	39
99	4	17	18	19
100	1	1	2	39
101	1	1	2	3
102	4	40	41	43
103	4	18	17	26
104	1	61	60	79
105	6	94	93	95
106	4	22	17	26
107	6	46	45	48
108	4	70	69	78
109	6	43	41	44
110	2	65	66	67
111	4	91	92	101
112	4	8	29	30
113	4	92	97	98
114	4	18	17	22
115	6	99	97	100
116	4	17	22	25
117	1	5	7	8
118	3	55	54	56
119	1	50	102	104
120	3	11	10	12
121	6	23	22	25
122	4	92	93	96
123	4	59	85	86
124	4	91	92	97
125	1	5	7	37
126	4	29	8	33
127	4	45	40	49
128	3	16	27	28
129	1	54	53	91
130	1	2	39	40
131	3	57	56	58
132	1	60	79	68
133	4	8	33	36
134	6	71	70	73
135	3	13	12	14
136	4	8	29	31
137	4	92	97	99
138	1	12	14	15
139	3	2	3	4
140	4	68	69	74
141	4	59	85	87
142	1	8	9	27
143	1	15	14	16
144	3	60	79	80
145	6	34	33	35
146	6	82	81	83
147	4	58	59	85
148	6	19	18	20
149	4	69	70	73
150	1	51	50	102
151	1	14	16	17
152	6	42	41	44
153	1	52	53	54
154	6	86	85	87
155	4	40	45	46
156	4	68	69	70
157	6	87	85	88
158	4	7	8	33
159	3	53	54	55
160	4	93	92	101
161	1	12	14	16
162	4	58	59	81
163	6	75	74	77
164	1	3	5	7
165	1	2	39	37
166	1	9	10	12
167	6	47	45	48
168	4	7	8	29
169	4	93	92	97
170	4	17	18	20
171	6	30	29	31
172	4	69	74	75
173	4	40	41	44
174	1	53	91	92
175	6	86	85	88
176	3	58	89	90
177	3	60	61	62
178	1	53	54	56
179	3	9	27	28
180	6	94	93	96
181	3	4	3	5
182	3	10	12	13
183	3	7	37	38
184	4	16	17	26
185	1	59	60	79
186	1	63	65	68
187	6	24	22	25
188	4	68	69	78
189	1	56	58	89
190	1	17	16	27

Dihedrals

1	5	7	8	33	34
2	9	25	22	17	26
3	1	1	2	39	40
4	5	60	59	81	82
5	1	5	7	37	38
6	8	41	40	45	46
7	1	8	7	37	38
8	8	83	81	59	85
9	1	60	61	63	65
10	2	1	52	53	91
11	5	16	17	22	24
12	8	42	41	40	45
13	1	63	65	68	79
14	5	91	92	97	100
15	5	68	69	70	73
16	1	10	9	27	16
17	4	89	91	92	93
18	1	9	10	12	13
19	5	9	8	29	30
20	1	10	12	14	15
21	2	14	15	50	51
22	5	58	59	81	83
23	4	53	91	92	93
24	1	12	14	16	27
25	1	61	63	65	66
26	1	54	53	91	92
27	4	61	60	59	85
28	8	70	69	74	77
29	1	52	53	54	55
30	8	30	29	8	33
31	1	64	63	65	66
32	8	29	8	33	35
33	5	60	59	85	88
34	5	39	40	45	46
35	4	56	58	59	60
36	1	57	56	58	59
37	5	60	59	81	83
38	1	8	7	37	39
39	9	73	70	69	78
40	8	43	41	40	45
41	4	61	60	59	81
42	9	100	97	92	101
43	4	79	60	59	85
44	7	15	50	102	104
45	1	59	60	79	80
46	5	9	8	33	36
47	4	5	7	8	33
48	8	93	92	97	98
49	6	14	15	50	102
50	9	71	70	69	78
51	5	9	8	29	31
52	1	10	12	14	16
53	5	58	59	81	84
54	4	22	17	16	27
55	1	65	68	79	80
56	4	70	69	68	79
57	1	8	9	10	11
58	1	2	39	37	38
59	8	73	70	69	74
60	2	3	2	1	52
61	4	26	17	16	27
62	1	2	3	5	6
63	4	7	8	9	10
64	8	29	8	33	36
65	7	51	50	102	103
66	5	39	40	45	47
67	1	63	61	60	79
68	8	72	70	69	74
69	9	99	97	92	101
70	8	71	70	69	74
71	9	46	45	40	49
72	1	54	53	91	89
73	1	17	16	27	28
74	9	77	74	69	78
75	1	38	37	39	40
76	4	74	69	68	79
77	4	14	16	17	22
78	4	60	59	58	89
79	9	76	74	69	78
80	9	20	18	17	26
81	1	8	9	10	12
82	1	9	27	16	17
83	1	53	91	89	58
84	5	39	40	41	42
85	1	56	54	53	91
86	5	68	69	74	76
87	5	91	92	93	95
88	1	4	3	5	6
89	7	51	50	102	104
90	5	16	17	18	19
91	4	33	8	7	37
92	1	59	58	89	91
93	5	68	69	70	71
94	1	66	65	68	79
95	4	58	59	60	79
96	8	82	81	59	85
97	5	58	59	85	86
98	4	14	16	17	18
99	1	59	60	79	68
100	1	11	10	12	14
101	9	43	41	40	49
102	8	20	18	17	22
103	1	53	91	89	90
104	8	18	17	22	23
105	5	7	8	33	35
106	1	13	12	14	15
107	9	19	18	17	26
108	4	81	59	58	89
109	4	89	91	92	101
110	5	7	8	29	30
111	1	5	7	37	39
112	8	41	40	45	47
113	1	69	68	79	80
114	4	53	91	92	101
115	4	56	58	59	85
116	1	52	53	91	92
117	5	91	92	93	96
118	10	67	66	65	68
119	1	11	10	9	27
120	5	16	17	22	25
121	8	32	29	8	33
122	1	4	3	5	7
123	4	5	7	8	9
124	5	16	17	18	20
125	9	24	22	17	26
126	1	63	65	68	69
127	8	19	18	17	22
128	9	72	70	69	78
129	8	81	59	85	86
130	1	1	2	39	37
131	1	9	10	12	14
132	4	89	91	92	97
133	9	95	93	92	101
134	4	10	9	8	29
135	9	94	93	92	101
136	4	53	91	92	97
137	4	56	58	59	81
138	1	9	27	16	14
139	1	12	14	16	17
140	1	6	5	7	8
141	1	52	53	54	56
142	4	2	39	40	41
143	5	7	8	33	36
144	1	13	12	14	16
145	4	14	16	17	26
146	1	15	14	16	27
147	5	60	59	81	84
148	8	96	93	92	97
149	8	95	93	92	97
150	1	58	89	91	92
151	9	23	22	17	26
152	8	94	93	92	97
153	1	6	5	7	37
154	4	2	39	40	49
155	8	93	92	97	99
156	2	12	14	15	50
157	8	81	59	85	87
158	5	9	8	29	32
159	4	7	8	9	27
160	1	59	60	61	62
161	1	54	56	58	89
162	1	61	63	65	68
163	1	52	53	91	89
164	3	2	1	52	53
165	5	91	92	97	98
166	1	2	3	5	7
167	5	39	40	41	43
168	1	53	54	56	57
169	1	64	63	65	68
170	4	2	39	40	45
171	5	39	40	45	48
172	1	7	37	39	40
173	4	9	8	7	37
174	8	70	69	74	75
175	1	55	54	56	57
176	8	93	92	97	100
177	5	60	59	85	86
178	4	10	9	8	33
179	4	29	8	7	37
180	1	59	60	61	63
181	4	65	68	69	78
182	1	60	61	63	64
183	5	68	69	74	77
184	2	1	52	53	54
185	1	2	39	37	7
186	9	21	18	17	26
187	1	53	54	56	58
188	4	78	69	68	79
189	5	68	69	70	72
190	9	44	41	40	49
191	5	9	8	33	34
192	8	31	29	8	33
193	9	96	93	92	101
194	5	58	59	85	87
195	1	66	65	68	69
196	1	57	56	58	89
197	5	58	59	81	82
198	1	55	54	53	91
199	4	27	9	8	33
200	4	65	68	69	74
201	9	98	97	92	101
202	8	70	69	74	76
203	8	18	17	22	24
204	1	55	54	56	58
205	8	21	18	17	22
206	1	62	61	63	64
207	8	29	8	33	34
208	1	14	16	27	28
209	1	12	10	9	27
210	8	44	41	40	45
211	5	7	8	29	31
212	1	3	2	39	40
213	5	60	59	85	87
214	8	41	40	45	48
215	1	8	9	27	16
216	1	61	60	79	68
217	4	27	9	8	29
218	4	37	39	40	41
219	1	56	58	89	90
220	4	65	68	69	70
221	5	16	17	18	21
222	7	15	50	102	103
223	5	9	8	33	35
224	5	58	59	85	88
225	1	3	5	7	8
226	1	60	79	68	69
227	1	90	89	91	92
228	1	1	2	3	4
229	4	58	59	60	61
230	4	37	39	40	49
231	8	18	17	22	25
232	1	62	61	63	65
233	1	5	3	2	39
234	1	8	9	27	28
235	5	7	8	29	32
236	1	61	60	79	80
237	1	3	5	7	37
238	1	15	14	16	17
239	1	4	3	2	39
240	1	60	79	68	65
241	8	84	81	59	85
242	1	10	9	27	28
243	4	37	39	40	45
244	1	56	58	89	91
245	2	39	2	1	52
246	8	81	59	85	88
247	4	18	17	16	27
248	1	3	2	39	37
249	1	1	2	3	5
250	2	16	14	15	50
251	5	91	92	93	94
252	9	48	45	40	49
253	5	68	69	74	75
254	5	16	17	22	23
255	5	91	92	97	99
256	5	39	40	41	44
257	4	79	60	59	81
258	1	59	58	89	90
259	9	75	74	69	78
260	4	5	7	8	29
261	9	47	45	40	49
262	1	62	61	60	79
263	1	54	56	58	59
264	10	63	65	66	67
265	4	85	59	58	89
266	1	11	10	12	13
267	9	42	41	40	49

Impropers

3	1	27	9	16	28
6	1	68	65	69	79
14	1	61	63	60	62
18	1	12	13	14	10
35	1	102	103	104	50
61	1	79	68	80	60
64	1	54	55	56	53
65	1	58	59	89	56
80	1	79	60	68	80
88	1	16	14	17	27
95	1	7	8	37	5
98	1	56	54	57	58
105	1	89	58	90	91
117	1	5	7	3	6
119	1	63	64	65	61
123	1	37	39	7	38
140	1	58	89	56	59
142	1	89	91	58	90
155	1	39	37	40	2
156	2	50	102	15	51
159	1	3	5	2	4
162	1	16	17	27	14
173	1	68	79	65	69
182	1	2	3	39	1
187	1	10	11	12	9
192	1	2	39	1	3
194	2	50	15	51	102
196	1	89	90	91	58
197	1	63	65	61	64
200	1	54	56	53	55
211	1	58	56	59	89
228	1	2	1	3	39
232	1	102	104	50	103
267	1	16	27	14	17
273	1	61	62	63	60
275	1	56	57	58	54
277	1	27	16	28	9
278	1	61	60	62	63
297	1	27	28	9	16
300	1	54	53	55	56
307	1	5	6	7	3
316	1	37	7	38	39
327	1	7	5	8	37
345	1	5	3	6	7
346	1	12	10	13	14
359	1	102	50	103	104
376	1	53	91	52	54
378	1	10	9	11	12
385	1	14	15	16	12
393	1	12	14	10	13
399	1	39	2	37	40
403	1	60	59	61	79
435	1	14	16	12	15
437	1	10	12	9	11
438	1	60	79	59	61
456	1	53	52	54	91
458	1	91	89	92	53
465	1	53	54	91	52
481	1	9	8	10	27
485	1	37	38	39	7
489	1	65	66	68	63
491	1	65	68	63	66
496	1	65	63	66	68
497	1	9	10	27	8
503	1	7	37	5	8
509	1	3	2	4	5
513	1	60	61	79	59
518	1	56	58	54	57
521	2	50	51	102	15
526	1	91	92	53	89
545	1	68	69	79	65
558	1	91	53	89	92
561	1	14	12	15	16
576	1	3	4	5	2
580	1	79	80	60	68
581	1	39	40	2	37
583	1	9	27	8	10
585	1	63	61	64	65
