Title

61 atoms
62 bonds
103 angles
161 dihedrals
48 impropers

8 atom types
12 bond types
6 angle types
22 dihedral types
2 improper types
-5.84100008 94.15899992 xlo xhi
-3.665999889 96.33400011 ylo yhi
-4.78399992 95.21600008 zlo zhi
0.0 0.0 0.0 xy xz yz

Masses

1	15.99943
2	12.01078
3	1.007947
4	12.01078
5	15.99943
6	1.007947
7	15.99943
8	1.007947


Pair Coeffs

1	0.16846514	3.0251065
2	0.10884061	3.3795318
3	0.016409246	2.5832257
4	0.086879315	3.4806469
5	0.2102061	3.0398122
6	0.015611343	2.5725815
7	0.20947353	2.99716
8	1.2326e-05	0.53453923

Bond Coeffs

1 harmonic	366.7408841747	1.425895053732
2 harmonic	300.03137914615	1.451203938761
3 harmonic	264.62148576755	1.52190126495
4 harmonic	370.04670688625	1.093899492634
5 harmonic	301.15400723785	1.345741232799
6 harmonic	582.698766451	1.225198386222
7 harmonic	279.1350963404	1.454628925034
8 harmonic	360.7852444772	1.387193227181
9 harmonic	397.2545789619	1.085358495916
10 harmonic	329.96998057905	1.427343958716
11 harmonic	543.5267831885	0.9716763312559
12 harmonic	385.7604595587	1.369745182308


Angle Coeffs

1 harmonic	53.20531626545	116.5475862634
2 harmonic	65.09061609600001	110.3538806181
3 harmonic	201.41175231035	127.4691416191
4 harmonic	57.8982893754	126.8062420451
5 harmonic	48.776492647595	115.6030999533
6 harmonic	34.066775159195	129.1835929926


Dihedral Coeffs

1 fourier 1	-0.0309670556842	3	0
2 fourier 1	0.4598191477945	2	0
3 fourier 1	0.1115525666802	3	0
4 fourier 1	0.3432490222662	1	0
5 fourier 1	0.0473758381877	3	0
6 fourier 1	0.457973137376	1	0
7 fourier 1	0.4552156463534	3	0
8 fourier 1	-0.03687743385131	2	180
9 fourier 1	0.1918272375143	3	0
10 fourier 1	0.9202179876409	1	180
11 fourier 1	1.163809172478	2	180
12 fourier 1	0.1679186987369	1	180
13 fourier 1	2.779853741805	2	180
14 fourier 1	0.9974165607242	2	180
15 fourier 1	0.1911926717192	3	0
16 fourier 1	3.661930099076	2	180
17 fourier 1	0.3445382149273	3	0
18 fourier 1	0.1364556373303	1	0
19 fourier 1	0.3026390167484	3	0
20 fourier 1	2.687457892086	2	180
21 fourier 1	2.772607909663	2	180
22 fourier 1	0.09692684957115	1	0


Improper Coeffs

1 3.5	-1	2
2 0.3666666666666667	-1	2


Atoms

1	1	1	-0.139686	-3.3380001	-0.667	0.119
2	1	2	0.030563001	-2.119	-0.0080000004	-0.086999997
3	1	2	0.080770001	-1.089	-0.46000001	0.949
4	1	1	-0.48679999	0.102	0.29300001	0.81599998
5	1	2	0.078233004	1.05	-0.41	0.041000001
6	1	2	0.13516399	2.2609999	0.486	-0.20200001
7	1	1	-0.50356197	3.2379999	-0.20200001	-0.93400002
8	1	3	0.087472998	1.95	1.41	-0.74000001
9	1	3	0.087472998	2.6949999	0.78600001	0.77499998
10	1	3	0.087963	0.62300003	-0.70200002	-0.94599998
11	1	3	0.087963	1.3890001	-1.322	0.583
12	1	3	0.089519002	-1.5039999	-0.26499999	1.961
13	1	3	0.089519002	-0.93199998	-1.563	0.88
14	1	3	0.093405999	-2.2850001	1.086	0.017000001
15	1	3	0.093405999	-1.745	-0.20100001	-1.118
16	1	4	0.79019898	2.915	-0.21600001	-1.92
17	1	5	-0.56467098	3.7460001	0.024	-2.8369999
18	1	4	-0.23955999	1.503	-0.51499999	-2.224
19	1	4	-0.095210999	1.0470001	-0.542	-3.49
20	1	6	0.213333	1.705	-0.345	-4.3270001
21	1	4	-0.26635799	-0.37200001	-0.84399998	-3.7620001
22	1	6	0.18686	-0.73000002	-0.86400002	-4.7839999
23	1	4	-0.056423999	-1.214	-1.0930001	-2.7520001
24	1	6	0.201443	-2.2520001	-1.313	-2.9679999
25	1	4	-0.304759	-0.727	-1.067	-1.35
26	1	4	0.57590097	-1.646	-1.34	-0.23100001
27	1	5	-0.59835899	-2.8610001	-1.6	-0.442
28	1	4	0.044142999	0.56699997	-0.79100001	-1.107
29	1	6	0.229946	0.93800002	-0.76899999	-0.089000002
30	1	1	-0.139686	-3.2249999	-1.589	-0.233
31	1	2	0.030563001	-2.3540001	-2.2479999	0.64499998
32	1	2	0.080894001	-0.91299999	-1.796	0.403
33	1	1	-0.48457	-0.023	-2.549	1.205
34	1	2	0.053043999	0.296	-1.845	2.3870001
35	1	2	0.075419001	1.138	-2.7420001	3.29
36	1	7	-0.67891198	1.506	-2.053	4.454
37	1	8	0.39301801	0.70599997	-2.04	5.0409999
38	1	3	0.090213999	0.57300001	-3.6659999	3.546
39	1	3	0.090213999	2.0610001	-3.0420001	2.7490001
40	1	3	0.090398997	-0.62599999	-1.553	2.941
41	1	3	0.090398997	0.88700002	-0.93300003	2.1440001
42	1	3	0.089519002	-0.66100001	-1.9910001	-0.66100001
43	1	3	0.089519002	-0.82599998	-0.69199997	0.55000001
44	1	3	0.093405999	-2.4289999	-3.3410001	0.463
45	1	3	0.093405999	-2.651	-2.0550001	1.7
46	1	4	0.57590097	-1.285	-1.319	0.78899997
47	1	5	-0.59835899	-0.373	-2.1199999	1.1289999
48	1	4	-0.304759	-1.864	-0.36300001	1.751
49	1	4	-0.056423999	-1.441	-0.30700001	3.027
50	1	6	0.201443	-0.66100001	-0.96600002	3.3870001
51	1	4	-0.26635799	-2.04	0.66100001	3.9660001
52	1	6	0.18686	-1.693	0.69800001	4.9910002
53	1	4	-0.091038004	-3.006	1.49	3.5550001
54	1	6	0.213333	-3.4330001	2.1930001	4.2589998
55	1	4	-0.233463	-3.487	1.4450001	2.151
56	1	4	0.827865	-4.5560002	2.368	1.711
57	1	5	-0.54089099	-4.9780002	2.3440001	0.523
58	1	7	-0.676844	-5.1079998	3.2739999	2.612
59	1	8	0.400922	-5.8410001	3.9119999	2.325
60	1	4	0.047134001	-2.9360001	0.55800003	1.298
61	1	6	0.229946	-3.2690001	0.505	0.26899999

Bonds

1	1	1	2
2	2	1	30
3	3	2	3
4	4	2	14
5	4	2	15
6	1	3	4
7	4	3	12
8	4	3	13
9	1	4	5
10	3	5	6
11	4	5	10
12	4	5	11
13	1	6	7
14	4	6	8
15	4	6	9
16	5	7	16
17	6	16	17
18	7	16	18
19	8	18	19
20	8	18	28
21	9	19	20
22	8	19	21
23	9	21	22
24	8	21	23
25	9	23	24
26	8	23	25
27	7	25	26
28	8	25	28
29	6	26	27
30	7	26	46
31	9	28	29
32	1	30	31
33	3	31	32
34	4	31	44
35	4	31	45
36	1	32	33
37	4	32	42
38	4	32	43
39	1	33	34
40	3	34	35
41	4	34	40
42	4	34	41
43	10	35	36
44	4	35	38
45	4	35	39
46	11	36	37
47	6	46	47
48	7	46	48
49	8	48	49
50	8	48	60
51	9	49	50
52	8	49	51
53	9	51	52
54	8	51	53
55	9	53	54
56	8	53	55
57	7	55	56
58	8	55	60
59	6	56	57
60	12	56	58
61	11	58	59
62	9	60	61

Angles

1	6	52	51	53
2	4	19	21	23
3	1	33	34	41
4	4	51	53	55
5	6	18	19	20
6	2	32	33	34
7	4	17	16	18
8	2	2	1	30
9	4	16	18	28
10	1	5	6	9
11	2	35	36	37
12	2	1	30	31
13	6	49	51	52
14	1	33	32	42
15	4	56	55	60
16	1	1	2	3
17	4	21	23	25
18	1	35	34	41
19	5	38	35	39
20	6	50	49	51
21	4	46	48	49
22	1	2	3	13
23	5	42	32	43
24	4	53	55	60
25	1	1	2	14
26	6	18	28	29
27	1	3	2	15
28	6	55	60	61
29	6	22	21	23
30	1	33	34	35
31	3	7	16	17
32	4	26	46	48
33	1	6	5	11
34	5	14	2	15
35	4	19	18	28
36	1	36	35	38
37	1	7	6	9
38	1	34	35	38
39	6	25	28	29
40	1	31	32	43
41	4	55	56	58
42	6	20	19	21
43	1	31	32	33
44	1	6	5	10
45	4	47	46	48
46	1	32	31	44
47	5	8	6	9
48	6	21	23	24
49	1	4	5	11
50	4	26	25	28
51	1	30	31	44
52	5	10	5	11
53	1	36	35	39
54	6	51	53	54
55	4	18	19	21
56	1	4	3	13
57	1	1	2	15
58	2	3	4	5
59	4	25	26	27
60	1	33	34	40
61	6	48	60	61
62	1	2	3	12
63	1	5	6	8
64	6	48	49	50
65	1	33	32	43
66	1	30	31	32
67	4	26	46	47
68	1	4	5	6
69	4	55	56	57
70	5	12	3	13
71	4	23	25	28
72	4	49	48	60
73	6	54	53	55
74	4	46	48	60
75	4	53	55	56
76	1	35	34	40
77	4	49	51	53
78	3	57	56	58
79	4	16	18	19
80	2	6	7	16
81	1	32	31	45
82	4	48	60	55
83	1	5	6	7
84	1	4	5	10
85	1	34	35	39
86	5	40	34	41
87	4	25	26	46
88	1	30	31	45
89	4	23	25	26
90	1	7	6	8
91	4	48	49	51
92	4	27	26	46
93	6	19	21	22
94	5	44	31	45
95	4	18	28	25
96	1	4	3	12
97	6	24	23	25
98	1	2	3	4
99	1	34	35	36
100	2	56	58	59
101	4	7	16	18
102	1	31	32	42
103	1	3	2	14

Dihedrals

1	5	34	33	32	43
2	3	4	3	2	14
2	4	4	3	2	14
3	5	1	30	31	44
4	5	3	2	1	30
5	15	43	32	31	45
6	1	1	2	3	4
6	2	1	2	3	4
7	1	33	34	35	36
7	2	33	34	35	36
8	16	24	23	25	28
9	16	50	49	51	53
10	16	21	23	25	26
11	16	51	53	55	60
12	14	27	26	46	47
13	3	1	2	3	13
13	4	1	2	3	13
14	15	42	32	31	45
15	16	16	18	28	25
16	5	1	30	31	32
17	15	8	6	5	11
18	14	27	26	25	28
19	14	25	26	46	47
20	7	32	33	34	35
20	8	32	33	34	35
21	15	9	6	5	10
22	16	22	21	23	24
23	15	13	3	2	15
24	3	4	5	6	8
24	4	4	5	6	8
25	16	54	53	55	56
26	16	49	51	53	55
27	19	37	36	35	38
28	16	21	19	18	28
29	16	24	23	25	26
30	6	2	1	30	31
31	3	36	35	34	41
31	4	36	35	34	41
32	16	16	18	19	20
33	11	6	7	16	17
33	12	6	7	16	17
34	20	55	56	58	59
35	5	9	6	7	16
36	16	16	18	28	29
37	14	17	16	18	19
38	16	18	28	25	26
39	15	38	35	34	41
40	14	28	25	26	46
41	15	39	35	34	40
42	14	26	46	48	60
43	3	4	3	2	15
43	4	4	3	2	15
44	14	53	55	56	58
45	14	7	16	18	28
46	14	58	56	55	60
47	5	1	30	31	45
48	7	31	32	33	34
48	8	31	32	33	34
49	17	34	35	36	37
49	18	34	35	36	37
50	14	57	56	55	60
51	5	3	4	5	11
52	16	19	21	23	24
53	19	37	36	35	39
54	14	47	46	48	60
55	16	46	48	60	61
56	1	4	5	6	7
56	2	4	5	6	7
57	16	49	48	60	61
58	15	12	3	2	14
59	5	32	33	34	40
60	5	5	4	3	13
61	3	30	31	32	42
61	4	30	31	32	42
62	15	12	3	2	15
63	15	42	32	31	44
64	16	50	49	51	52
65	16	52	51	53	55
66	3	33	34	35	38
66	4	33	34	35	38
67	16	56	55	60	61
68	15	8	6	5	10
69	14	23	25	26	27
70	3	33	32	31	44
70	4	33	32	31	44
71	16	51	53	55	56
72	7	2	3	4	5
72	8	2	3	4	5
73	7	3	4	5	6
73	8	3	4	5	6
74	5	8	6	7	16
75	14	53	55	56	57
76	3	7	6	5	11
76	4	7	6	5	11
77	5	34	33	32	42
78	16	20	19	18	28
79	16	21	23	25	28
80	16	23	25	28	29
81	16	18	28	25	23
82	3	30	31	32	43
82	4	30	31	32	43
83	16	19	18	28	25
84	16	18	19	21	23
85	16	22	21	23	25
86	16	48	60	55	56
87	16	46	48	60	55
88	16	49	48	60	55
89	3	7	6	5	10
89	4	7	6	5	10
90	16	49	51	53	54
91	16	48	49	51	52
92	3	1	2	3	12
92	4	1	2	3	12
93	15	43	32	31	44
94	16	16	18	19	21
95	16	46	48	49	50
96	16	18	19	21	22
97	3	4	5	6	9
97	4	4	5	6	9
98	3	36	35	34	40
98	4	36	35	34	40
99	16	48	60	55	53
100	5	3	4	5	10
101	16	54	53	55	60
102	9	5	6	7	16
102	10	5	6	7	16
103	16	20	19	21	23
104	14	23	25	26	46
105	5	15	2	1	30
106	14	27	26	46	48
107	16	50	49	48	60
108	15	39	35	34	41
109	16	19	18	28	29
110	5	5	4	3	12
111	15	38	35	34	40
112	16	20	19	21	22
113	15	9	6	5	11
114	14	26	46	48	49
115	3	33	32	31	45
115	4	33	32	31	45
116	16	19	21	23	25
117	5	14	2	1	30
118	14	25	26	46	48
119	16	51	49	48	60
120	13	6	7	16	18
121	14	17	16	18	28
122	15	13	3	2	14
123	16	26	25	28	29
124	1	30	31	32	33
124	2	30	31	32	33
125	5	32	33	34	41
126	3	33	34	35	39
126	4	33	34	35	39
127	14	47	46	48	49
128	16	52	51	53	54
129	21	57	56	58	59
129	22	57	56	58	59
130	16	53	55	60	61
131	16	46	48	49	51
132	14	7	16	18	19
133	16	48	49	51	53

Impropers

1	2	48	46	49	60
9	2	55	53	56	60
11	2	23	25	21	24
15	2	18	16	19	28
20	2	46	48	26	47
33	2	55	56	60	53
34	1	16	17	18	7
39	2	60	48	55	61
52	2	51	49	52	53
54	2	46	47	48	26
56	2	26	46	25	27
58	2	21	19	22	23
60	2	19	20	21	18
85	2	19	18	20	21
87	2	26	25	27	46
100	2	21	23	19	22
104	2	60	55	61	48
108	1	56	57	58	55
111	2	19	21	18	20
126	2	60	61	48	55
128	2	55	60	53	56
129	2	53	54	55	51
136	2	28	25	29	18
138	2	25	26	28	23
153	2	51	53	49	52
154	2	48	60	46	49
156	2	49	50	51	48
163	1	16	18	7	17
165	2	53	55	51	54
167	2	49	51	48	50
172	2	51	52	53	49
173	2	25	28	23	26
186	2	28	29	18	25
188	2	25	23	26	28
202	2	23	24	25	21
212	2	21	22	23	19
214	2	23	21	24	25
218	2	18	28	16	19
224	2	28	18	25	29
236	2	46	26	47	48
240	1	16	7	17	18
248	2	26	27	46	25
255	1	56	58	55	57
259	2	49	48	50	51
271	2	53	51	54	55
275	2	48	49	60	46
280	1	56	55	57	58
282	2	18	19	28	16
