Title

13000 atoms
13375 bonds
23750 angles
37875 dihedrals
9750 impropers

9 atom types
13 bond types
6 angle types
13 dihedral types
2 improper types
-9.69214979 117.0284906 xlo xhi
-11.12540291 115.7411579 ylo yhi
-12.07354328 118.8444191 zlo zhi
0.0 0.0 0.0 xy xz yz

Masses

1	15.99943
2	12.01078
3	1.007947
4	12.01078
5	1.007947
6	15.99943
7	15.99943
8	1.007947
9	35.4532


Pair Coeffs

1	0.16846514	3.0251065
2	0.086879315	3.4806469
3	0.015611343	2.5725815
4	0.10884061	3.3795318
5	0.015779483	2.6445434
6	0.2102061	3.0398122
7	0.20947353	2.99716
8	1.2326e-05	0.53453923
9	0.2656001	3.3075278

Bond Coeffs

1 harmonic	425.69104206635	1.362945806494
2 harmonic	300.03137914615	1.451203938761
3 harmonic	360.7852444772	1.387193227181
4 harmonic	397.2545789619	1.085358495916
5 harmonic	289.73813263395	1.498646816465
6 harmonic	264.62148576755	1.52190126495
7 harmonic	301.15400723785	1.345741232799
8 harmonic	370.04670688625	1.093899492634
9 harmonic	582.698766451	1.225198386222
10 harmonic	279.1350963404	1.454628925034
11 harmonic	385.7604595587	1.369745182308
12 harmonic	543.5267831885	0.9716763312559
13 harmonic	218.0227703685	1.746066037062


Angle Coeffs

1 harmonic	57.8982893754	126.8062420451
2 harmonic	65.09061609600001	110.3538806181
3 harmonic	34.066775159195	129.1835929926
4 harmonic	53.20531626545	116.5475862634
5 harmonic	201.41175231035	127.4691416191
6 harmonic	48.776492647595	115.6030999533


Dihedral Coeffs

1 fourier 1	3.661930099076	2	180
2 fourier 1	1.532232714475	2	180
3 fourier 1	0.457973137376	1	0
4 fourier 1	0.02664938770063	3	0
5 fourier 1	0.1155372516788	3	0
6 fourier 1	0.09223874044423	3	0
7 fourier 1	0.3159935921949	2	180
8 fourier 1	0.3247796806857	1	180
9 fourier 1	0.1040663847541	3	0
10 fourier 1	2.779853741805	2	180
11 fourier 1	0.9974165607242	2	180
12 fourier 1	0.1911926717192	3	0
13 fourier 1	0.8283030590042	2	180


Improper Coeffs

1 0.3666666666666667	-1	2
2 3.5	-1	2


Atoms

1	4	1	-0.034768704	-2.4369966	-0.57956752	-0.71752452
2	4	2	0.26696	-2.3564778	0.75016325	-0.31148044
3	4	2	-0.32867777	-2.6519695	1.7268749	-1.1738053
4	4	3	0.21917495	-2.9605135	1.4872827	-2.1842137
5	4	2	-0.15905514	-2.5699989	3.1418865	-0.75618225
6	4	3	0.20448877	-2.8733209	3.8838403	-1.4787951
7	4	2	-0.25971049	-2.1326066	3.4814232	0.47994551
8	4	4	0.021713407	-2.1079294	4.9451052	0.98233671
9	4	2	-0.25971049	-0.92917014	5.1163792	1.9795176
10	4	2	-0.16219497	-1.0394215	5.7663543	3.1634492
11	4	3	0.20448877	-1.9699472	6.174527	3.5158692
12	4	2	-0.28074941	0.12247142	5.9234998	4.0620354
13	4	3	0.21957649	0.002955922	6.4522258	4.9991111
14	4	2	0.43014523	1.3123131	5.4174449	3.7252471
15	4	1	-0.44491294	2.3996293	5.5749524	4.5796496
16	4	2	-0.28074935	1.4607057	4.6929544	2.4488509
17	4	3	0.21957654	2.4186341	4.2696077	2.1762547
18	4	2	-0.16219506	0.41207901	4.5478205	1.6316373
19	4	3	0.20448877	0.54856365	3.9939135	0.71233701
20	4	4	-0.12407534	-1.9242246	5.9906038	-0.17862677
21	4	4	-0.13798432	-0.66856255	5.8181204	-1.0596639
22	4	4	-0.13629953	-0.76677316	6.6762973	-2.3273524
23	4	4	-0.12131391	0.49077575	6.5457166	-3.1813784
24	4	5	0.064168663	1.3826329	6.8844697	-2.611373
25	4	5	0.064168663	0.63537068	5.4887045	-3.4938472
26	4	5	0.064168663	0.38981077	7.1738103	-4.0904248
27	4	5	0.087407329	-0.90188323	7.7445387	-2.0469607
28	4	5	0.087407329	-1.6444903	6.355965	-2.930217
29	4	5	0.096810364	-0.53139022	4.758454	-1.3576117
30	4	5	0.096810364	0.22619265	6.1432863	-0.48866365
31	4	5	0.10108414	-1.8603438	7.0111583	0.25695069
32	4	5	0.10108414	-2.830142	5.9921077	-0.82212688
33	4	4	-0.12407534	-3.5172216	5.1512041	1.6582841
34	4	4	-0.13798432	-4.0225888	6.6085699	1.7850077
35	4	4	-0.13629953	-5.2051187	6.6972202	2.75752
36	4	4	-0.12131391	-5.7383358	8.1238428	2.8500642
37	4	5	0.064168663	-4.9438403	8.8099988	3.2143976
38	4	5	0.064168663	-6.5900008	8.1564716	3.5622074
39	4	5	0.064168663	-6.0928776	8.4691639	1.855365
40	4	5	0.087407329	-4.8808001	6.3696469	3.7700397
41	4	5	0.087407329	-6.0227869	6.0277301	2.4148954
42	4	5	0.096810364	-4.3579878	6.9638513	0.78614408
43	4	5	0.096810364	-3.2203239	7.292085	2.1278316
44	4	5	0.10108414	-4.2941315	4.6168869	1.0648727
45	4	5	0.10108414	-3.5195029	4.6546927	2.6538193
46	4	2	-0.15905513	-1.8654778	2.3692733	1.4457741
47	4	3	0.20448876	-1.6036985	2.5892121	2.4727598
48	4	2	-0.32867771	-1.9573377	1.0900808	1.0674116
49	4	3	0.21917501	-1.7532427	0.30101661	1.7814459
50	5	2	0.62565631	3.3421976	5.1843067	4.3360312
51	5	6	-0.51391399	3.857708	5.4595185	3.2659211
52	1	1	-0.034768704	-2.21997	-1.336515	-0.079983915
53	1	2	0.26696	-1.5962024	-2.4986005	-0.52544554
54	1	2	-0.32867777	-1.3253006	-3.4817998	0.33799902
55	1	3	0.21917495	-1.5969655	-3.3790851	1.3812583
56	1	2	-0.15905514	-0.66268725	-4.7187331	-0.12208507
57	1	3	0.20448877	-0.52008982	-5.4991555	0.60967988
58	1	2	-0.25971049	-0.25722792	-4.857088	-1.4075794
59	1	4	0.021713407	0.36675491	-6.1666877	-1.9474525
60	1	2	-0.25971049	1.3815093	-5.8174243	-3.0705035
61	1	2	-0.11802262	1.4463824	-6.4780597	-4.2517576
62	1	3	0.20448877	0.76535305	-7.2683176	-4.5118355
63	1	2	-0.41879243	2.4499363	-6.1189916	-5.2746167
64	1	3	0.22407264	2.4795267	-6.6694748	-6.2066809
65	1	2	0.41932967	3.3145904	-5.1246836	-5.0564378
66	1	7	-0.6534543	4.2567321	-4.7987747	-6.0286015
67	1	8	0.42986846	4.9207671	-4.0470887	-5.8829457
68	1	2	-0.41879237	3.258704	-4.3772977	-3.7860737
69	1	3	0.22407264	3.9490644	-3.561717	-3.6083954
70	1	2	-0.11802269	2.3536022	-4.6982242	-2.8557695
71	1	3	0.20448877	2.3254824	-4.1178937	-1.943529
72	1	4	-0.12407534	1.1258373	-6.9883753	-0.84103106
73	1	4	-0.13798432	2.2572	-6.2482358	-0.09650917
74	1	4	-0.13629953	2.6933992	-7.0259667	1.1506079
75	1	4	-0.12131391	3.8432155	-6.3219062	1.8662894
76	1	5	0.064168663	4.7236381	-6.2401055	1.1947898
77	1	5	0.064168663	3.5312164	-5.3055822	2.1891175
78	1	5	0.064168663	4.1348727	-6.90605	2.7648055
79	1	5	0.087407329	3.0230027	-8.0479434	0.86012375
80	1	5	0.087407329	1.8375353	-7.1177474	1.8534965
81	1	5	0.096810364	1.9366139	-5.2323681	0.21192947
82	1	5	0.096810364	3.1351081	-6.1516335	-0.76961859
83	1	5	0.10108414	1.5932234	-7.882997	-1.3063141
84	1	5	0.10108414	0.39317946	-7.3800077	-0.10215242
85	1	4	-0.12407534	-0.86352314	-7.0014272	-2.4705232
86	1	4	-0.13798432	-0.67155957	-8.5331502	-2.580212
87	1	4	-0.13629953	-1.7859785	-9.1681168	-3.4203244
88	1	4	-0.12131391	-1.6286171	-10.684063	-3.4911702
89	1	5	0.064168663	-0.6559136	-10.949892	-3.957364
90	1	5	0.064168663	-2.446413	-11.114313	-4.1062229
91	1	5	0.064168663	-1.6802821	-11.125403	-2.4727795
92	1	5	0.087407329	-1.7556134	-8.7566072	-4.4523699
93	1	5	0.087407329	-2.7745915	-8.9286084	-2.9737542
94	1	5	0.096810364	-0.70108746	-8.9748716	-1.5601476
95	1	5	0.096810364	0.30991859	-8.7924311	-3.0247466
96	1	5	0.10108414	-1.7280715	-6.8575419	-1.782505
97	1	5	0.10108414	-1.1968	-6.5838062	-3.4474036
98	1	2	-0.15905513	-0.62422803	-3.7704327	-2.3673461
99	1	3	0.20448876	-0.40535039	-3.8749089	-3.4226221
100	1	2	-0.32867771	-1.2388522	-2.6588092	-1.9491604
101	1	3	0.21917501	-1.4895406	-1.8811832	-2.659559
102	2	2	0.46533468	3.8588593	4.537023	5.0355614
103	2	6	-0.59584522	3.3854783	4.3328968	6.1406134
104	2	9	-0.094379536	5.3742767	3.7833977	4.5788428
105	4	1	-0.034768704	2.5026055	-0.11731392	23.480853
106	4	2	0.26696	2.3082996	-0.81144873	24.672474
107	4	2	-0.32867777	2.5720413	-2.1199157	24.729391
108	4	3	0.21917495	2.9429154	-2.6399476	23.854435
109	4	2	-0.15905514	2.3696344	-2.8685047	25.98718
110	4	3	0.20448877	2.6516431	-3.9102052	25.987581
111	4	2	-0.25971049	1.8528718	-2.2649715	27.084136
112	4	4	0.021713407	1.7001753	-2.9926105	28.441559
113	4	2	-0.25971049	0.4677589	-2.412991	29.1888
114	4	2	-0.16219497	0.476745	-2.0838246	30.50329
115	4	3	0.20448877	1.3584476	-2.1620985	31.114156
116	4	2	-0.28074941	-0.73333912	-1.5614321	31.170336
117	4	3	0.21957649	-0.69511681	-1.3120296	32.223086
118	4	2	0.43014523	-1.8671015	-1.3953572	30.483136
119	4	1	-0.44491294	-3.0008837	-0.90494084	31.124306
120	4	2	-0.28074935	-1.9045071	-1.7322256	29.047443
121	4	3	0.21957654	-2.8160764	-1.5878601	28.482326
122	4	2	-0.16219506	-0.81186454	-2.2055169	28.438635
123	4	3	0.20448877	-0.86599951	-2.4240224	27.380392
124	4	4	-0.12407534	1.4951894	-4.5446752	28.287524
125	4	4	-0.13798432	0.29679917	-4.9921236	27.423629
126	4	4	-0.13629953	0.39104188	-6.4859527	27.087861
127	4	4	-0.12131391	-0.81347388	-6.9455997	26.271952
128	4	5	0.064168663	-1.7525071	-6.7857761	26.84444
129	4	5	0.064168663	-0.86733221	-6.3823415	25.315052
130	4	5	0.064168663	-0.71637752	-8.0267551	26.042308
131	4	5	0.087407329	0.43611147	-7.0790844	28.028168
132	4	5	0.087407329	1.3161674	-6.6813433	26.502702
133	4	5	0.096810364	0.2498625	-4.4171858	26.476145
134	4	5	0.096810364	-0.64419126	-4.8216218	27.98739
135	4	5	0.10108414	1.3383131	-4.9928953	29.292426
136	4	5	0.10108414	2.4271595	-5.0037674	27.893256
137	4	4	-0.12407534	3.0586099	-2.7128234	29.191132
138	4	4	-0.13798432	3.4516794	-3.7032381	30.313605
139	4	4	-0.13629953	4.579037	-3.1305581	31.181429
140	4	4	-0.12131391	5.0036274	-4.1223784	32.260388
141	4	5	0.064168663	4.1460664	-4.3589227	32.926277
142	4	5	0.064168663	5.817262	-3.6790995	32.8728
143	4	5	0.064168663	5.3776072	-5.060513	31.797338
144	4	5	0.087407329	4.2330806	-2.1939057	31.67202
145	4	5	0.087407329	5.4574962	-2.8919036	30.544606
146	4	5	0.096810364	3.8060612	-4.6510866	29.85269
147	4	5	0.096810364	2.5875513	-3.9523448	30.961354
148	4	5	0.10108414	3.8982293	-2.7430968	28.45946
149	4	5	0.10108414	3.0509767	-1.6711736	29.581678
150	4	2	-0.15905513	1.6223794	-0.78750207	27.013304
151	4	3	0.20448876	1.2987529	-0.2427977	27.890894
152	4	2	-0.32867771	1.8230888	-0.11170834	25.877105
153	4	3	0.21917501	1.6437227	0.9564787	25.84667
154	5	2	0.62565631	-3.9008234	-0.7650722	30.603793
155	5	6	-0.51391399	-4.3852489	-1.6846955	29.966413
156	1	1	-0.034768704	2.3115492	0.87552243	23.415268
157	1	2	0.26696	1.7938916	1.43525	22.250493
158	1	2	-0.32867777	1.5550651	2.7486989	22.192021
159	1	3	0.21917495	1.7706186	3.3788145	23.045973
160	1	2	-0.15905514	1.0047474	3.354038	20.96261
161	1	3	0.20448877	0.88522329	4.4266722	20.956053
162	1	2	-0.25971049	0.66953162	2.5877537	19.896554
163	1	4	0.021713407	0.16657451	3.191034	18.562779
164	1	2	-0.25971049	-0.81817644	2.1918532	17.895802
165	1	2	-0.11802262	-0.78130606	1.8713374	16.579778
166	1	3	0.20448877	-0.034094413	2.257513	15.910083
167	1	2	-0.41879243	-1.7601869	0.93303385	15.993545
168	1	3	0.22407264	-1.7074777	0.70103564	14.937112
169	1	2	0.41932967	-2.7030926	0.37298365	16.755876
170	1	7	-0.6534543	-3.6207233	-0.50782832	16.189242
171	1	8	0.42986846	-4.3429954	-0.94414246	16.750618
172	1	2	-0.41879237	-2.7592255	0.69097505	18.195065
173	1	3	0.22407264	-3.5137817	0.23031566	18.820986
174	1	2	-0.11802269	-1.8769422	1.5404053	18.731454
175	1	3	0.20448877	-1.932353	1.7370923	19.793528
176	1	4	-0.12407534	-0.58137883	4.5624082	18.751044
177	1	4	-0.13798432	-1.7958607	4.5527191	19.703431
178	1	4	-0.13629953	-2.2316999	5.9809233	20.050868
179	1	4	-0.12131391	-3.4606574	5.9783619	20.956206
180	1	5	0.064168663	-4.313023	5.479703	20.448703
181	1	5	0.064168663	-3.2375551	5.4483405	21.906879
182	1	5	0.064168663	-3.7504276	7.0242768	21.192245
183	1	5	0.087407329	-2.4734171	6.5375011	19.118533
184	1	5	0.087407329	-1.4045237	6.5088018	20.572503
185	1	5	0.096810364	-1.5635112	4.0130402	20.643993
186	1	5	0.096810364	-2.6467103	4.0420828	19.204997
187	1	5	0.10108414	-0.96152397	4.9096456	17.766055
188	1	5	0.10108414	0.14292585	5.3367761	19.085472
189	1	4	-0.12407534	1.4762708	3.4187346	17.716124
190	1	4	-0.13798432	1.4000268	4.4684365	16.581501
191	1	4	-0.13629953	2.5944483	4.3364091	15.629226
192	1	4	-0.12131391	2.54977	5.4003048	14.536521
193	1	5	0.064168663	1.6210276	5.2978217	13.935615
194	1	5	0.064168663	3.4236436	5.2782875	13.862985
195	1	5	0.064168663	2.5863329	6.4161209	14.985243
196	1	5	0.087407329	2.5818753	3.3326491	15.15206
197	1	5	0.087407329	3.5418308	4.4444285	16.199264
198	1	5	0.096810364	1.4144837	5.4861463	17.029361
199	1	5	0.096810364	0.46108002	4.3761139	16.00013
200	1	5	0.10108414	2.295856	3.7639179	18.387425
201	1	5	0.10108414	1.823055	2.4403175	17.313363
202	1	2	-0.15905513	1.001086	1.130925	19.962757
203	1	3	0.20448876	0.83880446	0.49277724	19.103186
204	1	2	-0.32867771	1.5145058	0.58971226	21.072639
205	1	3	0.21917501	1.7409511	-0.46862815	21.101813
206	2	2	0.46533468	-4.4011391	0.19621892	30.633147
207	2	6	-0.59584522	-3.9653943	1.0885655	31.340778
208	2	9	-0.094379536	-5.8360261	0.4686045	29.663643
209	4	1	-0.034768704	0.74136161	-0.76871593	50.770835
210	4	2	0.26696	1.855357	-0.55939163	49.961677
211	4	2	-0.32867777	2.7600837	0.36255881	50.302796
212	4	3	0.21917495	2.6332538	0.94168138	51.209472
213	4	2	-0.15905514	3.9462265	0.59520793	49.452899
214	4	3	0.20448877	4.669413	1.313333	49.807817
215	4	2	-0.25971049	4.1087394	-0.068158459	48.283222
216	4	4	0.021713407	5.3737387	0.088110706	47.405311
217	4	2	-0.25971049	4.980144	-0.10320192	45.914788
218	4	2	-0.16219497	5.6903608	-0.8617943	45.045048
219	4	3	0.20448877	6.559037	-1.4226649	45.340867
220	4	2	-0.28074941	5.2851652	-0.98700184	43.630026
221	4	3	0.21957649	5.8764434	-1.5970033	42.959031
222	4	2	0.43014523	4.1977589	-0.35534006	43.178593
223	4	1	-0.44491294	3.8285623	-0.47943521	41.842418
224	4	2	-0.28074935	3.3963812	0.46726638	44.104448
225	4	3	0.21957654	2.507366	0.97100849	43.748001
226	4	2	-0.16219506	3.7587425	0.58402992	45.38647
227	4	3	0.20448877	3.1387879	1.1781705	46.044655
228	4	4	-0.12407534	6.0560801	1.497544	47.555508
229	4	4	-0.13798432	5.1673261	2.7218808	47.249273
230	4	4	-0.13629953	5.8319421	4.0163762	47.734777
231	4	4	-0.12131391	4.979883	5.2355881	47.395132
232	4	5	0.064168663	4.8422831	5.3174062	46.295386
233	4	5	0.064168663	3.9845966	5.1574728	47.884133
234	4	5	0.064168663	5.4833849	6.1544824	47.760071
235	4	5	0.087407329	6.8288546	4.1288583	47.253604
236	4	5	0.087407329	5.9746934	3.9744025	48.836733
237	4	5	0.096810364	4.1750117	2.62767	47.736016
238	4	5	0.096810364	5.0168201	2.79915	46.152123
239	4	5	0.10108414	6.9208117	1.5595934	46.860002
240	4	5	0.10108414	6.4815841	1.595754	48.577311
241	4	4	-0.12407534	6.3543732	-1.0299805	47.928488
242	4	4	-0.13798432	7.8623372	-0.81961964	47.650706
243	4	4	-0.13629953	8.6496236	-2.1150056	47.883454
244	4	4	-0.12131391	10.143448	-1.9015966	47.657439
245	4	5	0.064168663	10.332392	-1.5694449	46.614008
246	4	5	0.064168663	10.685163	-2.8556651	47.830192
247	4	5	0.064168663	10.535558	-1.1372174	48.361958
248	4	5	0.087407329	8.2900722	-2.9010398	47.183057
249	4	5	0.087407329	8.4889266	-2.4690779	48.924127
250	4	5	0.096810364	8.2523249	-0.039302348	48.340243
251	4	5	0.096810364	8.0430483	-0.46758172	46.615447
252	4	5	0.10108414	6.2640542	-1.1130696	49.035809
253	4	5	0.10108414	6.0241631	-2.0168393	47.535182
254	4	2	-0.15905513	3.1139335	-1.1371349	47.953509
255	4	3	0.20448876	3.2504546	-1.7585841	47.077859
256	4	2	-0.32867771	2.0509902	-1.3550097	48.734926
257	4	3	0.21917501	1.3399735	-2.1298232	48.473695
258	5	2	0.62565631	2.9778057	0.0061712672	41.4672
259	5	6	-0.51391399	2.8426206	1.2075687	41.625306
260	1	1	-0.034768704	0.043862572	-1.4640588	50.533093
261	1	2	0.26696	-1.3058742	-1.2529189	50.800667
262	1	2	-0.32867777	-2.2029274	-2.1895813	50.478853
263	1	3	0.21917495	-1.8808153	-3.1149343	50.01765
264	1	2	-0.15905514	-3.6376603	-1.97676	50.756317
265	1	3	0.20448877	-4.3072121	-2.7910436	50.524983
266	1	2	-0.25971049	-4.0820213	-0.80823528	51.278934
267	1	4	0.021713407	-5.564517	-0.57642409	51.658854
268	1	2	-0.25971049	-5.9067615	0.9263274	51.465046
269	1	2	-0.11802262	-6.6016579	1.6577709	52.369545
270	1	3	0.20448877	-6.9294369	1.2553771	53.311133
271	1	2	-0.41879243	-6.9209172	3.0785231	52.120893
272	1	3	0.22407264	-7.4823939	3.6347241	52.861187
273	1	2	0.41932967	-6.5221826	3.6760254	50.994892
274	1	7	-0.6534543	-6.8323786	5.0152021	50.772779
275	1	8	0.42986846	-6.5381282	5.4871978	49.925532
276	1	2	-0.41879237	-5.7511056	2.9096606	49.998067
277	1	3	0.22407264	-5.4141443	3.3920573	49.088623
278	1	2	-0.11802269	-5.4600258	1.6231226	50.216612
279	1	3	0.20448877	-4.8759005	1.0947115	49.47544
280	1	4	-0.12407534	-6.563098	-1.4218066	50.784949
281	1	4	-0.13798432	-6.4740493	-1.2189302	49.257529
282	1	4	-0.13629953	-7.2519491	-2.3103171	48.513095
283	1	4	-0.12131391	-7.2056362	-2.0892494	47.003472
284	1	5	0.064168663	-7.6625682	-1.1116446	46.742226
285	1	5	0.064168663	-6.1549372	-2.1121857	46.642942
286	1	5	0.064168663	-7.7741704	-2.8949536	46.492366
287	1	5	0.087407329	-8.3139204	-2.3073341	48.844251
288	1	5	0.087407329	-6.813711	-3.3055106	48.742259
289	1	5	0.096810364	-5.4204399	-1.2344522	48.91175
290	1	5	0.096810364	-6.9173085	-0.2356498	48.99331
291	1	5	0.10108414	-7.6060996	-1.1669062	51.072107
292	1	5	0.10108414	-6.4398858	-2.5012405	51.021056
293	1	4	-0.12407534	-5.6614515	-1.0384326	53.162559
294	1	4	-0.13798432	-7.0643505	-1.4354	53.681547
295	1	4	-0.13629953	-7.0820866	-1.5142332	55.212681
296	1	4	-0.12131391	-8.4499239	-1.9525092	55.727277
297	1	5	0.064168663	-9.2309277	-1.2273807	55.413628
298	1	5	0.064168663	-8.4327051	-1.998143	56.836248
299	1	5	0.064168663	-8.705416	-2.9599137	55.334302
300	1	5	0.087407329	-6.8416418	-0.51689547	55.64033
301	1	5	0.087407329	-6.3165537	-2.2408235	55.559338
302	1	5	0.096810364	-7.3317616	-2.4340457	53.272012
303	1	5	0.096810364	-7.8425907	-0.72115618	53.346383
304	1	5	0.10108414	-5.0212102	-1.9373956	53.315767
305	1	5	0.10108414	-5.2181031	-0.25143461	53.813599
306	1	2	-0.15905513	-3.0551964	0.20009274	51.685832
307	1	3	0.20448876	-3.3518417	1.1100065	52.192279
308	1	2	-0.32867771	-1.755246	-0.0038112579	51.447292
309	1	3	0.21917501	-1.0288361	0.74222964	51.743881
310	2	2	0.46533468	2.2192366	-0.55919262	40.937866
311	2	6	-0.59584522	2.3950671	-1.742525	40.701847
312	2	9	-0.094379536	0.73986557	0.22674413	40.421342
313	4	1	-0.034768704	0.26008932	1.8954718	74.360025
314	4	2	0.26696	-0.29790762	0.76175639	74.945574
315	4	2	-0.32867777	0.34080018	0.14828228	75.945868
316	4	3	0.21917495	1.2865244	0.5340647	76.306848
317	4	2	-0.15905514	-0.23976769	-1.0558211	76.57552
318	4	3	0.20448877	0.29418544	-1.4752687	77.414345
319	4	2	-0.25971049	-1.390482	-1.600374	76.112997
320	4	4	0.021713407	-2.0718347	-2.8117816	76.793894
321	4	2	-0.25971049	-2.811968	-3.6472761	75.713464
322	4	2	-0.16219497	-4.0700833	-4.1258045	75.869904
323	4	3	0.20448877	-4.6631986	-3.9215556	76.743506
324	4	2	-0.28074941	-4.7164084	-4.9388751	74.81951
325	4	3	0.21957649	-5.720952	-5.3105121	74.97675
326	4	2	0.43014523	-4.0703659	-5.2142589	73.682834
327	4	1	-0.44491294	-4.6896955	-5.9838008	72.702372
328	4	2	-0.28074935	-2.7045171	-4.6961778	73.477546
329	4	3	0.21957654	-2.1808108	-4.9049058	72.553792
330	4	2	-0.16219506	-2.1147203	-3.9596053	74.425238
331	4	3	0.20448877	-1.1203588	-3.5775327	74.235977
332	4	4	-0.12407534	-1.0524723	-3.7561726	77.531239
333	4	4	-0.13798432	0.088580594	-4.3350684	76.667791
334	4	4	-0.13629953	1.1774483	-4.9620209	77.547816
335	4	4	-0.12131391	2.2870209	-5.5764273	76.699763
336	4	5	0.064168663	1.876957	-6.3767046	76.046714
337	4	5	0.064168663	2.764581	-4.7965133	76.067711
338	4	5	0.064168663	3.0596608	-6.0186097	77.362004
339	4	5	0.087407329	0.73139859	-5.7562173	78.186804
340	4	5	0.087407329	1.6197769	-4.1845743	78.208398
341	4	5	0.096810364	0.55088423	-3.5488485	76.036431
342	4	5	0.096810364	-0.31997612	-5.1259815	76.004542
343	4	5	0.10108414	-1.6002549	-4.6289146	77.947887
344	4	5	0.10108414	-0.62079655	-3.2238321	78.405911
345	4	4	-0.12407534	-3.0513651	-2.1686645	77.848601
346	4	4	-0.13798432	-3.4799752	-3.0627568	79.036988
347	4	4	-0.13629953	-4.6826797	-2.4591521	79.772636
348	4	4	-0.12131391	-5.0798712	-3.3116541	80.974142
349	4	5	0.064168663	-5.3589259	-4.3357873	80.64543
350	4	5	0.064168663	-5.9531518	-2.8516597	81.483389
351	4	5	0.064168663	-4.2390868	-3.3754096	81.697599
352	4	5	0.087407329	-5.5495122	-2.3924904	79.078489
353	4	5	0.087407329	-4.4318024	-1.435372	80.123528
354	4	5	0.096810364	-2.6324877	-3.1456909	79.752063
355	4	5	0.096810364	-3.7362116	-4.0890074	78.706076
356	4	5	0.10108414	-2.5676551	-1.2757125	78.30673
357	4	5	0.10108414	-3.9474875	-1.7745982	77.320117
358	4	2	-0.15905513	-2.1168173	-0.86137187	75.032547
359	4	3	0.20448876	-3.0857552	-1.2041839	74.693076
360	4	2	-0.32867771	-1.5949197	0.23748014	74.4775
361	4	3	0.21917501	-2.13504	0.75300674	73.692245
362	5	2	0.62565631	-4.2017496	-6.2105543	71.801883
363	5	6	-0.51391399	-3.0949761	-6.7217582	71.820618
364	1	1	-0.034768704	-0.20766118	2.3782209	73.601942
365	1	2	0.26696	0.51400981	2.9668476	72.567208
366	1	2	-0.32867777	-0.13007751	3.5998724	71.582303
367	1	3	0.21917495	-1.2111747	3.66214	71.591974
368	1	2	-0.15905514	0.62417726	4.2270232	70.478438
369	1	3	0.20448877	0.05274934	4.7710344	69.741963
370	1	2	-0.25971049	1.9728155	4.1188185	70.404264
371	1	4	0.021713407	2.8060987	4.8284653	69.309773
372	1	2	-0.25971049	4.0592203	3.9676054	68.991086
373	1	2	-0.11802262	5.3066372	4.4811382	68.863633
374	1	3	0.20448877	5.522946	5.5229032	69.018181
375	1	2	-0.41879243	6.4590798	3.6176584	68.534134
376	1	3	0.22407264	7.442794	4.0591803	68.434055
377	1	2	0.41932967	6.2941111	2.3036313	68.360943
378	1	7	-0.6534543	7.3890774	1.5022326	68.048279
379	1	8	0.42986846	7.285214	0.50304179	67.91404
380	1	2	-0.41879237	4.9504679	1.7132512	68.50794
381	1	3	0.22407264	4.8124158	0.64639743	68.38104
382	1	2	-0.11802269	3.9031437	2.4895583	68.804805
383	1	3	0.20448877	2.9348427	2.0231153	68.925557
384	1	4	-0.12407534	2.0076392	5.0436911	67.971235
385	1	4	-0.13798432	1.4242221	3.7756013	67.312696
386	1	4	-0.13629953	0.41550469	4.1409895	66.217517
387	1	4	-0.12131391	-0.13117077	2.8918761	65.531339
388	1	5	0.064168663	0.69317446	2.3215759	65.053888
389	1	5	0.064168663	-0.64847834	2.2421984	66.269436
390	1	5	0.064168663	-0.85943484	3.1876424	64.746627
391	1	5	0.087407329	0.90599087	4.7846727	65.454267
392	1	5	0.087407329	-0.43267951	4.7047888	66.662144
393	1	5	0.096810364	0.91909445	3.1314473	68.0609
394	1	5	0.096810364	2.24757	3.1947326	66.845983
395	1	5	0.10108414	2.6789313	5.5056835	67.215447
396	1	5	0.10108414	1.1916228	5.7795713	68.140654
397	1	4	-0.12407534	3.167266	6.228476	69.937073
398	1	4	-0.13798432	3.5234981	7.364937	68.948837
399	1	4	-0.13629953	4.1886178	8.5386748	69.677435
400	1	4	-0.12131391	4.4978007	9.6819492	68.71556
401	1	5	0.064168663	5.1904511	9.3386451	67.917731
402	1	5	0.064168663	4.9795984	10.514194	69.270028
403	1	5	0.064168663	3.5615968	10.059534	68.251316
404	1	5	0.087407329	5.1376302	8.1978985	70.145011
405	1	5	0.087407329	3.5152092	8.9128678	70.477839
406	1	5	0.096810364	2.5903929	7.7299542	68.466552
407	1	5	0.096810364	4.1961381	7.0109583	68.142368
408	1	5	0.10108414	2.2993961	6.605675	70.525324
409	1	5	0.10108414	3.9853926	6.0933181	70.68016
410	1	2	-0.15905513	2.6757194	3.4585085	71.54732
411	1	3	0.20448876	3.7575613	3.4284738	71.581175
412	1	2	-0.32867771	1.9892815	2.9059551	72.553221
413	1	3	0.21917501	2.5176261	2.4267608	73.367738
414	2	2	0.46533468	-4.681344	-5.9918167	70.85457
415	2	6	-0.59584522	-5.8227844	-5.5633419	70.834076
416	2	9	-0.094379536	-3.8167127	-6.2534376	69.352239
417	4	1	-0.034768704	1.3677622	-1.0205853	94.81899
418	4	2	0.26696	2.1843483	-0.21279503	95.606518
419	4	2	-0.32867777	3.2442237	-0.74171711	96.22441
420	4	3	0.21917495	3.4737947	-1.7940703	96.108743
421	4	2	-0.15905514	4.1184368	0.10394113	97.063457
422	4	3	0.20448877	4.9896271	-0.36696861	97.49234
423	4	2	-0.25971049	3.8302451	1.409882	97.278103
424	4	4	0.021713407	4.7617006	2.347386	98.083614
425	4	2	-0.25971049	3.8986934	3.4224624	98.79958
426	4	2	-0.16219497	4.2113481	4.7408549	98.819705
427	4	3	0.20448877	5.0632938	5.1422697	98.300342
428	4	2	-0.28074941	3.368403	5.7170146	99.539915
429	4	3	0.21957649	3.64781	6.7629001	99.541081
430	4	2	0.43014523	2.2686978	5.3165395	100.18452
431	4	1	-0.44491294	1.4847412	6.2461067	100.86156
432	4	2	-0.28074935	1.8947603	3.8896396	100.16964
433	4	3	0.21957654	0.99831884	3.56084	100.679
434	4	2	-0.16219506	2.6543572	3.0017044	99.519177
435	4	3	0.20448877	2.3421627	1.9658443	99.510107
436	4	4	-0.12407534	5.6040601	1.5884919	99.174101
437	4	4	-0.13798432	4.8013168	0.78172142	100.21688
438	4	4	-0.13629953	5.7206506	-0.15550861	101.01034
439	4	4	-0.12131391	4.9413746	-0.92340292	102.07378
440	4	5	0.064168663	4.4726521	-0.2189477	102.79427
441	4	5	0.064168663	4.1495384	-1.5421698	101.59844
442	4	5	0.064168663	5.6302863	-1.5934783	102.62827
443	4	5	0.087407329	6.5201949	0.43702722	101.50797
444	4	5	0.087407329	6.1992165	-0.88437168	100.32028
445	4	5	0.096810364	4.0098348	0.17538869	99.730672
446	4	5	0.096810364	4.3207612	1.4830367	100.93073
447	4	5	0.10108414	6.2057991	2.3259808	99.748
448	4	5	0.10108414	6.3388698	0.92047247	98.675517
449	4	4	-0.12407534	5.731098	2.9604746	97.002006
450	4	4	-0.13798432	7.0871935	3.5056586	97.511073
451	4	4	-0.13629953	7.7634085	4.3774773	96.445859
452	4	4	-0.12131391	9.122878	4.8788116	96.924026
453	4	5	0.064168663	9.0066943	5.4913379	97.843854
454	4	5	0.064168663	9.5854003	5.5080007	96.134253
455	4	5	0.064168663	9.7975712	4.0222003	97.137049
456	4	5	0.087407329	7.1183757	5.2545746	96.217132
457	4	5	0.087407329	7.9029837	3.7892391	95.513826
458	4	5	0.096810364	7.7568631	2.649482	97.745487
459	4	5	0.096810364	6.9679753	4.0974901	98.44052
460	4	5	0.10108414	5.9872579	2.1798712	96.249502
461	4	5	0.10108414	5.1892314	3.7470924	96.431714
462	4	2	-0.15905513	2.6732474	1.9924066	96.527716
463	4	3	0.20448876	2.458067	3.0512334	96.592402
464	4	2	-0.32867771	1.8950849	1.2259797	95.756364
465	4	3	0.21917501	1.0588949	1.6674881	95.227234
466	5	2	0.62565631	0.61647026	5.954029	101.37262
467	5	6	-0.51391399	0.66838866	5.0606752	102.20078
468	1	1	-0.034768704	0.56029697	-0.6405832	94.339275
469	1	2	0.26696	-0.6045187	-1.3870972	94.184723
470	1	2	-0.32867777	-1.6526394	-0.86075689	93.5444
471	1	3	0.21917495	-1.5945229	0.14186065	93.139279
472	1	2	-0.15905514	-2.8942573	-1.642115	93.375278
473	1	3	0.20448877	-3.6861583	-1.1851068	92.801771
474	1	2	-0.25971049	-3.0219961	-2.8766276	93.919057
475	1	4	0.021713407	-4.2741824	-3.7589117	93.696632
476	1	2	-0.25971049	-4.496291	-4.6465831	94.951886
477	1	2	-0.11802262	-4.7864342	-5.9687489	94.89103
478	1	3	0.20448877	-4.8408806	-6.5078651	93.962408
479	1	2	-0.41879243	-5.0130518	-6.7591797	96.118285
480	1	3	0.22407264	-5.2482428	-7.81302	96.036084
481	1	2	0.41932967	-4.9290518	-6.1836337	97.320603
482	1	7	-0.6534543	-5.1475145	-6.940479	98.468823
483	1	8	0.42986846	-5.0873382	-6.5229609	99.390369
484	1	2	-0.41879237	-4.6000664	-4.7492194	97.419387
485	1	3	0.22407264	-4.5181864	-4.279573	98.392046
486	1	2	-0.11802269	-4.3950837	-4.0280373	96.312342
487	1	3	0.20448877	-4.1358318	-2.9834933	96.419456
488	1	4	-0.12407534	-5.5827907	-2.9198631	93.453554
489	1	4	-0.13798432	-5.9601256	-1.9083438	94.556526
490	1	4	-0.13629953	-7.0462659	-0.94327682	94.06726
491	1	4	-0.12131391	-7.4562938	0.030790442	95.168645
492	1	5	0.064168663	-7.8643599	-0.52206177	96.04076
493	1	5	0.064168663	-6.5824729	0.63566599	95.492742
494	1	5	0.064168663	-8.2405469	0.71713857	94.784598
495	1	5	0.087407329	-7.9421496	-1.5181497	93.744198
496	1	5	0.087407329	-6.6678595	-0.36223333	93.198827
497	1	5	0.096810364	-5.0780984	-1.3177993	94.877746
498	1	5	0.096810364	-6.3556346	-2.4582318	95.436484
499	1	5	0.10108414	-6.4475925	-3.6112682	93.356792
500	1	5	0.10108414	-5.5081802	-2.3909591	92.478464
501	1	4	-0.12407534	-3.939676	-4.5968859	92.404393
502	1	4	-0.13798432	-5.1405411	-5.1697397	91.613938
503	1	4	-0.13629953	-4.6814638	-6.2376252	90.614053
504	1	4	-0.12131391	-5.8551176	-6.7709882	89.798005
505	1	5	0.064168663	-6.6123863	-7.2326608	90.467001
506	1	5	0.064168663	-5.4930456	-7.5420399	89.086262
507	1	5	0.064168663	-6.328667	-5.9486011	89.220077
508	1	5	0.087407329	-4.2122138	-7.0837097	91.161159
509	1	5	0.087407329	-3.9284942	-5.8038484	89.921941
510	1	5	0.096810364	-5.6296194	-4.3444444	91.051612
511	1	5	0.096810364	-5.9031817	-5.6082691	92.287888
512	1	5	0.10108414	-3.3845397	-3.9564122	91.681113
513	1	5	0.10108414	-3.2311691	-5.4125085	92.673751
514	1	2	-0.15905513	-1.8169351	-3.4679354	94.578484
515	1	3	0.20448876	-1.8383999	-4.4859283	94.946805
516	1	2	-0.32867771	-0.68908293	-2.7625199	94.715186
517	1	3	0.21917501	0.16970172	-3.2072176	95.201957
518	2	2	0.46533468	-0.32679089	6.4467434	101.16586
519	2	6	-0.59584522	-0.36309831	7.3982812	100.40418
520	2	9	-0.094379536	-1.799917	5.8760873	101.92565
521	4	1	-0.034768704	1.684742	22.242583	0.36264189
522	4	2	0.26696	0.85722259	22.379328	1.4744204
523	4	2	-0.32867777	0.064270208	21.368306	1.8404087
524	4	3	0.21917495	0.068690947	20.441373	1.2797798
525	4	2	-0.15905514	-0.81907395	21.500407	3.0175402
526	4	3	0.20448877	-1.3955082	20.631855	3.296843
527	4	2	-0.25971049	-0.89437209	22.66344	3.7076804
528	4	4	0.021713407	-1.745403	22.817251	4.9912144
529	4	2	-0.25971049	-2.2559109	24.281375	5.0855613
530	4	2	-0.16219497	-2.2190188	25.014456	6.2246611
531	4	3	0.20448877	-1.7905205	24.643573	7.1387281
532	4	2	-0.28074941	-2.7438425	26.394715	6.2645388
533	4	3	0.21957649	-2.7041802	26.952669	7.1913941
534	4	2	0.43014523	-3.2626346	26.953873	5.1675255
535	4	1	-0.44491294	-3.7562475	28.254153	5.2193664
536	4	2	-0.28074935	-3.3045983	26.185745	3.9088306
537	4	3	0.21957654	-3.7117667	26.637499	3.013682
538	4	2	-0.16219506	-2.8308412	24.935809	3.8672018
539	4	3	0.20448877	-2.8575255	24.406249	2.9241175
540	4	4	-0.12407534	-2.9932478	21.859801	5.0199359
541	4	4	-0.13798432	-3.9759376	21.984142	3.836076
542	4	4	-0.13629953	-4.9540497	20.802725	3.8096728
543	4	4	-0.12131391	-5.9573999	20.941915	2.6687277
544	4	5	0.064168663	-6.5532953	21.872284	2.788689
545	4	5	0.064168663	-5.4274974	20.969576	1.6918668
546	4	5	0.064168663	-6.6483257	20.073777	2.673146
547	4	5	0.087407329	-5.5089965	20.754317	4.7728471
548	4	5	0.087407329	-4.3913834	19.852654	3.6784569
549	4	5	0.096810364	-3.4344051	22.018858	2.8685951
550	4	5	0.096810364	-4.5639119	22.919364	3.9456588
551	4	5	0.10108414	-3.5860242	22.061415	5.9382541
552	4	5	0.10108414	-2.6497198	20.806567	5.1063451
553	4	4	-0.12407534	-0.76132622	22.434798	6.1620298
554	4	4	-0.13798432	-1.4060891	21.974235	7.4915158