Title

68 atoms
71 bonds
118 angles
171 dihedrals
78 impropers

10 atom types
14 bond types
6 angle types
9 dihedral types
2 improper types
-8.710000038 91.28999996 xlo xhi
-3.022000074 96.97799993 ylo yhi
-8.418999672 91.58100033 zlo zhi
0.0 0.0 0.0 xy xz yz

Masses

1	15.99943
2	12.01078
3	79.9041
4	1.007947
5	12.01078
6	1.007947
7	15.99943
8	15.99943
9	1.007947
10	35.4532


Pair Coeffs

1	0.16846514	3.0251065
2	0.086879315	3.4806469
3	0.32189864	3.5097963
4	0.015611343	2.5725815
5	0.10884061	3.3795318
6	0.015779483	2.6445434
7	0.2102061	3.0398122
8	0.20947353	2.99716
9	1.2326e-05	0.53453923
10	0.2656001	3.3075278

Bond Coeffs

1 harmonic	425.69104206635	1.362945806494
2 harmonic	300.03137914615	1.451203938761
3 harmonic	360.7852444772	1.387193227181
4 harmonic	203.9927893677	1.911636491655
5 harmonic	397.2545789619	1.085358495916
6 harmonic	289.73813263395	1.498646816465
7 harmonic	264.62148576755	1.52190126495
8 harmonic	301.15400723785	1.345741232799
9 harmonic	370.04670688625	1.093899492634
10 harmonic	582.698766451	1.225198386222
11 harmonic	279.1350963404	1.454628925034
12 harmonic	385.7604595587	1.369745182308
13 harmonic	543.5267831885	0.9716763312559
14 harmonic	218.0227703685	1.746066037062


Angle Coeffs

1 harmonic	57.8982893754	126.8062420451
2 harmonic	65.09061609600001	110.3538806181
3 harmonic	34.066775159195	129.1835929926
4 harmonic	53.20531626545	116.5475862634
5 harmonic	201.41175231035	127.4691416191
6 harmonic	48.776492647595	115.6030999533


Dihedral Coeffs

1 fourier 1	3.661930099076	2	180
2 fourier 1	1.532232714475	2	180
3 fourier 1	0.457973137376	1	0
4 fourier 1	0.02664938770063	3	0
5 fourier 1	0.1155372516788	3	0
6 fourier 1	2.779853741805	2	180
7 fourier 1	0.9974165607242	2	180
8 fourier 1	0.1040663847541	3	0
9 fourier 1	0.8283030590042	2	180


Improper Coeffs

1 0.3666666666666667	-1	2
2 3.5	-1	2


Atoms

1	1	1	-0.111357	-4.8080001	1.377	1.409
2	1	2	0.372325	-3.6400001	0.81199998	0.89499998
3	1	2	-0.22159199	-2.6459999	0.47799999	1.7309999
4	1	3	-0.065408997	-2.806	0.76300001	3.6170001
5	1	2	-0.0090469997	-1.402	-0.119	1.207
6	1	4	0.21256299	-0.625	-0.38699999	1.913
7	1	2	-0.25849101	-1.225	-0.32300001	-0.116
8	1	5	0.020431001	0.082999997	-0.96700001	-0.61799997
9	1	2	-0.25849101	1.295	-0.221	-0.027000001
10	1	2	0.0080859996	1.367	1.124	-0.133
11	1	4	0.21256299	0.57099998	1.679	-0.61299998
12	1	2	-0.223452	2.52	1.878	0.40200001
13	1	3	-0.065889999	2.4949999	3.786	0.22
14	1	2	0.62412798	3.5369999	1.221	0.99199998
15	1	1	-0.43842199	4.6459999	1.891	1.5140001
16	1	2	-0.223452	3.4890001	-0.25400001	1.0930001
17	1	3	-0.065889999	4.9330001	-1.205	1.9119999
18	1	2	0.0080859996	2.4400001	-0.93400002	0.61199999
19	1	4	0.21256299	2.447	-2.01	0.70099998
20	1	5	-0.1296	0.041999999	-2.4590001	-0.20900001
21	1	6	0.090103	0.89300001	-3.0220001	-0.65100002
22	1	6	0.090103	0.071999997	-2.572	0.89600003
23	1	6	0.090103	-0.89399999	-2.9349999	-0.57499999
24	1	5	-0.1296	0.221	-0.91399997	-2.1589999
25	1	6	0.090103	1.217	-1.299	-2.471
26	1	6	0.090103	0.127	0.12800001	-2.533
27	1	6	0.090103	-0.54799998	-1.544	-2.655
28	1	2	-0.0090460004	-2.3469999	0.035	-1.034
29	1	4	0.21256299	-2.267	-0.132	-2.098
30	1	2	-0.22159199	-3.48	0.57200003	-0.56199998
31	1	3	-0.065408997	-4.875	1.01	-1.801
32	1	2	0.628838	4.757	2.9330001	1.482
33	1	7	-0.477321	5.8720002	3.428	1.48
34	1	1	-0.111357	-5.585	1.647	0.82099998
35	1	2	0.372325	-5.4070001	2.2119999	-0.442
36	1	2	-0.22159199	-6.4809999	2.546	-1.173
37	1	3	-0.065408997	-8.2530003	2.26	-0.50700003
38	1	2	-0.0090469997	-6.3150001	3.1429999	-2.513
39	1	4	0.21256299	-7.2049999	3.411	-3.0680001
40	1	2	-0.25849101	-5.0890002	3.3469999	-3.0420001
41	1	5	0.020431001	-4.96	3.9909999	-4.4359999
42	1	2	-0.25849101	-5.8579998	3.2449999	-5.4429998
43	1	2	0.044445999	-5.776	1.9	-5.5409999
44	1	4	0.21256299	-5.0970001	1.345	-4.9050002
45	1	2	-0.28644601	-6.6030002	1.145	-6.506
46	1	3	-0.074332997	-6.421	-0.76300001	-6.5310001
47	1	2	0.59815001	-7.447	1.802	-7.3249998
48	1	8	-0.63617998	-8.25	1.132	-8.2510004
49	1	9	0.43444699	-8.2489996	0.127	-8.3620005
50	1	2	-0.28644601	-7.5310001	3.277	-7.2509999
51	1	3	-0.074332997	-8.71	4.2290001	-8.4189997
52	1	2	0.044445999	-6.7839999	3.957	-6.3720002
53	1	4	0.21256299	-6.8709998	5.0339999	-6.355
54	1	5	-0.1296	-5.3429999	5.4829998	-4.2859998
55	1	6	0.090103	-5.1479998	6.0450001	-5.2249999
56	1	6	0.090103	-6.414	5.5960002	-4.0159998
57	1	6	0.090103	-4.737	5.9580002	-3.484
58	1	5	-0.1296	-3.5150001	3.937	-4.9879999
59	1	6	0.090103	-3.484	4.323	-6.0300002
60	1	6	0.090103	-3.1289999	2.895	-4.9990001
61	1	6	0.090103	-2.829	4.5679998	-4.382
62	1	2	-0.0090460004	-3.901	2.9890001	-2.211
63	1	4	0.21256299	-2.898	3.1559999	-2.576
64	1	2	-0.22159199	-4.0479999	2.4519999	-0.99199998
65	1	3	-0.065408997	-2.477	2.0139999	0.015
66	1	2	0.46994701	3.881	3.5710001	1.451
67	1	7	-0.54587001	2.77	3.076	1.365
68	1	10	-0.070514999	4.0619998	5.3130002	1.527

Bonds

1	1	1	2
2	2	1	34
3	3	2	3
4	3	2	30
5	4	3	4
6	3	3	5
7	5	5	6
8	3	5	7
9	6	7	8
10	3	7	28
11	6	8	9
12	7	8	20
13	7	8	24
14	3	9	10
15	3	9	18
16	5	10	11
17	3	10	12
18	4	12	13
19	3	12	14
20	1	14	15
21	3	14	16
22	8	15	32
23	4	16	17
24	3	16	18
25	5	18	19
26	9	20	21
27	9	20	22
28	9	20	23
29	9	24	25
30	9	24	26
31	9	24	27
32	5	28	29
33	3	28	30
34	4	30	31
35	10	32	33
36	11	32	66
37	1	34	35
38	3	35	36
39	3	35	64
40	4	36	37
41	3	36	38
42	5	38	39
43	3	38	40
44	6	40	41
45	3	40	62
46	6	41	42
47	7	41	54
48	7	41	58
49	3	42	43
50	3	42	52
51	5	43	44
52	3	43	45
53	4	45	46
54	3	45	47
55	12	47	48
56	3	47	50
57	13	48	49
58	4	50	51
59	3	50	52
60	5	52	53
61	9	54	55
62	9	54	56
63	9	54	57
64	9	58	59
65	9	58	60
66	9	58	61
67	5	62	63
68	3	62	64
69	4	64	65
70	10	66	67
71	14	66	68

Angles

1	1	2	30	31
2	4	8	20	21
3	4	41	58	60
4	2	47	48	49
5	4	8	24	27
6	1	40	62	64
7	4	42	41	54
8	4	40	41	42
9	1	2	3	4
10	4	40	41	58
11	1	51	50	52
12	4	8	20	22
13	4	41	58	61
14	1	3	2	30
15	3	42	43	44
16	3	36	38	39
17	1	62	64	65
18	1	10	9	18
19	4	41	54	56
20	1	12	14	16
21	1	2	3	5
22	1	3	5	7
23	4	20	8	24
24	1	41	42	52
25	1	47	50	51
26	1	67	66	68
27	3	50	52	53
28	3	7	28	29
29	2	1	34	35
30	3	29	28	30
31	1	38	40	41
32	1	32	66	67
33	1	36	38	40
34	6	56	54	57
35	1	10	12	13
36	4	41	54	57
37	6	60	58	61
38	6	22	20	23
39	4	8	24	25
40	1	47	50	52
41	1	45	47	48
42	1	8	7	28
43	3	39	38	40
44	1	4	3	5
45	1	32	66	68
46	1	42	52	50
47	1	43	42	52
48	3	6	5	7
49	5	15	32	33
50	1	10	12	14
51	1	35	64	65
52	1	15	14	16
53	4	7	8	9
54	1	46	45	47
55	1	28	30	31
56	3	9	18	19
57	3	63	62	64
58	4	8	20	23
59	1	42	43	45
60	4	9	8	24
61	1	15	32	66
62	1	35	64	62
63	1	14	16	17
64	1	38	40	62
65	6	55	54	56
66	1	8	9	10
67	1	7	28	30
68	4	9	8	20
69	2	2	1	34
70	1	43	45	46
71	1	9	18	16
72	1	5	7	28
73	1	34	35	36
74	1	1	2	30
75	4	41	58	59
76	1	8	9	18
77	1	14	16	18
78	1	35	36	37
79	4	8	24	26
80	1	33	32	66
81	1	13	12	14
82	6	59	58	60
83	3	44	43	45
84	2	14	15	32
85	6	25	24	26
86	3	11	10	12
87	1	34	35	64
88	6	26	24	27
89	1	35	36	38
90	1	45	47	50
91	1	17	16	18
92	4	41	54	55
93	1	12	14	15
94	6	21	20	22
95	6	59	58	61
96	3	3	5	6
97	1	5	7	8
98	3	9	10	11
99	1	48	47	50
100	6	25	24	27
101	4	40	41	54
102	1	1	2	3
103	1	41	40	62
104	4	54	41	58
105	4	7	8	24
106	1	2	30	28
107	6	21	20	23
108	3	42	52	53
109	1	9	10	12
110	6	55	54	57
111	3	40	62	63
112	1	41	42	43
113	3	16	18	19
114	4	7	8	20
115	1	43	45	47
116	4	42	41	58
117	1	36	35	64
118	1	37	36	38

Dihedrals

1	4	20	8	7	28
2	2	14	15	32	33
3	1	1	2	3	5
4	4	9	8	7	28
5	1	2	3	5	7
6	1	39	38	40	62
7	5	42	41	58	59
8	1	5	7	28	30
9	1	37	36	35	64
10	5	9	8	20	22
11	1	4	3	5	7
12	2	16	14	15	32
13	2	30	2	1	34
14	1	2	30	28	29
15	1	38	40	62	63
16	8	20	8	24	26
17	4	43	42	41	58
18	5	40	41	54	55
19	1	35	64	62	63
20	4	24	8	7	28
21	1	38	36	35	64
22	5	42	41	58	60
23	1	6	5	7	8
24	5	9	8	20	23
25	1	7	28	30	31
26	7	15	32	66	67
27	7	33	32	66	68
28	1	44	43	45	46
29	4	43	42	41	54
30	1	10	9	18	16
31	6	14	15	32	66
32	1	34	35	36	37
33	4	38	40	41	42
34	1	8	9	18	19
35	1	12	14	16	18
36	1	29	28	30	31
37	4	38	40	41	58
38	1	41	40	62	63
39	1	48	47	50	52
40	1	43	45	47	48
41	5	7	8	24	26
42	4	42	41	40	62
43	5	7	8	20	21
44	1	41	42	52	53
45	1	4	3	2	30
46	4	40	41	42	43
47	7	15	32	66	68
48	1	14	16	18	19
49	1	43	42	52	53
50	1	46	45	47	50
51	1	3	5	7	28
52	1	34	35	36	38
53	1	15	14	16	18
54	4	38	40	41	54
55	5	9	8	24	25
56	1	35	64	62	40
57	5	40	41	58	60
58	8	55	54	41	58
59	1	36	38	40	41
60	1	41	40	62	64
61	9	45	47	48	49
62	5	7	8	24	27
63	1	37	36	38	40
64	4	5	7	8	24
65	1	8	9	18	16
66	1	8	7	28	29
67	1	35	36	38	39
68	1	9	18	16	17
69	1	51	50	52	53
70	1	44	43	42	52
71	5	42	41	54	55
72	1	11	10	9	18
73	1	34	35	64	65
74	4	5	7	8	20
75	5	40	41	58	61
76	1	38	40	62	64
77	1	41	42	43	44
78	8	20	8	24	27
79	1	3	5	7	8
80	5	40	41	54	56
81	1	8	7	28	30
82	5	42	41	58	61
83	1	45	47	50	51
84	4	40	41	42	52
85	1	5	3	2	30
86	5	42	41	54	56
87	1	11	10	12	13
88	8	54	41	58	59
89	4	52	42	41	58
90	1	10	12	14	15
91	1	44	43	45	47
92	3	2	1	34	35
93	8	22	20	8	24
94	1	13	12	14	15
95	1	41	42	43	45
96	2	1	34	35	36
97	1	3	2	30	28
98	1	9	18	16	14
99	1	42	43	45	46
100	2	12	14	15	32
101	1	47	50	52	53
102	4	52	42	41	54
103	8	56	54	41	58
104	1	1	2	30	31
105	4	7	8	9	10
106	1	45	47	50	52
107	4	58	41	40	62
108	5	7	8	20	22
109	1	8	9	10	11
110	8	23	20	8	24
111	1	1	2	3	4
112	1	42	52	50	51
113	1	3	2	30	31
114	5	9	8	24	26
115	1	5	7	28	29
116	1	45	43	42	52
117	2	1	34	35	64
118	1	36	38	40	62
119	5	9	8	20	21
120	1	41	42	52	50
121	4	7	8	9	18
122	2	3	2	1	34
123	1	43	42	52	50
124	1	43	45	47	50
125	1	42	52	50	47
126	5	7	8	20	23
127	1	36	35	64	65
128	1	8	9	10	12
129	8	21	20	8	24
130	1	12	10	9	18
131	1	1	2	30	28
132	1	10	9	18	19
133	1	35	36	38	40
134	5	9	8	24	27
135	4	18	9	8	24
136	1	9	10	12	13
137	7	33	32	66	67
138	1	2	30	28	7
139	1	46	45	47	48
140	8	57	54	41	58
141	1	34	35	64	62
142	4	18	9	8	20
143	1	12	14	16	17
144	5	40	41	54	57
145	4	10	9	8	24
146	1	48	47	50	51
147	4	5	7	8	9
148	5	7	8	24	25
149	1	36	35	64	62
150	5	42	41	54	57
151	1	9	10	12	14
152	1	11	10	12	14
153	8	54	41	58	60
154	1	10	12	14	16
155	9	49	48	47	50
156	1	13	12	14	16
157	1	17	16	18	19
158	1	63	62	64	65
159	4	10	9	8	20
160	1	15	14	16	17
161	1	2	3	5	6
162	1	40	62	64	65
163	1	6	5	7	28
164	1	42	43	45	47
165	1	4	3	5	6
166	1	39	38	40	41
167	5	40	41	58	59
168	1	37	36	38	39
169	4	54	41	40	62
170	8	54	41	58	61
171	8	20	8	24	25

Impropers

1	1	30	31	2	28
5	1	43	42	44	45
7	1	35	36	64	34
9	1	62	64	40	63
11	1	36	37	38	35
13	1	2	3	30	1
14	1	36	35	37	38
16	1	28	30	7	29
29	1	50	52	47	51
31	1	47	50	45	48
33	1	2	30	1	3
37	1	52	42	50	53
38	1	18	19	9	16
41	1	9	8	10	18
45	1	3	2	4	5
53	1	40	38	41	62
59	1	10	9	11	12
66	1	66	32	67	68
67	1	9	10	18	8
70	1	28	29	30	7
72	1	5	7	3	6
74	1	14	16	12	15
77	1	7	28	5	8
78	1	43	44	45	42
79	1	52	50	53	42
88	1	40	62	38	41
89	1	66	67	68	32
92	1	9	18	8	10
93	1	14	12	15	16
94	1	12	13	14	10
98	1	7	5	8	28
99	1	2	1	3	30
104	1	42	41	43	52
107	1	62	40	63	64
113	1	18	16	19	9
117	1	36	38	35	37
123	1	35	64	34	36
130	1	38	36	39	40
132	1	47	48	50	45
133	1	42	43	52	41
140	1	7	8	28	5
144	2	32	15	33	66
146	1	45	46	47	43
148	1	64	62	65	35
151	2	32	33	66	15
155	1	38	40	36	39
156	1	43	45	42	44
158	1	30	28	31	2
168	1	3	4	5	2
174	1	64	35	62	65
185	1	62	63	64	40
186	1	12	10	13	14
189	1	38	39	40	36
195	1	5	6	7	3
197	1	66	68	32	67
199	1	45	43	46	47
206	1	47	45	48	50
210	2	32	66	15	33
219	1	10	11	12	9
220	1	45	47	43	46
232	1	28	7	29	30
237	1	30	2	28	31
250	1	16	18	14	17
256	1	3	5	2	4
257	1	16	17	18	14
258	1	42	52	41	43
259	1	18	9	16	19
260	1	14	15	16	12
264	1	52	53	42	50
269	1	5	3	6	7
272	1	16	14	17	18
274	1	35	34	36	64
279	1	40	41	62	38
283	1	10	12	9	11
285	1	12	14	10	13
288	1	50	47	51	52
294	1	50	51	52	47
295	1	64	65	35	62
