Title

91 atoms
94 bonds
161 angles
247 dihedrals
84 impropers

9 atom types
13 bond types
6 angle types
26 dihedral types
2 improper types
-2.243000031 97.75699997 xlo xhi
-3.227999926 96.77200007 ylo yhi
-11.47700024 88.52299976 zlo zhi
0.0 0.0 0.0 xy xz yz

Masses

1	15.99943
2	12.01078
3	1.007947
4	12.01078
5	15.99943
6	1.007947
7	1.007947
8	15.99943
9	1.007947


Pair Coeffs

1	0.16846514	3.0251065
2	0.10884061	3.3795318
3	0.016409246	2.5832257
4	0.086879315	3.4806469
5	0.2102061	3.0398122
6	0.015611343	2.5725815
7	0.015779483	2.6445434
8	0.20947353	2.99716
9	1.2326e-05	0.53453923

Bond Coeffs

1 harmonic	366.7408841747	1.425895053732
2 harmonic	300.03137914615	1.451203938761
3 harmonic	264.62148576755	1.52190126495
4 harmonic	370.04670688625	1.093899492634
5 harmonic	301.15400723785	1.345741232799
6 harmonic	582.698766451	1.225198386222
7 harmonic	279.1350963404	1.454628925034
8 harmonic	360.7852444772	1.387193227181
9 harmonic	397.2545789619	1.085358495916
10 harmonic	289.73813263395	1.498646816465
11 harmonic	329.96998057905	1.427343958716
12 harmonic	543.5267831885	0.9716763312559
13 harmonic	385.7604595587	1.369745182308


Angle Coeffs

1 harmonic	53.20531626545	116.5475862634
2 harmonic	65.09061609600001	110.3538806181
3 harmonic	201.41175231035	127.4691416191
4 harmonic	57.8982893754	126.8062420451
5 harmonic	48.776492647595	115.6030999533
6 harmonic	34.066775159195	129.1835929926


Dihedral Coeffs

1 fourier 1	-0.0309670556842	3	0
2 fourier 1	0.4598191477945	2	0
3 fourier 1	0.1115525666802	3	0
4 fourier 1	0.3432490222662	1	0
5 fourier 1	0.0473758381877	3	0
6 fourier 1	0.457973137376	1	0
7 fourier 1	0.1918272375143	3	0
8 fourier 1	0.9202179876409	1	180
9 fourier 1	1.163809172478	2	180
10 fourier 1	0.1679186987369	1	180
11 fourier 1	2.779853741805	2	180
12 fourier 1	0.9974165607242	2	180
13 fourier 1	0.1911926717192	3	0
14 fourier 1	3.661930099076	2	180
15 fourier 1	0.02664938770063	3	0
16 fourier 1	0.1155372516788	3	0
17 fourier 1	0.1040663847541	3	0
18 fourier 1	0.09223874044423	3	0
19 fourier 1	0.3159935921949	2	180
20 fourier 1	0.3247796806857	1	180
21 fourier 1	0.3445382149273	3	0
22 fourier 1	0.1364556373303	1	0
23 fourier 1	0.3026390167484	3	0
24 fourier 1	2.687457892086	2	180
25 fourier 1	2.772607909663	2	180
26 fourier 1	0.09692684957115	1	0


Improper Coeffs

1 3.5	-1	2
2 0.3666666666666667	-1	2


Atoms

1	1	1	-0.123611	1.576	-0.336	0.85699999
2	1	2	0.055201001	0.63599998	-0.419	-0.17900001
3	1	2	0.16009501	-0.71899998	0.11	0.28999999
4	1	1	-0.498476	-1.675	-0.035999998	-0.72399998
5	1	3	0.097730003	-1.051	-0.46900001	1.177
6	1	3	0.097730003	-0.63099998	1.1799999	0.58899999
7	1	3	0.105481	0.52999997	-1.484	-0.477
8	1	3	0.105481	0.98699999	0.154	-1.068
9	1	4	0.79593998	-1.49	0.71499997	-1.4170001
10	1	5	-0.53566301	-2.243	1.724	-1.436
11	1	4	-0.28064299	-0.36399999	0.59399998	-2.359
12	1	4	-0.069137	0.43099999	-0.48500001	-2.3239999
13	1	6	0.226317	0.257	-1.276	-1.603
14	1	4	-0.253387	1.564	-0.61699998	-3.263
15	1	6	0.202711	2.184	-1.492	-3.1489999
16	1	4	-0.22903299	1.804	0.32600001	-4.204
17	1	2	0.016919	2.9949999	0.26899999	-5.1900001
18	1	4	-0.22903299	4.0139999	1.351	-4.7789998
19	1	4	-0.250222	4.7410002	2.0450001	-5.6849999
20	1	6	0.202712	4.6199999	1.899	-6.7480001
21	1	4	-0.014652	5.7470002	3.0380001	-5.2540002
22	1	6	0.213182	6.2849998	3.596	-6.0100002
23	1	4	-0.340875	5.9899998	3.2409999	-3.951
24	1	4	0.58800399	6.9959998	4.2329998	-3.5309999
25	1	5	-0.55175197	7.2379999	4.4320002	-2.312
26	1	4	-0.014652	5.2459998	2.447	-2.9460001
27	1	6	0.213182	5.4499998	2.573	-1.89
28	1	4	-0.250222	4.3280001	1.5549999	-3.3340001
29	1	6	0.202711	3.8210001	0.97299999	-2.575
30	1	2	-0.132827	2.4319999	0.51700002	-6.6199999
31	1	7	0.083626002	1.526	-0.101	-6.7989998
32	1	7	0.083626002	2.151	1.58	-6.7729998
33	1	7	0.083626002	3.1760001	0.25	-7.402
34	1	2	-0.135517	3.7690001	-1.092	-5.1939998
35	1	2	-0.115001	2.98	-2.289	-5.7459998
36	1	7	0.063808002	3.523	-3.2279999	-5.5100002
37	1	7	0.063808002	2.891	-2.2179999	-6.8509998
38	1	7	0.063808002	1.962	-2.3529999	-5.3140001
39	1	7	0.099088997	4.1389999	-1.329	-4.1739998
40	1	7	0.099088997	4.6830001	-0.98799998	-5.8210001
41	1	4	-0.253387	0.93400002	1.54	-4.204
42	1	6	0.202711	1.131	2.3540001	-4.8889999
43	1	4	-0.069137	-0.085000001	1.661	-3.346
44	1	6	0.226317	-0.69499999	2.5550001	-3.3699999
45	1	1	-0.118032	1.845	0.61799997	0.92000002
46	1	2	0.027224001	3.148	0.70099998	0.41100001
47	1	2	0.099260002	4.1529999	0.17200001	1.434
48	1	8	-0.67273599	5.461	0.31799999	0.95200002
49	1	9	0.403723	5.5970001	-0.40000001	0.27900001
50	1	3	0.10423	4.0549998	0.75199997	2.3759999
51	1	3	0.10423	3.941	-0.89700001	1.663
52	1	3	0.106191	3.3759999	1.766	0.192
53	1	3	0.106191	3.23	0.12800001	-0.54100001
54	1	4	0.58800399	7.539	4.8049998	-4.2729998
55	1	5	-0.55175197	6.9000001	5.579	-5.0339999
56	1	4	-0.340875	9.0030003	4.6760001	-4.3839998
57	1	4	-0.014652	9.6689997	3.845	-3.569
58	1	6	0.213182	9.1409998	3.26	-2.825
59	1	4	-0.250222	11.136	3.707	-3.671
60	1	6	0.202711	11.599	2.99	-3.0109999
61	1	4	-0.22903299	11.847	4.4390001	-4.5609999
62	1	2	0.016919	13.378	4.3130002	-4.7459998
63	1	4	-0.22903299	13.644	3.6159999	-6.0949998
64	1	4	-0.253387	14.698	3.934	-6.882
65	1	6	0.202712	15.391	4.7189999	-6.618
66	1	4	-0.065970004	14.953	3.21	-8.1440001
67	1	6	0.226317	15.79	3.523	-8.7559996
68	1	4	-0.26965299	14.166	2.188	-8.5190001
69	1	4	0.834957	14.417	1.46	-9.7819996
70	1	5	-0.50653398	13.673	0.5	-10.119
71	1	8	-0.66932398	15.475	1.827	-10.611
72	1	9	0.41185999	15.652	1.3329999	-11.477
73	1	4	-0.065971002	13.044	1.789	-7.6370001
74	1	6	0.226317	12.414	0.949	-7.902
75	1	4	-0.253387	12.805	2.45	-6.4990001
76	1	6	0.202711	11.993	2.1140001	-5.868
77	1	2	-0.132827	13.975	5.7509999	-4.7090001
78	1	7	0.083626002	13.749	6.3140001	-5.6389999
79	1	7	0.083626002	15.08	5.7290001	-4.5890002
80	1	7	0.083626002	13.559	6.3270001	-3.8540001
81	1	2	-0.135517	14.095	3.4530001	-3.6530001
82	1	2	-0.115001	14.103	4.0650001	-2.243
83	1	7	0.063808002	14.818	4.9130001	-2.194
84	1	7	0.063808002	13.102	4.4299998	-1.942
85	1	7	0.063808002	14.434	3.2980001	-1.511
86	1	7	0.099088997	15.158	3.303	-3.948
87	1	7	0.099088997	13.656	2.4330001	-3.6129999
88	1	4	-0.250222	11.086	5.3299999	-5.487
89	1	6	0.202711	11.601	5.8800001	-6.2620001
90	1	4	-0.014652	9.757	5.4460001	-5.3990002
91	1	6	0.213182	9.2340002	6.098	-6.0869999

Bonds

1	1	1	2
2	2	1	45
3	3	2	3
4	4	2	7
5	4	2	8
6	1	3	4
7	4	3	5
8	4	3	6
9	5	4	9
10	6	9	10
11	7	9	11
12	8	11	12
13	8	11	43
14	9	12	13
15	8	12	14
16	9	14	15
17	8	14	16
18	10	16	17
19	8	16	41
20	10	17	18
21	3	17	30
22	3	17	34
23	8	18	19
24	8	18	28
25	9	19	20
26	8	19	21
27	9	21	22
28	8	21	23
29	7	23	24
30	8	23	26
31	6	24	25
32	7	24	54
33	9	26	27
34	8	26	28
35	9	28	29
36	4	30	31
37	4	30	32
38	4	30	33
39	3	34	35
40	4	34	39
41	4	34	40
42	4	35	36
43	4	35	37
44	4	35	38
45	9	41	42
46	8	41	43
47	9	43	44
48	1	45	46
49	3	46	47
50	4	46	52
51	4	46	53
52	11	47	48
53	4	47	50
54	4	47	51
55	12	48	49
56	6	54	55
57	7	54	56
58	8	56	57
59	8	56	90
60	9	57	58
61	8	57	59
62	9	59	60
63	8	59	61
64	10	61	62
65	8	61	88
66	10	62	63
67	3	62	77
68	3	62	81
69	8	63	64
70	8	63	75
71	9	64	65
72	8	64	66
73	9	66	67
74	8	66	68
75	7	68	69
76	8	68	73
77	6	69	70
78	13	69	71
79	12	71	72
80	9	73	74
81	8	73	75
82	9	75	76
83	4	77	78
84	4	77	79
85	4	77	80
86	3	81	82
87	4	81	86
88	4	81	87
89	4	82	83
90	4	82	84
91	4	82	85
92	9	88	89
93	8	88	90
94	9	90	91

Angles

1	6	56	57	58
2	1	18	17	30
3	5	31	30	32
4	4	57	56	90
5	1	16	17	34
6	1	61	62	77
7	6	88	90	91
8	1	82	81	87
9	5	32	30	33
10	1	61	62	81
11	6	19	21	22
12	4	56	57	59
13	4	16	41	43
14	1	4	3	5
15	1	30	17	34
16	1	2	3	4
17	4	59	61	88
18	5	84	82	85
19	1	62	81	82
20	6	68	73	74
21	1	47	46	53
22	4	56	90	88
23	1	62	77	80
24	4	14	16	41
25	1	17	30	33
26	4	17	18	28
27	1	81	82	83
28	1	81	82	85
29	6	42	41	43
30	1	16	17	30
31	6	57	59	60
32	1	47	46	52
33	4	68	73	75
34	4	19	21	23
35	6	13	12	14
36	1	34	35	37
37	5	86	81	87
38	4	23	26	28
39	4	61	88	90
40	4	63	64	66
41	4	23	24	54
42	1	17	30	31
43	6	18	28	29
44	1	17	34	40
45	4	24	54	55
46	5	83	82	85
47	1	34	35	36
48	4	54	56	90
49	5	31	30	33
50	4	64	63	75
51	5	39	34	40
52	4	63	75	73
53	5	78	77	79
54	2	69	71	72
55	2	47	48	49
56	6	56	90	91
57	4	62	63	75
58	4	12	11	43
59	6	11	12	13
60	5	5	3	6
61	1	62	77	78
62	1	2	3	6
63	3	4	9	10
64	5	36	35	38
65	5	7	2	8
66	5	36	35	37
67	4	4	9	11
68	6	22	21	23
69	6	60	59	61
70	4	66	68	73
71	6	20	19	21
72	6	16	41	42
73	4	10	9	11
74	1	45	46	52
75	1	48	47	51
76	4	54	56	57
77	1	3	2	8
78	4	23	24	25
79	5	50	47	51
80	4	11	12	14
81	6	64	66	67
82	1	2	3	5
83	1	46	47	50
84	4	9	11	12
85	1	34	35	38
86	1	81	82	84
87	1	1	2	8
88	6	65	64	66
89	4	66	68	69
90	6	73	75	76
91	1	45	46	47
92	2	2	1	45
93	6	63	75	76
94	4	17	16	41
95	6	74	73	75
96	1	46	47	48
97	4	25	24	54
98	4	21	23	24
99	5	83	82	84
100	1	1	2	3
101	1	48	47	50
102	5	52	46	53
103	1	3	2	7
104	6	23	26	27
105	6	63	64	65
106	6	18	19	20
107	1	45	46	53
108	6	58	57	59
109	4	19	18	28
110	1	17	30	32
111	5	37	35	38
112	1	1	2	7
113	1	82	81	86
114	4	14	16	17
115	1	63	62	77
116	1	35	34	39
117	6	12	14	15
118	1	63	62	81
119	1	62	81	86
120	4	11	43	41
121	4	59	61	62
122	6	89	88	90
123	1	17	34	35
124	6	41	43	44
125	4	64	66	68
126	1	77	62	81
127	1	61	62	63
128	2	3	4	9
129	4	69	68	73
130	1	62	77	79
131	1	46	47	51
132	6	15	14	16
133	4	12	14	16
134	6	67	66	68
135	3	70	69	71
136	1	62	81	87
137	4	18	28	26
138	6	26	28	29
139	1	16	17	18
140	4	21	23	26
141	1	18	17	34
142	4	68	69	70
143	6	11	43	44
144	5	78	77	80
145	4	24	54	56
146	4	55	54	56
147	5	79	77	80
148	4	62	63	64
149	1	17	34	39
150	2	1	45	46
151	4	68	69	71
152	4	17	18	19
153	1	4	3	6
154	4	9	11	43
155	6	27	26	28
156	1	35	34	40
157	4	24	23	26
158	4	62	61	88
159	4	18	19	21
160	6	61	88	89
161	4	57	59	61

Dihedrals

1	7	2	3	4	9
1	8	2	3	4	9
2	14	12	11	43	44
3	14	64	66	68	69
4	14	14	16	41	43
5	15	14	16	17	34
6	15	28	18	17	34
7	14	63	75	73	74
8	14	18	19	21	22
9	18	30	17	34	35
9	19	30	17	34	35
9	20	30	17	34	35
10	16	61	62	81	82
11	14	62	63	75	73
12	16	63	62	77	78
13	12	66	68	69	71
14	16	18	17	30	33
15	16	61	62	77	80
16	14	64	63	75	73
17	16	16	17	30	32
18	13	6	3	2	7
19	15	30	17	16	41
20	14	12	14	16	41
21	3	45	46	47	51
21	4	45	46	47	51
22	12	4	9	11	43
23	14	20	19	21	22
24	14	68	73	75	76
25	17	77	62	81	86
26	13	50	47	46	53
27	12	10	9	11	12
28	13	85	82	81	86
29	16	63	62	81	86
30	14	17	18	19	20
31	15	16	17	18	19
32	14	62	63	64	65
33	23	49	48	47	51
34	5	1	45	46	47
35	14	9	11	12	13
36	16	18	17	30	31
37	14	64	66	68	73
38	14	74	73	75	76
39	16	16	17	34	39
40	14	19	18	28	29
41	13	50	47	46	52
42	12	70	69	68	73
43	9	3	4	9	10
43	10	3	4	9	10
44	12	21	23	24	54
45	13	36	35	34	39
46	16	16	17	34	35
47	14	13	12	11	43
48	15	63	62	61	88
49	11	3	4	9	11
50	14	66	68	73	74
51	17	62	81	82	83
52	14	20	19	21	23
53	5	1	45	46	53
54	15	61	62	63	75
55	14	57	59	61	88
56	13	83	82	81	86
57	13	37	35	34	40
58	3	45	46	47	50
58	4	45	46	47	50
59	13	38	35	34	40
60	14	9	11	12	14
61	17	30	17	34	39
62	13	5	3	2	8
63	14	58	57	56	90
64	14	61	88	90	91
65	16	63	62	81	87
66	14	63	64	66	67
67	5	8	2	1	45
68	17	32	30	17	34
69	14	65	64	66	68
70	14	57	56	90	88
71	14	62	63	75	76
72	15	59	61	62	63
73	14	66	68	73	75
74	14	13	12	14	15
75	5	1	45	46	52
76	15	16	17	18	28
77	14	24	23	26	28
78	14	27	26	28	29
79	15	34	17	16	41
80	14	62	61	88	90
81	23	49	48	47	50
82	14	64	63	75	76
83	12	71	69	68	73
84	14	17	18	28	29
85	14	14	16	41	42
86	14	14	12	11	43
87	14	62	61	88	89
88	17	79	77	62	81
89	12	25	24	23	26
90	14	11	12	14	16
91	14	56	57	59	61
92	12	21	23	24	25
93	12	10	9	11	43
94	14	66	64	63	75
95	14	58	57	59	60
96	14	22	21	23	24
97	14	11	43	41	16
98	12	24	54	56	57
99	14	56	90	88	61
100	14	60	59	61	88
101	14	69	68	73	74
102	15	77	62	61	88
103	21	46	47	48	49
103	22	46	47	48	49
104	17	78	77	62	81
105	13	5	3	2	7
106	3	4	3	2	8
106	4	4	3	2	8
107	15	18	17	16	41
108	14	58	57	59	61
109	14	57	56	90	91
110	16	61	62	77	79
111	24	68	69	71	72
112	6	2	1	45	46
113	14	89	88	90	91
114	14	21	23	26	28
115	14	67	66	68	69
116	13	85	82	81	87
117	14	18	28	26	27
118	14	54	56	57	58
119	16	16	17	34	40
120	14	69	68	73	75
121	25	70	69	71	72
121	26	70	69	71	72
122	13	84	82	81	86
123	3	48	47	46	52
123	4	48	47	46	52
124	1	1	2	3	4
124	2	1	2	3	4
125	14	62	63	64	66
126	16	63	62	77	79
127	17	62	81	82	85
128	15	19	18	17	34
129	13	36	35	34	40
130	12	24	54	56	90
131	12	25	24	54	56
132	18	77	62	81	82
132	19	77	62	81	82
132	20	77	62	81	82
133	16	18	17	30	32
134	5	6	3	4	9
135	17	17	34	35	37
136	14	63	75	73	68
137	16	63	62	81	82
138	14	12	11	43	41
139	14	54	56	57	59
140	14	56	57	59	60
141	15	14	16	17	18
142	14	63	64	66	68
143	12	4	9	11	12
144	17	30	17	34	40
145	3	1	2	3	5
145	4	1	2	3	5
146	14	56	90	88	89
147	14	57	59	61	62
148	14	15	14	16	17
149	17	17	34	35	36
150	16	16	17	30	33
151	15	59	61	62	77
152	14	12	14	16	17
153	14	54	56	90	88
154	17	77	62	81	87
155	14	17	16	41	43
156	3	4	3	2	7
156	4	4	3	2	7
157	14	19	21	23	24
158	15	59	61	62	81
159	16	61	62	81	86
160	14	67	66	68	73
161	12	25	24	54	55
162	5	3	2	1	45
163	13	84	82	81	87
164	16	18	17	34	39
165	12	55	54	56	90
166	14	17	18	28	26
167	15	19	18	17	30
168	14	24	23	26	27
169	13	83	82	81	87
170	16	18	17	34	35
171	14	22	21	23	26
172	16	16	17	30	31
173	17	33	30	17	34
174	3	48	47	46	53
174	4	48	47	46	53
175	14	13	12	14	16
176	3	1	2	3	6
176	4	1	2	3	6
177	14	16	41	43	44
178	16	61	62	81	87
179	14	19	18	28	26
180	14	54	56	90	91
181	14	59	61	88	90
182	15	81	62	61	88
183	17	17	34	35	38
184	14	17	18	19	21
185	12	55	54	56	57
186	14	42	41	43	44
187	1	45	46	47	48
187	2	45	46	47	48
188	14	23	26	28	29
189	14	59	61	88	89
190	17	62	81	82	84
191	14	9	11	43	41
192	14	15	14	16	41
193	14	65	64	63	75
194	14	21	23	26	27
195	15	75	63	62	77
196	13	51	47	46	53
197	14	20	19	18	28
198	15	75	63	62	81
199	14	18	28	26	23
200	16	63	62	77	80
201	12	23	24	54	56
202	15	61	62	63	64
203	17	80	77	62	81
204	15	64	63	62	77
205	12	26	23	24	54
206	13	51	47	46	52
207	13	6	3	2	8
208	5	5	3	4	9
209	14	19	21	23	26
210	14	18	19	21	23
211	14	59	57	56	90
212	15	14	16	17	30
213	15	28	18	17	30
214	15	64	63	62	81
215	14	17	16	41	42
216	14	11	43	41	42
217	14	11	12	14	15
218	13	37	35	34	39
219	16	18	17	34	40
220	17	31	30	17	34
221	12	23	24	54	55
222	13	38	35	34	39
223	14	65	64	66	67
224	14	21	19	18	28
225	12	66	68	69	70
226	16	61	62	77	78
227	5	7	2	1	45
228	14	60	59	61	62
229	14	9	11	43	44

Impropers

10	2	24	54	23	25
12	2	43	41	44	11
13	2	88	90	61	89
33	1	9	11	4	10
37	2	11	43	9	12
48	2	18	17	19	28
52	2	59	57	60	61
71	2	14	15	16	12
73	2	61	59	62	88
75	2	23	24	26	21
82	2	63	75	62	64
84	2	59	60	61	57
85	2	43	11	41	44
88	2	14	12	15	16
94	2	19	20	21	18
99	2	28	26	29	18
103	2	14	16	12	15
105	2	24	25	54	23
107	2	21	23	19	22
109	2	26	28	23	27
110	2	61	88	59	62
117	2	64	66	63	65
120	1	9	4	10	11
121	2	12	13	14	11
127	2	16	41	14	17
129	2	24	23	25	54
130	2	41	42	43	16
137	2	41	43	16	42
139	2	23	26	21	24
145	2	16	14	17	41
146	2	90	88	91	56
155	1	69	70	71	68
156	2	21	22	23	19
157	2	88	89	90	61
159	2	43	44	11	41
163	2	59	61	57	60
171	2	11	12	43	9
177	2	41	16	42	43
180	2	73	75	68	74
182	2	90	56	88	91
200	2	16	17	41	14
209	2	90	91	56	88
217	2	73	68	74	75
219	1	69	71	68	70
221	2	73	74	75	68
226	2	28	29	18	26
229	2	12	14	11	13
236	2	54	24	55	56
252	2	26	27	28	23
257	2	56	57	90	54
260	2	18	28	17	19
262	2	57	59	56	58
285	2	54	56	24	55
286	2	68	69	73	66
291	2	68	66	69	73
307	2	23	21	24	26
309	2	56	90	54	57
310	2	66	68	64	67
322	2	75	73	76	63
335	2	68	73	66	69
337	2	12	11	13	14
338	2	18	19	28	17
344	2	28	18	26	29
356	2	56	54	57	90
377	2	26	23	27	28
391	2	19	18	20	21
400	1	9	10	11	4
401	2	63	62	64	75
402	2	11	9	12	43
403	2	57	56	58	59
404	1	69	68	70	71
408	2	75	76	63	73
414	2	57	58	59	56
415	2	19	21	18	20
418	2	64	63	65	66
421	2	88	61	89	90
422	2	75	63	73	76
424	2	63	64	75	62
427	2	66	64	67	68
430	2	61	62	88	59
436	2	21	19	22	23
437	2	66	67	68	64
440	2	54	55	56	24
452	2	64	65	66	63
