Title

91 atoms
94 bonds
161 angles
247 dihedrals
84 impropers

9 atom types
13 bond types
6 angle types
26 dihedral types
2 improper types
-2.243000031 97.75699997 xlo xhi
-3.227999926 96.77200007 ylo yhi
-11.47700024 88.52299976 zlo zhi
0.0 0.0 0.0 xy xz yz

Masses

1	15.99943
2	12.01078
3	1.007947
4	12.01078
5	15.99943
6	1.007947
7	1.007947
8	15.99943
9	1.007947


Pair Coeffs

1	0.16846514	3.0251065
2	0.10884061	3.3795318
3	0.016409246	2.5832257
4	0.086879315	3.4806469
5	0.2102061	3.0398122
6	0.015611343	2.5725815
7	0.015779483	2.6445434
8	0.20947353	2.99716
9	1.2326e-05	0.53453923

Bond Coeffs

1 harmonic	366.7408841747	1.425895053732
2 harmonic	300.03137914615	1.451203938761
3 harmonic	264.62148576755	1.52190126495
4 harmonic	370.04670688625	1.093899492634
5 harmonic	301.15400723785	1.345741232799
6 harmonic	582.698766451	1.225198386222
7 harmonic	279.1350963404	1.454628925034
8 harmonic	360.7852444772	1.387193227181
9 harmonic	397.2545789619	1.085358495916
10 harmonic	289.73813263395	1.498646816465
11 harmonic	329.96998057905	1.427343958716
12 harmonic	543.5267831885	0.9716763312559
13 harmonic	385.7604595587	1.369745182308


Angle Coeffs

1 harmonic	53.20531626545	116.5475862634
2 harmonic	65.09061609600001	110.3538806181
3 harmonic	201.41175231035	127.4691416191
4 harmonic	57.8982893754	126.8062420451
5 harmonic	48.776492647595	115.6030999533
6 harmonic	34.066775159195	129.1835929926


Dihedral Coeffs

1 fourier 1	-0.0309670556842	3	0
2 fourier 1	0.4598191477945	2	0
3 fourier 1	0.1115525666802	3	0
4 fourier 1	0.3432490222662	1	0
5 fourier 1	0.0473758381877	3	0
6 fourier 1	0.457973137376	1	0
7 fourier 1	0.1918272375143	3	0
8 fourier 1	0.9202179876409	1	180
9 fourier 1	1.163809172478	2	180
10 fourier 1	0.1679186987369	1	180
11 fourier 1	2.779853741805	2	180
12 fourier 1	0.9974165607242	2	180
13 fourier 1	0.1911926717192	3	0
14 fourier 1	3.661930099076	2	180
15 fourier 1	0.02664938770063	3	0
16 fourier 1	0.1155372516788	3	0
17 fourier 1	0.1040663847541	3	0
18 fourier 1	0.09223874044423	3	0
19 fourier 1	0.3159935921949	2	180
20 fourier 1	0.3247796806857	1	180
21 fourier 1	0.3445382149273	3	0
22 fourier 1	0.1364556373303	1	0
23 fourier 1	0.3026390167484	3	0
24 fourier 1	2.687457892086	2	180
25 fourier 1	2.772607909663	2	180
26 fourier 1	0.09692684957115	1	0


Improper Coeffs

1 3.5	-1	2
2 0.3666666666666667	-1	2


Atoms

1	1	1	-0.123611	1.576	-0.336	0.85699999
2	1	2	0.055201001	0.63599998	-0.419	-0.17900001
3	1	2	0.16009501	-0.71899998	0.11	0.28999999
4	1	1	-0.498476	-1.675	-0.035999998	-0.72399998
5	1	3	0.097730003	-1.051	-0.46900001	1.177
6	1	3	0.097730003	-0.63099998	1.1799999	0.58899999
7	1	3	0.105481	0.52999997	-1.484	-0.477
8	1	3	0.105481	0.98699999	0.154	-1.068
9	1	4	0.79593998	-1.49	0.71499997	-1.4170001
10	1	5	-0.53566301	-2.243	1.724	-1.436
11	1	4	-0.28064299	-0.36399999	0.59399998	-2.359
12	1	4	-0.069137	0.43099999	-0.48500001	-2.3239999
13	1	6	0.226317	0.257	-1.276	-1.603
14	1	4	-0.253387	1.564	-0.61699998	-3.263
15	1	6	0.202711	2.184	-1.492	-3.1489999
16	1	4	-0.22903299	1.804	0.32600001	-4.204
17	1	2	0.016919	2.9949999	0.26899999	-5.1900001
18	1	4	-0.22903299	4.0139999	1.351	-4.7789998
19	1	4	-0.250222	4.7410002	2.0450001	-5.6849999
20	1	6	0.202712	4.6199999	1.899	-6.7480001
21	1	4	-0.014652	5.7470002	3.0380001	-5.2540002
22	1	6	0.213182	6.2849998	3.596	-6.0100002
23	1	4	-0.340875	5.9899998	3.2409999	-3.951
24	1	4	0.58800399	6.9959998	4.2329998	-3.5309999
25	1	5	-0.55175197	7.2379999	4.4320002	-2.312
26	1	4	-0.014652	5.2459998	2.447	-2.9460001
27	1	6	0.213182	5.4499998	2.573	-1.89
28	1	4	-0.250222	4.3280001	1.5549999	-3.3340001
29	1	6	0.202711	3.8210001	0.97299999	-2.575
30	1	2	-0.132827	2.4319999	0.51700002	-6.6199999
31	1	7	0.083626002	1.526	-0.101	-6.7989998
32	1	7	0.083626002	2.151	1.58	-6.7729998
33	1	7	0.083626002	3.1760001	0.25	-7.402
34	1	2	-0.135517	3.7690001	-1.092	-5.1939998
35	1	2	-0.115001	2.98	-2.289	-5.7459998
36	1	7	0.063808002	3.523	-3.2279999	-5.5100002
37	1	7	0.063808002	2.891	-2.2179999	-6.8509998
38	1	7	0.063808002	1.962	-2.3529999	-5.3140001
39	1	7	0.099088997	4.1389999	-1.329	-4.1739998
40	1	7	0.099088997	4.6830001	-0.98799998	-5.8210001
41	1	4	-0.253387	0.93400002	1.54	-4.204
42	1	6	0.202711	1.131	2.3540001	-4.8889999
43	1	4	-0.069137	-0.085000001	1.661	-3.346
44	1	6	0.226317	-0.69499999	2.5550001	-3.3699999
45	1	1	-0.118032	1.845	0.61799997	0.92000002
46	1	2	0.027224001	3.148	0.70099998	0.41100001
47	1	2	0.099260002	4.1529999	0.17200001	1.434
48	1	8	-0.67273599	5.461	0.31799999	0.95200002
49	1	9	0.403723	5.5970001	-0.40000001	0.27900001
50	1	3	0.10423	4.0549998	0.75199997	2.3759999
51	1	3	0.10423	3.941	-0.89700001	1.663
52	1	3	0.106191	3.3759999	1.766	0.192
53	1	3	0.106191	3.23	0.12800001	-0.54100001
54	1	4	0.58800399	7.539	4.8049998	-4.2729998
55	1	5	-0.55175197	6.9000001	5.579	-5.0339999
56	1	4	-0.340875	9.0030003	4.6760001	-4.3839998
57	1	4	-0.014652	9.6689997	3.845	-3.569
58	1	6	0.213182	9.1409998	3.26	-2.825
59	1	4	-0.250222	11.136	3.707	-3.671
60	1	6	0.202711	11.599	2.99	-3.0109999
61	1	4	-0.22903299	11.847	4.4390001	-4.5609999
62	1	2	0.016919	13.378	4.3130002	-4.7459998
63	1	4	-0.22903299	13.644	3.6159999	-6.0949998
64	1	4	-0.253387	14.698	3.934	-6.882
65	1	6	0.202712	15.391	4.7189999	-6.618
66	1	4	-0.065970004	14.953	3.21	-8.1440001
67	1	6	0.226317	15.79	3.523	-8.7559996
68	1	4	-0.26965299	14.166	2.188	-8.5190001
69	1	4	0.834957	14.417	1.46	-9.7819996
70	1	5	-0.50653398	13.673	0.5	-10.119
71	1	8	-0.66932398	15.475	1.827	-10.611
72	1	9	0.41185999	15.652	1.3329999	-11.477
73	1	4	-0.065971002	13.044	1.789	-7.6370001
74	1	6	0.226317	12.414	0.949	-7.902
75	1	4	-0.253387	12.805	2.45	-6.4990001
76	1	6	0.202711	11.993	2.1140001	-5.868
77	1	2	-0.132827	13.975	5.7509999	-4.7090001
78	1	7	0.083626002	13.749	6.3140001	-5.6389999
79	1	7	0.083626002	15.08	5.7290001	-4.5890002
80	1	7	0.083626002	13.559	6.3270001	-3.8540001
81	1	2	-0.135517	14.095	3.4530001	-3.6530001
82	1	2	-0.115001	14.103	4.0650001	-2.243
83	1	7	0.063808002	14.818	4.9130001	-2.194
84	1	7	0.063808002	13.102	4.4299998	-1.942
85	1	7	0.063808002	14.434	3.2980001	-1.511
86	1	7	0.099088997	15.158	3.303	-3.948
87	1	7	0.099088997	13.656	2.4330001	-3.6129999
88	1	4	-0.250222	11.086	5.3299999	-5.487
89	1	6	0.202711	11.601	5.8800001	-6.2620001
90	1	4	-0.014652	9.757	5.4460001	-5.3990002
91	1	6	0.213182	9.2340002	6.098	-6.0869999

Bonds

1	1	1	2
2	2	1	45
3	3	2	3
4	4	2	7
5	4	2	8
6	1	3	4
7	4	3	5
8	4	3	6
9	5	4	9
10	6	9	10
11	7	9	11
12	8	11	12
13	8	11	43
14	9	12	13
15	8	12	14
16	9	14	15
17	8	14	16
18	10	16	17
19	8	16	41
20	10	17	18
21	3	17	30
22	3	17	34
23	8	18	19
24	8	18	28
25	9	19	20
26	8	19	21
27	9	21	22
28	8	21	23
29	7	23	24
30	8	23	26
31	6	24	25
32	7	24	54
33	9	26	27
34	8	26	28
35	9	28	29
36	4	30	31
37	4	30	32
38	4	30	33
39	3	34	35
40	4	34	39
41	4	34	40
42	4	35	36
43	4	35	37
44	4	35	38
45	9	41	42
46	8	41	43
47	9	43	44
48	1	45	46
49	3	46	47
50	4	46	52
51	4	46	53
52	11	47	48
53	4	47	50
54	4	47	51
55	12	48	49
56	6	54	55
57	7	54	56
58	8	56	57
59	8	56	90
60	9	57	58
61	8	57	59
62	9	59	60
63	8	59	61
64	10	61	62
65	8	61	88
66	10	62	63
67	3	62	77
68	3	62	81
69	8	63	64
70	8	63	75
71	9	64	65
72	8	64	66
73	9	66	67
74	8	66	68
75	7	68	69
76	8	68	73
77	6	69	70
78	13	69	71
79	12	71	72
80	9	73	74
81	8	73	75
82	9	75	76
83	4	77	78
84	4	77	79
85	4	77	80
86	3	81	82
87	4	81	86
88	4	81	87
89	4	82	83
90	4	82	84
91	4	82	85
92	9	88	89
93	8	88	90
94	9	90	91

Angles

1	1	3	2	7
2	1	16	17	18
3	1	81	82	84
4	4	18	28	26
5	1	16	17	34
6	1	62	77	80
7	4	62	63	75
8	1	2	3	5
9	4	14	16	41
10	6	12	14	15
11	5	37	35	38
12	1	35	34	39
13	6	63	75	76
14	1	16	17	30
15	4	17	18	28
16	1	3	2	8
17	1	81	82	85
18	4	68	69	71
19	4	9	11	43
20	1	62	81	86
21	4	56	57	59
22	6	19	21	22
23	4	18	19	21
24	1	34	35	37
25	3	4	9	10
26	1	48	47	50
27	1	61	62	63
28	1	35	34	40
29	1	62	81	82
30	1	4	3	6
31	4	63	64	66
32	4	23	26	28
33	5	78	77	79
34	6	88	90	91
35	6	56	90	91
36	1	62	81	87
37	1	63	62	77
38	4	63	75	73
39	4	54	56	57
40	1	34	35	38
41	6	57	59	60
42	6	73	75	76
43	1	48	47	51
44	5	52	46	53
45	1	45	46	47
46	6	64	66	67
47	5	83	82	85
48	6	13	12	14
49	1	17	30	32
50	6	11	12	13
51	4	62	63	64
52	6	11	43	44
53	5	78	77	80
54	4	23	24	54
55	1	82	81	86
56	1	47	46	53
57	4	25	24	54
58	6	27	26	28
59	6	58	57	59
60	6	41	43	44
61	5	31	30	32
62	2	2	1	45
63	6	68	73	74
64	6	26	28	29
65	4	64	66	68
66	1	46	47	50
67	1	17	30	33
68	4	57	56	90
69	4	11	12	14
70	4	12	14	16
71	4	69	68	73
72	4	9	11	12
73	6	60	59	61
74	1	63	62	81
75	6	22	21	23
76	4	4	9	11
77	5	31	30	33
78	1	1	2	3
79	4	11	43	41
80	6	61	88	89
81	4	24	23	26
82	4	19	21	23
83	4	24	54	55
84	6	67	66	68
85	5	5	3	6
86	4	62	61	88
87	1	17	34	35
88	1	62	77	78
89	2	1	45	46
90	4	21	23	26
91	5	39	34	40
92	1	2	3	6
93	1	1	2	7
94	4	59	61	62
95	4	19	18	28
96	4	61	88	90
97	5	84	82	85
98	4	66	68	73
99	4	57	59	61
100	1	81	82	83
101	1	18	17	34
102	4	56	90	88
103	6	16	41	42
104	1	4	3	5
105	1	61	62	81
106	6	20	19	21
107	1	62	77	79
108	4	66	68	69
109	4	54	56	90
110	4	23	24	25
111	1	30	17	34
112	1	18	17	30
113	1	82	81	87
114	1	61	62	77
115	4	12	11	43
116	3	70	69	71
117	4	68	73	75
118	1	46	47	48
119	6	89	88	90
120	1	46	47	51
121	1	45	46	52
122	4	68	69	70
123	6	74	73	75
124	1	17	34	39
125	5	50	47	51
126	4	16	41	43
127	2	69	71	72
128	6	56	57	58
129	5	36	35	37
130	6	18	19	20
131	1	34	35	36
132	5	7	2	8
133	4	21	23	24
134	6	65	64	66
135	5	32	30	33
136	5	86	81	87
137	6	18	28	29
138	4	17	18	19
139	6	23	26	27
140	1	45	46	53
141	6	63	64	65
142	4	17	16	41
143	1	17	34	40
144	4	14	16	17
145	5	36	35	38
146	4	24	54	56
147	2	3	4	9
148	5	83	82	84
149	5	79	77	80
150	6	42	41	43
151	1	17	30	31
152	4	64	63	75
153	1	2	3	4
154	4	55	54	56
155	1	1	2	8
156	2	47	48	49
157	1	77	62	81
158	4	59	61	88
159	6	15	14	16
160	1	47	46	52
161	4	10	9	11

Dihedrals

1	16	18	17	30	33
2	14	56	57	59	60
3	14	42	41	43	44
4	14	11	43	41	42
5	17	33	30	17	34
6	16	63	62	81	87
7	13	5	3	2	7
8	14	56	90	88	89
9	14	59	61	88	90
10	14	62	63	75	76
11	14	20	19	21	23
12	13	84	82	81	87
13	14	22	21	23	24
14	14	57	59	61	88
15	14	11	12	14	15
16	14	17	18	19	21
17	14	62	63	64	65
18	14	15	14	16	17
19	13	37	35	34	39
20	5	3	2	1	45
21	14	9	11	12	14
22	16	18	17	34	39
23	12	23	24	54	56
24	16	16	17	30	31
25	12	21	23	24	54
26	5	7	2	1	45
27	12	10	9	11	43
28	24	68	69	71	72
29	3	4	3	2	8
29	4	4	3	2	8
30	14	63	64	66	67
31	14	16	41	43	44
32	14	67	66	68	73
33	16	18	17	34	35
34	13	38	35	34	40
35	14	11	12	14	16
36	12	25	24	54	56
37	17	17	34	35	37
38	14	62	63	64	66
39	15	30	17	16	41
40	17	30	17	34	40
41	13	36	35	34	40
42	3	1	2	3	5
42	4	1	2	3	5
43	13	37	35	34	40
44	14	74	73	75	76
45	15	18	17	16	41
46	5	5	3	4	9
47	14	62	63	75	73
48	14	66	64	63	75
49	15	64	63	62	81
50	16	16	17	30	32
51	1	45	46	47	48
51	2	45	46	47	48
52	3	45	46	47	51
52	4	45	46	47	51
53	13	50	47	46	52
54	14	62	61	88	89
55	5	1	45	46	52
56	6	2	1	45	46
57	14	12	11	43	44
58	14	18	19	21	22
59	16	63	62	77	79
60	15	64	63	62	77
61	17	17	34	35	38
62	14	64	63	75	73
63	9	3	4	9	10
63	10	3	4	9	10
64	16	61	62	77	79
65	14	9	11	43	44
66	14	65	64	63	75
67	13	85	82	81	86
68	14	19	18	28	29
69	14	66	68	73	74
70	14	54	56	90	91
71	14	57	56	90	91
72	14	64	66	68	69
73	14	15	14	16	41
74	15	16	17	18	19
75	15	59	61	62	81
76	11	3	4	9	11
77	14	27	26	28	29
78	17	62	81	82	85
79	13	50	47	46	53
80	14	18	19	21	23
81	16	63	62	77	80
82	14	60	59	61	62
83	14	11	43	41	16
84	23	49	48	47	50
85	14	14	12	11	43
86	14	56	57	59	61
87	15	59	61	62	77
88	14	13	12	11	43
89	15	61	62	63	75
90	14	19	21	23	26
91	16	61	62	77	80
92	13	85	82	81	87
93	14	66	68	73	75
94	17	79	77	62	81
95	13	5	3	2	8
96	14	69	68	73	74
97	14	9	11	43	41
98	12	10	9	11	12
99	12	4	9	11	43
100	14	19	18	28	26
101	12	24	54	56	57
102	3	1	2	3	6
102	4	1	2	3	6
103	12	55	54	56	57
104	14	20	19	18	28
105	14	54	56	90	88
106	16	18	17	34	40
107	12	21	23	24	25
108	16	61	62	81	86
109	14	17	18	28	29
110	14	14	16	41	42
111	3	48	47	46	52
111	4	48	47	46	52
112	21	46	47	48	49
112	22	46	47	48	49
113	14	64	66	68	73
114	14	63	64	66	68
115	14	12	14	16	17
116	14	22	21	23	26
117	16	61	62	81	82
118	16	18	17	30	31
119	14	24	23	26	27
120	12	26	23	24	54
121	14	89	88	90	91
122	17	77	62	81	86
123	13	51	47	46	52
124	15	16	17	18	28
125	25	70	69	71	72
125	26	70	69	71	72
126	15	34	17	16	41
127	14	65	64	66	67
128	16	16	17	30	33
129	3	48	47	46	53
129	4	48	47	46	53
130	17	62	81	82	83
131	14	62	61	88	90
132	14	58	57	59	60
133	5	1	45	46	53
134	18	77	62	81	82
134	19	77	62	81	82
134	20	77	62	81	82
135	12	25	24	54	55
136	14	54	56	57	58
137	12	55	54	56	90
138	14	63	75	73	74
139	15	81	62	61	88
140	15	14	16	17	34
141	16	18	17	30	32
142	14	17	18	28	26
143	14	19	21	23	24
144	15	28	18	17	34
145	15	61	62	63	64
146	16	63	62	81	86
147	17	77	62	81	87
148	14	57	59	61	62
149	12	66	68	69	70
150	16	16	17	34	39
151	14	12	11	43	41
152	13	83	82	81	86
153	17	80	77	62	81
154	14	12	14	16	41
155	17	32	30	17	34
156	15	14	16	17	30
157	12	71	69	68	73
158	14	13	12	14	15
159	15	75	63	62	81
160	15	28	18	17	30
161	16	63	62	81	82
162	14	54	56	57	59
163	16	16	17	34	35
164	14	57	56	90	88
165	23	49	48	47	51
166	14	60	59	61	88
167	14	58	57	56	90
168	12	4	9	11	12
169	15	75	63	62	77
170	5	1	45	46	47
171	12	66	68	69	71
172	3	4	3	2	7
172	4	4	3	2	7
173	16	16	17	34	40
174	12	70	69	68	73
175	14	18	28	26	27
176	13	38	35	34	39
177	13	83	82	81	87
178	14	21	19	18	28
179	14	69	68	73	75
180	7	2	3	4	9
180	8	2	3	4	9
181	17	17	34	35	36
182	13	6	3	2	7
183	14	13	12	14	16
184	17	30	17	34	39
185	13	36	35	34	39
186	1	1	2	3	4
186	2	1	2	3	4
187	15	59	61	62	63
188	15	63	62	61	88
189	16	61	62	81	87
190	14	18	28	26	23
191	14	59	57	56	90
192	14	64	63	75	76
193	14	14	16	41	43
194	14	21	23	26	27
195	3	45	46	47	50
195	4	45	46	47	50
196	15	19	18	17	34
197	15	14	16	17	18
198	18	30	17	34	35
198	19	30	17	34	35
198	20	30	17	34	35
199	12	24	54	56	90
200	16	63	62	77	78
201	14	17	16	41	42
202	14	68	73	75	76
203	12	25	24	23	26
204	17	31	30	17	34
205	14	24	23	26	28
206	13	6	3	2	8
207	16	61	62	77	78
208	14	56	90	88	61
209	17	78	77	62	81
210	15	19	18	17	30
211	14	23	26	28	29
212	13	51	47	46	53
213	5	8	2	1	45
214	14	59	61	88	89
215	14	20	19	21	22
216	14	65	64	66	68
217	13	84	82	81	86
218	14	67	66	68	69
219	14	63	75	73	68
220	14	21	23	26	28
221	14	61	88	90	91
222	14	17	18	19	20
223	17	62	81	82	84
224	15	77	62	61	88
225	14	58	57	59	61
226	5	6	3	4	9
227	14	9	11	12	13
228	14	17	16	41	43
229	12	23	24	54	55

Impropers

6	2	75	73	76	63
7	2	66	68	64	67
32	2	28	18	26	29
35	2	26	28	23	27
36	2	73	68	74	75
44	2	19	18	20	21
48	2	57	56	58	59
53	2	43	11	41	44
56	2	90	56	88	91
63	2	63	64	75	62
65	2	68	69	73	66
69	1	69	70	71	68
71	2	19	21	18	20
83	2	21	22	23	19
87	2	90	91	56	88
89	2	12	13	14	11
91	2	11	12	43	9
97	2	23	26	21	24
98	2	24	54	23	25
99	2	54	55	56	24
104	2	66	67	68	64
120	2	59	60	61	57
123	2	61	59	62	88
124	2	26	23	27	28
129	2	23	24	26	21
132	2	21	23	19	22
134	2	75	76	63	73
136	2	18	19	28	17
149	1	9	10	11	4
156	2	88	61	89	90
159	2	11	43	9	12
165	2	66	64	67	68
166	2	16	14	17	41
190	2	64	65	66	63
199	1	9	11	4	10
202	2	54	56	24	55
207	2	16	17	41	14
210	2	21	19	22	23
215	2	59	57	60	61
216	2	18	17	19	28
222	2	61	62	88	59
224	2	26	27	28	23
225	2	14	12	15	16
230	2	19	20	21	18
236	2	75	63	73	76
239	2	41	42	43	16
249	2	68	66	69	73
252	2	41	16	42	43
259	2	11	9	12	43
270	2	24	25	54	23
273	2	90	88	91	56
280	2	12	11	13	14
282	2	28	29	18	26
297	2	43	44	11	41
310	2	16	41	14	17
316	2	56	54	57	90
318	2	24	23	25	54
324	2	14	15	16	12
333	2	23	21	24	26
339	2	43	41	44	11
340	2	56	90	54	57
341	2	54	24	55	56
353	2	18	28	17	19
361	2	64	63	65	66
362	2	68	73	66	69
364	2	12	14	11	13
366	2	73	74	75	68
374	1	69	71	68	70
378	2	56	57	90	54
381	2	88	89	90	61
384	2	61	88	59	62
390	2	63	75	62	64
398	2	63	62	64	75
407	2	88	90	61	89
409	1	9	4	10	11
413	1	69	68	70	71
419	2	57	58	59	56
426	2	14	16	12	15
431	2	57	59	56	58
439	2	64	66	63	65
442	2	73	75	68	74
443	2	41	43	16	42
448	2	59	61	57	60
454	2	28	26	29	18
