Title

41 atoms
42 bonds
67 angles
105 dihedrals
36 impropers

8 atom types
13 bond types
7 angle types
24 dihedral types
2 improper types
-3.575202772 21.60566453 xlo xhi
-1.712544025 20.4014582 ylo yhi
-5.12432984 24.35792211 zlo zhi
0.0 0.0 0.0 xy xz yz

Masses

1	15.99943
2	12.01078
3	1.007947
4	12.01078
5	15.99943
6	1.007947
7	15.99943
8	1.007947


Pair Coeffs

1	0.16846514	3.0251065
2	0.10884061	3.3795318
3	0.016409246	2.5832257
4	0.086879315	3.4806469
5	0.2102061	3.0398122
6	0.015611343	2.5725815
7	0.20947353	2.99716
8	1.2326e-05	0.53453923

Bond Coeffs

1 harmonic	366.7408841747	1.425895053732
2 harmonic	300.03137914615	1.451203938761
3 harmonic	264.62148576755	1.52190126495
4 harmonic	370.04670688625	1.093899492634
5 harmonic	301.15400723785	1.345741232799
6 harmonic	582.698766451	1.225198386222
7 harmonic	279.1350963404	1.454628925034
8 harmonic	399.1592953295	1.371688562017
9 harmonic	369.34270398985	1.364116986116
10 harmonic	397.2545789619	1.085358495916
11 harmonic	329.96998057905	1.427343958716
12 harmonic	543.5267831885	0.9716763312559
13 harmonic	385.7604595587	1.369745182308


Angle Coeffs

1 harmonic	53.20531626545	116.5475862634
2 harmonic	65.09061609600001	110.3538806181
3 harmonic	201.41175231035	127.4691416191
4 harmonic	57.8982893754	126.8062420451
5 harmonic	48.776492647595	115.6030999533
6 harmonic	39.628116874445	129.8027304608
7 harmonic	79.1895422237	112.4630193006


Dihedral Coeffs

1 fourier 1	-0.0309670556842	3	0
2 fourier 1	0.4598191477945	2	0
3 fourier 1	0.1115525666802	3	0
4 fourier 1	0.3432490222662	1	0
5 fourier 1	0.0473758381877	3	0
6 fourier 1	0.457973137376	1	0
7 fourier 1	0.1918272375143	3	0
8 fourier 1	0.9202179876409	1	180
9 fourier 1	1.163809172478	2	180
10 fourier 1	0.1679186987369	1	180
11 fourier 1	2.779853741805	2	180
12 fourier 1	0.9974165607242	2	180
13 fourier 1	0.1911926717192	3	0
14 fourier 1	5.294842998052	2	180
15 fourier 1	1.659715194912	2	180
16 fourier 1	0.2347635637734	2	180
17 fourier 1	0.4747469131102	3	0
18 fourier 1	1.163235555439	2	180
19 fourier 1	0.3445382149273	3	0
20 fourier 1	0.1364556373303	1	0
21 fourier 1	0.3026390167484	3	0
22 fourier 1	2.687457892086	2	180
23 fourier 1	2.772607909663	2	180
24 fourier 1	0.09692684957115	1	0


Improper Coeffs

1 3.5	-1	2
2 0.3666666666666667	-1	2


Atoms

1	4	1	-0.14957766	-2.3054252	1.0448471	-1.3650704
2	4	2	0.047071112	-1.8355694	0.20375755	-2.3827093
3	4	2	0.15522396	-1.2373618	1.0302564	-3.5206348
4	4	1	-0.49365366	-0.82960378	0.1925702	-4.5672786
5	4	3	0.079880519	-2.0058475	1.7322198	-3.9065247
6	4	3	0.079880519	-0.37653166	1.6315695	-3.1472196
7	4	3	0.089311739	-2.6885159	-0.39210427	-2.772191
8	4	3	0.089311739	-1.0757434	-0.50507015	-1.9801193
9	5	4	0.67321735	0.058820768	-0.25020071	-4.2645746
10	5	5	-0.52914965	0.82274051	-0.7615856	-5.1243298
11	5	4	0.25434705	0.42447064	-0.27912045	-2.847521
12	5	4	-0.28331706	-0.30215995	0.22777361	-1.8605755
13	5	6	0.17919187	-1.2562281	0.72883	-1.9558773
14	5	4	-0.29631436	0.43841787	-0.026006733	-0.62781721
15	5	6	0.16397935	0.14466577	0.24999613	0.37755293
16	5	4	0.30692455	1.5471394	-0.66333206	-0.97683306
17	5	4	0.43726399	2.5884175	-1.1149985	-0.052239415
18	5	5	-0.52681267	3.6056645	-1.712544	-0.48928367
19	5	1	-0.22146569	1.5890318	-0.84791411	-2.3519314
20	1	1	-0.14384066	-1.5065457	1.3594023	-0.86577832
21	1	2	0.020600075	-1.5192153	0.69624007	0.36865853
22	1	2	0.092604546	-2.5590364	1.3223013	1.2977518
23	1	7	-0.68250859	-2.5242118	0.70335942	2.5548128
24	1	8	0.38930434	-2.979082	-0.17380019	2.451696
25	1	3	0.086235797	-2.3308039	2.4014582	1.4269733
26	1	3	0.086235797	-3.5752028	1.2353677	0.85054433
27	1	3	0.089986754	-0.51338884	0.78865063	0.83119868
28	1	3	0.089986754	-1.7343567	-0.38745159	0.22484063
29	2	4	0.43726399	2.4893129	-0.93642882	1.0105424
30	2	5	-0.52681279	3.4844316	-1.100493	1.7639658
31	2	4	0.30692446	1.206539	-0.50659955	1.5706628
32	2	4	-0.29631442	0.097701806	-0.30290517	0.87366234
33	2	6	0.16397935	-0.021198784	-0.4230644	-0.19486254
34	2	4	-0.28690011	-0.92391345	0.1112522	1.8307255
35	2	6	0.17919192	-1.9541871	0.36158894	1.6117169
36	2	4	0.26521435	-0.34360868	0.12295008	3.0251842
37	2	4	0.71868908	-0.99136022	0.47998332	4.2922115
38	2	5	-0.51931882	-2.2066798	0.81507078	4.3180709
39	2	7	-0.69772667	-0.25575649	0.44738615	5.4723461
40	2	8	0.3968274	-0.68358229	0.68951253	6.3579221
41	2	1	-0.22493555	0.98775982	-0.25502175	2.9179825

Bonds

1	1	1	2
2	2	1	20
3	3	2	3
4	4	2	7
5	4	2	8
6	1	3	4
7	4	3	5
8	4	3	6
9	5	4	9
10	6	9	10
11	7	9	11
12	8	11	12
13	9	11	19
14	10	12	13
15	7	12	14
16	10	14	15
17	8	14	16
18	7	16	17
19	9	16	19
20	6	17	18
21	7	17	29
22	1	20	21
23	3	21	22
24	4	21	27
25	4	21	28
26	11	22	23
27	4	22	25
28	4	22	26
29	12	23	24
30	6	29	30
31	7	29	31
32	8	31	32
33	9	31	41
34	10	32	33
35	7	32	34
36	10	34	35
37	8	34	36
38	7	36	37
39	9	36	41
40	6	37	38
41	13	37	39
42	12	39	40

Angles

1	6	31	32	33
2	1	23	22	25
3	1	20	21	27
4	6	29	31	32
5	4	16	17	18
6	1	21	22	23
7	6	37	36	41
8	1	2	3	5
9	2	3	4	9
10	1	3	2	8
11	6	11	12	13
12	4	12	14	16
13	4	17	29	30
14	1	21	22	25
15	4	18	17	29
16	6	34	36	37
17	1	2	3	4
18	1	20	21	22
19	6	14	16	17
20	1	2	3	6
21	1	4	3	5
22	4	36	37	38
23	6	33	32	34
24	1	3	2	7
25	2	37	39	40
26	4	12	11	19
27	1	22	21	27
28	6	32	34	35
29	4	4	9	11
30	4	32	31	41
31	4	17	29	31
32	4	14	16	19
33	4	11	12	14
34	1	4	3	6
35	5	7	2	8
36	7	11	19	16
37	1	1	2	8
38	6	35	34	36
39	2	1	20	21
40	3	4	9	10
41	4	10	9	11
42	4	32	34	36
43	7	31	41	36
44	3	38	37	39
45	6	13	12	14
46	1	21	22	26
47	5	5	3	6
48	6	9	11	12
49	2	2	1	20
50	1	23	22	26
51	4	34	36	41
52	4	36	37	39
53	1	1	2	7
54	1	1	2	3
55	1	22	21	28
56	4	30	29	31
57	6	17	16	19
58	1	20	21	28
59	5	27	21	28
60	6	29	31	41
61	2	22	23	24
62	4	16	17	29
63	5	25	22	26
64	4	31	32	34
65	6	12	14	15
66	6	15	14	16
67	6	9	11	19

Dihedrals

1	12	30	29	31	41
2	5	1	20	21	22
3	12	39	37	36	41
4	11	3	4	9	11
5	16	10	9	11	12
5	17	10	9	11	12
6	3	20	21	22	26
6	4	20	21	22	26
7	18	33	32	34	35
8	5	6	3	4	9
9	14	34	32	31	41
10	12	38	37	36	41
11	18	33	32	34	36
12	18	31	32	34	35
13	18	13	12	14	15
14	21	24	23	22	25
15	15	11	19	16	14
16	14	15	14	16	17
17	22	36	37	39	40
18	12	14	16	17	29
19	13	26	22	21	27
20	13	5	3	2	8
21	7	2	3	4	9
21	8	2	3	4	9
22	13	25	22	21	27
23	12	4	9	11	12
24	16	14	16	17	18
24	17	14	16	17	18
25	15	32	31	41	36
26	3	23	22	21	27
26	4	23	22	21	27
27	14	13	12	11	19
28	14	9	11	12	14
29	12	10	9	11	19
30	3	1	2	3	5
30	4	1	2	3	5
31	14	35	34	36	41
32	15	11	19	16	17
33	1	20	21	22	23
33	2	20	21	22	23
34	1	1	2	3	4
34	2	1	2	3	4
35	14	9	11	12	13
36	3	1	2	3	6
36	4	1	2	3	6
37	14	14	12	11	19
38	14	35	34	36	37
39	16	34	36	37	38
39	17	34	36	37	38
40	18	11	12	14	16
41	5	7	2	1	20
42	12	4	9	11	19
43	21	24	23	22	26
44	9	3	4	9	10
44	10	3	4	9	10
45	13	6	3	2	7
46	12	18	17	29	30
47	23	38	37	39	40
47	24	38	37	39	40
48	14	33	32	31	41
49	12	16	17	29	30
50	6	2	1	20	21
51	3	4	3	2	7
51	4	4	3	2	7
52	15	12	11	19	16
53	18	13	12	14	16
54	5	1	20	21	28
55	14	29	31	32	34
56	5	5	3	4	9
57	12	16	17	29	31
58	5	1	20	21	27
59	5	3	2	1	20
60	14	29	31	32	33
61	14	32	34	36	37
62	14	12	14	16	19
63	12	18	17	16	19
64	19	21	22	23	24
64	20	21	22	23	24
65	13	6	3	2	8
66	15	9	11	19	16
67	16	30	29	31	32
67	17	30	29	31	32
68	5	8	2	1	20
69	3	4	3	2	8
69	4	4	3	2	8
70	15	31	41	36	34
71	12	34	36	37	39
72	3	20	21	22	25
72	4	20	21	22	25
73	18	31	32	34	36
74	15	29	31	41	36
75	13	26	22	21	28
76	14	32	34	36	41
77	13	25	22	21	28
78	12	17	29	31	41
79	14	15	14	16	19
80	15	31	41	36	37
81	12	18	17	29	31
82	12	19	16	17	29
83	18	11	12	14	15
84	3	23	22	21	28
84	4	23	22	21	28
85	12	17	29	31	32
86	14	12	14	16	17
87	13	5	3	2	7

Impropers

1	1	9	10	11	4
4	2	34	36	32	35
15	2	32	31	33	34
21	2	31	41	29	32
24	2	17	29	16	18
29	2	36	34	37	41
31	1	37	36	38	39
37	2	16	17	19	14
38	2	12	11	13	14
41	2	29	30	31	17
43	2	14	12	15	16
48	2	12	14	11	13
53	1	37	39	36	38
67	2	36	37	41	34
73	2	34	35	36	32
84	2	36	41	34	37
89	2	34	32	35	36
91	2	11	12	19	9
94	2	31	32	41	29
95	2	17	18	29	16
98	2	16	19	14	17
101	2	11	9	12	19
104	2	14	15	16	12
116	2	31	29	32	41
120	2	14	16	12	15
121	2	17	16	18	29
124	1	37	38	39	36
130	2	32	33	34	31
132	2	29	31	17	30
138	2	11	19	9	12
146	2	32	34	31	33
149	1	9	11	4	10
150	2	16	14	17	19
152	1	9	4	10	11
159	2	12	13	14	11
167	2	29	17	30	31
