Title

129 atoms
128 bonds
245 angles
431 dihedrals
12 impropers

8 atom types
11 bond types
5 angle types
27 dihedral types
2 improper types
-19.92200089 80.07799911 xlo xhi
-1.297000051 98.70299995 ylo yhi
-8.510000229 91.48999977 zlo zhi
0.0 0.0 0.0 xy xz yz

Masses

1	15.99943
2	12.01078
3	1.007947
4	1.007947
5	12.01078
6	15.99943
7	15.99943
8	1.007947


Pair Coeffs

1	0.16846514	3.0251065
2	0.10884061	3.3795318
3	0.016409246	2.5832257
4	0.015779483	2.6445434
5	0.086879315	3.4806469
6	0.2102061	3.0398122
7	0.20947353	2.99716
8	1.2326e-05	0.53453923

Bond Coeffs

1 harmonic	366.7408841747	1.425895053732
2 harmonic	300.03137914615	1.451203938761
3 harmonic	264.62148576755	1.52190126495
4 harmonic	370.04670688625	1.093899492634
5 harmonic	301.15400723785	1.345741232799
6 harmonic	582.698766451	1.225198386222
7 harmonic	329.44145381095	1.523435958334
8 harmonic	279.1350963404	1.454628925034
9 harmonic	329.96998057905	1.427343958716
10 harmonic	543.5267831885	0.9716763312559
11 harmonic	385.7604595587	1.369745182308


Angle Coeffs

1 harmonic	53.20531626545	116.5475862634
2 harmonic	65.09061609600001	110.3538806181
3 harmonic	201.41175231035	127.4691416191
4 harmonic	57.8982893754	126.8062420451
5 harmonic	48.776492647595	115.6030999533


Dihedral Coeffs

1 fourier 1	0.1155372516788	3	0
2 fourier 1	0.1115525666802	3	0
3 fourier 1	0.3432490222662	1	0
4 fourier 1	0.0473758381877	3	0
5 fourier 1	0.457973137376	1	0
6 fourier 1	0.1040663847541	3	0
7 fourier 1	0.1918272375143	3	0
8 fourier 1	0.9202179876409	1	180
9 fourier 1	1.163809172478	2	180
10 fourier 1	0.1679186987369	1	180
11 fourier 1	2.779853741805	2	180
12 fourier 1	0.02664938770063	3	0
13 fourier 1	0.1911926717192	3	0
14 fourier 1	-0.3703352413219	2	0
15 fourier 1	0.4541676554336	1	0
16 fourier 1	0.1489710476446	2	0
17 fourier 1	0.02960027280666	3	180
18 fourier 1	0.09223874044423	3	0
19 fourier 1	0.3159935921949	2	180
20 fourier 1	0.3247796806857	1	180
21 fourier 1	0.9974165607242	2	180
22 fourier 1	0.3445382149273	3	0
23 fourier 1	0.1364556373303	1	0
24 fourier 1	0.3026390167484	3	0
25 fourier 1	2.687457892086	2	180
26 fourier 1	2.772607909663	2	180
27 fourier 1	0.09692684957115	1	0


Improper Coeffs

1 3.5	-1	2
2 0.3666666666666667	-1	2


Atoms

1	1	1	-0.18686	-1.834	0.66500002	-0.51800001
2	1	2	0.038697999	-1.288	-0.54500002	-0.064999998
3	1	2	-0.137413	0.113	-0.331	0.51700002
4	1	2	0.143718	1.099	0.17299999	-0.54100001
5	1	1	-0.49729699	2.3800001	0.29899999	0.012
6	1	3	0.074413002	0.76099998	1.15	-0.95499998
7	1	3	0.074413002	1.149	-0.55599999	-1.378
8	1	4	0.087517001	0.48199999	-1.2970001	0.926
9	1	4	0.087517001	0.057	0.39899999	1.354
10	1	3	0.076398	-1.949	-0.99699998	0.70999998
11	1	3	0.076398	-1.2359999	-1.258	-0.91600001
12	1	5	0.75929701	2.3710001	1.163	0.58899999
13	1	6	-0.567505	1.571	1.268	1.505
14	1	2	-0.210039	3.349	2.2650001	0.30199999
15	1	2	-0.11675	2.6489999	3.556	-0.14300001
16	1	2	-0.137418	1.972	3.4059999	-1.513
17	1	2	-0.142757	1.323	4.723	-1.954
18	1	2	-0.142858	0.63200003	4.566	-3.3169999
19	1	2	-0.142858	0.089000002	5.8959999	-3.865
20	1	2	-0.142858	-1.145	6.3940001	-3.0929999
21	1	2	-0.142858	-1.732	7.684	-3.6889999
22	1	2	-0.142858	-2.5969999	7.4169998	-4.9330001
23	1	2	-0.142858	-3.076	8.71	-5.619
24	1	2	-0.142858	-3.9649999	9.6210003	-4.7519999
25	1	2	-0.142858	-5.2729998	8.941	-4.3150001
26	1	2	-0.142757	-6.2150002	9.8909998	-3.556
27	1	2	-0.14006899	-6.8390002	11.012	-4.4120002
28	1	2	-0.098384	-7.7589998	10.496	-5.5409999
29	1	2	-0.25892699	-7.1009998	10.546	-6.9289999
30	1	5	0.51491398	-6.9250002	11.954	-7.4229999
31	1	6	-0.705733	-6.4099998	12.157	-8.5100002
32	1	4	0.110983	-7.7490001	10.002	-7.6490002
33	1	4	0.110983	-6.1149998	10.04	-6.9120002
34	1	4	0.073864996	-8.085	9.4540005	-5.3309999
35	1	4	0.073864996	-8.6870003	11.11	-5.566
36	1	4	0.075515002	-7.4559999	11.634	-3.7279999
37	1	4	0.075515002	-6.0510001	11.689	-4.8010001
38	1	4	0.077381998	-7.0359998	9.29	-3.1070001
39	1	4	0.077381998	-5.6589999	10.354	-2.7119999
40	1	4	0.077381998	-5.7940001	8.4949999	-5.1880002
41	1	4	0.077381998	-5.027	8.1079998	-3.6229999
42	1	4	0.077381998	-3.404	9.9750004	-3.862
43	1	4	0.077381998	-4.198	10.518	-5.3629999
44	1	4	0.077381998	-2.187	9.2919998	-5.9460001
45	1	4	0.077381998	-3.638	8.434	-6.5380001
46	1	4	0.077381998	-3.4649999	6.7789998	-4.664
47	1	4	0.077381998	-2.0050001	6.8509998	-5.6820002
48	1	4	0.077381998	-2.3659999	8.1540003	-2.908
49	1	4	0.077381998	-0.91299999	8.3950005	-3.9349999
50	1	4	0.077381998	-0.84899998	6.6139998	-2.0450001
51	1	4	0.077381998	-1.926	5.6020002	-3.063
52	1	4	0.077381998	-0.18099999	5.7329998	-4.9289999
53	1	4	0.077381998	0.889	6.6680002	-3.8380001
54	1	4	0.077381998	-0.19400001	3.825	-3.24
55	1	4	0.077381998	1.3710001	4.171	-4.0489998
56	1	4	0.077381998	0.57700002	5.0279999	-1.189
57	1	4	0.077381998	2.1040001	5.5110002	-2.023
58	1	4	0.075515002	1.191	2.6159999	-1.4579999
59	1	4	0.075515002	2.7309999	3.099	-2.266
60	1	4	0.082589999	1.898	3.858	0.62099999
61	1	4	0.082589999	3.4130001	4.362	-0.20299999
62	1	4	0.113884	3.937	2.4679999	1.223
63	1	4	0.113884	4.0599999	1.933	-0.48500001
64	1	1	-0.186149	-2.105	1.174	0.28999999
65	1	2	0.047107998	-1.397	2.3840001	0.25799999
66	1	2	-0.172668	0.071999997	2.1700001	0.639
67	1	2	0.093883999	0.22	1.666	2.0780001
68	1	7	-0.68798101	1.576	1.54	2.4100001
69	1	8	0.374156	1.901	0.71399999	1.965
70	1	3	0.068061002	-0.29899999	0.68800002	2.2049999
71	1	3	0.068061002	-0.24600001	2.395	2.776
72	1	4	0.091278002	0.61299998	3.135	0.53500003
73	1	4	0.091278002	0.53299999	1.4400001	-0.061999999
74	1	3	0.076232001	-1.456	2.836	-0.75800002
75	1	3	0.076232001	-1.868	3.0969999	0.96799999
76	1	5	0.51491398	-7.2490001	12.799	-6.8239999
77	1	6	-0.705733	-6.882	12.892	-5.664
78	1	2	-0.25892699	-8.1409998	13.844	-7.428
79	1	2	-0.098384	-9.4910002	13.941	-6.7069998
80	1	2	-0.14006899	-10.33	12.664	-6.8699999
81	1	2	-0.142757	-11.698	12.812	-6.184
82	1	2	-0.142858	-12.623	11.607	-6.4289999
83	1	2	-0.142858	-12.101	10.258	-5.8920002
84	1	2	-0.142858	-11.764	10.238	-4.3889999
85	1	2	-0.142858	-12.997	10.481	-3.5020001
86	1	2	-0.142858	-12.67	10.379	-2.0009999
87	1	2	-0.142858	-12.529	8.9259996	-1.494
88	1	2	-0.142858	-13.779	8.3990002	-0.76800001
89	1	2	-0.142858	-14.98	8.21	-1.7079999
90	1	2	-0.142757	-16.173	7.5320001	-1.012
91	1	2	-0.137418	-15.96	6.02	-0.81699997
92	1	2	-0.114218	-17.231001	5.3010001	-0.33700001
93	1	2	-0.22013301	-17.598	5.6539998	1.113
94	1	5	0.82115102	-18.739	4.8099999	1.584
95	1	6	-0.56956702	-19.922001	5.2259998	1.476
96	1	7	-0.66825801	-18.493	3.5450001	2.1059999
97	1	8	0.39031601	-19.254	2.9530001	2.4170001
98	1	4	0.114887	-16.725	5.4790001	1.779
99	1	4	0.114887	-17.884001	6.7249999	1.188
100	1	4	0.082589999	-18.083	5.5430002	-1.011
101	1	4	0.082589999	-17.049	4.2059999	-0.405
102	1	4	0.075515002	-15.141	5.8330002	-0.090999998
103	1	4	0.075515002	-15.66	5.5710001	-1.788
104	1	4	0.077381998	-16.360001	8.0270004	-0.035
105	1	4	0.077381998	-17.073999	7.6880002	-1.645
106	1	4	0.077381998	-14.682	7.6230001	-2.605
107	1	4	0.077381998	-15.318	9.21	-2.052
108	1	4	0.077381998	-13.509	7.427	-0.30700001
109	1	4	0.077381998	-14.055	9.0930004	0.056000002
110	1	4	0.077381998	-11.69	8.901	-0.764
111	1	4	0.077381998	-12.251	8.2259998	-2.312
112	1	4	0.077381998	-13.458	10.909	-1.423
113	1	4	0.077381998	-11.724	10.93	-1.801
114	1	4	0.077381998	-13.801	9.7650003	-3.773
115	1	4	0.077381998	-13.379	11.506	-3.6900001
116	1	4	0.077381998	-10.972	10.982	-4.1599998
117	1	4	0.077381998	-11.335	9.2390003	-4.158
118	1	4	0.077381998	-12.87	9.4799995	-6.0960002
119	1	4	0.077381998	-11.199	9.9580002	-6.4650002
120	1	4	0.077381998	-12.792	11.503	-7.5229998
121	1	4	0.077381998	-13.616	11.822	-5.9819999
122	1	4	0.077381998	-11.564	12.981	-5.0949998
123	1	4	0.077381998	-12.206	13.715	-6.5890002
124	1	4	0.075515002	-10.48	12.459	-7.9520001
125	1	4	0.075515002	-9.7819996	11.812	-6.4169998
126	1	4	0.073864996	-10.05	14.801	-7.1370001
127	1	4	0.073864996	-9.323	14.15	-5.6269999
128	1	4	0.110983	-7.625	14.829	-7.3720002
129	1	4	0.110983	-8.3079996	13.611	-8.5030003

Bonds

1	1	1	2
2	2	1	64
3	3	2	3
4	4	2	10
5	4	2	11
6	3	3	4
7	4	3	8
8	4	3	9
9	1	4	5
10	4	4	6
11	4	4	7
12	5	5	12
13	6	12	13
14	7	12	14
15	3	14	15
16	4	14	62
17	4	14	63
18	3	15	16
19	4	15	60
20	4	15	61
21	3	16	17
22	4	16	58
23	4	16	59
24	3	17	18
25	4	17	56
26	4	17	57
27	3	18	19
28	4	18	54
29	4	18	55
30	3	19	20
31	4	19	52
32	4	19	53
33	3	20	21
34	4	20	50
35	4	20	51
36	3	21	22
37	4	21	48
38	4	21	49
39	3	22	23
40	4	22	46
41	4	22	47
42	3	23	24
43	4	23	44
44	4	23	45
45	3	24	25
46	4	24	42
47	4	24	43
48	3	25	26
49	4	25	40
50	4	25	41
51	3	26	27
52	4	26	38
53	4	26	39
54	3	27	28
55	4	27	36
56	4	27	37
57	3	28	29
58	4	28	34
59	4	28	35
60	7	29	30
61	4	29	32
62	4	29	33
63	6	30	31
64	8	30	76
65	1	64	65
66	3	65	66
67	4	65	74
68	4	65	75
69	3	66	67
70	4	66	72
71	4	66	73
72	9	67	68
73	4	67	70
74	4	67	71
75	10	68	69
76	6	76	77
77	7	76	78
78	3	78	79
79	4	78	128
80	4	78	129
81	3	79	80
82	4	79	126
83	4	79	127
84	3	80	81
85	4	80	124
86	4	80	125
87	3	81	82
88	4	81	122
89	4	81	123
90	3	82	83
91	4	82	120
92	4	82	121
93	3	83	84
94	4	83	118
95	4	83	119
96	3	84	85
97	4	84	116
98	4	84	117
99	3	85	86
100	4	85	114
101	4	85	115
102	3	86	87
103	4	86	112
104	4	86	113
105	3	87	88
106	4	87	110
107	4	87	111
108	3	88	89
109	4	88	108
110	4	88	109
111	3	89	90
112	4	89	106
113	4	89	107
114	3	90	91
115	4	90	104
116	4	90	105
117	3	91	92
118	4	91	102
119	4	91	103
120	3	92	93
121	4	92	100
122	4	92	101
123	7	93	94
124	4	93	98
125	4	93	99
126	6	94	95
127	11	94	96
128	10	96	97

Angles

1	1	28	27	37
2	5	108	88	109
3	1	26	25	41
4	5	114	85	115
5	1	79	80	81
6	1	82	83	84
7	1	3	2	11
8	1	66	67	71
9	5	110	87	111
10	1	78	79	126
11	1	3	4	5
12	1	86	85	114
13	1	91	92	93
14	1	19	20	21
15	4	93	94	95
16	4	29	30	76
17	1	20	21	48
18	1	86	87	88
19	1	65	66	73
20	1	20	19	52
21	1	87	86	113
22	1	76	78	128
23	5	42	24	43
24	1	92	91	103
25	5	56	17	57
26	1	84	83	119
27	5	74	65	75
28	1	78	79	127
29	1	14	15	16
30	1	21	20	50
31	5	62	14	63
32	4	93	94	96
33	1	83	84	85
34	5	44	23	45
35	1	89	88	109
36	1	18	19	20
37	1	79	78	128
38	1	90	91	102
39	1	64	65	75
40	5	116	84	117
41	1	28	29	30
42	1	81	80	124
43	5	126	79	127
44	1	20	19	53
45	2	67	68	69
46	1	16	17	56
47	1	16	17	18
48	1	83	84	117
49	1	15	16	59
50	1	18	19	52
51	2	2	1	64
52	1	85	84	117
53	1	23	24	25
54	4	31	30	76
55	1	23	22	47
56	1	25	24	42
57	1	80	81	123
58	5	98	93	99
59	1	1	2	11
60	1	24	25	26
61	1	17	18	54
62	1	27	28	29
63	1	78	79	80
64	1	80	79	126
65	5	120	82	121
66	1	79	78	129
67	1	25	26	38
68	1	89	90	91
69	1	92	93	94
70	1	16	17	57
71	1	79	80	125
72	1	66	65	74
73	5	34	28	35
74	1	85	86	87
75	1	5	4	6
76	1	15	14	62
77	1	17	18	19
78	1	1	2	3
79	1	2	3	4
80	1	67	66	73
81	1	80	79	127
82	2	1	64	65
83	5	102	91	103
84	1	25	26	39
85	1	81	82	83
86	1	84	85	86
87	1	86	85	115
88	4	13	12	14
89	1	88	87	110
90	5	70	67	71
91	1	88	89	90
92	5	128	78	129
93	1	93	92	100
94	1	18	17	56
95	1	66	67	68
96	1	26	27	28
97	1	16	15	60
98	1	88	89	106
99	1	20	21	49
100	1	5	4	7
101	1	15	14	63
102	2	4	5	12
103	1	76	78	129
104	5	106	89	107
105	1	2	3	8
106	1	30	29	32
107	1	87	88	108
108	5	100	92	101
109	1	82	81	122
110	1	64	65	66
111	1	89	90	104
112	5	36	27	37
113	1	21	20	51
114	1	92	93	98
115	1	65	66	67
116	1	88	87	111
117	1	27	26	38
118	4	77	76	78
119	5	58	16	59
120	1	84	85	114
121	5	50	20	51
122	1	19	20	50
123	1	68	67	70
124	1	82	83	118
125	1	22	23	44
126	1	93	92	101
127	1	15	16	17
128	1	18	17	57
129	1	90	91	103
130	1	12	14	62
131	1	14	15	60
132	1	22	21	48
133	1	81	80	125
134	1	88	89	107
135	1	27	28	34
136	1	22	23	24
137	1	12	14	15
138	1	25	26	27
139	1	3	4	6
140	1	18	19	53
141	1	83	82	120
142	1	30	29	33
143	1	87	88	109
144	1	26	27	36
145	5	40	25	41
146	2	94	96	97
147	1	25	24	43
148	1	28	27	36
149	1	85	86	112
150	1	92	93	99
151	1	17	18	55
152	1	26	25	40
153	1	27	26	39
154	5	6	4	7
155	1	23	24	42
156	1	84	85	115
157	1	87	88	89
158	1	68	67	71
159	5	104	90	105
160	1	22	23	45
161	5	118	83	119
162	4	29	30	31
163	1	12	14	63
164	1	14	15	61
165	1	22	21	49
166	1	28	29	32
167	1	27	28	35
168	5	46	22	47
169	1	21	22	46
170	1	90	89	106
171	4	30	76	77
172	1	66	65	75
173	1	26	27	37
174	1	20	21	22
175	1	3	2	10
176	3	95	94	96
177	1	85	86	113
178	1	23	24	43
179	1	87	86	112
180	1	76	78	79
181	1	94	93	98
182	1	19	18	54
183	5	38	26	39
184	1	28	29	33
185	1	92	91	102
186	1	4	3	8
187	1	17	16	58
188	5	112	86	113
189	1	84	83	118
190	1	24	23	44
191	5	60	15	61
192	5	52	19	53
193	1	81	82	120
194	3	5	12	13
195	1	91	90	104
196	1	21	22	47
197	5	122	81	123
198	1	90	89	107
199	1	89	88	108
200	1	29	28	34
201	5	124	80	125
202	1	86	87	110
203	4	30	76	78
204	1	24	25	40
205	1	64	65	74
206	1	16	15	61
207	1	91	92	100
208	1	65	66	72
209	1	90	91	92
210	5	10	2	11
211	5	72	66	73
212	1	67	66	72
213	1	83	84	116
214	1	2	3	9
215	1	15	16	58
216	1	94	93	99
217	1	19	18	55
218	1	82	81	123
219	1	85	84	116
220	1	4	3	9
221	1	17	16	59
222	5	32	29	33
223	1	21	22	23
224	1	24	23	45
225	5	8	3	9
226	1	23	22	46
227	1	80	81	122
228	1	81	82	121
229	4	5	12	14
230	5	54	18	55
231	1	91	90	105
232	1	19	20	51
233	1	29	28	35
234	5	48	21	49
235	1	82	83	119
236	1	86	87	111
237	1	24	25	41
238	1	66	67	70
239	1	91	92	101
240	1	80	81	82
241	1	1	2	10
242	1	3	4	7
243	1	79	80	124
244	1	83	82	121
245	1	89	90	105

Dihedrals

1	13	120	82	81	123
2	6	85	84	83	119
3	13	34	28	27	36
4	6	29	28	27	36
5	6	16	15	14	63
6	13	71	67	66	73
7	6	17	16	15	61
8	4	1	64	65	74
9	13	99	93	92	100
10	6	86	87	88	109
11	13	48	21	20	50
12	6	65	66	67	71
13	18	86	87	88	89
13	19	86	87	88	89
13	20	86	87	88	89
14	18	22	23	24	25
14	19	22	23	24	25
14	20	22	23	24	25
15	6	87	88	89	106
16	12	28	29	30	76
17	18	18	19	20	21
17	19	18	19	20	21
17	20	18	19	20	21
18	15	95	94	93	99
18	16	95	94	93	99
18	17	95	94	93	99
19	6	82	81	80	124
20	18	85	86	87	88
20	19	85	86	87	88
20	20	85	86	87	88
21	13	117	84	83	118
22	6	27	28	29	32
23	13	38	26	25	40
24	6	79	80	81	122
25	6	24	25	26	38
26	13	111	87	86	112
27	13	123	81	80	124
28	1	94	93	92	101
29	13	44	23	22	47
30	13	110	87	86	112
31	6	18	17	16	58
32	18	81	82	83	84
32	19	81	82	83	84
32	20	81	82	83	84
33	13	118	83	82	120
34	18	79	80	81	82
34	19	79	80	81	82
34	20	79	80	81	82
35	6	19	18	17	56
36	6	89	88	87	111
37	6	86	85	84	117
38	6	20	21	22	46
39	18	78	79	80	81
39	19	78	79	80	81
39	20	78	79	80	81
40	13	70	67	66	73
41	13	47	22	21	49
42	13	61	15	14	63
43	13	60	15	14	63
44	6	87	86	85	114
45	13	8	3	2	11
46	1	76	78	79	127
47	13	126	79	78	129
48	13	50	20	19	52
49	13	103	91	90	105
50	13	6	4	3	8
51	14	28	29	30	31
52	6	89	90	91	103
53	6	80	81	82	121
54	21	29	30	76	77
55	6	25	26	27	36
56	1	76	78	79	80
57	6	91	90	89	106
58	13	71	67	66	72
59	12	5	12	14	63
60	13	120	82	81	122
61	6	85	84	83	118
62	13	109	88	87	111
63	6	78	79	80	125
64	4	6	4	5	12
65	6	92	91	90	105
66	13	9	3	2	10
67	6	16	15	14	62
68	13	32	29	28	35
69	13	35	28	27	36
70	6	17	16	15	60
71	6	2	3	4	7
72	6	14	15	16	59
73	6	65	66	67	70
74	14	77	76	78	79
75	15	95	94	93	98
75	16	95	94	93	98
75	17	95	94	93	98
76	13	70	67	66	72
77	13	49	21	20	50
78	6	83	84	85	115
79	13	98	93	92	101
80	11	4	5	12	14
81	1	94	93	92	100
82	6	83	82	81	122
83	12	30	76	78	128
84	13	7	4	3	9
85	6	23	22	21	48
86	13	116	84	83	119
87	6	86	85	84	116
88	7	3	4	5	12
88	8	3	4	5	12
89	6	28	27	26	38
90	6	18	19	20	51
91	13	60	15	14	62
92	22	66	67	68	69
92	23	66	67	68	69
93	13	113	86	85	115
94	6	84	85	86	112
95	13	112	86	85	115
96	18	15	16	17	18
96	19	15	16	17	18
96	20	15	16	17	18
97	13	42	24	23	45
98	13	108	88	87	110
99	13	103	91	90	104
100	13	36	27	26	39
101	13	102	91	90	104
102	6	89	90	91	102
103	2	1	2	3	9
103	3	1	2	3	9
104	13	51	20	19	53
105	13	125	80	79	126
106	13	106	89	88	109
107	6	82	83	84	116
108	6	24	23	22	47
109	13	39	26	25	40
110	12	5	12	14	62
111	6	23	24	25	40
112	12	5	12	14	15
113	18	82	83	84	85
113	19	82	83	84	85
113	20	82	83	84	85
114	13	57	17	16	59
115	6	25	24	23	45
116	6	91	92	93	99
117	13	43	24	23	45
118	2	64	65	66	73
118	3	64	65	66	73
119	13	109	88	87	110
120	6	78	79	80	124
121	15	13	12	14	63
121	16	13	12	14	63
121	17	13	12	14	63
122	13	72	66	65	75
123	13	37	27	26	39
124	6	88	89	90	104
125	6	92	91	90	104
126	13	33	29	28	34
127	13	32	29	28	34
128	13	115	85	84	117
129	18	25	26	27	28
129	19	25	26	27	28
129	20	25	26	27	28
130	6	14	15	16	58
131	13	104	90	89	107
132	13	127	79	78	129
133	1	12	14	15	61
134	6	83	84	85	114
135	13	98	93	92	100
136	15	77	76	78	129
136	16	77	76	78	129
136	17	77	76	78	129
137	18	24	25	26	27
137	19	24	25	26	27
137	20	24	25	26	27
138	9	4	5	12	13
138	10	4	5	12	13
139	1	30	29	28	35
140	13	41	25	24	42
141	6	21	22	23	45
142	13	7	4	3	8
143	13	121	82	81	122
144	6	67	66	65	74
145	6	26	25	24	42
146	6	18	19	20	50
147	6	85	86	87	110
148	18	23	24	25	26
148	19	23	24	25	26
148	20	23	24	25	26
149	6	4	3	2	10
150	13	113	86	85	114
151	13	56	17	16	58
152	6	20	19	18	55
153	13	42	24	23	44
154	6	16	17	18	54
155	13	9	3	2	11
156	13	36	27	26	38
157	2	64	65	66	72
157	3	64	65	66	72
158	6	17	18	19	52
159	18	89	90	91	92
159	19	89	90	91	92
159	20	89	90	91	92
160	6	88	87	86	113
161	13	54	18	17	57
162	18	14	15	16	17
162	19	14	15	16	17
162	20	14	15	16	17
163	6	24	23	22	46
164	6	22	21	20	50
165	13	73	66	65	75
166	26	95	94	96	97
166	27	95	94	96	97
167	6	26	27	28	34
168	13	57	17	16	58
169	6	25	24	23	44
170	21	31	30	76	78
171	6	90	89	88	109
172	13	115	85	84	116
173	6	86	87	88	108
174	18	80	81	82	83
174	19	80	81	82	83
174	20	80	81	82	83
175	13	53	19	18	55
176	6	81	80	79	127
177	13	124	80	79	127
178	4	1	64	65	66
179	13	104	90	89	106
180	13	8	3	2	10
181	1	12	14	15	60
182	13	34	28	27	37
183	6	29	28	27	37
184	13	107	89	88	109
185	13	44	23	22	46
186	13	58	16	15	61
187	13	101	92	91	103
188	6	89	88	87	110
189	13	99	93	92	101
190	13	47	22	21	48
191	13	61	15	14	62
192	6	82	81	80	125
193	13	52	19	18	55
194	1	76	78	79	126
195	12	30	76	78	79
196	13	126	79	78	128
197	12	92	93	94	96
198	25	93	94	96	97
199	13	111	87	86	113
200	6	19	20	21	49
201	13	122	81	80	125
202	6	18	17	16	59
203	6	80	81	82	120
204	6	88	87	86	112
205	6	27	26	25	41
206	6	20	21	22	47
207	13	73	66	65	74
208	15	31	30	29	33
208	16	31	30	29	33
208	17	31	30	29	33
209	6	87	86	85	115
210	21	31	30	76	77
211	18	16	17	18	19
211	19	16	17	18	19
211	20	16	17	18	19
212	13	6	4	3	9
213	18	19	20	21	22
213	19	19	20	21	22
213	20	19	20	21	22
214	6	2	3	4	6
215	21	29	30	76	78
216	6	25	26	27	37
217	6	22	23	24	43
218	13	45	23	22	47
219	1	1	2	3	4
220	13	105	90	89	107
221	1	27	28	29	30
222	6	21	20	19	53
223	18	84	85	86	87
223	19	84	85	86	87
223	20	84	85	86	87
224	13	107	89	88	108
225	13	58	16	15	60
226	2	5	4	3	9
226	3	5	4	3	9
227	13	35	28	27	37
228	13	101	92	91	102
229	13	116	84	83	118
230	13	100	92	91	103
231	13	49	21	20	51
232	13	52	19	18	54
233	13	112	86	85	114
234	1	91	92	93	94
235	13	59	16	15	61
236	4	3	2	1	64
237	1	12	14	15	16
238	14	92	93	94	95
239	6	90	91	92	101
240	6	19	20	21	48
241	13	122	81	80	124
242	6	83	82	81	123
243	24	69	68	67	71
244	13	46	22	21	49
245	13	55	18	17	57
246	2	1	2	3	8
246	3	1	2	3	8
247	13	51	20	19	52
248	12	30	76	78	129
249	4	7	4	5	12
250	6	23	22	21	49
251	13	40	25	24	43
252	6	27	26	25	40
253	13	106	89	88	108
254	13	119	83	82	121
255	1	2	3	4	5
256	6	84	83	82	121
257	6	28	27	26	39
258	15	31	30	29	32
258	16	31	30	29	32
258	17	31	30	29	32
259	18	87	88	89	90
259	19	87	88	89	90
259	20	87	88	89	90
260	2	68	67	66	73
260	3	68	67	66	73
261	12	33	29	30	76
262	6	84	85	86	113
263	6	15	16	17	57
264	6	91	92	93	98
265	13	43	24	23	44
266	13	108	88	87	111
267	12	32	29	30	76
268	6	81	82	83	119
269	6	93	92	91	103
270	15	13	12	14	62
270	16	13	12	14	62
270	17	13	12	14	62
271	13	72	66	65	74
272	13	37	27	26	38
273	13	102	91	90	105
274	14	13	12	14	15
275	6	80	79	78	129
276	12	96	94	93	99
277	13	114	85	84	117
278	13	125	80	79	127
279	6	22	23	24	42
280	13	45	23	22	46
281	6	82	83	84	117
282	1	65	66	67	68
283	13	39	26	25	41
284	13	105	90	89	106
285	6	23	24	25	41
286	4	11	2	1	64
287	4	10	2	1	64
288	13	127	79	78	128
289	6	21	20	19	52
290	6	88	89	90	105
291	15	77	76	78	128
291	16	77	76	78	128
291	17	77	76	78	128
292	18	17	18	19	20
292	19	17	18	19	20
292	20	17	18	19	20
293	13	33	29	28	35
294	1	64	65	66	67
295	1	30	29	28	34
296	2	5	4	3	8
296	3	5	4	3	8
297	6	21	22	23	44
298	4	1	64	65	75
299	13	48	21	20	51
300	18	21	22	23	24
300	19	21	22	23	24
300	20	21	22	23	24
301	13	100	92	91	102
302	6	87	88	89	107
303	18	20	21	22	23
303	19	20	21	22	23
303	20	20	21	22	23
304	18	26	27	28	29
304	19	26	27	28	29
304	20	26	27	28	29
305	6	20	19	18	54
306	13	117	84	83	119
307	6	27	28	29	33
308	2	68	67	66	72
308	3	68	67	66	72
309	13	59	16	15	60
310	13	38	26	25	41
311	6	79	80	81	123
312	6	24	25	26	39
313	6	90	91	92	100
314	13	123	81	80	125
315	18	83	84	85	86
315	19	83	84	85	86
315	20	83	84	85	86
316	13	110	87	86	113
317	13	41	25	24	43
318	13	118	83	82	121
319	24	69	68	67	70
320	6	19	18	17	57
321	13	46	22	21	48
322	13	55	18	17	56
323	13	54	18	17	56
324	13	40	25	24	42
325	13	121	82	81	123
326	13	119	83	82	120
327	6	67	66	65	75
328	6	84	83	82	120
329	6	26	25	24	43
330	6	85	86	87	111
331	13	56	17	16	59
332	6	15	16	17	56
333	6	81	82	83	118
334	13	50	20	19	53
335	6	16	17	18	55
336	6	93	92	91	102
337	18	90	91	92	93
337	19	90	91	92	93
337	20	90	91	92	93
338	6	17	18	19	53
339	18	88	89	90	91
339	19	88	89	90	91
339	20	88	89	90	91
340	6	80	79	78	128
341	6	90	89	88	108
342	12	96	94	93	98
343	13	114	85	84	116
344	6	91	90	89	107
345	13	53	19	18	54
346	6	81	80	79	126
347	13	124	80	79	126
348	5	2	1	64	65
349	6	22	21	20	51
350	6	4	3	2	11
351	6	26	27	28	35

Impropers

83	1	94	96	93	95
344	2	76	30	77	78
354	1	94	93	95	96
458	1	12	5	13	14
488	2	76	78	30	77
518	1	12	14	5	13
583	2	30	76	29	31
617	1	12	13	14	5
701	1	94	95	96	93
727	2	30	29	31	76
790	2	30	31	76	29
815	2	76	77	78	30
