Title

4455 atoms
4428 bonds
8073 angles
14742 dihedrals
810 impropers

11 atom types
12 bond types
9 angle types
33 dihedral types
2 improper types
-20.48399385 108.8516848 xlo xhi
-20.58036148 120.4388831 ylo yhi
-23.94984382 121.4273643 zlo zhi
0.0 0.0 0.0 xy xz yz

Masses

1	15.99943
2	12.01078
3	1.007947
4	12.01078
5	15.99943
6	14.00672
7	1.007947
8	1.007947
9	12.01078
10	15.99943
11	1.007947


Pair Coeffs

1	0.16846514	3.0251065
2	0.10884061	3.3795318
3	0.016409246	2.5832257
4	0.086879315	3.4806469
5	0.2102061	3.0398122
6	0.16769152	3.206876
7	0.014090815	1.1034277
8	0.015779483	2.6445434
9	0.21	3.3996695
10	0.20947353	2.99716
11	1.2326e-05	0.53453923

Bond Coeffs

1 harmonic	366.7408841747	1.425895053732
2 harmonic	301.15400723785	1.345741232799
3 harmonic	264.62148576755	1.52190126495
4 harmonic	370.04670688625	1.093899492634
5 harmonic	582.698766451	1.225198386222
6 harmonic	492.76746816345	1.381897776683
7 harmonic	352.0565580496	1.450098586273
8 harmonic	505.144496193	1.019481865027
9 harmonic	366.34047229585	1.464762957261
10 harmonic	602.81384337	1.196112346392
11 harmonic	329.96998057905	1.427343958716
12 harmonic	543.5267831885	0.9716763312559


Angle Coeffs

1 harmonic	53.20531626545	116.5475862634
2 harmonic	201.41175231035	127.4691416191
3 harmonic	57.8982893754	126.8062420451
4 harmonic	65.09061609600001	110.3538806181
5 harmonic	48.776492647595	115.6030999533
6 harmonic	55.42182150775	117.3465570514
7 harmonic	63.44422595415	115.5071327674
8 harmonic	55.07882548015	112.8714009681
9 harmonic	33.56981613361	180


Dihedral Coeffs

1 fourier 1	-0.0309670556842	3	0
2 fourier 1	0.4598191477945	2	0
3 fourier 1	0.1115525666802	3	0
4 fourier 1	0.3432490222662	1	0
5 fourier 1	1.809047390003	2	180
6 fourier 1	-0.04816277792592	1	0
7 fourier 1	1.163809172478	2	180
8 fourier 1	0.1679186987369	1	180
9 fourier 1	2.779853741805	2	180
10 fourier 1	0.4552156463534	3	0
11 fourier 1	-0.03687743385131	2	180
12 fourier 1	0.1918272375143	3	0
13 fourier 1	0.9202179876409	1	180
14 fourier 1	0.0473758381877	3	0
15 fourier 1	0.1911926717192	3	0
16 fourier 1	-0.1488678166443	4	180
17 fourier 1	-0.1230328948768	3	180
18 fourier 1	0.2939295466901	2	0
19 fourier 1	-0.3024127022865	1	0
20 fourier 1	0.182238503271	2	0
21 fourier 1	0.02972342374561	3	0
22 fourier 1	0.4860993122944	2	180
23 fourier 1	0.8916986138746	1	0
24 fourier 1	0.1155372516788	3	0
25 fourier 1	0.09223874044423	3	0
26 fourier 1	0.3159935921949	2	180
27 fourier 1	0.3247796806857	1	180
28 fourier 1	0.1040663847541	3	0
29 fourier 1	-1.382973039546	1	0
30 fourier 1	0	1	0
31 fourier 1	0.3445382149273	3	0
32 fourier 1	0.1364556373303	1	0
33 fourier 1	0.3026390167484	3	0


Improper Coeffs

1 3.5	-1	2
2 0.3333333333333333	-1	2


Atoms

1	1	1	-0.49552531	-5.8004237	9.8804947	-11.199633
2	1	2	0.1057702	-4.7382331	9.4496462	-10.428295
3	1	2	0.079016217	-5.2454794	8.6959343	-9.1938757
4	1	1	-0.4862738	-4.1644282	8.5182655	-8.3158262
5	1	2	0.059615684	-4.6216192	7.9492594	-7.1135669
6	1	2	0.059873482	-3.4680442	7.9814381	-6.1206463
7	1	1	-0.48637742	-3.8434308	7.3716993	-4.9077153
8	1	2	0.059873482	-3.5424518	5.9924132	-4.9448565
9	1	2	0.059615684	-4.3552055	5.3094494	-3.8663057
10	1	1	-0.4862738	-5.7325743	5.5608214	-4.0986079
11	1	2	0.079016217	-6.3400137	4.4108486	-4.6353693
12	1	2	0.1057702	-7.8099249	4.6903856	-4.9631945
13	1	1	-0.49552531	-8.4687325	3.57932	-5.477097
14	1	3	0.093338491	-8.3359877	5.0303965	-4.0423647
15	1	3	0.093338491	-7.8613185	5.5107216	-5.7077182
16	1	3	0.085473323	-6.2833673	3.6278826	-3.8565982
17	1	3	0.085473323	-5.8369355	4.1020091	-5.5821615
18	1	3	0.086797693	-4.080482	4.2251802	-3.8330148
19	1	3	0.086797693	-4.0799826	5.7248027	-2.8742452
20	1	3	0.086797693	-2.4594647	5.8309899	-4.7545739
21	1	3	0.086797693	-3.8225367	5.517099	-5.9135494
22	1	3	0.086797693	-3.2071119	9.0397951	-5.9066005
23	1	3	0.086797693	-2.5551724	7.5208668	-6.5649291
24	1	3	0.086797693	-5.4687666	8.5231512	-6.6629779
25	1	3	0.086797693	-4.9387096	6.9011847	-7.3014871
26	1	3	0.085473323	-6.0474012	9.2766223	-8.6908897
27	1	3	0.085473323	-5.6735624	7.7210031	-9.5186048
28	1	3	0.093338491	-4.1168642	10.32553	-10.14012
29	1	3	0.093338491	-4.0855783	8.7732781	-11.017546
30	1	4	0.78629755	-8.7377799	2.5041412	-4.6978935
31	1	5	-0.60344643	-9.8893223	2.3124547	-4.3359646
32	1	6	-0.46429492	-7.7388187	1.6777807	-4.2921758
33	1	2	0.026012787	-7.9044469	0.71320443	-3.2251103
34	1	2	-0.14375406	-6.6571453	0.73510345	-2.3308591
35	1	2	-0.14166119	-6.7740157	-0.31149691	-1.2207501
36	1	2	-0.14166119	-5.5543066	-0.35253184	-0.28904269
37	1	2	-0.14375406	-4.2147265	-0.62682773	-0.98465891
38	1	2	0.026012765	-4.1962872	-1.9186834	-1.820054
39	1	6	-0.46429492	-2.8517945	-2.1628126	-2.2934095
40	1	4	0.78629749	-2.5134157	-3.2356878	-3.0658184
41	1	5	-0.60344655	-3.3776909	-3.9968546	-3.4748212
42	1	7	0.32732009	-2.1225311	-1.5022442	-1.9947051
43	1	3	0.059364033	-4.8850538	-1.8271673	-2.6871263
44	1	3	0.059364033	-4.5111071	-2.7758542	-1.186804
45	1	8	0.089994223	-3.934564	0.22700217	-1.6386142
46	1	8	0.089994223	-3.4424752	-0.69828466	-0.18705568
47	1	8	0.088736617	-5.7302652	-1.1512439	0.46374856
48	1	8	0.088736617	-5.4665513	0.6141055	0.25256719
49	1	8	0.088736617	-6.9197948	-1.3128442	-1.6783275
50	1	8	0.088736617	-7.6683797	-0.085713628	-0.60110183
51	1	8	0.089994223	-5.7751563	0.50365785	-2.9668413
52	1	8	0.089994223	-6.5166324	1.7471325	-1.8890352
53	1	3	0.059364011	-8.7924189	0.96496992	-2.6004552
54	1	3	0.059364011	-8.0340504	-0.29726718	-3.6617807
55	1	7	0.32732015	-6.8006144	1.7791794	-4.7053296
56	1	1	-0.49552531	-1.209237	-3.5012888	-3.3642947
57	1	2	0.10577022	-0.13594784	-2.9756563	-2.6629482
58	1	2	0.079016217	-0.1665843	-3.4810371	-1.2147519
59	1	1	-0.4862738	0.7989532	-2.7828628	-0.47211468
60	1	2	0.059615684	0.79771259	-3.2529025	0.85621554
61	1	2	0.059873482	1.6562003	-2.3037691	1.6820986
62	1	1	-0.48637742	1.741731	-2.7481069	3.0157351
63	1	2	0.059873482	2.8647175	-3.5890248	3.1772751
64	1	2	0.059615684	2.663518	-4.3928077	4.4421944
65	1	1	-0.4862738	1.4531603	-5.1282333	4.3338548
66	1	2	0.079016217	1.7401369	-6.4778207	4.0558113
67	1	2	0.1057702	0.44112357	-7.2847086	3.9409672
68	1	1	-0.49552531	0.64472563	-8.6382044	3.6845896
69	1	3	0.093338491	-0.14511839	-7.1772453	4.8817232
70	1	3	0.093338491	-0.16535299	-6.8588698	3.1149517
71	1	3	0.085473323	2.3231589	-6.8509066	4.9120427
72	1	3	0.085473323	2.288945	-6.5728719	3.0896457
73	1	3	0.086797693	3.573149	-5.0180216	4.6265636
74	1	3	0.086797693	2.5865701	-3.706951	5.3109802
75	1	3	0.086797693	3.7909747	-2.9804469	3.2663906
76	1	3	0.086797693	2.9781281	-4.3182959	2.341831
77	1	3	0.086797693	1.1810552	-1.3000707	1.6860574
78	1	3	0.086797693	2.657928	-2.1732509	1.2094988
79	1	3	0.086797693	-0.22568699	-3.2641211	1.3068167
80	1	3	0.086797693	1.2279986	-4.2781321	0.88464616
81	1	3	0.085473323	-1.1704409	-3.2977754	-0.77192913
82	1	3	0.085473323	0.03653674	-4.5770484	-1.2246491
83	1	3	0.093338468	-0.15887092	-1.8660114	-2.700997
84	1	3	0.093338468	0.81895887	-3.2860253	-3.1360468
85	1	4	0.78629755	1.1011866	-9.4842473	4.6419739
86	1	5	-0.60344643	0.34035434	-10.32438	5.0981034
87	1	6	-0.46429492	2.3618213	-9.3612511	5.1277846
88	1	2	0.026012787	2.7923883	-9.9707518	6.3677133
89	1	2	-0.14375406	3.7552316	-9.0073601	7.0766535
90	1	2	-0.14166119	4.3053466	-9.6179598	8.3649977
91	1	2	-0.14166119	5.2477265	-8.6697288	9.1226144
92	1	2	-0.14375406	6.4608669	-8.1786359	8.3224807
93	1	2	0.026012765	7.3294809	-9.3090057	7.7435275
94	1	6	-0.46429492	8.52324	-8.7401178	7.1592232
95	1	4	0.78629749	9.4961908	-9.4878125	6.5627607
96	1	5	-0.60344655	9.3424304	-10.690859	6.4088979
97	1	7	0.32732009	8.6442995	-7.7226928	7.2377656
98	1	3	0.059364033	6.7651893	-9.8725572	6.9704203
99	1	3	0.059364033	7.6280268	-10.001553	8.5611449
100	1	8	0.089994223	6.1365701	-7.514476	7.491113
101	1	8	0.089994223	7.0782249	-7.5624893	9.0131518
102	1	8	0.088736617	5.6130301	-9.2018515	10.027137
103	1	8	0.088736617	4.6799774	-7.7750753	9.459954
104	1	8	0.088736617	4.8430306	-10.558148	8.1205865
105	1	8	0.088736617	3.4613292	-9.8702213	9.0419377
106	1	8	0.089994223	4.5973035	-8.7878792	6.3869601
107	1	8	0.089994223	3.2279089	-8.0535238	7.3043203
108	1	3	0.059364011	1.9207997	-10.134891	7.0441767
109	1	3	0.059364011	3.2849418	-10.940679	6.1540894
110	1	7	0.32732015	3.0211687	-8.7312626	4.6562133
111	1	4	0.78629755	-6.6959648	10.830158	-10.805177
112	1	5	-0.60344643	-7.6865464	11.018067	-11.496348
113	1	6	-0.46429492	-6.5104733	11.546481	-9.6531889
114	1	2	0.026012787	-7.4346854	12.538885	-9.1601164
115	1	2	-0.14375406	-7.4380258	13.7641	-10.068177
116	1	2	-0.14147802	-8.3111827	14.859487	-9.4546763
117	1	2	-0.13727792	-8.3072524	16.152125	-10.274317
118	1	2	-0.1214647	-8.9458959	15.974173	-11.660092
119	1	2	0.18515214	-9.0224541	17.314085	-12.416774
120	1	6	-0.63356424	-9.841808	18.277804	-11.728353
121	1	9	0.59388989	-11.072432	18.079569	-11.521089
122	1	5	-0.45742748	-12.235043	17.892447	-11.326106
123	1	3	0.03391307	-9.437113	17.133059	-13.434016
124	1	3	0.03391307	-7.9972767	17.719835	-12.531263
125	1	8	0.083618433	-8.3412782	15.274422	-12.270596
126	1	8	0.083618433	-9.9691958	15.553003	-11.553068
127	1	8	0.087452003	-7.2641705	16.525707	-10.379342
128	1	8	0.087452003	-8.8899149	16.900607	-9.6974626
129	1	8	0.088736617	-7.9100881	15.099413	-8.4447597
130	1	8	0.088736617	-9.3544033	14.491934	-9.3368203
131	1	8	0.089994223	-7.8108077	13.47758	-11.070781
132	1	8	0.089994223	-6.3951995	14.141164	-10.164788
133	1	3	0.059364011	-8.4492906	12.097305	-9.0517466
134	1	3	0.059364011	-7.0893807	12.861504	-8.1517813
135	1	7	0.32732015	-5.6820284	11.391394	-9.0633651
136	1	1	-0.49552531	10.671871	-8.9187661	6.166092
137	1	2	0.10577022	11.138763	-7.7040275	6.6470526
138	1	2	0.079016217	11.397626	-7.8155086	8.1573929
139	1	1	-0.4862738	11.673436	-6.5423719	8.6899012
140	1	2	0.059615684	11.963411	-6.6783514	10.064555
141	1	2	0.059873482	12.060739	-5.2899753	10.685479
142	1	1	-0.48637742	12.434799	-5.385597	12.045742
143	1	2	0.059873482	13.839761	-5.2723553	12.168822
144	1	2	0.059873482	14.256178	-5.6309677	13.591469
145	1	1	-0.48423064	13.823349	-6.9381125	13.922052
146	1	2	0.052079258	14.853311	-7.8768462	13.689139
147	1	2	0.074368471	14.295889	-9.2812386	13.901103
148	1	10	-0.68046183	15.286466	-10.242497	13.6598
149	1	11	0.39073386	15.880433	-10.243403	14.454513
150	1	3	0.08737752	13.891415	-9.3922193	14.933296
151	1	3	0.08737752	13.455333	-9.4549438	13.195668
152	1	3	0.087860295	15.687694	-7.7174214	14.408856
153	1	3	0.087860295	15.226453	-7.8153514	12.642372
154	1	3	0.086797693	15.356881	-5.4860972	13.714556
155	1	3	0.086797693	13.775049	-4.91993	14.296127
156	1	3	0.086797693	14.15494	-4.2248202	11.964719
157	1	3	0.086797693	14.369999	-5.9605741	11.474392
158	1	3	0.086797693	11.066864	-4.7952431	10.627678
159	1	3	0.086797693	12.754907	-4.6506496	10.089641
160	1	3	0.086797693	11.16452	-7.2348943	10.612959
161	1	3	0.086797693	12.936476	-7.2026837	10.183893
162	1	3	0.085473323	10.496689	-8.228613	8.6611432
163	1	3	0.085473323	12.252224	-8.5159437	8.3032511
164	1	3	0.093338468	10.411353	-6.8957599	6.4209608
165	1	3	0.093338483	12.082797	-7.4300781	6.1329322
166	2	1	-0.49552531	-3.1840049	4.9577456	34.013727
167	2	2	0.1057702	-2.6701266	5.2179257	35.269544
168	2	2	0.079016217	-3.2460278	4.2364445	36.296288
169	2	1	-0.4862738	-2.9143024	4.7014377	37.578844
170	2	2	0.059615684	-3.5410312	3.8983644	38.548639
171	2	2	0.059873482	-3.3373899	4.5661997	39.901484
172	2	1	-0.48637742	-3.8945257	3.7802288	40.928979
173	2	2	0.059873482	-2.9293765	2.8770534	41.42613
174	2	2	0.059615684	-3.6592514	1.7746509	42.162521
175	2	1	-0.4862738	-4.5668077	1.1468812	41.270028
176	2	2	0.079016217	-4.050576	-0.098643957	40.867902
177	2	2	0.1057702	-4.9827492	-0.75472332	39.84474
178	2	1	-0.49552531	-4.5331826	-2.0022979	39.427562
179	2	3	0.093338491	-5.9988254	-0.86452065	40.287245
180	2	3	0.093338491	-5.0663021	-0.092040416	38.959427
181	2	3	0.085473323	-4.0021408	-0.73073796	41.773905
182	2	3	0.085473323	-3.0525696	0.023352549	40.384182
183	2	3	0.086797693	-2.9090097	1.0840427	42.62341
184	2	3	0.086797693	-4.2338534	2.2090047	43.007281
185	2	3	0.086797693	-2.2395427	3.3987823	42.124023
186	2	3	0.086797693	-2.3377536	2.3909305	40.615943
187	2	3	0.086797693	-3.8572237	5.5479284	39.899871
188	2	3	0.086797693	-2.2579668	4.7872856	40.071233
189	2	3	0.086797693	-4.6427453	3.8064896	38.381827
190	2	3	0.086797693	-3.0771453	2.8888553	38.543921
191	2	3	0.085473323	-4.3499294	4.1742858	36.192319
192	2	3	0.085473323	-2.8212442	3.2254475	36.104875
193	2	3	0.093338491	-2.8961094	6.270954	35.545914
194	2	3	0.093338491	-1.56526	5.118779	35.260126
195	2	4	0.78629755	-4.5375808	-3.0639661	40.269224
196	2	5	-0.60344643	-5.3735438	-3.9406863	40.10701
197	2	6	-0.46429492	-3.6553083	-3.131993	41.299937
198	2	2	0.026012787	-3.8057451	-4.0610796	42.400226
199	2	2	-0.14375406	-3.4831909	-3.3380245	43.715169
200	2	2	-0.14166119	-3.5802541	-4.3047974	44.897245
201	2	2	-0.14166119	-3.2613133	-3.6506083	46.249194
202	2	2	-0.14375406	-1.8724581	-3.006362	46.34729
203	2	2	0.026012765	-0.713884	-3.96336	46.017174
204	2	6	-0.46429492	0.54358296	-3.3061006	46.296659
205	2	4	0.78629749	1.757353	-3.8988062	46.10265
206	2	5	-0.60344655	1.8274738	-5.0020014	45.581427
207	2	7	0.32732009	0.4991366	-2.3579009	46.69206
208	2	3	0.059364033	-0.74987277	-4.2576296	44.946333
209	2	3	0.059364033	-0.78893899	-4.8717435	46.652835
210	2	8	0.089994223	-1.8070823	-2.1204844	45.679368
211	2	8	0.089994223	-1.7562289	-2.6409802	47.391626
212	2	8	0.088736617	-3.3415447	-4.4354976	47.032206
213	2	8	0.088736617	-4.0178936	-2.8673594	46.471764
214	2	8	0.088736617	-2.8871585	-5.1560921	44.729195
215	2	8	0.088736617	-4.6132392	-4.7108874	44.95074
216	2	8	0.089994223	-2.4464781	-2.9429445	43.643873
217	2	8	0.089994223	-4.177138	-2.4805304	43.864488
218	2	3	0.059364011	-4.851369	-4.4430616	42.453466
219	2	3	0.059364011	-3.1083009	-4.9110053	42.259766
220	2	7	0.32732015	-2.8815475	-2.4536038	41.347763
221	2	1	-0.49552531	2.9073341	-3.2939729	46.517661
222	2	2	0.10577022	2.9455651	-2.2673591	47.447569
223	2	2	0.079016217	2.4304593	-2.7751112	48.80052
224	2	1	-0.4862738	2.2829512	-1.6805785	49.667387
225	2	2	0.059615684	1.8314501	-2.1350339	50.922384
226	2	2	0.059873482	1.4337135	-0.91283581	51.739682
227	2	1	-0.48637742	1.0217609	-1.2943621	53.03122
228	2	2	0.059873482	2.1223132	-1.2830146	53.916089
229	2	2	0.059615684	1.7561512	-2.119129	55.121662
230	2	1	-0.4862738	1.4276855	-3.4319127	54.69008
231	2	2	0.079016217	2.4956816	-4.305217	54.96896
232	2	2	0.1057702	2.1519621	-5.7281415	54.511975
233	2	1	-0.49552531	3.1564244	-6.6567673	54.772443
234	2	3	0.093338491	1.2126574	-6.0595458	55.010099
235	2	3	0.093338491	1.9657967	-5.7107272	53.418131
236	2	3	0.085473323	2.6218676	-4.2971665	56.062693
237	2	3	0.085473323	3.41744	-3.9852811	54.428864
238	2	3	0.086797693	2.5887382	-2.0690888	55.867724
239	2	3	0.086797693	0.8713316	-1.6784608	55.625661
240	2	3	0.086797693	2.3454912	-0.24261162	54.238601
241	2	3	0.086797693	3.0366879	-1.7377817	53.469131
242	2	3	0.086797693	0.57733168	-0.41049777	51.242233
243	2	3	0.086797693	2.2644973	-0.16898595	51.757838
244	2	3	0.086797693	0.93342342	-2.7965368	50.841911
245	2	3	0.086797693	2.6531886	-2.6837673	51.43296
246	2	3	0.085473323	1.4435135	-3.2706259	48.667072
247	2	3	0.085473323	3.1635537	-3.5160129	49.195785
248	2	3	0.093338468	2.3475617	-1.4027256	47.089679
249	2	3	0.093338468	3.9859351	-1.9002151	47.569362
250	2	4	0.78629755	3.403807	-7.1057331	56.028612
251	2	5	-0.60344643	3.1240449	-8.2618907	56.307493
252	2	6	-0.46429492	3.8972164	-6.2693327	56.975883
253	2	2	0.026012787	3.8489411	-6.5648635	58.391733
254	2	2	-0.14375406	3.5733932	-5.2604458	59.153544
255	2	2	-0.14166119	3.5776013	-5.4868837	60.664834
256	2	2	-0.14166119	3.2711277	-4.2099522	61.462784
257	2	2	-0.14375406	4.2172853	-3.0319777	61.197722
258	2	2	0.026012765	5.7037643	-3.3584642	61.423996
259	2	6	-0.46429492	6.4802811	-2.1442944	61.310334
260	2	4	0.78629749	7.8357481	-2.1038193	61.460397
261	2	5	-0.60344655	8.471847	-3.1381306	61.602582
262	2	7	0.32732009	5.9639241	-1.2718451	61.142448
263	2	3	0.059364033	6.0548229	-4.0998874	60.675157
264	2	3	0.059364033	5.8394583	-3.7739215	62.446851
265	2	8	0.089994223	4.087616	-2.6538003	60.159639
266	2	8	0.089994223	3.9159189	-2.2115103	61.886057
267	2	8	0.088736617	3.3167357	-4.463378	62.543736
268	2	8	0.088736617	2.2366467	-3.8709572	61.235906
269	2	8	0.088736617	4.5679084	-5.88596	60.969506
270	2	8	0.088736617	2.8067748	-6.2433039	60.925417
271	2	8	0.089994223	4.3675612	-4.5303068	58.890621
272	2	8	0.089994223	2.5912964	-4.8432275	58.83555
273	2	3	0.059364011	3.0125496	-7.2684943	58.614363
274	2	3	0.059364011	4.8097429	-7.0168824	58.710388
275	2	7	0.32732015	4.2335516	-5.3401047	56.697642
276	2	4	0.78629755	-4.4916165	5.136558	33.670757
277	2	5	-0.60344643	-4.8695264	4.7232621	32.58418
278	2	6	-0.46429492	-5.3731648	5.7438763	34.52436
279	2	2	0.026012787	-6.7750678	5.9328147	34.239533
280	2	2	-0.14375406	-6.9606099	6.9547103	33.122824
281	2	2	-0.14147802	-8.4493865	7.2486526	32.933612
282	2	2	-0.13727792	-8.7138809	8.3227365	31.875724
283	2	2	-0.1214647	-8.2950106	7.8784904	30.466079
284	2	2	0.18515214	-8.6709493	8.9368661	29.411421
285	2	6	-0.63356424	-10.093032	9.1550191	29.347317
286	2	9	0.59388989	-10.89455	8.234467	29.02045
287	2	5	-0.45742748	-11.651419	7.3649663	28.710907
288	2	3	0.03391307	-8.3009121	8.6040124	28.415542
289	2	3	0.03391307	-8.1649977	9.8901272	29.664476
290	2	8	0.083618433	-7.1973228	7.7328786	30.423564
291	2	8	0.083618433	-8.7873901	6.9146628	30.211954
292	2	8	0.087452003	-8.1838437	9.2609346	32.154036
293	2	8	0.087452003	-9.8059174	8.5223212	31.885928
294	2	8	0.088736617	-8.856363	7.6201949	33.90041
295	2	8	0.088736617	-8.9896141	6.3143336	32.664361
296	2	8	0.089994223	-6.5138031	6.5632013	32.188288
297	2	8	0.089994223	-6.4371066	7.8949804	33.407138
298	2	3	0.059364011	-7.2514188	4.9580927	33.996289
299	2	3	0.059364011	-7.2623928	6.3357031	35.156187
300	2	7	0.32732015	-5.0644982	6.090424	35.442453
301	2	1	-0.49552531	8.5006737	-0.91221539	61.496975
302	2	2	0.10577022	7.8876316	0.30213429	61.769803
303	2	2	0.079016217	7.3132947	0.27827718	63.194631
304	2	1	-0.4862738	6.5170129	1.4189094	63.407719
305	2	2	0.059615684	6.0483436	1.4031256	64.739015
306	2	2	0.059873482	5.0264954	2.5203278	64.913065
307	2	1	-0.48637742	4.5981338	2.58863	66.258881
308	2	2	0.059873482	5.383429	3.5279541	66.968016
309	2	2	0.059873482	5.0923984	3.4105561	68.46048
310	2	1	-0.48423064	5.3463071	2.0936118	68.914838
311	2	2	0.052079258	6.6493692	1.9954412	69.45213
312	2	2	0.074368471	6.9383195	0.53302352	69.777412
313	2	10	-0.68046183	8.2325153	0.39354726	70.29615
314	2	11	0.39073386	8.1961522	0.70600174	71.237116
315	2	3	0.08737752	6.1872035	0.13438422	70.497307
316	2	3	0.08737752	6.8620332	-0.073374399	68.849613
317	2	3	0.087860295	6.7218177	2.5859065	70.393248
318	2	3	0.087860295	7.4147954	2.3367834	68.719774
319	2	3	0.086797693	5.6629221	4.1891459	69.022606
320	2	3	0.086797693	4.0186991	3.6346056	68.635336
321	2	3	0.086797693	5.1270327	4.5602231	66.640898
322	2	3	0.086797693	6.4711711	3.3512633	66.817593
323	2	3	0.086797693	4.1428557	2.3079664	64.272774
324	2	3	0.086797693	5.446437	3.4859022	64.543004
325	2	3	0.086797693	5.5406093	0.4419498	64.997976
326	2	3	0.086797693	6.9018457	1.5755875	65.430254
327	2	3	0.085473323	6.6850472	-0.62914045	63.328819
328	2	3	0.085473323	8.1715222	0.2377185	63.904576
329	2	3	0.093338468	7.0960215	0.5104616	61.019142
330	2	3	0.093338483	8.6250408	1.1266136	61.685955
331	3	1	-0.49552531	13.146254	8.8566794	100.15724
332	3	2	0.1057702	12.052332	8.5340099	99.377453
333	3	2	0.079016217	11.53857	7.1339274	99.73099
334	3	1	-0.4862738	10.616352	6.7455206	98.746173
335	3	2	0.059615684	10.225519	5.4123052	98.965272
336	3	2	0.059873482	9.4078965	4.9679189	97.760417
337	3	1	-0.48637742	8.9351663	3.6536058	97.94209
338	3	2	0.059873482	7.6709637	3.6756232	98.571141
339	3	2	0.059615684	7.418324	2.3030595	99.156395
340	3	1	-0.4862738	8.46136	1.9913779	100.06701
341	3	2	0.079016217	7.9948296	2.1300185	101.38711
342	3	2	0.1057702	9.1305826	1.8714007	102.38181
343	3	1	-0.49552531	8.7209973	1.9724669	103.70643
344	3	3	0.093338491	9.5497541	0.85432678	102.20823
345	3	3	0.093338491	9.9393015	2.6086467	102.20195
346	3	3	0.085473323	7.2068464	1.3671714	101.52809
347	3	3	0.085473323	7.6182615	3.1646195	101.5679
348	3	3	0.086797693	6.3915773	2.2784992	99.600702
349	3	3	0.086797693	7.417553	1.546764	98.343704
350	3	3	0.086797693	6.8783026	3.9171817	97.830558
351	3	3	0.086797693	7.62297	4.4029418	99.414611
352	3	3	0.086797693	10.059156	4.9772724	96.860531
353	3	3	0.086797693	8.5856989	5.6924025	97.555569
354	3	3	0.086797693	11.098245	4.719007	99.053178
355	3	3	0.086797693	9.6107159	5.3577617	99.889049
356	3	3	0.085473323	12.381328	6.4114426	99.763334
357	3	3	0.085473323	11.070027	7.1670782	100.74023
358	3	3	0.093338491	12.335724	8.6016234	98.304404
359	3	3	0.093338491	11.235491	9.266744	99.540301
360	3	4	0.78629755	7.8910117	1.0518574	104.25339
361	3	5	-0.60344643	8.3487864	0.24542299	105.04956
362	3	6	-0.46429492	6.5826259	0.99998575	103.89167
363	3	2	0.026012787	5.7307958	-0.13165359	104.19208
364	3	2	-0.14375406	4.867222	-0.4497097	102.96367
365	3	2	-0.14166119	3.9144553	-1.6090665	103.26283
366	3	2	-0.14166119	3.010607	-1.9782779	102.07784
367	3	2	-0.14375406	2.1303416	-0.83700286	101.55228
368	3	2	0.026012765	1.2371204	-0.1905117	102.62528
369	3	6	-0.46429492	0.33987103	0.7527618	101.99559
370	3	4	0.78629749	-0.57698667	1.489868	102.68713
371	3	5	-0.60344655	-0.60688057	1.4468804	103.90815
372	3	7	0.32732009	0.38757527	0.83313008	100.97155
373	3	3	0.059364033	1.8601662	0.33563572	103.37998
374	3	3	0.059364033	0.63190451	-0.97533323	103.1279
375	3	8	0.089994223	2.756674	-0.047384694	101.08389
376	3	8	0.089994223	1.4864036	-1.2646466	100.75221
377	3	8	0.088736617	2.3502992	-2.8114033	102.40264
378	3	8	0.088736617	3.6340046	-2.3454587	101.23405
379	3	8	0.088736617	3.2829686	-1.3449536	104.13736
380	3	8	0.088736617	4.5094342	-2.50862	103.53047
381	3	8	0.089994223	4.2777663	0.45928955	102.71425
382	3	8	0.089994223	5.5129591	-0.7005213	102.0923
383	3	3	0.059364011	6.3418135	-1.0307567	104.43773
384	3	3	0.059364011	5.0790468	0.11894118	105.05287
385	3	7	0.32732015	6.1864331	1.7597314	103.31981
386	3	1	-0.49552531	-1.4977085	2.2554723	102.03395
387	3	2	0.10577022	-1.8268209	2.0923129	100.69784
388	3	2	0.079016217	-2.4581624	0.71032823	100.48536
389	3	1	-0.4862738	-2.5945013	0.48310072	99.106597
390	3	2	0.059615684	-3.1944114	-0.77443723	98.896582
391	3	2	0.059873482	-3.0833203	-1.0962624	97.411986
392	3	1	-0.48637742	-3.7143672	-2.3216906	97.123121
393	3	2	0.059873482	-5.0648599	-2.1028042	96.772984
394	3	2	0.059615684	-5.8021738	-3.41381	96.928552
395	3	1	-0.4862738	-5.6611853	-3.8663283	98.267545
396	3	2	0.079016217	-6.8523834	-3.6272019	98.978119
397	3	2	0.1057702	-6.7152801	-4.1158502	100.42523
398	3	1	-0.49552531	-7.864642	-3.9300188	101.18914
399	3	3	0.093338491	-6.4490135	-5.1972152	100.42652
400	3	3	0.093338491	-5.8818816	-3.5625657	100.90562
401	3	3	0.085473323	-7.6353932	-4.2123555	98.471433
402	3	3	0.085473323	-7.0826021	-2.5363486	99.005313
403	3	3	0.086797693	-6.8608466	-3.2800163	96.59147
404	3	3	0.086797693	-5.3616012	-4.1718332	96.248548
405	3	3	0.086797693	-5.1374797	-1.7578007	95.718489
406	3	3	0.086797693	-5.5668831	-1.364851	97.440864
407	3	3	0.086797693	-2.0099671	-1.1930691	97.144161
408	3	3	0.086797693	-3.483282	-0.25423256	96.799728
409	3	3	0.086797693	-2.683331	-1.5936302	99.460704
410	3	3	0.086797693	-4.2642287	-0.72707846	99.197079
411	3	3	0.085473323	-1.8027659	-0.075447449	100.92173
412	3	3	0.085473323	-3.4450538	0.69559131	101.00346
413	3	3	0.093338468	-0.92604143	2.2237529	100.06176
414	3	3	0.093338468	-2.5493735	2.8741322	100.38372
415	3	4	0.78629755	-8.9665819	-4.7029126	101.01857
416	3	5	-0.60344643	-9.2676874	-5.5018092	101.89255
417	3	6	-0.46429492	-9.687729	-4.6332885	99.871648
418	3	2	0.026012787	-10.635171	-5.6517637	99.472444
419	3	2	-0.14375406	-10.553625	-5.8240162	97.948809
420	3	2	-0.14166119	-11.579988	-6.8392463	97.447634
421	3	2	-0.14166119	-11.506874	-7.0655026	95.929521
422	3	2	-0.14375406	-11.68786	-5.8061213	95.072609
423	3	2	0.026012765	-12.992886	-5.0402182	95.351379
424	3	6	-0.46429492	-13.137769	-3.9780861	94.381333
425	3	4	0.78629749	-14.196892	-3.1182219	94.36289
426	3	5	-0.60344655	-15.035856	-3.153685	95.251439
427	3	7	0.32732009	-12.414181	-3.9045924	93.655388
428	3	3	0.059364033	-12.978587	-4.6128064	96.376477
429	3	3	0.059364033	-13.856892	-5.7337112	95.252339
430	3	8	0.089994223	-10.829007	-5.113026	95.212038
431	3	8	0.089994223	-11.677252	-6.1321872	94.008954
432	3	8	0.088736617	-12.297365	-7.7964602	95.654592
433	3	8	0.088736617	-10.523146	-7.5137678	95.668981
434	3	8	0.088736617	-12.598235	-6.4920831	97.722308
435	3	8	0.088736617	-11.403693	-7.8166586	97.945464
436	3	8	0.089994223	-10.752624	-4.8388654	97.47678
437	3	8	0.089994223	-9.527722	-6.1504773	97.664818
438	3	3	0.059364011	-10.37275	-6.6312989	99.937049
439	3	3	0.059364011	-11.655965	-5.3534771	99.785506
440	3	7	0.32732015	-9.4915839	-3.8806934	99.201475
441	3	4	0.78629755	14.355137	8.2312043	100.07457
442	3	5	-0.60344643	15.200689	8.4860169	100.91978
443	3	6	-0.46429492	14.618258	7.3219885	99.085275
444	3	2	0.026012787	15.860911	6.5991943	98.960623
445	3	2	-0.14375406	16.99101	7.5434035	98.564287
446	3	2	-0.14147802	18.264998	6.7408298	98.296917
447	3	2	-0.13727792	19.429236	7.6136694	97.822108
448	3	2	-0.1214647	19.897953	8.6074064	98.895745
449	3	2	0.18515214	21.135901	9.3952964	98.426164
450	3	6	-0.63356424	22.261141	8.533187	98.171957
451	3	9	0.59388989	22.78635	7.8358297	99.085487
452	3	5	-0.45742748	23.282799	7.1777812	99.948742
453	3	3	0.03391307	21.408367	10.14148	99.206206
454	3	3	0.03391307	20.879418	9.9460935	97.499035
455	3	8	0.083618433	19.094219	9.3382053	99.114544
456	3	8	0.083618433	20.142379	8.0626973	99.833577
457	3	8	0.087452003	19.135146	8.1598805	96.898107
458	3	8	0.087452003	20.264607	6.9269556	97.570989
459	3	8	0.088736617	18.048461	6.0015554	97.493824
460	3	8	0.088736617	18.561757	6.1834292	99.212631
461	3	8	0.089994223	17.152786	8.2828173	99.372599
462	3	8	0.089994223	16.698393	8.0821664	97.635251
463	3	3	0.059364011	16.08383	6.0547679	99.904057
464	3	3	0.059364011	15.742843	5.8470674	98.147958
465	3	7	0.32732015	13.910726	7.098328	98.372787
466	3	1	-0.49552531	-14.363236	-2.2344965	93.335883
467	3	2	0.10577022	-13.753725	-2.3719199	92.097129
468	3	2	0.079016217	-14.251938	-3.657941	91.420003
469	3	1	-0.4862738	-13.493399	-3.9128121	90.262345
470	3	2	0.059615684	-14.005976	-5.0649737	89.628281
471	3	2	0.059873482	-13.066952	-5.4605064	88.494969
472	3	1	-0.48637742	-13.59409	-6.5622535	87.782468
473	3	2	0.059873482	-14.345074	-6.1051515	86.673878
474	3	2	0.059873482	-15.116385	-7.2720705	86.066171
475	3	1	-0.48423064	-15.958117	-7.8705194	87.034985
476	3	2	0.052079258	-17.264424	-7.3379781	86.955925
477	3	2	0.074368471	-18.09034	-7.8869914	88.115413
478	3	10	-0.68046183	-19.39011	-7.3646007	88.080887
479	3	11	0.39073386	-19.873517	-7.8537649	87.365763
480	3	3	0.08737752	-18.119206	-9.0003621	88.08524
481	3	3	0.08737752	-17.616951	-7.5939995	89.076874
482	3	3	0.087860295	-17.747993	-7.6478195	86.00211
483	3	3	0.087860295	-17.254063	-6.2284851	87.043417
484	3	3	0.086797693	-15.664725	-6.9329339	85.154034
485	3	3	0.086797693	-14.391872	-8.038617	85.71819
486	3	3	0.086797693	-13.662444	-5.6936652	85.897333
487	3	3	0.086797693	-15.081879	-5.3262369	86.969581
488	3	3	0.086797693	-12.084381	-5.7557449	88.923079
489	3	3	0.086797693	-12.86243	-4.5797715	87.84067
490	3	3	0.086797693	-14.075551	-5.936164	90.324629
491	3	3	0.086797693	-15.010441	-4.8369902	89.209837
492	3	3	0.085473323	-14.140453	-4.515275	92.119043
493	3	3	0.085473323	-15.331617	-3.5180587	91.181367
494	3	3	0.093338468	-12.648917	-2.377727	92.210727
495	3	3	0.093338483	-13.999049	-1.5012585	91.454996
496	4	1	-0.49552531	5.2349182	63.682775	3.3385178
497	4	2	0.1057702	4.2185612	62.848704	2.9140341
498	4	2	0.079016217	4.7922741	61.515932	2.4203297
499	4	1	-0.4862738	3.7696195	60.819089	1.7571582
500	4	2	0.059615684	4.2950914	59.651836	1.1743901
501	4	2	0.059873482	3.2122562	59.051441	0.28858192
502	4	1	-0.48637742	3.6559988	57.84329	-0.28357275
503	4	2	0.059873482	3.3244069	56.758069	0.55710612
504	4	2	0.059615684	4.193796	55.583019	0.16506062
505	4	1	-0.4862738	5.557251	55.95675	0.29001353
506	4	2	0.079016217	6.1027955	55.377404	1.4503036
507	4	2	0.1057702	7.5526876	55.833388	1.6404093
508	4	1	-0.49552531	8.1518317	55.272548	2.7624944
509	4	3	0.093338491	8.1468371	55.562532	0.73824508
510	4	3	0.093338491	7.5707475	56.93763	1.7415659
511	4	3	0.085473323	6.0825947	54.282214	1.2990423
512	4	3	0.085473323	5.5304686	55.689324	2.3558602
513	4	3	0.086797693	3.8993305	54.691349	0.7736945
514	4	3	0.086797693	3.9950663	55.310017	-0.89249616
515	4	3	0.086797693	2.2536339	56.488516	0.43096258
516	4	3	0.086797693	3.5283129	56.969276	1.6325369
517	4	3	0.086797693	2.9886007	59.760496	-0.53679151
518	4	3	0.086797693	2.2619848	58.929669	0.85867278
519	4	3	0.086797693	5.1826008	59.858626	0.52662003
520	4	3	0.086797693	4.5767464	58.936599	1.9765294
521	4	3	0.085473323	5.6383582	61.695483	1.7237847
522	4	3	0.085473323	5.1769183	60.944151	3.294578
523	4	3	0.093338491	3.6365712	63.35883	2.1156755
524	4	3	0.093338491	3.5135318	62.648399	3.746777
525	4	4	0.78629755	8.4504231	53.951842	2.8086637
526	4	5	-0.60344643	9.619549	53.608648	2.7130144
527	4	6	-0.46429492	7.4641281	53.024059	2.9174907
528	4	2	0.026012787	7.6813476	51.615655	2.661202
529	4	2	-0.14375406	6.498131	51.064246	1.8538157
530	4	2	-0.14166119	6.6679111	49.563297	1.6094797
531	4	2	-0.14166119	5.513435	48.939781	0.81206825
532	4	2	-0.14375406	4.1244208	49.107741	1.4413724
533	4	2	0.026012765	4.0224868	48.580031	2.8829851
534	4	6	-0.46429492	2.6442393	48.638028	3.3170304
535	4	4	0.78629749	2.2320112	48.239342	4.5552931
536	4	5	-0.60344655	3.0505237	47.899393	5.3967808
537	4	7	0.32732009	1.9508334	48.967436	2.6328678
538	4	3	0.059364033	4.6527818	49.192066	3.5632284