Title

88 atoms
91 bonds
172 angles
368 dihedrals
18 impropers

11 atom types
14 bond types
9 angle types
39 dihedral types
3 improper types
-12.50599957 87.49400043 xlo xhi
-2.693000078 97.30699992 ylo yhi
-7.673999786 92.32600021 zlo zhi
0.0 0.0 0.0 xy xz yz

Masses

1	12.01078
2	15.99943
3	14.00672
4	12.01078
5	1.007947
6	1.007947
7	1.007947
8	15.99943
9	12.01078
10	15.99943
11	1.007947


Pair Coeffs

1	0.086879315	3.4806469
2	0.2102061	3.0398122
3	0.16769152	3.206876
4	0.10884061	3.3795318
5	0.014090815	1.1034277
6	0.016409246	2.5832257
7	0.015779483	2.6445434
8	0.16846514	3.0251065
9	0.21	3.3996695
10	0.20947353	2.99716
11	1.2326e-05	0.53453923

Bond Coeffs

1 harmonic	582.698766451	1.225198386222
2 harmonic	492.76746816345	1.381897776683
3 harmonic	279.1350963404	1.454628925034
4 harmonic	352.0565580496	1.450098586273
5 harmonic	505.144496193	1.019481865027
6 harmonic	264.62148576755	1.52190126495
7 harmonic	370.04670688625	1.093899492634
8 harmonic	301.15400723785	1.345741232799
9 harmonic	366.7408841747	1.425895053732
10 harmonic	300.03137914615	1.451203938761
11 harmonic	366.34047229585	1.464762957261
12 harmonic	602.81384337	1.196112346392
13 harmonic	329.96998057905	1.427343958716
14 harmonic	543.5267831885	0.9716763312559


Angle Coeffs

1 harmonic	55.42182150775	117.3465570514
2 harmonic	63.44422595415	115.5071327674
3 harmonic	57.8982893754	126.8062420451
4 harmonic	53.20531626545	116.5475862634
5 harmonic	65.09061609600001	110.3538806181
6 harmonic	201.41175231035	127.4691416191
7 harmonic	48.776492647595	115.6030999533
8 harmonic	55.07882548015	112.8714009681
9 harmonic	33.56981613361	180


Dihedral Coeffs

1 fourier 1	-0.1488678166443	4	180
2 fourier 1	-0.1230328948768	3	180
3 fourier 1	0.2939295466901	2	0
4 fourier 1	-0.3024127022865	1	0
5 fourier 1	0.182238503271	2	0
6 fourier 1	0.02972342374561	3	0
7 fourier 1	1.809047390003	2	180
8 fourier 1	-0.04816277792592	1	0
9 fourier 1	3.101948770557	2	180
10 fourier 1	-0.4252153282372	1	0
11 fourier 1	2.348375642009	2	180
12 fourier 1	1.256156174911	1	0
13 fourier 1	0.9974165607242	2	180
14 fourier 1	0.1155372516788	3	0
15 fourier 1	0.09223874044423	3	0
16 fourier 1	0.3159935921949	2	180
17 fourier 1	0.3247796806857	1	180
18 fourier 1	0.1040663847541	3	0
19 fourier 1	2.779853741805	2	180
20 fourier 1	0.0473758381877	3	0
21 fourier 1	0.1918272375143	3	0
22 fourier 1	0.9202179876409	1	180
23 fourier 1	0.4860993122944	2	180
24 fourier 1	0.8916986138746	1	0
25 fourier 1	1.163809172478	2	180
26 fourier 1	0.1679186987369	1	180
27 fourier 1	0.1911926717192	3	0
28 fourier 1	0.1115525666802	3	0
29 fourier 1	0.3432490222662	1	0
30 fourier 1	-0.0309670556842	3	0
31 fourier 1	0.4598191477945	2	0
32 fourier 1	0.4552156463534	3	0
33 fourier 1	-0.03687743385131	2	180
34 fourier 1	0.457973137376	1	0
35 fourier 1	-1.382973039546	1	0
36 fourier 1	0	1	0
37 fourier 1	0.3445382149273	3	0
38 fourier 1	0.1364556373303	1	0
39 fourier 1	0.3026390167484	3	0


Improper Coeffs

1 0.3333333333333333	-1	2
2 0.3666666666666667	-1	2
3 3.5	-1	2


Atoms

1	1	1	0.53409898	-4.6939998	1.331	-0.38600001
2	1	2	-0.74385703	-5.1230001	1.428	0.79500002
3	1	3	-0.53315502	-3.4430001	0.69599998	-0.66100001
4	1	4	0.024653001	-2.6159999	0.13600001	0.40700001
5	1	4	-0.15096	-1.3329999	-0.479	-0.161
6	1	4	-0.14740101	-0.45199999	-1.053	0.95899999
7	1	4	-0.14740101	0.75700003	-1.8430001	0.42699999
8	1	4	-0.149698	1.749	-1.023	-0.41800001
9	1	4	0.019183001	2.3959999	0.12800001	0.36399999
10	1	3	-0.49039701	3.4519999	0.76200002	-0.42399999
11	1	1	0.76558203	4.2150002	1.858	0.088
12	1	2	-0.67263901	3.9979999	2.3099999	1.244
13	1	5	0.31507099	3.668	0.42500001	-1.39
14	1	6	0.038463999	1.6289999	0.89200002	0.61000001
15	1	6	0.038463999	2.832	-0.264	1.309
16	1	7	0.074738003	1.249	-0.62900001	-1.3279999
17	1	7	0.074738003	2.55	-1.7130001	-0.75999999
18	1	7	0.073917001	1.301	-2.2809999	1.293
19	1	7	0.073917001	0.38800001	-2.6930001	-0.186
20	1	7	0.073917001	-0.114	-0.237	1.633
21	1	7	0.073917001	-1.063	-1.749	1.574
22	1	7	0.074738003	-0.77499998	0.31	-0.708
23	1	7	0.074738003	-1.602	-1.289	-0.875
24	1	6	0.035087001	-3.1960001	-0.64499998	0.94499999
25	1	6	0.035087001	-2.352	0.94400001	1.125
26	1	5	0.30729201	-3.1300001	0.63999999	-1.6569999
27	1	8	-0.50519198	4.9559999	2.2869999	-0.49700001
28	1	4	0.229155	4.881	3.671	-0.27500001
29	1	6	0.114722	3.8299999	4.0320001	-0.375
30	1	4	0.105134	5.7639999	4.4260001	-1.2460001
31	1	6	0.088464998	5.1880002	4.71	-2.152
32	1	6	0.088464998	6.6300001	3.8010001	-1.558
33	1	8	-0.41749701	6.2490001	5.585	-0.60900003
34	1	4	0.278128	6.0999999	5.4070001	0.78799999
35	1	6	0.113537	5.5050001	6.2480001	1.206
36	1	4	0.14482801	7.4349999	5.2919998	1.479
37	1	8	-0.088431999	8.4619999	5.9400001	0.77600002
38	1	6	0.121439	7.3629999	5.6810002	2.5220001
39	1	4	0.112842	7.6630001	3.796	1.517
40	1	6	0.085584	8.2349997	3.5139999	2.427
41	1	6	0.085584	8.2340002	3.4619999	0.62300003
42	1	8	-0.41547999	6.4130001	3.148	1.523
43	1	4	0.28097999	5.4429998	4.072	1.066
44	1	6	0.121396	4.6350002	4.1669998	1.825
45	1	1	0.53409898	-5.2810001	1.734	-1.2
46	1	2	-0.74385703	-5.3039999	1.13	-2.3050001
47	1	3	-0.53315502	-6.013	2.95	-1.011
48	1	4	0.024653001	-6.8260002	3.556	-2.0639999
49	1	4	-0.15096	-8.1389999	2.786	-2.2379999
50	1	4	-0.147211	-9.0120001	3.427	-3.3280001
51	1	4	-0.14297999	-10.394	2.7650001	-3.4449999
52	1	4	-0.127198	-10.327	1.36	-4.0650001
53	1	4	0.17825399	-11.726	0.75800002	-4.27
54	1	3	-0.71541101	-12.506	1.5190001	-5.2420001
55	1	9	0.58900899	-12.193	1.558	-6.4749999
56	1	2	-0.55427402	-11.887	1.597	-7.6739998
57	1	6	0.016735001	-11.632	-0.29699999	-4.6100001
58	1	6	0.016735001	-12.269	0.75099999	-3.3010001
59	1	7	0.068458997	-9.7629995	0.68199998	-3.3900001
60	1	7	0.068458997	-9.7910004	1.397	-5.0380001
61	1	7	0.072663002	-10.874	2.7149999	-2.4430001
62	1	7	0.072663002	-11.027	3.415	-4.0879998
63	1	7	0.073917001	-9.1660004	4.4990001	-3.079
64	1	7	0.073917001	-8.4879999	3.381	-4.3080001
65	1	7	0.074738003	-7.9089999	1.7359999	-2.513
66	1	7	0.074738003	-8.6890001	2.7869999	-1.271
67	1	6	0.035087001	-6.2540002	3.572	-3.0179999
68	1	6	0.035087001	-7.053	4.6069999	-1.783
69	1	5	0.30729201	-5.9109998	3.4530001	-0.101
70	1	8	-0.088431999	8.3299999	6.9130001	0.92299998
71	1	4	0.14569999	9.4530001	7.552	0.37400001
72	1	6	0.121439	10.394	7.0700002	0.72899997
73	1	4	0.111527	9.474	9.0209999	0.73699999
74	1	6	0.085584	10.05	9.1800003	1.673
75	1	6	0.085584	8.441	9.4040003	0.88700002
76	1	8	-0.40509301	10.073	9.7379999	-0.317
77	1	4	0.21179999	10.041	8.9200001	-1.472
78	1	6	0.117462	11.072	8.802	-1.87
79	1	4	0.225398	9.1149998	9.4799995	-2.523
80	1	10	-0.722381	8.9650002	10.872	-2.4219999
81	1	11	0.39288199	9.8050003	11.269	-2.7720001
82	1	6	0.086135	9.4709997	9.1929998	-3.5409999
83	1	4	0.047077999	7.8099999	8.7700005	-2.2309999
84	1	6	0.087142996	7.2389998	8.6079998	-3.1700001
85	1	6	0.087142996	7.184	9.3690004	-1.534
86	1	8	-0.40518701	8.0959997	7.5289998	-1.6289999
87	1	4	0.28457999	9.4209995	7.5819998	-1.1339999
88	1	6	0.114429	10.01	6.7410002	-1.563

Bonds

1	1	1	2
2	2	1	3
3	3	1	45
4	4	3	4
5	5	3	26
6	6	4	5
7	7	4	24
8	7	4	25
9	6	5	6
10	7	5	22
11	7	5	23
12	6	6	7
13	7	6	20
14	7	6	21
15	6	7	8
16	7	7	18
17	7	7	19
18	6	8	9
19	7	8	16
20	7	8	17
21	4	9	10
22	7	9	14
23	7	9	15
24	2	10	11
25	5	10	13
26	1	11	12
27	8	11	27
28	9	27	28
29	7	28	29
30	6	28	30
31	6	28	43
32	7	30	31
33	7	30	32
34	9	30	33
35	9	33	34
36	7	34	35
37	6	34	36
38	6	34	43
39	9	36	37
40	7	36	38
41	6	36	39
42	10	37	70
43	7	39	40
44	7	39	41
45	9	39	42
46	9	42	43
47	7	43	44
48	1	45	46
49	2	45	47
50	4	47	48
51	5	47	69
52	6	48	49
53	7	48	67
54	7	48	68
55	6	49	50
56	7	49	65
57	7	49	66
58	6	50	51
59	7	50	63
60	7	50	64
61	6	51	52
62	7	51	61
63	7	51	62
64	6	52	53
65	7	52	59
66	7	52	60
67	11	53	54
68	7	53	57
69	7	53	58
70	12	54	55
71	1	55	56
72	9	70	71
73	7	71	72
74	6	71	73
75	6	71	87
76	7	73	74
77	7	73	75
78	9	73	76
79	9	76	77
80	7	77	78
81	6	77	79
82	6	77	87
83	13	79	80
84	7	79	82
85	6	79	83
86	14	80	81
87	7	83	84
88	7	83	85
89	9	83	86
90	9	86	87
91	7	87	88

Angles

1	4	36	39	42
2	7	18	7	19
3	4	8	9	10
4	4	53	52	60
5	7	65	49	66
6	4	79	83	84
7	4	52	53	58
8	4	5	4	24
9	7	40	39	41
10	4	50	51	62
11	4	85	83	86
12	4	10	9	15
13	4	7	8	16
14	4	50	49	65
15	4	71	87	88
16	4	77	87	88
17	4	52	53	54
18	4	71	73	74
19	7	24	4	25
20	4	4	5	22
21	3	10	11	27
22	4	49	50	64
23	5	11	27	28
24	4	28	43	44
25	4	79	83	85
26	7	20	6	21
27	4	34	43	44
28	4	78	77	79
29	4	8	9	14
30	4	51	52	53
31	9	54	55	56
32	4	76	77	78
33	4	52	51	61
34	6	12	11	27
35	4	28	30	33
36	4	82	79	83
37	7	63	50	64
38	4	71	73	75
39	3	1	45	46
40	4	4	5	23
41	4	48	49	66
42	4	73	71	87
43	4	80	79	82
44	4	27	28	29
45	4	9	8	16
46	4	5	6	21
47	4	70	71	87
48	4	34	36	39
49	4	52	51	62
50	4	3	4	5
51	4	78	77	87
52	3	1	45	47
53	4	80	79	83
54	4	32	30	33
55	4	72	71	73
56	4	27	28	30
57	4	9	8	17
58	2	4	3	26
59	2	48	47	69
60	4	49	48	68
61	1	45	47	48
62	4	71	87	77
63	5	83	86	87
64	4	47	48	67
65	3	2	1	45
66	4	33	34	35
67	7	59	52	60
68	5	30	33	34
69	4	6	7	18
70	4	29	28	43
71	4	51	50	64
72	7	74	73	75
73	4	5	4	25
74	4	40	39	42
75	4	3	4	24
76	4	76	77	87
77	2	11	10	13
78	3	2	1	3
79	4	7	8	17
80	4	50	49	66
81	4	86	87	88
82	4	7	8	9
83	4	36	34	43
84	4	37	36	38
85	4	74	73	76
86	4	79	83	86
87	4	27	28	43
88	4	38	36	39
89	4	33	34	43
90	4	3	4	25
91	4	8	9	15
92	4	76	77	79
93	4	36	39	40
94	4	35	34	43
95	4	71	73	76
96	7	84	83	85
97	4	51	52	59
98	4	7	6	20
99	4	6	5	22
100	4	5	6	7
101	5	36	37	70
102	4	70	71	72
103	2	9	10	13
104	4	37	36	39
105	5	37	70	71
106	4	71	87	86
107	4	77	87	86
108	7	61	51	62
109	4	77	79	82
110	4	53	52	59
111	7	14	9	15
112	4	28	43	42
113	2	1	3	26
114	4	8	7	18
115	4	52	53	57
116	4	34	43	42
117	4	84	83	86
118	4	7	6	21
119	4	10	9	14
120	3	3	1	45
121	4	47	48	49
122	4	6	5	23
123	4	50	51	52
124	8	53	54	55
125	4	75	73	76
126	4	70	71	73
127	4	28	30	31
128	4	30	28	43
129	5	73	76	77
130	4	47	48	68
131	4	41	39	42
132	4	33	34	36
133	4	48	49	50
134	4	77	79	83
135	7	57	53	58
136	4	6	7	19
137	5	39	42	43
138	4	49	50	51
139	5	79	80	81
140	7	16	8	17
141	4	35	34	36
142	4	8	7	19
143	4	28	43	34
144	4	42	43	44
145	4	34	36	37
146	4	28	30	32
147	4	54	53	57
148	4	48	49	65
149	4	49	50	63
150	7	22	5	23
151	2	45	47	69
152	4	51	50	63
153	1	9	10	11
154	3	46	45	47
155	4	72	71	87
156	4	5	6	20
157	7	31	30	32
158	4	34	36	38
159	4	36	39	41
160	3	10	11	12
161	4	77	79	80
162	7	67	48	68
163	4	54	53	58
164	4	29	28	30
165	4	51	52	60
166	4	6	7	8
167	4	50	51	61
168	4	79	77	87
169	1	1	3	4
170	4	4	5	6
171	4	49	48	67
172	4	31	30	33

Dihedrals

1	7	9	10	11	27
1	8	9	10	11	27
2	18	7	8	9	15
3	27	58	53	52	59
4	1	8	9	10	11
4	2	8	9	10	11
4	3	8	9	10	11
4	4	8	9	10	11
5	27	63	50	49	65
6	27	64	50	49	66
7	20	30	33	34	35
8	18	5	6	7	19
9	18	4	5	6	21
10	28	29	28	43	42
10	29	29	28	43	42
11	28	37	36	39	41
11	29	37	36	39	41
12	18	52	51	50	64
13	20	38	36	37	70
14	21	11	27	28	30
14	22	11	27	28	30
15	18	50	51	52	60
16	7	9	10	11	12
16	8	9	10	11	12
17	30	33	34	36	37
17	31	33	34	36	37
18	5	24	4	3	26
18	6	24	4	3	26
19	18	82	79	77	87
20	27	14	9	8	17
21	28	78	77	87	86
21	29	78	77	87	86
22	18	36	34	43	44
23	14	71	87	77	76
24	27	23	5	4	25
25	20	85	83	86	87
26	14	73	71	87	86
27	27	20	6	5	23
28	11	2	1	3	26
28	12	2	1	3	26
29	32	30	33	34	43
29	33	30	33	34	43
30	18	29	28	43	34
31	18	34	36	39	41
32	27	57	53	52	59
33	5	25	4	3	26
33	6	25	4	3	26
34	28	72	71	87	86
34	29	72	71	87	86
35	5	1	3	4	25
35	6	1	3	4	25
36	28	33	34	36	38
36	29	33	34	36	38
37	18	49	50	51	62
38	32	71	73	76	77
38	33	71	73	76	77
39	25	12	11	27	28
39	26	12	11	27	28
40	37	81	80	79	83
40	38	81	80	79	83
41	27	60	52	51	61
42	15	5	6	7	8
42	16	5	6	7	8
42	17	5	6	7	8
43	18	7	6	5	23
44	28	70	71	87	88
44	29	70	71	87	88
45	14	79	77	87	86
46	1	45	47	48	49
46	2	45	47	48	49
46	3	45	47	48	49
46	4	45	47	48	49
47	14	3	4	5	6
48	27	62	51	50	64
49	27	21	6	5	22
50	27	16	8	7	18
51	14	10	9	8	16
52	27	29	28	30	32
53	27	35	34	36	38
54	20	37	70	71	73
55	5	68	48	47	69
55	6	68	48	47	69
56	18	78	77	79	83
57	21	11	27	28	43
57	22	11	27	28	43
58	14	76	73	71	87
59	18	28	43	34	35
60	5	45	47	48	68
60	6	45	47	48	68
61	14	47	48	49	66
62	27	57	53	52	60
63	27	66	49	48	67
64	5	67	48	47	69
64	6	67	48	47	69
65	32	28	43	42	39
65	33	28	43	42	39
66	27	38	36	39	40
67	35	52	53	54	55
68	15	50	51	52	53
68	16	50	51	52	53
68	17	50	51	52	53
69	5	5	4	3	26
69	6	5	4	3	26
70	18	77	79	83	85
71	14	30	28	43	42
72	28	35	34	43	42
72	29	35	34	43	42
73	32	36	39	42	43
73	33	36	39	42	43
74	27	65	49	48	68
75	28	80	79	83	85
75	29	80	79	83	85
76	18	9	8	7	19
77	28	82	79	83	86
77	29	82	79	83	86
78	32	34	43	42	39
78	33	34	43	42	39
79	18	48	49	50	64
80	27	15	9	8	17
81	20	32	30	33	34
82	18	75	73	71	87
83	28	70	71	73	75
83	29	70	71	73	75
84	27	21	6	5	23
85	27	16	8	7	19
86	28	29	28	30	33
86	29	29	28	30	33
87	18	35	34	36	39
88	20	84	83	86	87
89	18	74	73	71	87
90	32	79	83	86	87
90	33	79	83	86	87
91	14	3	4	5	22
92	20	31	30	33	34
93	9	46	45	47	48
93	10	46	45	47	48
94	5	11	10	9	14
94	6	11	10	9	14
95	27	58	53	52	60
96	27	63	50	49	66
97	32	30	33	34	36
97	33	30	33	34	36
98	20	83	86	87	88
99	15	4	5	6	7
99	16	4	5	6	7
99	17	4	5	6	7
100	18	51	52	53	57
101	27	72	71	73	74
102	13	3	1	45	46
103	14	77	79	83	86
104	30	27	28	43	42
104	31	27	28	43	42
105	13	2	1	45	46
106	28	78	77	79	80
106	29	78	77	79	80
107	30	37	36	39	42
107	31	37	36	39	42
108	7	1	45	47	48
108	8	1	45	47	48
109	15	30	28	43	34
109	16	30	28	43	34
109	17	30	28	43	34
110	28	33	34	43	44
110	29	33	34	43	44
111	30	70	71	73	76
111	31	70	71	73	76
112	27	61	51	50	63
113	28	76	77	79	82
113	29	76	77	79	82
114	27	19	7	6	20
115	28	27	28	30	31
115	29	27	28	30	31
116	9	2	1	3	4
116	10	2	1	3	4
117	27	17	8	7	18
118	30	76	77	87	86
118	31	76	77	87	86
119	14	3	4	5	23
120	18	31	30	28	43
121	35	55	54	53	57
122	14	7	8	9	10
123	15	39	36	34	43
123	16	39	36	34	43
123	17	39	36	34	43
124	23	12	11	10	13
124	24	12	11	10	13
125	18	51	52	53	58
126	27	59	52	51	61
127	14	70	71	87	77
128	18	50	49	48	67
129	13	2	1	45	47
130	27	29	28	43	44
131	18	52	51	50	63
132	14	27	28	43	34
133	5	13	10	9	14
133	6	13	10	9	14
134	18	53	52	51	61
135	14	34	36	39	42
136	34	36	37	70	71
137	14	33	34	36	39
138	14	51	52	53	54
139	20	39	36	37	70
140	15	49	50	51	52
140	16	49	50	51	52
140	17	49	50	51	52
141	20	34	36	37	70
142	27	60	52	51	62
143	18	6	5	4	24
144	27	78	77	87	88
145	27	82	79	83	84
146	14	54	53	52	59
147	27	59	52	51	62
148	18	71	87	77	78
149	7	13	10	11	27
149	8	13	10	11	27
150	14	10	9	8	17
151	18	73	71	87	88
152	5	13	10	9	15
152	6	13	10	9	15
153	15	28	43	34	36
153	16	28	43	34	36
153	17	28	43	34	36
154	27	66	49	48	68
155	14	36	34	43	42
156	27	64	50	49	65
157	27	72	71	87	88
158	14	37	36	34	43
159	27	38	36	39	41
160	18	32	30	28	43
161	18	51	50	49	65
162	14	80	79	77	87
163	18	6	7	8	16
164	30	80	79	83	86
164	31	80	79	83	86
165	18	4	5	6	20
166	20	11	27	28	29
167	15	48	49	50	51
167	16	48	49	50	51
167	17	48	49	50	51
168	18	50	51	52	59
169	14	54	53	52	60
170	27	62	51	50	63
171	7	26	3	1	45
171	8	26	3	1	45
172	20	73	76	77	78
173	32	71	87	86	83
173	33	71	87	86	83
174	27	14	9	8	16
175	5	11	10	9	15
175	6	11	10	9	15
176	5	8	9	10	13
176	6	8	9	10	13
177	27	18	7	6	20
178	30	70	71	87	86
178	31	70	71	87	86
179	28	38	36	39	42
179	29	38	36	39	42
180	20	39	42	43	44
181	27	72	71	73	75
182	13	3	1	45	47
183	18	51	50	49	66
184	18	6	7	8	17
185	18	30	28	43	44
186	27	23	5	4	24
187	27	35	34	43	44
188	14	33	30	28	43
189	27	20	6	5	22
190	36	53	54	55	56
191	18	48	49	50	63
192	32	77	87	86	83
192	33	77	87	86	83
193	14	28	43	34	33
194	15	6	7	8	9
194	16	6	7	8	9
194	17	6	7	8	9
195	18	34	36	39	40
196	20	37	70	71	87
197	18	8	7	6	20
198	14	47	48	49	50
199	5	1	3	4	24
199	6	1	3	4	24
200	18	49	50	51	61
201	32	73	76	77	79
201	33	73	76	77	79
202	27	19	7	6	21
203	28	27	28	30	32
203	29	27	28	30	32
204	27	17	8	7	19
205	14	76	77	79	83
206	5	49	48	47	69
206	6	49	48	47	69
207	39	81	80	79	82
208	27	18	7	6	21
209	18	7	6	5	22
210	35	55	54	53	58
211	20	75	73	76	77
212	27	22	5	4	24
213	7	4	3	1	45
213	8	4	3	1	45
214	11	46	45	47	69
214	12	46	45	47	69
215	19	10	11	27	28
216	28	27	28	43	44
216	29	27	28	43	44
217	27	29	28	30	31
218	28	35	34	36	37
218	29	35	34	36	37
219	20	37	70	71	72
220	18	50	49	48	68
221	28	72	71	73	76
221	29	72	71	73	76
222	20	74	73	76	77
223	27	78	77	79	82
224	15	83	79	77	87
224	16	83	79	77	87
224	17	83	79	77	87
225	18	53	52	51	62
226	20	41	39	42	43
227	18	7	8	9	14
228	5	45	47	48	67
228	6	45	47	48	67
229	14	47	48	49	65
230	15	73	71	87	77
230	16	73	71	87	77
230	17	73	71	87	77
231	18	8	7	6	21
232	37	77	79	80	81
232	38	77	79	80	81
233	30	27	28	30	33
233	31	27	28	30	33
234	20	40	39	42	43
235	18	5	6	7	18
236	7	1	45	47	69
236	8	1	45	47	69
237	18	72	71	87	77
238	28	76	77	87	88
238	29	76	77	87	88
239	18	77	79	83	84
240	27	65	49	48	67
241	18	6	5	4	25
242	28	80	79	83	84
242	29	80	79	83	84
243	1	1	3	4	5
243	2	1	3	4	5
243	3	1	3	4	5
243	4	1	3	4	5
244	28	37	36	39	40
244	29	37	36	39	40
245	18	9	8	7	18
246	27	82	79	83	85
247	32	28	30	33	34
247	33	28	30	33	34
248	30	33	34	43	42
248	31	33	34	43	42
249	18	79	77	87	88
250	32	73	76	77	87
250	33	73	76	77	87
251	27	15	9	8	16
252	27	22	5	4	25
253	28	70	71	73	74
253	29	70	71	73	74
254	15	71	87	77	79
254	16	71	87	77	79
254	17	71	87	77	79
255	30	76	77	79	80
255	31	76	77	79	80
256	27	61	51	50	64
257	18	38	36	34	43

Impropers

8	1	47	69	45	48
63	3	11	27	10	12
110	1	10	9	11	13
158	1	3	4	26	1
195	2	1	3	45	2
207	1	10	11	13	9
234	3	11	12	27	10
278	2	1	45	2	3
298	2	1	2	3	45
341	1	3	1	4	26
350	1	47	45	48	69
402	2	45	47	1	46
421	2	45	1	46	47
474	3	11	10	12	27
477	1	3	26	1	4
527	1	10	13	9	11
551	2	45	46	47	1
558	1	47	48	69	45
