Title

88 atoms
91 bonds
172 angles
368 dihedrals
18 impropers

11 atom types
14 bond types
9 angle types
39 dihedral types
3 improper types
-12.50599957 87.49400043 xlo xhi
-2.693000078 97.30699992 ylo yhi
-7.673999786 92.32600021 zlo zhi
0.0 0.0 0.0 xy xz yz

Masses

1	12.01078
2	15.99943
3	14.00672
4	12.01078
5	1.007947
6	1.007947
7	1.007947
8	15.99943
9	12.01078
10	15.99943
11	1.007947


Pair Coeffs

1	0.086879315	3.4806469
2	0.2102061	3.0398122
3	0.16769152	3.206876
4	0.10884061	3.3795318
5	0.014090815	1.1034277
6	0.016409246	2.5832257
7	0.015779483	2.6445434
8	0.16846514	3.0251065
9	0.21	3.3996695
10	0.20947353	2.99716
11	1.2326e-05	0.53453923

Bond Coeffs

1 harmonic	582.698766451	1.225198386222
2 harmonic	492.76746816345	1.381897776683
3 harmonic	279.1350963404	1.454628925034
4 harmonic	352.0565580496	1.450098586273
5 harmonic	505.144496193	1.019481865027
6 harmonic	264.62148576755	1.52190126495
7 harmonic	370.04670688625	1.093899492634
8 harmonic	301.15400723785	1.345741232799
9 harmonic	366.7408841747	1.425895053732
10 harmonic	300.03137914615	1.451203938761
11 harmonic	366.34047229585	1.464762957261
12 harmonic	602.81384337	1.196112346392
13 harmonic	329.96998057905	1.427343958716
14 harmonic	543.5267831885	0.9716763312559


Angle Coeffs

1 harmonic	55.42182150775	117.3465570514
2 harmonic	63.44422595415	115.5071327674
3 harmonic	57.8982893754	126.8062420451
4 harmonic	53.20531626545	116.5475862634
5 harmonic	65.09061609600001	110.3538806181
6 harmonic	201.41175231035	127.4691416191
7 harmonic	48.776492647595	115.6030999533
8 harmonic	55.07882548015	112.8714009681
9 harmonic	33.56981613361	180


Dihedral Coeffs

1 fourier 1	-0.1488678166443	4	180
2 fourier 1	-0.1230328948768	3	180
3 fourier 1	0.2939295466901	2	0
4 fourier 1	-0.3024127022865	1	0
5 fourier 1	0.182238503271	2	0
6 fourier 1	0.02972342374561	3	0
7 fourier 1	1.809047390003	2	180
8 fourier 1	-0.04816277792592	1	0
9 fourier 1	3.101948770557	2	180
10 fourier 1	-0.4252153282372	1	0
11 fourier 1	2.348375642009	2	180
12 fourier 1	1.256156174911	1	0
13 fourier 1	0.9974165607242	2	180
14 fourier 1	0.1155372516788	3	0
15 fourier 1	0.09223874044423	3	0
16 fourier 1	0.3159935921949	2	180
17 fourier 1	0.3247796806857	1	180
18 fourier 1	0.1040663847541	3	0
19 fourier 1	2.779853741805	2	180
20 fourier 1	0.0473758381877	3	0
21 fourier 1	0.1918272375143	3	0
22 fourier 1	0.9202179876409	1	180
23 fourier 1	0.4860993122944	2	180
24 fourier 1	0.8916986138746	1	0
25 fourier 1	1.163809172478	2	180
26 fourier 1	0.1679186987369	1	180
27 fourier 1	0.1911926717192	3	0
28 fourier 1	0.1115525666802	3	0
29 fourier 1	0.3432490222662	1	0
30 fourier 1	-0.0309670556842	3	0
31 fourier 1	0.4598191477945	2	0
32 fourier 1	0.4552156463534	3	0
33 fourier 1	-0.03687743385131	2	180
34 fourier 1	0.457973137376	1	0
35 fourier 1	-1.382973039546	1	0
36 fourier 1	0	1	0
37 fourier 1	0.3445382149273	3	0
38 fourier 1	0.1364556373303	1	0
39 fourier 1	0.3026390167484	3	0


Improper Coeffs

1 0.3333333333333333	-1	2
2 0.3666666666666667	-1	2
3 3.5	-1	2


Atoms

1	1	1	0.53409898	-4.6939998	1.331	-0.38600001
2	1	2	-0.74385703	-5.1230001	1.428	0.79500002
3	1	3	-0.53315502	-3.4430001	0.69599998	-0.66100001
4	1	4	0.024653001	-2.6159999	0.13600001	0.40700001
5	1	4	-0.15096	-1.3329999	-0.479	-0.161
6	1	4	-0.14740101	-0.45199999	-1.053	0.95899999
7	1	4	-0.14740101	0.75700003	-1.8430001	0.42699999
8	1	4	-0.149698	1.749	-1.023	-0.41800001
9	1	4	0.019183001	2.3959999	0.12800001	0.36399999
10	1	3	-0.49039701	3.4519999	0.76200002	-0.42399999
11	1	1	0.76558203	4.2150002	1.858	0.088
12	1	2	-0.67263901	3.9979999	2.3099999	1.244
13	1	5	0.31507099	3.668	0.42500001	-1.39
14	1	6	0.038463999	1.6289999	0.89200002	0.61000001
15	1	6	0.038463999	2.832	-0.264	1.309
16	1	7	0.074738003	1.249	-0.62900001	-1.3279999
17	1	7	0.074738003	2.55	-1.7130001	-0.75999999
18	1	7	0.073917001	1.301	-2.2809999	1.293
19	1	7	0.073917001	0.38800001	-2.6930001	-0.186
20	1	7	0.073917001	-0.114	-0.237	1.633
21	1	7	0.073917001	-1.063	-1.749	1.574
22	1	7	0.074738003	-0.77499998	0.31	-0.708
23	1	7	0.074738003	-1.602	-1.289	-0.875
24	1	6	0.035087001	-3.1960001	-0.64499998	0.94499999
25	1	6	0.035087001	-2.352	0.94400001	1.125
26	1	5	0.30729201	-3.1300001	0.63999999	-1.6569999
27	1	8	-0.50519198	4.9559999	2.2869999	-0.49700001
28	1	4	0.229155	4.881	3.671	-0.27500001
29	1	6	0.114722	3.8299999	4.0320001	-0.375
30	1	4	0.105134	5.7639999	4.4260001	-1.2460001
31	1	6	0.088464998	5.1880002	4.71	-2.152
32	1	6	0.088464998	6.6300001	3.8010001	-1.558
33	1	8	-0.41749701	6.2490001	5.585	-0.60900003
34	1	4	0.278128	6.0999999	5.4070001	0.78799999
35	1	6	0.113537	5.5050001	6.2480001	1.206
36	1	4	0.14482801	7.4349999	5.2919998	1.479
37	1	8	-0.088431999	8.4619999	5.9400001	0.77600002
38	1	6	0.121439	7.3629999	5.6810002	2.5220001
39	1	4	0.112842	7.6630001	3.796	1.517
40	1	6	0.085584	8.2349997	3.5139999	2.427
41	1	6	0.085584	8.2340002	3.4619999	0.62300003
42	1	8	-0.41547999	6.4130001	3.148	1.523
43	1	4	0.28097999	5.4429998	4.072	1.066
44	1	6	0.121396	4.6350002	4.1669998	1.825
45	1	1	0.53409898	-5.2810001	1.734	-1.2
46	1	2	-0.74385703	-5.3039999	1.13	-2.3050001
47	1	3	-0.53315502	-6.013	2.95	-1.011
48	1	4	0.024653001	-6.8260002	3.556	-2.0639999
49	1	4	-0.15096	-8.1389999	2.786	-2.2379999
50	1	4	-0.147211	-9.0120001	3.427	-3.3280001
51	1	4	-0.14297999	-10.394	2.7650001	-3.4449999
52	1	4	-0.127198	-10.327	1.36	-4.0650001
53	1	4	0.17825399	-11.726	0.75800002	-4.27
54	1	3	-0.71541101	-12.506	1.5190001	-5.2420001
55	1	9	0.58900899	-12.193	1.558	-6.4749999
56	1	2	-0.55427402	-11.887	1.597	-7.6739998
57	1	6	0.016735001	-11.632	-0.29699999	-4.6100001
58	1	6	0.016735001	-12.269	0.75099999	-3.3010001
59	1	7	0.068458997	-9.7629995	0.68199998	-3.3900001
60	1	7	0.068458997	-9.7910004	1.397	-5.0380001
61	1	7	0.072663002	-10.874	2.7149999	-2.4430001
62	1	7	0.072663002	-11.027	3.415	-4.0879998
63	1	7	0.073917001	-9.1660004	4.4990001	-3.079
64	1	7	0.073917001	-8.4879999	3.381	-4.3080001
65	1	7	0.074738003	-7.9089999	1.7359999	-2.513
66	1	7	0.074738003	-8.6890001	2.7869999	-1.271
67	1	6	0.035087001	-6.2540002	3.572	-3.0179999
68	1	6	0.035087001	-7.053	4.6069999	-1.783
69	1	5	0.30729201	-5.9109998	3.4530001	-0.101
70	1	8	-0.088431999	8.3299999	6.9130001	0.92299998
71	1	4	0.14569999	9.4530001	7.552	0.37400001
72	1	6	0.121439	10.394	7.0700002	0.72899997
73	1	4	0.111527	9.474	9.0209999	0.73699999
74	1	6	0.085584	10.05	9.1800003	1.673
75	1	6	0.085584	8.441	9.4040003	0.88700002
76	1	8	-0.40509301	10.073	9.7379999	-0.317
77	1	4	0.21179999	10.041	8.9200001	-1.472
78	1	6	0.117462	11.072	8.802	-1.87
79	1	4	0.225398	9.1149998	9.4799995	-2.523
80	1	10	-0.722381	8.9650002	10.872	-2.4219999
81	1	11	0.39288199	9.8050003	11.269	-2.7720001
82	1	6	0.086135	9.4709997	9.1929998	-3.5409999
83	1	4	0.047077999	7.8099999	8.7700005	-2.2309999
84	1	6	0.087142996	7.2389998	8.6079998	-3.1700001
85	1	6	0.087142996	7.184	9.3690004	-1.534
86	1	8	-0.40518701	8.0959997	7.5289998	-1.6289999
87	1	4	0.28457999	9.4209995	7.5819998	-1.1339999
88	1	6	0.114429	10.01	6.7410002	-1.563

Bonds

1	1	1	2
2	2	1	3
3	3	1	45
4	4	3	4
5	5	3	26
6	6	4	5
7	7	4	24
8	7	4	25
9	6	5	6
10	7	5	22
11	7	5	23
12	6	6	7
13	7	6	20
14	7	6	21
15	6	7	8
16	7	7	18
17	7	7	19
18	6	8	9
19	7	8	16
20	7	8	17
21	4	9	10
22	7	9	14
23	7	9	15
24	2	10	11
25	5	10	13
26	1	11	12
27	8	11	27
28	9	27	28
29	7	28	29
30	6	28	30
31	6	28	43
32	7	30	31
33	7	30	32
34	9	30	33
35	9	33	34
36	7	34	35
37	6	34	36
38	6	34	43
39	9	36	37
40	7	36	38
41	6	36	39
42	10	37	70
43	7	39	40
44	7	39	41
45	9	39	42
46	9	42	43
47	7	43	44
48	1	45	46
49	2	45	47
50	4	47	48
51	5	47	69
52	6	48	49
53	7	48	67
54	7	48	68
55	6	49	50
56	7	49	65
57	7	49	66
58	6	50	51
59	7	50	63
60	7	50	64
61	6	51	52
62	7	51	61
63	7	51	62
64	6	52	53
65	7	52	59
66	7	52	60
67	11	53	54
68	7	53	57
69	7	53	58
70	12	54	55
71	1	55	56
72	9	70	71
73	7	71	72
74	6	71	73
75	6	71	87
76	7	73	74
77	7	73	75
78	9	73	76
79	9	76	77
80	7	77	78
81	6	77	79
82	6	77	87
83	13	79	80
84	7	79	82
85	6	79	83
86	14	80	81
87	7	83	84
88	7	83	85
89	9	83	86
90	9	86	87
91	7	87	88

Angles

1	4	50	49	66
2	4	28	30	33
3	4	48	49	50
4	4	51	52	53
5	4	8	9	14
6	3	10	11	27
7	7	22	5	23
8	2	48	47	69
9	4	7	8	9
10	4	51	52	60
11	4	77	87	88
12	4	10	9	15
13	4	77	79	83
14	5	11	27	28
15	4	27	28	43
16	4	34	36	37
17	4	6	7	18
18	4	28	30	32
19	4	3	4	5
20	1	1	3	4
21	4	50	51	52
22	4	72	71	87
23	4	34	43	44
24	4	71	73	76
25	4	73	71	87
26	4	49	50	64
27	4	71	87	88
28	4	29	28	43
29	4	48	49	65
30	4	79	83	85
31	4	7	6	21
32	4	42	43	44
33	4	8	9	10
34	4	47	48	68
35	4	71	73	74
36	4	70	71	73
37	1	9	10	11
38	7	67	48	68
39	4	38	36	39
40	4	76	77	87
41	3	1	45	46
42	4	4	5	22
43	4	6	7	8
44	4	28	30	31
45	4	84	83	86
46	4	5	6	20
47	4	8	9	15
48	4	47	48	67
49	4	79	83	86
50	4	30	28	43
51	4	52	53	58
52	4	3	4	25
53	4	4	5	23
54	4	49	50	51
55	4	53	52	60
56	4	74	73	76
57	4	71	73	75
58	3	3	1	45
59	4	50	51	62
60	7	59	52	60
61	7	14	9	15
62	4	78	77	79
63	7	84	83	85
64	7	63	50	64
65	4	54	53	58
66	4	6	7	19
67	5	30	33	34
68	4	34	36	39
69	4	33	34	36
70	4	50	51	61
71	4	34	43	42
72	4	77	87	86
73	7	61	51	62
74	5	73	76	77
75	2	9	10	13
76	4	9	8	16
77	4	77	79	82
78	4	9	8	17
79	4	49	48	68
80	4	34	36	38
81	4	36	39	40
82	3	46	45	47
83	2	11	10	13
84	5	39	42	43
85	4	49	50	63
86	4	8	7	18
87	7	74	73	75
88	4	27	28	29
89	4	33	34	43
90	4	35	34	36
91	4	54	53	57
92	4	49	48	67
93	4	6	5	23
94	4	36	39	42
95	4	50	49	65
96	3	2	1	45
97	4	4	5	6
98	7	24	4	25
99	4	36	34	43
100	4	33	34	35
101	4	71	87	86
102	5	83	86	87
103	7	65	49	66
104	4	5	6	21
105	4	51	50	64
106	4	7	6	20
107	1	45	47	48
108	4	27	28	30
109	4	28	43	34
110	4	32	30	33
111	4	36	39	41
112	4	51	52	59
113	4	52	51	61
114	4	3	4	24
115	9	54	55	56
116	4	80	79	82
117	4	75	73	76
118	4	82	79	83
119	4	52	53	57
120	4	70	71	87
121	4	53	52	59
122	4	47	48	49
123	4	77	79	80
124	4	79	83	84
125	4	40	39	42
126	3	10	11	12
127	2	1	3	26
128	4	76	77	79
129	4	72	71	73
130	3	2	1	3
131	4	28	43	44
132	4	51	50	63
133	4	52	53	54
134	4	5	4	25
135	2	45	47	69
136	7	57	53	58
137	7	16	8	17
138	7	20	6	21
139	7	18	7	19
140	4	79	77	87
141	4	29	28	30
142	7	31	30	32
143	7	40	39	41
144	2	4	3	26
145	4	28	43	42
146	4	6	5	22
147	4	10	9	14
148	5	37	70	71
149	4	5	6	7
150	3	1	45	47
151	5	79	80	81
152	4	5	4	24
153	4	71	87	77
154	5	36	37	70
155	4	48	49	66
156	4	52	51	62
157	4	76	77	78
158	4	85	83	86
159	4	86	87	88
160	4	7	8	16
161	4	7	8	17
162	4	41	39	42
163	4	35	34	43
164	8	53	54	55
165	4	8	7	19
166	4	37	36	39
167	4	31	30	33
168	4	37	36	38
169	4	70	71	72
170	4	78	77	87
171	4	80	79	83
172	6	12	11	27

Dihedrals

1	14	30	28	43	42
2	18	6	5	4	24
3	18	4	5	6	20
4	14	10	9	8	16
5	28	33	34	36	38
5	29	33	34	36	38
6	14	10	9	8	17
7	7	9	10	11	27
7	8	9	10	11	27
8	15	71	87	77	79
8	16	71	87	77	79
8	17	71	87	77	79
9	18	48	49	50	63
10	30	33	34	43	42
10	31	33	34	43	42
11	14	28	43	34	33
12	20	37	70	71	73
13	39	81	80	79	82
14	5	24	4	3	26
14	6	24	4	3	26
15	18	8	7	6	21
16	27	29	28	30	32
17	28	76	77	87	88
17	29	76	77	87	88
18	14	76	77	79	83
19	32	73	76	77	87
19	33	73	76	77	87
20	20	39	42	43	44
21	1	8	9	10	11
21	2	8	9	10	11
21	3	8	9	10	11
21	4	8	9	10	11
22	27	64	50	49	65
23	15	49	50	51	52
23	16	49	50	51	52
23	17	49	50	51	52
24	27	65	49	48	68
25	27	72	71	73	74
26	15	50	51	52	53
26	16	50	51	52	53
26	17	50	51	52	53
27	18	79	77	87	88
28	18	52	51	50	64
29	37	77	79	80	81
29	38	77	79	80	81
30	28	80	79	83	85
30	29	80	79	83	85
31	20	32	30	33	34
32	18	50	51	52	60
33	18	53	52	51	62
34	35	55	54	53	58
35	32	71	73	76	77
35	33	71	73	76	77
36	20	75	73	76	77
37	28	27	28	30	31
37	29	27	28	30	31
38	18	49	50	51	61
39	27	65	49	48	67
40	27	78	77	79	82
41	34	36	37	70	71
42	18	51	50	49	66
43	14	76	73	71	87
44	13	2	1	45	46
45	32	71	87	86	83
45	33	71	87	86	83
46	18	35	34	36	39
47	18	50	49	48	68
48	27	72	71	73	75
49	28	35	34	43	42
49	29	35	34	43	42
50	18	31	30	28	43
51	27	29	28	30	31
52	28	72	71	87	86
52	29	72	71	87	86
53	27	17	8	7	19
54	27	35	34	36	38
55	20	85	83	86	87
56	21	11	27	28	30
56	22	11	27	28	30
57	27	78	77	87	88
58	28	70	71	87	88
58	29	70	71	87	88
59	18	32	30	28	43
60	28	70	71	73	74
60	29	70	71	73	74
61	18	82	79	77	87
62	18	75	73	71	87
63	5	1	3	4	25
63	6	1	3	4	25
64	15	28	43	34	36
64	16	28	43	34	36
64	17	28	43	34	36
65	14	51	52	53	54
66	20	40	39	42	43
67	27	18	7	6	21
68	27	57	53	52	59
69	9	46	45	47	48
69	10	46	45	47	48
70	18	36	34	43	44
71	5	8	9	10	13
71	6	8	9	10	13
72	27	58	53	52	60
73	18	7	8	9	14
74	11	2	1	3	26
74	12	2	1	3	26
75	5	68	48	47	69
75	6	68	48	47	69
76	18	4	5	6	21
77	18	49	50	51	62
78	27	19	7	6	21
79	19	10	11	27	28
80	5	67	48	47	69
80	6	67	48	47	69
81	5	1	3	4	24
81	6	1	3	4	24
82	28	38	36	39	42
82	29	38	36	39	42
83	30	37	36	39	42
83	31	37	36	39	42
84	27	63	50	49	66
85	28	27	28	43	44
85	29	27	28	43	44
86	5	11	10	9	14
86	6	11	10	9	14
87	5	45	47	48	68
87	6	45	47	48	68
88	14	73	71	87	86
89	27	20	6	5	23
90	20	73	76	77	78
91	32	28	30	33	34
91	33	28	30	33	34
92	27	61	51	50	64
93	11	46	45	47	69
93	12	46	45	47	69
94	27	15	9	8	16
95	20	11	27	28	29
96	27	15	9	8	17
97	18	38	36	34	43
98	18	28	43	34	35
99	27	38	36	39	41
100	32	30	33	34	36
100	33	30	33	34	36
101	28	37	36	39	41
101	29	37	36	39	41
102	15	5	6	7	8
102	16	5	6	7	8
102	17	5	6	7	8
103	32	34	43	42	39
103	33	34	43	42	39
104	7	9	10	11	12
104	8	9	10	11	12
105	18	72	71	87	77
106	18	8	7	6	20
107	13	3	1	45	47
108	25	12	11	27	28
108	26	12	11	27	28
109	27	29	28	43	44
110	15	39	36	34	43
110	16	39	36	34	43
110	17	39	36	34	43
111	30	70	71	73	76
111	31	70	71	73	76
112	7	13	10	11	27
112	8	13	10	11	27
113	7	26	3	1	45
113	8	26	3	1	45
114	5	45	47	48	67
114	6	45	47	48	67
115	18	52	51	50	63
116	18	50	51	52	59
117	30	76	77	87	86
117	31	76	77	87	86
118	27	82	79	83	84
119	15	83	79	77	87
119	16	83	79	77	87
119	17	83	79	77	87
120	5	13	10	9	15
120	6	13	10	9	15
121	28	76	77	79	82
121	29	76	77	79	82
122	18	77	79	83	85
123	35	55	54	53	57
124	27	61	51	50	63
125	32	73	76	77	79
125	33	73	76	77	79
126	32	30	33	34	43
126	33	30	33	34	43
127	32	77	87	86	83
127	33	77	87	86	83
128	15	4	5	6	7
128	16	4	5	6	7
128	17	4	5	6	7
129	14	79	77	87	86
130	18	5	6	7	18
131	27	62	51	50	64
132	32	28	43	42	39
132	33	28	43	42	39
133	14	7	8	9	10
134	18	9	8	7	18
135	27	38	36	39	40
136	28	37	36	39	40
136	29	37	36	39	40
137	20	34	36	37	70
138	14	54	53	52	60
139	15	48	49	50	51
139	16	48	49	50	51
139	17	48	49	50	51
140	20	30	33	34	35
141	14	27	28	43	34
142	18	74	73	71	87
143	14	34	36	39	42
144	37	81	80	79	83
144	38	81	80	79	83
145	27	20	6	5	22
146	36	53	54	55	56
147	15	30	28	43	34
147	16	30	28	43	34
147	17	30	28	43	34
148	20	31	30	33	34
149	28	78	77	79	80
149	29	78	77	79	80
150	18	51	52	53	58
151	15	73	71	87	77
151	16	73	71	87	77
151	17	73	71	87	77
152	27	62	51	50	63
153	20	38	36	37	70
154	35	52	53	54	55
155	14	77	79	83	86
156	14	80	79	77	87
157	27	22	5	4	25
158	14	36	34	43	42
159	14	47	48	49	66
160	14	71	87	77	76
161	18	34	36	39	41
162	18	29	28	43	34
163	14	37	36	34	43
164	18	9	8	7	19
165	28	70	71	73	75
165	29	70	71	73	75
166	18	48	49	50	64
167	27	21	6	5	22
168	28	78	77	87	86
168	29	78	77	87	86
169	30	70	71	87	86
169	31	70	71	87	86
170	18	30	28	43	44
171	27	23	5	4	25
172	30	76	77	79	80
172	31	76	77	79	80
173	30	27	28	43	42
173	31	27	28	43	42
174	27	18	7	6	20
175	28	33	34	43	44
175	29	33	34	43	44
176	20	84	83	86	87
177	13	2	1	45	47
178	27	63	50	49	65
179	18	78	77	79	83
180	27	22	5	4	24
181	5	49	48	47	69
181	6	49	48	47	69
182	20	37	70	71	87
183	14	3	4	5	23
184	18	73	71	87	88
185	9	2	1	3	4
185	10	2	1	3	4
186	27	66	49	48	67
187	27	21	6	5	23
188	7	1	45	47	48
188	8	1	45	47	48
189	27	64	50	49	66
190	20	83	86	87	88
191	20	41	39	42	43
192	27	19	7	6	20
193	27	59	52	51	62
194	18	6	7	8	16
195	18	34	36	39	40
196	18	6	7	8	17
197	27	14	9	8	16
198	18	51	50	49	65
199	27	14	9	8	17
200	27	23	5	4	24
201	28	29	28	43	42
201	29	29	28	43	42
202	27	16	8	7	18
203	14	47	48	49	50
204	27	60	52	51	61
205	28	35	34	36	37
205	29	35	34	36	37
206	1	1	3	4	5
206	2	1	3	4	5
206	3	1	3	4	5
206	4	1	3	4	5
207	27	72	71	87	88
208	27	59	52	51	61
209	28	82	79	83	86
209	29	82	79	83	86
210	7	1	45	47	69
210	8	1	45	47	69
211	1	45	47	48	49
211	2	45	47	48	49
211	3	45	47	48	49
211	4	45	47	48	49
212	30	33	34	36	37
212	31	33	34	36	37
213	27	17	8	7	18
214	18	7	8	9	15
215	28	80	79	83	84
215	29	80	79	83	84
216	30	27	28	30	33
216	31	27	28	30	33
217	27	35	34	43	44
218	18	7	6	5	22
219	14	33	30	28	43
220	27	16	8	7	19
221	18	5	6	7	19
222	20	74	73	76	77
223	32	79	83	86	87
223	33	79	83	86	87
224	14	54	53	52	59
225	14	70	71	87	77
226	32	36	39	42	43
226	33	36	39	42	43
227	5	5	4	3	26
227	6	5	4	3	26
228	20	39	36	37	70
229	18	71	87	77	78
230	15	6	7	8	9
230	16	6	7	8	9
230	17	6	7	8	9
231	13	3	1	45	46
232	14	3	4	5	22
233	23	12	11	10	13
233	24	12	11	10	13
234	5	11	10	9	15
234	6	11	10	9	15
235	18	6	5	4	25
236	27	66	49	48	68
237	27	58	53	52	59
238	18	77	79	83	84
239	18	7	6	5	23
240	28	29	28	30	33
240	29	29	28	30	33
241	18	53	52	51	61
242	21	11	27	28	43
242	22	11	27	28	43
243	5	13	10	9	14
243	6	13	10	9	14
244	27	57	53	52	60
245	7	4	3	1	45
245	8	4	3	1	45
246	30	80	79	83	86
246	31	80	79	83	86
247	14	33	34	36	39
248	28	27	28	30	32
248	29	27	28	30	32
249	14	47	48	49	65
250	18	51	52	53	57
251	27	60	52	51	62
252	27	82	79	83	85
253	14	3	4	5	6
254	20	37	70	71	72
255	5	25	4	3	26
255	6	25	4	3	26
256	18	50	49	48	67
257	28	72	71	73	76
257	29	72	71	73	76

Impropers

63	1	3	1	4	26
101	1	10	11	13	9
133	1	47	45	48	69
142	3	11	10	12	27
186	1	47	69	45	48
206	1	3	26	1	4
221	3	11	27	10	12
318	2	1	45	2	3
320	2	1	3	45	2
351	1	47	48	69	45
374	1	3	4	26	1
392	1	10	9	11	13
440	2	1	2	3	45
452	2	45	1	46	47
467	1	10	13	9	11
475	2	45	47	1	46
560	3	11	12	27	10
568	2	45	46	47	1
