Title

15500 atoms
15750 bonds
27500 angles
48125 dihedrals
6375 impropers

10 atom types
16 bond types
10 angle types
42 dihedral types
3 improper types
-10.9588897 133.1014157 xlo xhi
-13.48513275 133.6168383 ylo yhi
-13.87901702 134.9738739 zlo zhi
0.0 0.0 0.0 xy xz yz

Masses

1	12.01078
2	15.99943
3	15.99943
4	12.01078
5	15.99943
6	1.007947
7	1.007947
8	1.007947
9	14.00672
10	1.007947


Pair Coeffs

1	0.086879315	3.4806469
2	0.2102061	3.0398122
3	0.16846514	3.0251065
4	0.10884061	3.3795318
5	0.20947353	2.99716
6	1.2326e-05	0.53453923
7	0.015611343	2.5725815
8	0.016409246	2.5832257
9	0.16769152	3.206876
10	0.014090815	1.1034277

Bond Coeffs

1 harmonic	582.698766451	1.225198386222
2 harmonic	301.15400723785	1.345741232799
3 harmonic	279.1350963404	1.454628925034
4 harmonic	366.7408841747	1.425895053732
5 harmonic	264.62148576755	1.52190126495
6 harmonic	370.04670688625	1.093899492634
7 harmonic	329.96998057905	1.427343958716
8 harmonic	543.5267831885	0.9716763312559
9 harmonic	425.69104206635	1.362945806494
10 harmonic	360.7852444772	1.387193227181
11 harmonic	397.2545789619	1.085358495916
12 harmonic	492.76746816345	1.381897776683
13 harmonic	352.0565580496	1.450098586273
14 harmonic	505.144496193	1.019481865027
15 harmonic	366.34047229585	1.464762957261
16 harmonic	422.7150220147	1.421786517481


Angle Coeffs

1 harmonic	65.09061609600001	110.3538806181
2 harmonic	57.8982893754	126.8062420451
3 harmonic	201.41175231035	127.4691416191
4 harmonic	53.20531626545	116.5475862634
5 harmonic	34.066775159195	129.1835929926
6 harmonic	55.42182150775	117.3465570514
7 harmonic	63.44422595415	115.5071327674
8 harmonic	48.776492647595	115.6030999533
9 harmonic	94.53012429075	110.92021963
10 harmonic	49.015990027215	114.8414599994


Dihedral Coeffs

1 fourier 1	0.1918272375143	3	0
2 fourier 1	0.9202179876409	1	180
3 fourier 1	0.0473758381877	3	0
4 fourier 1	2.779853741805	2	180
5 fourier 1	1.163809172478	2	180
6 fourier 1	0.1679186987369	1	180
7 fourier 1	0.9974165607242	2	180
8 fourier 1	-0.0309670556842	3	0
9 fourier 1	0.4598191477945	2	0
10 fourier 1	0.1155372516788	3	0
11 fourier 1	0.1115525666802	3	0
12 fourier 1	0.3432490222662	1	0
13 fourier 1	0.3445382149273	3	0
14 fourier 1	0.1364556373303	1	0
15 fourier 1	0.1040663847541	3	0
16 fourier 1	0.3026390167484	3	0
17 fourier 1	1.532232714475	2	180
18 fourier 1	3.661930099076	2	180
19 fourier 1	1.809047390003	2	180
20 fourier 1	-0.04816277792592	1	0
21 fourier 1	-0.1488678166443	4	180
22 fourier 1	-0.1230328948768	3	180
23 fourier 1	0.2939295466901	2	0
24 fourier 1	-0.3024127022865	1	0
25 fourier 1	0.182238503271	2	0
26 fourier 1	0.02972342374561	3	0
27 fourier 1	0.4860993122944	2	180
28 fourier 1	0.8916986138746	1	0
29 fourier 1	0.1911926717192	3	0
30 fourier 1	0.4552156463534	3	0
31 fourier 1	-0.03687743385131	2	180
32 fourier 1	0.2036670163956	3	0
33 fourier 1	0.6761465733405	3	0
34 fourier 1	1.653011589151	2	0
35 fourier 1	1.713184811193	1	0
36 fourier 1	0.774151252041	3	0
37 fourier 1	1.087509576657	2	0
38 fourier 1	1.518874939494	1	0
39 fourier 1	0.3917343745784	3	0
40 fourier 1	0.9467782973395	2	0
41 fourier 1	0.2726597146827	1	0
42 fourier 1	1.659715194912	2	180


Improper Coeffs

1 3.5	-1	2
2 0.3666666666666667	-1	2
3 0.3333333333333333	-1	2


Atoms

1	4	1	0.62929612	6.2463977	-0.51982566	2.8373244
2	4	2	-0.52262992	5.4800868	-1.3248168	3.430288
3	4	3	-0.48980153	6.1137672	0.86193614	3.0015939
4	4	4	0.10900945	5.0882465	1.4659033	3.7909366
5	4	4	0.14526554	3.7283255	1.4123411	3.0713033
6	4	5	-0.69617922	2.715431	1.9161298	3.9062624
7	4	6	0.41670748	2.9310021	2.8656091	4.103067
8	4	4	0.0537289	3.7614707	2.1822681	1.7377829
9	4	3	-0.41251642	2.5009717	2.0961159	1.0720305
10	4	1	0.24932225	2.0057191	0.9710156	0.38943324
11	4	1	-0.41113505	2.7358642	-0.14346506	0.18174609
12	4	7	0.21657492	3.7537887	-0.22999461	0.53287068
13	4	1	-0.048057624	2.1526694	-1.2887534	-0.54241574
14	4	7	0.21309946	2.7452041	-2.1813775	-0.69782454
15	4	1	-0.41113505	0.89886549	-1.2286994	-1.0036762
16	4	7	0.21657495	0.49615154	-2.0840835	-1.5279677
17	4	1	0.24932231	0.083060307	-0.0024082391	-0.79286373
18	4	3	-0.41251645	-1.2365242	0.11639807	-1.2569681
19	4	4	0.053728911	-1.9149864	-0.84653765	-2.062577
20	4	4	0.14869456	-1.4307718	-0.77517587	-3.5187837
21	4	5	-0.69617922	-1.7101776	0.49833702	-4.0384127
22	4	6	0.41670748	-1.1431172	0.60916005	-4.8459242
23	4	4	0.088806721	-2.0947282	-1.8661711	-4.3778374
24	4	3	-0.48350013	-3.5187497	-1.7543339	-4.3635503
25	4	1	0.78958982	-4.2364459	-0.89472609	-5.1999603
26	4	2	-0.58087332	-3.6577315	-0.20604438	-6.083106
27	4	8	0.11109522	-1.7102704	-1.825325	-5.4197514
28	4	8	0.11109522	-1.8182367	-2.8616607	-3.967495
29	4	8	0.10129269	-0.33113569	-0.94940473	-3.5346169
30	4	8	0.099684114	-1.7835268	-1.86552	-1.6406216
31	4	8	0.099684114	-3.0012097	-0.6159761	-2.0290316
32	4	1	-0.44781486	0.62066831	1.0310621	-0.12807008
33	4	7	0.21794497	0.035672572	1.9282687	0.03483316
34	4	8	0.099684114	3.97253	3.2534485	1.9419705
35	4	8	0.099684114	4.573402	1.8145503	1.0747526
36	4	8	0.10129271	3.4887002	0.34923512	2.8662292
37	4	8	0.10027113	5.3673047	2.5250593	3.9798414
38	4	8	0.10027113	5.0196227	0.95614522	4.7761018
39	5	9	-0.45619613	-5.2930058	-0.82961885	-5.0968236
40	5	4	0.0157048	-5.6169314	-0.88936153	-3.6744614
41	5	4	0.068591039	-5.1627874	0.38575946	-2.9685856
42	5	3	-0.48012501	-5.8356088	1.495728	-3.5256629
43	5	4	0.06306577	-5.4113725	2.6766628	-2.8786214
44	5	4	0.061725872	-6.1335233	3.8757588	-3.4900761
45	5	3	-0.48455444	-5.8889569	3.9478987	-4.8830202
46	5	4	0.074186097	-4.7838405	4.7842481	-5.1726811
47	5	4	0.019595732	-5.2593276	6.2063442	-5.4700959
48	5	9	-0.62004257	-4.1234847	7.0575526	-5.8136279
49	5	10	0.3726823	-3.7632072	6.7595576	-6.7497306
50	5	8	0.11457666	-5.9887275	6.1902374	-6.3104949
51	5	8	0.11457666	-5.7673413	6.6218723	-4.5731977
52	5	8	0.094628091	-4.2840833	4.3817098	-6.0800242
53	5	8	0.094628091	-4.0117742	4.792212	-4.3667535
54	5	8	0.094827327	-5.8599244	4.808753	-2.9432686
55	5	8	0.094827327	-7.2256501	3.7392128	-3.3398123
56	5	8	0.094827327	-4.3131257	2.8221103	-2.9949837
57	5	8	0.094827327	-5.659967	2.6407701	-1.7928026
58	5	8	0.089226606	-4.0593542	0.48501539	-3.0884748
59	5	8	0.089226606	-5.4047443	0.28488736	-1.8853393
60	5	8	0.085439737	-5.118804	-1.7695666	-3.2093011
61	5	8	0.085439737	-6.7161552	-1.0039074	-3.5497246
62	5	10	0.33408436	-5.6885434	-1.6860911	-5.5486767
63	2	1	0.62929612	7.0258885	-0.9043441	2.1946497
64	2	2	-0.52262986	7.799148	-0.10113529	1.6063273
65	2	3	-0.48980156	7.1591958	-2.2841843	2.0294585
66	2	4	0.10900945	8.1628111	-2.8667387	1.2024908
67	2	4	0.14526554	8.0578302	-4.3961397	1.2362174
68	2	5	-0.69617922	8.9099061	-4.9261952	0.25445074
69	2	6	0.41670748	8.6142126	-5.8607557	0.091760898
70	2	4	0.0537289	8.4526271	-4.9632897	2.6145153
71	2	3	-0.41251642	7.5812588	-4.4956318	3.6462355
72	2	1	0.24932225	6.2512977	-4.9003101	3.848364
73	2	1	-0.41113505	5.6834897	-5.9199388	3.1750636
74	2	7	0.21657492	6.2307503	-6.4883914	2.4373343
75	2	1	-0.048057624	4.2786604	-6.2898984	3.4347453
76	2	7	0.21309946	3.8290849	-7.1055335	2.8840527
77	2	1	-0.40810517	3.5608882	-5.6207243	4.3440583
78	2	7	0.21657495	2.5334899	-5.9130738	4.5077949
79	2	1	0.24349379	4.1773674	-4.5006297	5.1063177
80	2	3	-0.42700845	3.4763423	-3.7612865	6.072233
81	2	4	0.13299463	2.1686932	-4.0609106	6.5607595
82	2	4	0.2008461	2.2295147	-5.1269676	7.6637863
83	2	8	0.16488751	2.9066206	-4.7871483	8.4766797
84	2	3	-0.38859725	2.7026311	-6.363887	7.14664
85	2	1	0.80697906	1.7537177	-7.3323282	7.3667424
86	2	2	-0.39133618	1.8875906	-8.534525	7.0179089
87	2	3	-0.38937492	0.64059118	-6.8415667	8.0054674
88	2	4	0.16552083	0.8230514	-5.4524004	8.2429421
89	2	8	0.14622972	0.011652327	-4.8814376	7.7427951
90	2	8	0.14622972	0.79533301	-5.255268	9.3366365
91	2	8	0.091718922	1.7508441	-3.1315205	7.0024587
92	2	8	0.091718922	1.4893674	-4.3601815	5.7363814
93	2	1	-0.44442404	5.4529663	-4.1681206	4.8570262
94	2	7	0.21794497	5.9120225	-3.3514239	5.3995341
95	2	8	0.099684114	8.4639464	-6.0740579	2.5963212
96	2	8	0.099684114	9.4864305	-4.6389256	2.8574814
97	2	8	0.10129271	7.0051101	-4.6740834	0.9991082
98	2	8	0.10027113	9.1710665	-2.5445769	1.5436223
99	2	8	0.10027113	8.0172181	-2.5162827	0.15647295
100	3	9	-0.62004257	-4.4812063	8.0335821	-5.9303447
101	3	4	0.019595745	-5.2848023	8.0822619	-7.1490935
102	3	4	0.074186104	-6.5832267	7.3014772	-6.9658168
103	3	3	-0.48455444	-7.3359073	7.8814891	-5.9208368
104	3	4	0.061725872	-8.5348352	7.1559322	-5.7446547
105	3	4	0.061725872	-9.341566	7.7803502	-4.6088085
106	3	3	-0.48434946	-8.5835191	7.8013578	-3.4116683
107	3	4	0.072233747	-8.8315874	6.651964	-2.6223978
108	3	4	0.019922337	-9.9295686	6.940423	-1.5968727
109	3	9	-0.96347148	-10.151838	5.7707934	-0.75273015
110	3	10	0.39713862	-10.95889	5.9829518	-0.12291848
111	3	10	0.39713862	-9.3175232	5.6508303	-0.13308406
112	3	8	0.10848231	-9.6363211	7.8116074	-0.96812331
113	3	8	0.10848231	-10.873337	7.1930221	-2.1256028
114	3	8	0.094672809	-7.8948037	6.4080036	-2.0764458
115	3	8	0.094672809	-9.089145	5.7488737	-3.2231073
116	3	8	0.094827327	-10.32218	7.2598338	-4.5023348
117	3	8	0.094827327	-9.5765181	8.8310892	-4.8832281
118	3	8	0.094827327	-8.3229393	6.0922806	-5.4923862
119	3	8	0.094827327	-9.1548707	7.1928269	-6.6698313
120	3	8	0.094628091	-6.3315663	6.2403668	-6.7365554
121	3	8	0.094628091	-7.1479419	7.3429126	-7.9255339
122	3	8	0.11457668	-4.7092063	7.6527017	-7.9995835
123	3	8	0.11457668	-5.5256336	9.1406244	-7.3902368
124	3	10	0.37268233	-3.6435418	8.640274	-6.0782105
125	4	1	0.62929612	0.99336653	3.2240505	33.820402
126	4	2	-0.52262992	2.0158179	2.5298722	33.576356
127	4	3	-0.48980153	-0.22337711	2.6271954	34.16266
128	4	4	0.10900945	-0.42133774	1.213599	34.208355
129	4	4	0.14526554	-0.51878361	0.61958379	32.791394
130	4	5	-0.69617922	-0.60824789	-0.78210093	32.856133
131	4	6	0.41670748	-1.439077	-1.0089261	33.351095
132	4	4	0.0537289	-1.7138069	1.2015015	32.013285
133	4	3	-0.41251642	-1.7696991	0.66074722	30.692692
134	4	1	0.24932225	-0.92622765	1.0106373	29.623488
135	4	1	-0.41113505	-0.021828193	2.0081743	29.696252
136	4	7	0.21657492	0.10205241	2.5991585	30.591985
137	4	1	-0.048057624	0.83268124	2.3215884	28.535306
138	4	7	0.21309946	1.5603229	3.1200163	28.606562
139	4	1	-0.41113505	0.71313236	1.6239623	27.400661
140	4	7	0.21657495	1.3546072	1.8732511	26.56693
141	4	1	0.24932231	-0.28732137	0.52730342	27.299658
142	4	3	-0.41251645	-0.45727215	-0.23552061	26.133456
143	4	4	0.053728911	0.20612788	0.0005148866	24.892186
144	4	4	0.14869456	-0.41880657	1.1983202	24.160877
145	4	5	-0.69617922	-1.7669892	0.92156602	23.88569
146	4	6	0.41670748	-2.2038774	1.7913476	23.689418
147	4	4	0.088806721	0.34354486	1.5137003	22.861478
148	4	3	-0.48350013	0.35916629	0.39399873	21.974588
149	4	1	0.78958982	-0.68153375	0.090327304	21.092363
150	4	2	-0.58087332	-1.6841665	0.84576389	20.977549
151	4	8	0.11109522	-0.097148052	2.4024811	22.36056
152	4	8	0.11109522	1.3942103	1.7716143	23.117233
153	4	8	0.10129269	-0.35080256	2.0912218	24.822623
154	4	8	0.099684114	1.2944746	0.14855626	25.057227
155	4	8	0.099684114	0.090934019	-0.9089021	24.264607
156	4	1	-0.44781486	-1.0552724	0.24646198	28.362867
157	4	7	0.21794497	-1.7851119	-0.55196417	28.302975
158	4	8	0.099684114	-2.6549077	0.93168338	32.537874
159	4	8	0.099684114	-1.6734705	2.310956	31.974021
160	4	8	0.10129271	0.41678511	0.86593737	32.249462
161	4	8	0.10027113	-1.3621729	1.0077231	34.763165
162	4	8	0.10027113	0.41011182	0.73314958	34.767795
163	5	9	-0.45619613	-0.62029549	-0.78937967	20.497753
164	5	4	0.0157048	-0.031151027	-1.8493114	21.310812
165	5	4	0.068591039	-1.002635	-2.2874231	22.403843
166	5	3	-0.48012501	-2.1803011	-2.7929799	21.810068
167	5	4	0.06306577	-3.0827083	-3.1920592	22.819842
168	5	4	0.061725872	-4.3587571	-3.7290117	22.174403
169	5	3	-0.48455444	-4.9425569	-2.750004	21.334146
170	5	4	0.074186097	-5.9132504	-1.9855792	22.025575
171	5	4	0.019595732	-7.3046585	-2.5838968	21.818451
172	5	9	-0.62004257	-8.3108747	-1.7689917	22.493853
173	5	10	0.3726823	-8.3965056	-0.86224841	21.978709
174	5	8	0.11457666	-7.530799	-2.6404076	20.730232
175	5	8	0.11457666	-7.3305141	-3.6136987	22.235593
176	5	8	0.094628091	-5.9025465	-0.95968787	21.598377
177	5	8	0.094628091	-5.6952639	-1.874223	23.114497
178	5	8	0.094827327	-5.0540397	-4.1117792	22.958242
179	5	8	0.094827327	-4.0901606	-4.6048079	21.54607
180	5	8	0.094827327	-3.3479868	-2.3340307	23.478823
181	5	8	0.094827327	-2.6418962	-4.0050106	23.441843
182	5	8	0.089226606	-1.2265981	-1.4100206	23.053301
183	5	8	0.089226606	-0.50279765	-3.0750163	23.013762
184	5	8	0.085439737	0.91393691	-1.4889252	21.775781
185	5	8	0.085439737	0.20843332	-2.7219299	20.664198
186	5	10	0.33408436	0.047459052	-0.57670079	19.721198
187	2	1	0.62929612	1.0592129	4.3018886	33.771206
188	2	2	-0.52262986	0.039516989	4.9991338	34.022736
189	2	3	-0.48980156	2.2737848	4.8992388	33.429145
190	2	4	0.10900945	2.4401555	6.312038	33.346634
191	2	4	0.14526554	3.8840743	6.6558422	32.961766
192	2	5	-0.69617922	3.9585511	8.0291423	32.680061
193	2	6	0.41670748	4.7941151	8.1709879	32.161391
194	2	4	0.0537289	4.8719027	6.3132349	34.094923
195	2	3	-0.41251642	4.8748754	4.914181	34.386595
196	2	1	0.24932225	5.4306731	3.9055307	33.58215
197	2	1	-0.41113505	6.1851371	4.1644551	32.496275
198	2	7	0.21657492	6.4069513	5.1752127	32.186365
199	2	1	-0.048057624	6.7351811	3.0553635	31.693021
200	2	7	0.21309946	7.3340132	3.2730707	30.818582
201	2	1	-0.40810517	6.4945652	1.7858908	32.039985
202	2	7	0.21657495	6.9077675	0.99639529	31.428605
203	2	1	0.24349379	5.6744175	1.4827143	33.244618
204	2	3	-0.42700845	5.3873407	0.17250088	33.659328
205	2	4	0.13299463	5.9457481	-1.0171662	33.101428
206	2	4	0.2008461	7.3265857	-1.3073039	33.706369
207	2	8	0.16488751	7.2458375	-1.3681095	34.812952
208	2	3	-0.38859725	8.2552189	-0.28806675	33.359894
209	2	1	0.80697906	9.3114632	-0.85519478	32.689466
210	2	2	-0.39133618	10.295134	-0.20148407	32.253648
211	2	3	-0.38937492	9.1721784	-2.2142896	32.543425
212	2	4	0.16552083	7.9493013	-2.6173641	33.144733
213	2	8	0.14622972	7.304761	-3.1050605	32.382346
214	2	8	0.14622972	8.158266	-3.3350763	33.967545
215	2	8	0.091718922	5.2719707	-1.861315	33.360076
216	2	8	0.091718922	5.9848384	-0.96307312	31.994093
217	2	1	-0.44442404	5.1733374	2.4986644	33.963384
218	2	7	0.21794497	4.569834	2.2926193	34.838239
219	2	8	0.099684114	5.8983089	6.6542422	33.841015
220	2	8	0.099684114	4.5734916	6.8604658	35.013881
221	2	8	0.10129271	4.1428934	6.0774053	32.045188
222	2	8	0.10027113	2.1808737	6.7831419	34.320067
223	2	8	0.10027113	1.752501	6.7119176	32.568561
224	3	9	-0.62004257	-9.2321309	-2.2545287	22.39505
225	3	4	0.019595745	-9.647585	-2.164763	20.997615
226	3	4	0.074186104	-8.7510037	-3.0295354	20.115895
227	3	3	-0.48455444	-8.8574222	-4.3789661	20.519177
228	3	4	0.061725872	-8.0227814	-5.1802031	19.709057
229	3	4	0.061725872	-8.1337599	-6.6365901	20.153444
230	3	3	-0.48434946	-7.7872083	-6.7684191	21.521195
231	3	4	0.072233747	-6.4158887	-7.0849653	21.678907
232	3	4	0.019922337	-6.2301042	-8.6001814	21.779293
233	3	9	-0.96347148	-4.82245	-8.9234079	21.98917
234	3	10	0.39713862	-4.7302494	-9.9646728	21.972666
235	3	10	0.39713862	-4.5568715	-8.6188878	22.954141
236	3	8	0.10848231	-6.8402056	-8.9980755	22.621753
237	3	8	0.10848231	-6.5778828	-9.0792246	20.839278
238	3	8	0.094672809	-6.0694438	-6.6237881	22.628873
239	3	8	0.094672809	-5.7689604	-6.6671845	20.872866
240	3	8	0.094827327	-7.532395	-7.2910499	19.479708
241	3	8	0.094827327	-9.1906956	-6.9585253	20.035946
242	3	8	0.094827327	-6.9598751	-4.8590421	19.792602
243	3	8	0.094827327	-8.3373003	-5.119627	18.64174
244	3	8	0.094628091	-7.7018714	-2.6655273	20.209
245	3	8	0.094628091	-9.0865245	-2.9081604	19.060257
246	3	8	0.11457668	-9.5975514	-1.1068303	20.654919
247	3	8	0.11457668	-10.699271	-2.5128215	20.902254
248	3	10	0.37268233	-9.9169632	-1.7091368	22.96529
249	4	1	0.62929612	-3.0996057	-2.4733086	61.270572
250	4	2	-0.52262992	-2.0195935	-1.9314285	61.626646
251	4	3	-0.48980153	-3.1066456	-3.6699098	60.54812
252	4	4	0.10900945	-1.9193351	-4.334061	60.113692
253	4	4	0.14526554	-1.2806558	-3.6055504	58.917244
254	4	5	-0.69617922	-0.060486626	-4.2130254	58.57217
255	4	6	0.41670748	-0.25481553	-5.1495533	58.304092
256	4	4	0.0537289	-2.2281133	-3.569496	57.703495
257	4	3	-0.41251642	-1.6298135	-2.8646805	56.61502
258	4	1	0.24932225	-1.4829079	-1.4695915	56.519049
259	4	1	-0.41113505	-2.010477	-0.6111724	57.415207
260	4	7	0.21657492	-2.5824353	-0.95590987	58.264304
261	4	1	-0.048057624	-1.8167287	0.84232986	57.253947
262	4	7	0.21309946	-2.2387369	1.52248	57.982872
263	4	1	-0.41113505	-1.1225199	1.3201519	56.215606
264	4	7	0.21657495	-0.99354592	2.3896215	56.124269
265	4	1	0.24932231	-0.54299284	0.38754563	55.211533
266	4	3	-0.41251645	0.19207197	0.83351253	54.101756
267	4	4	0.053728911	0.38355777	2.1998705	53.737118
268	4	4	0.14869456	-0.88490291	2.7716968	53.085876
269	4	5	-0.69617922	-1.1731738	2.0481148	51.918294
270	4	6	0.41670748	-2.1211374	2.2367177	51.690901
271	4	4	0.088806721	-0.71755611	4.2679566	52.766057
272	4	3	-0.48350013	0.38894311	4.4997096	51.892845
273	4	1	0.78958982	0.31559951	4.3825268	50.501988
274	4	2	-0.58087332	-0.77493238	4.1287825	49.92277
275	4	8	0.11109522	-1.6533388	4.6767007	52.327537
276	4	8	0.11109522	-0.53518559	4.8179244	53.714795
277	4	8	0.10129269	-1.7288902	2.6679102	53.804708
278	4	8	0.099684114	0.69005078	2.7971247	54.621992
279	4	8	0.099684114	1.2191691	2.2448654	53.006437
280	4	1	-0.44781486	-0.71987495	-0.93247832	55.37054
281	4	7	0.21794497	-0.29994395	-1.6220038	54.64808
282	4	8	0.099684114	-2.4329502	-4.6094679	57.371582
283	4	8	0.099684114	-3.2079015	-3.1156399	57.964431
284	4	8	0.10129271	-1.0552162	-2.5651564	59.227772
285	4	8	0.10027113	-2.1848015	-5.3721114	59.818143
286	4	8	0.10027113	-1.1937986	-4.3992835	60.953011
287	5	9	-0.45619613	1.1951146	4.5220119	49.920445
288	5	4	0.0157048	2.3159002	3.9205264	50.63715
289	5	4	0.068591039	2.1924247	2.3989598	50.642609
290	5	3	-0.48012501	2.2144221	1.9214712	49.313483
291	5	4	0.06306577	2.0931801	0.51486645	49.316536
292	5	4	0.061725872	2.1074479	0.0028689333	47.877486
293	5	3	-0.48455444	1.064657	0.59755117	47.126321
294	5	4	0.074186097	-0.10239263	-0.20406798	47.134561
295	5	4	0.019595732	-0.12566912	-1.1184409	45.909701
296	5	9	-0.62004257	-1.3515329	-1.9120026	45.89464
297	5	10	0.3726823	-2.153057	-1.271225	45.690062
298	5	8	0.11457666	-0.059177826	-0.50608643	44.982795
299	5	8	0.11457666	0.75000588	-1.8020696	45.94153
300	5	8	0.094628091	-0.97987889	0.47606661	47.084553
301	5	8	0.094628091	-0.22184664	-0.80201509	48.069365
302	5	8	0.094827327	2.0813487	-1.1122653	47.866195
303	5	8	0.094827327	3.0738844	0.29346581	47.413246
304	5	8	0.094827327	1.1410521	0.19816465	49.800265
305	5	8	0.094827327	2.9483293	0.047963394	49.857657
306	5	8	0.089226606	1.241128	2.1210813	51.152127
307	5	8	0.089226606	3.0507	1.9856042	51.221091
308	5	8	0.085439737	2.3403027	4.2954743	51.685045
309	5	8	0.085439737	3.2691494	4.2076037	50.141292
310	5	10	0.33408436	1.3623372	5.5537186	49.87821
311	2	1	0.62929612	-4.0391624	-2.0083884	61.534339
312	2	2	-0.52262986	-5.1215439	-2.5527815	61.18608
313	2	3	-0.48980156	-4.0335004	-0.8130644	62.255579
314	2	4	0.10900945	-5.229614	-0.14232	62.642752
315	2	4	0.14526554	-4.8946605	1.1306939	63.429179
316	2	5	-0.69617922	-6.0735004	1.8723286	63.605736
317	2	6	0.41670748	-5.798129	2.7977456	63.840428
318	2	4	0.0537289	-4.2860426	0.80429259	64.807684
319	2	3	-0.41251642	-3.0524797	0.093283089	64.684311
320	2	1	0.24932225	-1.8278047	0.63469456	64.259503
321	2	1	-0.41113505	-1.6345143	1.9546394	64.070383
322	2	7	0.21657492	-2.4216509	2.6744115	64.241324
323	2	1	-0.048057624	-0.32177904	2.4553599	63.618879
324	2	7	0.21309946	-0.17808505	3.5163266	63.462858
325	2	1	-0.40810517	0.68706152	1.6043104	63.400255
326	2	7	0.21657495	1.6346264	2.0019026	63.065791
327	2	1	0.24349379	0.4940673	0.14445308	63.617667
328	2	3	-0.42700845	1.513281	-0.79747632	63.405466
329	2	4	0.13299463	2.8773055	-0.4944633	63.11221
330	2	4	0.2008461	3.657142	-0.18960411	64.398974
331	2	8	0.16488751	3.5658049	-1.0436513	65.10396
332	2	3	-0.38859725	3.1627137	0.9880365	65.023435
333	2	1	0.80697906	4.1855802	1.8981268	65.134069
334	2	2	-0.39133618	4.0530134	3.0400759	65.64716
335	2	3	-0.38937492	5.3678143	1.424986	64.618
336	2	4	0.16552083	5.1571269	0.11149785	64.118172
337	2	8	0.14622972	5.4038737	0.08330847	63.035196
338	2	8	0.14622972	5.8086904	-0.60372262	64.66564
339	2	8	0.091718922	3.3296817	-1.3919222	62.639573
340	2	8	0.091718922	2.9572899	0.33240648	62.376999
341	2	1	-0.44442404	-0.70553313	-0.30048424	64.021215
342	2	7	0.21794497	-0.86174874	-1.3603577	64.177118
343	2	8	0.099684114	-4.1370825	1.7302619	65.403215
344	2	8	0.099684114	-4.9981257	0.17101988	65.377682
345	2	8	0.10129271	-4.1712883	1.7269614	62.826775
346	2	8	0.10027113	-5.8621381	-0.81795121	63.259334
347	2	8	0.10027113	-5.7999425	0.135707	61.728643
348	3	9	-0.62004257	-1.2902079	-2.5768954	45.089421
349	3	4	0.019595745	-1.4037297	-1.8076696	43.852938
350	3	4	0.074186104	-0.15796298	-0.95269493	43.637986
351	3	3	-0.48455444	0.9736043	-1.7911029	43.530503
352	3	4	0.061725872	2.1288017	-1.0013835	43.338766
353	3	4	0.061725872	3.3507561	-1.9103602	43.231771
354	3	3	-0.48434946	3.4763123	-2.71562	44.391087
355	3	4	0.072233747	4.3213573	-2.1096303	45.352475
356	3	4	0.019922337	5.7558315	-2.6163934	45.191391
357	3	9	-0.96347148	6.6168578	-2.0276851	46.21221
358	3	10	0.39713862	7.5964245	-2.3369669	46.017788
359	3	10	0.39713862	6.3557267	-2.4391218	47.137933
360	3	8	0.10848231	5.7731773	-3.7267925	45.275027
361	3	8	0.10848231	6.137347	-2.3356716	44.186552
362	3	8	0.094672809	3.9543869	-2.4046701	46.359167
363	3	8	0.094672809	4.2978345	-0.99545486	45.323844
364	3	8	0.094827327	4.2618201	-1.3055803	43.012498
365	3	8	0.094827327	3.2094697	-2.5851398	42.360409
366	3	8	0.094827327	2.2767377	-0.29923574	44.190234
367	3	8	0.094827327	2.0504706	-0.4150689	42.394385
368	3	8	0.094628091	-0.055425166	-0.25016116	44.496928
369	3	8	0.094628091	-0.30113284	-0.36538181	42.701908
370	3	8	0.11457668	-2.3021851	-1.1518646	43.89611
371	3	8	0.11457668	-1.5214964	-2.5043831	42.99445
372	3	10	0.37268233	-2.1274234	-3.1985712	45.154309
373	4	1	0.62929612	1.1036374	3.5953289	77.710604
374	4	2	-0.52262992	1.2425726	2.3727982	77.440484
375	4	3	-0.48980153	2.0362971	4.2738721	78.500266
376	4	4	0.10900945	3.167744	3.6419047	79.100245
377	4	4	0.14526554	2.7505494	2.7881973	80.31155
378	4	5	-0.69617922	3.8606845	2.0932099	80.822928
379	4	6	0.41670748	4.5251504	2.766727	81.12554
380	4	4	0.0537289	2.0966997	3.6454006	81.41148
381	4	3	-0.41251642	1.6904328	2.8319747	82.512748
382	4	1	0.24932225	0.57277825	1.9791719	82.538063
383	4	1	-0.41113505	-0.33120968	1.92171	81.539155
384	4	7	0.21657492	-0.24278489	2.5376437	80.656119
385	4	1	-0.048057624	-1.4812422	1.0023331	81.630715
386	4	7	0.21309946	-2.1975159	0.95907228	80.820094
387	4	1	-0.41113505	-1.6397965	0.22396422	82.706538
388	4	7	0.21657495	-2.4900427	-0.44260768	82.745337
389	4	1	0.24932231	-0.65770259	0.28281039	83.822692
390	4	3	-0.41251645	-0.77583958	-0.50920066	84.975763
391	4	4	0.053728911	-1.8752753	-1.3686853	85.274241
392	4	4	0.14869456	-3.088704	-0.55455403	85.748451
393	4	5	-0.69617922	-2.7515139	0.14028516	86.920381
394	4	6	0.41670748	-3.4276049	0.85884018	87.032155
395	4	4	0.088806721	-4.3059562	-1.4645693	85.991867
396	4	3	-0.48350013	-4.0241071	-2.4731084	86.963442
397	4	1	0.78958982	-4.114193	-2.2662888	88.342828
398	4	2	-0.58087332	-4.5272853	-1.1731013	88.815517
399	4	8	0.11109522	-5.1854547	-0.85956325	86.300915
400	4	8	0.11109522	-4.5746056	-1.965184	85.036335
401	4	8	0.10129269	-3.359844	0.17317159	84.950514
402	4	8	0.099684114	-2.1266537	-1.9956662	84.392563
403	4	8	0.099684114	-1.5598986	-2.0576706	86.086646
404	4	1	-0.44781486	0.38760734	1.1177956	83.72698
405	4	7	0.21794497	1.1114607	1.1673652	84.531539
406	4	8	0.099684114	2.8365109	4.386057	81.782658
407	4	8	0.099684114	1.2322996	4.2222905	81.018964
408	4	8	0.10129271	2.01873	2.0311159	79.963788
409	4	8	0.10027113	3.8784599	4.4308167	79.428682
410	4	8	0.10027113	3.6905321	3.0106449	78.349701
411	5	9	-0.45619613	-3.8399674	-3.0511223	89.006177
412	5	4	0.0157048	-2.6707953	-3.7282745	88.452902
413	5	4	0.068591039	-1.4435721	-2.8234158	88.527702
414	5	3	-0.48012501	-1.1718981	-2.5116189	89.878269
415	5	4	0.06306577	-0.041292728	-1.668988	89.94863
416	5	4	0.061725872	0.24367512	-1.3259239	91.409558
417	5	3	-0.48455444	-0.88305291	-0.70930448	92.005858
418	5	4	0.074186097	-0.80711008	0.70197438	91.921061
419	5	4	0.019595732	-0.17697219	1.2757878	93.190141
420	5	9	-0.62004257	-0.1408861	2.734113	93.121625
421	5	10	0.3726823	-1.1221349	3.0892042	93.198761
422	5	8	0.11457666	-0.76286397	0.95252766	94.079404
423	5	8	0.11457666	0.86024509	0.89063569	93.295051
424	5	8	0.094628091	-1.8442822	1.0915855	91.834209
425	5	8	0.094628091	-0.26003051	1.0621155	91.017362
426	5	8	0.094827327	1.1748008	-0.71648299	91.486498
427	5	8	0.094827327	0.44755193	-2.2709873	91.956599
428	5	8	0.094827327	-0.21348796	-0.72349291	89.385399
429	5	8	0.094827327	0.85691686	-2.1811126	89.532652
430	5	8	0.089226606	-1.6454589	-1.9005872	87.936585
431	5	8	0.089226606	-0.58509365	-3.3685898	88.071697
432	5	8	0.085439737	-2.8620684	-4.0087195	87.392699
433	5	8	0.085439737	-2.4742116	-4.6584133	89.030111
434	5	10	0.33408436	-4.6330097	-3.7332056	89.002701
435	2	1	0.62929612	0.25101351	4.132099	77.318939
436	2	2	-0.52262986	0.11383289	5.3574956	77.581203
437	2	3	-0.48980156	-0.681409	3.4554689	76.53041
438	2	4	0.10900945	-1.8281575	4.0942545	75.975964
439	2	4	0.14526554	-2.6487006	3.0935112	75.1535
440	2	5	-0.69617922	-3.8695631	3.6929116	74.805546
441	2	6	0.41670748	-4.4862343	2.958478	74.545488
442	2	4	0.0537289	-1.9062573	2.6666772	73.871384
443	2	3	-0.41251642	-0.67721581	2.0015697	74.170587
444	2	1	0.24932225	-0.54794103	0.70313346	74.690941
445	2	1	-0.41113505	-1.5879584	-0.14393425	74.818307
446	2	7	0.21657492	-2.5878599	0.13499882	74.519526
447	2	1	-0.048057624	-1.3814322	-1.4940788	75.377151
448	2	7	0.21309946	-2.2238806	-2.1648076	75.482245
449	2	1	-0.40810517	-0.16045694	-1.8891919	75.755233
450	2	7	0.21657495	-0.042984793	-2.8822715	76.164889
451	2	1	0.24349379	1.001472	-0.97046066	75.608427
452	2	3	-0.42700845	2.3056098	-1.3269488	75.986842
453	2	4	0.13299463	2.7236539	-2.6260372	76.40635
454	2	4	0.2008461	3.0094026	-3.5247337	75.194931
455	2	8	0.16488751	3.7632582	-3.0400152	74.538048
456	2	3	-0.38859725	1.8222326	-3.7620355	74.449569
457	2	1	0.80697906	1.5924946	-5.115148	74.394189
458	2	2	-0.39133618	0.61103098	-5.6340183	73.800568
459	2	3	-0.38937492	2.5503999	-5.8384224	75.062889
460	2	4	0.16552083	3.5008952	-4.9389022	75.616866
461	2	8	0.14622972	3.5347618	-5.068811	76.719813
462	2	8	0.14622972	4.5049019	-5.148063	75.187891
463	2	8	0.091718922	3.6679046	-2.5095075	76.979302
464	2	8	0.091718922	1.983675	-3.085025	77.093669
465	2	1	-0.44442404	0.80104695	0.2572204	75.105943
466	2	7	0.21794497	1.6360649	0.93800389	74.999549
467	2	8	0.099684114	-2.5496224	2.0176735	73.239609
468	2	8	0.099684114	-1.6761143	3.5699189	73.267909
469	2	8	0.10129271	-2.8451325	2.202092	75.792623
470	2	8	0.10027113	-1.5157748	4.9495066	75.337451
471	2	8	0.10027113	-2.4591486	4.4863558	76.804382
472	3	9	-0.62004257	0.3671875	3.0798851	93.968102
473	3	4	0.019595745	-0.47878454	2.84528	95.135482
474	3	4	0.074186104	-0.5816954	1.3514817	95.430604
475	3	3	-0.48455444	0.70427244	0.83897397	95.710868
476	3	4	0.061725872	0.61229683	-0.54504603	95.977195
477	3	4	0.061725872	2.0050253	-1.0971398	96.271063
478	3	3	-0.48434946	2.8793963	-0.84918574	95.183766
479	3	4	0.072233747	2.9080839	-1.9422085	94.283727
480	3	4	0.019922337	4.0639086	-2.8829565	94.629466
481	3	9	-0.96347148	4.1220102	-3.9839905	93.673243
482	3	10	0.39713862	4.8709078	-4.6407142	93.990847
483	3	10	0.39713862	4.4364641	-3.6012308	92.751806
484	3	8	0.10848231	5.0238741	-2.3185249	94.61661
485	3	8	0.10848231	3.9141122	-3.2943625	95.65043
486	3	8	0.094672809	3.077766	-1.5357203	93.263375
487	3	8	0.094672809	1.9477037	-2.5066669	94.241106
488	3	8	0.094827327	1.9403815	-2.1751168	96.549746
489	3	8	0.094827327	2.4092643	-0.57033553	97.161922
490	3	8	0.094827327	0.18612372	-1.0907022	95.105111
491	3	8	0.094827327	-0.028475021	-0.73070469	96.869775
492	3	8	0.094628091	-1.0309128	0.8436904	94.546183
493	3	8	0.094628091	-1.2560173	1.2198088	96.307889
494	3	8	0.11457668	-1.496041	3.2599218	94.955406
495	3	8	0.11457668	-0.04234805	3.362902	96.017453
496	3	10	0.37268233	0.4676272	4.1133085	93.851616
497	4	1	0.62929612	-0.92819283	-0.44207581	104.49298
498	4	2	-0.52262992	0.019230623	0.36023386	104.70637
499	4	3	-0.48980153	-2.2475897	-0.10666562	104.81005
500	4	4	0.10900945	-2.6182487	1.120537	105.43943
501	4	4	0.14526554	-2.2522357	1.1113818	106.93478
502	4	5	-0.69617922	-2.5287157	2.3635678	107.51141
503	4	6	0.41670748	-3.5050179	2.5259117	107.4266
504	4	4	0.0537289	-2.9913647	-0.007161687	107.69287
505	4	3	-0.41251642	-2.6165481	-0.017942157	109.07088
506	4	1	0.24932225	-1.3998103	-0.49524352	109.58934
507	4	1	-0.41113505	-0.4737599	-1.1207466	108.83469
508	4	7	0.21657492	-0.62169025	-1.2909991	107.77825
509	4	1	-0.048057624	0.78287744	-1.595822	109.4441
510	4	7	0.21309946	1.5227004	-2.0907564	108.82788
511	4	1	-0.41113505	1.0108367	-1.4158229	110.74948
512	4	7	0.21657495	1.9418136	-1.7712684	111.16863
513	4	1	0.24932231	-0.0051006473	-0.73742551	111.59885
514	4	3	-0.41251645	0.18032791	-0.52396355	112.97393
515	4	4	0.053728911	1.2816554	-1.0096281	113.7406
516	4	4	0.14869456	1.1243493	-2.5105843	114.02779
517	4	5	-0.69617922	-0.047185119	-2.7199889	114.77181
518	4	6	0.41670748	-0.27053918	-3.6839676	114.68952
519	4	4	0.088806721	2.3479972	-3.062042	114.78122
520	4	3	-0.48350013	2.5568442	-2.3792597	116.01845
521	4	1	0.78958982	1.8910438	-2.7034771	117.20386
522	4	2	-0.58087332	1.1029426	-3.6854765	117.26479
523	4	8	0.11109522	2.2369113	-4.1545356	114.95204
524	4	8	0.11109522	3.2507406	-2.921601	114.14785
525	4	8	0.10129269	1.0487831	-3.0502786	113.0568
526	4	8	0.099684114	2.2395252	-0.79395792	113.22134