Title

7375 atoms
7500 bonds
12625 angles
19375 dihedrals
6000 impropers

9 atom types
12 bond types
6 angle types
23 dihedral types
2 improper types
-7.039000034 92.96099997 xlo xhi
-6.97879982 93.02120018 ylo yhi
-7.369400024 92.63059998 zlo zhi
0.0 0.0 0.0 xy xz yz

Masses

1	15.99943
2	12.01078
3	1.007947
4	1.007947
5	12.01078
6	15.99943
7	1.007947
8	15.99943
9	1.007947


Pair Coeffs

1	0.16846514	3.0251065
2	0.10884061	3.3795318
3	0.016409246	2.5832257
4	0.015779483	2.6445434
5	0.086879315	3.4806469
6	0.2102061	3.0398122
7	0.015611343	2.5725815
8	0.20947353	2.99716
9	1.2326e-05	0.53453923

Bond Coeffs

1 harmonic	366.7408841747	1.425895053732
2 harmonic	300.03137914615	1.451203938761
3 harmonic	264.62148576755	1.52190126495
4 harmonic	370.04670688625	1.093899492634
5 harmonic	301.15400723785	1.345741232799
6 harmonic	582.698766451	1.225198386222
7 harmonic	279.1350963404	1.454628925034
8 harmonic	360.7852444772	1.387193227181
9 harmonic	397.2545789619	1.085358495916
10 harmonic	329.96998057905	1.427343958716
11 harmonic	543.5267831885	0.9716763312559
12 harmonic	385.7604595587	1.369745182308


Angle Coeffs

1 harmonic	53.20531626545	116.5475862634
2 harmonic	65.09061609600001	110.3538806181
3 harmonic	201.41175231035	127.4691416191
4 harmonic	57.8982893754	126.8062420451
5 harmonic	48.776492647595	115.6030999533
6 harmonic	34.066775159195	129.1835929926


Dihedral Coeffs

1 fourier 1	0.1155372516788	3	0
2 fourier 1	0.1115525666802	3	0
3 fourier 1	0.3432490222662	1	0
4 fourier 1	0.0473758381877	3	0
5 fourier 1	0.457973137376	1	0
6 fourier 1	0.09223874044423	3	0
7 fourier 1	0.3159935921949	2	180
8 fourier 1	0.3247796806857	1	180
9 fourier 1	0.1040663847541	3	0
10 fourier 1	0.1918272375143	3	0
11 fourier 1	0.9202179876409	1	180
12 fourier 1	1.163809172478	2	180
13 fourier 1	0.1679186987369	1	180
14 fourier 1	2.779853741805	2	180
15 fourier 1	0.9974165607242	2	180
16 fourier 1	0.1911926717192	3	0
17 fourier 1	3.661930099076	2	180
18 fourier 1	0.3445382149273	3	0
19 fourier 1	0.1364556373303	1	0
20 fourier 1	0.3026390167484	3	0
21 fourier 1	2.687457892086	2	180
22 fourier 1	2.772607909663	2	180
23 fourier 1	0.09692684957115	1	0


Improper Coeffs

1 3.5	-1	2
2 0.3666666666666667	-1	2


Atoms

1	4	1	-0.16237	-0.58770001	-2.5676999	-0.9896
2	4	2	0.035971001	-0.50929999	-1.4949	-1.8885
3	4	2	-0.142967	-1.4862	-1.7081	-3.0508001
4	4	2	-0.136338	-1.331	-0.66289997	-4.1683002
5	4	2	0.13943601	-1.8116	0.73610002	-3.7667999
6	4	1	-0.50556999	-0.84909999	1.3724999	-2.9746001
7	4	3	0.081321999	-1.9732	1.3349	-4.6915002
8	4	3	0.081321999	-2.78	0.6706	-3.221
9	4	4	0.095876001	-1.9435	-0.99989998	-5.0331998
10	4	4	0.095876001	-0.27450001	-0.61930001	-4.5124002
11	4	4	0.097009003	-1.2976	-2.7112	-3.4916999
12	4	4	0.097009003	-2.5304	-1.7053	-2.6666
13	4	3	0.089344002	0.5323	-1.3873	-2.2692001
14	4	3	0.089344002	-0.77679998	-0.56870002	-1.3401
15	5	5	0.78903401	-1.2458	2.2988	-2.7268
16	5	6	-0.56999099	-1.9318	2.9172001	-3.5843999
17	5	5	-0.241356	-1.0003	2.8663001	-1.3882
18	5	5	-0.098738	-1.4992	4.0639	-1.0296
19	5	7	0.210967	-2.0964999	4.6497002	-1.7161
20	5	5	-0.26892799	-1.235	4.605	0.31799999
21	5	7	0.183751	-1.64	5.5700998	0.59740001
22	5	5	-0.060412999	-0.50019997	3.9087999	1.1928999
23	5	7	0.198964	-0.31600001	4.3195	2.1768999
24	5	5	-0.306665	0.056600001	2.5859001	0.81349999
25	5	5	0.57450098	0.86750001	1.8112	1.7694
26	5	6	-0.606906	1.1048	2.2551	2.9244001
27	5	5	0.041129	-0.18520001	2.0969	-0.41569999
28	5	7	0.227566	0.2141	1.1324	-0.708
29	1	1	-0.16237	-0.080799997	-3.3176	-1.3961999
30	1	2	0.036083002	0.64050001	-2.7799001	-2.4714
31	1	2	-0.137228	1.88	-2.0393	-1.9559
32	1	2	-0.16428	2.6259	-1.2703	-3.0608001
33	1	2	0.089576997	3.348	-2.184	-4.059
34	1	8	-0.67839903	2.4373	-2.7161	-4.9791002
35	1	9	0.38742	2.9635	-3.3055	-5.5785999
36	1	3	0.080943003	4.1055999	-1.5806	-4.6069999
37	1	3	0.080943003	3.8770001	-3.0018001	-3.52
38	1	4	0.099473	3.3887	-0.62919998	-2.5696001
39	1	4	0.099473	1.9267	-0.59500003	-3.5996001
40	1	4	0.097185999	1.5574	-1.3034	-1.1867
41	1	4	0.097185999	2.5681	-2.7588	-1.4615999
42	1	3	0.089344002	-0.0057000001	-2.0941	-3.0641999
43	1	3	0.089344002	0.9522	-3.6183	-3.1278
44	2	5	0.57450098	1.271	0.84750003	1.4869
45	2	6	-0.606906	2.0632999	0.78079998	0.50940001
46	2	5	-0.306665	0.88679999	-0.35800001	2.2462001
47	2	5	-0.060412999	1.3671	-1.573	1.9254
48	2	7	0.198964	2.0527999	-1.7034	1.0977
49	2	5	-0.26892799	0.96380001	-2.7598	2.7038
50	2	7	0.183751	1.3556	-3.7335999	2.4387
51	2	5	-0.094632	0.1194	-2.6352999	3.7335999
52	2	7	0.210967	-0.1649	-3.5181	4.2927999
53	2	5	-0.235236	-0.42199999	-1.3034	4.1046
54	2	5	0.82657897	-1.3561	-1.181	5.2459998
55	2	6	-0.54719102	-1.8261	-0.0583	5.5750999
56	2	8	-0.678222	-1.7243	-2.3127999	5.9678001
57	2	9	0.39891601	-2.3631999	-2.2451	6.7515998
58	2	5	0.044075001	-0.050500002	-0.2234	3.3886001
59	2	7	0.227566	-0.43110001	0.76010001	3.6387
60	4	1	-0.16237	-2.0313001	-1.6267	16.064899
61	4	2	0.035971001	-1.0245	-1.1495	16.915501
62	4	2	-0.142967	-0.74110001	-2.1714001	18.0228
63	4	2	-0.136338	0.2244	-1.6439	19.097401
64	4	2	0.13943601	1.6666	-1.4926	18.6012
65	4	1	-0.50556999	1.8	-0.3242	17.8421
66	4	3	0.081321999	2.3413	-1.4295	19.484699
67	4	3	0.081321999	1.9638	-2.381	17.999201
68	4	4	0.095876001	0.2262	-2.3733001	19.937
69	4	4	0.095876001	-0.1425	-0.67650002	19.5049
70	4	4	0.097009003	-1.7012	-2.4279001	18.521299
71	4	4	0.097009003	-0.33970001	-3.1070001	17.5739
72	4	3	0.089344002	-1.3245	-0.1707	17.3556
73	4	3	0.089344002	-0.1097	-0.99229997	16.3085
74	5	5	0.78903401	2.7881	-0.29620001	17.5266
75	5	6	-0.56999099	3.6895001	-0.70029998	18.309299
76	5	5	-0.241356	3.1131001	0.2115	16.180901
77	5	5	-0.098738	4.3822999	0.26190001	15.7358
78	5	7	0.210967	5.2062998	-0.0682	16.3549
79	5	5	-0.26892799	4.6750998	0.77600002	14.3835
80	5	7	0.183751	5.6998	0.8136	14.0342
81	5	5	-0.060412999	3.6817999	1.1934	13.5902
82	5	7	0.198964	3.9133	1.5673	12.6016
83	5	5	-0.306665	2.2762001	1.1435	14.0657
84	5	5	0.57450098	1.1749001	1.6011	13.2003
85	5	6	-0.606906	1.4033	2.0434999	12.0429
86	5	5	0.041129	2.0137	0.67570001	15.2989
87	5	7	0.227566	0.9928	0.63260001	15.6607
88	1	1	-0.16237	-2.8928001	-1.488	16.537399
89	1	2	0.036083002	-2.6229999	-0.6512	17.6294
90	1	2	-0.137228	-2.4886	0.80159998	17.158701
91	1	2	-0.16428	-2.0160999	1.7546	18.271
92	1	2	0.089576997	-3.0737	1.9996001	19.3545
93	1	8	-0.67839903	-3.1243999	0.91640002	20.2395
94	1	9	0.38742	-3.8343	1.1311001	20.898001
95	1	3	0.080943003	-2.7950001	2.9165001	19.920099
96	1	3	0.080943003	-4.0709	2.1666999	18.888901
97	1	4	0.099473	-1.7765	2.7314	17.7992
98	1	4	0.099473	-1.0793	1.374	18.732401
99	1	4	0.097185999	-1.7397	0.83899999	16.337
100	1	4	0.097185999	-3.4579999	1.1523	16.743099
101	1	3	0.089344002	-1.6946	-0.9813	18.147499
102	1	3	0.089344002	-3.4684999	-0.73629999	18.3428
103	2	5	0.57450098	0.1523	1.5626	13.5525
104	2	6	-0.606906	-0.164	2.2197001	14.5801
105	2	5	-0.306665	-0.84140003	0.74699998	12.8281
106	2	5	-0.060412999	-2.1214001	0.67390001	13.2352
107	2	7	0.198964	-2.4626	1.2136	14.1097
108	2	5	-0.26892799	-3.0915999	-0.1507	12.4896
109	2	7	0.183751	-4.1198001	-0.2034	12.8243
110	2	5	-0.094632	-2.7049999	-0.82980001	11.404
111	2	7	0.210967	-3.4317	-1.4296	10.8701
112	2	5	-0.235236	-1.2970001	-0.76249999	10.9375
113	2	5	0.82657897	-0.8836	-1.5197999	9.7350998
114	2	6	-0.54719102	0.30770001	-1.4749	9.3246002
115	2	8	-0.678222	-1.814	-2.2920001	9.0454998
116	2	9	0.39891601	-1.546	-2.8164999	8.2207003
117	2	5	0.044075001	-0.41549999	-0.0082999999	11.6239
118	2	7	0.227566	0.61799997	0.0579	11.3044
119	4	1	-0.16237	0.84979999	-2.4503	28.897499
120	4	2	0.035971001	-0.061500002	-1.6654	28.177401
121	4	2	-0.142967	-1.0089999	-2.5623	27.372
122	4	2	-0.136338	-1.9217	-1.7728	26.418699
123	4	2	0.13943601	-2.9981	-0.95520002	27.141199
124	4	1	-0.50556999	-2.4474001	0.22130001	27.6625
125	4	3	0.081321999	-3.7934	-0.6893	26.408701
126	4	3	0.081321999	-3.4614999	-1.5587	27.9543
127	4	4	0.095876001	-2.4347	-2.5058	25.758101
128	4	4	0.095876001	-1.3148	-1.1102	25.763399
129	4	4	0.097009003	-0.39879999	-3.2621	26.7605
130	4	4	0.097009003	-1.6224999	-3.1772001	28.067301
131	4	3	0.089344002	0.48269999	-0.96649998	27.5014
132	4	3	0.089344002	-0.64399999	-1.0634	28.9044
133	5	5	0.78903401	-3.2217	0.71149999	28.1492
134	5	6	-0.56999099	-4.3785	0.66979998	27.6504
135	5	5	-0.241356	-2.954	1.4399	29.403
136	5	5	-0.098738	-3.9324999	2.0862999	30.063601
137	5	7	0.210967	-4.9489999	2.0927	29.692301
138	5	5	-0.26892799	-3.6321001	2.8069999	31.3162
139	5	7	0.183751	-4.4260001	3.3252001	31.8405
140	5	5	-0.060412999	-2.3866999	2.8213	31.804899
141	5	7	0.198964	-2.1831999	3.3541	32.7244
142	5	5	-0.306665	-1.2962	2.1125	31.089001
143	5	5	0.57450098	0.079000004	2.1222999	31.618299
144	5	6	-0.606906	0.3565	2.7314999	32.6856
145	5	5	0.041129	-1.5736001	1.4581	29.9473
146	5	7	0.227566	-0.78850001	0.93559998	29.4128
147	1	1	-0.16237	1.5396	-2.7513001	28.2509
148	1	2	0.036083002	1.3577	-1.993	27.085899
149	1	2	-0.137228	1.9475	-0.59039998	27.2733
150	1	2	-0.16428	1.6294	0.35870001	26.1043
151	1	2	0.089576997	2.3762	0.0063	24.811701
152	1	8	-0.67839903	1.7546999	-1.0702	24.168301
153	1	9	0.38742	2.2941	-1.2551	23.356701
154	1	3	0.080943003	2.355	0.89179999	24.1381
155	1	3	0.080943003	3.4393001	-0.2369	25.0348
156	1	4	0.099473	1.9352	1.3825999	26.4081
157	1	4	0.099473	0.53430003	0.38510001	25.916401
158	1	4	0.097185999	1.518	-0.1472	28.1987
159	1	4	0.097185999	3.0474	-0.66229999	27.417
160	1	3	0.089344002	0.2757	-1.9308	26.831699
161	1	3	0.089344002	1.8809	-2.5105	26.255501
162	2	5	0.57450098	0.86979997	1.604	31.091801
163	2	6	-0.606906	1.1466	1.9507999	29.912399
164	2	5	-0.306665	1.6004	0.5104	31.7609
165	2	5	-0.060412999	2.5890999	-0.1573	31.139299
166	2	7	0.198964	2.8799	0.088699996	30.125799
167	2	5	-0.26892799	3.3009	-1.2465	31.834999
168	2	7	0.183751	4.0953999	-1.7782	31.327101
169	2	5	-0.094632	2.9686	-1.5763	33.088001
170	2	7	0.210967	3.5027001	-2.3785999	33.581902
171	2	5	-0.235236	1.8807	-0.85170001	33.792301
172	2	5	0.82657897	1.5235	-1.228	35.178299
173	2	6	-0.54719102	0.60219997	-0.62419999	35.791698
174	2	8	-0.678222	2.2070999	-2.2585001	35.817299
175	2	9	0.39891601	1.9737	-2.5280001	36.766102
176	2	5	0.044075001	1.2336	0.1415	33.1506
177	2	7	0.227566	0.4359	0.68620002	33.642101
178	4	1	-0.16237	2.5678	0.86900002	45.738602
179	4	2	0.035971001	1.448	1.4385	46.360401
180	4	2	-0.142967	1.7318	2.9015	46.7206
181	4	2	-0.136338	0.61699998	3.5418	47.564701
182	4	2	0.13943601	-0.67869997	3.7837999	46.782501
183	4	1	-0.50556999	-1.3989	2.5906	46.652802
184	4	3	0.081321999	-1.2979	4.5218	47.3409
185	4	3	0.081321999	-0.45089999	4.2091999	45.7789
186	4	4	0.095876001	0.98869997	4.5265002	47.923901
187	4	4	0.095876001	0.4095	2.9221001	48.4645
188	4	4	0.097009003	2.6740999	2.9444001	47.308998
189	4	4	0.097009003	1.8938	3.4906001	45.790699
190	4	3	0.089344002	1.1773	0.85780001	47.272099
191	4	3	0.089344002	0.59820002	1.3863	45.649601
192	5	5	0.78903401	-2.2467999	2.8238001	46.1021
193	5	6	-0.56999099	-2.8094001	3.9356999	46.2906
194	5	5	-0.241356	-2.7706001	1.8571	45.1194
195	5	5	-0.098738	-3.8668001	2.1242001	44.385601
196	5	7	0.210967	-4.4003	3.0592999	44.495998
197	5	5	-0.26892799	-4.3664999	1.1354001	43.410198
198	5	7	0.183751	-5.2501001	1.3588001	42.824699
199	5	5	-0.060412999	-3.7328999	-0.0317	43.247101
200	5	7	0.198964	-4.1118999	-0.74559999	42.527802
201	5	5	-0.306665	-2.5216999	-0.3414	44.048
202	5	5	0.57450098	-1.8167	-1.6238	43.876499
203	5	6	-0.606906	-2.2268	-2.4814999	43.049599
204	5	5	0.041129	-2.0704	0.56160003	44.936501
205	5	7	0.227566	-1.1873	0.35069999	45.528801
206	1	1	-0.16237	3.2176001	0.6595	46.458599
207	1	2	0.036083002	2.5288	0.78839999	47.672798
208	1	2	-0.137228	1.6526	-0.44620001	47.9147
209	1	2	-0.16428	0.73000002	-0.30070001	49.137798
210	1	2	0.089576997	1.4805	-0.33149999	50.475201
211	1	8	-0.67839903	2.0834999	0.90689999	50.7239
212	1	9	0.38742	2.5617001	0.81230003	51.5877
213	1	3	0.080943003	0.74980003	-0.5478	51.286098
214	1	3	0.080943003	2.2449999	-1.1407	50.469601
215	1	4	0.099473	0.016799999	-1.1524	49.125801
216	1	4	0.099473	0.13	0.63150001	49.0592
217	1	4	0.097185999	1.0104001	-0.60439998	47.020199
218	1	4	0.097185999	2.2953999	-1.346	48.027302
219	1	3	0.089344002	1.9082	1.7126	47.6674
220	1	3	0.089344002	3.2797999	0.87840003	48.484501
221	2	5	0.57450098	-0.93440002	-1.8441	44.463402
222	2	6	-0.606906	-1.0301	-1.8773	45.719398
223	2	5	-0.306665	0.35139999	-2.0976	43.7854
224	2	5	-0.060412999	1.4694999	-2.3743	44.4804
225	2	7	0.198964	1.4595	-2.4198999	45.562099
226	2	5	-0.26892799	2.7405	-2.6229999	43.773499
227	2	7	0.183751	3.6352	-2.8453	44.341
228	2	5	-0.094632	2.7890999	-2.576	42.437599
229	2	7	0.210967	3.7313001	-2.7613001	41.936798
230	2	5	-0.235236	1.5664999	-2.2727001	41.651501
231	2	5	0.82657897	1.6355	-2.2233	40.174
232	2	6	-0.54719102	0.60769999	-1.9668	39.4902
233	2	8	-0.678222	2.8441999	-2.4609001	39.525902
234	2	9	0.39891601	2.9073999	-2.4302001	38.514702
235	2	5	0.044075001	0.40880001	-2.0452001	42.303501
236	2	7	0.227566	-0.49779999	-1.8218	41.753399
237	4	1	-0.16237	1.1002001	-0.78619999	62.4464
238	4	2	0.035971001	-0.2789	-0.54979998	62.362099
239	4	2	-0.142967	-0.80119997	0.0052	63.692402
240	4	2	-0.136338	-2.3341	0.1222	63.736698
241	4	2	0.13943601	-2.8882	1.2305	62.834702
242	4	1	-0.50556999	-2.9130001	0.80589998	61.501202
243	4	3	0.081321999	-3.9268999	1.4663	63.1591
244	4	3	0.081321999	-2.2742	2.1540999	62.935101
245	4	4	0.095876001	-2.6247001	0.35640001	64.784302
246	4	4	0.095876001	-2.8034	-0.85189998	63.476601
247	4	4	0.097009003	-0.48640001	-0.68000001	64.5093
248	4	4	0.097009003	-0.336	0.99599999	63.8923
249	4	3	0.089344002	-0.81470001	-1.4893	62.0942
250	4	3	0.089344002	-0.45050001	0.1909	61.5546
251	5	5	0.78903401	-3.2787001	1.6055	60.950401
252	5	6	-0.56999099	-4.1869998	2.3238001	61.448002
253	5	5	-0.241356	-2.7323999	1.8817	59.608898
254	5	5	-0.098738	-3.1801	2.9103	58.865101
255	5	7	0.210967	-3.9589	3.5674	59.229599
256	5	5	-0.26892799	-2.6129999	3.1601	57.525398
257	5	7	0.183751	-2.9802999	3.9899001	56.933701
258	5	5	-0.060412999	-1.6492	2.368	57.041901
259	5	7	0.198964	-1.244	2.5648	56.058102
260	5	5	-0.306665	-1.1436	1.2297	57.849899
261	5	5	0.57450098	-0.082800001	0.35100001	57.326599
262	5	6	-0.606906	0.4145	0.54680002	56.1856
263	5	5	0.041129	-1.6638	1.0046	59.0695
264	5	7	0.227566	-1.3053	0.1778	59.671902
265	1	1	-0.16237	1.2136	-1.6348	62.948101
266	1	2	0.036083002	-0.053199999	-2.2307	63.0229
267	1	2	-0.137228	-0.39770001	-2.9040999	61.6894
268	1	2	-0.16428	-1.8444	-3.4260001	61.6334
269	1	2	0.089576997	-2.0890999	-4.6434999	62.5336
270	1	8	-0.67839903	-2.2358	-4.2421999	63.866501
271	1	9	0.38742	-2.3722999	-5.0725999	64.391197
272	1	3	0.080943003	-3.0246999	-5.1465001	62.202
273	1	3	0.080943003	-1.2502	-5.3688002	62.437302
274	1	4	0.099473	-2.0541	-3.7276001	60.584999
275	1	4	0.099473	-2.5576	-2.6129999	61.890301
276	1	4	0.097185999	-0.2728	-2.1579001	60.874001
277	1	4	0.097185999	0.31459999	-3.7347	61.493698
278	1	3	0.089344002	-0.82190001	-1.4698	63.286098
279	1	3	0.089344002	-0.0262	-2.9916	63.829899
280	2	5	0.57450098	0.2816	-0.4774	57.9202
281	2	6	-0.606906	-0.52490002	-1.3824	58.264198
282	2	5	-0.306665	1.7034	-0.528	58.311501
283	2	5	-0.060412999	2.1935	-1.5409	59.048801
284	2	7	0.198964	1.5571001	-2.3527	59.378201
285	2	5	-0.26892799	3.6201	-1.5632	59.4244
286	2	7	0.183751	4.0057998	-2.3824999	60.0177
287	2	5	-0.094632	4.4354	-0.57740003	59.0336
288	2	7	0.210967	5.4794002	-0.61140001	59.319401
289	2	5	-0.235236	3.9147999	0.54960001	58.219101
290	2	5	0.82657897	4.8284998	1.6338	57.794498
291	2	6	-0.54719102	4.4040999	2.5987999	57.102901
292	2	8	-0.678222	6.1711998	1.5944	58.159199
293	2	9	0.39891601	6.8091002	2.3296001	57.8764
294	2	5	0.044075001	2.6101999	0.56449997	57.880299
295	2	7	0.227566	2.2052	1.3755	57.286301
296	4	1	-0.16237	2.4584999	13.6947	-0.4287
297	4	2	0.035971001	2.4605999	15.0025	0.075800002
298	4	2	-0.142967	3.6974001	15.7585	-0.42359999
299	4	2	-0.136338	3.8634	17.1411	0.22930001
300	4	2	0.13943601	2.8157001	18.1621	-0.2279
301	4	1	-0.50556999	1.602	17.943899	0.43430001
302	4	3	0.081321999	3.1842	19.1835	0.018300001
303	4	3	0.081321999	2.6712	18.1007	-1.3304
304	4	4	0.095876001	4.8662	17.5299	-0.0535
305	4	4	0.095876001	3.8484001	17.0492	1.3375
306	4	4	0.097009003	4.6005998	15.1562	-0.1841
307	4	4	0.097009003	3.6507001	15.8613	-1.5305001
308	4	3	0.089344002	2.4375	14.9852	1.1897
309	4	3	0.089344002	1.5419	15.5095	-0.2834
310	5	5	0.78903401	0.9404	18.653	0.065499999
311	5	6	-0.56999099	1.3693	19.808901	-0.1963
312	5	5	-0.241356	-0.47510001	18.295799	-0.1425
313	5	5	-0.098738	-1.3626	19.1877	-0.62040001
314	5	7	0.210967	-1.0637	20.1984	-0.86589998
315	5	5	-0.26892799	-2.773	18.799299	-0.81699997
316	5	7	0.183751	-3.4804001	19.5242	-1.2014
317	5	5	-0.060412999	-3.1788001	17.5585	-0.52389997
318	5	7	0.198964	-4.2161002	17.289801	-0.67390001
319	5	5	-0.306665	-2.2121999	16.5625	0.0033
320	5	5	0.57450098	-2.6487	15.1935	0.32969999
321	5	6	-0.606906	-3.8478999	14.8418	0.16940001
322	5	5	0.041129	-0.92830002	16.920601	0.1822
323	5	7	0.227566	-0.2102	16.205	0.5661
324	1	1	-0.16237	3.1059999	13.1777	0.1172
325	1	2	0.036083002	3.4182999	13.9711	1.23
326	1	2	-0.137228	2.2848001	13.9032	2.2599001
327	1	2	-0.16428	2.4719999	14.8868	3.4286001
328	1	2	0.089576997	3.6157	14.4999	4.3744998
329	1	8	-0.67839903	4.8498001	14.8543	3.8169999
330	1	9	0.38742	5.54	14.5625	4.4668002
331	1	3	0.080943003	3.4816	15.0469	5.3341999
332	1	3	0.080943003	3.5862999	13.4079	4.5883002
333	1	4	0.099473	1.5295	14.8956	4.0166001
334	1	4	0.099473	2.6285	15.9176	3.0434
335	1	4	0.097185999	1.329	14.1569	1.7506
336	1	4	0.097185999	2.1914001	12.8654	2.6468999
337	1	3	0.089344002	3.5968001	15.0237	0.91469997
338	1	3	0.089344002	4.3544002	13.5787	1.6781
339	2	5	0.57450098	-1.9395	14.4719	0.71399999
340	2	6	-0.606906	-1.3469	14.717	1.7986
341	2	5	-0.306665	-1.6833	13.2268	-0.035399999
342	2	5	-0.060412999	-0.80919999	12.3062	0.40979999
343	2	7	0.198964	-0.26550001	12.4515	1.3349
344	2	5	-0.26892799	-0.57429999	11.0711	-0.3624
345	2	7	0.183751	0.13079999	10.3356	0.0037
346	2	5	-0.094632	-1.2295001	10.8582	-1.5089
347	2	7	0.210967	-1.0434999	9.9455004	-2.0615001
348	2	5	-0.235236	-2.1988001	11.8613	-2.0178001
349	2	5	0.82657897	-2.9158001	11.6125	-3.2883
350	2	6	-0.54719102	-3.7421	12.4531	-3.7358999
351	2	8	-0.678222	-2.6803	10.4409	-4.0019999
352	2	9	0.39891601	-3.1633	10.2566	-4.8737998
353	2	5	0.044075001	-2.4078	12.9881	-1.3081
354	2	7	0.227566	-3.1099999	13.736	-1.6574
355	4	1	-0.16237	-1.7177	12.8756	15.6854
356	4	2	0.035971001	-2.0880001	14.186	16.0179
357	4	2	-0.142967	-2.8929	14.1918	17.3228
358	4	2	-0.136338	-3.4863999	15.5702	17.659201
359	4	2	0.13943601	-2.4337001	16.6026	18.0776
360	4	1	-0.50556999	-1.7749	17.109699	16.9515
361	4	3	0.081321999	-2.9463999	17.4389	18.6045
362	4	3	0.081321999	-1.7014	16.145201	18.7808
363	4	4	0.095876001	-4.1908998	15.4362	18.5091
364	4	4	0.095876001	-4.0787001	15.9555	16.800501
365	4	4	0.097009003	-3.7342999	13.472	17.222401
366	4	4	0.097009003	-2.2507	13.8372	18.1595
367	4	3	0.089344002	-2.6819	14.6395	15.1913
368	4	3	0.089344002	-1.1611	14.7812	16.147499
369	5	5	0.78903401	-1.0704	17.7829	17.3081
370	5	6	-0.56999099	-1.3624001	18.5019	18.301201
371	5	5	-0.241356	0.2457	17.882799	16.650499
372	5	5	-0.098738	1.1855	18.742701	17.084999
373	5	7	0.210967	1.0026	19.3908	17.932199
374	5	5	-0.26892799	2.4933	18.8193	16.4048
375	5	7	0.183751	3.2432001	19.5151	16.761
376	5	5	-0.060412999	2.7544999	18.0338	15.3537
377	5	7	0.198964	3.7182	18.101999	14.8664
378	5	5	-0.306665	1.729	17.0791	14.8626
379	5	5	0.57450098	2.0064001	16.209801	13.7056
380	5	6	-0.606906	3.1159999	16.2596	13.1108
381	5	5	0.041129	0.53829998	17.0133	15.4842
382	5	7	0.227566	-0.2209	16.3214	15.1379
383	1	1	-0.16237	-2.5213001	12.4424	15.2968
384	1	2	0.036083002	-3.4493999	13.4637	15.0497
385	1	2	-0.137228	-3.0703001	14.2218	13.7722
386	1	2	-0.16428	-3.9384	15.4696	13.5314
387	1	2	0.089576997	-5.3842001	15.1406	13.1388
388	1	8	-0.67839903	-6.1271	14.7845	14.2704
389	1	9	0.38742	-7.039	14.5695	13.9452
390	1	3	0.080943003	-5.8397002	16.044399	12.6764
391	1	3	0.080943003	-5.4022999	14.3182	12.3888
392	1	4	0.099473	-3.4797001	16.0441	12.6985
393	1	4	0.099473	-3.9272001	16.1257	14.4284
394	1	4	0.097185999	-2.0123999	14.5542	13.8595
395	1	4	0.097185999	-3.1345	13.5387	12.8978
396	1	3	0.089344002	-3.4965999	14.1596	15.9173
397	1	3	0.089344002	-4.4477	12.9959	14.9243
398	2	5	0.57450098	1.2546999	15.516	13.3519
399	2	6	-0.606906	0.147	15.9669	12.9553
400	2	5	-0.306665	1.5409	14.0685	13.343
401	2	5	-0.060412999	0.63230002	13.1754	12.9112
402	2	7	0.198964	-0.33989999	13.493	12.5555
403	2	5	-0.26892799	0.94809997	11.7342	12.9148
404	2	7	0.183751	0.21089999	11.0226	12.5652
405	2	5	-0.094632	2.1396999	11.3064	13.3462
406	2	7	0.210967	2.3529	10.2446	13.3413
407	2	5	-0.235236	3.1568999	12.2755	13.8267
408	2	5	0.82657897	4.4709001	11.7876	14.3019
409	2	6	-0.54719102	5.3466001	12.5958	14.7138
410	2	8	-0.678222	4.7494998	10.4239	14.2973
411	2	9	0.39891601	5.6445999	10.0745	14.62
412	2	5	0.044075001	2.8615999	13.5907	13.8219
413	2	7	0.227566	3.5864	14.3187	14.1673
414	4	1	-0.16237	1.7356	12.8468	30.5301
415	4	2	0.035971001	0.3529	12.6167	30.5194
416	4	2	-0.142967	-0.0074999998	11.5223	31.531
417	4	2	-0.136338	-1.4809	11.0887	31.450899
418	4	2	0.13943601	-2.4591	12.1526	31.961201
419	4	1	-0.50556999	-2.6500001	13.1435	30.991199
420	4	3	0.081321999	-3.4358001	11.663	32.1759
421	4	3	0.081321999	-2.0810001	12.6042	32.9062
422	4	4	0.095876001	-1.6009001	10.182	32.0835
423	4	4	0.095876001	-1.7419	10.7983	30.409599
424	4	4	0.097009003	0.62349999	10.6302	31.3265
425	4	4	0.097009003	0.2334	11.8707	32.559898
426	4	3	0.089344002	0.0189	12.3275	29.4965
427	4	3	0.089344002	-0.1539	13.5636	30.7962
428	5	5	0.78903401	-3.3032	13.8335	31.4081
429	5	6	-0.56999099	-4.2384	13.4197	32.144798
430	5	5	-0.241356	-3.1243999	15.2709	31.131901
431	5	5	-0.098738	-3.9500999	16.195801	31.6556
432	5	7	0.210967	-4.7746	15.9115	32.296398
433	5	5	-0.26892799	-3.7449	17.6273	31.3596
434	5	7	0.183751	-4.4152002	18.364401	31.785
435	5	5	-0.060412999	-2.7363	18.015699	30.5711
436	5	7	0.198964	-2.5994	19.068899	30.3641
437	5	5	-0.306665	-1.8158	17.0082	29.9862
438	5	5	0.57450098	-0.7022	17.4254	29.1161
439	5	6	-0.606906	-0.5097	18.641899	28.850901
440	5	5	0.041129	-2.007	15.7049	30.2572
441	5	7	0.227566	-1.3436	14.9571	29.8381
442	1	1	-0.16237	2.1514001	12.1079	30.0145
443	1	2	0.036083002	1.11	11.4442	29.351
444	1	2	-0.137228	0.67629999	12.2453	28.117901
445	1	2	-0.16428	-0.58039999	11.6731	27.438299
446	1	2	0.089576997	-0.33360001	10.3382	26.7243
447	1	8	-0.67839903	-0.29980001	9.2894001	27.6507
448	1	9	0.38742	-0.1209	8.4656	27.128201
449	1	3	0.080943003	-1.166	10.1612	26.007401
450	1	3	0.080943003	0.6189	10.3787	26.149799
451	1	4	0.099473	-0.91860002	12.4101	26.679001
452	1	4	0.099473	-1.4024	11.563	28.178301
453	1	4	0.097185999	0.44780001	13.2866	28.435499
454	1	4	0.097185999	1.5142	12.2949	27.3892
455	1	3	0.089344002	0.2492	11.292	30.0403
456	1	3	0.089344002	1.4843	10.4481	29.0368
457	2	5	0.57450098	-0.034699999	16.6863	28.6924
458	2	6	-0.606906	-0.50959998	15.7984	27.934999
459	2	5	-0.306665	1.4057	16.7335	29.009399
460	2	5	-0.060412999	2.2665	15.8326	28.5023
461	2	7	0.198964	1.9272	15.043	27.8437
462	2	5	-0.26892799	3.7012999	15.9061	28.8382
463	2	7	0.183751	4.3868999	15.177	28.425301
464	2	5	-0.094632	4.1556001	16.869101	29.647699
465	2	7	0.210967	5.2121	16.9065	29.882601
466	2	5	-0.235236	3.2224	17.8736	30.2178
467	2	5	0.82657897	3.7392001	18.9331	31.1126
468	2	6	-0.54719102	2.9616001	19.794201	31.606199
469	2	8	-0.678222	5.0963001	18.9853	31.417299
470	2	9	0.39891601	5.4651999	19.7045	32.0289
471	2	5	0.044075001	1.9126	17.8001	29.9079
472	2	7	0.227566	1.2106	18.521	30.310499
473	4	1	-0.16237	2.5416	13.7992	44.812801
474	4	2	0.035971001	1.687	13.7399	43.7033
475	4	2	-0.142967	1.9152	12.4353	42.930901
476	4	2	-0.136338	1.1418999	12.3779	41.602699
477	4	2	0.13943601	-0.373	12.232	41.783901
478	4	1	-0.50556999	-0.94440001	13.4657	42.116402
479	4	3	0.081321999	-0.81260002	11.8758	40.824902
480	4	3	0.081321999	-0.59750003	11.477	42.571098
481	4	4	0.095876001	1.5059	11.4915	41.0382
482	4	4	0.095876001	1.3678	13.2747	40.985199
483	4	4	0.097009003	2.9991	12.3461	42.7001
484	4	4	0.097009003	1.6397001	11.5685	43.5718
485	4	3	0.089344002	1.8549	14.6199	43.040798
486	4	3	0.089344002	0.64219999	13.7775	44.073601
487	5	5	0.78903401	-1.9593	13.2896	42.240799
488	5	6	-0.56999099	-2.5318999	12.4621	41.4818
489	5	5	-0.241356	-2.7032001	14.0052	43.2938
490	5	5	-0.098738	-4.0198002	13.8023	43.486599
491	5	7	0.210967	-4.5749998	13.1065	42.871101
492	5	5	-0.26892799	-4.7361999	14.5347	44.549099
493	5	7	0.183751	-5.796	14.3656	44.696201
494	5	5	-0.060412999	-4.0825	15.4033	45.328999
495	5	7	0.198964	-4.6222	15.932	46.1036
496	5	5	-0.306665	-2.6300001	15.6378	45.130199
497	5	5	0.57450098	-1.9006	16.592501	45.983299
498	5	6	-0.606906	-2.4933	17.2279	46.895599
499	5	5	0.041129	-1.9811	14.9696	44.160099
500	5	7	0.227566	-0.9206	15.1295	44.0023
501	1	1	-0.16237	3.437	14.054	44.469398
502	1	2	0.036083002	3.2550001	14.4764	43.1451
503	1	2	-0.137228	2.6875999	15.9004	43.1199
504	1	2	-0.16428	2.293	16.367399	41.7076
505	1	2	0.089576997	3.4960001	16.6227	40.791
506	1	8	-0.67839903	4.0001998	15.4125	40.3008
507	1	9	0.38742	4.7800002	15.6476	39.734699
508	1	3	0.080943003	3.1615	17.2491	39.9342
509	1	3	0.080943003	4.2884998	17.1784	41.340801
510	1	4	0.099473	1.7333	17.321501	41.811699
511	1	4	0.099473	1.6048	15.6325	41.2369
512	1	4	0.097185999	1.7752	15.9285	43.755501
513	1	4	0.097185999	3.4243	16.605499	43.562199
514	1	3	0.089344002	2.5769999	13.7763	42.607101
515	1	3	0.089344002	4.2435002	14.4591	42.641499
516	2	5	0.57450098	-0.84179997	16.7596	45.833302
517	2	6	-0.606906	-0.4452	17.1989	44.721001
518	2	5	-0.306665	0.1069	16.4704	46.9259
519	2	5	-0.060412999	1.4297	16.6649	46.777599
520	2	7	0.198964	1.8396	17.041201	45.848701
521	2	5	-0.26892799	2.3532	16.3661	47.888802
522	2	7	0.183751	3.4161999	16.525999	47.760502
523	2	5	-0.094632	1.8813	15.9011	49.0508
524	2	7	0.210967	2.5748999	15.6875	49.854599
525	2	5	-0.235236	0.42469999	15.6796	49.2355
526	2	5	0.82657897	-0.082999997	15.164	50.526501
527	2	6	-0.54719102	-1.3164001	14.9695	50.701199
528	2	8	-0.678222	0.8046	14.8882	51.562599
529	2	9	0.39891601	0.47220001	14.5342	52.452301
530	2	5	0.044075001	-0.41339999	15.9535	48.2159
531	2	7	0.227566	-1.4808	15.8008	48.324799
532	4	1	-0.16237	1.9542	16.3503	58.474899
533	4	2	0.035971001	1.5587	16.881201	59.710499
534	4	2	-0.142967	1.6314	18.412201	59.6745
535	4	2	-0.136338	1.3839999	19.0602	61.047199
536	4	2	0.13943601	-0.068599999	18.9473	61.5228
537	4	1	-0.50556999	-0.31619999	17.666901	62.031101
538	4	3	0.081321999	-0.23720001	19.6961	62.329498
539	4	3	0.081321999	-0.76810002	19.173401	60.686401
540	4	4	0.095876001	1.6327	20.1406	60.9603
541	4	4	0.095876001	2.0695	18.6266	61.807999
542	4	4	0.097009003	2.6466999	18.7101	59.333302
543	4	4	0.097009003	0.90289998	18.8034	58.93
544	4	3	0.089344002	2.2031	16.4793	60.526001
545	4	3	0.089344002	0.51440001	16.5606	59.902401
546	5	5	0.78903401	-1.3142	17.657	62.314701
547	5	6	-0.56999099	-1.8128999	18.695299	62.826302
548	5	5	-0.241356	-2.1204	16.438601	62.1147
549	5	5	-0.098738	-3.418	16.3878	62.468498
550	5	7	0.210967	-3.9107001	17.2423	62.913799
551	5	5	-0.26892799	-4.198	15.1529	62.255699
552	5	7	0.183751	-5.2416	15.1211	62.544399
553	5	5	-0.060412999	-3.6219001	14.0765	61.708199
554	5	7	0.198964	-4.2076001	13.179	61.5588
555	5	5	-0.306665	-2.1917	14.1163	61.311501
556	5	5	0.57450098	-1.5475	12.9363	60.708302
557	5	6	-0.606906	-2.1953001	11.8725	60.5182
558	5	5	0.041129	-1.4842	15.2429	61.508301
559	5	7	0.227566	-0.4391	15.2881	61.2239
560	1	1	-0.16237	2.9453001	16.392401	58.450901
561	1	2	0.036083002	3.3677001	16.6842	59.755402
562	1	2	-0.137228	3.3044	15.4225	60.624001
563	1	2	-0.16428	3.5817001	15.7002	62.112099
564	1	2	0.089576997	5.0434999	16.062	62.403198
565	1	8	-0.67839903	5.2929001	17.3957	62.059601
566	1	9	0.38742	6.2519002	17.556299	62.255199
567	1	3	0.080943003	5.2312999	15.9274	63.491699
568	1	3	0.080943003	5.7270002	15.3836	61.844898
569	1	4	0.099473	3.3382001	14.7763	62.678902
570	1	4	0.099473	2.9091001	16.5021	62.486301
571	1	4	0.097185999	2.2835	14.9884	60.542702
572	1	4	0.097185999	4.0208001	14.6653	60.237999
573	1	3	0.089344002	2.7377999	17.491301	60.192799
574	1	3	0.089344002	4.414	17.049601	59.702702
575	2	5	0.57450098	-0.50449997	12.9713	60.421398
576	2	6	-0.606906	0.36410001	13.1969	61.305901
577	2	5	-0.306665	-0.12540001	12.7566	59.0116
578	2	5	-0.060412999	1.16	12.7926	58.616402
579	2	7	0.198964	1.9581	12.9805	59.323601
580	2	5	-0.26892799	1.5073	12.5743	57.1992
581	2	7	0.183751	2.5444	12.6048	56.890301
582	2	5	-0.094632	0.54689997	12.3383	56.298599
583	2	7	0.210967	0.82169998	12.1806	55.262901
584	2	5	-0.235236	-0.87800002	12.294	56.713699
585	2	5	0.82657897	-1.9299001	12.0326	55.7061
586	2	6	-0.54719102	-3.145	11.9918	56.040199
587	2	8	-0.678222	-1.5817	11.8292	54.373798
588	2	9	0.39891601	-2.2907	11.6494	53.672199
589	2	5	0.044075001	-1.1885999	12.4955	58.009899
590	2	7	0.227566	-2.2207999	12.4682	58.339001
591	4	1	-0.16237	-0.17470001	27.5758	1.436
592	4	2	0.035971001	0.57230002	28.6332	1.9733
593	4	2	-0.142967	1.7557	28.086399	2.7802999
594	4	2	-0.136338	2.5186	29.179399	3.5476999
595	4	2	0.13943601	3.3217001	30.116199	2.6386001
596	4	1	-0.50556999	2.4762001	31.0597	2.0434
597	4	3	0.081321999	4.0791998	30.648199	3.2574999
598	4	3	0.081321999	3.8587999	29.5312	1.8581001
599	4	4	0.095876001	3.2325001	28.674	4.2343998
600	4	4	0.095876001	1.818	29.7684	4.1792998
601	4	4	0.097009003	1.3695	27.353701	3.5218999
602	4	4	0.097009003	2.4489	27.5397	2.1032
603	4	3	0.089344002	-0.074699998	29.274099	2.6152999
604	4	3	0.089344002	0.94700003	29.2502	1.1312
605	5	5	0.78903401	3.0792999	31.6434	1.4333
606	5	6	-0.56999099	4.244	31.929001	1.8211
607	5	5	-0.241356	2.5646999	32.1217	0.13680001
608	5	5	-0.098738	3.3173001	32.879398	-0.68229997
609	5	7	0.210967	4.3263001	33.1632	-0.4127
610	5	5	-0.26892799	2.773	33.343102	-1.9736