Title

16500 atoms
16750 bonds
30000 angles
52625 dihedrals
6375 impropers

11 atom types
16 bond types
10 angle types
43 dihedral types
3 improper types
-13.14260538 139.5829701 xlo xhi
-12.95074936 138.7448332 ylo yhi
-14.02865959 140.2137285 zlo zhi
0.0 0.0 0.0 xy xz yz

Masses

1	12.01078
2	15.99943
3	15.99943
4	12.01078
5	15.99943
6	1.007947
7	1.007947
8	1.007947
9	14.00672
10	1.007947
11	1.007947


Pair Coeffs

1	0.086879315	3.4806469
2	0.2102061	3.0398122
3	0.16846514	3.0251065
4	0.10884061	3.3795318
5	0.20947353	2.99716
6	1.2326e-05	0.53453923
7	0.016409246	2.5832257
8	0.015779483	2.6445434
9	0.16769152	3.206876
10	0.015611343	2.5725815
11	0.014090815	1.1034277

Bond Coeffs

1 harmonic	582.698766451	1.225198386222
2 harmonic	301.15400723785	1.345741232799
3 harmonic	279.1350963404	1.454628925034
4 harmonic	366.7408841747	1.425895053732
5 harmonic	264.62148576755	1.52190126495
6 harmonic	370.04670688625	1.093899492634
7 harmonic	329.96998057905	1.427343958716
8 harmonic	543.5267831885	0.9716763312559
9 harmonic	492.76746816345	1.381897776683
10 harmonic	352.0565580496	1.450098586273
11 harmonic	505.144496193	1.019481865027
12 harmonic	289.73813263395	1.498646816465
13 harmonic	360.7852444772	1.387193227181
14 harmonic	397.2545789619	1.085358495916
15 harmonic	366.34047229585	1.464762957261
16 harmonic	422.7150220147	1.421786517481


Angle Coeffs

1 harmonic	65.09061609600001	110.3538806181
2 harmonic	57.8982893754	126.8062420451
3 harmonic	201.41175231035	127.4691416191
4 harmonic	53.20531626545	116.5475862634
5 harmonic	55.42182150775	117.3465570514
6 harmonic	63.44422595415	115.5071327674
7 harmonic	48.776492647595	115.6030999533
8 harmonic	34.066775159195	129.1835929926
9 harmonic	94.53012429075	110.92021963
10 harmonic	49.015990027215	114.8414599994


Dihedral Coeffs

1 fourier 1	0.1918272375143	3	0
2 fourier 1	0.9202179876409	1	180
3 fourier 1	0.0473758381877	3	0
4 fourier 1	2.779853741805	2	180
5 fourier 1	1.163809172478	2	180
6 fourier 1	0.1679186987369	1	180
7 fourier 1	0.9974165607242	2	180
8 fourier 1	-0.0309670556842	3	0
9 fourier 1	0.4598191477945	2	0
10 fourier 1	0.1155372516788	3	0
11 fourier 1	0.1115525666802	3	0
12 fourier 1	0.3432490222662	1	0
13 fourier 1	0.3445382149273	3	0
14 fourier 1	0.1364556373303	1	0
15 fourier 1	0.1040663847541	3	0
16 fourier 1	0.4552156463534	3	0
17 fourier 1	-0.03687743385131	2	180
18 fourier 1	0.3026390167484	3	0
19 fourier 1	0.09223874044423	3	0
20 fourier 1	0.3159935921949	2	180
21 fourier 1	0.3247796806857	1	180
22 fourier 1	1.809047390003	2	180
23 fourier 1	-0.04816277792592	1	0
24 fourier 1	-0.6891728821899999	2	180
25 fourier 1	0.2727846432367	1	0
26 fourier 1	0.182238503271	2	0
27 fourier 1	0.02972342374561	3	0
28 fourier 1	0.4860993122944	2	180
29 fourier 1	0.8916986138746	1	0
30 fourier 1	0.1911926717192	3	0
31 fourier 1	0.02664938770063	3	0
32 fourier 1	3.661930099076	2	180
33 fourier 1	0.2036670163956	3	0
34 fourier 1	0.6761465733405	3	0
35 fourier 1	1.653011589151	2	0
36 fourier 1	1.713184811193	1	0
37 fourier 1	0.774151252041	3	0
38 fourier 1	1.087509576657	2	0
39 fourier 1	1.518874939494	1	0
40 fourier 1	0.3917343745784	3	0
41 fourier 1	0.9467782973395	2	0
42 fourier 1	0.2726597146827	1	0
43 fourier 1	1.659715194912	2	180


Improper Coeffs

1 3.5	-1	2
2 0.3333333333333333	-1	2
3 0.3666666666666667	-1	2


Atoms

1	4	1	0.63070417	0.17624181	-3.9286557	-2.5277075
2	4	2	-0.51261061	-0.67558247	-4.20752	-1.6419806
3	4	3	-0.48798099	0.14185641	-2.7079201	-3.2094084
4	4	4	0.11432353	-0.79881949	-1.6710224	-2.929848
5	4	4	0.13818139	-0.31123446	-0.79074284	-1.7680822
6	4	5	-0.69407826	-0.25601511	-1.5567061	-0.5938846
7	4	6	0.42021731	0.354424	-1.0836869	0.030838443
8	4	4	0.049082126	-1.2479886	0.40730067	-1.5520093
9	4	3	-0.47015738	-1.2148183	1.2489553	-2.6862307
10	4	4	0.083491999	-1.9632491	2.4290634	-2.4566064
11	4	4	-0.15416392	-1.0558465	3.5718972	-1.9846156
12	4	4	-0.13437026	0.0063263693	3.9280302	-3.0368717
13	4	4	-0.13437026	1.0220937	4.9697767	-2.5340845
14	4	4	-0.15416392	0.42165027	6.3417196	-2.1742022
15	4	4	0.083491999	-0.25044302	7.0355084	-3.3652042
16	4	3	-0.47015738	-0.64572807	8.3437875	-2.9976441
17	4	4	0.049082118	0.28393405	9.2980415	-3.4683049
18	4	4	0.14192307	-0.11800673	10.701056	-2.9827832
19	4	5	-0.69407826	0.97128071	11.581811	-3.0997836
20	4	6	0.42021731	1.2099291	11.637467	-4.0626244
21	4	4	0.094424139	-1.3360987	11.27218	-3.7349928
22	4	3	-0.48204183	-2.5237357	10.537166	-3.4356908
23	4	1	0.7918678	-3.0605514	9.5507346	-4.2700056
24	4	2	-0.57407415	-2.5179783	9.2563864	-5.3675632
25	4	7	0.1144514	-1.4920275	12.318286	-3.397509
26	4	7	0.1144514	-1.1478144	11.309379	-4.8300939
27	4	7	0.10678137	-0.37715837	10.63506	-1.9027004
28	4	7	0.10407479	0.32445264	9.2938361	-4.5818446
29	4	7	0.10407479	1.2995865	9.0706294	-3.0721689
30	4	7	0.092236932	0.41513738	7.0010591	-4.2615088
31	4	7	0.092236932	-1.1714403	6.4776313	-3.632887
32	4	8	0.10392651	-0.30305833	6.2418307	-1.3385697
33	4	8	0.10392651	1.2494321	6.9849006	-1.8057468
34	4	8	0.098018947	1.5399178	4.564141	-1.6382804
35	4	8	0.098018947	1.7975738	5.1136752	-3.3174062
36	4	8	0.098018947	0.5765867	3.0106772	-3.3008632
37	4	8	0.098018947	-0.482471	4.2841165	-3.9681766
38	4	8	0.10392651	-0.56294371	3.2873317	-1.0309069
39	4	8	0.10392651	-1.6971812	4.4569255	-1.7904922
40	4	7	0.092236932	-2.442309	2.7267707	-3.4138744
41	4	7	0.092236932	-2.7977661	2.288639	-1.7282354
42	4	7	0.10407479	-2.2815302	0.03176214	-1.375971
43	4	7	0.10407479	-0.90492981	0.9560731	-0.64542426
44	4	7	0.10678137	0.70707509	-0.41118505	-2.0211129
45	4	7	0.10394493	-0.89378416	-1.048035	-3.8447636
46	4	7	0.10394493	-1.80128	-2.1001246	-2.7096069
47	5	9	-0.43732348	-3.9435321	9.0396617	-3.9697746
48	5	4	0.093372162	-3.7598508	8.5423778	-2.6084007
49	5	1	-0.22421913	-2.5754434	7.6134746	-2.5260355
50	5	1	-0.28401178	-1.3442647	8.0916618	-2.2775884
51	5	10	0.20998022	-1.185312	9.1506972	-2.1081774
52	5	1	-0.2192612	-0.18580533	7.1766154	-2.2295261
53	5	10	0.21246134	0.79897101	7.5679925	-2.0107922
54	5	1	-0.25642577	-0.35340979	5.8684156	-2.4549123
55	5	10	0.21178302	0.5008714	5.2045029	-2.4148165
56	5	1	-0.26137647	-1.6999982	5.3303092	-2.7629354
57	5	4	0.093185629	-1.8824289	3.8512895	-2.9866687
58	5	9	-0.62205225	-2.1636626	3.1608495	-1.7298599
59	5	11	0.37209797	-3.0308541	3.5662443	-1.3092142
60	5	7	0.083457793	-2.7146697	3.6653959	-3.7007443
61	5	7	0.083457793	-0.96440508	3.4221928	-3.44126
62	5	1	-0.26709041	-2.7561831	6.1632986	-2.784757
63	5	10	0.20579693	-3.7485103	5.7802402	-2.9889381
64	5	7	0.047460891	-3.6267714	9.4036616	-1.9178046
65	5	7	0.047460891	-4.6796647	8.009061	-2.2868735
66	5	11	0.32931626	-4.070703	8.223298	-4.6114497
67	2	1	0.63070417	0.94317452	-4.6503421	-2.77374
68	2	2	-0.51261055	1.797558	-4.3717801	-3.6562484
69	2	3	-0.48798099	0.96899843	-5.8769442	-2.1059777
70	2	4	0.11432353	1.9467356	-6.8774092	-2.3777203
71	2	4	0.13818139	1.7162221	-8.1051197	-1.4860385
72	2	5	-0.69407826	0.41786907	-8.6022222	-1.6806727
73	2	6	0.42021731	0.42059276	-9.0803025	-2.5513953
74	2	4	0.049082126	1.9181613	-7.7607343	-0.0039152827
75	2	3	-0.47015738	1.8454845	-8.9379247	0.7806763
76	2	4	0.083491999	0.63033409	-9.0122222	1.5056655
77	2	4	-0.15416392	0.74399877	-8.2914415	2.8553268
78	2	4	-0.13437026	1.8521823	-8.8976183	3.731409
79	2	4	-0.13437026	1.8843554	-8.2943384	5.1447781
80	2	4	-0.15502546	2.4155197	-6.8503388	5.158144
81	2	4	0.088261108	2.5276764	-6.2996379	6.585623
82	2	3	-0.47108221	3.4082384	-7.0884653	7.3630075
83	2	4	0.14290734	4.70919	-6.5349344	7.3614044
84	2	4	0.20772326	5.6916962	-7.518301	8.0046624
85	2	7	0.16675553	6.721372	-7.1032472	7.9488139
86	2	3	-0.3842631	5.6519458	-8.7664203	7.3228414
87	2	1	0.80893117	5.3122426	-9.7510587	8.2203959
88	2	2	-0.38242808	5.1935383	-10.965756	7.9145726
89	2	3	-0.38532453	5.1125314	-9.2600788	9.4891367
90	2	4	0.16678612	5.3329105	-7.8558904	9.4799275
91	2	7	0.15258891	4.4181809	-7.3322017	9.8304827
92	2	7	0.15258891	6.1807296	-7.6089526	10.153792
93	2	7	0.10680463	4.7222955	-5.5838542	7.9408255
94	2	7	0.10680463	5.0611284	-6.3314002	6.3248514
95	2	7	0.093089658	1.5233463	-6.3336199	7.0597667
96	2	7	0.093089658	2.8133056	-5.2209161	6.5511382
97	2	8	0.10392651	1.724527	-6.1922587	4.5908965
98	2	8	0.10392651	3.4102803	-6.8097632	4.6655083
99	2	8	0.098018947	2.550978	-8.9300041	5.767996
100	2	8	0.098018947	0.86844767	-8.3298268	5.5947415
101	2	8	0.098018947	1.6724817	-9.9908728	3.830057
102	2	8	0.098018947	2.8413931	-8.7614915	3.2440801
103	2	8	0.10392651	-0.23186522	-8.3761369	3.381613
104	2	8	0.10392651	0.9441464	-7.2142083	2.6764652
105	2	7	0.092236932	0.40505222	-10.083021	1.6914462
106	2	7	0.092236932	-0.23834039	-8.6154765	0.93026263
107	2	7	0.10407479	2.9362955	-7.3364316	0.12644917
108	2	7	0.10407479	1.2063376	-6.9592602	0.30769854
109	2	7	0.10678137	2.4632557	-8.8857377	-1.7615513
110	2	7	0.10394493	1.8759052	-7.1832432	-3.4447131
111	2	7	0.10394493	2.965223	-6.4678843	-2.2002444
112	3	9	-0.62205219	-1.375486	3.3394281	-1.064701
113	3	4	0.093185674	-0.87691185	2.0571644	-0.57177023
114	3	1	-0.25369143	-1.9681914	1.281913	0.12033099
115	3	1	-0.25642577	-2.7649028	0.45109611	-0.57256457
116	3	10	0.21178302	-2.6218419	0.30614807	-1.6366917
117	3	1	-0.20927222	-3.8504541	-0.28015583	0.11041356
118	3	10	0.21246134	-4.4761386	-0.96234762	-0.4519202
119	3	1	-0.25705689	-4.0614063	-0.10240645	1.4198892
120	3	10	0.21178302	-4.8572	-0.64566023	1.91342
121	3	1	-0.2806957	-3.2115064	0.83624386	2.1918476
122	3	4	0.096482988	-3.4375108	1.006519	3.6719795
123	3	9	-0.96515977	-2.6469965	0.046364567	4.438389
124	3	11	0.39020694	-2.905827	-0.92088336	4.1348643
125	3	11	0.39020694	-1.6348863	0.18872972	4.2143104
126	3	7	0.07135849	-3.1699808	2.0384887	3.9892668
127	3	7	0.07135849	-4.5138404	0.86318624	3.9085049
128	3	1	-0.23893533	-2.2099055	1.4840113	1.5708911
129	3	10	0.20768161	-1.5689273	2.1577886	2.1267985
130	3	7	0.083457793	-0.46460477	1.4724984	-1.4233637
131	3	7	0.083457793	-0.037594556	2.2395491	0.13355261
132	3	11	0.37209794	-1.7582791	3.8845069	-0.25769209
133	4	1	0.63070417	0.87646098	4.5890614	29.137587
134	4	2	-0.51261061	0.73682889	4.2903056	30.353782
135	4	3	-0.48798099	1.6513839	3.8008693	28.28065
136	4	4	0.11432353	2.2880717	2.5871593	28.680298
137	4	4	0.13818139	1.3147546	1.4018535	28.580124
138	4	5	-0.69407826	0.26675287	1.5802992	29.495732
139	4	6	0.42021731	-0.48564049	1.0094127	29.188072
140	4	4	0.049082126	2.0290161	0.074254597	28.874769
141	4	3	-0.47015738	3.0060998	-0.17139008	27.884362
142	4	4	0.083491999	3.5829502	-1.4532348	28.05655
143	4	4	-0.15416392	2.8881315	-2.4921857	27.167713
144	4	4	-0.13437026	3.0262994	-2.1496158	25.675788
145	4	4	-0.13437026	2.2164912	-3.0921563	24.767139
146	4	4	-0.15416392	2.6426632	-4.5712687	24.820797
147	4	4	0.083491999	4.0929984	-4.796084	24.37636
148	4	3	-0.47015738	4.3652183	-6.1833909	24.31139
149	4	4	0.049082118	4.2971712	-6.6445857	22.977575
150	4	4	0.14192307	4.5086233	-8.1676407	22.94113
151	4	5	-0.69407826	4.0643385	-8.6864974	21.712568
152	4	6	0.42021731	4.6153696	-8.2742021	20.995985
153	4	4	0.094424139	5.9745934	-8.5776836	23.183094
154	4	3	-0.48204183	6.3827163	-8.2847693	24.520235
155	4	1	0.7918678	7.1291026	-7.1567153	24.877587
156	4	2	-0.57407415	7.5033325	-6.3198839	24.014266
157	4	7	0.1144514	6.0554783	-9.6753687	23.037867
158	4	7	0.1144514	6.6504275	-8.1015465	22.439708
159	4	7	0.10678137	3.8841128	-8.6253728	23.740231
160	4	7	0.10407479	5.0746741	-6.1520686	22.349446
161	4	7	0.10407479	3.2947664	-6.4221934	22.546395
162	4	7	0.092236932	4.2961136	-4.2519467	23.422313
163	4	7	0.092236932	4.7733896	-4.3636803	25.138732
164	4	8	0.10392651	2.4937258	-4.9820008	25.841864
165	4	8	0.10392651	1.9688297	-5.1401332	24.144775
166	4	8	0.098018947	1.1422349	-3.0231566	25.043471
167	4	8	0.098018947	2.3035887	-2.7331727	23.718705
168	4	8	0.098018947	2.647274	-1.1184319	25.504252
169	4	8	0.098018947	4.0966068	-2.1540776	25.380033
170	4	8	0.10392651	1.8141309	-2.559675	27.442411
171	4	8	0.10392651	3.3575204	-3.4781958	27.367029
172	4	7	0.092236932	4.6532172	-1.393162	27.764301
173	4	7	0.092236932	3.575128	-1.8027618	29.116942
174	4	7	0.10407479	2.501363	0.13280691	29.88159
175	4	7	0.10407479	1.2647259	-0.73601913	28.882116
176	4	7	0.10678137	0.90893715	1.3701272	27.541207
177	4	7	0.10394493	3.1443623	2.4151811	27.993719
178	4	7	0.10394493	2.6966441	2.6797429	29.710861
179	5	9	-0.43732348	7.3838777	-7.0037159	25.8987
180	5	4	0.093372162	6.1732185	-7.1185862	26.708316
181	5	1	-0.22421913	5.1376058	-6.1101242	26.280558
182	5	1	-0.28401178	4.2502721	-6.4050027	25.315221
183	5	10	0.20998022	4.248414	-7.3816162	24.844323
184	5	1	-0.2192612	3.259462	-5.3988684	24.88205
185	5	10	0.21246134	2.5371391	-5.6512157	24.116951
186	5	1	-0.25642577	3.254512	-4.1800547	25.434087
187	5	10	0.21178302	2.5228064	-3.4496947	25.112583
188	5	1	-0.26137647	4.2480487	-3.8285499	26.476712
189	5	4	0.093185629	4.2153404	-2.4626757	27.112444
190	5	9	-0.62205225	3.3448489	-2.4504573	28.286098
191	5	11	0.37209797	3.6969973	-3.1544296	28.974373
192	5	7	0.083457793	5.2391733	-2.148472	27.412656
193	5	7	0.083457793	3.8492781	-1.7134794	26.37879
194	5	1	-0.26709041	5.1352116	-4.7542402	26.884037
195	5	10	0.20579693	5.8537457	-4.5169495	27.658981
196	5	7	0.047460891	5.769544	-8.1509617	26.620619
197	5	7	0.047460891	6.4320831	-6.9621793	27.777142
198	5	11	0.32931626	7.7578489	-6.0309548	25.989531
199	2	1	0.63070417	0.39675328	5.4773729	28.749861
200	2	2	-0.51261055	0.53231187	5.775491	27.533662
201	2	3	-0.48798099	-0.36371144	6.2751317	29.607998
202	2	4	0.11432353	-1.0226706	7.46039	29.170186
203	2	4	0.13818139	-1.77674	8.1136551	30.336432
204	2	5	-0.69407826	-0.88817128	8.3891903	31.387736
205	2	6	0.42021731	-0.36209506	9.1873761	31.117793
206	2	4	0.049082126	-2.90779	7.2080793	30.843116
207	2	3	-0.47015738	-3.6774601	7.8930773	31.815242
208	2	4	0.083491999	-3.4185569	7.4143623	33.123493
209	2	4	-0.15416392	-4.3158053	6.2174115	33.464498
210	2	4	-0.13437026	-5.8065272	6.5839451	33.384235
211	2	4	-0.13437026	-6.7212378	5.4475663	33.86853
212	2	4	-0.15502546	-6.773142	4.2697442	32.879849
213	2	4	0.088261108	-7.7618099	3.1888258	33.335588
214	2	3	-0.47108221	-9.0703672	3.7157574	33.445068
215	2	4	0.14290734	-9.8067799	3.4757543	32.262288
216	2	4	0.20772326	-11.126739	4.2515171	32.307107
217	2	7	0.16675553	-11.675036	4.1054654	31.351252
218	2	3	-0.3842631	-10.872989	5.6388714	32.494512
219	2	1	0.80893117	-11.507856	6.0545543	33.641101
220	2	2	-0.38242808	-11.466925	7.2349857	34.074709
221	2	3	-0.38532453	-12.18944	5.0355873	34.263836
222	2	4	0.16678612	-12.029179	3.8435403	33.506382
223	2	7	0.15258891	-11.569963	3.0565281	34.141678
224	2	7	0.15258891	-13.021207	3.4958552	33.147404
225	2	7	0.10680463	-10.032124	2.3894437	32.164291
226	2	7	0.10680463	-9.2455008	3.8110644	31.361032
227	2	7	0.093089658	-7.4515795	2.8230213	34.337881
228	2	7	0.093089658	-7.6953528	2.30703	32.654094
229	2	8	0.10392651	-5.7689161	3.803322	32.800535
230	2	8	0.10392651	-7.0623112	4.6359064	31.871786
231	2	8	0.098018947	-7.7451423	5.8654137	33.986343
232	2	8	0.098018947	-6.3862354	5.0913362	34.866863
233	2	8	0.098018947	-5.9920965	7.4709664	34.029205
234	2	8	0.098018947	-6.075574	6.8625227	32.342809
235	2	8	0.10392651	-4.0727644	5.879198	34.495518
236	2	8	0.10392651	-4.0890927	5.3830576	32.768124
237	2	7	0.092236932	-3.632381	8.2352769	33.839213
238	2	7	0.092236932	-2.3471789	7.1480785	33.279483
239	2	7	0.10407479	-3.5811565	6.9712261	29.992173
240	2	7	0.10407479	-2.4947624	6.2315685	31.192389
241	2	7	0.10678137	-2.2345802	9.0628746	29.972158
242	2	7	0.10394493	-0.26973401	8.1775429	28.775467
243	2	7	0.10394493	-1.7334698	7.2162774	28.350614
244	3	9	-0.62205219	2.3837927	-2.7454535	27.994726
245	3	4	0.093185674	1.4271099	-1.7332253	28.437343
246	3	1	-0.25369143	1.4793614	-1.556232	29.932954
247	3	1	-0.25642577	2.3274391	-0.67586865	30.490479
248	3	10	0.21178302	2.9718924	-0.061131553	29.873534
249	3	1	-0.20927222	2.3918731	-0.53263432	31.958451
250	3	10	0.21246134	3.064722	0.19280293	32.39902
251	3	1	-0.25705689	1.6216485	-1.2951972	32.743355
252	3	10	0.21178302	1.6725212	-1.1807703	33.818671
253	3	1	-0.2806957	0.70436815	-2.2946743	32.144225
254	3	4	0.096482988	-0.18092597	-3.1272417	33.035263
255	3	9	-0.96515977	-1.4587702	-2.4616451	33.276693
256	3	11	0.39020694	-1.2747854	-1.5269915	33.70943
257	3	11	0.39020694	-1.9318614	-2.2979523	32.35787
258	3	7	0.07135849	-0.36682198	-4.1232459	32.576326
259	3	7	0.07135849	0.32517838	-3.3076663	34.008032
260	3	1	-0.23893533	0.63253802	-2.407064	30.806091
261	3	10	0.20768161	-0.047507574	-3.1193995	30.354452
262	3	7	0.083457793	1.6474449	-0.77148398	27.923972
263	3	7	0.083457793	0.4042068	-2.0392088	28.12873
264	3	11	0.37209794	2.1678732	-3.6474222	28.479222
265	4	1	0.63070417	-3.9808214	-2.3775181	58.542297
266	4	2	-0.51261061	-3.6317648	-2.1213081	59.725681
267	4	3	-0.48798099	-3.9421263	-1.3972203	57.545496
268	4	4	0.11432353	-3.4603576	-0.07023974	57.758107
269	4	4	0.13818139	-1.9319351	-0.013845037	57.606201
270	4	5	-0.69407826	-1.3342119	-0.78293765	58.61601
271	4	6	0.42021731	-0.41480046	-0.99893534	58.308293
272	4	4	0.049082126	-1.4209365	1.4319395	57.696154
273	4	3	-0.47015738	-1.9233741	2.1834999	56.610495
274	4	4	0.083491999	-1.3573546	3.481542	56.595016
275	4	4	-0.15416392	-0.14649441	3.541639	55.655638
276	4	4	-0.13437026	-0.53473183	3.2188204	54.203968
277	4	4	-0.13437026	0.6814718	3.1276513	53.264633
278	4	4	-0.15416392	1.4914076	4.4299376	53.122052
279	4	4	0.083491999	0.67091138	5.5883883	52.542125
280	4	3	-0.47015738	1.513004	6.7007036	52.30426
281	4	4	0.049082118	1.8626532	6.7802051	50.937578
282	4	4	0.14192307	2.846847	7.9416066	50.717928
283	4	5	-0.69407826	3.4949068	7.7962123	49.47904
284	4	6	0.42021731	2.7994281	7.8337025	48.770508
285	4	4	0.094424139	2.1721988	9.32523	50.796579
286	4	3	-0.48204183	1.7187113	9.6082577	52.121175
287	4	1	0.7918678	0.39234467	9.4567384	52.539615
288	4	2	-0.57407415	-0.50268357	9.0629566	51.746193
289	4	7	0.1144514	2.926228	10.093873	50.526074
290	4	7	0.1144514	1.3448656	9.4087265	50.058589
291	4	7	0.10678137	3.6276386	7.8910622	51.509069
292	4	7	0.10407479	0.95812261	6.9429463	50.307523
293	4	7	0.10407479	2.3594304	5.8374422	50.614158
294	4	7	0.092236932	0.1049393	5.2507904	51.640321
295	4	7	0.092236932	-0.084870215	5.9033697	53.290922
296	4	8	0.10392651	1.9241206	4.7277854	54.100575
297	4	8	0.10392651	2.3462068	4.2217417	52.44335
298	4	8	0.098018947	1.3599054	2.327304	53.631129
299	4	8	0.098018947	0.3278402	2.8149778	52.258229
300	4	8	0.098018947	-1.0481183	2.2328537	54.176967
301	4	8	0.098018947	-1.2588247	3.9708721	53.825608
302	4	8	0.10392651	0.6327433	2.8318206	56.005549
303	4	8	0.10392651	0.27352455	4.5678537	55.70795
304	4	7	0.092236932	-2.129087	4.1912108	56.227198
305	4	7	0.092236932	-1.0636488	3.8479027	57.60802
306	4	7	0.10407479	-1.7533787	1.8740758	58.662707
307	4	7	0.10407479	-0.307513	1.4076618	57.675282
308	4	7	0.10678137	-1.6649471	-0.42903004	56.605511
309	4	7	0.10394493	-3.927639	0.58366656	56.991128
310	4	7	0.10394493	-3.7744742	0.30549225	58.756966
311	5	9	-0.43732348	0.13657682	9.6778765	53.547916
312	5	4	0.093372162	1.0577061	8.9695897	54.433478
313	5	1	-0.22421913	0.99508422	7.4812902	54.202158
314	5	1	-0.28401178	1.7824195	6.8958284	53.28372
315	5	10	0.20998022	2.4932931	7.4801455	52.710349
316	5	1	-0.2192612	1.6912674	5.4413511	53.043231
317	5	10	0.21246134	2.3418768	4.9756676	52.314773
318	5	1	-0.25642577	0.80798082	4.7020571	53.724059
319	5	10	0.21178302	0.74999254	3.636125	53.543476
320	5	1	-0.26137647	-0.09045157	5.3383795	54.716858
321	5	4	0.093185629	-1.0615866	4.4921405	55.498915
322	5	9	-0.62205225	-0.45285369	3.9981803	56.732128
323	5	11	0.37209797	-0.1490967	4.8155896	57.309088
324	5	7	0.083457793	-1.973594	5.0773495	55.74963
325	5	7	0.083457793	-1.3907409	3.6284794	54.883048
326	5	1	-0.26709041	0.010071614	6.6597385	54.948761
327	5	10	0.20579693	-0.62657198	7.1339234	55.685627
328	5	7	0.047460891	2.0905672	9.3456682	54.265532
329	5	7	0.047460891	0.79800725	9.1977881	55.489104
330	5	11	0.32931626	-0.83211653	9.3198908	53.714794
331	2	1	0.63070417	-4.3268823	-3.3714259	58.293424
332	2	2	-0.51261055	-4.6727303	-3.6302131	57.110289
333	2	3	-0.48798099	-4.3823383	-4.3472648	59.291316
334	2	4	0.11432353	-4.8291562	-5.6768162	59.039541
335	2	4	0.13818139	-4.7733186	-6.5113357	60.326384
336	2	5	-0.69407826	-5.544755	-5.9007629	61.327783
337	2	6	0.42021731	-6.4965522	-6.0786161	61.106026
338	2	4	0.049082126	-3.3289371	-6.6764445	60.818899
339	2	3	-0.47015738	-3.2915511	-7.5691758	61.918115
340	2	4	0.083491999	-3.0744759	-6.8879041	63.141417
341	2	4	-0.15416392	-1.5761648	-6.7094255	63.419336
342	2	4	-0.13437026	-0.84814701	-8.0610273	63.4981
343	2	4	-0.13437026	0.62108421	-7.916648	63.926011
344	2	4	-0.15502546	1.4999791	-7.3041588	62.821543
345	2	4	0.088261108	2.9770495	-7.254816	63.233096
346	2	3	-0.47108221	3.4692834	-8.553596	63.502987
347	2	4	0.14290734	4.1085045	-9.0930775	62.363149
348	2	4	0.20772326	4.4224135	-10.573897	62.597124
349	2	7	0.16675553	4.8720759	-11.007172	61.677507
350	2	3	-0.3842631	3.2303417	-11.282716	62.914617
351	2	1	0.80893117	3.3813859	-11.874423	64.14652
352	2	2	-0.38242808	2.4923598	-12.570124	64.702165
353	2	3	-0.38532453	4.6109706	-11.617956	64.70598
354	2	4	0.16678612	5.3643356	-10.809209	63.812242
355	2	7	0.15258891	5.6561332	-9.864864	64.31913
356	2	7	0.15258891	6.2781068	-11.356553	63.497114
357	2	7	0.10680463	5.061183	-8.5512496	62.164957
358	2	7	0.10680463	3.4579398	-9.0213833	61.462397
359	2	7	0.093089658	3.0674859	-6.6511167	64.161543
360	2	7	0.093089658	3.5659376	-6.7109467	62.45603
361	2	8	0.10392651	1.1682742	-6.265653	62.612288
362	2	8	0.10392651	1.3949659	-7.8933486	61.885748
363	2	8	0.098018947	1.0030431	-8.9323266	64.169653
364	2	8	0.098018947	0.68767975	-7.3015819	64.84962
365	2	8	0.098018947	-1.3619005	-8.7009103	64.24899
366	2	8	0.098018947	-0.90279033	-8.5817001	62.518063
367	2	8	0.10392651	-1.4602018	-6.1697131	64.384595
368	2	8	0.10392651	-1.1304775	-6.0809842	62.62002
369	2	7	0.092236932	-3.5183328	-7.4953792	63.957408
370	2	7	0.092236932	-3.5928278	-5.9016165	63.1819
371	2	7	0.10407479	-2.7250958	-7.1277068	60.003201
372	2	7	0.10407479	-2.873875	-5.6782088	61.025299
373	2	7	0.10678137	-5.1784942	-7.5264491	60.105684
374	2	7	0.10394493	-5.8768965	-5.6503407	58.667298
375	2	7	0.10394493	-4.1939122	-6.1466802	58.257097
376	3	9	-0.62205219	0.40300821	3.4476271	56.487301
377	3	4	0.093185674	0.30898728	2.130048	57.112523
378	3	1	-0.25369143	0.18484027	2.2488687	58.609646
379	3	1	-0.25642577	-1.0209058	2.3630426	59.191239
380	3	10	0.21178302	-1.9261924	2.3481924	58.596194
381	3	1	-0.20927222	-1.1290266	2.509578	60.656315
382	3	10	0.21246134	-2.1056566	2.5820325	61.118949
383	3	1	-0.25705689	-0.025114517	2.5520952	61.411559
384	3	10	0.21178302	-0.11381842	2.6558339	62.485502
385	3	1	-0.2806957	1.3141204	2.4604857	60.781184
386	3	4	0.096482988	2.5501344	2.4787433	61.643042
387	3	9	-0.96515977	2.9228029	1.1280293	62.056422
388	3	11	0.39020694	2.1195513	0.70062769	62.572952
389	3	11	0.39020694	3.0937202	0.54952805	61.201454
390	3	7	0.07135849	3.3993434	2.9419772	61.093985
391	3	7	0.07135849	2.3709343	3.0997908	62.547012
392	3	1	-0.23893533	1.4080235	2.3052081	59.448719
393	3	10	0.20768161	2.3794809	2.2172973	58.977121
394	3	7	0.083457793	-0.56527862	1.5863357	56.691715
395	3	7	0.083457793	1.2140502	1.5389591	56.854311
396	3	11	0.37209794	1.229257	3.9511154	56.885694
397	4	1	0.63070417	-2.1024544	-4.1452935	87.420431
398	4	2	-0.51261061	-2.9096104	-3.3562044	87.980538
399	4	3	-0.48798099	-1.5327985	-3.8414286	86.179765
400	4	4	0.11432353	-1.7609224	-2.6168448	85.482244
401	4	4	0.13818139	-0.80303891	-1.5210231	85.976172
402	4	5	-0.69407826	-1.0806946	-1.2300497	87.320319
403	4	6	0.42021731	-0.27119866	-0.79217368	87.694007
404	4	4	0.049082126	-0.94698495	-0.24238164	85.137209
405	4	3	-0.47015738	-0.55177993	-0.499135	83.805356
406	4	4	0.083491999	-0.54497469	0.69585705	83.045436
407	4	4	-0.15416392	0.85947124	1.3104847	83.000842
408	4	4	-0.13437026	1.8739797	0.36634573	82.336268
409	4	4	-0.13437026	3.318748	0.89294869	82.408018
410	4	4	-0.15416392	3.5611491	2.2269151	81.677231
411	4	4	0.083491999	3.2776568	2.1486894	80.172222
412	4	3	-0.47015738	3.660462	3.3599933	79.548405
413	4	4	0.049082118	4.9191932	3.2236418	78.92119
414	4	4	0.14192307	5.3545811	4.5738485	78.326954
415	4	5	-0.69407826	6.7337851	4.5586301	78.055789
416	4	6	0.42021731	6.8988978	3.8487709	77.380548
417	4	4	0.094424139	4.574516	4.9497862	77.051839
418	4	3	-0.48204183	3.2017289	5.2174947	77.341833
419	4	1	0.7918678	2.1685731	4.2961997	77.139093
420	4	2	-0.57407415	2.3964101	3.1520613	76.665071
421	4	7	0.1144514	5.0190719	5.8778016	76.635061
422	4	7	0.1144514	4.6781702	4.1626439	76.273543
423	4	7	0.10678137	5.1747168	5.3642647	79.089178
424	4	7	0.10407479	4.8746852	2.4632183	78.107922
425	4	7	0.10407479	5.6853103	2.9078255	79.665176
426	4	7	0.092236932	3.7608371	1.2429455	79.732096
427	4	7	0.092236932	2.1851244	2.0314033	80.018164
428	4	8	0.10392651	2.9527325	3.036324	82.133464
429	4	8	0.10392651	4.6268725	2.5035204	81.826854
430	4	8	0.098018947	3.603842	1.017078	83.475005
431	4	8	0.098018947	3.9969846	0.12303004	81.980362
432	4	8	0.098018947	1.8530585	-0.61440799	82.859823
433	4	8	0.098018947	1.5847937	0.17589175	81.28121
434	4	8	0.10392651	1.1914957	1.5575304	84.031483
435	4	8	0.10392651	0.79837049	2.2559936	82.422441
436	4	7	0.092236932	-0.85858371	0.44842501	82.008654
437	4	7	0.092236932	-1.275092	1.4569859	83.411869
438	4	7	0.10407479	-2.0077794	0.095024304	85.170367
439	4	7	0.10407479	-0.30422698	0.54500322	85.592867
440	4	7	0.10678137	0.24170271	-1.9005573	85.878644
441	4	7	0.10394493	-1.5746773	-2.8051146	84.403323
442	4	7	0.10394493	-2.8207141	-2.2961092	85.589632
443	5	9	-0.43732348	1.1719985	4.5684108	77.39154
444	5	4	0.093372162	1.1579761	5.0913905	78.755601
445	5	1	-0.22421913	1.6742742	4.0672588	79.733894
446	5	1	-0.28401178	2.9857248	3.9886551	80.016929
447	5	10	0.20998022	3.6919256	4.6761007	79.565021
448	5	1	-0.2192612	3.4850432	2.9614076	80.953461
449	5	10	0.21246134	4.5401047	2.9172435	81.189469
450	5	1	-0.25642577	2.6358994	2.0890294	81.508608
451	5	10	0.21178302	3.0101793	1.3412087	82.196258
452	5	1	-0.26137647	1.1910367	2.1417018	81.180988
453	5	4	0.093185629	0.23912315	1.1730112	81.833933
454	5	9	-0.62205225	-0.27752056	1.7108782	83.090574
455	5	11	0.37209797	-0.76776679	2.6134404	82.894744
456	5	7	0.083457793	-0.61228837	0.94657643	81.155029
457	5	7	0.083457793	0.75749993	0.21140566	82.034295
458	5	1	-0.26709041	0.7366402	3.0921093	80.344255
459	5	10	0.20579693	-0.31940862	3.1542833	80.111806
460	5	7	0.047460891	1.7735382	6.0163298	78.800474
461	5	7	0.047460891	0.11994387	5.3802263	79.025652
462	5	11	0.32931626	0.58855491	3.7007376	77.358286
463	2	1	0.63070417	-1.8522907	-5.0805345	87.902398
464	2	2	-0.51261055	-1.0429083	-5.8687787	87.345657
465	2	3	-0.48798099	-2.4332498	-5.3935155	89.133517
466	2	4	0.11432353	-2.1539695	-6.6068422	89.826759
467	2	4	0.13818139	-2.9369588	-6.6603554	91.145687
468	2	5	-0.69407826	-4.311537	-6.5283146	90.893073
469	2	6	0.42021731	-4.6219405	-7.3989926	90.529348
470	2	4	0.049082126	-2.4821003	-5.5533466	92.106783
471	2	3	-0.47015738	-3.1122175	-5.7158597	93.36503
472	2	4	0.083491999	-4.1295775	-4.751538	93.571869
473	2	4	-0.15416392	-3.559434	-3.4654434	94.184182
474	2	4	-0.13437026	-2.8823637	-3.7326276	95.53815
475	2	4	-0.13437026	-2.4389176	-2.4402362	96.242191
476	2	4	-0.15502546	-1.2249903	-1.784079	95.561539
477	2	4	0.088261108	-0.74072253	-0.54899449	96.331992
478	2	3	-0.47108221	-0.3595845	-0.89401778	97.650194
479	2	4	0.14290734	1.0335433	-1.1233395	97.724224
480	2	4	0.20772326	1.3888095	-1.7200529	99.089445
481	2	7	0.16675553	2.4754956	-1.9518561	99.121092
482	2	3	-0.3842631	0.64821271	-2.9148459	99.3091
483	2	1	0.80893117	-0.098183891	-2.769281	100.45462
484	2	2	-0.38242808	-0.8620421	-3.6595185	100.90971
485	2	3	-0.38532453	0.079772428	-1.540644	101.04575
486	2	4	0.16678612	1.0081955	-0.78877947	100.2756
487	2	7	0.15258891	0.5354795	0.15973912	99.942853
488	2	7	0.15258891	1.9023048	-0.55872861	100.89327
489	2	7	0.10680463	1.5874651	-0.16563552	97.596053
490	2	7	0.10680463	1.3676299	-1.8414833	96.941674
491	2	7	0.093089658	-1.5756716	0.18155419	96.393674
492	2	7	0.093089658	0.069028785	-0.040122562	95.756
493	2	8	0.10392651	-1.5004702	-1.4611392	94.535805
494	2	8	0.10392651	-0.39592045	-2.5187583	95.479232
495	2	8	0.098018947	-2.1683503	-2.7017611	97.288735
496	2	8	0.098018947	-3.2861194	-1.7216523	96.283192
497	2	8	0.098018947	-3.6057831	-4.2536647	96.203292
498	2	8	0.098018947	-2.0070893	-4.4032806	95.401485
499	2	8	0.10392651	-4.3935391	-2.7434188	94.323502
500	2	8	0.10392651	-2.8327063	-3.0163484	93.475195
501	2	7	0.092236932	-4.8736881	-5.1812105	94.274406
502	2	7	0.092236932	-4.6941336	-4.5157596	92.639787
503	2	7	0.10407479	-1.3874831	-5.6507229	92.267892
504	2	7	0.10407479	-2.6389402	-4.5499254	91.643421
505	2	7	0.10678137	-2.7368221	-7.6423828	91.63446
506	2	7	0.10394493	-2.4489914	-7.4713538	89.192246
507	2	7	0.10394493	-1.0636302	-6.6820364	90.031774
508	3	9	-0.62205219	0.52938467	1.9194754	83.723772
509	3	4	0.093185674	0.30687307	1.2511986	85.004261
510	3	1	-0.25369143	-0.97867841	1.7137463	85.64012
511	3	1	-0.25642577	-2.1396603	1.0938955	85.369905
512	3	10	0.21178302	-2.1684639	0.23624311	84.708509
513	3	1	-0.20927222	-3.3977233	1.5746403	85.974696
514	3	10	0.21246134	-4.3264514	1.057695	85.766567
515	3	1	-0.25705689	-3.3921338	2.6448134	86.778139
516	3	10	0.21178302	-4.3186854	2.9881161	87.22044
517	3	1	-0.2806957	-2.1236933	3.3596906	87.059783
518	3	4	0.096482988	-2.1230564	4.545306	87.989932
519	3	9	-0.96515977	-1.9094554	4.127922	89.373535
520	3	11	0.39020694	-2.6608211	3.4504779	89.640384
521	3	11	0.39020694	-0.99341175	3.6261283	89.43609
522	3	7	0.07135849	-1.329156	5.2674697	87.697688
523	3	7	0.07135849	-3.0930802	5.0826649	87.917315
524	3	1	-0.23893533	-0.97653333	2.9058688	86.52456
525	3	10	0.20768161	-0.039760129	3.406787	86.73763
526	3	7	0.083457793	0.28788645	0.15063236	84.844773
527	3	7	0.083457793	1.1618132	1.4666094	85.680924