Title

279 atoms
278 bonds
500 angles
957 dihedrals
102 impropers

11 atom types
14 bond types
9 angle types
35 dihedral types
3 improper types
-69.07099915 30.92900085 xlo xhi
-25.56699944 74.43300056 ylo yhi
-2.026000023 97.97399998 zlo zhi
0.0 0.0 0.0 xy xz yz

Masses

1	15.99943
2	12.01078
3	14.00672
4	12.01078
5	1.007947
6	1.007947
7	1.007947
8	15.99943
9	12.01078
10	15.99943
11	1.007947


Pair Coeffs

1	0.2102061	3.0398122
2	0.086879315	3.4806469
3	0.16769152	3.206876
4	0.10884061	3.3795318
5	0.014090815	1.1034277
6	0.016409246	2.5832257
7	0.015779483	2.6445434
8	0.16846514	3.0251065
9	0.21	3.3996695
10	0.20947353	2.99716
11	1.2326e-05	0.53453923

Bond Coeffs

1 harmonic	582.698766451	1.225198386222
2 harmonic	492.76746816345	1.381897776683
3 harmonic	301.15400723785	1.345741232799
4 harmonic	352.0565580496	1.450098586273
5 harmonic	505.144496193	1.019481865027
6 harmonic	264.62148576755	1.52190126495
7 harmonic	370.04670688625	1.093899492634
8 harmonic	279.1350963404	1.454628925034
9 harmonic	366.7408841747	1.425895053732
10 harmonic	300.03137914615	1.451203938761
11 harmonic	366.34047229585	1.464762957261
12 harmonic	602.81384337	1.196112346392
13 harmonic	329.96998057905	1.427343958716
14 harmonic	543.5267831885	0.9716763312559


Angle Coeffs

1 harmonic	57.8982893754	126.8062420451
2 harmonic	201.41175231035	127.4691416191
3 harmonic	55.42182150775	117.3465570514
4 harmonic	63.44422595415	115.5071327674
5 harmonic	65.09061609600001	110.3538806181
6 harmonic	53.20531626545	116.5475862634
7 harmonic	48.776492647595	115.6030999533
8 harmonic	55.07882548015	112.8714009681
9 harmonic	33.56981613361	180


Dihedral Coeffs

1 fourier 1	1.809047390003	2	180
2 fourier 1	-0.04816277792592	1	0
3 fourier 1	0.4860993122944	2	180
4 fourier 1	0.8916986138746	1	0
5 fourier 1	1.163809172478	2	180
6 fourier 1	0.1679186987369	1	180
7 fourier 1	-0.1488678166443	4	180
8 fourier 1	-0.1230328948768	3	180
9 fourier 1	0.2939295466901	2	0
10 fourier 1	-0.3024127022865	1	0
11 fourier 1	0.182238503271	2	0
12 fourier 1	0.02972342374561	3	0
13 fourier 1	0.1918272375143	3	0
14 fourier 1	0.9202179876409	1	180
15 fourier 1	0.0473758381877	3	0
16 fourier 1	2.779853741805	2	180
17 fourier 1	0.1155372516788	3	0
18 fourier 1	0.09223874044423	3	0
19 fourier 1	0.3159935921949	2	180
20 fourier 1	0.3247796806857	1	180
21 fourier 1	0.1040663847541	3	0
22 fourier 1	3.101948770557	2	180
23 fourier 1	-0.4252153282372	1	0
24 fourier 1	0.9974165607242	2	180
25 fourier 1	2.348375642009	2	180
26 fourier 1	1.256156174911	1	0
27 fourier 1	0.1911926717192	3	0
28 fourier 1	0.1115525666802	3	0
29 fourier 1	0.3432490222662	1	0
30 fourier 1	0.457973137376	1	0
31 fourier 1	-1.382973039546	1	0
32 fourier 1	0	1	0
33 fourier 1	0.3445382149273	3	0
34 fourier 1	0.1364556373303	1	0
35 fourier 1	0.3026390167484	3	0


Improper Coeffs

1 3.5	-1	2
2 0.3333333333333333	-1	2
3 0.3666666666666667	-1	2


Atoms

1	1	1	-0.61110097	-3.5880001	1.278	1.614
2	1	2	0.78596997	-3.471	1.151	0.366
3	1	3	-0.46620801	-2.415	0.368	-0.19499999
4	1	4	0.023577999	-1.444	-0.32800001	0.64999998
5	1	4	-0.145338	-0.366	-1.0369999	-0.184
6	1	4	-0.14663699	0.54799998	-0.079000004	-0.97399998
7	1	4	0.029453	1.441	0.80599999	-0.090000004
8	1	3	-0.52245498	2.2550001	0.0060000001	0.824
9	1	2	0.54281801	3.3870001	-0.755	0.391
10	1	1	-0.68745601	3.7420001	-0.75599998	-0.81800002
11	1	5	0.31891999	2.036	0.030999999	1.845
12	1	6	0.052972998	2.1029999	1.423	-0.73400003
13	1	6	0.052972998	0.81400001	1.513	0.493
14	1	7	0.088417001	1.1950001	-0.68800002	-1.641
15	1	7	0.088417001	-0.063000001	0.57300001	-1.633
16	1	7	0.088417001	-0.866	-1.724	-0.90200001
17	1	7	0.088417001	0.25099999	-1.6720001	0.48699999
18	1	6	0.056538001	-0.977	0.38800001	1.358
19	1	6	0.056538001	-1.98	-1.091	1.255
20	1	5	0.32550299	-2.3729999	0.28200001	-1.2359999
21	1	8	-0.49836001	-7.7420001	-0.54299998	0.50599998
22	1	4	0.122639	-6.8470001	0.38699999	-0.039999999
23	1	4	-0.125826	-5.5710001	-0.31900001	-0.50999999
24	1	4	0.122639	-4.592	0.65499997	-1.174
25	1	8	-0.49836001	-4.151	1.623	-0.25999999
26	1	6	0.085597001	-3.724	0.090000004	-1.582
27	1	6	0.085597001	-5.0900002	1.164	-2.026
28	1	7	0.095400997	-5.8439999	-1.108	-1.244
29	1	7	0.095400997	-5.0749998	-0.81	0.35499999
30	1	6	0.085597001	-6.6040001	1.1720001	0.71200001
31	1	6	0.085597001	-7.3379998	0.88099998	-0.90499997
32	1	1	-0.61110097	-10.588	-5.9029999	5.6669998
33	1	2	0.78596997	-10.075	-5.0669999	6.4569998
34	1	3	-0.46620801	-9.757	-3.743	6.0180001
35	1	4	0.023577999	-10.029	-3.3050001	4.6479998
36	1	4	-0.145338	-9.5310001	-1.872	4.3979998
37	1	4	-0.145338	-7.9980001	-1.719	4.4699998
38	1	4	0.023577999	-7.2420001	-2.4579999	3.3540001
39	1	3	-0.46620801	-7.7059999	-2.0510001	2.0280001
40	1	2	0.78596997	-7.3829999	-0.78299999	1.449
41	1	1	-0.61110097	-6.6599998	0.045000002	2.0650001
42	1	5	0.32550299	-8.2530003	-2.733	1.456
43	1	6	0.056538001	-6.1529999	-2.2520001	3.4460001
44	1	6	0.056538001	-7.3699999	-3.5550001	3.4719999
45	1	7	0.088417001	-7.7540002	-0.63700002	4.4120002
46	1	7	0.088417001	-7.625	-2.0769999	5.4520001
47	1	7	0.088417001	-9.9899998	-1.199	5.1539998
48	1	7	0.088417001	-9.8929996	-1.5319999	3.405
49	1	6	0.056538001	-9.5629997	-4.007	3.9260001
50	1	6	0.056538001	-11.126	-3.3299999	4.4770002
51	1	5	0.32550299	-9.3479996	-3.0829999	6.717
52	1	8	-0.49836001	-13.804	-5.7740002	9.0500002
53	1	4	0.122639	-12.405	-5.7459998	8.9569998
54	1	4	-0.125826	-11.945	-4.4349999	8.3129997
55	1	4	0.122639	-10.417	-4.335	8.2519999
56	1	8	-0.49836001	-9.8809996	-5.3429999	7.4380002
57	1	6	0.085597001	-10.124	-3.3329999	7.8639998
58	1	6	0.085597001	-9.9940004	-4.4349999	9.2740002
59	1	7	0.095400997	-12.335	-3.5810001	8.9090004
60	1	7	0.095400997	-12.362	-4.3559999	7.2849998
61	1	6	0.085597001	-12.042	-6.619	8.368
62	1	6	0.085597001	-11.984	-5.8239999	9.9820004
63	1	1	-0.61110097	-21.365999	-6.0710001	6.5640001
64	1	2	0.78596997	-20.826	-6.8860002	5.7690001
65	1	3	-0.46620801	-19.540001	-7.4439998	6.053
66	1	4	0.023577999	-18.813	-7.1069999	7.2779999
67	1	4	-0.145338	-17.427	-7.7709999	7.3189998
68	1	4	-0.145338	-16.455	-7.2620001	6.2360001
69	1	4	0.023577999	-16.046	-5.79	6.4039998
70	1	3	-0.46620801	-15.471	-5.5380001	7.7249999
71	1	2	0.78596997	-14.161	-5.9759998	8.0970001
72	1	1	-0.61110097	-13.429	-6.598	7.2820001
73	1	5	0.32550299	-16.017	-4.9689999	8.4099998
74	1	6	0.056538001	-15.305	-5.52	5.6199999
75	1	6	0.056538001	-16.927	-5.1329999	6.25
76	1	7	0.088417001	-15.541	-7.8930001	6.2649999
77	1	7	0.088417001	-16.902	-7.3959999	5.2290001
78	1	7	0.088417001	-17.555	-8.8690004	7.1939998
79	1	7	0.088417001	-16.981001	-7.6139998	8.3240004
80	1	6	0.056538001	-18.716999	-6.006	7.3699999
81	1	6	0.056538001	-19.4	-7.4650002	8.151
82	1	5	0.32550299	-19.143999	-8.1269999	5.369
83	1	8	-0.49836001	-24.603001	-9.4320002	6.3850002
84	1	4	0.122639	-23.725	-8.7989998	5.494
85	1	4	-0.125826	-22.277	-9.1730003	5.8239999
86	1	4	0.122639	-21.288	-8.5539999	4.8309999
87	1	8	-0.49836001	-21.320999	-7.1539998	4.8979998
88	1	6	0.085597001	-20.26	-8.9230003	5.0500002
89	1	6	0.085597001	-21.544001	-8.8730001	3.799
90	1	7	0.095400997	-22.171	-10.28	5.7909999
91	1	7	0.095400997	-22.028	-8.835	6.8540001
92	1	6	0.085597001	-23.863001	-7.6950002	5.539
93	1	6	0.085597001	-23.969	-9.1350002	4.4640002
94	1	1	-0.61110097	-28.176001	-11.078	13.312
95	1	2	0.78596997	-28.082001	-9.8240004	13.389
96	1	3	-0.46620801	-27.836	-9.0349998	12.223
97	1	4	0.023577999	-27.700001	-9.6450005	10.899
98	1	4	-0.145338	-27.364	-8.6020002	9.8219995
99	1	4	-0.145338	-25.981001	-7.9419999	9.9969997
100	1	4	0.023577999	-24.798	-8.9060001	9.8079996
101	1	3	-0.46620801	-24.851999	-9.5749998	8.5089998
102	1	2	0.78596997	-24.545	-8.9099998	7.2800002
103	1	1	-0.61110097	-24.198	-7.6989999	7.2680001
104	1	5	0.32550299	-25.072001	-10.596	8.4790001
105	1	6	0.056538001	-23.844	-8.342	9.8959999
106	1	6	0.056538001	-24.796	-9.665	10.618
107	1	7	0.088417001	-25.893	-7.118	9.257
108	1	7	0.088417001	-25.906	-7.4770002	11.002
109	1	7	0.088417001	-28.141001	-7.8080001	9.8409996
110	1	7	0.088417001	-27.423	-9.0839996	8.8219995
111	1	6	0.056538001	-26.924	-10.438	10.926
112	1	6	0.056538001	-28.662001	-10.131	10.631
113	1	5	0.32550299	-27.783001	-7.9980001	12.339
114	1	8	-0.49836001	-32.312	-9.9820004	15.182
115	1	4	0.122639	-30.982	-9.5570002	15.303
116	1	4	-0.125826	-30.533001	-8.8540001	14.018
117	1	4	0.122639	-29.103001	-8.3149996	14.134
118	1	8	-0.49836001	-28.186001	-9.3610001	14.311
119	1	6	0.085597001	-28.849001	-7.7329998	13.219
120	1	6	0.085597001	-29.032	-7.6220002	15
121	1	7	0.095400997	-31.219	-8.0050001	13.81
122	1	7	0.095400997	-30.593	-9.5629997	13.164
123	1	6	0.085597001	-30.32	-10.425	15.525
124	1	6	0.085597001	-30.917	-8.8479996	16.156
125	1	1	-0.61110097	-38.493999	-14.214	12.472
126	1	2	0.78596997	-37.608002	-15.107	12.533
127	1	3	-0.46620801	-36.421001	-14.91	13.307
128	1	4	0.023577999	-36.198002	-13.68	14.068
129	1	4	-0.145338	-34.823002	-13.674	14.753
130	1	4	-0.145338	-33.632999	-13.647	13.773
131	1	4	0.023577999	-33.523998	-12.35	12.956
132	1	3	-0.46620801	-33.463001	-11.173	13.821
133	1	2	0.78596997	-32.299999	-10.827	14.581
134	1	1	-0.61110097	-31.257	-11.531	14.524
135	1	5	0.32550299	-34.282001	-10.525	13.847
136	1	6	0.056538001	-32.613998	-12.39	12.319
137	1	6	0.056538001	-34.390999	-12.262	12.269
138	1	7	0.088417001	-32.698002	-13.782	14.358
139	1	7	0.088417001	-33.696999	-14.507	13.074
140	1	7	0.088417001	-34.738998	-14.583	15.389
141	1	7	0.088417001	-34.763	-12.8	15.436
142	1	6	0.056538001	-36.300999	-12.798	13.401
143	1	6	0.056538001	-36.981998	-13.598	14.851
144	1	5	0.32550299	-35.724998	-15.688	13.338
145	1	8	-0.49836001	-40.958	-17.811001	14.143
146	1	4	0.122639	-39.938	-17.610001	13.204
147	1	4	-0.125826	-38.641998	-17.198999	13.91
148	1	4	0.122639	-37.481998	-17.032	12.922
149	1	8	-0.49836001	-37.742001	-15.995	12.015
150	1	6	0.085597001	-36.542	-16.825001	13.482
151	1	6	0.085597001	-37.333	-17.976999	12.357
152	1	7	0.095400997	-38.369999	-17.98	14.652
153	1	7	0.095400997	-38.800999	-16.243999	14.458
154	1	6	0.085597001	-40.243	-16.833	12.466
155	1	6	0.085597001	-39.775002	-18.561001	12.654
156	1	1	-0.61110097	-46.339001	-15.947	19.714001
157	1	2	0.78596997	-46.462002	-14.966	18.931999
158	1	3	-0.46620801	-45.962002	-15.029	17.594
159	1	4	0.023577999	-45.306999	-16.231001	17.076
160	1	4	-0.145338	-44.790001	-16.028	15.643
161	1	4	-0.145338	-43.657001	-14.989	15.527
162	1	4	0.023577999	-42.349998	-15.407	16.219999
163	1	3	-0.46620801	-41.872002	-16.698999	15.732
164	1	2	0.78596997	-41.277	-16.870001	14.441
165	1	1	-0.61110097	-41.126999	-15.891	13.663
166	1	5	0.32550299	-41.916	-17.525	16.370001
167	1	6	0.056538001	-41.573002	-14.632	16.042
168	1	6	0.056538001	-42.504002	-15.458	17.318001
169	1	7	0.088417001	-43.452	-14.818	14.448
170	1	7	0.088417001	-43.987999	-14.015	15.945
171	1	7	0.088417001	-45.638	-15.702	15.003
172	1	7	0.088417001	-44.444	-17.004	15.242
173	1	6	0.056538001	-44.476002	-16.528999	17.747999
174	1	6	0.056538001	-46.043999	-17.063999	17.07
175	1	5	0.32550299	-46.104	-14.195	16.982
176	1	8	-0.49836001	-50.973999	-15.383	19.701
177	1	4	0.122639	-49.838001	-14.564	19.697001
178	1	4	-0.125826	-49.096001	-14.694	18.363001
179	1	4	0.122639	-47.882	-13.763	18.292
180	1	8	-0.49836001	-46.931999	-14.104	19.266001
181	1	6	0.085597001	-47.426998	-13.819	17.277
182	1	6	0.085597001	-48.203999	-12.712	18.455999
183	1	7	0.095400997	-49.792999	-14.437	17.535
184	1	7	0.095400997	-48.764999	-15.745	18.219999
185	1	6	0.085597001	-49.166	-14.834	20.544001
186	1	6	0.085597001	-50.162998	-13.511	19.84
187	1	1	-0.61110097	-55.216999	-22.125999	19.705
188	1	2	0.78596997	-54.278999	-22.438999	20.487
189	1	3	-0.46620801	-53.459	-21.431999	21.086
190	1	4	0.023577999	-53.683998	-20.009001	20.832001
191	1	4	-0.145338	-52.629002	-19.132	21.525999
192	1	4	-0.145338	-51.200001	-19.316999	20.979
193	1	4	0.023577999	-51.018002	-18.847	19.527
194	1	3	-0.46620801	-51.421001	-17.451	19.358999
195	1	2	0.78596997	-50.639	-16.355	19.844
196	1	1	-0.61110097	-49.544998	-16.551001	20.436001
197	1	5	0.32550299	-52.287998	-17.24	18.816999
198	1	6	0.056538001	-49.952999	-18.964001	19.231001
199	1	6	0.056538001	-51.612	-19.49	18.844
200	1	7	0.088417001	-50.501999	-18.749001	21.629999
201	1	7	0.088417001	-50.901001	-20.385	21.049
202	1	7	0.088417001	-52.627998	-19.368999	22.612
203	1	7	0.088417001	-52.928001	-18.066	21.433001
204	1	6	0.056538001	-53.688999	-19.816	19.739
205	1	6	0.056538001	-54.686001	-19.731001	21.223
206	1	5	0.32550299	-52.706001	-21.743999	21.74
207	1	8	-0.49836001	-57.536999	-24.509001	22.983
208	1	4	0.122639	-56.305	-24.601	22.322001
209	1	4	-0.125826	-55.390999	-23.445	22.743
210	1	4	0.122639	-54.007999	-23.545	22.091999
211	1	8	-0.49836001	-54.102001	-23.438999	20.697001
212	1	6	0.085597001	-53.348	-22.743999	22.493999
213	1	6	0.085597001	-53.542	-24.521	22.349001
214	1	7	0.095400997	-55.269001	-23.465	23.848
215	1	7	0.095400997	-55.861	-22.476999	22.466
216	1	6	0.085597001	-56.459	-24.593	21.219
217	1	6	0.085597001	-55.831001	-25.566999	22.596001
218	1	1	-0.61110097	-64.670998	-21.544001	24.927
219	1	2	0.78596997	-64.670998	-21.356001	23.681
220	1	3	-0.46620801	-63.752998	-22.052999	22.834999
221	1	4	0.023577999	-62.793999	-23.018	23.375999
222	1	4	-0.145338	-61.868	-23.576	22.283001
223	1	4	-0.145338	-60.925999	-22.525	21.663
224	1	4	0.023577999	-59.875999	-21.971001	22.639
225	1	3	-0.46620801	-59.077999	-23.041	23.236
226	1	2	0.78596997	-58.071999	-23.754999	22.511
227	1	1	-0.61110097	-57.818001	-23.476	21.309
228	1	5	0.32550299	-59.209999	-23.26	24.249001
229	1	6	0.056538001	-59.207001	-21.264999	22.1
230	1	6	0.056538001	-60.375999	-21.388	23.440001
231	1	7	0.088417001	-60.403	-22.993	20.802
232	1	7	0.088417001	-61.516998	-21.679001	21.254
233	1	7	0.088417001	-62.494999	-24.013	21.475
234	1	7	0.088417001	-61.269001	-24.409	22.709
235	1	6	0.056538001	-62.198002	-22.548	24.184999
236	1	6	0.056538001	-63.355999	-23.865	23.826
237	1	5	0.32550299	-63.805	-21.874001	21.806999
238	1	8	-0.168741	-69.070999	-22.677999	23.848
239	1	4	0.043198001	-68.129997	-21.715	23.457001
240	1	4	-0.133683	-66.977997	-22.379	22.695
241	1	4	0.12481	-65.959999	-21.35	22.193001
242	1	8	-0.49837899	-65.346001	-20.687	23.266001
243	1	6	0.085755996	-65.192001	-21.860001	21.569
244	1	6	0.085755996	-66.469002	-20.601	21.549999
245	1	7	0.097588003	-67.390999	-22.929001	21.822001
246	1	7	0.097588003	-66.468002	-23.113001	23.355
247	1	6	0.088214003	-67.745003	-21.171	24.35
248	1	6	0.088214003	-68.636002	-20.978001	22.797001
249	1	1	-0.68745601	3.786	-1.118	2.3410001
250	1	2	0.54281801	3.9519999	-1.332	1.1109999
251	1	3	-0.52245498	4.868	-2.3329999	0.65499997
252	1	4	0.029744999	5.6630001	-3.152	1.567
253	1	4	-0.141504	6.8249998	-2.339	2.145
254	1	4	-0.123457	7.6869998	-3.198	3.0799999
255	1	4	0.18384799	8.8769999	-2.414	3.6400001
256	1	3	-0.644633	8.415	-1.368	4.5489998
257	1	9	0.59323001	8.6829996	-0.14	4.3520002
258	1	1	-0.470525	8.9440002	1.054	4.1589999
259	1	6	0.03159	9.4799995	-1.99	2.8039999
260	1	6	0.03159	9.5290003	-3.1099999	4.2080002
261	1	7	0.082307003	8.0780001	-4.073	2.516
262	1	7	0.082307003	7.0679998	-3.579	3.9219999
263	1	7	0.087376997	7.4510002	-1.957	1.309
264	1	7	0.087376997	6.4219999	-1.469	2.7079999
265	1	6	0.052972998	5.0149999	-3.5409999	2.3829999
266	1	6	0.052972998	6.0689998	-4.0229998	1.008
267	1	5	0.31891999	4.9239998	-2.5220001	-0.37099999
268	1	8	-0.16799501	-68.68	-23.158001	24.624001
269	1	4	0.051621001	-67.338997	-23.414	24.305
270	1	4	-0.16873799	-66.508003	-22.135	24.450001
271	1	4	0.098595001	-65.022003	-22.386	24.173
272	1	10	-0.68102503	-64.821999	-22.797001	22.847
273	1	11	0.38465801	-64.925003	-21.988001	22.281
274	1	6	0.081381001	-64.443001	-21.458	24.379
275	1	6	0.081381001	-64.641998	-23.174999	24.856001
276	1	7	0.101519	-66.617996	-21.747	25.486
277	1	7	0.101519	-66.889	-21.360001	23.75
278	1	6	0.088073999	-67.261002	-23.813999	23.268999
279	1	6	0.088073999	-66.954002	-24.188	25.003

Bonds

1	1	1	2
2	2	2	3
3	3	2	25
4	4	3	4
5	5	3	20
6	6	4	5
7	7	4	18
8	7	4	19
9	6	5	6
10	7	5	16
11	7	5	17
12	6	6	7
13	7	6	14
14	7	6	15
15	4	7	8
16	7	7	12
17	7	7	13
18	2	8	9
19	5	8	11
20	1	9	10
21	8	9	250
22	9	21	22
23	3	21	40
24	6	22	23
25	7	22	30
26	7	22	31
27	6	23	24
28	7	23	28
29	7	23	29
30	9	24	25
31	7	24	26
32	7	24	27
33	1	32	33
34	2	33	34
35	3	33	56
36	4	34	35
37	5	34	51
38	6	35	36
39	7	35	49
40	7	35	50
41	6	36	37
42	7	36	47
43	7	36	48
44	6	37	38
45	7	37	45
46	7	37	46
47	4	38	39
48	7	38	43
49	7	38	44
50	2	39	40
51	5	39	42
52	1	40	41
53	9	52	53
54	3	52	71
55	6	53	54
56	7	53	61
57	7	53	62
58	6	54	55
59	7	54	59
60	7	54	60
61	9	55	56
62	7	55	57
63	7	55	58
64	1	63	64
65	2	64	65
66	3	64	87
67	4	65	66
68	5	65	82
69	6	66	67
70	7	66	80
71	7	66	81
72	6	67	68
73	7	67	78
74	7	67	79
75	6	68	69
76	7	68	76
77	7	68	77
78	4	69	70
79	7	69	74
80	7	69	75
81	2	70	71
82	5	70	73
83	1	71	72
84	9	83	84
85	3	83	102
86	6	84	85
87	7	84	92
88	7	84	93
89	6	85	86
90	7	85	90
91	7	85	91
92	9	86	87
93	7	86	88
94	7	86	89
95	1	94	95
96	2	95	96
97	3	95	118
98	4	96	97
99	5	96	113
100	6	97	98
101	7	97	111
102	7	97	112
103	6	98	99
104	7	98	109
105	7	98	110
106	6	99	100
107	7	99	107
108	7	99	108
109	4	100	101
110	7	100	105
111	7	100	106
112	2	101	102
113	5	101	104
114	1	102	103
115	9	114	115
116	3	114	133
117	6	115	116
118	7	115	123
119	7	115	124
120	6	116	117
121	7	116	121
122	7	116	122
123	9	117	118
124	7	117	119
125	7	117	120
126	1	125	126
127	2	126	127
128	3	126	149
129	4	127	128
130	5	127	144
131	6	128	129
132	7	128	142
133	7	128	143
134	6	129	130
135	7	129	140
136	7	129	141
137	6	130	131
138	7	130	138
139	7	130	139
140	4	131	132
141	7	131	136
142	7	131	137
143	2	132	133
144	5	132	135
145	1	133	134
146	9	145	146
147	3	145	164
148	6	146	147
149	7	146	154
150	7	146	155
151	6	147	148
152	7	147	152
153	7	147	153
154	9	148	149
155	7	148	150
156	7	148	151
157	1	156	157
158	2	157	158
159	3	157	180
160	4	158	159
161	5	158	175
162	6	159	160
163	7	159	173
164	7	159	174
165	6	160	161
166	7	160	171
167	7	160	172
168	6	161	162
169	7	161	169
170	7	161	170
171	4	162	163
172	7	162	167
173	7	162	168
174	2	163	164
175	5	163	166
176	1	164	165
177	9	176	177
178	3	176	195
179	6	177	178
180	7	177	185
181	7	177	186
182	6	178	179
183	7	178	183
184	7	178	184
185	9	179	180
186	7	179	181
187	7	179	182
188	1	187	188
189	2	188	189
190	3	188	211
191	4	189	190
192	5	189	206
193	6	190	191
194	7	190	204
195	7	190	205
196	6	191	192
197	7	191	202
198	7	191	203
199	6	192	193
200	7	192	200
201	7	192	201
202	4	193	194
203	7	193	198
204	7	193	199
205	2	194	195
206	5	194	197
207	1	195	196
208	9	207	208
209	3	207	226
210	6	208	209
211	7	208	216
212	7	208	217
213	6	209	210
214	7	209	214
215	7	209	215
216	9	210	211
217	7	210	212
218	7	210	213
219	1	218	219
220	2	219	220
221	3	219	242
222	4	220	221
223	5	220	237
224	6	221	222
225	7	221	235
226	7	221	236
227	6	222	223
228	7	222	233
229	7	222	234
230	6	223	224
231	7	223	231
232	7	223	232
233	4	224	225
234	7	224	229
235	7	224	230
236	2	225	226
237	5	225	228
238	1	226	227
239	9	238	239
240	10	238	268
241	6	239	240
242	7	239	247
243	7	239	248
244	6	240	241
245	7	240	245
246	7	240	246
247	9	241	242
248	7	241	243
249	7	241	244
250	1	249	250
251	2	250	251
252	4	251	252
253	5	251	267
254	6	252	253
255	7	252	265
256	7	252	266
257	6	253	254
258	7	253	263
259	7	253	264
260	6	254	255
261	7	254	261
262	7	254	262
263	11	255	256
264	7	255	259
265	7	255	260
266	12	256	257
267	1	257	258
268	9	268	269
269	6	269	270
270	7	269	278
271	7	269	279
272	6	270	271
273	7	270	276
274	7	270	277
275	13	271	272
276	7	271	274
277	7	271	275
278	14	272	273

Angles

1	7	30	22	31
2	1	125	126	127
3	1	163	164	165
4	6	5	6	15
5	6	270	271	275
6	6	4	5	6
7	7	26	24	27
8	6	163	162	167
9	6	101	100	105
10	6	177	178	184
11	7	152	147	153
12	5	177	176	195
13	6	207	208	216
14	6	271	270	276
15	7	12	7	13
16	6	242	241	244
17	3	162	163	164
18	6	5	4	18
19	3	38	39	40
20	6	54	53	61
21	5	22	21	40
22	6	239	240	241
23	7	274	271	275
24	6	159	160	171
25	4	95	96	113
26	6	178	179	182
27	6	97	98	109
28	6	130	129	141
29	6	194	193	198
30	1	114	133	132
31	7	138	130	139
32	6	240	239	247
33	6	269	270	276
34	6	55	54	59
35	6	252	253	263
36	6	68	69	70
37	6	70	69	75
38	6	211	210	212
39	7	92	84	93
40	4	159	158	175
41	6	6	5	16
42	6	7	6	15
43	6	128	129	141
44	6	207	208	209
45	6	241	240	245
46	6	224	223	232
47	6	56	55	57
48	6	99	98	109
49	6	253	254	261
50	6	66	67	79
51	1	8	9	10
52	6	178	177	186
53	6	22	23	29
54	6	84	85	86
55	6	100	99	107
56	1	194	195	196
57	6	220	221	236
58	6	98	97	112
59	3	126	127	128
60	6	147	146	154
61	6	98	99	108
62	6	129	128	142
63	6	270	269	279
64	6	54	55	56
65	6	221	222	234
66	6	118	117	119
67	6	129	130	138
68	4	7	8	11
69	4	71	70	73
70	6	6	7	12
71	6	35	36	37
72	7	57	55	58
73	7	105	100	106
74	6	116	117	120
75	6	160	159	174
76	6	240	241	242
77	6	254	253	264
78	6	116	115	124
79	6	5	6	14
80	6	270	271	274
81	6	190	191	203
82	1	34	33	56
83	6	21	22	30
84	6	254	255	256
85	6	67	68	77
86	3	224	225	226
87	7	47	36	48
88	6	177	178	183
89	6	220	221	222
90	6	3	4	19
91	5	53	52	71
92	6	129	130	131
93	3	193	194	195
94	7	169	161	170
95	6	178	179	181
96	6	130	129	140
97	1	158	157	180
98	6	272	271	274
99	6	97	98	99
100	3	100	101	102
101	7	119	117	120
102	6	238	239	248
103	6	160	161	169
104	5	208	207	226
105	1	1	2	3
106	6	130	131	136
107	6	69	68	77
108	4	195	194	197
109	4	133	132	135
110	6	254	255	260
111	6	21	22	23
112	1	83	102	101
113	3	2	3	4
114	4	40	39	42
115	5	239	238	268
116	6	161	162	163
117	7	74	69	75
118	1	8	9	250
119	6	65	66	81
120	6	191	192	201
121	7	18	4	19
122	7	265	252	266
123	4	226	225	228
124	4	64	65	82
125	7	243	241	244
126	6	22	23	28
127	6	65	66	67
128	6	160	161	162
129	1	187	188	189
130	1	189	188	211
131	6	176	177	185
132	6	160	159	173
133	6	23	24	27
134	2	145	164	165
135	6	96	97	111
136	6	98	99	107
137	6	251	252	253
138	6	131	130	139
139	1	176	195	194
140	6	147	148	149
141	6	268	269	278
142	6	239	240	246
143	6	191	190	205
144	7	80	66	81
145	7	183	178	184
146	6	255	254	262
147	7	173	159	174
148	7	261	254	262
149	6	132	131	137
150	6	52	53	61
151	6	127	128	143
152	6	149	148	151
153	7	28	23	29
154	6	208	209	214
155	6	190	191	202
156	6	176	177	178
157	6	85	86	89
158	1	63	64	65
159	6	179	178	184
160	6	4	5	17
161	7	216	208	217
162	6	251	252	266
163	6	23	22	31
164	6	53	54	59
165	1	39	40	41
166	7	14	6	15
167	7	136	131	137
168	6	145	146	155
169	7	109	98	110
170	2	207	226	227
171	6	161	160	171
172	6	180	179	182
173	2	125	126	149
174	6	114	115	116
175	6	146	147	153
176	6	52	53	54
177	4	35	34	51
178	6	8	7	13
179	1	9	250	249
180	7	276	270	277
181	6	69	68	76
182	4	126	127	144
183	6	254	255	259
184	3	69	70	71
185	7	231	223	232
186	6	85	84	93
187	6	115	116	121
188	4	9	8	11
189	1	101	102	103
190	6	128	129	130
191	7	150	148	151
192	4	250	251	267
193	4	162	163	166
194	1	52	71	70
195	6	65	66	80
196	6	191	192	200
197	8	255	256	257
198	6	68	67	79
199	4	38	39	42
200	6	148	147	153
201	6	86	85	91
202	6	24	23	29
203	6	192	193	199
204	1	218	219	220
205	6	221	222	223
206	6	68	69	75
207	2	114	133	134
208	6	222	221	236
209	4	97	96	113
210	6	127	128	129
211	6	222	223	232
212	6	23	24	26
213	4	252	251	267
214	6	177	178	179
215	6	223	222	234
216	6	131	130	138
217	6	268	269	270
218	6	223	224	230
219	6	6	7	8
220	6	191	192	193
221	6	162	161	170
222	6	253	252	265
223	5	157	180	179
224	6	36	35	50
225	3	157	158	159
226	6	132	131	136
227	6	127	128	142
228	6	192	191	203
229	6	36	37	46
230	6	256	255	260
231	6	130	131	132
232	6	85	86	88
233	6	190	191	192
234	6	179	178	183
235	4	2	3	20
236	4	128	127	144
237	6	37	36	48
238	6	23	22	30
239	6	193	192	201
240	6	37	38	44
241	1	32	33	34
242	5	271	272	273
243	6	54	55	58
244	6	242	241	243
245	4	219	220	237
246	6	180	179	181
247	7	121	116	122
248	7	107	99	108
249	7	78	67	79
250	6	240	241	244
251	6	8	7	12
252	6	22	23	24
253	6	209	210	213
254	5	2	25	24
255	6	163	162	168
256	3	131	132	133
257	6	70	69	74
258	4	224	225	228
259	6	7	6	14
260	6	99	100	106
261	6	128	129	140
262	6	67	66	81
263	1	94	95	96
264	2	156	157	180
265	1	96	95	118
266	6	117	116	122
267	6	271	270	277
268	6	224	223	231
269	4	193	194	197
270	4	164	163	166
271	7	61	53	62
272	6	148	147	152
273	6	159	160	172
274	6	24	23	28
275	6	66	67	78
276	6	192	193	198
277	1	21	40	39
278	4	100	101	104
279	7	204	190	205
280	6	194	193	199
281	7	235	221	236
282	6	5	6	7
283	6	178	177	185
284	6	189	190	205
285	7	200	192	201
286	6	25	24	27
287	6	220	221	235
288	6	240	239	248
289	6	208	209	210
290	6	222	223	231
291	6	23	24	25
292	6	98	97	111
293	2	83	102	103
294	6	209	208	217
295	7	259	255	260
296	6	6	5	17
297	6	53	54	55
298	1	65	64	87
299	6	222	223	224
300	6	270	269	278
301	6	3	4	5
302	6	221	222	233
303	6	99	98	110
304	6	223	224	229
305	6	67	68	69
306	7	247	239	248
307	7	263	253	264
308	6	36	35	49
309	5	126	149	148
310	2	187	188	211
311	6	116	117	119
312	4	190	189	206
313	4	66	65	82
314	6	36	37	45
315	6	116	115	123
316	6	254	253	263
317	6	256	255	259
318	6	87	86	89
319	1	10	9	250
320	6	100	99	108
321	6	66	67	68
322	6	37	36	47
323	6	67	68	76
324	6	147	146	155
325	6	115	116	117
326	2	176	195	196
327	6	3	4	18
328	6	37	38	43
329	6	98	99	100
330	7	111	97	112
331	7	49	35	50
332	6	147	148	151
333	6	83	84	93
334	4	221	220	237
335	1	127	126	149
336	4	33	34	51
337	6	178	179	180
338	6	238	239	247
339	7	154	146	155
340	7	140	129	141
341	6	240	241	243
342	6	84	85	91
343	6	36	37	38
344	5	146	145	164
345	6	189	190	191
346	6	209	210	212
347	5	84	83	102
348	6	21	22	31
349	1	249	250	251
350	6	99	100	105
351	6	67	66	80
352	1	225	226	227
353	6	117	116	121
354	7	88	86	89
355	3	188	189	190
356	6	225	224	230
357	6	272	271	275
358	3	33	34	35
359	6	269	270	271
360	6	238	239	240
361	6	160	161	170
362	6	189	190	204
363	1	9	250	251
364	6	25	24	26
365	6	130	131	137
366	6	252	253	254
367	6	209	208	216
368	7	229	224	230
369	7	90	85	91
370	4	157	158	175
371	5	238	268	269
372	6	239	240	245
373	2	63	64	87
374	6	191	190	204
375	6	114	115	124
376	6	255	254	261
377	6	38	37	46
378	3	95	96	97
379	6	116	117	118
380	7	185	177	186
381	6	146	147	148
382	6	149	148	150
383	6	87	86	88
384	4	4	3	20
385	6	176	177	186
386	6	270	271	272
387	6	4	5	16
388	6	39	38	44
389	6	96	97	112
390	5	115	114	133
391	6	251	252	265
392	6	34	35	50
393	7	45	37	46
394	3	7	8	9
395	6	161	162	168
396	2	218	219	242
397	6	145	146	154
398	6	210	209	215
399	6	147	148	150
400	6	83	84	92
401	6	268	269	279
402	7	171	160	172
403	1	132	133	134
404	1	156	157	158
405	6	35	36	48
406	7	167	162	168
407	6	192	193	194
408	6	52	53	62
409	7	43	38	44
410	4	69	70	73
411	6	146	147	152
412	6	84	85	90
413	6	158	159	174
414	6	208	209	215
415	6	209	210	211
416	9	256	257	258
417	7	278	269	279
418	1	220	219	242
419	2	52	71	72
420	6	101	100	106
421	2	32	33	56
422	6	53	54	60
423	6	85	84	92
424	6	207	208	217
425	6	145	146	147
426	6	161	160	172
427	6	83	84	85
428	6	223	224	225
429	6	5	4	19
430	6	68	67	78
431	6	54	53	62
432	6	225	224	229
433	4	102	101	104
434	6	86	85	90
435	6	97	98	110
436	6	159	160	161
437	7	245	240	246
438	6	68	69	74
439	7	202	191	203
440	3	219	220	221
441	6	222	221	235
442	7	233	222	234
443	7	76	68	77
444	6	269	270	277
445	6	55	54	60
446	6	252	253	264
447	3	64	65	66
448	1	145	164	163
449	5	188	211	210
450	4	131	132	135
451	2	94	95	118
452	6	211	210	213
453	6	115	116	122
454	6	158	159	160
455	6	223	222	233
456	6	96	97	98
457	6	34	35	36
458	5	33	56	55
459	6	37	38	39
460	1	70	71	72
461	7	212	210	213
462	7	198	193	199
463	7	123	115	124
464	6	241	240	246
465	6	56	55	58
466	6	253	254	262
467	6	162	161	169
468	7	59	54	60
469	7	16	5	17
470	6	114	115	123
471	2	21	40	41
472	6	38	37	45
473	5	219	242	241
474	6	192	191	202
475	2	1	2	25
476	6	85	86	87
477	6	158	159	173
478	6	39	38	43
479	7	214	209	215
480	6	34	35	49
481	6	129	128	143
482	6	193	192	200
483	6	161	162	167
484	6	99	100	101
485	5	95	118	117
486	4	188	189	206
487	6	210	209	214
488	6	54	55	57
489	6	118	117	120
490	6	129	130	139
491	5	64	87	86
492	1	207	226	225
493	3	250	251	252
494	6	253	254	255
495	6	253	252	266
496	6	6	7	13
497	1	3	2	25
498	6	35	36	47
499	7	142	128	143
500	7	181	179	182

Dihedrals

1	27	198	193	192	200
2	27	43	38	37	46
3	27	275	271	270	277
4	17	191	192	193	194
5	15	64	87	86	89
6	1	190	189	188	211
6	2	190	189	188	211
7	27	46	37	36	48
8	27	243	241	240	245
9	11	226	225	224	229
9	12	226	225	224	229
10	11	71	70	69	75
10	12	71	70	69	75
11	17	239	240	241	242
12	17	3	4	5	17
13	27	246	240	239	248
14	15	2	25	24	26
15	7	250	251	252	253
15	8	250	251	252	253
15	9	250	251	252	253
15	10	250	251	252	253
16	16	96	95	118	117
17	1	20	3	2	25
17	2	20	3	2	25
18	27	75	69	68	76
19	27	200	192	191	202
20	1	21	40	39	38
20	2	21	40	39	38
21	27	182	179	178	184
22	27	231	223	222	233
23	27	181	179	178	184
24	27	136	131	130	139
25	1	176	195	194	193
25	2	176	195	194	193
26	17	177	178	179	180
27	11	11	8	7	12
27	12	11	8	7	12
28	21	223	222	221	236
29	1	100	101	102	103
29	2	100	101	102	103
30	27	48	36	35	49
31	11	111	97	96	113
31	12	111	97	96	113
32	1	175	158	157	180
32	2	175	158	157	180
33	21	192	191	190	204
34	28	21	22	23	28
34	29	21	22	23	28
35	28	176	177	178	184
35	29	176	177	178	184
36	7	33	34	35	36
36	8	33	34	35	36
36	9	33	34	35	36
36	10	33	34	35	36
37	11	195	194	193	199
37	12	195	194	193	199
38	11	266	252	251	267
38	12	266	252	251	267
39	28	180	179	178	183
39	29	180	179	178	183
40	17	163	162	161	170
41	27	59	54	53	61
42	27	184	178	177	185
43	17	39	38	37	45
44	27	88	86	85	91
45	15	157	180	179	181
46	27	215	209	208	216
47	21	269	270	271	274
48	27	105	100	99	107
49	27	91	85	84	93
50	11	250	251	252	266
50	12	250	251	252	266
51	3	156	157	158	175
51	4	156	157	158	175
52	7	95	96	97	98
52	8	95	96	97	98
52	9	95	96	97	98
52	10	95	96	97	98
53	15	61	53	52	71
54	27	45	37	36	48
55	15	155	146	145	164
56	17	101	100	99	107
57	27	262	254	253	264
58	15	154	146	145	164
59	1	51	34	33	56
59	2	51	34	33	56
60	27	14	6	5	17
61	27	137	131	130	138
62	11	223	224	225	228
62	12	223	224	225	228
63	27	108	99	98	110
64	17	132	131	130	138
65	11	33	34	35	49
65	12	33	34	35	49
66	27	245	240	239	248
67	27	233	222	221	235
68	27	261	254	253	263
69	17	114	115	116	117
70	21	254	253	252	265
71	21	222	223	224	230
72	11	126	127	128	143
72	12	126	127	128	143
73	21	193	192	191	203
74	21	146	147	148	150
75	27	202	191	190	205
76	5	63	64	87	86
76	6	63	64	87	86
77	1	114	133	132	131
77	2	114	133	132	131
78	17	34	35	36	47
79	17	251	252	253	263
80	1	113	96	95	118
80	2	113	96	95	118