Title

41 atoms
42 bonds
67 angles
105 dihedrals
36 impropers

8 atom types
13 bond types
7 angle types
24 dihedral types
2 improper types
-2.391000032 97.60899997 xlo xhi
-1.483999968 98.51600003 ylo yhi
-3.676000118 96.32399988 zlo zhi
0.0 0.0 0.0 xy xz yz

Masses

1	15.99943
2	12.01078
3	1.007947
4	12.01078
5	15.99943
6	1.007947
7	15.99943
8	1.007947


Pair Coeffs

1	0.16846514	3.0251065
2	0.10884061	3.3795318
3	0.016409246	2.5832257
4	0.086879315	3.4806469
5	0.2102061	3.0398122
6	0.015611343	2.5725815
7	0.20947353	2.99716
8	1.2326e-05	0.53453923

Bond Coeffs

1 harmonic	366.7408841747	1.425895053732
2 harmonic	300.03137914615	1.451203938761
3 harmonic	264.62148576755	1.52190126495
4 harmonic	370.04670688625	1.093899492634
5 harmonic	301.15400723785	1.345741232799
6 harmonic	582.698766451	1.225198386222
7 harmonic	279.1350963404	1.454628925034
8 harmonic	399.1592953295	1.371688562017
9 harmonic	369.34270398985	1.364116986116
10 harmonic	397.2545789619	1.085358495916
11 harmonic	329.96998057905	1.427343958716
12 harmonic	543.5267831885	0.9716763312559
13 harmonic	385.7604595587	1.369745182308


Angle Coeffs

1 harmonic	53.20531626545	116.5475862634
2 harmonic	65.09061609600001	110.3538806181
3 harmonic	201.41175231035	127.4691416191
4 harmonic	57.8982893754	126.8062420451
5 harmonic	48.776492647595	115.6030999533
6 harmonic	39.628116874445	129.8027304608
7 harmonic	79.1895422237	112.4630193006


Dihedral Coeffs

1 fourier 1	-0.0309670556842	3	0
2 fourier 1	0.4598191477945	2	0
3 fourier 1	0.1115525666802	3	0
4 fourier 1	0.3432490222662	1	0
5 fourier 1	0.0473758381877	3	0
6 fourier 1	0.457973137376	1	0
7 fourier 1	0.1918272375143	3	0
8 fourier 1	0.9202179876409	1	180
9 fourier 1	1.163809172478	2	180
10 fourier 1	0.1679186987369	1	180
11 fourier 1	2.779853741805	2	180
12 fourier 1	0.9974165607242	2	180
13 fourier 1	0.1911926717192	3	0
14 fourier 1	5.294842998052	2	180
15 fourier 1	1.659715194912	2	180
16 fourier 1	0.2347635637734	2	180
17 fourier 1	0.4747469131102	3	0
18 fourier 1	1.163235555439	2	180
19 fourier 1	0.3445382149273	3	0
20 fourier 1	0.1364556373303	1	0
21 fourier 1	0.3026390167484	3	0
22 fourier 1	2.687457892086	2	180
23 fourier 1	2.772607909663	2	180
24 fourier 1	0.09692684957115	1	0


Improper Coeffs

1 3.5	-1	2
2 0.3666666666666667	-1	2


Atoms

1	1	1	-0.14957801	1.576	-0.336	0.85699999
2	1	2	0.047070999	0.63599998	-0.419	-0.17900001
3	1	2	0.155224	-0.71899998	0.11	0.28999999
4	1	1	-0.49365401	-1.675	-0.035999998	-0.72399998
5	1	3	0.079880998	-1.051	-0.46900001	1.177
6	1	3	0.079880998	-0.63099998	1.1799999	0.58899999
7	1	3	0.089312002	0.52999997	-1.484	-0.477
8	1	3	0.089312002	0.98699999	0.154	-1.068
9	1	4	0.673217	-1.49	0.71399999	-1.4170001
10	1	5	-0.52915001	-2.391	1.043	-2.2320001
11	1	4	0.254347	-0.191	1.388	-1.447
12	1	4	-0.283317	0.82599998	1.123	-0.63800001
13	1	6	0.17919201	0.84500003	0.382	0.15000001
14	1	4	-0.296314	1.908	2.0250001	-1.023
15	1	6	0.16397899	2.8929999	2.089	-0.57700002
16	1	4	0.306925	1.451	2.756	-2.03
17	1	4	0.437264	2.207	3.796	-2.73
18	1	5	-0.52681297	1.677	4.434	-3.6760001
19	1	1	-0.221466	0.145	2.3989999	-2.336
20	1	1	-0.143841	1.845	0.61799997	0.92000002
21	1	2	0.0206	3.148	0.70099998	0.41100001
22	1	2	0.092605002	4.1529999	0.17200001	1.434
23	1	7	-0.68250901	5.461	0.31799999	0.95200002
24	1	8	0.38930401	5.5970001	-0.40000001	0.27900001
25	1	3	0.086236	4.0549998	0.75199997	2.3759999
26	1	3	0.086236	3.941	-0.89700001	1.663
27	1	3	0.089987002	3.3759999	1.766	0.192
28	1	3	0.089987002	3.23	0.12800001	-0.54100001
29	1	4	0.437264	3.224	4.0219998	-2.437
30	1	5	-0.52681297	3.777	5.0679998	-2.8670001
31	1	4	0.30692399	3.954	3.118	-1.546
32	1	4	-0.296314	3.4719999	1.994	-1.035
33	1	6	0.16397899	2.484	1.585	-1.199
34	1	4	-0.28690001	4.5349998	1.4220001	-0.214
35	1	6	0.17919201	4.4910002	0.50199997	0.35499999
36	1	4	0.265214	5.5689998	2.2509999	-0.29899999
37	1	4	0.71868902	6.8649998	2.0799999	0.36700001
38	1	5	-0.519319	7.0809999	1.077	1.1
39	1	7	-0.69772702	7.8610001	3.0339999	0.186
40	1	8	0.39682701	8.7629995	2.9349999	0.63599998
41	1	1	-0.22493599	5.2579999	3.3269999	-1.119

Bonds

1	1	1	2
2	2	1	20
3	3	2	3
4	4	2	7
5	4	2	8
6	1	3	4
7	4	3	5
8	4	3	6
9	5	4	9
10	6	9	10
11	7	9	11
12	8	11	12
13	9	11	19
14	10	12	13
15	7	12	14
16	10	14	15
17	8	14	16
18	7	16	17
19	9	16	19
20	6	17	18
21	7	17	29
22	1	20	21
23	3	21	22
24	4	21	27
25	4	21	28
26	11	22	23
27	4	22	25
28	4	22	26
29	12	23	24
30	6	29	30
31	7	29	31
32	8	31	32
33	9	31	41
34	10	32	33
35	7	32	34
36	10	34	35
37	8	34	36
38	7	36	37
39	9	36	41
40	6	37	38
41	13	37	39
42	12	39	40

Angles

1	6	13	12	14
2	1	1	2	7
3	5	5	3	6
4	1	21	22	26
5	1	2	3	4
6	5	25	22	26
7	6	34	36	37
8	6	14	16	17
9	6	37	36	41
10	1	23	22	26
11	6	32	34	35
12	4	32	31	41
13	2	3	4	9
14	1	20	21	27
15	5	7	2	8
16	1	3	2	8
17	4	17	29	31
18	4	14	16	19
19	5	27	21	28
20	6	29	31	41
21	1	4	3	6
22	1	1	2	3
23	1	22	21	28
24	1	2	3	6
25	4	12	11	19
26	4	16	17	29
27	4	12	14	16
28	6	15	14	16
29	6	29	31	32
30	4	30	29	31
31	1	3	2	7
32	6	11	12	13
33	6	31	32	33
34	4	32	34	36
35	4	36	37	38
36	3	38	37	39
37	2	2	1	20
38	3	4	9	10
39	2	37	39	40
40	1	22	21	27
41	2	1	20	21
42	1	20	21	28
43	1	21	22	25
44	4	18	17	29
45	1	4	3	5
46	1	2	3	5
47	4	34	36	41
48	1	23	22	25
49	4	16	17	18
50	7	31	41	36
51	6	35	34	36
52	4	36	37	39
53	4	10	9	11
54	1	21	22	23
55	6	12	14	15
56	6	9	11	12
57	4	11	12	14
58	6	17	16	19
59	4	17	29	30
60	6	9	11	19
61	1	20	21	22
62	6	33	32	34
63	1	1	2	8
64	4	31	32	34
65	7	11	19	16
66	2	22	23	24
67	4	4	9	11

Dihedrals

1	15	11	19	16	14
2	14	32	34	36	41
3	13	5	3	2	8
4	14	9	11	12	13
5	15	12	11	19	16
6	3	4	3	2	7
6	4	4	3	2	7
7	16	30	29	31	32
7	17	30	29	31	32
8	3	23	22	21	28
8	4	23	22	21	28
9	3	20	21	22	25
9	4	20	21	22	25
10	3	1	2	3	6
10	4	1	2	3	6
11	12	16	17	29	31
12	5	3	2	1	20
13	6	2	1	20	21
14	5	1	20	21	28
15	15	9	11	19	16
16	7	2	3	4	9
16	8	2	3	4	9
17	14	15	14	16	19
18	21	24	23	22	25
19	12	17	29	31	41
20	3	20	21	22	26
20	4	20	21	22	26
21	13	25	22	21	27
22	15	32	31	41	36
23	14	34	32	31	41
24	22	36	37	39	40
25	14	29	31	32	33
26	18	33	32	34	36
27	1	1	2	3	4
27	2	1	2	3	4
28	23	38	37	39	40
28	24	38	37	39	40
29	14	13	12	11	19
30	12	18	17	16	19
31	13	26	22	21	27
32	5	6	3	4	9
33	12	19	16	17	29
34	13	5	3	2	7
35	12	34	36	37	39
36	18	11	12	14	15
37	12	39	37	36	41
38	13	6	3	2	8
39	18	13	12	14	15
40	14	12	14	16	17
41	14	33	32	31	41
42	12	17	29	31	32
43	14	35	34	36	37
44	5	8	2	1	20
45	5	1	20	21	22
46	18	31	32	34	36
47	18	11	12	14	16
48	5	7	2	1	20
49	21	24	23	22	26
50	13	25	22	21	28
51	12	30	29	31	41
52	18	13	12	14	16
53	14	35	34	36	41
54	9	3	4	9	10
54	10	3	4	9	10
55	14	14	12	11	19
56	12	18	17	29	30
57	14	15	14	16	17
58	1	20	21	22	23
58	2	20	21	22	23
59	14	32	34	36	37
60	13	6	3	2	7
61	16	10	9	11	12
61	17	10	9	11	12
62	12	38	37	36	41
63	12	10	9	11	19
64	15	31	41	36	34
65	19	21	22	23	24
65	20	21	22	23	24
66	3	23	22	21	27
66	4	23	22	21	27
67	12	16	17	29	30
68	16	34	36	37	38
68	17	34	36	37	38
69	15	29	31	41	36
70	3	4	3	2	8
70	4	4	3	2	8
71	5	1	20	21	27
72	14	29	31	32	34
73	14	9	11	12	14
74	15	11	19	16	17
75	18	31	32	34	35
76	12	14	16	17	29
77	13	26	22	21	28
78	15	31	41	36	37
79	18	33	32	34	35
80	11	3	4	9	11
81	3	1	2	3	5
81	4	1	2	3	5
82	14	12	14	16	19
83	16	14	16	17	18
83	17	14	16	17	18
84	12	18	17	29	31
85	12	4	9	11	12
86	12	4	9	11	19
87	5	5	3	4	9

Impropers

5	1	9	11	4	10
8	2	34	36	32	35
15	1	9	4	10	11
17	1	37	39	36	38
18	2	17	16	18	29
21	2	12	14	11	13
23	2	34	35	36	32
29	2	14	15	16	12
36	1	37	36	38	39
50	2	31	41	29	32
56	1	37	38	39	36
59	2	31	32	41	29
64	2	11	19	9	12
67	2	17	18	29	16
70	1	9	10	11	4
78	2	31	29	32	41
79	2	16	19	14	17
86	2	11	9	12	19
93	2	12	13	14	11
98	2	36	37	41	34
106	2	36	41	34	37
108	2	12	11	13	14
109	2	14	16	12	15
110	2	11	12	19	9
120	2	29	30	31	17
125	2	32	33	34	31
128	2	16	14	17	19
130	2	36	34	37	41
141	2	14	12	15	16
145	2	32	31	33	34
150	2	34	32	35	36
152	2	29	17	30	31
153	2	17	29	16	18
156	2	29	31	17	30
161	2	16	17	19	14
166	2	32	34	31	33
