Title

112 atoms
119 bonds
240 angles
618 dihedrals
18 impropers

11 atom types
14 bond types
9 angle types
35 dihedral types
3 improper types
-9.276000023 90.72399998 xlo xhi
-5.164000034 94.83599997 ylo yhi
-8.524999619 91.47500038 zlo zhi
0.0 0.0 0.0 xy xz yz

Masses

1	12.01078
2	15.99943
3	14.00672
4	12.01078
5	1.007947
6	1.007947
7	1.007947
8	15.99943
9	12.01078
10	15.99943
11	1.007947


Pair Coeffs

1	0.086879315	3.4806469
2	0.2102061	3.0398122
3	0.16769152	3.206876
4	0.10884061	3.3795318
5	0.016409246	2.5832257
6	0.015779483	2.6445434
7	0.014090815	1.1034277
8	0.16846514	3.0251065
9	0.21	3.3996695
10	0.20947353	2.99716
11	1.2326e-05	0.53453923

Bond Coeffs

1 harmonic	582.698766451	1.225198386222
2 harmonic	492.76746816345	1.381897776683
3 harmonic	279.1350963404	1.454628925034
4 harmonic	352.0565580496	1.450098586273
5 harmonic	505.144496193	1.019481865027
6 harmonic	370.04670688625	1.093899492634
7 harmonic	264.62148576755	1.52190126495
8 harmonic	301.15400723785	1.345741232799
9 harmonic	366.7408841747	1.425895053732
10 harmonic	300.03137914615	1.451203938761
11 harmonic	366.34047229585	1.464762957261
12 harmonic	602.81384337	1.196112346392
13 harmonic	329.96998057905	1.427343958716
14 harmonic	543.5267831885	0.9716763312559


Angle Coeffs

1 harmonic	55.42182150775	117.3465570514
2 harmonic	63.44422595415	115.5071327674
3 harmonic	57.8982893754	126.8062420451
4 harmonic	53.20531626545	116.5475862634
5 harmonic	48.776492647595	115.6030999533
6 harmonic	65.09061609600001	110.3538806181
7 harmonic	201.41175231035	127.4691416191
8 harmonic	55.07882548015	112.8714009681
9 harmonic	33.56981613361	180


Dihedral Coeffs

1 fourier 1	0.182238503271	2	0
2 fourier 1	0.02972342374561	3	0
3 fourier 1	-0.1488678166443	4	180
4 fourier 1	-0.1230328948768	3	180
5 fourier 1	0.2939295466901	2	0
6 fourier 1	-0.3024127022865	1	0
7 fourier 1	1.809047390003	2	180
8 fourier 1	-0.04816277792592	1	0
9 fourier 1	3.101948770557	2	180
10 fourier 1	-0.4252153282372	1	0
11 fourier 1	2.348375642009	2	180
12 fourier 1	1.256156174911	1	0
13 fourier 1	0.9974165607242	2	180
14 fourier 1	0.1155372516788	3	0
15 fourier 1	0.1040663847541	3	0
16 fourier 1	0.09223874044423	3	0
17 fourier 1	0.3159935921949	2	180
18 fourier 1	0.3247796806857	1	180
19 fourier 1	0.1911926717192	3	0
20 fourier 1	2.779853741805	2	180
21 fourier 1	0.1918272375143	3	0
22 fourier 1	0.9202179876409	1	180
23 fourier 1	0.0473758381877	3	0
24 fourier 1	0.4860993122944	2	180
25 fourier 1	0.8916986138746	1	0
26 fourier 1	1.163809172478	2	180
27 fourier 1	0.1679186987369	1	180
28 fourier 1	0.1115525666802	3	0
29 fourier 1	0.3432490222662	1	0
30 fourier 1	0.457973137376	1	0
31 fourier 1	-1.382973039546	1	0
32 fourier 1	0	1	0
33 fourier 1	0.3445382149273	3	0
34 fourier 1	0.1364556373303	1	0
35 fourier 1	0.3026390167484	3	0


Improper Coeffs

1 0.3333333333333333	-1	2
2 0.3666666666666667	-1	2
3 3.5	-1	2


Atoms

1	1	1	0.55171603	-3.8510001	-0.48100001	-0.68000001
2	1	2	-0.712695	-3.767	-1.332	-1.605
3	1	3	-0.567249	-2.701	-0.107	0.086999997
4	1	4	0.086842	-1.354	-0.60500002	-0.20900001
5	1	5	0.035923999	-1.428	-1.5829999	-0.73500001
6	1	4	-0.181309	-0.62099999	0.38	-1.154
7	1	6	0.090392001	0.011	-0.19499999	-1.867
8	1	6	0.090392001	-1.354	0.95499998	-1.761
9	1	4	-0.17978001	0.27700001	1.351	-0.38
10	1	6	0.090392001	-0.35600001	1.929	0.329
11	1	6	0.090392001	0.72500002	2.089	-1.081
12	1	4	0.087562002	1.383	0.60500002	0.40900001
13	1	3	-0.51462698	2.598	0.47299999	-0.40400001
14	1	1	0.800367	3.875	0.167	0.168
15	1	2	-0.62994897	4.0079999	0.014	1.411
16	1	7	0.30870599	2.552	0.60699999	-1.439
17	1	5	0.039000999	1.6210001	1.232	1.298
18	1	4	-0.17978001	0.92799997	-0.79400003	0.898
19	1	6	0.090392001	1.21	-1.572	0.154
20	1	6	0.090392001	1.4450001	-1.041	1.851
21	1	4	-0.181309	-0.58700001	-0.85600001	1.113
22	1	6	0.090392001	-0.86400002	-0.097999997	1.8789999
23	1	6	0.090392001	-0.86400002	-1.854	1.518
24	1	7	0.305363	-2.8139999	0.67400002	0.77200001
25	1	8	-0.50028002	4.7030001	0.071999997	-0.449
26	1	4	0.14274199	4.3179998	-0.74699998	-1.52
27	1	4	-0.070254996	3.467	0.054000001	-2.5250001
28	1	6	0.111183	3.947	1.051	-2.6589999
29	1	4	-0.16105901	1.998	0.25299999	-2.0810001
30	1	6	0.109569	1.793	1.331	-1.896
31	1	6	0.109569	1.732	-0.31900001	-1.165
32	1	4	-0.104732	1.2029999	-0.234	-3.3099999
33	1	6	0.114294	0.171	0.17399999	-3.3659999
34	1	4	-0.14168499	2.1159999	0.185	-4.4439998
35	1	6	0.103975	1.7640001	-0.146	-5.4450002
36	1	6	0.103975	2.2880001	1.2869999	-4.4790001
37	1	4	-0.094200999	3.3110001	-0.59100002	-3.927
38	1	6	0.125348	4.2210002	-0.51200002	-4.5609999
39	1	4	-0.070720002	2.7349999	-2.0280001	-3.8039999
40	1	6	0.120393	3.2820001	-2.6500001	-3.066
41	1	4	-0.164033	2.671	-2.7980001	-5.1290002
42	1	6	0.097021997	3.4430001	-3.5969999	-5.1630001
43	1	6	0.097021997	2.826	-2.1289999	-6.0040002
44	1	4	-0.18447299	1.275	-3.3970001	-5.1859999
45	1	6	0.102724	0.935	-3.5250001	-6.237
46	1	6	0.102724	1.289	-4.3899999	-4.6849999
47	1	4	-0.056171	0.37599999	-2.4219999	-4.4250002
48	1	4	0.060403001	-0.85000002	-3.1110001	-3.802
49	1	8	-0.145843	-1.706	-3.5929999	-4.803
50	1	5	0.090645999	-1.41	-2.3670001	-3.1960001
51	1	5	0.090645999	-0.54000002	-3.934	-3.1170001
52	1	6	0.114547	0.011	-1.651	-5.1409998
53	1	4	-0.065554	1.286	-1.78	-3.359
54	1	6	0.132173	1.108	-2.234	-2.3570001
55	1	5	0.080145001	5.237	-1.105	-2.03
56	1	5	0.080145001	3.7720001	-1.637	-1.135
57	1	1	0.55171603	-4.8080001	-0.025	-0.465
58	1	2	-0.712695	-5.8559999	-0.71899998	-0.546
59	1	3	-0.567249	-4.868	1.359	-0.101
60	1	4	0.087235004	-6.1290002	2.0369999	0.215
61	1	5	0.035923999	-6.895	1.742	-0.53799999
62	1	4	-0.179965	-5.9460001	3.5650001	0.13600001
63	1	6	0.088702999	-5.132	3.8870001	0.82300001
64	1	6	0.088702999	-5.6550002	3.849	-0.898
65	1	4	-0.141552	-7.243	4.2950001	0.50800002
66	1	6	0.086299002	-8.0279999	4.0630002	-0.245
67	1	6	0.086299002	-7.0599999	5.3920002	0.486
68	1	4	0.207082	-7.7220001	3.8870001	1.91
69	1	3	-0.68066502	-8.9960003	4.5430002	2.1960001
70	1	9	0.60496199	-9.1379995	5.3439999	3.174
71	1	2	-0.52566701	-9.276	6.1230001	4.1259999
72	1	5	0.029882999	-6.9499998	4.1950002	2.655
73	1	4	-0.141552	-7.9050002	2.3629999	1.994
74	1	6	0.086297996	-8.1929998	2.0829999	3.03
75	1	6	0.086297996	-8.7229996	2.0409999	1.312
76	1	4	-0.179965	-6.6110001	1.6289999	1.619
77	1	6	0.088702999	-5.823	1.86	2.3699999
78	1	6	0.088702999	-6.8000002	0.53500003	1.65
79	1	7	0.305363	-3.971	1.896	-0.1
80	1	8	-0.145843	-1.355	-4.48	-5.0770001
81	1	4	0.061087001	-0.156	-4.2449999	-5.7649999
82	1	4	-0.063221999	0.977	-3.9289999	-4.7690001
83	1	6	0.115134	0.89099997	-4.6430001	-3.918
84	1	4	-0.16207001	0.94599998	-2.4809999	-4.224
85	1	6	0.10954	0.73900002	-2.4849999	-3.131
86	1	6	0.10954	0.19	-1.837	-4.7249999
87	1	4	-0.104117	2.3829999	-1.987	-4.4889998
88	1	6	0.114294	2.691	-1.138	-3.8410001
89	1	4	-0.141248	3.1800001	-3.2609999	-4.2919998
90	1	6	0.103975	4.2620001	-3.148	-4.5159998
91	1	6	0.103975	3.076	-3.684	-3.2650001
92	1	4	-0.095215	2.415	-4.0430002	-5.342
93	1	6	0.125681	2.7620001	-5.0900002	-5.4790001
94	1	4	-0.070055999	2.575	-3.142	-6.5960002
95	1	6	0.120393	1.766	-3.2939999	-7.3410001
96	1	4	-0.164033	3.9230001	-3.29	-7.3119998
97	1	6	0.097021997	3.806	-3.8340001	-8.2740002
98	1	6	0.097021997	4.6630001	-3.8410001	-6.691
99	1	4	-0.17884	4.4159999	-1.872	-7.552
100	1	6	0.102724	5.526	-1.832	-7.5819998
101	1	6	0.102724	4.0120001	-1.511	-8.5249996
102	1	4	-0.10006	3.858	-1.04	-6.3969998
103	1	4	0.138546	3.6589999	0.43799999	-6.7740002
104	1	10	-0.68244201	4.895	1.054	-7.0219998
105	1	11	0.37274	5.132	0.852	-7.9640002
106	1	5	0.074133001	3.175	0.963	-5.9229999
107	1	5	0.074133001	2.984	0.537	-7.6560001
108	1	6	0.114869	4.5819998	-1.086	-5.552
109	1	4	-0.058871999	2.5320001	-1.724	-6.0089998
110	1	6	0.132173	1.66	-1.164	-6.4159999
111	1	5	0.090645999	0.105	-5.164	-6.3299999
112	1	5	0.090645999	-0.30000001	-3.421	-6.5

Bonds

1	1	1	2
2	2	1	3
3	3	1	57
4	4	3	4
5	5	3	24
6	6	4	5
7	7	4	6
8	7	4	21
9	6	6	7
10	6	6	8
11	7	6	9
12	6	9	10
13	6	9	11
14	7	9	12
15	4	12	13
16	6	12	17
17	7	12	18
18	2	13	14
19	5	13	16
20	1	14	15
21	8	14	25
22	6	18	19
23	6	18	20
24	7	18	21
25	6	21	22
26	6	21	23
27	9	25	26
28	7	26	27
29	6	26	55
30	6	26	56
31	6	27	28
32	7	27	29
33	7	27	37
34	6	29	30
35	6	29	31
36	7	29	32
37	6	32	33
38	7	32	34
39	7	32	53
40	6	34	35
41	6	34	36
42	7	34	37
43	6	37	38
44	7	37	39
45	6	39	40
46	7	39	41
47	7	39	53
48	6	41	42
49	6	41	43
50	7	41	44
51	6	44	45
52	6	44	46
53	7	44	47
54	7	47	48
55	6	47	52
56	7	47	53
57	9	48	49
58	6	48	50
59	6	48	51
60	10	49	80
61	6	53	54
62	1	57	58
63	2	57	59
64	4	59	60
65	5	59	79
66	6	60	61
67	7	60	62
68	7	60	76
69	6	62	63
70	6	62	64
71	7	62	65
72	6	65	66
73	6	65	67
74	7	65	68
75	11	68	69
76	6	68	72
77	7	68	73
78	12	69	70
79	1	70	71
80	6	73	74
81	6	73	75
82	7	73	76
83	6	76	77
84	6	76	78
85	9	80	81
86	7	81	82
87	6	81	111
88	6	81	112
89	6	82	83
90	7	82	84
91	7	82	92
92	6	84	85
93	6	84	86
94	7	84	87
95	6	87	88
96	7	87	89
97	7	87	109
98	6	89	90
99	6	89	91
100	7	89	92
101	6	92	93
102	7	92	94
103	6	94	95
104	7	94	96
105	7	94	109
106	6	96	97
107	6	96	98
108	7	96	99
109	6	99	100
110	6	99	101
111	7	99	102
112	7	102	103
113	6	102	108
114	7	102	109
115	13	103	104
116	6	103	106
117	6	103	107
118	14	104	105
119	6	109	110

Angles

1	4	60	76	78
2	4	96	99	102
3	4	3	4	5
4	4	33	32	53
5	4	4	6	9
6	6	103	104	105
7	4	4	21	18
8	4	6	9	11
9	4	101	99	102
10	4	92	94	109
11	4	25	26	55
12	4	27	37	39
13	1	57	59	60
14	4	5	4	6
15	4	73	76	77
16	4	52	47	53
17	5	74	73	75
18	4	19	18	21
19	4	93	92	94
20	4	102	103	107
21	4	67	65	68
22	4	69	68	73
23	9	69	70	71
24	5	30	29	31
25	4	43	41	44
26	4	46	44	47
27	4	88	87	109
28	4	31	29	32
29	4	29	32	34
30	4	12	18	19
31	4	44	47	48
32	4	61	60	62
33	4	88	87	89
34	4	41	39	53
35	4	49	48	50
36	4	26	27	28
37	2	12	13	16
38	4	47	48	49
39	4	99	102	109
40	4	4	21	22
41	4	6	9	12
42	4	33	32	34
43	4	41	44	45
44	4	74	73	76
45	4	73	76	78
46	4	39	53	47
47	4	17	12	18
48	4	66	65	68
49	4	84	87	88
50	4	90	89	92
51	4	103	102	108
52	3	13	14	15
53	4	32	34	35
54	5	22	21	23
55	5	63	62	64
56	4	82	81	112
57	4	30	29	32
58	4	86	84	87
59	7	15	14	25
60	4	80	81	111
61	4	25	26	27
62	4	3	4	21
63	5	106	103	107
64	4	12	18	20
65	4	34	32	53
66	4	48	47	53
67	4	18	21	22
68	4	42	41	44
69	4	62	60	76
70	4	98	96	99
71	4	49	48	51
72	4	9	12	17
73	4	26	27	29
74	4	84	87	109
75	4	102	103	104
76	1	1	3	4
77	4	41	44	46
78	4	85	84	87
79	4	84	87	89
80	4	60	62	63
81	4	87	89	90
82	5	77	76	78
83	4	103	102	109
84	4	32	34	36
85	4	9	12	13
86	4	62	65	66
87	4	102	109	110
88	3	2	1	57
89	4	44	47	52
90	4	13	12	18
91	4	39	41	44
92	4	9	12	18
93	4	68	73	76
94	4	82	84	87
95	2	14	13	16
96	5	100	99	101
97	2	60	59	79
98	4	60	62	64
99	4	87	89	91
100	4	26	27	37
101	5	10	9	11
102	2	1	3	24
103	4	65	68	69
104	4	20	18	21
105	4	44	47	53
106	4	25	26	56
107	4	34	37	38
108	4	94	96	97
109	4	81	82	83
110	4	87	109	102
111	4	65	68	72
112	4	95	94	96
113	4	100	99	102
114	4	99	102	103
115	5	35	34	36
116	4	104	103	106
117	4	10	9	12
118	4	27	29	30
119	4	92	94	95
120	4	47	48	50
121	4	4	21	23
122	4	89	92	93
123	5	19	18	20
124	4	96	99	100
125	4	8	6	9
126	5	97	96	98
127	4	3	4	6
128	4	94	96	98
129	4	63	62	65
130	4	65	68	73
131	4	4	6	7
132	4	87	109	94
133	4	80	81	112
134	4	72	68	73
135	5	55	26	56
136	4	18	21	23
137	4	35	34	37
138	4	47	53	54
139	4	87	109	110
140	4	27	29	31
141	4	104	103	107
142	4	32	53	54
143	5	7	6	8
144	4	47	48	51
145	4	27	26	55
146	4	82	92	89
147	4	41	44	47
148	3	3	1	57
149	4	96	99	101
150	4	38	37	39
151	4	97	96	99
152	3	2	1	3
153	4	96	94	109
154	4	32	34	37
155	4	95	94	109
156	5	45	44	46
157	4	4	6	8
158	1	12	13	14
159	6	14	25	26
160	4	59	60	76
161	4	62	65	67
162	4	89	87	109
163	4	84	82	92
164	4	27	37	38
165	4	60	76	73
166	4	81	82	92
167	4	102	103	106
168	4	40	39	41
169	4	29	32	53
170	4	7	6	9
171	4	69	68	72
172	4	83	82	84
173	4	108	102	109
174	4	5	4	21
175	4	27	26	56
176	4	6	9	10
177	4	29	32	33
178	4	60	62	65
179	4	87	89	92
180	4	27	37	34
181	4	12	18	21
182	4	75	73	76
183	4	28	27	29
184	4	45	44	47
185	4	62	65	68
186	4	59	60	61
187	4	99	102	108
188	4	36	34	37
189	3	58	57	59
190	4	34	37	39
191	4	37	39	40
192	4	40	39	53
193	5	66	65	67
194	5	90	89	91
195	4	29	27	37
196	4	81	82	84
197	4	82	81	111
198	5	50	48	51
199	4	82	92	93
200	3	1	57	58
201	4	32	53	47
202	6	48	49	80
203	4	48	47	52
204	5	42	41	43
205	4	83	82	92
206	4	92	94	96
207	4	39	41	42
208	4	68	73	74
209	4	94	109	110
210	4	82	84	85
211	4	64	62	65
212	4	91	89	92
213	4	59	60	62
214	2	57	59	79
215	4	89	92	94
216	4	6	4	21
217	4	60	76	77
218	4	28	27	37
219	4	37	39	41
220	4	61	60	76
221	5	85	84	86
222	4	94	96	99
223	4	82	92	94
224	3	1	57	59
225	8	68	69	70
226	4	39	53	54
227	4	32	53	39
228	4	13	12	17
229	3	13	14	25
230	4	27	29	32
231	4	39	41	43
232	6	49	80	81
233	4	68	73	75
234	4	82	84	86
235	5	111	81	112
236	4	80	81	82
237	4	94	109	102
238	4	37	39	53
239	4	11	9	12
240	2	4	3	24

Dihedrals

1	19	28	27	29	31
2	7	1	57	59	60
2	8	1	57	59	60
3	15	26	27	29	31
4	16	89	92	94	109
4	17	89	92	94	109
4	18	89	92	94	109
5	35	105	104	103	107
6	16	92	94	96	99
6	17	92	94	96	99
6	18	92	94	96	99
7	16	81	82	84	87
7	17	81	82	84	87
7	18	81	82	84	87
8	15	27	37	34	35
9	15	66	65	68	73
10	15	101	99	102	109
11	15	62	65	68	72
12	16	99	96	94	109
12	17	99	96	94	109
12	18	99	96	94	109
13	15	7	6	9	12
14	15	37	39	41	42
15	19	90	89	92	93
16	19	5	4	21	23
17	1	14	13	12	17
17	2	14	13	12	17
18	16	82	92	94	109
18	17	82	92	94	109
18	18	82	92	94	109
19	19	100	99	102	108
20	15	85	84	87	109
21	15	43	41	44	47
22	15	85	84	87	89
23	15	45	44	47	48
24	9	58	57	59	60
24	10	58	57	59	60
25	19	83	82	81	112
26	19	19	18	21	22
27	16	87	109	94	92
27	17	87	109	94	92
27	18	87	109	94	92
28	14	67	65	68	69
29	7	4	3	1	57
29	8	4	3	1	57
30	15	4	21	18	20
31	15	27	37	39	40
32	23	14	25	26	56
33	11	58	57	59	79
33	12	58	57	59	79
34	15	82	84	87	88
35	15	61	60	76	73
36	14	59	60	76	78
37	15	87	109	102	108
38	15	30	29	32	34
39	15	88	87	89	92
40	16	84	87	89	92
40	17	84	87	89	92
40	18	84	87	89	92
41	15	6	9	12	17
42	15	86	84	82	92
43	19	83	82	84	85
44	28	104	103	102	108
44	29	104	103	102	108
45	15	82	92	89	90
46	15	39	41	44	45
47	19	5	4	6	7
48	15	106	103	102	109
49	14	3	4	21	23
50	16	84	82	92	94
50	17	84	82	92	94
50	18	84	82	92	94
51	16	87	109	94	96
51	17	87	109	94	96
51	18	87	109	94	96
52	16	27	37	39	53
52	17	27	37	39	53
52	18	27	37	39	53
53	19	51	48	47	52
54	15	89	92	94	95
55	14	10	9	12	13
56	15	62	60	76	77
57	9	2	1	3	4
57	10	2	1	3	4
58	16	65	62	60	76
58	17	65	62	60	76
58	18	65	62	60	76
59	19	42	41	44	46
60	15	65	68	73	75
61	1	16	13	12	17
61	2	16	13	12	17
62	16	32	29	27	37
62	17	32	29	27	37
62	18	32	29	27	37
63	15	7	6	4	21
64	16	60	62	65	68
64	17	60	62	65	68
64	18	60	62	65	68
65	15	94	109	102	108
66	15	82	92	94	95
67	15	33	32	34	37
68	15	37	39	53	54
69	14	3	4	6	9
70	15	61	60	62	65
71	16	60	76	73	68
71	17	60	76	73	68
71	18	60	76	73	68
72	15	26	27	29	30
73	35	105	104	103	106
74	15	92	94	96	98
75	15	81	82	84	86
76	19	66	65	68	72
77	15	29	27	37	38
78	19	101	99	102	108
79	19	7	6	9	11
80	19	10	9	12	17
81	15	98	96	99	102
82	20	13	14	25	26
83	24	15	14	13	16
83	25	15	14	13	16
84	16	44	41	39	53
84	17	44	41	39	53
84	18	44	41	39	53
85	14	80	81	82	92
86	19	43	41	44	46
87	19	85	84	87	88
88	16	32	53	39	41
88	17	32	53	39	41
88	18	32	53	39	41
89	19	83	82	81	111
90	16	37	39	53	47
90	17	37	39	53	47
90	18	37	39	53	47
91	16	41	44	47	53
91	17	41	44	47	53
91	18	41	44	47	53
92	14	25	26	27	37
93	15	29	32	34	35
94	3	1	3	4	6
94	4	1	3	4	6
94	5	1	3	4	6
94	6	1	3	4	6
95	15	4	21	18	19
96	14	59	60	62	63
97	16	84	87	109	94
97	17	84	87	109	94
97	18	84	87	109	94
98	16	87	89	92	94
98	17	87	89	92	94
98	18	87	89	92	94
99	15	42	41	39	53
100	23	14	25	26	55
101	15	39	53	47	52
102	3	57	59	60	76
102	4	57	59	60	76
102	5	57	59	60	76
102	6	57	59	60	76
103	19	88	87	109	110
104	16	96	99	102	103
104	17	96	99	102	103
104	18	96	99	102	103
105	14	59	60	76	77
106	15	64	62	65	68
107	19	88	87	89	91
108	15	107	103	102	109
109	15	68	73	76	77
110	14	99	102	103	104
111	15	34	37	39	40
112	14	62	65	68	69
113	15	84	82	81	111
114	1	57	59	60	61
114	2	57	59	60	61
115	19	106	103	102	108
116	15	84	82	92	93
117	15	87	109	94	95
118	15	94	96	99	100
119	16	4	21	18	12
119	17	4	21	18	12
119	18	4	21	18	12
120	16	89	87	109	94
120	17	89	87	109	94
120	18	89	87	109	94
121	15	96	94	109	110
122	23	49	80	81	82
123	15	6	4	21	23
124	19	8	6	9	11
125	19	42	41	44	45
126	15	65	68	73	74
127	16	87	84	82	92
127	17	87	84	82	92
127	18	87	84	82	92
128	19	20	18	21	22
129	15	12	18	21	23
130	16	34	37	39	53
130	17	34	37	39	53
130	18	34	37	39	53
131	15	60	62	65	67
132	15	44	47	53	54
133	15	95	94	109	102
134	13	2	1	57	59
135	7	24	3	1	57
135	8	24	3	1	57
136	15	44	47	48	51
137	15	4	6	9	11
138	15	63	62	65	68
139	16	27	29	32	34
139	17	27	29	32	34
139	18	27	29	32	34
140	15	11	9	12	18
141	19	61	60	62	64
142	15	91	89	87	109
143	1	5	4	3	24
143	2	5	4	3	24
144	15	29	27	26	55
145	19	40	39	53	54
146	15	81	82	84	85
147	19	95	94	96	98
148	15	93	92	94	96
149	19	98	96	99	101
150	16	96	99	102	109
150	17	96	99	102	109
150	18	96	99	102	109
151	15	98	96	94	109
152	1	9	12	13	16
152	2	9	12	13	16
153	14	49	48	47	53
154	15	67	65	68	73
155	15	92	82	81	112
156	16	32	34	37	39
156	17	32	34	37	39
156	18	32	34	37	39
157	14	6	9	12	13
158	16	29	32	53	39
158	17	29	32	53	39
158	18	29	32	53	39
159	19	97	96	99	101
160	15	32	53	39	40
161	31	65	68	69	70
162	15	28	27	37	39
163	15	41	44	47	52
164	16	26	27	37	39
164	17	26	27	37	39
164	18	26	27	37	39
165	16	9	12	18	21
165	17	9	12	18	21
165	18	9	12	18	21
166	14	69	68	73	76
167	15	36	34	37	39
168	15	93	92	94	109
169	15	34	32	53	54
170	15	40	39	53	47
171	15	17	12	18	21
172	19	33	32	53	54
173	16	37	39	41	44
173	17	37	39	41	44
173	18	37	39	41	44
174	31	70	69	68	73
175	16	62	60	76	73
175	17	62	60	76	73
175	18	62	60	76	73
176	19	88	87	89	90
177	23	47	48	49	80
178	15	5	4	21	18
179	15	83	82	92	89
180	15	43	41	39	53
181	15	97	96	94	109
182	15	31	29	32	34
183	14	25	26	27	29
184	23	49	80	81	112
185	16	34	32	53	47
185	17	34	32	53	47
185	18	34	32	53	47
186	16	37	34	32	53
186	17	37	34	32	53
186	18	37	34	32	53
187	16	29	27	37	34
187	17	29	27	37	34
187	18	29	27	37	34
188	15	6	4	21	22
189	15	33	32	53	47
190	16	39	53	47	44
190	17	39	53	47	44
190	18	39	53	47	44
191	7	12	13	14	15
191	8	12	13	14	15
192	15	99	102	103	107
193	15	38	37	39	41
194	15	100	99	102	103
195	19	83	82	92	93
196	15	83	82	84	87
197	16	27	29	32	53
197	17	27	29	32	53
197	18	27	29	32	53
198	19	72	68	73	75
199	16	39	41	44	47
199	17	39	41	44	47
199	18	39	41	44	47
200	15	5	4	6	9
201	16	32	53	39	37
201	17	32	53	39	37
201	18	32	53	39	37
202	15	85	84	82	92
203	19	63	62	65	67
204	15	27	29	32	33
205	19	28	27	29	30
206	19	11	9	12	17
207	15	84	87	109	110
208	19	61	60	62	63
209	16	81	82	92	94
209	17	81	82	92	94
209	18	81	82	92	94
210	14	3	4	21	18
211	11	2	1	3	24
211	12	2	1	3	24
212	15	63	62	60	76
213	19	95	94	96	97
214	15	40	39	41	44
215	19	93	92	94	95
216	16	39	53	47	48
216	17	39	53	47	48
216	18	39	53	47	48
217	16	96	94	109	102
217	17	96	94	109	102
217	18	96	94	109	102
218	19	74	73	76	78
219	15	90	89	87	109
220	19	5	4	21	22
221	15	99	102	109	110
222	16	87	109	102	103
222	17	87	109	102	103
222	18	87	109	102	103
223	19	17	12	18	20
224	14	59	60	76	73
225	15	92	82	81	111
226	15	30	29	27	37
227	15	32	34	37	38
228	19	52	47	53	54
229	19	97	96	99	100
230	19	28	27	26	56
231	19	28	27	37	38
232	16	84	82	92	89
232	17	84	82	92	89
232	18	84	82	92	89
233	16	92	94	109	102
233	17	92	94	109	102
233	18	92	94	109	102
234	15	89	87	109	110
235	15	26	27	37	38
236	16	26	27	29	32
236	17	26	27	29	32
236	18	26	27	29	32
237	14	69	68	73	75
238	15	27	37	34	36
239	15	36	34	32	53
240	13	3	1	57	59
241	15	37	39	41	43
242	15	30	29	32	53
243	31	70	69	68	72
244	1	62	60	59	79
244	2	62	60	59	79
245	15	46	44	47	53
246	19	30	29	32	33
247	3	14	13	12	18
247	4	14	13	12	18
247	5	14	13	12	18
247	6	14	13	12	18
248	1	21	4	3	24
248	2	21	4	3	24
249	15	84	87	89	91
250	15	100	99	102	109
251	23	50	48	49	80
252	16	94	109	102	103
252	17	94	109	102	103
252	18	94	109	102	103
253	15	41	39	53	54
254	1	61	60	59	79
254	2	61	60	59	79
255	14	3	4	21	22
256	1	6	4	3	24
256	2	6	4	3	24
257	16	29	32	34	37
257	17	29	32	34	37
257	18	29	32	34	37
258	15	50	48	47	53
259	14	59	60	62	65
260	15	101	99	102	103
261	19	7	6	9	10
262	15	103	102	109	110
263	15	99	102	103	106
264	19	33	32	34	36
265	19	83	82	84	86
266	16	41	39	53	47
266	17	41	39	53	47
266	18	41	39	53	47
267	19	72	68	73	74
268	15	45	44	47	53
269	15	39	41	44	46
270	19	5	4	6	8
271	15	82	92	89	91
272	16	94	96	99	102
272	17	94	96	99	102
272	18	94	96	99	102
273	14	13	12	18	21
274	16	41	44	47	48
274	17	41	44	47	48
274	18	41	44	47	48
275	14	3	4	6	8
276	15	91	89	92	94
277	15	51	48	47	53
278	15	81	82	92	93
279	7	12	13	14	25
279	8	12	13	14	25
280	33	102	103	104	105
280	34	102	103	104	105
281	15	92	94	96	97
282	1	1	3	4	5
282	2	1	3	4	5
283	19	40	39	41	43
284	16	34	32	53	39
284	17	34	32	53	39
284	18	34	32	53	39
285	19	108	102	109	110
286	15	62	60	76	78
287	19	61	60	76	78
288	3	9	12	13	14
288	4	9	12	13	14
288	5	9	12	13	14
288	6	9	12	13	14
289	15	42	41	44	47
290	16	65	68	73	76
290	17	65	68	73	76
290	18	65	68	73	76
291	16	6	4	21	18
291	17	6	4	21	18
291	18	6	4	21	18
292	15	86	84	87	109
293	15	60	76	73	75
294	19	43	41	44	45
295	15	86	84	87	89
296	16	32	53	47	48
296	17	32	53	47	48
296	18	32	53	47	48
297	19	28	27	26	55
298	16	84	87	109	102
298	17	84	87	109	102
298	18	84	87	109	102
299	15	87	89	92	93
300	14	69	68	73	74
301	16	29	27	37	39
301	17	29	27	37	39
301	18	29	27	37	39
302	15	35	34	37	39
303	15	10	9	12	18
304	13	3	1	57	58
305	19	46	44	47	52
306	7	1	57	59	79
306	8	1	57	59	79
307	14	80	81	82	84
308	19	64	62	65	67
309	19	8	6	9	10
310	16	9	6	4	21
310	17	9	6	4	21
310	18	9	6	4	21
311	15	84	87	89	90
312	19	107	103	102	108
313	14	66	65	68	69
314	15	32	53	47	52
315	15	4	6	9	10
316	15	29	32	34	36
317	14	11	9	12	13
318	16	89	87	109	102
318	17	89	87	109	102
318	18	89	87	109	102
319	19	50	48	47	52
320	14	59	60	62	64
321	14	13	12	18	20
322	15	48	47	53	54
323	26	15	14	25	26
323	27	15	14	25	26
324	15	88	87	109	102
325	21	14	25	26	27
325	22	14	25	26	27
326	7	16	13	14	25
326	8	16	13	14	25
327	16	87	109	102	99
327	17	87	109	102	99
327	18	87	109	102	99
328	15	29	32	53	54
329	15	12	18	21	22
330	15	68	73	76	78
331	15	60	62	65	66
332	1	76	60	59	79
332	2	76	60	59	79
333	19	95	94	109	110
334	16	34	37	39	41
334	17	34	37	39	41
334	18	34	37	39	41
335	13	2	1	57	58
336	15	84	82	81	112
337	19	33	32	34	35
338	3	57	59	60	62
338	4	57	59	60	62
338	5	57	59	60	62
338	6	57	59	60	62
339	15	44	47	48	50
340	19	45	44	47	52
341	15	94	96	99	101
342	15	28	27	37	34
343	14	3	4	6	7
344	19	75	73	76	78
345	19	91	89	92	93
346	16	26	27	37	34
346	17	26	27	37	34
346	18	26	27	37	34
347	15	64	62	60	76
348	16	27	37	34	32
348	17	27	37	34	32
348	18	27	37	34	32
349	15	35	34	32	53
350	19	40	39	41	42
351	23	51	48	49	80
352	15	9	12	18	20
353	19	98	96	99	100
354	15	96	99	102	108
355	15	37	27	26	56
356	19	61	60	76	77
357	28	49	48	47	52
357	29	49	48	47	52
358	15	8	6	9	12
359	19	67	65	68	72
360	19	20	18	21	23
361	16	29	32	53	47
361	17	29	32	53	47
361	18	29	32	53	47
362	15	60	76	73	74
363	19	86	84	87	88
364	16	94	109	102	99
364	17	94	109	102	99
364	18	94	109	102	99
365	16	4	6	9	12
365	17	4	6	9	12
365	18	4	6	9	12
366	15	31	29	27	37
367	15	28	27	29	32
368	15	29	27	26	56
369	19	36	34	37	38
370	15	95	94	96	99
371	19	35	34	37	38
372	16	62	65	68	73
372	17	62	65	68	73
372	18	62	65	68	73
373	15	90	89	92	94
374	15	8	6	4	21
375	30	48	49	80	81
376	28	80	81	82	83
376	29	80	81	82	83
377	19	64	62	65	66
378	15	31	29	32	53
379	15	97	96	99	102
380	19	31	29	32	33
381	16	82	92	89	87
381	17	82	92	89	87
381	18	82	92	89	87
382	19	19	18	21	23
383	28	25	26	27	28
383	29	25	26	27	28
384	16	27	37	39	41
384	17	27	37	39	41
384	18	27	37	39	41
385	32	68	69	70	71
386	23	49	80	81	111
387	16	81	82	92	89
387	17	81	82	92	89
387	18	81	82	92	89
388	14	13	12	18	19
389	16	82	84	87	109
389	17	82	84	87	109
389	18	82	84	87	109
390	16	82	84	87	89
390	17	82	84	87	89
390	18	82	84	87	89
391	16	92	89	87	109
391	17	92	89	87	109
391	18	92	89	87	109
392	16	6	9	12	18
392	17	6	9	12	18
392	18	6	9	12	18
393	19	38	37	39	40
394	16	32	53	47	44
394	17	32	53	47	44
394	18	32	53	47	44
395	14	44	47	48	49
396	14	104	103	102	109
397	19	63	62	65	66
398	3	1	3	4	21
398	4	1	3	4	21
398	5	1	3	4	21
398	6	1	3	4	21
399	19	75	73	76	77
400	16	89	92	94	96
400	17	89	92	94	96
400	18	89	92	94	96
401	15	9	12	18	19
402	19	74	73	76	77
403	15	33	32	53	39
404	15	37	27	26	55
405	15	88	87	109	94
406	15	46	44	47	48
407	19	17	12	18	19
408	1	16	13	12	18
408	2	16	13	12	18
409	15	38	37	39	53
410	16	82	92	94	96
410	17	82	92	94	96
410	18	82	92	94	96
411	15	83	82	92	94
412	15	72	68	73	76
413	15	92	94	109	110

Impropers

28	3	14	25	13	15
116	2	57	58	59	1
254	1	13	12	14	16
374	2	1	3	57	2
385	1	59	57	60	79
412	1	59	79	57	60
455	2	1	2	3	57
567	1	59	60	79	57
570	2	1	57	2	3
591	3	14	15	25	13
682	1	3	4	24	1
771	1	3	1	4	24
781	2	57	1	58	59
798	1	13	14	16	12
834	1	3	24	1	4
851	1	13	16	12	14
870	3	14	13	15	25
889	2	57	59	1	58
