Title

112 atoms
119 bonds
240 angles
618 dihedrals
18 impropers

11 atom types
14 bond types
9 angle types
35 dihedral types
3 improper types
-9.276000023 90.72399998 xlo xhi
-5.164000034 94.83599997 ylo yhi
-8.524999619 91.47500038 zlo zhi
0.0 0.0 0.0 xy xz yz

Masses

1	12.01078
2	15.99943
3	14.00672
4	12.01078
5	1.007947
6	1.007947
7	1.007947
8	15.99943
9	12.01078
10	15.99943
11	1.007947


Pair Coeffs

1	0.086879315	3.4806469
2	0.2102061	3.0398122
3	0.16769152	3.206876
4	0.10884061	3.3795318
5	0.016409246	2.5832257
6	0.015779483	2.6445434
7	0.014090815	1.1034277
8	0.16846514	3.0251065
9	0.21	3.3996695
10	0.20947353	2.99716
11	1.2326e-05	0.53453923

Bond Coeffs

1 harmonic	582.698766451	1.225198386222
2 harmonic	492.76746816345	1.381897776683
3 harmonic	279.1350963404	1.454628925034
4 harmonic	352.0565580496	1.450098586273
5 harmonic	505.144496193	1.019481865027
6 harmonic	370.04670688625	1.093899492634
7 harmonic	264.62148576755	1.52190126495
8 harmonic	301.15400723785	1.345741232799
9 harmonic	366.7408841747	1.425895053732
10 harmonic	300.03137914615	1.451203938761
11 harmonic	366.34047229585	1.464762957261
12 harmonic	602.81384337	1.196112346392
13 harmonic	329.96998057905	1.427343958716
14 harmonic	543.5267831885	0.9716763312559


Angle Coeffs

1 harmonic	55.42182150775	117.3465570514
2 harmonic	63.44422595415	115.5071327674
3 harmonic	57.8982893754	126.8062420451
4 harmonic	53.20531626545	116.5475862634
5 harmonic	48.776492647595	115.6030999533
6 harmonic	65.09061609600001	110.3538806181
7 harmonic	201.41175231035	127.4691416191
8 harmonic	55.07882548015	112.8714009681
9 harmonic	33.56981613361	180


Dihedral Coeffs

1 fourier 1	0.182238503271	2	0
2 fourier 1	0.02972342374561	3	0
3 fourier 1	-0.1488678166443	4	180
4 fourier 1	-0.1230328948768	3	180
5 fourier 1	0.2939295466901	2	0
6 fourier 1	-0.3024127022865	1	0
7 fourier 1	1.809047390003	2	180
8 fourier 1	-0.04816277792592	1	0
9 fourier 1	3.101948770557	2	180
10 fourier 1	-0.4252153282372	1	0
11 fourier 1	2.348375642009	2	180
12 fourier 1	1.256156174911	1	0
13 fourier 1	0.9974165607242	2	180
14 fourier 1	0.1155372516788	3	0
15 fourier 1	0.1040663847541	3	0
16 fourier 1	0.09223874044423	3	0
17 fourier 1	0.3159935921949	2	180
18 fourier 1	0.3247796806857	1	180
19 fourier 1	0.1911926717192	3	0
20 fourier 1	2.779853741805	2	180
21 fourier 1	0.1918272375143	3	0
22 fourier 1	0.9202179876409	1	180
23 fourier 1	0.0473758381877	3	0
24 fourier 1	0.4860993122944	2	180
25 fourier 1	0.8916986138746	1	0
26 fourier 1	1.163809172478	2	180
27 fourier 1	0.1679186987369	1	180
28 fourier 1	0.1115525666802	3	0
29 fourier 1	0.3432490222662	1	0
30 fourier 1	0.457973137376	1	0
31 fourier 1	-1.382973039546	1	0
32 fourier 1	0	1	0
33 fourier 1	0.3445382149273	3	0
34 fourier 1	0.1364556373303	1	0
35 fourier 1	0.3026390167484	3	0


Improper Coeffs

1 0.3333333333333333	-1	2
2 0.3666666666666667	-1	2
3 3.5	-1	2


Atoms

1	1	1	0.55171603	-3.8510001	-0.48100001	-0.68000001
2	1	2	-0.712695	-3.767	-1.332	-1.605
3	1	3	-0.567249	-2.701	-0.107	0.086999997
4	1	4	0.086842	-1.354	-0.60500002	-0.20900001
5	1	5	0.035923999	-1.428	-1.5829999	-0.73500001
6	1	4	-0.181309	-0.62099999	0.38	-1.154
7	1	6	0.090392001	0.011	-0.19499999	-1.867
8	1	6	0.090392001	-1.354	0.95499998	-1.761
9	1	4	-0.17978001	0.27700001	1.351	-0.38
10	1	6	0.090392001	-0.35600001	1.929	0.329
11	1	6	0.090392001	0.72500002	2.089	-1.081
12	1	4	0.087562002	1.383	0.60500002	0.40900001
13	1	3	-0.51462698	2.598	0.47299999	-0.40400001
14	1	1	0.800367	3.875	0.167	0.168
15	1	2	-0.62994897	4.0079999	0.014	1.411
16	1	7	0.30870599	2.552	0.60699999	-1.439
17	1	5	0.039000999	1.6210001	1.232	1.298
18	1	4	-0.17978001	0.92799997	-0.79400003	0.898
19	1	6	0.090392001	1.21	-1.572	0.154
20	1	6	0.090392001	1.4450001	-1.041	1.851
21	1	4	-0.181309	-0.58700001	-0.85600001	1.113
22	1	6	0.090392001	-0.86400002	-0.097999997	1.8789999
23	1	6	0.090392001	-0.86400002	-1.854	1.518
24	1	7	0.305363	-2.8139999	0.67400002	0.77200001
25	1	8	-0.50028002	4.7030001	0.071999997	-0.449
26	1	4	0.14274199	4.3179998	-0.74699998	-1.52
27	1	4	-0.070254996	3.467	0.054000001	-2.5250001
28	1	6	0.111183	3.947	1.051	-2.6589999
29	1	4	-0.16105901	1.998	0.25299999	-2.0810001
30	1	6	0.109569	1.793	1.331	-1.896
31	1	6	0.109569	1.732	-0.31900001	-1.165
32	1	4	-0.104732	1.2029999	-0.234	-3.3099999
33	1	6	0.114294	0.171	0.17399999	-3.3659999
34	1	4	-0.14168499	2.1159999	0.185	-4.4439998
35	1	6	0.103975	1.7640001	-0.146	-5.4450002
36	1	6	0.103975	2.2880001	1.2869999	-4.4790001
37	1	4	-0.094200999	3.3110001	-0.59100002	-3.927
38	1	6	0.125348	4.2210002	-0.51200002	-4.5609999
39	1	4	-0.070720002	2.7349999	-2.0280001	-3.8039999
40	1	6	0.120393	3.2820001	-2.6500001	-3.066
41	1	4	-0.164033	2.671	-2.7980001	-5.1290002
42	1	6	0.097021997	3.4430001	-3.5969999	-5.1630001
43	1	6	0.097021997	2.826	-2.1289999	-6.0040002
44	1	4	-0.18447299	1.275	-3.3970001	-5.1859999
45	1	6	0.102724	0.935	-3.5250001	-6.237
46	1	6	0.102724	1.289	-4.3899999	-4.6849999
47	1	4	-0.056171	0.37599999	-2.4219999	-4.4250002
48	1	4	0.060403001	-0.85000002	-3.1110001	-3.802
49	1	8	-0.145843	-1.706	-3.5929999	-4.803
50	1	5	0.090645999	-1.41	-2.3670001	-3.1960001
51	1	5	0.090645999	-0.54000002	-3.934	-3.1170001
52	1	6	0.114547	0.011	-1.651	-5.1409998
53	1	4	-0.065554	1.286	-1.78	-3.359
54	1	6	0.132173	1.108	-2.234	-2.3570001
55	1	5	0.080145001	5.237	-1.105	-2.03
56	1	5	0.080145001	3.7720001	-1.637	-1.135
57	1	1	0.55171603	-4.8080001	-0.025	-0.465
58	1	2	-0.712695	-5.8559999	-0.71899998	-0.546
59	1	3	-0.567249	-4.868	1.359	-0.101
60	1	4	0.087235004	-6.1290002	2.0369999	0.215
61	1	5	0.035923999	-6.895	1.742	-0.53799999
62	1	4	-0.179965	-5.9460001	3.5650001	0.13600001
63	1	6	0.088702999	-5.132	3.8870001	0.82300001
64	1	6	0.088702999	-5.6550002	3.849	-0.898
65	1	4	-0.141552	-7.243	4.2950001	0.50800002
66	1	6	0.086299002	-8.0279999	4.0630002	-0.245
67	1	6	0.086299002	-7.0599999	5.3920002	0.486
68	1	4	0.207082	-7.7220001	3.8870001	1.91
69	1	3	-0.68066502	-8.9960003	4.5430002	2.1960001
70	1	9	0.60496199	-9.1379995	5.3439999	3.174
71	1	2	-0.52566701	-9.276	6.1230001	4.1259999
72	1	5	0.029882999	-6.9499998	4.1950002	2.655
73	1	4	-0.141552	-7.9050002	2.3629999	1.994
74	1	6	0.086297996	-8.1929998	2.0829999	3.03
75	1	6	0.086297996	-8.7229996	2.0409999	1.312
76	1	4	-0.179965	-6.6110001	1.6289999	1.619
77	1	6	0.088702999	-5.823	1.86	2.3699999
78	1	6	0.088702999	-6.8000002	0.53500003	1.65
79	1	7	0.305363	-3.971	1.896	-0.1
80	1	8	-0.145843	-1.355	-4.48	-5.0770001
81	1	4	0.061087001	-0.156	-4.2449999	-5.7649999
82	1	4	-0.063221999	0.977	-3.9289999	-4.7690001
83	1	6	0.115134	0.89099997	-4.6430001	-3.918
84	1	4	-0.16207001	0.94599998	-2.4809999	-4.224
85	1	6	0.10954	0.73900002	-2.4849999	-3.131
86	1	6	0.10954	0.19	-1.837	-4.7249999
87	1	4	-0.104117	2.3829999	-1.987	-4.4889998
88	1	6	0.114294	2.691	-1.138	-3.8410001
89	1	4	-0.141248	3.1800001	-3.2609999	-4.2919998
90	1	6	0.103975	4.2620001	-3.148	-4.5159998
91	1	6	0.103975	3.076	-3.684	-3.2650001
92	1	4	-0.095215	2.415	-4.0430002	-5.342
93	1	6	0.125681	2.7620001	-5.0900002	-5.4790001
94	1	4	-0.070055999	2.575	-3.142	-6.5960002
95	1	6	0.120393	1.766	-3.2939999	-7.3410001
96	1	4	-0.164033	3.9230001	-3.29	-7.3119998
97	1	6	0.097021997	3.806	-3.8340001	-8.2740002
98	1	6	0.097021997	4.6630001	-3.8410001	-6.691
99	1	4	-0.17884	4.4159999	-1.872	-7.552
100	1	6	0.102724	5.526	-1.832	-7.5819998
101	1	6	0.102724	4.0120001	-1.511	-8.5249996
102	1	4	-0.10006	3.858	-1.04	-6.3969998
103	1	4	0.138546	3.6589999	0.43799999	-6.7740002
104	1	10	-0.68244201	4.895	1.054	-7.0219998
105	1	11	0.37274	5.132	0.852	-7.9640002
106	1	5	0.074133001	3.175	0.963	-5.9229999
107	1	5	0.074133001	2.984	0.537	-7.6560001
108	1	6	0.114869	4.5819998	-1.086	-5.552
109	1	4	-0.058871999	2.5320001	-1.724	-6.0089998
110	1	6	0.132173	1.66	-1.164	-6.4159999
111	1	5	0.090645999	0.105	-5.164	-6.3299999
112	1	5	0.090645999	-0.30000001	-3.421	-6.5

Bonds

1	1	1	2
2	2	1	3
3	3	1	57
4	4	3	4
5	5	3	24
6	6	4	5
7	7	4	6
8	7	4	21
9	6	6	7
10	6	6	8
11	7	6	9
12	6	9	10
13	6	9	11
14	7	9	12
15	4	12	13
16	6	12	17
17	7	12	18
18	2	13	14
19	5	13	16
20	1	14	15
21	8	14	25
22	6	18	19
23	6	18	20
24	7	18	21
25	6	21	22
26	6	21	23
27	9	25	26
28	7	26	27
29	6	26	55
30	6	26	56
31	6	27	28
32	7	27	29
33	7	27	37
34	6	29	30
35	6	29	31
36	7	29	32
37	6	32	33
38	7	32	34
39	7	32	53
40	6	34	35
41	6	34	36
42	7	34	37
43	6	37	38
44	7	37	39
45	6	39	40
46	7	39	41
47	7	39	53
48	6	41	42
49	6	41	43
50	7	41	44
51	6	44	45
52	6	44	46
53	7	44	47
54	7	47	48
55	6	47	52
56	7	47	53
57	9	48	49
58	6	48	50
59	6	48	51
60	10	49	80
61	6	53	54
62	1	57	58
63	2	57	59
64	4	59	60
65	5	59	79
66	6	60	61
67	7	60	62
68	7	60	76
69	6	62	63
70	6	62	64
71	7	62	65
72	6	65	66
73	6	65	67
74	7	65	68
75	11	68	69
76	6	68	72
77	7	68	73
78	12	69	70
79	1	70	71
80	6	73	74
81	6	73	75
82	7	73	76
83	6	76	77
84	6	76	78
85	9	80	81
86	7	81	82
87	6	81	111
88	6	81	112
89	6	82	83
90	7	82	84
91	7	82	92
92	6	84	85
93	6	84	86
94	7	84	87
95	6	87	88
96	7	87	89
97	7	87	109
98	6	89	90
99	6	89	91
100	7	89	92
101	6	92	93
102	7	92	94
103	6	94	95
104	7	94	96
105	7	94	109
106	6	96	97
107	6	96	98
108	7	96	99
109	6	99	100
110	6	99	101
111	7	99	102
112	7	102	103
113	6	102	108
114	7	102	109
115	13	103	104
116	6	103	106
117	6	103	107
118	14	104	105
119	6	109	110

Angles

1	4	26	27	29
2	5	7	6	8
3	4	28	27	29
4	4	40	39	53
5	4	41	44	46
6	4	43	41	44
7	4	60	62	63
8	4	31	29	32
9	4	47	48	49
10	4	96	99	101
11	4	32	34	36
12	4	84	87	109
13	5	10	9	11
14	4	87	89	91
15	4	61	60	76
16	3	13	14	15
17	2	60	59	79
18	3	2	1	57
19	4	85	84	87
20	4	84	87	89
21	5	97	96	98
22	4	92	94	95
23	4	39	41	44
24	4	89	87	109
25	4	103	102	109
26	4	73	76	78
27	4	80	81	82
28	4	102	109	110
29	4	60	62	64
30	4	95	94	109
31	4	26	27	37
32	4	96	99	102
33	4	94	96	98
34	4	29	27	37
35	4	28	27	37
36	4	25	26	27
37	4	87	89	92
38	4	19	18	21
39	4	102	103	107
40	4	62	65	68
41	5	74	73	75
42	1	12	13	14
43	4	104	103	107
44	4	6	4	21
45	4	83	82	92
46	4	89	92	93
47	3	1	57	58
48	4	13	12	18
49	4	6	9	10
50	2	4	3	24
51	4	4	21	23
52	4	68	73	76
53	4	44	47	53
54	4	52	47	53
55	5	35	34	36
56	4	60	76	77
57	4	47	53	54
58	4	65	68	73
59	4	108	102	109
60	2	14	13	16
61	4	25	26	55
62	6	49	80	81
63	4	18	21	23
64	4	99	102	103
65	4	69	68	72
66	4	3	4	6
67	4	49	48	50
68	4	89	92	94
69	5	100	99	101
70	4	68	73	74
71	4	29	32	53
72	3	2	1	3
73	4	83	82	84
74	4	65	68	69
75	5	42	41	43
76	4	80	81	111
77	4	61	60	62
78	4	37	39	40
79	5	55	26	56
80	5	30	29	31
81	4	29	32	33
82	4	102	103	104
83	4	9	12	13
84	4	35	34	37
85	4	60	76	78
86	4	62	60	76
87	4	48	47	53
88	4	7	6	9
89	4	12	18	19
90	4	32	53	54
91	6	14	25	26
92	4	59	60	76
93	4	82	92	93
94	4	41	44	47
95	1	1	3	4
96	4	69	68	73
97	4	47	48	50
98	5	63	62	64
99	4	32	34	37
100	4	5	4	21
101	5	22	21	23
102	4	82	84	85
103	4	10	9	12
104	4	82	92	89
105	4	37	39	41
106	4	30	29	32
107	4	29	32	34
108	4	27	29	30
109	4	97	96	99
110	4	92	94	96
111	4	12	18	20
112	4	34	32	53
113	4	39	53	54
114	4	4	6	7
115	4	20	18	21
116	4	60	62	65
117	4	47	48	51
118	4	27	26	55
119	4	94	96	99
120	4	6	9	11
121	4	37	39	53
122	4	94	109	102
123	4	59	60	61
124	5	45	44	46
125	4	9	12	17
126	4	8	6	9
127	7	15	14	25
128	3	1	57	59
129	5	50	48	51
130	4	87	109	102
131	4	32	53	47
132	6	103	104	105
133	4	99	102	108
134	4	4	6	8
135	4	72	68	73
136	5	77	76	78
137	5	90	89	91
138	4	93	92	94
139	4	6	9	12
140	2	1	3	24
141	4	27	37	38
142	4	39	41	42
143	9	69	70	71
144	4	67	65	68
145	4	82	81	111
146	4	59	60	62
147	4	25	26	56
148	4	81	82	83
149	4	98	96	99
150	4	45	44	47
151	4	92	94	109
152	2	12	13	16
153	4	9	12	18
154	4	49	48	51
155	4	96	99	100
156	4	100	99	102
157	4	64	62	65
158	4	68	73	75
159	4	27	37	34
160	4	94	109	110
161	4	95	94	96
162	4	91	89	92
163	8	68	69	70
164	4	87	89	90
165	4	42	41	44
166	4	87	109	94
167	4	80	81	112
168	4	99	102	109
169	4	32	53	39
170	4	39	53	47
171	4	62	65	66
172	4	74	73	76
173	5	85	84	86
174	4	84	87	88
175	3	58	57	59
176	4	27	37	39
177	4	87	109	110
178	4	82	81	112
179	4	73	76	77
180	4	103	102	108
181	4	34	37	38
182	4	82	92	94
183	4	81	82	84
184	4	3	4	5
185	4	63	62	65
186	4	94	96	97
187	4	33	32	53
188	4	84	82	92
189	4	96	94	109
190	4	86	84	87
191	4	82	84	86
192	5	111	81	112
193	4	3	4	21
194	5	19	18	20
195	4	102	103	106
196	4	62	65	67
197	5	106	103	107
198	1	57	59	60
199	4	27	29	31
200	5	66	65	67
201	4	104	103	106
202	4	48	47	52
203	4	12	18	21
204	4	17	12	18
205	4	13	12	17
206	4	46	44	47
207	4	34	37	39
208	4	4	21	22
209	2	57	59	79
210	4	44	47	52
211	4	38	37	39
212	4	101	99	102
213	4	27	26	56
214	4	60	76	73
215	4	26	27	28
216	4	82	84	87
217	4	81	82	92
218	4	65	68	72
219	4	88	87	109
220	4	75	73	76
221	4	4	21	18
222	4	33	32	34
223	4	5	4	6
224	4	41	44	45
225	4	44	47	48
226	4	18	21	22
227	4	27	29	32
228	4	41	39	53
229	4	66	65	68
230	4	11	9	12
231	4	40	39	41
232	4	88	87	89
233	4	36	34	37
234	4	32	34	35
235	3	13	14	25
236	4	4	6	9
237	6	48	49	80
238	4	90	89	92
239	3	3	1	57
240	4	39	41	43

Dihedrals

1	19	33	32	53	54
2	19	28	27	26	56
3	19	67	65	68	72
4	16	87	109	94	92
4	17	87	109	94	92
4	18	87	109	94	92
5	16	6	4	21	18
5	17	6	4	21	18
5	18	6	4	21	18
6	16	39	53	47	48
6	17	39	53	47	48
6	18	39	53	47	48
7	15	29	32	34	36
8	16	89	92	94	96
8	17	89	92	94	96
8	18	89	92	94	96
9	15	31	29	32	53
10	16	44	41	39	53
10	17	44	41	39	53
10	18	44	41	39	53
11	15	84	82	81	111
12	19	31	29	32	33
13	19	97	96	99	101
14	23	49	80	81	82
15	19	61	60	62	63
16	15	83	82	84	87
17	15	62	60	76	78
18	16	37	39	53	47
18	17	37	39	53	47
18	18	37	39	53	47
19	15	4	6	9	11
20	15	92	94	96	98
21	15	33	32	53	47
22	15	29	27	37	38
23	15	39	53	47	52
24	16	65	68	73	76
24	17	65	68	73	76
24	18	65	68	73	76
25	15	9	12	18	20
26	19	88	87	89	90
27	15	66	65	68	73
28	16	39	41	44	47
28	17	39	41	44	47
28	18	39	41	44	47
29	15	8	6	9	12
30	19	107	103	102	108
31	19	42	41	44	46
32	19	106	103	102	108
33	16	92	94	109	102
33	17	92	94	109	102
33	18	92	94	109	102
34	16	81	82	92	89
34	17	81	82	92	89
34	18	81	82	92	89
35	19	93	92	94	95
36	19	52	47	53	54
37	16	89	87	109	102
37	17	89	87	109	102
37	18	89	87	109	102
38	14	67	65	68	69
39	19	63	62	65	66
40	11	2	1	3	24
40	12	2	1	3	24
41	14	13	12	18	21
42	15	29	27	26	56
43	15	92	82	81	111
44	16	37	34	32	53
44	17	37	34	32	53
44	18	37	34	32	53
45	15	32	34	37	38
46	23	51	48	49	80
47	9	2	1	3	4
47	10	2	1	3	4
48	15	64	62	65	68
49	19	40	39	41	43
50	16	94	96	99	102
50	17	94	96	99	102
50	18	94	96	99	102
51	19	11	9	12	17
52	14	3	4	21	23
53	15	68	73	76	78
54	15	27	37	39	40
55	15	41	39	53	54
56	15	84	87	109	110
57	15	26	27	37	38
58	28	49	48	47	52
58	29	49	48	47	52
59	15	81	82	92	93
60	16	32	53	39	37
60	17	32	53	39	37
60	18	32	53	39	37
61	16	81	82	84	87
61	17	81	82	84	87
61	18	81	82	84	87
62	19	72	68	73	74
63	19	28	27	26	55
64	15	86	84	87	109
65	15	90	89	87	109
66	15	46	44	47	53
67	15	26	27	29	30
68	15	29	32	34	35
69	15	86	84	87	89
70	15	64	62	60	76
71	15	43	41	44	47
72	14	10	9	12	13
73	15	5	4	6	9
74	15	65	68	73	75
75	3	9	12	13	14
75	4	9	12	13	14
75	5	9	12	13	14
75	6	9	12	13	14
76	19	97	96	99	100
77	9	58	57	59	60
77	10	58	57	59	60
78	16	27	37	39	53
78	17	27	37	39	53
78	18	27	37	39	53
79	15	62	60	76	77
80	15	44	47	48	51
81	14	59	60	62	65
82	15	28	27	37	34
83	15	87	109	94	95
84	15	92	94	96	97
85	7	1	57	59	79
85	8	1	57	59	79
86	16	82	84	87	89
86	17	82	84	87	89
86	18	82	84	87	89
87	15	90	89	92	94
88	14	6	9	12	13
89	16	37	39	41	44
89	17	37	39	41	44
89	18	37	39	41	44
90	16	84	82	92	89
90	17	84	82	92	89
90	18	84	82	92	89
91	19	66	65	68	72
92	14	3	4	6	8
93	19	33	32	34	36
94	15	39	41	44	46
95	15	83	82	92	89
96	19	5	4	21	23
97	16	41	44	47	48
97	17	41	44	47	48
97	18	41	44	47	48
98	16	9	6	4	21
98	17	9	6	4	21
98	18	9	6	4	21
99	23	14	25	26	56
100	19	108	102	109	110
101	15	6	9	12	17
102	15	103	102	109	110
103	16	92	89	87	109
103	17	92	89	87	109
103	18	92	89	87	109
104	3	1	3	4	6
104	4	1	3	4	6
104	5	1	3	4	6
104	6	1	3	4	6
105	16	39	53	47	44
105	17	39	53	47	44
105	18	39	53	47	44
106	15	84	82	92	93
107	16	27	29	32	53
107	17	27	29	32	53
107	18	27	29	32	53
108	15	29	27	26	55
109	19	64	62	65	67
110	15	99	102	103	106
111	15	27	29	32	33
112	19	40	39	41	42
113	16	96	99	102	109
113	17	96	99	102	109
113	18	96	99	102	109
114	16	32	53	47	48
114	17	32	53	47	48
114	18	32	53	47	48
115	15	94	96	99	101
116	15	82	92	89	91
117	19	95	94	96	97
118	14	3	4	21	22
119	19	7	6	9	10
120	15	61	60	76	73
121	16	34	37	39	41
121	17	34	37	39	41
121	18	34	37	39	41
122	15	81	82	84	86
123	15	35	34	37	39
124	16	29	27	37	34
124	17	29	27	37	34
124	18	29	27	37	34
125	28	25	26	27	28
125	29	25	26	27	28
126	19	46	44	47	52
127	19	43	41	44	46
128	23	49	80	81	111
129	1	21	4	3	24
129	2	21	4	3	24
130	14	66	65	68	69
131	15	101	99	102	103
132	20	13	14	25	26
133	19	5	4	6	8
134	15	32	53	47	52
135	16	82	92	94	96
135	17	82	92	94	96
135	18	82	92	94	96
136	14	80	81	82	84
137	15	44	47	48	50
138	15	7	6	4	21
139	16	84	87	109	102
139	17	84	87	109	102
139	18	84	87	109	102
140	16	34	32	53	39
140	17	34	32	53	39
140	18	34	32	53	39
141	14	59	60	62	64
142	15	12	18	21	22
143	16	29	32	53	39
143	17	29	32	53	39
143	18	29	32	53	39
144	15	32	53	39	40
145	15	36	34	37	39
146	16	89	92	94	109
146	17	89	92	94	109
146	18	89	92	94	109
147	15	37	39	41	43
148	15	84	87	89	90
149	15	85	84	87	109
150	14	3	4	6	7
151	19	19	18	21	23
152	19	33	32	34	35
153	15	85	84	87	89
154	15	51	48	47	53
155	14	11	9	12	13
156	19	5	4	21	22
157	19	61	60	76	77
158	15	7	6	9	12
159	1	6	4	3	24
159	2	6	4	3	24
160	14	69	68	73	76
161	7	4	3	1	57
161	8	4	3	1	57
162	16	26	27	37	34
162	17	26	27	37	34
162	18	26	27	37	34
163	13	3	1	57	58
164	19	38	37	39	40
165	19	50	48	47	52
166	14	59	60	76	78
167	16	65	62	60	76
167	17	65	62	60	76
167	18	65	62	60	76
168	16	62	60	76	73
168	17	62	60	76	73
168	18	62	60	76	73
169	19	28	27	29	31
170	19	17	12	18	20
171	15	88	87	109	102
172	15	4	21	18	20
173	15	88	87	89	92
174	14	104	103	102	109
175	16	96	94	109	102
175	17	96	94	109	102
175	18	96	94	109	102
176	26	15	14	25	26
176	27	15	14	25	26
177	19	75	73	76	78
178	15	96	99	102	108
179	19	74	73	76	78
180	15	60	62	65	66
181	15	38	37	39	53
182	19	91	89	92	93
183	7	16	13	14	25
183	8	16	13	14	25
184	15	28	27	37	39
185	15	4	6	9	10
186	3	14	13	12	18
186	4	14	13	12	18
186	5	14	13	12	18
186	6	14	13	12	18
187	16	87	109	102	99
187	17	87	109	102	99
187	18	87	109	102	99
188	19	35	34	37	38
189	15	36	34	32	53
190	15	35	34	32	53
191	15	8	6	4	21
192	15	63	62	65	68
193	15	89	92	94	95
194	15	45	44	47	53
195	19	43	41	44	45
196	24	15	14	13	16
196	25	15	14	13	16
197	15	43	41	39	53
198	19	5	4	6	7
199	31	65	68	69	70
200	15	37	27	26	56
201	16	62	65	68	73
201	17	62	65	68	73
201	18	62	65	68	73
202	28	80	81	82	83
202	29	80	81	82	83
203	19	83	82	84	86
204	16	41	39	53	47
204	17	41	39	53	47
204	18	41	39	53	47
205	16	94	109	102	99
205	17	94	109	102	99
205	18	94	109	102	99
206	14	59	60	62	63
207	32	68	69	70	71
208	16	87	109	102	103
208	17	87	109	102	103
208	18	87	109	102	103
209	16	82	84	87	109
209	17	82	84	87	109
209	18	82	84	87	109
210	14	69	68	73	75
211	1	61	60	59	79
211	2	61	60	59	79
212	16	26	27	29	32
212	17	26	27	29	32
212	18	26	27	29	32
213	16	29	32	34	37
213	17	29	32	34	37
213	18	29	32	34	37
214	15	9	12	18	19
215	15	98	96	99	102
216	15	31	29	32	34
217	15	97	96	99	102
218	16	32	53	47	44
218	17	32	53	47	44
218	18	32	53	47	44
219	19	51	48	47	52
220	19	8	6	9	11
221	16	82	92	89	87
221	17	82	92	89	87
221	18	82	92	89	87
222	14	3	4	21	18
223	19	42	41	44	45
224	19	7	6	9	11
225	15	42	41	39	53
226	15	30	29	32	34
227	15	72	68	73	76
228	16	94	109	102	103
228	17	94	109	102	103
228	18	94	109	102	103
229	19	28	27	29	30
230	15	89	87	109	110
231	19	17	12	18	19
232	15	6	4	21	23
233	15	33	32	53	39
234	16	87	89	92	94
234	17	87	89	92	94
234	18	87	89	92	94
235	15	100	99	102	103
236	16	87	84	82	92
236	17	87	84	82	92
236	18	87	84	82	92
237	15	46	44	47	48
238	15	4	21	18	19
239	14	13	12	18	20
240	15	86	84	82	92
241	19	75	73	76	77
242	13	2	1	57	59
243	15	60	76	73	75
244	1	76	60	59	79
244	2	76	60	59	79
245	15	68	73	76	77
246	15	107	103	102	109
247	1	14	13	12	17
247	2	14	13	12	17
248	7	24	3	1	57
248	8	24	3	1	57
249	19	95	94	109	110
250	19	20	18	21	23
251	16	99	96	94	109
251	17	99	96	94	109
251	18	99	96	94	109
252	14	25	26	27	37
253	16	89	87	109	94
253	17	89	87	109	94
253	18	89	87	109	94
254	35	105	104	103	107
255	15	88	87	109	94
256	19	86	84	87	88
257	19	45	44	47	52
258	16	4	21	18	12
258	17	4	21	18	12
258	18	4	21	18	12
259	15	40	39	41	44
260	15	65	68	73	74
261	33	102	103	104	105
261	34	102	103	104	105
262	15	62	65	68	72
263	15	30	29	27	37
264	15	95	94	96	99
265	16	60	76	73	68
265	17	60	76	73	68
265	18	60	76	73	68
266	15	5	4	21	18
267	19	83	82	84	85
268	15	27	37	34	36
269	14	49	48	47	53
270	16	81	82	92	94
270	17	81	82	92	94
270	18	81	82	92	94
271	14	69	68	73	74
272	19	72	68	73	75
273	15	82	84	87	88
274	19	90	89	92	93
275	15	100	99	102	109
276	11	58	57	59	79
276	12	58	57	59	79
277	15	26	27	29	31
278	16	82	92	94	109
278	17	82	92	94	109
278	18	82	92	94	109
279	19	98	96	99	101
280	7	1	57	59	60
280	8	1	57	59	60
281	1	1	3	4	5
281	2	1	3	4	5
282	15	98	96	94	109
283	1	16	13	12	18
283	2	16	13	12	18
284	15	97	96	94	109
285	15	61	60	62	65
286	1	62	60	59	79
286	2	62	60	59	79
287	15	39	41	44	45
288	3	57	59	60	76
288	4	57	59	60	76
288	5	57	59	60	76
288	6	57	59	60	76
289	15	30	29	32	53
290	19	30	29	32	33
291	23	14	25	26	55
292	16	87	109	94	96
292	17	87	109	94	96
292	18	87	109	94	96
293	15	6	4	21	22
294	15	87	89	92	93
295	15	10	9	12	18
296	14	13	12	18	19
297	16	84	87	89	92
297	17	84	87	89	92
297	18	84	87	89	92
298	15	101	99	102	109
299	14	3	4	6	9
300	19	64	62	65	66
301	15	33	32	34	37
302	15	94	96	99	100
303	13	2	1	57	58
304	15	60	76	73	74
305	14	62	65	68	69
306	15	82	92	89	90
307	31	70	69	68	73
308	15	34	32	53	54
309	15	29	32	53	54
310	3	57	59	60	62
310	4	57	59	60	62
310	5	57	59	60	62
310	6	57	59	60	62
311	15	87	109	102	108
312	15	34	37	39	40
313	15	81	82	84	85
314	19	20	18	21	22
315	16	6	9	12	18
315	17	6	9	12	18
315	18	6	9	12	18
316	14	59	60	76	73
317	15	99	102	109	110
318	35	105	104	103	106
319	16	84	82	92	94
319	17	84	82	92	94
319	18	84	82	92	94
320	7	12	13	14	25
320	8	12	13	14	25
321	19	40	39	53	54
322	19	83	82	81	112
323	15	99	102	103	107
324	16	27	29	32	34
324	17	27	29	32	34
324	18	27	29	32	34
325	15	82	92	94	95
326	14	80	81	82	92
327	15	83	82	92	94
328	19	95	94	96	98
329	15	85	84	82	92
330	23	47	48	49	80
331	16	41	44	47	53
331	17	41	44	47	53
331	18	41	44	47	53
332	14	44	47	48	49
333	16	60	62	65	68
333	17	60	62	65	68
333	18	60	62	65	68
334	15	94	109	102	108
335	16	34	32	53	47
335	17	34	32	53	47
335	18	34	32	53	47
336	15	27	37	34	35
337	16	29	32	53	47
337	17	29	32	53	47
337	18	29	32	53	47
338	16	34	37	39	53
338	17	34	37	39	53
338	18	34	37	39	53
339	15	63	62	60	76
340	19	36	34	37	38
341	15	67	65	68	73
342	15	95	94	109	102
343	19	100	99	102	108
344	14	25	26	27	29
345	15	37	39	41	42
346	23	49	80	81	112
347	15	40	39	53	47
348	19	98	96	99	100
349	15	84	82	81	112
350	1	9	12	13	16
350	2	9	12	13	16
351	19	19	18	21	22
352	1	16	13	12	17
352	2	16	13	12	17
353	16	96	99	102	103
353	17	96	99	102	103
353	18	96	99	102	103
354	19	85	84	87	88
355	15	44	47	53	54
356	19	61	60	62	64
357	15	92	94	109	110
358	16	4	6	9	12
358	17	4	6	9	12
358	18	4	6	9	12
359	15	12	18	21	23
360	16	84	87	109	94
360	17	84	87	109	94
360	18	84	87	109	94
361	14	59	60	76	77
362	16	32	53	39	41
362	17	32	53	39	41
362	18	32	53	39	41
363	16	92	94	96	99
363	17	92	94	96	99
363	18	92	94	96	99
364	7	12	13	14	15
364	8	12	13	14	15
365	19	88	87	109	110
366	16	29	27	37	39
366	17	29	27	37	39
366	18	29	27	37	39
367	15	48	47	53	54
368	19	10	9	12	17
369	16	9	12	18	21
369	17	9	12	18	21
369	18	9	12	18	21
370	19	88	87	89	91
371	15	45	44	47	48
372	15	84	87	89	91
373	15	96	94	109	110
374	28	104	103	102	108
374	29	104	103	102	108
375	19	101	99	102	108
376	14	99	102	103	104
377	19	74	73	76	77
378	31	70	69	68	72
379	19	61	60	76	78
380	15	42	41	44	47
381	15	106	103	102	109
382	30	48	49	80	81
383	15	91	89	87	109
384	16	27	37	34	32
384	17	27	37	34	32
384	18	27	37	34	32
385	13	3	1	57	59
386	15	38	37	39	41
387	15	50	48	47	53
388	19	28	27	37	38
389	1	57	59	60	61
389	2	57	59	60	61
390	15	28	27	29	32
391	15	93	92	94	96
392	15	17	12	18	21
393	19	63	62	65	67
394	21	14	25	26	27
394	22	14	25	26	27
395	3	1	3	4	21
395	4	1	3	4	21
395	5	1	3	4	21
395	6	1	3	4	21
396	15	92	82	81	112
397	16	32	34	37	39
397	17	32	34	37	39
397	18	32	34	37	39
398	19	83	82	81	111
399	16	32	29	27	37
399	17	32	29	27	37
399	18	32	29	27	37
400	15	37	27	26	55
401	15	31	29	27	37
402	19	83	82	92	93
403	15	11	9	12	18
404	23	50	48	49	80
405	16	27	37	39	41
405	17	27	37	39	41
405	18	27	37	39	41
406	19	8	6	9	10
407	15	41	44	47	52
408	15	60	62	65	67
409	15	37	39	53	54
410	16	26	27	37	39
410	17	26	27	37	39
410	18	26	27	37	39
411	15	91	89	92	94
412	1	5	4	3	24
412	2	5	4	3	24
413	15	93	92	94	109

Impropers

187	1	3	24	1	4
199	2	1	2	3	57
200	2	57	58	59	1
300	3	14	15	25	13
388	1	13	12	14	16
403	3	14	13	15	25
436	1	13	14	16	12
464	1	59	60	79	57
554	1	59	79	57	60
562	1	59	57	60	79
573	2	57	59	1	58
713	3	14	25	13	15
717	2	1	3	57	2
742	2	57	1	58	59
778	1	3	1	4	24
851	2	1	57	2	3
852	1	3	4	24	1
880	1	13	16	12	14
