Title

12875 atoms
12750 bonds
24125 angles
43500 dihedrals
1875 impropers

9 atom types
12 bond types
9 angle types
39 dihedral types
3 improper types
-13.22359872 129.3411494 xlo xhi
-13.33556637 131.5589754 ylo yhi
-13.44692588 131.7539821 zlo zhi
0.0 0.0 0.0 xy xz yz

Masses

1	14.00672
2	12.01078
3	1.007947
4	1.007947
5	1.007947
6	12.01078
7	15.99943
8	15.99943
9	1.007947


Pair Coeffs

1	0.16769152	3.206876
2	0.10884061	3.3795318
3	0.014090815	1.1034277
4	0.016409246	2.5832257
5	0.015779483	2.6445434
6	0.086879315	3.4806469
7	0.2102061	3.0398122
8	0.20947353	2.99716
9	1.2326e-05	0.53453923

Bond Coeffs

1 harmonic	366.34047229585	1.464762957261
2 harmonic	505.144496193	1.019481865027
3 harmonic	422.7150220147	1.421786517481
4 harmonic	264.62148576755	1.52190126495
5 harmonic	370.04670688625	1.093899492634
6 harmonic	352.0565580496	1.450098586273
7 harmonic	492.76746816345	1.381897776683
8 harmonic	582.698766451	1.225198386222
9 harmonic	329.44145381095	1.523435958334
10 harmonic	279.1350963404	1.454628925034
11 harmonic	385.7604595587	1.369745182308
12 harmonic	543.5267831885	0.9716763312559


Angle Coeffs

1 harmonic	53.20531626545	116.5475862634
2 harmonic	49.015990027215	114.8414599994
3 harmonic	94.53012429075	110.92021963
4 harmonic	63.44422595415	115.5071327674
5 harmonic	55.42182150775	117.3465570514
6 harmonic	57.8982893754	126.8062420451
7 harmonic	48.776492647595	115.6030999533
8 harmonic	65.09061609600001	110.3538806181
9 harmonic	201.41175231035	127.4691416191


Dihedral Coeffs

1 fourier 1	0.1155372516788	3	0
2 fourier 1	0.2036670163956	3	0
3 fourier 1	0.6761465733405	3	0
4 fourier 1	1.653011589151	2	0
5 fourier 1	1.713184811193	1	0
6 fourier 1	0.774151252041	3	0
7 fourier 1	1.087509576657	2	0
8 fourier 1	1.518874939494	1	0
9 fourier 1	0.09223874044423	3	0
10 fourier 1	0.3159935921949	2	180
11 fourier 1	0.3247796806857	1	180
12 fourier 1	0.1040663847541	3	0
13 fourier 1	0.182238503271	2	0
14 fourier 1	0.02972342374561	3	0
15 fourier 1	-0.1488678166443	4	180
16 fourier 1	-0.1230328948768	3	180
17 fourier 1	0.2939295466901	2	0
18 fourier 1	-0.3024127022865	1	0
19 fourier 1	3.101948770557	2	180
20 fourier 1	-0.4252153282372	1	0
21 fourier 1	1.809047390003	2	180
22 fourier 1	-0.04816277792592	1	0
23 fourier 1	-0.04561822763521	4	0
24 fourier 1	0.1536091026885	2	0
25 fourier 1	0.02664938770063	3	0
26 fourier 1	2.348375642009	2	180
27 fourier 1	1.256156174911	1	0
28 fourier 1	0.1911926717192	3	0
29 fourier 1	0.3917343745784	3	0
30 fourier 1	0.9467782973395	2	0
31 fourier 1	0.2726597146827	1	0
32 fourier 1	-0.3703352413219	2	0
33 fourier 1	0.4541676554336	1	0
34 fourier 1	0.1489710476446	2	0
35 fourier 1	0.02960027280666	3	180
36 fourier 1	0.9974165607242	2	180
37 fourier 1	2.687457892086	2	180
38 fourier 1	2.772607909663	2	180
39 fourier 1	0.09692684957115	1	0


Improper Coeffs

1 0.3333333333333333	-1	2
2 0.3666666666666667	-1	2
3 3.5	-1	2


Atoms

1	5	1	-0.63803828	-7.1760556	-0.84653843	5.9599883
2	5	2	0.031042303	-7.2531162	-0.5399432	4.5318427
3	5	2	-0.15577152	-6.6171497	0.81733153	4.1851252
4	5	2	-0.14437048	-5.0915509	0.81722476	4.3614411
5	5	2	-0.14439651	-4.4815207	2.1364375	3.8719701
6	5	2	-0.14578492	-2.9602195	2.1425517	4.0592326
7	5	2	0.015368888	-2.3488338	3.4577791	3.5686305
8	5	1	-0.4904722	-0.90457593	3.4503398	3.7767408
9	5	3	0.31757224	-0.48197936	2.7628489	3.1107871
10	5	4	0.048393905	-2.7935041	4.3044445	4.1361911
11	5	4	0.048393905	-2.5724488	3.6018857	2.486982
12	5	5	0.08292336	-2.5143314	1.2967847	3.4890818
13	5	5	0.08292336	-2.7171497	2.0081937	5.1360362
14	5	5	0.081868261	-4.9262102	2.9808599	4.4429902
15	5	5	0.081868261	-4.7198386	2.2742573	2.7939685
16	5	5	0.083357505	-4.8401903	0.68282482	5.435951
17	5	5	0.083357505	-4.6523671	-0.026750472	3.7848994
18	5	5	0.08849664	-6.8570564	1.0462607	3.1236935
19	5	5	0.08849664	-7.0693094	1.6167838	4.8119296
20	5	4	0.089180603	-6.7660657	-1.3512883	3.9489722
21	5	4	0.089180603	-8.3233204	-0.51496005	4.2354312
22	5	3	0.36032075	-6.1811381	-1.0361269	6.2183472
23	6	6	0.72573346	-0.53173326	4.4091073	3.4985641
24	6	7	-0.74257582	-1.1299742	5.4083133	3.8626905
25	6	2	-0.18158782	0.71127416	4.5408066	2.6693332
26	6	2	-0.12107338	1.304288	3.1643866	2.3363729
27	6	2	-0.13676514	2.6418423	3.2605043	1.5840305
28	6	2	-0.14132066	2.4615383	3.6504081	0.10728967
29	6	2	-0.14132066	3.7996612	3.8486038	-0.62829682
30	6	2	-0.13864029	4.6936145	2.5968924	-0.70935389
31	6	2	-0.096989096	4.0299137	1.4333575	-1.4604496
32	6	2	-0.25743312	5.0230023	0.2865085	-1.6816675
33	6	6	0.51743621	4.3771933	-0.86085808	-2.4002138
34	6	7	-0.68350077	5.0261804	-1.8612946	-2.6567516
35	6	5	0.11415791	5.8828662	0.64774323	-2.285582
36	6	5	0.11415791	5.4019372	-0.072612765	-0.70040544
37	6	5	0.077532224	3.1713623	1.0504662	-0.86883432
38	6	5	0.077532224	3.6573194	1.7910274	-2.4457971
39	6	5	0.07924351	5.6246884	2.88571	-1.245071
40	6	5	0.07924351	4.9953358	2.2715708	0.30871392
41	6	5	0.081119	3.5855812	4.2012359	-1.660547
42	6	5	0.081119	4.3699462	4.6584257	-0.12294006
43	6	5	0.081119	1.8436344	2.8895408	-0.41544149
44	6	5	0.081119	1.9103704	4.6107552	0.044990135
45	6	5	0.07924351	3.3119657	3.9869699	2.0942857
46	6	5	0.07924351	3.1230468	2.2609398	1.6361256
47	6	5	0.085312031	1.4847966	2.6168682	3.2883342
48	6	5	0.085312031	0.57662468	2.5701386	1.7395343
49	6	5	0.11714982	1.4547896	5.1423144	3.2348348
50	6	5	0.11714982	0.45107071	5.0828082	1.7359001
51	2	1	-0.63803834	-7.5053242	-0.0214898	6.5121495
52	2	2	0.0310423	-6.5889053	0.21697965	7.6259909
53	2	2	-0.15577151	-5.1146544	0.23125299	7.1843921
54	2	2	-0.144447	-4.7725047	1.4454781	6.3105935
55	2	2	-0.14308427	-3.269033	1.4996574	6.0100715
56	2	2	-0.15725474	-2.9266622	2.7052407	5.1272027
57	2	2	0.028096545	-1.4261301	2.7622514	4.828211
58	2	1	-0.97526234	-1.1273795	3.9022659	3.9684942
59	2	3	0.38025123	-0.11096566	3.8596392	3.7250711
60	2	3	0.38025123	-1.2616644	4.77729	4.5269647
61	2	4	0.077263578	-1.1175208	1.8268932	4.3110782
62	2	4	0.077263578	-0.85137898	2.8465061	5.7788994
63	2	5	0.089367561	-3.2322962	3.6416575	5.6441712
64	2	5	0.089367561	-3.4853212	2.6338404	4.1673052
65	2	5	0.083357505	-2.9644811	0.56412122	5.4913556
66	2	5	0.083357505	-2.7052725	1.5731278	6.9661364
67	2	5	0.083357505	-5.327458	1.3823103	5.3491167
68	2	5	0.083357505	-5.0755109	2.3776823	6.8358293
69	2	5	0.08849664	-4.4842213	0.2566369	8.1006894
70	2	5	0.08849664	-4.8767777	-0.70729084	6.6379205
71	2	4	0.089180618	-6.8480925	1.1767607	8.1242562
72	2	4	0.089180618	-6.7269689	-0.59273103	8.3746939
73	2	3	0.36032072	-7.5086328	0.81200378	5.8824309
74	3	6	0.51743627	3.3343401	-0.81653265	-2.697519
75	3	7	-0.68350071	2.4832483	-1.328947	-1.9898126
76	3	2	-0.25743315	2.9469441	-0.11156042	-3.9650668
77	3	2	-0.096989096	2.3333601	-1.0708269	-4.9939047
78	3	2	-0.13864029	3.3589196	-2.0824746	-5.5270461
79	3	2	-0.14132066	2.7318691	-2.997195	-6.5857554
80	3	2	-0.14132066	3.7540866	-4.0174156	-7.1068412
81	3	2	-0.1359809	3.2084038	-4.8658226	-8.2672109
82	3	2	-0.11277118	2.1555864	-5.8886818	-7.8062894
83	3	2	-0.21844158	1.6757073	-6.7827306	-8.9577311
84	3	6	0.82438195	2.743615	-7.7330343	-9.4060636
85	3	7	-0.55374694	3.3711327	-7.5196554	-10.4774
86	3	8	-0.6648984	3.0596021	-8.8386777	-8.6229839
87	3	9	0.39492887	3.7869695	-9.4844801	-8.9061338
88	3	5	0.11850653	0.80257046	-7.3762939	-8.6120438
89	3	5	0.11850653	1.3359246	-6.1557785	-9.8110919
90	3	5	0.086337372	2.5680623	-6.5206491	-6.9895967
91	3	5	0.086337372	1.2703305	-5.3516427	-7.4069338
92	3	5	0.07924351	2.776978	-4.2024688	-9.0483399
93	3	5	0.07924351	4.0660676	-5.4066183	-8.7217622
94	3	5	0.081119	4.0848763	-4.6806431	-6.278783
95	3	5	0.081119	4.6490767	-3.4692191	-7.4769064
96	3	5	0.081119	1.868338	-3.5301168	-6.1319047
97	3	5	0.081119	2.3610351	-2.3773736	-7.4326382
98	3	5	0.07924351	3.7379516	-2.7056982	-4.6875266
99	3	5	0.07924351	4.2167193	-1.5343967	-5.97486
100	3	5	0.077532224	1.4715508	-1.6074786	-4.5389941
101	3	5	0.077532224	1.9460345	-0.46740962	-5.8434207
102	3	5	0.11415791	3.8422216	0.38408429	-4.4007082
103	3	5	0.11415791	2.2087936	0.68142226	-3.7200967
104	5	1	-0.63803828	7.2665669	5.8758637	27.737446
105	5	2	0.031042303	6.4327565	5.3893367	28.83635
106	5	2	-0.15577152	4.9772363	5.8766941	28.732405
107	5	2	-0.14437048	4.2269263	5.2484722	27.548804
108	5	2	-0.14439651	2.7459961	5.6468291	27.562897
109	5	2	-0.14578492	1.9987568	5.0307511	26.374813
110	5	2	0.015368888	0.51934693	5.425041	26.388523
111	5	1	-0.4904722	-0.16674637	4.8464698	25.237968
112	5	3	0.31757224	-0.2255939	3.8114107	25.37909
113	5	4	0.048393905	0.43346722	6.5328809	26.34364
114	5	4	0.048393905	0.039502136	5.0717175	27.32961
115	5	5	0.08292336	2.0821446	3.9216324	26.420771
116	5	5	0.08292336	2.4589368	5.3793299	25.424357
117	5	5	0.081868261	2.6632964	6.7548754	27.515398
118	5	5	0.081868261	2.2802514	5.297854	28.511146
119	5	5	0.083357505	4.681551	5.5919193	26.594248
120	5	5	0.083357505	4.3097582	4.1404754	27.604112
121	5	5	0.08849664	4.456398	5.6020058	29.675736
122	5	5	0.08849664	4.9558673	6.9851725	28.647111
123	5	4	0.089180603	6.463758	4.2787303	28.865149
124	5	4	0.089180603	6.8616717	5.758118	29.792307
125	5	3	0.36032075	6.9760551	5.405526	26.85035
126	6	6	0.72573346	-1.1686545	5.2095093	25.241358
127	6	7	-0.74257582	-1.3715761	6.3929033	25.458831
128	6	2	-0.18158782	-2.3227918	4.2865251	24.984253
129	6	2	-0.12107338	-1.8391065	2.8529284	24.723659
130	6	2	-0.13676514	-2.9843336	1.8998988	24.34353
131	6	2	-0.14132066	-3.8425379	1.4962236	25.554244
132	6	2	-0.14132066	-5.0516102	0.6243772	25.168278
133	6	2	-0.13864029	-4.7024529	-0.73152963	24.52632
134	6	2	-0.096989096	-3.8757694	-1.6376311	25.450458
135	6	2	-0.25743312	-3.7188643	-3.0383279	24.847255
136	6	6	0.51743621	-2.8981514	-3.9244486	25.736664
137	6	7	-0.68350077	-2.6721995	-5.0768056	25.406682
138	6	5	0.11415791	-4.719961	-3.5000069	24.708594
139	6	5	0.11415791	-3.2200624	-2.9636331	23.856774
140	6	5	0.077532224	-2.8659604	-1.1983911	25.595645
141	6	5	0.077532224	-4.3789087	-1.7184723	26.439387
142	6	5	0.07924351	-5.6602096	-1.2430106	24.284667
143	6	5	0.07924351	-4.1680931	-0.57721387	23.565082
144	6	5	0.081119	-5.6594169	0.44082025	26.080746
145	6	5	0.081119	-5.6941423	1.1948771	24.462513
146	6	5	0.081119	-3.2162774	0.97405863	26.30864
147	6	5	0.081119	-4.2415646	2.408345	26.042861
148	6	5	0.07924351	-3.620827	2.3664347	23.559694
149	6	5	0.07924351	-2.524484	0.9875331	23.908181
150	6	5	0.085312031	-1.1140669	2.8717425	23.87953
151	6	5	0.085312031	-1.3036964	2.462822	25.618083
152	6	5	0.11714982	-2.8864376	4.6580598	24.101822
153	6	5	0.11714982	-2.9919272	4.3109926	25.869932
154	2	1	-0.63803834	7.1257098	6.9058636	27.622275
155	2	2	0.0310423	6.9753906	7.2217497	26.202784
156	2	2	-0.15577151	5.9567482	6.3072203	25.499483
157	2	2	-0.144447	4.5171857	6.5576023	25.968419
158	2	2	-0.14308427	3.520097	5.7309676	25.146126
159	2	2	-0.15725474	2.0822475	5.9703775	25.620866
160	2	2	0.028096545	1.0854934	5.1479419	24.799694
161	2	1	-0.97526234	-0.27204051	5.3732158	25.283792
162	2	3	0.38025123	-0.90941197	4.7369892	24.751681
163	2	3	0.38025123	-0.55122666	6.3501291	25.032228
164	2	4	0.077263578	1.3308958	4.0672523	24.896897
165	2	4	0.077263578	1.1536449	5.4303946	23.724137
166	2	5	0.089367561	1.8344069	7.0503328	25.521788
167	2	5	0.089367561	1.992074	5.6847145	26.692718
168	2	5	0.083357505	3.767103	4.6512432	25.247266
169	2	5	0.083357505	3.6042664	6.0137099	24.073626
170	2	5	0.083357505	4.4185092	6.2752388	27.039369
171	2	5	0.083357505	4.2746847	7.6376074	25.86131
172	2	5	0.08849664	6.0197156	6.503594	24.406247
173	2	5	0.08849664	6.2293605	5.2423964	25.666557
174	2	4	0.089180618	6.6772326	8.2867372	26.086468
175	2	4	0.089180618	7.9631417	7.0984576	25.70842
176	2	3	0.36032072	6.2535809	7.1745648	28.130663
177	3	6	0.51743627	-2.4980778	-3.5552481	26.675563
178	3	7	-0.68350071	-1.3480818	-3.1515741	26.723839
179	3	2	-0.25743315	-3.3664743	-3.5280767	27.899853
180	3	2	-0.096989096	-2.8384846	-4.4564186	29.001939
181	3	2	-0.13864029	-2.9382448	-5.9380017	28.608999
182	3	2	-0.14132066	-2.4478646	-6.8437493	29.744745
183	3	2	-0.14132066	-2.5342285	-8.3236075	29.344907
184	3	2	-0.1359809	-2.1816465	-9.2732513	30.501577
185	3	2	-0.11277118	-0.67943794	-9.2663345	30.833896
186	3	2	-0.21844158	-0.32672984	-10.274915	31.935616
187	3	6	0.82438195	-0.45314024	-11.688727	31.456386
188	3	7	-0.55374694	-1.4408074	-12.388834	31.80486
189	3	8	-0.6648984	0.50959517	-12.219282	30.603648
190	3	9	0.39492887	0.43276633	-13.169674	30.261376
191	3	5	0.11850653	0.72423819	-10.106614	32.253933
192	3	5	0.11850653	-0.97469815	-10.110793	32.824406
193	3	5	0.086337372	-0.084603402	-9.4873579	29.920755
194	3	5	0.086337372	-0.38668656	-8.2586526	31.195071
195	3	5	0.07924351	-2.7715906	-9.0024565	31.404331
196	3	5	0.07924351	-2.4822984	-10.299248	30.198918
197	3	5	0.081119	-1.8677414	-8.5224765	28.478179
198	3	5	0.081119	-3.576723	-8.547207	29.026029
199	3	5	0.081119	-1.3943774	-6.5806079	29.982638
200	3	5	0.081119	-3.0709152	-6.6666989	30.649934
201	3	5	0.07924351	-2.3207007	-6.1251667	27.703198
202	3	5	0.07924351	-3.9963952	-6.1845035	28.371719
203	3	5	0.077532224	-1.7828401	-4.1961975	29.237638
204	3	5	0.077532224	-3.4423028	-4.2846471	29.919386
205	3	5	0.11415791	-4.4028026	-3.8233091	27.62448
206	3	5	0.11415791	-3.4042549	-2.4875199	28.286521
207	5	1	-0.63803828	-4.2336119	-0.15456302	62.555783
208	5	2	0.031042303	-4.6814603	0.55588852	61.35819
209	5	2	-0.15577152	-3.7118117	1.6743657	60.939082
210	5	2	-0.14437048	-2.3707746	1.1314146	60.423948
211	5	2	-0.14439651	-1.4895486	2.2648076	59.884595
212	5	2	-0.14578492	-0.14563374	1.7257207	59.381862
213	5	2	0.015368888	0.73467788	2.8554048	58.840409
214	5	1	-0.4904722	2.0158923	2.322985	58.388453
215	5	3	0.31757224	1.8481748	1.7571134	57.524516
216	5	4	0.048393905	0.91451958	3.6001737	59.646434
217	5	4	0.048393905	0.22064959	3.367339	57.995168
218	5	5	0.08292336	-0.325009	0.9821112	58.57311
219	5	5	0.08292336	0.38699043	1.2176898	60.215443
220	5	5	0.081868261	-1.3094142	3.0065684	60.693424
221	5	5	0.081868261	-2.0171894	2.7747709	59.048288
222	5	5	0.083357505	-1.8320409	0.62132706	61.251833
223	5	5	0.083357505	-2.5573084	0.3934154	59.61269
224	5	5	0.08849664	-4.1972331	2.2622884	60.129567
225	5	5	0.08849664	-3.536593	2.3619931	61.795191
226	5	4	0.089180603	-4.8166734	-0.16630996	60.524293
227	5	4	0.089180603	-5.6735796	1.0087034	61.56909
228	5	3	0.36032075	-3.3861466	-0.72067743	62.323682
229	6	6	0.72573346	2.6249629	3.1472489	58.096475
230	6	7	-0.74257582	2.6665166	4.1374505	58.80828
231	6	2	-0.18158782	3.4246539	3.1023749	56.828202
232	6	2	-0.12107338	3.2340353	1.7646408	56.099372
233	6	2	-0.13676514	4.1256926	1.6351349	54.853385
234	6	2	-0.14132066	3.6084088	2.467978	53.668443
235	6	2	-0.14132066	4.5486903	2.4255771	52.449831
236	6	2	-0.13864029	4.7516516	1.0310822	51.827983
237	6	2	-0.096989096	3.446811	0.41072664	51.3074
238	6	2	-0.25743312	3.726096	-0.88102402	50.530351
239	6	6	0.51743621	2.4545455	-1.5018896	50.032844
240	6	7	-0.68350077	2.4934135	-2.54039	49.394193
241	6	5	0.11415791	4.3800588	-0.65970183	49.659766
242	6	5	0.11415791	4.2455902	-1.6083062	51.191124
243	6	5	0.077532224	2.7806105	0.17296616	52.163771
244	6	5	0.077532224	2.9305706	1.1358232	50.640021
245	6	5	0.07924351	5.4597108	1.1445628	50.977641
246	6	5	0.07924351	5.2335607	0.34867039	52.5597
247	6	5	0.081119	4.146423	3.1084032	51.670312
248	6	5	0.081119	5.5414186	2.8273629	52.748964
249	6	5	0.081119	2.5898038	2.1306993	53.380938
250	6	5	0.081119	3.5210893	3.5300524	53.975537
251	6	5	0.07924351	5.1693817	1.9280989	55.10251
252	6	5	0.07924351	4.1345549	0.56318335	54.56314
253	6	5	0.085312031	3.4990083	0.93983085	56.797991
254	6	5	0.085312031	2.1658391	1.6343195	55.815094
255	6	5	0.11714982	4.4979404	3.2431038	57.078543
256	6	5	0.11714982	3.0972506	3.9426222	56.180467
257	2	1	-0.63803834	-3.9715158	0.5378709	63.294597
258	2	2	0.0310423	-2.7075422	0.13825794	63.91105
259	2	2	-0.15577151	-1.6242156	-0.19818949	62.870937
260	2	2	-0.144447	-1.1480105	1.0370097	62.094763
261	2	2	-0.14308427	0.026653304	0.68673016	61.172188
262	2	2	-0.15725474	0.49623542	1.9166595	60.386776
263	2	2	0.028096545	1.6701525	1.5694447	59.467209
264	2	1	-0.97526234	2.0843726	2.7476702	58.713416
265	2	3	0.38025123	2.8313865	2.4508971	58.044039
266	2	3	0.38025123	2.5327194	3.4204537	59.378199
267	2	4	0.077263578	1.3576904	0.77413369	58.754882
268	2	4	0.077263578	2.5259255	1.1877023	60.069846
269	2	5	0.089367561	0.81156879	2.7120123	61.097778
270	2	5	0.089367561	-0.34403427	2.307442	59.770467
271	2	5	0.083357505	-0.28984678	-0.10697854	60.460219
272	2	5	0.083357505	0.87068369	0.29726625	61.783101
273	2	5	0.083357505	-1.982339	1.4344754	61.476445
274	2	5	0.083357505	-0.8292638	1.8253465	62.811433
275	2	5	0.08849664	-0.75839014	-0.64116215	63.411133
276	2	5	0.08849664	-2.007728	-0.96514447	62.163279
277	2	4	0.089180618	-2.3503235	0.94505453	64.587881
278	2	4	0.089180618	-2.8903424	-0.76205903	64.53656
279	2	3	0.36032072	-3.854847	1.4711936	62.840103
280	3	6	0.51743627	1.493011	-1.0401967	50.233316
281	3	7	-0.68350071	0.82101006	-1.4304569	51.173468
282	3	2	-0.25743315	1.0070663	0.083803886	49.364858
283	3	2	-0.096989096	-0.27058124	-0.2889103	48.600734
284	3	2	-0.13864029	-0.019620682	-1.3798428	47.548912
285	3	2	-0.14132066	-1.3008157	-1.6994702	46.769715
286	3	2	-0.14132066	-1.0518916	-2.8005105	45.729015
287	3	2	-0.1359809	-2.2738248	-3.0574613	44.831865
288	3	2	-0.11277118	-3.4137925	-3.7724283	45.577794
289	3	2	-0.21844158	-4.5962615	-4.0943475	44.653911
290	3	6	0.82438195	-4.2542014	-5.1678949	43.666492
291	3	7	-0.55374694	-4.022866	-4.8711104	42.464214
292	3	8	-0.6648984	-4.166569	-6.4915622	44.085699
293	3	9	0.39492887	-3.9250501	-7.2278131	43.433088
294	3	5	0.11850653	-5.4495134	-4.4470239	45.271783
295	3	5	0.11850653	-4.9266547	-3.1747126	44.123008
296	3	5	0.086337372	-3.0376622	-4.7095468	46.043456
297	3	5	0.086337372	-3.7910224	-3.1166187	46.389697
298	3	5	0.07924351	-2.6401681	-2.0960972	44.410083
299	3	5	0.07924351	-1.9409711	-3.6919478	43.982572
300	3	5	0.081119	-0.75305121	-3.7427217	46.236859
301	3	5	0.081119	-0.20777505	-2.4888319	45.074188
302	3	5	0.081119	-2.0823504	-2.0315165	47.487086
303	3	5	0.081119	-1.6578556	-0.77810202	46.257357
304	3	5	0.07924351	0.34025305	-2.3048172	48.050688
305	3	5	0.07924351	0.76552836	-1.0340029	46.841323
306	3	5	0.077532224	-1.0518357	-0.62518066	49.317823
307	3	5	0.077532224	-0.64915377	0.62373577	48.091253
308	3	5	0.11415791	1.8063018	0.36676118	48.645048
309	3	5	0.11415791	0.80367615	0.96724384	50.006624
310	5	1	-0.63803828	2.145374	0.67411109	72.210248
311	5	2	0.031042303	2.3669036	-0.48029805	73.080767
312	5	2	-0.15577152	3.3840386	-0.18970009	74.197839
313	5	2	-0.14437048	2.8527623	0.81050594	75.235082
314	5	2	-0.14439651	3.8344591	0.96459242	76.40323
315	5	2	-0.14578492	3.3112148	1.9722576	77.432933
316	5	2	0.015368888	4.2886408	2.1255563	78.601455
317	5	1	-0.4904722	3.7814951	3.1047227	79.557113
318	5	3	0.31757224	2.9474	2.6925466	80.035781
319	5	4	0.048393905	5.2726827	2.470634	78.215085
320	5	4	0.048393905	4.4330371	1.1444485	79.108714
321	5	5	0.08292336	2.3274112	1.6259029	77.822008
322	5	5	0.08292336	3.168679	2.9619039	76.946184
323	5	5	0.081868261	4.8166386	1.3121135	76.01411
324	5	5	0.081868261	3.978456	-0.022808999	76.895348
325	5	5	0.083357505	2.7070918	1.8029407	74.755843
326	5	5	0.083357505	1.8726028	0.45547919	75.623438
327	5	5	0.08849664	3.6146179	-1.1501167	74.708754
328	5	5	0.08849664	4.330527	0.19180228	73.75617
329	5	4	0.089180603	1.3997413	-0.8084077	73.519149
330	5	4	0.089180603	2.7517211	-1.3182508	72.461436
331	5	3	0.36032075	1.6314013	1.4128134	72.741948
332	6	6	0.72573346	4.5250214	3.2400733	80.308431
333	6	7	-0.74257582	5.6928366	3.3578369	79.974915
334	6	2	-0.18158782	4.1525333	3.2858871	81.760736
335	6	2	-0.12107338	2.6368545	3.1307809	81.949733
336	6	2	-0.13676514	2.2025078	3.2865101	83.416498
337	6	2	-0.14132066	2.535308	2.0478292	84.265151
338	6	2	-0.14132066	2.1970159	2.2336427	85.75578
339	6	2	-0.13864029	0.70678805	2.4718854	86.063944
340	6	2	-0.096989096	-0.19036516	1.3049533	85.625946
341	6	2	-0.25743312	-1.6270737	1.5016779	86.123533
342	6	6	0.51743621	-2.5134223	0.37378673	85.685269
343	6	7	-0.68350077	-3.6935182	0.37169853	85.993876
344	6	5	0.11415791	-1.6348152	1.5515404	87.233498
345	6	5	0.11415791	-2.0336367	2.4544911	85.720682
346	6	5	0.077532224	-0.20407371	1.242413	84.517061
347	6	5	0.077532224	0.21232737	0.35215504	86.035431
348	6	5	0.07924351	0.61058175	2.6056649	87.164014
349	6	5	0.07924351	0.36156252	3.416558	85.593046
350	6	5	0.081119	2.53563	1.3310126	86.309241
351	6	5	0.081119	2.7817888	3.0925628	86.151657
352	6	5	0.081119	2.011999	1.1557992	83.859686
353	6	5	0.081119	3.6227552	1.8396289	84.20155
354	6	5	0.07924351	2.674369	4.1922999	83.857032
355	6	5	0.07924351	1.1027167	3.4409121	83.42102
356	6	5	0.085312031	2.123303	3.9185061	81.354465
357	6	5	0.085312031	2.3031753	2.1432906	81.559397
358	6	5	0.11714982	4.4853315	4.2579864	82.18345
359	6	5	0.11714982	4.6904707	2.4675622	82.283934
360	2	1	-0.63803834	3.0672335	1.0680933	71.91199
361	2	2	0.0310423	3.0352682	2.5251087	72.027828
362	2	2	-0.15577151	2.4959618	2.9969989	73.389848
363	2	2	-0.144447	3.4503327	2.6719019	74.546749
364	2	2	-0.14308427	2.9469083	3.2810792	75.861718
365	2	2	-0.15725474	3.8925599	2.9473734	77.021239
366	2	2	0.028096545	3.3929192	3.5565902	78.334044
367	2	1	-0.97526234	4.2944316	3.206799	79.426253
368	2	3	0.38025123	3.877609	3.5733956	80.312839
369	2	3	0.38025123	5.1939586	3.723354	79.286213
370	2	4	0.077263578	2.3778009	3.1619829	78.560717
371	2	4	0.077263578	3.3281755	4.6647703	78.239222
372	2	5	0.089367561	4.9075968	3.3436863	76.797227
373	2	5	0.089367561	3.9629755	1.8427906	77.137599
374	2	5	0.083357505	1.9329651	2.8828789	76.086221
375	2	5	0.083357505	2.8763627	4.3857436	75.752064
376	2	5	0.083357505	3.5270053	1.5694218	74.669467
377	2	5	0.083357505	4.4610383	3.0757373	74.318536
378	2	5	0.08849664	2.3543153	4.0992155	73.337445
379	2	5	0.08849664	1.5011408	2.538328	73.579672
380	2	4	0.089180618	4.0543724	2.9360262	71.85695
381	2	4	0.089180618	2.3774677	2.927315	71.227342
382	2	3	0.36032072	3.8051261	0.68684643	72.545578
383	3	6	0.51743627	-2.120353	-0.44646461	85.093169
384	3	7	-0.68350071	-2.2500267	-0.43105199	83.880436
385	3	2	-0.25743315	-1.4066927	-1.5817464	85.768123
386	3	2	-0.096989096	-2.1490456	-2.9137141	85.595036
387	3	2	-0.13864029	-3.4912748	-2.9306269	86.341747
388	3	2	-0.14132066	-4.1892221	-4.2873637	86.1904
389	3	2	-0.14132066	-5.537482	-4.2977219	86.924837
390	3	2	-0.1359809	-6.2090624	-5.6807985	86.914784
391	3	2	-0.11277118	-6.7588097	-6.0599044	85.528721
392	3	2	-0.21844158	-7.495774	-7.4059891	85.547815
393	3	6	0.82438195	-8.790415	-7.320536	86.296887
394	3	7	-0.55374694	-8.8834282	-7.8041527	87.456427
395	3	8	-0.6648984	-9.8834036	-6.6821843	85.719486
396	3	9	0.39492887	-10.762411	-6.60571	86.217277
397	3	5	0.11850653	-7.7165319	-7.7097659	84.502267
398	3	5	0.11850653	-6.8451838	-8.1905539	85.992715
399	3	5	0.086337372	-7.4422817	-5.2650701	85.157762
400	3	5	0.086337372	-5.9176055	-6.1479361	84.81025
401	3	5	0.07924351	-5.4873014	-6.4524323	87.261152
402	3	5	0.07924351	-7.0475035	-5.653681	87.643444
403	3	5	0.081119	-6.2203241	-3.5444973	86.476114
404	3	5	0.081119	-5.3683626	-4.0086448	87.986113
405	3	5	0.081119	-4.349903	-4.488316	85.108979
406	3	5	0.081119	-3.5338226	-5.0852413	86.606032
407	3	5	0.07924351	-4.1532348	-2.1346613	85.935405
408	3	5	0.07924351	-3.314036	-2.7255933	87.420308
409	3	5	0.077532224	-2.3137485	-3.1134289	84.513074
410	3	5	0.077532224	-1.5032465	-3.7255913	85.994548
411	3	5	0.11415791	-1.2908891	-1.3540744	86.850585
412	3	5	0.11415791	-0.38906902	-1.6719816	85.332236
413	5	1	-0.63803828	-4.1633579	1.294654	100.1139
414	5	2	0.031042303	-4.3327372	0.15257318	101.01195
415	5	2	-0.15577152	-3.040818	-0.66700179	101.17351
416	5	2	-0.14437048	-1.9489861	0.095758765	101.93813
417	5	2	-0.14439651	-0.73379404	-0.80175919	102.20235
418	5	2	-0.14578492	0.36185839	-0.037814094	102.95428
419	5	2	0.015368888	1.5749863	-0.93292631	103.22149
420	5	1	-0.4904722	2.6129932	-0.17980149	103.91761
421	5	3	0.31757224	2.2792163	0.014624482	104.88999
422	5	4	0.048393905	1.9804323	-1.301555	102.2538
423	5	4	0.048393905	1.2722413	-1.8119199	103.83504
424	5	5	0.08292336	-0.042723767	0.3291023	103.92427
425	5	5	0.08292336	0.68360442	0.84013022	102.35233
426	5	5	0.081868261	-0.3291109	-1.1667485	101.23288
427	5	5	0.081868261	-1.0501595	-1.6806609	102.80677
428	5	5	0.083357505	-1.6220796	0.97579589	101.34275
429	5	5	0.083357505	-2.358421	0.45458633	102.90828
430	5	5	0.08849664	-3.2918576	-1.5943127	101.73358
431	5	5	0.08849664	-2.659422	-0.97072398	100.17414
432	5	4	0.089180603	-4.6881993	0.50685974	102.0036
433	5	4	0.089180603	-5.1210837	-0.50886667	100.59383
434	5	3	0.36032075	-3.548763	2.0050666	100.57231
435	6	6	0.72573346	3.4653201	-0.81255317	104.01138
436	6	7	-0.74257582	3.8231879	-1.4743117	103.05071
437	6	2	-0.18158782	4.2227274	-0.89738861	105.30335
438	6	2	-0.12107338	3.6091038	0.023545691	106.36749
439	6	2	-0.13676514	4.424826	0.050922717	107.67063
440	6	2	-0.14132066	4.2304227	-1.2195416	108.51527
441	6	2	-0.14132066	5.1205399	-1.2465574	109.77142
442	6	2	-0.13864029	4.8577437	-0.11620716	110.78421
443	6	2	-0.096989096	3.4285077	-0.13427831	111.34583
444	6	2	-0.25743312	3.2740283	0.88157782	112.48363
445	6	6	0.51743621	1.8756912	0.88158711	113.0263
446	6	7	-0.68350077	1.5765902	1.6345323	113.93815
447	6	5	0.11415791	3.9767206	0.63060371	113.30692
448	6	5	0.11415791	3.5130459	1.9002153	112.10856
449	6	5	0.077532224	2.7090174	0.12325623	110.53977
450	6	5	0.077532224	3.1919272	-1.151897	111.72812
451	6	5	0.07924351	5.5753558	-0.24688661	111.62401
452	6	5	0.07924351	5.0752021	0.87142532	110.32527
453	6	5	0.081119	4.9790143	-2.2234001	110.28276
454	6	5	0.081119	6.1859845	-1.1989462	109.4568
455	6	5	0.081119	3.1618285	-1.3298869	108.79794
456	6	5	0.081119	4.4963835	-2.1089722	107.90855
457	6	5	0.07924351	5.5029092	0.19756319	107.43952
458	6	5	0.07924351	4.0813484	0.92912773	108.2573
459	6	5	0.085312031	3.5751447	1.059518	105.96228
460	6	5	0.085312031	2.5624188	-0.28760111	106.58308
461	6	5	0.11714982	5.2781535	-0.60416844	105.11756
462	6	5	0.11714982	4.2022065	-1.9519385	105.65015
463	2	1	-0.63803834	-3.6967552	0.97918591	99.232554
464	2	2	0.0310423	-2.6461422	1.9290155	98.870104
465	2	2	-0.15577151	-1.7213058	2.2656763	100.05331
466	2	2	-0.144447	-0.85092125	1.0755468	100.47869
467	2	2	-0.14308427	0.15378969	1.4892975	101.56177
468	2	2	-0.15725474	1.0163095	0.29899605	101.99691
469	2	2	0.028096545	2.0212911	0.71066015	103.07616
470	2	1	-0.97526234	2.8139758	-0.44145037	103.49124
471	2	3	0.38025123	3.4295095	-0.13673575	104.28018
472	2	3	0.38025123	3.4507696	-0.70180526	102.70238
473	2	4	0.077263578	1.4726448	1.1103355	103.95753
474	2	4	0.077263578	2.693044	1.509346	102.68617
475	2	5	0.089367561	1.5676965	-0.10019442	101.11704
476	2	5	0.089367561	0.36237538	-0.50694994	102.39868
477	2	5	0.083357505	-0.39813793	1.8863461	102.44198
478	2	5	0.083357505	0.81178553	2.2936417	101.16508
479	2	5	0.083357505	-1.497004	0.26489978	100.88097
480	2	5	0.083357505	-0.29872572	0.68545772	99.595744
481	2	5	0.08849664	-1.0595149	3.103787	99.741386
482	2	5	0.08849664	-2.3276127	2.6184999	100.91585
483	2	4	0.089180618	-2.0509638	1.5227001	98.02317
484	2	4	0.089180618	-3.1264473	2.867169	98.517366
485	2	3	0.36032072	-3.2702997	0.041639787	99.406941
486	3	6	0.51743627	1.1192874	0.21884649	112.61822
487	3	7	-0.68350071	0.34248943	0.6366894	111.77574
488	3	2	-0.25743315	1.0466161	-1.2078127	113.07985
489	3	2	-0.096989096	-0.27126287	-1.5128508	113.80465
490	3	2	-0.13864029	-0.38184999	-0.76911651	115.14408
491	3	2	-0.14132066	-1.6852306	-1.1275048	115.86763
492	3	2	-0.14132066	-1.8012536	-0.37199947	117.19919
493	3	2	-0.1359809	-3.0262462	-0.80316167	118.0223
494	3	2	-0.11277118	-4.3494631	-0.30225827	117.4179
495	3	2	-0.21844158	-5.5584288	-0.67045925	118.28868
496	3	6	0.82438195	-5.5782412	0.10626332	119.56962
497	3	7	-0.55374694	-5.2443573	-0.4478603	120.65061
498	3	8	-0.6648984	-5.9411344	1.449286	119.55925
499	3	9	0.39492887	-5.9485362	1.9915884	120.41491
500	3	5	0.11850653	-6.4890957	-0.44148974	117.72688
501	3	5	0.11850653	-5.5570725	-1.7621078	118.50092
502	3	5	0.086337372	-4.3125585	0.80013052	117.27689
503	3	5	0.086337372	-4.4990408	-0.76791487	116.42172
504	3	5	0.07924351	-3.0464946	-1.9109816	118.11533
505	3	5	0.07924351	-2.9109073	-0.38214107	119.04412
506	3	5	0.081119	-1.8395371	0.7228645	117.0127
507	3	5	0.081119	-0.89229034	-0.57820042	117.80725
508	3	5	0.081119	-2.542826	-0.86411711	115.21125
509	3	5	0.081119	-1.7086949	-2.2236766	116.05937
510	3	5	0.07924351	-0.35675975	0.32801884	114.96371
511	3	5	0.07924351	0.48359527	-1.0407892	115.78746
512	3	5	0.077532224	-1.1299926	-1.2456642	113.14978
513	3	5	0.077532224	-0.31797288	-2.6072308	113.99428
514	3	5	0.11415791	1.9046391	-1.4221706	113.75425
515	3	5	0.11415791	1.1390121	-1.8733362	112.1954
516	5	1	-0.63803828	-0.88163806	30.849335	-8.5385234
517	5	2	0.031042303	-1.80001	31.008679	-7.4112518
518	5	2	-0.15577152	-2.476802	29.686394	-7.01078
519	5	2	-0.14437048	-1.4922767	28.681751	-6.3943861
520	5	2	-0.14439651	-2.2266141	27.437663	-5.8795729
521	5	2	-0.14578492	-1.2435549	26.428553	-5.2756246
522	5	2	0.015368888	-1.9750117	25.186819	-4.7585412
523	5	1	-0.4904722	-1.0187882	24.231436	-4.2088818
524	5	3	0.31757224	-0.63184757	24.629763	-3.3221245
525	5	4	0.048393905	-2.5256009	24.70807	-5.5977966
526	5	4	0.048393905	-2.7104807	25.476909	-3.9738964
527	5	5	0.08292336	-0.69405349	26.906481	-4.4336967
528	5	5	0.08292336	-0.50525768	26.120124	-6.0479134
529	5	5	0.081868261	-2.7741171	26.959766	-6.7214261
530	5	5	0.081868261	-2.9649355	27.740817	-5.1044239
531	5	5	0.083357505	-0.75013198	28.368661	-7.1605537
532	5	5	0.083357505	-0.9509179	29.164097	-5.5506741
533	5	5	0.08849664	-3.2679739	29.919334	-6.2648663
534	5	5	0.08849664	-2.9730034	29.233263	-7.896733
535	5	4	0.089180603	-1.2547272	31.438196	-6.5432549
536	5	4	0.089180603	-2.5882397	31.735814	-7.7007151
537	5	3	0.36032075	-0.047927487	30.300311	-8.2285981