Title

9375 atoms
9250 bonds
17125 angles
29125 dihedrals
1500 impropers

8 atom types
11 bond types
5 angle types
27 dihedral types
2 improper types
-9.099499702 90.9005003 xlo xhi
-9.129300117 90.87069988 ylo yhi
-9.705900192 90.29409981 zlo zhi
0.0 0.0 0.0 xy xz yz

Masses

1	15.99943
2	12.01078
3	1.007947
4	1.007947
5	12.01078
6	15.99943
7	15.99943
8	1.007947


Pair Coeffs

1	0.16846514	3.0251065
2	0.10884061	3.3795318
3	0.016409246	2.5832257
4	0.015779483	2.6445434
5	0.086879315	3.4806469
6	0.2102061	3.0398122
7	0.20947353	2.99716
8	1.2326e-05	0.53453923

Bond Coeffs

1 harmonic	366.7408841747	1.425895053732
2 harmonic	300.03137914615	1.451203938761
3 harmonic	264.62148576755	1.52190126495
4 harmonic	370.04670688625	1.093899492634
5 harmonic	301.15400723785	1.345741232799
6 harmonic	582.698766451	1.225198386222
7 harmonic	329.44145381095	1.523435958334
8 harmonic	279.1350963404	1.454628925034
9 harmonic	329.96998057905	1.427343958716
10 harmonic	543.5267831885	0.9716763312559
11 harmonic	385.7604595587	1.369745182308


Angle Coeffs

1 harmonic	53.20531626545	116.5475862634
2 harmonic	65.09061609600001	110.3538806181
3 harmonic	201.41175231035	127.4691416191
4 harmonic	57.8982893754	126.8062420451
5 harmonic	48.776492647595	115.6030999533


Dihedral Coeffs

1 fourier 1	0.1155372516788	3	0
2 fourier 1	0.1115525666802	3	0
3 fourier 1	0.3432490222662	1	0
4 fourier 1	0.0473758381877	3	0
5 fourier 1	0.457973137376	1	0
6 fourier 1	0.09223874044423	3	0
7 fourier 1	0.3159935921949	2	180
8 fourier 1	0.3247796806857	1	180
9 fourier 1	0.1040663847541	3	0
10 fourier 1	0.1918272375143	3	0
11 fourier 1	0.9202179876409	1	180
12 fourier 1	1.163809172478	2	180
13 fourier 1	0.1679186987369	1	180
14 fourier 1	2.779853741805	2	180
15 fourier 1	0.02664938770063	3	0
16 fourier 1	0.1911926717192	3	0
17 fourier 1	-0.3703352413219	2	0
18 fourier 1	0.4541676554336	1	0
19 fourier 1	0.1489710476446	2	0
20 fourier 1	0.02960027280666	3	180
21 fourier 1	0.9974165607242	2	180
22 fourier 1	0.3445382149273	3	0
23 fourier 1	0.1364556373303	1	0
24 fourier 1	0.3026390167484	3	0
25 fourier 1	2.687457892086	2	180
26 fourier 1	2.772607909663	2	180
27 fourier 1	0.09692684957115	1	0


Improper Coeffs

1 3.5	-1	2
2 0.3666666666666667	-1	2


Atoms

1	4	1	-0.17860501	5.0784998	4.7266002	-2.8294001
2	4	2	0.033266	4.8179998	4.0549998	-1.6278
3	4	2	-0.146835	3.9906001	2.7948999	-1.8933001
4	4	2	-0.14190701	3.655	2.0683	-0.58219999
5	4	2	-0.143124	2.9395001	0.72899997	-0.8143
6	4	2	-0.140681	1.497	0.90829998	-1.3162
7	4	2	0.135144	0.75470001	-0.42699999	-1.391
8	4	1	-0.49453801	1.355	-1.2605	-2.3440001
9	4	3	0.079108	0.76139998	-0.91939998	-0.39219999
10	4	3	0.079108	-0.30219999	-0.23270001	-1.6811
11	4	4	0.086064003	1.4967999	1.3710001	-2.3264999
12	4	4	0.086064003	0.94520003	1.5817	-0.62480003
13	4	4	0.082213998	2.9163001	0.18170001	0.1531
14	4	4	0.082213998	3.5207	0.1139	-1.5346
15	4	4	0.082387	3.0294001	2.7232001	0.064400002
16	4	4	0.082387	4.6009002	1.8602999	-0.035399999
17	4	4	0.087081999	4.5675001	2.1155	-2.5589001
18	4	4	0.087081999	3.0550001	3.0899	-2.4126
19	4	3	0.078725003	4.2495999	4.7378998	-0.96020001
20	4	3	0.078725003	5.7746	3.7925	-1.1181
21	5	5	0.76169801	0.80830002	-2.1443	-2.3375001
22	5	6	-0.55495799	1.2936	-3.1477001	-2.8350999
23	5	2	-0.209613	-0.56080002	-2.1993999	-1.7276
24	5	2	-0.113236	-0.97299999	-0.8348	-1.1637
25	5	2	-0.092381001	-2.3735001	-0.89660001	-0.54290003
26	5	2	-0.25776201	-2.7855999	0.46790001	0.021
27	5	5	0.51700997	-4.1553998	0.41339999	0.63020003
28	5	6	-0.68725502	-4.6413002	1.416	1.1279
29	5	4	0.113622	-2.7864001	1.2242	-0.79409999
30	5	4	0.113622	-2.0594001	0.7852	0.80049998
31	5	4	0.075021997	-3.1068001	-1.2104	-1.3178999
32	5	4	0.075021997	-2.3796999	-1.6494	0.27669999
33	5	4	0.083939999	-0.96670002	-0.082099997	-1.9833
34	5	4	0.083939999	-0.2396	-0.52109998	-0.38870001
35	5	4	0.116871	-1.2871	-2.5165999	-2.5071001
36	5	4	0.116871	-0.56	-2.9556	-0.91250002
37	1	1	-0.17860501	5.7957001	4.2172999	-3.2904999
38	1	2	0.033266	5.3085999	2.9149001	-3.4719
39	1	2	-0.146835	5.3649001	2.1393001	-2.1531
40	1	2	-0.141856	4.8782001	0.69499999	-2.3410001
41	1	2	-0.137761	4.7941999	-0.077799998	-1.0157
42	1	2	-0.168758	6.1782999	-0.40869999	-0.43450001
43	1	2	0.086456999	6.0735002	-1.3102	0.79640001
44	1	7	-0.68463898	5.4127002	-0.63679999	1.8322999
45	1	8	0.37796101	5.3734002	-1.2736	2.5926001
46	1	3	0.069054	5.5263	-2.2437	0.53649998
47	1	3	0.069054	7.1006999	-1.5835	1.1289001
48	1	4	0.089435004	6.7076998	0.52530003	-0.1468
49	1	4	0.089435004	6.7880998	-0.93110001	-1.2036
50	1	4	0.082387	4.2498999	-1.028	-1.2084
51	1	4	0.082387	4.2010999	0.50620002	-0.27810001
52	1	4	0.082387	5.5478001	0.15889999	-3.0483
53	1	4	0.082387	3.8612001	0.7155	-2.7908001
54	1	4	0.087081999	4.7259002	2.6538	-1.402
55	1	4	0.087081999	6.4138999	2.1422	-1.7864
56	1	3	0.078725003	5.9426999	2.4052	-4.2291002
57	1	3	0.078725003	4.2652998	2.9453001	-3.8610001
58	2	5	0.51700997	-4.7262998	-0.5104	0.63639998
59	2	6	-0.68725502	-5.5398002	-0.72119999	-0.24860001
60	2	2	-0.25776201	-4.4970002	-1.524	1.7165
61	2	2	-0.092381001	-5.7472	-1.6905	2.5864999
62	2	2	-0.110713	-5.5030999	-2.7075	3.7118001
63	2	2	-0.219621	-6.7582998	-2.9460001	4.5626001
64	2	5	0.82383603	-7.1183	-1.7384	5.3716998
65	2	6	-0.55641901	-6.4899001	-1.4786	6.4327998
66	2	7	-0.66546601	-8.1269999	-0.88559997	4.9342999
67	2	8	0.39414999	-8.3724003	-0.057700001	5.4643002
68	2	4	0.117895	-7.612	-3.2295001	3.9096999
69	2	4	0.117895	-6.5697999	-3.7962	5.2526002
70	2	4	0.083939999	-5.2000999	-3.6775999	3.2612
71	2	4	0.083939999	-4.6708002	-2.3605001	4.3627
72	2	4	0.075021997	-6.5935998	-2.0383	1.9543
73	2	4	0.075021997	-6.0169001	-0.70539999	3.0267999
74	2	4	0.113622	-3.6471	-1.1878	2.3496001
75	2	4	0.113622	-4.2241001	-2.4951999	1.2505
76	4	1	-0.17860501	3.3443999	-6.1431999	17.310101
77	4	2	0.033266	2.2878001	-5.8074002	18.1665
78	4	2	-0.146835	1.7428	-4.4203	17.8176
79	4	2	-0.14190701	0.61290002	-4.0138998	18.7756
80	4	2	-0.143124	-0.0506	-2.6866	18.3787
81	4	2	-0.140681	0.86199999	-1.473	18.622601
82	4	2	0.135144	0.1288	-0.1547	18.369101
83	4	1	-0.49453801	-0.23190001	-0.054699998	17.0189
84	4	3	0.079108	-0.77749997	-0.096500002	19.013599
85	4	3	0.079108	0.80559999	0.68769997	18.635799
86	4	4	0.086064003	1.7489001	-1.5194	17.954901
87	4	4	0.086064003	1.2181	-1.483	19.675699
88	4	4	0.082213998	-0.97250003	-2.5694001	18.988899
89	4	4	0.082213998	-0.35690001	-2.7255001	17.311199
90	4	4	0.082387	1.0043	-3.9440999	19.815001
91	4	4	0.082387	-0.16940001	-4.8042998	18.763
92	4	4	0.087081999	1.3595999	-4.4331002	16.7733
93	4	4	0.087081999	2.5745001	-3.688	17.881201
94	4	3	0.078725003	2.6696	-5.8038998	19.2103
95	4	3	0.078725003	1.4789	-6.5721002	18.098499
96	5	5	0.76169801	-0.72689998	0.8538	16.9205
97	5	6	-0.55495799	-1.4166	1.0517	15.9331
98	5	2	-0.209613	-0.60329998	1.9167	17.971399
99	5	2	-0.113236	0.30590001	1.4608001	19.118299
100	5	2	-0.092381001	0.4296	2.5515001	20.1887
101	5	2	-0.25776201	1.3388	2.0955999	21.3356
102	5	5	0.51700997	1.4634	3.1589	22.3864
103	5	6	-0.68725502	2.1526999	2.9619999	23.373899
104	5	4	0.113622	2.3515999	1.8634	20.939699
105	5	4	0.113622	0.9199	1.178	21.802601
106	5	4	0.075021997	0.85140002	3.4725001	19.729601
107	5	4	0.075021997	-0.58029997	2.7869999	20.592501
108	5	4	0.083939999	1.3158	1.2254	18.7145
109	5	4	0.083939999	-0.1159	0.5399	19.577299
110	5	4	0.116871	-0.18440001	2.8343999	17.5044
111	5	4	0.116871	-1.6161	2.1489	18.367201
112	1	1	-0.17860501	2.9365001	-6.3990002	16.441401
113	1	2	0.033266	2.1942	-5.2916002	16.006399
114	1	2	-0.146835	0.88330001	-5.1907001	16.791
115	1	2	-0.141856	0.034299999	-4.0102	16.297501
116	1	2	-0.137761	-1.228	-3.7939999	17.1464
117	1	2	-0.168758	-2.2788	-4.8961	16.936001
118	1	2	0.086456999	-3.5841999	-4.5791998	17.667101
119	1	7	-0.68463898	-3.3694999	-4.5623002	19.0516
120	1	8	0.37796101	-4.2467999	-4.3470998	19.462799
121	1	3	0.069054	-3.9782	-3.5948999	17.328899
122	1	3	0.069054	-4.3339	-5.3643999	17.4184
123	1	4	0.089435004	-1.8927	-5.8709002	17.3048
124	1	4	0.089435004	-2.4978001	-4.9970999	15.8506
125	1	4	0.082387	-1.6712	-2.8162999	16.8566
126	1	4	0.082387	-0.95069999	-3.7323999	18.221701
127	1	4	0.082387	-0.2489	-4.1661	15.2337
128	1	4	0.082387	0.64569998	-3.0826001	16.350201
129	1	4	0.087081999	1.1159	-5.0577002	17.870501
130	1	4	0.087081999	0.3222	-6.1415	16.6647
131	1	3	0.078725003	1.9701	-5.4218998	14.9256
132	1	3	0.078725003	2.7907	-4.3585	16.1241
133	2	5	0.51700997	0.94620001	4.1082001	22.2829
134	2	6	-0.68725502	1.5337	5.0647001	21.803699
135	2	2	-0.25776201	-0.48559999	4.2301998	22.709101
136	2	2	-0.092381001	-0.62650001	5.2013001	23.885799
137	2	2	-0.110713	-2.0897999	5.3041	24.342199
138	2	2	-0.219621	-2.2748001	6.3197999	25.4781
139	2	5	0.82383603	-1.6339999	5.8541999	26.749001
140	2	6	-0.55641901	-2.21	4.9951	27.4692
141	2	7	-0.66546601	-0.3867	6.3478999	27.118601
142	2	8	0.39414999	0.064999998	6.0321999	27.9687
143	2	4	0.117895	-1.8507	7.3035002	25.181499
144	2	4	0.117895	-3.3615999	6.4657998	25.6577
145	2	4	0.083939999	-2.7138	5.6292	23.4813
146	2	4	0.083939999	-2.4560001	4.3063998	24.6696
147	2	4	0.075021997	-0.2658	6.2077999	23.579399
148	2	4	0.075021997	0.0026	4.8425999	24.7299
149	2	4	0.113622	-0.85710001	3.2265	23.010401
150	2	4	0.113622	-1.0915999	4.5840001	21.8475
151	4	1	-0.17860501	-5.2951002	-3.2392001	35.7957
152	4	2	0.033266	-4.4182	-3.5796001	36.8339
153	4	2	-0.146835	-4.0429001	-2.3341999	37.640701
154	4	2	-0.14190701	-3.0451	-2.6791	38.7565
155	4	2	-0.143124	-2.7448001	-1.483	39.672298
156	4	2	-0.140681	-1.8989	-0.40329999	38.9767
157	4	2	0.135144	-1.4812	0.7008	39.949402
158	4	1	-0.49453801	-2.6106	1.3875999	40.414101
159	4	3	0.079108	-0.92199999	0.2588	40.805099
160	4	3	0.079108	-0.80839998	1.4101	39.4174
161	4	4	0.086064003	-2.4728	0.056499999	38.143799
162	4	4	0.086064003	-0.9817	-0.86729997	38.553101
163	4	4	0.082213998	-2.1863	-1.8609	40.556099
164	4	4	0.082213998	-3.6975	-1.0439	40.039299
165	4	4	0.082387	-2.0987999	-3.062	38.3134
166	4	4	0.082387	-3.4753001	-3.4904001	39.3839
167	4	4	0.087081999	-4.9647002	-1.8990999	38.0863
168	4	4	0.087081999	-3.5962	-1.5881	36.950901
169	4	3	0.078725003	-3.5016	-4.0226002	36.388
170	4	3	0.078725003	-4.8843002	-4.3466001	37.4958
171	5	5	0.76169801	-2.2564001	2.1127	41.069099
172	5	6	-0.55495799	-3.0329001	2.6401	41.8493
173	5	2	-0.209613	-0.81150001	2.5149	41.065498
174	5	2	-0.113236	-0.019300001	1.7312	40.012798
175	5	2	-0.092381001	1.4563	2.1472001	40.012798
176	5	2	-0.25776201	2.2485001	1.3635	38.960098
177	5	5	0.51700997	3.6935	1.7663	38.955799
178	5	6	-0.68725502	4.4706001	1.2395999	38.176201
179	5	4	0.113622	1.8207	1.5548	37.951801
180	5	4	0.113622	2.1808	0.27500001	39.175201
181	5	4	0.075021997	1.5326999	3.2351999	39.794998
182	5	4	0.075021997	1.8928	1.9554	41.018398
183	5	4	0.083939999	-0.4558	1.9231	39.007301
184	5	4	0.083939999	-0.095600002	0.6433	40.230701
185	5	4	0.116871	-0.74379998	3.6034	40.850498
186	5	4	0.116871	-0.38370001	2.3236001	42.073898
187	1	1	-0.17860501	-6.1872001	-3.1018	36.209999
188	1	2	0.033266	-6.0324001	-2.0880001	37.166401
189	1	2	-0.146835	-5.3429999	-2.6398001	38.417099
190	1	2	-0.141856	-5.2052999	-1.5551	39.495399
191	1	2	-0.137761	-4.4011998	-2.0321	40.7146
192	1	2	-0.168758	-5.1666002	-3.0599999	41.5634
193	1	2	0.086456999	-4.4152002	-3.4013	42.851002
194	1	7	-0.68463898	-3.2021	-4.0337	42.548199
195	1	8	0.37796101	-2.7653999	-4.2213998	43.419498
196	1	3	0.069054	-4.2276001	-2.474	43.436901
197	1	3	0.069054	-5.046	-4.0847998	43.4636
198	1	4	0.089435004	-5.3232002	-3.9960001	40.984901
199	1	4	0.089435004	-6.1630001	-2.6482	41.8349
200	1	4	0.082387	-4.1763	-1.1436	41.3442
201	1	4	0.082387	-3.4312999	-2.4612999	40.379501
202	1	4	0.082387	-6.2125001	-1.2127	39.818501
203	1	4	0.082387	-4.6771002	-0.67979997	39.0574
204	1	4	0.087081999	-4.3351002	-3.0191	38.138401
205	1	4	0.087081999	-5.9449	-3.4888	38.806499
206	1	3	0.078725003	-7.0397	-1.7042	37.437302
207	1	3	0.078725003	-5.4454999	-1.243	36.739601
208	2	5	0.51700997	4.0630002	2.5242	39.640202
209	2	6	-0.68725502	4.1448002	3.6835001	39.267399
210	2	2	-0.25776201	4.4492002	2.1452999	41.037998
211	2	2	-0.092381001	5.9489002	2.3573	41.269001
212	2	2	-0.110713	6.3506999	1.9411	42.6922
213	2	2	-0.219621	7.836	2.2028	42.977299
214	2	5	0.82383603	8.7224998	1.2986	42.177799
215	2	6	-0.55641901	8.8984003	0.1043	42.5401
216	2	7	-0.66546601	9.3273001	1.7692	41.016499
217	2	8	0.39414999	9.9188004	1.1651	40.458302
218	2	4	0.117895	8.0844002	3.2636001	42.757301
219	2	4	0.117895	8.0312996	2.0318999	44.057701
220	2	4	0.083939999	5.7491999	2.526	43.421902
221	2	4	0.083939999	6.1237001	0.86400002	42.8508
222	2	4	0.075021997	6.1982002	3.4303	41.115898
223	2	4	0.075021997	6.5191002	1.7533	40.5294
224	2	4	0.113622	4.1966	1.0750999	41.202499
225	2	4	0.113622	3.862	2.7581	41.755199
226	4	1	-0.17860501	-2.6057999	-5.2210002	55.2878
227	4	2	0.033266	-1.9684	-5.1476998	56.5331
228	4	2	-0.146835	-2.2588	-3.8002999	57.198799
229	4	2	-0.14190701	-1.5306	-3.6817999	58.5462
230	4	2	-0.143124	-1.9005001	-2.4003	59.308102
231	4	2	-0.140681	-1.3176	-1.1354001	58.655899
232	4	2	0.135144	-1.5652	0.1073	59.512699
233	4	1	-0.49453801	-2.9395001	0.36390001	59.6054
234	4	3	0.079108	-1.1334	-0.041900001	60.528301
235	4	3	0.079108	-1.0567	0.97600001	59.037601
236	4	4	0.086064003	-1.7747	-0.97350001	57.6562
237	4	4	0.086064003	-0.2211	-1.2598	58.5214
238	4	4	0.082213998	-1.4982001	-2.4883001	60.340698
239	4	4	0.082213998	-3.006	-2.3158	59.384102
240	4	4	0.082387	-0.43000001	-3.7216001	58.3867
241	4	4	0.082387	-1.8099999	-4.5503001	59.182201
242	4	4	0.087081999	-3.3554001	-3.7030001	57.358002
243	4	4	0.087081999	-1.9262	-2.9905	56.516499
244	4	3	0.078725003	-0.87370002	-5.2542	56.373798
245	4	3	0.078725003	-2.3043001	-5.9857998	57.187698
246	5	5	0.76169801	-3.0339999	1.2102	60.201199
247	5	6	-0.55495799	-4.1176	1.4686	60.7001
248	5	2	-0.209613	-1.8613	2.1108999	60.4524
249	5	2	-0.113236	-0.60619998	1.6019	59.734299
250	5	2	-0.092381001	0.5887	2.5269001	59.9935
251	5	2	-0.25776201	1.8439	2.0179999	59.275501
252	5	5	0.51700997	3.0165999	2.9191999	59.525799
253	5	6	-0.68725502	4.1004	2.6616001	59.0275
254	5	4	0.113622	1.6551	1.9721	58.180698
255	5	4	0.113622	2.0933001	0.99690002	59.6371
256	5	4	0.075021997	0.34799999	3.5504999	59.631302
257	5	4	0.075021997	0.78619999	2.5752001	61.0877
258	5	4	0.083939999	-0.80360001	1.5537	58.640202
259	5	4	0.083939999	-0.3655	0.57840002	60.0966
260	5	4	0.116871	-2.1106999	3.132	60.090801
261	5	4	0.116871	-1.6726	2.1566999	61.547199
262	1	1	-0.17860501	-3.5671999	-5.3913999	55.469601
263	1	2	0.033266	-4.0180001	-4.3295002	56.266998
264	1	2	-0.146835	-3.5343001	-4.5067	57.708801
265	1	2	-0.141856	-4.0563002	-3.3773	58.6087
266	1	2	-0.137761	-3.4858	-3.4452	60.033699
267	1	2	-0.168758	-4.0531998	-4.6223998	60.843201
268	1	2	0.086456999	-3.5940001	-4.579	62.3013
269	1	7	-0.68463898	-2.2046001	-4.7437	62.374298
270	1	8	0.37796101	-1.9732	-4.7003999	63.3386
271	1	3	0.069054	-3.8894	-3.6103001	62.7626
272	1	3	0.069054	-4.0942001	-5.4031	62.8592
273	1	4	0.089435004	-3.7288001	-5.5874	60.397202
274	1	4	0.089435004	-5.1641998	-4.5855999	60.8218
275	1	4	0.082387	-3.7458	-2.4960001	60.5513
276	1	4	0.082387	-2.3764	-3.5121	59.9907
277	1	4	0.082387	-5.1671	-3.4054	58.645599
278	1	4	0.082387	-3.7591	-2.4008999	58.166801
279	1	4	0.087081999	-2.4221001	-4.5096998	57.7206
280	1	4	0.087081999	-3.8945	-5.4888	58.083801
281	1	3	0.078725003	-5.1293001	-4.3227	56.247101
282	1	3	0.078725003	-3.6603999	-3.3592	55.853298
283	2	5	0.51700997	2.9172001	3.8034999	60.148201
284	2	6	-0.68725502	2.6977999	4.8850002	59.626801
285	2	2	-0.25776201	3.03	3.6860001	61.638199
286	2	2	-0.092381001	4.2551999	4.4457002	62.156898
287	2	2	-0.110713	4.388	4.3010001	63.680599
288	2	2	-0.219621	5.5693998	5.1051998	64.240601
289	2	5	0.82383603	6.8843999	4.5356998	63.805801
290	2	6	-0.55641901	7.3515	3.5151	64.379097
291	2	7	-0.66546601	7.5757999	5.1159	62.746799
292	2	8	0.39414999	8.46	4.7335	62.433102
293	2	4	0.117895	5.4941001	6.1662998	63.918201
294	2	4	0.117895	5.5221	5.0899	65.350601
295	2	4	0.083939999	3.4566	4.6732998	64.1604
296	2	4	0.083939999	4.5042	3.2284999	63.951099
297	2	4	0.075021997	4.1592002	5.5229001	61.897301
298	2	4	0.075021997	5.1673999	4.0436001	61.663799
299	2	4	0.113622	3.1191001	2.6110001	61.9076
300	2	4	0.113622	2.1054001	4.0886998	62.104698
301	4	1	-0.17860501	-2.7711999	2.118	73.352303
302	4	2	0.033266	-2.1975999	2.701	74.4897
303	4	2	-0.146835	-1.3056999	1.6884	75.211998
304	4	2	-0.14190701	-0.7033	2.2948	76.488297
305	4	2	-0.143124	0.30230001	1.3562	77.171799
306	4	2	-0.140681	-0.37459999	0.14210001	77.829803
307	4	2	0.135144	0.62239999	-0.69330001	78.634697
308	4	1	-0.49453801	1.5852	-1.2496001	77.782303
309	4	3	0.079108	1.1138999	-0.056400001	79.404701
310	4	3	0.079108	0.069399998	-1.5088	79.152397
311	4	4	0.086064003	-0.83630002	-0.50660002	77.054802
312	4	4	0.086064003	-1.1775	0.49180001	78.514603
313	4	4	0.082213998	0.83429998	1.9377	77.955902
314	4	4	0.082213998	1.0599	1.0168999	76.432899
315	4	4	0.082387	-1.5154999	2.5611999	77.200996
316	4	4	0.082387	-0.16869999	3.2328999	76.221703
317	4	4	0.087081999	-0.4878	1.3721	74.527603
318	4	4	0.087081999	-1.9177001	0.79860002	75.4683
319	4	3	0.078725003	-3.0158999	3.0249	75.168503
320	4	3	0.078725003	-1.6092	3.6043999	74.2043
321	5	5	0.76169801	2.2276001	-1.7941	78.391403
322	5	6	-0.55495799	3.3227	-2.1187999	77.961197
323	5	2	-0.209613	1.8259	-2.1823001	79.783302
324	5	2	-0.113236	0.41850001	-1.6747	80.117203
325	5	2	-0.092381001	0.0127	-2.0755	81.540398
326	5	2	-0.25776201	-1.3947001	-1.5678999	81.874298
327	5	5	0.51700997	-1.7970999	-1.9569	83.265999
328	5	6	-0.68725502	-2.8917999	-1.6325999	83.696999
329	5	4	0.113622	-2.1270001	-1.9981	81.1567
330	5	4	0.113622	-1.4223	-0.4598	81.790001
331	5	4	0.075021997	0.034600001	-3.1835999	81.631798
332	5	4	0.075021997	0.73940003	-1.6453	82.265099
333	5	4	0.083939999	-0.3082	-2.1048999	79.392403
334	5	4	0.083939999	0.39649999	-0.56660002	80.025803
335	5	4	0.116871	1.8534	-3.2904	79.867599
336	5	4	0.116871	2.5581999	-1.7521	80.5009
337	1	1	-0.17860501	-2.0594001	2.0829999	72.660599
338	1	2	0.033266	-1.0087	1.3308001	73.2052
339	1	2	-0.146835	-0.2255	2.1700001	74.2183
340	1	2	-0.141856	0.95840001	1.3785	74.792801
341	1	2	-0.137761	1.6909	2.1375999	75.909798
342	1	2	-0.168758	2.4921999	3.3388	75.382401
343	1	2	0.086456999	3.3359001	3.9827001	76.483498
344	1	7	-0.68463898	2.5048001	4.5256	77.472397
345	1	8	0.37796101	3.1098001	4.9191999	78.153702
346	1	3	0.069054	4.0174999	3.2249	76.930199
347	1	3	0.069054	3.954	4.7927999	76.033997
348	1	4	0.089435004	1.8048	4.1068001	74.966599
349	1	4	0.089435004	3.1712	3.0028	74.568604
350	1	4	0.082387	2.3910999	1.4282	76.402603
351	1	4	0.082387	0.95889997	2.4751	76.6763
352	1	4	0.082387	1.6724	1.1223	73.980103
353	1	4	0.082387	0.57800001	0.42429999	75.219398
354	1	4	0.087081999	-0.90759999	2.4727001	75.043198
355	1	4	0.087081999	0.1416	3.0867	73.708801
356	1	3	0.078725003	-0.33289999	1.0218	72.3787
357	1	3	0.078725003	-1.4057	0.40889999	73.688004
358	2	5	0.51700997	-1.1255	-2.5260999	83.901901
359	2	6	-0.68725502	-1.2307	-3.7409	83.953598
360	2	2	-0.25776201	-0.066100001	-1.8197	84.692596
361	2	2	-0.092381001	-0.31529999	-1.9665	86.197197
362	2	2	-0.110713	0.7536	-1.2178	87.007698
363	2	2	-0.219621	0.56980002	-1.3997999	88.520699
364	2	5	0.82383603	-0.66570002	-0.71390003	89.016296
365	2	6	-0.55641901	-0.66530001	0.53289998	89.200699
366	2	7	-0.66546601	-1.8243001	-1.45	89.243401
367	2	8	0.39414999	-2.6715	-0.99760002	89.566002
368	2	4	0.117895	0.52539998	-2.4818001	88.771004
369	2	4	0.117895	1.4514	-0.97240001	89.044899
370	2	4	0.083939999	1.7564	-1.6101	86.730499
371	2	4	0.083939999	0.73110002	-0.1347	86.755997
372	2	4	0.075021997	-0.29629999	-3.0441999	86.471397
373	2	4	0.075021997	-1.3207999	-1.558	86.440102
374	2	4	0.113622	-0.072999999	-0.74199998	84.419296
375	2	4	0.113622	0.92680001	-2.2421999	84.427101
376	4	1	-0.17860501	-0.90289998	14.7574	5.2802
377	4	2	0.033266	-0.99870002	14.8778	3.8877001
378	4	2	-0.146835	-0.109	16.020399	3.3919001
379	4	2	-0.14190701	-0.23540001	16.1987	1.8714
380	4	2	-0.143124	0.74019998	17.246799	1.3154
381	4	2	-0.140681	0.35789999	18.6817	1.7156
382	4	2	0.135144	1.2479	19.7169	1.0256
383	4	1	-0.49453801	2.5741999	19.5762	1.4548
384	4	3	0.079108	1.1869	19.591	-0.0792
385	4	3	0.079108	0.87970001	20.7346	1.2853
386	4	4	0.086064003	0.4508	18.8111	2.8153
387	4	4	0.086064003	-0.69870001	18.876801	1.4301
388	4	4	0.082213998	0.72930002	17.1698	0.20649999
389	4	4	0.082213998	1.7721	17.017	1.6582
390	4	4	0.082387	-1.2799	16.4783	1.6083
391	4	4	0.082387	-0.0123	15.2278	1.3769
392	4	4	0.087081999	0.94859999	15.7969	3.6544001
393	4	4	0.087081999	-0.41299999	16.9543	3.9089
394	4	3	0.078725003	-2.0574	15.0919	3.6259999
395	4	3	0.078725003	-0.7101	13.9186	3.3973999
396	5	5	0.76169801	3.119	20.3002	0.94580001
397	5	6	-0.55495799	4.3341999	20.200399	0.88980001
398	5	2	-0.209613	2.4326	21.458099	0.2843
399	5	2	-0.113236	0.91350001	21.387199	0.47710001
400	5	2	-0.092381001	0.2173	22.573601	-0.2
401	5	2	-0.25776201	-1.3018	22.502701	-0.0071999999
402	5	5	0.51700997	-1.9885	23.6612	-0.66799998
403	5	6	-0.68725502	-3.2033999	23.7617	-0.61260003
404	5	4	0.113622	-1.5416	22.5165	1.0785
405	5	4	0.113622	-1.6907001	21.558201	-0.44589999
406	5	4	0.075021997	0.59890002	23.5228	0.2362
407	5	4	0.075021997	0.44980001	22.5646	-1.2882
408	5	4	0.083939999	0.68089998	21.3962	1.5653
409	5	4	0.083939999	0.53189999	20.437901	0.040899999
410	5	4	0.116871	2.8213999	22.4025	0.72299999
411	5	4	0.116871	2.6724	21.4443	-0.80140001
412	1	1	-0.17860501	-0.035100002	14.3127	5.4685001
413	1	2	0.033266	0.96090001	15.125	4.9074998
414	1	2	-0.146835	0.9989	14.944	3.3877001
415	1	2	-0.141856	2.1145999	15.7913	2.7586999
416	1	2	-0.137761	2.1015	15.7403	1.2232
417	1	2	-0.168758	2.5522001	14.3778	0.67220002
418	1	2	0.086456999	2.6823001	14.3995	-0.85149997
419	1	7	-0.68463898	1.4289	14.6156	-1.4392999
420	1	8	0.37796101	1.5832	14.6241	-2.4196999
421	1	3	0.069054	3.3924	15.199	-1.1595
422	1	3	0.069054	3.0857999	13.4184	-1.1907001
423	1	4	0.089435004	1.8229001	13.5884	0.95529997
424	1	4	0.089435004	3.5401001	14.1106	1.1069
425	1	4	0.082387	2.7948999	16.5252	0.8495
426	1	4	0.082387	1.0833	15.9847	0.84850001
427	1	4	0.082387	3.1041999	15.4562	3.1387
428	1	4	0.082387	1.977	16.8508	3.0676
429	1	4	0.087081999	0.0165	15.245	2.9617
430	1	4	0.087081999	1.1666	13.8685	3.1643
431	1	3	0.078725003	1.9407001	14.8289	5.3406
432	1	3	0.078725003	0.77819997	16.192499	5.1676002
433	2	5	0.51700997	-1.4187	24.417601	-1.1995
434	2	6	-0.68725502	-1.0963	25.443899	-0.62300003
435	2	2	-0.25776201	-1.0171	24.187201	-2.625
436	2	2	-0.092381001	-1.6950001	25.197901	-3.5558
437	2	2	-0.110713	-1.307	24.9436	-5.0204
438	2	2	-0.219621	-1.9183	25.9807	-5.9726
439	2	5	0.82383603	-3.4063001	25.839899	-6.0654998
440	2	6	-0.55641901	-3.9117	24.9345	-6.7818999
441	2	7	-0.66546601	-4.2307	26.6903	-5.3351998
442	2	8	0.39414999	-5.2386999	26.598301	-5.3779001
443	2	4	0.117895	-1.658	27.007099	-5.6346998
444	2	4	0.117895	-1.4816	25.842199	-6.9849
445	2	4	0.083939999	-0.20039999	24.9963	-5.1142998
446	2	4	0.083939999	-1.6255	23.9226	-5.3253999
447	2	4	0.075021997	-1.3891	26.2278	-3.2683001
448	2	4	0.075021997	-2.7981	25.1126	-3.4426
449	2	4	0.113622	-1.3127	23.156401	-2.9189999
450	2	4	0.113622	0.087700002	24.2722	-2.7088001
451	4	1	-0.17860501	-6.3011999	21.7931	23.629299
452	4	2	0.033266	-5.8978	21.417299	22.3414
453	4	2	-0.146835	-4.5963998	20.614201	22.406601
454	4	2	-0.14190701	-4.1125002	20.2318	20.9998
455	4	2	-0.143124	-2.882	19.3127	21.0268
456	4	2	-0.140681	-1.6079	20.043501	21.4827
457	4	2	0.135144	-0.3698	19.1546	21.353201
458	4	1	-0.49453801	-0.47099999	18.0567	22.2178
459	4	3	0.079108	-0.26359999	18.805799	20.301001
460	4	3	0.079108	0.5298	19.754101	21.618401
461	4	4	0.086064003	-1.7065001	20.3617	22.5427
462	4	4	0.086064003	-1.4585	20.9515	20.858999
463	4	4	0.082213998	-2.7227001	18.924299	19.9974
464	4	4	0.082213998	-3.0797	18.4415	21.687901
465	4	4	0.082387	-3.8843999	21.1506	20.414801
466	4	4	0.082387	-4.9305	19.6924	20.4736
467	4	4	0.087081999	-4.7684002	19.6924	23.004999
468	4	4	0.087081999	-3.8268001	21.23	22.917101
469	4	3	0.078725003	-5.7350998	22.3388	21.741699
470	4	3	0.078725003	-6.6991	20.8209	21.8454
471	5	5	0.76169801	0.39320001	17.497499	22.0741
472	5	6	-0.55495799	0.42410001	16.3402	22.4606
473	5	2	-0.209613	1.5941	18.093599	21.4018
474	5	2	-0.113236	1.3392	19.550501	20.998899
475	5	2	-0.092381001	2.5702	20.1549	20.3134
476	5	2	-0.25776201	2.3153	21.611799	19.9105
477	5	5	0.51700997	3.5165999	22.2085	19.238899
478	5	6	-0.68725502	3.4865999	23.365499	18.8521
479	5	4	0.113622	2.0754001	22.2129	20.814699
480	5	4	0.113622	1.4527	21.660801	19.2111
481	5	4	0.075021997	3.4373	20.112499	21.008499
482	5	4	0.075021997	2.8145001	19.5604	19.4049
483	5	4	0.083939999	1.0949	20.145	21.9074
484	5	4	0.083939999	0.47209999	19.592899	20.303801
485	5	4	0.116871	2.4567001	18.0445	22.1012
486	5	4	0.116871	1.8339	17.4925	20.497601
487	1	1	-0.17860501	-6.6908002	20.983801	24.053101
488	1	2	0.033266	-5.6866002	20.004999	24.0448
489	1	2	-0.146835	-5.5365	19.4112	22.6416
490	1	2	-0.141856	-4.4724998	18.304199	22.6217
491	1	2	-0.137761	-4.1975999	17.7738	21.2061
492	1	2	-0.168758	-5.3627	16.939501	20.649799
493	1	2	0.086456999	-5.006	16.293301	19.310301
494	1	7	-0.68463898	-4.7908001	17.2813	18.3405
495	1	8	0.37796101	-4.5598001	16.7994	17.504101
496	1	3	0.069054	-4.0952001	15.664	19.4242
497	1	3	0.069054	-5.8495998	15.6397	18.9918
498	1	4	0.089435004	-6.2602	17.5795	20.507601
499	1	4	0.089435004	-5.6205001	16.134701	21.372299
500	1	4	0.082387	-3.2888	17.134701	21.2514
501	1	4	0.082387	-3.9776001	18.623699	20.5233
502	1	4	0.082387	-4.7845001	17.4674	23.2838
503	1	4	0.082387	-3.5208001	18.714899	23.024599
504	1	4	0.087081999	-5.2473001	20.2197	21.9345
505	1	4	0.087081999	-6.5191002	18.999901	22.325399
506	1	3	0.078725003	-5.973	19.202299	24.7582
507	1	3	0.078725003	-4.7210002	20.4417	24.3876
508	2	5	0.51700997	4.4194002	21.6238	19.0893
509	2	6	-0.68725502	5.3260999	21.697599	19.903
510	2	2	-0.25776201	4.5360999	20.7192	17.8999
511	2	2	-0.092381001	5.6518002	21.189199	16.960899
512	2	2	-0.110713	5.7522998	20.2796	15.727
513	2	2	-0.219621	6.9046001	20.685101	14.7976
514	2	5	0.82383603	6.6452999	22.002399	14.1341
515	2	6	-0.55641901	5.8685002	22.068899	13.1439
516	2	7	-0.66546601	7.2386999	23.158501	14.6313
517	2	8	0.39414999	7.0619998	24.0585	14.2009
518	2	4	0.117895	7.8559999	20.733299	15.3703
519	2	4	0.117895	7.0264001	19.907101	14.0137
520	2	4	0.083939999	5.9292002	19.2346	16.0632
521	2	4	0.083939999	4.7936001	20.2974	15.1635
522	2	4	0.075021997	6.6216998	21.1784	17.505199
523	2	4	0.075021997	5.4394999	22.232201	16.638399
524	2	4	0.113622	3.5678	20.7181	17.3535
525	2	4	0.113622	4.7420998	19.684799	18.2498
526	4	1	-0.17860501	0.76099998	18.853001	47.3573
527	4	2	0.033266	-0.25600001	18.877501	46.394001
528	4	2	-0.146835	0.3177	18.566601	45.009399
529	4	2	-0.14190701	-0.77460003	18.634001	43.9314
530	4	2	-0.143124	-0.26809999	18.1989	42.548
531	4	2	-0.140681	0.6925	19.2232	41.920898
532	4	2	0.135144	1.0604	18.847099	40.484501
533	4	1	-0.49453801	1.7755001	17.6423	40.468899
534	4	3	0.079108	0.1363	18.752701	39.8703
535	4	3	0.079108	1.6892999	19.6576	40.052799
536	4	4	0.086064003	1.626	19.2906	42.519798
537	4	4	0.086064003	0.2113	20.2253	41.912201
538	4	4	0.082213998	-1.1507	18.0819	41.882099
539	4	4	0.082213998	0.2282	17.207701	42.625599
540	4	4	0.082387	-1.1878	19.665701	43.874699
541	4	4	0.082387	-1.6058	17.954	44.220402
542	4	4	0.087081999	0.76620001	17.5487	45.022598
543	4	4	0.087081999	1.1169	19.3034	44.784801
544	4	3	0.078725003	-0.7094	19.8922	46.3881
545	4	3	0.078725003	-1.0544	18.1451	46.658199
546	5	5	0.76169801	1.9854	17.445999	39.4701
547	5	6	-0.55495799	2.3181	16.3183	39.1427
548	5	2	-0.209613	1.8846999	18.5263	38.434601
549	5	2	-0.113236	1.4531	19.857401	39.0606
550	5	2	-0.092381001	1.3530999	20.958	37.997799
551	5	2	-0.25776201	0.92159998	22.289101	38.623798
552	5	5	0.51700997	0.82169998	23.3699	37.588402
553	5	6	-0.68725502	0.48910001	24.4977	37.914902
554	5	4	0.113622	1.6627001	22.597799	39.393002
555	5	4	0.113622	-0.069600001	22.168501	39.1124
556	5	4	0.075021997	2.3424001	21.087	37.506401
557	5	4	0.075021997	0.61009997	20.6576	37.2258
558	5	4	0.083939999	2.1961999	20.1577	39.8326
559	5	4	0.083939999	0.4639	19.728399	39.551998
560	5	4	0.116871	2.8759	18.6469	37.945999
561	5	4	0.116871	1.1435	18.217501	37.665401
562	1	1	-0.17860501	0.96390003	17.896799	47.532799
563	1	2	0.033266	1.3432	17.336201	46.304699
564	1	2	-0.146835	0.1108	17.0945	45.429001
565	1	2	-0.141856	0.50059998	16.437901	44.096699
566	1	2	-0.137761	-0.68980002	16.299299	43.135201
567	1	2	-0.168758	-1.6999	15.2348	43.593201
568	1	2	0.086456999	-2.7904999	15.0033	42.546299
569	1	7	-0.68463898	-3.5576	16.1646	42.3843
570	1	8	0.37796101	-4.2374001	15.9504	41.693501
571	1	3	0.069054	-2.3288	14.7113	41.576801
572	1	3	0.069054	-3.4465001	14.1715	42.890099
573	1	4	0.089435004	-2.1817	15.5464	44.545101
574	1	4	0.089435004	-1.1706001	14.2732	43.769901
575	1	4	0.082387	-0.29170001	16.010099	42.138199
576	1	4	0.082387	-1.1974	17.282499	43.022598
577	1	4	0.082387	0.95179999	15.4393	44.2845
578	1	4	0.082387	1.2713	17.066999	43.5994
579	1	4	0.087081999	-0.39140001	18.0674	45.232899
580	1	4	0.087081999	-0.59369999	16.438499	45.984299
581	1	3	0.078725003	1.8526	16.368401	46.502899
582	1	3	0.078725003	2.0655	18.004801	45.783401
583	2	5	0.51700997	1.0414	23.1642	36.544998
584	2	6	-0.68725502	2.1582	23.392401	36.1087
585	2	2	-0.25776201	-0.0187	22.5854	35.657398
586	2	2	-0.092381001	-0.4007	23.569	34.546501
587	2	2	-0.110713	-1.5082999	22.9881	33.654202
588	2	2	-0.219621	-1.8683	23.9228	32.4911
589	2	5	0.82383603	-2.5429001	25.1709	32.970299
590	2	6	-0.55641901	-3.7630999	25.1485	33.285301
591	2	7	-0.66546601	-1.8135	26.3489	33.0975
592	2	8	0.39414999	-2.2533	27.197701	33.433102
593	2	4	0.117895	-0.9533	24.1863	31.9177
594	2	4	0.117895	-2.5534999	23.3888	31.7983
595	2	4	0.083939999	-1.1582	22.0228	33.227699
596	2	4	0.083939999	-2.4161	22.781401	34.262402