Title

15000 atoms
15375 bonds
30000 angles
65000 dihedrals
2250 impropers

11 atom types
14 bond types
9 angle types
35 dihedral types
3 improper types
-13.18170647 155.8878301 xlo xhi
-13.77422413 157.7128647 ylo yhi
-16.1012322 157.62073 zlo zhi
0.0 0.0 0.0 xy xz yz

Masses

1	12.01078
2	15.99943
3	14.00672
4	12.01078
5	1.007947
6	1.007947
7	1.007947
8	15.99943
9	12.01078
10	15.99943
11	1.007947


Pair Coeffs

1	0.086879315	3.4806469
2	0.2102061	3.0398122
3	0.16769152	3.206876
4	0.10884061	3.3795318
5	0.015779483	2.6445434
6	0.014090815	1.1034277
7	0.016409246	2.5832257
8	0.16846514	3.0251065
9	0.21	3.3996695
10	0.20947353	2.99716
11	1.2326e-05	0.53453923

Bond Coeffs

1 harmonic	582.698766451	1.225198386222
2 harmonic	492.76746816345	1.381897776683
3 harmonic	279.1350963404	1.454628925034
4 harmonic	352.0565580496	1.450098586273
5 harmonic	505.144496193	1.019481865027
6 harmonic	264.62148576755	1.52190126495
7 harmonic	370.04670688625	1.093899492634
8 harmonic	301.15400723785	1.345741232799
9 harmonic	366.7408841747	1.425895053732
10 harmonic	300.03137914615	1.451203938761
11 harmonic	366.34047229585	1.464762957261
12 harmonic	602.81384337	1.196112346392
13 harmonic	329.96998057905	1.427343958716
14 harmonic	543.5267831885	0.9716763312559


Angle Coeffs

1 harmonic	55.42182150775	117.3465570514
2 harmonic	63.44422595415	115.5071327674
3 harmonic	57.8982893754	126.8062420451
4 harmonic	53.20531626545	116.5475862634
5 harmonic	48.776492647595	115.6030999533
6 harmonic	65.09061609600001	110.3538806181
7 harmonic	201.41175231035	127.4691416191
8 harmonic	55.07882548015	112.8714009681
9 harmonic	33.56981613361	180


Dihedral Coeffs

1 fourier 1	-0.1488678166443	4	180
2 fourier 1	-0.1230328948768	3	180
3 fourier 1	0.2939295466901	2	0
4 fourier 1	-0.3024127022865	1	0
5 fourier 1	0.182238503271	2	0
6 fourier 1	0.02972342374561	3	0
7 fourier 1	1.809047390003	2	180
8 fourier 1	-0.04816277792592	1	0
9 fourier 1	3.101948770557	2	180
10 fourier 1	-0.4252153282372	1	0
11 fourier 1	2.348375642009	2	180
12 fourier 1	1.256156174911	1	0
13 fourier 1	0.9974165607242	2	180
14 fourier 1	0.1155372516788	3	0
15 fourier 1	0.1040663847541	3	0
16 fourier 1	0.09223874044423	3	0
17 fourier 1	0.3159935921949	2	180
18 fourier 1	0.3247796806857	1	180
19 fourier 1	0.1911926717192	3	0
20 fourier 1	2.779853741805	2	180
21 fourier 1	0.1918272375143	3	0
22 fourier 1	0.9202179876409	1	180
23 fourier 1	0.0473758381877	3	0
24 fourier 1	0.4860993122944	2	180
25 fourier 1	0.8916986138746	1	0
26 fourier 1	1.163809172478	2	180
27 fourier 1	0.1679186987369	1	180
28 fourier 1	0.1115525666802	3	0
29 fourier 1	0.3432490222662	1	0
30 fourier 1	0.457973137376	1	0
31 fourier 1	-1.382973039546	1	0
32 fourier 1	0	1	0
33 fourier 1	0.3445382149273	3	0
34 fourier 1	0.1364556373303	1	0
35 fourier 1	0.3026390167484	3	0


Improper Coeffs

1 0.3333333333333333	-1	2
2 0.3666666666666667	-1	2
3 3.5	-1	2


Atoms

1	6	1	0.5421853	-2.9860025	1.5586511	-4.3183686
2	6	2	-0.69536341	-4.1694809	1.1442487	-4.2014817
3	6	3	-0.49107514	-2.2810636	2.092871	-3.1944272
4	6	4	-0.0010704159	-2.9059985	2.1650612	-1.8680186
5	6	4	-0.0091834239	-2.0116631	2.8502866	-0.78461498
6	6	4	-0.1706594	-1.6693671	4.2840399	-1.2730891
7	6	5	0.071017265	-2.5982831	4.8539803	-1.4910892
8	6	5	0.071017265	-1.097476	4.8438063	-0.5009213
9	6	5	0.071017265	-1.0415656	4.2744855	-2.186099
10	6	4	-0.20598894	-0.68271646	2.0837899	-0.53981797
11	6	5	0.10973787	-0.1571541	1.8878403	-1.4976608
12	6	5	0.10973787	-0.00039582492	2.7225357	0.066610369
13	6	4	0.12716346	-0.87665547	0.75116071	0.20347003
14	6	3	-0.5195247	0.4201584	0.090447005	0.39234354
15	6	1	0.80378782	0.53586322	-1.3012464	0.70821358
16	6	2	-0.6130814	-0.48749547	-2.0272591	0.82182519
17	6	6	0.31412309	1.3057696	0.63107433	0.26434782
18	6	7	0.043913349	-1.5106326	0.086131268	-0.41822512
19	6	4	-0.20960669	-1.5317019	1.0013494	1.5733626
20	6	5	0.11128392	-0.82696491	1.6087687	2.1858866
21	6	5	0.11128392	-1.6659414	0.032359036	2.104906
22	6	4	-0.028896991	-2.8977246	1.7294635	1.4778075
23	6	4	-0.17243022	-3.2900084	2.2036572	2.8990671
24	6	5	0.074091188	-4.2756987	2.7168392	2.8809874
25	6	5	0.074091188	-2.5375815	2.9112316	3.3093916
26	6	5	0.074091188	-3.356819	1.3432022	3.6006557
27	6	4	-0.17243022	-4.0084104	0.75357169	1.0079987
28	6	5	0.074091188	-3.6764225	0.075935319	0.20234246
29	6	5	0.074091188	-4.9087752	1.3086957	0.6674249
30	6	5	0.074091188	-4.3200276	0.081591628	1.836882
31	6	4	-0.2117651	-2.7921428	2.9946896	0.56409116
32	6	5	0.11146372	-2.2742164	3.7807354	1.1607613
33	6	5	0.11146372	-3.8086549	3.4034318	0.36902743
34	6	7	0.068027027	-3.8586502	2.7306978	-1.9588374
35	6	7	0.068027027	-3.1717319	1.1388837	-1.5748216
36	6	6	0.31494399	-1.3000606	2.4035783	-3.3576823
37	7	8	-0.48775623	1.4749055	-1.7211062	0.84066083
38	7	4	0.093935631	1.4219663	-2.4543646	2.0345204
39	7	4	-0.072766476	1.4288581	-1.5162055	3.25717
40	7	5	0.087010883	0.52347779	-0.87288435	3.1873397
41	7	4	-0.16419677	1.3126456	-2.320782	4.5808302
42	7	5	0.096595846	0.77998194	-3.2830462	4.4179249
43	7	5	0.096595846	0.70356568	-1.7414145	5.3082289
44	7	4	-0.16376457	2.6849721	-2.5970964	5.2079182
45	7	5	0.09721706	2.5534916	-3.2374703	6.1075249
46	7	5	0.09721706	3.2892214	-3.1878682	4.4857739
47	7	4	-0.071960964	3.44386	-1.2862215	5.5553234
48	7	4	0.018009364	3.2609237	-0.89729508	7.0326999
49	7	8	-0.14433939	3.8519809	-1.8609613	7.8613885
50	7	7	0.097897812	2.1763052	-0.8086463	7.2688145
51	7	7	0.097897812	3.7466989	0.087573469	7.2192593
52	7	5	0.090029351	4.5293275	-1.47694	5.3945883
53	7	4	-0.16376454	3.0377427	-0.10394806	4.6387879
54	7	5	0.097217068	3.8795926	0.61966969	4.5725453
55	7	5	0.097217068	2.1624373	0.43915939	5.0611962
56	7	4	-0.16419678	2.6732656	-0.589002	3.2330497
57	7	5	0.096595846	3.5528824	-1.1220791	2.8063051
58	7	5	0.096595846	2.46835	0.28958499	2.5825018
59	7	7	0.097799174	2.3012779	-3.132761	2.0752448
60	7	7	0.097799174	0.50759116	-3.091576	2.0431086
61	4	1	0.55484842	-2.4974732	1.507955	-5.2823748
62	4	2	-0.68467391	-1.4585999	0.80764673	-5.4129569
63	4	3	-0.56987638	-3.0353806	2.2416852	-6.3880698
64	4	4	0.12501589	-2.430678	2.2089106	-7.7257504
65	4	7	0.041817464	-1.3334091	2.2986941	-7.6027384
66	4	4	-0.21071037	-2.7829866	0.87936126	-8.4180012
67	4	5	0.11128394	-2.3984373	0.03101958	-7.8101491
68	4	5	0.11128394	-3.8927131	0.78569817	-8.4362289
69	4	4	-0.029430118	-2.229768	0.77023238	-9.8631082
70	4	4	-0.17243021	-2.8917367	-0.4538209	-10.539893
71	4	5	0.074091203	-2.5156299	-0.57761055	-11.578815
72	4	5	0.074091203	-2.6733555	-1.3868293	-9.9762411
73	4	5	0.074091203	-3.997045	-0.33987924	-10.58478
74	4	4	-0.17243021	-0.7031212	0.50731047	-9.8541333
75	4	5	0.074091203	-0.1533977	1.1767149	-9.1744106
76	4	5	0.074091203	-0.48690805	-0.52296879	-9.4982646
77	4	5	0.074091203	-0.28015252	0.6098421	-10.876424
78	4	4	-0.21042637	-2.6021564	2.0380066	-10.69362
79	4	5	0.11015101	-3.6879409	1.9626015	-10.931307
80	4	5	0.11015101	-2.0901436	2.0060573	-11.679469
81	4	4	0.023690335	-2.382428	3.4270912	-10.007932
82	4	4	-0.16917742	-3.1871657	4.4860986	-10.803869
83	4	5	0.06762246	-3.0712531	5.4946831	-10.350901
84	4	5	0.06762246	-2.8412113	4.534403	-11.859359
85	4	5	0.06762246	-4.2718591	4.2432747	-10.812227
86	4	4	0.14254902	-0.89364294	3.884729	-10.005134
87	4	3	-0.63624913	-0.306371	3.7926845	-11.337891
88	4	9	0.6000688	0.90103793	4.1313908	-11.552345
89	4	2	-0.47692011	2.0755991	4.4611729	-11.760605
90	4	7	0.067189187	-0.28011958	3.3057328	-9.2960793
91	4	7	0.067189187	-0.83262653	4.9410154	-9.6566842
92	4	4	-0.20704114	-2.9428661	3.3972507	-8.5602971
93	4	5	0.10961267	-4.0545407	3.3409124	-8.5967476
94	4	5	0.10961267	-2.6846243	4.345429	-8.0377417
95	4	6	0.31100189	-3.8696568	2.844133	-6.2054746
96	5	8	-0.14433938	3.6851056	-1.5628315	8.7937201
97	5	4	0.018009346	4.4668732	-2.3801095	9.6225397
98	5	4	-0.071960956	3.8584168	-3.7921466	9.7337963
99	5	5	0.090029373	3.8407715	-4.2274993	8.7085399
100	5	4	-0.1629786	4.75067	-4.7183559	10.604758
101	5	5	0.097217068	5.8145057	-4.3965409	10.57031
102	5	5	0.097217068	4.7192671	-5.7500438	10.191139
103	5	4	-0.15591928	4.2798154	-4.7660662	12.063231
104	5	5	0.09721706	4.9911418	-5.378788	12.657302
105	5	5	0.09721706	4.3225458	-3.7360916	12.48069
106	5	4	-0.11338187	2.8273662	-5.3066793	12.189896
107	5	4	0.080123767	2.8068525	-6.808178	12.524748
108	5	10	-0.67191882	3.3631767	-7.0279553	13.791301
109	5	11	0.3806259	3.3354882	-8.0086955	13.938539
110	5	7	0.086693369	3.3795286	-7.3748526	11.755461
111	5	7	0.086693369	1.7542938	-7.1733424	12.522486
112	5	5	0.09362477	2.3458332	-4.7710357	13.040522
113	5	4	-0.15591928	1.9772395	-5.0306059	10.924253
114	5	5	0.097217068	0.90265481	-4.9733754	11.203982
115	5	5	0.097217068	2.0871141	-5.8577751	10.188587
116	5	4	-0.16297858	2.3955103	-3.7225761	10.247027
117	5	5	0.097217068	2.2755535	-2.8928577	10.979718
118	5	5	0.097217068	1.7134948	-3.5149137	9.3934002
119	5	7	0.097897812	4.5254675	-1.9145422	10.629028
120	5	7	0.097897812	5.504533	-2.4387883	9.2206492
121	6	1	0.5421853	-2.0644843	4.0258869	29.7497
122	6	2	-0.69536341	-2.6858434	4.8512815	30.469874
123	6	3	-0.49107514	-0.81728118	3.4717404	30.177462
124	6	4	-0.0010704159	-0.2265418	3.8351854	31.471313
125	6	4	-0.0091834239	1.1741069	3.1912932	31.729613
126	6	4	-0.1706594	2.1282638	3.6284001	30.585085
127	6	5	0.071017265	2.1682329	4.7367202	30.512491
128	6	5	0.071017265	3.1620652	3.259446	30.763322
129	6	5	0.071017265	1.8134496	3.2238992	29.602698
130	6	4	-0.20598894	1.118281	1.6389883	31.757451
131	6	5	0.10973787	0.60243588	1.2457413	30.856709
132	6	5	0.10973787	2.1567125	1.2366687	31.724105
133	6	4	0.12716346	0.42780153	1.077108	33.011851
134	6	3	-0.5195247	0.41390878	-0.38956182	32.960579
135	6	1	0.80378782	-0.46164189	-1.1795719	33.772532
136	6	2	-0.6130814	-1.2784266	-0.63631749	34.563103
137	6	6	0.31412309	1.0362357	-0.89502183	32.289619
138	6	7	0.043913349	-0.62464501	1.4276234	33.025679
139	6	4	-0.20960669	1.171745	1.5413329	34.276496
140	6	5	0.11128392	2.1959827	1.1040819	34.253118
141	6	5	0.11128392	0.66687283	1.1283019	35.178722
142	6	4	-0.028896991	1.2680026	3.0841802	34.401619
143	6	4	-0.17243022	2.2950249	3.4130357	35.513286
144	6	5	0.074091188	2.3828171	4.5124514	35.650565
145	6	5	0.074091188	3.3012075	3.0128781	35.262997
146	6	5	0.074091188	1.9884118	2.9631377	36.483159
147	6	4	-0.17243022	-0.089470933	3.6841826	34.85325
148	6	5	0.074091188	-0.95647565	3.214691	34.356894
149	6	5	0.074091188	-0.11938175	4.7807027	34.675601
150	6	5	0.074091188	-0.25462599	3.5138528	35.939262
151	6	4	-0.2117651	1.7856363	3.7201211	33.069532
152	6	5	0.11146372	2.8830814	3.5305289	33.027104
153	6	5	0.11146372	1.6857769	4.8274178	33.117896
154	6	7	0.068027027	-0.12758668	4.9415893	31.513932
155	6	7	0.068027027	-0.94669264	3.5496394	32.251995
156	6	6	0.31494399	-0.36409427	2.7833298	29.540069
157	7	8	-0.48775623	-0.42844775	-2.2140755	33.706763
158	7	4	0.093935631	-0.36231377	-2.6979015	35.021035
159	7	4	-0.072766476	1.0396485	-2.4730426	35.620203
160	7	5	0.087010883	1.2250767	-1.3757767	35.628926
161	7	4	-0.16419677	1.1018965	-2.9553574	37.095473
162	7	5	0.096595846	0.10010472	-2.9041659	37.57507
163	7	5	0.096595846	1.7646405	-2.2760018	37.674265
164	7	4	-0.16376457	1.6503653	-4.3832094	37.210754
165	7	5	0.09721706	1.6037241	-4.707986	38.273299
166	7	5	0.09721706	0.98013526	-5.0644224	36.642985
167	7	4	-0.071960964	3.0939547	-4.5024148	36.647874
168	7	4	0.018009364	4.149422	-4.4046955	37.763137
169	7	8	-0.14433939	4.033545	-5.4974569	38.633293
170	7	7	0.097897812	4.015396	-3.454647	38.328336
171	7	7	0.097897812	5.1673997	-4.4084042	37.310969
172	7	5	0.090029351	3.1900038	-5.5122233	36.187972
173	7	4	-0.16376454	3.3886682	-3.4568419	35.542134
174	7	5	0.097217068	4.1739043	-3.8502782	34.85998
175	7	5	0.097217068	3.7746774	-2.5118327	35.986554
176	7	4	-0.16419678	2.1298303	-3.1318649	34.73347
177	7	5	0.096595846	1.7505805	-4.0753417	34.279566
178	7	5	0.096595846	2.3952511	-2.4445022	33.900282
179	7	7	0.097799174	-0.59897656	-3.783719	35.013284
180	7	7	0.097799174	-1.1340303	-2.1921258	35.646206
181	4	1	0.55484842	-2.4819219	3.7325443	28.795638
182	4	2	-0.68467391	-2.7805253	2.5251134	28.596421
183	4	3	-0.56987638	-2.6804541	4.7185855	27.776534
184	4	4	0.12501589	-3.2528637	4.3927108	26.464176
185	4	7	0.041817464	-2.7794347	3.454929	26.112577
186	4	4	-0.21071037	-4.7751752	4.2041454	26.598507
187	4	5	0.11128394	-4.9853734	3.3806009	27.31589
188	4	5	0.11128394	-5.1980911	5.1339925	27.042494
189	4	4	-0.029430118	-5.4816223	3.9057597	25.250104
190	4	4	-0.17243021	-7.0081777	4.0336162	25.468798
191	4	5	0.074091203	-7.5579897	3.8172223	24.52698
192	4	5	0.074091203	-7.3594184	3.3236908	26.248884
193	4	5	0.074091203	-7.2826442	5.0590398	25.800277
194	4	4	-0.17243021	-5.2137537	2.4497248	24.793959
195	4	5	0.074091203	-4.151953	2.1654038	24.857692
196	4	5	0.074091203	-5.7551408	1.7309335	25.44596
197	4	5	0.074091203	-5.5638405	2.2933477	23.751137
198	4	4	-0.21042637	-5.0629022	4.9470312	24.165621
199	4	5	0.11015101	-5.5843793	5.9000166	24.412582
200	4	5	0.11015101	-5.4704994	4.645307	23.176732
201	4	4	0.023690335	-3.5384343	5.279798	24.05043
202	4	4	-0.16917742	-3.3958435	6.5976414	23.246956
203	4	5	0.06762246	-2.3268994	6.884685	23.142925
204	4	5	0.06762246	-3.8299301	6.4891264	22.229179
205	4	5	0.06762246	-3.921858	7.4356782	23.753509
206	4	4	0.14254902	-2.7243571	4.1879341	23.294763
207	4	3	-0.63624913	-3.3455731	3.8493404	22.018422
208	4	9	0.6000688	-2.8292377	2.984228	21.241552
209	4	2	-0.47692011	-2.3265254	2.1427254	20.485988
210	4	7	0.067189187	-2.5992398	3.2712115	23.893404
211	4	7	0.067189187	-1.6922859	4.5618038	23.105207
212	4	4	-0.20704114	-2.9410481	5.5204216	25.463179
213	4	5	0.10961267	-3.3454653	6.4720332	25.876948
214	4	5	0.10961267	-1.8374563	5.6440935	25.388443
215	4	6	0.31100189	-2.3669152	5.6939303	27.983166
216	5	8	-0.14433938	4.7249002	-5.3667088	39.333938
217	5	4	0.018009346	4.7815345	-6.5590945	40.069502
218	5	4	-0.071960956	3.5562842	-6.6922981	40.995496
219	5	5	0.090029373	2.6506637	-6.7095387	40.346999
220	5	4	-0.1629786	3.5849954	-8.0379916	41.770633
221	5	5	0.097217068	4.142711	-8.8146533	41.202964
222	5	5	0.097217068	2.5454863	-8.415872	41.884972
223	5	4	-0.15591928	4.2018424	-7.8856038	43.166127
224	5	5	0.09721706	4.2677243	-8.8845423	43.647911
225	5	5	0.09721706	5.2455899	-7.5190321	43.0514
226	5	4	-0.11338187	3.4051334	-6.8845621	44.049917
227	5	4	0.080123767	2.4127193	-7.6089191	44.975912
228	5	10	-0.67191882	3.1052146	-8.4017847	45.899908
229	5	11	0.3806259	2.4134948	-8.8508017	46.451455
230	5	7	0.086693369	1.7257808	-8.2438334	44.371032
231	5	7	0.086693369	1.8046044	-6.8559988	45.527761
232	5	5	0.09362477	4.1403471	-6.3567431	44.700472
233	5	4	-0.15591928	2.666967	-5.8093025	43.21343
234	5	5	0.097217068	2.5354172	-4.889509	43.82411
235	5	5	0.097217068	1.6537601	-6.1645733	42.922431
236	5	4	-0.16297858	3.4431748	-5.4654796	41.93914
237	5	5	0.097217068	4.4536499	-5.0997463	42.23041
238	5	5	0.097217068	2.9287414	-4.6354889	41.406767
239	5	7	0.097897812	5.71296	-6.5607453	40.67419
240	5	7	0.097897812	4.833781	-7.4274119	39.373088
241	6	1	0.5421853	4.0708286	0.60633598	69.284731
242	6	2	-0.69536341	5.0075921	-0.19370419	69.023153
243	6	3	-0.49107514	3.38951	1.3056112	68.239555
244	6	4	-0.0010704159	3.7490142	1.1064959	66.83022
245	6	4	-0.0091834239	2.949832	2.014125	65.839942
246	6	4	-0.1706594	3.1973703	3.4962257	66.231764
247	6	5	0.071017265	4.2858902	3.7204225	66.24183
248	6	5	0.071017265	2.7120709	4.1875881	65.508477
249	6	5	0.071017265	2.7802716	3.7388465	67.229249
250	6	4	-0.20598894	1.4210247	1.7418847	65.886583
251	6	5	0.10973787	1.0450238	1.7762462	66.930382
252	6	5	0.10973787	0.89001836	2.5518095	65.335795
253	6	4	0.12716346	1.0230094	0.39562362	65.257969
254	6	3	-0.5195247	-0.43077552	0.21379833	65.343939
255	6	1	0.80378782	-1.0567082	-1.064696	65.19021
256	6	2	-0.6130814	-0.37077474	-2.1019796	64.988213
257	6	6	0.31412309	-1.0479847	1.0303736	65.556603
258	6	7	0.043913349	1.5033573	-0.42175354	65.834039
259	6	4	-0.20960669	1.461386	0.35147	63.783465
260	6	5	0.11128392	0.89813787	1.139463	63.233359
261	6	5	0.11128392	1.1673374	-0.62475284	63.336223
262	6	4	-0.028896991	2.984472	0.56909069	63.588147
263	6	4	-0.17243022	3.2444309	0.8233803	62.082663
264	6	5	0.074091188	4.3300964	0.96695561	61.892967
265	6	5	0.074091188	2.7072382	1.7296826	61.728806
266	6	5	0.074091188	2.8927885	-0.034521184	61.468313
267	6	4	-0.17243022	3.7752819	-0.70972415	63.970195
268	6	5	0.074091188	3.3910309	-1.1998202	64.881592
269	6	5	0.074091188	4.8549087	-0.4848018	64.106671
270	6	5	0.074091188	3.6893607	-1.4798918	63.173219
271	6	4	-0.2117651	3.4731477	1.8284497	64.376838
272	6	5	0.11146372	3.1448862	2.7204888	63.794908
273	6	5	0.11146372	4.5851504	1.8703965	64.366471
274	6	7	0.068027027	4.8347926	1.3135	66.712014
275	6	7	0.068027027	3.601373	0.040806026	66.601908
276	6	6	0.31494399	2.6142996	1.9406118	68.524828
277	7	8	-0.48775623	-2.0892224	-1.1412295	65.250889
278	7	4	0.093935631	-2.5017004	-1.8943676	64.14255
279	7	4	-0.072766476	-2.4211679	-1.0597847	62.849473
280	7	5	0.087010883	-1.3572538	-0.76447281	62.710442
281	7	4	-0.16419677	-2.8224693	-1.9066821	61.610664
282	7	5	0.096595846	-2.6183581	-2.9861822	61.781659
283	7	5	0.096595846	-2.1999634	-1.6009168	60.741902
284	7	4	-0.16376457	-4.2990491	-1.7191066	61.239994
285	7	5	0.09721706	-4.5541854	-2.4005082	60.399009
286	7	5	0.09721706	-4.9218235	-2.0374387	62.10396
287	7	4	-0.071960964	-4.6308571	-0.24203235	60.889068
288	7	4	0.018009364	-4.6031914	0.0019707851	59.370164
289	7	8	-0.14433939	-5.621221	-0.73174544	58.745663
290	7	7	0.097897812	-3.6131257	-0.29677623	58.957216
291	7	7	0.097897812	-4.7607454	1.0856412	59.166245
292	7	5	0.090029351	-5.6693208	-0.041729099	61.238239
293	7	4	-0.16376454	-3.6955111	0.76379726	61.60752
294	7	5	0.097217068	-4.2229048	1.7346103	61.734405
295	7	5	0.097217068	-2.7827551	0.95606118	60.999683
296	7	4	-0.16419678	-3.2614457	0.23870527	62.978682
297	7	5	0.096595846	-4.1740759	0.05750462	63.590467
298	7	5	0.096595846	-2.6616304	1.0182562	63.497951
299	7	7	0.097799174	-3.5477748	-2.230403	64.309516
300	7	7	0.097799174	-1.8679985	-2.8067565	64.052204
301	4	1	0.55484842	3.7783498	0.76450801	70.314283
302	4	2	-0.68467391	2.6086903	0.46946771	70.677034
303	4	3	-0.56987638	4.7217341	1.3116246	71.24216
304	4	4	0.12501589	4.3960775	1.5412156	72.655441
305	4	7	0.041817464	3.3876559	1.9976151	72.699908
306	4	4	-0.21071037	4.4085048	0.19986425	73.411521
307	4	5	0.11128394	3.6602552	-0.48791182	72.95971
308	4	5	0.11128394	5.4079872	-0.26857472	73.262531
309	4	4	-0.029430118	4.1248785	0.34434625	74.929735
310	4	4	-0.17243021	4.4560437	-1.0050163	75.610981
311	4	5	0.074091203	4.2571282	-0.95110843	76.703532
312	4	5	0.074091203	3.8416472	-1.8275886	75.184613
313	4	5	0.074091203	5.5250873	-1.2760931	75.468268
314	4	4	-0.17243021	2.6230659	0.62180632	75.189415
315	4	5	0.074091203	2.2115287	1.4120602	74.542533
316	4	5	0.074091203	2.0164981	-0.28461245	74.976468
317	4	5	0.074091203	2.4526991	0.9035188	76.250597
318	4	4	-0.21042637	5.0415772	1.4386081	75.560552
319	4	5	0.11015101	6.0651277	1.0041535	75.629127
320	4	5	0.11015101	4.7375711	1.6232973	76.613426
321	4	4	0.023690335	5.1727898	2.7905287	74.783957
322	4	4	-0.16917742	6.4141891	3.5390017	75.332893
323	4	5	0.06762246	6.5580617	4.5073779	74.806199
324	4	5	0.06762246	6.3032228	3.7446777	76.419843
325	4	5	0.06762246	7.3392836	2.9388174	75.192993
326	4	4	0.14254902	3.9458407	3.7313268	74.972148
327	4	3	-0.63624913	3.6157833	3.8991224	76.383711
328	4	9	0.6000688	2.6496587	4.6401939	76.752445
329	4	2	-0.47692011	1.7098477	5.3613628	77.110765
330	4	7	0.067189187	3.0563432	3.3709693	74.430537
331	4	7	0.067189187	4.1754633	4.7297096	74.534671
332	4	4	-0.20704114	5.4166017	2.5130715	73.275911
333	4	5	0.10961267	6.4335875	2.0797015	73.140807
334	4	5	0.10961267	5.3959828	3.4709331	72.709457
335	4	6	0.31100189	5.6600774	1.5830913	70.870516
336	5	8	-0.14433938	-5.5387052	-0.54599315	57.773727
337	5	4	0.018009346	-6.6847903	-1.0768352	57.164842
338	5	4	-0.071960956	-6.6097099	-2.6151763	57.099149
339	5	5	0.090029373	-6.5498738	-2.9894285	58.146693
340	5	4	-0.1629786	-7.9018609	-3.2119258	56.477225
341	5	5	0.097217068	-8.7736459	-2.5431072	56.648019
342	5	5	0.097217068	-8.1388138	-4.1744915	56.980978
343	5	4	-0.15591928	-7.7488719	-3.475798	54.974531
344	5	5	0.09721706	-8.7190159	-3.8296779	54.564746
345	5	5	0.09721706	-7.5236745	-2.5110989	54.468974
346	5	4	-0.11338187	-6.606745	-4.4870573	54.673174
347	5	4	0.080123767	-7.1464415	-5.9161293	54.490074
348	5	10	-0.67191882	-7.9660756	-5.980998	53.356078
349	5	11	0.3806259	-8.2922779	-6.9165307	53.304427
350	5	7	0.086693369	-7.7233778	-6.2208456	55.392943
351	5	7	0.086693369	-6.2927327	-6.6203052	54.361436
352	5	5	0.09362477	-6.139343	-4.1833409	53.707957
353	5	4	-0.15591928	-5.4966833	-4.4703439	55.754039
354	5	5	0.097217068	-4.5342978	-4.7968379	55.30296
355	5	5	0.097217068	-5.7376923	-5.1798104	56.576266
356	5	4	-0.16297858	-5.3265552	-3.0726873	56.35582
357	5	5	0.097217068	-5.0748249	-2.3641759	55.53466
358	5	5	0.097217068	-4.4701964	-3.0786022	57.06544
359	5	7	0.097897812	-6.769084	-0.65942579	56.139236
360	5	7	0.097897812	-7.5911109	-0.75958432	57.730202
361	6	1	0.5421853	2.8954279	3.52427	101.53891
362	6	2	-0.69536341	2.6995192	3.3076965	102.76395
363	6	3	-0.49107514	3.0605973	2.4413323	100.61938
364	6	4	-0.0010704159	2.9955235	1.0450427	101.06799
365	6	4	-0.0091834239	3.2777634	0.0040761553	99.936682
366	6	4	-0.1706594	4.6864945	0.29328473	99.350801
367	6	5	0.071017265	5.4539327	0.27762991	100.15456
368	6	5	0.071017265	4.9688763	-0.46989508	98.592871
369	6	5	0.071017265	4.7322818	1.2763203	98.841529
370	6	4	-0.20598894	2.2397312	0.083846581	98.78357
371	6	5	0.10973787	2.1340926	1.1266382	98.418192
372	6	5	0.10973787	2.6088162	-0.51472424	97.919393
373	6	4	0.12716346	0.85138085	-0.44923387	99.176379
374	6	3	-0.5195247	-0.067979361	-0.33701754	98.037903
375	6	1	0.80378782	-1.4904592	-0.39860668	98.188668
376	6	2	-0.6130814	-2.0162894	-0.53738301	99.325114
377	6	6	0.31412309	0.30833952	-0.17348865	97.076337
378	6	7	0.043913349	0.45069733	0.1755573	100.00087
379	6	4	-0.20960669	0.95511965	-1.9216978	99.61155
380	6	5	0.11128392	1.2886048	-2.5178028	98.731639
381	6	5	0.11128392	-0.053972556	-2.2996317	99.89155
382	6	4	-0.028896991	1.9347187	-2.1460894	100.79279
383	6	4	-0.17243022	2.1942664	-3.6677046	100.91947
384	6	5	0.074091188	2.8796397	-3.8772346	101.76896
385	6	5	0.074091188	2.653769	-4.0761912	99.993635
386	6	5	0.074091188	1.2443186	-4.2197241	101.09252
387	6	4	-0.17243022	1.2964846	-1.6870096	102.13018
388	6	5	0.074091188	0.73481492	-0.74110171	102.03922
389	6	5	0.074091188	2.0676561	-1.5765062	102.92258
390	6	5	0.074091188	0.55031175	-2.4297197	102.487
391	6	4	-0.2117651	3.3075905	-1.448367	100.51851
392	6	5	0.11146372	3.8516925	-2.0854977	99.783566
393	6	5	0.11146372	3.9321159	-1.4724295	101.43928
394	6	7	0.068027027	3.7390194	0.90258815	101.88203
395	6	7	0.068027027	2.0019949	0.89009386	101.51354
396	6	6	0.31494399	3.2041001	2.6910186	99.618067
397	7	8	-0.48775623	-2.0989571	-0.32281	97.352241
398	7	4	0.093935631	-3.0232061	-1.3741068	97.431676
399	7	4	-0.072766476	-2.3549824	-2.7209152	97.093082
400	7	5	0.087010883	-1.5497044	-2.8898485	97.842376
401	7	4	-0.16419677	-3.3606689	-3.8962107	97.235209
402	7	5	0.096595846	-4.1545865	-3.6552955	97.975395
403	7	5	0.096595846	-2.8258673	-4.7895702	97.624631
404	7	4	-0.16376457	-4.0080809	-4.2641094	95.894173
405	7	5	0.09721706	-4.7716624	-5.0550143	96.061716
406	7	5	0.09721706	-4.5539479	-3.3746904	95.51131
407	7	4	-0.071960964	-2.956871	-4.7099237	94.840038
408	7	4	0.018009364	-2.8300388	-6.2419592	94.775602
409	7	8	-0.14433939	-4.029001	-6.8058883	94.318219
410	7	7	0.097897812	-2.5832018	-6.6436604	95.78442
411	7	7	0.097897812	-2.0099464	-6.5164597	94.073572
412	7	5	0.090029351	-3.316565	-4.3647832	93.844072
413	7	4	-0.16376454	-1.5658504	-4.0696771	95.08063
414	7	5	0.097217068	-1.0168052	-4.002943	94.115841
415	7	5	0.097217068	-0.95692339	-4.6979537	95.769129
416	7	4	-0.16419678	-1.6946538	-2.6707437	95.689413
417	7	5	0.096595846	-2.2939149	-2.0392703	94.995053
418	7	5	0.096595846	-0.68524084	-2.2107732	95.770842
419	7	7	0.097799174	-3.8517252	-1.17475	96.718317
420	7	7	0.097799174	-3.4642106	-1.4093415	98.454646
421	4	1	0.55484842	2.9378848	4.543733	101.17914
422	4	2	-0.68467391	2.0906271	4.9368926	100.33397
423	4	3	-0.56987638	3.9582906	5.423574	101.66383
424	4	4	0.12501589	4.067327	6.8214275	101.22765
425	4	7	0.041817464	3.9212157	6.8451115	100.1298
426	4	4	-0.21071037	2.9866213	7.6655069	101.92811
427	4	5	0.11128394	1.9802736	7.2681484	101.6704
428	4	5	0.11128394	3.1113331	7.5384336	103.02761
429	4	4	-0.029430118	3.0524882	9.1733416	101.56979
430	4	4	-0.17243021	2.1293981	9.9401689	102.54674
431	4	5	0.074091203	2.137218	11.028553	102.31981
432	4	5	0.074091203	1.0816352	9.575911	102.47321
433	4	5	0.074091203	2.4582649	9.805454	103.6005
434	4	4	-0.17243021	2.5067698	9.4285735	100.14259
435	4	5	0.074091203	2.9166207	8.7342742	99.392731
436	4	5	0.074091203	1.4054925	9.2827869	100.1143
437	4	5	0.074091203	2.720402	10.47012	99.820047
438	4	4	-0.21042637	4.5029605	9.7204125	101.75012
439	4	5	0.11015101	4.6826572	9.8078928	102.8461
440	4	5	0.11015101	4.5631713	10.761482	101.3659
441	4	4	0.023690335	5.6675042	8.8537479	101.1664
442	4	4	-0.16917742	6.9927136	9.3391042	101.80738
443	4	5	0.06762246	7.8551603	8.7473363	101.43075
444	4	5	0.06762246	7.1751518	10.410871	101.57477
445	4	5	0.06762246	6.967145	9.2306553	102.91336
446	4	4	0.14254902	5.8239933	8.9905212	99.62279
447	4	3	-0.63624913	5.878339	10.390842	99.215667
448	4	9	0.6000688	6.0154595	10.718565	97.994052
449	4	2	-0.47692011	6.1490602	11.036972	96.80557
450	4	7	0.067189187	5.0140194	8.4830201	99.074346
451	4	7	0.067189187	6.7628156	8.4849134	99.300526
452	4	4	-0.20704114	5.4687183	7.3653571	101.56112
453	4	5	0.10961267	5.6332251	7.249616	102.6565
454	4	5	0.10961267	6.2325792	6.7362375	101.05169
455	4	6	0.31100189	4.6623966	5.0253918	102.32563
456	5	8	-0.14433938	-3.8884296	-7.7888465	94.316244
457	5	4	0.018009346	-4.9827944	-8.3495295	93.642415
458	5	4	-0.071960956	-6.2477769	-8.312755	94.522706
459	5	5	0.090029373	-6.4675553	-7.2431305	94.743148
460	5	4	-0.1629786	-7.4761365	-8.8805981	93.760316
461	5	5	0.097217068	-7.3623497	-8.746447	92.662338
462	5	5	0.097217068	-8.3844532	-8.3111947	94.055589
463	5	4	-0.15591928	-7.7112679	-10.363669	94.070701
464	5	5	0.09721706	-8.5503603	-10.739289	93.446868
465	5	5	0.09721706	-6.8074931	-10.9349	93.764381
466	5	4	-0.11338187	-7.979331	-10.607796	95.582806
467	5	4	0.080123767	-9.4852192	-10.689448	95.887237
468	5	10	-0.67191882	-10.045018	-11.808454	95.257631
469	5	11	0.3806259	-11.012234	-11.794115	95.478047
470	5	7	0.086693369	-9.9928538	-9.7625766	95.534962
471	5	7	0.086693369	-9.6358747	-10.778994	96.987471
472	5	5	0.09362477	-7.5344931	-11.59573	95.844451
473	5	4	-0.15591928	-7.3095282	-9.5414218	96.485577
474	5	5	0.097217068	-7.1031948	-9.9790354	97.486664
475	5	5	0.097217068	-7.9862493	-8.6711894	96.634674
476	5	4	-0.16297858	-6.0002338	-9.0363194	95.873083
477	5	5	0.097217068	-5.3185684	-9.9055272	95.733552
478	5	5	0.097217068	-5.5071163	-8.3363325	96.582872
479	5	7	0.097897812	-4.738135	-9.3999175	93.377781
480	5	7	0.097897812	-5.1601277	-7.7978274	92.69064
481	6	1	0.5421853	-4.2201326	-2.4255356	128.83301
482	6	2	-0.69536341	-4.3098993	-2.0210999	127.64373
483	6	3	-0.49107514	-2.9466206	-2.7177159	129.41471
484	6	4	-0.0010704159	-1.7039018	-2.5452546	128.65246
485	6	4	-0.0091834239	-0.4208604	-2.9894491	129.42682
486	6	4	-0.1706594	-0.58303028	-4.4831207	129.81933
487	6	5	0.071017265	-0.78163486	-5.1036655	128.91893
488	6	5	0.071017265	0.33847495	-4.8711023	130.3061
489	6	5	0.071017265	-1.4100525	-4.637086	130.54054
490	6	4	-0.20598894	-0.19266039	-2.1625854	130.7221
491	6	5	0.10973787	-1.1102833	-2.1445017	131.34638
492	6	5	0.10973787	0.59403266	-2.657765	131.33629
493	6	4	0.12716346	0.25315438	-0.71578392	130.45007
494	6	3	-0.5195247	0.44401905	-0.0041613715	131.71936
495	6	1	0.80378782	0.49370035	1.424441	131.80059
496	6	2	-0.6130814	0.35685407	2.1372481	130.77082
497	6	6	0.31412309	0.51646275	-0.54076615	132.61366
498	6	7	0.043913349	-0.54850354	-0.19676476	129.88557
499	6	4	-0.20960669	1.569744	-0.71015241	129.65329
500	6	5	0.11128392	2.3586289	-1.172958	130.28912
501	6	5	0.11128392	1.885912	0.34027314	129.46318
502	6	4	-0.028896991	1.4757928	-1.4713006	128.30529
503	6	4	-0.17243022	2.9133816	-1.6700048	127.76438
504	6	5	0.074091188	2.8928348	-2.1974269	126.78628
505	6	5	0.074091188	3.5294735	-2.2691321	128.46911
506	6	5	0.074091188	3.4235249	-0.69178424	127.62327
507	6	4	-0.17243022	0.71222788	-0.62792758	127.25058
508	6	5	0.074091188	-0.1707234	-0.11196708	127.66612
509	6	5	0.074091188	0.3941598	-1.2570278	126.39159
510	6	5	0.074091188	1.3576689	0.18490863	126.85257
511	6	4	-0.2117651	0.84144351	-2.8867551	128.50755
512	6	5	0.11146372	1.6301259	-3.531736	128.95934
513	6	5	0.11146372	0.62476153	-3.3465679	127.51758
514	6	7	0.068027027	-1.781763	-3.1374978	127.71495
515	6	7	0.068027027	-1.6450215	-1.487525	128.35689
516	6	6	0.31494399	-2.9433181	-3.0336104	130.40756
517	7	8	-0.48775623	0.63907888	1.881447	132.72018
518	7	4	0.093935631	1.6555428	2.8303028	132.54061
519	7	4	-0.072766476	3.0311452	2.1464179	132.4178
520	7	5	0.087010883	2.9937761	1.4830113	131.52509
521	7	4	-0.16419677	4.1537665	3.1889946	132.16152
522	7	5	0.096595846	3.7523931	4.0903401	131.64898
523	7	5	0.096595846	4.9124334	2.7485366	131.47875
524	7	4	-0.16376457	4.85463	3.6097926	133.45944
525	7	5	0.09721706	5.5939549	4.4090427	133.23304
526	7	5	0.09721706	4.0983688	4.0623521	134.13685
527	7	4	-0.071960964	5.5272703	2.4068446	134.1774
528	7	4	0.018009364	7.0248245	2.3069856	133.83868
529	7	8	-0.14433939	7.7073886	3.4247109	134.3382
530	7	7	0.097897812	7.15941	2.243058	132.73514
531	7	7	0.097897812	7.4487801	1.3870604	134.30209
532	7	5	0.090029351	5.4464613	2.5854785	135.27376
533	7	4	-0.16376454	4.8207644	1.0615582	133.87114
534	7	5	0.097217068	4.9844472	0.35647246	134.71541
535	7	5	0.097217068	5.2471762	0.59219264	132.95603