Title

540 atoms
549 bonds
972 angles
1832 dihedrals
261 impropers

11 atom types
16 bond types
10 angle types
43 dihedral types
3 improper types
-12.74100018 87.25899982 xlo xhi
-7.80700016 92.19299984 ylo yhi
-14.57400036 85.42599964 zlo zhi
0.0 0.0 0.0 xy xz yz

Masses

1	12.01078
2	15.99943
3	1.007947
4	15.99943
5	12.01078
6	15.99943
7	1.007947
8	1.007947
9	14.00672
10	1.007947
11	1.007947


Pair Coeffs

1	0.10884061	3.3795318
2	0.20947353	2.99716
3	1.2326e-05	0.53453923
4	0.16846514	3.0251065
5	0.086879315	3.4806469
6	0.2102061	3.0398122
7	0.016409246	2.5832257
8	0.015611343	2.5725815
9	0.16769152	3.206876
10	0.014090815	1.1034277
11	0.015779483	2.6445434

Bond Coeffs

1 harmonic	329.96998057905	1.427343958716
2 harmonic	264.62148576755	1.52190126495
3 harmonic	370.04670688625	1.093899492634
4 harmonic	543.5267831885	0.9716763312559
5 harmonic	366.7408841747	1.425895053732
6 harmonic	301.15400723785	1.345741232799
7 harmonic	582.698766451	1.225198386222
8 harmonic	279.1350963404	1.454628925034
9 harmonic	425.69104206635	1.362945806494
10 harmonic	360.7852444772	1.387193227181
11 harmonic	397.2545789619	1.085358495916
12 harmonic	492.76746816345	1.381897776683
13 harmonic	505.144496193	1.019481865027
14 harmonic	352.0565580496	1.450098586273
15 harmonic	366.34047229585	1.464762957261
16 harmonic	422.7150220147	1.421786517481


Angle Coeffs

1 harmonic	65.09061609600001	110.3538806181
2 harmonic	53.20531626545	116.5475862634
3 harmonic	201.41175231035	127.4691416191
4 harmonic	57.8982893754	126.8062420451
5 harmonic	48.776492647595	115.6030999533
6 harmonic	34.066775159195	129.1835929926
7 harmonic	55.42182150775	117.3465570514
8 harmonic	63.44422595415	115.5071327674
9 harmonic	94.53012429075	110.92021963
10 harmonic	49.015990027215	114.8414599994


Dihedral Coeffs

1 fourier 1	0.1918272375143	3	0
2 fourier 1	0.9202179876409	1	180
3 fourier 1	-0.0309670556842	3	0
4 fourier 1	0.4598191477945	2	0
5 fourier 1	0.1115525666802	3	0
6 fourier 1	0.3432490222662	1	0
7 fourier 1	0.3445382149273	3	0
8 fourier 1	0.1364556373303	1	0
9 fourier 1	0.3026390167484	3	0
10 fourier 1	0.1155372516788	3	0
11 fourier 1	0.1040663847541	3	0
12 fourier 1	1.163809172478	2	180
13 fourier 1	0.1679186987369	1	180
14 fourier 1	2.779853741805	2	180
15 fourier 1	0.9974165607242	2	180
16 fourier 1	0.0473758381877	3	0
17 fourier 1	0.1911926717192	3	0
18 fourier 1	1.532232714475	2	180
19 fourier 1	3.661930099076	2	180
20 fourier 1	1.809047390003	2	180
21 fourier 1	-0.04816277792592	1	0
22 fourier 1	-0.1488678166443	4	180
23 fourier 1	-0.1230328948768	3	180
24 fourier 1	0.2939295466901	2	0
25 fourier 1	-0.3024127022865	1	0
26 fourier 1	0.182238503271	2	0
27 fourier 1	0.02972342374561	3	0
28 fourier 1	0.4860993122944	2	180
29 fourier 1	0.8916986138746	1	0
30 fourier 1	0.09223874044423	3	0
31 fourier 1	0.3159935921949	2	180
32 fourier 1	0.3247796806857	1	180
33 fourier 1	0.2036670163956	3	0
34 fourier 1	0.3917343745784	3	0
35 fourier 1	0.9467782973395	2	0
36 fourier 1	0.2726597146827	1	0
37 fourier 1	0.774151252041	3	0
38 fourier 1	1.087509576657	2	0
39 fourier 1	1.518874939494	1	0
40 fourier 1	0.6761465733405	3	0
41 fourier 1	1.653011589151	2	0
42 fourier 1	1.713184811193	1	0
43 fourier 1	1.659715194912	2	180


Improper Coeffs

1 3.5	-1	2
2 0.3666666666666667	-1	2
3 0.3333333333333333	-1	2


Atoms

1	1	1	0.146795	-3.8139999	1.5880001	-2.539
2	1	2	-0.69410598	-3.0079999	1.8329999	-3.6659999
3	1	3	0.41962299	-2.776	0.95499998	-4.0679998
4	1	1	0.110303	-5.1719999	0.99400002	-2.9560001
5	1	4	-0.48802701	-5.0180001	-0.243	-3.654
6	1	5	0.63049501	-5.0630002	-1.4960001	-3.0350001
7	1	6	-0.51126403	-5.2909999	-1.609	-1.801
8	1	7	0.103513	-5.6700001	1.715	-3.6389999
9	1	7	0.103513	-5.836	0.87400001	-2.072
10	1	7	0.104288	-4.0219998	2.5680001	-2.0569999
11	1	1	0.054981999	-3.075	0.71899998	-1.512
12	1	4	-0.394532	-1.901	1.398	-1.071
13	1	5	0.162039	-0.99000001	0.89099997	-0.131
14	1	5	-0.343725	-1.145	-0.30899999	0.461
15	1	5	-0.343725	-0.15099999	-0.79000002	1.441
16	1	5	0.162834	0.91900003	-0.046	1.757
17	1	5	-0.343725	1.086	1.284	1.107
18	1	5	-0.343725	0.184	1.7180001	0.21799999
19	1	8	0.219338	0.31400001	2.6849999	-0.252
20	1	8	0.219338	1.928	1.921	1.331
21	1	4	-0.40525401	1.831	-0.565	2.691
22	1	1	0.094049998	3.0639999	0.035	3.0929999
23	1	1	0.17469899	4.2589998	-0.54100001	2.3139999
24	1	1	0.093782999	4.27	-0.114	0.838
25	1	2	-0.67202199	3.2939999	-0.81199998	0.115
26	1	3	0.39987001	3.325	-0.45199999	-0.80900002
27	1	7	0.104816	5.27	-0.333	0.40400001
28	1	7	0.104816	4.1009998	0.98299998	0.75700003
29	1	4	-0.49149501	4.2529998	-1.966	2.4289999
30	1	5	0.788526	5.368	-2.767	2.161
31	1	6	-0.58095002	6.4759998	-2.26	1.841
32	1	7	0.114889	5.1789999	-0.139	2.796
33	1	7	0.093578003	3.0350001	1.141	3.0409999
34	1	7	0.093578003	3.217	-0.211	4.165
35	1	8	0.219338	-0.29100001	-1.7589999	1.903
36	1	8	0.219338	-1.99	-0.94499999	0.235
37	1	7	0.102961	-3.7409999	0.53299999	-0.64099997
38	1	7	0.102961	-2.7880001	-0.25099999	-1.97
39	1	9	-0.45634699	2.934	1.834	5.671
40	1	10	0.33487099	3.901	2.1849999	5.8639998
41	1	1	0.030169999	3.013	0.43200001	5.2680001
42	1	1	-0.140414	3.7030001	-0.41999999	6.3460002
43	1	1	-0.138436	3.675	-1.923	6.0229998
44	1	1	-0.138436	4.6100001	-2.296	4.862
45	1	1	-0.140414	4.6399999	-3.8169999	4.651
46	1	1	0.030169999	5.6630001	-4.2459998	3.5840001
47	1	9	-0.45759001	5.2789998	-3.8239999	2.237
48	1	10	0.33487099	4.2810001	-4.0819998	2.062
49	1	7	0.071110003	5.743	-5.3540001	3.596
50	1	7	0.071110003	6.6669998	-3.839	3.8310001
51	1	11	0.098568	4.9190001	-4.3099999	5.6079998
52	1	11	0.098568	3.6270001	-4.1789999	4.368
53	1	11	0.097065002	5.638	-1.9349999	5.085
54	1	11	0.097065002	4.2509999	-1.807	3.934
55	1	11	0.097065002	3.9960001	-2.474	6.934
56	1	11	0.097065002	2.635	-2.2379999	5.789
57	1	11	0.098568	4.7540002	-0.082000002	6.48
58	1	11	0.098568	3.1760001	-0.26800001	7.3130002
59	1	7	0.071110003	3.5769999	0.37099999	4.3130002
60	1	7	0.071110003	1.984	0.050999999	5.0869999
61	1	1	0.150241	-0.63	2.8499999	7.7459998
62	1	2	-0.69410598	-1.451	2.9200001	6.6059999
63	1	3	0.41962299	-0.86000001	3.0139999	5.8130002
64	1	1	0.090181999	0.20200001	1.554	7.7420001
65	1	4	-0.48149201	1.048	1.47	6.5949998
66	1	5	0.79239798	2.378	1.902	6.5760002
67	1	6	-0.571639	2.9319999	2.3610001	7.6100001
68	1	7	0.114377	-0.49900001	0.69300002	7.717
69	1	7	0.114377	0.79100001	1.4630001	8.6809998
70	1	7	0.104288	-1.296	2.8069999	8.6359997
71	1	1	0.054981999	0.235	4.1110001	7.881
72	1	4	-0.394532	-0.60799998	5.2540002	8.0190001
73	1	5	0.162039	-0.15000001	6.572	8.1639996
74	1	5	-0.343725	1.159	6.8899999	8.1929998
75	1	5	-0.343725	1.581	8.2969999	8.3459997
76	1	5	0.162834	0.67299998	9.2779999	8.4549999
77	1	5	-0.343725	-0.77399999	8.9250002	8.4300003
78	1	5	-0.343725	-1.154	7.6490002	8.29
79	1	8	0.219338	-2.2079999	7.401	8.2700005
80	1	8	0.219338	-1.54	9.6789999	8.5190001
81	1	4	-0.40525401	1.141	10.596	8.5900002
82	1	1	0.094049998	0.33899999	11.778	8.6379995
83	1	1	0.17469899	0.23899999	12.455	7.2610002
84	1	1	0.093782999	-0.60299999	11.65	6.2600002
85	1	2	-0.67202199	0.107	10.532	5.8039999
86	1	3	0.39987001	-0.51099998	10.036	5.2059999
87	1	7	0.104816	-0.85500002	12.298	5.3920002
88	1	7	0.104816	-1.5599999	11.335	6.7329998
89	1	4	-0.49149501	1.5549999	12.68	6.75
90	1	5	0.788526	1.842	13.581	5.7199998
91	1	6	-0.58095002	0.93900001	14.293	5.2049999
92	1	7	0.114889	-0.26199999	13.437	7.4219999
93	1	7	0.093578003	-0.66100001	11.594	9.0780001
94	1	7	0.093578003	0.84200001	12.492	9.3240004
95	1	8	0.219338	2.638	8.5319996	8.3629999
96	1	8	0.219338	1.926	6.132	8.1040001
97	1	7	0.102961	0.88	4.02	8.7819996
98	1	7	0.102961	0.87400001	4.2329998	6.98
99	1	9	-0.45634699	-0.44	12.788	11.515
100	1	10	0.33487099	-0.99900001	13.666	11.404
101	1	1	0.030169999	0.67000002	12.813	10.564
102	1	1	-0.140414	1.55	14.058	10.768
103	1	1	-0.138436	2.8080001	14.045	9.8839998
104	1	1	-0.138436	2.4909999	14.281	8.3999996
105	1	1	-0.140414	3.7809999	14.377	7.572
106	1	1	0.030169999	3.5150001	14.743	6.1009998
107	1	9	-0.45759001	2.8410001	13.67	5.3699999
108	1	10	0.33487099	3.3329999	12.765	5.5469999
109	1	7	0.071110003	4.4889998	14.949	5.6059999
110	1	7	0.071110003	2.9100001	15.674	6.0409999
111	1	11	0.098568	4.4320002	15.168	8.007
112	1	11	0.098568	4.3379998	13.416	7.6269999
113	1	11	0.097065002	1.9119999	15.224	8.2910004
114	1	11	0.097065002	1.878	13.438	8.0190001
115	1	11	0.097065002	3.483	14.854	10.24
116	1	11	0.097065002	3.346	13.08	10.008
117	1	11	0.098568	0.958	14.977	10.568
118	1	11	0.098568	1.878	14.093	11.83
119	1	7	0.071110003	0.25299999	12.804	9.5349998
120	1	7	0.071110003	1.279	11.893	10.699
121	1	1	0.150241	0.41	10.721	15.127
122	1	2	-0.69410598	0.25299999	9.427	14.598
123	1	3	0.41962299	-0.26100001	9.5059996	13.752
124	1	1	0.090181999	1.311	11.578	14.218
125	1	4	-0.48149201	0.76499999	11.711	12.904
126	1	5	0.79239798	-0.046	12.777	12.503
127	1	6	-0.571639	-0.31400001	13.727	13.286
128	1	7	0.114377	2.296	11.073	14.132
129	1	7	0.114377	1.4960001	12.574	14.677
130	1	7	0.104288	0.93300003	10.623	16.104
131	1	1	0.054981999	-0.95200002	11.374	15.4
132	1	4	-0.394532	-1.67	10.595	16.355
133	1	5	0.162039	-2.9530001	10.902	16.834
134	1	5	-0.343725	-3.641	11.988	16.431999
135	1	5	-0.343725	-4.9899998	12.257	16.971001
136	1	5	0.162834	-5.5510001	11.428	17.863001
137	1	5	-0.343725	-4.7859998	10.231	18.312
138	1	5	-0.343725	-3.5650001	9.9879999	17.822001
139	1	8	0.219338	-3.017	9.1140003	18.150999
140	1	8	0.219338	-5.1950002	9.5380001	19.031
141	1	4	-0.40525401	-6.8390002	11.737	18.33
142	1	1	0.094049998	-7.6329999	10.941	19.212999
143	1	1	0.17469899	-8.6350002	10.064	18.444
144	1	1	0.093782999	-7.9559999	8.9280005	17.664
145	1	2	-0.67202199	-7.316	9.427	16.521
146	1	3	0.39987001	-6.862	8.6520004	16.099001
147	1	7	0.104816	-8.7270002	8.1879997	17.354
148	1	7	0.104816	-7.2259998	8.3999996	18.316999
149	1	4	-0.49149501	-9.408	10.888	17.569
150	1	5	0.788526	-10.625	10.49	17.006001
151	1	6	-0.58095002	-11.14	9.3739996	17.284
152	1	7	0.114889	-9.3079996	9.6059999	19.202999
153	1	7	0.093578003	-7.0180001	10.344	19.914
154	1	7	0.093578003	-8.2209997	11.638	19.848
155	1	8	0.219338	-5.5279999	13.133	16.632
156	1	8	0.219338	-3.23	12.682	15.712
157	1	7	0.102961	-0.796	12.398	15.804
158	1	7	0.102961	-1.541	11.434	14.459
159	1	9	-0.45634699	-7.4070001	11.651	22.27
160	1	10	0.33487099	-8.0530005	11.015	22.794001
161	1	1	0.030169999	-8.0719995	12.096	21.047001
162	1	1	-0.140414	-9.4029999	12.799	21.361
163	1	1	-0.138436	-10.061	13.409	20.113001
164	1	1	-0.138436	-10.631	12.344	19.164
165	1	1	-0.140414	-11.379	12.998	17.992001
166	1	1	0.030169999	-12.077	11.967	17.087999
167	1	9	-0.45759001	-11.128	11.145	16.337
168	1	10	0.33487099	-10.415	11.762	15.884
169	1	7	0.071110003	-12.721	12.511	16.363001
170	1	7	0.071110003	-12.741	11.313	17.694
171	1	11	0.098568	-12.159	13.68	18.396999
172	1	11	0.098568	-10.674	13.612	17.389999
173	1	11	0.097065002	-11.328	11.685	19.725
174	1	11	0.097065002	-9.7989998	11.728	18.764999
175	1	11	0.097065002	-10.889	14.069	20.452
176	1	11	0.097065002	-9.3249998	14.044	19.572001
177	1	11	0.098568	-10.104	12.084	21.846001
178	1	11	0.098568	-9.2110004	13.622	22.084
179	1	7	0.071110003	-8.25	11.211	20.400999
180	1	7	0.071110003	-7.3959999	12.791	20.504
181	1	1	0.150241	-4.704	14.487	23.912001
182	1	2	-0.69410598	-3.6570001	14.234	23.007999
183	1	3	0.41962299	-3.8269999	13.351	22.587
184	1	1	0.090181999	-6.0370002	14.677	23.165001
185	1	4	-0.48149201	-6.3909998	13.519	22.406
186	1	5	0.79239798	-7.2160001	12.497	22.886
187	1	6	-0.571639	-7.743	12.562	24.028999
188	1	7	0.114377	-5.921	15.527	22.459999
189	1	7	0.114377	-6.848	14.953	23.874001
190	1	7	0.104288	-4.4790001	15.447	24.426001
191	1	1	0.054981999	-4.777	13.396	24.989
192	1	4	-0.394532	-3.5569999	13.375	25.728001
193	1	5	0.162039	-3.2809999	12.499	26.790001
194	1	5	-0.343725	-4.164	11.579	27.224001
195	1	5	-0.343725	-3.8139999	10.683	28.346001
196	1	5	0.162834	-2.619	10.768	28.945999
197	1	5	-0.343725	-1.646	11.79	28.469
198	1	5	-0.343725	-1.964	12.601	27.452
199	1	8	0.219338	-1.25	13.339	27.110001
200	1	8	0.219338	-0.67299998	11.899	28.923
201	1	4	-0.40525401	-2.3469999	9.8809996	30.000999
202	1	1	0.094049998	-1.11	9.7600002	30.708
203	1	1	0.17469899	-0.245	8.618	30.150999
204	1	1	0.093782999	0.32100001	8.9239998	28.754999
205	1	2	-0.67202199	-0.68099999	8.816	27.782
206	1	3	0.39987001	-0.259	9.0740004	26.921
207	1	7	0.104816	1.132	8.1990004	28.524
208	1	7	0.104816	0.76700002	9.9429998	28.74
209	1	4	-0.49149501	-1.011	7.4109998	30.132999
210	1	5	0.788526	-0.44499999	6.1360002	30.035
211	1	6	-0.58095002	0.80500001	5.9770002	30.004
212	1	7	0.114889	0.61299998	8.4949999	30.85
213	1	7	0.093578003	-0.551	10.716	30.750999
214	1	7	0.093578003	-1.355	9.5080004	31.761
215	1	8	0.219338	-4.5359998	9.9469995	28.677
216	1	8	0.219338	-5.138	11.472	26.768
217	1	7	0.102961	-5.6209998	13.616	25.679001
218	1	7	0.102961	-4.9369998	12.403	24.516001
219	1	9	-0.45634699	-0.87400001	11.45	33.352001
220	1	10	0.33487099	0.061000001	11.249	33.776001
221	1	1	0.030169999	-1.442	10.2	32.848999
222	1	1	-0.140414	-1.558	9.151	33.967999
223	1	1	-0.138436	-2.2839999	7.8759999	33.512001
224	1	1	-0.138436	-1.441	7.0279999	32.546001
225	1	1	-0.140414	-2.154	5.71	32.209
226	1	1	0.030169999	-1.289	4.7729998	31.349001
227	1	9	-0.45759001	-1.081	5.2859998	29.995001
228	1	10	0.33487099	-1.999	5.5819998	29.59
229	1	7	0.071110003	-1.798	3.7869999	31.277
230	1	7	0.071110003	-0.30500001	4.6020002	31.839001
231	1	11	0.098568	-2.3959999	5.177	33.154999
232	1	11	0.098568	-3.1129999	5.9219999	31.687
233	1	11	0.097065002	-0.45699999	6.8060002	33.013
234	1	11	0.097065002	-1.274	7.5999999	31.611
235	1	11	0.097065002	-2.5109999	7.27	34.417
236	1	11	0.097065002	-3.2520001	8.1429996	33.035
237	1	11	0.098568	-0.546	8.8929996	34.351002
238	1	11	0.098568	-2.1340001	9.5900002	34.811001
239	1	7	0.071110003	-0.79100001	9.8199997	32.034
240	1	7	0.071110003	-2.447	10.409	32.421001
241	1	1	0.150241	-3.7639999	14.252	34.709
242	1	2	-0.69410598	-4.145	14.702	33.431999
243	1	3	0.41962299	-3.4289999	14.445	32.793999
244	1	1	0.090181999	-3.7449999	12.714	34.764
245	1	4	-0.48149201	-2.829	12.159	33.819
246	1	5	0.79239798	-1.5039999	11.829	34.120998
247	1	6	-0.571639	-1.044	11.967	35.285999
248	1	7	0.114377	-4.763	12.346	34.513
249	1	7	0.114377	-3.5190001	12.36	35.793999
250	1	7	0.104288	-4.5370002	14.595	35.43
251	1	1	0.054981999	-2.4289999	14.878	35.137001
252	1	4	-0.394532	-2.5650001	16.296	35.195999
253	1	5	0.162039	-1.539	17.184	35.553001
254	1	5	-0.343725	-0.301	16.771	35.887001
255	1	5	-0.343725	0.74000001	17.754	36.251999
256	1	5	0.162834	0.47299999	19.066999	36.256001
257	1	5	-0.343725	-0.89899999	19.523001	35.893002
258	1	5	-0.343725	-1.84	18.631001	35.561001
259	1	8	0.219338	-2.8329999	18.971001	35.296001
260	1	8	0.219338	-1.1619999	20.569	35.884998
261	1	4	-0.40525401	1.508	19.950001	36.605
262	1	1	0.094049998	1.446	21.378	36.588001
263	1	1	0.17469899	2.027	21.958	35.289001
264	1	1	0.093782999	1.143	21.677999	34.063
265	1	2	-0.67202199	1.256	20.339001	33.668999
266	1	3	0.39987001	0.62599999	20.219999	32.910999
267	1	7	0.104816	1.4680001	22.332001	33.223999
268	1	7	0.104816	0.083999999	21.927999	34.292999
269	1	4	-0.49149501	3.346	21.443001	35.09
270	1	5	0.788526	4.2820001	22.024	34.229
271	1	6	-0.58095002	4.0219998	23.086	33.602001
272	1	7	0.114889	2.0840001	23.062	35.426998
273	1	7	0.093578003	0.426	21.76	36.787998
274	1	7	0.093578003	2.075	21.745001	37.426998
275	1	8	0.219338	1.729	17.400999	36.513
276	1	8	0.219338	-0.039000001	15.722	35.895
277	1	7	0.102961	-2.148	14.494	36.141998
278	1	7	0.102961	-1.633	14.616	34.405998
279	1	9	-0.45634699	0.67199999	22.745001	39.313999
280	1	10	0.33487099	0.68800002	23.781	39.167999
281	1	1	0.030169999	1.816	22.152	38.625999
282	1	1	-0.140414	3.1400001	22.757999	39.123001
283	1	1	-0.138436	4.3730001	22.059	38.528
284	1	1	-0.138436	4.5700002	22.372999	37.037998
285	1	1	-0.140414	5.8730001	21.752001	36.514
286	1	1	0.030169999	6.177	22.150999	35.060001
287	1	9	-0.45759001	5.2329998	21.565001	34.108002
288	1	10	0.33487099	5.131	20.542999	34.303001
289	1	7	0.071110003	7.1989999	21.799999	34.801998
290	1	7	0.071110003	6.1719999	23.257999	34.957001
291	1	11	0.098568	6.7199998	22.099001	37.146999
292	1	11	0.098568	5.8239999	20.643999	36.598
293	1	11	0.097065002	4.6040001	23.476	36.894001
294	1	11	0.097065002	3.7160001	21.962999	36.462002
295	1	11	0.097065002	5.2670002	22.407	39.091
296	1	11	0.097065002	4.29	20.959	38.675999
297	1	11	0.098568	3.171	23.844	38.886002
298	1	11	0.098568	3.187	22.653999	40.229
299	1	7	0.071110003	1.701	22.327	37.535999
300	1	7	0.071110003	1.813	21.055	38.803001
301	1	1	0.150241	-0.51599997	20.665001	42.823002
302	1	2	-0.69410598	-1.194	19.628	42.158001
303	1	3	0.41962299	-1.385	19.934999	41.233002
304	1	1	0.090181999	0.87599999	20.893	42.206001
305	1	4	-0.48149201	0.79400003	21.246	40.824001
306	1	5	0.79239798	0.76599997	22.563999	40.358002
307	1	6	-0.571639	0.85799998	23.540001	41.150002
308	1	7	0.114377	1.449	19.944	42.285
309	1	7	0.114377	1.4400001	21.659	42.782001
310	1	7	0.104288	-0.35800001	20.341999	43.875
311	1	1	0.054981999	-1.3660001	21.944	42.859001
312	1	4	-0.394532	-2.5780001	21.690001	43.566002
313	1	5	0.162039	-3.5880001	22.639	43.789001
314	1	5	-0.343725	-3.503	23.91	43.349998
315	1	5	-0.343725	-4.5999999	24.863001	43.612999
316	1	5	0.162834	-5.6939998	24.483	44.287998
317	1	5	-0.343725	-5.7839999	23.079	44.778999
318	1	5	-0.343725	-4.789	22.216	44.537998
319	1	8	0.219338	-4.8629999	21.195999	44.896
320	1	8	0.219338	-6.6420002	22.726999	45.328999
321	1	4	-0.40525401	-6.704	25.436001	44.498001
322	1	1	0.094049998	-7.9710002	25.205	45.117001
323	1	1	0.17469899	-9.0769997	24.955999	44.077999
324	1	1	0.093782999	-8.9259996	23.605	43.359001
325	1	2	-0.67202199	-7.8800001	23.656	42.428001
326	1	3	0.39987001	-7.809	22.743999	42.042999
327	1	7	0.104816	-9.8739996	23.368	42.827999
328	1	7	0.104816	-8.7449999	22.797001	44.102001
329	1	4	-0.49149501	-9.0900002	26.031	43.137001
330	1	5	0.788526	-10.172	26.309999	42.294998
331	1	6	-0.58095002	-11.237	25.638	42.356998
332	1	7	0.114889	-10.042	24.944	44.632999
333	1	7	0.093578003	-7.9320002	24.399	45.875999
334	1	7	0.093578003	-8.2399998	26.128	45.673
335	1	8	0.219338	-4.5139999	25.879	43.249001
336	1	8	0.219338	-2.641	24.26	42.799
337	1	7	0.102961	-0.79900002	22.747999	43.377998
338	1	7	0.102961	-1.6059999	22.271	41.824001
339	1	9	-0.45634699	-8.1140003	25.797001	48.203999
340	1	10	0.33487099	-9.0939999	25.612	48.52
341	1	1	0.030169999	-8.1540003	26.481001	46.914001
342	1	1	-0.140414	-8.9610004	27.788	47.000999
343	1	1	-0.138436	-8.9040003	28.608	45.702
344	1	1	-0.138436	-9.7089996	27.966	44.562
345	1	1	-0.140414	-9.7229996	28.872999	43.323002
346	1	1	0.030169999	-10.626	28.33	42.201
347	1	9	-0.45759001	-10.097	27.108	41.597
348	1	10	0.33487099	-9.0860004	27.243999	41.362999
349	1	7	0.071110003	-10.712	29.105	41.409
350	1	7	0.071110003	-11.65	28.141001	42.591999
351	1	11	0.098568	-10.106	29.875999	43.612999
352	1	11	0.098568	-8.6870003	29.007	42.941002
353	1	11	0.097065002	-10.754	27.790001	44.901001
354	1	11	0.097065002	-9.25	26.993	44.293999
355	1	11	0.097065002	-9.3249998	29.615	45.916
356	1	11	0.097065002	-7.8460002	28.745001	45.389
357	1	11	0.098568	-10.019	27.563	47.259998
358	1	11	0.098568	-8.5410004	28.413	47.819
359	1	7	0.071110003	-8.6110001	25.799	46.167
360	1	7	0.071110003	-7.1129999	26.701	46.59
361	1	1	0.150241	-4.79	26.854	50.630001
362	1	2	-0.69410598	-3.8510001	26.059	49.949001
363	1	3	0.41962299	-4.3520002	25.382	49.423
364	1	1	0.090181999	-5.6230001	27.688	49.638
365	1	4	-0.48149201	-6.3400002	26.861	48.721001
366	1	5	0.79239798	-7.6589999	26.438999	48.919998
367	1	6	-0.571639	-8.3190002	26.809999	49.926998
368	1	7	0.114377	-4.927	28.326	49.054001
369	1	7	0.114377	-6.3109999	28.372	50.181999
370	1	7	0.104288	-4.2249999	27.570999	51.264999
371	1	1	0.054981999	-5.6589999	26.000999	51.563999
372	1	4	-0.394532	-4.8319998	25.370001	52.540001
373	1	5	0.162039	-5.2969999	24.517	53.553001
374	1	5	-0.343725	-6.5999999	24.209999	53.705002
375	1	5	-0.343725	-7.0300002	23.304001	54.790001
376	1	5	0.162834	-6.1350002	22.771	55.634998
377	1	5	-0.343725	-4.6960001	23.115999	55.469002
378	1	5	-0.343725	-4.3080001	23.937	54.485001
379	1	8	0.219338	-3.2590001	24.18	54.368999
380	1	8	0.219338	-3.9400001	22.716	56.125999
381	1	4	-0.40525401	-6.6090002	21.910999	56.639
382	1	1	0.094049998	-5.8109999	21.184999	57.577
383	1	1	0.17469899	-5.5609999	19.74	57.115002
384	1	1	0.093782999	-4.618	19.657	55.903999
385	1	2	-0.67202199	-5.2800002	20.054001	54.735001
386	1	3	0.39987001	-4.6020002	20.024	54.009998
387	1	7	0.104816	-4.2709999	18.607	55.785
388	1	7	0.104816	-3.72	20.290001	56.076
389	1	4	-0.49149501	-6.8130002	19.113001	56.826
390	1	5	0.788526	-6.9819999	17.728001	56.736
391	1	6	-0.58095002	-6.0250001	16.938	56.956001
392	1	7	0.114889	-5.0749998	19.211	57.966
393	1	7	0.093578003	-4.8660002	21.707001	57.823002
394	1	7	0.093578003	-6.3829999	21.135	58.528
395	1	8	0.219338	-8.0810003	23.066999	54.893002
396	1	8	0.219338	-7.3559999	24.614	53.046001
397	1	7	0.102961	-6.3990002	26.653999	52.077999
398	1	7	0.102961	-6.1960001	25.223	50.980999
399	1	9	-0.45634699	-5.3449998	22.591999	60.353001
400	1	10	0.33487099	-4.7729998	21.945999	60.945
401	1	1	0.030169999	-6.3449998	21.808001	59.631001
402	1	1	-0.140414	-7.237	21.014	60.599998
403	1	1	-0.138436	-8.3920002	20.292	59.887001
404	1	1	-0.138436	-7.915	19.096001	59.049
405	1	1	-0.140414	-9.1070004	18.334999	58.451
406	1	1	0.030169999	-8.6820002	17.054001	57.713001
407	1	9	-0.45759001	-7.9369998	17.334999	56.485001
408	1	10	0.33487099	-8.4490004	18.054001	55.924
409	1	7	0.071110003	-9.5950003	16.48	57.445999
410	1	7	0.071110003	-8.0690002	16.410999	58.382
411	1	11	0.098568	-9.7969999	18.041	59.271999
412	1	11	0.098568	-9.6709995	19	57.759998
413	1	11	0.097065002	-7.323	18.408001	59.692001
414	1	11	0.097065002	-7.2680001	19.462	58.226002
415	1	11	0.097065002	-9.0970001	19.927	60.665001
416	1	11	0.097065002	-8.9440002	21.01	59.242001
417	1	11	0.098568	-6.6220002	20.278	61.164001
418	1	11	0.098568	-7.678	21.719	61.339001
419	1	7	0.071110003	-5.8189998	21.115	58.941002
420	1	7	0.071110003	-6.9689999	22.496	59.02
421	1	1	0.150241	-6.5910001	26.537001	61.314999
422	1	2	-0.69410598	-6.3829999	27.075001	60.033001
423	1	3	0.41962299	-5.7800002	26.459999	59.540001
424	1	1	0.090181999	-7.3829999	25.219999	61.234001
425	1	4	-0.48149201	-6.698	24.235001	60.457001
426	1	5	0.79239798	-5.8429999	23.271	61.001999
427	1	6	-0.571639	-5.658	23.188	62.245998
428	1	7	0.114377	-8.3559999	25.431	60.741001
429	1	7	0.114377	-7.6129999	24.837	62.251999
430	1	7	0.104288	-7.2160001	27.259001	61.883999
431	1	1	0.054981999	-5.263	26.386	62.070999
432	1	4	-0.394532	-4.6560001	27.667999	62.227001
433	1	5	0.162039	-3.431	27.899	62.873001
434	1	5	-0.343725	-2.6989999	26.91	63.422001
435	1	5	-0.343725	-1.415	27.215	64.085999
436	1	5	0.162834	-0.958	28.474001	64.152
437	1	5	-0.343725	-1.772	29.566999	63.549999
438	1	5	-0.343725	-2.934	29.288	62.946999
439	1	8	0.219338	-3.5179999	30.087999	62.508999
440	1	8	0.219338	-1.447	30.594999	63.581001
441	1	4	-0.40525401	0.27399999	28.695	64.790001
442	1	1	0.094049998	0.96399999	29.943001	64.889999
443	1	1	0.17469899	2.039	30.087999	63.800999
444	1	1	0.093782999	1.444	30.27	62.395
445	1	2	-0.67202199	0.93400002	29.056	61.915001
446	1	3	0.39987001	0.52499998	29.259001	61.034
447	1	7	0.104816	2.24	30.627001	61.707001
448	1	7	0.104816	0.64499998	31.044001	62.417
449	1	4	-0.49149501	2.9059999	28.952	63.84
450	1	5	0.788526	4.1750002	28.927	63.252998
451	1	6	-0.58095002	4.652	29.945	62.682999
452	1	7	0.114889	2.6240001	31.002001	64.047997
453	1	7	0.093578003	0.27399999	30.809	64.903999
454	1	7	0.093578003	1.482	29.955999	65.872002
455	1	8	0.219338	-0.83999997	26.406	64.517998
456	1	8	0.219338	-3.027	25.879999	63.389999
457	1	7	0.102961	-5.4580002	25.948	63.074001
458	1	7	0.102961	-4.5760002	25.722	61.504002
459	1	9	-0.62282097	0.41100001	31.607	67.502998
460	1	10	0.37575501	0.99299997	32.474998	67.457001
461	1	1	0.039476998	1.206	30.479	67.022003
462	1	1	-0.14942101	2.4990001	30.32	67.839996
463	1	1	-0.138385	3.29	29.058001	67.459
464	1	1	-0.138503	3.9549999	29.171	66.078003
465	1	1	-0.140414	4.8280001	27.941	65.789001
466	1	1	0.030169999	5.6160002	28.072001	64.473
467	1	9	-0.45759001	4.7509999	28.034	63.294998
468	1	10	0.33487099	4.0939999	27.224001	63.370998
469	1	7	0.071110003	6.3369999	27.229	64.406998
470	1	7	0.071110003	6.2069998	29.014	64.473
471	1	11	0.098568	5.5630002	27.816999	66.613998
472	1	11	0.098568	4.1960001	27.027	65.760002
473	1	11	0.097065002	4.585	30.087	66.045998
474	1	11	0.097065002	3.1689999	29.249001	65.300003
475	1	11	0.098628998	4.0799999	28.907	68.226997
476	1	11	0.098628998	2.6199999	28.171	67.485001
477	1	11	0.10531	3.1400001	31.219999	67.713997
478	1	11	0.10531	2.233	30.245001	68.917
479	1	7	0.110667	1.449	30.65	65.952003
480	1	7	0.110667	0.59600002	29.552999	67.094002
481	1	1	0.094614998	-2.8099999	-4.5599999	-4.5960002
482	1	2	-0.67202199	-1.653	-3.9809999	-4.0580001
483	1	3	0.39987001	-1.1950001	-4.7010002	-3.55
484	1	1	0.183589	-3.595	-3.523	-5.4169998
485	1	4	-0.50626898	-3.908	-2.3870001	-4.6100001
486	1	5	0.63682902	-4.9060001	-2.3859999	-3.6300001
487	1	6	-0.51389003	-5.6300001	-3.398	-3.434
488	1	7	0.104498	-4.5380001	-3.9890001	-5.7810001
489	1	1	0.093332	-2.8010001	-3.0569999	-6.6409998
490	1	4	-0.40525401	-2.5739999	-4.152	-7.5250001
491	1	5	0.162834	-1.875	-4.0510001	-8.7349997
492	1	5	-0.343725	-1.716	-5.1529999	-9.4790001
493	1	5	-0.33969101	-0.98500001	-5.0970001	-10.762
494	1	5	0.154906	-0.46399999	-3.9319999	-11.198
495	1	5	-0.33969101	-0.64300001	-2.714	-10.378
496	1	5	-0.343725	-1.306	-2.7639999	-9.217
497	1	8	0.219338	-1.421	-1.857	-8.6379995
498	1	8	0.219338	-0.23199999	-1.773	-10.722
499	1	4	-0.40990701	0.23999999	-3.812	-12.408
500	1	1	0.13434801	0.60900003	-4.8870001	-13.273
501	1	1	0.20332199	1.785	-5.6789999	-12.686
502	1	1	0.16788299	2.2520001	-6.8249998	-13.627
503	1	4	-0.38668999	3.612	-6.5320001	-13.915
504	1	5	0.80881798	3.9619999	-5.369	-13.272
505	1	4	-0.38595101	2.9219999	-4.835	-12.55
506	1	6	-0.38123	5.105	-4.8499999	-13.34
507	1	7	0.15205599	2.1830001	-7.8070002	-13.112
508	1	7	0.15205599	1.6720001	-6.8639998	-14.574
509	1	7	0.170026	1.5190001	-6.0949998	-11.691
510	1	7	0.095077001	-0.26199999	-5.5489998	-13.468
511	1	7	0.095077001	0.91900003	-4.454	-14.248
512	1	8	0.219338	-0.88800001	-6.0100002	-11.331
513	1	8	0.219338	-2.125	-6.098	-9.1440001
514	1	7	0.093578003	-3.3859999	-2.2739999	-7.1719999
515	1	7	0.093578003	-1.829	-2.6210001	-6.3210001
516	1	7	0.104816	-2.5369999	-5.4260001	-5.2410002
517	1	7	0.104816	-3.4519999	-4.9400001	-3.7720001
518	1	9	-0.62282097	0.162	31.443001	68.504997
519	1	10	0.37575501	0.75099999	32.081001	69.088997
520	1	1	0.039476998	-1.245	31.784	68.706001
521	1	1	-0.14942101	-1.516	33.257	68.356003
522	1	1	-0.13845199	-3.01	33.615002	68.415001
523	1	1	-0.13708401	-3.552	33.66	69.851997
524	1	1	-0.150925	-5.0120001	34.133999	69.872002
525	1	1	0.036706999	-5.5539999	34.32	71.300003
526	1	9	-0.96368402	-5.7049999	33.050999	72.012001
527	1	10	0.398664	-6.2090001	32.367001	71.403
528	1	10	0.398664	-4.7589998	32.661999	72.227997
529	1	7	0.099785998	-6.5500002	34.808998	71.239998
530	1	7	0.099785998	-4.8870001	34.995998	71.877998
531	1	11	0.106271	-5.0809999	35.115002	69.350998
532	1	11	0.106271	-5.651	33.412998	69.317001
533	1	11	0.098628998	-2.9300001	34.354	70.459
534	1	11	0.098628998	-3.493	32.646	70.295998
535	1	11	0.098628998	-3.1389999	34.617001	67.949997
536	1	11	0.098628998	-3.596	32.887001	67.811996
537	1	11	0.10531	-0.94199997	33.919998	69.039001
538	1	11	0.10531	-1.158	33.450001	67.320999
539	1	7	0.110667	-1.507	31.587999	69.765999
540	1	7	0.110667	-1.869	31.122	68.067001

Bonds

1	1	1	2
2	2	1	4
3	3	1	10
4	2	1	11
5	4	2	3
6	5	4	5
7	3	4	8
8	3	4	9
9	6	5	6
10	7	6	7
11	8	6	486
12	5	11	12
13	3	11	37
14	3	11	38
15	9	12	13
16	10	13	14
17	10	13	18
18	10	14	15
19	11	14	36
20	10	15	16
21	11	15	35
22	10	16	17
23	9	16	21
24	10	17	18
25	11	17	20
26	11	18	19
27	5	21	22
28	2	22	23
29	3	22	33
30	3	22	34
31	2	23	24
32	5	23	29
33	3	23	32
34	1	24	25
35	3	24	27
36	3	24	28
37	4	25	26
38	6	29	30
39	7	30	31
40	12	30	47
41	13	39	40
42	14	39	41
43	12	39	66
44	2	41	42
45	3	41	59
46	3	41	60
47	2	42	43
48	3	42	57
49	3	42	58
50	2	43	44
51	3	43	55
52	3	43	56
53	2	44	45
54	3	44	53
55	3	44	54
56	2	45	46
57	3	45	51
58	3	45	52
59	14	46	47
60	3	46	49
61	3	46	50
62	13	47	48
63	1	61	62
64	2	61	64
65	3	61	70
66	2	61	71
67	4	62	63
68	5	64	65
69	3	64	68
70	3	64	69
71	6	65	66
72	7	66	67
73	5	71	72
74	3	71	97
75	3	71	98
76	9	72	73
77	10	73	74
78	10	73	78
79	10	74	75
80	11	74	96
81	10	75	76
82	11	75	95
83	10	76	77
84	9	76	81
85	10	77	78
86	11	77	80
87	11	78	79
88	5	81	82
89	2	82	83
90	3	82	93
91	3	82	94
92	2	83	84
93	5	83	89
94	3	83	92
95	1	84	85
96	3	84	87
97	3	84	88
98	4	85	86
99	6	89	90
100	7	90	91
101	12	90	107
102	13	99	100
103	14	99	101
104	12	99	126
105	2	101	102
106	3	101	119
107	3	101	120
108	2	102	103
109	3	102	117
110	3	102	118
111	2	103	104
112	3	103	115
113	3	103	116
114	2	104	105
115	3	104	113
116	3	104	114
117	2	105	106
118	3	105	111
119	3	105	112
120	14	106	107
121	3	106	109
122	3	106	110
123	13	107	108
124	1	121	122
125	2	121	124
126	3	121	130
127	2	121	131
128	4	122	123
129	5	124	125
130	3	124	128
131	3	124	129
132	6	125	126
133	7	126	127
134	5	131	132
135	3	131	157
136	3	131	158
137	9	132	133
138	10	133	134
139	10	133	138
140	10	134	135
141	11	134	156
142	10	135	136
143	11	135	155
144	10	136	137
145	9	136	141
146	10	137	138
147	11	137	140
148	11	138	139
149	5	141	142
150	2	142	143
151	3	142	153
152	3	142	154
153	2	143	144
154	5	143	149
155	3	143	152
156	1	144	145
157	3	144	147
158	3	144	148
159	4	145	146
160	6	149	150
161	7	150	151
162	12	150	167
163	13	159	160
164	14	159	161
165	12	159	186
166	2	161	162
167	3	161	179
168	3	161	180
169	2	162	163
170	3	162	177
171	3	162	178
172	2	163	164
173	3	163	175
174	3	163	176
175	2	164	165
176	3	164	173
177	3	164	174
178	2	165	166
179	3	165	171
180	3	165	172
181	14	166	167
182	3	166	169
183	3	166	170
184	13	167	168
185	1	181	182
186	2	181	184