Title

10750 atoms
10875 bonds
19000 angles
32000 dihedrals
6000 impropers

12 atom types
18 bond types
10 angle types
33 dihedral types
3 improper types
-13.67710271 148.9138931 xlo xhi
-14.99192267 148.7003007 ylo yhi
-15.43727621 148.6606922 zlo zhi
0.0 0.0 0.0 xy xz yz

Masses

1	12.01078
2	15.99943
3	14.00672
4	12.01078
5	1.007947
6	1.007947
7	1.007947
8	15.99943
9	1.007947
10	12.01078
11	15.99943
12	1.007947


Pair Coeffs

1	0.086879315	3.4806469
2	0.2102061	3.0398122
3	0.16769152	3.206876
4	0.10884061	3.3795318
5	0.014090815	1.1034277
6	0.016409246	2.5832257
7	0.015779483	2.6445434
8	0.16846514	3.0251065
9	0.015611343	2.5725815
10	0.21	3.3996695
11	0.20947353	2.99716
12	1.2326e-05	0.53453923

Bond Coeffs

1 harmonic	582.698766451	1.225198386222
2 harmonic	492.76746816345	1.381897776683
3 harmonic	279.1350963404	1.454628925034
4 harmonic	352.0565580496	1.450098586273
5 harmonic	505.144496193	1.019481865027
6 harmonic	264.62148576755	1.52190126495
7 harmonic	370.04670688625	1.093899492634
8 harmonic	301.15400723785	1.345741232799
9 harmonic	366.7408841747	1.425895053732
10 harmonic	289.73813263395	1.498646816465
11 harmonic	445.3060766333	1.328776712165
12 harmonic	360.7852444772	1.387193227181
13 harmonic	300.03137914615	1.451203938761
14 harmonic	397.2545789619	1.085358495916
15 harmonic	366.34047229585	1.464762957261
16 harmonic	602.81384337	1.196112346392
17 harmonic	329.96998057905	1.427343958716
18 harmonic	543.5267831885	0.9716763312559


Angle Coeffs

1 harmonic	55.42182150775	117.3465570514
2 harmonic	63.44422595415	115.5071327674
3 harmonic	57.8982893754	126.8062420451
4 harmonic	53.20531626545	116.5475862634
5 harmonic	65.09061609600001	110.3538806181
6 harmonic	201.41175231035	127.4691416191
7 harmonic	48.776492647595	115.6030999533
8 harmonic	55.07882548015	112.8714009681
9 harmonic	34.066775159195	129.1835929926
10 harmonic	33.56981613361	180


Dihedral Coeffs

1 fourier 1	-0.1488678166443	4	180
2 fourier 1	-0.1230328948768	3	180
3 fourier 1	0.2939295466901	2	0
4 fourier 1	-0.3024127022865	1	0
5 fourier 1	0.182238503271	2	0
6 fourier 1	0.02972342374561	3	0
7 fourier 1	1.809047390003	2	180
8 fourier 1	-0.04816277792592	1	0
9 fourier 1	3.101948770557	2	180
10 fourier 1	-0.4252153282372	1	0
11 fourier 1	2.348375642009	2	180
12 fourier 1	1.256156174911	1	0
13 fourier 1	0.9974165607242	2	180
14 fourier 1	0.1155372516788	3	0
15 fourier 1	0.09223874044423	3	0
16 fourier 1	0.3159935921949	2	180
17 fourier 1	0.3247796806857	1	180
18 fourier 1	0.1040663847541	3	0
19 fourier 1	2.779853741805	2	180
20 fourier 1	0.0473758381877	3	0
21 fourier 1	0.4860993122944	2	180
22 fourier 1	0.8916986138746	1	0
23 fourier 1	1.163809172478	2	180
24 fourier 1	0.1679186987369	1	180
25 fourier 1	0.1911926717192	3	0
26 fourier 1	0.02664938770063	3	0
27 fourier 1	3.731869940596	2	180
28 fourier 1	3.661930099076	2	180
29 fourier 1	5.913282223828	2	180
30 fourier 1	0.457973137376	1	0
31 fourier 1	-1.382973039546	1	0
32 fourier 1	0	1	0
33 fourier 1	0.3026390167484	3	0


Improper Coeffs

1 0.3333333333333333	-1	2
2 0.3666666666666667	-1	2
3 3.5	-1	2


Atoms

1	6	1	0.55177081	4.1951071	5.0059215	-1.3622457
2	6	2	-0.62953663	3.6973323	6.1447354	-1.1535974
3	6	3	-0.51146686	3.3596534	3.8518145	-1.4801659
4	6	4	0.037183703	1.9047584	3.9432609	-1.3658374
5	6	4	-0.14058751	1.2563792	2.5646634	-1.5271184
6	6	4	-0.13734054	-0.27120324	2.6525523	-1.3899889
7	6	4	-0.13734054	-0.98155924	1.3291699	-1.7259329
8	6	4	-0.13927941	-0.61251123	0.14355227	-0.81565624
9	6	4	0.03158125	-0.98094645	0.37825976	0.65543243
10	6	3	-0.45327544	-0.77318017	-0.8361819	1.4428336
11	6	1	0.78870601	-1.0533819	-0.8786088	2.8446952
12	6	2	-0.57202446	-1.4935716	0.13807513	3.4449583
13	6	5	0.33743516	-0.40667234	-1.70507	0.99107426
14	6	6	0.075097584	-0.3475699	1.1871384	1.0762061
15	6	6	0.075097584	-2.0487144	0.68077438	0.72713732
16	6	7	0.10147935	0.46988639	-0.089160782	-0.90281149
17	6	7	0.10147935	-1.1671017	-0.74694933	-1.1818546
18	6	7	0.099892804	-2.0803345	1.4946035	-1.6706092
19	6	7	0.099892804	-0.74886331	1.0543515	-2.7770073
20	6	7	0.099892804	-0.54249086	2.9875033	-0.36598358
21	6	7	0.099892804	-0.65007062	3.4246817	-2.0944302
22	6	7	0.10147935	1.6633916	1.8890894	-0.74543131
23	6	7	0.10147935	1.5171798	2.1539059	-2.5278772
24	6	6	0.07134051	1.5202511	4.6290767	-2.1517228
25	6	6	0.07134051	1.6432564	4.3600827	-0.36785932
26	6	5	0.33086163	3.8197119	2.9290567	-1.6533281
27	7	8	-0.49096939	-0.89343515	-1.7551607	3.3751862
28	7	4	0.16897948	-0.79581594	-2.7840089	2.4295082
29	7	1	0.20704633	-2.1574699	-3.1478099	1.9223698
30	7	3	-0.65283245	-2.8610485	-4.0530377	2.5444612
31	7	1	0.24739488	-4.1882414	-4.4143143	2.1179273
32	7	4	0.075656706	-4.9535123	-5.4454144	2.8885186
33	7	8	-0.11816478	-5.8187905	-4.8081637	3.7851535
34	7	6	0.10669705	-4.2408556	-6.0909907	3.4481636
35	7	6	0.10669705	-5.5344957	-6.0890994	2.1897755
36	7	1	-0.34731555	-4.7448544	-3.7824378	1.0715362
37	7	9	0.21164096	-5.750745	-4.0207739	0.74648837
38	7	1	-0.14879747	-3.9765848	-2.7439502	0.35981284
39	7	9	0.22223067	-4.4170779	-2.2307998	-0.48570683
40	7	1	-0.35406071	-2.7410381	-2.4352363	0.76351825
41	7	9	0.2114619	-2.1750169	-1.6689711	0.24742833
42	7	6	0.090627522	-0.13509333	-2.4790152	1.5859167
43	7	6	0.090627522	-0.32893521	-3.6691179	2.9113955
44	4	1	0.55177087	5.2678316	4.9026756	-1.4526698
45	4	2	-0.62953669	5.7430192	4.0716233	-2.2711555
46	4	3	-0.51146692	6.12784	5.7041391	-0.63520864
47	4	4	0.037183707	7.5857926	5.6190927	-0.69967034
48	4	4	-0.14058751	8.1093863	6.3263161	-1.9537955
49	4	4	-0.13716258	9.6431536	6.2621746	-2.0212772
50	4	4	-0.13298538	10.218486	7.0714523	-3.1942729
51	4	4	-0.11714902	9.9463422	6.4142889	-4.5569864
52	4	4	0.19034504	10.618252	7.1817196	-5.7064287
53	4	3	-0.57194996	12.074321	7.1494846	-5.6009421
54	4	10	0.59756476	12.737135	6.0733397	-5.7505068
55	4	2	-0.3845211	13.38122	5.0258553	-5.8943395
56	4	6	0.046844741	10.304359	6.7450641	-6.6802175
57	4	6	0.046844741	10.280776	8.2398616	-5.6889666
58	4	7	0.095030152	8.8531558	6.4020583	-4.7524319
59	4	7	0.095030152	10.304419	5.3620772	-4.5519675
60	4	7	0.098585562	9.8024407	8.1027734	-3.1806032
61	4	7	0.098585562	11.317362	7.1511309	-3.0434074
62	4	7	0.099892804	10.060748	6.6797832	-1.0799385
63	4	7	0.099892804	9.974561	5.203066	-2.0957765
64	4	7	0.10147935	7.675243	5.8397532	-2.8514597
65	4	7	0.10147935	7.7810116	7.3890077	-1.9326625
66	4	6	0.07134051	7.9005264	4.5521052	-0.69364694
67	4	6	0.07134051	8.0146331	6.1078532	0.20160653
68	4	5	0.33086166	5.6908515	6.3306751	0.077537209
69	5	8	-0.11816478	-6.2994109	-5.5323265	4.2650756
70	5	4	0.075656691	-6.4016326	-6.6073591	3.3719297
71	5	1	0.24999409	-7.4785895	-6.3379212	2.3654567
72	5	3	-0.64882886	-8.7073605	-6.6891438	2.6203734
73	5	1	0.19678898	-9.7842337	-6.4228277	1.7020098
74	5	4	0.14562771	-11.178534	-6.8327274	2.0638243
75	5	11	-0.67028868	-11.861317	-5.7326664	2.5974726
76	5	12	0.39221364	-12.773685	-6.0568173	2.817603
77	5	6	0.084676796	-11.139511	-7.6519606	2.815984
78	5	6	0.084676796	-11.711169	-7.2105121	1.1624696
79	5	1	-0.34772706	-9.535027	-5.7629325	0.55915832
80	5	9	0.21164096	-10.331658	-5.5312454	-0.13715828
81	5	1	-0.14690126	-8.1546359	-5.3406637	0.2529994
82	5	9	0.22223067	-7.9443979	-4.809052	-0.6663933
83	5	1	-0.34731552	-7.1681241	-5.611274	1.1135845
84	5	9	0.21164096	-6.1551947	-5.2983971	0.89457067
85	5	6	0.10669705	-5.4276213	-6.7852937	2.861222
86	5	6	0.10669705	-6.6483678	-7.5259039	3.9446976
87	6	1	0.55177081	-3.956089	-4.4039562	27.84602
88	6	2	-0.62953663	-4.0347656	-5.5089106	28.446934
89	6	3	-0.51146686	-2.9007071	-3.4848797	28.138113
90	6	4	0.037183703	-1.876083	-3.7858866	29.136959
91	6	4	-0.14058751	-0.8722111	-2.6345784	29.253871
92	6	4	-0.13734054	0.19637996	-2.9382429	30.314974
93	6	4	-0.13734054	1.3300391	-1.8975902	30.34074
94	6	4	-0.13927941	0.88850293	-0.46313122	30.684051
95	6	4	0.03158125	0.26831541	-0.34401989	32.082662
96	6	3	-0.45327544	0.02878607	1.056771	32.426822
97	6	1	0.78870601	-0.53655805	1.4341566	33.685193
98	6	2	-0.57202446	-0.84426881	0.56197728	34.540965
99	6	5	0.33743516	0.26455131	1.8173242	31.749065
100	6	6	0.075097584	-0.6994081	-0.88733651	32.111285
101	6	6	0.075097584	0.95636108	-0.79113006	32.833309
102	6	7	0.10147935	0.17696207	-0.083867594	29.920372
103	6	7	0.10147935	1.7894319	0.18573804	30.639771
104	6	7	0.099892804	2.0924111	-2.2246606	31.082056
105	6	7	0.099892804	1.8288429	-1.8864433	29.348016
106	6	7	0.099892804	-0.27558015	-3.0202619	31.317422
107	6	7	0.099892804	0.65342805	-3.9264545	30.090236
108	6	7	0.10147935	-1.4236306	-1.7118289	29.532374
109	6	7	0.10147935	-0.38253988	-2.4761896	28.267265
110	6	6	0.07134051	-1.3426461	-4.7156813	28.842456
111	6	6	0.07134051	-2.3654675	-3.9508976	30.122534
112	6	5	0.33086163	-2.8781796	-2.581099	27.612952
113	7	8	-0.49096939	-0.69570249	2.4365189	33.898006
114	7	4	0.16897948	0.074083765	3.1675833	32.984038
115	7	1	0.20704633	1.5157813	3.1428219	33.389669
116	7	3	-0.65283245	1.9763135	4.0515697	34.204252
117	7	1	0.24739488	3.3451898	4.0523519	34.651544
118	7	4	0.075656706	3.8069363	5.1105746	35.60526
119	7	8	-0.11816478	3.7720378	4.6070814	36.910643
120	7	6	0.10669705	3.1375009	5.9956525	35.525609
121	7	6	0.10669705	4.8420069	5.4301043	35.347105
122	7	1	-0.34731555	4.1743753	3.0730819	34.25468
123	7	9	0.21164096	5.2021845	3.0396012	34.596386
124	7	1	-0.14879747	3.6747946	2.0245209	33.345733
125	7	9	0.22223067	4.3369152	1.2323678	33.019619
126	7	1	-0.35406071	2.4050055	2.0517531	32.931304
127	7	9	0.2114619	2.031911	1.2803973	32.268203
128	7	6	0.090627522	-0.047577883	2.7590635	31.954702
129	7	6	0.090627522	-0.29059893	4.2165688	32.968325
130	4	1	0.55177087	-4.6973184	-4.1497877	27.100667
131	4	2	-0.62953669	-4.3488644	-3.5072926	26.074923
132	4	3	-0.51146692	-6.0612371	-4.5389763	27.296777
133	4	4	0.037183707	-7.1183502	-4.229832	26.335551
134	4	4	-0.14058751	-7.0235089	-5.1549204	25.118028
135	4	4	-0.13716258	-8.143403	-4.8535863	24.109988
136	4	4	-0.13298538	-8.1648973	-5.844291	22.935297
137	4	4	-0.11714902	-6.9871574	-5.6419652	21.968391
138	4	4	0.19034504	-7.0835209	-6.5702768	20.747497
139	4	3	-0.57194996	-8.251243	-6.2648258	19.925652
140	4	10	0.59756476	-8.3515479	-5.1751086	19.275856
141	4	2	-0.3845211	-8.4493455	-4.1141152	18.645391
142	4	6	0.046844741	-6.160159	-6.4770647	20.134166
143	4	6	0.046844741	-7.1527935	-7.6242249	21.091377
144	4	7	0.095030152	-6.0337158	-5.8686914	22.490836
145	4	7	0.095030152	-6.9482047	-4.5839836	21.629936
146	4	7	0.098585562	-8.1636387	-6.8871628	23.321717
147	4	7	0.098585562	-9.1177809	-5.6926847	22.382426
148	4	7	0.099892804	-9.1222778	-4.9201486	24.631787
149	4	7	0.099892804	-8.0369084	-3.8153948	23.725398
150	4	7	0.10147935	-6.0358908	-5.0138954	24.63249
151	4	7	0.10147935	-7.103214	-6.210631	25.45966
152	4	6	0.07134051	-7.0422467	-3.1649095	26.022974
153	4	6	0.07134051	-8.1046031	-4.3728423	26.827429
154	4	5	0.33086166	-6.3176342	-5.0104127	28.19317
155	5	8	-0.11816478	4.0873691	5.3430863	37.497666
156	5	4	0.075656691	4.9947366	6.0985209	36.742777
157	5	1	0.24999409	6.3098493	5.3854048	36.656959
158	5	3	-0.64882886	7.2145663	5.5802333	37.574427
159	5	1	0.19678898	8.4806999	4.8942568	37.556708
160	5	4	0.14562771	9.4696572	5.1459927	38.65288
161	5	11	-0.67028868	9.3607706	4.1356227	39.616417
162	5	12	0.39221364	10.034139	4.3487355	40.314345
163	5	6	0.084676796	9.2606629	6.1344711	39.119401
164	5	6	0.084676796	10.502233	5.1663872	38.237869
165	5	1	-0.34772706	8.7374537	3.9981411	36.589894
166	5	9	0.21164096	9.6732442	3.4532054	36.567597
167	5	1	-0.14690126	7.7239595	3.7476134	35.547018
168	5	9	0.22223067	7.9227963	3.0276569	34.763296
169	5	1	-0.34731552	6.5611758	4.406539	35.57518
170	5	9	0.21164096	5.8133729	4.2213948	34.814656
171	5	6	0.10669705	4.5895677	6.2914261	35.723068
172	5	6	0.10669705	5.136494	7.0835272	37.235051
173	6	1	0.55177081	-1.7942833	-6.2561487	60.378194
174	6	2	-0.62953663	-1.79148	-7.0235374	61.377853
175	6	3	-0.51146686	-1.1048442	-5.0042507	60.413917
176	6	4	0.037183703	-0.37261488	-4.5655263	61.601147
177	6	4	-0.14058751	0.26707944	-3.1924821	61.372064
178	6	4	-0.13734054	1.0228	-2.7188701	62.622909
179	6	4	-0.13734054	1.8345982	-1.4333991	62.383425
180	6	4	-0.13927941	1.0003084	-0.2016498	61.986886
181	6	4	0.03158125	-0.0080356498	0.21378858	63.066509
182	6	3	-0.45327544	-0.64705721	1.4823647	62.719519
183	6	1	0.78870601	-1.6222111	2.0891355	63.57183
184	6	2	-0.57202446	-1.9587884	1.5434932	64.656597
185	6	5	0.33743516	-0.40365594	1.9727208	61.828628
186	6	6	0.075097584	-0.7936462	-0.56439292	63.165255
187	6	6	0.075097584	0.51593254	0.32435524	64.041198
188	6	7	0.10147935	0.47359251	-0.38376231	61.026292
189	6	7	0.10147935	1.7044546	0.64095401	61.816998
190	6	7	0.099892804	2.4032651	-1.1974693	63.310081
191	6	7	0.099892804	2.5831886	-1.6258188	61.585292
192	6	7	0.099892804	0.31238814	-2.575864	63.465073
193	6	7	0.099892804	1.7363412	-3.5132815	62.932315
194	6	7	0.10147935	-0.53499647	-2.4661008	61.122788
195	6	7	0.10147935	0.97211903	-3.2573707	60.513597
196	6	6	0.07134051	0.41895439	-5.3097839	61.836314
197	6	6	0.07134051	-1.0755924	-4.5066917	62.461638
198	6	5	0.33086163	-1.1363079	-4.4025728	59.559449
199	7	8	-0.49096939	-2.0583985	2.9885921	63.29603
200	7	4	0.16897948	-1.2432736	3.5405403	62.299391
201	7	1	0.20704633	-0.013960908	4.1379028	62.912245
202	7	3	-0.65283245	-0.026628173	5.3788717	63.313859
203	7	1	0.24739488	1.1171233	5.9900547	63.940103
204	7	4	0.075656706	1.0315521	7.4127398	64.399736
205	7	8	-0.11816478	0.73534754	7.4423556	65.767264
206	7	6	0.10669705	0.23180782	7.9362598	63.830362
207	7	6	0.10669705	1.9967875	7.9336086	64.207043
208	7	1	-0.34731555	2.2245838	5.2614906	64.15631
209	7	9	0.21164096	3.0893665	5.6928692	64.646554
210	7	1	-0.14879747	2.2598295	3.8513372	63.725648
211	7	9	0.22223067	3.149125	3.2573069	63.894593
212	7	1	-0.35406071	1.1924087	3.3089268	63.132974
213	7	9	0.2114619	1.2115345	2.2717902	62.820128
214	7	6	0.090627522	-0.96636593	2.7668686	61.547077
215	7	6	0.090627522	-1.8150902	4.3296594	61.766542
216	4	1	0.55177087	-2.3256353	-6.5501742	59.483326
217	4	2	-0.62953669	-1.8500736	-6.2537713	58.355339
218	4	3	-0.51146692	-3.5630656	-7.2617013	59.596005
219	4	4	0.037183707	-4.3382362	-7.6901061	58.432994
220	4	4	-0.14058751	-3.6887321	-8.9123232	57.776127
221	4	4	-0.13716258	-4.5069943	-9.3851928	56.564536
222	4	4	-0.13298538	-3.9632582	-10.68675	55.95449
223	4	4	-0.11714902	-2.6338214	-10.481858	55.210494
224	4	4	0.19034504	-2.1604685	-11.770443	54.519758
225	4	3	-0.57194996	-3.0780047	-12.186911	53.462882
226	4	10	0.59756476	-3.2297098	-11.509091	52.396427
227	4	2	-0.3845211	-3.3781802	-10.848373	51.360007
228	4	6	0.046844741	-1.1452491	-11.613613	54.092915
229	4	6	0.046844741	-2.0861052	-12.584765	55.271561
230	4	7	0.095030152	-1.8468042	-10.176652	55.932199
231	4	7	0.095030152	-2.7388688	-9.6719114	54.456607
232	4	7	0.098585562	-3.8380963	-11.452807	56.75098
233	4	7	0.098585562	-4.7239741	-11.068388	55.238738
234	4	7	0.099892804	-5.5534009	-9.5705299	56.889474
235	4	7	0.099892804	-4.5313978	-8.5874196	55.789905
236	4	7	0.10147935	-2.6615143	-8.6459512	57.452253
237	4	7	0.10147935	-3.623024	-9.7324074	58.524949
238	4	6	0.07134051	-4.4177806	-6.8524972	57.70523
239	4	6	0.07134051	-5.3655691	-7.9554333	58.763569
240	4	5	0.33086166	-3.9542556	-7.4266132	60.550619
241	5	8	-0.11816478	0.69248752	8.4019216	66.018519
242	5	4	0.075656691	1.5840665	9.0783854	65.175111
243	5	1	0.24999409	2.9933922	8.8543215	65.632295
244	5	3	-0.64882886	3.525532	9.6559817	66.51115
245	5	1	0.19678898	4.8634661	9.464613	67.008425
246	5	4	0.14562771	5.409412	10.408955	68.034662
247	5	11	-0.67028868	5.2578477	9.8473326	69.308521
248	5	12	0.39221364	5.6341578	10.508858	69.946267
249	5	6	0.084676796	4.8566124	11.373277	67.980761
250	5	6	0.084676796	6.4853196	10.610811	67.83332
251	5	1	-0.34772706	5.584514	8.412514	66.587887
252	5	9	0.21164096	6.5846088	8.2346496	66.963826
253	5	1	-0.14690126	5.000056	7.4808072	65.60409
254	5	9	0.22223067	5.57445	6.6305454	65.258807
255	5	1	-0.34731552	3.7613509	7.6861348	65.145296
256	5	9	0.21164096	3.3275862	7.0017138	64.427451
257	5	6	0.10669705	1.4585148	8.7397364	64.121197
258	5	6	0.10669705	1.3508655	10.163469	65.204729
259	6	1	0.55177081	-6.4231798	-1.7993411	92.907215
260	6	2	-0.62953663	-7.0327269	-1.3945386	93.933274
261	6	3	-0.51146686	-4.9944374	-1.8330725	92.869684
262	6	4	0.037183703	-4.1868946	-1.4041426	94.010757
263	6	4	-0.14058751	-2.692093	-1.5387931	93.703552
264	6	4	-0.13734054	-1.8389027	-1.0724811	94.892945
265	6	4	-0.13734054	-0.3385079	-1.3593116	94.704932
266	6	4	-0.13927941	0.31342187	-0.65143059	93.503108
267	6	4	0.03158125	0.25663532	0.87877138	93.60406
268	6	3	-0.45327544	1.0377118	1.4989818	92.534811
269	6	1	0.78870601	1.1505304	2.9197218	92.415233
270	6	2	-0.57202446	0.57674924	3.683206	93.237179
271	6	5	0.33743516	1.5299918	0.90816599	91.826306
272	6	6	0.075097584	-0.79598234	1.2213636	93.519635
273	6	6	0.075097584	0.66417121	1.2014625	94.587203
274	6	7	0.10147935	-0.15715826	-0.98641561	92.554596
275	6	7	0.10147935	1.3788975	-0.9645385	93.465824
276	6	7	0.099892804	0.19727871	-1.057474	95.632059
277	6	7	0.099892804	-0.19469703	-2.4551113	94.59104
278	6	7	0.099892804	-2.0049061	0.010241184	95.078771
279	6	7	0.099892804	-2.1717012	-1.6126342	95.805875
280	6	7	0.10147935	-2.4577667	-0.92133343	92.810843
281	6	7	0.10147935	-2.461338	-2.6030196	93.474573
282	6	6	0.07134051	-4.4427603	-2.0296234	94.89343
283	6	6	0.07134051	-4.4218301	-0.34196418	94.244565
284	6	5	0.33086163	-4.5348565	-2.1771499	91.99589
285	7	8	-0.49096939	1.710672	3.3284167	91.644158
286	7	4	0.16897948	2.5255324	2.3006582	91.152142
287	7	1	0.20704633	3.6763779	2.0665353	92.081864
288	7	3	-0.65283245	4.7797889	2.7459581	91.932442
289	7	1	0.24739488	5.9023603	2.5831677	92.8197
290	7	4	0.075656706	7.1331118	3.4097153	92.608305
291	7	8	-0.11816478	7.0988938	4.5203897	93.459176
292	7	6	0.10669705	7.1718573	3.748437	91.549241
293	7	6	0.10669705	8.0414591	2.7992532	92.814109
294	7	1	-0.34731555	5.8110688	1.7362401	93.85816
295	7	9	0.21164096	6.6339686	1.6141127	94.552564
296	7	1	-0.14879747	4.5688084	0.96697762	94.058833
297	7	9	0.22223067	4.4873571	0.28087245	94.892431
298	7	1	-0.35406071	3.5451326	1.1226561	93.214611
299	7	9	0.2114619	2.6284422	0.56405218	93.361346
300	7	6	0.090627522	1.9368109	1.3643376	91.018229
301	7	6	0.090627522	2.9084299	2.5959315	90.152234
302	4	1	0.55177087	-6.9899052	-2.1245732	92.045461
303	4	2	-0.62953669	-6.5698315	-3.0923456	91.357475
304	4	3	-0.51146692	-8.2007839	-1.4447409	91.696459
305	4	4	0.037183707	-9.0185034	-1.8252432	90.545995
306	4	4	-0.14058751	-9.8144798	-3.0981893	90.85124
307	4	4	-0.13716258	-10.694748	-3.4960275	89.656266
308	4	4	-0.13298538	-11.608181	-4.6924514	89.96621
309	4	4	-0.11714902	-10.834159	-6.016168	90.073806
310	4	4	0.19034504	-11.774974	-7.2137545	90.279434
311	4	3	-0.57194996	-12.644358	-7.4239878	89.12519
312	4	10	0.59756476	-12.188814	-7.801174	87.998252
313	4	2	-0.3845211	-11.74486	-8.1663834	86.901764
314	4	6	0.046844741	-11.175061	-8.131467	90.467499
315	4	6	0.046844741	-12.406071	-7.0359843	91.176079
316	4	7	0.095030152	-10.145075	-5.9745484	90.943769
317	4	7	0.095030152	-10.221778	-6.1759457	89.160102
318	4	7	0.098585562	-12.169932	-4.5038865	90.907371
319	4	7	0.098585562	-12.351096	-4.7730135	89.142666
320	4	7	0.099892804	-11.340738	-2.6335958	89.384589
321	4	7	0.099892804	-10.055461	-3.7281076	88.776185
322	4	7	0.10147935	-9.1067876	-3.9203732	91.084072
323	4	7	0.10147935	-10.45496	-2.9184025	91.742897
324	4	6	0.07134051	-8.3680853	-1.9760499	89.656181
325	4	6	0.07134051	-9.7249335	-0.99822841	90.317754
326	4	5	0.33086166	-8.4757114	-0.60521409	92.254243
327	5	8	-0.11816478	7.9326129	5.0291289	93.280766
328	5	4	0.075656691	8.902389	4.0912027	92.901711
329	5	1	0.24999409	9.4120784	3.3635477	94.108424
330	5	3	-0.64882886	10.422177	3.8439748	94.777086
331	5	1	0.19678898	10.928526	3.2018075	95.962499
332	5	4	0.14562771	12.078932	3.8166286	96.698407
333	5	11	-0.67028868	11.591589	4.5739548	97.770816
334	5	12	0.39221364	12.389625	4.9553854	98.222031
335	5	6	0.084676796	12.653065	4.471678	96.005809
336	5	6	0.084676796	12.761012	3.0209721	97.07332
337	5	1	-0.34772706	10.329992	2.0916598	96.424023
338	5	9	0.21164096	10.678288	1.6030258	97.325734
339	5	1	-0.14690126	9.1746632	1.5350174	95.694031
340	5	9	0.22223067	8.6866206	0.63991755	96.058317
341	5	1	-0.34731552	8.7305851	2.1398319	94.587669
342	5	9	0.21164096	7.8800547	1.7371171	94.052596
343	5	6	0.10669705	8.4823058	3.3716131	92.162183
344	5	6	0.10669705	9.7409434	4.6241659	92.40629
345	6	1	0.55177081	2.9523605	-3.6141419	128.46057
346	6	2	-0.62953663	3.8577628	-4.3734376	128.02247
347	6	3	-0.51146686	1.9799304	-3.0488773	127.57812
348	6	4	0.037183703	1.9938554	-3.3263212	126.14251
349	6	4	-0.14058751	0.84938513	-2.5951112	125.43367
350	6	4	-0.13734054	0.87028317	-2.8690513	123.92219
351	6	4	-0.13734054	-0.36356941	-2.3081133	123.19297
352	6	4	-0.13927941	-0.52713467	-0.77927808	123.27296
353	6	4	0.03158125	0.63928502	-0.015973196	122.63127
354	6	3	-0.45327544	0.35449962	1.4171913	122.57675
355	6	1	0.78870601	1.2846559	2.3461227	122.01334
356	6	2	-0.57202446	2.3843166	1.951149	121.54167
357	6	5	0.33743516	-0.5431297	1.7945345	122.95787
358	6	6	0.075097584	1.5627937	-0.17221857	123.22728
359	6	6	0.075097584	0.8070291	-0.3936661	121.5988
360	6	7	0.10147935	-0.65516877	-0.45833728	124.32839
361	6	7	0.10147935	-1.4627867	-0.51261979	122.7362
362	6	7	0.099892804	-0.30685565	-2.6066408	122.12274
363	6	7	0.099892804	-1.275298	-2.7841622	123.61316
364	6	7	0.099892804	1.8019424	-2.461505	123.47465
365	6	7	0.099892804	0.88587742	-3.9684533	123.75777
366	6	7	0.10147935	0.95874768	-1.5054435	125.6174
367	6	7	0.10147935	-0.12036872	-2.935537	125.86022
368	6	6	0.07134051	1.8907944	-4.4215605	125.9824
369	6	6	0.07134051	2.9658706	-2.9922003	125.71633
370	6	5	0.33086163	1.2485259	-2.425085	127.98928
371	7	8	-0.49096939	1.0534118	3.3567634	121.99147
372	7	4	0.16897948	-0.32844619	3.4564654	122.19857
373	7	1	0.20704633	-1.06416	3.0948277	120.94495
374	7	3	-0.65283245	-1.3289829	4.0153844	120.05956
375	7	1	0.24739488	-2.0031598	3.7137763	118.82327
376	7	4	0.075656706	-2.2579774	4.8118032	117.83736
377	7	8	-0.11816478	-1.2560027	4.8009217	116.86029
378	7	6	0.10669705	-2.2560015	5.7901916	118.36708
379	7	6	0.10669705	-3.255582	4.6728226	117.36241
380	7	1	-0.34731555	-2.3428717	2.4446192	118.54425
381	7	9	0.21164096	-2.8300491	2.1898367	117.61043
382	7	1	-0.14879747	-2.0411955	1.3820968	119.52163
383	7	9	0.22223067	-2.3130447	0.35661654	119.30542
384	7	1	-0.35406071	-1.4284017	1.6868372	120.66901
385	7	9	0.2114619	-1.1995096	0.90884302	121.3875
386	7	6	0.090627522	-0.64669519	2.7990903	123.03988
387	7	6	0.090627522	-0.57226218	4.5013972	122.48542
388	4	1	0.55177087	2.9125112	-3.388528	129.51749
389	4	2	-0.62953669	1.7936038	-3.2659448	130.08263
390	4	3	-0.51146692	4.1300036	-3.2239675	130.2529
391	4	4	0.037183707	4.1559191	-2.9164445	131.68181
392	4	4	-0.14058751	3.8205954	-4.1641724	132.50514
393	4	4	-0.13716258	3.8659631	-3.8582663	134.01029
394	4	4	-0.13298538	3.6643298	-5.1122365	134.8756
395	4	4	-0.11714902	2.2183347	-5.6323296	134.83667
396	4	4	0.19034504	2.0124215	-6.821473	135.78807
397	4	3	-0.57194996	2.1948818	-6.4357282	137.18457
398	4	10	0.59756476	1.3900822	-5.6473041	137.77657
399	4	2	-0.3845211	0.60784867	-4.8789013	138.3514
400	4	6	0.046844741	0.99162105	-7.2402124	135.64635
401	4	6	0.046844741	2.7409525	-7.6221623	135.53908
402	4	7	0.095030152	1.9739341	-5.975485	133.80909
403	4	7	0.095030152	1.5116436	-4.81638	135.10164
404	4	7	0.098585562	4.364198	-5.9123355	134.5486
405	4	7	0.098585562	3.9255008	-4.8458098	135.92319
406	4	7	0.099892804	4.8598505	-3.4274852	134.25832
407	4	7	0.099892804	3.0961146	-3.0969693	134.26495
408	4	7	0.10147935	2.8072609	-4.5199526	132.22658
409	4	7	0.10147935	4.555736	-4.9637444	132.26464
410	4	6	0.07134051	3.4356066	-2.0980737	131.90311
411	4	6	0.07134051	5.1728661	-2.5608109	131.95463
412	4	5	0.33086166	5.0337204	-3.2669406	129.73044
413	5	8	-0.11816478	-1.472921	5.541706	116.23585
414	5	4	0.075656691	-2.8684324	5.6697562	116.23358
415	5	1	0.24999409	-3.4826642	4.5789533	115.41
416	5	3	-0.64882886	-3.6619225	4.7542206	114.13118
417	5	1	0.19678898	-4.216421	3.7256617	113.28942
418	5	4	0.14562771	-4.3768475	3.9819748	111.82259
419	5	11	-0.67028868	-3.2870124	3.4343929	111.13447
420	5	12	0.39221364	-3.4431387	3.6301704	110.17361
421	5	6	0.084676796	-4.4227291	5.0790954	111.64195
422	5	6	0.084676796	-5.3248865	3.5273872	111.45731
423	5	1	-0.34772706	-4.5316279	2.5322005	113.81854
424	5	9	0.21164096	-4.9292675	1.7353484	113.20204
425	5	1	-0.14690126	-4.3246074	2.3023144	115.26139
426	5	9	0.22223067	-4.5767793	1.3436349	115.69663
427	5	1	-0.34731552	-3.8218829	3.2764624	116.02647
428	5	9	0.21164096	-3.6638751	3.1094942	117.08432
429	5	6	0.10669705	-3.2652691	5.6418829	117.27422
430	5	6	0.10669705	-3.1361982	6.6574434	115.80295
431	6	1	0.55177081	-5.7617701	29.049015	2.7935101
432	6	2	-0.62953663	-6.0089701	27.821434	2.6515612
433	6	3	-0.51146686	-4.7875813	29.699531	1.9739765
434	6	4	0.037183703	-4.0440479	28.974631	0.94449534
435	6	4	-0.14058751	-3.0665068	29.905033	0.21944046
436	6	4	-0.13734054	-2.2698726	29.144162	-0.85130048
437	6	4	-0.13734054	-1.409348	30.069253	-1.7302253
438	6	4	-0.13927941	-0.32358024	30.858186	-0.97578402
439	6	4	0.03158125	0.71266371	29.953666	-0.29536045
440	6	3	-0.45327544	1.8117497	30.745772	0.25474392
441	6	1	0.78870601	2.9120304	30.13327	0.93279492
442	6	2	-0.57202446	2.9664147	28.882321	1.0738563
443	6	5	0.33743516	1.8110519	31.787641	0.16592845
444	6	6	0.075097584	0.23264558	29.389623	0.53164514
445	6	6	0.075097584	1.1194504	29.231715	-1.0370449
446	6	7	0.10147935	-0.78669337	31.534391	-0.22637843
447	6	7	0.10147935	0.19943454	31.501842	-1.7152617
448	6	7	0.099892804	-0.92209974	29.453886	-2.5186721
449	6	7	0.099892804	-2.0751685	30.791334	-2.2495636
450	6	7	0.099892804	-1.6365299	28.366557	-0.37319641
451	6	7	0.099892804	-2.9833612	28.61494	-1.5197467
452	6	7	0.10147935	-2.3688153	30.336924	0.96763173
453	6	7	0.10147935	-3.6370128	30.73212	-0.25879161
454	6	6	0.07134051	-4.761341	28.545239	0.21174851
455	6	6	0.07134051	-3.4784254	28.143292	1.4209728
456	6	5	0.33086163	-4.6180081	30.719394	2.1296881
457	7	8	-0.49096939	3.6750665	30.723478	1.3132918
458	7	4	0.16897948	3.5652086	31.972585	0.68877074
459	7	1	0.20704633	4.0995286	31.898119	-0.70858354
460	7	3	-0.65283245	5.3658385	32.117645	-0.93157607
461	7	1	0.24739488	5.9357156	32.024924	-2.2508698
462	7	4	0.075656706	7.4017807	32.266553	-2.4376501
463	7	8	-0.11816478	8.0750169	31.039907	-2.4666993
464	7	6	0.10669705	7.7833743	32.885047	-1.5952121
465	7	6	0.10669705	7.57812	32.821149	-3.3870929
466	7	1	-0.34731555	5.1588922	31.667071	-3.2864885
467	7	9	0.21164096	5.5699155	31.568146	-4.2842609
468	7	1	-0.14879747	3.7266541	31.398294	-3.0591165
469	7	9	0.22223067	3.0929526	31.110871	-3.8886171
470	7	1	-0.35406071	3.2159003	31.504928	-1.8292313
471	7	9	0.2114619	2.1655936	31.302815	-1.6563226
472	7	6	0.090627522	2.5051092	32.315176	0.68223792
473	7	6	0.090627522	4.1490312	32.716122	1.2717939
474	4	1	0.55177087	-6.2942011	29.615424	3.5453554
475	4	2	-0.62953669	-6.6150351	30.810163	3.3086385
476	4	3	-0.51146692	-6.6163483	29.001695	4.7982555
477	4	4	0.037183707	-7.3315612	29.703695	5.8625298
478	4	4	-0.14058751	-8.822225	29.812184	5.5259343
479	4	4	-0.13716258	-9.5884732	30.52963	6.6480949
480	4	4	-0.13298538	-11.107028	30.544601	6.4122491
481	4	4	-0.11714902	-11.520068	31.490411	5.2730585
482	4	4	0.19034504	-13.047261	31.571278	5.1221606
483	4	3	-0.57194996	-13.677103	32.16449	6.29847
484	4	10	0.59756476	-13.506576	33.386647	6.6099705
485	4	2	-0.3845211	-13.33889	34.575145	6.9134714
486	4	6	0.046844741	-13.301801	32.170173	4.2199436
487	4	6	0.046844741	-13.456733	30.549542	4.9730069
488	4	7	0.095030152	-11.104786	31.119171	4.3122637
489	4	7	0.095030152	-11.109003	32.507315	5.4528571
490	4	7	0.098585562	-11.465381	29.513741	6.1982069
491	4	7	0.098585562	-11.59242	30.879347	7.3551054
492	4	7	0.099892804	-9.396242	30.001962	7.607008
493	4	7	0.099892804	-9.2136542	31.571236	6.756074
494	4	7	0.10147935	-8.938759	30.373411	4.5759506
495	4	7	0.10147935	-9.2362563	28.789088	5.3864948
496	4	6	0.07134051	-6.8902343	30.714376	6.0085131
497	4	6	0.07134051	-7.211213	29.137075	6.8109753
498	4	5	0.33086166	-6.271566	28.031941	4.9777416
499	5	8	-0.11816478	9.0355957	31.256492	-2.5936354
500	5	4	0.075656691	9.0851478	32.440635	-3.3414335
501	5	1	0.24999409	8.7930496	32.150474	-4.782234
502	5	3	-0.64882886	9.7649843	31.832392	-5.5899372
503	5	1	0.19678898	9.5335635	31.511481	-6.974651
504	5	4	0.14562771	10.691313	31.132465	-7.8458355
505	5	11	-0.67028868	10.774483	29.73678	-7.9249192
506	5	12	0.39221364	11.551995	29.541291	-8.5107559
507	5	6	0.084676796	11.630571	31.540989	-7.4107345
508	5	6	0.084676796	10.560489	31.564159	-8.8633754
509	5	1	-0.34772706	8.2790472	31.502655	-7.4540111
510	5	9	0.21164096	8.0772484	31.243014	-8.4860091
511	5	1	-0.14690126	7.1585487	31.844579	-6.55674
512	5	9	0.22223067	6.1440972	31.840929	-6.9348524
513	5	1	-0.34731552	7.3982549	32.153279	-5.2783476
514	5	9	0.21164096	6.5781383	32.399551	-4.6160457
515	5	6	0.10669705	8.3615377	33.186808	-2.9404398
516	5	6	0.10669705	10.100447	32.88014	-3.2483264
517	6	1	0.55177081	-1.2984383	30.144646	37.420942
518	6	2	-0.62953663	-2.369199	29.518679	37.64421
519	6	3	-0.51146686	-1.0399042	30.719287	36.137665
520	6	4	0.037183703	-1.9991107	30.607044	35.039723
521	6	4	-0.14058751	-1.4734784	31.305382	33.78156
522	6	4	-0.13734054	-2.4698653	31.174963	32.619562
523	6	4	-0.13734054	-2.0736109	32.013838	31.391525
524	6	4	-0.13927941	-0.72832208	31.630284	30.748428
525	6	4	0.03158125	-0.70600934	30.191547	30.215067
526	6	3	-0.45327544	0.52165271	29.93554	29.463174
527	6	1	0.78870601	0.77825037	28.666773	28.854966
528	6	2	-0.57202446	-0.055463082	27.726658	28.948955
529	6	5	0.33743516	1.2456786	30.682789	29.359319
530	6	6	0.075097584	-0.75910281	29.476514	31.062657
531	6	6	0.075097584	-1.5817451	30.028701	29.549219
532	6	7	0.10147935	0.10238644	31.779875	31.47015