Title

138 atoms
147 bonds
232 angles
350 dihedrals
210 impropers

12 atom types
17 bond types
10 angle types
19 dihedral types
3 improper types
-8.317000389 91.68299961 xlo xhi
-23.18899918 76.81100082 ylo yhi
-2.861000061 97.13899994 zlo zhi
0.0 0.0 0.0 xy xz yz

Masses

1	12.01078
2	15.99943
3	14.00672
4	1.007947
5	12.01078
6	1.007947
7	1.007947
8	15.99943
9	1.007947
10	12.01078
11	15.99943
12	1.007947


Pair Coeffs

1	0.086879315	3.4806469
2	0.2102061	3.0398122
3	0.16769152	3.206876
4	0.015611343	2.5725815
5	0.10884061	3.3795318
6	0.014090815	1.1034277
7	0.015779483	2.6445434
8	0.16846514	3.0251065
9	0.013106998	2.4536265
10	0.21	3.3996695
11	0.20947353	2.99716
12	1.2326e-05	0.53453923

Bond Coeffs

1 harmonic	582.698766451	1.225198386222
2 harmonic	492.76746816345	1.381897776683
3 harmonic	279.1350963404	1.454628925034
4 harmonic	390.03554688505	1.390160554689
5 harmonic	505.144496193	1.019481865027
6 harmonic	360.7852444772	1.387193227181
7 harmonic	397.2545789619	1.085358495916
8 harmonic	289.73813263395	1.498646816465
9 harmonic	370.04670688625	1.093899492634
10 harmonic	301.15400723785	1.345741232799
11 harmonic	425.69104206635	1.362945806494
12 harmonic	382.5450169811	1.379244394267
13 harmonic	505.481965552	1.304826179986
14 harmonic	300.03137914615	1.451203938761
15 harmonic	602.81384337	1.196112346392
16 harmonic	385.7604595587	1.369745182308
17 harmonic	543.5267831885	0.9716763312559


Angle Coeffs

1 harmonic	55.42182150775	117.3465570514
2 harmonic	63.44422595415	115.5071327674
3 harmonic	57.8982893754	126.8062420451
4 harmonic	34.066775159195	129.1835929926
5 harmonic	53.20531626545	116.5475862634
6 harmonic	65.09061609600001	110.3538806181
7 harmonic	201.41175231035	127.4691416191
8 harmonic	48.776492647595	115.6030999533
9 harmonic	55.07882548015	112.8714009681
10 harmonic	33.56981613361	180


Dihedral Coeffs

1 fourier 1	1.193093382682	2	180
2 fourier 1	1.809047390003	2	180
3 fourier 1	-0.04816277792592	1	0
4 fourier 1	3.101948770557	2	180
5 fourier 1	-0.4252153282372	1	0
6 fourier 1	2.348375642009	2	180
7 fourier 1	1.256156174911	1	0
8 fourier 1	0.9974165607242	2	180
9 fourier 1	3.661930099076	2	180
10 fourier 1	0.02664938770063	3	0
11 fourier 1	2.779853741805	2	180
12 fourier 1	1.532232714475	2	180
13 fourier 1	0.4860993122944	2	180
14 fourier 1	0.8916986138746	1	0
15 fourier 1	1.550515418264	2	180
16 fourier 1	6.736762477654	2	180
17 fourier 1	0.457973137376	1	0
18 fourier 1	0	1	0
19 fourier 1	0.8283030590042	2	180


Improper Coeffs

1 0.3333333333333333	-1	2
2 0.3666666666666667	-1	2
3 3.5	-1	2


Atoms

1	1	1	0.571486	5.5349998	-0.74699998	1.5319999
2	1	2	-0.60915399	5.362	0.024	2.513
3	1	3	-0.50752801	4.6830001	-0.69	0.382
4	1	1	0.206205	3.4579999	0.059999999	0.31900001
5	1	1	-0.37892401	3.0510001	0.56800002	-0.85600001
6	1	4	0.21720199	3.651	0.43599999	-1.748
7	1	1	-0.141581	1.788	1.33	-0.949
8	1	4	0.215413	1.4859999	1.73	-1.909
9	1	1	-0.24482	1.028	1.518	0.14300001
10	1	5	-0.050533	-0.28	2.257	0.052000001
11	1	1	-0.24482	-1.397	1.299	-0.25999999
12	1	1	-0.141581	-1.729	1.021	-1.5319999
13	1	4	0.215413	-1.214	1.502	-2.355
14	1	1	-0.36673599	-2.799	0.046	-1.8279999
15	1	4	0.21720199	-3.056	-0.154	-2.8610001
16	1	1	0.236549	-3.4289999	-0.60000002	-0.833
17	1	3	-0.49570599	-4.474	-1.538	-1.145
18	1	1	0.833933	-4.776	-2.697	-0.359
19	1	2	-0.59559298	-4.0100002	-3.0810001	0.56300002
20	1	6	0.32478699	-5.0029998	-1.419	-2.0380001
21	1	1	-0.36673599	-3.0680001	-0.28400001	0.574
22	1	4	0.21720199	-3.598	-0.74699998	1.396
23	1	1	-0.141581	-2.105	0.60600001	0.84200001
24	1	4	0.215413	-1.855	0.829	1.872
25	1	7	0.126259	-0.486	2.7709999	1.015
26	1	7	0.126259	-0.223	3.0550001	-0.722
27	1	1	-0.141581	1.45	0.921	1.433
28	1	4	0.215413	0.824	1.028	2.3099999
29	1	1	-0.37892401	2.5940001	0.23100001	1.517
30	1	4	0.21720199	2.862	-0.227	2.4590001
31	1	6	0.321621	5.0229998	-1.169	-0.48300001
32	1	8	-0.433018	-5.632	-3.26	-0.57999998
33	1	1	0.28013399	-5.73	-4.6090002	-0.244
34	1	1	-0.18943401	-4.7220001	-5.2379999	0.38
35	1	4	0.213847	-3.816	-4.7030001	0.63599998
36	1	1	-0.14230099	-4.8410001	-6.6700001	0.73000002
37	1	4	0.208277	-4.0219998	-7.1269999	1.2640001
38	1	1	0.203832	-5.9590001	-7.3579998	0.41100001
39	1	3	-0.564762	-6.1440001	-8.7460003	0.73799998
40	1	1	0.42211401	-5.2199998	-9.5950003	1.077
41	1	1	-0.27558401	-5.5689998	-10.993	1.399
42	1	1	-0.179022	-4.6020002	-11.867	1.729
43	1	4	0.20950399	-3.5639999	-11.558	1.7640001
44	1	1	-0.179022	-4.9369998	-13.269	2.0539999
45	1	4	0.20950399	-4.132	-13.944	2.3150001
46	1	1	-0.27558401	-6.2160001	-13.689	2.023
47	1	1	0.42211401	-6.5890002	-15.083	2.3410001
48	1	3	-0.564762	-5.6880002	-15.956	2.6860001
49	1	1	0.203832	-5.9099998	-17.34	3.0079999
50	1	1	-0.140295	-7.0419998	-18	2.6789999
51	1	4	0.208277	-7.8460002	-17.52	2.141
52	1	1	-0.240528	-7.1989999	-19.429001	3.0250001
53	1	4	0.21289299	-8.1140003	-19.943001	2.763
54	1	1	0.175888	-6.2150002	-20.083	3.654
55	1	8	-0.017558999	-6.3730001	-21.429001	3.9749999
56	1	1	-0.240528	-4.9650002	-19.371	4.0009999
57	1	4	0.21289299	-4.164	-19.896999	4.5040002
58	1	1	-0.140295	-4.822	-18.076	3.6919999
59	1	4	0.208277	-3.904	-17.562	3.948
60	1	9	0.15086401	-7.6360002	-15.349	2.306
61	1	1	-0.179022	-7.283	-12.727	1.659
62	1	4	0.20950399	-8.3170004	-13.048	1.628
63	1	1	-0.179022	-6.98	-11.457	1.364
64	1	4	0.20950399	-7.776	-10.771	1.101
65	1	9	0.15086401	-4.178	-9.3030005	1.103
66	1	1	-0.14230099	-7.0689998	-6.6500001	-0.266
67	1	4	0.208277	-7.9759998	-7.1869998	-0.514
68	1	1	-0.18943401	-6.961	-5.3530002	-0.579
69	1	4	0.213847	-7.7779999	-4.8470001	-1.077
70	1	1	0.571486	6.368	-1.437	1.544
71	1	2	-0.60915399	6.388	-2.3900001	0.722
72	1	3	-0.50752699	7.4499998	-1.219	2.46
73	1	1	0.206205	8.54	-2.135	2.668
74	1	1	-0.37892401	8.3599997	-3.4690001	2.635
75	1	4	0.21720199	7.3829999	-3.8970001	2.4590001
76	1	1	-0.141581	9.4940004	-4.382	2.888
77	1	4	0.215413	9.323	-5.4510002	2.859
78	1	1	-0.24482	10.715	-3.8900001	3.1589999
79	1	5	-0.050533	11.866	-4.8099999	3.46
80	1	1	-0.25925401	11.912	-5.1230001	4.9310002
81	1	1	-0.186646	12.587	-4.3309999	5.7820001
82	1	4	0.201543	13.132	-3.4679999	5.4190001
83	1	1	-0.25861099	12.591	-4.6220002	7.23
84	1	4	0.20920999	13.153	-3.9690001	7.8860002
85	1	1	0.441508	11.905	-5.6789999	7.7150002
86	1	3	-0.34522399	11.875	-6.0050001	9.1140003
87	1	10	0.615134	12.482	-5.3439999	10.018
88	1	2	-0.30186099	13.072	-4.7020001	10.897
89	1	1	-0.25861099	11.15	-6.539	6.777
90	1	4	0.20920999	10.59	-7.3850002	7.1550002
91	1	1	-0.186646	11.15	-6.277	5.4640002
92	1	4	0.201543	10.588	-6.9130001	4.7919998
93	1	7	0.126259	11.77	-5.7529998	2.8770001
94	1	7	0.126259	12.821	-4.3400002	3.1359999
95	1	1	-0.141581	10.906	-2.4219999	3.233
96	1	4	0.215413	11.878	-2.0120001	3.4760001
97	1	1	-0.37892401	9.8789997	-1.595	3.0039999
98	1	4	0.21720199	10.03	-0.52499998	3.0610001
99	1	6	0.321621	7.4949999	-0.287	2.9289999
100	1	8	-0.017558999	-5.6409998	-21.944	4.4499998
101	1	1	0.175888	-4.4039998	-21.368999	4.7340002
102	1	1	-0.240528	-4.138	-20.1	4.3870001
103	1	4	0.21289299	-4.8850002	-19.502001	3.881
104	1	1	-0.140295	-2.8210001	-19.504	4.6960001
105	1	4	0.208277	-2.6619999	-18.469	4.4310002
106	1	1	0.203832	-1.8710001	-20.236	5.3179998
107	1	3	-0.564762	-0.57700002	-19.709999	5.6620002
108	1	1	0.42211401	-0.023	-18.634001	5.1859999
109	1	1	-0.27558401	1.314	-18.212999	5.6490002
110	1	1	-0.179022	1.885	-17.110001	5.1360002
111	1	4	0.20950399	1.375	-16.521999	4.3829999
112	1	1	-0.179022	3.2219999	-16.677	5.5910001
113	1	4	0.20950399	3.651	-15.783	5.1539998
114	1	1	-0.27558401	3.8870001	-17.382	6.526
115	1	1	0.42211401	5.2249999	-16.98	7.0050001
116	1	3	-0.564762	5.8049998	-15.907	6.5500002
117	1	1	0.203832	7.1030002	-15.41	6.9190001
118	1	1	-0.110428	8.0310001	-16.166	7.5450001
119	1	4	0.208277	7.849	-17.201	7.7950001
120	1	1	-0.36970901	9.3540001	-15.597	7.8800001
121	1	4	0.217372	10.085	-16.212	8.3889999
122	1	1	0.305958	9.6479998	-14.333	7.552
123	1	11	-0.64744002	10.897	-13.807	7.8720002
124	1	12	0.43773001	11.141	-12.854	7.6329999
125	1	1	-0.36970901	8.6429996	-13.505	6.8509998
126	1	4	0.217372	8.8769999	-12.483	6.5780001
127	1	1	-0.110428	7.4429998	-14.016	6.5489998
128	1	4	0.208277	6.7129998	-13.404	6.0339999
129	1	9	0.15086401	5.6960001	-17.587	7.7649999
130	1	1	-0.179022	3.2579999	-18.599001	7.0929999
131	1	4	0.20950399	3.7780001	-19.177999	7.8460002
132	1	1	-0.179022	2.046	-18.992001	6.6810002
133	1	4	0.20950399	1.607	-19.884001	7.1100001
134	1	9	0.15086401	-0.51599997	-18.045	4.4239998
135	1	1	-0.140295	-2.1800001	-21.629999	5.7080002
136	1	4	0.208277	-1.432	-22.222	6.2199998
137	1	1	-0.240528	-3.3740001	-22.167	5.4299998
138	1	4	0.21289299	-3.5880001	-23.188999	5.7179999

Bonds

1	1	1	2
2	2	1	3
3	3	1	70
4	4	3	4
5	5	3	31
6	6	4	5
7	6	4	29
8	7	5	6
9	6	5	7
10	7	7	8
11	6	7	9
12	8	9	10
13	6	9	27
14	8	10	11
15	9	10	25
16	9	10	26
17	6	11	12
18	6	11	23
19	7	12	13
20	6	12	14
21	7	14	15
22	6	14	16
23	4	16	17
24	6	16	21
25	2	17	18
26	5	17	20
27	1	18	19
28	10	18	32
29	7	21	22
30	6	21	23
31	7	23	24
32	7	27	28
33	6	27	29
34	7	29	30
35	11	32	33
36	6	33	34
37	6	33	68
38	7	34	35
39	6	34	36
40	7	36	37
41	6	36	38
42	12	38	39
43	6	38	66
44	13	39	40
45	3	40	41
46	7	40	65
47	6	41	42
48	6	41	63
49	7	42	43
50	6	42	44
51	7	44	45
52	6	44	46
53	3	46	47
54	6	46	61
55	13	47	48
56	7	47	60
57	12	48	49
58	6	49	50
59	6	49	58
60	7	50	51
61	6	50	52
62	7	52	53
63	6	52	54
64	11	54	55
65	6	54	56
66	14	55	100
67	7	56	57
68	6	56	58
69	7	58	59
70	7	61	62
71	6	61	63
72	7	63	64
73	7	66	67
74	6	66	68
75	7	68	69
76	1	70	71
77	2	70	72
78	4	72	73
79	5	72	99
80	6	73	74
81	6	73	97
82	7	74	75
83	6	74	76
84	7	76	77
85	6	76	78
86	8	78	79
87	6	78	95
88	8	79	80
89	9	79	93
90	9	79	94
91	6	80	81
92	6	80	91
93	7	81	82
94	6	81	83
95	7	83	84
96	6	83	85
97	12	85	86
98	6	85	89
99	15	86	87
100	1	87	88
101	7	89	90
102	6	89	91
103	7	91	92
104	7	95	96
105	6	95	97
106	7	97	98
107	11	100	101
108	6	101	102
109	6	101	137
110	7	102	103
111	6	102	104
112	7	104	105
113	6	104	106
114	12	106	107
115	6	106	135
116	13	107	108
117	3	108	109
118	7	108	134
119	6	109	110
120	6	109	132
121	7	110	111
122	6	110	112
123	7	112	113
124	6	112	114
125	3	114	115
126	6	114	130
127	13	115	116
128	7	115	129
129	12	116	117
130	6	117	118
131	6	117	127
132	7	118	119
133	6	118	120
134	7	120	121
135	6	120	122
136	16	122	123
137	6	122	125
138	17	123	124
139	7	125	126
140	6	125	127
141	7	127	128
142	7	130	131
143	6	130	132
144	7	132	133
145	7	135	136
146	6	135	137
147	7	137	138

Angles

1	3	47	46	61
2	4	22	21	23
3	4	75	74	76
4	3	44	46	61
5	3	36	38	39
6	3	112	114	130
7	3	11	23	21
8	3	48	49	50
9	4	15	14	16
10	4	113	112	114
11	9	106	107	108
12	5	78	79	80
13	5	9	10	25
14	3	3	4	29
15	4	33	68	69
16	4	43	42	44
17	4	50	52	53
18	3	72	73	97
19	3	34	33	68
20	3	12	11	23
21	3	101	137	135
22	4	82	81	83
23	3	46	61	63
24	3	41	63	61
25	4	73	74	75
26	4	12	14	15
27	4	38	66	67
28	4	107	108	134
29	3	42	44	46
30	4	16	21	22
31	3	40	41	42
32	2	1	3	31
33	3	83	85	89
34	3	33	34	36
35	3	50	49	58
36	4	74	76	77
37	4	101	102	103
38	3	123	122	125
39	4	85	89	90
40	4	73	97	98
41	4	35	34	36
42	4	4	5	6
43	3	7	9	10
44	3	17	18	19
45	3	41	42	44
46	3	32	33	68
47	4	51	50	52
48	4	66	68	69
49	4	135	137	138
50	4	117	127	128
51	4	136	135	137
52	3	112	114	115
53	3	40	41	63
54	4	28	27	29
55	3	110	109	132
56	4	78	95	96
57	9	115	116	117
58	3	102	104	106
59	3	122	125	127
60	3	38	66	68
61	3	100	101	102
62	6	55	100	101
63	3	33	68	66
64	3	16	21	23
65	3	110	112	114
66	1	16	17	18
67	4	81	83	84
68	3	118	117	127
69	3	17	16	21
70	4	90	89	91
71	3	104	106	107
72	5	78	79	93
73	3	74	76	78
74	3	101	102	104
75	3	72	73	74
76	3	100	101	137
77	4	130	132	133
78	4	34	36	37
79	4	67	66	68
80	3	114	115	116
81	4	117	118	119
82	4	49	50	51
83	3	86	85	89
84	3	106	135	137
85	3	83	85	86
86	3	55	54	56
87	4	5	7	8
88	4	11	12	13
89	8	93	79	94
90	3	81	83	85
91	5	11	10	25
92	4	13	12	14
93	4	109	108	134
94	1	1	3	4
95	5	78	79	94
96	4	111	110	112
97	3	117	127	125
98	9	85	86	87
99	4	118	120	121
100	3	42	41	63
101	4	80	91	92
102	3	4	29	27
103	4	109	110	111
104	4	125	127	128
105	4	8	7	9
106	4	57	56	58
107	3	1	70	71
108	3	52	54	55
109	3	39	40	41
110	4	77	76	78
111	4	96	95	97
112	4	48	47	60
113	6	122	123	124
114	4	84	83	85
115	3	71	70	72
116	5	9	10	26
117	3	50	52	54
118	4	21	23	24
119	3	108	109	132
120	3	116	117	118
121	3	44	46	47
122	5	11	10	26
123	3	120	122	123
124	4	9	27	28
125	6	54	55	100
126	5	9	10	11
127	4	45	44	46
128	3	73	74	76
129	3	2	1	70
130	3	12	14	16
131	5	80	79	93
132	3	2	1	3
133	3	52	54	56
134	4	116	115	129
135	3	14	16	17
136	3	104	106	135
137	3	85	89	91
138	3	4	5	7
139	3	80	91	89
140	3	7	9	27
141	3	76	78	79
142	4	105	104	106
143	3	79	80	91
144	3	9	27	29
145	2	70	72	99
146	4	39	40	65
147	3	78	95	97
148	3	76	78	95
149	4	27	29	30
150	3	73	97	95
151	2	73	72	99
152	5	80	79	94
153	3	34	36	38
154	3	32	33	34
155	3	117	118	120
156	3	49	50	52
157	3	17	18	32
158	2	4	3	31
159	6	18	32	33
160	3	74	73	97
161	3	10	11	12
162	3	107	108	109
163	3	39	38	66
164	3	5	7	9
165	3	46	47	48
166	3	11	12	14
167	2	16	17	20
168	3	10	11	23
169	4	109	132	133
170	3	118	120	122
171	2	18	17	20
172	4	89	91	92
173	3	116	117	127
174	9	38	39	40
175	4	46	61	62
176	3	109	110	112
177	4	49	58	59
178	4	80	81	82
179	3	36	38	66
180	3	14	16	21
181	3	10	9	27
182	4	42	44	45
183	4	114	130	131
184	4	61	63	64
185	4	33	34	35
186	4	46	47	60
187	3	107	106	135
188	4	131	130	132
189	4	54	56	57
190	3	81	80	91
191	4	41	42	43
192	3	3	1	70
193	4	41	40	65
194	3	79	78	95
195	3	115	114	130
196	3	108	109	110
197	3	5	4	29
198	4	122	125	126
199	3	3	4	5
200	3	80	81	83
201	4	102	104	105
202	4	11	23	24
203	4	56	58	59
204	4	110	112	113
205	3	114	130	132
206	8	25	10	26
207	4	62	61	63
208	4	103	102	104
209	3	109	132	130
210	4	95	97	98
211	4	119	118	120
212	3	102	101	137
213	9	47	48	49
214	4	114	115	129
215	3	1	70	72
216	4	126	125	127
217	4	6	5	7
218	7	19	18	32
219	3	54	56	58
220	10	86	87	88
221	3	49	58	56
222	4	37	36	38
223	4	101	137	138
224	3	48	49	58
225	4	106	135	136
226	3	120	122	125
227	1	70	72	73
228	4	41	63	64
229	3	79	80	81
230	4	4	29	30
231	4	121	120	122
232	4	53	52	54

Dihedrals

1	9	110	109	132	130
2	9	111	110	112	113
3	9	22	21	23	24
4	19	120	122	123	124
5	8	132	109	108	134
6	10	81	80	79	93
7	9	12	11	23	21
8	18	85	86	87	88
9	9	116	117	127	128
10	9	112	110	109	132
11	10	11	10	9	27
12	9	14	16	21	22
13	9	51	50	49	58
14	9	117	118	120	121
15	9	16	21	23	24
16	16	106	107	108	109
17	9	7	9	27	28
18	9	115	114	130	131
19	10	7	9	10	11
20	9	67	66	68	69
21	10	78	79	80	91
22	12	19	18	32	33
23	9	123	122	125	127
24	9	118	117	127	125
25	9	35	34	33	68
26	9	120	122	125	126
27	9	85	89	91	92
28	9	96	95	97	98
29	8	63	41	40	65
30	9	121	120	122	123
31	9	5	4	29	27
32	10	9	10	11	23
33	9	46	61	63	64
34	9	74	76	78	79
35	15	83	85	86	87
36	9	72	73	74	75
37	1	97	73	72	99
38	9	4	29	27	28
39	9	32	33	68	66
40	9	73	97	95	96
41	9	3	4	29	27
42	9	41	42	44	45
43	1	1	3	4	29
44	9	109	132	130	114
45	9	6	5	7	8
46	9	136	135	137	138
47	9	81	83	85	86
48	9	43	42	41	63
49	9	116	117	127	125
50	10	76	78	79	94
51	9	41	63	61	46
52	9	79	78	95	97
53	9	15	14	16	21
54	9	3	4	5	7
55	9	49	58	56	57
56	9	9	27	29	30
57	15	47	48	49	58
58	9	10	9	27	29
59	9	47	46	61	62
60	9	4	29	27	9
61	1	14	16	17	20
62	9	13	12	14	15
63	15	108	107	106	135
64	9	102	104	106	107
65	2	31	3	1	70
65	3	31	3	1	70
66	9	114	130	132	133
67	9	5	7	9	10
68	9	119	118	117	127
69	9	48	49	58	59
70	10	78	79	80	81
71	9	81	80	91	89
72	9	40	41	63	61
73	9	80	81	83	85
74	9	12	11	23	24
75	12	18	32	33	68
76	9	10	11	23	24
77	9	55	54	56	58
78	9	102	104	106	135
79	9	34	36	38	66
80	4	71	70	72	73
80	5	71	70	72	73
81	8	107	108	109	132
82	9	4	5	7	8
83	10	76	78	79	80
84	9	11	23	21	22
85	9	76	74	73	97
86	9	12	14	16	21
87	2	4	3	1	70
87	3	4	3	1	70
88	9	110	112	114	130
89	9	84	83	85	86
90	9	79	80	81	83
91	15	104	106	107	108
92	9	37	36	38	66
93	8	107	108	109	110
94	10	7	9	10	26
95	9	116	117	118	119
96	8	44	46	47	48
97	9	52	54	56	58
98	9	40	41	42	44
99	10	76	78	79	93
100	9	103	102	101	137
101	9	3	4	5	6
102	9	34	36	38	39
103	9	10	9	27	28
104	10	91	80	79	93
105	9	118	120	122	123
106	9	32	33	68	69
107	9	100	101	102	104
108	9	86	85	89	90
109	9	38	66	68	69
110	9	11	23	21	16
111	10	94	79	78	95
112	9	75	74	73	97
113	9	8	7	9	27
114	9	112	114	130	132
115	9	33	68	66	38
116	9	81	83	85	89
117	9	51	50	52	54
118	9	53	52	54	55
119	9	104	106	135	137
120	6	71	70	72	99
120	7	71	70	72	99
121	10	26	10	9	27
122	9	10	11	23	21
123	9	74	76	78	95
124	9	37	36	38	39
125	9	82	81	83	84
126	12	18	32	33	34
127	9	113	112	114	115
128	9	36	34	33	68
129	9	17	16	21	23
130	9	113	112	114	130
131	9	44	46	61	63
132	9	77	76	78	79
133	9	80	81	83	84
134	9	75	74	76	77
135	9	101	137	135	106
136	9	73	74	76	77
137	9	103	102	104	106
138	10	93	79	78	95
139	9	55	54	56	57
140	11	17	18	32	33
141	9	41	63	61	62
142	9	43	42	44	46
143	9	83	85	89	90
144	9	49	50	52	54
145	9	108	109	110	112
146	2	16	17	18	32
146	3	16	17	18	32
147	1	70	72	73	74
148	9	48	49	50	52
149	16	49	48	47	60
150	9	50	52	54	56
151	9	81	80	91	92
152	9	14	12	11	23
153	9	62	61	63	64
154	9	13	12	11	23
155	9	109	110	112	114
156	1	20	17	16	21
157	9	40	41	63	64
158	9	35	34	36	37
159	9	79	80	81	82
160	10	7	9	10	25
161	9	80	91	89	90
162	9	101	102	104	105
163	9	119	118	120	122
164	9	45	44	46	61
165	9	121	120	122	125
166	9	76	78	95	97
167	17	54	55	100	101
168	9	40	41	42	43
169	9	11	12	14	16
170	16	38	39	40	41
171	10	23	11	10	26
172	9	107	106	135	136
173	9	36	38	66	68
174	9	73	97	95	78
175	9	112	114	130	131
176	9	33	34	36	38
177	9	84	83	85	89
178	9	51	50	52	53
179	8	3	1	70	71
180	9	104	106	135	136
181	9	109	132	130	131
182	16	38	39	40	65
183	9	123	122	125	126
184	8	60	47	46	61
185	9	90	89	91	92
186	8	116	115	114	130
187	9	5	7	9	27
188	2	16	17	18	19
188	3	16	17	18	19
189	2	1	70	72	73
189	3	1	70	72	73
190	9	14	16	21	23
191	9	103	102	104	105
192	9	100	101	137	138
193	1	1	3	4	5
194	9	117	127	125	122
195	9	43	42	44	45
196	8	2	1	70	71
197	1	74	73	72	99
198	9	7	9	27	29
199	9	49	50	52	53
200	9	108	109	110	111
201	9	110	112	114	115
202	9	50	49	58	56
203	1	29	4	3	31
204	9	50	52	54	55
205	10	9	10	11	12
206	9	117	127	125	126
207	9	120	122	125	127
208	9	15	14	16	17
209	9	57	56	58	59
210	16	117	116	115	129
211	9	119	118	120	121
212	8	112	114	115	116
213	9	106	135	137	138
214	9	11	12	14	15
215	8	3	1	70	72
216	12	56	54	55	100
217	9	72	73	74	76
218	1	70	72	73	97
219	10	23	11	10	25
220	9	79	78	95	96
221	8	110	109	108	134
222	19	124	123	122	125
223	10	12	11	10	26
224	9	33	68	66	67
225	9	36	38	66	67
226	9	79	80	91	89
227	9	6	5	7	9
228	2	1	70	72	99
228	3	1	70	72	99
229	9	33	34	36	37
230	9	77	76	78	95
231	9	72	73	97	95
232	9	111	110	109	132
233	9	100	101	137	135
234	9	102	101	137	138
235	8	39	40	41	63
236	15	47	48	49	50
237	9	126	125	127	128
238	9	118	120	122	125
239	8	2	1	70	72
240	9	12	14	16	17
241	9	83	81	80	91
242	9	13	12	14	16
243	9	10	11	12	14
244	15	36	38	39	40
245	9	28	27	29	30
246	9	42	44	46	61
247	9	42	41	63	61
248	9	74	73	97	95
249	6	2	1	3	31
249	7	2	1	3	31
250	9	54	56	58	59
251	9	102	101	137	135
252	9	52	54	56	57
253	9	4	5	7	9
254	9	44	42	41	63
255	9	50	49	58	59
256	1	18	17	16	21
257	2	20	17	18	32
257	3	20	17	18	32
258	10	12	11	10	25
259	9	100	101	102	103
260	9	78	95	97	98
261	15	115	116	117	127
262	1	14	16	17	18
263	8	44	46	47	60
264	9	116	117	118	120
265	9	131	130	132	133
266	10	25	10	9	27
267	9	101	137	135	136
268	9	39	38	66	68
269	8	39	40	41	42
270	16	114	115	116	117
271	9	32	33	34	36
272	9	42	44	46	47
273	10	91	80	79	94
274	9	34	33	68	69
275	9	86	85	89	91
276	9	79	80	91	92
277	9	17	16	21	22
278	9	108	109	132	133
279	9	120	118	117	127
280	9	111	110	112	114
281	9	44	46	61	62
282	9	72	73	97	98
283	9	52	50	49	58
284	9	10	11	12	13
285	9	53	52	54	56
286	10	81	80	79	94
287	9	80	91	89	85
288	9	117	118	120	122
289	9	45	44	46	47
290	13	19	18	17	20
290	14	19	18	17	20
291	9	82	81	83	85
292	12	55	100	101	102
293	15	115	116	117	118
294	9	115	114	130	132
295	12	55	100	101	137
296	9	48	49	50	51
297	9	105	104	106	107
298	9	110	109	132	133
299	16	106	107	108	134
300	9	109	110	112	113
301	1	5	4	3	31
302	8	42	41	40	65
303	9	75	74	76	78
304	9	73	74	76	78
305	8	48	47	46	61
306	9	82	81	80	91
307	9	76	78	95	96
308	9	6	5	4	29
309	15	40	39	38	66
310	9	83	85	89	91
311	12	52	54	55	100
312	9	49	58	56	54
313	8	112	114	115	129
314	9	42	41	63	64
315	15	87	86	85	89
316	9	34	33	68	66
317	9	118	117	127	128
318	9	122	125	127	128
319	9	41	42	44	46
320	9	108	109	132	130
321	9	74	73	97	98
322	8	129	115	114	130
323	9	35	34	36	38
324	9	105	104	106	135
325	16	46	47	48	49
326	9	101	102	104	106
327	9	104	102	101	137
328	9	5	4	29	30
329	9	8	7	9	10
330	9	39	38	66	67
331	4	2	1	3	4
331	5	2	1	3	4
332	9	107	106	135	137
333	9	32	33	34	35
334	9	48	49	58	56
335	10	80	79	78	95
336	9	47	46	61	63
337	9	7	5	4	29
338	9	3	4	29	30

Impropers

2	3	18	17	19	32
3	2	14	15	16	12
4	2	56	57	58	54
5	2	9	10	27	7
7	2	34	36	33	35
8	2	110	109	111	112
13	2	5	6	7	4
16	2	33	32	34	68
17	2	40	39	41	65
18	2	109	110	132	108
19	2	21	23	16	22
22	2	125	122	126	127
23	2	95	97	78	96
24	2	29	27	30	4
25	2	130	131	132	114
26	2	33	34	68	32
28	2	95	96	97	78
29	2	118	117	119	120
39	2	44	46	42	45
43	2	112	113	114	110
45	2	16	21	14	17
46	2	49	50	58	48
47	2	36	34	37	38
49	1	72	73	99	70
52	2	12	13	14	11
55	2	58	56	59	49
58	2	61	46	62	63
60	2	38	36	39	66
62	2	56	58	54	57
63	2	117	118	127	116
64	2	7	8	9	5
69	2	68	66	69	33
72	2	47	60	46	48
77	2	89	85	90	91
79	3	18	32	17	19
83	2	33	68	32	34
86	2	74	73	75	76
87	2	137	101	135	138
90	2	41	63	40	42
95	2	1	2	3	70
96	2	115	116	129	114
97	2	41	42	63	40
99	2	83	81	84	85
101	2	120	121	122	118
103	2	102	101	103	104
112	2	76	74	77	78
115	2	85	89	83	86
121	2	110	111	112	109
122	2	127	128	117	125
124	3	18	19	32	17
125	1	3	31	1	4
127	2	125	127	122	126
129	2	104	102	105	106
131	2	114	115	130	112
132	2	130	132	114	131
133	2	108	134	107	109
134	2	125	126	127	122
136	2	44	45	46	42
137	2	81	82	83	80
139	2	38	39	66	36
140	2	27	9	28	29
144	2	104	105	106	102
145	2	135	136	137	106
146	2	29	30	4	27
149	2	49	58	48	50
151	2	5	7	4	6
153	2	46	44	47	61
154	2	120	122	118	121
157	2	130	114	131	132
159	2	5	4	6	7
161	2	112	110	113	114
162	2	117	116	118	127
163	2	66	67	68	38
164	2	76	78	74	77
165	2	85	86	89	83
166	2	80	81	91	79
169	2	1	3	70	2
172	2	23	24	11	21
174	1	17	16	18	20
175	2	81	83	80	82
177	2	40	65	39	41
178	1	3	4	31	1
180	2	70	1	71	72
181	1	17	20	16	18
190	2	27	28	29	9
193	2	104	106	102	105
195	2	7	9	5	8
196	2	12	14	11	13
197	2	58	59	49	56
198	2	41	40	42	63
199	2	73	72	74	97
202	2	85	83	86	89
204	2	108	109	134	107
209	2	29	4	27	30
211	2	97	73	95	98
213	1	3	1	4	31
215	2	66	38	67	68
222	2	106	104	107	135
224	2	40	41	65	39
225	2	95	78	96	97
227	2	58	49	56	59
229	2	11	10	12	23
232	2	4	5	29	3
233	2	46	47	61	44
238	2	122	120	123	125
242	2	16	17	21	14
243	2	81	80	82	83
246	2	106	135	104	107
252	2	114	130	112	115
254	2	63	61	64	41
259	2	89	90	91	85
260	2	70	72	1	71
262	2	89	91	85	90
265	2	127	125	128	117
268	2	101	137	100	102
270	2	56	54	57	58
271	2	108	107	109	134
272	2	54	52	55	56
274	2	78	79	95	76
275	2	137	135	138	101
276	2	135	137	106	136
280	2	115	114	116	129
284	2	47	46	48	60
285	2	68	69	33	66
286	2	38	66	36	39
287	2	74	75	76	73
290	2	4	29	3	5
292	2	46	61	44	47
297	2	106	107	135	104
299	2	78	76	79	95
305	2	9	27	7	10
306	2	117	127	116	118
307	2	50	49	51	52
308	2	109	132	108	110
309	2	52	50	53	54
310	2	132	133	109	130
311	2	109	108	110	132
315	2	91	89	92	80
316	2	83	84	85	81
317	2	34	35	36	33
325	2	21	22	23	16
326	2	135	106	136	137
330	2	12	11	13	14
331	2	83	85	81	84
332	2	54	56	52	55
333	2	97	98	73	95
337	2	78	95	76	79
340	2	11	23	10	12
342	2	80	79	81	91
343	2	34	33	35	36
344	1	72	99	70	73
345	2	101	102	137	100
347	2	50	51	52	49
348	2	52	53	54	50
351	2	36	37	38	34
352	2	63	41	61	64
354	2	118	120	117	119
355	2	11	12	23	10
359	2	114	112	115	130
360	2	115	129	114	116
361	2	63	64	41	61
362	2	42	44	41	43
363	2	61	63	46	62
364	2	80	91	79	81
365	2	61	62	63	46
366	1	17	18	20	16
368	2	14	12	15	16
372	2	76	77	78	74
373	2	102	104	101	103
374	2	9	7	10	27
375	2	91	80	89	92
376	2	122	123	125	120
377	2	102	103	104	101
379	2	54	55	56	52
380	2	120	118	121	122
381	2	23	21	24	11
382	2	42	43	44	41
386	2	42	41	43	44
387	2	91	92	80	89
390	2	16	14	17	21
391	2	49	48	50	58
392	2	73	97	72	74
393	2	27	29	9	28
399	2	52	54	50	53
400	2	47	48	60	46
401	2	132	130	133	109
402	2	73	74	97	72
403	2	97	95	98	73
404	2	132	109	130	133
405	2	118	119	120	117
406	2	1	70	2	3
407	2	44	42	45	46
408	2	70	71	72	1
411	2	112	114	110	113
414	2	21	16	22	23
417	2	74	76	73	75
418	2	36	38	34	37
424	2	66	68	38	67
426	2	110	112	109	111
429	2	14	16	12	15
431	2	50	52	49	51
432	2	122	125	120	123
438	2	23	11	21	24
443	2	127	117	125	128
449	2	101	100	102	137
454	2	4	3	5	29
461	1	72	70	73	99
465	2	137	138	101	135
467	2	68	33	66	69
468	2	7	5	8	9
