Title

138 atoms
147 bonds
232 angles
350 dihedrals
210 impropers

12 atom types
17 bond types
10 angle types
19 dihedral types
3 improper types
-8.317000389 91.68299961 xlo xhi
-23.18899918 76.81100082 ylo yhi
-2.861000061 97.13899994 zlo zhi
0.0 0.0 0.0 xy xz yz

Masses

1	12.01078
2	15.99943
3	14.00672
4	1.007947
5	12.01078
6	1.007947
7	1.007947
8	15.99943
9	1.007947
10	12.01078
11	15.99943
12	1.007947


Pair Coeffs

1	0.086879315	3.4806469
2	0.2102061	3.0398122
3	0.16769152	3.206876
4	0.015611343	2.5725815
5	0.10884061	3.3795318
6	0.014090815	1.1034277
7	0.015779483	2.6445434
8	0.16846514	3.0251065
9	0.013106998	2.4536265
10	0.21	3.3996695
11	0.20947353	2.99716
12	1.2326e-05	0.53453923

Bond Coeffs

1 harmonic	582.698766451	1.225198386222
2 harmonic	492.76746816345	1.381897776683
3 harmonic	279.1350963404	1.454628925034
4 harmonic	390.03554688505	1.390160554689
5 harmonic	505.144496193	1.019481865027
6 harmonic	360.7852444772	1.387193227181
7 harmonic	397.2545789619	1.085358495916
8 harmonic	289.73813263395	1.498646816465
9 harmonic	370.04670688625	1.093899492634
10 harmonic	301.15400723785	1.345741232799
11 harmonic	425.69104206635	1.362945806494
12 harmonic	382.5450169811	1.379244394267
13 harmonic	505.481965552	1.304826179986
14 harmonic	300.03137914615	1.451203938761
15 harmonic	602.81384337	1.196112346392
16 harmonic	385.7604595587	1.369745182308
17 harmonic	543.5267831885	0.9716763312559


Angle Coeffs

1 harmonic	55.42182150775	117.3465570514
2 harmonic	63.44422595415	115.5071327674
3 harmonic	57.8982893754	126.8062420451
4 harmonic	34.066775159195	129.1835929926
5 harmonic	53.20531626545	116.5475862634
6 harmonic	65.09061609600001	110.3538806181
7 harmonic	201.41175231035	127.4691416191
8 harmonic	48.776492647595	115.6030999533
9 harmonic	55.07882548015	112.8714009681
10 harmonic	33.56981613361	180


Dihedral Coeffs

1 fourier 1	1.193093382682	2	180
2 fourier 1	1.809047390003	2	180
3 fourier 1	-0.04816277792592	1	0
4 fourier 1	3.101948770557	2	180
5 fourier 1	-0.4252153282372	1	0
6 fourier 1	2.348375642009	2	180
7 fourier 1	1.256156174911	1	0
8 fourier 1	0.9974165607242	2	180
9 fourier 1	3.661930099076	2	180
10 fourier 1	0.02664938770063	3	0
11 fourier 1	2.779853741805	2	180
12 fourier 1	1.532232714475	2	180
13 fourier 1	0.4860993122944	2	180
14 fourier 1	0.8916986138746	1	0
15 fourier 1	1.550515418264	2	180
16 fourier 1	6.736762477654	2	180
17 fourier 1	0.457973137376	1	0
18 fourier 1	0	1	0
19 fourier 1	0.8283030590042	2	180


Improper Coeffs

1 0.3333333333333333	-1	2
2 0.3666666666666667	-1	2
3 3.5	-1	2


Atoms

1	1	1	0.571486	5.5349998	-0.74699998	1.5319999
2	1	2	-0.60915399	5.362	0.024	2.513
3	1	3	-0.50752801	4.6830001	-0.69	0.382
4	1	1	0.206205	3.4579999	0.059999999	0.31900001
5	1	1	-0.37892401	3.0510001	0.56800002	-0.85600001
6	1	4	0.21720199	3.651	0.43599999	-1.748
7	1	1	-0.141581	1.788	1.33	-0.949
8	1	4	0.215413	1.4859999	1.73	-1.909
9	1	1	-0.24482	1.028	1.518	0.14300001
10	1	5	-0.050533	-0.28	2.257	0.052000001
11	1	1	-0.24482	-1.397	1.299	-0.25999999
12	1	1	-0.141581	-1.729	1.021	-1.5319999
13	1	4	0.215413	-1.214	1.502	-2.355
14	1	1	-0.36673599	-2.799	0.046	-1.8279999
15	1	4	0.21720199	-3.056	-0.154	-2.8610001
16	1	1	0.236549	-3.4289999	-0.60000002	-0.833
17	1	3	-0.49570599	-4.474	-1.538	-1.145
18	1	1	0.833933	-4.776	-2.697	-0.359
19	1	2	-0.59559298	-4.0100002	-3.0810001	0.56300002
20	1	6	0.32478699	-5.0029998	-1.419	-2.0380001
21	1	1	-0.36673599	-3.0680001	-0.28400001	0.574
22	1	4	0.21720199	-3.598	-0.74699998	1.396
23	1	1	-0.141581	-2.105	0.60600001	0.84200001
24	1	4	0.215413	-1.855	0.829	1.872
25	1	7	0.126259	-0.486	2.7709999	1.015
26	1	7	0.126259	-0.223	3.0550001	-0.722
27	1	1	-0.141581	1.45	0.921	1.433
28	1	4	0.215413	0.824	1.028	2.3099999
29	1	1	-0.37892401	2.5940001	0.23100001	1.517
30	1	4	0.21720199	2.862	-0.227	2.4590001
31	1	6	0.321621	5.0229998	-1.169	-0.48300001
32	1	8	-0.433018	-5.632	-3.26	-0.57999998
33	1	1	0.28013399	-5.73	-4.6090002	-0.244
34	1	1	-0.18943401	-4.7220001	-5.2379999	0.38
35	1	4	0.213847	-3.816	-4.7030001	0.63599998
36	1	1	-0.14230099	-4.8410001	-6.6700001	0.73000002
37	1	4	0.208277	-4.0219998	-7.1269999	1.2640001
38	1	1	0.203832	-5.9590001	-7.3579998	0.41100001
39	1	3	-0.564762	-6.1440001	-8.7460003	0.73799998
40	1	1	0.42211401	-5.2199998	-9.5950003	1.077
41	1	1	-0.27558401	-5.5689998	-10.993	1.399
42	1	1	-0.179022	-4.6020002	-11.867	1.729
43	1	4	0.20950399	-3.5639999	-11.558	1.7640001
44	1	1	-0.179022	-4.9369998	-13.269	2.0539999
45	1	4	0.20950399	-4.132	-13.944	2.3150001
46	1	1	-0.27558401	-6.2160001	-13.689	2.023
47	1	1	0.42211401	-6.5890002	-15.083	2.3410001
48	1	3	-0.564762	-5.6880002	-15.956	2.6860001
49	1	1	0.203832	-5.9099998	-17.34	3.0079999
50	1	1	-0.140295	-7.0419998	-18	2.6789999
51	1	4	0.208277	-7.8460002	-17.52	2.141
52	1	1	-0.240528	-7.1989999	-19.429001	3.0250001
53	1	4	0.21289299	-8.1140003	-19.943001	2.763
54	1	1	0.175888	-6.2150002	-20.083	3.654
55	1	8	-0.017558999	-6.3730001	-21.429001	3.9749999
56	1	1	-0.240528	-4.9650002	-19.371	4.0009999
57	1	4	0.21289299	-4.164	-19.896999	4.5040002
58	1	1	-0.140295	-4.822	-18.076	3.6919999
59	1	4	0.208277	-3.904	-17.562	3.948
60	1	9	0.15086401	-7.6360002	-15.349	2.306
61	1	1	-0.179022	-7.283	-12.727	1.659
62	1	4	0.20950399	-8.3170004	-13.048	1.628
63	1	1	-0.179022	-6.98	-11.457	1.364
64	1	4	0.20950399	-7.776	-10.771	1.101
65	1	9	0.15086401	-4.178	-9.3030005	1.103
66	1	1	-0.14230099	-7.0689998	-6.6500001	-0.266
67	1	4	0.208277	-7.9759998	-7.1869998	-0.514
68	1	1	-0.18943401	-6.961	-5.3530002	-0.579
69	1	4	0.213847	-7.7779999	-4.8470001	-1.077
70	1	1	0.571486	6.368	-1.437	1.544
71	1	2	-0.60915399	6.388	-2.3900001	0.722
72	1	3	-0.50752699	7.4499998	-1.219	2.46
73	1	1	0.206205	8.54	-2.135	2.668
74	1	1	-0.37892401	8.3599997	-3.4690001	2.635
75	1	4	0.21720199	7.3829999	-3.8970001	2.4590001
76	1	1	-0.141581	9.4940004	-4.382	2.888
77	1	4	0.215413	9.323	-5.4510002	2.859
78	1	1	-0.24482	10.715	-3.8900001	3.1589999
79	1	5	-0.050533	11.866	-4.8099999	3.46
80	1	1	-0.25925401	11.912	-5.1230001	4.9310002
81	1	1	-0.186646	12.587	-4.3309999	5.7820001
82	1	4	0.201543	13.132	-3.4679999	5.4190001
83	1	1	-0.25861099	12.591	-4.6220002	7.23
84	1	4	0.20920999	13.153	-3.9690001	7.8860002
85	1	1	0.441508	11.905	-5.6789999	7.7150002
86	1	3	-0.34522399	11.875	-6.0050001	9.1140003
87	1	10	0.615134	12.482	-5.3439999	10.018
88	1	2	-0.30186099	13.072	-4.7020001	10.897
89	1	1	-0.25861099	11.15	-6.539	6.777
90	1	4	0.20920999	10.59	-7.3850002	7.1550002
91	1	1	-0.186646	11.15	-6.277	5.4640002
92	1	4	0.201543	10.588	-6.9130001	4.7919998
93	1	7	0.126259	11.77	-5.7529998	2.8770001
94	1	7	0.126259	12.821	-4.3400002	3.1359999
95	1	1	-0.141581	10.906	-2.4219999	3.233
96	1	4	0.215413	11.878	-2.0120001	3.4760001
97	1	1	-0.37892401	9.8789997	-1.595	3.0039999
98	1	4	0.21720199	10.03	-0.52499998	3.0610001
99	1	6	0.321621	7.4949999	-0.287	2.9289999
100	1	8	-0.017558999	-5.6409998	-21.944	4.4499998
101	1	1	0.175888	-4.4039998	-21.368999	4.7340002
102	1	1	-0.240528	-4.138	-20.1	4.3870001
103	1	4	0.21289299	-4.8850002	-19.502001	3.881
104	1	1	-0.140295	-2.8210001	-19.504	4.6960001
105	1	4	0.208277	-2.6619999	-18.469	4.4310002
106	1	1	0.203832	-1.8710001	-20.236	5.3179998
107	1	3	-0.564762	-0.57700002	-19.709999	5.6620002
108	1	1	0.42211401	-0.023	-18.634001	5.1859999
109	1	1	-0.27558401	1.314	-18.212999	5.6490002
110	1	1	-0.179022	1.885	-17.110001	5.1360002
111	1	4	0.20950399	1.375	-16.521999	4.3829999
112	1	1	-0.179022	3.2219999	-16.677	5.5910001
113	1	4	0.20950399	3.651	-15.783	5.1539998
114	1	1	-0.27558401	3.8870001	-17.382	6.526
115	1	1	0.42211401	5.2249999	-16.98	7.0050001
116	1	3	-0.564762	5.8049998	-15.907	6.5500002
117	1	1	0.203832	7.1030002	-15.41	6.9190001
118	1	1	-0.110428	8.0310001	-16.166	7.5450001
119	1	4	0.208277	7.849	-17.201	7.7950001
120	1	1	-0.36970901	9.3540001	-15.597	7.8800001
121	1	4	0.217372	10.085	-16.212	8.3889999
122	1	1	0.305958	9.6479998	-14.333	7.552
123	1	11	-0.64744002	10.897	-13.807	7.8720002
124	1	12	0.43773001	11.141	-12.854	7.6329999
125	1	1	-0.36970901	8.6429996	-13.505	6.8509998
126	1	4	0.217372	8.8769999	-12.483	6.5780001
127	1	1	-0.110428	7.4429998	-14.016	6.5489998
128	1	4	0.208277	6.7129998	-13.404	6.0339999
129	1	9	0.15086401	5.6960001	-17.587	7.7649999
130	1	1	-0.179022	3.2579999	-18.599001	7.0929999
131	1	4	0.20950399	3.7780001	-19.177999	7.8460002
132	1	1	-0.179022	2.046	-18.992001	6.6810002
133	1	4	0.20950399	1.607	-19.884001	7.1100001
134	1	9	0.15086401	-0.51599997	-18.045	4.4239998
135	1	1	-0.140295	-2.1800001	-21.629999	5.7080002
136	1	4	0.208277	-1.432	-22.222	6.2199998
137	1	1	-0.240528	-3.3740001	-22.167	5.4299998
138	1	4	0.21289299	-3.5880001	-23.188999	5.7179999

Bonds

1	1	1	2
2	2	1	3
3	3	1	70
4	4	3	4
5	5	3	31
6	6	4	5
7	6	4	29
8	7	5	6
9	6	5	7
10	7	7	8
11	6	7	9
12	8	9	10
13	6	9	27
14	8	10	11
15	9	10	25
16	9	10	26
17	6	11	12
18	6	11	23
19	7	12	13
20	6	12	14
21	7	14	15
22	6	14	16
23	4	16	17
24	6	16	21
25	2	17	18
26	5	17	20
27	1	18	19
28	10	18	32
29	7	21	22
30	6	21	23
31	7	23	24
32	7	27	28
33	6	27	29
34	7	29	30
35	11	32	33
36	6	33	34
37	6	33	68
38	7	34	35
39	6	34	36
40	7	36	37
41	6	36	38
42	12	38	39
43	6	38	66
44	13	39	40
45	3	40	41
46	7	40	65
47	6	41	42
48	6	41	63
49	7	42	43
50	6	42	44
51	7	44	45
52	6	44	46
53	3	46	47
54	6	46	61
55	13	47	48
56	7	47	60
57	12	48	49
58	6	49	50
59	6	49	58
60	7	50	51
61	6	50	52
62	7	52	53
63	6	52	54
64	11	54	55
65	6	54	56
66	14	55	100
67	7	56	57
68	6	56	58
69	7	58	59
70	7	61	62
71	6	61	63
72	7	63	64
73	7	66	67
74	6	66	68
75	7	68	69
76	1	70	71
77	2	70	72
78	4	72	73
79	5	72	99
80	6	73	74
81	6	73	97
82	7	74	75
83	6	74	76
84	7	76	77
85	6	76	78
86	8	78	79
87	6	78	95
88	8	79	80
89	9	79	93
90	9	79	94
91	6	80	81
92	6	80	91
93	7	81	82
94	6	81	83
95	7	83	84
96	6	83	85
97	12	85	86
98	6	85	89
99	15	86	87
100	1	87	88
101	7	89	90
102	6	89	91
103	7	91	92
104	7	95	96
105	6	95	97
106	7	97	98
107	11	100	101
108	6	101	102
109	6	101	137
110	7	102	103
111	6	102	104
112	7	104	105
113	6	104	106
114	12	106	107
115	6	106	135
116	13	107	108
117	3	108	109
118	7	108	134
119	6	109	110
120	6	109	132
121	7	110	111
122	6	110	112
123	7	112	113
124	6	112	114
125	3	114	115
126	6	114	130
127	13	115	116
128	7	115	129
129	12	116	117
130	6	117	118
131	6	117	127
132	7	118	119
133	6	118	120
134	7	120	121
135	6	120	122
136	16	122	123
137	6	122	125
138	17	123	124
139	7	125	126
140	6	125	127
141	7	127	128
142	7	130	131
143	6	130	132
144	7	132	133
145	7	135	136
146	6	135	137
147	7	137	138

Angles

1	4	107	108	134
2	3	9	27	29
3	3	39	40	41
4	3	40	41	63
5	4	109	132	133
6	2	18	17	20
7	4	73	74	75
8	3	72	73	97
9	3	10	11	23
10	4	66	68	69
11	3	32	33	34
12	4	89	91	92
13	4	15	14	16
14	1	70	72	73
15	4	82	81	83
16	3	10	11	12
17	4	11	23	24
18	3	117	127	125
19	3	41	42	44
20	4	114	130	131
21	4	73	97	98
22	4	41	63	64
23	4	78	95	96
24	4	48	47	60
25	4	113	112	114
26	4	117	118	119
27	4	38	66	67
28	3	46	47	48
29	4	49	50	51
30	5	80	79	94
31	3	36	38	66
32	3	115	114	130
33	3	52	54	56
34	4	11	12	13
35	4	101	102	103
36	4	80	91	92
37	3	120	122	123
38	3	73	74	76
39	3	7	9	27
40	4	8	7	9
41	3	116	117	118
42	4	122	125	126
43	4	45	44	46
44	4	96	95	97
45	3	3	4	29
46	4	16	21	22
47	3	48	49	50
48	4	118	120	121
49	3	79	78	95
50	9	115	116	117
51	3	1	70	72
52	3	100	101	102
53	4	46	47	60
54	4	54	56	57
55	3	117	118	120
56	8	93	79	94
57	4	41	40	65
58	3	79	80	91
59	4	34	36	37
60	3	11	23	21
61	3	72	73	74
62	4	101	137	138
63	3	101	102	104
64	4	111	110	112
65	4	42	44	45
66	3	73	97	95
67	3	17	16	21
68	3	104	106	135
69	3	100	101	137
70	3	42	41	63
71	4	6	5	7
72	9	38	39	40
73	3	16	21	23
74	3	74	73	97
75	4	95	97	98
76	3	102	101	137
77	4	106	135	136
78	4	131	130	132
79	3	71	70	72
80	4	119	118	120
81	3	80	91	89
82	3	114	115	116
83	4	130	132	133
84	8	25	10	26
85	4	56	58	59
86	3	54	56	58
87	3	48	49	58
88	5	9	10	25
89	1	16	17	18
90	3	12	14	16
91	3	34	36	38
92	4	109	110	111
93	3	42	44	46
94	4	46	61	62
95	5	11	10	25
96	3	36	38	39
97	4	75	74	76
98	6	18	32	33
99	3	108	109	132
100	3	106	135	137
101	5	78	79	80
102	4	110	112	113
103	3	101	137	135
104	4	13	12	14
105	1	1	3	4
106	3	107	106	135
107	3	116	117	127
108	9	85	86	87
109	4	4	29	30
110	2	1	3	31
111	3	123	122	125
112	4	85	89	90
113	6	55	100	101
114	2	70	72	99
115	3	114	130	132
116	3	109	132	130
117	3	78	95	97
118	3	55	54	56
119	5	11	10	26
120	3	14	16	21
121	4	4	5	6
122	4	50	52	53
123	3	38	66	68
124	3	49	50	52
125	3	17	18	19
126	4	102	104	105
127	3	11	12	14
128	3	110	112	114
129	4	81	83	84
130	3	108	109	110
131	5	9	10	11
132	3	41	63	61
133	3	122	125	127
134	4	74	76	77
135	3	14	16	17
136	4	105	104	106
137	3	44	46	47
138	3	2	1	3
139	3	7	9	10
140	3	118	120	122
141	10	86	87	88
142	3	50	49	58
143	3	107	108	109
144	4	49	58	59
145	3	3	1	70
146	3	4	29	27
147	3	10	9	27
148	3	4	5	7
149	7	19	18	32
150	4	5	7	8
151	3	102	104	106
152	3	76	78	79
153	3	120	122	125
154	3	39	38	66
155	3	79	80	81
156	3	112	114	130
157	3	76	78	95
158	3	74	76	78
159	3	34	33	68
160	4	9	27	28
161	4	114	115	129
162	4	126	125	127
163	3	2	1	70
164	3	17	18	32
165	3	12	11	23
166	4	43	42	44
167	5	9	10	26
168	4	62	61	63
169	4	135	137	138
170	6	122	123	124
171	4	12	14	15
172	4	41	42	43
173	9	47	48	49
174	4	51	50	52
175	3	109	110	112
176	4	80	81	82
177	3	46	61	63
178	3	3	4	5
179	4	67	66	68
180	3	49	58	56
181	3	83	85	89
182	5	80	79	93
183	4	103	102	104
184	3	32	33	68
185	3	52	54	55
186	4	53	52	54
187	3	5	4	29
188	3	85	89	91
189	4	61	63	64
190	3	112	114	115
191	4	57	56	58
192	2	16	17	20
193	9	106	107	108
194	3	47	46	61
195	4	22	21	23
196	4	125	127	128
197	3	80	81	83
198	3	1	70	71
199	3	44	46	61
200	4	77	76	78
201	3	50	52	54
202	3	81	80	91
203	4	21	23	24
204	5	78	79	93
205	3	33	68	66
206	4	33	68	69
207	3	81	83	85
208	4	33	34	35
209	2	4	3	31
210	4	116	115	129
211	4	109	108	134
212	3	118	117	127
213	3	83	85	86
214	4	28	27	29
215	4	117	127	128
216	6	54	55	100
217	4	39	40	65
218	4	37	36	38
219	5	78	79	94
220	3	40	41	42
221	3	5	7	9
222	3	86	85	89
223	4	90	89	91
224	2	73	72	99
225	4	136	135	137
226	4	121	120	122
227	3	33	34	36
228	3	104	106	107
229	3	110	109	132
230	4	35	34	36
231	4	27	29	30
232	4	84	83	85

Dihedrals

1	8	107	108	109	132
2	9	22	21	23	24
3	9	53	52	54	55
4	8	39	40	41	42
5	18	85	86	87	88
6	9	42	44	46	61
7	9	75	74	76	78
8	9	108	109	110	111
9	9	15	14	16	17
10	9	117	118	120	121
11	15	108	107	106	135
12	9	72	73	74	76
13	16	46	47	48	49
14	15	115	116	117	127
15	9	123	122	125	126
16	9	14	16	21	23
17	15	83	85	86	87
18	9	136	135	137	138
19	1	14	16	17	18
20	9	83	85	89	90
21	9	104	106	135	137
22	10	81	80	79	93
23	1	70	72	73	97
24	15	47	48	49	58
25	9	84	83	85	89
26	9	10	9	27	28
27	9	72	73	97	95
28	2	31	3	1	70
28	3	31	3	1	70
29	9	35	34	33	68
30	10	91	80	79	93
31	9	10	11	23	24
32	9	112	110	109	132
33	9	79	80	91	89
34	9	101	137	135	106
35	16	38	39	40	41
36	9	78	95	97	98
37	9	36	38	66	67
38	10	78	79	80	81
39	9	75	74	73	97
40	9	52	50	49	58
41	12	55	100	101	137
42	9	42	44	46	47
43	10	76	78	79	94
44	9	100	101	102	104
45	9	107	106	135	136
46	2	20	17	18	32
46	3	20	17	18	32
47	9	51	50	52	53
48	9	104	102	101	137
49	10	12	11	10	25
50	9	105	104	106	135
51	16	114	115	116	117
52	9	47	46	61	62
53	1	74	73	72	99
54	9	41	63	61	46
55	9	119	118	120	122
56	9	17	16	21	23
57	9	33	34	36	38
58	9	41	42	44	46
59	9	81	83	85	89
60	9	13	12	14	15
61	1	29	4	3	31
62	9	119	118	117	127
63	9	75	74	76	77
64	8	112	114	115	116
65	9	113	112	114	115
66	9	45	44	46	61
67	9	55	54	56	58
68	9	80	81	83	84
69	8	60	47	46	61
70	9	74	76	78	79
71	9	81	80	91	89
72	9	7	5	4	29
73	9	8	7	9	27
74	9	3	4	29	27
75	9	48	49	58	59
76	9	14	16	21	22
77	9	115	114	130	131
78	9	40	41	63	61
79	9	104	106	135	136
80	1	1	3	4	5
81	9	48	49	50	51
82	9	4	5	7	8
83	10	76	78	79	80
84	9	108	109	132	130
85	9	73	97	95	96
86	11	17	18	32	33
87	9	43	42	41	63
88	9	79	78	95	97
89	9	46	61	63	64
90	8	3	1	70	71
91	8	48	47	46	61
92	9	72	73	97	98
93	9	6	5	4	29
94	15	47	48	49	50
95	9	40	41	42	44
96	9	101	137	135	136
97	10	76	78	79	93
98	9	116	117	127	125
99	9	100	101	102	103
100	10	94	79	78	95
101	16	106	107	108	134
102	9	11	12	14	16
103	9	45	44	46	47
104	9	82	81	83	85
105	9	112	114	130	132
106	10	9	10	11	23
107	9	17	16	21	22
108	9	5	4	29	27
109	2	4	3	1	70
109	3	4	3	1	70
110	9	48	49	58	56
111	10	7	9	10	26
112	9	105	104	106	107
113	9	111	110	112	113
114	9	118	120	122	123
115	9	109	110	112	113
116	8	44	46	47	48
117	9	121	120	122	125
118	10	23	11	10	26
119	16	49	48	47	60
120	1	1	3	4	29
121	9	110	109	132	130
122	10	11	10	9	27
123	12	55	100	101	102
124	9	14	12	11	23
125	2	16	17	18	19
125	3	16	17	18	19
126	9	103	102	101	137
127	9	44	46	61	63
128	9	116	117	118	119
129	9	73	74	76	78
130	9	114	130	132	133
131	9	32	33	34	35
132	9	39	38	66	68
133	9	11	12	14	15
134	9	103	102	104	106
135	9	101	102	104	106
136	9	49	50	52	54
137	8	116	115	114	130
138	9	34	33	68	66
139	9	131	130	132	133
140	9	41	63	61	62
141	9	81	80	91	92
142	9	120	118	117	127
143	9	110	112	114	115
144	9	62	61	63	64
145	9	36	34	33	68
146	9	79	78	95	96
147	9	3	4	29	30
148	9	79	80	81	83
149	9	40	41	63	64
150	9	35	34	36	37
151	1	14	16	17	20
152	12	18	32	33	68
153	9	6	5	7	9
154	9	76	78	95	97
155	15	87	86	85	89
156	9	40	41	42	43
157	9	108	109	132	133
158	9	44	42	41	63
159	9	74	76	78	95
160	9	82	81	83	84
161	9	3	4	5	7
162	16	117	116	115	129
163	9	28	27	29	30
164	9	12	14	16	17
165	9	112	114	130	131
166	8	2	1	70	72
167	9	7	9	27	29
168	10	25	10	9	27
169	9	52	54	56	58
170	9	118	117	127	125
171	2	1	70	72	73
171	3	1	70	72	73
172	9	10	11	12	14
173	9	116	117	127	128
174	9	50	52	54	56
175	12	18	32	33	34
176	9	37	36	38	39
177	9	80	91	89	85
178	9	12	14	16	21
179	9	72	73	74	75
180	9	122	125	127	128
181	9	5	4	29	30
182	9	73	74	76	77
183	8	44	46	47	60
184	9	5	7	9	27
185	9	39	38	66	67
186	9	108	109	110	112
187	9	110	109	132	133
188	9	49	50	52	53
189	1	97	73	72	99
190	9	117	118	120	122
191	1	18	17	16	21
192	10	9	10	11	12
193	9	123	122	125	127
194	9	102	101	137	135
195	9	43	42	44	46
196	8	112	114	115	129
197	9	57	56	58	59
198	9	86	85	89	91
199	8	107	108	109	110
200	8	132	109	108	134
201	9	51	50	49	58
202	8	63	41	40	65
203	15	104	106	107	108
204	10	91	80	79	94
205	9	33	68	66	38
206	9	77	76	78	95
207	9	3	4	5	6
208	9	11	23	21	16
209	9	67	66	68	69
210	8	2	1	70	71
211	9	8	7	9	10
212	9	73	97	95	78
213	9	119	118	120	121
214	9	7	9	27	28
215	9	52	54	56	57
216	9	4	29	27	9
217	9	33	34	36	37
218	9	41	42	44	45
219	9	109	132	130	114
220	9	32	33	68	66
221	19	124	123	122	125
222	9	36	38	66	68
223	9	5	7	9	10
224	1	5	4	3	31
225	9	113	112	114	130
226	9	10	11	12	13
227	9	34	33	68	69
228	9	51	50	52	54
229	10	12	11	10	26
230	9	55	54	56	57
231	9	34	36	38	66
232	13	19	18	17	20
232	14	19	18	17	20
233	9	77	76	78	79
234	9	118	117	127	128
235	16	106	107	108	109
236	9	42	41	63	64
237	9	118	120	122	125
238	9	96	95	97	98
239	12	19	18	32	33
240	8	42	41	40	65
241	8	110	109	108	134
242	1	20	17	16	21
243	10	93	79	78	95
244	9	13	12	11	23
245	9	74	73	97	95
246	9	111	110	109	132
247	9	11	23	21	22
248	17	54	55	100	101
249	9	80	81	83	85
250	2	16	17	18	32
250	3	16	17	18	32
251	9	34	36	38	39
252	15	115	116	117	118
253	9	82	81	80	91
254	9	43	42	44	45
255	9	115	114	130	132
256	9	13	12	14	16
257	9	117	127	125	122
258	9	86	85	89	90
259	9	48	49	50	52
260	9	37	36	38	66
261	9	4	5	7	9
262	9	15	14	16	21
263	9	80	91	89	90
264	4	71	70	72	73
264	5	71	70	72	73
265	9	54	56	58	59
266	9	109	132	130	131
267	9	100	101	137	135
268	10	26	10	9	27
269	9	102	101	137	138
270	9	120	122	125	127
271	9	42	41	63	61
272	9	102	104	106	135
273	10	7	9	10	25
274	8	3	1	70	72
275	9	117	127	125	126
276	9	4	29	27	28
277	9	16	21	23	24
278	9	83	81	80	91
279	10	23	11	10	25
280	9	12	11	23	24
281	12	52	54	55	100
282	4	2	1	3	4
282	5	2	1	3	4
283	9	49	58	56	57
284	6	2	1	3	31
284	7	2	1	3	31
285	16	38	39	40	65
286	19	120	122	123	124
287	9	9	27	29	30
288	15	36	38	39	40
289	10	7	9	10	11
290	10	80	79	78	95
291	9	44	46	61	62
292	8	39	40	41	63
293	9	53	52	54	56
294	9	111	110	112	114
295	9	38	66	68	69
296	9	109	110	112	114
297	9	84	83	85	86
298	9	50	49	58	59
299	1	70	72	73	74
300	9	103	102	104	105
301	6	71	70	72	99
301	7	71	70	72	99
302	9	110	112	114	130
303	9	101	102	104	105
304	9	10	11	23	21
305	9	32	33	68	69
306	2	1	70	72	99
306	3	1	70	72	99
307	9	116	117	118	120
308	9	76	74	73	97
309	9	79	80	81	82
310	9	90	89	91	92
311	9	83	85	89	91
312	9	85	89	91	92
313	10	81	80	79	94
314	12	56	54	55	100
315	9	10	9	27	29
316	9	6	5	7	8
317	9	76	78	95	96
318	9	32	33	34	36
319	15	40	39	38	66
320	9	12	11	23	21
321	9	74	73	97	98
322	9	49	58	56	54
323	8	129	115	114	130
324	9	126	125	127	128
325	9	120	122	125	126
326	9	81	83	85	86
327	9	35	34	36	38
328	10	78	79	80	91
329	9	33	68	66	67
330	9	50	49	58	56
331	9	121	120	122	123
332	9	102	104	106	107
333	9	50	52	54	55
334	9	106	135	137	138
335	9	107	106	135	137
336	9	79	80	91	92
337	9	47	46	61	63
338	9	100	101	137	138

Impropers

1	2	115	129	114	116
5	2	4	29	3	5
7	2	42	43	44	41
11	2	89	85	90	91
12	2	135	137	106	136
13	2	56	57	58	54
18	2	66	68	38	67
23	2	1	70	2	3
24	2	80	81	91	79
25	2	81	80	82	83
26	2	76	74	77	78
27	2	33	68	32	34
28	2	63	61	64	41
29	2	83	81	84	85
34	2	5	4	6	7
35	2	89	91	85	90
36	2	54	55	56	52
38	2	23	11	21	24
40	2	132	130	133	109
41	2	76	77	78	74
42	3	18	17	19	32
45	2	78	95	76	79
46	2	12	13	14	11
47	2	120	122	118	121
52	2	70	72	1	71
53	2	114	112	115	130
54	2	117	118	127	116
55	2	56	58	54	57
57	2	110	109	111	112
58	2	11	12	23	10
60	2	102	103	104	101
62	2	104	102	105	106
63	2	135	106	136	137
64	2	9	27	7	10
65	2	12	14	11	13
66	2	132	109	130	133
70	2	47	60	46	48
73	2	9	7	10	27
78	2	127	117	125	128
79	2	29	4	27	30
81	2	49	48	50	58
82	2	49	50	58	48
83	2	50	52	49	51
88	2	112	110	113	114
89	2	58	49	56	59
94	2	46	61	44	47
100	1	17	16	18	20
102	2	80	79	81	91
103	2	101	100	102	137
104	2	40	39	41	65
105	2	52	54	50	53
107	2	21	22	23	16
108	2	102	104	101	103
109	2	110	112	109	111
114	2	91	89	92	80
117	2	83	85	81	84
120	2	36	37	38	34
121	2	38	36	39	66
127	2	58	56	59	49
128	2	16	14	17	21
129	2	115	116	129	114
130	2	97	95	98	73
138	2	44	42	45	46
143	2	5	7	4	6
146	2	127	125	128	117
148	2	112	114	110	113
149	2	49	58	48	50
155	2	1	2	3	70
160	2	34	36	33	35
165	2	68	69	33	66
167	3	18	32	17	19
170	2	122	120	123	125
175	2	85	89	83	86
177	2	34	35	36	33
179	2	40	65	39	41
180	2	46	44	47	61
182	2	74	73	75	76
183	2	14	15	16	12
184	2	120	121	122	118
185	2	95	96	97	78
187	2	50	51	52	49
188	2	41	63	40	42
191	2	70	71	72	1
192	1	17	18	20	16
196	2	14	16	12	15
200	2	68	66	69	33
201	2	85	83	86	89
202	2	78	79	95	76
203	2	42	41	43	44
205	1	72	70	73	99
208	2	41	40	42	63
209	2	120	118	121	122
210	2	127	128	117	125
212	2	106	135	104	107
215	3	18	19	32	17
219	2	74	75	76	73
220	2	91	80	89	92
223	2	42	44	41	43
227	2	33	32	34	68
229	2	7	9	5	8
230	2	34	33	35	36
234	1	17	20	16	18
237	1	72	73	99	70
238	2	81	83	80	82
239	2	130	114	131	132
240	2	135	136	137	106
241	2	12	11	13	14
243	2	101	137	100	102
245	2	38	66	36	39
246	2	109	132	108	110
248	2	125	126	127	122
250	2	73	74	97	72
251	2	114	130	112	115
254	2	40	41	65	39
255	2	46	47	61	44
256	2	4	5	29	3
258	2	33	34	68	32
260	2	9	10	27	7
262	2	4	3	5	29
263	2	47	48	60	46
265	2	118	119	120	117
266	2	74	76	73	75
268	2	97	98	73	95
274	2	1	3	70	2
275	2	80	91	79	81
277	2	76	78	74	77
280	1	3	31	1	4
281	2	106	107	135	104
283	2	110	111	112	109
284	2	70	1	71	72
287	2	61	63	46	62
288	2	83	84	85	81
291	2	27	28	29	9
295	2	112	113	114	110
296	2	97	73	95	98
297	2	56	54	57	58
298	2	108	109	134	107
299	2	118	120	117	119
301	2	125	122	126	127
302	2	27	9	28	29
303	2	122	123	125	120
304	2	91	92	80	89
310	2	68	33	66	69
311	2	21	16	22	23
312	2	137	101	135	138
313	2	78	76	79	95
316	1	3	4	31	1
318	2	23	21	24	11
320	2	50	49	51	52
321	2	122	125	120	123
322	2	137	135	138	101
323	2	137	138	101	135
328	2	108	107	109	134
333	2	52	50	53	54
335	2	11	23	10	12
337	2	130	132	114	131
338	2	114	115	130	112
340	1	3	1	4	31
341	2	115	114	116	129
343	2	102	101	103	104
344	2	44	45	46	42
347	2	47	46	48	60
348	2	81	82	83	80
352	2	54	52	55	56
354	2	16	21	14	17
355	2	104	105	106	102
356	2	52	53	54	50
362	2	44	46	42	45
364	2	125	127	122	126
365	2	14	12	15	16
370	2	63	41	61	64
372	2	16	17	21	14
373	2	29	30	4	27
375	2	7	8	9	5
379	2	61	62	63	46
381	2	58	59	49	56
384	2	85	86	89	83
385	2	101	102	137	100
387	1	72	99	70	73
390	2	5	6	7	4
393	2	95	78	96	97
394	2	29	27	30	4
396	2	38	39	66	36
397	2	108	134	107	109
398	2	21	23	16	22
400	2	117	116	118	127
402	2	7	5	8	9
403	2	104	106	102	105
405	2	95	97	78	96
409	2	23	24	11	21
411	2	11	10	12	23
416	2	54	56	52	55
417	2	73	72	74	97
418	2	36	38	34	37
421	2	118	117	119	120
424	2	36	34	37	38
427	2	130	131	132	114
428	2	106	104	107	135
431	2	109	108	110	132
432	2	66	67	68	38
433	2	63	64	41	61
439	2	109	110	132	108
442	2	132	133	109	130
447	2	27	29	9	28
448	2	89	90	91	85
450	2	41	42	63	40
454	2	66	38	67	68
456	2	117	127	116	118
463	2	61	46	62	63
464	2	73	97	72	74
