Title

14000 atoms
14875 bonds
30000 angles
77250 dihedrals
2250 impropers

11 atom types
14 bond types
9 angle types
35 dihedral types
3 improper types
-12.36665198 123.5489509 xlo xhi
-12.44725479 124.1196869 ylo yhi
-12.59857618 123.5667071 zlo zhi
0.0 0.0 0.0 xy xz yz

Masses

1	12.01078
2	15.99943
3	14.00672
4	12.01078
5	1.007947
6	1.007947
7	1.007947
8	15.99943
9	12.01078
10	15.99943
11	1.007947


Pair Coeffs

1	0.086879315	3.4806469
2	0.2102061	3.0398122
3	0.16769152	3.206876
4	0.10884061	3.3795318
5	0.016409246	2.5832257
6	0.015779483	2.6445434
7	0.014090815	1.1034277
8	0.16846514	3.0251065
9	0.21	3.3996695
10	0.20947353	2.99716
11	1.2326e-05	0.53453923

Bond Coeffs

1 harmonic	582.698766451	1.225198386222
2 harmonic	492.76746816345	1.381897776683
3 harmonic	279.1350963404	1.454628925034
4 harmonic	352.0565580496	1.450098586273
5 harmonic	505.144496193	1.019481865027
6 harmonic	370.04670688625	1.093899492634
7 harmonic	264.62148576755	1.52190126495
8 harmonic	301.15400723785	1.345741232799
9 harmonic	366.7408841747	1.425895053732
10 harmonic	300.03137914615	1.451203938761
11 harmonic	366.34047229585	1.464762957261
12 harmonic	602.81384337	1.196112346392
13 harmonic	329.96998057905	1.427343958716
14 harmonic	543.5267831885	0.9716763312559


Angle Coeffs

1 harmonic	55.42182150775	117.3465570514
2 harmonic	63.44422595415	115.5071327674
3 harmonic	57.8982893754	126.8062420451
4 harmonic	53.20531626545	116.5475862634
5 harmonic	48.776492647595	115.6030999533
6 harmonic	65.09061609600001	110.3538806181
7 harmonic	201.41175231035	127.4691416191
8 harmonic	55.07882548015	112.8714009681
9 harmonic	33.56981613361	180


Dihedral Coeffs

1 fourier 1	0.182238503271	2	0
2 fourier 1	0.02972342374561	3	0
3 fourier 1	-0.1488678166443	4	180
4 fourier 1	-0.1230328948768	3	180
5 fourier 1	0.2939295466901	2	0
6 fourier 1	-0.3024127022865	1	0
7 fourier 1	1.809047390003	2	180
8 fourier 1	-0.04816277792592	1	0
9 fourier 1	3.101948770557	2	180
10 fourier 1	-0.4252153282372	1	0
11 fourier 1	2.348375642009	2	180
12 fourier 1	1.256156174911	1	0
13 fourier 1	0.9974165607242	2	180
14 fourier 1	0.1155372516788	3	0
15 fourier 1	0.1040663847541	3	0
16 fourier 1	0.09223874044423	3	0
17 fourier 1	0.3159935921949	2	180
18 fourier 1	0.3247796806857	1	180
19 fourier 1	0.1911926717192	3	0
20 fourier 1	2.779853741805	2	180
21 fourier 1	0.1918272375143	3	0
22 fourier 1	0.9202179876409	1	180
23 fourier 1	0.0473758381877	3	0
24 fourier 1	0.4860993122944	2	180
25 fourier 1	0.8916986138746	1	0
26 fourier 1	1.163809172478	2	180
27 fourier 1	0.1679186987369	1	180
28 fourier 1	0.1115525666802	3	0
29 fourier 1	0.3432490222662	1	0
30 fourier 1	0.457973137376	1	0
31 fourier 1	-1.382973039546	1	0
32 fourier 1	0	1	0
33 fourier 1	0.3445382149273	3	0
34 fourier 1	0.1364556373303	1	0
35 fourier 1	0.3026390167484	3	0


Improper Coeffs

1 0.3333333333333333	-1	2
2 0.3666666666666667	-1	2
3 3.5	-1	2


Atoms

1	6	1	0.55171597	-0.85089142	-3.4079569	1.2919297
2	6	2	-0.71269452	0.28800298	-3.0536374	1.6972187
3	6	3	-0.5672493	-1.8755311	-2.4425357	1.0297458
4	6	4	0.086842375	-1.6449245	-0.99721282	1.1185793
5	6	5	0.035923844	-0.80358233	-0.79880045	1.8195871
6	6	4	-0.18130927	-1.2391812	-0.43940132	-0.26877708
7	6	6	0.090392114	-0.48149474	0.36464852	-0.13523646
8	6	6	0.090392114	-0.76369963	-1.2344101	-0.88379035
9	6	4	-0.17977983	-2.4398365	0.14233223	-1.0226563
10	6	6	0.090392129	-3.1947307	-0.66306069	-1.1602465
11	6	6	0.090392129	-2.1259663	0.46162313	-2.0406385
12	6	4	0.087561937	-3.0831398	1.3238847	-0.25300217
13	6	3	-0.51462692	-2.4835229	2.5980093	-0.66735002
14	6	1	0.80036742	-3.1094026	3.8605087	-0.41060329
15	6	2	-0.62994909	-4.2228667	3.924313	0.17443831
16	6	7	0.30870587	-1.569171	2.6060948	-1.1725156
17	6	5	0.039001336	-4.1619817	1.3366699	-0.52873891
18	6	4	-0.17977986	-2.9676165	1.1687584	1.2851582
19	6	6	0.090392129	-2.0532879	1.6833313	1.6560516
20	6	6	0.090392129	-3.8426876	1.6500892	1.7741145
21	6	4	-0.18130927	-2.8991507	-0.30254701	1.704523
22	6	6	0.090392137	-3.8275233	-0.80940335	1.3591681
23	6	6	0.090392137	-2.8762042	-0.37164308	2.8142334
24	6	7	0.30536255	-2.7638376	-2.7892352	0.60235134
25	7	8	-0.50028026	-2.6409621	4.7350744	-0.7122595
26	7	4	0.14274183	-1.3029579	4.6392294	-0.30411072
27	7	4	-0.070254786	-0.52111561	3.7095208	-1.252895
28	7	6	0.11118271	-0.82633713	3.953641	-2.2967389
29	7	4	-0.16105914	-0.76312198	2.2035281	-0.99190254
30	7	6	0.1095693	-1.2802493	1.7390728	-1.8609218
31	7	6	0.1095693	-1.3630735	2.0045939	-0.076763588
32	7	4	-0.10473184	0.66984843	1.6458804	-0.86837208
33	7	6	0.11429449	0.74453129	0.55530219	-1.0675848
34	7	4	-0.14168498	1.4201006	2.5251297	-1.8477231
35	7	6	0.10397463	2.51635	2.3420687	-1.8615708
36	7	6	0.10397463	1.0364037	2.4382945	-2.8919689
37	7	4	-0.094201436	1.023726	3.8219525	-1.1705025
38	7	6	0.12534824	1.4332972	4.7368888	-1.6515845
39	7	4	-0.070719672	1.5095864	3.5880437	0.28589735
40	7	6	0.12039313	0.95995499	4.2031066	1.0277464
41	7	4	-0.16403256	3.0126077	3.8124828	0.49368286
42	7	6	0.097022155	3.200633	4.7493264	1.0615839
43	7	6	0.097022155	3.5585339	3.8779504	-0.47321404
44	7	4	-0.18447269	3.501739	2.603472	1.2746499
45	7	6	0.10272433	4.5706376	2.3888655	1.0555955
46	7	6	0.10272433	3.3874005	2.8074685	2.3621048
47	7	4	-0.056171341	2.6020558	1.4437057	0.84632851
48	7	4	0.060402902	2.4685561	0.36530929	1.9349814
49	7	8	-0.1458434	3.6994404	-0.27109135	2.1517277
50	7	5	0.090645904	1.7383444	-0.39960792	1.5942988
51	7	5	0.090645904	2.0768822	0.80172989	2.8830228
52	7	6	0.11454667	3.0495115	0.96858851	-0.056095472
53	7	4	-0.065554155	1.2461664	2.0899543	0.49912998
54	7	6	0.13217306	0.51115055	1.94189	1.3235283
55	7	5	0.080144802	-0.85522279	5.6545075	-0.34371676
56	7	5	0.080144802	-1.2561453	4.285918	0.75012863
57	4	1	0.55171609	-1.0550583	-4.4589659	1.1379619
58	4	2	-0.71269458	-0.5665771	-5.3066559	1.9312518
59	4	3	-0.5672493	-1.8684143	-4.8685778	0.032420429
60	4	4	0.08723508	-2.1947585	-6.2740464	-0.22799967
61	4	5	0.035923844	-1.2729064	-6.8868139	-0.10352226
62	4	4	-0.17996491	-2.6897249	-6.4457612	-1.6771499
63	4	6	0.088703455	-3.568002	-5.7874077	-1.8600408
64	4	6	0.088703455	-1.8835902	-6.1460381	-2.3805742
65	4	4	-0.14155219	-3.0801917	-7.902754	-1.9567937
66	4	6	0.086298527	-2.1774601	-8.5485924	-1.8858954
67	4	6	0.086298527	-3.4758891	-7.9788181	-2.9936253
68	4	4	0.20708186	-4.1515099	-8.3856466	-0.96654068
69	4	3	-0.68066466	-4.4403485	-9.7961662	-1.2159693
70	4	9	0.60496187	-5.6011163	-10.19936	-1.5450619
71	4	2	-0.52566737	-6.7308132	-10.591452	-1.8648079
72	4	5	0.029883029	-5.0715359	-7.7694402	-1.1069504
73	4	4	-0.14155218	-3.6625618	-8.2152673	0.48087828
74	4	6	0.086298497	-4.472434	-8.5131755	1.1808766
75	4	6	0.086298497	-2.7882475	-8.8779026	0.66640779
76	4	4	-0.17996491	-3.2674357	-6.7600085	0.76356906
77	4	6	0.08870347	-4.1684561	-6.1108679	0.69226158
78	4	6	0.08870347	-2.8801221	-6.6911865	1.8022074
79	4	7	0.30536252	-2.2034441	-4.1242294	-0.62078664
80	5	8	-0.1458434	4.2077414	0.29764	2.7867244
81	5	4	0.061086701	4.5654409	1.4607527	2.0900251
82	5	4	-0.063222123	3.3528739	2.4046405	1.9703669
83	5	6	0.1151343	2.8337725	2.4184596	2.9561335
84	5	4	-0.16207035	2.3454328	1.9935837	0.87001038
85	5	6	0.10953987	1.3727075	1.7053532	1.3263466
86	5	6	0.10953987	2.7026103	1.1516448	0.23689416
87	5	4	-0.10411691	2.1834976	3.2928423	0.054575579
88	5	6	0.11429449	1.2373135	3.3413467	-0.52676069
89	5	4	-0.14124825	2.3218479	4.3457073	1.1359768
90	5	6	0.10397463	2.3136878	5.3862207	0.7474742
91	5	6	0.10397463	1.5409078	4.2601256	1.9279884
92	5	4	-0.095214887	3.6888688	3.8712639	1.5891945
93	5	6	0.12568091	4.1278804	4.4622431	2.4219006
94	5	4	-0.070056049	4.5016501	3.9183061	0.267419
95	5	6	0.12039313	5.3727061	3.229948	0.27328851
96	5	4	-0.16403256	4.9959901	5.3171967	-0.12039167
97	5	6	0.097022155	6.0933378	5.408287	0.029940043
98	5	6	0.097022155	4.4980177	6.1122723	0.47686896
99	5	4	-0.17883959	4.638092	5.4845612	-1.5884758
100	5	6	0.10272433	4.4722809	6.5534793	-1.8424855
101	5	6	0.10272433	5.4731841	5.0878472	-2.2093665
102	5	4	-0.10006025	3.3704627	4.6566375	-1.8012463
103	5	4	0.13854639	3.2295521	4.1504666	-3.2469811
104	5	10	-0.68244219	3.0414542	5.2251602	-4.1291993
105	5	11	0.37273985	3.9426926	5.5781581	-4.3471413
106	5	5	0.074132668	2.3383448	3.490309	-3.3104132
107	5	5	0.074132668	4.1168358	3.5446842	-3.5454863
108	5	6	0.11486947	2.4907005	5.3005772	-1.5739201
109	5	4	-0.058872229	3.4679974	3.499196	-0.7875933
110	5	6	0.13217306	3.7868544	2.5567591	-1.287369
111	5	5	0.090645896	5.367817	1.9732749	2.6604816
112	5	5	0.090645896	4.9760294	1.1890342	1.0912643
113	6	1	0.55171597	-0.85382847	-0.90400395	28.904037
114	6	2	-0.71269452	-1.6278376	-1.4871526	28.09922
115	6	3	-0.5672493	0.48967311	-0.57673037	28.5318
116	6	4	0.086842375	1.0166747	-0.80437609	27.18255
117	6	5	0.035923844	0.44643208	-1.6270921	26.696136
118	6	4	-0.18130927	0.82953641	0.468452	26.319168
119	6	6	0.090392114	0.58606848	0.17234269	25.274439
120	6	6	0.090392114	-0.027119851	1.0701916	26.693885
121	6	4	-0.17977983	2.0937584	1.3342691	26.298567
122	6	6	0.090392129	2.3338136	1.6340956	27.342565
123	6	6	0.090392129	1.8977277	2.2727401	25.735013
124	6	4	0.087561937	3.3003283	0.57387052	25.691726
125	6	3	-0.51462692	3.3820883	0.80539655	24.244546
126	6	1	0.80036742	4.5716652	0.54314314	23.491102
127	6	2	-0.62994909	5.6131624	0.11333296	24.053857
128	6	7	0.30870587	2.5548787	1.1782553	23.726861
129	6	5	0.039001336	4.2157191	0.99332208	26.167346
130	6	4	-0.17977986	3.2499746	-0.94960844	25.974256
131	6	6	0.090392129	2.7467814	-1.4799675	25.135293
132	6	6	0.090392129	4.285344	-1.3485058	26.047728
133	6	4	-0.18130927	2.49358	-1.2630105	27.268451
134	6	6	0.090392137	3.0148415	-0.75652648	28.110953
135	6	6	0.090392137	2.5307111	-2.3570471	27.464572
136	6	7	0.30536255	1.0492377	-0.0067103403	29.205535
137	7	8	-0.50028026	4.5772603	0.71129372	22.467875
138	7	4	0.14274183	3.4076337	0.13171157	21.955933
139	7	4	-0.070254786	2.1919352	1.0311605	22.254087
140	7	6	0.11118271	2.491056	2.0857715	22.052376
141	7	4	-0.16105914	1.6733899	0.91939129	23.707812
142	7	6	0.1095693	1.8174853	1.8834831	24.244559
143	7	6	0.1095693	2.1678877	0.11274668	24.292442
144	7	4	-0.10473184	0.16864348	0.64248292	23.511101
145	7	6	0.11429449	-0.45466121	0.91068082	24.390979
146	7	4	-0.14168498	-0.12257852	1.4409662	22.257028
147	7	6	0.10397463	-1.1615209	1.3179022	21.881635
148	7	6	0.10397463	0.079677942	2.5315331	22.379376
149	7	4	-0.094201436	0.92046128	0.72934121	21.418489
150	7	6	0.12534824	0.98221212	1.0797665	20.365072
151	7	4	-0.070719672	0.50436166	-0.75830812	21.578597
152	7	6	0.12039313	1.3459944	-1.461669	21.412239
153	7	4	-0.16403256	-0.66496842	-1.1866281	20.683147
154	7	6	0.097022155	-0.3146705	-1.8435201	19.857723
155	7	6	0.097022155	-1.1834487	-0.31145075	20.233198
156	7	4	-0.18447269	-1.624452	-1.9345647	21.594656
157	7	6	0.10272433	-2.6723486	-1.8488291	21.232513
158	7	6	0.10272433	-1.3347624	-3.0082328	21.618378
159	7	4	-0.056171341	-1.4595282	-1.3011685	22.976523
160	7	4	0.060402902	-1.7910071	-2.2773381	24.118075
161	7	8	-0.1458434	-3.1527241	-2.6126824	24.099852
162	7	5	0.090645904	-1.5688491	-1.7833362	25.088116
163	7	5	0.090645904	-1.1576747	-3.1926537	24.056908
164	7	6	0.11454667	-2.1565281	-0.43566666	23.050141
165	7	4	-0.065554155	0.004310565	-0.82055797	23.029529
166	7	6	0.13217306	0.63328824	-1.5228515	23.623646
167	7	5	0.080144802	3.522659	0.033337036	20.855971
168	7	5	0.080144802	3.2782305	-0.88952367	22.37875
169	4	1	0.55171609	-1.2129065	-0.64518805	29.890995
170	4	2	-0.71269458	-1.991107	-1.4322698	30.492167
171	4	3	-0.5672493	-0.80516428	0.5890646	30.492592
172	4	4	0.08723508	-1.243781	0.99634083	31.831025
173	4	5	0.035923844	-2.3344465	0.79277312	31.930015
174	4	4	-0.17996491	-1.020963	2.5084609	32.02688
175	4	6	0.088703455	0.049935789	2.7603289	31.859586
176	4	6	0.088703455	-1.6259771	3.0701483	31.283268
177	4	4	-0.14155219	-1.4314097	2.947384	33.438394
178	4	6	0.086298527	-2.5264191	2.8018376	33.56812
179	4	6	0.086298527	-1.212822	4.0314681	33.55824
180	4	4	0.20708186	-0.6648746	2.1525096	34.507088
181	4	3	-0.68066466	-1.1374902	2.5441604	35.833155
182	4	9	0.60496187	-0.36262869	3.0587125	36.700954
183	4	2	-0.52566737	0.39168926	3.5589371	37.545328
184	4	5	0.029883029	0.42461305	2.3713055	34.402122
185	4	4	-0.14155218	-0.88330186	0.64302547	34.315077
186	4	6	0.086298497	-0.27443923	0.085098908	35.058478
187	4	6	0.086298497	-1.9526907	0.38941587	34.488345
188	4	4	-0.17996491	-0.47749076	0.2005833	32.903206
189	4	6	0.08870347	0.61764953	0.34605161	32.769742
190	4	6	0.08870347	-0.69229127	-0.88359231	32.793927
191	4	7	0.30536252	-0.19936064	1.2244666	29.924926
192	5	8	-0.1458434	-3.2565907	-3.3522287	23.446148
193	5	4	0.061086701	-3.0443504	-2.8003074	22.174728
194	5	4	-0.063222123	-1.5375309	-2.5864021	21.931211
195	5	6	0.1151343	-1.0012303	-3.4898372	22.302129
196	5	4	-0.16207035	-0.96246267	-1.3305256	22.628894
197	5	6	0.10953987	-0.22819192	-1.6261611	23.410533
198	5	6	0.10953987	-1.7417788	-0.69115418	23.099153
199	5	4	-0.10411691	-0.24350605	-0.60021018	21.476084
200	5	6	0.11429449	0.54993607	0.10020075	21.815853
201	5	4	-0.14124825	0.24965174	-1.7661596	20.642746
202	5	6	0.10397463	0.74224379	-1.4592502	19.695736
203	5	6	0.10397463	0.94670251	-2.4348418	21.200831
204	5	4	-0.095214887	-1.129627	-2.3658815	20.449943
205	5	6	0.12568091	-1.1463191	-3.2928625	19.836906
206	5	4	-0.070056049	-1.9169374	-1.175434	19.839293
207	5	6	0.12039313	-3.0110896	-1.2492193	20.012489
208	5	4	-0.16403256	-1.6800194	-0.96501526	18.338874
209	5	6	0.097022155	-2.5700476	-1.2709242	17.747825
210	5	6	0.097022155	-0.80536689	-1.5461388	17.972649
211	5	4	-0.17883959	-1.4084901	0.52159698	18.172654
212	5	6	0.10272433	-0.75455137	0.71517654	17.295448
213	5	6	0.10272433	-2.3781035	1.0499551	18.027901
214	5	4	-0.10006025	-0.74301332	0.96773603	19.47485
215	5	4	0.13854639	-0.99203399	2.452942	19.788484
216	5	10	-0.68244219	-0.36766825	3.2696302	18.833578
217	5	11	0.37273985	-0.98837114	3.3347633	18.062331
218	5	5	0.074132668	-0.55591762	2.6873521	20.782936
219	5	5	0.074132668	-2.0841767	2.6713759	19.841971
220	5	6	0.11486947	0.35575454	0.81571548	19.375271
221	5	4	-0.058872229	-1.3195063	0.039856543	20.562679
222	5	6	0.13217306	-2.1047396	0.56031395	21.156114
223	5	5	0.090645896	-3.4354565	-3.5122569	21.418375
224	5	5	0.090645896	-3.6162748	-1.8498284	22.077624
225	6	1	0.55171597	-1.9117602	-0.64837854	53.899554
226	6	2	-0.71269452	-2.6996177	-0.40558997	52.947075
227	6	3	-0.5672493	-0.64098441	-1.2667321	53.668399
228	6	4	0.086842375	-0.13677463	-1.5647845	52.324164
229	6	5	0.035923844	-0.99438965	-1.6843022	51.624988
230	6	4	-0.18130927	0.72606937	-0.38566628	51.808685
231	6	6	0.090392114	0.56120951	-0.2589895	50.715436
232	6	6	0.090392114	0.41669276	0.5648096	52.295762
233	6	4	-0.17977983	2.2202109	-0.62351955	52.052176
234	6	6	0.090392129	2.3851378	-0.74509934	53.145552
235	6	6	0.090392129	2.7994512	0.27326899	51.740728
236	6	4	0.087561937	2.7283485	-1.8869285	51.311996
237	6	3	-0.51462692	3.2249883	-1.538025	49.975495
238	6	1	0.80036742	4.07422	-2.4098226	49.220297
239	6	2	-0.62994909	4.4457949	-3.5180874	49.689156
240	6	7	0.30870587	2.9643479	-0.62361277	49.542813
241	6	5	0.039001336	3.5781307	-2.2883992	51.909311
242	6	4	-0.17977986	1.6429978	-2.9876103	51.194266
243	6	6	0.090392129	1.0946311	-2.8856369	50.231333
244	6	6	0.090392129	2.1268887	-3.9887808	51.198035
245	6	4	-0.18130927	0.62912349	-2.9109421	52.339462
246	6	6	0.090392137	1.1744683	-3.0428415	53.300321
247	6	6	0.090392137	-0.095269191	-3.750083	52.25083
248	6	7	0.30536255	0.0071534188	-1.3514089	54.483691
249	7	8	-0.50028026	4.3900267	-2.1244448	48.274716
250	7	4	0.14274183	3.2568788	-1.6584652	47.592906
251	7	4	-0.070254786	2.8936401	-0.23851776	48.070016
252	7	6	0.11118271	3.8397233	0.34471981	48.154429
253	7	4	-0.16105914	2.1538309	-0.20592719	49.428809
254	7	6	0.1095693	2.7815036	0.29605741	50.198466
255	7	6	0.1095693	1.8749217	-1.2150025	49.804272
256	7	4	-0.10473184	0.91017449	0.6520647	49.117676
257	7	6	0.11429449	0.4545822	1.1221297	50.015506
258	7	4	-0.14168498	1.4649015	1.6276885	48.10007
259	7	6	0.10397463	0.69794583	2.3083322	47.671153
260	7	6	0.10397463	2.2994473	2.2489363	48.503551
261	7	4	-0.094201436	1.9308213	0.54861038	47.142991
262	7	6	0.12534824	2.4124864	0.9309896	46.216664
263	7	4	-0.070719672	0.62512532	-0.25752776	46.903882
264	7	6	0.12039313	0.81612206	-1.3048041	46.591681
265	7	4	-0.16403256	-0.33348232	0.37966676	45.890138
266	7	6	0.097022155	-0.3418628	-0.19138947	44.936532
267	7	6	0.097022155	-0.054091555	1.4317512	45.661512
268	7	4	-0.18447269	-1.7036285	0.34728224	46.547798
269	7	6	0.10272433	-2.3437125	1.180974	46.184707
270	7	6	0.10272433	-2.1957143	-0.62057329	46.306234
271	7	4	-0.056171341	-1.4431331	0.459241	48.050314
272	7	4	0.060402902	-2.5474788	-0.20125252	48.892986
273	7	8	-0.1458434	-3.7597158	0.48824005	48.744182
274	7	5	0.090645904	-2.2545301	-0.15973936	49.963887
275	7	5	0.090645904	-2.6679284	-1.2756594	48.621332
276	7	6	0.11454667	-1.4042313	1.5393043	48.319149
277	7	4	-0.065554155	-0.068321356	-0.2016802	48.27324
278	7	6	0.13217306	-0.18261809	-1.2292354	48.689017
279	7	5	0.080144802	3.4943332	-1.6252075	46.508777
280	7	5	0.080144802	2.4131641	-2.3698108	47.736341
281	4	1	0.55171609	-2.2010977	-0.38239321	54.907297
282	4	2	-0.71269458	-3.4026664	-0.5147417	55.261158
283	4	3	-0.5672493	-1.2171098	0.12256512	55.817427
284	4	4	0.08723508	-1.5374065	0.4906121	57.200038
285	4	5	0.035923844	-2.488417	1.070541	57.207213
286	4	4	-0.17996491	-0.42765103	1.3868526	57.782884
287	4	6	0.088703455	0.55384721	0.86615337	57.721382
288	4	6	0.088703455	-0.35788404	2.3223762	57.187551
289	4	4	-0.14155219	-0.72113338	1.7462731	59.245135
290	4	6	0.086298527	-1.6435924	2.365523	59.29668
291	4	6	0.086298527	0.12164407	2.3521978	59.645089
292	4	4	0.20708186	-0.88876126	0.4806258	60.10044
293	4	3	-0.68066466	-1.241697	0.86267528	61.465974
294	4	9	0.60496187	-0.51035349	0.55990082	62.461822
295	4	2	-0.52566737	0.20123597	0.26473294	63.43069
296	4	5	0.029883029	0.072489554	-0.086636968	60.091339
297	4	4	-0.14155218	-1.9943427	-0.4173528	59.522128
298	4	6	0.086298497	-2.0587988	-1.3527723	60.118345
299	4	6	0.086298497	-2.9770499	0.1000885	59.589008
300	4	4	-0.17996491	-1.7064781	-0.77607573	58.058478
301	4	6	0.08870347	-0.78323541	-1.3948527	58.003305
302	4	6	0.08870347	-2.5486288	-1.3863871	57.668837
303	4	7	0.30536252	-0.24725581	0.25826734	55.451439
304	5	8	-0.1458434	-4.1885112	0.13861923	47.920201
305	5	4	0.061086701	-3.4222687	0.59861196	46.839715
306	5	4	-0.063222123	-2.1311744	-0.23305372	46.709451
307	5	6	0.1151343	-2.400312	-1.304383	46.855093
308	5	4	-0.16207035	-1.0295281	0.157686	47.723546
309	5	6	0.10953987	-0.83878699	-0.68197645	48.427889
310	5	6	0.10953987	-1.2766153	1.0666616	48.315141
311	5	4	-0.10411691	0.20064319	0.38092237	46.820178
312	5	6	0.11429449	1.1710122	0.28552155	47.353893
313	5	4	-0.14124825	-0.033228963	-0.64960323	45.733709
314	5	6	0.10397463	0.71461387	-0.60887912	44.913501
315	5	6	0.10397463	-0.068649596	-1.6934882	46.12553
316	5	4	-0.095214887	-1.3960996	-0.10817012	45.348115
317	5	6	0.12568091	-1.8912085	-0.65767981	44.51848
318	5	4	-0.070056049	-1.076434	1.3784845	45.035722
319	5	6	0.12039313	-1.9600957	2.0412287	45.147625
320	5	4	-0.16403256	-0.46938977	1.6155939	43.64758
321	5	6	0.097022155	-1.2038111	2.0999947	42.968573
322	5	6	0.097022155	-0.13507738	0.666203	43.174574
323	5	4	-0.17883959	0.73095291	2.5203147	43.875682
324	5	6	0.10272433	1.509335	2.3588296	43.099381
325	5	6	0.10272433	0.39365752	3.581022	43.838296
326	5	4	-0.10006025	1.2517872	2.1712813	45.270143
327	5	4	0.13854639	1.9751583	3.3497052	45.944135
328	5	10	-0.68244219	3.1532304	3.666264	45.250887
329	5	11	0.37273985	2.8934259	4.2623278	44.501523
330	5	5	0.074132668	2.2508472	3.0562546	46.979492
331	5	5	0.074132668	1.3070192	4.2395985	46.015059
332	5	6	0.11486947	1.9771573	1.3319383	45.171864
333	5	4	-0.058872229	0.010068418	1.7207783	46.065037
334	5	6	0.13217306	-0.3431681	2.5284833	46.745089
335	5	5	0.090645896	-4.023181	0.48099927	45.913984
336	5	5	0.090645896	-3.202664	1.682528	46.969471
337	6	1	0.55171597	-1.4289265	-1.724305	79.12076
338	6	2	-0.71269452	-1.2318188	-0.50430886	79.364972
339	6	3	-0.5672493	-1.7381921	-2.1724551	77.796304
340	6	4	0.086842375	-1.7500084	-1.2740416	76.637537
341	6	5	0.035923844	-1.9514675	-0.23364523	76.977575
342	6	4	-0.18130927	-0.36238838	-1.2803816	75.948327
343	6	6	0.090392114	-0.13189661	-0.25768764	75.57498
344	6	6	0.090392114	0.43322471	-1.546344	76.67814
345	6	4	-0.17977983	-0.3180875	-2.2529856	74.764943
346	6	6	0.090392129	-0.54363724	-3.2758556	75.139534
347	6	6	0.090392129	0.71105338	-2.2876233	74.344921
348	6	4	0.087561937	-1.3437691	-1.8694075	73.668075
349	6	3	-0.51462692	-0.73050101	-0.97781662	72.676316
350	6	1	0.80036742	-1.3043406	-0.7584192	71.382438
351	6	2	-0.62994909	-2.3639288	-1.3444478	71.036042
352	6	7	0.30870587	0.15910353	-0.47844201	72.901096
353	6	5	0.039001336	-1.6361723	-2.8150309	73.15779
354	6	4	-0.17977986	-2.6190347	-1.2057259	74.248223
355	6	6	0.090392129	-2.5080494	-0.098476991	74.253344
356	6	6	0.090392129	-3.4915194	-1.4504212	73.603706
357	6	4	-0.18130927	-2.9008115	-1.6708536	75.679849
358	6	6	0.090392137	-3.0411809	-2.7745868	75.668965
359	6	6	0.090392137	-3.8520527	-1.218601	76.036732
360	6	7	0.30536255	-1.7928288	-3.2040702	77.639015
361	7	8	-0.50028026	-0.84037131	-0.10964572	70.719774
362	7	4	0.14274183	-0.53259275	1.0532255	71.440211
363	7	4	-0.070254786	0.70871229	0.82045803	72.323844
364	7	6	0.11118271	1.4577209	0.25993733	71.717901
365	7	4	-0.16105914	0.41277269	0.031819856	73.621984
366	7	6	0.1095693	0.92898442	-0.95379458	73.601402
367	7	6	0.1095693	-0.67196479	-0.14158393	73.795972
368	7	4	-0.10473184	1.0302348	0.93040232	74.71328
369	7	6	0.11429449	1.2766487	0.38947633	75.652057
370	7	4	-0.14168498	2.2221754	1.514401	73.982999
371	7	6	0.10397463	2.7806249	2.2712184	74.575306
372	7	6	0.10397463	2.9439011	0.73666894	73.637373
373	7	4	-0.094201436	1.3947166	2.1047504	72.858593
374	7	6	0.12534824	1.9843289	2.6514643	72.090636
375	7	4	-0.070719672	0.37569353	2.9836572	73.633828
376	7	6	0.12039313	-0.56073923	3.1606151	73.065922
377	7	4	-0.16403256	0.92832301	4.3412238	74.085751
378	7	6	0.097022155	0.4959564	5.1682291	73.481878
379	7	6	0.097022155	2.0358895	4.3879808	73.994531
380	7	4	-0.18447269	0.53072139	4.4779636	75.546601
381	7	6	0.10272433	1.255164	5.1123263	76.102795
382	7	6	0.10272433	-0.47794607	4.9434576	75.602737
383	7	4	-0.056171341	0.49841853	3.053257	76.10078
384	7	4	0.060402902	-0.47793617	2.8989322	77.279271
385	7	8	-0.1458434	-0.038494523	3.6430465	78.383919
386	7	5	0.090645904	-0.51608958	1.8288039	77.575483
387	7	5	0.090645904	-1.5098332	3.2006783	76.984667
388	7	6	0.11454667	1.5194369	2.7956467	76.463382
389	7	4	-0.065554155	0.11046183	2.1620619	74.904168
390	7	6	0.13217306	-0.96364551	1.8698701	74.956334
391	7	5	0.080144802	-0.31136846	1.8627026	70.71314
392	7	5	0.080144802	-1.4143557	1.3664216	72.042576
393	4	1	0.55171609	-1.3606066	-2.4434813	79.925823
394	4	2	-0.71269458	-1.7813016	-2.1314603	81.071319
395	4	3	-0.5672493	-0.78657697	-3.7321974	79.67833
396	4	4	0.08723508	-0.67408733	-4.7581703	80.719669
397	4	5	0.035923844	-0.3075199	-4.2810907	81.65712
398	4	4	-0.17996491	0.34768156	-5.8325938	80.300007
399	4	6	0.088703455	0.051857876	-6.2789874	79.324574
400	4	6	0.088703455	1.3465964	-5.3627916	80.173721
401	4	4	-0.14155219	0.44700155	-6.9406504	81.35634
402	4	6	0.086298527	0.85183415	-6.5165474	82.301488
403	4	6	0.086298527	1.1560067	-7.7194708	80.998384
404	4	4	0.20708186	-0.92588725	-7.5815957	81.613
405	4	3	-0.68066466	-0.80430065	-8.5762776	82.6765
406	4	9	0.60496187	-1.0768081	-9.8042184	82.486368
407	4	2	-0.52566737	-1.3424988	-10.998918	82.301193
408	4	5	0.029883029	-1.2778168	-8.0623435	80.669125
409	4	4	-0.14155218	-1.9490725	-6.5131928	82.031005
410	4	6	0.086298497	-2.9469111	-6.9864749	82.153325
411	4	6	0.086298497	-1.6573532	-6.0707795	83.009321
412	4	4	-0.17996491	-2.0486874	-5.4010636	80.978835
413	4	6	0.08870347	-2.4524311	-5.8224543	80.03135
414	4	6	0.08870347	-2.7631539	-4.6313955	81.340313
415	4	7	0.30536252	-0.40860014	-3.9151943	78.720925
416	5	8	-0.1458434	-0.35906145	4.5725529	78.248639
417	5	4	0.061086701	0.38417485	5.1055087	77.185752
418	5	4	-0.063222123	-0.1409159	4.5616286	75.842608
419	5	6	0.1151343	-1.2543142	4.5810261	75.8795
420	5	4	-0.16207035	0.33299666	3.124088	75.520779
421	5	6	0.10953987	-0.53357292	2.4266774	75.507008
422	5	6	0.10953987	1.0876083	2.7367175	76.240348
423	5	4	-0.10411691	0.91881759	3.2688737	74.101244
424	5	6	0.11429449	0.95631309	2.3142285	73.533076
425	5	4	-0.14124825	0.011624463	4.3283282	73.508242
426	5	6	0.10397463	0.31066711	4.6497567	72.487984
427	5	6	0.10397463	-1.0590432	4.0164355	73.478788
428	5	4	-0.095214887	0.30715349	5.3538889	74.585339
429	5	6	0.12568091	-0.22020788	6.3234535	74.454108
430	5	4	-0.070056049	1.8554131	5.4492569	74.524394
431	5	6	0.12039313	2.3025934	5.8013785	75.477626
432	5	4	-0.16403256	2.3895571	6.3293861	73.387853
433	5	6	0.097022155	2.7966498	7.2856017	73.781548
434	5	6	0.097022155	1.5982922	6.5704877	72.644474
435	5	4	-0.17883959	3.4840278	5.5132528	72.718948
436	5	6	0.10272433	3.5874851	5.7825983	71.645939
437	5	6	0.10272433	4.448697	5.7114007	73.238964
438	5	4	-0.10006025	3.071889	4.0509709	72.890663
439	5	4	0.13854639	4.2763511	3.0942984	72.906875
440	5	10	-0.68244219	4.9148379	3.0846811	71.657516
441	5	11	0.37273985	5.5367369	3.8576487	71.64753
442	5	5	0.074132668	3.9142927	2.0656377	73.11866
443	5	5	0.074132668	4.9934173	3.3698583	73.715103
444	5	6	0.11486947	2.4191442	3.7692916	72.033401
445	5	4	-0.058872229	2.2772504	4.0066989	74.210991
446	5	6	0.13217306	2.9003941	3.5983239	75.038369
447	5	5	0.090645896	0.2665378	6.2090795	77.199891
448	5	5	0.090645896	1.4639963	4.8748278	77.329658
449	6	1	0.55171597	-3.4930549	1.3214189	101.25177
450	6	2	-0.71269452	-2.8047514	1.7085192	100.2703
451	6	3	-0.5672493	-3.2212485	0.07316299	101.89879
452	6	4	0.086842375	-2.0843546	-0.77809688	101.5343
453	6	5	0.035923844	-1.7956309	-0.57824151	100.4782
454	6	4	-0.18130927	-0.86260225	-0.44006394	102.42513
455	6	6	0.090392114	0.068090873	-0.52260743	101.82064
456	6	6	0.090392114	-0.9230013	0.60989295	102.78611
457	6	4	-0.17977983	-0.75126106	-1.3883626	103.62374
458	6	6	0.090392129	-1.6796973	-1.3017582	104.23034
459	6	6	0.090392129	0.088238364	-1.0688257	104.2794
460	6	4	0.087561937	-0.56539033	-2.8604055	103.17562
461	6	3	-0.51462692	0.86051147	-3.1895181	103.06113
462	6	1	0.80036742	1.3363392	-4.5400541	103.02664
463	6	2	-0.62994909	0.53796367	-5.5103876	103.11147
464	6	7	0.30870587	1.570867	-2.4255995	103.00527
465	6	5	0.039001336	-1.0103947	-3.4970716	103.97356
466	6	4	-0.17977986	-1.2819307	-3.1725313	101.83677
467	6	6	0.090392129	-0.58141749	-3.031746	100.98366
468	6	6	0.090392129	-1.6079289	-4.2356237	101.82861
469	6	4	-0.18130927	-2.4984605	-2.2681782	101.61884
470	6	6	0.090392137	-3.2118599	-2.4316965	102.45692
471	6	6	0.090392137	-3.0163305	-2.5623891	100.67969
472	6	7	0.30536255	-3.7612309	-0.14555999	102.76628
473	7	8	-0.50028026	2.3527685	-4.7226605	102.9327
474	7	4	0.14274183	2.8178054	-3.900278	101.89662
475	7	4	-0.070254786	2.9664546	-2.4487913	102.39353
476	7	6	0.11118271	3.4332694	-2.4813708	103.40516
477	7	4	-0.16105914	1.6280772	-1.6763963	102.47629
478	7	6	0.1095693	1.390569	-1.4273705	103.53455
479	7	6	0.1095693	0.76861723	-2.2342001	102.04365
480	7	4	-0.10473184	1.9302875	-0.3877889	101.68396
481	7	6	0.11429449	1.2617857	0.46212001	101.93966
482	7	4	-0.14168498	3.3929178	-0.16891929	102.01243
483	7	6	0.10397463	3.8483464	0.68720949	101.46921
484	7	6	0.10397463	3.5771358	-0.030021803	103.10421
485	7	4	-0.094201436	3.8339756	-1.5251344	101.49897
486	7	6	0.12534824	4.9260817	-1.7165204	101.58248
487	7	4	-0.070719672	3.2922741	-1.5118668	100.04355
488	7	6	0.12039313	3.1273576	-2.5302691	99.635633
489	7	4	-0.16403256	4.1649349	-0.73185333	99.052257
490	7	6	0.097022155	4.7017327	-1.4217909	98.365689
491	7	6	0.097022155	4.9208393	-0.10320208	99.572465
492	7	4	-0.18447269	3.206752	0.15874166	98.277923
493	7	6	0.10272433	3.7133779	1.0838563	97.925676
494	7	6	0.10272433	2.8244293	-0.40390348	97.397863
495	7	4	-0.056171341	2.0689226	0.48175963	99.246918
496	7	4	0.060402902	0.74186092	0.77190186	98.525357
497	7	8	-0.1458434	0.83898231	1.9495555	97.76987
498	7	5	0.090645904	-0.056173863	0.91274153	99.285407
499	7	5	0.090645904	0.44166158	-0.08713648	97.881472
500	7	6	0.11454667	2.3508703	1.3893358	99.827549
501	7	4	-0.065554155	1.9689166	-0.74370406	100.1769
502	7	6	0.13217306	1.1139349	-1.3964412	99.885786
503	7	5	0.080144802	3.8124282	-4.2757399	101.57634
504	7	5	0.080144802	2.1295944	-3.9689295	101.02479
505	4	1	0.55171609	-4.3005351	1.9448916	101.6113
506	4	2	-0.71269458	-5.0012217	2.5871293	100.78482
507	4	3	-0.5672493	-4.5533239	2.0360444	103.01819
508	4	4	0.08723508	-5.6379056	2.8518714	103.57296
509	4	5	0.035923844	-5.6479659	3.8379316	103.05492
510	4	4	-0.17996491	-5.3996162	3.104115	105.07433
511	4	6	0.088703455	-5.3079355	2.1349597	105.61339
512	4	6	0.088703455	-4.4486647	3.6628624	105.20844
513	4	4	-0.14155219	-6.5475031	3.9183139	105.68501
514	4	6	0.086298527	-6.5686524	4.9311988	105.22602
515	4	6	0.086298527	-6.3650248	4.0395891	106.7756
516	4	4	0.20708186	-7.8968401	3.2150803	105.46993
517	4	3	-0.68066466	-8.9699142	4.0557003	105.99631
518	4	9	0.60496187	-9.738384	3.6626219	106.93076
519	4	2	-0.52566737	-10.486291	3.2796845	107.8397
520	4	5	0.029883029	-7.8764166	2.2330237	106.00004
521	4	4	-0.14155218	-8.1385532	2.960297	103.97334
522	4	6	0.086298497	-9.0886885	2.3989413	103.84387
523	4	6	0.086298497	-8.2365999	3.9288648	103.43464
524	4	4	-0.17996491	-6.9907695	2.1493857	103.35784
525	4	6	0.08870347	-6.9661285	1.1355389	103.8159
526	4	6	0.08870347	-7.1837606	2.0268526	102.27099
527	4	7	0.30536252	-3.90689	1.5205479	103.65801
528	5	8	-0.1458434	1.2489192	1.6993563	96.901309
529	5	4	0.061086701	2.5874241	1.3751372	97.164855
530	5	4	-0.063222123	2.6820271	-0.029128127	97.793067
531	5	6	0.1151343	1.989974	-0.69955485	97.233618