Title

319 atoms
344 bonds
565 angles
871 dihedrals
480 impropers

11 atom types
16 bond types
10 angle types
21 dihedral types
3 improper types
-12.69900036 87.30099964 xlo xhi
-7.484000206 92.51599979 ylo yhi
-4.44299984 95.55700016 zlo zhi
0.0 0.0 0.0 xy xz yz

Masses

1	14.00672
2	12.01078
3	1.007947
4	15.99943
5	12.01078
6	1.007947
7	18.998403
8	15.99943
9	15.99943
10	1.007947
11	1.007947


Pair Coeffs

1	0.16769152	3.206876
2	0.086879315	3.4806469
3	0.015611343	2.5725815
4	0.16846514	3.0251065
5	0.10884061	3.3795318
6	0.014090815	1.1034277
7	0.061	3.1181455
8	0.2102061	3.0398122
9	0.20947353	2.99716
10	1.2326e-05	0.53453923
11	0.015779483	2.6445434

Bond Coeffs

1 harmonic	390.03554688505	1.390160554689
2 harmonic	505.144496193	1.019481865027
3 harmonic	422.7150220147	1.421786517481
4 harmonic	360.7852444772	1.387193227181
5 harmonic	397.2545789619	1.085358495916
6 harmonic	279.1350963404	1.454628925034
7 harmonic	425.69104206635	1.362945806494
8 harmonic	289.73813263395	1.498646816465
9 harmonic	352.0565580496	1.450098586273
10 harmonic	492.76746816345	1.381897776683
11 harmonic	340.45121009905	1.358690858053
12 harmonic	582.698766451	1.225198386222
13 harmonic	264.62148576755	1.52190126495
14 harmonic	385.7604595587	1.369745182308
15 harmonic	543.5267831885	0.9716763312559
16 harmonic	370.04670688625	1.093899492634


Angle Coeffs

1 harmonic	57.8982893754	126.8062420451
2 harmonic	55.42182150775	117.3465570514
3 harmonic	63.44422595415	115.5071327674
4 harmonic	34.066775159195	129.1835929926
5 harmonic	65.09061609600001	110.3538806181
6 harmonic	53.20531626545	116.5475862634
7 harmonic	14.32262199324	138.3184368373
8 harmonic	39.628116874445	129.8027304608
9 harmonic	201.41175231035	127.4691416191
10 harmonic	48.776492647595	115.6030999533


Dihedral Coeffs

1 fourier 1	3.661930099076	2	180
2 fourier 1	1.193093382682	2	180
3 fourier 1	0.02021088501612	1	0
4 fourier 1	1.163235555439	2	180
5 fourier 1	1.532232714475	2	180
6 fourier 1	0.02664938770063	3	0
7 fourier 1	-0.6891728821899999	2	180
8 fourier 1	0.2727846432367	1	0
9 fourier 1	1.57666786751	2	180
10 fourier 1	3.101948770557	2	180
11 fourier 1	-0.4252153282372	1	0
12 fourier 1	1.809047390003	2	180
13 fourier 1	-0.04816277792592	1	0
14 fourier 1	0.9974165607242	2	180
15 fourier 1	2.348375642009	2	180
16 fourier 1	1.256156174911	1	0
17 fourier 1	0.1155372516788	3	0
18 fourier 1	2.687457892086	2	180
19 fourier 1	2.772607909663	2	180
20 fourier 1	0.09692684957115	1	0
21 fourier 1	0.1040663847541	3	0


Improper Coeffs

1 0.3666666666666667	-1	2
2 0.3333333333333333	-1	2
3 3.5	-1	2


Atoms

1	1	1	-0.41184199	-11.091	5.553	1.375
2	1	2	0.126848	-9.9469995	4.915	0.80299997
3	1	2	-0.40649799	-9.927	3.585	0.62400001
4	1	3	0.221701	-10.778	2.98	0.91399997
5	1	2	-0.113876	-8.7320004	2.9260001	0.052999999
6	1	3	0.20398	-8.7370005	1.847	-0.037
7	1	2	-0.127849	-7.6529999	3.6470001	-0.301
8	1	2	-0.13408899	-6.4310002	2.9779999	-0.81800002
9	1	2	-0.128967	-5.2090001	3.3800001	-0.41299999
10	1	3	0.207266	-5.0939999	4.1919999	0.28999999
11	1	2	-0.29565901	-4.0009999	2.6889999	-0.89200002
12	1	3	0.224409	-3.03	3.007	-0.53500003
13	1	2	0.32949501	-4.1040001	1.653	-1.735
14	1	4	-0.27164099	-2.9519999	0.97500002	-2.131
15	1	2	0.265398	-2.3	0.021	-1.335
16	1	2	-0.292685	-2.8659999	-0.50999999	-0.236
17	1	3	0.231316	-3.8570001	-0.221	0.082999997
18	1	2	-0.155957	-2.148	-1.524	0.55900002
19	1	3	0.218629	-2.6600001	-1.949	1.409
20	1	2	-0.145744	-0.88999999	-1.8940001	0.236
21	1	5	0.19016001	-0.131	-2.9590001	1.048
22	1	2	-0.145744	1.387	-2.723	1.0650001
23	1	2	-0.155957	2.2590001	-3.743	1.211
24	1	3	0.218629	1.918	-4.7639999	1.295
25	1	2	-0.292685	3.714	-3.494	1.274
26	1	3	0.231316	4.3990002	-4.3330002	1.3099999
27	1	2	0.265398	4.1859999	-2.2420001	1.2539999
28	1	4	-0.27164099	5.5700002	-2.033	1.276
29	1	2	0.32949501	6.1630001	-0.83499998	0.86199999
30	1	2	-0.29565901	6.8610001	-0.119	1.753
31	1	3	0.224409	6.9809999	-0.48100001	2.7650001
32	1	2	-0.128967	7.4050002	1.2029999	1.3940001
33	1	3	0.207266	7.9590001	1.757	2.1440001
34	1	2	-0.13408899	7.2179999	1.7029999	0.162
35	1	2	-0.127849	7.7150002	3.0539999	-0.191
36	1	2	-0.127911	8.2810001	3.286	-1.393
37	1	3	0.20398	8.415	2.484	-2.1099999
38	1	2	-0.37455201	8.7510004	4.6399999	-1.751
39	1	3	0.218154	9.1990004	4.8010001	-2.723
40	1	2	0.199091	8.6000004	5.658	-0.889
41	1	1	-0.53060699	9.0229998	6.9759998	-1.247
42	1	6	0.319583	9.4639997	7.1719999	-2.1719999
43	1	2	-0.37455201	7.9790001	5.4130001	0.43200001
44	1	3	0.218154	7.8590002	6.2280002	1.132
45	1	2	-0.127911	7.5689998	4.1830001	0.76700002
46	1	3	0.20398	7.1059999	4.0229998	1.732
47	1	2	-0.056299999	6.4879999	0.889	-0.847
48	1	3	0.20630001	6.3499999	1.289	-1.8430001
49	1	2	-0.321796	6.0219998	-0.33899999	-0.54500002
50	1	5	0.76677799	5.3410001	-1.169	-1.614
51	1	7	-0.207526	5.54	-2.5179999	-1.383
52	1	7	-0.207526	5.8530002	-0.87800002	-2.868
53	1	7	-0.207526	3.9849999	-0.89999998	-1.615
54	1	2	-0.292685	3.233	-1.1059999	1.2460001
55	1	3	0.231316	3.596	-0.088	1.323
56	1	2	-0.155957	1.92	-1.332	1.166
57	1	3	0.218629	1.247	-0.486	1.1849999
58	1	2	0.085946001	-0.58399999	-3.0179999	2.5009999
59	1	2	-0.051008999	-0.53500003	-2.0669999	3.444
60	1	3	0.216306	-0.13500001	-1.084	3.2320001
61	1	2	-0.26695099	-1.061	-2.3870001	4.7979999
62	1	3	0.22238301	-1.039	-1.633	5.573
63	1	2	-0.25136399	-1.58	-3.6040001	5.0580001
64	1	3	0.21378499	-1.9630001	-3.8329999	6.0419998
65	1	2	0.0078919996	-1.628	-4.6399999	3.9979999
66	1	3	0.219899	-2.046	-5.6209998	4.1900001
67	1	2	-0.236632	-1.1390001	-4.322	2.802
68	1	2	0.686023	-1.064	-5.0910001	1.594
69	1	8	-0.55373698	-1.4630001	-6.2779999	1.461
70	1	1	-0.44925201	-0.48699999	-4.3140001	0.54400003
71	1	2	0.20520701	-0.207	-4.8569999	-0.76200002
72	1	2	-0.34066501	-0.81099999	-4.3629999	-1.862
73	1	3	0.206494	-1.5369999	-3.5669999	-1.788
74	1	2	-0.16484	-0.53399998	-4.948	-3.191
75	1	3	0.232006	-0.99400002	-4.5180001	-4.0689998
76	1	2	-0.26242301	0.271	-6.0110002	-3.303
77	1	3	0.22677299	0.46799999	-6.4419999	-4.276
78	1	2	-0.16484	0.88800001	-6.6030002	-2.0940001
79	1	3	0.232006	1.513	-7.4840002	-2.178
80	1	2	-0.34066501	0.65600002	-6.0609999	-0.88999999
81	1	3	0.206495	1.0779999	-6.52	-0.0089999996
82	1	2	-0.155957	-0.28799999	-1.325	-1.01
83	1	3	0.218629	0.68199998	-1.664	-1.354
84	1	2	-0.292685	-0.95300001	-0.42300001	-1.739
85	1	3	0.231316	-0.50800002	-0.026000001	-2.6429999
86	1	2	-0.321796	-5.4390001	1.2180001	-2.2320001
87	1	5	0.76677799	-5.5479999	0.022	-3.151
88	1	7	-0.207526	-4.552	0.061000001	-4.1110001
89	1	7	-0.207526	-5.4029999	-1.135	-2.408
90	1	7	-0.207526	-6.7680001	-0.016000001	-3.802
91	1	2	-0.056299999	-6.54	1.837	-1.767
92	1	3	0.20630001	-7.5229998	1.512	-2.0780001
93	1	2	-0.113876	-7.6890001	5.125	-0.118
94	1	3	0.20398	-6.8390002	5.7340002	-0.40900001
95	1	2	-0.40649799	-8.7690001	5.7199998	0.40400001
96	1	3	0.221701	-8.7770004	6.7969999	0.542
97	1	6	0.37291199	-11.926	5.0009999	1.66
98	1	2	0.75660098	8.8620005	7.7859998	-0.579
99	1	8	-0.66881102	9.868	8.4499998	-0.204
100	1	2	-0.30844501	7.4949999	8.1520004	-0.132
101	1	2	-0.025733	7.2950001	9.3330002	0.48800001
102	1	3	0.21883	8.1199999	10.008	0.69099998
103	1	2	-0.312987	5.9359999	9.7799997	0.847
104	1	3	0.223102	5.802	10.751	1.309
105	1	2	0.21502	4.8720002	9.0319996	0.54100001
106	1	4	-0.27261001	3.589	9.5220003	0.83099997
107	1	2	0.25703001	2.447	9.349	0.030999999
108	1	2	-0.277082	2.5220001	9.0760002	-1.284
109	1	3	0.228646	3.4779999	8.9770002	-1.783
110	1	2	-0.142434	1.299	8.9969997	-2.1059999
111	1	3	0.21616299	1.4349999	8.8470001	-3.165
112	1	2	-0.258508	0.075000003	9.1780005	-1.559
113	1	5	0.0087449998	-1.197	9.2659998	-2.424
114	1	2	-0.258508	-2.4219999	8.7440004	-1.647
115	1	2	-0.142434	-3.6199999	9.3769999	-1.654
116	1	3	0.21616299	-3.7690001	10.324	-2.155
117	1	2	-0.277082	-4.7969999	8.783	-0.991
118	1	3	0.228646	-5.737	9.3179998	-1.05
119	1	2	0.25703001	-4.7049999	7.592	-0.37
120	1	4	-0.27261001	-5.8119998	6.9660001	0.23100001
121	1	2	0.20786899	-7.0159998	7.5929999	0.58899999
122	1	2	-0.30891401	-7.0380001	8.7810001	1.21
123	1	3	0.223102	-6.1139998	9.2790003	1.475
124	1	2	-0.0040059998	-8.323	9.4589996	1.466
125	1	3	0.229086	-8.2959995	10.47	1.853
126	1	2	-0.189245	-9.4890003	8.8830004	1.11
127	1	2	0.80190903	-10.725	9.6960001	1.143
128	1	8	-0.49115899	-11.618	9.526	0.26800001
129	1	9	-0.665461	-10.887	10.694	2.1029999
130	1	10	0.41786799	-11.719	11.271	2.1170001
131	1	2	-0.123022	-9.4759998	7.48	0.574
132	1	2	0.79961699	-10.723	6.684	0.428
133	1	8	-0.49115899	-10.752	5.6849999	-0.34400001
134	1	9	-0.665461	-11.849	6.9899998	1.189
135	1	10	0.41786799	-12.699	6.4439998	1.11
136	1	2	-0.081197001	-8.2889996	6.8969998	0.308
137	1	3	0.231628	-8.2410002	5.8860002	-0.077
138	1	2	-0.277082	-3.4089999	6.8839998	-0.36500001
139	1	3	0.228646	-3.3269999	5.9190001	0.116
140	1	2	-0.142434	-2.339	7.4190001	-0.96600002
141	1	3	0.21616299	-1.408	6.8639998	-0.97299999
142	1	5	-0.12990899	-1.336	10.748	-2.8499999
143	1	11	0.089286998	-0.389	11.119	-3.296
144	1	11	0.089286998	-2.128	10.876	-3.618
145	1	11	0.089286998	-1.573	11.386	-1.973
146	1	5	-0.12990899	-1.097	8.401	-3.707
147	1	11	0.089286998	-2.0869999	8.342	-4.2129998
148	1	11	0.089286998	-0.38699999	8.835	-4.4429998
149	1	11	0.089286998	-0.773	7.3649998	-3.4630001
150	1	2	-0.142434	0.0070000002	9.5	-0.102
151	1	3	0.21616299	-0.94599998	9.7030001	0.37
152	1	2	-0.277082	1.12	9.5620003	0.64300001
153	1	3	0.228646	1.051	9.8039999	1.696
154	1	2	-0.030888001	5.0770001	7.6950002	-0.07
155	1	3	0.21417999	4.2090001	7.0619998	-0.219
156	1	2	-0.19917201	6.3140001	7.2589998	-0.396
157	1	2	0.57299501	6.4850001	5.8930001	-0.95200002
158	1	8	-0.54014599	5.4879999	5.2030001	-1.295
159	1	1	-0.41184199	-11.11	6.5840001	1.508
160	1	2	0.126848	-10.168	7.223	2.3740001
161	1	2	-0.40649799	-10.199	8.552	2.552
162	1	3	0.221701	-10.936	9.1569996	2.0380001
163	1	2	-0.113876	-9.2069998	9.2119999	3.4300001
164	1	3	0.20398	-9.2370005	10.29	3.516
165	1	2	-0.127849	-8.2679996	8.4899998	4.0689998
166	1	2	-0.13408899	-7.2360001	9.1590004	4.9029999
167	1	2	-0.128967	-5.9499998	8.7580004	4.8509998
168	1	3	0.207266	-5.6459999	7.9450002	4.2069998
169	1	2	-0.29565901	-4.921	9.448	5.645
170	1	3	0.224409	-3.8900001	9.1309996	5.5700002
171	1	2	0.32949501	-5.2529998	10.484	6.4260001
172	1	4	-0.27164099	-4.2550001	11.163	7.1259999
173	1	2	0.265398	-3.408	12.117	6.54
174	1	2	-0.292685	-3.6489999	12.648	5.3270001
175	1	3	0.231316	-4.5139999	12.358	4.7470002
176	1	2	-0.155957	-2.7390001	13.661	4.7620001
177	1	3	0.218629	-2.997	14.086	3.803
178	1	2	-0.145744	-1.619	14.031	5.4200001
179	1	5	0.19016001	-0.66600001	15.096	4.849
180	1	2	-0.145744	0.79799998	14.86	5.2509999
181	1	2	-0.155957	1.676	15.881	5.3520002
182	1	3	0.218629	1.372	16.900999	5.177
183	1	2	-0.292685	3.092	15.631	5.6929998
184	1	3	0.231316	3.76	16.471001	5.848
185	1	2	0.265398	3.54	14.38	5.8429999
186	1	4	-0.27164099	4.8769999	14.171	6.2030001
187	1	2	0.32949501	5.3319998	12.972	6.7649999
188	1	2	-0.29565901	6.2490001	12.257	6.1009998
189	1	3	0.224409	6.6430001	12.618	5.1609998
190	1	2	-0.128967	6.6719999	10.934	6.5960002
191	1	3	0.207266	7.4120002	10.381	6.0289998
192	1	2	-0.13408899	6.1529999	10.435	7.7290001
193	1	2	-0.127849	6.533	9.0830002	8.2060003
194	1	2	-0.077212997	6.7449999	8.8509998	9.5170002
195	1	3	0.20398	6.6760001	9.6529999	10.243
196	1	2	-0.450656	7.098	7.4970002	9.9910002
197	1	3	0.230235	7.2610002	7.336	11.048
198	1	2	0.31856799	7.191	6.4790001	9.1210003
199	1	1	-0.84460503	7.4980001	5.1609998	9.5810003
200	1	6	0.36654899	7.527	4.3660002	8.908
201	1	6	0.36654899	7.6669998	4.9650002	10.592
202	1	2	-0.450656	6.9590001	6.724	7.6799998
203	1	3	0.230235	7.0359998	5.9089999	6.974
204	1	2	-0.077212997	6.6570001	7.9549999	7.2449999
205	1	3	0.20398	6.4790001	8.1140003	6.1890001
206	1	2	-0.056299999	5.1719999	11.249	8.4969997
207	1	3	0.20630001	4.7649999	10.849	9.4169998
208	1	2	-0.321796	4.8080001	12.476	8.0780001
209	1	5	0.76677799	3.859	13.307	8.9180002
210	1	7	-0.207526	4.1139998	14.656	8.75
211	1	7	-0.207526	4.0040002	13.015	10.264
212	1	7	-0.207526	2.5539999	13.037	8.5439997
213	1	2	-0.292685	2.622	13.244	5.5869999
214	1	3	0.231316	2.9920001	12.225	5.6129999
215	1	2	-0.155957	1.3380001	13.469	5.302
216	1	3	0.218629	0.69599998	12.624	5.0970001
217	1	2	0.085946001	-0.70099998	15.155	3.3269999
218	1	2	-0.051008999	-0.39300001	14.204	2.434
219	1	3	0.216306	-0.067000002	13.221	2.7490001
220	1	2	-0.26695099	-0.52499998	14.525	0.98799998
221	1	3	0.22238301	-0.28999999	13.77	0.249
222	1	2	-0.25136399	-0.95200002	15.741	0.59399998
223	1	3	0.21378499	-1.048	15.971	-0.45699999
224	1	2	0.0078919996	-1.291	16.778	1.6
225	1	3	0.219899	-1.6390001	17.757999	1.3
226	1	2	-0.236632	-1.15	16.459999	2.8840001
227	1	2	0.686023	-1.4119999	17.229	4.066
228	1	8	-0.55373698	-1.832	18.415001	4.0840001
229	1	1	-0.44925201	-1.147	16.451	5.2350001
230	1	2	0.20520701	-1.239	16.995001	6.5679998
231	1	2	-0.34066501	-2.1229999	16.500999	7.4580002
232	1	3	0.206494	-2.8010001	15.704	7.1859999
233	1	2	-0.16484	-2.223	17.084999	8.8109999
234	1	3	0.232006	-2.908	16.656	9.5290003
235	1	2	-0.26242301	-1.48	18.148001	9.1420002
236	1	3	0.22677299	-1.5599999	18.58	10.131
237	1	2	-0.16484	-0.55400002	18.74	8.1499996
238	1	3	0.232006	0.024	19.622	8.4040003
239	1	2	-0.34066501	-0.44400001	18.198	6.9289999
240	1	3	0.206495	0.204	18.657	6.198
241	1	2	-0.155957	-1.385	13.462	6.783
242	1	3	0.218629	-0.54799998	13.801	7.382
243	1	2	-0.292685	-2.2249999	12.561	7.3010001
244	1	3	0.231316	-2.0469999	12.164	8.2919998
245	1	2	-0.321796	-6.6729999	10.919	6.5359998
246	1	5	0.76677799	-7.0310001	12.116	7.3889999
247	1	7	-0.207526	-6.3400002	12.076	8.5869999
248	1	7	-0.207526	-6.6869998	13.272	6.7150002
249	1	7	-0.207526	-8.3839998	12.153	7.678
250	1	2	-0.056299999	-7.6030002	10.301	5.7849998
251	1	3	0.20630001	-8.6330004	10.625	5.8119998
252	1	2	-0.113876	-8.2519999	7.013	3.8829999
253	1	3	0.20398	-7.5159998	6.4039998	4.3969998
254	1	2	-0.40649799	-9.1459999	6.4169998	3.0829999
255	1	3	0.221701	-9.1160002	5.3410001	2.948
256	1	6	0.37291199	-11.834	7.1360002	1.0039999
257	1	2	0.58130699	7.4699998	5.448	-1.05
258	1	8	-0.54014701	7.5890002	4.3860002	-1.722
259	1	2	-0.309861	8.6389999	6.0710001	-0.39199999
260	1	2	0.028000001	9.717	5.3140001	-0.101
261	1	3	0.213439	9.7580004	4.2680001	-0.384
262	1	2	-0.31854799	10.832	5.8670001	0.685
263	1	3	0.223102	11.675	5.2329998	0.93599999
264	1	2	0.20786899	10.805	7.1409998	1.097
265	1	4	-0.27261001	11.878	7.6399999	1.841
266	1	2	0.25703001	12.701	8.651	1.345
267	1	2	-0.277082	12.359	9.9420004	1.454
268	1	3	0.228646	11.44	10.227	1.9450001
269	1	2	-0.142434	13.233	10.991	0.89200002
270	1	3	0.21616299	12.892	12.014	0.97600001
271	1	2	-0.258508	14.405	10.67	0.292
272	1	5	0.0087449998	15.351	11.709	-0.336
273	1	2	-0.258508	16.761999	11.508	0.245
274	1	2	-0.142434	16.951	11.597	1.5829999
275	1	3	0.21616299	16.115	11.779	2.2490001
276	1	2	-0.277082	18.292999	11.45	2.1719999
277	1	3	0.228646	18.417	11.544	3.244
278	1	2	0.25703001	19.362	11.26	1.39
279	1	4	-0.27261001	20.629999	11.186	1.978
280	1	2	0.20786899	21.806	11.73	1.4349999
281	1	2	-0.30891401	22.986	11.317	1.913
282	1	3	0.223102	23.024	10.558	2.6849999
283	1	2	-0.0040059998	24.239	11.932	1.444
284	1	3	0.229086	25.17	11.643	1.914
285	1	2	-0.189245	24.228001	12.879	0.48500001
286	1	2	0.80190903	25.490999	13.567	0.169
287	1	8	-0.49115899	26.042	14.291	1.043
288	1	9	-0.665461	26.059999	13.462	-1.094
289	1	10	0.41786799	26.854	14.038	-1.3380001
290	1	2	-0.123022	22.917999	13.312	-0.103
291	1	2	0.79961699	22.823	14.35	-1.1619999
292	1	8	-0.49115899	21.761	15.012	-1.312
293	1	9	-0.665461	23.874001	14.544	-2.0580001
294	1	10	0.41786799	23.802	15.229	-2.8010001
295	1	2	-0.081197001	21.777	12.788	0.39500001
296	1	3	0.231628	20.823	13.148	0.037999999
297	1	2	-0.277082	19.171	11.098	-0.068999998
298	1	3	0.228646	20.013	10.863	-0.70599997
299	1	2	-0.142434	17.952	11.222	-0.61199999
300	1	3	0.21616299	17.865999	11.102	-1.6799999
301	1	5	-0.12990899	14.934	13.178	-0.064000003
302	1	11	0.089286998	14.84	13.375	1.025
303	1	11	0.089286998	13.966	13.418	-0.551
304	1	11	0.089286998	15.702	13.871	-0.46799999
305	1	5	-0.12990899	15.302	11.505	-1.868
306	1	11	0.089286998	15.931	12.26	-2.3889999
307	1	11	0.089286998	15.654	10.49	-2.1570001
308	1	11	0.089286998	14.26	11.615	-2.2420001
309	1	2	-0.142434	14.778	9.2309999	0.20900001
310	1	3	0.21616299	15.707	8.9370003	-0.26899999
311	1	2	-0.277082	13.974	8.2819996	0.704
312	1	3	0.228646	14.256	7.2389998	0.62
313	1	2	-0.084151998	9.6540003	8.0010004	0.74199998
314	1	3	0.231628	9.6639996	9.0410004	1.038
315	1	2	-0.086946003	8.6219997	7.5149999	0.02
316	1	2	0.81184298	7.553	8.4440002	-0.414
317	1	8	-0.49115899	6.9510002	8.2609997	-1.5039999
318	1	9	-0.665461	7.2340002	9.5579996	0.35800001
319	1	10	0.41786799	6.5190001	10.209	0.056000002

Bonds

1	1	1	2
2	2	1	97
3	3	1	159
4	4	2	3
5	4	2	95
6	5	3	4
7	4	3	5
8	5	5	6
9	4	5	7
10	6	7	8
11	4	7	93
12	4	8	9
13	4	8	91
14	5	9	10
15	4	9	11
16	5	11	12
17	4	11	13
18	7	13	14
19	4	13	86
20	7	14	15
21	4	15	16
22	4	15	84
23	5	16	17
24	4	16	18
25	5	18	19
26	4	18	20
27	8	20	21
28	4	20	82
29	8	21	22
30	8	21	58
31	9	21	70
32	4	22	23
33	4	22	56
34	5	23	24
35	4	23	25
36	5	25	26
37	4	25	27
38	7	27	28
39	4	27	54
40	7	28	29
41	4	29	30
42	4	29	49
43	5	30	31
44	4	30	32
45	5	32	33
46	4	32	34
47	6	34	35
48	4	34	47
49	4	35	36
50	4	35	45
51	5	36	37
52	4	36	38
53	5	38	39
54	4	38	40
55	1	40	41
56	4	40	43
57	2	41	42
58	10	41	98
59	5	43	44
60	4	43	45
61	5	45	46
62	5	47	48
63	4	47	49
64	8	49	50
65	11	50	51
66	11	50	52
67	11	50	53
68	5	54	55
69	4	54	56
70	5	56	57
71	4	58	59
72	4	58	67
73	5	59	60
74	4	59	61
75	5	61	62
76	4	61	63
77	5	63	64
78	4	63	65
79	5	65	66
80	4	65	67
81	6	67	68
82	12	68	69
83	10	68	70
84	1	70	71
85	4	71	72
86	4	71	80
87	5	72	73
88	4	72	74
89	5	74	75
90	4	74	76
91	5	76	77
92	4	76	78
93	5	78	79
94	4	78	80
95	5	80	81
96	5	82	83
97	4	82	84
98	5	84	85
99	8	86	87
100	4	86	91
101	11	87	88
102	11	87	89
103	11	87	90
104	5	91	92
105	5	93	94
106	4	93	95
107	5	95	96
108	12	98	99
109	6	98	100
110	4	100	101
111	4	100	156
112	5	101	102
113	4	101	103
114	5	103	104
115	4	103	105
116	7	105	106
117	4	105	154
118	7	106	107
119	4	107	108
120	4	107	152
121	5	108	109
122	4	108	110
123	5	110	111
124	4	110	112
125	8	112	113
126	4	112	150
127	8	113	114
128	13	113	142
129	13	113	146
130	4	114	115
131	4	114	140
132	5	115	116
133	4	115	117
134	5	117	118
135	4	117	119
136	7	119	120
137	4	119	138
138	7	120	121
139	4	121	122
140	4	121	136
141	5	122	123
142	4	122	124
143	5	124	125
144	4	124	126
145	6	126	127
146	4	126	131
147	12	127	128
148	14	127	129
149	15	129	130
150	6	131	132
151	4	131	136
152	12	132	133
153	14	132	134
154	15	134	135
155	5	136	137
156	5	138	139
157	4	138	140
158	5	140	141
159	16	142	143
160	16	142	144
161	16	142	145
162	16	146	147
163	16	146	148
164	16	146	149
165	5	150	151
166	4	150	152
167	5	152	153
168	5	154	155
169	4	154	156
170	6	156	157
171	12	157	158
172	6	157	257
173	1	159	160
174	2	159	256
175	4	160	161
176	4	160	254
177	5	161	162
178	4	161	163
179	5	163	164
180	4	163	165
181	6	165	166
182	4	165	252
183	4	166	167
184	4	166	250
185	5	167	168
186	4	167	169
187	5	169	170
188	4	169	171
189	7	171	172
190	4	171	245
191	7	172	173
192	4	173	174
193	4	173	243
194	5	174	175
195	4	174	176
196	5	176	177
197	4	176	178
198	8	178	179
199	4	178	241
200	8	179	180
201	8	179	217
202	9	179	229
203	4	180	181
204	4	180	215
205	5	181	182
206	4	181	183
207	5	183	184
208	4	183	185
209	7	185	186
210	4	185	213
211	7	186	187
212	4	187	188
213	4	187	208
214	5	188	189
215	4	188	190
216	5	190	191
217	4	190	192
218	6	192	193
219	4	192	206
220	4	193	194
221	4	193	204
222	5	194	195
223	4	194	196
224	5	196	197
225	4	196	198
226	1	198	199
227	4	198	202
228	2	199	200
229	2	199	201
230	5	202	203
231	4	202	204
232	5	204	205
233	5	206	207
234	4	206	208
235	8	208	209
236	11	209	210
237	11	209	211
238	11	209	212
239	5	213	214
240	4	213	215
241	5	215	216
242	4	217	218
243	4	217	226
244	5	218	219
245	4	218	220
246	5	220	221
247	4	220	222
248	5	222	223
249	4	222	224
250	5	224	225
251	4	224	226
252	6	226	227
253	12	227	228
254	10	227	229
255	1	229	230
256	4	230	231
257	4	230	239
258	5	231	232
259	4	231	233
260	5	233	234
261	4	233	235
262	5	235	236
263	4	235	237
264	5	237	238
265	4	237	239
266	5	239	240
267	5	241	242
268	4	241	243
269	5	243	244
270	8	245	246
271	4	245	250
272	11	246	247
273	11	246	248
274	11	246	249
275	5	250	251
276	5	252	253
277	4	252	254
278	5	254	255
279	12	257	258
280	6	257	259
281	4	259	260
282	4	259	315
283	5	260	261
284	4	260	262
285	5	262	263
286	4	262	264
287	7	264	265
288	4	264	313
289	7	265	266
290	4	266	267
291	4	266	311
292	5	267	268
293	4	267	269
294	5	269	270
295	4	269	271
296	8	271	272
297	4	271	309
298	8	272	273
299	13	272	301
300	13	272	305
301	4	273	274
302	4	273	299
303	5	274	275
304	4	274	276
305	5	276	277
306	4	276	278
307	7	278	279
308	4	278	297
309	7	279	280
310	4	280	281
311	4	280	295
312	5	281	282
313	4	281	283
314	5	283	284
315	4	283	285
316	6	285	286
317	4	285	290
318	12	286	287
319	14	286	288
320	15	288	289
321	6	290	291
322	4	290	295
323	12	291	292
324	14	291	293
325	15	293	294
326	5	295	296
327	5	297	298
328	4	297	299
329	5	299	300
330	16	301	302
331	16	301	303
332	16	301	304
333	16	305	306
334	16	305	307
335	16	305	308
336	5	309	310
337	4	309	311
338	5	311	312
339	5	313	314
340	4	313	315
341	6	315	316
342	12	316	317
343	14	316	318
344	15	318	319

Angles

1	4	112	150	151
2	4	263	262	264
3	4	191	190	192
4	1	120	119	138
5	1	259	260	262
6	1	165	166	167
7	4	23	25	26
8	1	11	13	86
9	6	113	146	147
10	1	169	171	172
11	4	271	309	310
12	4	2	3	4
13	3	40	41	42
14	4	59	61	62
15	1	265	266	267
16	4	114	140	141
17	1	126	127	128
18	1	113	112	150
19	1	218	217	226
20	4	60	59	61
21	1	172	171	245
22	4	36	38	39
23	1	5	7	8
24	6	113	142	143
25	4	6	5	7
26	6	52	50	53
27	1	185	213	215
28	1	259	315	313
29	1	180	215	213
30	5	278	279	280
31	1	114	115	117
32	4	105	154	155
33	4	222	224	225
34	4	168	167	169
35	4	266	267	268
36	1	156	157	158
37	1	159	160	161
38	6	271	272	305
39	4	160	254	255
40	4	268	267	269
41	1	21	58	67
42	1	167	169	171
43	1	14	15	84
44	4	213	215	216
45	1	103	105	106
46	1	110	112	150
47	1	199	198	202
48	4	19	18	20
49	6	245	246	249
50	6	272	301	304
51	1	18	20	82
52	1	20	82	84
53	1	181	183	185
54	1	186	187	188
55	1	36	35	45
56	1	160	161	163
57	1	126	131	132
58	1	230	231	233
59	4	195	194	196
60	1	190	192	193
61	1	267	269	271
62	1	100	156	157
63	4	63	65	66
64	6	142	113	146
65	4	40	43	44
66	4	30	32	33
67	1	115	114	140
68	4	252	254	255
69	1	276	278	279
70	1	163	165	166
71	1	231	230	239
72	1	32	34	47
73	6	51	50	52
74	6	86	87	90
75	1	174	173	243
76	4	118	117	119
77	8	228	227	229
78	2	21	70	71
79	1	29	49	50
80	1	186	187	208
81	6	20	21	22
82	1	124	126	131
83	1	274	273	299
84	1	290	291	293
85	1	28	29	30
86	5	127	129	130
87	6	180	179	217
88	1	106	107	108
89	4	270	269	271
90	4	184	183	185
91	1	176	178	179
92	6	88	87	90
93	1	121	122	124
94	4	193	204	205
95	1	72	71	80
96	4	3	5	6
97	1	178	241	243
98	4	16	18	19
99	1	29	30	32
100	1	279	280	295
101	4	15	84	85
102	1	192	193	204
103	4	27	54	55
104	1	160	254	252
105	4	62	61	63
106	1	9	8	91
107	4	207	206	208
108	4	100	101	102
109	4	202	204	205
110	1	98	100	156
111	4	192	206	207
112	1	7	8	9
113	1	71	72	74
114	4	185	213	214
115	1	166	250	245
116	4	114	115	116
117	1	131	132	134
118	6	301	272	305
119	1	21	20	82
120	4	187	188	189
121	4	94	93	95
122	1	257	259	315
123	5	27	28	29
124	1	161	163	165
125	1	35	36	38
126	4	273	274	275
127	1	108	110	112
128	1	29	49	47
129	4	175	174	176
130	4	167	169	170
131	4	48	47	49
132	4	12	11	13
133	6	89	87	90
134	1	258	257	259
135	4	261	260	262
136	1	165	252	254
137	1	13	86	87
138	4	20	82	83
139	6	112	113	142
140	1	101	100	156
141	1	106	107	152
142	1	14	15	16
143	10	143	142	145
144	1	259	315	316
145	1	187	208	206
146	4	230	231	232
147	6	208	209	212
148	4	64	63	65
149	4	10	9	11
150	1	174	176	178
151	1	61	63	65
152	4	193	194	195
153	1	260	259	315
154	4	119	138	139
155	1	217	218	220
156	2	179	229	230
157	4	75	74	76
158	4	9	11	12
159	6	22	21	70
160	1	279	280	281
161	1	165	166	250
162	5	316	318	319
163	1	278	297	299
164	1	173	243	241
165	6	49	50	51
166	8	226	227	228
167	3	2	1	97
168	1	290	291	292
169	6	272	305	308
170	1	87	86	91
171	1	13	86	91
172	1	7	93	95
173	6	248	246	249
174	1	158	157	257
175	1	74	76	78
176	1	206	208	209
177	1	183	185	213
178	1	117	119	120
179	4	284	283	285
180	1	193	192	206
181	1	264	313	315
182	6	88	87	89
183	4	310	309	311
184	4	121	122	123
185	1	183	185	186
186	1	260	262	264
187	6	271	272	301
188	4	8	9	10
189	4	164	163	165
190	1	269	271	272
191	1	132	131	136
192	1	166	165	252
193	3	1	159	256
194	4	221	220	222
195	4	111	110	112
196	4	71	72	73
197	6	178	179	229
198	1	267	266	311
199	6	112	113	146
200	1	131	132	133
201	1	291	290	295
202	1	21	22	23
203	6	113	146	149
204	1	1	2	95
205	10	302	301	304
206	4	166	250	251
207	1	58	59	61
208	6	273	272	305
209	3	198	199	201
210	4	290	295	296
211	3	97	1	159
212	2	179	229	227
213	1	169	171	245
214	1	38	40	41
215	1	115	117	119
216	8	67	68	69
217	1	70	71	72
218	9	292	291	293
219	4	182	181	183
220	4	151	150	152
221	4	298	297	299
222	4	280	281	282
223	1	22	23	25
224	1	218	220	222
225	4	173	174	175
226	1	124	126	127
227	4	165	252	253
228	1	120	121	122
229	4	162	161	163
230	4	55	54	56
231	4	232	231	233
232	1	283	285	290
233	1	47	49	50
234	6	113	142	145
235	7	224	226	227
236	2	227	229	230
237	1	272	273	299
238	10	143	142	144
239	1	2	95	93
240	1	230	239	237
241	1	313	315	316
242	4	138	140	141
243	4	150	152	153
244	6	208	209	211
245	4	61	63	64
246	4	241	243	244
247	1	11	13	14
248	4	217	218	219
249	1	281	283	285
250	4	107	108	109
251	1	157	257	258
252	4	314	313	315
253	9	317	316	318
254	4	309	311	312
255	1	231	233	235
256	4	180	181	182
257	1	99	98	100
258	4	102	101	103
259	6	20	21	58
260	1	30	29	49
261	4	242	241	243
262	4	237	239	240
263	1	217	226	224
264	1	34	35	36
265	1	187	208	209
266	4	259	260	261
267	1	229	230	239
268	4	74	76	77
269	1	172	173	243
270	1	21	22	56
271	4	264	313	314
272	1	281	280	295
273	1	194	193	204
274	5	132	134	135
275	4	297	299	300
276	1	194	196	198
277	4	173	243	244
278	1	269	271	309
279	1	190	192	206
280	1	159	160	254
281	1	171	245	250
282	9	133	132	134
283	6	210	209	212
284	4	26	25	27
285	1	18	20	21
286	1	23	25	27
287	1	196	198	199
288	4	197	196	198
289	4	82	84	85
290	1	2	3	5
291	4	109	108	110
292	4	37	36	38
293	5	171	172	173
294	1	32	34	35
295	4	58	59	60
296	1	274	276	278
297	1	280	295	290
298	1	59	58	67
299	1	72	74	76
300	1	113	114	140
301	1	179	217	226
302	1	8	91	86
303	4	123	122	124
304	4	115	117	118
305	1	15	16	18
306	4	218	220	221
307	1	181	180	215
308	1	108	107	152
309	1	235	237	239
310	6	245	246	248
311	1	122	124	126
312	4	33	32	34
313	6	272	301	303
314	1	7	8	91
315	1	41	40	43
316	5	291	293	294
317	1	36	38	40
318	1	58	67	65
319	4	181	183	184
320	8	69	68	70
321	4	139	138	140
322	1	198	202	204
323	4	160	161	162
324	1	101	103	105
325	1	28	27	54
326	1	34	47	49
327	4	131	136	137
328	4	267	269	270
329	1	22	56	54
330	4	155	154	156
331	4	219	218	220
332	1	222	224	226
333	1	167	166	250
334	4	281	283	284
335	6	86	87	89
336	1	188	190	192
337	4	236	235	237
338	4	54	56	57
339	1	179	178	241
340	4	231	233	234
341	7	21	58	59
342	1	154	156	157
343	1	5	7	93
344	1	156	157	257
345	4	39	38	40
346	1	163	165	252
347	4	282	281	283
348	4	230	239	240
349	5	119	120	121
350	4	125	124	126
351	1	63	65	67
352	4	225	224	226
353	1	30	32	34
354	1	41	98	100
355	4	93	95	96
356	6	273	272	301
357	4	178	241	242
358	4	29	30	31
359	4	8	91	92
360	4	194	196	197
361	6	245	246	247
362	6	49	50	53
363	10	306	305	308
364	1	76	78	80
365	1	285	286	288
366	4	17	16	18
367	4	2	95	96
368	5	105	106	107
369	6	180	179	229
370	2	40	41	98
371	4	71	80	81
372	1	28	29	49
373	1	217	226	227
374	6	210	209	211
375	1	283	285	286
376	1	122	121	136
377	1	262	264	313
378	1	229	230	231
379	4	43	45	46
380	4	66	65	67
381	4	278	297	298
382	1	3	5	7
383	4	274	276	277
384	1	16	18	20
385	4	161	163	164
386	4	35	36	37
387	2	1	159	160
388	4	77	76	78
389	4	72	74	75
390	4	116	115	117
391	1	14	13	86
392	2	2	1	159
393	1	27	54	56
394	4	108	110	111
395	6	178	179	180
396	4	24	23	25
397	1	285	290	295
398	4	15	16	17
399	1	171	245	246
400	4	235	237	238
401	5	264	265	266
402	1	100	101	103
403	4	122	124	125
404	6	272	301	302
405	4	275	274	276
406	1	3	2	95
407	1	192	206	208
408	4	198	202	203
409	4	101	103	104
410	4	34	47	48
411	1	98	100	101
412	1	196	198	202
413	4	7	93	94
414	1	16	15	84
415	4	245	250	251
416	4	174	176	177
417	1	187	188	190
418	4	266	311	312
419	1	276	278	297
420	6	114	113	146
421	1	286	285	290
422	1	265	264	313
423	1	257	259	260
424	1	273	274	276
425	6	86	87	88
426	4	188	190	191
427	7	179	217	218
428	1	38	40	43
429	6	22	21	58
430	1	25	27	28
431	1	1	2	3
432	6	272	305	307
433	4	35	45	46
434	1	107	152	150
435	1	58	67	68
436	1	272	273	274
437	1	71	80	78
438	4	189	188	190
439	6	247	246	249
440	1	23	22	56
441	4	79	78	80
442	1	121	136	131
443	6	112	113	114
444	1	188	187	208
445	1	315	316	318
446	4	22	56	57
447	1	265	266	311
448	1	233	235	237
449	1	279	278	297
450	4	104	103	105
451	1	193	194	196
452	1	41	98	99
453	10	303	301	304
454	1	119	138	140
455	1	114	140	138
456	10	147	146	149
457	6	271	272	273
458	1	9	11	13
459	4	260	262	263
460	1	166	167	169
461	1	35	45	43
462	6	49	50	52
463	1	226	227	229
464	4	223	222	224
465	10	306	305	307
466	4	76	78	79
467	1	285	286	287
468	1	220	222	224
469	1	172	173	174
470	4	31	30	32
471	1	112	150	152
472	4	253	252	254
473	10	144	142	145
474	4	234	233	235
475	4	203	202	204
476	1	126	131	136
477	4	4	3	5
478	6	178	179	217
479	1	262	264	265
480	6	113	146	148
481	6	217	179	229
482	1	34	35	45
483	1	246	245	250
484	1	271	309	311
485	1	59	61	63
486	10	302	301	303
487	1	266	311	309
488	3	198	199	200
489	1	35	34	47
490	4	73	72	74
491	7	65	67	68
492	2	68	70	71
493	1	126	127	129
494	1	70	71	80
495	1	179	180	215
496	5	185	186	187
497	1	176	178	241
498	3	160	159	256
499	1	127	126	131
500	1	106	105	154
501	4	22	23	24
502	10	148	146	149
503	4	170	169	171
504	6	113	142	144
505	4	121	136	137
506	1	161	160	254
507	1	272	271	309
508	5	13	14	15
509	6	208	209	210
510	1	105	154	156
511	1	100	156	154
512	4	83	82	84
513	4	78	80	81
514	4	273	299	300
515	4	86	91	92
516	1	266	267	269
517	2	21	70	68
518	1	67	68	70
519	1	8	9	11
520	1	103	105	154
521	1	25	27	54
522	3	42	41	98