Title

139 atoms
146 bonds
239 angles
331 dihedrals
186 impropers

11 atom types
14 bond types
8 angle types
19 dihedral types
3 improper types
-25.60099983 74.39900017 xlo xhi
-3.927999973 96.07200003 ylo yhi
-10.07199955 89.92800045 zlo zhi
0.0 0.0 0.0 xy xz yz

Masses

1	14.00672
2	12.01078
3	1.007947
4	1.007947
5	12.01078
6	1.007947
7	15.99943
8	15.99943
9	1.007947
10	15.99943
11	1.007947


Pair Coeffs

1	0.16769152	3.206876
2	0.086879315	3.4806469
3	0.015611343	2.5725815
4	0.014090815	1.1034277
5	0.10884061	3.3795318
6	0.015779483	2.6445434
7	0.2102061	3.0398122
8	0.16846514	3.0251065
9	0.016409246	2.5832257
10	0.20947353	2.99716
11	1.2326e-05	0.53453923

Bond Coeffs

1 harmonic	390.03554688505	1.390160554689
2 harmonic	505.144496193	1.019481865027
3 harmonic	422.7150220147	1.421786517481
4 harmonic	360.7852444772	1.387193227181
5 harmonic	397.2545789619	1.085358495916
6 harmonic	279.1350963404	1.454628925034
7 harmonic	492.76746816345	1.381897776683
8 harmonic	289.73813263395	1.498646816465
9 harmonic	370.04670688625	1.093899492634
10 harmonic	582.698766451	1.225198386222
11 harmonic	301.15400723785	1.345741232799
12 harmonic	366.7408841747	1.425895053732
13 harmonic	385.7604595587	1.369745182308
14 harmonic	543.5267831885	0.9716763312559


Angle Coeffs

1 harmonic	57.8982893754	126.8062420451
2 harmonic	55.42182150775	117.3465570514
3 harmonic	63.44422595415	115.5071327674
4 harmonic	34.066775159195	129.1835929926
5 harmonic	53.20531626545	116.5475862634
6 harmonic	48.776492647595	115.6030999533
7 harmonic	65.09061609600001	110.3538806181
8 harmonic	201.41175231035	127.4691416191


Dihedral Coeffs

1 fourier 1	3.661930099076	2	180
2 fourier 1	1.193093382682	2	180
3 fourier 1	0.02021088501612	1	0
4 fourier 1	1.163235555439	2	180
5 fourier 1	0.02664938770063	3	0
6 fourier 1	3.101948770557	2	180
7 fourier 1	-0.4252153282372	1	0
8 fourier 1	1.809047390003	2	180
9 fourier 1	-0.04816277792592	1	0
10 fourier 1	0.9974165607242	2	180
11 fourier 1	2.348375642009	2	180
12 fourier 1	1.256156174911	1	0
13 fourier 1	2.779853741805	2	180
14 fourier 1	0.0473758381877	3	0
15 fourier 1	1.163809172478	2	180
16 fourier 1	0.1679186987369	1	180
17 fourier 1	2.687457892086	2	180
18 fourier 1	2.772607909663	2	180
19 fourier 1	0.09692684957115	1	0


Improper Coeffs

1 0.3666666666666667	-1	2
2 0.3333333333333333	-1	2
3 3.5	-1	2


Atoms

1	1	1	-0.41098601	4.9860001	-0.52600002	0.233
2	1	2	0.152439	3.575	-0.30000001	0.182
3	1	2	-0.410032	2.9449999	0.296	1.204
4	1	3	0.228278	3.497	0.61500001	2.0799999
5	1	2	-0.093243003	1.4910001	0.53500003	1.1440001
6	1	3	0.208543	1.0089999	1.038	1.974
7	1	2	-0.17402101	0.77999997	0.152	0.07
8	1	2	-0.17402101	-0.67299998	0.428	0.026000001
9	1	2	-0.107716	-1.142	1.349	-0.833
10	1	3	0.208543	-0.46799999	1.8839999	-1.4910001
11	1	2	-0.384321	-2.582	1.664	-0.88
12	1	3	0.22449701	-2.9360001	2.411	-1.581
13	1	2	0.228341	-3.438	1.039	-0.059999999
14	1	1	-0.52933401	-4.8340001	1.347	-0.097000003
15	1	4	0.32294601	-5.5009999	0.85900003	0.54100001
16	1	2	-0.448576	-2.9319999	0.021	0.889
17	1	3	0.220505	-3.6340001	-0.47600001	1.5470001
18	1	2	0.011517	-1.624	-0.292	0.92699999
19	1	5	-0.147919	-1.13	-1.3329999	1.895
20	1	6	0.103073	-1.9529999	-1.9960001	2.2360001
21	1	6	0.103073	-0.36199999	-1.973	1.4119999
22	1	6	0.103073	-0.68400002	-0.833	2.7809999
23	1	2	0.027062001	1.47	-0.53600001	-1.063
24	1	5	-0.147919	0.70099998	-0.98299998	-2.2780001
25	1	6	0.103073	-0.26800001	-1.431	-1.974
26	1	6	0.103073	1.26	-1.75	-2.855
27	1	6	0.103073	0.50999999	-0.11	-2.9360001
28	1	2	-0.46408901	2.8010001	-0.72799999	-1.006
29	1	3	0.223279	3.323	-1.207	-1.825
30	1	4	0.37705901	5.5500002	-0.23199999	1.061
31	1	2	0.75216597	-5.2189999	2.0739999	-0.77200001
32	1	7	-0.656124	-4.408	2.8199999	-1.38
33	1	2	-0.27521399	-6.6729999	2.138	-1.036
34	1	2	0.021469001	-7.4029999	1.029	-0.815
35	1	3	0.241216	-6.934	0.146	-0.39500001
36	1	2	-0.37879899	-8.8330002	0.963	-1.198
37	1	2	0.83260602	-9.5930004	-0.29300001	-0.98100001
38	1	7	-0.587731	-8.9759998	-1.391	-1.048
39	1	2	-0.37945801	-11.047	-0.31200001	-0.68699998
40	1	2	-0.105132	-11.631	0.66900003	0.018999999
41	1	3	0.223893	-11.053	1.501	0.40099999
42	1	2	-0.096196003	-13.068	0.60900003	0.336
43	1	3	0.229101	-13.49	1.4	0.94599998
44	1	2	-0.17328399	-13.822	-0.433	-0.061000001
45	1	2	0.79031199	-15.232	-0.50700003	0.38600001
46	1	7	-0.50267297	-15.902	0.55299997	0.53399998
47	1	8	-0.495065	-15.806	-1.7460001	0.69
48	1	5	0.14069299	-17.150999	-1.882	1.13
49	1	9	0.094342999	-17.298	-1.327	2.0810001
50	1	9	0.094342999	-17.844999	-1.4910001	0.35600001
51	1	9	0.094342999	-17.372	-2.9549999	1.302
52	1	2	-0.21149901	-13.192	-1.515	-0.88700002
53	1	2	0.57939899	-14.007	-2.596	-1.488
54	1	7	-0.520096	-13.468	-3.6199999	-1.9859999
55	1	2	0.064713001	-11.871	-1.454	-1.151
56	1	3	0.236396	-11.399	-2.2160001	-1.76
57	1	2	-0.105132	-9.3940001	2.02	-1.807
58	1	3	0.223893	-10.421	1.987	-2.1500001
59	1	2	-0.115974	-8.625	3.2609999	-2.0109999
60	1	3	0.229101	-9.1400003	4.118	-2.4289999
61	1	2	-0.18891799	-7.342	3.3499999	-1.618
62	1	2	0.77858299	-6.671	4.6669998	-1.6950001
63	1	7	-0.50267297	-5.8449998	5.0100002	-0.80500001
64	1	8	-0.495065	-6.9990001	5.552	-2.7279999
65	1	5	0.14069299	-6.4109998	6.842	-2.849
66	1	9	0.094342999	-5.3099999	6.7470002	-2.967
67	1	9	0.094342999	-6.6409998	7.4510002	-1.949
68	1	9	0.094342999	-6.8270001	7.3499999	-3.743
69	1	1	-0.41098601	5.4770002	-0.991	-0.56300002
70	1	2	0.152438	4.7979999	-1.217	-1.801
71	1	2	-0.410032	5.428	-1.813	-2.823
72	1	3	0.228278	6.4590001	-2.132	-2.724
73	1	2	-0.093243003	4.7210002	-2.052	-4.0949998
74	1	3	0.208543	5.2459998	-2.556	-4.8990002
75	1	2	-0.17402101	3.4419999	-1.669	-4.2480001
76	1	2	-0.17402101	2.7509999	-1.9450001	-5.526
77	1	2	-0.059951998	1.773	-2.8659999	-5.5599999
78	1	3	0.208543	1.487	-3.401	-4.6620002
79	1	2	-0.44987699	1.0829999	-3.181	-6.8260002
80	1	3	0.237077	0.29899999	-3.928	-6.8270001
81	1	2	0.346167	1.432	-2.556	-7.9590001
82	1	1	-0.84385997	0.77200001	-2.8640001	-9.1890001
83	1	4	0.37261999	0.0099999998	-3.5780001	-9.2290001
84	1	4	0.37261999	1.043	-2.3759999	-10.072
85	1	2	-0.51507401	2.507	-1.538	-7.9330001
86	1	3	0.22695	2.78	-1.041	-8.8559999
87	1	2	0.069459997	3.128	-1.225	-6.7810001
88	1	5	-0.147919	4.2160001	-0.184	-6.7740002
89	1	6	0.103073	4.151	0.479	-7.664
90	1	6	0.103073	4.1290002	0.456	-5.8720002
91	1	6	0.103073	5.2069998	-0.68400002	-6.7740002
92	1	2	0.027062001	2.74	-0.98100001	-3.1229999
93	1	5	-0.147919	1.309	-0.53399998	-3.2639999
94	1	6	0.103073	1.145	-0.086000003	-4.2659998
95	1	6	0.103073	1.044	0.233	-2.506
96	1	6	0.103073	0.63499999	-1.4069999	-3.1400001
97	1	2	-0.46408901	3.3889999	-0.78899997	-1.959
98	1	3	0.223279	2.891	-0.31	-1.125
99	1	4	0.37705901	6.4710002	-1.285	-0.43099999
100	1	2	0.57939899	-15.084	-2.5150001	-1.527
101	1	7	-0.520096	-15.77	-3.402	-0.95200002
102	1	2	-0.21149901	-15.73	-1.401	-2.26
103	1	2	0.064713001	-17.032	-1.494	-2.5969999
104	1	3	0.236396	-17.618	-2.3510001	-2.2850001
105	1	2	-0.37945801	-17.683001	-0.46200001	-3.4389999
106	1	2	0.83260602	-19.108999	-0.61400002	-3.8139999
107	1	7	-0.587731	-19.580999	-1.778	-3.9430001
108	1	2	-0.37790501	-20.000999	0.55199999	-4.0320001
109	1	2	-0.105132	-21.030001	0.47099999	-4.8889999
110	1	3	0.223893	-21.209	-0.43399999	-5.4580002
111	1	2	-0.105264	-21.906	1.6339999	-5.1209998
112	1	3	0.229101	-22.671	1.552	-5.8839998
113	1	2	-0.205841	-21.705999	2.7909999	-4.4640002
114	1	2	0.778234	-22.506001	3.974	-4.8540001
115	1	7	-0.50267297	-22.002001	5.1290002	-4.7859998
116	1	8	-0.495065	-23.805	3.803	-5.3449998
117	1	5	0.14069299	-24.620001	4.895	-5.7550001
118	1	9	0.094342999	-25.601	4.5079999	-6.0999999
119	1	9	0.094342999	-24.785999	5.586	-4.901
120	1	9	0.094342999	-24.132999	5.4400001	-6.5910001
121	1	2	-0.128133	-20.625999	2.8610001	-3.425
122	1	2	0.80542302	-20.493	4.02	-2.5120001
123	1	7	-0.477079	-19.364	4.3379998	-2.049
124	1	10	-0.66235602	-21.618	4.7389998	-2.1199999
125	1	11	0.42236701	-21.538	5.5250001	-1.4859999
126	1	2	0.021454999	-19.812	1.801	-3.2520001
127	1	3	0.248175	-19.049999	1.823	-2.483
128	1	2	-0.105132	-16.945999	0.56	-3.9030001
129	1	3	0.223893	-17.375999	1.303	-4.5630002
130	1	2	-0.096196003	-15.53	0.69499999	-3.52
131	1	3	0.229101	-14.989	1.569	-3.8640001
132	1	2	-0.17328399	-14.941	-0.20999999	-2.7160001
133	1	2	0.79031199	-13.553	0.033	-2.2609999
134	1	7	-0.50267297	-12.735	0.62300003	-3.0209999
135	1	8	-0.495065	-13.163	-0.347	-0.97299999
136	1	5	0.14069299	-11.847	-0.13500001	-0.47499999
137	1	9	0.094342999	-11.784	-0.52200001	0.56300002
138	1	9	0.094342999	-11.613	0.95099998	-0.46900001
139	1	9	0.094342999	-11.11	-0.67400002	-1.1059999

Bonds

1	1	1	2
2	2	1	30
3	3	1	69
4	4	2	3
5	4	2	28
6	5	3	4
7	4	3	5
8	5	5	6
9	4	5	7
10	6	7	8
11	4	7	23
12	4	8	9
13	4	8	18
14	5	9	10
15	4	9	11
16	5	11	12
17	4	11	13
18	1	13	14
19	4	13	16
20	2	14	15
21	7	14	31
22	5	16	17
23	4	16	18
24	8	18	19
25	9	19	20
26	9	19	21
27	9	19	22
28	8	23	24
29	4	23	28
30	9	24	25
31	9	24	26
32	9	24	27
33	5	28	29
34	10	31	32
35	6	31	33
36	4	33	34
37	4	33	61
38	5	34	35
39	4	34	36
40	6	36	37
41	4	36	57
42	10	37	38
43	6	37	39
44	4	39	40
45	4	39	55
46	5	40	41
47	4	40	42
48	5	42	43
49	4	42	44
50	6	44	45
51	4	44	52
52	10	45	46
53	11	45	47
54	12	47	48
55	9	48	49
56	9	48	50
57	9	48	51
58	6	52	53
59	4	52	55
60	10	53	54
61	6	53	100
62	5	55	56
63	5	57	58
64	4	57	59
65	5	59	60
66	4	59	61
67	6	61	62
68	10	62	63
69	11	62	64
70	12	64	65
71	9	65	66
72	9	65	67
73	9	65	68
74	1	69	70
75	2	69	99
76	4	70	71
77	4	70	97
78	5	71	72
79	4	71	73
80	5	73	74
81	4	73	75
82	6	75	76
83	4	75	92
84	4	76	77
85	4	76	87
86	5	77	78
87	4	77	79
88	5	79	80
89	4	79	81
90	1	81	82
91	4	81	85
92	2	82	83
93	2	82	84
94	5	85	86
95	4	85	87
96	8	87	88
97	9	88	89
98	9	88	90
99	9	88	91
100	8	92	93
101	4	92	97
102	9	93	94
103	9	93	95
104	9	93	96
105	5	97	98
106	10	100	101
107	6	100	102
108	4	102	103
109	4	102	132
110	5	103	104
111	4	103	105
112	6	105	106
113	4	105	128
114	10	106	107
115	6	106	108
116	4	108	109
117	4	108	126
118	5	109	110
119	4	109	111
120	5	111	112
121	4	111	113
122	6	113	114
123	4	113	121
124	10	114	115
125	11	114	116
126	12	116	117
127	9	117	118
128	9	117	119
129	9	117	120
130	6	121	122
131	4	121	126
132	10	122	123
133	13	122	124
134	14	124	125
135	5	126	127
136	5	128	129
137	4	128	130
138	5	130	131
139	4	130	132
140	6	132	133
141	10	133	134
142	11	133	135
143	12	135	136
144	9	136	137
145	9	136	138
146	9	136	139

Angles

1	1	106	108	126
2	1	76	87	85
3	1	100	102	103
4	6	119	117	120
5	1	9	11	13
6	1	45	44	52
7	1	102	132	133
8	1	101	100	102
9	4	39	55	56
10	4	86	85	87
11	1	82	81	85
12	1	132	133	135
13	5	135	136	138
14	1	111	113	121
15	1	34	33	61
16	3	70	69	99
17	4	3	5	6
18	4	57	59	60
19	1	75	92	93
20	4	70	97	98
21	1	16	18	19
22	1	76	75	92
23	4	74	73	75
24	6	118	117	120
25	1	1	2	28
26	7	122	124	125
27	1	31	33	61
28	4	104	103	105
29	4	112	111	113
30	3	81	82	83
31	8	115	114	116
32	4	131	130	132
33	1	14	13	16
34	1	69	70	97
35	1	44	52	55
36	1	7	23	24
37	5	23	24	25
38	1	85	87	88
39	1	121	122	124
40	1	3	5	7
41	1	52	53	100
42	1	42	44	45
43	5	64	65	67
44	4	6	5	7
45	1	32	31	33
46	4	35	34	36
47	4	76	77	78
48	1	54	53	100
49	6	20	19	21
50	4	10	9	11
51	1	102	132	130
52	1	105	106	107
53	1	11	13	16
54	1	31	33	34
55	1	34	36	37
56	5	18	19	20
57	1	102	103	105
58	7	133	135	136
59	4	70	71	72
60	6	95	93	96
61	8	123	122	124
62	3	81	82	84
63	6	25	24	27
64	1	44	52	53
65	5	23	24	26
66	7	45	47	48
67	1	3	2	28
68	1	38	37	39
69	1	44	45	47
70	6	67	65	68
71	1	75	92	97
72	1	75	76	87
73	5	64	65	68
74	1	111	113	114
75	8	46	45	47
76	5	87	88	89
77	3	2	1	30
78	2	2	1	69
79	1	105	106	108
80	1	8	18	19
81	4	58	57	59
82	4	92	97	98
83	5	116	117	119
84	1	70	71	73
85	5	92	93	95
86	1	61	62	64
87	1	13	16	18
88	1	34	36	57
89	1	103	102	132
90	1	108	126	121
91	4	40	42	43
92	4	8	9	10
93	1	7	23	28
94	1	36	37	39
95	1	39	40	42
96	6	49	48	50
97	1	36	57	59
98	1	52	53	54
99	4	71	73	74
100	4	17	16	18
101	1	40	39	55
102	1	53	100	101
103	1	103	105	106
104	1	8	9	11
105	4	72	71	73
106	1	113	114	115
107	5	116	117	120
108	5	135	136	139
109	4	4	3	5
110	1	57	59	61
111	4	2	28	29
112	4	129	128	130
113	4	23	28	29
114	4	108	109	110
115	3	83	82	84
116	1	59	61	62
117	7	62	64	65
118	4	121	126	127
119	6	49	48	51
120	1	93	92	97
121	1	106	105	128
122	5	47	48	49
123	1	114	113	121
124	1	69	70	71
125	4	109	111	112
126	1	5	7	8
127	1	107	106	108
128	1	113	114	116
129	6	50	48	51
130	4	2	3	4
131	3	13	14	15
132	4	52	55	56
133	1	7	8	9
134	1	14	31	32
135	4	77	79	80
136	4	128	130	131
137	1	76	77	79
138	6	137	136	138
139	1	122	121	126
140	2	13	14	31
141	6	20	19	22
142	4	78	77	79
143	6	26	24	27
144	6	94	93	95
145	5	18	19	21
146	5	47	48	50
147	1	76	87	88
148	4	41	40	42
149	1	109	111	113
150	1	130	132	133
151	1	109	108	126
152	1	7	8	18
153	1	2	3	5
154	5	23	24	27
155	3	15	14	31
156	1	121	122	123
157	1	14	31	33
158	1	128	130	132
159	5	87	88	90
160	6	137	136	139
161	4	9	11	12
162	1	70	97	92
163	4	43	42	44
164	1	39	55	52
165	5	18	19	22
166	4	105	128	129
167	2	1	69	70
168	1	113	121	126
169	5	92	93	96
170	4	12	11	13
171	1	33	61	62
172	4	110	109	111
173	1	8	18	16
174	1	40	42	44
175	1	11	13	14
176	4	39	40	41
177	6	118	117	119
178	1	1	2	3
179	1	71	73	75
180	1	71	70	97
181	5	87	88	91
182	1	53	100	102
183	1	113	121	122
184	1	2	28	23
185	4	108	126	127
186	7	114	116	117
187	1	37	39	40
188	1	79	81	85
189	1	73	75	76
190	1	53	52	55
191	6	66	65	67
192	1	105	128	130
193	1	8	7	23
194	5	64	65	66
195	1	73	75	92
196	1	108	109	111
197	4	33	34	35
198	1	103	105	128
199	4	102	103	104
200	4	81	85	86
201	1	33	61	59
202	1	37	39	55
203	6	25	24	26
204	1	77	76	87
205	6	21	19	22
206	6	89	88	90
207	1	106	108	109
208	6	66	65	68
209	4	80	79	81
210	1	37	36	57
211	1	44	45	46
212	1	77	79	81
213	3	1	69	99
214	1	24	23	28
215	1	9	8	18
216	1	75	76	77
217	8	134	133	135
218	6	94	93	96
219	1	79	81	82
220	5	116	117	118
221	1	33	34	36
222	1	132	133	134
223	5	135	136	137
224	1	42	44	52
225	5	47	48	51
226	6	90	88	91
227	1	81	85	87
228	3	30	1	69
229	5	92	93	94
230	1	61	62	63
231	4	13	16	17
232	6	138	136	139
233	6	89	88	91
234	4	60	59	61
235	8	63	62	64
236	1	5	7	23
237	1	36	37	38
238	1	100	102	132
239	4	36	57	58

Dihedrals

1	1	14	13	16	18
2	10	33	61	62	64
3	1	7	23	28	29
4	1	31	33	34	35
5	1	7	8	18	16
6	1	106	108	126	127
7	1	111	113	121	126
8	14	114	116	117	120
9	1	111	109	108	126
10	1	104	103	102	132
11	1	106	108	109	111
12	1	5	7	23	28
13	1	4	3	2	28
14	1	103	105	128	130
15	1	35	34	33	61
16	1	17	16	18	19
17	14	62	64	65	66
18	5	76	87	88	91
19	1	40	42	44	45
20	1	41	40	39	55
21	1	69	70	97	98
22	1	71	70	97	92
23	1	2	3	5	7
24	1	45	44	52	53
25	10	113	121	122	123
26	10	54	53	100	101
27	1	12	11	13	14
28	10	34	36	37	39
29	1	34	33	61	62
30	2	83	82	81	85
31	1	77	76	87	88
32	1	1	2	3	4
33	10	36	37	39	55
34	5	94	93	92	97
35	1	129	128	130	132
36	10	54	53	52	55
37	1	8	7	23	24
38	5	16	18	19	20
39	3	30	1	69	70
40	10	101	100	102	132
41	10	111	113	114	115
42	1	41	40	42	44
43	1	40	39	55	52
44	5	85	87	88	91
45	1	3	5	7	23
46	1	102	132	130	131
47	1	37	39	40	41
48	4	73	75	76	77
49	1	74	73	75	76
50	1	39	55	52	44
51	10	130	132	133	134
52	1	81	85	87	88
53	2	28	2	1	30
54	11	15	14	31	32
54	12	15	14	31	32
55	1	33	61	59	60
56	1	113	121	126	127
57	1	14	13	16	17
58	1	71	70	97	98
59	1	8	7	23	28
60	5	7	23	24	27
61	10	38	37	39	40
62	14	114	116	117	119
63	6	13	14	31	32
63	7	13	14	31	32
64	10	39	37	36	57
65	10	105	106	108	109
66	10	46	45	44	52
67	1	103	105	128	129
68	1	77	76	87	85
69	1	102	103	105	106
70	10	52	53	100	102
71	10	38	37	36	57
72	5	76	87	88	90
73	1	60	59	61	62
74	1	78	77	76	87
75	1	73	71	70	97
76	5	8	18	19	21
77	1	7	8	18	19
78	1	40	39	55	56
79	10	123	122	121	126
80	1	1	2	28	23
81	1	42	44	52	53
82	1	4	3	5	6
83	1	108	126	121	113
84	10	116	114	113	121
85	10	103	105	106	108
86	10	115	114	113	121
87	15	46	45	47	48
87	16	46	45	47	48
88	1	80	79	81	82
89	2	3	2	1	69
90	5	75	92	93	94
91	1	93	92	97	98
92	13	132	133	135	136
93	1	33	61	59	57
94	10	59	61	62	64
95	1	9	11	13	14
96	1	129	128	130	131
97	13	61	62	64	65
98	10	124	122	121	126
99	1	111	113	121	122
100	10	105	106	108	126
101	5	95	93	92	97
102	5	85	87	88	90
103	5	26	24	23	28
104	1	8	9	11	12
105	4	73	75	76	87
106	14	133	135	136	139
107	1	106	105	128	129
108	1	5	7	23	24
109	1	37	36	57	59
110	1	36	57	59	60
111	1	44	52	55	56
112	10	32	31	33	34
113	1	105	103	102	132
114	1	78	77	79	80
115	5	7	23	24	26
116	1	104	103	105	128
117	1	1	2	28	29
118	10	36	37	39	40
119	10	44	52	53	54
120	4	5	7	8	18
121	1	70	71	73	75
122	1	43	42	44	52
123	14	45	47	48	51
124	10	52	53	100	101
125	5	25	24	23	28
126	2	84	82	81	85
127	1	33	34	36	37
128	1	76	77	79	81
129	1	8	18	16	13
130	5	8	18	19	20
131	4	5	7	8	9
132	1	58	57	59	61
133	1	74	73	75	92
134	1	33	34	36	57
135	1	43	42	44	45
136	1	103	102	132	130
137	14	62	64	65	68
138	1	70	97	92	93
139	1	71	73	75	76
140	1	76	87	85	86
141	1	108	109	111	112
142	1	7	8	9	10
143	15	134	133	135	136
143	16	134	133	135	136
144	10	59	61	62	63
145	1	8	18	16	17
146	3	2	1	69	99
147	10	53	100	102	132
148	1	100	102	103	105
149	1	109	111	113	121
150	1	12	11	13	16
151	14	133	135	136	138
152	10	102	132	133	134
153	1	10	9	11	12
154	1	39	55	52	53
155	13	113	114	116	117
156	1	31	33	61	59
157	1	6	5	7	8
158	1	80	79	81	85
159	1	37	39	55	56
160	1	75	92	97	98
161	1	75	76	77	79
162	1	39	40	42	44
163	1	45	44	52	55
164	10	33	61	62	63
165	1	82	81	85	87
166	5	16	18	19	22
167	10	55	52	53	100
168	18	123	122	124	125
168	19	123	122	124	125
169	4	87	76	75	92
170	1	109	111	113	114
171	1	106	108	109	110
172	14	45	47	48	50
173	10	53	100	102	103
174	1	79	81	85	87
175	1	76	75	92	97
176	1	76	77	79	80
177	1	11	9	8	18
178	1	114	113	121	122
179	10	108	106	105	128
180	1	2	3	5	6
181	1	108	126	121	122
182	1	13	16	18	19
183	1	3	2	28	23
184	10	107	106	105	128
185	10	34	36	37	38
186	1	102	103	105	128
187	15	115	114	116	117
187	16	115	114	116	117
188	10	107	106	108	126
189	10	47	45	44	52
190	14	62	64	65	67
191	2	79	81	82	84
192	1	114	113	121	126
193	1	5	3	2	28
194	10	42	44	45	47
195	1	41	40	42	43
196	4	9	8	7	23
197	5	96	93	92	97
198	1	100	102	103	104
199	10	54	53	100	102
200	1	131	130	132	133
201	10	32	31	33	61
202	1	103	102	132	133
203	1	1	2	3	5
204	5	75	92	93	96
205	10	38	37	39	55
206	1	75	76	77	78
207	1	72	71	73	75
208	1	39	40	42	43
209	1	9	11	13	16
210	1	82	81	85	86
211	1	42	44	52	55
212	1	69	70	97	92
213	1	24	23	28	29
214	10	111	113	114	116
215	14	114	116	117	118
216	1	104	103	105	106
217	1	11	13	16	18
218	2	28	2	1	69
219	1	122	121	126	127
220	2	71	70	69	99
221	1	105	128	130	132
222	1	31	33	61	62
223	1	71	73	75	92
224	10	130	132	133	135
225	8	15	14	31	33
225	9	15	14	31	33
226	5	76	87	88	89
227	1	109	108	126	121
228	1	100	102	132	130
229	1	37	39	55	52
230	10	14	31	33	61
231	1	2	28	23	24
232	2	11	13	14	15
233	1	57	59	61	62
234	4	18	8	7	23
235	8	13	14	31	33
235	9	13	14	31	33
236	10	103	105	106	107
237	10	14	31	33	34
238	1	36	34	33	61
239	1	34	36	57	59
240	3	30	1	69	99
241	2	79	81	82	83
242	5	8	18	19	22
243	10	42	44	45	46
244	2	3	2	1	30
245	1	3	5	7	8
246	1	4	3	5	7
247	5	85	87	88	89
248	2	1	69	70	71
249	1	9	8	18	16
250	13	44	45	47	48
251	1	37	36	57	58
252	1	75	76	87	85
253	1	110	109	108	126
254	1	76	75	92	93
255	10	44	52	53	100
256	1	86	85	87	88
257	10	107	106	108	109
258	1	110	109	111	113
259	5	75	92	93	95
260	1	109	108	126	127
261	1	70	97	92	75
262	1	72	71	73	74
263	1	128	130	132	133
264	5	7	23	24	25
265	2	15	14	13	16
266	1	73	75	92	93
267	1	11	13	16	17
268	3	2	1	69	70
269	1	8	9	11	13
270	1	69	70	71	73
271	1	106	105	128	130
272	1	70	71	73	74
273	1	105	128	130	131
274	15	63	62	64	65
274	16	63	62	64	65
275	1	6	5	7	23
276	1	36	57	59	61
277	1	77	79	81	85
278	1	76	87	85	81
279	1	78	77	79	81
280	1	31	33	34	36
281	2	1	69	70	97
282	1	73	75	92	97
283	1	58	57	59	60
284	10	101	100	102	103
285	1	34	33	61	59
286	1	34	36	57	58
287	4	77	76	75	92
288	1	72	71	70	97
289	1	112	111	113	121
290	1	79	77	76	87
291	1	100	102	132	133
292	1	10	9	8	18
293	1	106	108	126	121
294	17	121	122	124	125
295	10	113	121	122	124
296	1	102	132	130	128
297	14	133	135	136	137
298	5	27	24	23	28
299	1	112	111	113	114
300	1	35	34	36	37
301	1	110	109	111	112
302	1	108	109	111	113
303	1	77	79	81	82
304	2	16	13	14	31
305	2	11	13	14	31
306	1	53	52	55	56
307	1	2	28	23	7
308	5	16	18	19	21
309	1	3	2	28	29
310	1	69	70	71	72
311	1	37	39	40	42
312	10	102	132	133	135
313	1	9	8	18	19
314	1	10	9	11	13
315	1	35	34	36	57
316	1	42	40	39	55
317	14	45	47	48	49
318	2	97	70	69	99
319	1	75	76	87	88
320	1	79	81	85	86
321	1	40	42	44	52
322	1	7	8	9	11

Impropers

2	1	126	121	127	108
3	2	14	31	13	15
8	1	102	100	103	132
12	1	106	108	105	107
15	2	1	69	2	30
16	3	122	121	123	124
24	1	126	127	108	121
26	1	76	77	87	75
28	1	39	55	37	40
31	1	40	42	39	41
32	1	3	4	5	2
35	1	7	23	5	8
36	1	33	34	61	31
37	1	71	72	73	70
39	1	13	14	16	11
41	1	92	93	97	75
44	3	122	124	121	123
46	1	36	34	37	57
49	1	92	97	75	93
54	1	121	122	126	113
62	3	133	135	132	134
66	1	106	107	108	105
71	3	133	132	134	135
75	1	37	38	39	36
77	1	97	98	70	92
79	1	2	28	1	3
82	1	13	16	11	14
88	1	73	71	74	75
93	1	105	128	103	106
94	1	92	75	93	97
97	1	42	40	43	44
99	1	57	59	36	58
103	1	8	18	7	9
110	1	108	126	106	109
115	1	70	97	69	71
118	1	55	56	39	52
119	1	34	35	36	33
120	1	109	110	111	108
122	1	109	108	110	111
123	1	34	33	35	36
129	1	52	44	53	55
133	1	113	111	114	121
135	2	69	1	70	99
139	3	114	113	115	116
140	1	128	129	130	105
141	1	18	19	8	16
142	1	61	59	62	33
150	1	105	106	128	103
156	1	34	36	33	35
157	1	108	109	126	106
159	1	28	2	23	29
160	1	3	2	4	5
161	1	111	109	112	113
162	1	16	18	13	17
164	1	121	113	122	126
165	1	103	104	105	102
171	1	100	53	101	102
176	1	52	55	44	53
178	1	87	88	76	85
180	1	23	24	28	7
182	1	9	11	8	10
184	1	31	32	33	14
185	1	5	7	3	6
191	2	82	81	83	84
192	2	69	70	99	1
194	1	16	13	17	18
195	1	106	105	107	108
196	1	130	131	132	128
204	1	103	102	104	105
207	1	97	92	98	70
209	1	11	9	12	13
210	1	39	37	40	55
211	3	62	61	63	64
213	1	44	45	52	42
218	1	52	53	55	44
222	1	111	113	109	112
224	1	87	85	88	76
227	1	61	62	33	59
229	2	82	83	84	81
230	1	100	102	53	101
236	1	57	36	58	59
238	1	81	79	82	85
241	1	53	54	100	52
245	1	59	57	60	61
246	1	53	100	52	54
253	1	37	36	38	39
259	2	69	99	1	70
267	1	33	31	34	61
271	3	45	47	44	46
278	1	130	132	128	131
285	1	132	102	130	133
289	3	45	46	47	44
296	1	113	121	111	114
297	1	5	3	6	7
300	2	1	30	69	2
301	1	13	11	14	16
306	1	81	85	79	82
308	1	105	103	106	128
309	1	70	69	71	97
311	1	40	41	42	39
315	1	73	74	75	71
317	1	85	87	81	86
319	3	45	44	46	47
322	1	31	14	32	33
332	1	77	79	76	78
333	1	28	23	29	2
337	1	77	78	79	76
340	1	71	70	72	73
341	1	59	61	57	60
344	1	28	29	2	23
346	1	128	130	105	129
352	1	102	132	100	103
356	1	59	60	61	57
357	1	102	103	132	100
359	1	77	76	78	79
366	1	71	73	70	72
374	1	37	39	36	38
375	1	79	80	81	77
378	1	111	112	113	109
380	2	14	15	31	13
381	1	100	101	102	53
382	1	36	37	57	34
383	3	133	134	135	132
384	1	132	130	133	102
385	1	81	82	85	79
386	1	23	7	24	28
390	1	55	39	52	56
391	1	79	81	77	80
393	1	31	33	14	32
394	1	39	40	55	37
397	1	9	8	10	11
404	1	11	13	9	12
405	1	79	77	80	81
409	1	40	39	41	42
411	1	5	6	7	3
414	3	122	123	124	121
416	3	62	64	61	63
418	1	9	10	11	8
420	1	108	106	109	126
421	1	109	111	108	110
423	1	76	87	75	77
431	3	62	63	64	61
432	1	57	58	59	36
436	1	75	76	92	73
438	1	87	76	85	88
445	1	18	8	16	19
453	1	126	108	121	127
458	1	8	9	18	7
465	3	114	116	113	115
467	1	42	43	44	40
468	3	114	115	116	113
469	1	2	1	3	28
472	1	85	86	87	81
474	1	61	33	59	62
477	1	44	52	42	45
482	1	23	28	7	24
483	1	113	114	121	111
484	1	44	42	45	52
486	1	70	71	97	69
488	1	3	5	2	4
489	1	11	12	13	9
491	1	75	73	76	92
497	1	75	92	73	76
499	1	55	52	56	39
501	1	36	57	34	37
512	1	128	105	129	130
514	1	33	61	31	34
515	1	103	105	102	104
519	1	7	5	8	23
520	2	1	2	30	69
522	1	42	44	40	43
524	1	132	133	102	130
529	1	16	17	18	13
530	1	53	52	54	100
531	1	8	7	9	18
532	1	76	75	77	87
537	1	18	16	19	8
541	1	130	128	131	132
544	1	7	8	23	5
551	1	2	3	28	1
553	1	121	126	113	122
556	1	97	70	92	98
558	2	14	13	15	31
561	1	85	81	86	87
562	1	73	75	71	74
563	2	82	84	81	83
