Title

846 atoms
845 bonds
1634 angles
3036 dihedrals
102 impropers

11 atom types
14 bond types
9 angle types
35 dihedral types
3 improper types
-79.95800018 20.04199982 xlo xhi
-52.23699951 47.76300049 ylo yhi
-4.379000187 95.62099981 zlo zhi
0.0 0.0 0.0 xy xz yz

Masses

1	15.99943
2	12.01078
3	14.00672
4	12.01078
5	1.007947
6	1.007947
7	1.007947
8	15.99943
9	12.01078
10	15.99943
11	1.007947


Pair Coeffs

1	0.2102061	3.0398122
2	0.086879315	3.4806469
3	0.16769152	3.206876
4	0.10884061	3.3795318
5	0.014090815	1.1034277
6	0.016409246	2.5832257
7	0.015779483	2.6445434
8	0.16846514	3.0251065
9	0.21	3.3996695
10	0.20947353	2.99716
11	1.2326e-05	0.53453923

Bond Coeffs

1 harmonic	582.698766451	1.225198386222
2 harmonic	492.76746816345	1.381897776683
3 harmonic	301.15400723785	1.345741232799
4 harmonic	352.0565580496	1.450098586273
5 harmonic	505.144496193	1.019481865027
6 harmonic	264.62148576755	1.52190126495
7 harmonic	370.04670688625	1.093899492634
8 harmonic	279.1350963404	1.454628925034
9 harmonic	366.7408841747	1.425895053732
10 harmonic	300.03137914615	1.451203938761
11 harmonic	366.34047229585	1.464762957261
12 harmonic	602.81384337	1.196112346392
13 harmonic	329.96998057905	1.427343958716
14 harmonic	543.5267831885	0.9716763312559


Angle Coeffs

1 harmonic	57.8982893754	126.8062420451
2 harmonic	201.41175231035	127.4691416191
3 harmonic	55.42182150775	117.3465570514
4 harmonic	63.44422595415	115.5071327674
5 harmonic	65.09061609600001	110.3538806181
6 harmonic	53.20531626545	116.5475862634
7 harmonic	48.776492647595	115.6030999533
8 harmonic	55.07882548015	112.8714009681
9 harmonic	33.56981613361	180


Dihedral Coeffs

1 fourier 1	1.809047390003	2	180
2 fourier 1	-0.04816277792592	1	0
3 fourier 1	0.4860993122944	2	180
4 fourier 1	0.8916986138746	1	0
5 fourier 1	1.163809172478	2	180
6 fourier 1	0.1679186987369	1	180
7 fourier 1	-0.1488678166443	4	180
8 fourier 1	-0.1230328948768	3	180
9 fourier 1	0.2939295466901	2	0
10 fourier 1	-0.3024127022865	1	0
11 fourier 1	0.182238503271	2	0
12 fourier 1	0.02972342374561	3	0
13 fourier 1	0.1918272375143	3	0
14 fourier 1	0.9202179876409	1	180
15 fourier 1	0.0473758381877	3	0
16 fourier 1	2.779853741805	2	180
17 fourier 1	0.1155372516788	3	0
18 fourier 1	0.09223874044423	3	0
19 fourier 1	0.3159935921949	2	180
20 fourier 1	0.3247796806857	1	180
21 fourier 1	0.1040663847541	3	0
22 fourier 1	3.101948770557	2	180
23 fourier 1	-0.4252153282372	1	0
24 fourier 1	0.9974165607242	2	180
25 fourier 1	2.348375642009	2	180
26 fourier 1	1.256156174911	1	0
27 fourier 1	0.1911926717192	3	0
28 fourier 1	0.1115525666802	3	0
29 fourier 1	0.3432490222662	1	0
30 fourier 1	0.457973137376	1	0
31 fourier 1	-1.382973039546	1	0
32 fourier 1	0	1	0
33 fourier 1	0.3445382149273	3	0
34 fourier 1	0.1364556373303	1	0
35 fourier 1	0.3026390167484	3	0


Improper Coeffs

1 3.5	-1	2
2 0.3333333333333333	-1	2
3 0.3666666666666667	-1	2


Atoms

1	1	1	-0.64043802	-6.296	1.757	-0.35600001
2	1	2	0.779715	-5.802	1.232	0.67799997
3	1	3	-0.47353801	-4.5900002	0.47600001	0.60799998
4	1	4	0.021178	-3.8840001	0.27399999	-0.65799999
5	1	4	-0.14763901	-2.589	-0.52399999	-0.463
6	1	4	-0.144152	-1.507	0.30500001	0.25
7	1	4	-0.14374299	-0.248	-0.51599997	0.574
8	1	4	-0.14374299	0.61699998	-0.78500003	-0.67000002
9	1	4	-0.144152	1.832	-1.683	-0.37200001
10	1	4	-0.14891	2.848	-1.099	0.62699997
11	1	4	0.02713	3.477	0.215	0.146
12	1	3	-0.52886897	4.559	0.63	1.038
13	1	2	0.53759199	5.3109999	1.823	0.79900002
14	1	1	-0.721264	5.0609999	2.5550001	-0.19599999
15	1	5	0.31195	4.803	0.057999998	1.878
16	1	6	0.042252	2.7060001	1.015	0.127
17	1	6	0.042252	3.882	0.079999998	-0.88
18	1	7	0.080022998	3.6570001	-1.85	0.75999999
19	1	7	0.080022998	2.3759999	-0.95200002	1.6210001
20	1	7	0.079051003	1.469	-2.658	0.022
21	1	7	0.079051003	2.355	-1.897	-1.329
22	1	7	0.078317001	0.94800001	0.175	-1.119
23	1	7	0.078317001	0.0070000002	-1.307	-1.436
24	1	7	0.078317001	-0.53500003	-1.476	1.056
25	1	7	0.078317001	0.34799999	0.068000004	1.307
26	1	7	0.079051003	-1.234	1.186	-0.37099999
27	1	7	0.079051003	-1.9170001	0.68900001	1.209
28	1	7	0.080022998	-2.221	-0.82599998	-1.467
29	1	7	0.080022998	-2.8080001	-1.45	0.113
30	1	6	0.045704	-3.652	1.2589999	-1.12
31	1	6	0.045704	-4.5479999	-0.285	-1.353
32	1	5	0.31853801	-4.2280002	0.052000001	1.492
33	1	8	-0.50395298	-0.662	0.78899997	17.423
34	1	4	0.11061	0.69	1.071	17.674
35	1	4	-0.141727	1	2.55	17.42
36	1	4	-0.142671	0.74900001	2.9419999	15.957
37	1	4	-0.143829	1.136	4.408	15.708
38	1	4	-0.142498	0.94700003	4.8260002	14.241
39	1	4	-0.142498	-0.528	5.0560002	13.88
40	1	4	-0.142498	-0.667	5.5430002	12.43
41	1	4	-0.142498	-2.1340001	5.7030001	11.997
42	1	4	-0.142498	-2.7939999	6.9549999	12.601
43	1	4	-0.142498	-4.2470002	7.1469998	12.117
44	1	4	-0.142498	-4.4039998	8.2119999	11.015
45	1	4	-0.142498	-3.7290001	7.8730001	9.6719999
46	1	4	-0.142498	-4.263	6.6069999	8.9759998
47	1	4	-0.142498	-5.7059999	6.7659998	8.4680004
48	1	4	-0.142498	-6.2329998	5.494	7.7820001
49	1	4	-0.142498	-5.5869999	5.2480001	6.4099998
50	1	4	-0.143829	-6.2610002	4.0760002	5.6869998
51	1	4	-0.142671	-5.5879998	3.8050001	4.336
52	1	4	-0.141727	-6.2839999	2.6589999	3.592
53	1	4	0.11061	-5.599	2.3740001	2.256
54	1	8	-0.50395298	-6.283	1.35	1.589
55	1	6	0.076001003	-5.6009998	3.2950001	1.631
56	1	6	0.076001003	-4.5469999	2.0610001	2.4349999
57	1	7	0.083757997	-6.2579999	1.739	4.2160001
58	1	7	0.083757997	-7.348	2.9289999	3.405
59	1	7	0.080021001	-5.6300001	4.7249999	3.7119999
60	1	7	0.080021001	-4.52	3.539	4.5040002
61	1	7	0.078317001	-6.1950002	3.1630001	6.3210001
62	1	7	0.078317001	-7.335	4.3130002	5.5219998
63	1	7	0.078317001	-4.5089998	5.0159998	6.5409999
64	1	7	0.078317001	-5.6799998	6.164	5.7849998
65	1	7	0.078317001	-6.0640001	4.6129999	8.4429998
66	1	7	0.078317001	-7.3319998	5.6069999	7.6469998
67	1	7	0.078317001	-6.3740001	6.9759998	9.3290005
68	1	7	0.078317001	-5.7709999	7.6279998	7.7680001
69	1	7	0.078317001	-3.596	6.4060001	8.1129999
70	1	7	0.078317001	-4.1950002	5.7280002	9.6479998
71	1	7	0.078317001	-2.635	7.7690001	9.8290005
72	1	7	0.078317001	-3.858	8.7379999	8.9860001
73	1	7	0.078317001	-5.4840002	8.4040003	10.851
74	1	7	0.078317001	-3.9790001	9.1709995	11.386
75	1	7	0.078317001	-4.849	7.4970002	12.985
76	1	7	0.078317001	-4.7059999	6.184	11.81
77	1	7	0.078317001	-2.816	6.8429999	13.706
78	1	7	0.078317001	-2.1830001	7.8559999	12.374
79	1	7	0.078317001	-2.7119999	4.7950001	12.277
80	1	7	0.078317001	-2.1489999	5.777	10.891
81	1	7	0.078317001	-0.127	6.506	12.297
82	1	7	0.078317001	-0.191	4.7950001	11.759
83	1	7	0.078317001	-1.095	4.1079998	13.995
84	1	7	0.078317001	-0.954	5.8130002	14.572
85	1	7	0.078317001	1.503	5.776	14.079
86	1	7	0.078317001	1.391	4.059	13.568
87	1	7	0.078317001	0.54699999	5.0770001	16.372
88	1	7	0.078317001	2.21	4.54	15.967
89	1	7	0.080021001	-0.32699999	2.793	15.724
90	1	7	0.080021001	1.35	2.2850001	15.291
91	1	7	0.083757997	0.37099999	3.1760001	18.09
92	1	7	0.083757997	2.0669999	2.7349999	17.674999
93	1	6	0.076001003	0.94599998	0.815	18.726999
94	1	6	0.076001003	1.319	0.43700001	17.011999
95	1	1	-0.64043802	-7.6360002	-1.734	27.489
96	1	2	0.779715	-7.9499998	-2.2279999	26.372999
97	1	3	-0.47353801	-7.8629999	-1.449	25.177
98	1	4	0.021178	-7.4190001	-0.054000001	25.201
99	1	4	-0.14763901	-7.3629999	0.54699999	23.790001
100	1	4	-0.144152	-6.198	-0.030999999	22.968
101	1	4	-0.14374299	-6.2010002	0.458	21.511
102	1	4	-0.14374299	-5.7249999	1.915	21.375
103	1	4	-0.144152	-5.8119998	2.4419999	19.931
104	1	4	-0.14763901	-4.9289999	1.701	18.91
105	1	4	0.021178	-3.4319999	1.784	19.238001
106	1	3	-0.47353801	-2.6300001	1.225	18.149
107	1	2	0.779715	-1.202	1.194	18.211
108	1	1	-0.64043802	-0.58899999	1.652	19.211
109	1	5	0.31853801	-3.0929999	0.82999998	17.299
110	1	6	0.045704	-3.2190001	1.211	20.165001
111	1	6	0.045704	-3.1440001	2.846	19.393999
112	1	7	0.080022998	-5.0999999	2.1700001	17.916
113	1	7	0.080022998	-5.2399998	0.639	18.823999
114	1	7	0.079051003	-6.869	2.3840001	19.591
115	1	7	0.079051003	-5.5320001	3.5179999	19.931
116	1	7	0.078317001	-4.6890001	2.0150001	21.76
117	1	7	0.078317001	-6.3670001	2.5699999	21.999001
118	1	7	0.078317001	-7.2179999	0.345	21.076
119	1	7	0.078317001	-5.513	-0.2	20.940001
120	1	7	0.079051003	-5.2290001	0.227	23.451
121	1	7	0.079051003	-6.276	-1.1390001	22.954
122	1	7	0.080022998	-7.2340002	1.6440001	23.893999
123	1	7	0.080022998	-8.3290005	0.36300001	23.271999
124	1	6	0.045704	-6.4159999	0.013	25.677999
125	1	6	0.045704	-8.132	0.53899997	25.813999
126	1	5	0.31853801	-8.1450005	-1.901	24.278
127	1	8	-0.50395298	-8.1429996	-14.49	13.858
128	1	4	0.11061	-7.191	-14.359	12.835
129	1	4	-0.141727	-5.7789998	-14.644	13.357
130	1	4	-0.142671	-5.3649998	-13.651	14.451
131	1	4	-0.143829	-3.9200001	-13.908	14.907
132	1	4	-0.142498	-3.4489999	-12.901	15.968
133	1	4	-0.142498	-4.039	-13.189	17.357
134	1	4	-0.142498	-3.4860001	-12.207	18.400999
135	1	4	-0.142498	-4.1160002	-12.403	19.790001
136	1	4	-0.142498	-3.5780001	-13.651	20.511
137	1	4	-0.142498	-4.1659999	-13.812	21.929001
138	1	4	-0.142498	-3.2130001	-13.368	23.056
139	1	4	-0.142498	-2.885	-11.863	23.083
140	1	4	-0.142498	-4.0960002	-10.936	23.299999
141	1	4	-0.142498	-4.7010002	-11.06	24.708
142	1	4	-0.142498	-5.915	-10.136	24.912001
143	1	4	-0.142498	-5.5229998	-8.6549997	25.016001
144	1	4	-0.143829	-6.7329998	-7.7909999	25.391001
145	1	4	-0.142671	-6.349	-6.3070002	25.454
146	1	4	-0.141727	-7.5469999	-5.4439998	25.867001
147	1	4	0.11061	-7.1700001	-3.9630001	25.907
148	1	8	-0.50395298	-8.2749996	-3.211	26.323999
149	1	6	0.076001003	-6.3249998	-3.812	26.615
150	1	6	0.076001003	-6.8569999	-3.631	24.893
151	1	7	0.083757997	-8.3780003	-5.5879998	25.142
152	1	7	0.083757997	-7.9000001	-5.757	26.875
153	1	7	0.080021001	-5.527	-6.1700001	26.190001
154	1	7	0.080021001	-5.987	-5.9780002	24.452999
155	1	7	0.078317001	-7.5359998	-7.9320002	24.634001
156	1	7	0.078317001	-7.1220002	-8.1120005	26.382
157	1	7	0.078317001	-5.1220002	-8.3050003	24.041
158	1	7	0.078317001	-4.7329998	-8.5319996	25.789
159	1	7	0.078317001	-6.6389999	-10.278	24.077999
160	1	7	0.078317001	-6.4229999	-10.44	25.854
161	1	7	0.078317001	-5.0510001	-12.101	24.865
162	1	7	0.078317001	-3.927	-10.842	25.476999
163	1	7	0.078317001	-3.7390001	-9.8959999	23.15
164	1	7	0.078317001	-4.8779998	-11.123	22.537001
165	1	7	0.078317001	-2.3759999	-11.582	22.138
166	1	7	0.078317001	-2.1470001	-11.679	23.893
167	1	7	0.078317001	-3.642	-13.673	24.032
168	1	7	0.078317001	-2.2590001	-13.93	22.955999
169	1	7	0.078317001	-4.3649998	-14.894	22.091
170	1	7	0.078317001	-5.1529999	-13.313	22.021
171	1	7	0.078317001	-3.8610001	-14.549	19.922001
172	1	7	0.078317001	-2.467	-13.62	20.549
173	1	7	0.078317001	-5.223	-12.465	19.698
174	1	7	0.078317001	-3.8840001	-11.502	20.392
175	1	7	0.078317001	-2.381	-12.306	18.469999
176	1	7	0.078317001	-3.711	-11.171	18.065001
177	1	7	0.078317001	-5.1440001	-13.091	17.322001
178	1	7	0.078317001	-3.7809999	-14.229	17.648001
179	1	7	0.078317001	-2.3399999	-12.964	16.035
180	1	7	0.078317001	-3.707	-11.867	15.65
181	1	7	0.078317001	-3.822	-14.945	15.298
182	1	7	0.078317001	-3.2490001	-13.818	14.025
183	1	7	0.080021001	-6.0560002	-13.757	15.314
184	1	7	0.080021001	-5.4460001	-12.614	14.057
185	1	7	0.083757997	-5.7389998	-15.682	13.756
186	1	7	0.083757997	-5.0679998	-14.575	12.504
187	1	6	0.076001003	-7.4260001	-15.061	12.001
188	1	6	0.076001003	-7.2389998	-13.326	12.428
189	1	1	-0.64043802	-15.779	-24.347	12.94
190	1	2	0.779715	-16.172001	-23.306999	13.532
191	1	3	-0.47353801	-15.298	-22.583	14.401
192	1	4	0.021178	-13.924	-23.024	14.646
193	1	4	-0.14763901	-13.175	-22.055	15.572
194	1	4	-0.144152	-12.847	-20.728001	14.867
195	1	4	-0.14374299	-12.215	-19.694	15.814
196	1	4	-0.14374299	-10.747	-20.014	16.142
197	1	4	-0.144152	-10.134	-19.035999	17.160999
198	1	4	-0.14763901	-10.065	-17.569	16.700001
199	1	4	0.021178	-9.2049999	-17.372999	15.444
200	1	3	-0.47353801	-9.0240002	-15.951	15.155
201	1	2	0.779715	-8.2510004	-15.506	14.037
202	1	1	-0.64043802	-7.697	-16.333	13.264
203	1	5	0.31853801	-9.4650002	-15.225	15.764
204	1	6	0.045704	-9.6990004	-17.851999	14.572
205	1	6	0.045704	-8.2089996	-17.843	15.598
206	1	7	0.080022998	-9.6199999	-16.976	17.528999
207	1	7	0.080022998	-11.085	-17.167	16.525999
208	1	7	0.079051003	-10.723	-19.083	18.103001
209	1	7	0.079051003	-9.1059999	-19.381001	17.406
210	1	7	0.078317001	-10.142	-20.030001	15.211
211	1	7	0.078317001	-10.683	-21.028999	16.587
212	1	7	0.078317001	-12.811	-19.624001	16.75
213	1	7	0.078317001	-12.264	-18.708	15.306
214	1	7	0.079051003	-12.17	-20.914	14.005
215	1	7	0.079051003	-13.785	-20.289	14.464
216	1	7	0.080022998	-12.232	-22.549	15.888
217	1	7	0.080022998	-13.786	-21.868	16.483
218	1	6	0.045704	-13.38	-23.115	13.68
219	1	6	0.045704	-13.949	-24.027	15.124
220	1	5	0.31853801	-15.676	-21.732	14.876
221	1	8	-0.50395298	-24.136999	-7.7519999	14.805
222	1	4	0.11061	-23.326	-6.6160002	14.662
223	1	4	-0.141727	-22.841999	-6.4629998	13.216
224	1	4	-0.142671	-21.985001	-7.6560001	12.773
225	1	4	-0.143829	-21.450001	-7.447	11.348
226	1	4	-0.142498	-20.542999	-8.599	10.884
227	1	4	-0.142498	-21.337	-9.8570004	10.503
228	1	4	-0.142498	-20.402	-10.956	9.9770002
229	1	4	-0.142498	-21.145	-12.266	9.665
230	1	4	-0.142498	-21.966999	-12.184	8.3669996
231	1	4	-0.142498	-22.662001	-13.518	8.0229998
232	1	4	-0.142498	-21.948	-14.331	6.9260001
233	1	4	-0.142498	-20.551001	-14.86	7.3039999
234	1	4	-0.142498	-20.523001	-15.833	8.4980001
235	1	4	-0.142498	-21.197001	-17.18	8.1879997
236	1	4	-0.142498	-21.171	-18.142	9.3879995
237	1	4	-0.142498	-19.768999	-18.704	9.6689997
238	1	4	-0.143829	-19.816999	-19.785999	10.755
239	1	4	-0.142671	-18.412001	-20.316	11.064
240	1	4	-0.141727	-18.459999	-21.424999	12.121
241	1	4	0.11061	-17.056999	-21.937	12.446
242	1	8	-0.50395298	-17.143	-22.973	13.384
243	1	6	0.076001003	-16.572001	-22.312	11.517
244	1	6	0.076001003	-16.445	-21.108	12.864
245	1	7	0.083757997	-18.927999	-21.034	13.051
246	1	7	0.083757997	-19.077999	-22.271	11.745
247	1	7	0.080021001	-17.955999	-20.716999	10.132
248	1	7	0.080021001	-17.777	-19.48	11.437
249	1	7	0.078317001	-20.261999	-19.358999	11.682
250	1	7	0.078317001	-20.459999	-20.625	10.41
251	1	7	0.078317001	-19.1	-17.885	10.009
252	1	7	0.078317001	-19.349001	-19.142	8.7370005
253	1	7	0.078317001	-21.559	-17.622999	10.294
254	1	7	0.078317001	-21.858999	-18.988001	9.165
255	1	7	0.078317001	-22.261	-17.004999	7.9299998
256	1	7	0.078317001	-20.708	-17.658001	7.3099999
257	1	7	0.078317001	-19.457001	-16.011	8.7460003
258	1	7	0.078317001	-20.992001	-15.375	9.3920002
259	1	7	0.078317001	-19.881001	-14.001	7.5180001
260	1	7	0.078317001	-20.118	-15.371	6.4169998
261	1	7	0.078317001	-22.598	-15.179	6.6259999
262	1	7	0.078317001	-21.846001	-13.693	6.0219998
263	1	7	0.078317001	-23.676001	-13.28	7.6329999
264	1	7	0.078317001	-22.832001	-14.135	8.9309998
265	1	7	0.078317001	-22.756001	-11.413	8.4969997
266	1	7	0.078317001	-21.319	-11.852	7.526
267	1	7	0.078317001	-21.806	-12.538	10.517
268	1	7	0.078317001	-20.384001	-13.066	9.5679998
269	1	7	0.078317001	-19.867001	-10.6	9.0690002
270	1	7	0.078317001	-19.636999	-11.172	10.754
271	1	7	0.078317001	-21.878	-10.243	11.393
272	1	7	0.078317001	-22.08	-9.5900002	9.7220001
273	1	7	0.078317001	-19.976999	-8.2530003	9.9899998
274	1	7	0.078317001	-19.802	-8.8400002	11.678
275	1	7	0.078317001	-22.296	-7.3210001	10.637
276	1	7	0.078317001	-20.851999	-6.5089998	11.327
277	1	7	0.080021001	-22.603001	-8.5780001	12.812
278	1	7	0.080021001	-21.128	-7.7740002	13.473
279	1	7	0.083757997	-23.724001	-6.3629999	12.545
280	1	7	0.083757997	-22.243999	-5.527	13.142
281	1	6	0.076001003	-23.888	-5.7020001	14.963
282	1	6	0.076001003	-22.451	-6.71	15.342
283	1	1	-0.64043802	-36.272999	-5.5279999	16.829
284	1	2	0.779715	-35.751999	-6.5879998	17.267
285	1	3	-0.47353801	-34.814999	-7.3239999	16.476999
286	1	4	0.021178	-34.432999	-6.8860002	15.134
287	1	4	-0.14763901	-33.379002	-7.8130002	14.513
288	1	4	-0.144152	-32.006001	-7.6479998	15.186
289	1	4	-0.14374299	-30.968	-8.6590004	14.671
290	1	4	-0.14374299	-30.448999	-8.3079996	13.266
291	1	4	-0.144152	-29.479	-9.3640003	12.704
292	1	4	-0.14763901	-28.179001	-9.5500002	13.508
293	1	4	0.021178	-27.327999	-8.2749996	13.579
294	1	3	-0.47353801	-26.028999	-8.5509996	14.192
295	1	2	0.779715	-25.048	-7.5240002	14.365
296	1	1	-0.64043802	-25.277	-6.3429999	13.989
297	1	5	0.31853801	-25.792999	-9.5139999	14.523
298	1	6	0.045704	-27.851999	-7.5079999	14.188
299	1	6	0.045704	-27.169001	-7.8759999	12.554
300	1	7	0.080022998	-27.584	-10.344	13.005
301	1	7	0.080022998	-28.403	-9.9139996	14.533
302	1	7	0.079051003	-30.004	-10.342	12.651
303	1	7	0.079051003	-29.216	-9.0810003	11.661
304	1	7	0.078317001	-29.966999	-7.3080001	13.275
305	1	7	0.078317001	-31.306	-8.2480001	12.563
306	1	7	0.078317001	-31.402	-9.6820002	14.675
307	1	7	0.078317001	-30.115	-8.6490002	15.382
308	1	7	0.079051003	-31.631001	-6.612	15.034
309	1	7	0.079051003	-32.116001	-7.803	16.281
310	1	7	0.080022998	-33.296001	-7.559	13.436
311	1	7	0.080022998	-33.723	-8.868	14.591
312	1	6	0.045704	-34.041	-5.8460002	15.175
313	1	6	0.045704	-35.337002	-6.888	14.486
314	1	5	0.31853801	-34.418999	-8.2030001	16.882
315	1	8	-0.50395298	-27.900999	-16.733	29.202
316	1	4	0.11061	-26.5	-16.802	29.146
317	1	4	-0.141727	-25.865999	-15.476	29.579
318	1	4	-0.142671	-26.271999	-14.321	28.653
319	1	4	-0.143829	-25.566999	-13.018	29.059999
320	1	4	-0.142498	-25.908001	-11.846	28.124001
321	1	4	-0.142498	-27.312	-11.278	28.379999
322	1	4	-0.142498	-27.584999	-10.065	27.478001
323	1	4	-0.142498	-29.011999	-9.5170002	27.639
324	1	4	-0.142498	-29.198	-8.7290001	28.947001
325	1	4	-0.142498	-30.614	-8.1280003	29.077999
326	1	4	-0.142498	-30.687	-6.6230001	28.750999
327	1	4	-0.142498	-30.385	-6.2540002	27.285999
328	1	4	-0.142498	-31.351	-6.8569999	26.249001
329	1	4	-0.142498	-32.77	-6.2719998	26.341
330	1	4	-0.142498	-33.729	-6.8860002	25.306999
331	1	4	-0.142498	-33.436001	-6.4190001	23.872999
332	1	4	-0.143829	-34.514999	-6.9130001	22.902
333	1	4	-0.142671	-34.199001	-6.4809999	21.465
334	1	4	-0.141727	-35.296001	-6.9390001	20.497
335	1	4	0.11061	-34.969002	-6.5279999	19.061001
336	1	8	-0.50395298	-36.007	-6.9289999	18.212999
337	1	6	0.076001003	-34.845001	-5.4239998	19.007999
338	1	6	0.076001003	-34.021	-7.0149999	18.740999
339	1	7	0.083757997	-35.396999	-8.0450001	20.544001
340	1	7	0.083757997	-36.266998	-6.4829998	20.792999
341	1	7	0.080021001	-34.112	-5.3730001	21.423
342	1	7	0.080021001	-33.224998	-6.9239998	21.153999
343	1	7	0.078317001	-34.574001	-8.0229998	22.948999
344	1	7	0.078317001	-35.500999	-6.494	23.202999
345	1	7	0.078317001	-32.451	-6.8150001	23.546
346	1	7	0.078317001	-33.398998	-5.3080001	23.844
347	1	7	0.078317001	-33.678001	-7.9970002	25.361
348	1	7	0.078317001	-34.765999	-6.5840001	25.577999
349	1	7	0.078317001	-33.188999	-6.4860001	27.346001
350	1	7	0.078317001	-32.736	-5.1669998	26.215
351	1	7	0.078317001	-30.931999	-6.6329999	25.247
352	1	7	0.078317001	-31.393	-7.961	26.344
353	1	7	0.078317001	-29.347	-6.5599999	27.039
354	1	7	0.078317001	-30.407	-5.1469998	27.191999
355	1	7	0.078317001	-31.690001	-6.243	29.032
356	1	7	0.078317001	-29.965	-6.0840001	29.403
357	1	7	0.078317001	-30.931	-8.2379999	30.138
358	1	7	0.078317001	-31.357	-8.7019997	28.486
359	1	7	0.078317001	-29.042999	-9.4230003	29.801001
360	1	7	0.078317001	-28.426001	-7.9330001	29.025999
361	1	7	0.078317001	-29.746	-10.351	27.589001
362	1	7	0.078317001	-29.212	-8.8500004	26.777
363	1	7	0.078317001	-26.846001	-9.2609997	27.686001
364	1	7	0.078317001	-27.452999	-10.377	26.419001
365	1	7	0.078317001	-28.076	-12.057	28.173
366	1	7	0.078317001	-27.389	-10.977	29.447001
367	1	7	0.078317001	-25.163	-11.039	28.297001
368	1	7	0.078317001	-25.813999	-12.169	27.063999
369	1	7	0.078317001	-25.827999	-12.754	30.108
370	1	7	0.078317001	-24.468	-13.182	29.018999
371	1	7	0.080021001	-27.374001	-14.186	28.707001
372	1	7	0.080021001	-25.997999	-14.575	27.605
373	1	7	0.083757997	-26.174	-15.247	30.622999
374	1	7	0.083757997	-24.76	-15.593	29.563
375	1	6	0.076001003	-26.129999	-17.621	29.805
376	1	6	0.076001003	-26.193001	-17.042	28.106001
377	1	1	-0.64043802	-33.305	-23.471001	38.243
378	1	2	0.779715	-33.938	-23.231001	37.18
379	1	3	-0.47353801	-33.873001	-21.943001	36.563
380	1	4	0.021178	-33.083	-20.855	37.140999
381	1	4	-0.14763901	-33.133999	-19.593	36.27
382	1	4	-0.144152	-32.333	-19.764999	34.966999
383	1	4	-0.14374299	-32.478001	-18.563	34.02
384	1	4	-0.14374299	-31.671	-17.341	34.488998
385	1	4	-0.144152	-31.882	-16.104	33.595001
386	1	4	-0.14763901	-31.429001	-16.268	32.132999
387	1	4	0.021178	-29.929001	-16.562	31.997999
388	1	3	-0.47353801	-29.517	-16.528	30.594999
389	1	2	0.779715	-28.160999	-16.761999	30.205999
390	1	1	-0.64043802	-27.275	-17.004	31.069
391	1	5	0.31853801	-30.215	-16.334	29.841999
392	1	6	0.045704	-29.705	-17.569	32.409
393	1	6	0.045704	-29.348	-15.803	32.566002
394	1	7	0.080022998	-31.652	-15.316	31.604
395	1	7	0.080022998	-32.018002	-17.063	31.629999
396	1	7	0.079051003	-32.962002	-15.837	33.603001
397	1	7	0.079051003	-31.334999	-15.247	34.044998
398	1	7	0.078317001	-30.591	-17.594999	34.546001
399	1	7	0.078317001	-31.992001	-17.059999	35.513
400	1	7	0.078317001	-33.551998	-18.295	33.909
401	1	7	0.078317001	-32.104	-18.881001	33.022999
402	1	7	0.079051003	-31.259001	-19.933001	35.202
403	1	7	0.079051003	-32.701	-20.666	34.431
404	1	7	0.080022998	-32.705002	-18.756001	36.859001
405	1	7	0.080022998	-34.193001	-19.344	36.042
406	1	6	0.045704	-32.028	-21.183001	37.266998
407	1	6	0.045704	-33.490002	-20.612	38.146999
408	1	5	0.31853801	-34.425999	-21.792999	35.688999
409	1	8	-0.50395298	-39.647999	-26.528999	20.945999
410	1	4	0.11061	-38.902	-25.978001	19.893
411	1	4	-0.141727	-37.542	-26.673	19.76
412	1	4	-0.142671	-36.687	-26.497999	21.021999
413	1	4	-0.143829	-35.301998	-27.136999	20.839001
414	1	4	-0.142498	-34.395	-26.940001	22.065001
415	1	4	-0.142498	-34.772999	-27.865999	23.232
416	1	4	-0.142498	-33.799	-27.690001	24.406
417	1	4	-0.142498	-34.189999	-28.534	25.631001
418	1	4	-0.142498	-33.874001	-30.028	25.443001
419	1	4	-0.142498	-34.209999	-30.865	26.695
420	1	4	-0.142498	-32.983002	-31.228001	27.552999
421	1	4	-0.142498	-32.272999	-30.035999	28.223
422	1	4	-0.142498	-33.137001	-29.239	29.218
423	1	4	-0.142498	-33.481998	-30.037001	30.486
424	1	4	-0.142498	-34.352001	-29.235001	31.469
425	1	4	-0.142498	-33.574001	-28.112	32.172001
426	1	4	-0.143829	-34.424	-27.452999	33.264999
427	1	4	-0.142671	-33.660999	-26.305	33.936001
428	1	4	-0.141727	-34.493	-25.669001	35.056
429	1	4	0.11061	-33.741001	-24.51	35.709999
430	1	8	-0.50395298	-34.513	-23.979	36.75
431	1	6	0.076001003	-32.769001	-24.875	36.112
432	1	6	0.076001003	-33.544998	-23.719	34.952999
433	1	7	0.083757997	-35.452	-25.290001	34.639
434	1	7	0.083757997	-34.723	-26.436001	35.828999
435	1	7	0.080021001	-32.709999	-26.694	34.362
436	1	7	0.080021001	-33.417	-25.530001	33.174
437	1	7	0.078317001	-35.362	-27.058001	32.814999
438	1	7	0.078317001	-34.693001	-28.214001	34.029999
439	1	7	0.078317001	-33.283001	-27.339001	31.429001
440	1	7	0.078317001	-32.650002	-28.528999	32.630001
441	1	7	0.078317001	-35.23	-28.808001	30.933001
442	1	7	0.078317001	-34.738998	-29.938999	32.238998
443	1	7	0.078317001	-34.056999	-30.941999	30.202
444	1	7	0.078317001	-32.549999	-30.371	30.992001
445	1	7	0.078317001	-32.555	-28.339001	29.504
446	1	7	0.078317001	-34.068001	-28.881001	28.733999
447	1	7	0.078317001	-31.892	-29.35	27.438999
448	1	7	0.078317001	-31.375999	-30.417999	28.757
449	1	7	0.078317001	-33.289001	-31.962	28.327
450	1	7	0.078317001	-32.244999	-31.757	26.91
451	1	7	0.078317001	-34.653	-31.825001	26.351
452	1	7	0.078317001	-34.998001	-30.379999	27.309999
453	1	7	0.078317001	-34.486	-30.415001	24.601
454	1	7	0.078317001	-32.806	-30.159	25.16
455	1	7	0.078317001	-35.271999	-28.4	25.854
456	1	7	0.078317001	-33.623001	-28.145	26.499001
457	1	7	0.078317001	-32.764999	-27.945	24.087
458	1	7	0.078317001	-33.803001	-26.621	24.711
459	1	7	0.078317001	-35.799999	-27.629999	23.58
460	1	7	0.078317001	-34.748001	-28.917999	22.878
461	1	7	0.078317001	-33.348999	-27.164	21.76
462	1	7	0.078317001	-34.428001	-25.878	22.393
463	1	7	0.078317001	-35.408001	-28.222	20.617001
464	1	7	0.078317001	-34.806	-26.663	19.964001
465	1	7	0.080021001	-37.209999	-26.973	21.879999
466	1	7	0.080021001	-36.566002	-25.413	21.238001
467	1	7	0.083757997	-37.702	-27.754999	19.561001
468	1	7	0.083757997	-37.007999	-26.236	18.886999
469	1	6	0.076001003	-39.462002	-26.075001	18.934
470	1	6	0.076001003	-38.750999	-24.893999	20.086
471	1	1	-0.64043802	-49.632	-33.261002	17.580999
472	1	2	0.779715	-49.623001	-32.673	18.695999
473	1	3	-0.47353801	-48.444	-32.655998	19.504999
474	1	4	0.021178	-47.213001	-33.323002	19.08
475	1	4	-0.14763901	-46.078999	-33.118	20.093
476	1	4	-0.144152	-45.550999	-31.673	20.077999
477	1	4	-0.14374299	-44.507	-31.412001	21.174999
478	1	4	-0.14374299	-43.139	-32.035999	20.85
479	1	4	-0.144152	-42.112999	-31.857	21.983999
480	1	4	-0.14763901	-41.749001	-30.398001	22.313
481	1	4	0.021178	-41.116001	-29.653999	21.129
482	1	3	-0.47353801	-40.625	-28.34	21.542999
483	1	2	0.779715	-39.983002	-27.455	20.621
484	1	1	-0.64043802	-39.819	-27.787001	19.417
485	1	5	0.31853801	-40.740002	-28.018	22.531
486	1	6	0.045704	-41.869999	-29.514999	20.327
487	1	6	0.045704	-40.266998	-30.25	20.728001
488	1	7	0.080022998	-41.019001	-30.414	23.152
489	1	7	0.080022998	-42.643002	-29.844999	22.673
490	1	7	0.079051003	-42.508999	-32.339001	22.905001
491	1	7	0.079051003	-41.185001	-32.403	21.709
492	1	7	0.078317001	-42.743	-31.614	19.902
493	1	7	0.078317001	-43.261002	-33.126999	20.691999
494	1	7	0.078317001	-44.880001	-31.792	22.150999
495	1	7	0.078317001	-44.389	-30.311001	21.263
496	1	7	0.079051003	-45.118	-31.438999	19.080999
497	1	7	0.079051003	-46.398998	-30.975	20.243
498	1	7	0.080022998	-45.256001	-33.814999	19.827999
499	1	7	0.080022998	-46.439999	-33.386002	21.111
500	1	6	0.045704	-46.901001	-32.937	18.084999
501	1	6	0.045704	-47.410999	-34.411999	18.981001
502	1	5	0.31853801	-48.492001	-32.164001	20.426001
503	1	8	-0.50395298	-52.858002	-19.507	29.795
504	1	4	0.11061	-51.818001	-18.587	30
505	1	4	-0.141727	-51.587002	-17.729	28.752001
506	1	4	-0.142671	-51.169998	-18.58	27.545
507	1	4	-0.143829	-50.872002	-17.694	26.326
508	1	4	-0.142498	-50.400002	-18.506001	25.108
509	1	4	-0.142498	-51.553001	-19.243999	24.409
510	1	4	-0.142498	-51.053001	-19.981001	23.158001
511	1	4	-0.142498	-52.157001	-20.804001	22.475
512	1	4	-0.142498	-53.153999	-19.927	21.698999
513	1	4	-0.142498	-54.226002	-20.76	20.965
514	1	4	-0.142498	-53.965	-20.921	19.454
515	1	4	-0.142498	-52.709999	-21.736	19.087
516	1	4	-0.142498	-52.717999	-23.198	19.572001
517	1	4	-0.142498	-53.765999	-24.063	18.851999
518	1	4	-0.142498	-53.771999	-25.518999	19.349001
519	1	4	-0.142498	-52.539001	-26.309	18.885
520	1	4	-0.143829	-52.667	-27.792999	19.250999
521	1	4	-0.142671	-51.417	-28.573	18.825001
522	1	4	-0.141727	-51.557999	-30.063999	19.153
523	1	4	0.11061	-50.303001	-30.837	18.749001
524	1	8	-0.50395298	-50.481998	-32.196999	19.028999
525	1	6	0.076001003	-50.113998	-30.700001	17.660999
526	1	6	0.076001003	-49.429001	-30.454	19.319
527	1	7	0.083757997	-51.727001	-30.191	20.245001
528	1	7	0.083757997	-52.435001	-30.483	18.610001
529	1	7	0.080021001	-51.263	-28.452	17.729
530	1	7	0.080021001	-50.528	-28.162001	19.355
531	1	7	0.078317001	-52.805	-27.892	20.351
532	1	7	0.078317001	-53.558998	-28.222	18.743999
533	1	7	0.078317001	-51.627998	-25.898001	19.368999
534	1	7	0.078317001	-52.429001	-26.214001	17.782
535	1	7	0.078317001	-53.835999	-25.537001	20.459999
536	1	7	0.078317001	-54.686001	-26.014	18.952
537	1	7	0.078317001	-54.777	-23.646999	19.044001
538	1	7	0.078317001	-53.591	-24.039	17.754
539	1	7	0.078317001	-51.708	-23.612	19.371
540	1	7	0.078317001	-52.876999	-23.25	20.667999
541	1	7	0.078317001	-51.812	-21.224001	19.488001
542	1	7	0.078317001	-52.598	-21.728001	17.982
543	1	7	0.078317001	-54.859001	-21.379999	18.982
544	1	7	0.078317001	-53.868999	-19.910999	19.000999
545	1	7	0.078317001	-55.195999	-20.225	21.063999
546	1	7	0.078317001	-54.381001	-21.745001	21.451
547	1	7	0.078317001	-53.674999	-19.263	22.421
548	1	7	0.078317001	-52.609001	-19.271	20.983999
549	1	7	0.078317001	-52.696999	-21.415001	23.233
550	1	7	0.078317001	-51.662998	-21.507999	21.775
551	1	7	0.078317001	-50.620998	-19.254999	22.434999
552	1	7	0.078317001	-50.241001	-20.677999	23.459999
553	1	7	0.078317001	-52.000999	-19.983	25.106001
554	1	7	0.078317001	-52.331001	-18.504999	24.122999
555	1	7	0.078317001	-49.938999	-17.801001	24.381001
556	1	7	0.078317001	-49.615002	-19.23	25.417
557	1	7	0.078317001	-51.771999	-17.098	26.058001
558	1	7	0.078317001	-50.063999	-16.979	26.596001
559	1	7	0.080021001	-51.990002	-19.290001	27.302999
560	1	7	0.080021001	-50.259998	-19.166	27.804001
561	1	7	0.083757997	-52.52	-17.172001	28.514
562	1	7	0.083757997	-50.789001	-16.987	28.976
563	1	6	0.076001003	-52.056	-17.924999	30.864
564	1	6	0.076001003	-50.888	-19.143	30.249001
565	1	1	-0.64043802	-63.396	-17.285	36.146
566	1	2	0.779715	-63.098999	-18.466999	35.825001
567	1	3	-0.47353801	-62.549999	-18.76	34.536999
568	1	4	0.021178	-62.323002	-17.709	33.543999
569	1	4	-0.14763901	-61.681999	-18.267	32.265999
570	1	4	-0.144152	-60.213001	-18.666	32.490002
571	1	4	-0.14374299	-59.59	-19.349001	31.261
572	1	4	-0.14374299	-59.266998	-18.354	30.132999
573	1	4	-0.144152	-58.728001	-19.041	28.865
574	1	4	-0.14763901	-57.396999	-19.794001	29.044001
575	1	4	0.021178	-56.243999	-18.879999	29.481001
576	1	3	-0.47353801	-54.972	-19.603001	29.459999
577	1	2	0.779715	-53.743	-18.966	29.819
578	1	1	-0.64043802	-53.720001	-17.754999	30.163
579	1	5	0.31853801	-54.938999	-20.610001	29.184
580	1	6	0.045704	-56.425999	-18.513	30.513
581	1	6	0.045704	-56.179001	-18.009001	28.792999
582	1	7	0.080022998	-57.134998	-20.25	28.063999
583	1	7	0.080022998	-57.514999	-20.627001	29.767
584	1	7	0.079051003	-59.492001	-19.757999	28.493
585	1	7	0.079051003	-58.598	-18.27	28.075001
586	1	7	0.078317001	-58.547001	-17.59	30.493
587	1	7	0.078317001	-60.192001	-17.815001	29.843