Title

188 atoms
187 bonds
360 angles
656 dihedrals
18 impropers

11 atom types
14 bond types
9 angle types
35 dihedral types
3 improper types
-11.72099972 88.27900028 xlo xhi
-29.86499977 70.13500023 ylo yhi
-23.0720005 76.9279995 zlo zhi
0.0 0.0 0.0 xy xz yz

Masses

1	12.01078
2	15.99943
3	14.00672
4	12.01078
5	1.007947
6	1.007947
7	1.007947
8	15.99943
9	12.01078
10	15.99943
11	1.007947


Pair Coeffs

1	0.086879315	3.4806469
2	0.2102061	3.0398122
3	0.16769152	3.206876
4	0.10884061	3.3795318
5	0.014090815	1.1034277
6	0.016409246	2.5832257
7	0.015779483	2.6445434
8	0.16846514	3.0251065
9	0.21	3.3996695
10	0.20947353	2.99716
11	1.2326e-05	0.53453923

Bond Coeffs

1 harmonic	582.698766451	1.225198386222
2 harmonic	492.76746816345	1.381897776683
3 harmonic	279.1350963404	1.454628925034
4 harmonic	352.0565580496	1.450098586273
5 harmonic	505.144496193	1.019481865027
6 harmonic	264.62148576755	1.52190126495
7 harmonic	370.04670688625	1.093899492634
8 harmonic	301.15400723785	1.345741232799
9 harmonic	366.7408841747	1.425895053732
10 harmonic	300.03137914615	1.451203938761
11 harmonic	366.34047229585	1.464762957261
12 harmonic	602.81384337	1.196112346392
13 harmonic	329.96998057905	1.427343958716
14 harmonic	543.5267831885	0.9716763312559


Angle Coeffs

1 harmonic	55.42182150775	117.3465570514
2 harmonic	63.44422595415	115.5071327674
3 harmonic	57.8982893754	126.8062420451
4 harmonic	53.20531626545	116.5475862634
5 harmonic	65.09061609600001	110.3538806181
6 harmonic	201.41175231035	127.4691416191
7 harmonic	48.776492647595	115.6030999533
8 harmonic	55.07882548015	112.8714009681
9 harmonic	33.56981613361	180


Dihedral Coeffs

1 fourier 1	-0.1488678166443	4	180
2 fourier 1	-0.1230328948768	3	180
3 fourier 1	0.2939295466901	2	0
4 fourier 1	-0.3024127022865	1	0
5 fourier 1	0.182238503271	2	0
6 fourier 1	0.02972342374561	3	0
7 fourier 1	1.809047390003	2	180
8 fourier 1	-0.04816277792592	1	0
9 fourier 1	3.101948770557	2	180
10 fourier 1	-0.4252153282372	1	0
11 fourier 1	2.348375642009	2	180
12 fourier 1	1.256156174911	1	0
13 fourier 1	0.9974165607242	2	180
14 fourier 1	0.1155372516788	3	0
15 fourier 1	0.09223874044423	3	0
16 fourier 1	0.3159935921949	2	180
17 fourier 1	0.3247796806857	1	180
18 fourier 1	0.1040663847541	3	0
19 fourier 1	2.779853741805	2	180
20 fourier 1	0.1918272375143	3	0
21 fourier 1	0.9202179876409	1	180
22 fourier 1	0.0473758381877	3	0
23 fourier 1	0.4860993122944	2	180
24 fourier 1	0.8916986138746	1	0
25 fourier 1	1.163809172478	2	180
26 fourier 1	0.1679186987369	1	180
27 fourier 1	0.1911926717192	3	0
28 fourier 1	0.1115525666802	3	0
29 fourier 1	0.3432490222662	1	0
30 fourier 1	0.457973137376	1	0
31 fourier 1	-1.382973039546	1	0
32 fourier 1	0	1	0
33 fourier 1	0.3445382149273	3	0
34 fourier 1	0.1364556373303	1	0
35 fourier 1	0.3026390167484	3	0


Improper Coeffs

1 0.3333333333333333	-1	2
2 0.3666666666666667	-1	2
3 3.5	-1	2


Atoms

1	1	1	0.53946799	-6.6880002	-0.20299999	-0.079000004
2	1	2	-0.709126	-6.9689999	-0.45899999	1.122
3	1	3	-0.52656603	-5.3270001	-0.134	-0.51499999
4	1	4	0.02846	-4.2150002	-0.35499999	0.40799999
5	1	4	-0.147809	-2.8710001	-0.223	-0.31600001
6	1	4	-0.143085	-1.7	-0.454	0.64700001
7	1	4	-0.14268699	-0.35600001	-0.32300001	-0.079000004
8	1	4	-0.14268699	0.81599998	-0.54299998	0.88999999
9	1	4	-0.143085	2.1789999	-0.55500001	0.17900001
10	1	4	-0.146533	2.5929999	0.83700001	-0.329
11	1	4	0.022554999	4.0139999	0.83399999	-0.90700001
12	1	3	-0.47090599	5.0240002	0.69599998	0.14300001
13	1	1	0.78196102	6.4190001	0.62599999	-0.164
14	1	2	-0.62990499	6.8210001	0.67199999	-1.357
15	1	5	0.32103899	4.744	0.66399997	1.149
16	1	6	0.049593002	4.1199999	0.0040000002	-1.641
17	1	6	0.049593002	4.184	1.7920001	-1.444
18	1	7	0.082861997	1.898	1.155	-1.135
19	1	7	0.082861997	2.53	1.5829999	0.49399999
20	1	7	0.081808999	2.155	-1.274	-0.66900003
21	1	7	0.081808999	2.9360001	-0.921	0.90499997
22	1	7	0.08106	0.685	-1.526	1.393
23	1	7	0.08106	0.80900002	0.242	1.677
24	1	7	0.08106	-0.30599999	-1.074	-0.89700001
25	1	7	0.08106	-0.287	0.69300002	-0.52399999
26	1	7	0.081808999	-1.747	0.292	1.47
27	1	7	0.081808999	-1.7819999	-1.472	1.087
28	1	7	0.082861997	-2.826	-0.96899998	-1.1390001
29	1	7	0.082861997	-2.793	0.796	-0.755
30	1	6	0.046101	-4.3010001	-1.374	0.84500003
31	1	6	0.046101	-4.2680001	0.39199999	1.23
32	1	5	0.31445199	-5.145	0.082000002	-1.521
33	1	8	-0.50173903	7.1110001	0.53600001	0.60399997
34	1	4	0.111984	8.224	-0.126	0.067000002
35	1	4	-0.140598	9.0559998	0.84200001	-0.78299999
36	1	4	-0.14159501	10.23	0.15000001	-1.492
37	1	4	-0.14277101	11.331	-0.294	-0.51499999
38	1	4	-0.141442	12.613	-0.75400001	-1.229
39	1	4	-0.141442	12.434	-2.056	-2.04
40	1	4	-0.141442	12.313	-1.7869999	-3.55
41	1	4	-0.141442	11.915	-3.039	-4.348
42	1	4	-0.141442	13.053	-4.0710001	-4.4359999
43	1	4	-0.141442	12.649	-5.336	-5.21
44	1	4	-0.141442	12.522	-5.0929999	-6.724
45	1	4	-0.141442	12.239	-6.3889999	-7.5029998
46	1	4	-0.141442	13.513	-7.2129998	-7.7529998
47	1	4	-0.141442	13.222	-8.5769997	-8.401
48	1	4	-0.141442	12.679	-8.474	-9.8430004
49	1	4	-0.141442	11.166	-8.7460003	-9.9139996
50	1	4	-0.142721	10.618	-8.6330004	-11.353
51	1	4	-0.14032701	10.364	-9.993	-12.027
52	1	4	-0.146598	11.655	-10.78	-12.291
53	1	4	0.033557002	11.377	-12.028	-13.133
54	1	8	-0.177403	12.557	-12.762	-13.316
55	1	6	0.079512	10.64	-12.672	-12.607
56	1	6	0.079512	10.945	-11.743	-14.119
57	1	7	0.087699004	12.101	-11.1	-11.326
58	1	7	0.087699004	12.384	-10.134	-12.828
59	1	7	0.082965001	9.6750002	-10.599	-11.398
60	1	7	0.082965001	9.8520002	-9.802	-12.996
61	1	7	0.08106	9.6420002	-8.1000004	-11.31
62	1	7	0.08106	11.284	-8.0129995	-11.993
63	1	7	0.08106	10.639	-8.0039997	-9.2779999
64	1	7	0.08106	10.942	-9.75	-9.4890003
65	1	7	0.08106	13.209	-9.2200003	-10.472
66	1	7	0.08106	12.904	-7.4749999	-10.277
67	1	7	0.08106	14.182	-9.1389999	-8.4309998
68	1	7	0.08106	12.538	-9.1639996	-7.75
69	1	7	0.08106	14.03	-7.4039998	-6.789
70	1	7	0.08106	14.213	-6.6360002	-8.3970003
71	1	7	0.08106	11.805	-6.1030002	-8.4849997
72	1	7	0.08106	11.484	-7	-6.961
73	1	7	0.08106	11.674	-4.4000001	-6.9070001
74	1	7	0.08106	13.443	-4.6090002	-7.1160002
75	1	7	0.08106	11.689	-5.7309999	-4.809
76	1	7	0.08106	13.428	-6.1040001	-5.0229998
77	1	7	0.08106	13.339	-4.3860002	-3.411
78	1	7	0.08106	13.948	-3.6110001	-4.9089999
79	1	7	0.08106	11.013	-3.503	-3.8940001
80	1	7	0.08106	11.643	-2.7079999	-5.3720002
81	1	7	0.08106	11.538	-1.012	-3.727
82	1	7	0.08106	13.275	-1.385	-3.937
83	1	7	0.08106	11.549	-2.6240001	-1.678
84	1	7	0.08106	13.326	-2.694	-1.865
85	1	7	0.08106	13.009	0.068000004	-1.8660001
86	1	7	0.08106	13.379	-0.93599999	-0.44400001
87	1	7	0.08106	11.596	0.56099999	0.146
88	1	7	0.08106	10.96	-1.118	0.132
89	1	7	0.082791999	9.849	-0.72600001	-2.0599999
90	1	7	0.082791999	10.662	0.87	-2.221
91	1	7	0.086671002	8.3970003	1.288	-1.5599999
92	1	7	0.086671002	9.4309998	1.6720001	-0.146
93	1	6	0.079678997	7.895	-0.99800003	-0.54400003
94	1	6	0.079678997	8.8360004	-0.509	0.91000003
95	1	1	0.53946799	-7.487	-0.034000002	-0.78799999
96	1	2	-0.709126	-7.2740002	0.68400002	-1.802
97	1	3	-0.52656603	-8.7729998	-0.61900002	-0.55900002
98	1	4	0.02846	-9.8999996	-0.43900001	-1.473
99	1	4	-0.147809	-9.7220001	-1.275	-2.7479999
100	1	4	-0.143085	-9.7089996	-2.7809999	-2.448
101	1	4	-0.14268699	-9.5880003	-3.596	-3.7449999
102	1	4	-0.14250401	-9.4300003	-5.1030002	-3.4860001
103	1	4	-0.138695	-10.74	-5.7639999	-3.0250001
104	1	4	-0.124145	-10.58	-7.27	-2.75
105	1	4	0.181927	-10.405	-8.1169996	-4.0170002
106	1	3	-0.67182702	-11.575	-7.994	-4.8769999
107	1	9	0.59160799	-11.649	-8.6219997	-5.98
108	1	2	-0.502702	-11.721	-9.2329998	-7.0539999
109	1	6	0.025883	-10.281	-9.1809998	-3.7160001
110	1	6	0.025883	-9.4910002	-7.8119998	-4.5679998
111	1	7	0.076531999	-11.483	-7.6290002	-2.21
112	1	7	0.076531999	-9.71	-7.4349999	-2.0780001
113	1	7	0.080537997	-11.538	-5.5949998	-3.779
114	1	7	0.080537997	-11.073	-5.29	-2.0769999
115	1	7	0.08106	-9.1020002	-5.5700002	-4.4390001
116	1	7	0.08106	-8.6289997	-5.2750001	-2.734
117	1	7	0.08106	-8.6890001	-3.2490001	-4.3010001
118	1	7	0.08106	-10.474	-3.415	-4.3920002
119	1	7	0.081808999	-8.8500004	-3.017	-1.784
120	1	7	0.081808999	-10.65	-3.049	-1.9220001
121	1	7	0.082861997	-8.7790003	-0.98400003	-3.2590001
122	1	7	0.082861997	-10.566	-1.0470001	-3.4349999
123	1	6	0.046101	-9.9969997	0.63499999	-1.74
124	1	6	0.046101	-10.841	-0.741	-0.96399999
125	1	5	0.31445199	-8.9239998	-1.15	0.32800001
126	1	8	-0.177403	13.094	-12.272	-13.993
127	1	4	0.033557002	12.853	-12.896	-15.225
128	1	4	-0.146598	11.484	-12.474	-15.772
129	1	4	-0.14032701	11.11	-13.211	-17.068001
130	1	4	-0.142721	11.974	-12.777	-18.264
131	1	4	-0.141442	11.447	-13.313	-19.606001
132	1	4	-0.141442	11.554	-14.847	-19.740999
133	1	4	-0.141442	10.199	-15.545	-19.527
134	1	4	-0.141442	10.324	-17.075001	-19.438
135	1	4	-0.141442	10.65	-17.721001	-20.795
136	1	4	-0.141442	10.803	-19.247999	-20.704
137	1	4	-0.141442	9.4610004	-19.969	-20.49
138	1	4	-0.141442	9.6070004	-21.5	-20.524
139	1	4	-0.141442	9.6630001	-22.052	-21.958
140	1	4	-0.141442	9.9540005	-23.562	-22.004
141	1	4	-0.141442	8.8170004	-24.43	-21.424
142	1	4	-0.141442	9.1569996	-24.975	-20.025
143	1	4	-0.142721	8.0170002	-25.834	-19.438
144	1	4	-0.136243	8.2790003	-27.348	-19.517
145	1	4	-0.168521	8.3000002	-27.875999	-20.958
146	1	4	0.086762004	8.368	-29.405001	-20.983999
147	1	10	-0.68417698	8.4429998	-29.865	-22.306
148	1	11	0.37866101	7.5320001	-29.774	-22.690001
149	1	6	0.069934003	9.276	-29.743999	-20.441999
150	1	6	0.069934003	7.4780002	-29.841	-20.475
151	1	7	0.090053	9.191	-27.476999	-21.489
152	1	7	0.090053	7.3829999	-27.544001	-21.493999
153	1	7	0.082965001	9.2410002	-27.587999	-19.014
154	1	7	0.082965001	7.4699998	-27.864	-18.955
155	1	7	0.08106	7.9089999	-25.575001	-18.362
156	1	7	0.08106	7.0409999	-25.594	-19.916
157	1	7	0.08106	9.3389997	-24.118	-19.341999
158	1	7	0.08106	10.103	-25.558001	-20.066999
159	1	7	0.08106	8.6420002	-25.285	-22.110001
160	1	7	0.08106	7.8660002	-23.855	-21.384001
161	1	7	0.08106	10.092	-23.839001	-23.072001
162	1	7	0.08106	10.924	-23.773001	-21.500999
163	1	7	0.08106	10.468	-21.539	-22.525
164	1	7	0.08106	8.7030001	-21.841999	-22.48
165	1	7	0.08106	8.7209997	-21.934	-20.013
166	1	7	0.08106	10.512	-21.808001	-19.955999
167	1	7	0.08106	9.0579996	-19.691999	-19.493
168	1	7	0.08106	8.7209997	-19.642	-21.254
169	1	7	0.08106	11.506	-19.507	-19.881001
170	1	7	0.08106	11.262	-19.594999	-21.653
171	1	7	0.08106	11.612	-17.313999	-21.171
172	1	7	0.08106	9.8629999	-17.466	-21.538
173	1	7	0.08106	11.099	-17.344999	-18.688999
174	1	7	0.08106	9.3520002	-17.466	-19.072001
175	1	7	0.08106	9.7440004	-15.186	-18.58
176	1	7	0.08106	9.5039997	-15.272	-20.35
177	1	7	0.08106	12.311	-15.251	-19.033001
178	1	7	0.08106	11.912	-15.078	-20.767
179	1	7	0.08106	10.404	-12.964	-19.771999
180	1	7	0.08106	12.063	-12.85	-20.408001
181	1	7	0.08106	11.984	-11.666	-18.32
182	1	7	0.08106	13.022	-13.117	-18.122
183	1	7	0.082965001	11.206	-14.306	-16.906
184	1	7	0.082965001	10.044	-12.989	-17.292
185	1	7	0.087699004	10.71	-12.704	-15.008
186	1	7	0.087699004	11.471	-11.375	-15.942
187	1	6	0.079512	12.902	-14.003	-15.111
188	1	6	0.079512	13.652	-12.586	-15.93

Bonds

1	1	1	2
2	2	1	3
3	3	1	95
4	4	3	4
5	5	3	32
6	6	4	5
7	7	4	30
8	7	4	31
9	6	5	6
10	7	5	28
11	7	5	29
12	6	6	7
13	7	6	26
14	7	6	27
15	6	7	8
16	7	7	24
17	7	7	25
18	6	8	9
19	7	8	22
20	7	8	23
21	6	9	10
22	7	9	20
23	7	9	21
24	6	10	11
25	7	10	18
26	7	10	19
27	4	11	12
28	7	11	16
29	7	11	17
30	2	12	13
31	5	12	15
32	1	13	14
33	8	13	33
34	9	33	34
35	6	34	35
36	7	34	93
37	7	34	94
38	6	35	36
39	7	35	91
40	7	35	92
41	6	36	37
42	7	36	89
43	7	36	90
44	6	37	38
45	7	37	87
46	7	37	88
47	6	38	39
48	7	38	85
49	7	38	86
50	6	39	40
51	7	39	83
52	7	39	84
53	6	40	41
54	7	40	81
55	7	40	82
56	6	41	42
57	7	41	79
58	7	41	80
59	6	42	43
60	7	42	77
61	7	42	78
62	6	43	44
63	7	43	75
64	7	43	76
65	6	44	45
66	7	44	73
67	7	44	74
68	6	45	46
69	7	45	71
70	7	45	72
71	6	46	47
72	7	46	69
73	7	46	70
74	6	47	48
75	7	47	67
76	7	47	68
77	6	48	49
78	7	48	65
79	7	48	66
80	6	49	50
81	7	49	63
82	7	49	64
83	6	50	51
84	7	50	61
85	7	50	62
86	6	51	52
87	7	51	59
88	7	51	60
89	6	52	53
90	7	52	57
91	7	52	58
92	9	53	54
93	7	53	55
94	7	53	56
95	10	54	126
96	1	95	96
97	2	95	97
98	4	97	98
99	5	97	125
100	6	98	99
101	7	98	123
102	7	98	124
103	6	99	100
104	7	99	121
105	7	99	122
106	6	100	101
107	7	100	119
108	7	100	120
109	6	101	102
110	7	101	117
111	7	101	118
112	6	102	103
113	7	102	115
114	7	102	116
115	6	103	104
116	7	103	113
117	7	103	114
118	6	104	105
119	7	104	111
120	7	104	112
121	11	105	106
122	7	105	109
123	7	105	110
124	12	106	107
125	1	107	108
126	9	126	127
127	6	127	128
128	7	127	187
129	7	127	188
130	6	128	129
131	7	128	185
132	7	128	186
133	6	129	130
134	7	129	183
135	7	129	184
136	6	130	131
137	7	130	181
138	7	130	182
139	6	131	132
140	7	131	179
141	7	131	180
142	6	132	133
143	7	132	177
144	7	132	178
145	6	133	134
146	7	133	175
147	7	133	176
148	6	134	135
149	7	134	173
150	7	134	174
151	6	135	136
152	7	135	171
153	7	135	172
154	6	136	137
155	7	136	169
156	7	136	170
157	6	137	138
158	7	137	167
159	7	137	168
160	6	138	139
161	7	138	165
162	7	138	166
163	6	139	140
164	7	139	163
165	7	139	164
166	6	140	141
167	7	140	161
168	7	140	162
169	6	141	142
170	7	141	159
171	7	141	160
172	6	142	143
173	7	142	157
174	7	142	158
175	6	143	144
176	7	143	155
177	7	143	156
178	6	144	145
179	7	144	153
180	7	144	154
181	6	145	146
182	7	145	151
183	7	145	152
184	13	146	147
185	7	146	149
186	7	146	150
187	14	147	148

Angles

1	4	50	51	59
2	7	123	98	124
3	4	131	130	182
4	4	3	4	31
5	4	128	127	188
6	4	35	34	93
7	4	40	41	79
8	4	54	53	56
9	4	48	47	67
10	4	136	137	168
11	3	12	13	33
12	4	126	127	128
13	7	163	139	164
14	7	183	129	184
15	4	130	129	184
16	4	41	40	82
17	4	38	39	83
18	4	9	10	18
19	4	137	138	165
20	4	45	44	74
21	4	36	35	91
22	7	161	140	162
23	4	131	130	181
24	4	137	136	169
25	4	10	9	21
26	4	41	42	78
27	4	145	144	154
28	4	6	7	24
29	4	38	37	87
30	4	129	128	185
31	4	8	7	25
32	4	39	40	82
33	7	71	45	72
34	7	75	43	76
35	4	133	134	174
36	4	50	49	64
37	7	153	144	154
38	4	36	37	88
39	4	130	131	180
40	4	97	98	124
41	4	8	9	20
42	4	40	39	84
43	4	146	145	152
44	4	144	143	156
45	4	134	133	176
46	4	7	6	26
47	4	45	46	70
48	4	142	141	159
49	4	139	140	162
50	1	1	3	4
51	4	4	5	28
52	4	130	131	132
53	4	102	103	114
54	5	146	147	148
55	4	10	9	20
56	6	14	13	33
57	4	47	48	49
58	4	4	5	29
59	4	105	104	111
60	4	46	47	68
61	7	16	11	17
62	4	139	140	141
63	7	26	6	27
64	4	139	140	161
65	4	42	43	44
66	4	40	41	80
67	4	142	143	156
68	4	4	5	6
69	4	7	6	27
70	4	133	132	178
71	4	3	4	5
72	4	51	52	57
73	4	50	51	52
74	2	98	97	125
75	7	59	51	60
76	4	145	144	153
77	7	63	49	64
78	4	101	102	115
79	4	36	37	87
80	4	128	129	130
81	4	45	44	73
82	4	49	48	65
83	4	44	45	71
84	7	79	41	80
85	7	155	143	156
86	1	11	12	13
87	4	10	11	12
88	4	132	131	179
89	4	136	135	172
90	7	157	142	158
91	4	138	137	167
92	4	135	134	174
93	4	129	128	186
94	4	52	53	54
95	8	105	106	107
96	4	142	143	144
97	7	89	36	90
98	4	102	101	118
99	4	141	142	157
100	4	35	34	94
101	4	42	43	75
102	4	11	10	19
103	4	51	52	58
104	3	2	1	3
105	4	130	131	179
106	4	36	35	92
107	2	95	97	125
108	7	55	53	56
109	4	136	137	167
110	4	46	47	67
111	4	47	48	66
112	4	137	138	139
113	4	102	103	113
114	4	140	141	160
115	4	8	7	24
116	4	41	42	43
117	4	40	39	83
118	4	134	135	172
119	4	139	138	165
120	4	127	128	185
121	5	54	126	127
122	4	106	105	110
123	7	69	46	70
124	4	10	11	17
125	7	111	104	112
126	4	5	4	30
127	7	175	133	176
128	4	126	127	187
129	7	67	47	68
130	4	130	129	183
131	7	167	137	168
132	4	46	45	72
133	4	103	104	112
134	4	131	132	133
135	4	102	103	104
136	4	12	11	17
137	7	18	10	19
138	7	57	52	58
139	7	113	103	114
140	4	48	49	50
141	7	159	141	160
142	4	46	47	48
143	4	132	133	175
144	7	65	48	66
145	4	100	99	122
146	4	140	141	142
147	7	93	34	94
148	4	138	139	140
149	4	50	51	60
150	4	101	100	119
151	4	104	105	106
152	4	43	42	78
153	4	129	130	131
154	4	47	48	65
155	3	1	95	97
156	4	33	34	93
157	4	141	140	162
158	4	11	10	18
159	7	187	127	188
160	7	151	145	152
161	7	117	101	118
162	4	131	132	178
163	4	142	141	160
164	4	49	50	62
165	7	109	105	110
166	4	104	105	110
167	4	133	134	135
168	7	121	99	122
169	4	51	52	53
170	7	115	102	116
171	4	144	145	151
172	7	173	134	174
173	4	5	6	7
174	4	106	105	109
175	4	52	53	55
176	4	9	8	23
177	4	40	41	42
178	4	48	49	63
179	4	42	41	79
180	4	143	142	157
181	4	99	100	120
182	4	47	46	69
183	4	6	5	28
184	4	145	146	149
185	4	101	102	103
186	4	41	40	81
187	7	185	128	186
188	4	6	5	29
189	4	52	51	59
190	4	9	8	22
191	4	98	99	100
192	4	129	130	182
193	4	144	143	155
194	4	143	142	158
195	4	8	9	10
196	7	24	7	25
197	3	3	1	95
198	4	6	7	25
199	4	35	36	90
200	7	20	9	21
201	4	39	40	81
202	4	145	146	150
203	4	145	146	147
204	4	9	10	19
205	7	30	4	31
206	4	9	10	11
207	4	49	50	51
208	4	135	136	137
209	4	98	99	122
210	4	129	130	181
211	7	177	132	178
212	4	41	42	77
213	7	85	38	86
214	4	127	128	129
215	7	169	136	170
216	7	87	37	88
217	4	51	50	61
218	7	149	146	150
219	4	43	44	74
220	4	143	144	154
221	3	1	95	96
222	4	104	105	109
223	4	3	4	30
224	4	128	129	184
225	4	141	142	158
226	4	134	135	136
227	5	53	54	126
228	7	77	42	78
229	4	6	7	8
230	4	135	136	170
231	4	140	139	163
232	7	73	44	74
233	4	134	133	175
234	4	147	146	149
235	4	33	34	94
236	4	50	49	63
237	4	44	43	76
238	4	128	127	187
239	4	34	35	91
240	4	44	45	72
241	4	100	99	121
242	4	105	104	112
243	7	165	138	166
244	4	38	39	40
245	4	99	100	101
246	4	37	36	90
247	4	7	8	9
248	4	39	40	41
249	4	126	127	188
250	7	81	40	82
251	4	35	36	89
252	4	8	9	21
253	4	147	146	150
254	4	140	139	164
255	4	137	138	166
256	4	131	132	177
257	4	102	101	117
258	4	133	134	173
259	4	103	104	105
260	4	101	102	116
261	7	119	100	120
262	4	141	142	143
263	4	143	144	153
264	4	39	38	86
265	4	99	98	123
266	3	12	13	14
267	4	54	53	55
268	4	146	145	151
269	4	5	4	31
270	4	104	103	114
271	4	136	135	171
272	4	135	136	169
273	9	106	107	108
274	4	132	131	180
275	7	61	50	62
276	4	52	53	56
277	4	43	44	73
278	4	141	140	161
279	4	49	48	66
280	2	13	12	15
281	1	95	97	98
282	4	5	6	26
283	2	11	12	15
284	4	133	132	177
285	4	100	101	118
286	4	127	128	186
287	4	144	145	146
288	4	45	46	69
289	7	83	39	84
290	4	53	52	57
291	4	138	139	163
292	4	47	46	70
293	2	4	3	32
294	7	28	5	29
295	4	49	50	61
296	7	179	131	180
297	4	103	102	116
298	4	134	135	171
299	4	45	46	47
300	4	103	104	111
301	7	181	130	182
302	4	35	36	37
303	4	132	133	134
304	4	37	38	86
305	4	39	38	85
306	4	38	39	84
307	4	144	145	152
308	4	5	6	27
309	4	132	133	176
310	4	37	36	89
311	4	98	99	121
312	4	135	134	173
313	4	53	52	58
314	7	171	135	172
315	4	138	139	164
316	2	1	3	32
317	4	33	34	35
318	4	97	98	123
319	4	7	8	23
320	4	34	35	92
321	4	100	101	102
322	4	34	35	36
323	4	51	50	62
324	4	97	98	99
325	4	48	47	68
326	4	46	45	71
327	4	104	103	113
328	4	142	143	155
329	4	36	37	38
330	4	52	51	60
331	4	43	44	45
332	4	43	42	77
333	4	143	144	145
334	4	48	49	64
335	4	99	100	119
336	4	128	129	183
337	4	10	11	16
338	3	96	95	97
339	3	2	1	95
340	4	7	8	22
341	7	91	35	92
342	4	137	136	170
343	4	37	38	85
344	4	100	101	117
345	4	99	98	124
346	4	44	43	75
347	4	42	43	76
348	4	101	100	120
349	4	12	11	16
350	5	13	33	34
351	4	37	38	39
352	4	44	45	46
353	4	42	41	80
354	4	136	137	138
355	4	38	37	88
356	4	103	102	115
357	4	139	138	166
358	4	138	137	168
359	4	140	141	159
360	7	22	8	23

Dihedrals

1	27	160	141	140	161
2	27	164	139	138	166
3	18	41	42	43	75
4	7	32	3	1	95
4	8	32	3	1	95
5	15	42	43	44	45
5	16	42	43	44	45
5	17	42	43	44	45
6	27	173	134	133	176
7	15	7	8	9	10
7	16	7	8	9	10
7	17	7	8	9	10
8	27	112	104	103	113
9	27	185	128	127	187
10	18	49	50	51	60
11	18	50	49	48	65
12	27	92	35	34	94
13	18	40	41	42	77
14	14	97	98	99	100
15	18	136	135	134	173
16	18	10	9	8	22
17	27	72	45	44	74
18	27	82	40	39	83
19	30	53	54	126	127
20	18	46	47	48	66
21	18	7	6	5	29
22	19	12	13	33	34
23	5	15	12	11	17
23	6	15	12	11	17
24	27	182	130	129	184
25	27	84	39	38	85
26	18	5	6	7	25
27	27	73	44	43	76
28	27	61	50	49	64
29	18	38	39	40	82
30	5	30	4	3	32
30	6	30	4	3	32
31	18	44	45	46	69
32	18	135	134	133	176
33	27	22	8	7	25
34	18	39	38	37	88
35	18	38	37	36	90
36	27	56	53	52	58
37	18	47	48	49	64
38	18	142	141	140	162
39	14	97	98	99	122
40	27	171	135	134	174
41	15	44	45	46	47
41	16	44	45	46	47
41	17	44	45	46	47
42	18	48	49	50	62
43	18	140	139	138	165
44	18	143	142	141	160
45	15	136	137	138	139
45	16	136	137	138	139
45	17	136	137	138	139
46	27	76	43	42	78
47	18	142	143	144	153
48	18	138	137	136	170
49	18	141	140	139	163
50	18	11	10	9	21
51	9	2	1	3	4
51	10	2	1	3	4
52	18	141	142	143	155
53	18	103	102	101	117
54	7	11	12	13	14
54	8	11	12	13	14
55	27	19	10	9	20
56	5	5	4	3	32
56	6	5	4	3	32
57	18	37	36	35	91
58	18	40	39	38	86
59	15	5	6	7	8
59	16	5	6	7	8
59	17	5	6	7	8
60	18	47	46	45	71
61	27	179	131	130	182
62	18	9	8	7	24
63	14	106	105	104	112
64	18	52	51	50	62
65	27	155	143	142	157
66	28	147	146	145	151
66	29	147	146	145	151
67	18	127	128	129	184
68	18	105	104	103	113
69	27	24	7	6	26
70	18	51	50	49	63
71	18	99	100	101	118
72	14	33	34	35	36
73	27	60	51	50	62
74	18	46	47	48	65
75	27	80	41	40	81
76	1	1	3	4	5
76	2	1	3	4	5
76	3	1	3	4	5
76	4	1	3	4	5
77	27	166	138	137	168
78	18	42	43	44	73
79	27	175	133	132	178
80	18	39	38	37	87
81	18	134	133	132	177
82	27	167	137	136	170
83	18	102	103	104	112
84	31	104	105	106	107
85	27	90	36	35	92
86	27	150	146	145	151
87	18	139	138	137	168
88	18	130	129	128	185
89	18	141	140	139	164
90	5	13	12	11	16
90	6	13	12	11	16
91	18	43	42	41	79
92	27	120	100	99	121
93	18	7	8	9	21
94	25	14	13	33	34
94	26	14	13	33	34
95	27	67	47	46	69
96	18	101	100	99	121
97	15	34	35	36	37
97	16	34	35	36	37
97	17	34	35	36	37
98	27	72	45	44	73
99	18	11	10	9	20
100	27	26	6	5	28
101	18	42	41	40	82
102	13	3	1	95	97
103	28	54	53	52	57
103	29	54	53	52	57
104	22	54	126	127	128
105	27	24	7	6	27
106	27	119	100	99	122
107	18	136	137	138	166
108	27	154	144	143	156
109	15	133	134	135	136
109	16	133	134	135	136
109	17	133	134	135	136
110	18	137	138	139	163
111	18	36	37	38	85
112	27	26	6	5	29
113	15	48	49	50	51
113	16	48	49	50	51
113	17	48	49	50	51
114	18	133	134	135	172
115	27	173	134	133	175
116	18	138	137	136	169
117	27	109	105	104	112
118	15	46	47	48	49
118	16	46	47	48	49
118	17	46	47	48	49
119	18	103	104	105	110
120	15	37	38	39	40
120	16	37	38	39	40
120	17	37	38	39	40
121	15	102	103	104	105
121	16	102	103	104	105
121	17	102	103	104	105
122	18	38	37	36	89
123	15	36	37	38	39
123	16	36	37	38	39
123	17	36	37	38	39
124	15	130	131	132	133
124	16	130	131	132	133
124	17	130	131	132	133
125	27	156	143	142	157
126	27	85	38	37	88
127	18	53	52	51	59
128	18	135	136	137	167
129	18	51	52	53	56
130	18	98	99	100	120
131	15	135	136	137	138
131	16	135	136	137	138
131	17	135	136	137	138
132	27	162	140	139	163
133	18	43	44	45	71
134	27	29	5	4	31
135	18	135	134	133	175
136	18	129	128	127	188
137	27	183	129	128	185
138	18	139	140	141	160
139	23	14	13	12	15
139	24	14	13	12	15
140	18	5	6	7	24
141	11	96	95	97	125
141	12	96	95	97	125
142	27	86	38	37	88
143	15	132	133	134	135
143	16	132	133	134	135
143	17	132	133	134	135
144	18	36	35	34	93
145	18	143	144	145	151
146	28	54	53	52	58
146	29	54	53	52	58
147	27	156	143	142	158
148	27	16	11	10	19
149	18	46	45	44	73
150	27	167	137	136	169
151	5	95	97	98	123
151	6	95	97	98	123
152	18	6	7	8	23
153	5	1	3	4	31
153	6	1	3	4	31
154	15	142	143	144	145
154	16	142	143	144	145
154	17	142	143	144	145
155	27	121	99	98	124
156	27	63	49	48	66
157	5	10	11	12	15
157	6	10	11	12	15
158	15	39	40	41	42
158	16	39	40	41	42
158	17	39	40	41	42
159	18	104	103	102	115
160	27	153	144	143	155
161	27	76	43	42	77
162	18	44	43	42	78
163	18	49	50	51	59
164	18	99	100	101	117
165	18	130	131	132	178
166	27	172	135	134	174
167	27	75	43	42	78
168	18	131	132	133	175
169	27	164	139	138	165
170	27	81	40	39	84
171	13	2	1	95	97
172	27	162	140	139	164
173	7	1	95	97	98
173	8	1	95	97	98
174	27	158	142	141	159
175	27	169	136	135	172
176	18	7	6	5	28
177	27	85	38	37	87
178	18	130	129	128	186
179	18	45	44	43	75
180	27	70	46	45	72
181	27	73	44	43	75
182	18	43	42	41	80
183	27	170	136	135	172
184	18	145	144	143	156
185	18	37	36	35	92
186	27	174	134	133	175
187	18	144	143	142	157
188	18	6	5	4	30
189	28	126	127	128	185
189	29	126	127	128	185
190	15	139	140	141	142
190	16	139	140	141	142
190	17	139	140	141	142
191	27	62	50	49	64
192	27	182	130	129	183
193	18	9	10	11	16
194	15	45	46	47	48
194	16	45	46	47	48
194	17	45	46	47	48
195	27	68	47	46	69
196	27	109	105	104	111
197	18	37	38	39	84
198	27	80	41	40	82
199	18	103	104	105	109
200	18	44	45	46	70
201	18	131	130	129	184
202	27	121	99	98	123
203	18	136	135	134	174
204	27	69	46	45	72
205	27	111	104	103	114
206	13	3	1	95	96
207	27	66	48	47	68
208	27	176	133	132	178
209	27	180	131	130	182
210	7	11	12	13	33
210	8	11	12	13	33
211	15	6	7	8	9
211	16	6	7	8	9
211	17	6	7	8	9
212	27	166	138	137	167
213	14	12	11	10	18
214	27	63	49	48	65
215	27	87	37	36	89
216	18	144	145	146	149
217	27	178	132	131	180
218	22	55	53	54	126
219	31	107	106	105	109
220	27	64	49	48	66
221	18	137	136	135	172
222	27	28	5	4	30
223	27	181	130	129	184
224	27	59	51	50	62
225	18	139	138	137	167
226	27	177	132	131	180
227	27	183	129	128	186
228	18	142	141	140	161
229	27	71	45	44	74
230	27	16	11	10	18
231	27	114	103	102	116
232	18	146	145	144	154
233	18	9	10	11	17
234	27	175	133	132	177
235	15	141	142	143	144
235	16	141	142	143	144
235	17	141	142	143	144
236	18	48	47	46	69
237	18	8	9	10	19
238	27	17	11	10	19
239	27	118	101	100	120
240	15	8	9	10	11
240	16	8	9	10	11
240	17	8	9	10	11
241	5	124	98	97	125
241	6	124	98	97	125
242	15	98	99	100	101
242	16	98	99	100	101
242	17	98	99	100	101
243	18	127	128	129	183
244	22	13	33	34	93
245	18	48	47	46	70
246	18	48	49	50	61
247	18	144	145	146	150
248	18	132	131	130	182
249	15	137	138	139	140
249	16	137	138	139	140
249	17	137	138	139	140
250	27	57	52	51	59
251	18	45	46	47	68
252	27	77	42	41	79
253	14	144	145	146	147
254	27	83	39	38	86
255	14	103	104	105	106
256	18	140	141	142	157
257	22	56	53	54	126
258	27	79	41	40	81
259	27	155	143	142	158
260	27	179	131	130	181
261	18	102	101	100	120
262	5	95	97	98	124
262	6	95	97	98	124
263	18	40	41	42	78
264	15	49	50	51	52
264	16	49	50	51	52
264	17	49	50	51	52
265	27	119	100	99	121
266	27	28	5	4	31
267	15	47	48	49	50
267	16	47	48	49	50
267	17	47	48	49	50
268	28	147	146	145	152
268	29	147	146	145	152
269	18	36	35	34	94
270	27	67	47	46	70
271	33	145	146	147	148
271	34	145	146	147	148
272	18	52	51	50	61
273	18	38	39	40	81
274	27	115	102	101	118
275	27	81	40	39	83
276	27	27	6	5	28
277	27	23	8	7	24
278	27	88	37	36	89
279	18	39	40	41	79
280	27	66	48	47	67
281	18	132	131	130	181
282	18	35	36	37	88
283	22	54	126	127	187
284	27	74	44	43	75
285	13	2	1	95	96
286	27	117	101	100	120
287	18	140	141	142	158
288	18	136	137	138	165
289	27	64	49	48	65
290	27	60	51	50	61
291	27	27	6	5	29
292	27	149	146	145	151
293	27	21	9	8	23
294	35	148	147	146	149
295	18	132	133	134	173
296	27	150	146	145	152
297	18	40	39	38	85
298	18	50	51	52	58
299	27	89	36	35	92
300	18	100	99	98	123
301	15	99	100	101	102
301	16	99	100	101	102
301	17	99	100	101	102
302	18	37	38	39	83
303	18	134	133	132	178
304	27	87	37	36	90
305	27	165	138	137	168
306	18	146	145	144	153
307	5	123	98	97	125
307	6	123	98	97	125
308	27	18	10	9	21
309	27	70	46	45	71
310	5	13	12	11	17
310	6	13	12	11	17
311	27	178	132	131	179
312	15	100	101	102	103
312	16	100	101	102	103
312	17	100	101	102	103
313	27	21	9	8	22
314	27	58	52	51	59
315	18	7	8	9	20
316	18	51	50	49	64
317	27	159	141	140	162
318	27	83	39	38	85
319	18	130	131	132	177
320	27	22	8	7	24
321	27	186	128	127	187
322	27	114	103	102	115
323	18	9	8	7	25
324	27	91	35	34	93
325	35	148	147	146	150
326	27	55	53	52	57
327	18	45	46	47	67
328	15	143	144	145	146
328	16	143	144	145	146
328	17	143	144	145	146
329	28	33	34	35	91
329	29	33	34	35	91
330	27	25	7	6	26
331	14	106	105	104	111
332	27	61	50	49	63
333	1	95	97	98	99
333	2	95	97	98	99
333	3	95	97	98	99
333	4	95	97	98	99
334	27	154	144	143	155
335	27	122	99	98	123
336	18	8	9	10	18
337	27	17	11	10	18
338	18	137	136	135	171
339	14	126	127	128	129
340	18	47	48	49	63
341	27	69	46	45	71
342	15	128	129	130	131
342	16	128	129	130	131
342	17	128	129	130	131
343	18	8	7	6	26
344	27	159	141	140	161
345	18	53	52	51	60
346	18	138	139	140	162
347	7	15	12	13	33
347	8	15	12	13	33
348	5	15	12	11	16
348	6	15	12	11	16
349	27	158	142	141	160
350	18	102	103	104	111
351	18	6	7	8	22
352	27	89	36	35	91
353	18	143	144	145	152
354	27	77	42	41	80
355	15	140	141	142	143
355	16	140	141	142	143
355	17	140	141	142	143
356	15	35	36	37	38
356	16	35	36	37	38
356	17	35	36	37	38
357	27	18	10	9	20
358	14	9	10	11	12
359	15	38	39	40	41
359	16	38	39	40	41
359	17	38	39	40	41
360	18	105	104	103	114
361	27	113	103	102	116
362	27	25	7	6	27
363	32	105	106	107	108
364	22	52	53	54	126
365	27	88	37	36	90
366	27	115	102	101	117
367	27	157	142	141	159
368	27	55	53	52	58
369	15	138	139	140	141
369	16	138	139	140	141
369	17	138	139	140	141
370	27	185	128	127	188
371	18	138	139	140	161
372	27	176	133	132	177
373	18	42	43	44	74
374	18	98	99	100	119
375	27	86	38	37	87
376	14	97	98	99	121
377	18	39	40	41	80
378	15	43	44	45	46
378	16	43	44	45	46
378	17	43	44	45	46
379	18	8	7	6	27
380	18	41	40	39	84
381	27	152	145	144	154
382	27	68	47	46	70
383	22	13	33	34	94
384	18	131	130	129	183
385	18	41	42	43	76
386	27	65	48	47	68
387	18	141	142	143	156
388	18	43	44	45	72
389	27	171	135	134	173
390	18	144	143	142	158
391	27	79	41	40	82
392	27	20	9	8	23
393	27	19	10	9	21
394	18	129	130	131	180
395	15	134	135	136	137
395	16	134	135	136	137
395	17	134	135	136	137
396	18	133	132	131	180
397	18	133	134	135	171
398	18	45	44	43	76
399	15	127	128	129	130
399	16	127	128	129	130
399	17	127	128	129	130
400	1	10	11	12	13
400	2	10	11	12	13
400	3	10	11	12	13
400	4	10	11	12	13
401	15	40	41	42	43
401	16	40	41	42	43
401	17	40	41	42	43
402	14	51	52	53	54
403	5	99	98	97	125
403	6	99	98	97	125
404	27	181	130	129	183
405	18	34	35	36	89
406	18	145	144	143	155
407	15	50	51	52	53
407	16	50	51	52	53
407	17	50	51	52	53
408	15	129	130	131	132
408	16	129	130	131	132
408	17	129	130	131	132
409	18	6	5	4	31
410	27	184	129	128	185
411	27	20	9	8	22
412	18	128	129	130	182
413	27	78	42	41	79
414	18	101	102	103	114
415	18	140	139	138	166
416	27	180	131	130	181
417	27	163	139	138	166
418	9	96	95	97	98
418	10	96	95	97	98
419	18	100	99	98	124
420	27	163	139	138	165
421	27	92	35	34	93
422	15	131	132	133	134
422	16	131	132	133	134