Title

7625 atoms
7750 bonds
12875 angles
20125 dihedrals
6000 impropers

8 atom types
12 bond types
6 angle types
22 dihedral types
2 improper types
-6.520727897 70.84618844 xlo xhi
-6.399087801 70.92438287 ylo yhi
-6.372587049 71.39597983 zlo zhi
0.0 0.0 0.0 xy xz yz

Masses

1	15.99943
2	12.01078
3	1.007947
4	12.01078
5	15.99943
6	1.007947
7	15.99943
8	1.007947


Pair Coeffs

1	0.16846514	3.0251065
2	0.10884061	3.3795318
3	0.016409246	2.5832257
4	0.086879315	3.4806469
5	0.2102061	3.0398122
6	0.015611343	2.5725815
7	0.20947353	2.99716
8	1.2326e-05	0.53453923

Bond Coeffs

1 harmonic	366.7408841747	1.425895053732
2 harmonic	300.03137914615	1.451203938761
3 harmonic	264.62148576755	1.52190126495
4 harmonic	370.04670688625	1.093899492634
5 harmonic	301.15400723785	1.345741232799
6 harmonic	582.698766451	1.225198386222
7 harmonic	279.1350963404	1.454628925034
8 harmonic	360.7852444772	1.387193227181
9 harmonic	397.2545789619	1.085358495916
10 harmonic	329.96998057905	1.427343958716
11 harmonic	543.5267831885	0.9716763312559
12 harmonic	385.7604595587	1.369745182308


Angle Coeffs

1 harmonic	53.20531626545	116.5475862634
2 harmonic	65.09061609600001	110.3538806181
3 harmonic	201.41175231035	127.4691416191
4 harmonic	57.8982893754	126.8062420451
5 harmonic	48.776492647595	115.6030999533
6 harmonic	34.066775159195	129.1835929926


Dihedral Coeffs

1 fourier 1	-0.0309670556842	3	0
2 fourier 1	0.4598191477945	2	0
3 fourier 1	0.1115525666802	3	0
4 fourier 1	0.3432490222662	1	0
5 fourier 1	0.0473758381877	3	0
6 fourier 1	0.457973137376	1	0
7 fourier 1	0.4552156463534	3	0
8 fourier 1	-0.03687743385131	2	180
9 fourier 1	0.1918272375143	3	0
10 fourier 1	0.9202179876409	1	180
11 fourier 1	1.163809172478	2	180
12 fourier 1	0.1679186987369	1	180
13 fourier 1	2.779853741805	2	180
14 fourier 1	0.9974165607242	2	180
15 fourier 1	0.1911926717192	3	0
16 fourier 1	3.661930099076	2	180
17 fourier 1	0.3445382149273	3	0
18 fourier 1	0.1364556373303	1	0
19 fourier 1	0.3026390167484	3	0
20 fourier 1	2.687457892086	2	180
21 fourier 1	2.772607909663	2	180
22 fourier 1	0.09692684957115	1	0


Improper Coeffs

1 3.5	-1	2
2 0.3666666666666667	-1	2


Atoms

1	4	1	-0.1396858	2.2532919	0.97368025	-0.23232546
2	4	2	0.030563466	1.2957204	0.22731274	0.46672419
3	4	2	0.080769673	-0.10598002	0.53210564	-0.063216515
4	4	1	-0.48679987	-1.0805837	-0.12900836	0.72180257
5	4	2	0.078232951	-1.4659716	-1.3443024	0.11511107
6	4	2	0.13516354	-2.4055305	-2.0960863	1.0534267
7	4	1	-0.50356234	-2.8384798	-3.2884812	0.45807294
8	4	3	0.087472536	-1.8922265	-2.3068086	2.0188572
9	4	3	0.087472536	-3.2925379	-1.4629413	1.2661009
10	4	3	0.08796329	-0.58003947	-1.9888389	-0.088503528
11	4	3	0.08796329	-2.0056864	-1.1435911	-0.83822622
12	4	3	0.089519098	-0.2818225	1.6255574	0.025308147
13	4	3	0.089519098	-0.16729662	0.29017839	-1.1512103
14	4	3	0.093405768	1.3469103	0.50282735	1.5422144
15	4	3	0.093405768	1.516382	-0.86084447	0.38123533
16	5	4	0.79019915	-2.0513343	-3.9604241	0.53301014
17	5	5	-0.5646714	-2.2949495	-5.1486681	0.87619799
18	5	4	-0.23956039	-0.67682509	-3.5142521	0.23768639
19	5	4	-0.09521097	0.36943857	-4.3564401	0.32413163
20	5	6	0.21333263	0.23373268	-5.3909419	0.6134965
21	5	4	-0.26635794	1.7334626	-3.8797139	0.022602898
22	5	6	0.1868596	2.5693707	-4.5646631	0.09436877
23	5	4	-0.056423798	1.9386275	-2.607543	-0.33871887
24	5	6	0.20144286	2.945201	-2.2732106	-0.55673646
25	5	4	-0.30475888	0.79547524	-1.6659166	-0.43867703
26	5	4	0.57590096	1.0108291	-0.26337869	-0.83586855
27	5	5	-0.59835923	2.1674661	0.16329389	-1.0975693
28	5	4	0.044143163	-0.44580246	-2.1048759	-0.16262383
29	5	6	0.22994628	-1.2908194	-1.4298834	-0.23176439
30	1	1	-0.1396858	2.3700307	0.5307223	-1.1137546
31	1	2	0.030563466	1.193037	0.76454204	-1.8375088
32	1	2	0.080894209	0.071308796	-0.14666224	-1.3367277
33	1	1	-0.4845698	-1.0794058	0.0040208419	-2.1463348
34	1	2	0.053043969	-1.9878711	0.90836752	-1.5535879
35	1	2	0.075418502	-3.1450013	1.1564972	-2.517156
36	1	7	-0.67891193	-4.0855273	2.0187488	-1.9366612
37	1	8	0.39301776	-3.7060576	2.9337676	-1.9956632
38	1	3	0.09021429	-2.7634508	1.5817603	-3.4721992
39	1	3	0.09021429	-3.6437648	0.19029401	-2.7458398
40	1	3	0.090398632	-1.4964245	1.884364	-1.3340995
41	1	3	0.090398632	-2.3979744	0.47956443	-0.61124127
42	1	3	0.089519098	0.41341486	-1.199792	-1.4233652
43	1	3	0.089519098	-0.11637624	0.03513368	-0.25057924
44	1	3	0.093405768	1.3882169	0.5477878	-2.909106
45	1	3	0.093405768	0.89412595	1.8331717	-1.7528571
46	2	4	0.57590096	0.17335845	0.41840709	-0.90638889
47	2	5	-0.59835923	-0.75531548	0.16052916	-1.7187981
48	2	4	-0.304759	0.13795892	1.6246774	-0.058874925
49	2	4	-0.056423836	-0.88625056	2.4951562	-0.1180577
50	2	6	0.20144285	-1.7172275	2.3358418	-0.7936147
51	2	4	-0.26635803	-0.8930481	3.6933547	0.74323208
52	2	6	0.1868596	-1.7216792	4.388128	0.68788365
53	2	4	-0.091037504	0.117608	3.9214672	1.5893154
54	2	6	0.21333266	0.094394252	4.8062417	2.212845
55	2	4	-0.23346279	1.2573071	2.9732748	1.6706735
56	2	4	0.82786494	2.3678602	3.2388279	2.611122
57	2	5	-0.5408907	3.3445691	2.4455896	2.6936845
58	2	7	-0.67684359	2.3426515	4.3746271	3.4152772
59	2	8	0.4009222	3.0963586	4.5696833	4.0637992
60	2	4	0.047134239	1.2578755	1.8805509	0.8807791
61	2	6	0.22994625	2.0771493	1.17364	0.9208592
62	4	1	-0.1396858	-1.6249429	-0.73224824	15.4127
63	4	2	0.030563466	-1.1276404	0.21106724	14.504117
64	4	2	0.080769673	0.31974302	-0.11759439	14.135928
65	4	1	-0.48679987	0.8591521	0.90074459	13.314221
66	4	2	0.078232951	0.77002846	0.53913312	11.952299
67	4	2	0.13516354	1.225937	1.713911	11.091816
68	4	1	-0.50356234	1.1882604	1.3680528	9.73437
69	4	3	0.087472536	0.58178505	2.6012901	11.28564
70	4	3	0.087472536	2.2695385	1.9805112	11.361455
71	4	3	0.08796329	-0.27811833	0.28312775	11.67371
72	4	3	0.08796329	1.4329051	-0.33070481	11.741572
73	4	3	0.089519098	0.91788959	-0.15281929	15.071542
74	4	3	0.089519098	0.38031534	-1.1367705	13.684674
75	4	3	0.093405768	-1.164098	1.2150722	14.979356
76	4	3	0.093405768	-1.7645912	0.24114442	13.591168
77	5	4	0.79019915	0.19199155	1.4041495	9.4465049
78	5	5	-0.5646714	-0.10538953	1.9431732	8.3464741
79	5	4	-0.23956039	-0.84497589	0.82781614	10.322918
80	5	4	-0.09521097	-2.1471199	0.85592252	9.9837245
81	5	6	0.21333263	-2.4744577	1.3034208	9.0537045
82	5	4	-0.26635794	-3.1614883	0.27104657	10.88246
83	5	6	0.1868596	-4.2070295	0.29780508	10.601079
84	5	4	-0.056423798	-2.7931698	-0.29091702	12.039873
85	5	6	0.20144286	-3.5492853	-0.71572762	12.688197
86	5	4	-0.30475888	-1.3611481	-0.32996041	12.428767
87	5	4	0.57590096	-0.9453615	-0.94659674	13.700825
88	5	5	-0.59835923	-1.7957622	-1.4515141	14.481993
89	5	4	0.044143163	-0.44031765	0.20461054	11.606595
90	5	6	0.22994628	0.60917033	0.18328842	11.875982
91	1	1	-0.1396858	-1.8278686	-1.5513138	14.888573
92	1	2	0.030563466	-0.5949541	-2.0965054	14.505827
93	1	2	0.080894209	0.002876283	-1.2970798	13.347006
94	1	1	-0.4845698	1.1861458	-1.9189958	12.882887
95	1	2	0.053043969	2.3238211	-1.315021	13.462033
96	1	2	0.075418502	3.5674402	-2.0996748	13.053729
97	1	7	-0.67891193	4.7181755	-1.4965851	13.580162
98	1	8	0.39301776	4.7534419	-1.7427895	14.540828
99	1	3	0.09021429	3.4861111	-3.1538804	13.400966
100	1	3	0.09021429	3.6469754	-2.1077402	11.945479
101	1	3	0.090398632	2.2558077	-1.3160805	14.574524
102	1	3	0.090398632	2.4308299	-0.26802447	13.098136
103	1	3	0.089519098	-0.72987209	-1.2929563	12.512328
104	1	3	0.089519098	0.143899	-0.2304022	13.647515
105	1	3	0.093405768	-0.75845856	-3.1453893	14.179473
106	1	3	0.093405768	0.10511504	-2.1118194	15.370785
107	2	4	0.57590096	0.1001859	-0.97144554	13.978989
108	2	5	-0.59835923	0.9151765	-1.5763862	13.231471
109	2	4	-0.304759	0.54455846	-0.30406921	15.216633
110	2	4	-0.056423836	1.8356492	-0.31308008	15.595109
111	2	6	0.20144285	2.5892009	-0.81403524	15.000564
112	2	4	-0.26635803	2.2494477	0.36415101	16.839165
113	2	6	0.1868596	3.2908336	0.35087461	17.135378
114	2	4	-0.091037504	1.3446669	0.99257576	17.597962
115	2	6	0.21333266	1.6679272	1.4834807	18.507175
116	2	4	-0.23346279	-0.085129839	1.0149266	17.198232
117	2	4	0.82786494	-1.0742787	1.7138999	18.047532
118	2	5	-0.5408907	-2.2929123	1.7429281	17.724897
119	2	7	-0.67684359	-0.66382625	2.3469597	19.217193
120	2	8	0.4009222	-1.3300552	2.8293151	19.808948
121	2	4	0.047134239	-0.45697003	0.39391939	16.060663
122	2	6	0.22994625	-1.4933679	0.39549742	15.74695
123	4	1	-0.1396858	1.7514425	0.91560362	28.892193
124	4	2	0.030563466	0.47344557	0.95459495	28.319583
125	4	2	0.080769673	0.42103422	0.065875913	27.076228
126	4	1	-0.48679987	-0.83156861	0.19997851	26.431107
127	4	2	0.078232951	-1.7030147	-0.84166356	26.817243
128	4	2	0.13516354	-3.0832621	-0.58711915	26.218486
129	4	1	-0.50356234	-3.9590805	-1.6293276	26.550812
130	4	3	0.087472536	-3.4823187	0.38733657	26.580606
131	4	3	0.087472536	-2.9973886	-0.53448263	25.11271
132	4	3	0.08796329	-1.8025442	-0.89015478	27.926074
133	4	3	0.08796329	-1.3274443	-1.818182	26.435422
134	4	3	0.089519098	1.2066117	0.408875	26.369395
135	4	3	0.089519098	0.67657824	-0.98708361	27.344542
136	4	3	0.093405768	0.24689636	2.0029593	28.028352
137	4	3	0.093405768	-0.29211339	0.63230472	29.061294
138	5	4	0.79019915	-4.2403548	-1.4771645	27.537956
139	5	5	-0.5646714	-5.4514625	-1.6226569	27.855918
140	5	4	-0.23956039	-3.2252011	-1.0983763	28.538727
141	5	4	-0.09521097	-3.5517868	-0.89234789	29.828035
142	5	6	0.21333263	-4.5730445	-0.99928352	30.171459
143	5	4	-0.26635794	-2.5130021	-0.51365721	30.805925
144	5	6	0.1868596	-2.7849583	-0.35031786	31.841496
145	5	4	-0.056423798	-1.2401742	-0.37293161	30.417119
146	5	6	0.20144286	-0.48980857	-0.094788457	31.146562
147	5	4	-0.30475888	-0.86345591	-0.59642152	28.998815
148	5	4	0.57590096	0.53518248	-0.44423147	28.560752
149	5	5	-0.59835923	1.4369403	-0.12165198	29.379972
150	5	4	0.044143163	-1.8136709	-0.94112194	28.111159
151	5	6	0.22994628	-1.5544392	-1.1084934	27.072297
152	1	1	-0.1396858	1.8204416	0.049162702	29.373105
153	1	2	0.030563466	1.8803759	-0.94909487	28.391425
154	1	2	0.080894209	0.49240502	-1.1945037	27.797572
155	1	1	-0.4845698	0.53213333	-2.2837398	26.895187
156	1	2	0.053043969	0.66458806	-1.8227258	25.566871
157	1	2	0.075418502	0.84865396	-3.0204437	24.6392
158	1	7	-0.67891193	0.93997939	-2.5946622	23.306755
159	1	8	0.39301776	1.8557091	-2.2315785	23.186974
160	1	3	0.09021429	1.7580654	-3.5928274	24.928828
161	1	3	0.09021429	-0.028256977	-3.6959089	24.736071
162	1	3	0.090398632	1.5507228	-1.1550857	25.460636
163	1	3	0.090398632	-0.25300396	-1.2730575	25.257091
164	1	3	0.089519098	-0.1979548	-1.4626969	28.625281
165	1	3	0.089519098	0.094039523	-0.25263538	27.347925
166	1	3	0.093405768	2.2467332	-1.8859445	28.862055
167	1	3	0.093405768	2.600651	-0.66213195	27.593089
168	2	4	0.57590096	0.80342185	-0.60800135	27.525189
169	2	5	-0.59835923	0.59578937	-1.7414021	27.014076
170	2	4	-0.304759	1.4022473	0.4885099	26.741804
171	2	4	-0.056423836	1.7483425	0.32309296	25.452193
172	2	6	0.20144285	1.5982881	-0.62431614	24.950018
173	2	4	-0.26635803	2.3454318	1.4397874	24.69455
174	2	6	0.1868596	2.6209769	1.2965277	23.657268
175	2	4	-0.091037504	2.5452278	2.6239265	25.283799
176	2	6	0.21333266	2.9846702	3.4308724	24.711188
177	2	4	-0.23346279	2.1699839	2.8278006	26.70585
178	2	4	0.82786494	2.3969692	4.1429215	27.343991
179	2	5	-0.5408907	2.085543	4.3347724	28.550727
180	2	7	-0.67684359	2.9612054	5.1837694	26.612135
181	2	8	0.4009222	3.122853	6.0898132	27.035994
182	2	4	0.047134239	1.6252498	1.8034488	27.392834
183	2	6	0.22994625	1.3429372	1.9261797	28.430994
184	4	1	-0.1396858	0.92235024	2.2814232	40.972835
185	4	2	0.030563466	1.0721895	0.89114677	41.058612
186	4	2	0.080769673	-0.22079819	0.24743336	41.560923
187	4	1	-0.48679987	-0.030592866	-1.1405629	41.762088
188	4	2	0.078232951	-0.48216992	-1.8711896	40.641462
189	4	2	0.13516354	-0.13211684	-3.3443278	40.83044
190	4	1	-0.50356234	-0.6070333	-4.1011022	39.750883
191	4	3	0.087472536	0.96999184	-3.464102	40.93509
192	4	3	0.087472536	-0.60884218	-3.7162194	41.761737
193	4	3	0.08796329	0.0034205376	-1.5100252	39.705768
194	4	3	0.08796329	-1.5879896	-1.781005	40.544207
195	4	3	0.089519098	-0.47798823	0.70161988	42.541719
196	4	3	0.089519098	-1.0644113	0.48888997	40.87097
197	4	3	0.093405768	1.8931608	0.66611044	41.773156
198	4	3	0.093405768	1.3566596	0.47142799	40.067149
199	5	4	0.79019915	0.046579587	-3.9355754	38.962142
200	5	5	-0.5646714	0.42057461	-4.916575	38.264419
201	5	4	-0.23956039	0.51851513	-2.5675892	38.676745
202	5	4	-0.09521097	1.3664246	-2.3137258	37.66283
203	5	6	0.21333263	1.7288762	-3.1084728	37.023026
204	5	4	-0.26635794	1.8211013	-0.93373763	37.402732
205	5	6	0.1868596	2.5031525	-0.73878036	36.584291
206	5	4	-0.056423798	1.3932473	0.07362088	38.172949
207	5	6	0.20144286	1.7359116	1.0803793	37.969188
208	5	4	-0.30475888	0.45806008	-0.18951539	39.295283
209	5	4	0.57590096	-0.019006382	0.91272761	40.148934
210	5	5	-0.59835923	0.35718036	2.0978881	39.943448
211	5	4	0.044143163	0.046663317	-1.4488599	39.528661
212	5	6	0.22994628	-0.63654773	-1.6570903	40.343714
213	1	1	-0.1396858	0.38618886	2.4590191	40.155677
214	1	2	0.030563466	-0.91477479	2.0143047	40.426838
215	1	2	0.080894209	-0.98248018	0.48844434	40.346121
216	1	1	-0.4845698	-2.3187944	0.049336788	40.50027
217	1	2	0.053043969	-2.5640965	-0.33285683	41.837527
218	1	2	0.075418502	-4.0455844	-0.66187936	41.998524
219	1	7	-0.67891193	-4.310464	-1.0864193	43.307968
220	1	8	0.39301776	-4.3254019	-0.27089992	43.873161
221	1	3	0.09021429	-4.6650256	0.22696335	41.743988
222	1	3	0.09021429	-4.3160887	-1.4814591	41.298719
223	1	3	0.090398632	-2.3070994	0.490486	42.543447
224	1	3	0.090398632	-1.9704865	-1.2395718	42.093592
225	1	3	0.089519098	-0.63573918	0.17742669	39.337824
226	1	3	0.089519098	-0.27226064	0.032336849	41.077933
227	1	3	0.093405768	-1.601981	2.4505053	39.671276
228	1	3	0.093405768	-1.2412371	2.3663128	41.430828
229	2	4	0.57590096	-0.70032999	0.71436373	40.966009
230	2	5	-0.59835923	-1.8260653	0.20772085	40.711101
231	2	4	-0.304759	-0.30088843	1.0397256	42.347749
232	2	4	-0.056423836	-1.1203429	0.80730064	43.389245
233	2	6	0.20144285	-2.1018368	0.37428733	43.242786
234	2	4	-0.26635803	-0.69180065	1.1436023	44.760668
235	2	6	0.1868596	-1.3587115	0.95311202	45.59214
236	2	4	-0.091037504	0.51412845	1.6801203	44.977926
237	2	6	0.21333266	0.81019967	1.9200351	45.991305
238	2	4	-0.23346279	1.4339999	1.9442613	43.842731
239	2	4	0.82786494	2.7645265	2.5380409	44.098494
240	2	5	-0.5408907	3.5589862	2.7703341	43.147244
241	2	7	-0.67684359	3.1501922	2.847924	45.399484
242	2	8	0.4009222	4.0582281	3.2552882	45.589819
243	2	4	0.047134239	1.0364311	1.6351778	42.591977
244	2	6	0.22994625	1.6883781	1.8179339	41.74693
245	4	1	-0.1396858	0.67575238	-1.2820851	56.830581
246	4	2	0.030563466	0.62355823	-1.0909016	55.443713
247	4	2	0.080769673	-0.47682637	-0.090944793	55.086305
248	4	1	-0.48679987	-0.60909466	0.0097486124	53.680764
249	4	2	0.078232951	0.11260291	1.1207026	53.192429
250	4	2	0.13516354	0.066895594	1.1158742	51.667216
251	4	1	-0.50356234	0.7404125	2.2330277	51.155318
252	4	3	0.087472536	0.51740814	0.17607686	51.275093
253	4	3	0.087472536	-0.99141569	1.1556939	51.333635
254	4	3	0.08796329	1.1787204	1.0783902	53.513933
255	4	3	0.08796329	-0.34727149	2.0676132	53.556166
256	4	3	0.089519098	-1.4385067	-0.47115586	55.492513
257	4	3	0.089519098	-0.28676036	0.88698933	55.589832
258	4	3	0.093405768	0.40154869	-2.066152	54.959145
259	4	3	0.093405768	1.6092949	-0.73713312	55.06522
260	5	4	0.79019915	1.7548844	2.0292888	51.233152
261	5	5	-0.5646714	2.5090337	2.3097718	50.262772
262	5	4	-0.23956039	2.287439	1.4222657	52.467441
263	5	4	-0.09521097	3.5968764	1.1433587	52.605301
264	5	6	0.21333263	4.3019973	1.3572924	51.811967
265	5	4	-0.26635794	4.0993731	0.53531989	53.852913
266	5	6	0.1868596	5.1548071	0.31474259	53.955152
267	5	4	-0.056423798	3.256614	0.25767085	54.854778
268	5	6	0.20144286	3.6407928	-0.1882375	55.763663
269	5	4	-0.30475888	1.8095042	0.5589706	54.718614
270	5	4	0.57590096	0.87350286	0.25730284	55.815951
271	5	5	-0.59835923	1.2824467	-0.26167836	56.889157
272	5	4	0.044143163	1.3561413	1.112846	53.579604
273	5	6	0.22994628	0.30257745	1.3394598	53.465156
274	1	1	-0.1396858	1.126105	-0.48228137	57.210388
275	1	2	0.030563466	0.22983145	0.58570761	57.069324
276	1	2	0.080894209	0.20933999	1.0744546	55.620167
277	1	1	-0.4845698	-0.60267086	2.2275089	55.504335
278	1	2	0.053043969	-1.8991062	1.8790785	55.065754
279	1	2	0.075418502	-2.7848436	3.1215888	55.090646
280	1	7	-0.67891193	-4.0684176	2.8139499	54.618589
281	1	8	0.39301776	-4.5358985	2.3410366	55.355171
282	1	3	0.09021429	-2.8374839	3.5336103	56.12312
283	1	3	0.09021429	-2.3420437	3.8993201	54.432108
284	1	3	0.090398632	-2.3537627	1.1086695	55.730601
285	1	3	0.090398632	-1.8612538	1.4924689	54.022119
286	1	3	0.089519098	1.2445896	1.3564717	55.333201
287	1	3	0.089519098	-0.091141468	0.2427105	54.937593
288	1	3	0.093405768	0.56158087	1.4149464	57.729402
289	1	3	0.093405768	-0.79010472	0.27831221	57.391381
290	2	4	0.57590096	-0.18051257	0.47881569	55.710379
291	2	5	-0.59835923	-0.53571844	1.6728454	55.517851
292	2	4	-0.304759	-1.1698085	-0.61149559	55.794854
293	2	4	-0.056423836	-2.4882913	-0.37529138	55.668158
294	2	6	0.20144285	-2.8634377	0.62657745	55.50141
295	2	4	-0.26635803	-3.4538104	-1.4876754	55.757156
296	2	6	0.1868596	-4.5128897	-1.2872314	55.654315
297	2	4	-0.091037504	-3.025095	-2.7379724	55.962774
298	2	6	0.21333266	-3.7490597	-3.5405492	56.025222
299	2	4	-0.23346279	-1.5743698	-3.0204842	56.104848
300	2	4	0.82786494	-1.1152274	-4.4082569	56.331929
301	2	5	-0.5408907	0.11254354	-4.6675399	56.455843
302	2	7	-0.67684359	-2.0418371	-5.4437437	56.412568
303	2	8	0.4009222	-1.7421106	-6.3990878	56.568078
304	2	4	0.047134239	-0.69722757	-1.9997471	56.023018
305	2	6	0.22994625	0.36593382	-2.1790991	56.123316
306	4	1	-0.1396858	2.1374173	12.506564	-0.25503156
307	4	2	0.030563466	1.0794116	12.994809	0.52273391
308	4	2	0.080769673	0.31977045	14.083136	-0.2368637
309	4	1	-0.48679987	-0.6711452	14.658953	0.593618
310	4	2	0.078232951	-1.9286052	14.064025	0.35197144
311	4	2	0.13516354	-2.939534	14.604127	1.3592945
312	4	1	-0.50356234	-4.2085224	14.061906	1.1156505
313	4	3	0.087472536	-2.607986	14.368864	2.3959567
314	4	3	0.087472536	-3.00008	15.708319	1.2594054
315	4	3	0.08796329	-1.8757781	12.956567	0.46380843
316	4	3	0.08796329	-2.2826074	14.316892	-0.67329426
317	4	3	0.089519098	1.0399362	14.882977	-0.51256414
318	4	3	0.089519098	-0.08059348	13.675418	-1.195766
319	4	3	0.093405768	1.496345	13.426305	1.4582473
320	4	3	0.093405768	0.39249301	12.164997	0.80494264
321	5	4	0.79019915	-4.1935888	13.093153	1.487153
322	5	5	-0.5646714	-5.1826909	12.679347	2.1500951
323	5	4	-0.23956039	-3.0257712	12.228941	1.232397
324	5	4	-0.09521097	-2.9699616	10.967387	1.6980034
325	5	6	0.21333263	-3.7835894	10.54656	2.2752866
326	5	4	-0.26635794	-1.7870335	10.127254	1.4266981
327	5	6	0.1868596	-1.7510449	9.1130283	1.8049824
328	5	4	-0.056423798	-0.76280253	10.614196	0.71613237
329	5	6	0.20144286	0.097802792	9.9852722	0.52557092
330	5	4	-0.30475888	-0.8086371	12.003572	0.19557233
331	5	4	0.57590096	0.31378585	12.548953	-0.58799479
332	5	5	-0.59835923	1.3326535	11.847979	-0.83067067
333	5	4	0.044143163	-1.8886832	12.765568	0.44561721
334	5	6	0.22994628	-1.9375399	13.781608	0.071818622
335	1	1	-0.1396858	1.7350823	11.905379	-0.93581048
336	1	2	0.030563466	1.034573	12.726255	-1.8298216
337	1	2	0.080894209	-0.2850169	13.185262	-1.2074518
338	1	1	-0.4845698	-1.0450742	13.912836	-2.1536344
339	1	2	0.053043969	-0.85355854	15.301417	-1.9813941
340	1	2	0.075418502	-1.5702548	16.046805	-3.1037683
341	1	7	-0.67891193	-1.4328623	17.431467	-2.9338361
342	1	8	0.39301776	-0.51403479	17.663711	-3.2280409
343	1	3	0.09021429	-1.1648385	15.733072	-4.0915669
344	1	3	0.09021429	-2.6515728	15.792327	-3.0792236
345	1	3	0.090398632	0.22887034	15.56454	-2.0185094
346	1	3	0.090398632	-1.2820602	15.631056	-1.007845
347	1	3	0.089519098	-0.86791748	12.283676	-0.92285533
348	1	3	0.089519098	-0.089871765	13.745789	-0.26102599
349	1	3	0.093405768	0.82048075	12.143727	-2.750812
350	1	3	0.093405768	1.6564862	13.603643	-2.1159984
351	2	4	0.57590096	0.27463195	13.562864	-0.96430875
352	2	5	-0.59835923	-0.64910631	13.881857	-1.7604846
353	2	4	-0.304759	1.294935	14.540341	-0.54224153
354	2	4	-0.056423836	1.278972	15.809606	-0.98828306
355	2	6	0.20144285	0.51437747	16.151683	-1.6743297
356	2	4	-0.26635803	2.313879	16.76464	-0.54734764
357	2	6	0.1868596	2.2926317	17.783827	-0.91232489
358	2	4	-0.091037504	3.2735537	16.375761	0.299479
359	2	6	0.21333266	4.0240052	17.091181	0.61116938
360	2	4	-0.23346279	3.3091804	14.979811	0.80411471
361	2	4	0.82786494	4.3766355	14.564309	1.7401635
362	2	5	-0.5408907	4.4237749	13.38303	2.1787545
363	2	7	-0.67684359	5.3435656	15.480295	2.1443369
364	2	8	0.4009222	6.0808211	15.209946	2.7847022
365	2	4	0.047134239	2.3610266	14.111842	0.39715784
366	2	6	0.22994625	2.3646552	13.088242	0.75038322
367	4	1	-0.1396858	1.1324195	12.451548	15.502252
368	4	2	0.030563466	0.63214741	13.638581	14.951471
369	4	2	0.080769673	0.4187626	13.477061	13.445855
370	4	1	-0.48679987	0.029108727	14.710564	12.871556
371	4	2	0.078232951	-1.3749846	14.77431	12.737405
372	4	2	0.13516354	-1.7685216	16.166253	12.251596
373	4	1	-0.50356234	-3.155587	16.245105	12.068487
374	4	3	0.087472536	-1.4276526	16.935372	12.981119
375	4	3	0.087472536	-1.2700953	16.368265	11.280181
376	4	3	0.08796329	-1.8794573	14.584966	13.712811
377	4	3	0.08796329	-1.7236557	14.027531	11.988285
378	4	3	0.089519098	1.3854324	13.178025	12.98703
379	4	3	0.089519098	-0.29627296	12.643623	13.245547
380	4	3	0.093405768	1.3691709	14.451002	15.13029
381	4	3	0.093405768	-0.32084146	13.924785	15.451456
382	5	4	0.79019915	-3.574764	16.338388	13.013109
383	5	5	-0.5646714	-4.5006127	17.175585	13.18905
384	5	4	-0.23956039	-3.0828609	15.495648	14.119175
385	5	4	-0.09521097	-3.6014108	15.588217	15.357705
386	5	6	0.21333263	-4.3986562	16.286061	15.580764
387	5	4	-0.26635794	-3.0873815	14.731236	16.444032
388	5	6	0.1868596	-3.511026	14.812281	17.437514
389	5	4	-0.056423798	-2.1029021	13.856857	16.204601
390	5	6	0.20144286	-1.7368217	13.235209	17.01209
391	5	4	-0.30475888	-1.5200621	13.742517	14.844207
392	5	4	0.57590096	-0.4360281	12.782781	14.570292
393	5	5	-0.59835923	0.016744865	12.04207	15.483905
394	5	4	0.044143163	-1.9915742	14.525834	13.857419
395	5	6	0.22994628	-1.5770112	14.4537	12.858728
396	1	1	-0.1396858	0.36556057	11.823404	15.566433
397	1	2	0.030563466	0.040752595	11.453905	14.254268
398	1	2	0.080894209	-0.72165976	12.582123	13.557705
399	1	1	-0.4845698	-1.1535979	12.162661	12.277161
400	1	2	0.053043969	-0.24939121	12.595459	11.282376
401	1	2	0.075418502	-0.66691666	12.005764	9.938161
402	1	7	-0.67891193	0.1894212	12.453988	8.9228671
403	1	8	0.39301776	1.0282209	11.930535	9.0074205
404	1	3	0.09021429	-0.66216966	10.894074	9.9897232
405	1	3	0.09021429	-1.701247	12.334645	9.7002356
406	1	3	0.090398632	0.78808897	12.256927	11.50886
407	1	3	0.090398632	-0.26787558	13.706027	11.202547
408	1	3	0.089519098	-1.6237308	12.817293	14.161517
409	1	3	0.089519098	-0.10270081	13.511964	13.540996
410	1	3	0.093405768	-0.60091665	10.548187	14.290784
411	1	3	0.093405768	0.96288041	11.198019	13.686214
412	2	4	0.57590096	-0.01485461	12.704527	13.576485
413	2	5	-0.59835923	-0.76750149	12.376402	12.620033
414	2	4	-0.304759	1.4183966	12.979636	13.364998
415	2	4	-0.056423836	1.9778245	12.893104	12.144426
416	2	6	0.20144285	1.390134	12.616205	11.27827
417	2	4	-0.26635803	3.4151511	13.174812	11.964764
418	2	6	0.1868596	3.856074	13.102025	10.978512
419	2	4	-0.091037504	4.1710466	13.519395	13.013192
420	2	6	0.21333266	5.2236367	13.722008	12.861022
421	2	4	-0.23346279	3.5734447	13.621159	14.368596
422	2	4	0.82786494	4.4219491	14.003303	15.518507
423	2	5	-0.5408907	3.9325585	14.094099	16.677065
424	2	7	-0.67684359	5.7756472	14.265266	15.328196
425	2	8	0.4009222	6.3691322	14.527733	16.106392
426	2	4	0.047134239	2.2596754	13.362085	14.526297
427	2	6	0.22994625	1.7996145	13.429143	15.504247
428	4	1	-0.1396858	-1.3566567	14.395272	29.359008
429	4	2	0.030563466	-0.74972949	13.418444	28.558931
430	4	2	0.080769673	-0.40264021	13.996388	27.186338
431	4	1	-0.48679987	0.09876822	12.979244	26.33947
432	4	2	0.078232951	1.5106884	12.983557	26.340388
433	4	2	0.13516354	2.0152167	11.78973	25.535022
434	4	1	-0.50356234	3.4155751	11.792803	25.483216
435	4	3	0.087472536	1.6442518	10.841436	25.985649
436	4	3	0.087472536	1.621443	11.855731	24.498937
437	4	3	0.08796329	1.9107074	12.904401	27.377442
438	4	3	0.08796329	1.8923468	13.915999	25.865711
439	4	3	0.089519098	-1.3347683	14.391677	26.728869
440	4	3	0.089519098	0.28710295	14.866867	27.298322
441	4	3	0.093405768	-1.4603133	12.573681	28.429877
442	4	3	0.093405768	0.16427457	13.023762	29.057839
443	5	4	0.79019915	3.7473401	11.449061	26.404353
444	5	5	-0.5646714	4.6916638	10.614751	26.439427
445	5	4	-0.23956039	3.1127174	11.941048	27.641593
446	5	4	-0.09521097	3.5153988	11.51829	28.854253
447	5	6	0.21333263	4.3206575	10.802127	28.959186
448	5	4	-0.26635794	2.8599592	12.028996	30.074223
449	5	6	0.1868596	3.1909445	11.683515	31.045892
450	5	4	-0.056423798	1.8615608	12.915483	29.982542
451	5	6	0.20144286	1.3910179	13.280669	30.886825
452	5	4	-0.30475888	1.4054541	13.391734	28.652654
453	5	4	0.57590096	0.30721503	14.367779	28.541042
454	5	5	-0.59835923	-0.2653338	14.816066	29.570398
455	5	4	0.044143163	2.0056279	12.923247	27.543613
456	5	6	0.22994628	1.6845964	13.261802	26.565468
457	1	1	-0.1396858	-0.63054616	14.99611	29.672877
458	1	2	0.030563466	-0.20103935	15.722259	28.553932
459	1	2	0.080894209	0.67752063	14.847712	27.658025
460	1	1	-0.4845698	1.2081415	15.615208	26.59421
461	1	2	0.053043969	0.42424221	15.457903	25.430054
462	1	2	0.075418502	0.93835158	16.406296	24.350599
463	1	7	-0.67891193	0.20473799	16.240841	23.167604
464	1	8	0.39301776	-0.66258016	16.703177	23.304507
465	1	3	0.09021429	0.87509306	17.459508	24.704548
466	1	3	0.09021429	2.0052383	16.177391	24.14092
467	1	3	0.090398632	-0.64515773	15.699195	25.631116
468	1	3	0.090398632	0.50378526	14.413903	25.050828
469	1	3	0.089519098	1.5285916	14.472157	28.264871
470	1	3	0.089519098	0.10853161	13.94691	27.322166
471	1	3	0.093405768	0.38981792	16.594844	28.904474
472	1	3	0.093405768	-1.0764423	16.107366	27.984858
473	2	4	0.57590096	-0.021147752	14.71072	27.568555
474	2	5	-0.59835923	0.80205146	15.306858	26.822963
475	2	4	-0.304759	-1.4129456	14.476473	27.141182
476	2	4	-0.056423836	-1.857684	14.88762	25.939763
477	2	6	0.20144285	-1.2045919	15.406143	25.249194
478	2	4	-0.26635803	-3.2562322	14.638106	25.540574
479	2	6	0.1868596	-3.6046846	14.9733	24.571745
480	2	4	-0.091037504	-4.0905854	14.00053	26.369229
481	2	6	0.21333266	-5.1130025	13.827073	26.058214
482	2	4	-0.23346279	-3.6199344	13.538042	27.69934
483	2	4	0.82786494	-4.5541773	12.834319	28.605018
484	2	5	-0.5408907	-4.1729951	12.434908	29.738674
485	2	7	-0.67684359	-5.869515	12.608411	28.209806
486	2	8	0.4009222	-6.5207279	12.128083	28.819649
487	2	4	0.047134239	-2.3410686	13.769438	28.058418
488	2	6	0.22994625	-1.9730764	13.442439	29.022883
489	4	1	-0.1396858	-0.059068744	12.537757	43.295788
490	4	2	0.030563466	0.61651825	13.23594	42.286431
491	4	2	0.080769673	-0.1972405	13.217816	40.99184
492	4	1	-0.48679987	0.53899503	13.817687	39.942415
493	4	2	0.078232951	0.16230452	15.168804	39.780782
494	4	2	0.13516354	1.071853	15.821198	38.743724
495	4	1	-0.50356234	0.69289925	17.153513	38.531531
496	4	3	0.087472536	2.1324987	15.766557	39.078368
497	4	3	0.087472536	0.9848792	15.270117	37.783709
498	4	3	0.08796329	0.26033386	15.729231	40.738944
499	4	3	0.08796329	-0.88896537	15.233897	39.418811
500	4	3	0.089519098	-0.38576195	12.158844	40.713576
501	4	3	0.089519098	-1.1982056	13.68247	41.159723
502	4	3	0.093405768	1.5962788	12.74244	42.10829
503	4	3	0.093405768	0.8143531	14.283723	42.607521
504	5	4	0.79019915	1.0477574	17.69563	39.342028
505	5	5	-0.5646714	1.6009452	18.809294	39.135181
506	5	4	-0.23956039	0.897201	17.156116	40.706513
507	5	4	-0.09521097	1.3448805	17.829885	41.78217
508	5	6	0.21333263	1.8303684	18.792131	41.678606
509	5	4	-0.26635794	1.1797822	17.263227	43.13509
510	5	6	0.1868596	1.5427414	17.812722	43.994953
511	5	4	-0.056423798	0.58397204	16.076396	43.30094
512	5	6	0.20144286	0.47034655	15.674282	44.299886
513	5	4	-0.30475888	0.08476611	15.320523	42.124973
514	5	4	0.57590096	-0.5728218	14.013145	42.296998
515	5	5	-0.59835923	-0.72359488	13.512085	43.443537
516	5	4	0.044143163	0.23774416	15.840835	40.893903
517	5	6	0.22994628	-0.12201525	15.301579	40.025441
518	1	1	-0.1396858	-0.78679282	13.133944	43.614749
519	1	2	0.030563466	-1.7328005	13.197142	42.582818
520	1	2	0.080894209	-1.2385732	14.11582	41.464283
521	1	1	-0.4845698	-2.2440256	14.274131	40.48127
522	1	2	0.053043969	-2.0302	13.384573	39.405414
523	1	2	0.075418502	-3.2062728	13.480448	38.437611
524	1	7	-0.67891193	-3.0002468	12.638165	37.336178
525	1	8	0.39301776	-3.1967146	11.715419	37.643878
526	1	3	0.09021429	-4.1534494	13.216215	38.958739
527	1	3	0.09021429	-3.2947609	14.526117	38.072432
528	1	3	0.090398632	-1.9539607	12.332155	39.764395
529	1	3	0.090398632	-1.099252	13.658295	38.859075
530	1	3	0.089519098	-1.0291129	15.115108	41.90152
531	1	3	0.089519098	-0.26808195	13.740103	41.058109
532	1	3	0.093405768	-2.6802606	13.602938	42.996397
533	1	3	0.093405768	-1.9403181	12.177974	42.186946
534	2	4	0.57590096	-0.93414423	13.466658	41.435627
535	2	5	-0.59835923	-1.8136539	13.995535	40.703714
536	2	4	-0.304759	-0.3953979	12.126067	41.140351
537	2	4	-0.056423836	-0.81948164	11.416577	40.078739
538	2	6	0.20144285	-1.5730585	11.809929	39.408159
539	2	4	-0.26635803	-0.2608735	10.07755	39.809464
540	2	6	0.1868596	-0.60903071	9.5142781	38.952776
541	2	4	-0.091037504	0.6714647	9.5607832	40.617558
542	2	6	0.21333266	1.0689091	8.5767667	40.403307
543	2	4	-0.23346279	1.1536935	10.327252	41.794241
544	2	4	0.82786494	2.1851735	9.7427458	42.67894
545	2	5	-0.5408907	2.6064504	10.37818	43.683307
546	2	7	-0.67684359	2.6997273	8.4782323	42.407682
547	2	8	0.4009222	3.4063139	8.0650384	43.004932
548	2	4	0.047134239	0.63906082	11.549992	42.035151
549	2	6	0.22994625	0.97368317	12.129306	42.886598