Title

123 atoms
132 bonds
229 angles
373 dihedrals
156 impropers

9 atom types
13 bond types
9 angle types
19 dihedral types
3 improper types
-10.4630003 89.5369997 xlo xhi
-4.416999817 95.58300018 ylo yhi
-20.29899979 79.70100021 zlo zhi
0.0 0.0 0.0 xy xz yz

Masses

1	14.00672
2	12.01078
3	1.007947
4	1.007947
5	15.99943
6	12.01078
7	1.007947
8	15.99943
9	1.007947


Pair Coeffs

1	0.16769152	3.206876
2	0.086879315	3.4806469
3	0.015611343	2.5725815
4	0.014090815	1.1034277
5	0.2102061	3.0398122
6	0.10884061	3.3795318
7	0.015779483	2.6445434
8	0.20947353	2.99716
9	1.2326e-05	0.53453923

Bond Coeffs

1 harmonic	390.03554688505	1.390160554689
2 harmonic	505.144496193	1.019481865027
3 harmonic	422.7150220147	1.421786517481
4 harmonic	360.7852444772	1.387193227181
5 harmonic	397.2545789619	1.085358495916
6 harmonic	492.76746816345	1.381897776683
7 harmonic	582.698766451	1.225198386222
8 harmonic	279.1350963404	1.454628925034
9 harmonic	289.73813263395	1.498646816465
10 harmonic	264.62148576755	1.52190126495
11 harmonic	370.04670688625	1.093899492634
12 harmonic	385.7604595587	1.369745182308
13 harmonic	543.5267831885	0.9716763312559


Angle Coeffs

1 harmonic	57.8982893754	126.8062420451
2 harmonic	55.42182150775	117.3465570514
3 harmonic	63.44422595415	115.5071327674
4 harmonic	34.066775159195	129.1835929926
5 harmonic	53.20531626545	116.5475862634
6 harmonic	14.32262199324	138.3184368373
7 harmonic	48.776492647595	115.6030999533
8 harmonic	65.09061609600001	110.3538806181
9 harmonic	201.41175231035	127.4691416191


Dihedral Coeffs

1 fourier 1	3.661930099076	2	180
2 fourier 1	1.193093382682	2	180
3 fourier 1	0.02021088501612	1	0
4 fourier 1	3.101948770557	2	180
5 fourier 1	-0.4252153282372	1	0
6 fourier 1	1.809047390003	2	180
7 fourier 1	-0.04816277792592	1	0
8 fourier 1	0.9974165607242	2	180
9 fourier 1	2.348375642009	2	180
10 fourier 1	1.256156174911	1	0
11 fourier 1	0.02664938770063	3	0
12 fourier 1	0.1155372516788	3	0
13 fourier 1	0.09223874044423	3	0
14 fourier 1	0.3159935921949	2	180
15 fourier 1	0.3247796806857	1	180
16 fourier 1	0.1040663847541	3	0
17 fourier 1	2.687457892086	2	180
18 fourier 1	2.772607909663	2	180
19 fourier 1	0.09692684957115	1	0


Improper Coeffs

1 0.3666666666666667	-1	2
2 0.3333333333333333	-1	2
3 3.5	-1	2


Atoms

1	1	1	-0.39358401	-2.5339999	-0.96200001	1.688
2	1	2	0.074134	-1.733	-0.115	0.84799999
3	1	2	-0.42633101	-2.286	1.001	0.34799999
4	1	3	0.225337	-3.3080001	1.258	0.59799999
5	1	2	-0.127294	-1.554	1.9	-0.56199998
6	1	3	0.22693101	-2.0469999	2.7969999	-0.91600001
7	1	2	-0.241901	-0.308	1.636	-0.96100003
8	1	3	0.213778	0.168	2.355	-1.61
9	1	2	-0.18087199	0.40099999	0.42300001	-0.48300001
10	1	2	0.173923	1.669	0.113	-0.86000001
11	1	1	-0.50302202	2.395	0.87400001	-1.836
12	1	4	0.31878299	3.4070001	0.67299998	-2.0020001
13	1	2	-0.42066899	2.3429999	-1.0549999	-0.25
14	1	3	0.22178601	3.359	-1.301	-0.53299999
15	1	2	-0.13608401	1.715	-1.809	0.653
16	1	3	0.22693101	2.221	-2.6570001	1.097
17	1	2	-0.225458	0.33000001	-1.5	1.045
18	1	3	0.213778	-0.125	-2.1359999	1.7869999
19	1	2	-0.194383	-0.31900001	-0.454	0.49599999
20	1	4	0.377087	-2.2490001	-1.929	1.948
21	1	2	0.77014899	1.932	1.561	-2.5009999
22	1	5	-0.64979601	1.609	2.7	-2.072
23	1	2	-0.36855501	1.676	1.1799999	-3.901
24	1	2	-0.074956	2.0239999	-0.037999999	-4.3429999
25	1	3	0.22768401	2.494	-0.75400001	-3.678
26	1	2	-0.24555001	1.771	-0.43099999	-5.744
27	1	3	0.218284	2.0539999	-1.432	-6.033
28	1	2	-0.205807	1.211	0.435	-6.6170001
29	1	6	0.026323	0.89200002	0.061000001	-8.0749998
30	1	6	-0.130602	1.649	-1.189	-8.585
31	1	7	0.090108	1.298	-2.1059999	-8.066
32	1	7	0.090108	1.472	-1.3380001	-9.6719999
33	1	7	0.090108	2.743	-1.0779999	-8.4250002
34	1	2	-0.120792	1.215	1.202	-8.9890003
35	1	2	-0.147588	2.402	1.808	-9.1379995
36	1	3	0.217842	3.26	1.501	-8.5550003
37	1	2	0.0042570001	2.5220001	2.914	-10.118
38	1	3	0.218052	3.48	3.4070001	-10.232
39	1	2	-0.34323099	1.457	3.293	-10.855
40	1	2	0.587834	1.5880001	4.3899999	-11.829
41	1	5	-0.50302398	0.60299999	4.757	-12.524
42	1	2	0.075795002	0.155	2.5910001	-10.674
43	1	3	0.212093	-0.708	2.8710001	-11.264
44	1	2	-0.17784999	0.067000002	1.603	-9.7700005
45	1	6	-0.026053	-1.1289999	0.76499999	-9.4499998
46	1	6	-0.130173	-1.511	-0.097999997	-10.667
47	1	7	0.094288997	-1.812	0.542	-11.524
48	1	7	0.094288997	-0.65399998	-0.72899997	-10.984
49	1	7	0.094288997	-2.3640001	-0.764	-10.414
50	1	6	-0.130173	-2.319	1.649	-9.0279999
51	1	7	0.094288997	-2.6630001	2.2820001	-9.8739996
52	1	7	0.094288997	-2.0309999	2.316	-8.1859999
53	1	7	0.094288997	-3.1700001	1.015	-8.6999998
54	1	6	-0.17999899	-0.64899999	-0.131	-8.2620001
55	1	7	0.132726	-0.91000003	-1.2	-8.4309998
56	1	7	0.132726	-1.189	0.148	-7.329
57	1	2	-0.24555001	0.80299997	1.777	-6.1079998
58	1	3	0.218284	0.31200001	2.4820001	-6.7659998
59	1	2	-0.074956	1.026	2.1270001	-4.836
60	1	3	0.22768401	0.72000003	3.109	-4.4959998
61	1	1	-0.39358401	-3.4860001	-0.65799999	1.995
62	1	2	0.074134	-4.6259999	-1.505	1.7819999
63	1	2	-0.42633101	-4.4699998	-2.6210001	1.053
64	1	3	0.225337	-3.4949999	-2.878	0.65799999
65	1	2	-0.127294	-5.5960002	-3.5209999	0.74299997
66	1	3	0.22693101	-5.4039998	-4.4169998	0.167
67	1	2	-0.194326	-6.8400002	-3.257	1.148
68	1	3	0.213778	-7.6059999	-3.9749999	0.89899999
69	1	2	-0.220147	-7.1360002	-2.043	1.95
70	1	2	0.216406	-8.3850002	-1.733	2.385
71	1	1	-0.81321597	-9.5450001	-2.494	2.0179999
72	1	4	0.37190199	-9.5579996	-3.168	1.224
73	1	4	0.37190199	-10.463	-2.2939999	2.4749999
74	1	2	-0.45179	-8.5749998	-0.565	3.2750001
75	1	3	0.23219401	-9.5649996	-0.31900001	3.6389999
76	1	2	-0.085768998	-7.5380001	0.189	3.6400001
77	1	3	0.22693101	-7.6890001	1.0369999	4.296
78	1	2	-0.225458	-6.1849999	-0.12	3.148
79	1	3	0.213778	-5.382	0.51599997	3.484
80	1	2	-0.160368	-5.9790001	-1.166	2.323
81	1	4	0.377087	-3.5650001	0.30899999	2.372
82	1	2	0.59333301	2.536	4.8959999	-11.957
83	1	5	-0.51363403	3.253	5.1139998	-10.943
84	1	2	-0.33179101	2.9660001	5.3150001	-13.304
85	1	2	0.0095530003	4.1360002	5.9419999	-13.506
86	1	3	0.225679	4.8039999	6.158	-12.681
87	1	2	-0.23876099	4.54	6.349	-14.867
88	1	3	0.218284	5.4990001	6.835	-14.989
89	1	2	-0.205807	3.74	6.119	-15.932
90	1	6	0.026323	4.2010002	6.5310001	-17.341
91	1	6	-0.130602	3.0840001	6.4349999	-18.405001
92	1	7	0.090108	2.1949999	7.026	-18.096001
93	1	7	0.090108	2.78	5.3790002	-18.565001
94	1	7	0.090108	3.438	6.8309999	-19.382
95	1	2	-0.120792	4.723	7.9349999	-17.34
96	1	2	-0.167007	4.0710001	9.0410004	-16.952
97	1	3	0.217842	3.0580001	8.9849997	-16.575001
98	1	2	-0.057064999	4.7600002	10.349	-17.046
99	1	3	0.234378	4.2290001	11.236	-16.725
100	1	2	-0.22510301	6.0229998	10.426	-17.525999
101	1	2	0.83713901	6.723	11.725	-17.629
102	1	5	-0.471228	6.1550002	12.792	-17.27
103	1	8	-0.66250002	8.0229998	11.778	-18.125999
104	1	9	0.42080599	8.5150003	12.66	-18.202
105	1	2	0.0098449998	6.7140002	9.1780005	-17.958
106	1	3	0.227274	7.7189999	9.2150002	-18.357
107	1	2	-0.17212801	6.073	8.0039997	-17.85
108	1	6	-0.026053	6.579	6.652	-18.24
109	1	6	-0.130173	7.8959999	6.3280001	-17.509001
110	1	7	0.094288997	8.7080002	7.0139999	-17.832001
111	1	7	0.094288997	7.7670002	6.4299998	-16.409
112	1	7	0.094288997	8.2119999	5.2859998	-17.731001
113	1	6	-0.130173	6.7849998	6.585	-19.764999
114	1	7	0.094288997	5.842	6.8309999	-20.299
115	1	7	0.094288997	7.5679998	7.3039999	-20.087999
116	1	7	0.094288997	7.105	5.5640001	-20.066999
117	1	6	-0.17999899	5.4369998	5.6820002	-17.792
118	1	7	0.132726	5.1690001	4.9710002	-18.605
119	1	7	0.132726	5.7870002	5.0339999	-16.957001
120	1	2	-0.23876099	2.45	5.4050002	-15.696
121	1	3	0.218284	1.779	5.1729999	-16.51
122	1	2	0.0095530003	2.089	5.0339999	-14.461
123	1	3	0.225679	1.147	4.52	-14.314

Bonds

1	1	1	2
2	2	1	20
3	3	1	61
4	4	2	3
5	4	2	19
6	5	3	4
7	4	3	5
8	5	5	6
9	4	5	7
10	5	7	8
11	4	7	9
12	4	9	10
13	4	9	19
14	1	10	11
15	4	10	13
16	2	11	12
17	6	11	21
18	5	13	14
19	4	13	15
20	5	15	16
21	4	15	17
22	5	17	18
23	4	17	19
24	7	21	22
25	8	21	23
26	4	23	24
27	4	23	59
28	5	24	25
29	4	24	26
30	5	26	27
31	4	26	28
32	9	28	29
33	4	28	57
34	10	29	30
35	9	29	34
36	10	29	54
37	11	30	31
38	11	30	32
39	11	30	33
40	4	34	35
41	4	34	44
42	5	35	36
43	4	35	37
44	5	37	38
45	4	37	39
46	8	39	40
47	4	39	42
48	7	40	41
49	8	40	82
50	5	42	43
51	4	42	44
52	9	44	45
53	10	45	46
54	10	45	50
55	10	45	54
56	11	46	47
57	11	46	48
58	11	46	49
59	11	50	51
60	11	50	52
61	11	50	53
62	11	54	55
63	11	54	56
64	5	57	58
65	4	57	59
66	5	59	60
67	1	61	62
68	2	61	81
69	4	62	63
70	4	62	80
71	5	63	64
72	4	63	65
73	5	65	66
74	4	65	67
75	5	67	68
76	4	67	69
77	4	69	70
78	4	69	80
79	1	70	71
80	4	70	74
81	2	71	72
82	2	71	73
83	5	74	75
84	4	74	76
85	5	76	77
86	4	76	78
87	5	78	79
88	4	78	80
89	7	82	83
90	8	82	84
91	4	84	85
92	4	84	122
93	5	85	86
94	4	85	87
95	5	87	88
96	4	87	89
97	9	89	90
98	4	89	120
99	10	90	91
100	9	90	95
101	10	90	117
102	11	91	92
103	11	91	93
104	11	91	94
105	4	95	96
106	4	95	107
107	5	96	97
108	4	96	98
109	5	98	99
110	4	98	100
111	8	100	101
112	4	100	105
113	7	101	102
114	12	101	103
115	13	103	104
116	5	105	106
117	4	105	107
118	9	107	108
119	10	108	109
120	10	108	113
121	10	108	117
122	11	109	110
123	11	109	111
124	11	109	112
125	11	113	114
126	11	113	115
127	11	113	116
128	11	117	118
129	11	117	119
130	5	120	121
131	4	120	122
132	5	122	123

Angles

1	1	21	23	24
2	4	24	26	27
3	1	7	9	10
4	4	14	13	15
5	1	2	19	17
6	5	46	45	50
7	1	82	84	122
8	4	85	87	88
9	1	11	21	23
10	4	89	120	121
11	5	45	50	52
12	4	35	37	38
13	5	109	108	117
14	1	21	23	59
15	5	108	117	118
16	5	28	29	34
17	6	42	44	45
18	4	75	74	76
19	1	98	100	101
20	5	90	91	92
21	7	52	50	53
22	4	99	98	100
23	5	109	108	113
24	1	37	39	40
25	1	22	21	23
26	4	25	24	26
27	5	29	30	33
28	7	93	91	94
29	5	28	29	30
30	1	35	37	39
31	4	6	5	7
32	1	23	59	57
33	1	96	98	100
34	1	61	62	80
35	7	114	113	115
36	4	15	17	18
37	5	29	54	55
38	4	74	76	77
39	5	108	109	111
40	1	63	62	80
41	1	7	9	19
42	1	40	39	42
43	4	70	74	75
44	6	29	34	35
45	4	23	24	25
46	1	63	65	67
47	1	3	2	19
48	1	39	40	41
49	4	5	7	8
50	1	67	69	80
51	4	10	13	14
52	4	57	59	60
53	1	69	80	78
54	4	76	78	79
55	4	84	85	86
56	7	31	30	32
57	1	34	44	45
58	4	106	105	107
59	1	98	100	105
60	1	100	101	103
61	4	120	122	123
62	4	34	35	36
63	1	74	76	78
64	4	8	7	9
65	5	108	109	112
66	1	2	19	9
67	2	2	1	61
68	5	45	46	47
69	4	39	42	43
70	7	47	46	48
71	1	5	7	9
72	7	32	30	33
73	5	90	117	118
74	1	10	13	15
75	5	30	29	34
76	1	87	89	90
77	4	77	76	78
78	4	3	5	6
79	4	62	63	64
80	1	24	26	28
81	1	70	69	80
82	5	89	90	95
83	5	29	30	31
84	1	85	87	89
85	5	44	45	54
86	1	89	120	122
87	1	26	28	29
88	5	45	50	53
89	4	16	15	17
90	1	84	122	120
91	7	110	109	111
92	5	45	46	48
93	4	4	3	5
94	1	39	42	44
95	6	105	107	108
96	1	83	82	84
97	1	34	44	42
98	5	90	91	93
99	7	47	46	49
100	5	107	108	117
101	5	91	90	117
102	4	2	3	4
103	4	68	67	69
104	5	108	117	119
105	5	90	117	119
106	5	108	113	114
107	5	113	108	117
108	7	115	113	116
109	5	44	45	50
110	5	28	29	54
111	1	3	5	7
112	5	30	29	54
113	3	70	71	72
114	4	18	17	19
115	1	11	10	13
116	1	29	28	57
117	1	95	107	108
118	4	13	15	16
119	5	107	108	113
120	5	45	54	55
121	1	69	70	74
122	5	44	45	46
123	4	86	85	87
124	4	95	96	97
125	3	20	1	61
126	7	110	109	112
127	1	62	80	69
128	4	121	120	122
129	1	71	70	74
130	3	10	11	12
131	4	100	105	106
132	7	114	113	116
133	1	15	17	19
134	5	29	54	56
135	4	28	57	58
136	1	40	82	83
137	4	65	67	68
138	1	9	19	17
139	7	55	54	56
140	4	58	57	59
141	5	107	108	109
142	4	43	42	44
143	1	70	74	76
144	1	90	95	107
145	3	70	71	73
146	7	92	91	93
147	1	23	24	26
148	5	34	29	54
149	1	84	85	87
150	1	76	78	80
151	1	85	84	122
152	1	101	100	105
153	1	10	9	19
154	7	31	30	33
155	1	28	57	59
156	1	1	2	3
157	1	34	35	37
158	4	66	65	67
159	1	11	21	22
160	4	36	35	37
161	1	82	84	85
162	1	26	28	57
163	3	1	61	81
164	1	69	70	71
165	1	1	2	19
166	8	101	103	104
167	1	39	40	82
168	7	92	91	94
169	1	9	10	13
170	1	35	34	44
171	1	96	95	107
172	7	111	109	112
173	7	48	46	49
174	5	90	117	108
175	1	37	39	42
176	1	62	63	65
177	1	90	89	120
178	5	29	30	32
179	4	79	78	80
180	1	61	62	63
181	1	62	80	78
182	2	10	11	21
183	5	45	46	49
184	3	62	61	81
185	4	96	98	99
186	5	90	91	94
187	7	51	50	52
188	9	102	101	103
189	5	108	113	115
190	1	2	3	5
191	2	1	61	62
192	5	50	45	54
193	5	108	109	110
194	5	29	54	45
195	5	89	90	117
196	3	12	11	21
197	6	90	95	96
198	1	13	15	17
199	3	2	1	20
200	4	63	65	66
201	3	72	71	73
202	5	45	54	56
203	1	67	69	70
204	1	95	96	98
205	1	29	34	44
206	4	27	26	28
207	4	97	96	98
208	7	51	50	53
209	1	100	105	107
210	1	40	82	84
211	5	108	113	116
212	1	95	107	105
213	7	118	117	119
214	4	88	87	89
215	1	65	67	69
216	1	100	101	102
217	1	87	89	120
218	1	41	40	82
219	5	89	90	91
220	5	45	50	51
221	4	38	37	39
222	5	46	45	54
223	5	95	90	117
224	4	64	63	65
225	1	9	10	11
226	4	84	122	123
227	4	23	59	60
228	1	24	23	59
229	5	91	90	95

Dihedrals

1	1	88	87	89	120
2	16	116	113	108	117
3	1	34	44	42	39
4	12	89	90	91	93
5	2	12	11	10	13
6	1	96	95	107	108
7	1	95	107	105	100
8	2	13	10	11	21
9	1	85	84	122	123
10	1	7	9	10	13
11	16	109	108	117	119
12	2	1	61	62	80
13	1	34	44	42	43
14	8	41	40	82	84
15	11	30	29	34	35
16	16	111	109	108	113
17	11	42	44	45	46
18	11	95	107	108	113
19	16	110	109	108	113
20	1	67	69	80	78
21	1	74	70	69	80
22	12	95	90	117	119
23	11	96	95	90	117
24	1	37	39	42	43
25	2	19	2	1	20
26	11	95	90	89	120
27	8	42	39	40	82
28	1	26	24	23	59
29	3	2	1	61	81
30	1	8	7	9	10
31	16	31	30	29	54
32	12	107	108	109	110
33	13	29	54	45	50
33	14	29	54	45	50
33	15	29	54	45	50
34	1	62	80	78	76
35	1	84	85	87	88
36	16	110	109	108	117
37	2	73	71	70	74
38	1	62	80	69	70
39	1	24	23	59	60
40	1	85	87	89	90
41	1	29	34	35	36
42	1	82	84	85	86
43	8	11	21	23	24
44	16	113	108	117	119
45	1	95	107	105	106
46	12	44	45	50	52
47	1	96	95	107	105
48	1	1	2	19	9
49	1	85	84	122	120
50	16	30	29	54	56
51	12	44	45	46	47
52	1	40	39	42	44
53	1	71	70	74	75
54	13	30	29	54	45
54	14	30	29	54	45
54	15	30	29	54	45
55	1	8	7	9	19
56	1	23	59	57	58
57	1	3	2	19	9
58	1	63	65	67	68
59	1	90	95	107	108
60	11	87	89	90	91
61	6	12	11	21	23
61	7	12	11	21	23
62	1	1	2	3	4
63	1	6	5	7	9
64	1	9	10	13	14
65	1	29	34	44	45
66	16	114	113	108	117
67	1	11	10	13	15
68	1	35	37	39	42
69	1	36	35	37	39
70	8	103	101	100	105
71	16	33	30	29	54
72	13	90	117	108	113
72	14	90	117	108	113
72	15	90	117	108	113
73	11	28	29	34	44
74	1	29	28	57	58
75	1	16	15	17	18
76	1	14	13	15	16
77	8	22	21	23	24
78	2	19	2	1	61
79	11	87	89	90	95
80	8	41	40	82	83
81	1	90	89	120	122
82	16	92	91	90	117
83	1	13	15	17	19
84	1	5	7	9	19
85	1	65	63	62	80
86	1	64	63	62	80
87	12	34	29	54	56
88	16	50	45	54	56
89	1	99	98	100	101
90	1	69	80	78	76
91	1	71	70	69	80
92	8	40	82	84	85
93	1	82	84	122	123
94	2	69	70	71	73
95	12	107	108	113	114
96	1	69	70	74	76
97	1	90	95	107	105
98	12	93	91	90	95
99	1	85	87	89	120
100	2	3	2	1	20
101	12	44	45	54	56
102	1	61	62	63	64
103	11	117	90	89	120
104	12	44	45	50	51
105	1	10	13	15	17
106	16	30	29	54	55
107	1	4	3	5	7
108	16	47	46	45	54
109	1	98	96	95	107
110	1	62	80	78	79
111	9	12	11	21	22
111	10	12	11	21	22
112	1	66	65	67	69
113	1	68	67	69	70
114	11	91	90	89	120
115	11	95	107	108	109
116	1	95	96	98	99
117	16	46	45	50	52
118	1	62	63	65	67
119	1	6	5	7	8
120	1	11	10	9	19
121	1	61	62	80	69
122	16	51	50	45	54
123	11	34	29	28	57
124	1	74	76	78	80
125	1	25	24	26	28
126	1	27	26	28	29
127	1	63	62	80	69
128	1	2	3	5	6
129	1	28	57	59	60
130	1	23	24	26	28
131	1	38	37	39	42
132	8	102	101	100	105
133	11	107	95	90	117
134	1	82	84	122	120
135	16	48	46	45	50
136	16	109	108	113	114
137	11	26	28	29	34
138	13	29	54	45	46
138	14	29	54	45	46
138	15	29	54	45	46
139	1	13	15	17	18
140	1	34	35	37	39
141	12	95	90	117	108
142	1	43	42	44	45
143	2	9	10	11	12
144	1	9	19	17	18
145	2	3	2	1	61
146	1	86	85	87	89
147	11	105	107	108	113
148	16	49	46	45	54
149	12	28	29	54	56
150	2	69	70	71	72
151	16	48	46	45	54
152	2	63	62	61	81
153	1	27	26	28	57
154	12	107	108	117	118
155	3	20	1	61	62
156	8	98	100	101	103
157	1	101	100	105	107
158	1	13	10	9	19
159	12	28	29	30	31
160	12	44	45	54	55
161	6	10	11	21	23
161	7	10	11	21	23
162	1	64	63	65	66
163	1	10	13	15	16
164	1	69	80	78	79
165	13	90	117	108	109
165	14	90	117	108	109
165	15	90	117	108	109
166	1	4	3	5	6
167	1	70	74	76	77
168	11	105	107	108	117
169	1	3	5	7	8
170	12	107	108	109	112
171	8	39	40	82	84
172	1	68	67	69	80
173	1	97	96	95	107
174	16	46	45	54	56
175	16	46	45	50	51
176	1	21	23	59	57
177	1	37	35	34	44
178	1	74	76	78	79
179	1	25	24	26	27
180	1	9	19	17	15
181	1	35	34	44	42
182	1	89	120	122	123
183	1	23	24	26	27
184	1	25	24	23	59
185	16	109	108	117	118
186	1	35	37	39	40
187	1	75	74	76	78
188	11	42	44	45	54
189	12	95	90	117	118
190	11	89	90	95	107
191	12	89	90	91	94
192	18	102	101	103	104
192	19	102	101	103	104
193	12	34	29	54	45
194	1	96	98	100	105
195	1	88	87	89	90
196	8	37	39	40	41
197	1	1	2	19	17
198	1	86	85	87	88
199	11	87	89	90	117
200	1	77	76	78	80
201	16	47	46	45	50
202	1	97	96	98	100
203	1	3	2	19	17
204	12	94	91	90	95
205	12	89	90	117	119
206	1	87	89	120	122
207	12	89	90	117	108
208	8	98	100	101	102
209	1	24	26	28	29
210	12	33	30	29	34
211	11	28	29	34	35
212	16	113	108	117	118
213	1	37	39	42	44
214	1	40	39	42	43
215	16	112	109	108	117
216	16	93	91	90	117
217	12	107	108	113	116
218	3	2	1	61	62
219	12	107	108	109	111
220	11	26	28	29	30
221	17	100	101	103	104
222	8	39	40	82	83
223	2	80	62	61	81
224	1	84	85	87	89
225	1	98	100	105	107
226	16	46	45	54	55
227	1	2	19	17	15
228	11	26	28	29	54
229	1	61	62	80	78
230	1	86	85	84	122
231	1	82	84	85	87
232	1	11	10	13	14
233	8	40	82	84	122
234	1	36	35	37	38
235	11	30	29	34	44
236	1	24	26	28	57
237	1	63	62	80	78
238	1	39	42	44	45
239	1	7	9	10	11
240	12	32	30	29	34
241	1	5	3	2	19
242	11	105	107	108	109
243	16	49	46	45	50
244	8	37	39	40	82
245	1	75	74	76	77
246	12	29	54	45	44
247	1	90	89	120	121
248	16	91	90	117	119
249	1	38	37	39	40
250	1	21	23	59	60
251	2	9	10	11	21
252	12	34	29	54	55
253	16	50	45	54	55
254	1	23	59	57	28
255	11	34	44	45	50
256	1	35	34	44	45
257	1	65	67	69	80
258	1	16	15	17	19
259	1	14	13	15	17
260	8	83	82	84	85
261	1	77	76	78	79
262	16	109	108	113	116
263	1	69	70	74	75
264	12	28	29	54	45
265	1	97	96	98	99
266	1	106	105	107	108
267	1	4	3	2	19
268	12	89	90	117	118
269	1	67	69	70	74
270	11	44	34	29	54
271	1	87	89	120	121
272	1	100	105	107	108
273	1	90	95	96	98
274	1	26	28	57	59
275	1	10	9	19	17
276	11	34	44	45	54
277	12	90	117	108	107
278	2	72	71	70	74
279	12	107	108	113	115
280	16	53	50	45	54
281	16	111	109	108	117
282	1	58	57	59	60
283	11	42	44	45	50
284	1	66	65	67	68
285	11	95	107	108	117
286	1	98	100	105	106
287	11	35	34	29	54
288	1	62	63	65	66
289	12	28	29	30	33
290	8	83	82	84	122
291	1	61	62	63	65
292	12	44	45	46	49
293	8	11	21	23	59
294	1	84	122	120	121
295	12	31	30	29	34
296	1	96	98	100	101
297	1	2	19	9	7
298	16	115	113	108	117
299	16	91	90	117	118
300	1	67	69	70	71
301	1	2	19	17	18
302	1	21	23	24	26
303	1	95	96	98	100
304	16	46	45	50	53
305	12	92	91	90	95
306	1	29	28	57	59
307	1	34	35	37	38
308	1	5	7	9	10
309	8	41	40	39	42
310	11	89	90	95	96
311	11	30	29	28	57
312	12	89	90	91	92
313	1	2	3	5	7
314	1	121	120	122	123
315	1	65	67	69	70
316	16	112	109	108	113
317	12	28	29	54	55
318	16	109	108	113	115
319	3	20	1	61	81
320	8	22	21	23	59
321	1	101	100	105	106
322	1	62	80	69	67
323	1	90	95	96	97
324	1	24	23	59	57
325	1	26	28	57	58
326	4	10	11	21	22
326	5	10	11	21	22
327	12	107	108	117	119
328	16	94	91	90	117
329	1	2	19	9	10
330	16	32	30	29	54
331	2	1	61	62	63
332	11	54	29	28	57
333	1	29	34	44	42
334	1	29	34	35	37
335	12	28	29	30	32
336	11	91	90	95	107
337	1	70	69	80	78
338	11	91	90	95	96
339	12	44	45	50	53
340	1	64	63	65	67
341	1	99	98	100	105
342	12	44	45	46	48
343	11	34	44	45	46
344	1	71	70	74	76
345	1	70	74	76	78
346	1	36	35	34	44
347	1	3	5	7	9
348	1	63	65	67	69
349	1	84	122	120	89
350	1	7	9	19	17
351	13	91	90	117	108
351	14	91	90	117	108
351	15	91	90	117	108
352	1	21	23	24	25
353	1	1	2	3	5
354	1	9	10	13	15
355	1	87	85	84	122
356	16	52	50	45	54

Impropers

10	1	70	71	74	69
14	1	13	14	15	10
15	1	96	95	97	98
20	1	67	68	69	65
22	2	11	12	21	10
24	1	95	90	96	107
32	1	76	78	74	77
34	1	87	89	85	88
37	1	95	96	107	90
39	1	70	69	71	74
42	1	3	2	4	5
46	1	37	39	35	38
52	1	23	59	21	24
55	1	10	11	13	9
56	1	100	101	105	98
58	1	37	38	39	35
63	1	57	28	58	59
72	1	19	9	17	2
74	1	122	120	123	84
76	1	78	79	80	76
77	1	76	77	78	74
80	1	96	98	95	97
83	1	69	67	70	80
93	1	34	35	44	29
99	1	23	21	24	59
101	1	74	70	75	76
104	1	122	84	120	123
107	1	34	29	35	44
111	1	84	85	122	82
112	1	82	84	40	83
114	1	105	107	100	106
117	1	28	29	57	26
119	1	65	66	67	63
122	1	19	17	2	9
127	1	13	10	14	15
130	1	89	120	87	90
131	1	7	9	5	8
136	1	57	59	28	58
145	1	44	42	45	34
146	1	3	5	2	4
148	1	7	8	9	5
150	1	65	63	66	67
153	1	40	39	41	82
156	2	11	10	12	21
158	1	100	105	98	101
160	1	13	15	10	14
166	1	63	65	62	64
168	1	21	23	11	22
170	1	69	70	80	67
178	1	87	88	89	85
181	1	2	19	1	3
184	1	5	3	6	7
195	2	1	2	20	61
199	1	84	122	82	85
201	1	39	42	37	40
206	1	80	78	62	69
211	1	80	69	78	62
213	1	82	40	83	84
217	1	37	35	38	39
218	1	23	24	59	21
228	2	61	81	1	62
230	1	107	108	95	105
231	1	63	64	65	62
232	1	78	80	76	79
234	1	122	123	84	120
236	1	44	34	42	45
238	1	15	13	16	17
244	1	35	37	34	36
249	1	120	122	89	121
255	1	98	100	96	99
256	1	9	7	10	19
258	1	85	87	84	86
273	2	11	21	10	12
274	1	40	82	39	41
275	1	26	28	24	27
276	1	69	80	67	70
282	1	89	90	120	87
288	1	107	95	105	108
295	1	59	23	57	60
297	1	95	107	90	96
304	1	78	76	79	80
314	1	62	61	63	80
315	1	120	89	121	122
317	1	59	60	23	57
323	1	82	83	84	40
324	2	1	61	2	20
325	1	62	63	80	61
328	2	61	1	62	81
335	1	2	1	3	19
336	1	80	62	69	78
341	1	63	62	64	65
342	2	71	70	72	73
343	1	17	19	15	18
346	1	35	36	37	34
347	1	67	65	68	69
352	1	15	16	17	13
353	1	19	2	9	17
354	1	24	23	25	26
360	1	26	24	27	28
372	1	9	10	19	7
379	1	76	74	77	78
380	1	98	99	100	96
381	3	101	100	102	103
389	1	42	44	39	43
392	1	3	4	5	2
398	1	84	82	85	122
399	1	120	121	122	89
401	1	39	37	40	42
409	1	9	19	7	10
412	1	5	6	7	3
418	1	15	17	13	16
431	1	74	75	76	70
432	1	5	7	3	6
436	2	71	73	70	72
445	1	70	74	69	71
455	2	71	72	73	70
456	1	24	25	26	23
458	1	26	27	28	24
462	1	89	87	90	120
463	1	67	69	65	68
464	1	65	67	63	66
468	1	107	105	108	95
472	1	100	98	101	105
476	1	7	5	8	9
482	1	17	18	19	15
489	3	101	102	103	100
496	1	42	39	43	44
498	1	85	86	87	84
499	1	17	15	18	19
500	1	85	84	86	87
501	1	21	22	23	11
505	2	1	20	61	2
508	1	21	11	22	23
513	1	28	26	29	57
514	1	105	100	106	107
523	1	2	3	19	1
529	1	40	41	82	39
535	2	61	62	81	1
538	1	39	40	42	37
540	1	87	85	88	89
542	1	10	9	11	13
545	1	24	26	23	25
549	1	98	96	99	100
553	1	28	57	26	29
555	1	74	76	70	75
558	1	105	106	107	100
562	1	59	57	60	23
567	1	10	13	9	11
568	1	35	34	36	37
572	3	101	103	100	102
582	1	34	44	29	35
583	1	57	58	59	28
587	1	96	97	98	95
589	1	42	43	44	39
594	1	44	45	34	42
596	1	62	80	61	63
