Title

123 atoms
132 bonds
229 angles
373 dihedrals
156 impropers

9 atom types
13 bond types
9 angle types
19 dihedral types
3 improper types
-10.4630003 89.5369997 xlo xhi
-4.416999817 95.58300018 ylo yhi
-20.29899979 79.70100021 zlo zhi
0.0 0.0 0.0 xy xz yz

Masses

1	14.00672
2	12.01078
3	1.007947
4	1.007947
5	15.99943
6	12.01078
7	1.007947
8	15.99943
9	1.007947


Pair Coeffs

1	0.16769152	3.206876
2	0.086879315	3.4806469
3	0.015611343	2.5725815
4	0.014090815	1.1034277
5	0.2102061	3.0398122
6	0.10884061	3.3795318
7	0.015779483	2.6445434
8	0.20947353	2.99716
9	1.2326e-05	0.53453923

Bond Coeffs

1 harmonic	390.03554688505	1.390160554689
2 harmonic	505.144496193	1.019481865027
3 harmonic	422.7150220147	1.421786517481
4 harmonic	360.7852444772	1.387193227181
5 harmonic	397.2545789619	1.085358495916
6 harmonic	492.76746816345	1.381897776683
7 harmonic	582.698766451	1.225198386222
8 harmonic	279.1350963404	1.454628925034
9 harmonic	289.73813263395	1.498646816465
10 harmonic	264.62148576755	1.52190126495
11 harmonic	370.04670688625	1.093899492634
12 harmonic	385.7604595587	1.369745182308
13 harmonic	543.5267831885	0.9716763312559


Angle Coeffs

1 harmonic	57.8982893754	126.8062420451
2 harmonic	55.42182150775	117.3465570514
3 harmonic	63.44422595415	115.5071327674
4 harmonic	34.066775159195	129.1835929926
5 harmonic	53.20531626545	116.5475862634
6 harmonic	14.32262199324	138.3184368373
7 harmonic	48.776492647595	115.6030999533
8 harmonic	65.09061609600001	110.3538806181
9 harmonic	201.41175231035	127.4691416191


Dihedral Coeffs

1 fourier 1	3.661930099076	2	180
2 fourier 1	1.193093382682	2	180
3 fourier 1	0.02021088501612	1	0
4 fourier 1	3.101948770557	2	180
5 fourier 1	-0.4252153282372	1	0
6 fourier 1	1.809047390003	2	180
7 fourier 1	-0.04816277792592	1	0
8 fourier 1	0.9974165607242	2	180
9 fourier 1	2.348375642009	2	180
10 fourier 1	1.256156174911	1	0
11 fourier 1	0.02664938770063	3	0
12 fourier 1	0.1155372516788	3	0
13 fourier 1	0.09223874044423	3	0
14 fourier 1	0.3159935921949	2	180
15 fourier 1	0.3247796806857	1	180
16 fourier 1	0.1040663847541	3	0
17 fourier 1	2.687457892086	2	180
18 fourier 1	2.772607909663	2	180
19 fourier 1	0.09692684957115	1	0


Improper Coeffs

1 0.3666666666666667	-1	2
2 0.3333333333333333	-1	2
3 3.5	-1	2


Atoms

1	1	1	-0.39358401	-2.5339999	-0.96200001	1.688
2	1	2	0.074134	-1.733	-0.115	0.84799999
3	1	2	-0.42633101	-2.286	1.001	0.34799999
4	1	3	0.225337	-3.3080001	1.258	0.59799999
5	1	2	-0.127294	-1.554	1.9	-0.56199998
6	1	3	0.22693101	-2.0469999	2.7969999	-0.91600001
7	1	2	-0.241901	-0.308	1.636	-0.96100003
8	1	3	0.213778	0.168	2.355	-1.61
9	1	2	-0.18087199	0.40099999	0.42300001	-0.48300001
10	1	2	0.173923	1.669	0.113	-0.86000001
11	1	1	-0.50302202	2.395	0.87400001	-1.836
12	1	4	0.31878299	3.4070001	0.67299998	-2.0020001
13	1	2	-0.42066899	2.3429999	-1.0549999	-0.25
14	1	3	0.22178601	3.359	-1.301	-0.53299999
15	1	2	-0.13608401	1.715	-1.809	0.653
16	1	3	0.22693101	2.221	-2.6570001	1.097
17	1	2	-0.225458	0.33000001	-1.5	1.045
18	1	3	0.213778	-0.125	-2.1359999	1.7869999
19	1	2	-0.194383	-0.31900001	-0.454	0.49599999
20	1	4	0.377087	-2.2490001	-1.929	1.948
21	1	2	0.77014899	1.932	1.561	-2.5009999
22	1	5	-0.64979601	1.609	2.7	-2.072
23	1	2	-0.36855501	1.676	1.1799999	-3.901
24	1	2	-0.074956	2.0239999	-0.037999999	-4.3429999
25	1	3	0.22768401	2.494	-0.75400001	-3.678
26	1	2	-0.24555001	1.771	-0.43099999	-5.744
27	1	3	0.218284	2.0539999	-1.432	-6.033
28	1	2	-0.205807	1.211	0.435	-6.6170001
29	1	6	0.026323	0.89200002	0.061000001	-8.0749998
30	1	6	-0.130602	1.649	-1.189	-8.585
31	1	7	0.090108	1.298	-2.1059999	-8.066
32	1	7	0.090108	1.472	-1.3380001	-9.6719999
33	1	7	0.090108	2.743	-1.0779999	-8.4250002
34	1	2	-0.120792	1.215	1.202	-8.9890003
35	1	2	-0.147588	2.402	1.808	-9.1379995
36	1	3	0.217842	3.26	1.501	-8.5550003
37	1	2	0.0042570001	2.5220001	2.914	-10.118
38	1	3	0.218052	3.48	3.4070001	-10.232
39	1	2	-0.34323099	1.457	3.293	-10.855
40	1	2	0.587834	1.5880001	4.3899999	-11.829
41	1	5	-0.50302398	0.60299999	4.757	-12.524
42	1	2	0.075795002	0.155	2.5910001	-10.674
43	1	3	0.212093	-0.708	2.8710001	-11.264
44	1	2	-0.17784999	0.067000002	1.603	-9.7700005
45	1	6	-0.026053	-1.1289999	0.76499999	-9.4499998
46	1	6	-0.130173	-1.511	-0.097999997	-10.667
47	1	7	0.094288997	-1.812	0.542	-11.524
48	1	7	0.094288997	-0.65399998	-0.72899997	-10.984
49	1	7	0.094288997	-2.3640001	-0.764	-10.414
50	1	6	-0.130173	-2.319	1.649	-9.0279999
51	1	7	0.094288997	-2.6630001	2.2820001	-9.8739996
52	1	7	0.094288997	-2.0309999	2.316	-8.1859999
53	1	7	0.094288997	-3.1700001	1.015	-8.6999998
54	1	6	-0.17999899	-0.64899999	-0.131	-8.2620001
55	1	7	0.132726	-0.91000003	-1.2	-8.4309998
56	1	7	0.132726	-1.189	0.148	-7.329
57	1	2	-0.24555001	0.80299997	1.777	-6.1079998
58	1	3	0.218284	0.31200001	2.4820001	-6.7659998
59	1	2	-0.074956	1.026	2.1270001	-4.836
60	1	3	0.22768401	0.72000003	3.109	-4.4959998
61	1	1	-0.39358401	-3.4860001	-0.65799999	1.995
62	1	2	0.074134	-4.6259999	-1.505	1.7819999
63	1	2	-0.42633101	-4.4699998	-2.6210001	1.053
64	1	3	0.225337	-3.4949999	-2.878	0.65799999
65	1	2	-0.127294	-5.5960002	-3.5209999	0.74299997
66	1	3	0.22693101	-5.4039998	-4.4169998	0.167
67	1	2	-0.194326	-6.8400002	-3.257	1.148
68	1	3	0.213778	-7.6059999	-3.9749999	0.89899999
69	1	2	-0.220147	-7.1360002	-2.043	1.95
70	1	2	0.216406	-8.3850002	-1.733	2.385
71	1	1	-0.81321597	-9.5450001	-2.494	2.0179999
72	1	4	0.37190199	-9.5579996	-3.168	1.224
73	1	4	0.37190199	-10.463	-2.2939999	2.4749999
74	1	2	-0.45179	-8.5749998	-0.565	3.2750001
75	1	3	0.23219401	-9.5649996	-0.31900001	3.6389999
76	1	2	-0.085768998	-7.5380001	0.189	3.6400001
77	1	3	0.22693101	-7.6890001	1.0369999	4.296
78	1	2	-0.225458	-6.1849999	-0.12	3.148
79	1	3	0.213778	-5.382	0.51599997	3.484
80	1	2	-0.160368	-5.9790001	-1.166	2.323
81	1	4	0.377087	-3.5650001	0.30899999	2.372
82	1	2	0.59333301	2.536	4.8959999	-11.957
83	1	5	-0.51363403	3.253	5.1139998	-10.943
84	1	2	-0.33179101	2.9660001	5.3150001	-13.304
85	1	2	0.0095530003	4.1360002	5.9419999	-13.506
86	1	3	0.225679	4.8039999	6.158	-12.681
87	1	2	-0.23876099	4.54	6.349	-14.867
88	1	3	0.218284	5.4990001	6.835	-14.989
89	1	2	-0.205807	3.74	6.119	-15.932
90	1	6	0.026323	4.2010002	6.5310001	-17.341
91	1	6	-0.130602	3.0840001	6.4349999	-18.405001
92	1	7	0.090108	2.1949999	7.026	-18.096001
93	1	7	0.090108	2.78	5.3790002	-18.565001
94	1	7	0.090108	3.438	6.8309999	-19.382
95	1	2	-0.120792	4.723	7.9349999	-17.34
96	1	2	-0.167007	4.0710001	9.0410004	-16.952
97	1	3	0.217842	3.0580001	8.9849997	-16.575001
98	1	2	-0.057064999	4.7600002	10.349	-17.046
99	1	3	0.234378	4.2290001	11.236	-16.725
100	1	2	-0.22510301	6.0229998	10.426	-17.525999
101	1	2	0.83713901	6.723	11.725	-17.629
102	1	5	-0.471228	6.1550002	12.792	-17.27
103	1	8	-0.66250002	8.0229998	11.778	-18.125999
104	1	9	0.42080599	8.5150003	12.66	-18.202
105	1	2	0.0098449998	6.7140002	9.1780005	-17.958
106	1	3	0.227274	7.7189999	9.2150002	-18.357
107	1	2	-0.17212801	6.073	8.0039997	-17.85
108	1	6	-0.026053	6.579	6.652	-18.24
109	1	6	-0.130173	7.8959999	6.3280001	-17.509001
110	1	7	0.094288997	8.7080002	7.0139999	-17.832001
111	1	7	0.094288997	7.7670002	6.4299998	-16.409
112	1	7	0.094288997	8.2119999	5.2859998	-17.731001
113	1	6	-0.130173	6.7849998	6.585	-19.764999
114	1	7	0.094288997	5.842	6.8309999	-20.299
115	1	7	0.094288997	7.5679998	7.3039999	-20.087999
116	1	7	0.094288997	7.105	5.5640001	-20.066999
117	1	6	-0.17999899	5.4369998	5.6820002	-17.792
118	1	7	0.132726	5.1690001	4.9710002	-18.605
119	1	7	0.132726	5.7870002	5.0339999	-16.957001
120	1	2	-0.23876099	2.45	5.4050002	-15.696
121	1	3	0.218284	1.779	5.1729999	-16.51
122	1	2	0.0095530003	2.089	5.0339999	-14.461
123	1	3	0.225679	1.147	4.52	-14.314

Bonds

1	1	1	2
2	2	1	20
3	3	1	61
4	4	2	3
5	4	2	19
6	5	3	4
7	4	3	5
8	5	5	6
9	4	5	7
10	5	7	8
11	4	7	9
12	4	9	10
13	4	9	19
14	1	10	11
15	4	10	13
16	2	11	12
17	6	11	21
18	5	13	14
19	4	13	15
20	5	15	16
21	4	15	17
22	5	17	18
23	4	17	19
24	7	21	22
25	8	21	23
26	4	23	24
27	4	23	59
28	5	24	25
29	4	24	26
30	5	26	27
31	4	26	28
32	9	28	29
33	4	28	57
34	10	29	30
35	9	29	34
36	10	29	54
37	11	30	31
38	11	30	32
39	11	30	33
40	4	34	35
41	4	34	44
42	5	35	36
43	4	35	37
44	5	37	38
45	4	37	39
46	8	39	40
47	4	39	42
48	7	40	41
49	8	40	82
50	5	42	43
51	4	42	44
52	9	44	45
53	10	45	46
54	10	45	50
55	10	45	54
56	11	46	47
57	11	46	48
58	11	46	49
59	11	50	51
60	11	50	52
61	11	50	53
62	11	54	55
63	11	54	56
64	5	57	58
65	4	57	59
66	5	59	60
67	1	61	62
68	2	61	81
69	4	62	63
70	4	62	80
71	5	63	64
72	4	63	65
73	5	65	66
74	4	65	67
75	5	67	68
76	4	67	69
77	4	69	70
78	4	69	80
79	1	70	71
80	4	70	74
81	2	71	72
82	2	71	73
83	5	74	75
84	4	74	76
85	5	76	77
86	4	76	78
87	5	78	79
88	4	78	80
89	7	82	83
90	8	82	84
91	4	84	85
92	4	84	122
93	5	85	86
94	4	85	87
95	5	87	88
96	4	87	89
97	9	89	90
98	4	89	120
99	10	90	91
100	9	90	95
101	10	90	117
102	11	91	92
103	11	91	93
104	11	91	94
105	4	95	96
106	4	95	107
107	5	96	97
108	4	96	98
109	5	98	99
110	4	98	100
111	8	100	101
112	4	100	105
113	7	101	102
114	12	101	103
115	13	103	104
116	5	105	106
117	4	105	107
118	9	107	108
119	10	108	109
120	10	108	113
121	10	108	117
122	11	109	110
123	11	109	111
124	11	109	112
125	11	113	114
126	11	113	115
127	11	113	116
128	11	117	118
129	11	117	119
130	5	120	121
131	4	120	122
132	5	122	123

Angles

1	7	32	30	33
2	5	30	29	54
3	4	79	78	80
4	5	30	29	34
5	1	65	67	69
6	1	82	84	85
7	3	72	71	73
8	1	96	98	100
9	1	90	89	120
10	1	37	39	40
11	7	114	113	115
12	2	10	11	21
13	5	108	109	111
14	5	45	54	56
15	1	70	74	76
16	5	46	45	54
17	6	29	34	35
18	4	39	42	43
19	5	45	50	51
20	4	86	85	87
21	4	16	15	17
22	4	62	63	64
23	1	39	40	82
24	5	29	54	55
25	5	90	117	108
26	5	46	45	50
27	1	83	82	84
28	3	2	1	20
29	1	7	9	10
30	1	98	100	105
31	4	23	24	25
32	1	28	57	59
33	5	95	90	117
34	5	108	109	112
35	1	23	59	57
36	3	20	1	61
37	5	89	90	95
38	1	69	70	74
39	7	51	50	52
40	4	97	96	98
41	1	100	105	107
42	1	34	44	45
43	1	100	101	102
44	3	10	11	12
45	3	70	71	72
46	5	89	90	91
47	4	75	74	76
48	1	90	95	107
49	1	41	40	82
50	4	120	122	123
51	1	23	24	26
52	5	90	91	93
53	1	24	23	59
54	4	58	57	59
55	1	21	23	59
56	7	110	109	111
57	4	57	59	60
58	6	105	107	108
59	5	44	45	46
60	4	95	96	97
61	5	108	117	119
62	5	108	113	114
63	1	29	34	44
64	5	91	90	95
65	1	70	69	80
66	7	31	30	32
67	1	62	80	69
68	3	70	71	73
69	1	26	28	29
70	4	14	13	15
71	5	109	108	117
72	1	9	19	17
73	1	34	44	42
74	4	3	5	6
75	5	90	91	94
76	4	10	13	14
77	1	67	69	80
78	1	29	28	57
79	4	34	35	36
80	4	36	35	37
81	5	109	108	113
82	7	110	109	112
83	1	61	62	80
84	4	76	78	79
85	7	114	113	116
86	4	88	87	89
87	4	89	120	121
88	1	63	62	80
89	1	11	21	22
90	7	47	46	48
91	1	39	42	44
92	5	45	50	52
93	2	2	1	61
94	1	40	82	83
95	5	29	30	31
96	6	42	44	45
97	5	44	45	54
98	4	5	7	8
99	4	4	3	5
100	1	9	10	13
101	1	26	28	57
102	5	45	46	47
103	1	62	63	65
104	4	68	67	69
105	1	3	5	7
106	5	113	108	117
107	5	29	54	56
108	1	10	13	15
109	5	29	54	45
110	4	18	17	19
111	1	69	80	78
112	1	101	100	105
113	4	13	15	16
114	1	34	35	37
115	7	92	91	93
116	5	44	45	50
117	1	87	89	90
118	1	37	39	42
119	5	28	29	30
120	5	34	29	54
121	7	115	113	116
122	6	90	95	96
123	7	47	46	49
124	5	45	50	53
125	1	71	70	74
126	1	95	107	105
127	1	5	7	9
128	7	51	50	53
129	1	22	21	23
130	1	82	84	122
131	4	106	105	107
132	4	15	17	18
133	3	1	61	81
134	4	2	3	4
135	8	101	103	104
136	1	100	101	103
137	4	121	120	122
138	7	93	91	94
139	4	63	65	66
140	1	85	84	122
141	1	96	95	107
142	9	102	101	103
143	1	7	9	19
144	1	13	15	17
145	1	67	69	70
146	7	92	91	94
147	1	11	10	13
148	1	69	70	71
149	1	39	40	41
150	4	8	7	9
151	5	89	90	117
152	4	25	24	26
153	1	1	2	3
154	1	21	23	24
155	4	24	26	27
156	7	55	54	56
157	7	52	50	53
158	4	96	98	99
159	1	15	17	19
160	1	95	96	98
161	1	1	2	19
162	5	108	113	115
163	3	12	11	21
164	5	28	29	54
165	4	64	63	65
166	5	45	54	55
167	1	2	19	17
168	7	31	30	33
169	5	107	108	117
170	4	43	42	44
171	5	108	109	110
172	4	77	76	78
173	5	28	29	34
174	4	74	76	77
175	1	84	122	120
176	7	48	46	49
177	5	90	117	118
178	4	84	122	123
179	4	23	59	60
180	4	84	85	86
181	5	107	108	113
182	1	62	80	78
183	1	24	26	28
184	4	35	37	38
185	4	66	65	67
186	5	91	90	117
187	7	111	109	112
188	1	76	78	80
189	5	108	113	116
190	4	28	57	58
191	2	1	61	62
192	1	11	21	23
193	4	38	37	39
194	5	107	108	109
195	1	10	9	19
196	1	40	82	84
197	5	29	30	32
198	5	50	45	54
199	5	45	46	48
200	1	95	107	108
201	1	74	76	78
202	4	85	87	88
203	4	100	105	106
204	5	90	117	119
205	1	87	89	120
206	1	61	62	63
207	1	40	39	42
208	1	84	85	87
209	1	35	37	39
210	4	6	5	7
211	5	90	91	92
212	5	29	30	33
213	4	65	67	68
214	5	45	46	49
215	1	85	87	89
216	5	108	117	118
217	1	2	3	5
218	1	3	2	19
219	1	35	34	44
220	1	98	100	101
221	1	63	65	67
222	1	89	120	122
223	4	27	26	28
224	3	62	61	81
225	4	70	74	75
226	4	99	98	100
227	7	118	117	119
228	1	2	19	9
229	1	9	10	11

Dihedrals

1	16	30	29	54	56
2	1	64	63	65	66
3	12	44	45	54	55
4	1	37	39	42	43
5	12	44	45	46	49
6	1	98	100	105	106
7	16	109	108	113	115
8	1	21	23	59	57
9	2	63	62	61	81
10	8	102	101	100	105
11	1	74	76	78	80
12	1	36	35	37	39
13	12	28	29	54	55
14	1	35	34	44	42
15	1	29	28	57	59
16	11	26	28	29	30
17	1	96	98	100	101
18	1	63	62	80	69
19	1	84	122	120	121
20	11	87	89	90	95
21	16	112	109	108	113
22	12	95	90	117	108
23	12	89	90	91	92
24	2	69	70	71	72
25	1	101	100	105	106
26	11	42	44	45	54
27	16	92	91	90	117
28	12	90	117	108	107
29	16	113	108	117	118
30	1	2	19	17	15
31	1	21	23	24	25
32	1	25	24	26	27
33	3	20	1	61	81
34	1	82	84	85	86
35	1	7	9	19	17
36	12	29	54	45	44
37	16	51	50	45	54
38	1	95	107	105	106
39	1	96	98	100	105
40	12	107	108	117	118
41	11	96	95	90	117
42	8	83	82	84	122
43	1	63	65	67	68
44	8	22	21	23	59
45	1	87	89	120	121
46	1	34	44	42	43
47	16	46	45	54	55
48	8	98	100	101	102
49	1	99	98	100	105
50	2	3	2	1	61
51	1	75	74	76	77
52	1	23	59	57	58
53	11	95	107	108	113
54	12	107	108	109	112
55	1	16	15	17	19
56	1	86	85	87	89
57	2	19	2	1	61
58	1	70	74	76	78
59	2	72	71	70	74
60	16	94	91	90	117
61	1	65	67	69	80
62	16	30	29	54	55
63	11	34	44	45	50
64	16	109	108	117	119
65	16	109	108	113	114
66	1	90	95	107	108
67	2	13	10	11	21
68	1	38	37	39	40
69	1	74	76	78	79
70	1	36	35	37	38
71	12	28	29	54	45
72	1	29	28	57	58
73	1	66	65	67	68
74	1	9	10	13	15
75	2	80	62	61	81
76	1	11	10	13	15
77	11	89	90	95	96
78	1	71	70	69	80
79	1	26	24	23	59
80	1	4	3	5	7
81	1	77	76	78	80
82	1	25	24	23	59
83	1	64	63	62	80
84	12	44	45	50	53
85	1	21	23	59	60
86	3	2	1	61	62
87	16	116	113	108	117
88	1	35	34	44	45
89	1	3	5	7	8
90	1	2	19	9	7
91	1	61	62	80	69
92	6	12	11	21	23
92	7	12	11	21	23
93	11	42	44	45	46
94	1	62	63	65	67
95	1	61	62	63	65
96	1	65	67	69	70
97	16	52	50	45	54
98	1	11	10	9	19
99	1	89	120	122	123
100	1	29	34	44	42
101	2	3	2	1	20
102	12	107	108	113	116
103	1	24	26	28	57
104	1	86	85	87	88
105	11	87	89	90	91
106	1	43	42	44	45
107	1	69	70	74	75
108	1	4	3	2	19
109	11	42	44	45	50
110	13	30	29	54	45
110	14	30	29	54	45
110	15	30	29	54	45
111	16	46	45	50	53
112	16	109	108	117	118
113	16	110	109	108	117
114	1	1	2	19	17
115	1	96	95	107	105
116	1	2	19	9	10
117	1	4	3	5	6
118	12	28	29	30	31
119	1	2	3	5	6
120	1	34	44	42	39
121	12	44	45	50	52
122	8	22	21	23	24
123	1	88	87	89	120
124	1	90	95	96	98
125	1	99	98	100	101
126	16	48	46	45	54
127	1	27	26	28	57
128	1	90	89	120	122
129	1	13	15	17	19
130	1	1	2	3	5
131	11	30	29	34	35
132	11	87	89	90	117
133	2	73	71	70	74
134	11	95	107	108	109
135	1	10	13	15	16
136	12	34	29	54	56
137	16	31	30	29	54
138	12	89	90	91	94
139	12	31	30	29	34
140	1	58	57	59	60
141	8	39	40	82	84
142	1	5	7	9	10
143	8	40	82	84	85
144	13	90	117	108	109
144	14	90	117	108	109
144	15	90	117	108	109
145	1	62	63	65	66
146	11	34	44	45	46
147	1	35	37	39	42
148	13	29	54	45	46
148	14	29	54	45	46
148	15	29	54	45	46
149	1	97	96	98	100
150	1	95	96	98	100
151	1	98	96	95	107
152	8	41	40	82	83
153	16	111	109	108	117
154	13	90	117	108	113
154	14	90	117	108	113
154	15	90	117	108	113
155	1	67	69	80	78
156	12	44	45	46	48
157	1	62	80	69	67
158	1	5	3	2	19
159	1	62	80	78	76
160	13	29	54	45	50
160	14	29	54	45	50
160	15	29	54	45	50
161	1	29	34	44	45
162	1	90	89	120	121
163	1	3	2	19	9
164	11	35	34	29	54
165	1	67	69	70	71
166	12	93	91	90	95
167	1	24	26	28	29
168	16	50	45	54	56
169	1	84	122	120	89
170	1	24	23	59	60
171	12	89	90	117	119
172	12	44	45	54	56
173	1	37	39	42	44
174	6	10	11	21	23
174	7	10	11	21	23
175	1	90	95	96	97
176	1	36	35	34	44
177	18	102	101	103	104
177	19	102	101	103	104
178	1	88	87	89	90
179	8	40	82	84	122
180	1	96	95	107	108
181	1	85	87	89	120
182	1	86	85	84	122
183	12	34	29	54	55
184	1	34	35	37	39
185	1	40	39	42	44
186	16	33	30	29	54
187	3	20	1	61	62
188	1	84	85	87	89
189	12	89	90	91	93
190	2	69	70	71	73
191	1	101	100	105	107
192	8	39	40	82	83
193	12	33	30	29	34
194	11	28	29	34	35
195	1	69	80	78	79
196	2	9	10	11	21
197	16	32	30	29	54
198	8	11	21	23	24
199	16	110	109	108	113
200	1	25	24	26	28
201	12	32	30	29	34
202	1	6	5	7	9
203	1	97	96	95	107
204	1	85	84	122	120
205	1	68	67	69	70
206	1	82	84	85	87
207	16	53	50	45	54
208	12	107	108	109	111
209	1	7	9	10	11
210	1	16	15	17	18
211	1	14	13	15	17
212	2	9	10	11	12
213	2	1	61	62	80
214	1	70	74	76	77
215	1	24	23	59	57
216	12	44	45	46	47
217	2	19	2	1	20
218	8	98	100	101	103
219	16	91	90	117	119
220	1	39	42	44	45
221	1	82	84	122	120
222	11	34	29	28	57
223	16	48	46	45	50
224	1	75	74	76	78
225	8	103	101	100	105
226	8	42	39	40	82
227	1	9	10	13	14
228	11	105	107	108	117
229	1	11	10	13	14
230	1	74	70	69	80
231	1	26	28	57	59
232	1	8	7	9	10
233	16	50	45	54	55
234	1	77	76	78	79
235	12	89	90	117	118
236	4	10	11	21	22
236	5	10	11	21	22
237	1	69	80	78	76
238	12	92	91	90	95
239	1	23	24	26	28
240	1	62	80	69	70
241	1	71	70	74	76
242	16	114	113	108	117
243	16	47	46	45	54
244	1	62	80	78	79
245	1	63	62	80	78
246	11	30	29	34	44
247	1	66	65	67	69
248	1	65	63	62	80
249	1	67	69	70	74
250	12	95	90	117	119
251	12	34	29	54	45
252	1	34	35	37	38
253	1	40	39	42	43
254	1	85	87	89	90
255	1	84	85	87	88
256	1	8	7	9	19
257	2	12	11	10	13
258	16	111	109	108	113
259	12	28	29	30	33
260	9	12	11	21	22
260	10	12	11	21	22
261	3	2	1	61	81
262	1	10	9	19	17
263	1	28	57	59	60
264	17	100	101	103	104
265	1	61	62	63	64
266	1	35	37	39	40
267	11	26	28	29	54
268	11	54	29	28	57
269	1	6	5	7	8
270	11	26	28	29	34
271	1	3	5	7	9
272	8	41	40	39	42
273	12	107	108	113	115
274	12	107	108	109	110
275	16	112	109	108	117
276	1	14	13	15	16
277	1	5	7	9	19
278	16	46	45	50	52
279	16	91	90	117	118
280	12	94	91	90	95
281	2	1	61	62	63
282	1	68	67	69	80
283	11	117	90	89	120
284	1	29	34	35	37
285	8	37	39	40	82
286	1	26	28	57	58
287	1	69	70	74	76
288	1	64	63	65	67
289	16	49	46	45	50
290	1	9	19	17	18
291	12	89	90	117	108
292	12	44	45	50	51
293	1	98	100	105	107
294	16	109	108	113	116
295	1	85	84	122	123
296	1	23	24	26	27
297	1	38	37	39	42
298	1	71	70	74	75
299	12	28	29	54	56
300	11	44	34	29	54
301	1	100	105	107	108
302	1	13	15	17	18
303	1	1	2	3	4
304	11	95	107	108	117
305	1	37	35	34	44
306	11	91	90	89	120
307	16	93	91	90	117
308	11	89	90	95	107
309	12	95	90	117	118
310	11	105	107	108	109
311	11	107	95	90	117
312	11	28	29	34	44
313	1	87	85	84	122
314	12	28	29	30	32
315	16	49	46	45	54
316	1	70	69	80	78
317	1	2	3	5	7
318	11	34	44	45	54
319	1	82	84	122	123
320	1	121	120	122	123
321	16	115	113	108	117
322	16	113	108	117	119
323	11	95	90	89	120
324	1	21	23	24	26
325	1	1	2	19	9
326	1	61	62	80	78
327	11	91	90	95	107
328	1	27	26	28	29
329	12	107	108	117	119
330	1	97	96	98	99
331	11	91	90	95	96
332	12	107	108	113	114
333	1	10	13	15	17
334	1	63	65	67	69
335	1	95	96	98	99
336	1	106	105	107	108
337	1	3	2	19	17
338	11	105	107	108	113
339	16	46	45	54	56
340	1	9	19	17	15
341	16	46	45	50	51
342	8	83	82	84	85
343	1	2	19	17	18
344	1	90	95	107	105
345	13	91	90	117	108
345	14	91	90	117	108
345	15	91	90	117	108
346	8	37	39	40	41
347	16	47	46	45	50
348	1	95	107	105	100
349	11	30	29	28	57
350	1	7	9	10	13
351	1	13	10	9	19
352	1	23	59	57	28
353	1	87	89	120	122
354	1	29	34	35	36
355	8	41	40	82	84
356	8	11	21	23	59

Impropers

5	1	100	98	101	105
11	1	24	25	26	23
12	1	40	39	41	82
14	1	24	23	25	26
18	1	67	68	69	65
19	1	80	78	62	69
22	2	71	73	70	72
24	1	37	39	35	38
25	1	87	89	85	88
26	1	17	18	19	15
27	1	15	16	17	13
28	1	19	2	9	17
32	1	62	61	63	80
38	1	95	107	90	96
39	1	122	120	123	84
41	1	44	42	45	34
45	1	67	69	65	68
53	1	78	79	80	76
55	1	9	7	10	19
57	1	5	3	6	7
65	1	76	77	78	74
66	1	15	17	13	16
70	1	3	2	4	5
75	1	67	65	68	69
79	1	23	59	21	24
81	1	74	75	76	70
83	1	10	11	13	9
84	1	5	6	7	3
85	1	98	96	99	100
88	1	105	106	107	100
102	2	1	61	2	20
109	1	96	97	98	95
112	1	10	13	9	11
113	1	65	63	66	67
115	1	78	80	76	79
119	1	39	42	37	40
122	1	105	107	100	106
124	1	57	58	59	28
133	1	76	78	74	77
135	1	2	3	19	1
141	1	13	10	14	15
146	1	100	101	105	98
152	1	63	64	65	62
154	2	61	62	81	1
161	1	2	1	3	19
164	1	28	57	26	29
168	1	13	15	10	14
175	1	107	105	108	95
181	1	24	26	23	25
188	1	69	80	67	70
190	1	21	23	11	22
194	2	11	10	12	21
196	1	76	74	77	78
202	1	26	27	28	24
204	1	82	83	84	40
214	1	7	5	8	9
217	1	70	74	69	71
219	2	11	21	10	12
222	1	57	59	28	58
223	1	84	82	85	122
230	1	23	24	59	21
232	1	21	11	22	23
235	1	40	41	82	39
238	1	34	44	29	35
242	1	35	37	34	36
243	1	74	70	75	76
244	1	7	9	5	8
246	1	70	69	71	74
248	1	59	57	60	23
249	1	74	76	70	75
252	1	63	65	62	64
262	1	9	19	7	10
268	1	35	36	37	34
269	3	101	103	100	102
271	1	122	84	120	123
280	1	10	9	11	13
282	2	61	1	62	81
283	1	44	45	34	42
286	1	100	105	98	101
290	1	39	37	40	42
296	3	101	102	103	100
300	1	59	23	57	60
306	1	35	34	36	37
313	1	62	80	61	63
314	1	80	62	69	78
316	1	82	40	83	84
317	1	40	82	39	41
321	1	82	84	40	83
322	1	63	62	64	65
324	1	59	60	23	57
327	1	57	28	58	59
328	3	101	100	102	103
331	1	42	44	39	43
336	2	71	72	73	70
342	1	85	86	87	84
343	1	62	63	80	61
347	1	87	85	88	89
351	1	17	19	15	18
353	1	3	4	5	2
361	1	85	87	84	86
368	1	107	108	95	105
369	1	89	87	90	120
370	2	61	81	1	62
372	1	65	66	67	63
379	1	39	40	42	37
381	1	89	90	120	87
384	1	96	98	95	97
385	1	13	14	15	10
394	1	15	13	16	17
406	1	28	29	57	26
412	1	21	22	23	11
415	1	78	76	79	80
416	1	26	24	27	28
426	1	95	90	96	107
435	1	70	71	74	69
439	1	65	67	63	66
443	1	96	95	97	98
448	2	1	2	20	61
451	1	122	123	84	120
453	1	89	120	87	90
465	1	42	39	43	44
469	1	80	69	78	62
473	1	5	7	3	6
474	1	3	5	2	4
475	1	107	95	105	108
480	1	34	29	35	44
483	1	120	122	89	121
484	1	44	34	42	45
491	1	98	99	100	96
501	2	71	70	72	73
502	1	69	67	70	80
504	2	11	12	21	10
507	1	17	15	18	19
508	1	7	8	9	5
524	1	69	70	80	67
535	1	26	28	24	27
536	1	2	19	1	3
537	1	85	84	86	87
538	1	42	43	44	39
540	1	19	9	17	2
543	1	98	100	96	99
548	1	37	38	39	35
549	1	37	35	38	39
552	1	95	96	107	90
561	2	1	20	61	2
563	1	84	122	82	85
565	1	9	10	19	7
566	1	120	89	121	122
569	1	23	21	24	59
580	1	28	26	29	57
582	1	87	88	89	85
585	1	120	121	122	89
588	1	34	35	44	29
589	1	105	100	106	107
594	1	84	85	122	82
595	1	19	17	2	9
