Title

193 atoms
206 bonds
353 angles
553 dihedrals
240 impropers

10 atom types
14 bond types
9 angle types
20 dihedral types
3 improper types
-8.517000198 91.4829998 xlo xhi
-11.81599998 88.18400002 ylo yhi
-14.60000038 85.39999962 zlo zhi
0.0 0.0 0.0 xy xz yz

Masses

1	14.00672
2	12.01078
3	1.007947
4	15.99943
5	12.01078
6	1.007947
7	1.007947
8	15.99943
9	15.99943
10	1.007947


Pair Coeffs

1	0.16769152	3.206876
2	0.086879315	3.4806469
3	0.015611343	2.5725815
4	0.16846514	3.0251065
5	0.10884061	3.3795318
6	0.014090815	1.1034277
7	0.015779483	2.6445434
8	0.2102061	3.0398122
9	0.20947353	2.99716
10	1.2326e-05	0.53453923

Bond Coeffs

1 harmonic	390.03554688505	1.390160554689
2 harmonic	505.144496193	1.019481865027
3 harmonic	422.7150220147	1.421786517481
4 harmonic	360.7852444772	1.387193227181
5 harmonic	397.2545789619	1.085358495916
6 harmonic	425.69104206635	1.362945806494
7 harmonic	289.73813263395	1.498646816465
8 harmonic	264.62148576755	1.52190126495
9 harmonic	492.76746816345	1.381897776683
10 harmonic	370.04670688625	1.093899492634
11 harmonic	582.698766451	1.225198386222
12 harmonic	279.1350963404	1.454628925034
13 harmonic	385.7604595587	1.369745182308
14 harmonic	543.5267831885	0.9716763312559


Angle Coeffs

1 harmonic	57.8982893754	126.8062420451
2 harmonic	55.42182150775	117.3465570514
3 harmonic	63.44422595415	115.5071327674
4 harmonic	34.066775159195	129.1835929926
5 harmonic	65.09061609600001	110.3538806181
6 harmonic	53.20531626545	116.5475862634
7 harmonic	48.776492647595	115.6030999533
8 harmonic	14.32262199324	138.3184368373
9 harmonic	201.41175231035	127.4691416191


Dihedral Coeffs

1 fourier 1	3.661930099076	2	180
2 fourier 1	1.193093382682	2	180
3 fourier 1	0.02021088501612	1	0
4 fourier 1	1.532232714475	2	180
5 fourier 1	0.02664938770063	3	0
6 fourier 1	0.1155372516788	3	0
7 fourier 1	3.101948770557	2	180
8 fourier 1	-0.4252153282372	1	0
9 fourier 1	1.809047390003	2	180
10 fourier 1	-0.04816277792592	1	0
11 fourier 1	0.9974165607242	2	180
12 fourier 1	2.348375642009	2	180
13 fourier 1	1.256156174911	1	0
14 fourier 1	0.1040663847541	3	0
15 fourier 1	0.09223874044423	3	0
16 fourier 1	0.3159935921949	2	180
17 fourier 1	0.3247796806857	1	180
18 fourier 1	2.687457892086	2	180
19 fourier 1	2.772607909663	2	180
20 fourier 1	0.09692684957115	1	0


Improper Coeffs

1 0.3666666666666667	-1	2
2 0.3333333333333333	-1	2
3 3.5	-1	2


Atoms

1	1	1	-0.41193601	9.1789999	-0.991	2.062
2	1	2	0.100771	7.75	-0.98100001	2.0009999
3	1	2	-0.38785699	7.04	-2.036	2.4289999
4	1	3	0.22444101	7.54	-2.915	2.823
5	1	2	-0.22572	5.5619998	-2.013	2.382
6	1	3	0.225375	5.0040002	-2.8640001	2.747
7	1	2	0.18194599	4.9159999	-0.94400001	1.891
8	1	4	-0.26896599	3.5139999	-0.94499999	1.886
9	1	2	0.25678301	2.7149999	-0.191	1.018
10	1	2	-0.277318	1.545	0.28299999	1.459
11	1	3	0.228444	1.233	0.094999999	2.4790001
12	1	2	-0.142657	0.68300003	1.092	0.57499999
13	1	3	0.215983	-0.234	1.494	0.986
14	1	2	-0.25867	1.028	1.331	-0.70899999
15	1	5	0.0086859995	0.125	2.2190001	-1.59
16	1	2	-0.25867	-1.342	1.755	-1.497
17	1	2	-0.142657	-1.643	0.44	-1.6059999
18	1	3	0.215983	-0.86199999	-0.29899999	-1.738
19	1	2	-0.277318	-3.0409999	-0.030999999	-1.538
20	1	3	0.228444	-3.244	-1.091	-1.623
21	1	2	0.25678301	-4.0440001	0.84899998	-1.39
22	1	4	-0.26896599	-5.382	0.43900001	-1.324
23	1	2	0.18194599	-5.8470001	-0.68000001	-0.61500001
24	1	2	-0.246967	-7.0279999	-1.215	-0.958
25	1	3	0.225376	-7.5949998	-0.80000001	-1.781
26	1	2	-0.359023	-7.566	-2.382	-0.223
27	1	3	0.220557	-8.5170002	-2.803	-0.52499998
28	1	2	0.16567899	-6.881	-2.908	0.80400002
29	1	1	-0.53215098	-7.3969998	-4.0320001	1.52
30	1	6	0.31948	-8.3140001	-4.4640002	1.261
31	1	2	-0.35902399	-5.585	-2.3069999	1.201
32	1	3	0.220557	-5.0349998	-2.7149999	2.04
33	1	2	-0.246967	-5.0960002	-1.2539999	0.53399998
34	1	3	0.225376	-4.1620002	-0.81300002	0.85600001
35	1	2	-0.277318	-3.7409999	2.2920001	-1.344
36	1	3	0.228444	-4.5500002	3.006	-1.2640001
37	1	2	-0.142657	-2.4749999	2.723	-1.392
38	1	3	0.215983	-2.302	3.789	-1.357
39	1	5	-0.129953	0.52100003	2.171	-3.0840001
40	1	7	0.089170001	1.521	2.6270001	-3.25
41	1	7	0.089170001	-0.207	2.7460001	-3.698
42	1	7	0.089170001	0.53100002	1.123	-3.4590001
43	1	5	-0.129953	0.31400001	3.675	-1.099
44	1	7	0.089170001	1.395	3.9330001	-1.051
45	1	7	0.089170001	-0.118	3.8110001	-0.083999999
46	1	7	0.089170001	-0.163	4.4000001	-1.7920001
47	1	2	-0.142657	2.3280001	0.77700001	-1.198
48	1	3	0.215983	2.661	0.935	-2.2130001
49	1	2	-0.277318	3.1129999	0.057	-0.38800001
50	1	3	0.228444	4.0359998	-0.35699999	-0.773
51	1	2	-0.22572	5.704	0.229	1.421
52	1	3	0.225375	5.204	1.119	1.058
53	1	2	-0.38785699	7.0419998	0.20999999	1.476
54	1	3	0.22444101	7.6069999	1.074	1.145
55	1	6	0.372785	9.6969995	-1.824	2.4200001
56	1	2	0.76818198	-6.8600001	-4.4380002	2.3429999
57	1	8	-0.65837097	-7.1609998	-5.5869999	2.76
58	1	2	-0.37100101	-5.7810001	-3.6619999	2.9809999
59	1	2	-0.079645	-5.473	-2.438	2.526
60	1	3	0.224031	-6.0120001	-2.007	1.691
61	1	2	-0.24984699	-4.3940001	-1.651	3.158
62	1	3	0.214035	-4.2080002	-0.66399997	2.7609999
63	1	2	-0.210602	-3.677	-2.1559999	4.1859999
64	1	5	0.024652001	-2.5710001	-1.362	4.902
65	1	5	-0.13169099	-2.0420001	-0.15099999	4.0960002
66	1	7	0.087300003	-2.8199999	0.63599998	4.0029998
67	1	7	0.087300003	-1.168	0.308	4.6059999
68	1	7	0.087300003	-1.722	-0.46599999	3.079
69	1	2	-0.125884	-1.408	-2.2520001	5.2140002
70	1	2	-0.153291	-0.68099999	-2.97	4.3460002
71	1	3	0.213383	-0.91399997	-2.964	3.289
72	1	2	-0.0012910001	0.45100001	-3.7780001	4.8559999
73	1	3	0.21421801	1.033	-4.362	4.1539998
74	1	2	-0.34617001	0.75099999	-3.779	6.1719999
75	1	2	0.58570898	1.881	-4.5830002	6.6700001
76	1	8	-0.51633602	2.174	-4.5960002	7.895
77	1	2	0.069771998	-0.068999998	-2.9619999	7.1110001
78	1	3	0.20798799	0.163	-2.9389999	8.1680002
79	1	2	-0.181721	-1.098	-2.25	6.6259999
80	1	5	-0.027448	-2.026	-1.357	7.3870001
81	1	5	-0.131285	-1.252	-0.152	7.954
82	1	7	0.091541	-0.486	-0.486	8.6859999
83	1	7	0.091541	-0.73900002	0.403	7.1389999
84	1	7	0.091541	-1.948	0.54400003	8.4700003
85	1	5	-0.131285	-2.7190001	-2.1300001	8.5249996
86	1	7	0.091541	-1.983	-2.4530001	9.2910004
87	1	7	0.091541	-3.2320001	-3.033	8.1280003
88	1	7	0.091541	-3.4760001	-1.485	9.0209999
89	1	5	-0.18138	-3.062	-0.89499998	6.3109999
90	1	7	0.12973499	-3.217	0.207	6.3449998
91	1	7	0.12973499	-4.0640001	-1.3279999	6.533
92	1	2	-0.24984699	-4.0469999	-3.507	4.6999998
93	1	3	0.214035	-3.5239999	-3.928	5.5500002
94	1	2	-0.079645	-5.0289998	-4.2150002	4.131
95	1	3	0.224031	-5.2750001	-5.1929998	4.526
96	1	1	-0.41193601	9.7279997	-0.15700001	1.758
97	1	2	0.100772	10.438	-0.168	0.51599997
98	1	2	-0.38785699	11.178	0.88800001	0.14300001
99	1	3	0.22444101	11.245	1.767	0.77600002
100	1	2	-0.22572	11.925	0.86400002	-1.133
101	1	3	0.225375	12.53	1.716	-1.411
102	1	2	0.18194599	11.853	-0.205	-1.941
103	1	4	-0.26896599	12.595	-0.20299999	-3.131
104	1	2	0.25678301	12.285	-0.958	-4.2690001
105	1	2	-0.277318	13.281	-1.431	-5.0250001
106	1	3	0.228444	14.311	-1.244	-4.7459998
107	1	2	-0.142657	12.992	-2.24	-6.2249999
108	1	3	0.215983	13.828	-2.642	-6.783
109	1	2	-0.25867	11.721	-2.4790001	-6.6170001
110	1	5	0.0086859995	11.456	-3.3670001	-7.8499999
111	1	2	-0.25867	12.315	-2.9030001	-9.0430002
112	1	2	-0.142657	12.383	-1.589	-9.3549995
113	1	3	0.215983	11.856	-0.85000002	-8.7650003
114	1	2	-0.277318	13.185	-1.118	-10.503
115	1	3	0.228444	13.221	-0.057999998	-10.72
116	1	2	0.25678301	13.845	-1.997	-11.273
117	1	4	-0.26896599	14.612	-1.587	-12.371
118	1	2	0.18194599	15.46	-0.46900001	-12.387
119	1	2	-0.17144801	15.799	0.067000002	-13.569
120	1	3	0.225376	15.404	-0.34900001	-14.488
121	1	2	-0.437356	16.707001	1.233	-13.634
122	1	3	0.233187	16.958	1.654	-14.6
123	1	2	0.28046799	17.212	1.7589999	-12.507
124	1	1	-0.84470302	18.091999	2.8840001	-12.563
125	1	6	0.36636201	18.496	3.2820001	-11.685
126	1	6	0.36636201	18.362	3.316	-13.477
127	1	2	-0.437356	16.858999	1.159	-11.199
128	1	3	0.233187	17.275999	1.566	-10.286
129	1	2	-0.17144801	16.034	0.105	-11.14
130	1	3	0.225376	15.809	-0.33500001	-10.178
131	1	2	-0.277318	13.722	-3.4400001	-10.992
132	1	3	0.228444	14.22	-4.1550002	-11.635
133	1	2	-0.142657	13.008	-3.872	-9.9460001
134	1	3	0.215983	12.946	-4.9380002	-9.7810001
135	1	5	-0.129953	9.9809999	-3.319	-8.3100004
136	1	7	0.089170001	9.3079996	-3.776	-7.552
137	1	7	0.089170001	9.849	-3.8940001	-9.2530003
138	1	7	0.089170001	9.658	-2.2720001	-8.5010004
139	1	5	-0.129953	11.771	-4.823	-7.4289999
140	1	7	0.089170001	11.237	-5.0809999	-6.4879999
141	1	7	0.089170001	12.861	-4.9590001	-7.2540002
142	1	7	0.089170001	11.439	-5.5479999	-8.2019997
143	1	2	-0.142657	10.615	-1.926	-5.777
144	1	3	0.215983	9.5790005	-2.0840001	-6.0349998
145	1	2	-0.277318	10.883	-1.206	-4.6810002
146	1	3	0.228444	10.065	-0.792	-4.1040001
147	1	2	-0.22572	11.035	-1.378	-1.525
148	1	3	0.225375	10.995	-2.267	-2.141
149	1	2	-0.38785699	10.37	-1.359	-0.36199999
150	1	3	0.22444101	9.7889996	-2.223	-0.059999999
151	1	6	0.372785	9.7559996	0.67500001	2.388
152	1	2	0.59121299	2.473	-5.1739998	5.9829998
153	1	8	-0.52674502	1.897	-5.7610002	5.0289998
154	1	2	-0.33467901	3.931	-5.2779999	6.178
155	1	2	0.0039769998	4.7030001	-5.9980001	5.348
156	1	3	0.22183301	4.276	-6.526	4.5050001
157	1	2	-0.24326199	6.1609998	-6.0830002	5.5689998
158	1	3	0.214035	6.75	-6.6589999	4.8660002
159	1	2	-0.210602	6.7480001	-5.4569998	6.6129999
160	1	5	0.024652001	8.2729998	-5.5430002	6.8000002
161	1	5	-0.13169099	8.7550001	-4.9970002	8.1639996
162	1	7	0.087300003	8.2299995	-5.507	9
163	1	7	0.087300003	8.5780001	-3.9030001	8.2370005
164	1	7	0.087300003	9.8470001	-5.1659999	8.2889996
165	1	2	-0.125884	8.7460003	-6.9590001	6.6729999
166	1	2	-0.172582	8.342	-8.0150003	7.3920002
167	1	3	0.213383	7.5840001	-7.908	8.1569996
168	1	2	-0.062105	8.9490004	-9.3389997	7.1240001
169	1	3	0.23063301	8.6129999	-10.188	7.7049999
170	1	2	-0.227917	9.9040003	-9.4770002	6.1750002
171	1	2	0.83518398	10.522	-10.791	5.8979998
172	1	8	-0.480948	10.171	-11.816	6.5430002
173	1	9	-0.66462398	11.503	-10.907	4.9159999
174	1	10	0.41772899	11.935	-11.801	4.7150002
175	1	2	0.0045739999	10.336	-8.2790003	5.401
176	1	3	0.223316	11.107	-8.3599997	4.645
177	1	2	-0.175888	9.7609997	-7.0929999	5.6539998
178	1	5	-0.027448	10.062	-5.7789998	5.006
179	1	5	-0.131285	9.8789997	-5.8670001	3.4790001
180	1	7	0.091541	10.625	-6.5570002	3.029
181	1	7	0.091541	8.8620005	-6.2379999	3.2279999
182	1	7	0.091541	10.012	-4.8639998	3.0179999
183	1	5	-0.131285	11.498	-5.3390002	5.3470001
184	1	7	0.091541	11.641	-5.2859998	6.448
185	1	7	0.091541	12.238	-6.0560002	4.9320002
186	1	7	0.091541	11.707	-4.336	4.9169998
187	1	5	-0.18138	9.0179996	-4.803	5.6389999
188	1	7	0.12973499	9.5039997	-3.8670001	5.9970002
189	1	7	0.12973499	8.2910004	-4.4619999	4.8670001
190	1	2	-0.24326199	5.881	-4.645	7.5180001
191	1	3	0.214035	6.2950001	-4.1040001	8.3559999
192	1	2	0.0039769998	4.5609999	-4.5669999	7.3130002
193	1	3	0.22183301	3.951	-3.974	7.9840002

Bonds

1	1	1	2
2	2	1	55
3	3	1	96
4	4	2	3
5	4	2	53
6	5	3	4
7	4	3	5
8	5	5	6
9	4	5	7
10	6	7	8
11	4	7	51
12	6	8	9
13	4	9	10
14	4	9	49
15	5	10	11
16	4	10	12
17	5	12	13
18	4	12	14
19	7	14	15
20	4	14	47
21	7	15	16
22	8	15	39
23	8	15	43
24	4	16	17
25	4	16	37
26	5	17	18
27	4	17	19
28	5	19	20
29	4	19	21
30	6	21	22
31	4	21	35
32	6	22	23
33	4	23	24
34	4	23	33
35	5	24	25
36	4	24	26
37	5	26	27
38	4	26	28
39	1	28	29
40	4	28	31
41	2	29	30
42	9	29	56
43	5	31	32
44	4	31	33
45	5	33	34
46	5	35	36
47	4	35	37
48	5	37	38
49	10	39	40
50	10	39	41
51	10	39	42
52	10	43	44
53	10	43	45
54	10	43	46
55	5	47	48
56	4	47	49
57	5	49	50
58	5	51	52
59	4	51	53
60	5	53	54
61	11	56	57
62	12	56	58
63	4	58	59
64	4	58	94
65	5	59	60
66	4	59	61
67	5	61	62
68	4	61	63
69	7	63	64
70	4	63	92
71	8	64	65
72	7	64	69
73	8	64	89
74	10	65	66
75	10	65	67
76	10	65	68
77	4	69	70
78	4	69	79
79	5	70	71
80	4	70	72
81	5	72	73
82	4	72	74
83	12	74	75
84	4	74	77
85	11	75	76
86	12	75	152
87	5	77	78
88	4	77	79
89	7	79	80
90	8	80	81
91	8	80	85
92	8	80	89
93	10	81	82
94	10	81	83
95	10	81	84
96	10	85	86
97	10	85	87
98	10	85	88
99	10	89	90
100	10	89	91
101	5	92	93
102	4	92	94
103	5	94	95
104	1	96	97
105	2	96	151
106	4	97	98
107	4	97	149
108	5	98	99
109	4	98	100
110	5	100	101
111	4	100	102
112	6	102	103
113	4	102	147
114	6	103	104
115	4	104	105
116	4	104	145
117	5	105	106
118	4	105	107
119	5	107	108
120	4	107	109
121	7	109	110
122	4	109	143
123	7	110	111
124	8	110	135
125	8	110	139
126	4	111	112
127	4	111	133
128	5	112	113
129	4	112	114
130	5	114	115
131	4	114	116
132	6	116	117
133	4	116	131
134	6	117	118
135	4	118	119
136	4	118	129
137	5	119	120
138	4	119	121
139	5	121	122
140	4	121	123
141	1	123	124
142	4	123	127
143	2	124	125
144	2	124	126
145	5	127	128
146	4	127	129
147	5	129	130
148	5	131	132
149	4	131	133
150	5	133	134
151	10	135	136
152	10	135	137
153	10	135	138
154	10	139	140
155	10	139	141
156	10	139	142
157	5	143	144
158	4	143	145
159	5	145	146
160	5	147	148
161	4	147	149
162	5	149	150
163	11	152	153
164	12	152	154
165	4	154	155
166	4	154	192
167	5	155	156
168	4	155	157
169	5	157	158
170	4	157	159
171	7	159	160
172	4	159	190
173	8	160	161
174	7	160	165
175	8	160	187
176	10	161	162
177	10	161	163
178	10	161	164
179	4	165	166
180	4	165	177
181	5	166	167
182	4	166	168
183	5	168	169
184	4	168	170
185	12	170	171
186	4	170	175
187	11	171	172
188	13	171	173
189	14	173	174
190	5	175	176
191	4	175	177
192	7	177	178
193	8	178	179
194	8	178	183
195	8	178	187
196	10	179	180
197	10	179	181
198	10	179	182
199	10	183	184
200	10	183	185
201	10	183	186
202	10	187	188
203	10	187	189
204	5	190	191
205	4	190	192
206	5	192	193

Angles

1	1	10	9	49
2	1	123	127	129
3	7	136	135	138
4	4	16	17	18
5	1	104	105	107
6	6	39	15	43
7	1	110	111	133
8	1	170	175	177
9	6	81	80	89
10	4	9	49	50
11	6	15	39	42
12	6	111	110	135
13	7	44	43	45
14	4	2	3	4
15	1	22	23	33
16	5	116	117	118
17	4	28	31	32
18	1	154	155	157
19	4	155	157	158
20	6	160	161	163
21	6	80	85	87
22	1	23	24	26
23	6	109	110	111
24	1	12	14	15
25	1	17	19	21
26	1	96	97	98
27	4	166	168	169
28	2	28	29	56
29	1	74	77	79
30	1	26	28	29
31	4	111	133	134
32	4	118	129	130
33	4	59	61	62
34	1	70	72	74
35	6	160	187	189
36	1	154	192	190
37	1	3	5	7
38	1	9	10	12
39	6	111	110	139
40	1	96	97	149
41	4	27	26	28
42	7	141	139	142
43	6	64	89	91
44	6	64	89	80
45	7	184	183	185
46	1	117	118	129
47	6	15	43	46
48	4	190	192	193
49	1	116	131	133
50	1	75	152	153
51	6	178	179	181
52	4	191	190	192
53	6	63	64	65
54	6	159	160	187
55	6	80	81	83
56	6	110	135	136
57	3	1	96	151
58	4	21	35	36
59	4	109	143	144
60	3	97	96	151
61	1	171	170	175
62	1	118	129	127
63	4	131	133	134
64	7	45	43	46
65	1	103	104	145
66	6	16	15	39
67	4	104	105	106
68	6	64	65	67
69	4	32	31	33
70	1	165	177	178
71	4	170	175	176
72	1	110	111	112
73	6	177	178	179
74	6	65	64	89
75	7	162	161	164
76	6	65	64	69
77	4	169	168	170
78	4	154	155	156
79	1	17	16	37
80	6	160	161	162
81	1	69	79	80
82	1	157	159	160
83	3	123	124	125
84	4	101	100	102
85	1	56	58	59
86	1	75	74	77
87	1	98	100	102
88	1	168	170	175
89	1	100	102	147
90	1	19	21	22
91	1	104	145	143
92	6	135	110	139
93	6	160	187	188
94	4	158	157	159
95	4	3	5	6
96	4	9	10	11
97	1	57	56	58
98	1	10	12	14
99	1	12	14	47
100	6	64	89	90
101	4	71	70	72
102	1	19	21	35
103	1	117	118	119
104	4	147	149	150
105	7	163	161	164
106	6	81	80	85
107	4	97	98	99
108	1	124	123	127
109	4	148	147	149
110	6	178	183	185
111	1	15	14	47
112	4	143	145	146
113	6	178	179	180
114	1	160	159	190
115	4	156	155	157
116	6	110	139	140
117	2	2	1	96
118	6	80	81	82
119	6	183	178	187
120	1	29	28	31
121	6	85	80	89
122	1	58	59	61
123	4	51	53	54
124	1	112	111	133
125	1	72	74	77
126	4	115	114	116
127	1	107	109	110
128	1	112	114	116
129	6	64	65	66
130	4	78	77	79
131	1	102	147	149
132	1	121	123	124
133	7	162	161	163
134	4	4	3	5
135	1	160	165	177
136	1	157	159	190
137	4	25	24	26
138	8	160	165	166
139	1	155	154	192
140	5	171	173	174
141	6	79	80	89
142	7	82	81	84
143	4	98	100	101
144	1	107	109	143
145	3	125	124	126
146	6	160	187	178
147	1	98	97	149
148	4	47	49	50
149	1	14	47	49
150	4	127	129	130
151	1	29	56	58
152	4	10	12	13
153	1	170	171	172
154	4	7	51	52
155	1	74	75	76
156	1	110	109	143
157	1	159	190	192
158	1	118	119	121
159	4	6	5	7
160	4	128	127	129
161	4	104	145	146
162	1	26	28	31
163	1	105	107	109
164	5	7	8	9
165	6	161	160	165
166	7	40	39	42
167	7	83	81	84
168	6	178	187	189
169	1	100	102	103
170	6	178	183	184
171	1	165	166	168
172	1	97	149	147
173	1	114	116	131
174	1	61	63	92
175	4	31	33	34
176	4	111	112	113
177	6	159	160	165
178	4	123	127	128
179	3	2	1	55
180	1	168	170	171
181	1	24	26	28
182	7	136	135	137
183	7	86	85	88
184	8	64	69	70
185	6	15	39	41
186	9	172	171	173
187	6	109	110	139
188	6	80	89	91
189	1	105	104	145
190	6	80	85	86
191	7	140	139	142
192	6	110	135	138
193	4	23	24	25
194	4	17	19	20
195	1	69	70	72
196	7	82	81	83
197	6	69	64	89
198	1	70	69	79
199	4	74	77	78
200	4	48	47	49
201	4	70	72	73
202	1	59	58	94
203	4	13	12	14
204	4	93	92	94
205	1	166	165	177
206	4	132	131	133
207	1	121	123	127
208	4	108	107	109
209	1	29	56	57
210	1	28	31	33
211	1	16	37	35
212	7	87	85	88
213	6	179	178	183
214	4	122	121	123
215	1	114	116	117
216	4	18	17	19
217	8	77	79	80
218	1	166	168	170
219	6	15	43	45
220	4	118	119	120
221	1	3	2	53
222	1	59	61	63
223	1	1	2	3
224	3	55	1	96
225	5	102	103	104
226	4	116	131	132
227	6	14	15	43
228	6	178	187	188
229	1	8	7	51
230	6	179	178	187
231	4	176	175	177
232	7	184	183	186
233	6	79	80	85
234	4	24	26	27
235	7	86	85	87
236	1	153	152	154
237	8	175	177	178
238	6	177	178	187
239	4	52	51	53
240	4	35	37	38
241	7	137	135	138
242	6	15	39	40
243	1	5	7	51
244	6	14	15	16
245	6	178	179	182
246	7	41	39	42
247	4	97	149	150
248	6	80	89	90
249	6	110	139	142
250	7	66	65	68
251	4	73	72	74
252	6	80	81	84
253	7	140	139	141
254	6	110	135	137
255	4	36	35	37
256	4	69	70	71
257	4	2	53	54
258	1	61	63	64
259	1	21	35	37
260	1	109	143	145
261	1	24	23	33
262	7	67	65	68
263	1	74	75	152
264	6	64	65	68
265	7	180	179	182
266	4	62	61	63
267	4	23	33	34
268	1	22	23	24
269	1	8	9	10
270	1	22	21	35
271	1	1	2	53
272	3	123	124	126
273	6	159	160	161
274	7	181	179	182
275	1	76	75	152
276	6	15	43	44
277	1	58	94	92
278	1	2	53	51
279	5	21	22	23
280	3	30	29	56
281	1	119	121	123
282	4	167	166	168
283	4	16	37	38
284	6	109	110	135
285	4	106	105	107
286	4	144	143	145
287	4	58	59	60
288	1	63	92	94
289	1	117	116	131
290	6	161	160	187
291	1	64	69	79
292	4	120	119	121
293	4	112	114	115
294	1	9	49	47
295	1	97	98	100
296	4	102	147	148
297	6	178	183	186
298	1	5	7	8
299	1	23	33	31
300	7	66	65	67
301	4	92	94	95
302	6	110	139	141
303	6	165	160	187
304	1	152	154	155
305	7	185	183	186
306	1	111	133	131
307	1	16	17	19
308	4	99	98	100
309	6	14	15	39
310	1	103	102	147
311	7	180	179	181
312	7	188	187	189
313	4	14	47	48
314	1	103	104	105
315	7	44	43	46
316	6	63	64	89
317	1	2	3	5
318	1	155	157	159
319	6	160	161	164
320	6	63	64	69
321	6	80	85	88
322	1	119	118	129
323	1	15	16	37
324	4	60	59	61
325	1	15	16	17
326	6	79	80	81
327	4	159	190	191
328	6	16	15	43
329	4	105	107	108
330	7	40	39	41
331	6	177	178	183
332	1	8	9	49
333	4	11	10	12
334	2	1	96	97
335	3	28	29	30
336	4	119	121	122
337	4	20	19	21
338	7	90	89	91
339	1	56	58	94
340	4	165	166	167
341	1	170	171	173
342	1	7	51	53
343	1	64	63	92
344	4	58	94	95
345	4	63	92	93
346	1	72	74	75
347	4	113	112	114
348	1	165	177	175
349	4	154	192	193
350	1	152	154	192
351	1	75	152	154
352	1	69	79	77
353	1	111	112	114

Dihedrals

1	14	180	179	178	183
2	11	76	75	74	77
3	6	159	160	187	178
4	1	170	175	177	178
5	14	65	64	89	91
6	1	8	9	49	50
7	1	2	3	5	6
8	14	183	178	187	188
9	1	13	12	14	15
10	5	69	64	63	92
11	1	56	58	59	60
12	1	64	69	70	71
13	4	114	116	117	118
14	5	135	110	109	143
15	1	156	155	157	158
16	1	62	61	63	64
17	1	72	74	77	79
18	1	1	2	3	4
19	1	104	145	143	109
20	5	77	79	80	85
21	1	96	97	149	150
22	1	12	10	9	49
23	6	16	15	39	40
24	9	28	29	56	58
24	10	28	29	56	58
25	1	165	177	175	170
26	3	2	1	96	151
27	5	139	110	109	143
28	1	171	170	175	177
29	1	106	105	104	145
30	2	121	123	124	125
31	1	69	79	77	74
32	1	117	118	119	121
33	5	157	159	160	187
34	1	8	9	10	12
35	14	136	135	110	139
36	1	1	2	53	54
37	1	4	3	5	6
38	1	169	168	170	175
39	5	63	64	69	79
40	5	161	160	165	177
41	1	11	10	12	13
42	14	81	80	85	87
43	6	159	160	161	162
44	14	179	178	183	185
45	1	166	168	170	171
46	1	25	24	26	27
47	5	77	79	80	89
48	1	155	154	192	193
49	1	19	17	16	37
50	1	97	149	147	148
51	1	64	63	92	93
52	6	69	64	89	91
53	5	177	165	160	187
54	9	30	29	56	58
54	10	30	29	56	58
55	1	3	2	53	51
56	1	56	58	94	92
57	1	105	104	145	143
58	6	111	110	135	136
59	1	63	92	94	95
60	14	163	161	160	187
61	4	116	117	118	119
62	2	98	97	96	151
63	1	11	10	9	49
64	15	161	160	187	178
64	16	161	160	187	178
64	17	161	160	187	178
65	11	29	56	58	94
66	1	103	104	105	106
67	1	104	105	107	108
68	11	168	170	171	173
69	1	6	5	7	51
70	6	64	89	80	79
71	5	69	79	80	81
72	1	113	112	114	115
73	14	162	161	160	187
74	1	16	17	19	21
75	5	89	64	63	92
76	1	98	100	102	103
77	1	10	9	49	47
78	6	79	80	85	86
79	5	107	109	110	135
80	6	177	178	183	184
81	2	26	28	29	56
82	3	2	1	96	97
83	1	58	59	61	62
84	1	132	131	133	134
85	1	74	77	79	80
86	14	135	110	139	142
87	1	165	177	175	176
88	6	14	15	43	45
89	1	22	23	33	34
90	1	29	28	31	32
91	6	159	160	187	188
92	4	100	102	103	104
93	1	18	17	16	37
94	18	170	171	173	174
95	1	154	192	190	191
96	14	65	64	89	90
97	1	110	111	133	134
98	14	164	161	160	187
99	1	5	3	2	53
100	1	103	102	147	148
101	5	107	109	110	139
102	5	111	110	109	143
103	1	96	97	98	100
104	1	72	74	77	78
105	1	70	69	79	80
106	1	119	118	129	130
107	1	152	154	192	193
108	1	148	147	149	150
109	11	74	75	152	154
110	14	83	81	80	85
111	6	16	15	43	44
112	14	181	179	178	183
113	5	165	177	178	183
114	1	23	33	31	28
115	1	59	61	63	64
116	6	165	160	187	189
117	1	73	72	74	75
118	11	57	56	58	59
119	14	84	81	80	89
120	4	102	103	104	145
121	14	85	80	89	91
122	5	166	165	160	187
123	15	64	89	80	85
123	16	64	89	80	85
123	17	64	89	80	85
124	1	117	116	131	133
125	1	64	69	79	80
126	1	8	9	10	11
127	1	24	26	28	29
128	5	109	110	111	133
129	1	52	51	53	54
130	1	72	70	69	79
131	4	102	103	104	105
132	1	17	16	37	38
133	1	103	104	145	143
134	14	81	80	89	91
135	5	159	160	165	166
136	1	61	59	58	94
137	14	81	80	85	86
138	14	179	178	183	184
139	1	26	28	31	33
140	14	39	15	43	46
141	6	69	64	89	90
142	1	124	123	127	129
143	1	16	37	35	36
144	1	23	33	31	32
145	1	152	154	155	157
146	1	24	23	33	34
147	14	161	160	187	188
148	1	9	49	47	48
149	1	8	7	51	53
150	1	116	131	133	134
151	14	182	179	178	187
152	1	99	98	100	102
153	11	168	170	171	172
154	1	23	24	26	28
155	6	79	80	89	90
156	6	177	178	187	188
157	14	179	178	187	189
158	5	161	160	159	190
159	2	149	97	96	151
160	5	17	16	15	43
161	1	106	105	107	109
162	4	19	21	22	23
163	1	98	97	149	150
164	5	77	79	80	81
165	1	119	118	129	127
166	1	152	154	192	190
167	1	56	58	94	95
168	6	109	110	135	136
169	1	121	123	127	128
170	14	135	110	139	141
171	1	105	104	145	146
172	1	58	94	92	93
173	2	30	29	28	31
174	14	184	183	178	187
175	1	70	72	74	77
176	1	155	157	159	160
177	1	2	53	51	52
178	1	64	69	79	77
179	15	65	64	89	80
179	16	65	64	89	80
179	17	65	64	89	80
180	1	120	119	118	129
181	1	15	14	47	48
182	1	10	9	49	50
183	5	175	177	178	187
184	1	17	16	37	35
185	5	65	64	69	70
186	1	169	168	170	171
187	1	96	97	98	99
188	6	79	80	81	84
189	6	177	178	179	182
190	1	118	119	121	123
191	1	165	166	168	169
192	1	3	2	53	54
193	1	154	155	157	159
194	1	156	155	154	192
195	1	9	10	12	14
196	11	74	75	152	153
197	1	168	170	175	176
198	6	111	110	139	142
199	1	110	111	112	114
200	6	63	64	89	91
201	6	63	64	89	80
202	6	165	160	187	188
203	1	24	23	33	31
204	1	112	114	116	117
205	1	9	49	47	14
206	1	12	14	47	49
207	5	109	110	111	112
208	14	81	80	89	90
209	14	40	39	15	43
210	5	161	160	165	166
211	1	100	102	147	148
212	5	107	109	110	111
213	1	98	97	149	147
214	4	21	22	23	24
215	1	167	166	165	177
216	6	69	64	89	80
217	1	69	70	72	73
218	6	16	15	39	42
219	11	75	152	154	155
220	4	104	103	102	147
221	1	22	21	35	37
222	11	77	74	75	152
223	2	53	2	1	96
224	1	166	165	177	175
225	1	120	119	121	122
226	1	114	116	131	133
227	11	172	171	170	175
228	1	101	100	102	103
229	1	99	98	100	101
230	1	20	19	21	22
231	1	23	24	26	27
232	5	39	15	14	47
233	1	18	17	19	20
234	5	16	15	14	47
235	1	103	104	145	146
236	1	26	24	23	33
237	5	165	160	159	190
238	1	25	24	23	33
239	1	107	109	143	144
240	6	159	160	161	164
241	6	63	64	65	67
242	1	110	109	143	145
243	14	179	178	187	188
244	1	93	92	94	95
245	1	5	7	51	53
246	1	109	143	145	146
247	1	106	105	107	108
248	1	21	35	37	38
249	6	109	110	139	140
250	11	72	74	75	76
251	1	60	59	58	94
252	6	111	110	135	138
253	1	155	157	159	190
254	5	165	177	178	179
255	6	14	15	39	40
256	2	1	96	97	98
257	14	68	65	64	89
258	1	111	133	131	116
259	1	27	26	28	29
260	14	84	81	80	85
261	1	20	19	21	35
262	6	68	65	64	69
263	1	22	23	24	26
264	15	64	89	80	81
264	16	64	89	80	81
264	17	64	89	80	81
265	1	58	94	92	63
266	1	36	35	37	38
267	1	123	127	129	130
268	1	61	63	92	94
269	1	62	61	63	92
270	1	4	3	2	53
271	2	1	96	97	149
272	1	19	21	35	37
273	6	79	80	85	88
274	6	177	178	183	186
275	6	79	80	81	83
276	14	42	39	15	43
277	6	177	178	179	181
278	1	118	119	121	122
279	1	191	190	192	193
280	1	101	100	102	147
281	1	9	10	12	13
282	1	122	121	123	127
283	1	60	59	61	63
284	3	55	1	96	151
285	5	37	16	15	43
286	1	3	5	7	8
287	14	138	135	110	139
288	1	110	111	112	113
289	1	118	129	127	128
290	6	63	64	89	90
291	1	167	166	168	170
292	7	28	29	56	57
292	8	28	29	56	57
293	1	160	165	166	168
294	1	99	98	97	149
295	5	70	69	64	89
296	6	160	187	178	177
297	6	165	160	187	178
298	1	171	170	175	176
299	1	119	121	123	124
300	1	13	12	14	47
301	14	182	179	178	183
302	1	117	118	119	120
303	1	2	3	5	7
304	1	56	58	59	61
305	11	75	152	154	192
306	5	175	177	178	179
307	1	1	2	3	5
308	5	17	16	15	39
309	1	59	58	94	95
310	1	115	114	116	131
311	5	61	63	64	89
312	12	30	29	56	57
312	13	30	29	56	57
313	6	16	15	43	46
314	6	16	15	39	41
315	5	61	63	64	69
316	1	73	72	74	77
317	1	15	16	37	38
318	1	114	116	131	132
319	5	69	79	80	89
320	5	43	15	14	47
321	14	137	135	110	139
322	1	24	26	28	31
323	1	4	3	5	7
324	1	16	17	19	20
325	3	55	1	96	97
326	5	175	177	178	183
327	14	81	80	85	88
328	14	179	178	183	186
329	6	63	64	65	66
330	1	5	7	51	52
331	5	187	160	159	190
332	1	10	12	14	15
333	1	122	121	123	124
334	1	64	63	92	94
335	11	57	56	58	94
336	6	111	110	135	137
337	6	14	15	43	44
338	14	66	65	64	89
339	15	160	187	178	183
339	16	160	187	178	183
339	17	160	187	178	183
340	1	114	112	111	133
341	1	113	112	111	133
342	6	66	65	64	69
343	1	166	165	177	178
344	1	103	104	105	107
345	1	104	105	107	109
346	5	12	14	15	43
347	1	97	149	147	102
348	1	108	107	109	110
349	4	7	8	9	10
350	5	65	64	69	79
351	2	3	2	1	96
352	1	107	105	104	145
353	4	118	117	116	131
354	1	154	192	190	159
355	1	19	21	35	36
356	6	79	80	85	87
357	6	177	178	183	185
358	1	14	47	49	50
359	1	157	155	154	192
360	1	15	16	17	19
361	1	59	58	94	92
362	1	3	5	7	51
363	14	86	85	80	89
364	6	109	110	135	138
365	1	59	61	63	92
366	1	28	31	33	34
367	1	17	19	21	22
368	2	26	28	29	30
369	1	115	114	116	117
370	1	117	118	129	127
371	1	160	165	166	167
372	1	108	107	109	143
373	6	159	160	187	189
374	2	125	124	123	127
375	1	15	16	37	35
376	14	85	80	89	90
377	1	117	116	131	132
378	19	172	171	173	174
378	20	172	171	173	174
379	5	14	15	16	37
380	1	103	102	147	149
381	5	157	159	160	165
382	11	29	56	58	59
383	11	76	75	152	154
384	5	12	14	15	16
385	5	14	15	16	17
386	1	71	70	72	74
387	1	7	51	53	54
388	5	133	111	110	139
389	1	26	28	31	32
390	4	21	22	23	33
391	14	39	15	43	45
392	1	168	166	165	177
393	1	17	19	21	35
394	1	124	123	127	128
395	6	16	15	43	45
396	14	41	39	15	43
397	1	157	159	190	192
398	1	111	133	131	132
399	1	152	154	155	156
400	14	180	179	178	187
401	11	72	74	75	152
402	2	126	124	123	127
403	1	119	121	123	127
404	6	163	161	160	165
405	1	8	7	51	52
406	1	104	145	143	144
407	5	63	64	69	70
408	6	162	161	160	165
409	11	173	171	170	175
410	1	97	98	100	102
411	1	160	165	177	175
412	5	37	16	15	39
413	14	135	110	139	140
414	5	112	111	110	135
415	1	75	74	77	79
416	14	161	160	187	189
417	1	69	79	77	78
418	1	111	112	114	116
419	1	8	9	49	47
420	1	2	53	51	7
421	6	164	161	160	165
422	6	79	80	89	91
423	6	177	178	187	189
424	1	10	12	14	47
425	11	153	152	154	155
426	1	112	111	133	134
427	1	166	168	170	175
428	1	1	2	53	51
429	1	15	16	17	18
430	2	3	2	1	55
431	1	105	107	109	110
432	14	67	65	64	89
433	1	154	155	157	158
434	6	109	110	139	142
435	1	96	97	149	147
436	5	79	69	64	89
437	6	109	110	135	137
438	1	121	123	127	129
439	6	67	65	64	69
440	1	160	159	190	192
441	5	112	111	110	139
442	6	111	110	139	141
443	4	23	22	21	35
444	6	14	15	39	42
445	1	16	37	35	21
446	5	61	63	64	65
447	1	102	147	149	150
448	1	158	157	159	160
449	4	7	8	9	49
450	1	27	26	28	31
451	5	69	79	80	85
452	1	100	98	97	149
453	14	183	178	187	189
454	1	12	14	47	48
455	1	15	14	47	49
456	1	64	69	70	72
457	11	76	75	152	153
458	1	105	107	109	143
459	1	71	70	72	73
460	2	31	28	29	56
461	1	156	155	157	159
462	1	165	166	168	170
463	1	155	154	192	190
464	14	39	15	43	44
465	1	78	77	79	80
466	1	168	170	175	177
467	1	176	175	177	178
468	4	9	8	7	51
469	1	98	100	102	147
470	1	117	118	129	130
471	1	157	159	190	191
472	1	22	21	35	36
473	15	160	187	178	179
473	16	160	187	178	179
473	17	160	187	178	179
474	1	32	31	33	34
475	2	121	123	124	126
476	14	82	81	80	85
477	5	12	14	15	39
478	2	53	2	1	55
479	1	71	70	69	79
480	5	159	160	165	177
481	1	11	10	12	14
482	5	65	64	63	92
483	6	159	160	161	163
484	1	110	109	143	144
485	1	112	111	133	131
486	1	25	24	26	28
487	1	97	98	100	101
488	1	144	143	145	146
489	1	100	102	147	149
490	14	83	81	80	89
491	14	181	179	178	187
492	1	69	70	72	74
493	5	165	177	178	187
494	1	118	129	127	123
495	4	116	117	118	129
496	1	75	74	77	78
497	1	112	114	116	131
498	1	22	23	33	31
499	11	153	152	154	192
500	4	5	7	8	9
501	1	120	119	121	123
502	1	70	72	74	75
503	14	82	81	80	89
504	1	22	23	24	25
505	1	111	112	114	115
506	1	128	127	129	130
507	1	110	111	133	131
508	1	113	112	114	116
509	1	18	17	19	21
510	1	6	5	7	8
511	1	61	63	92	93
512	14	88	85	80	89
513	5	157	159	160	161
514	14	186	183	178	187
515	14	87	85	80	89
516	14	185	183	178	187
517	1	107	109	143	145
518	6	63	64	65	68
519	6	79	80	81	82
520	6	177	178	179	180
521	1	160	165	177	178
522	1	58	59	61	63
523	5	133	111	110	135
524	1	121	119	118	129
525	1	70	69	79	77
526	6	109	110	139	141
527	1	60	59	61	62
528	1	158	157	159	190
529	1	160	159	190	191
530	6	111	110	139	140
531	6	14	15	43	46
532	1	167	166	168	169
533	6	14	15	39	41