Title

74 atoms
77 bonds
130 angles
193 dihedrals
78 impropers

9 atom types
13 bond types
6 angle types
13 dihedral types
2 improper types
-13.93200016 86.06799984 xlo xhi
-2.431999922 97.56800008 ylo yhi
-5.782000065 94.21799994 zlo zhi
0.0 0.0 0.0 xy xz yz

Masses

1	15.99943
2	12.01078
3	1.007947
4	12.01078
5	1.007947
6	15.99943
7	15.99943
8	1.007947
9	35.4532


Pair Coeffs

1	0.16846514	3.0251065
2	0.086879315	3.4806469
3	0.015611343	2.5725815
4	0.10884061	3.3795318
5	0.015779483	2.6445434
6	0.2102061	3.0398122
7	0.20947353	2.99716
8	1.2326e-05	0.53453923
9	0.2656001	3.3075278

Bond Coeffs

1 harmonic	425.69104206635	1.362945806494
2 harmonic	300.03137914615	1.451203938761
3 harmonic	360.7852444772	1.387193227181
4 harmonic	397.2545789619	1.085358495916
5 harmonic	289.73813263395	1.498646816465
6 harmonic	264.62148576755	1.52190126495
7 harmonic	301.15400723785	1.345741232799
8 harmonic	370.04670688625	1.093899492634
9 harmonic	582.698766451	1.225198386222
10 harmonic	279.1350963404	1.454628925034
11 harmonic	385.7604595587	1.369745182308
12 harmonic	543.5267831885	0.9716763312559
13 harmonic	218.0227703685	1.746066037062


Angle Coeffs

1 harmonic	57.8982893754	126.8062420451
2 harmonic	65.09061609600001	110.3538806181
3 harmonic	34.066775159195	129.1835929926
4 harmonic	53.20531626545	116.5475862634
5 harmonic	201.41175231035	127.4691416191
6 harmonic	48.776492647595	115.6030999533


Dihedral Coeffs

1 fourier 1	3.661930099076	2	180
2 fourier 1	1.532232714475	2	180
3 fourier 1	0.457973137376	1	0
4 fourier 1	0.02664938770063	3	0
5 fourier 1	0.1155372516788	3	0
6 fourier 1	0.1040663847541	3	0
7 fourier 1	2.779853741805	2	180
8 fourier 1	0.9974165607242	2	180
9 fourier 1	0.09223874044423	3	0
10 fourier 1	0.3159935921949	2	180
11 fourier 1	0.3247796806857	1	180
12 fourier 1	0.1911926717192	3	0
13 fourier 1	0.8283030590042	2	180


Improper Coeffs

1 0.3666666666666667	-1	2
2 3.5	-1	2


Atoms

1	1	1	-0.021128001	-4.618	0.39399999	2.8280001
2	1	2	0.27888	-3.573	0.257	1.9170001
3	1	2	-0.319074	-3.6110001	0.87400001	0.72799999
4	1	3	0.227277	-4.46	1.488	0.456
5	1	2	-0.147273	-2.4949999	0.72100002	-0.229
6	1	3	0.211226	-2.598	1.219	-1.181
7	1	2	-0.261002	-1.403	-0.015	0.086999997
8	1	4	0.01788	-0.228	-0.24600001	-0.88700002
9	1	2	-0.261002	1.092	-0.145	-0.093999997
10	1	2	-0.14994501	1.359	0.97600001	0.61400002
11	1	3	0.211226	0.64899999	1.793	0.64399999
12	1	2	-0.270973	2.6199999	1.119	1.369
13	1	3	0.227174	2.8039999	2.0250001	1.933
14	1	2	0.43977699	3.5280001	0.139	1.355
15	1	1	-0.440478	4.7140002	0.28299999	2.0699999
16	1	2	-0.270973	3.2650001	-1.091	0.57999998
17	1	3	0.227174	4.0009999	-1.885	0.56400001
18	1	2	-0.14994501	2.1229999	-1.229	-0.105
19	1	3	0.211226	1.974	-2.1440001	-0.65899998
20	1	4	-0.13213401	-0.45300001	-1.652	-1.4960001
21	1	5	0.085472003	-1.434	-1.694	-2.0179999
22	1	5	0.085472003	0.32800001	-1.918	-2.237
23	1	5	0.085472003	-0.458	-2.4319999	-0.704
24	1	4	-0.13484	-0.197	0.80599999	-2.049
25	1	4	-0.114281	1.064	0.773	-2.925
26	1	5	0.065778002	0.97899997	1.55	-3.714
27	1	5	0.065778002	1.973	0.995	-2.329
28	1	5	0.065778002	1.182	-0.208	-3.428
29	1	5	0.10081	-1.066	0.65200001	-2.7249999
30	1	5	0.10081	-0.28200001	1.832	-1.628
31	1	2	-0.147273	-1.397	-0.71799999	1.406
32	1	3	0.211226	-0.56400001	-1.354	1.6799999
33	1	2	-0.319074	-2.4130001	-0.58200002	2.2650001
34	1	3	0.227277	-2.388	-1.097	3.217
35	1	2	0.62851	5.441	-0.47299999	2.073
36	1	6	-0.494856	5.1030002	-1.6440001	2.0810001
37	1	1	-0.021128001	-5.4330001	0.96200001	2.625
38	1	2	0.27888	-5.9260001	1.099	1.3279999
39	1	2	-0.319074	-5.3340001	0.48199999	0.29699999
40	1	3	0.227277	-4.4559999	-0.132	0.45699999
41	1	2	-0.147273	-5.868	0.63499999	-1.072
42	1	3	0.211226	-5.3299999	0.13699999	-1.864
43	1	2	-0.261002	-6.98	1.3710001	-1.307
44	1	4	0.01788	-7.559	1.602	-2.72
45	1	2	-0.261002	-9.0959997	1.501	-2.641
46	1	2	-0.106974	-9.665	0.38	-2.142
47	1	3	0.211226	-9.0530005	-0.43700001	-1.7819999
48	1	2	-0.41106001	-11.133	0.237	-2.069
49	1	3	0.23258901	-11.56	-0.66900003	-1.658
50	1	2	0.43303499	-11.928	1.217	-2.5090001
51	1	7	-0.64868802	-13.311	1.073	-2.4360001
52	1	8	0.43610001	-13.932	1.803	-2.763
53	1	2	-0.41106001	-11.331	2.447	-3.069
54	1	3	0.23258901	-11.973	3.2409999	-3.4289999
55	1	2	-0.106974	-10.001	2.585	-3.135
56	1	3	0.211226	-9.6090002	3.5	-3.5539999
57	1	4	-0.13213401	-7.073	3.0079999	-3.151
58	1	5	0.085472003	-5.9619999	3.05	-3.1500001
59	1	5	0.085472003	-7.414	3.2739999	-4.1719999
60	1	5	0.085472003	-7.4419999	3.7880001	-2.45
61	1	4	-0.13484	-7.039	0.55000001	-3.76
62	1	4	-0.114281	-7.7399998	0.583	-5.1259999
63	1	5	0.065778002	-7.2930002	-0.19400001	-5.7820001
64	1	5	0.065778002	-8.8219995	0.361	-5.0279999
65	1	5	0.065778002	-7.6069999	1.564	-5.625
66	1	5	0.10081	-5.954	0.704	-3.947
67	1	5	0.10081	-7.1620002	-0.47600001	-3.348
68	1	2	-0.147273	-7.6059999	2.0739999	-0.146
69	1	3	0.211226	-8.4700003	2.71	-0.29699999
70	1	2	-0.319074	-7.1139998	1.938	1.09
71	1	3	0.227277	-7.5840001	2.4530001	1.918
72	1	2	0.46773699	6.494	-0.212	2.0710001
73	1	6	-0.56981802	6.8330002	0.95499998	1.974
74	1	9	-0.081951	7.7090001	-1.47	2.2049999

Bonds

1	1	1	2
2	2	1	37
3	3	2	3
4	3	2	33
5	4	3	4
6	3	3	5
7	4	5	6
8	3	5	7
9	5	7	8
10	3	7	31
11	5	8	9
12	6	8	20
13	6	8	24
14	3	9	10
15	3	9	18
16	4	10	11
17	3	10	12
18	4	12	13
19	3	12	14
20	1	14	15
21	3	14	16
22	7	15	35
23	4	16	17
24	3	16	18
25	4	18	19
26	8	20	21
27	8	20	22
28	8	20	23
29	6	24	25
30	8	24	29
31	8	24	30
32	8	25	26
33	8	25	27
34	8	25	28
35	4	31	32
36	3	31	33
37	4	33	34
38	9	35	36
39	10	35	72
40	1	37	38
41	3	38	39
42	3	38	70
43	4	39	40
44	3	39	41
45	4	41	42
46	3	41	43
47	5	43	44
48	3	43	68
49	5	44	45
50	6	44	57
51	6	44	61
52	3	45	46
53	3	45	55
54	4	46	47
55	3	46	48
56	4	48	49
57	3	48	50
58	11	50	51
59	3	50	53
60	12	51	52
61	4	53	54
62	3	53	55
63	4	55	56
64	8	57	58
65	8	57	59
66	8	57	60
67	6	61	62
68	8	61	66
69	8	61	67
70	8	62	63
71	8	62	64
72	8	62	65
73	4	68	69
74	3	68	70
75	4	70	71
76	9	72	73
77	13	72	74

Angles

1	3	45	46	47
2	4	61	62	65
3	4	25	24	29
4	2	1	37	38
5	1	37	38	70
6	1	5	7	31
7	3	3	5	6
8	3	14	16	17
9	3	2	33	34
10	1	43	68	70
11	1	38	70	68
12	1	12	14	16
13	1	7	31	33
14	1	10	12	14
15	3	54	53	55
16	6	21	20	23
17	3	42	41	43
18	4	7	8	9
19	6	26	25	27
20	1	14	16	18
21	1	44	43	68
22	6	63	62	64
23	3	39	41	42
24	1	2	33	31
25	1	51	50	53
26	1	50	53	55
27	4	44	61	67
28	1	45	55	53
29	1	8	7	31
30	4	62	61	66
31	1	44	45	46
32	1	39	38	70
33	3	31	33	34
34	2	14	15	35
35	1	48	50	53
36	3	40	39	41
37	4	44	57	58
38	3	9	10	11
39	4	24	25	26
40	4	43	44	45
41	4	8	20	21
42	1	36	35	72
43	4	62	61	67
44	6	64	62	65
45	5	15	35	36
46	1	45	46	48
47	2	2	1	37
48	3	4	3	5
49	4	25	24	30
50	1	5	7	8
51	4	8	24	25
52	4	7	8	20
53	6	58	57	59
54	1	3	5	7
55	3	2	3	4
56	4	44	57	59
57	2	50	51	52
58	3	38	39	40
59	4	8	20	22
60	3	9	18	19
61	3	6	5	7
62	3	68	70	71
63	6	26	25	28
64	3	69	68	70
65	3	46	48	49
66	4	9	8	24
67	1	44	45	55
68	1	73	72	74
69	4	43	44	61
70	6	29	24	30
71	1	38	39	41
72	3	32	31	33
73	6	63	62	65
74	1	15	35	72
75	4	61	62	63
76	1	35	72	73
77	4	9	8	20
78	1	39	41	43
79	1	48	50	51
80	4	43	44	57
81	1	41	43	44
82	4	8	24	29
83	4	7	8	24
84	1	9	18	16
85	4	61	62	64
86	1	8	9	10
87	1	9	10	12
88	6	27	25	28
89	3	49	48	50
90	4	24	25	27
91	1	1	2	33
92	4	8	24	30
93	6	21	20	22
94	3	16	18	19
95	1	3	2	33
96	3	11	10	12
97	1	46	45	55
98	6	66	61	67
99	4	45	44	61
100	1	8	9	18
101	6	58	57	60
102	1	2	3	5
103	4	44	57	60
104	4	24	25	28
105	4	57	44	61
106	4	8	20	23
107	4	45	44	57
108	3	13	12	14
109	3	45	55	56
110	3	47	46	48
111	3	50	53	54
112	1	46	48	50
113	4	44	61	66
114	1	15	14	16
115	4	20	8	24
116	3	38	70	71
117	1	37	38	39
118	1	35	72	74
119	4	44	61	62
120	1	10	9	18
121	1	1	2	3
122	1	41	43	68
123	3	43	68	69
124	6	59	57	60
125	3	17	16	18
126	1	12	14	15
127	3	7	31	32
128	3	10	12	13
129	3	53	55	56
130	6	22	20	23

Dihedrals

1	4	57	44	43	68
2	4	18	9	8	20
3	12	65	62	61	67
4	1	10	9	18	19
5	5	43	44	57	59
6	1	3	2	33	34
7	1	48	50	53	54
8	5	7	8	20	23
9	1	1	2	3	5
10	1	9	18	16	17
11	4	45	44	43	68
12	1	45	46	48	49
13	3	2	1	37	38
14	5	9	8	20	23
15	1	11	10	9	18
16	2	33	2	1	37
17	4	41	43	44	61
18	5	7	8	24	29
19	4	43	44	45	55
20	1	38	70	68	69
21	1	40	39	41	42
22	4	10	9	8	20
23	4	24	8	7	31
24	1	43	68	70	71
25	6	44	61	62	63
26	1	14	16	18	19
27	1	49	48	50	51
28	4	41	43	44	57
29	1	48	50	53	55
30	5	7	8	24	25
31	1	4	3	5	6
32	5	9	8	24	29
33	1	10	12	14	16
34	5	43	44	61	66
35	1	11	10	12	13
36	6	23	20	8	24
37	4	18	9	8	24
38	1	46	48	50	53
39	5	45	44	57	58
40	4	5	7	8	9
41	5	9	8	24	25
42	6	20	8	24	29
43	5	43	44	61	62
44	1	8	9	18	19
45	4	7	8	9	18
46	1	44	43	68	69
47	1	4	3	5	7
48	5	9	8	24	30
49	1	51	50	53	54
50	4	55	45	44	57
51	9	20	8	24	25
51	10	20	8	24	25
51	11	20	8	24	25
52	1	38	39	41	43
53	5	43	44	61	67
54	12	64	62	61	67
55	1	38	70	68	43
56	8	15	35	72	73
57	1	39	38	70	71
58	1	5	7	31	32
59	2	16	14	15	35
60	5	45	44	57	59
61	5	7	8	20	21
62	4	10	9	8	24
63	1	50	53	55	56
64	1	15	14	16	17
65	1	54	53	55	56
66	2	3	2	1	37
67	5	43	44	57	60
68	1	51	50	53	55
69	13	48	50	51	52
70	1	44	45	55	56
71	1	8	9	10	11
72	1	5	7	31	33
73	1	8	9	18	16
74	12	27	25	24	29
75	1	3	5	7	31
76	6	57	44	61	66
77	4	7	8	9	10
78	1	10	9	18	16
79	1	8	7	31	32
80	1	15	14	16	18
81	1	45	46	48	50
82	6	8	24	25	26
83	1	3	2	33	31
84	5	7	8	24	30
85	1	39	41	43	44
86	1	6	5	7	8
87	1	2	3	5	6
88	1	40	39	41	43
89	1	41	43	68	69
90	9	57	44	61	62
90	10	57	44	61	62
90	11	57	44	61	62
91	1	42	41	43	44
92	6	21	20	8	24
93	4	55	45	44	61
94	2	14	15	35	36
95	1	9	18	16	14
96	12	28	25	24	29
97	6	44	61	62	64
98	1	37	38	39	40
99	1	5	3	2	33
100	4	9	8	7	31
101	1	44	45	55	53
102	6	8	24	25	27
103	1	11	10	12	14
104	1	42	41	43	68
105	1	48	46	45	55
106	1	13	12	14	15
107	1	44	45	46	47
108	1	4	3	2	33
109	6	20	8	24	30
110	5	9	8	20	21
111	1	9	10	12	13
112	6	44	61	62	65
113	1	49	48	50	53
114	1	1	2	33	34
115	1	44	43	68	70
116	1	12	14	16	17
117	6	59	57	44	61
118	8	15	35	72	74
119	1	13	12	14	16
120	5	7	8	20	22
121	1	44	45	46	48
122	5	45	44	57	60
123	1	46	45	55	56
124	12	26	25	24	29
125	1	1	2	3	4
126	1	37	38	70	71
127	5	9	8	20	22
128	4	46	45	44	57
129	4	61	44	43	68
130	4	5	7	8	24
131	1	39	38	70	68
132	12	63	62	61	66
133	1	46	48	50	51
134	1	47	46	45	55
135	1	12	14	16	18
136	1	8	9	10	12
137	1	47	46	48	49
138	1	7	31	33	34
139	5	45	44	61	66
140	1	3	5	7	8
141	4	5	7	8	20
142	1	1	2	33	31
143	12	27	25	24	30
144	1	69	68	70	71
145	6	57	44	61	67
146	1	2	33	31	32
147	12	26	25	24	30
148	1	8	7	31	33
149	1	39	41	43	68
150	2	1	37	38	39
151	1	10	12	14	15
152	13	52	51	50	53
153	6	22	20	8	24
154	1	41	39	38	70
155	5	45	44	61	62
156	12	63	62	61	67
157	1	2	3	5	7
158	8	36	35	72	73
159	1	41	43	68	70
160	1	6	5	7	31
161	1	46	45	55	53
162	4	43	44	45	46
163	1	47	46	48	50
164	1	37	38	70	68
165	12	28	25	24	30
166	1	45	55	53	54
167	4	20	8	7	31
168	1	37	38	39	41
169	5	45	44	61	67
170	1	32	31	33	34
171	4	41	43	44	45
172	12	65	62	61	66
173	2	12	14	15	35
174	5	43	44	57	58
175	6	60	57	44	61
176	4	46	45	44	61
177	6	8	24	25	28
178	1	17	16	18	19
179	1	38	39	41	42
180	7	14	15	35	72
181	12	64	62	61	66
182	1	45	55	53	50
183	6	58	57	44	61
184	2	1	37	38	70
185	1	2	33	31	7
186	8	36	35	72	74
187	1	12	10	9	18
188	1	40	39	38	70
189	1	9	10	12	14

Impropers

10	1	14	12	15	16
12	1	10	9	11	12
18	1	43	68	41	44
22	1	31	7	32	33
25	1	12	10	13	14
37	1	39	38	40	41
44	1	10	11	12	9
50	1	45	44	46	55
61	1	31	33	7	32
66	1	18	19	9	16
71	1	5	7	3	6
72	1	55	53	56	45
75	1	16	14	17	18
77	1	5	6	7	3
87	1	5	3	6	7
95	1	55	56	45	53
98	1	41	43	39	42
105	1	3	5	2	4
106	1	2	33	1	3
114	1	33	2	31	34
120	1	45	55	44	46
124	1	9	10	18	8
130	1	7	5	8	31
131	1	68	69	70	43
132	1	68	43	69	70
133	1	7	8	31	5
137	1	3	2	4	5
139	1	16	18	14	17
140	1	16	17	18	14
146	1	50	53	48	51
157	1	72	73	74	35
166	2	35	72	15	36
167	1	14	16	12	15
168	1	41	39	42	43
172	1	2	3	33	1
173	1	53	54	55	50
177	1	33	34	2	31
179	1	72	35	73	74
187	1	39	40	41	38
188	1	9	8	10	18
189	1	41	42	43	39
192	1	46	45	47	48
204	1	31	32	33	7
206	1	55	45	53	56
211	1	46	48	45	47
219	1	33	31	34	2
222	1	48	50	46	49
224	1	3	4	5	2
227	2	35	15	36	72
234	1	53	55	50	54
238	1	70	68	71	38
243	1	70	71	38	68
246	1	48	49	50	46
247	1	12	14	10	13
250	1	43	41	44	68
257	2	35	36	72	15
262	1	14	15	16	12
267	1	39	41	38	40
269	1	2	1	3	33
271	1	68	70	43	69
278	1	10	12	9	11
282	1	43	44	68	41
286	1	38	37	39	70
294	1	12	13	14	10
308	1	38	70	37	39
309	1	7	31	5	8
310	1	18	9	16	19
311	1	46	47	48	45
312	1	70	38	68	71
314	1	50	51	53	48
315	1	45	46	55	44
316	1	38	39	70	37
317	1	18	16	19	9
318	1	48	46	49	50
328	1	9	18	8	10
333	1	50	48	51	53
335	1	53	50	54	55
347	1	72	74	35	73
