Title

95 atoms
96 bonds
173 angles
287 dihedrals
48 impropers

9 atom types
12 bond types
6 angle types
23 dihedral types
2 improper types
-5.289000034 94.71099997 xlo xhi
-3.536000013 96.46399999 ylo yhi
-4.705999851 95.29400015 zlo zhi
0.0 0.0 0.0 xy xz yz

Masses

1	15.99943
2	12.01078
3	1.007947
4	1.007947
5	12.01078
6	15.99943
7	1.007947
8	15.99943
9	1.007947


Pair Coeffs

1	0.16846514	3.0251065
2	0.10884061	3.3795318
3	0.016409246	2.5832257
4	0.015779483	2.6445434
5	0.086879315	3.4806469
6	0.2102061	3.0398122
7	0.015611343	2.5725815
8	0.20947353	2.99716
9	1.2326e-05	0.53453923

Bond Coeffs

1 harmonic	366.7408841747	1.425895053732
2 harmonic	300.03137914615	1.451203938761
3 harmonic	264.62148576755	1.52190126495
4 harmonic	370.04670688625	1.093899492634
5 harmonic	301.15400723785	1.345741232799
6 harmonic	582.698766451	1.225198386222
7 harmonic	279.1350963404	1.454628925034
8 harmonic	360.7852444772	1.387193227181
9 harmonic	397.2545789619	1.085358495916
10 harmonic	329.96998057905	1.427343958716
11 harmonic	543.5267831885	0.9716763312559
12 harmonic	385.7604595587	1.369745182308


Angle Coeffs

1 harmonic	53.20531626545	116.5475862634
2 harmonic	65.09061609600001	110.3538806181
3 harmonic	201.41175231035	127.4691416191
4 harmonic	57.8982893754	126.8062420451
5 harmonic	48.776492647595	115.6030999533
6 harmonic	34.066775159195	129.1835929926


Dihedral Coeffs

1 fourier 1	0.1155372516788	3	0
2 fourier 1	0.1115525666802	3	0
3 fourier 1	0.3432490222662	1	0
4 fourier 1	0.0473758381877	3	0
5 fourier 1	0.457973137376	1	0
6 fourier 1	0.09223874044423	3	0
7 fourier 1	0.3159935921949	2	180
8 fourier 1	0.3247796806857	1	180
9 fourier 1	0.1040663847541	3	0
10 fourier 1	0.1918272375143	3	0
11 fourier 1	0.9202179876409	1	180
12 fourier 1	1.163809172478	2	180
13 fourier 1	0.1679186987369	1	180
14 fourier 1	2.779853741805	2	180
15 fourier 1	0.9974165607242	2	180
16 fourier 1	0.1911926717192	3	0
17 fourier 1	3.661930099076	2	180
18 fourier 1	0.3445382149273	3	0
19 fourier 1	0.1364556373303	1	0
20 fourier 1	0.3026390167484	3	0
21 fourier 1	2.687457892086	2	180
22 fourier 1	2.772607909663	2	180
23 fourier 1	0.09692684957115	1	0


Improper Coeffs

1 3.5	-1	2
2 0.3666666666666667	-1	2


Atoms

1	1	1	-0.166511	-3.987	2.6689999	0.88
2	1	2	0.036194999	-4.0469999	1.324	0.491
3	1	2	-0.144453	-2.6389999	0.72299999	0.44499999
4	1	2	-0.138291	-2.684	-0.75800002	0.041000001
5	1	2	-0.14072201	-1.3049999	-1.431	0.112
6	1	2	-0.139448	-0.34799999	-0.93300003	-0.98500001
7	1	2	-0.139448	0.94199997	-1.768	-1.074
8	1	2	-0.140772	1.801	-1.779	0.207
9	1	2	-0.13956299	2.217	-0.38999999	0.72399998
10	1	2	-0.139011	3.069	0.39199999	-0.289
11	1	2	0.13922299	3.6340001	1.681	0.315
12	1	1	-0.50694197	2.6040001	2.5910001	0.59600002
13	1	3	0.078734003	4.2350001	1.456	1.227
14	1	3	0.078734003	4.3189998	2.1470001	-0.42399999
15	1	4	0.092173003	2.4590001	0.65499997	-1.179
16	1	4	0.092173003	3.918	-0.242	-0.62400001
17	1	4	0.088026002	2.8110001	-0.54000002	1.652
18	1	4	0.088026002	1.318	0.197	1.006
19	1	4	0.086240999	1.253	-2.3099999	1.013
20	1	4	0.086240999	2.7179999	-2.375	0.0080000004
21	1	4	0.086240999	1.552	-1.3940001	-1.923
22	1	4	0.086240999	0.67199999	-2.8180001	-1.322
23	1	4	0.086240999	-0.861	-1	-1.969
24	1	4	0.086240999	-0.092	0.134	-0.82300001
25	1	4	0.086240999	-1.449	-2.527	-0.0070000002
26	1	4	0.086240999	-0.86299998	-1.2539999	1.1160001
27	1	4	0.088203996	-3.1010001	-0.85900003	-0.98500001
28	1	4	0.088203996	-3.365	-1.3	0.73500001
29	1	4	0.093292996	-2.033	1.295	-0.28799999
30	1	4	0.093292996	-2.1700001	0.824	1.448
31	1	3	0.086635001	-4.6620002	0.77100003	1.233
32	1	3	0.086635001	-4.54	1.2309999	-0.50300002
33	1	5	0.78733701	2.29	2.4000001	1.566
34	1	6	-0.57653999	3.099	2.576	2.5139999
35	1	5	-0.31001401	0.91600001	1.932	1.822
36	1	5	-0.113425	0.064999998	1.75	0.79799998
37	1	7	0.205429	0.375	1.944	-0.221
38	1	5	-0.070676997	-1.314	1.28	1.0470001
39	1	7	0.187793	-1.979	1.142	0.20200001
40	1	5	-0.37214801	-1.733	1.029	2.299
41	1	5	0.57739002	-3.109	0.56099999	2.5380001
42	1	6	-0.617428	-3.517	0.322	3.7049999
43	1	5	-0.070676997	-0.79400003	1.23	3.431
44	1	7	0.187793	-1.112	1.033	4.447
45	1	5	-0.113425	0.456	1.655	3.2060001
46	1	7	0.205429	1.127	1.796	4.0440001
47	1	1	-0.166511	-3.677	3.1800001	0.088
48	1	2	0.036194999	-3.9849999	4.526	0.333
49	1	2	-0.144453	-2.9820001	5.1259999	1.322
50	1	2	-0.138291	-3.289	6.6079998	1.5880001
51	1	2	-0.14072201	-2.2279999	7.2800002	2.4719999
52	1	2	-0.139448	-2.27	6.7820001	3.927
53	1	2	-0.139448	-1.383	7.6170001	4.868
54	1	2	-0.14072201	0.118	7.6279998	4.5100002
55	1	2	-0.134206	0.77399999	6.2389998	4.4130001
56	1	2	-0.16637699	0.71200001	5.4569998	5.7350001
57	1	2	0.089523003	1.5369999	4.1680002	5.6750002
58	1	8	-0.67999101	0.97100002	3.2579999	4.77
59	1	9	0.38500699	1.38	3.441	3.8840001
60	1	3	0.077909999	2.5969999	4.3930001	5.4120002
61	1	3	0.077909999	1.539	3.7019999	6.6830001
62	1	4	0.095648997	-0.34	5.1939998	5.974
63	1	4	0.095648997	1.109	6.092	6.5570002
64	1	4	0.088203996	1.84	6.3889999	4.1339998
65	1	4	0.088203996	0.30500001	5.652	3.596
66	1	4	0.086240999	0.26199999	8.1590004	3.5450001
67	1	4	0.086240999	0.65600002	8.224	5.2789998
68	1	4	0.086240999	-1.511	7.244	5.9060001
69	1	4	0.086240999	-1.749	8.6669998	4.8660002
70	1	4	0.086240999	-3.3139999	6.849	4.302
71	1	4	0.086240999	-1.972	5.7150002	3.9820001
72	1	4	0.086240999	-2.415	8.3760004	2.461
73	1	4	0.086240999	-1.222	7.1030002	2.0339999
74	1	4	0.088203996	-4.2919998	6.7080002	2.059
75	1	4	0.088203996	-3.3180001	7.1490002	0.61699998
76	1	4	0.093292996	-3.0350001	4.5539999	2.2720001
77	1	4	0.093292996	-1.957	5.0250001	0.903
78	1	3	0.086635001	-3.934	5.0780001	-0.63
79	1	3	0.086635001	-5.0219998	4.618	0.72899997
80	1	5	0.57739002	-3.789	0.417	1.706
81	1	6	-0.617428	-4.9250002	0.95899999	1.747
82	1	5	-0.37214801	-3.3829999	-0.40000001	0.55000001
83	1	5	-0.070676997	-2.168	-0.97100002	0.52200001
84	1	7	0.187793	-1.474	-0.83899999	1.344
85	1	5	-0.11097	-1.753	-1.793	-0.634
86	1	7	0.205429	-0.76499999	-2.2379999	-0.62300003
87	1	5	-0.29916599	-2.5869999	-1.98	-1.675
88	1	5	0.82519799	-2.187	-2.8	-2.8399999
89	1	6	-0.55494702	-1.05	-3.3440001	-2.8829999
90	1	8	-0.67992002	-3.069	-2.9779999	-3.902
91	1	9	0.396447	-2.809	-3.536	-4.7059999
92	1	5	-0.11097	-3.9300001	-1.348	-1.642
93	1	7	0.205429	-4.619	-1.484	-2.467
94	1	5	-0.070676997	-4.3049998	-0.60399997	-0.59500003
95	1	7	0.187793	-5.289	-0.152	-0.59100002

Bonds

1	1	1	2
2	2	1	47
3	3	2	3
4	4	2	31
5	4	2	32
6	3	3	4
7	4	3	29
8	4	3	30
9	3	4	5
10	4	4	27
11	4	4	28
12	3	5	6
13	4	5	25
14	4	5	26
15	3	6	7
16	4	6	23
17	4	6	24
18	3	7	8
19	4	7	21
20	4	7	22
21	3	8	9
22	4	8	19
23	4	8	20
24	3	9	10
25	4	9	17
26	4	9	18
27	3	10	11
28	4	10	15
29	4	10	16
30	1	11	12
31	4	11	13
32	4	11	14
33	5	12	33
34	6	33	34
35	7	33	35
36	8	35	36
37	8	35	45
38	9	36	37
39	8	36	38
40	9	38	39
41	8	38	40
42	7	40	41
43	8	40	43
44	6	41	42
45	7	41	80
46	9	43	44
47	8	43	45
48	9	45	46
49	1	47	48
50	3	48	49
51	4	48	78
52	4	48	79
53	3	49	50
54	4	49	76
55	4	49	77
56	3	50	51
57	4	50	74
58	4	50	75
59	3	51	52
60	4	51	72
61	4	51	73
62	3	52	53
63	4	52	70
64	4	52	71
65	3	53	54
66	4	53	68
67	4	53	69
68	3	54	55
69	4	54	66
70	4	54	67
71	3	55	56
72	4	55	64
73	4	55	65
74	3	56	57
75	4	56	62
76	4	56	63
77	10	57	58
78	4	57	60
79	4	57	61
80	11	58	59
81	6	80	81
82	7	80	82
83	8	82	83
84	8	82	94
85	9	83	84
86	8	83	85
87	9	85	86
88	8	85	87
89	7	87	88
90	8	87	92
91	6	88	89
92	12	88	90
93	11	90	91
94	9	92	93
95	8	92	94
96	9	94	95

Angles

1	6	83	85	86
2	1	52	53	68
3	2	57	58	59
4	1	50	49	77
5	1	1	2	3
6	1	12	11	14
7	6	44	43	45
8	4	12	33	35
9	5	31	2	32
10	5	21	7	22
11	4	40	41	80
12	1	8	9	18
13	5	68	53	69
14	1	53	54	66
15	1	7	6	23
16	4	40	41	42
17	1	54	53	69
18	1	3	2	32
19	1	9	8	20
20	1	4	5	25
21	1	1	2	31
22	1	4	3	30
23	1	49	50	51
24	1	11	10	15
25	4	80	82	94
26	6	87	92	93
27	1	51	50	74
28	4	85	87	92
29	1	10	9	18
30	1	4	3	29
31	2	1	47	48
32	1	9	8	19
33	5	60	57	61
34	2	11	12	33
35	1	52	53	69
36	1	51	52	71
37	1	56	55	64
38	6	92	94	95
39	1	3	4	27
40	4	33	35	36
41	1	55	56	57
42	5	78	48	79
43	1	47	48	79
44	6	37	36	38
45	4	80	82	83
46	4	83	85	87
47	1	47	48	49
48	3	89	88	90
49	4	36	38	40
50	4	41	80	82
51	1	11	10	16
52	1	58	57	61
53	4	87	88	89
54	1	53	52	70
55	4	34	33	35
56	1	9	10	11
57	1	57	56	62
58	5	17	9	18
59	4	42	41	80
60	1	54	55	65
61	1	6	5	25
62	1	55	54	67
63	1	49	50	74
64	1	8	9	10
65	4	38	40	43
66	1	50	49	76
67	5	62	56	63
68	1	50	51	73
69	2	2	1	47
70	1	49	48	78
71	5	76	49	77
72	3	12	33	34
73	1	52	51	72
74	6	82	83	84
75	1	48	49	77
76	5	13	11	14
77	5	74	50	75
78	4	85	87	88
79	6	84	83	85
80	1	10	9	17
81	5	72	51	73
82	1	12	11	13
83	5	15	10	16
84	1	7	8	20
85	4	82	83	85
86	4	88	87	92
87	4	81	80	82
88	1	5	4	28
89	1	48	49	76
90	1	56	57	58
91	1	1	2	32
92	4	41	80	81
93	1	54	55	64
94	4	87	88	90
95	5	19	8	20
96	1	4	5	26
97	1	53	54	55
98	1	6	7	21
99	1	7	8	19
100	4	41	40	43
101	1	47	48	78
102	1	5	6	7
103	6	39	38	40
104	1	50	51	52
105	1	5	6	23
106	1	10	11	12
107	1	7	8	9
108	1	10	11	14
109	1	54	55	56
110	4	36	35	45
111	1	55	56	63
112	1	52	53	54
113	6	35	36	37
114	5	25	5	26
115	1	5	4	27
116	5	70	52	71
117	4	38	40	41
118	1	8	9	17
119	1	51	52	70
120	6	36	38	39
121	5	64	55	65
122	5	27	4	28
123	4	83	82	94
124	1	57	56	63
125	6	43	45	46
126	1	8	7	21
127	1	5	6	24
128	1	2	3	29
129	1	53	54	67
130	1	49	50	75
131	1	48	49	50
132	5	23	6	24
133	1	9	10	16
134	6	35	45	46
135	1	55	56	62
136	6	93	92	94
137	1	6	5	26
138	4	35	36	38
139	1	56	55	65
140	1	51	50	75
141	1	2	3	4
142	1	4	5	6
143	6	86	85	87
144	5	66	54	67
145	1	3	4	28
146	1	49	48	79
147	1	53	52	71
148	6	82	94	95
149	1	8	7	22
150	1	9	10	15
151	1	52	51	73
152	4	87	92	94
153	1	51	52	53
154	5	29	3	30
155	1	56	57	60
156	4	40	43	45
157	1	2	3	30
158	1	7	6	24
159	1	50	51	72
160	2	88	90	91
161	4	82	94	92
162	1	54	53	68
163	4	33	35	45
164	1	56	57	61
165	1	6	7	22
166	1	58	57	60
167	4	35	45	43
168	6	40	43	44
169	1	3	2	31
170	1	3	4	5
171	1	10	11	13
172	1	6	7	8
173	1	55	54	66

Dihedrals

1	9	11	10	9	18
2	15	41	80	82	94
3	9	9	8	7	21
4	16	65	55	54	66
5	9	7	8	9	18
6	16	70	52	51	73
7	17	37	36	35	45
8	9	51	52	53	69
9	2	1	2	3	30
9	3	1	2	3	30
10	9	55	56	57	61
11	17	80	82	94	95
12	15	34	33	35	36
13	16	67	54	53	68
14	2	1	2	3	29
14	3	1	2	3	29
15	9	7	6	5	25
16	14	11	12	33	35
17	17	86	85	87	92
18	16	20	8	7	21
19	9	4	5	6	24
20	17	84	83	82	94
21	16	72	51	50	74
22	17	82	83	85	86
23	15	38	40	41	42
24	15	41	80	82	83
25	9	54	53	52	71
26	17	82	94	92	93
27	16	66	54	53	69
28	17	33	35	45	43
29	6	8	9	10	11
29	7	8	9	10	11
29	8	8	9	10	11
30	16	77	49	48	78
31	2	47	48	49	77
31	3	47	48	49	77
32	9	51	52	53	68
33	9	57	56	55	64
34	1	1	2	3	4
35	9	10	9	8	20
36	4	32	2	1	47
37	17	39	38	40	43
38	17	80	82	94	92
39	16	29	3	2	32
40	16	30	3	2	31
41	17	36	35	45	43
42	16	73	51	50	75
43	6	54	55	56	57
43	7	54	55	56	57
43	8	54	55	56	57
44	16	61	57	56	63
45	21	87	88	90	91
46	9	6	5	4	28
47	17	44	43	45	46
48	17	83	85	87	88
49	2	47	48	49	76
49	3	47	48	49	76
50	9	52	51	50	75
51	17	41	40	43	45
52	5	2	1	47	48
53	2	58	57	56	62
53	3	58	57	56	62
54	16	15	10	9	18
55	22	89	88	90	91
55	23	89	88	90	91
56	9	3	4	5	26
57	16	24	6	5	25
58	17	38	36	35	45
59	16	69	53	52	71
60	6	6	7	8	9
60	7	6	7	8	9
60	8	6	7	8	9
61	16	60	57	56	62
62	17	35	45	43	44
63	16	23	6	5	25
64	17	38	40	43	44
65	9	49	50	51	72
66	16	16	10	9	17
67	9	50	49	48	79
68	9	56	55	54	67
69	6	7	8	9	10
69	7	7	8	9	10
69	8	7	8	9	10
70	10	10	11	12	33
70	11	10	11	12	33
71	1	55	56	57	58
72	9	9	10	11	13
73	16	64	55	54	66
74	9	6	5	4	27
75	6	53	54	55	56
75	7	53	54	55	56
75	8	53	54	55	56
76	16	13	11	10	15
77	9	53	54	55	65
78	17	82	83	85	87
79	17	80	82	83	84
80	15	38	40	41	80
81	4	1	47	48	79
82	9	50	51	52	71
83	16	65	55	54	67
84	17	93	92	94	95
85	16	25	5	4	27
86	9	48	49	50	75
87	16	22	7	6	23
88	15	85	87	88	89
89	4	3	2	1	47
90	4	1	47	48	49
91	17	35	45	43	40
92	17	80	82	83	85
93	9	52	53	54	66
94	9	4	3	2	31
95	9	6	7	8	20
96	16	76	49	48	78
97	16	17	9	8	20
98	17	83	82	94	95
99	12	11	12	33	34
99	13	11	12	33	34
100	1	47	48	49	50
101	9	53	52	51	72
102	9	9	8	7	22
103	4	13	11	12	33
104	16	68	53	52	70
105	9	49	50	51	73
106	17	39	38	40	41
107	2	12	11	10	16
107	3	12	11	10	16
108	16	72	51	50	75
109	17	82	94	92	87
110	17	84	83	85	87
111	4	14	11	12	33
112	9	6	7	8	19
113	16	74	50	49	77
114	16	17	9	8	19
115	17	35	36	38	40
116	17	37	36	38	40
117	9	5	6	7	21
118	16	13	11	10	16
119	16	22	7	6	24
120	17	36	38	40	43
121	15	43	40	41	80
122	6	3	4	5	6
122	7	3	4	5	6
122	8	3	4	5	6
123	17	88	87	92	94
124	9	53	54	55	64
125	9	4	3	2	32
126	16	20	8	7	22
127	16	26	5	4	28
128	17	83	82	94	92
129	9	8	9	10	16
130	16	30	3	2	32
131	17	41	40	43	44
132	16	63	56	55	65
133	16	73	51	50	74
134	2	58	57	56	63
134	3	58	57	56	63
135	9	11	10	9	17
136	16	18	9	8	19
137	9	2	3	4	28
138	2	12	11	10	15
138	3	12	11	10	15
139	16	61	57	56	62
140	9	54	53	52	70
141	15	12	33	35	45
142	9	51	50	49	77
143	9	7	8	9	17
144	9	54	55	56	63
145	16	70	52	51	72
146	15	85	87	88	90
147	17	40	43	45	46
148	15	42	41	80	82
149	9	53	52	51	73
150	16	71	52	51	72
151	6	49	50	51	52
151	7	49	50	51	52
151	8	49	50	51	52
152	9	55	54	53	69
153	16	24	6	5	26
154	17	86	85	87	88
155	9	5	6	7	22
156	16	62	56	55	65
157	17	87	92	94	95
158	16	14	11	10	15
159	9	8	7	6	23
160	16	28	4	3	30
161	4	31	2	1	47
162	16	23	6	5	26
163	16	64	55	54	67
164	9	8	9	10	15
165	15	40	41	80	82
166	16	28	4	3	29
167	6	5	6	7	8
167	7	5	6	7	8
167	8	5	6	7	8
168	16	16	10	9	18
169	17	85	87	92	94
170	16	69	53	52	70
171	16	63	56	55	64
172	9	7	6	5	26
173	6	51	52	53	54
173	7	51	52	53	54
173	8	51	52	53	54
174	9	48	49	50	74
175	9	55	54	53	68
176	17	85	83	82	94
177	9	8	7	6	24
178	17	36	38	40	41
179	15	81	80	82	94
180	16	18	9	8	20
181	16	19	8	7	21
182	6	2	3	4	5
182	7	2	3	4	5
182	8	2	3	4	5
183	15	89	88	87	92
184	17	33	35	36	37
185	17	88	87	92	93
186	16	74	50	49	76
187	16	14	11	10	16
188	16	15	10	9	17
189	6	50	51	52	53
189	7	50	51	52	53
189	8	50	51	52	53
190	16	71	52	51	73
191	16	27	4	3	30
192	16	29	3	2	31
193	15	34	33	35	45
194	6	48	49	50	51
194	7	48	49	50	51
194	8	48	49	50	51
195	16	62	56	55	64
196	9	5	4	3	30
197	16	21	7	6	24
198	15	42	41	80	81
199	20	59	58	57	60
200	9	50	51	52	70
201	16	27	4	3	29
202	9	3	4	5	25
203	6	52	53	54	55
203	7	52	53	54	55
203	8	52	53	54	55
204	16	76	49	48	79
205	15	12	33	35	36
206	9	50	49	48	78
207	16	77	49	48	79
208	9	5	4	3	29
209	16	75	50	49	77
210	17	35	36	38	39
211	17	37	36	38	39
212	15	42	41	40	43
213	9	52	51	50	74
214	16	60	57	56	63
215	15	81	80	82	83
216	17	33	35	45	46
217	20	59	58	57	61
218	15	40	41	80	81
219	16	75	50	49	76
220	9	51	50	49	76
221	17	33	35	36	38
222	1	9	10	11	12
223	9	9	10	11	14
224	17	83	85	87	92
225	17	38	40	43	45
226	4	1	47	48	78
227	16	19	8	7	22
228	17	36	35	45	46
229	16	26	5	4	27
230	16	67	54	53	69
231	17	84	83	85	86
232	9	56	55	54	66
233	6	4	5	6	7
233	7	4	5	6	7
233	8	4	5	6	7
234	15	90	88	87	92
235	16	25	5	4	28
236	9	10	9	8	19
237	16	68	53	52	71
238	16	66	54	53	68
239	18	56	57	58	59
239	19	56	57	58	59
240	9	2	3	4	27
241	9	4	5	6	23
242	16	21	7	6	23
243	9	54	55	56	62
244	17	85	87	92	93
245	9	55	56	57	60
246	9	52	53	54	67
247	9	57	56	55	65

Impropers

4	2	80	82	41	81
10	2	82	83	94	80
23	2	92	87	93	94
28	2	83	84	85	82
32	2	87	88	92	85
41	2	40	41	43	38
47	2	85	87	83	86
74	2	94	95	82	92
81	2	45	35	43	46
101	2	38	40	36	39
110	2	45	46	35	43
124	2	94	82	92	95
134	2	43	45	40	44
144	2	36	37	38	35
145	2	82	80	83	94
146	2	92	93	94	87
149	2	35	36	45	33
165	2	87	92	85	88
186	1	33	35	12	34
200	1	33	34	35	12
265	2	40	38	41	43
271	2	35	33	36	45
277	2	41	80	40	42
290	2	36	38	35	37
299	2	87	85	88	92
307	2	36	35	37	38
315	2	80	81	82	41
317	2	83	85	82	84
336	2	83	82	84	85
344	1	88	90	87	89
365	2	43	40	44	45
366	2	82	94	80	83
371	2	38	39	40	36
374	1	33	12	34	35
386	2	45	43	46	35
403	2	38	36	39	40
408	2	80	41	81	82
439	1	88	89	90	87
442	2	35	45	33	36
484	1	88	87	89	90
485	2	85	86	87	83
486	2	85	83	86	87
491	2	41	40	42	80
503	2	92	94	87	93
506	2	40	43	38	41
537	2	94	92	95	82
565	2	41	42	80	40
575	2	43	44	45	40
