Title

6375 atoms
6250 bonds
11125 angles
18625 dihedrals
1500 impropers

8 atom types
11 bond types
5 angle types
27 dihedral types
2 improper types
-4.660999775 95.33900023 xlo xhi
-5.703299999 94.2967 ylo yhi
-5.736999989 94.26300001 zlo zhi
0.0 0.0 0.0 xy xz yz

Masses

1	15.99943
2	12.01078
3	1.007947
4	1.007947
5	12.01078
6	15.99943
7	15.99943
8	1.007947


Pair Coeffs

1	0.16846514	3.0251065
2	0.10884061	3.3795318
3	0.016409246	2.5832257
4	0.015779483	2.6445434
5	0.086879315	3.4806469
6	0.2102061	3.0398122
7	0.20947353	2.99716
8	1.2326e-05	0.53453923

Bond Coeffs

1 harmonic	366.7408841747	1.425895053732
2 harmonic	300.03137914615	1.451203938761
3 harmonic	264.62148576755	1.52190126495
4 harmonic	370.04670688625	1.093899492634
5 harmonic	301.15400723785	1.345741232799
6 harmonic	582.698766451	1.225198386222
7 harmonic	329.44145381095	1.523435958334
8 harmonic	279.1350963404	1.454628925034
9 harmonic	329.96998057905	1.427343958716
10 harmonic	543.5267831885	0.9716763312559
11 harmonic	385.7604595587	1.369745182308


Angle Coeffs

1 harmonic	53.20531626545	116.5475862634
2 harmonic	65.09061609600001	110.3538806181
3 harmonic	201.41175231035	127.4691416191
4 harmonic	57.8982893754	126.8062420451
5 harmonic	48.776492647595	115.6030999533


Dihedral Coeffs

1 fourier 1	0.1155372516788	3	0
2 fourier 1	0.1115525666802	3	0
3 fourier 1	0.3432490222662	1	0
4 fourier 1	0.0473758381877	3	0
5 fourier 1	0.457973137376	1	0
6 fourier 1	0.09223874044423	3	0
7 fourier 1	0.3159935921949	2	180
8 fourier 1	0.3247796806857	1	180
9 fourier 1	0.1040663847541	3	0
10 fourier 1	0.1918272375143	3	0
11 fourier 1	0.9202179876409	1	180
12 fourier 1	1.163809172478	2	180
13 fourier 1	0.1679186987369	1	180
14 fourier 1	2.779853741805	2	180
15 fourier 1	0.02664938770063	3	0
16 fourier 1	0.1911926717192	3	0
17 fourier 1	-0.3703352413219	2	0
18 fourier 1	0.4541676554336	1	0
19 fourier 1	0.1489710476446	2	0
20 fourier 1	0.02960027280666	3	180
21 fourier 1	0.9974165607242	2	180
22 fourier 1	0.3445382149273	3	0
23 fourier 1	0.1364556373303	1	0
24 fourier 1	0.3026390167484	3	0
25 fourier 1	2.687457892086	2	180
26 fourier 1	2.772607909663	2	180
27 fourier 1	0.09692684957115	1	0


Improper Coeffs

1 3.5	-1	2
2 0.3666666666666667	-1	2


Atoms

1	4	1	-0.17373	-2.1702001	1.0419	1.2143
2	4	2	0.033211999	-0.96079999	0.33539999	1.1587
3	4	2	-0.145254	-0.8114	-0.55299997	2.3993001
4	4	2	-0.137881	0.56919998	-1.2235	2.4981
5	4	2	0.13548	0.79280001	-2.3183	1.4491
6	4	1	-0.49472499	1.1072	-1.7481	0.20999999
7	4	3	0.082231998	1.642	-2.9583001	1.7792
8	4	3	0.082231998	-0.1129	-2.9603	1.3608
9	4	4	0.090094	0.64560002	-1.6924	3.5035999
10	4	4	0.090094	1.3749	-0.4601	2.4307001
11	4	4	0.091122001	-0.9515	0.077200003	3.3044
12	4	4	0.091122001	-1.6128	-1.3249	2.4047999
13	4	3	0.081914	-0.1044	1.044	1.081
14	4	3	0.081914	-0.97439998	-0.29530001	0.2464
15	5	5	0.76797003	1.2257	-2.5411	-0.45039999
16	5	6	-0.54950899	1.2124	-3.6858001	-0.0272
17	5	2	-0.159466	1.4315	-2.2735	-1.9137
18	5	2	-0.25221699	0.28040001	-2.8239	-2.7618999
19	5	5	0.52195799	-1.0045	-2.1008999	-2.4776001
20	5	6	-0.689183	-1.9487	-2.6918001	-1.9782
21	5	4	0.13276701	0.52770001	-2.6859	-3.8366001
22	5	4	0.13276701	0.1605	-3.9151001	-2.5809
23	5	4	0.120798	1.5282	-1.1777	-2.0780001
24	5	4	0.120798	2.3822	-2.7488	-2.2355001
25	1	1	-0.17373	-2.0320001	1.7939	1.8467
26	1	2	0.033323999	-0.65249997	1.8723	2.0836999
27	1	2	-0.13951901	0.046599999	2.5555	0.90270001
28	1	2	-0.16656899	1.5816	2.5188	1.0073
29	1	2	0.086689003	2.1396999	3.4245	2.1122
30	1	7	-0.68276602	1.993	2.8136001	3.3629999
31	1	8	0.38080099	2.3550999	3.4549999	4.0274
32	1	3	0.072623998	3.2219	3.5948999	1.9172
33	1	3	0.072623998	1.6235	4.4106998	2.0996001
34	1	4	0.093584999	1.9944	2.8684001	0.036899999
35	1	4	0.093584999	1.9328001	1.475	1.1568
36	1	4	0.091293	-0.244	2.0285001	-0.0328
37	1	4	0.091293	-0.30419999	3.6066999	0.81639999
38	1	3	0.081914	-0.23190001	0.85519999	2.2512
39	1	3	0.081914	-0.49720001	2.4691	3.0060999
40	2	5	0.52195799	-1.0924	-1.044	-2.7049
41	2	6	-0.689183	-1.9674	-0.66170001	-3.4653001
42	2	2	-0.25029799	-0.12989999	-0.065300003	-2.1008
43	2	2	-0.16627499	-0.85170001	0.89990002	-1.1576
44	2	5	0.82897699	0.1209	1.8578	-0.54629999
45	2	6	-0.55547601	0.68650001	1.575	0.5438
46	2	7	-0.665694	0.4341	3.0425	-1.205
47	2	8	0.397012	1.1034	3.6942	-0.81309998
48	2	4	0.120938	-1.6198	1.4754	-1.7194999
49	2	4	0.120938	-1.3649	0.32960001	-0.35260001
50	2	4	0.13276701	0.64399999	-0.62910002	-1.5348001
51	2	4	0.13276701	0.37329999	0.49970001	-2.9152999
52	4	1	-0.17373	0.65039998	-2.2902	10.3451
53	4	2	0.033211999	0.0999	-1.005	10.4453
54	4	2	-0.145254	-0.88739997	-0.76300001	9.2974997
55	4	2	-0.137881	-1.3981	0.68650001	9.2368002
56	4	2	0.13548	-2.3457	1.0486	10.3857
57	4	1	-0.49472499	-1.6186	1.3049001	11.5539
58	4	3	0.082231998	-2.9123001	1.9646	10.1033
59	4	3	0.082231998	-3.0769	0.2265	10.5577
60	4	4	0.090094	-1.9554	0.80839998	8.2821999
61	4	4	0.090094	-0.54259998	1.3965	9.2095003
62	4	4	0.091122001	-0.3741	-0.98559999	8.3367996
63	4	4	0.091122001	-1.7443	-1.4671	9.3871002
64	4	3	0.081914	0.90820003	-0.23800001	10.4327
65	4	3	0.081914	-0.43110001	-0.93480003	11.4165
66	5	5	0.76797003	-2.3203001	1.5231	12.2882
67	5	6	-0.54950899	-3.4960001	1.6418	11.9827
68	5	2	-0.159466	-1.8819	1.7097	13.7122
69	5	2	-0.25221699	-2.4734001	0.64029998	14.6362
70	5	5	0.52195799	-1.9389	-0.72409999	14.3085
71	5	6	-0.689183	-2.6845	-1.5961	13.8918
72	5	4	0.13276701	-2.1979001	0.87980002	15.686
73	5	4	0.13276701	-3.5839	0.64910001	14.5687
74	5	4	0.120798	-0.7712	1.6770999	13.7632
75	5	4	0.120798	-2.207	2.7131	14.0595
76	1	1	-0.17373	1.3444999	-2.2483001	9.6372995
77	1	2	0.033323999	1.5594	-0.89020002	9.3638
78	1	2	-0.13951901	2.4372001	-0.26589999	10.4546
79	1	2	-0.16656899	2.5701001	1.2615	10.321
80	1	2	0.086689003	3.4168999	1.6975	9.1187
81	1	7	-0.68276602	2.668	1.6124001	7.9391999
82	1	8	0.38080099	3.2758	1.8893	7.2059999
83	1	3	0.072623998	3.7319	2.7535999	9.2721004
84	1	3	0.072623998	4.3318	1.068	9.0431004
85	1	4	0.093584999	3.0632999	1.6391	11.2421
86	1	4	0.093584999	1.5648	1.7328	10.2698
87	1	4	0.091293	1.9786	-0.48289999	11.4445
88	1	4	0.091293	3.4433	-0.73830003	10.4422
89	1	3	0.081914	0.58679998	-0.35350001	9.2904997
90	1	3	0.081914	2.0725	-0.81569999	8.3829002
91	2	5	0.52195799	-0.88190001	-0.9346	14.4301
92	2	6	-0.689183	-0.52880001	-1.8415	15.1669
93	2	2	-0.25029799	0.1357	-0.101	13.7098
94	2	2	-0.16627499	0.90780002	-0.94139999	12.6901
95	2	5	0.82897699	1.9053	-0.095399998	11.9645
96	2	6	-0.55547601	1.5805	0.4894	10.8965
97	2	7	-0.665694	3.1798	0.081299998	12.4936
98	2	8	0.397012	3.8618	0.66460001	12.0238
99	2	4	0.120938	1.4439	-1.767	13.2077
100	2	4	0.120938	0.2018	-1.3909	11.9579
101	2	4	0.13276701	-0.38859999	0.72890002	13.1868
102	2	4	0.13276701	0.83630002	0.33919999	14.4522
103	4	1	-0.17373	2.0934999	-1.6672	22.893499
104	4	2	0.033211999	1.3306	-0.51889998	22.639799
105	4	2	-0.145254	1.7252001	0.088699996	21.288601
106	4	2	-0.137881	1.059	1.4489	21.0215
107	4	2	0.13548	-0.44710001	1.3494	20.7554
108	4	1	-0.49472499	-1.1445	1.1921	21.9587
109	4	3	0.082231998	-0.7834	2.2892001	20.261999
110	4	3	0.082231998	-0.66339999	0.49950001	20.069099
111	4	4	0.090094	1.5376	1.8878	20.1187
112	4	4	0.090094	1.2521	2.1459999	21.8661
113	4	4	0.091122001	2.8267	0.2388	21.2766
114	4	4	0.091122001	1.4785	-0.62510002	20.4715
115	4	3	0.081914	1.4708	0.2247	23.457701
116	4	3	0.081914	0.26210001	-0.81559998	22.6187
117	5	5	0.76797003	-2.1480999	1.1134	21.7022
118	5	6	-0.54950899	-2.4914	1.2996	20.5459
119	5	2	-0.159466	-3.1682	0.79140002	22.7561
120	5	2	-0.25221699	-3.8531001	-0.55409998	22.495199
121	5	5	0.52195799	-2.8856001	-1.6954	22.620899
122	5	6	-0.689183	-2.6101999	-2.3819001	21.65
123	5	4	0.13276701	-4.6609998	-0.69760001	23.244699
124	5	4	0.13276701	-4.3243999	-0.5535	21.487301
125	5	4	0.120798	-2.6754	0.77460003	23.753099
126	5	4	0.120798	-3.9347	1.5948	22.771299
127	1	1	-0.17373	2.9865999	-1.3552999	23.193001
128	1	2	0.033323999	2.8666999	0.0164	23.456301
129	1	2	-0.13951901	2.1831999	0.23469999	24.8111
130	1	2	-0.16656899	1.8545001	1.7121	25.089701
131	1	2	0.086689003	3.0953	2.573	25.3585
132	1	7	-0.68276602	3.7355001	2.8935001	24.155701
133	1	8	0.38080099	4.5316	3.4314001	24.4018
134	1	3	0.072623998	2.7721	3.5132	25.858299
135	1	3	0.072623998	3.7950001	2.0385001	26.039499
136	1	4	0.093584999	1.2094001	1.7498	25.993299
137	1	4	0.093584999	1.2679	2.1415999	24.249001
138	1	4	0.091293	1.2276	-0.33469999	24.820499
139	1	4	0.091293	2.8225999	-0.17299999	25.623699
140	1	3	0.081914	2.2920001	0.5158	22.6441
141	1	3	0.081914	3.8873	0.45109999	23.4783
142	2	5	0.52195799	-2.4175	-1.9051	23.5767
143	2	6	-0.689183	-2.5569	-3.0048001	24.087601
144	2	2	-0.25029799	-1.6212	-0.84030002	24.2705
145	2	2	-0.16627499	-0.1468	-1.2384	24.370501
146	2	5	0.82897699	0.64029998	-0.1608	25.046
147	2	6	-0.55547601	1.1698	0.75739998	24.364201
148	2	7	-0.665694	0.75040001	-0.14839999	26.4328
149	2	8	0.397012	1.2654999	0.58359998	26.9072
150	2	4	0.120938	-0.0471	-2.1787	24.955999
151	2	4	0.120938	0.26699999	-1.4167	23.3538
152	2	4	0.13276701	-1.7124	0.1063	23.6936
153	2	4	0.13276701	-2.0427999	-0.67449999	25.2857
154	4	1	-0.17373	1.4002	2.0469999	33.774399
155	4	2	0.033211999	0.51010001	1.4469	34.6758
156	4	2	-0.145254	-0.3617	2.5151999	35.346401
157	4	2	-0.137881	-1.2397	1.954	36.477501
158	4	2	0.13548	-2.3801999	1.0598	35.978901
159	4	1	-0.49472499	-1.896	-0.21430001	35.660301
160	4	3	0.082231998	-3.1387	0.96689999	36.788799
161	4	3	0.082231998	-2.8726001	1.5193	35.092098
162	4	4	0.090094	-1.6913	2.8171	37.014198
163	4	4	0.090094	-0.61519998	1.4014	37.2132
164	4	4	0.091122001	0.30360001	3.2916999	35.7826
165	4	4	0.091122001	-0.99659997	3.0137999	34.5807
166	4	3	0.081914	1.0721999	0.86500001	35.442001
167	4	3	0.081914	-0.13150001	0.74379998	34.106499
168	5	5	0.76797003	-2.7128	-0.75510001	35.314899
169	5	6	-0.54950899	-3.8308001	-0.27070001	35.3866
170	5	2	-0.159466	-2.5153	-2.1322999	34.749802
171	5	2	-0.25221699	-2.8961	-2.2009001	33.267399
172	5	5	0.52195799	-1.9725	-1.3692	32.4249
173	5	6	-0.689183	-2.3947999	-0.39570001	31.8216
174	5	4	0.13276701	-2.8241	-3.2560999	32.925999
175	5	4	0.13276701	-3.9500999	-1.8728	33.1283
176	5	4	0.120798	-1.4527	-2.4347	34.8787
177	5	4	0.120798	-3.1424	-2.8485	35.321701
178	1	1	-0.17373	2.1352999	2.4354	34.315899
179	1	2	0.033323999	2	1.9151	35.610699
180	1	2	-0.13951901	2.5362	0.47979999	35.660099
181	1	2	-0.16656899	2.2595	-0.2216	37.001701
182	1	2	0.086689003	3.0908999	0.3353	38.1642
183	1	7	-0.68276602	2.5402	1.5367	38.625099
184	1	8	0.38080099	3.1315	1.8479	39.358101
185	1	3	0.072623998	3.0833001	-0.4077	38.9925
186	1	3	0.072623998	4.1458001	0.4901	37.844101
187	1	4	0.093584999	2.5167	-1.2955	36.880402
188	1	4	0.093584999	1.177	-0.1688	37.2481
189	1	4	0.091293	2.0402999	-0.1105	34.8582
190	1	4	0.091293	3.6273999	0.4797	35.4482
191	1	3	0.081914	0.93330002	1.9446	35.928101
192	1	3	0.081914	2.5859001	2.5569999	36.3004
193	2	5	0.52195799	-0.9206	-1.6257	32.360699
194	2	6	-0.689183	-0.42250001	-1.8584	31.270901
195	2	2	-0.25029799	-0.092799999	-1.711	33.608299
196	2	2	-0.16627499	0.99620003	-0.63569999	33.616299
197	2	5	0.82897699	1.802	-0.71789998	34.873699
198	2	6	-0.55547601	1.4586999	-0.055199999	35.889099
199	2	7	-0.665694	2.9066	-1.5615	34.935101
200	2	8	0.397012	3.4531	-1.6418999	35.784302
201	2	4	0.120938	1.6727	-0.77499998	32.744701
202	2	4	0.120938	0.53310001	0.3725	33.539001
203	2	4	0.13276701	-0.75870001	-1.5724	34.4884
204	2	4	0.13276701	0.3664	-2.7214999	33.671501
205	4	1	-0.17373	-1.2735	2.3340001	45.9953
206	4	2	0.033211999	-1.1797	0.99169999	46.388199
207	4	2	-0.145254	-2.569	0.3432	46.3862
208	4	2	-0.137881	-2.5724001	-1.077	46.976501
209	4	2	0.13548	-1.876	-2.1106	46.0844
210	4	1	-0.49472499	-0.4862	-2.0095	46.216099
211	4	3	0.082231998	-2.1968999	-3.1282001	46.403
212	4	3	0.082231998	-2.1752	-1.9683	45.021301
213	4	4	0.090094	-3.6327	-1.3894	47.098499
214	4	4	0.090094	-2.1129	-1.0754	47.989101
215	4	4	0.091122001	-3.2527001	0.9702	46.998901
216	4	4	0.091122001	-2.9726	0.32749999	45.3494
217	4	3	0.081914	-0.71640003	0.9181	47.398899
218	4	3	0.081914	-0.52160001	0.4684	45.664799
219	5	5	0.76797003	-0.083400004	-2.7205999	45.574902
220	5	6	-0.54950899	-0.82230002	-3.5106001	45.009701
221	5	2	-0.159466	1.402	-2.7837999	45.3638
222	5	2	-0.25221699	1.7864	-2.4688001	43.914501
223	5	5	0.52195799	1.4687999	-1.0447	43.560101
224	5	6	-0.689183	0.62959999	-0.79170001	42.710499
225	5	4	0.13276701	2.8800001	-2.6234	43.790699
226	5	4	0.13276701	1.2667	-3.1668999	43.221298
227	5	4	0.120798	1.9026999	-2.0652001	46.0494
228	5	4	0.120798	1.7586	-3.803	45.6231
229	1	1	-0.17373	-1.6087	2.8382001	46.781399
230	1	2	0.033323999	-1.5172	1.975	47.882301
231	1	2	-0.13951901	-0.067100003	1.9011	48.374298
232	1	2	-0.16656899	0.1459	0.83759999	49.466
233	1	2	0.086689003	-0.4955	1.2058001	50.809898
234	1	7	-0.68276602	-1.8733	0.96170002	50.775002
235	1	8	0.38080099	-2.2244	1.2355	51.661301
236	1	3	0.072623998	-0.036499999	0.5772	51.605099
237	1	3	0.072623998	-0.29710001	2.2741001	51.0518
238	1	4	0.093584999	1.2402	0.73280001	49.626202
239	1	4	0.093584999	-0.2317	-0.14929999	49.121601
240	1	4	0.091293	0.58560002	1.6401	47.512199
241	1	4	0.091293	0.25389999	2.8982	48.746101
242	1	3	0.081914	-1.8890001	0.96170002	47.609299
243	1	3	0.081914	-2.1651001	2.3778999	48.687801
244	2	5	0.52195799	1.9779	-0.2339	44.069801
245	2	6	-0.689183	2.6169	0.579	43.421101
246	2	2	-0.25029799	1.9093	-0.1283	45.564201
247	2	2	-0.16627499	1.1684999	1.1417	45.988998
248	2	5	0.82897699	1.0891	1.226	47.480202
249	2	6	-0.55547601	0.108	0.7227	48.0905
250	2	7	-0.665694	2.1219001	1.822	48.1968
251	2	8	0.397012	2.0919001	1.8721	49.208099
252	2	4	0.120938	1.7028	2.0385001	45.605099
253	2	4	0.120938	0.1411	1.1409	45.563301
254	2	4	0.13276701	1.3758	-1.0201	45.9608
255	2	4	0.13276701	2.9419	-0.1252	45.9762
256	4	1	-0.17373	-1.4124	12.5194	2.1094
257	4	2	0.033211999	-0.26440001	12.3621	1.3206
258	4	2	-0.145254	0.98900002	12.6824	2.1435001
259	4	2	-0.137881	2.2746999	12.7053	1.2998
260	4	2	0.13548	2.7117	11.3185	0.815
261	4	1	-0.49472499	1.9419	10.9226	-0.28490001
262	4	3	0.082231998	3.7809999	11.3701	0.50910002
263	4	3	0.082231998	2.6208999	10.5745	1.6386
264	4	4	0.090094	3.0885	13.1176	1.9357001
265	4	4	0.090094	2.1559999	13.3925	0.43360001
266	4	4	0.091122001	0.86309999	13.6869	2.6029
267	4	4	0.091122001	1.089	11.9479	2.9733
268	4	3	0.081914	-0.32069999	13.0205	0.42340001
269	4	3	0.081914	-0.227	11.3082	0.97689998
270	5	5	0.76797003	2.2778001	9.9748001	-0.54570001
271	5	6	-0.54950899	3.263	9.5112	0.0057000001
272	5	2	-0.159466	1.5627	9.1925001	-1.6094
273	5	2	-0.25221699	0.93739998	7.9099002	-1.0513999
274	5	5	0.52195799	-0.16410001	8.2153997	-0.077799998
275	5	6	-0.689183	-0.054900002	7.9026999	1.097
276	5	4	0.13276701	0.50709999	7.3242998	-1.8923
277	5	4	0.13276701	1.7194	7.2824001	-0.56900001
278	5	4	0.120798	0.77179998	9.8278999	-2.0653999
279	5	4	0.120798	2.2867999	8.9281998	-2.4087999
280	1	1	-0.17373	-1.5885	13.4943	2.1649001
281	1	2	0.033323999	-0.77100003	14.1064	1.2043999
282	1	2	-0.13951901	-1.3806	13.9357	-0.1918
283	1	2	-0.16656899	-0.45320001	14.4244	-1.3186001
284	1	2	0.086689003	-0.29660001	15.9496	-1.3615
285	1	7	-0.68276602	0.60049999	16.375	-0.37490001
286	1	8	0.38080099	0.64120001	17.3634	-0.44659999
287	1	3	0.072623998	0.1011	16.236601	-2.3604
288	1	3	0.072623998	-1.2852	16.4426	-1.2249
289	1	4	0.093584999	-0.89480001	14.0983	-2.2844
290	1	4	0.093584999	0.5442	13.9414	-1.2336
291	1	4	0.091293	-1.5809	12.8545	-0.3601
292	1	4	0.091293	-2.3552001	14.4676	-0.2431
293	1	3	0.081914	0.25400001	13.6734	1.2386
294	1	3	0.081914	-0.70109999	15.1856	1.4523
295	2	5	0.52195799	-1.058	8.7285004	-0.41580001
296	2	6	-0.689183	-2.1485	8.2006998	-0.26719999
297	2	2	-0.25029799	-0.94679999	10.0695	-1.0781
298	2	2	-0.16627499	-1.6166	11.1544	-0.2315
299	2	5	0.82897699	-1.482	12.4895	-0.89209998
300	2	6	-0.55547601	-0.48969999	13.2235	-0.63789999
301	2	7	-0.665694	-2.4315	12.9018	-1.8217
302	2	8	0.397012	-2.3462	13.7956	-2.2907
303	2	4	0.120938	-2.6968	10.9225	-0.1038
304	2	4	0.120938	-1.1477	11.1913	0.77630001
305	2	4	0.13276701	0.1301	10.3136	-1.211
306	2	4	0.13276701	-1.4218	10.0196	-2.082
307	4	1	-0.17373	-2.0335	13.0994	10.6523
308	4	2	0.033211999	-1.4492	11.9541	11.2105
309	4	2	-0.145254	-2.3687	10.7432	11.0131
310	4	2	-0.137881	-1.8792	9.4871998	11.7536
311	4	2	0.13548	-0.61589998	8.8713999	11.1423
312	4	1	-0.49472499	0.51609999	9.5976	11.5301
313	4	3	0.082231998	-0.51789999	7.8246999	11.5089
314	4	3	0.082231998	-0.69669998	8.8450003	10.0319
315	4	4	0.090094	-2.6896999	8.7273998	11.7018
316	4	4	0.090094	-1.7112	9.7139997	12.8292
317	4	4	0.091122001	-3.3782001	10.9986	11.4026
318	4	4	0.091122001	-2.4763999	10.529	9.9265003
319	4	3	0.081914	-1.2442	12.1156	12.2938
320	4	3	0.081914	-0.4826	11.7775	10.6961
321	5	5	0.76797003	1.3253	9.1386995	11.0679
322	5	6	-0.54950899	1.1609	8.0899	10.4658
323	5	2	-0.159466	2.6908	9.7568998	11.16
324	5	2	-0.25221699	3.2149	10.19	9.7869997
325	5	5	0.52195799	2.3915	11.3066	9.2129002
326	5	6	-0.689183	1.7445	11.1357	8.1920996
327	5	4	0.13276701	4.2607002	10.5495	9.8983002
328	5	4	0.13276701	3.2293	9.3210001	9.0923004
329	5	4	0.120798	2.6524999	10.6353	11.8412
330	5	4	0.120798	3.391	9.0167999	11.6016
331	1	1	-0.17373	-2.7256999	13.4073	11.2931
332	1	2	0.033323999	-2.5156	12.6981	12.4841
333	1	2	-0.13951901	-1.336	13.3016	13.2552
334	1	2	-0.16656899	-0.93010002	12.4695	14.4845
335	1	2	0.086689003	-1.9548	12.5254	15.6245
336	1	7	-0.68276602	-3.0353	11.6791	15.3499
337	1	8	0.38080099	-3.6624	11.7762	16.1122
338	1	3	0.072623998	-1.4597	12.1878	16.562099
339	1	3	0.072623998	-2.3089001	13.5701	15.7736
340	1	4	0.093584999	0.0298	12.8781	14.8665
341	1	4	0.093584999	-0.74409997	11.4138	14.1909
342	1	4	0.091293	-0.45820001	13.3538	12.5739
343	1	4	0.091293	-1.5817	14.341	13.5631
344	1	3	0.081914	-2.3292999	11.6228	12.2644
345	1	3	0.081914	-3.4389999	12.7735	13.0946
346	2	5	0.52195799	2.3598001	12.2682	9.7137003
347	2	6	-0.689183	2.7033999	13.2729	9.1117001
348	2	2	-0.25029799	1.914	12.3541	11.1431
349	2	2	-0.16627499	0.61390001	13.1527	11.263
350	2	5	0.82897699	0.1688	13.2145	12.6896
351	2	6	-0.55547601	-0.5995	12.3287	13.1512
352	2	7	-0.665694	0.6397	14.2272	13.5194
353	2	8	0.397012	0.36160001	14.2738	14.4923
354	2	4	0.120938	0.7694	14.1883	10.8886
355	2	4	0.120938	-0.18089999	12.6766	10.6479
356	2	4	0.13276701	1.7541	11.3234	11.5294
357	2	4	0.13276701	2.7153001	12.8343	11.7456
358	4	1	-0.17373	-2.1910999	13.1791	23.3179
359	4	2	0.033211999	-0.84829998	12.8546	23.5555
360	4	2	-0.145254	-0.27869999	13.7459	24.665501
361	4	2	-0.137881	1.237	13.5721	24.860201
362	4	2	0.13548	1.6224999	12.2238	25.478701
363	4	1	-0.49472499	1.5847	11.215	24.509199
364	4	3	0.082231998	2.6579001	12.3009	25.8811
365	4	3	0.082231998	0.93900001	11.9755	26.3221
366	4	4	0.090094	1.5834	14.3752	25.547001
367	4	4	0.090094	1.7693	13.7151	23.8943
368	4	4	0.091122001	-0.47009999	14.8081	24.399099
369	4	4	0.091122001	-0.81290001	13.5414	25.6199
370	4	3	0.081914	-0.25350001	12.9685	22.620199
371	4	3	0.081914	-0.80330002	11.7917	23.8692
372	5	5	0.76797003	1.8365	10.3345	24.999399
373	5	6	-0.54950899	2.2142	10.3766	26.159201
374	5	2	-0.159466	1.753	9.0222998	24.273899
375	5	2	-0.25221699	0.70609999	8.0922003	24.895399
376	5	5	0.52195799	-0.68159997	8.6419001	24.7323
377	5	6	-0.689183	-1.3357	8.9685001	25.709801
378	5	4	0.13276701	0.75279999	7.1061001	24.384899
379	5	4	0.13276701	0.93409997	7.9257998	25.9716
380	5	4	0.120798	1.5039001	9.2069998	23.2057
381	5	4	0.120798	2.7471001	8.5286999	24.3088
382	1	1	-0.17373	-2.1917	14.0097	22.775
383	1	2	0.033323999	-0.87540001	14.2024	22.3325
384	1	2	-0.13951901	-0.57370001	13.2683	21.1549
385	1	2	-0.16656899	0.90499997	13.2929	20.7292
386	1	2	0.086689003	1.3224	14.6026	20.0487
387	1	7	-0.68276602	1.5324	15.6029	21.004999
388	1	8	0.38080099	1.7803	16.419701	20.499901
389	1	3	0.072623998	2.2711	14.4267	19.4944
390	1	3	0.072623998	0.5456	14.9219	19.3181
391	1	4	0.093584999	1.0614001	12.4655	20.004499
392	1	4	0.093584999	1.5612	13.0921	21.6036
393	1	4	0.091293	-0.82440001	12.2274	21.4564
394	1	4	0.091293	-1.2229	13.5313	20.291901
395	1	3	0.081914	-0.15889999	14.0242	23.1658
396	1	3	0.081914	-0.77490002	15.2584	22.0072
397	2	5	0.52195799	-1.1027	8.7621002	23.74
398	2	6	-0.689183	-2.1466999	8.1970997	23.4559
399	2	2	-0.25029799	-0.39230001	9.6032	22.7216
400	2	2	-0.16627499	-1.2266001	10.8308	22.3486
401	2	5	0.82897699	-0.49970001	11.6717	21.347799
402	2	6	-0.55547601	0.26769999	12.5934	21.7349
403	2	7	-0.665694	-0.6372	11.4065	19.9891
404	2	8	0.397012	-0.1388	11.9555	19.298901
405	2	4	0.120938	-2.1982	10.5103	21.912399
406	2	4	0.120938	-1.4367	11.4361	23.2575
407	2	4	0.13276701	0.5819	9.9308996	23.146601
408	2	4	0.13276701	-0.19159999	8.9876003	21.8179
409	4	1	-0.17373	2.5704999	10.8599	35.146301
410	4	2	0.033211999	1.5315	11.772	34.915199
411	4	2	-0.145254	2.0829	13.046	34.2645
412	4	2	-0.137881	1.0336	14.1638	34.143002
413	4	2	0.13548	-0.052999999	13.8709	33.1026
414	4	1	-0.49472499	-0.99699998	12.978	33.623001
415	4	3	0.082231998	-0.56260002	14.8262	32.842899
416	4	3	0.082231998	0.40169999	13.4556	32.174801
417	4	4	0.090094	1.5628999	15.0915	33.833099
418	4	4	0.090094	0.56940001	14.3669	35.1329
419	4	4	0.091122001	2.9196	13.4282	34.888901
420	4	4	0.091122001	2.5007	12.8029	33.262299
421	4	3	0.081914	1.0132999	12.0152	35.871201
422	4	3	0.081914	0.79900002	11.2914	34.235001
423	5	5	0.76797003	-1.6862	12.8122	32.863701
424	5	6	-0.54950899	-1.6217999	13.4686	31.8368
425	5	2	-0.159466	-2.7651999	11.7831	33.042301
426	5	2	-0.25221699	-2.6300001	10.6343	32.037701
427	5	5	0.52195799	-1.3798	9.8387003	32.279499
428	5	6	-0.689183	-0.4912	9.8143997	31.443001
429	5	4	0.13276701	-3.5026	9.9549999	32.148701
430	5	4	0.13276701	-2.6424999	11.0321	30.998699
431	5	4	0.120798	-2.724	11.382	34.078899
432	5	4	0.120798	-3.7533	12.2717	32.907799
433	1	1	-0.17373	3.0502	11.1737	35.956299
434	1	2	0.033323999	2.2455001	12.16	36.5439
435	1	2	-0.13951901	1.0901	11.508	37.312099
436	1	2	-0.16656899	0.0625	12.5273	37.835098
437	1	2	0.086689003	0.59329998	13.3942	38.983799
438	1	7	-0.68276602	1.4179	14.41	38.4865
439	1	8	0.38080099	1.7377	14.9173	39.276501
440	1	3	0.072623998	-0.2728	13.8553	39.508598
441	1	3	0.072623998	1.1501	12.7662	39.715099
442	1	4	0.093584999	-0.81470001	11.9593	38.212002
443	1	4	0.093584999	-0.29640001	13.1734	37.005001
444	1	4	0.091293	0.55970001	10.8102	36.627201
445	1	4	0.091293	1.4928	10.9063	38.155399
446	1	3	0.081914	1.8548	12.8529	35.765099
447	1	3	0.081914	2.8771999	12.7444	37.244202
448	2	5	0.52195799	-1.2578	9.2915001	33.208099
449	2	6	-0.689183	-1.0718	8.0854998	33.176998
450	2	2	-0.25029799	-1.3374	10.0145	34.5196
451	2	2	-0.16627499	0.0057999999	9.9678001	35.251801
452	2	5	0.82897699	-0.080200002	10.7087	36.548199
453	2	6	-0.55547601	0.19589999	11.9374	36.5938
454	2	7	-0.665694	-0.50840002	10.0495	37.696201
455	2	8	0.397012	-0.58850002	10.5406	38.578602
456	2	4	0.120938	0.2886	8.9120998	35.457802
457	2	4	0.120938	0.79839998	10.4224	34.617901
458	2	4	0.13276701	-1.6191	11.0731	34.3269
459	2	4	0.13276701	-2.1303	9.5485001	35.1441
460	4	1	-0.17373	2.608	10.9264	46.441898
461	4	2	0.033211999	1.5237	11.8042	46.304798
462	4	2	-0.145254	1.9478	13.0467	45.513
463	4	2	-0.137881	0.86290002	14.1362	45.474201
464	4	2	0.13548	-0.34760001	13.7621	44.611801
465	4	1	-0.49472499	-1.1881	12.8851	45.307201
466	4	3	0.082231998	-0.91259998	14.6908	44.370998
467	4	3	0.082231998	-0.0132	13.3004	43.655201
468	4	4	0.090094	1.3206	15.0531	45.042
469	4	4	0.090094	0.53310001	14.3898	46.505501
470	4	4	0.091122001	2.8517001	13.4806	45.993401
471	4	4	0.091122001	2.2309	12.7517	44.478199
472	4	3	0.081914	1.1348	12.0948	47.3078
473	4	3	0.081914	0.71799999	11.2707	45.760502
474	5	5	0.76797003	-1.97	12.6618	44.660801
475	5	6	-0.54950899	-2.0636001	13.2567	43.5993
476	5	2	-0.159466	-2.9872999	11.626	45.044601
477	5	2	-0.25221699	-2.9607	10.4218	44.097698
478	5	5	0.52195799	-1.6689	9.6646004	44.209702
479	5	6	-0.689183	-0.90259999	9.6063995	43.261299
480	5	4	0.13276701	-3.7920001	9.7347002	44.366299
481	5	4	0.13276701	-3.1252999	10.7565	43.0495
482	5	4	0.120798	-2.7945001	11.2884	46.0867
483	5	4	0.120798	-3.9969001	12.0878	45.0201
484	1	1	-0.17373	3.1854	11.2966	47.158798
485	1	2	0.033323999	2.4432001	12.3016	47.7948
486	1	2	-0.13951901	1.4208	11.6761	48.750801
487	1	2	-0.16656899	0.44819999	12.7062	49.351799
488	1	2	0.086689003	1.1081001	13.6496	50.3652
489	1	7	-0.68276602	1.8303	14.6486	49.702099
490	1	8	0.38080099	2.2416999	15.2078	50.4105
491	1	3	0.072623998	0.31009999	14.1256	50.977402
492	1	3	0.072623998	1.7758	13.0766	51.047199
493	1	4	0.093584999	-0.35420001	12.146	49.877602
494	1	4	0.093584999	-0.037500001	13.2949	48.543701
495	1	4	0.091293	0.82020003	10.9291	48.186199
496	1	4	0.091293	1.9505	11.1332	49.563301
497	1	3	0.081914	1.9319	12.9396	47.0392
498	1	3	0.081914	3.1491001	12.9382	48.367001
499	2	5	0.52195799	-1.4071	9.1763	45.142101
500	2	6	-0.689183	-1.1957	7.9741001	45.154202
501	2	2	-0.25029799	-1.3255	9.9749002	46.408901
502	2	2	-0.16627499	0.1058	9.9961996	46.950298
503	2	5	0.82897699	0.17839999	10.8116	48.202099
504	2	6	-0.55547601	0.42609999	12.0456	48.1394
505	2	7	-0.665694	-0.071599998	10.2146	49.433701
506	2	8	0.397012	-0.043299999	10.756	50.289398
507	2	4	0.120938	0.44150001	8.96	47.174999
508	2	4	0.120938	0.79229999	10.4263	46.1884
509	2	4	0.13276701	-1.6584001	11.0148	46.197102
510	2	4	0.13276701	-2.0132999	9.5327997	47.162201
511	4	1	-0.17373	2.132	21.6278	0.42910001
512	4	2	0.033211999	0.866	22.1604	0.70880002
513	4	2	-0.145254	0.4939	21.895901	2.1724
514	4	2	-0.137881	-0.95359999	22.292801	2.5079
515	4	2	0.13548	-1.1837	23.8081	2.5215001
516	4	1	-0.49472499	-1.3046	24.293699	1.2143
517	4	3	0.082231998	-2.1264999	24.018999	3.075
518	4	3	0.082231998	-0.34810001	24.321501	3.0490999
519	4	4	0.090094	-1.1839	21.902599	3.5235
520	4	4	0.090094	-1.6611	21.805599	1.8017
521	4	4	0.091122001	0.60640001	20.8085	2.3748
522	4	4	0.091122001	1.2027	22.4331	2.8410001
523	4	3	0.081914	0.1035	21.718901	0.0266
524	4	3	0.081914	0.90609998	23.2535	0.52469999
525	5	5	0.76797003	-1.4387	25.3202	1.2994
526	5	6	-0.54950899	-1.5926	25.819	2.4026999
527	5	2	-0.159466	-1.4615999	26.1779	0.067000002
528	5	2	-0.25221699	-0.29460001	27.1703	0.040600002
529	5	5	0.52195799	1.0240999	26.4629	-0.081100002
530	5	6	-0.689183	1.8423001	26.520901	0.8229
531	5	4	0.13276701	-0.4129	27.8412	-0.83759999
532	5	4	0.13276701	-0.3123	27.804899	0.95429999
533	5	4	0.120798	-1.4222	25.5282	-0.83499998
534	5	4	0.120798	-2.4194	26.739201	0.037799999
535	1	1	-0.17373	2.0107	20.649599	0.3152
536	1	2	0.033323999	0.63050002	20.4237	0.2176
537	1	2	-0.13951901	0.1353	20.7883	-1.1867
538	1	2	-0.16656899	-1.3972	20.7374	-1.3178999
539	1	2	0.086689003	-1.9662	19.313601	-1.2761
540	1	7	-0.68276602	-2.0167	18.8479	0.0429
541	1	8	0.38080099	-2.3745	17.924	-0.0043000001
542	1	3	0.072623998	-2.9977	19.3323	-1.6931
543	1	3	0.072623998	-1.3484	18.632999	-1.904
544	1	4	0.093584999	-1.6671	21.185301	-2.2980001
545	1	4	0.093584999	-1.8724	21.360701	-0.5298
546	1	4	0.091293	0.463	21.825701	-1.4187
547	1	4	0.091293	0.60430002	20.1147	-1.9363
548	1	3	0.081914	0.087899998	21.0154	0.98879999
549	1	3	0.081914	0.44549999	19.347	0.4113
550	2	5	0.52195799	1.2483	25.8857	-0.97170001
551	2	6	-0.689183	2.2335	26.1623	-1.6371
552	2	2	-0.25029799	0.33930001	24.768101	-1.3885
553	2	2	-0.16627499	1.059	23.4198	-1.3094
554	2	5	0.82897699	0.1371	22.311501	-1.7079999
555	2	6	-0.55547601	-0.56569999	21.730101	-0.83840001
556	2	7	-0.665694	0.0232	21.952499	-3.0473001
557	2	8	0.397012	-0.60909998	21.2157	-3.3362999
558	2	4	0.120938	1.9388	23.4193	-1.9898
559	2	4	0.120938	1.4216	23.244499	-0.2728
560	2	4	0.13276701	-0.54530001	24.757401	-0.71429998
561	2	4	0.13276701	-0.0129	24.9538	-2.4263999
562	4	1	-0.17373	-1.4966	24.280001	9.6335001
563	4	2	0.033211999	-1.2755001	23.7111	10.8954
564	4	2	-0.145254	-2.5871	23.1525	11.4594
565	4	2	-0.137881	-2.4614	22.672001	12.915
566	4	2	0.13548	-1.6272	21.395201	13.0666
567	4	1	-0.49472499	-0.2617	21.6952	12.9992
568	4	3	0.082231998	-1.8498	20.9415	14.0588
569	4	3	0.082231998	-1.9008	20.6584	12.2778
570	4	4	0.090094	-3.4863999	22.4575	13.2894
571	4	4	0.090094	-2.0420001	23.480101	13.5535
572	4	4	0.091122001	-3.3554001	23.9555	11.4291
573	4	4	0.091122001	-2.9484999	22.3225	10.8124
574	4	3	0.081914	-0.84420002	24.469101	11.5889
575	4	3	0.081914	-0.53960001	22.8899	10.7764
576	5	5	0.76797003	0.2374	20.7887	13.0897
577	5	6	-0.54950899	-0.3924	19.777201	13.3536
578	5	2	-0.159466	1.7279	20.733	12.9153
579	5	2	-0.25221699	2.1293001	19.8843	11.7045
580	5	5	0.52195799	1.6756999	20.513599	10.419
581	5	6	-0.689183	0.84609997	19.957199	9.7174997
582	5	4	0.13276701	3.237	19.796801	11.6781
583	5	4	0.13276701	1.7122999	18.8575	11.8028
584	5	4	0.120798	2.1241	21.7656	12.7977
585	5	4	0.120798	2.1808	20.2994	13.8318
586	1	1	-0.17373	-1.9119	25.1675	9.7898998
587	1	2	0.033323999	-1.7697001	25.443199	11.1571
588	1	2	-0.13951901	-0.3389	25.9065	11.4546
589	1	2	-0.16656899	-0.054299999	26.056801	12.9596
590	1	2	0.086689003	-0.7798	27.2458	13.6019
591	1	7	-0.68276602	-2.1217999	26.9268	13.8397
592	1	8	0.38080099	-2.5321	27.738199	14.236
593	1	3	0.072623998	-0.2861	27.4799	14.5713
594	1	3	0.072623998	-0.70490003	28.142599	12.9468
595	1	4	0.093584999	1.0383	26.2155	13.0823
596	1	4	0.093584999	-0.3123	25.118299	13.4962
597	1	4	0.091293	0.3689	25.1509	11.0477
598	1	4	0.091293	-0.1392	26.866699	10.9315
599	1	3	0.081914	-2.0216999	24.542	11.7601
600	1	3	0.081914	-2.4856999	26.249001	11.4199
601	2	5	0.52195799	2.0769	21.474701	10.116
602	2	6	-0.689183	2.6494	21.5776	9.0429001
603	2	2	-0.25029799	1.943	22.6619	11.0226
604	2	2	-0.16627499	1.0566	23.736401	10.3886
605	2	5	0.82897699	0.91430002	24.9062	11.3098
606	2	6	-0.55547601	-0.0295	24.942699	12.1441
607	2	7	-0.665694	1.8512	25.934	11.2748
608	2	8	0.397012	1.7790999	26.7251	11.9034
609	2	4	0.120938	1.5065	24.083099	9.4323997
610	2	4	0.120938	0.0513	23.315599	10.1671
611	2	4	0.13276701	1.493	22.327999	11.9834
612	2	4	0.13276701	2.9535999	23.0744	11.2331