Title

88 atoms
93 bonds
166 angles
289 dihedrals
78 impropers

9 atom types
13 bond types
6 angle types
13 dihedral types
2 improper types
-3.970000029 96.02999997 xlo xhi
-4.987999916 95.01200008 ylo yhi
-6.973999977 93.02600002 zlo zhi
0.0 0.0 0.0 xy xz yz

Masses

1	15.99943
2	12.01078
3	1.007947
4	12.01078
5	1.007947
6	15.99943
7	15.99943
8	1.007947
9	35.4532


Pair Coeffs

1	0.16846514	3.0251065
2	0.086879315	3.4806469
3	0.015611343	2.5725815
4	0.10884061	3.3795318
5	0.015779483	2.6445434
6	0.2102061	3.0398122
7	0.20947353	2.99716
8	1.2326e-05	0.53453923
9	0.2656001	3.3075278

Bond Coeffs

1 harmonic	425.69104206635	1.362945806494
2 harmonic	300.03137914615	1.451203938761
3 harmonic	360.7852444772	1.387193227181
4 harmonic	397.2545789619	1.085358495916
5 harmonic	289.73813263395	1.498646816465
6 harmonic	264.62148576755	1.52190126495
7 harmonic	301.15400723785	1.345741232799
8 harmonic	370.04670688625	1.093899492634
9 harmonic	582.698766451	1.225198386222
10 harmonic	279.1350963404	1.454628925034
11 harmonic	385.7604595587	1.369745182308
12 harmonic	543.5267831885	0.9716763312559
13 harmonic	218.0227703685	1.746066037062


Angle Coeffs

1 harmonic	57.8982893754	126.8062420451
2 harmonic	65.09061609600001	110.3538806181
3 harmonic	34.066775159195	129.1835929926
4 harmonic	53.20531626545	116.5475862634
5 harmonic	201.41175231035	127.4691416191
6 harmonic	48.776492647595	115.6030999533


Dihedral Coeffs

1 fourier 1	3.661930099076	2	180
2 fourier 1	1.532232714475	2	180
3 fourier 1	0.457973137376	1	0
4 fourier 1	0.02664938770063	3	0
5 fourier 1	0.1155372516788	3	0
6 fourier 1	0.1040663847541	3	0
7 fourier 1	0.09223874044423	3	0
8 fourier 1	0.3159935921949	2	180
9 fourier 1	0.3247796806857	1	180
10 fourier 1	2.779853741805	2	180
11 fourier 1	0.9974165607242	2	180
12 fourier 1	0.1911926717192	3	0
13 fourier 1	0.8283030590042	2	180


Improper Coeffs

1 0.3666666666666667	-1	2
2 3.5	-1	2


Atoms

1	1	1	-0.027495001	1.107	5.5170002	-1.563
2	1	2	0.274037	0.73799998	4.2399998	-1.145
3	1	2	-0.32396001	-0.011	4.0630002	-0.048999999
4	1	3	0.223369	-0.34400001	4.9159999	0.52899998
5	1	2	-0.159788	-0.39399999	2.704	0.384
6	1	3	0.208307	-1.0190001	2.6359999	1.26
7	1	2	-0.25086999	0.026000001	1.61	-0.29699999
8	1	4	-0.031257	-0.37200001	0.163	0.082000002
9	1	2	-0.25086999	0.91500002	-0.69499999	-0.022
10	1	2	-0.160373	1.9349999	-0.47600001	0.84299999
11	1	3	0.208307	1.865	0.285	1.607
12	1	2	-0.274717	3.187	-1.253	0.76499999
13	1	3	0.22372299	3.973	-1.072	1.487
14	1	2	0.43748799	3.352	-2.171	-0.192
15	1	1	-0.44254801	4.5359998	-2.901	-0.255
16	1	2	-0.274717	2.2780001	-2.398	-1.178
17	1	3	0.22372299	2.4189999	-3.1210001	-1.971
18	1	2	-0.160373	1.137	-1.701	-1.108
19	1	3	0.208307	0.398	-1.883	-1.873
20	1	4	-0.133017	-0.95300001	0.078000002	1.5420001
21	1	5	0.110593	-1.915	0.63099998	1.61
22	1	5	0.110593	-0.264	0.59100002	2.247
23	1	4	-0.150313	-1.173	-1.355	2.0739999
24	1	5	0.107468	-1.008	-1.352	3.1730001
25	1	5	0.107468	-0.42699999	-2.066	1.664
26	1	4	-0.150304	-2.5880001	-1.904	1.824
27	1	5	0.105427	-2.5599999	-3.007	1.965
28	1	5	0.105427	-3.2750001	-1.499	2.599
29	1	4	-0.150304	-3.1860001	-1.5930001	0.442
30	1	5	0.105427	-3.711	-0.61299998	0.47099999
31	1	5	0.105427	-3.97	-2.3540001	0.234
32	1	4	-0.150313	-2.161	-1.6210001	-0.70200002
33	1	5	0.107468	-2.7060001	-1.88	-1.636
34	1	5	0.107468	-1.421	-2.4300001	-0.53799999
35	1	4	-0.133017	-1.488	-0.248	-0.93300003
36	1	5	0.110593	-1.0829999	-0.22499999	-1.967
37	1	5	0.110593	-2.2820001	0.53200001	-0.93400002
38	1	2	-0.159788	0.838	1.834	-1.533
39	1	3	0.208307	1.159	0.99400002	-2.135
40	1	2	-0.32396001	1.175	3.0680001	-1.924
41	1	3	0.223369	1.766	3.2090001	-2.8199999
42	1	2	0.62717801	4.6880002	-3.625	-0.99900001
43	1	6	-0.50375098	5.7649999	-4.1890001	-1.089
44	1	1	-0.027495001	0.82499999	6.3470001	-1.054
45	1	2	0.274037	0.98500001	7.625	-1.5880001
46	1	2	-0.32396001	1.5190001	7.8010001	-2.8039999
47	1	3	0.223369	1.8329999	6.948	-3.392
48	1	2	-0.159788	1.683	9.1610003	-3.358
49	1	3	0.208307	2.0969999	9.2290001	-4.3520002
50	1	2	-0.25086999	1.3279999	10.255	-2.641
51	1	4	-0.031257	1.439	11.701	-3.1789999
52	1	2	-0.25086999	2.0320001	12.559	-2.0320001
53	1	2	-0.11622	3.3039999	12.34	-1.624
54	1	3	0.208307	3.9159999	11.58	-2.0869999
55	1	2	-0.41404501	3.9000001	13.118	-0.51899999
56	1	3	0.228444	4.9289999	12.936	-0.234
57	1	2	0.423439	3.175	14.036	0.126
58	1	7	-0.650913	3.747	14.766	1.165
59	1	8	0.433191	3.2149999	15.465	1.669
60	1	2	-0.41404501	1.77	14.262	-0.264
61	1	3	0.228444	1.1720001	14.986	0.27500001
62	1	2	-0.11622	1.226	13.566	-1.27
63	1	3	0.208307	0.186	13.748	-1.492
64	1	4	-0.133017	2.372	11.786	-4.4439998
65	1	5	0.110593	1.921	11.233	-5.2969999
66	1	5	0.110593	3.3340001	11.273	-4.2319999
67	1	4	-0.150313	2.7060001	13.22	-4.9130001
68	1	5	0.107468	3.727	13.216	-5.3530002
69	1	5	0.107468	2.7520001	13.93	-4.0619998
70	1	4	-0.150304	1.7460001	13.768	-5.9819999
71	1	5	0.105427	1.88	14.871	-6.0320001
72	1	5	0.105427	2.0409999	13.363	-6.974
73	1	4	-0.150304	0.257	13.457	-5.7579999
74	1	5	0.105427	0.0040000002	12.478	-6.2199998
75	1	5	0.105427	-0.33500001	14.218	-6.3140001
76	1	4	-0.150313	-0.17200001	13.485	-4.283
77	1	5	0.107468	-1.253	13.745	-4.2529998
78	1	5	0.107468	0.35800001	14.294	-3.7420001
79	1	4	-0.133017	-0.012	12.113	-3.5910001
80	1	5	0.110593	-0.676	12.089	-2.7
81	1	5	0.110593	-0.433	11.332	-4.2639999
82	1	2	-0.159788	0.70700002	10.03	-1.299
83	1	3	0.208307	0.366	10.87	-0.708
84	1	2	-0.32396001	0.55500001	8.7959995	-0.80599999
85	1	3	0.223369	0.106	8.6560001	0.169
86	1	2	0.466616	3.8870001	-3.872	-1.687
87	1	6	-0.58196598	2.783	-3.3740001	-1.5420001
88	1	9	-0.087751999	4.1789999	-4.9879999	-3.0079999

Bonds

1	1	1	2
2	2	1	44
3	3	2	3
4	3	2	40
5	4	3	4
6	3	3	5
7	4	5	6
8	3	5	7
9	5	7	8
10	3	7	38
11	5	8	9
12	6	8	20
13	6	8	35
14	3	9	10
15	3	9	18
16	4	10	11
17	3	10	12
18	4	12	13
19	3	12	14
20	1	14	15
21	3	14	16
22	7	15	42
23	4	16	17
24	3	16	18
25	4	18	19
26	8	20	21
27	8	20	22
28	6	20	23
29	8	23	24
30	8	23	25
31	6	23	26
32	8	26	27
33	8	26	28
34	6	26	29
35	8	29	30
36	8	29	31
37	6	29	32
38	8	32	33
39	8	32	34
40	6	32	35
41	8	35	36
42	8	35	37
43	4	38	39
44	3	38	40
45	4	40	41
46	9	42	43
47	10	42	86
48	1	44	45
49	3	45	46
50	3	45	84
51	4	46	47
52	3	46	48
53	4	48	49
54	3	48	50
55	5	50	51
56	3	50	82
57	5	51	52
58	6	51	64
59	6	51	79
60	3	52	53
61	3	52	62
62	4	53	54
63	3	53	55
64	4	55	56
65	3	55	57
66	11	57	58
67	3	57	60
68	12	58	59
69	4	60	61
70	3	60	62
71	4	62	63
72	8	64	65
73	8	64	66
74	6	64	67
75	8	67	68
76	8	67	69
77	6	67	70
78	8	70	71
79	8	70	72
80	6	70	73
81	8	73	74
82	8	73	75
83	6	73	76
84	8	76	77
85	8	76	78
86	6	76	79
87	8	79	80
88	8	79	81
89	4	82	83
90	3	82	84
91	4	84	85
92	9	86	87
93	13	86	88

Angles

1	4	50	51	52
2	3	11	10	12
3	1	42	86	87
4	4	73	76	79
5	4	74	73	76
6	4	70	73	75
7	1	44	45	84
8	3	61	60	62
9	4	20	23	26
10	4	23	26	29
11	4	32	35	37
12	4	7	8	9
13	3	45	84	85
14	4	8	20	23
15	3	54	53	55
16	4	69	67	70
17	6	24	23	25
18	6	27	26	28
19	4	67	70	72
20	4	76	79	80
21	4	28	26	29
22	4	29	32	34
23	1	12	14	16
24	3	45	46	47
25	4	9	8	20
26	6	68	67	69
27	1	44	45	46
28	1	1	2	3
29	1	46	45	84
30	1	9	18	16
31	4	20	8	35
32	4	24	23	26
33	4	27	26	29
34	3	53	55	56
35	4	67	70	73
36	4	29	32	35
37	4	66	64	67
38	1	45	84	82
39	6	30	29	31
40	6	33	32	34
41	3	3	5	6
42	1	55	57	58
43	1	48	50	82
44	4	7	8	35
45	3	10	12	13
46	4	51	79	76
47	4	52	51	79
48	3	16	18	19
49	1	8	7	38
50	3	50	82	83
51	4	31	29	32
52	4	20	23	24
53	4	51	64	65
54	4	7	8	20
55	6	71	70	72
56	3	56	55	57
57	4	72	70	73
58	3	82	84	85
59	3	2	40	41
60	2	57	58	59
61	1	43	42	86
62	1	42	86	88
63	3	39	38	40
64	4	8	35	36
65	4	26	29	30
66	1	50	82	84
67	4	70	73	76
68	1	58	57	60
69	1	5	7	8
70	1	8	9	10
71	4	51	64	66
72	1	15	14	16
73	4	78	76	79
74	6	36	35	37
75	4	76	79	81
76	4	8	35	32
77	4	51	79	80
78	1	45	46	48
79	3	52	62	63
80	4	68	67	70
81	3	46	48	49
82	6	65	64	66
83	4	64	67	68
84	1	15	42	86
85	1	1	2	40
86	1	8	9	18
87	3	60	62	63
88	1	51	52	53
89	3	38	40	41
90	3	57	60	61
91	1	53	55	57
92	3	7	38	39
93	4	25	23	26
94	4	73	76	77
95	4	64	51	79
96	1	48	50	51
97	5	15	42	43
98	1	5	7	38
99	4	23	26	27
100	4	51	79	81
101	3	83	82	84
102	4	8	20	21
103	3	14	16	17
104	4	30	29	32
105	3	4	3	5
106	4	33	32	35
107	4	52	51	64
108	1	3	5	7
109	3	2	3	4
110	4	75	73	76
111	1	10	12	14
112	2	14	15	42
113	4	73	76	78
114	1	3	2	40
115	3	49	48	50
116	1	87	86	88
117	2	1	44	45
118	4	20	23	25
119	4	23	26	28
120	3	52	53	54
121	1	14	16	18
122	1	53	52	62
123	4	71	70	73
124	4	67	70	71
125	1	55	57	60
126	1	2	3	5
127	4	29	32	33
128	1	12	14	15
129	3	9	18	19
130	4	50	51	79
131	3	13	12	14
132	6	77	76	78
133	4	8	35	37
134	4	26	29	31
135	6	80	79	81
136	3	17	16	18
137	1	51	50	82
138	4	9	8	35
139	1	51	52	62
140	1	52	53	55
141	1	2	40	38
142	4	51	64	67
143	4	50	51	64
144	6	21	20	22
145	4	77	76	79
146	3	9	10	11
147	4	26	29	32
148	1	46	48	50
149	4	65	64	67
150	4	64	67	69
151	1	57	60	62
152	3	6	5	7
153	1	7	38	40
154	3	47	46	48
155	4	34	32	35
156	1	52	62	60
157	6	74	73	75
158	4	70	73	74
159	4	22	20	23
160	1	10	9	18
161	2	2	1	44
162	4	32	35	36
163	4	8	20	22
164	4	21	20	23
165	1	9	10	12
166	4	64	67	70

Dihedrals

1	5	52	51	79	81
2	1	12	10	9	18
3	1	52	62	60	61
4	1	6	5	7	8
5	1	57	60	62	63
6	5	50	51	79	81
7	6	51	64	67	69
8	6	66	64	51	79
9	1	46	48	50	82
10	1	5	7	38	39
11	1	10	9	18	16
12	4	5	7	8	35
13	5	52	51	64	65
14	6	24	23	26	29
15	6	23	26	29	31
16	12	78	76	79	81
17	1	52	62	60	57
18	12	27	26	29	30
19	13	55	57	58	59
20	2	1	44	45	84
21	1	48	50	82	84
22	4	64	51	50	82
23	12	74	73	76	77
24	5	7	8	20	23
25	1	3	5	7	38
26	6	26	29	32	33
27	1	51	50	82	84
28	12	65	64	67	69
29	1	10	12	14	16
30	1	12	14	16	17
31	7	51	64	67	70
31	8	51	64	67	70
31	9	51	64	67	70
32	1	61	60	62	63
33	1	83	82	84	85
34	1	1	2	3	4
35	11	43	42	86	88
36	1	2	40	38	39
37	1	1	2	40	41
38	4	48	50	51	79
39	12	27	26	29	31
40	1	49	48	50	51
41	7	51	79	76	73
41	8	51	79	76	73
41	9	51	79	76	73
42	6	66	64	67	70
43	6	29	32	35	37
44	1	44	45	46	48
45	7	8	35	32	29
45	8	8	35	32	29
45	9	8	35	32	29
46	4	79	51	50	82
47	12	68	67	70	72
48	6	65	64	67	70
49	1	47	46	48	50
50	7	70	73	76	79
50	8	70	73	76	79
50	9	70	73	76	79
51	12	30	29	32	33
52	1	12	14	16	18
53	5	50	51	64	66
54	6	64	51	79	80
55	5	7	8	35	32
56	1	45	84	82	50
57	12	21	20	23	24
58	1	46	45	84	85
59	1	55	57	60	61
60	1	8	7	38	39
61	11	15	42	86	88
62	4	50	51	52	62
63	1	52	53	55	56
64	10	14	15	42	86
65	4	18	9	8	35
66	12	75	73	76	77
67	4	53	52	51	79
68	1	56	55	57	58
69	12	22	20	23	24
70	1	9	18	16	17
71	7	64	51	79	76
71	8	64	51	79	76
71	9	64	51	79	76
72	5	9	8	20	23
73	4	7	8	9	18
74	2	16	14	15	42
75	12	69	67	70	72
76	6	72	70	73	76
77	6	8	20	23	25
78	12	31	29	32	33
79	6	68	67	70	73
80	7	67	70	73	76
80	8	67	70	73	76
80	9	67	70	73	76
81	1	51	52	62	63
82	2	14	15	42	43
83	2	3	2	1	44
84	5	50	51	64	67
85	1	1	2	40	38
86	12	21	20	23	25
87	4	18	9	8	20
88	1	55	57	60	62
89	1	46	48	50	51
90	1	14	16	18	19
91	1	45	46	48	49
92	1	5	3	2	40
93	5	7	8	20	21
94	1	15	14	16	18
95	1	4	3	2	40
96	4	20	8	7	38
97	1	52	53	55	57
98	12	75	73	76	78
99	12	25	23	26	27
100	6	51	79	76	77
101	4	5	7	8	20
102	1	54	53	55	56
103	1	46	45	84	82
104	6	64	67	70	71
105	6	8	35	32	33
106	12	28	26	29	30
107	12	34	32	35	36
108	7	8	20	23	26
108	8	8	20	23	26
108	9	8	20	23	26
109	1	5	7	38	40
110	5	9	8	35	36
111	5	52	51	64	66
112	6	69	67	70	73
113	4	48	50	51	52
114	7	23	26	29	32
114	8	23	26	29	32
114	9	23	26	29	32
115	2	1	44	45	46
116	5	7	8	35	36
117	1	6	5	7	38
118	1	9	18	16	14
119	12	74	73	76	78
120	1	4	3	5	6
121	12	71	70	73	74
122	1	45	46	48	50
123	6	26	29	32	34
124	4	62	52	51	79
125	5	9	8	35	32
126	6	20	8	35	36
127	4	7	8	9	10
128	6	20	23	26	27
129	6	70	73	76	77
130	6	51	79	76	78
131	4	52	51	50	82
132	1	8	9	18	19
133	6	64	67	70	72
134	6	8	35	32	34
135	4	48	50	51	64
136	13	59	58	57	60
137	1	51	52	53	54
138	5	9	8	35	37
139	5	52	51	64	67
140	1	1	2	3	5
141	4	9	8	7	38
142	7	20	8	35	32
142	8	20	8	35	32
142	9	20	8	35	32
143	1	2	40	38	7
144	5	7	8	35	37
145	6	27	26	29	32
146	1	4	3	5	7
147	12	71	70	73	75
148	5	9	8	20	21
149	12	72	70	73	74
150	7	26	29	32	35
150	8	26	29	32	35
150	9	26	29	32	35
151	6	20	23	26	28
152	12	30	29	32	34
153	12	24	23	26	27
154	6	64	51	79	81
155	1	53	55	57	60
156	1	8	7	38	40
157	4	53	52	51	64
158	1	10	9	18	19
159	1	8	9	10	11
160	1	13	12	14	15
161	1	54	53	52	62
162	5	52	51	79	80
163	12	22	20	23	25
164	1	45	84	82	83
165	4	10	9	8	35
166	5	50	51	79	80
167	6	51	64	67	68
168	12	31	29	32	34
169	1	3	5	7	8
170	6	30	29	32	35
171	3	2	1	44	45
172	6	23	26	29	30
173	12	33	32	35	36
174	5	52	51	79	76
175	1	48	46	45	84
176	6	21	20	23	26
177	12	66	64	67	68
178	1	17	16	18	19
179	1	48	50	82	83
180	1	55	53	52	62
181	5	50	51	79	76
182	1	8	9	10	12
183	5	7	8	20	22
184	12	65	64	67	68
185	4	10	9	8	20
186	1	11	10	12	13
187	1	51	50	82	83
188	1	10	12	14	15
189	1	3	2	40	41
190	1	51	52	62	60
191	1	44	45	84	85
192	12	25	23	26	28
193	6	22	20	23	26
194	1	56	55	57	60
195	6	75	73	76	79
196	1	54	53	55	57
197	7	67	64	51	79
197	8	67	64	51	79
197	9	67	64	51	79
198	1	53	52	62	63
199	1	58	57	60	61
200	4	35	8	7	38
201	12	28	26	29	31
202	12	34	32	35	37
203	6	31	29	32	35
204	1	47	46	45	84
205	6	65	64	51	79
206	1	7	38	40	41
207	11	43	42	86	87
208	12	33	32	35	37
209	1	2	3	5	6
210	4	62	52	51	64
211	12	66	64	67	69
212	6	74	73	76	79
213	6	29	32	35	36
214	1	44	45	46	47
215	6	21	20	8	35
216	4	5	7	8	9
217	12	68	67	70	71
218	6	20	8	35	37
219	1	11	10	12	14
220	1	47	46	48	49
221	6	67	70	73	74
222	6	70	73	76	78
223	1	50	82	84	85
224	7	23	20	8	35
224	8	23	20	8	35
224	9	23	20	8	35
225	6	73	76	79	80
226	6	25	23	26	29
227	5	50	51	64	65
228	12	77	76	79	80
229	1	58	57	60	62
230	1	9	10	12	13
231	1	49	48	50	82
232	1	53	55	57	58
233	7	64	67	70	73
233	8	64	67	70	73
233	9	64	67	70	73
234	6	22	20	8	35
235	11	15	42	86	87
236	6	28	26	29	32
237	1	51	52	53	55
238	1	3	2	40	38
239	1	2	3	5	7
240	1	11	10	9	18
241	1	44	45	84	82
242	6	71	70	73	76
243	5	9	8	20	22
244	1	53	52	62	60
245	1	8	9	18	16
246	12	69	67	70	71
247	12	72	70	73	75
248	6	8	20	23	24
249	2	12	14	15	42
250	7	20	23	26	29
250	8	20	23	26	29
250	9	20	23	26	29
251	6	67	70	73	75
252	4	50	51	52	53
253	6	73	76	79	81
254	12	24	23	26	28
255	12	78	76	79	80
256	12	77	76	79	81
257	1	9	10	12	14
258	2	40	2	1	44
259	1	13	12	14	16
260	1	39	38	40	41
261	1	15	14	16	17

Impropers

8	1	12	14	10	13
10	1	3	4	5	2
15	1	50	51	82	48
18	1	84	45	82	85
19	1	2	1	3	40
22	1	45	44	46	84
31	1	38	40	7	39
38	1	55	53	56	57
50	2	42	86	15	43
67	1	57	60	55	58
69	1	45	84	44	46
76	1	7	38	5	8
81	1	46	48	45	47
91	1	48	49	50	46
95	1	16	14	17	18
97	1	18	9	16	19
98	1	60	62	57	61
104	1	18	16	19	9
126	1	2	3	40	1
130	1	9	10	18	8
133	1	48	50	46	49
144	1	12	10	13	14
150	1	38	7	39	40
152	1	10	12	9	11
158	1	10	9	11	12
165	1	14	12	15	16
173	1	53	54	55	52
178	1	62	52	60	63
180	1	45	46	84	44
190	1	5	6	7	3
193	1	53	55	52	54
207	1	53	52	54	55
208	2	42	15	43	86
211	1	52	53	62	51
231	1	86	88	42	87
255	1	82	50	83	84
258	1	55	56	57	53
268	1	52	62	51	53
279	1	62	63	52	60
298	1	57	58	60	55
299	1	3	5	2	4
301	1	12	13	14	10
304	1	52	51	53	62
310	1	86	42	87	88
316	1	40	38	41	2
336	1	40	2	38	41
339	1	2	40	1	3
343	1	14	15	16	12
353	1	84	82	85	45
361	1	9	18	8	10
362	1	48	46	49	50
364	1	16	18	14	17
365	1	82	84	50	83
367	1	7	5	8	38
372	1	62	60	63	52
378	1	55	57	53	56
384	1	50	48	51	82
386	1	3	2	4	5
388	1	50	82	48	51
391	1	14	16	12	15
395	1	5	3	6	7
397	1	9	8	10	18
399	1	40	41	2	38
400	1	57	55	58	60
405	1	60	57	61	62
408	1	18	19	9	16
410	1	82	83	84	50
431	1	84	85	45	82
440	1	5	7	3	6
443	1	46	45	47	48
451	1	86	87	88	42
453	2	42	43	86	15
456	1	38	39	40	7
459	1	16	17	18	14
464	1	60	61	62	57
466	1	46	47	48	45
488	1	10	11	12	9
489	1	7	8	38	5
