Title

47 atoms
48 bonds
77 angles
117 dihedrals
48 impropers

8 atom types
12 bond types
6 angle types
20 dihedral types
2 improper types
-5.767000198 94.2329998 xlo xhi
-1.483999968 98.51600003 ylo yhi
-7.690999985 92.30900002 zlo zhi
0.0 0.0 0.0 xy xz yz

Masses

1	15.99943
2	12.01078
3	1.007947
4	12.01078
5	15.99943
6	1.007947
7	15.99943
8	1.007947


Pair Coeffs

1	0.16846514	3.0251065
2	0.10884061	3.3795318
3	0.016409246	2.5832257
4	0.086879315	3.4806469
5	0.2102061	3.0398122
6	0.015611343	2.5725815
7	0.20947353	2.99716
8	1.2326e-05	0.53453923

Bond Coeffs

1 harmonic	366.7408841747	1.425895053732
2 harmonic	300.03137914615	1.451203938761
3 harmonic	264.62148576755	1.52190126495
4 harmonic	370.04670688625	1.093899492634
5 harmonic	301.15400723785	1.345741232799
6 harmonic	582.698766451	1.225198386222
7 harmonic	279.1350963404	1.454628925034
8 harmonic	360.7852444772	1.387193227181
9 harmonic	397.2545789619	1.085358495916
10 harmonic	329.96998057905	1.427343958716
11 harmonic	543.5267831885	0.9716763312559
12 harmonic	385.7604595587	1.369745182308


Angle Coeffs

1 harmonic	53.20531626545	116.5475862634
2 harmonic	65.09061609600001	110.3538806181
3 harmonic	201.41175231035	127.4691416191
4 harmonic	57.8982893754	126.8062420451
5 harmonic	48.776492647595	115.6030999533
6 harmonic	34.066775159195	129.1835929926


Dihedral Coeffs

1 fourier 1	-0.0309670556842	3	0
2 fourier 1	0.4598191477945	2	0
3 fourier 1	0.1115525666802	3	0
4 fourier 1	0.3432490222662	1	0
5 fourier 1	0.0473758381877	3	0
6 fourier 1	0.457973137376	1	0
7 fourier 1	0.1918272375143	3	0
8 fourier 1	0.9202179876409	1	180
9 fourier 1	1.163809172478	2	180
10 fourier 1	0.1679186987369	1	180
11 fourier 1	2.779853741805	2	180
12 fourier 1	0.9974165607242	2	180
13 fourier 1	0.1911926717192	3	0
14 fourier 1	3.661930099076	2	180
15 fourier 1	0.3445382149273	3	0
16 fourier 1	0.1364556373303	1	0
17 fourier 1	0.3026390167484	3	0
18 fourier 1	2.687457892086	2	180
19 fourier 1	2.772607909663	2	180
20 fourier 1	0.09692684957115	1	0


Improper Coeffs

1 3.5	-1	2
2 0.3666666666666667	-1	2


Atoms

1	1	1	-0.12676001	1.576	-0.336	0.85699999
2	1	2	0.054416001	0.63599998	-0.419	-0.17900001
3	1	2	0.15935101	-0.71899998	0.11	0.28999999
4	1	1	-0.49888399	-1.675	-0.035999998	-0.72399998
5	1	3	0.095817998	-1.051	-0.46900001	1.177
6	1	3	0.095817998	-0.63099998	1.1799999	0.58899999
7	1	3	0.10352	0.52999997	-1.484	-0.477
8	1	3	0.10352	0.98699999	0.154	-1.068
9	1	4	0.77536398	-1.49	0.71499997	-1.4170001
10	1	5	-0.54031903	-2.046	1.8329999	-1.258
11	1	4	-0.13941	-0.52200001	0.48500001	-2.51
12	1	4	-0.084389001	0.449	-0.42500001	-2.3080001
13	1	6	0.217518	0.479	-1.012	-1.397
14	1	4	-0.25358099	1.546	-0.58600003	-3.2809999
15	1	6	0.20900699	2.3299999	-1.309	-3.0929999
16	1	4	-0.247455	1.59	0.18099999	-4.3720002
17	1	6	0.20900699	2.404	0.074000001	-5.0780001
18	1	4	-0.047274001	0.51200002	1.151	-4.638
19	1	6	0.20511299	0.53799999	1.707	-5.5679998
20	1	4	-0.27887499	-0.52200001	1.2819999	-3.786
21	1	4	0.576015	-1.652	2.142	-4.1989999
22	1	5	-0.57487899	-2.8239999	1.921	-3.796
23	1	1	-0.121162	1.845	0.61799997	0.92000002
24	1	2	0.026420999	3.148	0.70099998	0.41100001
25	1	2	0.098453	4.1529999	0.17200001	1.434
26	1	7	-0.67392099	5.461	0.31799999	0.95200002
27	1	8	0.40197399	5.5970001	-0.40000001	0.27900001
28	1	3	0.102048	4.0549998	0.75199997	2.3759999
29	1	3	0.102048	3.941	-0.89700001	1.663
30	1	3	0.104226	3.3759999	1.766	0.192
31	1	3	0.104226	3.23	0.12800001	-0.54100001
32	1	4	0.576015	-1.489	2.938	-4.9099998
33	1	5	-0.57487899	-0.36000001	3.0239999	-5.4619999
34	1	4	-0.28053999	-2.5780001	3.8859999	-5.2420001
35	1	4	-0.047274001	-2.4860001	4.6389999	-6.3569999
36	1	6	0.20511299	-1.6059999	4.599	-6.9879999
37	1	4	-0.247455	-3.6099999	5.4899998	-6.7880001
38	1	6	0.20900699	-3.5220001	6.0799999	-7.691
39	1	4	-0.25358099	-4.7410002	5.5139999	-6.0799999
40	1	6	0.20900699	-5.5700002	6.131	-6.4029999
41	1	4	-0.086880997	-4.855	4.7210002	-4.8429999
42	1	6	0.217518	-5.7670002	4.8060002	-4.2639999
43	1	4	-0.115568	-3.8280001	3.9619999	-4.4109998
44	1	4	0.80887902	-3.9449999	3.279	-3.102
45	1	5	-0.51554799	-5.0679998	2.8710001	-2.698
46	1	7	-0.67083901	-2.8299999	3.1240001	-2.2850001
47	1	8	0.410074	-2.905	2.671	-1.382

Bonds

1	1	1	2
2	2	1	23
3	3	2	3
4	4	2	7
5	4	2	8
6	1	3	4
7	4	3	5
8	4	3	6
9	5	4	9
10	6	9	10
11	7	9	11
12	8	11	12
13	8	11	20
14	9	12	13
15	8	12	14
16	9	14	15
17	8	14	16
18	9	16	17
19	8	16	18
20	9	18	19
21	8	18	20
22	7	20	21
23	6	21	22
24	7	21	32
25	1	23	24
26	3	24	25
27	4	24	30
28	4	24	31
29	10	25	26
30	4	25	28
31	4	25	29
32	11	26	27
33	6	32	33
34	7	32	34
35	8	34	35
36	8	34	43
37	9	35	36
38	8	35	37
39	9	37	38
40	8	37	39
41	9	39	40
42	8	39	41
43	9	41	42
44	8	41	43
45	7	43	44
46	6	44	45
47	12	44	46
48	11	46	47

Angles

1	4	32	34	43
2	6	16	18	19
3	1	2	3	6
4	4	18	20	21
5	1	4	3	5
6	4	32	34	35
7	6	17	16	18
8	4	12	11	20
9	1	2	3	4
10	1	23	24	25
11	4	22	21	32
12	3	45	44	46
13	6	15	14	16
14	4	21	32	33
15	1	24	25	29
16	6	34	35	36
17	6	12	14	15
18	5	30	24	31
19	6	14	16	17
20	1	1	2	3
21	4	34	35	37
22	5	28	25	29
23	4	12	14	16
24	4	34	43	41
25	6	42	41	43
26	4	16	18	20
27	2	2	1	23
28	6	37	39	40
29	1	24	25	26
30	4	43	44	45
31	4	14	16	18
32	4	10	9	11
33	1	23	24	30
34	1	1	2	7
35	4	11	20	21
36	1	25	24	30
37	4	35	34	43
38	6	13	12	14
39	6	39	41	42
40	4	37	39	41
41	1	2	3	5
42	6	11	12	13
43	4	20	21	32
44	1	23	24	31
45	4	41	43	44
46	1	25	24	31
47	4	21	32	34
48	6	40	39	41
49	6	35	37	38
50	1	3	2	7
51	3	4	9	10
52	1	26	25	28
53	6	38	37	39
54	1	4	3	6
55	4	35	37	39
56	1	26	25	29
57	2	3	4	9
58	1	1	2	8
59	2	25	26	27
60	4	9	11	12
61	4	39	41	43
62	1	24	25	28
63	4	11	12	14
64	4	11	20	18
65	5	7	2	8
66	6	19	18	20
67	4	20	21	22
68	4	4	9	11
69	4	43	44	46
70	4	34	43	44
71	2	1	23	24
72	2	44	46	47
73	4	33	32	34
74	6	36	35	37
75	1	3	2	8
76	5	5	3	6
77	4	9	11	20

Dihedrals

1	15	24	25	26	27
1	16	24	25	26	27
2	14	9	11	12	14
3	14	32	34	35	37
4	14	14	12	11	20
5	14	13	12	11	20
6	7	2	3	4	9
6	8	2	3	4	9
7	14	13	12	14	16
8	5	7	2	1	23
9	14	34	35	37	39
10	12	10	9	11	20
11	5	6	3	4	9
12	19	45	44	46	47
12	20	45	44	46	47
13	12	4	9	11	20
14	5	8	2	1	23
15	14	11	20	18	16
16	12	41	43	44	46
17	14	34	43	41	42
18	12	10	9	11	12
19	14	17	16	18	19
20	12	18	20	21	22
21	6	2	1	23	24
22	12	4	9	11	12
23	17	27	26	25	28
24	12	34	43	44	45
25	12	20	21	32	34
26	14	16	18	20	21
27	13	5	3	2	7
28	14	12	14	16	18
29	14	19	18	20	21
30	13	6	3	2	8
31	3	1	2	3	5
31	4	1	2	3	5
32	12	22	21	32	33
33	14	15	14	16	17
34	5	1	23	24	25
35	3	23	24	25	28
35	4	23	24	25	28
36	17	27	26	25	29
37	14	34	43	41	39
38	14	35	37	39	40
39	14	36	35	37	38
40	9	3	4	9	10
40	10	3	4	9	10
41	12	11	20	21	32
42	14	39	41	43	44
43	14	42	41	43	44
44	14	35	37	39	41
45	13	28	25	24	30
46	14	37	35	34	43
47	14	37	39	41	42
48	14	36	35	37	39
49	14	36	35	34	43
50	18	43	44	46	47
51	12	34	43	44	46
52	14	11	12	14	15
53	3	4	3	2	7
53	4	4	3	2	7
54	14	17	16	18	20
55	14	32	34	43	44
56	14	11	12	14	16
57	13	5	3	2	8
58	14	9	11	12	13
59	14	40	39	41	42
60	12	41	43	44	45
61	5	1	23	24	30
62	14	32	34	35	36
63	5	5	3	4	9
64	3	4	3	2	8
64	4	4	3	2	8
65	14	14	16	18	19
66	12	22	21	32	34
67	14	15	14	16	18
68	11	3	4	9	11
69	14	34	35	37	38
70	3	23	24	25	29
70	4	23	24	25	29
71	14	35	34	43	44
72	14	11	20	18	19
73	13	29	25	24	30
74	14	40	39	41	43
75	5	1	23	24	31
76	5	3	2	1	23
77	14	38	37	39	40
78	14	32	34	43	41
79	14	14	16	18	20
80	12	21	32	34	43
81	12	33	32	34	43
82	12	11	20	21	22
83	14	12	11	20	21
84	12	18	20	21	32
85	14	9	11	20	21
86	3	1	2	3	6
86	4	1	2	3	6
87	3	26	25	24	30
87	4	26	25	24	30
88	13	29	25	24	31
89	13	28	25	24	31
90	14	37	39	41	43
91	14	38	37	39	41
92	1	23	24	25	26
92	2	23	24	25	26
93	14	35	34	43	41
94	12	20	21	32	33
95	12	21	32	34	35
96	12	33	32	34	35
97	14	12	14	16	17
98	13	6	3	2	7
99	1	1	2	3	4
99	2	1	2	3	4
100	3	26	25	24	31
100	4	26	25	24	31
101	14	13	12	14	15
102	14	12	11	20	18
103	14	9	11	20	18

Impropers

1	2	12	13	14	11
3	2	14	15	16	12
10	1	9	10	11	4
15	2	16	14	17	18
24	2	21	22	32	20
25	2	18	20	16	19
28	2	16	18	14	17
32	2	41	42	43	39
40	1	9	11	4	10
41	2	35	36	37	34
47	2	20	11	18	21
61	2	34	43	32	35
65	2	43	44	34	41
69	2	32	21	33	34
70	2	39	40	41	37
72	2	20	21	11	18
74	2	32	33	34	21
77	2	35	34	36	37
83	2	11	9	12	20
85	2	14	16	12	15
86	2	34	32	35	43
93	2	37	38	39	35
96	2	20	18	21	11
104	2	21	20	22	32
106	2	12	14	11	13
115	2	14	12	15	16
118	2	41	43	39	42
119	2	39	41	37	40
126	2	34	35	43	32
128	2	21	32	20	22
130	2	43	34	41	44
136	2	12	11	13	14
138	1	44	46	43	45
140	2	18	16	19	20
141	2	35	37	34	36
142	1	9	4	10	11
145	1	44	45	46	43
148	2	18	19	20	16
150	2	37	35	38	39
153	2	32	34	21	33
162	2	11	20	9	12
163	2	39	37	40	41
166	2	37	39	35	38
167	1	44	43	45	46
169	2	41	39	42	43
171	2	16	17	18	14
172	2	11	12	20	9
179	2	43	41	44	34
