Title

74 atoms
75 bonds
128 angles
212 dihedrals
48 impropers

12 atom types
18 bond types
10 angle types
33 dihedral types
3 improper types
-3.739000082 96.26099992 xlo xhi
-2.082000017 97.91799998 ylo yhi
-2.609999895 97.3900001 zlo zhi
0.0 0.0 0.0 xy xz yz

Masses

1	12.01078
2	15.99943
3	14.00672
4	12.01078
5	1.007947
6	1.007947
7	1.007947
8	15.99943
9	1.007947
10	12.01078
11	15.99943
12	1.007947


Pair Coeffs

1	0.086879315	3.4806469
2	0.2102061	3.0398122
3	0.16769152	3.206876
4	0.10884061	3.3795318
5	0.014090815	1.1034277
6	0.016409246	2.5832257
7	0.015779483	2.6445434
8	0.16846514	3.0251065
9	0.015611343	2.5725815
10	0.21	3.3996695
11	0.20947353	2.99716
12	1.2326e-05	0.53453923

Bond Coeffs

1 harmonic	582.698766451	1.225198386222
2 harmonic	492.76746816345	1.381897776683
3 harmonic	279.1350963404	1.454628925034
4 harmonic	352.0565580496	1.450098586273
5 harmonic	505.144496193	1.019481865027
6 harmonic	264.62148576755	1.52190126495
7 harmonic	370.04670688625	1.093899492634
8 harmonic	301.15400723785	1.345741232799
9 harmonic	366.7408841747	1.425895053732
10 harmonic	289.73813263395	1.498646816465
11 harmonic	445.3060766333	1.328776712165
12 harmonic	360.7852444772	1.387193227181
13 harmonic	300.03137914615	1.451203938761
14 harmonic	397.2545789619	1.085358495916
15 harmonic	366.34047229585	1.464762957261
16 harmonic	602.81384337	1.196112346392
17 harmonic	329.96998057905	1.427343958716
18 harmonic	543.5267831885	0.9716763312559


Angle Coeffs

1 harmonic	55.42182150775	117.3465570514
2 harmonic	63.44422595415	115.5071327674
3 harmonic	57.8982893754	126.8062420451
4 harmonic	53.20531626545	116.5475862634
5 harmonic	65.09061609600001	110.3538806181
6 harmonic	201.41175231035	127.4691416191
7 harmonic	48.776492647595	115.6030999533
8 harmonic	55.07882548015	112.8714009681
9 harmonic	34.066775159195	129.1835929926
10 harmonic	33.56981613361	180


Dihedral Coeffs

1 fourier 1	-0.1488678166443	4	180
2 fourier 1	-0.1230328948768	3	180
3 fourier 1	0.2939295466901	2	0
4 fourier 1	-0.3024127022865	1	0
5 fourier 1	0.182238503271	2	0
6 fourier 1	0.02972342374561	3	0
7 fourier 1	1.809047390003	2	180
8 fourier 1	-0.04816277792592	1	0
9 fourier 1	3.101948770557	2	180
10 fourier 1	-0.4252153282372	1	0
11 fourier 1	2.348375642009	2	180
12 fourier 1	1.256156174911	1	0
13 fourier 1	0.9974165607242	2	180
14 fourier 1	0.1155372516788	3	0
15 fourier 1	0.09223874044423	3	0
16 fourier 1	0.3159935921949	2	180
17 fourier 1	0.3247796806857	1	180
18 fourier 1	0.1040663847541	3	0
19 fourier 1	2.779853741805	2	180
20 fourier 1	0.0473758381877	3	0
21 fourier 1	0.4860993122944	2	180
22 fourier 1	0.8916986138746	1	0
23 fourier 1	1.163809172478	2	180
24 fourier 1	0.1679186987369	1	180
25 fourier 1	0.1911926717192	3	0
26 fourier 1	0.02664938770063	3	0
27 fourier 1	3.731869940596	2	180
28 fourier 1	3.661930099076	2	180
29 fourier 1	5.913282223828	2	180
30 fourier 1	0.457973137376	1	0
31 fourier 1	-1.382973039546	1	0
32 fourier 1	0	1	0
33 fourier 1	0.3026390167484	3	0


Improper Coeffs

1 0.3333333333333333	-1	2
2 0.3666666666666667	-1	2
3 3.5	-1	2


Atoms

1	1	1	0.55335701	3.3410001	1.4349999	0.43399999
2	1	2	-0.61927599	4.3610001	0.736	0.192
3	1	3	-0.50951999	2.036	0.977	0.071000002
4	1	4	0.036931999	1.834	-0.308	-0.60100001
5	1	4	-0.140368	0.34599999	-0.59299999	-0.83999997
6	1	4	-0.13904101	-0.39700001	-0.898	0.47099999
7	1	4	0.031316001	-1.876	-1.224	0.226
8	1	3	-0.451074	-2.5880001	-0.074000001	-0.331
9	1	1	0.79055899	-2.9430001	1.071	0.44999999
10	1	2	-0.56332701	-2.6630001	1.13	1.677
11	1	5	0.33954901	-2.9000001	-0.11	-1.327
12	1	6	0.078386001	-2.355	-1.533	1.1799999
13	1	6	0.078386001	-1.952	-2.082	-0.477
14	1	7	0.104437	-0.31600001	-0.037999999	1.168
15	1	7	0.104437	0.077	-1.776	0.96200001
16	1	7	0.104437	-0.117	0.278	-1.353
17	1	7	0.104437	0.26100001	-1.471	-1.516
18	1	6	0.074593998	2.2809999	-1.124	0.0070000002
19	1	6	0.074593998	2.355	-0.285	-1.5829999
20	1	5	0.332977	1.224	1.599	0.28400001
21	1	8	-0.48918599	-3.444	1.862	0.003
22	1	4	0.17030799	-3.0209999	1.901	-1.332
23	1	1	0.211586	-1.653	2.506	-1.42
24	1	3	-0.64837402	-1.521	3.7969999	-1.546
25	1	1	0.25213	-0.229	4.4310002	-1.601
26	1	4	0.076967999	-0.145	5.921	-1.723
27	1	8	-0.11434	0.050000001	6.4809999	-0.45500001
28	1	6	0.10954	-1.089	6.3080001	-2.164
29	1	6	0.10954	0.69700003	6.1999998	-2.3970001
30	1	1	-0.342581	0.88200003	3.6849999	-1.484
31	1	9	0.215663	1.864	4.1409998	-1.5
32	1	1	-0.14438599	0.76099998	2.223	-1.326
33	1	9	0.226392	1.651	1.614	-1.233
34	1	1	-0.34944499	-0.449	1.655	-1.293
35	1	9	0.21549299	-0.542	0.583	-1.171
36	1	6	0.093362004	-3.0239999	0.87900001	-1.774
37	1	6	0.093362004	-3.7390001	2.516	-1.916
38	1	1	0.55335701	3.4560001	2.3929999	0.92299998
39	1	2	-0.61927599	2.701	2.6919999	1.886
40	1	3	-0.50951999	4.461	3.3039999	0.47
41	1	4	0.037218999	4.6529999	4.6090002	1.1
42	1	4	-0.135272	5.7909999	5.3800001	0.42300001
43	1	4	-0.117391	5.9970002	6.75	1.079
44	1	4	0.191067	7.1339998	7.5219998	0.398
45	1	3	-0.55907297	7.369	8.8000002	1.062
46	1	10	0.598333	6.5209999	9.7489996	1.018
47	1	2	-0.36928499	5.6960001	10.67	0.97500002
48	1	6	0.049547002	8.0679998	6.9229999	0.45500001
49	1	6	0.049547002	6.8979998	7.6929998	-0.676
50	1	7	0.098237	6.2449999	6.612	2.155
51	1	7	0.098237	5.0560002	7.3379998	1.005
52	1	7	0.10347	5.5469999	5.5190001	-0.65399998
53	1	7	0.10347	6.7290001	4.7870002	0.5
54	1	6	0.074593998	3.711	5.1939998	1.021
55	1	6	0.074593998	4.8940001	4.4629998	2.1760001
56	1	5	0.332977	5.0630002	3.01	-0.333
57	1	8	-0.11434	0.1	7.4629998	-0.59299999
58	1	4	0.076967999	0.648	7.6609998	-1.867
59	1	1	0.25468999	2.128	7.427	-1.832
60	1	3	-0.64422297	2.934	8.4110003	-1.5470001
61	1	1	0.201684	4.3610001	8.2309999	-1.4680001
62	1	4	0.146999	5.2309999	9.3970003	-1.114
63	1	11	-0.66850197	5.526	9.3579998	0.25400001
64	1	12	0.39508	6.1020002	10.146	0.433
65	1	6	0.088149004	4.698	10.342	-1.357
66	1	6	0.088149004	6.1719999	9.3629999	-1.7079999
67	1	1	-0.343016	4.8870001	7.0089998	-1.655
68	1	9	0.215663	5.9549999	6.8439999	-1.5779999
69	1	1	-0.142509	3.9960001	5.875	-1.965
70	1	9	0.226392	4.4120002	4.888	-2.118
71	1	1	-0.342581	2.6760001	6.0689998	-2.0480001
72	1	9	0.215663	2.0179999	5.2379999	-2.2690001
73	1	6	0.10954	0.16500001	6.9879999	-2.6099999
74	1	6	0.10954	0.44400001	8.7060003	-2.1849999

Bonds

1	1	1	2
2	2	1	3
3	3	1	38
4	4	3	4
5	5	3	20
6	6	4	5
7	7	4	18
8	7	4	19
9	6	5	6
10	7	5	16
11	7	5	17
12	6	6	7
13	7	6	14
14	7	6	15
15	4	7	8
16	7	7	12
17	7	7	13
18	2	8	9
19	5	8	11
20	1	9	10
21	8	9	21
22	9	21	22
23	10	22	23
24	7	22	36
25	7	22	37
26	11	23	24
27	12	23	34
28	11	24	25
29	10	25	26
30	12	25	30
31	9	26	27
32	7	26	28
33	7	26	29
34	13	27	57
35	14	30	31
36	12	30	32
37	14	32	33
38	12	32	34
39	14	34	35
40	1	38	39
41	2	38	40
42	4	40	41
43	5	40	56
44	6	41	42
45	7	41	54
46	7	41	55
47	6	42	43
48	7	42	52
49	7	42	53
50	6	43	44
51	7	43	50
52	7	43	51
53	15	44	45
54	7	44	48
55	7	44	49
56	16	45	46
57	1	46	47
58	9	57	58
59	10	58	59
60	7	58	73
61	7	58	74
62	11	59	60
63	12	59	71
64	11	60	61
65	10	61	62
66	12	61	67
67	17	62	63
68	7	62	65
69	7	62	66
70	18	63	64
71	14	67	68
72	12	67	69
73	14	69	70
74	12	69	71
75	14	71	72

Angles

1	4	4	5	6
2	3	59	71	69
3	4	63	62	66
4	7	14	6	15
5	4	6	5	17
6	4	41	42	52
7	4	40	41	55
8	4	5	6	7
9	4	21	22	36
10	4	59	58	74
11	3	2	1	38
12	4	57	58	73
13	4	3	4	5
14	3	61	67	69
15	3	60	61	62
16	7	16	5	17
17	7	54	41	55
18	7	48	44	49
19	3	23	34	32
20	4	41	42	53
21	7	73	58	74
22	7	36	22	37
23	4	5	4	18
24	4	4	5	16
25	1	7	8	9
26	4	45	44	48
27	9	68	67	69
28	4	27	26	28
29	7	65	62	66
30	4	61	62	63
31	4	5	4	19
32	7	52	42	53
33	4	4	5	17
34	4	3	4	18
35	2	41	40	56
36	4	23	22	36
37	9	67	69	70
38	4	43	44	48
39	4	42	43	51
40	3	25	30	32
41	3	22	23	24
42	4	25	26	27
43	9	69	71	72
44	4	43	44	49
45	3	24	25	26
46	2	4	3	20
47	3	60	61	67
48	4	7	6	14
49	4	21	22	37
50	3	2	1	3
51	4	57	58	74
52	4	42	41	54
53	4	43	44	45
54	2	38	40	56
55	7	12	7	13
56	2	7	8	11
57	4	6	7	12
58	2	9	8	11
59	4	57	58	59
60	4	42	43	44
61	9	32	34	35
62	10	45	46	47
63	4	43	42	52
64	8	23	24	25
65	4	42	41	55
66	4	45	44	49
67	6	10	9	21
68	4	27	26	29
69	3	1	38	39
70	8	44	45	46
71	9	70	69	71
72	4	6	7	13
73	3	24	25	30
74	7	18	4	19
75	5	27	57	58
76	4	63	62	65
77	3	26	25	30
78	4	3	4	19
79	9	33	32	34
80	3	58	59	71
81	3	3	1	38
82	3	60	59	71
83	4	6	5	16
84	4	23	22	37
85	4	5	6	14
86	5	9	21	22
87	3	67	69	71
88	3	8	9	21
89	9	31	30	32
90	4	59	58	73
91	4	25	26	28
92	9	61	67	68
93	4	61	62	65
94	4	6	7	8
95	2	1	3	20
96	4	8	7	12
97	7	50	43	51
98	3	8	9	10
99	4	5	6	15
100	4	41	42	43
101	5	62	63	64
102	4	7	6	15
103	4	25	26	29
104	4	44	43	50
105	9	59	71	72
106	1	38	40	41
107	4	61	62	66
108	5	26	27	57
109	4	8	7	13
110	4	40	41	42
111	9	30	32	33
112	8	59	60	61
113	3	24	23	34
114	3	39	38	40
115	4	21	22	23
116	4	43	42	53
117	7	28	26	29
118	3	58	59	60
119	4	44	43	51
120	3	62	61	67
121	4	40	41	54
122	4	42	43	50
123	3	30	32	34
124	3	22	23	34
125	9	25	30	31
126	3	1	38	40
127	9	23	34	35
128	1	1	3	4

Dihedrals

1	26	24	23	22	37
2	25	15	6	5	16
3	18	4	5	6	14
4	7	11	8	9	21
4	8	11	8	9	21
5	5	19	4	3	20
5	6	19	4	3	20
6	26	34	23	22	36
7	25	49	44	43	51
8	28	26	25	30	31
9	28	59	71	69	70
10	28	62	61	67	69
11	26	24	25	26	29
12	26	60	61	62	63
13	18	7	6	5	16
14	18	6	5	4	19
15	5	11	8	7	12
15	6	11	8	7	12
16	28	23	34	32	33
17	32	44	45	46	47
18	25	12	7	6	15
19	13	2	1	38	39
20	18	44	43	42	52
21	20	29	26	27	57
22	7	1	38	40	41
22	8	1	38	40	41
23	33	64	63	62	66
24	14	3	4	5	6
25	18	4	5	6	15
26	20	9	21	22	37
27	25	17	5	4	19
28	28	24	25	30	31
29	14	8	7	6	14
30	5	1	3	4	18
30	6	1	3	4	18
31	26	21	22	23	34
32	18	42	43	44	48
33	28	33	32	34	35
34	5	11	8	7	13
34	6	11	8	7	13
35	27	58	59	60	61
36	28	59	71	69	67
37	5	55	41	40	56
37	6	55	41	40	56
38	11	39	38	40	56
38	12	39	38	40	56
39	7	7	8	9	21
39	8	7	8	9	21
40	14	40	41	42	43
41	20	27	57	58	59
42	28	60	61	67	68
43	28	23	34	32	30
44	28	24	23	34	35
45	26	66	62	61	67
46	14	8	7	6	15
47	25	50	43	42	52
48	28	67	69	71	72
49	25	14	6	5	17
50	13	3	1	38	39
51	18	43	42	41	54
52	28	31	30	32	33
53	25	48	44	43	51
54	23	10	9	21	22
54	24	10	9	21	22
55	31	43	44	45	46
56	28	25	30	32	33
57	28	60	59	71	72
58	28	60	61	67	69
59	18	41	42	43	50
60	25	53	42	41	55
61	28	30	32	34	35
62	25	15	6	5	17
63	26	34	23	22	37
64	1	6	7	8	9
64	2	6	7	8	9
64	3	6	7	8	9
64	4	6	7	8	9
65	28	26	25	30	32
66	26	29	26	25	30
67	28	31	30	32	34
68	5	42	41	40	56
68	6	42	41	40	56
69	26	71	59	58	73
70	15	4	5	6	7
70	16	4	5	6	7
70	17	4	5	6	7
71	28	70	69	71	72
72	28	68	67	69	70
73	18	7	6	5	17
74	25	16	5	4	18
75	28	22	23	34	35
76	5	9	8	7	12
76	6	9	8	7	12
77	28	58	59	71	72
78	26	65	62	61	67
79	18	41	42	43	51
80	14	40	41	42	52
81	9	2	1	3	4
81	10	2	1	3	4
82	18	44	43	42	53
83	25	52	42	41	54
84	30	26	27	57	58
85	26	60	59	58	73
86	5	54	41	40	56
86	6	54	41	40	56
87	28	60	59	71	69
88	11	2	1	3	20
88	12	2	1	3	20
89	28	24	25	30	32
90	5	1	3	4	19
90	6	1	3	4	19
91	26	60	61	62	65
92	31	46	45	44	48
93	18	42	43	44	49
94	28	61	67	69	70
95	26	21	22	23	24
96	9	39	38	40	41
96	10	39	38	40	41
97	5	9	8	7	13
97	6	9	8	7	13
98	7	7	8	9	10
98	8	7	8	9	10
99	26	24	25	26	27
100	14	3	4	5	16
101	14	40	41	42	53
102	20	9	21	22	23
103	1	38	40	41	42
103	2	38	40	41	42
103	3	38	40	41	42
103	4	38	40	41	42
104	14	42	43	44	45
105	28	22	23	34	32
106	7	20	3	1	38
106	8	20	3	1	38
107	28	58	59	71	69
108	26	60	61	62	66
109	31	46	45	44	49
110	14	45	44	43	50
111	25	50	43	42	53
112	5	18	4	3	20
112	6	18	4	3	20
113	13	3	1	38	40
114	25	49	44	43	50
115	18	43	42	41	55
116	26	57	58	59	71
117	18	5	6	7	12
118	28	24	23	34	32
119	19	8	9	21	22
120	26	24	25	26	28
121	14	3	4	5	17
122	20	28	26	27	57
123	5	38	40	41	54
123	6	38	40	41	54
124	26	28	26	25	30
125	28	25	30	32	34
126	5	6	7	8	11
126	6	6	7	8	11
127	18	6	5	4	18
128	25	13	7	6	14
129	25	12	7	6	14
130	13	2	1	38	40
131	14	45	44	43	51
132	33	64	63	62	65
133	26	27	26	25	30
134	20	9	21	22	36
135	25	17	5	4	18
136	7	1	38	40	56
136	8	1	38	40	56
137	18	5	6	7	13
138	20	25	26	27	57
139	29	61	60	59	71
140	26	71	59	58	74
141	5	38	40	41	55
141	6	38	40	41	55
142	28	68	67	69	71
143	20	27	57	58	73
144	29	25	24	23	34
145	25	16	5	4	19
146	25	13	7	6	15
147	27	22	23	24	25
148	7	4	3	1	38
148	8	4	3	1	38
149	25	52	42	41	55
150	26	63	62	61	67
151	29	23	24	25	30
152	26	60	59	58	74
153	25	51	43	42	52
154	14	5	6	7	8
155	20	27	57	58	74
156	21	10	9	8	11
156	22	10	9	8	11
157	26	24	23	22	36
158	28	61	67	69	71
159	33	61	62	63	64
160	25	14	6	5	16
161	27	23	24	25	26
162	27	59	60	61	62
163	28	62	61	67	68
164	25	48	44	43	50
165	26	57	58	59	60
166	15	41	42	43	44
166	16	41	42	43	44
166	17	41	42	43	44
167	5	5	4	3	20
167	6	5	4	3	20
168	29	59	60	61	67
169	1	1	3	4	5
169	2	1	3	4	5
169	3	1	3	4	5
169	4	1	3	4	5
170	25	51	43	42	53
171	25	53	42	41	54

Impropers

3	2	32	30	33	34
7	1	3	20	1	4
14	2	69	67	70	71
15	2	67	68	69	61
16	1	8	9	11	7
27	2	38	1	39	40
42	2	69	70	71	67
60	1	3	1	4	20
71	2	30	25	31	32
83	2	61	67	60	62
87	2	30	32	25	31
88	3	9	10	21	8
90	2	1	2	3	38
91	1	40	41	56	38
94	2	23	24	34	22
102	2	30	31	32	25
107	2	71	72	59	69
111	1	3	4	20	1
112	2	34	32	35	23
117	2	25	26	30	24
139	2	71	69	72	59
153	2	71	59	69	72
158	2	59	58	60	71
182	2	38	40	1	39
200	2	61	60	62	67
214	2	32	34	30	33
215	2	34	35	23	32
217	2	25	24	26	30
218	2	1	38	2	3
223	2	59	71	58	60
227	2	69	71	67	70
232	2	38	39	40	1
241	2	25	30	24	26
251	2	34	23	32	35
258	1	8	7	9	11
260	1	40	56	38	41
261	3	9	21	8	10
270	2	59	60	71	58
287	2	1	3	38	2
292	2	67	69	61	68
293	2	67	61	68	69
301	2	23	22	24	34
313	3	9	8	10	21
316	1	40	38	41	56
331	1	8	11	7	9
365	2	61	62	67	60
376	2	32	33	34	30
381	2	23	34	22	24
