Title

275 atoms
296 bonds
489 angles
759 dihedrals
408 impropers

10 atom types
15 bond types
9 angle types
20 dihedral types
3 improper types
-11.92599964 88.07400036 xlo xhi
-7.484000206 92.51599979 ylo yhi
-11.97799969 88.02200031 zlo zhi
0.0 0.0 0.0 xy xz yz

Masses

1	14.00672
2	12.01078
3	1.007947
4	15.99943
5	12.01078
6	1.007947
7	18.998403
8	15.99943
9	15.99943
10	1.007947


Pair Coeffs

1	0.16769152	3.206876
2	0.086879315	3.4806469
3	0.015611343	2.5725815
4	0.16846514	3.0251065
5	0.10884061	3.3795318
6	0.014090815	1.1034277
7	0.061	3.1181455
8	0.2102061	3.0398122
9	0.20947353	2.99716
10	1.2326e-05	0.53453923

Bond Coeffs

1 harmonic	390.03554688505	1.390160554689
2 harmonic	505.144496193	1.019481865027
3 harmonic	422.7150220147	1.421786517481
4 harmonic	360.7852444772	1.387193227181
5 harmonic	397.2545789619	1.085358495916
6 harmonic	279.1350963404	1.454628925034
7 harmonic	425.69104206635	1.362945806494
8 harmonic	289.73813263395	1.498646816465
9 harmonic	352.0565580496	1.450098586273
10 harmonic	492.76746816345	1.381897776683
11 harmonic	340.45121009905	1.358690858053
12 harmonic	582.698766451	1.225198386222
13 harmonic	264.62148576755	1.52190126495
14 harmonic	385.7604595587	1.369745182308
15 harmonic	543.5267831885	0.9716763312559


Angle Coeffs

1 harmonic	57.8982893754	126.8062420451
2 harmonic	55.42182150775	117.3465570514
3 harmonic	63.44422595415	115.5071327674
4 harmonic	34.066775159195	129.1835929926
5 harmonic	65.09061609600001	110.3538806181
6 harmonic	53.20531626545	116.5475862634
7 harmonic	14.32262199324	138.3184368373
8 harmonic	39.628116874445	129.8027304608
9 harmonic	201.41175231035	127.4691416191


Dihedral Coeffs

1 fourier 1	3.661930099076	2	180
2 fourier 1	1.193093382682	2	180
3 fourier 1	0.02021088501612	1	0
4 fourier 1	1.163235555439	2	180
5 fourier 1	1.532232714475	2	180
6 fourier 1	0.02664938770063	3	0
7 fourier 1	-0.6891728821899999	2	180
8 fourier 1	0.2727846432367	1	0
9 fourier 1	1.57666786751	2	180
10 fourier 1	3.101948770557	2	180
11 fourier 1	-0.4252153282372	1	0
12 fourier 1	1.809047390003	2	180
13 fourier 1	-0.04816277792592	1	0
14 fourier 1	0.9974165607242	2	180
15 fourier 1	2.348375642009	2	180
16 fourier 1	1.256156174911	1	0
17 fourier 1	0.1155372516788	3	0
18 fourier 1	2.687457892086	2	180
19 fourier 1	2.772607909663	2	180
20 fourier 1	0.09692684957115	1	0


Improper Coeffs

1 0.3666666666666667	-1	2
2 0.3333333333333333	-1	2
3 3.5	-1	2


Atoms

1	1	1	-0.41033301	-11.091	5.553	1.375
2	1	2	0.130144	-9.9469995	4.915	0.80299997
3	1	2	-0.40342501	-9.927	3.585	0.62400001
4	1	3	0.22496299	-10.778	2.98	0.91399997
5	1	2	-0.109461	-8.7320004	2.9260001	0.052999999
6	1	3	0.206679	-8.7370005	1.847	-0.037
7	1	2	-0.12511601	-7.6529999	3.6470001	-0.301
8	1	2	-0.13143501	-6.4310002	2.9779999	-0.81800002
9	1	2	-0.124109	-5.2090001	3.3800001	-0.41299999
10	1	3	0.20994499	-5.0939999	4.1919999	0.28999999
11	1	2	-0.29217601	-4.0009999	2.6889999	-0.89200002
12	1	3	0.22784901	-3.03	3.007	-0.53500003
13	1	2	0.333233	-4.1040001	1.653	-1.735
14	1	4	-0.26791301	-2.9519999	0.97500002	-2.131
15	1	2	0.26940599	-2.3	0.021	-1.335
16	1	2	-0.28868201	-2.8659999	-0.50999999	-0.236
17	1	3	0.234584	-3.8570001	-0.221	0.082999997
18	1	2	-0.152521	-2.148	-1.524	0.55900002
19	1	3	0.221644	-2.6600001	-1.949	1.409
20	1	2	-0.14223599	-0.88999999	-1.8940001	0.236
21	1	5	0.19134501	-0.131	-2.9590001	1.048
22	1	2	-0.14223599	1.387	-2.723	1.0650001
23	1	2	-0.152521	2.2590001	-3.743	1.211
24	1	3	0.221644	1.918	-4.7639999	1.295
25	1	2	-0.28868201	3.714	-3.494	1.274
26	1	3	0.234584	4.3990002	-4.3330002	1.3099999
27	1	2	0.26940599	4.1859999	-2.2420001	1.2539999
28	1	4	-0.26791301	5.5700002	-2.033	1.276
29	1	2	0.333233	6.1630001	-0.83499998	0.86199999
30	1	2	-0.29217601	6.8610001	-0.119	1.753
31	1	3	0.22784901	6.9809999	-0.48100001	2.7650001
32	1	2	-0.124109	7.4050002	1.2029999	1.3940001
33	1	3	0.20994499	7.9590001	1.757	2.1440001
34	1	2	-0.13143501	7.2179999	1.7029999	0.162
35	1	2	-0.12511601	7.7150002	3.0539999	-0.191
36	1	2	-0.123604	8.2810001	3.286	-1.393
37	1	3	0.206679	8.415	2.484	-2.1099999
38	1	2	-0.37122601	8.7510004	4.6399999	-1.751
39	1	3	0.22129899	9.1990004	4.8010001	-2.723
40	1	2	0.202299	8.6000004	5.658	-0.889
41	1	1	-0.52917302	9.0229998	6.9759998	-1.247
42	1	6	0.321251	9.4639997	7.1719999	-2.1719999
43	1	2	-0.37122601	7.9790001	5.4130001	0.43200001
44	1	3	0.22129899	7.8590002	6.2280002	1.132
45	1	2	-0.123604	7.5689998	4.1830001	0.76700002
46	1	3	0.206679	7.1059999	4.0229998	1.732
47	1	2	-0.052067999	6.4879999	0.889	-0.847
48	1	3	0.208884	6.3499999	1.289	-1.8430001
49	1	2	-0.31865901	6.0219998	-0.33899999	-0.54500002
50	1	5	0.768372	5.3410001	-1.169	-1.614
51	1	7	-0.20323101	5.54	-2.5179999	-1.383
52	1	7	-0.20323101	5.8530002	-0.87800002	-2.868
53	1	7	-0.20323101	3.9849999	-0.89999998	-1.615
54	1	2	-0.28868201	3.233	-1.1059999	1.2460001
55	1	3	0.234584	3.596	-0.088	1.323
56	1	2	-0.152521	1.92	-1.332	1.166
57	1	3	0.221644	1.247	-0.486	1.1849999
58	1	2	0.089680001	-0.58399999	-3.0179999	2.5009999
59	1	2	-0.047426	-0.53500003	-2.0669999	3.444
60	1	3	0.219827	-0.13500001	-1.084	3.2320001
61	1	2	-0.26315901	-1.061	-2.3870001	4.7979999
62	1	3	0.225614	-1.039	-1.633	5.573
63	1	2	-0.248247	-1.58	-3.6040001	5.0580001
64	1	3	0.217209	-1.9630001	-3.8329999	6.0419998
65	1	2	0.012027	-1.628	-4.6399999	3.9979999
66	1	3	0.222754	-2.046	-5.6209998	4.1900001
67	1	2	-0.235048	-1.1390001	-4.322	2.802
68	1	2	0.68725401	-1.064	-5.0910001	1.594
69	1	8	-0.54585397	-1.4630001	-6.2779999	1.461
70	1	1	-0.44756901	-0.48699999	-4.3140001	0.54400003
71	1	2	0.20798101	-0.207	-4.8569999	-0.76200002
72	1	2	-0.33732	-0.81099999	-4.3629999	-1.862
73	1	3	0.209305	-1.5369999	-3.5669999	-1.788
74	1	2	-0.16180199	-0.53399998	-4.948	-3.191
75	1	3	0.23521399	-0.99400002	-4.5180001	-4.0689998
76	1	2	-0.259229	0.271	-6.0110002	-3.303
77	1	3	0.22991601	0.46799999	-6.4419999	-4.276
78	1	2	-0.16180199	0.88800001	-6.6030002	-2.0940001
79	1	3	0.23521399	1.513	-7.4840002	-2.178
80	1	2	-0.33732	0.65600002	-6.0609999	-0.88999999
81	1	3	0.209305	1.0779999	-6.52	-0.0089999996
82	1	2	-0.152521	-0.28799999	-1.325	-1.01
83	1	3	0.221644	0.68199998	-1.664	-1.354
84	1	2	-0.28868201	-0.95300001	-0.42300001	-1.739
85	1	3	0.234584	-0.50800002	-0.026000001	-2.6429999
86	1	2	-0.31865901	-5.4390001	1.2180001	-2.2320001
87	1	5	0.768372	-5.5479999	0.022	-3.151
88	1	7	-0.20323101	-4.552	0.061000001	-4.1110001
89	1	7	-0.20323101	-5.4029999	-1.135	-2.408
90	1	7	-0.20323101	-6.7680001	-0.016000001	-3.802
91	1	2	-0.052067999	-6.54	1.837	-1.767
92	1	3	0.208884	-7.5229998	1.512	-2.0780001
93	1	2	-0.109461	-7.6890001	5.125	-0.118
94	1	3	0.206679	-6.8390002	5.7340002	-0.40900001
95	1	2	-0.40342501	-8.7690001	5.7199998	0.40400001
96	1	3	0.22496299	-8.7770004	6.7969999	0.542
97	1	6	0.37496901	-11.926	5.0009999	1.66
98	1	2	0.75793099	8.8620005	7.7849998	-0.57999998
99	1	8	-0.66251898	9.5760002	7.8439999	0.45699999
100	1	2	-0.28244299	7.8439999	8.8249998	-0.86900002
101	1	2	-0.104977	7.8559999	9.9709997	-0.168
102	1	3	0.220635	8.5799999	10.138	0.62
103	1	2	-0.27450901	6.9130001	11.059	-0.47400001
104	1	3	0.213744	6.9879999	11.967	0.11
105	1	2	-0.041223001	5.9899998	10.937	-1.451
106	1	5	-0.270558	5.0539999	12.131	-1.773
107	1	2	-0.056334	4.461	12.675	-0.44800001
108	1	2	-0.27115601	4.2740002	13.989	-0.208
109	1	3	0.213744	4.5619998	14.749	-0.91600001
110	1	2	-0.086808003	3.6949999	14.455	1.0650001
111	1	3	0.229947	3.655	15.523	1.244
112	1	2	-0.170646	3.3	13.583	2.007
113	1	2	0.80327803	2.881	14.108	3.3280001
114	1	8	-0.48417601	3.0929999	13.443	4.3769999
115	1	9	-0.663921	2.293	15.367	3.425
116	1	10	0.42009899	2.0179999	15.745	4.3239999
117	1	2	-0.16819599	3.3789999	12.116	1.714
118	1	2	0.80409199	2.767	11.099	2.6010001
119	1	8	-0.48417699	1.739	11.375	3.276
120	1	9	-0.663921	3.2950001	9.8120003	2.6570001
121	1	10	0.42009899	2.8759999	9.1020002	3.2449999
122	1	2	-0.048609	3.9489999	11.707	0.56599998
123	1	3	0.224749	3.9920001	10.648	0.33899999
124	1	5	0.75454599	5.9229999	13.184	-2.5439999
125	1	7	-0.19706701	6.6389999	12.568	-3.559
126	1	7	-0.19706701	6.8319998	13.793	-1.694
127	1	7	-0.19706701	5.1389999	14.167	-3.1270001
128	1	5	0.75454599	3.835	11.727	-2.668
129	1	7	-0.19706701	2.9200001	12.766	-2.7360001
130	1	7	-0.19706701	3.181	10.624	-2.1440001
131	1	7	-0.19706701	4.2319999	11.437	-3.9630001
132	1	2	-0.010103	5.98	9.665	-2.234
133	1	3	0.21433599	5.256	9.5299997	-3.0220001
134	1	2	-0.24650399	6.8309999	8.6540003	-1.96
135	1	2	0.58135802	6.7179999	7.381	-2.7149999
136	1	8	-0.53020298	6.0300002	7.3070002	-3.7690001
137	1	1	-0.41033301	-11.11	6.5840001	1.508
138	1	2	0.130144	-10.168	7.223	2.3740001
139	1	2	-0.40342501	-10.199	8.552	2.552
140	1	3	0.22496299	-10.936	9.1569996	2.0380001
141	1	2	-0.109461	-9.2069998	9.2119999	3.4300001
142	1	3	0.206679	-9.2370005	10.29	3.516
143	1	2	-0.12511601	-8.2679996	8.4899998	4.0689998
144	1	2	-0.13143501	-7.2360001	9.1590004	4.9029999
145	1	2	-0.124109	-5.9499998	8.7580004	4.8509998
146	1	3	0.20994499	-5.6459999	7.9450002	4.2069998
147	1	2	-0.29217601	-4.921	9.448	5.645
148	1	3	0.22784901	-3.8900001	9.1309996	5.5700002
149	1	2	0.333233	-5.2529998	10.484	6.4260001
150	1	4	-0.26791301	-4.2550001	11.163	7.1259999
151	1	2	0.26940599	-3.408	12.117	6.54
152	1	2	-0.28868201	-3.6489999	12.648	5.3270001
153	1	3	0.234584	-4.5139999	12.358	4.7470002
154	1	2	-0.152521	-2.7390001	13.661	4.7620001
155	1	3	0.221644	-2.997	14.086	3.803
156	1	2	-0.14223599	-1.619	14.031	5.4200001
157	1	5	0.19134501	-0.66600001	15.096	4.849
158	1	2	-0.14223599	0.79799998	14.86	5.2509999
159	1	2	-0.152521	1.676	15.881	5.3520002
160	1	3	0.221644	1.372	16.900999	5.177
161	1	2	-0.28868201	3.092	15.631	5.6929998
162	1	3	0.234584	3.76	16.471001	5.848
163	1	2	0.26940599	3.54	14.38	5.8429999
164	1	4	-0.26791301	4.8769999	14.171	6.2030001
165	1	2	0.333233	5.3319998	12.972	6.7649999
166	1	2	-0.29217601	6.2490001	12.257	6.1009998
167	1	3	0.22784901	6.6430001	12.618	5.1609998
168	1	2	-0.124109	6.6719999	10.934	6.5960002
169	1	3	0.20994499	7.4120002	10.381	6.0289998
170	1	2	-0.13143501	6.1529999	10.435	7.7290001
171	1	2	-0.12511601	6.533	9.0830002	8.2060003
172	1	2	-0.072640002	6.7449999	8.8509998	9.5170002
173	1	3	0.206679	6.6760001	9.6529999	10.243
174	1	2	-0.447671	7.098	7.4970002	9.9910002
175	1	3	0.233628	7.2610002	7.336	11.048
176	1	2	0.32347399	7.191	6.4790001	9.1210003
177	1	1	-0.84302598	7.4980001	5.1609998	9.5810003
178	1	6	0.36956	7.527	4.3660002	8.908
179	1	6	0.36956	7.6669998	4.9650002	10.592
180	1	2	-0.447671	6.9590001	6.724	7.6799998
181	1	3	0.233628	7.0359998	5.9089999	6.974
182	1	2	-0.072640002	6.6570001	7.9549999	7.2449999
183	1	3	0.206679	6.4790001	8.1140003	6.1890001
184	1	2	-0.052067999	5.1719999	11.249	8.4969997
185	1	3	0.208884	4.7649999	10.849	9.4169998
186	1	2	-0.31865901	4.8080001	12.476	8.0780001
187	1	5	0.768372	3.859	13.307	8.9180002
188	1	7	-0.20323101	4.1139998	14.656	8.75
189	1	7	-0.20323101	4.0040002	13.015	10.264
190	1	7	-0.20323101	2.5539999	13.037	8.5439997
191	1	2	-0.28868201	2.622	13.244	5.5869999
192	1	3	0.234584	2.9920001	12.225	5.6129999
193	1	2	-0.152521	1.3380001	13.469	5.302
194	1	3	0.221644	0.69599998	12.624	5.0970001
195	1	2	0.089680001	-0.70099998	15.155	3.3269999
196	1	2	-0.047426	-0.39300001	14.204	2.434
197	1	3	0.219827	-0.067000002	13.221	2.7490001
198	1	2	-0.26315901	-0.52499998	14.525	0.98799998
199	1	3	0.225614	-0.28999999	13.77	0.249
200	1	2	-0.248247	-0.95200002	15.741	0.59399998
201	1	3	0.217209	-1.048	15.971	-0.45699999
202	1	2	0.012027	-1.291	16.778	1.6
203	1	3	0.222754	-1.6390001	17.757999	1.3
204	1	2	-0.235048	-1.15	16.459999	2.8840001
205	1	2	0.68725401	-1.4119999	17.229	4.066
206	1	8	-0.54585397	-1.832	18.415001	4.0840001
207	1	1	-0.44756901	-1.147	16.451	5.2350001
208	1	2	0.20798101	-1.239	16.995001	6.5679998
209	1	2	-0.33732	-2.1229999	16.500999	7.4580002
210	1	3	0.209305	-2.8010001	15.704	7.1859999
211	1	2	-0.16180199	-2.223	17.084999	8.8109999
212	1	3	0.23521399	-2.908	16.656	9.5290003
213	1	2	-0.259229	-1.48	18.148001	9.1420002
214	1	3	0.22991601	-1.5599999	18.58	10.131
215	1	2	-0.16180199	-0.55400002	18.74	8.1499996
216	1	3	0.23521399	0.024	19.622	8.4040003
217	1	2	-0.33732	-0.44400001	18.198	6.9289999
218	1	3	0.209305	0.204	18.657	6.198
219	1	2	-0.152521	-1.385	13.462	6.783
220	1	3	0.221644	-0.54799998	13.801	7.382
221	1	2	-0.28868201	-2.2249999	12.561	7.3010001
222	1	3	0.234584	-2.0469999	12.164	8.2919998
223	1	2	-0.31865901	-6.6729999	10.919	6.5359998
224	1	5	0.768372	-7.0310001	12.116	7.3889999
225	1	7	-0.20323101	-6.3400002	12.076	8.5869999
226	1	7	-0.20323101	-6.6869998	13.272	6.7150002
227	1	7	-0.20323101	-8.3839998	12.153	7.678
228	1	2	-0.052067999	-7.6030002	10.301	5.7849998
229	1	3	0.208884	-8.6330004	10.625	5.8119998
230	1	2	-0.109461	-8.2519999	7.013	3.8829999
231	1	3	0.206679	-7.5159998	6.4039998	4.3969998
232	1	2	-0.40342501	-9.1459999	6.4169998	3.0829999
233	1	3	0.22496299	-9.1160002	5.3410001	2.948
234	1	6	0.37496901	-11.834	7.1360002	1.0039999
235	1	2	0.58282202	7.2119999	6.4850001	-2.3710001
236	1	8	-0.53020298	7.6399999	6.4569998	-1.186
237	1	2	-0.28022301	7.355	5.3130002	-3.266
238	1	2	-0.044204	7.6560001	4.1110001	-2.743
239	1	3	0.21686999	7.849	3.997	-1.683
240	1	2	-0.26805899	7.671	2.8989999	-3.5810001
241	1	3	0.213744	7.934	1.976	-3.0910001
242	1	2	-0.056334	7.3400002	2.9519999	-4.888
243	1	5	-0.270558	7.3569999	1.712	-5.8179998
244	1	2	-0.056334	6.1339998	1.786	-6.77
245	1	2	-0.27115601	4.9099998	2.0510001	-6.2659998
246	1	3	0.213744	4.7740002	2.2479999	-5.21
247	1	2	-0.086808003	3.7249999	2.138	-7.1350002
248	1	3	0.229947	2.7880001	2.4489999	-6.6890001
249	1	2	-0.170646	3.8210001	1.918	-8.4560003
250	1	2	0.80327803	2.638	2.1819999	-9.3079996
251	1	8	-0.48417601	2.7820001	2.5829999	-10.494
252	1	9	-0.663921	1.355	2.0380001	-8.7860003
253	1	10	0.42009899	0.53799999	2.233	-9.3529997
254	1	2	-0.16819599	5.1399999	1.4960001	-9.026
255	1	2	0.80409199	5.2670002	1.0190001	-10.423
256	1	8	-0.48417699	6.3410001	1.1950001	-11.06
257	1	9	-0.663921	4.2189999	0.33199999	-11.028
258	1	10	0.42009899	4.3010001	-0.011	-11.978
259	1	2	-0.048609	6.224	1.461	-8.2250004
260	1	3	0.224749	7.1620002	1.132	-8.6450005
261	1	5	0.75454599	8.7229996	1.751	-6.5809999
262	1	7	-0.19706701	9.7679996	1.9450001	-5.691
263	1	7	-0.19706701	8.7489996	2.7909999	-7.4949999
264	1	7	-0.19706701	8.9659996	0.56300002	-7.2509999
265	1	5	0.75454599	7.243	0.352	-5.0469999
266	1	7	-0.19706701	6.2020001	0.38800001	-4.1329999
267	1	7	-0.19706701	6.994	-0.685	-5.9320002
268	1	7	-0.19706701	8.4139996	0.050000001	-4.3709998
269	1	2	-0.037608001	7.0689998	4.2950001	-5.4790001
270	1	3	0.224749	6.8930001	4.3660002	-6.546
271	1	2	-0.111531	7.0900002	5.4169998	-4.7350001
272	1	2	0.81617999	6.9159999	6.7249999	-5.408
273	1	8	-0.48417601	6.171	6.823	-6.421
274	1	9	-0.663921	7.6069999	7.8470001	-4.96
275	1	10	0.42009899	7.5040002	8.7410002	-5.4239998

Bonds

1	1	1	2
2	2	1	97
3	3	1	137
4	4	2	3
5	4	2	95
6	5	3	4
7	4	3	5
8	5	5	6
9	4	5	7
10	6	7	8
11	4	7	93
12	4	8	9
13	4	8	91
14	5	9	10
15	4	9	11
16	5	11	12
17	4	11	13
18	7	13	14
19	4	13	86
20	7	14	15
21	4	15	16
22	4	15	84
23	5	16	17
24	4	16	18
25	5	18	19
26	4	18	20
27	8	20	21
28	4	20	82
29	8	21	22
30	8	21	58
31	9	21	70
32	4	22	23
33	4	22	56
34	5	23	24
35	4	23	25
36	5	25	26
37	4	25	27
38	7	27	28
39	4	27	54
40	7	28	29
41	4	29	30
42	4	29	49
43	5	30	31
44	4	30	32
45	5	32	33
46	4	32	34
47	6	34	35
48	4	34	47
49	4	35	36
50	4	35	45
51	5	36	37
52	4	36	38
53	5	38	39
54	4	38	40
55	1	40	41
56	4	40	43
57	2	41	42
58	10	41	98
59	5	43	44
60	4	43	45
61	5	45	46
62	5	47	48
63	4	47	49
64	8	49	50
65	11	50	51
66	11	50	52
67	11	50	53
68	5	54	55
69	4	54	56
70	5	56	57
71	4	58	59
72	4	58	67
73	5	59	60
74	4	59	61
75	5	61	62
76	4	61	63
77	5	63	64
78	4	63	65
79	5	65	66
80	4	65	67
81	6	67	68
82	12	68	69
83	10	68	70
84	1	70	71
85	4	71	72
86	4	71	80
87	5	72	73
88	4	72	74
89	5	74	75
90	4	74	76
91	5	76	77
92	4	76	78
93	5	78	79
94	4	78	80
95	5	80	81
96	5	82	83
97	4	82	84
98	5	84	85
99	8	86	87
100	4	86	91
101	11	87	88
102	11	87	89
103	11	87	90
104	5	91	92
105	5	93	94
106	4	93	95
107	5	95	96
108	12	98	99
109	6	98	100
110	4	100	101
111	4	100	134
112	5	101	102
113	4	101	103
114	5	103	104
115	4	103	105
116	8	105	106
117	4	105	132
118	8	106	107
119	13	106	124
120	13	106	128
121	4	107	108
122	4	107	122
123	5	108	109
124	4	108	110
125	5	110	111
126	4	110	112
127	6	112	113
128	4	112	117
129	12	113	114
130	14	113	115
131	15	115	116
132	6	117	118
133	4	117	122
134	12	118	119
135	14	118	120
136	15	120	121
137	5	122	123
138	11	124	125
139	11	124	126
140	11	124	127
141	11	128	129
142	11	128	130
143	11	128	131
144	5	132	133
145	4	132	134
146	6	134	135
147	12	135	136
148	6	135	235
149	1	137	138
150	2	137	234
151	4	138	139
152	4	138	232
153	5	139	140
154	4	139	141
155	5	141	142
156	4	141	143
157	6	143	144
158	4	143	230
159	4	144	145
160	4	144	228
161	5	145	146
162	4	145	147
163	5	147	148
164	4	147	149
165	7	149	150
166	4	149	223
167	7	150	151
168	4	151	152
169	4	151	221
170	5	152	153
171	4	152	154
172	5	154	155
173	4	154	156
174	8	156	157
175	4	156	219
176	8	157	158
177	8	157	195
178	9	157	207
179	4	158	159
180	4	158	193
181	5	159	160
182	4	159	161
183	5	161	162
184	4	161	163
185	7	163	164
186	4	163	191
187	7	164	165
188	4	165	166
189	4	165	186
190	5	166	167
191	4	166	168
192	5	168	169
193	4	168	170
194	6	170	171
195	4	170	184
196	4	171	172
197	4	171	182
198	5	172	173
199	4	172	174
200	5	174	175
201	4	174	176
202	1	176	177
203	4	176	180
204	2	177	178
205	2	177	179
206	5	180	181
207	4	180	182
208	5	182	183
209	5	184	185
210	4	184	186
211	8	186	187
212	11	187	188
213	11	187	189
214	11	187	190
215	5	191	192
216	4	191	193
217	5	193	194
218	4	195	196
219	4	195	204
220	5	196	197
221	4	196	198
222	5	198	199
223	4	198	200
224	5	200	201
225	4	200	202
226	5	202	203
227	4	202	204
228	6	204	205
229	12	205	206
230	10	205	207
231	1	207	208
232	4	208	209
233	4	208	217
234	5	209	210
235	4	209	211
236	5	211	212
237	4	211	213
238	5	213	214
239	4	213	215
240	5	215	216
241	4	215	217
242	5	217	218
243	5	219	220
244	4	219	221
245	5	221	222
246	8	223	224
247	4	223	228
248	11	224	225
249	11	224	226
250	11	224	227
251	5	228	229
252	5	230	231
253	4	230	232
254	5	232	233
255	12	235	236
256	6	235	237
257	4	237	238
258	4	237	271
259	5	238	239
260	4	238	240
261	5	240	241
262	4	240	242
263	8	242	243
264	4	242	269
265	8	243	244
266	13	243	261
267	13	243	265
268	4	244	245
269	4	244	259
270	5	245	246
271	4	245	247
272	5	247	248
273	4	247	249
274	6	249	250
275	4	249	254
276	12	250	251
277	14	250	252
278	15	252	253
279	6	254	255
280	4	254	259
281	12	255	256
282	14	255	257
283	15	257	258
284	5	259	260
285	11	261	262
286	11	261	263
287	11	261	264
288	11	265	266
289	11	265	267
290	11	265	268
291	5	269	270
292	4	269	271
293	6	271	272
294	12	272	273
295	14	272	274
296	15	274	275

Angles

1	1	235	237	238
2	4	220	219	221
3	1	8	9	11
4	6	242	243	244
5	4	146	145	147
6	1	176	180	182
7	1	171	182	180
8	4	270	269	271
9	9	273	272	274
10	1	14	15	84
11	1	135	235	237
12	4	160	159	161
13	5	163	164	165
14	4	152	154	155
15	1	8	7	93
16	1	166	165	186
17	4	23	25	26
18	5	118	120	121
19	1	242	269	271
20	6	20	21	70
21	1	250	249	254
22	1	30	32	34
23	1	149	223	224
24	1	150	151	221
25	1	107	108	110
26	1	132	134	135
27	1	106	107	122
28	1	243	244	259
29	6	51	50	52
30	1	200	202	204
31	4	248	247	249
32	6	158	157	207
33	1	136	135	235
34	3	178	177	179
35	4	71	72	73
36	4	77	76	78
37	4	214	213	215
38	4	133	132	134
39	1	211	213	215
40	4	29	30	31
41	1	13	86	91
42	1	154	156	219
43	1	235	237	271
44	1	144	143	230
45	6	22	21	58
46	6	88	87	89
47	6	225	224	226
48	1	247	249	254
49	4	2	3	4
50	4	7	93	94
51	4	86	91	92
52	6	106	124	127
53	1	3	5	7
54	4	2	95	96
55	4	208	217	218
56	4	64	63	65
57	4	201	200	202
58	4	59	61	62
59	4	196	198	199
60	1	237	238	240
61	4	167	166	168
62	1	245	247	249
63	9	251	250	252
64	1	196	195	204
65	1	243	244	245
66	4	36	38	39
67	1	41	98	100
68	1	58	67	68
69	4	145	147	148
70	1	5	7	8
71	4	209	211	212
72	4	138	232	233
73	4	139	141	142
74	1	195	196	198
75	6	261	243	265
76	6	244	243	261
77	4	231	230	232
78	1	157	156	219
79	1	110	112	117
80	1	100	101	103
81	1	70	71	72
82	1	213	215	217
83	1	23	22	56
84	1	112	117	122
85	1	106	107	108
86	1	98	100	101
87	4	176	180	181
88	1	21	58	67
89	4	55	54	56
90	1	249	254	259
91	1	29	49	50
92	6	243	265	267
93	1	87	86	91
94	1	224	223	228
95	1	135	235	236
96	4	241	240	242
97	1	32	34	47
98	6	244	243	265
99	1	74	76	78
100	6	107	106	124
101	1	237	271	272
102	4	242	269	270
103	1	9	8	91
104	1	67	68	70
105	4	30	32	33
106	1	98	100	134
107	3	138	137	234
108	1	14	15	16
109	1	106	105	132
110	1	112	113	114
111	1	117	118	120
112	4	63	65	66
113	4	200	202	203
114	6	20	21	22
115	4	104	103	105
116	1	76	78	80
117	1	28	29	30
118	4	31	30	32
119	4	166	168	169
120	1	254	255	257
121	4	44	43	45
122	1	139	138	232
123	1	35	34	47
124	6	125	124	127
125	4	185	184	186
126	4	180	182	183
127	1	25	27	54
128	6	126	124	127
129	6	106	128	131
130	6	156	157	158
131	6	223	224	225
132	4	3	5	6
133	4	16	18	19
134	4	163	191	192
135	4	197	196	198
136	4	237	238	239
137	4	181	180	182
138	1	21	20	82
139	4	12	11	13
140	6	49	50	53
141	1	34	47	49
142	1	29	49	47
143	1	249	250	251
144	2	40	41	98
145	1	58	59	61
146	3	176	177	178
147	4	195	196	197
148	1	158	159	161
149	4	230	232	233
150	7	202	204	205
151	1	59	58	67
152	4	100	101	102
153	5	27	28	29
154	1	35	36	38
155	6	186	187	190
156	6	263	261	264
157	4	213	215	216
158	1	8	91	86
159	1	144	228	223
160	6	243	265	266
161	1	171	172	174
162	1	13	86	87
163	6	156	157	195
164	1	101	103	105
165	1	134	135	235
166	4	48	47	49
167	4	74	76	77
168	1	72	71	80
169	3	40	41	42
170	1	247	249	250
171	1	152	151	221
172	6	188	187	190
173	8	67	68	69
174	6	226	224	227
175	4	244	245	246
176	1	1	2	95
177	6	129	128	131
178	1	22	56	54
179	4	148	147	149
180	1	207	208	217
181	1	271	272	274
182	4	239	238	240
183	4	54	56	57
184	1	157	158	193
185	4	9	11	12
186	4	162	161	163
187	1	154	156	157
188	1	141	143	230
189	1	11	13	86
190	6	189	187	190
191	7	21	58	59
192	1	208	209	211
193	4	6	5	7
194	6	262	261	263
195	1	3	2	95
196	6	125	124	126
197	4	192	191	193
198	3	1	137	234
199	1	143	144	145
200	4	43	45	46
201	4	223	228	229
202	4	244	259	260
203	1	27	54	56
204	1	110	112	113
205	1	204	205	207
206	1	113	112	117
207	4	175	174	176
208	1	170	171	182
209	7	65	67	68
210	6	266	265	268
211	4	8	91	92
212	1	112	117	118
213	1	22	23	25
214	4	144	228	229
215	4	71	80	81
216	4	111	110	112
217	9	114	113	115
218	6	130	128	131
219	4	34	47	48
220	1	249	254	255
221	6	243	261	262
222	4	143	230	231
223	1	195	204	202
224	1	238	240	242
225	4	66	65	67
226	8	69	68	70
227	8	206	205	207
228	4	61	63	64
229	1	21	22	23
230	4	158	159	160
231	4	83	82	84
232	4	78	80	81
233	1	40	43	45
234	1	18	20	82
235	1	240	242	243
236	1	38	40	41
237	1	36	35	45
238	1	100	134	135
239	4	35	45	46
240	1	243	242	269
241	1	157	158	159
242	4	19	18	20
243	4	79	78	80
244	1	34	35	36
245	4	171	172	173
246	6	158	157	195
247	6	267	265	268
248	1	134	135	136
249	1	137	138	139
250	1	165	186	184
251	6	188	187	189
252	1	108	110	112
253	1	255	254	259
254	4	191	193	194
255	1	11	13	14
256	1	271	272	273
257	1	177	176	180
258	4	107	108	109
259	1	151	152	154
260	9	119	118	120
261	4	102	101	103
262	1	138	139	141
263	9	256	255	257
264	2	157	207	205
265	1	71	80	78
266	4	155	154	156
267	1	147	149	150
268	1	7	8	9
269	4	211	213	214
270	1	164	163	191
271	1	23	25	27
272	1	2	95	93
273	5	113	115	116
274	4	94	93	95
275	1	158	193	191
276	4	22	56	57
277	6	106	124	126
278	8	204	205	206
279	1	207	208	209
280	4	93	95	96
281	1	170	171	172
282	1	105	132	134
283	6	266	265	267
284	6	51	50	53
285	1	100	134	132
286	1	35	45	43
287	4	245	247	248
288	1	15	16	18
289	1	101	100	134
290	3	42	41	98
291	4	60	59	61
292	1	41	98	99
293	1	29	30	32
294	4	26	25	27
295	6	22	21	70
296	6	58	21	70
297	1	18	20	21
298	4	238	240	241
299	1	240	242	269
300	4	142	141	143
301	4	10	9	11
302	1	2	3	5
303	1	7	93	95
304	6	105	106	128
305	6	86	87	90
306	6	223	224	227
307	1	32	34	35
308	2	21	70	68
309	5	250	252	253
310	1	70	71	80
311	1	143	144	228
312	1	59	61	63
313	1	108	107	122
314	1	157	195	204
315	1	28	27	54
316	1	159	161	163
317	4	73	72	74
318	1	103	105	106
319	5	272	274	275
320	6	124	106	128
321	4	33	32	34
322	4	173	172	174
323	1	168	170	171
324	1	36	38	40
325	1	72	74	76
326	1	209	211	213
327	1	195	204	205
328	1	139	141	143
329	1	107	122	117
330	1	150	149	223
331	1	144	145	147
332	1	209	208	217
333	1	159	158	193
334	1	5	7	93
335	4	62	61	63
336	4	199	198	200
337	1	172	174	176
338	4	151	152	153
339	1	238	237	271
340	1	117	118	119
341	2	68	70	71
342	4	138	139	140
343	2	205	207	208
344	1	168	170	184
345	4	76	78	79
346	4	109	108	110
347	4	39	38	40
348	6	243	265	268
349	1	174	176	177
350	1	254	255	256
351	1	245	244	259
352	1	236	235	237
353	1	198	200	202
354	1	14	13	86
355	1	150	151	152
356	1	156	219	221
357	1	165	186	187
358	1	164	165	186
359	4	212	211	213
360	6	106	128	130
361	4	151	221	222
362	1	164	165	166
363	1	172	171	182
364	6	106	124	125
365	1	28	29	49
366	1	103	105	132
367	4	24	23	25
368	4	105	132	133
369	4	8	9	10
370	1	112	113	115
371	1	15	84	82
372	1	16	15	84
373	1	63	65	67
374	4	15	16	17
375	1	184	186	187
376	1	171	170	184
377	6	49	50	52
378	4	17	16	18
379	2	157	207	208
380	1	166	168	170
381	4	58	59	60
382	1	118	117	122
383	4	107	122	123
384	2	1	137	138
385	6	195	157	207
386	1	30	29	49
387	4	158	193	194
388	6	86	87	89
389	6	223	224	226
390	1	149	223	228
391	4	153	152	154
392	1	170	184	186
393	1	16	18	20
394	1	163	191	193
395	4	215	217	218
396	6	105	106	107
397	4	35	36	37
398	6	186	187	189
399	1	25	27	28
400	4	159	161	162
401	1	20	82	84
402	1	165	166	168
403	6	243	261	264
404	1	249	250	252
405	6	52	50	53
406	4	72	74	75
407	3	176	177	179
408	1	161	163	191
409	4	101	103	104
410	4	144	145	146
411	6	242	243	261
412	6	20	21	58
413	2	21	70	71
414	6	129	128	130
415	1	151	221	219
416	4	172	174	175
417	4	216	215	217
418	3	97	1	137
419	4	140	139	141
420	4	117	122	123
421	7	157	195	196
422	1	34	35	45
423	1	21	22	56
424	1	1	2	3
425	4	208	209	210
426	4	254	259	260
427	5	149	150	151
428	1	152	154	156
429	4	203	202	204
430	4	198	200	201
431	4	156	219	220
432	1	99	98	100
433	4	169	168	170
434	1	161	163	164
435	4	37	36	38
436	6	242	243	265
437	6	105	106	124
438	6	106	128	129
439	4	27	54	55
440	1	38	40	43
441	1	7	8	91
442	1	208	217	215
443	1	9	11	13
444	1	141	143	144
445	4	22	23	24
446	4	171	182	183
447	6	156	157	207
448	6	49	50	51
449	1	71	72	74
450	1	174	176	180
451	1	58	67	65
452	1	138	232	230
453	6	262	261	264
454	1	244	245	247
455	4	4	3	5
456	1	137	138	232
457	6	107	106	128
458	6	88	87	90
459	6	225	224	227
460	1	147	149	223
461	6	86	87	88
462	4	170	184	185
463	4	40	43	44
464	1	196	198	200
465	6	186	187	188
466	2	2	1	137
467	1	41	40	43
468	4	15	84	85
469	4	20	82	83
470	6	89	87	90
471	4	210	209	211
472	4	165	166	167
473	4	246	245	247
474	3	2	1	97
475	1	145	144	228
476	6	243	261	263
477	1	145	147	149
478	4	82	84	85
479	4	219	221	222
480	1	143	230	232
481	5	255	257	258
482	1	47	49	50
483	1	61	63	65
484	5	13	14	15
485	1	237	271	269
486	1	269	271	272
487	4	75	74	76
488	4	108	110	111
489	1	244	259	254

Dihedrals

1	1	216	215	217	218
2	1	177	176	180	182
3	1	208	217	215	213
4	1	118	117	122	123
5	17	244	243	261	262
6	1	16	15	84	85
7	6	108	107	106	124
8	1	138	139	141	142
9	6	107	106	105	132
10	5	27	28	29	30
11	14	100	134	135	136
12	6	165	186	187	190
13	1	79	78	80	81
14	1	71	80	78	76
15	1	207	208	217	218
16	6	225	224	223	228
17	1	145	144	228	223
18	1	144	145	147	148
19	1	164	163	191	193
20	1	19	18	20	21
21	1	14	13	86	91
22	14	134	135	235	236
23	2	68	70	71	80
24	1	157	195	196	197
25	4	168	170	171	182
26	1	211	213	215	217
27	1	175	174	176	177
28	1	106	105	132	134
29	17	126	124	106	128
30	1	29	30	32	33
31	6	242	243	244	259
32	1	171	172	174	176
33	6	154	156	157	195
34	6	244	243	242	269
35	6	29	49	50	53
36	6	204	195	157	207
37	15	42	41	98	99
37	16	42	41	98	99
38	1	243	244	259	260
39	1	8	7	93	95
40	1	106	107	122	117
41	17	107	106	124	126
42	1	100	101	103	105
43	2	139	138	137	234
44	6	18	20	21	70
45	1	41	40	43	44
46	1	112	117	122	123
47	1	195	204	202	203
48	1	247	249	254	259
49	1	35	45	43	40
50	6	156	157	195	204
51	14	195	204	205	206
52	1	147	145	144	228
53	1	241	240	242	243
54	1	197	196	195	204
55	1	100	134	132	133
56	1	3	5	7	93
57	6	105	106	107	108
58	1	103	101	100	134
59	1	103	105	132	133
60	17	125	124	106	128
61	1	160	159	161	163
62	1	87	86	91	92
63	1	140	139	138	232
64	1	5	7	93	94
65	1	170	171	182	180
66	1	161	163	191	192
67	1	7	93	95	96
68	17	261	243	265	268
69	5	25	27	28	29
70	1	33	32	34	35
71	1	72	71	80	81
72	17	264	261	243	265
73	1	239	238	240	241
74	19	273	272	274	275
74	20	273	272	274	275
75	1	210	209	208	217
76	1	208	209	211	212
77	14	237	271	272	273
78	17	242	243	265	267
79	14	249	254	255	256
80	1	245	247	249	250
81	1	159	158	193	191
82	1	246	245	247	249
83	1	152	151	221	219
84	9	67	68	70	71
85	1	30	29	49	47
86	1	164	165	186	187
87	6	242	243	244	245
88	6	122	107	106	124
89	5	13	14	15	84
90	1	13	86	91	92
91	6	128	106	105	132
92	1	16	15	84	82
93	1	36	38	40	43
94	1	64	63	65	67
95	1	244	259	254	249
96	1	1	2	3	4
97	1	113	112	117	122
98	14	251	250	249	254
99	14	269	271	272	274
100	6	158	157	156	219
101	6	193	158	157	207
102	1	159	161	163	191
103	18	249	250	252	253
104	1	35	36	38	40
105	1	163	191	193	194
106	1	98	100	101	103
107	1	237	238	240	242
108	1	37	36	38	39
109	6	240	242	243	261
110	1	9	11	13	86
111	1	139	141	143	230
112	1	238	237	271	269
113	1	245	244	259	260
114	1	48	47	49	50
115	1	35	34	47	49
116	2	95	2	1	137
117	1	200	202	204	205
118	1	167	166	168	170
119	7	58	21	70	71
119	8	58	21	70	71
120	1	250	249	254	259
121	6	67	58	21	70
122	1	237	271	269	270
123	7	20	21	70	68
123	8	20	21	70	68
124	1	238	240	242	269
125	1	17	16	15	84
126	14	247	249	250	251
127	1	239	238	237	271
128	2	95	2	1	97
129	6	22	21	58	67
130	1	143	230	232	233
131	1	32	30	29	49
132	1	235	237	238	239
133	1	157	158	159	161
134	1	6	5	7	8
135	1	140	139	141	143
136	6	23	22	21	58
137	1	137	138	232	230
138	1	164	165	166	168
139	1	4	3	2	95
140	1	2	3	5	7
141	1	211	213	215	216
142	1	72	71	80	78
143	1	111	110	112	113
144	1	159	161	163	164
145	4	168	170	171	172
146	14	202	204	205	206
147	6	59	58	21	70
148	1	31	30	32	34
149	1	21	22	56	54
150	1	77	76	78	80
151	1	171	172	174	175
152	1	58	59	61	63
153	1	241	240	242	269
154	1	7	8	9	10
155	17	107	106	128	130
156	6	196	195	157	207
157	17	107	106	124	125
158	6	103	105	106	124