Title

11000 atoms
11375 bonds
19500 angles
27875 dihedrals
9750 impropers

11 atom types
15 bond types
7 angle types
14 dihedral types
2 improper types
-10.36214755 108.6878973 xlo xhi
-10.65801882 110.8949416 ylo yhi
-11.20193727 110.8680106 zlo zhi
0.0 0.0 0.0 xy xz yz

Masses

1	15.99943
2	12.01078
3	1.007947
4	12.01078
5	1.007947
6	12.01078
7	14.00672
8	15.99943
9	15.99943
10	1.007947
11	35.4532


Pair Coeffs

1	0.16846514	3.0251065
2	0.086879315	3.4806469
3	0.015611343	2.5725815
4	0.10884061	3.3795318
5	0.015779483	2.6445434
6	0.21	3.3996695
7	0.16769152	3.206876
8	0.2102061	3.0398122
9	0.20947353	2.99716
10	1.2326e-05	0.53453923
11	0.2656001	3.3075278

Bond Coeffs

1 harmonic	425.69104206635	1.362945806494
2 harmonic	300.03137914615	1.451203938761
3 harmonic	360.7852444772	1.387193227181
4 harmonic	397.2545789619	1.085358495916
5 harmonic	289.73813263395	1.498646816465
6 harmonic	264.62148576755	1.52190126495
7 harmonic	301.15400723785	1.345741232799
8 harmonic	370.04670688625	1.093899492634
9 harmonic	395.4694036448	1.466849154707
10 harmonic	811.0999739605001	1.165766525576
11 harmonic	582.698766451	1.225198386222
12 harmonic	279.1350963404	1.454628925034
13 harmonic	385.7604595587	1.369745182308
14 harmonic	543.5267831885	0.9716763312559
15 harmonic	218.0227703685	1.746066037062


Angle Coeffs

1 harmonic	57.8982893754	126.8062420451
2 harmonic	65.09061609600001	110.3538806181
3 harmonic	34.066775159195	129.1835929926
4 harmonic	53.20531626545	116.5475862634
5 harmonic	201.41175231035	127.4691416191
6 harmonic	48.776492647595	115.6030999533
7 harmonic	33.56981613361	180


Dihedral Coeffs

1 fourier 1	3.661930099076	2	180
2 fourier 1	1.532232714475	2	180
3 fourier 1	0.457973137376	1	0
4 fourier 1	0.02664938770063	3	0
5 fourier 1	0.1155372516788	3	0
6 fourier 1	0.1040663847541	3	0
7 fourier 1	2.779853741805	2	180
8 fourier 1	0.9974165607242	2	180
9 fourier 1	0.09223874044423	3	0
10 fourier 1	0.3159935921949	2	180
11 fourier 1	0.3247796806857	1	180
12 fourier 1	0	1	0
13 fourier 1	0.1911926717192	3	0
14 fourier 1	0.8283030590042	2	180


Improper Coeffs

1 0.3666666666666667	-1	2
2 3.5	-1	2


Atoms

1	4	1	-9.5260414e-05	-0.75081914	1.5848388	-3.4511378
2	4	2	0.091828658	-0.10427772	1.4871052	-2.2183117
3	4	2	-0.24988398	0.68623571	2.4890242	-1.8256631
4	4	3	0.23046958	0.81077734	3.361476	-2.4547571
5	4	2	-0.150501	1.3953334	2.4242426	-0.53564534
6	4	3	0.21535137	1.971401	3.2910901	-0.23741957
7	4	2	-0.22623743	1.3266344	1.3269014	0.25088867
8	4	4	0.023799571	2.0159631	1.3266479	1.6399131
9	4	2	-0.2262374	3.4011765	2.0218478	1.6074953
10	4	2	-0.15118286	4.2238482	1.8778643	0.54438897
11	4	3	0.21535137	3.9244413	1.3025955	-0.32147204
12	4	2	-0.21777344	5.5633458	2.4909338	0.52526279
13	4	3	0.23035757	6.1827034	2.381971	-0.35670559
14	4	2	0.31235573	6.0170624	3.1702601	1.5822718
15	4	1	-0.4149057	7.2900943	3.7375791	1.5198074
16	4	2	-0.091252224	5.1623394	3.2989956	2.7951287
17	4	4	-0.13195884	5.6724004	4.0271686	4.0084492
18	4	5	0.099179982	5.8970744	5.0811801	3.7441875
19	4	5	0.099179982	6.5974492	3.5349666	4.3759406
20	4	5	0.099179982	4.9322435	4.0305099	4.8372138
21	4	2	-0.26556152	3.9343453	2.7461367	2.8016601
22	4	3	0.21553621	3.3364635	2.8237553	3.6966795
23	4	4	-0.13170794	1.0350219	2.1030563	2.5578076
24	4	5	0.088121503	1.0162373	3.1820347	2.2919399
25	4	5	0.088121503	0.0019109804	1.7032332	2.454655
26	4	5	0.088121503	1.2946715	2.0080782	3.6330355
27	4	4	-0.09315467	2.2080713	-0.10044943	2.2684517
28	4	4	-0.12233318	3.2763153	-1.0198622	1.6388678
29	4	6	0.18999107	2.989257	-1.3924886	0.24994123
30	4	7	-0.28886327	2.7731787	-1.6927678	-0.84595685
31	4	5	0.12120871	3.3235933	-1.9566197	2.2346632
32	4	5	0.12120871	4.2822172	-0.55677183	1.6958476
33	4	5	0.11362444	2.5307317	0.038941587	3.3249769
34	4	5	0.11362444	1.2461294	-0.64321474	2.3542634
35	4	2	-0.26815054	0.37918431	0.24592215	-0.16250474
36	4	3	0.21553618	0.21248285	-0.60525346	0.47802919
37	4	2	-0.079517693	-0.28441416	0.30429598	-1.3330664
38	4	4	-0.13508123	-1.2129549	-0.80938331	-1.7346638
39	4	5	0.099179982	-1.2614746	-1.6127223	-0.96836527
40	4	5	0.099179982	-2.2381522	-0.40747222	-1.8762971
41	4	5	0.099179982	-0.86076037	-1.2623643	-2.6850896
42	5	2	0.63000977	7.704636	4.2821015	2.3133108
43	5	8	-0.48318783	8.8426775	4.050664	2.6830448
44	1	1	-9.5260414e-05	-1.3627221	0.86042339	-3.8044537
45	1	2	0.091828658	-1.8814684	-0.14669572	-2.9902532
46	1	2	-0.24988398	-2.681505	-1.065309	-3.5370915
47	1	3	0.23046958	-2.9100617	-1.0276886	-4.5948172
48	1	2	-0.150501	-3.259287	-2.1429427	-2.7140322
49	1	3	0.21535137	-3.847593	-2.8974468	-3.2193575
50	1	2	-0.22623743	-3.0591684	-2.1912943	-1.3769893
51	1	4	0.023799571	-3.6117525	-3.3850131	-0.55574931
52	1	2	-0.2262374	-5.0275697	-3.8117583	-1.0200945
53	1	2	-0.11006287	-5.9405263	-2.8889967	-1.4001618
54	1	3	0.21535137	-5.695035	-1.8348828	-1.4194509
55	1	2	-0.38248572	-7.3055584	-3.279397	-1.7932825
56	1	3	0.23599881	-7.9990741	-2.5160823	-2.12396
57	1	2	0.29223359	-7.6893638	-4.5575255	-1.7423604
58	1	9	-0.63487637	-8.9909253	-4.8824887	-2.1272065
59	1	10	0.44018692	-9.3425075	-5.8314601	-2.1105228
60	1	2	-0.26365343	-6.731044	-5.5947712	-1.2716202
61	1	4	-0.11790569	-7.1595308	-7.0333856	-1.1694942
62	1	5	0.099179982	-7.4623915	-7.4035311	-2.1710074
63	1	5	0.099179982	-8.0185	-7.1171752	-0.47056348
64	1	5	0.099179982	-6.3443865	-7.6877587	-0.79248956
65	1	2	-0.2277427	-5.4814197	-5.2330924	-0.92460916
66	1	3	0.21553621	-4.8047118	-5.9909975	-0.55902838
67	1	4	-0.13170794	-2.5891669	-4.5268059	-0.7975299
68	1	5	0.088121503	-2.6515383	-4.896905	-1.8438862
69	1	5	0.088121503	-1.551151	-4.1671822	-0.61954453
70	1	5	0.088121503	-2.7392883	-5.3839209	-0.10958475
71	1	4	-0.09315467	-3.6685422	-3.1351719	0.99330341
72	1	4	-0.12233318	-4.7434644	-2.159442	1.5207219
73	1	6	0.18999107	-4.5715861	-0.78178868	1.0490532
74	1	7	-0.28886327	-4.4461213	0.30844111	0.68241094
75	1	5	0.12120871	-4.6854709	-2.1439608	2.6300461
76	1	5	0.12120871	-5.7615062	-2.5135407	1.2624526
77	1	5	0.11362444	-3.8964808	-4.1091502	1.4829648
78	1	5	0.11362444	-2.6758997	-2.8576949	1.4014326
79	1	2	-0.26815054	-2.1011616	-1.2034482	-0.79134097
80	1	3	0.21553618	-1.8299353	-1.2608145	0.25065539
81	1	2	-0.079517693	-1.5566474	-0.2253061	-1.5400788
82	1	4	-0.13508123	-0.61493322	0.76955412	-0.91912676
83	1	5	0.099179982	-0.45181596	0.5750145	0.16226406
84	1	5	0.099179982	0.36975177	0.71984823	-1.4297321
85	1	5	0.099179982	-1.0323052	1.7931682	-1.0248045
86	2	2	0.46920764	7.1203653	5.0516529	2.805893
87	2	8	-0.55388206	5.9538973	5.2241485	2.4966138
88	2	11	-0.074340985	7.8545469	6.0497783	4.0477384
89	4	1	-9.5260414e-05	-0.22083819	3.8615037	22.58768
90	4	2	0.091828658	0.26218411	2.6060391	22.959063
91	4	2	-0.24988398	1.059906	2.5138538	24.025866
92	4	3	0.23046958	1.3152037	3.4010044	24.591754
93	4	2	-0.150501	1.5999419	1.2097534	24.448767
94	4	3	0.21535137	2.1883641	1.1828364	25.357201
95	4	2	-0.22623743	1.3665222	0.086174419	23.734205
96	4	4	0.023799571	1.8788856	-1.2817263	24.25468
97	4	2	-0.2262374	3.298513	-1.18115	24.869263
98	4	2	-0.15118286	4.2346939	-0.37376524	24.32208
99	4	3	0.21535137	4.0082261	0.24494312	23.464055
100	4	2	-0.21777344	5.6022545	-0.30993729	24.866302
101	4	3	0.23035757	6.3170419	0.37248981	24.422774
102	4	2	0.31235573	5.9646481	-1.0859595	25.89152
103	4	1	-0.4149057	7.26882	-0.99046291	26.377708
104	4	2	-0.091252224	4.9773961	-2.0319275	26.481964
105	4	4	-0.13195884	5.3794911	-2.9406147	27.61119
106	4	5	0.099179982	5.7006168	-2.333429	28.482659
107	4	5	0.099179982	6.2197349	-3.5893123	27.285292
108	4	5	0.099179982	4.5449506	-3.5973535	27.938192
109	4	2	-0.26556152	3.725601	-2.0769111	25.987342
110	4	3	0.21553621	3.0285156	-2.7860204	26.406607
111	4	4	-0.13170794	0.84346599	-1.6967814	25.333208
112	4	5	0.088121503	0.92522023	-1.0453173	26.229948
113	4	5	0.088121503	-0.19224234	-1.6105208	24.936113
114	4	5	0.088121503	0.96279074	-2.7536341	25.651607
115	4	4	-0.09315467	1.902459	-2.4201382	23.172074
116	4	4	-0.12233318	2.980006	-2.3350338	22.070035
117	4	6	0.18999107	2.8426506	-1.1624906	21.200181
118	4	7	-0.28886327	2.7441987	-0.24110868	20.507929
119	4	5	0.12120871	2.8949354	-3.2394061	21.430038
120	4	5	0.12120871	3.9984008	-2.3514781	22.508372
121	4	5	0.11362444	2.1012035	-3.3804864	23.699347
122	4	5	0.11362444	0.90508763	-2.5705308	22.713901
123	4	2	-0.26815054	0.41094102	0.18923359	22.588205
124	4	3	0.21553618	0.11381839	-0.69462338	22.046829
125	4	2	-0.079517693	-0.099084207	1.3751891	22.204319
126	4	4	-0.13508123	-1.0394366	1.4525597	21.032354
127	4	5	0.099179982	-1.231927	0.45516587	20.581717
128	4	5	0.099179982	-2.012246	1.8740849	21.361869
129	4	5	0.099179982	-0.60246774	2.1052274	20.247736
130	5	2	0.63000977	7.616269	-1.5702059	27.178442
131	5	8	-0.48318783	8.683572	-2.1522795	27.092073
132	1	1	-9.5260414e-05	-0.8290534	3.9973243	21.790395
133	1	2	0.091828658	-1.5059558	2.9440667	21.17496
134	1	2	-0.24988398	-2.2889667	3.210171	20.126617
135	1	3	0.23046958	-2.3832434	4.2251721	19.761484
136	1	2	-0.150501	-3.0298559	2.1304193	19.450028
137	1	3	0.21535137	-3.5979434	2.3910288	18.566799
138	1	2	-0.22623743	-2.9986801	0.85927693	19.911866
139	1	4	0.023799571	-3.7216776	-0.26586157	19.126954
140	1	2	-0.2262374	-5.093829	0.19390156	18.571901
141	1	2	-0.11006287	-5.8935186	1.0141565	19.291003
142	1	3	0.21535137	-5.5818154	1.3939853	20.255557
143	1	2	-0.38248572	-7.2218237	1.415312	18.79608
144	1	3	0.23599881	-7.8202353	2.1002867	19.38402
145	1	2	0.29223359	-7.6884675	0.94135593	17.638012
146	1	9	-0.63487637	-8.9508134	1.3507858	17.206017
147	1	10	0.44018692	-9.3606741	1.0273977	16.338913
148	1	2	-0.26365343	-6.8621575	-0.011229879	16.847035
149	1	4	-0.11790569	-7.3894139	-0.58625132	15.56057
150	1	5	0.099179982	-7.5897842	0.23429853	14.840632
151	1	5	0.099179982	-8.3311793	-1.1403934	15.758957
152	1	5	0.099179982	-6.6693758	-1.2894783	15.089599
153	1	2	-0.2277427	-5.6443072	-0.36506109	17.299178
154	1	3	0.21553621	-5.0664845	-1.0776879	16.729716
155	1	4	-0.13170794	-2.7508836	-0.61345181	17.967398
156	1	5	0.088121503	-2.7075554	0.215195	17.227674
157	1	5	0.088121503	-1.7220199	-0.78407247	18.355745
158	1	5	0.088121503	-3.0377725	-1.545272	17.438383
159	1	4	-0.09315467	-3.9522404	-1.584068	19.948162
160	1	4	-0.12233318	-5.0203344	-1.5534635	21.063472
161	1	6	0.18999107	-4.7057393	-0.62738405	22.155877
162	1	7	-0.28886327	-4.4680445	0.10086564	23.023011
163	1	5	0.12120871	-5.0979886	-2.5723962	21.499303
164	1	5	0.12120871	-6.0192201	-1.3099242	20.64945
165	1	5	0.11362444	-4.2992212	-2.3673465	19.236518
166	1	5	0.11362444	-3.0017041	-1.9902523	20.348658
167	1	2	-0.26815054	-2.059619	0.56190799	21.037183
168	1	3	0.21553618	-1.9223904	-0.4519504	21.37758
169	1	2	-0.079517693	-1.3670435	1.5407437	21.650441
170	1	4	-0.13508123	-0.44800951	1.2158874	22.795866
171	1	5	0.099179982	-0.43130372	0.12925225	23.025657
172	1	5	0.099179982	0.58679077	1.5300193	22.544266
173	1	5	0.099179982	-0.78416531	1.7544654	23.706957
174	2	2	0.46920764	7.025473	-1.6524726	28.084207
175	2	8	-0.55388206	5.9188985	-1.144042	28.139408
176	2	11	-0.074340985	7.6630021	-2.5167031	29.471334
177	4	1	-9.5260414e-05	-0.99688638	-1.2632729	41.3332
178	4	2	0.091828658	-0.47506789	-0.34651834	42.246816
179	4	2	-0.24988398	-0.17263365	0.88288853	41.822531
180	4	3	0.23046958	-0.3405495	1.1575841	40.788708
181	4	2	-0.150501	0.38875095	1.8802399	42.750593
182	4	3	0.21535137	0.55510315	2.8799923	42.369753
183	4	2	-0.22623743	0.68107027	1.5632424	44.031833
184	4	4	0.023799571	1.1905354	2.65968	45.002828
185	4	2	-0.2262374	2.1952079	3.6247441	44.322788
186	4	2	-0.15118286	3.100181	3.1658942	43.429371
187	4	3	0.21535137	3.1250843	2.1230151	43.142879
188	4	2	-0.21777344	4.0935419	4.0648406	42.816506
189	4	3	0.23035757	4.7823157	3.6690293	42.080116
190	4	2	0.31235573	4.1529745	5.3532553	43.164451
191	4	1	-0.4149057	5.1069115	6.1696638	42.556303
192	4	2	-0.091252224	3.2112165	5.8816028	44.190164
193	4	4	-0.13195884	3.2895668	7.3203027	44.622077
194	4	5	0.099179982	3.1108441	7.982216	43.749619
195	4	5	0.099179982	4.2965136	7.5283499	45.041365
196	4	5	0.099179982	2.5355799	7.5659045	45.400458
197	4	2	-0.26556152	2.2979663	5.0572238	44.737922
198	4	3	0.21553621	1.6398849	5.4465823	45.499417
199	4	4	-0.13170794	-0.091796756	3.4192378	45.434433
200	4	5	0.088121503	-0.50345538	4.0108678	44.588416
201	4	5	0.088121503	-0.87577462	2.7052223	45.771149
202	4	5	0.088121503	0.087905402	4.1033188	46.290175
203	4	4	-0.09315467	1.8639408	2.1064268	46.310119
204	4	4	-0.12233318	3.2562167	1.4536966	46.174649
205	4	6	0.18999107	3.2603351	0.23788812	45.354794
206	4	7	-0.28886327	3.2755726	-0.72211758	44.709808
207	4	5	0.12120871	3.6096655	1.1745868	47.190471
208	4	5	0.12120871	3.9948115	2.1743562	45.768859
209	4	5	0.11362444	2.0123272	2.9668785	47.001053
210	4	5	0.11362444	1.1838882	1.432691	46.867702
211	4	2	-0.26815054	0.26709342	0.20933754	44.514157
212	4	3	0.21553618	0.38706492	-0.058394968	45.551702
213	4	2	-0.079517693	-0.26065104	-0.7031453	43.675798
214	4	4	-0.13508123	-0.64565407	-2.066144	44.183496
215	4	5	0.099179982	-0.44692031	-2.1809333	45.270809
216	4	5	0.099179982	-1.7295518	-2.2353378	44.012729
217	4	5	0.099179982	-0.062693584	-2.8419251	43.644179
218	5	2	0.63000977	5.2059882	7.1876492	42.784089
219	5	8	-0.48318783	6.3071646	7.6570542	43.013162
220	1	1	-9.5260414e-05	-1.2464154	-2.2090768	41.592478
221	1	2	0.091828658	-1.4044811	-2.606151	42.920506
222	1	2	-0.24988398	-1.7342527	-3.8746061	43.175874
223	1	3	0.23046958	-1.8647545	-4.5773314	42.362497
224	1	2	-0.150501	-1.9199597	-4.3370733	44.563026
225	1	3	0.21535137	-2.1226979	-5.3887575	44.716621
226	1	2	-0.22623743	-1.8361675	-3.4810374	45.607177
227	1	4	0.023799571	-1.953619	-4.017512	47.057401
228	1	2	-0.2262374	-3.0463195	-5.1083079	47.193179
229	1	2	-0.11006287	-4.207855	-5.0160135	46.506341
230	1	3	0.21535137	-4.38924	-4.1965937	45.822641
231	1	2	-0.38248572	-5.27435	-6.0194288	46.667632
232	1	3	0.23599881	-6.1771287	-5.9310308	46.075908
233	1	2	0.29223359	-5.1359083	-7.0268799	47.533304
234	1	9	-0.63487637	-6.1702448	-7.9564097	47.651171
235	1	10	0.44018692	-6.1267139	-8.7411284	48.288945
236	1	2	-0.26365343	-3.8964357	-7.1282184	48.351406
237	1	4	-0.11790569	-3.7413634	-8.2334769	49.360365
238	1	5	0.099179982	-3.7870645	-9.215954	48.846156
239	1	5	0.099179982	-4.5591076	-8.1712543	50.109215
240	1	5	0.099179982	-2.7732868	-8.173238	49.902579
241	1	2	-0.2277427	-2.9206269	-6.2144972	48.191094
242	1	3	0.21553621	-2.0384627	-6.2837073	48.809964
243	1	4	-0.13170794	-0.55148238	-4.6059517	47.366563
244	1	5	0.088121503	-0.37254323	-5.5300024	46.775094
245	1	5	0.088121503	0.24593333	-3.8727206	47.111641
246	1	5	0.088121503	-0.4182001	-4.842924	48.441985
247	1	4	-0.09315467	-2.2398976	-2.9130195	48.135988
248	1	4	-0.12233318	-3.6510586	-2.2855044	48.158935
249	1	6	0.18999107	-3.9852145	-1.5411356	46.940659
250	1	7	-0.28886327	-4.2599265	-0.95177995	45.9836
251	1	5	0.12120871	-3.7022192	-1.5746145	49.011121
252	1	5	0.12120871	-4.4251658	-3.0568673	48.344017
253	1	5	0.11362444	-2.1151653	-3.3816234	49.13859
254	1	5	0.11362444	-1.4727045	-2.1130116	48.118554
255	1	2	-0.26815054	-1.3916997	-2.083586	45.313614
256	1	3	0.21553618	-1.2129983	-1.3891887	46.118903
257	1	2	-0.079517693	-1.2045683	-1.6576696	44.049714
258	1	4	-0.13508123	-0.78089944	-0.23946927	43.782569
259	1	5	0.099179982	-0.65175487	0.34369162	44.719108
260	1	5	0.099179982	0.18722097	-0.23566694	43.238951
261	1	5	0.099179982	-1.5510739	0.26890237	43.164878
262	2	2	0.46920764	4.3280298	7.823548	42.81635
263	2	8	-0.55388206	3.218241	7.3394342	42.674721
264	2	11	-0.074340985	4.5049308	9.5501529	43.071298
265	4	1	-9.5260414e-05	-2.4804413	1.8049301	69.642262
266	4	2	0.091828658	-1.4768884	1.7375716	68.674908
267	4	2	-0.24988398	-0.86211892	2.8642525	68.306704
268	4	3	0.23046958	-1.1376141	3.8073125	68.761877
269	4	2	-0.150501	0.19706162	2.8411244	67.282612
270	4	3	0.21535137	0.70639687	3.772263	67.06866
271	4	2	-0.22623743	0.5265442	1.7002781	66.636529
272	4	4	0.023799571	1.7032512	1.6956751	65.626627
273	4	2	-0.2262374	1.7289768	2.9739906	64.750032
274	4	2	-0.15118286	0.5805763	3.5354943	64.310027
275	4	3	0.21535137	-0.38312048	3.1275233	64.584147
276	4	2	-0.21777344	0.59493982	4.7195606	63.433525
277	4	3	0.23035757	-0.34482612	5.1623989	63.126802
278	4	2	0.31235573	1.7502278	5.2428599	63.013908
279	4	1	-0.4149057	1.717555	6.3666511	62.18784
280	4	2	-0.091252224	3.0352454	4.6149095	63.429304
281	4	4	-0.13195884	4.3439698	5.1674895	62.934895
282	4	5	0.099179982	4.4559385	6.2190547	63.27094
283	4	5	0.099179982	4.3673397	5.1315334	61.825305
284	4	5	0.099179982	5.2134806	4.5900628	63.315977
285	4	2	-0.26556152	3.0153394	3.5397763	64.24008
286	4	3	0.21553621	3.9524836	3.0784813	64.511216
287	4	4	-0.13170794	2.9733892	1.614754	66.5142
288	4	5	0.088121503	3.1281828	2.5652656	67.068997
289	4	5	0.088121503	2.8808019	0.79167075	67.257018
290	4	5	0.088121503	3.8889748	1.3953386	65.925886
291	4	4	-0.09315467	1.728795	0.45259014	64.666074
292	4	4	-0.12233318	0.6584323	0.38627812	63.555774
293	4	6	0.18999107	-0.7132079	0.2840595	64.064227
294	4	7	-0.28886327	-1.7992722	0.20344543	64.453862
295	4	5	0.12120871	0.85491718	-0.51541835	62.936856
296	4	5	0.12120871	0.73576273	1.25971	62.877044
297	4	5	0.11362444	2.7042008	0.46344863	64.129185
298	4	5	0.11362444	1.7470523	-0.50072313	65.230123
299	4	2	-0.26815054	-0.11368473	0.43468018	67.111335
300	4	3	0.21553618	0.18622093	-0.51480415	66.697681
301	4	2	-0.079517693	-1.0720256	0.44521415	68.057621
302	4	4	-0.13508123	-1.716157	-0.84093344	68.498834
303	4	5	0.099179982	-1.3001758	-1.7232543	67.966489
304	4	5	0.099179982	-1.5507223	-0.98686986	69.586931
305	4	5	0.099179982	-2.8066506	-0.79954051	68.294745
306	5	2	0.63000977	2.5868604	6.8251708	61.824433
307	5	8	-0.48318783	2.6773512	7.1112834	60.643181
308	1	1	-9.5260414e-05	-2.9829007	0.9875741	69.963974
309	1	2	0.091828658	-2.5299165	-0.31132894	69.73167
310	1	2	-0.24988398	-3.2543818	-1.3349768	70.190185
311	1	3	0.23046958	-4.1794429	-1.1518437	70.722314
312	1	2	-0.150501	-2.8106434	-2.7240801	69.975613
313	1	3	0.21535137	-3.4672302	-3.5161793	70.310586
314	1	2	-0.22623743	-1.6287788	-3.0007725	69.378364
315	1	4	0.023799571	-1.2329923	-4.4728443	69.093572
316	1	2	-0.2262374	-1.6121198	-5.41912	70.261086
317	1	2	-0.11006287	-1.4906215	-5.0176176	71.546957
318	1	3	0.21535137	-1.156533	-4.0172816	71.790897
319	1	2	-0.38248572	-1.7982828	-5.9262973	72.664953
320	1	3	0.23599881	-1.721641	-5.5591238	73.68096
321	1	2	0.29223359	-2.1656415	-7.1893705	72.434289
322	1	9	-0.63487637	-2.4508197	-8.0141464	73.523412
323	1	10	0.44018692	-2.7333694	-8.9800304	73.41539
324	1	2	-0.26365343	-2.2524296	-7.685718	71.03359
325	1	4	-0.11790569	-2.6252493	-9.1169221	70.757362
326	1	5	0.099179982	-3.6377347	-9.3226784	71.162699
327	1	5	0.099179982	-1.8898969	-9.7933208	71.242227
328	1	5	0.099179982	-2.6368545	-9.3446101	69.669786
329	1	2	-0.2277427	-1.9810334	-6.8470721	70.015844
330	1	3	0.21553621	-2.021193	-7.2269985	69.005871
331	1	4	-0.13170794	-2.0221377	-4.8438524	67.810048
332	1	5	0.088121503	-3.1105091	-4.9176351	68.023891
333	1	5	0.088121503	-1.8762676	-4.0704407	67.023256
334	1	5	0.088121503	-1.6832438	-5.8018872	67.365333
335	1	4	-0.09315467	0.29028335	-4.6850792	68.777664
336	1	4	-0.12233318	1.2884263	-4.5497564	69.948593
337	1	6	0.18999107	1.3363346	-3.2045575	70.530045
338	1	7	-0.28886327	1.3818539	-2.1469741	70.99718
339	1	5	0.12120871	2.305015	-4.7875081	69.568824
340	1	5	0.12120871	1.0679373	-5.2883378	70.745073
341	1	5	0.11362444	0.41528809	-5.728872	68.40993
342	1	5	0.11362444	0.6239842	-4.0604253	67.924814
343	1	2	-0.26815054	-0.86601463	-1.8503761	68.802708
344	1	3	0.21553618	0.031183604	-2.0244815	68.230577
345	1	2	-0.079517693	-1.2732134	-0.57903044	68.980852
346	1	4	-0.13508123	-0.4730839	0.56009824	68.41135
347	1	5	0.099179982	0.4255186	0.20831579	67.861239
348	1	5	0.099179982	-1.1025789	1.1416065	67.705392
349	1	5	0.099179982	-0.13393042	1.224477	69.233985
350	2	2	0.46920764	3.4064581	7.0447651	62.4999
351	2	8	-0.55388206	3.3539635	6.6803759	63.66202
352	2	11	-0.074340985	4.8082214	7.9259737	61.920256
353	4	1	-9.5260414e-05	0.76393638	-0.90741955	93.392975
354	4	2	0.091828658	1.0279699	-0.85059269	92.023857
355	4	2	-0.24988398	2.0782196	-1.5206004	91.543242
356	4	3	0.23046958	2.7031787	-2.101865	92.209575
357	4	2	-0.150501	2.3994662	-1.4816293	90.105729
358	4	3	0.21535137	3.2226329	-2.0942694	89.760351
359	4	2	-0.22623743	1.6911525	-0.71475006	89.246833
360	4	4	0.023799571	2.002978	-0.76386232	87.728638
361	4	2	-0.2262374	3.5255298	-0.82819256	87.444266
362	4	2	-0.15118286	4.4016841	-0.12974212	88.200729
363	4	3	0.21535137	4.0670469	0.46401058	89.04083
364	4	2	-0.21777344	5.845316	-0.14213958	87.90705
365	4	3	0.23035757	6.5217069	0.40306967	88.554033
366	4	2	0.31235573	6.3206915	-0.81177153	86.853379
367	4	1	-0.4149057	7.6951605	-0.7996775	86.614524
368	4	2	-0.091252224	5.3786039	-1.54394	85.962006
369	4	4	-0.13195884	5.892115	-2.2709386	84.749436
370	4	5	0.099179982	6.6085136	-3.0585491	85.062
371	4	5	0.099179982	6.4055794	-1.5532989	84.075363
372	4	5	0.099179982	5.0747738	-2.7575629	84.175116
373	4	2	-0.26556152	4.061489	-1.5381911	86.242791
374	4	3	0.21553621	3.3872853	-2.050072	85.573482
375	4	4	-0.13170794	1.298105	-2.0535916	87.231307
376	4	5	0.088121503	1.8133775	-2.9590725	87.618388
377	4	5	0.088121503	0.24149471	-2.0816968	87.578585
378	4	5	0.088121503	1.2585588	-2.1153839	86.123529
379	4	4	-0.09315467	1.4096938	0.43570053	86.905452
380	4	4	-0.12233318	2.0675173	1.820364	87.086605
381	4	6	0.18999107	1.942181	2.35975	88.444443
382	4	7	-0.28886327	1.8496136	2.7950227	89.512066
383	4	5	0.12120871	1.5710775	2.534297	86.394818
384	4	5	0.12120871	3.1379338	1.7921498	86.798593
385	4	5	0.11362444	1.5324828	0.19465987	85.825356
386	4	5	0.11362444	0.31269915	0.51908726	87.035604
387	4	2	-0.26815054	0.47336714	-0.031541489	89.782834
388	4	3	0.21553618	-0.18138252	0.51152485	89.120297
389	4	2	-0.079517693	0.16408983	-0.074494166	91.092982
390	4	4	-0.13508123	-1.0540849	0.64252633	91.608425
391	4	5	0.099179982	-1.6108053	1.1605826	90.798116
392	4	5	0.099179982	-1.7419081	-0.086558842	92.085873
393	4	5	0.099179982	-0.74842254	1.4041236	92.356143
394	5	2	0.63000977	8.1318023	-1.3039337	85.806399
395	5	8	-0.48318783	8.9457816	-0.73469699	85.100132
396	1	1	-9.5260414e-05	-0.016152798	-0.42284243	93.818041
397	1	2	0.091828658	-1.083198	0.079869458	93.073055
398	1	2	-0.24988398	-2.072835	0.70769648	93.712893
399	1	3	0.23046958	-2.0351177	0.82871566	94.788239
400	1	2	-0.150501	-3.2243741	1.2477817	92.968031
401	1	3	0.21535137	-3.9654474	1.8035833	93.527164
402	1	2	-0.22623743	-3.3498986	1.0604863	91.634153
403	1	4	0.023799571	-4.5303023	1.7141695	90.869892
404	1	2	-0.2262374	-5.8574785	1.6425776	91.667227
405	1	2	-0.11006287	-6.1677338	0.54970938	92.401265
406	1	3	0.21535137	-5.4842104	-0.28643867	92.475064
407	1	2	-0.38248572	-7.4493996	0.44935531	93.120661
408	1	3	0.23599881	-7.6488101	-0.42657225	93.725597
409	1	2	0.29223359	-8.3591064	1.4228475	93.029784
410	1	9	-0.63487637	-9.5582218	1.2874224	93.730892
411	1	10	0.44018692	-10.287388	1.9888172	93.702649
412	1	2	-0.26365343	-8.0786986	2.6144526	92.182848
413	1	4	-0.11790569	-9.1089124	3.7012006	92.03697
414	1	5	0.099179982	-9.3277401	4.1425439	93.031501
415	1	5	0.099179982	-10.041328	3.2752241	91.609771
416	1	5	0.099179982	-8.7649283	4.5175083	91.366065
417	1	2	-0.2277427	-6.9008165	2.7054885	91.537019
418	1	3	0.21553621	-6.7209665	3.5619023	90.904396
419	1	4	-0.13170794	-4.0913537	3.188897	90.669061
420	1	5	0.088121503	-4.0909199	3.7354373	91.637059
421	1	5	0.088121503	-3.0638113	3.2373796	90.244454
422	1	5	0.088121503	-4.7441419	3.7328203	89.955993
423	1	4	-0.09315467	-4.7926489	1.1113057	89.44408
424	1	4	-0.12233318	-5.4101381	-0.3024471	89.368667
425	1	6	0.18999107	-4.5537196	-1.3507367	89.932208
426	1	7	-0.28886327	-3.8865699	-2.1860134	90.374919
427	1	5	0.12120871	-5.5840396	-0.54990745	88.299684
428	1	5	0.12120871	-6.4010663	-0.32939552	89.864483
429	1	5	0.11362444	-5.5235799	1.7743215	88.927836
430	1	5	0.11362444	-3.8889593	1.1617161	88.803997
431	1	2	-0.26815054	-2.1999289	0.42442771	90.92029
432	1	3	0.21553618	-2.2058407	0.34143898	89.84526
433	1	2	-0.079517693	-1.1368361	-0.057489942	91.592194
434	1	4	-0.13508123	-0.005352646	-0.71437851	90.850307
435	1	5	0.099179982	-0.17437629	-0.72713314	89.752524
436	1	5	0.099179982	0.93858705	-0.16364637	91.046432
437	1	5	0.099179982	0.10420629	-1.7649042	91.193156
438	2	2	0.46920764	7.8587988	-2.3327207	85.598347
439	2	8	-0.55388206	6.9813874	-2.8747349	86.248291
440	2	11	-0.074340985	8.6811108	-3.2179823	84.326509
441	4	1	-9.5260414e-05	2.1185756	25.666968	-0.0098745079
442	4	2	0.091828658	1.19177	24.763772	0.51232985
443	4	2	-0.24988398	0.48558343	25.117482	1.5889525
444	4	3	0.23046958	0.62965817	26.092639	2.0370078
445	4	2	-0.150501	-0.49749212	24.19199	2.1790286
446	4	3	0.21535137	-1.088145	24.55361	3.0112409
447	4	2	-0.22623743	-0.66191855	22.939392	1.69791
448	4	4	0.023799571	-1.764489	22.022724	2.2883507
449	4	2	-0.2262374	-1.8697845	22.149858	3.8297526
450	4	2	-0.15118286	-0.76177136	22.298982	4.5898737
451	4	3	0.21535137	0.22030688	22.365729	4.1411409
452	4	2	-0.21777344	-0.84578514	22.368242	6.0590975
453	4	3	0.23035757	0.059289707	22.520803	6.634345
454	4	2	0.31235573	-2.0209268	22.239799	6.6813158
455	4	1	-0.4149057	-2.0550878	22.315414	8.0739673
456	4	2	-0.091252224	-3.2558698	22.014006	5.8800174
457	4	4	-0.13195884	-4.5815928	21.828557	6.5660294
458	4	5	0.099179982	-4.8259035	22.735107	7.1574122
459	4	5	0.099179982	-4.5300224	20.950326	7.2435825
460	4	5	0.099179982	-5.4074096	21.656719	5.8427091
461	4	2	-0.26556152	-3.1737276	21.963382	4.5367546
462	4	3	0.21553621	-4.0719649	21.772165	3.9700509
463	4	4	-0.13170794	-3.0729732	22.505637	1.6084615
464	4	5	0.088121503	-3.3630277	23.511773	1.9810108
465	4	5	0.088121503	-2.9411445	22.569786	0.50559112
466	4	5	0.088121503	-3.9205687	21.808441	1.7759549
467	4	4	-0.09315467	-1.5963549	20.499629	1.9412372
468	4	4	-0.12233318	-0.45622202	19.729575	2.6412047
469	4	6	0.18999107	0.88318565	20.216404	2.2957269
470	4	7	-0.28886327	1.9445224	20.592118	2.0306733
471	4	5	0.12120871	-0.51582196	18.663802	2.3325005
472	4	5	0.12120871	-0.58235819	19.748135	3.7426961
473	4	5	0.11362444	-2.5310616	19.97979	2.2508754
474	4	5	0.11362444	-1.5492499	20.331511	0.84725028
475	4	2	-0.26815054	0.077474572	22.583232	0.44750214
476	4	3	0.21553618	-0.092794157	21.633096	-0.032938795
477	4	2	-0.079517693	0.96680111	23.429213	-0.10693358
478	4	4	-0.13508123	1.7143976	23.034764	-1.3516261
479	4	5	0.099179982	1.4294018	22.022071	-1.7096078
480	4	5	0.099179982	1.4961785	23.760019	-2.1634192
481	4	5	0.099179982	2.8051259	23.031359	-1.1446427
482	5	2	0.63000977	-2.9431651	22.222857	8.6223731
483	5	8	-0.48318783	-2.9878335	21.484249	9.5908085
484	1	1	-9.5260414e-05	2.6834276	25.458933	-0.82332311
485	1	2	0.091828658	2.3867907	24.410552	-1.6946515
486	1	2	-0.24988398	3.1851061	24.203877	-2.744851
487	1	3	0.23046958	4.0495508	24.836175	-2.9041357
488	1	2	-0.150501	2.9060932	23.113479	-3.6965533
489	1	3	0.21535137	3.620352	22.949532	-4.4925998
490	1	2	-0.22623743	1.8009302	22.342276	-3.5785265
491	1	4	0.023799571	1.5828034	21.151328	-4.5474499
492	1	2	-0.2262374	1.9848971	21.49793	-6.0036278
493	1	2	-0.11006287	1.7394693	22.724624	-6.5178431
494	1	3	0.21535137	1.2860844	23.502201	-5.916503
495	1	2	-0.38248572	2.0698199	23.048455	-7.9165106
496	1	3	0.23599881	1.889803	24.05137	-8.2835473
497	1	2	0.29223359	2.5832836	22.119735	-8.7272793
498	1	9	-0.63487637	2.8842562	22.471513	-10.04388
499	1	10	0.44018692	3.2741502	21.814054	-10.70733
500	1	2	-0.26365343	2.8116869	20.741073	-8.2144674
501	1	4	-0.11790569	3.3513453	19.67223	-9.125502
502	1	5	0.099179982	4.3519626	19.972712	-9.4999833
503	1	5	0.099179982	2.6625314	19.533599	-9.9855427
504	1	5	0.099179982	3.4565837	18.694426	-8.6081803
505	1	2	-0.2277427	2.5183529	20.454493	-6.9320416
506	1	3	0.21553621	2.6631382	19.443932	-6.5801798
507	1	4	-0.13170794	2.4873359	20.023639	-3.9835642
508	1	5	0.088121503	3.5614752	20.268795	-4.131375
509	1	5	0.088121503	2.3107242	19.888225	-2.8931715
510	1	5	0.088121503	2.2812741	19.039694	-4.4524375
511	1	4	-0.09315467	0.11402897	20.597019	-4.5729958
512	1	4	-0.12233318	-0.96564972	21.465516	-5.2554059
513	1	6	0.18999107	-1.1932806	22.752851	-4.5914065
514	1	7	-0.28886327	-1.3806751	23.771712	-4.0760673
515	1	5	0.12120871	-1.9248536	20.905284	-5.2389541
516	1	5	0.12120871	-0.71931481	21.639002	-6.3220454
517	1	5	0.11362444	0.12439524	19.643307	-5.1480476
518	1	5	0.11362444	-0.2289361	20.295325	-3.5629179
519	1	2	-0.26815054	0.95863461	22.534148	-2.3577381
520	1	3	0.21553618	0.12343616	21.880036	-2.1648854
521	1	2	-0.079517693	1.2162298	23.518217	-1.4750614
522	1	4	-0.13508123	0.33766084	23.703366	-0.26841702
523	1	5	0.099179982	-0.4814619	22.954274	-0.22648286
524	1	5	0.099179982	0.94565098	23.600006	0.65486931
525	1	5	0.099179982	-0.12205488	24.713881	-0.29435725
526	2	2	0.46920764	-3.8229531	22.784381	8.3276137
527	2	8	-0.55388206	-3.8064481	23.454614	7.3094925
528	2	11	-0.074340985	-5.2704622	22.729219	9.3171244
529	4	1	-9.5260414e-05	-3.3847815	23.433346	20.840713
530	4	2	0.091828658	-2.0239223	23.124639	20.826911
531	4	2	-0.24988398	-1.332689	23.315663	19.700575
532	4	3	0.23046958	-1.8252264	23.711418	18.821242
533	4	2	-0.150501	0.10414766	22.995077	19.638232
534	4	3	0.21535137	0.62965745	23.229636	18.721151
535	4	2	-0.22623743	0.74622159	22.434038	20.687274
536	4	4	0.023799571	2.2757568	22.188912	20.616578
537	4	2	-0.2262374	2.723596	21.673755	19.224737
538	4	2	-0.15118286	1.9574242	20.804388	18.528391
539	4	3	0.21535137	1.0006196	20.472319	18.908587
540	4	2	-0.21777344	2.3976083	20.268025	17.228765
541	4	3	0.23035757	1.7433493	19.598768	16.683435
542	4	2	0.31235573	3.5910417	20.59513	16.725446
543	4	1	-0.4149057	3.9662198	20.067135	15.489799
544	4	2	-0.091252224	4.4882432	21.503212	17.492626
545	4	4	-0.13195884	5.8509595	21.85113	16.959238
546	4	5	0.099179982	5.7489768	22.3638	15.980452
547	4	5	0.099179982	6.4469354	20.923416	16.828132