Title

165 atoms
164 bonds
299 angles
546 dihedrals
30 impropers

11 atom types
12 bond types
9 angle types
33 dihedral types
2 improper types
-7.520217421 10.47978258 xlo xhi
-7.556846163 10.44315384 ylo yhi
-23.90957169 23.40739943 zlo zhi
0.0 0.0 0.0 xy xz yz

Masses

1	15.99943
2	12.01078
3	1.007947
4	12.01078
5	15.99943
6	14.00672
7	1.007947
8	1.007947
9	12.01078
10	15.99943
11	1.007947


Pair Coeffs

1	0.16846514	3.0251065
2	0.10884061	3.3795318
3	0.016409246	2.5832257
4	0.086879315	3.4806469
5	0.2102061	3.0398122
6	0.16769152	3.206876
7	0.014090815	1.1034277
8	0.015779483	2.6445434
9	0.21	3.3996695
10	0.20947353	2.99716
11	1.2326e-05	0.53453923

Bond Coeffs

1 harmonic	366.7408841747	1.425895053732
2 harmonic	301.15400723785	1.345741232799
3 harmonic	264.62148576755	1.52190126495
4 harmonic	370.04670688625	1.093899492634
5 harmonic	582.698766451	1.225198386222
6 harmonic	492.76746816345	1.381897776683
7 harmonic	352.0565580496	1.450098586273
8 harmonic	505.144496193	1.019481865027
9 harmonic	366.34047229585	1.464762957261
10 harmonic	602.81384337	1.196112346392
11 harmonic	329.96998057905	1.427343958716
12 harmonic	543.5267831885	0.9716763312559


Angle Coeffs

1 harmonic	53.20531626545	116.5475862634
2 harmonic	201.41175231035	127.4691416191
3 harmonic	57.8982893754	126.8062420451
4 harmonic	65.09061609600001	110.3538806181
5 harmonic	48.776492647595	115.6030999533
6 harmonic	55.42182150775	117.3465570514
7 harmonic	63.44422595415	115.5071327674
8 harmonic	55.07882548015	112.8714009681
9 harmonic	33.56981613361	180


Dihedral Coeffs

1 fourier 1	-0.0309670556842	3	0
2 fourier 1	0.4598191477945	2	0
3 fourier 1	0.1115525666802	3	0
4 fourier 1	0.3432490222662	1	0
5 fourier 1	1.809047390003	2	180
6 fourier 1	-0.04816277792592	1	0
7 fourier 1	1.163809172478	2	180
8 fourier 1	0.1679186987369	1	180
9 fourier 1	2.779853741805	2	180
10 fourier 1	0.4552156463534	3	0
11 fourier 1	-0.03687743385131	2	180
12 fourier 1	0.1918272375143	3	0
13 fourier 1	0.9202179876409	1	180
14 fourier 1	0.0473758381877	3	0
15 fourier 1	0.1911926717192	3	0
16 fourier 1	-0.1488678166443	4	180
17 fourier 1	-0.1230328948768	3	180
18 fourier 1	0.2939295466901	2	0
19 fourier 1	-0.3024127022865	1	0
20 fourier 1	0.182238503271	2	0
21 fourier 1	0.02972342374561	3	0
22 fourier 1	0.4860993122944	2	180
23 fourier 1	0.8916986138746	1	0
24 fourier 1	0.1155372516788	3	0
25 fourier 1	0.09223874044423	3	0
26 fourier 1	0.3159935921949	2	180
27 fourier 1	0.3247796806857	1	180
28 fourier 1	0.1040663847541	3	0
29 fourier 1	-1.382973039546	1	0
30 fourier 1	0	1	0
31 fourier 1	0.3445382149273	3	0
32 fourier 1	0.1364556373303	1	0
33 fourier 1	0.3026390167484	3	0


Improper Coeffs

1 3.5	-1	2
2 0.3333333333333333	-1	2


Atoms

1	1	1	-0.49552531	-5.0559248	1.6859172	-15.109473
2	1	2	0.1057702	-5.3308275	1.3811222	-13.790242
3	1	2	0.079016217	-4.0434788	1.0011921	-13.050271
4	1	1	-0.4862738	-4.3997285	0.44573735	-11.811011
5	1	2	0.059615684	-3.2491325	-0.037366729	-11.162198
6	1	2	0.059873482	-3.7046939	-0.82163302	-9.9394747
7	1	1	-0.48637742	-2.5937638	-1.2873164	-9.2094943
8	1	2	0.059873482	-2.2164536	-0.33298134	-8.2392987
9	1	2	0.059615684	-0.79624194	-0.6376029	-7.8144641
10	1	1	-0.4862738	0.04501133	-0.59751957	-8.9568227
11	1	2	0.079016217	0.79253362	0.59442378	-8.9530195
12	1	2	0.1057702	1.6492502	0.68820947	-10.219309
13	1	1	-0.49552531	2.42893	1.8384717	-10.259136
14	1	3	0.093338491	2.3139604	-0.20307599	-10.28293
15	1	3	0.093338491	0.981848	0.67961207	-11.104978
16	1	3	0.085473323	1.4543486	0.55237421	-8.0681683
17	1	3	0.085473323	0.11969219	1.4842862	-8.935289
18	1	3	0.086797693	-0.50085963	0.065630256	-6.9956641
19	1	3	0.086797693	-0.75017677	-1.6556342	-7.3740775
20	1	3	0.086797693	-2.8909056	-0.3946758	-7.3581436
21	1	3	0.086797693	-2.2210717	0.70872234	-8.6362485
22	1	3	0.086797693	-4.2892109	-1.70444	-10.275648
23	1	3	0.086797693	-4.3979927	-0.20961361	-9.3168857
24	1	3	0.086797693	-2.6549635	-0.73281707	-11.805123
25	1	3	0.086797693	-2.6143202	0.82092275	-10.854507
26	1	3	0.085473323	-3.4636218	0.26135233	-13.641604
27	1	3	0.085473323	-3.4179775	1.9135085	-12.925283
28	1	3	0.093338491	-6.076561	0.55721032	-13.753258
29	1	3	0.093338491	-5.7912419	2.2535495	-13.28276
30	1	4	0.78629755	3.4740652	2.0038572	-9.4130309
31	1	5	-0.60344643	4.6097948	1.9017943	-9.8529032
32	1	6	-0.46429492	3.2627507	2.2376324	-8.0916312
33	1	2	0.026012787	4.3076249	2.1136638	-7.0969761
34	1	2	-0.14375406	3.7402329	1.4060679	-5.8587111
35	1	2	-0.14166119	4.8041558	1.3047369	-4.7636435
36	1	2	-0.14166119	4.303385	0.61315127	-3.4875593
37	1	2	-0.14375406	3.0842436	1.2708391	-2.828214
38	1	2	0.026012765	3.280246	2.7600228	-2.4950007
39	1	6	-0.46429492	2.1436112	3.2339543	-1.7368614
40	1	4	0.78629749	2.0224605	4.5190074	-1.2939867
41	1	5	-0.60344655	2.8487093	5.3608509	-1.6137406
42	1	7	0.32732009	1.4172582	2.5452614	-1.5012489
43	1	3	0.059364033	3.3786839	3.3544471	-3.4285739
44	1	3	0.059364033	4.1960718	2.8859579	-1.8783465
45	1	8	0.089994223	2.1872858	1.1633786	-3.4755879
46	1	8	0.089994223	2.8812286	0.71136508	-1.8883084
47	1	8	0.088736617	5.1396233	0.60763094	-2.7552533
48	1	8	0.088736617	4.0410433	-0.4428204	-3.714563
49	1	8	0.088736617	5.1646804	2.3242672	-4.5108493
50	1	8	0.088736617	5.6685812	0.72275808	-5.149517
51	1	8	0.089994223	2.8805503	2.0042386	-5.4857731
52	1	8	0.089994223	3.3718297	0.39100687	-6.1290538
53	1	3	0.059364011	5.1575998	1.5101949	-7.4912375
54	1	3	0.059364011	4.6692459	3.1235675	-6.8179498
55	1	7	0.32732015	2.309075	2.4447701	-7.7617804
56	1	1	-0.49552531	1.0052396	4.8803159	-0.46018114
57	1	2	0.10577022	0.25649465	3.977605	0.27780273
58	1	2	0.079016217	1.1606585	3.2583817	1.2871722
59	1	1	-0.4862738	0.43513164	2.2114323	1.8777039
60	1	2	0.059615684	1.2467354	1.5553588	2.8244176
61	1	2	0.059873482	0.52719022	0.28014833	3.2439782
62	1	1	-0.48637742	1.2627612	-0.39978637	4.2339085
63	1	2	0.059873482	0.85279743	0.019486138	5.5186175
64	1	2	0.059615684	1.9411017	-0.35777402	6.4983306
65	1	1	-0.4862738	3.1571845	0.25599063	6.0958514
66	1	2	0.079016217	3.4234447	1.3674118	6.9173733
67	1	2	0.1057702	4.7372263	2.0370203	6.4963087
68	1	1	-0.49552531	5.0791527	3.1376186	7.277912
69	1	3	0.093338491	5.5626754	1.290644	6.5388081
70	1	3	0.093338491	4.6391811	2.3720741	5.4429427
71	1	3	0.085473323	3.5292	0.97506922	7.9406637
72	1	3	0.085473323	2.6097389	2.1251082	6.8308859
73	1	3	0.086797693	1.6077275	-0.095398063	7.533866
74	1	3	0.086797693	2.0799916	-1.4585952	6.4949577
75	1	3	0.086797693	-0.095811335	-0.48582615	5.8033313
76	1	3	0.086797693	0.7205406	1.124228	5.5873098
77	1	3	0.086797693	0.43931067	-0.38992193	2.3628017
78	1	3	0.086797693	-0.51530576	0.50931305	3.5672887
79	1	3	0.086797693	2.2419016	1.2620286	2.407146
80	1	3	0.086797693	1.3934634	2.2175699	3.7058922
81	1	3	0.085473323	2.0490812	2.8382378	0.76603
82	1	3	0.085473323	1.4970324	4.0033688	2.0450928
83	1	3	0.093338468	-0.24627287	3.2533121	-0.39740806
84	1	3	0.093338468	-0.55023248	4.5076399	0.82575563
85	1	4	0.78629755	5.5422955	2.9956132	8.5452175
86	1	5	-0.60344643	6.7138907	3.252991	8.7773021
87	1	6	-0.46429492	4.7350825	2.518841	9.5257457
88	1	2	0.026012787	5.2379451	2.009702	10.783604
89	1	2	-0.14375406	4.3790429	0.80761657	11.202012
90	1	2	-0.14166119	4.8121997	0.26020251	12.561424
91	1	2	-0.14166119	3.9978122	-0.96673018	13.000302
92	1	2	-0.14375406	2.4817937	-0.74795371	13.083495
93	1	2	0.026012765	2.0657689	0.41866211	13.996372
94	1	6	-0.46429492	0.62645378	0.42679514	14.132061
95	1	4	0.78629749	-0.051289622	1.3435804	14.881472
96	1	5	-0.60344655	0.54346382	2.2772611	15.400266
97	1	7	0.32732009	0.10717353	-0.32470215	13.661341
98	1	3	0.059364033	2.4078118	1.3849482	13.568577
99	1	3	0.059364033	2.5179277	0.27970289	15.003095
100	1	8	0.089994223	2.0561384	-0.57889084	12.069747
101	1	8	0.089994223	2.0379882	-1.6909608	13.472812
102	1	8	0.088736617	4.3649336	-1.2802718	14.00114
103	1	8	0.088736617	4.1805891	-1.8048267	12.29268
104	1	8	0.088736617	4.715005	1.0618581	13.323458
105	1	8	0.088736617	5.8804793	-0.040945118	12.513073
106	1	8	0.089994223	3.3213919	1.1404236	11.261575
107	1	8	0.089994223	4.454544	0.0086898824	10.430182
108	1	3	0.059364011	6.2872547	1.6499165	10.666495
109	1	3	0.059364011	5.2028097	2.8102509	11.549691
110	1	7	0.32732015	3.7299374	2.4183357	9.3424808
111	1	4	0.78629755	-4.620204	0.7781199	-16.028985
112	1	5	-0.60344643	-4.2541523	1.1868178	-17.121346
113	1	6	-0.46429492	-4.5696748	-0.55889483	-15.7384
114	1	2	0.026012787	-4.0869247	-1.5672437	-16.650727
115	1	2	-0.14375406	-5.048492	-1.7319084	-17.822909
116	1	2	-0.14147802	-4.597566	-2.9000152	-18.70089
117	1	2	-0.13727792	-5.5555386	-3.1755414	-19.862404
118	1	2	-0.1214647	-5.6067481	-2.0190026	-20.872207
119	1	2	0.18515214	-6.4959161	-2.3704725	-22.080363
120	1	6	-0.63356424	-5.9929698	-3.5058036	-22.809806
121	1	9	0.59388989	-4.8629901	-3.4875915	-23.375053
122	1	5	-0.45742748	-3.7959033	-3.4698871	-23.909572
123	1	3	0.03391307	-6.5523069	-1.4888858	-22.757946
124	1	3	0.03391307	-7.5202174	-2.5915976	-21.71892
125	1	8	0.083618433	-6.0291561	-1.1137107	-20.392679
126	1	8	0.083618433	-4.5802552	-1.781991	-21.227339
127	1	8	0.087452003	-6.5747681	-3.3823082	-19.466132
128	1	8	0.087452003	-5.1872602	-4.089837	-20.373204
129	1	8	0.088736617	-4.5607489	-3.8157936	-18.069727
130	1	8	0.088736617	-3.5751931	-2.7067532	-19.094206
131	1	8	0.089994223	-5.0826707	-0.79070969	-18.405361
132	1	8	0.089994223	-6.0653202	-1.9472075	-17.424532
133	1	3	0.059364011	-3.057259	-1.3176244	-16.987832
134	1	3	0.059364011	-4.0454	-2.5363425	-16.103753
135	1	7	0.32732015	-4.8714494	-0.91074757	-14.820034
136	1	1	-0.49552531	-1.3923718	1.214403	15.101008
137	1	2	0.10577022	-2.0862297	0.023569695	14.941702
138	1	2	0.079016217	-1.5555139	-1.0169612	15.939802
139	1	1	-0.4862738	-2.1056544	-2.2796886	15.651049
140	1	2	0.059615684	-1.6487943	-3.2049061	16.614118
141	1	2	0.059873482	-2.0741112	-4.6055235	16.189872
142	1	1	-0.48637742	-1.7067231	-5.5500097	17.175951
143	1	2	0.059873482	-2.783707	-5.7581139	18.069645
144	1	2	0.059873482	-2.3015668	-6.5711872	19.266466
145	1	1	-0.48423064	-1.2269885	-5.9143434	19.913838
146	1	2	0.052079258	-1.6984307	-5.1364551	20.995006
147	1	2	0.074368471	-0.53723477	-4.3229305	21.558714
148	1	10	-0.68046183	-0.97193154	-3.5224529	22.623496
149	1	11	0.39073386	-1.0710734	-4.1224803	23.407399
150	1	3	0.08737752	0.2885658	-4.9935053	21.889956
151	1	3	0.08737752	-0.12901425	-3.6627789	20.763791
152	1	3	0.087860295	-2.0890004	-5.7972204	21.801508
153	1	3	0.087860295	-2.4842341	-4.4206939	20.664951
154	1	3	0.086797693	-3.1587955	-6.7918935	19.947739
155	1	3	0.086797693	-1.9369418	-7.5568462	18.907122
156	1	3	0.086797693	-3.5931278	-6.3282262	17.561575
157	1	3	0.086797693	-3.1918657	-4.7968759	18.452343
158	1	3	0.086797693	-1.5598101	-4.8698183	15.240382
159	1	3	0.086797693	-3.1661753	-4.6221629	15.9602
160	1	3	0.086797693	-0.535038	-3.2065658	16.704992
161	1	3	0.086797693	-2.1059802	-2.965091	17.598745
162	1	3	0.085473323	-0.44838534	-1.0801937	15.859952
163	1	3	0.085473323	-1.8297493	-0.67367679	16.964093
164	1	3	0.093338468	-1.9948489	-0.33768992	13.895433
165	1	3	0.093338483	-3.1680661	0.18757486	15.124188

Bonds

1	1	1	2
2	2	1	111
3	3	2	3
4	4	2	28
5	4	2	29
6	1	3	4
7	4	3	26
8	4	3	27
9	1	4	5
10	3	5	6
11	4	5	24
12	4	5	25
13	1	6	7
14	4	6	22
15	4	6	23
16	1	7	8
17	3	8	9
18	4	8	20
19	4	8	21
20	1	9	10
21	4	9	18
22	4	9	19
23	1	10	11
24	3	11	12
25	4	11	16
26	4	11	17
27	1	12	13
28	4	12	14
29	4	12	15
30	2	13	30
31	5	30	31
32	6	30	32
33	7	32	33
34	8	32	55
35	3	33	34
36	4	33	53
37	4	33	54
38	3	34	35
39	4	34	51
40	4	34	52
41	3	35	36
42	4	35	49
43	4	35	50
44	3	36	37
45	4	36	47
46	4	36	48
47	3	37	38
48	4	37	45
49	4	37	46
50	7	38	39
51	4	38	43
52	4	38	44
53	6	39	40
54	8	39	42
55	5	40	41
56	2	40	56
57	1	56	57
58	3	57	58
59	4	57	83
60	4	57	84
61	1	58	59
62	4	58	81
63	4	58	82
64	1	59	60
65	3	60	61
66	4	60	79
67	4	60	80
68	1	61	62
69	4	61	77
70	4	61	78
71	1	62	63
72	3	63	64
73	4	63	75
74	4	63	76
75	1	64	65
76	4	64	73
77	4	64	74
78	1	65	66
79	3	66	67
80	4	66	71
81	4	66	72
82	1	67	68
83	4	67	69
84	4	67	70
85	2	68	85
86	5	85	86
87	6	85	87
88	7	87	88
89	8	87	110
90	3	88	89
91	4	88	108
92	4	88	109
93	3	89	90
94	4	89	106
95	4	89	107
96	3	90	91
97	4	90	104
98	4	90	105
99	3	91	92
100	4	91	102
101	4	91	103
102	3	92	93
103	4	92	100
104	4	92	101
105	7	93	94
106	4	93	98
107	4	93	99
108	6	94	95
109	8	94	97
110	5	95	96
111	2	95	136
112	5	111	112
113	6	111	113
114	7	113	114
115	8	113	135
116	3	114	115
117	4	114	133
118	4	114	134
119	3	115	116
120	4	115	131
121	4	115	132
122	3	116	117
123	4	116	129
124	4	116	130
125	3	117	118
126	4	117	127
127	4	117	128
128	3	118	119
129	4	118	125
130	4	118	126
131	9	119	120
132	4	119	123
133	4	119	124
134	10	120	121
135	5	121	122
136	1	136	137
137	3	137	138
138	4	137	164
139	4	137	165
140	1	138	139
141	4	138	162
142	4	138	163
143	1	139	140
144	3	140	141
145	4	140	160
146	4	140	161
147	1	141	142
148	4	141	158
149	4	141	159
150	1	142	143
151	3	143	144
152	4	143	156
153	4	143	157
154	1	144	145
155	4	144	154
156	4	144	155
157	1	145	146
158	3	146	147
159	4	146	152
160	4	146	153
161	11	147	148
162	4	147	150
163	4	147	151
164	12	148	149

Angles

1	5	16	11	17
2	1	143	144	154
3	1	38	37	45
4	1	36	37	38
5	4	61	62	63
6	1	34	35	49
7	1	137	138	139
8	5	158	141	159
9	1	58	57	83
10	1	8	9	18
11	7	33	32	55
12	4	147	148	149
13	1	114	115	132
14	1	90	91	102
15	1	65	66	67
16	1	115	114	134
17	5	106	89	107
18	7	30	32	55
19	2	96	95	136
20	1	89	88	109
21	1	11	12	13
22	5	22	6	23
23	7	114	113	135
24	1	34	33	53
25	1	7	6	23
26	1	118	117	127
27	1	7	8	9
28	1	139	140	141
29	1	1	2	29
30	1	142	141	159
31	1	137	138	162
32	1	148	147	150
33	1	141	140	161
34	1	115	116	130
35	5	28	2	29
36	1	140	141	158
37	4	95	136	137
38	2	1	111	112
39	1	136	137	165
40	1	117	118	125
41	1	142	143	144
42	1	117	116	130
43	1	11	12	15
44	1	145	146	153
45	1	10	9	19
46	1	66	67	69
47	4	67	68	85
48	1	10	11	12
49	1	1	2	3
50	1	59	60	61
51	7	111	113	135
52	5	75	63	76
53	3	94	95	96
54	6	38	39	40
55	5	45	37	46
56	1	37	36	48
57	1	56	57	58
58	1	65	66	72
59	1	116	115	131
60	1	139	138	163
61	1	146	147	151
62	4	64	65	66
63	5	108	88	109
64	5	102	91	103
65	1	60	61	78
66	5	43	38	44
67	1	118	119	120
68	1	136	137	164
69	9	120	121	122
70	1	62	63	76
71	1	119	118	126
72	1	32	33	54
73	4	138	139	140
74	1	142	143	157
75	5	20	8	21
76	1	148	147	151
77	1	114	115	116
78	1	92	91	103
79	1	36	37	46
80	5	98	93	99
81	5	150	147	151
82	1	36	35	49
83	1	115	116	117
84	5	164	137	165
85	4	6	7	8
86	1	10	9	18
87	1	4	5	25
88	5	49	35	50
89	1	65	66	71
90	5	125	118	126
91	1	10	11	16
92	1	91	92	101
93	4	144	145	146
94	1	89	90	91
95	1	147	146	153
96	3	13	30	32
97	1	12	11	16
98	1	57	58	81
99	1	92	91	102
100	1	113	114	134
101	1	34	35	36
102	1	39	38	43
103	1	59	58	82
104	7	38	39	42
105	1	66	67	70
106	1	146	147	150
107	1	91	92	100
108	5	154	144	155
109	1	2	3	27
110	5	81	58	82
111	1	115	114	133
112	1	33	34	52
113	3	68	85	87
114	1	65	64	74
115	1	62	63	64
116	6	85	87	88
117	7	85	87	110
118	1	37	38	43
119	5	73	64	74
120	5	83	57	84
121	1	138	137	165
122	1	116	117	127
123	1	146	147	148
124	5	152	146	153
125	1	7	6	22
126	1	56	57	83
127	1	32	33	34
128	1	1	2	28
129	4	3	4	5
130	1	34	35	50
131	1	60	61	62
132	1	139	140	161
133	1	67	66	72
134	1	13	12	15
135	1	37	36	47
136	2	13	30	31
137	1	9	8	20
138	5	14	12	15
139	5	53	33	54
140	1	62	61	77
141	1	65	64	73
142	5	71	66	72
143	1	92	93	94
144	1	94	93	99
145	1	138	137	164
146	1	3	2	28
147	1	143	144	155
148	1	6	5	25
149	1	118	119	123
150	1	4	3	26
151	1	34	33	54
152	1	118	117	128
153	1	120	119	123
154	1	87	88	89
155	1	88	89	106
156	1	8	9	10
157	1	61	60	80
158	1	67	66	71
159	5	77	61	78
160	1	88	89	107
161	7	40	39	42
162	7	88	87	110
163	1	35	36	37
164	5	69	67	70
165	1	145	144	155
166	5	123	119	124
167	1	59	60	79
168	1	94	93	98
169	1	117	118	126
170	1	60	61	77
171	1	35	36	48
172	1	5	6	23
173	1	137	138	163
174	1	145	146	147
175	1	32	33	53
176	1	136	137	138
177	1	63	64	65
178	1	87	88	108
179	1	93	92	101
180	1	116	117	118
181	1	140	141	142
182	4	58	59	60
183	5	104	90	105
184	1	113	114	115
185	5	133	114	134
186	3	31	30	32
187	5	156	143	157
188	1	92	93	99
189	1	116	115	132
190	1	145	146	152
191	1	57	58	59
192	1	66	67	68
193	3	86	85	87
194	1	114	115	131
195	8	119	120	121
196	1	7	8	21
197	2	68	85	86
198	4	141	142	143
199	1	142	143	156
200	1	93	92	100
201	1	141	140	160
202	1	144	143	156
203	5	26	3	27
204	1	113	114	133
205	1	35	34	52
206	1	36	35	50
207	3	39	40	41
208	7	93	94	97
209	5	18	9	19
210	1	38	37	46
211	1	92	93	98
212	6	93	94	95
213	3	112	111	113
214	1	89	90	105
215	1	10	11	17
216	1	58	57	84
217	1	63	64	74
218	1	87	88	109
219	4	40	56	57
220	5	47	36	48
221	2	41	40	56
222	1	91	90	105
223	1	12	11	17
224	1	140	141	159
225	6	30	32	33
226	4	9	10	11
227	1	115	116	129
228	5	24	5	25
229	1	68	67	69
230	1	90	91	92
231	1	117	116	129
232	1	11	12	14
233	1	8	9	19
234	1	39	38	44
235	1	139	138	162
236	1	142	141	158
237	1	147	146	152
238	1	89	90	104
239	1	63	64	73
240	4	2	1	111
241	1	64	63	75
242	3	94	95	136
243	1	13	12	14
244	5	162	138	163
245	1	37	38	44
246	1	91	90	104
247	1	116	117	128
248	1	35	36	47
249	1	4	5	6
250	5	100	92	101
251	1	145	144	154
252	1	6	5	24
253	1	56	57	84
254	1	5	6	7
255	1	119	118	125
256	1	61	60	79
257	4	12	13	30
258	1	143	144	145
259	1	36	37	45
260	5	131	115	132
261	1	37	38	39
262	1	33	34	35
263	1	9	8	21
264	1	62	61	78
265	1	4	5	24
266	1	64	63	76
267	5	51	34	52
268	1	62	63	75
269	1	3	2	29
270	1	118	119	124
271	1	4	3	27
272	1	5	6	22
273	3	39	40	56
274	6	111	113	114
275	1	120	119	124
276	1	68	67	70
277	7	95	94	97
278	5	79	60	80
279	1	90	89	106
280	5	127	117	128
281	1	90	89	107
282	1	88	89	90
283	1	59	58	81
284	1	59	60	80
285	1	2	3	4
286	1	89	88	108
287	5	129	116	130
288	1	2	3	26
289	5	160	140	161
290	1	90	91	103
291	1	91	92	93
292	1	33	34	51
293	1	7	8	20
294	3	1	111	113
295	1	117	118	119
296	1	144	143	157
297	1	57	58	82
298	1	139	140	160
299	1	35	34	51

Dihedrals

1	15	49	35	34	52
2	15	158	141	140	161
3	14	60	59	58	82
4	20	85	87	88	108
4	21	85	87	88	108
5	15	101	92	91	103
6	20	89	88	87	110
6	21	89	88	87	110
7	5	68	85	87	110
7	6	68	85	87	110
8	28	116	115	114	133
9	30	119	120	121	122
10	28	91	92	93	98
11	14	66	65	64	73
12	15	74	64	63	75
13	15	127	117	116	130
14	15	154	144	143	156
15	3	4	5	6	22
15	4	4	5	6	22
16	10	5	6	7	8
16	11	5	6	7	8
17	15	44	38	37	46
18	28	118	117	116	130
19	3	139	138	137	164
19	4	139	138	137	164
20	3	145	144	143	157
20	4	145	144	143	157
21	15	70	67	66	72
22	29	118	119	120	121
23	3	62	61	60	80
23	4	62	61	60	80
24	20	109	88	87	110
24	21	109	88	87	110
25	14	143	142	141	158
26	10	57	58	59	60
26	11	57	58	59	60
27	10	143	144	145	146
27	11	143	144	145	146
28	5	13	30	32	55
28	6	13	30	32	55
29	28	119	118	117	128
30	28	38	37	36	47
31	3	59	58	57	83
31	4	59	58	57	83
32	15	46	37	36	48
33	15	124	119	118	126
34	3	136	137	138	163
34	4	136	137	138	163
35	15	130	116	115	132
36	3	142	143	144	154
36	4	142	143	144	154
37	3	7	8	9	19
37	4	7	8	9	19
38	28	115	116	117	127
39	15	132	115	114	133
40	14	40	56	57	84
41	15	47	36	35	49
42	24	113	114	115	131
43	28	36	37	38	44
44	15	52	34	33	53
45	15	129	116	115	131
46	3	56	57	58	81
46	4	56	57	58	81
47	15	43	38	37	45
48	15	100	92	91	102
49	1	1	2	3	4
49	2	1	2	3	4
50	5	42	39	40	56
50	6	42	39	40	56
51	15	14	12	11	16
52	10	64	65	66	67
52	11	64	65	66	67
53	3	142	141	140	161
53	4	142	141	140	161
54	22	86	85	87	110
54	23	86	85	87	110
55	15	159	141	140	161
56	15	99	93	92	101
57	15	49	35	34	51
58	15	155	144	143	156
59	14	60	59	58	81
60	3	145	144	143	156
60	4	145	144	143	156
61	20	108	88	87	110
61	21	108	88	87	110
62	1	139	140	141	142
62	2	139	140	141	142
63	1	62	63	64	65
63	2	62	63	64	65
64	14	146	145	144	155
65	15	99	93	92	100
66	16	37	38	39	40
66	17	37	38	39	40
66	18	37	38	39	40
66	19	37	38	39	40
67	33	149	148	147	151
68	24	87	88	89	106
69	3	4	3	2	29
69	4	4	3	2	29
70	28	116	115	114	134
71	3	68	67	66	72
71	4	68	67	66	72
72	28	33	34	35	50
73	28	118	117	116	129
74	3	7	6	5	25
74	4	7	6	5	25
75	15	150	147	146	153
76	15	81	58	57	84
77	10	6	7	8	9
77	11	6	7	8	9
78	3	4	5	6	23
78	4	4	5	6	23
79	20	53	33	32	55
79	21	53	33	32	55
80	5	38	39	40	41
80	6	38	39	40	41
81	14	9	10	11	16
82	15	50	35	34	52
83	28	34	35	36	47
84	15	125	118	117	128
85	20	34	33	32	55
85	21	34	33	32	55
86	3	62	61	60	79
86	4	62	61	60	79
87	24	39	38	37	46
88	28	119	118	117	127
89	15	22	6	5	25
90	16	85	87	88	89
90	17	85	87	88	89
90	18	85	87	88	89
90	19	85	87	88	89
91	15	124	119	118	125
92	28	36	35	34	52
93	3	65	66	67	70
93	4	65	66	67	70
94	15	151	147	146	152
95	20	42	39	38	43
95	21	42	39	38	43
96	15	126	118	117	127
97	5	68	85	87	88
97	6	68	85	87	88
98	28	93	92	91	103
99	16	111	113	114	115
99	17	111	113	114	115
99	18	111	113	114	115
99	19	111	113	114	115
100	28	36	37	38	43
101	3	65	66	67	69
101	4	65	66	67	69
102	28	115	116	117	128
103	20	37	38	39	42
103	21	37	38	39	42
104	15	45	37	36	48
105	28	93	92	91	102
106	15	132	115	114	134
107	15	159	141	140	160
108	22	41	40	39	42
108	23	41	40	39	42
109	15	107	89	88	108
110	15	98	93	92	101
111	15	129	116	115	132
112	7	96	95	136	137
112	8	96	95	136	137
113	25	88	89	90	91
113	26	88	89	90	91
113	27	88	89	90	91
114	14	146	145	144	154
115	15	104	90	89	107
116	15	98	93	92	100
117	15	106	89	88	108
118	25	114	115	116	117
118	26	114	115	116	117
118	27	114	115	116	117
119	14	66	65	64	74
120	24	36	37	38	39
121	20	134	114	113	135
121	21	134	114	113	135
122	3	4	3	2	28
122	4	4	3	2	28
123	28	37	36	35	50
124	15	105	90	89	107
125	15	163	138	137	165
126	28	33	34	35	49
127	3	7	6	5	24
127	4	7	6	5	24
128	3	148	147	146	153
128	4	148	147	146	153
129	7	67	68	85	86
129	8	67	68	85	86
130	15	81	58	57	83
131	15	123	119	118	126
132	28	88	89	90	104
133	15	50	35	34	51
134	1	7	8	9	10
134	2	7	8	9	10
135	15	125	118	117	127
136	24	39	38	37	45
137	28	90	91	92	101
138	14	9	10	11	17
139	15	22	6	5	24
140	25	116	117	118	119
140	26	116	117	118	119
140	27	116	117	118	119
141	1	56	57	58	59
141	2	56	57	58	59
142	15	15	12	11	17
143	15	18	9	8	21
144	14	64	65	66	71
145	12	11	12	13	30
145	13	11	12	13	30
146	28	90	91	92	100
147	5	86	85	87	88
147	6	86	85	87	88
148	28	36	35	34	51
149	15	46	37	36	47
150	7	41	40	56	57
150	8	41	40	56	57
151	24	117	118	119	120
152	15	131	115	114	134
153	10	141	142	143	144
153	11	141	142	143	144
154	25	35	36	37	38
154	26	35	36	37	38
154	27	35	36	37	38
155	20	42	39	38	44
155	21	42	39	38	44
156	25	33	34	35	36
156	26	33	34	35	36
156	27	33	34	35	36
157	12	95	136	137	138
157	13	95	136	137	138
158	28	117	116	115	131
159	15	126	118	117	128
160	15	100	92	91	103
161	15	48	36	35	49
162	20	97	94	93	99
162	21	97	94	93	99
163	7	12	13	30	31
163	8	12	13	30	31
164	15	26	3	2	28
165	14	140	139	138	163
166	14	141	142	143	157
167	15	51	34	33	54
168	15	103	91	90	105
169	20	111	113	114	134
169	21	111	113	114	134
170	20	97	94	93	98
170	21	97	94	93	98
171	15	82	58	57	83
172	5	31	30	32	33
172	6	31	30	32	33
173	15	103	91	90	104
174	14	14	12	13	30
175	24	94	93	92	101
176	28	90	89	88	109
177	3	13	12	11	16
177	4	13	12	11	16
178	28	37	36	35	49
179	24	94	93	92	100
180	3	136	137	138	162
180	4	136	137	138	162
181	22	96	95	94	97
181	23	96	95	94	97
182	5	93	94	95	136
182	6	93	94	95	136
183	1	59	60	61	62
183	2	59	60	61	62
184	15	123	119	118	125
185	15	107	89	88	109
186	14	11	10	9	18
187	1	10	11	12	13
187	2	10	11	12	13
188	9	94	95	136	137
189	3	139	140	141	159
189	4	139	140	141	159
190	10	8	9	10	11
190	11	8	9	10	11
191	5	38	39	40	56
191	6	38	39	40	56
192	28	92	91	90	105
193	1	4	5	6	7
193	2	4	5	6	7
194	20	40	39	38	44
194	21	40	39	38	44
195	24	113	114	115	116
196	14	6	7	8	21
197	9	67	68	85	87
198	9	2	1	111	113
199	28	114	115	116	130
200	15	69	67	66	71
201	28	92	91	90	104
202	10	2	3	4	5
202	11	2	3	4	5
203	14	5	4	3	27
204	15	15	12	11	16
205	15	18	9	8	20
206	20	85	87	88	109
206	21	85	87	88	109
207	24	87	88	89	90
208	10	144	145	146	147
208	11	144	145	146	147
209	22	31	30	32	55
209	23	31	30	32	55
210	14	141	142	143	156
211	25	90	91	92	93
211	26	90	91	92	93
211	27	90	91	92	93
212	15	74	64	63	76
213	14	3	4	5	25
214	14	144	145	146	152
215	15	77	61	60	80
216	15	131	115	114	133
217	1	142	143	144	145
217	2	142	143	144	145
218	14	95	136	137	165
219	14	61	62	63	76
220	20	133	114	113	135
220	21	133	114	113	135
221	15	45	37	36	47
222	15	51	34	33	53
223	28	89	90	91	103
224	5	93	94	95	96
224	6	93	94	95	96
225	28	117	116	115	132
226	12	66	67	68	85
226	13	66	67	68	85
227	15	48	36	35	50
228	20	111	113	114	133
228	21	111	113	114	133
229	28	91	90	89	107
230	15	163	138	137	164
231	15	26	3	2	29
232	28	89	90	91	102
233	28	116	117	118	125
234	10	61	62	63	64
234	11	61	62	63	64
235	5	112	111	113	114
235	6	112	111	113	114
236	3	139	140	141	158
236	4	139	140	141	158
237	22	112	111	113	135
237	23	112	111	113	135
238	10	60	61	62	63
238	11	60	61	62	63
239	15	82	58	57	84
240	3	10	9	8	21
240	4	10	9	8	21
241	28	35	36	37	45
242	14	69	67	68	85
243	20	30	32	33	54
243	21	30	32	33	54
244	7	2	1	111	112
244	8	2	1	111	112
245	24	120	119	118	126
246	15	151	147	146	153
247	10	58	59	60	61
247	11	58	59	60	61
248	33	149	148	147	150
249	3	13	12	11	17
249	4	13	12	11	17
250	28	88	89	90	105
251	14	143	142	141	159
252	14	28	2	1	111
253	24	32	33	34	35
254	20	40	39	38	43
254	21	40	39	38	43
255	14	6	7	8	20
256	20	95	94	93	99
256	21	95	94	93	99
257	3	7	8	9	18
257	4	7	8	9	18
258	3	10	11	12	14
258	4	10	11	12	14
259	3	145	146	147	150
259	4	145	146	147	150
260	5	13	30	32	33
260	6	13	30	32	33
261	24	87	88	89	107
262	28	114	115	116	129
263	14	5	4	3	26
264	14	64	65	66	72
265	20	95	94	93	98
265	21	95	94	93	98
266	3	62	63	64	74
266	4	62	63	64	74
267	14	3	4	5	24
268	5	1	111	113	114
268	6	1	111	113	114
269	15	77	61	60	79
270	5	1	111	113	135
270	6	1	111	113	135
271	25	34	35	36	37
271	26	34	35	36	37
271	27	34	35	36	37
272	3	59	60	61	77
272	4	59	60	61	77
273	24	91	92	93	94
274	10	138	139	140	141
274	11	138	139	140	141
275	3	62	63	64	73
275	4	62	63	64	73
276	15	101	92	91	102
277	12	40	56	57	58
277	13	40	56	57	58
278	1	136	137	138	139
278	2	136	137	138	139
279	15	162	138	137	165
280	28	117	118	119	123
281	24	32	33	34	52
282	3	65	64	63	76
282	4	65	64	63	76
283	15	155	144	143	157
284	28	35	34	33	54
285	14	61	62	63	75
286	3	1	2	3	27
286	4	1	2	3	27
287	20	92	93	94	97
287	21	92	93	94	97
288	16	92	93	94	95
288	17	92	93	94	95
288	18	92	93	94	95
288	19	92	93	94	95
289	10	9	10	11	12
289	11	9	10	11	12
290	14	8	7	6	22
291	15	70	67	66	71
292	15	23	6	5	25
293	15	128	117	116	130
294	29	121	120	119	123
295	28	38	37	36	48
296	15	19	9	8	20
297	3	10	9	8	20
297	4	10	9	8	20
298	28	116	117	118	126
299	12	3	2	1	111
299	13	3	2	1	111
300	20	30	32	33	53
300	21	30	32	33	53
301	3	139	138	137	165
301	4	139	138	137	165
302	24	120	119	118	125
303	28	91	90	89	106
304	25	89	90	91	92
304	26	89	90	91	92
304	27	89	90	91	92
305	10	63	64	65	66
305	11	63	64	65	66
306	14	15	12	13	30
307	10	137	138	139	140
307	11	137	138	139	140
308	28	35	36	37	46
309	10	140	141	142	143
309	11	140	141	142	143
310	15	104	90	89	106
311	14	138	139	140	161
312	15	150	147	146	152
313	15	73	64	63	76
314	15	27	3	2	29
315	20	115	114	113	135
315	21	115	114	113	135
316	15	158	141	140	160
317	14	140	139	138	162
318	9	39	40	56	57
319	5	97	94	95	136
319	6	97	94	95	136
320	15	69	67	66	72
321	15	105	90	89	106
322	14	58	59	60	80
323	14	95	136	137	164
324	15	106	89	88	109
325	15	78	61	60	80
326	3	10	11	12	15
326	4	10	11	12	15
327	14	63	62	61	78
328	14	70	67	68	85
329	15	127	117	116	129
330	15	102	91	90	105
331	31	146	147	148	149
331	32	146	147	148	149
332	24	32	33	34	51
333	15	44	38	37	45
334	3	59	60	61	78
334	4	59	60	61	78
335	15	102	91	90	104
336	1	65	66	67	68
336	2	65	66	67	68
337	3	68	67	66	71
337	4	68	67	66	71
338	28	35	34	33	53
339	28	117	118	119	124
340	3	65	64	63	75
340	4	65	64	63	75
341	3	1	2	3	26
341	4	1	2	3	26
342	3	145	146	147	151
342	4	145	146	147	151
343	28	34	35	36	48
344	15	23	6	5	24
345	15	128	117	116	129
346	14	8	7	6	23
347	15	154	144	143	157
348	14	11	10	9	19
349	15	130	116	115	131
350	10	3	4	5	6
350	11	3	4	5	6
351	29	121	120	119	124
352	1	145	146	147	148
352	2	145	146	147	148
353	28	90	89	88	108
354	14	138	139	140	160
355	3	59	58	57	84
355	4	59	58	57	84
356	15	19	9	8	21
357	14	144	145	146	153
358	20	54	33	32	55
358	21	54	33	32	55
359	14	40	56	57	83
360	3	148	147	146	152
360	4	148	147	146	152
361	3	142	141	140	160
361	4	142	141	140	160
362	15	27	3	2	28
363	9	12	13	30	32
364	15	47	36	35	50
365	24	113	114	115	132
366	25	115	116	117	118
366	26	115	116	117	118
366	27	115	116	117	118
367	3	142	143	144	155
367	4	142	143	144	155
368	15	73	64	63	75
369	15	52	34	33	54
370	3	56	57	58	82
370	4	56	57	58	82
371	15	43	38	37	46
372	14	58	59	60	79
373	15	162	138	137	164
374	15	14	12	11	17
375	15	78	61	60	79
376	16	30	32	33	34
376	17	30	32	33	34
376	18	30	32	33	34
376	19	30	32	33	34
377	14	29	2	1	111
378	28	91	92	93	99
379	14	63	62	61	77

Impropers

91	2	113	135	111	114
105	1	30	32	13	31
211	1	95	136	94	96
301	2	94	93	95	97
344	1	30	31	32	13
371	1	40	56	39	41
380	2	39	42	38	40
440	2	113	114	135	111
468	1	111	112	113	1
499	2	94	97	93	95
509	2	87	88	110	85
534	2	94	95	97	93
552	2	113	111	114	135
637	2	39	38	40	42
671	2	87	85	88	110
678	1	85	87	68	86
695	2	32	33	55	30
756	1	85	86	87	68
770	2	32	30	33	55
784	1	111	1	112	113
803	1	40	41	56	39
819	1	95	96	136	94
918	2	87	110	85	88
925	1	30	13	31	32
937	1	111	113	1	112
1004	1	85	68	86	87
1005	1	40	39	41	56
1032	1	95	94	96	136
1037	2	32	55	30	33
1068	2	39	40	42	38
