Title

11000 atoms
11375 bonds
21500 angles
46000 dihedrals
2250 impropers

11 atom types
14 bond types
9 angle types
39 dihedral types
3 improper types
-14.438321 139.8795237 xlo xhi
-13.90207508 138.5269656 ylo yhi
-14.57554404 139.9059557 zlo zhi
0.0 0.0 0.0 xy xz yz

Masses

1	12.01078
2	15.99943
3	14.00672
4	12.01078
5	1.007947
6	1.007947
7	1.007947
8	15.99943
9	12.01078
10	15.99943
11	1.007947


Pair Coeffs

1	0.086879315	3.4806469
2	0.2102061	3.0398122
3	0.16769152	3.206876
4	0.10884061	3.3795318
5	0.014090815	1.1034277
6	0.016409246	2.5832257
7	0.015779483	2.6445434
8	0.16846514	3.0251065
9	0.21	3.3996695
10	0.20947353	2.99716
11	1.2326e-05	0.53453923

Bond Coeffs

1 harmonic	582.698766451	1.225198386222
2 harmonic	492.76746816345	1.381897776683
3 harmonic	279.1350963404	1.454628925034
4 harmonic	352.0565580496	1.450098586273
5 harmonic	505.144496193	1.019481865027
6 harmonic	264.62148576755	1.52190126495
7 harmonic	370.04670688625	1.093899492634
8 harmonic	301.15400723785	1.345741232799
9 harmonic	366.7408841747	1.425895053732
10 harmonic	300.03137914615	1.451203938761
11 harmonic	366.34047229585	1.464762957261
12 harmonic	602.81384337	1.196112346392
13 harmonic	329.96998057905	1.427343958716
14 harmonic	543.5267831885	0.9716763312559


Angle Coeffs

1 harmonic	55.42182150775	117.3465570514
2 harmonic	63.44422595415	115.5071327674
3 harmonic	57.8982893754	126.8062420451
4 harmonic	53.20531626545	116.5475862634
5 harmonic	65.09061609600001	110.3538806181
6 harmonic	201.41175231035	127.4691416191
7 harmonic	48.776492647595	115.6030999533
8 harmonic	55.07882548015	112.8714009681
9 harmonic	33.56981613361	180


Dihedral Coeffs

1 fourier 1	-0.1488678166443	4	180
2 fourier 1	-0.1230328948768	3	180
3 fourier 1	0.2939295466901	2	0
4 fourier 1	-0.3024127022865	1	0
5 fourier 1	0.182238503271	2	0
6 fourier 1	0.02972342374561	3	0
7 fourier 1	1.809047390003	2	180
8 fourier 1	-0.04816277792592	1	0
9 fourier 1	3.101948770557	2	180
10 fourier 1	-0.4252153282372	1	0
11 fourier 1	2.348375642009	2	180
12 fourier 1	1.256156174911	1	0
13 fourier 1	0.9974165607242	2	180
14 fourier 1	0.1155372516788	3	0
15 fourier 1	0.09223874044423	3	0
16 fourier 1	0.3159935921949	2	180
17 fourier 1	0.3247796806857	1	180
18 fourier 1	0.1040663847541	3	0
19 fourier 1	2.779853741805	2	180
20 fourier 1	0.0473758381877	3	0
21 fourier 1	0.1918272375143	3	0
22 fourier 1	0.9202179876409	1	180
23 fourier 1	0.4860993122944	2	180
24 fourier 1	0.8916986138746	1	0
25 fourier 1	1.163809172478	2	180
26 fourier 1	0.1679186987369	1	180
27 fourier 1	0.1911926717192	3	0
28 fourier 1	0.1115525666802	3	0
29 fourier 1	0.3432490222662	1	0
30 fourier 1	-0.0309670556842	3	0
31 fourier 1	0.4598191477945	2	0
32 fourier 1	0.4552156463534	3	0
33 fourier 1	-0.03687743385131	2	180
34 fourier 1	0.457973137376	1	0
35 fourier 1	-1.382973039546	1	0
36 fourier 1	0	1	0
37 fourier 1	0.3445382149273	3	0
38 fourier 1	0.1364556373303	1	0
39 fourier 1	0.3026390167484	3	0


Improper Coeffs

1 0.3333333333333333	-1	2
2 0.3666666666666667	-1	2
3 3.5	-1	2


Atoms

1	6	1	0.53409893	4.391477	4.1591205	-1.1780327
2	6	2	-0.7438572	5.5300833	3.6380463	-1.3203993
3	6	3	-0.53315526	3.6134521	3.9099391	-0.004816218
4	6	4	0.024653232	4.1021088	3.0483456	1.0708344
5	6	4	-0.15095968	3.0736361	2.950096	2.2019971
6	6	4	-0.1474007	3.5747584	2.0315248	3.3267817
7	6	4	-0.1474007	2.661386	2.0454627	4.5654752
8	6	4	-0.1496981	1.2241109	1.5513208	4.3193997
9	6	4	0.019182598	1.1627334	0.090899098	3.8521362
10	6	3	-0.49039697	-0.2204723	-0.38058019	3.8022848
11	6	1	0.76558209	-0.54424854	-1.7156355	3.4043839
12	6	2	-0.67263889	0.36214084	-2.5307433	3.0853437
13	6	5	0.31507075	-1.008306	0.25890066	4.0547988
14	6	6	0.038463945	1.6048259	0.0028692685	2.837589
15	6	6	0.038463945	1.74052	-0.5485086	4.5550626
16	6	7	0.074737711	0.7100472	2.2063126	3.5845117
17	6	7	0.074737711	0.66924447	1.6400092	5.2780042
18	6	7	0.073917052	3.1269951	1.4140036	5.3542739
19	6	7	0.073917052	2.6160993	3.0809511	4.9656539
20	6	7	0.073917052	3.6938596	0.99450633	2.9462772
21	6	7	0.073917052	4.5815315	2.3761409	3.6486664
22	6	7	0.074737711	2.1267161	2.5472793	1.784654
23	6	7	0.074737711	2.8820155	3.967502	2.6099475
24	6	6	0.035087018	5.0528018	3.4656925	1.4680868
25	6	6	0.035087018	4.3002333	2.0324899	0.66233984
26	6	5	0.30729154	2.6749876	4.3651765	0.067046853
27	7	8	-0.5051915	-1.5356466	-2.0185582	3.3776504
28	7	4	0.22915474	-1.6705824	-2.8240296	2.2359967
29	7	6	0.11472151	-1.2295468	-2.322029	1.3424616
30	7	4	0.10513418	-3.1256996	-3.1421316	1.9639671
31	7	6	0.088464795	-3.5647269	-2.3875787	1.2775468
32	7	6	0.088464795	-3.7115096	-3.1441701	2.909878
33	7	8	-0.41749685	-3.2073526	-4.4208601	1.3787653
34	7	4	0.2781278	-1.9943939	-5.1000127	1.648908
35	7	6	0.11353708	-1.5384416	-5.4361382	0.69226954
36	7	4	0.14482846	-2.2049738	-6.2618784	2.586274
37	7	8	-0.088431613	-3.509096	-6.7755983	2.5214718
38	7	6	0.12143911	-1.4542476	-7.0614068	2.3825129
39	7	4	0.11284152	-1.9291925	-5.6498891	3.9430561
40	7	6	0.085583938	-1.485254	-6.4055502	4.6262127
41	7	6	0.085583938	-2.8680304	-5.2679085	4.4007758
42	7	8	-0.41548046	-1.035243	-4.5742674	3.7807842
43	7	4	0.28098029	-1.0600706	-4.1911186	2.4183946
44	7	6	0.12139592	-0.027730914	-4.2254995	2.0047974
45	4	1	0.53409899	3.9999311	4.8022581	-1.9543315
46	4	2	-0.74385726	3.3107504	5.807429	-1.6364769
47	4	3	-0.53315532	4.2631834	4.4954006	-3.3279172
48	4	4	0.024653236	3.766372	5.3156996	-4.4312313
49	4	4	-0.15095968	4.5884137	6.6025583	-4.5552774
50	4	4	-0.14721059	4.0889146	7.4633535	-5.7260217
51	4	4	-0.14298006	4.9677809	8.7005864	-5.9683143
52	4	4	-0.12719753	4.8045728	9.7665954	-4.872914
53	4	4	0.17825391	5.6099934	11.037187	-5.1868024
54	4	3	-0.71541094	5.117506	11.708047	-6.3866802
55	4	9	0.58900864	3.9715285	12.260162	-6.4277207
56	4	2	-0.55427431	2.8559329	12.795525	-6.4676048
57	4	6	0.016735004	5.5592841	11.734326	-4.3214205
58	4	6	0.016735004	6.6769556	10.768168	-5.3387218
59	4	7	0.068459457	5.171467	9.3644984	-3.9048687
60	4	7	0.068459457	3.7309824	10.026782	-4.75003
61	4	7	0.072662613	6.0346186	8.395869	-6.045183
62	4	7	0.072662613	4.6727818	9.138562	-6.9469822
63	4	7	0.073917052	4.0996896	6.8492236	-6.6521045
64	4	7	0.073917052	3.0378764	7.7777951	-5.5428901
65	4	7	0.074737711	4.5078455	7.1760373	-3.6088866
66	4	7	0.074737711	5.6558643	6.3348188	-4.7179264
67	4	6	0.035087018	2.691917	5.5535578	-4.2683637
68	4	6	0.035087018	3.8495911	4.7362239	-5.3758866
69	4	5	0.30729157	4.7811363	3.615214	-3.5481654
70	5	8	-0.088431621	-3.5649885	-7.289028	1.6735167
71	5	4	0.1457	-4.8033197	-7.9501168	1.6921828
72	5	6	0.12143912	-4.9525019	-8.4810878	2.6615354
73	5	4	0.11152748	-4.9063208	-8.9434207	0.55512122
74	5	6	0.085583953	-4.5561989	-9.9448374	0.88334725
75	5	6	0.085583953	-4.287767	-8.6173515	-0.30937167
76	5	8	-0.40509334	-6.2512866	-9.0215361	0.14430375
77	5	4	0.21179997	-6.9197852	-7.8698946	0.62493295
78	5	6	0.11746234	-7.7962361	-8.1787729	1.2346189
79	5	4	0.22539804	-7.3378391	-6.959742	-0.50313189
80	5	10	-0.72238111	-7.5249514	-7.6501578	-1.7108902
81	5	11	0.39288194	-8.3837737	-8.1402295	-1.6216542
82	5	6	0.086134536	-8.2598151	-6.3975024	-0.22157226
83	5	4	0.047078176	-6.1748846	-5.9953778	-0.60276891
84	5	6	0.087142846	-6.5294708	-4.993549	-0.92620941
85	5	6	0.087142846	-5.4237114	-6.3599571	-1.3371439
86	5	8	-0.40518668	-5.560695	-5.8965414	0.66106787
87	5	4	0.28458006	-5.9597237	-7.0184381	1.4263016
88	5	6	0.11442886	-6.4207101	-6.6719658	2.3779799
89	6	1	0.53409893	-2.0476053	-1.6514802	34.810111
90	6	2	-0.7438572	-2.4404512	-2.848279	34.849552
91	6	3	-0.53315526	-2.5709649	-0.74037302	33.840663
92	6	4	0.024653232	-3.576368	-1.1546404	32.863063
93	6	4	-0.15095968	-3.958476	0.010778501	31.94506
94	6	4	-0.1474007	-5.0015904	-0.42400967	30.904431
95	6	4	-0.1474007	-5.5530912	0.75219893	30.079092
96	6	4	-0.1496981	-4.5057044	1.5036239	29.237171
97	6	4	0.019182598	-3.8345175	0.61545614	28.180951
98	6	3	-0.49039697	-2.9828227	1.4115464	27.298403
99	6	1	0.76558209	-2.2524254	0.81577579	26.222714
100	6	2	-0.67263889	-2.3254458	-0.42268144	26.002213
101	6	5	0.31507075	-2.8869066	2.4427932	27.442316
102	6	6	0.038463945	-3.2083124	-0.15324384	28.68042
103	6	6	0.038463945	-4.6147779	0.10707414	27.573064
104	6	7	0.074737711	-3.7351209	1.9591689	29.89445
105	6	7	0.074737711	-5.0259892	2.3378784	28.719495
106	6	7	0.073917052	-6.3470115	0.36641518	29.401893
107	6	7	0.073917052	-6.0394648	1.4760661	30.767486
108	6	7	0.073917052	-4.570258	-1.1977724	30.233894
109	6	7	0.073917052	-5.8594232	-0.89451774	31.432358
110	6	7	0.074737711	-3.0428086	0.3690566	31.429033
111	6	7	0.074737711	-4.3710446	0.84031606	32.56143
112	6	6	0.035087018	-4.4797928	-1.5158755	33.400779
113	6	6	0.035087018	-3.167042	-1.9885622	32.250601
114	6	5	0.30729154	-2.213734	0.24220073	33.848138
115	7	8	-0.5051915	-1.6554608	1.4079464	25.615825
116	7	4	0.22915474	-0.49635451	0.66072183	25.354113
117	7	6	0.11472151	-0.071285755	0.24499293	26.298257
118	7	4	0.10513418	0.55191069	1.5073801	24.663559
119	7	6	0.088464795	1.2255444	1.9754829	25.412135
120	7	6	0.088464795	0.074037815	2.3134317	24.06369
121	7	8	-0.41749685	1.3008406	0.68440356	23.799795
122	7	4	0.2781278	0.55254908	-0.49518109	23.567128
123	7	6	0.11353708	1.1657164	-1.3813688	23.840491
124	7	4	0.14482846	0.082401414	-0.58199564	22.137319
125	7	8	-0.088431613	0.91205883	0.12591145	21.254495
126	7	6	0.12143911	-0.0071223817	-1.6494375	21.826019
127	7	4	0.11284152	-1.2969005	0.038355376	22.201622
128	7	6	0.085583938	-1.9702186	-0.4353217	21.455244
129	7	6	0.085583938	-1.2480419	1.129336	21.991367
130	7	8	-0.41548046	-1.8174341	-0.14958481	23.496289
131	7	4	0.28098029	-0.73614545	-0.44768543	24.359699
132	7	6	0.12139592	-0.93053026	-1.4131277	24.877488
133	4	1	0.53409899	-1.3051477	-1.3116426	35.519224
134	4	2	-0.74385726	-1.3782285	-0.1413753	35.979119
135	4	3	-0.53315532	-0.24837733	-2.1929269	35.915172
136	4	4	0.024653236	0.79141584	-1.804329	36.866401
137	4	4	-0.15095968	0.24084085	-1.8130301	38.296064
138	4	4	-0.14721059	1.3312353	-1.4268895	39.307521
139	4	4	-0.14298006	0.85758854	-1.5496802	40.76438
140	4	4	-0.12719753	-0.15037585	-0.45628819	41.153502
141	4	4	0.17825391	-0.53141477	-0.53260839	42.640315
142	4	3	-0.71541094	0.61203518	-0.26148272	43.507101
143	4	9	0.58900864	1.1560863	0.88760833	43.565214
144	4	2	-0.55427431	1.6860186	2.0051635	43.619989
145	4	6	0.016735004	-1.3441569	0.19596155	42.855017
146	4	6	0.016735004	-0.92166646	-1.5472761	42.868377
147	4	7	0.068459457	-1.0806582	-0.57946909	40.559527
148	4	7	0.068459457	0.26904647	0.54787435	40.927368
149	4	7	0.072662613	0.41105583	-2.5543585	40.932112
150	4	7	0.072662613	1.7526522	-1.4669786	41.419101
151	4	7	0.073917052	2.2013464	-2.1047596	39.172244
152	4	7	0.073917052	1.6793395	-0.38901766	39.110703
153	4	7	0.074737711	-0.60240333	-1.0951001	38.363449
154	4	7	0.074737711	-0.14095834	-2.8314719	38.529721
155	4	6	0.035087018	1.1818416	-0.79595136	36.605061
156	4	6	0.035087018	1.6328439	-2.5267459	36.794265
157	4	5	0.30729157	-0.18760921	-3.1301485	35.457531
158	5	8	-0.088431621	1.7350777	-0.41900786	21.147421
159	5	4	0.1457	2.485798	0.1935998	20.131555
160	5	6	0.12143912	1.8486674	0.39940119	19.239625
161	5	4	0.11152748	3.6563891	-0.67386898	19.722428
162	5	6	0.085583953	3.3699845	-1.3376957	18.87954
163	5	6	0.085583953	3.9937768	-1.3059417	20.572682
164	5	8	-0.40509334	4.7209827	0.16042008	19.32948
165	5	4	0.21179997	4.4764643	1.4525398	19.853703
166	5	6	0.11746234	4.4841997	2.1946118	19.026323
167	5	4	0.22539804	5.4799386	1.8180715	20.919116
168	5	10	-0.72238111	6.7018823	1.1455166	20.761355
169	5	11	0.39288194	7.1644484	1.5828783	19.999478
170	5	6	0.086134536	5.6356508	2.9229927	20.937329
171	5	4	0.047078176	4.7844482	1.3899952	22.19404
172	5	6	0.087142846	5.0691542	2.0592688	23.033696
173	5	6	0.087142846	5.0618178	0.34703844	22.461983
174	5	8	-0.40518668	3.3918461	1.449455	21.990558
175	5	4	0.28458006	3.157494	1.4625724	20.594719
176	5	6	0.11442886	2.5493386	2.3561098	20.330181
177	6	1	0.53409893	0.21460767	0.51759922	52.338987
178	6	2	-0.7438572	1.3924784	0.51363775	51.890863
179	6	3	-0.53315526	-0.17969612	1.4437319	53.354198
180	6	4	0.024653232	0.75852452	2.4179259	53.909933
181	6	4	-0.15095968	0.080624462	3.2810469	54.97877
182	6	4	-0.1474007	1.0670833	4.2945067	55.578632
183	6	4	-0.1474007	0.39064889	5.3049302	56.522182
184	6	4	-0.1496981	-0.28041495	4.6878318	57.762888
185	6	4	0.019182598	0.70920705	3.9565691	58.67986
186	6	3	-0.49039697	0.057923597	3.5433028	59.922066
187	6	1	0.76558209	0.7718763	2.8490922	60.948649
188	6	2	-0.67263889	1.9938219	2.5742006	60.810763
189	6	5	0.31507075	-0.95532807	3.7456545	60.082553
190	6	6	0.038463945	1.099536	3.0532775	58.165848
191	6	6	0.038463945	1.5597739	4.6311158	58.92133
192	6	7	0.074737711	-1.096187	3.9982349	57.459066
193	6	7	0.074737711	-0.75061066	5.5147339	58.337182
194	6	7	0.073917052	1.1546753	6.0409809	56.857188
195	6	7	0.073917052	-0.37512486	5.8718075	55.950631
196	6	7	0.073917052	1.886141	3.7611276	56.106863
197	6	7	0.073917052	1.5361326	4.8703245	54.751354
198	6	7	0.074737711	-0.30362323	2.6147044	55.779666
199	6	7	0.074737711	-0.77658742	3.8226188	54.520354
200	6	6	0.035087018	1.1355188	3.0683802	53.091038
201	6	6	0.035087018	1.6192782	1.8774251	54.362753
202	6	5	0.30729154	-1.1679989	1.4079968	53.693465
203	7	8	-0.5051915	0.28034003	2.5680004	61.817399
204	7	4	0.22915474	0.76657524	1.2939744	62.150262
205	7	6	0.11472151	0.73964381	0.61572557	61.264726
206	7	4	0.10513418	-0.040579524	0.6807905	63.275012
207	7	6	0.088464795	-0.87367251	0.071285141	62.865467
208	7	6	0.088464795	-0.46881318	1.4725186	63.929006
209	7	8	-0.41749685	0.80852632	-0.13449528	64.048707
210	7	4	0.2781278	2.1446614	0.244187	63.771512
211	7	6	0.11353708	2.7184649	-0.64637106	63.434339
212	7	4	0.14482846	2.7987599	0.88925428	64.966909
213	7	8	-0.088431613	2.23361	0.4697268	66.180765
214	7	6	0.12143911	3.8974727	0.69681365	64.954636
215	7	4	0.11284152	2.5457019	2.3628893	64.730677
216	7	6	0.085583938	3.3831112	2.9700387	65.136785
217	7	6	0.085583938	1.60327	2.6847673	65.225702
218	7	8	-0.41548046	2.4273294	2.5850804	63.345376
219	7	4	0.28098029	2.1592527	1.3401167	62.727537
220	7	6	0.12139592	2.9231675	1.14362	61.942812
221	4	1	0.53409899	-0.5051445	-0.18936859	51.949465
222	4	2	-0.74385726	-1.7062645	0.16315033	51.810141
223	4	3	-0.53315532	-0.083127297	-1.5144154	51.608359
224	4	4	0.024653236	-0.99772859	-2.5244805	51.078938
225	4	4	-0.15095968	-1.3162709	-2.2410195	49.607433
226	4	4	-0.14721059	-2.2603164	-3.3090245	49.033627
227	4	4	-0.14298006	-2.5019219	-3.1370384	47.52568
228	4	4	-0.12719753	-3.382666	-1.9194435	47.202158
229	4	4	0.17825391	-3.6989479	-1.8249599	45.701269
230	4	3	-0.71541094	-4.504068	-2.954617	45.245241
231	4	9	0.58900864	-5.7064515	-3.1228541	45.627012
232	4	2	-0.55427431	-6.8754724	-3.2869553	46.000133
233	4	6	0.016735004	-4.2371697	-0.87405265	45.492573
234	4	6	0.016735004	-2.7490925	-1.8060328	45.125703
235	4	7	0.068459457	-2.8525739	-0.98850914	47.495021
236	4	7	0.068459457	-4.3306205	-1.9692663	47.780339
237	4	7	0.072662613	-1.5281009	-3.0525213	46.995177
238	4	7	0.072662613	-3.0059738	-4.0571065	47.156838
239	4	7	0.073917052	-1.8080042	-4.3110507	49.195671
240	4	7	0.073917052	-3.2312188	-3.2863415	49.575776
241	4	7	0.074737711	-1.7899083	-1.2409994	49.525871
242	4	7	0.074737711	-0.36681845	-2.2320802	49.027735
243	4	6	0.035087018	-1.9311559	-2.5401309	51.683937
244	4	6	0.035087018	-0.51801448	-3.5234036	51.163306
245	4	5	0.30729157	0.90702141	-1.7844356	51.803827
246	5	8	-0.088431621	2.5666371	-0.45197876	66.339868
247	5	4	0.1457	2.1507122	-0.80515355	67.633361
248	5	6	0.12143912	2.4044636	-0.00058226295	68.362817
249	5	4	0.11152748	2.7916462	-2.1029841	68.074961
250	5	6	0.085583953	3.74007	-1.9014962	68.6163
251	5	6	0.085583953	3.0142156	-2.7500255	67.19856
252	5	8	-0.40509334	1.8960148	-2.7832504	68.922834
253	5	4	0.21179997	0.60435803	-2.2429587	68.713356
254	5	6	0.11746234	0.18988305	-1.889771	69.682251
255	5	4	0.22539804	-0.31707502	-3.2444116	68.06241
256	5	10	-0.72238111	0.052091605	-4.5713072	68.333389
257	5	11	0.39288194	-0.21522032	-4.7486787	69.272959
258	5	6	0.086134536	-1.3718004	-3.0553585	68.374248
259	5	4	0.047078176	-0.16683676	-2.9283567	66.589343
260	5	6	0.087142846	-1.1187909	-3.1260632	66.052034
261	5	6	0.087142846	0.63378056	-3.5509356	66.13339
262	5	8	-0.40518668	0.18278163	-1.5706986	66.452185
263	5	4	0.28458006	0.67718752	-1.1217738	67.700179
264	5	6	0.11442886	0.092599497	-0.23509187	68.032286
265	6	1	0.53409893	-2.1734257	-2.0316422	82.317021
266	6	2	-0.7438572	-3.4139594	-1.848439	82.191627
267	6	3	-0.53315526	-1.6466743	-2.7286826	83.448621
268	6	4	0.024653232	-2.5175177	-3.2550195	84.498742
269	6	4	-0.15095968	-1.69808	-3.9507439	85.590267
270	6	4	-0.1474007	-2.6071098	-4.4899937	86.705126
271	6	4	-0.1474007	-1.852147	-5.3553464	87.729822
272	6	4	-0.1496981	-0.73911662	-4.6251165	88.503396
273	6	4	0.019182598	-1.2623079	-3.4549142	89.347097
274	6	3	-0.49039697	-0.20138459	-2.9092502	90.192513
275	6	1	0.76558209	-0.43881906	-1.8143511	91.081529
276	6	2	-0.67263889	-1.5800565	-1.2865265	91.163428
277	6	5	0.31507075	0.76339954	-3.3110231	90.158585
278	6	6	0.038463945	-1.6351164	-2.649205	88.680503
279	6	6	0.038463945	-2.0975798	-3.8062115	89.991842
280	6	7	0.074737711	0.046908759	-4.2673248	87.805194
281	6	7	0.074737711	-0.26020348	-5.3640035	89.181152
282	6	7	0.073917052	-2.5878686	-5.7613079	88.458962
283	6	7	0.073917052	-1.405057	-6.2257491	87.203571
284	6	7	0.073917052	-3.1230257	-3.6487075	87.215464
285	6	7	0.073917052	-3.3969334	-5.1246047	86.247513
286	6	7	0.074737711	-0.98069304	-3.2173175	86.015162
287	6	7	0.074737711	-1.1263317	-4.7910308	85.13719
288	6	6	0.035087018	-3.2309878	-3.9801699	84.050498
289	6	6	0.035087018	-3.0944826	-2.4163009	84.947904
290	6	5	0.30729154	-0.61056156	-2.8556028	83.507635
291	7	8	-0.5051915	0.33560154	-1.4492039	91.666582
292	7	4	0.22915474	0.19512202	-0.052607129	91.678749
293	7	6	0.11472151	0.061459025	0.3412561	90.643409
294	7	4	0.10513418	1.3993569	0.60940889	92.314444
295	7	6	0.088464795	2.1557432	0.86058328	91.541101
296	7	6	0.088464795	1.869326	-0.065311211	93.063981
297	7	8	-0.41749685	0.97780383	1.7850884	92.965862
298	7	4	0.2781278	-0.42236214	1.6962424	93.158568
299	7	6	0.11353708	-0.91483494	2.5824911	92.702428
300	7	4	0.14482846	-0.7754824	1.5721859	94.618995
301	7	8	-0.088431613	0.19708004	2.1379659	95.457361
302	7	6	0.12143911	-1.7764345	2.0249685	94.812481
303	7	4	0.11284152	-0.8570863	0.073549731	94.816161
304	7	6	0.085583938	-1.6181794	-0.17524062	95.586647
305	7	6	0.085583938	0.12420561	-0.33436089	95.144045
306	7	8	-0.41548046	-1.2090375	-0.52525704	93.591416
307	7	4	0.28098029	-0.93988147	0.4059153	92.559913
308	7	6	0.12139592	-1.8639023	0.57634523	91.964002
309	4	1	0.53409899	-1.5007927	-1.6558765	81.558114
310	4	2	-0.74385726	-0.47722308	-2.3232229	81.252625
311	4	3	-0.53315532	-1.7797215	-0.40400285	80.921552
312	4	4	0.024653236	-0.91692865	0.16858297	79.889685
313	4	4	-0.15095968	-1.1180775	-0.56024536	78.557209
314	4	4	-0.14721059	-0.23166583	0.047319865	77.458915
315	4	4	-0.14298006	-0.49747695	-0.56778009	76.075856
316	4	4	-0.12719753	0.024887284	-2.0086922	75.958289
317	4	4	0.17825391	-0.15585322	-2.5685325	74.538592
318	4	3	-0.71541094	0.64689978	-1.8377615	73.561931
319	4	9	0.58900864	1.9187603	-1.8840126	73.565183
320	4	2	-0.55427431	3.1560163	-1.9279773	73.56995
321	4	6	0.016735004	0.12544607	-3.6446825	74.523325
322	4	6	0.016735004	-1.225762	-2.4973719	74.248608
323	4	7	0.068459457	-0.53717064	-2.6661721	76.654864
324	4	7	0.068459457	1.0989784	-2.0499008	76.241175
325	4	7	0.072662613	-1.5869413	-0.53993023	75.854054
326	4	7	0.072662613	0.015020434	0.066279309	75.31958
327	4	7	0.073917052	-0.43828317	1.1372824	77.394171
328	4	7	0.073917052	0.84074259	-0.076645389	77.726618
329	4	7	0.074737711	-0.86641261	-1.6326802	78.689773
330	4	7	0.074737711	-2.1872111	-0.4809591	78.260128
331	4	6	0.035087018	0.14608853	0.10619642	80.211646
332	4	6	0.035087018	-1.1736073	1.2422588	79.761517
333	4	5	0.30729157	-2.602167	0.14801285	81.253779
334	5	8	-0.088431621	0.087897329	3.1222772	95.386845
335	5	4	0.1457	0.93405547	3.6846112	96.355684
336	5	6	0.12143912	0.78616258	3.1893699	97.343962
337	5	4	0.11152748	0.68604131	5.1707553	96.497231
338	5	6	0.085583953	-0.069753594	5.3632641	97.287717
339	5	6	0.085583953	0.31623323	5.6007518	95.540872
340	5	8	-0.40509334	1.8992739	5.8006594	96.836486
341	5	4	0.21179997	2.954746	4.9172112	96.50532
342	5	6	0.11746234	3.5818343	4.7368827	97.405059
343	5	4	0.22539804	3.7851529	5.4482996	95.363371
344	5	10	-0.72238111	3.744157	6.8485139	95.273459
345	5	11	0.39288194	4.3129612	7.1919762	96.011161
346	5	6	0.086134536	4.8375264	5.0880205	95.453582
347	5	4	0.047078176	3.1389101	4.8067338	94.153763
348	5	6	0.087142846	3.8986193	4.6108651	93.367326
349	5	6	0.087142846	2.3526962	5.4693478	93.730329
350	5	8	-0.40518668	2.5425113	3.5938147	94.550521
351	5	4	0.28458006	2.3879146	3.6260621	95.957119
352	5	6	0.11442886	2.8895809	2.7393858	96.404757
353	6	1	0.53409893	-3.9615378	-4.4949914	115.51148
354	6	2	-0.7438572	-4.9761133	-4.5077616	116.25893
355	6	3	-0.53315526	-2.643818	-4.5352992	116.06451
356	6	4	0.024653232	-2.4194213	-4.5937276	117.50825
357	6	4	-0.15095968	-0.92138683	-4.62407	117.82748
358	6	4	-0.1474007	-0.67991603	-4.6674378	119.34401
359	6	4	-0.1474007	0.79902667	-4.8842534	119.71078
360	6	4	-0.1496981	1.7568677	-3.7781031	119.23176
361	6	4	0.019182598	1.4403329	-2.4048639	119.83918
362	6	3	-0.49039697	2.4765993	-1.4329068	119.49351
363	6	1	0.76558209	2.4165012	-0.078276044	119.94836
364	6	2	-0.67263889	1.4613646	0.3179869	120.66838
365	6	5	0.31507075	3.2878967	-1.7123756	118.89595
366	6	6	0.038463945	0.46650598	-2.0388412	119.45164
367	6	6	0.038463945	1.3787004	-2.4936561	120.94602
368	6	7	0.074737711	1.7494946	-3.7129767	118.12314
369	6	7	0.074737711	2.7856133	-4.0701468	119.53352
370	6	7	0.073917052	0.87888768	-4.9727738	120.81691
371	6	7	0.073917052	1.1356766	-5.8532962	119.28411
372	6	7	0.073917052	-1.0629237	-3.7378658	119.81685
373	6	7	0.073917052	-1.2595868	-5.5126286	119.77482
374	6	7	0.074737711	-0.45047914	-3.7137565	117.40008
375	6	7	0.074737711	-0.46540482	-5.5209937	117.35223
376	6	6	0.035087018	-2.9047932	-5.5072064	117.9154
377	6	6	0.035087018	-2.8807879	-3.7004887	117.98506
378	6	5	0.30729154	-1.8339677	-4.5228348	115.40337
379	7	8	-0.5051915	3.1666371	0.58712496	119.68401
380	7	4	0.22915474	2.5317997	1.8101723	119.41661
381	7	6	0.11472151	1.6648688	1.6647491	118.72944
382	7	4	0.10513418	3.4974577	2.8008352	118.80127
383	7	6	0.088464795	3.4658584	2.7344138	117.69318
384	7	6	0.088464795	4.537946	2.5977685	119.13901
385	7	8	-0.41749685	3.134767	4.0992728	119.20967
386	7	4	0.2781278	2.3049088	3.9793252	120.35091
387	7	6	0.11353708	1.3420112	4.5026765	120.16393
388	7	4	0.14482846	2.9806917	4.5139923	121.588
389	7	8	-0.088431613	3.9430668	5.4921384	121.2949
390	7	6	0.12143911	2.2197747	4.9089888	122.30168
391	7	4	0.11284152	3.6252056	3.2772998	122.17676
392	7	6	0.085583938	3.6508718	3.3440571	123.28567
393	7	6	0.085583938	4.6671213	3.161693	121.80543
394	7	8	-0.41548046	2.8786157	2.1490029	121.7869
395	7	4	0.28098029	2.0866617	2.5164721	120.67276
396	7	6	0.12139592	1.0167856	2.3039422	120.89223
397	4	1	0.53409899	-4.0916174	-4.4527781	114.43869
398	4	2	-0.74385726	-3.2983994	-5.0866338	113.69344
399	4	3	-0.53315532	-5.1554908	-3.6709322	113.88454
400	4	4	0.024653236	-5.392598	-3.5640446	112.44601
401	4	4	-0.15095968	-6.0475419	-4.8427365	111.9139
402	4	4	-0.14721059	-6.3215217	-4.7336123	110.40587
403	4	4	-0.14298006	-7.0962937	-5.941596	109.856
404	4	4	-0.12719753	-6.2400719	-7.2168218	109.79602
405	4	4	0.17825391	-6.9987687	-8.3851412	109.14714
406	4	3	-0.71541094	-7.3064271	-8.1189011	107.74473
407	4	9	0.58900864	-6.3964022	-8.0391523	106.85857
408	4	2	-0.55427431	-5.510577	-7.959924	105.9973
409	4	6	0.016735004	-6.3920173	-9.3141032	109.22679
410	4	6	0.016735004	-7.948877	-8.5569682	109.69635
411	4	7	0.068459457	-5.9602432	-7.5258053	110.8254
412	4	7	0.068459457	-5.3029504	-7.0215031	109.23118
413	4	7	0.072662613	-8.0023911	-6.1218069	110.4752
414	4	7	0.072662613	-7.4374389	-5.685561	108.82901
415	4	7	0.073917052	-6.9293038	-3.8225837	110.21738
416	4	7	0.073917052	-5.3624457	-4.6184066	109.85452
417	4	7	0.074737711	-5.3744452	-5.7026675	112.11007
418	4	7	0.074737711	-7.0045221	-5.0106216	112.45574
419	4	6	0.035087018	-4.4315793	-3.3703079	111.92021
420	4	6	0.035087018	-6.0670544	-2.7014515	112.25592
421	4	5	0.30729157	-5.7470387	-3.1074834	114.53577
422	5	8	-0.088431621	3.4411541	6.3165177	121.06199
423	5	4	0.1457	4.3945465	7.3402847	120.94454
424	5	6	0.12143912	5.0757318	7.3482247	121.82758
425	5	4	0.11152748	3.727068	8.6921495	120.81375
426	5	6	0.085583953	3.5965838	9.1575052	121.81354
427	5	6	0.085583953	2.7281079	8.5930831	120.33569
428	5	8	-0.40509334	4.5339994	9.517939	120.00707
429	5	4	0.21179997	5.4183135	8.6847567	119.28046
430	5	6	0.11746234	6.4661979	9.0016306	119.47234
431	5	4	0.22539804	5.1087763	8.7010197	117.80411
432	5	10	-0.72238111	4.4810196	9.8892416	117.39863
433	5	11	0.39288194	5.1871215	10.587062	117.38539
434	5	6	0.086134536	6.0395551	8.5238532	117.21445
435	5	4	0.047078176	4.1819511	7.5145309	117.64402
436	5	6	0.087142846	4.3189074	7.0484577	116.64501
437	5	6	0.087142846	3.1201553	7.8285157	117.74644
438	5	8	-0.40518668	4.4744779	6.5739472	118.651
439	5	4	0.28458006	5.1960924	7.2399548	119.6704
440	5	6	0.11442886	6.1604983	6.7131454	119.84543
441	6	1	0.53409893	2.5214585	26.906918	-5.1166898
442	6	2	-0.7438572	3.7280474	26.578989	-4.9591563
443	6	3	-0.53315526	2.0735606	28.226693	-4.7982041
444	6	4	0.024653232	2.988771	29.243474	-4.2817764
445	6	4	-0.15095968	2.2514221	30.561027	-4.0223342
446	6	4	-0.1474007	3.2050679	31.627508	-3.4626776
447	6	4	-0.1474007	2.5556034	33.018987	-3.3588248
448	6	4	-0.1496981	1.3410076	33.101158	-2.4162252
449	6	4	0.019182598	1.6870316	32.763662	-0.95975765
450	6	3	-0.49039697	0.54764491	33.025148	-0.08143016
451	6	1	0.76558209	0.619899	32.798559	1.3288767
452	6	2	-0.67263889	1.678084	32.365787	1.8586716
453	6	5	0.31507075	-0.35352985	33.382133	-0.47363801
454	6	6	0.038463945	1.9596257	31.690574	-0.87805316
455	6	6	0.038463945	2.5505492	33.382193	-0.63030031
456	6	7	0.074737711	0.52634437	32.437553	-2.7757918
457	6	7	0.074737711	0.95410025	34.142009	-2.456202
458	6	7	0.073917052	3.3263699	33.743209	-3.0136331
459	6	7	0.073917052	2.2390506	33.343286	-4.3732479
460	6	7	0.073917052	3.5940081	31.307834	-2.4722685
461	6	7	0.073917052	4.0810343	31.716166	-4.1414887
462	6	7	0.074737711	1.4344941	30.371416	-3.2944808
463	6	7	0.074737711	1.8060273	30.923411	-4.9755175
464	6	6	0.035087018	3.801114	29.411637	-5.0217935
465	6	6	0.035087018	3.439614	28.879149	-3.3319913
466	6	5	0.30729154	1.0630887	28.450652	-4.9462224
467	7	8	-0.5051915	-0.2067698	32.992206	1.9242476
468	7	4	0.22915474	-0.25580215	31.962426	2.8768831
469	7	6	0.11472151	-0.15823153	30.964621	2.387203
470	7	4	0.10513418	-1.5491569	32.009908	3.6627164
471	7	6	0.088464795	-2.3187852	31.371423	3.1797284
472	7	6	0.088464795	-1.9370999	33.051161	3.7194286
473	7	8	-0.41749685	-1.3011943	31.547907	4.9701354
474	7	4	0.2781278	0.094589547	31.61983	5.1984084
475	7	6	0.11353708	0.47120657	30.618725	5.5016863
476	7	4	0.14482846	0.43551948	32.662825	6.2322651
477	7	8	-0.088431613	-0.61890845	32.89703	7.1279057
478	7	6	0.12143911	1.3628617	32.372591	6.7801286
479	7	4	0.11284152	0.71464272	33.888915	5.3895091
480	7	6	0.085583938	1.4886635	34.523313	5.8724577
481	7	6	0.085583938	-0.20840825	34.495369	5.2590349
482	7	8	-0.41548046	1.1654286	33.473446	4.1219849
483	7	4	0.28098029	0.79151367	32.119029	3.9509087
484	7	6	0.12139592	1.6944935	31.511616	3.7192901
485	4	1	0.53409899	1.8177835	26.179294	-5.4974507
486	4	2	-0.74385726	0.89888073	26.553704	-6.2732117
487	4	3	-0.53315532	1.9367811	24.807015	-5.1064395
488	4	4	0.024653236	1.0230009	23.767847	-5.5777689
489	4	4	-0.15095968	1.3437727	23.388606	-7.0270537
490	4	4	-0.14721059	0.40304902	22.281118	-7.5266733
491	4	4	-0.14298006	0.7734628	21.778632	-8.9310089
492	4	4	-0.12719753	0.45195994	22.803571	-10.030577
493	4	4	0.17825391	0.73129476	22.243319	-11.434044
494	4	3	-0.71541094	-0.14526345	21.119864	-11.753107
495	4	9	0.58900864	-1.3991817	21.267766	-11.913086
496	4	2	-0.55427431	-2.61915	21.411968	-12.066842
497	4	6	0.016735004	0.59772944	23.048056	-12.190363
498	4	6	0.016735004	1.7868078	21.901888	-11.490403
499	4	7	0.068459457	1.085099	23.705842	-9.8947609
500	4	7	0.068459457	-0.61160415	23.118595	-9.9599739
501	4	7	0.072662613	1.8529843	21.513178	-8.9637428
502	4	7	0.072662613	0.19362553	20.849024	-9.1214205
503	4	7	0.073917052	0.46216804	21.418948	-6.828054
504	4	7	0.073917052	-0.64744154	22.646551	-7.5221768
505	4	7	0.074737711	1.2364739	24.287507	-7.668528
506	4	7	0.074737711	2.3975484	23.036499	-7.0833345
507	4	6	0.035087018	-0.027426447	24.123751	-5.4912164
508	4	6	0.035087018	1.1350229	22.870553	-4.9317
509	4	5	0.30729157	2.6714772	24.552967	-4.4084462
510	5	8	-0.088431621	-0.64199901	32.117124	7.7418897
511	5	4	0.1457	-1.5730178	32.430566	8.7447902
512	5	6	0.12143912	-1.3771666	33.446409	9.1613658
513	5	4	0.11152748	-1.5298349	31.412655	9.8637912
514	5	6	0.085583953	-0.82081804	31.736899	10.654559
515	5	6	0.085583953	-1.2045547	30.420722	9.4809842
516	5	8	-0.40509334	-2.8225808	31.284995	10.408141
517	5	4	0.21179997	-3.7435504	31.803626	9.4663295
518	5	6	0.11746234	-4.3563441	32.596706	9.9467424
519	5	4	0.22539804	-4.6177272	30.717999	8.8893495
520	5	10	-0.72238111	-4.7640184	29.625601	9.75862
521	5	11	0.39288194	-5.3867332	29.919846	10.473711
522	5	6	0.086134536	-5.6134439	31.135757	8.6074705
523	5	4	0.047078176	-3.8698837	30.318262	7.6350253
524	5	6	0.087142846	-4.5823973	29.999553	6.8446108
525	5	6	0.087142846	-3.1727146	29.477592	7.8441072
526	5	8	-0.40518668	-3.1226933	31.42363	7.183197
527	5	4	0.28458006	-2.9985452	32.333053	8.260692
528	5	6	0.11442886	-3.3840639	33.329558	7.9498914
529	6	1	0.53409893	-1.0218941	28.142511	23.260536
530	6	2	-0.7438572	-0.90177678	26.924237	22.961217
531	6	3	-0.53315526	0.032110667	28.839921	23.928775