Title

215 atoms
236 bonds
391 angles
603 dihedrals
348 impropers

10 atom types
13 bond types
8 angle types
17 dihedral types
3 improper types
-20.51600075 79.48399925 xlo xhi
-7.171999931 92.82800007 ylo yhi
-4.910999775 95.08900023 zlo zhi
0.0 0.0 0.0 xy xz yz

Masses

1	14.00672
2	12.01078
3	1.007947
4	15.99943
5	1.007947
6	12.01078
7	18.998403
8	15.99943
9	15.99943
10	1.007947


Pair Coeffs

1	0.16769152	3.206876
2	0.086879315	3.4806469
3	0.015611343	2.5725815
4	0.16846514	3.0251065
5	0.014090815	1.1034277
6	0.10884061	3.3795318
7	0.061	3.1181455
8	0.2102061	3.0398122
9	0.20947353	2.99716
10	1.2326e-05	0.53453923

Bond Coeffs

1 harmonic	390.03554688505	1.390160554689
2 harmonic	505.144496193	1.019481865027
3 harmonic	422.7150220147	1.421786517481
4 harmonic	360.7852444772	1.387193227181
5 harmonic	397.2545789619	1.085358495916
6 harmonic	279.1350963404	1.454628925034
7 harmonic	425.69104206635	1.362945806494
8 harmonic	289.73813263395	1.498646816465
9 harmonic	492.76746816345	1.381897776683
10 harmonic	340.45121009905	1.358690858053
11 harmonic	582.698766451	1.225198386222
12 harmonic	385.7604595587	1.369745182308
13 harmonic	543.5267831885	0.9716763312559


Angle Coeffs

1 harmonic	57.8982893754	126.8062420451
2 harmonic	55.42182150775	117.3465570514
3 harmonic	63.44422595415	115.5071327674
4 harmonic	34.066775159195	129.1835929926
5 harmonic	65.09061609600001	110.3538806181
6 harmonic	53.20531626545	116.5475862634
7 harmonic	79.1895422237	112.4630193006
8 harmonic	201.41175231035	127.4691416191


Dihedral Coeffs

1 fourier 1	3.661930099076	2	180
2 fourier 1	1.193093382682	2	180
3 fourier 1	0.02021088501612	1	0
4 fourier 1	1.163235555439	2	180
5 fourier 1	1.532232714475	2	180
6 fourier 1	0.02664938770063	3	0
7 fourier 1	1.659715194912	2	180
8 fourier 1	3.101948770557	2	180
9 fourier 1	-0.4252153282372	1	0
10 fourier 1	1.809047390003	2	180
11 fourier 1	-0.04816277792592	1	0
12 fourier 1	0.9974165607242	2	180
13 fourier 1	2.348375642009	2	180
14 fourier 1	1.256156174911	1	0
15 fourier 1	2.687457892086	2	180
16 fourier 1	2.772607909663	2	180
17 fourier 1	0.09692684957115	1	0


Improper Coeffs

1 0.3666666666666667	-1	2
2 0.3333333333333333	-1	2
3 3.5	-1	2


Atoms

1	1	1	-0.413059	13.227	3.1159999	2.0409999
2	1	2	0.124191	11.882	2.905	1.597
3	1	2	-0.40897501	11.631	2.575	0.324
4	1	3	0.219072	12.443	2.473	-0.384
5	1	2	-0.117434	10.238	2.3789999	-0.14399999
6	1	3	0.20180599	10.074	2.151	-1.188
7	1	2	-0.130052	9.2060003	2.516	0.70999998
8	1	2	-0.136227	7.802	2.3659999	0.24600001
9	1	2	-0.132882	6.8449998	3.201	0.69
10	1	3	0.20510601	7.0780001	3.997	1.388
11	1	2	-0.29846701	5.454	3.0599999	0.23100001
12	1	3	0.221637	4.7010002	3.7360001	0.61500001
13	1	2	0.326482	5.1170001	2.1040001	-0.64499998
14	1	4	-0.284008	3.777	2.0009999	-1.031
15	1	2	0.29800901	2.9119999	0.96200001	-0.65700001
16	1	2	-0.32293901	3.2809999	-0.028999999	0.178
17	1	3	0.228137	4.2740002	-0.056000002	0.61299998
18	1	2	-0.107216	2.3269999	-1.104	0.51999998
19	1	3	0.211154	2.6570001	-1.891	1.1900001
20	1	2	-0.113677	1.0779999	-1.114	0.003
21	1	2	0.240683	0.66799998	0.0089999996	-0.88599998
22	1	2	-0.32529199	1.54	0.97299999	-1.201
23	1	3	0.224778	1.24	1.777	-1.862
24	1	4	-0.30697799	-0.625	0.082000002	-1.398
25	1	2	0.240683	-1.573	-0.91900003	-1.189
26	1	2	-0.32529199	-2.7909999	-0.78399998	-1.7309999
27	1	3	0.224778	-3.029	0.098999999	-2.309
28	1	2	0.29800901	-3.7950001	-1.8609999	-1.596
29	1	4	-0.284008	-5.0539999	-1.728	-2.1889999
30	1	2	0.326482	-6.006	-0.76800001	-1.806
31	1	2	-0.29846701	-5.9879999	-0.212	-0.579
32	1	3	0.221637	-5.2199998	-0.47	0.138
33	1	2	-0.132882	-7.0580001	0.70999998	-0.15800001
34	1	3	0.20510601	-7.02	1.1289999	0.83999997
35	1	2	-0.136227	-8.0629997	1.017	-0.99599999
36	1	2	-0.130052	-9.1610003	1.921	-0.57499999
37	1	2	-0.131383	-9.7209997	1.813	0.64600003
38	1	3	0.20180599	-9.3870001	1.063	1.349
39	1	2	-0.377233	-10.835	2.6989999	1.04
40	1	3	0.215618	-11.273	2.5910001	2.023
41	1	2	0.19650599	-11.309	3.612	0.178
42	1	1	-0.53321898	-12.397	4.4619999	0.551
43	1	5	0.318239	-12.83	4.3930001	1.5
44	1	2	-0.377233	-10.697	3.7379999	-1.1619999
45	1	3	0.215618	-11.065	4.48	-1.859
46	1	2	-0.131383	-9.6809998	2.9430001	-1.518
47	1	3	0.20180599	-9.2340002	3.0569999	-2.4990001
48	1	2	-0.059712	-8.0600004	0.442	-2.3670001
49	1	3	0.204218	-8.8620005	0.70999998	-3.0439999
50	1	2	-0.324325	-7.0890002	-0.40799999	-2.7609999
51	1	6	0.76549298	-7.0609999	-0.98500001	-4.158
52	1	7	-0.210988	-5.9159999	-0.56400001	-4.802
53	1	7	-0.210988	-8.1549997	-0.58499998	-4.9109998
54	1	7	-0.210988	-7.0580001	-2.368	-4.0929999
55	1	2	-0.32293901	-3.4879999	-2.973	-0.91900003
56	1	3	0.228137	-4.2189999	-3.7639999	-0.81900001
57	1	2	-0.107216	-2.171	-3.0999999	-0.264
58	1	3	0.211154	-1.982	-3.9779999	0.34099999
59	1	2	-0.113677	-1.238	-2.132	-0.389
60	1	6	0.098364003	0.090999998	-2.223	0.35800001
61	1	2	0.041869	-0.163	-2.237	1.854
62	1	2	-0.135196	-0.713	-1.271	2.5999999
63	1	3	0.214109	-1.034	-0.34099999	2.151
64	1	2	-0.263367	-0.87099999	-1.5039999	4.059
65	1	3	0.21970201	-1.3049999	-0.73000002	4.678
66	1	2	-0.23344301	-0.472	-2.6670001	4.612
67	1	3	0.21435501	-0.59500003	-2.8269999	5.6750002
68	1	2	-0.17316499	0.133	-3.7309999	3.773
69	1	3	0.201023	0.45699999	-4.664	4.2160001
70	1	2	-0.016213	0.264	-3.494	2.4619999
71	1	2	-0.016214	0.81400001	-4.3299999	1.415
72	1	2	-0.17316499	1.334	-5.5599999	1.48
73	1	3	0.201023	1.385	-6.1009998	2.4159999
74	1	2	-0.23344301	1.824	-6.1760001	0.222
75	1	3	0.21435501	2.2460001	-7.1719999	0.243
76	1	2	-0.263367	1.742	-5.5029998	-0.94499999
77	1	3	0.21970201	2.098	-5.9590001	-1.86
78	1	2	-0.135196	1.16	-4.1360002	-0.986
79	1	3	0.214109	1.0779999	-3.5999999	-1.923
80	1	2	0.041869	0.72500002	-3.5910001	0.15700001
81	1	2	-0.324325	6.1729999	1.201	-1.204
82	1	6	0.76549298	5.849	0.134	-2.2279999
83	1	7	-0.210988	4.73	0.47099999	-2.9649999
84	1	7	-0.210988	6.9029999	-0.02	-3.1099999
85	1	7	-0.210988	5.6199999	-1.068	-1.582
86	1	2	-0.059712	7.4349999	1.312	-0.73900002
87	1	3	0.204218	8.2019997	0.62599999	-1.08
88	1	2	-0.117434	9.493	2.852	2.1289999
89	1	3	0.20180599	8.6809998	2.9419999	2.8380001
90	1	2	-0.40897501	10.754	3.0369999	2.5450001
91	1	3	0.219072	10.942	3.2750001	3.5840001
92	1	5	0.37125501	14.027	3.0569999	1.374
93	1	2	0.76662397	-12.778	5.184	-0.131
94	1	8	-0.66299599	-11.969	5.9289999	-0.74599999
95	1	2	-0.355589	-14.234	5.2950001	-0.34
96	1	2	-0.077930003	-14.755	6.1960001	-1.194
97	1	3	0.220754	-14.119	6.868	-1.755
98	1	2	-0.245804	-16.216999	6.283	-1.381
99	1	3	0.210335	-16.627001	7.0110002	-2.0699999
100	1	2	-0.026303001	-17.033001	5.4679999	-0.704
101	1	3	0.220162	-18.103001	5.5450001	-0.852
102	1	2	-0.294862	-16.475	4.4689999	0.242
103	1	2	0.586474	-17.365999	3.5669999	0.99299997
104	1	8	-0.53381801	-18.615999	3.6259999	0.847
105	1	2	0.053594999	-15.143	4.3930001	0.41
106	1	3	0.237865	-14.72	3.6689999	1.097
107	1	1	-0.413059	13.426	3.362	3.0380001
108	1	2	0.124191	12.355	3.573	3.9649999
109	1	2	-0.40897501	12.613	3.9030001	5.237
110	1	3	0.219072	13.635	4.0050001	5.5780001
111	1	2	-0.117434	11.507	4.099	6.204
112	1	3	0.20180599	11.757	4.3270001	7.2309999
113	1	2	-0.130052	10.226	3.9619999	5.8119998
114	1	2	-0.136227	9.1079998	4.112	6.7810001
115	1	2	-0.132882	8.0539999	3.277	6.7389998
116	1	3	0.20510601	8.0010004	2.4809999	6.0050001
117	1	2	-0.29846701	6.9460001	3.418	7.697
118	1	3	0.221637	6.1040001	2.7420001	7.632
119	1	2	0.326482	6.9720001	4.3740001	8.6350002
120	1	4	-0.284008	5.8839998	4.4770002	9.507
121	1	2	0.29800901	4.941	5.5159998	9.4940004
122	1	2	-0.32293901	4.961	6.507	8.5810003
123	1	3	0.228137	5.71	6.5339999	7.7979999
124	1	2	-0.107216	3.9489999	7.5819998	8.632
125	1	3	0.211154	3.9949999	8.3690004	7.8870001
126	1	2	-0.113677	2.9949999	7.5910001	9.5900002
127	1	2	0.240683	2.957	6.4689999	10.568
128	1	2	-0.32529199	3.8840001	5.5040002	10.524
129	1	3	0.224778	3.8610001	4.7010002	11.249
130	1	4	-0.30697799	1.961	6.3959999	11.538
131	1	2	0.240683	1.005	7.3969998	11.709
132	1	2	-0.32529199	0.089000002	7.2620001	12.678
133	1	3	0.224778	0.092	6.3790002	13.303
134	1	2	0.29800901	-0.889	8.3389997	12.939
135	1	4	-0.284008	-1.824	8.2060003	13.97
136	1	2	0.326482	-2.8499999	7.2459998	13.983
137	1	2	-0.29846701	-3.3050001	6.6900001	12.843
138	1	3	0.221637	-2.872	6.948	11.886
139	1	2	-0.132882	-4.454	5.7680001	12.866
140	1	3	0.20510601	-4.803	5.349	11.93
141	1	2	-0.136227	-5.0599999	5.461	14.026
142	1	2	-0.130052	-6.2350001	4.5570002	14.059
143	1	2	-0.080898002	-7.2220001	4.665	13.148
144	1	3	0.20180599	-7.184	5.415	12.37
145	1	2	-0.45306101	-8.4020004	3.779	13.212
146	1	3	0.22750001	-9.184	3.8870001	12.473
147	1	2	0.31461301	-8.5089998	2.8659999	14.19
148	1	1	-0.84587801	-9.6560001	2.016	14.264
149	1	5	0.36412299	-9.7440004	1.307	15.027
150	1	5	0.36412299	-10.42	2.085	13.554
151	1	2	-0.45306101	-7.428	2.74	15.191
152	1	3	0.22750001	-7.5	1.998	15.977
153	1	2	-0.080898002	-6.3530002	3.5350001	15.13
154	1	3	0.20180599	-5.5640001	3.421	15.863
155	1	2	-0.059712	-4.5300002	6.0359998	15.29
156	1	3	0.204218	-5.0110002	5.7680001	16.224001
157	1	2	-0.324325	-3.483	6.8860002	15.281
158	1	6	0.76549298	-2.9200001	7.4629998	16.559999
159	1	7	-0.210988	-1.615	7.0419998	16.714001
160	1	7	-0.210988	-3.6400001	7.0630002	17.674999
161	1	7	-0.210988	-2.9419999	8.8459997	16.497999
162	1	2	-0.32293901	-0.86699998	9.4510002	12.197
163	1	3	0.228137	-1.579	10.242	12.385
164	1	2	-0.107216	0.097000003	9.5780001	11.085
165	1	3	0.211154	0.039999999	10.456	10.454
166	1	2	-0.113677	1.007	8.6099997	10.842
167	1	6	0.098364003	1.947	8.7010002	9.6420002
168	1	2	0.041869	1.137	8.7150002	8.3579998
169	1	2	-0.135196	0.34200001	7.7490001	7.881
170	1	3	0.214109	0.219	6.8189998	8.4189997
171	1	2	-0.263367	-0.36399999	7.9819999	6.5949998
172	1	3	0.21970201	-1.003	7.2080002	6.1900001
173	1	2	-0.23344301	-0.20900001	9.1450005	5.9310002
174	1	3	0.21435501	-0.73100001	9.3050003	4.9970002
175	1	2	-0.17316499	0.67299998	10.209	6.473
176	1	3	0.201023	0.801	11.142	5.9390001
177	1	2	-0.016213	1.298	9.9720001	7.632
178	1	2	-0.016214	2.207	10.808	8.3879995
179	1	2	-0.17316499	2.6630001	12.038	8.1269999
180	1	3	0.201023	2.3499999	12.578	7.244
181	1	2	-0.23344301	3.599	12.654	9.1009998
182	1	3	0.21435501	3.98	13.65	8.9189997
183	1	2	-0.263367	3.971	11.981	10.21
184	1	3	0.21970201	4.652	12.437	10.917
185	1	2	-0.135196	3.45	10.614	10.472
186	1	3	0.214109	3.7349999	10.078	11.368
187	1	2	0.041869	2.609	10.068	9.5839996
188	1	2	-0.324325	8.1619997	5.276	8.7449999
189	1	6	0.76549298	8.2559996	6.3429999	9.8149996
190	1	7	-0.210988	7.507	6.007	10.926
191	1	7	-0.210988	9.5679998	6.4980001	10.224
192	1	7	-0.210988	7.7969999	7.546	9.3070002
193	1	2	-0.059712	9.1479998	5.1659999	7.8309999
194	1	3	0.204218	9.9870005	5.8520002	7.8509998
195	1	2	-0.117434	9.9449997	3.6259999	4.3920002
196	1	3	0.20180599	8.9230003	3.536	4.0489998
197	1	2	-0.40897501	10.949	3.441	3.5239999
198	1	3	0.219072	10.724	3.2019999	2.4909999
199	1	5	0.37125501	14.421	3.421	3.346
200	1	2	0.586474	-16.952999	2.8410001	1.681
201	1	8	-0.53381801	-16.166	1.962	1.239
202	1	2	-0.29036599	-17.318001	2.8959999	3.109
203	1	2	-0.026303001	-16.825001	2.0109999	3.9949999
204	1	3	0.220162	-16.143999	1.229	3.684
205	1	2	-0.24695399	-17.209	2.092	5.4169998
206	1	3	0.210335	-16.808001	1.376	6.1220002
207	1	2	-0.063892998	-18.049	3.0450001	5.836
208	1	3	0.231197	-18.319	3.089	6.8829999
209	1	2	-0.220074	-18.604	4.0320001	4.875
210	1	2	0.83757401	-19.532	5.0809999	5.3530002
211	1	8	-0.493314	-20.014	5.927	4.5510001
212	1	9	-0.66643101	-19.882	5.1409998	6.6989999
213	1	10	0.416069	-20.516001	5.8530002	7.04
214	1	2	0.070235997	-18.249001	3.9519999	3.5769999
215	1	3	0.247924	-18.641001	4.6599998	2.855

Bonds

1	1	1	2
2	2	1	92
3	3	1	107
4	4	2	3
5	4	2	90
6	5	3	4
7	4	3	5
8	5	5	6
9	4	5	7
10	6	7	8
11	4	7	88
12	4	8	9
13	4	8	86
14	5	9	10
15	4	9	11
16	5	11	12
17	4	11	13
18	7	13	14
19	4	13	81
20	7	14	15
21	4	15	16
22	4	15	22
23	5	16	17
24	4	16	18
25	5	18	19
26	4	18	20
27	4	20	21
28	8	20	60
29	4	21	22
30	7	21	24
31	5	22	23
32	7	24	25
33	4	25	26
34	4	25	59
35	5	26	27
36	4	26	28
37	7	28	29
38	4	28	55
39	7	29	30
40	4	30	31
41	4	30	50
42	5	31	32
43	4	31	33
44	5	33	34
45	4	33	35
46	6	35	36
47	4	35	48
48	4	36	37
49	4	36	46
50	5	37	38
51	4	37	39
52	5	39	40
53	4	39	41
54	1	41	42
55	4	41	44
56	2	42	43
57	9	42	93
58	5	44	45
59	4	44	46
60	5	46	47
61	5	48	49
62	4	48	50
63	8	50	51
64	10	51	52
65	10	51	53
66	10	51	54
67	5	55	56
68	4	55	57
69	5	57	58
70	4	57	59
71	8	59	60
72	8	60	61
73	8	60	80
74	4	61	62
75	4	61	70
76	5	62	63
77	4	62	64
78	5	64	65
79	4	64	66
80	5	66	67
81	4	66	68
82	5	68	69
83	4	68	70
84	6	70	71
85	4	71	72
86	4	71	80
87	5	72	73
88	4	72	74
89	5	74	75
90	4	74	76
91	5	76	77
92	4	76	78
93	5	78	79
94	4	78	80
95	8	81	82
96	4	81	86
97	10	82	83
98	10	82	84
99	10	82	85
100	5	86	87
101	5	88	89
102	4	88	90
103	5	90	91
104	11	93	94
105	6	93	95
106	4	95	96
107	4	95	105
108	5	96	97
109	4	96	98
110	5	98	99
111	4	98	100
112	5	100	101
113	4	100	102
114	6	102	103
115	4	102	105
116	11	103	104
117	6	103	200
118	5	105	106
119	1	107	108
120	2	107	199
121	4	108	109
122	4	108	197
123	5	109	110
124	4	109	111
125	5	111	112
126	4	111	113
127	6	113	114
128	4	113	195
129	4	114	115
130	4	114	193
131	5	115	116
132	4	115	117
133	5	117	118
134	4	117	119
135	7	119	120
136	4	119	188
137	7	120	121
138	4	121	122
139	4	121	128
140	5	122	123
141	4	122	124
142	5	124	125
143	4	124	126
144	4	126	127
145	8	126	167
146	4	127	128
147	7	127	130
148	5	128	129
149	7	130	131
150	4	131	132
151	4	131	166
152	5	132	133
153	4	132	134
154	7	134	135
155	4	134	162
156	7	135	136
157	4	136	137
158	4	136	157
159	5	137	138
160	4	137	139
161	5	139	140
162	4	139	141
163	6	141	142
164	4	141	155
165	4	142	143
166	4	142	153
167	5	143	144
168	4	143	145
169	5	145	146
170	4	145	147
171	1	147	148
172	4	147	151
173	2	148	149
174	2	148	150
175	5	151	152
176	4	151	153
177	5	153	154
178	5	155	156
179	4	155	157
180	8	157	158
181	10	158	159
182	10	158	160
183	10	158	161
184	5	162	163
185	4	162	164
186	5	164	165
187	4	164	166
188	8	166	167
189	8	167	168
190	8	167	187
191	4	168	169
192	4	168	177
193	5	169	170
194	4	169	171
195	5	171	172
196	4	171	173
197	5	173	174
198	4	173	175
199	5	175	176
200	4	175	177
201	6	177	178
202	4	178	179
203	4	178	187
204	5	179	180
205	4	179	181
206	5	181	182
207	4	181	183
208	5	183	184
209	4	183	185
210	5	185	186
211	4	185	187
212	8	188	189
213	4	188	193
214	10	189	190
215	10	189	191
216	10	189	192
217	5	193	194
218	5	195	196
219	4	195	197
220	5	197	198
221	11	200	201
222	6	200	202
223	4	202	203
224	4	202	214
225	5	203	204
226	4	203	205
227	5	205	206
228	4	205	207
229	5	207	208
230	4	207	209
231	6	209	210
232	4	209	214
233	11	210	211
234	12	210	212
235	13	212	213
236	5	214	215

Angles

1	1	114	193	188
2	1	200	202	214
3	1	132	134	162
4	6	59	60	61
5	4	34	33	35
6	4	174	173	175
7	4	169	171	172
8	1	132	131	166
9	1	113	195	197
10	1	132	134	135
11	1	121	128	127
12	6	126	167	168
13	1	141	155	157
14	1	122	121	128
15	1	121	122	124
16	4	170	169	171
17	4	36	46	47
18	1	71	72	74
19	1	130	131	132
20	4	4	3	5
21	4	184	183	185
22	4	179	181	182
23	4	66	68	69
24	1	109	108	197
25	1	108	197	195
26	1	9	11	13
27	3	147	148	150
28	1	25	59	57
29	1	147	151	153
30	1	142	141	155
31	1	8	86	81
32	3	43	42	93
33	1	201	200	202
34	4	73	72	74
35	6	52	51	54
36	5	210	212	213
37	1	13	81	82
38	4	30	31	32
39	1	167	168	169
40	5	13	14	15
41	6	157	158	160
42	1	104	103	200
43	1	7	88	90
44	1	42	93	95
45	4	75	74	76
46	1	42	41	44
47	1	145	147	151
48	6	166	167	168
49	4	101	100	102
50	6	20	60	61
51	4	96	98	99
52	1	177	178	179
53	1	16	15	22
54	4	143	145	146
55	4	2	3	4
56	4	109	111	112
57	1	15	16	18
58	4	142	153	154
59	1	64	66	68
60	1	72	74	76
61	4	40	39	41
62	6	53	51	54
63	6	191	189	192
64	1	207	209	214
65	1	96	95	105
66	4	6	5	7
67	4	209	214	215
68	4	10	9	11
69	1	5	7	8
70	4	95	105	106
71	4	141	155	156
72	1	30	50	51
73	4	17	16	18
74	4	122	124	125
75	4	202	203	204
76	1	25	26	28
77	1	29	28	55
78	1	26	28	29
79	1	82	81	86
80	4	9	11	12
81	3	147	148	149
82	1	3	5	7
83	1	72	71	80
84	1	18	20	60
85	1	24	25	26
86	1	60	61	62
87	1	100	102	103
88	4	28	55	56
89	1	181	183	185
90	1	74	76	78
91	6	52	51	53
92	1	114	115	117
93	1	20	21	22
94	1	205	207	209
95	6	157	158	159
96	1	61	62	64
97	6	166	167	187
98	4	7	88	89
99	1	171	173	175
100	1	120	121	122
101	6	20	60	80
102	1	25	59	60
103	1	94	93	95
104	1	70	71	72
105	4	182	181	183
106	1	22	21	24
107	1	26	25	59
108	3	92	1	107
109	1	35	48	50
110	1	30	50	48
111	1	39	41	44
112	4	208	207	209
113	2	1	107	108
114	4	136	137	138
115	1	200	202	203
116	4	203	205	206
117	1	1	2	90
118	1	137	139	141
119	1	126	127	128
120	4	36	37	38
121	1	202	214	209
122	4	118	117	119
123	1	14	15	16
124	6	81	82	83
125	4	183	185	186
126	2	2	1	107
127	1	68	70	71
128	1	3	2	90
129	4	49	48	50
130	1	29	30	50
131	3	1	107	199
132	3	149	148	150
133	4	63	62	64
134	1	120	121	128
135	4	3	5	6
136	1	168	169	171
137	1	135	134	162
138	4	127	128	129
139	1	62	64	66
140	1	131	166	167
141	1	31	33	35
142	4	186	185	187
143	4	181	183	184
144	1	62	61	70
145	4	74	76	77
146	4	196	195	197
147	1	108	109	111
148	1	139	141	142
149	6	50	51	52
150	1	7	8	9
151	1	136	157	155
152	4	44	46	47
153	4	114	115	116
154	1	131	132	134
155	4	125	124	126
156	4	61	62	63
157	4	171	173	174
158	1	117	119	188
159	6	83	82	85
160	1	207	209	210
161	4	202	214	215
162	1	35	36	37
163	1	14	15	22
164	1	41	44	46
165	1	8	9	11
166	1	113	114	115
167	1	95	105	102
168	1	113	114	193
169	4	35	48	49
170	1	102	103	200
171	4	114	193	194
172	4	172	171	173
173	4	188	193	194
174	4	65	64	66
175	8	211	210	212
176	1	57	59	60
177	4	138	137	139
178	4	165	164	166
179	1	5	7	88
180	1	93	95	96
181	1	134	162	164
182	6	59	60	80
183	6	188	189	192
184	4	137	139	140
185	4	113	195	196
186	4	8	86	87
187	1	7	8	86
188	6	126	167	187
189	1	16	18	20
190	1	209	210	212
191	4	81	86	87
192	1	36	35	48
193	1	131	166	164
194	1	2	90	88
195	7	127	130	131
196	4	121	122	123
197	1	95	96	98
198	4	71	72	73
199	4	116	115	117
200	1	114	113	195
201	1	135	136	137
202	1	107	108	109
203	1	137	136	157
204	1	11	13	81
205	1	15	22	21
206	1	115	117	119
207	1	169	168	177
208	4	163	162	164
209	4	56	55	57
210	1	48	50	51
211	4	168	169	170
212	4	147	151	152
213	1	33	35	48
214	4	206	205	207
215	4	62	64	65
216	5	134	135	136
217	1	178	179	181
218	3	41	42	43
219	4	31	33	34
220	1	11	13	14
221	4	151	153	154
222	1	55	57	59
223	1	111	113	114
224	1	179	178	187
225	4	69	68	70
226	1	14	13	81
227	6	168	167	187
228	1	66	68	70
229	4	21	22	23
230	4	32	31	33
231	1	164	166	167
232	1	42	93	94
233	4	152	151	153
234	4	41	44	45
235	6	159	158	161
236	4	88	90	91
237	4	19	18	20
238	1	124	126	127
239	1	30	31	33
240	4	79	78	80
241	7	21	24	25
242	1	136	157	158
243	1	173	175	177
244	1	168	177	175
245	4	15	16	17
246	1	117	119	120
247	1	20	21	24
248	4	64	66	67
249	6	157	158	161
250	1	24	25	59
251	4	38	37	39
252	1	60	80	78
253	4	72	74	75
254	6	188	189	191
255	1	124	126	167
256	1	142	143	145
257	4	45	44	46
258	1	189	188	193
259	6	126	167	166
260	6	84	82	85
261	1	26	28	55
262	4	146	145	147
263	1	76	78	80
264	1	141	142	153
265	5	28	29	30
266	4	25	26	27
267	1	71	80	78
268	1	2	3	5
269	4	140	139	141
270	1	109	111	113
271	1	203	202	214
272	1	107	108	197
273	6	160	158	161
274	1	103	200	202
275	4	123	122	124
276	4	115	117	118
277	1	60	80	71
278	1	127	126	167
279	4	195	197	198
280	1	126	127	130
281	4	99	98	100
282	4	121	128	129
283	6	81	82	85
284	1	60	61	70
285	4	178	179	180
286	1	98	100	102
287	4	12	11	13
288	1	122	124	126
289	1	202	203	205
290	4	55	57	58
291	1	1	2	3
292	4	133	132	134
293	1	103	102	105
294	1	18	20	21
295	1	155	157	158
296	1	162	164	166
297	1	61	70	71
298	4	205	207	208
299	4	176	175	177
300	1	167	187	185
301	1	70	71	80
302	1	119	188	193
303	6	188	189	190
304	6	20	60	59
305	1	115	114	193
306	6	159	158	160
307	2	41	42	93
308	4	97	96	98
309	1	148	147	151
310	1	28	55	57
311	5	119	120	121
312	1	139	141	155
313	4	2	90	91
314	6	50	51	54
315	6	61	60	80
316	4	173	175	176
317	1	93	95	105
318	1	111	113	195
319	6	190	189	192
320	1	35	36	46
321	4	112	111	113
322	4	142	143	144
323	4	89	88	90
324	1	167	187	178
325	4	67	66	68
326	4	204	203	205
327	3	108	107	199
328	1	37	39	41
329	1	13	81	86
330	4	76	78	79
331	1	102	103	104
332	1	36	46	44
333	1	141	142	143
334	1	168	177	178
335	1	37	36	46
336	1	103	200	201
337	1	136	137	139
338	1	203	205	207
339	1	61	70	68
340	1	169	171	173
341	4	77	76	78
342	1	29	30	31
343	1	36	37	39
344	4	180	179	181
345	1	175	177	178
346	6	81	82	84
347	1	183	185	187
348	1	178	187	185
349	4	102	105	106
350	4	8	9	10
351	1	135	136	157
352	1	31	30	50
353	4	98	100	101
354	4	156	155	157
355	1	167	168	177
356	4	108	109	110
357	1	8	7	88
358	4	162	164	165
359	4	15	22	23
360	1	179	181	183
361	4	131	132	133
362	6	83	82	84
363	1	145	147	148
364	1	120	119	188
365	1	9	8	86
366	4	27	26	28
367	1	177	178	187
368	1	100	102	105
369	3	2	1	92
370	6	50	51	53
371	1	39	41	42
372	4	134	162	163
373	1	142	153	151
374	1	210	209	214
375	6	190	189	191
376	1	128	127	130
377	4	108	197	198
378	4	58	57	59
379	1	209	210	211
380	4	16	18	19
381	1	96	98	100
382	4	144	143	145
383	1	21	20	60
384	1	130	131	166
385	1	143	142	153
386	4	110	109	111
387	1	119	188	189
388	4	37	39	40
389	1	33	35	36
390	1	143	145	147
391	4	95	96	97

Dihedrals

1	1	141	142	143	144
2	1	32	31	30	50
3	1	5	7	88	90
4	1	110	109	111	113
5	1	17	16	18	19
6	5	26	28	29	30
7	12	207	209	210	212
8	1	142	153	151	147
9	1	169	168	177	175
10	1	97	96	98	99
11	1	139	141	155	156
12	5	132	134	135	136
13	4	37	36	35	48
14	1	169	171	173	174
15	1	189	188	193	194
16	1	30	50	48	49
17	1	64	66	68	70
18	1	11	9	8	86
19	1	16	18	20	60
20	1	26	28	55	57
21	1	152	151	153	154
22	1	37	36	46	44
23	1	36	46	44	45
24	1	163	162	164	165
25	12	100	102	103	200
26	6	119	188	189	191
27	5	13	14	15	22
28	6	18	20	60	59
29	1	14	15	16	17
30	1	108	197	195	113
31	12	103	200	202	214
32	1	138	137	139	141
33	6	20	60	80	78
34	1	70	71	80	78
35	1	15	22	21	20
36	1	95	96	98	100
37	1	143	145	147	151
38	6	166	167	168	177
39	1	27	26	28	29
40	1	206	205	207	208
41	1	109	108	197	195
42	1	40	39	41	42
43	6	57	59	60	61
44	1	2	90	88	7
45	1	31	33	35	48
46	6	131	166	167	187
47	12	104	103	200	202
48	1	36	35	48	49
49	1	128	127	126	167
50	1	205	203	202	214
51	1	95	105	102	103
52	1	4	3	5	7
53	5	15	14	13	81
54	12	42	93	95	96
55	7	127	130	131	166
56	1	137	136	157	158
57	6	164	166	167	168
58	1	29	30	50	51
59	1	1	2	90	88
60	1	17	16	15	22
61	7	20	21	24	25
62	1	30	31	33	35
63	1	143	142	153	151
64	1	24	21	20	60
65	2	3	2	1	92
66	1	134	162	164	166
67	1	60	80	71	72
68	6	20	60	80	71
69	1	120	121	122	124
70	1	167	168	177	178
71	1	172	171	173	175
72	1	200	202	214	209
73	1	3	5	7	88
74	1	62	61	70	71
75	1	98	100	102	103
76	1	133	132	131	166
77	1	112	111	113	114
78	12	102	103	200	201
79	1	179	178	187	185
80	1	181	183	185	186
81	1	114	193	188	119
82	1	41	44	46	47
83	1	71	72	74	76
84	1	115	114	193	194
85	1	77	76	78	79
86	1	122	124	126	167
87	1	121	128	127	130
88	1	136	157	155	156
89	1	62	64	66	68
90	1	60	61	70	71
91	6	13	81	82	84
92	1	34	33	35	36
93	1	133	132	134	135
94	6	126	167	166	164
95	1	5	7	88	89
96	6	21	20	60	61
97	6	119	188	189	190
98	1	25	59	57	58
99	1	42	41	44	46
100	6	126	167	168	169
101	1	135	134	162	164
102	1	2	3	5	7
103	1	8	9	11	12
104	1	167	187	185	183
105	1	61	70	68	69
106	1	12	11	13	14
107	1	31	30	50	51
108	1	176	175	177	178
109	1	124	122	121	128
110	1	67	66	68	70
111	4	175	177	178	187
112	6	20	60	61	70
113	1	65	64	66	68
114	2	1	107	108	109
115	1	7	88	90	91
116	1	101	100	102	103
117	1	137	136	157	155
118	1	28	26	25	59
119	12	94	93	95	105
120	1	140	139	141	142
121	1	27	26	28	55
122	1	139	137	136	157
123	6	155	157	158	159
124	4	115	114	113	195
125	1	138	137	136	157
126	1	171	173	175	177
127	7	128	127	130	131
128	1	142	141	155	157
129	7	22	21	24	25
130	6	177	168	167	187
131	1	114	115	117	118
132	1	180	179	181	183
133	1	138	137	139	140
134	1	11	13	81	82
135	6	57	59	60	80
136	1	169	168	177	178
137	1	200	202	214	215
138	1	82	81	86	87
139	1	93	95	105	102
140	6	85	82	81	86
141	12	104	103	200	201
142	6	70	61	60	80
143	6	164	166	167	187
144	1	18	20	21	24
145	1	37	36	46	47
146	1	4	3	5	6
147	4	5	7	8	9
148	1	141	155	157	158
149	12	201	200	202	203
150	1	140	139	141	155
151	1	132	131	166	167
152	1	7	8	9	10
153	1	14	15	22	23
154	1	208	207	209	210
155	1	30	31	33	34
156	1	32	31	33	35
157	1	25	59	57	55
158	4	46	36	35	48
159	1	27	26	25	59
160	1	134	162	164	165
161	1	132	134	162	164
162	1	73	72	71	80
163	1	60	80	78	79
164	5	28	29	30	50
165	6	166	167	168	169
166	1	172	171	173	174
167	1	114	113	195	196
168	1	167	168	169	171
169	1	142	143	145	147
170	1	123	122	124	125
171	1	9	8	86	81
172	6	169	168	167	187
173	1	1	2	3	5
174	5	11	13	14	15
175	1	61	70	68	66
176	6	48	50	51	53
177	4	139	141	142	143
178	1	10	9	8	86
179	1	93	95	96	98
180	1	24	25	59	57
181	1	25	26	28	29
182	1	71	72	74	75
183	1	113	114	115	117
184	1	16	15	22	23
185	1	36	46	44	41
186	1	62	64	66	67
187	6	84	82	81	86
188	6	21	20	60	80
189	1	109	111	113	114
190	4	86	8	7	88
191	8	41	42	93	94
191	9	41	42	93	94
192	1	110	109	108	197
193	1	124	126	127	128
194	1	114	193	188	189
195	1	146	145	147	151
196	1	143	142	153	154
197	4	33	35	36	46
198	4	5	7	8	86
199	6	124	126	167	168
200	1	29	28	55	57
201	1	129	128	127	130
202	6	190	189	188	193
203	1	15	16	18	20
204	6	30	50	51	54
205	1	71	80	78	76
206	1	112	111	113	195
207	1	67	66	68	69
208	1	19	18	20	21
209	1	96	98	100	102
210	2	1	107	108	197
211	1	65	64	66	67
212	1	103	102	105	106
213	1	4	3	2	90
214	1	141	142	153	154
215	1	14	13	81	86
216	1	72	71	80	78
217	1	132	131	166	164
218	6	191	189	188	193
219	1	173	175	177	178
220	1	171	173	175	176
221	5	121	120	119	188
222	1	24	25	26	28
223	1	60	61	62	64
224	1	38	37	39	41
225	1	180	179	181	182
226	1	126	127	128	129
227	1	203	202	214	209
228	1	1	2	90	91
229	4	61	70	71	72
230	2	44	41	42	93
231	1	97	96	95	105
232	12	103	200	202	203
233	1	60	80	78	76
234	6	61	60	80	78
235	1	167	187	185	186
236	1	9	8	86	87
237	1	148	147	151	153
238	6	20	60	59	57
239	1	39	41	44	46
240	1	170	169	168	177
241	4	175	177	178	179
242	1	204	203	202	214
243	12	42	93	95	105
244	1	147	151	153	154
245	1	9	11	13	81
246	6	59	60	61	62
247	12	100	102	103	104
248	1	121	128	127	126
249	7	126	127	130	131
250	2	43	42	41	44
251	7	21	24	25	26
252	1	144	143	145	147
253	1	63	62	64	65
254	1	113	114	193	188
255	1	120	121	128	127
256	1	146	145	147	148
257	1	202	214	209	207
258	1	32	31	33	34
259	1	136	137	139	141
260	1	111	109	108	197
261	1	184	183	185	187
262	6	127	126	167	166
263	1	18	16	15	22
264	1	142	143	145	146
265	1	40	39	41	44
266	1	203	205	207	208
267	6	61	60	80	71
268	1	9	11	13	14
269	12	104	103	102	105
270	1	134	132	131	166
271	4	139	141	142	153
272	1	145	143	142	153
273	5	134	135	136	137
274	6	48	50	51	52
275	1	49	48	50	51
276	1	131	166	164	162
277	1	93	95	96	97
278	6	13	81	82	85
279	1	133	132	134	162
280	1	58	57	59	60
281	1	38	37	36	46
282	1	141	142	153	151
283	1	8	86	81	82
284	1	12	11	13	81
285	1	130	131	166	164
286	4	168	177	178	187
287	1	144	143	142	153
288	6	136	157	158	159
289	1	108	109	111	113
290	1	118	117	119	188
291	1	177	178	179	181
292	1	110	109	111	112
293	12	207	209	210	211
294	6	124	126	167	187
295	1	28	55	57	59
296	5	134	135	136	157
297	6	25	59	60	61
298	10	43	42	93	95
298	11	43	42	93	95
299	1	61	62	64	66
300	1	70	71	72	74
301	1	131	132	134	162
302	1	29	28	55	56
303	1	72	74	76	78
304	5	136	135	134	162
305	1	15	16	18	19
306	1	10	9	11	13
307	1	98	100	102	105
308	1	98	96	95	105
309	1	64	66	68	69
310	7	21	24	25	59
311	1	96	98	100	101
312	1	24	25	59	60
313	1	26	28	55	56
314	1	123	122	121	128
315	1	131	132	134	135
316	1	200	202	203	205
317	12	105	102	103	200
318	1	117	119	188	193
319	1	31	33	35	36
320	1	204	203	205	207
321	6	168	167	187	185
322	2	197	108	107	199
323	1	117	115	114	193
324	1	181	179	178	187
325	1	205	207	209	214
326	2	150	148	147	151
327	1	135	136	137	139
328	6	192	189	188	193
329	1	29	30	31	33
330	1	109	111	113	195
331	1	16	18	20	21
332	1	38	37	39	40
333	1	122	121	128	127
334	1	162	164	166	167
335	2	3	2	1	107
336	1	35	36	46	44
337	1	116	115	117	119
338	1	69	68	70	71
339	1	95	96	98	99
340	2	90	2	1	92
341	4	153	142	141	155
342	1	139	141	155	157
343	1	71	80	78	79
344	1	22	21	20	60
345	1	182	181	183	185
346	1	18	20	21	22
347	1	55	57	59	60
348	1	101	100	102	105
349	1	56	55	57	59
350	1	113	114	193	194
351	6	168	167	187	178
352	6	119	188	189	192
353	6	155	157	158	161
354	1	144	143	145	146
355	1	100	102	105	106
356	1	136	137	139	140
357	1	142	153	151	152
358	1	74	72	71	80
359	1	120	121	122	123
360	1	75	74	76	78
361	4	193	114	113	195
362	5	117	119	120	121
363	3	2	1	107	108
364	1	210	209	214	215
365	1	36	35	48	50
366	2	145	147	148	150
367	6	131	166	167	168
368	1	26	25	59	60
369	1	145	147	151	153
370	1	35	36	37	39
371	1	167	187	178	177
372	1	202	203	205	207
373	1	14	13	81	82
374	1	37	39	41	42
375	1	63	62	61	70
376	5	119	120	121	122
377	5	13	14	15	16
378	1	108	109	111	112
379	1	174	173	175	177
380	6	13	81	82	83
381	1	177	178	179	180
382	12	212	210	209	214
383	1	202	214	209	210
384	1	207	209	214	215
385	6	25	59	60	80
386	1	178	179	181	183
387	1	42	41	44	45
388	1	35	48	50	51
389	1	108	197	195	196
390	1	120	119	188	193
391	1	135	134	162	163
392	1	2	3	5	6
393	1	61	62	64	65
394	1	70	71	72	73
395	2	39	41	42	93
396	1	73	72	74	76
397	1	10	9	11	12
398	3	2	1	107	199
399	1	130	127	126	167
400	1	131	166	164	165
401	1	118	117	119	120
402	1	181	183	185	187
403	1	179	181	183	185
404	1	168	169	171	173
405	1	204	203	205	206
406	1	130	131	166	167
407	1	135	136	137	138
408	4	168	177	178	179
409	1	124	126	127	130
410	1	142	141	155	156
411	1	107	108	109	111
412	1	116	115	117	118
413	4	68	70	71	80
414	1	99	98	100	102
415	1	8	9	11	13
416	1	121	122	124	126
417	1	130	131	132	134
418	12	211	210	209	214
419	1	3	2	90	91
420	1	177	178	187	185
421	1	36	37	39	41
422	1	171	169	168	177
423	1	182	181	183	184
424	4	9	8	7	88
425	1	26	25	59	57
426	6	20	60	61	62
427	1	34	33	35	48
428	1	56	55	57	58
429	5	119	120	121	128
430	6	155	157	158	160
431	1	136	157	155	141
432	1	74	76	78	80
433	1	113	195	197	198
434	1	117	119	188	189
435	1	114	115	117	119
436	6	18	20	60	61
437	1	5	3	2	90
438	15	209	210	212	213
439	1	35	36	46	47
440	1	3	2	90	88
441	1	116	115	114	193
442	1	132	134	162	163
443	1	168	177	175	176
444	1	60	80	71	70
445	1	75	74	76	77
446	1	125	124	126	127
447	1	25	26	28	55
448	1	167	168	169	170
449	1	137	139	141	142
450	5	30	29	28	55
451	2	39	41	42	43
452	6	126	167	166	131
453	1	1	2	3	4
454	1	107	108	197	195
455	2	145	147	148	149
456	5	28	29	30	31
457	1	145	147	151	152