Title

68 atoms
71 bonds
118 angles
171 dihedrals
78 impropers

10 atom types
14 bond types
5 angle types
8 dihedral types
2 improper types
-8.873999596 91.1260004 xlo xhi
-3.306999922 96.69300008 ylo yhi
-8.845000267 91.15499973 zlo zhi
0.0 0.0 0.0 xy xz yz

Masses

1	15.99943
2	12.01078
3	79.9041
4	1.007947
5	12.01078
6	18.998403
7	15.99943
8	15.99943
9	1.007947
10	35.4532


Pair Coeffs

1	0.16846514	3.0251065
2	0.086879315	3.4806469
3	0.32189864	3.5097963
4	0.015611343	2.5725815
5	0.10884061	3.3795318
6	0.061	3.1181455
7	0.2102061	3.0398122
8	0.20947353	2.99716
9	1.2326e-05	0.53453923
10	0.2656001	3.3075278

Bond Coeffs

1 harmonic	425.69104206635	1.362945806494
2 harmonic	300.03137914615	1.451203938761
3 harmonic	360.7852444772	1.387193227181
4 harmonic	203.9927893677	1.911636491655
5 harmonic	397.2545789619	1.085358495916
6 harmonic	289.73813263395	1.498646816465
7 harmonic	264.62148576755	1.52190126495
8 harmonic	301.15400723785	1.345741232799
9 harmonic	340.45121009905	1.358690858053
10 harmonic	582.698766451	1.225198386222
11 harmonic	279.1350963404	1.454628925034
12 harmonic	385.7604595587	1.369745182308
13 harmonic	543.5267831885	0.9716763312559
14 harmonic	218.0227703685	1.746066037062


Angle Coeffs

1 harmonic	57.8982893754	126.8062420451
2 harmonic	65.09061609600001	110.3538806181
3 harmonic	34.066775159195	129.1835929926
4 harmonic	53.20531626545	116.5475862634
5 harmonic	201.41175231035	127.4691416191


Dihedral Coeffs

1 fourier 1	3.661930099076	2	180
2 fourier 1	1.532232714475	2	180
3 fourier 1	0.457973137376	1	0
4 fourier 1	0.02664938770063	3	0
5 fourier 1	0.1155372516788	3	0
6 fourier 1	2.779853741805	2	180
7 fourier 1	0.9974165607242	2	180
8 fourier 1	0.8283030590042	2	180


Improper Coeffs

1 0.3666666666666667	-1	2
2 3.5	-1	2


Atoms

1	1	1	-0.112528	-4.8379998	1.556	1.123
2	1	2	0.37097701	-3.6630001	0.92400002	0.71600002
3	1	2	-0.222011	-2.6470001	0.80000001	1.58
4	1	3	-0.068887003	-2.7850001	1.475	3.3670001
5	1	2	-0.021472	-1.3940001	0.13699999	1.168
6	1	4	0.21191201	-0.60600001	0.043000001	1.904
7	1	2	-0.104418	-1.225	-0.33199999	-0.089000002
8	1	5	-0.242112	0.093999997	-1.0549999	-0.46900001
9	1	2	-0.104418	1.301	-0.22499999	0.039999999
10	1	2	0.000283	1.342	1.108	-0.185
11	1	4	0.21191201	0.523	1.6059999	-0.68900001
12	1	2	-0.22387999	2.487	1.934	0.25099999
13	1	3	-0.069169	2.4059999	3.819	-0.089000002
14	1	2	0.62297899	3.5380001	1.355	0.86199999
15	1	1	-0.43887201	4.6420002	2.0929999	1.293
16	1	2	-0.22387999	3.5320001	-0.107	1.085
17	1	3	-0.069169	5.0279999	-0.95099998	1.929
18	1	2	0.000283	2.4890001	-0.85000002	0.69599998
19	1	4	0.21191201	2.5350001	-1.913	0.87300003
20	1	5	0.75325203	0.023	-2.4820001	0.175
21	1	6	-0.200417	1.026	-3.3069999	-0.30599999
22	1	6	-0.200417	0.132	-2.408	1.553
23	1	6	-0.200417	-1.1900001	-3.0840001	-0.122
24	1	5	0.75325203	0.27900001	-1.209	-2.016
25	1	6	-0.200417	1.566	-1.633	-2.3080001
26	1	6	-0.200417	0.077	0	-2.661
27	1	6	-0.200417	-0.597	-2.1440001	-2.543
28	1	2	-0.021472	-2.3770001	-0.211	-1.0319999
29	1	4	0.21191201	-2.3169999	-0.59799999	-2.0369999
30	1	2	-0.222011	-3.5190001	0.38299999	-0.66000003
31	1	3	-0.068887003	-4.9489999	0.505	-1.9299999
32	1	2	0.628537	4.724	3.131	1.173
33	1	7	-0.47934699	5.8239999	3.655	1.122
34	1	1	-0.112528	-5.632	1.675	0.50800002
35	1	2	0.37097701	-5.5310001	2.3080001	-0.73199999
36	1	2	-0.222011	-6.6220002	2.431	-1.5
37	1	3	-0.068887003	-8.3170004	1.756	-0.921
38	1	2	-0.021472	-6.5349998	3.0940001	-2.816
39	1	4	0.21191201	-7.4439998	3.188	-3.3959999
40	1	2	-0.104418	-5.3600001	3.5639999	-3.2939999
41	1	5	-0.242112	-5.3210001	4.2870002	-4.6659999
42	1	2	-0.104418	-6.1149998	3.4560001	-5.7080002
43	1	2	0.034747999	-5.9070001	2.1229999	-5.803
44	1	4	0.21191201	-5.2150002	1.625	-5.1370001
45	1	2	-0.28683299	-6.6149998	1.298	-6.8039999
46	1	3	-0.077676997	-6.2659998	-0.58700001	-6.809
47	1	2	0.59658998	-7.4689999	1.877	-7.6690001
48	1	8	-0.63667297	-8.1619997	1.138	-8.6309996
49	1	9	0.433799	-8.0690002	0.13600001	-8.7360001
50	1	2	-0.28683299	-7.684	3.3380001	-7.6079998
51	1	3	-0.077676997	-8.8739996	4.1830001	-8.8450003
52	1	2	0.034747999	-7.0469999	4.0819998	-6.6939998
53	1	4	0.21191201	-7.23	5.1440001	-6.6939998
54	1	5	0.75325203	-5.9260001	5.7129998	-4.4359999
55	1	6	-0.200417	-5.711	6.5380001	-5.5279999
56	1	6	-0.200417	-7.289	5.6399999	-4.198
57	1	6	-0.200417	-5.3369999	6.3150001	-3.336
58	1	5	0.75325203	-3.869	4.4400001	-5.2309999
59	1	6	-0.200417	-3.9070001	4.8639998	-6.5500002
60	1	6	-0.200417	-3.194	3.2309999	-5.1960001
61	1	6	-0.200417	-3.1400001	5.375	-4.5139999
62	1	2	-0.021472	-4.1589999	3.4430001	-2.4130001
63	1	4	0.21191201	-3.201	3.829	-2.7219999
64	1	2	-0.222011	-4.2350001	2.849	-1.214
65	1	3	-0.068887003	-2.648	2.7260001	-0.146
66	1	2	0.46969199	3.829	3.74	1.094
67	1	7	-0.54863697	2.7320001	3.2090001	1.056
68	1	10	-0.071836002	3.961	5.487	1.02

Bonds

1	1	1	2
2	2	1	34
3	3	2	3
4	3	2	30
5	4	3	4
6	3	3	5
7	5	5	6
8	3	5	7
9	6	7	8
10	3	7	28
11	6	8	9
12	7	8	20
13	7	8	24
14	3	9	10
15	3	9	18
16	5	10	11
17	3	10	12
18	4	12	13
19	3	12	14
20	1	14	15
21	3	14	16
22	8	15	32
23	4	16	17
24	3	16	18
25	5	18	19
26	9	20	21
27	9	20	22
28	9	20	23
29	9	24	25
30	9	24	26
31	9	24	27
32	5	28	29
33	3	28	30
34	4	30	31
35	10	32	33
36	11	32	66
37	1	34	35
38	3	35	36
39	3	35	64
40	4	36	37
41	3	36	38
42	5	38	39
43	3	38	40
44	6	40	41
45	3	40	62
46	6	41	42
47	7	41	54
48	7	41	58
49	3	42	43
50	3	42	52
51	5	43	44
52	3	43	45
53	4	45	46
54	3	45	47
55	12	47	48
56	3	47	50
57	13	48	49
58	4	50	51
59	3	50	52
60	5	52	53
61	9	54	55
62	9	54	56
63	9	54	57
64	9	58	59
65	9	58	60
66	9	58	61
67	5	62	63
68	3	62	64
69	4	64	65
70	10	66	67
71	14	66	68

Angles

1	4	54	41	58
2	1	12	14	15
3	1	45	47	50
4	3	3	5	6
5	1	15	32	66
6	1	5	7	28
7	4	42	41	54
8	4	41	58	60
9	4	41	54	55
10	4	55	54	57
11	4	8	24	26
12	2	2	1	34
13	4	8	20	21
14	2	14	15	32
15	4	25	24	26
16	4	7	8	24
17	1	48	47	50
18	1	35	36	37
19	4	60	58	61
20	4	41	58	61
21	4	22	20	23
22	4	7	8	20
23	4	8	24	27
24	1	1	2	30
25	4	26	24	27
26	1	2	3	5
27	1	43	42	52
28	3	36	38	39
29	3	42	43	44
30	1	5	7	8
31	1	51	50	52
32	1	35	36	38
33	1	13	12	14
34	3	42	52	53
35	3	9	18	19
36	1	41	42	43
37	1	36	38	40
38	1	34	35	36
39	1	3	2	30
40	4	9	8	24
41	1	41	40	62
42	3	9	10	11
43	1	45	47	48
44	1	12	14	16
45	1	3	5	7
46	4	56	54	57
47	3	40	62	63
48	4	9	8	20
49	1	38	40	62
50	1	14	16	17
51	3	7	28	29
52	1	1	2	3
53	4	41	54	56
54	1	42	52	50
55	5	15	32	33
56	1	9	18	16
57	4	8	20	22
58	1	9	10	12
59	4	25	24	27
60	1	37	36	38
61	1	36	35	64
62	4	41	54	57
63	4	40	41	42
64	2	1	34	35
65	4	20	8	24
66	4	8	20	23
67	3	29	28	30
68	1	32	66	67
69	1	43	45	46
70	1	42	43	45
71	3	63	62	64
72	1	34	35	64
73	1	35	64	65
74	4	7	8	9
75	4	41	58	59
76	1	62	64	65
77	4	55	54	56
78	4	8	24	25
79	3	50	52	53
80	1	8	7	28
81	4	59	58	60
82	1	28	30	31
83	4	21	20	22
84	1	67	66	68
85	4	40	41	58
86	3	16	18	19
87	1	2	30	31
88	3	11	10	12
89	1	40	62	64
90	1	35	64	62
91	1	14	16	18
92	1	7	28	30
93	3	6	5	7
94	1	8	9	18
95	4	40	41	54
96	1	10	12	13
97	1	2	3	4
98	4	59	58	61
99	3	44	43	45
100	4	21	20	23
101	1	47	50	51
102	1	4	3	5
103	2	47	48	49
104	1	46	45	47
105	1	38	40	41
106	1	2	30	28
107	1	10	12	14
108	3	39	38	40
109	1	15	14	16
110	1	32	66	68
111	1	33	32	66
112	1	43	45	47
113	1	47	50	52
114	4	42	41	58
115	1	8	9	10
116	1	41	42	52
117	1	10	9	18
118	1	17	16	18

Dihedrals

1	5	40	41	58	61
2	5	57	54	41	58
3	1	3	2	30	28
4	5	40	41	54	56
5	1	44	43	45	47
6	1	41	42	52	53
7	5	7	8	20	22
8	1	6	5	7	28
9	1	46	45	47	50
10	1	8	7	28	29
11	1	44	43	42	52
12	1	10	9	18	19
13	1	42	43	45	46
14	1	11	10	12	14
15	5	9	8	24	27
16	1	37	36	35	64
17	4	5	7	8	20
18	1	8	9	18	16
19	1	29	28	30	31
20	1	2	3	5	6
21	1	34	35	36	38
22	5	42	41	58	59
23	4	43	42	41	58
24	5	54	41	58	60
25	4	40	41	42	43
26	5	55	54	41	58
27	5	20	8	24	25
28	1	41	42	43	45
29	5	7	8	20	23
30	1	45	43	42	52
31	4	10	9	8	24
32	4	43	42	41	54
33	1	41	42	52	50
34	6	14	15	32	66
35	1	42	52	50	47
36	1	2	3	5	7
37	1	15	14	16	18
38	1	34	35	64	65
39	1	10	9	18	16
40	5	54	41	58	61
41	5	20	8	24	26
42	1	6	5	7	8
43	1	38	40	62	64
44	1	1	2	30	31
45	1	35	36	38	39
46	1	14	16	18	19
47	1	2	30	28	7
48	1	36	38	40	41
49	1	12	14	16	17
50	1	8	9	10	11
51	4	5	7	8	24
52	5	7	8	24	25
53	4	38	40	41	42
54	1	7	28	30	31
55	4	24	8	7	28
56	5	9	8	20	22
57	1	35	36	38	40
58	5	40	41	54	57
59	1	43	45	47	50
60	1	11	10	9	18
61	1	39	38	40	41
62	4	7	8	9	18
63	1	38	36	35	64
64	1	46	45	47	48
65	2	3	2	1	34
66	1	1	2	30	28
67	1	45	47	50	51
68	4	54	41	40	62
69	1	8	7	28	30
70	2	1	34	35	36
71	1	42	43	45	47
72	1	9	10	12	13
73	1	35	64	62	63
74	8	45	47	48	49
75	5	9	8	20	23
76	1	10	12	14	15
77	2	30	2	1	34
78	1	4	3	2	30
79	1	13	12	14	15
80	1	35	64	62	40
81	5	42	41	58	60
82	1	63	62	64	65
83	5	42	41	54	55
84	4	38	40	41	58
85	1	51	50	52	53
86	5	40	41	58	59
87	7	33	32	66	67
88	4	40	41	42	52
89	1	2	30	28	29
90	1	10	12	14	16
91	1	41	40	62	63
92	4	38	40	41	54
93	4	7	8	9	10
94	1	36	35	64	65
95	1	13	12	14	16
96	1	42	52	50	51
97	5	42	41	58	61
98	1	1	2	3	4
99	1	47	50	52	53
100	1	48	47	50	51
101	5	42	41	54	56
102	1	5	7	28	29
103	1	17	16	18	19
104	5	9	8	24	25
105	5	20	8	24	27
106	4	20	8	7	28
107	5	56	54	41	58
108	1	4	3	5	6
109	2	14	15	32	33
110	4	9	8	7	28
111	5	40	41	58	60
112	1	43	42	52	53
113	7	33	32	66	68
114	4	52	42	41	58
115	1	34	35	64	62
116	1	12	14	16	18
117	1	44	43	45	46
118	1	8	9	10	12
119	5	7	8	24	26
120	5	7	8	20	21
121	4	52	42	41	54
122	1	1	2	3	5
123	1	48	47	50	52
124	4	58	41	40	62
125	1	11	10	12	13
126	1	3	5	7	28
127	1	9	18	16	17
128	2	1	34	35	64
129	4	18	9	8	24
130	7	15	32	66	67
131	1	43	45	47	48
132	1	36	35	64	62
133	1	34	35	36	37
134	3	2	1	34	35
135	2	12	14	15	32
136	5	54	41	58	59
137	5	23	20	8	24
138	2	16	14	15	32
139	5	7	8	24	27
140	4	42	41	40	62
141	4	18	9	8	20
142	1	41	42	43	44
143	5	22	20	8	24
144	1	36	38	40	62
145	1	43	42	52	50
146	5	21	20	8	24
147	1	45	47	50	52
148	1	5	3	2	30
149	4	5	7	8	9
150	1	9	10	12	14
151	7	15	32	66	68
152	1	3	2	30	31
153	1	15	14	16	17
154	1	37	36	38	39
155	1	12	10	9	18
156	1	9	18	16	14
157	1	38	40	62	63
158	1	39	38	40	62
159	5	40	41	54	55
160	1	3	5	7	8
161	1	40	62	64	65
162	8	49	48	47	50
163	1	8	9	18	19
164	1	41	40	62	64
165	1	37	36	38	40
166	5	42	41	54	57
167	4	10	9	8	20
168	1	5	7	28	30
169	5	9	8	24	26
170	1	4	3	5	7
171	5	9	8	20	21

Impropers

6	1	30	2	28	31
11	1	62	63	64	40
14	1	52	42	50	53
16	1	30	31	2	28
17	1	18	19	9	16
24	1	9	8	10	18
26	1	10	12	9	11
31	1	42	41	43	52
33	1	10	9	11	12
35	1	45	46	47	43
39	1	3	2	4	5
40	1	40	41	62	38
42	1	52	50	53	42
43	1	40	62	38	41
44	1	18	16	19	9
47	1	7	8	28	5
51	1	45	43	46	47
55	1	18	9	16	19
67	1	9	18	8	10
68	1	12	13	14	10
70	1	30	28	31	2
72	1	7	5	8	28
73	1	50	47	51	52
78	1	38	40	36	39
90	1	16	17	18	14
92	2	32	15	33	66
100	2	32	33	66	15
106	1	38	39	40	36
107	1	5	3	6	7
109	1	28	29	30	7
110	1	62	40	63	64
117	1	42	43	52	41
122	1	38	36	39	40
124	1	35	64	34	36
126	1	66	67	68	32
130	1	52	53	42	50
131	1	14	16	12	15
133	1	3	5	2	4
145	1	7	28	5	8
148	1	35	36	64	34
151	1	40	38	41	62
157	1	2	3	30	1
159	1	66	68	32	67
163	1	28	30	7	29
164	1	36	38	35	37
165	1	3	4	5	2
167	1	43	42	44	45
168	1	9	10	18	8
169	1	66	32	67	68
175	1	42	52	41	43
177	1	14	15	16	12
191	1	45	47	43	46
198	1	64	65	35	62
204	1	36	35	37	38
205	1	5	7	3	6
206	1	64	62	65	35
208	1	50	52	47	51
223	1	16	14	17	18
225	1	43	44	45	42
227	1	14	12	15	16
229	1	47	50	45	48
236	1	47	48	50	45
241	1	28	7	29	30
242	1	2	30	1	3
243	1	5	6	7	3
249	1	16	18	14	17
262	1	47	45	48	50
270	1	62	64	40	63
271	1	43	45	42	44
272	1	12	10	13	14
280	1	12	14	10	13
283	1	36	37	38	35
284	1	64	35	62	65
286	1	35	34	36	64
287	1	10	11	12	9
288	1	50	51	52	47
296	1	2	1	3	30
298	2	32	66	15	33
