Title

47 atoms
48 bonds
77 angles
117 dihedrals
48 impropers

8 atom types
12 bond types
6 angle types
20 dihedral types
2 improper types
-10.11999989 89.88000011 xlo xhi
-1.483999968 98.51600003 ylo yhi
-4.697999954 95.30200005 zlo zhi
0.0 0.0 0.0 xy xz yz

Masses

1	15.99943
2	12.01078
3	1.007947
4	12.01078
5	15.99943
6	1.007947
7	15.99943
8	1.007947


Pair Coeffs

1	0.16846514	3.0251065
2	0.10884061	3.3795318
3	0.016409246	2.5832257
4	0.086879315	3.4806469
5	0.2102061	3.0398122
6	0.015611343	2.5725815
7	0.20947353	2.99716
8	1.2326e-05	0.53453923

Bond Coeffs

1 harmonic	366.7408841747	1.425895053732
2 harmonic	300.03137914615	1.451203938761
3 harmonic	264.62148576755	1.52190126495
4 harmonic	370.04670688625	1.093899492634
5 harmonic	301.15400723785	1.345741232799
6 harmonic	582.698766451	1.225198386222
7 harmonic	279.1350963404	1.454628925034
8 harmonic	360.7852444772	1.387193227181
9 harmonic	397.2545789619	1.085358495916
10 harmonic	329.96998057905	1.427343958716
11 harmonic	543.5267831885	0.9716763312559
12 harmonic	385.7604595587	1.369745182308


Angle Coeffs

1 harmonic	53.20531626545	116.5475862634
2 harmonic	65.09061609600001	110.3538806181
3 harmonic	201.41175231035	127.4691416191
4 harmonic	57.8982893754	126.8062420451
5 harmonic	48.776492647595	115.6030999533
6 harmonic	34.066775159195	129.1835929926


Dihedral Coeffs

1 fourier 1	-0.0309670556842	3	0
2 fourier 1	0.4598191477945	2	0
3 fourier 1	0.1115525666802	3	0
4 fourier 1	0.3432490222662	1	0
5 fourier 1	0.0473758381877	3	0
6 fourier 1	0.457973137376	1	0
7 fourier 1	0.1918272375143	3	0
8 fourier 1	0.9202179876409	1	180
9 fourier 1	1.163809172478	2	180
10 fourier 1	0.1679186987369	1	180
11 fourier 1	2.779853741805	2	180
12 fourier 1	0.9974165607242	2	180
13 fourier 1	0.1911926717192	3	0
14 fourier 1	3.661930099076	2	180
15 fourier 1	0.3445382149273	3	0
16 fourier 1	0.1364556373303	1	0
17 fourier 1	0.3026390167484	3	0
18 fourier 1	2.687457892086	2	180
19 fourier 1	2.772607909663	2	180
20 fourier 1	0.09692684957115	1	0


Improper Coeffs

1 3.5	-1	2
2 0.3666666666666667	-1	2


Atoms

1	1	1	-0.136787	1.576	-0.336	0.85699999
2	1	2	0.051915001	0.63599998	-0.419	-0.17900001
3	1	2	0.15698101	-0.71899998	0.11	0.28999999
4	1	1	-0.50269002	-1.675	-0.035999998	-0.72399998
5	1	3	0.089729004	-1.051	-0.46900001	1.177
6	1	3	0.089729004	-0.63099998	1.1799999	0.58899999
7	1	3	0.097276002	0.52999997	-1.484	-0.477
8	1	3	0.097276002	0.98699999	0.154	-1.068
9	1	4	0.79180801	-1.49	0.71499997	-1.4170001
10	1	5	-0.55548799	-0.29699999	0.99199998	-1.71
11	1	4	-0.30292699	-2.6110001	1.4400001	-2.0420001
12	1	4	-0.101251	-3.8770001	1.131	-1.7180001
13	1	6	0.215078	-4.0910001	0.35100001	-0.99699998
14	1	4	-0.05762	-5.006	1.853	-2.3410001
15	1	6	0.19802099	-6.0170002	1.5829999	-2.0599999
16	1	4	-0.364517	-4.7789998	2.8269999	-3.2390001
17	1	4	0.582856	-5.9109998	3.5420001	-3.855
18	1	5	-0.58360499	-5.7140002	4.4559999	-4.698
19	1	4	-0.05762	-3.3800001	3.1689999	-3.599
20	1	6	0.19802099	-3.177	3.95	-4.3200002
21	1	4	-0.101251	-2.3570001	2.5150001	-3.0339999
22	1	6	0.215078	-1.3430001	2.7780001	-3.309
23	1	1	-0.131128	1.845	0.61799997	0.92000002
24	1	2	0.023863001	3.148	0.70099998	0.41100001
25	1	2	0.095882997	4.1529999	0.17200001	1.434
26	1	7	-0.67769498	5.461	0.31799999	0.95200002
27	1	8	0.39640701	5.5970001	-0.40000001	0.27900001
28	1	3	0.095099002	4.0549998	0.75199997	2.3759999
29	1	3	0.095099002	3.941	-0.89700001	1.663
30	1	3	0.097969003	3.3759999	1.766	0.192
31	1	3	0.097969003	3.23	0.12800001	-0.54100001
32	1	4	0.582856	-6.928	3.286	-3.5869999
33	1	5	-0.58360499	-7.7550001	3.0350001	-4.5040002
34	1	4	-0.364517	-7.3330002	3.2349999	-2.171
35	1	4	-0.05762	-6.4390001	3.506	-1.205
36	1	6	0.19802099	-5.4159999	3.7639999	-1.454
37	1	4	-0.0986	-6.836	3.457	0.21699999
38	1	6	0.215078	-6.0890002	3.681	0.96899998
39	1	4	-0.292099	-8.0979996	3.141	0.565
40	1	4	0.83022398	-8.5109997	3.0880001	1.984
41	1	5	-0.53001499	-7.6859999	3.339	2.904
42	1	7	-0.67446297	-9.8219995	2.7579999	2.316
43	1	8	0.404385	-10.12	2.7179999	3.2839999
44	1	4	-0.0986	-9.0839996	2.842	-0.50400001
45	1	6	0.215078	-10.105	2.585	-0.25
46	1	4	-0.05762	-8.724	2.8859999	-1.793
47	1	6	0.19802099	-9.4589996	2.665	-2.556

Bonds

1	1	1	2
2	2	1	23
3	3	2	3
4	4	2	7
5	4	2	8
6	1	3	4
7	4	3	5
8	4	3	6
9	5	4	9
10	6	9	10
11	7	9	11
12	8	11	12
13	8	11	21
14	9	12	13
15	8	12	14
16	9	14	15
17	8	14	16
18	7	16	17
19	8	16	19
20	6	17	18
21	7	17	32
22	9	19	20
23	8	19	21
24	9	21	22
25	1	23	24
26	3	24	25
27	4	24	30
28	4	24	31
29	10	25	26
30	4	25	28
31	4	25	29
32	11	26	27
33	6	32	33
34	7	32	34
35	8	34	35
36	8	34	46
37	9	35	36
38	8	35	37
39	9	37	38
40	8	37	39
41	7	39	40
42	8	39	44
43	6	40	41
44	12	40	42
45	11	42	43
46	9	44	45
47	8	44	46
48	9	46	47

Angles

1	4	10	9	11
2	4	39	40	42
3	6	39	44	45
4	6	12	14	15
5	1	1	2	3
6	4	32	34	46
7	6	15	14	16
8	6	16	19	20
9	1	24	25	26
10	2	25	26	27
11	3	41	40	42
12	1	25	24	31
13	6	35	37	38
14	1	3	2	8
15	2	2	1	23
16	1	26	25	28
17	1	3	2	7
18	4	34	46	44
19	6	38	37	39
20	1	4	3	6
21	1	25	24	30
22	1	4	3	5
23	4	9	11	21
24	4	34	35	37
25	6	11	12	13
26	1	24	25	29
27	6	34	46	47
28	4	11	21	19
29	4	37	39	40
30	4	39	44	46
31	1	1	2	8
32	1	1	2	7
33	1	23	24	25
34	6	36	35	37
35	6	13	12	14
36	4	9	11	12
37	4	17	16	19
38	6	45	44	46
39	6	44	46	47
40	4	12	11	21
41	4	33	32	34
42	1	23	24	31
43	4	35	37	39
44	6	19	21	22
45	4	40	39	44
46	2	3	4	9
47	4	16	17	32
48	1	24	25	28
49	2	1	23	24
50	4	16	17	18
51	1	23	24	30
52	5	7	2	8
53	4	4	9	11
54	4	11	12	14
55	4	32	34	35
56	5	30	24	31
57	6	20	19	21
58	4	14	16	19
59	5	5	3	6
60	4	16	19	21
61	3	4	9	10
62	2	40	42	43
63	5	28	25	29
64	4	17	32	34
65	4	18	17	32
66	1	26	25	29
67	6	34	35	36
68	4	37	39	44
69	4	12	14	16
70	6	11	21	22
71	1	2	3	6
72	4	14	16	17
73	1	2	3	5
74	4	35	34	46
75	4	17	32	33
76	4	39	40	41
77	1	2	3	4

Dihedrals

1	14	9	11	12	13
2	12	16	17	32	33
3	14	13	12	14	16
4	13	29	25	24	31
5	14	20	19	21	22
6	14	35	37	39	44
7	3	23	24	25	29
7	4	23	24	25	29
8	14	39	44	46	47
9	12	17	32	34	35
10	13	29	25	24	30
11	3	1	2	3	6
11	4	1	2	3	6
12	3	1	2	3	5
12	4	1	2	3	5
13	12	10	9	11	12
14	3	23	24	25	28
14	4	23	24	25	28
15	5	8	2	1	23
16	14	13	12	14	15
17	1	1	2	3	4
17	2	1	2	3	4
18	9	3	4	9	10
18	10	3	4	9	10
19	13	5	3	2	8
20	13	5	3	2	7
21	14	15	14	16	17
22	12	37	39	40	41
23	5	1	23	24	25
24	14	16	19	21	22
25	14	14	16	19	21
26	14	34	46	44	39
27	12	37	39	40	42
28	14	14	16	19	20
29	12	14	16	17	32
30	14	37	39	44	45
31	14	15	14	16	19
32	14	17	16	19	20
33	12	14	16	17	18
34	14	40	39	44	45
35	14	34	35	37	38
36	12	4	9	11	21
37	14	11	21	19	20
38	12	18	17	16	19
39	14	36	35	34	46
40	5	1	23	24	31
41	13	28	25	24	30
42	14	12	11	21	22
43	18	39	40	42	43
44	17	27	26	25	29
45	14	32	34	35	36
46	19	41	40	42	43
46	20	41	40	42	43
47	14	9	11	12	14
48	5	1	23	24	30
49	12	18	17	32	34
50	14	13	12	11	21
51	14	35	34	46	47
52	12	17	32	34	46
53	14	11	12	14	16
54	6	2	1	23	24
55	13	6	3	2	8
56	13	6	3	2	7
57	14	35	37	39	40
58	14	36	35	37	38
59	14	35	34	46	44
60	13	28	25	24	31
61	15	24	25	26	27
61	16	24	25	26	27
62	14	37	39	44	46
63	1	23	24	25	26
63	2	23	24	25	26
64	14	9	11	21	19
65	14	38	37	39	40
66	5	3	2	1	23
67	3	4	3	2	8
67	4	4	3	2	8
68	3	4	3	2	7
68	4	4	3	2	7
69	12	41	40	39	44
70	5	6	3	4	9
71	14	11	21	19	16
72	12	33	32	34	35
73	14	34	35	37	39
74	17	27	26	25	28
75	12	42	40	39	44
76	14	37	35	34	46
77	14	32	34	46	44
78	7	2	3	4	9
78	8	2	3	4	9
79	14	12	14	16	19
80	14	34	46	44	45
81	12	4	9	11	12
82	12	33	32	34	46
83	14	12	11	21	19
84	12	18	17	32	33
85	11	3	4	9	11
86	14	45	44	46	47
87	5	5	3	4	9
88	14	11	12	14	15
89	14	32	34	35	37
90	12	19	16	17	32
91	14	38	37	39	44
92	14	32	34	46	47
93	5	7	2	1	23
94	3	26	25	24	31
94	4	26	25	24	31
95	14	40	39	44	46
96	12	16	17	32	34
97	14	9	11	21	22
98	14	12	14	16	17
99	3	26	25	24	30
99	4	26	25	24	30
100	12	10	9	11	21
101	14	36	35	37	39
102	14	14	12	11	21
103	14	17	16	19	21

Impropers

1	2	37	38	39	35
3	2	44	45	46	39
5	2	11	9	12	21
6	2	19	20	21	16
10	2	17	32	16	18
12	2	11	21	9	12
13	2	32	17	33	34
25	2	14	15	16	12
27	2	17	18	32	16
36	1	40	39	41	42
39	2	35	36	37	34
42	2	12	13	14	11
43	2	32	33	34	17
48	2	19	16	20	21
63	2	16	17	19	14
66	2	19	21	16	20
69	1	9	11	4	10
72	2	34	35	46	32
74	2	21	19	22	11
83	1	9	10	11	4
85	2	11	12	21	9
86	2	44	46	39	45
90	2	34	32	35	46
99	2	37	35	38	39
103	2	14	12	15	16
104	2	16	19	14	17
114	2	14	16	12	15
118	2	21	11	19	22
122	2	35	37	34	36
124	2	39	44	37	40
137	2	39	37	40	44
142	2	32	34	17	33
143	2	12	11	13	14
145	2	46	47	34	44
149	2	34	46	32	35
151	2	17	16	18	32
152	1	40	41	42	39
163	2	46	44	47	34
164	2	21	22	11	19
168	1	9	4	10	11
171	1	40	42	39	41
175	2	16	14	17	19
176	2	35	34	36	37
178	2	44	39	45	46
179	2	37	39	35	38
185	2	12	14	11	13
187	2	39	40	44	37
190	2	46	34	44	47
