Title

94 atoms
99 bonds
178 angles
291 dihedrals
78 impropers

9 atom types
13 bond types
6 angle types
13 dihedral types
2 improper types
-6.107999802 93.8920002 xlo xhi
-8.142000198 91.8579998 ylo yhi
-7.777999878 92.22200012 zlo zhi
0.0 0.0 0.0 xy xz yz

Masses

1	15.99943
2	12.01078
3	1.007947
4	12.01078
5	1.007947
6	15.99943
7	15.99943
8	1.007947
9	35.4532


Pair Coeffs

1	0.16846514	3.0251065
2	0.086879315	3.4806469
3	0.015611343	2.5725815
4	0.10884061	3.3795318
5	0.015779483	2.6445434
6	0.2102061	3.0398122
7	0.20947353	2.99716
8	1.2326e-05	0.53453923
9	0.2656001	3.3075278

Bond Coeffs

1 harmonic	425.69104206635	1.362945806494
2 harmonic	300.03137914615	1.451203938761
3 harmonic	360.7852444772	1.387193227181
4 harmonic	397.2545789619	1.085358495916
5 harmonic	289.73813263395	1.498646816465
6 harmonic	264.62148576755	1.52190126495
7 harmonic	301.15400723785	1.345741232799
8 harmonic	370.04670688625	1.093899492634
9 harmonic	582.698766451	1.225198386222
10 harmonic	279.1350963404	1.454628925034
11 harmonic	385.7604595587	1.369745182308
12 harmonic	543.5267831885	0.9716763312559
13 harmonic	218.0227703685	1.746066037062


Angle Coeffs

1 harmonic	57.8982893754	126.8062420451
2 harmonic	65.09061609600001	110.3538806181
3 harmonic	34.066775159195	129.1835929926
4 harmonic	53.20531626545	116.5475862634
5 harmonic	201.41175231035	127.4691416191
6 harmonic	48.776492647595	115.6030999533


Dihedral Coeffs

1 fourier 1	3.661930099076	2	180
2 fourier 1	1.532232714475	2	180
3 fourier 1	0.457973137376	1	0
4 fourier 1	0.02664938770063	3	0
5 fourier 1	0.1155372516788	3	0
6 fourier 1	0.1040663847541	3	0
7 fourier 1	0.09223874044423	3	0
8 fourier 1	0.3159935921949	2	180
9 fourier 1	0.3247796806857	1	180
10 fourier 1	2.779853741805	2	180
11 fourier 1	0.9974165607242	2	180
12 fourier 1	0.1911926717192	3	0
13 fourier 1	0.8283030590042	2	180


Improper Coeffs

1 0.3666666666666667	-1	2
2 3.5	-1	2


Atoms

1	1	1	-0.010498	-5.0050001	-1.428	0.45500001
2	1	2	0.083302997	-3.721	-0.88300002	0.412
3	1	2	-0.24361999	-3.346	-0.043000001	1.382
4	1	3	0.223216	-4.0339999	0.204	2.181
5	1	2	-0.190385	-2.0009999	0.56199998	1.3789999
6	1	3	0.21183801	-1.776	1.2359999	2.1889999
7	1	2	-0.15180901	-1.119	0.28999999	0.391
8	1	4	0.012102	0.31099999	0.87800002	0.32300001
9	1	2	-0.15180901	1.289	-0.31600001	0.32600001
10	1	2	-0.191157	1.268	-1.181	1.364
11	1	3	0.21183801	0.57300001	-1.046	2.1830001
12	1	2	-0.215175	2.1849999	-2.335	1.416
13	1	3	0.22355799	2.1440001	-3.003	2.267
14	1	2	0.30619299	3.059	-2.5510001	0.42500001
15	1	1	-0.41852	3.9319999	-3.6370001	0.479
16	1	2	-0.087128997	3.0999999	-1.627	-0.73500001
17	1	4	-0.13306201	4.1090002	-1.8430001	-1.8279999
18	1	5	0.095449999	5.0910001	-1.434	-1.508
19	1	5	0.095449999	4.2199998	-2.9260001	-2.0409999
20	1	5	0.095449999	3.8	-1.3430001	-2.7709999
21	1	2	-0.307749	2.279	-0.56099999	-0.76800001
22	1	3	0.21280999	2.3499999	0.116	-1.607
23	1	4	-0.13072801	0.71200001	1.808	1.523
24	1	5	0.10703	0.347	1.409	2.4920001
25	1	5	0.10703	1.821	1.79	1.633
26	1	4	-0.130494	0.329	3.3	1.368
27	1	5	0.108587	1.217	3.869	1.0140001
28	1	5	0.108587	0.050999999	3.7149999	2.362
29	1	4	-0.15211201	-0.81599998	3.5480001	0.38
30	1	5	0.111386	-1.7640001	3.161	0.80400002
31	1	5	0.111386	-0.95599997	4.645	0.25999999
32	1	4	-0.130494	-0.56099999	2.918	-1.001
33	1	5	0.108587	-0.163	3.6930001	-1.692
34	1	5	0.108587	-1.5319999	2.576	-1.4220001
35	1	4	-0.13072801	0.42699999	1.735	-0.972
36	1	5	0.10703	0.26199999	1.1210001	-1.883
37	1	5	0.10703	1.456	2.155	-1.041
38	1	2	-0.311948	-1.543	-0.65899998	-0.67900002
39	1	3	0.21280999	-0.83999997	-0.91100001	-1.464
40	1	2	-0.074649997	-2.767	-1.216	-0.68099999
41	1	4	-0.136255	-3.1630001	-2.1719999	-1.772
42	1	5	0.095449999	-2.3469999	-2.325	-2.5109999
43	1	5	0.095449999	-3.4159999	-3.1589999	-1.33
44	1	5	0.095449999	-4.0469999	-1.774	-2.313
45	1	2	0.62774199	3.931	-4.309	1.285
46	1	6	-0.49830899	4.9860001	-4.7090001	1.747
47	1	1	-0.010498	-5.3470001	-2.0699999	-0.248
48	1	2	0.083302997	-4.5219998	-2.615	-1.232
49	1	2	-0.24361999	-5.0539999	-3.4549999	-2.125
50	1	3	0.223216	-6.1079998	-3.7019999	-2.076
51	1	2	-0.190385	-4.223	-4.0599999	-3.1830001
52	1	3	0.21183801	-4.7220001	-4.7340002	-3.859
53	1	2	-0.15180901	-2.902	-3.7880001	-3.2679999
54	1	4	0.012102	-1.966	-4.3759999	-4.3520002
55	1	2	-0.15180901	-1.3660001	-3.181	-5.1240001
56	1	2	-0.151417	-2.1960001	-2.316	-5.7480001
57	1	3	0.21183801	-3.2690001	-2.4519999	-5.7049999
58	1	2	-0.37868401	-1.6720001	-1.163	-6.5009999
59	1	3	0.22803099	-2.3670001	-0.495	-6.994
60	1	2	0.28166699	-0.352	-0.94700003	-6.5780001
61	1	7	-0.63872403	0.14300001	0.14	-7.3000002
62	1	8	0.43528301	-0.47099999	0.78899997	-7.7779999
63	1	2	-0.25978899	0.58600003	-1.8710001	-5.8959999
64	1	4	-0.119235	2.069	-1.655	-6.0170002
65	1	5	0.095449999	2.4219999	-2.0639999	-6.987
66	1	5	0.095449999	2.3050001	-0.57099998	-5.973
67	1	5	0.095449999	2.6199999	-2.155	-5.1919999
68	1	2	-0.272742	0.106	-2.937	-5.2290001
69	1	3	0.21280999	0.81	-3.6129999	-4.7680001
70	1	4	-0.13072801	-2.664	-5.3060002	-5.408
71	1	5	0.10703	-3.652	-4.9070001	-5.7179999
72	1	5	0.10703	-2.0669999	-5.2880001	-6.348
73	1	4	-0.130494	-2.779	-6.7979999	-5.0100002
74	1	5	0.108587	-1.952	-7.3670001	-5.4910002
75	1	5	0.108587	-3.7320001	-7.2129998	-5.4039998
76	1	4	-0.15211201	-2.7060001	-7.046	-3.5
77	1	5	0.111386	-3.6240001	-6.6589999	-3.0150001
78	1	5	0.111386	-2.698	-8.1420002	-3.3150001
79	1	4	-0.130494	-1.461	-6.4159999	-2.849
80	1	5	0.108587	-0.67199999	-7.191	-2.737
81	1	5	0.108587	-1.728	-6.073	-1.826
82	1	4	-0.13072801	-0.875	-5.2329998	-3.645
83	1	5	0.10703	-0.259	-4.619	-2.9530001
84	1	5	0.10703	-0.186	-5.6529999	-4.4130001
85	1	2	-0.311948	-2.3199999	-2.839	-2.2739999
86	1	3	0.21280999	-1.2690001	-2.5869999	-2.3440001
87	1	2	-0.074649997	-3.0739999	-2.2809999	-1.309
88	1	4	-0.136255	-2.4579999	-1.325	-0.32499999
89	1	5	0.095449999	-1.373	-1.173	-0.51300001
90	1	5	0.095449999	-2.9619999	-0.33899999	-0.39899999
91	1	5	0.095449999	-2.5769999	-1.723	0.704
92	1	2	0.46730199	2.9909999	-4.6479998	1.707
93	1	6	-0.57453299	1.938	-4.1820002	1.304
94	1	9	-0.084201999	2.984	-5.8670001	2.967

Bonds

1	1	1	2
2	2	1	47
3	3	2	3
4	3	2	40
5	4	3	4
6	3	3	5
7	4	5	6
8	3	5	7
9	5	7	8
10	3	7	38
11	5	8	9
12	6	8	23
13	6	8	35
14	3	9	10
15	3	9	21
16	4	10	11
17	3	10	12
18	4	12	13
19	3	12	14
20	1	14	15
21	3	14	16
22	7	15	45
23	5	16	17
24	3	16	21
25	8	17	18
26	8	17	19
27	8	17	20
28	4	21	22
29	8	23	24
30	8	23	25
31	6	23	26
32	8	26	27
33	8	26	28
34	6	26	29
35	8	29	30
36	8	29	31
37	6	29	32
38	8	32	33
39	8	32	34
40	6	32	35
41	8	35	36
42	8	35	37
43	4	38	39
44	3	38	40
45	5	40	41
46	8	41	42
47	8	41	43
48	8	41	44
49	9	45	46
50	10	45	92
51	1	47	48
52	3	48	49
53	3	48	87
54	4	49	50
55	3	49	51
56	4	51	52
57	3	51	53
58	5	53	54
59	3	53	85
60	5	54	55
61	6	54	70
62	6	54	82
63	3	55	56
64	3	55	68
65	4	56	57
66	3	56	58
67	4	58	59
68	3	58	60
69	11	60	61
70	3	60	63
71	12	61	62
72	5	63	64
73	3	63	68
74	8	64	65
75	8	64	66
76	8	64	67
77	4	68	69
78	8	70	71
79	8	70	72
80	6	70	73
81	8	73	74
82	8	73	75
83	6	73	76
84	8	76	77
85	8	76	78
86	6	76	79
87	8	79	80
88	8	79	81
89	6	79	82
90	8	82	83
91	8	82	84
92	4	85	86
93	3	85	87
94	5	87	88
95	8	88	89
96	8	88	90
97	8	88	91
98	9	92	93
99	13	92	94

Angles

1	1	5	7	8
2	4	9	8	35
3	3	48	49	50
4	6	89	88	91
5	1	8	7	38
6	2	14	15	45
7	4	87	88	89
8	4	8	23	25
9	4	55	54	82
10	4	33	32	35
11	1	48	87	85
12	3	2	3	4
13	3	56	58	59
14	6	83	82	84
15	4	8	35	37
16	3	9	21	22
17	1	47	48	49
18	4	70	73	75
19	3	6	5	7
20	4	26	29	32
21	1	45	92	94
22	1	49	51	53
23	4	87	88	90
24	4	8	23	26
25	4	7	8	9
26	1	56	55	68
27	4	76	79	80
28	3	55	68	69
29	4	34	32	35
30	3	59	58	60
31	1	8	9	21
32	1	51	53	54
33	1	2	3	5
34	4	16	17	20
35	4	80	79	82
36	4	73	76	79
37	4	53	54	82
38	1	61	60	63
39	4	23	8	35
40	1	1	2	3
41	6	65	64	67
42	6	74	73	75
43	4	27	26	29
44	4	24	23	26
45	1	9	10	12
46	6	66	64	67
47	4	29	32	33
48	6	71	70	72
49	1	51	53	85
50	4	53	54	55
51	1	2	40	41
52	4	79	82	83
53	1	5	7	38
54	4	63	64	66
55	3	50	49	51
56	4	54	82	79
57	1	10	12	14
58	3	57	56	58
59	4	71	70	73
60	6	42	41	43
61	1	48	49	51
62	1	93	92	94
63	1	85	87	88
64	1	58	60	61
65	2	2	1	47
66	3	4	3	5
67	1	9	21	16
68	4	54	70	71
69	1	14	16	21
70	1	60	63	64
71	1	56	58	60
72	4	28	26	29
73	4	63	64	67
74	4	23	26	27
75	4	54	82	83
76	4	70	73	76
77	1	64	63	68
78	4	70	54	82
79	1	14	16	17
80	3	53	85	86
81	6	77	76	78
82	1	8	9	10
83	1	2	40	38
84	4	40	41	42
85	4	87	88	91
86	4	78	76	79
87	1	54	53	85
88	4	7	8	23
89	4	73	76	77
90	1	46	45	92
91	1	38	40	41
92	3	16	21	22
93	4	23	26	28
94	3	55	56	57
95	4	74	73	76
96	4	77	76	79
97	1	49	48	87
98	1	17	16	21
99	4	26	29	30
100	1	60	63	68
101	4	73	76	78
102	4	29	32	34
103	1	54	55	68
104	4	8	23	24
105	1	15	45	92
106	6	33	32	34
107	6	36	35	37
108	4	76	79	81
109	3	52	51	53
110	4	72	70	73
111	4	16	17	18
112	4	75	73	76
113	4	79	82	84
114	1	15	14	16
115	6	18	17	19
116	6	30	29	31
117	4	32	35	36
118	2	1	47	48
119	1	10	9	21
120	6	19	17	20
121	4	31	29	32
122	4	29	32	35
123	1	45	92	93
124	1	55	68	63
125	4	70	73	74
126	1	1	2	40
127	6	42	41	44
128	4	81	79	82
129	4	9	8	23
130	3	49	51	52
131	3	13	12	14
132	4	8	35	32
133	4	54	70	72
134	4	55	54	70
135	4	7	8	35
136	4	76	79	82
137	6	43	41	44
138	1	12	14	15
139	3	7	38	39
140	4	16	17	19
141	3	3	5	6
142	3	63	68	69
143	6	80	79	81
144	4	25	23	26
145	1	54	55	56
146	6	18	17	20
147	4	30	29	32
148	4	54	82	84
149	4	32	35	37
150	1	53	85	87
151	6	65	64	66
152	4	40	41	43
153	1	58	60	63
154	6	24	23	25
155	6	27	26	28
156	4	54	70	73
157	5	15	45	46
158	3	9	10	11
159	3	39	38	40
160	1	48	87	88
161	1	3	2	40
162	1	12	14	16
163	1	7	38	40
164	1	3	5	7
165	3	86	85	87
166	6	89	88	90
167	6	90	88	91
168	4	23	26	29
169	1	55	56	58
170	4	53	54	70
171	3	11	10	12
172	4	40	41	44
173	2	60	61	62
174	4	63	64	65
175	4	8	35	36
176	1	47	48	87
177	4	26	29	31
178	3	10	12	13

Dihedrals

1	4	7	8	9	21
2	1	1	2	40	38
3	6	30	29	32	35
4	6	70	73	76	78
5	1	52	51	53	54
6	1	54	55	68	63
7	6	78	76	79	82
8	12	72	70	73	75
9	2	1	47	48	49
10	1	4	3	2	40
11	4	21	9	8	23
12	12	28	26	29	31
13	1	48	49	51	53
14	5	9	8	23	24
15	1	55	56	58	59
16	6	24	23	8	35
17	12	27	26	29	31
18	1	12	14	16	17
19	5	55	54	82	83
20	1	55	68	63	60
21	11	15	45	92	94
22	1	8	9	10	11
23	4	51	53	54	82
24	1	11	10	12	13
25	1	48	87	85	86
26	7	73	70	54	82
26	8	73	70	54	82
26	9	73	70	54	82
27	2	12	14	15	45
28	4	55	54	53	85
29	6	71	70	54	82
30	12	78	76	79	80
31	6	72	70	73	76
32	4	60	63	64	66
33	1	61	60	63	68
34	6	28	26	29	32
35	6	71	70	73	76
36	5	9	8	23	25
37	6	25	23	8	35
38	12	33	32	35	36
39	1	52	51	53	85
40	1	55	56	58	60
41	4	68	55	54	82
42	12	75	73	76	77
43	5	55	54	82	84
44	4	10	9	8	35
45	4	48	87	88	90
46	6	54	82	79	81
47	4	5	7	8	35
48	5	7	8	23	24
49	4	9	8	7	38
50	5	53	54	70	71
51	1	61	60	63	64
52	6	73	76	79	81
53	6	23	26	29	30
54	1	12	10	9	21
55	12	81	79	82	84
56	12	31	29	32	34
57	1	57	56	58	60
58	1	13	12	14	15
59	12	33	32	35	37
60	4	2	40	41	42
61	1	51	49	48	87
62	1	58	60	63	68
63	1	59	58	60	61
64	12	75	73	76	78
65	7	70	54	82	79
65	8	70	54	82	79
65	9	70	54	82	79
66	1	12	14	16	21
67	1	55	68	63	64
68	1	50	49	48	87
69	4	85	87	88	91
70	1	3	5	7	38
71	4	18	17	16	21
72	1	10	9	21	16
73	4	48	87	88	91
74	6	76	79	82	83
75	4	21	9	8	35
76	5	55	54	70	71
77	5	7	8	35	32
78	12	24	23	26	27
79	1	53	85	87	88
80	12	74	73	76	77
81	1	58	60	63	64
82	1	8	9	21	16
83	1	10	12	14	16
84	5	53	54	82	84
85	12	77	76	79	81
86	1	49	48	87	85
87	7	54	70	73	76
87	8	54	70	73	76
87	9	54	70	73	76
88	1	64	63	68	69
89	1	5	7	38	40
90	1	2	3	5	6
91	4	7	8	9	10
92	6	31	29	32	35
93	1	51	53	85	86
94	1	50	49	51	52
95	6	8	23	26	27
96	6	72	70	54	82
97	7	70	73	76	79
97	8	70	73	76	79
97	9	70	73	76	79
98	4	14	16	17	18
99	6	8	35	32	33
100	1	47	48	49	50
101	12	25	23	26	27
102	5	55	54	70	72
103	12	24	23	26	28
104	12	71	70	73	74
105	1	54	53	85	86
106	6	27	26	29	32
107	1	39	38	40	41
108	1	3	2	40	41
109	6	77	76	79	82
110	1	9	21	16	17
111	1	54	55	68	69
112	1	8	9	10	12
113	12	34	32	35	36
114	1	9	10	12	13
115	1	11	10	12	14
116	1	2	3	5	7
117	1	51	53	85	87
118	4	67	64	63	68
119	1	56	58	60	63
120	11	46	45	92	93
121	1	2	40	38	7
122	6	8	23	26	28
123	4	70	54	53	85
124	6	29	32	35	36
125	1	47	48	87	88
126	3	2	1	47	48
127	1	48	87	85	53
128	2	3	2	1	47
129	6	26	29	32	33
130	12	25	23	26	28
131	5	7	8	35	36
132	4	60	63	64	67
133	4	38	40	41	42
134	5	9	8	23	26
135	4	35	8	7	38
136	1	54	53	85	87
137	4	66	64	63	68
138	1	2	40	38	39
139	12	30	29	32	33
140	1	56	55	68	63
141	5	7	8	23	25
142	5	53	54	70	72
143	6	23	8	35	36
144	7	73	76	79	82
144	8	73	76	79	82
144	9	73	76	79	82
145	1	54	55	56	57
146	6	23	26	29	31
147	1	1	2	3	4
148	4	20	17	16	21
149	1	49	51	53	85
150	1	3	2	40	38
151	1	9	21	16	14
152	4	53	54	55	56
153	6	54	70	73	74
154	5	9	8	35	32
155	5	7	8	35	37
156	1	60	63	68	69
157	1	6	5	7	8
158	1	17	16	21	22
159	6	75	73	76	79
160	1	13	12	14	16
161	7	23	8	35	32
161	8	23	8	35	32
161	9	23	8	35	32
162	4	2	40	41	43
163	12	80	79	82	83
164	1	58	56	55	68
165	4	56	55	54	70
166	10	14	15	45	92
167	6	54	82	79	80
168	1	47	48	87	85
169	4	65	64	63	68
170	6	70	54	82	83
171	4	23	8	7	38
172	6	76	79	82	84
173	1	4	3	5	6
174	5	53	54	70	73
175	12	72	70	73	74
176	6	23	8	35	37
177	12	78	76	79	81
178	12	28	26	29	30
179	12	74	73	76	78
180	1	1	2	3	5
181	4	53	54	55	68
182	1	3	5	7	8
183	5	55	54	82	79
184	13	62	61	60	63
185	7	54	82	79	76
185	8	54	82	79	76
185	9	54	82	79	76
186	1	8	7	38	39
187	2	40	2	1	47
188	1	14	16	21	22
189	1	49	51	53	54
190	1	8	9	21	22
191	4	2	40	41	44
192	1	59	58	60	63
193	1	50	49	51	53
194	6	70	54	82	84
195	4	14	16	17	19
196	6	8	35	32	34
197	1	47	48	49	51
198	1	4	3	5	7
199	5	55	54	70	73
200	4	60	63	64	65
201	6	24	23	26	29
202	2	16	14	15	45
203	12	71	70	73	75
204	6	74	73	76	79
205	4	85	87	88	89
206	1	15	14	16	21
207	12	77	76	79	80
208	4	5	7	8	9
209	4	82	54	53	85
210	1	8	7	38	40
211	5	9	8	35	36
212	12	34	32	35	37
213	1	9	10	12	14
214	4	48	87	88	89
215	4	51	53	54	70
216	11	46	45	92	94
217	7	8	23	26	29
217	8	8	23	26	29
217	9	8	23	26	29
218	1	15	14	16	17
219	1	7	38	40	41
220	6	29	32	35	37
221	4	14	16	17	20
222	5	53	54	82	79
223	1	1	2	40	41
224	2	14	15	45	46
225	7	26	23	8	35
225	8	26	23	8	35
225	9	26	23	8	35
226	13	58	60	61	62
227	12	81	79	82	83
228	6	26	29	32	34
229	6	25	23	26	29
230	4	19	17	16	21
231	1	11	10	9	21
232	4	38	40	41	43
233	12	31	29	32	33
234	1	57	56	58	59
235	4	85	87	88	90
236	4	51	53	54	55
237	4	56	55	54	82
238	4	68	55	54	70
239	6	70	73	76	77
240	1	49	48	87	88
241	1	57	56	55	68
242	5	9	8	35	37
243	12	30	29	32	34
244	4	10	9	8	23
245	1	86	85	87	88
246	5	7	8	23	26
247	4	5	7	8	23
248	6	73	76	79	80
249	2	1	47	48	87
250	1	6	5	7	38
251	1	48	49	51	52
252	1	54	55	56	58
253	7	23	26	29	32
253	8	23	26	29	32
253	9	23	26	29	32
254	12	27	26	29	30
255	1	10	12	14	15
256	1	10	9	21	22
257	5	53	54	82	83
258	1	56	55	68	69
259	1	5	3	2	40
260	11	15	45	92	93
261	7	26	29	32	35
261	8	26	29	32	35
261	9	26	29	32	35
262	6	54	70	73	75
263	4	38	40	41	44
264	1	5	7	38	39
265	12	80	79	82	84
266	1	56	58	60	61
267	7	8	35	32	29
267	8	8	35	32	29
267	9	8	35	32	29

Impropers

11	1	60	63	58	61
46	1	38	40	7	39
54	1	56	55	57	58
59	1	14	15	16	12
74	1	5	7	3	6
76	1	87	88	48	85
77	1	12	14	10	13
83	1	85	53	86	87
94	1	58	60	56	59
96	1	63	68	60	64
98	1	85	86	87	53
100	1	56	58	55	57
108	1	60	58	61	63
112	1	51	52	53	49
113	1	40	2	38	41
136	1	92	93	94	45
158	1	21	16	22	9
159	1	53	85	51	54
162	1	10	11	12	9
163	1	87	85	88	48
166	1	55	68	54	56
179	1	48	87	47	49
180	1	49	50	51	48
185	2	45	46	92	15
187	1	51	53	49	52
197	1	2	3	40	1
202	1	63	60	64	68
215	1	16	21	14	17
217	1	16	17	21	14
223	1	60	61	63	58
225	1	14	16	12	15
239	1	5	6	7	3
242	1	58	56	59	60
250	1	9	21	8	10
252	1	48	47	49	87
258	1	85	87	53	86
268	1	7	5	8	38
296	1	16	14	17	21
300	2	45	92	15	46
302	1	38	7	39	40
312	1	3	4	5	2
314	1	55	54	56	68
315	1	55	56	68	54
319	1	68	55	63	69
323	1	5	3	6	7
324	1	53	54	85	51
330	1	40	38	41	2
332	1	68	63	69	55
337	1	48	49	87	47
354	1	87	48	85	88
356	1	9	10	21	8
367	1	68	69	55	63
377	1	9	8	10	21
382	1	49	51	48	50
384	1	21	9	16	22
385	1	2	1	3	40
397	1	10	12	9	11
401	1	10	9	11	12
402	1	51	49	52	53
405	1	56	57	58	55
406	1	58	59	60	56
416	1	92	94	45	93
420	2	45	15	46	92
426	1	63	64	68	60
429	1	49	48	50	51
459	1	7	38	5	8
460	1	2	40	1	3
462	1	12	10	13	14
487	1	3	2	4	5
491	1	92	45	93	94
497	1	53	51	54	85
508	1	14	12	15	16
513	1	7	8	38	5
521	1	3	5	2	4
524	1	40	41	2	38
529	1	38	39	40	7
532	1	21	22	9	16
539	1	12	13	14	10
