Title

94 atoms
99 bonds
178 angles
291 dihedrals
78 impropers

9 atom types
13 bond types
6 angle types
13 dihedral types
2 improper types
-6.107999802 93.8920002 xlo xhi
-8.142000198 91.8579998 ylo yhi
-7.777999878 92.22200012 zlo zhi
0.0 0.0 0.0 xy xz yz

Masses

1	15.99943
2	12.01078
3	1.007947
4	12.01078
5	1.007947
6	15.99943
7	15.99943
8	1.007947
9	35.4532


Pair Coeffs

1	0.16846514	3.0251065
2	0.086879315	3.4806469
3	0.015611343	2.5725815
4	0.10884061	3.3795318
5	0.015779483	2.6445434
6	0.2102061	3.0398122
7	0.20947353	2.99716
8	1.2326e-05	0.53453923
9	0.2656001	3.3075278

Bond Coeffs

1 harmonic	425.69104206635	1.362945806494
2 harmonic	300.03137914615	1.451203938761
3 harmonic	360.7852444772	1.387193227181
4 harmonic	397.2545789619	1.085358495916
5 harmonic	289.73813263395	1.498646816465
6 harmonic	264.62148576755	1.52190126495
7 harmonic	301.15400723785	1.345741232799
8 harmonic	370.04670688625	1.093899492634
9 harmonic	582.698766451	1.225198386222
10 harmonic	279.1350963404	1.454628925034
11 harmonic	385.7604595587	1.369745182308
12 harmonic	543.5267831885	0.9716763312559
13 harmonic	218.0227703685	1.746066037062


Angle Coeffs

1 harmonic	57.8982893754	126.8062420451
2 harmonic	65.09061609600001	110.3538806181
3 harmonic	34.066775159195	129.1835929926
4 harmonic	53.20531626545	116.5475862634
5 harmonic	201.41175231035	127.4691416191
6 harmonic	48.776492647595	115.6030999533


Dihedral Coeffs

1 fourier 1	3.661930099076	2	180
2 fourier 1	1.532232714475	2	180
3 fourier 1	0.457973137376	1	0
4 fourier 1	0.02664938770063	3	0
5 fourier 1	0.1155372516788	3	0
6 fourier 1	0.1040663847541	3	0
7 fourier 1	0.09223874044423	3	0
8 fourier 1	0.3159935921949	2	180
9 fourier 1	0.3247796806857	1	180
10 fourier 1	2.779853741805	2	180
11 fourier 1	0.9974165607242	2	180
12 fourier 1	0.1911926717192	3	0
13 fourier 1	0.8283030590042	2	180


Improper Coeffs

1 0.3666666666666667	-1	2
2 3.5	-1	2


Atoms

1	1	1	-0.010498	-5.0050001	-1.428	0.45500001
2	1	2	0.083302997	-3.721	-0.88300002	0.412
3	1	2	-0.24361999	-3.346	-0.043000001	1.382
4	1	3	0.223216	-4.0339999	0.204	2.181
5	1	2	-0.190385	-2.0009999	0.56199998	1.3789999
6	1	3	0.21183801	-1.776	1.2359999	2.1889999
7	1	2	-0.15180901	-1.119	0.28999999	0.391
8	1	4	0.012102	0.31099999	0.87800002	0.32300001
9	1	2	-0.15180901	1.289	-0.31600001	0.32600001
10	1	2	-0.191157	1.268	-1.181	1.364
11	1	3	0.21183801	0.57300001	-1.046	2.1830001
12	1	2	-0.215175	2.1849999	-2.335	1.416
13	1	3	0.22355799	2.1440001	-3.003	2.267
14	1	2	0.30619299	3.059	-2.5510001	0.42500001
15	1	1	-0.41852	3.9319999	-3.6370001	0.479
16	1	2	-0.087128997	3.0999999	-1.627	-0.73500001
17	1	4	-0.13306201	4.1090002	-1.8430001	-1.8279999
18	1	5	0.095449999	5.0910001	-1.434	-1.508
19	1	5	0.095449999	4.2199998	-2.9260001	-2.0409999
20	1	5	0.095449999	3.8	-1.3430001	-2.7709999
21	1	2	-0.307749	2.279	-0.56099999	-0.76800001
22	1	3	0.21280999	2.3499999	0.116	-1.607
23	1	4	-0.13072801	0.71200001	1.808	1.523
24	1	5	0.10703	0.347	1.409	2.4920001
25	1	5	0.10703	1.821	1.79	1.633
26	1	4	-0.130494	0.329	3.3	1.368
27	1	5	0.108587	1.217	3.869	1.0140001
28	1	5	0.108587	0.050999999	3.7149999	2.362
29	1	4	-0.15211201	-0.81599998	3.5480001	0.38
30	1	5	0.111386	-1.7640001	3.161	0.80400002
31	1	5	0.111386	-0.95599997	4.645	0.25999999
32	1	4	-0.130494	-0.56099999	2.918	-1.001
33	1	5	0.108587	-0.163	3.6930001	-1.692
34	1	5	0.108587	-1.5319999	2.576	-1.4220001
35	1	4	-0.13072801	0.42699999	1.735	-0.972
36	1	5	0.10703	0.26199999	1.1210001	-1.883
37	1	5	0.10703	1.456	2.155	-1.041
38	1	2	-0.311948	-1.543	-0.65899998	-0.67900002
39	1	3	0.21280999	-0.83999997	-0.91100001	-1.464
40	1	2	-0.074649997	-2.767	-1.216	-0.68099999
41	1	4	-0.136255	-3.1630001	-2.1719999	-1.772
42	1	5	0.095449999	-2.3469999	-2.325	-2.5109999
43	1	5	0.095449999	-3.4159999	-3.1589999	-1.33
44	1	5	0.095449999	-4.0469999	-1.774	-2.313
45	1	2	0.62774199	3.931	-4.309	1.285
46	1	6	-0.49830899	4.9860001	-4.7090001	1.747
47	1	1	-0.010498	-5.3470001	-2.0699999	-0.248
48	1	2	0.083302997	-4.5219998	-2.615	-1.232
49	1	2	-0.24361999	-5.0539999	-3.4549999	-2.125
50	1	3	0.223216	-6.1079998	-3.7019999	-2.076
51	1	2	-0.190385	-4.223	-4.0599999	-3.1830001
52	1	3	0.21183801	-4.7220001	-4.7340002	-3.859
53	1	2	-0.15180901	-2.902	-3.7880001	-3.2679999
54	1	4	0.012102	-1.966	-4.3759999	-4.3520002
55	1	2	-0.15180901	-1.3660001	-3.181	-5.1240001
56	1	2	-0.151417	-2.1960001	-2.316	-5.7480001
57	1	3	0.21183801	-3.2690001	-2.4519999	-5.7049999
58	1	2	-0.37868401	-1.6720001	-1.163	-6.5009999
59	1	3	0.22803099	-2.3670001	-0.495	-6.994
60	1	2	0.28166699	-0.352	-0.94700003	-6.5780001
61	1	7	-0.63872403	0.14300001	0.14	-7.3000002
62	1	8	0.43528301	-0.47099999	0.78899997	-7.7779999
63	1	2	-0.25978899	0.58600003	-1.8710001	-5.8959999
64	1	4	-0.119235	2.069	-1.655	-6.0170002
65	1	5	0.095449999	2.4219999	-2.0639999	-6.987
66	1	5	0.095449999	2.3050001	-0.57099998	-5.973
67	1	5	0.095449999	2.6199999	-2.155	-5.1919999
68	1	2	-0.272742	0.106	-2.937	-5.2290001
69	1	3	0.21280999	0.81	-3.6129999	-4.7680001
70	1	4	-0.13072801	-2.664	-5.3060002	-5.408
71	1	5	0.10703	-3.652	-4.9070001	-5.7179999
72	1	5	0.10703	-2.0669999	-5.2880001	-6.348
73	1	4	-0.130494	-2.779	-6.7979999	-5.0100002
74	1	5	0.108587	-1.952	-7.3670001	-5.4910002
75	1	5	0.108587	-3.7320001	-7.2129998	-5.4039998
76	1	4	-0.15211201	-2.7060001	-7.046	-3.5
77	1	5	0.111386	-3.6240001	-6.6589999	-3.0150001
78	1	5	0.111386	-2.698	-8.1420002	-3.3150001
79	1	4	-0.130494	-1.461	-6.4159999	-2.849
80	1	5	0.108587	-0.67199999	-7.191	-2.737
81	1	5	0.108587	-1.728	-6.073	-1.826
82	1	4	-0.13072801	-0.875	-5.2329998	-3.645
83	1	5	0.10703	-0.259	-4.619	-2.9530001
84	1	5	0.10703	-0.186	-5.6529999	-4.4130001
85	1	2	-0.311948	-2.3199999	-2.839	-2.2739999
86	1	3	0.21280999	-1.2690001	-2.5869999	-2.3440001
87	1	2	-0.074649997	-3.0739999	-2.2809999	-1.309
88	1	4	-0.136255	-2.4579999	-1.325	-0.32499999
89	1	5	0.095449999	-1.373	-1.173	-0.51300001
90	1	5	0.095449999	-2.9619999	-0.33899999	-0.39899999
91	1	5	0.095449999	-2.5769999	-1.723	0.704
92	1	2	0.46730199	2.9909999	-4.6479998	1.707
93	1	6	-0.57453299	1.938	-4.1820002	1.304
94	1	9	-0.084201999	2.984	-5.8670001	2.967

Bonds

1	1	1	2
2	2	1	47
3	3	2	3
4	3	2	40
5	4	3	4
6	3	3	5
7	4	5	6
8	3	5	7
9	5	7	8
10	3	7	38
11	5	8	9
12	6	8	23
13	6	8	35
14	3	9	10
15	3	9	21
16	4	10	11
17	3	10	12
18	4	12	13
19	3	12	14
20	1	14	15
21	3	14	16
22	7	15	45
23	5	16	17
24	3	16	21
25	8	17	18
26	8	17	19
27	8	17	20
28	4	21	22
29	8	23	24
30	8	23	25
31	6	23	26
32	8	26	27
33	8	26	28
34	6	26	29
35	8	29	30
36	8	29	31
37	6	29	32
38	8	32	33
39	8	32	34
40	6	32	35
41	8	35	36
42	8	35	37
43	4	38	39
44	3	38	40
45	5	40	41
46	8	41	42
47	8	41	43
48	8	41	44
49	9	45	46
50	10	45	92
51	1	47	48
52	3	48	49
53	3	48	87
54	4	49	50
55	3	49	51
56	4	51	52
57	3	51	53
58	5	53	54
59	3	53	85
60	5	54	55
61	6	54	70
62	6	54	82
63	3	55	56
64	3	55	68
65	4	56	57
66	3	56	58
67	4	58	59
68	3	58	60
69	11	60	61
70	3	60	63
71	12	61	62
72	5	63	64
73	3	63	68
74	8	64	65
75	8	64	66
76	8	64	67
77	4	68	69
78	8	70	71
79	8	70	72
80	6	70	73
81	8	73	74
82	8	73	75
83	6	73	76
84	8	76	77
85	8	76	78
86	6	76	79
87	8	79	80
88	8	79	81
89	6	79	82
90	8	82	83
91	8	82	84
92	4	85	86
93	3	85	87
94	5	87	88
95	8	88	89
96	8	88	90
97	8	88	91
98	9	92	93
99	13	92	94

Angles

1	4	63	64	66
2	1	54	53	85
3	4	7	8	35
4	3	55	56	57
5	1	10	12	14
6	1	60	63	68
7	4	74	73	76
8	6	42	41	43
9	1	93	92	94
10	3	4	3	5
11	6	19	17	20
12	3	48	49	50
13	1	51	53	85
14	1	85	87	88
15	1	17	16	21
16	4	54	70	71
17	1	1	2	40
18	4	53	54	82
19	3	39	38	40
20	1	60	63	64
21	6	80	79	81
22	4	28	26	29
23	4	31	29	32
24	4	63	64	67
25	1	51	53	54
26	6	43	41	44
27	4	26	29	30
28	4	29	32	33
29	4	87	88	89
30	3	9	21	22
31	1	48	87	85
32	6	89	88	91
33	4	54	82	83
34	4	40	41	42
35	4	78	76	79
36	4	81	79	82
37	6	90	88	91
38	1	10	9	21
39	1	47	48	49
40	1	45	92	93
41	4	7	8	23
42	4	8	35	36
43	1	46	45	92
44	6	24	23	25
45	1	53	85	87
46	4	54	82	79
47	1	64	63	68
48	4	26	29	31
49	4	29	32	34
50	6	36	35	37
51	4	8	35	32
52	3	3	5	6
53	4	54	82	84
54	3	63	68	69
55	3	9	10	11
56	4	73	76	77
57	4	77	76	79
58	4	23	26	28
59	4	32	35	36
60	1	8	7	38
61	1	54	55	68
62	6	83	82	84
63	3	86	85	87
64	1	58	60	63
65	4	55	54	82
66	6	71	70	72
67	4	8	23	24
68	4	53	54	55
69	2	2	1	47
70	1	3	2	40
71	1	5	7	8
72	2	14	15	45
73	1	3	5	7
74	1	9	10	12
75	4	16	17	18
76	3	59	58	60
77	4	75	73	76
78	4	23	26	29
79	6	18	17	19
80	1	55	56	58
81	3	11	10	12
82	1	55	68	63
83	6	42	41	44
84	3	57	56	58
85	3	49	51	52
86	4	71	70	73
87	1	48	49	51
88	4	70	73	74
89	4	54	70	72
90	3	7	38	39
91	4	23	8	35
92	3	50	49	51
93	1	9	21	16
94	1	12	14	15
95	4	80	79	82
96	3	2	3	4
97	1	14	16	21
98	4	16	17	19
99	4	76	79	80
100	4	25	23	26
101	1	54	55	56
102	6	18	17	20
103	4	55	54	70
104	1	5	7	38
105	3	56	58	59
106	6	65	64	66
107	1	14	16	17
108	4	40	41	43
109	6	27	26	28
110	4	70	73	75
111	4	54	70	73
112	1	1	2	3
113	1	15	14	16
114	1	45	92	94
115	4	8	35	37
116	1	12	14	16
117	4	24	23	26
118	4	26	29	32
119	4	29	32	35
120	6	66	64	67
121	6	30	29	31
122	6	33	32	34
123	4	73	76	78
124	4	40	41	44
125	4	34	32	35
126	2	60	61	62
127	4	63	64	65
128	4	32	35	37
129	1	47	48	87
130	3	10	12	13
131	4	87	88	90
132	4	8	23	25
133	4	70	54	82
134	1	15	45	92
135	4	30	29	32
136	4	33	32	35
137	3	52	51	53
138	4	73	76	79
139	4	72	70	73
140	3	6	5	7
141	3	13	12	14
142	4	87	88	91
143	2	1	47	48
144	1	49	51	53
145	4	8	23	26
146	4	7	8	9
147	4	9	8	23
148	1	7	38	40
149	4	79	82	83
150	3	55	68	69
151	1	2	3	5
152	4	16	17	20
153	3	53	85	86
154	1	58	60	61
155	4	76	79	81
156	1	8	9	21
157	1	56	55	68
158	1	61	60	63
159	1	56	58	60
160	1	49	48	87
161	6	65	64	67
162	6	77	76	78
163	4	9	8	35
164	6	89	88	90
165	4	27	26	29
166	4	23	26	27
167	1	38	40	41
168	4	70	73	76
169	4	79	82	84
170	5	15	45	46
171	6	74	73	75
172	1	8	9	10
173	4	76	79	82
174	1	48	87	88
175	3	16	21	22
176	1	2	40	38
177	4	53	54	70
178	1	2	40	41

Dihedrals

1	1	55	56	58	59
2	1	53	85	87	88
3	7	73	70	54	82
3	8	73	70	54	82
3	9	73	70	54	82
4	1	8	9	10	11
5	1	2	40	38	7
6	5	53	54	70	72
7	1	4	3	5	6
8	4	85	87	88	91
9	1	51	49	48	87
10	5	9	8	35	36
11	4	35	8	7	38
12	5	55	54	82	83
13	2	40	2	1	47
14	12	81	79	82	84
15	1	9	21	16	14
16	1	3	5	7	38
17	6	25	23	8	35
18	4	53	54	55	56
19	12	31	29	32	33
20	4	56	55	54	82
21	4	68	55	54	82
22	12	34	32	35	36
23	6	29	32	35	36
24	5	9	8	35	32
25	6	8	23	26	28
26	11	46	45	92	93
27	5	55	54	82	79
28	1	8	9	10	12
29	1	48	87	85	86
30	4	60	63	64	65
31	1	15	14	16	21
32	5	53	54	70	73
33	1	56	58	60	63
34	1	51	53	85	86
35	12	72	70	73	74
36	12	77	76	79	80
37	1	12	10	9	21
38	12	24	23	26	27
39	4	53	54	55	68
40	1	8	9	21	22
41	6	26	29	32	33
42	13	62	61	60	63
43	6	8	35	32	33
44	1	9	10	12	13
45	6	76	79	82	83
46	1	13	12	14	16
47	1	15	14	16	17
48	1	14	16	21	22
49	5	55	54	70	71
50	5	7	8	23	25
51	12	34	32	35	37
52	6	29	32	35	37
53	4	14	16	17	19
54	3	2	1	47	48
55	1	8	7	38	40
56	6	70	73	76	78
57	12	75	73	76	77
58	12	27	26	29	31
59	12	71	70	73	75
60	12	77	76	79	81
61	4	2	40	41	43
62	6	23	26	29	30
63	6	26	29	32	34
64	6	73	76	79	80
65	6	8	35	32	34
66	4	82	54	53	85
67	12	30	29	32	33
68	4	65	64	63	68
69	5	55	54	70	72
70	1	54	55	56	58
71	5	7	8	23	26
72	1	11	10	12	13
73	1	47	48	87	88
74	1	10	12	14	15
75	1	49	48	87	85
76	4	14	16	17	20
77	6	28	26	29	32
78	1	50	49	51	52
79	7	26	23	8	35
79	8	26	23	8	35
79	9	26	23	8	35
80	6	54	70	73	75
81	7	70	73	76	79
81	8	70	73	76	79
81	9	70	73	76	79
82	6	27	26	29	32
83	1	57	56	58	59
84	4	2	40	41	44
85	4	7	8	9	21
86	6	23	26	29	31
87	1	55	56	58	60
88	4	51	53	54	82
89	1	54	55	68	63
90	12	30	29	32	34
91	4	48	87	88	90
92	1	4	3	2	40
93	1	57	56	55	68
94	4	70	54	53	85
95	4	85	87	88	89
96	1	4	3	5	7
97	5	7	8	35	36
98	1	11	10	12	14
99	1	6	5	7	38
100	1	48	49	51	52
101	1	10	12	14	16
102	5	9	8	35	37
103	5	55	54	82	84
104	1	59	58	60	63
105	6	71	70	54	82
106	7	54	70	73	76
106	8	54	70	73	76
106	9	54	70	73	76
107	1	1	2	3	4
108	1	5	3	2	40
109	1	2	3	5	6
110	4	7	8	9	10
111	11	15	45	92	93
112	4	20	17	16	21
113	12	31	29	32	34
114	1	52	51	53	85
115	5	53	54	82	83
116	4	38	40	41	42
117	6	23	8	35	36
118	5	7	8	35	32
119	11	46	45	92	94
120	7	8	23	26	29
120	8	8	23	26	29
120	9	8	23	26	29
121	12	78	76	79	80
122	1	8	9	21	16
123	12	25	23	26	27
124	4	9	8	7	38
125	4	60	63	64	66
126	1	52	51	53	54
127	1	61	60	63	68
128	12	33	32	35	36
129	12	72	70	73	75
130	1	10	9	21	16
131	2	1	47	48	49
132	1	51	53	85	87
133	1	48	49	51	53
134	5	9	8	23	24
135	5	53	54	82	79
136	7	23	8	35	32
136	8	23	8	35	32
136	9	23	8	35	32
137	12	24	23	26	28
138	1	39	38	40	41
139	12	74	73	76	77
140	1	54	53	85	86
141	6	76	79	82	84
142	1	9	10	12	14
143	6	70	54	82	83
144	11	15	45	92	94
145	6	31	29	32	35
146	1	61	60	63	64
147	1	11	10	9	21
148	4	51	53	54	70
149	5	53	54	82	84
150	4	38	40	41	43
151	1	56	55	68	69
152	1	17	16	21	22
153	4	23	8	7	38
154	12	78	76	79	81
155	1	5	7	38	39
156	12	28	26	29	30
157	4	60	63	64	67
158	7	54	82	79	76
158	8	54	82	79	76
158	9	54	82	79	76
159	4	66	64	63	68
160	7	70	54	82	79
160	8	70	54	82	79
160	9	70	54	82	79
161	12	75	73	76	78
162	6	72	70	73	76
163	12	80	79	82	83
164	6	71	70	73	76
165	6	77	76	79	82
166	5	9	8	23	25
167	6	24	23	26	29
168	4	51	53	54	55
169	4	18	17	16	21
170	12	74	73	76	78
171	7	26	29	32	35
171	8	26	29	32	35
171	9	26	29	32	35
172	6	73	76	79	81
173	1	3	2	40	38
174	1	55	68	63	64
175	1	3	2	40	41
176	4	5	7	8	9
177	5	55	54	70	73
178	1	47	48	49	50
179	5	53	54	70	71
180	1	56	58	60	61
181	4	85	87	88	90
182	6	72	70	54	82
183	4	10	9	8	35
184	1	5	7	38	40
185	1	50	49	51	53
186	12	81	79	82	83
187	1	12	14	16	17
188	1	1	2	40	38
189	1	55	68	63	60
190	6	75	73	76	79
191	1	1	2	40	41
192	2	3	2	1	47
193	1	58	56	55	68
194	1	57	56	58	60
195	1	47	48	87	85
196	2	16	14	15	45
197	4	19	17	16	21
198	7	23	26	29	32
198	8	23	26	29	32
198	9	23	26	29	32
199	6	24	23	8	35
200	6	8	23	26	27
201	1	60	63	68	69
202	7	73	76	79	82
202	8	73	76	79	82
202	9	73	76	79	82
203	2	12	14	15	45
204	6	30	29	32	35
205	4	48	87	88	91
206	1	47	48	49	51
207	1	49	51	53	85
208	5	7	8	35	37
209	1	50	49	48	87
210	4	5	7	8	23
211	10	14	15	45	92
212	1	54	55	68	69
213	4	21	9	8	35
214	6	54	82	79	80
215	1	1	2	3	5
216	1	2	3	5	7
217	1	13	12	14	15
218	1	2	40	38	39
219	1	49	51	53	54
220	13	58	60	61	62
221	1	7	38	40	41
222	5	7	8	23	24
223	6	23	8	35	37
224	4	68	55	54	70
225	4	48	87	88	89
226	4	14	16	17	18
227	4	10	9	8	23
228	12	25	23	26	28
229	1	8	7	38	39
230	6	70	73	76	77
231	12	33	32	35	37
232	4	5	7	8	35
233	12	27	26	29	30
234	12	71	70	73	74
235	1	86	85	87	88
236	1	56	55	68	63
237	4	2	40	41	42
238	1	49	48	87	88
239	4	55	54	53	85
240	1	54	53	85	87
241	1	9	21	16	17
242	1	12	14	16	21
243	6	54	82	79	81
244	6	70	54	82	84
245	1	3	5	7	8
246	1	10	9	21	22
247	1	58	60	63	68
248	1	54	55	56	57
249	4	38	40	41	44
250	4	67	64	63	68
251	1	64	63	68	69
252	1	59	58	60	61
253	6	78	76	79	82
254	6	54	70	73	74
255	12	28	26	29	31
256	6	25	23	26	29
257	1	48	87	85	53
258	7	8	35	32	29
258	8	8	35	32	29
258	9	8	35	32	29
259	4	21	9	8	23
260	12	80	79	82	84
261	2	1	47	48	87
262	4	56	55	54	70
263	1	58	60	63	64
264	5	9	8	23	26
265	1	6	5	7	8
266	2	14	15	45	46
267	6	74	73	76	79

Impropers

2	1	21	22	9	16
19	1	58	56	59	60
25	1	48	87	47	49
27	1	38	40	7	39
31	1	7	8	38	5
44	1	85	86	87	53
45	1	51	49	52	53
51	1	53	85	51	54
54	1	40	41	2	38
73	2	45	92	15	46
74	1	51	52	53	49
86	1	40	2	38	41
95	1	68	63	69	55
99	1	58	59	60	56
100	1	55	56	68	54
106	1	3	2	4	5
108	1	12	14	10	13
109	1	2	40	1	3
111	1	48	47	49	87
115	1	9	10	21	8
120	1	10	9	11	12
124	1	14	15	16	12
147	1	56	58	55	57
159	1	40	38	41	2
168	1	85	53	86	87
171	1	7	38	5	8
176	1	85	87	53	86
177	1	38	39	40	7
191	1	14	12	15	16
200	1	7	5	8	38
201	1	56	55	57	58
218	1	87	48	85	88
228	1	16	14	17	21
244	1	92	45	93	94
249	1	60	61	63	58
253	1	53	54	85	51
260	1	38	7	39	40
263	1	5	7	3	6
268	1	92	94	45	93
273	1	87	85	88	48
290	1	58	60	56	59
296	1	21	9	16	22
297	1	53	51	54	85
301	1	21	16	22	9
316	1	51	53	49	52
321	1	49	50	51	48
323	1	56	57	58	55
330	1	63	68	60	64
333	1	2	3	40	1
334	1	92	93	94	45
335	2	45	15	46	92
340	1	12	13	14	10
344	1	9	21	8	10
345	1	49	48	50	51
358	1	16	17	21	14
359	1	63	64	68	60
360	1	55	68	54	56
367	1	68	69	55	63
368	1	14	16	12	15
387	1	48	49	87	47
403	1	63	60	64	68
416	1	16	21	14	17
419	2	45	46	92	15
425	1	60	63	58	61
429	1	60	58	61	63
443	1	3	5	2	4
446	1	5	3	6	7
453	1	9	8	10	21
478	1	12	10	13	14
480	1	5	6	7	3
483	1	10	11	12	9
484	1	10	12	9	11
493	1	2	1	3	40
502	1	55	54	56	68
507	1	49	51	48	50
528	1	87	88	48	85
531	1	3	4	5	2
535	1	68	55	63	69
