Title

104 atoms
107 bonds
190 angles
283 dihedrals
78 impropers

9 atom types
13 bond types
6 angle types
13 dihedral types
2 improper types
-6.18900013 93.81099987 xlo xhi
-6.965000153 93.03499985 ylo yhi
-3.849999905 96.1500001 zlo zhi
0.0 0.0 0.0 xy xz yz

Masses

1	15.99943
2	12.01078
3	1.007947
4	12.01078
5	1.007947
6	15.99943
7	15.99943
8	1.007947
9	35.4532


Pair Coeffs

1	0.16846514	3.0251065
2	0.086879315	3.4806469
3	0.015611343	2.5725815
4	0.10884061	3.3795318
5	0.015779483	2.6445434
6	0.2102061	3.0398122
7	0.20947353	2.99716
8	1.2326e-05	0.53453923
9	0.2656001	3.3075278

Bond Coeffs

1 harmonic	425.69104206635	1.362945806494
2 harmonic	300.03137914615	1.451203938761
3 harmonic	360.7852444772	1.387193227181
4 harmonic	397.2545789619	1.085358495916
5 harmonic	289.73813263395	1.498646816465
6 harmonic	264.62148576755	1.52190126495
7 harmonic	301.15400723785	1.345741232799
8 harmonic	370.04670688625	1.093899492634
9 harmonic	582.698766451	1.225198386222
10 harmonic	279.1350963404	1.454628925034
11 harmonic	385.7604595587	1.369745182308
12 harmonic	543.5267831885	0.9716763312559
13 harmonic	218.0227703685	1.746066037062


Angle Coeffs

1 harmonic	57.8982893754	126.8062420451
2 harmonic	65.09061609600001	110.3538806181
3 harmonic	34.066775159195	129.1835929926
4 harmonic	53.20531626545	116.5475862634
5 harmonic	201.41175231035	127.4691416191
6 harmonic	48.776492647595	115.6030999533


Dihedral Coeffs

1 fourier 1	3.661930099076	2	180
2 fourier 1	1.532232714475	2	180
3 fourier 1	0.457973137376	1	0
4 fourier 1	0.02664938770063	3	0
5 fourier 1	0.1155372516788	3	0
6 fourier 1	0.09223874044423	3	0
7 fourier 1	0.3159935921949	2	180
8 fourier 1	0.3247796806857	1	180
9 fourier 1	0.1040663847541	3	0
10 fourier 1	2.779853741805	2	180
11 fourier 1	0.9974165607242	2	180
12 fourier 1	0.1911926717192	3	0
13 fourier 1	0.8283030590042	2	180


Improper Coeffs

1 0.3666666666666667	-1	2
2 3.5	-1	2


Atoms

1	1	1	-0.0090800002	5.1950002	-0.426	-1.6339999
2	1	2	0.084596999	3.8829999	-0.221	-1.207
3	1	2	-0.256322	3.3150001	0.97000003	-1.4220001
4	1	3	0.224848	3.8710001	1.752	-1.925
5	1	2	-0.159743	1.932	1.237	-0.98699999
6	1	3	0.21073399	1.524	2.201	-1.2410001
7	1	2	-0.219403	1.219	0.29800001	-0.32600001
8	1	4	0.026395001	-0.25099999	0.491	0.126
9	1	2	-0.219402	-1.143	-0.46799999	-0.70300001
10	1	2	-0.161035	-0.88599998	-0.70099998	-2.0109999
11	1	3	0.21073399	-0.034000002	-0.25600001	-2.506
12	1	2	-0.224378	-1.762	-1.568	-2.819
13	1	3	0.225087	-1.5	-1.7690001	-3.8499999
14	1	2	0.305852	-2.8670001	-2.102	-2.2920001
15	1	1	-0.418028	-3.6630001	-2.9230001	-3.092
16	1	2	-0.097398996	-3.2260001	-1.802	-0.87900001
17	1	4	-0.133258	-4.4959998	-2.349	-0.285
18	1	5	0.095959	-4.4679999	-3.4590001	-0.30599999
19	1	5	0.095959	-5.3660002	-1.992	-0.875
20	1	5	0.095959	-4.638	-2.0280001	0.76899999
21	1	2	-0.27355	-2.415	-1.021	-0.141
22	1	3	0.21121	-2.7049999	-0.778	0.87099999
23	1	4	-0.12972	-0.37200001	0.14	1.66
24	1	4	-0.12946799	0.81900001	0.54900002	2.5599999
25	1	4	-0.121697	0.447	0.46399999	4.0370002
26	1	5	0.068448	-0.37	1.181	4.27
27	1	5	0.068448	0.117	-0.565	4.2940001
28	1	5	0.068448	1.33	0.72100002	4.6599998
29	1	5	0.090302996	1.169	1.575	2.345
30	1	5	0.090302996	1.677	-0.13500001	2.3870001
31	1	5	0.105662	-1.3	0.59799999	2.0669999
32	1	5	0.105662	-0.486	-0.95999998	1.7819999
33	1	4	-0.12972	-0.84299999	1.92	-0.15099999
34	1	4	-0.12946799	-0.30000001	3.076	0.71100003
35	1	4	-0.121697	-0.81599998	4.4219999	0.20900001
36	1	5	0.068448	-0.46399999	4.6069999	-0.829
37	1	5	0.068448	-1.926	4.4419999	0.229
38	1	5	0.068448	-0.43399999	5.2350001	0.86199999
39	1	5	0.090302996	0.80800003	3.105	0.699
40	1	5	0.090302996	-0.639	2.9519999	1.761
41	1	5	0.105662	-1.943	1.888	0.021
42	1	5	0.105662	-0.722	2.1670001	-1.229
43	1	2	-0.276759	1.848	-1.041	-0.126
44	1	3	0.21121	1.27	-1.822	0.352
45	1	2	-0.085447997	3.1059999	-1.294	-0.52899998
46	1	4	-0.13639	3.714	-2.651	-0.30599999
47	1	5	0.095959	4.618	-2.553	0.331
48	1	5	0.095959	3.01	-3.346	0.2
49	1	5	0.095959	3.997	-3.0969999	-1.2819999
50	1	2	0.62805098	-4.5419998	-3.372	-2.74
51	1	6	-0.49624801	-5.2909999	-2.7520001	-2.003
52	1	1	-0.0090800002	5.6799998	-1.304	-1.501
53	1	2	0.084596999	6.5890002	-1.5089999	-0.46200001
54	1	2	-0.256322	7.1869998	-2.701	-0.35699999
55	1	3	0.224848	6.967	-3.483	-1.073
56	1	2	-0.159743	8.1529999	-2.967	0.72500002
57	1	3	0.21073399	8.6330004	-3.9319999	0.71600002
58	1	2	-0.219403	8.427	-2.0280001	1.658
59	1	4	0.026395001	9.4580002	-2.2219999	2.799
60	1	2	-0.219402	10.649	-1.263	2.543
61	1	2	-0.118658	11.098	-1.03	1.288
62	1	3	0.21073399	10.618	-1.474	0.426
63	1	2	-0.387757	12.263	-0.162	1.0420001
64	1	3	0.23007201	12.567	0.037999999	0.022
65	1	2	0.28292701	12.943	0.37099999	2.0599999
66	1	7	-0.63819999	14.036	1.192	1.781
67	1	8	0.43595099	14.592	1.626	2.507
68	1	2	-0.26869401	12.529	0.071999997	3.4579999
69	1	4	-0.11923	13.316	0.61900002	4.618
70	1	5	0.095959	13.302	1.728	4.586
71	1	5	0.095959	14.365	0.26199999	4.5570002
72	1	5	0.095959	12.898	0.29800001	5.5960002
73	1	2	-0.23591	11.454	-0.70999998	3.6760001
74	1	3	0.21121	11.186	-0.95300001	4.6950002
75	1	4	-0.12972	8.7770004	-1.8710001	4.178
76	1	4	-0.12946799	7.2930002	-2.279	4.342
77	1	4	-0.121697	6.8569999	-2.1949999	5.802
78	1	5	0.068448	7.4400001	-2.911	6.4200001
79	1	5	0.068448	7.0089998	-1.165	6.191
80	1	5	0.068448	5.7800002	-2.451	5.8850002
81	1	5	0.090302996	7.1030002	-3.3050001	3.9790001
82	1	5	0.090302996	6.645	-1.596	3.7550001
83	1	5	0.105662	9.3660002	-2.329	5.0029998
84	1	5	0.105662	8.8120003	-0.77100003	4.342
85	1	4	-0.12972	10.108	-3.651	2.8640001
86	1	4	-0.12946799	9.2010002	-4.8070002	3.326
87	1	4	-0.121697	9.901	-6.152	3.1589999
88	1	5	0.068448	10.13	-6.3369999	2.0880001
89	1	5	0.068448	10.845	-6.1729999	3.7449999
90	1	5	0.068448	9.2390003	-6.9650002	3.5239999
91	1	5	0.090302996	8.2559996	-4.836	2.7490001
92	1	5	0.090302996	8.9549999	-4.6830001	4.402
93	1	5	0.105662	10.965	-3.618	3.575
94	1	5	0.105662	10.557	-3.8970001	1.876
95	1	2	-0.276759	7.7839999	-0.69	1.508
96	1	3	0.21121	8.0360003	0.092	2.2149999
97	1	2	-0.085447997	6.9099998	-0.43599999	0.51800001
98	1	4	-0.13639	6.2729998	0.921	0.39899999
99	1	5	0.095959	5.1700001	0.82300001	0.48300001
100	1	5	0.095959	6.619	1.6160001	1.194
101	1	5	0.095959	6.5289998	1.367	-0.58499998
102	1	2	0.46756101	-4.7870002	-4.3870001	-3.0309999
103	1	6	-0.57171899	-4.085	-4.9759998	-3.836
104	1	9	-0.082859002	-6.1890001	-5.184	-2.342

Bonds

1	1	1	2
2	2	1	52
3	3	2	3
4	3	2	45
5	4	3	4
6	3	3	5
7	4	5	6
8	3	5	7
9	5	7	8
10	3	7	43
11	5	8	9
12	6	8	23
13	6	8	33
14	3	9	10
15	3	9	21
16	4	10	11
17	3	10	12
18	4	12	13
19	3	12	14
20	1	14	15
21	3	14	16
22	7	15	50
23	5	16	17
24	3	16	21
25	8	17	18
26	8	17	19
27	8	17	20
28	4	21	22
29	6	23	24
30	8	23	31
31	8	23	32
32	6	24	25
33	8	24	29
34	8	24	30
35	8	25	26
36	8	25	27
37	8	25	28
38	6	33	34
39	8	33	41
40	8	33	42
41	6	34	35
42	8	34	39
43	8	34	40
44	8	35	36
45	8	35	37
46	8	35	38
47	4	43	44
48	3	43	45
49	5	45	46
50	8	46	47
51	8	46	48
52	8	46	49
53	9	50	51
54	10	50	102
55	1	52	53
56	3	53	54
57	3	53	97
58	4	54	55
59	3	54	56
60	4	56	57
61	3	56	58
62	5	58	59
63	3	58	95
64	5	59	60
65	6	59	75
66	6	59	85
67	3	60	61
68	3	60	73
69	4	61	62
70	3	61	63
71	4	63	64
72	3	63	65
73	11	65	66
74	3	65	68
75	12	66	67
76	5	68	69
77	3	68	73
78	8	69	70
79	8	69	71
80	8	69	72
81	4	73	74
82	6	75	76
83	8	75	83
84	8	75	84
85	6	76	77
86	8	76	81
87	8	76	82
88	8	77	78
89	8	77	79
90	8	77	80
91	6	85	86
92	8	85	93
93	8	85	94
94	6	86	87
95	8	86	91
96	8	86	92
97	8	87	88
98	8	87	89
99	8	87	90
100	4	95	96
101	3	95	97
102	5	97	98
103	8	98	99
104	8	98	100
105	8	98	101
106	9	102	103
107	13	102	104

Angles

1	4	59	85	86
2	6	29	24	30
3	2	1	52	53
4	3	9	10	11
5	1	60	61	63
6	4	76	77	78
7	4	8	23	24
8	1	8	7	43
9	1	69	68	73
10	4	16	17	20
11	6	71	69	72
12	4	75	76	77
13	3	7	43	44
14	3	62	61	63
15	3	53	54	55
16	6	91	86	92
17	1	9	10	12
18	4	60	59	75
19	4	34	35	38
20	5	15	50	51
21	6	36	35	38
22	4	59	85	94
23	4	59	75	83
24	6	27	25	28
25	1	103	102	104
26	6	48	46	49
27	1	95	97	98
28	1	53	97	98
29	4	8	23	32
30	1	52	53	97
31	4	35	34	40
32	4	86	87	88
33	1	2	3	5
34	3	16	21	22
35	1	63	65	68
36	1	10	9	21
37	6	81	76	82
38	1	52	53	54
39	4	9	8	33
40	4	87	86	92
41	1	2	45	43
42	6	19	17	20
43	4	23	24	29
44	1	17	16	21
45	1	8	9	21
46	4	75	76	81
47	4	97	98	99
48	4	75	59	85
49	3	58	95	96
50	6	39	34	40
51	1	59	58	95
52	4	23	24	25
53	1	5	7	43
54	1	51	50	102
55	6	93	85	94
56	1	8	9	10
57	4	58	59	60
58	6	70	69	71
59	4	76	77	79
60	4	85	86	87
61	4	75	76	82
62	4	97	98	100
63	4	68	69	70
64	1	54	53	97
65	1	58	95	97
66	1	50	102	103
67	1	43	45	46
68	3	3	5	6
69	4	8	33	41
70	2	14	15	50
71	1	12	14	15
72	1	7	43	45
73	1	14	16	21
74	3	54	56	57
75	4	58	59	75
76	6	47	46	48
77	1	53	54	56
78	4	24	25	26
79	1	9	21	16
80	4	76	77	80
81	4	45	46	47
82	1	1	2	45
83	3	55	54	56
84	4	25	24	29
85	3	60	73	74
86	6	31	23	32
87	4	86	85	93
88	1	14	16	17
89	4	59	75	84
90	4	77	76	81
91	1	59	60	61
92	4	8	33	42
93	1	56	58	59
94	1	12	14	16
95	4	86	87	89
96	2	2	1	52
97	1	65	68	73
98	4	33	34	39
99	4	16	17	18
100	6	18	17	19
101	3	6	5	7
102	4	24	25	27
103	3	64	63	65
104	4	85	86	91
105	4	7	8	23
106	1	53	97	95
107	6	26	25	27
108	6	78	77	79
109	4	23	8	33
110	1	5	7	8
111	4	86	85	94
112	4	9	8	23
113	4	76	75	83
114	1	65	68	69
115	4	77	76	82
116	4	33	34	35
117	4	23	24	30
118	4	59	75	76
119	4	8	33	34
120	4	34	35	36
121	4	86	87	90
122	3	61	63	64
123	3	13	12	14
124	4	16	17	19
125	1	61	60	73
126	3	96	95	97
127	3	10	12	13
128	6	99	98	100
129	4	85	86	92
130	6	100	98	101
131	6	78	77	80
132	1	66	65	68
133	6	83	75	84
134	4	60	59	85
135	1	63	65	66
136	6	70	69	72
137	4	34	35	37
138	1	15	14	16
139	4	34	33	41
140	4	97	98	101
141	4	68	69	71
142	6	36	35	37
143	3	57	56	58
144	1	50	102	104
145	1	61	63	65
146	1	3	5	7
147	1	59	60	73
148	4	59	85	93
149	6	88	87	89
150	6	99	98	101
151	1	10	12	14
152	4	8	23	31
153	3	4	3	5
154	4	35	34	39
155	6	41	33	42
156	1	1	2	3
157	3	2	3	4
158	4	58	59	85
159	1	60	73	68
160	1	54	56	58
161	6	47	46	49
162	1	2	45	46
163	6	37	35	38
164	4	45	46	48
165	6	89	87	90
166	4	34	33	42
167	4	68	69	72
168	4	25	24	30
169	4	24	23	31
170	6	88	87	90
171	4	87	86	91
172	3	9	21	22
173	1	3	2	45
174	3	60	61	62
175	2	65	66	67
176	6	79	77	80
177	3	44	43	45
178	4	33	34	40
179	4	7	8	9
180	4	7	8	33
181	6	18	17	20
182	4	24	25	28
183	3	68	73	74
184	1	15	50	102
185	4	45	46	49
186	6	26	25	28
187	1	56	58	95
188	4	24	23	32
189	3	11	10	12
190	4	76	75	84

Dihedrals

1	1	7	43	45	46
2	4	23	8	7	43
3	5	60	59	75	76
4	1	1	2	3	4
5	4	56	58	59	75
6	1	58	95	97	98
7	1	1	2	45	46
8	9	59	85	86	91
9	4	95	97	98	99
10	4	43	45	46	47
11	5	58	59	75	76
12	4	21	9	8	23
13	1	11	10	12	14
14	12	38	35	34	39
15	9	59	75	76	82
16	13	67	66	65	68
17	9	23	24	25	26
18	9	32	23	8	33
19	5	7	8	33	41
20	9	75	76	77	80
21	12	89	87	86	92
22	9	75	59	85	93
23	1	60	61	63	64
24	6	59	85	86	87
24	7	59	85	86	87
24	8	59	85	86	87
25	1	12	14	16	17
26	1	8	7	43	44
27	12	81	76	75	83
28	4	10	9	8	33
29	5	9	8	23	32
30	1	59	58	95	97
31	1	8	9	21	22
32	1	13	12	14	15
33	1	5	3	2	45
34	1	52	53	54	55
35	9	59	85	86	92
36	4	65	68	69	70
37	4	43	45	46	48
38	5	60	59	75	84
39	1	6	5	7	43
40	4	53	97	98	99
41	1	54	56	58	95
42	6	24	23	8	33
42	7	24	23	8	33
42	8	24	23	8	33
43	1	44	43	45	46
44	5	7	8	33	42
45	9	8	33	34	40
46	1	12	10	9	21
47	1	11	10	9	21
48	1	59	60	73	74
49	1	63	61	60	73
50	9	85	86	87	89
51	12	92	86	85	93
52	9	75	59	85	94
53	12	90	87	86	91
54	1	52	53	97	98
55	2	1	52	53	97
56	1	60	61	63	65
57	9	87	86	85	93
58	4	61	60	59	85
59	1	8	7	43	45
60	1	61	63	65	66
61	12	81	76	75	84
62	9	84	75	59	85
63	1	4	3	5	7
64	1	64	63	65	68
65	9	8	23	24	29
66	12	28	25	24	29
67	12	80	77	76	81
68	5	58	59	85	93
69	4	5	7	8	9
70	5	9	8	23	24
71	12	26	25	24	30
72	4	5	7	8	33
73	11	51	50	102	103
74	1	52	53	54	56
75	4	2	45	46	48
76	1	8	9	10	11
77	4	14	16	17	18
78	4	58	59	60	73
79	4	19	17	16	21
80	4	53	97	98	100
81	1	62	61	63	65
82	6	8	23	24	25
82	7	8	23	24	25
82	8	8	23	24	25
83	9	33	34	35	38
84	9	85	86	87	90
85	2	12	14	15	50
86	5	7	8	33	34
87	12	91	86	85	94
88	3	2	1	52	53
89	1	12	14	16	21
90	6	75	59	85	86
90	7	75	59	85	86
90	8	75	59	85	86
91	1	10	12	14	15
92	11	15	50	102	103
93	2	3	2	1	52
94	12	28	25	24	30
95	1	3	5	7	43
96	5	58	59	85	94
97	12	88	87	86	92
98	11	51	50	102	104
99	1	96	95	97	98
100	9	25	24	23	32
101	12	39	34	33	41
102	4	71	69	68	73
103	4	2	45	46	49
104	1	8	9	10	12
105	1	10	9	21	16
106	1	52	53	97	95
107	4	73	60	59	85
108	9	83	75	59	85
109	1	2	45	43	44
110	1	17	16	21	22
111	5	9	8	33	41
112	1	5	7	43	44
113	1	1	2	3	5
114	1	53	97	95	96
115	4	56	58	59	85
116	12	79	77	76	81
117	4	21	9	8	33
118	4	85	59	58	95
119	2	16	14	15	50
120	4	95	97	98	100
121	5	60	59	85	93
122	12	78	77	76	81
123	1	9	21	16	17
124	12	38	35	34	40
125	1	2	3	5	6
126	1	10	12	14	16
127	11	15	50	102	104
128	9	23	24	25	27
129	1	6	5	7	8
130	4	70	69	68	73
131	12	82	76	75	83
132	5	58	59	85	86
133	4	33	8	7	43
134	1	1	2	45	43
135	1	62	61	60	73
136	2	45	2	1	52
137	13	63	65	66	67
138	4	10	9	8	23
139	1	59	60	73	68
140	12	79	77	76	82
141	1	13	12	14	16
142	1	54	53	97	98
143	4	65	68	69	71
144	4	95	97	98	101
145	4	43	45	46	49
146	1	55	54	56	57
147	5	60	59	85	94
148	2	14	15	50	51
149	1	2	3	5	7
150	9	77	76	75	83
151	9	23	24	25	28
152	4	18	17	16	21
153	12	92	86	85	94
154	12	90	87	86	92
155	9	87	86	85	94
156	1	61	60	73	68
157	12	30	24	23	31
158	1	59	60	61	62
159	1	14	16	21	22
160	9	8	23	24	30
161	12	80	77	76	82
162	5	9	8	33	34
163	4	20	17	16	21
164	1	63	65	68	73
165	6	76	75	59	85
165	7	76	75	59	85
165	8	76	75	59	85
166	1	3	5	7	8
167	4	72	69	68	73
168	9	75	76	77	78
169	10	14	15	50	102
170	4	14	16	17	19
171	1	53	54	56	57
172	1	66	65	68	73
173	1	4	3	2	45
174	12	36	35	34	39
175	4	53	97	98	101
176	9	77	76	75	84
177	12	88	87	86	91
178	5	60	59	85	86
179	1	9	10	12	13
180	12	29	24	23	31
181	1	60	73	68	69
182	1	69	68	73	74
183	1	15	14	16	21
184	1	63	65	68	69
185	5	7	8	23	31
186	1	54	53	97	95
187	12	30	24	23	32
188	1	66	65	68	69
189	1	57	56	58	59
190	4	9	8	7	43
191	9	23	8	33	41
192	9	31	23	8	33
193	1	60	73	68	65
194	12	39	34	33	42
195	1	15	14	16	17
196	1	8	9	21	16
197	12	37	35	34	39
198	12	89	87	86	91
199	12	40	34	33	41
200	9	35	34	33	41
201	12	36	35	34	40
202	1	55	54	53	97
203	4	73	60	59	75
204	4	7	8	9	10
205	5	9	8	33	42
206	12	29	24	23	32
207	1	5	7	43	45
208	5	9	8	23	31
209	1	53	97	95	58
210	1	59	58	95	96
211	6	59	75	76	77
211	7	59	75	76	77
211	8	59	75	76	77
212	1	64	63	65	66
213	1	65	68	73	74
214	1	10	9	21	22
215	5	7	8	23	32
216	12	78	77	76	82
217	5	60	59	75	83
218	9	23	8	33	42
219	12	82	76	75	84
220	9	8	33	34	39
221	9	33	34	35	36
222	9	85	86	87	88
223	5	58	59	75	83
224	12	37	35	34	40
225	1	3	2	45	46
226	12	40	34	33	42
227	9	35	34	33	42
228	4	75	59	58	95
229	1	9	21	16	14
230	1	4	3	5	6
231	12	27	25	24	29
232	4	61	60	59	75
233	1	57	56	58	95
234	1	56	58	95	96
235	12	26	25	24	29
236	6	8	33	34	35
236	7	8	33	34	35
236	8	8	33	34	35
237	4	65	68	69	72
238	1	55	54	56	58
239	4	2	45	46	47
240	5	7	8	23	24
241	4	5	7	8	23
242	1	2	45	43	7
243	1	62	61	63	64
244	6	23	8	33	34
244	7	23	8	33	34
244	8	23	8	33	34
245	9	33	34	35	37
246	5	58	59	75	84
247	4	7	8	9	21
248	12	91	86	85	93
249	4	56	58	59	60
250	1	59	60	61	63
251	1	61	63	65	68
252	4	60	59	58	95
253	1	11	10	12	13
254	9	59	75	76	81
255	12	27	25	24	30
256	1	56	54	53	97
257	1	56	58	95	97
258	9	75	76	77	79
259	9	25	24	23	31
260	1	61	60	73	74
261	2	1	52	53	54
262	1	3	2	45	43
263	4	14	16	17	20
264	1	53	54	56	58
265	4	58	59	60	61
266	1	54	56	58	59
267	1	9	10	12	14

Impropers

3	1	60	73	59	61
17	1	95	96	97	58
22	1	16	14	17	21
35	1	102	50	103	104
37	1	63	65	61	64
45	1	16	17	21	14
48	1	68	73	65	69
68	1	9	10	21	8
75	1	95	58	96	97
80	1	43	7	44	45
85	1	61	60	62	63
95	1	54	55	56	53
99	1	2	1	3	45
102	1	16	21	14	17
105	1	12	13	14	10
109	1	58	59	95	56
118	1	53	54	97	52
127	1	54	53	55	56
141	1	97	53	95	98
142	1	65	63	66	68
157	1	73	60	68	74
158	1	5	6	7	3
164	1	58	56	59	95
166	1	7	8	43	5
173	1	21	16	22	9
188	1	56	54	57	58
217	1	56	57	58	54
219	1	9	21	8	10
226	1	3	2	4	5
245	1	2	3	45	1
253	1	7	43	5	8
254	1	3	5	2	4
257	1	73	68	74	60
270	1	53	52	54	97
276	2	50	15	51	102
284	1	5	3	6	7
291	1	14	16	12	15
295	2	50	102	15	51
298	1	63	61	64	65
301	1	60	61	73	59
318	1	53	97	52	54
321	1	102	104	50	103
332	1	65	68	63	66
341	1	43	44	45	7
346	1	60	59	61	73
364	1	68	69	73	65
365	1	45	46	2	43
366	1	14	15	16	12
372	1	3	4	5	2
383	1	45	43	46	2
391	1	95	97	58	96
392	1	9	8	10	21
395	1	73	74	60	68
406	1	21	9	16	22
416	1	2	45	1	3
418	2	50	51	102	15
422	1	61	62	63	60
424	1	10	12	9	11
426	1	45	2	43	46
433	1	10	11	12	9
439	1	68	65	69	73
447	1	65	66	68	63
460	1	102	103	104	50
462	1	54	56	53	55
466	1	43	45	7	44
474	1	56	58	54	57
475	1	97	95	98	53
478	1	63	64	65	61
482	1	10	9	11	12
488	1	12	14	10	13
514	1	61	63	60	62
532	1	5	7	3	6
545	1	12	10	13	14
547	1	21	22	9	16
553	1	14	12	15	16
565	1	97	98	53	95
566	1	7	5	8	43
567	1	58	95	56	59
