Title

104 atoms
107 bonds
190 angles
283 dihedrals
78 impropers

9 atom types
13 bond types
6 angle types
13 dihedral types
2 improper types
-6.18900013 93.81099987 xlo xhi
-6.965000153 93.03499985 ylo yhi
-3.849999905 96.1500001 zlo zhi
0.0 0.0 0.0 xy xz yz

Masses

1	15.99943
2	12.01078
3	1.007947
4	12.01078
5	1.007947
6	15.99943
7	15.99943
8	1.007947
9	35.4532


Pair Coeffs

1	0.16846514	3.0251065
2	0.086879315	3.4806469
3	0.015611343	2.5725815
4	0.10884061	3.3795318
5	0.015779483	2.6445434
6	0.2102061	3.0398122
7	0.20947353	2.99716
8	1.2326e-05	0.53453923
9	0.2656001	3.3075278

Bond Coeffs

1 harmonic	425.69104206635	1.362945806494
2 harmonic	300.03137914615	1.451203938761
3 harmonic	360.7852444772	1.387193227181
4 harmonic	397.2545789619	1.085358495916
5 harmonic	289.73813263395	1.498646816465
6 harmonic	264.62148576755	1.52190126495
7 harmonic	301.15400723785	1.345741232799
8 harmonic	370.04670688625	1.093899492634
9 harmonic	582.698766451	1.225198386222
10 harmonic	279.1350963404	1.454628925034
11 harmonic	385.7604595587	1.369745182308
12 harmonic	543.5267831885	0.9716763312559
13 harmonic	218.0227703685	1.746066037062


Angle Coeffs

1 harmonic	57.8982893754	126.8062420451
2 harmonic	65.09061609600001	110.3538806181
3 harmonic	34.066775159195	129.1835929926
4 harmonic	53.20531626545	116.5475862634
5 harmonic	201.41175231035	127.4691416191
6 harmonic	48.776492647595	115.6030999533


Dihedral Coeffs

1 fourier 1	3.661930099076	2	180
2 fourier 1	1.532232714475	2	180
3 fourier 1	0.457973137376	1	0
4 fourier 1	0.02664938770063	3	0
5 fourier 1	0.1155372516788	3	0
6 fourier 1	0.09223874044423	3	0
7 fourier 1	0.3159935921949	2	180
8 fourier 1	0.3247796806857	1	180
9 fourier 1	0.1040663847541	3	0
10 fourier 1	2.779853741805	2	180
11 fourier 1	0.9974165607242	2	180
12 fourier 1	0.1911926717192	3	0
13 fourier 1	0.8283030590042	2	180


Improper Coeffs

1 0.3666666666666667	-1	2
2 3.5	-1	2


Atoms

1	1	1	-0.0090800002	5.1950002	-0.426	-1.6339999
2	1	2	0.084596999	3.8829999	-0.221	-1.207
3	1	2	-0.256322	3.3150001	0.97000003	-1.4220001
4	1	3	0.224848	3.8710001	1.752	-1.925
5	1	2	-0.159743	1.932	1.237	-0.98699999
6	1	3	0.21073399	1.524	2.201	-1.2410001
7	1	2	-0.219403	1.219	0.29800001	-0.32600001
8	1	4	0.026395001	-0.25099999	0.491	0.126
9	1	2	-0.219402	-1.143	-0.46799999	-0.70300001
10	1	2	-0.161035	-0.88599998	-0.70099998	-2.0109999
11	1	3	0.21073399	-0.034000002	-0.25600001	-2.506
12	1	2	-0.224378	-1.762	-1.568	-2.819
13	1	3	0.225087	-1.5	-1.7690001	-3.8499999
14	1	2	0.305852	-2.8670001	-2.102	-2.2920001
15	1	1	-0.418028	-3.6630001	-2.9230001	-3.092
16	1	2	-0.097398996	-3.2260001	-1.802	-0.87900001
17	1	4	-0.133258	-4.4959998	-2.349	-0.285
18	1	5	0.095959	-4.4679999	-3.4590001	-0.30599999
19	1	5	0.095959	-5.3660002	-1.992	-0.875
20	1	5	0.095959	-4.638	-2.0280001	0.76899999
21	1	2	-0.27355	-2.415	-1.021	-0.141
22	1	3	0.21121	-2.7049999	-0.778	0.87099999
23	1	4	-0.12972	-0.37200001	0.14	1.66
24	1	4	-0.12946799	0.81900001	0.54900002	2.5599999
25	1	4	-0.121697	0.447	0.46399999	4.0370002
26	1	5	0.068448	-0.37	1.181	4.27
27	1	5	0.068448	0.117	-0.565	4.2940001
28	1	5	0.068448	1.33	0.72100002	4.6599998
29	1	5	0.090302996	1.169	1.575	2.345
30	1	5	0.090302996	1.677	-0.13500001	2.3870001
31	1	5	0.105662	-1.3	0.59799999	2.0669999
32	1	5	0.105662	-0.486	-0.95999998	1.7819999
33	1	4	-0.12972	-0.84299999	1.92	-0.15099999
34	1	4	-0.12946799	-0.30000001	3.076	0.71100003
35	1	4	-0.121697	-0.81599998	4.4219999	0.20900001
36	1	5	0.068448	-0.46399999	4.6069999	-0.829
37	1	5	0.068448	-1.926	4.4419999	0.229
38	1	5	0.068448	-0.43399999	5.2350001	0.86199999
39	1	5	0.090302996	0.80800003	3.105	0.699
40	1	5	0.090302996	-0.639	2.9519999	1.761
41	1	5	0.105662	-1.943	1.888	0.021
42	1	5	0.105662	-0.722	2.1670001	-1.229
43	1	2	-0.276759	1.848	-1.041	-0.126
44	1	3	0.21121	1.27	-1.822	0.352
45	1	2	-0.085447997	3.1059999	-1.294	-0.52899998
46	1	4	-0.13639	3.714	-2.651	-0.30599999
47	1	5	0.095959	4.618	-2.553	0.331
48	1	5	0.095959	3.01	-3.346	0.2
49	1	5	0.095959	3.997	-3.0969999	-1.2819999
50	1	2	0.62805098	-4.5419998	-3.372	-2.74
51	1	6	-0.49624801	-5.2909999	-2.7520001	-2.003
52	1	1	-0.0090800002	5.6799998	-1.304	-1.501
53	1	2	0.084596999	6.5890002	-1.5089999	-0.46200001
54	1	2	-0.256322	7.1869998	-2.701	-0.35699999
55	1	3	0.224848	6.967	-3.483	-1.073
56	1	2	-0.159743	8.1529999	-2.967	0.72500002
57	1	3	0.21073399	8.6330004	-3.9319999	0.71600002
58	1	2	-0.219403	8.427	-2.0280001	1.658
59	1	4	0.026395001	9.4580002	-2.2219999	2.799
60	1	2	-0.219402	10.649	-1.263	2.543
61	1	2	-0.118658	11.098	-1.03	1.288
62	1	3	0.21073399	10.618	-1.474	0.426
63	1	2	-0.387757	12.263	-0.162	1.0420001
64	1	3	0.23007201	12.567	0.037999999	0.022
65	1	2	0.28292701	12.943	0.37099999	2.0599999
66	1	7	-0.63819999	14.036	1.192	1.781
67	1	8	0.43595099	14.592	1.626	2.507
68	1	2	-0.26869401	12.529	0.071999997	3.4579999
69	1	4	-0.11923	13.316	0.61900002	4.618
70	1	5	0.095959	13.302	1.728	4.586
71	1	5	0.095959	14.365	0.26199999	4.5570002
72	1	5	0.095959	12.898	0.29800001	5.5960002
73	1	2	-0.23591	11.454	-0.70999998	3.6760001
74	1	3	0.21121	11.186	-0.95300001	4.6950002
75	1	4	-0.12972	8.7770004	-1.8710001	4.178
76	1	4	-0.12946799	7.2930002	-2.279	4.342
77	1	4	-0.121697	6.8569999	-2.1949999	5.802
78	1	5	0.068448	7.4400001	-2.911	6.4200001
79	1	5	0.068448	7.0089998	-1.165	6.191
80	1	5	0.068448	5.7800002	-2.451	5.8850002
81	1	5	0.090302996	7.1030002	-3.3050001	3.9790001
82	1	5	0.090302996	6.645	-1.596	3.7550001
83	1	5	0.105662	9.3660002	-2.329	5.0029998
84	1	5	0.105662	8.8120003	-0.77100003	4.342
85	1	4	-0.12972	10.108	-3.651	2.8640001
86	1	4	-0.12946799	9.2010002	-4.8070002	3.326
87	1	4	-0.121697	9.901	-6.152	3.1589999
88	1	5	0.068448	10.13	-6.3369999	2.0880001
89	1	5	0.068448	10.845	-6.1729999	3.7449999
90	1	5	0.068448	9.2390003	-6.9650002	3.5239999
91	1	5	0.090302996	8.2559996	-4.836	2.7490001
92	1	5	0.090302996	8.9549999	-4.6830001	4.402
93	1	5	0.105662	10.965	-3.618	3.575
94	1	5	0.105662	10.557	-3.8970001	1.876
95	1	2	-0.276759	7.7839999	-0.69	1.508
96	1	3	0.21121	8.0360003	0.092	2.2149999
97	1	2	-0.085447997	6.9099998	-0.43599999	0.51800001
98	1	4	-0.13639	6.2729998	0.921	0.39899999
99	1	5	0.095959	5.1700001	0.82300001	0.48300001
100	1	5	0.095959	6.619	1.6160001	1.194
101	1	5	0.095959	6.5289998	1.367	-0.58499998
102	1	2	0.46756101	-4.7870002	-4.3870001	-3.0309999
103	1	6	-0.57171899	-4.085	-4.9759998	-3.836
104	1	9	-0.082859002	-6.1890001	-5.184	-2.342

Bonds

1	1	1	2
2	2	1	52
3	3	2	3
4	3	2	45
5	4	3	4
6	3	3	5
7	4	5	6
8	3	5	7
9	5	7	8
10	3	7	43
11	5	8	9
12	6	8	23
13	6	8	33
14	3	9	10
15	3	9	21
16	4	10	11
17	3	10	12
18	4	12	13
19	3	12	14
20	1	14	15
21	3	14	16
22	7	15	50
23	5	16	17
24	3	16	21
25	8	17	18
26	8	17	19
27	8	17	20
28	4	21	22
29	6	23	24
30	8	23	31
31	8	23	32
32	6	24	25
33	8	24	29
34	8	24	30
35	8	25	26
36	8	25	27
37	8	25	28
38	6	33	34
39	8	33	41
40	8	33	42
41	6	34	35
42	8	34	39
43	8	34	40
44	8	35	36
45	8	35	37
46	8	35	38
47	4	43	44
48	3	43	45
49	5	45	46
50	8	46	47
51	8	46	48
52	8	46	49
53	9	50	51
54	10	50	102
55	1	52	53
56	3	53	54
57	3	53	97
58	4	54	55
59	3	54	56
60	4	56	57
61	3	56	58
62	5	58	59
63	3	58	95
64	5	59	60
65	6	59	75
66	6	59	85
67	3	60	61
68	3	60	73
69	4	61	62
70	3	61	63
71	4	63	64
72	3	63	65
73	11	65	66
74	3	65	68
75	12	66	67
76	5	68	69
77	3	68	73
78	8	69	70
79	8	69	71
80	8	69	72
81	4	73	74
82	6	75	76
83	8	75	83
84	8	75	84
85	6	76	77
86	8	76	81
87	8	76	82
88	8	77	78
89	8	77	79
90	8	77	80
91	6	85	86
92	8	85	93
93	8	85	94
94	6	86	87
95	8	86	91
96	8	86	92
97	8	87	88
98	8	87	89
99	8	87	90
100	4	95	96
101	3	95	97
102	5	97	98
103	8	98	99
104	8	98	100
105	8	98	101
106	9	102	103
107	13	102	104

Angles

1	6	48	46	49
2	4	8	33	41
3	4	59	85	93
4	1	95	97	98
5	1	52	53	54
6	3	68	73	74
7	1	10	12	14
8	4	77	76	81
9	4	86	87	88
10	1	59	60	61
11	3	2	3	4
12	1	53	54	56
13	4	24	25	26
14	1	54	56	58
15	3	4	3	5
16	6	81	76	82
17	1	2	45	46
18	2	2	1	52
19	6	18	17	20
20	1	17	16	21
21	1	60	61	63
22	6	93	85	94
23	4	45	46	48
24	4	9	8	33
25	4	58	59	85
26	1	63	65	68
27	1	61	60	73
28	1	69	68	73
29	3	44	43	45
30	6	78	77	79
31	1	54	53	97
32	4	86	87	89
33	4	77	76	82
34	6	39	34	40
35	4	23	24	29
36	4	97	98	99
37	1	10	9	21
38	6	19	17	20
39	4	45	46	49
40	1	5	7	43
41	4	7	8	23
42	2	65	66	67
43	4	68	69	70
44	4	9	8	23
45	4	34	33	42
46	1	43	45	46
47	6	36	35	37
48	3	55	54	56
49	4	59	85	86
50	1	2	45	43
51	4	25	24	29
52	4	23	8	33
53	4	34	35	36
54	4	75	76	82
55	6	78	77	80
56	6	91	86	92
57	1	12	14	15
58	4	60	59	85
59	4	97	98	100
60	4	23	24	30
61	3	3	5	6
62	1	1	2	3
63	3	61	63	64
64	1	53	97	98
65	1	65	68	73
66	3	62	61	63
67	1	7	43	45
68	6	47	46	48
69	6	26	25	27
70	6	41	33	42
71	4	76	77	80
72	3	9	10	11
73	4	87	86	91
74	1	65	68	69
75	1	3	5	7
76	4	8	23	31
77	4	16	17	18
78	1	60	73	68
79	4	59	85	94
80	4	8	33	42
81	3	64	63	65
82	1	56	58	59
83	5	15	50	51
84	1	2	3	5
85	4	33	34	39
86	6	47	46	49
87	4	24	25	27
88	1	66	65	68
89	4	75	59	85
90	6	88	87	89
91	4	24	23	31
92	4	87	86	92
93	6	89	87	90
94	1	5	7	8
95	4	76	75	83
96	4	16	17	19
97	4	33	34	35
98	3	13	12	14
99	6	71	69	72
100	1	3	2	45
101	4	8	33	34
102	4	86	87	90
103	1	103	102	104
104	1	15	50	102
105	4	85	86	87
106	2	1	52	53
107	3	9	21	22
108	6	88	87	90
109	6	99	98	100
110	6	100	98	101
111	1	15	14	16
112	4	68	69	71
113	3	58	95	96
114	4	76	75	84
115	6	36	35	38
116	4	35	34	39
117	4	8	23	24
118	4	34	35	37
119	4	25	24	30
120	6	27	25	28
121	4	59	75	83
122	1	12	14	16
123	1	63	65	66
124	4	97	98	101
125	4	60	59	75
126	1	50	102	103
127	4	58	59	60
128	6	99	98	101
129	4	86	85	93
130	1	61	63	65
131	4	68	69	72
132	3	10	12	13
133	1	58	95	97
134	4	35	34	40
135	6	26	25	28
136	3	54	56	57
137	1	9	10	12
138	4	34	35	38
139	6	18	17	19
140	3	60	61	62
141	4	45	46	47
142	4	85	86	91
143	3	11	10	12
144	1	53	97	95
145	4	58	59	75
146	4	8	23	32
147	4	86	85	94
148	1	59	58	95
149	3	6	5	7
150	4	33	34	40
151	3	60	73	74
152	6	70	69	71
153	4	24	25	28
154	4	7	8	9
155	4	7	8	33
156	4	24	23	32
157	1	56	58	95
158	4	59	75	76
159	6	79	77	80
160	4	85	86	92
161	2	14	15	50
162	4	16	17	20
163	4	34	33	41
164	6	29	24	30
165	1	9	21	16
166	4	76	77	78
167	1	59	60	73
168	1	8	9	21
169	1	14	16	21
170	4	75	76	81
171	1	8	7	43
172	6	70	69	72
173	6	37	35	38
174	3	57	56	58
175	6	83	75	84
176	3	96	95	97
177	6	31	23	32
178	1	51	50	102
179	1	14	16	17
180	4	75	76	77
181	1	1	2	45
182	1	8	9	10
183	4	23	24	25
184	3	7	43	44
185	3	53	54	55
186	4	76	77	79
187	4	59	75	84
188	1	52	53	97
189	3	16	21	22
190	1	50	102	104

Dihedrals

1	1	10	9	21	22
2	9	77	76	75	84
3	9	23	8	33	42
4	4	95	97	98	100
5	1	14	16	21	22
6	12	26	25	24	30
7	1	52	53	54	56
8	4	65	68	69	70
9	4	60	59	58	95
10	1	6	5	7	43
11	2	14	15	50	51
12	12	30	24	23	31
13	9	8	23	24	29
14	4	33	8	7	43
15	1	6	5	7	8
16	1	66	65	68	73
17	5	7	8	33	34
18	4	73	60	59	85
19	9	75	59	85	93
20	12	81	76	75	84
21	5	58	59	75	83
22	1	59	60	73	74
23	12	80	77	76	81
24	4	61	60	59	85
25	9	87	86	85	93
26	9	84	75	59	85
27	12	39	34	33	42
28	4	75	59	58	95
29	12	37	35	34	40
30	1	61	63	65	68
31	9	31	23	8	33
32	1	9	10	12	14
33	1	64	63	65	68
34	12	29	24	23	32
35	6	8	23	24	25
35	7	8	23	24	25
35	8	8	23	24	25
36	5	9	8	23	31
37	9	59	85	86	92
38	6	23	8	33	34
38	7	23	8	33	34
38	8	23	8	33	34
39	1	66	65	68	69
40	4	95	97	98	101
41	1	1	2	3	4
42	1	52	53	97	95
43	4	20	17	16	21
44	1	2	3	5	6
45	1	62	61	63	64
46	10	14	15	50	102
47	1	1	2	45	46
48	1	54	56	58	95
49	5	60	59	75	83
50	1	96	95	97	98
51	12	30	24	23	32
52	5	7	8	23	24
53	9	75	59	85	94
54	12	80	77	76	82
55	1	69	68	73	74
56	4	70	69	68	73
57	5	9	8	33	34
58	6	76	75	59	85
58	7	76	75	59	85
58	8	76	75	59	85
59	9	35	34	33	42
60	1	15	14	16	21
61	9	87	86	85	94
62	2	16	14	15	50
63	1	3	2	45	46
64	4	43	45	46	48
65	9	75	76	77	78
66	4	10	9	8	23
67	4	5	7	8	23
68	6	24	23	8	33
68	7	24	23	8	33
68	8	24	23	8	33
69	1	55	54	53	97
70	1	8	9	21	22
71	12	27	25	24	29
72	1	62	61	63	65
73	1	11	10	9	21
74	11	15	50	102	103
75	5	60	59	75	84
76	1	15	14	16	17
77	2	45	2	1	52
78	1	53	54	56	57
79	1	63	61	60	73
80	1	54	53	97	98
81	9	23	24	25	28
82	1	55	54	56	57
83	1	58	95	97	98
84	6	75	59	85	86
84	7	75	59	85	86
84	8	75	59	85	86
85	2	1	52	53	97
86	5	58	59	75	76
87	5	7	8	23	32
88	1	1	2	45	43
89	4	43	45	46	49
90	12	89	87	86	91
91	12	28	25	24	30
92	4	18	17	16	21
93	4	21	9	8	23
94	4	2	45	46	49
95	5	9	8	23	24
96	5	9	8	33	42
97	9	85	86	87	88
98	1	5	7	43	45
99	12	27	25	24	30
100	2	1	52	53	54
101	12	88	87	86	92
102	1	60	73	68	65
103	1	4	3	5	6
104	1	8	9	10	11
105	1	53	54	56	58
106	5	60	59	75	76
107	1	10	12	14	15
108	1	2	45	43	7
109	4	14	16	17	18
110	1	61	60	73	74
111	1	55	54	56	58
112	4	65	68	69	71
113	3	2	1	52	53
114	9	8	33	34	39
115	9	33	34	35	36
116	12	40	34	33	41
117	9	8	23	24	30
118	4	53	97	98	99
119	4	7	8	9	21
120	1	54	53	97	95
121	5	58	59	75	84
122	9	85	86	87	89
123	12	88	87	86	91
124	12	91	86	85	93
125	1	56	58	95	96
126	6	8	33	34	35
126	7	8	33	34	35
126	8	8	33	34	35
127	1	8	9	10	12
128	1	4	3	5	7
129	5	9	8	23	32
130	1	10	12	14	16
131	12	79	77	76	81
132	9	32	23	8	33
133	5	58	59	85	93
134	4	14	16	17	19
135	1	1	2	3	5
136	4	65	68	69	72
137	1	13	12	14	15
138	4	23	8	7	43
139	1	59	60	61	62
140	1	2	3	5	7
141	1	12	10	9	21
142	4	72	69	68	73
143	4	7	8	9	10
144	1	12	14	16	21
145	9	33	34	35	37
146	4	58	59	60	61
147	12	36	35	34	39
148	5	60	59	85	93
149	9	25	24	23	31
150	1	5	3	2	45
151	4	56	58	59	60
152	2	12	14	15	50
153	12	82	76	75	83
154	12	92	86	85	93
155	4	9	8	7	43
156	1	56	54	53	97
157	1	8	9	21	16
158	12	91	86	85	94
159	1	56	58	95	97
160	1	60	73	68	69
161	1	12	14	16	17
162	1	10	9	21	16
163	9	75	76	77	79
164	9	59	75	76	81
165	12	90	87	86	91
166	1	2	45	43	44
167	1	4	3	2	45
168	4	58	59	60	73
169	13	67	66	65	68
170	11	51	50	102	103
171	11	15	50	102	104
172	4	19	17	16	21
173	12	36	35	34	40
174	1	53	97	95	96
175	4	56	58	59	75
176	9	25	24	23	32
177	1	3	2	45	43
178	1	61	63	65	66
179	1	64	63	65	66
180	6	59	75	76	77
180	7	59	75	76	77
180	8	59	75	76	77
181	9	77	76	75	83
182	4	95	97	98	99
183	12	26	25	24	29
184	1	52	53	54	55
185	1	65	68	73	74
186	12	82	76	75	84
187	12	92	86	85	94
188	1	57	56	58	59
189	1	59	60	73	68
190	9	75	76	77	80
191	4	85	59	58	95
192	12	89	87	86	92
193	1	63	65	68	69
194	12	81	76	75	83
195	1	8	7	43	44
196	1	52	53	97	98
197	5	58	59	85	86
198	1	3	5	7	43
199	12	38	35	34	39
200	4	73	60	59	75
201	11	51	50	102	104
202	1	54	56	58	59
203	1	53	97	95	58
204	1	9	21	16	17
205	12	39	34	33	41
206	12	37	35	34	39
207	5	60	59	85	86
208	4	61	60	59	75
209	1	9	10	12	13
210	12	29	24	23	31
211	9	59	85	86	91
212	9	83	75	59	85
213	9	8	33	34	40
214	12	78	77	76	81
215	1	7	43	45	46
216	1	11	10	12	13
217	13	63	65	66	67
218	12	40	34	33	42
219	4	53	97	98	100
220	1	8	7	43	45
221	1	44	43	45	46
222	6	59	85	86	87
222	7	59	85	86	87
222	8	59	85	86	87
223	9	85	86	87	90
224	12	38	35	34	40
225	9	23	24	25	26
226	4	10	9	8	33
227	4	5	7	8	9
228	9	35	34	33	41
229	1	57	56	58	95
230	4	5	7	8	33
231	4	43	45	46	47
232	1	60	61	63	64
233	5	7	8	33	41
234	12	79	77	76	82
235	5	58	59	85	94
236	4	14	16	17	20
237	4	2	45	46	47
238	1	59	58	95	96
239	1	13	12	14	16
240	1	59	60	61	63
241	9	33	34	35	38
242	5	60	59	85	94
243	12	78	77	76	82
244	1	11	10	12	14
245	1	9	21	16	14
246	1	63	65	68	73
247	4	53	97	98	101
248	9	23	8	33	41
249	4	71	69	68	73
250	1	17	16	21	22
251	9	23	24	25	27
252	2	3	2	1	52
253	5	7	8	23	31
254	1	60	61	63	65
255	4	21	9	8	33
256	12	90	87	86	92
257	5	7	8	33	42
258	9	59	75	76	82
259	12	28	25	24	29
260	1	62	61	60	73
261	1	59	58	95	97
262	4	2	45	46	48
263	5	9	8	33	41
264	1	61	60	73	68
265	1	5	7	43	44
266	4	56	58	59	85
267	1	3	5	7	8

Impropers

6	1	10	11	12	9
13	1	65	68	63	66
19	1	97	53	95	98
26	1	102	50	103	104
29	1	10	12	9	11
31	2	50	51	102	15
39	1	10	9	11	12
50	1	12	13	14	10
69	1	12	14	10	13
72	1	7	5	8	43
73	1	58	95	56	59
95	1	73	60	68	74
131	1	53	97	52	54
134	1	65	63	66	68
140	1	95	58	96	97
141	1	95	97	58	96
142	1	60	73	59	61
147	1	61	60	62	63
148	1	14	12	15	16
152	1	73	74	60	68
155	1	45	2	43	46
165	1	43	44	45	7
170	1	56	54	57	58
193	1	63	64	65	61
197	1	54	55	56	53
199	1	5	7	3	6
200	1	54	53	55	56
207	1	3	2	4	5
218	1	53	54	97	52
232	1	58	56	59	95
234	1	7	8	43	5
248	1	65	66	68	63
250	1	60	61	73	59
257	1	16	17	21	14
259	1	102	103	104	50
264	1	63	61	64	65
266	1	14	16	12	15
287	1	2	3	45	1
294	1	16	14	17	21
317	1	16	21	14	17
326	1	43	7	44	45
327	1	60	59	61	73
345	1	45	43	46	2
347	1	73	68	74	60
351	1	43	45	7	44
353	1	56	58	54	57
365	1	58	59	95	56
366	1	53	52	54	97
372	1	68	73	65	69
380	1	5	6	7	3
381	1	21	16	22	9
395	1	9	8	10	21
401	1	21	9	16	22
403	1	95	96	97	58
418	1	45	46	2	43
423	1	68	69	73	65
427	1	3	5	2	4
430	1	3	4	5	2
449	1	63	65	61	64
450	1	102	104	50	103
474	1	9	21	8	10
485	1	61	63	60	62
493	1	56	57	58	54
500	2	50	102	15	51
508	2	50	15	51	102
523	1	7	43	5	8
526	1	2	45	1	3
539	1	5	3	6	7
545	1	2	1	3	45
548	1	54	56	53	55
562	1	12	10	13	14
565	1	97	95	98	53
569	1	9	10	21	8
570	1	68	65	69	73
583	1	61	62	63	60
584	1	14	15	16	12
585	1	97	98	53	95
587	1	21	22	9	16
