Title

140 atoms
139 bonds
264 angles
480 dihedrals
18 impropers

11 atom types
14 bond types
9 angle types
35 dihedral types
3 improper types
-5.921999931 94.07800007 xlo xhi
-4.197999954 95.80200005 ylo yhi
-5.041999817 94.95800018 zlo zhi
0.0 0.0 0.0 xy xz yz

Masses

1	12.01078
2	15.99943
3	14.00672
4	12.01078
5	1.007947
6	1.007947
7	1.007947
8	15.99943
9	12.01078
10	15.99943
11	1.007947


Pair Coeffs

1	0.086879315	3.4806469
2	0.2102061	3.0398122
3	0.16769152	3.206876
4	0.10884061	3.3795318
5	0.014090815	1.1034277
6	0.016409246	2.5832257
7	0.015779483	2.6445434
8	0.16846514	3.0251065
9	0.21	3.3996695
10	0.20947353	2.99716
11	1.2326e-05	0.53453923

Bond Coeffs

1 harmonic	582.698766451	1.225198386222
2 harmonic	492.76746816345	1.381897776683
3 harmonic	279.1350963404	1.454628925034
4 harmonic	352.0565580496	1.450098586273
5 harmonic	505.144496193	1.019481865027
6 harmonic	264.62148576755	1.52190126495
7 harmonic	370.04670688625	1.093899492634
8 harmonic	301.15400723785	1.345741232799
9 harmonic	366.7408841747	1.425895053732
10 harmonic	300.03137914615	1.451203938761
11 harmonic	366.34047229585	1.464762957261
12 harmonic	602.81384337	1.196112346392
13 harmonic	329.96998057905	1.427343958716
14 harmonic	543.5267831885	0.9716763312559


Angle Coeffs

1 harmonic	55.42182150775	117.3465570514
2 harmonic	63.44422595415	115.5071327674
3 harmonic	57.8982893754	126.8062420451
4 harmonic	53.20531626545	116.5475862634
5 harmonic	65.09061609600001	110.3538806181
6 harmonic	201.41175231035	127.4691416191
7 harmonic	48.776492647595	115.6030999533
8 harmonic	55.07882548015	112.8714009681
9 harmonic	33.56981613361	180


Dihedral Coeffs

1 fourier 1	-0.1488678166443	4	180
2 fourier 1	-0.1230328948768	3	180
3 fourier 1	0.2939295466901	2	0
4 fourier 1	-0.3024127022865	1	0
5 fourier 1	0.182238503271	2	0
6 fourier 1	0.02972342374561	3	0
7 fourier 1	1.809047390003	2	180
8 fourier 1	-0.04816277792592	1	0
9 fourier 1	3.101948770557	2	180
10 fourier 1	-0.4252153282372	1	0
11 fourier 1	2.348375642009	2	180
12 fourier 1	1.256156174911	1	0
13 fourier 1	0.9974165607242	2	180
14 fourier 1	0.1155372516788	3	0
15 fourier 1	0.09223874044423	3	0
16 fourier 1	0.3159935921949	2	180
17 fourier 1	0.3247796806857	1	180
18 fourier 1	0.1040663847541	3	0
19 fourier 1	2.779853741805	2	180
20 fourier 1	0.1918272375143	3	0
21 fourier 1	0.9202179876409	1	180
22 fourier 1	0.0473758381877	3	0
23 fourier 1	0.4860993122944	2	180
24 fourier 1	0.8916986138746	1	0
25 fourier 1	1.163809172478	2	180
26 fourier 1	0.1679186987369	1	180
27 fourier 1	0.1911926717192	3	0
28 fourier 1	0.1115525666802	3	0
29 fourier 1	0.3432490222662	1	0
30 fourier 1	0.457973137376	1	0
31 fourier 1	-1.382973039546	1	0
32 fourier 1	0	1	0
33 fourier 1	0.3445382149273	3	0
34 fourier 1	0.1364556373303	1	0
35 fourier 1	0.3026390167484	3	0


Improper Coeffs

1 0.3333333333333333	-1	2
2 0.3666666666666667	-1	2
3 3.5	-1	2


Atoms

1	1	1	0.54104698	-4.8540001	2.108	-1.138
2	1	2	-0.69891	-5.5139999	2.6600001	-0.21799999
3	1	3	-0.52462798	-4.4949999	0.72399998	-1.057
4	1	4	0.029580001	-4.848	-0.121	0.082999997
5	1	4	-0.146882	-3.99	0.208	1.3150001
6	1	4	-0.142186	-2.4749999	0.1	1.0650001
7	1	4	-0.14179701	-2.026	-1.34	0.759
8	1	4	-0.140554	-0.49700001	-1.493	0.76800001
9	1	4	-0.140554	0.176	-0.75	-0.39899999
10	1	4	-0.14179701	1.661	-1.117	-0.55800003
11	1	4	-0.142186	2.53	-0.56400001	0.58499998
12	1	4	-0.145602	4.0250001	-0.87900001	0.391
13	1	4	0.023713	4.7160001	0.029999999	-0.63800001
14	1	3	-0.46869099	4.8169999	1.409	-0.15899999
15	1	1	0.78385103	5.3839998	2.4430001	-0.96700001
16	1	2	-0.62103999	5.8080001	2.1960001	-2.128
17	1	5	0.32314301	4.4910002	1.664	0.801
18	1	6	0.052866999	5.7399998	-0.36000001	-0.82099998
19	1	6	0.052866999	4.1700001	0.0080000004	-1.604
20	1	7	0.085252002	4.145	-1.9400001	0.079999998
21	1	7	0.085252002	4.546	-0.76899999	1.367
22	1	7	0.084129997	2.2119999	-1.036	1.539
23	1	7	0.084129997	2.375	0.53100002	0.685
24	1	7	0.083368003	1.77	-2.2219999	-0.61799997
25	1	7	0.083368003	2.007	-0.69400001	-1.524
26	1	7	0.083368003	0.082999997	0.34799999	-0.259
27	1	7	0.083368003	-0.34400001	-1.016	-1.345
28	1	7	0.083368003	-0.098999999	-1.127	1.739
29	1	7	0.083368003	-0.26199999	-2.5780001	0.69300002
30	1	7	0.083368003	-2.4449999	-2.0220001	1.5319999
31	1	7	0.083368003	-2.4200001	-1.663	-0.228
32	1	7	0.084129997	-1.954	0.456	1.98
33	1	7	0.084129997	-2.188	0.77600002	0.23199999
34	1	7	0.085252002	-4.2189999	1.242	1.65
35	1	7	0.085252002	-4.277	-0.472	2.1459999
36	1	6	0.049341001	-4.7150002	-1.189	-0.192
37	1	6	0.049341001	-5.9219999	0.017999999	0.331
38	1	5	0.316558	-4.0040002	0.29100001	-1.8710001
39	1	8	-0.49987701	5.4489999	3.4089999	-0.59500003
40	1	4	0.113141	4.7940001	3.4070001	0.64399999
41	1	4	-0.139649	5.6810002	2.7579999	1.71
42	1	4	-0.140689	4.9889998	2.7650001	3.082
43	1	4	-0.141881	5.9000001	2.2420001	4.2030001
44	1	4	-0.140554	6.1609998	0.73000002	4.0960002
45	1	4	-0.140554	6.8649998	0.15800001	5.3390002
46	1	4	-0.14183	8.2510004	0.764	5.6409998
47	1	4	-0.13942	9.2659998	0.676	4.487
48	1	4	-0.145642	9.5749998	-0.773	4.0760002
49	1	4	0.034731999	10.726	-0.847	3.0680001
50	1	8	-0.17254999	10.353	-0.26899999	1.845
51	1	6	0.082685001	11.641	-0.36199999	3.4809999
52	1	6	0.082685001	10.971	-1.915	2.888
53	1	7	0.090190999	8.6759996	-1.242	3.6229999
54	1	7	0.090190999	9.8579998	-1.359	4.9770002
55	1	7	0.085299	10.207	1.161	4.8280001
56	1	7	0.085299	8.901	1.255	3.6129999
57	1	7	0.083368003	8.1309996	1.83	5.9299998
58	1	7	0.083368003	8.6739998	0.24600001	6.5289998
59	1	7	0.083368003	6.9629998	-0.94199997	5.2199998
60	1	7	0.083368003	6.2129998	0.31900001	6.2249999
61	1	7	0.083368003	5.1880002	0.20299999	3.987
62	1	7	0.083368003	6.7579999	0.50099999	3.1900001
63	1	7	0.083368003	5.4050002	2.454	5.1760001
64	1	7	0.083368003	6.8610001	2.8010001	4.1830001
65	1	7	0.085124001	4.0570002	2.1600001	3.039
66	1	7	0.085124001	4.7010002	3.809	3.3340001
67	1	7	0.089121997	5.8979998	1.714	1.402
68	1	7	0.089121997	6.6399999	3.3169999	1.771
69	1	6	0.082774997	4.579	4.4590001	0.92900002
70	1	6	0.082774997	3.823	2.8659999	0.56599998
71	1	1	0.54104698	-4.5609999	2.687	-2.003
72	1	2	-0.69891	-4.8740001	3.905	-2.0680001
73	1	3	-0.52462798	-3.8310001	2.0580001	-3.062
74	1	4	0.029580001	-3.3940001	2.776	-4.2589998
75	1	4	-0.146882	-2.207	3.698	-3.954
76	1	4	-0.142186	-0.97299999	2.9059999	-3.4909999
77	1	4	-0.14179701	0.27200001	3.793	-3.3329999
78	1	4	-0.140554	0.15899999	4.763	-2.1440001
79	1	4	-0.140554	1.49	5.46	-1.823
80	1	4	-0.141616	1.9220001	6.4419999	-2.9260001
81	1	4	-0.137803	3.1040001	7.3260002	-2.4990001
82	1	4	-0.123247	4.415	6.533	-2.362
83	1	4	0.183008	5.6110001	7.4520001	-2.099
84	1	3	-0.65900701	5.4899998	8.0839996	-0.78899997
85	1	9	0.59237301	5.4660001	9.3479996	-0.65100002
86	1	2	-0.487533	5.4419999	10.578	-0.51800001
87	1	6	0.028573001	5.6919999	8.2110004	-2.9119999
88	1	6	0.028573001	6.54	6.8439999	-2.1129999
89	1	7	0.078906	4.605	5.9699998	-3.3010001
90	1	7	0.078906	4.336	5.802	-1.529
91	1	7	0.082855001	2.8629999	7.8340001	-1.54
92	1	7	0.082855001	3.24	8.1140003	-3.2720001
93	1	7	0.083368003	2.194	5.8870001	-3.849
94	1	7	0.083368003	1.068	7.1100001	-3.1719999
95	1	7	0.083368003	1.364	6.0170002	-0.86900002
96	1	7	0.083368003	2.277	4.691	-1.664
97	1	7	0.083368003	-0.61699998	5.5320001	-2.348
98	1	7	0.083368003	-0.15700001	4.1960001	-1.2410001
99	1	7	0.083368003	0.442	4.3590002	-4.2740002
100	1	7	0.083368003	1.148	3.1270001	-3.175
101	1	7	0.084129997	-0.74299997	2.1240001	-4.2480001
102	1	7	0.084129997	-1.188	2.391	-2.53
103	1	7	0.085252002	-2.5050001	4.4320002	-3.1760001
104	1	7	0.085252002	-1.957	4.2620001	-4.8790002
105	1	6	0.049341001	-3.0999999	2.0439999	-5.0419998
106	1	6	0.049341001	-4.2389998	3.3740001	-4.665
107	1	5	0.316558	-3.652	1.031	-2.9979999
108	1	8	-0.17254999	10.593	0.69300002	1.896
109	1	4	0.034731999	9.9940004	1.196	3.059
110	1	4	-0.145642	10.787	0.76099998	4.2940001
111	1	4	-0.13942	10.159	1.3200001	5.579
112	1	4	-0.14183	11.001	1.015	6.8280001
113	1	4	-0.140554	10.98	-0.477	7.204
114	1	4	-0.140554	11.614	-0.75199997	8.5790005
115	1	4	-0.14183	13.096	-0.34599999	8.7069998
116	1	4	-0.135335	14.036	-0.97299999	7.6620002
117	1	4	-0.167566	14.064	-2.5079999	7.73
118	1	4	0.087991998	15.145	-3.1010001	6.822
119	1	10	-0.68231201	14.838	-2.8740001	5.4720001
120	1	11	0.381488	15.25	-2.006	5.2249999
121	1	6	0.073487997	16.146999	-2.688	7.0830002
122	1	6	0.073487997	15.186	-4.198	6.9899998
123	1	7	0.092546001	13.079	-2.9230001	7.4260001
124	1	7	0.092546001	14.268	-2.8269999	8.776
125	1	7	0.085299	15.061	-0.58700001	7.855
126	1	7	0.085299	13.75	-0.63800001	6.6430001
127	1	7	0.083368003	13.181	0.75999999	8.6459999
128	1	7	0.083368003	13.45	-0.63099998	9.7220001
129	1	7	0.083368003	11.507	-1.8329999	8.8120003
130	1	7	0.083368003	11.034	-0.207	9.3559999
131	1	7	0.083368003	9.9250002	-0.82499999	7.243
132	1	7	0.083368003	11.493	-1.081	6.428
133	1	7	0.083368003	10.587	1.605	7.6739998
134	1	7	0.083368003	12.045	1.354	6.6560001
135	1	7	0.085299	9.132	0.912	5.7069998
136	1	7	0.085299	10.073	2.425	5.4860001
137	1	7	0.090190999	10.802	-0.34900001	4.3330002
138	1	7	0.090190999	11.834	1.126	4.198
139	1	6	0.082685001	9.9840002	2.306	2.9960001
140	1	6	0.082685001	8.9390001	0.84500003	3.132

Bonds

1	1	1	2
2	2	1	3
3	3	1	71
4	4	3	4
5	5	3	38
6	6	4	5
7	7	4	36
8	7	4	37
9	6	5	6
10	7	5	34
11	7	5	35
12	6	6	7
13	7	6	32
14	7	6	33
15	6	7	8
16	7	7	30
17	7	7	31
18	6	8	9
19	7	8	28
20	7	8	29
21	6	9	10
22	7	9	26
23	7	9	27
24	6	10	11
25	7	10	24
26	7	10	25
27	6	11	12
28	7	11	22
29	7	11	23
30	6	12	13
31	7	12	20
32	7	12	21
33	4	13	14
34	7	13	18
35	7	13	19
36	2	14	15
37	5	14	17
38	1	15	16
39	8	15	39
40	9	39	40
41	6	40	41
42	7	40	69
43	7	40	70
44	6	41	42
45	7	41	67
46	7	41	68
47	6	42	43
48	7	42	65
49	7	42	66
50	6	43	44
51	7	43	63
52	7	43	64
53	6	44	45
54	7	44	61
55	7	44	62
56	6	45	46
57	7	45	59
58	7	45	60
59	6	46	47
60	7	46	57
61	7	46	58
62	6	47	48
63	7	47	55
64	7	47	56
65	6	48	49
66	7	48	53
67	7	48	54
68	9	49	50
69	7	49	51
70	7	49	52
71	10	50	108
72	1	71	72
73	2	71	73
74	4	73	74
75	5	73	107
76	6	74	75
77	7	74	105
78	7	74	106
79	6	75	76
80	7	75	103
81	7	75	104
82	6	76	77
83	7	76	101
84	7	76	102
85	6	77	78
86	7	77	99
87	7	77	100
88	6	78	79
89	7	78	97
90	7	78	98
91	6	79	80
92	7	79	95
93	7	79	96
94	6	80	81
95	7	80	93
96	7	80	94
97	6	81	82
98	7	81	91
99	7	81	92
100	6	82	83
101	7	82	89
102	7	82	90
103	11	83	84
104	7	83	87
105	7	83	88
106	12	84	85
107	1	85	86
108	9	108	109
109	6	109	110
110	7	109	139
111	7	109	140
112	6	110	111
113	7	110	137
114	7	110	138
115	6	111	112
116	7	111	135
117	7	111	136
118	6	112	113
119	7	112	133
120	7	112	134
121	6	113	114
122	7	113	131
123	7	113	132
124	6	114	115
125	7	114	129
126	7	114	130
127	6	115	116
128	7	115	127
129	7	115	128
130	6	116	117
131	7	116	125
132	7	116	126
133	6	117	118
134	7	117	123
135	7	117	124
136	13	118	119
137	7	118	121
138	7	118	122
139	14	119	120

Angles

1	4	41	40	69
2	4	48	47	56
3	4	80	81	82
4	4	78	79	96
5	4	116	117	123
6	4	114	115	116
7	7	24	10	25
8	4	8	9	27
9	4	75	76	101
10	4	3	4	36
11	4	43	42	66
12	4	82	81	92
13	4	119	118	122
14	4	84	83	88
15	4	10	11	12
16	4	77	78	98
17	4	115	116	125
18	4	110	109	139
19	4	117	118	121
20	7	22	11	23
21	7	34	5	35
22	4	45	46	47
23	7	93	80	94
24	4	116	115	128
25	7	53	48	54
26	4	74	75	104
27	4	112	113	131
28	7	135	111	136
29	7	59	45	60
30	4	46	47	56
31	4	11	12	13
32	1	13	14	15
33	4	109	110	138
34	4	116	117	124
35	3	14	15	39
36	4	39	40	70
37	4	44	45	46
38	4	47	48	49
39	5	49	50	108
40	4	115	116	126
41	4	12	11	22
42	4	9	8	29
43	4	8	7	30
44	4	10	9	26
45	4	11	10	24
46	4	7	8	28
47	4	112	113	132
48	4	77	76	101
49	1	71	73	74
50	4	12	13	18
51	7	95	79	96
52	7	139	109	140
53	4	83	82	90
54	3	72	71	73
55	4	108	109	110
56	4	46	47	48
57	2	74	73	107
58	7	63	43	64
59	4	46	45	59
60	1	1	3	4
61	4	76	75	104
62	4	76	77	78
63	4	12	11	23
64	4	8	7	31
65	9	84	85	86
66	7	28	8	29
67	4	79	78	98
68	4	117	116	125
69	4	48	49	50
70	4	77	76	102
71	3	2	1	71
72	4	5	4	37
73	4	115	114	129
74	4	73	74	105
75	4	12	13	19
76	4	45	44	62
77	4	47	46	57
78	5	50	108	109
79	3	1	71	72
80	7	18	13	19
81	7	103	75	104
82	7	36	4	37
83	4	41	42	43
84	4	79	80	94
85	4	42	43	63
86	3	14	15	16
87	4	112	111	135
88	7	121	118	122
89	4	3	4	5
90	8	83	84	85
91	7	127	115	128
92	4	47	48	53
93	4	46	45	60
94	4	81	82	89
95	4	114	113	132
96	4	111	110	137
97	4	6	7	31
98	6	16	15	39
99	4	109	110	111
100	4	41	40	70
101	4	118	117	123
102	5	15	39	40
103	4	117	116	126
104	4	40	41	42
105	4	43	44	45
106	4	75	76	102
107	4	48	49	51
108	4	3	4	37
109	4	9	10	24
110	4	10	11	22
111	4	113	114	129
112	4	73	74	106
113	4	111	112	133
114	4	47	46	58
115	3	1	71	73
116	4	43	44	61
117	4	110	109	140
118	4	113	112	133
119	4	117	118	122
120	4	42	43	64
121	7	91	81	92
122	4	111	112	113
123	4	108	109	139
124	4	82	83	87
125	4	47	48	54
126	4	73	74	75
127	4	42	43	44
128	7	55	47	56
129	7	129	114	130
130	4	118	117	124
131	4	50	49	52
132	4	113	114	130
133	4	9	10	25
134	4	13	12	20
135	4	80	81	91
136	5	118	119	120
137	4	43	44	62
138	4	80	79	95
139	4	10	9	27
140	4	75	74	105
141	4	11	10	25
142	4	7	8	29
143	4	44	43	63
144	7	20	12	21
145	4	42	41	67
146	4	81	80	93
147	2	13	14	17
148	4	49	48	53
149	4	83	82	89
150	7	137	110	138
151	4	76	77	99
152	4	117	118	119
153	4	4	5	34
154	7	67	41	68
155	4	5	6	7
156	4	44	45	59
157	4	13	12	21
158	7	133	112	134
159	3	3	1	71
160	7	89	82	90
161	4	80	79	96
162	7	32	6	33
163	7	57	46	58
164	4	75	74	106
165	4	78	79	95
166	4	8	9	26
167	4	44	43	64
168	4	43	42	65
169	4	115	114	130
170	4	40	41	67
171	4	84	83	87
172	4	77	78	97
173	4	8	9	10
174	4	7	6	32
175	4	49	48	54
176	4	112	113	114
177	4	45	46	57
178	4	112	111	136
179	4	4	5	35
180	7	125	116	126
181	7	65	42	66
182	4	6	5	34
183	4	44	45	60
184	4	116	117	118
185	4	5	6	32
186	7	97	78	98
187	4	78	79	80
188	4	111	110	138
189	7	30	7	31
190	4	46	47	55
191	4	7	8	9
192	4	114	115	127
193	4	109	110	137
194	4	41	42	65
195	4	48	49	52
196	4	10	11	23
197	4	40	41	68
198	4	39	40	69
199	4	111	112	134
200	2	1	3	38
201	7	123	117	124
202	4	113	112	134
203	4	7	6	33
204	4	9	8	28
205	4	45	46	58
206	4	6	5	35
207	7	101	76	102
208	4	108	109	140
209	4	5	6	33
210	4	82	83	88
211	4	14	13	18
212	4	110	111	135
213	4	113	114	115
214	2	4	3	38
215	7	69	40	70
216	4	114	115	128
217	4	75	76	77
218	7	87	83	88
219	4	41	42	66
220	4	78	77	99
221	4	79	80	81
222	4	82	83	84
223	4	76	75	103
224	2	15	14	17
225	2	71	73	107
226	4	80	81	92
227	4	11	12	20
228	4	50	49	51
229	4	48	47	55
230	7	51	49	52
231	4	4	5	6
232	4	115	116	117
233	4	110	111	136
234	4	79	78	97
235	4	14	13	19
236	4	39	40	41
237	4	77	78	79
238	4	82	81	91
239	4	5	4	36
240	4	42	41	68
241	4	45	44	61
242	4	81	82	83
243	4	9	10	11
244	4	81	80	94
245	7	105	74	106
246	4	119	118	121
247	4	76	77	100
248	4	79	80	93
249	7	99	77	100
250	7	26	9	27
251	4	74	75	76
252	4	78	77	100
253	4	116	115	127
254	3	2	1	3
255	4	74	75	103
256	4	81	82	90
257	4	114	113	131
258	7	131	113	132
259	4	6	7	8
260	7	61	44	62
261	4	11	12	21
262	4	12	13	14
263	4	6	7	30
264	4	110	111	112

Dihedrals

1	27	34	5	4	36
2	27	129	114	113	131
3	18	110	111	112	134
4	1	1	3	4	5
4	2	1	3	4	5
4	3	1	3	4	5
4	4	1	3	4	5
5	15	78	79	80	81
5	16	78	79	80	81
5	17	78	79	80	81
6	27	25	10	9	26
7	27	26	9	8	28
8	5	71	73	74	106
8	6	71	73	74	106
9	28	50	49	48	53
9	29	50	49	48	53
10	27	54	48	47	55
11	27	29	8	7	30
12	31	85	84	83	87
13	18	43	42	41	67
14	18	8	7	6	33
15	27	22	11	10	24
16	35	120	119	118	122
17	5	105	74	73	107
17	6	105	74	73	107
18	18	5	6	7	30
19	18	117	116	115	128
20	27	65	42	41	67
21	18	45	46	47	56
22	7	17	14	15	39
22	8	17	14	15	39
23	18	12	11	10	24
24	27	122	118	117	123
25	27	67	41	40	69
26	19	14	15	39	40
27	18	114	115	116	126
28	23	16	15	14	17
28	24	16	15	14	17
29	22	50	108	109	110
30	27	94	80	79	96
31	27	61	44	43	63
32	18	80	79	78	97
33	18	80	81	82	89
34	18	81	80	79	95
35	18	82	81	80	94
36	27	53	48	47	55
37	27	95	79	78	97
38	27	30	7	6	32
39	18	79	78	77	100
40	27	123	117	116	125
41	18	74	75	76	102
42	18	9	10	11	23
43	15	113	114	115	116
43	16	113	114	115	116
43	17	113	114	115	116
44	15	111	112	113	114
44	16	111	112	113	114
44	17	111	112	113	114
45	18	78	79	80	94
46	18	48	47	46	57
47	27	102	76	75	104
48	13	3	1	71	72
49	18	109	110	111	135
50	18	46	47	48	54
51	18	76	77	78	97
52	18	111	110	109	140
53	18	77	78	79	96
54	18	81	82	83	88
55	18	115	114	113	132
56	28	39	40	41	68
56	29	39	40	41	68
57	18	11	10	9	27
58	27	138	110	109	140
59	18	110	111	112	133
60	18	10	9	8	29
61	15	110	111	112	113
61	16	110	111	112	113
61	17	110	111	112	113
62	14	116	117	118	119
63	18	10	11	12	20
64	27	130	114	113	132
65	5	5	4	3	38
65	6	5	4	3	38
66	27	124	117	116	126
67	27	51	49	48	54
68	18	46	45	44	62
69	14	3	4	5	35
70	27	33	6	5	35
71	13	2	1	71	72
72	27	96	79	78	98
73	18	117	116	115	127
74	27	99	77	76	101
75	18	41	42	43	63
76	18	77	76	75	104
77	18	6	7	8	29
78	18	45	46	47	55
79	22	50	108	109	140
80	27	31	7	6	33
81	15	79	80	81	82
81	16	79	80	81	82
81	17	79	80	81	82
82	22	15	39	40	70
83	18	7	8	9	27
84	5	15	14	13	18
84	6	15	14	13	18
85	18	47	46	45	60
86	27	63	43	42	66
87	18	114	115	116	125
88	18	44	43	42	66
89	15	10	11	12	13
89	16	10	11	12	13
89	17	10	11	12	13
90	27	134	112	111	135
91	27	57	46	45	60
92	27	90	82	81	92
93	27	128	115	114	130
94	18	112	113	114	130
95	27	127	115	114	130
96	14	14	13	12	20
97	18	79	78	77	99
98	18	118	117	116	126
99	15	45	46	47	48
99	16	45	46	47	48
99	17	45	46	47	48
100	27	89	82	81	91
101	18	45	44	43	63
102	1	71	73	74	75
102	2	71	73	74	75
102	3	71	73	74	75
102	4	71	73	74	75
103	18	42	43	44	62
104	7	1	71	73	74
104	8	1	71	73	74
105	18	114	113	112	133
106	28	119	118	117	123
106	29	119	118	117	123
107	5	12	13	14	17
107	6	12	13	14	17
108	27	136	111	110	138
109	27	58	46	45	60
110	15	40	41	42	43
110	16	40	41	42	43
110	17	40	41	42	43
111	27	135	111	110	137
112	28	39	40	41	67
112	29	39	40	41	67
113	27	52	49	48	54
114	27	27	9	8	29
115	18	11	10	9	26
116	27	138	110	109	139
117	18	113	114	115	128
118	18	83	82	81	91
119	5	37	4	3	38
119	6	37	4	3	38
120	25	16	15	39	40
120	26	16	15	39	40
121	5	17	14	13	19
121	6	17	14	13	19
122	27	60	45	44	61
123	33	117	118	119	120
123	34	117	118	119	120
124	18	42	41	40	70
125	18	11	12	13	19
126	7	13	14	15	39
126	8	13	14	15	39
127	27	124	117	116	125
128	18	46	45	44	61
129	14	3	4	5	34
130	27	96	79	78	97
131	18	77	76	75	103
132	18	8	9	10	25
133	18	75	76	77	100
134	22	50	108	109	139
135	27	68	41	40	69
136	18	116	117	118	122
137	18	7	8	9	26
138	27	100	77	76	101
139	14	84	83	82	90
140	27	137	110	109	140
141	15	7	8	9	10
141	16	7	8	9	10
141	17	7	8	9	10
142	18	44	43	42	65
143	27	19	13	12	21
144	7	13	14	15	16
144	8	13	14	15	16
145	27	93	80	79	96
146	27	57	46	45	59
147	27	131	113	112	134
148	27	128	115	114	129
149	27	101	76	75	103
150	18	112	113	114	129
151	27	18	13	12	20
152	18	4	5	6	32
153	27	66	42	41	68
154	18	115	116	117	124
155	32	83	84	85	86
156	27	62	44	43	63
157	14	81	82	83	84
158	18	76	75	74	105
159	30	49	50	108	109
160	27	55	47	46	58
161	15	9	10	11	12
161	16	9	10	11	12
161	17	9	10	11	12
162	18	13	12	11	23
163	18	79	80	81	92
164	27	125	116	115	128
165	15	76	77	78	79
165	16	76	77	78	79
165	17	76	77	78	79
166	27	136	111	110	137
167	18	6	5	4	37
168	14	47	48	49	50
169	18	112	111	110	137
170	18	49	48	47	56
171	27	64	43	42	66
172	15	8	9	10	11
172	16	8	9	10	11
172	17	8	9	10	11
173	14	84	83	82	89
174	14	73	74	75	104
175	27	133	112	111	136
176	27	103	75	74	106
177	27	20	12	11	23
178	27	88	83	82	90
179	27	56	47	46	58
180	5	71	73	74	105
180	6	71	73	74	105
181	27	97	78	77	100
182	18	42	41	40	69
183	11	2	1	3	38
183	12	2	1	3	38
184	15	42	43	44	45
184	16	42	43	44	45
184	17	42	43	44	45
185	18	11	12	13	18
186	18	40	41	42	66
187	18	8	7	6	32
188	35	120	119	118	121
189	15	112	113	114	115
189	16	112	113	114	115
189	17	112	113	114	115
190	27	32	6	5	35
191	5	1	3	4	37
191	6	1	3	4	37
192	27	59	45	44	62
193	18	44	45	46	58
194	27	35	5	4	37
195	27	91	81	80	94
196	18	113	112	111	136
197	18	75	76	77	99
198	18	116	117	118	121
199	27	26	9	8	29
200	27	137	110	109	139
201	27	94	80	79	95
202	27	19	13	12	20
203	5	36	4	3	38
203	6	36	4	3	38
204	27	131	113	112	133
205	15	46	47	48	49
205	16	46	47	48	49
205	17	46	47	48	49
206	18	43	42	41	68
207	27	87	83	82	90
208	27	22	11	10	25
209	18	115	116	117	123
210	18	82	81	80	93
211	15	6	7	8	9
211	16	6	7	8	9
211	17	6	7	8	9
212	28	108	109	110	138
212	29	108	109	110	138
213	27	65	42	41	68
214	18	74	75	76	101
215	18	12	11	10	25
216	18	9	10	11	22
217	27	122	118	117	124
218	27	67	41	40	70
219	5	75	74	73	107
219	6	75	74	73	107
220	18	78	79	80	93
221	18	79	80	81	91
222	27	102	76	75	103
223	27	61	44	43	64
224	27	28	8	7	31
225	18	80	79	78	98
226	18	46	47	48	53
227	27	24	10	9	27
228	18	111	110	109	139
229	9	2	1	3	4
229	10	2	1	3	4
230	18	6	5	4	36
231	27	53	48	47	56
232	18	77	78	79	95
233	18	81	82	83	87
234	18	115	114	113	131
235	27	64	43	42	65
236	27	133	112	111	135
237	27	103	75	74	105
238	14	108	109	110	111
239	18	10	9	8	28
240	27	56	47	46	57
241	27	97	78	77	99
242	27	130	114	113	131
243	27	87	83	82	89
244	18	109	110	111	136
245	27	121	118	117	124
246	27	51	49	48	53
247	27	33	6	5	34
248	27	32	6	5	34
249	5	1	3	4	36
249	6	1	3	4	36
250	27	59	45	44	61
251	18	6	7	8	28
252	27	35	5	4	36
253	27	91	81	80	93
254	18	113	112	111	135
255	27	31	7	6	32
256	22	15	39	40	69
257	18	47	46	45	59
258	27	63	43	42	65
259	7	1	71	73	107
259	8	1	71	73	107
260	7	38	3	1	71
260	8	38	3	1	71
261	18	10	11	12	21
262	18	116	115	114	130
263	18	9	8	7	31
264	27	90	82	81	91
265	27	127	115	114	129
266	27	23	11	10	25
267	27	104	75	74	106
268	15	5	6	7	8
268	16	5	6	7	8
268	17	5	6	7	8
269	13	2	1	71	73
270	27	21	12	11	23
271	27	99	77	76	102
272	18	41	42	43	64
273	27	132	113	112	134
274	28	108	109	110	137
274	29	108	109	110	137
275	15	41	42	43	44
275	16	41	42	43	44
275	17	41	42	43	44
276	14	39	40	41	42
277	18	118	117	116	125
278	18	111	112	113	132
279	27	126	116	115	128
280	5	15	14	13	19
280	6	15	14	13	19
281	18	42	43	44	61
282	15	114	115	116	117
282	16	114	115	116	117
282	17	114	115	116	117
283	27	134	112	111	136
284	27	28	8	7	30
285	14	11	12	13	14
286	27	24	10	9	26
287	27	58	46	45	59
288	14	14	13	12	21
289	27	52	49	48	53
290	27	27	9	8	28
291	15	74	75	76	77
291	16	74	75	76	77
291	17	74	75	76	77
292	18	113	114	115	127
293	27	89	82	81	92
294	18	45	44	43	64
295	5	17	14	13	18
295	6	17	14	13	18
296	22	51	49	50	108
297	18	114	113	112	134
298	28	119	118	117	124
298	29	119	118	117	124
299	18	43	44	45	60
300	27	121	118	117	123
301	15	77	78	79	80
301	16	77	78	79	80
301	17	77	78	79	80
302	27	98	78	77	100
303	18	47	48	49	52
304	18	7	6	5	35
305	18	78	77	76	102
306	27	135	111	110	138
307	27	92	81	80	94
308	15	44	45	46	47
308	16	44	45	46	47
308	17	44	45	46	47
309	18	8	9	10	24
310	27	34	5	4	37
311	31	82	83	84	85
312	27	129	114	113	132
313	18	83	82	81	92
314	27	25	10	9	27
315	27	60	45	44	62
316	28	50	49	48	54
316	29	50	49	48	54
317	9	72	71	73	74
317	10	72	71	73	74
318	27	54	48	47	56
319	18	116	115	114	129
320	18	9	8	7	30
321	27	29	8	7	31
322	27	93	80	79	95
323	31	85	84	83	88
324	15	4	5	6	7
324	16	4	5	6	7
324	17	4	5	6	7
325	27	66	42	41	67
326	27	23	11	10	24
327	27	104	75	74	105
328	18	5	6	7	31
329	27	21	12	11	22
330	27	132	113	112	133
331	27	55	47	46	57
332	22	48	49	50	108
333	27	88	83	82	89
334	18	111	112	113	131
335	27	126	116	115	127
336	27	68	41	40	70
337	27	100	77	76	102
338	18	13	12	11	22
339	20	15	39	40	41
339	21	15	39	40	41
340	27	125	116	115	127
341	18	81	80	79	96
342	22	52	49	50	108
343	1	12	13	14	15
343	2	12	13	14	15
343	3	12	13	14	15
343	4	12	13	14	15
344	15	109	110	111	112
344	16	109	110	111	112
344	17	109	110	111	112
345	15	43	44	45	46
345	16	43	44	45	46
345	17	43	44	45	46
346	27	101	76	75	104
347	27	18	13	12	21
348	14	3	4	5	6
349	18	4	5	6	33
350	27	62	44	43	64
351	18	76	75	74	106
352	27	95	79	78	98
353	27	30	7	6	33
354	18	49	48	47	55
355	27	123	117	116	126
356	15	75	76	77	78
356	16	75	76	77	78
356	17	75	76	77	78
357	14	73	74	75	76
358	14	73	74	75	103
359	27	20	12	11	22
360	18	48	47	46	58
361	5	106	74	73	107
361	6	106	74	73	107
362	11	72	71	73	107
362	12	72	71	73	107
363	13	3	1	71	73
364	18	43	44	45	59
365	18	76	77	78	98
366	15	80	81	82	83
366	16	80	81	82	83
366	17	80	81	82	83
367	7	4	3	1	71
367	8	4	3	1	71
368	18	40	41	42	65
369	27	98	78	77	99
370	18	47	48	49	51
371	18	112	111	110	138
372	15	115	116	117	118
372	16	115	116	117	118
372	17	115	116	117	118
373	18	80	81	82	90
374	18	7	6	5	34
375	18	78	77	76	101
376	18	44	45	46	57
377	27	92	81	80	93

Impropers

5	2	71	72	73	1
30	1	3	1	4	38
54	1	14	15	17	13
159	3	15	16	39	14
190	1	73	74	107	71
207	2	71	73	1	72
227	1	3	4	38	1
375	1	3	38	1	4
426	1	73	107	71	74
429	2	71	1	72	73
584	1	14	17	13	15
587	3	15	14	16	39
598	2	1	2	3	71
742	3	15	39	14	16
821	1	73	71	74	107
900	1	14	13	15	17
913	2	1	3	71	2
969	2	1	71	2	3
