Title

245 atoms
262 bonds
449 angles
707 dihedrals
312 impropers

11 atom types
15 bond types
8 angle types
22 dihedral types
3 improper types
-17.10099983 82.89900017 xlo xhi
-7.342999935 92.65700006 ylo yhi
-24.47699928 75.52300072 zlo zhi
0.0 0.0 0.0 xy xz yz

Masses

1	14.00672
2	12.01078
3	1.007947
4	15.99943
5	12.01078
6	1.007947
7	18.998403
8	1.007947
9	15.99943
10	15.99943
11	1.007947


Pair Coeffs

1	0.16769152	3.206876
2	0.086879315	3.4806469
3	0.015611343	2.5725815
4	0.16846514	3.0251065
5	0.10884061	3.3795318
6	0.014090815	1.1034277
7	0.061	3.1181455
8	0.015779483	2.6445434
9	0.2102061	3.0398122
10	0.20947353	2.99716
11	1.2326e-05	0.53453923

Bond Coeffs

1 harmonic	390.03554688505	1.390160554689
2 harmonic	505.144496193	1.019481865027
3 harmonic	422.7150220147	1.421786517481
4 harmonic	360.7852444772	1.387193227181
5 harmonic	397.2545789619	1.085358495916
6 harmonic	279.1350963404	1.454628925034
7 harmonic	425.69104206635	1.362945806494
8 harmonic	289.73813263395	1.498646816465
9 harmonic	264.62148576755	1.52190126495
10 harmonic	492.76746816345	1.381897776683
11 harmonic	340.45121009905	1.358690858053
12 harmonic	370.04670688625	1.093899492634
13 harmonic	582.698766451	1.225198386222
14 harmonic	385.7604595587	1.369745182308
15 harmonic	543.5267831885	0.9716763312559


Angle Coeffs

1 harmonic	57.8982893754	126.8062420451
2 harmonic	55.42182150775	117.3465570514
3 harmonic	63.44422595415	115.5071327674
4 harmonic	34.066775159195	129.1835929926
5 harmonic	65.09061609600001	110.3538806181
6 harmonic	53.20531626545	116.5475862634
7 harmonic	48.776492647595	115.6030999533
8 harmonic	201.41175231035	127.4691416191


Dihedral Coeffs

1 fourier 1	3.661930099076	2	180
2 fourier 1	1.193093382682	2	180
3 fourier 1	0.02021088501612	1	0
4 fourier 1	1.163235555439	2	180
5 fourier 1	1.532232714475	2	180
6 fourier 1	0.02664938770063	3	0
7 fourier 1	0.1155372516788	3	0
8 fourier 1	0.1040663847541	3	0
9 fourier 1	0.09223874044423	3	0
10 fourier 1	0.3159935921949	2	180
11 fourier 1	0.3247796806857	1	180
12 fourier 1	3.101948770557	2	180
13 fourier 1	-0.4252153282372	1	0
14 fourier 1	1.809047390003	2	180
15 fourier 1	-0.04816277792592	1	0
16 fourier 1	0.9974165607242	2	180
17 fourier 1	2.348375642009	2	180
18 fourier 1	1.256156174911	1	0
19 fourier 1	0.1911926717192	3	0
20 fourier 1	2.687457892086	2	180
21 fourier 1	2.772607909663	2	180
22 fourier 1	0.09692684957115	1	0


Improper Coeffs

1 0.3666666666666667	-1	2
2 0.3333333333333333	-1	2
3 3.5	-1	2


Atoms

1	1	1	-0.41223899	14.317	0.495	-0.056000002
2	1	2	0.125981	12.923	0.41	0.25799999
3	1	2	-0.407307	12.207	1.527	0.48800001
4	1	3	0.220843	12.682	2.5009999	0.447
5	1	2	-0.115037	10.761	1.434	0.79000002
6	1	3	0.203271	10.206	2.3499999	0.96799999
7	1	2	-0.12856799	10.143	0.237	0.81800002
8	1	2	-0.13478699	8.6929998	0.148	1.094
9	1	2	-0.130245	7.8779998	-0.51300001	0.25099999
10	1	3	0.206561	8.2690001	-1.003	-0.625
11	1	2	-0.29657599	6.421	-0.51300001	0.47499999
12	1	3	0.22350401	5.7909999	-1.021	-0.244
13	1	2	0.328511	5.8920002	0.12800001	1.536
14	1	4	-0.27262101	4.5079999	0.198	1.765
15	1	2	0.25834799	3.5179999	-0.156	0.83899999
16	1	2	-0.268206	2.7720001	0.80500001	0.26899999
17	1	3	0.227112	2.961	1.845	0.49599999
18	1	2	-0.17560101	1.6569999	0.44999999	-0.62599999
19	1	3	0.217227	1.054	1.252	-1.041
20	1	2	-0.187774	1.349	-0.84500003	-0.87900001
21	1	5	0.015425	0.077	-1.164	-1.6950001
22	1	2	-0.187774	-1.137	-0.59600002	-0.912
23	1	2	-0.17560101	-2.2279999	-0.055	-1.507
24	1	3	0.217227	-2.313	0.028000001	-2.5780001
25	1	2	-0.268206	-3.3440001	0.49700001	-0.70599997
26	1	3	0.227112	-4.1739998	0.97899997	-1.214
27	1	2	0.25834799	-3.3069999	0.433	0.634
28	1	4	-0.27262101	-4.3099999	0.99199998	1.4349999
29	1	2	0.328511	-5.677	1.028	1.118
30	1	2	-0.29657599	-6.2979999	2.2160001	1.122
31	1	3	0.22350401	-5.7379999	3.122	1.316
32	1	2	-0.130245	-7.75	2.309	0.88099998
33	1	3	0.206561	-8.2119999	3.283	0.92400002
34	1	2	-0.13478699	-8.4779997	1.2029999	0.65100002
35	1	2	-0.12856799	-9.9549999	1.273	0.52600002
36	1	2	-0.12904499	-10.613	0.495	-0.354
37	1	3	0.203271	-10.076	-0.15899999	-1.029
38	1	2	-0.37542701	-12.091	0.51800001	-0.41800001
39	1	3	0.217326	-12.599	-0.131	-1.1160001
40	1	2	0.198247	-12.791	1.306	0.40900001
41	1	1	-0.53243899	-14.219	1.313	0.37599999
42	1	6	0.31914499	-14.765	1.936	1.012
43	1	2	-0.37542701	-12.074	2.171	1.369
44	1	3	0.217326	-12.627	2.813	2.0409999
45	1	2	-0.12904499	-10.738	2.161	1.4220001
46	1	3	0.203271	-10.232	2.773	2.1570001
47	1	2	-0.057413999	-7.7940001	-0.113	0.62300003
48	1	3	0.20562001	-8.3909998	-1.001	0.46200001
49	1	2	-0.322622	-6.4720001	-0.22	0.87400001
50	1	5	0.76635802	-5.8189998	-1.5880001	0.94499999
51	1	7	-0.208656	-6.7529998	-2.586	1.1670001
52	1	7	-0.208656	-5.1599998	-1.854	-0.245
53	1	7	-0.208656	-4.9109998	-1.631	1.988
54	1	2	-0.268206	-2.1619999	-0.222	1.298
55	1	3	0.227112	-2.151	-0.32300001	2.378
56	1	2	-0.17560101	-1.1569999	-0.72799999	0.57700002
57	1	3	0.217227	-0.354	-1.247	1.089
58	1	5	-0.12911101	-0.133	-2.698	-1.844
59	1	8	0.111079	-0.29800001	-3.1689999	-0.85100001
60	1	8	0.111079	0.77399999	-3.1570001	-2.293
61	1	5	-0.128859	-1.324	-3.0539999	-2.7509999
62	1	8	0.113467	-1.279	-4.1409998	-2.9719999
63	1	8	0.113467	-2.2780001	-2.8800001	-2.2049999
64	1	5	-0.15041301	-1.352	-2.2709999	-4.0760002
65	1	8	0.116165	-2.237	-1.607	-4.1030002
66	1	8	0.116165	-1.471	-2.9779999	-4.9250002
67	1	5	-0.128859	-0.090999998	-1.438	-4.3130002
68	1	8	0.113467	-0.227	-0.81300002	-5.223
69	1	8	0.113467	0.75599998	-2.131	-4.5139999
70	1	5	-0.12911101	0.27200001	-0.52399999	-3.1259999
71	1	8	0.111079	1.342	-0.26699999	-3.2909999
72	1	8	0.111079	-0.25099999	0.45300001	-3.217
73	1	2	-0.17560101	2.214	-1.9069999	-0.264
74	1	3	0.217227	2.0250001	-2.9560001	-0.42699999
75	1	2	-0.268206	3.2349999	-1.574	0.54500002
76	1	3	0.227112	3.835	-2.349	1.005
77	1	2	-0.322622	6.7930002	0.81199998	2.5090001
78	1	5	0.76635802	6.1960001	1.451	3.7390001
79	1	7	-0.208656	5.6079998	0.47400001	4.5190001
80	1	7	-0.208656	7.1529999	2.115	4.4920001
81	1	7	-0.208656	5.2309999	2.3640001	3.365
82	1	2	-0.057413999	8.1219997	0.81999999	2.2839999
83	1	3	0.20562001	8.8009996	1.303	2.973
84	1	2	-0.115037	10.936	-0.99400002	0.56400001
85	1	3	0.203271	10.46	-1.97	0.58700001
86	1	2	-0.407307	12.252	-0.91000003	0.31799999
87	1	3	0.220843	12.832	-1.816	0.148
88	1	6	0.37237099	14.89	-0.37400001	-0.13600001
89	1	2	0.76790899	-14.76	0.68300003	-0.289
90	1	9	-0.659621	-15.42	-0.27900001	0.185
91	1	2	-0.372105	-14.731	0.93699998	-1.74
92	1	2	-0.086093001	-14.025	1.967	-2.23
93	1	3	0.22211599	-13.472	2.622	-1.568
94	1	2	-0.249061	-13.99	2.2320001	-3.6830001
95	1	3	0.20997	-13.424	3.0899999	-4.0050001
96	1	2	-0.039834	-14.642	1.428	-4.5549998
97	1	5	-0.26341599	-14.678	1.684	-6.0830002
98	1	2	-0.039834	-14.525	0.33000001	-6.8210001
99	1	2	-0.247284	-13.543	-0.52700001	-6.4559999
100	1	3	0.20997	-12.882	-0.29499999	-5.631
101	1	2	-0.0051190001	-13.339	-1.809	-7.1589999
102	1	3	0.219987	-12.553	-2.471	-6.8189998
103	1	2	-0.33577901	-14.114	-2.142	-8.2010002
104	1	2	0.59173697	-13.904	-3.424	-8.8979998
105	1	9	-0.52865601	-14.623	-3.7509999	-9.8789997
106	1	2	-0.0051190001	-15.173	-1.206	-8.6400003
107	1	3	0.219987	-15.799	-1.4529999	-9.4890003
108	1	2	-0.247284	-15.364	-0.046	-8.0010004
109	1	3	0.20997	-16.145	0.60100001	-8.368
110	1	5	0.75253302	-16.046	2.385	-6.381
111	1	7	-0.20228	-16.233	3.461	-5.5279999
112	1	7	-0.20228	-16.096001	2.868	-7.678
113	1	7	-0.20228	-17.101	1.508	-6.191
114	1	5	0.75253302	-13.515	2.605	-6.5910001
115	1	7	-0.20228	-12.293	2.1689999	-6.1059999
116	1	7	-0.20228	-13.453	2.5840001	-7.9749999
117	1	7	-0.20228	-13.7	3.921	-6.2020001
118	1	2	-0.249061	-15.447	0.303	-3.9920001
119	1	3	0.20997	-16.014	-0.34299999	-4.6490002
120	1	2	-0.086093001	-15.483	0.07	-2.675
121	1	3	0.22211599	-16.072001	-0.75700003	-2.299
122	1	1	-0.41223899	14.755	1.408	-0.28799999
123	1	2	0.125981	15.797	1.493	-1.266
124	1	2	-0.407307	16.389	0.377	-1.73
125	1	3	0.220843	16.089001	-0.59799999	-1.36
126	1	2	-0.115037	17.450001	0.46900001	-2.7579999
127	1	3	0.203271	17.909	-0.447	-3.1170001
128	1	2	-0.12856799	17.82	1.666	-3.2539999
129	1	2	-0.13478699	18.861	1.755	-4.3000002
130	1	2	-0.130245	18.621	2.4159999	-5.447
131	1	3	0.206561	17.676001	2.9070001	-5.6139998
132	1	2	-0.29657599	19.622999	2.4170001	-6.527
133	1	3	0.22350401	19.381001	2.925	-7.4520001
134	1	2	0.328511	20.799	1.775	-6.3709998
135	1	4	-0.27262101	21.764	1.705	-7.388
136	1	2	0.25834799	21.552999	2.059	-8.7270002
137	1	2	-0.268206	21.5	1.099	-9.665
138	1	3	0.227112	21.582001	0.057999998	-9.3800001
139	1	2	-0.17560101	21.384001	1.4529999	-11.089
140	1	3	0.217227	21.379	0.65100002	-11.821
141	1	2	-0.187774	21.348	2.7479999	-11.486
142	1	5	0.015425	21.385	3.0669999	-12.997
143	1	2	-0.187774	22.714001	2.4990001	-13.563
144	1	2	-0.17560101	22.834	1.9579999	-14.8
145	1	3	0.217227	21.993999	1.875	-15.471
146	1	2	-0.268206	24.122999	1.406	-15.275
147	1	3	0.227112	24.167999	0.92400002	-16.246
148	1	2	0.25834799	25.211	1.47	-14.492
149	1	4	-0.27262101	26.437	0.91100001	-14.873
150	1	2	0.328511	26.941999	0.875	-16.183001
151	1	2	-0.29657599	27.292	-0.31200001	-16.695
152	1	3	0.22350401	27.139	-1.219	-16.122
153	1	2	-0.130245	27.908001	-0.40599999	-18.032
154	1	3	0.206561	28.202	-1.38	-18.391001
155	1	2	-0.13478699	28.125999	0.69999999	-18.764
156	1	2	-0.12856799	28.851	0.63	-20.056999
157	1	2	-0.078415997	28.490999	1.408	-21.096001
158	1	3	0.203271	27.631001	2.062	-21.028999
159	1	2	-0.45144099	29.266001	1.385	-22.355
160	1	3	0.229342	28.974001	2.0339999	-23.167
161	1	2	0.31727701	30.344999	0.597	-22.469999
162	1	1	-0.84502	31.118	0.58999997	-23.672001
163	1	6	0.36575699	30.875	1.209	-24.476999
164	1	6	0.36575699	31.951	-0.033	-23.766001
165	1	2	-0.45144099	30.737	-0.26800001	-21.337999
166	1	3	0.229342	31.603001	-0.91000003	-21.419001
167	1	2	-0.078415997	30.032	-0.25799999	-20.202
168	1	3	0.203271	30.356001	-0.87	-19.371
169	1	2	-0.057413999	27.719	2.016	-18.214001
170	1	3	0.20562001	27.921	2.904	-18.798
171	1	2	-0.322622	27.184999	2.1240001	-16.978001
172	1	5	0.76635802	26.877001	3.4909999	-16.398001
173	1	7	-0.208656	27.584999	4.4889998	-17.046
174	1	7	-0.208656	25.523001	3.757	-16.52
175	1	7	-0.208656	27.232	3.5339999	-15.061
176	1	2	-0.268206	25.118999	2.1259999	-13.172
177	1	3	0.227112	26.007	2.2260001	-12.558
178	1	2	-0.17560101	23.958	2.631	-12.745
179	1	3	0.217227	23.931999	3.1500001	-11.793
180	1	5	-0.12911101	21.379999	4.6009998	-13.255
181	1	8	0.111079	22.295	5.072	-12.834
182	1	8	0.111079	20.499001	5.0609999	-12.755
183	1	5	-0.128859	21.297001	4.9569998	-14.749
184	1	8	0.113467	21.087999	6.0450001	-14.835
185	1	8	0.113467	22.283001	4.783	-15.233
186	1	5	-0.15041301	20.215	4.1739998	-15.516
187	1	8	0.116165	20.688999	3.51	-16.264
188	1	8	0.116165	19.579	4.881	-16.09
189	1	5	-0.128859	19.312	3.3410001	-14.604
190	1	8	0.113467	18.634001	2.7160001	-15.227
191	1	8	0.113467	18.671	4.0339999	-14.016
192	1	5	-0.12911101	20.091	2.427	-13.638
193	1	8	0.111079	19.354	2.1700001	-12.845
194	1	8	0.111079	20.309	1.451	-14.122
195	1	2	-0.17560101	21.371	3.8110001	-10.425
196	1	3	0.217227	21.341999	4.8590002	-10.673
197	1	2	-0.268206	21.468	3.477	-9.1260004
198	1	3	0.227112	21.513	4.2529998	-8.3710003
199	1	2	-0.322622	21.099001	1.092	-5.079
200	1	5	0.76635802	22.451	0.45199999	-4.8829999
201	1	7	-0.208656	23.427999	1.429	-4.9330001
202	1	7	-0.208656	22.539	-0.212	-3.6689999
203	1	7	-0.208656	22.684	-0.461	-5.8920002
204	1	2	-0.057413999	20.167	1.0829999	-4.105
205	1	3	0.20562001	20.357	0.60000002	-3.1559999
206	1	2	-0.115037	17.164	2.8970001	-2.74
207	1	3	0.203271	17.451	3.8729999	-3.1210001
208	1	2	-0.407307	16.223	2.8139999	-1.788
209	1	3	0.220843	15.757	3.72	-1.403
210	1	6	0.37237099	14.367	2.277	0.141
211	1	2	0.59173697	-13.125	-4.1009998	-8.5710001
212	1	9	-0.52865601	-13.242	-4.671	-7.454
213	1	2	-0.33577901	-11.954	-4.3400002	-9.4350004
214	1	2	-0.0051190001	-10.964	-5.1690001	-9.066
215	1	3	0.219987	-10.997	-5.6880002	-8.1160002
216	1	2	-0.247284	-9.8009996	-5.3899999	-9.9499998
217	1	3	0.20997	-9.0319996	-6.0489998	-9.5810003
218	1	2	-0.039834	-9.7180004	-4.7880001	-11.159
219	1	5	-0.26341599	-8.5039997	-4.9460001	-12.107
220	1	2	-0.039834	-9.0349998	-5.1129999	-13.553
221	1	2	-0.24801999	-8.474	-4.5100002	-14.626
222	1	3	0.20997	-7.6329999	-3.842	-14.536
223	1	2	-0.057530001	-8.9949999	-4.7389998	-15.989
224	1	3	0.232775	-8.526	-4.2160001	-16.813
225	1	2	-0.26494899	-10.024	-5.579	-16.198999
226	1	2	0.83838999	-10.555	-5.8169999	-17.559
227	1	9	-0.48950899	-10.052	-5.2329998	-18.556999
228	1	10	-0.66559798	-11.619	-6.6939998	-17.747
229	1	11	0.417281	-11.993	-6.8670001	-18.672001
230	1	2	-0.057530001	-10.623	-6.277	-15.039
231	1	3	0.232775	-11.442	-6.9710002	-15.182
232	1	2	-0.24801999	-10.158	-6.0650001	-13.803
233	1	3	0.20997	-10.614	-6.598	-12.979
234	1	5	0.75253302	-7.6370001	-6.2160001	-11.805
235	1	7	-0.20228	-6.9159999	-6.072	-10.631
236	1	7	-0.20228	-8.4350004	-7.3429999	-11.7
237	1	7	-0.20228	-6.7290001	-6.4349999	-12.829
238	1	5	0.75253302	-7.6209998	-3.6670001	-11.911
239	1	7	-0.20228	-7.3899999	-3.4419999	-10.564
240	1	7	-0.20228	-6.388	-3.8	-12.529
241	1	7	-0.20228	-8.2550001	-2.5469999	-12.424
242	1	2	-0.247284	-10.814	-3.848	-11.54
243	1	3	0.20997	-10.774	-3.3169999	-12.483
244	1	2	-0.0051190001	-11.863	-3.6440001	-10.735
245	1	3	0.219987	-12.645	-2.961	-11.041

Bonds

1	1	1	2
2	2	1	88
3	3	1	122
4	4	2	3
5	4	2	86
6	5	3	4
7	4	3	5
8	5	5	6
9	4	5	7
10	6	7	8
11	4	7	84
12	4	8	9
13	4	8	82
14	5	9	10
15	4	9	11
16	5	11	12
17	4	11	13
18	7	13	14
19	4	13	77
20	7	14	15
21	4	15	16
22	4	15	75
23	5	16	17
24	4	16	18
25	5	18	19
26	4	18	20
27	8	20	21
28	4	20	73
29	8	21	22
30	9	21	58
31	9	21	70
32	4	22	23
33	4	22	56
34	5	23	24
35	4	23	25
36	5	25	26
37	4	25	27
38	7	27	28
39	4	27	54
40	7	28	29
41	4	29	30
42	4	29	49
43	5	30	31
44	4	30	32
45	5	32	33
46	4	32	34
47	6	34	35
48	4	34	47
49	4	35	36
50	4	35	45
51	5	36	37
52	4	36	38
53	5	38	39
54	4	38	40
55	1	40	41
56	4	40	43
57	2	41	42
58	10	41	89
59	5	43	44
60	4	43	45
61	5	45	46
62	5	47	48
63	4	47	49
64	8	49	50
65	11	50	51
66	11	50	52
67	11	50	53
68	5	54	55
69	4	54	56
70	5	56	57
71	12	58	59
72	12	58	60
73	9	58	61
74	12	61	62
75	12	61	63
76	9	61	64
77	12	64	65
78	12	64	66
79	9	64	67
80	12	67	68
81	12	67	69
82	9	67	70
83	12	70	71
84	12	70	72
85	5	73	74
86	4	73	75
87	5	75	76
88	8	77	78
89	4	77	82
90	11	78	79
91	11	78	80
92	11	78	81
93	5	82	83
94	5	84	85
95	4	84	86
96	5	86	87
97	13	89	90
98	6	89	91
99	4	91	92
100	4	91	120
101	5	92	93
102	4	92	94
103	5	94	95
104	4	94	96
105	8	96	97
106	4	96	118
107	8	97	98
108	9	97	110
109	9	97	114
110	4	98	99
111	4	98	108
112	5	99	100
113	4	99	101
114	5	101	102
115	4	101	103
116	6	103	104
117	4	103	106
118	13	104	105
119	6	104	211
120	5	106	107
121	4	106	108
122	5	108	109
123	11	110	111
124	11	110	112
125	11	110	113
126	11	114	115
127	11	114	116
128	11	114	117
129	5	118	119
130	4	118	120
131	5	120	121
132	1	122	123
133	2	122	210
134	4	123	124
135	4	123	208
136	5	124	125
137	4	124	126
138	5	126	127
139	4	126	128
140	6	128	129
141	4	128	206
142	4	129	130
143	4	129	204
144	5	130	131
145	4	130	132
146	5	132	133
147	4	132	134
148	7	134	135
149	4	134	199
150	7	135	136
151	4	136	137
152	4	136	197
153	5	137	138
154	4	137	139
155	5	139	140
156	4	139	141
157	8	141	142
158	4	141	195
159	8	142	143
160	9	142	180
161	9	142	192
162	4	143	144
163	4	143	178
164	5	144	145
165	4	144	146
166	5	146	147
167	4	146	148
168	7	148	149
169	4	148	176
170	7	149	150
171	4	150	151
172	4	150	171
173	5	151	152
174	4	151	153
175	5	153	154
176	4	153	155
177	6	155	156
178	4	155	169
179	4	156	157
180	4	156	167
181	5	157	158
182	4	157	159
183	5	159	160
184	4	159	161
185	1	161	162
186	4	161	165
187	2	162	163
188	2	162	164
189	5	165	166
190	4	165	167
191	5	167	168
192	5	169	170
193	4	169	171
194	8	171	172
195	11	172	173
196	11	172	174
197	11	172	175
198	5	176	177
199	4	176	178
200	5	178	179
201	12	180	181
202	12	180	182
203	9	180	183
204	12	183	184
205	12	183	185
206	9	183	186
207	12	186	187
208	12	186	188
209	9	186	189
210	12	189	190
211	12	189	191
212	9	189	192
213	12	192	193
214	12	192	194
215	5	195	196
216	4	195	197
217	5	197	198
218	8	199	200
219	4	199	204
220	11	200	201
221	11	200	202
222	11	200	203
223	5	204	205
224	5	206	207
225	4	206	208
226	5	208	209
227	13	211	212
228	6	211	213
229	4	213	214
230	4	213	244
231	5	214	215
232	4	214	216
233	5	216	217
234	4	216	218
235	8	218	219
236	4	218	242
237	8	219	220
238	9	219	234
239	9	219	238
240	4	220	221
241	4	220	232
242	5	221	222
243	4	221	223
244	5	223	224
245	4	223	225
246	6	225	226
247	4	225	230
248	13	226	227
249	14	226	228
250	15	228	229
251	5	230	231
252	4	230	232
253	5	232	233
254	11	234	235
255	11	234	236
256	11	234	237
257	11	238	239
258	11	238	240
259	11	238	241
260	5	242	243
261	4	242	244
262	5	244	245

Angles

1	6	69	67	70
2	6	219	234	237
3	1	220	232	230
4	4	129	204	205
5	4	123	208	209
6	1	34	35	45
7	4	136	137	138
8	4	118	120	121
9	1	91	120	118
10	6	220	219	238
11	1	103	104	211
12	6	184	183	186
13	1	28	27	54
14	6	112	110	113
15	6	20	21	58
16	6	180	183	185
17	6	22	21	58
18	4	15	75	76
19	4	243	242	244
20	1	219	220	232
21	1	137	139	141
22	1	149	150	151
23	4	20	73	74
24	6	234	219	238
25	1	8	7	84
26	4	144	146	147
27	4	99	101	102
28	1	2	86	84
29	1	161	165	167
30	6	199	200	203
31	6	239	238	240
32	4	4	3	5
33	4	15	16	17
34	3	163	162	164
35	7	181	180	182
36	2	40	41	89
37	6	218	219	234
38	1	136	137	139
39	1	213	214	216
40	4	129	130	131
41	6	97	110	112
42	4	29	30	31
43	6	21	58	59
44	4	140	139	141
45	1	225	226	228
46	6	49	50	53
47	4	24	23	25
48	1	92	94	96
49	6	21	70	67
50	1	219	220	221
51	6	111	110	112
52	6	142	192	193
53	1	35	34	47
54	6	68	67	70
55	6	77	78	80
56	1	155	169	171
57	1	41	40	43
58	6	141	142	180
59	4	2	3	4
60	1	7	8	9
61	4	225	230	231
62	7	187	186	188
63	6	115	114	116
64	1	32	34	35
65	6	97	114	115
66	4	12	11	13
67	1	124	123	208
68	6	64	67	68
69	1	226	225	230
70	1	128	129	204
71	1	32	34	47
72	6	96	97	110
73	6	219	238	240
74	4	85	84	86
75	1	22	56	54
76	1	214	216	218
77	6	21	58	60
78	3	161	162	164
79	1	159	161	162
80	4	125	124	126
81	6	142	192	194
82	1	99	101	103
83	4	158	157	159
84	6	22	21	70
85	4	206	208	209
86	1	11	13	14
87	7	59	58	60
88	4	155	169	170
89	1	104	211	212
90	5	148	149	150
91	4	22	23	24
92	1	15	75	73
93	1	101	103	104
94	1	16	18	20
95	4	124	126	127
96	1	21	22	23
97	6	239	238	241
98	6	77	78	81
99	3	161	162	163
100	4	98	108	109
101	1	8	82	77
102	4	127	126	128
103	1	123	208	206
104	6	97	110	111
105	1	29	30	32
106	7	62	61	63
107	1	221	220	232
108	6	64	67	69
109	1	129	204	199
110	1	5	7	84
111	6	59	58	61
112	1	1	2	3
113	1	21	20	73
114	1	126	128	129
115	1	15	16	18
116	4	141	195	196
117	4	40	43	44
118	4	74	73	75
119	4	26	25	27
120	4	10	9	11
121	1	30	29	49
122	6	218	219	220
123	6	21	70	71
124	6	58	61	63
125	1	28	29	49
126	4	176	178	179
127	4	166	165	167
128	1	20	73	75
129	4	154	153	155
130	1	126	128	206
131	4	220	232	233
132	4	22	56	57
133	6	77	78	79
134	4	214	216	217
135	4	91	92	93
136	6	201	200	202
137	6	219	238	239
138	7	65	64	66
139	1	221	223	225
140	4	148	176	177
141	7	190	189	191
142	1	13	77	78
143	6	51	50	52
144	1	223	225	226
145	6	186	189	192
146	4	17	16	18
147	6	20	21	22
148	4	77	82	83
149	1	38	40	43
150	4	9	11	12
151	6	67	70	71
152	1	11	13	77
153	1	149	148	176
154	6	62	61	64
155	1	14	15	16
156	1	129	130	132
157	1	22	23	25
158	4	123	124	125
159	6	188	186	189
160	6	110	97	114
161	1	47	49	50
162	6	49	50	51
163	6	58	61	64
164	1	135	136	197
165	4	224	223	225
166	1	144	143	178
167	1	14	15	75
168	4	143	178	179
169	6	141	142	192
170	4	27	54	55
171	1	200	199	204
172	1	98	99	101
173	6	199	200	201
174	1	40	43	45
175	4	35	45	46
176	1	96	118	120
177	1	129	128	206
178	4	165	167	168
179	1	143	144	146
180	6	65	64	67
181	6	187	186	189
182	6	181	180	183
183	1	219	218	242
184	1	169	171	172
185	6	191	189	192
186	4	231	230	232
187	1	162	161	165
188	3	42	41	89
189	1	142	143	144
190	1	142	141	195
191	6	189	192	193
192	4	54	56	57
193	6	61	64	66
194	1	211	213	214
195	6	21	70	72
196	6	142	180	182
197	1	23	22	56
198	1	151	153	155
199	1	8	9	11
200	6	183	186	188
201	2	1	122	123
202	1	29	49	50
203	1	135	136	137
204	6	97	114	117
205	1	101	103	106
206	1	34	47	49
207	1	139	141	195
208	6	201	200	203
209	6	236	234	237
210	1	41	89	91
211	1	90	89	91
212	1	218	242	244
213	6	79	78	80
214	6	219	234	236
215	6	66	64	67
216	4	131	130	132
217	1	103	106	108
218	4	37	36	38
219	6	218	219	238
220	1	216	218	242
221	4	177	176	178
222	6	189	192	194
223	4	196	195	197
224	4	2	86	87
225	1	139	141	142
226	4	207	206	208
227	4	136	197	198
228	1	97	98	99
229	4	213	214	215
230	1	1	2	86
231	3	1	122	210
232	1	97	98	108
233	6	141	142	143
234	6	142	180	181
235	1	146	148	176
236	1	153	155	156
237	6	220	219	234
238	1	211	213	244
239	1	97	96	118
240	1	156	157	159
241	1	155	156	157
242	6	80	78	81
243	1	41	89	90
244	4	156	157	158
245	7	68	67	69
246	1	25	27	28
247	1	128	206	208
248	1	21	22	56
249	4	195	197	198
250	6	97	110	113
251	4	3	5	6
252	4	73	75	76
253	5	226	228	229
254	1	35	45	43
255	1	134	199	204
256	4	92	94	95
257	1	38	40	41
258	6	219	238	241
259	6	171	172	174
260	1	146	148	149
261	4	98	99	100
262	6	79	78	81
263	1	148	176	178
264	1	151	150	171
265	4	35	36	37
266	6	180	142	192
267	4	222	221	223
268	4	19	18	20
269	4	147	146	148
270	4	30	32	33
271	4	7	84	85
272	1	92	91	120
273	6	180	183	186
274	6	115	114	117
275	4	220	221	222
276	1	157	159	161
277	6	96	97	98
278	1	213	244	242
279	1	23	25	27
280	1	28	29	30
281	1	98	108	106
282	1	135	134	199
283	4	103	106	107
284	4	156	167	168
285	1	159	161	165
286	1	29	49	47
287	1	124	126	128
288	4	161	165	166
289	4	36	38	39
290	6	98	97	114
291	4	16	18	19
292	1	9	11	13
293	6	173	172	174
294	4	152	151	153
295	1	25	27	54
296	5	13	14	15
297	6	190	189	192
298	4	100	99	101
299	7	184	183	185
300	7	193	192	194
301	1	7	8	82
302	1	132	134	135
303	4	151	153	154
304	1	156	167	165
305	4	8	9	10
306	4	55	54	56
307	1	103	104	105
308	4	8	82	83
309	3	123	122	210
310	1	137	136	197
311	6	63	61	64
312	1	220	221	223
313	1	91	92	94
314	1	212	211	213
315	1	134	199	200
316	1	16	15	75
317	6	174	172	175
318	1	141	195	197
319	6	219	234	235
320	6	185	183	186
321	4	230	232	233
322	1	150	171	172
323	1	9	8	82
324	4	84	86	87
325	4	221	223	224
326	6	58	61	62
327	4	138	137	139
328	5	134	135	136
329	6	64	67	70
330	6	143	142	192
331	1	89	91	120
332	1	216	218	219
333	6	235	234	237
334	1	78	77	82
335	1	130	132	134
336	1	5	7	8
337	4	150	151	152
338	4	23	25	26
339	1	89	91	92
340	4	128	206	207
341	4	107	106	108
342	1	122	123	208
343	1	3	5	7
344	4	6	5	7
345	2	2	1	122
346	5	27	28	29
347	4	93	92	94
348	1	35	36	38
349	1	132	134	199
350	6	143	142	180
351	1	94	96	118
352	4	106	108	109
353	6	183	186	189
354	6	142	192	189
355	1	34	35	36
356	4	199	204	205
357	6	171	172	175
358	1	150	151	153
359	1	7	84	86
360	4	43	45	46
361	1	136	197	195
362	4	91	120	121
363	1	225	226	227
364	6	186	189	190
365	6	202	200	203
366	4	95	94	96
367	4	218	242	243
368	4	215	214	216
369	6	171	172	173
370	1	36	38	40
371	1	128	129	130
372	4	170	169	171
373	1	223	225	230
374	6	142	180	183
375	4	102	101	103
376	6	51	50	53
377	6	20	21	70
378	1	122	123	124
379	4	157	159	160
380	1	104	211	213
381	6	199	200	202
382	4	143	144	145
383	1	225	230	232
384	6	67	70	72
385	4	217	216	218
386	6	61	64	65
387	1	104	103	106
388	6	116	114	117
389	6	98	97	110
390	3	88	1	122
391	1	30	32	34
392	7	71	70	72
393	6	182	180	183
394	4	39	38	40
395	1	143	178	176
396	1	130	129	204
397	4	242	244	245
398	6	180	183	184
399	6	49	50	52
400	1	157	156	167
401	4	133	132	134
402	6	173	172	175
403	1	99	98	108
404	4	119	118	120
405	4	33	32	34
406	1	18	20	21
407	4	130	132	133
408	4	48	47	49
409	4	96	118	119
410	6	61	64	67
411	6	240	238	241
412	4	44	43	45
413	8	227	226	228
414	1	214	213	244
415	6	21	58	61
416	1	13	77	82
417	1	14	13	77
418	1	123	124	126
419	4	145	144	146
420	6	183	186	187
421	4	160	159	161
422	1	36	35	45
423	6	52	50	53
424	1	2	3	5
425	1	155	156	167
426	1	105	104	211
427	3	2	1	88
428	4	31	30	32
429	1	3	2	86
430	6	111	110	113
431	1	156	155	169
432	6	60	58	61
433	1	94	96	97
434	3	40	41	42
435	6	96	97	114
436	1	18	20	73
437	1	144	146	148
438	6	186	189	191
439	4	213	244	245
440	4	137	139	140
441	4	34	47	48
442	1	150	171	169
443	1	149	150	171
444	6	97	114	116
445	6	235	234	236
446	6	58	21	70
447	1	153	155	169
448	1	142	143	178
449	1	27	54	56

Dihedrals

1	1	35	45	43	44
2	7	141	142	180	181
3	6	29	49	50	53
4	7	235	234	219	238
5	7	98	97	114	117
6	5	29	28	27	54
7	1	102	101	103	106
8	1	133	132	134	135
9	19	181	180	183	185
10	1	23	22	56	57
11	1	8	9	11	12
12	1	219	220	221	223
13	1	98	99	101	103
14	1	103	106	108	109
15	2	208	123	122	210
16	7	22	21	58	59
17	1	27	54	56	57
18	19	187	186	189	191
19	1	138	137	139	140
20	1	34	35	36	37
21	4	5	7	8	82
22	1	211	213	244	245
23	1	98	108	106	103
24	1	12	11	13	14
25	1	152	151	150	171
26	16	103	104	211	213
27	8	142	192	189	191
28	1	8	7	84	86
29	1	147	146	148	176
30	8	66	64	67	70
31	6	134	199	200	203
32	6	18	20	21	70
33	1	30	32	34	35
34	1	143	178	176	148
35	8	58	61	64	65
36	1	8	9	11	13
37	1	31	30	32	34
38	2	38	40	41	89
39	7	20	21	58	59
40	1	155	169	171	172
41	9	58	21	70	67
41	10	58	21	70	67
41	11	58	21	70	67
42	1	9	8	82	83
43	1	231	230	232	233
44	19	60	58	61	63
45	1	93	92	94	96
46	1	30	32	34	47
47	1	126	128	206	208
48	6	56	22	21	70
49	1	144	143	178	176
50	1	39	38	40	43
51	1	130	129	204	205
52	1	133	132	134	199
53	6	96	97	98	99
54	16	223	225	226	228
55	1	15	75	73	20
56	9	58	61	64	67
56	10	58	61	64	67
56	11	58	61	64	67
57	1	32	34	47	48
58	6	96	97	98	108
59	6	98	97	96	118
60	1	127	126	128	129
61	7	218	219	238	240
62	1	150	171	169	170
63	6	81	78	77	82
64	1	160	159	161	162
65	5	150	149	148	176
66	7	22	21	58	60
67	1	21	20	73	74
68	1	138	137	139	141
69	1	147	146	148	149
70	2	164	162	161	165
71	1	149	150	171	169
72	1	221	220	232	233
73	1	99	98	108	106
74	8	142	180	183	185
75	1	154	153	155	169
76	1	5	7	84	86
77	1	220	232	230	231
78	1	15	16	18	20
79	1	127	126	128	206
80	19	69	67	70	72
81	1	30	29	49	47
82	1	35	36	38	40
83	7	98	97	110	113
84	1	22	56	54	55
85	1	151	150	171	169
86	7	20	21	58	60
87	1	156	155	169	171
88	1	15	75	73	74
89	7	96	97	110	113
90	1	136	197	195	141
91	1	123	124	126	127
92	1	216	214	213	244
93	1	37	36	38	40
94	6	108	98	97	110
95	7	220	219	234	237
96	1	96	118	120	121
97	1	74	73	75	76
98	1	97	98	99	100
99	1	220	232	230	225
100	8	21	58	61	62
101	1	1	2	86	87
102	6	13	77	78	80
103	1	139	137	136	197
104	1	100	99	101	103
105	1	157	159	161	165
106	1	28	29	49	50
107	6	238	219	218	242
108	2	1	122	123	124
109	7	110	97	114	115
110	1	99	101	103	104
111	5	134	135	136	197
112	1	153	155	169	171
113	5	15	14	13	77
114	19	182	180	183	184
115	1	101	99	98	108
116	19	191	189	192	193
117	7	22	21	58	61
118	1	216	218	242	244
119	8	60	58	61	64
120	1	213	244	242	218
121	1	23	22	56	54
122	1	220	221	223	224
123	1	34	35	36	38
124	6	20	21	22	23
125	1	94	96	118	120
126	1	122	123	124	126
127	7	236	234	219	238
128	1	8	7	84	85
129	1	177	176	178	179
130	1	16	18	20	21
131	1	159	157	156	167
132	1	20	73	75	76
133	8	61	64	67	68
134	1	215	214	216	217
135	1	156	155	169	170
136	6	216	218	219	238
137	7	20	21	58	61
138	5	25	27	28	29
139	1	12	11	13	77
140	1	18	16	15	75
141	1	36	35	45	46
142	19	68	67	70	71
143	6	22	21	20	73
144	2	42	41	40	43
145	8	184	183	186	189
146	19	187	186	189	190
147	1	48	47	49	50
148	6	18	20	21	22
149	8	188	186	189	192
150	1	149	150	171	172
151	1	18	20	73	75
152	8	183	186	189	190
153	1	28	29	30	32
154	1	40	43	45	46
155	1	2	86	84	85
156	1	125	124	126	127
157	6	141	142	143	178
158	1	28	27	54	55
159	1	211	213	214	215
160	7	141	142	192	193
161	19	191	189	192	194
162	20	225	226	228	229
163	1	214	213	244	245
164	8	180	142	192	193
165	1	153	155	169	170
166	1	130	132	134	199
167	7	218	219	238	241
168	1	142	141	195	196
169	1	145	144	146	148
170	4	45	35	34	47
171	1	150	151	153	154
172	1	16	18	20	73
173	1	126	128	206	207
174	1	21	22	23	24
175	1	29	49	47	34
176	1	94	92	91	120
177	1	4	3	5	6
178	1	22	23	25	27
179	1	149	150	151	153
180	6	13	77	78	81
181	6	144	143	142	192
182	1	122	123	208	209
183	1	3	2	86	87
184	1	137	136	197	195
185	1	91	92	94	95
186	1	6	5	7	84
187	6	203	200	199	204
188	1	33	32	34	47
189	2	86	2	1	122
190	7	98	97	110	112
191	7	112	110	97	114
192	1	129	130	132	134
193	6	169	171	172	173
194	1	149	148	176	177
195	6	29	49	50	51
196	16	101	103	104	211
197	7	141	142	192	194
198	1	97	96	118	120
199	1	5	3	2	86
200	8	180	142	192	194
201	1	155	156	157	159
202	19	59	58	61	62
203	1	32	34	47	49
204	1	151	153	155	156
205	1	38	40	43	44
206	1	131	130	132	133
207	1	157	156	167	165
208	19	185	183	186	188
209	1	155	156	157	158
210	1	221	223	225	230
211	8	61	64	67	69
212	1	156	167	165	166
213	1	137	136	197	198
214	1	24	23	25	27
215	4	126	128	129	130
216	1	157	159	161	162
217	8	181	180	183	186
218	1	222	221	223	224
219	19	63	61	64	66
220	1	31	30	29	49
221	1	91	120	118	119
222	19	184	183	186	187
223	1	150	151	153	155
224	6	178	143	142	192
225	1	156	167	165	161
226	1	126	124	123	208
227	1	213	244	242	243
228	6	232	220	219	238
229	1	217	216	218	242
230	1	16	15	75	76
231	1	143	144	146	148
232	1	39	38	40	41
233	1	146	148	176	177
234	16	90	89	91	120
235	1	128	129	204	199
236	1	145	144	146	147
237	2	163	162	161	165
238	1	32	30	29	49
239	6	13	77	78	79
240	1	7	8	9	10
241	1	94	96	118	119
242	4	167	156	155	169
243	1	196	195	197	198
244	1	21	20	73	75
245	1	28	29	49	47
246	1	1	2	3	4
247	16	90	89	91	92
248	1	7	8	82	83
249	7	22	21	70	71
250	7	111	110	97	114
251	8	21	58	61	63
252	1	123	208	206	207
253	2	43	40	41	89
254	6	178	143	142	180
255	8	183	186	189	191
256	7	143	142	192	193
257	3	2	1	122	210
258	16	212	211	213	214
259	7	234	219	238	239
260	8	181	180	142	192
261	16	103	104	211	212
262	8	64	67	70	72
263	1	132	130	129	204
264	1	215	214	216	218
265	1	159	161	165	167
266	19	190	189	192	193
267	6	221	220	219	234
268	1	21	22	56	57
269	1	19	18	20	73
270	1	135	136	197	195
271	6	169	171	172	174
272	1	22	23	25	26
273	1	125	124	126	128
274	1	139	141	195	197
275	1	154	153	155	156
276	1	224	223	225	230
277	1	36	35	45	43
278	1	25	27	54	56
279	1	36	38	40	43
280	1	104	103	106	108
281	7	218	219	234	236
282	9	21	70	67	64
282	10	21	70	67	64
282	11	21	70	67	64
283	2	1	122	123	208
284	5	13	14	15	16
285	1	129	130	132	133
286	8	187	186	189	192
287	1	9	11	13	77
288	1	142	143	144	146
289	19	66	64	67	68
290	9	142	180	183	186
290	10	142	180	183	186
290	11	142	180	183	186
291	4	82	8	7	84
292	6	134	199	200	201