Title

99 atoms
104 bonds
163 angles
247 dihedrals
162 impropers

7 atom types
11 bond types
6 angle types
17 dihedral types
3 improper types
-14.77400017 85.22599983 xlo xhi
-3.420000076 96.57999992 ylo yhi
-1.710999966 98.28900003 zlo zhi
0.0 0.0 0.0 xy xz yz

Masses

1	14.00672
2	12.01078
3	1.007947
4	15.99943
5	1.007947
6	15.99943
7	1.007947


Pair Coeffs

1	0.16769152	3.206876
2	0.086879315	3.4806469
3	0.015611343	2.5725815
4	0.2102061	3.0398122
5	0.014090815	1.1034277
6	0.20947353	2.99716
7	1.2326e-05	0.53453923

Bond Coeffs

1 harmonic	390.03554688505	1.390160554689
2 harmonic	505.144496193	1.019481865027
3 harmonic	422.7150220147	1.421786517481
4 harmonic	360.7852444772	1.387193227181
5 harmonic	397.2545789619	1.085358495916
6 harmonic	279.1350963404	1.454628925034
7 harmonic	399.1592953295	1.371688562017
8 harmonic	582.698766451	1.225198386222
9 harmonic	492.76746816345	1.381897776683
10 harmonic	385.7604595587	1.369745182308
11 harmonic	543.5267831885	0.9716763312559


Angle Coeffs

1 harmonic	57.8982893754	126.8062420451
2 harmonic	55.42182150775	117.3465570514
3 harmonic	63.44422595415	115.5071327674
4 harmonic	34.066775159195	129.1835929926
5 harmonic	65.09061609600001	110.3538806181
6 harmonic	201.41175231035	127.4691416191


Dihedral Coeffs

1 fourier 1	3.661930099076	2	180
2 fourier 1	1.193093382682	2	180
3 fourier 1	0.02021088501612	1	0
4 fourier 1	1.163235555439	2	180
5 fourier 1	5.294842998052	2	180
6 fourier 1	0.2347635637734	2	180
7 fourier 1	0.4747469131102	3	0
8 fourier 1	0.9974165607242	2	180
9 fourier 1	3.101948770557	2	180
10 fourier 1	-0.4252153282372	1	0
11 fourier 1	1.809047390003	2	180
12 fourier 1	-0.04816277792592	1	0
13 fourier 1	2.348375642009	2	180
14 fourier 1	1.256156174911	1	0
15 fourier 1	2.687457892086	2	180
16 fourier 1	2.772607909663	2	180
17 fourier 1	0.09692684957115	1	0


Improper Coeffs

1 0.3666666666666667	-1	2
2 0.3333333333333333	-1	2
3 3.5	-1	2


Atoms

1	1	1	-0.41257301	-6.9429998	-0.057	-0.81300002
2	1	2	0.119455	-5.6259999	-0.13500001	-0.25999999
3	1	2	-0.41350901	-5.3800001	-0.917	0.80299997
4	1	3	0.234299	-6.1729999	-1.5	1.255
5	1	2	-0.084705003	-4.0209999	-0.98400003	1.375
6	1	3	0.22772001	-3.835	-1.599	2.247
7	1	2	-0.28173101	-3.026	-0.27700001	0.829
8	1	3	0.22092301	-2.04	-0.31400001	1.275
9	1	2	-0.081060998	-3.277	0.56900001	-0.368
10	1	2	0.037333999	-2.201	1.396	-0.95700002
11	1	2	-0.460152	-0.94400001	0.98299998	-1.179
12	1	2	0.60438001	-0.479	-0.419	-1.0599999
13	1	4	-0.56143802	-1.279	-1.363	-1.301
14	1	2	-0.460152	0.92299998	-0.75800002	-0.73900002
15	1	2	0.037333999	1.802	0.133	-0.25400001
16	1	2	-0.087817997	3.2130001	-0.189	0.071999997
17	1	2	-0.28173101	3.6340001	-1.4400001	0.35699999
18	1	3	0.22092301	2.9530001	-2.279	0.375
19	1	2	-0.102175	5.0500002	-1.693	0.69199997
20	1	3	0.22772001	5.3769999	-2.701	0.91100001
21	1	2	-0.38866401	5.9239998	-0.68199998	0.73100001
22	1	3	0.23186301	6.96	-0.87599999	0.98000002
23	1	2	0.21910501	5.4770002	0.69800001	0.44100001
24	1	1	-0.53251302	6.415	1.776	0.493
25	1	5	0.32465199	6.1209998	2.7579999	0.292
26	1	2	-0.34078601	4.191	0.92799997	0.133
27	1	3	0.229196	3.859	1.938	-0.081
28	1	3	0.217491	1.495	1.161	-0.112
29	1	3	0.177148	1.222	-1.783	-0.90399998
30	1	3	0.177148	-0.236	1.717	-1.541
31	1	3	0.217491	-2.448	2.418	-1.219
32	1	2	-0.33917999	-4.5240002	0.65399998	-0.86000001
33	1	3	0.229296	-4.7340002	1.2920001	-1.711
34	1	5	0.379163	-7.1339998	0.55199999	-1.6390001
35	1	2	0.771905	7.434	1.5930001	0.73799998
36	1	4	-0.63908499	7.9250002	0.45899999	0.49399999
37	1	2	-0.34862301	8.2419996	2.6630001	1.352
38	1	2	-0.063307002	9.5340004	2.47	1.676
39	1	3	0.230827	10.021	1.52	1.495
40	1	2	-0.234808	10.317	3.5610001	2.29
41	1	3	0.223634	11.356	3.3959999	2.5469999
42	1	2	-0.0092399996	9.7480001	4.7480001	2.527
43	1	3	0.230767	10.335	5.5380001	2.9779999
44	1	2	-0.28676099	8.3240004	4.9770002	2.1760001
45	1	2	0.59246403	7.6880002	6.2820001	2.434
46	1	4	-0.49725601	8.3389997	7.2249999	2.957
47	1	2	0.066262998	7.6139998	3.9809999	1.617
48	1	3	0.24799199	6.573	4.1329999	1.355
49	1	1	-0.41257301	-7.7329998	-0.60500002	-0.405
50	1	2	0.119455	-8.0430002	-0.528	0.98900002
51	1	2	-0.41350901	-7.3189998	0.255	1.8049999
52	1	3	0.234299	-6.4910002	0.83700001	1.419
53	1	2	-0.084705003	-7.6370001	0.322	3.2449999
54	1	3	0.22772001	-7.0339999	0.93599999	3.9000001
55	1	2	-0.28173101	-8.6590004	-0.38600001	3.7409999
56	1	3	0.22092301	-8.8640003	-0.34799999	4.803
57	1	2	-0.081060998	-9.4899998	-1.2309999	2.8440001
58	1	2	0.037333999	-10.592	-2.0580001	3.3800001
59	1	2	-0.460152	-11.5	-1.645	4.2779999
60	1	2	0.60438001	-11.672	-0.243	4.7259998
61	1	4	-0.56143802	-11.407	0.70099998	3.934
62	1	2	-0.460152	-12.221	0.094999999	6.0549998
63	1	2	0.037333999	-12.334	-0.79500002	7.053
64	1	2	-0.035101999	-12.884	-0.47299999	8.3929996
65	1	2	-0.28173101	-12.895	0.77700001	8.901
66	1	3	0.22092301	-12.486	1.617	8.3559999
67	1	2	-0.036068998	-13.44	1.031	10.25
68	1	3	0.22772001	-13.451	2.039	10.644
69	1	2	-0.45048299	-13.914	0.02	10.986
70	1	3	0.23839	-14.31	0.214	11.975
71	1	2	0.32031301	-13.892	-1.36	10.454
72	1	1	-0.84762198	-14.392	-2.438	11.249
73	1	5	0.37570101	-14.774	-2.2590001	12.204
74	1	5	0.37570101	-14.385	-3.4200001	10.892
75	1	2	-0.40539801	-13.399	-1.59	9.2250004
76	1	3	0.238989	-13.382	-2.5999999	8.8319998
77	1	3	0.217491	-12.041	-1.823	6.8850002
78	1	3	0.177148	-12.529	1.1210001	6.204
79	1	3	0.177148	-12.205	-2.3800001	4.6459999
80	1	3	0.217491	-10.663	-3.0799999	3.0280001
81	1	2	-0.33917999	-9.1700001	-1.317	1.541
82	1	3	0.229296	-9.743	-1.954	0.87800002
83	1	5	0.379163	-8.2959995	-1.214	-1.039
84	1	2	0.59246403	6.6500001	6.4429998	2.1760001
85	1	4	-0.49725601	6.2950001	6.3249998	0.972
86	1	2	-0.28221199	5.6789999	6.7940001	3.23
87	1	2	-0.0092399996	4.3800001	7.0019999	2.948
88	1	3	0.230767	4.007	6.9169998	1.9349999
89	1	2	-0.235962	3.4330001	7.3530002	4.0240002
90	1	3	0.223634	2.3900001	7.5180001	3.7869999
91	1	2	-0.048516002	3.8599999	7.4660001	5.2859998
92	1	3	0.24131601	3.1500001	7.724	6.0619998
93	1	2	-0.21248899	5.289	7.2410002	5.619
94	1	2	0.84307301	5.7459998	7.3699999	7.0209999
95	1	4	-0.46636301	6.9569998	7.1820002	7.323
96	1	6	-0.660532	4.8379998	7.7010002	8.0220003
97	1	7	0.42465001	5.1360002	7.7930002	8.9860001
98	1	2	0.083322003	6.1490002	6.921	4.631
99	1	3	0.25810799	7.197	6.7509999	4.848

Bonds

1	1	1	2
2	2	1	34
3	3	1	49
4	4	2	3
5	4	2	32
6	5	3	4
7	4	3	5
8	5	5	6
9	4	5	7
10	5	7	8
11	4	7	9
12	6	9	10
13	4	9	32
14	7	10	11
15	5	10	31
16	6	11	12
17	5	11	30
18	8	12	13
19	6	12	14
20	7	14	15
21	5	14	29
22	6	15	16
23	5	15	28
24	4	16	17
25	4	16	26
26	5	17	18
27	4	17	19
28	5	19	20
29	4	19	21
30	5	21	22
31	4	21	23
32	1	23	24
33	4	23	26
34	2	24	25
35	9	24	35
36	5	26	27
37	5	32	33
38	8	35	36
39	6	35	37
40	4	37	38
41	4	37	47
42	5	38	39
43	4	38	40
44	5	40	41
45	4	40	42
46	5	42	43
47	4	42	44
48	6	44	45
49	4	44	47
50	8	45	46
51	6	45	84
52	5	47	48
53	1	49	50
54	2	49	83
55	4	50	51
56	4	50	81
57	5	51	52
58	4	51	53
59	5	53	54
60	4	53	55
61	5	55	56
62	4	55	57
63	6	57	58
64	4	57	81
65	7	58	59
66	5	58	80
67	6	59	60
68	5	59	79
69	8	60	61
70	6	60	62
71	7	62	63
72	5	62	78
73	6	63	64
74	5	63	77
75	4	64	65
76	4	64	75
77	5	65	66
78	4	65	67
79	5	67	68
80	4	67	69
81	5	69	70
82	4	69	71
83	1	71	72
84	4	71	75
85	2	72	73
86	2	72	74
87	5	75	76
88	5	81	82
89	8	84	85
90	6	84	86
91	4	86	87
92	4	86	98
93	5	87	88
94	4	87	89
95	5	89	90
96	4	89	91
97	5	91	92
98	4	91	93
99	6	93	94
100	4	93	98
101	8	94	95
102	10	94	96
103	11	96	97
104	5	98	99

Angles

1	4	53	55	56
2	1	49	50	81
3	4	20	19	21
4	4	60	62	78
5	1	12	14	15
6	3	1	49	83
7	4	70	69	71
8	4	65	67	68
9	1	91	93	94
10	1	58	59	60
11	3	34	1	49
12	1	17	19	21
13	4	8	7	9
14	1	11	12	14
15	1	59	60	62
16	1	93	94	95
17	4	38	40	41
18	4	62	63	77
19	1	45	44	47
20	1	42	44	45
21	1	3	2	32
22	1	65	67	69
23	1	14	15	16
24	1	50	81	57
25	4	52	51	53
26	4	4	3	5
27	1	3	5	7
28	4	86	98	99
29	1	21	23	26
30	1	45	84	85
31	1	1	2	32
32	2	2	1	49
33	1	44	45	84
34	4	16	17	18
35	1	55	57	81
36	4	64	65	66
37	4	86	87	88
38	1	93	94	96
39	4	50	51	52
40	1	24	35	37
41	4	14	15	28
42	1	7	9	32
43	1	51	50	81
44	4	54	53	55
45	1	49	50	51
46	1	91	93	98
47	4	9	32	33
48	4	16	26	27
49	4	64	63	77
50	4	41	40	42
51	1	84	86	98
52	1	44	45	46
53	1	45	84	86
54	1	64	75	71
55	4	67	69	70
56	1	13	12	14
57	1	50	51	53
58	1	16	26	23
59	4	68	67	69
60	1	69	71	75
61	1	89	91	93
62	1	60	62	63
63	1	63	64	75
64	1	53	55	57
65	1	55	57	58
66	4	9	10	31
67	4	2	32	33
68	4	10	11	30
69	4	50	81	82
70	1	67	69	71
71	2	1	49	50
72	1	9	10	11
73	4	40	42	43
74	1	15	16	17
75	4	51	53	54
76	1	38	40	42
77	1	37	47	44
78	1	35	37	38
79	1	87	86	98
80	1	69	71	72
81	1	46	45	84
82	4	90	89	91
83	1	57	58	59
84	3	25	24	35
85	3	2	1	34
86	1	40	42	44
87	3	23	24	25
88	3	73	72	74
89	1	72	71	75
90	4	5	7	8
91	4	2	3	4
92	4	92	91	93
93	4	71	75	76
94	4	12	14	29
95	1	16	17	19
96	4	57	81	82
97	1	64	65	67
98	1	84	86	87
99	1	86	87	89
100	4	87	89	90
101	1	65	64	75
102	1	42	44	47
103	1	36	35	37
104	4	39	38	40
105	1	85	84	86
106	1	61	60	62
107	4	37	38	39
108	4	64	75	76
109	1	38	37	47
110	4	19	21	22
111	4	58	59	79
112	1	2	32	9
113	1	5	7	9
114	4	37	47	48
115	1	58	57	81
116	1	15	16	26
117	4	56	55	57
118	1	10	9	32
119	1	1	2	3
120	1	21	23	24
121	4	93	98	99
122	4	23	26	27
123	1	35	37	47
124	1	63	64	65
125	1	19	21	23
126	4	44	47	48
127	1	86	98	93
128	4	12	11	30
129	1	24	23	26
130	1	94	93	98
131	4	18	17	19
132	4	3	5	6
133	4	88	87	89
134	4	11	10	31
135	1	51	53	55
136	4	16	15	28
137	4	15	14	29
138	3	71	72	73
139	1	7	9	10
140	1	24	35	36
141	4	57	58	80
142	4	6	5	7
143	4	66	65	67
144	5	94	96	97
145	4	59	58	80
146	6	95	94	96
147	1	59	60	61
148	2	23	24	35
149	1	10	11	12
150	1	62	63	64
151	3	50	49	83
152	1	2	3	5
153	1	17	16	26
154	4	60	59	79
155	1	87	89	91
156	3	71	72	74
157	4	63	62	78
158	4	22	21	23
159	4	17	19	20
160	4	43	42	44
161	4	89	91	92
162	1	37	38	40
163	1	11	12	13

Dihedrals

1	5	60	59	58	80
2	1	66	65	64	75
3	8	13	12	14	29
4	2	32	2	1	34
5	1	87	86	98	99
6	1	1	2	32	33
7	5	30	11	10	31
8	1	51	53	55	57
9	1	51	50	81	57
10	8	58	59	60	62
11	1	90	89	91	92
12	5	60	62	63	64
13	1	2	3	5	7
14	1	1	2	3	5
15	1	18	17	19	20
16	1	15	16	26	27
17	8	46	45	44	47
18	1	86	87	89	90
19	8	44	45	84	85
20	1	54	53	55	57
21	1	67	65	64	75
22	13	25	24	35	36
22	14	25	24	35	36
23	1	88	87	86	98
24	1	38	40	42	43
25	4	65	64	63	77
26	1	21	23	26	27
27	1	39	38	37	47
28	1	88	87	89	90
29	8	91	93	94	95
30	6	10	11	12	13
30	7	10	11	12	13
31	1	15	16	26	23
32	4	11	10	9	32
33	1	16	17	19	21
34	1	39	38	40	41
35	1	90	89	91	93
36	1	84	86	87	88
37	1	68	67	69	70
38	8	13	12	11	30
39	4	14	15	16	17
40	4	62	63	64	65
41	5	79	59	58	80
42	8	45	84	86	98
43	1	86	87	89	91
44	8	95	94	93	98
45	1	92	91	93	98
46	8	44	45	84	86
47	1	3	2	32	33
48	11	25	24	35	37
48	12	25	24	35	37
49	1	24	23	26	27
50	5	12	11	10	31
51	4	26	16	15	28
52	1	6	5	7	8
53	4	17	16	15	28
54	1	5	7	9	10
55	1	49	50	51	52
56	4	55	57	58	59
57	4	7	9	10	31
58	1	39	38	40	42
59	1	92	91	93	94
60	1	64	65	67	69
61	1	67	69	71	75
62	1	19	21	23	26
63	1	15	16	17	18
64	1	35	37	38	40
65	1	1	2	32	9
66	4	7	9	10	11
67	1	54	53	55	56
68	1	86	98	93	94
69	8	96	94	93	98
70	1	58	57	81	82
71	1	55	57	81	82
72	4	80	58	57	81
73	1	51	50	81	82
74	4	75	64	63	77
75	1	18	17	16	26
76	4	55	57	58	80
77	1	4	3	2	32
78	1	2	32	9	7
79	5	28	15	14	29
80	2	3	2	1	34
81	1	40	42	44	47
82	4	59	58	57	81
83	5	9	10	11	12
84	1	4	3	5	7
85	1	52	51	53	54
86	1	43	42	44	47
87	1	70	69	71	75
88	8	62	60	59	79
89	1	15	16	17	19
90	1	40	38	37	47
91	1	16	26	23	21
92	1	17	16	26	27
93	1	50	51	53	54
94	3	34	1	49	50
95	1	63	64	75	71
96	3	2	1	49	83
97	4	14	15	16	26
98	1	22	21	23	24
99	1	89	91	93	98
100	9	23	24	35	36
100	10	23	24	35	36
101	2	1	49	50	81
102	8	11	12	14	29
103	1	17	19	21	22
104	1	37	47	44	45
105	1	63	64	75	76
106	1	65	64	75	71
107	1	17	16	26	23
108	1	18	17	19	21
109	1	86	98	93	91
110	1	7	9	32	33
111	8	45	84	86	87
112	1	66	65	67	68
113	1	37	38	40	41
114	1	3	2	32	9
115	15	93	94	96	97
116	1	89	91	93	94
117	1	87	89	91	92
118	1	38	40	42	44
119	1	88	87	89	91
120	8	85	84	86	98
121	1	50	51	53	55
122	8	91	93	94	96
123	8	14	12	11	30
124	8	10	11	12	14
125	1	56	55	57	81
126	5	60	62	63	77
127	4	62	63	64	75
128	1	84	86	87	89
129	1	19	17	16	26
130	1	41	40	42	43
131	1	63	64	65	66
132	1	65	67	69	70
133	1	68	67	69	71
134	5	77	63	62	78
135	8	47	44	45	84
136	1	94	93	98	99
137	8	42	44	45	84
138	5	12	14	15	28
139	2	51	50	49	83
140	5	57	58	59	79
141	2	26	23	24	35
142	2	21	23	24	35
143	1	8	7	9	10
144	1	50	81	57	58
145	2	74	72	71	75
146	1	6	5	7	9
147	1	49	50	51	53
148	1	87	86	98	93
149	1	53	55	57	81
150	2	73	72	71	75
151	1	41	40	42	44
152	1	65	67	69	71
153	8	42	44	45	46
154	8	24	35	37	38
155	8	46	45	84	85
156	1	5	3	2	32
157	1	51	53	55	56
158	8	36	35	37	38
159	2	69	71	72	73
160	2	1	49	50	51
161	1	84	86	98	99
162	1	69	71	75	76
163	2	32	2	1	49
164	5	57	58	59	60
165	1	2	3	5	6
166	1	56	55	57	58
167	1	67	69	71	72
168	1	89	87	86	98
169	1	49	50	81	57
170	2	25	24	23	26
171	5	12	14	15	16
172	6	13	12	14	15
172	7	13	12	14	15
173	5	64	63	62	78
174	1	52	51	53	55
175	1	38	37	47	48
176	1	65	64	75	76
177	1	72	71	75	76
178	1	50	81	57	55
179	2	81	50	49	83
180	1	10	9	32	33
181	8	46	45	84	86
182	8	59	60	62	63
183	1	35	37	47	44
184	1	16	17	19	20
185	2	69	71	72	74
186	8	85	84	86	87
187	1	3	5	7	8
188	8	61	60	59	79
189	1	64	75	71	72
190	11	23	24	35	37
190	12	23	24	35	37
191	1	17	19	21	23
192	1	2	32	9	10
193	1	49	50	81	82
194	1	38	37	47	44
195	1	19	21	23	24
196	3	2	1	49	50
197	1	70	69	71	72
198	1	42	44	47	48
199	1	53	55	57	58
200	1	66	65	67	69
201	1	20	19	21	22
202	1	37	38	40	42
203	1	45	44	47	48
204	1	87	89	91	93
205	1	37	47	44	42
206	5	9	10	11	30
207	8	11	12	14	15
208	1	52	51	50	81
209	1	40	42	44	45
210	1	3	5	7	9
211	1	5	7	9	32
212	1	22	21	23	26
213	4	31	10	9	32
214	1	63	64	65	67
215	1	43	42	44	45
216	8	24	35	37	47
217	8	61	60	62	78
218	1	64	65	67	68
219	1	35	37	38	39
220	8	36	35	37	47
221	8	59	60	62	78
222	6	58	59	60	61
222	7	58	59	60	61
223	1	20	19	21	23
224	1	64	75	71	69
225	2	21	23	24	25
226	1	16	26	23	24
227	1	91	93	98	99
228	1	8	7	9	32
229	1	1	2	3	4
230	1	35	37	47	48
231	1	53	51	50	81
232	6	61	60	62	63
232	7	61	60	62	63
233	16	95	94	96	97
233	17	95	94	96	97
234	5	16	15	14	29
235	3	34	1	49	83
236	1	84	86	98	93
237	1	4	3	5	6
238	2	3	2	1	49

Impropers

1	1	15	16	28	14
4	1	37	35	38	47
6	1	89	91	87	90
7	2	72	74	71	73
10	1	44	45	47	42
12	1	75	76	64	71
14	1	47	48	37	44
17	1	55	53	56	57
18	2	49	50	83	1
19	1	51	52	53	50
22	1	44	47	42	45
24	1	57	81	55	58
25	1	2	32	1	3
26	1	71	75	69	72
34	2	1	49	2	34
36	1	21	19	22	23
39	1	69	70	71	67
41	1	65	66	67	64
44	1	11	10	12	30
45	1	45	44	46	84
46	1	9	32	7	10
47	1	32	2	9	33
48	2	49	83	1	50
50	1	42	43	44	40
54	1	91	89	92	93
55	1	89	87	90	91
57	1	58	57	59	80
58	1	5	3	6	7
60	1	11	12	30	10
63	1	75	64	71	76
64	1	58	59	80	57
67	1	64	63	65	75
68	1	98	93	99	86
72	1	65	67	64	66
79	1	21	23	19	22
80	1	19	21	17	20
81	1	91	92	93	89
83	1	93	91	94	98
84	1	10	9	11	31
86	1	69	71	67	70
93	1	37	47	35	38
94	1	7	5	8	9
98	1	14	15	29	12
100	1	14	29	12	15
101	1	35	24	36	37
102	1	71	69	72	75
104	1	45	46	84	44
107	1	7	8	9	5
108	1	64	75	63	65
109	1	42	40	43	44
110	1	47	37	44	48
112	1	86	98	84	87
113	1	16	17	26	15
114	2	1	34	49	2
117	1	93	94	98	91
118	1	84	86	45	85
126	3	94	96	93	95
127	1	50	49	51	81
128	1	19	20	21	17
129	1	26	27	16	23
130	1	50	81	49	51
131	2	24	23	25	35
132	1	19	17	20	21
133	1	9	10	32	7
135	1	10	31	9	11
136	1	40	38	41	42
137	1	98	86	93	99
139	1	23	26	21	24
140	2	72	73	74	71
142	1	17	19	16	18
143	1	2	3	32	1
144	1	55	56	57	53
146	1	57	55	58	81
150	1	62	63	78	60
152	1	89	90	91	87
154	1	51	53	50	52
156	1	93	98	91	94
159	1	84	45	85	86
161	1	15	14	16	28
162	2	24	25	35	23
163	1	84	85	86	45
164	1	75	71	76	64
167	1	44	42	45	47
169	3	94	95	96	93
173	1	87	89	86	88
174	1	35	36	37	24
176	1	55	57	53	56
177	1	16	15	17	26
179	1	87	88	89	86
180	2	24	35	23	25
181	1	59	79	58	60
182	1	38	40	37	39
184	1	47	44	48	37
185	1	53	54	55	51
193	1	12	14	11	13
199	1	16	26	15	17
201	1	12	13	14	11
202	1	57	58	81	55
204	1	58	80	57	59
206	1	62	60	63	78
207	1	9	7	10	32
210	1	60	59	61	62
218	1	5	6	7	3
220	1	86	84	87	98
221	2	1	2	34	49
223	1	51	50	52	53
224	1	26	16	23	27
225	1	3	5	2	4
226	1	23	24	26	21
227	1	63	64	77	62
231	1	60	62	59	61
232	1	3	4	5	2
234	1	38	37	39	40
235	1	14	12	15	29
237	1	67	65	68	69
240	1	71	72	75	69
242	1	63	77	62	64
243	1	91	93	89	92
248	1	10	11	31	9
251	1	60	61	62	59
252	1	98	99	86	93
253	1	65	64	66	67
254	1	69	67	70	71
255	1	53	51	54	55
256	1	21	22	23	19
257	1	67	68	69	65
258	1	42	44	40	43
259	1	17	18	19	16
264	1	40	41	42	38
265	1	87	86	88	89
269	1	81	82	50	57
270	1	23	21	24	26
274	1	86	87	98	84
275	1	32	33	2	9
276	1	67	69	65	68
279	1	11	30	10	12
280	1	59	58	60	79
282	1	32	9	33	2
283	1	81	50	57	82
284	1	12	11	13	14
285	2	72	71	73	74
287	1	35	37	24	36
288	1	53	55	51	54
289	1	37	38	47	35
290	1	64	65	75	63
292	1	26	23	27	16
293	1	40	42	38	41
297	1	45	84	44	46
298	1	5	7	3	6
302	1	62	78	60	63
303	1	7	9	5	8
304	1	50	51	81	49
308	1	2	1	3	32
310	1	59	60	79	58
312	1	81	57	82	50
315	3	94	93	95	96
317	1	15	28	14	16
318	2	49	1	50	83
320	1	17	16	18	19
321	1	38	39	40	37
322	1	3	2	4	5
324	1	63	62	64	77
