Title

99 atoms
104 bonds
163 angles
247 dihedrals
162 impropers

7 atom types
11 bond types
6 angle types
17 dihedral types
3 improper types
-14.77400017 85.22599983 xlo xhi
-3.420000076 96.57999992 ylo yhi
-1.710999966 98.28900003 zlo zhi
0.0 0.0 0.0 xy xz yz

Masses

1	14.00672
2	12.01078
3	1.007947
4	15.99943
5	1.007947
6	15.99943
7	1.007947


Pair Coeffs

1	0.16769152	3.206876
2	0.086879315	3.4806469
3	0.015611343	2.5725815
4	0.2102061	3.0398122
5	0.014090815	1.1034277
6	0.20947353	2.99716
7	1.2326e-05	0.53453923

Bond Coeffs

1 harmonic	390.03554688505	1.390160554689
2 harmonic	505.144496193	1.019481865027
3 harmonic	422.7150220147	1.421786517481
4 harmonic	360.7852444772	1.387193227181
5 harmonic	397.2545789619	1.085358495916
6 harmonic	279.1350963404	1.454628925034
7 harmonic	399.1592953295	1.371688562017
8 harmonic	582.698766451	1.225198386222
9 harmonic	492.76746816345	1.381897776683
10 harmonic	385.7604595587	1.369745182308
11 harmonic	543.5267831885	0.9716763312559


Angle Coeffs

1 harmonic	57.8982893754	126.8062420451
2 harmonic	55.42182150775	117.3465570514
3 harmonic	63.44422595415	115.5071327674
4 harmonic	34.066775159195	129.1835929926
5 harmonic	65.09061609600001	110.3538806181
6 harmonic	201.41175231035	127.4691416191


Dihedral Coeffs

1 fourier 1	3.661930099076	2	180
2 fourier 1	1.193093382682	2	180
3 fourier 1	0.02021088501612	1	0
4 fourier 1	1.163235555439	2	180
5 fourier 1	5.294842998052	2	180
6 fourier 1	0.2347635637734	2	180
7 fourier 1	0.4747469131102	3	0
8 fourier 1	0.9974165607242	2	180
9 fourier 1	3.101948770557	2	180
10 fourier 1	-0.4252153282372	1	0
11 fourier 1	1.809047390003	2	180
12 fourier 1	-0.04816277792592	1	0
13 fourier 1	2.348375642009	2	180
14 fourier 1	1.256156174911	1	0
15 fourier 1	2.687457892086	2	180
16 fourier 1	2.772607909663	2	180
17 fourier 1	0.09692684957115	1	0


Improper Coeffs

1 0.3666666666666667	-1	2
2 0.3333333333333333	-1	2
3 3.5	-1	2


Atoms

1	1	1	-0.41257301	-6.9429998	-0.057	-0.81300002
2	1	2	0.119455	-5.6259999	-0.13500001	-0.25999999
3	1	2	-0.41350901	-5.3800001	-0.917	0.80299997
4	1	3	0.234299	-6.1729999	-1.5	1.255
5	1	2	-0.084705003	-4.0209999	-0.98400003	1.375
6	1	3	0.22772001	-3.835	-1.599	2.247
7	1	2	-0.28173101	-3.026	-0.27700001	0.829
8	1	3	0.22092301	-2.04	-0.31400001	1.275
9	1	2	-0.081060998	-3.277	0.56900001	-0.368
10	1	2	0.037333999	-2.201	1.396	-0.95700002
11	1	2	-0.460152	-0.94400001	0.98299998	-1.179
12	1	2	0.60438001	-0.479	-0.419	-1.0599999
13	1	4	-0.56143802	-1.279	-1.363	-1.301
14	1	2	-0.460152	0.92299998	-0.75800002	-0.73900002
15	1	2	0.037333999	1.802	0.133	-0.25400001
16	1	2	-0.087817997	3.2130001	-0.189	0.071999997
17	1	2	-0.28173101	3.6340001	-1.4400001	0.35699999
18	1	3	0.22092301	2.9530001	-2.279	0.375
19	1	2	-0.102175	5.0500002	-1.693	0.69199997
20	1	3	0.22772001	5.3769999	-2.701	0.91100001
21	1	2	-0.38866401	5.9239998	-0.68199998	0.73100001
22	1	3	0.23186301	6.96	-0.87599999	0.98000002
23	1	2	0.21910501	5.4770002	0.69800001	0.44100001
24	1	1	-0.53251302	6.415	1.776	0.493
25	1	5	0.32465199	6.1209998	2.7579999	0.292
26	1	2	-0.34078601	4.191	0.92799997	0.133
27	1	3	0.229196	3.859	1.938	-0.081
28	1	3	0.217491	1.495	1.161	-0.112
29	1	3	0.177148	1.222	-1.783	-0.90399998
30	1	3	0.177148	-0.236	1.717	-1.541
31	1	3	0.217491	-2.448	2.418	-1.219
32	1	2	-0.33917999	-4.5240002	0.65399998	-0.86000001
33	1	3	0.229296	-4.7340002	1.2920001	-1.711
34	1	5	0.379163	-7.1339998	0.55199999	-1.6390001
35	1	2	0.771905	7.434	1.5930001	0.73799998
36	1	4	-0.63908499	7.9250002	0.45899999	0.49399999
37	1	2	-0.34862301	8.2419996	2.6630001	1.352
38	1	2	-0.063307002	9.5340004	2.47	1.676
39	1	3	0.230827	10.021	1.52	1.495
40	1	2	-0.234808	10.317	3.5610001	2.29
41	1	3	0.223634	11.356	3.3959999	2.5469999
42	1	2	-0.0092399996	9.7480001	4.7480001	2.527
43	1	3	0.230767	10.335	5.5380001	2.9779999
44	1	2	-0.28676099	8.3240004	4.9770002	2.1760001
45	1	2	0.59246403	7.6880002	6.2820001	2.434
46	1	4	-0.49725601	8.3389997	7.2249999	2.957
47	1	2	0.066262998	7.6139998	3.9809999	1.617
48	1	3	0.24799199	6.573	4.1329999	1.355
49	1	1	-0.41257301	-7.7329998	-0.60500002	-0.405
50	1	2	0.119455	-8.0430002	-0.528	0.98900002
51	1	2	-0.41350901	-7.3189998	0.255	1.8049999
52	1	3	0.234299	-6.4910002	0.83700001	1.419
53	1	2	-0.084705003	-7.6370001	0.322	3.2449999
54	1	3	0.22772001	-7.0339999	0.93599999	3.9000001
55	1	2	-0.28173101	-8.6590004	-0.38600001	3.7409999
56	1	3	0.22092301	-8.8640003	-0.34799999	4.803
57	1	2	-0.081060998	-9.4899998	-1.2309999	2.8440001
58	1	2	0.037333999	-10.592	-2.0580001	3.3800001
59	1	2	-0.460152	-11.5	-1.645	4.2779999
60	1	2	0.60438001	-11.672	-0.243	4.7259998
61	1	4	-0.56143802	-11.407	0.70099998	3.934
62	1	2	-0.460152	-12.221	0.094999999	6.0549998
63	1	2	0.037333999	-12.334	-0.79500002	7.053
64	1	2	-0.035101999	-12.884	-0.47299999	8.3929996
65	1	2	-0.28173101	-12.895	0.77700001	8.901
66	1	3	0.22092301	-12.486	1.617	8.3559999
67	1	2	-0.036068998	-13.44	1.031	10.25
68	1	3	0.22772001	-13.451	2.039	10.644
69	1	2	-0.45048299	-13.914	0.02	10.986
70	1	3	0.23839	-14.31	0.214	11.975
71	1	2	0.32031301	-13.892	-1.36	10.454
72	1	1	-0.84762198	-14.392	-2.438	11.249
73	1	5	0.37570101	-14.774	-2.2590001	12.204
74	1	5	0.37570101	-14.385	-3.4200001	10.892
75	1	2	-0.40539801	-13.399	-1.59	9.2250004
76	1	3	0.238989	-13.382	-2.5999999	8.8319998
77	1	3	0.217491	-12.041	-1.823	6.8850002
78	1	3	0.177148	-12.529	1.1210001	6.204
79	1	3	0.177148	-12.205	-2.3800001	4.6459999
80	1	3	0.217491	-10.663	-3.0799999	3.0280001
81	1	2	-0.33917999	-9.1700001	-1.317	1.541
82	1	3	0.229296	-9.743	-1.954	0.87800002
83	1	5	0.379163	-8.2959995	-1.214	-1.039
84	1	2	0.59246403	6.6500001	6.4429998	2.1760001
85	1	4	-0.49725601	6.2950001	6.3249998	0.972
86	1	2	-0.28221199	5.6789999	6.7940001	3.23
87	1	2	-0.0092399996	4.3800001	7.0019999	2.948
88	1	3	0.230767	4.007	6.9169998	1.9349999
89	1	2	-0.235962	3.4330001	7.3530002	4.0240002
90	1	3	0.223634	2.3900001	7.5180001	3.7869999
91	1	2	-0.048516002	3.8599999	7.4660001	5.2859998
92	1	3	0.24131601	3.1500001	7.724	6.0619998
93	1	2	-0.21248899	5.289	7.2410002	5.619
94	1	2	0.84307301	5.7459998	7.3699999	7.0209999
95	1	4	-0.46636301	6.9569998	7.1820002	7.323
96	1	6	-0.660532	4.8379998	7.7010002	8.0220003
97	1	7	0.42465001	5.1360002	7.7930002	8.9860001
98	1	2	0.083322003	6.1490002	6.921	4.631
99	1	3	0.25810799	7.197	6.7509999	4.848

Bonds

1	1	1	2
2	2	1	34
3	3	1	49
4	4	2	3
5	4	2	32
6	5	3	4
7	4	3	5
8	5	5	6
9	4	5	7
10	5	7	8
11	4	7	9
12	6	9	10
13	4	9	32
14	7	10	11
15	5	10	31
16	6	11	12
17	5	11	30
18	8	12	13
19	6	12	14
20	7	14	15
21	5	14	29
22	6	15	16
23	5	15	28
24	4	16	17
25	4	16	26
26	5	17	18
27	4	17	19
28	5	19	20
29	4	19	21
30	5	21	22
31	4	21	23
32	1	23	24
33	4	23	26
34	2	24	25
35	9	24	35
36	5	26	27
37	5	32	33
38	8	35	36
39	6	35	37
40	4	37	38
41	4	37	47
42	5	38	39
43	4	38	40
44	5	40	41
45	4	40	42
46	5	42	43
47	4	42	44
48	6	44	45
49	4	44	47
50	8	45	46
51	6	45	84
52	5	47	48
53	1	49	50
54	2	49	83
55	4	50	51
56	4	50	81
57	5	51	52
58	4	51	53
59	5	53	54
60	4	53	55
61	5	55	56
62	4	55	57
63	6	57	58
64	4	57	81
65	7	58	59
66	5	58	80
67	6	59	60
68	5	59	79
69	8	60	61
70	6	60	62
71	7	62	63
72	5	62	78
73	6	63	64
74	5	63	77
75	4	64	65
76	4	64	75
77	5	65	66
78	4	65	67
79	5	67	68
80	4	67	69
81	5	69	70
82	4	69	71
83	1	71	72
84	4	71	75
85	2	72	73
86	2	72	74
87	5	75	76
88	5	81	82
89	8	84	85
90	6	84	86
91	4	86	87
92	4	86	98
93	5	87	88
94	4	87	89
95	5	89	90
96	4	89	91
97	5	91	92
98	4	91	93
99	6	93	94
100	4	93	98
101	8	94	95
102	10	94	96
103	11	96	97
104	5	98	99

Angles

1	4	44	47	48
2	1	61	60	62
3	4	64	63	77
4	1	42	44	45
5	1	60	62	63
6	1	37	38	40
7	4	62	63	77
8	1	59	60	62
9	1	89	91	93
10	1	38	40	42
11	3	2	1	34
12	1	16	17	19
13	1	87	89	91
14	4	2	3	4
15	1	55	57	58
16	4	10	11	30
17	4	11	10	31
18	4	16	15	28
19	1	84	86	98
20	1	63	64	75
21	1	67	69	71
22	4	37	47	48
23	4	12	11	30
24	4	66	65	67
25	4	59	58	80
26	1	65	67	69
27	1	14	15	16
28	1	51	53	55
29	4	68	67	69
30	1	42	44	47
31	4	86	98	99
32	1	1	2	3
33	1	17	16	26
34	4	89	91	92
35	1	50	81	57
36	1	7	9	32
37	4	4	3	5
38	4	64	65	66
39	4	93	98	99
40	4	12	14	29
41	4	60	59	79
42	4	57	58	80
43	1	64	75	71
44	4	67	69	70
45	4	58	59	79
46	1	24	23	26
47	1	93	94	96
48	1	1	2	32
49	3	25	24	35
50	1	91	93	98
51	1	58	57	81
52	3	71	72	73
53	1	7	9	10
54	4	9	32	33
55	1	72	71	75
56	1	84	86	87
57	4	41	40	42
58	4	53	55	56
59	1	59	60	61
60	3	50	49	83
61	1	2	32	9
62	1	36	35	37
63	1	40	42	44
64	4	6	5	7
65	1	65	64	75
66	4	90	89	91
67	1	21	23	24
68	1	91	93	94
69	4	16	17	18
70	4	54	53	55
71	1	2	3	5
72	1	62	63	64
73	1	45	84	85
74	4	23	26	27
75	1	44	45	84
76	4	70	69	71
77	1	11	12	14
78	1	37	47	44
79	1	85	84	86
80	2	2	1	49
81	2	1	49	50
82	1	69	71	72
83	3	71	72	74
84	4	14	15	28
85	1	35	37	47
86	1	45	84	86
87	1	24	35	36
88	4	19	21	22
89	4	71	75	76
90	4	64	75	76
91	4	60	62	78
92	1	9	10	11
93	4	38	40	41
94	1	51	50	81
95	1	12	14	15
96	4	65	67	68
97	1	19	21	23
98	1	24	35	37
99	1	3	5	7
100	1	87	86	98
101	1	45	44	47
102	4	57	81	82
103	4	92	91	93
104	1	13	12	14
105	1	93	94	95
106	1	10	11	12
107	4	16	26	27
108	4	39	38	40
109	4	22	21	23
110	4	20	19	21
111	1	16	26	23
112	4	5	7	8
113	1	55	57	81
114	1	86	98	93
115	4	15	14	29
116	5	94	96	97
117	1	35	37	38
118	1	11	12	13
119	1	15	16	17
120	1	57	58	59
121	1	49	50	81
122	1	64	65	67
123	4	3	5	6
124	4	9	10	31
125	4	37	38	39
126	4	63	62	78
127	4	43	42	44
128	1	69	71	75
129	4	40	42	43
130	1	44	45	46
131	4	52	51	53
132	1	53	55	57
133	3	73	72	74
134	1	58	59	60
135	1	49	50	51
136	1	17	19	21
137	1	46	45	84
138	4	50	81	82
139	1	3	2	32
140	4	50	51	52
141	1	5	7	9
142	3	23	24	25
143	4	17	19	20
144	1	10	9	32
145	4	51	53	54
146	6	95	94	96
147	2	23	24	35
148	4	8	7	9
149	3	34	1	49
150	4	86	87	88
151	1	38	37	47
152	1	86	87	89
153	4	2	32	33
154	4	87	89	90
155	1	21	23	26
156	1	50	51	53
157	1	15	16	26
158	4	18	17	19
159	1	63	64	65
160	4	56	55	57
161	4	88	87	89
162	1	94	93	98
163	3	1	49	83

Dihedrals

1	1	38	40	42	44
2	3	2	1	49	83
3	1	68	67	69	71
4	1	3	2	32	9
5	11	25	24	35	37
5	12	25	24	35	37
6	1	88	87	89	90
7	1	24	23	26	27
8	1	87	86	98	99
9	9	23	24	35	36
9	10	23	24	35	36
10	1	22	21	23	24
11	1	35	37	38	40
12	15	93	94	96	97
13	4	7	9	10	31
14	1	90	89	91	93
15	1	41	40	42	43
16	1	86	98	93	91
17	1	51	53	55	56
18	1	16	17	19	20
19	1	18	17	19	21
20	1	70	69	71	75
21	5	12	14	15	28
22	1	4	3	5	6
23	1	53	55	57	81
24	2	3	2	1	49
25	1	84	86	98	93
26	8	85	84	86	87
27	8	24	35	37	38
28	1	49	50	81	82
29	8	61	60	59	79
30	1	86	87	89	90
31	1	18	17	19	20
32	11	23	24	35	37
32	12	23	24	35	37
33	1	15	16	26	27
34	1	35	37	47	48
35	1	37	38	40	42
36	1	38	40	42	43
37	1	49	50	51	52
38	1	68	67	69	70
39	1	15	16	26	23
40	4	55	57	58	80
41	1	50	81	57	58
42	1	4	3	2	32
43	1	65	64	75	71
44	1	2	3	5	6
45	8	61	60	62	78
46	3	2	1	49	50
47	1	66	65	64	75
48	5	57	58	59	60
49	1	51	50	81	57
50	1	63	64	75	76
51	8	59	60	62	78
52	5	60	62	63	77
53	1	66	65	67	69
54	8	11	12	14	15
55	5	16	15	14	29
56	8	46	45	84	85
57	1	1	2	32	9
58	2	81	50	49	83
59	1	92	91	93	98
60	5	9	10	11	30
61	8	14	12	11	30
62	1	49	50	51	53
63	1	56	55	57	58
64	1	16	17	19	21
65	1	5	7	9	32
66	1	52	51	50	81
67	1	2	3	5	7
68	1	64	65	67	68
69	8	46	45	84	86
70	1	39	38	40	42
71	16	95	94	96	97
71	17	95	94	96	97
72	8	91	93	94	96
73	1	52	51	53	54
74	1	8	7	9	32
75	2	32	2	1	49
76	4	14	15	16	17
77	1	84	86	87	88
78	4	17	16	15	28
79	1	89	91	93	98
80	8	42	44	45	84
81	5	60	59	58	80
82	1	5	7	9	10
83	8	10	11	12	14
84	1	58	57	81	82
85	1	84	86	87	89
86	1	87	89	91	93
87	8	44	45	84	85
88	1	92	91	93	94
89	1	66	65	67	68
90	2	26	23	24	35
91	1	8	7	9	10
92	8	46	45	44	47
93	1	54	53	55	56
94	1	90	89	91	92
95	1	37	47	44	42
96	1	65	64	75	76
97	1	53	51	50	81
98	2	73	72	71	75
99	1	35	37	47	44
100	8	44	45	84	86
101	2	21	23	24	25
102	4	80	58	57	81
103	1	67	65	64	75
104	1	89	91	93	94
105	2	25	24	23	26
106	1	17	19	21	22
107	5	12	14	15	16
108	1	50	51	53	54
109	2	21	23	24	35
110	5	12	11	10	31
111	1	3	5	7	9
112	1	91	93	98	99
113	8	13	12	11	30
114	1	63	64	65	67
115	1	49	50	81	57
116	8	58	59	60	62
117	1	51	53	55	57
118	4	11	10	9	32
119	1	53	55	57	58
120	1	1	2	3	5
121	1	17	19	21	23
122	1	89	87	86	98
123	1	51	50	81	82
124	8	36	35	37	47
125	1	87	86	98	93
126	1	2	32	9	10
127	5	60	62	63	64
128	8	95	94	93	98
129	1	40	42	44	47
130	1	15	16	17	19
131	1	84	86	98	99
132	1	3	5	7	8
133	5	28	15	14	29
134	4	14	15	16	26
135	1	64	75	71	69
136	5	79	59	58	80
137	8	96	94	93	98
138	2	74	72	71	75
139	8	13	12	14	29
140	1	3	2	32	33
141	2	1	49	50	81
142	1	19	21	23	26
143	1	37	38	40	41
144	1	52	51	53	55
145	1	56	55	57	81
146	4	62	63	64	65
147	2	69	71	72	74
148	1	7	9	32	33
149	1	38	37	47	48
150	8	85	84	86	98
151	1	69	71	75	76
152	6	10	11	12	13
152	7	10	11	12	13
153	4	55	57	58	59
154	5	57	58	59	79
155	5	77	63	62	78
156	2	1	49	50	51
157	3	34	1	49	83
158	2	69	71	72	73
159	1	64	75	71	72
160	8	91	93	94	95
161	4	31	10	9	32
162	8	62	60	59	79
163	1	10	9	32	33
164	5	30	11	10	31
165	1	37	47	44	45
166	8	42	44	45	46
167	5	64	63	62	78
168	4	75	64	63	77
169	6	61	60	62	63
169	7	61	60	62	63
170	8	45	84	86	98
171	1	94	93	98	99
172	1	6	5	7	9
173	2	3	2	1	34
174	1	40	42	44	45
175	1	72	71	75	76
176	1	18	17	16	26
177	4	62	63	64	75
178	1	43	42	44	47
179	8	59	60	62	63
180	1	87	89	91	92
181	4	65	64	63	77
182	1	19	21	23	24
183	1	35	37	38	39
184	8	36	35	37	38
185	1	50	51	53	55
186	8	47	44	45	84
187	1	20	19	21	22
188	1	65	67	69	70
189	1	39	38	40	41
190	6	58	59	60	61
190	7	58	59	60	61
191	1	70	69	71	72
192	5	9	10	11	12
193	1	6	5	7	8
194	1	21	23	26	27
195	1	67	69	71	72
196	1	1	2	32	33
197	1	20	19	21	23
198	1	40	38	37	47
199	4	59	58	57	81
200	3	34	1	49	50
201	4	7	9	10	11
202	1	67	69	71	75
203	1	54	53	55	57
204	1	50	81	57	55
205	2	51	50	49	83
206	4	26	16	15	28
207	1	64	65	67	69
208	1	15	16	17	18
209	1	17	16	26	27
210	1	88	87	86	98
211	8	11	12	14	29
212	1	16	26	23	21
213	1	22	21	23	26
214	8	24	35	37	47
215	1	17	16	26	23
216	1	43	42	44	45
217	1	65	67	69	71
218	1	88	87	89	91
219	1	45	44	47	48
220	1	39	38	37	47
221	1	86	98	93	94
222	6	13	12	14	15
222	7	13	12	14	15
223	13	25	24	35	36
223	14	25	24	35	36
224	1	41	40	42	44
225	8	45	84	86	87
226	1	38	37	47	44
227	1	63	64	75	71
228	1	4	3	5	7
229	2	32	2	1	34
230	1	1	2	3	4
231	1	42	44	47	48
232	1	16	26	23	24
233	1	2	32	9	7
234	1	55	57	81	82
235	1	63	64	65	66
236	1	86	87	89	91
237	1	5	3	2	32
238	1	19	17	16	26

Impropers

3	1	26	16	23	27
5	1	16	15	17	26
9	1	23	24	26	21
10	1	40	38	41	42
13	1	9	32	7	10
14	1	10	9	11	31
15	1	59	60	79	58
18	1	16	26	15	17
19	1	38	39	40	37
22	2	24	35	23	25
24	1	62	63	78	60
26	1	47	44	48	37
31	1	60	62	59	61
34	3	94	93	95	96
36	1	16	17	26	15
37	1	14	12	15	29
38	1	60	59	61	62
39	1	62	60	63	78
42	2	72	71	73	74
43	1	53	54	55	51
44	1	53	51	54	55
45	1	47	48	37	44
46	1	55	57	53	56
48	1	7	9	5	8
49	2	49	50	83	1
50	1	93	98	91	94
53	1	26	27	16	23
54	1	91	92	93	89
57	1	44	42	45	47
58	1	50	49	51	81
61	3	94	95	96	93
65	1	64	63	65	75
66	1	19	17	20	21
67	2	49	83	1	50
70	1	64	75	63	65
71	1	7	8	9	5
73	1	81	50	57	82
75	2	24	23	25	35
78	1	75	64	71	76
79	1	5	7	3	6
81	1	3	4	5	2
83	1	23	26	21	24
84	1	59	79	58	60
85	1	86	98	84	87
88	1	51	52	53	50
91	1	7	5	8	9
92	1	67	69	65	68
93	1	38	37	39	40
94	3	94	96	93	95
95	1	50	81	49	51
96	1	62	78	60	63
99	1	65	66	67	64
101	1	57	81	55	58
104	2	1	34	49	2
106	1	91	93	89	92
111	1	64	65	75	63
112	1	9	10	32	7
113	1	11	10	12	30
114	1	84	85	86	45
115	1	38	40	37	39
116	1	69	70	71	67
119	1	67	68	69	65
120	1	26	23	27	16
123	1	19	20	21	17
124	1	58	80	57	59
125	1	87	88	89	86
126	2	72	73	74	71
133	1	71	72	75	69
138	1	17	18	19	16
139	1	98	86	93	99
140	1	71	69	72	75
141	1	17	19	16	18
142	1	42	44	40	43
143	1	63	62	64	77
148	1	2	32	1	3
157	1	57	55	58	81
158	2	1	2	34	49
159	1	87	89	86	88
161	1	3	5	2	4
162	1	69	67	70	71
163	1	44	45	47	42
167	1	12	13	14	11
171	1	15	16	28	14
173	1	51	53	50	52
175	1	15	14	16	28
176	1	12	11	13	14
177	1	89	90	91	87
178	1	86	84	87	98
179	1	63	77	62	64
181	1	3	2	4	5
182	1	50	51	81	49
183	1	32	33	2	9
189	1	84	86	45	85
190	1	14	29	12	15
191	1	55	53	56	57
192	1	55	56	57	53
194	1	32	2	9	33
195	1	21	19	22	23
196	1	75	71	76	64
197	1	40	42	38	41
198	1	14	15	29	12
199	1	17	16	18	19
200	1	98	99	86	93
201	1	5	3	6	7
202	1	37	38	47	35
204	1	21	22	23	19
208	1	47	37	44	48
216	1	84	45	85	86
217	1	9	7	10	32
220	1	32	9	33	2
222	1	37	47	35	38
224	1	67	65	68	69
226	1	5	6	7	3
228	1	86	87	98	84
230	1	35	36	37	24
232	2	1	49	2	34
234	1	19	21	17	20
235	1	11	12	30	10
236	1	75	76	64	71
239	1	2	1	3	32
240	1	59	58	60	79
241	1	21	23	19	22
249	1	60	61	62	59
252	1	51	50	52	53
254	1	45	46	84	44
255	1	35	24	36	37
257	1	65	67	64	66
263	1	23	21	24	26
264	1	81	82	50	57
266	1	44	47	42	45
267	1	40	41	42	38
268	1	45	44	46	84
270	1	42	40	43	44
273	1	93	91	94	98
275	1	93	94	98	91
276	1	89	87	90	91
280	1	11	30	10	12
282	1	69	71	67	70
283	1	87	86	88	89
284	1	42	43	44	40
286	1	71	75	69	72
288	1	57	58	81	55
289	1	58	59	80	57
290	1	2	3	32	1
291	2	72	74	71	73
292	1	35	37	24	36
293	1	53	55	51	54
294	2	24	25	35	23
295	1	63	64	77	62
296	1	65	64	66	67
300	1	89	91	87	90
307	1	81	57	82	50
308	1	37	35	38	47
311	1	10	11	31	9
312	1	12	14	11	13
313	1	91	89	92	93
314	1	98	93	99	86
316	2	49	1	50	83
318	1	58	57	59	80
319	1	45	84	44	46
320	1	15	28	14	16
321	1	10	31	9	11
