Title

558 atoms
567 bonds
990 angles
1841 dihedrals
261 impropers

10 atom types
16 bond types
10 angle types
42 dihedral types
3 improper types
-107.0289993 -7.028999329 xlo xhi
-6.146999836 93.85300016 ylo yhi
-2.474999905 97.5250001 zlo zhi
0.0 0.0 0.0 xy xz yz

Masses

1	12.01078
2	15.99943
3	1.007947
4	15.99943
5	12.01078
6	15.99943
7	1.007947
8	1.007947
9	14.00672
10	1.007947


Pair Coeffs

1	0.10884061	3.3795318
2	0.20947353	2.99716
3	1.2326e-05	0.53453923
4	0.16846514	3.0251065
5	0.086879315	3.4806469
6	0.2102061	3.0398122
7	0.016409246	2.5832257
8	0.015611343	2.5725815
9	0.16769152	3.206876
10	0.014090815	1.1034277

Bond Coeffs

1 harmonic	329.96998057905	1.427343958716
2 harmonic	264.62148576755	1.52190126495
3 harmonic	370.04670688625	1.093899492634
4 harmonic	543.5267831885	0.9716763312559
5 harmonic	366.7408841747	1.425895053732
6 harmonic	301.15400723785	1.345741232799
7 harmonic	582.698766451	1.225198386222
8 harmonic	279.1350963404	1.454628925034
9 harmonic	425.69104206635	1.362945806494
10 harmonic	360.7852444772	1.387193227181
11 harmonic	397.2545789619	1.085358495916
12 harmonic	492.76746816345	1.381897776683
13 harmonic	505.144496193	1.019481865027
14 harmonic	352.0565580496	1.450098586273
15 harmonic	366.34047229585	1.464762957261
16 harmonic	422.7150220147	1.421786517481


Angle Coeffs

1 harmonic	65.09061609600001	110.3538806181
2 harmonic	53.20531626545	116.5475862634
3 harmonic	201.41175231035	127.4691416191
4 harmonic	57.8982893754	126.8062420451
5 harmonic	48.776492647595	115.6030999533
6 harmonic	34.066775159195	129.1835929926
7 harmonic	55.42182150775	117.3465570514
8 harmonic	63.44422595415	115.5071327674
9 harmonic	94.53012429075	110.92021963
10 harmonic	49.015990027215	114.8414599994


Dihedral Coeffs

1 fourier 1	0.1918272375143	3	0
2 fourier 1	0.9202179876409	1	180
3 fourier 1	-0.0309670556842	3	0
4 fourier 1	0.4598191477945	2	0
5 fourier 1	0.1115525666802	3	0
6 fourier 1	0.3432490222662	1	0
7 fourier 1	0.3445382149273	3	0
8 fourier 1	0.1364556373303	1	0
9 fourier 1	0.3026390167484	3	0
10 fourier 1	0.1155372516788	3	0
11 fourier 1	0.1040663847541	3	0
12 fourier 1	1.163809172478	2	180
13 fourier 1	0.1679186987369	1	180
14 fourier 1	2.779853741805	2	180
15 fourier 1	0.9974165607242	2	180
16 fourier 1	0.0473758381877	3	0
17 fourier 1	0.1911926717192	3	0
18 fourier 1	1.532232714475	2	180
19 fourier 1	3.661930099076	2	180
20 fourier 1	1.809047390003	2	180
21 fourier 1	-0.04816277792592	1	0
22 fourier 1	-0.1488678166443	4	180
23 fourier 1	-0.1230328948768	3	180
24 fourier 1	0.2939295466901	2	0
25 fourier 1	-0.3024127022865	1	0
26 fourier 1	0.182238503271	2	0
27 fourier 1	0.02972342374561	3	0
28 fourier 1	0.4860993122944	2	180
29 fourier 1	0.8916986138746	1	0
30 fourier 1	0.4552156463534	3	0
31 fourier 1	-0.03687743385131	2	180
32 fourier 1	0.2036670163956	3	0
33 fourier 1	0.3917343745784	3	0
34 fourier 1	0.9467782973395	2	0
35 fourier 1	0.2726597146827	1	0
36 fourier 1	0.774151252041	3	0
37 fourier 1	1.087509576657	2	0
38 fourier 1	1.518874939494	1	0
39 fourier 1	0.6761465733405	3	0
40 fourier 1	1.653011589151	2	0
41 fourier 1	1.713184811193	1	0
42 fourier 1	1.659715194912	2	180


Improper Coeffs

1 3.5	-1	2
2 0.3666666666666667	-1	2
3 0.3333333333333333	-1	2


Atoms

1	1	1	0.145772	4.4819999	0.255	-1.36
2	1	2	-0.69549203	4.7509999	1.442	-2.059
3	1	3	0.41767401	5.6459999	1.3329999	-2.4749999
4	1	1	0.109438	5.3080001	0.198	-0.059999999
5	1	4	-0.489214	4.934	1.2359999	0.847
6	1	5	0.62942803	5.4299998	2.5409999	0.77899998
7	1	6	-0.51886398	6.3099999	2.8629999	-0.064000003
8	1	7	0.101345	6.3940001	0.25400001	-0.28999999
9	1	7	0.101345	5.1339998	-0.77999997	0.43700001
10	1	7	0.102285	4.7620001	-0.61900002	-1.994
11	1	1	0.054143999	2.977	0.167	-1.084
12	1	4	-0.41137901	2.6670001	-1.073	-0.449
13	1	5	0.25069201	1.38	-1.471	-0.055
14	1	5	-0.44647199	0.287	-0.70599997	-0.25299999
15	1	5	0.25132099	-1.049	-1.171	0.182
16	1	4	-0.42170301	-2.148	-0.329	-0.050999999
17	1	1	0.093222998	-3.4949999	-0.63	0.31099999
18	1	1	0.173646	-4.4050002	0.52899998	-0.103
19	1	1	0.092854999	-5.8829999	0.20299999	0.168
20	1	2	-0.673356	-6.1350002	0.125	1.5470001
21	1	3	0.397908	-5.987	-0.81999999	1.814
22	1	7	0.102496	-6.5180001	1.007	-0.257
23	1	7	0.102496	-6.1729999	-0.74299997	-0.347
24	1	4	-0.49281299	-4.0149999	1.7079999	0.60500002
25	1	5	0.78567398	-4.3839998	3	0.21699999
26	1	6	-0.58702397	-5.059	3.2	-0.82800001
27	1	7	0.112854	-4.2709999	0.69	-1.197
28	1	7	0.091450997	-3.5550001	-0.78100002	1.411
29	1	7	0.091450997	-3.816	-1.559	-0.208
30	1	5	-0.40945101	-1.1670001	-2.372	0.78100002
31	1	5	-0.046433002	0.027000001	-3.2130001	0.99900001
32	1	5	-0.40945101	1.2309999	-2.786	0.60299999
33	1	8	0.218086	2.1029999	-3.4070001	0.76599997
34	1	8	0.214532	-0.075000003	-4.177	1.4809999
35	1	8	0.218086	-2.125	-2.747	1.113
36	1	8	0.21929701	0.36000001	0.26100001	-0.73299998
37	1	7	0.10077	2.431	0.23100001	-2.0510001
38	1	7	0.10077	2.6600001	1.0140001	-0.43700001
39	1	9	-0.45542401	-11.311	7.2350001	1.786
40	1	10	0.33480901	-11.419	6.2659998	2.164
41	1	1	0.016122	-11.705	7.2420001	0.377
42	1	1	0.068986997	-10.896	6.2360001	-0.44600001
43	1	4	-0.47940201	-9.5360003	6.6170001	-0.45699999
44	1	1	0.063473001	-8.7880001	5.677	-1.198
45	1	1	0.063473001	-7.3179998	6.0910001	-1.2029999
46	1	4	-0.47940201	-6.8270001	6.2010002	0.121
47	1	1	0.068986997	-6.223	4.994	0.551
48	1	1	0.016122	-4.7179999	5.0279999	0.278
49	1	9	-0.45668	-4.0819998	3.8280001	0.81199998
50	1	10	0.33480901	-3.049	3.9289999	0.67699999
51	1	7	0.086530998	-4.2810001	5.9239998	0.77100003
52	1	7	0.086530998	-4.5279999	5.1009998	-0.815
53	1	7	0.090278	-6.3779998	4.9089999	1.647
54	1	7	0.090278	-6.6820002	4.085	0.097000003
55	1	7	0.095916003	-6.724	5.3930001	-1.839
56	1	7	0.095916003	-7.2379999	7.0900002	-1.682
57	1	7	0.095916003	-8.8719997	4.6599998	-0.75199997
58	1	7	0.095916003	-9.1400003	5.6409998	-2.2550001
59	1	7	0.090278	-11.026	5.2220001	-0.0020000001
60	1	7	0.090278	-11.306	6.2319999	-1.482
61	1	7	0.086531997	-12.785	6.9879999	0.30399999
62	1	7	0.086531997	-11.566	8.2629995	-0.039000001
63	1	1	0.149207	-8.2189999	9.5690002	3.3310001
64	1	2	-0.69549203	-8.2469997	8.368	4.0570002
65	1	3	0.41767401	-7.428	7.8639998	3.8099999
66	1	1	0.089262001	-8.5719995	9.3120003	1.853
67	1	4	-0.48283499	-9.9119997	8.8400002	1.705
68	1	5	0.79024398	-10.284	7.5009999	1.8609999
69	1	6	-0.57781398	-9.4259996	6.6040001	2.073
70	1	7	0.112183	-7.8540001	8.5909996	1.404
71	1	7	0.112183	-8.4709997	10.262	1.286
72	1	7	0.102285	-7.1929998	10.005	3.3770001
73	1	1	0.054143999	-9.1800003	10.568	3.9809999
74	1	4	-0.41137901	-9.1059999	11.827	3.312
75	1	5	0.25069201	-9.8590002	12.961	3.652
76	1	5	-0.44647199	-10.739	12.973	4.6739998
77	1	5	0.25132099	-11.511	14.195	4.9920001
78	1	4	-0.42170301	-12.412	14.145	6.0669999
79	1	1	0.093222998	-13.229	15.233	6.4959998
80	1	1	0.173646	-14.077	14.793	7.6919999
81	1	1	0.092854999	-14.895	15.966	8.2580004
82	1	2	-0.673356	-15.882	16.375	7.348
83	1	3	0.397908	-15.474	17.075001	6.7750001
84	1	7	0.102496	-15.396	15.643	9.1940002
85	1	7	0.102496	-14.222	16.813	8.5290003
86	1	4	-0.49281299	-14.942	13.729	7.2880001
87	1	5	0.78567398	-15.578	12.867	8.1870003
88	1	6	-0.58702397	-15.382	12.958	9.4280005
89	1	7	0.112854	-13.382	14.429	8.4829998
90	1	7	0.091450997	-13.892	15.547	5.6599998
91	1	7	0.091450997	-12.58	16.084999	6.7930002
92	1	5	-0.40945101	-11.327	15.304	4.2480001
93	1	5	-0.046433002	-10.365	15.295	3.128
94	1	5	-0.40945101	-9.6709995	14.187	2.8469999
95	1	8	0.218086	-8.967	14.186	2.0250001
96	1	8	0.214532	-10.223	16.188999	2.5350001
97	1	8	0.218086	-11.872	16.216	4.448
98	1	8	0.21929701	-10.9	12.094	5.2839999
99	1	7	0.10077	-8.8920002	10.703	5.0469999
100	1	7	0.10077	-10.221	10.178	3.9389999
101	1	9	-0.45542401	-22.65	13.835	12.363
102	1	10	0.33480901	-22.441	14.722	11.848
103	1	1	0.016122	-21.962999	13.861	13.653
104	1	1	0.068986997	-20.452999	14.061	13.49
105	1	4	-0.47940201	-19.898001	12.952	12.815
106	1	1	0.063473001	-18.51	13.148	12.648
107	1	1	0.063473001	-17.915001	11.948	11.913
108	1	4	-0.47940201	-18.556	11.761	10.663
109	1	1	0.068986997	-17.862	12.422	9.6210003
110	1	1	0.016122	-16.874001	11.465	8.9519997
111	1	9	-0.45668	-16.233	12.117	7.8140001
112	1	10	0.33480901	-15.63	11.406	7.3390002
113	1	7	0.086530998	-17.424	10.566	8.5970001
114	1	7	0.086530998	-16.103001	11.138	9.6829996
115	1	7	0.090278	-18.610001	12.74	8.8640003
116	1	7	0.090278	-17.341999	13.35	9.9569998
117	1	7	0.095916003	-16.808001	12.059	11.83
118	1	7	0.095916003	-18.09	11.04	12.528
119	1	7	0.095916003	-18.306999	14.069	12.055
120	1	7	0.095916003	-18.003	13.234	13.636
121	1	7	0.090278	-20.275	15.006	12.927
122	1	7	0.090278	-20.009001	14.158	14.508
123	1	7	0.086531997	-22.377001	14.69	14.266
124	1	7	0.086531997	-22.157	12.909	14.193
125	1	1	0.149207	-23.174999	10.376	10.092
126	1	2	-0.69549203	-23.024	11.449	9.2010002
127	1	3	0.41767401	-22.146999	11.328	8.7519999
128	1	1	0.089262001	-22.281	10.576	11.331
129	1	4	-0.48283499	-22.674999	11.722	12.086
130	1	5	0.79024398	-22.273001	13.027	11.784
131	1	6	-0.57781398	-21.462	13.261	10.848
132	1	7	0.112183	-21.214001	10.658	11.028
133	1	7	0.112183	-22.361	9.6820002	11.985
134	1	7	0.102285	-22.870001	9.4300003	9.5869999
135	1	1	0.054143999	-24.653999	10.246	10.472
136	1	4	-0.41137901	-24.846001	9.1070004	11.311
137	1	5	0.25069201	-26.08	8.7030001	11.842
138	1	5	-0.44647199	-27.231001	9.3610001	11.595
139	1	5	0.25132099	-28.509001	8.8950005	12.18
140	1	4	-0.42170301	-29.673	9.6219997	11.888
141	1	1	0.093222998	-30.975	9.3050003	12.376
142	1	1	0.173646	-31.982	10.328	11.842
143	1	1	0.092854999	-33.418999	9.9630003	12.254
144	1	2	-0.673356	-33.591999	10.092	13.64
145	1	3	0.397908	-33.368	9.2130003	14.042
146	1	7	0.102496	-34.129002	10.65	11.748
147	1	7	0.102496	-33.669998	8.9320002	11.912
148	1	4	-0.49281299	-31.636	11.625	12.332
149	1	5	0.78567398	-32.111	12.814	11.771
150	1	6	-0.58702397	-32.852001	12.805	10.751
151	1	7	0.112854	-31.917	10.319	10.731
152	1	7	0.091450997	-30.968	9.3290005	13.487
153	1	7	0.091450997	-31.26	8.2880001	12.029
154	1	5	-0.40945101	-28.513	7.8000002	12.967
155	1	5	-0.046433002	-27.256001	7.0760002	13.239
156	1	5	-0.40945101	-26.106001	7.5040002	12.707
157	1	8	0.218086	-25.186001	6.9689999	12.91
158	1	8	0.214532	-27.267	6.198	13.871
159	1	8	0.218086	-29.426001	7.428	13.412
160	1	8	0.21929701	-27.249001	10.241	10.967
161	1	7	0.10077	-25.253	10.122	9.5430002
162	1	7	0.10077	-24.993999	11.165	10.997
163	1	9	-0.45542401	-39.217999	16.834	13.086
164	1	10	0.33480901	-39.240002	15.933	13.617
165	1	1	0.016122	-39.685001	16.591999	11.721
166	1	1	0.068986997	-38.853001	15.516	11.016
167	1	4	-0.47940201	-37.525002	15.97	10.861
168	1	1	0.063473001	-36.755001	14.968	10.231
169	1	1	0.063473001	-35.318001	15.462	10.07
170	1	4	-0.47940201	-34.766998	15.81	11.327
171	1	1	0.068986997	-34.061001	14.726	11.902
172	1	1	0.016122	-32.578999	14.803	11.534
173	1	9	-0.45668	-31.834999	13.744	12.208
174	1	10	0.33480901	-30.820999	13.882	11.995
175	1	7	0.086530998	-32.178001	15.791	11.852
176	1	7	0.086530998	-32.452	14.711	10.433
177	1	7	0.090278	-34.153	14.808	13.006
178	1	7	0.090278	-34.480999	13.73	11.625
179	1	7	0.095916003	-34.713001	14.707	9.5150003
180	1	7	0.095916003	-35.331001	16.374001	9.4359999
181	1	7	0.095916003	-36.747002	14.033	10.835
182	1	7	0.095916003	-37.158001	14.742	9.217
183	1	7	0.090278	-38.890999	14.58	11.621
184	1	7	0.090278	-39.316002	15.323	10.022
185	1	7	0.086531997	-40.747002	16.267	11.755
186	1	7	0.086531997	-39.637001	17.539	11.142
187	1	1	0.149207	-36.214001	19.562	14.05
188	1	2	-0.69549203	-36.123001	18.493	14.956
189	1	3	0.41767401	-35.285999	18.004999	14.74
190	1	1	0.089262001	-36.625999	19.051001	12.656
191	1	4	-0.48283499	-37.937	18.483999	12.668
192	1	5	0.79024398	-38.209	17.167999	13.054
193	1	6	-0.57781398	-37.282001	16.368	13.35
194	1	7	0.112183	-35.884998	18.311001	12.281
195	1	7	0.112183	-36.618999	19.902	11.942
196	1	7	0.102285	-35.220001	20.059	13.964
197	1	1	0.054143999	-37.206001	20.594999	14.595
198	1	4	-0.41137901	-37.250999	21.732	13.734
199	1	5	0.25069201	-38.061001	22.860001	13.938
200	1	5	-0.44647199	-38.884998	22.983999	14.999
201	1	5	0.25132099	-39.720001	24.194	15.169
202	1	4	-0.42170301	-40.557999	24.264	16.292999
203	1	1	0.093222998	-41.424	25.357	16.596001
204	1	1	0.173646	-42.175999	25.065001	17.896999
205	1	1	0.092854999	-43.041	26.264	18.322001
206	1	2	-0.673356	-44.098999	26.462999	17.423
207	1	3	0.397908	-43.77	27.084999	16.723
208	1	7	0.102496	-43.469002	26.066	19.327
209	1	7	0.102496	-42.414001	27.181	18.414
210	1	4	-0.49281299	-42.987	23.902	17.719
211	1	5	0.78567398	-43.514999	23.159	18.780001
212	1	6	-0.58702397	-43.262001	23.459	19.976999
213	1	7	0.112854	-41.417999	24.874001	18.690001
214	1	7	0.091450997	-42.150002	25.493	15.765
215	1	7	0.091450997	-40.819	26.282	16.715
216	1	5	-0.40945101	-39.651001	25.177999	14.25
217	1	5	-0.046433002	-38.75	25.046	13.088
218	1	5	-0.40945101	-37.999001	23.950001	12.941
219	1	8	0.218086	-37.34	23.858999	12.087
220	1	8	0.214532	-38.700001	25.84	12.355
221	1	8	0.218086	-40.244999	26.077	14.339
222	1	8	0.21929701	-38.953999	22.205999	15.747
223	1	7	0.10077	-36.872002	20.915001	15.606
224	1	7	0.10077	-38.217999	20.142	14.679
225	1	9	-0.45542401	-50.409	24.368	23.184999
226	1	10	0.33480901	-50.287998	25.172001	22.527
227	1	1	0.016122	-49.658001	24.639999	24.41
228	1	1	0.068986997	-48.175999	24.9	24.125
229	1	4	-0.47940201	-47.583	23.732	23.598
230	1	1	0.063473001	-46.222	23.979	23.316
231	1	1	0.063473001	-45.587002	22.714001	22.742001
232	1	4	-0.47940201	-46.278	22.292	21.58
233	1	1	0.068986997	-45.686001	22.816999	20.406
234	1	1	0.016122	-44.672001	21.825001	19.834
235	1	9	-0.45668	-44.137001	22.322001	18.570999
236	1	10	0.33480901	-43.513	21.580999	18.176001
237	1	7	0.086530998	-45.178001	20.85	19.659
238	1	7	0.086530998	-43.842999	21.664	20.558001
239	1	7	0.090278	-46.493	22.965	19.656
240	1	7	0.090278	-45.213001	23.816	20.559
241	1	7	0.095916003	-44.495998	22.875	22.573999
242	1	7	0.095916003	-45.667	21.907	23.500999
243	1	7	0.095916003	-46.112999	24.802999	22.573999
244	1	7	0.095916003	-45.671001	24.250999	24.245001
245	1	7	0.090278	-48.091999	25.750999	23.41
246	1	7	0.090278	-47.687	25.184	25.084999
247	1	7	0.086531997	-50.095001	25.532	24.910999
248	1	7	0.086531997	-49.758999	23.778	25.104
249	1	1	0.149207	-50.816002	20.565001	21.521999
250	1	2	-0.69549203	-50.785999	21.489	20.466
251	1	3	0.41767401	-49.926998	21.349001	19.987
252	1	1	0.089262001	-49.874001	21.013	22.656
253	1	4	-0.48283499	-50.305	22.240999	23.245001
254	1	5	0.79024398	-50.008999	23.500999	22.718
255	1	6	-0.57781398	-49.265999	23.629	21.708
256	1	7	0.112183	-48.833	21.108	22.278
257	1	7	0.112183	-49.860001	20.232	23.445
258	1	7	0.102285	-50.474998	19.57	21.153
259	1	1	0.054143999	-52.261002	20.410999	22.009001
260	1	4	-0.41137901	-52.332001	19.413	23.025999
261	1	5	0.25069201	-53.506001	19.027	23.690001
262	1	5	-0.44647199	-54.710999	19.569	23.415001
263	1	5	0.25132099	-55.921001	19.128	24.145
264	1	4	-0.42170301	-57.146	19.73	23.815001
265	1	1	0.093222998	-58.396	19.42	24.427
266	1	1	0.173646	-59.497002	20.283001	23.804001
267	1	1	0.092854999	-60.882	19.906	24.356001
268	1	2	-0.673356	-60.991001	20.245001	25.712999
269	1	3	0.397908	-60.686001	19.455999	26.233
270	1	7	0.102496	-61.661999	20.459999	23.794001
271	1	7	0.102496	-61.080002	18.82	24.195999
272	1	4	-0.49281299	-59.214001	21.66	24.062
273	1	5	0.78567398	-59.797001	22.714001	23.351999
274	1	6	-0.58702397	-60.588001	22.499001	22.395
275	1	7	0.112854	-59.488998	20.1	22.705999
276	1	7	0.091450997	-58.333	19.621	25.518
277	1	7	0.091450997	-58.629002	18.344999	24.261999
278	1	5	-0.40945101	-55.811001	18.174999	25.091
279	1	5	-0.046433002	-54.493999	17.579	25.393999
280	1	5	-0.40945101	-53.404999	17.983	24.731001
281	1	8	0.218086	-52.443001	17.542	24.958
282	1	8	0.214532	-54.414001	16.813999	26.156
283	1	8	0.218086	-56.671001	17.826	25.645
284	1	8	0.21929701	-54.820999	20.334	22.659
285	1	7	0.10077	-52.897999	20.105	21.15
286	1	7	0.10077	-52.634998	21.381001	22.403
287	1	9	-0.45542401	-67.081001	26.469999	24.462
288	1	10	0.33480901	-67.014	25.666	25.128
289	1	1	0.016122	-67.600998	25.985001	23.184
290	1	1	0.068986997	-66.737	24.861	22.606001
291	1	4	-0.47940201	-65.452003	25.361	22.299
292	1	1	0.063473001	-64.650002	24.318001	21.785999
293	1	1	0.063473001	-63.259998	24.863001	21.461
294	1	4	-0.47940201	-62.668999	25.440001	22.611
295	1	1	0.068986997	-61.862999	24.504	23.302999
296	1	1	0.016122	-60.41	24.608999	22.836
297	1	9	-0.45668	-59.562	23.716	23.620001
298	1	10	0.33480901	-58.571999	23.878	23.325001
299	1	7	0.086530998	-60.061001	25.656	22.969999
300	1	7	0.086530998	-60.334999	24.349001	21.757
301	1	7	0.090278	-61.902	24.757	24.384001
302	1	7	0.090278	-62.228001	23.454	23.212999
303	1	7	0.095916003	-62.634998	24.065001	20.993999
304	1	7	0.095916003	-63.368	25.659	20.694
305	1	7	0.095916003	-64.546997	23.493999	22.528
306	1	7	0.095916003	-65.089996	23.91	20.848
307	1	7	0.090278	-66.679001	24.034	23.351
308	1	7	0.090278	-67.236	24.483999	21.684999
309	1	7	0.086531997	-68.636002	25.608999	23.334999
310	1	7	0.086531997	-67.648003	26.829	22.462
311	1	1	0.149207	-64.222	29.488001	24.799
312	1	2	-0.69549203	-64.012001	28.584999	25.853001
313	1	3	0.41767401	-63.155998	28.118999	25.665001
314	1	1	0.089262001	-64.670998	28.737	23.530001
315	1	4	-0.48283499	-65.938004	28.104	23.712
316	1	5	0.79024398	-66.099998	26.853001	24.315001
317	1	6	-0.57781398	-65.107002	26.167	24.674999
318	1	7	0.112183	-63.903	27.990999	23.23
319	1	7	0.112183	-64.759003	29.462	22.693001
320	1	7	0.102285	-63.269001	30.021999	24.573
321	1	1	0.054143999	-65.251999	30.535	25.236
322	1	4	-0.41137901	-65.418999	31.514999	24.212
323	1	5	0.25069201	-66.291	32.611	24.287001
324	1	5	-0.44647199	-67.065002	32.855	25.365
325	1	5	0.25132099	-67.971001	34.026001	25.395
326	1	4	-0.42170301	-68.750999	34.227001	26.544001
327	1	1	0.093222998	-69.671997	35.300999	26.726
328	1	1	0.173646	-70.333	35.178001	28.101
329	1	1	0.092854999	-71.253998	36.376999	28.386
330	1	2	-0.673356	-72.369003	36.367001	27.534
331	1	3	0.397908	-72.120003	36.887001	26.726999
332	1	7	0.102496	-71.614998	36.318001	29.434
333	1	7	0.102496	-70.686996	37.332001	28.294001
334	1	4	-0.49281299	-71.071999	33.956001	28.158001
335	1	5	0.78567398	-71.492996	33.362999	29.353001
336	1	6	-0.58702397	-71.197998	33.865002	30.469999
337	1	7	0.112854	-69.524002	35.160999	28.865
338	1	7	0.091450997	-70.447998	35.259998	25.93
339	1	7	0.091450997	-69.125999	36.268002	26.660999
340	1	5	-0.40945101	-68.015999	34.853001	24.330999
341	1	5	-0.046433002	-67.170998	34.589001	23.15
342	1	5	-0.40945101	-66.355003	33.529999	23.129999
343	1	8	0.218086	-65.737999	33.341	22.261
344	1	8	0.214532	-67.212997	35.257999	22.299999
345	1	8	0.218086	-68.664001	35.717999	24.315001
346	1	8	0.21929701	-67.042999	32.205002	26.228001
347	1	7	0.10077	-64.888	31.032	26.162001
348	1	7	0.10077	-66.224998	30.042999	25.452999
349	1	9	-0.45542401	-78.211998	34.856998	33.936001
350	1	10	0.33480901	-78.18	35.549999	33.153
351	1	1	0.016122	-77.418999	35.365002	35.054001
352	1	1	0.068986997	-75.974998	35.661999	34.639
353	1	4	-0.47940201	-75.332001	34.460999	34.265999
354	1	1	0.063473001	-74.008003	34.738998	33.863998
355	1	1	0.063473001	-73.319	33.438	33.457001
356	1	4	-0.47940201	-74.040001	32.796001	32.421001
357	1	1	0.068986997	-73.546997	33.16	31.143999
358	1	1	0.016122	-72.5	32.148998	30.673
359	1	9	-0.45668	-72.066002	32.467999	29.316
360	1	10	0.33480901	-71.415001	31.712	29.004999
361	1	7	0.086530998	-72.946999	31.131001	30.684
362	1	7	0.086530998	-71.625	32.155998	31.360001
363	1	7	0.090278	-74.400002	33.138	30.433001
364	1	7	0.090278	-73.135002	34.195999	31.108999
365	1	7	0.095916003	-72.251999	33.633999	33.198002
366	1	7	0.095916003	-73.305	32.759998	34.337002
367	1	7	0.095916003	-73.994003	35.438999	32.998001
368	1	7	0.095916003	-73.429001	35.188999	34.702999
369	1	7	0.090278	-75.986	36.390999	33.797001
370	1	7	0.090278	-75.457001	36.124001	35.511002
371	1	7	0.086531997	-77.888	36.298	35.435001
372	1	7	0.086531997	-77.425003	34.619999	35.879002
373	1	1	0.149207	-78.447998	30.819	32.917
374	1	2	-0.69549203	-78.535004	31.562	31.73
375	1	3	0.41767401	-77.695	31.398001	31.226
376	1	1	0.089262001	-77.480003	31.497999	33.905998
377	1	4	-0.48283499	-77.961998	32.776001	34.321999
378	1	5	0.79024398	-77.778999	33.951	33.585999
379	1	6	-0.57781398	-77.100998	33.959	32.523998
380	1	7	0.112183	-76.469002	31.591999	33.452999
381	1	7	0.112183	-77.372002	30.855	34.805
382	1	7	0.102285	-78.059998	29.799	32.688
383	1	1	0.054143999	-79.851997	30.660999	33.511002
384	1	4	-0.41137901	-79.801003	29.836	34.674
385	1	5	0.25069201	-80.911003	29.493999	35.462002
386	1	5	-0.44647199	-82.162003	29.913	35.181999
387	1	5	0.25132099	-83.300003	29.525	36.046001
388	1	4	-0.42170301	-84.578003	29.993	35.702999
389	1	1	0.093222998	-85.771004	29.712999	36.432999
390	1	1	0.173646	-86.958	30.399	35.751999
391	1	1	0.092854999	-88.283997	30.035	36.442001
392	1	2	-0.673356	-88.344002	30.58	37.733002
393	1	3	0.397908	-87.959999	29.903999	38.349998
394	1	7	0.102496	-89.127998	30.445	35.849998
395	1	7	0.102496	-88.417	28.927999	36.466999
396	1	4	-0.49281299	-86.755997	31.813999	35.772999
397	1	5	0.78567398	-87.445999	32.705002	34.945
398	1	6	-0.58702397	-88.268997	32.292999	34.084
399	1	7	0.112854	-86.996002	30.042999	34.698002
400	1	7	0.091450997	-85.664001	30.09	37.473
401	1	7	0.091450997	-85.939003	28.614	36.452999
402	1	5	-0.40945101	-83.075996	28.743999	37.120998
403	1	5	-0.046433002	-81.708	28.282	37.431
404	1	5	-0.40945101	-80.684998	28.636999	36.646
405	1	8	0.218086	-79.683998	28.296	36.877998
406	1	8	0.214532	-81.536003	27.655001	38.296001
407	1	8	0.218086	-83.879997	28.438999	37.776001
408	1	8	0.21929701	-82.362999	30.540001	34.324001
409	1	7	0.10077	-80.511002	30.184999	32.752998
410	1	7	0.10077	-80.268997	31.658001	33.771
411	1	9	-0.45542401	-94.899002	36.157001	35.905998
412	1	10	0.33480901	-94.742996	35.474998	36.683998
413	1	1	0.016122	-95.450996	35.445	34.754002
414	1	1	0.068986997	-94.543999	34.294998	34.306
415	1	4	-0.47940201	-93.314003	34.813	33.846001
416	1	1	0.063473001	-92.471001	33.75	33.452999
417	1	1	0.063473001	-91.139999	34.316002	32.959999
418	1	4	-0.47940201	-90.529999	35.104	33.966999
419	1	1	0.068986997	-89.626999	34.34	34.745998
420	1	1	0.016122	-88.210999	34.452999	34.178001
421	1	9	-0.45668	-87.264999	33.749001	35.037998
422	1	10	0.33480901	-86.305	33.917999	34.66
423	1	7	0.086530998	-87.927002	35.527	34.124001
424	1	7	0.086530998	-88.175003	34.028999	33.151001
425	1	7	0.090278	-89.626999	34.759998	35.773998
426	1	7	0.090278	-89.925003	33.269001	34.842999
427	1	7	0.095916003	-90.487999	33.492001	32.587002
428	1	7	0.095916003	-91.342003	34.972	32.087002
429	1	7	0.095916003	-92.274002	33.063	34.306999
430	1	7	0.095916003	-92.931	33.172001	32.619999
431	1	7	0.090278	-94.391998	33.602001	35.166
432	1	7	0.090278	-95.065002	33.747002	33.487999
433	1	7	0.086531997	-96.448997	35.036999	35.026001
434	1	7	0.086531997	-95.593002	36.157001	33.912998
435	1	1	0.149207	-92.237	39.352001	35.587002
436	1	2	-0.69549203	-91.911003	38.644001	36.754002
437	1	3	0.41767401	-91.037003	38.203999	36.588001
438	1	1	0.089262001	-92.699997	38.382999	34.480999
439	1	4	-0.48283499	-93.910004	37.714001	34.839001
440	1	5	0.79024398	-93.955002	36.569	35.639999
441	1	6	-0.57781398	-92.900002	36.007999	36.040001
442	1	7	0.112183	-91.899002	37.645	34.255001
443	1	7	0.112183	-92.879997	38.958	33.548
444	1	7	0.102285	-91.335999	39.897999	35.222
445	1	1	0.054143999	-93.310997	40.394001	35.917999
446	1	4	-0.41137901	-93.597	41.185001	34.764999
447	1	5	0.25069201	-94.537003	42.227001	34.722
448	1	5	-0.44647199	-95.267998	42.595001	35.793999
449	1	5	0.25132099	-96.247002	43.700001	35.698002
450	1	4	-0.42170301	-96.978996	44.035999	36.848
451	1	1	0.093222998	-97.959	45.07	36.916
452	1	1	0.173646	-98.538002	45.131001	38.332001
453	1	1	0.092854999	-99.521004	46.304001	38.483002
454	1	2	-0.673356	-100.676	46.091999	37.714001
455	1	3	0.397908	-100.505	46.490002	36.820999
456	1	7	0.102496	-99.821999	46.391998	39.548
457	1	7	0.102496	-99.026001	47.263	38.207001
458	1	4	-0.49281299	-99.188004	43.891998	38.625999
459	1	5	0.78567398	-99.504997	43.474998	39.922001
460	1	6	-0.58702397	-99.185997	44.166	40.926998
461	1	7	0.112854	-97.690002	45.284	39.037998
462	1	7	0.091450997	-98.771004	44.856998	36.187
463	1	7	0.091450997	-97.484001	46.043999	36.666
464	1	5	-0.40945101	-96.403999	44.341999	34.521999
465	1	5	-0.046433002	-95.606003	43.942001	33.347
466	1	5	-0.40945101	-94.723	42.942001	33.442001
467	1	8	0.218086	-94.139999	42.653999	32.576
468	1	8	0.214532	-95.737999	44.462002	32.407001
469	1	8	0.218086	-97.109001	45.153999	34.411999
470	1	8	0.21929701	-95.155998	42.094002	36.745998
471	1	7	0.10077	-92.932999	41.053001	36.73
472	1	7	0.10077	-94.236	39.887001	36.269001
473	1	9	-0.61923301	-106.061	45.287998	44.625
474	1	10	0.37349299	-106.117	45.848	43.743
475	1	1	0.020060999	-105.246	46.014	45.598
476	1	1	0.074597001	-103.849	46.325001	45.053001
477	1	4	-0.48380601	-103.148	45.118999	44.833
478	1	1	0.062132999	-101.868	45.405998	44.311001
479	1	1	0.063473001	-101.115	44.098999	44.07
480	1	4	-0.47940201	-101.844	43.257999	43.194
481	1	1	0.068986997	-101.444	43.441002	41.848
482	1	1	0.016122	-100.357	42.431	41.476002
483	1	9	-0.45668	-100.018	42.554001	40.062
484	1	10	0.33480901	-99.334	41.796001	39.833
485	1	7	0.086530998	-100.733	41.403999	41.674999
486	1	7	0.086530998	-99.449997	42.598999	42.098
487	1	7	0.090278	-102.33	43.256001	41.203999
488	1	7	0.090278	-101.106	44.48	41.625999
489	1	7	0.095916003	-100.078	44.313	43.717999
490	1	7	0.095916003	-101.009	43.573002	45.042
491	1	7	0.095916003	-101.946	45.958	43.346001
492	1	7	0.095916003	-101.278	46.016998	45.030998
493	1	7	0.095711	-103.954	46.907001	44.109001
494	1	7	0.095711	-103.319	46.950001	45.806999
495	1	7	0.115686	-105.757	46.966999	45.856998
496	1	7	0.115686	-105.159	45.411999	46.528999
497	1	1	0.093699999	5.9419999	4.1209998	4.9949999
498	1	2	-0.673356	6.1259999	2.8180001	5.4790001
499	1	3	0.397908	6.7540002	2.895	6.243
500	1	1	0.182613	4.9640002	4.1259999	3.812
501	1	4	-0.50745398	5.4120002	3.1989999	2.822
502	1	5	0.63574201	5.0599999	3.2850001	1.471
503	1	6	-0.52143002	4.3169999	4.21	1.0470001
504	1	7	0.102524	4.9790001	5.1539998	3.3859999
505	1	1	0.092517003	3.5190001	3.816	4.256
506	1	4	-0.42170301	3.4260001	2.5569999	4.9299998
507	1	5	0.25132099	3.385	1.29	4.3260002
508	1	5	-0.40945101	3.049	1.1	3.0350001
509	1	5	-0.046433002	3.0309999	-0.26100001	2.4649999
510	1	5	-0.40642399	3.3340001	-1.317	3.2279999
511	1	5	0.244845	3.6860001	-1.127	4.6609998
512	1	5	-0.44308099	3.7060001	0.115	5.1669998
513	1	8	0.21929701	3.9649999	0.26800001	6.2080002
514	1	4	-0.425926	4.006	-2.198	5.5089998
515	1	1	0.133443	3.934	-3.5780001	5.1529999
516	1	1	0.201667	2.477	-4.0570002	5.1279998
517	1	1	0.16630401	2.3599999	-5.5700002	4.79
518	1	4	-0.38848501	1.707	-6.1469998	5.9130001
519	1	5	0.80758798	1.459	-5.1609998	6.8379998
520	1	4	-0.38771999	1.898	-3.927	6.421
521	1	6	-0.387988	0.89399999	-5.3660002	7.9429998
522	1	7	0.14816	1.739	-5.7210002	3.881
523	1	7	0.14816	3.3499999	-6.0539999	4.6469998
524	1	7	0.16659001	1.882	-3.4619999	4.4029999
525	1	7	0.092831999	4.4920001	-4.1609998	5.9159999
526	1	7	0.092831999	4.4289999	-3.7539999	4.1739998
527	1	8	0.218086	3.3169999	-2.302	2.783
528	1	8	0.214532	2.7709999	-0.40200001	1.423
529	1	8	0.218086	2.773	1.921	2.392
530	1	7	0.091450997	2.816	3.8729999	3.401
531	1	7	0.091450997	3.198	4.6059999	4.9679999
532	1	7	0.102496	5.5580001	4.7789998	5.8060002
533	1	7	0.102496	6.9200001	4.526	4.651
534	1	9	-0.61923301	-105.595	44.380001	44.398998
535	1	10	0.37349299	-104.573	44.486	44.598
536	1	1	0.020060999	-105.774	44.091999	42.976002
537	1	1	0.074597001	-105.15	45.175999	42.092999
538	1	4	-0.48380601	-105.826	46.400002	42.294998
539	1	1	0.062132999	-105.236	47.403	41.494999
540	1	1	0.062132999	-105.967	48.723999	41.720001
541	1	4	-0.48359901	-105.937	49.083	43.09
542	1	1	0.072642997	-104.841	49.931999	43.379002
543	1	1	0.020389	-105.267	51.397999	43.283001
544	1	9	-0.96285897	-104.165	52.27	43.679001
545	1	10	0.39810899	-104.522	53.252998	43.676998
546	1	10	0.39810899	-103.428	52.221001	42.938
547	1	7	0.109634	-106.131	51.57	43.962002
548	1	7	0.109634	-105.583	51.638	42.243999
549	1	7	0.095761001	-104.52	49.728001	44.423
550	1	7	0.095761001	-103.952	49.740002	42.733002
551	1	7	0.095916003	-105.553	49.512001	41.047001
552	1	7	0.095916003	-107.029	48.591	41.424
553	1	7	0.095916003	-104.162	47.537998	41.756001
554	1	7	0.095916003	-105.318	47.141998	40.415001
555	1	7	0.095711	-104.069	45.266998	42.346001
556	1	7	0.095711	-105.246	44.849998	41.032001
557	1	7	0.115686	-105.3	43.113998	42.743
558	1	7	0.115686	-106.859	44.006001	42.751999

Bonds

1	1	1	2
2	2	1	4
3	3	1	10
4	2	1	11
5	4	2	3
6	5	4	5
7	3	4	8
8	3	4	9
9	6	5	6
10	7	6	7
11	8	6	502
12	5	11	12
13	3	11	37
14	3	11	38
15	9	12	13
16	10	13	14
17	10	13	32
18	10	14	15
19	11	14	36
20	9	15	16
21	10	15	30
22	5	16	17
23	2	17	18
24	3	17	28
25	3	17	29
26	2	18	19
27	5	18	24
28	3	18	27
29	1	19	20
30	3	19	22
31	3	19	23
32	4	20	21
33	6	24	25
34	7	25	26
35	12	25	49
36	10	30	31
37	11	30	35
38	10	31	32
39	11	31	34
40	11	32	33
41	13	39	40
42	14	39	41
43	12	39	68
44	2	41	42
45	3	41	61
46	3	41	62
47	5	42	43
48	3	42	59
49	3	42	60
50	5	43	44
51	2	44	45
52	3	44	57
53	3	44	58
54	5	45	46
55	3	45	55
56	3	45	56
57	5	46	47
58	2	47	48
59	3	47	53
60	3	47	54
61	14	48	49
62	3	48	51
63	3	48	52
64	13	49	50
65	1	63	64
66	2	63	66
67	3	63	72
68	2	63	73
69	4	64	65
70	5	66	67
71	3	66	70
72	3	66	71
73	6	67	68
74	7	68	69
75	5	73	74
76	3	73	99
77	3	73	100
78	9	74	75
79	10	75	76
80	10	75	94
81	10	76	77
82	11	76	98
83	9	77	78
84	10	77	92
85	5	78	79
86	2	79	80
87	3	79	90
88	3	79	91
89	2	80	81
90	5	80	86
91	3	80	89
92	1	81	82
93	3	81	84
94	3	81	85
95	4	82	83
96	6	86	87
97	7	87	88
98	12	87	111
99	10	92	93
100	11	92	97
101	10	93	94
102	11	93	96
103	11	94	95
104	13	101	102
105	14	101	103
106	12	101	130
107	2	103	104
108	3	103	123
109	3	103	124
110	5	104	105
111	3	104	121
112	3	104	122
113	5	105	106
114	2	106	107