Title

15000 atoms
15250 bonds
27000 angles
47875 dihedrals
6375 impropers

11 atom types
16 bond types
10 angle types
43 dihedral types
3 improper types
-18.29759506 186.9560788 xlo xhi
-16.31748528 186.1101553 ylo yhi
-19.22508538 187.1571838 zlo zhi
0.0 0.0 0.0 xy xz yz

Masses

1	12.01078
2	15.99943
3	15.99943
4	12.01078
5	15.99943
6	1.007947
7	1.007947
8	1.007947
9	14.00672
10	1.007947
11	1.007947


Pair Coeffs

1	0.086879315	3.4806469
2	0.2102061	3.0398122
3	0.16846514	3.0251065
4	0.10884061	3.3795318
5	0.20947353	2.99716
6	1.2326e-05	0.53453923
7	0.015611343	2.5725815
8	0.016409246	2.5832257
9	0.16769152	3.206876
10	0.014090815	1.1034277
11	0.015779483	2.6445434

Bond Coeffs

1 harmonic	582.698766451	1.225198386222
2 harmonic	301.15400723785	1.345741232799
3 harmonic	279.1350963404	1.454628925034
4 harmonic	366.7408841747	1.425895053732
5 harmonic	264.62148576755	1.52190126495
6 harmonic	370.04670688625	1.093899492634
7 harmonic	329.96998057905	1.427343958716
8 harmonic	543.5267831885	0.9716763312559
9 harmonic	425.69104206635	1.362945806494
10 harmonic	360.7852444772	1.387193227181
11 harmonic	397.2545789619	1.085358495916
12 harmonic	492.76746816345	1.381897776683
13 harmonic	352.0565580496	1.450098586273
14 harmonic	505.144496193	1.019481865027
15 harmonic	366.34047229585	1.464762957261
16 harmonic	422.7150220147	1.421786517481


Angle Coeffs

1 harmonic	65.09061609600001	110.3538806181
2 harmonic	57.8982893754	126.8062420451
3 harmonic	201.41175231035	127.4691416191
4 harmonic	53.20531626545	116.5475862634
5 harmonic	34.066775159195	129.1835929926
6 harmonic	55.42182150775	117.3465570514
7 harmonic	63.44422595415	115.5071327674
8 harmonic	48.776492647595	115.6030999533
9 harmonic	94.53012429075	110.92021963
10 harmonic	49.015990027215	114.8414599994


Dihedral Coeffs

1 fourier 1	0.1918272375143	3	0
2 fourier 1	0.9202179876409	1	180
3 fourier 1	0.0473758381877	3	0
4 fourier 1	2.779853741805	2	180
5 fourier 1	1.163809172478	2	180
6 fourier 1	0.1679186987369	1	180
7 fourier 1	0.9974165607242	2	180
8 fourier 1	-0.0309670556842	3	0
9 fourier 1	0.4598191477945	2	0
10 fourier 1	0.1155372516788	3	0
11 fourier 1	0.1115525666802	3	0
12 fourier 1	0.3432490222662	1	0
13 fourier 1	0.3445382149273	3	0
14 fourier 1	0.1364556373303	1	0
15 fourier 1	0.1040663847541	3	0
16 fourier 1	0.3026390167484	3	0
17 fourier 1	1.532232714475	2	180
18 fourier 1	3.661930099076	2	180
19 fourier 1	1.809047390003	2	180
20 fourier 1	-0.04816277792592	1	0
21 fourier 1	-0.1488678166443	4	180
22 fourier 1	-0.1230328948768	3	180
23 fourier 1	0.2939295466901	2	0
24 fourier 1	-0.3024127022865	1	0
25 fourier 1	0.182238503271	2	0
26 fourier 1	0.02972342374561	3	0
27 fourier 1	0.4860993122944	2	180
28 fourier 1	0.8916986138746	1	0
29 fourier 1	0.1911926717192	3	0
30 fourier 1	0.09223874044423	3	0
31 fourier 1	0.3159935921949	2	180
32 fourier 1	0.3247796806857	1	180
33 fourier 1	0.2036670163956	3	0
34 fourier 1	0.6761465733405	3	0
35 fourier 1	1.653011589151	2	0
36 fourier 1	1.713184811193	1	0
37 fourier 1	0.774151252041	3	0
38 fourier 1	1.087509576657	2	0
39 fourier 1	1.518874939494	1	0
40 fourier 1	0.3917343745784	3	0
41 fourier 1	0.9467782973395	2	0
42 fourier 1	0.2726597146827	1	0
43 fourier 1	1.659715194912	2	180


Improper Coeffs

1 3.5	-1	2
2 0.3666666666666667	-1	2
3 0.3333333333333333	-1	2


Atoms

1	4	1	0.63015175	2.4725623	-0.4132227	-5.7078574
2	4	2	-0.51654136	3.1998347	-0.47095607	-4.6794549
3	4	3	-0.48885125	1.3594069	-1.246598	-5.8549101
4	4	4	0.10970215	0.93446849	-2.1726065	-4.8560839
5	4	4	0.14608466	0.23241518	-1.4478199	-3.6966679
6	4	5	-0.69506872	-0.90545652	-0.77470842	-4.1731256
7	4	6	0.41826933	-0.59003217	0.07927216	-4.5690292
8	4	4	0.054400133	-0.19271358	-2.4471876	-2.6190484
9	4	3	-0.39615318	-0.80659326	-1.7503719	-1.5369631
10	4	1	0.15980686	-1.3140002	-2.3590735	-0.37772085
11	4	1	-0.34654764	-1.2664248	-3.6904015	-0.17367066
12	4	7	0.21716183	-0.82980833	-4.3577621	-0.90234947
13	4	1	-0.34654766	-1.8176378	-4.273513	1.0677858
14	4	7	0.21716186	-1.7712927	-5.3448953	1.2148031
15	4	1	0.15980694	-2.3700758	-3.4898404	2.003824
16	4	3	-0.39615324	-2.880155	-4.0858785	3.164646
17	4	4	0.054400144	-3.4918316	-3.3616948	4.2292059
18	4	4	0.14952291	-3.926543	-4.3378906	5.3308509
19	4	5	-0.69506872	-4.7949059	-5.3143225	4.8114323
20	4	6	0.41826933	-5.6021658	-4.8475637	4.4689462
21	4	4	0.089543311	-4.5934482	-3.6049277	6.5101354
22	4	3	-0.48242471	-3.6906967	-2.6873655	7.1260204
23	4	1	0.79148197	-2.648952	-3.0815731	7.9716708
24	4	2	-0.57592696	-2.4791497	-4.2923873	8.2760604
25	4	8	0.11285339	-4.9559831	-4.3411424	7.2610218
26	4	8	0.11285339	-5.4753867	-3.0391291	6.1424856
27	4	8	0.10289711	-3.0209102	-4.8601076	5.7069993
28	4	8	0.10143948	-4.3768676	-2.809666	3.8432585
29	4	8	0.10143948	-2.7604858	-2.634962	4.6441126
30	4	1	-0.34654761	-2.4220014	-2.0198723	1.7787023
31	4	7	0.21716185	-2.8621547	-1.3626932	2.5159151
32	4	1	-0.34654761	-1.9226026	-1.4919827	0.65424941
33	4	7	0.21716186	-1.9642638	-0.42253265	0.497728
34	4	8	0.10143948	-0.91425742	-3.1769609	-3.0493394
35	4	8	0.10143948	0.70259278	-2.9920014	-2.2450786
36	4	8	0.10289713	0.93995452	-0.72350243	-3.2292405
37	4	8	0.10200792	1.808698	-2.7525765	-4.48346
38	4	8	0.10200792	0.22590202	-2.8900045	-5.3224781
39	5	9	-0.45741856	-1.9942807	-2.3448832	8.3694928
40	5	4	0.0296095	-0.88911497	-3.0014317	9.0674139
41	5	4	-0.14086388	-1.3709031	-4.090764	10.041756
42	5	4	-0.13893798	-2.1231807	-3.5122983	11.248466
43	5	4	-0.1388268	-2.4615388	-4.6103414	12.26307
44	5	4	-0.14989025	-3.2238758	-4.0372014	13.462538
45	5	4	0.038853483	-3.5601055	-5.132676	14.47851
46	5	9	-0.62394482	-4.3045065	-4.5677799	15.599058
47	5	10	0.37461513	-3.6541451	-3.9630972	16.152696
48	5	8	0.10907946	-4.1812096	-5.9134374	13.986242
49	5	8	0.10907946	-2.6232545	-5.6078402	14.849324
50	5	11	0.10406827	-2.6026814	-3.2577485	13.957852
51	5	11	0.10406827	-4.1680004	-3.5650357	13.112318
52	5	11	0.097500874	-3.0845326	-5.3882872	11.768457
53	5	11	0.097500874	-1.5205432	-5.0850104	12.619201
54	5	11	0.095942443	-3.0676033	-3.037745	10.905189
55	5	11	0.095942443	-1.4947887	-2.7388736	11.740977
56	5	11	0.09741251	-0.47677934	-4.6432444	10.404918
57	5	11	0.09741251	-2.0195982	-4.8165121	9.5030318
58	5	8	0.069526373	-0.28508236	-2.2418251	9.6098614
59	5	8	0.069526373	-0.22542147	-3.4725344	8.3099455
60	5	10	0.33385351	-2.5322633	-1.7603571	9.0488528
61	2	1	0.63015175	2.7170521	0.28730293	-6.4938813
62	2	2	-0.5165413	2.7868736	-0.1161632	-7.6859338
63	2	3	-0.48885128	2.9520604	1.6253946	-6.1709451
64	2	4	0.10970215	3.2787893	2.6051754	-7.1522951
65	2	4	0.14608466	3.4752772	3.9694107	-6.4736107
66	2	5	-0.69506872	2.3164031	4.362429	-5.7822711
67	2	6	0.41826933	1.57183	4.4058095	-6.4374971
68	2	4	0.054400133	3.9054769	5.0508527	-7.476403
69	2	3	-0.39615318	2.9081523	5.2244757	-8.4827965
70	2	1	0.15980686	2.9953244	6.1341792	-9.5475475
71	2	1	-0.34654764	4.0519516	6.9538626	-9.7231263
72	2	7	0.21716183	4.8899004	6.9460876	-9.0402739
73	2	1	-0.34251079	4.0877886	7.8916744	-10.864556
74	2	7	0.21716186	4.9514877	8.5336903	-10.972201
75	2	1	0.1527127	3.0656235	7.9361574	-11.741197
76	2	3	-0.41145253	3.0464938	8.8063803	-12.842734
77	2	4	0.1337198	4.0855921	9.7283641	-13.169171
78	2	4	0.20217255	3.7212231	10.506989	-14.435067
79	2	8	0.16763992	4.5032063	11.270682	-14.64034
80	2	3	-0.38717961	2.4658702	11.155508	-14.271247
81	2	1	0.80796385	1.6117068	10.723924	-15.259546
82	2	2	-0.38592288	0.42421704	11.121081	-15.378388
83	2	3	-0.3879368	2.1984293	9.8082243	-16.099026
84	2	4	0.16678636	3.5379489	9.5876722	-15.677068
85	2	8	0.1493504	3.6822392	8.5117522	-15.440033
86	2	8	0.1493504	4.2367616	9.8838942	-16.489057
87	2	8	0.093517764	5.0394577	9.1818054	-13.336058
88	2	8	0.093517764	4.2213147	10.448	-12.331932
89	2	1	-0.34251073	1.9087981	7.0368132	-11.545983
90	2	7	0.21716185	1.0830171	7.0652733	-12.244931
91	2	1	-0.34654761	1.875543	6.1872754	-10.512136
92	2	7	0.21716186	1.0239365	5.5327528	-10.379364
93	2	8	0.10143948	4.0553873	6.0081104	-6.9311117
94	2	8	0.10143948	4.866514	4.7537196	-7.9486707
95	2	8	0.10289713	4.2939941	3.8624212	-5.7280876
96	2	8	0.10200792	2.4609021	2.6649426	-7.9040121
97	2	8	0.10200792	4.2186349	2.3081823	-7.6678629
98	3	9	-0.62394488	-4.5814756	-5.3576078	16.226879
99	3	4	0.03885348	-3.5499589	-5.5549398	17.245053
100	3	4	-0.14989023	-2.1336766	-5.6176615	16.645616
101	3	4	-0.13889532	-1.9050862	-6.8812531	15.804533
102	3	4	-0.13752711	-0.44562214	-6.978254	15.344037
103	3	4	-0.15139282	-0.21714864	-8.2336829	14.493661
104	3	4	0.036070997	1.2403471	-8.3314709	14.03551
105	3	9	-0.96453893	1.4280323	-9.5205421	13.210253
106	3	10	0.39730352	2.412025	-9.5088566	12.854862
107	3	10	0.39730352	1.3454086	-10.363207	13.825699
108	3	8	0.098121813	1.5010241	-7.4301772	13.438656
109	3	8	0.098121813	1.9154615	-8.3779101	14.919962
110	3	11	0.10502259	-0.47540821	-9.1353085	15.090301
111	3	11	0.10502259	-0.87802811	-8.2010816	13.599889
112	3	11	0.097500874	-0.1890626	-6.0759173	14.745783
113	3	11	0.097500874	0.22019157	-7.0123148	16.235066
114	3	11	0.097500874	-2.562865	-6.8580355	14.908936
115	3	11	0.097500874	-2.1588238	-7.7792117	16.40918
116	3	11	0.10406827	-1.4061226	-5.6062458	17.486069
117	3	11	0.10406827	-1.9468534	-4.7123815	16.026074
118	3	8	0.10907947	-3.7637393	-6.4823828	17.818779
119	3	8	0.10907947	-3.5937121	-4.7048248	17.960159
120	3	10	0.3746151	-4.6646819	-6.2224906	15.64707
121	4	1	0.63015175	1.6471331	2.2560649	33.798344
122	4	2	-0.51654136	0.4538555	2.3249257	34.199862
123	4	3	-0.48885125	2.7033895	2.7287307	34.583304
124	4	4	0.10970215	2.5284496	3.2678802	35.892668
125	4	4	0.14608466	2.2727175	2.1516099	36.917842
126	4	5	-0.69506872	3.371363	1.27614	36.954902
127	4	6	0.41826933	3.2681599	0.65214956	36.189723
128	4	4	0.054400133	2.0580857	2.7435843	38.312199
129	4	3	-0.39615318	1.7848105	1.6951671	39.239265
130	4	1	0.15980686	1.5371401	1.8817466	40.608816
131	4	1	-0.34654764	1.533366	3.0980674	41.189232
132	4	7	0.21716183	1.7229991	3.995932	40.619271
133	4	1	-0.34654766	1.2659963	3.2313664	42.636925
134	4	7	0.21716186	1.2672954	4.2160144	43.086468
135	4	1	0.15980694	1.0246409	2.1492073	43.389373
136	4	3	-0.39615324	0.77656121	2.322855	44.75731
137	4	4	0.054400144	0.50911285	1.2530241	45.660533
138	4	4	0.14952291	0.28434462	1.8157491	47.07063
139	4	5	-0.69506872	1.3969841	2.5689951	47.485266
140	4	6	0.41826933	2.1804575	1.9588361	47.51181
141	4	4	0.089543311	-0.011963741	0.69847035	48.088765
142	4	3	-0.48242471	-1.2038291	-0.0085874497	47.748586
143	4	1	0.79148197	-2.4887849	0.5047786	47.951318
144	4	2	-0.57592696	-2.6639437	1.6254871	48.499851
145	4	8	0.11285339	-0.10517697	1.1282497	49.110467
146	4	8	0.11285339	0.8332898	-0.021550793	48.103798
147	4	8	0.10289711	-0.58979244	2.500532	47.034218
148	4	8	0.10143948	1.3697094	0.54854012	45.668004
149	4	8	0.10143948	-0.40262294	0.71233042	45.326552
150	4	1	-0.34654761	1.0282285	0.80636897	42.748315
151	4	7	0.21716185	0.83729888	-0.084742862	43.330181
152	4	1	-0.34654761	1.2703252	0.68592151	41.437078
153	4	7	0.21716186	1.2714765	-0.29363869	40.978364
154	4	8	0.10143948	2.9720503	3.2930984	38.630079
155	4	8	0.10143948	1.1960263	3.4467855	38.287488
156	4	8	0.10289713	1.3473897	1.5956426	36.637833
157	4	8	0.10200792	1.6878182	3.9978289	35.890482
158	4	8	0.10200792	3.4531121	3.8168779	36.171685
159	5	9	-0.45741856	-3.331525	-0.06484238	47.643276
160	5	4	0.0296095	-4.5433287	0.74157558	47.78737
161	5	4	-0.14086388	-4.6394207	1.4209141	49.164821
162	5	4	-0.13893798	-4.8677707	0.41676529	50.303344
163	5	4	-0.1388268	-5.0992347	1.1393226	51.635238
164	5	4	-0.14989025	-5.3146554	0.138556	52.775602
165	5	4	0.038853483	-5.5489263	0.85908471	54.106493
166	5	9	-0.62394482	-5.7286286	-0.11300448	55.179628
167	5	10	0.37461513	-6.6483621	-0.59153357	55.037409
168	5	8	0.10907946	-4.6687678	1.4985777	54.338992
169	5	8	0.10907946	-6.4496814	1.5103826	54.032836
170	5	11	0.10406827	-6.196607	-0.50029089	52.545818
171	5	11	0.10406827	-4.4205882	-0.51619794	52.86998
172	5	11	0.097500874	-4.2164958	1.7760845	51.866039
173	5	11	0.097500874	-5.9942153	1.7943049	51.547939
174	5	11	0.095942443	-3.9780404	-0.24167873	50.402367
175	5	11	0.095942443	-5.7528717	-0.21374181	50.069494
176	5	11	0.09741251	-5.492976	2.1330515	49.135127
177	5	11	0.09741251	-3.7157142	2.009972	49.358515
178	5	8	0.069526373	-5.4386349	0.10678049	47.609693
179	5	8	0.069526373	-4.5360372	1.53014	47.003598
180	5	10	0.33385351	-3.4019794	-0.906081	48.259701
181	2	1	0.63015175	1.8581169	1.8311065	32.827138
182	2	2	-0.5165413	2.5874011	2.4642198	32.017223
183	2	3	-0.48885128	1.3161585	0.58911186	32.489889
184	2	4	0.10970215	1.5502891	-0.033148508	31.229832
185	2	4	0.14608466	0.81571014	-1.3814266	31.176001
186	2	5	-0.69506872	1.2437533	-2.2326734	32.209229
187	2	6	0.41826933	2.2219916	-2.3671032	32.106416
188	2	4	0.054400133	0.9704271	-2.0632617	29.80803
189	2	3	-0.39615318	2.3463538	-2.3256728	29.533084
190	2	1	0.15980686	2.8266643	-2.9379509	28.365492
191	2	1	-0.34654764	2.0150502	-3.3510273	27.370595
192	2	7	0.21716183	0.94287552	-3.2272597	27.430837
193	2	1	-0.34251079	2.5792388	-3.9897852	26.163401
194	2	7	0.21716186	1.8970317	-4.3083986	25.386982
195	2	1	0.1527127	3.9098788	-4.1647899	26.044786
196	2	3	-0.41145253	4.5002947	-4.7648583	24.921236
197	2	4	0.1337198	3.7831551	-5.2488391	23.786417
198	2	4	0.20217255	4.7544774	-5.8345578	22.759295
199	2	8	0.16763992	4.1815225	-6.2719457	21.912373
200	2	3	-0.38717961	5.5524642	-6.8489105	23.357318
201	2	1	0.80796385	6.8781931	-6.5071588	23.222249
202	2	2	-0.38592288	7.8278042	-7.2106978	23.652667
203	2	3	-0.3879368	7.0490907	-5.3105914	22.569182
204	2	4	0.16678636	5.7731135	-4.7861487	22.225893
205	2	8	0.1493504	5.6432301	-3.7856641	22.691478
206	2	8	0.1493504	5.6950125	-4.6923236	21.121126
207	2	8	0.093517764	3.2094055	-4.419516	23.317939
208	2	8	0.093517764	3.0750733	-6.0451659	24.105397
209	2	1	-0.34251073	4.7968464	-3.7113297	27.136956
210	2	7	0.21716185	5.867013	-3.8475664	27.050724
211	2	1	-0.34654761	4.2864672	-3.1329058	28.230848
212	2	7	0.21716186	4.9452613	-2.8039589	29.023972
213	2	8	0.10143948	0.4030118	-3.0193635	29.816231
214	2	8	0.10143948	0.54967836	-1.4041787	29.018412
215	2	8	0.10289713	-0.26830786	-1.1832345	31.32823
216	2	8	0.10200792	2.6431264	-0.18579988	31.088431
217	2	8	0.10200792	1.1727206	0.62800325	30.418879
218	3	9	-0.62394488	-5.8060777	0.41681535	56.078511
219	3	4	0.03885348	-7.2130368	0.70928492	56.351591
220	3	4	-0.14989023	-7.9374918	1.3113932	55.134322
221	3	4	-0.13889532	-7.4454313	2.7254371	54.795657
222	3	4	-0.13752711	-8.2850932	3.3450289	53.672013
223	3	4	-0.15139282	-7.7881846	4.7532574	53.323566
224	3	4	0.036070997	-8.6276688	5.3725291	52.203063
225	3	9	-0.96453893	-8.122457	6.7016257	51.873778
226	3	10	0.39730352	-8.6700732	7.0563085	51.055855
227	3	10	0.39730352	-8.337141	7.3415288	52.673852
228	3	8	0.098121813	-8.5699711	4.7276793	51.298984
229	3	8	0.098121813	-9.6929181	5.4436523	52.519883
230	3	11	0.10502259	-7.8475911	5.3991848	54.226259
231	3	11	0.10502259	-6.726605	4.7011625	52.996476
232	3	11	0.097500874	-8.2234538	2.6982467	52.768788
233	3	11	0.097500874	-9.3486447	3.4005089	53.994784
234	3	11	0.097500874	-6.3840164	2.6833904	54.468645
235	3	11	0.097500874	-7.513733	3.367717	55.70071
236	3	11	0.10406827	-9.023306	1.3529639	55.369065
237	3	11	0.10406827	-7.8088226	0.64514221	54.252381
238	3	8	0.10907947	-7.2898228	1.3971844	57.221023
239	3	8	0.10907947	-7.7217522	-0.23852762	56.632387
240	3	10	0.3746151	-5.2802987	1.313558	55.975881
241	4	1	0.63015175	-0.95167987	2.5136352	84.368116
242	4	2	-0.51654136	-1.8861606	2.4357731	83.525173
243	4	3	-0.48885125	-0.1979947	1.3893686	84.719167
244	4	4	0.10970215	-0.38496528	0.10350227	84.129839
245	4	4	0.14608466	0.211392	0.055001608	82.714055
246	4	5	-0.69506872	1.5926487	0.30798969	82.768552
247	4	6	0.41826933	1.7029051	1.2929802	82.824696
248	4	4	0.054400133	-0.020563952	-1.3187109	82.081722
249	4	3	-0.39615318	0.50571332	-1.3294614	80.756495
250	4	1	0.15980686	0.46332516	-2.431329	79.887063
251	4	1	-0.34654764	-0.092778946	-3.6097309	80.23123
252	4	7	0.21716183	-0.53693924	-3.7613696	81.204217
253	4	1	-0.34654766	-0.1072383	-4.7345041	79.272196
254	4	7	0.21716186	-0.55774892	-5.6739358	79.565676
255	4	1	0.15980694	0.4301544	-4.5988175	78.052239
256	4	3	-0.39615324	0.39418233	-5.6915322	77.176094
257	4	4	0.054400144	0.93234809	-5.672445	75.856286
258	4	4	0.14952291	0.71109151	-7.0381634	75.191897
259	4	5	-0.69506872	1.2869279	-8.0625033	75.964173
260	4	6	0.41826933	2.2642314	-7.8907529	76.011169
261	4	4	0.089543311	1.2735499	-7.0714949	73.758287
262	4	3	-0.48242471	0.62208355	-6.1139916	72.924636
263	4	1	0.79148197	-0.66775909	-6.2885323	72.41317
264	4	2	-0.57592696	-1.3175958	-7.3459145	72.630454
265	4	8	0.11285339	1.1580228	-8.0901614	73.326725
266	4	8	0.11285339	2.3590219	-6.8384371	73.781619
267	4	8	0.10289711	-0.38279534	-7.2270355	75.145986
268	4	8	0.10143948	2.0204142	-5.4464977	75.901453
269	4	8	0.10143948	0.41981644	-4.8838206	75.264224
270	4	1	-0.34654761	1.043579	-3.2975068	77.67213
271	4	7	0.21716185	1.4852691	-3.1587462	76.695013
272	4	1	-0.34654761	1.0564604	-2.2789093	78.540896
273	4	7	0.21716186	1.5044422	-1.3361149	78.257331
274	4	8	0.10143948	0.48589768	-2.100895	82.690023
275	4	8	0.10143948	-1.1124153	-1.530396	82.045681
276	4	8	0.10289713	-0.29358704	0.81476914	82.072583
277	4	8	0.10200792	-1.4696312	-0.14641597	84.106782
278	4	8	0.10200792	0.12308563	-0.65113883	84.767531
279	5	9	-0.45741856	-1.1032577	-5.5178088	71.825041
280	5	4	0.0296095	-2.5045585	-5.8415928	71.558468
281	5	4	-0.14086388	-2.6907112	-7.282139	71.050254
282	5	4	-0.13893798	-2.1115644	-7.4912077	69.643992
283	5	4	-0.1388268	-2.4404515	-8.8925058	69.116923
284	5	4	-0.14989025	-1.8522503	-9.1079551	67.718362
285	5	4	0.038853483	-2.1825118	-10.506624	67.189244
286	5	9	-0.62394482	-1.593658	-10.696226	65.867816
287	5	10	0.37461513	-2.1100269	-10.089744	65.18909
288	5	8	0.10907946	-1.7690446	-11.270482	67.884407
289	5	8	0.10907946	-3.2869518	-10.640778	67.132773
290	5	11	0.10406827	-2.2670148	-8.3461536	67.020942
291	5	11	0.10406827	-0.74742387	-8.9860048	67.756477
292	5	11	0.097500874	-2.0237126	-9.6539988	69.812926
293	5	11	0.097500874	-3.5447959	-9.019789	69.074082
294	5	11	0.095942443	-1.0073754	-7.3695855	69.674793
295	5	11	0.095942443	-2.5342265	-6.7306401	68.952238
296	5	11	0.09741251	-3.781453	-7.4973579	71.026991
297	5	11	0.09741251	-2.2215972	-7.9957132	71.763334
298	5	8	0.069526373	-2.9224801	-5.1189797	70.824112
299	5	8	0.069526373	-3.0786589	-5.7226305	72.503159
300	5	10	0.33385351	-0.58389589	-5.4628911	70.919573
301	2	1	0.63015175	-0.7330557	3.4641871	84.833948
302	2	2	-0.5165413	-0.63824816	3.5337308	86.088868
303	2	3	-0.48885128	-0.56175661	4.596161	84.034387
304	2	4	0.10970215	-0.27171794	5.8813212	84.576615
305	2	4	0.14608466	-0.14544701	6.9050051	83.437982
306	2	5	-0.69506872	0.86567709	6.5350809	82.534551
307	2	6	0.41826933	1.7175364	6.4734146	83.040639
308	2	4	0.054400133	0.091709279	8.3265544	83.970087
309	2	3	-0.39615318	1.3050153	8.383663	84.719924
310	2	1	0.15980686	1.808114	9.5364851	85.341814
311	2	1	-0.34654764	1.1814164	10.729465	85.285086
312	2	7	0.21716183	0.25060716	10.851339	84.749132
313	2	1	-0.34251079	1.7598398	11.909543	85.960719
314	2	7	0.21716186	1.2288834	12.84933	85.892646
315	2	1	0.1527127	2.9183431	11.804706	86.640556
316	2	3	-0.41145253	3.5130201	12.8916	87.300903
317	2	4	0.1337198	2.9753829	14.212878	87.339773
318	2	4	0.20217255	3.8914131	15.13126	88.151545
319	2	8	0.16763992	3.5009564	16.172013	88.116333
320	2	3	-0.38717961	5.2102848	15.108387	87.619211
321	2	1	0.80796385	6.0795995	14.704359	88.605948
322	2	2	-0.38592288	7.3205358	14.586864	88.437837
323	2	3	-0.3879368	5.4412558	14.439532	89.793323
324	2	4	0.16678636	4.0484315	14.672874	89.630236
325	2	8	0.1493504	3.4853122	13.741317	89.853187
326	2	8	0.1493504	3.7225489	15.476708	90.325265
327	2	8	0.093517764	1.9651842	14.198155	87.804228
328	2	8	0.093517764	2.8932111	14.611937	86.304753
329	2	1	-0.34251073	3.6030529	10.495993	86.7007
330	2	7	0.21716185	4.5340665	10.401954	87.244412
331	2	1	-0.34654761	3.079826	9.4267102	86.088713
332	2	7	0.21716186	3.5892303	8.4732224	86.139999
333	2	8	0.10143948	0.1521645	9.027623	83.109269
334	2	8	0.10143948	-0.76206573	8.6252895	84.615643
335	2	8	0.10289713	-1.1089742	6.914314	82.882034
336	2	8	0.10200792	0.67621674	5.8341816	85.156949
337	2	8	0.10200792	-1.0954662	6.1853056	85.259518
338	3	9	-0.62394488	-1.7743764	-11.685316	65.578438
339	3	4	0.03885348	-3.0297629	-11.752173	64.830654
340	3	4	-0.14989023	-4.1818875	-11.023872	65.545707
341	3	4	-0.13889532	-4.6168641	-11.732979	66.835785
342	3	4	-0.13752711	-5.854648	-11.060614	67.441854
343	3	4	-0.15139282	-6.2843629	-11.759834	68.737183
344	3	4	0.036070997	-7.5212272	-11.089712	69.341221
345	3	9	-0.96453893	-7.8973195	-11.757525	70.583294
346	3	10	0.39730352	-8.693869	-11.224176	71.002494
347	3	10	0.39730352	-8.2689542	-12.706796	70.345688
348	3	8	0.098121813	-7.2948333	-10.022544	69.556663
349	3	8	0.098121813	-8.3686604	-11.133308	68.620009
350	3	11	0.10502259	-6.5130036	-12.826211	68.522312
351	3	11	0.10502259	-5.4522701	-11.719092	69.473807
352	3	11	0.097500874	-5.6238204	-9.9938193	67.657747
353	3	11	0.097500874	-6.6910218	-11.099664	66.708809
354	3	11	0.097500874	-3.7903749	-11.698342	67.578094
355	3	11	0.097500874	-4.8503207	-12.796934	66.612611
356	3	11	0.10406827	-5.0456421	-10.982293	64.84712
357	3	11	0.10406827	-3.8816821	-9.9767077	65.772842
358	3	8	0.10907947	-3.3018421	-12.814647	64.65139
359	3	8	0.10907947	-2.8738886	-11.277408	63.837534
360	3	10	0.3746151	-1.8544353	-12.268969	66.441029
361	4	1	0.63015175	2.0336036	1.5308033	123.80556
362	4	2	-0.51654136	2.8390095	1.1821172	122.90023
363	4	3	-0.48885125	1.0988746	2.5482412	123.59025
364	4	4	0.10970215	0.94783399	3.2245979	122.34308
365	4	4	0.14608466	0.212929	2.3404278	121.32298
366	4	5	-0.69506872	-1.0703699	2.0250534	121.80102
367	4	6	0.41826933	-0.96312011	1.2709437	122.43768
368	4	4	0.054400133	0.082596504	3.0648039	119.9817
369	4	3	-0.39615318	-0.56692344	2.2133287	119.0402
370	4	1	0.15980686	-0.84819965	2.5593226	117.70866
371	4	1	-0.34654764	-0.52208877	3.7565704	117.18275
372	4	7	0.21716183	-0.022860173	4.5136819	117.76972
373	4	1	-0.34654766	-0.84453966	4.0632987	115.77314
374	4	7	0.21716186	-0.57562604	5.0301089	115.36745
375	4	1	0.15980694	-1.4630591	3.159021	115.00164
376	4	3	-0.39615324	-1.7493199	3.4930413	113.67144
377	4	4	0.054400144	-2.4035186	2.6200536	112.75394
378	4	4	0.14952291	-2.5458401	3.3175474	111.39424
379	4	5	-0.69506872	-3.2433999	4.5307113	111.53176
380	4	6	0.41826933	-4.1520655	4.3183962	111.87246
381	4	4	0.089543311	-3.2464105	2.414277	110.36176
382	4	3	-0.48242471	-2.4957896	1.2247478	110.12138
383	4	1	0.79148197	-1.3315269	1.1914873	109.34733
384	4	2	-0.57592696	-0.90167511	2.2265778	108.77168
385	4	8	0.11285339	-3.3941254	2.9679689	109.40841
386	4	8	0.11285339	-4.249644	2.1276352	110.74185
387	4	8	0.10289711	-1.5273807	3.5565915	111.02011
388	4	8	0.10143948	-3.4085432	2.351968	113.14769
389	4	8	0.10143948	-1.7989608	1.695039	112.63557
390	4	1	-0.34654761	-1.8225256	1.8369453	115.58222
391	4	7	0.21716185	-2.3225045	1.0877465	114.98404
392	4	1	-0.34654761	-1.5302794	1.5593536	116.85894
393	4	7	0.21716186	-1.7950072	0.59617502	117.27386
394	4	8	0.10143948	-0.51303414	3.9952394	120.11534
395	4	8	0.10143948	1.095256	3.3275887	119.60261
396	4	8	0.10289713	0.79897231	1.4073947	121.15053
397	4	8	0.10200792	1.9467405	3.5246071	121.95363
398	4	8	0.10200792	0.35950393	4.150969	122.51615
399	5	9	-0.45741856	-0.80522836	0.27465239	109.23782
400	5	4	0.0296095	0.46083158	0.51945103	108.54738
401	5	4	-0.14086388	0.28453725	1.3667776	107.27496
402	5	4	-0.13893798	-0.46667968	0.6167744	106.16597
403	5	4	-0.1388268	-0.49786437	1.4371441	104.87151
404	5	4	-0.14989025	-1.2584443	0.69585953	103.7668
405	5	4	0.038853483	-1.2879461	1.5130637	102.47195
406	5	9	-0.62394482	-2.0357841	0.79808621	101.44316
407	5	10	0.37461513	-1.4749585	-0.035496882	101.15034
408	5	8	0.10907946	-1.7804138	2.4917344	102.66525
409	5	8	0.10907946	-0.24871971	1.703725	102.11892
410	5	11	0.10406827	-0.76538237	-0.282418	103.57026
411	5	11	0.10406827	-2.3025114	0.50364885	104.09837
412	5	11	0.097500874	-0.99292501	2.414107	105.06752
413	5	11	0.097500874	0.54412066	1.6306417	104.53322
414	5	11	0.095942443	-1.5109459	0.42045865	106.49145
415	5	11	0.095942443	0.034377115	-0.35624463	105.97153
416	5	11	0.09741251	1.2966785	1.6399718	106.90413
417	5	11	0.09741251	-0.24952759	2.3106762	107.52309
418	5	8	0.069526373	0.94487703	-0.44998845	108.2984
419	5	8	0.069526373	1.1407775	1.0601812	109.24126
420	5	10	0.33385351	-1.3911204	-0.37342989	108.66394
421	2	1	0.63015175	2.070197	1.040436	124.76813
422	2	2	-0.5165413	2.1213242	1.7359562	125.81803
423	2	3	-0.48885128	2.0616056	-0.35469984	124.82753
424	2	4	0.10970215	2.107498	-1.0701664	126.05869
425	2	4	0.14608466	2.0849995	-2.5806013	125.77863
426	2	5	-0.69506872	0.93136345	-2.9457027	125.06362
427	2	6	0.41826933	0.14219754	-2.6822982	125.60531
428	2	4	0.054400133	2.2101451	-3.4039811	127.06958
429	2	3	-0.39615318	1.1198095	-3.1254513	127.94777
430	2	1	0.15980686	0.9387495	-3.7113346	129.20984
431	2	1	-0.34654764	1.7947602	-4.6182475	129.72357
432	2	7	0.21716183	2.6703543	-4.9386818	129.17662
433	2	1	-0.34251079	1.5517691	-5.2011659	131.05954
434	2	7	0.21716186	2.2599284	-5.9257507	131.438
435	2	1	0.1527127	0.47322082	-4.8315228	131.77745
436	2	3	-0.41145253	0.19312692	-5.3520241	133.0509
437	2	4	0.1337198	0.9995483	-6.3117161	133.73282
438	2	4	0.20217255	0.3869371	-6.6423179	135.09551
439	2	8	0.16763992	0.98329602	-7.4417144	135.58763
440	2	3	-0.38717961	-0.95427535	-7.0892174	134.93817
441	2	1	0.80796385	-1.7836997	-6.266591	135.66476
442	2	2	-0.38592288	-3.0319025	-6.4097722	135.72373
443	2	3	-0.3879368	-1.0977581	-5.2693963	136.31481
444	2	4	0.16678636	0.28868445	-5.4018466	136.02978
445	2	8	0.1493504	0.66148902	-4.4718367	135.54946
446	2	8	0.1493504	0.84689197	-5.578934	136.97448
447	2	8	0.093517764	2.0258375	-5.9096305	133.87943
448	2	8	0.093517764	1.0579328	-7.2446177	133.12986
449	2	1	-0.34251073	-0.46333976	-3.8375937	131.21165
450	2	7	0.21716185	-1.3324414	-3.5344151	131.78086
451	2	1	-0.34654761	-0.24400557	-3.3093714	130.00147
452	2	7	0.21716186	-0.93583976	-2.5818376	129.59734
453	2	8	0.10143948	2.2117283	-4.4846993	126.80842
454	2	8	0.10143948	3.1693555	-3.156042	127.57293
455	2	8	0.10289713	2.9664994	-2.820914	125.144
456	2	8	0.10200792	1.2356367	-0.78357838	126.68743
457	2	8	0.10200792	3.0424622	-0.80696909	126.60081
458	3	9	-0.62394488	-2.0993089	1.4216759	100.60542
459	3	4	0.03885348	-0.96992902	1.1566133	99.71442
460	3	4	-0.14989023	0.37737133	1.1403349	100.45848
461	3	4	-0.13889532	0.78206	2.5279536	100.97528
462	3	4	-0.13752711	2.1896018	2.498948	101.58314
463	3	4	-0.15139282	2.5918087	3.8813903	102.11089
464	3	4	0.036070997	3.9977736	3.8528225	102.71604
465	3	9	-0.96453893	4.3490618	5.1724519	103.23115
466	3	10	0.39730352	5.2791684	5.0921391	103.70352
467	3	10	0.39730352	4.4848311	5.8166369	102.41735
468	3	8	0.098121813	4.0258721	3.1179641	103.55013
469	3	8	0.098121813	4.7383039	3.5415166	101.94474
470	3	11	0.10502259	2.56612	4.616213	101.27723
471	3	11	0.10502259	1.8671621	4.2059409	102.88948
472	3	11	0.097500874	2.2133581	1.764179	102.4183
473	3	11	0.097500874	2.9191343	2.1756945	100.80745
474	3	11	0.097500874	0.062148473	2.861366	101.75366
475	3	11	0.097500874	0.76071454	3.2563554	100.13547
476	3	11	0.10406827	1.1541257	0.77737818	99.750854
477	3	11	0.10406827	0.33069093	0.4203634	101.30567
478	3	8	0.10907947	-0.94892481	1.9146271	98.902024
479	3	8	0.10907947	-1.1225773	0.16375908	99.238054
480	3	10	0.3746151	-2.0567837	2.4130528	100.93175
481	4	1	0.63015175	4.1878714	-1.0974506	161.97204
482	4	2	-0.51654136	3.6638024	0.041468044	161.83755
483	4	3	-0.48885125	3.4009738	-2.2487002	162.07534
484	4	4	0.10970215	1.9769218	-2.2368072	161.98786
485	4	4	0.14608466	1.5164201	-2.058714	160.5323
486	4	5	-0.69506872	1.9880277	-3.1252502	159.74812
487	4	6	0.41826933	2.9310529	-2.9179223	159.5174
488	4	4	0.054400133	-0.011025567	-2.0184893	160.45467
489	4	3	-0.39615318	-0.41530256	-1.8144143	159.10255
490	4	1	0.15980686	-1.7483133	-1.7252517	158.67017
491	4	1	-0.34654764	-2.7955345	-1.8255412	159.51255
492	4	7	0.21716183	-2.6545078	-1.9808521	160.57225
493	4	1	-0.34654766	-4.1774785	-1.723649	158.99785
494	4	7	0.21716186	-5.0065807	-1.8069256	159.6887
495	4	1	0.15980694	-4.4074358	-1.5309528	157.69191
496	4	3	-0.39615324	-5.7334365	-1.4407792	157.24858
497	4	4	0.054400144	-6.1064475	-1.2391614	155.88766
498	4	4	0.14952291	-7.6364091	-1.1896334	155.77667
499	4	5	-0.69506872	-8.2077892	-2.3654082	156.29469
500	4	6	0.41826933	-7.8777254	-3.1264639	155.74818
501	4	4	0.089543311	-8.0947849	-0.97042474	154.32252
502	4	3	-0.48242471	-7.6189847	0.27433258	153.81224
503	4	1	0.79148197	-8.1687997	1.511517	154.16272
504	4	2	-0.57592696	-9.1654553	1.5881435	154.92977
505	4	8	0.11285339	-9.2050102	-1.0044509	154.26323
506	4	8	0.11285339	-7.6997269	-1.7879567	153.68324
507	4	8	0.10289711	-8.0003393	-0.33989302	156.393
508	4	8	0.10143948	-5.709637	-2.0716157	155.26594
509	4	8	0.10143948	-5.6766426	-0.27885488	155.52956
510	4	1	-0.34654761	-3.2511126	-1.4196269	156.76201
511	4	7	0.21716185	-3.4058569	-1.2645611	155.70319
512	4	1	-0.34654761	-1.9995596	-1.5118535	157.22846
513	4	7	0.21716186	-1.1641926	-1.4301699	156.54622
514	4	8	0.10143948	-0.43001882	-2.9795295	160.82775
515	4	8	0.10143948	-0.39203849	-1.1826424	161.08271
516	4	8	0.10289713	1.9030822	-1.0903402	160.13672
517	4	8	0.10200792	1.5665957	-1.4256085	162.63057
518	4	8	0.10200792	1.5940959	-3.2041809	162.37758
519	5	9	-0.45741856	-7.7417895	2.4013858	153.76855
520	5	4	0.0296095	-8.3581419	3.5626769	154.40969
521	5	4	-0.14086388	-9.8949653	3.4841218	154.42023
522	5	4	-0.13893798	-10.502337	3.6188384	153.01679
523	5	4	-0.1388268	-12.032566	3.6783449	153.08359
524	5	4	-0.14989025	-12.641586	3.7999034	151.68263
525	5	4	0.038853483	-14.170356	3.8623756	151.74798
526	5	9	-0.62394482	-14.727695	3.9549032	150.40274