Title

74 atoms
77 bonds
130 angles
193 dihedrals
78 impropers

9 atom types
13 bond types
6 angle types
13 dihedral types
2 improper types
-13.93200016 86.06799984 xlo xhi
-2.431999922 97.56800008 ylo yhi
-5.782000065 94.21799994 zlo zhi
0.0 0.0 0.0 xy xz yz

Masses

1	15.99943
2	12.01078
3	1.007947
4	12.01078
5	1.007947
6	15.99943
7	15.99943
8	1.007947
9	35.4532


Pair Coeffs

1	0.16846514	3.0251065
2	0.086879315	3.4806469
3	0.015611343	2.5725815
4	0.10884061	3.3795318
5	0.015779483	2.6445434
6	0.2102061	3.0398122
7	0.20947353	2.99716
8	1.2326e-05	0.53453923
9	0.2656001	3.3075278

Bond Coeffs

1 harmonic	425.69104206635	1.362945806494
2 harmonic	300.03137914615	1.451203938761
3 harmonic	360.7852444772	1.387193227181
4 harmonic	397.2545789619	1.085358495916
5 harmonic	289.73813263395	1.498646816465
6 harmonic	264.62148576755	1.52190126495
7 harmonic	301.15400723785	1.345741232799
8 harmonic	370.04670688625	1.093899492634
9 harmonic	582.698766451	1.225198386222
10 harmonic	279.1350963404	1.454628925034
11 harmonic	385.7604595587	1.369745182308
12 harmonic	543.5267831885	0.9716763312559
13 harmonic	218.0227703685	1.746066037062


Angle Coeffs

1 harmonic	57.8982893754	126.8062420451
2 harmonic	65.09061609600001	110.3538806181
3 harmonic	34.066775159195	129.1835929926
4 harmonic	53.20531626545	116.5475862634
5 harmonic	201.41175231035	127.4691416191
6 harmonic	48.776492647595	115.6030999533


Dihedral Coeffs

1 fourier 1	3.661930099076	2	180
2 fourier 1	1.532232714475	2	180
3 fourier 1	0.457973137376	1	0
4 fourier 1	0.02664938770063	3	0
5 fourier 1	0.1155372516788	3	0
6 fourier 1	0.1040663847541	3	0
7 fourier 1	2.779853741805	2	180
8 fourier 1	0.9974165607242	2	180
9 fourier 1	0.09223874044423	3	0
10 fourier 1	0.3159935921949	2	180
11 fourier 1	0.3247796806857	1	180
12 fourier 1	0.1911926717192	3	0
13 fourier 1	0.8283030590042	2	180


Improper Coeffs

1 0.3666666666666667	-1	2
2 3.5	-1	2


Atoms

1	1	1	-0.021128001	-4.618	0.39399999	2.8280001
2	1	2	0.27888	-3.573	0.257	1.9170001
3	1	2	-0.319074	-3.6110001	0.87400001	0.72799999
4	1	3	0.227277	-4.46	1.488	0.456
5	1	2	-0.147273	-2.4949999	0.72100002	-0.229
6	1	3	0.211226	-2.598	1.219	-1.181
7	1	2	-0.261002	-1.403	-0.015	0.086999997
8	1	4	0.01788	-0.228	-0.24600001	-0.88700002
9	1	2	-0.261002	1.092	-0.145	-0.093999997
10	1	2	-0.14994501	1.359	0.97600001	0.61400002
11	1	3	0.211226	0.64899999	1.793	0.64399999
12	1	2	-0.270973	2.6199999	1.119	1.369
13	1	3	0.227174	2.8039999	2.0250001	1.933
14	1	2	0.43977699	3.5280001	0.139	1.355
15	1	1	-0.440478	4.7140002	0.28299999	2.0699999
16	1	2	-0.270973	3.2650001	-1.091	0.57999998
17	1	3	0.227174	4.0009999	-1.885	0.56400001
18	1	2	-0.14994501	2.1229999	-1.229	-0.105
19	1	3	0.211226	1.974	-2.1440001	-0.65899998
20	1	4	-0.13213401	-0.45300001	-1.652	-1.4960001
21	1	5	0.085472003	-1.434	-1.694	-2.0179999
22	1	5	0.085472003	0.32800001	-1.918	-2.237
23	1	5	0.085472003	-0.458	-2.4319999	-0.704
24	1	4	-0.13484	-0.197	0.80599999	-2.049
25	1	4	-0.114281	1.064	0.773	-2.925
26	1	5	0.065778002	0.97899997	1.55	-3.714
27	1	5	0.065778002	1.973	0.995	-2.329
28	1	5	0.065778002	1.182	-0.208	-3.428
29	1	5	0.10081	-1.066	0.65200001	-2.7249999
30	1	5	0.10081	-0.28200001	1.832	-1.628
31	1	2	-0.147273	-1.397	-0.71799999	1.406
32	1	3	0.211226	-0.56400001	-1.354	1.6799999
33	1	2	-0.319074	-2.4130001	-0.58200002	2.2650001
34	1	3	0.227277	-2.388	-1.097	3.217
35	1	2	0.62851	5.441	-0.47299999	2.073
36	1	6	-0.494856	5.1030002	-1.6440001	2.0810001
37	1	1	-0.021128001	-5.4330001	0.96200001	2.625
38	1	2	0.27888	-5.9260001	1.099	1.3279999
39	1	2	-0.319074	-5.3340001	0.48199999	0.29699999
40	1	3	0.227277	-4.4559999	-0.132	0.45699999
41	1	2	-0.147273	-5.868	0.63499999	-1.072
42	1	3	0.211226	-5.3299999	0.13699999	-1.864
43	1	2	-0.261002	-6.98	1.3710001	-1.307
44	1	4	0.01788	-7.559	1.602	-2.72
45	1	2	-0.261002	-9.0959997	1.501	-2.641
46	1	2	-0.106974	-9.665	0.38	-2.142
47	1	3	0.211226	-9.0530005	-0.43700001	-1.7819999
48	1	2	-0.41106001	-11.133	0.237	-2.069
49	1	3	0.23258901	-11.56	-0.66900003	-1.658
50	1	2	0.43303499	-11.928	1.217	-2.5090001
51	1	7	-0.64868802	-13.311	1.073	-2.4360001
52	1	8	0.43610001	-13.932	1.803	-2.763
53	1	2	-0.41106001	-11.331	2.447	-3.069
54	1	3	0.23258901	-11.973	3.2409999	-3.4289999
55	1	2	-0.106974	-10.001	2.585	-3.135
56	1	3	0.211226	-9.6090002	3.5	-3.5539999
57	1	4	-0.13213401	-7.073	3.0079999	-3.151
58	1	5	0.085472003	-5.9619999	3.05	-3.1500001
59	1	5	0.085472003	-7.414	3.2739999	-4.1719999
60	1	5	0.085472003	-7.4419999	3.7880001	-2.45
61	1	4	-0.13484	-7.039	0.55000001	-3.76
62	1	4	-0.114281	-7.7399998	0.583	-5.1259999
63	1	5	0.065778002	-7.2930002	-0.19400001	-5.7820001
64	1	5	0.065778002	-8.8219995	0.361	-5.0279999
65	1	5	0.065778002	-7.6069999	1.564	-5.625
66	1	5	0.10081	-5.954	0.704	-3.947
67	1	5	0.10081	-7.1620002	-0.47600001	-3.348
68	1	2	-0.147273	-7.6059999	2.0739999	-0.146
69	1	3	0.211226	-8.4700003	2.71	-0.29699999
70	1	2	-0.319074	-7.1139998	1.938	1.09
71	1	3	0.227277	-7.5840001	2.4530001	1.918
72	1	2	0.46773699	6.494	-0.212	2.0710001
73	1	6	-0.56981802	6.8330002	0.95499998	1.974
74	1	9	-0.081951	7.7090001	-1.47	2.2049999

Bonds

1	1	1	2
2	2	1	37
3	3	2	3
4	3	2	33
5	4	3	4
6	3	3	5
7	4	5	6
8	3	5	7
9	5	7	8
10	3	7	31
11	5	8	9
12	6	8	20
13	6	8	24
14	3	9	10
15	3	9	18
16	4	10	11
17	3	10	12
18	4	12	13
19	3	12	14
20	1	14	15
21	3	14	16
22	7	15	35
23	4	16	17
24	3	16	18
25	4	18	19
26	8	20	21
27	8	20	22
28	8	20	23
29	6	24	25
30	8	24	29
31	8	24	30
32	8	25	26
33	8	25	27
34	8	25	28
35	4	31	32
36	3	31	33
37	4	33	34
38	9	35	36
39	10	35	72
40	1	37	38
41	3	38	39
42	3	38	70
43	4	39	40
44	3	39	41
45	4	41	42
46	3	41	43
47	5	43	44
48	3	43	68
49	5	44	45
50	6	44	57
51	6	44	61
52	3	45	46
53	3	45	55
54	4	46	47
55	3	46	48
56	4	48	49
57	3	48	50
58	11	50	51
59	3	50	53
60	12	51	52
61	4	53	54
62	3	53	55
63	4	55	56
64	8	57	58
65	8	57	59
66	8	57	60
67	6	61	62
68	8	61	66
69	8	61	67
70	8	62	63
71	8	62	64
72	8	62	65
73	4	68	69
74	3	68	70
75	4	70	71
76	9	72	73
77	13	72	74

Angles

1	6	22	20	23
2	3	46	48	49
3	3	38	39	40
4	4	43	44	45
5	1	7	31	33
6	6	58	57	60
7	4	44	57	58
8	4	24	25	28
9	1	14	16	18
10	1	73	72	74
11	3	9	18	19
12	3	11	10	12
13	1	12	14	16
14	1	3	5	7
15	4	8	20	22
16	1	10	9	18
17	3	7	31	32
18	1	44	45	46
19	1	8	7	31
20	6	63	62	64
21	3	9	10	11
22	5	15	35	36
23	4	9	8	24
24	1	46	45	55
25	4	9	8	20
26	1	9	10	12
27	2	50	51	52
28	4	20	8	24
29	3	38	70	71
30	1	8	9	10
31	3	42	41	43
32	6	64	62	65
33	1	1	2	3
34	4	62	61	66
35	1	43	68	70
36	3	4	3	5
37	1	45	46	48
38	4	61	62	65
39	4	8	24	25
40	1	37	38	39
41	1	37	38	70
42	6	21	20	22
43	3	45	46	47
44	6	59	57	60
45	3	2	3	4
46	4	62	61	67
47	4	45	44	57
48	3	39	41	42
49	4	8	20	23
50	3	69	68	70
51	1	38	70	68
52	3	54	53	55
53	1	51	50	53
54	1	46	48	50
55	4	8	24	30
56	1	39	41	43
57	4	44	57	59
58	4	25	24	30
59	1	5	7	8
60	4	7	8	20
61	6	26	25	27
62	3	40	39	41
63	1	41	43	68
64	1	44	43	68
65	1	3	2	33
66	3	45	55	56
67	3	14	16	17
68	4	44	57	60
69	4	7	8	9
70	3	13	12	14
71	6	63	62	65
72	1	12	14	15
73	4	43	44	61
74	1	35	72	73
75	6	21	20	23
76	4	45	44	61
77	6	27	25	28
78	2	14	15	35
79	3	50	53	54
80	4	43	44	57
81	4	44	61	67
82	1	8	9	18
83	4	44	61	66
84	1	2	33	31
85	3	32	31	33
86	3	49	48	50
87	1	48	50	53
88	4	44	61	62
89	6	26	25	28
90	1	50	53	55
91	3	31	33	34
92	3	6	5	7
93	4	7	8	24
94	1	39	38	70
95	2	2	1	37
96	1	36	35	72
97	3	10	12	13
98	1	9	18	16
99	6	66	61	67
100	2	1	37	38
101	1	5	7	31
102	1	48	50	51
103	4	8	24	29
104	4	25	24	29
105	3	16	18	19
106	4	61	62	63
107	1	15	35	72
108	3	68	70	71
109	4	24	25	27
110	4	57	44	61
111	1	44	45	55
112	3	2	33	34
113	3	17	16	18
114	3	43	68	69
115	3	47	46	48
116	1	41	43	44
117	1	1	2	33
118	6	29	24	30
119	3	3	5	6
120	1	38	39	41
121	4	8	20	21
122	1	10	12	14
123	3	53	55	56
124	1	35	72	74
125	1	15	14	16
126	4	61	62	64
127	1	45	55	53
128	6	58	57	59
129	4	24	25	26
130	1	2	3	5

Dihedrals

1	1	48	50	53	54
2	1	3	2	33	34
3	6	8	24	25	27
4	1	49	48	50	51
5	6	57	44	61	67
6	1	3	5	7	8
7	5	9	8	20	23
8	6	59	57	44	61
9	1	8	9	18	19
10	1	41	43	68	70
11	5	43	44	57	60
12	6	20	8	24	30
13	12	28	25	24	30
14	2	3	2	1	37
15	1	8	9	10	11
16	1	46	45	55	53
17	12	26	25	24	30
18	5	45	44	61	66
19	1	8	9	10	12
20	5	9	8	24	29
21	4	5	7	8	24
22	7	14	15	35	72
23	1	39	38	70	68
24	4	5	7	8	20
25	1	5	3	2	33
26	6	23	20	8	24
27	1	49	48	50	53
28	13	52	51	50	53
29	1	10	9	18	19
30	2	1	37	38	39
31	6	20	8	24	29
32	12	63	62	61	66
33	2	1	37	38	70
34	1	10	12	14	16
35	12	28	25	24	29
36	1	37	38	70	71
37	1	12	14	16	17
38	4	5	7	8	9
39	5	45	44	61	67
40	1	4	3	5	6
41	6	8	24	25	28
42	5	43	44	61	62
43	1	44	43	68	69
44	4	61	44	43	68
45	4	57	44	43	68
46	1	40	39	38	70
47	5	7	8	20	23
48	4	10	9	8	24
49	4	10	9	8	20
50	2	12	14	15	35
51	1	39	41	43	44
52	12	64	62	61	66
53	8	15	35	72	74
54	1	42	41	43	44
55	1	43	68	70	71
56	12	63	62	61	67
57	1	11	10	12	13
58	1	9	10	12	13
59	1	13	12	14	16
60	5	7	8	24	29
61	12	27	25	24	30
62	4	7	8	9	10
63	1	8	7	31	32
64	1	1	2	33	34
65	1	38	39	41	42
66	1	44	43	68	70
67	5	45	44	57	58
68	1	3	5	7	31
69	4	55	45	44	61
70	1	45	55	53	54
71	4	18	9	8	24
72	1	48	50	53	55
73	4	18	9	8	20
74	1	44	45	55	56
75	6	8	24	25	26
76	1	2	3	5	6
77	6	22	20	8	24
78	1	2	33	31	32
79	1	9	18	16	17
80	1	38	39	41	43
81	12	64	62	61	67
82	1	45	46	48	49
83	4	55	45	44	57
84	6	44	61	62	63
85	12	27	25	24	29
86	1	38	70	68	43
87	5	43	44	61	66
88	1	1	2	3	5
89	5	45	44	57	59
90	2	33	2	1	37
91	1	11	10	12	14
92	1	5	7	31	33
93	2	14	15	35	36
94	1	9	10	12	14
95	1	15	14	16	18
96	12	26	25	24	29
97	1	47	46	45	55
98	1	45	55	53	50
99	3	2	1	37	38
100	6	60	57	44	61
101	4	45	44	43	68
102	4	9	8	7	31
103	1	44	45	55	53
104	5	7	8	20	21
105	6	21	20	8	24
106	1	51	50	53	54
107	1	54	53	55	56
108	8	36	35	72	73
109	5	43	44	61	67
110	1	47	46	48	49
111	5	9	8	20	21
112	1	38	70	68	69
113	4	20	8	7	31
114	1	46	48	50	51
115	1	2	3	5	7
116	1	10	12	14	15
117	5	43	44	57	58
118	4	41	43	44	61
119	12	65	62	61	66
120	1	44	45	46	48
121	1	37	38	70	68
122	6	57	44	61	66
123	8	36	35	72	74
124	1	50	53	55	56
125	5	9	8	24	25
126	4	41	43	44	57
127	1	44	45	46	47
128	4	43	44	45	55
129	9	57	44	61	62
129	10	57	44	61	62
129	11	57	44	61	62
130	1	32	31	33	34
131	4	7	8	9	18
132	1	11	10	9	18
133	1	39	38	70	71
134	4	43	44	45	46
135	1	2	33	31	7
136	1	13	12	14	15
137	12	65	62	61	67
138	9	20	8	24	25
138	10	20	8	24	25
138	11	20	8	24	25
139	1	4	3	5	7
140	1	37	38	39	40
141	4	46	45	44	61
142	1	3	2	33	31
143	1	14	16	18	19
144	4	24	8	7	31
145	5	7	8	20	22
146	5	9	8	24	30
147	1	45	46	48	50
148	1	46	48	50	53
149	6	44	61	62	64
150	5	9	8	20	22
151	1	7	31	33	34
152	1	6	5	7	8
153	1	9	18	16	14
154	1	1	2	3	4
155	4	46	45	44	57
156	1	12	14	16	18
157	5	45	44	57	60
158	1	10	9	18	16
159	1	4	3	2	33
160	13	48	50	51	52
161	1	1	2	33	31
162	2	16	14	15	35
163	1	12	10	9	18
164	1	5	7	31	32
165	4	41	43	44	45
166	5	7	8	24	25
167	1	6	5	7	31
168	1	37	38	39	41
169	1	39	41	43	68
170	6	58	57	44	61
171	1	42	41	43	68
172	6	44	61	62	65
173	1	69	68	70	71
174	1	48	46	45	55
175	1	15	14	16	17
176	1	51	50	53	55
177	1	17	16	18	19
178	1	41	39	38	70
179	1	47	46	48	50
180	5	45	44	61	62
181	1	40	39	41	42
182	8	15	35	72	73
183	1	8	9	18	16
184	1	46	45	55	56
185	5	7	8	24	30
186	1	8	7	31	33
187	1	41	43	68	69
188	1	40	39	41	43
189	5	43	44	57	59

Impropers

2	1	3	2	4	5
18	1	5	7	3	6
21	1	45	46	55	44
23	1	53	54	55	50
25	1	39	40	41	38
29	1	55	56	45	53
30	1	68	69	70	43
38	1	55	53	56	45
39	1	43	41	44	68
40	1	41	39	42	43
46	1	9	10	18	8
47	1	46	45	47	48
52	1	33	34	2	31
59	2	35	72	15	36
68	1	16	17	18	14
69	1	3	4	5	2
72	1	14	15	16	12
73	1	12	13	14	10
75	1	3	5	2	4
83	1	48	49	50	46
88	1	5	3	6	7
92	1	18	19	9	16
93	1	41	43	39	42
98	1	53	50	54	55
108	1	38	70	37	39
115	1	10	9	11	12
123	1	45	44	46	55
128	1	31	32	33	7
141	1	39	41	38	40
147	1	14	16	12	15
154	1	2	33	1	3
159	1	9	18	8	10
160	1	46	47	48	45
164	1	9	8	10	18
174	1	43	44	68	41
179	1	45	55	44	46
181	1	33	2	31	34
183	1	12	14	10	13
191	1	70	38	68	71
195	1	72	74	35	73
197	1	10	12	9	11
202	1	50	48	51	53
204	2	35	15	36	72
207	1	31	7	32	33
211	1	14	12	15	16
219	1	10	11	12	9
222	1	68	43	69	70
226	1	7	8	31	5
229	1	39	38	40	41
233	1	33	31	34	2
239	1	18	16	19	9
241	1	5	6	7	3
243	1	7	31	5	8
249	1	31	33	7	32
252	1	70	71	38	68
259	1	43	68	41	44
262	1	50	53	48	51
263	2	35	36	72	15
271	1	7	5	8	31
273	1	2	1	3	33
274	1	50	51	53	48
281	1	46	48	45	47
285	1	48	46	49	50
288	1	38	37	39	70
290	1	70	68	71	38
294	1	68	70	43	69
295	1	12	10	13	14
297	1	72	73	74	35
300	1	53	55	50	54
304	1	16	18	14	17
306	1	48	50	46	49
312	1	41	42	43	39
315	1	2	3	33	1
329	1	55	45	53	56
331	1	72	35	73	74
341	1	38	39	70	37
343	1	16	14	17	18
344	1	18	9	16	19
