Title

75 atoms
74 bonds
137 angles
233 dihedrals
12 impropers

8 atom types
11 bond types
5 angle types
27 dihedral types
2 improper types
-10.85499954 89.14500046 xlo xhi
-1.827999949 98.17200005 ylo yhi
-3.845000029 96.15499997 zlo zhi
0.0 0.0 0.0 xy xz yz

Masses

1	15.99943
2	12.01078
3	1.007947
4	1.007947
5	12.01078
6	15.99943
7	15.99943
8	1.007947


Pair Coeffs

1	0.16846514	3.0251065
2	0.10884061	3.3795318
3	0.016409246	2.5832257
4	0.015779483	2.6445434
5	0.086879315	3.4806469
6	0.2102061	3.0398122
7	0.20947353	2.99716
8	1.2326e-05	0.53453923

Bond Coeffs

1 harmonic	366.7408841747	1.425895053732
2 harmonic	300.03137914615	1.451203938761
3 harmonic	264.62148576755	1.52190126495
4 harmonic	370.04670688625	1.093899492634
5 harmonic	301.15400723785	1.345741232799
6 harmonic	582.698766451	1.225198386222
7 harmonic	329.44145381095	1.523435958334
8 harmonic	279.1350963404	1.454628925034
9 harmonic	329.96998057905	1.427343958716
10 harmonic	543.5267831885	0.9716763312559
11 harmonic	385.7604595587	1.369745182308


Angle Coeffs

1 harmonic	53.20531626545	116.5475862634
2 harmonic	65.09061609600001	110.3538806181
3 harmonic	201.41175231035	127.4691416191
4 harmonic	57.8982893754	126.8062420451
5 harmonic	48.776492647595	115.6030999533


Dihedral Coeffs

1 fourier 1	0.1155372516788	3	0
2 fourier 1	0.1115525666802	3	0
3 fourier 1	0.3432490222662	1	0
4 fourier 1	0.0473758381877	3	0
5 fourier 1	0.457973137376	1	0
6 fourier 1	0.09223874044423	3	0
7 fourier 1	0.3159935921949	2	180
8 fourier 1	0.3247796806857	1	180
9 fourier 1	0.1040663847541	3	0
10 fourier 1	0.1918272375143	3	0
11 fourier 1	0.9202179876409	1	180
12 fourier 1	1.163809172478	2	180
13 fourier 1	0.1679186987369	1	180
14 fourier 1	2.779853741805	2	180
15 fourier 1	0.02664938770063	3	0
16 fourier 1	0.1911926717192	3	0
17 fourier 1	-0.3703352413219	2	0
18 fourier 1	0.4541676554336	1	0
19 fourier 1	0.1489710476446	2	0
20 fourier 1	0.02960027280666	3	180
21 fourier 1	0.9974165607242	2	180
22 fourier 1	0.3445382149273	3	0
23 fourier 1	0.1364556373303	1	0
24 fourier 1	0.3026390167484	3	0
25 fourier 1	2.687457892086	2	180
26 fourier 1	2.772607909663	2	180
27 fourier 1	0.09692684957115	1	0


Improper Coeffs

1 3.5	-1	2
2 0.3666666666666667	-1	2


Atoms

1	1	1	-0.17854001	-3.6329999	0.37200001	0.51899999
2	1	2	0.033280998	-2.4920001	0.52999997	-0.27900001
3	1	2	-0.14809	-1.2589999	-0.016000001	0.44600001
4	1	2	-0.14005101	0.0080000004	0.178	-0.396
5	1	2	-0.14185999	1.2410001	-0.37	0.33199999
6	1	2	0.13516	2.5079999	-0.178	-0.50599998
7	1	1	-0.494515	3.6170001	-0.713	0.163
8	1	3	0.079149999	2.671	0.903	-0.72000003
9	1	3	0.079149999	2.395	-0.70700002	-1.476
10	1	4	0.086097002	1.363	0.15700001	1.303
11	1	4	0.086097002	1.102	-1.455	0.53500003
12	1	4	0.083894998	-0.111	-0.352	-1.367
13	1	4	0.083894998	0.153	1.262	-0.59899998
14	1	4	0.087116003	-1.406	-1.099	0.65100002
15	1	4	0.087116003	-1.145	0.51499999	1.4170001
16	1	3	0.078768	-2.6289999	0.011	-1.255
17	1	3	0.078768	-2.3529999	1.613	-0.48300001
18	1	5	0.76172203	3.869	-0.035	0.91000003
19	1	6	-0.55483299	3.3540001	1.071	0.91500002
20	1	2	-0.208616	4.8270001	-0.44	1.993
21	1	2	-0.115977	6.2080002	0.211	1.824
22	1	2	-0.130817	6.2090001	1.702	2.1930001
23	1	2	-0.097687997	7.6259999	2.2839999	2.1240001
24	1	2	-0.257673	7.6269999	3.773	2.484
25	1	5	0.51703101	9.0089998	4.3460002	2.3929999
26	1	6	-0.68707001	9.8859997	3.9719999	3.155
27	1	4	0.113648	6.9640002	4.3260002	1.783
28	1	4	0.113648	7.2420001	3.9170001	3.517
29	1	4	0.076943003	8.2840004	1.733	2.8310001
30	1	4	0.076943003	8.0270004	2.155	1.094
31	1	4	0.074132003	5.8109999	1.8279999	3.224
32	1	4	0.074132003	5.5560002	2.2609999	1.49
33	1	4	0.085735999	6.5599999	0.078000002	0.77700001
34	1	4	0.085735999	6.921	-0.322	2.4890001
35	1	4	0.116901	4.3979998	-0.199	2.9890001
36	1	4	0.116901	4.9549999	-1.543	1.944
37	1	1	-0.17854001	-3.8870001	-0.58700001	0.46399999
38	1	2	0.033280998	-4.5960002	-0.745	-0.73400003
39	1	2	-0.14803401	-6.0190001	-0.199	-0.58399999
40	1	2	-0.134554	-6.8239999	-0.39300001	-1.874
41	1	2	-0.17001	-8.2480001	0.155	-1.722
42	1	2	0.086474001	-9.0539999	-0.037	-3.0079999
43	1	7	-0.684614	-10.341	0.498	-2.858
44	1	8	0.37799901	-10.855	-0.149	-2.3069999
45	1	3	0.069101997	-9.1140003	-1.118	-3.27
46	1	3	0.069101997	-8.5500002	0.49200001	-3.845
47	1	4	0.089469001	-8.7609997	-0.37200001	-0.88800001
48	1	4	0.089469001	-8.2049999	1.24	-1.479
49	1	4	0.084072001	-6.3130002	0.13699999	-2.7090001
50	1	4	0.084072001	-6.8720002	-1.477	-2.1199999
51	1	4	0.087116003	-5.9689999	0.884	-0.33700001
52	1	4	0.087116003	-6.5240002	-0.73000002	0.25299999
53	1	3	0.078768	-4.0669999	-0.226	-1.567
54	1	3	0.078768	-4.638	-1.8279999	-0.977
55	1	5	0.51703101	9.2320004	5.1110001	1.655
56	1	6	-0.68707001	9.177	6.2849998	1.98
57	1	2	-0.257673	9.6090002	4.7410002	0.249
58	1	2	-0.097687997	9.585	3.223	0.017999999
59	1	2	-0.130817	8.1549997	2.6619999	-0.0049999999
60	1	2	-0.11346	8.1630001	1.15	-0.27399999
61	1	2	-0.218713	6.7519999	0.54699999	-0.23999999
62	1	5	0.82386303	5.9190001	1.016	-1.393
63	1	6	-0.55628699	6.0739999	0.50400001	-2.5339999
64	1	7	-0.665438	4.9970002	2.0420001	-1.21
65	1	8	0.39418799	4.4359999	2.3800001	-1.983
66	1	4	0.117925	6.25	0.80599999	0.71700001
67	1	4	0.117925	6.8330002	-0.56099999	-0.285
68	1	4	0.085735999	8.6350002	0.94199997	-1.2589999
69	1	4	0.085735999	8.7729998	0.648	0.50800002
70	1	4	0.074132003	7.6599998	2.8570001	0.97100002
71	1	4	0.074132003	7.5770001	3.178	-0.80199999
72	1	4	0.076943003	10.069	3.013	-0.96100003
73	1	4	0.076943003	10.183	2.714	0.80599999
74	1	4	0.113648	10.636	5.1149998	0.052999999
75	1	4	0.113648	8.9209995	5.243	-0.465

Bonds

1	1	1	2
2	2	1	37
3	3	2	3
4	4	2	16
5	4	2	17
6	3	3	4
7	4	3	14
8	4	3	15
9	3	4	5
10	4	4	12
11	4	4	13
12	3	5	6
13	4	5	10
14	4	5	11
15	1	6	7
16	4	6	8
17	4	6	9
18	5	7	18
19	6	18	19
20	7	18	20
21	3	20	21
22	4	20	35
23	4	20	36
24	3	21	22
25	4	21	33
26	4	21	34
27	3	22	23
28	4	22	31
29	4	22	32
30	3	23	24
31	4	23	29
32	4	23	30
33	7	24	25
34	4	24	27
35	4	24	28
36	6	25	26
37	8	25	55
38	1	37	38
39	3	38	39
40	4	38	53
41	4	38	54
42	3	39	40
43	4	39	51
44	4	39	52
45	3	40	41
46	4	40	49
47	4	40	50
48	3	41	42
49	4	41	47
50	4	41	48
51	9	42	43
52	4	42	45
53	4	42	46
54	10	43	44
55	6	55	56
56	7	55	57
57	3	57	58
58	4	57	74
59	4	57	75
60	3	58	59
61	4	58	72
62	4	58	73
63	3	59	60
64	4	59	70
65	4	59	71
66	3	60	61
67	4	60	68
68	4	60	69
69	7	61	62
70	4	61	66
71	4	61	67
72	6	62	63
73	11	62	64
74	10	64	65

Angles

1	1	59	60	69
2	1	20	21	34
3	4	25	55	57
4	1	7	6	8
5	1	21	22	32
6	5	29	23	30
7	1	5	6	9
8	1	57	58	72
9	1	58	59	71
10	5	35	20	36
11	5	66	61	67
12	1	62	61	66
13	1	18	20	21
14	1	37	38	54
15	1	39	38	54
16	1	23	24	25
17	5	47	41	48
18	1	7	6	9
19	5	16	2	17
20	5	12	4	13
21	2	6	7	18
22	1	58	59	60
23	4	61	62	63
24	1	37	38	39
25	5	53	38	54
26	1	62	61	67
27	1	58	57	74
28	1	22	21	33
29	1	21	20	36
30	4	61	62	64
31	1	22	23	29
32	5	45	42	46
33	1	6	5	10
34	1	59	58	72
35	5	31	22	32
36	1	42	41	47
37	1	3	2	17
38	1	60	59	71
39	1	39	40	41
40	4	24	25	26
41	5	49	40	50
42	1	40	41	42
43	1	41	42	45
44	1	22	23	30
45	1	2	3	14
46	1	18	20	35
47	1	43	42	45
48	1	42	41	48
49	1	41	40	49
50	1	38	39	51
51	4	56	55	57
52	1	57	58	73
53	1	57	58	59
54	2	42	43	44
55	5	8	6	9
56	1	4	5	10
57	1	41	42	46
58	1	2	3	15
59	1	43	42	46
60	3	63	62	64
61	4	26	25	55
62	1	39	40	49
63	1	24	23	29
64	1	38	39	52
65	1	58	59	70
66	1	23	22	31
67	3	7	18	19
68	1	58	57	75
69	1	55	57	58
70	1	5	6	7
71	1	23	24	27
72	4	24	25	55
73	1	6	5	11
74	5	72	58	73
75	1	22	21	34
76	1	1	2	3
77	1	39	40	50
78	1	59	60	68
79	1	20	21	33
80	1	4	3	14
81	4	19	18	20
82	4	25	55	56
83	1	40	39	51
84	1	41	42	43
85	1	60	61	62
86	1	59	58	73
87	2	62	64	65
88	5	14	3	15
89	5	51	39	52
90	5	10	5	11
91	1	40	41	47
92	5	33	21	34
93	1	23	24	28
94	1	38	39	40
95	1	3	4	12
96	1	5	4	12
97	2	1	37	38
98	1	4	3	15
99	1	37	38	53
100	1	40	39	52
101	1	39	38	53
102	1	18	20	36
103	1	55	57	74
104	1	4	5	11
105	1	41	40	50
106	1	2	3	4
107	1	61	60	68
108	1	21	22	23
109	1	40	41	48
110	1	1	2	16
111	5	27	24	28
112	1	3	4	13
113	1	60	59	70
114	1	25	24	27
115	1	5	4	13
116	1	59	60	61
117	5	68	60	69
118	2	2	1	37
119	1	60	61	66
120	5	74	57	75
121	1	55	57	75
122	1	24	23	30
123	1	61	60	69
124	1	21	20	35
125	1	4	5	6
126	5	70	59	71
127	1	1	2	17
128	1	20	21	22
129	4	7	18	20
130	1	23	22	32
131	1	3	4	5
132	1	25	24	28
133	1	21	22	31
134	1	3	2	16
135	1	5	6	8
136	1	60	61	67
137	1	22	23	24

Dihedrals

1	16	50	40	39	51
2	18	63	62	61	67
2	19	63	62	61	67
2	20	63	62	61	67
3	9	57	58	59	71
4	9	22	23	24	27
5	16	45	42	41	47
6	9	21	22	23	29
7	4	3	2	1	37
8	9	20	21	22	32
9	2	43	42	41	47
9	3	43	42	41	47
10	16	70	59	58	72
11	22	41	42	43	44
11	23	41	42	43	44
12	9	5	4	3	15
13	16	34	21	20	36
14	9	40	39	38	53
15	15	7	18	20	36
16	2	1	2	3	15
16	3	1	2	3	15
17	16	8	6	5	10
18	16	12	4	3	15
19	15	25	55	57	75
20	16	51	39	38	54
21	16	50	40	39	52
22	2	7	6	5	10
22	3	7	6	5	10
23	16	46	42	41	47
24	9	58	59	60	68
25	9	22	23	24	28
26	4	1	37	38	39
27	15	60	61	62	64
28	1	25	24	23	29
29	16	71	59	58	72
30	9	42	41	40	49
31	9	59	60	61	67
32	16	70	59	58	73
33	25	61	62	64	65
34	18	26	25	24	28
34	19	26	25	24	28
34	20	26	25	24	28
35	9	40	39	38	54
36	16	15	3	2	16
37	9	59	58	57	74
38	9	39	40	41	47
39	16	67	61	60	68
40	16	28	24	23	30
41	9	40	41	42	45
42	9	58	59	60	69
43	1	25	24	23	30
44	9	2	3	4	12
45	16	14	3	2	16
46	9	38	39	40	49
47	15	64	62	61	67
48	16	33	21	20	36
49	1	18	20	21	33
50	16	15	3	2	17
51	4	9	6	7	18
52	16	68	60	59	70
53	18	19	18	20	35
53	19	19	18	20	35
53	20	19	18	20	35
54	2	37	38	39	51
54	3	37	38	39	51
55	9	39	40	41	48
56	1	37	38	39	40
57	16	48	41	40	49
58	1	4	5	6	7
59	9	61	60	59	70
60	16	52	39	38	53
61	6	58	59	60	61
61	7	58	59	60	61
61	8	58	59	60	61
62	16	13	4	3	15
63	14	6	7	18	20
64	1	55	57	58	73
65	9	2	3	4	13
66	1	1	2	3	4
67	16	14	3	2	17
68	1	55	57	58	59
69	18	56	55	57	74
69	19	56	55	57	74
69	20	56	55	57	74
70	16	73	58	57	74
71	6	38	39	40	41
71	7	38	39	40	41
71	8	38	39	40	41
72	21	24	25	55	56
73	1	18	20	21	34
74	16	8	6	5	11
75	16	45	42	41	48
76	9	21	22	23	30
77	18	19	18	20	36
77	19	19	18	20	36
77	20	19	18	20	36
78	24	44	43	42	45
79	2	37	38	39	52
79	3	37	38	39	52
80	16	9	6	5	10
81	2	7	6	5	11
81	3	7	6	5	11
82	15	7	18	20	21
83	2	43	42	41	48
83	3	43	42	41	48
84	16	69	60	59	70
85	16	52	39	38	54
86	9	6	5	4	12
87	18	56	55	57	75
87	19	56	55	57	75
87	20	56	55	57	75
88	9	57	58	59	70
89	6	2	3	4	5
89	7	2	3	4	5
89	8	2	3	4	5
90	16	46	42	41	48
91	21	24	25	55	57
92	15	28	24	25	55
93	16	30	23	22	31
94	16	66	61	60	68
95	5	2	1	37	38
96	15	25	55	57	58
97	16	71	59	58	73
98	9	42	41	40	50
99	1	22	23	24	25
100	1	18	20	21	22
101	9	59	58	57	75
102	21	26	25	55	56
103	16	27	24	23	29
104	9	24	23	22	31
105	16	67	61	60	69
106	9	40	41	42	46
107	9	60	59	58	72
108	16	66	61	60	69
109	9	22	21	20	35
110	10	5	6	7	18
110	11	5	6	7	18
111	9	3	4	5	10
112	9	38	39	40	50
113	15	27	24	25	55
114	16	11	5	4	12
115	16	10	5	4	12
116	16	72	58	57	74
117	21	26	25	55	57
118	9	23	22	21	33
119	1	62	61	60	68
120	4	1	37	38	53
121	17	23	24	25	26
122	16	48	41	40	50
123	9	4	5	6	8
124	9	5	4	3	14
125	16	12	4	3	14
126	2	1	2	3	14
126	3	1	2	3	14
127	15	25	55	57	74
128	16	9	6	5	11
129	9	41	40	39	51
130	17	19	18	20	21
131	16	51	39	38	53
132	16	73	58	57	75
133	16	49	40	39	51
134	16	47	41	40	49
135	16	11	5	4	13
136	16	10	5	4	13
137	16	32	22	21	33
138	1	40	41	42	43
139	17	60	61	62	63
140	26	63	62	64	65
140	27	63	62	64	65
141	16	72	58	57	75
142	24	44	43	42	46
143	16	31	22	21	33
144	9	23	22	21	34
145	16	29	23	22	31
146	1	62	61	60	69
147	4	1	37	38	54
148	6	3	4	5	6
148	7	3	4	5	6
148	8	3	4	5	6
149	6	20	21	22	23
149	7	20	21	22	23
149	8	20	21	22	23
150	9	59	60	61	66
151	9	4	5	6	9
152	9	4	3	2	16
153	9	6	5	4	13
154	4	17	2	1	37
155	18	26	25	24	27
155	19	26	25	24	27
155	20	26	25	24	27
156	16	68	60	59	71
157	9	41	40	39	52
158	4	16	2	1	37
159	16	49	40	39	52
160	16	47	41	40	50
161	16	30	23	22	32
162	16	32	22	21	34
163	16	28	24	23	29
164	6	57	58	59	60
164	7	57	58	59	60
164	8	57	58	59	60
165	1	59	60	61	62
166	9	61	60	59	71
167	16	31	22	21	34
168	16	29	23	22	32
169	6	39	40	41	42
169	7	39	40	41	42
169	8	39	40	41	42
170	15	64	62	61	66
171	16	33	21	20	35
172	18	63	62	61	66
172	19	63	62	61	66
172	20	63	62	61	66
173	17	56	55	57	58
174	9	4	3	2	17
175	15	23	24	25	55
176	9	3	4	5	11
177	16	27	24	23	30
178	9	20	21	22	31
179	9	24	23	22	32
180	16	69	60	59	71
181	4	8	6	7	18
182	16	34	21	20	35
183	9	60	59	58	73
184	9	22	21	20	36
185	15	7	18	20	35
186	16	13	4	3	14
187	6	21	22	23	24
187	7	21	22	23	24
187	8	21	22	23	24
188	12	6	7	18	19
188	13	6	7	18	19
189	1	55	57	58	72

Impropers

51	2	25	24	26	55
106	1	62	61	63	64
188	2	25	26	55	24
201	1	18	7	19	20
288	1	62	64	61	63
292	1	18	19	20	7
353	2	55	56	57	25
415	1	18	20	7	19
439	2	25	55	24	26
452	2	55	57	25	56
483	1	62	63	64	61
500	2	55	25	56	57
