Title

123 atoms
132 bonds
229 angles
373 dihedrals
156 impropers

9 atom types
13 bond types
9 angle types
19 dihedral types
3 improper types
-10.4630003 89.5369997 xlo xhi
-4.416999817 95.58300018 ylo yhi
-20.29899979 79.70100021 zlo zhi
0.0 0.0 0.0 xy xz yz

Masses

1	14.00672
2	12.01078
3	1.007947
4	1.007947
5	15.99943
6	12.01078
7	1.007947
8	15.99943
9	1.007947


Pair Coeffs

1	0.16769152	3.206876
2	0.086879315	3.4806469
3	0.015611343	2.5725815
4	0.014090815	1.1034277
5	0.2102061	3.0398122
6	0.10884061	3.3795318
7	0.015779483	2.6445434
8	0.20947353	2.99716
9	1.2326e-05	0.53453923

Bond Coeffs

1 harmonic	390.03554688505	1.390160554689
2 harmonic	505.144496193	1.019481865027
3 harmonic	422.7150220147	1.421786517481
4 harmonic	360.7852444772	1.387193227181
5 harmonic	397.2545789619	1.085358495916
6 harmonic	492.76746816345	1.381897776683
7 harmonic	582.698766451	1.225198386222
8 harmonic	279.1350963404	1.454628925034
9 harmonic	289.73813263395	1.498646816465
10 harmonic	264.62148576755	1.52190126495
11 harmonic	370.04670688625	1.093899492634
12 harmonic	385.7604595587	1.369745182308
13 harmonic	543.5267831885	0.9716763312559


Angle Coeffs

1 harmonic	57.8982893754	126.8062420451
2 harmonic	55.42182150775	117.3465570514
3 harmonic	63.44422595415	115.5071327674
4 harmonic	34.066775159195	129.1835929926
5 harmonic	53.20531626545	116.5475862634
6 harmonic	14.32262199324	138.3184368373
7 harmonic	48.776492647595	115.6030999533
8 harmonic	65.09061609600001	110.3538806181
9 harmonic	201.41175231035	127.4691416191


Dihedral Coeffs

1 fourier 1	3.661930099076	2	180
2 fourier 1	1.193093382682	2	180
3 fourier 1	0.02021088501612	1	0
4 fourier 1	3.101948770557	2	180
5 fourier 1	-0.4252153282372	1	0
6 fourier 1	1.809047390003	2	180
7 fourier 1	-0.04816277792592	1	0
8 fourier 1	0.9974165607242	2	180
9 fourier 1	2.348375642009	2	180
10 fourier 1	1.256156174911	1	0
11 fourier 1	0.02664938770063	3	0
12 fourier 1	0.1155372516788	3	0
13 fourier 1	0.09223874044423	3	0
14 fourier 1	0.3159935921949	2	180
15 fourier 1	0.3247796806857	1	180
16 fourier 1	0.1040663847541	3	0
17 fourier 1	2.687457892086	2	180
18 fourier 1	2.772607909663	2	180
19 fourier 1	0.09692684957115	1	0


Improper Coeffs

1 0.3666666666666667	-1	2
2 0.3333333333333333	-1	2
3 3.5	-1	2


Atoms

1	1	1	-0.39358401	-2.5339999	-0.96200001	1.688
2	1	2	0.074134	-1.733	-0.115	0.84799999
3	1	2	-0.42633101	-2.286	1.001	0.34799999
4	1	3	0.225337	-3.3080001	1.258	0.59799999
5	1	2	-0.127294	-1.554	1.9	-0.56199998
6	1	3	0.22693101	-2.0469999	2.7969999	-0.91600001
7	1	2	-0.241901	-0.308	1.636	-0.96100003
8	1	3	0.213778	0.168	2.355	-1.61
9	1	2	-0.18087199	0.40099999	0.42300001	-0.48300001
10	1	2	0.173923	1.669	0.113	-0.86000001
11	1	1	-0.50302202	2.395	0.87400001	-1.836
12	1	4	0.31878299	3.4070001	0.67299998	-2.0020001
13	1	2	-0.42066899	2.3429999	-1.0549999	-0.25
14	1	3	0.22178601	3.359	-1.301	-0.53299999
15	1	2	-0.13608401	1.715	-1.809	0.653
16	1	3	0.22693101	2.221	-2.6570001	1.097
17	1	2	-0.225458	0.33000001	-1.5	1.045
18	1	3	0.213778	-0.125	-2.1359999	1.7869999
19	1	2	-0.194383	-0.31900001	-0.454	0.49599999
20	1	4	0.377087	-2.2490001	-1.929	1.948
21	1	2	0.77014899	1.932	1.561	-2.5009999
22	1	5	-0.64979601	1.609	2.7	-2.072
23	1	2	-0.36855501	1.676	1.1799999	-3.901
24	1	2	-0.074956	2.0239999	-0.037999999	-4.3429999
25	1	3	0.22768401	2.494	-0.75400001	-3.678
26	1	2	-0.24555001	1.771	-0.43099999	-5.744
27	1	3	0.218284	2.0539999	-1.432	-6.033
28	1	2	-0.205807	1.211	0.435	-6.6170001
29	1	6	0.026323	0.89200002	0.061000001	-8.0749998
30	1	6	-0.130602	1.649	-1.189	-8.585
31	1	7	0.090108	1.298	-2.1059999	-8.066
32	1	7	0.090108	1.472	-1.3380001	-9.6719999
33	1	7	0.090108	2.743	-1.0779999	-8.4250002
34	1	2	-0.120792	1.215	1.202	-8.9890003
35	1	2	-0.147588	2.402	1.808	-9.1379995
36	1	3	0.217842	3.26	1.501	-8.5550003
37	1	2	0.0042570001	2.5220001	2.914	-10.118
38	1	3	0.218052	3.48	3.4070001	-10.232
39	1	2	-0.34323099	1.457	3.293	-10.855
40	1	2	0.587834	1.5880001	4.3899999	-11.829
41	1	5	-0.50302398	0.60299999	4.757	-12.524
42	1	2	0.075795002	0.155	2.5910001	-10.674
43	1	3	0.212093	-0.708	2.8710001	-11.264
44	1	2	-0.17784999	0.067000002	1.603	-9.7700005
45	1	6	-0.026053	-1.1289999	0.76499999	-9.4499998
46	1	6	-0.130173	-1.511	-0.097999997	-10.667
47	1	7	0.094288997	-1.812	0.542	-11.524
48	1	7	0.094288997	-0.65399998	-0.72899997	-10.984
49	1	7	0.094288997	-2.3640001	-0.764	-10.414
50	1	6	-0.130173	-2.319	1.649	-9.0279999
51	1	7	0.094288997	-2.6630001	2.2820001	-9.8739996
52	1	7	0.094288997	-2.0309999	2.316	-8.1859999
53	1	7	0.094288997	-3.1700001	1.015	-8.6999998
54	1	6	-0.17999899	-0.64899999	-0.131	-8.2620001
55	1	7	0.132726	-0.91000003	-1.2	-8.4309998
56	1	7	0.132726	-1.189	0.148	-7.329
57	1	2	-0.24555001	0.80299997	1.777	-6.1079998
58	1	3	0.218284	0.31200001	2.4820001	-6.7659998
59	1	2	-0.074956	1.026	2.1270001	-4.836
60	1	3	0.22768401	0.72000003	3.109	-4.4959998
61	1	1	-0.39358401	-3.4860001	-0.65799999	1.995
62	1	2	0.074134	-4.6259999	-1.505	1.7819999
63	1	2	-0.42633101	-4.4699998	-2.6210001	1.053
64	1	3	0.225337	-3.4949999	-2.878	0.65799999
65	1	2	-0.127294	-5.5960002	-3.5209999	0.74299997
66	1	3	0.22693101	-5.4039998	-4.4169998	0.167
67	1	2	-0.194326	-6.8400002	-3.257	1.148
68	1	3	0.213778	-7.6059999	-3.9749999	0.89899999
69	1	2	-0.220147	-7.1360002	-2.043	1.95
70	1	2	0.216406	-8.3850002	-1.733	2.385
71	1	1	-0.81321597	-9.5450001	-2.494	2.0179999
72	1	4	0.37190199	-9.5579996	-3.168	1.224
73	1	4	0.37190199	-10.463	-2.2939999	2.4749999
74	1	2	-0.45179	-8.5749998	-0.565	3.2750001
75	1	3	0.23219401	-9.5649996	-0.31900001	3.6389999
76	1	2	-0.085768998	-7.5380001	0.189	3.6400001
77	1	3	0.22693101	-7.6890001	1.0369999	4.296
78	1	2	-0.225458	-6.1849999	-0.12	3.148
79	1	3	0.213778	-5.382	0.51599997	3.484
80	1	2	-0.160368	-5.9790001	-1.166	2.323
81	1	4	0.377087	-3.5650001	0.30899999	2.372
82	1	2	0.59333301	2.536	4.8959999	-11.957
83	1	5	-0.51363403	3.253	5.1139998	-10.943
84	1	2	-0.33179101	2.9660001	5.3150001	-13.304
85	1	2	0.0095530003	4.1360002	5.9419999	-13.506
86	1	3	0.225679	4.8039999	6.158	-12.681
87	1	2	-0.23876099	4.54	6.349	-14.867
88	1	3	0.218284	5.4990001	6.835	-14.989
89	1	2	-0.205807	3.74	6.119	-15.932
90	1	6	0.026323	4.2010002	6.5310001	-17.341
91	1	6	-0.130602	3.0840001	6.4349999	-18.405001
92	1	7	0.090108	2.1949999	7.026	-18.096001
93	1	7	0.090108	2.78	5.3790002	-18.565001
94	1	7	0.090108	3.438	6.8309999	-19.382
95	1	2	-0.120792	4.723	7.9349999	-17.34
96	1	2	-0.167007	4.0710001	9.0410004	-16.952
97	1	3	0.217842	3.0580001	8.9849997	-16.575001
98	1	2	-0.057064999	4.7600002	10.349	-17.046
99	1	3	0.234378	4.2290001	11.236	-16.725
100	1	2	-0.22510301	6.0229998	10.426	-17.525999
101	1	2	0.83713901	6.723	11.725	-17.629
102	1	5	-0.471228	6.1550002	12.792	-17.27
103	1	8	-0.66250002	8.0229998	11.778	-18.125999
104	1	9	0.42080599	8.5150003	12.66	-18.202
105	1	2	0.0098449998	6.7140002	9.1780005	-17.958
106	1	3	0.227274	7.7189999	9.2150002	-18.357
107	1	2	-0.17212801	6.073	8.0039997	-17.85
108	1	6	-0.026053	6.579	6.652	-18.24
109	1	6	-0.130173	7.8959999	6.3280001	-17.509001
110	1	7	0.094288997	8.7080002	7.0139999	-17.832001
111	1	7	0.094288997	7.7670002	6.4299998	-16.409
112	1	7	0.094288997	8.2119999	5.2859998	-17.731001
113	1	6	-0.130173	6.7849998	6.585	-19.764999
114	1	7	0.094288997	5.842	6.8309999	-20.299
115	1	7	0.094288997	7.5679998	7.3039999	-20.087999
116	1	7	0.094288997	7.105	5.5640001	-20.066999
117	1	6	-0.17999899	5.4369998	5.6820002	-17.792
118	1	7	0.132726	5.1690001	4.9710002	-18.605
119	1	7	0.132726	5.7870002	5.0339999	-16.957001
120	1	2	-0.23876099	2.45	5.4050002	-15.696
121	1	3	0.218284	1.779	5.1729999	-16.51
122	1	2	0.0095530003	2.089	5.0339999	-14.461
123	1	3	0.225679	1.147	4.52	-14.314

Bonds

1	1	1	2
2	2	1	20
3	3	1	61
4	4	2	3
5	4	2	19
6	5	3	4
7	4	3	5
8	5	5	6
9	4	5	7
10	5	7	8
11	4	7	9
12	4	9	10
13	4	9	19
14	1	10	11
15	4	10	13
16	2	11	12
17	6	11	21
18	5	13	14
19	4	13	15
20	5	15	16
21	4	15	17
22	5	17	18
23	4	17	19
24	7	21	22
25	8	21	23
26	4	23	24
27	4	23	59
28	5	24	25
29	4	24	26
30	5	26	27
31	4	26	28
32	9	28	29
33	4	28	57
34	10	29	30
35	9	29	34
36	10	29	54
37	11	30	31
38	11	30	32
39	11	30	33
40	4	34	35
41	4	34	44
42	5	35	36
43	4	35	37
44	5	37	38
45	4	37	39
46	8	39	40
47	4	39	42
48	7	40	41
49	8	40	82
50	5	42	43
51	4	42	44
52	9	44	45
53	10	45	46
54	10	45	50
55	10	45	54
56	11	46	47
57	11	46	48
58	11	46	49
59	11	50	51
60	11	50	52
61	11	50	53
62	11	54	55
63	11	54	56
64	5	57	58
65	4	57	59
66	5	59	60
67	1	61	62
68	2	61	81
69	4	62	63
70	4	62	80
71	5	63	64
72	4	63	65
73	5	65	66
74	4	65	67
75	5	67	68
76	4	67	69
77	4	69	70
78	4	69	80
79	1	70	71
80	4	70	74
81	2	71	72
82	2	71	73
83	5	74	75
84	4	74	76
85	5	76	77
86	4	76	78
87	5	78	79
88	4	78	80
89	7	82	83
90	8	82	84
91	4	84	85
92	4	84	122
93	5	85	86
94	4	85	87
95	5	87	88
96	4	87	89
97	9	89	90
98	4	89	120
99	10	90	91
100	9	90	95
101	10	90	117
102	11	91	92
103	11	91	93
104	11	91	94
105	4	95	96
106	4	95	107
107	5	96	97
108	4	96	98
109	5	98	99
110	4	98	100
111	8	100	101
112	4	100	105
113	7	101	102
114	12	101	103
115	13	103	104
116	5	105	106
117	4	105	107
118	9	107	108
119	10	108	109
120	10	108	113
121	10	108	117
122	11	109	110
123	11	109	111
124	11	109	112
125	11	113	114
126	11	113	115
127	11	113	116
128	11	117	118
129	11	117	119
130	5	120	121
131	4	120	122
132	5	122	123

Angles

1	1	100	101	103
2	1	71	70	74
3	4	97	96	98
4	1	10	9	19
5	1	40	82	83
6	4	28	57	58
7	1	29	28	57
8	4	39	42	43
9	5	90	117	108
10	7	114	113	116
11	5	50	45	54
12	1	34	35	37
13	5	108	109	112
14	1	9	10	13
15	4	89	120	121
16	1	95	107	105
17	1	70	69	80
18	5	34	29	54
19	1	95	107	108
20	1	100	105	107
21	4	16	15	17
22	1	11	10	13
23	5	45	50	53
24	1	26	28	57
25	5	45	46	48
26	1	96	98	100
27	1	67	69	70
28	4	23	24	25
29	4	5	7	8
30	1	28	57	59
31	4	57	59	60
32	4	76	78	79
33	3	72	71	73
34	1	15	17	19
35	1	29	34	44
36	1	62	80	69
37	1	89	120	122
38	2	2	1	61
39	1	2	3	5
40	1	65	67	69
41	1	23	59	57
42	5	108	113	114
43	4	24	26	27
44	1	82	84	122
45	1	84	122	120
46	3	12	11	21
47	5	109	108	117
48	1	23	24	26
49	4	79	78	80
50	1	5	7	9
51	5	89	90	117
52	5	45	54	55
53	4	64	63	65
54	1	39	40	82
55	1	76	78	80
56	4	43	42	44
57	9	102	101	103
58	4	35	37	38
59	1	37	39	42
60	4	62	63	64
61	1	70	74	76
62	7	47	46	48
63	1	11	21	22
64	7	111	109	112
65	6	42	44	45
66	5	29	30	31
67	5	109	108	113
68	4	85	87	88
69	4	75	74	76
70	5	108	113	115
71	1	24	26	28
72	5	29	54	45
73	1	1	2	3
74	1	98	100	105
75	1	2	19	17
76	4	63	65	66
77	5	90	91	92
78	5	113	108	117
79	5	89	90	95
80	4	77	76	78
81	7	47	46	49
82	1	2	19	9
83	1	11	21	23
84	4	18	17	19
85	7	55	54	56
86	4	13	15	16
87	1	87	89	120
88	6	105	107	108
89	5	29	54	56
90	1	40	82	84
91	1	40	39	42
92	1	39	42	44
93	1	62	80	78
94	1	98	100	101
95	8	101	103	104
96	4	27	26	28
97	3	62	61	81
98	1	24	23	59
99	5	89	90	91
100	3	10	11	12
101	7	52	50	53
102	4	3	5	6
103	5	28	29	54
104	1	1	2	19
105	1	63	65	67
106	4	74	76	77
107	4	25	24	26
108	1	61	62	63
109	5	90	91	93
110	5	28	29	34
111	5	45	46	49
112	1	63	62	80
113	1	41	40	82
114	1	9	19	17
115	4	95	96	97
116	3	1	61	81
117	1	22	21	23
118	1	69	80	78
119	4	84	85	86
120	5	28	29	30
121	5	107	108	117
122	4	100	105	106
123	1	74	76	78
124	4	106	105	107
125	4	36	35	37
126	5	108	109	110
127	7	110	109	111
128	1	39	40	41
129	1	9	10	11
130	5	107	108	113
131	4	10	13	14
132	1	3	2	19
133	4	88	87	89
134	1	21	23	59
135	1	101	100	105
136	1	21	23	24
137	1	7	9	10
138	4	14	13	15
139	1	35	37	39
140	5	45	50	51
141	1	62	63	65
142	1	87	89	90
143	4	38	37	39
144	7	92	91	93
145	4	8	7	9
146	2	1	61	62
147	7	93	91	94
148	5	107	108	109
149	5	29	30	32
150	5	46	45	54
151	5	95	90	117
152	5	90	117	118
153	1	85	87	89
154	5	108	113	116
155	2	10	11	21
156	4	34	35	36
157	1	82	84	85
158	5	108	109	111
159	4	121	120	122
160	3	20	1	61
161	5	45	54	56
162	5	46	45	50
163	4	99	98	100
164	4	68	67	69
165	4	2	3	4
166	5	45	50	52
167	1	67	69	80
168	7	92	91	94
169	1	95	96	98
170	7	51	50	52
171	7	115	113	116
172	7	48	46	49
173	1	34	44	45
174	5	29	30	33
175	1	13	15	17
176	5	90	117	119
177	4	6	5	7
178	4	23	59	60
179	3	2	1	20
180	1	35	34	44
181	4	15	17	18
182	1	69	70	74
183	4	86	85	87
184	1	37	39	40
185	4	84	122	123
186	5	44	45	50
187	1	3	5	7
188	1	7	9	19
189	7	118	117	119
190	1	85	84	122
191	5	108	117	118
192	4	65	67	68
193	5	90	91	94
194	4	58	57	59
195	4	96	98	99
196	7	51	50	53
197	4	120	122	123
198	5	44	45	46
199	5	91	90	117
200	1	61	62	80
201	1	90	95	107
202	4	4	3	5
203	1	96	95	107
204	7	31	30	32
205	3	70	71	72
206	1	26	28	29
207	1	84	85	87
208	4	70	74	75
209	6	29	34	35
210	1	34	44	42
211	1	100	101	102
212	1	83	82	84
213	5	108	117	119
214	4	66	65	67
215	7	114	113	115
216	5	29	54	55
217	1	90	89	120
218	1	69	70	71
219	7	110	109	112
220	7	32	30	33
221	5	30	29	54
222	1	10	13	15
223	6	90	95	96
224	5	91	90	95
225	7	31	30	33
226	5	30	29	34
227	3	70	71	73
228	5	44	45	54
229	5	45	46	47

Dihedrals

1	1	98	96	95	107
2	1	71	70	74	76
3	1	85	84	122	120
4	1	5	7	9	10
5	1	67	69	80	78
6	1	4	3	2	19
7	1	21	23	59	57
8	16	46	45	54	55
9	11	89	90	95	107
10	1	29	34	35	37
11	16	32	30	29	54
12	1	101	100	105	107
13	1	67	69	70	74
14	12	32	30	29	34
15	1	58	57	59	60
16	1	62	63	65	67
17	1	38	37	39	42
18	1	65	67	69	70
19	1	70	69	80	78
20	1	4	3	5	7
21	1	82	84	122	123
22	1	2	19	9	10
23	1	74	76	78	79
24	1	5	7	9	19
25	11	87	89	90	95
26	11	105	107	108	113
27	1	96	95	107	108
28	12	28	29	30	31
29	12	107	108	117	119
30	1	43	42	44	45
31	1	39	42	44	45
32	16	94	91	90	117
33	1	7	9	10	11
34	8	39	40	82	83
35	1	16	15	17	19
36	16	113	108	117	118
37	3	2	1	61	62
38	16	50	45	54	56
39	1	98	100	105	106
40	1	106	105	107	108
41	3	20	1	61	62
42	1	24	23	59	57
43	12	95	90	117	119
44	1	26	28	57	58
45	11	91	90	95	107
46	2	9	10	11	21
47	1	61	62	63	64
48	1	84	85	87	89
49	17	100	101	103	104
50	16	114	113	108	117
51	1	23	24	26	28
52	1	35	37	39	42
53	16	111	109	108	113
54	1	6	5	7	8
55	1	26	24	23	59
56	12	89	90	91	92
57	1	101	100	105	106
58	1	11	10	13	14
59	8	37	39	40	82
60	1	64	63	65	67
61	8	40	82	84	85
62	11	96	95	90	117
63	2	1	61	62	80
64	11	30	29	34	35
65	1	82	84	85	87
66	16	47	46	45	50
67	1	82	84	122	120
68	1	96	98	100	101
69	8	102	101	100	105
70	2	13	10	11	21
71	1	25	24	26	27
72	8	41	40	82	84
73	11	34	29	28	57
74	13	90	117	108	109
74	14	90	117	108	109
74	15	90	117	108	109
75	2	19	2	1	61
76	1	62	63	65	66
77	2	3	2	1	61
78	11	34	44	45	46
79	1	27	26	28	57
80	11	95	107	108	109
81	1	4	3	5	6
82	1	85	84	122	123
83	1	70	74	76	77
84	1	21	23	59	60
85	1	5	3	2	19
86	16	46	45	50	53
87	11	28	29	34	35
88	1	24	26	28	57
89	16	52	50	45	54
90	1	74	70	69	80
91	11	42	44	45	54
92	12	89	90	117	119
93	12	107	108	109	110
94	1	16	15	17	18
95	16	31	30	29	54
96	12	44	45	46	48
97	12	31	30	29	34
98	3	20	1	61	81
99	1	34	44	42	43
100	1	71	70	69	80
101	12	95	90	117	118
102	1	63	65	67	69
103	16	109	108	113	116
104	1	84	85	87	88
105	1	23	59	57	28
106	2	73	71	70	74
107	1	85	87	89	90
108	11	89	90	95	96
109	1	95	107	105	100
110	1	95	96	98	100
111	1	1	2	3	5
112	1	82	84	85	86
113	1	2	19	17	18
114	1	3	5	7	8
115	1	97	96	95	107
116	1	24	23	59	60
117	8	41	40	39	42
118	11	87	89	90	91
119	8	22	21	23	59
120	1	36	35	37	39
121	8	98	100	101	102
122	12	34	29	54	56
123	11	105	107	108	109
124	1	34	35	37	39
125	1	21	23	24	26
126	16	91	90	117	119
127	16	48	46	45	54
128	1	24	26	28	29
129	12	94	91	90	95
130	12	93	91	90	95
131	2	1	61	62	63
132	1	29	28	57	59
133	12	44	45	54	56
134	11	91	90	89	120
135	1	10	9	19	17
136	1	95	107	105	106
137	12	107	108	113	114
138	1	64	63	62	80
139	11	91	90	95	96
140	11	117	90	89	120
141	12	44	45	50	52
142	1	90	89	120	122
143	12	44	45	46	47
144	1	40	39	42	44
145	1	29	34	44	42
146	1	61	62	80	69
147	1	69	80	78	76
148	1	35	34	44	45
149	2	69	70	71	73
150	1	2	19	17	15
151	1	9	19	17	18
152	1	84	122	120	121
153	16	92	91	90	117
154	1	63	65	67	68
155	12	95	90	117	108
156	16	109	108	113	115
157	12	28	29	30	33
158	1	97	96	98	100
159	1	7	9	10	13
160	1	13	15	17	18
161	11	30	29	34	44
162	16	49	46	45	54
163	16	112	109	108	113
164	1	71	70	74	75
165	1	85	87	89	120
166	16	50	45	54	55
167	1	25	24	23	59
168	8	103	101	100	105
169	8	11	21	23	24
170	1	36	35	37	38
171	1	29	34	35	36
172	1	68	67	69	70
173	1	75	74	76	78
174	1	34	35	37	38
175	1	3	2	19	9
176	1	37	39	42	44
177	16	53	50	45	54
178	11	42	44	45	50
179	12	89	90	91	94
180	11	30	29	28	57
181	12	90	117	108	107
182	12	29	54	45	44
183	1	87	89	120	122
184	1	13	10	9	19
185	1	63	62	80	69
186	1	23	59	57	58
187	16	112	109	108	117
188	16	109	108	117	119
189	16	30	29	54	56
190	1	35	34	44	42
191	1	14	13	15	17
192	1	34	44	42	39
193	1	8	7	9	10
194	1	9	19	17	15
195	11	28	29	34	44
196	1	29	28	57	58
197	8	37	39	40	41
198	12	107	108	117	118
199	16	110	109	108	117
200	1	90	95	107	105
201	12	89	90	117	108
202	1	84	122	120	89
203	1	62	80	69	67
204	3	2	1	61	81
205	12	44	45	50	51
206	1	90	89	120	121
207	12	34	29	54	45
208	1	40	39	42	43
209	1	86	85	87	89
210	16	116	113	108	117
211	2	69	70	71	72
212	2	63	62	61	81
213	1	74	76	78	80
214	1	121	120	122	123
215	2	19	2	1	20
216	2	3	2	1	20
217	11	26	28	29	54
218	1	1	2	19	17
219	6	10	11	21	23
219	7	10	11	21	23
220	1	90	95	96	98
221	1	97	96	98	99
222	12	28	29	54	56
223	11	26	28	29	34
224	2	80	62	61	81
225	1	23	24	26	27
226	12	107	108	109	112
227	1	2	3	5	7
228	16	48	46	45	50
229	13	29	54	45	50
229	14	29	54	45	50
229	15	29	54	45	50
230	1	64	63	65	66
231	1	29	34	44	45
232	16	113	108	117	119
233	1	69	80	78	79
234	1	37	35	34	44
235	11	35	34	29	54
236	16	46	45	54	56
237	1	68	67	69	80
238	1	27	26	28	29
239	1	37	39	42	43
240	2	12	11	10	13
241	1	6	5	7	9
242	8	41	40	82	83
243	12	89	90	91	93
244	13	91	90	117	108
244	14	91	90	117	108
244	15	91	90	117	108
245	16	33	30	29	54
246	8	83	82	84	85
247	12	33	30	29	34
248	1	38	37	39	40
249	16	109	108	117	118
250	1	99	98	100	105
251	1	77	76	78	80
252	1	14	13	15	16
253	11	54	29	28	57
254	1	1	2	3	4
255	1	62	80	78	76
256	16	46	45	50	52
257	18	102	101	103	104
257	19	102	101	103	104
258	1	25	24	26	28
259	1	10	13	15	17
260	1	88	87	89	90
261	1	65	63	62	80
262	12	89	90	117	118
263	12	92	91	90	95
264	12	34	29	54	55
265	1	61	62	80	78
266	16	49	46	45	50
267	1	86	85	87	88
268	1	69	70	74	76
269	1	70	74	76	78
270	1	11	10	9	19
271	13	30	29	54	45
271	14	30	29	54	45
271	15	30	29	54	45
272	4	10	11	21	22
272	5	10	11	21	22
273	1	90	95	96	97
274	12	107	108	113	116
275	1	9	10	13	15
276	1	35	37	39	40
277	16	93	91	90	117
278	12	107	108	109	111
279	11	42	44	45	46
280	1	2	3	5	6
281	1	62	80	69	70
282	12	44	45	54	55
283	12	44	45	46	49
284	1	95	96	98	99
285	11	87	89	90	117
286	1	100	105	107	108
287	6	12	11	21	23
287	7	12	11	21	23
288	1	36	35	34	44
289	1	66	65	67	69
290	11	105	107	108	117
291	1	7	9	19	17
292	8	83	82	84	122
293	1	90	95	107	108
294	2	9	10	11	12
295	1	21	23	24	25
296	1	67	69	70	71
297	16	110	109	108	113
298	1	96	95	107	105
299	16	91	90	117	118
300	1	63	62	80	78
301	8	22	21	23	24
302	12	28	29	54	45
303	1	77	76	78	79
304	11	95	90	89	120
305	1	3	5	7	9
306	1	89	120	122	123
307	1	1	2	19	9
308	11	107	95	90	117
309	16	46	45	50	51
310	8	98	100	101	103
311	1	86	85	84	122
312	1	10	13	15	16
313	11	26	28	29	30
314	16	111	109	108	117
315	13	29	54	45	46
315	14	29	54	45	46
315	15	29	54	45	46
316	1	65	67	69	80
317	16	47	46	45	54
318	8	42	39	40	82
319	1	8	7	9	19
320	1	62	80	78	79
321	1	69	70	74	75
322	1	88	87	89	120
323	16	115	113	108	117
324	1	96	98	100	105
325	16	109	108	113	114
326	16	30	29	54	55
327	12	28	29	30	32
328	1	87	85	84	122
329	16	51	50	45	54
330	12	107	108	113	115
331	1	9	10	13	14
332	1	3	2	19	17
333	8	39	40	82	84
334	13	90	117	108	113
334	14	90	117	108	113
334	15	90	117	108	113
335	12	44	45	50	53
336	11	34	44	45	50
337	1	28	57	59	60
338	1	2	19	9	7
339	11	95	107	108	113
340	1	99	98	100	101
341	2	72	71	70	74
342	9	12	11	21	22
342	10	12	11	21	22
343	1	26	28	57	59
344	1	66	65	67	68
345	1	61	62	63	65
346	8	40	82	84	122
347	1	75	74	76	77
348	11	44	34	29	54
349	1	13	15	17	19
350	1	11	10	13	15
351	11	34	44	45	54
352	8	11	21	23	59
353	1	98	100	105	107
354	1	87	89	120	121
355	12	28	29	54	55
356	11	95	107	108	117

Impropers

2	1	85	84	86	87
3	1	120	122	89	121
4	1	7	8	9	5
5	2	71	72	73	70
6	1	120	89	121	122
7	2	71	70	72	73
12	1	74	75	76	70
13	1	82	83	84	40
15	2	11	10	12	21
23	1	84	122	82	85
26	1	69	70	80	67
28	1	70	71	74	69
36	1	26	27	28	24
51	1	57	28	58	59
54	1	37	38	39	35
55	1	100	105	98	101
59	1	28	57	26	29
61	1	96	98	95	97
63	1	107	95	105	108
66	1	78	79	80	76
68	1	69	67	70	80
71	1	87	88	89	85
84	1	24	26	23	25
85	1	34	35	44	29
98	1	42	39	43	44
100	1	2	1	3	19
117	2	11	21	10	12
122	1	100	98	101	105
123	1	67	68	69	65
125	1	17	19	15	18
126	1	63	62	64	65
134	1	21	23	11	22
135	1	80	62	69	78
136	1	44	42	45	34
138	1	17	15	18	19
140	1	78	76	79	80
141	1	15	13	16	17
143	1	28	29	57	26
146	1	82	84	40	83
147	1	87	89	85	88
151	1	70	69	71	74
152	1	76	77	78	74
156	1	105	106	107	100
161	1	65	63	66	67
171	1	19	17	2	9
173	1	76	78	74	77
184	1	74	70	75	76
186	1	98	96	99	100
187	1	122	123	84	120
188	1	21	11	22	23
190	1	98	100	96	99
191	1	9	19	7	10
195	1	3	4	5	2
200	1	84	85	122	82
211	1	98	99	100	96
215	1	62	61	63	80
217	1	39	37	40	42
218	1	65	66	67	63
222	2	61	81	1	62
225	1	39	42	37	40
231	1	87	85	88	89
232	1	19	9	17	2
233	1	107	105	108	95
236	1	95	96	107	90
242	1	3	2	4	5
244	1	107	108	95	105
253	1	5	6	7	3
256	1	5	3	6	7
258	1	59	60	23	57
260	1	40	82	39	41
262	1	57	59	28	58
270	1	24	25	26	23
271	1	105	100	106	107
275	1	2	3	19	1
276	1	26	24	27	28
277	1	24	23	25	26
279	1	63	65	62	64
287	1	39	40	42	37
291	1	23	21	24	59
294	1	37	39	35	38
302	1	122	120	123	84
303	1	40	39	41	82
310	2	1	61	2	20
311	1	34	44	29	35
314	1	80	78	62	69
331	1	85	86	87	84
335	2	1	2	20	61
340	1	78	80	76	79
349	1	74	76	70	75
353	3	101	103	100	102
355	1	9	10	19	7
358	1	35	34	36	37
366	1	85	87	84	86
367	1	96	95	97	98
373	1	44	34	42	45
375	1	26	28	24	27
376	1	89	90	120	87
377	1	17	18	19	15
383	1	10	9	11	13
389	1	69	80	67	70
390	1	120	121	122	89
393	1	42	43	44	39
394	1	42	44	39	43
397	1	7	9	5	8
401	1	100	101	105	98
405	1	89	87	90	120
418	1	5	7	3	6
420	2	11	12	21	10
432	1	3	5	2	4
433	1	2	19	1	3
438	1	10	13	9	11
440	1	62	63	80	61
442	1	19	2	9	17
446	1	57	58	59	28
450	1	35	36	37	34
457	1	13	15	10	14
464	1	23	24	59	21
468	1	21	22	23	11
476	1	59	57	60	23
478	1	23	59	21	24
479	1	122	84	120	123
482	1	37	35	38	39
485	1	105	107	100	106
497	1	76	74	77	78
499	1	80	69	78	62
500	1	35	37	34	36
504	1	67	65	68	69
508	1	13	14	15	10
511	1	40	41	82	39
516	1	96	97	98	95
517	1	9	7	10	19
523	1	63	64	65	62
525	1	59	23	57	60
527	1	15	17	13	16
528	1	28	26	29	57
532	3	101	100	102	103
538	2	71	73	70	72
540	1	84	82	85	122
542	1	10	11	13	9
545	1	70	74	69	71
551	1	89	120	87	90
553	1	82	40	83	84
556	1	67	69	65	68
557	1	65	67	63	66
559	1	7	5	8	9
562	1	95	90	96	107
563	2	1	20	61	2
568	1	34	29	35	44
574	3	101	102	103	100
577	1	44	45	34	42
580	2	61	62	81	1
583	1	13	10	14	15
584	1	95	107	90	96
586	1	62	80	61	63
592	1	15	16	17	13
595	2	61	1	62	81
