Title

301 atoms
322 bonds
541 angles
829 dihedrals
396 impropers

11 atom types
15 bond types
9 angle types
21 dihedral types
3 improper types
-29.74399948 70.25600052 xlo xhi
-17.54100037 82.45899963 ylo yhi
-4.589000225 95.41099977 zlo zhi
0.0 0.0 0.0 xy xz yz

Masses

1	14.00672
2	12.01078
3	1.007947
4	15.99943
5	12.01078
6	1.007947
7	1.007947
8	18.998403
9	15.99943
10	15.99943
11	1.007947


Pair Coeffs

1	0.16769152	3.206876
2	0.086879315	3.4806469
3	0.015611343	2.5725815
4	0.16846514	3.0251065
5	0.10884061	3.3795318
6	0.015779483	2.6445434
7	0.014090815	1.1034277
8	0.061	3.1181455
9	0.2102061	3.0398122
10	0.20947353	2.99716
11	1.2326e-05	0.53453923

Bond Coeffs

1 harmonic	390.03554688505	1.390160554689
2 harmonic	505.144496193	1.019481865027
3 harmonic	422.7150220147	1.421786517481
4 harmonic	360.7852444772	1.387193227181
5 harmonic	397.2545789619	1.085358495916
6 harmonic	279.1350963404	1.454628925034
7 harmonic	425.69104206635	1.362945806494
8 harmonic	289.73813263395	1.498646816465
9 harmonic	264.62148576755	1.52190126495
10 harmonic	370.04670688625	1.093899492634
11 harmonic	492.76746816345	1.381897776683
12 harmonic	340.45121009905	1.358690858053
13 harmonic	582.698766451	1.225198386222
14 harmonic	385.7604595587	1.369745182308
15 harmonic	543.5267831885	0.9716763312559


Angle Coeffs

1 harmonic	57.8982893754	126.8062420451
2 harmonic	55.42182150775	117.3465570514
3 harmonic	63.44422595415	115.5071327674
4 harmonic	34.066775159195	129.1835929926
5 harmonic	65.09061609600001	110.3538806181
6 harmonic	53.20531626545	116.5475862634
7 harmonic	14.32262199324	138.3184368373
8 harmonic	48.776492647595	115.6030999533
9 harmonic	201.41175231035	127.4691416191


Dihedral Coeffs

1 fourier 1	3.661930099076	2	180
2 fourier 1	1.193093382682	2	180
3 fourier 1	0.02021088501612	1	0
4 fourier 1	1.163235555439	2	180
5 fourier 1	1.532232714475	2	180
6 fourier 1	0.02664938770063	3	0
7 fourier 1	0.1155372516788	3	0
8 fourier 1	0.09223874044423	3	0
9 fourier 1	0.3159935921949	2	180
10 fourier 1	0.3247796806857	1	180
11 fourier 1	0.1040663847541	3	0
12 fourier 1	3.101948770557	2	180
13 fourier 1	-0.4252153282372	1	0
14 fourier 1	1.809047390003	2	180
15 fourier 1	-0.04816277792592	1	0
16 fourier 1	0.9974165607242	2	180
17 fourier 1	2.348375642009	2	180
18 fourier 1	1.256156174911	1	0
19 fourier 1	2.687457892086	2	180
20 fourier 1	2.772607909663	2	180
21 fourier 1	0.09692684957115	1	0


Improper Coeffs

1 0.3666666666666667	-1	2
2 0.3333333333333333	-1	2
3 3.5	-1	2


Atoms

1	1	1	-0.41315699	11.7	-4.5539999	0.44800001
2	1	2	0.123977	10.391	-4.0219998	0.66500002
3	1	2	-0.40917501	10.143	-2.7179999	0.46799999
4	1	3	0.21886	10.931	-2.05	0.142
5	1	2	-0.117721	8.7860003	-2.174	0.68900001
6	1	3	0.20163	8.6160002	-1.122	0.49599999
7	1	2	-0.13022999	7.783	-2.9790001	1.089
8	1	2	-0.1364	6.415	-2.441	1.303
9	1	2	-0.13319901	5.335	-3.1589999	0.94599998
10	1	3	0.204932	5.4400001	-4.1339998	0.48300001
11	1	2	-0.29869401	3.98	-2.612	1.1289999
12	1	3	0.221413	3.1270001	-3.1900001	0.79799998
13	1	2	0.32623801	3.8039999	-1.393	1.655
14	1	4	-0.27488801	2.506	-0.88499999	1.7589999
15	1	2	0.26190701	2.0109999	0.142	0.94800001
16	1	2	-0.283178	0.85699999	0.72799999	1.281
17	1	3	0.22847	0.32600001	0.41600001	2.1730001
18	1	2	-0.15235899	0.29899999	1.812	0.449
19	1	3	0.214377	-0.62	2.2809999	0.778
20	1	2	-0.259478	0.91500002	2.2079999	-0.68900001
21	1	5	0.018177001	0.32800001	3.3599999	-1.523
22	1	5	-0.132329	0.93900001	3.4619999	-2.9400001
23	1	6	0.085652001	0.86900002	2.487	-3.4690001
24	1	6	0.085652001	2.0039999	3.7709999	-2.8889999
25	1	6	0.085652001	0.40200001	4.224	-3.5439999
26	1	2	-0.111114	-1.156	3.2090001	-1.666
27	1	2	-0.130319	-1.814	2.1619999	-2.184
28	1	3	0.213796	-1.276	1.307	-2.573
29	1	2	0.231196	-3.2950001	2.1659999	-2.164
30	1	4	-0.28365299	-3.987	1.059	-2.6630001
31	1	2	0.33011001	-4.777	0.19599999	-1.883
32	1	2	-0.29869401	-4.7270002	0.213	-0.537
33	1	3	0.221413	-4.0799999	0.90200001	-0.0099999998
34	1	2	-0.13319901	-5.5050001	-0.755	0.257
35	1	3	0.204932	-5.4029999	-0.73400003	1.334
36	1	2	-0.1364	-6.2789998	-1.6720001	-0.35100001
37	1	2	-0.13022999	-7.0180001	-2.6960001	0.43200001
38	1	2	-0.13166399	-7.6209998	-2.3889999	1.599
39	1	3	0.20163	-7.6030002	-1.3789999	1.988
40	1	2	-0.37744999	-8.3459997	-3.425	2.365
41	1	3	0.215413	-8.8149996	-3.155	3.3039999
42	1	2	0.196297	-8.4169998	-4.6820002	1.903
43	1	1	-0.531856	-9.1190004	-5.6869998	2.6389999
44	1	7	0.318131	-9.1759996	-6.664	2.277
45	1	2	-0.37744999	-7.7610002	-5.027	0.62199998
46	1	3	0.215413	-7.8070002	-6.0409999	0.245
47	1	2	-0.13166399	-7.1030002	-4.092	-0.071999997
48	1	3	0.20163	-6.6139998	-4.3709998	-0.99699998
49	1	2	-0.059987999	-6.3530002	-1.6799999	-1.834
50	1	3	0.20404901	-6.9949999	-2.405	-2.316
51	1	2	-0.32453001	-5.6529999	-0.79299998	-2.5699999
52	1	5	0.76538903	-5.7179999	-0.796	-4.0809999
53	1	8	-0.21126799	-4.4790001	-1.1390001	-4.5890002
54	1	8	-0.21126799	-6.0580001	0.46599999	-4.5310001
55	1	8	-0.21126799	-6.6550002	-1.6950001	-4.5619998
56	1	2	-0.289022	-3.9579999	3.23	-1.666
57	1	3	0.216893	-5.0409999	3.2420001	-1.655
58	1	2	0.0081940005	-3.2079999	4.3909998	-1.128
59	1	3	0.211843	-3.7420001	5.2459998	-0.73500001
60	1	2	-0.19992501	-1.865	4.3499999	-1.13
61	1	5	-0.02186	-0.91799998	5.3920002	-0.625
62	1	5	-0.131937	-1.008	6.6550002	-1.5
63	1	6	0.089929	-0.266	7.4109998	-1.163
64	1	6	0.089929	-2.0220001	7.1059999	-1.437
65	1	6	0.089929	-0.796	6.408	-2.5639999
66	1	5	-0.131937	-1.217	5.7399998	0.84600002
67	1	6	0.089929	-2.211	6.2249999	0.94300002
68	1	6	0.089929	-1.2130001	4.823	1.475
69	1	6	0.089929	-0.44999999	6.441	1.239
70	1	5	-0.18219	0.48699999	4.7199998	-0.76599997
71	1	6	0.12797999	1.207	5.3920002	-1.285
72	1	6	0.12797999	0.93800002	4.553	0.23999999
73	1	2	-0.15235899	2.2119999	1.557	-1.046
74	1	3	0.214377	2.7650001	1.852	-1.928
75	1	2	-0.283178	2.7219999	0.58600003	-0.278
76	1	3	0.22847	3.658	0.123	-0.56699997
77	1	2	-0.32453001	4.9819999	-0.60399997	2.122
78	1	5	0.76538903	4.8000002	0.75300002	2.767
79	1	8	-0.21126799	3.648	0.773	3.5339999
80	1	8	-0.21126799	4.7049999	1.721	1.784
81	1	8	-0.21126799	5.8660002	1.0599999	3.5940001
82	1	2	-0.059987999	6.2189999	-1.1	1.9170001
83	1	3	0.20404901	7.0910001	-0.53500003	2.227
84	1	2	-0.117721	8.0679998	-4.4229999	1.311
85	1	3	0.20163	7.2870002	-5.0900002	1.653
86	1	2	-0.40917501	9.2959995	-4.9120002	1.109
87	1	3	0.21886	9.4919996	-5.9629998	1.2819999
88	1	7	0.37112099	12.491	-3.9400001	0.15000001
89	1	2	0.75544298	-9.5889997	-5.4629998	3.5639999
90	1	9	-0.67429203	-8.9390001	-4.783	4.4060001
91	1	2	-0.31022599	-10.979	-5.9000001	3.845
92	1	2	-0.028905001	-11.638	-5.3769999	4.9000001
93	1	3	0.21642099	-11.16	-4.664	5.5630002
94	1	2	-0.31637099	-13.056	-5.7030001	5.145
95	1	3	0.220183	-13.57	-5.2379999	5.9770002
96	1	2	0.21170799	-13.722	-6.5050001	4.3099999
97	1	4	-0.276021	-15.089	-6.7350001	4.533
98	1	2	0.25355801	-16.07	-6.8629999	3.5350001
99	1	2	-0.28039399	-15.908	-6.3639998	2.296
100	1	3	0.225803	-15.003	-5.8400002	2.0150001
101	1	2	-0.145564	-17.002001	-6.4369998	1.308
102	1	3	0.213636	-16.830999	-5.954	0.359
103	1	2	-0.260786	-18.184999	-7.0180001	1.614
104	1	5	0.0079079997	-19.392	-6.9559999	0.65899998
105	1	2	-0.260786	-20.284	-8.2030001	0.82599998
106	1	2	-0.145564	-21.635	-8.1370001	0.88
107	1	3	0.213636	-22.167999	-7.1960001	0.875
108	1	2	-0.28039399	-22.455	-9.3629999	0.92400002
109	1	3	0.225803	-23.533001	-9.2539997	0.93900001
110	1	2	0.25355801	-21.872999	-10.578	0.90399998
111	1	4	-0.276021	-22.617001	-11.772	0.89399999
112	1	2	0.204642	-23.966999	-11.902	1.255
113	1	2	-0.31230101	-24.466	-11.31	2.3499999
114	1	3	0.220183	-23.823999	-10.73	3.0020001
115	1	2	-0.0072420002	-25.913	-11.377	2.6329999
116	1	3	0.226656	-26.298	-10.784	3.4530001
117	1	2	-0.191231	-26.743	-12.056	1.817
118	1	2	0.80071598	-28.204	-11.884	1.984
119	1	9	-0.49724099	-28.959999	-11.882	0.97500002
120	1	10	-0.66680199	-28.747999	-11.666	3.2490001
121	1	11	0.41592401	-29.743999	-11.524	3.368
122	1	2	-0.125228	-26.162001	-12.862	0.69099998
123	1	2	0.79840899	-26.974001	-13.849	-0.067000002
124	1	9	-0.49724099	-26.601	-14.235	-1.211
125	1	10	-0.66680199	-28.115	-14.411	0.50099999
126	1	11	0.41592401	-28.667	-15.098	0
127	1	2	-0.085078001	-24.844	-12.752	0.42500001
128	1	3	0.22915199	-24.392	-13.319	-0.37799999
129	1	2	-0.28039399	-20.400999	-10.666	0.83099997
130	1	3	0.225803	-19.923	-11.635	0.79799998
131	1	2	-0.145564	-19.653999	-9.5550003	0.79100001
132	1	3	0.213636	-18.577	-9.6490002	0.70700002
133	1	5	-0.130528	-20.134001	-5.6339998	0.977
134	1	6	0.087653004	-19.429001	-4.776	0.96499997
135	1	6	0.087653004	-20.919001	-5.4200001	0.221
136	1	6	0.087653004	-20.6	-5.6799998	1.983
137	1	5	-0.130528	-18.962999	-6.9250002	-0.82999998
138	1	6	0.087653004	-19.849001	-7.0630002	-1.4910001
139	1	6	0.087653004	-18.504999	-5.9520001	-1.108
140	1	6	0.087653004	-18.239	-7.7399998	-1.051
141	1	2	-0.145564	-18.358	-7.5500002	3
142	1	3	0.213636	-19.304001	-7.9790001	3.3069999
143	1	2	-0.28039399	-17.358999	-7.4899998	3.891
144	1	3	0.225803	-17.506001	-7.8740001	4.8930001
145	1	2	-0.034756001	-12.994	-7.152	3.1889999
146	1	3	0.211676	-13.527	-7.8769999	2.5840001
147	1	2	-0.201399	-11.692	-6.8790002	2.954
148	1	2	0.57165802	-10.983	-7.5890002	1.86
149	1	9	-0.54880798	-11.613	-8.3030005	1.034
150	1	1	-0.41315699	11.882	-5.5760002	0.57800001
151	1	2	0.123977	12.098	-6.1079998	1.888
152	1	2	-0.40917501	12.365	-7.4120002	2.0580001
153	1	3	0.21886	12.42	-8.0799999	1.207
154	1	2	-0.117721	12.593	-7.9559999	3.414
155	1	3	0.20163	12.831	-9.0080004	3.513
156	1	2	-0.13022999	12.538	-7.151	4.493
157	1	2	-0.1364	12.777	-7.6890001	5.8559999
158	1	2	-0.13319901	13.463	-6.9710002	6.763
159	1	3	0.204932	13.867	-5.9959998	6.5149999
160	1	2	-0.29869401	13.726	-7.5180001	8.1049995
161	1	3	0.221413	14.314	-6.9400001	8.8059998
162	1	2	0.32623801	13.286	-8.7370005	8.4420004
163	1	4	-0.27488801	13.605	-9.2449999	9.7040005
164	1	2	0.26190701	14.533	-10.272	9.9099998
165	1	2	-0.283178	14.59	-10.858	11.111
166	1	3	0.22847	13.917	-10.546	11.901
167	1	2	-0.15235899	15.557	-11.941	11.37
168	1	3	0.214377	15.542	-12.411	12.346
169	1	2	-0.259478	16.436001	-12.338	10.42
170	1	5	0.018177001	17.415001	-13.49	10.707
171	1	5	-0.132329	18.558001	-13.592	9.6719999
172	1	6	0.085652001	19.082001	-12.616	9.5670004
173	1	6	0.085652001	18.167	-13.901	8.6800003
174	1	6	0.085652001	19.302999	-14.354	9.9849997
175	1	2	-0.111114	18.028	-13.339	12.065
176	1	2	-0.130319	18.731001	-12.292	12.521
177	1	3	0.213796	18.924999	-11.436	11.886
178	1	2	0.231196	19.188999	-12.296	13.929
179	1	4	-0.28365299	19.885	-11.189	14.424
180	1	2	0.33011001	19.400999	-10.326	15.423
181	1	2	-0.29869401	18.111	-10.343	15.81
182	1	3	0.221413	17.403999	-11.032	15.367
183	1	2	-0.13319901	17.610001	-9.375	16.802
184	1	3	0.204932	16.558001	-9.3950005	17.052999
185	1	2	-0.1364	18.434999	-8.4580002	17.339001
186	1	2	-0.13022999	17.931999	-7.4330001	18.291
187	1	2	-0.081196003	17.021999	-7.7399998	19.238001
188	1	3	0.20163	16.648001	-8.7510004	19.346001
189	1	2	-0.45325601	16.530001	-6.7049999	20.171
190	1	3	0.22727901	15.793	-6.9749999	20.917999
191	1	2	0.314293	16.990999	-5.447	20.089001
192	1	1	-0.84597999	16.521	-4.4429998	20.990999
193	1	7	0.36392701	15.809	-4.6630001	21.722
194	1	7	0.36392701	16.882	-3.4660001	20.927999
195	1	2	-0.45325601	17.992001	-5.1020002	19.056
196	1	3	0.22727901	18.364	-4.0879998	18.976999
197	1	2	-0.081196003	18.437	-6.0370002	18.209
198	1	3	0.20163	19.155001	-5.7589998	17.447001
199	1	2	-0.059987999	19.863001	-8.4499998	16.93
200	1	3	0.20404901	20.525999	-7.7249999	17.382999
201	1	2	-0.32453001	20.334	-9.3369999	16.031
202	1	5	0.76538903	21.785	-9.3339996	15.605
203	1	8	-0.21126799	21.867001	-8.9910002	14.268
204	1	8	-0.21126799	22.320999	-10.596	15.782
205	1	8	-0.21126799	22.542	-8.4350004	16.337
206	1	2	-0.289022	18.931999	-13.36	14.718
207	1	3	0.216893	19.271	-13.371	15.747
208	1	2	0.0081940005	18.18	-14.521	14.181
209	1	3	0.211843	17.981001	-15.376	14.814
210	1	2	-0.19992501	17.749001	-14.48	12.91
211	1	5	-0.02186	16.966	-15.522	12.176
212	1	5	-0.131937	17.823999	-16.784	11.978
213	1	6	0.089929	17.264999	-17.541	11.386
214	1	6	0.089929	18.09	-17.235001	12.959
215	1	6	0.089929	18.761999	-16.538	11.436
216	1	5	-0.131937	15.67	-15.87	12.934
217	1	6	0.089929	15.899	-16.354	13.906
218	1	6	0.089929	15.073	-14.953	13.132
219	1	6	0.089929	15.051	-16.57	12.335
220	1	5	-0.18219	16.646	-14.85	10.8
221	1	6	0.12797999	16.906	-15.522	9.9519997
222	1	6	0.12797999	15.549	-14.683	10.698
223	1	2	-0.15235899	16.355	-11.687	9.0780001
224	1	3	0.214377	17.011999	-11.982	8.2700005
225	1	2	-0.283178	15.464	-10.716	8.842
226	1	3	0.22847	15.436	-10.253	7.8639998
227	1	2	-0.32453001	12.463	-9.526	7.4759998
228	1	5	0.76538903	11.912	-10.883	7.8569999
229	1	8	-0.21126799	11.556	-10.903	9.1949997
230	1	8	-0.21126799	12.873	-11.851	7.6300001
231	1	8	-0.21126799	10.785	-11.19	7.1149998
232	1	2	-0.059987999	12.258	-9.0299997	6.2399998
233	1	3	0.20404901	11.683	-9.5950003	5.5139999
234	1	2	-0.117721	12.236	-5.7069998	4.2950001
235	1	3	0.20163	12.163	-5.04	5.1440001
236	1	2	-0.40917501	12.031	-5.2179999	3.066
237	1	3	0.21886	11.804	-4.1669998	2.937
238	1	7	0.37112099	11.908	-6.1900001	-0.26699999
239	1	2	0.57998699	-9.9029999	-7.5310001	1.762
240	1	9	-0.54880798	-9.368	-7.9640002	0.70300001
241	1	2	-0.312197	-9.0839996	-6.9710002	2.859
242	1	2	0.024411	-7.7870002	-7.3239999	2.964
243	1	3	0.210858	-7.323	-7.973	2.23
244	1	2	-0.322193	-6.987	-6.9039998	4.1259999
245	1	3	0.220183	-5.954	-7.224	4.2069998
246	1	2	0.204642	-7.5289998	-6.138	5.0809999
247	1	4	-0.276021	-6.7459998	-5.7529998	6.1729999
248	1	2	0.25355801	-6.4169998	-4.4169998	6.4000001
249	1	2	-0.28039399	-7.2579999	-3.5940001	7.0419998
250	1	3	0.225803	-8.2060003	-3.957	7.4120002
251	1	2	-0.145564	-6.901	-2.1760001	7.2399998
252	1	3	0.213636	-7.631	-1.5470001	7.7329998
253	1	2	-0.260786	-5.7090001	-1.694	6.8119998
254	1	5	0.0079079997	-5.2820001	-0.223	6.9629998
255	1	2	-0.260786	-3.905	-0.175	7.6490002
256	1	2	-0.145564	-3.7509999	-0.73299998	8.8730001
257	1	3	0.213636	-4.5780001	-1.238	9.3599997
258	1	2	-0.28039399	-2.4590001	-0.67299998	9.5780001
259	1	3	0.225803	-2.369	-1.113	10.564
260	1	2	0.25355801	-1.4170001	-0.032000002	9.0360003
261	1	4	-0.276021	-0.223	0.059	9.7589998
262	1	2	0.204642	0.61799997	1.184	9.7930002
263	1	2	-0.31230101	1.87	1.038	10.244
264	1	3	0.220183	2.2279999	0.061000001	10.547
265	1	2	-0.0072420002	2.753	2.207	10.39
266	1	3	0.226656	3.727	2.072	10.842
267	1	2	-0.191231	2.3399999	3.4360001	10.022
268	1	2	0.80071598	3.204	4.585	10.337
269	1	9	-0.49724099	3.421	4.8920002	11.541
270	1	10	-0.66680199	3.7490001	5.3639998	9.3219995
271	1	11	0.41592401	4.2319999	6.2220001	9.5509996
272	1	2	-0.125228	0.96100003	3.609	9.4610004
273	1	2	0.79840899	0.43200001	4.9299998	9.0340004
274	1	9	-0.49724099	-0.81	5.1420002	9.0080004
275	1	10	-0.66680199	1.2970001	5.9219999	8.5740004
276	1	11	0.41592401	0.94	6.8130002	8.2519999
277	1	2	-0.085078001	0.14300001	2.5350001	9.4049997
278	1	3	0.22915199	-0.88099998	2.658	9.0790005
279	1	2	-0.28039399	-1.546	0.53200001	7.6729999
280	1	3	0.225803	-0.69	0.98199999	7.1859999
281	1	2	-0.145564	-2.7149999	0.47299999	7.0209999
282	1	3	0.213636	-2.7590001	0.90499997	6.0339999
283	1	5	-0.130528	-6.2620001	0.62699997	7.8140001
284	1	6	0.087653004	-6.4130001	0.18000001	8.8199997
285	1	6	0.087653004	-7.25	0.72000003	7.316
286	1	6	0.087653004	-5.8530002	1.649	7.9559999
287	1	5	-0.130528	-5.2639999	0.39700001	5.5469999
288	1	6	0.087653004	-5.0089998	1.479	5.5900002
289	1	6	0.087653004	-4.5310001	-0.114	4.8860002
290	1	6	0.087653004	-6.2649999	0.30399999	5.0679998
291	1	2	-0.145564	-4.7789998	-2.6329999	6.1269999
292	1	3	0.213636	-3.8180001	-2.2820001	5.7659998
293	1	2	-0.28039399	-5.1149998	-3.914	5.934
294	1	3	0.225803	-4.4299998	-4.5799999	5.4200001
295	1	2	-0.088211998	-8.9370003	-5.6989999	4.9569998
296	1	3	0.22915199	-9.3509998	-5.0419998	5.7090001
297	1	2	-0.089101002	-9.6870003	-6.0700002	3.898
298	1	2	0.810637	-11.05	-5.507	3.756
299	1	9	-0.49724099	-11.538	-5.2979999	2.615
300	1	10	-0.66680199	-11.787	-5.1570001	4.8839998
301	1	11	0.41592401	-12.712	-4.75	4.7919998

Bonds

1	1	1	2
2	2	1	88
3	3	1	150
4	4	2	3
5	4	2	86
6	5	3	4
7	4	3	5
8	5	5	6
9	4	5	7
10	6	7	8
11	4	7	84
12	4	8	9
13	4	8	82
14	5	9	10
15	4	9	11
16	5	11	12
17	4	11	13
18	7	13	14
19	4	13	77
20	7	14	15
21	4	15	16
22	4	15	75
23	5	16	17
24	4	16	18
25	5	18	19
26	4	18	20
27	8	20	21
28	4	20	73
29	9	21	22
30	8	21	26
31	9	21	70
32	10	22	23
33	10	22	24
34	10	22	25
35	4	26	27
36	4	26	60
37	5	27	28
38	4	27	29
39	7	29	30
40	4	29	56
41	7	30	31
42	4	31	32
43	4	31	51
44	5	32	33
45	4	32	34
46	5	34	35
47	4	34	36
48	6	36	37
49	4	36	49
50	4	37	38
51	4	37	47
52	5	38	39
53	4	38	40
54	5	40	41
55	4	40	42
56	1	42	43
57	4	42	45
58	2	43	44
59	11	43	89
60	5	45	46
61	4	45	47
62	5	47	48
63	5	49	50
64	4	49	51
65	8	51	52
66	12	52	53
67	12	52	54
68	12	52	55
69	5	56	57
70	4	56	58
71	5	58	59
72	4	58	60
73	8	60	61
74	9	61	62
75	9	61	66
76	9	61	70
77	10	62	63
78	10	62	64
79	10	62	65
80	10	66	67
81	10	66	68
82	10	66	69
83	10	70	71
84	10	70	72
85	5	73	74
86	4	73	75
87	5	75	76
88	8	77	78
89	4	77	82
90	12	78	79
91	12	78	80
92	12	78	81
93	5	82	83
94	5	84	85
95	4	84	86
96	5	86	87
97	13	89	90
98	6	89	91
99	4	91	92
100	4	91	147
101	5	92	93
102	4	92	94
103	5	94	95
104	4	94	96
105	7	96	97
106	4	96	145
107	7	97	98
108	4	98	99
109	4	98	143
110	5	99	100
111	4	99	101
112	5	101	102
113	4	101	103
114	8	103	104
115	4	103	141
116	8	104	105
117	9	104	133
118	9	104	137
119	4	105	106
120	4	105	131
121	5	106	107
122	4	106	108
123	5	108	109
124	4	108	110
125	7	110	111
126	4	110	129
127	7	111	112
128	4	112	113
129	4	112	127
130	5	113	114
131	4	113	115
132	5	115	116
133	4	115	117
134	6	117	118
135	4	117	122
136	13	118	119
137	14	118	120
138	15	120	121
139	6	122	123
140	4	122	127
141	13	123	124
142	14	123	125
143	15	125	126
144	5	127	128
145	5	129	130
146	4	129	131
147	5	131	132
148	10	133	134
149	10	133	135
150	10	133	136
151	10	137	138
152	10	137	139
153	10	137	140
154	5	141	142
155	4	141	143
156	5	143	144
157	5	145	146
158	4	145	147
159	6	147	148
160	13	148	149
161	6	148	239
162	1	150	151
163	2	150	238
164	4	151	152
165	4	151	236
166	5	152	153
167	4	152	154
168	5	154	155
169	4	154	156
170	6	156	157
171	4	156	234
172	4	157	158
173	4	157	232
174	5	158	159
175	4	158	160
176	5	160	161
177	4	160	162
178	7	162	163
179	4	162	227
180	7	163	164
181	4	164	165
182	4	164	225
183	5	165	166
184	4	165	167
185	5	167	168
186	4	167	169
187	8	169	170
188	4	169	223
189	9	170	171
190	8	170	175
191	9	170	220
192	10	171	172
193	10	171	173
194	10	171	174
195	4	175	176
196	4	175	210
197	5	176	177
198	4	176	178
199	7	178	179
200	4	178	206
201	7	179	180
202	4	180	181
203	4	180	201
204	5	181	182
205	4	181	183
206	5	183	184
207	4	183	185
208	6	185	186
209	4	185	199
210	4	186	187
211	4	186	197
212	5	187	188
213	4	187	189
214	5	189	190
215	4	189	191
216	1	191	192
217	4	191	195
218	2	192	193
219	2	192	194
220	5	195	196
221	4	195	197
222	5	197	198
223	5	199	200
224	4	199	201
225	8	201	202
226	12	202	203
227	12	202	204
228	12	202	205
229	5	206	207
230	4	206	208
231	5	208	209
232	4	208	210
233	8	210	211
234	9	211	212
235	9	211	216
236	9	211	220
237	10	212	213
238	10	212	214
239	10	212	215
240	10	216	217
241	10	216	218
242	10	216	219
243	10	220	221
244	10	220	222
245	5	223	224
246	4	223	225
247	5	225	226
248	8	227	228
249	4	227	232
250	12	228	229
251	12	228	230
252	12	228	231
253	5	232	233
254	5	234	235
255	4	234	236
256	5	236	237
257	13	239	240
258	6	239	241
259	4	241	242
260	4	241	297
261	5	242	243
262	4	242	244
263	5	244	245
264	4	244	246
265	7	246	247
266	4	246	295
267	7	247	248
268	4	248	249
269	4	248	293
270	5	249	250
271	4	249	251
272	5	251	252
273	4	251	253
274	8	253	254
275	4	253	291
276	8	254	255
277	9	254	283
278	9	254	287
279	4	255	256
280	4	255	281
281	5	256	257
282	4	256	258
283	5	258	259
284	4	258	260
285	7	260	261
286	4	260	279
287	7	261	262
288	4	262	263
289	4	262	277
290	5	263	264
291	4	263	265
292	5	265	266
293	4	265	267
294	6	267	268
295	4	267	272
296	13	268	269
297	14	268	270
298	15	270	271
299	6	272	273
300	4	272	277
301	13	273	274
302	14	273	275
303	15	275	276
304	5	277	278
305	5	279	280
306	4	279	281
307	5	281	282
308	10	283	284
309	10	283	285
310	10	283	286
311	10	287	288
312	10	287	289
313	10	287	290
314	5	291	292
315	4	291	293
316	5	293	294
317	5	295	296
318	4	295	297
319	6	297	298
320	13	298	299
321	14	298	300
322	15	300	301

Angles

1	4	100	99	101
2	4	165	167	168
3	1	37	38	40
4	1	206	208	210
5	5	96	97	98
6	4	249	251	252
7	6	253	254	283
8	6	169	170	175
9	1	36	49	51
10	1	148	239	240
11	1	246	295	297
12	4	116	115	117
13	4	16	18	19
14	3	193	192	194
15	6	103	104	133
16	1	49	51	52
17	6	79	78	81
18	4	130	129	131
19	6	170	171	173
20	4	12	11	13
21	1	272	273	274
22	1	189	191	195
23	6	210	211	212
24	1	179	178	206
25	1	99	98	143
26	6	211	212	215
27	1	7	84	86
28	1	151	236	234
29	4	264	263	265
30	4	253	291	292
31	1	104	105	131
32	4	106	108	109
33	4	186	187	188
34	6	255	254	287
35	6	21	22	24
36	4	98	143	144
37	1	165	164	225
38	1	89	91	92
39	1	123	122	127
40	1	30	31	32
41	6	60	61	66
42	1	180	181	183
43	1	249	248	293
44	4	19	18	20
45	6	21	70	61
46	4	122	127	128
47	1	267	268	270
48	1	254	255	281
49	1	156	157	232
50	1	36	37	38
51	6	104	137	139
52	9	124	123	125
53	1	32	34	36
54	8	71	70	72
55	4	112	113	114
56	1	192	191	195
57	8	134	133	135
58	4	107	106	108
59	1	247	248	293
60	8	138	137	140
61	5	246	247	248
62	4	56	58	59
63	6	254	283	285
64	1	91	147	148
65	4	92	94	95
66	1	178	206	208
67	5	260	261	262
68	4	9	11	12
69	9	274	273	275
70	1	185	186	187
71	1	27	26	60
72	1	113	115	117
73	1	179	180	201
74	4	161	160	162
75	1	26	60	61
76	1	189	191	192
77	4	93	92	94
78	4	184	183	185
79	4	74	73	75
80	4	37	38	39
81	4	206	208	209
82	1	34	36	37
83	6	53	52	55
84	4	3	5	6
85	1	31	32	34
86	1	156	234	236
87	1	164	225	223
88	4	246	295	296
89	1	156	157	158
90	1	228	227	232
91	1	1	2	3
92	1	113	112	127
93	1	3	2	86
94	1	14	13	77
95	4	207	206	208
96	1	30	29	56
97	1	43	42	45
98	6	62	61	70
99	4	272	277	278
100	1	38	40	42
101	6	170	171	172
102	6	211	216	219
103	6	211	212	214
104	4	7	84	85
105	1	181	183	185
106	6	254	287	290
107	8	23	22	25
108	1	157	158	160
109	6	201	202	205
110	1	43	89	91
111	1	16	15	75
112	6	21	22	23
113	6	175	170	220
114	1	169	223	225
115	3	1	150	238
116	6	61	62	64
117	6	253	254	255
118	4	252	251	253
119	4	180	181	182
120	2	2	1	150
121	4	41	40	42
122	1	112	127	122
123	6	20	21	22
124	6	103	104	105
125	1	191	195	197
126	1	261	262	277
127	1	186	197	195
128	6	104	137	138
129	1	160	162	163
130	5	123	125	126
131	8	138	137	139
132	6	254	283	284
133	1	170	175	210
134	4	73	75	76
135	6	105	104	133
136	4	178	206	207
137	4	99	101	102
138	1	157	232	227
139	1	242	244	246
140	1	30	31	51
141	1	185	186	197
142	6	22	21	26
143	4	113	115	116
144	4	8	82	83
145	4	151	236	237
146	1	260	279	281
147	3	44	43	89
148	6	170	220	222
149	4	10	9	11
150	6	170	220	211
151	1	2	3	5
152	6	61	66	68
153	1	7	8	9
154	6	255	254	283
155	1	187	189	191
156	6	171	170	175
157	1	262	263	265
158	4	31	32	33
159	4	156	234	235
160	4	103	141	142
161	1	147	148	149
162	1	242	241	297
163	6	51	52	54
164	6	80	78	81
165	1	160	162	227
166	1	185	199	201
167	1	158	160	162
168	5	110	111	112
169	1	180	201	199
170	4	209	208	210
171	1	241	242	244
172	4	263	265	266
173	8	139	137	140
174	6	60	61	62
175	1	175	176	178
176	8	172	171	173
177	1	167	169	170
178	1	247	248	249
179	7	170	175	176
180	1	15	16	18
181	6	211	216	218
182	1	97	96	145
183	1	151	152	154
184	1	106	105	131
185	1	94	96	145
186	4	181	183	184
187	1	7	8	82
188	1	261	262	263
189	1	297	298	299
190	1	117	118	120
191	8	213	212	215
192	6	254	287	289
193	8	23	22	24
194	4	157	158	159
195	1	18	20	21
196	6	227	228	229
197	4	95	94	96
198	7	21	26	27
199	6	201	202	204
200	6	105	104	137
201	4	292	291	293
202	1	157	156	234
203	1	163	162	227
204	1	115	117	122
205	1	164	165	167
206	4	164	225	226
207	4	169	223	224
208	6	61	62	63
209	1	27	29	56
210	4	157	232	233
211	4	142	141	143
212	6	22	21	70
213	6	229	228	231
214	9	269	268	270
215	1	244	246	295
216	1	111	110	129
217	4	168	167	169
218	1	36	37	47
219	4	191	195	196
220	4	245	244	246
221	6	77	78	79
222	1	265	267	272
223	1	175	210	208
224	1	167	169	223
225	1	163	164	165
226	6	26	21	70
227	1	251	253	254
228	4	6	5	7
229	1	2	86	84
230	6	104	133	135
231	1	40	42	43
232	8	67	66	69
233	1	108	110	129
234	1	101	103	141
235	4	96	145	146
236	1	267	272	277
237	1	122	123	125
238	1	105	106	108
239	6	62	61	66
240	4	255	281	282
241	3	191	192	193
242	6	170	220	221
243	4	186	197	198
244	8	221	220	222
245	1	181	180	201
246	1	37	47	45
247	6	61	70	72
248	1	117	122	127
249	6	61	66	67
250	1	256	255	281
251	1	158	157	232
252	6	66	61	70
253	4	235	234	236
254	4	262	263	264
255	1	152	154	156
256	1	104	105	106
257	1	78	77	82
258	1	258	260	279
259	8	284	283	286
260	1	183	185	186
261	6	51	52	53
262	1	268	267	272
263	4	36	49	50
264	4	158	160	161
265	1	14	15	75
266	4	241	242	243
267	1	1	2	86
268	1	255	256	258
269	1	91	92	94
270	1	295	297	298
271	4	8	9	10
272	6	79	78	80
273	1	162	227	232
274	1	248	249	251
275	4	15	75	76
276	6	211	220	222
277	1	29	56	58
278	4	266	265	267
279	6	216	211	220
280	1	42	45	47
281	1	254	255	256
282	1	165	167	169
283	2	42	43	89
284	1	117	118	119
285	6	203	202	205
286	1	105	131	129
287	4	227	232	233
288	4	85	84	86
289	1	183	185	199
290	4	35	34	36
291	3	2	1	88
292	1	186	185	199
293	4	164	165	166
294	1	170	169	223
295	1	180	201	202
296	1	94	96	97
297	1	16	18	20
298	6	104	133	134
299	4	188	187	189
300	6	204	202	205
301	6	229	228	230
302	6	212	211	220
303	1	5	7	8
304	5	298	300	301
305	1	251	253	291
306	1	5	7	84
307	1	267	268	269
308	6	170	171	174
309	1	272	273	275
310	1	255	281	279
311	1	8	7	84
312	4	77	82	83
313	1	104	103	141
314	4	32	34	35
315	1	149	148	239
316	1	110	129	131
317	1	106	108	110
318	1	186	187	189
319	7	208	210	211
320	1	244	246	247
321	6	21	22	25
322	9	299	298	300
323	6	283	254	287
324	8	214	212	215
325	6	133	104	137
326	1	32	31	51
327	8	67	66	68
328	1	11	13	14
329	1	150	151	152
330	1	254	253	291
331	1	98	99	101
332	1	15	75	73
333	6	169	170	220
334	1	256	258	260
335	6	104	137	140
336	6	61	70	71
337	1	26	27	29
338	1	112	113	115
339	1	187	186	197
340	1	175	210	211
341	1	13	77	82
342	1	101	103	104
343	8	64	62	65
344	1	37	36	49
345	6	53	52	54
346	4	2	86	87
347	1	56	58	60
348	4	243	242	244
349	1	115	117	118
350	8	288	287	290
351	1	118	117	122
352	4	177	176	178
353	4	255	256	257
354	4	91	92	93
355	1	9	11	13
356	4	257	256	258
357	4	17	16	18
358	4	296	295	297
359	1	38	37	47
360	1	150	151	236
361	4	112	127	128
362	4	153	152	154
363	4	248	249	250
364	4	38	40	41
365	4	29	56	57
366	1	9	8	82
367	4	280	279	281
368	9	119	118	120
369	6	211	212	213
370	4	37	47	48
371	4	42	45	46
372	8	135	133	136
373	6	203	202	204
374	1	20	73	75
375	1	265	267	268
376	1	34	36	49
377	5	268	270	271
378	4	102	101	103
379	1	3	5	7
380	1	43	89	90
381	6	230	228	231
382	4	59	58	60
383	4	234	236	237
384	1	152	151	236
385	4	166	165	167
386	1	97	98	99
387	3	88	1	150
388	4	291	293	294
389	4	33	32	34
390	3	151	150	238
391	1	267	272	273
392	4	84	86	87
393	5	162	163	164
394	1	154	156	157
395	1	239	241	297
396	1	31	51	49
397	8	63	62	65
398	4	39	38	40
399	8	289	287	290
400	1	247	246	295
401	1	117	122	123
402	4	182	181	183
403	4	105	131	132
404	4	110	129	130
405	6	227	228	231
406	4	259	258	260
407	5	13	14	15
408	6	253	254	287
409	4	155	154	156
410	1	241	297	295
411	1	21	20	73
412	1	248	293	291
413	6	61	62	65
414	1	111	112	127
415	1	163	164	225
416	6	21	70	72
417	4	242	244	245
418	1	8	9	11
419	6	20	21	70
420	1	162	227	228
421	4	98	99	100
422	4	260	279	280
423	6	210	211	216
424	4	256	258	259
425	6	77	78	81
426	4	2	3	4
427	4	50	49	51
428	4	224	223	225
429	8	285	283	286
430	4	26	27	28
431	4	45	47	48
432	1	97	98	143
433	1	179	180	181
434	1	273	272	277
435	1	21	26	60
436	4	187	189	190
437	4	200	199	201
438	4	195	197	198
439	8	217	216	219
440	1	40	42	45
441	6	103	104	137
442	8	288	287	289
443	4	129	131	132
444	4	185	199	200
445	1	99	101	103
446	4	46	45	47
447	6	60	61	70
448	4	250	249	251
449	4	175	176	177
450	5	178	179	180
451	6	212	211	216
452	1	108	110	111
453	4	15	16	17
454	4	57	56	58
455	6	210	211	220
456	1	89	91	147
457	6	211	216	217
458	4	151	152	153
459	8	173	171	174
460	6	61	66	69
461	5	29	30	31
462	1	154	156	234
463	8	213	212	214
464	6	254	287	288
465	4	20	73	74
466	1	249	251	253
467	4	109	108	110
468	6	201	202	203
469	1	11	13	77
470	1	147	148	239
471	1	103	141	143
472	8	24	22	25
473	1	98	143	141
474	6	51	52	55
475	4	196	195	197
476	1	148	239	241
477	1	258	260	261
478	1	263	265	267
479	5	118	120	121
480	4	159	158	160
481	8	68	66	69
482	1	145	147	148
483	1	111	112	113
484	8	172	171	174
485	1	261	260	279
486	1	8	82	77
487	8	63	62	64
488	8	218	216	219
489	7	58	60	61
490	1	262	277	272
491	1	297	298	300
492	1	253	291	293
493	4	146	145	147
494	3	42	43	44
495	4	141	143	144
496	1	13	77	78
497	6	227	228	230
498	1	263	262	277
499	1	27	29	30
500	1	91	147	145
501	2	1	150	151
502	1	199	201	202
503	1	176	178	206
504	6	21	70	71
505	6	171	170	220
506	1	122	123	124
507	4	105	106	107
508	1	31	51	52
509	1	176	175	210
510	1	26	60	58
511	4	28	27	29
512	4	114	113	115
513	6	77	78	80
514	1	176	178	179
515	1	18	20	73
516	4	4	3	5
517	1	90	89	91
518	1	92	91	147
519	8	134	133	136
520	4	152	154	155
521	6	254	283	286
522	1	241	297	298
523	8	217	216	218
524	4	248	293	294
525	8	284	283	285
526	6	104	133	136
527	4	279	281	282
528	6	169	170	171
529	1	239	241	242
530	1	92	94	96
531	4	190	189	191
532	4	223	225	226
533	1	14	15	16
534	6	54	52	55
535	1	96	145	147
536	6	20	21	26
537	6	211	220	221
538	3	191	192	194
539	4	262	277	278
540	1	240	239	241
541	5	273	275	276

Dihedrals

1	6	18	20	21	26
2	7	105	104	137	139
3	1	183	185	199	201
4	1	16	15	75	73
5	1	151	152	154	156
6	11	63	62	61	66
7	1	92	91	147	148
8	1	168	167	169	170
9	1	258	260	279	281
10	7	169	170	171	173
11	1	31	51	49	36
12	11	171	170	220	221
13	1	186	187	189	190
14	6	199	201	202	204
15	1	239	241	297	295
16	1	188	187	189	191
17	1	30	31	51	52
18	2	45	42	43	89
19	1	92	94	96	97
20	7	103	104	137	138
21	11	216	211	220	222
22	3	2	1	150	238
23	1	7	8	82	83
24	1	57	56	58	60
25	1	37	36	49	51
26	5	246	247	248	249
27	16	91	147	148	149
28	1	264	263	262	277
29	1	115	117	122	127
30	1	170	175	176	177
31	1	101	99	98	143
32	5	262	261	260	279
33	1	251	253	291	292