Title

47 atoms
48 bonds
77 angles
117 dihedrals
48 impropers

8 atom types
12 bond types
6 angle types
20 dihedral types
2 improper types
-5.767000198 94.2329998 xlo xhi
-1.483999968 98.51600003 ylo yhi
-7.690999985 92.30900002 zlo zhi
0.0 0.0 0.0 xy xz yz

Masses

1	15.99943
2	12.01078
3	1.007947
4	12.01078
5	15.99943
6	1.007947
7	15.99943
8	1.007947


Pair Coeffs

1	0.16846514	3.0251065
2	0.10884061	3.3795318
3	0.016409246	2.5832257
4	0.086879315	3.4806469
5	0.2102061	3.0398122
6	0.015611343	2.5725815
7	0.20947353	2.99716
8	1.2326e-05	0.53453923

Bond Coeffs

1 harmonic	366.7408841747	1.425895053732
2 harmonic	300.03137914615	1.451203938761
3 harmonic	264.62148576755	1.52190126495
4 harmonic	370.04670688625	1.093899492634
5 harmonic	301.15400723785	1.345741232799
6 harmonic	582.698766451	1.225198386222
7 harmonic	279.1350963404	1.454628925034
8 harmonic	360.7852444772	1.387193227181
9 harmonic	397.2545789619	1.085358495916
10 harmonic	329.96998057905	1.427343958716
11 harmonic	543.5267831885	0.9716763312559
12 harmonic	385.7604595587	1.369745182308


Angle Coeffs

1 harmonic	53.20531626545	116.5475862634
2 harmonic	65.09061609600001	110.3538806181
3 harmonic	201.41175231035	127.4691416191
4 harmonic	57.8982893754	126.8062420451
5 harmonic	48.776492647595	115.6030999533
6 harmonic	34.066775159195	129.1835929926


Dihedral Coeffs

1 fourier 1	-0.0309670556842	3	0
2 fourier 1	0.4598191477945	2	0
3 fourier 1	0.1115525666802	3	0
4 fourier 1	0.3432490222662	1	0
5 fourier 1	0.0473758381877	3	0
6 fourier 1	0.457973137376	1	0
7 fourier 1	0.1918272375143	3	0
8 fourier 1	0.9202179876409	1	180
9 fourier 1	1.163809172478	2	180
10 fourier 1	0.1679186987369	1	180
11 fourier 1	2.779853741805	2	180
12 fourier 1	0.9974165607242	2	180
13 fourier 1	0.1911926717192	3	0
14 fourier 1	3.661930099076	2	180
15 fourier 1	0.3445382149273	3	0
16 fourier 1	0.1364556373303	1	0
17 fourier 1	0.3026390167484	3	0
18 fourier 1	2.687457892086	2	180
19 fourier 1	2.772607909663	2	180
20 fourier 1	0.09692684957115	1	0


Improper Coeffs

1 3.5	-1	2
2 0.3666666666666667	-1	2


Atoms

1	1	1	-0.12676001	1.576	-0.336	0.85699999
2	1	2	0.054416001	0.63599998	-0.419	-0.17900001
3	1	2	0.15935101	-0.71899998	0.11	0.28999999
4	1	1	-0.49888399	-1.675	-0.035999998	-0.72399998
5	1	3	0.095817998	-1.051	-0.46900001	1.177
6	1	3	0.095817998	-0.63099998	1.1799999	0.58899999
7	1	3	0.10352	0.52999997	-1.484	-0.477
8	1	3	0.10352	0.98699999	0.154	-1.068
9	1	4	0.77536398	-1.49	0.71499997	-1.4170001
10	1	5	-0.54031903	-2.046	1.8329999	-1.258
11	1	4	-0.13941	-0.52200001	0.48500001	-2.51
12	1	4	-0.084389001	0.449	-0.42500001	-2.3080001
13	1	6	0.217518	0.479	-1.012	-1.397
14	1	4	-0.25358099	1.546	-0.58600003	-3.2809999
15	1	6	0.20900699	2.3299999	-1.309	-3.0929999
16	1	4	-0.247455	1.59	0.18099999	-4.3720002
17	1	6	0.20900699	2.404	0.074000001	-5.0780001
18	1	4	-0.047274001	0.51200002	1.151	-4.638
19	1	6	0.20511299	0.53799999	1.707	-5.5679998
20	1	4	-0.27887499	-0.52200001	1.2819999	-3.786
21	1	4	0.576015	-1.652	2.142	-4.1989999
22	1	5	-0.57487899	-2.8239999	1.921	-3.796
23	1	1	-0.121162	1.845	0.61799997	0.92000002
24	1	2	0.026420999	3.148	0.70099998	0.41100001
25	1	2	0.098453	4.1529999	0.17200001	1.434
26	1	7	-0.67392099	5.461	0.31799999	0.95200002
27	1	8	0.40197399	5.5970001	-0.40000001	0.27900001
28	1	3	0.102048	4.0549998	0.75199997	2.3759999
29	1	3	0.102048	3.941	-0.89700001	1.663
30	1	3	0.104226	3.3759999	1.766	0.192
31	1	3	0.104226	3.23	0.12800001	-0.54100001
32	1	4	0.576015	-1.489	2.938	-4.9099998
33	1	5	-0.57487899	-0.36000001	3.0239999	-5.4619999
34	1	4	-0.28053999	-2.5780001	3.8859999	-5.2420001
35	1	4	-0.047274001	-2.4860001	4.6389999	-6.3569999
36	1	6	0.20511299	-1.6059999	4.599	-6.9879999
37	1	4	-0.247455	-3.6099999	5.4899998	-6.7880001
38	1	6	0.20900699	-3.5220001	6.0799999	-7.691
39	1	4	-0.25358099	-4.7410002	5.5139999	-6.0799999
40	1	6	0.20900699	-5.5700002	6.131	-6.4029999
41	1	4	-0.086880997	-4.855	4.7210002	-4.8429999
42	1	6	0.217518	-5.7670002	4.8060002	-4.2639999
43	1	4	-0.115568	-3.8280001	3.9619999	-4.4109998
44	1	4	0.80887902	-3.9449999	3.279	-3.102
45	1	5	-0.51554799	-5.0679998	2.8710001	-2.698
46	1	7	-0.67083901	-2.8299999	3.1240001	-2.2850001
47	1	8	0.410074	-2.905	2.671	-1.382

Bonds

1	1	1	2
2	2	1	23
3	3	2	3
4	4	2	7
5	4	2	8
6	1	3	4
7	4	3	5
8	4	3	6
9	5	4	9
10	6	9	10
11	7	9	11
12	8	11	12
13	8	11	20
14	9	12	13
15	8	12	14
16	9	14	15
17	8	14	16
18	9	16	17
19	8	16	18
20	9	18	19
21	8	18	20
22	7	20	21
23	6	21	22
24	7	21	32
25	1	23	24
26	3	24	25
27	4	24	30
28	4	24	31
29	10	25	26
30	4	25	28
31	4	25	29
32	11	26	27
33	6	32	33
34	7	32	34
35	8	34	35
36	8	34	43
37	9	35	36
38	8	35	37
39	9	37	38
40	8	37	39
41	9	39	40
42	8	39	41
43	9	41	42
44	8	41	43
45	7	43	44
46	6	44	45
47	12	44	46
48	11	46	47

Angles

1	4	10	9	11
2	6	16	18	19
3	4	9	11	20
4	1	23	24	31
5	1	25	24	30
6	4	11	12	14
7	4	20	21	32
8	1	26	25	28
9	4	32	34	43
10	5	30	24	31
11	4	35	37	39
12	4	34	43	41
13	4	43	44	45
14	1	3	2	7
15	4	21	32	33
16	2	1	23	24
17	5	28	25	29
18	4	34	43	44
19	4	12	11	20
20	4	39	41	43
21	4	41	43	44
22	2	44	46	47
23	6	38	37	39
24	1	23	24	30
25	1	23	24	25
26	6	35	37	38
27	6	14	16	17
28	5	5	3	6
29	1	2	3	4
30	1	2	3	6
31	4	11	20	21
32	1	26	25	29
33	6	15	14	16
34	5	7	2	8
35	4	11	20	18
36	4	18	20	21
37	1	24	25	26
38	4	37	39	41
39	1	3	2	8
40	6	40	39	41
41	4	9	11	12
42	4	20	21	22
43	1	1	2	7
44	4	14	16	18
45	1	25	24	31
46	4	33	32	34
47	6	11	12	13
48	1	2	3	5
49	6	42	41	43
50	4	22	21	32
51	1	24	25	29
52	1	4	3	6
53	2	3	4	9
54	6	34	35	36
55	6	39	41	42
56	4	12	14	16
57	6	12	14	15
58	4	21	32	34
59	3	4	9	10
60	1	4	3	5
61	6	37	39	40
62	1	1	2	8
63	6	13	12	14
64	6	17	16	18
65	6	36	35	37
66	4	43	44	46
67	4	34	35	37
68	4	4	9	11
69	2	25	26	27
70	3	45	44	46
71	6	19	18	20
72	1	1	2	3
73	2	2	1	23
74	4	35	34	43
75	4	32	34	35
76	1	24	25	28
77	4	16	18	20

Dihedrals

1	14	34	43	41	42
2	3	23	24	25	29
2	4	23	24	25	29
3	12	4	9	11	20
4	12	18	20	21	22
5	14	40	39	41	43
6	14	37	39	41	43
7	14	13	12	11	20
8	14	11	20	18	19
9	5	5	3	4	9
10	14	15	14	16	17
11	14	32	34	35	37
12	13	6	3	2	8
13	14	38	37	39	40
14	12	10	9	11	20
15	14	12	11	20	21
16	15	24	25	26	27
16	16	24	25	26	27
17	3	4	3	2	7
17	4	4	3	2	7
18	17	27	26	25	28
19	18	43	44	46	47
20	5	8	2	1	23
21	1	23	24	25	26
21	2	23	24	25	26
22	13	5	3	2	8
23	14	40	39	41	42
24	12	20	21	32	33
25	12	22	21	32	33
26	14	12	11	20	18
27	3	26	25	24	30
27	4	26	25	24	30
28	14	13	12	14	16
29	14	17	16	18	20
30	14	17	16	18	19
31	14	14	16	18	20
32	14	14	16	18	19
33	13	29	25	24	30
34	14	12	14	16	17
35	14	36	35	34	43
36	12	10	9	11	12
37	5	1	23	24	31
38	1	1	2	3	4
38	2	1	2	3	4
39	14	35	37	39	40
40	6	2	1	23	24
41	12	34	43	44	46
42	3	1	2	3	6
42	4	1	2	3	6
43	14	32	34	43	41
44	9	3	4	9	10
44	10	3	4	9	10
45	13	28	25	24	31
46	14	9	11	12	14
47	11	3	4	9	11
48	12	11	20	21	32
49	14	37	39	41	42
50	14	35	34	43	44
51	14	32	34	43	44
52	14	12	14	16	18
53	3	4	3	2	8
53	4	4	3	2	8
54	12	4	9	11	12
55	17	27	26	25	29
56	14	19	18	20	21
57	14	38	37	39	41
58	12	33	32	34	43
59	13	6	3	2	7
60	14	15	14	16	18
61	14	37	35	34	43
62	14	9	11	20	21
63	14	13	12	14	15
64	14	11	12	14	16
65	3	1	2	3	5
65	4	1	2	3	5
66	13	5	3	2	7
67	14	42	41	43	44
68	5	7	2	1	23
69	14	9	11	20	18
70	12	21	32	34	35
71	14	36	35	37	38
72	14	35	34	43	41
73	12	34	43	44	45
74	12	33	32	34	35
75	12	41	43	44	46
76	3	26	25	24	31
76	4	26	25	24	31
77	3	23	24	25	28
77	4	23	24	25	28
78	14	36	35	37	39
79	14	11	20	18	16
80	14	14	12	11	20
81	5	3	2	1	23
82	5	6	3	4	9
83	12	21	32	34	43
84	14	35	37	39	41
85	13	29	25	24	31
86	14	39	41	43	44
87	12	20	21	32	34
88	7	2	3	4	9
88	8	2	3	4	9
89	12	22	21	32	34
90	12	11	20	21	22
91	14	16	18	20	21
92	14	34	35	37	38
93	5	1	23	24	30
94	14	34	43	41	39
95	5	1	23	24	25
96	14	32	34	35	36
97	14	11	12	14	15
98	14	9	11	12	13
99	13	28	25	24	30
100	14	34	35	37	39
101	12	18	20	21	32
102	19	45	44	46	47
102	20	45	44	46	47
103	12	41	43	44	45

Impropers

2	2	14	15	16	12
7	2	20	18	21	11
12	2	16	18	14	17
13	1	44	46	43	45
19	2	11	20	9	12
20	2	11	9	12	20
24	2	34	32	35	43
26	2	37	38	39	35
28	2	16	14	17	18
44	2	35	36	37	34
45	2	35	34	36	37
54	2	16	17	18	14
57	2	14	12	15	16
61	2	41	39	42	43
64	1	44	45	46	43
65	2	34	43	32	35
73	1	9	10	11	4
85	1	44	43	45	46
86	2	18	16	19	20
87	2	12	14	11	13
90	2	35	37	34	36
92	2	18	19	20	16
96	2	11	12	20	9
97	2	43	41	44	34
98	2	41	42	43	39
104	2	18	20	16	19
108	2	37	39	35	38
110	1	9	11	4	10
119	2	21	22	32	20
122	2	21	20	22	32
123	2	20	21	11	18
124	2	43	44	34	41
125	2	20	11	18	21
131	2	37	35	38	39
133	2	32	21	33	34
135	2	39	41	37	40
138	2	21	32	20	22
145	2	32	33	34	21
148	2	32	34	21	33
158	2	12	13	14	11
164	2	14	16	12	15
167	2	41	43	39	42
170	1	9	4	10	11
171	2	43	34	41	44
178	2	34	35	43	32
181	2	39	37	40	41
190	2	12	11	13	14
192	2	39	40	41	37
