Title

432 atoms
449 bonds
878 angles
1972 dihedrals
102 impropers

11 atom types
14 bond types
9 angle types
35 dihedral types
3 improper types
-36.18000031 63.81999969 xlo xhi
-17.5909996 82.4090004 ylo yhi
-56.40000153 43.59999847 zlo zhi
0.0 0.0 0.0 xy xz yz

Masses

1	15.99943
2	12.01078
3	14.00672
4	12.01078
5	1.007947
6	1.007947
7	1.007947
8	15.99943
9	12.01078
10	15.99943
11	1.007947


Pair Coeffs

1	0.2102061	3.0398122
2	0.086879315	3.4806469
3	0.16769152	3.206876
4	0.10884061	3.3795318
5	0.015779483	2.6445434
6	0.014090815	1.1034277
7	0.016409246	2.5832257
8	0.16846514	3.0251065
9	0.21	3.3996695
10	0.20947353	2.99716
11	1.2326e-05	0.53453923

Bond Coeffs

1 harmonic	582.698766451	1.225198386222
2 harmonic	492.76746816345	1.381897776683
3 harmonic	301.15400723785	1.345741232799
4 harmonic	352.0565580496	1.450098586273
5 harmonic	505.144496193	1.019481865027
6 harmonic	264.62148576755	1.52190126495
7 harmonic	370.04670688625	1.093899492634
8 harmonic	279.1350963404	1.454628925034
9 harmonic	366.7408841747	1.425895053732
10 harmonic	300.03137914615	1.451203938761
11 harmonic	366.34047229585	1.464762957261
12 harmonic	602.81384337	1.196112346392
13 harmonic	329.96998057905	1.427343958716
14 harmonic	543.5267831885	0.9716763312559


Angle Coeffs

1 harmonic	57.8982893754	126.8062420451
2 harmonic	201.41175231035	127.4691416191
3 harmonic	55.42182150775	117.3465570514
4 harmonic	63.44422595415	115.5071327674
5 harmonic	65.09061609600001	110.3538806181
6 harmonic	53.20531626545	116.5475862634
7 harmonic	48.776492647595	115.6030999533
8 harmonic	55.07882548015	112.8714009681
9 harmonic	33.56981613361	180


Dihedral Coeffs

1 fourier 1	1.809047390003	2	180
2 fourier 1	-0.04816277792592	1	0
3 fourier 1	0.4860993122944	2	180
4 fourier 1	0.8916986138746	1	0
5 fourier 1	1.163809172478	2	180
6 fourier 1	0.1679186987369	1	180
7 fourier 1	-0.1488678166443	4	180
8 fourier 1	-0.1230328948768	3	180
9 fourier 1	0.2939295466901	2	0
10 fourier 1	-0.3024127022865	1	0
11 fourier 1	0.182238503271	2	0
12 fourier 1	0.02972342374561	3	0
13 fourier 1	0.1918272375143	3	0
14 fourier 1	0.9202179876409	1	180
15 fourier 1	0.0473758381877	3	0
16 fourier 1	2.779853741805	2	180
17 fourier 1	0.1155372516788	3	0
18 fourier 1	0.09223874044423	3	0
19 fourier 1	0.3159935921949	2	180
20 fourier 1	0.3247796806857	1	180
21 fourier 1	0.1040663847541	3	0
22 fourier 1	3.101948770557	2	180
23 fourier 1	-0.4252153282372	1	0
24 fourier 1	0.1911926717192	3	0
25 fourier 1	0.9974165607242	2	180
26 fourier 1	2.348375642009	2	180
27 fourier 1	1.256156174911	1	0
28 fourier 1	0.1115525666802	3	0
29 fourier 1	0.3432490222662	1	0
30 fourier 1	0.457973137376	1	0
31 fourier 1	-1.382973039546	1	0
32 fourier 1	0	1	0
33 fourier 1	0.3445382149273	3	0
34 fourier 1	0.1364556373303	1	0
35 fourier 1	0.3026390167484	3	0


Improper Coeffs

1 3.5	-1	2
2 0.3333333333333333	-1	2
3 0.3666666666666667	-1	2


Atoms

1	1	1	-0.61610597	-3.5999999	-2.1110001	-1.266
2	1	2	0.80317199	-2.9630001	-1.347	-2.04
3	1	3	-0.51192898	-1.9299999	-0.48800001	-1.544
4	1	4	0.090428002	-1.4809999	-0.50800002	-0.148
5	1	4	-0.17703	-0.27200001	-1.4630001	0.0049999999
6	1	4	-0.178572	1.062	-0.71899998	-0.123
7	1	4	0.089633003	1.225	0.36500001	0.97299999
8	1	4	-0.178572	-0.133	0.94400001	1.449
9	1	4	-0.17703	-1.174	0.935	0.32499999
10	1	5	0.097093999	-0.787	1.552	-0.51599997
11	1	5	0.097093999	-2.1110001	1.414	0.68400002
12	1	5	0.097093999	-0.51899999	0.331	2.2939999
13	1	5	0.097093999	-0.0060000001	1.978	1.836
14	1	3	-0.56287098	2.098	1.437	0.47999999
15	1	2	0.555224	3.5109999	1.268	0.32800001
16	1	1	-0.689969	4.0700002	0.18099999	0.63599998
17	1	6	0.31026301	1.693	2.3659999	0.22400001
18	1	7	0.043908998	1.705	-0.098999999	1.863
19	1	5	0.097093999	1.11	-0.25400001	-1.133
20	1	5	0.097093999	1.897	-1.448	-0.050999999
21	1	5	0.097093999	-0.31099999	-1.951	1.0039999
22	1	5	0.097093999	-0.31999999	-2.2750001	-0.75400001
23	1	7	0.047077	-2.299	-0.898	0.498
24	1	6	0.31341401	-1.373	0.048	-2.2479999
25	1	8	-0.488341	1.9630001	-0.54699999	-7.8499999
26	1	4	0.093535997	1.982	-0.079999998	-6.5279999
27	1	4	-0.073155001	0.60399997	0.47999999	-6.1220002
28	1	4	-0.16544101	0.704	1.201	-4.7540002
29	1	4	-0.16544101	-0.65799999	1.265	-4.0570002
30	1	4	-0.073155001	-1.184	-0.153	-3.7149999
31	1	4	-0.16544101	-0.72399998	-1.223	-4.744
32	1	4	-0.16544101	-0.491	-0.62199998	-6.1360002
33	1	5	0.095541	-0.235	-1.437	-6.848
34	1	5	0.095541	-1.448	-0.18099999	-6.493
35	1	5	0.095541	-1.461	-2.0510001	-4.8210001
36	1	5	0.095541	0.228	-1.679	-4.395
37	1	4	0.093535997	-2.7179999	-0.126	-3.566
38	1	8	-0.488341	-3.1919999	-1.342	-3.052
39	1	7	0.096887	-3.1889999	0.048999999	-4.5570002
40	1	7	0.096887	-3.0239999	0.70999998	-2.8959999
41	1	5	0.086162999	-0.75599998	-0.43700001	-2.727
42	1	5	0.095541	-0.56699997	1.862	-3.1229999
43	1	5	0.095541	-1.37	1.798	-4.7259998
44	1	5	0.095541	1.09	2.2320001	-4.9060001
45	1	5	0.095541	1.418	0.67299998	-4.0819998
46	1	5	0.086162999	0.317	1.243	-6.881
47	1	7	0.096887	2.2579999	-0.921	-5.8569999
48	1	7	0.096887	2.7639999	0.70700002	-6.4190001
49	1	1	-0.61610597	0.972	1.956	-16.254999
50	1	2	0.80317199	0.61299998	0.89300001	-15.682
51	1	3	-0.51192898	1.168	0.51099998	-14.419
52	1	4	0.090428002	2.1029999	1.359	-13.672
53	1	4	-0.17703	1.326	2.24	-12.663
54	1	4	-0.17703	1.248	1.586	-11.279
55	1	4	0.090428002	2.6530001	1.3609999	-10.665
56	1	4	-0.17703	3.7490001	1.153	-11.743
57	1	4	-0.17703	3.1860001	0.479	-12.998
58	1	5	0.097093999	2.766	-0.509	-12.706
59	1	5	0.097093999	4.0100002	0.28999999	-13.719
60	1	5	0.097093999	4.1750002	2.1400001	-12.031
61	1	5	0.097093999	4.5900002	0.55000001	-11.337
62	1	3	-0.51192898	2.612	0.219	-9.7440004
63	1	2	0.80317199	1.979	0.28999999	-8.4619999
64	1	1	-0.61610597	1.443	1.358	-8.0629997
65	1	6	0.31341401	3.0550001	-0.68800002	-10.015
66	1	7	0.047077	2.9389999	2.2690001	-10.089
67	1	5	0.097093999	0.713	0.61500001	-11.378
68	1	5	0.097093999	0.64600003	2.2309999	-10.603
69	1	5	0.097093999	1.837	3.223	-12.561
70	1	5	0.097093999	0.30000001	2.4449999	-13.037
71	1	7	0.047077	2.628	2.0420001	-14.377
72	1	6	0.31341401	0.759	-0.32800001	-13.949
73	1	8	-0.488341	-4.8990002	-3.102	-12.171
74	1	4	0.093535997	-3.6210001	-2.698	-11.76
75	1	4	-0.073155001	-2.5840001	-2.9330001	-12.875
76	1	4	-0.16544101	-1.152	-2.704	-12.328
77	1	4	-0.16544101	-0.171	-2.3670001	-13.455
78	1	4	-0.073155001	-0.54400003	-1.03	-14.145
79	1	4	-0.16544101	-2.076	-0.76700002	-14.146
80	1	4	-0.16544101	-2.8859999	-2.0699999	-14.132
81	1	5	0.095541	-3.9679999	-1.829	-14.206
82	1	5	0.095541	-2.6289999	-2.652	-15.045
83	1	5	0.095541	-2.3789999	-0.156	-15.024
84	1	5	0.095541	-2.345	-0.177	-13.242
85	1	4	0.093535997	0.043000001	-0.98799998	-15.57
86	1	8	-0.488341	-0.098999999	0.289	-16.132999
87	1	7	0.096887	-0.48500001	-1.723	-16.215
88	1	7	0.096887	1.12	-1.272	-15.55
89	1	5	0.086162999	-0.067000002	-0.20999999	-13.563
90	1	5	0.095541	0.85799998	-2.2950001	-13.04
91	1	5	0.095541	-0.178	-3.204	-14.188
92	1	5	0.095541	-0.80599999	-3.6199999	-11.8
93	1	5	0.095541	-1.141	-1.87	-11.591
94	1	5	0.086162999	-2.6570001	-4.0009999	-13.181
95	1	7	0.096887	-3.655	-1.618	-11.5
96	1	7	0.096887	-3.329	-3.2550001	-10.84
97	1	1	-0.61610597	-9.7010002	-10.103	-14.587
98	1	2	0.80317199	-9.7449999	-8.9130001	-14.998
99	1	3	-0.51192898	-9.1490002	-7.849	-14.248
100	1	4	0.090428002	-8.375	-8.0760002	-13.023
101	1	4	-0.17703	-6.8699999	-8.2040005	-13.365
102	1	4	-0.17703	-6.1430001	-6.8600001	-13.244
103	1	4	0.090428002	-6.2129998	-6.2930002	-11.803
104	1	4	-0.17703	-7.4889998	-6.743	-11.045
105	1	4	-0.17703	-8.6680002	-6.9510002	-12
106	1	5	0.097093999	-8.8710003	-5.9879999	-12.52
107	1	5	0.097093999	-9.5780001	-7.21	-11.415
108	1	5	0.097093999	-7.2859998	-7.7030001	-10.519
109	1	5	0.097093999	-7.763	-6.0029998	-10.262
110	1	3	-0.51192898	-6.1279998	-4.829	-11.845
111	1	2	0.80317199	-4.908	-4.1389999	-12.139
112	1	1	-0.61610597	-3.842	-4.7729998	-12.358
113	1	6	0.31341401	-6.9770002	-4.2490001	-11.655
114	1	7	0.047077	-5.3429999	-6.6810002	-11.226
115	1	5	0.097093999	-6.6040001	-6.145	-13.961
116	1	5	0.097093999	-5.079	-6.9910002	-13.541
117	1	5	0.097093999	-6.3930001	-8.9289999	-12.668
118	1	5	0.097093999	-6.7379999	-8.6070004	-14.393
119	1	7	0.047077	-8.6940002	-9.0349998	-12.556
120	1	6	0.31341401	-9.1339998	-6.901	-14.688
121	1	8	-0.488341	-7.6269999	-3.707	-20.202
122	1	4	0.093535997	-7.4629998	-3.7690001	-18.809999
123	1	4	-0.073155001	-8.7659998	-4.2210002	-18.122
124	1	4	-0.16544101	-8.6409998	-4.0580001	-16.586
125	1	4	-0.16544101	-9.6160002	-4.98	-15.847
126	1	4	-0.073155001	-9.29	-6.4720001	-16.108999
127	1	4	-0.16544101	-8.6870003	-6.711	-17.521999
128	1	4	-0.16544101	-9.165	-5.665	-18.538
129	1	5	0.095541	-8.7639999	-5.9200001	-19.542999
130	1	5	0.095541	-10.273	-5.7290001	-18.613001
131	1	5	0.095541	-8.9329996	-7.7270002	-17.9
132	1	5	0.095541	-7.5780001	-6.6570001	-17.459
133	1	4	0.093535997	-10.543	-7.3379998	-15.871
134	1	8	-0.488341	-10.221	-8.7030001	-15.896
135	1	7	0.096887	-11.296	-7.1350002	-16.662001
136	1	7	0.096887	-11.007	-7.079	-14.891
137	1	5	0.086162999	-8.5220003	-6.7820001	-15.365
138	1	5	0.095541	-9.5609999	-4.776	-14.755
139	1	5	0.095541	-10.65	-4.7379999	-16.18
140	1	5	0.095541	-8.849	-3.0020001	-16.306999
141	1	5	0.095541	-7.6079998	-4.296	-16.247
142	1	5	0.086162999	-9.5790005	-3.5409999	-18.464001
143	1	7	0.096887	-6.6469998	-4.487	-18.579
144	1	7	0.096887	-7.151	-2.7709999	-18.424
145	1	1	-0.61610597	-11.985	0.435	-26.663
146	1	2	0.80317199	-11.623	-0.76800001	-26.576
147	1	3	-0.51192898	-10.625	-1.174	-25.632999
148	1	4	0.090428002	-10.036	-0.25400001	-24.653999
149	1	4	-0.17703	-10.82	-0.329	-23.320999
150	1	4	-0.17703	-10.191	-1.329	-22.344999
151	1	4	0.090428002	-8.7379999	-0.93699998	-21.972
152	1	4	-0.17703	-8.0240002	-0.146	-23.1
153	1	4	-0.17703	-8.5270004	-0.56300002	-24.486
154	1	5	0.097093999	-8.3299999	-1.65	-24.618
155	1	5	0.097093999	-7.9499998	-0.023	-25.267
156	1	5	0.097093999	-8.2159996	0.94199997	-22.966
157	1	5	0.097093999	-6.9229999	-0.28600001	-23.041
158	1	3	-0.51192898	-7.9759998	-2.141	-21.624001
159	1	2	0.80317199	-8.1800003	-2.852	-20.398001
160	1	1	-0.61610597	-9.0220003	-2.451	-19.551001
161	1	6	0.31341401	-7.2519999	-2.5109999	-22.282
162	1	7	0.047077	-8.7679996	-0.26899999	-21.082001
163	1	5	0.097093999	-10.207	-2.3369999	-22.816
164	1	5	0.097093999	-10.81	-1.381	-21.424
165	1	5	0.097093999	-10.829	0.67500001	-22.841
166	1	5	0.097093999	-11.88	-0.60799998	-23.507999
167	1	7	0.047077	-10.117	0.79000002	-25.032
168	1	6	0.31341401	-10.439	-2.198	-25.541
169	1	8	-0.488341	-13.362	-8.007	-24.774
170	1	4	0.093535997	-12.369	-7.1329999	-24.308001
171	1	4	-0.073155001	-11.703	-6.3829999	-25.478001
172	1	4	-0.16544101	-10.461	-5.6040001	-24.973
173	1	4	-0.16544101	-10.116	-4.441	-25.906
174	1	4	-0.073155001	-11.252	-3.3859999	-25.938
175	1	4	-0.16544101	-12.657	-4.0190001	-25.733999
176	1	4	-0.16544101	-12.714	-5.4699998	-26.226999
177	1	5	0.095541	-13.753	-5.8509998	-26.125
178	1	5	0.095541	-12.479	-5.4809999	-27.313999
179	1	5	0.095541	-13.444	-3.4260001	-26.247999
180	1	5	0.095541	-12.908	-4.006	-24.65
181	1	4	0.093535997	-11.178	-2.5680001	-27.242001
182	1	8	-0.488341	-12.058	-1.476	-27.198
183	1	7	0.096887	-11.452	-3.211	-28.106001
184	1	7	0.096887	-10.138	-2.2049999	-27.41
185	1	5	0.086162999	-11.078	-2.684	-25.091999
186	1	5	0.095541	-9.1730003	-3.96	-25.563999
187	1	5	0.095541	-9.9300003	-4.8499999	-26.924999
188	1	5	0.095541	-9.592	-6.2950001	-24.908001
189	1	5	0.095541	-10.641	-5.1960001	-23.954
190	1	5	0.086162999	-11.344	-7.1469998	-26.204
191	1	7	0.096887	-12.836	-6.4039998	-23.611
192	1	7	0.096887	-11.605	-7.704	-23.733
193	1	1	-0.61610597	-14.74	-15.237	-29.645
194	1	2	0.80317199	-15.455	-14.209	-29.507
195	1	3	-0.51192898	-15.25	-13.308	-28.413
196	1	4	0.090428002	-14.154	-13.462	-27.451
197	1	4	-0.17703	-12.931	-12.628	-27.905001
198	1	4	-0.17703	-12.924	-11.234	-27.268
199	1	4	0.090428002	-12.849	-11.306	-25.721001
200	1	4	-0.17703	-13.491	-12.598	-25.150999
201	1	4	-0.17703	-14.645	-13.089	-26.030001
202	1	5	0.097093999	-15.415	-12.287	-26.077
203	1	5	0.097093999	-15.12	-13.976	-25.558001
204	1	5	0.097093999	-12.721	-13.4	-25.098
205	1	5	0.097093999	-13.851	-12.432	-24.113001
206	1	3	-0.51192898	-13.481	-10.116	-25.139999
207	1	2	0.80317199	-12.87	-8.8219995	-25.187
208	1	1	-0.61610597	-11.74	-8.6590004	-25.718
209	1	6	0.31341401	-14.412	-10.195	-24.671
210	1	7	0.047077	-11.778	-11.32	-25.417999
211	1	5	0.097093999	-13.848	-10.699	-27.582001
212	1	5	0.097093999	-12.057	-10.657	-27.656
213	1	5	0.097093999	-11.995	-13.155	-27.614
214	1	5	0.097093999	-12.917	-12.531	-29.013
215	1	7	0.047077	-13.837	-14.529	-27.419001
216	1	6	0.31341401	-15.808	-12.425	-28.407
217	1	8	-0.488341	-17.597	-7.3330002	-32.116001
218	1	4	0.093535997	-17.042999	-7.7470002	-30.896
219	1	4	-0.073155001	-17.726	-9.0319996	-30.388
220	1	4	-0.16544101	-17.27	-9.342	-28.940001
221	1	4	-0.16544101	-17.441999	-10.826	-28.606001
222	1	4	-0.073155001	-16.538	-11.714	-29.499001
223	1	4	-0.16544101	-16.316	-11.106	-30.912001
224	1	4	-0.16544101	-17.493	-10.228	-31.354
225	1	5	0.095541	-17.318001	-9.8769999	-32.394001
226	1	5	0.095541	-18.41	-10.857	-31.382999
227	1	5	0.095541	-16.146999	-11.901	-31.67
228	1	5	0.095541	-15.396	-10.481	-30.9
229	1	4	0.093535997	-17.110001	-13.143	-29.576
230	1	8	-0.488341	-16.202	-14.012	-30.198999
231	1	7	0.096887	-18.056	-13.139	-30.158001
232	1	7	0.096887	-17.347	-13.518	-28.552999
233	1	5	0.086162999	-15.542	-11.778	-29.004999
234	1	5	0.095541	-17.188999	-10.996	-27.537001
235	1	5	0.095541	-18.514	-11.094	-28.742001
236	1	5	0.095541	-17.864	-8.7309999	-28.226
237	1	5	0.095541	-16.198999	-9.0719995	-28.798
238	1	5	0.086162999	-18.822001	-8.8389997	-30.358
239	1	7	0.096887	-15.957	-7.9320002	-31.042999
240	1	7	0.096887	-17.146	-6.934	-30.141001
241	1	1	-0.61610597	-25.000999	-4.4000001	-35.921001
242	1	2	0.80317199	-24.106001	-5.1599998	-36.376999
243	1	3	-0.51192898	-22.816	-5.237	-35.758999
244	1	4	0.090428002	-22.486	-4.527	-34.519001
245	1	4	-0.17703	-22.733999	-5.448	-33.299
246	1	4	-0.17703	-21.462	-6.1960001	-32.882999
247	1	4	0.090428002	-20.33	-5.223	-32.466999
248	1	4	-0.17703	-20.421	-3.855	-33.192001
249	1	4	-0.17703	-21.032	-3.997	-34.59
250	1	5	0.097093999	-20.389999	-4.6849999	-35.183998
251	1	5	0.097093999	-21.021999	-3.01	-35.101002
252	1	5	0.097093999	-21.058001	-3.164	-32.596001
253	1	5	0.097093999	-19.417999	-3.381	-33.264999
254	1	3	-0.51192898	-19.025999	-5.8499999	-32.712002
255	1	2	0.80317199	-18.518999	-6.9109998	-31.896
256	1	1	-0.61610597	-19.174999	-7.3390002	-30.909
257	1	6	0.31341401	-18.43	-5.5250001	-33.507
258	1	7	0.047077	-20.422001	-5.0149999	-31.377001
259	1	5	0.097093999	-21.131001	-6.829	-33.736
260	1	5	0.097093999	-21.698	-6.8759999	-32.035999
261	1	5	0.097093999	-23.082001	-4.835	-32.438999
262	1	5	0.097093999	-23.540001	-6.1799998	-33.522999
263	1	7	0.047077	-23.152	-3.642	-34.41
264	1	6	0.31341401	-22.152	-5.9559999	-36.123001
265	1	8	-0.488341	-21.635	-12.284	-37.727001
266	1	4	0.093535997	-21.087999	-11.22	-36.993999
267	1	4	-0.073155001	-21.212	-9.8950005	-37.771999
268	1	4	-0.16544101	-20.400999	-8.7819996	-37.060001
269	1	4	-0.16544101	-20.923	-7.3899999	-37.426998
270	1	4	-0.073155001	-22.379999	-7.1859999	-36.938
271	1	4	-0.16544101	-23.198	-8.507	-36.938
272	1	4	-0.16544101	-22.698	-9.4969997	-37.998001
273	1	5	0.095541	-23.358	-10.391	-38.005001
274	1	5	0.095541	-22.799	-9.0209999	-38.998001
275	1	5	0.095541	-24.280001	-8.3109999	-37.102001
276	1	5	0.095541	-23.112	-8.9899998	-35.938999
277	1	4	0.093535997	-23.069	-6.0879998	-37.771
278	1	8	-0.488341	-24.308001	-5.7399998	-37.213001
279	1	7	0.096887	-23.235001	-6.4510002	-38.807999
280	1	7	0.096887	-22.417999	-5.1859999	-37.832001
281	1	5	0.086162999	-22.33	-6.8260002	-35.884998
282	1	5	0.095541	-20.267	-6.6170001	-36.971001
283	1	5	0.095541	-20.858999	-7.2709999	-38.533001
284	1	5	0.095541	-19.33	-8.8620005	-37.347
285	1	5	0.095541	-20.459999	-8.8979998	-35.953999
286	1	5	0.086162999	-20.754	-10.051	-38.773998
287	1	7	0.096887	-21.629	-11.14	-36.027
288	1	7	0.096887	-20.018999	-11.432	-36.764999
289	1	1	-0.61610597	-20.729	-17.018999	-45.119999
290	1	2	0.80317199	-21.774	-16.660999	-44.514
291	1	3	-0.51192898	-21.723	-16.212999	-43.154999
292	1	4	0.090428002	-20.465	-16.048	-42.418999
293	1	4	-0.17703	-19.964001	-14.588	-42.548
294	1	4	-0.17703	-20.440001	-13.718	-41.379002
295	1	4	0.090428002	-19.910999	-14.239	-40.018002
296	1	4	-0.17703	-19.677999	-15.772	-40.014999
297	1	4	-0.17703	-20.656	-16.493	-40.946999
298	1	5	0.097093999	-21.691999	-16.278999	-40.602001
299	1	5	0.097093999	-20.502001	-17.591	-40.869999
300	1	5	0.097093999	-18.639999	-15.988	-40.355
301	1	5	0.097093999	-19.768	-16.181	-38.985001
302	1	3	-0.51192898	-20.84	-13.856	-38.949001
303	1	2	0.80317199	-20.954	-12.509	-38.477001
304	1	1	-0.61610597	-20.235001	-11.592	-38.955002
305	1	6	0.31341401	-21.450001	-14.578	-38.501999
306	1	7	0.047077	-18.924999	-13.764	-39.814999
307	1	5	0.097093999	-21.552999	-13.706	-41.379002
308	1	5	0.097093999	-20.094999	-12.673	-41.535999
309	1	5	0.097093999	-18.851999	-14.58	-42.566002
310	1	5	0.097093999	-20.308001	-14.143	-43.507
311	1	7	0.047077	-19.687	-16.708	-42.862999
312	1	6	0.31341401	-22.606001	-15.837	-42.740002
313	1	8	-0.488341	-27.542999	-11.671	-43.811001
314	1	4	0.093535997	-26.542999	-12.087	-42.919998
315	1	4	-0.073155001	-26.365	-13.618	-42.966999
316	1	4	-0.16544101	-25.433001	-14.081	-41.819
317	1	4	-0.16544101	-24.783001	-15.43	-42.139
318	1	4	-0.073155001	-23.856001	-15.329	-43.377998
319	1	4	-0.16544101	-24.351999	-14.277	-44.409
320	1	4	-0.16544101	-25.875	-14.096	-44.362999
321	1	5	0.095541	-26.184999	-13.39	-45.162998
322	1	5	0.095541	-26.351999	-15.073	-44.601002
323	1	5	0.095541	-24.047001	-14.55	-45.442001
324	1	5	0.095541	-23.875999	-13.297	-44.187
325	1	4	0.093535997	-23.68	-16.719	-44.021999
326	1	8	-0.488341	-22.684999	-16.691	-45.009998
327	1	7	0.096887	-24.636	-17.041	-44.487999
328	1	7	0.096887	-23.416	-17.472	-43.243999
329	1	5	0.086162999	-22.856001	-14.997	-43.02
330	1	5	0.095541	-24.191999	-15.773	-41.262001
331	1	5	0.095541	-25.59	-16.177	-42.311001
332	1	5	0.095541	-26.02	-14.169	-40.877998
333	1	5	0.095541	-24.625999	-13.335	-41.641998
334	1	5	0.086162999	-27.365	-14.076	-42.791
335	1	7	0.096887	-25.589001	-11.589	-43.196999
336	1	7	0.096887	-26.802999	-11.763	-41.886002
337	1	1	-0.61610597	-36.18	-12.202	-45.548
338	1	2	0.80317199	-35.200001	-12.15	-46.338001
339	1	3	-0.51192898	-33.912998	-11.709	-45.890999
340	1	4	0.090428002	-33.625999	-11.386	-44.488998
341	1	4	-0.17703	-33.057999	-12.631	-43.764999
342	1	4	-0.17703	-31.525	-12.651	-43.785
343	1	4	0.090428002	-30.922001	-11.419	-43.063999
344	1	4	-0.17703	-31.848	-10.176	-43.130001
345	1	4	-0.17703	-32.681	-10.161	-44.415001
346	1	5	0.097093999	-31.985001	-10.147	-45.283001
347	1	5	0.097093999	-33.282001	-9.2270002	-44.457001
348	1	5	0.097093999	-32.540001	-10.185	-42.258999
349	1	5	0.097093999	-31.254	-9.2390003	-43.055
350	1	3	-0.51192898	-29.604	-11.111	-43.632
351	1	2	0.80317199	-28.451	-11.921	-43.376999
352	1	1	-0.61610597	-28.521999	-12.931	-42.627998
353	1	6	0.31341401	-29.482	-10.275	-44.247002
354	1	7	0.047077	-30.792999	-11.665	-41.986
355	1	5	0.097093999	-31.187	-12.679	-44.845001
356	1	5	0.097093999	-31.164	-13.581	-43.294998
357	1	5	0.097093999	-33.397999	-12.631	-42.706001
358	1	5	0.097093999	-33.448002	-13.563	-44.230999
359	1	7	0.047077	-34.570999	-11.103	-43.973999
360	1	6	0.31341401	-33.118999	-11.781	-46.566002
361	1	8	-0.14579999	-30.143999	-15.856	-50.740002
362	1	4	0.017573999	-29.986	-14.978	-49.659
363	1	4	-0.072352	-30.931999	-13.768	-49.789001
364	1	4	-0.16417	-30.582001	-12.7	-48.721001
365	1	4	-0.164599	-31.778999	-11.791	-48.429001
366	1	4	-0.073155001	-32.956001	-12.588	-47.812
367	1	4	-0.164599	-33.015999	-14.054	-48.325001
368	1	4	-0.16417	-32.424999	-14.198	-49.733002
369	1	5	0.096165001	-32.556	-15.245	-50.081001
370	1	5	0.096165001	-33.014	-13.559	-50.428001
371	1	5	0.095541	-34.057999	-14.44	-48.323002
372	1	5	0.095541	-32.437	-14.706	-47.633999
373	1	4	0.093535997	-34.284	-11.845	-48.054001
374	1	8	-0.488341	-35.327999	-12.435	-47.327
375	1	7	0.096887	-34.541	-11.876	-49.134998
376	1	7	0.096887	-34.182999	-10.773	-47.764
377	1	5	0.086162999	-32.791	-12.628	-46.710999
378	1	5	0.095541	-31.468	-10.986	-47.727001
379	1	5	0.095541	-32.089001	-11.303	-49.380001
380	1	5	0.096165001	-29.729	-12.084	-49.080002
381	1	5	0.096165001	-30.267	-13.184	-47.769001
382	1	5	0.089152999	-30.754999	-13.311	-50.787998
383	1	7	0.096932001	-30.205	-15.527	-48.717999
384	1	7	0.096932001	-28.927	-14.633	-49.606998
385	1	1	-0.689969	3.756	3.27	0.176
386	1	2	0.555224	4.1110001	2.0829999	-0.052999999
387	1	3	-0.56287098	5.2880001	1.8	-0.81699997
388	1	4	0.090016998	6.1570001	2.858	-1.351
389	1	4	-0.177267	7.0760002	2.313	-2.477
390	1	4	-0.138888	8.4919996	1.928	-2
391	1	4	0.209718	8.4899998	1.41	-0.55599999
392	1	4	-0.138888	7.961	2.487	0.42699999
393	1	4	-0.177267	6.987	3.4920001	-0.22
394	1	5	0.095371	6.3200002	3.9170001	0.56
395	1	5	0.095371	7.5679998	4.3410001	-0.64300001
396	1	5	0.092975996	8.8109999	3.062	0.85799998
397	1	5	0.092975996	7.4499998	1.976	1.271
398	1	3	-0.65153301	9.8439999	0.99699998	-0.191
399	1	9	0.60660499	10.09	0.38100001	0.89600003
400	1	1	-0.49179	10.328	-0.21799999	1.952
401	1	7	0.037478998	7.8249998	0.51800001	-0.51599997
402	1	5	0.092975996	9.158	2.8180001	-2.066
403	1	5	0.092975996	8.9060001	1.151	-2.6789999
404	1	5	0.095371	7.1810002	3.0910001	-3.2650001
405	1	5	0.095371	6.599	1.437	-2.97
406	1	7	0.043908998	5.5110002	3.6470001	-1.8
407	1	6	0.31026301	5.4920001	0.79699999	-1.024
408	1	8	-0.14579999	-29.697001	-15.433	-51.519001
409	1	4	0.017573999	-30.496	-15.706	-52.639
410	1	4	-0.072352	-31.761999	-14.826	-52.640999
411	1	4	-0.16338401	-32.740002	-15.301	-53.745998
412	1	4	-0.156324	-33.693001	-14.179	-54.166
413	1	4	-0.113776	-32.924	-12.995	-54.806999
414	1	4	-0.156324	-31.497999	-12.82	-54.213001
415	1	4	-0.16338401	-31.410999	-13.316	-52.764
416	1	5	0.096165001	-30.396	-13.104	-52.363998
417	1	5	0.096165001	-32.124001	-12.725	-52.147999
418	1	5	0.096165001	-31.171	-11.758	-54.257
419	1	5	0.096165001	-30.773001	-13.399	-54.826
420	1	4	0.079699002	-33.752998	-11.701	-54.693001
421	1	10	-0.67252201	-33.175999	-10.669	-55.448002
422	1	11	0.37971699	-33.381001	-10.864	-56.400002
423	1	7	0.085639998	-33.803001	-11.379	-53.631001
424	1	7	0.085639998	-34.796001	-11.882	-55.040001
425	1	5	0.092759997	-32.806	-13.223	-55.890999
426	1	5	0.096165001	-34.433998	-14.577	-54.894001
427	1	5	0.096165001	-34.256001	-13.841	-53.266998
428	1	5	0.096165001	-33.330002	-16.165001	-53.370998
429	1	5	0.096165001	-32.181	-15.642	-54.646
430	1	5	0.089152999	-32.271	-14.969	-51.660999
431	1	7	0.096932001	-29.900999	-15.511	-53.556999
432	1	7	0.096932001	-30.778999	-16.784	-52.645

Bonds

1	1	1	2
2	2	2	3
3	3	2	38
4	4	3	4
5	5	3	24
6	6	4	5
7	7	4	23
8	6	4	9
9	6	5	6
10	7	5	21
11	7	5	22
12	6	6	7
13	7	6	19
14	7	6	20
15	6	7	8
16	4	7	14
17	7	7	18
18	6	8	9
19	7	8	12
20	7	8	13
21	7	9	10
22	7	9	11
23	2	14	15
24	5	14	17
25	1	15	16
26	8	15	386
27	9	25	26
28	3	25	63
29	6	26	27
30	7	26	47
31	7	26	48
32	6	27	28
33	7	27	46
34	6	27	32
35	6	28	29
36	7	28	44
37	7	28	45
38	6	29	30
39	7	29	42
40	7	29	43
41	6	30	31
42	6	30	37
43	7	30	41
44	6	31	32
45	7	31	35
46	7	31	36
47	7	32	33
48	7	32	34
49	9	37	38
50	7	37	39
51	7	37	40
52	1	49	50
53	2	50	51
54	3	50	86
55	4	51	52
56	5	51	72
57	6	52	53
58	7	52	71
59	6	52	57
60	6	53	54
61	7	53	69
62	7	53	70
63	6	54	55
64	7	54	67
65	7	54	68
66	6	55	56
67	4	55	62
68	7	55	66
69	6	56	57
70	7	56	60
71	7	56	61
72	7	57	58
73	7	57	59
74	2	62	63
75	5	62	65
76	1	63	64
77	9	73	74
78	3	73	111
79	6	74	75
80	7	74	95
81	7	74	96
82	6	75	76
83	7	75	94
84	6	75	80
85	6	76	77
86	7	76	92
87	7	76	93
88	6	77	78
89	7	77	90
90	7	77	91
91	6	78	79
92	6	78	85
93	7	78	89
94	6	79	80
95	7	79	83
96	7	79	84
97	7	80	81
98	7	80	82
99	9	85	86
100	7	85	87
101	7	85	88
102	1	97	98
103	2	98	99
104	3	98	134
105	4	99	100
106	5	99	120
107	6	100	101
108	7	100	119
109	6	100	105
110	6	101	102
111	7	101	117
112	7	101	118
113	6	102	103
114	7	102	115
115	7	102	116
116	6	103	104
117	4	103	110
118	7	103	114
119	6	104	105
120	7	104	108
121	7	104	109
122	7	105	106
123	7	105	107
124	2	110	111
125	5	110	113
126	1	111	112
127	9	121	122
128	3	121	159
129	6	122	123
130	7	122	143
131	7	122	144
132	6	123	124
133	7	123	142
134	6	123	128
135	6	124	125
136	7	124	140
137	7	124	141
138	6	125	126
139	7	125	138
140	7	125	139
141	6	126	127
142	6	126	133
143	7	126	137
144	6	127	128
145	7	127	131
146	7	127	132
147	7	128	129
148	7	128	130
149	9	133	134
150	7	133	135
151	7	133	136
152	1	145	146
153	2	146	147
154	3	146	182
155	4	147	148
156	5	147	168
157	6	148	149
158	7	148	167
159	6	148	153
160	6	149	150
161	7	149	165
162	7	149	166
163	6	150	151
164	7	150	163
165	7	150	164
166	6	151	152
167	4	151	158
168	7	151	162
169	6	152	153
170	7	152	156
171	7	152	157
172	7	153	154
173	7	153	155
174	2	158	159
175	5	158	161
176	1	159	160
177	9	169	170
178	3	169	207
179	6	170	171
180	7	170	191
181	7	170	192
182	6	171	172
183	7	171	190
184	6	171	176
185	6	172	173
186	7	172	188
187	7	172	189
188	6	173	174
189	7	173	186
190	7	173	187
191	6	174	175
192	6	174	181
193	7	174	185
194	6	175	176
195	7	175	179
196	7	175	180
197	7	176	177
198	7	176	178
199	9	181	182
200	7	181	183
201	7	181	184
202	1	193	194
203	2	194	195
204	3	194	230
205	4	195	196
206	5	195	216
207	6	196	197
208	7	196	215
209	6	196	201
210	6	197	198
211	7	197	213
212	7	197	214
213	6	198	199
214	7	198	211
215	7	198	212
216	6	199	200
217	4	199	206
218	7	199	210
219	6	200	201
220	7	200	204
221	7	200	205
222	7	201	202
223	7	201	203
224	2	206	207
225	5	206	209
226	1	207	208
227	9	217	218
228	3	217	255
229	6	218	219
230	7	218	239
231	7	218	240
232	6	219	220
233	7	219	238
234	6	219	224
235	6	220	221
236	7	220	236
237	7	220	237
238	6	221	222
239	7	221	234
240	7	221	235
241	6	222	223
242	6	222	229
243	7	222	233
244	6	223	224
245	7	223	227
246	7	223	228
247	7	224	225
248	7	224	226
249	9	229	230
250	7	229	231
251	7	229	232
252	1	241	242
253	2	242	243
254	3	242	278
255	4	243	244
256	5	243	264
257	6	244	245
258	7	244	263
259	6	244	249
260	6	245	246
261	7	245	261
262	7	245	262
263	6	246	247
264	7	246	259
265	7	246	260
266	6	247	248
267	4	247	254
268	7	247	258
269	6	248	249
270	7	248	252
271	7	248	253
272	7	249	250
273	7	249	251
274	2	254	255
275	5	254	257
276	1	255	256
277	9	265	266
278	3	265	303
279	6	266	267
280	7	266	287
281	7	266	288
282	6	267	268
283	7	267	286
284	6	267	272
285	6	268	269
286	7	268	284
287	7	268	285
288	6	269	270
289	7	269	282
290	7	269	283
291	6	270	271
292	6	270	277
293	7	270	281
294	6	271	272
295	7	271	275
296	7	271	276
297	7	272	273
298	7	272	274
299	9	277	278
300	7	277	279
301	7	277	280
302	1	289	290
303	2	290	291
304	3	290	326
305	4	291	292
306	5	291	312
307	6	292	293
308	7	292	311
309	6	292	297
310	6	293	294
311	7	293	309
312	7	293	310
313	6	294	295
314	7	294	307
315	7	294	308
316	6	295	296
317	4	295	302
318	7	295	306
319	6	296	297
320	7	296	300
321	7	296	301
322	7	297	298
323	7	297	299
324	2	302	303
325	5	302	305
326	1	303	304
327	9	313	314
328	3	313	351
329	6	314	315
330	7	314	335
331	7	314	336
332	6	315	316
333	7	315	334
334	6	315	320
335	6	316	317
336	7	316	332
337	7	316	333
338	6	317	318
339	7	317	330
340	7	317	331
341	6	318	319
342	6	318	325
343	7	318	329
344	6	319	320
345	7	319	323
346	7	319	324
347	7	320	321
348	7	320	322
349	9	325	326
350	7	325	327
351	7	325	328
352	1	337	338
353	2	338	339
354	3	338	374
355	4	339	340
356	5	339	360
357	6	340	341
358	7	340	359
359	6	340	345
360	6	341	342
361	7	341	357
362	7	341	358
363	6	342	343
364	7	342	355
365	7	342	356
366	6	343	344
367	4	343	350
368	7	343	354
369	6	344	345
370	7	344	348
371	7	344	349
372	7	345	346
373	7	345	347
374	2	350	351
375	5	350	353
376	1	351	352
377	9	361	362
378	10	361	408
379	6	362	363
380	7	362	383
381	7	362	384
382	6	363	364
383	7	363	382
384	6	363	368
385	6	364	365
386	7	364	380
387	7	364	381
388	6	365	366
389	7	365	378
390	7	365	379
391	6	366	367
392	6	366	373
393	7	366	377
394	6	367	368
395	7	367	371
396	7	367	372
397	7	368	369
398	7	368	370
399	9	373	374
400	7	373	375
401	7	373	376
402	1	385	386
403	2	386	387
404	4	387	388
405	5	387	407
406	6	388	389
407	7	388	406
408	6	388	393
409	6	389	390
410	7	389	404
411	7	389	405
412	6	390	391
413	7	390	402
414	7	390	403
415	6	391	392
416	11	391	398
417	7	391	401
418	6	392	393
419	7	392	396
420	7	392	397
421	7	393	394
422	7	393	395
423	12	398	399
424	1	399	400
425	9	408	409
426	6	409	410
427	7	409	431
428	7	409	432
429	6	410	411
430	7	410	430
431	6	410	415
432	6	411	412
433	7	411	428
434	7	411	429
435	6	412	413
436	7	412	426
437	7	412	427
438	6	413	414
439	6	413	420
440	7	413	425
441	6	414	415
442	7	414	418
443	7	414	419
444	7	415	416
445	7	415	417
446	13	420	421
447	7	420	423
448	7	420	424
449	14	421	422

Angles

1	1	25	63	62
2	6	133	126	137
3	6	367	366	373
4	7	225	224	226
5	6	4	9	8
6	6	230	229	232
7	6	268	269	283
8	6	51	52	53
9	6	121	122	123
10	6	199	198	211
11	7	279	277	280
12	6	148	149	165
13	6	245	244	263
14	6	57	52	71
15	6	294	293	309
16	6	340	345	347
17	6	101	102	103
18	2	313	351	352
19	6	8	9	10
20	1	350	351	352
21	6	315	320	319
22	6	272	271	276
23	6	55	56	61
24	6	248	247	258
25	6	171	170	191
26	6	390	391	398
27	6	412	413	420
28	6	315	314	336
29	7	275	271	276
30	6	200	201	202
31	6	149	150	163
32	6	123	128	130
33	6	195	196	215
34	6	291	292	293
35	6	413	414	419
36	6	78	79	84
37	6	134	133	136
38	7	165	149	166
39	6	200	199	206
40	6	217	218	239
41	6	270	269	283
42	6	341	340	345
43	6	26	27	46
44	6	53	52	57
45	6	345	344	348
46	6	217	218	219
47	3	247	254	255
48	6	104	103	110
49	6	218	219	238
50	7	298	297	299
51	6	244	245	262
52	7	188	172	189
53	6	314	315	320
54	6	54	55	56
55	6	153	148	167
56	6	27	26	48
57	4	295	302	305
58	6	247	248	252
59	4	244	243	264
60	6	124	125	138
61	6	148	153	152
62	6	101	102	116
63	6	27	28	44
64	7	383	362	384
65	6	325	318	329
66	6	318	325	328
67	1	265	303	302
68	6	105	104	108
69	6	52	57	56
70	6	265	266	288
71	6	28	27	46
72	6	31	30	37
73	5	26	25	63
74	6	340	345	344
75	6	229	222	233
76	6	26	27	32
77	2	289	290	326