Title

96 atoms
99 bonds
192 angles
418 dihedrals
18 impropers

11 atom types
14 bond types
9 angle types
35 dihedral types
3 improper types
-9.276000023 90.72399998 xlo xhi
-1.853999972 98.14600003 ylo yhi
-10.64799976 89.35200024 zlo zhi
0.0 0.0 0.0 xy xz yz

Masses

1	12.01078
2	15.99943
3	14.00672
4	12.01078
5	1.007947
6	1.007947
7	1.007947
8	15.99943
9	12.01078
10	15.99943
11	1.007947


Pair Coeffs

1	0.086879315	3.4806469
2	0.2102061	3.0398122
3	0.16769152	3.206876
4	0.10884061	3.3795318
5	0.016409246	2.5832257
6	0.015779483	2.6445434
7	0.014090815	1.1034277
8	0.16846514	3.0251065
9	0.21	3.3996695
10	0.20947353	2.99716
11	1.2326e-05	0.53453923

Bond Coeffs

1 harmonic	582.698766451	1.225198386222
2 harmonic	492.76746816345	1.381897776683
3 harmonic	279.1350963404	1.454628925034
4 harmonic	352.0565580496	1.450098586273
5 harmonic	505.144496193	1.019481865027
6 harmonic	370.04670688625	1.093899492634
7 harmonic	264.62148576755	1.52190126495
8 harmonic	301.15400723785	1.345741232799
9 harmonic	366.7408841747	1.425895053732
10 harmonic	300.03137914615	1.451203938761
11 harmonic	366.34047229585	1.464762957261
12 harmonic	602.81384337	1.196112346392
13 harmonic	329.96998057905	1.427343958716
14 harmonic	543.5267831885	0.9716763312559


Angle Coeffs

1 harmonic	55.42182150775	117.3465570514
2 harmonic	63.44422595415	115.5071327674
3 harmonic	57.8982893754	126.8062420451
4 harmonic	53.20531626545	116.5475862634
5 harmonic	48.776492647595	115.6030999533
6 harmonic	65.09061609600001	110.3538806181
7 harmonic	201.41175231035	127.4691416191
8 harmonic	55.07882548015	112.8714009681
9 harmonic	33.56981613361	180


Dihedral Coeffs

1 fourier 1	0.182238503271	2	0
2 fourier 1	0.02972342374561	3	0
3 fourier 1	-0.1488678166443	4	180
4 fourier 1	-0.1230328948768	3	180
5 fourier 1	0.2939295466901	2	0
6 fourier 1	-0.3024127022865	1	0
7 fourier 1	1.809047390003	2	180
8 fourier 1	-0.04816277792592	1	0
9 fourier 1	3.101948770557	2	180
10 fourier 1	-0.4252153282372	1	0
11 fourier 1	2.348375642009	2	180
12 fourier 1	1.256156174911	1	0
13 fourier 1	0.9974165607242	2	180
14 fourier 1	0.1155372516788	3	0
15 fourier 1	0.1040663847541	3	0
16 fourier 1	0.09223874044423	3	0
17 fourier 1	0.3159935921949	2	180
18 fourier 1	0.3247796806857	1	180
19 fourier 1	0.1911926717192	3	0
20 fourier 1	2.779853741805	2	180
21 fourier 1	0.1918272375143	3	0
22 fourier 1	0.9202179876409	1	180
23 fourier 1	0.0473758381877	3	0
24 fourier 1	0.4860993122944	2	180
25 fourier 1	0.8916986138746	1	0
26 fourier 1	1.163809172478	2	180
27 fourier 1	0.1679186987369	1	180
28 fourier 1	0.1115525666802	3	0
29 fourier 1	0.3432490222662	1	0
30 fourier 1	0.457973137376	1	0
31 fourier 1	-1.382973039546	1	0
32 fourier 1	0	1	0
33 fourier 1	0.3445382149273	3	0
34 fourier 1	0.1364556373303	1	0
35 fourier 1	0.3026390167484	3	0


Improper Coeffs

1 0.3333333333333333	-1	2
2 0.3666666666666667	-1	2
3 3.5	-1	2


Atoms

1	1	1	0.55714703	-3.8510001	-0.48100001	-0.68000001
2	1	2	-0.67751402	-3.767	-1.332	-1.605
3	1	3	-0.560471	-2.701	-0.107	0.086999997
4	1	4	0.091163002	-1.354	-0.60500002	-0.20900001
5	1	5	0.048285998	-1.428	-1.5829999	-0.73500001
6	1	4	-0.17707101	-0.62099999	0.38	-1.154
7	1	6	0.100767	0.011	-0.19499999	-1.867
8	1	6	0.100767	-1.354	0.95499998	-1.761
9	1	4	-0.175522	0.27700001	1.351	-0.38
10	1	6	0.100767	-0.35600001	1.929	0.329
11	1	6	0.100767	0.72500002	2.089	-1.081
12	1	4	0.091999002	1.383	0.60500002	0.40900001
13	1	3	-0.50929302	2.598	0.47299999	-0.40400001
14	1	1	0.80541199	3.875	0.167	0.168
15	1	2	-0.60510403	4.0079999	0.014	1.411
16	1	7	0.31599399	2.552	0.60699999	-1.439
17	1	5	0.051502999	1.6210001	1.232	1.298
18	1	4	-0.175522	0.92799997	-0.79400003	0.898
19	1	6	0.100767	1.21	-1.572	0.154
20	1	6	0.100767	1.4450001	-1.041	1.851
21	1	4	-0.17707101	-0.58700001	-0.85600001	1.113
22	1	6	0.100767	-0.86400002	-0.097999997	1.8789999
23	1	6	0.100767	-0.86400002	-1.854	1.518
24	1	7	0.312949	-2.8139999	0.67400002	0.77200001
25	1	8	-0.486213	4.7030001	0.071999997	-0.449
26	1	4	0.094988003	4.8309999	1.285	-1.141
27	1	4	-0.071742997	3.7550001	1.4069999	-2.2390001
28	1	6	0.089247003	2.763	1.38	-1.7359999
29	1	4	-0.16313601	3.8559999	2.7739999	-2.97
30	1	6	0.099377997	4.296	3.5510001	-2.3069999
31	1	6	0.099377997	2.8340001	3.1240001	-3.2320001
32	1	4	-0.162696	4.6810002	2.677	-4.2589998
33	1	6	0.099992998	4.7870002	3.691	-4.7030001
34	1	6	0.099992998	5.7069998	2.339	-3.9949999
35	1	4	-0.070928998	4.0609999	1.678	-5.276
36	1	4	0.019159	3.1960001	2.398	-6.3249998
37	1	8	-0.140489	3.994	3.2360001	-7.1149998
38	1	5	0.100445	2.4059999	2.9960001	-5.8169999
39	1	5	0.100445	2.704	1.643	-6.9790001
40	1	6	0.092339002	4.9029999	1.1900001	-5.8189998
41	1	4	-0.162696	3.2409999	0.55900002	-4.585
42	1	6	0.099992998	3.234	-0.347	-5.2290001
43	1	6	0.099992998	2.184	0.87599999	-4.4429998
44	1	4	-0.16313601	3.8269999	0.204	-3.2149999
45	1	6	0.099377997	4.881	-0.124	-3.359
46	1	6	0.099377997	3.266	-0.65499997	-2.7869999
47	1	5	0.100204	5.842	1.33	-1.597
48	1	5	0.100204	4.7480001	2.135	-0.42500001
49	1	1	0.55714703	-4.8080001	-0.025	-0.465
50	1	2	-0.67751497	-5.8559999	-0.71899998	-0.546
51	1	3	-0.560471	-4.868	1.359	-0.101
52	1	4	0.091541	-6.1290002	2.0369999	0.215
53	1	5	0.048285998	-6.895	1.742	-0.53799999
54	1	4	-0.175788	-5.9460001	3.5650001	0.13600001
55	1	6	0.099025004	-5.132	3.8870001	0.82300001
56	1	6	0.099025004	-5.6550002	3.849	-0.898
57	1	4	-0.137428	-7.243	4.2950001	0.50800002
58	1	6	0.096634999	-8.0279999	4.0630002	-0.245
59	1	6	0.096634999	-7.0599999	5.3920002	0.486
60	1	4	0.211163	-7.7220001	3.8870001	1.91
61	1	3	-0.63556701	-8.9960003	4.5430002	2.1960001
62	1	9	0.60750598	-9.1379995	5.3439999	3.174
63	1	2	-0.47322401	-9.276	6.1230001	4.1259999
64	1	5	0.041641999	-6.9499998	4.1950002	2.655
65	1	4	-0.137428	-7.9050002	2.3629999	1.994
66	1	6	0.096634999	-8.1929998	2.0829999	3.03
67	1	6	0.096634999	-8.7229996	2.0409999	1.312
68	1	4	-0.175788	-6.6110001	1.6289999	1.619
69	1	6	0.099025004	-5.823	1.86	2.3699999
70	1	6	0.099025004	-6.8000002	0.53500003	1.65
71	1	7	0.312949	-3.971	1.896	-0.1
72	1	8	-0.140488	3.378	3.6800001	-7.7550001
73	1	4	0.019159	4.1830001	4.3330002	-8.6999998
74	1	4	-0.070928998	4.8210001	5.5999999	-8.0959997
75	1	6	0.092339002	5.4559999	5.276	-7.2410002
76	1	4	-0.16191	5.7579999	6.2950001	-9.1199999
77	1	6	0.099992998	6.1700001	5.5630002	-9.849
78	1	6	0.099992998	6.6300001	6.73	-8.5819998
79	1	4	-0.154853	5.0469999	7.4229999	-9.8789997
80	1	6	0.099992998	5.7340002	7.8369999	-10.648
81	1	6	0.099992998	4.1830001	6.987	-10.427
82	1	4	-0.112341	4.5339999	8.5369997	-8.9230003
83	1	4	0.081243999	5.5190001	9.7159996	-8.8439999
84	1	10	-0.67032802	5.6090002	10.353	-10.09
85	1	11	0.38302299	6.2670002	11.087	-9.9770002
86	1	5	0.089472003	6.5229998	9.3500004	-8.5319996
87	1	5	0.089472003	5.158	10.45	-8.0880003
88	1	6	0.095905997	3.582	8.9280005	-9.3479996
89	1	4	-0.154853	4.2249999	8.0039997	-7.5009999
90	1	6	0.099992998	3.45	8.6440001	-7.0250001
91	1	6	0.099992998	5.1329999	8.0459995	-6.8590002
92	1	4	-0.16191	3.73	6.5549998	-7.5440001
93	1	6	0.099992998	2.8150001	6.5159998	-8.177
94	1	6	0.099992998	3.441	6.2350001	-6.52
95	1	5	0.100445	3.5550001	4.6069999	-9.5740004
96	1	5	0.100445	4.9759998	3.638	-9.0620003

Bonds

1	1	1	2
2	2	1	3
3	3	1	49
4	4	3	4
5	5	3	24
6	6	4	5
7	7	4	6
8	7	4	21
9	6	6	7
10	6	6	8
11	7	6	9
12	6	9	10
13	6	9	11
14	7	9	12
15	4	12	13
16	6	12	17
17	7	12	18
18	2	13	14
19	5	13	16
20	1	14	15
21	8	14	25
22	6	18	19
23	6	18	20
24	7	18	21
25	6	21	22
26	6	21	23
27	9	25	26
28	7	26	27
29	6	26	47
30	6	26	48
31	6	27	28
32	7	27	29
33	7	27	44
34	6	29	30
35	6	29	31
36	7	29	32
37	6	32	33
38	6	32	34
39	7	32	35
40	7	35	36
41	6	35	40
42	7	35	41
43	9	36	37
44	6	36	38
45	6	36	39
46	10	37	72
47	6	41	42
48	6	41	43
49	7	41	44
50	6	44	45
51	6	44	46
52	1	49	50
53	2	49	51
54	4	51	52
55	5	51	71
56	6	52	53
57	7	52	54
58	7	52	68
59	6	54	55
60	6	54	56
61	7	54	57
62	6	57	58
63	6	57	59
64	7	57	60
65	11	60	61
66	6	60	64
67	7	60	65
68	12	61	62
69	1	62	63
70	6	65	66
71	6	65	67
72	7	65	68
73	6	68	69
74	6	68	70
75	9	72	73
76	7	73	74
77	6	73	95
78	6	73	96
79	6	74	75
80	7	74	76
81	7	74	92
82	6	76	77
83	6	76	78
84	7	76	79
85	6	79	80
86	6	79	81
87	7	79	82
88	7	82	83
89	6	82	88
90	7	82	89
91	13	83	84
92	6	83	86
93	6	83	87
94	14	84	85
95	6	89	90
96	6	89	91
97	7	89	92
98	6	92	93
99	6	92	94

Angles

1	2	4	3	24
2	4	4	21	23
3	8	60	61	62
4	5	86	83	87
5	4	25	26	47
6	4	29	32	33
7	4	72	73	95
8	4	76	79	82
9	5	55	54	56
10	4	84	83	86
11	4	28	27	29
12	3	1	49	50
13	4	42	41	44
14	4	6	9	11
15	4	74	92	94
16	4	9	12	18
17	4	35	36	37
18	4	18	21	23
19	3	13	14	25
20	2	14	13	16
21	4	8	6	9
22	4	54	57	60
23	4	60	65	68
24	4	13	12	18
25	2	49	51	71
26	4	51	52	54
27	4	29	32	34
28	4	74	73	96
29	4	27	29	30
30	4	91	89	92
31	4	27	44	45
32	4	35	36	38
33	4	82	83	87
34	4	73	74	75
35	4	65	68	69
36	2	12	13	16
37	4	67	65	68
38	3	2	1	49
39	4	5	4	21
40	4	41	44	45
41	4	64	60	65
42	4	17	12	18
43	4	35	41	42
44	4	76	74	92
45	5	58	57	59
46	4	27	26	47
47	4	27	44	46
48	4	88	82	89
49	4	12	18	20
50	4	78	76	79
51	5	95	73	96
52	4	73	74	76
53	4	4	6	7
54	4	76	79	80
55	4	3	4	5
56	5	93	92	94
57	4	83	82	89
58	4	61	60	64
59	4	73	74	92
60	5	33	32	34
61	4	3	4	21
62	4	52	54	55
63	4	11	9	12
64	4	41	44	46
65	4	82	83	84
66	4	82	89	90
67	3	50	49	51
68	4	53	52	54
69	4	74	76	78
70	5	69	68	70
71	4	26	27	28
72	4	52	68	69
73	4	12	18	21
74	4	43	41	44
75	4	4	6	8
76	5	19	18	20
77	4	26	27	44
78	4	25	26	48
79	4	84	83	87
80	5	7	6	8
81	4	55	54	57
82	3	1	49	51
83	6	14	25	26
84	4	52	68	65
85	4	6	9	12
86	3	2	1	3
87	4	36	35	40
88	4	82	89	91
89	5	30	29	31
90	4	37	36	38
91	5	10	9	11
92	4	26	27	29
93	4	57	60	64
94	4	89	92	93
95	5	90	89	91
96	3	13	14	15
97	5	38	36	39
98	4	19	18	21
99	4	79	82	83
100	4	29	32	35
101	4	27	29	31
102	1	49	51	52
103	4	6	4	21
104	4	59	57	60
105	4	35	36	39
106	3	3	1	49
107	4	65	68	70
108	4	37	36	39
109	4	57	60	65
110	4	72	73	96
111	4	32	35	40
112	4	74	73	95
113	4	27	29	32
114	4	35	41	43
115	4	29	27	44
116	4	58	57	60
117	4	54	57	58
118	4	57	60	61
119	4	60	65	66
120	4	27	26	48
121	6	36	37	72
122	4	32	35	36
123	5	45	44	46
124	4	76	79	81
125	4	61	60	65
126	4	51	52	68
127	4	33	32	35
128	4	20	18	21
129	5	42	41	43
130	4	74	92	93
131	4	4	21	18
132	4	52	54	56
133	4	56	54	57
134	7	15	14	25
135	4	18	21	22
136	4	35	41	44
137	1	12	13	14
138	4	31	29	32
139	4	34	32	35
140	4	40	35	41
141	4	74	76	79
142	4	52	68	70
143	4	60	65	67
144	4	5	4	6
145	6	37	72	73
146	5	66	65	67
147	4	13	12	17
148	4	6	9	10
149	4	74	92	89
150	4	4	6	9
151	4	9	12	13
152	4	51	52	53
153	4	7	6	9
154	4	27	44	41
155	6	83	84	85
156	4	52	54	57
157	4	36	35	41
158	4	82	83	86
159	4	79	82	88
160	4	82	89	92
161	4	30	29	32
162	4	54	52	68
163	5	22	21	23
164	4	10	9	12
165	4	90	89	92
166	4	3	4	6
167	4	89	92	94
168	4	66	65	68
169	5	77	76	78
170	5	80	79	81
171	4	81	79	82
172	4	25	26	27
173	4	75	74	76
174	4	4	21	22
175	4	12	18	19
176	5	47	26	48
177	4	53	52	68
178	4	79	82	89
179	2	52	51	71
180	9	61	62	63
181	4	75	74	92
182	4	83	82	88
183	2	1	3	24
184	4	77	76	79
185	4	80	79	82
186	4	32	35	41
187	4	9	12	17
188	4	72	73	74
189	4	28	27	44
190	1	1	3	4
191	4	74	76	77
192	4	54	57	59

Dihedrals

1	7	4	3	1	49
1	8	4	3	1	49
2	11	50	49	51	71
2	12	50	49	51	71
3	15	78	76	79	82
4	15	56	54	57	60
5	19	40	35	41	42
6	15	79	82	89	91
7	23	14	25	26	47
8	19	43	41	44	45
9	14	72	73	74	76
10	15	73	74	76	78
11	15	82	89	92	94
12	15	36	35	41	42
13	14	51	52	54	55
14	15	17	12	18	21
15	15	12	18	21	23
16	19	11	9	12	17
17	19	28	27	44	45
18	14	72	73	74	92
19	15	27	44	41	42
20	16	29	27	44	41
20	17	29	27	44	41
20	18	29	27	44	41
21	19	33	32	35	40
22	19	28	27	26	48
23	15	6	4	21	22
24	15	73	74	92	93
25	19	28	27	29	30
26	1	16	13	12	18
26	2	16	13	12	18
27	19	80	79	82	88
28	20	13	14	25	26
29	15	53	52	54	57
30	15	81	79	82	83
31	19	88	82	89	90
32	28	84	83	82	88
32	29	84	83	82	88
33	23	38	36	37	72
34	15	92	74	73	95
35	19	40	35	41	43
36	15	33	32	35	36
37	3	1	3	4	6
37	4	1	3	4	6
37	5	1	3	4	6
37	6	1	3	4	6
38	15	9	12	18	19
39	15	26	27	29	30
40	23	37	72	73	74
41	16	6	4	21	18
41	17	6	4	21	18
41	18	6	4	21	18
42	19	64	60	65	67
43	15	36	35	41	43
44	16	73	74	92	89
44	17	73	74	92	89
44	18	73	74	92	89
45	15	76	74	92	94
46	15	8	6	4	21
47	19	67	65	68	69
48	1	9	12	13	16
48	2	9	12	13	16
49	15	11	9	12	18
50	15	76	74	73	96
51	19	8	6	9	10
52	19	39	36	35	40
53	14	3	4	6	8
54	19	7	6	9	10
55	15	27	44	41	43
56	16	52	68	65	60
56	17	52	68	65	60
56	18	52	68	65	60
57	19	75	74	73	96
58	7	12	13	14	25
58	8	12	13	14	25
59	15	80	79	82	89
60	16	52	54	57	60
60	17	52	54	57	60
60	18	52	54	57	60
61	23	37	72	73	95
62	15	44	27	26	47
63	16	76	79	82	89
63	17	76	79	82	89
63	18	76	79	82	89
64	15	4	6	9	10
65	19	7	6	9	11
66	19	88	82	89	91
67	1	53	52	51	71
67	2	53	52	51	71
68	14	37	36	35	41
69	15	32	35	36	38
70	15	74	76	79	80
71	19	31	29	32	33
72	15	9	12	18	20
73	16	29	32	35	41
73	17	29	32	35	41
73	18	29	32	35	41
74	15	64	60	65	68
75	15	77	76	74	92
76	16	9	6	4	21
76	17	9	6	4	21
76	18	9	6	4	21
77	15	10	9	12	18
78	15	83	82	89	90
79	15	4	6	9	11
80	15	60	65	68	69
81	19	19	18	21	22
82	19	20	18	21	22
83	15	27	29	32	33
84	16	27	44	41	35
84	17	27	44	41	35
84	18	27	44	41	35
85	14	51	52	68	69
86	19	56	54	57	58
87	19	77	76	79	80
88	15	54	52	68	70
89	15	55	54	57	60
90	15	32	35	41	42
91	15	35	41	44	45
92	15	44	27	26	48
93	19	58	57	60	64
94	15	55	54	52	68
95	15	79	82	83	86
96	19	42	41	44	45
97	14	6	9	12	13
98	15	32	35	36	39
99	11	2	1	3	24
99	12	2	1	3	24
100	19	31	29	32	34
101	32	60	61	62	63
102	15	5	4	6	9
103	1	68	52	51	71
103	2	68	52	51	71
104	14	51	52	68	65
105	19	66	65	68	69
106	19	75	74	76	77
107	19	59	57	60	64
108	15	83	82	89	91
109	9	2	1	3	4
109	10	2	1	3	4
110	15	30	29	32	35
111	15	26	27	44	45
112	23	39	36	37	72
113	19	19	18	21	23
114	15	27	29	32	34
115	15	53	52	68	65
116	14	51	52	68	70
117	23	14	25	26	48
118	19	43	41	44	46
119	16	73	74	76	79
119	17	73	74	76	79
119	18	73	74	76	79
120	16	79	82	89	92
120	17	79	82	89	92
120	18	79	82	89	92
121	7	1	49	51	71
121	8	1	49	51	71
122	15	32	35	41	43
123	15	35	41	44	46
124	13	3	1	49	50
125	9	50	49	51	52
125	10	50	49	51	52
126	14	51	52	54	56
127	14	3	4	21	22
128	15	79	82	83	87
129	19	81	79	82	88
130	19	42	41	44	46
131	19	28	27	44	46
132	15	33	32	35	41
133	31	62	61	60	64
134	13	2	1	49	50
135	15	29	27	44	45
136	1	6	4	3	24
136	2	6	4	3	24
137	15	6	4	21	23
138	15	73	74	92	94
139	19	28	27	29	31
140	15	4	21	18	19
141	15	34	32	35	36
142	19	38	36	35	40
143	14	13	12	18	19
144	14	61	60	65	66
145	19	75	74	76	78
146	24	15	14	13	16
146	25	15	14	13	16
147	19	8	6	9	11
148	14	3	4	21	18
149	15	26	27	44	46
150	14	84	83	82	89
151	15	30	29	27	44
152	19	5	4	21	22
153	15	40	35	41	44
154	7	24	3	1	49
154	8	24	3	1	49
155	15	26	27	29	31
156	1	21	4	3	24
156	2	21	4	3	24
157	19	75	74	92	93
158	16	36	35	41	44
158	17	36	35	41	44
158	18	36	35	41	44
159	14	51	52	54	57
160	15	57	60	65	66
161	13	3	1	49	51
162	19	67	65	68	70
163	35	85	84	83	86
164	28	25	26	27	28
164	29	25	26	27	28
165	15	6	9	12	17
166	26	15	14	25	26
166	27	15	14	25	26
167	14	3	4	6	9
168	15	39	36	35	41
169	3	49	51	52	68
169	4	49	51	52	68
169	5	49	51	52	68
169	6	49	51	52	68
170	31	62	61	60	65
171	15	29	27	26	47
172	19	86	83	82	88
173	19	78	76	79	80
174	15	5	4	21	18
175	14	25	26	27	44
176	15	28	27	29	32
177	15	38	36	35	41
178	7	16	13	14	25
178	8	16	13	14	25
179	14	61	60	65	67
180	15	75	74	92	89
181	19	17	12	18	19
182	15	7	6	9	12
183	15	52	68	65	66
184	15	88	82	89	92
185	15	74	76	79	81
186	1	5	4	3	24
186	2	5	4	3	24
187	1	1	3	4	5
187	2	1	3	4	5
188	19	5	4	21	23
189	19	53	52	68	69
190	16	9	12	18	21
190	17	9	12	18	21
190	18	9	12	18	21
191	19	90	89	92	93
192	15	74	92	89	90
193	15	57	60	65	67
194	35	85	84	83	87
195	3	1	3	4	21
195	4	1	3	4	21
195	5	1	3	4	21
195	6	1	3	4	21
196	16	4	6	9	12
196	17	4	6	9	12
196	18	4	6	9	12
197	14	25	26	27	29
198	15	60	65	68	70
199	19	75	74	73	95
200	16	6	9	12	18
200	17	6	9	12	18
200	18	6	9	12	18
201	19	30	29	32	33
202	19	53	52	54	55
203	19	20	18	21	23
204	19	56	54	57	59
205	19	77	76	79	81
206	16	32	29	27	44
206	17	32	29	27	44
206	18	32	29	27	44
207	19	34	32	35	40
208	15	92	74	73	96
209	15	73	74	76	77
210	33	82	83	84	85
210	34	82	83	84	85
211	15	82	89	92	93
212	15	7	6	4	21
213	1	14	13	12	17
213	2	14	13	12	17
214	15	58	57	60	65
215	15	12	18	21	22
216	3	9	12	13	14
216	4	9	12	13	14
216	5	9	12	13	14
216	6	9	12	13	14
217	15	52	68	65	67
218	16	74	76	79	82
218	17	74	76	79	82
218	18	74	76	79	82
219	15	54	57	60	64
220	19	53	52	68	70
221	15	31	29	32	35
222	19	28	27	26	47
223	15	78	76	74	92
224	1	16	13	12	17
224	2	16	13	12	17
225	19	66	65	68	70
226	15	59	57	60	65
227	16	74	92	89	82
227	17	74	92	89	82
227	18	74	92	89	82
228	16	83	82	89	92
228	17	83	82	89	92
228	18	83	82	89	92
229	19	87	83	82	88
230	15	52	54	57	58
231	14	58	57	60	61
232	23	37	72	73	96
233	16	57	54	52	68
233	17	57	54	52	68
233	18	57	54	52	68
234	16	27	29	32	35
234	17	27	29	32	35
234	18	27	29	32	35
235	15	77	76	79	82
236	15	34	32	35	41
237	19	64	60	65	66
238	15	56	54	52	68
239	15	76	74	92	93
240	15	80	79	82	83
241	16	32	35	41	44
241	17	32	35	41	44
241	18	32	35	41	44
242	3	14	13	12	18
242	4	14	13	12	18
242	5	14	13	12	18
242	6	14	13	12	18
243	14	59	57	60	61
244	15	81	79	82	89
245	14	3	4	21	23
246	16	76	79	82	83
246	17	76	79	82	83
246	18	76	79	82	83
247	14	3	4	6	7
248	7	1	49	51	52
248	8	1	49	51	52
249	16	54	57	60	65
249	17	54	57	60	65
249	18	54	57	60	65
250	13	2	1	49	51
251	15	29	27	44	46
252	15	31	29	27	44
253	15	4	21	18	20
254	1	54	52	51	71
254	2	54	52	51	71
255	15	75	74	76	79
256	14	13	12	18	20
257	7	12	13	14	15
257	8	12	13	14	15
258	16	76	74	92	89
258	17	76	74	92	89
258	18	76	74	92	89
259	19	55	54	57	58
260	15	52	54	57	59
261	15	76	79	82	88
262	15	8	6	9	12
263	16	79	76	74	92
263	17	79	76	74	92
263	18	79	76	74	92
264	15	87	83	82	89
265	14	79	82	83	84
266	14	11	9	12	13
267	28	37	36	35	40
267	29	37	36	35	40
268	14	32	35	36	37
269	14	54	57	60	61
270	19	91	89	92	93
271	16	26	27	29	32
271	17	26	27	29	32
271	18	26	27	29	32
272	15	29	32	35	40
273	19	5	4	6	7
274	1	49	51	52	53
274	2	49	51	52	53
275	19	75	74	92	94
276	19	10	9	12	17
277	21	14	25	26	27
277	22	14	25	26	27
278	31	57	60	61	62
279	15	76	74	73	95
280	19	53	52	54	56
281	15	86	83	82	89
282	15	29	27	26	48
283	19	78	76	79	81
284	30	36	37	72	73
285	15	79	82	89	90
286	16	29	32	35	36
286	17	29	32	35	36
286	18	29	32	35	36
287	28	72	73	74	75
287	29	72	73	74	75
288	14	13	12	18	21
289	15	54	52	68	69
290	14	61	60	65	68
291	19	55	54	57	59
292	16	4	21	18	12
292	17	4	21	18	12
292	18	4	21	18	12
293	14	10	9	12	13
294	19	17	12	18	20
295	15	28	27	44	41
296	19	91	89	92	94
297	19	90	89	92	94
298	15	74	92	89	91
299	19	5	4	6	8
300	3	49	51	52	54
300	4	49	51	52	54
300	5	49	51	52	54
300	6	49	51	52	54
301	23	35	36	37	72
302	16	57	60	65	68
302	17	57	60	65	68
302	18	57	60	65	68
303	16	54	52	68	65
303	17	54	52	68	65
303	18	54	52	68	65
304	16	26	27	44	41
304	17	26	27	44	41
304	18	26	27	44	41
305	19	30	29	32	34

Impropers

13	1	51	71	49	52
29	1	13	16	12	14
37	2	49	51	1	50
93	1	13	14	16	12
115	2	1	49	2	3
145	1	3	24	1	4
172	3	14	25	13	15
203	2	1	3	49	2
272	1	3	1	4	24
324	3	14	13	15	25
334	2	1	2	3	49
342	1	3	4	24	1
416	3	14	15	25	13
474	1	51	52	71	49
520	1	13	12	14	16
531	2	49	1	50	51
609	1	51	49	52	71
650	2	49	50	51	1
