Title

96 atoms
99 bonds
192 angles
418 dihedrals
18 impropers

11 atom types
14 bond types
9 angle types
35 dihedral types
3 improper types
-9.276000023 90.72399998 xlo xhi
-1.853999972 98.14600003 ylo yhi
-10.64799976 89.35200024 zlo zhi
0.0 0.0 0.0 xy xz yz

Masses

1	12.01078
2	15.99943
3	14.00672
4	12.01078
5	1.007947
6	1.007947
7	1.007947
8	15.99943
9	12.01078
10	15.99943
11	1.007947


Pair Coeffs

1	0.086879315	3.4806469
2	0.2102061	3.0398122
3	0.16769152	3.206876
4	0.10884061	3.3795318
5	0.016409246	2.5832257
6	0.015779483	2.6445434
7	0.014090815	1.1034277
8	0.16846514	3.0251065
9	0.21	3.3996695
10	0.20947353	2.99716
11	1.2326e-05	0.53453923

Bond Coeffs

1 harmonic	582.698766451	1.225198386222
2 harmonic	492.76746816345	1.381897776683
3 harmonic	279.1350963404	1.454628925034
4 harmonic	352.0565580496	1.450098586273
5 harmonic	505.144496193	1.019481865027
6 harmonic	370.04670688625	1.093899492634
7 harmonic	264.62148576755	1.52190126495
8 harmonic	301.15400723785	1.345741232799
9 harmonic	366.7408841747	1.425895053732
10 harmonic	300.03137914615	1.451203938761
11 harmonic	366.34047229585	1.464762957261
12 harmonic	602.81384337	1.196112346392
13 harmonic	329.96998057905	1.427343958716
14 harmonic	543.5267831885	0.9716763312559


Angle Coeffs

1 harmonic	55.42182150775	117.3465570514
2 harmonic	63.44422595415	115.5071327674
3 harmonic	57.8982893754	126.8062420451
4 harmonic	53.20531626545	116.5475862634
5 harmonic	48.776492647595	115.6030999533
6 harmonic	65.09061609600001	110.3538806181
7 harmonic	201.41175231035	127.4691416191
8 harmonic	55.07882548015	112.8714009681
9 harmonic	33.56981613361	180


Dihedral Coeffs

1 fourier 1	0.182238503271	2	0
2 fourier 1	0.02972342374561	3	0
3 fourier 1	-0.1488678166443	4	180
4 fourier 1	-0.1230328948768	3	180
5 fourier 1	0.2939295466901	2	0
6 fourier 1	-0.3024127022865	1	0
7 fourier 1	1.809047390003	2	180
8 fourier 1	-0.04816277792592	1	0
9 fourier 1	3.101948770557	2	180
10 fourier 1	-0.4252153282372	1	0
11 fourier 1	2.348375642009	2	180
12 fourier 1	1.256156174911	1	0
13 fourier 1	0.9974165607242	2	180
14 fourier 1	0.1155372516788	3	0
15 fourier 1	0.1040663847541	3	0
16 fourier 1	0.09223874044423	3	0
17 fourier 1	0.3159935921949	2	180
18 fourier 1	0.3247796806857	1	180
19 fourier 1	0.1911926717192	3	0
20 fourier 1	2.779853741805	2	180
21 fourier 1	0.1918272375143	3	0
22 fourier 1	0.9202179876409	1	180
23 fourier 1	0.0473758381877	3	0
24 fourier 1	0.4860993122944	2	180
25 fourier 1	0.8916986138746	1	0
26 fourier 1	1.163809172478	2	180
27 fourier 1	0.1679186987369	1	180
28 fourier 1	0.1115525666802	3	0
29 fourier 1	0.3432490222662	1	0
30 fourier 1	0.457973137376	1	0
31 fourier 1	-1.382973039546	1	0
32 fourier 1	0	1	0
33 fourier 1	0.3445382149273	3	0
34 fourier 1	0.1364556373303	1	0
35 fourier 1	0.3026390167484	3	0


Improper Coeffs

1 0.3333333333333333	-1	2
2 0.3666666666666667	-1	2
3 3.5	-1	2


Atoms

1	1	1	0.55714703	-3.8510001	-0.48100001	-0.68000001
2	1	2	-0.67751402	-3.767	-1.332	-1.605
3	1	3	-0.560471	-2.701	-0.107	0.086999997
4	1	4	0.091163002	-1.354	-0.60500002	-0.20900001
5	1	5	0.048285998	-1.428	-1.5829999	-0.73500001
6	1	4	-0.17707101	-0.62099999	0.38	-1.154
7	1	6	0.100767	0.011	-0.19499999	-1.867
8	1	6	0.100767	-1.354	0.95499998	-1.761
9	1	4	-0.175522	0.27700001	1.351	-0.38
10	1	6	0.100767	-0.35600001	1.929	0.329
11	1	6	0.100767	0.72500002	2.089	-1.081
12	1	4	0.091999002	1.383	0.60500002	0.40900001
13	1	3	-0.50929302	2.598	0.47299999	-0.40400001
14	1	1	0.80541199	3.875	0.167	0.168
15	1	2	-0.60510403	4.0079999	0.014	1.411
16	1	7	0.31599399	2.552	0.60699999	-1.439
17	1	5	0.051502999	1.6210001	1.232	1.298
18	1	4	-0.175522	0.92799997	-0.79400003	0.898
19	1	6	0.100767	1.21	-1.572	0.154
20	1	6	0.100767	1.4450001	-1.041	1.851
21	1	4	-0.17707101	-0.58700001	-0.85600001	1.113
22	1	6	0.100767	-0.86400002	-0.097999997	1.8789999
23	1	6	0.100767	-0.86400002	-1.854	1.518
24	1	7	0.312949	-2.8139999	0.67400002	0.77200001
25	1	8	-0.486213	4.7030001	0.071999997	-0.449
26	1	4	0.094988003	4.8309999	1.285	-1.141
27	1	4	-0.071742997	3.7550001	1.4069999	-2.2390001
28	1	6	0.089247003	2.763	1.38	-1.7359999
29	1	4	-0.16313601	3.8559999	2.7739999	-2.97
30	1	6	0.099377997	4.296	3.5510001	-2.3069999
31	1	6	0.099377997	2.8340001	3.1240001	-3.2320001
32	1	4	-0.162696	4.6810002	2.677	-4.2589998
33	1	6	0.099992998	4.7870002	3.691	-4.7030001
34	1	6	0.099992998	5.7069998	2.339	-3.9949999
35	1	4	-0.070928998	4.0609999	1.678	-5.276
36	1	4	0.019159	3.1960001	2.398	-6.3249998
37	1	8	-0.140489	3.994	3.2360001	-7.1149998
38	1	5	0.100445	2.4059999	2.9960001	-5.8169999
39	1	5	0.100445	2.704	1.643	-6.9790001
40	1	6	0.092339002	4.9029999	1.1900001	-5.8189998
41	1	4	-0.162696	3.2409999	0.55900002	-4.585
42	1	6	0.099992998	3.234	-0.347	-5.2290001
43	1	6	0.099992998	2.184	0.87599999	-4.4429998
44	1	4	-0.16313601	3.8269999	0.204	-3.2149999
45	1	6	0.099377997	4.881	-0.124	-3.359
46	1	6	0.099377997	3.266	-0.65499997	-2.7869999
47	1	5	0.100204	5.842	1.33	-1.597
48	1	5	0.100204	4.7480001	2.135	-0.42500001
49	1	1	0.55714703	-4.8080001	-0.025	-0.465
50	1	2	-0.67751497	-5.8559999	-0.71899998	-0.546
51	1	3	-0.560471	-4.868	1.359	-0.101
52	1	4	0.091541	-6.1290002	2.0369999	0.215
53	1	5	0.048285998	-6.895	1.742	-0.53799999
54	1	4	-0.175788	-5.9460001	3.5650001	0.13600001
55	1	6	0.099025004	-5.132	3.8870001	0.82300001
56	1	6	0.099025004	-5.6550002	3.849	-0.898
57	1	4	-0.137428	-7.243	4.2950001	0.50800002
58	1	6	0.096634999	-8.0279999	4.0630002	-0.245
59	1	6	0.096634999	-7.0599999	5.3920002	0.486
60	1	4	0.211163	-7.7220001	3.8870001	1.91
61	1	3	-0.63556701	-8.9960003	4.5430002	2.1960001
62	1	9	0.60750598	-9.1379995	5.3439999	3.174
63	1	2	-0.47322401	-9.276	6.1230001	4.1259999
64	1	5	0.041641999	-6.9499998	4.1950002	2.655
65	1	4	-0.137428	-7.9050002	2.3629999	1.994
66	1	6	0.096634999	-8.1929998	2.0829999	3.03
67	1	6	0.096634999	-8.7229996	2.0409999	1.312
68	1	4	-0.175788	-6.6110001	1.6289999	1.619
69	1	6	0.099025004	-5.823	1.86	2.3699999
70	1	6	0.099025004	-6.8000002	0.53500003	1.65
71	1	7	0.312949	-3.971	1.896	-0.1
72	1	8	-0.140488	3.378	3.6800001	-7.7550001
73	1	4	0.019159	4.1830001	4.3330002	-8.6999998
74	1	4	-0.070928998	4.8210001	5.5999999	-8.0959997
75	1	6	0.092339002	5.4559999	5.276	-7.2410002
76	1	4	-0.16191	5.7579999	6.2950001	-9.1199999
77	1	6	0.099992998	6.1700001	5.5630002	-9.849
78	1	6	0.099992998	6.6300001	6.73	-8.5819998
79	1	4	-0.154853	5.0469999	7.4229999	-9.8789997
80	1	6	0.099992998	5.7340002	7.8369999	-10.648
81	1	6	0.099992998	4.1830001	6.987	-10.427
82	1	4	-0.112341	4.5339999	8.5369997	-8.9230003
83	1	4	0.081243999	5.5190001	9.7159996	-8.8439999
84	1	10	-0.67032802	5.6090002	10.353	-10.09
85	1	11	0.38302299	6.2670002	11.087	-9.9770002
86	1	5	0.089472003	6.5229998	9.3500004	-8.5319996
87	1	5	0.089472003	5.158	10.45	-8.0880003
88	1	6	0.095905997	3.582	8.9280005	-9.3479996
89	1	4	-0.154853	4.2249999	8.0039997	-7.5009999
90	1	6	0.099992998	3.45	8.6440001	-7.0250001
91	1	6	0.099992998	5.1329999	8.0459995	-6.8590002
92	1	4	-0.16191	3.73	6.5549998	-7.5440001
93	1	6	0.099992998	2.8150001	6.5159998	-8.177
94	1	6	0.099992998	3.441	6.2350001	-6.52
95	1	5	0.100445	3.5550001	4.6069999	-9.5740004
96	1	5	0.100445	4.9759998	3.638	-9.0620003

Bonds

1	1	1	2
2	2	1	3
3	3	1	49
4	4	3	4
5	5	3	24
6	6	4	5
7	7	4	6
8	7	4	21
9	6	6	7
10	6	6	8
11	7	6	9
12	6	9	10
13	6	9	11
14	7	9	12
15	4	12	13
16	6	12	17
17	7	12	18
18	2	13	14
19	5	13	16
20	1	14	15
21	8	14	25
22	6	18	19
23	6	18	20
24	7	18	21
25	6	21	22
26	6	21	23
27	9	25	26
28	7	26	27
29	6	26	47
30	6	26	48
31	6	27	28
32	7	27	29
33	7	27	44
34	6	29	30
35	6	29	31
36	7	29	32
37	6	32	33
38	6	32	34
39	7	32	35
40	7	35	36
41	6	35	40
42	7	35	41
43	9	36	37
44	6	36	38
45	6	36	39
46	10	37	72
47	6	41	42
48	6	41	43
49	7	41	44
50	6	44	45
51	6	44	46
52	1	49	50
53	2	49	51
54	4	51	52
55	5	51	71
56	6	52	53
57	7	52	54
58	7	52	68
59	6	54	55
60	6	54	56
61	7	54	57
62	6	57	58
63	6	57	59
64	7	57	60
65	11	60	61
66	6	60	64
67	7	60	65
68	12	61	62
69	1	62	63
70	6	65	66
71	6	65	67
72	7	65	68
73	6	68	69
74	6	68	70
75	9	72	73
76	7	73	74
77	6	73	95
78	6	73	96
79	6	74	75
80	7	74	76
81	7	74	92
82	6	76	77
83	6	76	78
84	7	76	79
85	6	79	80
86	6	79	81
87	7	79	82
88	7	82	83
89	6	82	88
90	7	82	89
91	13	83	84
92	6	83	86
93	6	83	87
94	14	84	85
95	6	89	90
96	6	89	91
97	7	89	92
98	6	92	93
99	6	92	94

Angles

1	4	35	41	42
2	4	35	41	43
3	2	4	3	24
4	4	56	54	57
5	4	18	21	23
6	4	25	26	48
7	5	77	76	78
8	4	64	60	65
9	5	90	89	91
10	4	52	68	65
11	4	82	89	91
12	4	41	44	45
13	4	76	79	80
14	4	5	4	6
15	5	93	92	94
16	4	32	35	36
17	5	80	79	81
18	4	17	12	18
19	4	75	74	92
20	4	72	73	95
21	4	27	44	45
22	2	14	13	16
23	4	74	76	79
24	4	91	89	92
25	4	12	18	21
26	3	3	1	49
27	4	4	21	23
28	4	25	26	47
29	8	60	61	62
30	1	12	13	14
31	4	8	6	9
32	4	13	12	18
33	4	36	35	41
34	4	89	92	93
35	3	13	14	15
36	4	29	32	33
37	4	74	92	94
38	5	10	9	11
39	4	26	27	44
40	4	27	29	30
41	2	49	51	71
42	4	82	83	87
43	4	10	9	12
44	4	52	54	56
45	4	6	9	11
46	4	34	32	35
47	5	33	32	34
48	4	13	12	17
49	4	65	68	69
50	4	43	41	44
51	4	54	57	58
52	4	72	73	74
53	4	54	52	68
54	1	1	3	4
55	4	40	35	41
56	4	41	44	46
57	3	1	49	51
58	4	77	76	79
59	4	60	65	67
60	4	59	57	60
61	4	26	27	28
62	4	52	68	69
63	4	58	57	60
64	4	76	79	82
65	4	29	32	35
66	2	52	51	71
67	4	29	32	34
68	4	18	21	22
69	2	1	3	24
70	4	9	12	18
71	4	57	60	65
72	4	9	12	13
73	4	73	74	75
74	4	74	92	89
75	5	38	36	39
76	4	20	18	21
77	4	27	44	41
78	4	4	6	9
79	4	66	65	68
80	4	79	82	88
81	4	82	89	92
82	4	37	36	38
83	5	47	26	48
84	4	53	52	54
85	4	4	21	18
86	4	29	27	44
87	4	83	82	89
88	5	86	83	87
89	4	27	26	47
90	4	52	54	57
91	9	61	62	63
92	4	73	74	92
93	4	5	4	21
94	4	74	73	96
95	4	74	92	93
96	4	32	35	41
97	4	9	12	17
98	4	12	18	20
99	4	3	4	6
100	4	4	21	22
101	4	7	6	9
102	4	28	27	44
103	4	37	36	39
104	6	14	25	26
105	5	55	54	56
106	4	76	74	92
107	4	19	18	21
108	3	1	49	50
109	4	78	76	79
110	4	35	36	37
111	4	75	74	76
112	4	82	83	84
113	4	6	9	12
114	4	36	35	40
115	4	6	9	10
116	4	60	65	68
117	4	83	82	88
118	6	36	37	72
119	4	51	52	53
120	4	89	92	94
121	5	69	68	70
122	4	74	76	77
123	4	79	82	83
124	6	83	84	85
125	4	11	9	12
126	4	42	41	44
127	4	27	26	48
128	4	79	82	89
129	4	27	29	31
130	4	12	18	19
131	4	26	27	29
132	4	27	44	46
133	4	35	36	38
134	4	25	26	27
135	3	2	1	3
136	4	73	74	76
137	4	76	79	81
138	5	45	44	46
139	4	52	54	55
140	4	65	68	70
141	4	51	52	54
142	4	84	83	86
143	2	12	13	16
144	4	35	36	39
145	4	72	73	96
146	4	90	89	92
147	4	6	4	21
148	4	53	52	68
149	4	27	29	32
150	3	2	1	49
151	4	61	60	65
152	4	52	68	70
153	4	55	54	57
154	4	81	79	82
155	4	31	29	32
156	4	35	41	44
157	4	60	65	66
158	4	82	89	90
159	4	54	57	60
160	4	80	79	82
161	5	58	57	59
162	4	30	29	32
163	4	57	60	64
164	4	67	65	68
165	4	74	76	78
166	5	42	41	43
167	3	50	49	51
168	3	13	14	25
169	4	57	60	61
170	4	74	73	95
171	4	3	4	5
172	4	4	6	8
173	5	22	21	23
174	4	4	6	7
175	5	19	18	20
176	4	32	35	40
177	4	61	60	64
178	5	95	73	96
179	4	3	4	21
180	4	88	82	89
181	5	66	65	67
182	4	28	27	29
183	4	51	52	68
184	4	82	83	86
185	7	15	14	25
186	5	30	29	31
187	4	84	83	87
188	5	7	6	8
189	4	54	57	59
190	1	49	51	52
191	4	33	32	35
192	6	37	72	73

Dihedrals

1	15	4	6	9	11
2	9	2	1	3	4
2	10	2	1	3	4
3	19	20	18	21	23
4	19	53	52	68	70
5	14	25	26	27	29
6	15	34	32	35	41
7	19	5	4	21	23
8	1	14	13	12	17
8	2	14	13	12	17
9	1	49	51	52	53
9	2	49	51	52	53
10	19	81	79	82	88
11	23	14	25	26	47
12	19	77	76	79	81
13	19	5	4	6	8
14	19	5	4	6	7
15	19	8	6	9	11
16	14	3	4	6	9
17	14	13	12	18	20
18	19	64	60	65	67
19	19	87	83	82	88
20	14	6	9	12	13
21	15	9	12	18	20
22	7	12	13	14	25
22	8	12	13	14	25
23	11	2	1	3	24
23	12	2	1	3	24
24	15	26	27	29	31
25	19	20	18	21	22
26	15	79	82	89	90
27	16	73	74	92	89
27	17	73	74	92	89
27	18	73	74	92	89
28	15	52	68	65	66
29	19	56	54	57	58
30	15	26	27	44	46
31	16	29	27	44	41
31	17	29	27	44	41
31	18	29	27	44	41
32	19	66	65	68	70
33	19	28	27	29	31
34	3	49	51	52	54
34	4	49	51	52	54
34	5	49	51	52	54
34	6	49	51	52	54
35	19	75	74	92	94
36	15	4	21	18	20
37	15	57	60	65	67
38	15	74	76	79	81
39	14	61	60	65	66
40	31	62	61	60	65
41	19	28	27	44	46
42	16	76	74	92	89
42	17	76	74	92	89
42	18	76	74	92	89
43	19	10	9	12	17
44	19	33	32	35	40
45	14	51	52	54	55
46	19	91	89	92	94
47	23	14	25	26	48
48	19	78	76	79	81
49	15	81	79	82	83
50	15	32	35	41	42
51	19	43	41	44	46
52	19	88	82	89	91
53	15	32	35	41	43
54	15	76	79	82	88
55	15	81	79	82	89
56	16	74	92	89	82
56	17	74	92	89	82
56	18	74	92	89	82
57	15	54	52	68	70
58	13	2	1	49	50
59	15	83	82	89	91
60	16	36	35	41	44
60	17	36	35	41	44
60	18	36	35	41	44
61	23	37	72	73	74
62	23	39	36	37	72
63	15	8	6	4	21
64	23	35	36	37	72
65	1	21	4	3	24
65	2	21	4	3	24
66	14	51	52	54	57
67	7	1	49	51	71
67	8	1	49	51	71
68	15	29	32	35	40
69	19	17	12	18	20
70	19	30	29	32	33
71	14	51	52	68	70
72	15	76	74	92	93
73	15	28	27	29	32
74	15	79	82	83	86
75	15	29	27	26	48
76	7	16	13	14	25
76	8	16	13	14	25
77	15	35	41	44	46
78	19	75	74	76	77
79	15	82	89	92	94
80	35	85	84	83	87
81	7	4	3	1	49
81	8	4	3	1	49
82	7	1	49	51	52
82	8	1	49	51	52
83	33	82	83	84	85
83	34	82	83	84	85
84	15	31	29	32	35
85	15	31	29	27	44
86	15	60	65	68	70
87	19	86	83	82	88
88	16	4	6	9	12
88	17	4	6	9	12
88	18	4	6	9	12
89	23	37	72	73	95
90	15	53	52	68	65
91	15	59	57	60	65
92	15	64	60	65	68
93	15	73	74	76	78
94	15	4	6	9	10
95	15	5	4	21	18
96	19	31	29	32	33
97	15	29	27	44	46
98	16	6	9	12	18
98	17	6	9	12	18
98	18	6	9	12	18
99	20	13	14	25	26
100	15	33	32	35	36
101	19	53	52	68	69
102	19	17	12	18	19
103	16	32	29	27	44
103	17	32	29	27	44
103	18	32	29	27	44
104	15	58	57	60	65
105	16	76	79	82	83
105	17	76	79	82	83
105	18	76	79	82	83
106	19	67	65	68	70
107	16	76	79	82	89
107	17	76	79	82	89
107	18	76	79	82	89
108	15	92	74	73	95
109	15	8	6	9	12
110	15	79	82	89	91
111	11	50	49	51	71
111	12	50	49	51	71
112	19	8	6	9	10
113	15	75	74	92	89
114	16	57	60	65	68
114	17	57	60	65	68
114	18	57	60	65	68
115	19	5	4	21	22
116	15	29	27	26	47
117	3	49	51	52	68
117	4	49	51	52	68
117	5	49	51	52	68
117	6	49	51	52	68
118	16	52	54	57	60
118	17	52	54	57	60
118	18	52	54	57	60
119	19	34	32	35	40
120	7	12	13	14	15
120	8	12	13	14	15
121	9	50	49	51	52
121	10	50	49	51	52
122	13	3	1	49	51
123	16	29	32	35	36
123	17	29	32	35	36
123	18	29	32	35	36
124	15	6	4	21	23
125	14	13	12	18	19
126	15	86	83	82	89
127	19	90	89	92	94
128	15	7	6	4	21
129	15	26	27	29	30
130	15	6	9	12	17
131	19	75	74	73	96
132	15	30	29	32	35
133	15	9	12	18	19
134	15	30	29	27	44
135	3	9	12	13	14
135	4	9	12	13	14
135	5	9	12	13	14
135	6	9	12	13	14
136	16	54	57	60	65
136	17	54	57	60	65
136	18	54	57	60	65
137	15	73	74	92	93
138	15	36	35	41	42
139	19	59	57	60	64
140	19	77	76	79	80
141	15	36	35	41	43
142	19	42	41	44	46
143	19	66	65	68	69
144	15	55	54	57	60
145	19	39	36	35	40
146	15	38	36	35	41
147	19	7	6	9	11
148	15	40	35	41	44
149	14	32	35	36	37
150	14	3	4	21	23
151	19	53	52	54	56
152	19	58	57	60	64
153	15	33	32	35	41
154	15	4	21	18	19
155	16	54	52	68	65
155	17	54	52	68	65
155	18	54	52	68	65
156	19	75	74	76	78
157	3	1	3	4	6
157	4	1	3	4	6
157	5	1	3	4	6
157	6	1	3	4	6
158	15	7	6	9	12
159	14	3	4	6	8
160	14	3	4	6	7
161	15	6	4	21	22
162	19	7	6	9	10
163	15	74	92	89	90
164	14	51	52	68	65
165	28	37	36	35	40
165	29	37	36	35	40
166	15	44	27	26	47
167	28	72	73	74	75
167	29	72	73	74	75
168	15	79	82	83	87
169	19	31	29	32	34
170	14	84	83	82	89
171	15	74	76	79	80
172	1	16	13	12	18
172	2	16	13	12	18
173	19	19	18	21	23
174	15	34	32	35	36
175	15	5	4	6	9
176	15	27	44	41	42
177	15	52	54	57	59
178	15	27	44	41	43
179	15	12	18	21	23
180	14	25	26	27	44
181	15	57	60	65	66
182	15	26	27	44	45
183	31	62	61	60	64
184	16	73	74	76	79
184	17	73	74	76	79
184	18	73	74	76	79
185	15	88	82	89	92
186	14	72	73	74	92
187	1	68	52	51	71
187	2	68	52	51	71
188	15	54	57	60	64
189	16	4	21	18	12
189	17	4	21	18	12
189	18	4	21	18	12
190	1	5	4	3	24
190	2	5	4	3	24
191	1	1	3	4	5
191	2	1	3	4	5
192	24	15	14	13	16
192	25	15	14	13	16
193	23	37	72	73	96
194	15	56	54	52	68
195	15	56	54	57	60
196	15	76	74	73	95
197	16	26	27	44	41
197	17	26	27	44	41
197	18	26	27	44	41
198	15	32	35	36	39
199	28	84	83	82	88
199	29	84	83	82	88
200	3	14	13	12	18
200	4	14	13	12	18
200	5	14	13	12	18
200	6	14	13	12	18
201	19	43	41	44	45
202	3	1	3	4	21
202	4	1	3	4	21
202	5	1	3	4	21
202	6	1	3	4	21
203	19	53	52	54	55
204	19	55	54	57	59
205	1	16	13	12	17
205	2	16	13	12	17
206	15	52	68	65	67
207	15	44	27	26	48
208	15	77	76	74	92
209	15	27	29	32	33
210	15	92	74	73	96
211	16	27	44	41	35
211	17	27	44	41	35
211	18	27	44	41	35
212	14	61	60	65	67
213	28	25	26	27	28
213	29	25	26	27	28
214	19	30	29	32	34
215	15	53	52	54	57
216	19	75	74	92	93
217	19	40	35	41	42
218	15	35	41	44	45
219	19	40	35	41	43
220	16	6	4	21	18
220	17	6	4	21	18
220	18	6	4	21	18
221	19	28	27	29	30
222	14	51	52	54	56
223	13	2	1	49	51
224	19	91	89	92	93
225	15	77	76	79	82
226	19	90	89	92	93
227	16	79	82	89	92
227	17	79	82	89	92
227	18	79	82	89	92
228	15	11	9	12	18
229	15	55	54	52	68
230	14	59	57	60	61
231	14	11	9	12	13
232	19	64	60	65	66
233	14	72	73	74	76
234	15	73	74	76	77
235	21	14	25	26	27
235	22	14	25	26	27
236	16	52	68	65	60
236	17	52	68	65	60
236	18	52	68	65	60
237	15	74	92	89	91
238	15	10	9	12	18
239	19	28	27	26	48
240	14	10	9	12	13
241	14	3	4	21	18
242	15	29	27	44	45
243	14	58	57	60	61
244	15	75	74	76	79
245	19	80	79	82	88
246	15	54	52	68	69
247	15	39	36	35	41
248	30	36	37	72	73
249	19	56	54	57	59
250	16	57	54	52	68
250	17	57	54	52	68
250	18	57	54	52	68
251	15	78	76	74	92
252	16	79	76	74	92
252	17	79	76	74	92
252	18	79	76	74	92
253	7	24	3	1	49
253	8	24	3	1	49
254	14	79	82	83	84
255	16	29	32	35	41
255	17	29	32	35	41
255	18	29	32	35	41
256	14	51	52	68	69
257	19	75	74	73	95
258	15	82	89	92	93
259	19	78	76	79	80
260	15	32	35	36	38
261	14	3	4	21	22
262	32	60	61	62	63
263	19	11	9	12	17
264	16	74	76	79	82
264	17	74	76	79	82
264	18	74	76	79	82
265	15	73	74	92	94
266	15	17	12	18	21
267	19	38	36	35	40
268	13	3	1	49	50
269	16	9	6	4	21
269	17	9	6	4	21
269	18	9	6	4	21
270	14	37	36	35	41
271	15	52	54	57	58
272	23	38	36	37	72
273	15	60	65	68	69
274	16	83	82	89	92
274	17	83	82	89	92
274	18	83	82	89	92
275	19	28	27	44	45
276	16	27	29	32	35
276	17	27	29	32	35
276	18	27	29	32	35
277	15	78	76	79	82
278	15	27	29	32	34
279	1	54	52	51	71
279	2	54	52	51	71
280	14	54	57	60	61
281	19	28	27	26	47
282	19	88	82	89	90
283	15	76	74	92	94
284	14	61	60	65	68
285	1	53	52	51	71
285	2	53	52	51	71
286	19	42	41	44	45
287	19	19	18	21	22
288	15	28	27	44	41
289	16	32	35	41	44
289	17	32	35	41	44
289	18	32	35	41	44
290	15	12	18	21	22
291	16	26	27	29	32
291	17	26	27	29	32
291	18	26	27	29	32
292	14	13	12	18	21
293	31	57	60	61	62
294	19	67	65	68	69
295	15	80	79	82	89
296	15	80	79	82	83
297	19	55	54	57	58
298	15	83	82	89	90
299	1	6	4	3	24
299	2	6	4	3	24
300	15	76	74	73	96
301	35	85	84	83	86
302	15	87	83	82	89
303	16	9	12	18	21
303	17	9	12	18	21
303	18	9	12	18	21
304	26	15	14	25	26
304	27	15	14	25	26
305	1	9	12	13	16
305	2	9	12	13	16

Impropers

17	1	51	71	49	52
20	1	13	14	16	12
45	1	3	4	24	1
64	2	49	1	50	51
67	3	14	25	13	15
85	1	13	16	12	14
135	2	1	3	49	2
137	1	51	52	71	49
255	1	13	12	14	16
318	3	14	13	15	25
363	1	3	24	1	4
440	2	49	50	51	1
457	2	1	49	2	3
518	1	3	1	4	24
519	2	49	51	1	50
593	3	14	15	25	13
688	1	51	49	52	71
693	2	1	2	3	49
