Title

74 atoms
73 bonds
132 angles
238 dihedrals
18 impropers

11 atom types
14 bond types
9 angle types
35 dihedral types
3 improper types
-12.50599957 87.49400043 xlo xhi
-2.693000078 97.30699992 ylo yhi
-7.673999786 92.32600021 zlo zhi
0.0 0.0 0.0 xy xz yz

Masses

1	12.01078
2	15.99943
3	14.00672
4	12.01078
5	1.007947
6	1.007947
7	1.007947
8	15.99943
9	12.01078
10	15.99943
11	1.007947


Pair Coeffs

1	0.086879315	3.4806469
2	0.2102061	3.0398122
3	0.16769152	3.206876
4	0.10884061	3.3795318
5	0.014090815	1.1034277
6	0.016409246	2.5832257
7	0.015779483	2.6445434
8	0.16846514	3.0251065
9	0.21	3.3996695
10	0.20947353	2.99716
11	1.2326e-05	0.53453923

Bond Coeffs

1 harmonic	582.698766451	1.225198386222
2 harmonic	492.76746816345	1.381897776683
3 harmonic	279.1350963404	1.454628925034
4 harmonic	352.0565580496	1.450098586273
5 harmonic	505.144496193	1.019481865027
6 harmonic	264.62148576755	1.52190126495
7 harmonic	370.04670688625	1.093899492634
8 harmonic	301.15400723785	1.345741232799
9 harmonic	366.7408841747	1.425895053732
10 harmonic	300.03137914615	1.451203938761
11 harmonic	366.34047229585	1.464762957261
12 harmonic	602.81384337	1.196112346392
13 harmonic	329.96998057905	1.427343958716
14 harmonic	543.5267831885	0.9716763312559


Angle Coeffs

1 harmonic	55.42182150775	117.3465570514
2 harmonic	63.44422595415	115.5071327674
3 harmonic	57.8982893754	126.8062420451
4 harmonic	53.20531626545	116.5475862634
5 harmonic	65.09061609600001	110.3538806181
6 harmonic	201.41175231035	127.4691416191
7 harmonic	48.776492647595	115.6030999533
8 harmonic	55.07882548015	112.8714009681
9 harmonic	33.56981613361	180


Dihedral Coeffs

1 fourier 1	-0.1488678166443	4	180
2 fourier 1	-0.1230328948768	3	180
3 fourier 1	0.2939295466901	2	0
4 fourier 1	-0.3024127022865	1	0
5 fourier 1	0.182238503271	2	0
6 fourier 1	0.02972342374561	3	0
7 fourier 1	1.809047390003	2	180
8 fourier 1	-0.04816277792592	1	0
9 fourier 1	3.101948770557	2	180
10 fourier 1	-0.4252153282372	1	0
11 fourier 1	2.348375642009	2	180
12 fourier 1	1.256156174911	1	0
13 fourier 1	0.9974165607242	2	180
14 fourier 1	0.1155372516788	3	0
15 fourier 1	0.09223874044423	3	0
16 fourier 1	0.3159935921949	2	180
17 fourier 1	0.3247796806857	1	180
18 fourier 1	0.1040663847541	3	0
19 fourier 1	2.779853741805	2	180
20 fourier 1	0.1918272375143	3	0
21 fourier 1	0.9202179876409	1	180
22 fourier 1	0.0473758381877	3	0
23 fourier 1	0.4860993122944	2	180
24 fourier 1	0.8916986138746	1	0
25 fourier 1	1.163809172478	2	180
26 fourier 1	0.1679186987369	1	180
27 fourier 1	0.1911926717192	3	0
28 fourier 1	0.1115525666802	3	0
29 fourier 1	0.3432490222662	1	0
30 fourier 1	0.457973137376	1	0
31 fourier 1	-1.382973039546	1	0
32 fourier 1	0	1	0
33 fourier 1	0.3445382149273	3	0
34 fourier 1	0.1364556373303	1	0
35 fourier 1	0.3026390167484	3	0


Improper Coeffs

1 0.3333333333333333	-1	2
2 0.3666666666666667	-1	2
3 3.5	-1	2


Atoms

1	1	1	0.54505199	-4.6939998	1.331	-0.38600001
2	1	2	-0.67300397	-5.1230001	1.428	0.79500002
3	1	3	-0.51971298	-3.4430001	0.69599998	-0.66100001
4	1	4	0.032419	-2.6159999	0.13600001	0.40700001
5	1	4	-0.144531	-1.3329999	-0.479	-0.161
6	1	4	-0.141166	-0.45199999	-1.053	0.95899999
7	1	4	-0.141166	0.75700003	-1.8430001	0.42699999
8	1	4	-0.143241	1.749	-1.023	-0.41800001
9	1	4	0.026651001	2.3959999	0.12800001	0.36399999
10	1	3	-0.463074	3.4519999	0.76200002	-0.42399999
11	1	1	0.78864402	4.2150002	1.858	0.088
12	1	2	-0.59855998	3.9979999	2.3099999	1.244
13	1	5	0.32848001	3.668	0.42500001	-1.39
14	1	6	0.061168998	1.6289999	0.89200002	0.61000001
15	1	6	0.061168998	2.832	-0.264	1.309
16	1	7	0.091311999	1.249	-0.62900001	-1.3279999
17	1	7	0.091311999	2.55	-1.7130001	-0.75999999
18	1	7	0.090016	1.301	-2.2809999	1.293
19	1	7	0.090016	0.38800001	-2.6930001	-0.186
20	1	7	0.090016	-0.114	-0.237	1.633
21	1	7	0.090016	-1.063	-1.749	1.574
22	1	7	0.091311999	-0.77499998	0.31	-0.708
23	1	7	0.091311999	-1.602	-1.289	-0.875
24	1	6	0.057556	-3.1960001	-0.64499998	0.94499999
25	1	6	0.057556	-2.352	0.94400001	1.125
26	1	5	0.32190001	-3.1300001	0.63999999	-1.6569999
27	1	8	-0.495738	4.9559999	2.2869999	-0.49700001
28	1	4	0.126488	5.6240001	1.232	-1.135
29	1	4	-0.13219699	6.5440001	0.495	-0.156
30	1	4	0.044911999	7.658	1.403	0.37400001
31	1	8	-0.16184001	8.5120001	0.67799997	1.2180001
32	1	6	0.092713997	7.2259998	2.2720001	0.92000002
33	1	6	0.092713997	8.2539997	1.793	-0.477
34	1	7	0.101424	7.0009999	-0.373	-0.67900002
35	1	7	0.101424	5.9419999	0.105	0.69400001
36	1	6	0.090141997	4.888	0.51700002	-1.566
37	1	6	0.090141997	6.224	1.642	-1.976
38	1	1	0.54505199	-5.2810001	1.734	-1.2
39	1	2	-0.67300397	-5.3039999	1.13	-2.3050001
40	1	3	-0.51971298	-6.013	2.95	-1.011
41	1	4	0.032419	-6.8260002	3.556	-2.0639999
42	1	4	-0.144531	-8.1389999	2.786	-2.2379999
43	1	4	-0.140983	-9.0120001	3.427	-3.3280001
44	1	4	-0.136786	-10.394	2.7650001	-3.4449999
45	1	4	-0.12097	-10.327	1.36	-4.0650001
46	1	4	0.185748	-11.726	0.75800002	-4.27
47	1	3	-0.62649697	-12.506	1.5190001	-5.2420001
48	1	9	0.59431201	-12.193	1.558	-6.4749999
49	1	2	-0.449065	-11.887	1.597	-7.6739998
50	1	6	0.035395999	-11.632	-0.29699999	-4.6100001
51	1	6	0.035395999	-12.269	0.75099999	-3.3010001
52	1	7	0.084927	-9.7629995	0.68199998	-3.3900001
53	1	7	0.084927	-9.7910004	1.397	-5.0380001
54	1	7	0.088729002	-10.874	2.7149999	-2.4430001
55	1	7	0.088729002	-11.027	3.415	-4.0879998
56	1	7	0.090016	-9.1660004	4.4990001	-3.079
57	1	7	0.090016	-8.4879999	3.381	-4.3080001
58	1	7	0.091311999	-7.9089999	1.7359999	-2.513
59	1	7	0.091311999	-8.6890001	2.7869999	-1.271
60	1	6	0.057556	-6.2540002	3.572	-3.0179999
61	1	6	0.057556	-7.053	4.6069999	-1.783
62	1	5	0.32190001	-5.9109998	3.4530001	-0.101
63	1	8	-0.16108	8.033	0.56800002	2.0799999
64	1	4	0.053339001	8.8380003	1.16	3.0650001
65	1	4	-0.16724101	10.045	0.273	3.3900001
66	1	4	0.10039	9.6190004	-1.072	3.987
67	1	10	-0.67837501	10.749	-1.829	4.3270001
68	1	11	0.38865799	11.115	-2.1900001	3.4779999
69	1	6	0.086455002	8.9829998	-1.635	3.266
70	1	6	0.086455002	9.0229998	-0.898	4.908
71	1	7	0.105419	10.692	0.80500001	4.1199999
72	1	7	0.105419	10.638	0.102	2.4649999
73	1	6	0.092584997	9.191	2.1589999	2.7219999
74	1	6	0.092584997	8.2299995	1.317	3.9809999

Bonds

1	1	1	2
2	2	1	3
3	3	1	38
4	4	3	4
5	5	3	26
6	6	4	5
7	7	4	24
8	7	4	25
9	6	5	6
10	7	5	22
11	7	5	23
12	6	6	7
13	7	6	20
14	7	6	21
15	6	7	8
16	7	7	18
17	7	7	19
18	6	8	9
19	7	8	16
20	7	8	17
21	4	9	10
22	7	9	14
23	7	9	15
24	2	10	11
25	5	10	13
26	1	11	12
27	8	11	27
28	9	27	28
29	6	28	29
30	7	28	36
31	7	28	37
32	6	29	30
33	7	29	34
34	7	29	35
35	9	30	31
36	7	30	32
37	7	30	33
38	10	31	63
39	1	38	39
40	2	38	40
41	4	40	41
42	5	40	62
43	6	41	42
44	7	41	60
45	7	41	61
46	6	42	43
47	7	42	58
48	7	42	59
49	6	43	44
50	7	43	56
51	7	43	57
52	6	44	45
53	7	44	54
54	7	44	55
55	6	45	46
56	7	45	52
57	7	45	53
58	11	46	47
59	7	46	50
60	7	46	51
61	12	47	48
62	1	48	49
63	9	63	64
64	6	64	65
65	7	64	73
66	7	64	74
67	6	65	66
68	7	65	71
69	7	65	72
70	13	66	67
71	7	66	69
72	7	66	70
73	14	67	68

Angles

1	4	29	30	31
2	7	52	45	53
3	4	65	64	73
4	4	7	6	21
5	4	6	7	19
6	4	30	29	35
7	4	3	4	24
8	4	31	30	33
9	4	27	28	36
10	4	66	65	71
11	4	63	64	73
12	4	5	6	7
13	4	6	5	22
14	4	8	9	10
15	4	5	6	20
16	4	42	43	44
17	4	4	5	22
18	7	18	7	19
19	4	45	44	54
20	7	54	44	55
21	4	3	4	5
22	4	27	28	37
23	4	40	41	60
24	4	42	41	60
25	4	10	9	14
26	4	45	46	50
27	4	63	64	65
28	5	66	67	68
29	4	44	45	52
30	4	42	43	56
31	7	69	66	70
32	4	46	45	52
33	5	11	27	28
34	4	67	66	69
35	4	45	44	55
36	4	4	5	6
37	4	9	8	17
38	4	41	42	58
39	4	65	66	67
40	2	9	10	13
41	4	40	41	61
42	3	10	11	27
43	4	5	4	24
44	4	27	28	29
45	7	36	28	37
46	4	43	44	45
47	8	46	47	48
48	4	10	9	15
49	4	45	46	51
50	4	44	45	53
51	4	42	43	57
52	4	29	30	32
53	4	65	64	74
54	3	10	11	12
55	4	45	46	47
56	4	41	42	59
57	4	7	8	16
58	7	20	6	21
59	7	56	43	57
60	7	73	64	74
61	4	64	65	66
62	4	3	4	25
63	4	47	46	50
64	4	6	7	8
65	4	29	30	33
66	4	28	29	34
67	4	66	65	72
68	4	63	64	74
69	1	1	3	4
70	4	64	65	71
71	4	44	43	56
72	6	12	11	27
73	3	39	38	40
74	4	7	8	17
75	7	22	5	23
76	7	71	65	72
77	4	6	5	23
78	4	5	6	21
79	4	43	42	58
80	4	28	29	30
81	7	14	9	15
82	4	4	5	23
83	4	8	7	18
84	4	47	46	51
85	3	1	38	39
86	3	3	1	38
87	4	43	44	54
88	4	44	45	46
89	2	38	40	62
90	4	42	41	61
91	4	8	9	14
92	4	29	28	36
93	4	41	42	43
94	4	46	45	53
95	4	8	7	19
96	4	7	6	20
97	4	67	66	70
98	4	29	28	37
99	7	32	30	33
100	4	43	44	55
101	4	5	4	25
102	2	4	3	26
103	4	8	9	15
104	4	40	41	42
105	4	30	29	34
106	7	24	4	25
107	7	50	46	51
108	4	65	66	69
109	4	7	8	9
110	9	47	48	49
111	7	60	41	61
112	2	41	40	62
113	1	9	10	11
114	5	31	63	64
115	4	28	29	35
116	4	64	65	72
117	4	44	43	57
118	3	2	1	38
119	4	65	66	70
120	2	11	10	13
121	5	30	31	63
122	4	43	42	59
123	7	58	42	59
124	7	34	29	35
125	4	9	8	16
126	3	1	38	40
127	4	6	7	18
128	7	16	8	17
129	3	2	1	3
130	2	1	3	26
131	1	38	40	41
132	4	31	30	32

Dihedrals

1	27	50	46	45	53
2	28	63	64	65	72
2	29	63	64	65	72
3	18	28	29	30	33
4	5	13	10	9	14
4	6	13	10	9	14
5	23	12	11	10	13
5	24	12	11	10	13
6	22	29	30	31	63
7	28	67	66	65	72
7	29	67	66	65	72
8	27	57	43	42	58
9	18	42	43	44	54
10	14	44	45	46	47
11	7	1	38	40	62
11	8	1	38	40	62
12	27	59	42	41	60
13	27	23	5	4	25
14	5	60	41	40	62
14	6	60	41	40	62
15	27	18	7	6	21
16	22	31	63	64	74
17	15	4	5	6	7
17	16	4	5	6	7
17	17	4	5	6	7
18	7	4	3	1	38
18	8	4	3	1	38
19	5	38	40	41	60
19	6	38	40	41	60
20	33	65	66	67	68
20	34	65	66	67	68
21	11	2	1	3	26
21	12	2	1	3	26
22	27	20	6	5	22
23	31	48	47	46	50
24	27	17	8	7	19
25	5	1	3	4	25
25	6	1	3	4	25
26	32	46	47	48	49
27	18	46	45	44	54
28	18	5	6	7	18
29	5	42	41	40	62
29	6	42	41	40	62
30	27	59	42	41	61
31	18	64	65	66	69
32	35	68	67	66	70
33	18	6	5	4	24
34	14	10	9	8	16
35	27	21	6	5	22
36	18	7	6	5	23
37	15	43	44	45	46
37	16	43	44	45	46
37	17	43	44	45	46
38	22	11	27	28	36
39	27	20	6	5	23
40	19	10	11	27	28
41	31	48	47	46	51
42	13	2	1	38	39
43	18	66	65	64	74
44	27	52	45	44	55
45	5	5	4	3	26
45	6	5	4	3	26
46	18	46	45	44	55
47	18	5	6	7	19
48	18	45	44	43	56
49	28	31	30	29	34
49	29	31	30	29	34
50	15	41	42	43	44
50	16	41	42	43	44
50	17	41	42	43	44
51	18	43	42	41	61
52	18	8	7	6	20
53	18	64	65	66	70
54	27	15	9	8	16
55	27	21	6	5	23
56	27	14	9	8	16
57	5	61	41	40	62
57	6	61	41	40	62
58	13	2	1	38	40
59	11	39	38	40	62
59	12	39	38	40	62
60	14	47	46	45	53
61	27	56	43	42	58
62	14	63	64	65	66
63	27	22	5	4	25
64	27	69	66	65	71
65	5	8	9	10	13
65	6	8	9	10	13
66	5	11	10	9	15
66	6	11	10	9	15
67	7	13	10	11	27
67	8	13	10	11	27
68	18	41	42	43	56
69	18	45	44	43	57
70	9	2	1	3	4
70	10	2	1	3	4
71	28	27	28	29	34
71	29	27	28	29	34
72	18	4	5	6	20
73	28	31	30	29	35
73	29	31	30	29	35
74	5	13	10	9	15
74	6	13	10	9	15
75	27	15	9	8	17
76	31	45	46	47	48
77	18	42	43	44	55
78	27	57	43	42	59
79	27	16	8	7	18
80	14	3	4	5	22
81	27	56	43	42	59
82	14	27	28	29	30
83	27	55	44	43	56
84	14	64	65	66	67
85	5	25	4	3	26
85	6	25	4	3	26
86	7	1	38	40	41
86	8	1	38	40	41
87	14	7	8	9	10
88	5	38	40	41	61
88	6	38	40	41	61
89	18	30	29	28	36
90	27	33	30	29	34
91	14	40	41	42	58
92	27	34	29	28	36
93	18	4	5	6	21
94	27	19	7	6	20
95	27	16	8	7	19
96	27	32	30	29	34
97	14	3	4	5	6
98	14	28	29	30	31
99	14	40	41	42	43
100	18	6	5	4	25
101	14	10	9	8	17
102	27	71	65	64	73
103	27	33	30	29	35
104	22	11	27	28	37
105	14	40	41	42	59
106	7	9	10	11	27
106	8	9	10	11	27
107	27	35	29	28	36
108	30	30	31	63	64
109	1	38	40	41	42
109	2	38	40	41	42
109	3	38	40	41	42
109	4	38	40	41	42
110	13	3	1	38	39
111	27	70	66	65	71
112	18	43	44	45	52
113	18	6	7	8	16
114	18	7	8	9	14
115	18	44	45	46	50
116	27	51	46	45	52
117	27	32	30	29	35
118	27	50	46	45	52
119	22	33	30	31	63
120	28	63	64	65	71
120	29	63	64	65	71
121	18	8	7	6	21
122	7	9	10	11	12
122	8	9	10	11	12
123	22	32	30	31	63
124	27	71	65	64	74
125	27	14	9	8	17
126	15	5	6	7	8
126	16	5	6	7	8
126	17	5	6	7	8
127	20	11	27	28	29
127	21	11	27	28	29
128	27	18	7	6	20
129	27	70	66	65	72
130	15	6	7	8	9
130	16	6	7	8	9
130	17	6	7	8	9
131	18	6	7	8	17
132	27	69	66	65	72
133	9	39	38	40	41
133	10	39	38	40	41
134	27	51	46	45	53
135	18	41	42	43	57
136	27	58	42	41	60
137	28	27	28	29	35
137	29	27	28	29	35
138	27	17	8	7	18
139	5	1	3	4	24
139	6	1	3	4	24
140	14	3	4	5	23
141	15	42	43	44	45
141	16	42	43	44	45
141	17	42	43	44	45
142	27	55	44	43	57
143	35	68	67	66	69
144	18	9	8	7	18
145	22	31	63	64	65
146	27	72	65	64	73
147	18	30	29	28	37
148	18	7	6	5	22
149	27	53	45	44	54
150	27	54	44	43	56
151	27	58	42	41	61
152	27	34	29	28	37
153	18	66	65	64	73
154	27	52	45	44	54
155	18	44	43	42	58
156	27	19	7	6	21
157	1	1	3	4	5
157	2	1	3	4	5
157	3	1	3	4	5
157	4	1	3	4	5
158	25	12	11	27	28
158	26	12	11	27	28
159	1	8	9	10	11
159	2	8	9	10	11
159	3	8	9	10	11
159	4	8	9	10	11
160	18	28	29	30	32
161	18	43	42	41	60
162	18	9	8	7	19
163	28	67	66	65	71
163	29	67	66	65	71
164	27	72	65	64	74
165	27	54	44	43	57
166	27	53	45	44	55
167	27	35	29	28	37
168	27	23	5	4	24
169	14	47	46	45	52
170	18	44	43	42	59
171	13	3	1	38	40
172	7	26	3	1	38
172	8	26	3	1	38
173	22	31	63	64	73
174	5	24	4	3	26
174	6	24	4	3	26
175	27	22	5	4	24
176	18	43	44	45	53
177	18	7	8	9	15
178	18	44	45	46	51
179	5	11	10	9	14
179	6	11	10	9	14

Impropers

41	1	3	26	1	4
43	1	10	13	9	11
61	1	10	11	13	9
70	2	38	40	1	39
89	3	11	10	12	27
105	1	40	38	41	62
120	2	1	2	3	38
123	1	3	1	4	26
144	2	1	38	2	3
167	1	40	62	38	41
218	2	38	39	40	1
222	1	10	9	11	13
236	3	11	12	27	10
244	2	1	3	38	2
264	1	3	4	26	1
394	1	40	41	62	38
438	3	11	27	10	12
457	2	38	1	39	40
