Title

74 atoms
73 bonds
132 angles
238 dihedrals
18 impropers

11 atom types
14 bond types
9 angle types
35 dihedral types
3 improper types
-12.50599957 87.49400043 xlo xhi
-2.693000078 97.30699992 ylo yhi
-7.673999786 92.32600021 zlo zhi
0.0 0.0 0.0 xy xz yz

Masses

1	12.01078
2	15.99943
3	14.00672
4	12.01078
5	1.007947
6	1.007947
7	1.007947
8	15.99943
9	12.01078
10	15.99943
11	1.007947


Pair Coeffs

1	0.086879315	3.4806469
2	0.2102061	3.0398122
3	0.16769152	3.206876
4	0.10884061	3.3795318
5	0.014090815	1.1034277
6	0.016409246	2.5832257
7	0.015779483	2.6445434
8	0.16846514	3.0251065
9	0.21	3.3996695
10	0.20947353	2.99716
11	1.2326e-05	0.53453923

Bond Coeffs

1 harmonic	582.698766451	1.225198386222
2 harmonic	492.76746816345	1.381897776683
3 harmonic	279.1350963404	1.454628925034
4 harmonic	352.0565580496	1.450098586273
5 harmonic	505.144496193	1.019481865027
6 harmonic	264.62148576755	1.52190126495
7 harmonic	370.04670688625	1.093899492634
8 harmonic	301.15400723785	1.345741232799
9 harmonic	366.7408841747	1.425895053732
10 harmonic	300.03137914615	1.451203938761
11 harmonic	366.34047229585	1.464762957261
12 harmonic	602.81384337	1.196112346392
13 harmonic	329.96998057905	1.427343958716
14 harmonic	543.5267831885	0.9716763312559


Angle Coeffs

1 harmonic	55.42182150775	117.3465570514
2 harmonic	63.44422595415	115.5071327674
3 harmonic	57.8982893754	126.8062420451
4 harmonic	53.20531626545	116.5475862634
5 harmonic	65.09061609600001	110.3538806181
6 harmonic	201.41175231035	127.4691416191
7 harmonic	48.776492647595	115.6030999533
8 harmonic	55.07882548015	112.8714009681
9 harmonic	33.56981613361	180


Dihedral Coeffs

1 fourier 1	-0.1488678166443	4	180
2 fourier 1	-0.1230328948768	3	180
3 fourier 1	0.2939295466901	2	0
4 fourier 1	-0.3024127022865	1	0
5 fourier 1	0.182238503271	2	0
6 fourier 1	0.02972342374561	3	0
7 fourier 1	1.809047390003	2	180
8 fourier 1	-0.04816277792592	1	0
9 fourier 1	3.101948770557	2	180
10 fourier 1	-0.4252153282372	1	0
11 fourier 1	2.348375642009	2	180
12 fourier 1	1.256156174911	1	0
13 fourier 1	0.9974165607242	2	180
14 fourier 1	0.1155372516788	3	0
15 fourier 1	0.09223874044423	3	0
16 fourier 1	0.3159935921949	2	180
17 fourier 1	0.3247796806857	1	180
18 fourier 1	0.1040663847541	3	0
19 fourier 1	2.779853741805	2	180
20 fourier 1	0.1918272375143	3	0
21 fourier 1	0.9202179876409	1	180
22 fourier 1	0.0473758381877	3	0
23 fourier 1	0.4860993122944	2	180
24 fourier 1	0.8916986138746	1	0
25 fourier 1	1.163809172478	2	180
26 fourier 1	0.1679186987369	1	180
27 fourier 1	0.1911926717192	3	0
28 fourier 1	0.1115525666802	3	0
29 fourier 1	0.3432490222662	1	0
30 fourier 1	0.457973137376	1	0
31 fourier 1	-1.382973039546	1	0
32 fourier 1	0	1	0
33 fourier 1	0.3445382149273	3	0
34 fourier 1	0.1364556373303	1	0
35 fourier 1	0.3026390167484	3	0


Improper Coeffs

1 0.3333333333333333	-1	2
2 0.3666666666666667	-1	2
3 3.5	-1	2


Atoms

1	1	1	0.54505199	-4.6939998	1.331	-0.38600001
2	1	2	-0.67300397	-5.1230001	1.428	0.79500002
3	1	3	-0.51971298	-3.4430001	0.69599998	-0.66100001
4	1	4	0.032419	-2.6159999	0.13600001	0.40700001
5	1	4	-0.144531	-1.3329999	-0.479	-0.161
6	1	4	-0.141166	-0.45199999	-1.053	0.95899999
7	1	4	-0.141166	0.75700003	-1.8430001	0.42699999
8	1	4	-0.143241	1.749	-1.023	-0.41800001
9	1	4	0.026651001	2.3959999	0.12800001	0.36399999
10	1	3	-0.463074	3.4519999	0.76200002	-0.42399999
11	1	1	0.78864402	4.2150002	1.858	0.088
12	1	2	-0.59855998	3.9979999	2.3099999	1.244
13	1	5	0.32848001	3.668	0.42500001	-1.39
14	1	6	0.061168998	1.6289999	0.89200002	0.61000001
15	1	6	0.061168998	2.832	-0.264	1.309
16	1	7	0.091311999	1.249	-0.62900001	-1.3279999
17	1	7	0.091311999	2.55	-1.7130001	-0.75999999
18	1	7	0.090016	1.301	-2.2809999	1.293
19	1	7	0.090016	0.38800001	-2.6930001	-0.186
20	1	7	0.090016	-0.114	-0.237	1.633
21	1	7	0.090016	-1.063	-1.749	1.574
22	1	7	0.091311999	-0.77499998	0.31	-0.708
23	1	7	0.091311999	-1.602	-1.289	-0.875
24	1	6	0.057556	-3.1960001	-0.64499998	0.94499999
25	1	6	0.057556	-2.352	0.94400001	1.125
26	1	5	0.32190001	-3.1300001	0.63999999	-1.6569999
27	1	8	-0.495738	4.9559999	2.2869999	-0.49700001
28	1	4	0.126488	5.6240001	1.232	-1.135
29	1	4	-0.13219699	6.5440001	0.495	-0.156
30	1	4	0.044911999	7.658	1.403	0.37400001
31	1	8	-0.16184001	8.5120001	0.67799997	1.2180001
32	1	6	0.092713997	7.2259998	2.2720001	0.92000002
33	1	6	0.092713997	8.2539997	1.793	-0.477
34	1	7	0.101424	7.0009999	-0.373	-0.67900002
35	1	7	0.101424	5.9419999	0.105	0.69400001
36	1	6	0.090141997	4.888	0.51700002	-1.566
37	1	6	0.090141997	6.224	1.642	-1.976
38	1	1	0.54505199	-5.2810001	1.734	-1.2
39	1	2	-0.67300397	-5.3039999	1.13	-2.3050001
40	1	3	-0.51971298	-6.013	2.95	-1.011
41	1	4	0.032419	-6.8260002	3.556	-2.0639999
42	1	4	-0.144531	-8.1389999	2.786	-2.2379999
43	1	4	-0.140983	-9.0120001	3.427	-3.3280001
44	1	4	-0.136786	-10.394	2.7650001	-3.4449999
45	1	4	-0.12097	-10.327	1.36	-4.0650001
46	1	4	0.185748	-11.726	0.75800002	-4.27
47	1	3	-0.62649697	-12.506	1.5190001	-5.2420001
48	1	9	0.59431201	-12.193	1.558	-6.4749999
49	1	2	-0.449065	-11.887	1.597	-7.6739998
50	1	6	0.035395999	-11.632	-0.29699999	-4.6100001
51	1	6	0.035395999	-12.269	0.75099999	-3.3010001
52	1	7	0.084927	-9.7629995	0.68199998	-3.3900001
53	1	7	0.084927	-9.7910004	1.397	-5.0380001
54	1	7	0.088729002	-10.874	2.7149999	-2.4430001
55	1	7	0.088729002	-11.027	3.415	-4.0879998
56	1	7	0.090016	-9.1660004	4.4990001	-3.079
57	1	7	0.090016	-8.4879999	3.381	-4.3080001
58	1	7	0.091311999	-7.9089999	1.7359999	-2.513
59	1	7	0.091311999	-8.6890001	2.7869999	-1.271
60	1	6	0.057556	-6.2540002	3.572	-3.0179999
61	1	6	0.057556	-7.053	4.6069999	-1.783
62	1	5	0.32190001	-5.9109998	3.4530001	-0.101
63	1	8	-0.16108	8.033	0.56800002	2.0799999
64	1	4	0.053339001	8.8380003	1.16	3.0650001
65	1	4	-0.16724101	10.045	0.273	3.3900001
66	1	4	0.10039	9.6190004	-1.072	3.987
67	1	10	-0.67837501	10.749	-1.829	4.3270001
68	1	11	0.38865799	11.115	-2.1900001	3.4779999
69	1	6	0.086455002	8.9829998	-1.635	3.266
70	1	6	0.086455002	9.0229998	-0.898	4.908
71	1	7	0.105419	10.692	0.80500001	4.1199999
72	1	7	0.105419	10.638	0.102	2.4649999
73	1	6	0.092584997	9.191	2.1589999	2.7219999
74	1	6	0.092584997	8.2299995	1.317	3.9809999

Bonds

1	1	1	2
2	2	1	3
3	3	1	38
4	4	3	4
5	5	3	26
6	6	4	5
7	7	4	24
8	7	4	25
9	6	5	6
10	7	5	22
11	7	5	23
12	6	6	7
13	7	6	20
14	7	6	21
15	6	7	8
16	7	7	18
17	7	7	19
18	6	8	9
19	7	8	16
20	7	8	17
21	4	9	10
22	7	9	14
23	7	9	15
24	2	10	11
25	5	10	13
26	1	11	12
27	8	11	27
28	9	27	28
29	6	28	29
30	7	28	36
31	7	28	37
32	6	29	30
33	7	29	34
34	7	29	35
35	9	30	31
36	7	30	32
37	7	30	33
38	10	31	63
39	1	38	39
40	2	38	40
41	4	40	41
42	5	40	62
43	6	41	42
44	7	41	60
45	7	41	61
46	6	42	43
47	7	42	58
48	7	42	59
49	6	43	44
50	7	43	56
51	7	43	57
52	6	44	45
53	7	44	54
54	7	44	55
55	6	45	46
56	7	45	52
57	7	45	53
58	11	46	47
59	7	46	50
60	7	46	51
61	12	47	48
62	1	48	49
63	9	63	64
64	6	64	65
65	7	64	73
66	7	64	74
67	6	65	66
68	7	65	71
69	7	65	72
70	13	66	67
71	7	66	69
72	7	66	70
73	14	67	68

Angles

1	7	73	64	74
2	4	7	8	16
3	4	65	64	74
4	1	1	3	4
5	4	3	4	5
6	2	41	40	62
7	2	1	3	26
8	4	6	5	23
9	4	64	65	72
10	4	44	43	57
11	3	39	38	40
12	4	7	8	9
13	4	3	4	24
14	4	29	30	32
15	4	44	45	53
16	4	29	28	37
17	2	11	10	13
18	5	30	31	63
19	4	6	7	8
20	4	45	44	54
21	8	46	47	48
22	7	16	8	17
23	2	38	40	62
24	4	43	44	45
25	4	30	29	34
26	4	7	8	17
27	7	22	5	23
28	4	5	6	21
29	4	43	44	55
30	4	67	66	70
31	4	4	5	22
32	4	42	43	44
33	7	18	7	19
34	1	9	10	11
35	4	42	43	57
36	4	5	6	20
37	4	30	29	35
38	5	66	67	68
39	2	9	10	13
40	4	28	29	35
41	4	6	7	19
42	4	46	45	53
43	7	54	44	55
44	5	11	27	28
45	4	65	66	70
46	4	65	64	73
47	3	1	38	39
48	7	36	28	37
49	4	27	28	36
50	4	29	30	31
51	4	5	4	24
52	4	65	66	67
53	4	44	43	56
54	7	32	30	33
55	4	6	5	22
56	4	31	30	33
57	7	52	45	53
58	4	7	6	21
59	4	8	9	14
60	7	34	29	35
61	4	41	42	59
62	4	8	7	18
63	3	3	1	38
64	4	63	64	74
65	4	7	6	20
66	3	2	1	3
67	4	8	9	15
68	4	27	28	37
69	4	64	65	66
70	4	40	41	61
71	4	3	4	25
72	4	45	46	51
73	9	47	48	49
74	4	44	45	52
75	4	67	66	69
76	4	41	42	58
77	4	66	65	71
78	4	27	28	29
79	4	47	46	51
80	7	50	46	51
81	4	43	44	54
82	3	10	11	27
83	7	56	43	57
84	3	10	11	12
85	5	31	63	64
86	4	65	66	69
87	4	28	29	30
88	4	40	41	60
89	4	5	6	7
90	7	20	6	21
91	4	45	44	55
92	7	60	41	61
93	4	64	65	71
94	7	71	65	72
95	7	24	4	25
96	4	41	42	43
97	7	58	42	59
98	4	63	64	65
99	4	45	46	50
100	4	4	5	6
101	4	43	42	58
102	4	46	45	52
103	4	42	41	61
104	4	29	30	33
105	6	12	11	27
106	4	63	64	73
107	7	69	66	70
108	4	9	8	17
109	4	47	46	50
110	4	5	4	25
111	4	6	7	18
112	4	10	9	14
113	4	42	43	56
114	4	4	5	23
115	4	44	45	46
116	4	66	65	72
117	2	4	3	26
118	3	1	38	40
119	3	2	1	38
120	4	9	8	16
121	4	8	9	10
122	1	38	40	41
123	7	14	9	15
124	4	40	41	42
125	4	8	7	19
126	4	29	28	36
127	4	43	42	59
128	4	10	9	15
129	4	31	30	32
130	4	28	29	34
131	4	45	46	47
132	4	42	41	60

Dihedrals

1	9	2	1	3	4
1	10	2	1	3	4
2	18	5	6	7	18
3	14	10	9	8	16
4	27	21	6	5	23
5	27	23	5	4	24
6	22	11	27	28	36
7	18	30	29	28	36
8	11	2	1	3	26
8	12	2	1	3	26
9	13	2	1	38	39
10	5	38	40	41	60
10	6	38	40	41	60
11	7	1	38	40	62
11	8	1	38	40	62
12	27	52	45	44	55
13	14	3	4	5	6
14	18	4	5	6	21
15	27	53	45	44	54
16	22	33	30	31	63
17	18	44	43	42	59
18	14	64	65	66	67
19	27	72	65	64	73
20	18	6	5	4	24
21	5	8	9	10	13
21	6	8	9	10	13
22	27	22	5	4	25
23	27	21	6	5	22
24	27	16	8	7	18
25	28	63	64	65	71
25	29	63	64	65	71
26	1	1	3	4	5
26	2	1	3	4	5
26	3	1	3	4	5
26	4	1	3	4	5
27	27	32	30	29	34
28	18	7	8	9	15
29	14	3	4	5	23
30	18	6	7	8	17
31	27	58	42	41	60
32	18	9	8	7	19
33	14	47	46	45	52
34	18	66	65	64	74
35	31	45	46	47	48
36	13	3	1	38	40
37	27	71	65	64	73
38	22	29	30	31	63
39	27	50	46	45	52
40	18	30	29	28	37
41	18	42	43	44	54
42	28	67	66	65	71
42	29	67	66	65	71
43	18	6	7	8	16
44	15	41	42	43	44
44	16	41	42	43	44
44	17	41	42	43	44
45	18	43	44	45	52
46	27	70	66	65	71
47	18	44	43	42	58
48	27	34	29	28	37
49	18	46	45	44	55
50	14	3	4	5	22
51	28	67	66	65	72
51	29	67	66	65	72
52	22	31	63	64	65
53	25	12	11	27	28
53	26	12	11	27	28
54	14	28	29	30	31
55	1	38	40	41	42
55	2	38	40	41	42
55	3	38	40	41	42
55	4	38	40	41	42
56	20	11	27	28	29
56	21	11	27	28	29
57	15	6	7	8	9
57	16	6	7	8	9
57	17	6	7	8	9
58	27	20	6	5	22
59	22	31	63	64	73
60	14	40	41	42	59
61	18	45	44	43	56
62	15	4	5	6	7
62	16	4	5	6	7
62	17	4	5	6	7
63	1	8	9	10	11
63	2	8	9	10	11
63	3	8	9	10	11
63	4	8	9	10	11
64	5	13	10	9	14
64	6	13	10	9	14
65	27	69	66	65	71
66	18	7	8	9	14
67	14	27	28	29	30
68	27	51	46	45	52
69	27	56	43	42	59
70	7	13	10	11	27
70	8	13	10	11	27
71	28	31	30	29	34
71	29	31	30	29	34
72	18	64	65	66	69
73	35	68	67	66	69
74	27	52	45	44	54
75	5	1	3	4	25
75	6	1	3	4	25
76	31	48	47	46	51
77	5	13	10	9	15
77	6	13	10	9	15
78	27	33	30	29	34
79	28	63	64	65	72
79	29	63	64	65	72
80	5	5	4	3	26
80	6	5	4	3	26
81	27	35	29	28	36
82	14	40	41	42	58
83	14	47	46	45	53
84	27	17	8	7	18
85	18	28	29	30	33
86	32	46	47	48	49
87	19	10	11	27	28
88	22	11	27	28	37
89	5	11	10	9	14
89	6	11	10	9	14
90	27	54	44	43	56
91	27	19	7	6	21
92	9	39	38	40	41
92	10	39	38	40	41
93	27	56	43	42	58
94	27	72	65	64	74
95	5	60	41	40	62
95	6	60	41	40	62
96	5	61	41	40	62
96	6	61	41	40	62
97	18	44	45	46	51
98	27	23	5	4	25
99	27	55	44	43	56
100	27	32	30	29	35
101	18	41	42	43	57
102	15	5	6	7	8
102	16	5	6	7	8
102	17	5	6	7	8
103	27	33	30	29	35
104	27	70	66	65	72
105	18	66	65	64	73
106	27	59	42	41	61
107	15	43	44	45	46
107	16	43	44	45	46
107	17	43	44	45	46
108	5	11	10	9	15
108	6	11	10	9	15
109	27	19	7	6	20
110	14	7	8	9	10
111	18	7	6	5	23
112	18	6	5	4	25
113	27	71	65	64	74
114	27	16	8	7	19
115	18	8	7	6	21
116	18	43	42	41	61
117	28	27	28	29	34
117	29	27	28	29	34
118	13	2	1	38	40
119	27	15	9	8	17
120	13	3	1	38	39
121	27	69	66	65	72
122	31	48	47	46	50
123	14	40	41	42	43
124	27	22	5	4	24
125	18	46	45	44	54
126	5	24	4	3	26
126	6	24	4	3	26
127	18	7	6	5	22
128	18	8	7	6	20
129	27	53	45	44	55
130	7	26	3	1	38
130	8	26	3	1	38
131	27	59	42	41	60
132	27	15	9	8	16
133	18	9	8	7	18
134	27	57	43	42	59
135	33	65	66	67	68
135	34	65	66	67	68
136	27	50	46	45	53
137	18	44	45	46	50
138	11	39	38	40	62
138	12	39	38	40	62
139	18	5	6	7	19
140	28	31	30	29	35
140	29	31	30	29	35
141	18	43	44	45	53
142	15	42	43	44	45
142	16	42	43	44	45
142	17	42	43	44	45
143	18	43	42	41	60
144	7	4	3	1	38
144	8	4	3	1	38
145	30	30	31	63	64
146	18	64	65	66	70
147	35	68	67	66	70
148	18	42	43	44	55
149	27	34	29	28	36
150	7	1	38	40	41
150	8	1	38	40	41
151	27	18	7	6	21
152	18	41	42	43	56
153	27	57	43	42	58
154	22	32	30	31	63
155	27	35	29	28	37
156	7	9	10	11	27
156	8	9	10	11	27
157	27	54	44	43	57
158	27	51	46	45	53
159	18	4	5	6	20
160	5	38	40	41	61
160	6	38	40	41	61
161	27	14	9	8	17
162	14	44	45	46	47
163	27	18	7	6	20
164	5	42	41	40	62
164	6	42	41	40	62
165	7	9	10	11	12
165	8	9	10	11	12
166	27	17	8	7	19
167	27	55	44	43	57
168	14	63	64	65	66
169	5	1	3	4	24
169	6	1	3	4	24
170	27	20	6	5	23
171	5	25	4	3	26
171	6	25	4	3	26
172	14	10	9	8	17
173	22	31	63	64	74
174	27	14	9	8	16
175	28	27	28	29	35
175	29	27	28	29	35
176	23	12	11	10	13
176	24	12	11	10	13
177	18	45	44	43	57
178	18	28	29	30	32
179	27	58	42	41	61

Impropers

8	1	3	1	4	26
23	2	38	40	1	39
38	2	1	38	2	3
56	3	11	10	12	27
89	1	10	13	9	11
121	1	3	4	26	1
128	3	11	12	27	10
140	1	40	38	41	62
187	1	40	41	62	38
225	2	1	3	38	2
258	2	38	39	40	1
260	1	40	62	38	41
288	2	38	1	39	40
295	2	1	2	3	38
394	1	3	26	1	4
397	3	11	27	10	12
416	1	10	11	13	9
453	1	10	9	11	13
