Title

188 atoms
187 bonds
360 angles
656 dihedrals
18 impropers

11 atom types
14 bond types
9 angle types
35 dihedral types
3 improper types
-25.00300026 74.99699974 xlo xhi
-15.14400005 84.85599995 ylo yhi
-11.76599979 88.23400021 zlo zhi
0.0 0.0 0.0 xy xz yz

Masses

1	12.01078
2	15.99943
3	14.00672
4	12.01078
5	1.007947
6	1.007947
7	1.007947
8	15.99943
9	12.01078
10	15.99943
11	1.007947


Pair Coeffs

1	0.086879315	3.4806469
2	0.2102061	3.0398122
3	0.16769152	3.206876
4	0.10884061	3.3795318
5	0.014090815	1.1034277
6	0.016409246	2.5832257
7	0.015779483	2.6445434
8	0.16846514	3.0251065
9	0.21	3.3996695
10	0.20947353	2.99716
11	1.2326e-05	0.53453923

Bond Coeffs

1 harmonic	582.698766451	1.225198386222
2 harmonic	492.76746816345	1.381897776683
3 harmonic	279.1350963404	1.454628925034
4 harmonic	352.0565580496	1.450098586273
5 harmonic	505.144496193	1.019481865027
6 harmonic	264.62148576755	1.52190126495
7 harmonic	370.04670688625	1.093899492634
8 harmonic	301.15400723785	1.345741232799
9 harmonic	366.7408841747	1.425895053732
10 harmonic	300.03137914615	1.451203938761
11 harmonic	366.34047229585	1.464762957261
12 harmonic	602.81384337	1.196112346392
13 harmonic	329.96998057905	1.427343958716
14 harmonic	543.5267831885	0.9716763312559


Angle Coeffs

1 harmonic	55.42182150775	117.3465570514
2 harmonic	63.44422595415	115.5071327674
3 harmonic	57.8982893754	126.8062420451
4 harmonic	53.20531626545	116.5475862634
5 harmonic	65.09061609600001	110.3538806181
6 harmonic	201.41175231035	127.4691416191
7 harmonic	48.776492647595	115.6030999533
8 harmonic	55.07882548015	112.8714009681
9 harmonic	33.56981613361	180


Dihedral Coeffs

1 fourier 1	-0.1488678166443	4	180
2 fourier 1	-0.1230328948768	3	180
3 fourier 1	0.2939295466901	2	0
4 fourier 1	-0.3024127022865	1	0
5 fourier 1	0.182238503271	2	0
6 fourier 1	0.02972342374561	3	0
7 fourier 1	1.809047390003	2	180
8 fourier 1	-0.04816277792592	1	0
9 fourier 1	3.101948770557	2	180
10 fourier 1	-0.4252153282372	1	0
11 fourier 1	2.348375642009	2	180
12 fourier 1	1.256156174911	1	0
13 fourier 1	0.9974165607242	2	180
14 fourier 1	0.1155372516788	3	0
15 fourier 1	0.09223874044423	3	0
16 fourier 1	0.3159935921949	2	180
17 fourier 1	0.3247796806857	1	180
18 fourier 1	0.1040663847541	3	0
19 fourier 1	2.779853741805	2	180
20 fourier 1	0.1918272375143	3	0
21 fourier 1	0.9202179876409	1	180
22 fourier 1	0.0473758381877	3	0
23 fourier 1	0.4860993122944	2	180
24 fourier 1	0.8916986138746	1	0
25 fourier 1	1.163809172478	2	180
26 fourier 1	0.1679186987369	1	180
27 fourier 1	0.1911926717192	3	0
28 fourier 1	0.1115525666802	3	0
29 fourier 1	0.3432490222662	1	0
30 fourier 1	0.457973137376	1	0
31 fourier 1	-1.382973039546	1	0
32 fourier 1	0	1	0
33 fourier 1	0.3445382149273	3	0
34 fourier 1	0.1364556373303	1	0
35 fourier 1	0.3026390167484	3	0


Improper Coeffs

1 0.3333333333333333	-1	2
2 0.3666666666666667	-1	2
3 3.5	-1	2


Atoms

1	1	1	0.53946799	-8.1960001	-0.090000004	-0.329
2	1	2	-0.709126	-7.2550001	0.616	-0.77899998
3	1	3	-0.52656603	-8.0039997	-1.48	-0.048
4	1	4	0.02846	-6.7259998	-2.1570001	-0.255
5	1	4	-0.147809	-5.7309999	-1.7690001	0.847
6	1	4	-0.143085	-4.4219999	-2.575	0.78200001
7	1	4	-0.14268699	-3.6140001	-2.404	-0.52100003
8	1	4	-0.141442	-3.256	-0.95099998	-0.88099998
9	1	4	-0.141442	-2.381	-0.271	0.183
10	1	4	-0.141442	-1.929	1.117	-0.28400001
11	1	4	-0.141442	-1.059	1.798	0.778
12	1	4	-0.141442	-0.60000002	3.187	0.308
13	1	4	-0.141442	0.37400001	3.8529999	1.301
14	1	4	-0.141442	1.862	3.697	0.92699999
15	1	4	-0.141442	2.4330001	2.289	1.186
16	1	4	-0.141442	2.4949999	1.437	-0.094999999
17	1	4	-0.141442	2.7869999	-0.046999998	0.191
18	1	4	-0.14268699	4.1399999	-0.31999999	0.87699997
19	1	4	-0.143085	5.3759999	0.191	0.111
20	1	4	-0.146533	5.5180001	-0.34599999	-1.326
21	1	4	0.022554999	5.619	-1.877	-1.414
22	1	3	-0.47090599	6.7210002	-2.388	-0.59899998
23	1	1	0.78196102	8.0939999	-2.247	-0.97399998
24	1	2	-0.62990499	8.4160004	-1.675	-2.049
25	1	5	0.32103899	6.4970002	-2.927	0.26800001
26	1	6	0.049593002	4.6659999	-2.3369999	-1.079
27	1	6	0.049593002	5.7680001	-2.1800001	-2.473
28	1	7	0.082861997	6.4299998	0.101	-1.776
29	1	7	0.082861997	4.664	-0.0020000001	-1.946
30	1	7	0.081808999	5.3559999	1.301	0.075999998
31	1	7	0.081808999	6.2839999	-0.081	0.69
32	1	7	0.08106	4.1360002	0.14	1.888
33	1	7	0.08106	4.2379999	-1.413	1.043
34	1	7	0.08106	2.733	-0.61400002	-0.76200002
35	1	7	0.08106	1.978	-0.45100001	0.838
36	1	7	0.08106	3.257	1.854	-0.78600001
37	1	7	0.08106	1.526	1.487	-0.63
38	1	7	0.08106	3.4690001	2.404	1.572
39	1	7	0.08106	1.852	1.77	1.979
40	1	7	0.08106	2.0320001	4.0149999	-0.125
41	1	7	0.08106	2.431	4.414	1.5599999
42	1	7	0.08106	0.153	4.9439998	1.306
43	1	7	0.08106	0.19599999	3.497	2.339
44	1	7	0.08106	-0.146	3.131	-0.70499998
45	1	7	0.08106	-1.503	3.8299999	0.21699999
46	1	7	0.08106	-1.643	1.908	1.7180001
47	1	7	0.08106	-0.183	1.154	0.99199998
48	1	7	0.08106	-1.345	1.016	-1.226
49	1	7	0.08106	-2.823	1.747	-0.48800001
50	1	7	0.08106	-1.487	-0.90200001	0.382
51	1	7	0.08106	-2.957	-0.161	1.126
52	1	7	0.08106	-2.6989999	-0.97100002	-1.8430001
53	1	7	0.08106	-4.1789999	-0.35699999	-1.053
54	1	7	0.08106	-2.674	-2.9909999	-0.42899999
55	1	7	0.08106	-4.1799998	-2.8510001	-1.365
56	1	7	0.081808999	-4.6599998	-3.654	0.90600002
57	1	7	0.081808999	-3.786	-2.2939999	1.649
58	1	7	0.082861997	-6.2049999	-1.966	1.8329999
59	1	7	0.082861997	-5.5139999	-0.68199998	0.80699998
60	1	6	0.046101	-6.8909998	-3.256	-0.228
61	1	6	0.046101	-6.3280001	-1.893	-1.258
62	1	5	0.31445199	-8.8280001	-2.0420001	0.26199999
63	1	8	-0.50173903	8.8369999	-2.6259999	-0.35699999
64	1	4	0.111984	8.2130003	-2.9879999	0.84500003
65	1	4	-0.140598	7.4530001	-4.3049998	0.671
66	1	4	-0.14159501	6.7789998	-4.7309999	1.983
67	1	4	-0.14277101	6.1160002	-6.1139998	1.8839999
68	1	4	-0.141442	4.8660002	-6.1079998	0.98699999
69	1	4	-0.141442	4.0640001	-7.4180002	1.075
70	1	4	-0.142721	4.8340001	-8.684	0.648
71	1	4	-0.14032701	5.4330001	-8.6350002	-0.76899999
72	1	4	-0.146598	4.3649998	-8.4630003	-1.8609999
73	1	4	0.033557002	4.9559999	-8.6140003	-3.266
74	1	8	-0.177403	5.8369999	-7.559	-3.55
75	1	6	0.079512	5.46	-9.6020002	-3.3759999
76	1	6	0.079512	4.1259999	-8.5819998	-4.0040002
77	1	7	0.087699004	3.8929999	-7.461	-1.78
78	1	7	0.087699004	3.5739999	-9.2329998	-1.727
79	1	7	0.082965001	5.9710002	-9.5930004	-0.94099998
80	1	7	0.082965001	6.1869998	-7.8239999	-0.83600003
81	1	7	0.08106	5.651	-8.8800001	1.374
82	1	7	0.08106	4.1430001	-9.552	0.71399999
83	1	7	0.08106	3.1470001	-7.3179998	0.456
84	1	7	0.08106	3.7190001	-7.5560002	2.1229999
85	1	7	0.08106	4.197	-5.2800002	1.308
86	1	7	0.08106	5.145	-5.9099998	-0.068000004
87	1	7	0.08106	5.823	-6.4299998	2.9089999
88	1	7	0.08106	6.8590002	-6.848	1.503
89	1	7	0.082791999	6.0240002	-3.9719999	2.286
90	1	7	0.082791999	7.5489998	-4.7779999	2.7839999
91	1	7	0.086671002	6.6849999	-4.1690001	-0.121
92	1	7	0.086671002	8.165	-5.0929999	0.34200001
93	1	6	0.079678997	8.9960003	-3.1110001	1.623
94	1	6	0.079678997	7.52	-2.1819999	1.178
95	1	1	0.53946799	-9.165	0.36199999	-0.16
96	1	2	-0.709126	-9.2309999	1.516	0.34
97	1	3	-0.52656603	-10.352	-0.36300001	-0.49700001
98	1	4	0.02846	-11.696	0.18099999	-0.301
99	1	4	-0.147809	-12.021	1.2690001	-1.3380001
100	1	4	-0.143085	-11.868	0.80599999	-2.7969999
101	1	4	-0.14268699	-12.88	-0.28200001	-3.187
102	1	4	-0.141442	-12.798	-0.59200001	-4.6890001
103	1	4	-0.141442	-13.678	-1.784	-5.0970001
104	1	4	-0.141442	-15.179	-1.467	-5.0209999
105	1	4	-0.141442	-16.011999	-2.625	-5.5890002
106	1	4	-0.141442	-17.525999	-2.4300001	-5.3860002
107	1	4	-0.141442	-18.121	-1.1799999	-6.066
108	1	4	-0.141442	-17.872999	-1.082	-7.5819998
109	1	4	-0.141442	-18.469	-2.263	-8.3610001
110	1	4	-0.141442	-18.365	-2.0320001	-9.8739996
111	1	4	-0.141442	-18.754	-3.2720001	-10.698
112	1	4	-0.14250401	-20.240999	-3.6619999	-10.567
113	1	4	-0.138695	-20.448	-4.8499999	-9.6149998
114	1	4	-0.124145	-21.937	-5.1830001	-9.4650002
115	1	4	0.181927	-22.143999	-6.3720002	-8.5179996
116	1	3	-0.67182702	-23.563999	-6.6490002	-8.3299999
117	1	9	0.59160799	-24.294001	-7.0999999	-9.2700005
118	1	2	-0.502702	-25.003	-7.539	-10.184
119	1	6	0.025883	-21.632999	-7.277	-8.9160004
120	1	6	0.025883	-21.701	-6.132	-7.5279999
121	1	7	0.076531999	-22.361	-5.428	-10.463
122	1	7	0.076531999	-22.476	-4.2979999	-9.059
123	1	7	0.080537997	-19.914	-5.7379999	-10.019
124	1	7	0.080537997	-20.024	-4.6170001	-8.6160002
125	1	7	0.08106	-20.847	-2.7920001	-10.23
126	1	7	0.08106	-20.620001	-3.9530001	-11.571
127	1	7	0.08106	-18.087999	-4.1240001	-10.436
128	1	7	0.08106	-18.551001	-3.0339999	-11.766
129	1	7	0.08106	-17.315001	-1.7690001	-10.129
130	1	7	0.08106	-19.007	-1.173	-10.168
131	1	7	0.08106	-19.537001	-2.378	-8.0780001
132	1	7	0.08106	-17.921	-3.194	-8.099
133	1	7	0.08106	-16.785	-0.99800003	-7.7880001
134	1	7	0.08106	-18.344999	-0.141	-7.9400001
135	1	7	0.08106	-17.716999	-0.26800001	-5.5770001
136	1	7	0.08106	-19.216999	-1.173	-5.8829999
137	1	7	0.08106	-18.055	-3.335	-5.7519999
138	1	7	0.08106	-17.733999	-2.3670001	-4.2950001
139	1	7	0.08106	-15.721	-3.5639999	-5.0700002
140	1	7	0.08106	-15.785	-2.7679999	-6.6669998
141	1	7	0.08106	-15.382	-0.54299998	-5.6040001
142	1	7	0.08106	-15.472	-1.296	-3.964
143	1	7	0.08106	-13.444	-2.6619999	-4.4549999
144	1	7	0.08106	-13.421	-2.0550001	-6.145
145	1	7	0.08106	-11.746	-0.83999997	-4.947
146	1	7	0.08106	-13.086	0.30700001	-5.2779999
147	1	7	0.08106	-13.903	0.068999998	-2.9330001
148	1	7	0.08106	-12.666	-1.21	-2.615
149	1	7	0.081808999	-10.833	0.44	-2.973
150	1	7	0.081808999	-12.022	1.691	-3.4519999
151	1	7	0.082861997	-13.061	1.626	-1.171
152	1	7	0.082861997	-11.35	2.138	-1.1720001
153	1	6	0.046101	-12.442	-0.639	-0.37
154	1	6	0.046101	-11.779	0.60799998	0.722
155	1	5	0.31445199	-10.252	-1.341	-0.84899998
156	1	8	-0.177403	6.7379999	-7.848	-3.25
157	1	4	0.033557002	6.6090002	-8.2410002	-1.911
158	1	4	-0.146598	5.9530001	-9.6219997	-1.825
159	1	4	-0.14032701	5.8210001	-10.081	-0.36500001
160	1	4	-0.142721	5.29	-11.517	-0.244
161	1	4	-0.141442	3.809	-11.635	-0.64600003
162	1	4	-0.141442	3.2060001	-13.008	-0.30000001
163	1	4	-0.142721	3.885	-14.21	-0.986
164	1	4	-0.136243	3.9430001	-14.136	-2.523
165	1	4	-0.168521	2.55	-14.076	-3.1689999
166	1	4	0.086762004	2.622	-14.201	-4.6939998
167	1	10	-0.68417698	3.253	-13.08	-5.2540002
168	1	11	0.37866101	4.223	-13.285	-5.2930002
169	1	6	0.069934003	3.1400001	-15.144	-4.9860001
170	1	6	0.069934003	1.5880001	-14.255	-5.0939999
171	1	7	0.090053	2.0510001	-13.117	-2.915
172	1	7	0.090053	1.926	-14.909	-2.777
173	1	7	0.082965001	4.4679999	-15.047	-2.8840001
174	1	7	0.082965001	4.552	-13.264	-2.839
175	1	7	0.08106	4.9190001	-14.322	-0.59500003
176	1	7	0.08106	3.339	-15.134	-0.69400001
177	1	7	0.08106	2.125	-12.999	-0.55699998
178	1	7	0.08106	3.263	-13.156	0.801
179	1	7	0.08106	3.2249999	-10.862	-0.1
180	1	7	0.08106	3.6830001	-11.433	-1.729
181	1	7	0.08106	5.402	-11.838	0.815
182	1	7	0.08106	5.9130001	-12.191	-0.87
183	1	7	0.082965001	5.158	-9.3839998	0.193
184	1	7	0.082965001	6.8239999	-10.046	0.115
185	1	7	0.087699004	4.9489999	-9.5679998	-2.2950001
186	1	7	0.087699004	6.572	-10.351	-2.3929999
187	1	6	0.079512	7.6220002	-8.2819996	-1.4579999
188	1	6	0.079512	6.0089998	-7.4920001	-1.345

Bonds

1	1	1	2
2	2	1	3
3	3	1	95
4	4	3	4
5	5	3	62
6	6	4	5
7	7	4	60
8	7	4	61
9	6	5	6
10	7	5	58
11	7	5	59
12	6	6	7
13	7	6	56
14	7	6	57
15	6	7	8
16	7	7	54
17	7	7	55
18	6	8	9
19	7	8	52
20	7	8	53
21	6	9	10
22	7	9	50
23	7	9	51
24	6	10	11
25	7	10	48
26	7	10	49
27	6	11	12
28	7	11	46
29	7	11	47
30	6	12	13
31	7	12	44
32	7	12	45
33	6	13	14
34	7	13	42
35	7	13	43
36	6	14	15
37	7	14	40
38	7	14	41
39	6	15	16
40	7	15	38
41	7	15	39
42	6	16	17
43	7	16	36
44	7	16	37
45	6	17	18
46	7	17	34
47	7	17	35
48	6	18	19
49	7	18	32
50	7	18	33
51	6	19	20
52	7	19	30
53	7	19	31
54	6	20	21
55	7	20	28
56	7	20	29
57	4	21	22
58	7	21	26
59	7	21	27
60	2	22	23
61	5	22	25
62	1	23	24
63	8	23	63
64	9	63	64
65	6	64	65
66	7	64	93
67	7	64	94
68	6	65	66
69	7	65	91
70	7	65	92
71	6	66	67
72	7	66	89
73	7	66	90
74	6	67	68
75	7	67	87
76	7	67	88
77	6	68	69
78	7	68	85
79	7	68	86
80	6	69	70
81	7	69	83
82	7	69	84
83	6	70	71
84	7	70	81
85	7	70	82
86	6	71	72
87	7	71	79
88	7	71	80
89	6	72	73
90	7	72	77
91	7	72	78
92	9	73	74
93	7	73	75
94	7	73	76
95	10	74	156
96	1	95	96
97	2	95	97
98	4	97	98
99	5	97	155
100	6	98	99
101	7	98	153
102	7	98	154
103	6	99	100
104	7	99	151
105	7	99	152
106	6	100	101
107	7	100	149
108	7	100	150
109	6	101	102
110	7	101	147
111	7	101	148
112	6	102	103
113	7	102	145
114	7	102	146
115	6	103	104
116	7	103	143
117	7	103	144
118	6	104	105
119	7	104	141
120	7	104	142
121	6	105	106
122	7	105	139
123	7	105	140
124	6	106	107
125	7	106	137
126	7	106	138
127	6	107	108
128	7	107	135
129	7	107	136
130	6	108	109
131	7	108	133
132	7	108	134
133	6	109	110
134	7	109	131
135	7	109	132
136	6	110	111
137	7	110	129
138	7	110	130
139	6	111	112
140	7	111	127
141	7	111	128
142	6	112	113
143	7	112	125
144	7	112	126
145	6	113	114
146	7	113	123
147	7	113	124
148	6	114	115
149	7	114	121
150	7	114	122
151	11	115	116
152	7	115	119
153	7	115	120
154	12	116	117
155	1	117	118
156	9	156	157
157	6	157	158
158	7	157	187
159	7	157	188
160	6	158	159
161	7	158	185
162	7	158	186
163	6	159	160
164	7	159	183
165	7	159	184
166	6	160	161
167	7	160	181
168	7	160	182
169	6	161	162
170	7	161	179
171	7	161	180
172	6	162	163
173	7	162	177
174	7	162	178
175	6	163	164
176	7	163	175
177	7	163	176
178	6	164	165
179	7	164	173
180	7	164	174
181	6	165	166
182	7	165	171
183	7	165	172
184	13	166	167
185	7	166	169
186	7	166	170
187	14	167	168

Angles

1	7	48	10	49
2	7	75	73	76
3	7	30	19	31
4	4	4	5	59
5	4	162	161	180
6	4	99	100	150
7	4	5	6	56
8	4	10	11	47
9	7	143	103	144
10	4	159	160	181
11	4	161	162	177
12	4	66	65	92
13	4	111	110	129
14	4	160	161	162
15	4	106	107	135
16	4	163	164	174
17	4	111	112	125
18	7	121	114	122
19	4	65	64	94
20	4	101	100	150
21	4	72	73	76
22	4	67	66	90
23	3	22	23	24
24	4	17	16	36
25	4	106	107	108
26	4	3	4	5
27	4	107	108	133
28	4	22	21	26
29	7	40	14	41
30	4	17	18	32
31	4	163	162	177
32	7	179	161	180
33	7	173	164	174
34	4	18	17	34
35	7	139	105	140
36	4	108	109	131
37	4	13	14	40
38	7	133	108	134
39	4	159	158	185
40	7	44	12	45
41	4	18	19	30
42	7	129	110	130
43	4	11	12	13
44	4	14	15	16
45	4	161	162	163
46	4	70	69	83
47	7	171	165	172
48	4	116	115	119
49	4	162	163	175
50	7	137	106	138
51	7	60	4	61
52	4	70	71	79
53	4	100	101	102
54	4	63	64	65
55	4	71	70	81
56	4	9	8	53
57	4	66	67	87
58	7	89	66	90
59	4	71	72	77
60	4	9	10	49
61	4	166	165	171
62	4	13	12	44
63	4	65	66	89
64	3	2	1	3
65	4	101	102	145
66	4	67	68	85
67	4	104	105	140
68	4	70	71	72
69	4	160	159	183
70	4	12	11	46
71	4	10	11	46
72	4	160	161	179
73	4	6	7	55
74	4	19	20	29
75	4	6	5	58
76	4	69	68	85
77	4	156	157	187
78	4	163	164	173
79	4	65	64	93
80	7	153	98	154
81	4	67	68	69
82	4	101	100	149
83	4	72	73	75
84	4	105	106	107
85	4	113	114	121
86	4	108	109	110
87	4	8	9	10
88	7	147	101	148
89	4	102	101	148
90	7	56	6	57
91	4	109	110	130
92	4	6	7	8
93	4	104	103	144
94	7	151	99	152
95	7	50	9	51
96	4	104	105	106
97	4	105	106	138
98	4	114	115	116
99	4	110	111	128
100	4	19	18	33
101	4	98	99	152
102	4	100	101	148
103	4	164	165	166
104	4	112	113	114
105	7	127	111	128
106	4	20	19	31
107	2	23	22	25
108	4	15	16	37
109	4	20	21	27
110	7	52	8	53
111	4	15	16	17
112	4	9	8	52
113	4	109	108	134
114	4	10	11	12
115	7	79	71	80
116	4	164	163	176
117	4	107	108	109
118	4	14	15	39
119	2	1	3	62
120	4	9	10	48
121	4	16	17	35
122	4	105	104	142
123	4	8	7	54
124	2	21	22	25
125	4	110	109	132
126	7	32	18	33
127	4	104	105	139
128	6	24	23	63
129	4	6	7	54
130	5	73	74	156
131	7	119	115	120
132	4	5	4	61
133	4	7	8	9
134	4	19	20	28
135	4	14	13	43
136	7	123	113	124
137	4	106	105	139
138	4	164	165	172
139	4	102	101	147
140	4	109	110	129
141	7	81	70	82
142	4	97	98	153
143	4	98	99	100
144	4	158	159	184
145	4	99	98	154
146	4	11	10	49
147	4	102	103	143
148	7	141	104	142
149	4	71	72	73
150	4	105	106	137
151	4	12	13	14
152	4	7	8	53
153	4	19	20	21
154	4	110	111	127
155	4	161	160	181
156	4	98	99	151
157	7	183	159	184
158	4	112	113	124
159	7	34	17	35
160	7	93	64	94
161	4	63	64	94
162	4	162	163	164
163	4	157	158	185
164	4	101	102	103
165	4	107	106	137
166	7	38	15	39
167	4	165	166	170
168	4	114	113	123
169	7	91	65	92
170	4	112	111	127
171	4	164	163	175
172	4	114	115	119
173	4	14	15	38
174	4	103	102	145
175	7	131	109	132
176	4	7	6	57
177	4	72	71	79
178	4	108	107	135
179	4	97	98	99
180	4	103	104	141
181	2	98	97	155
182	4	65	66	67
183	7	58	5	59
184	7	83	69	84
185	4	167	166	170
186	4	4	5	58
187	4	162	161	179
188	4	99	100	149
189	4	5	4	60
190	4	66	65	91
191	4	13	14	15
192	4	14	13	42
193	4	16	17	18
194	4	9	10	11
195	4	111	112	113
196	4	67	66	89
197	4	156	157	158
198	1	1	3	4
199	4	5	6	57
200	4	99	98	153
201	4	11	10	48
202	4	165	166	167
203	4	159	160	182
204	4	64	65	66
205	4	100	99	152
206	4	7	8	52
207	2	4	3	62
208	5	23	63	64
209	4	112	113	123
210	4	17	16	37
211	1	95	97	98
212	4	22	21	27
213	4	17	18	33
214	7	28	20	29
215	4	163	162	178
216	3	22	23	63
217	4	11	12	45
218	4	113	112	126
219	4	21	20	29
220	4	13	14	41
221	4	158	159	160
222	4	18	19	31
223	4	7	6	56
224	4	68	67	88
225	4	73	72	78
226	4	116	115	120
227	4	68	69	84
228	4	167	166	169
229	4	64	65	92
230	4	15	14	41
231	4	69	70	82
232	7	77	72	78
233	4	99	100	101
234	4	166	165	172
235	4	65	66	90
236	4	101	102	146
237	4	16	15	39
238	4	159	160	161
239	5	166	167	168
240	4	3	4	61
241	4	72	73	74
242	4	5	6	7
243	4	160	159	184
244	4	12	11	47
245	4	104	103	143
246	4	160	161	180
247	4	12	13	43
248	4	17	18	19
249	4	20	21	22
250	4	74	73	76
251	4	109	110	111
252	4	100	99	151
253	4	6	5	59
254	2	95	97	155
255	7	46	11	47
256	4	10	9	51
257	4	69	68	86
258	4	156	157	188
259	4	19	18	32
260	7	42	13	43
261	7	185	158	186
262	4	100	101	147
263	7	36	16	37
264	4	163	164	165
265	7	145	102	146
266	7	169	166	170
267	4	113	114	122
268	3	1	95	97
269	7	135	107	136
270	4	68	69	70
271	4	20	19	30
272	4	15	16	36
273	4	20	21	26
274	4	109	108	133
275	4	158	157	188
276	3	96	95	97
277	7	177	162	178
278	4	165	164	174
279	7	87	67	88
280	4	11	12	44
281	4	113	112	125
282	4	21	20	28
283	4	16	17	34
284	4	105	104	141
285	4	115	114	122
286	4	68	67	87
287	4	110	109	131
288	7	181	160	182
289	4	73	72	77
290	4	68	69	83
291	4	113	114	115
292	7	85	68	86
293	3	2	1	95
294	4	64	65	91
295	4	15	14	40
296	4	69	70	81
297	7	187	157	188
298	4	8	7	55
299	4	16	15	38
300	4	164	165	171
301	4	8	9	51
302	4	3	4	60
303	4	158	159	183
304	4	103	104	105
305	4	12	13	42
306	4	74	73	75
307	7	149	100	150
308	4	161	162	178
309	4	10	9	50
310	3	3	1	95
311	4	111	110	130
312	8	115	116	117
313	4	106	107	136
314	4	111	112	126
315	4	106	105	140
316	4	102	103	104
317	3	1	95	96
318	4	63	64	93
319	4	107	108	134
320	4	97	98	154
321	7	54	7	55
322	4	102	103	144
323	4	165	166	169
324	4	158	157	187
325	4	165	164	173
326	4	18	17	35
327	4	108	109	132
328	4	159	158	186
329	4	161	160	182
330	7	175	163	176
331	4	115	114	121
332	4	18	19	20
333	1	21	22	23
334	7	26	21	27
335	4	70	69	84
336	5	74	156	157
337	4	110	111	112
338	4	162	163	176
339	4	70	71	80
340	4	4	5	6
341	7	125	112	126
342	4	157	158	186
343	4	71	70	82
344	4	107	106	138
345	4	114	113	124
346	4	66	67	88
347	4	112	111	128
348	4	71	72	78
349	4	66	67	68
350	4	69	70	71
351	4	114	115	120
352	4	157	158	159
353	4	103	102	146
354	4	72	71	80
355	4	108	107	136
356	4	13	12	45
357	4	67	68	86
358	4	103	104	142
359	9	116	117	118
360	4	8	9	50

Dihedrals

1	20	23	63	64	65
1	21	23	63	64	65
2	18	100	99	98	154
3	27	129	110	109	131
4	18	17	16	15	38
5	27	147	101	100	149
6	18	6	7	8	53
7	27	127	111	110	129
8	27	120	115	114	122
9	27	175	163	162	178
10	18	114	113	112	126
11	18	14	13	12	44
12	27	35	17	16	36
13	18	69	70	71	80
14	18	19	20	21	26
15	18	160	159	158	186
16	27	58	5	4	61
17	18	106	107	108	133
18	27	46	11	10	49
19	18	12	11	10	48
20	18	66	67	68	86
21	18	161	160	159	183
22	18	163	164	165	171
23	18	113	112	111	128
24	27	51	9	8	53
25	18	70	71	72	78
26	27	121	114	113	124
27	18	159	160	161	179
28	27	148	101	100	150
29	18	21	20	19	31
30	27	82	70	69	83
31	18	104	103	102	146
32	18	18	17	16	37
33	27	183	159	158	186
34	15	108	109	110	111
34	16	108	109	110	111
34	17	108	109	110	111
35	27	174	164	163	176
36	27	173	164	163	176
37	18	158	159	160	182
38	14	22	21	20	29
39	27	186	158	157	188
40	27	150	100	99	151
41	27	134	108	107	135
42	27	149	100	99	151
43	18	69	68	67	88
44	27	32	18	17	34
45	27	170	166	165	172
46	18	103	102	101	148
47	27	128	111	110	130
48	27	123	113	112	126
49	18	107	108	109	132
50	14	113	114	115	116
51	27	37	16	15	39
52	27	146	102	101	147
53	15	100	101	102	103
53	16	100	101	102	103
53	17	100	101	102	103
54	18	111	112	113	123
55	18	110	111	112	125
56	18	15	14	13	42
57	15	15	16	17	18
57	16	15	16	17	18
57	17	15	16	17	18
58	15	101	102	103	104
58	16	101	102	103	104
58	17	101	102	103	104
59	27	31	19	18	33
60	15	109	110	111	112
60	16	109	110	111	112
60	17	109	110	111	112
61	27	119	115	114	122
62	18	16	17	18	33
63	18	159	158	157	187
64	27	49	10	9	51
65	27	30	19	18	33
66	18	13	14	15	39
67	27	180	161	160	181
68	5	20	21	22	25
68	6	20	21	22	25
69	27	38	15	14	40
70	18	10	9	8	52
71	15	68	69	70	71
71	16	68	69	70	71
71	17	68	69	70	71
72	27	53	8	7	55
73	18	7	6	5	58
74	18	17	18	19	31
75	5	95	97	98	154
75	6	95	97	98	154
76	18	165	164	163	175
77	27	84	69	68	86
78	18	164	163	162	178
79	18	71	70	69	83
80	7	4	3	1	95
80	8	4	3	1	95
81	25	24	23	63	64
81	26	24	23	63	64
82	22	75	73	74	156
83	18	164	165	166	170
84	27	78	72	71	80
85	27	45	12	11	47
86	27	55	7	6	56
87	18	157	158	159	184
88	18	107	106	105	140
89	18	6	7	8	52
90	18	110	109	108	133
91	27	136	107	106	138
92	27	44	12	11	46
93	13	2	1	95	97
94	27	120	115	114	121
95	18	16	15	14	41
96	27	175	163	162	177
97	27	130	110	109	132
98	27	59	5	4	61
99	27	171	165	164	174
100	7	21	22	23	24
100	8	21	22	23	24
101	18	160	159	158	185
102	27	142	104	103	144
103	27	58	5	4	60
104	27	92	65	64	94
105	27	182	160	159	184
106	18	66	67	68	85
107	14	97	98	99	152
108	27	88	67	66	89
109	18	101	100	99	152
110	15	158	159	160	161
110	16	158	159	160	161
110	17	158	159	160	161
111	27	40	14	13	43
112	18	68	67	66	90
113	18	72	71	70	82
114	18	70	71	72	77
115	18	10	11	12	45
116	27	34	17	16	37
117	27	144	103	102	146
118	27	184	159	158	185
119	14	3	4	5	58
120	18	18	17	16	36
121	27	125	112	111	128
122	27	183	159	158	185
123	18	102	101	100	149
124	27	26	21	20	29
125	27	173	164	163	175
126	14	22	21	20	28
127	27	177	162	161	179
128	15	99	100	101	102
128	16	99	100	101	102
128	17	99	100	101	102
129	27	57	6	5	59
130	27	137	106	105	140
131	18	9	8	7	55
132	18	69	68	67	87
133	27	170	166	165	171
134	18	103	102	101	147
135	27	131	109	108	134
136	27	169	166	165	171
137	27	128	111	110	129
138	28	156	157	158	186
138	29	156	157	158	186
139	18	66	65	64	93
140	27	37	16	15	38
141	18	67	68	69	84
142	22	76	73	74	156
143	18	166	165	164	173
144	15	6	7	8	9
144	16	6	7	8	9
144	17	6	7	8	9
145	15	106	107	108	109
145	16	106	107	108	109
145	17	106	107	108	109
146	27	31	19	18	32
147	18	71	72	73	76
148	27	119	115	114	121
149	18	162	161	160	182
150	27	49	10	9	50
151	14	156	157	158	159
152	18	105	106	107	136
153	18	14	15	16	36
154	18	13	14	15	38
155	27	81	70	69	84
156	27	151	99	98	154
157	31	114	115	116	117
158	27	47	11	10	48
159	27	42	13	12	45
160	15	8	9	10	11
160	16	8	9	10	11
160	17	8	9	10	11
161	18	17	18	19	30
162	14	116	115	114	122
163	15	104	105	106	107
163	16	104	105	106	107
163	17	104	105	106	107
164	15	102	103	104	105
164	16	102	103	104	105
164	17	102	103	104	105
165	18	161	162	163	175
166	27	84	69	68	85
167	5	23	22	21	26
167	6	23	22	21	26
168	22	23	63	64	94
169	28	74	73	72	77
169	29	74	73	72	77
170	18	113	114	115	119
171	27	78	72	71	79
172	18	106	105	104	141
173	27	45	12	11	46
174	27	145	102	101	148
175	27	28	20	19	31
176	18	107	106	105	139
177	27	179	161	160	182
178	18	67	66	65	92
179	18	160	161	162	178
180	30	73	74	156	157
181	27	39	15	14	40
182	18	104	105	106	138
183	27	139	105	104	142
184	27	136	107	106	137
185	18	108	107	106	138
186	13	2	1	95	96
187	27	176	163	162	178
188	18	16	15	14	40
189	14	97	98	99	100
190	18	105	104	103	144
191	27	130	110	109	131
192	18	13	12	11	46
193	32	115	116	117	118
194	27	54	7	6	57
195	27	142	104	103	143
196	15	12	13	14	15
196	16	12	13	14	15
196	17	12	13	14	15
197	27	92	65	64	93
198	15	162	163	164	165
198	16	162	163	164	165
198	17	162	163	164	165
199	14	97	98	99	151
200	18	18	19	20	29
201	22	72	73	74	156
202	27	40	14	13	42
203	18	98	99	100	150
204	18	7	8	9	51
205	18	72	71	70	81
206	18	15	16	17	34
207	27	50	9	8	53
208	18	11	10	9	50
209	18	99	100	101	148
210	15	67	68	69	70
210	16	67	68	69	70
210	17	67	68	69	70
211	28	167	166	165	172
211	29	167	166	165	172
212	27	34	17	16	36
213	1	95	97	98	99
213	2	95	97	98	99
213	3	95	97	98	99
213	4	95	97	98	99
214	27	144	103	102	145
215	18	8	9	10	48
216	27	77	72	71	79
217	27	125	112	111	127
218	28	63	64	65	92
218	29	63	64	65	92
219	27	138	106	105	140
220	15	157	158	159	160
220	16	157	158	159	160
220	17	157	158	159	160
221	27	26	21	20	28
222	27	57	6	5	58
223	27	137	106	105	139
224	1	1	3	4	5
224	2	1	3	4	5
224	3	1	3	4	5
224	4	1	3	4	5
225	18	9	8	7	54
226	5	25	22	21	27
226	6	25	22	21	27
227	27	79	71	70	82
228	27	131	109	108	133
229	18	109	110	111	128
230	27	178	162	161	180
231	27	90	66	65	91
232	7	1	95	97	98
232	8	1	95	97	98
233	18	67	68	69	83
234	7	25	22	23	63
234	8	25	22	23	63
235	27	91	65	64	94
236	18	5	6	7	55
237	18	102	103	104	142
238	18	9	10	11	47
239	18	162	161	160	181
240	27	172	165	164	173
241	27	85	68	67	88
242	27	27	21	20	28
243	27	48	10	9	51
244	27	152	99	98	153
245	18	65	66	67	87
246	18	70	69	68	86
247	27	143	103	102	146
248	18	12	13	14	41
249	15	17	18	19	20
249	16	17	18	19	20
249	17	17	18	19	20
250	15	105	106	107	108
250	16	105	106	107	108
250	17	105	106	107	108
251	18	101	102	103	144
252	15	103	104	105	106
252	16	103	104	105	106
252	17	103	104	105	106
253	27	87	67	66	90
254	18	112	111	110	130
255	15	163	164	165	166
255	16	163	164	165	166
255	17	163	164	165	166
256	5	5	4	3	62
256	6	5	4	3	62
257	27	124	113	112	126
258	27	56	6	5	59
259	27	33	18	17	34
260	18	109	108	107	136
261	15	5	6	7	8
261	16	5	6	7	8
261	17	5	6	7	8
262	15	70	71	72	73
262	16	70	71	72	73
262	17	70	71	72	73
263	18	100	99	98	153
264	18	67	66	65	91
265	27	139	105	104	141
266	18	104	105	106	137
267	13	3	1	95	97
268	27	176	163	162	177
269	18	8	7	6	57
270	18	114	113	112	125
271	18	105	104	103	143
272	15	11	12	13	14
272	16	11	12	13	14
272	17	11	12	13	14
273	18	69	70	71	79
274	27	54	7	6	56
275	27	122	114	113	124
276	27	46	11	10	48
277	27	181	160	159	184
278	27	41	14	13	43
279	18	113	112	111	127
280	5	154	98	97	155
280	6	154	98	97	155
281	27	51	9	8	52
282	18	98	99	100	149
283	27	121	114	113	123
284	27	50	9	8	52
285	27	129	110	109	132
286	28	167	166	165	171
286	29	167	166	165	171
287	18	17	16	15	39
288	27	148	101	100	149
289	18	21	20	19	30
290	15	16	17	18	19
290	16	16	17	18	19
290	17	16	17	18	19
291	22	74	156	157	158
292	18	104	103	102	145
293	33	165	166	167	168
293	34	165	166	167	168
294	7	1	95	97	155
294	8	1	95	97	155
295	28	63	64	65	91
295	29	63	64	65	91
296	27	35	17	16	37
297	27	174	164	163	175
298	18	158	159	160	181
299	27	76	73	72	78
300	27	186	158	157	187
301	18	19	20	21	27
302	27	29	20	19	31
303	15	69	70	71	72
303	16	69	70	71	72
303	17	69	70	71	72
304	18	163	164	165	172
305	18	112	113	114	122
306	27	178	162	161	179
307	27	123	113	112	125
308	18	107	108	109	131
309	27	91	65	64	93
310	18	159	160	161	180
311	18	5	6	7	54
312	18	108	109	110	130
313	27	132	109	108	134
314	5	99	98	97	155
314	6	99	98	97	155
315	15	110	111	112	113
315	16	110	111	112	113
315	17	110	111	112	113
316	18	102	103	104	141
317	18	16	17	18	32
318	18	9	10	11	46
319	27	82	70	69	84
320	27	85	68	67	87
321	27	30	19	18	32
322	35	168	167	166	170
323	27	48	10	9	50
324	15	64	65	66	67
324	16	64	65	66	67
324	17	64	65	66	67
325	27	126	112	111	128
326	27	43	13	12	45
327	27	53	8	7	54
328	27	143	103	102	145
329	5	95	97	98	153
329	6	95	97	98	153
330	27	150	100	99	152
331	18	101	102	103	143
332	31	117	116	115	120
333	27	134	108	107	136
334	18	164	163	162	177
335	18	19	18	17	35
336	27	32	18	17	35
337	15	161	162	163	164
337	16	161	162	163	164
337	17	161	162	163	164
338	27	87	67	66	89
339	27	185	158	157	188
340	18	164	165	166	169
341	15	112	113	114	115
341	16	112	113	114	115
341	17	112	113	114	115
342	27	124	113	112	125
343	27	56	6	5	58
344	27	146	102	101	148
345	18	109	108	107	135
346	18	157	158	159	183
347	27	140	105	104	142
348	18	159	158	157	188
349	13	3	1	95	96
350	18	8	7	6	56
351	27	38	15	14	41
352	27	80	71	70	82
353	18	10	9	8	53
354	18	6	5	4	61
355	27	59	5	4	60
356	27	171	165	164	173
357	18	100	101	102	146
358	18	162	163	164	174
359	27	122	114	113	123
360	27	182	160	159	183
361	18	101	100	99	151
362	27	181	160	159	183
363	27	41	14	13	42
364	5	61	4	3	62
364	6	61	4	3	62
365	18	68	67	66	89
366	18	10	11	12	44
367	27	55	7	6	57
368	19	22	23	63	64
369	18	110	109	108	134
370	15	10	11	12	13
370	16	10	11	12	13
370	17	10	11	12	13
371	14	3	4	5	6
372	27	44	12	11	47
373	18	103	104	105	140
374	15	107	108	109	110
374	16	107	108	109	110
374	17	107	108	109	110
375	18	163	162	161	180
376	15	9	10	11	12
376	16	9	10	11	12
376	17	9	10	11	12
377	15	98	99	100	101
377	16	98	99	100	101
377	17	98	99	100	101
378	27	76	73	72	77
379	5	1	3	4	61
379	6	1	3	4	61
380	27	29	20	19	30
381	18	115	114	113	124
382	27	88	67	66	90
383	11	2	1	3	62
383	12	2	1	3	62
384	18	112	113	114	121
385	28	156	157	158	185
385	29	156	157	158	185
386	22	74	156	157	188
387	15	7	8	9	10
387	16	7	8	9	10
387	17	7	8	9	10
388	7	21	22	23	63
388	8	21	22	23	63
389	18	108	109	110	129
390	27	132	109	108	133
391	18	71	72	73	75
392	27	184	159	158	186
393	18	105	106	107	135
394	27	133	108	107	136
395	14	3	4	5	59
396	35	168	167	166	169
397	27	126	112	111	127
398	18	73	72	71	80
399	27	81	70	69	83
400	18	102	101	100	150
401	1	20	21	22	23
401	2	20	21	22	23
401	3	20	21	22	23
401	4	20	21	22	23
402	27	151	99	98	153
403	27	43	13	12	44
404	27	42	13	12	44
405	27	177	162	161	180
406	27	86	68	67	88
407	14	116	115	114	121
408	7	62	3	1	95
408	8	62	3	1	95
409	27	36	16	15	39
410	31	117	116	115	119
411	18	19	18	17	34
412	27	169	166	165	172
413	22	23	63	64	93
414	18	66	65	64	94
415	27	185	158	157	187
416	18	166	165	164	174
417	27	145	102	101	147
418	27	28	20	19	30
419	27	179	161	160	181
420	18	160	161	162	177
421	15	111	112	113	114
421	16	111	112	113	114
421	17	111	112	113	114
422	27	52	8	7	55
423	27	140	105	104	141
424	18	64	65	66	90
425	27	89	66	65	92
426	18	108	107	106	137