Title

188 atoms
187 bonds
360 angles
656 dihedrals
18 impropers

11 atom types
14 bond types
9 angle types
35 dihedral types
3 improper types
-25.00300026 74.99699974 xlo xhi
-15.14400005 84.85599995 ylo yhi
-11.76599979 88.23400021 zlo zhi
0.0 0.0 0.0 xy xz yz

Masses

1	12.01078
2	15.99943
3	14.00672
4	12.01078
5	1.007947
6	1.007947
7	1.007947
8	15.99943
9	12.01078
10	15.99943
11	1.007947


Pair Coeffs

1	0.086879315	3.4806469
2	0.2102061	3.0398122
3	0.16769152	3.206876
4	0.10884061	3.3795318
5	0.014090815	1.1034277
6	0.016409246	2.5832257
7	0.015779483	2.6445434
8	0.16846514	3.0251065
9	0.21	3.3996695
10	0.20947353	2.99716
11	1.2326e-05	0.53453923

Bond Coeffs

1 harmonic	582.698766451	1.225198386222
2 harmonic	492.76746816345	1.381897776683
3 harmonic	279.1350963404	1.454628925034
4 harmonic	352.0565580496	1.450098586273
5 harmonic	505.144496193	1.019481865027
6 harmonic	264.62148576755	1.52190126495
7 harmonic	370.04670688625	1.093899492634
8 harmonic	301.15400723785	1.345741232799
9 harmonic	366.7408841747	1.425895053732
10 harmonic	300.03137914615	1.451203938761
11 harmonic	366.34047229585	1.464762957261
12 harmonic	602.81384337	1.196112346392
13 harmonic	329.96998057905	1.427343958716
14 harmonic	543.5267831885	0.9716763312559


Angle Coeffs

1 harmonic	55.42182150775	117.3465570514
2 harmonic	63.44422595415	115.5071327674
3 harmonic	57.8982893754	126.8062420451
4 harmonic	53.20531626545	116.5475862634
5 harmonic	65.09061609600001	110.3538806181
6 harmonic	201.41175231035	127.4691416191
7 harmonic	48.776492647595	115.6030999533
8 harmonic	55.07882548015	112.8714009681
9 harmonic	33.56981613361	180


Dihedral Coeffs

1 fourier 1	-0.1488678166443	4	180
2 fourier 1	-0.1230328948768	3	180
3 fourier 1	0.2939295466901	2	0
4 fourier 1	-0.3024127022865	1	0
5 fourier 1	0.182238503271	2	0
6 fourier 1	0.02972342374561	3	0
7 fourier 1	1.809047390003	2	180
8 fourier 1	-0.04816277792592	1	0
9 fourier 1	3.101948770557	2	180
10 fourier 1	-0.4252153282372	1	0
11 fourier 1	2.348375642009	2	180
12 fourier 1	1.256156174911	1	0
13 fourier 1	0.9974165607242	2	180
14 fourier 1	0.1155372516788	3	0
15 fourier 1	0.09223874044423	3	0
16 fourier 1	0.3159935921949	2	180
17 fourier 1	0.3247796806857	1	180
18 fourier 1	0.1040663847541	3	0
19 fourier 1	2.779853741805	2	180
20 fourier 1	0.1918272375143	3	0
21 fourier 1	0.9202179876409	1	180
22 fourier 1	0.0473758381877	3	0
23 fourier 1	0.4860993122944	2	180
24 fourier 1	0.8916986138746	1	0
25 fourier 1	1.163809172478	2	180
26 fourier 1	0.1679186987369	1	180
27 fourier 1	0.1911926717192	3	0
28 fourier 1	0.1115525666802	3	0
29 fourier 1	0.3432490222662	1	0
30 fourier 1	0.457973137376	1	0
31 fourier 1	-1.382973039546	1	0
32 fourier 1	0	1	0
33 fourier 1	0.3445382149273	3	0
34 fourier 1	0.1364556373303	1	0
35 fourier 1	0.3026390167484	3	0


Improper Coeffs

1 0.3333333333333333	-1	2
2 0.3666666666666667	-1	2
3 3.5	-1	2


Atoms

1	1	1	0.53946799	-8.1960001	-0.090000004	-0.329
2	1	2	-0.709126	-7.2550001	0.616	-0.77899998
3	1	3	-0.52656603	-8.0039997	-1.48	-0.048
4	1	4	0.02846	-6.7259998	-2.1570001	-0.255
5	1	4	-0.147809	-5.7309999	-1.7690001	0.847
6	1	4	-0.143085	-4.4219999	-2.575	0.78200001
7	1	4	-0.14268699	-3.6140001	-2.404	-0.52100003
8	1	4	-0.141442	-3.256	-0.95099998	-0.88099998
9	1	4	-0.141442	-2.381	-0.271	0.183
10	1	4	-0.141442	-1.929	1.117	-0.28400001
11	1	4	-0.141442	-1.059	1.798	0.778
12	1	4	-0.141442	-0.60000002	3.187	0.308
13	1	4	-0.141442	0.37400001	3.8529999	1.301
14	1	4	-0.141442	1.862	3.697	0.92699999
15	1	4	-0.141442	2.4330001	2.289	1.186
16	1	4	-0.141442	2.4949999	1.437	-0.094999999
17	1	4	-0.141442	2.7869999	-0.046999998	0.191
18	1	4	-0.14268699	4.1399999	-0.31999999	0.87699997
19	1	4	-0.143085	5.3759999	0.191	0.111
20	1	4	-0.146533	5.5180001	-0.34599999	-1.326
21	1	4	0.022554999	5.619	-1.877	-1.414
22	1	3	-0.47090599	6.7210002	-2.388	-0.59899998
23	1	1	0.78196102	8.0939999	-2.247	-0.97399998
24	1	2	-0.62990499	8.4160004	-1.675	-2.049
25	1	5	0.32103899	6.4970002	-2.927	0.26800001
26	1	6	0.049593002	4.6659999	-2.3369999	-1.079
27	1	6	0.049593002	5.7680001	-2.1800001	-2.473
28	1	7	0.082861997	6.4299998	0.101	-1.776
29	1	7	0.082861997	4.664	-0.0020000001	-1.946
30	1	7	0.081808999	5.3559999	1.301	0.075999998
31	1	7	0.081808999	6.2839999	-0.081	0.69
32	1	7	0.08106	4.1360002	0.14	1.888
33	1	7	0.08106	4.2379999	-1.413	1.043
34	1	7	0.08106	2.733	-0.61400002	-0.76200002
35	1	7	0.08106	1.978	-0.45100001	0.838
36	1	7	0.08106	3.257	1.854	-0.78600001
37	1	7	0.08106	1.526	1.487	-0.63
38	1	7	0.08106	3.4690001	2.404	1.572
39	1	7	0.08106	1.852	1.77	1.979
40	1	7	0.08106	2.0320001	4.0149999	-0.125
41	1	7	0.08106	2.431	4.414	1.5599999
42	1	7	0.08106	0.153	4.9439998	1.306
43	1	7	0.08106	0.19599999	3.497	2.339
44	1	7	0.08106	-0.146	3.131	-0.70499998
45	1	7	0.08106	-1.503	3.8299999	0.21699999
46	1	7	0.08106	-1.643	1.908	1.7180001
47	1	7	0.08106	-0.183	1.154	0.99199998
48	1	7	0.08106	-1.345	1.016	-1.226
49	1	7	0.08106	-2.823	1.747	-0.48800001
50	1	7	0.08106	-1.487	-0.90200001	0.382
51	1	7	0.08106	-2.957	-0.161	1.126
52	1	7	0.08106	-2.6989999	-0.97100002	-1.8430001
53	1	7	0.08106	-4.1789999	-0.35699999	-1.053
54	1	7	0.08106	-2.674	-2.9909999	-0.42899999
55	1	7	0.08106	-4.1799998	-2.8510001	-1.365
56	1	7	0.081808999	-4.6599998	-3.654	0.90600002
57	1	7	0.081808999	-3.786	-2.2939999	1.649
58	1	7	0.082861997	-6.2049999	-1.966	1.8329999
59	1	7	0.082861997	-5.5139999	-0.68199998	0.80699998
60	1	6	0.046101	-6.8909998	-3.256	-0.228
61	1	6	0.046101	-6.3280001	-1.893	-1.258
62	1	5	0.31445199	-8.8280001	-2.0420001	0.26199999
63	1	8	-0.50173903	8.8369999	-2.6259999	-0.35699999
64	1	4	0.111984	8.2130003	-2.9879999	0.84500003
65	1	4	-0.140598	7.4530001	-4.3049998	0.671
66	1	4	-0.14159501	6.7789998	-4.7309999	1.983
67	1	4	-0.14277101	6.1160002	-6.1139998	1.8839999
68	1	4	-0.141442	4.8660002	-6.1079998	0.98699999
69	1	4	-0.141442	4.0640001	-7.4180002	1.075
70	1	4	-0.142721	4.8340001	-8.684	0.648
71	1	4	-0.14032701	5.4330001	-8.6350002	-0.76899999
72	1	4	-0.146598	4.3649998	-8.4630003	-1.8609999
73	1	4	0.033557002	4.9559999	-8.6140003	-3.266
74	1	8	-0.177403	5.8369999	-7.559	-3.55
75	1	6	0.079512	5.46	-9.6020002	-3.3759999
76	1	6	0.079512	4.1259999	-8.5819998	-4.0040002
77	1	7	0.087699004	3.8929999	-7.461	-1.78
78	1	7	0.087699004	3.5739999	-9.2329998	-1.727
79	1	7	0.082965001	5.9710002	-9.5930004	-0.94099998
80	1	7	0.082965001	6.1869998	-7.8239999	-0.83600003
81	1	7	0.08106	5.651	-8.8800001	1.374
82	1	7	0.08106	4.1430001	-9.552	0.71399999
83	1	7	0.08106	3.1470001	-7.3179998	0.456
84	1	7	0.08106	3.7190001	-7.5560002	2.1229999
85	1	7	0.08106	4.197	-5.2800002	1.308
86	1	7	0.08106	5.145	-5.9099998	-0.068000004
87	1	7	0.08106	5.823	-6.4299998	2.9089999
88	1	7	0.08106	6.8590002	-6.848	1.503
89	1	7	0.082791999	6.0240002	-3.9719999	2.286
90	1	7	0.082791999	7.5489998	-4.7779999	2.7839999
91	1	7	0.086671002	6.6849999	-4.1690001	-0.121
92	1	7	0.086671002	8.165	-5.0929999	0.34200001
93	1	6	0.079678997	8.9960003	-3.1110001	1.623
94	1	6	0.079678997	7.52	-2.1819999	1.178
95	1	1	0.53946799	-9.165	0.36199999	-0.16
96	1	2	-0.709126	-9.2309999	1.516	0.34
97	1	3	-0.52656603	-10.352	-0.36300001	-0.49700001
98	1	4	0.02846	-11.696	0.18099999	-0.301
99	1	4	-0.147809	-12.021	1.2690001	-1.3380001
100	1	4	-0.143085	-11.868	0.80599999	-2.7969999
101	1	4	-0.14268699	-12.88	-0.28200001	-3.187
102	1	4	-0.141442	-12.798	-0.59200001	-4.6890001
103	1	4	-0.141442	-13.678	-1.784	-5.0970001
104	1	4	-0.141442	-15.179	-1.467	-5.0209999
105	1	4	-0.141442	-16.011999	-2.625	-5.5890002
106	1	4	-0.141442	-17.525999	-2.4300001	-5.3860002
107	1	4	-0.141442	-18.121	-1.1799999	-6.066
108	1	4	-0.141442	-17.872999	-1.082	-7.5819998
109	1	4	-0.141442	-18.469	-2.263	-8.3610001
110	1	4	-0.141442	-18.365	-2.0320001	-9.8739996
111	1	4	-0.141442	-18.754	-3.2720001	-10.698
112	1	4	-0.14250401	-20.240999	-3.6619999	-10.567
113	1	4	-0.138695	-20.448	-4.8499999	-9.6149998
114	1	4	-0.124145	-21.937	-5.1830001	-9.4650002
115	1	4	0.181927	-22.143999	-6.3720002	-8.5179996
116	1	3	-0.67182702	-23.563999	-6.6490002	-8.3299999
117	1	9	0.59160799	-24.294001	-7.0999999	-9.2700005
118	1	2	-0.502702	-25.003	-7.539	-10.184
119	1	6	0.025883	-21.632999	-7.277	-8.9160004
120	1	6	0.025883	-21.701	-6.132	-7.5279999
121	1	7	0.076531999	-22.361	-5.428	-10.463
122	1	7	0.076531999	-22.476	-4.2979999	-9.059
123	1	7	0.080537997	-19.914	-5.7379999	-10.019
124	1	7	0.080537997	-20.024	-4.6170001	-8.6160002
125	1	7	0.08106	-20.847	-2.7920001	-10.23
126	1	7	0.08106	-20.620001	-3.9530001	-11.571
127	1	7	0.08106	-18.087999	-4.1240001	-10.436
128	1	7	0.08106	-18.551001	-3.0339999	-11.766
129	1	7	0.08106	-17.315001	-1.7690001	-10.129
130	1	7	0.08106	-19.007	-1.173	-10.168
131	1	7	0.08106	-19.537001	-2.378	-8.0780001
132	1	7	0.08106	-17.921	-3.194	-8.099
133	1	7	0.08106	-16.785	-0.99800003	-7.7880001
134	1	7	0.08106	-18.344999	-0.141	-7.9400001
135	1	7	0.08106	-17.716999	-0.26800001	-5.5770001
136	1	7	0.08106	-19.216999	-1.173	-5.8829999
137	1	7	0.08106	-18.055	-3.335	-5.7519999
138	1	7	0.08106	-17.733999	-2.3670001	-4.2950001
139	1	7	0.08106	-15.721	-3.5639999	-5.0700002
140	1	7	0.08106	-15.785	-2.7679999	-6.6669998
141	1	7	0.08106	-15.382	-0.54299998	-5.6040001
142	1	7	0.08106	-15.472	-1.296	-3.964
143	1	7	0.08106	-13.444	-2.6619999	-4.4549999
144	1	7	0.08106	-13.421	-2.0550001	-6.145
145	1	7	0.08106	-11.746	-0.83999997	-4.947
146	1	7	0.08106	-13.086	0.30700001	-5.2779999
147	1	7	0.08106	-13.903	0.068999998	-2.9330001
148	1	7	0.08106	-12.666	-1.21	-2.615
149	1	7	0.081808999	-10.833	0.44	-2.973
150	1	7	0.081808999	-12.022	1.691	-3.4519999
151	1	7	0.082861997	-13.061	1.626	-1.171
152	1	7	0.082861997	-11.35	2.138	-1.1720001
153	1	6	0.046101	-12.442	-0.639	-0.37
154	1	6	0.046101	-11.779	0.60799998	0.722
155	1	5	0.31445199	-10.252	-1.341	-0.84899998
156	1	8	-0.177403	6.7379999	-7.848	-3.25
157	1	4	0.033557002	6.6090002	-8.2410002	-1.911
158	1	4	-0.146598	5.9530001	-9.6219997	-1.825
159	1	4	-0.14032701	5.8210001	-10.081	-0.36500001
160	1	4	-0.142721	5.29	-11.517	-0.244
161	1	4	-0.141442	3.809	-11.635	-0.64600003
162	1	4	-0.141442	3.2060001	-13.008	-0.30000001
163	1	4	-0.142721	3.885	-14.21	-0.986
164	1	4	-0.136243	3.9430001	-14.136	-2.523
165	1	4	-0.168521	2.55	-14.076	-3.1689999
166	1	4	0.086762004	2.622	-14.201	-4.6939998
167	1	10	-0.68417698	3.253	-13.08	-5.2540002
168	1	11	0.37866101	4.223	-13.285	-5.2930002
169	1	6	0.069934003	3.1400001	-15.144	-4.9860001
170	1	6	0.069934003	1.5880001	-14.255	-5.0939999
171	1	7	0.090053	2.0510001	-13.117	-2.915
172	1	7	0.090053	1.926	-14.909	-2.777
173	1	7	0.082965001	4.4679999	-15.047	-2.8840001
174	1	7	0.082965001	4.552	-13.264	-2.839
175	1	7	0.08106	4.9190001	-14.322	-0.59500003
176	1	7	0.08106	3.339	-15.134	-0.69400001
177	1	7	0.08106	2.125	-12.999	-0.55699998
178	1	7	0.08106	3.263	-13.156	0.801
179	1	7	0.08106	3.2249999	-10.862	-0.1
180	1	7	0.08106	3.6830001	-11.433	-1.729
181	1	7	0.08106	5.402	-11.838	0.815
182	1	7	0.08106	5.9130001	-12.191	-0.87
183	1	7	0.082965001	5.158	-9.3839998	0.193
184	1	7	0.082965001	6.8239999	-10.046	0.115
185	1	7	0.087699004	4.9489999	-9.5679998	-2.2950001
186	1	7	0.087699004	6.572	-10.351	-2.3929999
187	1	6	0.079512	7.6220002	-8.2819996	-1.4579999
188	1	6	0.079512	6.0089998	-7.4920001	-1.345

Bonds

1	1	1	2
2	2	1	3
3	3	1	95
4	4	3	4
5	5	3	62
6	6	4	5
7	7	4	60
8	7	4	61
9	6	5	6
10	7	5	58
11	7	5	59
12	6	6	7
13	7	6	56
14	7	6	57
15	6	7	8
16	7	7	54
17	7	7	55
18	6	8	9
19	7	8	52
20	7	8	53
21	6	9	10
22	7	9	50
23	7	9	51
24	6	10	11
25	7	10	48
26	7	10	49
27	6	11	12
28	7	11	46
29	7	11	47
30	6	12	13
31	7	12	44
32	7	12	45
33	6	13	14
34	7	13	42
35	7	13	43
36	6	14	15
37	7	14	40
38	7	14	41
39	6	15	16
40	7	15	38
41	7	15	39
42	6	16	17
43	7	16	36
44	7	16	37
45	6	17	18
46	7	17	34
47	7	17	35
48	6	18	19
49	7	18	32
50	7	18	33
51	6	19	20
52	7	19	30
53	7	19	31
54	6	20	21
55	7	20	28
56	7	20	29
57	4	21	22
58	7	21	26
59	7	21	27
60	2	22	23
61	5	22	25
62	1	23	24
63	8	23	63
64	9	63	64
65	6	64	65
66	7	64	93
67	7	64	94
68	6	65	66
69	7	65	91
70	7	65	92
71	6	66	67
72	7	66	89
73	7	66	90
74	6	67	68
75	7	67	87
76	7	67	88
77	6	68	69
78	7	68	85
79	7	68	86
80	6	69	70
81	7	69	83
82	7	69	84
83	6	70	71
84	7	70	81
85	7	70	82
86	6	71	72
87	7	71	79
88	7	71	80
89	6	72	73
90	7	72	77
91	7	72	78
92	9	73	74
93	7	73	75
94	7	73	76
95	10	74	156
96	1	95	96
97	2	95	97
98	4	97	98
99	5	97	155
100	6	98	99
101	7	98	153
102	7	98	154
103	6	99	100
104	7	99	151
105	7	99	152
106	6	100	101
107	7	100	149
108	7	100	150
109	6	101	102
110	7	101	147
111	7	101	148
112	6	102	103
113	7	102	145
114	7	102	146
115	6	103	104
116	7	103	143
117	7	103	144
118	6	104	105
119	7	104	141
120	7	104	142
121	6	105	106
122	7	105	139
123	7	105	140
124	6	106	107
125	7	106	137
126	7	106	138
127	6	107	108
128	7	107	135
129	7	107	136
130	6	108	109
131	7	108	133
132	7	108	134
133	6	109	110
134	7	109	131
135	7	109	132
136	6	110	111
137	7	110	129
138	7	110	130
139	6	111	112
140	7	111	127
141	7	111	128
142	6	112	113
143	7	112	125
144	7	112	126
145	6	113	114
146	7	113	123
147	7	113	124
148	6	114	115
149	7	114	121
150	7	114	122
151	11	115	116
152	7	115	119
153	7	115	120
154	12	116	117
155	1	117	118
156	9	156	157
157	6	157	158
158	7	157	187
159	7	157	188
160	6	158	159
161	7	158	185
162	7	158	186
163	6	159	160
164	7	159	183
165	7	159	184
166	6	160	161
167	7	160	181
168	7	160	182
169	6	161	162
170	7	161	179
171	7	161	180
172	6	162	163
173	7	162	177
174	7	162	178
175	6	163	164
176	7	163	175
177	7	163	176
178	6	164	165
179	7	164	173
180	7	164	174
181	6	165	166
182	7	165	171
183	7	165	172
184	13	166	167
185	7	166	169
186	7	166	170
187	14	167	168

Angles

1	4	71	72	77
2	4	66	65	91
3	5	74	156	157
4	7	133	108	134
5	4	67	68	85
6	4	3	4	5
7	4	72	73	75
8	7	42	13	43
9	4	98	99	152
10	4	14	13	42
11	4	105	106	107
12	4	5	4	60
13	4	10	9	51
14	4	165	166	170
15	4	112	113	124
16	4	9	8	53
17	7	36	16	37
18	4	11	12	44
19	4	9	10	49
20	4	16	17	18
21	4	160	161	162
22	4	163	164	165
23	4	115	114	121
24	3	3	1	95
25	4	67	66	89
26	8	115	116	117
27	7	123	113	124
28	4	15	16	36
29	4	72	71	79
30	7	38	15	39
31	4	20	21	26
32	4	68	67	88
33	4	108	109	110
34	7	50	9	51
35	4	73	72	78
36	1	95	97	98
37	4	165	164	174
38	4	63	64	93
39	5	166	167	168
40	4	161	160	182
41	4	64	65	66
42	4	8	9	50
43	4	156	157	188
44	4	166	165	172
45	7	77	72	78
46	4	161	162	178
47	4	162	161	180
48	4	157	158	186
49	4	104	103	143
50	4	109	110	111
51	4	109	108	133
52	4	16	17	35
53	4	105	104	141
54	4	110	109	131
55	4	12	13	43
56	4	72	73	74
57	4	99	100	101
58	4	105	106	137
59	4	6	7	8
60	7	187	157	188
61	4	10	9	50
62	4	101	102	145
63	4	165	166	169
64	4	6	5	59
65	4	7	6	56
66	7	137	106	138
67	4	69	70	82
68	4	112	113	114
69	7	177	162	178
70	4	162	163	176
71	4	68	69	70
72	4	157	158	159
73	4	21	20	29
74	4	16	15	39
75	3	2	1	3
76	4	160	159	183
77	4	10	11	12
78	4	13	14	15
79	4	22	21	27
80	4	17	18	33
81	5	73	74	156
82	4	19	20	29
83	4	68	67	87
84	4	73	72	77
85	7	91	65	92
86	4	68	69	83
87	4	98	99	100
88	4	18	19	31
89	7	26	21	27
90	4	100	101	148
91	4	111	112	126
92	4	113	114	122
93	4	12	11	46
94	4	156	157	158
95	7	83	69	84
96	4	4	5	6
97	4	14	15	16
98	4	164	165	166
99	4	101	102	146
100	4	17	16	37
101	7	46	11	47
102	4	3	4	60
103	4	13	12	44
104	4	102	101	148
105	7	81	70	82
106	4	16	17	34
107	3	1	95	97
108	4	18	17	35
109	4	13	14	41
110	4	4	5	58
111	4	106	105	140
112	4	12	13	42
113	4	103	102	146
114	4	111	110	130
115	4	106	107	136
116	4	167	166	170
117	4	116	115	120
118	4	17	18	19
119	4	20	21	22
120	4	97	98	153
121	4	99	98	154
122	4	107	106	138
123	7	127	111	128
124	4	102	103	144
125	4	162	163	175
126	4	112	111	128
127	4	99	100	150
128	4	21	20	28
129	4	107	108	134
130	4	8	7	54
131	4	163	164	174
132	4	102	103	104
133	4	108	107	136
134	7	131	109	132
135	4	103	104	142
136	4	22	21	26
137	9	116	117	118
138	2	4	3	62
139	7	40	14	41
140	7	147	101	148
141	4	17	18	32
142	4	164	165	172
143	7	52	8	53
144	4	65	66	67
145	4	7	8	9
146	4	18	19	30
147	4	5	6	56
148	7	60	4	61
149	4	158	157	188
150	4	163	162	178
151	4	111	112	125
152	4	158	159	184
153	4	70	71	80
154	4	108	109	132
155	4	159	158	186
156	4	110	111	112
157	4	15	14	40
158	4	17	16	36
159	6	24	23	63
160	4	164	163	176
161	4	20	19	30
162	4	159	160	182
163	4	66	67	68
164	7	145	102	146
165	4	102	101	147
166	2	23	22	25
167	3	1	95	96
168	7	171	165	172
169	4	13	14	40
170	4	11	10	49
171	5	23	63	64
172	2	98	97	155
173	1	1	3	4
174	4	19	18	33
175	4	11	12	13
176	4	14	15	39
177	4	98	99	151
178	4	106	107	135
179	4	167	166	169
180	4	116	115	119
181	7	48	10	49
182	4	71	70	82
183	4	99	98	153
184	7	139	105	140
185	4	74	73	76
186	7	179	161	180
187	4	112	113	123
188	4	9	8	52
189	4	71	72	78
190	4	69	70	71
191	4	99	100	149
192	4	10	11	47
193	4	107	108	133
194	4	101	102	103
195	4	64	65	92
196	4	163	164	173
197	4	9	10	48
198	1	21	22	23
199	4	67	68	86
200	7	181	160	182
201	4	72	73	76
202	7	30	19	31
203	4	164	165	171
204	4	14	13	43
205	4	106	107	108
206	4	114	115	116
207	4	165	164	173
208	7	135	107	136
209	4	69	68	86
210	4	18	19	20
211	4	11	12	45
212	7	44	12	45
213	4	161	160	181
214	4	5	6	7
215	4	156	157	187
216	4	166	165	171
217	4	65	64	94
218	4	161	162	177
219	7	85	68	86
220	4	108	109	131
221	4	65	66	90
222	4	100	101	102
223	4	103	104	105
224	7	141	104	142
225	4	162	161	179
226	4	109	110	130
227	4	157	158	185
228	4	114	115	120
229	4	63	64	65
230	4	6	7	55
231	4	11	10	48
232	4	19	18	32
233	4	100	99	152
234	4	113	114	115
235	4	14	15	38
236	7	169	166	170
237	4	113	112	126
238	4	7	8	53
239	4	104	103	144
240	4	6	5	58
241	4	74	73	75
242	4	101	100	150
243	2	1	3	62
244	4	109	108	134
245	4	69	70	81
246	4	104	105	140
247	4	114	113	124
248	4	162	163	164
249	4	10	11	46
250	4	160	161	180
251	4	64	65	91
252	4	105	104	142
253	4	16	15	38
254	4	110	109	132
255	4	105	106	138
256	4	110	111	128
257	4	158	159	160
258	4	161	162	163
259	4	19	20	28
260	7	58	5	59
261	7	129	110	130
262	4	7	6	57
263	7	125	112	126
264	7	151	99	152
265	7	119	115	120
266	4	69	68	85
267	4	100	101	147
268	4	160	159	184
269	4	70	69	84
270	2	95	97	155
271	4	65	64	93
272	4	67	68	69
273	4	113	114	121
274	7	149	100	150
275	7	121	114	122
276	4	65	66	89
277	4	19	20	21
278	3	22	23	24
279	4	109	110	129
280	4	66	67	88
281	4	68	69	84
282	4	114	115	119
283	7	173	164	174
284	4	18	17	34
285	4	104	105	106
286	4	107	108	109
287	4	6	7	54
288	3	22	23	63
289	4	100	99	151
290	4	106	105	139
291	4	12	11	47
292	7	75	73	76
293	4	111	110	129
294	4	113	112	125
295	4	7	8	52
296	4	8	9	10
297	7	185	158	186
298	4	165	166	167
299	4	101	100	149
300	4	107	106	137
301	4	3	4	61
302	4	13	12	45
303	7	79	71	80
304	4	102	103	143
305	4	66	65	92
306	4	112	111	127
307	4	104	105	139
308	4	114	113	123
309	3	2	1	95
310	4	160	161	179
311	7	183	159	184
312	4	108	107	135
313	7	56	6	57
314	4	4	5	59
315	4	103	104	141
316	4	9	10	11
317	4	110	111	127
318	4	12	13	14
319	4	5	4	61
320	4	97	98	154
321	7	54	7	55
322	7	34	17	35
323	7	175	163	176
324	7	28	20	29
325	4	8	7	55
326	7	153	98	154
327	4	97	98	99
328	4	158	157	187
329	2	21	22	25
330	3	96	95	97
331	4	115	114	122
332	4	70	69	83
333	4	163	162	177
334	4	158	159	183
335	4	67	66	90
336	7	32	18	33
337	4	111	112	113
338	4	70	71	79
339	4	15	16	37
340	4	103	102	145
341	4	72	71	80
342	7	143	103	144
343	4	20	21	27
344	4	15	16	17
345	4	159	158	185
346	4	164	163	175
347	4	66	67	87
348	4	159	160	181
349	7	89	66	90
350	4	63	64	94
351	4	71	72	73
352	4	159	160	161
353	4	5	6	57
354	4	8	9	51
355	7	93	64	94
356	7	87	67	88
357	4	70	71	72
358	4	15	14	41
359	4	71	70	81
360	4	20	19	31

Dihedrals

1	18	157	158	159	184
2	18	102	101	100	150
3	27	175	163	162	177
4	18	68	69	70	82
5	15	68	69	70	71
5	16	68	69	70	71
5	17	68	69	70	71
6	27	139	105	104	141
7	18	108	107	106	137
8	14	97	98	99	151
9	18	14	15	16	37
10	27	169	166	165	172
11	18	105	104	103	143
12	18	8	9	10	49
13	18	112	111	110	129
14	15	14	15	16	17
14	16	14	15	16	17
14	17	14	15	16	17
15	15	103	104	105	106
15	16	103	104	105	106
15	17	103	104	105	106
16	14	63	64	65	66
17	18	109	108	107	135
18	18	69	70	71	79
19	15	112	113	114	115
19	16	112	113	114	115
19	17	112	113	114	115
20	7	21	22	23	24
20	8	21	22	23	24
21	27	138	106	105	140
22	18	13	12	11	46
23	27	85	68	67	88
24	27	144	103	102	146
25	18	113	114	115	119
26	14	164	165	166	167
27	1	20	21	22	23
27	2	20	21	22	23
27	3	20	21	22	23
27	4	20	21	22	23
28	27	148	101	100	149
29	18	159	160	161	180
30	27	77	72	71	80
31	27	127	111	110	129
32	14	22	21	20	29
33	27	56	6	5	59
34	27	124	113	112	125
35	18	103	104	105	139
36	7	21	22	23	63
36	8	21	22	23	63
37	27	147	101	100	149
38	18	100	101	102	145
39	27	130	110	109	132
40	27	92	65	64	94
41	18	107	108	109	131
42	18	101	102	103	144
43	15	15	16	17	18
43	16	15	16	17	18
43	17	15	16	17	18
44	18	15	14	13	42
45	18	104	105	106	137
46	15	69	70	71	72
46	16	69	70	71	72
46	17	69	70	71	72
47	18	162	163	164	174
48	22	23	63	64	93
49	14	116	115	114	121
50	18	69	68	67	87
51	18	106	105	104	142
52	27	37	16	15	39
53	27	91	65	64	94
54	18	110	109	108	134
55	18	113	112	111	127
56	15	101	102	103	104
56	16	101	102	103	104
56	17	101	102	103	104
57	27	38	15	14	40
58	18	67	68	69	84
59	18	16	17	18	33
60	18	162	161	160	181
61	27	31	19	18	33
62	18	114	113	112	126
63	18	17	18	19	31
64	18	73	72	71	79
65	18	71	72	73	76
66	13	3	1	95	97
67	15	106	107	108	109
67	16	106	107	108	109
67	17	106	107	108	109
68	27	179	161	160	181
69	18	112	113	114	121
70	5	25	22	21	27
70	6	25	22	21	27
71	27	81	70	69	84
72	27	141	104	103	144
73	18	161	162	163	176
74	35	168	167	166	169
75	11	2	1	3	62
75	12	2	1	3	62
76	18	11	12	13	43
77	18	105	106	107	136
78	18	11	10	9	51
79	25	24	23	63	64
79	26	24	23	63	64
80	27	26	21	20	29
81	27	120	115	114	122
82	18	157	158	159	183
83	18	20	19	18	33
84	27	143	103	102	145
85	18	68	69	70	81
86	1	95	97	98	99
86	2	95	97	98	99
86	3	95	97	98	99
86	4	95	97	98	99
87	18	17	16	15	39
88	27	171	165	164	173
89	18	166	165	164	173
90	18	70	69	68	86
91	18	100	101	102	146
92	18	9	8	7	55
93	27	169	166	165	171
94	18	12	13	14	40
95	27	176	163	162	178
96	18	8	9	10	48
97	27	28	20	19	30
98	27	170	166	165	172
99	18	163	164	165	171
100	27	85	68	67	87
101	27	134	108	107	136
102	15	70	71	72	73
102	16	70	71	72	73
102	17	70	71	72	73
103	31	114	115	116	117
104	18	65	66	67	88
105	27	128	111	110	130
106	18	10	9	8	53
107	27	77	72	71	79
108	14	22	21	20	28
109	15	67	68	69	70
109	16	67	68	69	70
109	17	67	68	69	70
110	15	16	17	18	19
110	16	16	17	18	19
110	17	16	17	18	19
111	15	65	66	67	68
111	16	65	66	67	68
111	17	65	66	67	68
112	18	5	6	7	55
113	27	178	162	161	179
114	18	103	102	101	148
115	18	100	99	98	154
116	27	80	71	70	82
117	27	130	110	109	131
118	27	184	159	158	186
119	18	9	10	11	47
120	27	36	16	15	38
121	15	13	14	15	16
121	16	13	14	15	16
121	17	13	14	15	16
122	18	101	102	103	143
123	27	41	14	13	43
124	27	129	110	109	132
125	15	9	10	11	12
125	16	9	10	11	12
125	17	9	10	11	12
126	27	40	14	13	43
127	22	74	156	157	187
128	18	110	109	108	133
129	18	164	165	166	170
130	27	123	113	112	126
131	11	96	95	97	155
131	12	96	95	97	155
132	18	67	68	69	83
133	18	16	17	18	32
134	27	143	103	102	146
135	18	114	113	112	125
136	27	30	19	18	32
137	27	47	11	10	49
138	18	71	72	73	75
139	27	45	12	11	46
140	22	76	73	74	156
141	18	98	99	100	150
142	27	46	11	10	48
143	27	52	8	7	55
144	27	137	106	105	140
145	5	1	3	4	61
145	6	1	3	4	61
146	27	44	12	11	47
147	27	84	69	68	85
148	18	64	65	66	89
149	18	161	162	163	175
150	18	158	159	160	181
151	27	88	67	66	90
152	18	105	106	107	135
153	15	160	161	162	163
153	16	160	161	162	163
153	17	160	161	162	163
154	20	23	63	64	65
154	21	23	63	64	65
155	15	10	11	12	13
155	16	10	11	12	13
155	17	10	11	12	13
156	18	108	109	110	130
157	27	120	115	114	121
158	27	174	164	163	176
159	18	4	5	6	57
160	18	107	106	105	140
161	27	149	100	99	152
162	27	173	164	163	176
163	18	67	66	65	91
164	18	16	15	14	40
165	27	43	13	12	44
166	27	42	13	12	45
167	18	17	16	15	38
168	14	3	4	5	59
169	18	111	110	109	132
170	27	51	9	8	52
171	27	131	109	108	134
172	18	18	19	20	29
173	18	9	8	7	54
174	15	110	111	112	113
174	16	110	111	112	113
174	17	110	111	112	113
175	27	176	163	162	177
176	27	146	102	101	148
177	27	125	112	111	128
178	18	15	16	17	34
179	27	145	102	101	148
180	27	170	166	165	171
181	18	68	67	66	90
182	18	7	8	9	50
183	5	61	4	3	62
183	6	61	4	3	62
184	27	48	10	9	50
185	5	154	98	97	155
185	6	154	98	97	155
186	27	134	108	107	135
187	27	133	108	107	135
188	18	65	66	67	87
189	27	128	111	110	129
190	18	10	9	8	52
191	5	5	4	3	62
191	6	5	4	3	62
192	27	86	68	67	88
193	15	105	106	107	108
193	16	105	106	107	108
193	17	105	106	107	108
194	18	5	6	7	54
195	27	140	105	104	142
196	27	181	160	159	183
197	18	110	111	112	126
198	27	58	5	4	61
199	18	18	17	16	37
200	18	100	99	98	153
201	27	80	71	70	81
202	27	150	100	99	152
203	27	184	159	158	185
204	18	9	10	11	46
205	27	79	71	70	81
206	27	57	6	5	59
207	18	72	71	70	82
208	27	49	10	9	51
209	18	10	11	12	45
210	15	6	7	8	9
210	16	6	7	8	9
210	17	6	7	8	9
211	18	101	100	99	152
212	27	151	99	98	154
213	15	100	101	102	103
213	16	100	101	102	103
213	17	100	101	102	103
214	27	41	14	13	42
215	15	98	99	100	101
215	16	98	99	100	101
215	17	98	99	100	101
216	27	136	107	106	138
217	18	164	165	166	169
218	27	123	113	112	125
219	5	20	21	22	25
219	6	20	21	22	25
220	18	19	20	21	27
221	27	47	11	10	48
222	15	159	160	161	162
222	16	159	160	161	162
222	17	159	160	161	162
223	31	117	116	115	119
224	15	17	18	19	20
224	16	17	18	19	20
224	17	17	18	19	20
225	18	7	6	5	59
226	27	54	7	6	57
227	15	111	112	113	114
227	16	111	112	113	114
227	17	111	112	113	114
228	28	74	73	72	78
228	29	74	73	72	78
229	18	8	7	6	57
230	18	19	18	17	34
231	28	63	64	65	92
231	29	63	64	65	92
232	27	52	8	7	54
233	28	167	166	165	172
233	29	167	166	165	172
234	27	122	114	113	123
235	27	87	67	66	90
236	27	137	106	105	139
237	18	13	14	15	39
238	5	1	3	4	60
238	6	1	3	4	60
239	27	44	12	11	46
240	5	23	22	21	26
240	6	23	22	21	26
241	27	182	160	159	183
242	5	95	97	98	154
242	6	95	97	98	154
243	27	183	159	158	186
244	27	32	18	17	35
245	18	161	160	159	184
246	18	12	11	10	48
247	18	160	159	158	186
248	18	108	109	110	129
249	27	35	17	16	37
250	1	1	3	4	5
250	2	1	3	4	5
250	3	1	3	4	5
250	4	1	3	4	5
251	18	164	163	162	177
252	27	174	164	163	175
253	27	177	162	161	180
254	18	4	5	6	56
255	18	165	164	163	176
256	27	149	100	99	151
257	18	102	101	100	149
258	27	76	73	72	78
259	27	29	20	19	31
260	18	104	103	102	145
261	27	180	161	160	182
262	27	185	158	157	188
263	30	73	74	156	157
264	18	14	15	16	36
265	27	75	73	72	78
266	27	125	112	111	127
267	27	119	115	114	122
268	27	138	106	105	139
269	18	71	70	69	84
270	28	156	157	158	186
270	29	156	157	158	186
271	18	115	114	113	124
272	27	53	8	7	55
273	27	89	66	65	92
274	18	159	160	161	179
275	27	86	68	67	87
276	27	56	6	5	58
277	27	83	69	68	86
278	27	140	105	104	141
279	18	110	111	112	125
280	27	34	17	16	37
281	27	58	5	4	60
282	18	105	104	103	144
283	18	18	17	16	36
284	7	1	95	97	98
284	8	1	95	97	98
285	27	150	100	99	151
286	27	92	65	64	93
287	18	72	71	70	81
288	27	49	10	9	50
289	15	109	110	111	112
289	16	109	110	111	112
289	17	109	110	111	112
290	18	109	108	107	136
291	18	10	11	12	44
292	15	107	108	109	110
292	16	107	108	109	110
292	17	107	108	109	110
293	32	115	116	117	118
294	27	151	99	98	153
295	18	13	12	11	47
296	18	162	163	164	173
297	18	113	114	115	120
298	18	106	105	104	141
299	27	37	16	15	38
300	27	91	65	64	93
301	27	132	109	108	134
302	14	156	157	158	159
303	27	31	19	18	32
304	18	17	18	19	30
305	27	126	112	111	128
306	18	111	112	113	124
307	27	54	7	6	56
308	18	7	6	5	58
309	27	124	113	112	126
310	7	4	3	1	95
310	8	4	3	1	95
311	15	102	103	104	105
311	16	102	103	104	105
311	17	102	103	104	105
312	18	8	7	6	56
313	28	63	64	65	91
313	29	63	64	65	91
314	28	167	166	165	171
314	29	167	166	165	171
315	13	3	1	95	96
316	27	87	67	66	89
317	9	96	95	97	98
317	10	96	95	97	98
318	27	55	7	6	57
319	15	12	13	14	15
319	16	12	13	14	15
319	17	12	13	14	15
320	5	25	22	21	26
320	6	25	22	21	26
321	27	81	70	69	83
322	18	104	105	106	138
323	27	141	104	103	143
324	15	66	67	68	69
324	16	66	67	68	69
324	17	66	67	68	69
325	5	95	97	98	153
325	6	95	97	98	153
326	15	64	65	66	67
326	16	64	65	66	67
326	17	64	65	66	67
327	22	23	63	64	94
328	15	163	164	165	166
328	16	163	164	165	166
328	17	163	164	165	166
329	15	161	162	163	164
329	16	161	162	163	164
329	17	161	162	163	164
330	18	69	68	67	88
331	27	183	159	158	185
332	27	32	18	17	34
333	18	161	160	159	183
334	18	11	12	13	42
335	27	39	15	14	41
336	18	113	112	111	128
337	27	38	15	14	41
338	18	11	10	9	50
339	27	26	21	20	28
340	27	177	162	161	179
341	18	162	161	160	182
342	22	74	156	157	158
343	18	165	164	163	175
344	5	99	98	97	155
344	6	99	98	97	155
345	18	20	19	18	32
346	7	25	22	23	63
346	8	25	22	23	63
347	18	73	72	71	80
348	18	159	158	157	188
349	27	59	5	4	61
350	15	4	5	6	7
350	16	4	5	6	7
350	17	4	5	6	7
351	27	152	99	98	154
352	18	70	69	68	85
353	18	14	13	12	45
354	18	6	7	8	53
355	27	33	18	17	35
356	35	168	167	166	170
357	27	27	21	20	29
358	5	60	4	3	62
358	6	60	4	3	62
359	18	115	114	113	123
360	7	62	3	1	95
360	8	62	3	1	95
361	27	53	8	7	54
362	27	89	66	65	91
363	18	102	103	104	142
364	27	83	69	68	85
365	27	171	165	164	174
366	18	166	165	164	174
367	18	106	107	108	134
368	18	103	102	101	147
369	27	34	17	16	36
370	18	12	13	14	41
371	5	153	98	97	155
371	6	153	98	97	155
372	27	28	20	19	31
373	27	50	9	8	53
374	18	66	67	68	86
375	27	142	104	103	144
376	18	163	164	165	172
377	27	129	110	109	131
378	18	160	161	162	178
379	27	40	14	13	42
380	27	135	107	106	138
381	27	132	109	108	133
382	19	22	23	63	64
383	15	7	8	9	10
383	16	7	8	9	10
383	17	7	8	9	10
384	27	126	112	111	127
385	18	111	112	113	123
386	14	71	72	73	74
387	27	178	162	161	180
388	18	98	99	100	149
389	15	5	6	7	8
389	16	5	6	7	8
389	17	5	6	7	8
390	27	121	114	113	124
391	27	172	165	164	174
392	14	3	4	5	6
393	27	36	16	15	39
394	18	99	100	101	148
395	27	55	7	6	56
396	18	66	65	64	94
397	14	97	98	99	100
398	15	162	163	164	165
398	16	162	163	164	165
398	17	162	163	164	165
399	18	163	162	161	180
400	18	70	71	72	78
401	22	74	156	157	188
402	27	88	67	66	89
403	27	39	15	14	40
404	15	99	100	101	102
404	16	99	100	101	102
404	17	99	100	101	102
405	27	82	70	69	84
406	27	186	158	157	188
407	18	107	106	105	139
408	27	30	19	18	33
409	18	6	5	4	61
410	13	2	1	95	97
411	27	173	164	163	175
412	18	159	158	157	187
413	27	59	5	4	60
414	27	42	13	12	44
415	27	45	12	11	47
416	14	3	4	5	58
417	18	111	110	109	131
418	27	152	99	98	153
419	33	165	166	167	168
419	34	165	166	167	168
420	27	131	109	108	133
421	18	18	19	20	28
422	27	46	11	10	49
423	22	72	73	74	156
424	18	14	13	12	44
425	18	6	7	8	52
426	27	146	102	101	147