Title

58 atoms
61 bonds
94 angles
135 dihedrals
90 impropers

7 atom types
11 bond types
4 angle types
8 dihedral types
2 improper types
-6.880000114 93.11999989 xlo xhi
-2.247999907 97.75200009 ylo yhi
-7.390999794 92.60900021 zlo zhi
0.0 0.0 0.0 xy xz yz

Masses

1	15.99943
2	12.01078
3	1.007947
4	35.4532
5	15.99943
6	15.99943
7	1.007947


Pair Coeffs

1	0.16846514	3.0251065
2	0.086879315	3.4806469
3	0.015611343	2.5725815
4	0.2656001	3.3075278
5	0.2102061	3.0398122
6	0.20947353	2.99716
7	1.2326e-05	0.53453923

Bond Coeffs

1 harmonic	425.69104206635	1.362945806494
2 harmonic	300.03137914615	1.451203938761
3 harmonic	360.7852444772	1.387193227181
4 harmonic	397.2545789619	1.085358495916
5 harmonic	279.1350963404	1.454628925034
6 harmonic	399.1592953295	1.371688562017
7 harmonic	218.0227703685	1.746066037062
8 harmonic	301.15400723785	1.345741232799
9 harmonic	582.698766451	1.225198386222
10 harmonic	385.7604595587	1.369745182308
11 harmonic	543.5267831885	0.9716763312559


Angle Coeffs

1 harmonic	57.8982893754	126.8062420451
2 harmonic	65.09061609600001	110.3538806181
3 harmonic	34.066775159195	129.1835929926
4 harmonic	201.41175231035	127.4691416191


Dihedral Coeffs

1 fourier 1	3.661930099076	2	180
2 fourier 1	1.532232714475	2	180
3 fourier 1	0.457973137376	1	0
4 fourier 1	1.163235555439	2	180
5 fourier 1	5.294842998052	2	180
6 fourier 1	2.779853741805	2	180
7 fourier 1	0.9974165607242	2	180
8 fourier 1	0.8283030590042	2	180


Improper Coeffs

1 0.3666666666666667	-1	2
2 3.5	-1	2


Atoms

1	1	1	-0.0061559998	4.901	0.45199999	1.447
2	1	2	0.28359401	3.6860001	0.20299999	0.81400001
3	1	2	-0.263237	2.77	-0.56999999	1.4119999
4	1	3	0.22944	2.971	-1.001	2.385
5	1	2	-0.114146	1.477	-0.83999997	0.74900001
6	1	3	0.21073601	0.74900001	-1.4630001	1.253
7	1	2	-0.30093899	1.2180001	-0.32600001	-0.46700001
8	1	2	0.124741	-0.092	-0.57099998	-1.119
9	1	2	-0.22975001	-0.168	-1.108	-2.3559999
10	1	4	0.038941	1.2589999	-1.686	-3.2119999
11	1	4	0.038941	-1.699	-1.272	-3.21
12	1	2	-0.30093899	-1.316	-0.206	-0.36399999
13	1	2	-0.118627	-1.472	1.0420001	0.113
14	1	3	0.21073601	-0.72299999	1.803	-0.074000001
15	1	2	-0.214349	-2.6760001	1.398	0.89200002
16	1	3	0.22950099	-2.7920001	2.4100001	1.257
17	1	2	0.44733399	-3.615	0.472	1.1440001
18	1	1	-0.43560901	-4.756	0.79100001	1.876
19	1	2	-0.214349	-3.437	-0.90700001	0.64200002
20	1	3	0.22950099	-4.1859999	-1.658	0.85500002
21	1	2	-0.118627	-2.349	-1.2309999	-0.068000004
22	1	3	0.21073601	-2.221	-2.2479999	-0.41600001
23	1	2	-0.114146	2.2290001	0.54400003	-1.119
24	1	3	0.21073601	2.0209999	0.99299997	-2.082
25	1	2	-0.263237	3.398	0.79100001	-0.514
26	1	3	0.22944	4.1300001	1.428	-0.99400002
27	1	2	0.631643	-4.9200001	1.757	2.2509999
28	1	5	-0.473939	-3.971	2.4779999	2.513
29	1	1	-0.0061559998	5.6079998	1.034	1.0140001
30	1	2	0.28359401	5.598	1.2819999	-0.35600001
31	1	2	-0.263237	6.5469999	2.0550001	-0.89999998
32	1	3	0.22944	7.322	2.4860001	-0.27900001
33	1	2	-0.114146	6.5440001	2.325	-2.3529999
34	1	3	0.21073601	7.3249998	2.948	-2.7720001
35	1	2	-0.30093899	5.579	1.812	-3.1370001
36	1	2	0.124741	5.5949998	2.0569999	-4.5999999
37	1	2	-0.22975001	4.5279999	2.5929999	-5.23
38	1	4	0.038941	3.1159999	3.171	-4.349
39	1	4	0.038941	4.4629998	2.757	-6.9829998
40	1	2	-0.30093899	6.823	1.691	-5.3460002
41	1	2	-0.088740997	7.3200002	0.44400001	-5.2680001
42	1	3	0.21073601	6.8130002	-0.317	-4.6869998
43	1	2	-0.369156	8.5609999	0.088	-5.9860001
44	1	3	0.235908	8.9390001	-0.92500001	-5.9229999
45	1	2	0.43022501	9.2119999	1.0140001	-6.7080002
46	1	6	-0.64345598	10.384	0.69400001	-7.3909998
47	1	7	0.44293901	10.778	-0.23899999	-7.3670001
48	1	2	-0.36915699	8.684	2.392	-6.7779999
49	1	3	0.235908	9.2150002	3.1440001	-7.348
50	1	2	-0.088740997	7.5570002	2.7160001	-6.132
51	1	3	0.21073601	7.1890001	3.733	-6.177
52	1	2	-0.114146	4.539	0.94099998	-2.5320001
53	1	3	0.21073601	3.776	0.493	-3.1559999
54	1	2	-0.263237	4.546	0.69400001	-1.217
55	1	3	0.22944	3.7850001	0.057999998	-0.78399998
56	1	2	0.470373	-5.9310002	2.115	2.4059999
57	1	5	-0.54124999	-6.8800001	1.4299999	2.062
58	1	4	-0.068309002	-6.204	3.6789999	3.1500001

Bonds

1	1	1	2
2	2	1	29
3	3	2	3
4	3	2	25
5	4	3	4
6	3	3	5
7	4	5	6
8	3	5	7
9	5	7	8
10	3	7	23
11	6	8	9
12	5	8	12
13	7	9	10
14	7	9	11
15	3	12	13
16	3	12	21
17	4	13	14
18	3	13	15
19	4	15	16
20	3	15	17
21	1	17	18
22	3	17	19
23	8	18	27
24	4	19	20
25	3	19	21
26	4	21	22
27	4	23	24
28	3	23	25
29	4	25	26
30	9	27	28
31	5	27	56
32	1	29	30
33	3	30	31
34	3	30	54
35	4	31	32
36	3	31	33
37	4	33	34
38	3	33	35
39	5	35	36
40	3	35	52
41	6	36	37
42	5	36	40
43	7	37	38
44	7	37	39
45	3	40	41
46	3	40	50
47	4	41	42
48	3	41	43
49	4	43	44
50	3	43	45
51	10	45	46
52	3	45	48
53	11	46	47
54	4	48	49
55	3	48	50
56	4	50	51
57	4	52	53
58	3	52	54
59	4	54	55
60	9	56	57
61	7	56	58

Angles

1	1	8	9	10
2	1	5	7	23
3	1	3	2	25
4	1	31	30	54
5	1	18	17	19
6	1	35	52	54
7	1	18	27	56
8	3	31	33	34
9	1	41	43	45
10	1	7	8	12
11	1	15	17	18
12	3	48	50	51
13	3	12	21	22
14	1	36	35	52
15	3	49	48	50
16	1	29	30	54
17	1	38	37	39
18	1	1	2	25
19	1	45	48	50
20	3	34	33	35
21	1	13	12	21
22	3	41	43	44
23	1	46	45	48
24	1	41	40	50
25	1	1	2	3
26	3	14	13	15
27	1	35	36	40
28	1	40	50	48
29	1	36	37	39
30	3	30	54	55
31	1	8	12	13
32	1	28	27	56
33	3	44	43	45
34	1	40	41	43
35	3	4	3	5
36	3	23	25	26
37	3	2	25	26
38	1	10	9	11
39	3	42	41	43
40	3	30	31	32
41	3	40	41	42
42	3	40	50	51
43	3	16	15	17
44	1	35	36	37
45	2	2	1	29
46	1	12	13	15
47	1	13	15	17
48	1	57	56	58
49	4	18	27	28
50	1	36	40	50
51	3	45	48	49
52	2	17	18	27
53	1	9	8	12
54	3	12	13	14
55	1	12	21	19
56	1	33	35	52
57	3	2	3	4
58	1	15	17	19
59	3	24	23	25
60	1	7	23	25
61	1	17	19	21
62	3	19	21	22
63	1	36	37	38
64	3	13	15	16
65	1	30	31	33
66	1	33	35	36
67	2	1	29	30
68	1	8	7	23
69	2	45	46	47
70	3	7	23	24
71	3	52	54	55
72	1	37	36	40
73	1	27	56	58
74	3	6	5	7
75	3	17	19	20
76	1	43	45	46
77	1	30	54	52
78	1	27	56	57
79	1	31	33	35
80	1	36	40	41
81	1	43	45	48
82	1	8	12	21
83	3	53	52	54
84	1	7	8	9
85	1	3	5	7
86	3	35	52	53
87	1	2	3	5
88	1	2	25	23
89	3	32	31	33
90	3	3	5	6
91	3	20	19	21
92	1	29	30	31
93	1	5	7	8
94	1	8	9	11

Dihedrals

1	1	6	5	7	23
2	4	5	7	8	9
3	1	44	43	45	48
4	2	15	17	18	27
5	5	10	9	8	12
6	4	5	7	8	12
7	1	13	12	21	22
8	1	46	45	48	49
9	5	35	36	37	39
10	1	12	13	15	17
11	1	34	33	35	52
12	1	36	40	41	43
13	8	47	46	45	48
14	8	43	45	46	47
15	4	7	8	12	21
16	3	2	1	29	30
17	4	12	8	7	23
18	4	37	36	40	50
19	1	4	3	5	7
20	4	40	36	35	52
21	1	40	41	43	44
22	1	34	33	35	36
23	2	1	29	30	54
24	1	3	5	7	8
25	1	43	45	48	49
26	1	15	13	12	21
27	1	32	31	30	54
28	1	29	30	31	33
29	1	4	3	5	6
30	1	29	30	31	32
31	1	8	12	13	14
32	1	30	54	52	53
33	4	9	8	12	21
34	1	1	2	3	5
35	1	1	2	25	26
36	1	7	23	25	26
37	1	32	31	33	34
38	1	42	41	43	44
39	5	39	37	36	40
40	1	41	40	50	48
41	1	18	17	19	20
42	2	3	2	1	29
43	1	31	30	54	55
44	1	31	33	35	52
45	1	29	30	54	52
46	1	36	40	50	48
47	1	49	48	50	51
48	1	8	7	23	24
49	5	11	9	8	12
50	4	33	35	36	40
51	2	19	17	18	27
52	1	14	13	12	21
53	1	3	2	25	26
54	1	24	23	25	26
55	2	25	2	1	29
56	4	37	36	40	41
57	5	35	36	37	38
58	1	31	33	35	36
59	2	17	18	27	28
60	1	16	15	17	18
61	1	36	35	52	54
62	1	8	12	13	15
63	1	30	54	52	35
64	1	2	25	23	7
65	1	17	19	21	22
66	1	41	40	50	51
67	1	53	52	54	55
68	1	36	40	41	42
69	1	13	12	21	19
70	1	36	40	50	51
71	1	36	35	52	53
72	1	8	12	21	19
73	1	13	15	17	19
74	1	12	21	19	17
75	1	3	5	7	23
76	1	35	52	54	55
77	5	7	8	9	11
78	1	8	7	23	25
79	1	1	2	25	23
80	5	7	8	9	10
81	1	14	13	15	16
82	1	2	3	5	6
83	4	33	35	36	37
84	4	35	36	40	50
85	1	5	3	2	25
86	5	38	37	36	40
87	4	7	8	12	13
88	1	4	3	2	25
89	1	30	31	33	35
90	1	43	41	40	50
91	1	3	2	25	23
92	1	46	45	48	50
93	1	14	13	15	17
94	4	9	8	12	13
95	1	40	50	48	49
96	1	13	15	17	18
97	1	41	43	45	46
98	1	2	3	5	7
99	1	8	12	21	22
100	1	31	30	54	52
101	1	15	17	19	21
102	1	2	25	23	24
103	1	40	41	43	45
104	1	41	43	45	48
105	4	35	36	40	41
106	1	29	30	54	55
107	4	9	8	7	23
108	1	43	45	48	50
109	1	45	48	50	51
110	1	5	7	23	25
111	1	15	17	19	20
112	1	33	31	30	54
113	1	16	15	17	19
114	7	18	27	56	58
115	1	33	35	52	54
116	1	20	19	21	22
117	7	28	27	56	58
118	1	42	41	43	45
119	2	1	29	30	31
120	1	5	7	23	24
121	1	30	31	33	34
122	1	6	5	7	8
123	1	44	43	45	46
124	1	18	17	19	21
125	1	40	50	48	45
126	4	37	36	35	52
127	1	12	13	15	16
128	1	1	2	3	4
129	7	18	27	56	57
130	1	12	21	19	20
131	6	17	18	27	56
132	1	33	35	52	53
133	1	42	41	40	50
134	7	28	27	56	57
135	1	32	31	33	35

Impropers

1	1	9	10	11	8
2	1	37	36	38	39
4	1	15	16	17	13
5	1	5	7	3	6
6	1	15	13	16	17
8	1	48	49	50	45
10	1	48	50	45	49
12	1	33	34	35	31
14	1	7	8	23	5
16	1	13	15	12	14
17	1	15	17	13	16
18	1	3	5	2	4
20	1	23	25	7	24
26	1	36	40	35	37
27	1	35	52	33	36
30	1	12	21	8	13
33	1	31	30	32	33
35	1	5	6	7	3
36	1	40	36	41	50
38	1	37	39	36	38
40	1	7	5	8	23
41	1	30	29	31	54
44	2	27	28	56	18
50	1	41	42	43	40
51	1	23	24	25	7
53	1	23	7	24	25
57	1	52	54	35	53
58	1	43	45	41	44
60	1	17	19	15	18
61	1	36	35	37	40
63	1	3	4	5	2
65	1	36	37	40	35
66	1	50	40	48	51
67	1	52	35	53	54
68	1	31	32	33	30
69	1	2	3	25	1
71	1	50	51	40	48
72	1	25	2	23	26
75	1	21	22	12	19
77	2	27	18	28	56
83	1	52	53	54	35
86	1	9	11	8	10
87	1	48	45	49	50
88	1	45	48	43	46
91	1	35	36	52	33
93	1	2	1	3	25
94	1	8	7	9	12
96	1	17	15	18	19
97	1	56	58	27	57
98	1	54	55	30	52
99	1	13	12	14	15
102	1	37	38	39	36
104	1	19	21	17	20
107	1	30	54	29	31
108	1	54	52	55	30
114	1	56	57	58	27
115	1	19	20	21	17
119	1	56	27	57	58
122	1	12	8	13	21
124	1	43	41	44	45
126	1	30	31	54	29
128	1	35	33	36	52
129	1	5	3	6	7
130	1	25	26	2	23
133	1	40	50	36	41
135	1	33	31	34	35
138	1	12	13	21	8
139	1	25	23	26	2
140	1	33	35	31	34
141	1	17	18	19	15
143	1	8	9	12	7
146	1	45	43	46	48
147	1	54	30	52	55
149	1	43	44	45	41
150	1	21	19	22	12
151	1	7	23	5	8
154	1	21	12	19	22
157	1	13	14	15	12
158	1	19	17	20	21
161	1	40	41	50	36
162	2	27	56	18	28
164	1	45	46	48	43
168	1	9	8	10	11
170	1	3	2	4	5
171	1	31	33	30	32
174	1	41	40	42	43
176	1	8	12	7	9
177	1	50	48	51	40
178	1	2	25	1	3
179	1	41	43	40	42
