Title

133 atoms
140 bonds
225 angles
347 dihedrals
180 impropers

9 atom types
13 bond types
7 angle types
17 dihedral types
3 improper types
-13.99600029 86.00399971 xlo xhi
-7.489999771 92.51000023 ylo yhi
-5.65500021 94.34499979 zlo zhi
0.0 0.0 0.0 xy xz yz

Masses

1	14.00672
2	12.01078
3	1.007947
4	1.007947
5	15.99943
6	1.007947
7	15.99943
8	12.01078
9	18.998403


Pair Coeffs

1	0.16769152	3.206876
2	0.086879315	3.4806469
3	0.015611343	2.5725815
4	0.014090815	1.1034277
5	0.20947353	2.99716
6	1.2326e-05	0.53453923
7	0.2102061	3.0398122
8	0.10884061	3.3795318
9	0.061	3.1181455

Bond Coeffs

1 harmonic	390.03554688505	1.390160554689
2 harmonic	505.144496193	1.019481865027
3 harmonic	422.7150220147	1.421786517481
4 harmonic	360.7852444772	1.387193227181
5 harmonic	397.2545789619	1.085358495916
6 harmonic	279.1350963404	1.454628925034
7 harmonic	492.76746816345	1.381897776683
8 harmonic	385.7604595587	1.369745182308
9 harmonic	543.5267831885	0.9716763312559
10 harmonic	582.698766451	1.225198386222
11 harmonic	289.73813263395	1.498646816465
12 harmonic	264.62148576755	1.52190126495
13 harmonic	340.45121009905	1.358690858053


Angle Coeffs

1 harmonic	57.8982893754	126.8062420451
2 harmonic	55.42182150775	117.3465570514
3 harmonic	63.44422595415	115.5071327674
4 harmonic	34.066775159195	129.1835929926
5 harmonic	65.09061609600001	110.3538806181
6 harmonic	53.20531626545	116.5475862634
7 harmonic	201.41175231035	127.4691416191


Dihedral Coeffs

1 fourier 1	3.661930099076	2	180
2 fourier 1	1.193093382682	2	180
3 fourier 1	0.02021088501612	1	0
4 fourier 1	0.8283030590042	2	180
5 fourier 1	1.163235555439	2	180
6 fourier 1	3.101948770557	2	180
7 fourier 1	-0.4252153282372	1	0
8 fourier 1	1.809047390003	2	180
9 fourier 1	-0.04816277792592	1	0
10 fourier 1	0.9974165607242	2	180
11 fourier 1	2.348375642009	2	180
12 fourier 1	1.256156174911	1	0
13 fourier 1	0.02664938770063	3	0
14 fourier 1	0.1155372516788	3	0
15 fourier 1	2.687457892086	2	180
16 fourier 1	2.772607909663	2	180
17 fourier 1	0.09692684957115	1	0


Improper Coeffs

1 0.3666666666666667	-1	2
2 0.3333333333333333	-1	2
3 3.5	-1	2


Atoms

1	1	1	-0.37102899	5.0229998	-0.108	-0.192
2	1	2	0.015243	3.5940001	-0.068999998	-0.083999999
3	1	2	-0.390558	3.023	0.84200001	0.72299999
4	1	3	0.234777	3.6340001	1.5369999	1.285
5	1	2	-0.126799	1.556	0.92299998	0.852
6	1	3	0.21649501	1.137	1.689	1.492
7	1	2	0.0067340001	0.76200002	0.082999997	0.16500001
8	1	2	0.0067340001	-0.71799999	0.162	0.271
9	1	2	-0.14348499	-1.322	0.37599999	1.4529999
10	1	3	0.21649501	-0.745	0.484	2.3629999
11	1	2	-0.34087399	-2.793	0.435	1.543
12	1	3	0.23058499	-3.2490001	0.602	2.5109999
13	1	2	0.071887001	-3.5569999	0.27500001	0.449
14	1	1	-0.48760599	-4.9840002	0.32699999	0.57999998
15	1	4	0.32560799	-5.4260001	0.50300002	1.51
16	1	2	0.132356	-2.8940001	0.044	-0.87199998
17	1	5	-0.64010602	-3.6199999	-0.114	-2.0539999
18	1	6	0.45177799	-4.6269999	-0.071000002	-2.1010001
19	1	2	-0.38036901	-1.556	-0.011	-0.94199997
20	1	3	0.231664	-1.0829999	-0.163	-1.904
21	1	2	-0.373813	1.387	-0.92799997	-0.72399998
22	1	3	0.231664	0.75999999	-1.624	-1.268
23	1	2	0.102044	2.72	-1.013	-0.847
24	1	5	-0.63724399	3.2390001	-1.997	-1.6900001
25	1	6	0.45177799	4.2280002	-2.1459999	-1.831
26	1	4	0.38021201	5.5209999	-0.76999998	-0.82300001
27	1	2	0.762079	-5.6389999	0.177	-0.23899999
28	1	7	-0.63963002	-6.0250001	1.192	-0.87800002
29	1	2	-0.27499199	-6.072	-1.186	-0.634
30	1	2	-0.092702001	-6.6620002	-1.37	-1.8279999
31	1	3	0.230716	-6.848	-0.537	-2.494
32	1	2	-0.262568	-7.0359998	-2.7160001	-2.2909999
33	1	3	0.22461399	-7.4860001	-2.802	-3.2720001
34	1	2	-0.030293001	-6.8239999	-3.8080001	-1.528
35	1	8	-0.264532	-7.1859999	-5.211	-2.0810001
36	1	2	-0.045676	-8.6160002	-5.1609998	-2.6760001
37	1	2	-0.25924501	-8.9689999	-5.8140001	-3.803
38	1	3	0.22461399	-8.2620001	-6.3860002	-4.381
39	1	2	-0.074280001	-10.346	-5.744	-4.322
40	1	3	0.240114	-10.553	-6.2080002	-5.2800002
41	1	2	-0.16235299	-11.301	-5.0609999	-3.668
42	1	2	0.808258	-12.62	-4.888	-4.3179998
43	1	7	-0.458776	-13.295	-3.8410001	-4.125
44	1	5	-0.65832001	-13.103	-5.8600001	-5.1900001
45	1	6	0.42821601	-13.996	-5.7449999	-5.6550002
46	1	2	-0.16013201	-10.966	-4.434	-2.349
47	1	2	0.80909199	-12.003	-3.855	-1.464
48	1	7	-0.458776	-13.175	-4.3179998	-1.464
49	1	5	-0.65832001	-11.676	-2.8239999	-0.58600003
50	1	6	0.42821601	-12.371	-2.4319999	0.037
51	1	2	-0.035957001	-9.6940002	-4.4699998	-1.91
52	1	3	0.2343	-9.4490004	-4.0349998	-0.949
53	1	8	0.76034302	-6.0840001	-5.573	-3.1370001
54	1	9	-0.182052	-4.8210001	-5.3340001	-2.6159999
55	1	9	-0.182052	-6.223	-4.802	-4.2789998
56	1	9	-0.182052	-6.1389999	-6.9089999	-3.497
57	1	8	0.76034302	-7.2080002	-6.3169999	-0.97299999
58	1	9	-0.182052	-7.7529998	-7.4899998	-1.472
59	1	9	-0.182052	-7.98	-5.921	0.106
60	1	9	-0.182052	-5.9299998	-6.6100001	-0.52399999
61	1	2	0.0036009999	-6.1630001	-3.605	-0.20299999
62	1	3	0.224133	-5.9770002	-4.4530001	0.43599999
63	1	2	-0.23784	-5.822	-2.3770001	0.241
64	1	2	0.58689302	-5.2459998	-2.227	1.6
65	1	7	-0.49403101	-4.8309999	-3.2260001	2.247
66	1	1	-0.37102899	5.6160002	0.551	0.361
67	1	2	0.015243	5.6069999	0.51300001	1.795
68	1	2	-0.390558	4.8429999	-0.398	2.4200001
69	1	3	0.234777	4.2389998	-1.0930001	1.849
70	1	2	-0.126799	4.8150001	-0.47999999	3.892
71	1	3	0.21649501	4.2059999	-1.2460001	4.355
72	1	2	0.0067340001	5.5560002	0.36000001	4.6370001
73	1	2	0.0067340001	5.553	0.28099999	6.1199999
74	1	2	-0.088407002	4.415	0.067000002	6.8049998
75	1	3	0.21649501	3.467	-0.039999999	6.2930002
76	1	2	-0.42162499	4.428	0.0080000004	8.2790003
77	1	3	0.24516	3.494	-0.15899999	8.8009996
78	1	2	0.251645	5.572	0.169	8.9650002
79	1	1	-0.81740099	5.54	0.117	10.398
80	1	4	0.383059	6.388	0.264	10.984
81	1	4	0.383059	4.6430001	-0.059999999	10.903
82	1	2	0.063909002	6.8439999	0.40000001	8.2130003
83	1	5	-0.629062	8.0740004	0.55699998	8.8540001
84	1	6	0.45177799	8.1899996	0.514	9.8559999
85	1	2	-0.34359899	6.8210001	0.45500001	6.8730001
86	1	3	0.231664	7.7480001	0.60699999	6.3340001
87	1	2	-0.373813	6.3990002	1.3710001	3.9519999
88	1	3	0.231664	6.9850001	2.0680001	4.539
89	1	2	0.102044	6.4299998	1.456	2.6140001
90	1	5	-0.63724399	7.2340002	2.4400001	2.0369999
91	1	6	0.45177799	7.3070002	2.589	1.041
92	1	4	0.38021201	6.211	1.2130001	-0.17900001
93	1	2	0.58833402	-5.1830001	-1.258	2.0739999
94	1	7	-0.49403101	-5.8569999	-0.31099999	1.5880001
95	1	2	-0.27054301	-4.3439999	-1.063	3.28
96	1	2	-0.030506	-4.5289998	0.026000001	4.0469999
97	1	3	0.227725	-5.2449999	0.78899997	3.7690001
98	1	2	-0.255344	-3.812	0.186	5.3249998
99	1	3	0.22461399	-4.0029998	1.092	5.8769999
100	1	2	-0.045676	-2.983	-0.77499998	5.783
101	1	8	-0.264532	-2.191	-0.64999998	7.1100001
102	1	2	-0.045676	-2.188	-2.0280001	7.8210001
103	1	2	-0.25924501	-3.345	-2.711	7.96
104	1	3	0.22461399	-4.27	-2.326	7.5500002
105	1	2	-0.074280001	-3.385	-4.0250001	8.6210003
106	1	3	0.240114	-4.322	-4.5689998	8.6160002
107	1	2	-0.16235299	-2.2739999	-4.5689998	9.1420002
108	1	2	0.808258	-2.3329999	-5.961	9.6440001
109	1	7	-0.458776	-1.323	-6.711	9.5710001
110	1	5	-0.65832001	-3.5239999	-6.4699998	10.157
111	1	6	0.42821601	-3.582	-7.4260001	10.487
112	1	2	-0.16013201	-1.001	-3.78	9.118
113	1	2	0.80909199	0.199	-4.2160001	9.8699999
114	1	7	-0.458776	1.352	-3.927	9.4499998
115	1	5	-0.65832001	0.061999999	-4.9070001	11.071
116	1	6	0.42821601	0.87599999	-5.197	11.599
117	1	2	-0.035957001	-0.97100002	-2.596	8.4729996
118	1	3	0.2343	-0.052999999	-2.029	8.4860001
119	1	8	0.76034302	-0.75400001	-0.163	6.7220001
120	1	9	-0.182052	-0.82700002	0.92699999	5.8699999
121	1	9	-0.182052	-0.054000001	-1.164	6.0679998
122	1	9	-0.182052	-0.030999999	0.229	7.8369999
123	1	8	0.76034302	-2.8199999	0.37400001	8.118
124	1	9	-0.182052	-4.1789999	0.153	8.2629995
125	1	9	-0.182052	-2.233	0.243	9.3669996
126	1	9	-0.182052	-2.6270001	1.682	7.7020001
127	1	2	-0.024484999	-2.7309999	-1.951	4.9000001
128	1	3	0.2343	-1.998	-2.6849999	5.211
129	1	2	-0.10338	-3.349	-2.0929999	3.7119999
130	1	2	0.82117498	-2.9719999	-3.2309999	2.8410001
131	1	7	-0.458776	-2.6289999	-4.3330002	3.3510001
132	1	5	-0.65832001	-2.9449999	-3.0829999	1.4579999
133	1	6	0.42821601	-2.675	-3.852	0.85699999

Bonds

1	1	1	2
2	2	1	26
3	3	1	66
4	4	2	3
5	4	2	23
6	5	3	4
7	4	3	5
8	5	5	6
9	4	5	7
10	6	7	8
11	4	7	21
12	4	8	9
13	4	8	19
14	5	9	10
15	4	9	11
16	5	11	12
17	4	11	13
18	1	13	14
19	4	13	16
20	2	14	15
21	7	14	27
22	8	16	17
23	4	16	19
24	9	17	18
25	5	19	20
26	5	21	22
27	4	21	23
28	8	23	24
29	9	24	25
30	10	27	28
31	6	27	29
32	4	29	30
33	4	29	63
34	5	30	31
35	4	30	32
36	5	32	33
37	4	32	34
38	11	34	35
39	4	34	61
40	11	35	36
41	12	35	53
42	12	35	57
43	4	36	37
44	4	36	51
45	5	37	38
46	4	37	39
47	5	39	40
48	4	39	41
49	6	41	42
50	4	41	46
51	10	42	43
52	8	42	44
53	9	44	45
54	6	46	47
55	4	46	51
56	10	47	48
57	8	47	49
58	9	49	50
59	5	51	52
60	13	53	54
61	13	53	55
62	13	53	56
63	13	57	58
64	13	57	59
65	13	57	60
66	5	61	62
67	4	61	63
68	6	63	64
69	10	64	65
70	6	64	93
71	1	66	67
72	2	66	92
73	4	67	68
74	4	67	89
75	5	68	69
76	4	68	70
77	5	70	71
78	4	70	72
79	6	72	73
80	4	72	87
81	4	73	74
82	4	73	85
83	5	74	75
84	4	74	76
85	5	76	77
86	4	76	78
87	1	78	79
88	4	78	82
89	2	79	80
90	2	79	81
91	8	82	83
92	4	82	85
93	9	83	84
94	5	85	86
95	5	87	88
96	4	87	89
97	8	89	90
98	9	90	91
99	10	93	94
100	6	93	95
101	4	95	96
102	4	95	129
103	5	96	97
104	4	96	98
105	5	98	99
106	4	98	100
107	11	100	101
108	4	100	127
109	11	101	102
110	12	101	119
111	12	101	123
112	4	102	103
113	4	102	117
114	5	103	104
115	4	103	105
116	5	105	106
117	4	105	107
118	6	107	108
119	4	107	112
120	10	108	109
121	8	108	110
122	9	110	111
123	6	112	113
124	4	112	117
125	10	113	114
126	8	113	115
127	9	115	116
128	5	117	118
129	13	119	120
130	13	119	121
131	13	119	122
132	13	123	124
133	13	123	125
134	13	123	126
135	5	127	128
136	4	127	129
137	6	129	130
138	10	130	131
139	8	130	132
140	9	132	133

Angles

1	1	64	93	94
2	1	87	89	90
3	4	103	105	106
4	1	102	103	105
5	1	63	64	93
6	1	107	108	110
7	1	32	34	35
8	1	2	23	21
9	1	72	87	89
10	1	95	129	130
11	3	1	66	92
12	6	58	57	59
13	3	67	66	92
14	6	100	101	123
15	1	27	29	30
16	1	101	102	117
17	1	41	42	43
18	4	3	5	6
19	1	96	95	129
20	4	100	127	128
21	1	105	107	108
22	1	14	13	16
23	6	100	101	119
24	6	101	123	124
25	6	34	35	36
26	1	64	93	95
27	6	124	123	125
28	4	7	21	22
29	1	1	2	23
30	1	46	47	49
31	4	68	70	71
32	6	58	57	60
33	1	29	30	32
34	4	69	68	70
35	1	1	2	3
36	1	29	63	61
37	4	37	39	40
38	4	112	117	118
39	1	39	41	46
40	1	41	42	44
41	1	3	5	7
42	1	100	127	129
43	6	34	35	57
44	1	95	129	127
45	1	112	113	115
46	3	26	1	66
47	3	80	79	81
48	1	79	78	82
49	1	35	36	51
50	6	124	123	126
51	6	101	119	122
52	1	7	21	23
53	4	34	61	62
54	1	68	70	72
55	1	39	41	42
56	1	66	67	68
57	1	78	82	85
58	1	102	117	112
59	6	34	35	53
60	6	35	57	58
61	4	40	39	41
62	5	47	49	50
63	1	113	112	117
64	4	104	103	105
65	1	73	74	76
66	1	11	13	16
67	4	33	32	34
68	1	105	107	112
69	1	73	85	82
70	4	75	74	76
71	1	103	102	117
72	4	46	51	52
73	4	8	9	10
74	1	13	16	19
75	1	76	78	82
76	5	113	115	116
77	4	9	11	12
78	4	106	105	107
79	2	1	66	67
80	1	34	61	63
81	1	67	89	90
82	1	72	73	85
83	1	98	100	101
84	6	102	101	119
85	7	109	108	110
86	6	53	35	57
87	1	68	67	89
88	5	89	90	91
89	4	99	98	100
90	1	8	9	11
91	6	35	53	56
92	4	77	76	78
93	3	15	14	27
94	4	10	9	11
95	4	31	30	32
96	1	103	105	107
97	3	13	14	15
98	5	16	17	18
99	1	47	46	51
100	4	30	32	33
101	4	73	85	86
102	6	125	123	126
103	1	36	51	46
104	5	108	110	111
105	6	119	101	123
106	1	17	16	19
107	1	127	129	130
108	1	9	11	13
109	6	120	119	121
110	4	12	11	13
111	1	37	36	51
112	6	121	119	122
113	1	72	73	74
114	1	70	72	87
115	4	74	76	77
116	7	43	42	44
117	6	101	123	125
118	2	13	14	27
119	6	101	119	120
120	7	131	130	132
121	1	67	89	87
122	5	82	83	84
123	1	101	102	103
124	1	73	72	87
125	1	37	39	41
126	6	120	119	122
127	4	88	87	89
128	6	102	101	123
129	1	28	27	29
130	1	30	29	63
131	4	4	3	5
132	1	74	76	78
133	5	42	44	45
134	4	38	37	39
135	1	61	63	64
136	6	54	53	55
137	4	95	96	97
138	4	36	37	38
139	6	55	53	56
140	1	65	64	93
141	1	78	82	83
142	6	59	57	60
143	1	129	130	131
144	1	2	23	24
145	6	35	57	59
146	6	35	53	54
147	1	41	46	51
148	4	96	98	99
149	1	35	36	37
150	1	14	27	28
151	1	8	19	16
152	4	102	103	104
153	3	2	1	26
154	4	72	87	88
155	1	7	8	9
156	6	54	53	56
157	1	95	96	98
158	1	32	34	61
159	1	41	46	47
160	1	101	100	127
161	1	107	112	117
162	1	98	100	127
163	1	70	72	73
164	1	66	67	89
165	7	48	47	49
166	1	76	78	79
167	1	27	29	63
168	4	22	21	23
169	1	63	64	65
170	1	83	82	85
171	1	96	98	100
172	6	36	35	57
173	1	9	8	19
174	1	14	27	29
175	1	46	47	48
176	4	67	68	69
177	4	82	85	86
178	1	107	112	113
179	1	21	23	24
180	1	30	32	34
181	1	42	41	46
182	4	29	30	31
183	4	62	61	63
184	1	29	63	64
185	6	36	35	53
186	1	11	13	14
187	7	114	113	115
188	4	71	70	72
189	4	36	51	52
190	1	74	73	85
191	4	2	3	4
192	1	112	113	114
193	6	101	123	126
194	1	13	16	17
195	4	16	19	20
196	1	35	34	61
197	1	93	95	96
198	1	108	107	112
199	6	101	119	121
200	1	7	8	19
201	4	8	19	20
202	1	67	68	70
203	2	2	1	66
204	4	6	5	7
205	3	78	79	80
206	4	128	127	129
207	1	3	2	23
208	4	102	117	118
209	4	73	74	75
210	1	107	108	109
211	1	2	3	5
212	5	23	24	25
213	1	36	37	39
214	1	5	7	8
215	1	94	93	95
216	4	97	96	98
217	5	130	132	133
218	3	78	79	81
219	1	129	130	132
220	6	100	101	102
221	1	5	7	21
222	6	35	57	60
223	1	8	7	21
224	6	35	53	55
225	1	93	95	129

Dihedrals

1	10	94	93	95	129
2	1	72	73	85	82
3	1	75	74	73	85
4	13	57	35	34	61
5	16	48	47	49	50
5	17	48	47	49	50
6	3	2	1	66	67
7	1	30	32	34	35
8	1	95	129	127	100
9	14	100	101	119	120
10	1	71	70	72	73
11	10	63	64	93	94
12	2	15	14	13	16
13	1	30	29	63	61
14	1	107	112	117	118
15	1	105	107	112	113
16	16	114	113	115	116
16	17	114	113	115	116
17	1	83	82	85	86
18	10	29	63	64	93
19	1	39	41	46	47
20	1	93	95	129	127
21	1	76	78	82	83
22	10	61	63	64	65
23	13	100	101	102	117
24	13	98	100	101	119
25	1	105	107	112	117
26	1	77	76	78	79
27	1	101	100	127	129
28	1	8	9	11	13
29	1	27	29	30	31
30	1	97	96	98	100
31	1	96	95	129	130
32	1	1	2	23	24
33	1	37	36	51	46
34	5	74	73	72	87
35	14	102	101	119	121
36	1	73	72	87	88
37	2	76	78	79	80
38	1	14	13	16	17
39	14	36	35	57	58
40	1	13	16	19	20
41	13	102	101	100	127
42	1	27	29	63	64
43	10	105	107	108	109
44	13	51	36	35	57
45	14	34	35	53	56
46	1	93	95	96	97
47	1	9	11	13	14
48	5	5	7	8	9
49	1	4	3	2	23
50	1	101	102	103	105
51	1	10	9	11	12
52	10	41	46	47	48
53	10	64	93	95	129
54	14	100	101	123	124
55	1	76	74	73	85
56	1	68	70	72	87
57	1	66	67	89	87
58	13	100	101	102	103
59	1	12	11	13	14
60	1	1	2	3	5
61	14	120	119	101	123
62	1	79	78	82	83
63	1	74	76	78	82
64	13	32	34	35	57
65	1	96	95	129	127
66	1	69	68	70	72
67	1	75	74	76	77
68	1	37	36	51	52
69	10	65	64	93	94
70	10	29	63	64	65
71	1	35	34	61	63
72	1	30	29	63	64
73	1	34	61	63	64
74	1	36	37	39	41
75	1	69	68	67	89
76	10	127	129	130	131
77	1	27	29	63	61
78	4	21	23	24	25
79	1	101	100	127	128
80	1	68	70	72	73
81	1	8	9	11	12
82	1	9	8	19	16
83	14	53	35	57	58
84	1	106	105	107	108
85	1	93	95	129	130
86	13	34	35	36	37
87	14	54	53	35	57
88	1	31	30	32	34
89	1	70	72	87	88
90	14	119	101	123	124
91	1	40	39	41	46
92	1	68	67	89	87
93	1	2	3	5	6
94	2	11	13	14	15
95	14	34	35	57	60
96	1	77	76	78	82
97	1	47	46	51	52
98	1	74	73	85	82
99	1	9	8	19	20
100	1	106	105	107	112
101	1	4	3	5	7
102	1	101	102	103	104
103	1	41	46	51	52
104	10	95	129	130	132
105	14	102	101	123	125
106	13	117	102	101	119
107	1	73	74	76	78
108	14	36	35	53	56
109	1	102	103	105	107
110	1	11	13	16	17
111	3	26	1	66	67
112	5	9	8	7	21
113	1	2	23	21	7
114	1	1	2	3	4
115	1	73	85	82	83
116	1	103	102	117	112
117	1	6	5	7	21
118	1	32	34	61	62
119	13	117	102	101	123
120	14	100	101	119	122
121	1	104	103	105	106
122	1	35	34	61	62
123	1	35	36	37	38
124	10	14	27	29	30
125	1	66	67	89	90
126	1	74	73	85	86
127	13	123	101	100	127
128	13	51	36	35	53
129	1	7	8	9	11
130	10	39	41	42	44
131	2	1	66	67	89
132	1	30	32	34	61
133	1	31	30	32	33
134	10	43	42	41	46
135	4	84	83	82	85
136	13	37	36	35	57
137	1	29	63	61	34
138	1	33	32	34	35
139	6	13	14	27	28
139	7	13	14	27	28
140	13	36	35	34	61
141	1	39	37	36	51
142	1	103	102	117	118
143	1	8	7	21	23
144	13	32	34	35	53
145	16	131	130	132	133
145	17	131	130	132	133
146	1	98	100	127	129
147	1	7	8	19	20
148	1	5	7	21	23
149	1	4	3	5	6
150	5	85	73	72	87
151	1	31	30	29	63
152	1	37	39	41	42
153	1	95	129	127	128
154	1	100	127	129	130
155	1	105	103	102	117
156	14	102	101	123	124
157	1	72	73	74	76
158	14	36	35	57	60
159	1	5	3	2	23
160	1	73	74	76	77
161	14	36	35	53	55
162	1	78	82	85	86
163	1	3	5	7	8
164	1	10	9	8	19
165	2	11	13	14	27
166	1	68	67	89	90
167	1	3	5	7	21
168	1	102	117	112	107
169	1	9	11	13	16
170	1	35	36	51	46
171	1	36	51	46	41
172	14	100	101	123	126
173	1	32	30	29	63
174	14	100	101	119	121
175	1	113	112	117	118
176	15	129	130	132	133
177	14	55	53	35	57
178	2	1	66	67	68
179	1	40	39	41	42
180	1	17	16	19	20
181	1	70	68	67	89
182	1	12	11	13	16
183	1	42	41	46	51
184	1	8	19	16	17
185	1	95	96	98	100
186	1	99	98	100	101
187	1	97	96	98	99
188	15	46	47	49	50
189	13	53	35	34	61
190	14	102	101	119	120
191	1	102	117	112	113
192	15	112	113	115	116
193	10	109	108	107	112
194	14	34	35	53	55
195	1	8	7	21	22
196	3	2	1	66	92
197	2	23	2	1	26
198	14	53	35	57	60
199	1	22	21	23	24
200	1	5	7	21	22
201	1	35	36	51	52
202	16	43	42	44	45
202	17	43	42	44	45
203	1	36	51	46	47
204	2	16	13	14	27
205	1	72	73	74	75
206	2	76	78	79	81
207	14	36	35	57	59
208	14	119	101	123	126
209	1	108	107	112	117
210	1	67	89	87	72
211	1	38	37	39	41
212	1	99	98	100	127
213	10	105	107	108	110
214	1	62	61	63	64
215	2	3	2	1	26
216	1	93	95	96	98
217	1	67	68	70	72
218	2	23	2	1	66
219	13	32	34	35	36
220	1	97	96	95	129
221	1	88	87	89	90
222	1	6	5	7	8
223	1	69	68	70	71
224	1	10	9	11	13
225	13	103	102	101	123
226	13	119	101	100	127
227	1	128	127	129	130
228	10	41	46	47	49
229	1	3	2	23	21
230	1	7	21	23	24
231	14	100	101	123	125
232	4	13	16	17	18
233	1	29	30	32	34
234	10	44	42	41	46
235	1	11	13	16	19
236	13	37	36	35	53
237	1	36	37	39	40
238	10	107	112	113	115
239	1	37	39	41	46
240	2	3	2	1	66
241	1	2	23	21	22
242	1	95	96	98	99
243	5	19	8	7	21
244	1	7	8	19	16
245	1	75	74	76	78
246	15	107	108	110	111
247	10	49	47	46	51
248	10	48	47	46	51
249	10	28	27	29	30
250	10	65	64	93	95
251	8	15	14	27	29
251	9	15	14	27	29
252	10	115	113	112	117
253	10	127	129	130	132
254	1	72	73	85	86
255	14	34	35	57	59
256	1	73	85	82	78
257	14	34	35	53	54
258	1	101	102	117	112
259	1	38	37	36	51
260	1	66	67	68	70
261	14	53	35	57	59
262	14	121	119	101	123
263	1	39	41	46	51
264	1	96	98	100	101
265	1	76	78	82	85
266	10	95	129	130	131
267	1	70	72	87	89
268	1	14	13	16	19
269	14	119	101	123	125
270	1	102	103	105	106
271	10	64	93	95	96
272	10	14	27	29	63
273	13	98	100	101	123
274	1	2	3	5	7
275	1	38	37	39	40
276	2	81	79	78	82
277	1	42	41	46	47
278	1	8	19	16	13
279	1	7	8	9	10
280	1	67	68	70	71
281	13	34	35	36	51
282	10	114	113	112	117
283	14	122	119	101	123
284	1	103	105	107	108
285	10	28	27	29	63
286	14	102	101	123	126
287	1	33	32	34	61
288	2	68	67	66	92
289	1	29	30	32	33
290	2	89	67	66	92
291	10	63	64	93	95
292	10	107	112	113	114
293	4	18	17	16	19
294	1	101	102	117	118
295	16	109	108	110	111
295	17	109	108	110	111
296	15	41	42	44	45
297	1	96	98	100	127
298	1	103	105	107	112
299	4	67	89	90	91
300	10	61	63	64	93
301	4	87	89	90	91
302	10	39	41	42	43
303	1	1	2	23	21
304	1	32	34	61	63
305	1	3	2	23	24
306	11	15	14	27	28
306	12	15	14	27	28
307	5	70	72	73	74
308	1	29	63	61	62
309	14	56	53	35	57
310	1	104	103	105	107
311	4	2	23	24	25
312	1	35	36	37	39
313	1	79	78	82	85
314	2	80	79	78	82
315	1	108	107	112	113
316	14	34	35	57	58
317	4	78	82	83	84
318	1	27	29	30	32
319	1	66	67	68	69
320	1	98	96	95	129
321	1	98	100	127	128
322	5	70	72	73	85
323	10	110	108	107	112
324	10	94	93	95	96
325	5	5	7	8	19
326	3	26	1	66	92
327	13	103	102	101	119
328	1	104	103	102	117
329	1	71	70	72	87
330	1	67	89	87	88
331	1	73	72	87	89
332	14	102	101	119	122
333	14	36	35	53	54
334	1	11	9	8	19
335	1	72	87	89	90
336	8	13	14	27	29
336	9	13	14	27	29
337	13	98	100	101	102
338	1	74	76	78	79

Impropers

1	1	98	99	100	96
2	1	9	8	10	11
3	1	68	67	69	70
4	1	105	106	107	103
8	1	19	20	8	16
12	1	13	14	16	11
16	1	107	105	108	112
17	1	107	112	105	108
18	1	23	21	24	2
20	2	66	92	1	67
24	1	46	41	47	51
27	1	117	118	102	112
29	1	73	85	72	74
32	1	102	117	101	103
37	1	29	30	63	27
39	1	70	72	68	71
41	1	112	107	113	117
42	1	37	38	39	36
43	1	87	72	88	89
44	1	61	34	62	63
47	1	7	21	5	8
50	1	39	41	37	40
51	1	70	68	71	72
52	1	3	2	4	5
55	1	41	39	42	46
56	2	14	27	13	15
61	1	78	82	76	79
62	1	105	107	103	106
63	1	32	30	33	34
71	2	1	2	26	66
72	3	108	109	110	107
73	1	36	51	35	37
77	1	76	74	77	78
83	1	74	75	76	73
87	1	34	35	61	32
90	1	64	93	63	65
96	1	117	102	112	118
97	1	64	65	93	63
106	1	82	83	85	78
108	1	51	36	46	52
113	1	11	13	9	12
120	1	72	87	70	73
123	1	5	7	3	6
133	1	2	3	23	1
139	3	47	48	49	46
140	1	63	29	61	64
143	1	67	66	68	89
146	1	29	63	27	30
147	1	8	9	19	7
148	2	79	78	80	81
151	1	72	70	73	87
154	2	66	1	67	92
155	1	7	5	8	21
156	1	19	16	20	8
157	1	27	29	14	28
159	1	95	96	129	93
161	1	89	67	87	90
163	1	127	100	128	129
165	1	16	19	13	17
169	1	3	5	2	4
172	1	95	93	96	129
179	1	41	42	46	39
180	1	102	103	117	101
182	1	85	82	86	73
192	1	64	63	65	93
195	1	93	94	95	64
200	1	23	2	21	24
202	1	37	39	36	38
203	1	87	89	72	88
204	1	100	101	127	98
206	1	23	24	2	21
207	1	67	68	89	66
210	1	2	23	1	3
213	1	96	98	95	97
216	1	36	37	51	35
217	1	103	105	102	104
221	1	36	35	37	51
228	1	70	71	72	68
231	1	72	73	87	70
232	1	107	108	112	105
233	2	79	81	78	80
238	1	9	10	11	8
239	1	51	46	52	36
240	1	73	74	85	72
250	1	27	28	29	14
252	1	78	76	79	82
254	2	14	15	27	13
256	1	95	129	93	96
260	1	76	77	78	74
264	1	96	97	98	95
265	1	68	70	67	69
266	1	93	95	64	94
269	1	74	73	75	76
272	1	103	102	104	105
274	1	13	16	11	14
276	1	127	128	129	100
277	1	16	13	17	19
280	1	129	130	95	127
283	1	100	98	101	127
285	3	113	115	112	114
286	1	27	14	28	29
287	1	78	79	82	76
288	1	8	19	7	9
305	1	85	73	82	86
309	1	9	11	8	10
312	1	76	78	74	77
313	2	14	13	15	27
316	1	46	47	51	41
318	1	32	34	30	33
321	1	30	31	32	29
323	1	98	96	99	100
327	1	103	104	105	102
328	3	130	129	131	132
329	1	89	90	67	87
332	3	42	41	43	44
333	1	5	3	6	7
336	1	29	27	30	63
337	1	129	127	130	95
340	1	102	101	103	117
344	1	3	4	5	2
345	1	87	88	89	72
346	3	47	46	48	49
351	1	39	37	40	41
353	3	130	132	129	131
354	1	117	112	118	102
358	2	1	26	66	2
360	3	113	112	114	115
363	3	130	131	132	129
368	3	108	110	107	109
371	1	5	6	7	3
375	1	85	86	73	82
376	1	63	61	64	29
384	1	46	51	41	47
385	1	82	78	83	85
387	1	19	8	16	20
388	1	67	89	66	68
393	1	41	46	39	42
395	2	1	66	2	26
396	1	112	117	107	113
402	1	32	33	34	30
403	1	89	87	90	67
404	3	42	44	41	43
406	1	82	85	78	83
408	1	2	1	3	23
410	1	51	52	36	46
412	1	13	11	14	16
414	1	37	36	38	39
418	1	30	29	31	32
419	1	61	62	63	34
420	1	7	8	21	5
424	1	73	72	74	85
425	1	129	95	127	130
426	3	47	49	46	48
428	1	21	7	22	23
430	1	112	113	117	107
433	1	127	129	100	128
440	1	8	7	9	19
441	1	63	64	29	61
444	1	96	95	97	98
445	1	21	22	23	7
446	1	61	63	34	62
453	3	42	43	44	41
454	2	66	67	92	1
455	3	108	107	109	110
456	1	34	61	32	35
466	1	16	17	19	13
467	1	11	9	12	13
469	1	34	32	35	61
475	1	21	23	7	22
480	1	68	69	70	67
482	1	105	103	106	107
485	1	100	127	98	101
487	1	30	32	29	31
491	1	11	12	13	9
492	1	98	100	96	99
495	1	39	40	41	37
497	1	93	64	94	95
500	1	74	76	73	75
501	2	79	80	81	78
504	3	113	114	115	112
