Title

846 atoms
845 bonds
1634 angles
3036 dihedrals
102 impropers

11 atom types
14 bond types
9 angle types
35 dihedral types
3 improper types
-15.47000027 84.52999973 xlo xhi
-27.11700058 72.88299942 ylo yhi
-8.095000267 91.90499973 zlo zhi
0.0 0.0 0.0 xy xz yz

Masses

1	15.99943
2	12.01078
3	14.00672
4	12.01078
5	1.007947
6	1.007947
7	1.007947
8	15.99943
9	12.01078
10	15.99943
11	1.007947


Pair Coeffs

1	0.2102061	3.0398122
2	0.086879315	3.4806469
3	0.16769152	3.206876
4	0.10884061	3.3795318
5	0.014090815	1.1034277
6	0.016409246	2.5832257
7	0.015779483	2.6445434
8	0.16846514	3.0251065
9	0.21	3.3996695
10	0.20947353	2.99716
11	1.2326e-05	0.53453923

Bond Coeffs

1 harmonic	582.698766451	1.225198386222
2 harmonic	492.76746816345	1.381897776683
3 harmonic	301.15400723785	1.345741232799
4 harmonic	352.0565580496	1.450098586273
5 harmonic	505.144496193	1.019481865027
6 harmonic	264.62148576755	1.52190126495
7 harmonic	370.04670688625	1.093899492634
8 harmonic	279.1350963404	1.454628925034
9 harmonic	366.7408841747	1.425895053732
10 harmonic	300.03137914615	1.451203938761
11 harmonic	366.34047229585	1.464762957261
12 harmonic	602.81384337	1.196112346392
13 harmonic	329.96998057905	1.427343958716
14 harmonic	543.5267831885	0.9716763312559


Angle Coeffs

1 harmonic	57.8982893754	126.8062420451
2 harmonic	201.41175231035	127.4691416191
3 harmonic	55.42182150775	117.3465570514
4 harmonic	63.44422595415	115.5071327674
5 harmonic	65.09061609600001	110.3538806181
6 harmonic	53.20531626545	116.5475862634
7 harmonic	48.776492647595	115.6030999533
8 harmonic	55.07882548015	112.8714009681
9 harmonic	33.56981613361	180


Dihedral Coeffs

1 fourier 1	1.809047390003	2	180
2 fourier 1	-0.04816277792592	1	0
3 fourier 1	0.4860993122944	2	180
4 fourier 1	0.8916986138746	1	0
5 fourier 1	1.163809172478	2	180
6 fourier 1	0.1679186987369	1	180
7 fourier 1	-0.1488678166443	4	180
8 fourier 1	-0.1230328948768	3	180
9 fourier 1	0.2939295466901	2	0
10 fourier 1	-0.3024127022865	1	0
11 fourier 1	0.182238503271	2	0
12 fourier 1	0.02972342374561	3	0
13 fourier 1	0.1918272375143	3	0
14 fourier 1	0.9202179876409	1	180
15 fourier 1	0.0473758381877	3	0
16 fourier 1	2.779853741805	2	180
17 fourier 1	0.1155372516788	3	0
18 fourier 1	0.09223874044423	3	0
19 fourier 1	0.3159935921949	2	180
20 fourier 1	0.3247796806857	1	180
21 fourier 1	0.1040663847541	3	0
22 fourier 1	3.101948770557	2	180
23 fourier 1	-0.4252153282372	1	0
24 fourier 1	0.9974165607242	2	180
25 fourier 1	2.348375642009	2	180
26 fourier 1	1.256156174911	1	0
27 fourier 1	0.1911926717192	3	0
28 fourier 1	0.1115525666802	3	0
29 fourier 1	0.3432490222662	1	0
30 fourier 1	0.457973137376	1	0
31 fourier 1	-1.382973039546	1	0
32 fourier 1	0	1	0
33 fourier 1	0.3445382149273	3	0
34 fourier 1	0.1364556373303	1	0
35 fourier 1	0.3026390167484	3	0


Improper Coeffs

1 3.5	-1	2
2 0.3333333333333333	-1	2
3 0.3666666666666667	-1	2


Atoms

1	1	1	-0.64043802	9.4709997	1.559	0.77100003
2	1	2	0.779715	9.8859997	0.377	0.634
3	1	3	-0.47353801	9.1289997	-0.73100001	1.136
4	1	4	0.021178	7.829	-0.57499999	1.7869999
5	1	4	-0.14763901	6.7340002	-0.219	0.773
6	1	4	-0.144152	6.46	-1.372	-0.205
7	1	4	-0.14374299	5.5180001	-0.97299999	-1.355
8	1	4	-0.142498	4.085	-0.62699997	-0.898
9	1	4	-0.142498	3.8529999	0.89200002	-0.80699998
10	1	4	-0.142498	2.408	1.25	-0.42899999
11	1	4	-0.142498	2.05	0.838	1.01
12	1	4	-0.142498	0.78299999	1.536	1.5369999
13	1	4	-0.142498	-0.48800001	1.296	0.69999999
14	1	4	-0.142498	-0.93900001	-0.17399999	0.704
15	1	4	-0.142498	-2.2290001	-0.39500001	-0.103
16	1	4	-0.142498	-3.4749999	0.176	0.60000002
17	1	4	-0.142498	-4.7859998	-0.23999999	-0.088
18	1	4	-0.14374299	-5.0139999	0.49900001	-1.416
19	1	4	-0.144152	-6.2849998	0.033	-2.1470001
20	1	4	-0.14891	-7.5939999	0.43000001	-1.431
21	1	4	0.02713	-8.2489996	-0.75800002	-0.71399999
22	1	3	-0.52886897	-9.4849997	-0.34599999	-0.048
23	1	2	0.53759199	-10.295	-1.277	0.67400002
24	1	1	-0.721264	-9.9560003	-2.4860001	0.773
25	1	5	0.31195	-9.8059998	0.648	-0.096000001
26	1	6	0.042252	-7.553	-1.181	0.039999999
27	1	6	0.042252	-8.4860001	-1.55	-1.4579999
28	1	7	0.080022998	-8.3129997	0.81199998	-2.1900001
29	1	7	0.080022998	-7.4159999	1.256	-0.70700002
30	1	7	0.079051003	-6.2820001	0.51300001	-3.151
31	1	7	0.079051003	-6.237	-1.064	-2.326
32	1	7	0.078317001	-4.1560001	0.31299999	-2.095
33	1	7	0.078317001	-5.0669999	1.595	-1.2359999
34	1	7	0.078317001	-5.6170001	0.0080000004	0.60500002
35	1	7	0.078317001	-4.796	-1.34	-0.25299999
36	1	7	0.078317001	-3.5009999	-0.20200001	1.646
37	1	7	0.078317001	-3.424	1.284	0.64200002
38	1	7	0.078317001	-2.3629999	-1.4910001	-0.23800001
39	1	7	0.078317001	-2.1099999	0.056000002	-1.1109999
40	1	7	0.078317001	-1.08	-0.52899998	1.748
41	1	7	0.078317001	-0.147	-0.79799998	0.23800001
42	1	7	0.078317001	-1.289	1.925	1.14
43	1	7	0.078317001	-0.33399999	1.645	-0.34299999
44	1	7	0.078317001	0.97299999	2.631	1.58
45	1	7	0.078317001	0.59799999	1.2	2.5799999
46	1	7	0.078317001	2.888	1.114	1.688
47	1	7	0.078317001	1.927	-0.26199999	1.075
48	1	7	0.078317001	2.2909999	2.3510001	-0.53299999
49	1	7	0.078317001	1.71	0.76499999	-1.147
50	1	7	0.078317001	4.5500002	1.355	-0.079000004
51	1	7	0.078317001	4.066	1.345	-1.801
52	1	7	0.078317001	3.3670001	-1.043	-1.6390001
53	1	7	0.078317001	3.868	-1.114	0.077
54	1	7	0.078317001	5.4590001	-1.8430001	-2.046
55	1	7	0.078317001	5.9679999	-0.14	-1.941
56	1	7	0.079051003	7.4190001	-1.706	-0.65700001
57	1	7	0.079051003	6.0300002	-2.237	0.347
58	1	7	0.080022998	5.8070002	0.0020000001	1.3430001
59	1	7	0.080022998	7.0229998	0.69599998	0.213
60	1	6	0.045704	7.8940001	0.219	2.5610001
61	1	6	0.045704	7.559	-1.521	2.3050001
62	1	5	0.31853801	9.5469999	-1.686	1.067
63	1	8	-0.50395298	16.73	-4.5050001	-7.632
64	1	4	0.11061	16.846001	-3.3759999	-6.8080001
65	1	4	-0.141727	15.599	-3.2060001	-5.9320002
66	1	4	-0.142671	14.346	-2.9230001	-6.777
67	1	4	-0.143829	13.065	-2.8570001	-5.9299998
68	1	4	-0.142498	12.994	-1.5930001	-5.0609999
69	1	4	-0.142498	11.645	-1.5	-4.3379998
70	1	4	-0.143829	11.574	-0.244	-3.461
71	1	4	-0.142671	10.227	-0.15899999	-2.7279999
72	1	4	-0.141727	10.056	1.1569999	-1.95
73	1	4	0.11061	10.982	1.276	-0.73199999
74	1	8	-0.50395298	10.79	0.207	0.155
75	1	6	0.076001003	10.786	2.2409999	-0.213
76	1	6	0.076001003	12.043	1.293	-1.0549999
77	1	7	0.083757997	10.233	2.0190001	-2.6300001
78	1	7	0.083757997	9.0019999	1.225	-1.601
79	1	7	0.080021001	9.4069996	-0.22	-3.4779999
80	1	7	0.080021001	10.114	-1.026	-2.0409999
81	1	7	0.078317001	12.401	-0.278	-2.7190001
82	1	7	0.078317001	11.706	0.65700001	-4.099
83	1	7	0.078317001	10.826	-1.47	-5.0900002
84	1	7	0.078317001	11.506	-2.401	-3.7
85	1	7	0.078317001	13.128	-0.69400001	-5.7020001
86	1	7	0.078317001	13.806	-1.614	-4.303
87	1	7	0.078317001	12.99	-3.763	-5.289
88	1	7	0.078317001	12.196	-2.8640001	-6.625
89	1	7	0.080021001	14.475	-1.973	-7.3400002
90	1	7	0.080021001	14.22	-3.74	-7.52
91	1	7	0.083757997	15.782	-2.3599999	-5.237
92	1	7	0.083757997	15.449	-4.1259999	-5.3260002
93	1	6	0.076001003	16.982	-2.477	-7.4450002
94	1	6	0.076001003	17.747	-3.467	-6.1599998
95	1	1	-0.64043802	30.093	-13.747	5.3559999
96	1	2	0.779715	29.330999	-14.196	6.2529998
97	1	3	-0.47353801	28.093	-13.546	6.5609999
98	1	4	0.021178	27.613001	-12.369	5.8379998
99	1	4	-0.14763901	27.132999	-12.735	4.427
100	1	4	-0.144152	25.875	-13.617	4.46
101	1	4	-0.14374299	25.490999	-14.168	3.075
102	1	4	-0.142498	25.061001	-13.08	2.0680001
103	1	4	-0.142498	26.191	-12.714	1.089
104	1	4	-0.142498	25.752001	-11.689	0.032000002
105	1	4	-0.142498	25.458	-10.303	0.63300002
106	1	4	-0.142498	25.419001	-9.1850004	-0.42500001
107	1	4	-0.142498	24.384001	-9.3870001	-1.5470001
108	1	4	-0.142498	22.933001	-9.3590002	-1.036
109	1	4	-0.142498	21.908001	-9.5229998	-2.1700001
110	1	4	-0.142498	21.806	-8.2749996	-3.066
111	1	4	-0.142498	20.629	-8.3479996	-4.053
112	1	4	-0.14374299	20.886999	-9.3339996	-5.204
113	1	4	-0.144152	19.684	-9.4700003	-6.1529999
114	1	4	-0.14763901	19.408001	-8.2019997	-6.9899998
115	1	4	0.021178	18.195	-7.4159999	-6.474
116	1	3	-0.47353801	17.962999	-6.224	-7.289
117	1	2	0.779715	16.875999	-5.3330002	-7.0240002
118	1	1	-0.64043802	16.089001	-5.5419998	-6.0630002
119	1	5	0.31853801	18.591	-6.0029998	-8.0950003
120	1	6	0.045704	18.358	-7.1100001	-5.4200001
121	1	6	0.045704	17.292999	-8.0640001	-6.5170002
122	1	7	0.080022998	19.198	-8.507	-8.04
123	1	7	0.080022998	20.302	-7.54	-7.0159998
124	1	7	0.079051003	19.910999	-10.303	-6.855
125	1	7	0.079051003	18.783001	-9.7810001	-5.579
126	1	7	0.078317001	21.094	-10.342	-4.7870002
127	1	7	0.078317001	21.784	-9.0190001	-5.7789998
128	1	7	0.078317001	20.490999	-7.3319998	-4.4790001
129	1	7	0.078317001	19.697001	-8.6219997	-3.513
130	1	7	0.078317001	21.657	-7.382	-2.4200001
131	1	7	0.078317001	22.747999	-8.1269999	-3.635
132	1	7	0.078317001	20.915001	-9.7139997	-1.706
133	1	7	0.078317001	22.174999	-10.415	-2.776
134	1	7	0.078317001	22.74	-8.4130001	-0.48500001
135	1	7	0.078317001	22.781	-10.201	-0.32800001
136	1	7	0.078317001	24.531	-8.5629997	-2.276
137	1	7	0.078317001	24.58	-10.338	-2.086
138	1	7	0.078317001	26.427	-9.1000004	-0.88800001
139	1	7	0.078317001	25.216999	-8.2180004	0.085000001
140	1	7	0.078317001	26.257999	-10.044	1.362
141	1	7	0.078317001	24.500999	-10.323	1.193
142	1	7	0.078317001	26.570999	-11.596	-0.71499997
143	1	7	0.078317001	24.851	-12.071	-0.49700001
144	1	7	0.078317001	27.075001	-12.324	1.635
145	1	7	0.078317001	26.513	-13.635	0.55500001
146	1	7	0.078317001	24.202	-13.466	1.475
147	1	7	0.078317001	24.705999	-12.178	2.6099999
148	1	7	0.078317001	24.631001	-14.858	3.224
149	1	7	0.078317001	26.322001	-14.788	2.671
150	1	7	0.079051003	26.054001	-14.487	5.1290002
151	1	7	0.079051003	25.023001	-13.04	4.882
152	1	7	0.080022998	26.898001	-11.788	3.8959999
153	1	7	0.080022998	27.945999	-13.251	3.8740001
154	1	6	0.045704	28.427999	-11.616	5.7709999
155	1	6	0.045704	26.777	-11.903	6.4029999
156	1	5	0.31853801	27.528999	-13.909	7.362
157	1	8	-0.50395298	27.726	-25.171	10.253
158	1	4	0.11061	28.851	-24.356001	10.056
159	1	4	-0.141727	28.450001	-23.002001	9.46
160	1	4	-0.142671	27.851	-23.156	8.0530005
161	1	4	-0.143829	27.341	-21.825001	7.4780002
162	1	4	-0.142498	28.481001	-20.870001	7.092
163	1	4	-0.142498	27.934999	-19.615	6.401
164	1	4	-0.143829	29.07	-18.655001	6.0240002
165	1	4	-0.142671	28.52	-17.393	5.3429999
166	1	4	-0.141727	29.632	-16.469	4.8179998
167	1	4	0.11061	30.441999	-15.789	5.9310002
168	1	8	-0.50395298	29.610001	-15.046	6.7800002
169	1	6	0.076001003	31.211	-15.125	5.473
170	1	6	0.076001003	30.986	-16.548	6.5289998
171	1	7	0.083757997	30.320999	-17.047001	4.165
172	1	7	0.083757997	29.166	-15.68	4.1880002
173	1	7	0.080021001	27.893999	-17.698	4.4749999
174	1	7	0.080021001	27.864	-16.837999	6.0479999
175	1	7	0.078317001	29.620001	-18.371	6.9460001
176	1	7	0.078317001	29.773001	-19.172001	5.3340001
177	1	7	0.078317001	27.382999	-19.910999	5.4819999
178	1	7	0.078317001	27.228001	-19.096001	7.086
179	1	7	0.078317001	29.183001	-21.391001	6.4039998
180	1	7	0.078317001	29.037001	-20.565001	8.0039997
181	1	7	0.078317001	26.665001	-21.332001	8.2119999
182	1	7	0.078317001	26.740999	-22.052	6.5689998
183	1	7	0.080021001	28.605	-23.599001	7.3660002
184	1	7	0.080021001	26.989	-23.857	8.1020002
185	1	7	0.083757997	29.358999	-22.365999	9.4119997
186	1	7	0.083757997	27.716	-22.507999	10.134
187	1	6	0.076001003	29.555	-24.872999	9.3699999
188	1	6	0.076001003	29.381001	-24.195999	11.022
189	1	1	-0.64043802	29.690001	-20.747999	30.483
190	1	2	0.779715	29.054001	-19.666	30.587
191	1	3	-0.47353801	28.955	-18.761	29.481001
192	1	4	0.021178	29.533001	-19.046	28.167999
193	1	4	-0.14763901	28.733999	-20.125	27.426001
194	1	4	-0.144152	27.325001	-19.639999	27.049999
195	1	4	-0.14374299	26.431999	-20.761	26.490999
196	1	4	-0.142498	26.917999	-21.330999	25.139999
197	1	4	-0.142498	27.676001	-22.66	25.308001
198	1	4	-0.142498	28.096001	-23.277	23.965
199	1	4	-0.142498	29.167999	-22.445999	23.238001
200	1	4	-0.142498	29.884001	-23.233	22.125
201	1	4	-0.142498	28.962	-23.788	21.024
202	1	4	-0.142498	28.271999	-22.683001	20.205999
203	1	4	-0.142498	27.382999	-23.249001	19.086
204	1	4	-0.142498	28.198999	-23.847	17.924999
205	1	4	-0.142498	27.327	-24.205	16.709999
206	1	4	-0.14374299	26.469999	-25.458	16.948999
207	1	4	-0.144152	25.538	-25.778	15.767
208	1	4	-0.14763901	26.284	-26.243999	14.498
209	1	4	0.021178	26.344999	-25.149	13.424
210	1	3	-0.47353801	27.056999	-25.625	12.237
211	1	2	0.779715	27.231001	-24.797001	11.084
212	1	1	-0.64043802	26.787001	-23.618	11.063
213	1	5	0.31853801	27.448999	-26.593	12.208
214	1	6	0.045704	26.861	-24.250999	13.822
215	1	6	0.045704	25.311001	-24.861	13.134
216	1	7	0.080022998	25.743999	-27.117001	14.068
217	1	7	0.080022998	27.313	-26.587	14.745
218	1	7	0.079051003	24.865	-26.601	16.093
219	1	7	0.079051003	24.884001	-24.903999	15.555
220	1	7	0.078317001	25.829	-25.302999	17.841999
221	1	7	0.078317001	27.125999	-26.332001	17.156
222	1	7	0.078317001	28.011	-24.398001	15.857
223	1	7	0.078317001	26.679001	-23.341999	16.440001
224	1	7	0.078317001	28.955999	-23.101	17.596001
225	1	7	0.078317001	28.743999	-24.754999	18.26
226	1	7	0.078317001	26.757999	-22.417	18.694
227	1	7	0.078317001	26.698999	-24.011999	19.514
228	1	7	0.078317001	29.031	-21.993999	19.775999
229	1	7	0.078317001	27.618	-22.087999	20.878
230	1	7	0.078317001	29.594999	-24.400999	20.349001
231	1	7	0.078317001	28.202	-24.466999	21.464001
232	1	7	0.078317001	30.431	-24.083	22.587
233	1	7	0.078317001	30.649	-22.573999	21.658001
234	1	7	0.078317001	29.941999	-22.127001	23.971001
235	1	7	0.078317001	28.718	-21.524	22.816
236	1	7	0.078317001	28.497999	-24.294001	24.167999
237	1	7	0.078317001	27.198999	-23.389	23.316999
238	1	7	0.078317001	28.572001	-22.525	25.948
239	1	7	0.078317001	27.01	-23.386999	25.822001
240	1	7	0.078317001	26.030001	-21.518	24.496
241	1	7	0.078317001	27.551001	-20.583	24.617001
242	1	7	0.078317001	25.419001	-20.327	26.337
243	1	7	0.078317001	26.315001	-21.566	27.25
244	1	7	0.079051003	26.823999	-19.231001	27.954
245	1	7	0.079051003	27.399	-18.815001	26.306999
246	1	7	0.080022998	29.290001	-20.377001	26.497999
247	1	7	0.080022998	28.667	-21.041	28.051001
248	1	6	0.045704	30.586	-19.379	28.290001
249	1	6	0.045704	29.548	-18.114	27.561001
250	1	5	0.31853801	28.481001	-17.841999	29.634001
251	1	8	-0.50395298	19.861	-16.722	37.356998
252	1	4	0.11061	21.113001	-17.302	37.605999
253	1	4	-0.141727	21.9	-17.488001	36.304001
254	1	4	-0.142671	21.209999	-18.485001	35.360001
255	1	4	-0.143829	21.922001	-18.606001	34.004002
256	1	4	-0.142498	23.266001	-19.344	34.104
257	1	4	-0.142498	23.877001	-19.561001	32.714001
258	1	4	-0.143829	25.224001	-20.288	32.812
259	1	4	-0.142671	25.84	-20.493999	31.42
260	1	4	-0.141727	27.120001	-21.344999	31.457001
261	1	4	0.11061	28.308001	-20.639999	32.125999
262	1	8	-0.50395298	28.6	-19.424999	31.489
263	1	6	0.076001003	29.198	-21.309	32.097
264	1	6	0.076001003	28.086	-20.444	33.195
265	1	7	0.083757997	26.917999	-22.302	31.985001
266	1	7	0.083757997	27.405001	-21.6	30.413
267	1	7	0.080021001	25.101	-21.018999	30.775
268	1	7	0.080021001	26.049999	-19.507999	30.948999
269	1	7	0.078317001	25.913	-19.681999	33.438999
270	1	7	0.078317001	25.073	-21.275999	33.299999
271	1	7	0.078317001	23.177	-20.165001	32.095001
272	1	7	0.078317001	24.025999	-18.575001	32.220001
273	1	7	0.078317001	23.112	-20.33	34.595001
274	1	7	0.078317001	23.974001	-18.747999	34.717999
275	1	7	0.078317001	22.076	-17.594999	33.567001
276	1	7	0.078317001	21.254	-19.171	33.317001
277	1	7	0.080021001	21.148001	-19.485001	35.845001
278	1	7	0.080021001	20.17	-18.141001	35.168999
279	1	7	0.083757997	22.913	-17.860001	36.567001
280	1	7	0.083757997	22.013	-16.503	35.799999
281	1	6	0.076001003	20.962999	-18.287001	38.097
282	1	6	0.076001003	21.697001	-16.663	38.306999
283	1	1	-0.64043802	27.936001	0.861	44.993999
284	1	2	0.779715	28.488001	1.368	43.980999
285	1	3	-0.47353801	28.989	0.54000002	42.924
286	1	4	0.021178	28.855	-0.91600001	42.924999
287	1	4	-0.14763901	27.409	-1.346	42.647999
288	1	4	-0.144152	26.966999	-0.991	41.219002
289	1	4	-0.14374299	25.465	-1.222	40.979
290	1	4	-0.142498	25.041	-2.704	41.058998
291	1	4	-0.142498	24.399	-3.0550001	42.412998
292	1	4	-0.142498	23.900999	-4.507	42.476002
293	1	4	-0.142498	25.049999	-5.5310001	42.451
294	1	4	-0.142498	24.615	-6.9320002	42.917
295	1	4	-0.142498	23.469	-7.5619998	42.103001
296	1	4	-0.142498	23.857	-7.8460002	40.641998
297	1	4	-0.142498	22.718	-8.5089998	39.849998
298	1	4	-0.142498	22.483999	-9.9750004	40.259998
299	1	4	-0.142498	21.507999	-10.705	39.321999
300	1	4	-0.14374299	20.051001	-10.26	39.526001
301	1	4	-0.144152	19.079	-10.929	38.539001
302	1	4	-0.14763901	18.896999	-12.444	38.778
303	1	4	0.021178	19.646999	-13.291	37.741001
304	1	3	-0.47353801	19.452	-14.718	37.997002
305	1	2	0.779715	20.032	-15.718	37.155998
306	1	1	-0.64043802	20.749001	-15.397	36.171001
307	1	5	0.31853801	18.870001	-15.036	38.806
308	1	6	0.045704	20.732	-13.061	37.771
309	1	6	0.045704	19.264999	-13.051	36.724998
310	1	7	0.080022998	17.813999	-12.688	38.702
311	1	7	0.080022998	19.224001	-12.726	39.803001
312	1	7	0.079051003	18.089001	-10.438	38.667999
313	1	7	0.079051003	19.399	-10.719	37.493999
314	1	7	0.078317001	19.974001	-9.1630001	39.373001
315	1	7	0.078317001	19.732	-10.475	40.569
316	1	7	0.078317001	21.584	-11.79	39.543999
317	1	7	0.078317001	21.813	-10.551	38.263
318	1	7	0.078317001	23.455999	-10.515	40.230999
319	1	7	0.078317001	22.097	-10.031	41.299999
320	1	7	0.078317001	22.989	-8.4770002	38.771999
321	1	7	0.078317001	21.789	-7.915	39.981998
322	1	7	0.078317001	24.766001	-8.4840002	40.604
323	1	7	0.078317001	24.094999	-6.8860002	40.137001
324	1	7	0.078317001	23.204	-8.5170002	42.603001
325	1	7	0.078317001	22.569	-6.914	42.139999
326	1	7	0.078317001	24.298	-6.8699999	43.980999
327	1	7	0.078317001	25.497	-7.6090002	42.883999
328	1	7	0.078317001	25.858999	-5.1890001	43.132999
329	1	7	0.078317001	25.487	-5.5929999	41.431999
330	1	7	0.078317001	23.325001	-4.6290002	43.418999
331	1	7	0.078317001	23.208	-4.6939998	41.626999
332	1	7	0.078317001	25.110001	-2.872	43.244999
333	1	7	0.078317001	23.523001	-2.3889999	42.576
334	1	7	0.078317001	24.292	-2.901	40.259998
335	1	7	0.078317001	25.913	-3.362	40.858002
336	1	7	0.078317001	25.236	-0.85299999	39.955002
337	1	7	0.078317001	24.868999	-0.59299999	41.678001
338	1	7	0.079051003	27.176001	0.083999999	41.027
339	1	7	0.079051003	27.559	-1.5829999	40.486
340	1	7	0.080022998	27.354	-2.447	42.780998
341	1	7	0.080022998	26.726999	-0.87300003	43.386002
342	1	6	0.045704	29.183001	-1.319	43.907001
343	1	6	0.045704	29.524	-1.349	42.148998
344	1	5	0.31853801	29.504999	0.99800003	42.139999
345	1	8	-0.50395298	26.965	11.833	38.769001
346	1	4	0.11061	27.222	11.424	40.085999
347	1	4	-0.141727	27.285999	9.8959999	40.182999
348	1	4	-0.142671	25.931999	9.2489996	39.849998
349	1	4	-0.143829	25.997999	7.7129998	39.834
350	1	4	-0.142498	26.152	7.112	41.238998
351	1	4	-0.142498	26.079	5.5809999	41.192001
352	1	4	-0.143829	26.242001	4.9780002	42.591999
353	1	4	-0.142671	26.18	3.444	42.541
354	1	4	-0.141727	26.195	2.8010001	43.938
355	1	4	0.11061	27.537001	2.948	44.667999
356	1	8	-0.50395298	28.584999	2.3989999	43.916
357	1	6	0.076001003	27.475	2.444	45.659
358	1	6	0.076001003	27.754	4.0190001	44.863998
359	1	7	0.083757997	25.389	3.2449999	44.562
360	1	7	0.083757997	25.969	1.7180001	43.831001
361	1	7	0.080021001	25.236	3.1400001	42.036999
362	1	7	0.080021001	27.024	3.0510001	41.931999
363	1	7	0.078317001	27.221001	5.2979999	43.007999
364	1	7	0.078317001	25.431999	5.3590002	43.252998
365	1	7	0.078317001	25.096001	5.2729998	40.771
366	1	7	0.078317001	26.884001	5.1950002	40.528999
367	1	7	0.078317001	25.341999	7.4970002	41.896999
368	1	7	0.078317001	27.132	7.4109998	41.668999
369	1	7	0.078317001	26.837999	7.3790002	39.185001
370	1	7	0.078317001	25.054001	7.335	39.383999
371	1	7	0.080021001	25.160999	9.585	40.577999
372	1	7	0.080021001	25.610001	9.585	38.84
373	1	7	0.083757997	27.582001	9.6309996	41.220001
374	1	7	0.083757997	28.069	9.5179996	39.491001
375	1	6	0.076001003	26.416	11.808	40.747002
376	1	6	0.076001003	28.183001	11.861	40.442001
377	1	1	-0.64043802	47.067001	17.103001	37.869999
378	1	2	0.779715	47.616001	16.018999	37.536999
379	1	3	-0.47353801	47.039001	14.76	37.898998
380	1	4	0.021178	45.775002	14.645	38.624001
381	1	4	-0.14763901	44.580002	14.995	37.727001
382	1	4	-0.144152	44.389	13.969	36.598
383	1	4	-0.14374299	43.333	14.401	35.566002
384	1	4	-0.142498	41.901001	14.482	36.134998
385	1	4	-0.142498	41.487	15.928	36.465
386	1	4	-0.142498	40.035	16.031	36.958
387	1	4	-0.142498	39.826	15.372	38.333
388	1	4	-0.142498	38.518002	15.811	39.015999
389	1	4	-0.142498	37.236	15.527	38.210999
390	1	4	-0.142498	36.973	14.024	38.012001
391	1	4	-0.142498	35.672001	13.752	37.241001
392	1	4	-0.142498	34.411999	14.044	38.077999
393	1	4	-0.142498	33.122002	13.561	37.395
394	1	4	-0.14374299	32.717999	14.447	36.206001
395	1	4	-0.144152	31.469999	13.926	35.471001
396	1	4	-0.14763901	30.171	14.038	36.298
397	1	4	0.021178	29.718	12.682	36.855
398	1	3	-0.47353801	28.486	12.825	37.631001
399	1	2	0.779715	27.847	11.699	38.238998
400	1	1	-0.64043802	28.34	10.545	38.138
401	1	5	0.31853801	28.040001	13.763	37.749001
402	1	6	0.045704	30.507999	12.251	37.504002
403	1	6	0.045704	29.534	11.981	36.011002
404	1	7	0.080022998	29.363001	14.426	35.639
405	1	7	0.080022998	30.291	14.766	37.130001
406	1	7	0.079051003	31.349001	14.543	34.551998
407	1	7	0.079051003	31.643999	12.883	35.125999
408	1	7	0.078317001	33.547001	14.478	35.469002
409	1	7	0.078317001	32.540001	15.489	36.553001
410	1	7	0.078317001	32.313	13.593	38.154999
411	1	7	0.078317001	33.238998	12.505	37.064999
412	1	7	0.078317001	34.500999	13.519	39.054001
413	1	7	0.078317001	34.327	15.132	38.285999
414	1	7	0.078317001	35.667	12.679	36.948002
415	1	7	0.078317001	35.667999	14.357	36.308998
416	1	7	0.078317001	36.945999	13.507	38.995998
417	1	7	0.078317001	37.806	13.585	37.422001
418	1	7	0.078317001	36.391998	15.973	38.777
419	1	7	0.078317001	37.277	16.041	37.228001
420	1	7	0.078317001	38.571999	16.903	39.216999
421	1	7	0.078317001	38.445	15.306	40.004002
422	1	7	0.078317001	40.665001	15.656	39.006001
423	1	7	0.078317001	39.846001	14.267	38.235001
424	1	7	0.078317001	39.775002	17.110001	37.028
425	1	7	0.078317001	39.359001	15.566	36.208
426	1	7	0.078317001	42.166	16.368999	37.223
427	1	7	0.078317001	41.577	16.542999	35.542999
428	1	7	0.078317001	41.194	14.086	35.372002
429	1	7	0.078317001	41.810001	13.835	37.033001
430	1	7	0.078317001	43.338001	13.639	34.755001
431	1	7	0.078317001	43.636002	15.362	35.094002
432	1	7	0.079051003	45.352001	13.834	36.057999
433	1	7	0.079051003	44.108002	12.984	37.032001
434	1	7	0.080022998	43.671001	15.005	38.365002
435	1	7	0.080022998	44.715	16.011	37.299
436	1	6	0.045704	45.789001	15.321	39.506001
437	1	6	0.045704	45.659	13.606	39.004002
438	1	5	0.31853801	47.567001	13.888	37.666
439	1	8	-0.50395298	54.469002	13.34	28.323999
440	1	4	0.11061	54.495998	14.343	29.304001
441	1	4	-0.141727	53.297001	14.217	30.250999
442	1	4	-0.142671	51.966999	14.449	29.517
443	1	4	-0.143829	50.744999	14.221	30.421
444	1	4	-0.142498	50.571999	15.325	31.474001
445	1	4	-0.142498	49.271999	15.132	32.263
446	1	4	-0.143829	49.101002	16.226999	33.323002
447	1	4	-0.142671	47.804001	16.025	34.119999
448	1	4	-0.141727	47.52	17.18	35.095001
449	1	4	0.11061	48.500999	17.243999	36.275002
450	1	8	-0.50395298	48.501999	16.042	36.997002
451	1	6	0.076001003	48.220001	18.09	36.942001
452	1	6	0.076001003	49.528	17.448999	35.91
453	1	7	0.083757997	47.543999	18.146999	34.547001
454	1	7	0.083757997	46.491001	17.056	35.499001
455	1	7	0.080021001	46.952	15.965	33.408001
456	1	7	0.080021001	47.845001	15.061	34.672001
457	1	7	0.078317001	49.972	16.197001	34.013
458	1	7	0.078317001	49.077999	17.221001	32.823002
459	1	7	0.078317001	48.408001	15.161	31.562
460	1	7	0.078317001	49.287998	14.138	32.762001
461	1	7	0.078317001	50.550999	16.316999	30.971001
462	1	7	0.078317001	51.426998	15.304	32.181999
463	1	7	0.078317001	50.825001	13.23	30.92
464	1	7	0.078317001	49.84	14.198	29.773001
465	1	7	0.080021001	51.938999	15.479	29.099001
466	1	7	0.080021001	51.896	13.739	28.664
467	1	7	0.083757997	53.417	14.971	31.056999
468	1	7	0.083757997	53.303001	13.207	30.716999
469	1	6	0.076001003	54.476002	15.335	28.805
470	1	6	0.076001003	55.441002	14.281	29.889
471	1	1	-0.64043802	69.695999	4.1849999	39.140999
472	1	2	0.779715	69.056	3.513	39.993999
473	1	3	-0.47353801	67.767998	3.941	40.452
474	1	4	0.021178	67.099998	5.1360002	39.938999
475	1	4	-0.14763901	66.578003	4.9169998	38.512001
476	1	4	-0.144152	65.445999	3.8789999	38.466999
477	1	4	-0.14374299	65.044998	3.4879999	37.034
478	1	4	-0.142498	64.417999	4.6430001	36.223999
479	1	4	-0.142498	65.428001	5.2940001	35.262001
480	1	4	-0.142498	64.795998	6.3930001	34.393002
481	1	4	-0.142498	64.371002	7.6259999	35.210999
482	1	4	-0.142498	64.124001	8.8690004	34.337002
483	1	4	-0.142498	63.051998	8.6949997	33.244999
484	1	4	-0.142498	61.645	8.4560003	33.82
485	1	4	-0.142498	60.577	8.3210001	32.722
486	1	4	-0.142498	60.262001	9.6610003	32.030998
487	1	4	-0.142498	59.042	9.5760002	31.098
488	1	4	-0.14374299	59.346001	8.809	29.801001
489	1	4	-0.144152	58.111	8.6529999	28.896999
490	1	4	-0.14763901	57.625	9.9799995	28.275999
491	1	4	0.021178	56.359001	10.514	28.959999
492	1	3	-0.47353801	55.926998	11.77	28.346001
493	1	2	0.779715	54.757	12.46	28.792
494	1	1	-0.64043802	54.067001	12.011	29.746
495	1	5	0.31853801	56.470001	12.187	27.556
496	1	6	0.045704	56.549999	10.683	30.040001
497	1	6	0.045704	55.543999	9.7639999	28.860001
498	1	7	0.080022998	57.388	9.8039999	27.202999
499	1	7	0.080022998	58.425999	10.752	28.311001
500	1	7	0.079051003	58.395	7.967	28.068001
501	1	7	0.079051003	57.294998	8.1450005	29.458
502	1	7	0.078317001	59.705002	7.7880001	30.049999
503	1	7	0.078317001	60.158001	9.3210001	29.24
504	1	7	0.078317001	58.75	10.615	30.837999
505	1	7	0.078317001	58.188	9.1040001	31.632
506	1	7	0.078317001	60.043999	10.424	32.811001
507	1	7	0.078317001	61.139	10.015	31.448999
508	1	7	0.078317001	59.647999	7.9349999	33.195999
509	1	7	0.078317001	60.914001	7.5700002	31.976
510	1	7	0.078317001	61.370998	9.2779999	34.515999
511	1	7	0.078317001	61.645	7.5079999	34.397999
512	1	7	0.078317001	63.047001	9.6280003	32.644001
513	1	7	0.078317001	63.330002	7.8670001	32.560001
514	1	7	0.078317001	65.081001	9.1540003	33.847
515	1	7	0.078317001	63.834999	9.717	34.995998
516	1	7	0.078317001	65.177002	7.881	35.932999
517	1	7	0.078317001	63.460999	7.3979998	35.804001
518	1	7	0.078317001	65.546997	6.7010002	33.632999
519	1	7	0.078317001	63.917999	5.9749999	33.854
520	1	7	0.078317001	66.289001	5.7150002	35.82
521	1	7	0.078317001	65.827003	4.5110002	34.581001
522	1	7	0.078317001	63.577999	4.2350001	35.619999
523	1	7	0.078317001	63.988998	5.402	36.911999
524	1	7	0.078317001	64.290001	2.675	37.115002
525	1	7	0.078317001	65.918999	3.049	36.502998
526	1	7	0.079051003	65.775002	2.9530001	38.987999
527	1	7	0.079051003	64.556999	4.27	39.011002
528	1	7	0.080022998	66.193001	5.8899999	38.141998
529	1	7	0.080022998	67.413002	4.599	37.851002
530	1	6	0.045704	67.807999	5.9920001	39.950001
531	1	6	0.045704	66.25	5.3990002	40.605
532	1	5	0.31853801	67.307999	3.3940001	41.214001
533	1	8	-0.50395298	69.098999	-8.0389996	42.351002
534	1	4	0.11061	70.098	-7.0619998	42.23
535	1	4	-0.141727	69.492996	-5.7010002	41.865002
536	1	4	-0.142671	68.828003	-5.7290001	40.479
537	1	4	-0.143829	68.119003	-4.4089999	40.137001
538	1	4	-0.142498	69.103996	-3.2650001	39.848999
539	1	4	-0.142498	68.361	-2.007	39.382
540	1	4	-0.143829	69.341003	-0.86000001	39.103001
541	1	4	-0.142671	68.594002	0.40200001	38.646999
542	1	4	-0.141727	69.544998	1.5319999	38.219002
543	1	4	0.11061	70.334	2.1459999	39.382999
544	1	8	-0.50395298	69.473	2.641	40.373001
545	1	6	0.076001003	70.982002	2.9660001	38.998001
546	1	6	0.076001003	71.007004	1.388	39.834999
547	1	7	0.083757997	70.257004	1.152	37.453999
548	1	7	0.083757997	68.945	2.335	37.737999
549	1	7	0.080021001	67.956001	0.145	37.772999
550	1	7	0.080021001	67.919998	0.75700003	39.457001
551	1	7	0.078317001	69.910004	-0.64200002	40.032001
552	1	7	0.078317001	70.056999	-1.174	38.312
553	1	7	0.078317001	67.792999	-2.2390001	38.453999
554	1	7	0.078317001	67.639999	-1.692	40.167999
555	1	7	0.078317001	69.819	-3.5829999	39.058998
556	1	7	0.078317001	69.675003	-3.023	40.77
557	1	7	0.078317001	67.435997	-4.1220002	40.966
558	1	7	0.078317001	67.495003	-4.5809999	39.231998
559	1	7	0.080021001	69.585999	-5.9629998	39.699001
560	1	7	0.080021001	68.066002	-6.5380001	40.459999
561	1	7	0.083757997	70.309998	-4.9499998	41.873001
562	1	7	0.083757997	68.748001	-5.4130001	42.638
563	1	6	0.076001003	70.816002	-7.3759999	41.442001
564	1	6	0.076001003	70.665001	-6.973	43.183998
565	1	1	-0.64043802	71.797997	-6.3629999	62.909
566	1	2	0.779715	71.039001	-5.402	63.203999
567	1	3	-0.47353801	70.755997	-4.368	62.252998
568	1	4	0.021178	71.279999	-4.381	60.888
569	1	4	-0.14763901	70.575996	-5.4380002	60.027
570	1	4	-0.144152	69.096001	-5.0960002	59.793999
571	1	4	-0.14374299	68.316002	-6.2340002	59.112
572	1	4	-0.142498	68.780998	-6.533	57.669998
573	1	4	-0.142498	69.709	-7.7589998	57.599998
574	1	4	-0.142498	70.114998	-8.1140003	56.160999
575	1	4	-0.142498	71.026001	-7.0510001	55.521
576	1	4	-0.142498	71.761002	-7.566	54.27
577	1	4	-0.142498	70.846001	-8.0740004	53.139999
578	1	4	-0.142498	69.971001	-6.9650002	52.532001
579	1	4	-0.142498	69.089996	-7.4759998	51.380001
580	1	4	-0.142498	69.898003	-7.7870002	50.105999
581	1	4	-0.142498	69.000999	-8.0780001	48.890999
582	1	4	-0.14374299	68.323997	-9.4560003	48.977001
583	1	4	-0.144152	67.365997	-9.7229996	47.803001
584	1	4	-0.14763901	68.080002	-9.8970003	46.445999
585	1	4	0.021178	67.933998	-8.6599998	45.548
586	1	3	-0.47353801	68.622002	-8.8599997	44.271999
587	1	2	0.779715	68.615997	-7.8579998	43.251999
588	1	1	-0.64043802	68.028	-6.7589998	43.43
589	1	5	0.31853801	69.128998	-9.7530003	44.078999
590	1	6	0.045704	68.358002	-7.7680001	46.054001
591	1	6	0.045704	66.856003	-8.474	45.353001
592	1	7	0.080022998	67.626999	-10.763	45.912998