Title

333 atoms
341 bonds
590 angles
1031 dihedrals
237 impropers

12 atom types
18 bond types
10 angle types
33 dihedral types
3 improper types
-25.41399956 74.58600044 xlo xhi
-26.50699997 73.49300003 ylo yhi
-1.641000032 98.35899997 zlo zhi
0.0 0.0 0.0 xy xz yz

Masses

1	15.99943
2	12.01078
3	14.00672
4	12.01078
5	1.007947
6	1.007947
7	1.007947
8	15.99943
9	1.007947
10	12.01078
11	15.99943
12	1.007947


Pair Coeffs

1	0.2102061	3.0398122
2	0.086879315	3.4806469
3	0.16769152	3.206876
4	0.10884061	3.3795318
5	0.014090815	1.1034277
6	0.016409246	2.5832257
7	0.015779483	2.6445434
8	0.16846514	3.0251065
9	0.015611343	2.5725815
10	0.21	3.3996695
11	0.20947353	2.99716
12	1.2326e-05	0.53453923

Bond Coeffs

1 harmonic	582.698766451	1.225198386222
2 harmonic	492.76746816345	1.381897776683
3 harmonic	301.15400723785	1.345741232799
4 harmonic	352.0565580496	1.450098586273
5 harmonic	505.144496193	1.019481865027
6 harmonic	264.62148576755	1.52190126495
7 harmonic	370.04670688625	1.093899492634
8 harmonic	279.1350963404	1.454628925034
9 harmonic	366.7408841747	1.425895053732
10 harmonic	289.73813263395	1.498646816465
11 harmonic	445.3060766333	1.328776712165
12 harmonic	360.7852444772	1.387193227181
13 harmonic	397.2545789619	1.085358495916
14 harmonic	300.03137914615	1.451203938761
15 harmonic	366.34047229585	1.464762957261
16 harmonic	602.81384337	1.196112346392
17 harmonic	329.96998057905	1.427343958716
18 harmonic	543.5267831885	0.9716763312559


Angle Coeffs

1 harmonic	57.8982893754	126.8062420451
2 harmonic	201.41175231035	127.4691416191
3 harmonic	55.42182150775	117.3465570514
4 harmonic	63.44422595415	115.5071327674
5 harmonic	65.09061609600001	110.3538806181
6 harmonic	53.20531626545	116.5475862634
7 harmonic	48.776492647595	115.6030999533
8 harmonic	55.07882548015	112.8714009681
9 harmonic	34.066775159195	129.1835929926
10 harmonic	33.56981613361	180


Dihedral Coeffs

1 fourier 1	1.809047390003	2	180
2 fourier 1	-0.04816277792592	1	0
3 fourier 1	0.4860993122944	2	180
4 fourier 1	0.8916986138746	1	0
5 fourier 1	1.163809172478	2	180
6 fourier 1	0.1679186987369	1	180
7 fourier 1	-0.1488678166443	4	180
8 fourier 1	-0.1230328948768	3	180
9 fourier 1	0.2939295466901	2	0
10 fourier 1	-0.3024127022865	1	0
11 fourier 1	0.182238503271	2	0
12 fourier 1	0.02972342374561	3	0
13 fourier 1	0.0473758381877	3	0
14 fourier 1	2.779853741805	2	180
15 fourier 1	0.1155372516788	3	0
16 fourier 1	0.09223874044423	3	0
17 fourier 1	0.3159935921949	2	180
18 fourier 1	0.3247796806857	1	180
19 fourier 1	0.1040663847541	3	0
20 fourier 1	3.101948770557	2	180
21 fourier 1	-0.4252153282372	1	0
22 fourier 1	0.9974165607242	2	180
23 fourier 1	2.348375642009	2	180
24 fourier 1	1.256156174911	1	0
25 fourier 1	0.1911926717192	3	0
26 fourier 1	0.02664938770063	3	0
27 fourier 1	3.731869940596	2	180
28 fourier 1	3.661930099076	2	180
29 fourier 1	5.913282223828	2	180
30 fourier 1	0.457973137376	1	0
31 fourier 1	-1.382973039546	1	0
32 fourier 1	0	1	0
33 fourier 1	0.3026390167484	3	0


Improper Coeffs

1 3.5	-1	2
2 0.3333333333333333	-1	2
3 0.3666666666666667	-1	2


Atoms

1	1	1	-0.56680602	-3.5880001	1.278	1.614
2	1	2	0.78981799	-3.471	1.151	0.366
3	1	3	-0.45195401	-2.415	0.368	-0.19499999
4	1	4	0.030851001	-1.444	-0.32800001	0.64999998
5	1	4	-0.13942	-0.366	-1.0369999	-0.184
6	1	4	-0.140745	0.54799998	-0.079000004	-0.97399998
7	1	4	0.036481999	1.441	0.80599999	-0.090000004
8	1	3	-0.51029903	2.2550001	0.0060000001	0.824
9	1	2	0.55272299	3.3870001	-0.755	0.391
10	1	1	-0.62338001	3.7420001	-0.75599998	-0.81800002
11	1	5	0.332131	2.036	0.030999999	1.845
12	1	6	0.073293	2.1029999	1.423	-0.73400003
13	1	6	0.073293	0.81400001	1.513	0.493
14	1	7	0.103473	1.1950001	-0.68800002	-1.641
15	1	7	0.103473	-0.063000001	0.57300001	-1.633
16	1	7	0.103473	-0.866	-1.724	-0.90200001
17	1	7	0.103473	0.25099999	-1.6720001	0.48699999
18	1	6	0.077069998	-0.977	0.38800001	1.358
19	1	6	0.077069998	-1.98	-1.091	1.255
20	1	5	0.33870399	-2.3729999	0.28200001	-1.2359999
21	1	8	-0.48989999	-10.385	1.561	1.1849999
22	1	4	0.16977701	-9.5179996	0.60399997	0.64600003
23	1	2	0.20682301	-8.1709995	0.74400002	1.281
24	1	3	-0.65491802	-7.2540002	1.469	0.70300001
25	1	2	0.20682301	-5.954	1.666	1.291
26	1	4	0.16977701	-4.9239998	2.4660001	0.54900002
27	1	8	-0.48989999	-4.151	1.623	-0.25999999
28	1	6	0.092267998	-4.277	3.0350001	1.256
29	1	6	0.092267998	-5.4359999	3.2079999	-0.097999997
30	1	2	-0.35129201	-5.6620002	1.087	2.467
31	1	2	-0.147659	-6.6900001	0.28099999	3.154
32	1	2	-0.35129201	-7.8920002	0.118	2.592
33	1	9	0.21388	-8.651	-0.47	3.0940001
34	1	9	0.224728	-6.4689999	-0.175	4.1100001
35	1	9	0.21388	-4.6849999	1.2029999	2.9189999
36	1	6	0.092267998	-9.915	-0.41800001	0.83700001
37	1	6	0.092267998	-9.434	0.74699998	-0.454
38	1	1	-0.56680602	-17.076	-1.49	4.2509999
39	1	2	0.78981799	-17.202	-1.816	3.04
40	1	3	-0.45195401	-16.077	-1.806	2.1570001
41	1	4	0.030851001	-14.741	-1.4349999	2.6229999
42	1	4	-0.13942	-13.718	-1.426	1.476
43	1	4	-0.13942	-13.981	-0.34400001	0.40900001
44	1	4	0.030851001	-13.812	1.095	0.92199999
45	1	3	-0.45195401	-12.489	1.306	1.507
46	1	2	0.78981698	-11.3	1.416	0.71799999
47	1	1	-0.56680602	-11.348	1.346	-0.53899997
48	1	5	0.33870399	-12.411	1.4349999	2.5409999
49	1	6	0.077069998	-13.964	1.807	0.082000002
50	1	6	0.077069998	-14.593	1.321	1.677
51	1	7	0.103473	-13.276	-0.509	-0.43399999
52	1	7	0.103473	-15.004	-0.45899999	-0.0049999999
53	1	7	0.103473	-13.73	-2.4219999	0.98199999
54	1	7	0.103473	-12.7	-1.2920001	1.9
55	1	6	0.077069998	-14.774	-0.442	3.119
56	1	6	0.077069998	-14.41	-2.175	3.3829999
57	1	5	0.33870399	-16.233	-2.1010001	1.1670001
58	1	8	-0.48989999	-21.877001	-5.9239998	6.1890001
59	1	4	0.16977701	-20.749001	-6.1550002	5.3940001
60	1	2	0.20682301	-19.808001	-4.9990001	5.5229998
61	1	3	-0.65491802	-19.853001	-4.026	4.6570001
62	1	2	0.20682301	-18.993999	-2.8740001	4.7589998
63	1	4	0.16977701	-19.056	-1.814	3.6989999
64	1	8	-0.48989999	-18.135	-2.096	2.6819999
65	1	6	0.092267998	-18.865999	-0.80500001	4.1329999
66	1	6	0.092267998	-20.076	-1.7970001	3.26
67	1	2	-0.35129201	-18.112	-2.789	5.7680001
68	1	2	-0.147659	-18.058001	-3.8659999	6.7750001
69	1	2	-0.35129201	-18.868999	-4.9229999	6.665
70	1	9	0.21388	-18.834999	-5.7140002	7.4029999
71	1	9	0.224728	-17.362	-3.7980001	7.6009998
72	1	9	0.21388	-17.441	-1.943	5.8540001
73	1	6	0.092267998	-20.24	-7.0890002	5.7210002
74	1	6	0.092267998	-21.054001	-6.276	4.3299999
75	1	1	-0.56680602	-23.413	-11.746	11.405
76	1	2	0.78981799	-23.549999	-12.365	10.316
77	1	3	-0.45195401	-23.021	-11.832	9.099
78	1	4	0.030851001	-22.290001	-10.564	9.0710001
79	1	4	-0.13942	-21.889	-10.167	7.6420002
80	1	4	-0.13942	-23.084	-9.8509998	6.7199998
81	1	4	0.030851001	-23.875999	-8.5979996	7.1279998
82	1	3	-0.45195401	-23.013	-7.421	7.2189999
83	1	2	0.78981698	-22.489	-6.7519999	6.0669999
84	1	1	-0.56680602	-22.767	-7.151	4.9050002
85	1	5	0.33870399	-22.809999	-7.0180001	8.1610003
86	1	6	0.077069998	-24.681	-8.4110003	6.3850002
87	1	6	0.077069998	-24.375999	-8.7679996	8.1040001
88	1	7	0.103473	-22.698999	-9.71	5.6869998
89	1	7	0.103473	-23.778	-10.717	6.6849999
90	1	7	0.103473	-21.304001	-10.999	7.1929998
91	1	7	0.103473	-21.211	-9.2880001	7.6880002
92	1	6	0.077069998	-22.902	-9.7639999	9.5380001
93	1	6	0.077069998	-21.365999	-10.672	9.6789999
94	1	5	0.33870399	-23.146	-12.392	8.2259998
95	1	8	-0.48989999	-22.981001	-17.566999	14.926
96	1	4	0.16977701	-22.256001	-17.179001	13.793
97	1	2	0.20682301	-22.424999	-15.708	13.578
98	1	3	-0.65491802	-23.351999	-15.272	12.771
99	1	2	0.20682301	-23.579	-13.866	12.558
100	1	4	0.16977701	-24.624001	-13.43	11.573
101	1	8	-0.48989999	-24.052	-13.272	10.304
102	1	6	0.092267998	-25.114	-12.486	11.905
103	1	6	0.092267998	-25.414	-14.208	11.513
104	1	2	-0.35129201	-22.818001	-12.965	13.2
105	1	2	-0.147659	-21.778999	-13.432	14.138
106	1	2	-0.35129201	-21.59	-14.742	14.325
107	1	9	0.21388	-20.83	-15.088	15.015
108	1	9	0.224728	-21.172001	-12.712	14.673
109	1	9	0.21388	-22.955999	-11.903	13.041
110	1	6	0.092267998	-21.177999	-17.413	13.934
111	1	6	0.092267998	-22.622	-17.735001	12.901
112	1	1	-0.56680602	-18.627001	-21.363001	20.412001
113	1	2	0.78981799	-18.533001	-22.163	19.444
114	1	3	-0.45195401	-18.848	-21.743	18.114
115	1	4	0.030851001	-19.274	-20.372999	17.823
116	1	4	-0.13942	-19.627001	-20.188999	16.339001
117	1	4	-0.13942	-20.860001	-20.993999	15.882
118	1	4	0.030851001	-22.18	-20.539	16.525
119	1	3	-0.45195401	-22.424	-19.114	16.299999
120	1	2	0.78981698	-22.825001	-18.587	15.031
121	1	1	-0.56680602	-22.999001	-19.344999	14.041
122	1	5	0.33870399	-22.356001	-18.459	17.110001
123	1	6	0.077069998	-23.02	-21.131001	16.103001
124	1	6	0.077069998	-22.16	-20.745001	17.615
125	1	7	0.103473	-20.948	-20.9	14.779
126	1	7	0.103473	-20.711	-22.073	16.098
127	1	7	0.103473	-18.754	-20.497	15.724
128	1	7	0.103473	-19.792999	-19.108	16.138
129	1	6	0.077069998	-20.138	-20.101	18.462999
130	1	6	0.077069998	-18.441999	-19.681	18.075001
131	1	5	0.33870399	-18.738001	-22.441	17.344
132	1	8	-0.48989999	-13.37	-24.275	23.629
133	1	4	0.16977701	-13.433	-23.806	22.312
134	1	2	0.20682301	-14.642	-22.940001	22.153
135	1	3	-0.65491802	-15.755	-23.454	21.709999
136	1	2	0.20682301	-16.955999	-22.671	21.573999
137	1	4	0.16977701	-18.190001	-23.309	21.006001
138	1	8	-0.48989999	-18.223	-23.136999	19.615999
139	1	6	0.092267998	-19.108	-22.888	21.476
140	1	6	0.092267998	-18.174	-24.396	21.23
141	1	2	-0.35129201	-16.943001	-21.368999	21.905001
142	1	2	-0.147659	-15.702	-20.768999	22.431999
143	1	2	-0.35129201	-14.601	-21.516001	22.556
144	1	9	0.21388	-13.689	-21.08	22.945
145	1	9	0.224728	-15.687	-19.725	22.716999
146	1	9	0.21388	-17.827	-20.754999	21.792
147	1	6	0.092267998	-12.519	-23.216999	22.075001
148	1	6	0.092267998	-13.489	-24.666	21.607
149	1	1	-0.56680602	-6.4959998	-22.659	27.316999
150	1	2	0.78981799	-6.092	-23.403	26.384001
151	1	3	-0.45195401	-6.9120002	-23.653999	25.24
152	1	4	0.030851001	-8.2370005	-23.048	25.099001
153	1	4	-0.13942	-8.9519997	-23.528	23.826
154	1	4	-0.13942	-9.302	-25.028999	23.830999
155	1	4	0.030851001	-10.348	-25.426001	24.885
156	1	3	-0.45195401	-11.577	-24.645	24.743
157	1	2	0.78981698	-12.516	-24.861	23.684999
158	1	1	-0.56680602	-12.325	-25.759001	22.823
159	1	5	0.33870399	-11.807	-23.934	25.473
160	1	6	0.077069998	-10.583	-26.507	24.785
161	1	6	0.077069998	-9.9320002	-25.282	25.903999
162	1	7	0.103473	-9.6870003	-25.299999	22.825001
163	1	7	0.103473	-8.3839998	-25.634001	23.993
164	1	7	0.103473	-8.2980003	-23.318001	22.951
165	1	7	0.103473	-9.8769999	-22.93	23.684
166	1	6	0.077069998	-8.8520002	-23.271	25.995001
167	1	6	0.077069998	-8.1199999	-21.944	25.042
168	1	5	0.33870399	-6.5229998	-24.264999	24.487
169	1	8	-0.48989999	-0.186	-20.393999	28.555
170	1	4	0.16977701	-0.87099999	-20.438999	27.334999
171	1	2	0.20682301	-2.325	-20.674999	27.594
172	1	3	-0.65491802	-2.8010001	-21.889	27.566999
173	1	2	0.20682301	-4.1849999	-22.173	27.844999
174	1	4	0.16977701	-4.6820002	-23.584999	27.743999
175	1	8	-0.48989999	-5.152	-23.837999	26.448999
176	1	6	0.092267998	-5.4790001	-23.782	28.497999
177	1	6	0.092267998	-3.845	-24.282	27.959999
178	1	2	-0.35129201	-5.0250001	-21.166	28.138
179	1	2	-0.147659	-4.507	-19.785999	28.198
180	1	2	-0.35129201	-3.217	-19.546	27.943001
181	1	9	0.21388	-2.832	-18.535	27.989
182	1	9	0.224728	-5.1729999	-18.969999	28.448999
183	1	9	0.21388	-6.0739999	-21.351999	28.33
184	1	6	0.092267998	-0.741	-19.476999	26.791
185	1	6	0.092267998	-0.463	-21.257999	26.702
186	1	1	-0.56680602	4.0819998	-13.754	29.629
187	1	2	0.78981799	4.6589999	-14.243	28.622
188	1	3	-0.45195401	4.0250001	-15.254	27.833
189	1	4	0.030851001	2.684	-15.745	28.150999
190	1	4	-0.13942	2.253	-16.879	27.208
191	1	4	-0.13942	3.0910001	-18.166	27.349001
192	1	4	0.030851001	2.928	-18.875	28.702999
193	1	3	-0.45195401	1.526	-19.179001	28.986
194	1	2	0.78981698	0.80900002	-20.223	28.319
195	1	1	-0.56680602	1.372	-20.944	27.452999
196	1	5	0.33870399	1.039	-18.649	29.743
197	1	6	0.077069998	3.5190001	-19.816	28.701
198	1	6	0.077069998	3.3410001	-18.24	29.514
199	1	7	0.103473	2.7920001	-18.865999	26.540001
200	1	7	0.103473	4.1669998	-17.938999	27.191
201	1	7	0.103473	2.3299999	-16.518	26.159
202	1	7	0.103473	1.181	-17.111	27.388
203	1	6	0.077069998	2.6459999	-16.084999	29.207001
204	1	6	0.077069998	1.9630001	-14.907	28.046
205	1	5	0.33870399	4.54	-15.614	26.997999
206	1	8	-0.48989999	6.9369998	-7.651	28.591
207	1	4	0.16977701	6.2290001	-8.4460001	27.683001
208	1	2	0.20682301	5.4949999	-9.5150003	28.429001
209	1	3	-0.65491802	6.0380001	-10.691	28.580999
210	1	2	0.20682301	5.3899999	-11.741	29.323
211	1	4	0.16977701	6.0419998	-13.089	29.413
212	1	8	-0.48989999	5.605	-13.907	28.363001
213	1	6	0.092267998	5.8319998	-13.568	30.398001
214	1	6	0.092267998	7.1430001	-12.967	29.334999
215	1	2	-0.35129201	4.1859999	-11.519	29.875999
216	1	2	-0.147659	3.5599999	-10.19	29.74
217	1	2	-0.35129201	4.184	-9.2270002	29.052999
218	1	9	0.21388	3.73	-8.2489996	28.952999
219	1	9	0.224728	2.598	-9.9969997	30.197001
220	1	9	0.21388	3.6689999	-12.299	30.421
221	1	6	0.092267998	5.5019999	-7.8210001	27.117001
222	1	6	0.092267998	6.9330001	-8.9099998	26.955999
223	1	1	-0.56680602	5.289	0.125	28.058001
224	1	2	0.78981799	5.7820001	-0.089000002	26.919001
225	1	3	-0.45195401	5.8969998	-1.42	26.407
226	1	4	0.030851001	5.434	-2.5769999	27.174
227	1	4	-0.13942	5.7340002	-3.8989999	26.448999
228	1	4	-0.13942	7.237	-4.2090001	26.306
229	1	4	0.030851001	7.9520001	-4.474	27.639999
230	1	3	-0.45195401	7.3070002	-5.5500002	28.392
231	1	2	0.78981698	7.4190001	-6.928	28.024
232	1	1	-0.56680602	8.1009998	-7.2789998	27.025
233	1	5	0.33870399	6.7859998	-5.3099999	29.264999
234	1	6	0.077069998	9.0129995	-4.7420001	27.445
235	1	6	0.077069998	7.9650002	-3.5480001	28.253
236	1	7	0.103473	7.3470001	-5.1040001	25.657
237	1	7	0.103473	7.75	-3.3740001	25.785
238	1	7	0.103473	5.2810001	-3.858	25.434
239	1	7	0.103473	5.2319999	-4.73	26.989
240	1	6	0.077069998	5.8990002	-2.575	28.181
241	1	6	0.077069998	4.335	-2.4949999	27.315001
242	1	5	0.33870399	6.2979999	-1.541	25.450001
243	1	8	-0.48989999	2.592	6.0500002	26.035
244	1	4	0.16977701	2.4760001	4.79	25.436001
245	1	2	0.20682301	2.9260001	3.74	26.4
246	1	3	-0.65491802	4.158	3.3139999	26.368
247	1	2	0.20682301	4.651	2.3310001	27.298
248	1	4	0.16977701	6.0630002	1.842	27.173
249	1	8	-0.48989999	6.1090002	0.71200001	26.346001
250	1	6	0.092267998	6.4970002	1.614	28.174
251	1	6	0.092267998	6.6859999	2.6400001	26.718
252	1	2	-0.35129201	3.826	1.826	28.23
253	1	2	-0.147659	2.434	2.309	28.304001
254	1	2	-0.35129201	2	3.227	27.434
255	1	9	0.21388	0.98000002	3.586	27.487
256	1	9	0.224728	1.767	1.92	29.063
257	1	9	0.21388	4.1669998	1.071	28.927999
258	1	6	0.092267998	1.4170001	4.6030002	25.149
259	1	6	0.092267998	3.0999999	4.75	24.514999
260	1	1	-0.56680602	-4.158	10.28	26.021999
261	1	2	0.78981799	-3.947	10.171	24.785
262	1	3	-0.45195401	-3.0450001	9.1829996	24.278999
263	1	4	0.030851001	-2.3469999	8.2559996	25.17
264	1	4	-0.13942	-1.3789999	7.3439999	24.4
265	1	4	-0.13942	-0.19599999	8.0900002	23.750999
266	1	4	0.030851001	0.77899998	8.717	24.76
267	1	3	-0.45195401	1.295	7.7220001	25.698999
268	1	2	0.78981698	2.263	6.7350001	25.329
269	1	1	-0.56680602	2.7290001	6.691	24.16
270	1	5	0.33870399	0.98500001	7.7639999	26.695999
271	1	6	0.077069998	1.626	9.1859999	24.212999
272	1	6	0.077069998	0.273	9.5299997	25.32
273	1	7	0.103473	0.361	7.3709998	23.113001
274	1	7	0.103473	-0.574	8.8870001	23.076
275	1	7	0.103473	-1.946	6.8150001	23.603001
276	1	7	0.103473	-0.99299997	6.5630002	25.089001
277	1	6	0.077069998	-1.804	8.8210001	25.955999
278	1	6	0.077069998	-3.0999999	7.6170001	25.681
279	1	5	0.33870399	-2.918	9.1239996	23.243999
280	1	8	-0.11587	-10.636	12.137	24.990999
281	1	4	0.076444	-9.9580002	11.023	24.482
282	1	2	0.250236	-8.6850004	10.829	25.243
283	1	3	-0.65015697	-7.5739999	11.341	24.792
284	1	2	0.20976999	-6.3299999	11.214	25.506001
285	1	4	0.16977701	-5.0760002	11.778	24.906
286	1	8	-0.48989999	-4.4359999	10.806	24.125999
287	1	6	0.092267998	-4.3920002	12.159	25.698999
288	1	6	0.092267998	-5.3379998	12.639	24.256001
289	1	2	-0.35129201	-6.2969999	10.545	26.67
290	1	2	-0.14615101	-7.5450001	9.9770002	27.215
291	1	2	-0.344475	-8.6899996	10.113	26.538
292	1	9	0.214054	-9.6079998	9.6999998	26.936001
293	1	9	0.224728	-7.5310001	9.4510002	28.160999
294	1	9	0.21388	-5.3699999	10.418	27.215
295	1	6	0.108403	-10.593	10.115	24.579
296	1	6	0.108403	-9.7320004	11.179	23.403
297	1	1	-0.62338001	3.786	-1.118	2.3410001
298	1	2	0.55272299	3.9519999	-1.332	1.1109999
299	1	3	-0.51029903	4.868	-2.3329999	0.65499997
300	1	4	0.036768999	5.6630001	-3.152	1.567
301	1	4	-0.135647	6.8249998	-2.339	2.145
302	1	4	-0.117756	7.6869998	-3.198	3.0799999
303	1	4	0.190633	8.8769999	-2.414	3.6400001
304	1	3	-0.564224	8.415	-1.368	4.5489998
305	1	10	0.59802598	8.6829996	-0.14	4.3520002
306	1	1	-0.375379	8.9440002	1.054	4.1589999
307	1	6	0.048466001	9.4799995	-1.99	2.8039999
308	1	6	0.048466001	9.5290003	-3.1099999	4.2080002
309	1	7	0.097277999	8.0780001	-4.073	2.516
310	1	7	0.097277999	7.0679998	-3.579	3.9219999
311	1	7	0.102501	7.4510002	-1.957	1.309
312	1	7	0.102501	6.4219999	-1.469	2.7079999
313	1	6	0.073293	5.0149999	-3.5409999	2.3829999
314	1	6	0.073293	6.0689998	-4.0229998	1.008
315	1	5	0.332131	4.9239998	-2.5220001	-0.37099999
316	1	8	-0.11587	-11.47	12.218	24.459
317	1	4	0.076444	-11.159	13.007	23.343
318	1	2	0.252812	-11.037	14.447	23.747
319	1	2	-0.344475	-12.131	15.196	23.966
320	1	2	-0.14426599	-11.974	16.601	24.388
321	1	2	-0.34490001	-10.751	17.110001	24.566999
322	1	2	0.199726	-9.5679998	16.249001	24.344
323	1	3	-0.646065	-9.7309999	15.017	23.952
324	1	4	0.14645	-8.1859999	16.805	24.506001
325	1	11	-0.66921699	-7.823	17.534	23.365999
326	1	12	0.393933	-7.6040001	16.868999	22.662001
327	1	6	0.086759999	-8.1599998	17.48	25.386999
328	1	6	0.086759999	-7.454	15.985	24.694
329	1	9	0.214054	-10.631	18.141001	24.874001
330	1	9	0.224728	-12.849	17.216	24.552
331	1	9	0.214054	-13.124	14.784	23.836
332	1	6	0.108403	-10.21	12.659	22.875
333	1	6	0.108403	-11.963	12.894	22.584999

Bonds

1	1	1	2
2	2	2	3
3	3	2	27
4	4	3	4
5	5	3	20
6	6	4	5
7	7	4	18
8	7	4	19
9	6	5	6
10	7	5	16
11	7	5	17
12	6	6	7
13	7	6	14
14	7	6	15
15	4	7	8
16	7	7	12
17	7	7	13
18	2	8	9
19	5	8	11
20	1	9	10
21	8	9	298
22	9	21	22
23	3	21	46
24	10	22	23
25	7	22	36
26	7	22	37
27	11	23	24
28	12	23	32
29	11	24	25
30	10	25	26
31	12	25	30
32	9	26	27
33	7	26	28
34	7	26	29
35	12	30	31
36	13	30	35
37	12	31	32
38	13	31	34
39	13	32	33
40	1	38	39
41	2	39	40
42	3	39	64
43	4	40	41
44	5	40	57
45	6	41	42
46	7	41	55
47	7	41	56
48	6	42	43
49	7	42	53
50	7	42	54
51	6	43	44
52	7	43	51
53	7	43	52
54	4	44	45
55	7	44	49
56	7	44	50
57	2	45	46
58	5	45	48
59	1	46	47
60	9	58	59
61	3	58	83
62	10	59	60
63	7	59	73
64	7	59	74
65	11	60	61
66	12	60	69
67	11	61	62
68	10	62	63
69	12	62	67
70	9	63	64
71	7	63	65
72	7	63	66
73	12	67	68
74	13	67	72
75	12	68	69
76	13	68	71
77	13	69	70
78	1	75	76
79	2	76	77
80	3	76	101
81	4	77	78
82	5	77	94
83	6	78	79
84	7	78	92
85	7	78	93
86	6	79	80
87	7	79	90
88	7	79	91
89	6	80	81
90	7	80	88
91	7	80	89
92	4	81	82
93	7	81	86
94	7	81	87
95	2	82	83
96	5	82	85
97	1	83	84
98	9	95	96
99	3	95	120
100	10	96	97
101	7	96	110
102	7	96	111
103	11	97	98
104	12	97	106
105	11	98	99
106	10	99	100
107	12	99	104
108	9	100	101
109	7	100	102
110	7	100	103
111	12	104	105
112	13	104	109
113	12	105	106
114	13	105	108
115	13	106	107
116	1	112	113
117	2	113	114
118	3	113	138
119	4	114	115
120	5	114	131
121	6	115	116
122	7	115	129
123	7	115	130
124	6	116	117
125	7	116	127
126	7	116	128
127	6	117	118
128	7	117	125
129	7	117	126
130	4	118	119
131	7	118	123
132	7	118	124
133	2	119	120
134	5	119	122
135	1	120	121
136	9	132	133
137	3	132	157
138	10	133	134
139	7	133	147
140	7	133	148
141	11	134	135
142	12	134	143
143	11	135	136
144	10	136	137
145	12	136	141
146	9	137	138
147	7	137	139
148	7	137	140
149	12	141	142
150	13	141	146
151	12	142	143
152	13	142	145
153	13	143	144
154	1	149	150
155	2	150	151
156	3	150	175
157	4	151	152
158	5	151	168
159	6	152	153
160	7	152	166
161	7	152	167
162	6	153	154
163	7	153	164
164	7	153	165
165	6	154	155
166	7	154	162
167	7	154	163
168	4	155	156
169	7	155	160
170	7	155	161
171	2	156	157
172	5	156	159
173	1	157	158
174	9	169	170
175	3	169	194
176	10	170	171
177	7	170	184
178	7	170	185
179	11	171	172
180	12	171	180
181	11	172	173
182	10	173	174
183	12	173	178
184	9	174	175
185	7	174	176
186	7	174	177
187	12	178	179
188	13	178	183
189	12	179	180
190	13	179	182
191	13	180	181
192	1	186	187
193	2	187	188
194	3	187	212
195	4	188	189
196	5	188	205
197	6	189	190
198	7	189	203
199	7	189	204
200	6	190	191
201	7	190	201
202	7	190	202
203	6	191	192
204	7	191	199
205	7	191	200
206	4	192	193
207	7	192	197
208	7	192	198
209	2	193	194
210	5	193	196
211	1	194	195
212	9	206	207
213	3	206	231
214	10	207	208
215	7	207	221
216	7	207	222
217	11	208	209
218	12	208	217
219	11	209	210
220	10	210	211
221	12	210	215
222	9	211	212
223	7	211	213
224	7	211	214
225	12	215	216
226	13	215	220
227	12	216	217
228	13	216	219
229	13	217	218
230	1	223	224
231	2	224	225
232	3	224	249
233	4	225	226
234	5	225	242
235	6	226	227
236	7	226	240
237	7	226	241
238	6	227	228
239	7	227	238
240	7	227	239
241	6	228	229
242	7	228	236
243	7	228	237
244	4	229	230
245	7	229	234
246	7	229	235
247	2	230	231
248	5	230	233
249	1	231	232
250	9	243	244
251	3	243	268
252	10	244	245
253	7	244	258
254	7	244	259
255	11	245	246
256	12	245	254
257	11	246	247
258	10	247	248
259	12	247	252
260	9	248	249
261	7	248	250
262	7	248	251
263	12	252	253
264	13	252	257
265	12	253	254
266	13	253	256
267	13	254	255
268	1	260	261
269	2	261	262
270	3	261	286
271	4	262	263
272	5	262	279
273	6	263	264
274	7	263	277
275	7	263	278
276	6	264	265
277	7	264	275
278	7	264	276
279	6	265	266
280	7	265	273
281	7	265	274
282	4	266	267
283	7	266	271
284	7	266	272
285	2	267	268
286	5	267	270
287	1	268	269
288	9	280	281
289	14	280	316
290	10	281	282
291	7	281	295
292	7	281	296
293	11	282	283
294	12	282	291
295	11	283	284
296	10	284	285
297	12	284	289
298	9	285	286
299	7	285	287
300	7	285	288
301	12	289	290
302	13	289	294
303	12	290	291
304	13	290	293
305	13	291	292
306	1	297	298
307	2	298	299
308	4	299	300
309	5	299	315
310	6	300	301
311	7	300	313
312	7	300	314
313	6	301	302
314	7	301	311
315	7	301	312
316	6	302	303
317	7	302	309
318	7	302	310
319	15	303	304
320	7	303	307
321	7	303	308
322	16	304	305
323	1	305	306
324	9	316	317
325	10	317	318
326	7	317	332
327	7	317	333
328	12	318	319
329	11	318	323
330	12	319	320
331	13	319	331
332	12	320	321
333	13	320	330
334	12	321	322
335	13	321	329
336	11	322	323
337	10	322	324
338	17	324	325
339	7	324	327
340	7	324	328
341	18	325	326

Angles

1	1	96	97	106
2	6	42	41	56
3	3	192	193	194
4	1	262	261	286
5	9	254	253	256
6	6	300	301	311
7	7	90	79	91
8	6	316	317	332
9	6	136	137	138
10	6	117	116	128
11	4	7	8	11
12	9	142	141	146
13	6	80	79	91
14	1	112	113	114
15	6	115	116	117
16	1	289	290	291
17	9	179	180	181
18	3	261	262	263
19	6	64	63	66
20	1	75	76	77
21	6	78	79	80
22	1	156	157	158
23	1	215	216	217
24	6	301	302	309
25	6	27	26	29
26	7	287	285	288
27	6	5	6	7
28	9	320	319	331
29	9	291	290	293
30	5	170	169	194
31	6	58	59	74
32	6	23	22	37
33	1	24	25	26
34	6	156	155	161
35	5	187	212	211
36	6	302	303	304
37	2	112	113	138
38	6	43	44	50
39	9	105	104	109
40	1	209	208	217
41	1	38	39	40
42	6	206	207	208
43	6	228	229	230
44	9	30	31	34
45	7	51	43	52
46	6	116	117	125
47	1	323	322	324
48	4	194	193	196
49	6	152	153	165
50	1	63	62	67
51	4	44	45	48
52	6	79	80	88
53	1	3	2	27
54	6	79	78	92
55	9	208	217	218
56	9	178	179	182
57	9	216	215	220
58	6	6	7	13
59	6	190	189	204
60	6	117	118	123
61	9	141	142	145
62	6	286	285	287
63	1	170	171	172
64	6	190	191	200
65	7	28	26	29
66	6	80	81	86
67	3	155	156	157
68	1	99	104	105
69	5	224	249	248
70	6	42	43	51
71	1	207	208	217
72	6	228	227	238
73	6	316	317	318
74	6	62	63	65
75	7	147	133	148
76	1	282	291	290
77	9	67	68	71
78	6	95	96	111
79	6	206	207	221
80	6	228	229	234
81	1	172	173	174
82	1	25	30	31
83	4	231	230	233
84	6	282	281	295
85	6	193	192	197
86	6	116	117	118
87	5	207	206	231
88	6	245	244	258
89	1	317	318	323
90	7	166	152	167
91	1	8	9	10
92	4	224	225	242
93	7	160	155	161
94	1	9	298	299
95	7	12	7	13
96	1	23	32	31
97	6	79	80	81
98	1	82	83	84
99	6	119	118	123
100	1	149	150	151
101	6	42	41	55
102	6	302	301	312
103	2	186	187	212
104	6	114	115	129
105	6	101	100	103
106	2	38	39	64
107	4	189	188	205
108	6	173	174	176
109	6	227	228	237
110	7	307	303	308
111	6	58	59	60
112	1	136	141	142
113	9	104	105	108
114	4	115	114	131
115	6	153	154	163
116	1	319	320	321
117	6	303	302	310
118	6	42	43	44
119	6	169	170	184
120	4	268	267	270
121	7	309	302	310
122	6	115	116	127
123	1	246	247	248
124	6	80	79	90
125	9	25	30	35
126	9	245	254	255
127	1	193	194	195
128	6	95	96	97
129	6	27	26	28
130	1	60	69	68
131	6	299	300	301
132	8	282	283	284
133	1	318	319	320
134	7	221	207	222
135	6	264	265	274
136	9	171	180	181
137	9	68	69	70
138	9	173	178	183
139	5	96	95	120
140	8	245	246	247
141	6	58	59	73
142	6	23	22	36
143	9	99	104	109
144	1	26	25	30
145	9	136	141	146
146	6	227	226	241
147	1	283	284	289
148	6	156	155	160
149	9	62	67	72
150	1	244	245	254
151	6	265	266	272
152	6	153	152	167
153	1	45	46	47
154	7	271	266	272
155	9	106	105	108
156	6	118	117	126
157	1	174	173	178
158	6	266	265	274
159	4	118	119	122
160	6	152	153	164
161	1	137	136	141
162	1	223	224	225
163	3	113	114	115
164	1	133	134	143
165	6	6	7	12
166	7	125	117	126
167	4	9	8	11
168	6	267	266	272
169	6	262	263	278
170	6	190	191	199
171	6	302	303	307
172	8	23	24	25
173	1	59	60	61
174	6	62	63	64
175	4	261	262	279
176	4	81	82	85
177	3	150	151	152
178	1	95	120	119
179	6	303	302	309
180	1	100	99	104
181	7	18	4	19
182	9	253	254	255
183	9	290	289	294
184	6	263	264	276
185	4	41	40	57
186	2	223	224	249
187	8	303	304	305
188	2	132	157	158
189	1	98	97	106
190	3	39	40	41
191	9	253	252	257
192	6	302	301	311
193	6	226	227	228
194	5	261	286	285
195	7	234	229	235
196	6	101	100	102
197	6	173	174	175
198	6	227	228	236
199	9	142	143	144
200	6	153	154	162
201	6	99	100	103
202	1	207	208	209
203	4	298	299	315
204	6	175	174	177
205	6	225	226	227
206	6	153	154	155
207	5	2	27	26
208	6	191	192	198
209	6	247	248	251
210	7	332	317	333
211	2	260	261	286
212	7	88	80	89
213	9	320	321	329
214	6	325	324	327
215	6	229	228	236
216	1	186	187	188
217	1	22	23	24
218	6	25	26	27
219	6	60	59	74
220	4	192	193	196
221	6	152	153	154
222	6	227	228	229
223	6	117	118	119
224	1	209	210	215
225	6	45	44	50
226	9	69	68	71
227	1	252	253	254
228	5	150	175	174
229	6	80	81	82
230	6	262	263	264
231	6	225	226	240
232	9	32	31	34
233	6	284	285	287
234	9	289	290	293
235	6	7	6	15
236	6	118	117	125
237	7	258	244	259
238	6	154	153	165
239	6	210	211	213
240	7	295	281	296
241	9	97	106	107
242	4	46	45	48
243	9	215	216	219
244	6	191	190	202
245	6	243	244	259
246	6	301	300	313
247	1	21	46	45
248	6	266	265	273
249	6	280	281	296
250	1	317	318	319
251	6	41	42	54
252	1	320	321	322
253	6	154	155	161
254	1	40	39	64
255	1	77	76	101
256	6	8	7	13
257	5	39	64	63
258	6	138	137	140
259	7	176	174	177
260	7	65	63	66
261	6	192	191	200
262	1	230	231	232
263	6	5	4	18
264	6	267	266	271
265	1	8	9	298
266	1	169	194	193
267	1	206	231	230
268	6	262	263	277
269	6	97	96	111
270	7	164	153	165
271	1	321	322	324
272	6	134	133	148
273	6	230	229	234
274	1	61	62	67
275	4	157	156	159
276	4	263	262	279
277	7	139	137	140
278	6	43	42	54
279	1	61	60	69
280	7	203	189	204
281	1	58	83	82
282	6	188	189	204
283	7	102	100	103
284	4	226	225	242
285	6	263	264	275
286	7	199	191	200
287	6	304	303	308
288	1	119	120	121
289	7	14	6	15
290	6	3	4	19
291	6	116	115	129
292	6	226	227	238
293	6	5	6	15
294	6	243	244	245
295	6	44	43	52
296	1	133	134	135
297	1	173	178	179
298	5	281	280	316
299	6	155	154	163
300	1	96	97	98
301	5	280	316	317
302	1	104	105	106
303	9	216	217	218
304	7	92	78	93
305	9	319	320	330
306	1	283	284	285
307	1	24	23	32
308	6	117	116	127
309	4	155	156	159
310	1	62	67	68
311	9	282	291	292
312	9	284	289	294
313	6	191	192	197
314	6	247	248	250
315	3	266	267	268
316	6	64	63	65
317	6	151	152	167
318	3	229	230	231
319	4	113	114	131
320	5	133	132	157
321	6	208	207	222
322	9	23	32	33
323	6	60	59	73
324	9	31	30	35
325	6	4	5	17
326	1	134	143	142
327	1	281	282	291
328	7	273	265	274
329	6	43	44	49
330	6	284	285	286
331	6	7	6	14
332	4	76	77	94
333	4	152	151	168
334	6	154	153	164
335	1	172	171	180
336	6	210	211	212
337	6	191	190	201
338	6	188	189	190
339	1	243	268	267
340	9	105	106	107
341	1	135	134	143
342	6	154	155	160
343	1	248	247	252
344	6	6	7	8
345	6	151	152	153
346	6	3	4	5
347	6	8	7	12
348	6	318	317	333
349	6	138	137	139
350	7	127	116	128
351	4	4	3	20
352	6	190	189	203
353	6	264	263	278
354	4	150	151	168
355	8	60	61	62
356	4	187	188	205
357	7	110	96	111
358	9	179	178	183
359	1	321	322	323
360	5	324	325	326
361	7	238	227	239
362	6	95	96	110
363	6	299	300	314
364	9	290	291	292
365	4	39	40	57
366	6	43	42	53
367	6	265	264	276
368	3	76	77	78
369	8	97	98	99
370	1	151	150	175
371	1	260	261	262
372	6	263	264	265
373	6	301	302	303
374	6	79	80	89
375	6	3	4	18
376	6	212	211	214
377	7	236	228	237
378	6	189	190	202
379	6	5	6	14
380	1	135	136	141
381	6	44	43	51
382	3	2	3	4
383	1	188	187	212
384	6	155	154	162
385	1	98	99	104
386	4	300	299	315
387	1	209	210	211
388	7	275	264	276
389	6	228	227	239
390	6	80	81	87
391	1	297	298	299
392	6	6	5	17
393	6	42	43	52
394	3	187	188	189
395	6	190	191	192
396	6	300	301	302
397	6	62	63	66
398	6	249	248	251
399	6	228	229	235
400	2	95	120	121
401	8	134	135	136
402	6	81	80	89
403	6	151	152	166
404	6	193	192	198
405	7	16	5	17
406	7	313	300	314
407	7	49	44	50
408	7	129	115	130
409	6	119	118	124
410	6	264	265	273
411	6	114	115	130
412	6	4	5	16
413	6	173	174	177
414	6	82	81	87
415	1	211	210	215
416	6	40	41	56
417	3	7	8	9
418	6	77	78	93
419	6	136	137	140
420	6	227	226	240
421	6	169	170	185
422	1	61	62	63
423	6	265	266	271
424	6	153	152	166
425	6	115	116	128
426	4	83	82	85
427	6	245	244	259
428	1	30	31	32
429	6	78	79	91
430	1	210	215	216
431	6	322	324	325
432	7	86	81	87
433	1	114	113	138
434	1	10	9	298
435	6	41	42	43
436	3	44	45	46
437	8	318	323	322
438	6	25	26	29
439	9	322	321	329
440	7	250	248	251
441	7	73	59	74
442	6	318	317	332
443	1	208	217	216
444	6	264	265	266
445	1	267	268	269
446	1	178	179	180
447	6	264	263	277