Title

78 atoms
81 bonds
132 angles
209 dihedrals
90 impropers

12 atom types
17 bond types
10 angle types
29 dihedral types
3 improper types
-7.769000053 92.23099995 xlo xhi
-7.385000229 92.61499977 ylo yhi
-4.034999847 95.96500015 zlo zhi
0.0 0.0 0.0 xy xz yz

Masses

1	12.01078
2	15.99943
3	14.00672
4	1.007947
5	12.01078
6	1.007947
7	1.007947
8	15.99943
9	1.007947
10	12.01078
11	15.99943
12	1.007947


Pair Coeffs

1	0.086879315	3.4806469
2	0.2102061	3.0398122
3	0.16769152	3.206876
4	0.015611343	2.5725815
5	0.10884061	3.3795318
6	0.014090815	1.1034277
7	0.015779483	2.6445434
8	0.16846514	3.0251065
9	0.016409246	2.5832257
10	0.21	3.3996695
11	0.20947353	2.99716
12	1.2326e-05	0.53453923

Bond Coeffs

1 harmonic	582.698766451	1.225198386222
2 harmonic	492.76746816345	1.381897776683
3 harmonic	279.1350963404	1.454628925034
4 harmonic	390.03554688505	1.390160554689
5 harmonic	505.144496193	1.019481865027
6 harmonic	360.7852444772	1.387193227181
7 harmonic	397.2545789619	1.085358495916
8 harmonic	289.73813263395	1.498646816465
9 harmonic	370.04670688625	1.093899492634
10 harmonic	301.15400723785	1.345741232799
11 harmonic	366.7408841747	1.425895053732
12 harmonic	264.62148576755	1.52190126495
13 harmonic	300.03137914615	1.451203938761
14 harmonic	382.5450169811	1.379244394267
15 harmonic	602.81384337	1.196112346392
16 harmonic	329.96998057905	1.427343958716
17 harmonic	543.5267831885	0.9716763312559


Angle Coeffs

1 harmonic	55.42182150775	117.3465570514
2 harmonic	63.44422595415	115.5071327674
3 harmonic	57.8982893754	126.8062420451
4 harmonic	34.066775159195	129.1835929926
5 harmonic	53.20531626545	116.5475862634
6 harmonic	65.09061609600001	110.3538806181
7 harmonic	201.41175231035	127.4691416191
8 harmonic	48.776492647595	115.6030999533
9 harmonic	55.07882548015	112.8714009681
10 harmonic	33.56981613361	180


Dihedral Coeffs

1 fourier 1	1.193093382682	2	180
2 fourier 1	1.809047390003	2	180
3 fourier 1	-0.04816277792592	1	0
4 fourier 1	3.101948770557	2	180
5 fourier 1	-0.4252153282372	1	0
6 fourier 1	2.348375642009	2	180
7 fourier 1	1.256156174911	1	0
8 fourier 1	0.9974165607242	2	180
9 fourier 1	3.661930099076	2	180
10 fourier 1	0.02664938770063	3	0
11 fourier 1	2.779853741805	2	180
12 fourier 1	0.1918272375143	3	0
13 fourier 1	0.9202179876409	1	180
14 fourier 1	0.0473758381877	3	0
15 fourier 1	0.4860993122944	2	180
16 fourier 1	0.8916986138746	1	0
17 fourier 1	1.163809172478	2	180
18 fourier 1	0.1679186987369	1	180
19 fourier 1	-0.0309670556842	3	0
20 fourier 1	0.4598191477945	2	0
21 fourier 1	0.1115525666802	3	0
22 fourier 1	0.3432490222662	1	0
23 fourier 1	0.457973137376	1	0
24 fourier 1	0.1911926717192	3	0
25 fourier 1	1.550515418264	2	180
26 fourier 1	0	1	0
27 fourier 1	0.3445382149273	3	0
28 fourier 1	0.1364556373303	1	0
29 fourier 1	0.3026390167484	3	0


Improper Coeffs

1 0.3333333333333333	-1	2
2 0.3666666666666667	-1	2
3 3.5	-1	2


Atoms

1	1	1	0.57258803	5.5349998	-0.74699998	1.5319999
2	1	2	-0.60239202	5.362	0.024	2.513
3	1	3	-0.50622499	4.6830001	-0.69	0.382
4	1	1	0.208874	3.4579999	0.059999999	0.31900001
5	1	1	-0.37590599	3.0510001	0.56800002	-0.85600001
6	1	4	0.219823	3.651	0.43599999	-1.748
7	1	1	-0.13857201	1.788	1.33	-0.949
8	1	4	0.217949	1.4859999	1.73	-1.909
9	1	1	-0.242448	1.028	1.518	0.14300001
10	1	5	-0.049743999	-0.28	2.257	0.052000001
11	1	1	-0.242448	-1.397	1.299	-0.25999999
12	1	1	-0.13857201	-1.729	1.021	-1.5319999
13	1	4	0.217949	-1.214	1.502	-2.355
14	1	1	-0.36381701	-2.799	0.046	-1.8279999
15	1	4	0.219823	-3.056	-0.154	-2.8610001
16	1	1	0.23266099	-3.4289999	-0.60000002	-0.833
17	1	3	-0.46864399	-4.474	-1.538	-1.145
18	1	1	0.82209003	-4.776	-2.697	-0.359
19	1	2	-0.54513502	-4.0100002	-3.0810001	0.56300002
20	1	6	0.327003	-5.0029998	-1.419	-2.0380001
21	1	1	-0.36381701	-3.0680001	-0.28400001	0.574
22	1	4	0.219823	-3.598	-0.74699998	1.396
23	1	1	-0.13857201	-2.105	0.60600001	0.84200001
24	1	4	0.217949	-1.855	0.829	1.872
25	1	7	0.127617	-0.486	2.7709999	1.015
26	1	7	0.127617	-0.223	3.0550001	-0.722
27	1	1	-0.13857201	1.45	0.921	1.433
28	1	4	0.217949	0.824	1.028	2.3099999
29	1	1	-0.37590599	2.5940001	0.23100001	1.517
30	1	4	0.219823	2.862	-0.227	2.4590001
31	1	6	0.32308501	5.0229998	-1.169	-0.48300001
32	1	8	-0.48644301	-5.6240001	-3.2539999	-0.57800001
33	1	5	0.140071	-6.3010001	-2.5710001	-1.597
34	1	5	0.05934	-7.0359998	-1.359	-1.025
35	1	8	-0.11393	-7.7690001	-0.71499997	-2.0309999
36	1	9	0.111508	-7.7399998	-1.697	-0.235
37	1	9	0.111508	-6.3099999	-0.653	-0.56099999
38	1	9	0.112295	-7.039	-3.2620001	-2.0580001
39	1	9	0.112295	-5.5869999	-2.2490001	-2.3889999
40	1	1	0.57258803	6.368	-1.437	1.544
41	1	2	-0.60239202	6.388	-2.3900001	0.722
42	1	3	-0.50622398	7.4499998	-1.219	2.46
43	1	1	0.208874	8.54	-2.135	2.668
44	1	1	-0.37590599	8.3599997	-3.4690001	2.635
45	1	4	0.219823	7.3829999	-3.8970001	2.4590001
46	1	1	-0.13857201	9.4940004	-4.382	2.888
47	1	4	0.217949	9.323	-5.4510002	2.859
48	1	1	-0.242448	10.715	-3.8900001	3.1589999
49	1	5	-0.049743999	11.866	-4.8099999	3.46
50	1	1	-0.25669199	11.912	-5.1230001	4.9310002
51	1	1	-0.183799	12.587	-4.3309999	5.7820001
52	1	4	0.204217	13.132	-3.4679999	5.4190001
53	1	1	-0.25477299	12.591	-4.6220002	7.23
54	1	4	0.21167099	13.153	-3.9690001	7.8860002
55	1	1	0.44295001	11.905	-5.6789999	7.7150002
56	1	3	-0.333929	11.875	-6.0050001	9.1140003
57	1	10	0.61570603	12.482	-5.3439999	10.018
58	1	2	-0.28609499	13.072	-4.7020001	10.897
59	1	1	-0.25477299	11.15	-6.539	6.777
60	1	4	0.21167099	10.59	-7.3850002	7.1550002
61	1	1	-0.183799	11.15	-6.277	5.4640002
62	1	4	0.204217	10.588	-6.9130001	4.7919998
63	1	7	0.127617	11.77	-5.7529998	2.8770001
64	1	7	0.127617	12.821	-4.3400002	3.1359999
65	1	1	-0.13857201	10.906	-2.4219999	3.233
66	1	4	0.217949	11.878	-2.0120001	3.4760001
67	1	1	-0.37590599	9.8789997	-1.595	3.0039999
68	1	4	0.219823	10.03	-0.52499998	3.0610001
69	1	6	0.32308501	7.4949999	-0.287	2.9289999
70	1	8	-0.108411	-7.1139998	-0.20200001	-2.5739999
71	1	5	0.029693	-6.2919998	-1.145	-3.2060001
72	1	5	0.101742	-5.2800002	-1.716	-2.214
73	1	11	-0.66909301	-4.415	-2.608	-2.8610001
74	1	12	0.409098	-4.9239998	-3.45	-2.9979999
75	1	9	0.110938	-4.6789999	-0.88599998	-1.785
76	1	9	0.110938	-5.809	-2.227	-1.377
77	1	9	0.112232	-5.7490001	-0.64300001	-4.0349998
78	1	9	0.112232	-6.9070001	-1.964	-3.6440001

Bonds

1	1	1	2
2	2	1	3
3	3	1	40
4	4	3	4
5	5	3	31
6	6	4	5
7	6	4	29
8	7	5	6
9	6	5	7
10	7	7	8
11	6	7	9
12	8	9	10
13	6	9	27
14	8	10	11
15	9	10	25
16	9	10	26
17	6	11	12
18	6	11	23
19	7	12	13
20	6	12	14
21	7	14	15
22	6	14	16
23	4	16	17
24	6	16	21
25	2	17	18
26	5	17	20
27	1	18	19
28	10	18	32
29	7	21	22
30	6	21	23
31	7	23	24
32	7	27	28
33	6	27	29
34	7	29	30
35	11	32	33
36	12	33	34
37	9	33	38
38	9	33	39
39	11	34	35
40	9	34	36
41	9	34	37
42	13	35	70
43	1	40	41
44	2	40	42
45	4	42	43
46	5	42	69
47	6	43	44
48	6	43	67
49	7	44	45
50	6	44	46
51	7	46	47
52	6	46	48
53	8	48	49
54	6	48	65
55	8	49	50
56	9	49	63
57	9	49	64
58	6	50	51
59	6	50	61
60	7	51	52
61	6	51	53
62	7	53	54
63	6	53	55
64	14	55	56
65	6	55	59
66	15	56	57
67	1	57	58
68	7	59	60
69	6	59	61
70	7	61	62
71	7	65	66
72	6	65	67
73	7	67	68
74	11	70	71
75	12	71	72
76	9	71	77
77	9	71	78
78	16	72	73
79	9	72	75
80	9	72	76
81	17	73	74

Angles

1	5	9	10	11
2	3	49	50	51
3	4	13	12	14
4	6	35	70	71
5	3	51	50	61
6	3	17	18	32
7	4	27	29	30
8	5	34	33	39
9	8	36	34	37
10	5	11	10	26
11	3	53	55	56
12	3	51	53	55
13	3	3	4	5
14	4	15	14	16
15	3	43	67	65
16	3	16	21	23
17	4	48	65	66
18	3	11	23	21
19	3	56	55	59
20	8	75	72	76
21	3	5	7	9
22	5	32	33	39
23	5	71	72	75
24	9	55	56	57
25	4	60	59	61
26	3	41	40	42
27	6	34	35	70
28	3	14	16	21
29	3	3	4	29
30	3	1	40	41
31	4	4	29	30
32	4	45	44	46
33	5	48	49	64
34	1	40	42	43
35	5	48	49	50
36	3	10	11	12
37	5	33	34	35
38	3	7	9	10
39	4	9	27	28
40	3	14	16	17
41	5	73	72	75
42	4	28	27	29
43	4	8	7	9
44	3	50	51	53
45	4	4	5	6
46	3	1	40	42
47	4	43	44	45
48	3	3	1	40
49	2	4	3	31
50	5	33	34	36
51	6	72	73	74
52	5	35	34	36
53	4	55	59	60
54	3	49	48	65
55	3	4	29	27
56	3	46	48	49
57	1	16	17	18
58	3	4	5	7
59	3	42	43	44
60	3	46	48	65
61	3	43	44	46
62	4	11	12	13
63	5	70	71	72
64	5	50	49	64
65	3	2	1	3
66	2	18	17	20
67	3	50	61	59
68	4	12	14	15
69	3	7	9	27
70	3	42	43	67
71	2	43	42	69
72	5	70	71	77
73	3	12	14	16
74	8	25	10	26
75	4	54	53	55
76	4	5	7	8
77	5	9	10	25
78	5	72	71	77
79	2	40	42	69
80	3	9	27	29
81	3	17	16	21
82	4	21	23	24
83	5	73	72	76
84	4	66	65	67
85	5	11	10	25
86	3	5	4	29
87	3	55	59	61
88	5	33	34	37
89	10	56	57	58
90	5	35	34	37
91	5	48	49	63
92	4	22	21	23
93	3	44	43	67
94	3	2	1	40
95	4	59	61	62
96	5	32	33	38
97	5	71	72	76
98	3	11	12	14
99	6	18	32	33
100	3	49	50	61
101	4	43	67	68
102	4	65	67	68
103	5	32	33	34
104	3	17	18	19
105	2	16	17	20
106	2	1	3	31
107	4	6	5	7
108	5	71	72	73
109	8	38	33	39
110	4	52	51	53
111	3	53	55	59
112	4	44	46	47
113	4	50	51	52
114	3	12	11	23
115	4	50	61	62
116	1	1	3	4
117	3	48	65	67
118	7	19	18	32
119	5	34	33	38
120	8	77	71	78
121	5	9	10	26
122	4	11	23	24
123	5	70	71	78
124	3	10	11	23
125	5	50	49	63
126	8	63	49	64
127	3	10	9	27
128	4	51	53	54
129	4	47	46	48
130	4	16	21	22
131	3	44	46	48
132	5	72	71	78

Dihedrals

1	9	7	9	27	28
2	10	61	50	49	63
3	29	74	73	72	75
4	4	41	40	42	43
4	5	41	40	42	43
5	9	52	51	53	54
6	9	55	59	61	62
7	10	50	49	48	65
8	9	9	27	29	30
9	21	70	71	72	76
9	22	70	71	72	76
10	14	35	70	71	77
11	9	53	55	59	61
12	10	12	11	10	25
13	1	20	17	16	21
14	10	23	11	10	25
15	9	5	4	29	30
16	9	46	44	43	67
17	1	18	17	16	21
18	9	60	59	61	62
19	10	48	49	50	51
20	9	51	53	55	56
21	9	53	51	50	61
22	9	12	11	23	24
23	9	11	23	21	16
24	9	5	7	9	10
25	9	17	16	21	22
26	9	52	51	53	55
27	24	75	72	71	78
28	9	49	50	61	62
29	9	4	29	27	28
30	25	57	56	55	59
31	24	76	72	71	77
32	1	14	16	17	18
33	9	50	61	59	60
34	14	35	70	71	72
35	9	42	43	44	46
36	10	51	50	49	63
37	9	49	48	65	67
38	1	1	3	4	5
39	9	5	4	29	27
40	2	1	40	42	69
40	3	1	40	42	69
41	14	18	32	33	38
42	9	44	46	48	49
43	25	53	55	56	57
44	1	5	4	3	31
45	15	19	18	17	20
45	16	19	18	17	20
46	9	3	4	29	30
47	9	12	11	23	21
48	2	4	3	1	40
48	3	4	3	1	40
49	10	26	10	9	27
50	10	9	10	11	23
51	27	71	72	73	74
51	28	71	72	73	74
52	9	44	46	48	65
53	12	18	32	33	34
53	13	18	32	33	34
54	10	7	9	10	25
55	9	50	51	53	54
56	9	13	12	14	16
57	9	42	43	67	68
58	9	3	4	5	6
59	9	7	9	27	29
60	9	45	44	46	47
61	9	14	12	11	23
62	9	6	5	7	8
63	9	11	12	14	15
64	9	49	48	65	66
65	9	43	67	65	48
66	17	19	18	32	33
66	18	19	18	32	33
67	10	11	10	9	27
68	10	46	48	49	63
69	9	54	53	55	56
70	21	70	71	72	75
70	22	70	71	72	75
71	8	3	1	40	41
72	21	73	72	71	77
72	22	73	72	71	77
73	24	36	34	33	38
74	9	28	27	29	30
75	9	10	11	23	24
76	10	12	11	10	26
77	10	23	11	10	26
78	9	3	4	29	27
79	9	51	50	61	62
80	21	35	34	33	38
80	22	35	34	33	38
81	9	50	61	59	55
82	9	10	11	12	13
83	9	43	44	46	47
84	9	4	29	27	9
85	9	44	43	67	65
86	9	47	46	48	49
87	9	43	67	65	66
88	8	2	1	40	41
89	1	40	42	43	44
90	10	64	49	48	65
91	9	17	16	21	23
92	2	20	17	18	32
92	3	20	17	18	32
93	9	45	44	43	67
94	10	61	50	49	64
95	9	56	55	59	60
96	9	8	7	9	27
97	19	32	33	34	35
97	20	32	33	34	35
98	1	67	43	42	69
99	24	37	34	33	38
100	24	36	34	33	39
101	9	47	46	48	65
102	9	11	23	21	22
103	9	10	11	12	14
104	9	10	9	27	28
105	10	9	10	11	12
106	10	25	10	9	27
107	9	49	50	51	52
108	8	2	1	40	42
109	11	17	18	32	33
110	1	1	3	4	29
111	9	10	11	23	21
112	1	40	42	43	67
113	1	29	4	3	31
114	21	32	33	34	36
114	22	32	33	34	36
115	14	18	32	33	39
116	24	37	34	33	39
117	9	4	5	7	8
118	2	16	17	18	19
118	3	16	17	18	19
119	1	44	43	42	69
120	6	2	1	3	31
120	7	2	1	3	31
121	29	74	73	72	76
122	9	12	14	16	21
123	9	5	7	9	27
124	1	14	16	17	20
125	9	10	9	27	29
126	9	6	5	7	9
127	9	15	14	16	21
128	9	13	12	11	23
129	6	41	40	42	69
129	7	41	40	42	69
130	9	49	50	61	59
131	9	51	53	55	59
132	10	7	9	10	26
133	9	50	51	53	55
134	26	55	56	57	58
135	4	2	1	3	4
135	5	2	1	3	4
136	10	51	50	49	64
137	9	12	14	16	17
138	10	63	49	48	65
139	14	35	70	71	78
140	9	53	55	59	60
141	9	3	4	5	7
142	24	75	72	71	77
143	9	51	50	61	59
144	9	15	14	16	17
145	9	45	44	46	48
146	9	11	12	14	16
147	10	7	9	10	11
148	14	37	34	35	70
149	8	3	1	40	42
150	9	6	5	4	29
151	9	52	51	50	61
152	9	48	65	67	68
153	14	33	34	35	70
154	21	73	72	71	78
154	22	73	72	71	78
155	9	14	16	21	22
156	21	35	34	33	39
156	22	35	34	33	39
157	9	46	48	65	67
158	2	16	17	18	32
158	3	16	17	18	32
159	9	7	5	4	29
160	9	43	44	46	48
161	24	76	72	71	78
162	9	42	43	44	45
163	9	56	55	59	61
164	2	1	40	42	43
164	3	1	40	42	43
165	19	70	71	72	73
165	20	70	71	72	73
166	23	34	35	70	71
167	9	42	43	67	65
168	2	31	3	1	40
168	3	31	3	1	40
169	21	32	33	34	37
169	22	32	33	34	37
170	10	46	48	49	64
171	10	48	49	50	61
172	10	46	48	49	50
173	9	66	65	67	68
174	9	14	16	21	23
175	9	22	21	23	24
176	9	4	5	7	9
177	9	44	43	67	68
178	9	49	50	51	53
179	14	36	34	35	70
180	9	54	53	55	59
181	9	13	12	14	15
182	9	8	7	9	10
183	9	46	48	65	66
184	9	16	21	23	24

Impropers

1	2	5	6	7	4
2	2	67	43	65	68
5	2	21	22	23	16
6	1	3	1	4	31
14	2	48	65	46	49
21	2	27	28	29	9
22	1	42	43	69	40
25	2	23	24	11	21
31	2	50	51	61	49
32	2	1	3	40	2
44	2	50	49	51	61
46	2	67	65	68	43
47	2	44	43	45	46
50	2	7	9	5	8
51	2	9	27	7	10
52	2	27	29	9	28
53	2	29	4	27	30
59	2	16	14	17	21
61	2	9	7	10	27
65	2	55	59	53	56
68	2	11	23	10	12
76	1	17	16	18	20
83	2	4	5	29	3
86	2	9	10	27	7
88	1	17	20	16	18
89	2	16	17	21	14
92	2	40	1	41	42
96	2	55	56	59	53
106	2	4	29	3	5
107	2	11	12	23	10
110	1	17	18	20	16
111	2	43	67	42	44
115	2	53	51	54	55
122	2	46	48	44	47
123	2	43	42	44	67
124	2	46	44	47	48
131	1	42	40	43	69
136	2	61	59	62	50
137	2	14	12	15	16
138	2	48	46	49	65
140	3	18	32	17	19
141	2	7	8	9	5
151	3	18	17	19	32
152	2	5	7	4	6
153	2	23	11	21	24
157	2	67	68	43	65
160	2	12	13	14	11
169	2	16	21	14	17
170	2	59	55	60	61
172	2	4	3	5	29
174	1	3	4	31	1
178	1	42	69	40	43
179	2	65	66	67	48
180	2	14	16	12	15
183	2	44	46	43	45
189	2	40	42	1	41
195	2	44	45	46	43
197	2	46	47	48	44
202	2	27	9	28	29
210	2	50	61	49	51
212	2	43	44	67	42
220	2	65	67	48	66
221	2	51	50	52	53
223	2	12	11	13	14
224	2	29	30	4	27
236	2	21	23	16	22
241	2	5	4	6	7
244	2	59	61	55	60
246	2	7	5	8	9
248	2	53	54	55	51
250	2	61	50	59	62
254	2	65	48	66	67
255	2	23	21	24	11
264	3	18	19	32	17
269	2	14	15	16	12
271	2	51	53	50	52
281	2	53	55	51	54
283	2	61	62	50	59
288	2	40	41	42	1
289	2	21	16	22	23
292	1	3	31	1	4
297	2	59	60	61	55
300	2	55	53	56	59
301	2	12	14	11	13
308	2	11	10	12	23
309	2	51	52	53	50
315	2	48	49	65	46
316	2	29	27	30	4
317	2	1	40	2	3
318	2	1	2	3	40
