Title

78 atoms
81 bonds
132 angles
209 dihedrals
90 impropers

12 atom types
17 bond types
10 angle types
29 dihedral types
3 improper types
-7.769000053 92.23099995 xlo xhi
-7.385000229 92.61499977 ylo yhi
-4.034999847 95.96500015 zlo zhi
0.0 0.0 0.0 xy xz yz

Masses

1	12.01078
2	15.99943
3	14.00672
4	1.007947
5	12.01078
6	1.007947
7	1.007947
8	15.99943
9	1.007947
10	12.01078
11	15.99943
12	1.007947


Pair Coeffs

1	0.086879315	3.4806469
2	0.2102061	3.0398122
3	0.16769152	3.206876
4	0.015611343	2.5725815
5	0.10884061	3.3795318
6	0.014090815	1.1034277
7	0.015779483	2.6445434
8	0.16846514	3.0251065
9	0.016409246	2.5832257
10	0.21	3.3996695
11	0.20947353	2.99716
12	1.2326e-05	0.53453923

Bond Coeffs

1 harmonic	582.698766451	1.225198386222
2 harmonic	492.76746816345	1.381897776683
3 harmonic	279.1350963404	1.454628925034
4 harmonic	390.03554688505	1.390160554689
5 harmonic	505.144496193	1.019481865027
6 harmonic	360.7852444772	1.387193227181
7 harmonic	397.2545789619	1.085358495916
8 harmonic	289.73813263395	1.498646816465
9 harmonic	370.04670688625	1.093899492634
10 harmonic	301.15400723785	1.345741232799
11 harmonic	366.7408841747	1.425895053732
12 harmonic	264.62148576755	1.52190126495
13 harmonic	300.03137914615	1.451203938761
14 harmonic	382.5450169811	1.379244394267
15 harmonic	602.81384337	1.196112346392
16 harmonic	329.96998057905	1.427343958716
17 harmonic	543.5267831885	0.9716763312559


Angle Coeffs

1 harmonic	55.42182150775	117.3465570514
2 harmonic	63.44422595415	115.5071327674
3 harmonic	57.8982893754	126.8062420451
4 harmonic	34.066775159195	129.1835929926
5 harmonic	53.20531626545	116.5475862634
6 harmonic	65.09061609600001	110.3538806181
7 harmonic	201.41175231035	127.4691416191
8 harmonic	48.776492647595	115.6030999533
9 harmonic	55.07882548015	112.8714009681
10 harmonic	33.56981613361	180


Dihedral Coeffs

1 fourier 1	1.193093382682	2	180
2 fourier 1	1.809047390003	2	180
3 fourier 1	-0.04816277792592	1	0
4 fourier 1	3.101948770557	2	180
5 fourier 1	-0.4252153282372	1	0
6 fourier 1	2.348375642009	2	180
7 fourier 1	1.256156174911	1	0
8 fourier 1	0.9974165607242	2	180
9 fourier 1	3.661930099076	2	180
10 fourier 1	0.02664938770063	3	0
11 fourier 1	2.779853741805	2	180
12 fourier 1	0.1918272375143	3	0
13 fourier 1	0.9202179876409	1	180
14 fourier 1	0.0473758381877	3	0
15 fourier 1	0.4860993122944	2	180
16 fourier 1	0.8916986138746	1	0
17 fourier 1	1.163809172478	2	180
18 fourier 1	0.1679186987369	1	180
19 fourier 1	-0.0309670556842	3	0
20 fourier 1	0.4598191477945	2	0
21 fourier 1	0.1115525666802	3	0
22 fourier 1	0.3432490222662	1	0
23 fourier 1	0.457973137376	1	0
24 fourier 1	0.1911926717192	3	0
25 fourier 1	1.550515418264	2	180
26 fourier 1	0	1	0
27 fourier 1	0.3445382149273	3	0
28 fourier 1	0.1364556373303	1	0
29 fourier 1	0.3026390167484	3	0


Improper Coeffs

1 0.3333333333333333	-1	2
2 0.3666666666666667	-1	2
3 3.5	-1	2


Atoms

1	1	1	0.57258803	5.5349998	-0.74699998	1.5319999
2	1	2	-0.60239202	5.362	0.024	2.513
3	1	3	-0.50622499	4.6830001	-0.69	0.382
4	1	1	0.208874	3.4579999	0.059999999	0.31900001
5	1	1	-0.37590599	3.0510001	0.56800002	-0.85600001
6	1	4	0.219823	3.651	0.43599999	-1.748
7	1	1	-0.13857201	1.788	1.33	-0.949
8	1	4	0.217949	1.4859999	1.73	-1.909
9	1	1	-0.242448	1.028	1.518	0.14300001
10	1	5	-0.049743999	-0.28	2.257	0.052000001
11	1	1	-0.242448	-1.397	1.299	-0.25999999
12	1	1	-0.13857201	-1.729	1.021	-1.5319999
13	1	4	0.217949	-1.214	1.502	-2.355
14	1	1	-0.36381701	-2.799	0.046	-1.8279999
15	1	4	0.219823	-3.056	-0.154	-2.8610001
16	1	1	0.23266099	-3.4289999	-0.60000002	-0.833
17	1	3	-0.46864399	-4.474	-1.538	-1.145
18	1	1	0.82209003	-4.776	-2.697	-0.359
19	1	2	-0.54513502	-4.0100002	-3.0810001	0.56300002
20	1	6	0.327003	-5.0029998	-1.419	-2.0380001
21	1	1	-0.36381701	-3.0680001	-0.28400001	0.574
22	1	4	0.219823	-3.598	-0.74699998	1.396
23	1	1	-0.13857201	-2.105	0.60600001	0.84200001
24	1	4	0.217949	-1.855	0.829	1.872
25	1	7	0.127617	-0.486	2.7709999	1.015
26	1	7	0.127617	-0.223	3.0550001	-0.722
27	1	1	-0.13857201	1.45	0.921	1.433
28	1	4	0.217949	0.824	1.028	2.3099999
29	1	1	-0.37590599	2.5940001	0.23100001	1.517
30	1	4	0.219823	2.862	-0.227	2.4590001
31	1	6	0.32308501	5.0229998	-1.169	-0.48300001
32	1	8	-0.48644301	-5.6240001	-3.2539999	-0.57800001
33	1	5	0.140071	-6.3010001	-2.5710001	-1.597
34	1	5	0.05934	-7.0359998	-1.359	-1.025
35	1	8	-0.11393	-7.7690001	-0.71499997	-2.0309999
36	1	9	0.111508	-7.7399998	-1.697	-0.235
37	1	9	0.111508	-6.3099999	-0.653	-0.56099999
38	1	9	0.112295	-7.039	-3.2620001	-2.0580001
39	1	9	0.112295	-5.5869999	-2.2490001	-2.3889999
40	1	1	0.57258803	6.368	-1.437	1.544
41	1	2	-0.60239202	6.388	-2.3900001	0.722
42	1	3	-0.50622398	7.4499998	-1.219	2.46
43	1	1	0.208874	8.54	-2.135	2.668
44	1	1	-0.37590599	8.3599997	-3.4690001	2.635
45	1	4	0.219823	7.3829999	-3.8970001	2.4590001
46	1	1	-0.13857201	9.4940004	-4.382	2.888
47	1	4	0.217949	9.323	-5.4510002	2.859
48	1	1	-0.242448	10.715	-3.8900001	3.1589999
49	1	5	-0.049743999	11.866	-4.8099999	3.46
50	1	1	-0.25669199	11.912	-5.1230001	4.9310002
51	1	1	-0.183799	12.587	-4.3309999	5.7820001
52	1	4	0.204217	13.132	-3.4679999	5.4190001
53	1	1	-0.25477299	12.591	-4.6220002	7.23
54	1	4	0.21167099	13.153	-3.9690001	7.8860002
55	1	1	0.44295001	11.905	-5.6789999	7.7150002
56	1	3	-0.333929	11.875	-6.0050001	9.1140003
57	1	10	0.61570603	12.482	-5.3439999	10.018
58	1	2	-0.28609499	13.072	-4.7020001	10.897
59	1	1	-0.25477299	11.15	-6.539	6.777
60	1	4	0.21167099	10.59	-7.3850002	7.1550002
61	1	1	-0.183799	11.15	-6.277	5.4640002
62	1	4	0.204217	10.588	-6.9130001	4.7919998
63	1	7	0.127617	11.77	-5.7529998	2.8770001
64	1	7	0.127617	12.821	-4.3400002	3.1359999
65	1	1	-0.13857201	10.906	-2.4219999	3.233
66	1	4	0.217949	11.878	-2.0120001	3.4760001
67	1	1	-0.37590599	9.8789997	-1.595	3.0039999
68	1	4	0.219823	10.03	-0.52499998	3.0610001
69	1	6	0.32308501	7.4949999	-0.287	2.9289999
70	1	8	-0.108411	-7.1139998	-0.20200001	-2.5739999
71	1	5	0.029693	-6.2919998	-1.145	-3.2060001
72	1	5	0.101742	-5.2800002	-1.716	-2.214
73	1	11	-0.66909301	-4.415	-2.608	-2.8610001
74	1	12	0.409098	-4.9239998	-3.45	-2.9979999
75	1	9	0.110938	-4.6789999	-0.88599998	-1.785
76	1	9	0.110938	-5.809	-2.227	-1.377
77	1	9	0.112232	-5.7490001	-0.64300001	-4.0349998
78	1	9	0.112232	-6.9070001	-1.964	-3.6440001

Bonds

1	1	1	2
2	2	1	3
3	3	1	40
4	4	3	4
5	5	3	31
6	6	4	5
7	6	4	29
8	7	5	6
9	6	5	7
10	7	7	8
11	6	7	9
12	8	9	10
13	6	9	27
14	8	10	11
15	9	10	25
16	9	10	26
17	6	11	12
18	6	11	23
19	7	12	13
20	6	12	14
21	7	14	15
22	6	14	16
23	4	16	17
24	6	16	21
25	2	17	18
26	5	17	20
27	1	18	19
28	10	18	32
29	7	21	22
30	6	21	23
31	7	23	24
32	7	27	28
33	6	27	29
34	7	29	30
35	11	32	33
36	12	33	34
37	9	33	38
38	9	33	39
39	11	34	35
40	9	34	36
41	9	34	37
42	13	35	70
43	1	40	41
44	2	40	42
45	4	42	43
46	5	42	69
47	6	43	44
48	6	43	67
49	7	44	45
50	6	44	46
51	7	46	47
52	6	46	48
53	8	48	49
54	6	48	65
55	8	49	50
56	9	49	63
57	9	49	64
58	6	50	51
59	6	50	61
60	7	51	52
61	6	51	53
62	7	53	54
63	6	53	55
64	14	55	56
65	6	55	59
66	15	56	57
67	1	57	58
68	7	59	60
69	6	59	61
70	7	61	62
71	7	65	66
72	6	65	67
73	7	67	68
74	11	70	71
75	12	71	72
76	9	71	77
77	9	71	78
78	16	72	73
79	9	72	75
80	9	72	76
81	17	73	74

Angles

1	3	53	55	56
2	2	40	42	69
3	3	42	43	67
4	3	3	1	40
5	3	49	48	65
6	4	9	27	28
7	4	51	53	54
8	4	21	23	24
9	4	6	5	7
10	5	32	33	39
11	3	41	40	42
12	3	7	9	10
13	8	38	33	39
14	3	14	16	17
15	6	18	32	33
16	2	16	17	20
17	5	48	49	50
18	8	36	34	37
19	3	46	48	49
20	3	3	4	5
21	4	13	12	14
22	3	43	44	46
23	3	4	29	27
24	4	65	67	68
25	4	44	46	47
26	10	56	57	58
27	4	45	44	46
28	5	33	34	37
29	3	42	43	44
30	3	1	40	41
31	5	35	34	37
32	3	14	16	21
33	3	10	11	23
34	4	27	29	30
35	5	70	71	77
36	4	12	14	15
37	3	17	18	32
38	8	25	10	26
39	3	51	53	55
40	9	55	56	57
41	5	48	49	63
42	5	70	71	72
43	4	54	53	55
44	5	32	33	34
45	3	43	67	65
46	5	11	10	25
47	3	11	12	14
48	5	50	49	64
49	1	16	17	18
50	3	44	46	48
51	2	18	17	20
52	2	43	42	69
53	4	11	23	24
54	6	35	70	71
55	5	72	71	77
56	4	4	5	6
57	5	9	10	11
58	4	15	14	16
59	3	17	18	19
60	4	47	46	48
61	4	60	59	61
62	8	63	49	64
63	3	55	59	61
64	4	59	61	62
65	5	34	33	38
66	8	77	71	78
67	5	70	71	78
68	3	17	16	21
69	3	11	23	21
70	8	75	72	76
71	3	2	1	3
72	3	44	43	67
73	3	3	4	29
74	5	73	72	76
75	4	50	51	52
76	3	12	11	23
77	5	33	34	35
78	4	8	7	9
79	4	48	65	66
80	5	34	33	39
81	5	9	10	25
82	4	5	7	8
83	5	72	71	78
84	3	1	40	42
85	4	11	12	13
86	2	1	3	31
87	5	11	10	26
88	5	73	72	75
89	7	19	18	32
90	6	34	35	70
91	3	46	48	65
92	4	28	27	29
93	3	50	51	53
94	4	16	21	22
95	5	48	49	64
96	5	32	33	38
97	5	71	72	76
98	3	56	55	59
99	3	4	5	7
100	3	51	50	61
101	1	1	3	4
102	6	72	73	74
103	3	5	4	29
104	1	40	42	43
105	4	55	59	60
106	4	43	44	45
107	3	49	50	61
108	3	53	55	59
109	4	4	29	30
110	3	49	50	51
111	4	50	61	62
112	2	4	3	31
113	5	71	72	75
114	3	7	9	27
115	3	16	21	23
116	3	9	27	29
117	5	71	72	73
118	4	66	65	67
119	5	33	34	36
120	4	43	67	68
121	3	12	14	16
122	3	50	61	59
123	4	22	21	23
124	5	9	10	26
125	5	35	34	36
126	3	10	11	12
127	3	2	1	40
128	3	5	7	9
129	5	50	49	63
130	4	52	51	53
131	3	48	65	67
132	3	10	9	27

Dihedrals

1	1	29	4	3	31
2	9	14	16	21	22
3	10	50	49	48	65
4	24	36	34	33	39
5	8	3	1	40	42
6	1	5	4	3	31
7	9	49	50	51	53
8	9	46	48	65	66
9	21	35	34	33	39
9	22	35	34	33	39
10	4	41	40	42	43
10	5	41	40	42	43
11	1	1	3	4	5
12	9	12	11	23	24
13	9	4	5	7	9
14	29	74	73	72	75
15	9	13	12	14	15
16	1	14	16	17	20
17	9	46	44	43	67
18	10	63	49	48	65
19	9	8	7	9	10
20	9	14	16	21	23
21	10	46	48	49	64
22	9	54	53	55	56
23	1	20	17	16	21
24	10	48	49	50	61
25	21	70	71	72	76
25	22	70	71	72	76
26	24	75	72	71	77
27	9	49	48	65	66
28	9	44	43	67	68
29	14	35	70	71	78
30	9	43	44	46	48
31	15	19	18	17	20
31	16	19	18	17	20
32	1	18	17	16	21
33	9	51	53	55	56
34	2	31	3	1	40
34	3	31	3	1	40
35	21	73	72	71	78
35	22	73	72	71	78
36	9	3	4	29	30
37	10	9	10	11	12
38	2	4	3	1	40
38	3	4	3	1	40
39	9	54	53	55	59
40	9	52	51	50	61
41	9	53	55	59	61
42	6	41	40	42	69
42	7	41	40	42	69
43	14	35	70	71	72
44	19	32	33	34	35
44	20	32	33	34	35
45	9	9	27	29	30
46	9	11	12	14	16
47	10	23	11	10	25
48	9	42	43	44	45
49	9	5	4	29	27
50	10	7	9	10	26
51	9	4	29	27	28
52	9	44	43	67	65
53	9	17	16	21	22
54	9	56	55	59	61
55	10	12	11	10	26
56	9	53	55	59	60
57	9	45	44	46	47
58	2	16	17	18	32
58	3	16	17	18	32
59	1	14	16	17	18
60	9	66	65	67	68
61	9	3	4	5	7
62	10	64	49	48	65
63	9	11	12	14	15
64	9	13	12	11	23
65	9	10	11	23	21
66	1	40	42	43	67
67	26	55	56	57	58
68	1	1	3	4	29
69	9	4	29	27	9
70	9	51	50	61	62
71	9	12	14	16	21
72	9	47	46	48	49
73	9	56	55	59	60
74	17	19	18	32	33
74	18	19	18	32	33
75	4	2	1	3	4
75	5	2	1	3	4
76	9	4	5	7	8
77	9	51	50	61	59
78	10	11	10	9	27
79	14	18	32	33	38
80	9	17	16	21	23
81	9	50	51	53	54
82	9	6	5	7	8
83	9	5	7	9	27
84	9	10	11	23	24
85	14	37	34	35	70
86	9	45	44	46	48
87	9	50	61	59	55
88	9	11	23	21	16
89	10	51	50	49	63
90	25	57	56	55	59
91	27	71	72	73	74
91	28	71	72	73	74
92	24	76	72	71	77
93	9	16	21	23	24
94	9	52	51	53	54
95	21	70	71	72	75
95	22	70	71	72	75
96	9	3	4	29	27
97	9	49	50	51	52
98	9	7	9	27	29
99	9	12	14	16	17
100	10	46	48	49	50
101	10	61	50	49	64
102	1	67	43	42	69
103	1	44	43	42	69
104	19	70	71	72	73
104	20	70	71	72	73
105	8	2	1	40	42
106	1	40	42	43	44
107	8	3	1	40	41
108	14	18	32	33	39
109	9	43	67	65	66
110	10	23	11	10	26
111	21	32	33	34	36
111	22	32	33	34	36
112	9	44	46	48	49
113	24	75	72	71	78
114	6	2	1	3	31
114	7	2	1	3	31
115	9	49	50	61	62
116	25	53	55	56	57
117	21	35	34	33	38
117	22	35	34	33	38
118	9	42	43	67	68
119	9	43	67	65	48
120	9	46	48	65	67
121	2	1	40	42	43
121	3	1	40	42	43
122	9	45	44	43	67
123	9	10	9	27	29
124	9	48	65	67	68
125	29	74	73	72	76
126	9	15	14	16	21
127	9	49	50	61	59
128	9	10	11	12	14
129	9	28	27	29	30
130	9	5	4	29	30
131	9	47	46	48	65
132	21	73	72	71	77
132	22	73	72	71	77
133	9	7	9	27	28
134	10	7	9	10	25
135	9	50	51	53	55
136	11	17	18	32	33
137	10	12	11	10	25
138	9	10	11	12	13
139	9	43	44	46	47
140	10	46	48	49	63
141	2	16	17	18	19
141	3	16	17	18	19
142	9	13	12	14	16
143	9	5	7	9	10
144	24	37	34	33	38
145	24	76	72	71	78
146	10	25	10	9	27
147	9	3	4	5	6
148	14	33	34	35	70
149	10	26	10	9	27
150	9	52	51	53	55
151	9	7	5	4	29
152	9	50	61	59	60
153	9	51	53	55	59
154	10	9	10	11	23
155	10	7	9	10	11
156	9	42	43	67	65
157	9	15	14	16	17
158	23	34	35	70	71
159	9	53	51	50	61
160	9	49	48	65	67
161	9	6	5	7	9
162	12	18	32	33	34
162	13	18	32	33	34
163	9	10	9	27	28
164	24	37	34	33	39
165	9	55	59	61	62
166	9	60	59	61	62
167	14	36	34	35	70
168	24	36	34	33	38
169	9	14	12	11	23
170	2	1	40	42	69
170	3	1	40	42	69
171	9	8	7	9	27
172	10	61	50	49	63
173	9	22	21	23	24
174	9	44	46	48	65
175	10	48	49	50	51
176	9	42	43	44	46
177	9	12	11	23	21
178	21	32	33	34	37
178	22	32	33	34	37
179	10	51	50	49	64
180	8	2	1	40	41
181	2	20	17	18	32
181	3	20	17	18	32
182	9	11	23	21	22
183	9	6	5	4	29
184	14	35	70	71	77

Impropers

4	3	18	32	17	19
6	3	18	17	19	32
9	2	16	21	14	17
11	2	53	51	54	55
17	2	29	4	27	30
18	2	16	17	21	14
20	2	12	13	14	11
23	2	59	55	60	61
33	2	14	15	16	12
39	1	17	16	18	20
42	2	55	56	59	53
43	2	27	9	28	29
44	2	55	53	56	59
48	2	23	24	11	21
50	2	14	16	12	15
52	1	3	4	31	1
55	2	4	5	29	3
59	2	7	8	9	5
62	2	46	48	44	47
71	2	43	44	67	42
77	2	51	52	53	50
79	2	7	9	5	8
83	2	9	10	27	7
85	2	27	28	29	9
86	2	67	43	65	68
87	2	67	65	68	43
90	1	42	69	40	43
95	2	51	50	52	53
97	2	53	55	51	54
98	2	61	59	62	50
100	2	23	21	24	11
103	1	42	43	69	40
106	1	17	18	20	16
114	2	14	12	15	16
128	1	42	40	43	69
129	2	59	60	61	55
132	2	7	5	8	9
136	2	55	59	53	56
141	2	61	62	50	59
142	2	21	16	22	23
143	2	44	46	43	45
144	1	3	1	4	31
145	2	12	14	11	13
148	2	65	67	48	66
149	2	11	12	23	10
153	2	48	65	46	49
155	2	43	42	44	67
159	2	65	66	67	48
161	2	11	23	10	12
163	2	65	48	66	67
164	2	1	40	2	3
165	2	4	3	5	29
171	2	11	10	12	23
178	2	50	61	49	51
190	2	40	1	41	42
194	2	9	27	7	10
203	2	5	7	4	6
204	2	53	54	55	51
206	2	1	2	3	40
209	2	46	44	47	48
214	2	9	7	10	27
219	2	16	14	17	21
221	3	18	19	32	17
224	2	29	27	30	4
225	2	21	23	16	22
229	2	48	49	65	46
232	2	48	46	49	65
233	2	50	49	51	61
240	2	40	42	1	41
243	2	46	47	48	44
248	2	5	6	7	4
251	2	27	29	9	28
252	2	29	30	4	27
253	2	61	50	59	62
255	2	44	45	46	43
256	2	12	11	13	14
257	2	23	11	21	24
258	2	50	51	61	49
261	2	59	61	55	60
262	2	4	29	3	5
265	2	1	3	40	2
266	2	5	4	6	7
268	2	67	68	43	65
281	1	3	31	1	4
286	2	44	43	45	46
299	2	21	22	23	16
300	2	43	67	42	44
306	2	51	53	50	52
314	1	17	20	16	18
317	2	40	41	42	1
