Title

13000 atoms
13375 bonds
23750 angles
35375 dihedrals
9750 impropers

9 atom types
13 bond types
6 angle types
13 dihedral types
2 improper types
-11.22515781 112.42835 xlo xhi
-9.545746394 112.4533637 ylo yhi
-11.1059049 112.5585766 zlo zhi
0.0 0.0 0.0 xy xz yz

Masses

1	15.99943
2	12.01078
3	1.007947
4	12.01078
5	1.007947
6	15.99943
7	15.99943
8	1.007947
9	35.4532


Pair Coeffs

1	0.16846514	3.0251065
2	0.086879315	3.4806469
3	0.015611343	2.5725815
4	0.10884061	3.3795318
5	0.015779483	2.6445434
6	0.2102061	3.0398122
7	0.20947353	2.99716
8	1.2326e-05	0.53453923
9	0.2656001	3.3075278

Bond Coeffs

1 harmonic	425.69104206635	1.362945806494
2 harmonic	300.03137914615	1.451203938761
3 harmonic	360.7852444772	1.387193227181
4 harmonic	397.2545789619	1.085358495916
5 harmonic	289.73813263395	1.498646816465
6 harmonic	264.62148576755	1.52190126495
7 harmonic	301.15400723785	1.345741232799
8 harmonic	370.04670688625	1.093899492634
9 harmonic	582.698766451	1.225198386222
10 harmonic	279.1350963404	1.454628925034
11 harmonic	385.7604595587	1.369745182308
12 harmonic	543.5267831885	0.9716763312559
13 harmonic	218.0227703685	1.746066037062


Angle Coeffs

1 harmonic	57.8982893754	126.8062420451
2 harmonic	65.09061609600001	110.3538806181
3 harmonic	34.066775159195	129.1835929926
4 harmonic	53.20531626545	116.5475862634
5 harmonic	201.41175231035	127.4691416191
6 harmonic	48.776492647595	115.6030999533


Dihedral Coeffs

1 fourier 1	3.661930099076	2	180
2 fourier 1	1.532232714475	2	180
3 fourier 1	0.457973137376	1	0
4 fourier 1	0.02664938770063	3	0
5 fourier 1	0.1155372516788	3	0
6 fourier 1	0.09223874044423	3	0
7 fourier 1	0.3159935921949	2	180
8 fourier 1	0.3247796806857	1	180
9 fourier 1	0.1040663847541	3	0
10 fourier 1	2.779853741805	2	180
11 fourier 1	0.9974165607242	2	180
12 fourier 1	0.1911926717192	3	0
13 fourier 1	0.8283030590042	2	180


Improper Coeffs

1 0.3666666666666667	-1	2
2 3.5	-1	2


Atoms

1	4	1	-0.0090804276	-2.6068077	-0.3462587	-0.397664
2	4	2	0.084596811	-1.4770442	-0.49903537	-1.2014
3	4	2	-0.25632158	-1.4324752	-1.5219393	-2.0610576
4	4	3	0.22484818	-2.2668995	-2.2096473	-2.1278624
5	4	2	-0.15974298	-0.25953455	-1.7280243	-2.9299317
6	4	3	0.21073405	-0.31732069	-2.5416631	-3.6334433
7	4	2	-0.21940251	0.81468859	-0.91145666	-2.8507295
8	4	4	0.026395168	2.0649155	-1.0406925	-3.7577487
9	4	2	-0.21940248	2.1152051	0.19444274	-4.6928946
10	4	2	-0.16103512	0.98178338	0.72059539	-5.212241
11	4	3	0.21073405	0.0088613569	0.32001831	-4.9634142
12	4	2	-0.22437751	1.0264455	1.860199	-6.1456422
13	4	3	0.22508733	0.097686887	2.2846696	-6.5051394
14	4	2	0.30585179	2.1949015	2.3675174	-6.5471999
15	4	1	-0.41802761	2.1893443	3.451619	-7.4260342
16	4	2	-0.097399184	3.4646442	1.7622159	-6.060565
17	4	4	-0.13325787	4.7902341	2.2841786	-6.5456542
18	4	5	0.095958648	4.8961798	3.3520516	-6.2597388
19	4	5	0.095958648	4.8437857	2.1924459	-7.6507181
20	4	5	0.095958648	5.645658	1.7246915	-6.110516
21	4	2	-0.27355012	3.4183402	0.73052899	-5.1969655
22	4	3	0.21120973	4.3449736	0.27381375	-4.8806514
23	4	4	-0.12972045	3.3587488	-1.0793338	-2.8546982
24	4	4	-0.12946835	3.2430554	-1.8391758	-1.5111889
25	4	4	-0.12169744	4.6184134	-2.0895587	-0.90058535
26	4	5	0.068448125	5.2225999	-2.7422091	-1.5675734
27	4	5	0.068448125	5.1529836	-1.128465	-0.74462474
28	4	5	0.068448125	4.5046115	-2.5972685	0.080815107
29	4	5	0.090302853	2.7283473	-2.8103849	-1.6262083
30	4	5	0.090302853	2.6546976	-1.2382218	-0.78549022
31	4	5	0.10566249	4.1987428	-1.5146002	-3.4391212
32	4	5	0.10566249	3.6625259	-0.040883311	-2.59543
33	4	4	-0.12972045	2.047278	-2.2735756	-4.731875
34	4	4	-0.12946835	2.2179509	-3.6656716	-4.0937776
35	4	4	-0.12169744	1.9906582	-4.7705327	-5.1221725
36	4	5	0.068448125	0.95109924	-4.725375	-5.513134
37	4	5	0.068448125	2.7047963	-4.6657601	-5.9659316
38	4	5	0.068448125	2.1463846	-5.761471	-4.6456301
39	4	5	0.090302853	1.5050281	-3.8192928	-3.2590378
40	4	5	0.090302853	3.2507963	-3.7739602	-3.7009658
41	4	5	0.10566249	2.8778916	-2.158654	-5.4650066
42	4	5	0.10566249	1.1152825	-2.2509283	-5.339004
43	4	2	-0.27675888	0.73873095	0.25027164	-1.9162886
44	4	3	0.2112097	1.5678102	0.94592888	-1.8813937
45	4	2	-0.085448274	-0.33251619	0.44931765	-1.1277505
46	4	4	-0.13639002	-0.37534909	1.6249273	-0.19129481
47	4	5	0.095958648	-0.47170194	1.2638867	0.85414998
48	4	5	0.095958648	0.54393479	2.2455456	-0.25783105
49	4	5	0.095958648	-1.2444783	2.2682255	-0.44102036
50	5	2	0.62805098	3.0704634	3.8955069	-7.779218
51	5	6	-0.49624846	4.029351	3.20004	-8.0715024
52	1	1	-0.0090804276	-2.7010388	0.40659404	0.27176207
53	1	2	0.084596811	-2.4549672	0.23377197	1.6346297
54	1	2	-0.25632158	-2.602494	1.2820948	2.4523999
55	1	3	0.22484818	-2.9126648	2.2404382	2.0549681
56	1	2	-0.15974298	-2.3518746	1.1502915	3.8996227
57	1	3	0.21073405	-2.5405987	2.0233375	4.5028472
58	1	2	-0.21940251	-1.9296214	-0.020209147	4.4277481
59	1	4	0.026395168	-1.6840109	-0.24369212	5.9417524
60	1	2	-0.21940248	-2.7530337	-1.2379343	6.4636439
61	1	2	-0.11865776	-4.0258853	-1.1950115	6.0065648
62	1	3	0.21073405	-4.3259735	-0.49388429	5.2391355
63	1	2	-0.38775739	-5.0593791	-2.1013955	6.5371528
64	1	3	0.23007163	-6.0567304	-2.0696326	6.1163234
65	1	2	0.28292724	-4.7775541	-2.9508654	7.5280052
66	1	7	-0.63819981	-5.7848776	-3.7953659	7.9956048
67	1	8	0.43595126	-5.6355647	-4.4611753	8.7432488
68	1	2	-0.26869354	-3.4091445	-2.9708169	8.1130336
69	1	4	-0.11922962	-3.0880883	-3.8822468	9.2664618
70	1	5	0.095958648	-3.2432886	-4.9373221	8.9601452
71	1	5	0.095958648	-3.7526271	-3.6459318	10.123267
72	1	5	0.095958648	-2.0355987	-3.7739034	9.6052484
73	1	2	-0.23590988	-2.4647556	-2.1503583	7.6133835
74	1	3	0.21120973	-1.4855041	-2.1447653	8.0719348
75	1	4	-0.12972045	-0.24323261	-0.85188614	6.1487813
76	1	4	-0.12946835	0.87121627	-0.32925973	5.2104417
77	1	4	-0.12169744	2.252742	-0.73015189	5.7197785
78	1	5	0.068448125	2.447129	-0.26746161	6.7110406
79	1	5	0.068448125	2.3245773	-1.835634	5.8096337
80	1	5	0.068448125	3.0289472	-0.38021396	5.0074563
81	1	5	0.090302853	0.84277284	0.77019427	5.1058622
82	1	5	0.090302853	0.7457619	-0.76058277	4.1959548
83	1	5	0.10566249	0.073206477	-0.6902092	7.2028387
84	1	5	0.10566249	-0.27836016	-1.9538132	5.9983027
85	1	4	-0.12972045	-1.8651587	1.0363086	6.8348088
86	1	4	-0.12946835	-0.7932405	2.1343482	6.7016571
87	1	4	-0.12169744	-1.1939865	3.3868233	7.4747179
88	1	5	0.068448125	-2.1344996	3.8099304	7.0622587
89	1	5	0.068448125	-1.3396417	3.1483498	8.5503051
90	1	5	0.068448125	-0.39422658	4.1516816	7.3863221
91	1	5	0.090302853	-0.63377752	2.4186601	5.6431046
92	1	5	0.090302853	0.16951523	1.770518	7.1192657
93	1	5	0.10566249	-1.8670385	0.72434328	7.9042634
94	1	5	0.10566249	-2.8735243	1.4713203	6.6552967
95	1	2	-0.27675888	-1.8064519	-1.1920526	3.5124312
96	1	3	0.2112097	-1.5233836	-2.15183	3.9290565
97	1	2	-0.085448274	-2.04333	-1.0827975	2.1931723
98	1	4	-0.13639002	-1.9026341	-2.2814578	1.2960674
99	1	5	0.095958648	-1.1291209	-2.0804585	0.52499952
100	1	5	0.095958648	-1.6007084	-3.1909867	1.8585299
101	1	5	0.095958648	-2.8730838	-2.4894631	0.79840364
102	2	2	0.46756139	3.1304532	4.9725013	-7.8860606
103	2	6	-0.57171917	2.1453548	5.6609436	-7.677786
104	2	9	-0.082858676	4.6435676	5.725719	-8.353695
105	4	1	-0.0090804276	-0.57774321	-2.4164532	23.739754
106	4	2	0.084596811	-1.1500682	-1.5971281	22.766693
107	4	2	-0.25632158	-1.6301002	-2.1596804	21.652945
108	4	3	0.22484818	-1.5756359	-3.2337408	21.52219
109	4	2	-0.15974298	-2.2416732	-1.3365178	20.593896
110	4	3	0.21073405	-2.6532568	-1.8642519	19.749875
111	4	2	-0.21940251	-2.296434	0.0093992837	20.705787
112	4	4	0.026395168	-2.9589299	0.93590658	19.654532
113	4	2	-0.21940248	-4.2235835	1.5659247	20.29196
114	4	2	-0.16103512	-5.014851	0.8486742	21.123013
115	4	3	0.21073405	-4.770831	-0.16891152	21.394909
116	4	2	-0.22437751	-6.2483196	1.4235799	21.68867
117	4	3	0.22508733	-6.8324226	0.83691685	22.386277
118	4	2	0.30585179	-6.6463446	2.6523865	21.348787
119	4	1	-0.41802761	-7.8169392	3.1592725	21.914854
120	4	2	-0.097399184	-5.844451	3.440896	20.373764
121	4	4	-0.13325787	-6.306842	4.8045892	19.936179
122	4	5	0.095958648	-6.362861	5.4783268	20.817238
123	4	5	0.095958648	-7.3112794	4.7245195	19.470192
124	4	5	0.095958648	-5.6176576	5.2631299	19.19531
125	4	2	-0.27355012	-4.711001	2.9167576	19.870876
126	4	3	0.21120973	-4.1575895	3.4815809	19.134667
127	4	4	-0.12972045	-1.9415366	2.0731684	19.251364
128	4	4	-0.12946835	-0.45080698	1.6673418	19.157599
129	4	4	-0.12169744	0.36815785	2.7413634	18.448436
130	4	5	0.068448125	0.01951841	2.8613759	17.399668
131	4	5	0.068448125	0.27510151	3.7123355	18.979797
132	4	5	0.068448125	1.438608	2.4451407	18.432447
133	4	5	0.090302853	-0.31363919	0.71068221	18.621513
134	4	5	0.090302853	-0.028666028	1.5374974	20.176857
135	4	5	0.10566249	-2.2529254	2.5133141	18.278787
136	4	5	0.10566249	-1.9895655	2.896908	19.997706
137	4	4	-0.12972045	-3.4877283	0.20181071	18.369733
138	4	4	-0.12946835	-2.4264159	-0.34483595	17.395555
139	4	4	-0.12169744	-3.071957	-1.1924783	16.302506
140	4	5	0.068448125	-3.5789892	-2.0754903	16.748355
141	4	5	0.068448125	-3.813328	-0.59156362	15.734905
142	4	5	0.068448125	-2.291362	-1.551075	15.598672
143	4	5	0.090302853	-1.6779344	-0.97115807	17.92105
144	4	5	0.090302853	-1.8984791	0.49927012	16.904062
145	4	5	0.10566249	-4.114219	0.91434727	17.786287
146	4	5	0.10566249	-4.1781396	-0.61712238	18.670423
147	4	2	-0.27675888	-1.7937127	0.62394114	21.969975
148	4	3	0.2112097	-1.8813611	1.6954573	22.099203
149	4	2	-0.085448274	-1.2432979	-0.12248095	22.944079
150	4	4	-0.13639002	-0.73909343	0.52756463	24.202674
151	4	5	0.095958648	0.3473241	0.32805425	24.314395
152	4	5	0.095958648	-0.88762073	1.6287051	24.192359
153	4	5	0.095958648	-1.2819586	0.11461235	25.078088
154	5	2	0.62805098	-8.1838864	4.1147945	21.690191
155	5	6	-0.49624846	-8.1237811	4.5384095	20.547603
156	1	1	-0.0090804276	-0.19726303	-2.0518409	24.603519
157	1	2	0.084596811	1.1694407	-1.840062	24.790863
158	1	2	-0.25632158	1.5896505	-1.354117	25.964223
159	1	3	0.22484818	0.87526255	-1.1379226	26.748755
160	1	2	-0.15974298	3.0233048	-1.1109469	26.209457
161	1	3	0.21073405	3.29212	-0.76739956	27.195063
162	1	2	-0.21940251	3.941249	-1.3352905	25.242847
163	1	4	0.026395168	5.4661449	-1.1401473	25.440558
164	1	2	-0.21940248	6.1433735	-2.5336944	25.385007
165	1	2	-0.11865776	5.5468131	-3.6198975	25.928324
166	1	3	0.21073405	4.5668252	-3.55682	26.382444
167	1	2	-0.38775739	6.2087005	-4.9363574	25.926432
168	1	3	0.23007163	5.682868	-5.7928099	26.329924
169	1	2	0.28292724	7.4436648	-5.0777109	25.438892
170	1	7	-0.63819981	8.0298465	-6.3437155	25.451315
171	1	8	0.43595126	8.9619368	-6.5170944	25.096751
172	1	2	-0.26869354	8.1648374	-3.8896059	24.906428
173	1	4	-0.11922962	9.5770995	-4.0191814	24.403533
174	1	5	0.095958648	9.6039571	-4.729256	23.551375
175	1	5	0.095958648	10.228809	-4.397012	25.21845
176	1	5	0.095958648	9.9880309	-3.0477606	24.05464
177	1	2	-0.23590988	7.5485426	-2.6917882	24.897125
178	1	3	0.21120973	8.0958816	-1.8282897	24.544954
179	1	4	-0.12972045	6.0263795	-0.22790089	24.281875
180	1	4	-0.12946835	5.1119044	0.92593004	23.804355
181	1	4	-0.12169744	5.8839259	1.9186037	22.93987
182	1	5	0.068448125	6.6937067	2.3965406	23.531732
183	1	5	0.068448125	6.3267991	1.4015874	22.061302
184	1	5	0.068448125	5.1961416	2.7107148	22.576735
185	1	5	0.090302853	4.6622932	1.4754541	24.650769
186	1	5	0.090302853	4.2786248	0.52127834	23.193729
187	1	5	0.10566249	7.0051275	0.19865164	24.593989
188	1	5	0.10566249	6.229124	-0.85027785	23.382062
189	1	4	-0.12972045	5.8798774	-0.55500953	26.838844
190	1	4	-0.12946835	5.5359744	0.92288537	27.103394
191	1	4	-0.12169744	5.8191232	1.2993079	28.554272
192	1	5	0.068448125	5.1842017	0.69829154	29.239371
193	1	5	0.068448125	6.8892135	1.1249324	28.798143
194	1	5	0.068448125	5.5900449	2.3739936	28.712422
195	1	5	0.090302853	4.4690726	1.1343482	26.894111
196	1	5	0.090302853	6.1596622	1.5743991	26.455157
197	1	5	0.10566249	6.9847106	-0.64697945	26.948134
198	1	5	0.10566249	5.452249	-1.1909375	27.645684
199	1	2	-0.27675888	3.4653932	-1.9138954	23.95251
200	1	3	0.2112097	4.1950413	-2.1524451	23.187275
201	1	2	-0.085448274	2.160938	-2.1484437	23.724747
202	1	4	-0.13639002	1.7128078	-2.7251185	22.410211
203	1	5	0.095958648	1.0165324	-2.0180627	21.911672
204	1	5	0.095958648	2.5660613	-2.9110125	21.723067
205	1	5	0.095958648	1.1937481	-3.6908316	22.585378
206	2	2	0.46756139	-8.6179024	4.7271257	22.472247
207	2	6	-0.57171917	-8.7579883	4.2717728	23.595091
208	2	9	-0.082858676	-9.114499	6.3728922	22.125291
209	4	1	-0.0090804276	-1.6007553	1.5761798	44.158044
210	4	2	0.084596811	-1.2122609	1.5483498	45.497445
211	4	2	-0.25632158	-0.99536974	2.7066976	46.128729
212	4	3	0.22484818	-1.1279367	3.6436992	45.601355
213	4	2	-0.15974298	-0.58050085	2.7301319	47.543132
214	4	3	0.21073405	-0.47549271	3.7003807	47.999056
215	4	2	-0.21940251	-0.37156948	1.5813666	48.224085
216	4	4	0.026395168	0.025410132	1.5264049	49.721363
217	4	2	-0.21940248	-1.1601537	0.92091551	50.515345
218	4	2	-0.16103512	-2.4396553	1.2159676	50.188203
219	4	3	0.21073405	-2.6737683	1.8509576	49.345034
220	4	2	-0.22437751	-3.5699396	0.68805618	50.972865
221	4	3	0.22508733	-4.5812728	0.90705769	50.654668
222	4	2	0.30585179	-3.3561082	-0.051741025	52.064143
223	4	1	-0.41802761	-4.4564832	-0.53694487	52.772245
224	4	2	-0.097399184	-1.9607595	-0.32923799	52.50169
225	4	4	-0.13325787	-1.7004937	-1.1134203	53.759571
226	4	5	0.095958648	-2.1388808	-2.1290707	53.661611
227	4	5	0.095958648	-2.1651482	-0.59427433	54.623881
228	4	5	0.095958648	-0.61480838	-1.2254754	53.966578
229	4	2	-0.27355012	-0.93183112	0.14333376	51.773467
230	4	3	0.21120973	0.076102952	-0.030786088	52.121381
231	4	4	-0.12972045	1.3008125	0.61144302	49.886261
232	4	4	-0.12946835	2.3624367	0.69432579	48.762942
233	4	4	-0.12169744	3.6700958	0.036391803	49.19223
234	4	5	0.068448125	4.1050546	0.57574776	50.061582
235	4	5	0.068448125	3.4962967	-1.0253932	49.468267
236	4	5	0.068448125	4.3987977	0.072061076	48.354621
237	4	5	0.090302853	2.5751435	1.7381222	48.468585
238	4	5	0.090302853	1.9979849	0.16420809	47.857348
239	4	5	0.10566249	1.7911648	0.84064459	50.857661
240	4	5	0.10566249	0.98920253	-0.45543901	49.936679
241	4	4	-0.12972045	0.27375988	2.9271828	50.388729
242	4	4	-0.12946835	1.542279	3.6875851	49.956437
243	4	4	-0.12169744	1.5562821	5.1007998	50.533155
244	4	5	0.068448125	0.69053419	5.6825598	50.148957
245	4	5	0.068448125	1.5117562	5.0659354	51.642075
246	4	5	0.068448125	2.4915964	5.6177232	50.231031
247	4	5	0.090302853	1.6126382	3.7645515	48.852909
248	4	5	0.090302853	2.4430556	3.1580959	50.331989
249	4	5	0.10566249	0.35048036	2.7866635	51.490989
250	4	5	0.10566249	-0.62009849	3.5719548	50.237004
251	4	2	-0.27675888	-0.65453411	0.29461584	47.522113
252	4	3	0.2112097	-0.5460662	-0.63281934	48.070408
253	4	2	-0.085448274	-1.0425014	0.26673944	46.234601
254	4	4	-0.13639002	-1.3123916	-1.0462794	45.553438
255	4	5	0.095958648	-0.62970398	-1.1618921	44.68559
256	4	5	0.095958648	-1.1534845	-1.9101949	46.233935
257	4	5	0.095958648	-2.3644899	-1.0736207	45.201412
258	5	2	0.62805098	-4.3576173	-1.1221201	53.635924
259	5	6	-0.49624846	-3.4898251	-0.86202585	54.45315
260	1	1	-0.0090804276	-1.7799713	0.73471753	43.625484
261	1	2	0.084596811	-0.84071058	0.18601643	42.751102
262	1	2	-0.25632158	-1.1576229	-0.93000491	42.085102
263	1	3	0.22484818	-2.1290462	-1.3875757	42.224908
264	1	2	-0.15974298	-0.19816561	-1.5491028	41.151938
265	1	3	0.21073405	-0.5417707	-2.4168577	40.612824
266	1	2	-0.21940251	1.036536	-1.0272404	40.977417
267	1	4	0.026395168	2.0818871	-1.5997229	39.986466
268	1	2	-0.21940248	2.284814	-0.56750729	38.847586
269	1	2	-0.11865776	1.2430996	0.14544594	38.360303
270	1	3	0.21073405	0.24849196	0.045001397	38.774123
271	1	2	-0.38775739	1.4191088	1.0887547	37.242111
272	1	3	0.23007163	0.57261254	1.6755127	36.907484
273	1	2	0.28292724	2.6041858	1.2200177	36.641132
274	1	7	-0.63819981	2.7273357	2.1295737	35.590383
275	1	8	0.43595126	3.5974324	2.2758596	35.094299
276	1	2	-0.26869354	3.7551202	0.3929505	37.095567
277	1	4	-0.11922962	5.0833982	0.4873064	36.394887
278	1	5	0.095958648	5.4733679	1.5228533	36.47654
279	1	5	0.095958648	4.9584452	0.22417967	35.324036
280	1	5	0.095958648	5.8380044	-0.19981723	36.83384
281	1	2	-0.23590988	3.5915851	-0.45655815	38.128167
282	1	3	0.21120973	4.4231465	-1.0811528	38.424176
283	1	4	-0.12972045	3.444709	-1.8304013	40.7468
284	1	4	-0.12946835	3.3470957	-2.3308191	42.208193
285	1	4	-0.12169744	4.6990566	-2.8288625	42.711091
286	1	5	0.068448125	5.035223	-3.701969	42.111803
287	1	5	0.068448125	5.4582901	-2.0202226	42.640444
288	1	5	0.068448125	4.6101623	-3.1412526	43.77263
289	1	5	0.090302853	2.6109651	-3.1472609	42.3181
290	1	5	0.090302853	3.0229055	-1.5026965	42.871575
291	1	5	0.10566249	4.0701575	-2.5441227	40.166519
292	1	5	0.10566249	4.0153249	-0.87600961	40.78748
293	1	4	-0.12972045	1.6415114	-2.9171394	39.252131
294	1	4	-0.12946835	1.5721359	-4.1982302	40.104435
295	1	4	-0.12169744	0.95260499	-5.3474213	39.315477
296	1	5	0.068448125	-0.091688001	-5.0997278	39.029457
297	1	5	0.068448125	1.545643	-5.5517765	38.398134
298	1	5	0.068448125	0.93928282	-6.264698	39.940668
299	1	5	0.090302853	0.96838889	-4.043517	41.020049
300	1	5	0.090302853	2.59684	-4.5048523	40.403822
301	1	5	0.10566249	2.3648856	-3.1229635	38.430288
302	1	5	0.10566249	0.66470519	-2.7484113	38.746521
303	1	2	-0.27675888	1.3643903	0.23891316	41.695442
304	1	3	0.2112097	2.3295395	0.70123875	41.52334
305	1	2	-0.085448274	0.49116541	0.81557925	42.540088
306	1	4	-0.13639002	0.8552222	2.0876813	43.254649
307	1	5	0.095958648	0.82549303	1.9197148	44.351997
308	1	5	0.095958648	1.8746071	2.4399403	42.987191
309	1	5	0.095958648	0.13216264	2.8858364	42.984758
310	2	2	0.46756139	-5.026606	-1.9581705	53.804462
311	2	6	-0.57171917	-5.9484108	-2.1656054	53.033101
312	2	9	-0.082858676	-4.781801	-3.014888	55.182487
313	4	1	-0.0090804276	-1.8530636	-1.548006	69.487548
314	4	2	0.084596811	-0.88759424	-1.7520134	68.501673
315	4	2	-0.25632158	-0.24495932	-2.9237035	68.463039
316	4	3	0.22484818	-0.48231171	-3.6953578	69.185454
317	4	2	-0.15974298	0.78573195	-3.1867654	67.442414
318	4	3	0.21073405	1.2228785	-4.1712329	67.440823
319	4	2	-0.21940251	1.1333751	-2.2364222	66.546309
320	4	4	0.026395168	2.176898	-2.4528254	65.420839
321	4	2	-0.21940248	1.4352414	-2.4244596	64.060057
322	4	2	-0.16103512	0.20549201	-2.9731135	63.926277
323	4	3	0.21073405	-0.30982073	-3.4136567	64.768493
324	4	2	-0.22437751	-0.48188174	-2.9987746	62.622901
325	4	3	0.22508733	-1.4838739	-3.4042075	62.562553
326	4	2	0.30585179	0.11839349	-2.5295396	61.525906
327	4	1	-0.41802761	-0.57317731	-2.5670371	60.314304
328	4	2	-0.097399184	1.5034897	-1.9926281	61.619098
329	4	4	-0.13325787	2.2166852	-1.5113948	60.384306
330	4	5	0.095958648	1.6512474	-0.66863688	59.933347
331	4	5	0.095958648	2.2884987	-2.3406827	59.649749
332	4	5	0.095958648	3.2455996	-1.1561068	60.606177
333	4	2	-0.27355012	2.1215907	-1.9583397	62.814548
334	4	3	0.21120973	3.1406664	-1.602937	62.864212
335	4	4	-0.12972045	3.243019	-1.2901643	65.471861
336	4	4	-0.12946835	3.6510378	-0.78595143	66.877226
337	4	4	-0.12169744	4.9044364	0.080863004	66.808215
338	4	5	0.068448125	5.7657123	-0.51666765	66.438042
339	4	5	0.068448125	4.7395152	0.94587456	66.131202
340	4	5	0.068448125	5.1503055	0.46343253	67.821652
341	4	5	0.090302853	3.8388303	-1.6187845	67.579027
342	4	5	0.090302853	2.835423	-0.16808726	67.309621
343	4	5	0.10566249	4.1587622	-1.6107233	64.928489
344	4	5	0.10566249	2.8510472	-0.40197754	64.928388
345	4	4	-0.12972045	2.8966719	-3.8493663	65.449701
346	4	4	-0.12946835	3.9018274	-4.0894038	66.592624
347	4	4	-0.12169744	4.3762854	-5.5401345	66.608312
348	4	5	0.068448125	3.519126	-6.2241278	66.789982
349	4	5	0.068448125	4.8547646	-5.8005553	65.64077
350	4	5	0.068448125	5.1193315	-5.6808066	67.421575
351	4	5	0.090302853	3.4540929	-3.8621103	67.580815
352	4	5	0.090302853	4.7925137	-3.4418354	66.450744
353	4	5	0.10566249	3.4634671	-3.9763183	64.499315
354	4	5	0.10566249	2.132943	-4.6583388	65.445748
355	4	2	-0.27675888	0.38252278	-0.9464324	66.572936
356	4	3	0.2112097	0.61000348	-0.19566987	65.82652
357	4	2	-0.085448274	-0.56558049	-0.70379688	67.495546
358	4	4	-0.13639002	-1.2987834	0.60892172	67.500588
359	4	5	0.095958648	-1.1276897	1.1263719	68.467833
360	4	5	0.095958648	-0.95651929	1.2815578	66.685056
361	4	5	0.095958648	-2.385496	0.42878956	67.365722
362	5	2	0.62805098	-0.15940528	-2.215663	59.417936
363	5	6	-0.49624846	1.0170177	-2.4202471	59.167448
364	1	1	-0.0090804276	-2.3736021	-0.68421706	69.56944
365	1	2	0.084596811	-2.040343	0.30780418	70.492836
366	1	2	-0.25632158	-2.7808139	1.4210759	70.535522
367	1	3	0.22484818	-3.6237402	1.5376937	69.865854
368	1	2	-0.15974298	-2.4671194	2.4988052	71.491938
369	1	3	0.21073405	-3.1376203	3.342599	71.504049
370	1	2	-0.21940251	-1.4023069	2.405091	72.31939
371	1	4	0.026395168	-1.0346323	3.4782866	73.375584
372	1	2	-0.21940248	-1.2544771	2.866875	74.783257
373	1	2	-0.11865776	-2.2958747	2.0381815	75.027537
374	1	3	0.21073405	-2.9818198	1.7482964	74.242664
375	1	2	-0.38775739	-2.5414513	1.4963529	76.375602
376	1	3	0.23007163	-3.3578155	0.80058986	76.524865
377	1	2	0.28292724	-1.7733809	1.8582955	77.406077
378	1	7	-0.63819981	-2.0378529	1.3158913	78.664005
379	1	8	0.43595126	-1.4930045	1.549266	79.48452
380	1	2	-0.26869354	-0.66762229	2.8315455	77.193278
381	1	4	-0.11922962	0.17338836	3.2929415	78.352585
382	1	5	0.095958648	0.69162172	2.4223275	78.804875
383	1	5	0.095958648	-0.47516256	3.7723092	79.114923
384	1	5	0.095958648	0.94519652	4.0295811	78.04287
385	1	2	-0.23590988	-0.43879883	3.3116197	75.955602
386	1	3	0.21120973	0.34125749	4.0480067	75.81966
387	1	4	-0.12972045	0.48037098	3.8811569	73.199335
388	1	4	-0.12946835	1.0156414	3.9479895	71.748599
389	1	4	-0.12169744	2.3639002	4.6605103	71.691463
390	1	5	0.068448125	2.2570344	5.7146968	72.025737
391	1	5	0.068448125	3.1017668	4.1418797	72.341001
392	1	5	0.068448125	2.7439288	4.6566877	70.64843
393	1	5	0.090302853	0.31534606	4.4703892	71.072411
394	1	5	0.090302853	1.157048	2.9226196	71.349121
395	1	5	0.10566249	0.65618892	4.863873	73.689913
396	1	5	0.10566249	1.1258649	3.1466148	73.730284
397	1	4	-0.12972045	-1.9421032	4.7608074	73.355511
398	1	4	-0.12946835	-1.7743135	5.7125217	72.15613
399	1	4	-0.12169744	-2.8409918	6.8029041	72.169461
400	1	5	0.068448125	-3.8527009	6.3535414	72.078769
401	1	5	0.068448125	-2.7833406	7.389967	73.111271
402	1	5	0.068448125	-2.6821295	7.4907425	71.312677
403	1	5	0.090302853	-1.8488169	5.1688766	71.194
404	1	5	0.090302853	-0.78134601	6.2076032	72.206903
405	1	5	0.10566249	-1.7260564	5.361569	74.268456
406	1	5	0.10566249	-3.0089997	4.4589629	73.449759
407	1	2	-0.27675888	-0.60753993	1.1426831	72.289983
408	1	3	0.2112097	0.21535514	1.0280677	72.986104
409	1	2	-0.085448274	-0.89344596	0.15075573	71.428107
410	1	4	-0.13639002	-0.06794186	-1.1061552	71.41827
411	1	5	0.095958648	0.40002414	-1.2362339	70.419593
412	1	5	0.095958648	0.74249538	-1.0795523	72.17804
413	1	5	0.095958648	-0.71767383	-1.9795286	71.636846
414	2	2	0.46756139	-0.77620828	-1.6711303	58.712267
415	2	6	-0.57171917	-1.9710253	-1.5420248	58.920819
416	2	9	-0.082858676	-0.056725948	-0.97216898	57.273749
417	4	1	-0.0090804276	-0.9054769	1.0307532	88.884939
418	4	2	0.084596811	-0.2092794	-0.13322035	89.21078
419	4	2	-0.25632158	-0.50776619	-1.2641362	88.563273
420	4	3	0.22484818	-1.2738387	-1.263276	87.797244
421	4	2	-0.15974298	0.19749873	-2.5209589	88.873436
422	4	3	0.21073405	-0.05977768	-3.3788505	88.275015
423	4	2	-0.21940251	1.1346491	-2.5688698	89.8463
424	4	4	0.026395168	1.9453292	-3.8414761	90.200876
425	4	2	-0.21940248	3.4242265	-3.6003715	89.804243
426	4	2	-0.16103512	3.7405582	-2.91502	88.681109
427	4	3	0.21073405	2.9759608	-2.4858607	88.048522
428	4	2	-0.22437751	5.1432826	-2.7297229	88.26885
429	4	3	0.22508733	5.3610645	-2.1366157	87.389759
430	4	2	0.30585179	6.1381364	-3.2841788	88.966527
431	4	1	-0.41802761	7.451725	-3.076027	88.543662
432	4	2	-0.097399184	5.8238707	-4.1133301	90.162017
433	4	4	-0.13325787	6.9275928	-4.7919031	90.927707
434	4	5	0.095958648	7.6254169	-4.0272185	91.329732
435	4	5	0.095958648	7.4819852	-5.4765077	90.252122
436	4	5	0.095958648	6.5404247	-5.3876629	91.781693
437	4	2	-0.27355012	4.5418332	-4.267743	90.542625
438	4	3	0.21120973	4.3223182	-4.9032087	91.388373
439	4	4	-0.12972045	1.8453385	-4.1038173	91.753994
440	4	4	-0.12946835	0.48551835	-3.7895409	92.423234
441	4	4	-0.12169744	0.41045331	-4.38841	93.824255
442	4	5	0.068448125	0.47463745	-5.4970607	93.772864
443	4	5	0.068448125	1.2387755	-4.0014075	94.455049
444	4	5	0.068448125	-0.55615256	-4.1127188	94.297049
445	4	5	0.090302853	-0.36653014	-4.1719126	91.832297
446	4	5	0.090302853	0.35458496	-2.6904714	92.517318
447	4	5	0.10566249	2.1087118	-5.1638562	91.962678
448	4	5	0.10566249	2.6003301	-3.4829877	92.285443
449	4	4	-0.12972045	1.5280142	-5.131008	89.405772
450	4	4	-0.12946835	0.16453764	-5.7550152	89.760421
451	4	4	-0.12169744	-0.19365771	-6.8759421	88.788209
452	4	5	0.068448125	-0.28634561	-6.4755283	87.755422
453	4	5	0.068448125	0.5855009	-7.6668134	88.806495
454	4	5	0.068448125	-1.165221	-7.3272797	89.080888
455	4	5	0.090302853	-0.64677737	-5.0003315	89.730935
456	4	5	0.090302853	0.20551872	-6.1902515	90.781051
457	4	5	0.10566249	2.2925193	-5.9211035	89.584348
458	4	5	0.10566249	1.5722259	-4.921855	88.313969
459	4	2	-0.27675888	1.4883196	-1.2928815	90.535744
460	4	3	0.2112097	2.276271	-1.3029973	91.278414
461	4	2	-0.085448274	0.85526658	-0.14093823	90.250695
462	4	4	-0.13639002	1.2293935	1.1262566	90.968392
463	4	5	0.095958648	0.34597242	1.5187339	91.514393
464	4	5	0.095958648	2.045147	0.96366816	91.705133
465	4	5	0.095958648	1.5745313	1.8824371	90.233101
466	5	2	0.62805098	8.2767055	-3.4828942	89.045671
467	5	6	-0.49624846	8.2188745	-4.6149854	89.496886
468	1	1	-0.0090804276	-0.72619027	1.9174108	89.338252
469	1	2	0.084596811	-1.5267737	2.4072713	90.371175
470	1	2	-0.25632158	-1.2196412	3.5892688	90.917109
471	1	3	0.22484818	-0.36741658	4.1495692	90.553301
472	1	2	-0.15974298	-2.0335795	4.1478745	92.0126
473	1	3	0.21073405	-1.7567204	5.1271607	92.36764
474	1	2	-0.21940251	-3.0836459	3.4622482	92.517142
475	1	4	0.026395168	-4.0063317	4.0022521	93.639428
476	1	2	-0.21940248	-5.4085007	4.2605768	93.030422
477	1	2	-0.11865776	-5.5433674	4.7547735	91.778026
478	1	3	0.21073405	-4.6820427	4.9482186	91.152503
479	1	2	-0.38775739	-6.8711507	5.0529564	91.213009
480	1	3	0.23007163	-6.9438197	5.4051499	90.191493
481	1	2	0.28292724	-7.9751706	4.8974418	91.947699
482	1	7	-0.63819981	-9.2122063	5.1857164	91.370488
483	1	8	0.43595126	-10.085168	5.0883329	91.873501
484	1	2	-0.26869354	-7.8615141	4.4331575	93.35721
485	1	4	-0.11922962	-9.0895333	4.3046089	94.217223
486	1	5	0.095958648	-9.7825327	3.5645654	93.766459
487	1	5	0.095958648	-9.5976014	5.2885928	94.289427
488	1	5	0.095958648	-8.8460416	3.9650114	95.246609
489	1	2	-0.23590988	-6.6460461	4.1478044	93.86306
490	1	3	0.21120973	-6.5713755	3.8495728	94.899745
491	1	4	-0.12972045	-4.1128814	2.9242531	94.786236
492	1	4	-0.12946835	-2.8290992	2.1196956	95.10279
493	1	4	-0.12169744	-2.9620711	1.3682704	96.424315
494	1	5	0.068448125	-3.0874475	2.084895	97.264077
495	1	5	0.068448125	-3.8367343	0.68326098	96.39189
496	1	5	0.068448125	-2.0464332	0.76732588	96.605498
497	1	5	0.090302853	-1.9366912	2.7686215	95.157999
498	1	5	0.090302853	-2.6441828	1.3715141	94.304671
499	1	5	0.10566249	-4.4637446	3.4175526	95.719435
500	1	5	0.10566249	-4.8879652	2.1716478	94.519869
501	1	4	-0.12972045	-3.5737214	5.3890747	94.238041
502	1	4	-0.12946835	-2.3044943	5.4042402	95.110544
503	1	4	-0.12169744	-1.8993719	6.8321931	95.462311
504	1	5	0.068448125	-1.6574048	7.4024274	94.540361
505	1	5	0.068448125	-2.7214612	7.3454819	96.006073
506	1	5	0.068448125	-1.0001841	6.815315	96.113168
507	1	5	0.090302853	-1.4520193	4.9211522	94.594106
508	1	5	0.090302853	-2.4964487	4.8614797	96.060403
509	1	5	0.10566249	-4.4015513	5.772288	94.877497
510	1	5	0.10566249	-3.4729469	6.1307016	93.414575
511	1	2	-0.27675888	-3.4400516	2.163757	91.874423
512	1	3	0.2112097	-4.3128454	1.6281349	92.229693
513	1	2	-0.085448274	-2.7092192	1.6524356	90.86798
514	1	4	-0.13639002	-3.0904564	0.33713257	90.246679
515	1	5	0.095958648	-2.2578001	-0.38743901	90.368943
516	1	5	0.095958648	-3.9985898	-0.098769003	90.715773
517	1	5	0.095958648	-3.2961772	0.48236152	89.165339
518	2	2	0.46756139	9.1822191	-2.8988972	89.163669
519	2	6	-0.57171917	9.2721895	-1.8018914	88.63809
520	2	9	-0.082858676	10.515666	-3.5282443	90.113077
521	4	1	-0.0090804276	1.7658958	24.718485	-0.48914257
522	4	2	0.084596811	1.3253906	24.08191	0.67121301
523	4	2	-0.25632158	2.2126485	23.814436	1.6348316
524	4	3	0.22484818	3.2508361	24.097	1.5083682
525	4	2	-0.15974298	1.7972168	23.140647	2.8784666
526	4	3	0.21073405	2.5562864	23.005579	3.6306941
527	4	2	-0.21940251	0.51812043	22.742209	3.0578286
528	4	4	0.026395168	-0.00099084602	22.065832	4.3522361
529	4	2	-0.21940248	-0.98035665	23.043315	5.0507738
530	4	2	-0.16103512	-0.74641392	24.376141	5.0576958
531	4	3	0.21073405	0.10710786	24.801247	4.5480489
532	4	2	-0.22437751	-1.6437042	25.305556	5.7669116
533	4	3	0.22508733	-1.4514976	26.369556	5.7124439
534	4	2	0.30585179	-2.6826791	24.847367	6.4701214
535	4	1	-0.41802761	-3.5102538	25.764389	7.11962
536	4	2	-0.097399184	-2.924397	23.381016	6.5528012
537	4	4	-0.13325787	-4.0564979	22.843203	7.3858977
538	4	5	0.095958648	-5.0210763	23.234574	6.9989318
539	4	5	0.095958648	-3.9264081	23.163735	8.4407839
540	4	5	0.095958648	-4.1019188	21.73342	7.3649543
541	4	2	-0.27355012	-2.1102252	22.537138	5.891499
542	4	3	0.21120973	-2.2712792	21.473346	5.9899948
543	4	4	-0.12972045	-0.75679859	20.733064	3.9734474
544	4	4	-0.12946835	-0.16553076	19.910275	2.8033259
545	4	4	-0.12169744	-0.76916973	18.510119	2.755157
546	4	5	0.068448125	-0.51411415	17.949006	3.680341
547	4	5	0.068448125	-1.8737511	18.568567	2.6537975
548	4	5	0.068448125	-0.36016521	17.956797	1.8831379
549	4	5	0.090302853	0.93327394	19.816157	2.8752357
550	4	5	0.090302853	-0.39105023	20.409672	1.8370482
551	4	5	0.10566249	-0.81904135	20.080897	4.8720026