Title

75 atoms
74 bonds
137 angles
233 dihedrals
12 impropers

8 atom types
11 bond types
5 angle types
27 dihedral types
2 improper types
-10.85499954 89.14500046 xlo xhi
-1.827999949 98.17200005 ylo yhi
-3.845000029 96.15499997 zlo zhi
0.0 0.0 0.0 xy xz yz

Masses

1	15.99943
2	12.01078
3	1.007947
4	1.007947
5	12.01078
6	15.99943
7	15.99943
8	1.007947


Pair Coeffs

1	0.16846514	3.0251065
2	0.10884061	3.3795318
3	0.016409246	2.5832257
4	0.015779483	2.6445434
5	0.086879315	3.4806469
6	0.2102061	3.0398122
7	0.20947353	2.99716
8	1.2326e-05	0.53453923

Bond Coeffs

1 harmonic	366.7408841747	1.425895053732
2 harmonic	300.03137914615	1.451203938761
3 harmonic	264.62148576755	1.52190126495
4 harmonic	370.04670688625	1.093899492634
5 harmonic	301.15400723785	1.345741232799
6 harmonic	582.698766451	1.225198386222
7 harmonic	329.44145381095	1.523435958334
8 harmonic	279.1350963404	1.454628925034
9 harmonic	329.96998057905	1.427343958716
10 harmonic	543.5267831885	0.9716763312559
11 harmonic	385.7604595587	1.369745182308


Angle Coeffs

1 harmonic	53.20531626545	116.5475862634
2 harmonic	65.09061609600001	110.3538806181
3 harmonic	201.41175231035	127.4691416191
4 harmonic	57.8982893754	126.8062420451
5 harmonic	48.776492647595	115.6030999533


Dihedral Coeffs

1 fourier 1	0.1155372516788	3	0
2 fourier 1	0.1115525666802	3	0
3 fourier 1	0.3432490222662	1	0
4 fourier 1	0.0473758381877	3	0
5 fourier 1	0.457973137376	1	0
6 fourier 1	0.09223874044423	3	0
7 fourier 1	0.3159935921949	2	180
8 fourier 1	0.3247796806857	1	180
9 fourier 1	0.1040663847541	3	0
10 fourier 1	0.1918272375143	3	0
11 fourier 1	0.9202179876409	1	180
12 fourier 1	1.163809172478	2	180
13 fourier 1	0.1679186987369	1	180
14 fourier 1	2.779853741805	2	180
15 fourier 1	0.02664938770063	3	0
16 fourier 1	0.1911926717192	3	0
17 fourier 1	-0.3703352413219	2	0
18 fourier 1	0.4541676554336	1	0
19 fourier 1	0.1489710476446	2	0
20 fourier 1	0.02960027280666	3	180
21 fourier 1	0.9974165607242	2	180
22 fourier 1	0.3445382149273	3	0
23 fourier 1	0.1364556373303	1	0
24 fourier 1	0.3026390167484	3	0
25 fourier 1	2.687457892086	2	180
26 fourier 1	2.772607909663	2	180
27 fourier 1	0.09692684957115	1	0


Improper Coeffs

1 3.5	-1	2
2 0.3666666666666667	-1	2


Atoms

1	1	1	-0.17854001	-3.6329999	0.37200001	0.51899999
2	1	2	0.033280998	-2.4920001	0.52999997	-0.27900001
3	1	2	-0.14809	-1.2589999	-0.016000001	0.44600001
4	1	2	-0.14005101	0.0080000004	0.178	-0.396
5	1	2	-0.14185999	1.2410001	-0.37	0.33199999
6	1	2	0.13516	2.5079999	-0.178	-0.50599998
7	1	1	-0.494515	3.6170001	-0.713	0.163
8	1	3	0.079149999	2.671	0.903	-0.72000003
9	1	3	0.079149999	2.395	-0.70700002	-1.476
10	1	4	0.086097002	1.363	0.15700001	1.303
11	1	4	0.086097002	1.102	-1.455	0.53500003
12	1	4	0.083894998	-0.111	-0.352	-1.367
13	1	4	0.083894998	0.153	1.262	-0.59899998
14	1	4	0.087116003	-1.406	-1.099	0.65100002
15	1	4	0.087116003	-1.145	0.51499999	1.4170001
16	1	3	0.078768	-2.6289999	0.011	-1.255
17	1	3	0.078768	-2.3529999	1.613	-0.48300001
18	1	5	0.76172203	3.869	-0.035	0.91000003
19	1	6	-0.55483299	3.3540001	1.071	0.91500002
20	1	2	-0.208616	4.8270001	-0.44	1.993
21	1	2	-0.115977	6.2080002	0.211	1.824
22	1	2	-0.130817	6.2090001	1.702	2.1930001
23	1	2	-0.097687997	7.6259999	2.2839999	2.1240001
24	1	2	-0.257673	7.6269999	3.773	2.484
25	1	5	0.51703101	9.0089998	4.3460002	2.3929999
26	1	6	-0.68707001	9.8859997	3.9719999	3.155
27	1	4	0.113648	6.9640002	4.3260002	1.783
28	1	4	0.113648	7.2420001	3.9170001	3.517
29	1	4	0.076943003	8.2840004	1.733	2.8310001
30	1	4	0.076943003	8.0270004	2.155	1.094
31	1	4	0.074132003	5.8109999	1.8279999	3.224
32	1	4	0.074132003	5.5560002	2.2609999	1.49
33	1	4	0.085735999	6.5599999	0.078000002	0.77700001
34	1	4	0.085735999	6.921	-0.322	2.4890001
35	1	4	0.116901	4.3979998	-0.199	2.9890001
36	1	4	0.116901	4.9549999	-1.543	1.944
37	1	1	-0.17854001	-3.8870001	-0.58700001	0.46399999
38	1	2	0.033280998	-4.5960002	-0.745	-0.73400003
39	1	2	-0.14803401	-6.0190001	-0.199	-0.58399999
40	1	2	-0.134554	-6.8239999	-0.39300001	-1.874
41	1	2	-0.17001	-8.2480001	0.155	-1.722
42	1	2	0.086474001	-9.0539999	-0.037	-3.0079999
43	1	7	-0.684614	-10.341	0.498	-2.858
44	1	8	0.37799901	-10.855	-0.149	-2.3069999
45	1	3	0.069101997	-9.1140003	-1.118	-3.27
46	1	3	0.069101997	-8.5500002	0.49200001	-3.845
47	1	4	0.089469001	-8.7609997	-0.37200001	-0.88800001
48	1	4	0.089469001	-8.2049999	1.24	-1.479
49	1	4	0.084072001	-6.3130002	0.13699999	-2.7090001
50	1	4	0.084072001	-6.8720002	-1.477	-2.1199999
51	1	4	0.087116003	-5.9689999	0.884	-0.33700001
52	1	4	0.087116003	-6.5240002	-0.73000002	0.25299999
53	1	3	0.078768	-4.0669999	-0.226	-1.567
54	1	3	0.078768	-4.638	-1.8279999	-0.977
55	1	5	0.51703101	9.2320004	5.1110001	1.655
56	1	6	-0.68707001	9.177	6.2849998	1.98
57	1	2	-0.257673	9.6090002	4.7410002	0.249
58	1	2	-0.097687997	9.585	3.223	0.017999999
59	1	2	-0.130817	8.1549997	2.6619999	-0.0049999999
60	1	2	-0.11346	8.1630001	1.15	-0.27399999
61	1	2	-0.218713	6.7519999	0.54699999	-0.23999999
62	1	5	0.82386303	5.9190001	1.016	-1.393
63	1	6	-0.55628699	6.0739999	0.50400001	-2.5339999
64	1	7	-0.665438	4.9970002	2.0420001	-1.21
65	1	8	0.39418799	4.4359999	2.3800001	-1.983
66	1	4	0.117925	6.25	0.80599999	0.71700001
67	1	4	0.117925	6.8330002	-0.56099999	-0.285
68	1	4	0.085735999	8.6350002	0.94199997	-1.2589999
69	1	4	0.085735999	8.7729998	0.648	0.50800002
70	1	4	0.074132003	7.6599998	2.8570001	0.97100002
71	1	4	0.074132003	7.5770001	3.178	-0.80199999
72	1	4	0.076943003	10.069	3.013	-0.96100003
73	1	4	0.076943003	10.183	2.714	0.80599999
74	1	4	0.113648	10.636	5.1149998	0.052999999
75	1	4	0.113648	8.9209995	5.243	-0.465

Bonds

1	1	1	2
2	2	1	37
3	3	2	3
4	4	2	16
5	4	2	17
6	3	3	4
7	4	3	14
8	4	3	15
9	3	4	5
10	4	4	12
11	4	4	13
12	3	5	6
13	4	5	10
14	4	5	11
15	1	6	7
16	4	6	8
17	4	6	9
18	5	7	18
19	6	18	19
20	7	18	20
21	3	20	21
22	4	20	35
23	4	20	36
24	3	21	22
25	4	21	33
26	4	21	34
27	3	22	23
28	4	22	31
29	4	22	32
30	3	23	24
31	4	23	29
32	4	23	30
33	7	24	25
34	4	24	27
35	4	24	28
36	6	25	26
37	8	25	55
38	1	37	38
39	3	38	39
40	4	38	53
41	4	38	54
42	3	39	40
43	4	39	51
44	4	39	52
45	3	40	41
46	4	40	49
47	4	40	50
48	3	41	42
49	4	41	47
50	4	41	48
51	9	42	43
52	4	42	45
53	4	42	46
54	10	43	44
55	6	55	56
56	7	55	57
57	3	57	58
58	4	57	74
59	4	57	75
60	3	58	59
61	4	58	72
62	4	58	73
63	3	59	60
64	4	59	70
65	4	59	71
66	3	60	61
67	4	60	68
68	4	60	69
69	7	61	62
70	4	61	66
71	4	61	67
72	6	62	63
73	11	62	64
74	10	64	65

Angles

1	5	16	2	17
2	1	2	3	14
3	1	7	6	9
4	1	25	24	27
5	5	33	21	34
6	1	58	57	74
7	1	1	2	17
8	1	4	5	11
9	5	53	38	54
10	3	63	62	64
11	1	60	61	66
12	1	55	57	58
13	1	23	22	32
14	1	22	21	33
15	1	41	42	45
16	1	41	40	49
17	1	55	57	74
18	2	1	37	38
19	1	23	24	28
20	1	60	61	62
21	1	25	24	28
22	5	31	22	32
23	1	21	22	31
24	1	60	61	67
25	1	18	20	35
26	3	7	18	19
27	1	20	21	33
28	1	41	42	46
29	1	5	4	13
30	1	4	3	14
31	1	58	59	60
32	5	66	61	67
33	1	40	41	42
34	1	41	40	50
35	1	5	6	9
36	1	37	38	53
37	4	24	25	26
38	1	40	41	47
39	1	21	22	32
40	5	72	58	73
41	2	6	7	18
42	4	61	62	63
43	4	25	55	56
44	5	10	5	11
45	1	18	20	36
46	1	20	21	34
47	1	23	24	25
48	5	35	20	36
49	1	4	3	15
50	5	45	42	46
51	1	57	58	59
52	1	39	40	50
53	1	37	38	54
54	1	60	59	70
55	5	70	59	71
56	5	51	39	52
57	1	62	61	67
58	1	24	23	29
59	1	42	41	47
60	1	59	58	73
61	1	61	60	68
62	4	25	55	57
63	1	37	38	39
64	1	21	20	35
65	1	2	3	15
66	1	58	57	75
67	5	49	40	50
68	5	27	24	28
69	1	6	5	10
70	5	68	60	69
71	1	39	38	53
72	1	22	21	34
73	1	24	23	30
74	1	20	21	22
75	1	55	57	75
76	1	6	5	11
77	1	57	58	72
78	1	1	2	3
79	1	43	42	45
80	5	74	57	75
81	2	2	1	37
82	4	19	18	20
83	1	38	39	51
84	1	22	23	24
85	1	38	39	40
86	2	62	64	65
87	1	39	38	54
88	1	3	2	16
89	4	7	18	20
90	1	3	4	12
91	5	8	6	9
92	1	40	41	48
93	1	41	42	43
94	1	18	20	21
95	1	38	39	52
96	4	61	62	64
97	1	7	6	8
98	1	2	3	4
99	5	29	23	30
100	1	1	2	16
101	1	60	59	71
102	4	56	55	57
103	4	24	25	55
104	2	42	43	44
105	1	5	6	7
106	1	42	41	48
107	1	4	5	10
108	1	61	60	69
109	1	40	39	51
110	1	23	24	27
111	1	21	20	36
112	1	59	60	68
113	5	14	3	15
114	1	39	40	41
115	1	58	59	70
116	1	3	4	5
117	1	5	4	12
118	1	5	6	8
119	1	22	23	29
120	1	40	39	52
121	1	57	58	73
122	1	43	42	46
123	1	59	60	69
124	1	58	59	71
125	1	4	5	6
126	5	47	41	48
127	1	3	2	17
128	5	12	4	13
129	4	26	25	55
130	1	39	40	49
131	1	22	23	30
132	1	3	4	13
133	1	62	61	66
134	1	23	22	31
135	1	59	60	61
136	1	21	22	23
137	1	59	58	72

Dihedrals

1	9	22	21	20	36
2	16	32	22	21	34
3	15	25	55	57	58
4	16	73	58	57	75
5	18	19	18	20	35
5	19	19	18	20	35
5	20	19	18	20	35
6	9	58	59	60	69
7	14	6	7	18	20
8	9	22	23	24	28
9	15	25	55	57	74
10	16	49	40	39	51
11	18	63	62	61	66
11	19	63	62	61	66
11	20	63	62	61	66
12	6	3	4	5	6
12	7	3	4	5	6
12	8	3	4	5	6
13	9	4	5	6	9
14	25	61	62	64	65
15	1	55	57	58	73
16	10	5	6	7	18
16	11	5	6	7	18
17	16	30	23	22	32
18	16	69	60	59	70
19	1	18	20	21	33
20	16	68	60	59	70
21	9	39	40	41	47
22	16	11	5	4	12
23	15	28	24	25	55
24	16	34	21	20	35
25	16	51	39	38	54
26	16	50	40	39	52
27	16	33	21	20	35
28	16	52	39	38	53
29	16	12	4	3	14
30	4	9	6	7	18
31	15	25	55	57	75
32	9	41	40	39	51
33	16	49	40	39	52
34	18	63	62	61	67
34	19	63	62	61	67
34	20	63	62	61	67
35	1	62	61	60	68
36	1	40	41	42	43
37	1	25	24	23	29
38	15	64	62	61	66
39	21	24	25	55	56
40	4	8	6	7	18
41	16	31	22	21	34
42	9	60	59	58	73
43	16	27	24	23	29
44	18	26	25	24	27
44	19	26	25	24	27
44	20	26	25	24	27
45	9	3	4	5	11
46	1	22	23	24	25
47	16	47	41	40	50
48	9	61	60	59	70
49	16	68	60	59	71
50	21	26	25	55	56
51	16	11	5	4	13
52	16	34	21	20	36
53	15	7	18	20	36
54	16	13	4	3	14
55	16	52	39	38	54
56	9	41	40	39	52
57	1	62	61	60	69
58	16	45	42	41	47
59	9	21	22	23	29
60	1	25	24	23	30
61	21	24	25	55	57
62	9	59	60	61	66
63	9	6	5	4	13
64	15	7	18	20	21
65	16	72	58	57	74
66	9	57	58	59	70
67	9	61	60	59	71
68	9	4	3	2	17
69	15	23	24	25	55
70	9	23	22	21	33
71	1	59	60	61	62
72	4	16	2	1	37
73	16	8	6	5	10
74	2	1	2	3	15
74	3	1	2	3	15
75	4	3	2	1	37
76	16	45	42	41	48
77	9	40	39	38	53
78	1	18	20	21	22
79	17	56	55	57	58
80	18	19	18	20	36
80	19	19	18	20	36
80	20	19	18	20	36
81	16	29	23	22	31
82	6	38	39	40	41
82	7	38	39	40	41
82	8	38	39	40	41
83	18	56	55	57	74
83	19	56	55	57	74
83	20	56	55	57	74
84	4	17	2	1	37
85	16	70	59	58	72
86	6	20	21	22	23
86	7	20	21	22	23
86	8	20	21	22	23
87	16	15	3	2	16
88	17	19	18	20	21
89	16	69	60	59	71
90	1	18	20	21	34
91	16	67	61	60	68
92	17	60	61	62	63
93	9	39	40	41	48
94	2	43	42	41	47
94	3	43	42	41	47
95	16	29	23	22	32
96	16	33	21	20	36
97	9	59	58	57	74
98	16	12	4	3	15
99	1	55	57	58	59
100	16	28	24	23	29
101	2	7	6	5	10
101	3	7	6	5	10
102	16	10	5	4	12
103	15	64	62	61	67
104	2	37	38	39	51
104	3	37	38	39	51
105	16	70	59	58	73
106	5	2	1	37	38
107	16	27	24	23	30
108	16	15	3	2	17
109	18	26	25	24	28
109	19	26	25	24	28
109	20	26	25	24	28
110	1	37	38	39	40
111	21	26	25	55	57
112	1	4	5	6	7
113	9	20	21	22	31
114	16	46	42	41	47
115	16	13	4	3	15
116	9	24	23	22	31
117	16	14	3	2	16
118	9	59	58	57	75
119	26	63	62	64	65
119	27	63	62	64	65
120	1	1	2	3	4
121	9	42	41	40	49
122	9	40	41	42	45
123	9	2	3	4	12
124	16	10	5	4	13
125	9	21	22	23	30
126	9	5	4	3	14
127	9	59	60	61	67
128	16	73	58	57	74
129	16	8	6	5	11
130	9	58	59	60	68
131	12	6	7	18	19
131	13	6	7	18	19
132	9	22	23	24	27
133	16	72	58	57	75
134	9	57	58	59	71
135	9	20	21	22	32
136	22	41	42	43	44
136	23	41	42	43	44
137	16	71	59	58	72
138	9	23	22	21	34
139	1	55	57	58	72
140	16	30	23	22	31
141	9	40	41	42	46
142	9	40	39	38	54
143	9	5	4	3	15
144	16	51	39	38	53
145	16	50	40	39	51
146	4	1	37	38	53
147	18	56	55	57	75
147	19	56	55	57	75
147	20	56	55	57	75
148	16	71	59	58	73
149	16	31	22	21	33
150	15	27	24	25	55
151	6	39	40	41	42
151	7	39	40	41	42
151	8	39	40	41	42
152	16	48	41	40	49
153	9	60	59	58	72
154	16	9	6	5	10
155	9	38	39	40	49
156	16	47	41	40	49
157	16	67	61	60	69
158	2	7	6	5	11
158	3	7	6	5	11
159	15	60	61	62	64
160	17	23	24	25	26
161	6	2	3	4	5
161	7	2	3	4	5
161	8	2	3	4	5
162	15	7	18	20	35
163	16	9	6	5	11
164	2	43	42	41	48
164	3	43	42	41	48
165	24	44	43	42	45
166	4	1	37	38	54
167	16	28	24	23	30
168	9	3	4	5	10
169	6	58	59	60	61
169	7	58	59	60	61
169	8	58	59	60	61
170	16	66	61	60	68
171	9	22	21	20	35
172	16	32	22	21	33
173	2	37	38	39	52
173	3	37	38	39	52
174	16	48	41	40	50
175	9	6	5	4	12
176	9	38	39	40	50
177	9	4	3	2	16
178	9	4	5	6	8
179	4	1	37	38	39
180	6	21	22	23	24
180	7	21	22	23	24
180	8	21	22	23	24
181	6	57	58	59	60
181	7	57	58	59	60
181	8	57	58	59	60
182	16	46	42	41	48
183	9	24	23	22	32
184	16	14	3	2	17
185	2	1	2	3	14
185	3	1	2	3	14
186	24	44	43	42	46
187	9	42	41	40	50
188	16	66	61	60	69
189	9	2	3	4	13

Impropers

125	2	25	26	55	24
149	1	18	19	20	7
182	1	62	64	61	63
203	1	62	63	64	61
229	2	25	55	24	26
282	2	55	57	25	56
293	2	55	25	56	57
371	2	55	56	57	25
441	1	62	61	63	64
474	1	18	7	19	20
482	1	18	20	7	19
501	2	25	24	26	55
