Title

603 atoms
638 bonds
1049 angles
1725 dihedrals
723 impropers

14 atom types
21 bond types
14 angle types
32 dihedral types
4 improper types
-16.28700066 83.71299934 xlo xhi
-46.31399918 53.68600082 ylo yhi
-2.755000114 97.24499989 zlo zhi
0.0 0.0 0.0 xy xz yz

Masses

1	12.01078
2	15.99943
3	14.00672
4	12.01078
5	1.007947
6	1.007947
7	1.007947
8	15.99943
9	1.007947
10	1.007947
11	32.0655
12	15.99943
13	1.007947
14	12.01078


Pair Coeffs

1	0.086879315	3.4806469
2	0.2102061	3.0398122
3	0.16769152	3.206876
4	0.10884061	3.3795318
5	0.014090815	1.1034277
6	0.015611343	2.5725815
7	0.015779483	2.6445434
8	0.16846514	3.0251065
9	0.016409246	2.5832257
10	0.013106998	2.4536265
11	0.25	3.5635949
12	0.20947353	2.99716
13	1.2326e-05	0.53453923
14	0.21	3.3996695

Bond Coeffs

1 harmonic	582.698766451	1.225198386222
2 harmonic	492.76746816345	1.381897776683
3 harmonic	301.15400723785	1.345741232799
4 harmonic	390.03554688505	1.390160554689
5 harmonic	505.144496193	1.019481865027
6 harmonic	360.7852444772	1.387193227181
7 harmonic	397.2545789619	1.085358495916
8 harmonic	289.73813263395	1.498646816465
9 harmonic	370.04670688625	1.093899492634
10 harmonic	366.7408841747	1.425895053732
11 harmonic	264.62148576755	1.52190126495
12 harmonic	366.34047229585	1.464762957261
13 harmonic	382.5450169811	1.379244394267
14 harmonic	348.97035351175	1.269478323505
15 harmonic	505.481965552	1.304826179986
16 harmonic	269.77177796395	1.760180899642
17 harmonic	399.1592953295	1.371688562017
18 harmonic	372.4035439944	1.232679236105
19 harmonic	329.96998057905	1.427343958716
20 harmonic	543.5267831885	0.9716763312559
21 harmonic	602.81384337	1.196112346392


Angle Coeffs

1 harmonic	55.42182150775	117.3465570514
2 harmonic	63.44422595415	115.5071327674
3 harmonic	65.09061609600001	110.3538806181
4 harmonic	57.8982893754	126.8062420451
5 harmonic	201.41175231035	127.4691416191
6 harmonic	34.066775159195	129.1835929926
7 harmonic	53.20531626545	116.5475862634
8 harmonic	48.776492647595	115.6030999533
9 harmonic	55.07882548015	112.8714009681
10 harmonic	39.628116874445	129.8027304608
11 harmonic	69.69889658545	99.48379054672
12 harmonic	107.84088791495	142.3689202335
13 harmonic	120.90294336835	147.5178960933
14 harmonic	33.56981613361	180


Dihedral Coeffs

1 fourier 1	1.193093382682	2	180
2 fourier 1	0.0473758381877	3	0
3 fourier 1	0.1918272375143	3	0
4 fourier 1	0.9202179876409	1	180
5 fourier 1	1.809047390003	2	180
6 fourier 1	-0.04816277792592	1	0
7 fourier 1	0.4860993122944	2	180
8 fourier 1	0.8916986138746	1	0
9 fourier 1	1.163809172478	2	180
10 fourier 1	0.1679186987369	1	180
11 fourier 1	2.779853741805	2	180
12 fourier 1	3.661930099076	2	180
13 fourier 1	0.02664938770063	3	0
14 fourier 1	0.1115525666802	3	0
15 fourier 1	0.3432490222662	1	0
16 fourier 1	0.1155372516788	3	0
17 fourier 1	0.182238503271	2	0
18 fourier 1	0.02972342374561	3	0
19 fourier 1	0.1911926717192	3	0
20 fourier 1	1.967256984661	2	180
21 fourier 1	7.284364008625	2	180
22 fourier 1	1.550515418264	2	180
23 fourier 1	1.762818220514	2	180
24 fourier 1	6.736762477654	2	180
25 fourier 1	0.5052027266741	2	180
26 fourier 1	3.724727790249	2	180
27 fourier 1	5.294842998052	2	180
28 fourier 1	0.7964037000224	2	180
29 fourier 1	0.3445382149273	3	0
30 fourier 1	0.1364556373303	1	0
31 fourier 1	0.3026390167484	3	0
32 fourier 1	0	1	0


Improper Coeffs

1 0.3333333333333333	-1	2
2 3.5	-1	2
3 0.3666666666666667	-1	2
4 3.5	-1	2


Atoms

1	1	1	0.81826901	-5.7150002	-0.498	1.609
2	1	2	-0.55314898	-5.9759998	-1.04	0.50300002
3	1	3	-0.47046301	-4.5219998	0.27399999	1.798
4	1	1	0.228865	-3.4389999	0.33899999	0.85399997
5	1	1	-0.36785299	-2.694	1.523	0.74400002
6	1	1	-0.14273299	-1.622	1.607	-0.149
7	1	1	-0.245728	-1.273	0.50300002	-0.94099998
8	1	4	-0.050834998	-0.093999997	0.57999998	-1.873
9	1	1	-0.245728	1.164	0.171	-1.155
10	1	1	-0.14273299	1.924	1.123	-0.45899999
11	1	1	-0.36785299	3.072	0.73799998	0.23899999
12	1	1	0.228865	3.4820001	-0.60699999	0.24699999
13	1	3	-0.47046301	4.645	-1.035	0.977
14	1	1	0.81826901	5.836	-0.25299999	1.133
15	1	2	-0.55314898	6.013	0.80800003	0.477
16	1	1	-0.36785299	2.701	-1.562	-0.41999999
17	1	1	-0.14273299	1.553	-1.177	-1.119
18	1	1	-0.14273299	-1.993	-0.69400001	-0.80699998
19	1	1	-0.36785299	-3.066	-0.77700001	0.085000001
20	1	5	0.32505199	-4.487	0.89499998	2.638
21	1	6	0.216199	-2.951	2.385	1.347
22	1	6	0.214442	-1.062	2.5309999	-0.219
23	1	7	0.12573899	-0.25999999	-0.077	-2.7550001
24	1	7	0.12573899	0.012	1.613	-2.2709999
25	1	6	0.214442	1.62	2.1630001	-0.447
26	1	6	0.216199	3.619	1.488	0.79500002
27	1	5	0.32505199	4.6680002	-2.0109999	1.347
28	1	6	0.216199	2.987	-2.6059999	-0.40400001
29	1	6	0.214442	0.96499997	-1.9299999	-1.628
30	1	6	0.214442	-1.716	-1.567	-1.386
31	1	6	0.216199	-3.5810001	-1.722	0.192
32	1	8	-0.49144101	6.585	-0.58499998	1.7690001
33	1	4	0.123764	6.349	-1.949	1.987
34	1	9	0.102241	6.1570001	-2.467	1.021
35	1	9	0.102241	7.2579999	-2.4030001	2.4360001
36	1	4	0.15530799	5.1570001	-2.1489999	2.927
37	1	9	0.089850001	4.9920001	-3.2349999	3.0869999
38	1	9	0.089850001	4.2410002	-1.76	2.4330001
39	1	3	-0.65714997	5.388	-1.477	4.2140002
40	1	1	0.213393	6.4060001	-1.97	5.1079998
41	1	1	-0.389763	6.3769999	-3.303	5.5500002
42	1	6	0.20502099	5.5809999	-3.967	5.2410002
43	1	1	-0.040150002	7.3639998	-3.7809999	6.4159999
44	1	6	0.20832901	7.3260002	-4.8099999	6.7529998
45	1	1	0.077936001	8.3929996	-2.9389999	6.8530002
46	1	3	-0.18972699	9.3879995	-3.4619999	7.7410002
47	1	3	-0.088795997	10.335	-2.744	8.1940002
48	1	1	0.17013	11.313	-3.2920001	9.0760002
49	1	3	-0.48587301	11.318	-4.5830002	9.4799995
50	1	1	0.146438	12.359	-4.8379998	10.317
51	1	10	0.15153	12.525	-5.8189998	10.742
52	1	1	-0.061296001	13.175	-3.74	10.569
53	1	3	0.45381799	14.334	-3.737	11.407
54	1	2	-0.14294299	14.697	-4.7789998	11.991
55	1	2	-0.167211	15.064	-2.582	11.57
56	1	11	0.149422	12.587	-2.4059999	9.7270002
57	1	1	-0.040150002	8.4259996	-1.605	6.4099998
58	1	6	0.20832901	9.2150002	-0.935	6.7280002
59	1	1	-0.389763	7.4380002	-1.126	5.5450001
60	1	6	0.20502099	7.4910002	-0.101	5.1999998
61	1	4	0.15530799	4.5900002	-0.30199999	4.592
62	1	9	0.089850001	5.2579999	0.537	4.8800001
63	1	9	0.089850001	3.98	0.054000001	3.734
64	1	4	0.123764	3.655	-0.64200002	5.7540002
65	1	9	0.102241	4.244	-0.95300001	6.6479998
66	1	9	0.102241	3.0020001	-1.4910001	5.461
67	1	8	-0.49144101	2.846	0.458	6.066
68	1	1	0.81826901	3.4430001	1.128	6.586
69	1	2	-0.55314898	4.1999998	1.903	5.9439998
70	1	3	-0.47046301	3.3540001	1.189	8.0150003
71	1	1	0.228864	4.2329998	1.961	8.8520002
72	1	1	-0.36785299	3.7390001	2.5109999	10.044
73	1	1	-0.14273299	4.5760002	3.247	10.887
74	1	1	-0.245728	5.9250002	3.4389999	10.553
75	1	4	-0.050834998	6.8369999	4.1960001	11.48
76	1	1	-0.245728	7.4559999	3.26	12.482
77	1	1	-0.14273299	6.803	2.9860001	13.693
78	1	1	-0.36785299	7.3590002	2.0869999	14.609
79	1	1	0.228865	8.5819998	1.452	14.328
80	1	3	-0.47046301	9.165	0.505	15.24
81	1	1	0.81826901	9.0810003	0.60000002	16.667999
82	1	2	-0.55314898	8.6370001	1.635	17.23
83	1	1	-0.36785299	9.2139997	1.701	13.101
84	1	1	-0.14273299	8.658	2.5999999	12.186
85	1	1	-0.14273299	6.4320002	2.8599999	9.3789997
86	1	1	-0.36785299	5.5939999	2.125	8.5360003
87	1	5	0.32505199	2.5409999	0.70700002	8.46
88	1	6	0.216199	2.7	2.3740001	10.316
89	1	6	0.214442	4.1739998	3.664	11.802
90	1	7	0.12573899	7.631	4.7119999	10.898
91	1	7	0.12573899	6.2690001	4.9959998	12.005
92	1	6	0.214442	5.8569999	3.4590001	13.924
93	1	6	0.216199	6.8169999	1.87	15.519
94	1	5	0.32505199	9.7639999	-0.257	14.85
95	1	6	0.216199	10.144	1.202	12.856
96	1	6	0.214442	9.1639996	2.779	11.245
97	1	6	0.214442	7.4780002	2.9690001	9.1230001
98	1	6	0.216199	6.0190001	1.661	7.6560001
99	1	8	-0.49144101	9.4289999	-0.184	17.252001
100	1	4	0.123764	10.263	-0.95599997	16.431999
101	1	9	0.102241	10.975	-0.30199999	15.88
102	1	9	0.102241	10.861	-1.64	17.07
103	1	4	0.15530799	9.4359999	-1.774	15.436
104	1	9	0.089850001	10.116	-2.3789999	14.801
105	1	9	0.089850001	8.9020004	-1.077	14.754
106	1	3	-0.65714997	8.4879999	-2.651	16.141001
107	1	1	0.213393	8.9809999	-3.76	16.917999
108	1	1	-0.389763	9.7950001	-4.7379999	16.325001
109	1	6	0.20502099	10.046	-4.6789999	15.274
110	1	1	-0.040150002	10.274	-5.8119998	17.08
111	1	6	0.20832901	10.896	-6.5609999	16.607
112	1	1	0.077936001	9.9460001	-5.927	18.436001
113	1	3	-0.18972699	10.452	-7.0419998	19.18
114	1	3	-0.088795997	10.173	-7.2189999	20.408001
115	1	1	0.17013	10.692	-8.3380003	21.124001
116	1	3	-0.48587301	11.508	-9.2670002	20.573999
117	1	1	0.146438	11.854	-10.222	21.476999
118	1	10	0.15153	12.503	-11.048	21.216999
119	1	1	-0.061296001	11.306	-10.041	22.743
120	1	3	0.45381799	11.512	-10.895	23.872
121	1	2	-0.14294299	12.235	-11.907	23.777
122	1	2	-0.167211	10.917	-10.601	25.076
123	1	11	0.149422	10.36	-8.6479998	22.743999
124	1	1	-0.040150002	9.1309996	-4.9489999	19.033001
125	1	6	0.20832901	8.8699999	-5.0120001	20.082001
126	1	1	-0.389763	8.6529999	-3.875	18.278
127	1	6	0.20502099	8.0430002	-3.122	18.761
128	1	4	0.15530799	7.0419998	-2.4000001	16.059
129	1	9	0.089850001	6.605	-2.3499999	17.077999
130	1	9	0.089850001	6.8379998	-1.42	15.574
131	1	4	0.123764	6.3540001	-3.5020001	15.252
132	1	9	0.102241	6.4980001	-4.4910002	15.744
133	1	9	0.102241	6.8080001	-3.552	14.24
134	1	8	-0.49144101	4.987	-3.2219999	15.115
135	1	1	0.81826901	4.546	-3.4489999	16.025999
136	1	2	-0.55314898	4.5949998	-2.6040001	16.959
137	1	3	-0.47046301	3.849	-4.691	16.183001
138	1	1	0.228864	3.332	-5.1810002	17.431999
139	1	1	-0.36785299	2.165	-5.96	17.434999
140	1	1	-0.14273299	1.653	-6.467	18.632
141	1	1	-0.245728	2.3050001	-6.2090001	19.847
142	1	4	-0.050834998	1.776	-6.789	21.131001
143	1	1	-0.245728	2.3670001	-8.1520004	21.368999
144	1	1	-0.14273299	1.744	-9.2950001	20.844999
145	1	1	-0.36785299	2.3110001	-10.558	21.034
146	1	1	0.228865	3.51	-10.699	21.754999
147	1	3	-0.47046301	4.1290002	-11.983	21.943001
148	1	1	0.81826901	3.4100001	-13.21	22.120001
149	1	2	-0.55314898	2.164	-13.218	22.305
150	1	1	-0.36785299	4.1490002	-9.5500002	22.246
151	1	1	-0.14273299	3.582	-8.2869997	22.058001
152	1	1	-0.14273299	3.4920001	-5.46	19.844
153	1	1	-0.36785299	4.0029998	-4.9520001	18.646999
154	1	5	0.32505199	3.631	-5.2259998	15.312
155	1	6	0.216199	1.648	-6.1680002	16.506001
156	1	6	0.214442	0.75	-7.0650001	18.611
157	1	7	0.12573899	2.017	-6.1139998	21.983
158	1	7	0.12573899	0.667	-6.855	21.091999
159	1	6	0.214442	0.82300001	-9.2060003	20.281
160	1	6	0.216199	1.827	-11.418	20.59
161	1	5	0.32505199	5.1680002	-12.024	22.046
162	1	6	0.216199	5.086	-9.6370001	22.782
163	1	6	0.214442	4.0910001	-7.414	22.447001
164	1	6	0.214442	4.027	-5.2789998	20.768
165	1	6	0.216199	4.9380002	-4.4070001	18.67
166	1	8	-0.49144101	3.9289999	-14.108	22.134001
167	1	4	0.123764	5.2729998	-13.791	22.375
168	1	9	0.102241	5.355	-13.076	23.225
169	1	9	0.102241	5.8150001	-14.717	22.662001
170	1	4	0.15530799	5.9169998	-13.184	21.125999
171	1	9	0.089850001	6.98	-12.944	21.339001
172	1	9	0.089850001	5.4159999	-12.219	20.895
173	1	3	-0.65714997	5.8260002	-14.111	19.988001
174	1	1	0.213393	6.5819998	-15.339	20.000999
175	1	1	-0.389763	7.9770002	-15.312	20.16
176	1	6	0.20502099	8.5	-14.37	20.254999
177	1	1	-0.040150002	8.7089996	-16.503	20.174
178	1	6	0.20832901	9.7849998	-16.466	20.292999
179	1	1	0.077936001	8.0609999	-17.735001	20.030001
180	1	3	-0.18972699	8.842	-18.936001	20.048
181	1	3	-0.088795997	8.3199997	-20.086	19.896999
182	1	1	0.17013	9.1219997	-21.264999	19.921
183	1	3	-0.48587301	10.461	-21.256001	20.110001
184	1	1	0.146438	10.976	-22.514	20.087
185	1	10	0.15153	12.032	-22.704	20.223
186	1	1	-0.061296001	10.033	-23.514999	19.879
187	1	3	0.45381799	10.305	-24.917999	19.815001
188	1	2	-0.14294299	11.47	-25.344	19.950001
189	1	2	-0.167211	9.2790003	-25.811001	19.610001
190	1	11	0.149422	8.5080004	-22.818001	19.716999
191	1	1	-0.040150002	6.664	-17.764999	19.872
192	1	6	0.20832901	6.1389999	-18.705	19.764999
193	1	1	-0.389763	5.9320002	-16.573999	19.857
194	1	6	0.20502099	4.8559999	-16.618999	19.754
195	1	4	0.15530799	4.9650002	-13.795	18.839001
196	1	9	0.089850001	4.2810001	-14.644	18.629
197	1	9	0.089850001	4.3239999	-12.913	19.056999
198	1	4	0.123764	5.8140001	-13.494	17.601999
199	1	9	0.102241	6.4299998	-14.381	17.329
200	1	9	0.102241	6.5040002	-12.653	17.827999
201	1	8	-0.49144101	4.994	-13.123	16.528
202	1	1	0.81826901	4.5640001	-13.997	16.169001
203	1	2	-0.55314898	3.5469999	-14.464	16.746
204	1	3	-0.47046301	5.1069999	-14.618	14.996
205	1	1	0.228864	4.698	-15.902	14.494
206	1	1	-0.36785299	4.723	-16.139	13.112
207	1	1	-0.14273299	4.3530002	-17.385	12.598
208	1	1	-0.245728	3.9560001	-18.417	13.461
209	1	4	-0.050834998	3.596	-19.771	12.912
210	1	1	-0.245728	4.823	-20.636	12.812
211	1	1	-0.14273299	5.6149998	-20.612	11.654
212	1	1	-0.36785299	6.7750001	-21.388	11.574
213	1	1	0.228865	7.1599998	-22.204	12.653
214	1	3	-0.47046301	8.3620005	-22.992001	12.609
215	1	1	0.81826901	8.8730001	-23.624001	11.427
216	1	2	-0.55314898	8.1929998	-23.677999	10.368
217	1	1	-0.36785299	6.3860002	-22.198	13.823
218	1	1	-0.14273299	5.2249999	-21.423	13.902
219	1	1	-0.14273299	3.964	-18.195	14.847
220	1	1	-0.36785299	4.3340001	-16.948999	15.361
221	1	5	0.32505199	5.7789998	-14.054	14.429
222	1	6	0.216199	5.0250001	-15.353	12.431
223	1	6	0.214442	4.3779998	-17.545	11.527
224	1	7	0.12573899	2.8369999	-20.257999	13.562
225	1	7	0.12573899	3.1229999	-19.663	11.911
226	1	6	0.214442	5.3390002	-19.985001	10.815
227	1	6	0.216199	7.3839998	-21.323999	10.683
228	1	5	0.32505199	8.8549995	-23.198	13.507
229	1	6	0.216199	6.6799998	-22.799999	14.673
230	1	6	0.214442	4.6409998	-21.434	14.814
231	1	6	0.214442	3.694	-18.990999	15.53
232	1	6	0.216199	4.3639998	-16.816	16.434
233	1	8	-0.49144101	9.8050003	-24.077999	11.454
234	1	4	0.123764	10.114	-24.277	12.807
235	1	9	0.102241	9.2469997	-24.731001	13.339
236	1	9	0.102241	10.963	-24.99	12.88
237	1	4	0.15530799	10.495	-22.954	13.475
238	1	9	0.089850001	10.739	-23.136999	14.543
239	1	9	0.089850001	9.6129999	-22.278	13.464
240	1	3	-0.65714997	11.643	-22.336	12.793
241	1	1	0.213393	12.941	-22.955	12.87
242	1	1	-0.389763	13.532	-23.215	14.117
243	1	6	0.20502099	13.028	-22.934	15.032
244	1	1	-0.040150002	14.792	-23.816999	14.19
245	1	6	0.20832901	15.237	-24.004999	15.159
246	1	1	0.077936001	15.478	-24.169001	13.023
247	1	3	-0.18972699	16.767	-24.784	13.134
248	1	3	-0.088795997	17.454	-25.106001	12.114
249	1	1	0.17013	18.735001	-25.718	12.254
250	1	3	-0.48587301	19.299999	-26.007	13.449
251	1	1	0.146438	20.52	-26.586	13.297
252	1	10	0.15153	21.122	-26.886999	14.143
253	1	1	-0.061296001	20.913	-26.753	11.973
254	1	3	0.45381799	22.143999	-27.336	11.535
255	1	2	-0.14294299	22.979	-27.75	12.365
256	1	2	-0.167211	22.413	-27.450001	10.191
257	1	11	0.149422	19.708	-26.162001	10.956
258	1	1	-0.040150002	14.888	-23.912001	11.772
259	1	6	0.20832901	15.396	-24.181	10.855
260	1	1	-0.389763	13.629	-23.309	11.698
261	1	6	0.20502099	13.183	-23.138	10.728
262	1	4	0.15530799	11.47	-21.09	12.031
263	1	9	0.089850001	11.874	-21.212	11.004
264	1	9	0.089850001	10.392	-20.839001	11.923
265	1	4	0.123764	12.179	-19.931	12.733
266	1	9	0.102241	13.272	-20.132999	12.809
267	1	9	0.102241	11.777	-19.827999	13.764
268	1	8	-0.49144101	11.953	-18.733	12.042
269	1	1	0.81826901	12.563	-18.754999	11.204
270	1	2	-0.55314898	12.18	-19.382999	10.181
271	1	3	-0.47046301	13.8	-18.030001	11.212
272	1	1	0.228864	14.794	-18.108	10.176
273	1	1	-0.36785299	15.575	-16.978001	9.8870001
274	1	1	-0.14273299	16.563	-17.032	8.901
275	1	1	-0.245728	16.792	-18.219999	8.191
276	1	4	-0.050834998	17.882999	-18.290001	7.1570001
277	1	1	-0.245728	19.183001	-18.693001	7.7989998
278	1	1	-0.14273299	20.042	-17.719999	8.3310003
279	1	1	-0.36785299	21.233	-18.097	8.96
280	1	1	0.228865	21.584	-19.455	9.0620003
281	1	3	-0.47046301	22.790001	-19.871	9.7259998
282	1	1	0.81826901	24.023001	-19.139	9.7010002
283	1	2	-0.55314898	24.183001	-18.153999	8.9329996
284	1	1	-0.36785299	20.705999	-20.426001	8.5609999
285	1	1	-0.14273299	19.516001	-20.049999	7.9310002
286	1	1	-0.14273299	16.037001	-19.362	8.5019999
287	1	1	-0.36785299	15.048	-19.308001	9.4879999
288	1	5	0.32505199	13.938	-17.337	11.982
289	1	6	0.216199	15.411	-16.052	10.424
290	1	6	0.214442	17.153	-16.148001	8.6929998
291	1	7	0.12573899	17.608999	-19.014999	6.3600001
292	1	7	0.12573899	17.996	-17.304001	6.6539998
293	1	6	0.214442	19.785	-16.67	8.2690001
294	1	6	0.216199	21.858999	-17.327	9.3909998
295	1	5	0.32505199	22.806	-20.809999	10.185
296	1	6	0.216199	20.948	-21.478001	8.6520004
297	1	6	0.214442	18.853001	-20.816999	7.5500002
298	1	6	0.214442	16.223	-20.297001	7.9879999
299	1	6	0.216199	14.505	-20.211	9.7299995
300	1	8	-0.49144101	24.812	-19.448999	10.299
301	1	4	0.123764	24.540001	-20.774	10.668
302	1	9	0.102241	24.238001	-21.368	9.776
303	1	9	0.102241	25.466	-21.23	11.077
304	1	4	0.15530799	23.431	-20.825001	11.722
305	1	9	0.089850001	23.236	-21.882	12.001
306	1	9	0.089850001	22.490999	-20.437	11.275
307	1	3	-0.65714997	23.808001	-20.049999	12.914
308	1	1	0.213393	24.879999	-20.509001	13.759
309	1	1	-0.389763	24.836	-21.792	14.329
310	1	6	0.20502099	23.988001	-22.440001	14.155
311	1	1	-0.040150002	25.878	-22.238001	15.147
312	1	6	0.20832901	25.827	-23.228001	15.584
313	1	1	0.077936001	26.976999	-21.412001	15.409
314	1	3	-0.18972699	28.025999	-21.900999	16.254
315	1	3	-0.088795997	29.040001	-21.193001	16.551001
316	1	1	0.17013	30.070999	-21.705	17.393
317	1	3	-0.48587301	30.058001	-22.952	17.919001
318	1	1	0.146438	31.159	-23.181999	18.681999
319	1	10	0.15153	31.322001	-24.125999	19.183001
320	1	1	-0.061296001	32.041	-22.108	18.754999
321	1	3	0.45381799	33.271	-22.084999	19.485001
322	1	2	-0.14294299	33.640999	-23.086	20.132
323	1	2	-0.167211	34.060001	-20.959	19.471001
324	1	11	0.149422	31.434999	-20.827999	17.841999
325	1	1	-0.040150002	27.025	-20.128	14.839
326	1	6	0.20832901	27.867001	-19.473	15.021
327	1	1	-0.389763	25.983	-19.681	14.021
328	1	6	0.20502099	26.048	-18.697001	13.575
329	1	4	0.15530799	23.097	-18.806	13.245
330	1	9	0.089850001	23.823	-17.978001	13.391
331	1	9	0.089850001	22.426001	-18.5	12.413
332	1	4	0.123764	22.259001	-18.99	14.511
333	1	9	0.102241	22.913	-19.246	15.376
334	1	9	0.102241	21.547001	-19.827999	14.359
335	1	8	-0.49144101	21.528	-17.826	14.784
336	1	1	0.81826901	22.198999	-17.142	15.183
337	1	2	-0.55314898	22.926001	-16.468	14.406
338	1	3	-0.47046301	22.243999	-16.945	16.601999
339	1	1	0.228864	23.226999	-16.143999	17.281
340	1	1	-0.36785299	22.868	-15.463	18.452999
341	1	1	-0.14273299	23.809	-14.695	19.145
342	1	1	-0.245728	25.129	-14.603	18.677999
343	1	4	-0.050834998	26.152	-13.81	19.445
344	1	1	-0.245728	26.82	-14.68	20.474001
345	1	1	-0.14273299	26.27	-14.808	21.759001
346	1	1	-0.36785299	26.868999	-15.645	22.704
347	1	1	0.228865	28.034	-16.364	22.381001
348	1	3	-0.47046301	28.657	-17.252001	23.326
349	1	1	0.81826901	28.709	-17.021	24.74
350	1	2	-0.55314898	28.361	-15.917	25.236
351	1	1	-0.36785299	28.559999	-16.261999	21.084999
352	1	1	-0.14273299	27.962	-15.425	20.139
353	1	1	-0.14273299	25.500999	-15.313	17.525999
354	1	1	-0.36785299	24.559	-16.08	16.833
355	1	5	0.32505199	21.455	-17.341999	17.160999
356	1	6	0.216199	21.853001	-15.521	18.827
357	1	6	0.214442	23.509001	-14.176	20.047001
358	1	7	0.12573899	26.910999	-13.391	18.747999
359	1	7	0.12573899	25.669001	-12.938	19.937
360	1	6	0.214442	25.370001	-14.268	22.024
361	1	6	0.216199	26.403999	-15.75	23.674999
362	1	5	0.32505199	29.184999	-18.076	22.959999
363	1	6	0.216199	29.441999	-16.827999	20.809999
364	1	6	0.214442	28.386	-15.359	19.145
365	1	6	0.214442	26.523001	-15.281	17.17
366	1	6	0.216199	24.881001	-16.643	15.968
367	1	8	-0.49144101	29.073999	-17.764	25.364
368	1	4	0.123764	29.797001	-18.65	24.552999
369	1	9	0.102241	30.483	-18.086	23.881001
370	1	9	0.102241	30.422001	-19.302	25.200001
371	1	4	0.15530799	28.849001	-19.513	23.716999
372	1	9	0.089850001	29.441999	-20.208	23.086
373	1	9	0.089850001	28.285	-18.857	23.018999
374	1	3	-0.65714997	27.933001	-20.273001	24.582001
375	1	1	0.213393	28.447001	-21.329	25.417999
376	1	1	-0.389763	29.163	-22.396999	24.853001
377	1	6	0.20502099	29.318001	-22.448	23.783001
378	1	1	-0.040150002	29.662001	-23.42	25.663
379	1	6	0.20832901	30.207001	-24.24	25.212999
380	1	1	0.077936001	29.455999	-23.393	27.047001
381	1	3	-0.18972699	29.981001	-24.458	27.848
382	1	3	-0.088795997	29.806999	-24.507	29.108
383	1	1	0.17013	30.341999	-25.579	29.881001
384	1	3	-0.48587301	31.065001	-26.594999	29.354
385	1	1	0.146438	31.452	-27.479	30.311001
386	1	10	0.15153	32.039001	-28.357	30.077
387	1	1	-0.061296001	31.030001	-27.153999	31.596001
388	1	3	0.45381799	31.302	-27.909	32.779999
389	1	2	-0.14294299	31.969999	-28.962	32.720001
390	1	2	-0.167211	30.832001	-27.476	33.998001
391	1	11	0.149422	30.146999	-25.721001	31.546
392	1	1	-0.040150002	28.740999	-22.323999	27.615999
393	1	6	0.20832901	28.573999	-22.275999	28.684
394	1	1	-0.389763	28.240999	-21.299999	26.806
395	1	6	0.20502099	27.711	-20.476	27.264
396	1	4	0.15530799	26.497999	-19.957001	24.603001
397	1	9	0.089850001	26.158001	-19.792	25.646999
398	1	9	0.089850001	26.291	-19.018	24.045
399	1	4	0.123764	25.691999	-21.093	23.969
400	1	9	0.102241	25.839001	-22.038	24.540001
401	1	9	0.102241	26.049999	-21.259001	22.931
402	1	8	-0.49144101	24.332001	-20.759001	23.924999
403	1	1	0.81826901	23.966999	-20.877001	24.889
404	1	2	-0.55314898	24.136999	-19.954	25.729
405	1	3	-0.47046301	23.235001	-22.063	25.225
406	1	1	0.228864	22.815001	-22.408001	26.556
407	1	1	-0.36785299	21.621	-23.124001	26.736
408	1	1	-0.14273299	21.200001	-23.492001	28.016001
409	1	1	-0.245728	21.971001	-23.155001	29.139999
410	1	4	-0.050834998	21.538	-23.587	30.514
411	1	1	-0.245728	22.09	-24.951	30.83
412	1	1	-0.14273299	21.374001	-26.104	30.475
413	1	1	-0.36785299	21.902	-27.372	30.735001
414	1	1	0.228865	23.156	-27.504999	31.358999
415	1	3	-0.47046301	23.733999	-28.797001	31.615
416	1	1	0.81826901	22.983	-29.964001	31.972
417	1	2	-0.55314898	21.761	-29.891001	32.264999
418	1	1	-0.36785299	23.884001	-26.351	31.679001
419	1	1	-0.14273299	23.356001	-25.083	31.421
420	1	1	-0.14273299	23.183001	-22.471001	28.961
421	1	1	-0.36785299	23.604	-22.101999	27.68
422	1	5	0.32505199	22.917	-22.664	24.431999
423	1	6	0.216199	21.013	-23.389999	25.879999
424	1	6	0.214442	20.274	-24.042	28.132
425	1	7	0.12573899	21.884001	-22.85	31.273001
426	1	7	0.12573899	20.427	-23.6	30.579
427	1	6	0.214442	20.41	-26.021	29.988001
428	1	6	0.216199	21.343	-28.243	30.42
429	1	5	0.32505199	24.775999	-28.879999	31.631001
430	1	6	0.216199	24.862	-26.434	32.137001
431	1	6	0.214442	23.934999	-24.205	31.677999
432	1	6	0.214442	23.808001	-22.233	29.813
433	1	6	0.216199	24.558001	-21.606001	27.569
434	1	8	-0.49144101	23.462999	-30.882	32.027
435	1	4	0.123764	24.836	-30.612	32.118999
436	1	9	0.102241	25.025	-29.827	32.884998
437	1	9	0.102241	25.362	-31.534	32.445
438	1	4	0.15530799	25.388	-30.157	30.764999
439	1	9	0.089850001	26.475	-29.952	30.861
440	1	9	0.089850001	24.909	-29.193001	30.487
441	1	3	-0.65714997	25.153999	-31.179001	29.735001
442	1	1	0.213393	25.856001	-32.437	29.799999
443	1	1	-0.389763	27.259001	-32.466	29.834
444	1	6	0.20502099	27.827999	-31.547001	29.792
445	1	1	-0.040150002	27.938999	-33.686001	29.899
446	1	6	0.20832901	29.021	-33.693001	29.919001
447	1	1	0.077936001	27.229	-34.891998	29.931999
448	1	3	-0.18972699	27.958	-36.124001	29.997
449	1	3	-0.088795997	27.375	-37.255001	30.004
450	1	1	0.17013	28.125999	-38.466	30.070999
451	1	3	-0.48587301	29.476	-38.507	30.142
452	1	1	0.146438	29.933001	-39.785999	30.195999
453	1	10	0.15153	30.988001	-40.015999	30.256001
454	1	1	-0.061296001	28.933001	-40.754002	30.167999
455	1	3	0.45381799	29.139	-42.167999	30.216
456	1	2	-0.14294299	30.292999	-42.638	30.289
457	1	2	-0.167211	28.062	-43.022999	30.188
458	1	11	0.149422	27.431	-39.998001	30.073
459	1	1	-0.040150002	25.823999	-34.866001	29.899
460	1	6	0.20832901	25.252001	-35.784	29.93
461	1	1	-0.389763	25.143999	-33.646	29.834
462	1	6	0.20502099	24.062	-33.646	29.829
463	1	4	0.15530799	24.205999	-30.927	28.639999
464	1	9	0.089850001	23.469999	-31.756001	28.573
465	1	9	0.089850001	23.625	-29.997999	28.827
466	1	4	0.123764	24.950001	-30.785	27.311001
467	1	9	0.102241	25.500999	-31.724001	27.072001
468	1	9	0.102241	25.691999	-29.962999	27.393999
469	1	8	-0.49144101	24.051001	-30.474001	26.282
470	1	1	0.81826901	23.554001	-31.354	26.047001
471	1	2	-0.55314898	22.576	-31.715	26.753
472	1	3	-0.47046301	23.961	-32.108002	24.896999
473	1	1	0.228864	23.454	-33.410999	24.559
474	1	1	-0.36785299	23.343	-33.775002	23.209
475	1	1	-0.14273299	22.874001	-35.042	22.851999
476	1	1	-0.245728	22.516001	-35.970001	23.841999
477	1	4	-0.050834998	22.049999	-37.348	23.459
478	1	1	-0.245728	23.225	-38.279999	23.337
479	1	1	-0.14273299	23.908001	-38.403	22.117001
480	1	1	-0.36785299	25.021999	-39.240002	22.011999
481	1	1	0.228865	25.469	-39.972	23.127001
482	1	3	-0.47046301	26.628	-40.820999	23.054001
483	1	1	0.81826901	27.002001	-41.583	21.9
484	1	2	-0.55314898	26.226	-41.701	20.914
485	1	1	-0.36785299	24.806999	-39.818001	24.354
486	1	1	-0.14273299	23.691999	-38.981998	24.459
487	1	1	-0.14273299	22.66	-35.620998	25.194
488	1	1	-0.36785299	23.127001	-34.353001	25.549999
489	1	5	0.32505199	24.601	-31.632999	24.222
490	1	6	0.216199	23.614	-33.070999	22.431999
491	1	6	0.214442	22.795	-35.301998	21.804001
492	1	7	0.12573899	21.334	-37.734001	24.216999
493	1	7	0.12573899	21.492001	-37.308998	22.497
494	1	6	0.214442	23.583	-37.841999	21.249001
495	1	6	0.216199	25.549	-39.290001	21.069
496	1	5	0.32505199	27.191999	-40.966999	23.922001
497	1	6	0.216199	25.152	-40.354	25.229
498	1	6	0.214442	23.194	-38.879002	25.415001
499	1	6	0.214442	22.42	-36.335999	25.971001
500	1	6	0.216199	23.26	-34.124001	26.599001
501	1	8	-0.49144101	27.912001	-42.080002	21.889
502	1	4	0.123764	28.336	-42.168999	23.223
503	1	9	0.102241	27.503	-42.527	23.868999
504	1	9	0.102241	29.157	-42.914001	23.290001
505	1	4	0.15530799	28.832001	-40.810001	23.724001
506	1	9	0.089850001	29.164	-40.905998	24.778999
507	1	9	0.089850001	27.981001	-40.094002	23.725
508	1	3	-0.65714997	29.937	-40.316002	22.888
509	1	1	0.213393	31.209999	-40.991001	22.910999
510	1	1	-0.389763	31.900999	-41.164001	24.121
511	1	6	0.20502099	31.495001	-40.775002	25.045
512	1	1	-0.040150002	33.134998	-41.82	24.142
513	1	6	0.20832901	33.659	-41.939999	25.082001
514	1	1	0.077936001	33.695999	-42.313	22.959
515	1	3	-0.18972699	34.963001	-42.979	23.017
516	1	3	-0.088795997	35.540001	-43.428001	21.976
517	1	1	0.17013	36.800999	-44.089001	22.063
518	1	3	-0.48587301	37.459999	-44.293999	23.226
519	1	1	0.146438	38.636002	-44.945999	23.024
520	1	10	0.15153	39.299	-45.198002	23.841
521	1	1	-0.061296001	38.898998	-45.254002	21.693001
522	1	3	0.45381799	40.058998	-45.936001	21.208
523	1	2	-0.14294299	40.948002	-46.313999	21.997999
524	1	2	-0.167211	40.199001	-46.188	19.864
525	1	11	0.149422	37.632	-44.699001	20.733
526	1	1	-0.040150002	33.006001	-42.143002	21.746
527	1	6	0.20832901	33.416	-42.521	20.818001
528	1	1	-0.389763	31.771999	-41.486	21.724001
529	1	6	0.20502099	31.247	-41.382999	20.783001
530	1	4	0.15530799	29.747	-39.139999	22.027
531	1	9	0.089850001	30.051001	-39.375999	20.985001
532	1	9	0.089850001	28.676001	-38.845001	21.99
533	1	4	0.123764	30.566	-37.958	22.549999
534	1	9	0.102241	31.652	-38.207001	22.549
535	1	9	0.102241	30.264999	-37.740002	23.597
536	1	8	-0.49144101	30.329	-36.819	21.768999
537	1	8	-0.49144101	-6.3670001	-0.579	2.3540001
538	1	4	0.123764	-5.6290002	-0.91000003	3.4990001
539	1	9	0.102241	-4.7420001	-0.244	3.592
540	1	9	0.102241	-6.2649999	-0.75	4.395
541	1	4	0.15644699	-5.1739998	-2.3710001	3.4449999
542	1	9	0.089850001	-4.5960002	-2.6110001	4.362
543	1	9	0.089850001	-4.4780002	-2.5	2.589
544	1	3	-0.64896399	-6.3299999	-3.273	3.325
545	1	1	0.21512599	-7.2490001	-3.4119999	4.427
546	1	1	-0.389763	-6.7859998	-3.8039999	5.6929998
547	1	6	0.20502099	-5.7379999	-4.0250001	5.8499999
548	1	1	-0.040150002	-7.677	-3.937	6.7610002
549	1	6	0.20832901	-7.3060002	-4.2459998	7.7309999
550	1	1	0.077936001	-9.0410004	-3.681	6.5819998
551	1	3	-0.18972699	-9.927	-3.8280001	7.6989999
552	1	3	-0.088795997	-11.18	-3.6340001	7.598
553	1	1	0.17013	-12.039	-3.7869999	8.7270002
554	1	3	-0.48587301	-11.601	-4.1279998	9.96
555	1	1	0.146438	-12.626	-4.2030001	10.85
556	1	10	0.15153	-12.467	-4.4629998	11.888
557	1	1	-0.061296001	-13.876	-3.918	10.309
558	1	3	0.45381799	-15.115	-3.9230001	11.023
559	1	2	-0.167211	-15.143	-4.198	12.241
560	1	2	-0.14294299	-16.287001	-3.615	10.373
561	1	11	0.149422	-13.705	-3.5610001	8.6719999
562	1	1	-0.040150002	-9.5080004	-3.286	5.316
563	1	6	0.20832901	-10.557	-3.075	5.1539998
564	1	1	-0.389763	-8.6169996	-3.154	4.2470002
565	1	6	0.20502099	-8.9919996	-2.8299999	3.2850001
566	1	4	0.126151	-6.5539999	-4.0320001	2.086
567	1	9	0.095103003	-7.5879998	-3.865	1.7180001
568	1	9	0.095103003	-5.868	-3.6860001	1.2819999
569	1	4	0.087532997	-6.322	-5.5250001	2.3239999
570	1	9	0.102003	-7.033	-5.9109998	3.0899999
571	1	9	0.102003	-5.29	-5.678	2.7049999
572	1	12	-0.66878802	-6.467	-6.2360001	1.125
573	1	13	0.40394899	-7.4419999	-6.2989998	0.949
574	1	1	0.81826901	30.881001	-36.955002	20.849001
575	1	2	-0.55314898	31.628	-36.028	20.438
576	1	3	-0.47046301	30.709	-38.161999	20.094999
577	1	1	0.228864	31.495001	-38.521999	18.945999
578	1	1	-0.36785299	32.860001	-38.195	18.857
579	1	1	-0.14273299	33.608002	-38.577999	17.74
580	1	1	-0.245728	33.005001	-39.297001	16.695999
581	1	4	-0.050834998	33.82	-39.743	15.512
582	1	1	-0.260234	34.431999	-41.091	15.78
583	1	1	-0.187736	33.73	-42.264	15.462
584	1	1	-0.26008001	34.284	-43.515999	15.744
585	1	1	0.440956	35.540001	-43.618	16.355
586	1	3	-0.349547	36.069	-44.924999	16.627001
587	1	14	0.61491501	37.198002	-45.133999	17.177999
588	1	2	-0.30789599	38.294998	-45.337002	17.714001
589	1	1	-0.26008001	36.240002	-42.439999	16.684999
590	1	1	-0.187736	35.686001	-41.188	16.403
591	1	1	-0.14273299	31.652	-39.653999	16.799999
592	1	1	-0.36785299	30.906	-39.271999	17.917999
593	1	5	0.32505199	29.9	-38.771	20.354
594	1	6	0.216199	33.359001	-37.671001	19.662001
595	1	6	0.214442	34.659	-38.323002	17.693001
596	1	7	0.12573899	34.616001	-38.998001	15.294