Title

207 atoms
222 bonds
377 angles
599 dihedrals
276 impropers

11 atom types
15 bond types
8 angle types
22 dihedral types
3 improper types
-19.53199959 80.46800041 xlo xhi
-5.046000004 94.954 ylo yhi
-24.47699928 75.52300072 zlo zhi
0.0 0.0 0.0 xy xz yz

Masses

1	14.00672
2	12.01078
3	1.007947
4	15.99943
5	12.01078
6	1.007947
7	18.998403
8	1.007947
9	15.99943
10	15.99943
11	1.007947


Pair Coeffs

1	0.16769152	3.206876
2	0.086879315	3.4806469
3	0.015611343	2.5725815
4	0.16846514	3.0251065
5	0.10884061	3.3795318
6	0.014090815	1.1034277
7	0.061	3.1181455
8	0.015779483	2.6445434
9	0.2102061	3.0398122
10	0.20947353	2.99716
11	1.2326e-05	0.53453923

Bond Coeffs

1 harmonic	390.03554688505	1.390160554689
2 harmonic	505.144496193	1.019481865027
3 harmonic	422.7150220147	1.421786517481
4 harmonic	360.7852444772	1.387193227181
5 harmonic	397.2545789619	1.085358495916
6 harmonic	279.1350963404	1.454628925034
7 harmonic	425.69104206635	1.362945806494
8 harmonic	289.73813263395	1.498646816465
9 harmonic	264.62148576755	1.52190126495
10 harmonic	492.76746816345	1.381897776683
11 harmonic	340.45121009905	1.358690858053
12 harmonic	370.04670688625	1.093899492634
13 harmonic	582.698766451	1.225198386222
14 harmonic	385.7604595587	1.369745182308
15 harmonic	543.5267831885	0.9716763312559


Angle Coeffs

1 harmonic	57.8982893754	126.8062420451
2 harmonic	55.42182150775	117.3465570514
3 harmonic	63.44422595415	115.5071327674
4 harmonic	34.066775159195	129.1835929926
5 harmonic	65.09061609600001	110.3538806181
6 harmonic	53.20531626545	116.5475862634
7 harmonic	48.776492647595	115.6030999533
8 harmonic	201.41175231035	127.4691416191


Dihedral Coeffs

1 fourier 1	3.661930099076	2	180
2 fourier 1	1.193093382682	2	180
3 fourier 1	0.02021088501612	1	0
4 fourier 1	1.163235555439	2	180
5 fourier 1	1.532232714475	2	180
6 fourier 1	0.02664938770063	3	0
7 fourier 1	0.1155372516788	3	0
8 fourier 1	0.1040663847541	3	0
9 fourier 1	0.09223874044423	3	0
10 fourier 1	0.3159935921949	2	180
11 fourier 1	0.3247796806857	1	180
12 fourier 1	3.101948770557	2	180
13 fourier 1	-0.4252153282372	1	0
14 fourier 1	1.809047390003	2	180
15 fourier 1	-0.04816277792592	1	0
16 fourier 1	0.9974165607242	2	180
17 fourier 1	2.348375642009	2	180
18 fourier 1	1.256156174911	1	0
19 fourier 1	0.1911926717192	3	0
20 fourier 1	2.687457892086	2	180
21 fourier 1	2.772607909663	2	180
22 fourier 1	0.09692684957115	1	0


Improper Coeffs

1 0.3666666666666667	-1	2
2 0.3333333333333333	-1	2
3 3.5	-1	2


Atoms

1	1	1	-0.412494	14.317	0.495	-0.056000002
2	1	2	0.12542599	12.923	0.41	0.25799999
3	1	2	-0.40782401	12.207	1.527	0.48800001
4	1	3	0.220294	12.682	2.5009999	0.447
5	1	2	-0.115781	10.761	1.434	0.79000002
6	1	3	0.20281599	10.206	2.3499999	0.96799999
7	1	2	-0.12902901	10.143	0.237	0.81800002
8	1	2	-0.135234	8.6929998	0.148	1.094
9	1	2	-0.131063	7.8779998	-0.51300001	0.25099999
10	1	3	0.20611	8.2690001	-1.003	-0.625
11	1	2	-0.297162	6.421	-0.51300001	0.47499999
12	1	3	0.22292501	5.7909999	-1.021	-0.244
13	1	2	0.32788199	5.8920002	0.12800001	1.536
14	1	4	-0.273249	4.5079999	0.198	1.765
15	1	2	0.25766799	3.5179999	-0.156	0.83899999
16	1	2	-0.26884699	2.7720001	0.80500001	0.26899999
17	1	3	0.226559	2.961	1.845	0.49599999
18	1	2	-0.17621	1.6569999	0.44999999	-0.62599999
19	1	3	0.216739	1.054	1.252	-1.041
20	1	2	-0.188279	1.349	-0.84500003	-0.87900001
21	1	5	0.01526	0.077	-1.164	-1.6950001
22	1	2	-0.188279	-1.137	-0.59600002	-0.912
23	1	2	-0.17621	-2.2279999	-0.055	-1.507
24	1	3	0.216739	-2.313	0.028000001	-2.5780001
25	1	2	-0.26884699	-3.3440001	0.49700001	-0.70599997
26	1	3	0.226559	-4.1739998	0.97899997	-1.214
27	1	2	0.25766799	-3.3069999	0.433	0.634
28	1	4	-0.273249	-4.3099999	0.99199998	1.4349999
29	1	2	0.32788199	-5.677	1.028	1.118
30	1	2	-0.297162	-6.2979999	2.2160001	1.122
31	1	3	0.22292501	-5.7379999	3.122	1.316
32	1	2	-0.131063	-7.75	2.309	0.88099998
33	1	3	0.20611	-8.2119999	3.283	0.92400002
34	1	2	-0.135234	-8.4779997	1.2029999	0.65100002
35	1	2	-0.12902901	-9.9549999	1.273	0.52600002
36	1	2	-0.12977	-10.613	0.495	-0.354
37	1	3	0.20281599	-10.076	-0.15899999	-1.029
38	1	2	-0.37598801	-12.091	0.51800001	-0.41800001
39	1	3	0.216796	-12.599	-0.131	-1.1160001
40	1	2	0.197707	-12.791	1.306	0.40900001
41	1	1	-0.53268099	-14.219	1.313	0.37599999
42	1	6	0.31886399	-14.765	1.936	1.012
43	1	2	-0.37598801	-12.074	2.171	1.369
44	1	3	0.216796	-12.627	2.813	2.0409999
45	1	2	-0.12977	-10.738	2.161	1.4220001
46	1	3	0.20281599	-10.232	2.773	2.1570001
47	1	2	-0.058127001	-7.7940001	-0.113	0.62300003
48	1	3	0.205185	-8.3909998	-1.001	0.46200001
49	1	2	-0.32315001	-6.4720001	-0.22	0.87400001
50	1	5	0.76608998	-5.8189998	-1.5880001	0.94499999
51	1	7	-0.20938	-6.7529998	-2.586	1.1670001
52	1	7	-0.20938	-5.1599998	-1.854	-0.245
53	1	7	-0.20938	-4.9109998	-1.631	1.988
54	1	2	-0.26884699	-2.1619999	-0.222	1.298
55	1	3	0.226559	-2.151	-0.32300001	2.378
56	1	2	-0.17621	-1.1569999	-0.72799999	0.57700002
57	1	3	0.216739	-0.354	-1.247	1.089
58	1	5	-0.12925699	-0.133	-2.698	-1.844
59	1	8	0.110712	-0.29800001	-3.1689999	-0.85100001
60	1	8	0.110712	0.77399999	-3.1570001	-2.293
61	1	5	-0.129007	-1.324	-3.0539999	-2.7509999
62	1	8	0.113025	-1.279	-4.1409998	-2.9719999
63	1	8	0.113025	-2.2780001	-2.8800001	-2.2049999
64	1	5	-0.150567	-1.352	-2.2709999	-4.0760002
65	1	8	0.115732	-2.237	-1.607	-4.1030002
66	1	8	0.115732	-1.471	-2.9779999	-4.9250002
67	1	5	-0.129007	-0.090999998	-1.438	-4.3130002
68	1	8	0.113025	-0.227	-0.81300002	-5.223
69	1	8	0.113025	0.75599998	-2.131	-4.5139999
70	1	5	-0.12925699	0.27200001	-0.52399999	-3.1259999
71	1	8	0.110712	1.342	-0.26699999	-3.2909999
72	1	8	0.110712	-0.25099999	0.45300001	-3.217
73	1	2	-0.17621	2.214	-1.9069999	-0.264
74	1	3	0.216739	2.0250001	-2.9560001	-0.42699999
75	1	2	-0.26884699	3.2349999	-1.574	0.54500002
76	1	3	0.226559	3.835	-2.349	1.005
77	1	2	-0.32315001	6.7930002	0.81199998	2.5090001
78	1	5	0.76608998	6.1960001	1.451	3.7390001
79	1	7	-0.20938	5.6079998	0.47400001	4.5190001
80	1	7	-0.20938	7.1529999	2.115	4.4920001
81	1	7	-0.20938	5.2309999	2.3640001	3.365
82	1	2	-0.058127001	8.1219997	0.81999999	2.2839999
83	1	3	0.205185	8.8009996	1.303	2.973
84	1	2	-0.115781	10.936	-0.99400002	0.56400001
85	1	3	0.20281599	10.46	-1.97	0.58700001
86	1	2	-0.40782401	12.252	-0.91000003	0.31799999
87	1	3	0.220294	12.832	-1.816	0.148
88	1	6	0.37202501	14.89	-0.37400001	-0.13600001
89	1	2	0.76767999	-14.76	0.68300003	-0.289
90	1	9	-0.66066802	-14.704	0.91299999	-1.526
91	1	2	-0.38191	-15.558	-0.43900001	0.236
92	1	2	-0.103797	-15.606	-0.67000002	1.559
93	1	3	0.21828499	-15.063	-0.039000001	2.2520001
94	1	2	-0.040495001	-16.405001	-1.793	2.0940001
95	1	3	0.21415301	-16.424999	-1.955	3.165
96	1	2	-0.35247901	-17.091	-2.596	1.263
97	1	2	0.59147799	-17.885	-3.7130001	1.8049999
98	1	9	-0.530258	-18.534	-4.474	1.04
99	1	2	-0.040495001	-17.039	-2.342	-0.199
100	1	3	0.21415301	-17.586	-2.9779999	-0.884
101	1	2	-0.103797	-16.316	-1.325	-0.68300003
102	1	3	0.21828499	-16.289	-1.155	-1.752
103	1	1	-0.41249299	14.755	1.408	-0.28799999
104	1	2	0.12542599	15.797	1.493	-1.266
105	1	2	-0.40782401	16.389	0.377	-1.73
106	1	3	0.220294	16.089001	-0.59799999	-1.36
107	1	2	-0.115781	17.450001	0.46900001	-2.7579999
108	1	3	0.20281599	17.909	-0.447	-3.1170001
109	1	2	-0.12902901	17.82	1.666	-3.2539999
110	1	2	-0.135234	18.861	1.755	-4.3000002
111	1	2	-0.131063	18.621	2.4159999	-5.447
112	1	3	0.20611	17.676001	2.9070001	-5.6139998
113	1	2	-0.297162	19.622999	2.4170001	-6.527
114	1	3	0.22292501	19.381001	2.925	-7.4520001
115	1	2	0.32788199	20.799	1.775	-6.3709998
116	1	4	-0.273249	21.764	1.705	-7.388
117	1	2	0.25766799	21.552999	2.059	-8.7270002
118	1	2	-0.26884699	21.5	1.099	-9.665
119	1	3	0.226559	21.582001	0.057999998	-9.3800001
120	1	2	-0.17621	21.384001	1.4529999	-11.089
121	1	3	0.216739	21.379	0.65100002	-11.821
122	1	2	-0.188279	21.348	2.7479999	-11.486
123	1	5	0.01526	21.385	3.0669999	-12.997
124	1	2	-0.188279	22.714001	2.4990001	-13.563
125	1	2	-0.17621	22.834	1.9579999	-14.8
126	1	3	0.216739	21.993999	1.875	-15.471
127	1	2	-0.26884699	24.122999	1.406	-15.275
128	1	3	0.226559	24.167999	0.92400002	-16.246
129	1	2	0.25766799	25.211	1.47	-14.492
130	1	4	-0.273249	26.437	0.91100001	-14.873
131	1	2	0.32788199	26.941999	0.875	-16.183001
132	1	2	-0.297162	27.292	-0.31200001	-16.695
133	1	3	0.22292501	27.139	-1.219	-16.122
134	1	2	-0.131063	27.908001	-0.40599999	-18.032
135	1	3	0.20611	28.202	-1.38	-18.391001
136	1	2	-0.135234	28.125999	0.69999999	-18.764
137	1	2	-0.12902901	28.851	0.63	-20.056999
138	1	2	-0.079186	28.490999	1.408	-21.096001
139	1	3	0.20281599	27.631001	2.062	-21.028999
140	1	2	-0.45194399	29.266001	1.385	-22.355
141	1	3	0.228771	28.974001	2.0339999	-23.167
142	1	2	0.31645	30.344999	0.597	-22.469999
143	1	1	-0.84528601	31.118	0.58999997	-23.672001
144	1	6	0.36524999	30.875	1.209	-24.476999
145	1	6	0.36524999	31.951	-0.033	-23.766001
146	1	2	-0.45194399	30.737	-0.26800001	-21.337999
147	1	3	0.228771	31.603001	-0.91000003	-21.419001
148	1	2	-0.079186	30.032	-0.25799999	-20.202
149	1	3	0.20281599	30.356001	-0.87	-19.371
150	1	2	-0.058127001	27.719	2.016	-18.214001
151	1	3	0.205185	27.921	2.904	-18.798
152	1	2	-0.32315001	27.184999	2.1240001	-16.978001
153	1	5	0.76608998	26.877001	3.4909999	-16.398001
154	1	7	-0.20938	27.584999	4.4889998	-17.046
155	1	7	-0.20938	25.523001	3.757	-16.52
156	1	7	-0.20938	27.232	3.5339999	-15.061
157	1	2	-0.26884699	25.118999	2.1259999	-13.172
158	1	3	0.226559	26.007	2.2260001	-12.558
159	1	2	-0.17621	23.958	2.631	-12.745
160	1	3	0.216739	23.931999	3.1500001	-11.793
161	1	5	-0.12925699	21.379999	4.6009998	-13.255
162	1	8	0.110712	22.295	5.072	-12.834
163	1	8	0.110712	20.499001	5.0609999	-12.755
164	1	5	-0.129007	21.297001	4.9569998	-14.749
165	1	8	0.113025	21.087999	6.0450001	-14.835
166	1	8	0.113025	22.283001	4.783	-15.233
167	1	5	-0.150567	20.215	4.1739998	-15.516
168	1	8	0.115732	20.688999	3.51	-16.264
169	1	8	0.115732	19.579	4.881	-16.09
170	1	5	-0.129007	19.312	3.3410001	-14.604
171	1	8	0.113025	18.634001	2.7160001	-15.227
172	1	8	0.113025	18.671	4.0339999	-14.016
173	1	5	-0.12925699	20.091	2.427	-13.638
174	1	8	0.110712	19.354	2.1700001	-12.845
175	1	8	0.110712	20.309	1.451	-14.122
176	1	2	-0.17621	21.371	3.8110001	-10.425
177	1	3	0.216739	21.341999	4.8590002	-10.673
178	1	2	-0.26884699	21.468	3.477	-9.1260004
179	1	3	0.226559	21.513	4.2529998	-8.3710003
180	1	2	-0.32315001	21.099001	1.092	-5.079
181	1	5	0.76608998	22.451	0.45199999	-4.8829999
182	1	7	-0.20938	23.427999	1.429	-4.9330001
183	1	7	-0.20938	22.539	-0.212	-3.6689999
184	1	7	-0.20938	22.684	-0.461	-5.8920002
185	1	2	-0.058127001	20.167	1.0829999	-4.105
186	1	3	0.205185	20.357	0.60000002	-3.1559999
187	1	2	-0.115781	17.164	2.8970001	-2.74
188	1	3	0.20281599	17.451	3.8729999	-3.1210001
189	1	2	-0.40782401	16.223	2.8139999	-1.788
190	1	3	0.220294	15.757	3.72	-1.403
191	1	6	0.37202501	14.367	2.277	0.141
192	1	2	0.59147799	-17.917999	-3.891	2.872
193	1	9	-0.530258	-17.660999	-5.046	3.3050001
194	1	2	-0.35247901	-18.259001	-2.796	3.7980001
195	1	2	-0.037025999	-18.531	-1.571	3.3199999
196	1	3	0.21415301	-18.503	-1.373	2.2550001
197	1	2	-0.079089001	-18.874001	-0.46700001	4.2410002
198	1	3	0.230298	-19.087	0.50800002	3.8199999
199	1	2	-0.280954	-18.917999	-0.67500001	5.5700002
200	1	2	0.83815199	-19.26	0.419	6.506
201	1	9	-0.49068999	-19.518	1.577	6.0749998
202	1	10	-0.665856	-19.299	0.178	7.8759999
203	1	11	0.41690499	-19.532	0.917	8.5279999
204	1	2	-0.079089001	-18.618	-2.03	6.0970001
205	1	3	0.230298	-18.646999	-2.2219999	7.1620002
206	1	2	-0.037025999	-18.306999	-3.03	5.2620001
207	1	3	0.21415301	-18.091999	-4.0110002	5.6669998

Bonds

1	1	1	2
2	2	1	88
3	3	1	103
4	4	2	3
5	4	2	86
6	5	3	4
7	4	3	5
8	5	5	6
9	4	5	7
10	6	7	8
11	4	7	84
12	4	8	9
13	4	8	82
14	5	9	10
15	4	9	11
16	5	11	12
17	4	11	13
18	7	13	14
19	4	13	77
20	7	14	15
21	4	15	16
22	4	15	75
23	5	16	17
24	4	16	18
25	5	18	19
26	4	18	20
27	8	20	21
28	4	20	73
29	8	21	22
30	9	21	58
31	9	21	70
32	4	22	23
33	4	22	56
34	5	23	24
35	4	23	25
36	5	25	26
37	4	25	27
38	7	27	28
39	4	27	54
40	7	28	29
41	4	29	30
42	4	29	49
43	5	30	31
44	4	30	32
45	5	32	33
46	4	32	34
47	6	34	35
48	4	34	47
49	4	35	36
50	4	35	45
51	5	36	37
52	4	36	38
53	5	38	39
54	4	38	40
55	1	40	41
56	4	40	43
57	2	41	42
58	10	41	89
59	5	43	44
60	4	43	45
61	5	45	46
62	5	47	48
63	4	47	49
64	8	49	50
65	11	50	51
66	11	50	52
67	11	50	53
68	5	54	55
69	4	54	56
70	5	56	57
71	12	58	59
72	12	58	60
73	9	58	61
74	12	61	62
75	12	61	63
76	9	61	64
77	12	64	65
78	12	64	66
79	9	64	67
80	12	67	68
81	12	67	69
82	9	67	70
83	12	70	71
84	12	70	72
85	5	73	74
86	4	73	75
87	5	75	76
88	8	77	78
89	4	77	82
90	11	78	79
91	11	78	80
92	11	78	81
93	5	82	83
94	5	84	85
95	4	84	86
96	5	86	87
97	13	89	90
98	6	89	91
99	4	91	92
100	4	91	101
101	5	92	93
102	4	92	94
103	5	94	95
104	4	94	96
105	6	96	97
106	4	96	99
107	13	97	98
108	6	97	192
109	5	99	100
110	4	99	101
111	5	101	102
112	1	103	104
113	2	103	191
114	4	104	105
115	4	104	189
116	5	105	106
117	4	105	107
118	5	107	108
119	4	107	109
120	6	109	110
121	4	109	187
122	4	110	111
123	4	110	185
124	5	111	112
125	4	111	113
126	5	113	114
127	4	113	115
128	7	115	116
129	4	115	180
130	7	116	117
131	4	117	118
132	4	117	178
133	5	118	119
134	4	118	120
135	5	120	121
136	4	120	122
137	8	122	123
138	4	122	176
139	8	123	124
140	9	123	161
141	9	123	173
142	4	124	125
143	4	124	159
144	5	125	126
145	4	125	127
146	5	127	128
147	4	127	129
148	7	129	130
149	4	129	157
150	7	130	131
151	4	131	132
152	4	131	152
153	5	132	133
154	4	132	134
155	5	134	135
156	4	134	136
157	6	136	137
158	4	136	150
159	4	137	138
160	4	137	148
161	5	138	139
162	4	138	140
163	5	140	141
164	4	140	142
165	1	142	143
166	4	142	146
167	2	143	144
168	2	143	145
169	5	146	147
170	4	146	148
171	5	148	149
172	5	150	151
173	4	150	152
174	8	152	153
175	11	153	154
176	11	153	155
177	11	153	156
178	5	157	158
179	4	157	159
180	5	159	160
181	12	161	162
182	12	161	163
183	9	161	164
184	12	164	165
185	12	164	166
186	9	164	167
187	12	167	168
188	12	167	169
189	9	167	170
190	12	170	171
191	12	170	172
192	9	170	173
193	12	173	174
194	12	173	175
195	5	176	177
196	4	176	178
197	5	178	179
198	8	180	181
199	4	180	185
200	11	181	182
201	11	181	183
202	11	181	184
203	5	185	186
204	5	187	188
205	4	187	189
206	5	189	190
207	13	192	193
208	6	192	194
209	4	194	195
210	4	194	206
211	5	195	196
212	4	195	197
213	5	197	198
214	4	197	199
215	6	199	200
216	4	199	204
217	13	200	201
218	14	200	202
219	15	202	203
220	5	204	205
221	4	204	206
222	5	206	207

Angles

1	1	120	122	123
2	4	187	189	190
3	6	123	161	164
4	4	194	195	196
5	1	129	157	159
6	1	103	104	189
7	1	91	101	99
8	7	165	164	166
9	3	1	103	191
10	4	91	92	93
11	6	180	181	182
12	1	38	40	41
13	1	107	109	110
14	7	62	61	63
15	4	100	99	101
16	1	14	15	16
17	6	123	173	170
18	4	22	23	24
19	6	172	170	173
20	6	79	78	80
21	1	197	199	200
22	1	36	38	40
23	5	200	202	203
24	4	39	38	40
25	4	128	127	129
26	6	163	161	164
27	1	96	99	101
28	4	104	105	106
29	1	116	117	178
30	6	161	123	173
31	6	161	164	167
32	1	118	120	122
33	1	140	142	146
34	1	150	152	153
35	6	123	173	174
36	1	8	9	11
37	1	132	134	136
38	6	49	50	51
39	6	167	170	171
40	6	183	181	184
41	4	17	16	18
42	6	21	58	61
43	1	110	185	180
44	4	114	113	115
45	6	80	78	81
46	1	96	97	98
47	6	166	164	167
48	4	110	111	112
49	1	29	30	32
50	1	40	43	45
51	4	131	132	133
52	1	35	45	43
53	6	21	70	67
54	1	3	5	7
55	6	64	67	70
56	1	16	18	20
57	4	35	36	37
58	1	92	91	101
59	1	98	97	192
60	1	25	27	28
61	4	92	94	95
62	1	29	49	50
63	1	195	197	199
64	1	181	180	185
65	1	18	20	21
66	1	34	35	45
67	1	115	180	185
68	4	124	159	160
69	4	2	3	4
70	6	52	50	53
71	4	199	204	205
72	1	142	146	148
73	6	182	181	183
74	4	180	185	186
75	6	21	70	71
76	3	42	41	89
77	4	19	18	20
78	4	137	148	149
79	4	158	157	159
80	4	196	195	197
81	1	127	129	157
82	1	124	125	127
83	4	33	32	34
84	1	110	109	187
85	1	143	142	146
86	4	136	150	151
87	1	21	22	56
88	4	36	38	39
89	4	110	185	186
90	4	135	134	136
91	1	11	13	77
92	4	91	101	102
93	6	161	164	166
94	2	2	1	103
95	6	77	78	81
96	4	126	125	127
97	4	118	120	121
98	1	1	2	3
99	3	142	143	145
100	6	61	64	67
101	1	41	40	43
102	6	68	67	70
103	4	15	16	17
104	3	88	1	103
105	1	27	54	56
106	4	74	73	75
107	4	29	30	31
108	1	94	96	99
109	1	97	192	194
110	6	22	21	58
111	1	137	148	146
112	4	34	47	48
113	6	152	153	156
114	1	35	34	47
115	3	104	103	191
116	6	155	153	156
117	1	23	25	27
118	7	162	161	163
119	1	132	131	152
120	1	28	29	30
121	1	21	20	73
122	1	32	34	35
123	1	125	127	129
124	1	36	35	45
125	4	139	138	140
126	1	134	136	137
127	4	142	146	147
128	1	28	27	54
129	4	35	45	46
130	4	112	111	113
131	1	109	187	189
132	1	104	189	187
133	4	124	125	126
134	1	138	137	148
135	6	164	167	168
136	1	138	140	142
137	4	157	159	160
138	1	90	89	91
139	4	93	92	94
140	6	124	123	161
141	1	5	7	84
142	1	118	117	178
143	4	31	30	32
144	1	134	136	150
145	6	154	153	155
146	6	77	78	80
147	4	99	101	102
148	4	7	84	85
149	1	120	122	176
150	6	180	181	184
151	1	38	40	43
152	1	125	124	159
153	3	142	143	144
154	1	8	7	84
155	1	195	194	206
156	1	96	97	192
157	7	68	67	69
158	1	192	194	195
159	1	115	180	181
160	1	13	77	82
161	4	27	54	55
162	1	111	110	185
163	1	105	107	109
164	1	193	192	194
165	6	152	153	155
166	1	28	29	49
167	4	119	118	120
168	1	192	194	206
169	4	111	113	114
170	1	30	32	34
171	1	107	109	187
172	4	73	75	76
173	4	44	43	45
174	4	117	178	179
175	6	51	50	53
176	4	125	127	128
177	6	123	161	163
178	1	14	13	77
179	4	129	157	158
180	1	109	110	111
181	6	69	67	70
182	1	22	56	54
183	1	89	91	92
184	1	194	206	204
185	6	20	21	70
186	1	199	200	202
187	4	8	9	10
188	4	2	86	87
189	1	200	199	204
190	4	138	140	141
191	6	58	61	64
192	1	14	15	75
193	2	40	41	89
194	5	13	14	15
195	1	194	195	197
196	6	165	164	167
197	4	96	99	100
198	6	77	78	79
199	1	91	92	94
200	7	174	173	175
201	6	62	61	64
202	1	8	82	77
203	3	40	41	42
204	4	104	189	190
205	1	22	23	25
206	4	132	134	135
207	7	71	70	72
208	6	21	58	60
209	4	146	148	149
210	1	117	178	176
211	6	122	123	124
212	4	48	47	49
213	4	43	45	46
214	1	104	105	107
215	4	55	54	56
216	4	40	43	44
217	1	25	27	54
218	4	24	23	25
219	4	3	5	6
220	6	64	67	69
221	4	16	18	19
222	4	105	107	108
223	6	65	64	67
224	6	123	173	175
225	1	2	86	84
226	4	133	132	134
227	4	30	32	33
228	4	195	197	198
229	4	77	82	83
230	6	51	50	52
231	4	106	105	107
232	6	63	61	64
233	6	66	64	67
234	6	123	161	162
235	1	110	111	113
236	6	67	70	72
237	1	35	36	38
238	1	105	104	189
239	6	59	58	61
240	1	97	96	99
241	1	92	94	96
242	1	78	77	82
243	1	131	152	150
244	1	137	138	140
245	6	58	61	63
246	1	41	89	91
247	6	168	167	170
248	6	20	21	22
249	5	115	116	117
250	1	116	115	180
251	1	13	77	78
252	1	2	3	5
253	4	12	11	13
254	1	199	204	206
255	4	22	56	57
256	1	136	137	148
257	6	182	181	184
258	4	37	36	38
259	6	161	164	165
260	4	205	204	206
261	5	129	130	131
262	1	18	20	73
263	6	21	70	72
264	4	188	187	189
265	1	109	110	185
266	6	122	123	161
267	4	95	94	96
268	6	164	167	170
269	3	2	1	88
270	1	136	150	152
271	1	116	117	118
272	6	21	58	59
273	6	61	64	66
274	6	170	173	175
275	6	171	170	173
276	1	123	124	159
277	4	6	5	7
278	4	194	206	207
279	2	1	103	104
280	4	10	9	11
281	1	15	75	73
282	1	9	8	82
283	4	141	140	142
284	3	144	143	145
285	1	7	8	9
286	4	177	176	178
287	1	9	11	13
288	1	97	192	193
289	6	64	67	68
290	7	65	64	66
291	1	137	136	150
292	1	30	29	49
293	6	169	167	170
294	4	23	25	26
295	6	167	170	173
296	1	7	8	82
297	1	1	2	86
298	1	197	199	204
299	1	123	122	176
300	1	16	15	75
301	4	204	206	207
302	1	3	2	86
303	4	4	3	5
304	1	15	16	18
305	4	151	150	152
306	1	122	176	178
307	4	176	178	179
308	1	20	73	75
309	1	21	22	23
310	1	89	91	101
311	1	117	118	120
312	6	22	21	70
313	6	67	70	71
314	1	123	124	125
315	6	49	50	53
316	1	34	47	49
317	1	5	7	8
318	4	109	187	188
319	7	59	58	60
320	6	162	161	164
321	4	137	138	139
322	6	58	61	62
323	1	32	34	47
324	4	108	107	109
325	1	41	89	90
326	7	168	167	169
327	1	34	35	36
328	5	27	28	29
329	1	136	137	138
330	6	180	181	183
331	1	140	142	143
332	4	84	86	87
333	1	130	129	157
334	1	47	49	50
335	4	121	120	122
336	6	164	167	169
337	1	113	115	116
338	1	131	152	153
339	4	54	56	57
340	6	79	78	81
341	6	61	64	65
342	6	170	173	174
343	6	124	123	173
344	4	85	84	86
345	1	127	129	130
346	7	171	170	172
347	6	154	153	156
348	1	94	96	97
349	1	7	84	86
350	4	9	11	12
351	6	122	123	173
352	4	198	197	199
353	8	201	200	202
354	1	23	22	56
355	6	152	153	154
356	6	167	170	172
357	1	29	49	47
358	4	147	146	148
359	1	103	104	105
360	4	122	176	177
361	4	26	25	27
362	1	113	115	180
363	6	58	21	70
364	4	15	75	76
365	4	20	73	74
366	1	124	159	157
367	4	117	118	119
368	1	131	132	134
369	4	8	82	83
370	1	199	200	201
371	6	49	50	52
372	6	20	21	58
373	6	60	58	61
374	1	130	131	152
375	1	11	13	14
376	1	111	113	115
377	1	130	131	132

Dihedrals

1	1	188	187	189	190
2	1	136	137	148	146
3	2	38	40	41	89
4	1	192	194	206	207
5	1	18	20	73	74
6	8	163	161	164	167
7	6	23	22	21	70
8	1	26	25	27	54
9	16	193	192	194	195
10	5	15	14	13	77
11	1	28	29	49	47
12	6	13	77	78	81
13	1	117	178	176	177
14	2	38	40	41	42
15	1	123	124	159	157
16	8	58	21	70	72
17	8	66	64	67	70
18	8	59	58	21	70
19	19	172	170	173	174
20	1	32	30	29	49
21	1	116	115	180	185
22	19	171	170	173	174
23	1	22	23	25	26
24	19	63	61	64	65
25	16	197	199	200	201
26	1	16	18	20	73
27	1	4	3	5	7
28	19	65	64	67	69
29	1	100	99	101	102
30	1	48	47	49	50
31	6	120	122	123	173
32	1	35	34	47	49
33	1	138	140	142	146
34	2	144	143	142	146
35	4	82	8	7	84
36	6	124	123	122	176
37	1	89	91	101	102
38	1	38	40	43	44
39	9	58	61	64	67
39	10	58	61	64	67
39	11	58	61	64	67
40	8	60	58	21	70
41	1	108	107	109	110
42	6	18	20	21	58
43	1	24	23	25	27
44	1	139	138	140	141
45	1	15	16	18	19
46	1	197	199	204	206
47	1	34	35	45	46
48	4	32	34	35	45
49	16	98	97	192	194
50	1	106	105	107	108
51	1	21	20	73	75
52	1	195	194	206	207
53	1	138	137	148	146
54	1	92	91	101	102
55	8	21	58	61	63
56	1	28	27	54	55
57	19	166	164	167	168
58	1	104	189	187	109
59	7	122	123	161	164
60	6	131	152	153	156
61	1	9	11	13	77
62	1	31	30	32	34
63	19	60	58	61	63
64	1	123	124	125	126
65	8	161	164	167	168
66	1	1	2	3	4
67	1	14	15	75	76
68	19	62	61	64	65
69	7	20	21	58	61
70	1	41	40	43	45
71	5	11	13	14	15
72	9	161	123	173	170
72	10	161	123	173	170
72	11	161	123	173	170
73	1	14	13	77	78
74	8	61	64	67	68
75	1	21	22	56	57
76	1	91	92	94	95
77	1	110	109	187	188
78	21	201	200	202	203
78	22	201	200	202	203
79	1	19	18	20	73
80	1	120	122	176	177
81	2	105	104	103	191
82	1	125	124	159	157
83	1	110	111	113	115
84	1	130	131	152	153
85	14	40	41	89	91
85	15	40	41	89	91
86	1	106	105	104	189
87	7	122	123	173	170
88	5	29	28	27	54
89	1	92	94	96	99
90	1	110	185	180	115
91	1	136	150	152	153
92	5	27	28	29	30
93	1	89	91	101	99
94	1	119	118	117	178
95	8	161	123	173	174
96	4	5	7	8	82
97	6	115	180	181	184
98	1	16	18	20	21
99	5	25	27	28	29
100	1	105	107	109	110
101	1	17	16	18	20
102	1	127	129	157	159
103	1	134	132	131	152
104	1	112	111	113	115
105	8	58	21	70	71
106	6	182	181	180	185
107	1	34	35	45	43
108	19	66	64	67	69
109	1	108	107	109	187
110	1	39	38	40	43
111	1	28	29	30	32
112	8	167	170	173	175
113	6	150	152	153	156
114	1	196	195	194	206
115	19	59	58	61	63
116	19	65	64	67	68
117	1	4	3	5	6
118	4	185	110	109	187
119	1	30	32	34	35
120	7	122	123	173	174
121	1	135	134	136	137
122	1	37	36	35	45
123	1	35	34	47	48
124	1	29	49	47	48
125	16	99	96	97	192
126	7	20	21	70	67
127	4	9	8	7	84
128	1	28	29	49	50
129	1	14	15	75	73
130	1	23	25	27	54
131	1	130	131	132	134
132	1	205	204	206	207
133	1	21	22	56	54
134	1	139	138	137	148
135	6	125	124	123	161
136	1	33	32	34	35
137	1	197	199	204	205
138	1	109	110	111	113
139	16	98	97	192	193
140	1	3	2	86	84
141	4	111	110	109	187
142	6	58	21	20	73
143	8	169	167	170	173
144	1	112	111	110	185
145	1	130	131	152	150
146	9	164	167	170	173
146	10	164	167	170	173
146	11	164	167	170	173
147	14	42	41	89	91
147	15	42	41	89	91
148	16	41	89	91	101
149	1	194	206	204	199
150	1	21	20	73	74
151	1	135	134	136	150
152	1	12	11	13	14
153	6	159	124	123	173
154	1	117	178	176	122
155	1	93	92	91	101
156	4	134	136	137	148
157	7	122	123	161	163
158	19	60	58	61	62
159	7	20	21	70	71
160	1	196	195	197	199
161	1	158	157	159	160
162	1	181	180	185	186
163	7	20	21	58	60
164	1	41	40	43	44
165	1	109	187	189	190
166	1	137	148	146	142
167	1	34	47	49	50
168	1	78	77	82	83
169	1	132	131	152	153
170	1	118	117	178	176
171	1	97	96	99	101
172	7	124	123	161	164
173	6	20	21	22	56
174	1	103	104	189	190
175	8	165	164	167	170
176	1	110	111	113	114
177	8	123	173	170	172
178	2	3	2	1	88
179	19	162	161	164	165
180	1	105	107	109	187
181	1	21	22	23	25
182	1	8	7	84	85
183	12	40	41	89	90
183	13	40	41	89	90
184	1	116	115	180	181
185	6	80	78	77	82
186	1	36	38	40	43
187	1	138	137	148	149
188	1	7	8	82	83
189	1	111	110	185	186
190	9	164	161	123	173
190	10	164	161	123	173
190	11	164	161	123	173
191	6	70	21	20	73
192	7	124	123	173	170
193	16	96	97	192	194
194	1	35	36	38	39
195	8	168	167	170	173
196	6	47	49	50	53
197	1	20	73	75	76
198	1	116	117	118	119
199	1	14	15	16	18
200	2	86	2	1	88
201	1	127	129	157	158
202	1	112	111	113	114
203	1	125	124	159	160
204	5	131	130	129	157
205	6	29	49	50	52
206	1	25	23	22	56
207	1	28	29	30	31
208	1	8	9	11	13
209	4	148	137	136	150
210	8	167	170	173	174
211	6	150	152	153	155
212	19	59	58	61	62
213	1	5	7	84	86
214	1	96	99	101	102
215	1	9	8	82	77
216	19	68	67	70	71
217	7	124	123	173	174
218	1	109	110	185	180
219	1	2	3	5	7
220	7	22	21	70	72
221	1	136	137	138	140
222	1	131	152	150	151
223	1	4	3	2	86
224	1	132	134	136	137
225	8	163	161	123	173
226	6	56	22	21	70
227	1	89	91	92	94
228	1	132	131	152	150
229	1	94	96	99	101
230	7	22	21	58	59
231	1	103	104	189	187
232	1	109	110	111	112
233	1	125	127	129	157
234	1	7	84	86	87
235	8	63	61	64	67
236	1	30	32	34	47
237	8	21	70	67	69
238	1	118	120	122	123
239	1	55	54	56	57
240	1	125	127	129	130
241	4	134	136	137	138
242	7	122	123	161	162
243	1	104	105	107	109
244	1	2	86	84	85
245	1	196	195	197	198
246	1	36	35	45	43
247	1	200	199	204	206
248	1	132	134	136	150
249	6	183	181	180	185
250	1	97	96	99	100
251	1	6	5	7	84
252	9	58	21	70	67
252	10	58	21	70	67
252	11	58	21	70	67
253	1	3	2	86	87
254	8	123	173	170	171
255	1	1	2	86	87
256	1	127	125	124	159
257	6	173	123	122	176
258	5	13	14	15	16
259	1	21	22	23	24
260	8	123	161	164	165
261	6	29	49	50	51
262	16	98	97	96	99
263	1	107	105	104	189
264	1	9	8	82	83
265	1	109	110	185	186
266	19	163	161	164	166
267	8	166	164	167	170
268	1	7	8	9	11
269	9	161	164	167	170
269	10	161	164	167	170
269	11	161	164	167	170
270	1	27	54	56	57
271	6	23	22	21	58
272	5	129	130	131	152
273	2	140	142	143	145
274	19	168	167	170	172
275	1	30	29	49	50
276	1	12	11	13	77
277	8	62	61	64	67
278	6	13	77	78	80
279	5	129	130	131	132
280	9	61	64	67	70
280	10	61	64	67	70
280	11	61	64	67	70
281	8	64	67	70	72
282	1	3	5	7	8
283	1	118	117	178	179
284	1	14	15	16	17
285	1	121	120	122	123
286	1	120	118	117	178
287	1	105	104	189	187
288	1	91	101	99	100
289	1	124	159	157	129
290	1	137	136	150	152
291	16	202	200	199	204
292	5	115	116	117	118
293	1	5	7	84	85
294	1	25	27	54	56
295	7	22	21	70	71
296	9	61	58	21	70
296	10	61	58	21	70
296	11	61	58	21	70
297	1	114	113	115	116
298	1	136	137	138	139
299	1	197	195	194	206
300	1	195	197	199	200
301	1	8	82	77	78
302	8	58	61	64	66
303	19	69	67	70	72
304	4	107	109	110	185
305	1	26	25	27	28
306	1	24	23	25	26
307	1	107	109	187	189
308	1	123	122	176	178
309	1	94	96	99	100
310	1	1	2	86	84
311	1	131	132	134	136
312	1	140	138	137	148
313	19	172	170	173	175
314	1	198	197	199	204
315	1	22	23	25	27
316	8	21	70	67	68
317	1	121	120	122	176
318	8	65	64	67	70
319	1	117	118	120	122
320	8	21	58	61	62
321	2	145	143	142	146
322	6	131	152	153	155
323	1	31	30	32	33
324	1	19	18	20	21
325	1	104	105	107	108
326	1	195	197	199	204
327	1	30	29	49	47
328	1	38	40	43	45
329	1	200	199	204	205
330	1	94	92	91	101
331	1	104	189	187	188
332	6	18	20	21	70
333	16	97	192	194	195
334	1	110	185	180	181
335	1	124	125	127	129
336	6	81	78	77	82
337	4	36	35	34	47
338	1	114	113	115	180
339	1	15	16	18	20
340	1	142	146	148	149
341	1	151	150	152	153
342	1	199	204	206	207
343	1	143	142	146	148
344	1	134	136	150	152
345	2	43	40	41	89
346	1	11	13	77	82
347	1	141	140	142	146
348	1	29	30	32	34
349	19	163	161	164	165
350	1	95	94	96	99
351	1	15	75	73	20
352	5	27	28	29	49
353	4	107	109	110	111
354	8	60	58	61	64
355	16	97	192	194	206
356	1	1	2	3	5
357	1	103	104	105	107
358	1	129	157	159	160
359	1	36	35	45	46
360	1	29	49	47	34
361	19	62	61	64	66
362	1	126	125	127	129
363	6	13	77	78	79
364	16	90	89	91	92
365	8	64	67	70	71
366	6	115	180	181	183
367	1	91	92	94	96
368	1	17	16	18	19
369	1	192	194	195	197
370	1	120	122	176	178
371	19	66	64	67	68
372	8	162	161	164	167
373	1	37	36	38	40
374	1	133	132	134	136
375	1	137	136	150	151
376	6	122	123	124	125
377	1	119	118	120	122
378	1	23	22	56	54
379	1	25	27	54	55
380	1	22	56	54	55
381	1	113	115	180	185
382	8	161	123	173	175
383	1	24	23	22	56
384	1	16	15	75	73
385	8	58	61	64	65
386	19	69	67	70	71
387	1	130	131	132	133
388	1	35	45	43	44
389	1	40	43	45	46
390	1	116	117	178	176
391	1	107	109	187	188
392	1	123	122	176	177
393	1	111	113	115	116
394	6	120	122	123	124
395	1	194	206	204	205
396	1	5	3	2	86
397	1	105	104	189	190
398	5	117	116	115	180
399	9	123	173	170	167
399	10	123	173	170	167
399	11	123	173	170	167
400	1	126	125	124	159
401	1	131	132	134	135
402	19	169	167	170	172
403	1	34	35	36	38
404	8	164	167	170	172
405	17	42	41	89	90
405	18	42	41	89	90
406	1	13	77	82	83
407	8	59	58	61	64
408	1	3	5	7	84
409	1	18	16	15	75
410	1	31	30	29	49
411	1	117	118	120	121
412	16	193	192	194	206
413	7	122	123	173	175
414	1	10	9	11	13
415	6	159	124	123	161
416	8	162	161	123	173
417	1	141	140	142	143
418	1	177	176	178	179
419	6	131	152	153	154
420	1	192	194	206	204
421	1	74	73	75	76
422	7	20	21	58	59
423	1	130	129	157	159
424	1	128	127	129	157
425	1	124	125	127	128
426	6	125	124	123	173
427	7	124	123	161	163
428	1	33	32	34	47
429	7	22	21	58	61
430	6	184	181	180	185
431	19	165	164	167	169
432	1	23	25	27	28
433	4	32	34	35	36
434	1	91	101	99	96
435	1	122	176	178	179
436	1	128	127	129	130
437	1	194	195	197	199
438	1	143	142	146	147
439	1	134	136	150	151
440	6	18	20	21	22
441	1	111	113	115	180
442	1	29	30	32	33
443	1	92	94	96	97
444	16	96	97	192	193
445	1	93	92	94	96
446	7	22	21	70	67
447	7	20	21	70	72
448	1	10	9	8	82
449	6	47	49	50	52
450	1	103	104	105	106
451	1	140	142	146	148
452	1	126	125	127	128
453	2	3	2	1	103
454	1	118	120	122	176
455	6	115	180	181	182
456	1	137	138	140	142
457	1	133	132	131	152
458	1	32	34	47	49
459	16	94	96	97	192