Title

207 atoms
222 bonds
377 angles
599 dihedrals
276 impropers

11 atom types
15 bond types
8 angle types
22 dihedral types
3 improper types
-19.53199959 80.46800041 xlo xhi
-5.046000004 94.954 ylo yhi
-24.47699928 75.52300072 zlo zhi
0.0 0.0 0.0 xy xz yz

Masses

1	14.00672
2	12.01078
3	1.007947
4	15.99943
5	12.01078
6	1.007947
7	18.998403
8	1.007947
9	15.99943
10	15.99943
11	1.007947


Pair Coeffs

1	0.16769152	3.206876
2	0.086879315	3.4806469
3	0.015611343	2.5725815
4	0.16846514	3.0251065
5	0.10884061	3.3795318
6	0.014090815	1.1034277
7	0.061	3.1181455
8	0.015779483	2.6445434
9	0.2102061	3.0398122
10	0.20947353	2.99716
11	1.2326e-05	0.53453923

Bond Coeffs

1 harmonic	390.03554688505	1.390160554689
2 harmonic	505.144496193	1.019481865027
3 harmonic	422.7150220147	1.421786517481
4 harmonic	360.7852444772	1.387193227181
5 harmonic	397.2545789619	1.085358495916
6 harmonic	279.1350963404	1.454628925034
7 harmonic	425.69104206635	1.362945806494
8 harmonic	289.73813263395	1.498646816465
9 harmonic	264.62148576755	1.52190126495
10 harmonic	492.76746816345	1.381897776683
11 harmonic	340.45121009905	1.358690858053
12 harmonic	370.04670688625	1.093899492634
13 harmonic	582.698766451	1.225198386222
14 harmonic	385.7604595587	1.369745182308
15 harmonic	543.5267831885	0.9716763312559


Angle Coeffs

1 harmonic	57.8982893754	126.8062420451
2 harmonic	55.42182150775	117.3465570514
3 harmonic	63.44422595415	115.5071327674
4 harmonic	34.066775159195	129.1835929926
5 harmonic	65.09061609600001	110.3538806181
6 harmonic	53.20531626545	116.5475862634
7 harmonic	48.776492647595	115.6030999533
8 harmonic	201.41175231035	127.4691416191


Dihedral Coeffs

1 fourier 1	3.661930099076	2	180
2 fourier 1	1.193093382682	2	180
3 fourier 1	0.02021088501612	1	0
4 fourier 1	1.163235555439	2	180
5 fourier 1	1.532232714475	2	180
6 fourier 1	0.02664938770063	3	0
7 fourier 1	0.1155372516788	3	0
8 fourier 1	0.1040663847541	3	0
9 fourier 1	0.09223874044423	3	0
10 fourier 1	0.3159935921949	2	180
11 fourier 1	0.3247796806857	1	180
12 fourier 1	3.101948770557	2	180
13 fourier 1	-0.4252153282372	1	0
14 fourier 1	1.809047390003	2	180
15 fourier 1	-0.04816277792592	1	0
16 fourier 1	0.9974165607242	2	180
17 fourier 1	2.348375642009	2	180
18 fourier 1	1.256156174911	1	0
19 fourier 1	0.1911926717192	3	0
20 fourier 1	2.687457892086	2	180
21 fourier 1	2.772607909663	2	180
22 fourier 1	0.09692684957115	1	0


Improper Coeffs

1 0.3666666666666667	-1	2
2 0.3333333333333333	-1	2
3 3.5	-1	2


Atoms

1	1	1	-0.412494	14.317	0.495	-0.056000002
2	1	2	0.12542599	12.923	0.41	0.25799999
3	1	2	-0.40782401	12.207	1.527	0.48800001
4	1	3	0.220294	12.682	2.5009999	0.447
5	1	2	-0.115781	10.761	1.434	0.79000002
6	1	3	0.20281599	10.206	2.3499999	0.96799999
7	1	2	-0.12902901	10.143	0.237	0.81800002
8	1	2	-0.135234	8.6929998	0.148	1.094
9	1	2	-0.131063	7.8779998	-0.51300001	0.25099999
10	1	3	0.20611	8.2690001	-1.003	-0.625
11	1	2	-0.297162	6.421	-0.51300001	0.47499999
12	1	3	0.22292501	5.7909999	-1.021	-0.244
13	1	2	0.32788199	5.8920002	0.12800001	1.536
14	1	4	-0.273249	4.5079999	0.198	1.765
15	1	2	0.25766799	3.5179999	-0.156	0.83899999
16	1	2	-0.26884699	2.7720001	0.80500001	0.26899999
17	1	3	0.226559	2.961	1.845	0.49599999
18	1	2	-0.17621	1.6569999	0.44999999	-0.62599999
19	1	3	0.216739	1.054	1.252	-1.041
20	1	2	-0.188279	1.349	-0.84500003	-0.87900001
21	1	5	0.01526	0.077	-1.164	-1.6950001
22	1	2	-0.188279	-1.137	-0.59600002	-0.912
23	1	2	-0.17621	-2.2279999	-0.055	-1.507
24	1	3	0.216739	-2.313	0.028000001	-2.5780001
25	1	2	-0.26884699	-3.3440001	0.49700001	-0.70599997
26	1	3	0.226559	-4.1739998	0.97899997	-1.214
27	1	2	0.25766799	-3.3069999	0.433	0.634
28	1	4	-0.273249	-4.3099999	0.99199998	1.4349999
29	1	2	0.32788199	-5.677	1.028	1.118
30	1	2	-0.297162	-6.2979999	2.2160001	1.122
31	1	3	0.22292501	-5.7379999	3.122	1.316
32	1	2	-0.131063	-7.75	2.309	0.88099998
33	1	3	0.20611	-8.2119999	3.283	0.92400002
34	1	2	-0.135234	-8.4779997	1.2029999	0.65100002
35	1	2	-0.12902901	-9.9549999	1.273	0.52600002
36	1	2	-0.12977	-10.613	0.495	-0.354
37	1	3	0.20281599	-10.076	-0.15899999	-1.029
38	1	2	-0.37598801	-12.091	0.51800001	-0.41800001
39	1	3	0.216796	-12.599	-0.131	-1.1160001
40	1	2	0.197707	-12.791	1.306	0.40900001
41	1	1	-0.53268099	-14.219	1.313	0.37599999
42	1	6	0.31886399	-14.765	1.936	1.012
43	1	2	-0.37598801	-12.074	2.171	1.369
44	1	3	0.216796	-12.627	2.813	2.0409999
45	1	2	-0.12977	-10.738	2.161	1.4220001
46	1	3	0.20281599	-10.232	2.773	2.1570001
47	1	2	-0.058127001	-7.7940001	-0.113	0.62300003
48	1	3	0.205185	-8.3909998	-1.001	0.46200001
49	1	2	-0.32315001	-6.4720001	-0.22	0.87400001
50	1	5	0.76608998	-5.8189998	-1.5880001	0.94499999
51	1	7	-0.20938	-6.7529998	-2.586	1.1670001
52	1	7	-0.20938	-5.1599998	-1.854	-0.245
53	1	7	-0.20938	-4.9109998	-1.631	1.988
54	1	2	-0.26884699	-2.1619999	-0.222	1.298
55	1	3	0.226559	-2.151	-0.32300001	2.378
56	1	2	-0.17621	-1.1569999	-0.72799999	0.57700002
57	1	3	0.216739	-0.354	-1.247	1.089
58	1	5	-0.12925699	-0.133	-2.698	-1.844
59	1	8	0.110712	-0.29800001	-3.1689999	-0.85100001
60	1	8	0.110712	0.77399999	-3.1570001	-2.293
61	1	5	-0.129007	-1.324	-3.0539999	-2.7509999
62	1	8	0.113025	-1.279	-4.1409998	-2.9719999
63	1	8	0.113025	-2.2780001	-2.8800001	-2.2049999
64	1	5	-0.150567	-1.352	-2.2709999	-4.0760002
65	1	8	0.115732	-2.237	-1.607	-4.1030002
66	1	8	0.115732	-1.471	-2.9779999	-4.9250002
67	1	5	-0.129007	-0.090999998	-1.438	-4.3130002
68	1	8	0.113025	-0.227	-0.81300002	-5.223
69	1	8	0.113025	0.75599998	-2.131	-4.5139999
70	1	5	-0.12925699	0.27200001	-0.52399999	-3.1259999
71	1	8	0.110712	1.342	-0.26699999	-3.2909999
72	1	8	0.110712	-0.25099999	0.45300001	-3.217
73	1	2	-0.17621	2.214	-1.9069999	-0.264
74	1	3	0.216739	2.0250001	-2.9560001	-0.42699999
75	1	2	-0.26884699	3.2349999	-1.574	0.54500002
76	1	3	0.226559	3.835	-2.349	1.005
77	1	2	-0.32315001	6.7930002	0.81199998	2.5090001
78	1	5	0.76608998	6.1960001	1.451	3.7390001
79	1	7	-0.20938	5.6079998	0.47400001	4.5190001
80	1	7	-0.20938	7.1529999	2.115	4.4920001
81	1	7	-0.20938	5.2309999	2.3640001	3.365
82	1	2	-0.058127001	8.1219997	0.81999999	2.2839999
83	1	3	0.205185	8.8009996	1.303	2.973
84	1	2	-0.115781	10.936	-0.99400002	0.56400001
85	1	3	0.20281599	10.46	-1.97	0.58700001
86	1	2	-0.40782401	12.252	-0.91000003	0.31799999
87	1	3	0.220294	12.832	-1.816	0.148
88	1	6	0.37202501	14.89	-0.37400001	-0.13600001
89	1	2	0.76767999	-14.76	0.68300003	-0.289
90	1	9	-0.66066802	-14.704	0.91299999	-1.526
91	1	2	-0.38191	-15.558	-0.43900001	0.236
92	1	2	-0.103797	-15.606	-0.67000002	1.559
93	1	3	0.21828499	-15.063	-0.039000001	2.2520001
94	1	2	-0.040495001	-16.405001	-1.793	2.0940001
95	1	3	0.21415301	-16.424999	-1.955	3.165
96	1	2	-0.35247901	-17.091	-2.596	1.263
97	1	2	0.59147799	-17.885	-3.7130001	1.8049999
98	1	9	-0.530258	-18.534	-4.474	1.04
99	1	2	-0.040495001	-17.039	-2.342	-0.199
100	1	3	0.21415301	-17.586	-2.9779999	-0.884
101	1	2	-0.103797	-16.316	-1.325	-0.68300003
102	1	3	0.21828499	-16.289	-1.155	-1.752
103	1	1	-0.41249299	14.755	1.408	-0.28799999
104	1	2	0.12542599	15.797	1.493	-1.266
105	1	2	-0.40782401	16.389	0.377	-1.73
106	1	3	0.220294	16.089001	-0.59799999	-1.36
107	1	2	-0.115781	17.450001	0.46900001	-2.7579999
108	1	3	0.20281599	17.909	-0.447	-3.1170001
109	1	2	-0.12902901	17.82	1.666	-3.2539999
110	1	2	-0.135234	18.861	1.755	-4.3000002
111	1	2	-0.131063	18.621	2.4159999	-5.447
112	1	3	0.20611	17.676001	2.9070001	-5.6139998
113	1	2	-0.297162	19.622999	2.4170001	-6.527
114	1	3	0.22292501	19.381001	2.925	-7.4520001
115	1	2	0.32788199	20.799	1.775	-6.3709998
116	1	4	-0.273249	21.764	1.705	-7.388
117	1	2	0.25766799	21.552999	2.059	-8.7270002
118	1	2	-0.26884699	21.5	1.099	-9.665
119	1	3	0.226559	21.582001	0.057999998	-9.3800001
120	1	2	-0.17621	21.384001	1.4529999	-11.089
121	1	3	0.216739	21.379	0.65100002	-11.821
122	1	2	-0.188279	21.348	2.7479999	-11.486
123	1	5	0.01526	21.385	3.0669999	-12.997
124	1	2	-0.188279	22.714001	2.4990001	-13.563
125	1	2	-0.17621	22.834	1.9579999	-14.8
126	1	3	0.216739	21.993999	1.875	-15.471
127	1	2	-0.26884699	24.122999	1.406	-15.275
128	1	3	0.226559	24.167999	0.92400002	-16.246
129	1	2	0.25766799	25.211	1.47	-14.492
130	1	4	-0.273249	26.437	0.91100001	-14.873
131	1	2	0.32788199	26.941999	0.875	-16.183001
132	1	2	-0.297162	27.292	-0.31200001	-16.695
133	1	3	0.22292501	27.139	-1.219	-16.122
134	1	2	-0.131063	27.908001	-0.40599999	-18.032
135	1	3	0.20611	28.202	-1.38	-18.391001
136	1	2	-0.135234	28.125999	0.69999999	-18.764
137	1	2	-0.12902901	28.851	0.63	-20.056999
138	1	2	-0.079186	28.490999	1.408	-21.096001
139	1	3	0.20281599	27.631001	2.062	-21.028999
140	1	2	-0.45194399	29.266001	1.385	-22.355
141	1	3	0.228771	28.974001	2.0339999	-23.167
142	1	2	0.31645	30.344999	0.597	-22.469999
143	1	1	-0.84528601	31.118	0.58999997	-23.672001
144	1	6	0.36524999	30.875	1.209	-24.476999
145	1	6	0.36524999	31.951	-0.033	-23.766001
146	1	2	-0.45194399	30.737	-0.26800001	-21.337999
147	1	3	0.228771	31.603001	-0.91000003	-21.419001
148	1	2	-0.079186	30.032	-0.25799999	-20.202
149	1	3	0.20281599	30.356001	-0.87	-19.371
150	1	2	-0.058127001	27.719	2.016	-18.214001
151	1	3	0.205185	27.921	2.904	-18.798
152	1	2	-0.32315001	27.184999	2.1240001	-16.978001
153	1	5	0.76608998	26.877001	3.4909999	-16.398001
154	1	7	-0.20938	27.584999	4.4889998	-17.046
155	1	7	-0.20938	25.523001	3.757	-16.52
156	1	7	-0.20938	27.232	3.5339999	-15.061
157	1	2	-0.26884699	25.118999	2.1259999	-13.172
158	1	3	0.226559	26.007	2.2260001	-12.558
159	1	2	-0.17621	23.958	2.631	-12.745
160	1	3	0.216739	23.931999	3.1500001	-11.793
161	1	5	-0.12925699	21.379999	4.6009998	-13.255
162	1	8	0.110712	22.295	5.072	-12.834
163	1	8	0.110712	20.499001	5.0609999	-12.755
164	1	5	-0.129007	21.297001	4.9569998	-14.749
165	1	8	0.113025	21.087999	6.0450001	-14.835
166	1	8	0.113025	22.283001	4.783	-15.233
167	1	5	-0.150567	20.215	4.1739998	-15.516
168	1	8	0.115732	20.688999	3.51	-16.264
169	1	8	0.115732	19.579	4.881	-16.09
170	1	5	-0.129007	19.312	3.3410001	-14.604
171	1	8	0.113025	18.634001	2.7160001	-15.227
172	1	8	0.113025	18.671	4.0339999	-14.016
173	1	5	-0.12925699	20.091	2.427	-13.638
174	1	8	0.110712	19.354	2.1700001	-12.845
175	1	8	0.110712	20.309	1.451	-14.122
176	1	2	-0.17621	21.371	3.8110001	-10.425
177	1	3	0.216739	21.341999	4.8590002	-10.673
178	1	2	-0.26884699	21.468	3.477	-9.1260004
179	1	3	0.226559	21.513	4.2529998	-8.3710003
180	1	2	-0.32315001	21.099001	1.092	-5.079
181	1	5	0.76608998	22.451	0.45199999	-4.8829999
182	1	7	-0.20938	23.427999	1.429	-4.9330001
183	1	7	-0.20938	22.539	-0.212	-3.6689999
184	1	7	-0.20938	22.684	-0.461	-5.8920002
185	1	2	-0.058127001	20.167	1.0829999	-4.105
186	1	3	0.205185	20.357	0.60000002	-3.1559999
187	1	2	-0.115781	17.164	2.8970001	-2.74
188	1	3	0.20281599	17.451	3.8729999	-3.1210001
189	1	2	-0.40782401	16.223	2.8139999	-1.788
190	1	3	0.220294	15.757	3.72	-1.403
191	1	6	0.37202501	14.367	2.277	0.141
192	1	2	0.59147799	-17.917999	-3.891	2.872
193	1	9	-0.530258	-17.660999	-5.046	3.3050001
194	1	2	-0.35247901	-18.259001	-2.796	3.7980001
195	1	2	-0.037025999	-18.531	-1.571	3.3199999
196	1	3	0.21415301	-18.503	-1.373	2.2550001
197	1	2	-0.079089001	-18.874001	-0.46700001	4.2410002
198	1	3	0.230298	-19.087	0.50800002	3.8199999
199	1	2	-0.280954	-18.917999	-0.67500001	5.5700002
200	1	2	0.83815199	-19.26	0.419	6.506
201	1	9	-0.49068999	-19.518	1.577	6.0749998
202	1	10	-0.665856	-19.299	0.178	7.8759999
203	1	11	0.41690499	-19.532	0.917	8.5279999
204	1	2	-0.079089001	-18.618	-2.03	6.0970001
205	1	3	0.230298	-18.646999	-2.2219999	7.1620002
206	1	2	-0.037025999	-18.306999	-3.03	5.2620001
207	1	3	0.21415301	-18.091999	-4.0110002	5.6669998

Bonds

1	1	1	2
2	2	1	88
3	3	1	103
4	4	2	3
5	4	2	86
6	5	3	4
7	4	3	5
8	5	5	6
9	4	5	7
10	6	7	8
11	4	7	84
12	4	8	9
13	4	8	82
14	5	9	10
15	4	9	11
16	5	11	12
17	4	11	13
18	7	13	14
19	4	13	77
20	7	14	15
21	4	15	16
22	4	15	75
23	5	16	17
24	4	16	18
25	5	18	19
26	4	18	20
27	8	20	21
28	4	20	73
29	8	21	22
30	9	21	58
31	9	21	70
32	4	22	23
33	4	22	56
34	5	23	24
35	4	23	25
36	5	25	26
37	4	25	27
38	7	27	28
39	4	27	54
40	7	28	29
41	4	29	30
42	4	29	49
43	5	30	31
44	4	30	32
45	5	32	33
46	4	32	34
47	6	34	35
48	4	34	47
49	4	35	36
50	4	35	45
51	5	36	37
52	4	36	38
53	5	38	39
54	4	38	40
55	1	40	41
56	4	40	43
57	2	41	42
58	10	41	89
59	5	43	44
60	4	43	45
61	5	45	46
62	5	47	48
63	4	47	49
64	8	49	50
65	11	50	51
66	11	50	52
67	11	50	53
68	5	54	55
69	4	54	56
70	5	56	57
71	12	58	59
72	12	58	60
73	9	58	61
74	12	61	62
75	12	61	63
76	9	61	64
77	12	64	65
78	12	64	66
79	9	64	67
80	12	67	68
81	12	67	69
82	9	67	70
83	12	70	71
84	12	70	72
85	5	73	74
86	4	73	75
87	5	75	76
88	8	77	78
89	4	77	82
90	11	78	79
91	11	78	80
92	11	78	81
93	5	82	83
94	5	84	85
95	4	84	86
96	5	86	87
97	13	89	90
98	6	89	91
99	4	91	92
100	4	91	101
101	5	92	93
102	4	92	94
103	5	94	95
104	4	94	96
105	6	96	97
106	4	96	99
107	13	97	98
108	6	97	192
109	5	99	100
110	4	99	101
111	5	101	102
112	1	103	104
113	2	103	191
114	4	104	105
115	4	104	189
116	5	105	106
117	4	105	107
118	5	107	108
119	4	107	109
120	6	109	110
121	4	109	187
122	4	110	111
123	4	110	185
124	5	111	112
125	4	111	113
126	5	113	114
127	4	113	115
128	7	115	116
129	4	115	180
130	7	116	117
131	4	117	118
132	4	117	178
133	5	118	119
134	4	118	120
135	5	120	121
136	4	120	122
137	8	122	123
138	4	122	176
139	8	123	124
140	9	123	161
141	9	123	173
142	4	124	125
143	4	124	159
144	5	125	126
145	4	125	127
146	5	127	128
147	4	127	129
148	7	129	130
149	4	129	157
150	7	130	131
151	4	131	132
152	4	131	152
153	5	132	133
154	4	132	134
155	5	134	135
156	4	134	136
157	6	136	137
158	4	136	150
159	4	137	138
160	4	137	148
161	5	138	139
162	4	138	140
163	5	140	141
164	4	140	142
165	1	142	143
166	4	142	146
167	2	143	144
168	2	143	145
169	5	146	147
170	4	146	148
171	5	148	149
172	5	150	151
173	4	150	152
174	8	152	153
175	11	153	154
176	11	153	155
177	11	153	156
178	5	157	158
179	4	157	159
180	5	159	160
181	12	161	162
182	12	161	163
183	9	161	164
184	12	164	165
185	12	164	166
186	9	164	167
187	12	167	168
188	12	167	169
189	9	167	170
190	12	170	171
191	12	170	172
192	9	170	173
193	12	173	174
194	12	173	175
195	5	176	177
196	4	176	178
197	5	178	179
198	8	180	181
199	4	180	185
200	11	181	182
201	11	181	183
202	11	181	184
203	5	185	186
204	5	187	188
205	4	187	189
206	5	189	190
207	13	192	193
208	6	192	194
209	4	194	195
210	4	194	206
211	5	195	196
212	4	195	197
213	5	197	198
214	4	197	199
215	6	199	200
216	4	199	204
217	13	200	201
218	14	200	202
219	15	202	203
220	5	204	205
221	4	204	206
222	5	206	207

Angles

1	6	61	64	66
2	4	137	148	149
3	4	122	176	177
4	3	142	143	144
5	6	51	50	52
6	6	167	170	172
7	1	192	194	206
8	1	9	8	82
9	1	194	206	204
10	1	195	197	199
11	4	2	3	4
12	6	20	21	58
13	6	165	164	167
14	4	157	159	160
15	6	180	181	184
16	1	197	199	200
17	1	105	107	109
18	2	2	1	103
19	1	192	194	195
20	7	168	167	169
21	3	42	41	89
22	6	123	161	163
23	6	124	123	173
24	6	68	67	70
25	6	161	164	167
26	4	187	189	190
27	1	110	109	187
28	1	97	192	194
29	4	194	195	196
30	1	18	20	73
31	4	106	105	107
32	4	198	197	199
33	1	78	77	82
34	1	117	178	176
35	4	91	101	102
36	1	199	200	202
37	1	3	2	86
38	4	9	11	12
39	1	91	92	94
40	6	49	50	51
41	1	109	110	185
42	1	113	115	180
43	6	21	70	67
44	6	60	58	61
45	1	11	13	77
46	1	125	127	129
47	4	199	204	205
48	4	20	73	74
49	1	16	18	20
50	6	183	181	184
51	4	195	197	198
52	6	166	164	167
53	1	5	7	84
54	5	200	202	203
55	4	39	38	40
56	1	30	32	34
57	4	117	178	179
58	4	30	32	33
59	6	123	173	170
60	4	188	187	189
61	1	134	136	137
62	7	59	58	60
63	6	172	170	173
64	4	6	5	7
65	4	77	82	83
66	1	1	2	86
67	1	130	129	157
68	4	73	75	76
69	6	161	164	166
70	1	2	3	5
71	4	3	5	6
72	4	10	9	11
73	6	122	123	161
74	4	31	30	32
75	1	32	34	47
76	4	92	94	95
77	5	27	28	29
78	4	100	99	101
79	1	131	132	134
80	1	41	89	90
81	1	137	148	146
82	4	180	185	186
83	1	34	47	49
84	1	34	35	36
85	5	13	14	15
86	1	130	131	132
87	4	24	23	25
88	1	137	136	150
89	6	168	167	170
90	1	30	29	49
91	1	140	142	143
92	6	63	61	64
93	1	123	124	159
94	6	169	167	170
95	1	47	49	50
96	4	43	45	46
97	1	2	86	84
98	6	52	50	53
99	6	21	58	61
100	7	71	70	72
101	1	109	110	111
102	6	170	173	175
103	4	132	134	135
104	1	136	150	152
105	7	171	170	172
106	3	88	1	103
107	1	181	180	185
108	1	14	15	16
109	6	182	181	184
110	1	103	104	189
111	1	137	138	140
112	4	110	111	112
113	4	91	92	93
114	4	147	146	148
115	4	176	178	179
116	6	152	153	156
117	4	36	38	39
118	1	32	34	35
119	1	3	5	7
120	1	124	159	157
121	6	58	61	62
122	7	65	64	66
123	4	124	159	160
124	4	99	101	102
125	4	12	11	13
126	1	150	152	153
127	6	161	123	173
128	4	158	157	159
129	1	195	194	206
130	3	1	103	191
131	1	120	122	176
132	6	58	61	63
133	1	14	13	77
134	4	22	23	24
135	4	129	157	158
136	1	115	180	181
137	1	96	97	192
138	1	200	199	204
139	4	125	127	128
140	1	23	25	27
141	1	127	129	130
142	4	131	132	133
143	1	132	134	136
144	4	136	150	151
145	1	107	109	187
146	1	193	192	194
147	4	137	138	139
148	1	129	157	159
149	4	177	176	178
150	6	67	70	72
151	4	74	73	75
152	6	167	170	171
153	4	40	43	44
154	4	204	206	207
155	4	4	3	5
156	6	154	153	156
157	6	124	123	161
158	4	104	189	190
159	6	61	64	67
160	1	14	15	75
161	4	55	54	56
162	1	8	82	77
163	6	152	153	154
164	6	64	67	68
165	6	77	78	79
166	4	7	84	85
167	6	123	173	174
168	1	104	105	107
169	1	21	20	73
170	5	115	116	117
171	1	29	49	50
172	1	131	152	153
173	6	20	21	70
174	6	22	21	58
175	1	107	109	110
176	4	48	47	49
177	4	22	56	57
178	4	133	132	134
179	6	171	170	173
180	1	41	89	91
181	1	35	45	43
182	1	116	117	178
183	3	40	41	42
184	7	62	61	63
185	2	40	41	89
186	6	80	78	81
187	1	16	15	75
188	3	104	103	191
189	4	121	120	122
190	4	85	84	86
191	4	15	16	17
192	1	90	89	91
193	1	18	20	21
194	1	138	140	142
195	6	58	21	70
196	4	118	120	121
197	1	96	97	98
198	6	122	123	124
199	1	134	136	150
200	7	162	161	163
201	6	69	67	70
202	4	126	125	127
203	1	132	131	152
204	1	36	35	45
205	7	68	67	69
206	1	96	99	101
207	1	13	77	82
208	6	51	50	53
209	4	138	140	141
210	1	8	7	84
211	1	25	27	54
212	6	20	21	22
213	6	167	170	173
214	4	54	56	57
215	4	96	99	100
216	1	124	125	127
217	1	116	117	118
218	1	29	49	47
219	1	5	7	8
220	6	61	64	65
221	1	27	54	56
222	1	120	122	123
223	4	2	86	87
224	1	123	124	125
225	5	129	130	131
226	6	77	78	80
227	1	127	129	157
228	6	79	78	80
229	1	94	96	97
230	3	144	143	145
231	1	131	152	150
232	4	146	148	149
233	1	23	22	56
234	4	119	118	120
235	1	97	192	193
236	4	29	30	31
237	1	34	35	45
238	1	199	200	201
239	1	110	185	180
240	6	64	67	70
241	1	21	22	23
242	1	94	96	99
243	1	38	40	41
244	1	25	27	28
245	1	28	29	30
246	2	1	103	104
247	1	15	16	18
248	4	194	206	207
249	1	199	204	206
250	6	21	70	72
251	4	108	107	109
252	6	21	58	59
253	1	40	43	45
254	4	112	111	113
255	7	174	173	175
256	4	135	134	136
257	6	59	58	61
258	1	13	77	78
259	4	105	107	108
260	1	8	9	11
261	4	104	105	106
262	4	205	204	206
263	1	143	142	146
264	1	20	73	75
265	4	44	43	45
266	6	66	64	67
267	4	27	54	55
268	4	93	92	94
269	1	21	22	56
270	6	65	64	67
271	6	170	173	174
272	1	91	101	99
273	6	123	161	164
274	6	21	58	60
275	1	89	91	101
276	4	84	86	87
277	6	155	153	156
278	4	34	47	48
279	1	115	180	185
280	4	196	195	197
281	1	7	84	86
282	1	36	38	40
283	1	7	8	9
284	1	28	27	54
285	4	15	75	76
286	6	180	181	183
287	1	38	40	43
288	6	164	167	169
289	1	29	30	32
290	1	22	56	54
291	1	92	94	96
292	1	118	120	122
293	4	110	185	186
294	1	41	40	43
295	1	35	34	47
296	6	58	61	64
297	4	151	150	152
298	1	197	199	204
299	1	140	142	146
300	1	109	187	189
301	6	161	164	165
302	4	111	113	114
303	1	116	115	180
304	4	37	36	38
305	6	123	161	162
306	4	128	127	129
307	4	8	82	83
308	6	64	67	69
309	6	180	181	182
310	1	125	124	159
311	1	136	137	138
312	4	33	32	34
313	6	49	50	53
314	1	111	113	115
315	6	21	70	71
316	6	163	161	164
317	1	110	111	113
318	4	8	9	10
319	3	2	1	88
320	7	165	164	166
321	6	122	123	173
322	1	105	104	189
323	1	122	176	178
324	8	201	200	202
325	6	162	161	164
326	4	26	25	27
327	1	138	137	148
328	6	152	153	155
329	6	67	70	71
330	1	130	131	152
331	1	35	36	38
332	4	19	18	20
333	4	35	45	46
334	4	23	25	26
335	1	111	110	185
336	3	142	143	145
337	6	22	21	70
338	1	136	137	148
339	4	109	187	188
340	1	117	118	120
341	1	118	117	178
342	4	142	146	147
343	4	124	125	126
344	6	164	167	170
345	4	95	94	96
346	1	89	91	92
347	1	92	91	101
348	1	1	2	3
349	6	62	61	64
350	1	11	13	14
351	1	104	189	187
352	1	9	11	13
353	4	141	140	142
354	1	15	75	73
355	1	22	23	25
356	6	164	167	168
357	1	97	96	99
358	6	77	78	81
359	1	142	146	148
360	6	79	78	81
361	1	103	104	105
362	6	182	181	183
363	1	28	29	49
364	4	139	138	140
365	4	17	16	18
366	6	49	50	52
367	4	16	18	19
368	4	117	118	119
369	6	123	173	175
370	4	35	36	37
371	1	123	122	176
372	6	154	153	155
373	1	98	97	192
374	1	7	8	82
375	1	194	195	197
376	1	113	115	116
377	4	114	113	115

Dihedrals

1	1	32	34	47	48
2	1	95	94	96	97
3	1	21	22	23	24
4	1	29	49	47	34
5	1	10	9	11	13
6	6	23	22	21	70
7	1	119	118	117	178
8	1	140	142	146	147
9	1	194	206	204	205
10	7	22	21	70	71
11	1	118	120	122	123
12	1	195	197	199	204
13	1	105	104	189	190
14	19	59	58	61	62
15	7	122	123	161	162
16	16	96	97	192	194
17	9	161	123	173	170
17	10	161	123	173	170
17	11	161	123	173	170
18	4	185	110	109	187
19	1	93	92	94	95
20	1	117	118	120	122
21	1	31	30	32	34
22	1	123	124	159	157
23	1	114	113	115	180
24	1	95	94	96	99
25	1	121	120	122	123
26	1	31	30	32	33
27	8	123	173	170	171
28	7	20	21	58	61
29	1	111	113	115	180
30	1	123	124	159	160
31	4	9	8	7	84
32	1	140	142	146	148
33	1	11	13	77	78
34	1	107	109	187	189
35	8	167	170	173	175
36	1	24	23	25	26
37	1	2	86	84	7
38	19	59	58	61	63
39	6	13	77	78	80
40	8	66	64	67	70
41	1	36	38	40	41
42	1	33	32	34	47
43	8	123	161	164	165
44	19	168	167	170	172
45	6	79	78	77	82
46	1	35	36	38	39
47	1	109	110	185	180
48	1	36	35	45	46
49	1	17	16	18	19
50	1	93	92	91	101
51	1	132	134	136	137
52	1	3	2	86	84
53	1	104	189	187	109
54	1	28	27	54	56
55	1	117	178	176	122
56	7	124	123	173	174
57	6	173	123	122	176
58	1	14	15	75	73
59	19	65	64	67	69
60	1	30	32	34	47
61	8	64	67	70	72
62	1	2	3	5	7
63	1	89	91	101	102
64	1	139	138	137	148
65	1	137	136	150	151
66	1	34	47	49	50
67	8	169	167	170	173
68	1	14	13	77	78
69	1	29	49	47	48
70	8	61	64	67	69
71	1	8	9	11	12
72	1	104	189	187	188
73	1	130	131	152	153
74	4	134	136	137	138
75	1	117	118	120	121
76	1	131	132	134	135
77	2	140	142	143	144
78	6	131	152	153	154
79	19	63	61	64	65
80	16	98	97	96	99
81	7	122	123	173	170
82	1	92	94	96	97
83	1	138	140	142	143
84	1	110	185	180	115
85	1	34	35	36	38
86	19	163	161	164	165
87	4	148	137	136	150
88	1	30	29	49	50
89	5	129	130	131	152
90	19	168	167	170	171
91	1	130	131	132	133
92	1	25	27	54	56
93	1	34	35	45	46
94	19	69	67	70	72
95	1	126	125	124	159
96	2	86	2	1	88
97	8	162	161	123	173
98	1	105	107	109	110
99	19	172	170	173	174
100	19	166	164	167	169
101	8	123	161	164	166
102	5	129	130	131	132
103	1	11	9	8	82
104	8	60	58	21	70
105	1	137	148	146	142
106	5	13	14	15	75
107	1	10	9	11	12
108	6	47	49	50	52
109	6	159	124	123	161
110	16	99	96	97	192
111	1	40	43	45	46
112	1	36	38	40	43
113	1	108	107	109	187
114	1	89	91	92	94
115	1	26	25	27	28
116	1	33	32	34	35
117	5	15	14	13	77
118	1	124	125	127	129
119	1	8	82	77	78
120	14	40	41	89	91
120	15	40	41	89	91
121	1	24	23	22	56
122	1	23	22	56	54
123	16	41	89	91	92
124	1	109	110	111	113
125	1	110	185	180	181
126	1	16	15	75	73
127	4	134	136	137	148
128	19	62	61	64	66
129	1	28	27	54	55
130	1	129	157	159	160
131	6	150	152	153	155
132	1	109	110	185	186
133	1	96	99	101	102
134	9	58	21	70	67
134	10	58	21	70	67
134	11	58	21	70	67
135	1	6	5	7	8
136	1	1	2	86	87
137	1	103	104	189	187
138	1	18	20	73	75
139	1	112	111	113	115
140	1	197	195	194	206
141	19	66	64	67	69
142	1	123	124	125	127
143	1	131	132	134	136
144	1	91	101	99	100
145	1	124	159	157	158
146	1	30	29	49	47
147	1	106	105	107	108
148	1	20	73	75	76
149	1	137	138	140	142
150	1	34	35	36	37
151	1	132	131	152	153
152	8	21	70	67	68
153	1	37	36	38	40
154	1	2	86	84	85
155	1	137	148	146	147
156	8	58	61	64	66
157	1	108	107	109	110
158	1	130	131	152	150
159	1	136	137	148	149
160	6	18	20	21	58
161	1	23	25	27	54
162	1	91	92	94	95
163	1	141	140	142	146
164	1	111	110	185	180
165	1	137	138	140	141
166	1	19	18	20	73
167	8	21	58	61	62
168	1	38	40	43	44
169	6	47	49	50	51
170	6	120	122	123	124
171	1	130	131	132	134
172	7	22	21	70	67
173	7	124	123	161	164
174	1	195	197	199	200
175	6	56	22	21	58
176	7	122	123	161	163
177	8	168	167	170	173
178	19	60	58	61	63
179	1	131	152	150	151
180	5	27	28	29	30
181	1	8	82	77	13
182	1	134	132	131	152
183	1	9	8	82	83
184	1	123	122	176	177
185	8	166	164	167	170
186	1	4	3	5	6
187	1	18	20	73	74
188	1	37	36	35	45
189	8	21	58	61	63
190	1	97	96	99	101
191	1	120	118	117	178
192	1	158	157	159	160
193	5	11	13	14	15
194	1	18	16	15	75
195	1	97	96	99	100
196	3	2	1	103	191
197	8	161	123	173	174
198	19	166	164	167	168
199	17	42	41	89	90
199	18	42	41	89	90
200	16	94	96	97	192
201	1	15	75	73	74
202	1	3	5	7	8
203	1	22	23	25	27
204	1	16	18	20	73
205	2	38	40	41	89
206	7	20	21	70	72
207	1	103	104	105	106
208	1	7	8	9	11
209	1	89	91	92	93
210	9	123	161	164	167
210	10	123	161	164	167
210	11	123	161	164	167
211	1	23	25	27	28
212	1	112	111	110	185
213	2	86	2	1	103
214	16	90	89	91	101
215	1	116	115	180	185
216	19	172	170	173	175
217	1	85	84	86	87
218	7	124	123	161	162
219	1	200	199	204	206
220	6	70	21	20	73
221	1	192	194	206	207
222	9	123	173	170	167
222	10	123	173	170	167
222	11	123	173	170	167
223	6	115	180	181	183
224	1	151	150	152	153
225	5	29	28	27	54
226	1	14	15	16	17
227	1	132	131	152	150
228	1	12	11	13	14
229	1	111	110	185	186
230	1	4	3	2	86
231	5	127	129	130	131
232	1	194	195	197	199
233	19	68	67	70	71
234	8	61	64	67	68
235	3	88	1	103	191
236	2	189	104	103	191
237	1	195	194	206	207
238	8	60	58	61	64
239	1	7	8	82	77
240	1	1	2	3	4
241	6	13	77	78	81
242	4	138	137	136	150
243	1	131	152	150	136
244	1	15	16	18	19
245	1	5	7	84	85
246	1	192	194	206	204
247	6	115	180	181	182
248	4	45	35	34	47
249	16	97	192	194	195
250	1	21	22	56	57
251	1	124	125	127	128
252	1	113	111	110	185
253	1	136	137	148	146
254	6	20	21	22	23
255	1	128	127	129	157
256	6	122	123	124	159
257	1	122	176	178	179
258	1	8	7	84	85
259	9	61	58	21	70
259	10	61	58	21	70
259	11	61	58	21	70
260	5	115	116	117	118
261	8	164	167	170	172
262	1	196	195	194	206
263	1	132	134	136	150
264	1	126	125	127	129
265	2	43	40	41	89
266	1	192	194	195	196
267	7	20	21	58	59
268	1	92	94	96	99
269	1	194	195	197	198
270	1	25	23	22	56
271	4	32	34	35	36
272	16	197	199	200	201
273	1	92	91	101	99
274	19	171	170	173	175
275	1	200	199	204	205
276	1	7	8	9	10
277	1	107	109	187	188
278	7	22	21	58	61
279	1	125	124	159	157
280	1	130	129	157	158
281	6	122	123	124	125
282	1	125	124	159	160
283	7	20	21	70	71
284	8	59	58	61	64
285	1	30	32	34	35
286	1	35	45	43	44
287	1	136	150	152	153
288	1	136	137	138	140
289	6	20	21	22	56
290	19	163	161	164	166
291	1	28	29	49	47
292	1	28	29	30	31
293	1	113	115	180	181
294	8	167	170	173	174
295	1	35	36	38	40
296	8	164	167	170	171
297	1	17	16	18	20
298	1	21	20	73	75
299	1	31	30	29	49
300	2	1	103	104	189
301	19	66	64	67	68
302	1	128	127	129	130
303	19	162	161	164	165
304	1	94	96	99	100
305	1	74	73	75	76
306	1	105	104	189	187
307	1	12	11	13	77
308	1	9	11	13	14
309	1	143	142	146	147
310	1	1	2	86	84
311	1	100	99	101	102
312	1	1	2	3	5
313	6	124	123	122	176
314	6	131	152	153	155
315	19	63	61	64	66
316	2	144	143	142	146
317	1	25	27	54	55
318	1	35	45	43	40
319	8	64	67	70	71
320	6	182	181	180	185
321	1	14	15	75	76
322	6	125	124	123	173
323	6	29	49	50	53
324	6	58	21	20	73
325	6	23	22	21	58
326	1	123	124	125	126
327	1	23	22	56	57
328	16	96	97	192	193
329	1	142	146	148	149
330	9	21	70	67	64
330	10	21	70	67	64
330	11	21	70	67	64
331	6	120	122	123	173
332	1	143	142	146	148
333	1	104	105	107	108
334	1	93	92	94	96
335	8	62	61	64	67
336	6	125	124	123	161
337	1	106	105	107	109
338	5	27	28	29	49
339	19	69	67	70	71
340	6	183	181	180	185
341	1	138	137	148	149
342	14	42	41	89	91
342	15	42	41	89	91
343	16	201	200	199	204
344	1	116	117	118	120
345	4	111	110	109	187
346	1	119	118	120	121
347	7	122	123	161	164
348	1	29	30	32	34
349	1	134	136	150	152
350	6	150	152	153	156
351	7	124	123	173	175
352	1	133	132	134	135
353	1	136	137	138	139
354	1	55	54	56	57
355	9	61	64	67	70
355	10	61	64	67	70
355	11	61	64	67	70
356	1	29	30	32	33
357	7	124	123	161	163
358	20	199	200	202	203
359	1	13	77	82	83
360	16	202	200	199	204
361	1	133	132	131	152
362	1	28	29	30	32
363	8	63	61	64	67
364	6	22	21	20	73
365	8	161	164	167	169
366	1	177	176	178	179
367	1	127	125	124	159
368	1	140	138	137	148
369	9	58	61	64	67
369	10	58	61	64	67
369	11	58	61	64	67
370	3	2	1	103	104
371	1	38	36	35	45
372	1	106	105	104	189
373	1	120	122	176	178
374	1	17	16	15	75
375	2	38	40	41	42
376	1	198	197	199	204
377	1	194	206	204	199
378	1	78	77	82	83
379	16	41	89	91	101
380	1	135	134	136	137
381	4	107	109	110	185
382	5	113	115	116	117
383	1	139	138	140	142
384	1	32	30	29	49
385	1	16	15	75	76
386	9	164	161	123	173
386	10	164	161	123	173
386	11	164	161	123	173
387	1	138	140	142	146
388	9	164	167	170	173
388	10	164	167	170	173
388	11	164	167	170	173
389	6	18	20	21	70
390	1	36	35	45	43
391	6	80	78	77	82
392	1	22	56	54	55
393	6	115	180	181	184
394	1	41	40	43	44
395	5	13	14	15	16
396	1	116	117	118	119
397	1	103	104	189	190
398	1	141	140	142	143
399	1	22	56	54	27
400	2	145	143	142	146
401	5	115	116	117	178
402	1	197	199	204	206
403	1	139	138	140	141
404	1	19	18	20	21
405	1	9	11	13	77
406	6	56	22	21	70
407	19	65	64	67	68
408	1	116	117	178	176
409	1	192	194	195	197
410	8	163	161	164	167
411	1	89	91	101	99
412	6	81	78	77	82
413	16	98	97	192	193
414	1	5	7	84	86
415	1	28	29	49	50
416	16	97	192	194	206
417	1	35	34	47	49
418	19	165	164	167	169
419	2	3	2	1	88
420	4	5	7	8	9
421	1	21	22	56	54
422	1	34	35	45	43
423	6	29	49	50	52
424	3	88	1	103	104
425	1	105	107	109	187
426	1	126	125	127	128
427	1	205	204	206	207
428	1	135	134	136	150
429	1	4	3	5	7
430	7	122	123	173	174
431	1	134	136	150	151
432	5	25	27	28	29
433	1	133	132	134	136
434	1	3	2	86	87
435	1	109	187	189	190
436	1	8	7	84	86
437	9	21	58	61	64
437	10	21	58	61	64
437	11	21	58	61	64
438	19	62	61	64	65
439	1	26	25	27	54
440	1	6	5	7	84
441	1	107	105	104	189
442	6	18	20	21	22
443	6	150	152	153	154
444	1	199	204	206	207
445	1	118	120	122	176
446	7	20	21	70	67
447	1	116	117	178	179
448	7	124	123	173	170
449	1	16	18	20	21
450	16	193	192	194	206
451	1	195	194	206	204
452	1	103	104	105	107
453	1	121	120	122	176
454	1	7	8	82	83
455	1	7	84	86	87
456	8	58	21	70	72
457	1	110	109	187	189
458	1	32	34	47	49