Title

68 atoms
71 bonds
118 angles
171 dihedrals
78 impropers

9 atom types
13 bond types
6 angle types
9 dihedral types
2 improper types
-6.801000118 93.19899988 xlo xhi
-2.97300005 97.02699995 ylo yhi
-8.147999763 91.85200024 zlo zhi
0.0 0.0 0.0 xy xz yz

Masses

1	15.99943
2	12.01078
3	1.007947
4	12.01078
5	1.007947
6	15.99943
7	15.99943
8	1.007947
9	35.4532


Pair Coeffs

1	0.16846514	3.0251065
2	0.086879315	3.4806469
3	0.015611343	2.5725815
4	0.10884061	3.3795318
5	0.015779483	2.6445434
6	0.2102061	3.0398122
7	0.20947353	2.99716
8	1.2326e-05	0.53453923
9	0.2656001	3.3075278

Bond Coeffs

1 harmonic	425.69104206635	1.362945806494
2 harmonic	300.03137914615	1.451203938761
3 harmonic	360.7852444772	1.387193227181
4 harmonic	397.2545789619	1.085358495916
5 harmonic	289.73813263395	1.498646816465
6 harmonic	264.62148576755	1.52190126495
7 harmonic	301.15400723785	1.345741232799
8 harmonic	370.04670688625	1.093899492634
9 harmonic	582.698766451	1.225198386222
10 harmonic	279.1350963404	1.454628925034
11 harmonic	385.7604595587	1.369745182308
12 harmonic	543.5267831885	0.9716763312559
13 harmonic	218.0227703685	1.746066037062


Angle Coeffs

1 harmonic	57.8982893754	126.8062420451
2 harmonic	65.09061609600001	110.3538806181
3 harmonic	34.066775159195	129.1835929926
4 harmonic	53.20531626545	116.5475862634
5 harmonic	201.41175231035	127.4691416191
6 harmonic	48.776492647595	115.6030999533


Dihedral Coeffs

1 fourier 1	3.661930099076	2	180
2 fourier 1	1.532232714475	2	180
3 fourier 1	0.457973137376	1	0
4 fourier 1	0.02664938770063	3	0
5 fourier 1	0.1155372516788	3	0
6 fourier 1	2.779853741805	2	180
7 fourier 1	0.9974165607242	2	180
8 fourier 1	0.1040663847541	3	0
9 fourier 1	0.8283030590042	2	180


Improper Coeffs

1 0.3666666666666667	-1	2
2 3.5	-1	2


Atoms

1	1	1	-0.019354001	4.737	1.4170001	1.64
2	1	2	0.28042999	3.5929999	0.861	1.074
3	1	2	-0.317826	2.589	0.46200001	1.86
4	1	3	0.228331	2.6619999	0.56900001	2.9349999
5	1	2	-0.14531399	1.3710001	-0.12800001	1.2690001
6	1	3	0.212102	0.58399999	-0.45100001	1.938
7	1	2	-0.26216999	1.238	-0.26100001	-0.07
8	1	4	0.0074	-0.037	-0.90600002	-0.64899999
9	1	2	-0.26216999	-1.285	-0.221	-0.059
10	1	2	-0.147691	-1.39	1.127	-0.098999999
11	1	3	0.212102	-0.597	1.7309999	-0.52100003
12	1	2	-0.26970199	-2.582	1.8150001	0.43399999
13	1	3	0.22816201	-2.6289999	2.8959999	0.40000001
14	1	2	0.44103	-3.595	1.107	0.95099998
15	1	1	-0.43990099	-4.7270002	1.742	1.4579999
16	1	2	-0.26970199	-3.513	-0.36500001	0.98299998
17	1	3	0.22816201	-4.336	-0.93800002	1.392
18	1	2	-0.147691	-2.4330001	-0.995	0.50599998
19	1	3	0.212102	-2.4200001	-2.075	0.54400003
20	1	4	-0.13090301	0.026000001	-2.4170001	-0.31900001
21	1	5	0.086662002	0.98400003	-2.852	-0.68000001
22	1	5	0.086662002	-0.035	-2.5899999	0.77700001
23	1	5	0.086662002	-0.79799998	-2.973	-0.81599998
24	1	4	-0.13090301	-0.127	-0.773	-2.188
25	1	5	0.086662002	-1.1	-1.166	-2.5539999
26	1	5	0.086662002	-0.048	0.28999999	-2.503
27	1	5	0.086662002	0.67500001	-1.3559999	-2.691
28	1	2	-0.14531399	2.3789999	0.17399999	-0.93300003
29	1	3	0.212102	2.3429999	0.072999999	-2.0079999
30	1	2	-0.317826	3.4820001	0.70499998	-0.391
31	1	3	0.228331	4.2979999	1.018	-1.03
32	1	2	0.62888199	-4.8239999	2.7869999	1.4529999
33	1	6	-0.492378	-3.8280001	3.4909999	1.464
34	1	1	-0.019354001	5.5110002	1.725	1.063
35	1	2	0.28042999	5.296	2.2809999	-0.19499999
36	1	2	-0.317826	6.3369999	2.6800001	-0.93199998
37	1	3	0.228331	7.3460002	2.573	-0.55400002
38	1	2	-0.14531399	6.1199999	3.27	-2.2679999
39	1	3	0.212102	6.987	3.5929999	-2.8310001
40	1	2	-0.26216999	4.875	3.4030001	-2.779
41	1	4	0.0074	4.6849999	4.0489998	-4.1659999
42	1	2	-0.26216999	5.6079998	3.3640001	-5.1939998
43	1	2	-0.10679	5.5999999	2.016	-5.3049998
44	1	3	0.212102	4.9679999	1.411	-4.6659999
45	1	2	-0.41005501	6.4520001	1.327	-6.2950001
46	1	3	0.233697	6.4330001	0.24600001	-6.3499999
47	1	2	0.434818	7.237	2.0350001	-7.1170001
48	1	7	-0.64806801	8.0469999	1.4	-8.0570002
49	1	8	0.43691	8.0690002	0.391	-8.1479998
50	1	2	-0.41005501	7.2449999	3.507	-7.0300002
51	1	3	0.233697	7.8720002	4.0799999	-7.7010002
52	1	2	-0.10679	6.4780002	4.1370001	-6.131
53	1	3	0.212102	6.5110002	5.217	-6.1079998
54	1	4	-0.13090301	4.9829998	5.559	-4.0110002
55	1	5	0.086662002	4.3629999	5.994	-3.197
56	1	5	0.086662002	6.0510001	5.7319999	-3.756
57	1	5	0.086662002	4.743	6.1149998	-4.9429998
58	1	4	-0.13090301	3.237	3.915	-4.6929998
59	1	5	0.086662002	3.165	4.3080001	-5.7309999
60	1	5	0.086662002	2.9130001	2.852	-4.7080002
61	1	5	0.086662002	2.5250001	4.4980001	-4.0689998
62	1	2	-0.14531399	3.721	2.9679999	-1.933
63	1	3	0.212102	2.7019999	3.069	-2.2750001
64	1	2	-0.317826	3.925	2.437	-0.72100002
65	1	3	0.228331	3.079	2.1240001	-0.121
66	1	2	0.46804899	-5.8080001	3.24	1.438
67	1	6	-0.56643301	-6.8010001	2.539	1.337
68	1	9	-0.080334999	-5.974	4.9819999	1.557

Bonds

1	1	1	2
2	2	1	34
3	3	2	3
4	3	2	30
5	4	3	4
6	3	3	5
7	4	5	6
8	3	5	7
9	5	7	8
10	3	7	28
11	5	8	9
12	6	8	20
13	6	8	24
14	3	9	10
15	3	9	18
16	4	10	11
17	3	10	12
18	4	12	13
19	3	12	14
20	1	14	15
21	3	14	16
22	7	15	32
23	4	16	17
24	3	16	18
25	4	18	19
26	8	20	21
27	8	20	22
28	8	20	23
29	8	24	25
30	8	24	26
31	8	24	27
32	4	28	29
33	3	28	30
34	4	30	31
35	9	32	33
36	10	32	66
37	1	34	35
38	3	35	36
39	3	35	64
40	4	36	37
41	3	36	38
42	4	38	39
43	3	38	40
44	5	40	41
45	3	40	62
46	5	41	42
47	6	41	54
48	6	41	58
49	3	42	43
50	3	42	52
51	4	43	44
52	3	43	45
53	4	45	46
54	3	45	47
55	11	47	48
56	3	47	50
57	12	48	49
58	4	50	51
59	3	50	52
60	4	52	53
61	8	54	55
62	8	54	56
63	8	54	57
64	8	58	59
65	8	58	60
66	8	58	61
67	4	62	63
68	3	62	64
69	4	64	65
70	9	66	67
71	13	66	68

Angles

1	1	8	7	28
2	1	7	28	30
3	4	9	8	20
4	1	12	14	16
5	1	3	5	7
6	1	41	40	62
7	4	40	41	42
8	1	5	7	28
9	4	41	58	61
10	1	10	12	14
11	1	8	9	18
12	3	42	52	53
13	4	8	24	26
14	3	9	18	19
15	2	14	15	32
16	4	42	41	58
17	3	13	12	14
18	1	43	45	47
19	2	47	48	49
20	1	42	43	45
21	3	6	5	7
22	4	41	54	57
23	1	36	38	40
24	1	3	2	30
25	3	39	38	40
26	1	43	42	52
27	4	54	41	58
28	4	40	41	58
29	1	45	47	48
30	1	42	52	50
31	3	9	10	11
32	3	51	50	52
33	1	9	18	16
34	6	56	54	57
35	5	15	32	33
36	4	40	41	54
37	4	7	8	24
38	3	47	50	51
39	1	34	35	36
40	1	14	16	18
41	3	50	52	53
42	6	59	58	60
43	3	35	36	37
44	4	8	20	21
45	6	21	20	22
46	3	16	18	19
47	6	55	54	56
48	3	2	30	31
49	4	7	8	20
50	3	11	10	12
51	6	25	24	26
52	1	41	42	52
53	6	26	24	27
54	1	48	47	50
55	1	36	35	64
56	1	38	40	62
57	4	8	24	27
58	1	1	2	30
59	1	35	36	38
60	4	8	20	22
61	3	17	16	18
62	6	55	54	57
63	6	25	24	27
64	1	5	7	8
65	1	8	9	10
66	1	15	14	16
67	6	60	58	61
68	1	2	30	28
69	2	1	34	35
70	4	41	58	59
71	1	10	9	18
72	1	9	10	12
73	1	34	35	64
74	1	15	32	66
75	3	7	28	29
76	4	41	58	60
77	3	10	12	13
78	1	47	50	52
79	1	1	2	3
80	3	2	3	4
81	3	44	43	45
82	1	45	47	50
83	6	59	58	61
84	6	21	20	23
85	4	41	54	55
86	3	28	30	31
87	1	67	66	68
88	3	37	36	38
89	1	2	3	5
90	3	63	62	64
91	3	35	64	65
92	4	20	8	24
93	4	7	8	9
94	4	8	20	23
95	1	33	32	66
96	3	42	43	44
97	4	41	54	56
98	3	36	38	39
99	3	29	28	30
100	1	32	66	67
101	4	8	24	25
102	3	43	45	46
103	3	40	62	63
104	1	12	14	15
105	4	42	41	54
106	1	38	40	41
107	3	3	5	6
108	6	22	20	23
109	4	9	8	24
110	1	32	66	68
111	3	46	45	47
112	2	2	1	34
113	3	14	16	17
114	1	41	42	43
115	3	4	3	5
116	1	40	62	64
117	3	62	64	65
118	1	35	64	62

Dihedrals

1	1	37	36	38	40
2	8	22	20	8	24
3	2	30	2	1	34
4	5	40	41	54	56
5	1	1	2	30	28
6	7	33	32	66	68
7	5	40	41	58	61
8	1	44	43	45	47
9	4	58	41	40	62
10	1	3	2	30	31
11	1	9	10	12	13
12	5	9	8	24	25
13	1	41	42	52	50
14	1	42	43	45	46
15	1	11	10	12	14
16	1	35	64	62	63
17	1	46	45	47	50
18	4	9	8	7	28
19	4	52	42	41	58
20	1	43	45	47	48
21	1	5	7	28	30
22	5	9	8	20	22
23	2	1	34	35	64
24	8	23	20	8	24
25	1	35	64	62	40
26	1	45	47	50	51
27	8	54	41	58	59
28	1	63	62	64	65
29	1	2	3	5	6
30	5	7	8	24	27
31	1	6	5	7	8
32	1	34	35	36	37
33	1	4	3	5	6
34	4	5	7	8	9
35	4	40	41	42	43
36	4	52	42	41	54
37	1	39	38	40	41
38	1	9	10	12	14
39	5	42	41	58	59
40	1	12	10	9	18
41	1	17	16	18	19
42	4	24	8	7	28
43	5	9	8	20	23
44	4	20	8	7	28
45	1	45	47	50	52
46	1	3	2	30	28
47	1	2	3	5	7
48	8	55	54	41	58
49	1	34	35	36	38
50	1	3	5	7	28
51	1	38	40	62	63
52	1	8	9	18	19
53	5	42	41	58	60
54	1	2	30	28	7
55	1	1	2	3	5
56	8	21	20	8	24
57	5	7	8	20	21
58	5	42	41	54	55
59	1	41	40	62	63
60	1	38	40	62	64
61	5	40	41	54	57
62	1	45	43	42	52
63	1	8	9	18	16
64	4	38	40	41	42
65	5	9	8	24	26
66	8	56	54	41	58
67	1	44	43	42	52
68	1	42	52	50	51
69	1	3	5	7	8
70	1	37	36	35	64
71	1	43	42	52	53
72	8	54	41	58	60
73	7	15	32	66	67
74	8	20	8	24	25
75	1	41	40	62	64
76	1	36	38	40	41
77	1	4	3	5	7
78	4	43	42	41	54
79	1	10	12	14	15
80	3	2	1	34	35
81	1	42	52	50	47
82	1	10	9	18	19
83	5	40	41	58	59
84	5	9	8	24	27
85	1	40	62	64	65
86	1	14	16	18	19
87	1	2	30	28	29
88	4	40	41	42	52
89	1	43	45	47	50
90	1	48	47	50	51
91	8	54	41	58	61
92	1	47	50	52	53
93	4	10	9	8	24
94	1	9	18	16	17
95	6	14	15	32	66
96	1	1	2	30	31
97	1	15	14	16	17
98	1	34	35	64	65
99	1	11	10	9	18
100	1	13	12	14	15
101	9	49	48	47	50
102	1	46	45	47	48
103	1	42	43	45	47
104	4	42	41	40	62
105	1	10	12	14	16
106	1	43	42	52	50
107	5	40	41	58	60
108	4	5	7	8	24
109	2	3	2	1	34
110	5	7	8	24	25
111	4	10	9	8	20
112	5	42	41	58	61
113	4	7	8	9	10
114	7	33	32	66	67
115	1	39	38	40	62
116	1	8	7	28	29
117	1	7	28	30	31
118	5	7	8	20	22
119	1	8	9	10	11
120	1	10	9	18	16
121	4	38	40	41	54
122	4	5	7	8	20
123	1	29	28	30	31
124	5	42	41	54	56
125	1	11	10	12	13
126	8	57	54	41	58
127	4	43	42	41	58
128	1	4	3	2	30
129	5	9	8	20	21
130	4	7	8	9	18
131	5	7	8	24	26
132	1	9	18	16	14
133	1	34	35	64	62
134	1	44	43	45	46
135	1	8	7	28	30
136	4	54	41	40	62
137	5	7	8	20	23
138	1	8	9	10	12
139	1	5	3	2	30
140	1	36	35	64	65
141	1	38	36	35	64
142	5	42	41	54	57
143	2	1	34	35	36
144	1	12	14	16	17
145	7	15	32	66	68
146	4	18	9	8	24
147	8	20	8	24	26
148	1	41	42	43	44
149	1	35	36	38	39
150	4	38	40	41	58
151	4	18	9	8	20
152	1	51	50	52	53
153	1	37	36	38	39
154	5	40	41	54	55
155	1	41	42	52	53
156	1	1	2	3	4
157	1	6	5	7	28
158	1	48	47	50	52
159	9	45	47	48	49
160	1	12	14	16	18
161	8	20	8	24	27
162	1	36	35	64	62
163	1	15	14	16	18
164	1	13	12	14	16
165	2	12	14	15	32
166	1	41	42	43	45
167	1	5	7	28	29
168	2	16	14	15	32
169	1	35	36	38	40
170	2	14	15	32	33
171	1	36	38	40	62

Impropers

4	1	50	47	51	52
5	1	30	2	28	31
6	1	66	68	32	67
11	1	47	45	48	50
17	1	35	34	36	64
19	1	2	30	1	3
20	1	18	9	16	19
22	1	43	45	42	44
40	1	16	18	14	17
41	1	45	46	47	43
45	1	3	5	2	4
48	1	18	16	19	9
49	1	16	17	18	14
54	1	64	65	35	62
57	1	7	28	5	8
61	1	42	41	43	52
66	1	52	42	50	53
70	1	42	43	52	41
76	1	10	9	11	12
82	1	43	42	44	45
84	2	32	15	33	66
89	1	36	35	37	38
95	2	32	66	15	33
101	1	3	2	4	5
103	1	9	18	8	10
104	1	38	40	36	39
105	1	50	52	47	51
106	1	30	28	31	2
107	1	12	13	14	10
108	1	47	50	45	48
115	1	45	47	43	46
120	1	52	50	53	42
123	1	14	16	12	15
130	1	28	30	7	29
133	2	32	33	66	15
134	1	9	8	10	18
137	1	7	8	28	5
138	1	50	51	52	47
140	1	5	7	3	6
144	1	40	62	38	41
154	1	14	15	16	12
155	1	64	35	62	65
160	1	18	19	9	16
161	1	43	44	45	42
162	1	5	3	6	7
163	1	2	1	3	30
166	1	7	5	8	28
176	1	35	64	34	36
185	1	5	6	7	3
190	1	62	63	64	40
192	1	10	12	9	11
193	1	35	36	64	34
199	1	45	43	46	47
201	1	30	31	2	28
203	1	12	10	13	14
204	1	2	3	30	1
206	1	16	14	17	18
219	1	12	14	10	13
226	1	3	4	5	2
232	1	66	67	68	32
233	1	52	53	42	50
247	1	40	38	41	62
250	1	38	39	40	36
252	1	28	7	29	30
254	1	66	32	67	68
263	1	36	38	35	37
270	1	40	41	62	38
271	1	62	64	40	63
275	1	62	40	63	64
277	1	10	11	12	9
278	1	14	12	15	16
279	1	38	36	39	40
284	1	28	29	30	7
288	1	36	37	38	35
291	1	9	10	18	8
293	1	47	48	50	45
297	1	42	52	41	43
298	1	64	62	65	35
