Title

83 atoms
86 bonds
141 angles
217 dihedrals
84 impropers

8 atom types
13 bond types
6 angle types
21 dihedral types
2 improper types
-24.27000046 75.72999954 xlo xhi
-1.483999968 98.51600003 ylo yhi
-9.944999695 90.05500031 zlo zhi
0.0 0.0 0.0 xy xz yz

Masses

1	15.99943
2	12.01078
3	1.007947
4	12.01078
5	15.99943
6	1.007947
7	15.99943
8	1.007947


Pair Coeffs

1	0.16846514	3.0251065
2	0.10884061	3.3795318
3	0.016409246	2.5832257
4	0.086879315	3.4806469
5	0.2102061	3.0398122
6	0.015611343	2.5725815
7	0.20947353	2.99716
8	1.2326e-05	0.53453923

Bond Coeffs

1 harmonic	366.7408841747	1.425895053732
2 harmonic	300.03137914615	1.451203938761
3 harmonic	264.62148576755	1.52190126495
4 harmonic	370.04670688625	1.093899492634
5 harmonic	301.15400723785	1.345741232799
6 harmonic	582.698766451	1.225198386222
7 harmonic	279.1350963404	1.454628925034
8 harmonic	360.7852444772	1.387193227181
9 harmonic	397.2545789619	1.085358495916
10 harmonic	425.69104206635	1.362945806494
11 harmonic	329.96998057905	1.427343958716
12 harmonic	543.5267831885	0.9716763312559
13 harmonic	385.7604595587	1.369745182308


Angle Coeffs

1 harmonic	53.20531626545	116.5475862634
2 harmonic	65.09061609600001	110.3538806181
3 harmonic	201.41175231035	127.4691416191
4 harmonic	57.8982893754	126.8062420451
5 harmonic	48.776492647595	115.6030999533
6 harmonic	34.066775159195	129.1835929926


Dihedral Coeffs

1 fourier 1	-0.0309670556842	3	0
2 fourier 1	0.4598191477945	2	0
3 fourier 1	0.1115525666802	3	0
4 fourier 1	0.3432490222662	1	0
5 fourier 1	0.0473758381877	3	0
6 fourier 1	0.457973137376	1	0
7 fourier 1	0.1918272375143	3	0
8 fourier 1	0.9202179876409	1	180
9 fourier 1	1.163809172478	2	180
10 fourier 1	0.1679186987369	1	180
11 fourier 1	2.779853741805	2	180
12 fourier 1	0.9974165607242	2	180
13 fourier 1	0.1911926717192	3	0
14 fourier 1	3.661930099076	2	180
15 fourier 1	1.532232714475	2	180
16 fourier 1	0.3445382149273	3	0
17 fourier 1	0.1364556373303	1	0
18 fourier 1	0.3026390167484	3	0
19 fourier 1	2.687457892086	2	180
20 fourier 1	2.772607909663	2	180
21 fourier 1	0.09692684957115	1	0


Improper Coeffs

1 3.5	-1	2
2 0.3666666666666667	-1	2


Atoms

1	1	1	-0.13587099	1.576	-0.336	0.85699999
2	1	2	0.052143998	0.63599998	-0.419	-0.17900001
3	1	2	0.157198	-0.71899998	0.11	0.28999999
4	1	1	-0.50239599	-1.675	-0.035999998	-0.72399998
5	1	3	0.090286002	-1.051	-0.46900001	1.177
6	1	3	0.090286002	-0.63099998	1.1799999	0.58899999
7	1	3	0.097847	0.52999997	-1.484	-0.477
8	1	3	0.097847	0.98699999	0.154	-1.068
9	1	4	0.79209501	-1.49	0.71399999	-1.4170001
10	1	5	-0.55410999	-0.32300001	1.177	-1.518
11	1	4	-0.29929999	-2.5899999	1.2180001	-2.26
12	1	4	0.026013	-2.392	2.1889999	-3.1700001
13	1	6	0.220603	-1.414	2.632	-3.3110001
14	1	4	-0.35890001	-3.5150001	2.6719999	-4
15	1	6	0.20582099	-3.336	3.4549999	-4.7270002
16	1	4	0.213102	-4.744	2.1559999	-3.858
17	1	1	-0.41791001	-5.7740002	2.652	-4.6719999
18	1	2	0.085055001	-7.1490002	2.283	-4.5749998
19	1	2	0.085055001	-7.809	2.9679999	-3.3759999
20	1	1	-0.41791001	-9.184	2.599	-3.28
21	1	4	0.213102	-10.214	3.095	-4.0939999
22	1	4	-0.362656	-11.443	2.5780001	-3.951
23	1	6	0.20582099	-11.622	1.796	-3.2249999
24	1	4	0.060970001	-12.565	3.062	-4.7810001
25	1	6	0.20413101	-13.543	2.619	-4.6399999
26	1	4	-0.369082	-12.368	4.033	-5.691
27	1	4	0.58321398	-13.467	4.5359998	-6.5349998
28	1	5	-0.58139002	-14.635	4.073	-6.434
29	1	4	0.060970001	-11.013	4.6110001	-5.849
30	1	6	0.20413101	-10.84	5.3959999	-6.5749998
31	1	4	-0.362656	-9.9949999	4.1729999	-5.0970001
32	1	6	0.20582099	-9.0200005	4.618	-5.2329998
33	1	3	0.083714999	-7.7010002	4.072	-3.4400001
34	1	3	0.083714999	-7.3010001	2.645	-2.4449999
35	1	3	0.083714999	-7.257	1.179	-4.5120001
36	1	3	0.083714999	-7.6570001	2.6059999	-5.507
37	1	4	-0.35890001	-4.9619999	1.0779999	-2.855
38	1	6	0.20582099	-5.9369998	0.63200003	-2.7190001
39	1	4	0.026013	-3.9449999	0.63999999	-2.1029999
40	1	6	0.220603	-4.118	-0.145	-1.377
41	1	1	-0.130217	1.845	0.61799997	0.92000002
42	1	2	0.024096999	3.148	0.70099998	0.41100001
43	1	2	0.096118003	4.1529999	0.17200001	1.434
44	1	7	-0.67734998	5.461	0.31799999	0.95200002
45	1	8	0.39691499	5.5970001	-0.40000001	0.27900001
46	1	3	0.095734	4.0549998	0.75199997	2.3759999
47	1	3	0.095734	3.941	-0.89700001	1.663
48	1	3	0.098540001	3.3759999	1.766	0.192
49	1	3	0.098540001	3.23	0.12800001	-0.54100001
50	1	4	0.58321398	-13.274	5.3189998	-7.2579999
51	1	5	-0.58139002	-12.358	5.1529999	-8.1070004
52	1	4	-0.369082	-14.082	6.552	-7.2329998
53	1	4	0.060970001	-13.874	7.5489998	-8.1120005
54	1	6	0.20413101	-13.102	7.474	-8.868
55	1	4	-0.362656	-14.7	8.7740002	-8.0629997
56	1	6	0.20582099	-14.493	9.5530005	-8.7819996
57	1	4	0.213102	-15.673	8.9029999	-7.1389999
58	1	1	-0.41791001	-16.490999	10.042	-7.039
59	1	2	0.085055001	-16.527	11.132	-7.9619999
60	1	2	0.085055001	-17.249001	10.734	-9.2519999
61	1	1	-0.41791001	-18.542999	10.197	-8.9689999
62	1	4	0.213102	-19.672001	10.932	-8.5699997
63	1	4	-0.35890001	-19.704	12.279	-8.5480003
64	1	6	0.20582099	-18.851999	12.871	-8.8459997
65	1	4	0.029988	-20.926001	12.991	-8.1190004
66	1	6	0.220603	-20.915001	14.073	-8.1110001
67	1	4	-0.28846699	-22.023001	12.305	-7.7480001
68	1	4	0.830553	-23.249001	13.011	-7.3169999
69	1	5	-0.528382	-24.27	12.356	-6.973
70	1	7	-0.674106	-23.289	14.403	-7.2859998
71	1	8	0.40490499	-24.125999	14.892	-6.9920001
72	1	4	0.029988	-21.987	10.821	-7.7789998
73	1	6	0.220603	-22.857	10.245	-7.4879999
74	1	4	-0.35890001	-20.879	10.178	-8.1680002
75	1	6	0.20582099	-20.864	9.0959997	-8.1859999
76	1	3	0.083714999	-16.659	9.9549999	-9.7749996
77	1	3	0.083714999	-17.323999	11.599	-9.9449997
78	1	3	0.083714999	-15.502	11.499	-8.1800003
79	1	3	0.083714999	-17.070999	11.971	-7.4819999
80	1	4	-0.362656	-15.895	7.8070002	-6.171
81	1	6	0.20582099	-16.671	7.9029999	-5.4219999
82	1	4	0.060970001	-15.147	6.698	-6.2140002
83	1	6	0.20413101	-15.326	5.9050002	-5.4970002

Bonds

1	1	1	2
2	2	1	41
3	3	2	3
4	4	2	7
5	4	2	8
6	1	3	4
7	4	3	5
8	4	3	6
9	5	4	9
10	6	9	10
11	7	9	11
12	8	11	12
13	8	11	39
14	9	12	13
15	8	12	14
16	9	14	15
17	8	14	16
18	10	16	17
19	8	16	37
20	1	17	18
21	3	18	19
22	4	18	35
23	4	18	36
24	1	19	20
25	4	19	33
26	4	19	34
27	10	20	21
28	8	21	22
29	8	21	31
30	9	22	23
31	8	22	24
32	9	24	25
33	8	24	26
34	7	26	27
35	8	26	29
36	6	27	28
37	7	27	50
38	9	29	30
39	8	29	31
40	9	31	32
41	9	37	38
42	8	37	39
43	9	39	40
44	1	41	42
45	3	42	43
46	4	42	48
47	4	42	49
48	11	43	44
49	4	43	46
50	4	43	47
51	12	44	45
52	6	50	51
53	7	50	52
54	8	52	53
55	8	52	82
56	9	53	54
57	8	53	55
58	9	55	56
59	8	55	57
60	10	57	58
61	8	57	80
62	1	58	59
63	3	59	60
64	4	59	78
65	4	59	79
66	1	60	61
67	4	60	76
68	4	60	77
69	10	61	62
70	8	62	63
71	8	62	74
72	9	63	64
73	8	63	65
74	9	65	66
75	8	65	67
76	7	67	68
77	8	67	72
78	6	68	69
79	13	68	70
80	12	70	71
81	9	72	73
82	8	72	74
83	9	74	75
84	9	80	81
85	8	80	82
86	9	82	83

Angles

1	6	16	37	38
2	1	58	59	60
3	5	76	60	77
4	6	56	55	57
5	4	27	26	29
6	4	12	14	16
7	1	41	42	43
8	4	26	29	31
9	4	67	68	70
10	5	46	43	47
11	1	44	43	46
12	1	42	43	44
13	1	19	18	36
14	6	11	12	13
15	4	50	52	53
16	1	1	2	8
17	1	41	42	49
18	2	1	41	42
19	1	20	19	33
20	1	2	3	5
21	4	50	52	82
22	6	53	55	56
23	4	20	21	31
24	4	63	65	67
25	6	67	72	73
26	1	17	18	35
27	1	43	42	49
28	2	3	4	9
29	3	4	9	10
30	5	35	18	36
31	6	73	72	74
32	1	44	43	47
33	4	63	62	74
34	1	59	60	61
35	4	24	26	29
36	4	52	53	55
37	1	2	3	4
38	6	13	12	14
39	1	4	3	6
40	4	26	27	50
41	4	20	21	22
42	6	30	29	31
43	4	61	62	63
44	4	51	50	52
45	2	19	20	21
46	4	53	55	57
47	5	7	2	8
48	2	57	58	59
49	6	57	80	81
50	6	72	74	75
51	4	12	11	39
52	1	3	2	7
53	6	21	22	23
54	2	43	44	45
55	1	59	60	77
56	4	9	11	39
57	1	17	18	19
58	4	65	67	72
59	6	63	65	66
60	4	27	50	51
61	2	68	70	71
62	4	14	16	37
63	4	68	67	72
64	4	4	9	11
65	4	53	52	82
66	4	24	26	27
67	6	22	24	25
68	4	11	12	14
69	4	28	27	50
70	5	78	59	79
71	1	3	2	8
72	1	20	19	34
73	1	4	3	5
74	6	11	39	40
75	2	60	61	62
76	6	52	82	83
77	1	18	19	33
78	4	55	57	58
79	4	21	31	29
80	4	52	82	80
81	4	62	74	72
82	5	48	42	49
83	1	19	18	35
84	6	66	65	67
85	6	38	37	39
86	4	11	39	37
87	1	41	42	48
88	6	81	80	82
89	1	18	19	34
90	4	16	37	39
91	1	59	60	76
92	4	55	57	80
93	4	9	11	12
94	3	69	68	70
95	6	64	63	65
96	4	17	16	37
97	1	60	59	79
98	4	26	27	28
99	1	43	42	48
100	1	58	59	79
101	1	17	18	36
102	4	62	63	65
103	2	16	17	18
104	1	61	60	76
105	6	62	63	64
106	1	42	43	46
107	4	21	22	24
108	1	1	2	7
109	1	61	60	77
110	4	67	68	69
111	4	27	50	52
112	6	80	82	83
113	6	54	53	55
114	1	18	19	20
115	4	57	80	82
116	6	21	31	32
117	4	61	62	74
118	6	25	24	26
119	6	62	74	75
120	6	12	14	15
121	5	33	19	34
122	6	37	39	40
123	2	2	1	41
124	4	58	57	80
125	1	42	43	47
126	6	52	53	54
127	6	26	29	30
128	4	65	67	68
129	4	14	16	17
130	1	2	3	6
131	4	22	24	26
132	6	29	31	32
133	1	60	59	78
134	4	10	9	11
135	1	58	59	78
136	4	22	21	31
137	6	23	22	24
138	6	15	14	16
139	1	1	2	3
140	5	5	3	6
141	4	67	72	74

Dihedrals

1	14	25	24	26	27
2	14	12	14	16	37
3	13	77	60	59	79
4	14	20	21	22	24
5	14	9	11	39	40
6	14	21	22	24	26
7	14	27	26	29	31
8	5	6	3	4	9
9	14	53	52	82	80
10	14	14	16	37	38
11	7	57	58	59	60
11	8	57	58	59	60
12	14	58	57	80	82
13	14	22	24	26	27
14	14	56	55	57	80
15	12	29	26	27	50
16	12	27	50	52	53
17	14	23	22	24	26
18	14	65	63	62	74
19	3	41	42	43	47
19	4	41	42	43	47
20	13	47	43	42	48
21	14	64	63	65	66
22	14	22	24	26	29
23	7	16	17	18	19
23	8	16	17	18	19
24	3	20	19	18	35
24	4	20	19	18	35
25	14	23	22	21	31
26	19	67	68	70	71
27	14	62	74	72	73
28	1	17	18	19	20
28	2	17	18	19	20
29	14	15	14	16	37
30	12	10	9	11	12
31	14	64	63	62	74
32	5	3	2	1	41
33	14	13	12	14	15
34	14	62	63	65	67
35	3	4	3	2	8
35	4	4	3	2	8
36	12	28	27	26	29
37	13	6	3	2	7
38	13	33	19	18	35
39	12	28	27	50	52
40	12	24	26	27	28
41	5	21	20	19	33
42	9	3	4	9	10
42	10	3	4	9	10
43	15	55	57	58	59
44	14	63	62	74	72
45	14	38	37	39	40
46	13	77	60	59	78
47	14	24	22	21	31
48	13	46	43	42	48
49	14	21	31	29	30
50	14	57	80	82	83
51	14	66	65	67	72
52	15	19	20	21	22
53	14	50	52	53	55
54	13	76	60	59	79
55	14	52	82	80	57
56	14	53	52	82	83
57	5	1	41	42	48
58	3	61	60	59	79
58	4	61	60	59	79
59	1	41	42	43	44
59	2	41	42	43	44
60	16	42	43	44	45
60	17	42	43	44	45
61	14	11	12	14	15
62	14	63	65	67	72
63	14	22	21	31	29
64	13	47	43	42	49
65	1	58	59	60	61
65	2	58	59	60	61
66	14	55	53	52	82
67	13	34	19	18	35
68	14	54	53	55	56
69	14	13	12	14	16
70	15	60	61	62	74
71	3	1	2	3	6
71	4	1	2	3	6
72	14	54	53	52	82
73	14	20	21	31	29
74	15	18	17	16	37
75	12	27	50	52	82
76	14	9	11	39	37
77	14	14	16	37	39
78	15	19	20	21	31
79	7	59	60	61	62
79	8	59	60	61	62
80	14	62	63	65	66
81	14	55	57	80	82
82	12	51	50	52	53
83	14	17	16	37	39
84	11	3	4	9	11
85	5	16	17	18	36
86	14	30	29	31	32
87	5	57	58	59	79
88	12	26	27	50	52
89	3	44	43	42	49
89	4	44	43	42	49
90	13	76	60	59	78
91	3	61	60	59	78
91	4	61	60	59	78
92	14	63	62	74	75
93	20	69	68	70	71
93	21	69	68	70	71
94	14	54	53	55	57
95	12	69	68	67	72
96	14	11	12	14	16
97	14	12	11	39	40
98	5	1	41	42	49
99	14	73	72	74	75
100	5	21	20	19	34
101	14	61	62	74	72
102	15	14	16	17	18
103	14	58	57	80	81
104	13	6	3	2	8
105	14	14	12	11	39
106	15	60	61	62	63
107	6	2	1	41	42
108	5	7	2	1	41
109	14	21	22	24	25
110	14	11	39	37	16
111	3	1	2	3	5
111	4	1	2	3	5
112	14	22	21	31	32
113	14	52	53	55	56
114	12	65	67	68	69
115	14	26	29	31	32
116	5	5	3	4	9
117	14	15	14	16	17
118	14	23	22	24	25
119	12	4	9	11	39
120	3	20	19	18	36
120	4	20	19	18	36
121	14	50	52	82	80
122	14	20	21	31	32
123	14	67	72	74	75
124	14	13	12	11	39
125	18	45	44	43	46
126	7	2	3	4	9
126	8	2	3	4	9
127	14	16	37	39	40
128	3	41	42	43	46
128	4	41	42	43	46
129	5	57	58	59	78
130	14	62	74	72	67
131	14	61	62	63	65
132	13	33	19	18	36
133	14	61	62	63	64
134	1	1	2	3	4
134	2	1	2	3	4
135	14	68	67	72	74
136	5	1	41	42	43
137	3	58	59	60	76
137	4	58	59	60	76
138	12	70	68	67	72
139	12	51	50	52	82
140	14	24	26	29	30
141	3	58	59	60	77
141	4	58	59	60	77
142	14	12	14	16	17
143	5	62	61	60	76
144	13	46	43	42	49
145	14	66	65	67	68
146	13	5	3	2	7
147	14	52	53	55	57
148	5	62	61	60	77
149	7	18	19	20	21
149	8	18	19	20	21
150	14	53	55	57	58
151	14	25	24	26	29
152	12	24	26	27	50
153	15	59	58	57	80
154	18	45	44	43	47
155	3	4	3	2	7
155	4	4	3	2	7
156	14	17	16	37	38
157	14	61	62	74	75
158	14	63	65	67	68
159	12	28	27	50	51
160	14	21	31	29	26
161	12	26	27	50	51
162	14	65	67	72	74
163	13	34	19	18	36
164	14	64	63	65	67
165	14	68	67	72	73
166	14	27	26	29	30
167	13	5	3	2	8
168	14	12	11	39	37
169	14	50	52	82	83
170	3	17	18	19	33
170	4	17	18	19	33
171	14	53	55	57	80
172	12	10	9	11	39
173	14	9	11	12	13
174	12	4	9	11	12
175	14	50	52	53	54
176	14	11	39	37	38
177	12	65	67	68	70
178	14	20	21	22	23
179	14	24	26	29	31
180	5	16	17	18	35
181	14	55	57	80	81
182	3	17	18	19	34
182	4	17	18	19	34
183	14	56	55	57	58
184	5	8	2	1	41
185	3	44	43	42	48
185	4	44	43	42	48
186	14	52	82	80	81
187	14	81	80	82	83
188	14	9	11	12	14
189	14	65	67	72	73

Impropers

5	1	68	67	69	70
6	2	74	62	72	75
10	2	14	15	16	12
14	2	16	37	14	17
21	2	72	73	74	67
24	2	26	29	24	27
28	2	22	21	23	24
34	2	63	64	65	62
59	2	12	11	13	14
62	2	11	9	12	39
66	2	63	62	64	65
68	2	67	68	72	65
71	2	21	20	22	31
76	2	24	22	25	26
78	2	82	80	83	52
79	2	37	39	16	38
85	2	53	55	52	54
91	2	50	27	51	52
97	2	72	74	67	73
99	2	14	16	12	15
102	1	68	70	67	69
103	2	55	56	57	53
105	2	27	26	28	50
112	2	24	26	22	25
113	2	37	16	38	39
115	1	9	10	11	4
116	2	26	27	29	24
117	2	52	53	82	50
119	2	11	39	9	12
121	2	52	50	53	82
124	2	22	24	21	23
132	2	12	13	14	11
138	2	62	63	74	61
139	2	50	51	52	27
143	2	39	37	40	11
149	2	39	40	11	37
160	1	68	69	70	67
164	2	21	22	31	20
172	2	27	50	26	28
177	2	52	82	50	53
182	2	57	55	58	80
185	2	65	66	67	63
186	2	57	58	80	55
188	2	26	24	27	29
198	2	22	23	24	21
203	2	82	52	80	83
205	2	31	21	29	32
209	2	80	57	81	82
212	2	67	72	65	68
218	2	31	32	21	29
220	2	21	31	20	22
224	2	62	74	61	63
227	2	16	14	17	37
228	2	37	38	39	16
231	2	80	81	82	57
238	2	55	53	56	57
241	2	55	57	53	56
246	2	50	52	27	51
265	2	65	63	66	67
266	2	12	14	11	13
270	2	29	30	31	26
273	1	9	11	4	10
276	2	53	54	55	52
281	2	16	17	37	14
295	2	31	29	32	21
296	2	67	65	68	72
299	2	29	31	26	30
303	2	74	75	62	72
307	2	14	12	15	16
308	2	57	80	55	58
311	2	74	72	75	62
319	2	39	11	37	40
320	2	53	52	54	55
321	2	27	28	50	26
323	2	24	25	26	22
337	2	62	61	63	74
343	2	80	82	57	81
347	2	82	83	52	80
348	2	65	67	63	66
349	2	63	65	62	64
350	2	29	26	30	31
354	2	72	67	73	74
356	1	9	4	10	11
359	2	11	12	39	9
