Title

68 atoms
71 bonds
118 angles
171 dihedrals
78 impropers

9 atom types
13 bond types
6 angle types
9 dihedral types
2 improper types
-6.801000118 93.19899988 xlo xhi
-2.97300005 97.02699995 ylo yhi
-8.147999763 91.85200024 zlo zhi
0.0 0.0 0.0 xy xz yz

Masses

1	15.99943
2	12.01078
3	1.007947
4	12.01078
5	1.007947
6	15.99943
7	15.99943
8	1.007947
9	35.4532


Pair Coeffs

1	0.16846514	3.0251065
2	0.086879315	3.4806469
3	0.015611343	2.5725815
4	0.10884061	3.3795318
5	0.015779483	2.6445434
6	0.2102061	3.0398122
7	0.20947353	2.99716
8	1.2326e-05	0.53453923
9	0.2656001	3.3075278

Bond Coeffs

1 harmonic	425.69104206635	1.362945806494
2 harmonic	300.03137914615	1.451203938761
3 harmonic	360.7852444772	1.387193227181
4 harmonic	397.2545789619	1.085358495916
5 harmonic	289.73813263395	1.498646816465
6 harmonic	264.62148576755	1.52190126495
7 harmonic	301.15400723785	1.345741232799
8 harmonic	370.04670688625	1.093899492634
9 harmonic	582.698766451	1.225198386222
10 harmonic	279.1350963404	1.454628925034
11 harmonic	385.7604595587	1.369745182308
12 harmonic	543.5267831885	0.9716763312559
13 harmonic	218.0227703685	1.746066037062


Angle Coeffs

1 harmonic	57.8982893754	126.8062420451
2 harmonic	65.09061609600001	110.3538806181
3 harmonic	34.066775159195	129.1835929926
4 harmonic	53.20531626545	116.5475862634
5 harmonic	201.41175231035	127.4691416191
6 harmonic	48.776492647595	115.6030999533


Dihedral Coeffs

1 fourier 1	3.661930099076	2	180
2 fourier 1	1.532232714475	2	180
3 fourier 1	0.457973137376	1	0
4 fourier 1	0.02664938770063	3	0
5 fourier 1	0.1155372516788	3	0
6 fourier 1	2.779853741805	2	180
7 fourier 1	0.9974165607242	2	180
8 fourier 1	0.1040663847541	3	0
9 fourier 1	0.8283030590042	2	180


Improper Coeffs

1 0.3666666666666667	-1	2
2 3.5	-1	2


Atoms

1	1	1	-0.019354001	4.737	1.4170001	1.64
2	1	2	0.28042999	3.5929999	0.861	1.074
3	1	2	-0.317826	2.589	0.46200001	1.86
4	1	3	0.228331	2.6619999	0.56900001	2.9349999
5	1	2	-0.14531399	1.3710001	-0.12800001	1.2690001
6	1	3	0.212102	0.58399999	-0.45100001	1.938
7	1	2	-0.26216999	1.238	-0.26100001	-0.07
8	1	4	0.0074	-0.037	-0.90600002	-0.64899999
9	1	2	-0.26216999	-1.285	-0.221	-0.059
10	1	2	-0.147691	-1.39	1.127	-0.098999999
11	1	3	0.212102	-0.597	1.7309999	-0.52100003
12	1	2	-0.26970199	-2.582	1.8150001	0.43399999
13	1	3	0.22816201	-2.6289999	2.8959999	0.40000001
14	1	2	0.44103	-3.595	1.107	0.95099998
15	1	1	-0.43990099	-4.7270002	1.742	1.4579999
16	1	2	-0.26970199	-3.513	-0.36500001	0.98299998
17	1	3	0.22816201	-4.336	-0.93800002	1.392
18	1	2	-0.147691	-2.4330001	-0.995	0.50599998
19	1	3	0.212102	-2.4200001	-2.075	0.54400003
20	1	4	-0.13090301	0.026000001	-2.4170001	-0.31900001
21	1	5	0.086662002	0.98400003	-2.852	-0.68000001
22	1	5	0.086662002	-0.035	-2.5899999	0.77700001
23	1	5	0.086662002	-0.79799998	-2.973	-0.81599998
24	1	4	-0.13090301	-0.127	-0.773	-2.188
25	1	5	0.086662002	-1.1	-1.166	-2.5539999
26	1	5	0.086662002	-0.048	0.28999999	-2.503
27	1	5	0.086662002	0.67500001	-1.3559999	-2.691
28	1	2	-0.14531399	2.3789999	0.17399999	-0.93300003
29	1	3	0.212102	2.3429999	0.072999999	-2.0079999
30	1	2	-0.317826	3.4820001	0.70499998	-0.391
31	1	3	0.228331	4.2979999	1.018	-1.03
32	1	2	0.62888199	-4.8239999	2.7869999	1.4529999
33	1	6	-0.492378	-3.8280001	3.4909999	1.464
34	1	1	-0.019354001	5.5110002	1.725	1.063
35	1	2	0.28042999	5.296	2.2809999	-0.19499999
36	1	2	-0.317826	6.3369999	2.6800001	-0.93199998
37	1	3	0.228331	7.3460002	2.573	-0.55400002
38	1	2	-0.14531399	6.1199999	3.27	-2.2679999
39	1	3	0.212102	6.987	3.5929999	-2.8310001
40	1	2	-0.26216999	4.875	3.4030001	-2.779
41	1	4	0.0074	4.6849999	4.0489998	-4.1659999
42	1	2	-0.26216999	5.6079998	3.3640001	-5.1939998
43	1	2	-0.10679	5.5999999	2.016	-5.3049998
44	1	3	0.212102	4.9679999	1.411	-4.6659999
45	1	2	-0.41005501	6.4520001	1.327	-6.2950001
46	1	3	0.233697	6.4330001	0.24600001	-6.3499999
47	1	2	0.434818	7.237	2.0350001	-7.1170001
48	1	7	-0.64806801	8.0469999	1.4	-8.0570002
49	1	8	0.43691	8.0690002	0.391	-8.1479998
50	1	2	-0.41005501	7.2449999	3.507	-7.0300002
51	1	3	0.233697	7.8720002	4.0799999	-7.7010002
52	1	2	-0.10679	6.4780002	4.1370001	-6.131
53	1	3	0.212102	6.5110002	5.217	-6.1079998
54	1	4	-0.13090301	4.9829998	5.559	-4.0110002
55	1	5	0.086662002	4.3629999	5.994	-3.197
56	1	5	0.086662002	6.0510001	5.7319999	-3.756
57	1	5	0.086662002	4.743	6.1149998	-4.9429998
58	1	4	-0.13090301	3.237	3.915	-4.6929998
59	1	5	0.086662002	3.165	4.3080001	-5.7309999
60	1	5	0.086662002	2.9130001	2.852	-4.7080002
61	1	5	0.086662002	2.5250001	4.4980001	-4.0689998
62	1	2	-0.14531399	3.721	2.9679999	-1.933
63	1	3	0.212102	2.7019999	3.069	-2.2750001
64	1	2	-0.317826	3.925	2.437	-0.72100002
65	1	3	0.228331	3.079	2.1240001	-0.121
66	1	2	0.46804899	-5.8080001	3.24	1.438
67	1	6	-0.56643301	-6.8010001	2.539	1.337
68	1	9	-0.080334999	-5.974	4.9819999	1.557

Bonds

1	1	1	2
2	2	1	34
3	3	2	3
4	3	2	30
5	4	3	4
6	3	3	5
7	4	5	6
8	3	5	7
9	5	7	8
10	3	7	28
11	5	8	9
12	6	8	20
13	6	8	24
14	3	9	10
15	3	9	18
16	4	10	11
17	3	10	12
18	4	12	13
19	3	12	14
20	1	14	15
21	3	14	16
22	7	15	32
23	4	16	17
24	3	16	18
25	4	18	19
26	8	20	21
27	8	20	22
28	8	20	23
29	8	24	25
30	8	24	26
31	8	24	27
32	4	28	29
33	3	28	30
34	4	30	31
35	9	32	33
36	10	32	66
37	1	34	35
38	3	35	36
39	3	35	64
40	4	36	37
41	3	36	38
42	4	38	39
43	3	38	40
44	5	40	41
45	3	40	62
46	5	41	42
47	6	41	54
48	6	41	58
49	3	42	43
50	3	42	52
51	4	43	44
52	3	43	45
53	4	45	46
54	3	45	47
55	11	47	48
56	3	47	50
57	12	48	49
58	4	50	51
59	3	50	52
60	4	52	53
61	8	54	55
62	8	54	56
63	8	54	57
64	8	58	59
65	8	58	60
66	8	58	61
67	4	62	63
68	3	62	64
69	4	64	65
70	9	66	67
71	13	66	68

Angles

1	3	43	45	46
2	1	45	47	48
3	1	41	42	43
4	1	5	7	28
5	1	14	16	18
6	1	2	30	28
7	6	21	20	23
8	1	35	64	62
9	1	8	7	28
10	4	40	41	58
11	4	9	8	24
12	1	1	2	3
13	4	8	24	25
14	6	59	58	60
15	1	67	66	68
16	4	54	41	58
17	1	1	2	30
18	3	10	12	13
19	3	14	16	17
20	6	26	24	27
21	3	16	18	19
22	1	32	66	67
23	4	8	24	27
24	4	41	58	59
25	2	47	48	49
26	1	3	5	7
27	6	60	58	61
28	3	37	36	38
29	3	36	38	39
30	1	15	14	16
31	4	7	8	20
32	3	62	64	65
33	3	35	36	37
34	3	3	5	6
35	3	47	50	51
36	1	43	42	52
37	3	50	52	53
38	1	3	2	30
39	1	12	14	16
40	6	25	24	27
41	2	1	34	35
42	1	15	32	66
43	3	42	43	44
44	1	8	9	10
45	1	42	52	50
46	4	41	54	55
47	3	13	12	14
48	3	44	43	45
49	4	40	41	42
50	1	48	47	50
51	1	36	38	40
52	1	10	12	14
53	1	45	47	50
54	3	7	28	29
55	1	34	35	36
56	3	29	28	30
57	1	34	35	64
58	1	43	45	47
59	3	11	10	12
60	1	40	62	64
61	4	7	8	9
62	4	41	58	61
63	3	2	30	31
64	3	9	18	19
65	3	35	64	65
66	4	42	41	54
67	3	46	45	47
68	3	63	62	64
69	3	2	3	4
70	1	9	18	16
71	4	8	20	22
72	3	9	10	11
73	6	56	54	57
74	1	32	66	68
75	4	8	24	26
76	4	9	8	20
77	1	8	9	18
78	4	41	58	60
79	3	17	16	18
80	1	42	43	45
81	4	20	8	24
82	1	5	7	8
83	3	42	52	53
84	4	42	41	58
85	6	59	58	61
86	4	7	8	24
87	1	2	3	5
88	2	2	1	34
89	4	41	54	56
90	4	8	20	21
91	3	40	62	63
92	6	25	24	26
93	1	41	42	52
94	4	41	54	57
95	6	55	54	56
96	3	6	5	7
97	1	9	10	12
98	1	10	9	18
99	2	14	15	32
100	6	21	20	22
101	4	8	20	23
102	1	12	14	15
103	1	36	35	64
104	6	55	54	57
105	3	4	3	5
106	1	38	40	62
107	5	15	32	33
108	1	41	40	62
109	4	40	41	54
110	3	28	30	31
111	6	22	20	23
112	1	38	40	41
113	1	7	28	30
114	1	33	32	66
115	3	51	50	52
116	1	35	36	38
117	3	39	38	40
118	1	47	50	52

Dihedrals

1	2	12	14	15	32
2	2	1	34	35	36
3	1	41	40	62	64
4	1	5	7	28	29
5	1	8	9	10	12
6	1	2	3	5	6
7	1	6	5	7	8
8	2	1	34	35	64
9	5	9	8	24	27
10	4	38	40	41	42
11	7	33	32	66	68
12	1	10	9	18	16
13	1	1	2	30	31
14	1	8	9	18	16
15	4	5	7	8	9
16	1	8	7	28	29
17	1	8	9	10	11
18	1	41	42	43	44
19	8	54	41	58	59
20	1	1	2	3	4
21	1	41	42	52	50
22	1	46	45	47	48
23	4	54	41	40	62
24	4	52	42	41	58
25	5	42	41	54	56
26	1	44	43	42	52
27	8	56	54	41	58
28	4	7	8	9	18
29	4	43	42	41	54
30	1	38	40	62	64
31	1	43	45	47	48
32	1	48	47	50	52
33	1	9	18	16	14
34	5	40	41	54	56
35	1	7	28	30	31
36	1	2	30	28	29
37	5	7	8	20	22
38	2	16	14	15	32
39	8	21	20	8	24
40	5	42	41	54	57
41	1	10	12	14	16
42	7	15	32	66	68
43	8	57	54	41	58
44	6	14	15	32	66
45	1	12	10	9	18
46	1	2	3	5	7
47	5	40	41	54	57
48	1	3	5	7	28
49	1	12	14	16	17
50	1	1	2	3	5
51	4	18	9	8	20
52	1	3	2	30	28
53	1	37	36	38	40
54	5	42	41	58	59
55	1	40	62	64	65
56	4	42	41	40	62
57	4	10	9	8	24
58	1	43	42	52	53
59	5	7	8	20	21
60	5	40	41	58	59
61	4	43	42	41	58
62	1	11	10	12	13
63	5	9	8	20	21
64	1	37	36	38	39
65	1	6	5	7	28
66	1	42	43	45	46
67	1	44	43	45	46
68	5	7	8	24	25
69	1	41	42	43	45
70	1	9	10	12	14
71	1	36	35	64	65
72	5	7	8	20	23
73	8	54	41	58	61
74	1	13	12	14	15
75	1	5	3	2	30
76	8	20	8	24	27
77	4	9	8	7	28
78	5	7	8	24	27
79	1	48	47	50	51
80	1	34	35	36	38
81	5	9	8	20	22
82	4	58	41	40	62
83	1	5	7	28	30
84	5	9	8	24	26
85	8	23	20	8	24
86	4	5	7	8	24
87	1	35	64	62	63
88	4	38	40	41	54
89	1	34	35	64	62
90	1	8	7	28	30
91	1	46	45	47	50
92	8	54	41	58	60
93	1	41	40	62	63
94	1	45	47	50	52
95	1	47	50	52	53
96	1	11	10	9	18
97	7	33	32	66	67
98	2	30	2	1	34
99	1	1	2	30	28
100	1	45	47	50	51
101	1	43	45	47	50
102	1	51	50	52	53
103	1	13	12	14	16
104	1	35	36	38	40
105	5	42	41	58	61
106	8	20	8	24	25
107	1	15	14	16	18
108	5	40	41	58	61
109	4	40	41	42	52
110	1	11	10	12	14
111	1	35	36	38	39
112	1	41	42	52	53
113	1	38	40	62	63
114	5	9	8	20	23
115	1	4	3	5	6
116	4	38	40	41	58
117	1	10	9	18	19
118	1	43	42	52	50
119	3	2	1	34	35
120	1	8	9	18	19
121	1	3	2	30	31
122	1	4	3	2	30
123	4	18	9	8	24
124	7	15	32	66	67
125	9	45	47	48	49
126	5	42	41	58	60
127	1	15	14	16	17
128	1	34	35	36	37
129	5	42	41	54	55
130	2	14	15	32	33
131	1	10	12	14	15
132	5	40	41	58	60
133	1	36	38	40	62
134	4	5	7	8	20
135	5	40	41	54	55
136	1	9	10	12	13
137	1	36	38	40	41
138	1	63	62	64	65
139	4	10	9	8	20
140	1	2	30	28	7
141	4	20	8	7	28
142	1	29	28	30	31
143	1	45	43	42	52
144	1	35	64	62	40
145	4	7	8	9	10
146	4	24	8	7	28
147	1	12	14	16	18
148	1	42	43	45	47
149	4	40	41	42	43
150	1	17	16	18	19
151	8	20	8	24	26
152	1	4	3	5	7
153	1	3	5	7	8
154	1	39	38	40	62
155	1	44	43	45	47
156	5	7	8	24	26
157	1	9	18	16	17
158	1	42	52	50	51
159	4	52	42	41	54
160	9	49	48	47	50
161	1	42	52	50	47
162	2	3	2	1	34
163	8	22	20	8	24
164	1	39	38	40	41
165	1	14	16	18	19
166	5	9	8	24	25
167	1	36	35	64	62
168	8	55	54	41	58
169	1	37	36	35	64
170	1	34	35	64	65
171	1	38	36	35	64

Impropers

3	1	66	32	67	68
4	1	14	16	12	15
8	1	50	47	51	52
10	1	52	42	50	53
12	1	40	38	41	62
15	1	2	30	1	3
19	1	5	3	6	7
22	1	16	17	18	14
30	1	47	50	45	48
34	1	12	13	14	10
41	1	62	64	40	63
42	1	42	41	43	52
46	1	38	40	36	39
50	1	45	47	43	46
54	1	35	64	34	36
56	1	14	15	16	12
57	1	2	3	30	1
62	1	40	62	38	41
74	1	30	31	2	28
76	1	35	36	64	34
81	1	30	2	28	31
87	1	52	50	53	42
89	1	28	7	29	30
94	1	14	12	15	16
97	1	12	14	10	13
106	1	36	37	38	35
108	1	50	52	47	51
110	1	43	44	45	42
114	1	47	48	50	45
118	2	32	33	66	15
119	1	5	6	7	3
124	1	7	28	5	8
144	1	9	8	10	18
145	1	5	7	3	6
147	1	18	16	19	9
151	1	50	51	52	47
154	1	7	5	8	28
155	1	43	42	44	45
160	1	66	68	32	67
169	1	28	30	7	29
171	1	62	40	63	64
172	1	36	35	37	38
176	1	18	19	9	16
178	1	66	67	68	32
181	1	52	53	42	50
186	1	3	5	2	4
195	2	32	66	15	33
196	2	32	15	33	66
199	1	28	29	30	7
202	1	10	9	11	12
203	1	38	36	39	40
206	1	9	18	8	10
207	1	16	18	14	17
208	1	12	10	13	14
214	1	64	65	35	62
216	1	42	43	52	41
219	1	40	41	62	38
221	1	35	34	36	64
222	1	64	35	62	65
224	1	36	38	35	37
234	1	45	43	46	47
235	1	16	14	17	18
239	1	3	4	5	2
240	1	43	45	42	44
251	1	3	2	4	5
252	1	10	12	9	11
257	1	38	39	40	36
261	1	42	52	41	43
262	1	2	1	3	30
265	1	10	11	12	9
268	1	47	45	48	50
278	1	30	28	31	2
279	1	64	62	65	35
281	1	7	8	28	5
285	1	45	46	47	43
292	1	62	63	64	40
294	1	18	9	16	19
299	1	9	10	18	8
