Title

65 atoms
64 bonds
115 angles
195 dihedrals
12 impropers

8 atom types
11 bond types
5 angle types
31 dihedral types
2 improper types
-3.338000059 96.66199994 xlo xhi
-3.665999889 96.33400011 ylo yhi
-9.850000381 90.14999962 zlo zhi
0.0 0.0 0.0 xy xz yz

Masses

1	15.99943
2	12.01078
3	1.007947
4	12.01078
5	15.99943
6	1.007947
7	15.99943
8	1.007947


Pair Coeffs

1	0.16846514	3.0251065
2	0.10884061	3.3795318
3	0.016409246	2.5832257
4	0.086879315	3.4806469
5	0.2102061	3.0398122
6	0.015779483	2.6445434
7	0.20947353	2.99716
8	1.2326e-05	0.53453923

Bond Coeffs

1 harmonic	366.7408841747	1.425895053732
2 harmonic	300.03137914615	1.451203938761
3 harmonic	264.62148576755	1.52190126495
4 harmonic	370.04670688625	1.093899492634
5 harmonic	301.15400723785	1.345741232799
6 harmonic	582.698766451	1.225198386222
7 harmonic	329.44145381095	1.523435958334
8 harmonic	279.1350963404	1.454628925034
9 harmonic	329.96998057905	1.427343958716
10 harmonic	543.5267831885	0.9716763312559
11 harmonic	385.7604595587	1.369745182308


Angle Coeffs

1 harmonic	53.20531626545	116.5475862634
2 harmonic	65.09061609600001	110.3538806181
3 harmonic	201.41175231035	127.4691416191
4 harmonic	57.8982893754	126.8062420451
5 harmonic	48.776492647595	115.6030999533


Dihedral Coeffs

1 fourier 1	-0.0309670556842	3	0
2 fourier 1	0.4598191477945	2	0
3 fourier 1	0.1115525666802	3	0
4 fourier 1	0.3432490222662	1	0
5 fourier 1	0.0473758381877	3	0
6 fourier 1	0.457973137376	1	0
7 fourier 1	0.4552156463534	3	0
8 fourier 1	-0.03687743385131	2	180
9 fourier 1	0.1918272375143	3	0
10 fourier 1	0.9202179876409	1	180
11 fourier 1	1.163809172478	2	180
12 fourier 1	0.1679186987369	1	180
13 fourier 1	2.779853741805	2	180
14 fourier 1	0.02664938770063	3	0
15 fourier 1	0.1911926717192	3	0
16 fourier 1	0.1155372516788	3	0
17 fourier 1	-0.3703352413219	2	0
18 fourier 1	0.4541676554336	1	0
19 fourier 1	0.1489710476446	2	0
20 fourier 1	0.02960027280666	3	180
21 fourier 1	0.09223874044423	3	0
22 fourier 1	0.3159935921949	2	180
23 fourier 1	0.3247796806857	1	180
24 fourier 1	0.1040663847541	3	0
25 fourier 1	0.9974165607242	2	180
26 fourier 1	0.3445382149273	3	0
27 fourier 1	0.1364556373303	1	0
28 fourier 1	0.3026390167484	3	0
29 fourier 1	2.687457892086	2	180
30 fourier 1	2.772607909663	2	180
31 fourier 1	0.09692684957115	1	0


Improper Coeffs

1 3.5	-1	2
2 0.3666666666666667	-1	2


Atoms

1	1	1	-0.152963	-3.3380001	-0.667	0.119
2	1	2	0.027236	-2.119	-0.0080000004	-0.086999997
3	1	2	0.077674001	-1.089	-0.46000001	0.949
4	1	1	-0.49245799	0.102	0.29300001	0.81599998
5	1	2	0.077133	1.05	-0.41	0.041000001
6	1	2	0.129531	2.2609999	0.486	-0.20200001
7	1	1	-0.491097	3.2379999	-0.20200001	-0.93400002
8	1	3	0.087079003	1.95	1.41	-0.74000001
9	1	3	0.087079003	2.6949999	0.78600001	0.77499998
10	1	3	0.079931997	0.62300003	-0.70200002	-0.94599998
11	1	3	0.079931997	1.3890001	-1.322	0.583
12	1	3	0.081306003	-1.5039999	-0.26499999	1.961
13	1	3	0.081306003	-0.93199998	-1.563	0.88
14	1	3	0.085107997	-2.2850001	1.086	0.017000001
15	1	3	0.085107997	-1.745	-0.20100001	-1.118
16	1	4	0.76372403	2.915	-0.21600001	-1.9220001
17	1	5	-0.54155302	1.919	-0.85799998	-2.214
18	1	2	-0.20811	3.655	0.54000002	-2.9849999
19	1	2	-0.111963	4.869	1.273	-2.4030001
20	1	2	-0.091142997	5.6220002	2.0439999	-3.493
21	1	2	-0.256437	6.835	2.777	-2.911
22	1	4	0.51924998	7.5749998	3.5339999	-3.974
23	1	5	-0.667512	8.5710001	4.1760001	-3.6819999
24	1	6	0.116441	6.4990001	3.494	-2.1300001
25	1	6	0.116441	7.527	2.0420001	-2.4460001
26	1	6	0.078275003	4.9349999	2.7839999	-3.961
27	1	6	0.078275003	5.9640002	1.3329999	-4.2779999
28	1	6	0.087260999	4.526	1.984	-1.619
29	1	6	0.087260999	5.5549998	0.53299999	-1.9349999
30	1	6	0.120063	2.9630001	1.275	-3.45
31	1	6	0.120063	3.9909999	-0.176	-3.766
32	1	1	-0.152963	-3.2249999	-1.589	-0.233
33	1	2	0.027236	-2.3540001	-2.2479999	0.64499998
34	1	2	0.077798001	-0.91299999	-1.796	0.403
35	1	1	-0.49026999	-0.023	-2.549	1.205
36	1	2	0.049931999	0.296	-1.845	2.3870001
37	1	2	0.072031997	1.138	-2.7420001	3.29
38	1	7	-0.68391198	1.506	-2.053	4.454
39	1	8	0.38565099	0.70599997	-2.04	5.0409999
40	1	3	0.081064999	0.57300001	-3.6659999	3.546
41	1	3	0.081064999	2.0610001	-3.0420001	2.7490001
42	1	3	0.082212001	-0.62599999	-1.553	2.941
43	1	3	0.082212001	0.88700002	-0.93300003	2.1440001
44	1	3	0.081306003	-0.66100001	-1.9910001	-0.66100001
45	1	3	0.081306003	-0.82599998	-0.69199997	0.55000001
46	1	3	0.085107997	-2.4289999	-3.3410001	0.463
47	1	3	0.085107997	-2.651	-2.0550001	1.7
48	1	4	0.51924998	7.2379999	3.5190001	-5.0050001
49	1	5	-0.667512	6.5209999	4.4180002	-5.4169998
50	1	2	-0.256437	7.6370001	2.3900001	-5.908
51	1	2	-0.091142997	8.526	2.8900001	-7.0510001
52	1	2	-0.109436	8.9589996	1.729	-7.9580002
53	1	2	-0.21812101	9.7980003	2.2049999	-9.1520004
54	1	4	0.82670498	11.138	2.717	-8.7209997
55	1	5	-0.54237002	12.061	1.908	-8.4379997
56	1	7	-0.66248298	11.352	4.0869999	-8.6020002
57	1	8	0.39824599	12.248	4.448	-8.2980003
58	1	6	0.12111	9.2530003	2.9990001	-9.7080002
59	1	6	0.12111	9.948	1.354	-9.8500004
60	1	6	0.087260999	8.052	1.221	-8.3529997
61	1	6	0.087260999	9.5369997	0.98299998	-7.3699999
62	1	6	0.078275003	7.9660001	3.6389999	-7.6539998
63	1	6	0.078275003	9.4259996	3.3840001	-6.6220002
64	1	6	0.116441	8.191	1.6339999	-5.3099999
65	1	6	0.116441	6.7210002	1.9119999	-6.3169999

Bonds

1	1	1	2
2	2	1	32
3	3	2	3
4	4	2	14
5	4	2	15
6	1	3	4
7	4	3	12
8	4	3	13
9	1	4	5
10	3	5	6
11	4	5	10
12	4	5	11
13	1	6	7
14	4	6	8
15	4	6	9
16	5	7	16
17	6	16	17
18	7	16	18
19	3	18	19
20	4	18	30
21	4	18	31
22	3	19	20
23	4	19	28
24	4	19	29
25	3	20	21
26	4	20	26
27	4	20	27
28	7	21	22
29	4	21	24
30	4	21	25
31	6	22	23
32	8	22	48
33	1	32	33
34	3	33	34
35	4	33	46
36	4	33	47
37	1	34	35
38	4	34	44
39	4	34	45
40	1	35	36
41	3	36	37
42	4	36	42
43	4	36	43
44	9	37	38
45	4	37	40
46	4	37	41
47	10	38	39
48	6	48	49
49	7	48	50
50	3	50	51
51	4	50	64
52	4	50	65
53	3	51	52
54	4	51	62
55	4	51	63
56	3	52	53
57	4	52	60
58	4	52	61
59	7	53	54
60	4	53	58
61	4	53	59
62	6	54	55
63	11	54	56
64	10	56	57

Angles

1	1	50	51	52
2	1	20	21	22
3	1	35	36	37
4	1	6	5	11
5	5	8	6	9
6	1	5	6	7
7	1	18	19	28
8	1	3	2	14
9	1	18	19	29
10	1	32	33	34
11	1	33	34	35
12	1	35	34	45
13	1	37	36	42
14	5	60	52	61
15	1	51	50	65
16	5	14	2	15
17	1	19	20	27
18	4	53	54	56
19	1	2	3	13
20	1	6	5	10
21	5	24	21	25
22	1	3	2	15
23	1	21	20	27
24	1	50	51	63
25	5	46	33	47
26	1	22	21	25
27	1	1	2	15
28	4	17	16	18
29	2	34	35	36
30	1	52	51	62
31	5	30	18	31
32	2	6	7	16
33	4	22	48	50
34	4	53	54	55
35	1	7	6	8
36	1	21	20	26
37	1	35	36	43
38	1	32	33	46
39	4	21	22	23
40	1	22	21	24
41	1	36	37	40
42	1	19	18	31
43	1	34	33	46
44	5	42	36	43
45	4	22	48	49
46	1	53	52	60
47	1	52	53	54
48	1	48	50	51
49	1	16	18	30
50	1	4	5	10
51	1	19	20	21
52	1	38	37	40
53	2	37	38	39
54	1	34	33	47
55	1	4	3	12
56	1	35	34	44
57	1	52	53	58
58	1	5	6	9
59	1	19	20	26
60	4	49	48	50
61	5	64	50	65
62	2	54	56	57
63	1	51	52	61
64	4	23	22	48
65	5	58	53	59
66	1	36	37	38
67	1	4	5	11
68	1	33	34	45
69	1	48	50	64
70	5	28	19	29
71	1	1	2	3
72	5	26	20	27
73	1	36	37	41
74	1	20	21	25
75	1	35	36	42
76	1	52	51	63
77	1	51	52	53
78	1	33	34	44
79	1	38	37	41
80	1	20	21	24
81	1	32	33	47
82	1	53	52	61
83	1	2	3	12
84	3	55	54	56
85	1	54	53	58
86	1	51	50	64
87	1	7	6	9
88	1	5	6	8
89	5	40	37	41
90	2	3	4	5
91	5	44	34	45
92	1	4	5	6
93	1	20	19	28
94	1	2	3	4
95	5	10	5	11
96	4	7	16	18
97	1	20	19	29
98	1	18	19	20
99	1	37	36	43
100	1	50	51	62
101	1	54	53	59
102	2	2	1	32
103	4	21	22	48
104	3	7	16	17
105	1	1	2	14
106	1	52	53	59
107	1	16	18	31
108	5	62	51	63
109	1	19	18	30
110	1	51	52	60
111	1	16	18	19
112	1	4	3	13
113	1	48	50	65
114	5	12	3	13
115	2	1	32	33

Dihedrals

1	15	62	51	50	64
2	18	49	48	50	65
2	19	49	48	50	65
2	20	49	48	50	65
3	15	24	21	20	27
4	21	18	19	20	21
4	22	18	19	20	21
4	23	18	19	20	21
5	18	55	54	53	59
5	19	55	54	53	59
5	20	55	54	53	59
6	17	17	16	18	19
7	25	23	22	48	49
8	24	20	19	18	31
9	15	58	53	52	61
10	14	56	54	53	59
11	16	19	20	21	22
12	5	1	32	33	34
13	15	28	19	18	31
14	15	45	34	33	46
15	15	60	52	51	63
16	16	16	18	19	20
17	16	54	53	52	61
18	7	2	3	4	5
18	8	2	3	4	5
19	5	3	2	1	32
20	1	32	33	34	35
20	2	32	33	34	35
21	5	3	4	5	11
22	3	38	37	36	42
22	4	38	37	36	42
23	15	61	52	51	63
24	14	22	48	50	65
25	3	4	5	6	9
25	4	4	5	6	9
26	24	51	52	53	59
27	15	40	37	36	42
28	17	49	48	50	51
29	16	22	21	20	27
30	1	1	2	3	4
30	2	1	2	3	4
31	3	32	33	34	45
31	4	32	33	34	45
32	5	3	4	5	10
33	5	1	32	33	46
34	26	36	37	38	39
34	27	36	37	38	39
35	18	23	22	21	24
35	19	23	22	21	24
35	20	23	22	21	24
36	16	48	50	51	52
37	14	7	16	18	31
38	15	41	37	36	43
39	16	16	18	19	28
40	16	22	21	20	26
41	16	16	18	19	29
42	7	34	35	36	37
42	8	34	35	36	37
43	3	7	6	5	10
43	4	7	6	5	10
44	14	20	21	22	48
45	14	7	16	18	19
46	5	36	35	34	45
47	14	22	48	50	51
48	3	35	36	37	40
48	4	35	36	37	40
49	15	12	3	2	14
50	15	24	21	20	26
51	24	19	20	21	25
52	16	48	50	51	62
53	15	62	51	50	65
54	15	13	3	2	14
55	28	39	38	37	40
56	15	59	53	52	60
57	5	5	4	3	13
58	15	45	34	33	47
59	14	52	53	54	56
60	15	58	53	52	60
61	3	4	5	6	8
61	4	4	5	6	8
62	3	7	6	5	11
62	4	7	6	5	11
63	15	29	19	18	31
64	29	53	54	56	57
65	24	21	20	19	28
66	24	21	20	19	29
67	3	35	34	33	46
67	4	35	34	33	46
68	16	48	50	51	63
69	5	14	2	1	32
70	15	13	3	2	15
71	24	53	52	51	62
72	18	17	16	18	30
72	19	17	16	18	30
72	20	17	16	18	30
73	9	5	6	7	16
73	10	5	6	7	16
74	15	27	20	19	28
75	15	27	20	19	29
76	17	52	53	54	55
77	15	9	6	5	11
78	24	52	51	50	64
79	24	50	51	52	61
80	1	35	36	37	38
80	2	35	36	37	38
81	24	20	19	18	30
82	15	28	19	18	30
83	3	1	2	3	13
83	4	1	2	3	13
84	15	41	37	36	42
85	5	34	35	36	43
86	18	49	48	50	64
86	19	49	48	50	64
86	20	49	48	50	64
87	3	35	36	37	41
87	4	35	36	37	41
88	3	32	33	34	44
88	4	32	33	34	44
89	14	25	21	22	48
90	25	21	22	48	50
91	5	34	35	36	42
92	15	44	34	33	46
93	5	1	32	33	47
94	7	3	4	5	6
94	8	3	4	5	6
95	18	55	54	53	58
95	19	55	54	53	58
95	20	55	54	53	58
96	25	23	22	48	50
97	28	39	38	37	41
98	15	63	51	50	65
99	15	25	21	20	27
100	21	50	51	52	53
100	22	50	51	52	53
100	23	50	51	52	53
101	15	60	52	51	62
102	15	9	6	5	10
103	5	36	35	34	44
104	16	51	52	53	54
105	16	54	53	52	60
106	15	29	19	18	30
107	25	21	22	48	49
108	24	18	19	20	27
109	15	12	3	2	15
110	24	19	20	21	24
111	1	4	5	6	7
111	2	4	5	6	7
112	15	59	53	52	61
113	5	9	6	7	16
114	5	15	2	1	32
115	3	4	3	2	14
115	4	4	3	2	14
116	14	22	48	50	64
117	15	25	21	20	26
118	15	44	34	33	47
119	15	26	20	19	28
120	17	20	21	22	23
121	15	26	20	19	29
122	15	61	52	51	62
123	5	8	6	7	16
124	13	6	7	16	18
125	24	51	52	53	58
126	15	8	6	5	11
127	14	7	16	18	30
128	3	38	37	36	43
128	4	38	37	36	43
129	6	2	1	32	33
130	11	6	7	16	17
130	12	6	7	16	17
131	24	18	19	20	26
132	3	1	2	3	12
132	4	1	2	3	12
133	3	4	3	2	15
133	4	4	3	2	15
134	3	35	34	33	47
134	4	35	34	33	47
135	24	53	52	51	63
136	15	40	37	36	43
137	18	23	22	21	25
137	19	23	22	21	25
137	20	23	22	21	25
138	14	56	54	53	58
139	7	33	34	35	36
139	8	33	34	35	36
140	24	52	51	50	65
141	15	8	6	5	10
142	24	50	51	52	60
143	5	5	4	3	12
144	18	17	16	18	31
144	19	17	16	18	31
144	20	17	16	18	31
145	30	55	54	56	57
145	31	55	54	56	57
146	15	63	51	50	64
147	14	24	21	22	48

Impropers

59	1	54	55	56	53
106	1	16	17	18	7
217	1	16	7	17	18
219	2	48	22	49	50
222	1	54	53	55	56
254	2	22	21	23	48
287	1	54	56	53	55
296	2	22	23	48	21
348	2	48	49	50	22
349	1	16	18	7	17
364	2	48	50	22	49
369	2	22	48	21	23
