Title

207 atoms
222 bonds
377 angles
599 dihedrals
276 impropers

11 atom types
15 bond types
8 angle types
22 dihedral types
3 improper types
-22.33699989 77.66300011 xlo xhi
-4.140999794 95.85900021 ylo yhi
-24.47699928 75.52300072 zlo zhi
0.0 0.0 0.0 xy xz yz

Masses

1	14.00672
2	12.01078
3	1.007947
4	15.99943
5	12.01078
6	1.007947
7	18.998403
8	1.007947
9	15.99943
10	15.99943
11	1.007947


Pair Coeffs

1	0.16769152	3.206876
2	0.086879315	3.4806469
3	0.015611343	2.5725815
4	0.16846514	3.0251065
5	0.10884061	3.3795318
6	0.014090815	1.1034277
7	0.061	3.1181455
8	0.015779483	2.6445434
9	0.2102061	3.0398122
10	0.20947353	2.99716
11	1.2326e-05	0.53453923

Bond Coeffs

1 harmonic	390.03554688505	1.390160554689
2 harmonic	505.144496193	1.019481865027
3 harmonic	422.7150220147	1.421786517481
4 harmonic	360.7852444772	1.387193227181
5 harmonic	397.2545789619	1.085358495916
6 harmonic	279.1350963404	1.454628925034
7 harmonic	425.69104206635	1.362945806494
8 harmonic	289.73813263395	1.498646816465
9 harmonic	264.62148576755	1.52190126495
10 harmonic	492.76746816345	1.381897776683
11 harmonic	340.45121009905	1.358690858053
12 harmonic	370.04670688625	1.093899492634
13 harmonic	582.698766451	1.225198386222
14 harmonic	385.7604595587	1.369745182308
15 harmonic	543.5267831885	0.9716763312559


Angle Coeffs

1 harmonic	57.8982893754	126.8062420451
2 harmonic	55.42182150775	117.3465570514
3 harmonic	63.44422595415	115.5071327674
4 harmonic	34.066775159195	129.1835929926
5 harmonic	65.09061609600001	110.3538806181
6 harmonic	53.20531626545	116.5475862634
7 harmonic	48.776492647595	115.6030999533
8 harmonic	201.41175231035	127.4691416191


Dihedral Coeffs

1 fourier 1	3.661930099076	2	180
2 fourier 1	1.193093382682	2	180
3 fourier 1	0.02021088501612	1	0
4 fourier 1	1.163235555439	2	180
5 fourier 1	1.532232714475	2	180
6 fourier 1	0.02664938770063	3	0
7 fourier 1	0.1155372516788	3	0
8 fourier 1	0.1040663847541	3	0
9 fourier 1	0.09223874044423	3	0
10 fourier 1	0.3159935921949	2	180
11 fourier 1	0.3247796806857	1	180
12 fourier 1	3.101948770557	2	180
13 fourier 1	-0.4252153282372	1	0
14 fourier 1	1.809047390003	2	180
15 fourier 1	-0.04816277792592	1	0
16 fourier 1	0.9974165607242	2	180
17 fourier 1	2.348375642009	2	180
18 fourier 1	1.256156174911	1	0
19 fourier 1	0.1911926717192	3	0
20 fourier 1	2.687457892086	2	180
21 fourier 1	2.772607909663	2	180
22 fourier 1	0.09692684957115	1	0


Improper Coeffs

1 0.3666666666666667	-1	2
2 0.3333333333333333	-1	2
3 3.5	-1	2


Atoms

1	1	1	-0.41301301	14.317	0.495	-0.056000002
2	1	2	0.124291	12.923	0.41	0.25799999
3	1	2	-0.40888199	12.207	1.527	0.48800001
4	1	3	0.219171	12.682	2.5009999	0.447
5	1	2	-0.1173	10.761	1.434	0.79000002
6	1	3	0.201887	10.206	2.3499999	0.96799999
7	1	2	-0.12997	10.143	0.237	0.81800002
8	1	2	-0.13614701	8.6929998	0.148	1.094
9	1	2	-0.132736	7.8779998	-0.51300001	0.25099999
10	1	3	0.20518699	8.2690001	-1.003	-0.625
11	1	2	-0.29836199	6.421	-0.51300001	0.47499999
12	1	3	0.22174101	5.7909999	-1.021	-0.244
13	1	2	0.32659501	5.8920002	0.12800001	1.536
14	1	4	-0.274533	4.5079999	0.198	1.765
15	1	2	0.25627699	3.5179999	-0.156	0.83899999
16	1	2	-0.27015799	2.7720001	0.80500001	0.26899999
17	1	3	0.22543	2.961	1.845	0.49599999
18	1	2	-0.177453	1.6569999	0.44999999	-0.62599999
19	1	3	0.21574099	1.054	1.252	-1.041
20	1	2	-0.189312	1.349	-0.84500003	-0.87900001
21	1	5	0.014921	0.077	-1.164	-1.6950001
22	1	2	-0.189312	-1.137	-0.59600002	-0.912
23	1	2	-0.177453	-2.2279999	-0.055	-1.507
24	1	3	0.21574099	-2.313	0.028000001	-2.5780001
25	1	2	-0.27015799	-3.3440001	0.49700001	-0.70599997
26	1	3	0.22543	-4.1739998	0.97899997	-1.214
27	1	2	0.25627699	-3.3069999	0.433	0.634
28	1	4	-0.274533	-4.3099999	0.99199998	1.4349999
29	1	2	0.32659501	-5.677	1.028	1.118
30	1	2	-0.29836199	-6.2979999	2.2160001	1.122
31	1	3	0.22174101	-5.7379999	3.122	1.316
32	1	2	-0.132736	-7.75	2.309	0.88099998
33	1	3	0.20518699	-8.2119999	3.283	0.92400002
34	1	2	-0.13614701	-8.4779997	1.2029999	0.65100002
35	1	2	-0.12997	-9.9549999	1.273	0.52600002
36	1	2	-0.131253	-10.613	0.495	-0.354
37	1	3	0.201887	-10.076	-0.15899999	-1.029
38	1	2	-0.37713301	-12.091	0.51800001	-0.41800001
39	1	3	0.21571299	-12.599	-0.131	-1.1160001
40	1	2	0.196602	-12.791	1.306	0.40900001
41	1	1	-0.53317499	-14.219	1.313	0.37599999
42	1	6	0.31829	-14.765	1.936	1.012
43	1	2	-0.37713301	-12.074	2.171	1.369
44	1	3	0.21571299	-12.627	2.813	2.0409999
45	1	2	-0.131253	-10.738	2.161	1.4220001
46	1	3	0.201887	-10.232	2.773	2.1570001
47	1	2	-0.059583999	-7.7940001	-0.113	0.62300003
48	1	3	0.20429599	-8.3909998	-1.001	0.46200001
49	1	2	-0.324231	-6.4720001	-0.22	0.87400001
50	1	5	0.76554102	-5.8189998	-1.5880001	0.94499999
51	1	7	-0.210858	-6.7529998	-2.586	1.1670001
52	1	7	-0.210858	-5.1599998	-1.854	-0.245
53	1	7	-0.210858	-4.9109998	-1.631	1.988
54	1	2	-0.27015799	-2.1619999	-0.222	1.298
55	1	3	0.22543	-2.151	-0.32300001	2.378
56	1	2	-0.177453	-1.1569999	-0.72799999	0.57700002
57	1	3	0.21574099	-0.354	-1.247	1.089
58	1	5	-0.129557	-0.133	-2.698	-1.844
59	1	8	0.109963	-0.29800001	-3.1689999	-0.85100001
60	1	8	0.109963	0.77399999	-3.1570001	-2.293
61	1	5	-0.12931	-1.324	-3.0539999	-2.7509999
62	1	8	0.112121	-1.279	-4.1409998	-2.9719999
63	1	8	0.112121	-2.2780001	-2.8800001	-2.2049999
64	1	5	-0.15088101	-1.352	-2.2709999	-4.0760002
65	1	8	0.114848	-2.237	-1.607	-4.1030002
66	1	8	0.114848	-1.471	-2.9779999	-4.9250002
67	1	5	-0.12931	-0.090999998	-1.438	-4.3130002
68	1	8	0.112121	-0.227	-0.81300002	-5.223
69	1	8	0.112121	0.75599998	-2.131	-4.5139999
70	1	5	-0.129557	0.27200001	-0.52399999	-3.1259999
71	1	8	0.109963	1.342	-0.26699999	-3.2909999
72	1	8	0.109963	-0.25099999	0.45300001	-3.217
73	1	2	-0.177453	2.214	-1.9069999	-0.264
74	1	3	0.21574099	2.0250001	-2.9560001	-0.42699999
75	1	2	-0.27015799	3.2349999	-1.574	0.54500002
76	1	3	0.22543	3.835	-2.349	1.005
77	1	2	-0.324231	6.7930002	0.81199998	2.5090001
78	1	5	0.76554102	6.1960001	1.451	3.7390001
79	1	7	-0.210859	5.6079998	0.47400001	4.5190001
80	1	7	-0.210859	7.1529999	2.115	4.4920001
81	1	7	-0.210859	5.2309999	2.3640001	3.365
82	1	2	-0.059583999	8.1219997	0.81999999	2.2839999
83	1	3	0.20429599	8.8009996	1.303	2.973
84	1	2	-0.117301	10.936	-0.99400002	0.56400001
85	1	3	0.201887	10.46	-1.97	0.58700001
86	1	2	-0.40888199	12.252	-0.91000003	0.31799999
87	1	3	0.219171	12.832	-1.816	0.148
88	1	6	0.371317	14.89	-0.37400001	-0.13600001
89	1	2	0.766666	-14.759	0.68300003	-0.289
90	1	9	-0.66280901	-14.591	0.81900001	-1.53
91	1	2	-0.35553399	-15.687	-0.32800001	0.25299999
92	1	2	-0.077816002	-16.388	-1.1440001	-0.55599999
93	1	3	0.220833	-16.292	-1.082	-1.633
94	1	2	-0.245718	-17.309	-2.1459999	0.017000001
95	1	3	0.210439	-17.868999	-2.7980001	-0.64200002
96	1	2	-0.02617	-17.452	-2.2490001	1.3430001
97	1	3	0.220245	-18.131001	-2.9890001	1.747
98	1	2	-0.294799	-16.686001	-1.357	2.2490001
99	1	2	0.58652103	-16.837	-1.464	3.711
100	1	9	-0.53353101	-17.617001	-2.312	4.2189999
101	1	2	0.053693999	-15.848	-0.44600001	1.723
102	1	3	0.23794401	-15.282	0.213	2.372
103	1	1	-0.41301301	14.755	1.408	-0.28799999
104	1	2	0.124291	15.797	1.493	-1.266
105	1	2	-0.40888199	16.389	0.377	-1.73
106	1	3	0.219171	16.089001	-0.59799999	-1.36
107	1	2	-0.1173	17.450001	0.46900001	-2.7579999
108	1	3	0.201887	17.909	-0.447	-3.1170001
109	1	2	-0.12997	17.82	1.666	-3.2539999
110	1	2	-0.13614701	18.861	1.755	-4.3000002
111	1	2	-0.132736	18.621	2.4159999	-5.447
112	1	3	0.20518699	17.676001	2.9070001	-5.6139998
113	1	2	-0.29836199	19.622999	2.4170001	-6.527
114	1	3	0.22174101	19.381001	2.925	-7.4520001
115	1	2	0.32659501	20.799	1.775	-6.3709998
116	1	4	-0.274533	21.764	1.705	-7.388
117	1	2	0.25627699	21.552999	2.059	-8.7270002
118	1	2	-0.27015799	21.5	1.099	-9.665
119	1	3	0.22543	21.582001	0.057999998	-9.3800001
120	1	2	-0.177453	21.384001	1.4529999	-11.089
121	1	3	0.21574099	21.379	0.65100002	-11.821
122	1	2	-0.189312	21.348	2.7479999	-11.486
123	1	5	0.014921	21.385	3.0669999	-12.997
124	1	2	-0.189312	22.714001	2.4990001	-13.563
125	1	2	-0.177453	22.834	1.9579999	-14.8
126	1	3	0.21574099	21.993999	1.875	-15.471
127	1	2	-0.27015799	24.122999	1.406	-15.275
128	1	3	0.22543	24.167999	0.92400002	-16.246
129	1	2	0.25627699	25.211	1.47	-14.492
130	1	4	-0.274533	26.437	0.91100001	-14.873
131	1	2	0.32659501	26.941999	0.875	-16.183001
132	1	2	-0.29836199	27.292	-0.31200001	-16.695
133	1	3	0.22174101	27.139	-1.219	-16.122
134	1	2	-0.132736	27.908001	-0.40599999	-18.032
135	1	3	0.20518699	28.202	-1.38	-18.391001
136	1	2	-0.13614701	28.125999	0.69999999	-18.764
137	1	2	-0.12997	28.851	0.63	-20.056999
138	1	2	-0.080760002	28.490999	1.408	-21.096001
139	1	3	0.201887	27.631001	2.062	-21.028999
140	1	2	-0.45297101	29.266001	1.385	-22.355
141	1	3	0.22760201	28.974001	2.0339999	-23.167
142	1	2	0.31476101	30.344999	0.597	-22.469999
143	1	1	-0.84583002	31.118	0.58999997	-23.672001
144	1	6	0.36421299	30.875	1.209	-24.476999
145	1	6	0.36421299	31.951	-0.033	-23.766001
146	1	2	-0.45297101	30.737	-0.26800001	-21.337999
147	1	3	0.22760201	31.603001	-0.91000003	-21.419001
148	1	2	-0.080760002	30.032	-0.25799999	-20.202
149	1	3	0.201887	30.356001	-0.87	-19.371
150	1	2	-0.059583999	27.719	2.016	-18.214001
151	1	3	0.20429599	27.921	2.904	-18.798
152	1	2	-0.324231	27.184999	2.1240001	-16.978001
153	1	5	0.76554102	26.877001	3.4909999	-16.398001
154	1	7	-0.210858	27.584999	4.4889998	-17.046
155	1	7	-0.210858	25.523001	3.757	-16.52
156	1	7	-0.210858	27.232	3.5339999	-15.061
157	1	2	-0.27015799	25.118999	2.1259999	-13.172
158	1	3	0.22543	26.007	2.2260001	-12.558
159	1	2	-0.177453	23.958	2.631	-12.745
160	1	3	0.21574099	23.931999	3.1500001	-11.793
161	1	5	-0.129557	21.379999	4.6009998	-13.255
162	1	8	0.109963	22.295	5.072	-12.834
163	1	8	0.109963	20.499001	5.0609999	-12.755
164	1	5	-0.12931	21.297001	4.9569998	-14.749
165	1	8	0.112121	21.087999	6.0450001	-14.835
166	1	8	0.112121	22.283001	4.783	-15.233
167	1	5	-0.15088101	20.215	4.1739998	-15.516
168	1	8	0.114848	20.688999	3.51	-16.264
169	1	8	0.114848	19.579	4.881	-16.09
170	1	5	-0.12931	19.312	3.3410001	-14.604
171	1	8	0.112121	18.634001	2.7160001	-15.227
172	1	8	0.112121	18.671	4.0339999	-14.016
173	1	5	-0.129557	20.091	2.427	-13.638
174	1	8	0.109963	19.354	2.1700001	-12.845
175	1	8	0.109963	20.309	1.451	-14.122
176	1	2	-0.177453	21.371	3.8110001	-10.425
177	1	3	0.21574099	21.341999	4.8590002	-10.673
178	1	2	-0.27015799	21.468	3.477	-9.1260004
179	1	3	0.22543	21.513	4.2529998	-8.3710003
180	1	2	-0.324231	21.099001	1.092	-5.079
181	1	5	0.76554102	22.451	0.45199999	-4.8829999
182	1	7	-0.210859	23.427999	1.429	-4.9330001
183	1	7	-0.210859	22.539	-0.212	-3.6689999
184	1	7	-0.210859	22.684	-0.461	-5.8920002
185	1	2	-0.059583999	20.167	1.0829999	-4.105
186	1	3	0.20429599	20.357	0.60000002	-3.1559999
187	1	2	-0.117301	17.164	2.8970001	-2.74
188	1	3	0.201887	17.451	3.8729999	-3.1210001
189	1	2	-0.40888199	16.223	2.8139999	-1.788
190	1	3	0.219171	15.757	3.72	-1.403
191	1	6	0.371317	14.367	2.277	0.141
192	1	2	0.58652103	-16.275999	-0.81099999	4.3660002
193	1	9	-0.53353101	-15.017	-0.84600002	4.3299999
194	1	2	-0.29030201	-16.990999	0.098999999	5.2810001
195	1	2	-0.02617	-16.329	0.926	6.1100001
196	1	3	0.220245	-15.246	0.94800001	6.131
197	1	2	-0.246868	-17.072001	1.825	7.013
198	1	3	0.210439	-16.531	2.4860001	7.677
199	1	2	-0.063772	-18.41	1.824	7.013
200	1	3	0.23127601	-18.938	2.4909999	7.6830001
201	1	2	-0.220015	-19.160999	0.91900003	6.1059999
202	1	2	0.83761698	-20.639999	0.93000001	6.118
203	1	9	-0.493103	-21.295	0.169	5.3540001
204	1	10	-0.66638499	-21.323999	1.785	6.9770002
205	1	11	0.416136	-22.337	1.803	6.9959998
206	1	2	0.070338003	-18.475	0.101	5.2839999
207	1	3	0.248004	-18.999001	-0.56900001	4.612

Bonds

1	1	1	2
2	2	1	88
3	3	1	103
4	4	2	3
5	4	2	86
6	5	3	4
7	4	3	5
8	5	5	6
9	4	5	7
10	6	7	8
11	4	7	84
12	4	8	9
13	4	8	82
14	5	9	10
15	4	9	11
16	5	11	12
17	4	11	13
18	7	13	14
19	4	13	77
20	7	14	15
21	4	15	16
22	4	15	75
23	5	16	17
24	4	16	18
25	5	18	19
26	4	18	20
27	8	20	21
28	4	20	73
29	8	21	22
30	9	21	58
31	9	21	70
32	4	22	23
33	4	22	56
34	5	23	24
35	4	23	25
36	5	25	26
37	4	25	27
38	7	27	28
39	4	27	54
40	7	28	29
41	4	29	30
42	4	29	49
43	5	30	31
44	4	30	32
45	5	32	33
46	4	32	34
47	6	34	35
48	4	34	47
49	4	35	36
50	4	35	45
51	5	36	37
52	4	36	38
53	5	38	39
54	4	38	40
55	1	40	41
56	4	40	43
57	2	41	42
58	10	41	89
59	5	43	44
60	4	43	45
61	5	45	46
62	5	47	48
63	4	47	49
64	8	49	50
65	11	50	51
66	11	50	52
67	11	50	53
68	5	54	55
69	4	54	56
70	5	56	57
71	12	58	59
72	12	58	60
73	9	58	61
74	12	61	62
75	12	61	63
76	9	61	64
77	12	64	65
78	12	64	66
79	9	64	67
80	12	67	68
81	12	67	69
82	9	67	70
83	12	70	71
84	12	70	72
85	5	73	74
86	4	73	75
87	5	75	76
88	8	77	78
89	4	77	82
90	11	78	79
91	11	78	80
92	11	78	81
93	5	82	83
94	5	84	85
95	4	84	86
96	5	86	87
97	13	89	90
98	6	89	91
99	4	91	92
100	4	91	101
101	5	92	93
102	4	92	94
103	5	94	95
104	4	94	96
105	5	96	97
106	4	96	98
107	6	98	99
108	4	98	101
109	13	99	100
110	6	99	192
111	5	101	102
112	1	103	104
113	2	103	191
114	4	104	105
115	4	104	189
116	5	105	106
117	4	105	107
118	5	107	108
119	4	107	109
120	6	109	110
121	4	109	187
122	4	110	111
123	4	110	185
124	5	111	112
125	4	111	113
126	5	113	114
127	4	113	115
128	7	115	116
129	4	115	180
130	7	116	117
131	4	117	118
132	4	117	178
133	5	118	119
134	4	118	120
135	5	120	121
136	4	120	122
137	8	122	123
138	4	122	176
139	8	123	124
140	9	123	161
141	9	123	173
142	4	124	125
143	4	124	159
144	5	125	126
145	4	125	127
146	5	127	128
147	4	127	129
148	7	129	130
149	4	129	157
150	7	130	131
151	4	131	132
152	4	131	152
153	5	132	133
154	4	132	134
155	5	134	135
156	4	134	136
157	6	136	137
158	4	136	150
159	4	137	138
160	4	137	148
161	5	138	139
162	4	138	140
163	5	140	141
164	4	140	142
165	1	142	143
166	4	142	146
167	2	143	144
168	2	143	145
169	5	146	147
170	4	146	148
171	5	148	149
172	5	150	151
173	4	150	152
174	8	152	153
175	11	153	154
176	11	153	155
177	11	153	156
178	5	157	158
179	4	157	159
180	5	159	160
181	12	161	162
182	12	161	163
183	9	161	164
184	12	164	165
185	12	164	166
186	9	164	167
187	12	167	168
188	12	167	169
189	9	167	170
190	12	170	171
191	12	170	172
192	9	170	173
193	12	173	174
194	12	173	175
195	5	176	177
196	4	176	178
197	5	178	179
198	8	180	181
199	4	180	185
200	11	181	182
201	11	181	183
202	11	181	184
203	5	185	186
204	5	187	188
205	4	187	189
206	5	189	190
207	13	192	193
208	6	192	194
209	4	194	195
210	4	194	206
211	5	195	196
212	4	195	197
213	5	197	198
214	4	197	199
215	5	199	200
216	4	199	201
217	6	201	202
218	4	201	206
219	13	202	203
220	14	202	204
221	15	204	205
222	5	206	207

Angles

1	5	13	14	15
2	4	19	18	20
3	6	49	50	52
4	4	157	159	160
5	1	130	129	157
6	2	2	1	103
7	1	16	18	20
8	4	117	178	179
9	4	37	36	38
10	1	116	117	118
11	6	164	167	169
12	6	163	161	164
13	4	77	82	83
14	6	167	170	173
15	1	113	115	180
16	4	3	5	6
17	1	8	82	77
18	5	129	130	131
19	4	108	107	109
20	1	5	7	8
21	4	12	11	13
22	1	9	11	13
23	6	123	161	162
24	1	40	43	45
25	7	71	70	72
26	1	41	89	91
27	4	147	146	148
28	1	47	49	50
29	6	152	153	154
30	4	122	176	177
31	7	162	161	163
32	1	9	8	82
33	3	104	103	191
34	1	38	40	41
35	6	63	61	64
36	1	32	34	47
37	4	55	54	56
38	7	65	64	66
39	1	118	120	122
40	1	23	25	27
41	1	105	104	189
42	4	180	185	186
43	4	196	195	197
44	4	198	197	199
45	1	150	152	153
46	1	89	91	101
47	1	131	132	134
48	1	113	115	116
49	4	138	140	141
50	6	167	170	171
51	4	91	101	102
52	6	166	164	167
53	4	139	138	140
54	6	182	181	183
55	6	21	58	59
56	7	68	67	69
57	1	23	22	56
58	6	79	78	80
59	1	92	91	101
60	1	18	20	21
61	1	96	98	99
62	1	181	180	185
63	1	15	16	18
64	6	161	164	165
65	6	164	167	168
66	1	110	111	113
67	3	144	143	145
68	3	142	143	144
69	1	138	137	148
70	4	136	150	151
71	4	200	199	201
72	4	30	32	33
73	1	35	45	43
74	6	49	50	51
75	1	115	180	185
76	1	18	20	73
77	6	62	61	64
78	4	158	157	159
79	1	22	23	25
80	6	21	58	61
81	6	21	58	60
82	6	64	67	68
83	6	65	64	67
84	6	61	64	66
85	1	99	192	194
86	1	99	98	101
87	4	48	47	49
88	6	77	78	80
89	1	199	201	202
90	6	20	21	58
91	4	27	54	55
92	4	125	127	128
93	4	8	9	10
94	3	1	103	191
95	1	109	110	111
96	1	116	117	178
97	4	16	18	19
98	1	3	5	7
99	6	58	21	70
100	4	104	189	190
101	4	7	84	85
102	4	95	94	96
103	1	127	129	130
104	4	39	38	40
105	1	192	194	206
106	1	130	131	132
107	4	105	107	108
108	1	117	178	176
109	1	8	7	84
110	1	94	96	98
111	1	130	131	152
112	1	28	29	30
113	1	1	2	3
114	4	118	120	121
115	1	104	105	107
116	1	7	84	86
117	4	43	45	46
118	1	35	34	47
119	7	171	170	172
120	1	195	197	199
121	6	154	153	156
122	1	2	3	5
123	6	172	170	173
124	4	131	132	133
125	1	3	2	86
126	6	61	64	67
127	6	161	164	166
128	6	123	173	174
129	3	2	1	88
130	4	10	9	11
131	1	131	152	153
132	1	124	159	157
133	4	85	84	86
134	6	67	70	72
135	4	129	157	158
136	4	97	96	98
137	1	136	137	138
138	1	192	194	195
139	5	202	204	205
140	7	165	164	166
141	4	94	96	97
142	6	21	70	67
143	1	103	104	189
144	4	176	178	179
145	1	100	99	192
146	4	84	86	87
147	3	40	41	42
148	1	136	137	148
149	4	91	92	93
150	4	126	125	127
151	6	155	153	156
152	1	36	35	45
153	1	91	101	98
154	1	29	30	32
155	6	80	78	81
156	4	15	16	17
157	1	41	40	43
158	1	194	195	197
159	1	201	202	204
160	1	99	192	193
161	6	69	67	70
162	6	64	67	69
163	6	152	153	156
164	6	59	58	61
165	1	194	206	201
166	1	38	40	43
167	6	20	21	22
168	7	174	173	175
169	7	59	58	60
170	1	123	124	159
171	1	122	176	178
172	4	133	132	134
173	6	64	67	70
174	1	28	27	54
175	6	180	181	184
176	1	140	142	146
177	6	66	64	67
178	6	60	58	61
179	1	13	77	82
180	1	118	117	178
181	1	21	20	73
182	4	114	113	115
183	6	21	70	72
184	4	15	75	76
185	1	34	47	49
186	1	25	27	54
187	1	32	34	35
188	6	58	61	62
189	4	8	82	83
190	6	51	50	53
191	1	129	157	159
192	1	201	202	203
193	1	96	98	101
194	6	161	164	167
195	4	35	45	46
196	1	120	122	123
197	6	22	21	70
198	1	137	136	150
199	1	5	7	84
200	4	142	146	147
201	1	138	140	142
202	6	52	50	53
203	4	2	3	4
204	1	78	77	82
205	1	110	185	180
206	4	9	11	12
207	6	170	173	174
208	4	4	3	5
209	4	197	199	200
210	4	137	148	149
211	1	21	22	23
212	6	61	64	65
213	1	134	136	150
214	4	17	16	18
215	4	22	56	57
216	1	107	109	187
217	5	115	116	117
218	6	122	123	161
219	1	8	9	11
220	1	30	32	34
221	6	67	70	71
222	4	194	195	196
223	3	88	1	103
224	1	29	49	47
225	4	20	73	74
226	1	16	15	75
227	1	193	192	194
228	6	168	167	170
229	1	132	134	136
230	4	110	111	112
231	4	201	206	207
232	1	132	131	152
233	1	98	99	100
234	6	58	61	63
235	4	31	30	32
236	1	30	29	49
237	1	89	91	92
238	4	188	187	189
239	1	107	109	110
240	1	120	122	176
241	2	40	41	89
242	6	77	78	79
243	6	51	50	52
244	1	13	77	78
245	4	187	189	190
246	4	2	86	87
247	1	14	15	16
248	1	34	35	36
249	4	106	105	107
250	6	124	123	173
251	1	109	187	189
252	4	26	25	27
253	6	122	123	173
254	1	35	36	38
255	1	134	136	137
256	1	136	150	152
257	1	34	35	45
258	4	98	101	102
259	4	146	148	149
260	6	171	170	173
261	1	14	15	75
262	4	22	23	24
263	1	125	127	129
264	6	79	78	81
265	6	123	173	175
266	1	98	99	192
267	4	109	187	188
268	1	7	8	9
269	1	105	107	109
270	4	137	138	139
271	4	93	92	94
272	1	36	38	40
273	1	22	56	54
274	4	121	120	122
275	6	123	161	164
276	5	27	28	29
277	6	123	173	170
278	4	54	56	57
279	4	110	185	186
280	1	142	146	148
281	1	25	27	28
282	1	111	113	115
283	6	21	70	71
284	1	14	13	77
285	8	203	202	204
286	4	35	36	37
287	1	29	49	50
288	1	131	152	150
289	4	117	118	119
290	6	180	181	183
291	1	20	73	75
292	4	194	206	207
293	6	77	78	81
294	1	137	148	146
295	7	168	167	169
296	4	177	176	178
297	4	124	125	126
298	6	154	153	155
299	1	7	8	82
300	4	36	38	39
301	1	125	124	159
302	4	151	150	152
303	4	119	118	120
304	1	140	142	143
305	1	92	94	96
306	1	21	22	56
307	6	22	21	58
308	1	202	201	206
309	6	183	181	184
310	4	73	75	76
311	1	137	138	140
312	6	182	181	184
313	6	49	50	53
314	6	180	181	182
315	4	141	140	142
316	4	104	105	106
317	4	33	32	34
318	6	164	167	170
319	6	68	67	70
320	1	127	129	157
321	6	169	167	170
322	1	103	104	105
323	4	112	111	113
324	1	123	124	125
325	1	111	110	185
326	6	161	123	173
327	6	165	164	167
328	4	6	5	7
329	4	128	127	129
330	1	11	13	77
331	1	15	75	73
332	6	123	161	163
333	6	58	61	64
334	1	90	89	91
335	4	92	94	95
336	1	116	115	180
337	6	122	123	124
338	1	27	54	56
339	1	41	89	90
340	6	124	123	161
341	4	124	159	160
342	6	152	153	155
343	4	111	113	114
344	1	115	180	181
345	1	117	118	120
346	1	2	86	84
347	1	11	13	14
348	4	29	30	31
349	6	162	161	164
350	4	24	23	25
351	6	167	170	172
352	1	1	2	86
353	1	197	199	201
354	4	23	25	26
355	4	44	43	45
356	6	20	21	70
357	4	135	134	136
358	1	124	125	127
359	1	195	194	206
360	4	195	197	198
361	6	170	173	175
362	1	109	110	185
363	1	110	109	187
364	1	91	92	94
365	1	104	189	187
366	7	62	61	63
367	1	199	201	206
368	4	74	73	75
369	4	34	47	48
370	1	28	29	49
371	1	123	122	176
372	3	42	41	89
373	1	143	142	146
374	4	40	43	44
375	4	132	134	135
376	2	1	103	104
377	3	142	143	145

Dihedrals

1	1	192	194	206	207
2	1	55	54	56	57
3	6	125	124	123	161
4	1	116	117	118	119
5	1	38	36	35	45
6	1	118	117	178	176
7	1	7	84	86	87
8	2	3	2	1	103
9	6	115	180	181	182
10	8	169	167	170	173
11	9	164	161	123	173
11	10	164	161	123	173
11	11	164	161	123	173
12	4	32	34	35	45
13	5	115	116	117	118
14	6	29	49	50	52
15	1	106	105	107	109
16	9	164	167	170	173
16	10	164	167	170	173
16	11	164	167	170	173
17	1	11	13	77	82
18	1	196	195	197	199
19	1	104	105	107	109
20	1	103	104	189	187
21	1	126	125	127	129
22	1	36	38	40	43
23	1	117	178	176	177
24	1	97	96	98	99
25	6	79	78	77	82
26	1	118	117	178	179
27	2	3	2	1	88
28	9	123	161	164	167
28	10	123	161	164	167
28	11	123	161	164	167
29	7	20	21	58	61
30	1	85	84	86	87
31	19	60	58	61	62
32	16	199	201	202	204
33	1	37	36	38	40
34	1	28	29	30	31
35	1	113	115	180	181
36	5	25	27	28	29
37	2	42	41	40	43
38	14	40	41	89	91
38	15	40	41	89	91
39	1	31	30	32	33
40	8	21	70	67	69
41	4	5	7	8	9
42	1	123	122	176	178
43	6	183	181	180	185
44	5	129	130	131	132
45	6	120	122	123	161
46	1	21	20	73	75
47	7	124	123	173	170
48	1	116	115	180	185
49	1	134	136	150	152
50	1	128	127	129	157
51	1	23	25	27	54
52	5	129	130	131	152
53	1	15	75	73	20
54	1	93	92	91	101
55	6	125	124	123	173
56	1	29	30	32	34
57	2	145	143	142	146
58	19	171	170	173	175
59	1	8	82	77	13
60	16	193	192	194	206
61	1	29	49	47	34
62	4	9	8	7	84
63	6	122	123	124	125
64	1	136	137	148	149
65	8	60	58	61	64
66	16	99	192	194	195
67	1	109	110	111	113
68	8	123	173	170	171
69	1	35	34	47	49
70	1	113	111	110	185
71	1	95	94	96	98
72	1	134	132	131	152
73	1	158	157	159	160
74	1	37	36	38	39
75	19	169	167	170	171
76	16	90	89	91	92
77	16	41	89	91	92
78	4	5	7	8	82
79	1	133	132	134	135
80	1	107	109	187	188
81	1	92	94	96	98
82	8	164	167	170	171
83	1	32	30	29	49
84	8	165	164	167	170
85	19	63	61	64	65
86	6	70	21	20	73
87	3	88	1	103	191
88	6	120	122	123	173
89	1	74	73	75	76
90	1	120	122	176	177
91	1	124	159	157	158
92	1	116	117	118	120
93	1	9	8	82	77
94	8	58	61	64	65
95	8	65	64	67	70
96	2	86	2	1	88
97	1	15	16	18	20
98	16	204	202	201	206
99	1	30	29	49	47
100	6	184	181	180	185
101	6	131	152	153	155
102	8	166	164	167	170
103	1	105	107	109	110
104	19	162	161	164	165
105	1	138	137	148	146
106	7	122	123	173	174
107	6	18	20	21	58
108	1	95	94	96	97
109	1	137	136	150	152
110	6	47	49	50	53
111	16	98	99	192	194
112	1	30	32	34	35
113	1	21	22	56	57
114	1	14	13	77	82
115	1	91	101	98	99
116	1	11	13	77	78
117	1	23	22	56	54
118	1	25	27	54	56
119	1	104	189	187	109
120	6	29	49	50	51
121	1	4	3	2	86
122	1	92	94	96	97
123	1	11	9	8	82
124	1	110	185	180	181
125	7	20	21	70	67
126	1	17	16	18	20
127	4	148	137	136	150
128	21	203	202	204	205
128	22	203	202	204	205
129	1	16	18	20	21
130	1	123	124	125	126
131	9	58	21	70	67
131	10	58	21	70	67
131	11	58	21	70	67
132	1	138	140	142	146
133	19	69	67	70	71
134	1	116	117	178	179
135	1	32	34	47	48
136	6	23	22	21	58
137	4	82	8	7	84
138	8	59	58	21	70
139	1	141	140	142	143
140	1	20	73	75	76
141	1	17	16	15	75
142	19	62	61	64	65
143	1	194	195	197	198
144	1	131	132	134	135
145	19	59	58	61	63
146	1	3	2	86	87
147	1	3	5	7	84
148	1	130	129	157	159
149	1	136	137	138	139
150	6	13	77	78	80
151	1	18	20	73	74
152	5	115	116	117	178
153	1	19	18	20	21
154	1	124	125	127	128
155	1	197	195	194	206
156	8	163	161	123	173
157	1	199	201	206	207
158	2	1	103	104	105
159	19	69	67	70	72
160	1	127	125	124	159
161	19	168	167	170	172
162	7	122	123	161	162
163	1	33	32	34	47
164	19	165	164	167	169
165	8	161	164	167	168
166	1	124	159	157	129
167	4	185	110	109	187
168	1	132	131	152	153
169	1	22	23	25	26
170	1	140	142	146	147
171	5	27	28	29	49
172	7	20	21	58	59
173	7	22	21	58	61
174	1	110	185	180	115
175	1	136	137	148	146
176	1	113	115	180	185
177	1	21	22	23	24
178	6	150	152	153	156
179	1	103	104	105	107
180	5	13	14	15	16
181	1	30	29	49	50
182	1	125	127	129	157
183	1	125	124	159	160
184	1	9	8	82	83
185	1	106	105	104	189
186	1	136	150	152	153
187	1	23	25	27	28
188	19	172	170	173	175
189	1	14	15	75	76
190	19	166	164	167	169
191	5	15	14	13	77
192	1	103	104	189	190
193	9	123	173	170	167
193	10	123	173	170	167
193	11	123	173	170	167
194	1	21	22	56	54
195	1	137	148	146	147
196	6	131	152	153	154
197	1	135	134	136	150
198	6	124	123	122	176
199	7	20	21	70	72
200	6	47	49	50	52
201	7	124	123	173	175
202	1	117	118	120	122
203	1	192	194	206	201
204	16	99	192	194	206
205	8	64	67	70	72
206	1	25	23	22	56
207	8	58	21	70	72
208	19	162	161	164	166
209	6	120	122	123	124
210	6	20	21	22	23
211	4	107	109	110	185
212	7	20	21	58	60
213	1	136	137	138	140
214	5	127	129	130	131
215	8	167	170	173	175
216	9	61	58	21	70
216	10	61	58	21	70
216	11	61	58	21	70
217	1	89	91	92	93
218	1	192	194	195	197
219	1	39	38	40	41
220	1	1	2	3	5
221	6	159	124	123	161
222	1	123	124	125	127
223	6	122	123	124	159
224	1	14	13	77	78
225	1	23	22	56	57
226	1	33	32	34	35
227	1	5	3	2	86
228	1	91	101	98	96
229	1	126	125	124	159
230	1	35	36	38	40
231	1	130	129	157	158
232	1	31	30	29	49
233	1	97	96	98	101
234	1	6	5	7	84
235	1	151	150	152	153
236	1	18	20	73	75
237	19	59	58	61	62
238	9	61	64	67	70
238	10	61	64	67	70
238	11	61	64	67	70
239	2	140	142	143	145
240	1	130	131	152	150
241	6	18	20	21	22
242	1	15	16	18	19
243	1	119	118	120	121
244	1	26	25	27	54
245	1	124	125	127	129
246	1	89	91	101	102
247	1	194	206	201	202
248	1	125	124	159	157
249	1	197	199	201	202
250	1	105	107	109	187
251	19	66	64	67	68
252	19	65	64	67	69
253	1	8	82	77	78
254	1	24	23	25	27
255	1	135	134	136	137
256	19	165	164	167	168
257	9	21	70	67	64
257	10	21	70	67	64
257	11	21	70	67	64
258	1	32	34	47	49
259	8	21	58	61	62
260	1	22	23	25	27
261	6	159	124	123	173
262	8	61	64	67	68
263	1	10	9	11	12
264	1	17	16	18	19
265	17	42	41	89	90
265	18	42	41	89	90
266	6	150	152	153	155
267	8	58	61	64	66
268	1	108	107	109	187
269	1	35	36	38	39
270	1	105	104	189	187
271	1	35	45	43	44
272	1	128	127	129	130
273	1	133	132	134	136
274	1	197	199	201	206
275	1	31	30	32	34
276	2	38	40	41	89
277	1	92	91	101	102
278	1	3	2	86	84
279	1	22	56	54	27
280	1	133	132	131	152
281	7	124	123	161	164
282	1	28	27	54	56
283	19	163	161	164	165
284	1	140	142	146	148
285	8	21	70	67	68
286	1	93	92	94	96
287	1	78	77	82	83
288	19	68	67	70	72
289	3	2	1	103	104
290	1	107	105	104	189
291	1	116	117	178	176
292	1	139	138	137	148
293	1	28	29	30	32
294	5	11	13	14	15
295	1	198	197	199	200
296	1	120	122	176	178
297	1	108	107	109	110
298	1	25	27	54	55
299	6	47	49	50	51
300	5	117	116	115	180
301	1	2	86	84	7
302	1	111	113	115	180
303	1	94	96	98	99
304	1	7	8	9	10
305	1	2	86	84	85
306	1	129	157	159	160
307	6	56	22	21	70
308	16	101	98	99	192
309	1	120	118	117	178
310	7	122	123	173	175
311	16	100	99	98	101
312	1	24	23	22	56
313	1	147	146	148	149
314	1	198	197	199	201
315	7	22	21	58	59
316	1	34	35	45	43
317	1	118	120	122	123
318	1	106	105	107	108
319	1	192	194	195	196
320	1	93	92	94	95
321	1	104	105	107	108
322	1	141	140	142	146
323	1	109	110	111	112
324	16	90	89	91	101
325	16	41	89	91	101
326	1	114	113	115	180
327	1	5	7	84	85
328	8	21	58	61	63
329	7	122	123	173	170
330	1	194	195	197	199
331	1	7	8	82	77
332	6	20	21	22	56
333	5	131	130	129	157
334	1	109	187	189	190
335	2	140	142	143	144
336	7	20	21	70	71
337	1	196	195	194	206
338	8	161	123	173	174
339	19	169	167	170	172
340	1	110	109	187	189
341	8	64	67	70	71
342	8	58	21	70	71
343	16	96	98	99	192
344	16	100	99	192	194
345	1	8	7	84	85
346	8	164	167	170	172
347	1	10	9	11	13
348	1	36	35	45	43
349	6	81	78	77	82
350	1	195	194	206	201
351	14	42	41	89	91
351	15	42	41	89	91
352	1	117	178	176	122
353	1	1	2	3	4
354	1	5	7	84	86
355	1	16	15	75	76
356	5	27	28	29	30
357	1	131	152	150	151
358	7	22	21	58	60
359	1	40	43	45	46
360	1	37	36	35	45
361	1	143	142	146	147
362	20	201	202	204	205
363	6	115	180	181	184
364	1	111	113	115	116
365	7	124	123	161	163
366	1	29	30	32	33
367	1	8	7	84	86
368	1	115	180	185	186
369	1	130	131	132	133
370	1	188	187	189	190
371	1	110	109	187	188
372	1	8	9	11	12
373	4	107	109	110	111
374	7	122	123	161	164
375	1	196	195	197	198
376	5	13	14	15	75
377	1	36	38	40	41
378	6	58	21	20	73
379	19	163	161	164	166
380	6	182	181	180	185
381	1	44	43	45	46
382	8	123	161	164	165
383	5	113	115	116	117
384	1	130	131	152	153
385	1	26	25	27	28
386	4	36	35	34	47
387	19	66	64	67	69
388	8	168	167	170	173
389	1	137	136	150	151
390	1	94	92	91	101
391	1	109	110	185	186
392	1	119	118	117	178
393	1	89	91	101	98
394	1	122	176	178	179
395	1	110	111	113	115
396	8	61	64	67	69
397	1	9	11	13	77
398	6	13	77	78	79
399	1	127	129	157	158
400	1	48	47	49	50
401	1	16	15	75	73
402	1	114	113	115	116
403	1	118	120	122	176
404	2	189	104	103	191
405	1	104	189	187	188
406	1	12	11	13	77
407	8	66	64	67	70
408	9	161	123	173	170
408	10	161	123	173	170
408	11	161	123	173	170
409	6	131	152	153	156
410	1	10	9	8	82
411	1	41	40	43	44
412	1	99	98	101	102
413	16	98	99	192	193
414	19	171	170	173	174
415	1	14	15	75	73
416	1	132	131	152	150
417	1	125	127	129	130
418	4	134	136	137	138
419	1	111	110	185	186
420	1	14	15	16	18
421	1	9	11	13	14
422	1	1	2	86	87
423	1	15	75	73	74
424	1	3	5	7	8
425	1	142	146	148	149
426	1	123	124	159	160
427	1	39	38	40	43
428	1	112	111	113	115
429	1	12	11	13	14
430	2	144	143	142	146
431	1	177	176	178	179
432	16	203	202	201	206
433	1	28	29	49	47
434	1	132	134	136	150
435	1	92	91	101	98
436	4	134	136	137	148
437	1	195	197	199	200
438	1	130	131	132	134
439	1	137	138	140	141
440	1	27	54	56	57
441	3	2	1	103	191
442	1	7	8	82	83
443	19	68	67	70	71
444	1	139	138	140	141
445	19	63	61	64	66
446	1	107	109	187	189
447	2	1	103	104	189
448	1	30	32	34	47
449	1	105	104	189	190
450	1	41	40	43	45
451	1	202	201	206	207
452	1	91	92	94	96
453	8	59	58	61	64
454	1	2	3	5	7
455	1	181	180	185	186
456	19	168	167	170	171
457	1	21	22	23	25
458	7	22	21	70	67