Title

58 atoms
61 bonds
94 angles
135 dihedrals
90 impropers

7 atom types
11 bond types
4 angle types
8 dihedral types
2 improper types
-6.880000114 93.11999989 xlo xhi
-2.247999907 97.75200009 ylo yhi
-7.390999794 92.60900021 zlo zhi
0.0 0.0 0.0 xy xz yz

Masses

1	15.99943
2	12.01078
3	1.007947
4	35.4532
5	15.99943
6	15.99943
7	1.007947


Pair Coeffs

1	0.16846514	3.0251065
2	0.086879315	3.4806469
3	0.015611343	2.5725815
4	0.2656001	3.3075278
5	0.2102061	3.0398122
6	0.20947353	2.99716
7	1.2326e-05	0.53453923

Bond Coeffs

1 harmonic	425.69104206635	1.362945806494
2 harmonic	300.03137914615	1.451203938761
3 harmonic	360.7852444772	1.387193227181
4 harmonic	397.2545789619	1.085358495916
5 harmonic	279.1350963404	1.454628925034
6 harmonic	399.1592953295	1.371688562017
7 harmonic	218.0227703685	1.746066037062
8 harmonic	301.15400723785	1.345741232799
9 harmonic	582.698766451	1.225198386222
10 harmonic	385.7604595587	1.369745182308
11 harmonic	543.5267831885	0.9716763312559


Angle Coeffs

1 harmonic	57.8982893754	126.8062420451
2 harmonic	65.09061609600001	110.3538806181
3 harmonic	34.066775159195	129.1835929926
4 harmonic	201.41175231035	127.4691416191


Dihedral Coeffs

1 fourier 1	3.661930099076	2	180
2 fourier 1	1.532232714475	2	180
3 fourier 1	0.457973137376	1	0
4 fourier 1	1.163235555439	2	180
5 fourier 1	5.294842998052	2	180
6 fourier 1	2.779853741805	2	180
7 fourier 1	0.9974165607242	2	180
8 fourier 1	0.8283030590042	2	180


Improper Coeffs

1 0.3666666666666667	-1	2
2 3.5	-1	2


Atoms

1	1	1	-0.0061559998	4.901	0.45199999	1.447
2	1	2	0.28359401	3.6860001	0.20299999	0.81400001
3	1	2	-0.263237	2.77	-0.56999999	1.4119999
4	1	3	0.22944	2.971	-1.001	2.385
5	1	2	-0.114146	1.477	-0.83999997	0.74900001
6	1	3	0.21073601	0.74900001	-1.4630001	1.253
7	1	2	-0.30093899	1.2180001	-0.32600001	-0.46700001
8	1	2	0.124741	-0.092	-0.57099998	-1.119
9	1	2	-0.22975001	-0.168	-1.108	-2.3559999
10	1	4	0.038941	1.2589999	-1.686	-3.2119999
11	1	4	0.038941	-1.699	-1.272	-3.21
12	1	2	-0.30093899	-1.316	-0.206	-0.36399999
13	1	2	-0.118627	-1.472	1.0420001	0.113
14	1	3	0.21073601	-0.72299999	1.803	-0.074000001
15	1	2	-0.214349	-2.6760001	1.398	0.89200002
16	1	3	0.22950099	-2.7920001	2.4100001	1.257
17	1	2	0.44733399	-3.615	0.472	1.1440001
18	1	1	-0.43560901	-4.756	0.79100001	1.876
19	1	2	-0.214349	-3.437	-0.90700001	0.64200002
20	1	3	0.22950099	-4.1859999	-1.658	0.85500002
21	1	2	-0.118627	-2.349	-1.2309999	-0.068000004
22	1	3	0.21073601	-2.221	-2.2479999	-0.41600001
23	1	2	-0.114146	2.2290001	0.54400003	-1.119
24	1	3	0.21073601	2.0209999	0.99299997	-2.082
25	1	2	-0.263237	3.398	0.79100001	-0.514
26	1	3	0.22944	4.1300001	1.428	-0.99400002
27	1	2	0.631643	-4.9200001	1.757	2.2509999
28	1	5	-0.473939	-3.971	2.4779999	2.513
29	1	1	-0.0061559998	5.6079998	1.034	1.0140001
30	1	2	0.28359401	5.598	1.2819999	-0.35600001
31	1	2	-0.263237	6.5469999	2.0550001	-0.89999998
32	1	3	0.22944	7.322	2.4860001	-0.27900001
33	1	2	-0.114146	6.5440001	2.325	-2.3529999
34	1	3	0.21073601	7.3249998	2.948	-2.7720001
35	1	2	-0.30093899	5.579	1.812	-3.1370001
36	1	2	0.124741	5.5949998	2.0569999	-4.5999999
37	1	2	-0.22975001	4.5279999	2.5929999	-5.23
38	1	4	0.038941	3.1159999	3.171	-4.349
39	1	4	0.038941	4.4629998	2.757	-6.9829998
40	1	2	-0.30093899	6.823	1.691	-5.3460002
41	1	2	-0.088740997	7.3200002	0.44400001	-5.2680001
42	1	3	0.21073601	6.8130002	-0.317	-4.6869998
43	1	2	-0.369156	8.5609999	0.088	-5.9860001
44	1	3	0.235908	8.9390001	-0.92500001	-5.9229999
45	1	2	0.43022501	9.2119999	1.0140001	-6.7080002
46	1	6	-0.64345598	10.384	0.69400001	-7.3909998
47	1	7	0.44293901	10.778	-0.23899999	-7.3670001
48	1	2	-0.36915699	8.684	2.392	-6.7779999
49	1	3	0.235908	9.2150002	3.1440001	-7.348
50	1	2	-0.088740997	7.5570002	2.7160001	-6.132
51	1	3	0.21073601	7.1890001	3.733	-6.177
52	1	2	-0.114146	4.539	0.94099998	-2.5320001
53	1	3	0.21073601	3.776	0.493	-3.1559999
54	1	2	-0.263237	4.546	0.69400001	-1.217
55	1	3	0.22944	3.7850001	0.057999998	-0.78399998
56	1	2	0.470373	-5.9310002	2.115	2.4059999
57	1	5	-0.54124999	-6.8800001	1.4299999	2.062
58	1	4	-0.068309002	-6.204	3.6789999	3.1500001

Bonds

1	1	1	2
2	2	1	29
3	3	2	3
4	3	2	25
5	4	3	4
6	3	3	5
7	4	5	6
8	3	5	7
9	5	7	8
10	3	7	23
11	6	8	9
12	5	8	12
13	7	9	10
14	7	9	11
15	3	12	13
16	3	12	21
17	4	13	14
18	3	13	15
19	4	15	16
20	3	15	17
21	1	17	18
22	3	17	19
23	8	18	27
24	4	19	20
25	3	19	21
26	4	21	22
27	4	23	24
28	3	23	25
29	4	25	26
30	9	27	28
31	5	27	56
32	1	29	30
33	3	30	31
34	3	30	54
35	4	31	32
36	3	31	33
37	4	33	34
38	3	33	35
39	5	35	36
40	3	35	52
41	6	36	37
42	5	36	40
43	7	37	38
44	7	37	39
45	3	40	41
46	3	40	50
47	4	41	42
48	3	41	43
49	4	43	44
50	3	43	45
51	10	45	46
52	3	45	48
53	11	46	47
54	4	48	49
55	3	48	50
56	4	50	51
57	4	52	53
58	3	52	54
59	4	54	55
60	9	56	57
61	7	56	58

Angles

1	1	35	52	54
2	1	37	36	40
3	1	5	7	23
4	1	8	7	23
5	1	10	9	11
6	1	7	23	25
7	1	7	8	9
8	1	40	50	48
9	1	2	3	5
10	3	40	41	42
11	3	30	54	55
12	2	45	46	47
13	3	24	23	25
14	1	3	2	25
15	1	35	36	37
16	3	34	33	35
17	1	40	41	43
18	3	2	25	26
19	1	43	45	46
20	1	30	54	52
21	3	45	48	49
22	3	12	13	14
23	1	36	37	39
24	3	4	3	5
25	1	38	37	39
26	1	33	35	36
27	3	30	31	32
28	1	1	2	25
29	1	33	35	52
30	2	2	1	29
31	1	12	13	15
32	3	31	33	34
33	1	31	30	54
34	1	41	40	50
35	3	42	41	43
36	3	49	48	50
37	3	41	43	44
38	3	44	43	45
39	1	31	33	35
40	1	5	7	8
41	1	13	12	21
42	1	36	35	52
43	3	12	21	22
44	3	17	19	20
45	3	14	13	15
46	1	46	45	48
47	1	41	43	45
48	3	19	21	22
49	2	1	29	30
50	1	27	56	57
51	1	30	31	33
52	3	35	52	53
53	1	2	25	23
54	1	45	48	50
55	1	18	17	19
56	3	3	5	6
57	1	28	27	56
58	3	13	15	16
59	1	57	56	58
60	3	7	23	24
61	1	36	40	41
62	3	52	54	55
63	4	18	27	28
64	1	12	21	19
65	3	16	15	17
66	3	6	5	7
67	3	20	19	21
68	1	43	45	48
69	1	15	17	18
70	1	27	56	58
71	1	7	8	12
72	1	8	12	13
73	1	3	5	7
74	1	13	15	17
75	1	35	36	40
76	1	15	17	19
77	2	17	18	27
78	1	8	9	10
79	1	8	12	21
80	1	17	19	21
81	3	40	50	51
82	1	29	30	54
83	3	32	31	33
84	3	53	52	54
85	1	8	9	11
86	1	29	30	31
87	1	36	40	50
88	3	48	50	51
89	1	1	2	3
90	1	36	37	38
91	3	23	25	26
92	1	9	8	12
93	1	18	27	56
94	3	2	3	4

Dihedrals

1	1	4	3	2	25
2	1	40	41	43	44
3	1	36	40	41	43
4	1	5	3	2	25
5	1	42	41	40	50
6	1	3	2	25	23
7	4	33	35	36	37
8	1	44	43	45	46
9	1	3	5	7	23
10	7	28	27	56	57
11	5	39	37	36	40
12	1	18	17	19	20
13	1	35	52	54	55
14	1	1	2	3	4
15	1	8	12	13	14
16	1	2	3	5	6
17	5	7	8	9	10
18	4	9	8	7	23
19	1	41	43	45	48
20	4	7	8	12	21
21	4	35	36	40	50
22	8	43	45	46	47
23	5	11	9	8	12
24	1	32	31	33	35
25	7	28	27	56	58
26	1	7	23	25	26
27	4	5	7	8	9
28	3	2	1	29	30
29	1	18	17	19	21
30	1	1	2	3	5
31	1	8	12	13	15
32	5	10	9	8	12
33	4	7	8	12	13
34	1	31	30	54	55
35	1	6	5	7	8
36	7	18	27	56	58
37	1	42	41	43	44
38	1	34	33	35	36
39	1	12	21	19	20
40	1	8	12	21	22
41	1	30	54	52	53
42	4	37	36	35	52
43	1	34	33	35	52
44	1	24	23	25	26
45	1	40	41	43	45
46	5	35	36	37	38
47	1	31	30	54	52
48	1	4	3	5	6
49	5	7	8	9	11
50	1	36	40	50	51
51	1	17	19	21	22
52	1	13	12	21	22
53	1	33	35	52	53
54	5	35	36	37	39
55	4	37	36	40	41
56	1	2	3	5	7
57	5	38	37	36	40
58	1	16	15	17	18
59	1	8	7	23	24
60	2	19	17	18	27
61	2	25	2	1	29
62	1	44	43	45	48
63	1	46	45	48	49
64	1	29	30	31	32
65	1	29	30	54	55
66	2	1	29	30	54
67	1	15	17	19	20
68	1	3	5	7	8
69	1	43	41	40	50
70	1	43	45	48	49
71	1	1	2	25	26
72	2	1	29	30	31
73	4	5	7	8	12
74	1	14	13	12	21
75	4	40	36	35	52
76	1	41	40	50	51
77	1	53	52	54	55
78	1	36	40	41	42
79	1	46	45	48	50
80	1	30	31	33	34
81	1	36	35	52	53
82	1	41	43	45	46
83	1	42	41	43	45
84	4	12	8	7	23
85	1	15	17	19	21
86	1	43	45	48	50
87	1	12	13	15	16
88	1	33	31	30	54
89	4	9	8	12	21
90	4	37	36	40	50
91	1	29	30	54	52
92	1	14	13	15	16
93	1	12	21	19	17
94	1	8	12	21	19
95	1	30	31	33	35
96	1	6	5	7	23
97	1	36	35	52	54
98	1	1	2	25	23
99	1	32	31	30	54
100	1	41	40	50	48
101	1	32	31	33	34
102	1	40	50	48	49
103	1	4	3	5	7
104	1	12	13	15	17
105	1	5	7	23	24
106	1	29	30	31	33
107	1	30	54	52	35
108	1	13	15	17	18
109	1	33	35	52	54
110	1	14	13	15	17
111	2	3	2	1	29
112	4	9	8	12	13
113	1	31	33	35	36
114	1	40	50	48	45
115	2	15	17	18	27
116	1	20	19	21	22
117	1	36	40	50	48
118	1	49	48	50	51
119	1	16	15	17	19
120	1	2	25	23	24
121	1	3	2	25	26
122	1	8	7	23	25
123	1	31	33	35	52
124	1	13	12	21	19
125	4	33	35	36	40
126	4	35	36	40	41
127	1	45	48	50	51
128	1	2	25	23	7
129	2	17	18	27	28
130	7	18	27	56	57
131	1	5	7	23	25
132	1	13	15	17	19
133	1	15	13	12	21
134	6	17	18	27	56
135	8	47	46	45	48

Impropers

4	1	17	15	18	19
5	1	35	33	36	52
6	1	5	3	6	7
8	1	56	27	57	58
9	1	37	38	39	36
11	1	30	54	29	31
14	1	37	36	38	39
19	1	12	21	8	13
20	1	36	37	40	35
22	2	27	28	56	18
26	1	50	51	40	48
32	1	30	29	31	54
33	1	13	15	12	14
36	1	15	16	17	13
37	1	45	48	43	46
38	1	15	13	16	17
43	1	31	30	32	33
44	1	33	31	34	35
45	1	43	45	41	44
46	1	45	43	46	48
48	1	52	35	53	54
49	1	50	40	48	51
53	1	8	12	7	9
54	1	35	52	33	36
55	1	48	45	49	50
56	1	3	4	5	2
58	1	7	5	8	23
59	1	17	19	15	18
60	1	12	13	21	8
62	1	25	2	23	26
63	1	3	2	4	5
65	1	37	39	36	38
66	1	41	42	43	40
73	1	35	36	52	33
76	1	30	31	54	29
77	1	2	1	3	25
79	1	48	49	50	45
81	2	27	56	18	28
84	1	54	55	30	52
85	1	40	36	41	50
88	1	13	14	15	12
91	1	19	20	21	17
94	1	9	8	10	11
96	1	9	10	11	8
98	1	8	9	12	7
99	1	54	52	55	30
100	1	33	35	31	34
101	1	25	26	2	23
102	1	15	17	13	16
103	1	19	17	20	21
104	2	27	18	28	56
106	1	23	7	24	25
107	1	12	8	13	21
110	1	7	23	5	8
111	1	41	40	42	43
112	1	52	53	54	35
113	1	21	19	22	12
115	1	31	32	33	30
116	1	21	22	12	19
117	1	36	40	35	37
119	1	5	7	3	6
120	1	25	23	26	2
121	1	40	41	50	36
123	1	19	21	17	20
124	1	41	43	40	42
128	1	9	11	8	10
133	1	43	44	45	41
136	1	43	41	44	45
137	1	21	12	19	22
138	1	23	25	7	24
139	1	5	6	7	3
140	1	54	30	52	55
141	1	17	18	19	15
143	1	8	7	9	12
145	1	56	57	58	27
146	1	13	12	14	15
147	1	33	34	35	31
148	1	2	3	25	1
150	1	31	33	30	32
151	1	36	35	37	40
154	1	48	50	45	49
158	1	45	46	48	43
159	1	2	25	1	3
160	1	56	58	27	57
166	1	7	8	23	5
168	1	23	24	25	7
171	1	50	48	51	40
172	1	40	50	36	41
173	1	52	54	35	53
179	1	3	5	2	4
