Title

59 atoms
62 bonds
101 angles
157 dihedrals
72 impropers

8 atom types
12 bond types
6 angle types
20 dihedral types
2 improper types
-6.699999809 93.30000019 xlo xhi
-1.483999968 98.51600003 ylo yhi
-6.409999847 93.59000015 zlo zhi
0.0 0.0 0.0 xy xz yz

Masses

1	15.99943
2	12.01078
3	1.007947
4	12.01078
5	15.99943
6	1.007947
7	15.99943
8	1.007947


Pair Coeffs

1	0.16846514	3.0251065
2	0.10884061	3.3795318
3	0.016409246	2.5832257
4	0.086879315	3.4806469
5	0.2102061	3.0398122
6	0.015611343	2.5725815
7	0.20947353	2.99716
8	1.2326e-05	0.53453923

Bond Coeffs

1 harmonic	366.7408841747	1.425895053732
2 harmonic	300.03137914615	1.451203938761
3 harmonic	264.62148576755	1.52190126495
4 harmonic	370.04670688625	1.093899492634
5 harmonic	301.15400723785	1.345741232799
6 harmonic	582.698766451	1.225198386222
7 harmonic	279.1350963404	1.454628925034
8 harmonic	360.7852444772	1.387193227181
9 harmonic	397.2545789619	1.085358495916
10 harmonic	329.96998057905	1.427343958716
11 harmonic	543.5267831885	0.9716763312559
12 harmonic	385.7604595587	1.369745182308


Angle Coeffs

1 harmonic	53.20531626545	116.5475862634
2 harmonic	65.09061609600001	110.3538806181
3 harmonic	201.41175231035	127.4691416191
4 harmonic	57.8982893754	126.8062420451
5 harmonic	48.776492647595	115.6030999533
6 harmonic	34.066775159195	129.1835929926


Dihedral Coeffs

1 fourier 1	-0.0309670556842	3	0
2 fourier 1	0.4598191477945	2	0
3 fourier 1	0.1115525666802	3	0
4 fourier 1	0.3432490222662	1	0
5 fourier 1	0.0473758381877	3	0
6 fourier 1	0.457973137376	1	0
7 fourier 1	0.1918272375143	3	0
8 fourier 1	0.9202179876409	1	180
9 fourier 1	1.163809172478	2	180
10 fourier 1	0.1679186987369	1	180
11 fourier 1	2.779853741805	2	180
12 fourier 1	0.9974165607242	2	180
13 fourier 1	0.1911926717192	3	0
14 fourier 1	3.661930099076	2	180
15 fourier 1	0.3445382149273	3	0
16 fourier 1	0.1364556373303	1	0
17 fourier 1	0.3026390167484	3	0
18 fourier 1	2.687457892086	2	180
19 fourier 1	2.772607909663	2	180
20 fourier 1	0.09692684957115	1	0


Improper Coeffs

1 3.5	-1	2
2 0.3666666666666667	-1	2


Atoms

1	1	1	-0.130638	1.576	-0.336	0.85699999
2	1	2	0.053449001	0.63599998	-0.419	-0.17900001
3	1	2	0.158435	-0.71899998	0.11	0.28999999
4	1	1	-0.500723	-1.675	-0.035999998	-0.72399998
5	1	3	0.093463004	-1.051	-0.46900001	1.177
6	1	3	0.093463004	-0.63099998	1.1799999	0.58899999
7	1	3	0.101105	0.52999997	-1.484	-0.477
8	1	3	0.101105	0.98699999	0.154	-1.068
9	1	4	0.79408997	-1.49	0.71499997	-1.4170001
10	1	5	-0.54623598	-0.36300001	0.76300001	-1.976
11	1	4	-0.269077	-2.5350001	1.704	-1.7359999
12	1	4	-0.081724003	-3.733	1.636	-1.128
13	1	6	0.22223499	-3.9430001	0.86000001	-0.40200001
14	1	4	-0.217232	-4.7880001	2.6229999	-1.4400001
15	1	6	0.19162001	-5.7459998	2.55	-0.93900001
16	1	4	-0.083241001	-4.5539999	3.595	-2.3340001
17	1	4	-0.21083701	-5.579	4.598	-2.6730001
18	1	6	0.19162001	-6.552	4.566	-2.198
19	1	4	-0.049052	-5.3150001	5.5560002	-3.5699999
20	1	6	0.20442501	-6.086	6.2800002	-3.8010001
21	1	4	-0.33146799	-3.997	5.651	-4.2550001
22	1	4	0.58125299	-3.7909999	6.7389998	-5.2309999
23	1	5	-0.568739	-2.698	6.8730001	-5.8439999
24	1	4	0.010823	-3.0190001	4.763	-3.9879999
25	1	6	0.201764	-2.0599999	4.8340001	-4.4879999
26	1	4	-0.17802399	-3.2379999	3.6789999	-3.01
27	1	4	-0.032965999	-2.279	2.783	-2.7260001
28	1	6	0.212487	-1.317	2.8440001	-3.22
29	1	1	-0.125016	1.845	0.61799997	0.92000002
30	1	2	0.025431	3.148	0.70099998	0.41100001
31	1	2	0.097459003	4.1529999	0.17200001	1.434
32	1	7	-0.67537999	5.461	0.31799999	0.95200002
33	1	8	0.39982101	5.5970001	-0.40000001	0.27900001
34	1	3	0.099359997	4.0549998	0.75199997	2.3759999
35	1	3	0.099359997	3.941	-0.89700001	1.663
36	1	3	0.101806	3.3759999	1.766	0.192
37	1	3	0.101806	3.23	0.12800001	-0.54100001
38	1	4	0.58125299	-4.5910001	7.4400001	-5.4299998
39	1	5	-0.56874001	-5.355	7.2319999	-6.4099998
40	1	4	-0.33146799	-4.7670002	8.6160002	-4.5570002
41	1	4	-0.049052	-5.75	9.5120001	-4.7719998
42	1	6	0.20442501	-6.4419999	9.3940001	-5.5960002
43	1	4	-0.21083701	-5.9029999	10.681	-3.881
44	1	6	0.19162001	-6.6999998	11.39	-4.0700002
45	1	4	-0.083241001	-5.0609999	10.854	-2.852
46	1	4	-0.217232	-5.1799998	12.006	-1.9400001
47	1	6	0.19162001	-5.9619999	12.741	-2.0899999
48	1	4	-0.074252002	-4.3239999	12.152	-0.921
49	1	6	0.22223499	-4.441	13.011	-0.27200001
50	1	4	-0.26197201	-3.2279999	11.175	-0.66299999
51	1	4	0.833435	-2.3169999	11.4	0.48300001
52	1	5	-0.51905698	-1.38	10.592	0.73000002
53	1	7	-0.67206502	-2.49	12.512	1.304
54	1	8	0.40787399	-1.874	12.678	2.0910001
55	1	4	-0.027619001	-3.0710001	10.101	-1.464
56	1	6	0.212487	-2.2750001	9.3889999	-1.279
57	1	4	-0.17802399	-3.9779999	9.875	-2.6070001
58	1	4	0.010823	-3.8380001	8.8129997	-3.4159999
59	1	6	0.201764	-3.046	8.0939999	-3.2409999

Bonds

1	1	1	2
2	2	1	29
3	3	2	3
4	4	2	7
5	4	2	8
6	1	3	4
7	4	3	5
8	4	3	6
9	5	4	9
10	6	9	10
11	7	9	11
12	8	11	12
13	8	11	27
14	9	12	13
15	8	12	14
16	9	14	15
17	8	14	16
18	8	16	17
19	8	16	26
20	9	17	18
21	8	17	19
22	9	19	20
23	8	19	21
24	7	21	22
25	8	21	24
26	6	22	23
27	7	22	38
28	9	24	25
29	8	24	26
30	8	26	27
31	9	27	28
32	1	29	30
33	3	30	31
34	4	30	36
35	4	30	37
36	10	31	32
37	4	31	34
38	4	31	35
39	11	32	33
40	6	38	39
41	7	38	40
42	8	40	41
43	8	40	58
44	9	41	42
45	8	41	43
46	9	43	44
47	8	43	45
48	8	45	46
49	8	45	57
50	9	46	47
51	8	46	48
52	9	48	49
53	8	48	50
54	7	50	51
55	8	50	55
56	6	51	52
57	12	51	53
58	11	53	54
59	9	55	56
60	8	55	57
61	8	57	58
62	9	58	59

Angles

1	4	4	9	11
2	4	45	46	48
3	6	40	41	42
4	3	52	51	53
5	6	15	14	16
6	4	43	45	57
7	4	9	11	27
8	4	22	21	24
9	4	16	26	24
10	4	40	58	57
11	2	1	29	30
12	4	46	45	57
13	4	38	40	58
14	4	50	51	52
15	4	19	21	24
16	6	25	24	26
17	4	51	50	55
18	4	17	19	21
19	1	32	31	34
20	4	50	55	57
21	6	56	55	57
22	4	16	26	27
23	1	31	30	37
24	1	1	2	3
25	4	48	50	51
26	6	57	58	59
27	6	11	12	13
28	4	11	27	26
29	1	29	30	37
30	4	22	38	39
31	4	41	43	45
32	6	49	48	50
33	1	1	2	7
34	4	46	48	50
35	1	30	31	35
36	4	14	16	26
37	6	50	55	56
38	4	22	38	40
39	5	7	2	8
40	6	11	27	28
41	4	11	12	14
42	6	20	19	21
43	4	41	40	58
44	4	16	17	19
45	6	18	17	19
46	4	9	11	12
47	4	45	57	55
48	4	45	57	58
49	1	3	2	7
50	4	38	40	41
51	4	21	22	38
52	4	55	57	58
53	6	45	46	47
54	5	5	3	6
55	1	2	3	6
56	1	30	31	32
57	2	3	4	9
58	4	21	22	23
59	4	39	38	40
60	6	17	19	20
61	1	4	3	5
62	1	32	31	35
63	6	26	27	28
64	1	29	30	31
65	6	13	12	14
66	1	4	3	6
67	4	43	45	46
68	4	10	9	11
69	6	40	58	59
70	1	2	3	4
71	4	12	11	27
72	4	21	24	26
73	3	4	9	10
74	1	2	3	5
75	1	1	2	8
76	4	17	16	26
77	4	23	22	38
78	6	21	24	25
79	6	12	14	15
80	4	50	51	53
81	2	51	53	54
82	1	3	2	8
83	5	34	31	35
84	6	46	48	49
85	4	12	14	16
86	2	2	1	29
87	4	19	21	22
88	6	41	43	44
89	6	42	41	43
90	4	40	41	43
91	1	31	30	36
92	6	16	17	18
93	1	29	30	36
94	6	47	46	48
95	4	48	50	55
96	4	24	26	27
97	2	31	32	33
98	1	30	31	34
99	6	44	43	45
100	4	14	16	17
101	5	36	30	37

Dihedrals

1	14	24	26	27	28
2	14	11	12	14	16
3	12	39	38	40	58
4	1	1	2	3	4
4	2	1	2	3	4
5	14	45	46	48	49
6	14	41	40	58	57
7	13	6	3	2	8
8	18	50	51	53	54
9	14	45	57	55	56
10	3	1	2	3	5
10	4	1	2	3	5
11	14	46	48	50	51
12	14	11	27	26	16
13	14	13	12	11	27
14	14	38	40	58	57
15	14	40	58	57	45
16	14	19	17	16	26
17	14	46	45	57	58
18	12	10	9	11	27
19	5	1	29	30	36
20	14	40	41	43	45
21	14	15	14	16	17
22	17	33	32	31	34
23	12	24	21	22	38
24	14	42	41	43	44
25	12	22	38	40	41
26	5	5	3	4	9
27	14	16	26	27	28
28	5	1	29	30	37
29	14	55	57	58	59
30	19	52	51	53	54
30	20	52	51	53	54
31	14	47	46	48	49
32	14	9	11	27	28
33	6	2	1	29	30
34	14	15	14	16	26
35	14	13	12	14	15
36	5	3	2	1	29
37	14	45	57	58	59
38	14	45	57	55	50
39	14	18	17	19	21
40	3	32	31	30	36
40	4	32	31	30	36
41	13	35	31	30	36
42	14	41	43	45	57
43	14	19	21	24	25
44	14	22	21	24	26
45	14	13	12	14	16
46	14	49	48	50	55
47	12	23	22	21	24
48	14	14	16	17	18
49	12	23	22	38	40
50	14	40	58	57	55
51	14	12	14	16	17
52	3	29	30	31	34
52	4	29	30	31	34
53	14	48	46	45	57
54	14	12	11	27	26
55	9	3	4	9	10
55	10	3	4	9	10
56	14	49	48	50	51
57	14	51	50	55	57
58	5	8	2	1	29
59	3	32	31	30	37
59	4	32	31	30	37
60	13	35	31	30	37
61	12	21	22	38	40
62	14	40	41	43	44
63	14	9	11	27	26
64	5	7	2	1	29
65	14	16	17	19	21
66	14	56	55	57	58
67	11	3	4	9	11
68	14	9	11	12	13
69	13	5	3	2	7
70	12	4	9	11	27
71	14	38	40	41	43
72	14	43	41	40	58
73	14	12	14	16	26
74	14	17	19	21	22
75	14	12	11	27	28
76	14	44	43	45	57
77	14	48	50	55	57
78	14	25	24	26	27
79	12	10	9	11	12
80	14	43	45	46	48
81	12	4	9	11	12
82	17	33	32	31	35
83	12	23	22	38	39
84	14	47	46	45	57
85	14	45	46	48	50
86	14	16	26	24	21
87	14	41	40	58	59
88	14	38	40	41	42
89	12	21	22	38	39
90	13	34	31	30	36
91	14	18	17	16	26
92	12	39	38	40	41
93	12	48	50	51	52
94	14	38	40	58	59
95	14	18	17	19	20
96	14	22	21	24	25
97	14	42	41	43	45
98	13	6	3	2	7
99	14	17	16	26	24
100	14	43	45	57	55
101	14	14	12	11	27
102	13	34	31	30	37
103	14	42	41	40	58
104	12	19	21	22	38
105	3	29	30	31	35
105	4	29	30	31	35
106	14	51	50	55	56
107	14	21	24	26	27
108	14	47	46	48	50
109	14	44	43	45	46
110	14	16	17	19	20
111	14	14	16	26	24
112	14	46	48	50	55
113	14	9	11	12	14
114	13	5	3	2	8
115	14	17	19	21	24
116	12	19	21	22	23
117	12	53	51	50	55
118	3	4	3	2	7
118	4	4	3	2	7
119	5	1	29	30	31
120	14	50	55	57	58
121	7	2	3	4	9
121	8	2	3	4	9
122	14	14	16	17	19
123	14	17	16	26	27
124	15	30	31	32	33
124	16	30	31	32	33
125	12	52	51	50	55
126	14	48	50	55	56
127	14	41	43	45	46
128	14	46	45	57	55
129	14	43	45	46	47
130	14	16	26	24	25
131	3	1	2	3	6
131	4	1	2	3	6
132	12	22	38	40	58
133	1	29	30	31	32
133	2	29	30	31	32
134	3	4	3	2	8
134	4	4	3	2	8
135	14	20	19	21	22
136	14	14	16	26	27
137	14	43	45	57	58
138	14	11	12	14	15
139	14	11	27	26	24
140	5	6	3	4	9
141	14	19	21	24	26
142	12	48	50	51	53
143	14	20	19	21	24

Impropers

1	1	51	52	53	50
19	2	43	45	41	44
21	2	38	22	39	40
27	2	21	19	22	24
28	2	45	46	57	43
31	2	17	19	16	18
32	2	24	25	26	21
34	1	9	10	11	4
35	2	41	40	42	43
37	2	27	28	11	26
39	2	40	58	38	41
40	2	57	58	45	55
42	1	51	53	50	52
44	2	26	27	16	24
48	2	46	48	45	47
49	2	45	43	46	57
51	2	48	46	49	50
52	2	40	38	41	58
54	2	48	49	50	46
55	2	58	57	59	40
58	1	9	11	4	10
64	2	24	21	25	26
73	2	46	45	47	48
75	2	26	24	27	16
77	1	9	4	10	11
79	2	55	56	57	50
86	2	12	13	14	11
89	2	12	11	13	14
90	2	55	50	56	57
91	2	58	59	40	57
96	2	19	17	20	21
100	2	50	55	48	51
108	2	48	50	46	49
109	2	57	45	55	58
112	2	45	57	43	46
115	2	14	12	15	16
116	2	12	14	11	13
122	2	22	38	21	23
126	2	58	40	57	59
130	2	11	12	27	9
136	2	43	41	44	45
137	2	43	44	45	41
140	2	22	21	23	38
151	2	14	16	12	15
155	2	16	14	17	26
158	2	40	41	58	38
159	1	51	50	52	53
161	2	17	18	19	16
164	2	46	47	48	45
165	2	22	23	38	21
168	2	26	16	24	27
171	2	16	17	26	14
178	2	50	51	55	48
181	2	14	15	16	12
186	2	17	16	18	19
187	2	19	21	17	20
197	2	21	22	24	19
198	2	27	11	26	28
201	2	41	43	40	42
206	2	16	26	14	17
208	2	21	24	19	22
209	2	27	26	28	11
212	2	57	55	58	45
214	2	38	40	22	39
218	2	24	26	21	25
219	2	19	20	21	17
226	2	55	57	50	56
227	2	41	42	43	40
228	2	11	27	9	12
232	2	38	39	40	22
236	2	11	9	12	27
240	2	50	48	51	55
