Title

14375 atoms
14250 bonds
27125 angles
49000 dihedrals
1875 impropers

9 atom types
12 bond types
9 angle types
39 dihedral types
3 improper types
-15.47220971 149.9683643 xlo xhi
-14.90411296 154.6803789 ylo yhi
-15.96830321 153.9872967 zlo zhi
0.0 0.0 0.0 xy xz yz

Masses

1	14.00672
2	12.01078
3	1.007947
4	1.007947
5	1.007947
6	12.01078
7	15.99943
8	15.99943
9	1.007947


Pair Coeffs

1	0.16769152	3.206876
2	0.10884061	3.3795318
3	0.014090815	1.1034277
4	0.016409246	2.5832257
5	0.015779483	2.6445434
6	0.086879315	3.4806469
7	0.2102061	3.0398122
8	0.20947353	2.99716
9	1.2326e-05	0.53453923

Bond Coeffs

1 harmonic	366.34047229585	1.464762957261
2 harmonic	505.144496193	1.019481865027
3 harmonic	422.7150220147	1.421786517481
4 harmonic	264.62148576755	1.52190126495
5 harmonic	370.04670688625	1.093899492634
6 harmonic	352.0565580496	1.450098586273
7 harmonic	492.76746816345	1.381897776683
8 harmonic	582.698766451	1.225198386222
9 harmonic	329.44145381095	1.523435958334
10 harmonic	279.1350963404	1.454628925034
11 harmonic	385.7604595587	1.369745182308
12 harmonic	543.5267831885	0.9716763312559


Angle Coeffs

1 harmonic	53.20531626545	116.5475862634
2 harmonic	49.015990027215	114.8414599994
3 harmonic	94.53012429075	110.92021963
4 harmonic	63.44422595415	115.5071327674
5 harmonic	55.42182150775	117.3465570514
6 harmonic	57.8982893754	126.8062420451
7 harmonic	48.776492647595	115.6030999533
8 harmonic	65.09061609600001	110.3538806181
9 harmonic	201.41175231035	127.4691416191


Dihedral Coeffs

1 fourier 1	0.1155372516788	3	0
2 fourier 1	0.2036670163956	3	0
3 fourier 1	0.6761465733405	3	0
4 fourier 1	1.653011589151	2	0
5 fourier 1	1.713184811193	1	0
6 fourier 1	0.774151252041	3	0
7 fourier 1	1.087509576657	2	0
8 fourier 1	1.518874939494	1	0
9 fourier 1	0.09223874044423	3	0
10 fourier 1	0.3159935921949	2	180
11 fourier 1	0.3247796806857	1	180
12 fourier 1	0.1040663847541	3	0
13 fourier 1	0.182238503271	2	0
14 fourier 1	0.02972342374561	3	0
15 fourier 1	-0.1488678166443	4	180
16 fourier 1	-0.1230328948768	3	180
17 fourier 1	0.2939295466901	2	0
18 fourier 1	-0.3024127022865	1	0
19 fourier 1	3.101948770557	2	180
20 fourier 1	-0.4252153282372	1	0
21 fourier 1	1.809047390003	2	180
22 fourier 1	-0.04816277792592	1	0
23 fourier 1	-0.04561822763521	4	0
24 fourier 1	0.1536091026885	2	0
25 fourier 1	0.02664938770063	3	0
26 fourier 1	2.348375642009	2	180
27 fourier 1	1.256156174911	1	0
28 fourier 1	0.1911926717192	3	0
29 fourier 1	0.3917343745784	3	0
30 fourier 1	0.9467782973395	2	0
31 fourier 1	0.2726597146827	1	0
32 fourier 1	-0.3703352413219	2	0
33 fourier 1	0.4541676554336	1	0
34 fourier 1	0.1489710476446	2	0
35 fourier 1	0.02960027280666	3	180
36 fourier 1	0.9974165607242	2	180
37 fourier 1	2.687457892086	2	180
38 fourier 1	2.772607909663	2	180
39 fourier 1	0.09692684957115	1	0


Improper Coeffs

1 0.3333333333333333	-1	2
2 0.3666666666666667	-1	2
3 3.5	-1	2


Atoms

1	5	1	-0.63877021	-4.2059008	4.1280899	-9.002084
2	5	2	0.030636628	-3.8292427	5.408374	-8.4033017
3	5	2	-0.15607697	-2.304412	5.5995701	-8.3312157
4	5	2	-0.14465839	-1.6360946	4.6460831	-7.32984
5	5	2	-0.14468	-0.14282242	4.9627557	-7.1818612
6	5	2	-0.14607773	0.52802242	4.0035564	-6.192232
7	5	2	0.015006414	2.0184748	4.3197461	-6.0409645
8	5	1	-0.49108159	2.6406326	3.3816086	-5.1124906
9	5	3	0.31691343	2.2848621	3.5892444	-4.1507002
10	5	4	0.047360689	2.5152541	4.233586	-7.0321687
11	5	4	0.047360689	2.1512506	5.361263	-5.6690138
12	5	5	0.082170852	0.032840322	4.091381	-5.1991099
13	5	5	0.082170852	0.41311786	2.957491	-6.5516555
14	5	5	0.081137308	0.35161972	4.8733379	-8.1740272
15	5	5	0.081137308	-0.022591691	6.007913	-6.8198286
16	5	5	0.082622961	-1.7470874	3.5975278	-7.6820179
17	5	5	0.082622961	-2.1320762	4.7430756	-6.3387942
18	5	5	0.08768791	-2.1056013	6.6479187	-8.0181014
19	5	5	0.08768791	-1.8586916	5.4598567	-9.3403091
20	5	4	0.088147142	-4.2741216	5.4910621	-7.3881749
21	5	4	0.088147142	-4.2591326	6.225004	-9.0214693
22	5	3	0.35957835	-3.952312	3.3537804	-8.3473387
23	6	6	0.72516734	3.6857779	3.5848424	-5.0987317
24	6	7	-0.74527656	4.3979099	3.1432292	-5.9863531
25	6	2	-0.18189158	4.2698651	4.4231108	-3.9986807
26	6	2	-0.12135085	5.2601583	3.6310418	-3.1338801
27	6	2	-0.13704378	4.5654223	2.5306495	-2.3193573
28	6	2	-0.14160002	5.5699729	1.7868163	-1.4300816
29	6	2	-0.14169898	4.8778649	0.68414305	-0.61941764
30	6	2	-0.14169898	5.8841574	-0.050085998	0.27884291
31	6	2	-0.14160002	5.2570532	-1.2474996	1.0112267
32	6	2	-0.13891812	4.2506663	-0.81756567	2.0930327
33	6	2	-0.097260489	3.8259828	-1.9840328	3.0001768
34	6	2	-0.25772377	2.9599642	-3.0170199	2.2653152
35	6	6	0.51694555	2.4452988	-4.0547211	3.2169853
36	6	7	-0.68782537	3.2168032	-4.8173121	3.7774958
37	6	5	0.11354036	3.5490666	-3.5239752	1.472726
38	6	5	0.11354036	2.0932391	-2.5078841	1.7902887
39	6	5	0.076818832	3.2412389	-1.5640159	3.8478998
40	6	5	0.076818832	4.7281093	-2.4772218	3.4245828
41	6	5	0.078518302	4.7173562	-0.038484063	2.7337474
42	6	5	0.078518302	3.3479765	-0.37282215	1.6230228
43	6	5	0.080392078	6.0792321	-1.8230036	1.4897033
44	6	5	0.080392078	4.7637019	-1.9130739	0.27126843
45	6	5	0.080392078	6.3194993	0.65723434	1.0183687
46	6	5	0.080392078	6.7157131	-0.43293963	-0.35149602
47	6	5	0.080392078	4.084151	1.1448337	0.0067512354
48	6	5	0.080392078	4.4040839	-0.041516269	-1.3167519
49	6	5	0.080392078	6.0492887	2.5093781	-0.73362555
50	6	5	0.080392078	6.3599758	1.3340607	-2.06891
51	6	5	0.078518302	3.7775129	2.9870255	-1.681243
52	6	5	0.078518302	4.0835822	1.8041159	-3.0097427
53	6	5	0.084590592	5.7550857	4.3403989	-2.4347947
54	6	5	0.084590592	6.0499402	3.186061	-3.7787503
55	6	5	0.11650053	3.450513	4.8213048	-3.3626196
56	6	5	0.11650053	4.7960659	5.2902551	-4.4537439
57	2	1	-0.63877027	-3.6749591	3.9898359	-9.8925848
58	2	2	0.030636624	-3.1598003	2.622685	-9.9459117
59	2	2	-0.15607696	-2.441636	2.2117595	-8.6482179
60	2	2	-0.14473533	-1.1245626	2.9705824	-8.4374141
61	2	2	-0.14337289	-0.37156309	2.4341604	-7.2131106
62	2	2	-0.15755918	0.93881849	3.198867	-6.9934976
63	2	2	0.027682387	1.6928624	2.6632304	-5.7733525
64	2	1	-0.97581928	2.9231617	3.4202102	-5.5700223
65	2	3	0.3793656	3.3657623	3.0769692	-4.6865862
66	2	3	0.3793656	3.5854906	3.1823949	-6.344847
67	2	4	0.076180287	1.0512698	2.7638449	-4.8701379
68	2	4	0.076180287	1.9334187	1.5849978	-5.9175508
69	2	5	0.088554502	1.5827043	3.0970019	-7.8949296
70	2	5	0.088554502	0.71780521	4.2785013	-6.8381142
71	2	5	0.082622961	-1.014983	2.538204	-6.3118715
72	2	5	0.082622961	-0.14604584	1.3553739	-7.3635955
73	2	5	0.082622961	-1.3364462	4.0510221	-8.2819903
74	2	5	0.082622961	-0.48404166	2.8597209	-9.3397071
75	2	5	0.08768791	-2.2249879	1.1222064	-8.7084564
76	2	5	0.08768791	-3.1149874	2.373583	-7.7784524
77	2	4	0.088147149	-2.4724736	2.5158996	-10.813555
78	2	4	0.088147149	-4.0137665	1.9312111	-10.112808
79	2	3	0.35957832	-2.8749859	4.6615535	-9.9028986
80	3	6	0.51694561	1.3789296	-4.1414448	3.399779
81	3	7	-0.68782537	0.68709233	-3.1354714	3.4006313
82	3	2	-0.2577238	0.76463065	-5.4949917	3.60786
83	3	2	-0.097260489	0.38906773	-5.7464481	5.0757933
84	3	2	-0.13891812	-0.85836716	-4.9628758	5.510234
85	3	2	-0.14160002	-1.2674995	-5.3311132	6.9416665
86	3	2	-0.14169898	-2.5065616	-4.5433754	7.3811613
87	3	2	-0.14169898	-2.9154199	-4.912198	8.8118306
88	3	2	-0.14160002	-4.1553696	-4.124309	9.2508905
89	3	2	-0.13626041	-4.5637102	-4.4940795	10.682473
90	3	2	-0.1130527	-5.803564	-3.7048086	11.121818
91	3	2	-0.21877053	-6.2115042	-4.074005	12.550483
92	3	6	0.82375354	-7.4181528	-3.2950533	12.969045
93	3	7	-0.55682426	-8.5715586	-3.756122	12.757713
94	3	8	-0.66555183	-7.265889	-2.0404152	13.55015
95	3	9	0.39403165	-8.0724836	-1.4930052	13.823456
96	3	5	0.11780242	-5.3767831	-3.851692	13.251096
97	3	5	0.11780242	-6.4349427	-5.1624228	12.611745
98	3	5	0.085608513	-6.6461004	-3.9283586	10.42983
99	3	5	0.085608513	-5.5841983	-2.6154694	11.07149
100	3	5	0.078518302	-4.7839635	-5.5832673	10.732366
101	3	5	0.078518302	-3.7220614	-4.2703782	11.374026
102	3	5	0.080392078	-4.9966484	-4.3472137	8.5588591
103	3	5	0.080392078	-3.9351162	-3.0351211	9.2009974
104	3	5	0.080392078	-3.1360432	-6.0021825	8.8622017
105	3	5	0.080392078	-2.0732534	-4.6894447	9.5042969
106	3	5	0.080392078	-2.2871959	-3.4540363	7.3308333
107	3	5	0.080392078	-3.3487281	-4.7661288	6.688695
108	3	5	0.080392078	-1.4875093	-6.4206637	6.9932356
109	3	5	0.080392078	-0.42496307	-5.1075632	7.6336547
110	3	5	0.078518302	-0.64962775	-3.8725751	5.4658355
111	3	5	0.078518302	-1.6986242	-5.1924072	4.81841
112	3	5	0.076818832	1.2487752	-5.4873667	5.7335957
113	3	5	0.076818832	0.18847094	-6.8335527	5.1966673
114	3	5	0.11354036	1.5104331	-6.2606626	3.3045124
115	3	5	0.11354036	-0.12266123	-5.6151529	2.948928
116	5	1	-0.63877021	4.9425844	-5.3195542	24.214886
117	5	2	0.030636628	5.7250294	-5.9019334	25.304911
118	5	2	-0.15607697	4.888493	-6.8338313	26.198574
119	5	2	-0.14465839	3.8355802	-6.075901	27.020435
120	5	2	-0.14468	3.12182	-7.0156971	27.999909
121	5	2	-0.14607773	2.0617823	-6.2629735	28.811814
122	5	2	0.015006414	1.3498136	-7.1989316	29.792319
123	5	1	-0.49108159	0.33111555	-6.4669585	30.537782
124	5	3	0.31691343	0.81456499	-5.8086727	31.191741
125	5	4	0.047360689	0.86376896	-8.0237396	29.226499
126	5	4	0.047360689	2.087344	-7.6427243	30.499306
127	5	5	0.082170852	2.5482404	-5.4388723	29.380519
128	5	5	0.082170852	1.310489	-5.819286	28.122364
129	5	5	0.081137308	2.6347341	-7.8379045	27.431065
130	5	5	0.081137308	3.8692372	-7.4603404	28.693838
131	5	5	0.082622961	3.0805962	-5.628703	26.337917
132	5	5	0.082622961	4.329271	-5.2577795	27.590105
133	5	5	0.08768791	5.5825097	-7.3541225	26.894447
134	5	5	0.08768791	4.3933117	-7.6099461	25.574958
135	5	4	0.088147142	6.1772118	-5.0903811	25.914952
136	5	4	0.088147142	6.5584081	-6.4891942	24.863973
137	5	3	0.35957835	4.2590602	-4.6342648	24.609509
138	6	6	0.72516734	-0.19132157	-7.1678722	31.14573
139	6	7	-0.74527656	-1.0749467	-7.8518335	30.654376
140	6	2	-0.18189158	0.17306807	-7.3186006	32.594338
141	6	2	-0.12135085	-0.98026072	-6.916599	33.523941
142	6	2	-0.13704378	-1.2794997	-5.4122733	33.457388
143	6	2	-0.14160002	-2.4032008	-5.0311085	34.429617
144	6	2	-0.14169898	-2.7062507	-3.5292858	34.360571
145	6	2	-0.14169898	-3.822931	-3.1491934	35.344006
146	6	2	-0.14160002	-4.2474615	-1.6773217	35.214343
147	6	2	-0.13891812	-3.1625659	-0.70367479	35.707268
148	6	2	-0.097260489	-3.6774332	0.73988129	35.829618
149	6	2	-0.25772377	-3.9696492	1.3790365	34.464641
150	6	6	0.51694555	-4.3245327	2.8273194	34.619284
151	6	7	-0.68782537	-5.3442414	3.1554228	35.205354
152	6	5	0.11354036	-4.8133878	0.85871469	33.965028
153	6	5	0.11354036	-3.0710625	1.2996769	33.814775
154	6	5	0.076818832	-2.8966506	1.3398854	36.346675
155	6	5	0.076818832	-4.5919792	0.7598869	36.462385
156	6	5	0.078518302	-2.812702	-1.0281702	36.711052
157	6	5	0.078518302	-2.2887916	-0.72311183	35.021925
158	6	5	0.080392078	-5.166948	-1.5329776	35.822481
159	6	5	0.080392078	-4.504265	-1.4612049	34.155443
160	6	5	0.080392078	-3.4970601	-3.3562594	36.386913
161	6	5	0.080392078	-4.7138619	-3.7808355	35.137464
162	6	5	0.080392078	-1.7814881	-2.9657472	34.60865
163	6	5	0.080392078	-3.0168425	-3.2648124	33.325723
164	6	5	0.080392078	-2.0986222	-5.2974957	35.465551
165	6	5	0.080392078	-3.3208328	-5.6045872	34.172192
166	6	5	0.078518302	-0.36056219	-4.842462	33.7165
167	6	5	0.078518302	-1.5848347	-5.1385791	32.423698
168	6	5	0.084590592	-0.6955059	-7.1828065	34.565531
169	6	5	0.084590592	-1.8924831	-7.4979625	33.264157
170	6	5	0.11650053	1.0682455	-6.6991736	32.816684
171	6	5	0.11650053	0.44133497	-8.380525	32.784754
172	2	1	-0.63877027	4.4051345	-6.0741784	23.729402
173	2	2	0.030636624	3.0337151	-5.6239847	23.497306
174	2	2	-0.15607696	2.3877774	-5.0250795	24.759331
175	2	2	-0.14473533	2.128319	-6.0778317	25.845299
176	2	2	-0.14337289	1.3577167	-5.4713862	27.02516
177	2	2	-0.15755918	1.1079176	-6.5184145	28.11669
178	2	2	0.027682387	0.33681585	-5.9154884	29.294029
179	2	1	-0.97581928	0.13144911	-6.9223413	30.329436
180	2	3	0.3793656	-0.32622175	-6.4523245	31.14417
181	2	3	0.3793656	-0.55475223	-7.6262019	29.969857
182	2	4	0.076180287	0.91881982	-5.069067	29.721115
183	2	4	0.076180287	-0.64759478	-5.5271814	28.945604
184	2	5	0.088554502	0.52366156	-7.3643669	27.691773
185	2	5	0.088554502	2.0818405	-6.9119492	28.484394
186	2	5	0.082622961	1.9432964	-4.6270482	27.450878
187	2	5	0.082622961	0.3820049	-5.0779692	26.663921
188	2	5	0.082622961	3.096938	-6.476987	26.21793
189	2	5	0.082622961	1.5393646	-6.9172872	25.415023
190	2	5	0.08768791	1.4187039	-4.5666828	24.461909
191	2	5	0.08768791	3.0332337	-4.2152517	25.163863
192	2	4	0.088147149	2.4209711	-6.4716787	23.119701
193	2	4	0.088147149	3.0483164	-4.8463862	22.703344
194	2	3	0.35957832	4.3928917	-6.9156146	24.348356
195	3	6	0.51694561	-3.680726	3.5915247	34.195514
196	3	7	-0.68782537	-2.4727681	3.4151116	34.177125
197	3	2	-0.2577238	-4.2838472	4.8318191	33.603345
198	3	2	-0.097260489	-4.083618	6.0634693	34.498918
199	3	2	-0.13891812	-2.6402133	6.587498	34.470729
200	3	2	-0.14160002	-2.510054	7.8826304	35.281702
201	3	2	-0.14169898	-1.0684247	8.4025553	35.263156
202	3	2	-0.14169898	-0.9389612	9.6974083	36.073468
203	3	2	-0.14160002	0.50331415	10.217493	36.054176
204	3	2	-0.13626041	0.63181766	11.513133	36.865164
205	3	2	-0.1130527	2.0751027	12.03255	36.846603
206	3	2	-0.21877053	2.2034886	13.325897	37.655661
207	3	6	0.82375354	3.6153878	13.819893	37.633985
208	3	7	-0.55682426	3.9935536	14.610581	36.728782
209	3	8	-0.66555183	4.5221114	13.369024	38.58769
210	3	9	0.39403165	5.4854288	13.680233	38.576846
211	3	5	0.11780242	1.9004662	13.143508	38.710153
212	3	5	0.11780242	1.5325965	14.106232	37.232208
213	3	5	0.085608513	2.3831177	12.225227	35.794609
214	3	5	0.085608513	2.7504227	11.260531	37.277002
215	3	5	0.078518302	-0.042856311	12.285312	36.434019
216	3	5	0.078518302	0.32444871	11.320615	37.916412
217	3	5	0.080392078	0.81099704	10.409064	35.002997
218	3	5	0.080392078	1.1779881	9.445314	36.485321
219	3	5	0.080392078	-1.6139491	10.470534	35.642253
220	3	5	0.080392078	-1.2472901	9.505678	37.125393
221	3	5	0.080392078	-0.3931047	7.6305361	35.693555
222	3	5	0.080392078	-0.76009577	8.5942856	34.211231
223	3	5	0.080392078	-3.1849922	8.6558759	34.851895
224	3	5	0.080392078	-2.818069	7.6899532	36.333696
225	3	5	0.078518302	-1.9566887	5.82451	34.900778
226	3	5	0.078518302	-2.3381752	6.7823674	33.418048
227	3	5	0.076818832	-4.379349	5.8205041	35.544114
228	3	5	0.076818832	-4.762362	6.8656413	34.13495
229	3	5	0.11354036	-5.3755705	4.6609256	33.487462
230	3	5	0.11354036	-3.865463	5.01106	32.589074
231	5	1	-0.63877021	-2.7217818	7.2901715	71.740083
232	5	2	0.030636628	-4.0514991	7.1711968	71.142391
233	5	2	-0.15607697	-4.6964055	5.7998076	71.407435
234	5	2	-0.14465839	-3.9836407	4.6587062	70.666899
235	5	2	-0.14468	-4.7379363	3.3347768	70.84094
236	5	2	-0.14607773	-4.0205846	2.1925252	70.11284
237	5	2	0.015006414	-4.773539	0.8702608	70.283082
238	5	1	-0.49108159	-4.0619143	-0.20591314	69.601404
239	5	3	0.31691343	-4.144493	-0.050334506	68.570044
240	5	4	0.047360689	-4.8497509	0.62705706	71.365553
241	5	4	0.047360689	-5.8033687	0.96206032	69.868646
242	5	5	0.082170852	-3.9464294	2.4342728	69.028742
243	5	5	0.082170852	-2.9917583	2.0798191	70.519602
244	5	5	0.081137308	-4.8103416	3.0930138	71.92407
245	5	5	0.081137308	-5.7674964	3.441657	70.432946
246	5	5	0.082622961	-2.953577	4.5398894	71.067734
247	5	5	0.082622961	-3.9179923	4.9043845	69.58389
248	5	5	0.08768791	-5.7532441	5.8468797	71.064685
249	5	5	0.08768791	-4.7062169	5.5924792	72.499852
250	5	4	0.088147142	-3.9875707	7.3595713	70.048926
251	5	4	0.088147142	-4.7034766	7.958443	71.57712
252	5	3	0.35957835	-2.0562856	6.6694243	71.225942
253	6	6	0.72516734	-4.5729791	-1.1160583	69.811809
254	6	7	-0.74527656	-4.3752134	-1.6877356	70.872045
255	6	2	-0.18189158	-5.5408904	-1.6783774	68.811355
256	6	2	-0.12135085	-5.0807483	-3.0366293	68.264222
257	6	2	-0.13704378	-3.8152777	-2.9149984	67.403548
258	6	2	-0.14160002	-3.4052398	-4.2782607	66.832054
259	6	2	-0.14169898	-2.1384233	-4.1587882	65.975911
260	6	2	-0.14169898	-1.7379977	-5.5230352	65.395327
261	6	2	-0.14160002	-0.40125383	-5.4723598	64.637704
262	6	2	-0.13891812	-0.49704732	-4.6793214	63.322456
263	6	2	-0.097260489	0.75001007	-4.849291	62.439354
264	6	2	-0.25772377	1.9918002	-4.1722701	63.036574
265	6	6	0.51694555	3.1438525	-4.2321603	62.079198
266	6	7	-0.68782537	3.6401263	-5.3053903	61.774525
267	6	5	0.11354036	2.2899029	-4.6724785	63.98165
268	6	5	0.11354036	1.766558	-3.1060696	63.256947
269	6	5	0.076818832	0.53381844	-4.3920078	61.448835
270	6	5	0.076818832	0.94892787	-5.9312254	62.274922
271	6	5	0.078518302	-1.3763133	-5.038587	62.745306
272	6	5	0.078518302	-0.64997869	-3.5999547	63.534905
273	6	5	0.080392078	-0.099222764	-6.5176571	64.409113
274	6	5	0.080392078	0.37723779	-5.0310231	65.295804
275	6	5	0.080392078	-2.5386388	-5.898401	64.72094
276	6	5	0.080392078	-1.6305863	-6.2505647	66.228725
277	6	5	0.080392078	-2.3315184	-3.4424278	65.148961
278	6	5	0.080392078	-1.3083185	-3.7635282	66.602027
279	6	5	0.080392078	-4.2340817	-4.6793318	66.208313
280	6	5	0.080392078	-3.2186709	-4.9857827	67.669788
281	6	5	0.078518302	-4.0059371	-2.2081775	66.566695
282	6	5	0.078518302	-2.9818398	-2.5142352	68.021143
283	6	5	0.084590592	-5.9017339	-3.4566436	67.642586
284	6	5	0.084590592	-4.9015641	-3.740198	69.107137
285	6	5	0.11650053	-5.666582	-0.95903036	67.973971
286	6	5	0.11650053	-6.530271	-1.8000446	69.303526
287	2	1	-0.63877027	-2.7579959	6.9755982	72.736947
288	2	2	0.030636624	-1.6124318	6.1117354	73.017585
289	2	2	-0.15607696	-1.4295086	5.0113466	71.957249
290	2	2	-0.14473533	-2.5510386	3.9645688	71.994119
291	2	2	-0.14337289	-2.2596842	2.8130753	71.023114
292	2	2	-0.15755918	-3.384721	1.7720635	71.049427
293	2	2	0.027682387	-3.094463	0.62084703	70.082631
294	2	1	-0.97581928	-4.187928	-0.3444201	70.106957
295	2	3	0.3793656	-3.988839	-1.0693227	69.3796
296	2	3	0.3793656	-4.1683507	-0.83780898	71.029873
297	2	4	0.076180287	-2.9886765	1.0236047	69.051051
298	2	4	0.076180287	-2.1413928	0.11765215	70.364939
299	2	5	0.088554502	-3.4899996	1.3663852	72.079906
300	2	5	0.088554502	-4.3449813	2.254876	70.760648
301	2	5	0.082622961	-2.156624	3.2190081	69.992753
302	2	5	0.082622961	-1.3015636	2.325154	71.308108
303	2	5	0.082622961	-3.5148398	4.4391663	71.707334
304	2	5	0.082622961	-2.6467304	3.5595756	73.025387
305	2	5	0.08768791	-0.45776585	4.5064963	72.153548
306	2	5	0.08768791	-1.3726347	5.4695455	70.945864
307	2	4	0.088147149	-1.7259706	5.6562228	74.025674
308	2	4	0.088147149	-0.6954449	6.7393664	73.039111
309	2	3	0.35957832	-3.641072	6.4352515	72.876482
310	3	6	0.51694561	3.5518264	-3.3161182	61.663864
311	3	7	-0.68782537	2.8036457	-2.3819362	61.422718
312	3	2	-0.2577238	5.0295344	-3.1953572	61.430313
313	3	2	-0.097260489	5.3941032	-3.2792247	59.940628
314	3	2	-0.13891812	5.0298304	-2.0020755	59.169257
315	3	2	-0.14160002	5.5155844	-2.0802303	57.7167
316	3	2	-0.14169898	5.1448367	-0.81083296	56.942015
317	3	2	-0.14169898	5.6310594	-0.88922678	55.490308
318	3	2	-0.14160002	5.260434	0.38114155	54.715828
319	3	2	-0.13626041	5.7474092	0.30176904	53.263432
320	3	2	-0.1130527	5.3754403	1.5723841	52.488586
321	3	2	-0.21877053	5.8617253	1.4935199	51.039065
322	3	6	0.82375354	5.4893444	2.7354712	50.29284
323	3	7	-0.55682426	6.2774737	3.7182843	50.270021
324	3	8	-0.66555183	4.2521066	2.8207613	49.662799
325	3	9	0.39403165	3.9776878	3.6603594	49.168109
326	3	5	0.11780242	5.401517	0.61627265	50.53341
327	3	5	0.11780242	6.9670002	1.3663187	51.016297
328	3	5	0.085608513	5.8392657	2.454395	52.984179
329	3	5	0.085608513	4.2706062	1.7009585	52.499738
330	3	5	0.078518302	6.8523656	0.17416566	53.252485
331	3	5	0.078518302	5.2837061	-0.57927082	52.768044
332	3	5	0.080392078	5.7232622	1.2621891	55.211701
333	3	5	0.080392078	4.1554776	0.50874493	54.726775
334	3	5	0.080392078	6.7368906	-1.0168379	55.478877
335	3	5	0.080392078	5.1681089	-1.7712453	54.994231
336	3	5	0.080392078	4.0400026	-0.6822586	56.953167
337	3	5	0.080392078	5.6077872	0.071185593	57.438092
338	3	5	0.080392078	6.6208247	-2.2085733	57.704213
339	3	5	0.080392078	5.051759	-2.9622412	57.221107
340	3	5	0.078518302	3.9273529	-1.8648383	59.172139
341	3	5	0.078518302	5.4986629	-1.1239646	59.665699
342	3	5	0.076818832	4.8909562	-4.1583779	59.479264
343	3	5	0.076818832	6.4916297	-3.441676	59.865188
344	3	5	0.11354036	5.5301373	-4.035376	61.957815
345	3	5	0.11354036	5.4087051	-2.249725	61.875203
346	5	1	-0.63877021	0.80266492	-6.433246	87.877208
347	5	2	0.030636628	1.780722	-7.1456299	88.699067
348	5	2	-0.15607697	1.1348492	-7.8558369	89.90128
349	5	2	-0.14465839	0.59426934	-6.8712249	90.948587
350	5	2	-0.14468	0.089042276	-7.6136045	92.191832
351	5	2	-0.14607773	-0.46249895	-6.632768	93.232613
352	5	2	0.015006414	-0.96498049	-7.3717621	94.475877
353	5	1	-0.49108159	-1.5051999	-6.4215522	95.442578
354	5	3	0.31691343	-0.70946008	-5.8680642	95.8365
355	5	4	0.047360689	-1.7654455	-8.0853145	94.181262
356	5	4	0.047360689	-0.13190527	-7.9477387	94.939526
357	5	5	0.082170852	0.33919307	-5.91993	93.52987
358	5	5	0.082170852	-1.3022708	-6.0535454	92.789978
359	5	5	0.081137308	-0.71290626	-8.3244616	91.894473
360	5	5	0.081137308	0.92659096	-8.1928275	92.64004
361	5	5	0.082622961	-0.24584954	-6.2876268	90.513351
362	5	5	0.082622961	1.4017787	-6.1657579	91.244935
363	5	5	0.08768791	1.9092308	-8.4974056	90.375963
364	5	5	0.08768791	0.31574304	-8.5211739	89.550784
365	5	4	0.088147142	2.5625477	-6.4367571	89.047614
366	5	4	0.088147142	2.2825231	-7.9079255	88.065883
367	5	3	0.35957835	0.4419598	-5.6084663	88.408419
368	6	6	0.72516734	-1.9147044	-6.9800938	96.251379
369	6	7	-0.74527656	-3.0280182	-7.4690426	96.144199
370	6	2	-0.18189158	-1.1148449	-7.1731888	97.507127
371	6	2	-0.12135085	-1.7802805	-6.512122	98.722084
372	6	2	-0.13704378	-1.7854971	-4.9805064	98.616749
373	6	2	-0.14160002	-2.4132004	-4.3451975	99.863982
374	6	2	-0.14169898	-2.4232589	-2.8152627	99.757792
375	6	2	-0.14169898	-3.0408923	-2.1822591	101.01335
376	6	2	-0.14160002	-3.1891761	-0.65682278	100.89293
377	6	2	-0.13891812	-1.8338585	0.071765792	100.90826
378	6	2	-0.097260489	-1.9847818	1.5945934	101.05702
379	6	2	-0.25772377	-2.5947106	2.2509469	99.810319
380	6	6	0.51694555	-2.5865654	3.7447393	99.936406
381	6	7	-0.68782537	-3.2606556	4.2972701	100.79154
382	6	5	0.11354036	-3.6423194	1.9130205	99.666916
383	6	5	0.11354036	-2.0053763	1.965885	98.911705
384	6	5	0.076818832	-0.9736201	2.0242365	101.23003
385	6	5	0.076818832	-2.6061739	1.8247493	101.95038
386	6	5	0.078518302	-1.2328788	-0.29781082	101.76705
387	6	5	0.078518302	-1.2677849	-0.15024991	99.978835
388	6	5	0.080392078	-3.7993198	-0.30475252	101.7531
389	6	5	0.080392078	-3.7444541	-0.41429128	99.961926
390	6	5	0.080392078	-2.4257874	-2.4311496	101.90577
391	6	5	0.080392078	-4.0536074	-2.6121912	101.17132
392	6	5	0.080392078	-1.378513	-2.4581669	99.634125
393	6	5	0.080392078	-3.0103939	-2.5134226	98.862533
394	6	5	0.080392078	-1.8315978	-4.6475901	100.76242
395	6	5	0.080392078	-3.4565099	-4.7137396	99.977455
396	6	5	0.078518302	-0.74112521	-4.615788	98.504776
397	6	5	0.078518302	-2.3656083	-4.6707667	97.719985
398	6	5	0.084590592	-1.2149457	-6.8099537	99.632333
399	6	5	0.084590592	-2.8209535	-6.8895776	98.832301
400	6	5	0.11650053	-0.095210825	-6.7557426	97.363756
401	6	5	0.11650053	-1.0097929	-8.2634258	97.697538
402	2	1	-0.63877027	-0.0040224734	-7.0654326	87.668401
403	2	2	0.030636624	-1.2568651	-6.3364084	87.858777
404	2	2	-0.15607696	-1.3039739	-5.5846708	89.200903
405	2	2	-0.14473533	-1.3770425	-6.5325655	90.405515
406	2	2	-0.14337289	-1.5653593	-5.7485174	91.710689
407	2	2	-0.15755918	-1.6265337	-6.6927744	92.916816
408	2	2	0.027682387	-1.816855	-5.9121117	94.220115
409	2	1	-0.97581928	-1.8484899	-6.8279416	95.355127
410	2	3	0.3793656	-1.9000824	-6.2524906	96.227115
411	2	3	0.3793656	-2.739164	-7.3757916	95.308768
412	2	4	0.076180287	-0.97124836	-5.2011719	94.350786
413	2	4	0.076180287	-2.7654868	-5.3292593	94.17978
414	2	5	0.088554502	-2.4733802	-7.4027239	92.78888
415	2	5	0.088554502	-0.68198919	-7.2780471	92.979206
416	2	5	0.082622961	-0.71733636	-5.0404107	91.839095
417	2	5	0.082622961	-2.5093672	-5.1628309	91.654973
418	2	5	0.082622961	-0.43678904	-7.1220766	90.474805
419	2	5	0.082622961	-2.2287736	-7.2352818	90.273477
420	2	5	0.08768791	-2.2074687	-4.935539	89.196882
421	2	5	0.08768791	-0.41482343	-4.9235971	89.292957
422	2	4	0.088147149	-2.1141143	-7.040881	87.78483
423	2	4	0.088147149	-1.3629321	-5.5980417	87.034876
424	2	3	0.35957832	0.032104583	-7.8705465	88.333047
425	3	6	0.51694561	-1.990309	4.3431173	99.254863
426	3	7	-0.68782537	-0.91996184	3.9109336	98.857124
427	3	2	-0.2577238	-2.5056393	5.67048	98.780213
428	3	2	-0.097260489	-1.776412	6.8500432	99.440489
429	3	2	-0.13891812	-0.35658935	7.0509619	98.89044
430	3	2	-0.14160002	0.29169319	8.3056728	99.488284
431	3	2	-0.14169898	1.7123737	8.5031815	98.948268
432	3	2	-0.14169898	2.3597364	9.7577543	99.545745
433	3	2	-0.14160002	3.7807875	9.9552631	99.004799
434	3	2	-0.13626041	4.4276513	11.210826	99.603154
435	3	2	-0.1130527	5.8497506	11.407483	99.062626
436	3	2	-0.21877053	6.4954016	12.660789	99.65942
437	3	6	0.82375354	7.8826271	12.839298	99.128666
438	3	7	-0.55682426	8.0755326	13.50985	98.079505
439	3	8	-0.66555183	8.9540756	12.225573	99.769231
440	3	9	0.39403165	9.8968772	12.322228	99.413236
441	3	5	0.11780242	6.540874	12.571366	100.76711
442	3	5	0.11780242	5.8857939	13.55738	99.408754
443	3	5	0.085608513	5.811723	11.505933	97.954677
444	3	5	0.085608513	6.4674174	10.518215	99.317585
445	3	5	0.078518302	3.810355	12.100094	99.347266
446	3	5	0.078518302	4.4660493	11.112376	100.71017
447	3	5	0.080392078	3.7425177	10.052723	97.89783
448	3	5	0.080392078	4.3980838	9.065995	99.260687
449	3	5	0.080392078	1.7423118	10.648013	99.289806
450	3	5	0.080392078	2.3976356	9.6602939	100.65364
451	3	5	0.080392078	2.3300406	7.6139134	99.203227
452	3	5	0.080392078	1.6744745	8.6006418	97.84037
453	3	5	0.080392078	-0.32518198	9.1960693	99.233641
454	3	5	0.080392078	0.3297207	8.207222	100.59623
455	3	5	0.078518302	0.27026105	6.1687413	99.141527
456	3	5	0.078518302	-0.39992118	7.1528219	97.783605
457	3	5	0.076818832	-1.73919	6.6997005	100.54273
458	3	5	0.076818832	-2.3687043	7.7709719	99.246257
459	3	5	0.11354036	-3.5824549	5.735584	99.04615
460	3	5	0.11354036	-2.4319098	5.7329422	97.672702
461	5	1	-0.63877021	8.8749906	6.077432	128.35899
462	5	2	0.030636628	8.1200452	6.9407649	129.26687
463	5	2	-0.15607697	7.8961267	6.2945479	130.64496
464	5	2	-0.14465839	6.9410066	5.0933742	130.58609
465	5	2	-0.14468	6.6320281	4.5672659	131.99313
466	5	2	-0.14607773	5.6889027	3.3603743	131.93492
467	5	2	0.015006414	5.3769598	2.8352168	133.33891
468	5	1	-0.49108159	4.4965855	1.6743162	133.25831
469	5	3	0.31691343	3.5536	2.000522	132.94352
470	5	4	0.047360689	6.3245735	2.5387059	133.83972
471	5	4	0.047360689	4.8921209	3.6338038	133.94548
472	5	5	0.082170852	4.7390813	3.6573777	131.43608
473	5	5	0.082170852	6.1602207	2.5479954	131.33948
474	5	5	0.081137308	7.5811266	4.2692645	132.4904
475	5	5	0.081137308	6.1577499	5.3759583	132.59226
476	5	5	0.082622961	7.4050517	4.2765317	129.99174
477	5	5	0.082622961	5.9923923	5.3986574	130.09161
478	5	5	0.08768791	7.4631428	7.0663594	131.31833
479	5	5	0.08768791	8.8713112	5.9802931	131.07707
480	5	4	0.088147142	7.1445343	7.2059714	128.80505
481	5	4	0.088147142	8.6882733	7.8848246	129.40719
482	5	3	0.35957835	8.2816695	5.2609641	128.08714
483	6	6	0.72516734	4.3711914	1.2940145	134.24495
484	6	7	-0.74527656	5.2330186	0.57818061	134.72958
485	6	2	-0.18189158	3.1456992	1.6531416	135.03436
486	6	2	-0.12135085	2.2815867	0.42415526	135.34874
487	6	2	-0.13704378	1.6455429	-0.17418392	134.08604
488	6	2	-0.14160002	0.75108296	-1.3707539	134.43444
489	6	2	-0.14169898	0.11886303	-1.9722641	133.17327
490	6	2	-0.14169898	-0.78561853	-3.1619622	133.52699
491	6	2	-0.14160002	-1.3364223	-3.8750868	132.2814
492	6	2	-0.13891812	-2.3638141	-3.0213502	131.51748
493	6	2	-0.097260489	-3.1086223	-3.8220406	130.43671
494	6	2	-0.25772377	-2.2008728	-4.2117507	129.26147
495	6	6	0.51694555	-2.9948773	-4.8574437	128.16602
496	6	7	-0.68782537	-3.5412461	-5.9338706	128.34965
497	6	5	0.11354036	-1.4159168	-4.92175	129.59612
498	6	5	0.11354036	-1.7054512	-3.3033534	128.85471
499	6	5	0.076818832	-3.9398714	-3.1902505	130.05351
500	6	5	0.076818832	-3.5585696	-4.7336223	130.8881
501	6	5	0.078518302	-3.1178543	-2.6323273	132.23537
502	6	5	0.078518302	-1.8637545	-2.1487655	131.04622
503	6	5	0.080392078	-1.8247048	-4.8163773	132.61557
504	6	5	0.080392078	-0.49309076	-4.1498477	131.61265
505	6	5	0.080392078	-1.6276437	-2.8211318	134.16852
506	6	5	0.080392078	-0.19512237	-3.9011735	134.11032
507	6	5	0.080392078	-0.47862443	-1.1868622	132.66292
508	6	5	0.080392078	0.92427362	-2.3100024	132.48438
509	6	5	0.080392078	-0.053629837	-1.0385322	135.12651
510	6	5	0.080392078	1.3606448	-2.1469671	134.9474
511	6	5	0.078518302	1.0361424	0.60402207	133.57683
512	6	5	0.078518302	2.4448587	-0.5086797	133.38901
513	6	5	0.084590592	1.4742295	0.73682649	136.04679
514	6	5	0.084590592	2.8963751	-0.34510921	135.86632
515	6	5	0.11650053	2.5469247	2.3986917	134.46859
516	6	5	0.11650053	3.4636376	2.1285389	135.98768
517	2	1	-0.63877027	9.7250431	5.714727	128.84875
518	2	2	0.030636624	9.8701655	4.2851193	128.5795
519	2	2	-0.15607696	8.5625215	3.5061274	128.80724
520	2	2	-0.14473533	8.1622745	3.4456419	130.28747
521	2	2	-0.14337289	6.9369259	2.5446948	130.48869
522	2	2	-0.15755918	6.5279422	2.4923882	131.96521
523	2	2	0.027682387	5.3065448	1.5917191	132.16825
524	2	1	-0.97581928	4.9214741	1.5758058	133.57519
525	2	3	0.3793656	4.0416879	1.0160993	133.6581
526	2	3	0.3793656	5.6553952	1.0546954	134.10941
527	2	4	0.076180287	4.4573427	1.9804549	131.56385
528	2	4	0.076180287	5.5367159	0.55580324	131.82892
529	2	5	0.088554502	7.3753026	2.1013102	132.57067
530	2	5	0.088554502	6.2848366	3.5187284	132.32035
531	2	5	0.082622961	6.0894972	2.937382	129.88478
532	2	5	0.082622961	7.1746977	1.5165015	130.13717
533	2	5	0.082622961	7.9182502	4.4678407	130.65074
534	2	5	0.082622961	9.0116859	3.048745	130.88552