Title

116 atoms
121 bonds
240 angles
578 dihedrals
18 impropers

11 atom types
14 bond types
9 angle types
35 dihedral types
3 improper types
-12.50599957 87.49400043 xlo xhi
-3.063999891 96.93600011 ylo yhi
-17.43799973 82.56200027 zlo zhi
0.0 0.0 0.0 xy xz yz

Masses

1	12.01078
2	15.99943
3	14.00672
4	12.01078
5	1.007947
6	1.007947
7	1.007947
8	15.99943
9	12.01078
10	15.99943
11	1.007947


Pair Coeffs

1	0.086879315	3.4806469
2	0.2102061	3.0398122
3	0.16769152	3.206876
4	0.10884061	3.3795318
5	0.014090815	1.1034277
6	0.016409246	2.5832257
7	0.015779483	2.6445434
8	0.16846514	3.0251065
9	0.21	3.3996695
10	0.20947353	2.99716
11	1.2326e-05	0.53453923

Bond Coeffs

1 harmonic	582.698766451	1.225198386222
2 harmonic	492.76746816345	1.381897776683
3 harmonic	279.1350963404	1.454628925034
4 harmonic	352.0565580496	1.450098586273
5 harmonic	505.144496193	1.019481865027
6 harmonic	264.62148576755	1.52190126495
7 harmonic	370.04670688625	1.093899492634
8 harmonic	301.15400723785	1.345741232799
9 harmonic	366.7408841747	1.425895053732
10 harmonic	300.03137914615	1.451203938761
11 harmonic	366.34047229585	1.464762957261
12 harmonic	602.81384337	1.196112346392
13 harmonic	329.96998057905	1.427343958716
14 harmonic	543.5267831885	0.9716763312559


Angle Coeffs

1 harmonic	55.42182150775	117.3465570514
2 harmonic	63.44422595415	115.5071327674
3 harmonic	57.8982893754	126.8062420451
4 harmonic	53.20531626545	116.5475862634
5 harmonic	65.09061609600001	110.3538806181
6 harmonic	201.41175231035	127.4691416191
7 harmonic	48.776492647595	115.6030999533
8 harmonic	55.07882548015	112.8714009681
9 harmonic	33.56981613361	180


Dihedral Coeffs

1 fourier 1	-0.1488678166443	4	180
2 fourier 1	-0.1230328948768	3	180
3 fourier 1	0.2939295466901	2	0
4 fourier 1	-0.3024127022865	1	0
5 fourier 1	0.182238503271	2	0
6 fourier 1	0.02972342374561	3	0
7 fourier 1	1.809047390003	2	180
8 fourier 1	-0.04816277792592	1	0
9 fourier 1	3.101948770557	2	180
10 fourier 1	-0.4252153282372	1	0
11 fourier 1	2.348375642009	2	180
12 fourier 1	1.256156174911	1	0
13 fourier 1	0.9974165607242	2	180
14 fourier 1	0.1155372516788	3	0
15 fourier 1	0.09223874044423	3	0
16 fourier 1	0.3159935921949	2	180
17 fourier 1	0.3247796806857	1	180
18 fourier 1	0.1040663847541	3	0
19 fourier 1	2.779853741805	2	180
20 fourier 1	0.1918272375143	3	0
21 fourier 1	0.9202179876409	1	180
22 fourier 1	0.0473758381877	3	0
23 fourier 1	0.4860993122944	2	180
24 fourier 1	0.8916986138746	1	0
25 fourier 1	1.163809172478	2	180
26 fourier 1	0.1679186987369	1	180
27 fourier 1	0.1911926717192	3	0
28 fourier 1	0.1115525666802	3	0
29 fourier 1	0.3432490222662	1	0
30 fourier 1	0.457973137376	1	0
31 fourier 1	-1.382973039546	1	0
32 fourier 1	0	1	0
33 fourier 1	0.3445382149273	3	0
34 fourier 1	0.1364556373303	1	0
35 fourier 1	0.3026390167484	3	0


Improper Coeffs

1 0.3333333333333333	-1	2
2 0.3666666666666667	-1	2
3 3.5	-1	2


Atoms

1	1	1	0.537552	-4.6939998	1.331	-0.38600001
2	1	2	-0.72152197	-5.1230001	1.428	0.79500002
3	1	3	-0.52891803	-3.4430001	0.69599998	-0.66100001
4	1	4	0.027101001	-2.6159999	0.13600001	0.40700001
5	1	4	-0.14893299	-1.3329999	-0.479	-0.161
6	1	4	-0.14543501	-0.45199999	-1.053	0.95899999
7	1	4	-0.14543501	0.75700003	-1.8430001	0.42699999
8	1	4	-0.147663	1.749	-1.023	-0.41800001
9	1	4	0.021149	2.3959999	0.12800001	0.36399999
10	1	3	-0.471962	3.4519999	0.76200002	-0.42399999
11	1	1	0.77648002	4.2150002	1.858	0.088
12	1	2	-0.63168198	3.9979999	2.3099999	1.244
13	1	5	0.31848499	3.668	0.42500001	-1.39
14	1	6	0.045621	1.6289999	0.89200002	0.61000001
15	1	6	0.045621	2.832	-0.264	1.309
16	1	7	0.079962	1.249	-0.62900001	-1.3279999
17	1	7	0.079962	2.55	-1.7130001	-0.75999999
18	1	7	0.078992002	1.301	-2.2809999	1.293
19	1	7	0.078992002	0.38800001	-2.6930001	-0.186
20	1	7	0.078992002	-0.114	-0.237	1.633
21	1	7	0.078992002	-1.063	-1.749	1.574
22	1	7	0.079962	-0.77499998	0.31	-0.708
23	1	7	0.079962	-1.602	-1.289	-0.875
24	1	6	0.042169999	-3.1960001	-0.64499998	0.94499999
25	1	6	0.042169999	-2.352	0.94400001	1.125
26	1	5	0.31189701	-3.1300001	0.63999999	-1.6569999
27	1	8	-0.49872699	4.9559999	2.2869999	-0.49700001
28	1	4	0.139607	5.6209998	1.233	-1.1390001
29	1	4	-0.098838001	4.7610002	0.66500002	-2.28
30	1	7	0.103529	3.7950001	0.303	-1.8609999
31	1	4	-0.16008499	5.441	-0.50199997	-2.994
32	1	7	0.108403	6.546	-0.368	-3.003
33	1	7	0.108403	5.2140002	-1.461	-2.48
34	1	4	-0.078298002	4.8730001	-0.5	-4.4190001
35	1	7	0.120033	4.1100001	-1.3049999	-4.52
36	1	4	-0.108187	5.9499998	-0.58499998	-5.5300002
37	1	7	0.11443	6.7550001	-1.326	-5.3390002
38	1	4	-0.161606	5.2389998	-0.77399999	-6.8850002
39	1	7	0.108351	4.494	-1.599	-6.849
40	1	7	0.108351	5.9889998	-1.007	-7.6729999
41	1	4	-0.063817002	4.5599999	0.59799999	-7.1149998
42	1	4	0.060557999	4.9650002	1.243	-8.4510002
43	1	8	-0.147789	4.2950001	2.4630001	-8.6099997
44	1	6	0.089397997	6.0630002	1.41	-8.4960003
45	1	6	0.089397997	4.6810002	0.55800003	-9.2810001
46	1	7	0.113982	3.4519999	0.479	-7.1170001
47	1	4	-0.095187001	5.0310001	1.4119999	-5.881
48	1	7	0.124521	4.9899998	2.5150001	-6.006
49	1	4	-0.140761	6.4200001	0.84799999	-5.6440001
50	1	7	0.102783	7.1199999	1.0089999	-6.493
51	1	7	0.102783	6.9029999	1.229	-4.717
52	1	4	-0.074239001	4.2480001	0.88499999	-4.651
53	1	7	0.119187	3.1570001	0.801	-4.855
54	1	4	-0.16121501	4.4640002	1.697	-3.368
55	1	7	0.108403	3.5539999	2.2820001	-3.115
56	1	7	0.108403	5.3119998	2.4089999	-3.4790001
57	1	6	0.081289999	6.585	1.614	-1.54
58	1	6	0.081289999	5.8569999	0.42699999	-0.40599999
59	1	1	0.537552	-5.2810001	1.734	-1.2
60	1	2	-0.72152197	-5.3039999	1.13	-2.3050001
61	1	3	-0.52891803	-6.013	2.95	-1.011
62	1	4	0.027101001	-6.8260002	3.556	-2.0639999
63	1	4	-0.14893299	-8.1389999	2.786	-2.2379999
64	1	4	-0.145247	-9.0120001	3.427	-3.3280001
65	1	4	-0.141027	-10.394	2.7650001	-3.4449999
66	1	4	-0.12523399	-10.327	1.36	-4.0650001
67	1	4	0.18061601	-11.726	0.75800002	-4.27
68	1	3	-0.687383	-12.506	1.5190001	-5.2420001
69	1	9	0.59068	-12.193	1.558	-6.4749999
70	1	2	-0.52110898	-11.887	1.597	-7.6739998
71	1	6	0.022617999	-11.632	-0.29699999	-4.6100001
72	1	6	0.022617999	-12.269	0.75099999	-3.3010001
73	1	7	0.073651001	-9.7629995	0.68199998	-3.3900001
74	1	7	0.073651001	-9.7910004	1.397	-5.0380001
75	1	7	0.077726997	-10.874	2.7149999	-2.4430001
76	1	7	0.077726997	-11.027	3.415	-4.0879998
77	1	7	0.078992002	-9.1660004	4.4990001	-3.079
78	1	7	0.078992002	-8.4879999	3.381	-4.3080001
79	1	7	0.079962	-7.9089999	1.7359999	-2.513
80	1	7	0.079962	-8.6890001	2.7869999	-1.271
81	1	6	0.042169999	-6.2540002	3.572	-3.0179999
82	1	6	0.042169999	-7.053	4.6069999	-1.783
83	1	5	0.31189701	-5.9109998	3.4530001	-0.101
84	1	8	-0.146129	4.5890002	2.8269999	-9.4860001
85	1	4	0.060706001	5.4089999	1.851	-10.071
86	1	4	-0.090910003	4.5619998	0.685	-10.607
87	1	7	0.106336	3.9849999	0.23800001	-9.7659998
88	1	4	-0.160997	5.4190001	-0.41299999	-11.236
89	1	7	0.108295	6.3249998	0.02	-11.715
90	1	7	0.108295	5.7519999	-1.141	-10.464
91	1	4	-0.077630997	4.5190001	-1.095	-12.273
92	1	7	0.120033	4.1479998	-2.0639999	-11.87
93	1	4	-0.108187	5.1750002	-1.265	-13.667
94	1	7	0.11443	6.2280002	-1.619	-13.643
95	1	4	-0.156085	4.2470002	-2.131	-14.541
96	1	7	0.108351	3.9389999	-3.0639999	-14.019
97	1	7	0.108351	4.7690001	-2.4089999	-15.484
98	1	4	-0.106388	3.04	-1.196	-14.798
99	1	4	0.138313	2.7550001	-0.99599999	-16.296
100	1	10	-0.68321699	1.637	-0.167	-16.459
101	1	11	0.37162101	1.499	-0.079000004	-17.438
102	1	6	0.072778001	3.632	-0.54799998	-16.813
103	1	6	0.072778001	2.546	-1.987	-16.757999
104	1	7	0.114036	2.1229999	-1.622	-14.331
105	1	4	-0.088790998	3.4749999	0.11	-14.084
106	1	7	0.124521	2.9619999	1.03	-14.439
107	1	4	-0.140761	4.9780002	0.097999997	-14.292
108	1	7	0.102783	5.2820001	0.132	-15.362
109	1	7	0.102783	5.5089998	0.912	-13.753
110	1	4	-0.073577002	3.3540001	-0.133	-12.557
111	1	7	0.119187	2.3789999	-0.59600002	-12.284
112	1	4	-0.16213299	3.5810001	1.115	-11.697
113	1	7	0.108295	2.6259999	1.464	-11.248
114	1	7	0.108295	4.0029998	1.949	-12.301
115	1	6	0.089521997	5.9819999	2.3199999	-10.9
116	1	6	0.089521997	6.1440001	1.473	-9.3249998

Bonds

1	1	1	2
2	2	1	3
3	3	1	59
4	4	3	4
5	5	3	26
6	6	4	5
7	7	4	24
8	7	4	25
9	6	5	6
10	7	5	22
11	7	5	23
12	6	6	7
13	7	6	20
14	7	6	21
15	6	7	8
16	7	7	18
17	7	7	19
18	6	8	9
19	7	8	16
20	7	8	17
21	4	9	10
22	7	9	14
23	7	9	15
24	2	10	11
25	5	10	13
26	1	11	12
27	8	11	27
28	9	27	28
29	6	28	29
30	7	28	57
31	7	28	58
32	7	29	30
33	6	29	31
34	6	29	54
35	7	31	32
36	7	31	33
37	6	31	34
38	7	34	35
39	6	34	36
40	6	34	52
41	7	36	37
42	6	36	38
43	6	36	49
44	7	38	39
45	7	38	40
46	6	38	41
47	6	41	42
48	7	41	46
49	6	41	47
50	9	42	43
51	7	42	44
52	7	42	45
53	10	43	84
54	7	47	48
55	6	47	49
56	6	47	52
57	7	49	50
58	7	49	51
59	7	52	53
60	6	52	54
61	7	54	55
62	7	54	56
63	1	59	60
64	2	59	61
65	4	61	62
66	5	61	83
67	6	62	63
68	7	62	81
69	7	62	82
70	6	63	64
71	7	63	79
72	7	63	80
73	6	64	65
74	7	64	77
75	7	64	78
76	6	65	66
77	7	65	75
78	7	65	76
79	6	66	67
80	7	66	73
81	7	66	74
82	11	67	68
83	7	67	71
84	7	67	72
85	12	68	69
86	1	69	70
87	9	84	85
88	6	85	86
89	7	85	115
90	7	85	116
91	7	86	87
92	6	86	88
93	6	86	112
94	7	88	89
95	7	88	90
96	6	88	91
97	7	91	92
98	6	91	93
99	6	91	110
100	7	93	94
101	6	93	95
102	6	93	107
103	7	95	96
104	7	95	97
105	6	95	98
106	6	98	99
107	7	98	104
108	6	98	105
109	13	99	100
110	7	99	102
111	7	99	103
112	14	100	101
113	7	105	106
114	6	105	107
115	6	105	110
116	7	107	108
117	7	107	109
118	7	110	111
119	6	110	112
120	7	112	113
121	7	112	114

Angles

1	4	41	47	52
2	4	92	91	110
3	4	36	49	50
4	4	91	110	111
5	4	64	65	75
6	4	105	107	108
7	4	93	95	96
8	4	36	38	39
9	5	99	100	101
10	9	68	69	70
11	4	84	85	86
12	4	41	47	48
13	7	102	99	103
14	4	66	65	75
15	4	86	88	89
16	4	65	64	77
17	4	91	93	95
18	4	110	112	114
19	4	86	85	116
20	4	100	99	102
21	4	105	110	111
22	4	68	67	72
23	4	5	4	24
24	4	34	36	37
25	4	34	52	47
26	4	85	86	88
27	4	43	42	44
28	4	10	9	15
29	4	98	105	110
30	4	96	95	98
31	7	32	31	33
32	4	5	6	7
33	4	35	34	36
34	4	36	49	51
35	4	93	107	108
36	4	64	65	76
37	7	108	107	109
38	1	9	10	11
39	4	35	34	52
40	4	36	38	40
41	4	65	66	73
42	4	93	95	97
43	4	9	8	16
44	4	6	7	18
45	3	1	59	60
46	4	64	63	79
47	4	41	47	49
48	4	67	66	73
49	4	86	88	90
50	4	91	93	107
51	4	36	49	47
52	5	43	84	85
53	4	98	105	106
54	4	34	36	49
55	4	100	99	103
56	7	50	49	51
57	7	16	8	17
58	4	3	4	24
59	4	29	31	32
60	4	53	52	54
61	4	105	110	112
62	4	41	42	44
63	4	111	110	112
64	4	88	86	112
65	4	8	9	14
66	7	77	64	78
67	4	93	107	109
68	6	12	11	27
69	4	52	54	56
70	5	11	27	28
71	4	47	52	53
72	4	47	49	50
73	3	1	59	61
74	4	64	63	80
75	4	85	86	112
76	4	98	105	107
77	4	99	98	105
78	7	73	66	74
79	4	84	85	115
80	4	93	107	105
81	4	28	29	54
82	4	42	41	47
83	7	44	42	45
84	4	3	4	25
85	7	24	4	25
86	4	95	93	107
87	3	3	1	59
88	4	41	42	45
89	4	104	98	105
90	4	86	112	114
91	4	95	98	99
92	7	115	85	116
93	4	36	34	52
94	4	61	62	81
95	4	48	47	52
96	7	39	38	40
97	4	90	88	91
98	4	40	38	41
99	4	47	52	54
100	4	88	91	92
101	4	28	29	30
102	4	95	98	104
103	4	91	110	112
104	2	11	10	13
105	4	94	93	107
106	4	86	112	110
107	4	105	107	109
108	4	31	29	54
109	4	66	65	76
110	4	61	62	82
111	4	65	64	78
112	4	39	38	41
113	4	38	41	42
114	5	42	43	84
115	7	79	63	80
116	4	4	5	6
117	4	5	4	25
118	4	6	7	8
119	4	34	36	38
120	4	107	105	110
121	4	43	42	45
122	4	33	31	34
123	4	61	62	63
124	4	88	91	93
125	4	28	29	31
126	4	32	31	34
127	3	60	59	61
128	7	57	28	58
129	4	48	47	49
130	4	29	54	55
131	4	34	52	53
132	4	93	95	98
133	4	36	38	41
134	4	65	66	74
135	1	59	61	62
136	4	86	85	115
137	4	9	8	17
138	4	30	29	54
139	4	63	64	65
140	4	6	7	19
141	2	4	3	26
142	4	67	66	74
143	4	86	88	91
144	4	7	8	16
145	7	20	6	21
146	4	106	105	110
147	4	29	31	33
148	4	94	93	95
149	4	98	99	102
150	4	63	62	81
151	4	4	5	22
152	4	38	36	49
153	4	8	9	15
154	7	55	54	56
155	4	91	110	105
156	7	113	112	114
157	3	10	11	27
158	4	29	54	56
159	2	9	10	13
160	4	63	64	77
161	4	62	63	64
162	3	2	1	3
163	4	27	28	57
164	4	47	49	51
165	4	6	5	22
166	4	62	63	79
167	7	71	67	72
168	4	5	6	20
169	4	38	41	46
170	7	89	88	90
171	4	49	47	52
172	4	29	54	52
173	4	98	99	103
174	4	63	62	82
175	4	4	5	23
176	4	7	8	9
177	3	10	11	12
178	7	18	7	19
179	4	31	34	35
180	7	81	62	82
181	4	110	112	113
182	4	30	29	31
183	4	63	64	78
184	4	106	105	107
185	2	1	3	26
186	4	8	7	18
187	4	68	67	71
188	4	65	66	67
189	4	10	9	14
190	4	95	98	105
191	7	96	95	97
192	4	6	5	23
193	4	62	63	80
194	4	46	41	47
195	4	5	6	21
196	4	7	6	20
197	4	38	41	47
198	4	89	88	91
199	1	1	3	4
200	4	64	65	66
201	4	27	28	29
202	4	37	36	49
203	7	75	65	76
204	4	29	28	57
205	4	37	36	38
206	4	31	34	36
207	4	3	4	5
208	4	97	95	98
209	4	8	9	10
210	4	66	67	71
211	4	8	7	19
212	4	98	99	100
213	4	31	34	52
214	4	41	42	43
215	3	2	1	59
216	4	84	85	116
217	4	7	6	21
218	4	34	52	54
219	4	88	91	110
220	4	92	91	93
221	4	52	54	55
222	4	87	86	112
223	2	62	61	83
224	4	29	28	58
225	4	99	98	104
226	4	7	8	17
227	8	67	68	69
228	4	93	91	110
229	4	42	41	46
230	4	29	31	34
231	4	66	67	72
232	7	14	9	15
233	2	59	61	83
234	4	86	112	113
235	4	91	93	94
236	4	87	86	88
237	4	66	67	68
238	7	22	5	23
239	4	85	86	87
240	4	27	28	58

Dihedrals

1	18	64	63	62	81
2	15	49	47	52	54
2	16	49	47	52	54
2	17	49	47	52	54
3	18	34	52	54	55
4	13	2	1	59	60
5	9	60	59	61	62
5	10	60	59	61	62
6	18	86	112	110	111
7	18	62	63	64	77
8	15	86	112	110	91
8	16	86	112	110	91
8	17	86	112	110	91
9	14	27	28	29	54
10	5	8	9	10	13
10	6	8	9	10	13
11	18	54	29	28	58
12	18	65	64	63	80
13	18	95	93	107	108
14	18	44	42	41	47
15	18	31	29	28	58
16	18	40	38	36	49
17	7	26	3	1	59
17	8	26	3	1	59
18	5	11	10	9	14
18	6	11	10	9	14
19	18	98	105	110	111
20	18	93	91	110	111
21	20	11	27	28	29
21	21	11	27	28	29
22	14	3	4	5	23
23	18	32	31	34	36
24	15	91	110	105	107
24	16	91	110	105	107
24	17	91	110	105	107
25	18	6	7	8	17
26	15	29	54	52	34
26	16	29	54	52	34
26	17	29	54	52	34
27	22	43	84	85	116
28	18	48	47	52	54
29	27	87	86	88	89
30	27	46	41	47	48
31	15	6	7	8	9
31	16	6	7	8	9
31	17	6	7	8	9
32	18	31	34	36	37
33	31	66	67	68	69
34	14	38	41	42	43
35	15	88	86	112	110
35	16	88	86	112	110
35	17	88	86	112	110
36	27	30	29	54	55
37	15	95	98	105	107
37	16	95	98	105	107
37	17	95	98	105	107
38	18	34	36	38	40
39	18	102	99	98	105
40	5	5	4	3	26
40	6	5	4	3	26
41	27	75	65	64	77
42	27	20	6	5	23
43	18	5	6	7	18
44	18	93	107	105	106
45	18	7	8	9	14
46	18	97	95	98	99
47	18	98	105	107	108
48	18	97	95	93	107
49	18	112	86	85	115
50	15	29	54	52	47
50	16	29	54	52	47
50	17	29	54	52	47
51	18	66	65	64	77
52	15	28	29	31	34
52	16	28	29	31	34
52	17	28	29	31	34
53	18	4	5	6	21
54	14	27	28	29	31
55	18	40	38	41	47
56	15	95	93	107	105
56	16	95	93	107	105
56	17	95	93	107	105
57	18	93	95	98	104
58	18	33	31	29	54
59	18	90	88	86	112
60	27	94	93	95	97
61	28	100	99	98	104
61	29	100	99	98	104
62	18	35	34	52	54
63	7	9	10	11	27
63	8	9	10	11	27
64	14	10	9	8	16
65	18	35	34	36	49
66	27	79	63	62	82
67	35	101	100	99	103
68	18	89	88	91	93
69	14	84	85	86	88
70	18	104	98	105	107
71	18	47	52	54	56
72	14	61	62	63	64
73	18	105	110	112	114
74	15	38	41	47	52
74	16	38	41	47	52
74	17	38	41	47	52
75	18	54	29	28	57
76	5	59	61	62	82
76	6	59	61	62	82
77	18	65	64	63	79
78	27	44	42	41	46
79	18	95	98	99	103
80	27	16	8	7	19
81	27	19	7	6	21
82	18	35	34	52	47
83	18	67	66	65	76
84	18	6	5	4	25
85	14	3	4	5	22
86	27	32	31	34	35
87	18	50	49	47	52
88	27	15	9	8	17
89	18	39	38	41	42
90	27	48	47	49	50
91	27	48	47	52	53
92	15	41	38	36	49
92	16	41	38	36	49
92	17	41	38	36	49
93	15	29	31	34	36
93	16	29	31	34	36
93	17	29	31	34	36
94	18	103	99	98	105
95	18	92	91	110	112
96	18	90	88	91	110
97	18	41	47	49	51
98	27	17	8	7	18
99	18	33	31	34	36
100	14	43	42	41	47
101	18	8	7	6	21
102	18	34	36	38	39
103	27	102	99	98	104
104	27	76	65	64	78
105	18	89	88	91	110
106	27	20	6	5	22
107	13	3	1	59	61
108	5	1	3	4	25
108	6	1	3	4	25
109	18	31	29	54	56
110	22	41	42	43	84
111	15	85	86	88	91
111	16	85	86	88	91
111	17	85	86	88	91
112	18	4	5	6	20
113	27	37	36	38	39
114	28	27	28	29	30
114	29	27	28	29	30
115	27	40	38	41	46
116	18	92	91	110	105
117	15	38	36	34	52
117	16	38	36	34	52
117	17	38	36	34	52
118	14	95	98	99	100
119	18	88	91	110	111
120	18	36	34	52	53
121	15	95	98	105	110
121	16	95	98	105	110
121	17	95	98	105	110
122	27	94	93	95	96
123	15	28	29	54	52
123	16	28	29	54	52
123	17	28	29	54	52
124	27	35	34	52	53
125	27	79	63	62	81
126	18	32	31	34	52
127	18	91	93	95	97
128	28	84	85	86	87
128	29	84	85	86	87
129	27	30	29	31	32
130	18	47	52	54	55
131	15	88	91	93	95
131	16	88	91	93	95
131	17	88	91	93	95
132	18	109	107	105	110
133	1	8	9	10	11
133	2	8	9	10	11
133	3	8	9	10	11
133	4	8	9	10	11
134	18	96	95	98	99
135	18	105	110	112	113
136	18	108	107	105	110
137	18	96	95	93	107
138	18	107	105	110	111
139	5	59	61	62	81
139	6	59	61	62	81
140	27	16	8	7	18
141	18	28	29	54	56
142	22	11	27	28	58
143	27	23	5	4	24
144	18	67	66	65	75
145	15	95	93	91	110
145	16	95	93	91	110
145	17	95	93	91	110
146	18	88	86	85	115
147	14	65	66	67	68
148	22	43	84	85	86
149	18	7	6	5	22
150	15	34	52	47	49
150	16	34	52	47	49
150	17	34	52	47	49
151	27	22	5	4	25
152	18	64	65	66	74
153	18	104	98	105	110
154	27	71	67	66	74
155	18	39	38	36	49
156	15	86	88	91	93
156	16	86	88	91	93
156	17	86	88	91	93
157	27	92	91	110	111
158	18	85	86	112	114
159	28	43	42	41	46
159	29	43	42	41	46
160	18	34	36	49	51
161	27	73	66	65	76
162	27	76	65	64	77
163	18	92	91	93	95
164	27	21	6	5	23
165	18	65	66	67	72
166	18	31	29	54	55
167	15	5	6	7	8
167	16	5	6	7	8
167	17	5	6	7	8
168	15	64	65	66	67
168	16	64	65	66	67
168	17	64	65	66	67
169	18	85	86	88	90
170	18	9	8	7	19
171	14	3	4	5	6
172	18	87	86	88	91
173	27	111	110	112	114
174	27	87	86	85	115
175	18	38	41	47	48
176	7	1	59	61	83
176	8	1	59	61	83
177	18	37	36	49	47
178	7	4	3	1	59
178	8	4	3	1	59
179	15	36	38	41	47
179	16	36	38	41	47
179	17	36	38	41	47
180	18	38	41	42	45
181	15	36	49	47	52
181	16	36	49	47	52
181	17	36	49	47	52
182	30	42	43	84	85
183	18	90	88	91	93
184	14	61	62	63	80
185	5	13	10	9	15
185	6	13	10	9	15
186	18	51	49	47	52
187	18	49	47	52	53
188	18	35	34	36	38
189	15	91	88	86	112
189	16	91	88	86	112
189	17	91	88	86	112
190	27	78	64	63	80
191	18	91	93	95	96
192	18	94	93	107	105
193	15	62	63	64	65
193	16	62	63	64	65
193	17	62	63	64	65
194	18	38	36	49	51
195	15	29	31	34	52
195	16	29	31	34	52
195	17	29	31	34	52
196	15	86	88	91	110
196	16	86	88	91	110
196	17	86	88	91	110
197	27	37	36	49	51
198	18	33	31	34	52
199	18	112	86	85	116
200	18	31	29	28	57
201	27	87	86	112	114
202	18	28	29	54	55
203	32	67	68	69	70
204	22	11	27	28	57
205	5	24	4	3	26
205	6	24	4	3	26
206	15	31	34	52	54
206	16	31	34	52	54
206	17	31	34	52	54
207	18	97	95	98	105
208	15	31	29	54	52
208	16	31	29	54	52
208	17	31	29	54	52
209	13	2	1	59	61
210	27	22	5	4	24
211	18	29	54	52	53
212	18	64	65	66	73
213	18	106	105	110	112
214	18	62	63	64	78
215	18	91	110	105	106
216	18	91	110	112	114
217	27	94	93	107	109
218	27	71	67	66	73
219	18	6	7	8	16
220	5	82	62	61	83
220	6	82	62	61	83
221	18	40	38	41	42
222	18	85	86	112	113
223	15	93	95	98	99
223	16	93	95	98	99
223	17	93	95	98	99
224	15	41	47	52	54
224	16	41	47	52	54
224	17	41	47	52	54
225	18	95	98	105	106
226	27	14	9	8	17
227	15	98	105	110	112
227	16	98	105	110	112
227	17	98	105	110	112
228	22	45	42	43	84
229	5	63	62	61	83
229	6	63	62	61	83
230	15	93	91	110	112
230	16	93	91	110	112
230	17	93	91	110	112
231	27	21	6	5	22
232	22	44	42	43	84
233	18	65	66	67	71
234	15	31	34	52	47
234	16	31	34	52	47
234	17	31	34	52	47
235	15	42	41	47	52
235	16	42	41	47	52
235	17	42	41	47	52
236	7	1	59	61	62
236	8	1	59	61	62
237	18	28	29	31	33
238	18	9	8	7	18
239	27	87	86	88	90
240	18	46	41	47	49
241	27	106	105	107	109
242	15	31	34	36	49
242	16	31	34	36	49
242	17	31	34	36	49
243	18	36	38	41	46
244	27	90	88	91	92
245	14	61	62	63	79
246	5	13	10	9	14
246	6	13	10	9	14
247	15	34	36	38	41
247	16	34	36	38	41
247	17	34	36	38	41
248	27	72	67	66	74
249	15	63	64	65	66
249	16	63	64	65	66
249	17	63	64	65	66
250	15	93	91	110	105
250	16	93	91	110	105
250	17	93	91	110	105
251	27	35	34	36	37
252	35	101	100	99	102
253	18	5	6	7	19
254	27	89	88	91	92
255	27	78	64	63	79
256	18	98	105	107	109
257	15	93	107	105	98
257	16	93	107	105	98
257	17	93	107	105	98
258	9	2	1	3	4
258	10	2	1	3	4
259	18	66	65	64	78
260	27	104	98	105	106
261	18	37	36	38	41
262	27	37	36	49	50
263	18	95	98	99	102
264	15	85	86	112	110
264	16	85	86	112	110
264	17	85	86	112	110
265	18	94	93	95	98
266	15	34	36	49	47
266	16	34	36	49	47
266	17	34	36	49	47
267	27	19	7	6	20
268	22	43	84	85	115
269	14	10	9	8	17
270	18	6	5	4	24
271	18	31	34	52	53
272	27	97	95	98	104
273	15	42	41	47	49
273	16	42	41	47	49
273	17	42	41	47	49
274	27	18	7	6	21
275	27	106	105	110	111
276	27	15	9	8	16
277	1	59	61	62	63
277	2	59	61	62	63
277	3	59	61	62	63
277	4	59	61	62	63
278	18	30	29	31	34
279	18	91	110	112	113
280	27	94	93	107	108
281	15	99	98	105	110
281	16	99	98	105	110
281	17	99	98	105	110
282	27	77	64	63	80
283	27	74	66	65	76
284	1	1	3	4	5
284	2	1	3	4	5
284	3	1	3	4	5
284	4	1	3	4	5
285	18	45	42	41	47
286	18	29	31	34	35
287	27	103	99	98	104
288	27	53	52	54	56
289	18	36	49	47	48
290	15	4	5	6	7
290	16	4	5	6	7
290	17	4	5	6	7
291	18	41	47	49	50
292	27	33	31	34	35
293	15	91	93	107	105
293	16	91	93	107	105
293	17	91	93	107	105
294	18	41	47	52	53
295	27	14	9	8	16
296	18	8	7	6	20
297	15	34	31	29	54
297	16	34	31	29	54
297	17	34	31	29	54
298	13	3	1	59	60
299	5	1	3	4	24
299	6	1	3	4	24
300	27	48	47	49	51
301	18	28	29	31	32
302	15	91	110	105	98
302	16	91	110	105	98
302	17	91	110	105	98
303	14	68	67	66	74
304	15	107	93	91	110
304	16	107	93	91	110
304	17	107	93	91	110
305	27	30	29	28	58
306	15	38	36	49	47
306	16	38	36	49	47
306	17	38	36	49	47
307	18	96	95	98	105
308	31	69	68	67	72
309	14	7	8	9	10
310	27	106	105	107	108
311	18	88	86	85	116
312	23	12	11	10	13
312	24	12	11	10	13
313	15	36	49	47	41
313	16	36	49	47	41
313	17	36	49	47	41
314	27	17	8	7	19
315	18	91	93	107	109
316	18	94	93	91	110
317	18	87	86	112	110
318	18	63	64	65	76
319	27	72	67	66	73
320	18	39	38	41	47
321	18	88	91	93	94
322	18	46	41	47	52
323	15	99	98	105	107
323	16	99	98	105	107
323	17	99	98	105	107
324	27	37	36	38	40
325	18	88	86	112	114
326	15	88	91	110	112
326	16	88	91	110	112
326	17	88	91	110	112
327	15	36	34	52	54
327	16	36	34	52	54
327	17	36	34	52	54
328	19	10	11	27	28
329	27	80	63	62	82
330	27	87	86	85	116
331	18	64	63	62	82
332	15	93	107	105	110
332	16	93	107	105	110
332	17	93	107	105	110
333	18	34	52	47	48
334	18	34	52	54	56
335	18	42	41	47	48
336	27	18	7	6	20
337	15	91	93	95	98
337	16	91	93	95	98
337	17	91	93	95	98
338	27	30	29	31	33
339	15	88	91	93	107
339	16	88	91	93	107
339	17	88	91	93	107
340	7	9	10	11	12
340	8	9	10	11	12
341	5	25	4	3	26
341	6	25	4	3	26
342	11	60	59	61	83
342	12	60	59	61	83
343	27	77	64	63	79
344	5	81	62	61	83
344	6	81	62	61	83
345	27	74	66	65	75
346	15	107	105	110	112
346	16	107	105	110	112
346	17	107	105	110	112
347	27	45	42	41	46
348	18	86	88	91	92
349	27	53	52	54	55
350	18	95	93	107	109
351	15	36	38	41	42
351	16	36	38	41	42
351	17	36	38	41	42
352	25	12	11	27	28
352	26	12	11	27	28
353	11	2	1	3	26
353	12	2	1	3	26
354	18	30	29	54	52
355	15	88	91	110	105
355	16	88	91	110	105
355	17	88	91	110	105
356	15	36	34	52	47
356	16	36	34	52	47
356	17	36	34	52	47
357	18	34	36	49	50
358	5	11	10	9	15
358	6	11	10	9	15
359	27	73	66	65	75
360	27	23	5	4	25
361	27	92	91	93	94
362	7	13	10	11	27
362	8	13	10	11	27
363	15	49	36	34	52
363	16	49	36	34	52
363	17	49	36	34	52
364	14	84	85	86	112
365	18	7	6	5	23
366	18	32	31	29	54
367	18	89	88	86	112
368	15	34	52	47	41
368	16	34	52	47	41
368	17	34	52	47	41
369	15	86	112	110	105
369	16	86	112	110	105
369	17	86	112	110	105
370	18	85	86	88	89
371	14	68	67	66	73
372	27	30	29	28	57
373	27	96	95	98	104
374	27	111	110	112	113
375	31	69	68	67	71
376	15	31	34	36	38
376	16	31	34	36	38
376	17	31	34	36	38
377	18	38	41	42	44
378	18	91	93	107	108
379	27	30	29	54	56
380	18	92	91	93	107
381	18	63	64	65	75
382	27	75	65	64	78
383	33	98	99	100	101
383	34	98	99	100	101
384	18	7	8	9	15
385	27	39	38	41	46
386	15	98	95	93	107
386	16	98	95	93	107
386	17	98	95	93	107
387	18	38	36	49	50
388	18	99	98	105	106
389	15	38	41	47	49
389	16	38	41	47	49
389	17	38	41	47	49
390	15	93	95	98	105
390	16	93	95	98	105
390	17	93	95	98	105
391	18	88	86	112	113
392	27	87	86	112	113
393	14	100	99	98	105
394	18	37	36	34	52
395	27	80	63	62	81

Impropers

90	1	3	4	26	1
105	1	3	1	4	26
137	1	61	62	83	59
228	2	1	3	59	2
359	1	10	9	11	13
409	1	3	26	1	4
454	2	1	59	2	3
579	3	11	12	27	10
637	1	61	83	59	62
641	3	11	10	12	27
643	1	61	59	62	83
678	2	59	1	60	61
695	2	59	61	1	60
758	1	10	11	13	9
761	1	10	13	9	11
777	3	11	27	10	12
778	2	59	60	61	1
830	2	1	2	3	59
