Title

116 atoms
121 bonds
240 angles
578 dihedrals
18 impropers

11 atom types
14 bond types
9 angle types
35 dihedral types
3 improper types
-12.50599957 87.49400043 xlo xhi
-3.063999891 96.93600011 ylo yhi
-17.43799973 82.56200027 zlo zhi
0.0 0.0 0.0 xy xz yz

Masses

1	12.01078
2	15.99943
3	14.00672
4	12.01078
5	1.007947
6	1.007947
7	1.007947
8	15.99943
9	12.01078
10	15.99943
11	1.007947


Pair Coeffs

1	0.086879315	3.4806469
2	0.2102061	3.0398122
3	0.16769152	3.206876
4	0.10884061	3.3795318
5	0.014090815	1.1034277
6	0.016409246	2.5832257
7	0.015779483	2.6445434
8	0.16846514	3.0251065
9	0.21	3.3996695
10	0.20947353	2.99716
11	1.2326e-05	0.53453923

Bond Coeffs

1 harmonic	582.698766451	1.225198386222
2 harmonic	492.76746816345	1.381897776683
3 harmonic	279.1350963404	1.454628925034
4 harmonic	352.0565580496	1.450098586273
5 harmonic	505.144496193	1.019481865027
6 harmonic	264.62148576755	1.52190126495
7 harmonic	370.04670688625	1.093899492634
8 harmonic	301.15400723785	1.345741232799
9 harmonic	366.7408841747	1.425895053732
10 harmonic	300.03137914615	1.451203938761
11 harmonic	366.34047229585	1.464762957261
12 harmonic	602.81384337	1.196112346392
13 harmonic	329.96998057905	1.427343958716
14 harmonic	543.5267831885	0.9716763312559


Angle Coeffs

1 harmonic	55.42182150775	117.3465570514
2 harmonic	63.44422595415	115.5071327674
3 harmonic	57.8982893754	126.8062420451
4 harmonic	53.20531626545	116.5475862634
5 harmonic	65.09061609600001	110.3538806181
6 harmonic	201.41175231035	127.4691416191
7 harmonic	48.776492647595	115.6030999533
8 harmonic	55.07882548015	112.8714009681
9 harmonic	33.56981613361	180


Dihedral Coeffs

1 fourier 1	-0.1488678166443	4	180
2 fourier 1	-0.1230328948768	3	180
3 fourier 1	0.2939295466901	2	0
4 fourier 1	-0.3024127022865	1	0
5 fourier 1	0.182238503271	2	0
6 fourier 1	0.02972342374561	3	0
7 fourier 1	1.809047390003	2	180
8 fourier 1	-0.04816277792592	1	0
9 fourier 1	3.101948770557	2	180
10 fourier 1	-0.4252153282372	1	0
11 fourier 1	2.348375642009	2	180
12 fourier 1	1.256156174911	1	0
13 fourier 1	0.9974165607242	2	180
14 fourier 1	0.1155372516788	3	0
15 fourier 1	0.09223874044423	3	0
16 fourier 1	0.3159935921949	2	180
17 fourier 1	0.3247796806857	1	180
18 fourier 1	0.1040663847541	3	0
19 fourier 1	2.779853741805	2	180
20 fourier 1	0.1918272375143	3	0
21 fourier 1	0.9202179876409	1	180
22 fourier 1	0.0473758381877	3	0
23 fourier 1	0.4860993122944	2	180
24 fourier 1	0.8916986138746	1	0
25 fourier 1	1.163809172478	2	180
26 fourier 1	0.1679186987369	1	180
27 fourier 1	0.1911926717192	3	0
28 fourier 1	0.1115525666802	3	0
29 fourier 1	0.3432490222662	1	0
30 fourier 1	0.457973137376	1	0
31 fourier 1	-1.382973039546	1	0
32 fourier 1	0	1	0
33 fourier 1	0.3445382149273	3	0
34 fourier 1	0.1364556373303	1	0
35 fourier 1	0.3026390167484	3	0


Improper Coeffs

1 0.3333333333333333	-1	2
2 0.3666666666666667	-1	2
3 3.5	-1	2


Atoms

1	1	1	0.537552	-4.6939998	1.331	-0.38600001
2	1	2	-0.72152197	-5.1230001	1.428	0.79500002
3	1	3	-0.52891803	-3.4430001	0.69599998	-0.66100001
4	1	4	0.027101001	-2.6159999	0.13600001	0.40700001
5	1	4	-0.14893299	-1.3329999	-0.479	-0.161
6	1	4	-0.14543501	-0.45199999	-1.053	0.95899999
7	1	4	-0.14543501	0.75700003	-1.8430001	0.42699999
8	1	4	-0.147663	1.749	-1.023	-0.41800001
9	1	4	0.021149	2.3959999	0.12800001	0.36399999
10	1	3	-0.471962	3.4519999	0.76200002	-0.42399999
11	1	1	0.77648002	4.2150002	1.858	0.088
12	1	2	-0.63168198	3.9979999	2.3099999	1.244
13	1	5	0.31848499	3.668	0.42500001	-1.39
14	1	6	0.045621	1.6289999	0.89200002	0.61000001
15	1	6	0.045621	2.832	-0.264	1.309
16	1	7	0.079962	1.249	-0.62900001	-1.3279999
17	1	7	0.079962	2.55	-1.7130001	-0.75999999
18	1	7	0.078992002	1.301	-2.2809999	1.293
19	1	7	0.078992002	0.38800001	-2.6930001	-0.186
20	1	7	0.078992002	-0.114	-0.237	1.633
21	1	7	0.078992002	-1.063	-1.749	1.574
22	1	7	0.079962	-0.77499998	0.31	-0.708
23	1	7	0.079962	-1.602	-1.289	-0.875
24	1	6	0.042169999	-3.1960001	-0.64499998	0.94499999
25	1	6	0.042169999	-2.352	0.94400001	1.125
26	1	5	0.31189701	-3.1300001	0.63999999	-1.6569999
27	1	8	-0.49872699	4.9559999	2.2869999	-0.49700001
28	1	4	0.139607	5.6209998	1.233	-1.1390001
29	1	4	-0.098838001	4.7610002	0.66500002	-2.28
30	1	7	0.103529	3.7950001	0.303	-1.8609999
31	1	4	-0.16008499	5.441	-0.50199997	-2.994
32	1	7	0.108403	6.546	-0.368	-3.003
33	1	7	0.108403	5.2140002	-1.461	-2.48
34	1	4	-0.078298002	4.8730001	-0.5	-4.4190001
35	1	7	0.120033	4.1100001	-1.3049999	-4.52
36	1	4	-0.108187	5.9499998	-0.58499998	-5.5300002
37	1	7	0.11443	6.7550001	-1.326	-5.3390002
38	1	4	-0.161606	5.2389998	-0.77399999	-6.8850002
39	1	7	0.108351	4.494	-1.599	-6.849
40	1	7	0.108351	5.9889998	-1.007	-7.6729999
41	1	4	-0.063817002	4.5599999	0.59799999	-7.1149998
42	1	4	0.060557999	4.9650002	1.243	-8.4510002
43	1	8	-0.147789	4.2950001	2.4630001	-8.6099997
44	1	6	0.089397997	6.0630002	1.41	-8.4960003
45	1	6	0.089397997	4.6810002	0.55800003	-9.2810001
46	1	7	0.113982	3.4519999	0.479	-7.1170001
47	1	4	-0.095187001	5.0310001	1.4119999	-5.881
48	1	7	0.124521	4.9899998	2.5150001	-6.006
49	1	4	-0.140761	6.4200001	0.84799999	-5.6440001
50	1	7	0.102783	7.1199999	1.0089999	-6.493
51	1	7	0.102783	6.9029999	1.229	-4.717
52	1	4	-0.074239001	4.2480001	0.88499999	-4.651
53	1	7	0.119187	3.1570001	0.801	-4.855
54	1	4	-0.16121501	4.4640002	1.697	-3.368
55	1	7	0.108403	3.5539999	2.2820001	-3.115
56	1	7	0.108403	5.3119998	2.4089999	-3.4790001
57	1	6	0.081289999	6.585	1.614	-1.54
58	1	6	0.081289999	5.8569999	0.42699999	-0.40599999
59	1	1	0.537552	-5.2810001	1.734	-1.2
60	1	2	-0.72152197	-5.3039999	1.13	-2.3050001
61	1	3	-0.52891803	-6.013	2.95	-1.011
62	1	4	0.027101001	-6.8260002	3.556	-2.0639999
63	1	4	-0.14893299	-8.1389999	2.786	-2.2379999
64	1	4	-0.145247	-9.0120001	3.427	-3.3280001
65	1	4	-0.141027	-10.394	2.7650001	-3.4449999
66	1	4	-0.12523399	-10.327	1.36	-4.0650001
67	1	4	0.18061601	-11.726	0.75800002	-4.27
68	1	3	-0.687383	-12.506	1.5190001	-5.2420001
69	1	9	0.59068	-12.193	1.558	-6.4749999
70	1	2	-0.52110898	-11.887	1.597	-7.6739998
71	1	6	0.022617999	-11.632	-0.29699999	-4.6100001
72	1	6	0.022617999	-12.269	0.75099999	-3.3010001
73	1	7	0.073651001	-9.7629995	0.68199998	-3.3900001
74	1	7	0.073651001	-9.7910004	1.397	-5.0380001
75	1	7	0.077726997	-10.874	2.7149999	-2.4430001
76	1	7	0.077726997	-11.027	3.415	-4.0879998
77	1	7	0.078992002	-9.1660004	4.4990001	-3.079
78	1	7	0.078992002	-8.4879999	3.381	-4.3080001
79	1	7	0.079962	-7.9089999	1.7359999	-2.513
80	1	7	0.079962	-8.6890001	2.7869999	-1.271
81	1	6	0.042169999	-6.2540002	3.572	-3.0179999
82	1	6	0.042169999	-7.053	4.6069999	-1.783
83	1	5	0.31189701	-5.9109998	3.4530001	-0.101
84	1	8	-0.146129	4.5890002	2.8269999	-9.4860001
85	1	4	0.060706001	5.4089999	1.851	-10.071
86	1	4	-0.090910003	4.5619998	0.685	-10.607
87	1	7	0.106336	3.9849999	0.23800001	-9.7659998
88	1	4	-0.160997	5.4190001	-0.41299999	-11.236
89	1	7	0.108295	6.3249998	0.02	-11.715
90	1	7	0.108295	5.7519999	-1.141	-10.464
91	1	4	-0.077630997	4.5190001	-1.095	-12.273
92	1	7	0.120033	4.1479998	-2.0639999	-11.87
93	1	4	-0.108187	5.1750002	-1.265	-13.667
94	1	7	0.11443	6.2280002	-1.619	-13.643
95	1	4	-0.156085	4.2470002	-2.131	-14.541
96	1	7	0.108351	3.9389999	-3.0639999	-14.019
97	1	7	0.108351	4.7690001	-2.4089999	-15.484
98	1	4	-0.106388	3.04	-1.196	-14.798
99	1	4	0.138313	2.7550001	-0.99599999	-16.296
100	1	10	-0.68321699	1.637	-0.167	-16.459
101	1	11	0.37162101	1.499	-0.079000004	-17.438
102	1	6	0.072778001	3.632	-0.54799998	-16.813
103	1	6	0.072778001	2.546	-1.987	-16.757999
104	1	7	0.114036	2.1229999	-1.622	-14.331
105	1	4	-0.088790998	3.4749999	0.11	-14.084
106	1	7	0.124521	2.9619999	1.03	-14.439
107	1	4	-0.140761	4.9780002	0.097999997	-14.292
108	1	7	0.102783	5.2820001	0.132	-15.362
109	1	7	0.102783	5.5089998	0.912	-13.753
110	1	4	-0.073577002	3.3540001	-0.133	-12.557
111	1	7	0.119187	2.3789999	-0.59600002	-12.284
112	1	4	-0.16213299	3.5810001	1.115	-11.697
113	1	7	0.108295	2.6259999	1.464	-11.248
114	1	7	0.108295	4.0029998	1.949	-12.301
115	1	6	0.089521997	5.9819999	2.3199999	-10.9
116	1	6	0.089521997	6.1440001	1.473	-9.3249998

Bonds

1	1	1	2
2	2	1	3
3	3	1	59
4	4	3	4
5	5	3	26
6	6	4	5
7	7	4	24
8	7	4	25
9	6	5	6
10	7	5	22
11	7	5	23
12	6	6	7
13	7	6	20
14	7	6	21
15	6	7	8
16	7	7	18
17	7	7	19
18	6	8	9
19	7	8	16
20	7	8	17
21	4	9	10
22	7	9	14
23	7	9	15
24	2	10	11
25	5	10	13
26	1	11	12
27	8	11	27
28	9	27	28
29	6	28	29
30	7	28	57
31	7	28	58
32	7	29	30
33	6	29	31
34	6	29	54
35	7	31	32
36	7	31	33
37	6	31	34
38	7	34	35
39	6	34	36
40	6	34	52
41	7	36	37
42	6	36	38
43	6	36	49
44	7	38	39
45	7	38	40
46	6	38	41
47	6	41	42
48	7	41	46
49	6	41	47
50	9	42	43
51	7	42	44
52	7	42	45
53	10	43	84
54	7	47	48
55	6	47	49
56	6	47	52
57	7	49	50
58	7	49	51
59	7	52	53
60	6	52	54
61	7	54	55
62	7	54	56
63	1	59	60
64	2	59	61
65	4	61	62
66	5	61	83
67	6	62	63
68	7	62	81
69	7	62	82
70	6	63	64
71	7	63	79
72	7	63	80
73	6	64	65
74	7	64	77
75	7	64	78
76	6	65	66
77	7	65	75
78	7	65	76
79	6	66	67
80	7	66	73
81	7	66	74
82	11	67	68
83	7	67	71
84	7	67	72
85	12	68	69
86	1	69	70
87	9	84	85
88	6	85	86
89	7	85	115
90	7	85	116
91	7	86	87
92	6	86	88
93	6	86	112
94	7	88	89
95	7	88	90
96	6	88	91
97	7	91	92
98	6	91	93
99	6	91	110
100	7	93	94
101	6	93	95
102	6	93	107
103	7	95	96
104	7	95	97
105	6	95	98
106	6	98	99
107	7	98	104
108	6	98	105
109	13	99	100
110	7	99	102
111	7	99	103
112	14	100	101
113	7	105	106
114	6	105	107
115	6	105	110
116	7	107	108
117	7	107	109
118	7	110	111
119	6	110	112
120	7	112	113
121	7	112	114

Angles

1	3	2	1	59
2	4	36	49	47
3	4	29	54	56
4	4	91	110	112
5	4	86	112	113
6	4	86	112	114
7	4	5	6	21
8	2	9	10	13
9	2	4	3	26
10	3	2	1	3
11	4	3	4	24
12	4	6	7	19
13	4	38	41	47
14	2	59	61	83
15	4	64	63	80
16	4	100	99	102
17	4	106	105	107
18	4	61	62	82
19	4	107	105	110
20	4	6	5	22
21	4	8	7	19
22	4	7	6	21
23	4	29	31	34
24	4	38	36	49
25	4	66	67	72
26	4	41	47	49
27	4	65	64	77
28	4	63	64	65
29	4	66	67	68
30	3	3	1	59
31	7	18	7	19
32	4	29	28	58
33	4	38	41	46
34	4	62	63	80
35	4	30	29	54
36	4	84	85	115
37	4	10	9	15
38	4	62	63	64
39	8	67	68	69
40	4	32	31	34
41	4	87	86	88
42	4	66	65	76
43	5	99	100	101
44	7	44	42	45
45	4	61	62	63
46	4	95	93	107
47	4	38	41	42
48	3	1	59	61
49	3	10	11	27
50	4	5	6	7
51	4	8	9	15
52	4	39	38	41
53	4	49	47	52
54	4	63	62	81
55	4	95	98	104
56	4	35	34	52
57	4	3	4	25
58	7	79	63	80
59	4	4	5	23
60	4	89	88	91
61	4	94	93	107
62	4	84	85	116
63	4	93	95	97
64	4	95	98	105
65	4	52	54	56
66	7	20	6	21
67	4	93	95	98
68	4	93	91	110
69	4	98	99	102
70	4	105	110	112
71	4	86	112	110
72	7	108	107	109
73	4	34	52	53
74	4	91	110	105
75	4	8	9	14
76	2	11	10	13
77	6	12	11	27
78	4	27	28	58
79	7	32	31	33
80	4	104	98	105
81	7	14	9	15
82	4	31	29	54
83	4	37	36	38
84	4	87	86	112
85	4	98	99	100
86	4	42	41	47
87	4	88	86	112
88	4	9	8	16
89	7	75	65	76
90	4	52	54	55
91	4	46	41	47
92	4	68	67	71
93	4	48	47	52
94	4	86	88	91
95	4	84	85	86
96	4	64	65	75
97	4	99	98	104
98	4	30	29	31
99	4	29	54	55
100	4	42	41	46
101	7	89	88	90
102	4	85	86	87
103	4	98	105	110
104	4	37	36	49
105	4	41	42	45
106	4	28	29	54
107	4	43	42	45
108	4	36	38	41
109	3	1	59	60
110	4	28	29	31
111	4	91	93	95
112	1	1	3	4
113	4	94	93	95
114	4	9	8	17
115	4	41	47	52
116	4	65	66	73
117	4	6	5	23
118	4	10	9	14
119	4	33	31	34
120	4	97	95	98
121	7	77	64	78
122	3	10	11	12
123	4	41	42	43
124	3	60	59	61
125	7	81	62	82
126	4	41	42	44
127	4	63	64	78
128	4	6	7	8
129	7	96	95	97
130	4	96	95	98
131	4	43	42	44
132	7	102	99	103
133	7	39	38	40
134	4	7	8	17
135	4	31	34	36
136	4	7	8	9
137	4	29	54	52
138	4	86	88	90
139	4	61	62	81
140	4	6	7	18
141	7	73	66	74
142	4	91	93	94
143	4	36	38	39
144	4	34	36	49
145	4	93	95	96
146	4	8	7	18
147	4	62	63	79
148	4	29	28	57
149	4	65	66	67
150	4	86	85	115
151	7	115	85	116
152	4	64	65	66
153	4	53	52	54
154	4	36	34	52
155	4	88	91	110
156	4	31	34	52
157	7	71	67	72
158	4	3	4	5
159	4	40	38	41
160	4	85	86	88
161	4	68	67	72
162	4	63	62	82
163	4	98	105	107
164	4	41	47	48
165	4	65	66	74
166	7	50	49	51
167	4	93	107	105
168	4	92	91	110
169	4	7	8	16
170	4	47	52	54
171	4	99	98	105
172	1	59	61	62
173	4	66	65	75
174	4	5	4	24
175	4	86	88	89
176	1	9	10	11
177	4	27	28	29
178	4	100	99	103
179	4	34	36	38
180	7	22	5	23
181	7	55	54	56
182	4	4	5	22
183	4	5	6	20
184	4	63	64	77
185	4	64	63	79
186	4	66	67	71
187	4	93	107	108
188	4	93	107	109
189	4	106	105	110
190	4	27	28	57
191	4	67	66	73
192	2	1	3	26
193	4	64	65	76
194	4	36	38	40
195	4	65	64	78
196	4	91	110	111
197	4	95	98	99
198	4	7	6	20
199	4	88	91	92
200	4	105	110	111
201	4	85	86	112
202	4	8	9	10
203	7	16	8	17
204	4	35	34	36
205	4	47	49	51
206	7	57	28	58
207	4	36	49	51
208	4	29	31	32
209	4	88	91	93
210	4	4	5	6
211	4	5	4	25
212	4	34	52	47
213	4	98	105	106
214	4	31	34	35
215	9	68	69	70
216	7	113	112	114
217	2	62	61	83
218	4	105	107	108
219	4	105	107	109
220	5	11	27	28
221	4	47	49	50
222	4	92	91	93
223	4	36	49	50
224	7	24	4	25
225	4	34	36	37
226	4	91	93	107
227	4	110	112	113
228	4	90	88	91
229	4	98	99	103
230	4	110	112	114
231	5	42	43	84
232	4	34	52	54
233	4	48	47	49
234	4	111	110	112
235	4	29	31	33
236	5	43	84	85
237	4	86	85	116
238	4	28	29	30
239	4	67	66	74
240	4	47	52	53

Dihedrals

1	25	12	11	27	28
1	26	12	11	27	28
2	18	41	47	52	53
3	18	40	38	41	47
4	18	29	31	34	35
5	14	10	9	8	17
6	18	92	91	110	105
7	18	28	29	54	56
8	27	76	65	64	77
9	7	1	59	61	62
9	8	1	59	61	62
10	27	78	64	63	80
11	18	49	47	52	53
12	5	8	9	10	13
12	6	8	9	10	13
13	15	91	88	86	112
13	16	91	88	86	112
13	17	91	88	86	112
14	15	38	36	34	52
14	16	38	36	34	52
14	17	38	36	34	52
15	27	30	29	31	32
16	18	38	36	49	51
17	15	41	38	36	49
17	16	41	38	36	49
17	17	41	38	36	49
18	5	1	3	4	24
18	6	1	3	4	24
19	28	84	85	86	87
19	29	84	85	86	87
20	18	86	88	91	92
21	27	44	42	41	46
22	27	96	95	98	104
23	18	62	63	64	77
24	15	86	88	91	93
24	16	86	88	91	93
24	17	86	88	91	93
25	18	103	99	98	105
26	27	80	63	62	81
27	18	91	110	112	114
28	5	25	4	3	26
28	6	25	4	3	26
29	15	99	98	105	110
29	16	99	98	105	110
29	17	99	98	105	110
30	27	94	93	107	109
31	15	36	49	47	41
31	16	36	49	47	41
31	17	36	49	47	41
32	15	5	6	7	8
32	16	5	6	7	8
32	17	5	6	7	8
33	18	29	54	52	53
34	18	33	31	29	54
35	5	1	3	4	25
35	6	1	3	4	25
36	18	30	29	31	34
37	27	20	6	5	22
38	18	95	98	105	106
39	27	30	29	54	55
40	27	19	7	6	21
41	18	109	107	105	110
42	18	96	95	93	107
43	18	36	49	47	48
44	15	29	31	34	36
44	16	29	31	34	36
44	17	29	31	34	36
45	22	44	42	43	84
46	18	91	93	107	109
47	18	112	86	85	115
48	27	75	65	64	77
49	27	20	6	5	23
50	18	30	29	54	52
51	18	88	91	110	111
52	18	9	8	7	18
53	18	33	31	34	36
54	27	90	88	91	92
55	15	31	34	52	54
55	16	31	34	52	54
55	17	31	34	52	54
56	18	35	34	52	54
57	18	90	88	91	93
58	27	37	36	38	39
59	27	87	86	85	115
60	27	30	29	28	58
61	30	42	43	84	85
62	18	108	107	105	110
63	18	33	31	34	52
64	14	61	62	63	79
65	31	66	67	68	69
66	27	79	63	62	82
67	18	91	93	95	97
68	18	7	6	5	22
69	18	41	47	49	50
70	27	87	86	112	113
71	15	93	95	98	105
71	16	93	95	98	105
71	17	93	95	98	105
72	18	106	105	110	112
73	18	99	98	105	106
74	27	73	66	65	75
75	18	92	91	110	112
76	18	28	29	31	33
77	14	3	4	5	22
78	18	7	6	5	23
79	14	61	62	63	80
80	18	6	5	4	25
81	18	40	38	41	42
82	18	34	36	49	50
83	18	46	41	47	49
84	27	74	66	65	76
85	14	3	4	5	6
86	14	27	28	29	54
87	27	87	86	88	89
88	27	30	29	54	56
89	15	86	88	91	110
89	16	86	88	91	110
89	17	86	88	91	110
90	5	13	10	9	15
90	6	13	10	9	15
91	15	93	107	105	110
91	16	93	107	105	110
91	17	93	107	105	110
92	18	94	93	91	110
93	7	9	10	11	27
93	8	9	10	11	27
94	35	101	100	99	103
95	15	63	64	65	66
95	16	63	64	65	66
95	17	63	64	65	66
96	18	64	63	62	82
97	11	2	1	3	26
97	12	2	1	3	26
98	18	46	41	47	52
99	27	53	52	54	55
100	18	91	110	105	106
101	18	36	34	52	53
102	27	18	7	6	21
103	15	36	38	41	47
103	16	36	38	41	47
103	17	36	38	41	47
104	18	93	91	110	111
105	18	102	99	98	105
106	14	10	9	8	16
107	28	100	99	98	104
107	29	100	99	98	104
108	15	64	65	66	67
108	16	64	65	66	67
108	17	64	65	66	67
109	14	68	67	66	73
110	15	36	49	47	52
110	16	36	49	47	52
110	17	36	49	47	52
111	18	38	41	47	48
112	18	54	29	28	58
113	27	74	66	65	75
114	18	92	91	93	95
115	27	94	93	107	108
116	15	38	36	49	47
116	16	38	36	49	47
116	17	38	36	49	47
117	18	64	65	66	74
118	14	43	42	41	47
119	18	45	42	41	47
120	35	101	100	99	102
121	15	34	31	29	54
121	16	34	31	29	54
121	17	34	31	29	54
122	15	85	86	88	91
122	16	85	86	88	91
122	17	85	86	88	91
123	18	90	88	91	110
124	19	10	11	27	28
125	27	92	91	93	94
126	27	17	8	7	19
127	14	68	67	66	74
128	15	6	7	8	9
128	16	6	7	8	9
128	17	6	7	8	9
129	18	4	5	6	21
130	18	65	66	67	72
131	22	43	84	85	115
132	18	105	110	112	113
133	18	104	98	105	107
134	18	34	52	54	55
135	18	28	29	31	32
136	18	63	64	65	76
137	18	91	93	107	108
138	18	93	107	105	106
139	15	107	105	110	112
139	16	107	105	110	112
139	17	107	105	110	112
140	27	46	41	47	48
141	18	96	95	98	105
142	18	98	105	110	111
143	5	5	4	3	26
143	6	5	4	3	26
144	27	87	86	88	90
145	22	43	84	85	116
146	18	47	52	54	56
147	27	111	110	112	113
148	15	28	29	31	34
148	16	28	29	31	34
148	17	28	29	31	34
149	27	53	52	54	56
150	18	66	65	64	78
151	18	67	66	65	76
152	15	41	47	52	54
152	16	41	47	52	54
152	17	41	47	52	54
153	18	31	29	28	58
154	27	87	86	112	114
155	27	22	5	4	24
156	22	43	84	85	86
157	15	29	31	34	52
157	16	29	31	34	52
157	17	29	31	34	52
158	15	34	52	47	49
158	16	34	52	47	49
158	17	34	52	47	49
159	18	63	64	65	75
160	18	97	95	93	107
161	27	48	47	49	51
162	15	49	47	52	54
162	16	49	47	52	54
162	17	49	47	52	54
163	27	76	65	64	78
164	11	60	59	61	83
164	12	60	59	61	83
165	15	88	86	112	110
165	16	88	86	112	110
165	17	88	86	112	110
166	27	16	8	7	19
167	18	112	86	85	116
168	27	97	95	98	104
169	27	48	47	52	53
170	18	8	7	6	21
171	27	22	5	4	25
172	22	41	42	43	84
173	18	98	105	107	109
174	15	38	41	47	49
174	16	38	41	47	49
174	17	38	41	47	49
175	27	15	9	8	16
176	15	91	110	105	98
176	16	91	110	105	98
176	17	91	110	105	98
177	27	17	8	7	18
178	27	37	36	49	50
179	15	85	86	112	110
179	16	85	86	112	110
179	17	85	86	112	110
180	18	62	63	64	78
181	15	36	34	52	47
181	16	36	34	52	47
181	17	36	34	52	47
182	27	87	86	85	116
183	18	94	93	95	98
184	5	82	62	61	83
184	6	82	62	61	83
185	31	69	68	67	72
186	15	42	41	47	49
186	16	42	41	47	49
186	17	42	41	47	49
187	15	36	38	41	42
187	16	36	38	41	42
187	17	36	38	41	42
188	15	88	91	110	105
188	16	88	91	110	105
188	17	88	91	110	105
189	18	34	36	38	40
190	15	86	112	110	91
190	16	86	112	110	91
190	17	86	112	110	91
191	27	15	9	8	17
192	15	38	41	47	52
192	16	38	41	47	52
192	17	38	41	47	52
193	18	107	105	110	111
194	18	5	6	7	19
195	27	94	93	95	96
196	27	40	38	41	46
197	28	43	42	41	46
197	29	43	42	41	46
198	27	45	42	41	46
199	27	32	31	34	35
200	18	89	88	86	112
201	18	86	112	110	111
202	27	30	29	28	57
203	15	95	98	105	107
203	16	95	98	105	107
203	17	95	98	105	107
204	27	19	7	6	20
205	7	1	59	61	83
205	8	1	59	61	83
206	18	39	38	41	47
207	5	11	10	9	14
207	6	11	10	9	14
208	18	88	86	85	115
209	18	38	36	49	50
210	18	28	29	54	55
211	5	59	61	62	82
211	6	59	61	62	82
212	27	79	63	62	81
213	15	88	91	93	107
213	16	88	91	93	107
213	17	88	91	93	107
214	27	30	29	31	33
215	27	75	65	64	78
216	27	77	64	63	79
217	15	34	52	47	41
217	16	34	52	47	41
217	17	34	52	47	41
218	7	26	3	1	59
218	8	26	3	1	59
219	14	3	4	5	23
220	15	93	95	98	99
220	16	93	95	98	99
220	17	93	95	98	99
221	15	31	34	36	38
221	16	31	34	36	38
221	17	31	34	36	38
222	27	89	88	91	92
223	14	38	41	42	43
224	18	89	88	91	93
225	22	45	42	43	84
226	18	34	52	47	48
227	27	16	8	7	18
228	14	84	85	86	88
229	9	2	1	3	4
229	10	2	1	3	4
230	27	14	9	8	16
231	15	31	34	36	49
231	16	31	34	36	49
231	17	31	34	36	49
232	18	95	98	99	103
233	18	105	110	112	114
234	27	77	64	63	80
235	15	31	34	52	47
235	16	31	34	52	47
235	17	31	34	52	47
236	14	100	99	98	105
237	18	35	34	52	47
238	14	7	8	9	10
239	15	99	98	105	107
239	16	99	98	105	107
239	17	99	98	105	107
240	14	95	98	99	100
241	27	14	9	8	17
242	18	64	63	62	81
243	27	106	105	110	111
244	27	35	34	36	37
245	7	13	10	11	27
245	8	13	10	11	27
246	18	88	86	112	113
247	18	5	6	7	18
248	5	24	4	3	26
248	6	24	4	3	26
249	18	42	41	47	48
250	27	48	47	49	50
251	27	72	67	66	73
252	27	92	91	110	111
253	27	111	110	112	114
254	15	93	91	110	105
254	16	93	91	110	105
254	17	93	91	110	105
255	22	11	27	28	58
256	15	34	36	38	41
256	16	34	36	38	41
256	17	34	36	38	41
257	18	41	47	49	51
258	13	2	1	59	60
259	18	85	86	112	113
260	15	91	93	95	98
260	16	91	93	95	98
260	17	91	93	95	98
261	27	80	63	62	82
262	15	88	91	110	112
262	16	88	91	110	112
262	17	88	91	110	112
263	18	95	98	99	102
264	18	54	29	28	57
265	18	9	8	7	19
266	18	31	34	36	37
267	18	91	93	95	96
268	27	72	67	66	74
269	15	36	34	52	54
269	16	36	34	52	54
269	17	36	34	52	54
270	5	11	10	9	15
270	6	11	10	9	15
271	27	37	36	38	40
272	15	91	110	105	107
272	16	91	110	105	107
272	17	91	110	105	107
273	18	34	36	49	51
274	13	3	1	59	60
275	18	95	93	107	109
276	27	18	7	6	20
277	22	11	27	28	57
278	18	31	34	52	53
279	27	35	34	52	53
280	27	33	31	34	35
281	18	98	105	107	108
282	27	106	105	107	109
283	27	103	99	98	104
284	18	85	86	88	89
285	15	107	93	91	110
285	16	107	93	91	110
285	17	107	93	91	110
286	18	7	8	9	14
287	27	39	38	41	46
288	15	49	36	34	52
288	16	49	36	34	52
288	17	49	36	34	52
289	18	31	29	54	55
290	15	95	93	107	105
290	16	95	93	107	105
290	17	95	93	107	105
291	27	71	67	66	73
292	18	39	38	41	42
293	18	40	38	36	49
294	20	11	27	28	29
294	21	11	27	28	29
295	5	13	10	9	14
295	6	13	10	9	14
296	18	96	95	98	99
297	18	65	64	63	79
298	7	4	3	1	59
298	8	4	3	1	59
299	18	89	88	91	110
300	13	2	1	59	61
301	18	65	66	67	71
302	18	94	93	107	105
303	15	31	29	54	52
303	16	31	29	54	52
303	17	31	29	54	52
304	18	97	95	98	105
305	18	4	5	6	20
306	27	73	66	65	76
307	18	36	38	41	46
308	18	104	98	105	110
309	18	31	29	28	57
310	27	71	67	66	74
311	18	91	110	112	113
312	18	67	66	65	75
313	18	6	7	8	16
314	18	90	88	86	112
315	32	67	68	69	70
316	1	59	61	62	63
316	2	59	61	62	63
316	3	59	61	62	63
316	4	59	61	62	63
317	15	4	5	6	7
317	16	4	5	6	7
317	17	4	5	6	7
318	13	3	1	59	61
319	7	9	10	11	12
319	8	9	10	11	12
320	18	34	52	54	56
321	15	93	91	110	112
321	16	93	91	110	112
321	17	93	91	110	112
322	18	65	64	63	80
323	18	38	41	42	44
324	15	91	93	107	105
324	16	91	93	107	105
324	17	91	93	107	105
325	18	87	86	88	91
326	18	35	34	36	38
327	23	12	11	10	13
327	24	12	11	10	13
328	18	44	42	41	47
329	18	6	7	8	17
330	15	42	41	47	52
330	16	42	41	47	52
330	17	42	41	47	52
331	18	93	95	98	104
332	14	65	66	67	68
333	15	88	91	93	95
333	16	88	91	93	95
333	17	88	91	93	95
334	18	6	5	4	24
335	18	37	36	38	41
336	18	35	34	36	49
337	15	62	63	64	65
337	16	62	63	64	65
337	17	62	63	64	65
338	18	97	95	98	99
339	18	85	86	88	90
340	18	32	31	29	54
341	28	27	28	29	30
341	29	27	28	29	30
342	18	88	86	85	116
343	15	86	112	110	105
343	16	86	112	110	105
343	17	86	112	110	105
344	18	88	91	93	94
345	18	7	8	9	15
346	18	48	47	52	54
347	15	95	93	91	110
347	16	95	93	91	110
347	17	95	93	91	110
348	14	84	85	86	112
349	27	21	6	5	22
350	18	88	86	112	114
351	15	98	95	93	107
351	16	98	95	93	107
351	17	98	95	93	107
352	15	93	107	105	98
352	16	93	107	105	98
352	17	93	107	105	98
353	18	31	29	54	56
354	15	28	29	54	52
354	16	28	29	54	52
354	17	28	29	54	52
355	18	37	36	34	52
356	18	8	7	6	20
357	27	23	5	4	24
358	18	85	86	112	114
359	27	104	98	105	106
360	15	98	105	110	112
360	16	98	105	110	112
360	17	98	105	110	112
361	31	69	68	67	71
362	18	47	52	54	55
363	5	59	61	62	81
363	6	59	61	62	81
364	18	37	36	49	47
365	18	32	31	34	36
366	18	51	49	47	52
367	27	21	6	5	23
368	1	1	3	4	5
368	2	1	3	4	5
368	3	1	3	4	5
368	4	1	3	4	5
369	9	60	59	61	62
369	10	60	59	61	62
370	18	34	36	38	39
371	33	98	99	100	101
371	34	98	99	100	101
372	1	8	9	10	11
372	2	8	9	10	11
372	3	8	9	10	11
372	4	8	9	10	11
373	27	23	5	4	25
374	18	64	65	66	73
375	18	32	31	34	52
376	27	78	64	63	79
377	5	63	62	61	83
377	6	63	62	61	83
378	27	102	99	98	104
379	18	50	49	47	52
380	18	95	93	107	108
381	27	37	36	49	51
382	15	95	98	105	110
382	16	95	98	105	110
382	17	95	98	105	110
383	15	29	54	52	47
383	16	29	54	52	47
383	17	29	54	52	47
384	14	61	62	63	64
385	27	106	105	107	108
386	15	29	54	52	34
386	16	29	54	52	34
386	17	29	54	52	34
387	5	81	62	61	83
387	6	81	62	61	83
388	18	39	38	36	49
389	18	66	65	64	77
390	27	94	93	95	97
391	18	87	86	112	110
392	15	34	36	49	47
392	16	34	36	49	47
392	17	34	36	49	47
393	18	38	41	42	45
394	14	27	28	29	31
395	18	92	91	93	107

Impropers

42	1	10	13	9	11
216	1	61	59	62	83
262	2	59	60	61	1
286	3	11	10	12	27
472	2	1	3	59	2
483	3	11	12	27	10
493	1	3	26	1	4
509	2	59	61	1	60
516	1	61	83	59	62
518	2	1	59	2	3
535	1	10	11	13	9
564	1	3	1	4	26
603	1	3	4	26	1
604	1	61	62	83	59
671	1	10	9	11	13
679	3	11	27	10	12
730	2	59	1	60	61
844	2	1	2	3	59
