Title

16625 atoms
17750 bonds
30375 angles
48625 dihedrals
21000 impropers

10 atom types
14 bond types
9 angle types
20 dihedral types
3 improper types
-16.32899508 164.5607515 xlo xhi
-15.49804818 164.3210662 ylo yhi
-16.76936884 164.2497961 zlo zhi
0.0 0.0 0.0 xy xz yz

Masses

1	14.00672
2	12.01078
3	1.007947
4	15.99943
5	1.007947
6	15.99943
7	12.01078
8	1.007947
9	15.99943
10	1.007947


Pair Coeffs

1	0.16769152	3.206876
2	0.086879315	3.4806469
3	0.015611343	2.5725815
4	0.16846514	3.0251065
5	0.014090815	1.1034277
6	0.2102061	3.0398122
7	0.10884061	3.3795318
8	0.015779483	2.6445434
9	0.20947353	2.99716
10	1.2326e-05	0.53453923

Bond Coeffs

1 harmonic	390.03554688505	1.390160554689
2 harmonic	505.144496193	1.019481865027
3 harmonic	422.7150220147	1.421786517481
4 harmonic	360.7852444772	1.387193227181
5 harmonic	397.2545789619	1.085358495916
6 harmonic	425.69104206635	1.362945806494
7 harmonic	492.76746816345	1.381897776683
8 harmonic	582.698766451	1.225198386222
9 harmonic	279.1350963404	1.454628925034
10 harmonic	289.73813263395	1.498646816465
11 harmonic	264.62148576755	1.52190126495
12 harmonic	370.04670688625	1.093899492634
13 harmonic	385.7604595587	1.369745182308
14 harmonic	543.5267831885	0.9716763312559


Angle Coeffs

1 harmonic	57.8982893754	126.8062420451
2 harmonic	55.42182150775	117.3465570514
3 harmonic	63.44422595415	115.5071327674
4 harmonic	34.066775159195	129.1835929926
5 harmonic	65.09061609600001	110.3538806181
6 harmonic	53.20531626545	116.5475862634
7 harmonic	14.32262199324	138.3184368373
8 harmonic	48.776492647595	115.6030999533
9 harmonic	201.41175231035	127.4691416191


Dihedral Coeffs

1 fourier 1	3.661930099076	2	180
2 fourier 1	1.193093382682	2	180
3 fourier 1	0.02021088501612	1	0
4 fourier 1	1.532232714475	2	180
5 fourier 1	3.101948770557	2	180
6 fourier 1	-0.4252153282372	1	0
7 fourier 1	1.809047390003	2	180
8 fourier 1	-0.04816277792592	1	0
9 fourier 1	0.9974165607242	2	180
10 fourier 1	2.348375642009	2	180
11 fourier 1	1.256156174911	1	0
12 fourier 1	0.02664938770063	3	0
13 fourier 1	0.1155372516788	3	0
14 fourier 1	0.09223874044423	3	0
15 fourier 1	0.3159935921949	2	180
16 fourier 1	0.3247796806857	1	180
17 fourier 1	0.1040663847541	3	0
18 fourier 1	2.687457892086	2	180
19 fourier 1	2.772607909663	2	180
20 fourier 1	0.09692684957115	1	0


Improper Coeffs

1 0.3666666666666667	-1	2
2 0.3333333333333333	-1	2
3 3.5	-1	2


Atoms

1	4	1	-0.41109383	-11.287897	-1.5362772	-5.1547796
2	4	2	0.10252366	-9.9855307	-1.5523335	-4.5658331
3	4	2	-0.3858214	-9.0272662	-0.72210109	-5.0064568
4	4	3	0.22620514	-9.2275748	-0.028834898	-5.8141154
5	4	2	-0.22328621	-7.6830362	-0.74321795	-4.3923748
6	4	3	0.22721006	-6.9202935	-0.068960309	-4.7617448
7	4	2	0.18415286	-7.4113194	-1.5771493	-3.3796792
8	4	4	-0.26682103	-6.1222323	-1.5754177	-2.827178
9	4	2	0.18415283	-5.8017096	-1.9413529	-1.5115194
10	4	2	-0.24459431	-6.6294959	-1.6953179	-0.4783386
11	4	3	0.22721007	-7.5758466	-1.194314	-0.63352024
12	4	2	-0.3567909	-6.2421004	-2.0797011	0.89477185
13	4	3	0.22224744	-6.9260415	-1.8825303	1.7105226
14	4	2	0.16737337	-5.0546357	-2.660695	1.124597
15	4	1	-0.53135014	-4.6726453	-3.0342706	2.4507608
16	4	5	0.3204104	-5.3079342	-2.8642119	3.2632102
17	4	2	-0.35679096	-4.1326131	-2.9103496	-0.008260485
18	4	3	0.22224745	-3.1694243	-3.3712965	0.16939148
19	4	2	-0.24459431	-4.485924	-2.5657057	-1.2530275
20	4	3	0.22721013	-3.8071704	-2.7492478	-2.0760134
21	4	2	-0.22328617	-8.4664768	-2.5128177	-2.906482
22	4	3	0.22721004	-8.2534134	-3.2285627	-2.1233593
23	4	2	-0.3858214	-9.6823005	-2.49614	-3.4649481
24	4	3	0.22620512	-10.44357	-3.1829791	-3.1171545
25	4	5	0.37393245	-12.031352	-2.1841786	-4.8115118
26	5	2	0.76893908	-3.730352	-3.4922706	2.6324981
27	5	6	-0.65490103	-3.5156304	-4.6450613	2.1703259
28	5	2	-0.37001106	-2.6979516	-2.785114	3.4100917
29	5	2	-0.077747339	-2.943165	-1.5592937	3.896655
30	5	3	0.22550948	-3.8980602	-1.0777513	3.7260059
31	5	2	-0.24810839	-1.9152808	-0.84181915	4.6789544
32	5	3	0.21575437	-2.180039	0.13212224	5.0619417
33	5	2	-0.2086615	-0.69971328	-1.3904185	4.8957478
34	5	7	0.025328013	0.38908017	-0.70127602	5.7363598
35	5	7	-0.13125026	0.16726936	0.81875573	5.9296793
36	5	8	0.088435939	-0.72286786	1.0140352	6.5637997
37	5	8	0.088435939	1.0417135	1.2804412	6.4374735
38	5	8	0.088435939	0.03054724	1.3238303	4.9490246
39	5	2	-0.12382373	1.7338638	-0.8948562	5.1081386
40	5	2	-0.15098296	2.1087262	-0.54127956	3.8700531
41	5	3	0.21518755	1.4086753	-0.07203192	3.1908401
42	5	2	0.00095412064	3.5023386	-0.80423693	3.4410217
43	5	3	0.21576966	3.8014701	-0.52318446	2.4382362
44	5	2	-0.34498066	4.381256	-1.3791201	4.2893322
45	5	2	0.58656919	5.7658471	-1.6326776	3.8546209
46	5	6	-0.51094908	6.5981907	-2.1682172	4.6333831
47	5	2	0.072209186	3.9377899	-1.7498322	5.6627762
48	5	3	0.20964916	4.6298665	-2.1997834	6.3619406
49	5	2	-0.18015486	2.6664937	-1.5148962	6.0226444
50	5	7	-0.026883702	2.0284545	-1.7912337	7.3466843
51	5	7	-0.13083482	2.6675357	-0.90885303	8.4349005
52	5	8	0.092652871	3.7436594	-1.1560051	8.5598791
53	5	8	0.092652871	2.584333	0.16684226	8.1655162
54	5	8	0.092652871	2.1576516	-1.0680931	9.4088583
55	5	7	-0.13083482	2.1644958	-3.280291	7.7199096
56	5	8	0.092652871	3.2292277	-3.5536919	7.8804582
57	5	8	0.092652871	1.7557944	-3.9243833	6.9106716
58	5	8	0.092652871	1.6058137	-3.4934178	8.65596
59	5	7	-0.18082149	0.53054123	-1.4040667	7.1259594
60	5	8	0.13094517	0.15400102	-0.75735523	7.9504196
61	5	8	0.13094517	-0.11093232	-2.3134918	7.1651232
62	5	2	-0.24810839	-0.4494982	-2.7653633	4.3741722
63	5	3	0.21575437	0.49709219	-3.2563296	4.5649515
64	5	2	-0.077747287	-1.3835607	-3.4163535	3.6727821
65	5	3	0.22550945	-1.1729296	-4.4133572	3.3052021
66	1	1	-0.4110938	-11.51998	-0.87975279	-5.9329864
67	1	2	0.10252368	-11.565736	0.53405997	-5.7198904
68	1	2	-0.38582134	-11.314016	1.0481511	-4.5053298
69	1	3	0.22620514	-11.072093	0.40028085	-3.672266
70	1	2	-0.22328623	-11.361368	2.509655	-4.2912315
71	1	3	0.22721006	-11.15722	2.9088727	-3.3056624
72	1	2	0.18415286	-11.639397	3.3369052	-5.3093608
73	1	4	-0.26682103	-11.68335	4.7172127	-5.0665471
74	1	2	0.18415283	-11.434071	5.7176075	-6.017321
75	1	2	-0.1689243	-10.525856	5.5599557	-7.0002857
76	1	3	0.22721007	-9.9499116	4.6484104	-7.0818165
77	1	2	-0.4353931	-10.279066	6.6484668	-7.9683607
78	1	3	0.23502752	-9.5529617	6.4986095	-8.7572842
79	1	2	0.28302553	-10.946084	7.8091049	-7.8648189
80	1	1	-0.84382206	-10.710975	8.8673267	-8.7980929
81	1	5	0.3680425	-11.22923	9.7701352	-8.7157791
82	1	5	0.3680425	-10.021295	8.7570254	-9.5756763
83	1	2	-0.43539313	-11.927122	7.9929364	-6.7709291
84	1	3	0.23502752	-12.46281	8.9286599	-6.6742381
85	1	2	-0.16892429	-12.153371	7.0048943	-5.8963263
86	1	3	0.22721013	-12.870212	7.1452709	-5.0974879
87	1	2	-0.22328614	-11.940286	2.7653643	-6.6482995
88	1	3	0.22721004	-12.216772	3.4122349	-7.4709043
89	1	2	-0.3858214	-11.900822	1.4414091	-6.840901
90	1	3	0.22620514	-12.125685	1.0327309	-7.8183818
91	1	5	0.37393245	-11.718574	-1.2784673	-6.877777
92	2	2	0.59207117	6.0822104	-1.359908	2.8563584
93	2	6	-0.52143991	5.2800824	-1.5167051	1.8975882
94	2	2	-0.33351037	7.4356339	-0.81414807	2.6420062
95	2	2	0.0062336444	7.866827	-0.46083772	1.4205279
96	2	3	0.22338898	7.2299532	-0.56529051	0.55106115
97	2	2	-0.24144063	9.2271057	0.084133899	1.2376461
98	2	3	0.21575437	9.52923	0.37370445	0.23839396
99	2	2	-0.2086615	10.072491	0.22286554	2.2828538
100	2	7	0.025328013	11.4741	0.81877278	2.0638692
101	2	7	-0.13125026	12.400825	0.67571433	3.2924319
102	2	8	0.088435939	12.472794	-0.38621964	3.6094757
103	2	8	0.088435939	12.025637	1.284934	4.1430176
104	2	8	0.088435939	13.425446	1.0353189	3.0550821
105	2	2	-0.12382373	12.150042	0.1697761	0.89425071
106	2	2	-0.17032561	12.39936	-1.1358682	0.72541248
107	2	3	0.21518755	12.094982	-1.8606623	1.4699602
108	2	2	-0.060065517	13.101512	-1.5789826	-0.50198629
109	2	3	0.23214804	13.293368	-2.6365103	-0.6316286
110	2	2	-0.22677818	13.492942	-0.6776881	-1.4316165
111	2	2	0.83597511	14.197616	-1.1039174	-2.6602538
112	2	6	-0.47701484	14.449685	-2.3215658	-2.8672386
113	2	9	-0.66376442	14.589961	-0.15649909	-3.6010981
114	2	10	0.41897419	15.073496	-0.43386873	-4.4480019
115	2	2	0.0067070897	13.208559	0.76774085	-1.2063896
116	2	3	0.22491759	13.522064	1.5097658	-1.9291701
117	2	2	-0.17436688	12.55935	1.142162	-0.093132551
118	2	7	-0.026883702	12.194596	2.5308061	0.32545686
119	2	7	-0.13083482	11.336269	3.2202457	-0.7527793
120	2	8	0.092652871	11.918981	3.3720394	-1.6864172
121	2	8	0.092652871	10.443176	2.6032281	-0.99399294
122	2	8	0.092652871	10.992383	4.2133403	-0.39252644
123	2	7	-0.13083482	13.470015	3.3519271	0.5961579
124	2	8	0.092652871	14.100755	2.8536262	1.36308
125	2	8	0.092652871	14.069887	3.4645947	-0.33212518
126	2	8	0.092652871	13.204526	4.3662396	0.96366508
127	2	7	-0.18082149	11.378066	2.3231525	1.6418937
128	2	8	0.13094517	11.738656	2.9973276	2.4516253
129	2	8	0.13094517	10.315355	2.6155779	1.48726
130	2	2	-0.24144061	9.5739809	-0.15714136	3.638726
131	2	3	0.21575437	10.19406	-0.048688802	4.5156055
132	2	2	0.0062335881	8.3387229	-0.64671014	3.802054
133	2	3	0.22338901	8.000431	-0.91828865	4.7945099
134	4	1	-0.41109383	2.7710041	-12.00369	36.637737
135	4	2	0.10252366	2.6433385	-10.599462	36.402968
136	4	2	-0.3858214	1.8364045	-10.14045	35.433498
137	4	3	0.22620514	1.271124	-10.827541	34.815907
138	4	2	-0.22328621	1.7082789	-8.6871735	35.196712
139	4	3	0.22721006	1.0552713	-8.333543	34.408448
140	4	2	0.18415286	2.3811212	-7.8126877	35.956568
141	4	4	-0.26682103	2.2415031	-6.4414178	35.697471
142	4	2	0.18415283	2.4073616	-5.4155616	36.639655
143	4	2	-0.24459431	2.0618033	-5.5681156	37.93215
144	4	3	0.22721007	1.6329685	-6.4965718	38.285329
145	4	2	-0.3567909	2.2348036	-4.4532759	38.886331
146	4	3	0.22224744	1.960545	-4.5992699	39.923427
147	4	2	0.16737337	2.7209252	-3.2746575	38.468012
148	4	1	-0.53135014	2.8899433	-2.1911542	39.385421
149	4	5	0.3204104	2.6406218	-2.2954078	40.395152
150	4	2	-0.35679096	3.0792277	-3.0977859	37.041073
151	4	3	0.22224745	3.464535	-2.147749	36.693606
152	4	2	-0.24459431	2.9262705	-4.1097444	36.177593
153	4	3	0.22721013	3.1882891	-3.9735837	35.136197
154	4	2	-0.22328617	3.2925523	-8.3221481	37.016045
155	4	3	0.22721004	3.88283	-7.6352352	37.608237
156	4	2	-0.3858214	3.4112533	-9.6379802	37.227908
157	4	3	0.22620512	4.079602	-10.00069	37.998617
158	4	5	0.37393245	3.4005949	-12.358597	37.391389
159	5	2	0.76893908	3.2727788	-1.2565805	39.052678
160	5	6	-0.65490103	4.4664639	-1.1964726	38.652505
161	5	2	-0.37001106	2.4166677	-0.057585623	39.060297
162	5	2	-0.077747339	1.1488461	-0.13818819	39.491157
163	5	3	0.22550948	0.74180154	-1.079912	39.838
164	5	2	-0.24810839	0.28209766	1.0584251	39.50427
165	5	3	0.21575437	-0.72135731	0.93436326	39.882456
166	5	2	-0.2086615	0.73660872	2.249511	39.056722
167	5	7	0.025328013	-0.11305044	3.5317732	39.086723
168	5	7	-0.13125026	-1.632785	3.2765813	39.236232
169	5	8	0.088435939	-1.8703012	2.8605924	40.237794
170	5	8	0.088435939	-2.2013743	4.2258362	39.130014
171	5	8	0.088435939	-1.9911677	2.5698123	38.456799
172	5	2	-0.12382373	0.10010935	4.3282491	37.837417
173	5	2	-0.15098296	-0.097622433	3.9234591	36.574309
174	5	3	0.21518755	-0.43488502	2.9174871	36.360138
175	5	2	0.00095412064	0.15445969	4.8771215	35.468708
176	5	3	0.21576966	-0.00020736184	4.5461546	34.448616
177	5	2	-0.34498066	0.56439755	6.136046	35.732673
178	5	2	0.58656919	0.80839421	7.078031	34.626559
179	5	6	-0.51094908	1.1912029	8.255805	34.855414
180	5	2	0.072209186	0.76378401	6.5596617	37.147322
181	5	3	0.20964916	1.079598	7.5676504	37.380725
182	5	2	-0.18015486	0.54304503	5.6730978	38.130263
183	5	7	-0.026883702	0.66520732	5.897282	39.603815
184	5	7	-0.13083482	-0.38802389	6.9187324	40.071338
185	5	8	0.092652871	-0.21242825	7.9090016	39.598814
186	5	8	0.092652871	-1.4112478	6.5779363	39.800263
187	5	8	0.092652871	-0.33977555	7.0448679	41.173924
188	5	7	-0.13083482	2.0805819	6.3865376	39.967738
189	5	8	0.092652871	2.2778076	7.3897875	39.533262
190	5	8	0.092652871	2.8486536	5.6807943	39.582056
191	5	8	0.092652871	2.1896981	6.457747	41.070807
192	5	7	-0.18082149	0.38452768	4.4883736	40.219086
193	5	8	0.13094517	-0.35046325	4.5501685	41.053186
194	5	8	0.13094517	1.3097342	4.0827003	40.687592
195	5	2	-0.24810839	2.1565365	2.332487	38.607231
196	5	3	0.21575437	2.5705381	3.2793841	38.282475
197	5	2	-0.077747287	2.9418801	1.2501621	38.603087
198	5	3	0.22550945	3.968638	1.3403616	38.269726
199	1	1	-0.4110938	2.2395555	-12.696841	36.065376
200	1	2	0.10252368	0.81372458	-12.782753	36.142804
201	1	2	-0.38582134	0.12612973	-11.971281	36.962277
202	1	3	0.22620514	0.64100604	-11.241058	37.57378
203	1	2	-0.22328623	-1.3469453	-12.063508	37.037231
204	1	3	0.22721006	-1.8871404	-11.403039	37.703841
205	1	2	0.18415286	-2.0121275	-12.945421	36.276973
206	1	4	-0.26682103	-3.4089798	-13.009746	36.38092
207	1	2	0.18415283	-4.2800756	-13.43724	35.368329
208	1	2	-0.1689243	-4.0327264	-13.200793	34.064934
209	1	3	0.22721007	-3.1473867	-12.661264	33.757758
210	1	2	-0.4353931	-4.9885031	-13.650013	33.031675
211	1	3	0.23502752	-4.7667676	-13.459879	31.989194
212	1	2	0.28302553	-6.1189265	-14.282066	33.385745
213	1	1	-0.84382206	-7.0489562	-14.718497	32.390415
214	1	5	0.3680425	-7.928534	-15.208688	32.66697
215	1	5	0.3680425	-6.8661618	-14.557013	31.374063
216	1	2	-0.43539313	-6.4039149	-14.52154	34.819014
217	1	3	0.23502752	-7.3171941	-15.022187	35.114248
218	1	2	-0.16892429	-5.5356823	-14.117886	35.754739
219	1	3	0.22721013	-5.7498458	-14.293823	36.801109
220	1	2	-0.22328614	-1.2482412	-13.858856	35.386994
221	1	3	0.22721004	-1.7619034	-14.611956	34.803422
222	1	2	-0.3858214	0.086175996	-13.777424	35.322114
223	1	3	0.22620514	0.63561572	-14.449583	34.674527
224	1	5	0.37393245	2.7733829	-13.330525	35.42936
225	2	2	0.59207117	0.66047163	6.7647981	33.601366
226	2	6	-0.52143991	0.98590403	5.5943325	33.26769
227	2	2	-0.33351037	0.08488768	7.7082657	32.624571
228	2	2	0.0062336444	-0.11757141	7.3593287	31.343939
229	2	3	0.22338898	0.13585707	6.3686755	30.987749
230	2	2	-0.24144063	-0.69702896	8.3257363	30.389432
231	2	3	0.21575437	-0.86075277	7.9981919	29.369852
232	2	2	-0.2086615	-1.0185447	9.5813369	30.772155
233	2	7	0.025328013	-1.6454226	10.556464	29.760366
234	2	7	-0.13125026	-1.7172535	12.012265	30.274306
235	2	8	0.088435939	-0.71365223	12.36812	30.589825
236	2	8	0.088435939	-2.4188065	12.093777	31.132555
237	2	8	0.088435939	-2.0896926	12.691815	29.477438
238	2	2	-0.12382373	-0.87514658	10.555338	28.474763
239	2	2	-0.17032561	0.42779763	10.821831	28.311389
240	2	3	0.21518755	1.0572126	11.05916	29.15982
241	2	2	-0.060065517	1.0010626	10.787069	26.945361
242	2	3	0.23214804	2.0559113	10.998424	26.824514
243	2	2	-0.22677818	0.21827025	10.500625	25.880021
244	2	2	0.83597511	0.7748789	10.465321	24.510085
245	2	6	-0.47701484	1.9958734	10.703087	24.305907
246	2	9	-0.66376442	-0.052049257	10.168169	23.430912
247	2	10	0.41897419	0.31547204	10.140101	22.486387
248	2	2	0.0067070897	-1.2290309	10.219536	26.097219
249	2	3	0.22491759	-1.8789226	9.9996516	25.260207
250	2	2	-0.17436688	-1.7211979	10.244	27.345489
251	2	7	-0.026883702	-3.1350208	10.008192	27.772214
252	2	7	-0.13083482	-3.6276946	8.6277163	27.296607
253	2	8	0.092652871	-3.6776181	8.5848915	26.187577
254	2	8	0.092652871	-2.9411577	7.8263417	27.647286
255	2	8	0.092652871	-4.6431698	8.4233411	27.698251
256	2	7	-0.13083482	-4.0459251	11.119377	27.215677
257	2	8	0.092652871	-3.6886362	12.118994	27.543424
258	2	8	0.092652871	-4.0587003	11.09826	26.104983
259	2	8	0.092652871	-5.0871592	10.981584	27.577921
260	2	7	-0.18082149	-3.0711824	10.072069	29.332564
261	2	8	0.13094517	-3.8667705	10.734645	29.742728
262	2	8	0.13094517	-3.2881398	9.0715132	29.769138
263	2	2	-0.24144061	-0.80490101	9.9507516	32.203656
264	2	3	0.21575437	-1.0624975	10.931038	32.574952
265	2	2	0.0062335881	-0.283582	9.071051	33.067699
266	2	3	0.22338901	-0.13498546	9.3627739	34.100163
267	4	1	-0.41109383	2.7235956	10.779575	74.715731
268	4	2	0.10252366	2.6013596	9.5294729	74.033399
269	4	2	-0.3858214	1.8025472	8.5644314	74.515374
270	4	3	0.22620514	1.2398172	8.7195861	75.427688
271	4	2	-0.22328621	1.6799969	7.2745106	73.804331
272	4	3	0.22721006	1.0335403	6.5052694	74.208306
273	4	2	0.18415286	2.3497797	7.0605692	72.663961
274	4	4	-0.26682103	2.2156758	5.8212799	72.021166
275	4	2	0.18415283	2.3776032	5.5976431	70.645897
276	4	2	-0.24459431	2.022489	6.513757	69.725106
277	4	3	0.22721007	1.5886765	7.4592572	70.022599
278	4	2	-0.3567909	2.1917115	6.2276023	68.285406
279	4	3	0.22224744	1.909722	6.9812572	67.561122
280	4	2	0.16737337	2.683941	5.0455144	67.884377
281	4	1	-0.53135014	2.8493579	4.7612616	66.492966
282	4	5	0.3204104	2.5926105	5.4653503	65.764319
283	4	2	-0.35679096	3.0528166	4.0273125	68.895818
284	4	3	0.22224745	3.4431204	3.0680885	68.580672
285	4	2	-0.24459431	2.9032697	4.2887209	70.200561
286	4	3	0.22721013	3.1730238	3.5400632	70.934349
287	4	2	-0.22328617	3.2523135	8.1215583	72.141962
288	4	3	0.22721004	3.8402193	7.9510162	71.249633
289	4	2	-0.3858214	3.3659842	9.2879394	72.787736
290	4	3	0.22620512	4.0278815	10.053576	72.403115
291	4	5	0.37393245	3.3468778	11.528287	74.339854
292	5	2	0.76893908	3.2370441	3.8232763	66.175803
293	5	6	-0.65490103	4.4336912	3.5365571	66.448682
294	5	2	-0.37001106	2.3841164	2.8795692	65.432497
295	5	2	-0.077747339	1.1130626	3.2008805	65.148437
296	5	3	0.22550948	0.70104904	4.153041	65.459024
297	5	2	-0.24810839	0.24945255	2.2623705	64.402324
298	5	3	0.21575437	-0.75698542	2.5870339	64.185496
299	5	2	-0.2086615	0.71031292	1.0522183	64.016702
300	5	7	0.025328013	-0.13609852	0.056898957	63.204332
301	5	7	-0.13125026	-1.6575325	0.34007617	63.250356
302	5	8	0.088435939	-1.9032524	1.2843373	62.720658
303	5	8	0.088435939	-2.2228094	-0.47569592	62.749718
304	5	8	0.088435939	-2.0122767	0.41207485	64.301284
305	5	2	-0.12382373	0.088040393	-1.3397614	63.693903
306	5	2	-0.15098296	-0.10182157	-1.8029622	64.938006
307	5	3	0.21518755	-0.4402527	-1.1463707	65.729174
308	5	2	0.00095412064	0.16064163	-3.2342092	65.217317
309	5	3	0.21576966	0.012319267	-3.60507	66.224547
310	5	2	-0.34498066	0.57207097	-4.0584878	64.23045
311	5	2	0.58656919	0.82642128	-5.4809216	64.51741
312	5	6	-0.51094908	1.2107536	-6.263248	63.608387
313	5	2	0.072209186	0.76256437	-3.5164714	62.855543
314	5	3	0.20964916	1.0794166	-4.1629077	62.048089
315	5	2	-0.18015486	0.53249224	-2.2135543	62.631115
316	5	7	-0.026883702	0.64481198	-1.4788252	61.333388
317	5	7	-0.13083482	-0.40896427	-2.0001052	60.338875
318	5	8	0.092652871	-0.22737246	-3.0695762	60.098038
319	5	8	0.092652871	-1.4311515	-1.9061913	60.766571
320	5	8	0.092652871	-0.36819086	-1.4179024	59.393724
321	5	7	-0.13083482	2.0588786	-1.6295887	60.739434
322	5	8	0.092652871	2.2618651	-2.6856245	60.460574
323	5	8	0.092652871	2.8277697	-1.3078679	61.475681
324	5	8	0.092652871	2.1603676	-1.0034998	59.827594
325	5	7	-0.18082149	0.35600609	0.0073493075	61.720995
326	5	8	0.13094517	-0.38470756	0.46922315	61.029786
327	5	8	0.13094517	1.2767798	0.62176231	61.599552
328	5	2	-0.24810839	2.1336068	0.71851827	64.313351
329	5	3	0.21575437	2.5524347	-0.22402198	63.982173
330	5	2	-0.077747287	2.9160572	1.5721667	64.98213
331	5	3	0.22550945	3.945389	1.3019721	65.184535
332	1	1	-0.4110938	2.1943599	10.967653	75.596089
333	1	2	0.10252368	0.76779109	11.073796	75.593856
334	1	2	-0.38582134	0.076584591	10.937412	74.450859
335	1	3	0.22620514	0.58907046	10.744252	73.516886
336	1	2	-0.22328623	-1.3972263	11.046687	74.454658
337	1	3	0.22721006	-1.9403589	10.935579	73.524572
338	1	2	0.18415286	-2.0593664	11.26627	75.599902
339	1	4	-0.26682103	-3.4570874	11.372007	75.563367
340	1	2	0.18415283	-4.3221298	11.077041	76.627133
341	1	2	-0.1689243	-4.0649198	10.087585	77.505056
342	1	3	0.22721007	-3.1759836	9.479306	77.409855
343	1	2	-0.4353931	-5.0145524	9.7963892	78.598826
344	1	3	0.23502752	-4.7849281	9.0043568	79.300284
345	1	2	0.28302553	-6.1491455	10.504806	78.715267
346	1	1	-0.84382206	-7.0732664	10.227148	79.77121
347	1	5	0.3680425	-7.9560917	10.777751	79.85999
348	1	5	0.3680425	-6.8828439	9.4735331	80.46997
349	1	2	-0.43539313	-6.4449218	11.576622	77.737232
350	1	3	0.23502752	-7.361608	12.146767	77.817914
351	1	2	-0.16892429	-5.5822619	11.842835	76.74865
352	1	3	0.22721013	-5.8043039	12.626154	76.035336
353	1	2	-0.22328614	-1.2916443	11.439777	76.861032
354	1	3	0.22721004	-1.8031753	11.668189	77.787169
355	1	2	-0.3858214	0.043412482	11.344316	76.856522
356	1	3	0.22620514	0.59562334	11.476427	77.778834
357	1	5	0.37393245	2.73098	11.076554	76.485595
358	2	2	0.59207117	0.68492685	-5.8688351	65.51767
359	2	6	-0.52143991	1.0095776	-5.152412	66.501831
360	2	2	-0.33351037	0.11880785	-7.2178667	65.70523
361	2	2	0.0062336444	-0.075507467	-7.7358445	66.92863
362	2	3	0.22338898	0.17778274	-7.1751965	67.819701
363	2	2	-0.24144063	-0.6455964	-9.0891732	67.084508
364	2	3	0.21575437	-0.80296972	-9.4624679	68.089257
365	2	2	-0.2086615	-0.96644992	-9.8422217	66.00917
366	2	7	0.025328013	-1.5835286	-11.238099	66.204893
367	2	7	-0.13125026	-1.6550978	-12.065907	64.901719
368	2	8	0.088435939	-0.65280711	-12.144337	64.429848
369	2	8	0.088435939	-2.3624927	-11.604405	64.17921
370	2	8	0.088435939	-2.0200596	-13.09494	65.110028
371	2	2	-0.12382373	-0.8041696	-12.026352	67.213535
372	2	2	-0.17032561	0.50060878	-12.328386	67.172282
373	2	3	0.21518755	1.1246307	-11.986849	66.356026
374	2	2	-0.060065517	1.0834421	-13.141144	68.265718
375	2	3	0.23214804	2.1396831	-13.375159	68.226055
376	2	2	-0.22677818	0.30745236	-13.579039	69.283485
377	2	2	0.83597511	0.8736561	-14.393894	70.380395
378	2	6	-0.47701484	2.0966992	-14.699075	70.389296
379	2	9	-0.66376442	0.053601109	-14.8322	71.415828
380	2	10	0.41897419	0.42772837	-15.391189	72.174476
381	2	2	0.0067070897	-1.1420992	-13.233216	69.291994
382	2	3	0.22491759	-1.7866315	-13.581549	70.088575
383	2	2	-0.17436688	-1.6430303	-12.484573	68.297204
384	2	7	-0.026883702	-3.0604677	-12.044713	68.112844
385	2	7	-0.13083482	-3.5534569	-11.25612	69.341553
386	2	8	0.092652871	-3.5956365	-11.907828	70.240314
387	2	8	0.092652871	-2.8715715	-10.404867	69.558141
388	2	8	0.092652871	-4.5722961	-10.853887	69.155939
389	2	7	-0.13083482	-3.9644255	-13.26821	67.867633
390	2	8	0.092652871	-3.6067903	-13.849516	66.991
391	2	8	0.092652871	-3.9693878	-13.937775	68.754147
392	2	8	0.092652871	-5.0085653	-12.942841	67.671973
393	2	7	-0.18082149	-3.0075147	-11.130683	66.846118
394	2	8	0.13094517	-3.8042104	-11.403513	66.117392
395	2	8	0.13094517	-3.2302399	-10.075598	67.121741
396	2	2	-0.24144061	-0.76196436	-9.2470808	64.654437
397	2	3	0.21575437	-1.0195572	-9.7902733	63.757907
398	2	2	0.0062335881	-0.24913904	-8.0181945	64.516363
399	2	3	0.22338901	-0.10707983	-7.6088703	63.523671
400	4	1	-0.41109383	-2.1652854	-4.9578202	92.218925
401	4	2	0.10252366	-1.9980121	-4.5503556	93.578802
402	4	2	-0.3858214	-0.83563478	-4.0238327	93.995165
403	4	3	0.22620514	-0.0086702076	-3.900562	93.306697
404	4	2	-0.22328621	-0.66971793	-3.6036832	95.402447
405	4	3	0.22721006	0.27562514	-3.1835475	95.722832
406	4	2	0.18415286	-1.6809505	-3.7271728	96.272495
407	4	4	-0.26682103	-1.4844474	-3.3257384	97.601872
408	4	2	0.18415283	-2.4909979	-2.8896303	98.476095
409	4	2	-0.24459431	-3.555184	-2.1846057	98.047523
410	4	3	0.22721007	-3.6628519	-1.923469	97.00307
411	4	2	-0.3567909	-4.5816397	-1.7274591	99.007035
412	4	3	0.22224744	-5.4350061	-1.1707013	98.641129
413	4	2	0.16737337	-4.4516437	-1.9962062	100.31521
414	4	1	-0.53135014	-5.4403245	-1.5560373	101.24953
415	4	5	0.3204104	-6.2802393	-1.0199835	100.93365
416	4	2	-0.35679096	-3.2689032	-2.7513502	100.79134
417	4	3	0.22224745	-3.1521944	-2.9655048	101.84599
418	4	2	-0.24459431	-2.3411145	-3.1691128	99.920862
419	4	3	0.22721013	-1.4786183	-3.718833	100.27527
420	4	2	-0.22328617	-2.9614681	-4.3314041	95.816505
421	4	3	0.22721004	-3.7739265	-4.4858368	96.51438
422	4	2	-0.3858214	-3.1103244	-4.7151002	94.543316
423	4	3	0.22620512	-4.0443154	-5.1573867	94.220387
424	4	5	0.37393245	-3.069868	-5.3686974	91.897608
425	5	2	0.76893908	-5.3353207	-1.7671076	102.28641
426	5	6	-0.65490103	-5.4022346	-2.9650084	102.67267
427	5	2	-0.37001106	-5.1138531	-0.6737137	103.24871
428	5	2	-0.077747339	-5.0470417	0.59611533	102.82142
429	5	3	0.22550948	-5.1558355	0.83191808	101.77004
430	5	2	-0.24810839	-4.8266398	1.7003421	103.77819
431	5	3	0.21575437	-4.8041102	2.7019249	103.37612
432	5	2	-0.2086615	-4.6588536	1.4536946	105.09598
433	5	7	0.025328013	-4.46629	2.5707191	106.13627
434	5	7	-0.13125026	-4.0343725	3.9281628	105.52975
435	5	8	0.088435939	-4.8494063	4.3685363	104.91789
436	5	8	0.088435939	-3.7945157	4.657451	106.33366
437	5	8	0.088435939	-3.1310206	3.8049018	104.89395
438	5	2	-0.12382373	-3.4386285	2.1698495	107.14809
439	5	2	-0.15098296	-2.1654052	1.8190352	106.91523
440	5	3	0.21518755	-1.7740554	1.7869455	105.90656
441	5	2	0.00095412064	-1.2962758	1.4725474	108.06411
442	5	3	0.21576966	-0.2695612	1.1836146	107.87326
443	5	2	-0.34498066	-1.777845	1.5223193	109.32436
444	5	2	0.58656919	-0.9044873	1.179892	110.4603
445	5	6	-0.51094908	-1.3379522	1.2210356	111.64203
446	5	2	0.072209186	-3.193732	1.9273372	109.55166
447	5	3	0.20964916	-3.5952791	1.9857999	110.55445
448	5	2	-0.18015486	-3.9649849	2.2221161	108.49375
449	5	7	-0.026883702	-5.3936648	2.6640796	108.50269
450	5	7	-0.13083482	-5.5153346	4.0428969	109.17745
451	5	8	0.092652871	-5.2089288	3.9871966	110.2441
452	5	8	0.092652871	-4.8675404	4.78781	108.66551
453	5	8	0.092652871	-6.5657546	4.401657	109.13453
454	5	7	-0.13083482	-6.2807061	1.6346922	109.22975
455	5	8	0.092652871	-6.018412	1.5755887	110.30766
456	5	8	0.092652871	-6.1531345	0.62454078	108.78245
457	5	8	0.092652871	-7.3499245	1.9240588	109.14742
458	5	7	-0.18082149	-5.7654195	2.7521473	106.9873
459	5	8	0.13094517	-6.2769407	3.7125561	106.75126
460	5	8	0.13094517	-6.5092223	1.9650021	106.728
461	5	2	-0.24810839	-4.7638838	0.040661054	105.56227
462	5	3	0.21575437	-4.6784956	-0.19267565	106.61666
463	5	2	-0.077747287	-4.970904	-0.95676469	104.69596
464	5	3	0.22550945	-5.0412051	-1.9733568	105.06352
465	1	1	-0.4110938	-1.392225	-4.8516112	91.524958
466	1	2	0.10252368	-0.9392569	-3.5585698	91.113577
467	1	2	-0.38582134	-1.5063629	-2.4480927	91.611614
468	1	3	0.22620514	-2.3123152	-2.5164239	92.331357
469	1	2	-0.22328623	-1.0334647	-1.1148096	91.184066
470	1	3	0.22721006	-1.5017739	-0.2286933	91.593801
471	1	2	0.18415286	-0.024132653	-1.0003437	90.308637
472	1	4	-0.26682103	0.39216205	0.28105841	89.920248
473	1	2	0.18415283	1.6793421	0.61723743	89.476342
474	1	2	-0.1689243	2.7835861	0.019542079	89.965559
475	1	3	0.22721007	2.7093137	-0.74178116	90.729853
476	1	2	-0.4353931	4.1222869	0.41967033	89.485238
477	1	3	0.23502752	4.996714	-0.079729936	89.882807
478	1	2	0.28302553	4.2486097	1.3939755	88.570095
479	1	1	-0.84382206	5.5418253	1.7868858	88.101774
480	1	5	0.3680425	5.6390256	2.5457659	87.391084
481	1	5	0.3680425	6.4081389	1.3238983	88.458992
482	1	2	-0.43539313	3.0376427	2.0683988	88.049003
483	1	3	0.23502752	3.1304833	2.8612587	87.31781
484	1	2	-0.16892429	1.8245522	1.7027854	88.481536
485	1	3	0.22721013	0.94277459	2.2003843	88.098688
486	1	2	-0.22328614	0.58775803	-2.2303451	89.740626
487	1	3	0.22721004	1.3689096	-2.159799	88.99471
488	1	2	-0.3858214	0.15671516	-3.4376759	90.125417
489	1	3	0.22620514	0.60480007	-4.3288714	89.703469
490	1	5	0.37393245	-0.95187033	-5.7146565	91.134724
491	2	2	0.59207117	0.12328245	0.8878305	110.28881
492	2	6	-0.52143991	0.39583444	0.17285686	109.28793
493	2	2	-0.33351037	1.1747103	1.3304718	111.22376
494	2	2	0.0062336444	2.462063	0.9928066	111.04636
495	2	3	0.22338898	2.7692804	0.38288187	110.20606
496	2	2	-0.24144063	3.4926101	1.4524672	111.99898
497	2	3	0.21575437	4.5219085	1.1728015	111.80933
498	2	2	-0.2086615	3.1671787	2.2027848	113.07485
499	2	7	0.025328013	4.2675869	2.6884656	114.03443
500	2	7	-0.13125026	3.7155363	3.3096822	115.33749
501	2	8	0.088435939	3.0325605	2.6013719	115.85251
502	2	8	0.088435939	3.1680498	4.253131	115.12401
503	2	8	0.088435939	4.5441849	3.5591477	116.03506
504	2	2	-0.12382373	5.1814377	1.5609969	114.40831
505	2	2	-0.17032561	4.840517	0.39800053	114.97979
506	2	3	0.21518755	3.8069464	0.17530255	115.21316
507	2	2	-0.060065517	5.9031025	-0.58705513	115.29036
508	2	3	0.23214804	5.6167956	-1.5259407	115.74698
509	2	2	-0.22677818	7.1973695	-0.31119018	115.01012
510	2	2	0.83597511	8.2696846	-1.2826299	115.31709
511	2	6	-0.47701484	7.9984802	-2.3927367	115.84922
512	2	9	-0.66376442	9.5936059	-0.97429711	115.01895
513	2	10	0.41897419	10.3391	-1.6303634	115.22341
514	2	2	0.0067070897	7.5418462	0.99655738	114.38402
515	2	3	0.22491759	8.5710546	1.2462049	114.16108
516	2	2	-0.17436688	6.5598367	1.8661121	114.10023
517	2	7	-0.026883702	6.6943754	3.2256698	113.49188
518	2	7	-0.13083482	7.4110577	3.1478098	112.12991
519	2	8	0.092652871	8.4623033	2.8103932	112.25363
520	2	8	0.092652871	6.8909675	2.4326919	111.45566
521	2	8	0.092652871	7.4217359	4.1469245	111.64418
522	2	7	-0.13083482	7.4658775	4.1565905	114.44707
523	2	8	0.092652871	6.9621853	4.2069098	115.43604
524	2	8	0.092652871	8.5036448	3.7907416	114.60018
525	2	8	0.092652871	7.5179162	5.1833869	114.02593
526	2	7	-0.18082149	5.2174045	3.7071451	113.31988
527	2	8	0.13094517	5.0800966	4.738992	113.71565
528	2	8	0.13094517	4.9601565	3.785511	112.23985
529	2	2	-0.24144061	1.7342038	2.5862439	113.25049
530	2	3	0.21575437	1.4151911	3.20226	114.07749
531	2	2	0.0062335881	0.80283821	2.1717715	112.38274
532	2	3	0.22338901	-0.23044047	2.459981	112.53253
533	4	1	-0.41109383	-1.7883155	0.2386147	125.61611
534	4	2	0.10252366	-1.7679812	0.26404183	127.04517
535	4	2	-0.3858214	-1.1976919	-0.7347311	127.73722
536	4	3	0.22620514	-0.74526788	-1.5734462	127.22251
537	4	2	-0.22328621	-1.1792794	-0.70169391	129.21474
538	4	3	0.22721006	-0.7178347	-1.517028	129.758
539	4	2	0.18415286	-1.7149358	0.33152734	129.87833
540	4	4	-0.26682103	-1.6866289	0.32476972	131.28052
541	4	2	0.18415283	-1.6950164	1.4640468	132.0988
542	4	2	-0.24459431	-1.0840928	2.6086393	131.73838
543	4	3	0.22721007	-0.55488545	2.6819335	130.79751
544	4	2	-0.3567909	-1.1005306	3.7783219	132.64106
545	4	3	0.22224744	-0.61233555	4.6926959	132.32851