Title

8500 atoms
8875 bonds
14750 angles
21375 dihedrals
9750 impropers

10 atom types
14 bond types
5 angle types
8 dihedral types
2 improper types
-9.049500972 98.30867786 xlo xhi
-9.275706213 98.33038554 ylo yhi
-9.807742708 98.48823188 zlo zhi
0.0 0.0 0.0 xy xz yz

Masses

1	15.99943
2	12.01078
3	79.9041
4	1.007947
5	12.01078
6	18.998403
7	15.99943
8	15.99943
9	1.007947
10	35.4532


Pair Coeffs

1	0.16846514	3.0251065
2	0.086879315	3.4806469
3	0.32189864	3.5097963
4	0.015611343	2.5725815
5	0.10884061	3.3795318
6	0.061	3.1181455
7	0.2102061	3.0398122
8	0.20947353	2.99716
9	1.2326e-05	0.53453923
10	0.2656001	3.3075278

Bond Coeffs

1 harmonic	425.69104206635	1.362945806494
2 harmonic	300.03137914615	1.451203938761
3 harmonic	360.7852444772	1.387193227181
4 harmonic	203.9927893677	1.911636491655
5 harmonic	397.2545789619	1.085358495916
6 harmonic	289.73813263395	1.498646816465
7 harmonic	264.62148576755	1.52190126495
8 harmonic	301.15400723785	1.345741232799
9 harmonic	340.45121009905	1.358690858053
10 harmonic	582.698766451	1.225198386222
11 harmonic	279.1350963404	1.454628925034
12 harmonic	385.7604595587	1.369745182308
13 harmonic	543.5267831885	0.9716763312559
14 harmonic	218.0227703685	1.746066037062


Angle Coeffs

1 harmonic	57.8982893754	126.8062420451
2 harmonic	65.09061609600001	110.3538806181
3 harmonic	34.066775159195	129.1835929926
4 harmonic	53.20531626545	116.5475862634
5 harmonic	201.41175231035	127.4691416191


Dihedral Coeffs

1 fourier 1	3.661930099076	2	180
2 fourier 1	1.532232714475	2	180
3 fourier 1	0.457973137376	1	0
4 fourier 1	0.02664938770063	3	0
5 fourier 1	0.1155372516788	3	0
6 fourier 1	2.779853741805	2	180
7 fourier 1	0.9974165607242	2	180
8 fourier 1	0.8283030590042	2	180


Improper Coeffs

1 0.3666666666666667	-1	2
2 3.5	-1	2


Atoms

1	4	1	-0.11252807	2.3463268	1.5055606	2.8477078
2	4	2	0.37097707	2.119252	1.7201452	1.4882636
3	4	2	-0.22201093	1.8922145	2.9636915	1.0453476
4	4	3	-0.068886981	1.8778146	4.4519221	2.2507522
5	4	2	-0.021471523	1.6468539	3.2115632	-0.38911389
6	4	4	0.21191239	1.485761	4.2341042	-0.7052389
7	4	2	-0.10441753	1.6136429	2.1982805	-1.2839469
8	4	5	-0.24211209	1.3891649	2.5074683	-2.7875767
9	4	2	-0.1044175	0.20225212	3.49401	-2.9385849
10	4	2	0.00028337424	-0.94864047	3.2680113	-2.265112
11	4	4	0.21191239	-1.0367282	2.421451	-1.5955172
12	4	2	-0.2238799	-2.1175513	4.1611837	-2.4039921
13	4	3	-0.069169484	-3.6758547	3.7571064	-1.3629359
14	4	2	0.62297863	-2.061893	5.2138864	-3.2417762
15	4	1	-0.43887168	-3.1392817	6.0864872	-3.4061614
16	4	2	-0.22387993	-0.82661639	5.4590708	-4.0171375
17	4	3	-0.069169484	-0.73796603	6.9355139	-5.2316106
18	4	2	0.00028343524	0.2326665	4.6523341	-3.8818056
19	4	4	0.21191236	1.1075167	4.8673545	-4.4749476
20	4	5	0.75325227	2.7382268	3.0923634	-3.3298273
21	4	6	-0.20041749	2.7399912	3.1676892	-4.7126932
22	4	6	-0.20041749	2.9702758	4.3567391	-2.816263
23	4	6	-0.20041749	3.7989319	2.2820603	-2.9552669
24	4	5	0.75325227	1.0204159	1.2347874	-3.6215176
25	4	6	-0.20041749	0.59512044	1.5961161	-4.8903652
26	4	6	-0.20041749	-0.0068542168	0.52850981	-3.0178636
27	4	6	-0.20041749	2.1092028	0.39141095	-3.7718148
28	4	2	-0.021471514	1.8961411	0.82130157	-0.77885496
29	4	4	0.21191239	1.919644	-0.023679298	-1.4488169
30	4	2	-0.22201102	2.1271299	0.59265823	0.52104904
31	4	3	-0.068886981	2.4752054	-1.2033559	1.091891
32	5	2	0.62853658	-4.0483706	5.9827154	-2.8949308
33	5	7	-0.47934705	-5.074037	6.4356725	-3.37453
34	1	1	-0.11252807	2.5212926	0.58608504	3.2308183
35	1	2	0.37097707	1.6430008	-0.48274573	3.0445542
36	1	2	-0.22201093	1.9355607	-1.6767601	3.5774447
37	1	3	-0.068886981	3.5367003	-1.9378542	4.5933546
38	1	2	-0.021471523	1.021366	-2.8202685	3.388684
39	1	4	0.21191239	1.2871559	-3.7619665	3.8513693
40	1	2	-0.10441753	-0.10971159	-2.7069561	2.6553132
41	1	5	-0.24211209	-1.0605653	-3.9245068	2.513604
42	1	2	-0.1044175	-0.2303393	-5.1874228	2.1635626
43	1	2	0.034747708	0.70536282	-5.126883	1.1888963
44	1	4	0.21191239	0.90289815	-4.1970021	0.67244168
45	1	2	-0.28683278	1.4949437	-6.3134681	0.79842502
46	1	3	-0.077676669	2.8214886	-6.0879887	-0.56703785
47	1	2	0.59659016	1.2688242	-7.4978058	1.3975878
48	1	8	-0.63667327	1.9911096	-8.6459551	1.0631166
49	1	9	0.43379894	2.7199922	-8.6598201	0.36153564
50	1	2	-0.28683275	0.22533978	-7.5961163	2.4396734
51	1	3	-0.077676669	-0.1285012	-9.2757062	3.2846991
52	1	2	0.034747764	-0.48305276	-6.5167781	2.7973184
53	1	4	0.21191236	-1.2384632	-6.6399022	3.5559544
54	1	5	0.75325227	-1.8232785	-4.0555418	3.8750368
55	1	6	-0.20041749	-2.8796177	-4.947013	3.781545
56	1	6	-0.20041749	-0.97127456	-4.4827663	4.8806762
57	1	6	-0.20041749	-2.3444387	-2.829649	4.2556991
58	1	5	0.75325227	-2.1078284	-3.746823	1.3635578
59	1	6	-0.20041749	-2.7634311	-4.9432735	1.1192785
60	1	6	-0.20041749	-1.4898746	-3.3567287	0.18691399
61	1	6	-0.20041749	-3.0692996	-2.8048094	1.6920976
62	1	2	-0.021471514	-0.43430961	-1.3616799	2.0913354
63	1	4	0.21191239	-1.3382385	-1.1981708	1.5270496
64	1	2	-0.22201102	0.38876811	-0.3186558	2.2669966
65	1	3	-0.068886981	-0.094244924	1.3728625	1.5055596
66	2	2	0.46969175	-4.0768432	5.4715676	-1.9378183
67	2	7	-0.54863668	-3.0697769	4.9417395	-1.4997388
68	2	10	-0.071836166	-5.5711333	5.4069978	-1.022484
69	4	1	-0.11252807	2.0966176	-2.961185	21.330246
70	4	2	0.37097707	1.3269858	-2.7663604	20.183333
71	4	2	-0.22201093	1.8272927	-3.1041334	18.98762
72	4	3	-0.068886981	3.5827248	-3.8535308	18.829823
73	4	2	-0.021471523	1.029982	-2.9032668	17.76154
74	4	4	0.21191239	1.4667542	-3.2069455	16.818946
75	4	2	-0.10441753	-0.20307504	-2.3498922	17.805335
76	4	5	-0.24211209	-1.0213629	-2.19093	16.496891
77	4	2	-0.1044175	-0.11704534	-1.5797369	15.395309
78	4	2	0.00028337424	0.64896529	-0.50132093	15.677163
79	4	4	0.21191239	0.66090036	-0.081055761	16.675169
80	4	2	-0.2238799	1.5001625	0.13581082	14.651043
81	4	3	-0.069169484	2.5721917	1.6321422	15.18689
82	4	2	0.62297863	1.5010552	-0.33867304	13.390873
83	4	1	-0.43887168	2.2886807	0.22844283	12.387256
84	4	2	-0.22387993	0.64262579	-1.493815	13.050351
85	4	3	-0.069169484	0.61164935	-2.1660185	11.25874
86	4	2	0.00028343524	-0.1203355	-2.0730523	13.985014
87	4	4	0.21191236	-0.73545148	-2.9071113	13.686029
88	4	5	0.75325227	-1.5515847	-3.6180995	16.125195
89	4	6	-0.20041749	-2.5031881	-3.5608814	15.120619
90	4	6	-0.20041749	-0.51587749	-4.4369422	15.709204
91	4	6	-0.20041749	-2.1449351	-4.2130971	17.227871
92	4	5	0.75325227	-2.24335	-1.2254809	16.657532
93	4	6	-0.20041749	-2.7892519	-0.92815179	15.418583
94	4	6	-0.20041749	-1.8569566	-0.032231911	17.245212
95	4	6	-0.20041749	-3.2443228	-1.7948549	17.427725
96	4	2	-0.021471514	-0.75773404	-2.0044383	19.148469
97	4	4	0.21191239	-1.7495593	-1.5935119	19.25247
98	4	2	-0.22201102	-0.040716849	-2.1922864	20.264706
99	4	3	-0.068886981	-0.82013859	-1.7176951	21.94992
100	5	2	0.62853658	2.923132	1.0474849	12.546032
101	5	7	-0.47934705	3.2163471	1.7819889	11.617751
102	1	1	-0.11252807	1.7641772	-2.7214772	22.254824
103	1	2	0.37097707	1.3131546	-1.4411823	22.580268
104	1	2	-0.22201093	0.88336105	-1.1902327	23.824268
105	1	3	-0.068886981	0.88246109	-2.5589184	25.162397
106	1	2	-0.021471523	0.39921433	0.15622967	24.187083
107	1	4	0.21191239	0.078130128	0.32021041	25.207638
108	1	2	-0.10441753	0.34636524	1.1566994	23.278086
109	1	5	-0.24211209	-0.13458277	2.5663678	23.711857
110	1	2	-0.1044175	-1.434851	2.4316586	24.547272
111	1	2	0.034747708	-2.4381958	1.6400484	24.104744
112	1	4	0.21191239	-2.3299502	1.074296	23.188976
113	1	2	-0.28683278	-3.707655	1.5091805	24.849887
114	1	3	-0.077676669	-5.0355456	0.32192148	24.141245
115	1	2	0.59659016	-3.8969111	2.2111174	25.983134
116	1	8	-0.63667327	-5.0789897	2.1185556	26.722009
117	1	9	0.43379894	-5.855236	1.5259477	26.457555
118	1	2	-0.28683275	-2.8285438	3.1110265	26.466064
119	1	3	-0.077676669	-3.0883532	4.136213	28.060362
120	1	2	0.034747764	-1.6755901	3.2211897	25.792816
121	1	4	0.21191236	-0.92991854	3.8961456	26.179781
122	1	5	0.75325227	1.0430307	3.2107721	24.518313
123	1	6	-0.20041749	0.82818005	4.5615314	24.738773
124	1	6	-0.20041749	1.2064474	2.5830011	25.742625
125	1	6	-0.20041749	2.231915	3.0863244	23.818033
126	1	5	0.75325227	-0.47949308	3.4911693	22.496655
127	1	6	-0.20041749	-1.1282745	4.6363182	22.931048
128	1	6	-0.20041749	-1.3182517	2.8441316	21.604266
129	1	6	-0.20041749	0.66236993	3.8905132	21.82106
130	1	2	-0.021471514	0.8550165	0.8670479	21.903103
131	1	4	0.21191239	0.87173427	1.631751	21.143372
132	1	2	-0.22201102	1.3030199	-0.35177003	21.571457
133	1	3	-0.068886981	1.9319336	-0.64606005	19.784789
134	2	2	0.46969175	3.3194369	1.2420499	13.537613
135	2	7	-0.54863668	2.9574606	0.56200665	14.482774
136	2	10	-0.071836166	4.4791555	2.5347723	13.780164
137	4	1	-0.11252807	3.1793291	-0.91875699	37.143669
138	4	2	0.37097707	1.8619887	-1.3575592	37.276954
139	4	2	-0.22201093	1.0918866	-1.474405	36.187267
140	4	3	-0.068886981	1.7738702	-1.0507579	34.448457
141	4	2	-0.021471523	-0.30575184	-1.9343254	36.307276
142	4	4	0.21191239	-0.88598641	-2.0311416	35.398744
143	4	2	-0.10441753	-0.85345672	-2.2184884	37.510539
144	4	5	-0.24211209	-2.3146343	-2.7341411	37.587691
145	4	2	-0.1044175	-3.2220609	-1.8443393	36.699063
146	4	2	0.00028337424	-3.1289845	-0.4975422	36.780729
147	4	4	0.21191239	-2.4027263	-0.035411818	37.437817
148	4	2	-0.2238799	-3.9962121	0.39055477	35.979107
149	4	3	-0.069169484	-3.7371794	2.2821448	36.152818
150	4	2	0.62297863	-4.9287489	-0.13875983	35.164635
151	4	1	-0.43887168	-5.7705306	0.65861665	34.386937
152	4	2	-0.22387993	-5.0741528	-1.6084885	35.087405
153	4	3	-0.069169484	-6.4108825	-2.3782282	33.954558
154	4	2	0.00028343524	-4.2807687	-2.4092219	35.808922
155	4	4	0.21191236	-4.4308956	-3.4740383	35.725005
156	4	5	0.75325227	-2.2859162	-4.2299574	37.120984
157	4	6	-0.20041749	-3.4849398	-4.8690148	37.389206
158	4	6	-0.20041749	-2.0295709	-4.3190159	35.763561
159	4	6	-0.20041749	-1.2864803	-4.9225482	37.786888
160	4	5	0.75325227	-2.9065534	-2.6693778	39.035651
161	4	6	-0.20041749	-4.2722607	-2.9050973	39.009402
162	4	6	-0.20041749	-2.7053358	-1.419084	39.596709
163	4	6	-0.20041749	-2.3352871	-3.6230365	39.862403
164	4	2	-0.021471514	0.026256866	-2.1099526	38.712752
165	4	4	0.21191239	-0.34148905	-2.3574731	39.696058
166	4	2	-0.22201102	1.2977331	-1.7004504	38.607681
167	4	3	-0.068886981	2.3604671	-1.580938	40.197963
168	5	2	0.62853658	-5.731931	1.7060279	34.384155
169	5	7	-0.47934705	-6.7227637	2.3530116	34.089469
170	1	1	-0.11252807	3.7995995	-0.81328322	37.935478
171	1	2	0.37097707	3.477901	-0.021213224	39.038939
172	1	2	-0.22201093	4.344003	0.074042772	40.056793
173	1	3	-0.068886981	6.0167492	-0.8556714	40.018811
174	1	2	-0.021471523	4.020653	0.90371139	41.234116
175	1	4	0.21191239	4.7562812	0.9671445	42.025535
176	1	2	-0.10441753	2.8419065	1.5599449	41.333731
177	1	5	-0.24211209	2.5587777	2.4504122	42.572093
178	1	2	-0.1044175	2.9355327	1.6736371	43.86106
179	1	2	0.034747708	2.5229398	0.39540797	44.019412
180	1	4	0.21191239	1.9593397	-0.10154145	43.241068
181	1	2	-0.28683278	2.8286894	-0.37093603	45.245432
182	1	3	-0.077676669	2.2256116	-2.1886523	45.330612
183	1	2	0.59659016	3.5082259	0.2127318	46.250591
184	1	8	-0.63667327	3.8217575	-0.47209664	47.427248
185	1	9	0.43379894	3.5636894	-1.4358257	47.595489
186	1	2	-0.28683275	3.9370705	1.6206194	46.1149
187	1	3	-0.077676669	4.8813478	2.4755769	47.542374
188	1	2	0.034747764	3.6656287	2.3101278	44.998837
189	1	4	0.21191236	3.9916494	3.3361141	44.949891
190	1	5	0.75325227	3.3986924	3.7584271	42.382247
191	1	6	-0.20041749	3.0328239	4.7338632	43.295471
192	1	6	-0.20041749	4.7527471	3.5025919	42.526561
193	1	6	-0.20041749	3.200245	4.2790492	41.113824
194	1	5	0.75325227	1.0478685	2.8364901	42.710061
195	1	6	-0.20041749	0.80937177	3.4168922	43.945874
196	1	6	-0.20041749	0.23915713	1.7167172	42.606981
197	1	6	-0.20041749	0.66550792	3.7495318	41.740572
198	1	2	-0.021471514	1.8995631	1.4647794	40.177818
199	1	4	0.21191239	0.95941542	1.992369	40.181374
200	1	2	-0.22201102	2.1924708	0.71915153	39.103361
201	1	3	-0.068886981	0.92807333	0.64191669	37.664731
202	2	2	0.46969175	-4.8092087	2.215224	34.643866
203	2	7	-0.54863668	-3.8448531	1.5729365	35.023733
204	2	10	-0.071836166	-4.7059825	3.9612007	34.518094
205	4	1	-0.11252807	0.45530927	-0.74998973	55.158392
206	4	2	0.37097707	1.2636112	-0.36847354	56.229276
207	4	2	-0.22201093	2.3980231	-1.0383134	56.471251
208	4	3	-0.068886981	2.9281149	-2.5103254	55.366615
209	4	2	-0.021471523	3.2658752	-0.65216529	57.601315
210	4	4	0.21191239	4.1818132	-1.2096097	57.748927
211	4	2	-0.10441753	2.9297872	0.35803112	58.435053
212	4	5	-0.24211209	3.8889704	0.75466889	59.588108
213	4	2	-0.1044175	4.3532845	-0.52319805	60.333962
214	4	2	0.00028337424	3.4443416	-1.4568048	60.696448
215	4	4	0.21191239	2.3990403	-1.3348363	60.441008
216	4	2	-0.2238799	3.8348961	-2.6735784	61.438288
217	4	3	-0.069169484	2.459323	-3.9418316	61.856282
218	4	2	0.62297863	5.1197556	-2.8575492	61.796693
219	4	1	-0.43887168	5.5375951	-3.9907641	62.497017
220	4	2	-0.22387993	6.1249883	-1.831731	61.44397
221	4	3	-0.069169484	7.9512468	-2.0639016	61.967004
222	4	2	0.00028343524	5.7681772	-0.73522278	60.764577
223	4	4	0.21191236	6.5357128	-0.012015392	60.538139
224	4	5	0.75325227	5.0757107	1.5403117	58.931969
225	4	6	-0.20041749	5.8620927	2.1633394	59.88666
226	4	6	-0.20041749	5.8744971	0.69346497	58.182948
227	4	6	-0.20041749	4.5908561	2.524547	58.084514
228	4	5	0.75325227	3.2071623	1.6726121	60.657532
229	4	6	-0.20041749	4.0180075	1.7955692	61.775039
230	4	6	-0.20041749	1.9984607	1.1370064	61.070663
231	4	6	-0.20041749	2.9813641	2.9475415	60.164683
232	4	2	-0.021471514	1.6761585	1.1127581	58.135393
233	4	4	0.21191239	1.3726281	1.9514656	58.741885
234	4	2	-0.22201102	0.88939243	0.77079514	57.1061
235	4	3	-0.068886981	-0.70620519	1.784428	56.79098
236	5	2	0.62853658	4.8891962	-4.7625043	62.784357
237	5	7	-0.47934705	5.1602334	-5.4617782	63.745987
238	1	1	-0.11252807	-0.41037167	-0.27693942	54.935588
239	1	2	0.37097707	-1.4396989	-0.12085063	55.865433
240	1	2	-0.22201093	-2.5610096	0.51857167	55.506218
241	1	3	-0.068886981	-2.7744317	1.2171485	53.736943
242	1	2	-0.021471523	-3.6594263	0.69693275	56.476095
243	1	4	0.21191239	-4.5545649	1.2034225	56.138883
244	1	2	-0.10441753	-3.5562401	0.25315869	57.74984
245	1	5	-0.24211209	-4.7495325	0.42904624	58.725417
246	1	2	-0.1044175	-5.284541	1.8819124	58.626893
247	1	2	0.034747708	-4.4178181	2.9198129	58.653947
248	1	4	0.21191239	-3.3516715	2.7453171	58.71145
249	1	2	-0.28683278	-4.8849996	4.3207052	58.597982
250	1	3	-0.077676669	-3.5551987	5.7015304	58.599609
251	1	2	0.59659016	-6.2037318	4.5876443	58.548274
252	1	8	-0.63667327	-6.6922504	5.8953342	58.4925
253	1	9	0.43379894	-6.095299	6.7121929	58.484201
254	1	2	-0.28683275	-7.170898	3.4700533	58.555126
255	1	3	-0.077676669	-9.049501	3.8294688	58.510793
256	1	2	0.034747764	-6.7440139	2.2009304	58.597529
257	1	4	0.21191236	-7.4871855	1.4206104	58.608924
258	1	5	0.75325227	-5.8180701	-0.64183822	58.320652
259	1	6	-0.20041749	-6.8153453	-0.75047415	59.276139
260	1	6	-0.20041749	-6.4023163	-0.32345149	57.105322
261	1	6	-0.20041749	-5.2268023	-1.8880257	58.191253
262	1	5	0.75325227	-4.3493579	0.20206664	60.221839
263	1	6	-0.20041749	-5.3753083	0.60547468	61.06188
264	1	6	-0.20041749	-3.222066	0.93695862	60.549982
265	1	6	-0.20041749	-4.098019	-1.1350298	60.484055
266	1	2	-0.021471514	-2.310368	-0.48157888	58.125561
267	1	4	0.21191239	-2.1820962	-0.88996422	59.11501
268	1	2	-0.22201102	-1.3138442	-0.65290829	57.245902
269	1	3	-0.068886981	0.25560375	-1.5998693	57.806634
270	2	2	0.46969175	3.9756638	-4.9393547	62.225493
271	2	7	-0.54863668	3.6599989	-4.1865316	61.319719
272	2	10	-0.071836166	2.9536679	-6.3068397	62.626015
273	4	1	-0.11252807	1.8558092	1.8580043	81.725208
274	4	2	0.37097707	1.9457697	0.63042929	81.068958
275	4	2	-0.22201093	3.1350535	0.20710912	80.62115
276	4	3	-0.068886981	4.7144181	1.2611666	80.871366
277	4	2	-0.021471523	3.2510187	-1.0876946	79.921609
278	4	4	0.21191239	4.2342369	-1.3984089	79.592649
279	4	2	-0.10441753	2.1673341	-1.8618524	79.687348
280	4	5	-0.24211209	2.3397423	-3.2324974	78.981304
281	4	2	-0.1044175	3.2466686	-3.0592178	77.735395
282	4	2	0.00028337424	3.0164445	-2.042815	76.873353
283	4	4	0.21191239	2.2242726	-1.3293141	77.063513
284	4	2	-0.2238799	3.832391	-1.8580478	75.655367
285	4	3	-0.069169484	3.4336687	-0.35358765	74.535989
286	4	2	0.62297863	4.8142018	-2.7330557	75.366279
287	4	1	-0.43887168	5.6124002	-2.6002073	74.22854
288	4	2	-0.22387993	5.0595967	-3.8738327	76.274915
289	4	3	-0.069169484	6.4339293	-5.1417554	75.867152
290	4	2	0.00028343524	4.3236088	-4.0324666	77.38143
291	4	4	0.21191236	4.5349663	-4.8845779	78.008046
292	4	5	0.75325227	2.9483636	-4.2096062	80.044763
293	4	6	-0.20041749	2.9098578	-5.5234295	79.608437
294	4	6	-0.20041749	4.2611041	-3.8747438	80.329052
295	4	6	-0.20041749	2.2285474	-4.1420839	81.227678
296	4	5	0.75325227	0.9852266	-3.8266522	78.468062
297	4	6	-0.20041749	1.2182321	-4.9145847	77.641309
298	4	6	-0.20041749	0.27779149	-2.8861125	77.737699
299	4	6	-0.20041749	0.1908708	-4.2627022	79.516007
300	4	2	-0.021471514	0.85328101	-1.3891145	80.217232
301	4	4	0.21191239	-0.041450644	-1.9787839	80.094191
302	4	2	-0.22201102	0.74464537	-0.21826434	80.859644
303	4	3	-0.068886981	-0.97759087	0.32156959	81.503977
304	5	2	0.62853658	5.5032305	-1.8215649	73.535455
305	5	7	-0.47934705	5.8606246	-1.977704	72.380004
306	1	1	-0.11252807	0.98139647	2.2213892	82.080421
307	1	2	0.37097707	-0.14388704	2.3893525	81.271709
308	1	2	-0.22201093	-1.2730356	2.8739893	81.805923
309	1	3	-0.068886981	-1.3651314	3.3432744	83.659347
310	1	2	-0.021471523	-2.4747363	3.0555608	80.968103
311	1	4	0.21191239	-3.3599473	3.4667897	81.435874
312	1	2	-0.10441753	-2.4817586	2.71354	79.659294
313	1	5	-0.24211209	-3.7552151	2.9558095	78.807092
314	1	2	-0.1044175	-4.9971298	2.4385031	79.579623
315	1	2	0.034747708	-4.9676431	1.2155024	80.156318
316	1	4	0.21191239	-4.0742077	0.60708332	80.111335
317	1	2	-0.28683278	-6.1390517	0.66815553	80.871932
318	1	3	-0.077676669	-5.9569222	-1.0588069	81.684016
319	1	2	0.59659016	-7.2804433	1.3795117	80.935017
320	1	8	-0.63667327	-8.4125447	0.90415884	81.601501
321	1	9	0.43379894	-8.4455733	0.0097793729	82.073383
322	1	2	-0.28683275	-7.3476601	2.7028318	80.28021
323	1	3	-0.077676669	-8.9684767	3.7177429	80.336807
324	1	2	0.034747764	-6.2814068	3.1999239	79.639348
325	1	4	0.21191236	-6.3814253	4.1651112	79.170581
326	1	5	0.75325227	-3.8139879	4.4942435	78.520443
327	1	6	-0.20041749	-4.7645159	4.79563	77.558686
328	1	6	-0.20041749	-4.1117179	5.2017223	79.673948
329	1	6	-0.20041749	-2.5901283	4.9447182	78.052934
330	1	5	0.75325227	-3.7279777	2.1889333	77.442506
331	1	6	-0.20041749	-4.9733088	2.2391499	76.836197
332	1	6	-0.20041749	-3.4038297	0.85542926	77.630191
333	1	6	-0.20041749	-2.8141124	2.7472113	76.563341
334	1	2	-0.021471514	-1.2063101	2.2003797	79.073546
335	1	4	0.21191239	-1.1375268	1.943209	78.028858
336	1	2	-0.22201102	-0.11048875	2.0414859	79.828623
337	1	3	-0.068886981	1.4849914	1.3705124	79.004876
338	2	2	0.46969175	5.0716226	-0.87545497	73.846482
339	2	7	-0.54863668	4.633335	-0.74799284	74.977177
340	2	10	-0.071836166	5.0038349	0.4689068	72.722647
341	4	1	-0.11252807	0.57928796	23.548826	0.76997238
342	4	2	0.37097707	-0.077121349	22.472814	1.3674856
343	4	2	-0.22201093	0.14079503	22.202795	2.661213
344	4	3	-0.068886981	1.3380999	23.274282	3.7035258
345	4	2	-0.021471523	-0.54183797	21.06682	3.3115159
346	4	4	0.21191239	-0.34986952	20.89627	4.362961
347	4	2	-0.10441753	-1.3742089	20.255443	2.6205763
348	4	5	-0.24211209	-2.0995011	19.095317	3.3519774
349	4	2	-0.1044175	-1.0797462	18.321056	4.2268773
350	4	2	0.00028337424	0.11298664	17.956141	3.7039807
351	4	4	0.21191239	0.3750981	18.22898	2.6892701
352	4	2	-0.2238799	1.1020653	17.18802	4.4882701
353	4	3	-0.069169484	2.7734122	16.768781	3.6478984
354	4	2	0.62297863	0.8112134	16.807662	5.7467993
355	4	1	-0.43887168	1.7129467	16.082066	6.5275738
356	4	2	-0.22387993	-0.50213628	17.162968	6.3265225
357	4	3	-0.069169484	-0.94307318	16.609232	8.1046223
358	4	2	0.00028343524	-1.3916037	17.866114	5.6154296
359	4	4	0.21191236	-2.3387731	18.093513	6.0786506
360	4	5	0.75325227	-3.2501183	19.747201	4.1929484
361	4	6	-0.20041749	-4.1230321	18.791787	4.6861024
362	4	6	-0.20041749	-2.736461	20.469854	5.2560433
363	4	6	-0.20041749	-3.9872053	20.618339	3.4056715
364	4	5	0.75325227	-2.7247515	18.051831	2.3664065
365	4	6	-0.20041749	-3.141073	16.924767	3.0576459
366	4	6	-0.20041749	-1.7972359	17.647475	1.4205098
367	4	6	-0.20041749	-3.8296388	18.56959	1.7102973
368	4	2	-0.021471514	-1.628219	20.586332	1.1863569
369	4	4	0.21191239	-2.309627	19.998744	0.59153164
370	4	2	-0.22201102	-1.0168862	21.621121	0.59401624
371	4	3	-0.068886981	-1.3904209	21.976909	-1.2516737
372	5	2	0.62853658	2.6622494	15.7912	6.1917321
373	5	7	-0.47934705	3.2083286	14.813916	6.6753547
374	1	1	-0.11252807	0.4489957	23.792372	-0.20292604
375	1	2	0.37097707	0.660909	22.880571	-1.2383979
376	1	2	-0.22201093	0.46797237	23.267089	-2.5067093
377	1	3	-0.068886981	-0.089429129	25.050953	-2.9202593
378	1	2	-0.021471523	0.683331	22.316662	-3.615449
379	1	4	0.21191239	0.53354536	22.675589	-4.6255244
380	1	2	-0.10441753	1.047395	21.034164	-3.3859614
381	1	5	-0.24211209	1.2988861	20.079393	-4.5825394
382	1	2	-0.1044175	0.13403499	20.210508	-5.5987537
383	1	2	0.034747708	-1.1451788	20.188379	-5.1602329
384	1	4	0.21191239	-1.3635661	20.112227	-4.103383
385	1	2	-0.28683278	-2.2861631	20.275063	-6.0953963
386	1	3	-0.077676669	-4.0507745	20.277378	-5.3462688
387	1	2	0.59659016	-2.0639942	20.348714	-7.4212917
388	1	8	-0.63667327	-3.11031	20.433934	-8.3431241
389	1	9	0.43379894	-4.0863519	20.447355	-8.0769663
390	1	2	-0.28683275	-0.6748399	20.337068	-7.9258526
391	1	3	-0.077676669	-0.33915409	20.415161	-9.8077427
392	1	2	0.034747764	0.35760844	20.26678	-7.0750818
393	1	4	0.21191236	1.35171	20.253038	-7.4909016
394	1	5	0.75325227	2.685004	20.481547	-5.1902817
395	1	6	-0.20041749	3.1324487	19.539131	-6.1018517
396	1	6	-0.20041749	2.6092298	21.710591	-5.8254597
397	1	6	-0.20041749	3.6391544	20.580988	-4.1907651
398	1	5	0.75325227	1.35203	18.573595	-4.1574685
399	1	6	-0.20041749	1.3326993	17.755737	-5.2762699
400	1	6	-0.20041749	0.25956035	18.241457	-3.3734239
401	1	6	-0.20041749	2.5083163	18.284976	-3.4507462
402	1	2	-0.021471514	1.2846951	20.627688	-1.9676282
403	1	4	0.21191239	1.6097756	19.629647	-1.7217044
404	1	2	-0.22201102	1.0981969	21.489538	-0.95834874
405	1	3	-0.068886981	1.4161831	20.889722	0.83425472
406	2	2	0.46969175	3.1596293	16.360358	5.4127455
407	2	7	-0.54863668	2.5788784	17.283369	4.867225
408	2	10	-0.071836166	4.7975712	15.951692	4.9383537
409	4	1	-0.11252807	-1.2259106	20.012169	23.459416
410	4	2	0.37097707	-0.0097964557	19.965522	22.777809
411	4	2	-0.22201093	0.91743802	20.901941	23.017568
412	4	3	-0.068886981	0.59921648	22.302275	24.284783
413	4	2	-0.021471523	2.2097553	20.871991	22.304587
414	4	4	0.21191239	2.9364413	21.637982	22.542621
415	4	2	-0.10441753	2.4808181	19.92699	21.37611
416	4	5	-0.24211209	3.8658332	19.910707	20.677284
417	4	2	-0.1044175	4.2234954	21.345488	20.210046
418	4	2	0.00028337424	3.3039423	22.085465	19.549704
419	4	4	0.21191239	2.3087722	21.696442	19.373414
420	4	2	-0.2238799	3.6102083	23.443931	19.05557
421	4	3	-0.069169484	2.2079123	24.407477	18.172094
422	4	2	0.62297863	4.8410168	23.960658	19.232393
423	4	1	-0.43887168	5.1780007	25.239393	18.784619
424	4	2	-0.22387993	5.8740491	23.154914	19.918562
425	4	3	-0.069169484	7.6361355	23.862817	20.156494
426	4	2	0.00028343524	5.5896993	21.928217	20.371971
427	4	4	0.21191236	6.3787004	21.37644	20.858214
428	4	5	0.75325227	4.8861654	19.339367	21.720643
429	4	6	-0.20041749	6.1025663	19.03975	21.130224
430	4	6	-0.20041749	5.1016382	20.243174	22.746773
431	4	6	-0.20041749	4.3962758	18.170291	22.282116
432	4	5	0.75325227	3.8916406	19.005992	19.399796
433	4	6	-0.20041749	5.0600327	19.21544	18.683975
434	4	6	-0.20041749	2.826894	19.299894	18.564065
435	4	6	-0.20041749	3.8395105	17.660874	19.727318
436	4	2	-0.021471514	1.4479836	18.874046	21.140407
437	4	4	0.21191239	1.6194942	18.072905	20.438872
438	4	2	-0.22201102	0.27673918	18.892758	21.790961
439	4	3	-0.068886981	-0.99954454	17.509891	21.428383
440	5	2	0.62853658	4.5051697	25.873001	18.290244
441	5	7	-0.47934705	4.9206241	26.732851	17.531803
442	1	1	-0.11252807	-1.9575048	19.329479	23.312699
443	1	2	0.37097707	-2.4913824	19.062873	22.050801
444	1	2	-0.22201093	-3.4581794	18.143797	21.924954
445	1	3	-0.068886981	-4.1209868	17.194403	23.449168
446	1	2	-0.021471523	-4.0330978	17.845048	20.598602
447	1	4	0.21191239	-4.8245688	17.108716	20.544688
448	1	2	-0.10441753	-3.5855613	18.459934	19.479837
449	1	5	-0.24211209	-4.2436488	18.142643	18.111304
450	1	2	-0.1044175	-4.3795706	16.605675	17.950013
451	1	2	0.034747708	-3.3265592	15.805258	18.232285
452	1	4	0.21191239	-2.3996243	16.224403	18.600433
453	1	2	-0.28683278	-3.399757	14.339382	18.059833
454	1	3	-0.077676669	-1.853899	13.310445	18.535924
455	1	2	0.59659016	-4.5250914	13.774355	17.583231
456	1	8	-0.63667327	-4.6414849	12.393587	17.405056
457	1	9	0.43379894	-3.8996617	11.740402	17.621217
458	1	2	-0.28683275	-5.6758882	14.633097	17.23295
459	1	3	-0.077676669	-7.2746196	13.851702	16.530259
460	1	2	0.034747764	-5.6093905	15.960861	17.39824
461	1	4	0.21191236	-6.4710036	16.545799	17.121106
462	1	5	0.75325227	-5.624894	18.880484	18.098902
463	1	6	-0.20041749	-6.1895301	18.879975	16.833793
464	1	6	-0.20041749	-6.5125628	18.284279	18.979996
465	1	6	-0.20041749	-5.469307	20.201648	18.48574
466	1	5	0.75325227	-3.3925007	18.644585	16.896998
467	1	6	-0.20041749	-3.8922606	18.128556	15.711698
468	1	6	-0.20041749	-2.0745287	18.234632	17.012841
469	1	6	-0.20041749	-3.4190105	20.026015	16.793543
470	1	2	-0.021471514	-2.5263307	19.501549	19.641919
471	1	4	0.21191239	-2.1523131	20.05162	18.793524
472	1	2	-0.22201102	-2.0071251	19.7818	20.845289
473	1	3	-0.068886981	-0.64603638	21.125785	20.969643
474	2	2	0.46969175	3.4376805	25.763627	18.453496
475	2	7	-0.54863668	3.0169878	24.849056	19.14153
476	2	10	-0.071836166	2.3185307	26.901422	17.726973
477	4	1	-0.11252807	1.6129016	20.389884	35.789103
478	4	2	0.37097707	1.3739845	19.283092	36.603737
479	4	2	-0.22201093	0.76141086	18.207261	36.092397
480	4	3	-0.068886981	0.21146395	18.165115	34.258325
481	4	2	-0.021471523	0.49675045	17.026908	36.93859
482	4	4	0.21191239	0.015521938	16.173133	36.479282
483	4	2	-0.10441753	0.83318551	17.008732	38.24819
484	4	5	-0.24211209	0.57016853	15.733662	39.091937
485	4	2	-0.1044175	-0.87146528	15.228297	38.825238
486	4	2	0.00028337424	-1.9039024	16.101692	38.846465
487	4	4	0.21191239	-1.7281398	17.156801	39.015677
488	4	2	-0.2238799	-3.2979196	15.661137	38.631932
489	4	3	-0.069169484	-4.6676191	17.002473	38.64325
490	4	2	0.62297863	-3.5670819	14.355886	38.439488
491	4	1	-0.43887168	-4.8671317	13.891306	38.231504
492	4	2	-0.22387993	-2.4580211	13.377578	38.449754
493	4	3	-0.069169484	-2.8242008	11.515373	38.20319
494	4	2	0.00028343524	-1.1959554	13.782197	38.636012
495	4	4	0.21191236	-0.42275571	13.030188	38.643673
496	4	5	0.75325227	1.6654626	14.691256	38.679837
497	4	6	-0.20041749	1.68934	13.610305	39.545268
498	4	6	-0.20041749	1.4459042	14.226015	37.394696
499	4	6	-0.20041749	2.9218766	15.276522	38.709316
500	4	5	0.75325227	0.67461642	15.991861	40.632578
501	4	6	-0.20041749	0.19697292	14.898606	41.338311
502	4	6	-0.20041749	-0.079132135	17.093779	41.001562
503	4	6	-0.20041749	1.9864427	16.200619	41.026102
504	4	2	-0.021471514	1.5402959	18.204811	38.796264
505	4	4	0.21191239	1.8664929	18.236501	39.823875
506	4	2	-0.22201102	1.7896147	19.275293	38.029915
507	4	3	-0.068886981	2.6956996	20.773688	38.808701
508	5	2	0.62853658	-5.7068126	14.518235	38.209948
509	5	7	-0.47934705	-6.8077181	14.074574	38.489858
510	1	1	-0.11252807	2.0706219	21.22549	36.12833
511	1	2	0.37097707	1.604906	21.938374	37.234403
512	1	2	-0.22201093	2.259672	23.037024	37.633756
513	1	3	-0.068886981	3.8207343	23.645908	36.708426
514	1	2	-0.021471523	1.7850533	23.80255	38.803243
515	1	4	0.21191239	2.33304	24.693794	39.080573
516	1	2	-0.10441753	0.70649061	23.405865	39.516932
517	1	5	-0.24211209	0.22035117	24.260784	40.716689
518	1	2	-0.1044175	1.4349269	24.637801	41.605185
519	1	2	0.034747708	2.3299162	23.686978	41.957473
520	1	4	0.21191239	2.2243395	22.671742	41.598901
521	1	2	-0.28683278	3.482173	23.993334	42.830593
522	1	3	-0.077676669	4.703976	22.568845	43.221844
523	1	2	0.59659016	3.6426474	25.237586	43.319333
524	1	8	-0.63667327	4.7167817	25.574621	44.146653
525	1	9	0.43379894	5.4322832	24.915774	44.425322
526	1	2	-0.28683275	2.6563458	26.283998	42.977721
527	1	3	-0.077676669	2.8528303	28.051594	43.682912
528	1	2	0.034747764	1.6174068	26.005235	42.179224
529	1	4	0.21191236	0.92053402	26.798927	41.965322
530	1	5	0.75325227	-0.50137993	25.511125	40.109933
531	1	6	-0.20041749	-1.1970716	26.215748	41.078868
532	1	6	-0.20041749	0.40931931	26.365538	39.509645
533	1	6	-0.20041749	-1.4134189	25.11956	39.1434
534	1	5	0.75325227	-0.78639685	23.495506	41.639591
535	1	6	-0.20041749	-0.99780406	24.202215	42.812983
536	1	6	-0.20041749	-0.29359996	22.247173	41.982151
537	1	6	-0.20041749	-2.0171526	23.332118	41.02453
538	1	2	-0.021471514	-0.02773348	22.194243	39.041442
539	1	4	0.21191239	-0.91471208	21.847173	39.546469
540	1	2	-0.22201102	0.39489728	21.500717	37.975319
541	1	3	-0.068886981	-0.59706944	19.952951	37.432416
542	2	2	0.46969175	-5.596297	15.563288	37.938292
543	2	7	-0.54863668	-4.4859242	16.02843	37.744568
544	2	10	-0.071836166	-7.0143331	16.582482	37.779148
545	4	1	-0.11252807	3.06052	17.202161	58.441259
546	4	2	0.37097707	2.6883882	18.158227	59.386327
547	4	2	-0.22201093	2.7176101	17.845334	60.688392
548	4	3	-0.068886981	3.2657758	16.105456	61.271809
549	4	2	-0.021471523	2.3248668	18.841965	61.704168
550	4	4	0.21191239	2.380751	18.551748	62.745383
551	4	2	-0.10441753	1.8991326	20.076414	61.352805
552	4	5	-0.24211209	1.5311767	21.105211	62.454203
553	4	2	-0.1044175	0.62356418	20.424765	63.511588
554	4	2	0.00028337424	-0.42909318	19.675995	63.111024
555	4	4	0.21191239	-0.62404052	19.520676	62.057149
556	4	2	-0.2238799	-1.3412428	19.036748	64.081974