Title

17375 atoms
18250 bonds
29875 angles
41375 dihedrals
23250 impropers

11 atom types
14 bond types
8 angle types
19 dihedral types
3 improper types
-17.09893456 168.0011032 xlo xhi
-15.08958452 172.0670663 ylo yhi
-17.93445437 171.9321318 zlo zhi
0.0 0.0 0.0 xy xz yz

Masses

1	14.00672
2	12.01078
3	1.007947
4	1.007947
5	12.01078
6	1.007947
7	15.99943
8	15.99943
9	1.007947
10	15.99943
11	1.007947


Pair Coeffs

1	0.16769152	3.206876
2	0.086879315	3.4806469
3	0.015611343	2.5725815
4	0.014090815	1.1034277
5	0.10884061	3.3795318
6	0.015779483	2.6445434
7	0.2102061	3.0398122
8	0.16846514	3.0251065
9	0.016409246	2.5832257
10	0.20947353	2.99716
11	1.2326e-05	0.53453923

Bond Coeffs

1 harmonic	390.03554688505	1.390160554689
2 harmonic	505.144496193	1.019481865027
3 harmonic	422.7150220147	1.421786517481
4 harmonic	360.7852444772	1.387193227181
5 harmonic	397.2545789619	1.085358495916
6 harmonic	279.1350963404	1.454628925034
7 harmonic	492.76746816345	1.381897776683
8 harmonic	289.73813263395	1.498646816465
9 harmonic	370.04670688625	1.093899492634
10 harmonic	582.698766451	1.225198386222
11 harmonic	301.15400723785	1.345741232799
12 harmonic	366.7408841747	1.425895053732
13 harmonic	385.7604595587	1.369745182308
14 harmonic	543.5267831885	0.9716763312559


Angle Coeffs

1 harmonic	57.8982893754	126.8062420451
2 harmonic	55.42182150775	117.3465570514
3 harmonic	63.44422595415	115.5071327674
4 harmonic	34.066775159195	129.1835929926
5 harmonic	53.20531626545	116.5475862634
6 harmonic	48.776492647595	115.6030999533
7 harmonic	65.09061609600001	110.3538806181
8 harmonic	201.41175231035	127.4691416191


Dihedral Coeffs

1 fourier 1	3.661930099076	2	180
2 fourier 1	1.193093382682	2	180
3 fourier 1	0.02021088501612	1	0
4 fourier 1	1.163235555439	2	180
5 fourier 1	0.02664938770063	3	0
6 fourier 1	3.101948770557	2	180
7 fourier 1	-0.4252153282372	1	0
8 fourier 1	1.809047390003	2	180
9 fourier 1	-0.04816277792592	1	0
10 fourier 1	0.9974165607242	2	180
11 fourier 1	2.348375642009	2	180
12 fourier 1	1.256156174911	1	0
13 fourier 1	2.779853741805	2	180
14 fourier 1	0.0473758381877	3	0
15 fourier 1	1.163809172478	2	180
16 fourier 1	0.1679186987369	1	180
17 fourier 1	2.687457892086	2	180
18 fourier 1	2.772607909663	2	180
19 fourier 1	0.09692684957115	1	0


Improper Coeffs

1 0.3666666666666667	-1	2
2 0.3333333333333333	-1	2
3 3.5	-1	2


Atoms

1	4	1	-0.41098609	-7.0879737	-2.5440217	11.421956
2	4	2	0.15243851	-6.1860783	-2.4403661	10.317221
3	4	2	-0.41003236	-5.1295789	-3.2598871	10.223443
4	4	3	0.2282781	-4.9452586	-4.0093585	10.983811
5	4	2	-0.09324294	-4.1969161	-3.1442204	9.0869578
6	4	3	0.20854324	-3.3385616	-3.8043319	9.0455648
7	4	2	-0.17402102	-4.3985674	-2.2232928	8.129401
8	4	2	-0.17402105	-3.4321746	-2.1126965	7.0144237
9	4	2	-0.10771622	-2.6338519	-1.0341484	6.9402766
10	4	3	0.20854324	-2.6956855	-0.24939619	7.6844578
11	4	2	-0.38432127	-1.6427441	-0.90974664	5.8552588
12	4	3	0.2244971	-1.0098669	-0.030692593	5.8170967
13	4	2	0.22834084	-1.523039	-1.8761943	4.9347098
14	4	1	-0.52933395	-0.55803645	-1.7630893	3.8854117
15	4	4	0.32294608	-0.46580574	-2.5155168	3.1674818
16	4	2	-0.448576	-2.399159	-3.0679559	5.0059772
17	4	3	0.22050468	-2.2915818	-3.8423005	4.256581
18	4	2	0.01151704	-3.3226581	-3.1839234	5.9775625
19	4	5	-0.14791898	-4.207062	-4.4004022	6.0300034
20	4	6	0.10307283	-4.2484539	-4.9171413	5.0479411
21	4	6	0.10307283	-5.2440802	-4.110037	6.3001779
22	4	6	0.10307283	-3.8166183	-5.1097469	6.7904611
23	4	2	0.027062144	-5.5879308	-1.3223971	8.2126758
24	4	5	-0.14791898	-5.8455847	-0.28417612	7.1529086
25	4	6	0.10307281	-5.643281	-0.70641885	6.1464965
26	4	6	0.10307281	-6.9015566	0.059936787	7.1673528
27	4	6	0.10307281	-5.1828599	0.58957118	7.323013
28	4	2	-0.46408894	-6.4191454	-1.422823	9.2665595
29	4	3	0.22327903	-7.2757704	-0.76636885	9.3557086
30	4	4	0.37705934	-6.9417372	-3.2542728	12.173137
31	5	2	0.75216592	0.080475739	-0.91475203	3.8146655
32	5	7	-0.65612375	0.13356611	-0.11853729	4.7878687
33	5	2	-0.2752138	0.82095326	-0.65181879	2.5614827
34	5	2	0.021468552	0.33595128	-1.1768169	1.4209687
35	5	3	0.24121629	-0.53442602	-1.8231282	1.448807
36	5	2	-0.3787989	0.92894618	-0.83560413	0.10648175
37	5	2	0.8326056	0.33738413	-1.3978245	-1.1329486
38	5	7	-0.5877313	-0.90108952	-1.6353102	-1.1567303
39	5	2	-0.37945771	1.1408646	-1.6939468	-2.344412
40	5	2	-0.10513169	2.4163842	-2.1025844	-2.2554281
41	5	3	0.22389269	2.8935719	-2.2347118	-1.2925853
42	5	2	-0.096195947	3.1827381	-2.4321046	-3.4691727
43	5	3	0.22910065	4.1955905	-2.8004428	-3.3494982
44	5	2	-0.17328412	2.6198052	-2.3450062	-4.6887667
45	5	2	0.79031235	3.391308	-2.8031309	-5.8670239
46	5	7	-0.50267267	4.6448849	-2.6543251	-5.8954128
47	5	8	-0.49506503	2.7383017	-3.443107	-6.9258092
48	5	5	0.14069289	3.4235597	-3.9113767	-8.0800474
49	5	9	0.094343219	4.1804579	-4.6713003	-7.7908135
50	5	9	0.094343219	3.9213534	-3.0632062	-8.5961882
51	5	9	0.094343219	2.6941551	-4.3763391	-8.7739731
52	5	2	-0.21149908	1.2091096	-1.848934	-4.8060285
53	5	2	0.57939923	0.59748242	-1.577093	-6.1273921
54	5	7	-0.52009588	-0.64127821	-1.3804652	-6.2453353
55	5	2	0.064713221	0.51588556	-1.5707168	-3.6833114
56	5	3	0.23639596	-0.4986306	-1.1949819	-3.7456752
57	5	2	-0.1051317	1.9456079	0.040110922	0.057767175
58	5	3	0.22389272	2.3673533	0.35442323	-0.88923104
59	5	2	-0.11597387	2.5232326	0.58572439	1.2994248
60	5	3	0.22910062	3.3963882	1.2226153	1.2196295
61	5	2	-0.18891775	2.0273548	0.24045043	2.5008199
62	5	2	0.77858323	2.7480293	0.6846496	3.7148933
63	5	7	-0.50267261	2.8140979	-0.070001645	4.7239332
64	5	8	-0.49506506	3.4030089	1.9211326	3.7179625
65	5	5	0.14069294	4.1338909	2.399602	4.8410669
66	5	9	0.094343219	3.4600029	2.4929124	5.7198832
67	5	9	0.094343219	4.9660722	1.7032035	5.0783102
68	5	9	0.094343219	4.5564298	3.3971943	4.6031038
69	1	1	-0.41098606	-7.9116627	-1.9059453	11.494873
70	1	2	0.1524385	-8.0391015	-0.78363541	10.61798
71	1	2	-0.41003236	-9.0956009	0.035885578	10.711758
72	1	3	0.22827807	-9.8668156	-0.1419513	11.452113
73	1	2	-0.093242954	-9.227312	1.1870742	9.7994144
74	1	3	0.20854324	-10.102546	1.8221839	9.8810066
75	1	2	-0.17402102	-8.2881828	1.433141	8.8702069
76	1	2	-0.17402105	-8.4600374	2.5798936	7.9524022
77	1	2	-0.059952419	-8.722303	2.3506814	6.6544964
78	1	3	0.20854324	-8.8040788	1.3376591	6.2783003
79	1	2	-0.44987744	-8.9239743	3.4750652	5.7200603
80	1	3	0.23707678	-9.1351953	3.2636834	4.67921
81	1	2	0.34616736	-8.8558817	4.7392095	6.159853
82	1	1	-0.84386021	-9.0587838	5.8311362	5.2599135
83	1	4	0.37262029	-9.2633499	5.6665217	4.2484321
84	1	4	0.37262029	-9.0044562	6.81659	5.6022633
85	1	2	-0.51507371	-8.5656245	5.0036511	7.5875947
86	1	3	0.22694952	-8.5143323	6.0300407	7.9301741
87	1	2	0.06945974	-8.3568533	3.987809	8.4450289
88	1	5	-0.14791898	-8.0588281	4.2769737	9.8924537
89	1	6	0.10307283	-7.6886976	5.3158782	10.032365
90	1	6	0.10307283	-7.2743932	3.5881079	10.267819
91	1	6	0.10307283	-8.9818193	4.1436479	10.494444
92	1	2	0.027062137	-7.0945138	0.5398597	8.7754655
93	1	5	-0.14791898	-6.0214441	0.79131986	7.7494342
94	1	6	0.10307281	-5.8037286	1.8774218	7.6817105
95	1	6	0.10307281	-5.074491	0.27506124	8.0136972
96	1	6	0.10307281	-6.3637613	0.42546382	6.7591063
97	1	2	-0.46408894	-6.9970321	-0.5210038	9.5988894
98	1	3	0.22327903	-6.1492537	-1.1917262	9.5325253
99	1	4	0.37705934	-8.6354312	-2.10874	12.220772
100	2	2	0.57939929	1.2104961	-1.5233573	-7.0158389
101	2	7	-0.52009588	0.96901786	-2.3263701	-7.9565029
102	2	2	-0.21149911	2.2887567	-0.51317665	-7.1275977
103	2	2	0.064713258	2.8043234	-0.2229146	-8.3389444
104	2	3	0.23639594	2.4740617	-0.76438589	-9.218106
105	2	2	-0.37945768	3.7919527	0.86912383	-8.5116562
106	2	2	0.8326056	4.3139257	1.1787536	-9.8640166
107	2	7	-0.5877313	3.5681487	0.97613567	-10.862557
108	2	2	-0.37790542	5.6831482	1.7073041	-10.084489
109	2	2	-0.10513169	5.9453703	2.5019582	-11.133114
110	2	3	0.22389269	5.1582344	2.7957137	-11.817915
111	2	2	-0.10526416	7.3005733	3.0432144	-11.343437
112	2	3	0.22910065	7.4479424	3.7488352	-12.152448
113	2	2	-0.2058409	8.3051814	2.7351528	-10.503104
114	2	2	0.77823365	9.6004626	3.4341753	-10.661859
115	2	7	-0.50267267	10.30796	3.693067	-9.6493934
116	2	8	-0.49506503	10.013972	3.8506774	-11.932001
117	2	5	0.14069289	11.23732	4.5435102	-12.151528
118	2	9	0.094343219	11.343262	4.7615407	-13.234299
119	2	9	0.094343219	12.09321	3.9144766	-11.825764
120	2	9	0.094343219	11.238263	5.5009297	-11.589001
121	2	2	-0.12813334	8.0504441	1.7629212	-9.3892392
122	2	2	0.80542291	9.1515275	1.2091347	-8.5673665
123	2	7	-0.477079	8.9401957	0.85942963	-7.3743958
124	2	10	-0.66235631	10.416323	1.0260778	-9.1178506
125	2	11	0.42236683	11.171796	0.63621217	-8.5670177
126	2	2	0.021455288	6.7981734	1.3066262	-9.1898951
127	2	3	0.24817476	6.6043392	0.57853503	-8.4122058
128	2	2	-0.1051317	4.1444669	1.6033677	-7.4441504
129	2	3	0.22389272	4.8228998	2.4414865	-7.5433206
130	2	2	-0.096195903	3.6155313	1.281267	-6.1075696
131	2	3	0.22910062	3.9754719	1.8579422	-5.2633057
132	2	2	-0.17328412	2.7555485	0.26069483	-5.9308661
133	2	2	0.79031235	2.3469705	-0.10068398	-4.5542444
134	2	7	-0.50267261	2.2321593	0.79817627	-3.6746464
135	2	8	-0.49506506	2.1360436	-1.4412657	-4.2169098
136	2	5	0.14069294	1.7491879	-1.852988	-2.9109116
137	2	9	0.094343219	1.6422884	-2.9572871	-2.8942434
138	2	9	0.094343219	2.5245042	-1.5553058	-2.1730377
139	2	9	0.094343219	0.77651202	-1.3925519	-2.6393396
140	4	1	-0.41098609	-10.233027	8.9601124	34.663531
141	4	2	0.15243851	-9.0903155	8.1031242	34.597357
142	4	2	-0.41003236	-8.2075423	8.2239139	33.595997
143	4	3	0.2282781	-8.3497014	8.9708137	32.824135
144	4	2	-0.09324294	-7.0347549	7.3325171	33.526582
145	4	3	0.20854324	-6.3474745	7.4362828	32.695251
146	4	2	-0.17402102	-6.8327404	6.3956098	34.468431
147	4	2	-0.17402105	-5.6614957	5.4980722	34.359192
148	4	2	-0.10771622	-5.8522293	4.2000451	34.067937
149	4	3	0.20854324	-6.8512012	3.8091153	33.917292
150	4	2	-0.38432127	-4.7020267	3.2878836	33.926412
151	4	3	0.2244971	-4.8814272	2.2453174	33.690621
152	4	2	0.22834084	-3.4523324	3.7466197	34.079991
153	4	1	-0.52933395	-2.3339098	2.8671557	33.936036
154	4	4	0.32294608	-1.3603605	3.2244153	34.05705
155	4	2	-0.448576	-3.2310514	5.17478	34.403029
156	4	3	0.22050468	-2.216215	5.5330721	34.52349
157	4	2	0.01151704	-4.2721396	6.0130943	34.556787
158	4	5	-0.14791898	-4.0268001	7.4599842	34.890043
159	4	6	0.10307283	-3.0173681	7.6123126	35.327103
160	4	6	0.10307283	-4.7712112	7.8144846	35.633611
161	4	6	0.10307283	-4.1123702	8.0723349	33.967212
162	4	2	0.027062144	-7.7982162	6.2707647	35.602188
163	4	5	-0.14791898	-7.5971412	5.2353422	36.676834
164	4	6	0.10307281	-6.5256481	5.1828799	36.961845
165	4	6	0.10307281	-8.1771706	5.4795628	37.59205
166	4	6	0.10307281	-7.9245229	4.2440191	36.300438
167	4	2	-0.46408894	-8.8766535	7.0751668	35.641989
168	4	3	0.22327903	-9.5985401	6.9876721	36.44443
169	4	4	0.37705934	-10.402149	9.6910242	33.937389
170	5	2	0.75216592	-2.4703231	1.8372816	33.705537
171	5	7	-0.65612375	-3.6101221	1.4480228	33.340521
172	5	2	-0.2752138	-1.3532751	0.88580563	33.892099
173	5	2	0.021468552	-0.38224388	1.2170021	34.763322
174	5	3	0.24121629	-0.40147308	2.1834483	35.254913
175	5	2	-0.3787989	0.68768073	0.25618389	35.121141
176	5	2	0.8326056	1.714627	0.64115085	36.120844
177	5	7	-0.5877313	1.3908457	1.4397438	37.041821
178	5	2	-0.37945771	3.1060861	0.12806858	36.082101
179	5	2	-0.10513169	3.7204573	-0.1411686	34.919383
180	5	3	0.22389269	3.2175428	0.01625324	33.973589
181	5	2	-0.096195947	5.1167451	-0.60928656	34.901945
182	5	3	0.22910065	5.5887364	-0.7727152	33.939458
183	5	2	-0.17328412	5.8099398	-0.76354378	36.045437
184	5	2	0.79031235	7.2457462	-1.1185383	35.969122
185	5	7	-0.50267267	7.6606416	-1.8675129	35.041059
186	5	8	-0.49506503	8.1487854	-0.5861895	36.89548
187	5	5	0.14069289	9.5388557	-0.88320041	36.870781
188	5	9	0.094343219	9.9819273	-0.54987393	35.908172
189	5	9	0.094343219	9.6960277	-1.9752859	36.998214
190	5	9	0.094343219	10.041184	-0.34826089	37.702201
191	5	2	-0.21149908	5.1227421	-0.50743636	37.353897
192	5	2	0.57939923	5.7832059	-0.81884101	38.642618
193	5	7	-0.52009588	5.3124986	-0.40295801	39.73467
194	5	2	0.064713221	3.8504939	-0.060412039	37.350473
195	5	3	0.23639596	3.3296037	0.11475149	38.284443
196	5	2	-0.1051317	0.66152446	-0.97624951	34.588905
197	5	3	0.22389272	1.3955829	-1.7217616	34.869685
198	5	2	-0.11597387	-0.36394298	-1.3400966	33.594375
199	5	3	0.22910062	-0.29853272	-2.3155885	33.126898
200	5	2	-0.18891775	-1.3076638	-0.45737526	33.222014
201	5	2	0.77858323	-2.2068759	-0.8170815	32.102778
202	5	7	-0.50267261	-2.5837934	0.066032649	31.284202
203	5	8	-0.49506506	-2.5911783	-2.1506334	31.924316
204	5	5	0.14069294	-3.4332625	-2.570326	30.856965
205	5	9	0.094343219	-4.4150834	-2.0538317	30.923383
206	5	9	0.094343219	-2.9538654	-2.3414999	29.881466
207	5	9	0.094343219	-3.5960559	-3.665113	30.929738
208	1	1	-0.41098606	-10.920687	8.8665808	35.444107
209	1	2	0.1524385	-10.855674	7.7522341	36.337844
210	1	2	-0.41003236	-11.738447	7.6314444	37.339203
211	1	3	0.22827807	-12.51164	8.3767319	37.48495
212	1	2	-0.093242954	-11.662119	6.4851	38.263878
213	1	3	0.20854324	-12.37427	6.42201	39.079303
214	1	2	-0.17402102	-10.714045	5.5452266	38.109822
215	1	2	-0.17402105	-10.646221	4.4207123	39.067845
216	1	2	-0.059952419	-9.619587	4.3534915	39.93236
217	1	3	0.20854324	-8.8445015	5.1108924	39.928999
218	1	2	-0.44987744	-9.5386427	3.2570668	40.916931
219	1	3	0.23707678	-8.7017044	3.2261441	41.603404
220	1	2	0.34616736	-10.495505	2.3198961	40.96427
221	1	1	-0.84386021	-10.425376	1.2608296	41.92178
222	1	4	0.37262029	-9.6324699	1.1970709	42.599477
223	1	4	0.37262029	-11.170447	0.52950601	41.957974
224	1	2	-0.51507371	-11.630415	2.3829163	40.015254
225	1	3	0.22694952	-12.397541	1.6196852	40.064882
226	1	2	0.06945974	-11.703881	3.3642893	39.097527
227	1	5	-0.14791898	-12.863711	3.4090834	38.138224
228	1	6	0.10307283	-13.360615	2.4182256	38.053482
229	1	6	0.10307283	-12.513283	3.6962012	37.125536
230	1	6	0.10307283	-13.608645	4.1519546	38.492196
231	1	2	0.027062137	-9.7419106	5.6583259	36.981135
232	1	5	-0.14791898	-8.6713094	4.6192594	36.777162
233	1	6	0.10307281	-9.087733	3.6036023	36.940367
234	1	6	0.10307281	-8.2613191	4.6521156	35.745703
235	1	6	0.10307281	-7.8443163	4.7943284	37.496338
236	1	2	-0.46408894	-9.8077061	6.7213917	36.15741
237	1	3	0.22327903	-9.0995971	6.831665	35.345361
238	1	4	0.37705934	-11.652279	9.6045743	35.55381
239	2	2	0.57939929	6.6752579	-1.4283745	38.669508
240	2	7	-0.52009588	7.7228518	-0.93091934	39.162535
241	2	2	-0.21149911	6.6529561	-2.8198333	38.16064
242	2	2	0.064713258	7.6396399	-3.6702361	38.508048
243	2	3	0.23639594	8.4737524	-3.3246137	39.10804
244	2	2	-0.37945768	7.5893641	-5.1019267	38.126573
245	2	2	0.8326056	8.6781913	-6.0130645	38.552588
246	2	7	-0.5877313	9.2781447	-5.7747212	39.637746
247	2	2	-0.37790542	9.0930982	-7.1865079	37.744116
248	2	2	-0.10513169	9.603127	-8.2761263	38.337794
249	2	3	0.22389269	9.6923321	-8.3304028	39.416647
250	2	2	-0.10526416	9.9984727	-9.4500339	37.538161
251	2	3	0.22910065	10.324542	-10.339228	38.064593
252	2	2	-0.2058409	9.8769033	-9.4453934	36.1982
253	2	2	0.77823365	10.129854	-10.703464	35.460052
254	2	7	-0.50267267	9.4762667	-10.964804	34.412583
255	2	8	-0.49506503	11.060129	-11.624111	35.954744
256	2	5	0.14069289	11.336566	-12.859594	35.305163
257	2	9	0.094343219	12.106947	-13.410646	35.883099
258	2	9	0.094343219	11.721904	-12.671359	34.280256
259	2	9	0.094343219	10.414688	-13.476473	35.253293
260	2	2	-0.12813334	9.408965	-8.1949531	35.513909
261	2	2	0.80542291	9.4622919	-8.0424717	34.041345
262	2	7	-0.477079	8.6336472	-7.2991006	33.448993
263	2	10	-0.66235631	10.455202	-8.6801353	33.303941
264	2	11	0.42236683	10.506963	-8.5712854	32.298145
265	2	2	0.021455288	9.0175443	-7.1445868	36.262004
266	2	3	0.24817476	8.7098425	-6.2233486	35.78333
267	2	2	-0.1051317	6.519539	-5.5604261	37.457095
268	2	3	0.22389272	6.4253001	-6.6100657	37.208248
269	2	2	-0.096195903	5.446691	-4.6403233	37.041911
270	2	3	0.22910062	4.63294	-5.0397135	36.447613
271	2	2	-0.17328412	5.5053301	-3.3289098	37.340437
272	2	2	0.79031235	4.4662313	-2.4242584	36.797761
273	2	7	-0.50267261	3.284432	-2.8422631	36.644638
274	2	8	-0.49506506	4.8046622	-1.1240648	36.40994
275	2	5	0.14069294	3.854061	-0.20987278	35.875698
276	2	9	0.094343219	4.3607675	0.75084406	35.648864
277	2	9	0.094343219	3.4195019	-0.61768353	34.938128
278	2	9	0.094343219	3.0464166	-0.025794865	36.614397
279	4	1	-0.41098609	-7.9535912	9.22917	66.052208
280	4	2	0.15243851	-7.1153967	8.1540825	66.483735
281	4	2	-0.41003236	-6.6328893	7.2711622	65.598162
282	4	3	0.2282781	-6.8731417	7.3602787	64.545462
283	4	2	-0.09324294	-5.7756734	6.158775	66.048287
284	4	3	0.20854324	-5.4159837	5.4461126	65.315506
285	4	2	-0.17402102	-5.4618663	6.0213931	67.347648
286	4	2	-0.17402105	-4.6212436	4.8808714	67.774127
287	4	2	-0.10771622	-5.1724726	3.891697	68.497842
288	4	3	0.20854324	-6.2199636	3.9258976	68.771809
289	4	2	-0.38432127	-4.3654181	2.7295887	68.914017
290	4	3	0.2244971	-4.8327315	1.9442692	69.496784
291	4	2	0.22834084	-3.0736188	2.6446403	68.567897
292	4	1	-0.52933395	-2.2894821	1.5158396	68.962849
293	4	4	0.32294608	-1.2826769	1.4504334	68.694256
294	4	2	-0.448576	-2.4557953	3.7300765	67.772231
295	4	3	0.22050468	-1.4112718	3.6487678	67.498121
296	4	2	0.01151704	-3.1746513	4.8064092	67.404766
297	4	5	-0.14791898	-2.5273263	5.9014333	66.60063
298	4	6	0.10307283	-1.4211084	5.8771008	66.694804
299	4	6	0.10307283	-2.8724689	6.8948315	66.956649
300	4	6	0.10307283	-2.7971056	5.7834572	65.52955
301	4	2	0.027062144	-5.9745867	7.0157712	68.338336
302	4	5	-0.14791898	-5.6362646	6.8935007	69.80052
303	4	6	0.10307281	-4.569868	6.6113769	69.924154
304	4	6	0.10307281	-5.7949222	7.8528205	70.337393
305	4	6	0.10307281	-6.276804	6.1147022	70.263938
306	4	2	-0.46408894	-6.7744606	8.0134337	67.918163
307	4	3	0.22327903	-7.1723589	8.733004	68.622848
308	4	4	0.37705934	-8.2059155	9.3462047	65.045853
309	5	2	0.75216592	-2.7130121	0.72549905	69.535879
310	5	7	-0.65612375	-3.9634351	0.6841276	69.672377
311	5	2	-0.2752138	-1.830212	-0.24803219	70.214708
312	5	2	0.021468552	-0.56974134	0.13239888	70.494186
313	5	3	0.24121629	-0.21075891	1.1018237	70.166471
314	5	2	-0.3787989	0.32775003	-0.72333128	71.305469
315	5	2	0.8326056	1.6954666	-0.24905255	71.632021
316	5	7	-0.5877313	1.8904493	0.990721	71.757421
317	5	2	-0.37945771	2.8433237	-1.1708187	71.815553
318	5	2	-0.10513169	2.9417509	-2.3133378	71.117832
319	5	3	0.22389269	2.186379	-2.5911334	70.393626
320	5	2	-0.096195947	4.1109886	-3.1932218	71.284401
321	5	3	0.22910065	4.1716919	-4.0840621	70.66911
322	5	2	-0.17328412	5.1096542	-2.8663219	72.125646
323	5	2	0.79031235	6.3184642	-3.7209764	72.167225
324	5	7	-0.50267267	6.2147255	-4.9671961	71.992358
325	5	8	-0.49506503	7.5787878	-3.1426593	72.352014
326	5	5	0.14069289	8.7761461	-3.9079475	72.394302
327	5	9	0.094343219	8.9158709	-4.44889	71.434149
328	5	9	0.094343219	8.7321917	-4.6356329	73.232236
329	5	9	0.094343219	9.6381101	-3.2285461	72.553002
330	5	2	-0.21149908	4.9927555	-1.6141909	72.943205
331	5	2	0.57939923	5.9787983	-1.2919518	74.000498
332	5	7	-0.52009588	6.0180274	-0.1496533	74.530325
333	5	2	0.064713221	3.9250058	-0.81041427	72.76345
334	5	3	0.23639596	3.8122131	0.09010367	73.355611
335	5	2	-0.1051317	-0.14330445	-1.8812321	71.795596
336	5	3	0.22389272	0.46642511	-2.5054043	72.437551
337	5	2	-0.11597387	-1.5033838	-2.3385082	71.457749
338	5	3	0.22910062	-1.8137217	-3.3174219	71.803894
339	5	2	-0.18891775	-2.3073105	-1.5946931	70.677429
340	5	2	0.77858323	-3.5947177	-2.1757838	70.23519
341	5	7	-0.50267261	-4.0366494	-1.930148	69.079169
342	5	8	-0.49506506	-4.2908865	-3.0433624	71.084044
343	5	5	0.14069294	-5.5207906	-3.6558502	70.714342
344	5	9	0.094343219	-6.2843092	-2.8760707	70.504263
345	5	9	0.094343219	-5.3745829	-4.2902773	69.814394
346	5	9	0.094343219	-5.8764751	-4.2930324	71.549712
347	1	1	-0.41098606	-8.3291459	9.9176593	66.742037
348	1	2	0.1524385	-8.194853	9.6836411	68.146302
349	1	2	-0.41003236	-8.6773604	10.566561	69.031875
350	1	3	0.22827807	-9.1741917	11.469011	68.695324
351	1	2	-0.093242954	-8.5287475	10.325354	70.479178
352	1	3	0.20854324	-8.9080497	11.06573	71.174901
353	1	2	-0.17402102	-7.9164719	9.2162599	70.927473
354	1	2	-0.17402105	-7.7593631	9.0138456	72.383936
355	1	2	-0.059952419	-6.5350573	9.0966801	72.931745
356	1	3	0.20854324	-5.6678332	9.3054945	72.316323
357	1	2	-0.44987744	-6.3507533	8.9246137	74.385879
358	1	3	0.23707678	-5.353978	8.9971314	74.802828
359	1	2	0.34616736	-7.4067625	8.692001	75.177618
360	1	1	-0.84386021	-7.2338341	8.5329704	76.587643
361	1	4	0.37262029	-6.2872863	8.5950432	77.026088
362	1	4	0.37262029	-8.0566754	8.350352	77.204779
363	1	2	-0.51507371	-8.7602627	8.5968516	74.584652
364	1	3	0.22694952	-9.6053309	8.4094581	75.235966
365	1	2	0.06945974	-8.9388656	8.7287732	73.25747
366	1	5	-0.14791898	-10.322571	8.6246756	72.672664
367	1	6	0.10307283	-11.016111	8.0928234	73.359708
368	1	6	0.10307283	-10.294689	8.0578545	71.719402
369	1	6	0.10307283	-10.721537	9.6427458	72.481772
370	1	2	0.027062137	-7.3983993	8.2143783	69.947877
371	1	5	-0.14791898	-6.712725	6.9586247	70.417329
372	1	6	0.10307281	-7.2516322	6.5310588	71.288173
373	1	6	0.10307281	-6.6909921	6.1834635	69.622514
374	1	6	0.10307281	-5.6698956	7.1956274	70.714175
375	1	2	-0.46408894	-7.5198902	8.4569246	68.629025
376	1	3	0.22327903	-7.1330828	7.7523828	67.903076
377	1	4	0.37705934	-8.802111	10.776523	66.380714
378	2	2	0.57939929	6.6731357	-2.0422435	74.351167
379	2	7	-0.52009588	7.9069738	-1.8118662	74.239096
380	2	2	-0.21149911	6.1799829	-3.2956421	74.968738
381	2	2	0.064713258	7.021295	-4.0497423	75.70423
382	2	3	0.23639594	8.0652903	-3.7727915	75.796755
383	2	2	-0.37945768	6.5384673	-5.2409865	76.44288
384	2	2	0.8326056	7.4875333	-6.0282503	77.265494
385	2	7	-0.5877313	8.4640961	-5.4329983	77.800584
386	2	2	-0.37790542	7.3353724	-7.4900402	77.472282
387	2	2	-0.10513169	7.7765897	-8.067547	78.599963
388	2	3	0.22389269	8.2225554	-7.4744187	79.389988
389	2	2	-0.10526416	7.6095536	-9.5164963	78.815401
390	2	3	0.22910065	7.9019422	-9.9263927	79.774887
391	2	2	-0.2058409	7.0324898	-10.291716	77.879277
392	2	2	0.77823365	6.7390211	-11.704019	78.212239
393	2	7	-0.50267267	5.7217498	-12.270575	77.725578
394	2	8	-0.49506503	7.565261	-12.392953	79.106902
395	2	5	0.14069289	7.3289008	-13.744499	79.484059
396	2	9	0.094343219	8.116654	-14.0672	80.195721
397	2	9	0.094343219	7.3633999	-14.400005	78.587692
398	2	9	0.094343219	6.3382489	-13.833764	79.977749
399	2	2	-0.12813334	6.6322573	-9.6770527	76.570528
400	2	2	0.80542291	6.2000274	-10.502175	75.418621
401	2	7	-0.477079	5.3948895	-10.034329	74.568323
402	2	10	-0.66235631	6.7140607	-11.782668	75.238737
403	2	11	0.42236683	6.4338375	-12.349083	74.44703
404	2	2	0.021455288	6.7586834	-8.3456337	76.404803
405	2	3	0.24817476	6.5065128	-7.891683	75.45463
406	2	2	-0.1051317	5.2310993	-5.5448616	76.40549
407	2	3	0.22389272	4.8354792	-6.3766027	76.974911
408	2	2	-0.096195903	4.3022994	-4.7511041	75.582538
409	2	3	0.22910062	3.267462	-5.0692123	75.529512
410	2	2	-0.17328412	4.7383132	-3.696283	74.868671
411	2	2	0.79031235	3.7926038	-3.0049694	73.962946
412	2	7	-0.50267261	2.5715937	-2.9187257	74.273624
413	2	8	-0.49506506	4.2424258	-2.4912497	72.74262
414	2	5	0.14069294	3.3824733	-1.8230961	71.826729
415	2	9	0.094343219	3.9699587	-1.5077795	70.939814
416	2	9	0.094343219	2.5723678	-2.5080021	71.496849
417	2	9	0.094343219	2.9417243	-0.923947	72.305396
418	4	1	-0.41098609	10.390753	5.1989182	115.63726
419	4	2	0.15243851	9.1788826	4.849949	114.96332
420	4	2	-0.41003236	8.1357722	5.6916841	114.96165
421	4	3	0.2282781	8.197461	6.6454746	115.47186
422	4	2	-0.09324294	6.8846508	5.3245044	114.27266
423	4	3	0.20854324	6.0486639	6.0132418	114.30428
424	4	2	-0.17402102	6.7777787	4.1477476	113.63273
425	4	2	-0.17402105	5.5017426	3.7946257	112.97215
426	4	2	-0.10771622	4.7420597	2.8144151	113.48999
427	4	3	0.20854324	5.0577503	2.2828395	114.3795
428	4	2	-0.38432127	3.4527215	2.4591281	112.86837
429	4	3	0.2244971	2.8576442	1.6653032	113.30478
430	4	2	0.22834084	3.0214589	3.1162795	111.78305
431	4	1	-0.52933395	1.7682788	2.7800947	111.18174
432	4	4	0.32294608	1.4330269	3.2912715	110.33535
433	4	2	-0.448576	3.8517245	4.1967351	111.20319
434	4	3	0.22050468	3.4912921	4.7207537	110.32668
435	4	2	0.01151704	5.0402067	4.5161671	111.74702
436	4	5	-0.14791898	5.8717051	5.6138615	111.14004
437	4	6	0.10307283	5.5803435	5.8112601	110.0868
438	4	6	0.10307283	6.9449255	5.3294336	111.14347
439	4	6	0.10307283	5.7393878	6.5470237	111.72793
440	4	2	0.027062144	7.9443928	3.2141899	113.60794
441	4	5	-0.14791898	7.8590174	1.8908247	112.89463
442	4	6	0.10307281	7.3311016	2.0118277	111.92574
443	4	6	0.10307281	8.8673732	1.4779506	112.6791
444	4	6	0.10307281	7.303821	1.1662358	113.52574
445	4	2	-0.46408894	9.0728989	3.551042	114.25961
446	4	3	0.22327903	9.9228201	2.8800678	114.27027
447	4	4	0.37705934	10.486098	6.1094382	116.13923
448	5	2	0.75216592	1.1566766	2.0063271	111.58125
449	5	7	-0.65612375	1.4389584	1.5414092	112.71618
450	5	2	-0.2752138	0.051490853	1.448158	110.77198
451	5	2	0.021468552	0.12721976	1.5688011	109.43357
452	5	3	0.24121629	0.9473532	2.1179514	108.98427
453	5	2	-0.3787989	-0.85733392	0.90547366	108.54667
454	5	2	0.8326056	-0.71395963	1.0231909	107.07432
455	5	7	-0.5877313	0.44416302	1.1368168	106.58788
456	5	2	-0.37945771	-1.8747576	1.0146087	106.15053
457	5	2	-0.10513169	-3.0578007	1.5381501	106.50853
458	5	3	0.22389269	-3.1957598	1.9894344	107.48298
459	5	2	-0.096195947	-4.1848523	1.5575112	105.56067
460	5	3	0.22910065	-5.1089922	2.0294689	105.87545
461	5	2	-0.17328412	-4.0507125	1.0657763	104.31484
462	5	2	0.79031235	-5.1732545	1.2184334	103.36091
463	5	7	-0.50267267	-6.3642688	1.1750175	103.77805
464	5	8	-0.49506503	-4.9140557	1.4583774	102.0073
465	5	5	0.14069289	-5.9474327	1.6204651	101.04451
466	5	9	0.094343219	-6.5810848	2.4934091	101.31
467	5	9	0.094343219	-6.5718848	0.70305109	100.99974
468	5	9	0.094343219	-5.4935763	1.7954118	100.04793
469	5	2	-0.21149908	-2.7476939	0.43918887	103.91555
470	5	2	0.57939923	-2.5976419	-0.26257344	102.61979
471	5	7	-0.52009588	-1.4625021	-0.58985786	102.18225
472	5	2	0.064713221	-1.7204221	0.44790804	104.78911
473	5	3	0.23639596	-0.7758219	-0.014263399	104.5275
474	5	2	-0.1051317	-1.8185037	0.14432543	109.09408
475	5	3	0.22389272	-2.5214485	-0.39918412	108.47445
476	5	2	-0.11597387	-1.9482711	0.04188244	110.5589
477	5	3	0.22910062	-2.7882007	-0.51344917	110.95956
478	5	2	-0.18891775	-1.0925579	0.68385228	111.37382
479	5	2	0.77858323	-1.3682686	0.68188885	112.828
480	5	7	-0.50267261	-1.1135542	1.7041659	113.52233
481	5	8	-0.49506506	-1.9644998	-0.43790775	113.41831
482	5	5	0.14069294	-2.2790335	-0.49853609	114.80463
483	5	9	0.094343219	-1.3530889	-0.38445241	115.40858
484	5	9	0.094343219	-2.9997199	0.3049801	115.06684
485	5	9	0.094343219	-2.738728	-1.4821614	115.0316
486	1	1	-0.41098606	11.203924	4.5434232	115.63813
487	1	2	0.1524385	11.056854	3.2052588	115.156
488	1	2	-0.41003236	12.099965	2.3635238	115.15767
489	1	3	0.22827807	13.067809	2.6863152	115.5232
490	1	2	-0.093242954	11.945831	0.98702724	114.65126
491	1	3	0.20854324	12.810487	0.33254112	114.64268
492	1	2	-0.17402102	10.758721	0.55769271	114.19041
493	1	2	-0.17402105	10.640648	-0.8196124	113.66503
494	1	2	-0.059952419	10.459584	-1.0080347	112.34685
495	1	3	0.20854324	10.396041	-0.16256284	111.67189
496	1	2	-0.44987744	10.363846	-2.371516	111.79022
497	1	3	0.23707678	10.219011	-2.4964706	110.72435
498	1	2	0.34616736	10.465511	-3.4382412	112.59513
499	1	1	-0.84386021	10.381661	-4.760736	112.05909
500	1	4	0.37262029	10.240967	-4.9209255	111.03606
501	1	4	0.37262029	10.459576	-5.5923316	112.6865
502	1	2	-0.51507371	10.663243	-3.2425232	114.04951
503	1	3	0.22694952	10.744814	-4.1132547	114.68876
504	1	2	0.06945974	10.72896	-2.0044979	114.57266
505	1	5	-0.14791898	10.926227	-1.8258145	116.05476
506	1	6	0.10307283	10.640455	-2.7413427	116.61694
507	1	6	0.10307283	10.295992	-0.99263756	116.42812
508	1	6	0.10307283	11.992948	-1.5992303	116.26176
509	1	2	0.027062137	9.584419	1.4809778	114.20862
510	1	5	-0.14791898	8.2391703	1.0292364	113.70494
511	1	6	0.10307281	8.0302499	-0.0056141442	114.04706
512	1	6	0.10307281	7.4220381	1.6791231	114.08312
513	1	6	0.10307281	8.2320325	1.055059	112.59541
514	1	2	-0.46408894	9.74336	2.7423084	114.65217
515	1	3	0.22327903	8.9090062	3.4328501	114.65478
516	1	4	0.37705934	12.121777	4.8897135	115.99802
517	2	2	0.57939929	-3.4666644	-0.52458124	102.03314
518	2	7	-0.52009588	-3.5604343	-0.059577513	100.86567
519	2	2	-0.21149911	-4.5043218	-1.427085	102.58482
520	2	2	0.064713258	-5.3828526	-2.017989	101.75029
521	2	3	0.23639594	-5.3680533	-1.7911555	100.69033
522	2	2	-0.37945768	-6.3534108	-3.0241188	102.24376
523	2	2	0.8326056	-7.2838143	-3.6746467	101.29068
524	2	7	-0.5877313	-6.9096261	-3.8408551	100.09624
525	2	2	-0.37790542	-8.6403392	-4.1263782	101.68882
526	2	2	-0.10513169	-9.2174662	-5.1705252	101.0752
527	2	3	0.22389269	-8.6928545	-5.719624	100.30183
528	2	2	-0.10526416	-10.557202	-5.6325321	101.48193
529	2	3	0.22910065	-10.948941	-6.5308072	101.01959
530	2	2	-0.2058409	-11.23661	-5.0052966	102.45931
531	2	2	0.77823365	-12.500105	-5.6072302	102.94185
532	2	7	-0.50267267	-12.832589	-5.4936923	104.15397
533	2	8	-0.49506503	-13.299262	-6.3443177	102.06107
534	2	5	0.14069289	-14.514799	-6.9644666	102.4644
535	2	9	0.094343219	-14.96551	-7.48341	101.59336
536	2	9	0.094343219	-15.227734	-6.1968222	102.83426
537	2	9	0.094343219	-14.314867	-7.7087526	103.26387
538	2	2	-0.12813334	-10.648295	-3.7722554	103.07924
539	2	2	0.80542291	-11.429174	-2.9085023	103.99505
540	2	7	-0.477079	-10.84512	-2.2406226	104.89112
541	2	10	-0.66235631	-12.80747	-2.7897804	103.84519
542	2	11	0.42236683	-13.347695	-2.191591	104.45877
543	2	2	0.021455288	-9.4079165	-3.38558	102.72138
544	2	3	0.24817476	-8.982924	-2.4791483	103.13399
545	2	2	-0.1051317	-6.3242219	-3.3767105	103.53905
546	2	3	0.22389272	-6.9830212	-4.1457768	103.92255
547	2	2	-0.096195903	-5.392623	-2.7195807	104.47193
548	2	3	0.22910062	-5.4462708	-2.9877143	105.5208