Title

92 atoms
95 bonds
166 angles
219 dihedrals
78 impropers

10 atom types
14 bond types
6 angle types
8 dihedral types
2 improper types
-10.32999992 89.67000008 xlo xhi
-3.73300004 96.26699996 ylo yhi
-9.416000366 90.58399963 zlo zhi
0.0 0.0 0.0 xy xz yz

Masses

1	15.99943
2	12.01078
3	12.01078
4	1.007947
5	1.007947
6	18.998403
7	15.99943
8	15.99943
9	1.007947
10	35.4532


Pair Coeffs

1	0.16846514	3.0251065
2	0.086879315	3.4806469
3	0.10884061	3.3795318
4	0.015779483	2.6445434
5	0.015611343	2.5725815
6	0.061	3.1181455
7	0.2102061	3.0398122
8	0.20947353	2.99716
9	1.2326e-05	0.53453923
10	0.2656001	3.3075278

Bond Coeffs

1 harmonic	425.69104206635	1.362945806494
2 harmonic	300.03137914615	1.451203938761
3 harmonic	360.7852444772	1.387193227181
4 harmonic	289.73813263395	1.498646816465
5 harmonic	370.04670688625	1.093899492634
6 harmonic	397.2545789619	1.085358495916
7 harmonic	264.62148576755	1.52190126495
8 harmonic	301.15400723785	1.345741232799
9 harmonic	340.45121009905	1.358690858053
10 harmonic	582.698766451	1.225198386222
11 harmonic	279.1350963404	1.454628925034
12 harmonic	385.7604595587	1.369745182308
13 harmonic	543.5267831885	0.9716763312559
14 harmonic	218.0227703685	1.746066037062


Angle Coeffs

1 harmonic	57.8982893754	126.8062420451
2 harmonic	65.09061609600001	110.3538806181
3 harmonic	53.20531626545	116.5475862634
4 harmonic	34.066775159195	129.1835929926
5 harmonic	48.776492647595	115.6030999533
6 harmonic	201.41175231035	127.4691416191


Dihedral Coeffs

1 fourier 1	3.661930099076	2	180
2 fourier 1	1.532232714475	2	180
3 fourier 1	0.457973137376	1	0
4 fourier 1	0.02664938770063	3	0
5 fourier 1	0.1155372516788	3	0
6 fourier 1	2.779853741805	2	180
7 fourier 1	0.9974165607242	2	180
8 fourier 1	0.8283030590042	2	180


Improper Coeffs

1 0.3666666666666667	-1	2
2 3.5	-1	2


Atoms

1	1	1	0.0096270004	-4.6290002	1.83	0.78899997
2	1	2	-0.054852001	-3.5350001	1	0.52899998
3	1	2	-0.022229999	-2.4549999	1.064	1.329
4	1	3	-0.13630299	-2.4189999	2.013	2.4949999
5	1	4	0.099104002	-1.457	1.941	3.0450001
6	1	4	0.099104002	-3.243	1.775	3.2
7	1	4	0.099104002	-2.536	3.0569999	2.1340001
8	1	2	-0.28299999	-1.288	0.193	1.064
9	1	5	0.215434	-0.44100001	0.25400001	1.735
10	1	2	0.0051480001	-1.2589999	-0.653	0.0099999998
11	1	3	-0.267232	-0.024	-1.567	-0.205
12	1	2	0.0051480001	1.262	-0.708	-0.081
13	1	2	-0.277154	2.381	-1.135	0.54500002
14	1	5	0.215434	2.4219999	-2.1010001	1.02
15	1	2	-0.022891	3.6040001	-0.29699999	0.60299999
16	1	3	-0.132745	4.809	-0.824	1.334
17	1	4	0.099104002	5.0799999	-0.13699999	2.164
18	1	4	0.099104002	4.612	-1.825	1.772
19	1	4	0.099104002	5.665	-0.92000002	0.63300002
20	1	2	0.158748	3.6159999	0.912	-0.0020000001
21	1	1	-0.38401401	4.7470002	1.737	0.015
22	1	2	-0.022891	2.4059999	1.39	-0.71499997
23	1	3	-0.132745	2.4349999	2.7090001	-1.434
24	1	4	0.099104002	2.993	2.598	-2.3870001
25	1	4	0.099104002	2.937	3.4749999	-0.80599999
26	1	4	0.099104002	1.41	3.076	-1.659
27	1	2	-0.277154	1.313	0.61299998	-0.77100003
28	1	5	0.215434	0.447	0.95300001	-1.324
29	1	3	0.752446	-0.121	-2.7079999	0.86500001
30	1	6	-0.20250501	0.131	-2.2179999	2.1359999
31	1	6	-0.20250501	0.77399999	-3.733	0.602
32	1	6	-0.20250501	-1.393	-3.2579999	0.86900002
33	1	3	0.752446	0.016000001	-2.2119999	-1.631
34	1	6	-0.20250501	1.244	-2.8150001	-1.854
35	1	6	-0.20250501	-0.16599999	-1.252	-2.6129999
36	1	6	-0.20250501	-0.958	-3.1860001	-1.775
37	1	2	-0.28299999	-2.477	-0.73000002	-0.85000002
38	1	5	0.215434	-2.5139999	-1.4170001	-1.6799999
39	1	2	-0.022229999	-3.55	0.048	-0.616
40	1	3	-0.13630299	-4.7600002	-0.048999999	-1.506
41	1	4	0.099104002	-5.645	-0.33500001	-0.90100002
42	1	4	0.099104002	-4.9450002	0.93300003	-1.99
43	1	4	0.099104002	-4.6329999	-0.80800003	-2.3069999
44	1	2	0.629695	5.6459999	1.4809999	0.49000001
45	1	7	-0.48349699	6.1900001	0.41999999	0.234
46	1	1	0.0096270004	-5.4660001	1.827	0.221
47	1	2	-0.054852001	-5.6300001	2.6570001	-0.89200002
48	1	2	-0.022229999	-6.7719998	2.5929999	-1.6
49	1	3	-0.13630299	-7.868	1.643	-1.2029999
50	1	4	0.099104002	-8.7340002	1.715	-1.8940001
51	1	4	0.099104002	-8.2200003	1.882	-0.177
52	1	4	0.099104002	-7.4889998	0.60000002	-1.228
53	1	2	-0.28299999	-6.9559999	3.464	-2.783
54	1	5	0.215434	-7.8930001	3.402	-3.322
55	1	2	0.0051480001	-5.987	4.3099999	-3.1989999
56	1	3	-0.267232	-6.243	5.223	-4.427
57	1	2	0.0051480001	-6.8330002	4.3639998	-5.5749998
58	1	2	-0.238524	-7.8280001	4.7919998	-6.3839998
59	1	5	0.215434	-8.2849998	5.7579999	-6.2470002
60	1	2	-0.21992099	-8.3339996	3.9530001	-7.5
61	1	3	-0.118152	-9.4589996	4.4809999	-8.349
62	1	4	0.099104002	-10.33	3.7939999	-8.2950001
63	1	4	0.099104002	-9.7930002	5.4819999	-8.0039997
64	1	4	0.099104002	-9.1239996	4.5770001	-9.4040003
65	1	2	0.1248	-7.776	2.7449999	-7.7340002
66	1	8	-0.61850899	-8.2089996	1.92	-8.7790003
67	1	9	0.440009	-8.9560003	2.1670001	-9.4160004
68	1	2	-0.21992099	-6.6669998	2.267	-6.8730001
69	1	3	-0.118152	-6.0089998	0.94700003	-7.165
70	1	4	0.099104002	-5.3299999	1.059	-8.0360003
71	1	4	0.099104002	-6.7779999	0.18099999	-7.4000001
72	1	4	0.099104002	-5.4219999	0.58099997	-6.2950001
73	1	2	-0.238524	-6.2119999	3.0439999	-5.8779998
74	1	5	0.215434	-5.3769999	2.7030001	-5.277
75	1	3	0.752446	-7.2020001	6.3649998	-3.941
76	1	6	-0.20250501	-8.4759998	5.8740001	-3.7049999
77	1	6	-0.20250501	-7.2880001	7.3899999	-4.869
78	1	6	-0.20250501	-6.7360001	6.915	-2.757
79	1	3	0.752446	-4.9330001	5.869	-4.9899998
80	1	6	-0.20250501	-5.1789999	6.4720001	-6.2129998
81	1	6	-0.20250501	-3.9530001	4.9089999	-5.1830001
82	1	6	-0.20250501	-4.4400001	6.8429999	-4.138
83	1	2	-0.28299999	-4.7379999	4.3860002	-2.385
84	1	5	0.215434	-3.9530001	5.073	-2.6570001
85	1	2	-0.022229999	-4.5599999	3.609	-1.301
86	1	3	-0.13630299	-3.286	3.7060001	-0.50599998
87	1	4	0.099104002	-3.5209999	3.9909999	0.54100001
88	1	4	0.099104002	-2.7679999	2.724	-0.51200002
89	1	4	0.099104002	-2.5880001	4.4650002	-0.91900003
90	1	2	0.46916899	6.0910001	2.1600001	1.209
91	1	7	-0.55430502	5.5949998	3.257	1.4
92	1	10	-0.074542999	7.5240002	1.679	2.0969999

Bonds

1	1	1	2
2	2	1	46
3	3	2	3
4	3	2	39
5	4	3	4
6	3	3	8
7	5	4	5
8	5	4	6
9	5	4	7
10	6	8	9
11	3	8	10
12	4	10	11
13	3	10	37
14	4	11	12
15	7	11	29
16	7	11	33
17	3	12	13
18	3	12	27
19	6	13	14
20	3	13	15
21	4	15	16
22	3	15	20
23	5	16	17
24	5	16	18
25	5	16	19
26	1	20	21
27	3	20	22
28	8	21	44
29	4	22	23
30	3	22	27
31	5	23	24
32	5	23	25
33	5	23	26
34	6	27	28
35	9	29	30
36	9	29	31
37	9	29	32
38	9	33	34
39	9	33	35
40	9	33	36
41	6	37	38
42	3	37	39
43	4	39	40
44	5	40	41
45	5	40	42
46	5	40	43
47	10	44	45
48	11	44	90
49	1	46	47
50	3	47	48
51	3	47	85
52	4	48	49
53	3	48	53
54	5	49	50
55	5	49	51
56	5	49	52
57	6	53	54
58	3	53	55
59	4	55	56
60	3	55	83
61	4	56	57
62	7	56	75
63	7	56	79
64	3	57	58
65	3	57	73
66	6	58	59
67	3	58	60
68	4	60	61
69	3	60	65
70	5	61	62
71	5	61	63
72	5	61	64
73	12	65	66
74	3	65	68
75	13	66	67
76	4	68	69
77	3	68	73
78	5	69	70
79	5	69	71
80	5	69	72
81	6	73	74
82	9	75	76
83	9	75	77
84	9	75	78
85	9	79	80
86	9	79	81
87	9	79	82
88	6	83	84
89	3	83	85
90	4	85	86
91	5	86	87
92	5	86	88
93	5	86	89
94	10	90	91
95	14	90	92

Angles

1	4	59	58	60
2	4	55	83	84
3	3	57	56	79
4	4	57	58	59
5	1	2	3	8
6	3	60	61	62
7	1	1	2	39
8	1	1	2	3
9	3	15	16	19
10	3	76	75	78
11	1	46	47	85
12	3	57	56	75
13	3	56	79	81
14	1	65	68	69
15	3	81	79	82
16	5	70	69	71
17	1	48	53	55
18	5	18	16	19
19	3	85	86	87
20	3	3	4	6
21	3	12	11	33
22	4	9	8	10
23	1	3	2	39
24	3	11	29	32
25	3	56	75	76
26	1	69	68	73
27	5	41	40	43
28	1	58	57	73
29	4	84	83	85
30	3	34	33	36
31	3	12	11	29
32	1	15	20	21
33	1	44	90	91
34	3	68	69	72
35	5	25	23	26
36	4	12	27	28
37	5	50	49	51
38	1	57	73	68
39	5	70	69	72
40	3	48	49	50
41	2	2	1	46
42	3	3	4	7
43	5	6	4	7
44	3	56	75	77
45	3	39	40	43
46	1	4	3	8
47	1	8	10	37
48	3	22	23	24
49	1	2	39	37
50	1	56	57	58
51	1	47	85	86
52	1	13	12	27
53	3	11	33	34
54	5	24	23	26
55	1	44	90	92
56	1	48	47	85
57	1	65	68	73
58	5	50	49	52
59	1	21	20	22
60	5	63	61	64
61	1	12	13	15
62	1	83	85	86
63	1	60	65	68
64	3	29	11	33
65	3	55	56	57
66	3	30	29	31
67	4	68	73	74
68	5	5	4	6
69	1	47	48	53
70	1	55	83	85
71	5	87	86	88
72	1	3	8	10
73	3	11	33	35
74	1	57	58	60
75	4	3	8	9
76	3	60	61	63
77	1	20	22	23
78	3	80	79	81
79	3	31	29	32
80	1	13	15	16
81	3	30	29	32
82	3	56	79	82
83	5	5	4	7
84	1	66	65	68
85	1	16	15	20
86	5	42	40	43
87	3	75	56	79
88	3	85	86	88
89	3	10	11	12
90	1	21	44	90
91	2	20	21	44
92	3	39	40	41
93	1	58	60	61
94	4	54	53	55
95	3	80	79	82
96	1	91	90	92
97	1	61	60	65
98	1	46	47	48
99	1	23	22	27
100	4	14	13	15
101	5	17	16	18
102	1	15	20	22
103	1	45	44	90
104	3	15	16	17
105	1	53	55	83
106	3	3	4	5
107	3	48	49	51
108	3	85	86	89
109	4	10	37	38
110	1	20	22	27
111	3	56	75	78
112	1	8	10	11
113	5	62	61	63
114	3	22	23	25
115	2	65	66	67
116	1	2	3	4
117	1	13	15	20
118	5	17	16	19
119	3	11	29	30
120	1	11	12	13
121	3	48	49	52
122	1	47	85	83
123	1	58	60	65
124	3	68	69	70
125	3	22	23	26
126	2	1	46	47
127	4	48	53	54
128	5	87	86	89
129	3	11	33	36
130	3	60	61	64
131	3	11	29	31
132	3	55	56	79
133	5	41	40	42
134	1	12	27	22
135	5	71	69	72
136	1	49	48	53
137	3	34	33	35
138	6	21	44	45
139	3	10	11	33
140	4	38	37	39
141	1	53	55	56
142	3	68	69	71
143	3	55	56	75
144	1	2	39	40
145	1	56	55	83
146	5	88	86	89
147	1	60	65	66
148	4	22	27	28
149	4	57	73	74
150	3	39	40	42
151	3	10	11	29
152	3	35	33	36
153	5	51	49	52
154	5	24	23	25
155	1	56	57	73
156	1	11	10	37
157	3	15	16	18
158	1	37	39	40
159	3	76	75	77
160	4	12	13	14
161	3	77	75	78
162	1	10	37	39
163	3	56	79	80
164	1	11	12	27
165	5	62	61	64
166	1	47	48	49

Dihedrals

1	5	29	11	33	35
2	4	20	22	23	26
3	1	58	57	73	68
4	1	57	73	68	65
5	1	10	37	39	40
6	4	24	23	22	27
7	2	3	2	1	46
8	4	13	15	16	18
9	5	57	56	79	80
10	1	46	47	48	53
11	4	2	3	4	6
12	1	38	37	39	40
13	4	79	56	55	83
14	4	33	11	10	37
15	5	57	56	75	77
16	1	48	53	55	56
17	1	3	2	39	37
18	1	14	13	15	20
19	4	83	85	86	88
20	1	46	47	85	83
21	5	55	56	79	81
22	1	56	57	73	74
23	5	55	56	75	76
24	4	12	11	10	37
25	4	27	12	11	33
26	1	9	8	10	37
27	1	58	60	65	68
28	1	14	13	15	16
29	5	10	11	33	35
30	4	2	39	40	42
31	1	47	85	83	55
32	4	2	3	4	7
33	5	10	11	29	30
34	4	55	56	57	73
35	5	76	75	56	79
36	5	55	56	79	82
37	4	47	48	49	50
38	2	20	21	44	45
39	4	13	12	11	33
40	1	11	12	13	14
41	5	10	11	33	36
42	4	2	39	40	43
43	1	1	2	3	8
44	1	12	27	22	23
45	4	47	85	86	88
46	1	11	10	37	39
47	4	52	49	48	53
48	4	13	12	11	29
49	1	11	12	27	28
50	1	16	15	20	22
51	1	60	58	57	73
52	7	21	44	90	91
53	1	61	60	65	68
54	4	71	69	68	73
55	1	13	12	27	28
56	1	55	83	85	86
57	2	1	46	47	48
58	4	58	60	61	64
59	5	12	11	29	32
60	1	2	3	8	10
61	1	56	55	83	85
62	4	65	68	69	70
63	1	2	3	8	9
64	1	1	2	39	40
65	1	56	57	58	60
66	1	49	48	47	85
67	4	37	39	40	42
68	1	53	55	83	84
69	4	25	23	22	27
70	4	47	85	86	89
71	1	8	10	37	38
72	1	20	22	27	28
73	5	29	11	33	36
74	1	59	58	60	65
75	7	45	44	90	91
76	1	47	85	83	84
77	4	64	61	60	65
78	7	21	44	90	92
79	4	57	56	55	83
80	4	13	15	16	19
81	1	58	60	65	66
82	4	6	4	3	8
83	4	53	55	56	79
84	5	57	56	79	81
85	1	12	27	22	20
86	1	58	57	73	74
87	1	59	58	60	61
88	4	65	68	69	71
89	4	73	57	56	79
90	5	57	56	75	78
91	5	75	56	79	80
92	4	26	23	22	27
93	1	3	8	10	37
94	4	37	39	40	43
95	4	10	11	12	27
96	1	53	55	83	85
97	4	83	85	86	89
98	1	8	10	37	39
99	4	53	55	56	75
100	5	12	11	33	34
101	4	19	16	15	20
102	7	45	44	90	92
103	5	55	56	75	77
104	4	73	57	56	75
105	4	5	4	3	8
106	1	1	2	39	37
107	1	13	15	20	21
108	4	55	56	57	58
109	5	57	56	79	82
110	4	2	3	4	5
111	5	30	29	11	33
112	1	48	47	85	86
113	5	10	11	29	31
114	4	20	22	23	24
115	5	77	75	56	79
116	8	60	65	66	67
117	4	29	11	10	37
118	4	18	16	15	20
119	1	54	53	55	83
120	1	49	48	53	54
121	4	70	69	68	73
122	5	12	11	33	35
123	4	17	16	15	20
124	4	7	4	3	8
125	4	47	48	49	51
126	4	75	56	55	83
127	4	8	10	11	12
128	5	55	56	75	78
129	4	58	57	56	75
130	5	31	29	11	33
131	1	11	12	13	15
132	5	78	75	56	79
133	5	10	11	29	32
134	1	4	3	8	10
135	1	69	68	73	74
136	1	4	3	8	9
137	1	60	65	68	73
138	1	3	2	39	40
139	4	8	10	11	33
140	1	4	3	2	39
141	4	51	49	48	53
142	4	50	49	48	53
143	4	63	61	60	65
144	4	13	15	16	17
145	3	2	1	46	47
146	1	57	58	60	65
147	4	47	48	49	52
148	1	48	47	85	83
149	1	56	57	73	68
150	1	14	13	12	27
151	1	8	3	2	39
152	5	57	56	75	76
153	1	60	65	68	69
154	4	8	10	11	29
155	1	2	39	37	38
156	1	57	58	60	61
157	1	47	48	53	54
158	5	55	56	79	80
159	4	62	61	60	65
160	1	9	8	10	11
161	4	72	69	68	73
162	1	23	22	27	28
163	1	15	13	12	27
164	1	66	65	68	73
165	1	12	13	15	20
166	1	21	20	22	23
167	5	10	11	33	34
168	4	2	39	40	41
169	4	65	68	69	72
170	1	54	53	55	56
171	1	3	8	10	11
172	1	59	58	57	73
173	1	61	60	65	66
174	5	75	56	79	81
175	4	58	57	56	79
176	1	48	53	55	83
177	4	58	60	61	62
178	1	66	65	68	69
179	1	12	13	15	16
180	2	15	20	21	44
181	2	1	46	47	85
182	1	47	48	53	55
183	5	12	11	29	30
184	2	22	20	21	44
185	1	53	48	47	85
186	1	11	12	27	22
187	1	13	15	20	22
188	1	1	2	3	4
189	1	13	12	27	22
190	4	47	85	86	87
191	5	29	11	33	34
192	1	15	20	22	27
193	1	11	10	37	38
194	4	10	11	12	13
195	4	20	22	23	25
196	6	20	21	44	90
197	2	39	2	1	46
198	1	65	68	73	74
199	1	16	15	20	21
200	5	75	56	79	82
201	4	27	12	11	29
202	1	2	39	37	10
203	1	46	47	85	86
204	4	58	60	61	63
205	1	49	48	53	55
206	5	12	11	33	36
207	1	46	47	48	49
208	5	32	29	11	33
209	5	12	11	29	31
210	1	15	20	22	23
211	1	57	73	68	69
212	1	56	55	83	84
213	4	53	55	56	57
214	1	56	57	58	59
215	1	84	83	85	86
216	4	37	39	40	41
217	1	21	20	22	27
218	4	83	85	86	87
219	8	67	66	65	68

Impropers

5	1	55	83	53	56
12	1	27	22	28	12
15	1	47	46	48	85
20	1	12	27	11	13
22	1	12	13	27	11
33	1	73	57	68	74
40	1	55	53	56	83
51	2	44	45	90	21
65	1	15	13	16	20
68	1	73	74	57	68
78	1	65	66	68	60
80	1	10	8	11	37
90	1	58	60	57	59
99	1	15	20	13	16
109	1	90	91	92	44
113	1	85	86	47	83
115	1	65	68	60	66
118	1	90	44	91	92
121	1	2	3	39	1
132	1	39	37	40	2
135	2	44	21	45	90
138	1	58	57	59	60
144	1	13	14	15	12
172	1	68	69	73	65
180	1	37	10	38	39
195	1	3	2	4	8
196	1	47	85	46	48
207	1	85	83	86	47
208	1	22	23	27	20
209	1	48	49	53	47
214	1	20	22	15	21
215	1	3	4	8	2
216	1	90	92	44	91
232	1	8	10	3	9
238	1	20	21	22	15
239	1	83	85	55	84
241	1	60	61	65	58
265	1	20	15	21	22
275	1	48	47	49	53
276	1	58	59	60	57
282	1	13	12	14	15
286	1	37	39	10	38
290	1	57	73	56	58
304	1	12	11	13	27
307	1	53	54	55	48
308	1	22	27	20	23
318	1	8	9	10	3
335	1	48	53	47	49
340	1	10	11	37	8
347	1	2	1	3	39
353	1	27	28	12	22
355	1	85	47	83	86
360	1	39	40	2	37
362	1	73	68	74	57
365	1	65	60	66	68
370	1	57	58	73	56
375	2	44	90	21	45
377	1	53	55	48	54
381	1	15	16	20	13
382	1	10	37	8	11
391	1	2	39	1	3
393	1	60	65	58	61
396	1	47	48	85	46
401	1	39	2	37	40
407	1	53	48	54	55
413	1	55	56	83	53
416	1	83	84	85	55
418	1	13	15	12	14
427	1	22	20	23	27
428	1	60	58	61	65
431	1	8	3	9	10
441	1	37	38	39	10
442	1	57	56	58	73
446	1	27	12	22	28
467	1	83	55	84	85
477	1	3	8	2	4
485	1	68	73	65	69
486	1	68	65	69	73
