Title

57 atoms
56 bonds
101 angles
167 dihedrals
12 impropers

8 atom types
11 bond types
5 angle types
27 dihedral types
2 improper types
-2.105000019 97.89499998 xlo xhi
-1.297000051 98.70299995 ylo yhi
-1.378000021 98.62199998 zlo zhi
0.0 0.0 0.0 xy xz yz

Masses

1	15.99943
2	12.01078
3	1.007947
4	1.007947
5	12.01078
6	15.99943
7	15.99943
8	1.007947


Pair Coeffs

1	0.16846514	3.0251065
2	0.10884061	3.3795318
3	0.016409246	2.5832257
4	0.015779483	2.6445434
5	0.086879315	3.4806469
6	0.2102061	3.0398122
7	0.20947353	2.99716
8	1.2326e-05	0.53453923

Bond Coeffs

1 harmonic	366.7408841747	1.425895053732
2 harmonic	300.03137914615	1.451203938761
3 harmonic	264.62148576755	1.52190126495
4 harmonic	370.04670688625	1.093899492634
5 harmonic	301.15400723785	1.345741232799
6 harmonic	582.698766451	1.225198386222
7 harmonic	329.44145381095	1.523435958334
8 harmonic	279.1350963404	1.454628925034
9 harmonic	329.96998057905	1.427343958716
10 harmonic	543.5267831885	0.9716763312559
11 harmonic	385.7604595587	1.369745182308


Angle Coeffs

1 harmonic	53.20531626545	116.5475862634
2 harmonic	65.09061609600001	110.3538806181
3 harmonic	201.41175231035	127.4691416191
4 harmonic	57.8982893754	126.8062420451
5 harmonic	48.776492647595	115.6030999533


Dihedral Coeffs

1 fourier 1	0.1155372516788	3	0
2 fourier 1	0.1115525666802	3	0
3 fourier 1	0.3432490222662	1	0
4 fourier 1	0.0473758381877	3	0
5 fourier 1	0.457973137376	1	0
6 fourier 1	0.1040663847541	3	0
7 fourier 1	0.1918272375143	3	0
8 fourier 1	0.9202179876409	1	180
9 fourier 1	1.163809172478	2	180
10 fourier 1	0.1679186987369	1	180
11 fourier 1	2.779853741805	2	180
12 fourier 1	0.02664938770063	3	0
13 fourier 1	0.1911926717192	3	0
14 fourier 1	-0.3703352413219	2	0
15 fourier 1	0.4541676554336	1	0
16 fourier 1	0.1489710476446	2	0
17 fourier 1	0.02960027280666	3	180
18 fourier 1	0.09223874044423	3	0
19 fourier 1	0.3159935921949	2	180
20 fourier 1	0.3247796806857	1	180
21 fourier 1	0.9974165607242	2	180
22 fourier 1	0.3445382149273	3	0
23 fourier 1	0.1364556373303	1	0
24 fourier 1	0.3026390167484	3	0
25 fourier 1	2.687457892086	2	180
26 fourier 1	2.772607909663	2	180
27 fourier 1	0.09692684957115	1	0


Improper Coeffs

1 3.5	-1	2
2 0.3666666666666667	-1	2


Atoms

1	1	1	-0.17807899	-1.834	0.66500002	-0.51800001
2	1	2	0.040878002	-1.288	-0.54500002	-0.064999998
3	1	2	-0.13552099	0.113	-0.331	0.51700002
4	1	2	0.14587	1.099	0.17299999	-0.54100001
5	1	1	-0.49427399	2.3800001	0.29899999	0.012
6	1	3	0.080020003	0.76099998	1.15	-0.95499998
7	1	3	0.080020003	1.149	-0.55599999	-1.378
8	1	4	0.092398003	0.48199999	-1.2970001	0.926
9	1	4	0.092398003	0.057	0.39899999	1.354
10	1	3	0.082124002	-1.949	-0.99699998	0.70999998
11	1	3	0.082124002	-1.2359999	-1.258	-0.91600001
12	1	5	0.76250899	2.3710001	1.164	0.58899999
13	1	6	-0.55071902	1.354	1.837	0.63700002
14	1	2	-0.20913801	3.586	1.589	1.359
15	1	2	-0.112833	4.744	0.60399997	1.158
16	1	2	-0.091990001	5.9829998	1.044	1.946
17	1	2	-0.25734299	7.1409998	0.059	1.7460001
18	1	5	0.51771897	8.3559999	0.48500001	2.5150001
19	1	6	-0.68101197	9.3730001	-0.18799999	2.4679999
20	1	4	0.114513	6.8340001	-0.95200002	2.0910001
21	1	4	0.114513	7.401	0.0040000002	0.667
22	1	4	0.076049998	5.7309999	1.098	3.029
23	1	4	0.076049998	6.2979999	2.0550001	1.604
24	1	4	0.084991001	4.4289999	-0.40700001	1.5
25	1	4	0.084991001	4.9959998	0.55000001	0.075999998
26	1	4	0.11788	3.326	1.6440001	2.438
27	1	4	0.11788	3.8929999	2.6010001	1.0140001
28	1	1	-0.177351	-2.105	1.174	0.28999999
29	1	2	0.049295001	-1.397	2.3840001	0.25799999
30	1	2	-0.170763	0.071999997	2.1700001	0.639
31	1	2	0.096166998	0.22	1.666	2.0780001
32	1	7	-0.68461001	1.576	1.54	2.4100001
33	1	8	0.379246	1.901	0.71399999	1.965
34	1	3	0.074516997	-0.29899999	0.68800002	2.2049999
35	1	3	0.074516997	-0.24600001	2.395	2.776
36	1	4	0.096240997	0.61299998	3.135	0.53500003
37	1	4	0.096240997	0.53299999	1.4400001	-0.061999999
38	1	3	0.081970997	-1.456	2.836	-0.75800002
39	1	3	0.081970997	-1.868	3.0969999	0.96799999
40	1	5	0.51771897	8.3459997	1.387	3.118
41	1	6	-0.68101197	8.1000004	1.312	4.3109999
42	1	2	-0.25734299	8.6149998	2.717	2.4790001
43	1	2	-0.091990001	9.908	3.3340001	3.0220001
44	1	2	-0.110309	10.2	4.6820002	2.345
45	1	2	-0.219147	11.454	5.3590002	2.914
46	1	5	0.82474399	12.7	4.6090002	2.556
47	1	6	-0.55197603	13.2	4.7280002	1.405
48	1	7	-0.66452199	13.289	3.7579999	3.4849999
49	1	8	0.39544499	14.124	3.234	3.2539999
50	1	4	0.118912	11.372	5.4460001	4.0190001
51	1	4	0.118912	11.526	6.3889999	2.5020001
52	1	4	0.084991001	9.335	5.362	2.5079999
53	1	4	0.084991001	10.317	4.539	1.248
54	1	4	0.076049998	9.8120003	3.4879999	4.119
55	1	4	0.076049998	10.751	2.6340001	2.835
56	1	4	0.114513	8.7049999	2.573	1.38
57	1	4	0.114513	7.756	3.3940001	2.675

Bonds

1	1	1	2
2	2	1	28
3	3	2	3
4	4	2	10
5	4	2	11
6	3	3	4
7	4	3	8
8	4	3	9
9	1	4	5
10	4	4	6
11	4	4	7
12	5	5	12
13	6	12	13
14	7	12	14
15	3	14	15
16	4	14	26
17	4	14	27
18	3	15	16
19	4	15	24
20	4	15	25
21	3	16	17
22	4	16	22
23	4	16	23
24	7	17	18
25	4	17	20
26	4	17	21
27	6	18	19
28	8	18	40
29	1	28	29
30	3	29	30
31	4	29	38
32	4	29	39
33	3	30	31
34	4	30	36
35	4	30	37
36	9	31	32
37	4	31	34
38	4	31	35
39	10	32	33
40	6	40	41
41	7	40	42
42	3	42	43
43	4	42	56
44	4	42	57
45	3	43	44
46	4	43	54
47	4	43	55
48	3	44	45
49	4	44	52
50	4	44	53
51	7	45	46
52	4	45	50
53	4	45	51
54	6	46	47
55	11	46	48
56	10	48	49

Angles

1	1	29	30	36
2	5	24	15	25
3	2	2	1	28
4	1	42	43	44
5	1	15	16	17
6	1	44	45	50
7	1	16	17	20
8	5	56	42	57
9	1	30	31	34
10	1	15	16	22
11	5	52	44	53
12	1	29	30	37
13	4	18	40	41
14	1	3	2	11
15	1	44	45	46
16	1	12	14	26
17	5	38	29	39
18	1	30	31	35
19	5	22	16	23
20	1	40	42	43
21	4	18	40	42
22	1	2	3	9
23	4	17	18	40
24	4	45	46	47
25	5	20	17	21
26	1	16	15	24
27	1	46	45	50
28	1	28	29	30
29	4	41	40	42
30	1	1	2	10
31	1	3	4	7
32	5	10	2	11
33	1	30	29	38
34	4	45	46	48
35	1	16	15	25
36	1	12	14	15
37	1	40	42	56
38	1	42	43	54
39	1	14	15	24
40	1	3	4	5
41	1	44	45	51
42	1	16	17	21
43	1	31	30	36
44	1	28	29	38
45	1	15	16	23
46	1	1	2	3
47	1	12	14	27
48	2	31	32	33
49	1	14	15	16
50	2	1	28	29
51	3	5	12	13
52	1	4	3	8
53	1	18	17	20
54	5	26	14	27
55	1	44	43	54
56	1	5	4	6
57	1	16	17	18
58	1	17	16	22
59	5	34	31	35
60	1	43	42	56
61	1	15	14	26
62	5	54	43	55
63	1	32	31	34
64	1	30	31	32
65	2	46	48	49
66	1	1	2	11
67	4	5	12	14
68	1	43	44	52
69	1	46	45	51
70	1	4	3	9
71	1	18	17	21
72	1	44	43	55
73	1	29	30	31
74	1	17	16	23
75	1	43	42	57
76	1	15	14	27
77	5	6	4	7
78	4	17	18	19
79	1	43	44	53
80	1	2	3	4
81	2	4	5	12
82	1	40	42	57
83	1	42	43	55
84	1	14	15	25
85	5	50	45	51
86	1	31	30	37
87	1	3	2	10
88	5	36	30	37
89	1	2	3	8
90	4	19	18	40
91	1	43	44	45
92	1	30	29	39
93	1	45	44	52
94	4	13	12	14
95	3	47	46	48
96	1	5	4	7
97	1	3	4	6
98	5	8	3	9
99	1	28	29	39
100	1	45	44	53
101	1	32	31	35

Dihedrals

1	13	8	3	2	10
2	2	28	29	30	37
2	3	28	29	30	37
3	1	1	2	3	4
4	14	44	45	46	47
5	24	33	32	31	34
6	13	37	30	29	38
7	4	1	28	29	30
8	11	4	5	12	14
9	6	42	43	44	52
10	1	46	45	44	53
11	6	29	30	31	34
12	12	48	46	45	50
13	13	20	17	16	23
14	18	14	15	16	17
14	19	14	15	16	17
14	20	14	15	16	17
15	6	31	30	29	38
16	12	44	45	46	48
17	2	32	31	30	36
17	3	32	31	30	36
18	15	41	40	42	56
18	16	41	40	42	56
18	17	41	40	42	56
19	13	6	4	3	8
20	12	48	46	45	51
21	6	15	16	17	21
22	6	2	3	4	6
23	13	22	16	15	25
24	13	35	31	30	37
25	6	43	44	45	51
26	13	23	16	15	24
27	13	21	17	16	22
28	1	40	42	43	44
29	15	47	46	45	50
29	16	47	46	45	50
29	17	47	46	45	50
30	13	7	4	3	9
31	13	9	3	2	10
32	15	41	40	42	57
32	16	41	40	42	57
32	17	41	40	42	57
33	21	19	18	40	41
34	13	6	4	3	9
35	13	54	43	42	56
36	18	42	43	44	45
36	19	42	43	44	45
36	20	42	43	44	45
37	13	51	45	44	52
38	13	52	44	43	54
39	26	47	46	48	49
39	27	47	46	48	49
40	6	2	3	4	7
41	1	18	17	16	22
42	13	8	3	2	11
43	13	21	17	16	23
44	13	23	16	15	25
45	12	20	17	18	40
46	22	30	31	32	33
46	23	30	31	32	33
47	13	36	30	29	39
48	13	24	15	14	26
49	1	15	16	17	18
50	6	16	15	14	26
51	6	17	16	15	24
52	12	16	17	18	40
53	6	44	43	42	56
54	12	18	40	42	56
55	6	45	44	43	54
56	4	3	2	1	28
57	2	1	2	3	8
57	3	1	2	3	8
58	24	33	32	31	35
59	6	14	15	16	22
60	1	18	17	16	23
61	6	42	43	44	53
62	6	29	30	31	35
63	13	24	15	14	27
64	6	16	15	14	27
65	4	1	28	29	39
66	6	44	43	42	57
67	12	18	40	42	57
68	2	5	4	3	8
68	3	5	4	3	8
69	15	13	12	14	26
69	16	13	12	14	26
69	17	13	12	14	26
70	2	32	31	30	37
70	3	32	31	30	37
71	1	12	14	15	24
72	1	40	42	43	54
73	13	50	45	44	52
74	13	9	3	2	11
75	13	34	31	30	36
76	12	21	17	18	40
77	7	3	4	5	12
77	8	3	4	5	12
78	13	37	30	29	39
79	15	47	46	45	51
79	16	47	46	45	51
79	17	47	46	45	51
80	1	29	30	31	32
81	1	28	29	30	31
82	2	5	4	3	9
82	3	5	4	3	9
83	12	5	12	14	26
84	4	7	4	5	12
85	21	19	18	40	42
86	4	6	4	5	12
87	13	54	43	42	57
88	13	52	44	43	55
89	12	5	12	14	15
90	13	51	45	44	53
91	6	31	30	29	39
92	1	2	3	4	5
93	1	12	14	15	16
94	13	50	45	44	53
95	13	25	15	14	26
96	4	11	2	1	28
97	4	10	2	1	28
98	9	4	5	12	13
98	10	4	5	12	13
99	15	19	18	17	20
99	16	19	18	17	20
99	17	19	18	17	20
100	12	5	12	14	27
101	6	17	16	15	25
102	13	20	17	16	22
103	6	45	44	43	55
104	2	1	2	3	9
104	3	1	2	3	9
105	13	25	15	14	27
106	25	45	46	48	49
107	6	14	15	16	23
108	13	36	30	29	38
109	14	13	12	14	15
110	6	15	16	17	20
111	15	19	18	17	21
111	16	19	18	17	21
111	17	19	18	17	21
112	13	22	16	15	24
113	13	35	31	30	36
114	6	43	44	45	50
115	21	17	18	40	41
116	13	55	43	42	57
117	14	16	17	18	19
118	13	55	43	42	56
119	13	53	44	43	54
120	13	7	4	3	8
121	6	4	3	2	10
122	15	13	12	14	27
122	16	13	12	14	27
122	17	13	12	14	27
123	1	43	44	45	46
124	5	2	1	28	29
125	1	12	14	15	25
126	2	28	29	30	36
126	3	28	29	30	36
127	6	4	3	2	11
128	12	18	40	42	43
129	1	40	42	43	55
130	4	1	28	29	38
131	13	34	31	30	37
132	21	17	18	40	42
133	1	46	45	44	52
134	14	41	40	42	43
135	13	53	44	43	55

Impropers

26	1	46	47	48	45
27	2	18	40	17	19
100	1	12	13	14	5
104	1	46	48	45	47
111	1	12	5	13	14
190	1	12	14	5	13
210	2	40	18	41	42
222	2	18	17	19	40
270	2	18	19	40	17
296	1	46	45	47	48
304	2	40	41	42	18
336	2	40	42	18	41
