Title

219 atoms
234 bonds
393 angles
609 dihedrals
288 impropers

11 atom types
15 bond types
9 angle types
21 dihedral types
3 improper types
-16.72100067 83.27899933 xlo xhi
-17.54100037 82.45899963 ylo yhi
-4.589000225 95.41099977 zlo zhi
0.0 0.0 0.0 xy xz yz

Masses

1	14.00672
2	12.01078
3	1.007947
4	15.99943
5	12.01078
6	1.007947
7	1.007947
8	18.998403
9	15.99943
10	15.99943
11	1.007947


Pair Coeffs

1	0.16769152	3.206876
2	0.086879315	3.4806469
3	0.015611343	2.5725815
4	0.16846514	3.0251065
5	0.10884061	3.3795318
6	0.015779483	2.6445434
7	0.014090815	1.1034277
8	0.061	3.1181455
9	0.2102061	3.0398122
10	0.20947353	2.99716
11	1.2326e-05	0.53453923

Bond Coeffs

1 harmonic	390.03554688505	1.390160554689
2 harmonic	505.144496193	1.019481865027
3 harmonic	422.7150220147	1.421786517481
4 harmonic	360.7852444772	1.387193227181
5 harmonic	397.2545789619	1.085358495916
6 harmonic	279.1350963404	1.454628925034
7 harmonic	425.69104206635	1.362945806494
8 harmonic	289.73813263395	1.498646816465
9 harmonic	264.62148576755	1.52190126495
10 harmonic	370.04670688625	1.093899492634
11 harmonic	492.76746816345	1.381897776683
12 harmonic	340.45121009905	1.358690858053
13 harmonic	582.698766451	1.225198386222
14 harmonic	385.7604595587	1.369745182308
15 harmonic	543.5267831885	0.9716763312559


Angle Coeffs

1 harmonic	57.8982893754	126.8062420451
2 harmonic	55.42182150775	117.3465570514
3 harmonic	63.44422595415	115.5071327674
4 harmonic	34.066775159195	129.1835929926
5 harmonic	65.09061609600001	110.3538806181
6 harmonic	53.20531626545	116.5475862634
7 harmonic	14.32262199324	138.3184368373
8 harmonic	48.776492647595	115.6030999533
9 harmonic	201.41175231035	127.4691416191


Dihedral Coeffs

1 fourier 1	3.661930099076	2	180
2 fourier 1	1.193093382682	2	180
3 fourier 1	0.02021088501612	1	0
4 fourier 1	1.163235555439	2	180
5 fourier 1	1.532232714475	2	180
6 fourier 1	0.02664938770063	3	0
7 fourier 1	0.1155372516788	3	0
8 fourier 1	0.09223874044423	3	0
9 fourier 1	0.3159935921949	2	180
10 fourier 1	0.3247796806857	1	180
11 fourier 1	0.1040663847541	3	0
12 fourier 1	3.101948770557	2	180
13 fourier 1	-0.4252153282372	1	0
14 fourier 1	1.809047390003	2	180
15 fourier 1	-0.04816277792592	1	0
16 fourier 1	0.9974165607242	2	180
17 fourier 1	2.348375642009	2	180
18 fourier 1	1.256156174911	1	0
19 fourier 1	2.687457892086	2	180
20 fourier 1	2.772607909663	2	180
21 fourier 1	0.09692684957115	1	0


Improper Coeffs

1 0.3666666666666667	-1	2
2 0.3333333333333333	-1	2
3 3.5	-1	2


Atoms

1	1	1	-0.41164899	11.7	-4.5539999	0.44800001
2	1	2	0.127271	10.391	-4.0219998	0.66500002
3	1	2	-0.406104	10.143	-2.7179999	0.46799999
4	1	3	0.222119	10.931	-2.05	0.142
5	1	2	-0.113309	8.7860003	-2.174	0.68900001
6	1	3	0.204327	8.6160002	-1.122	0.49599999
7	1	2	-0.127499	7.783	-2.9790001	1.089
8	1	2	-0.13374799	6.415	-2.441	1.303
9	1	2	-0.128344	5.335	-3.1589999	0.94599998
10	1	3	0.20761	5.4400001	-4.1339998	0.48300001
11	1	2	-0.295212	3.98	-2.612	1.1289999
12	1	3	0.224851	3.1270001	-3.1900001	0.79799998
13	1	2	0.329974	3.8039999	-1.393	1.655
14	1	4	-0.27116299	2.506	-0.88499999	1.7589999
15	1	2	0.265912	2.0109999	0.142	0.94800001
16	1	2	-0.27919	0.85699999	0.72799999	1.281
17	1	3	0.23173501	0.32600001	0.41600001	2.1730001
18	1	2	-0.14877699	0.29899999	1.812	0.449
19	1	3	0.217351	-0.62	2.2809999	0.778
20	1	2	-0.256181	0.91500002	2.2079999	-0.68900001
21	1	5	0.019393001	0.32800001	3.3599999	-1.523
22	1	5	-0.13154	0.93900001	3.4619999	-2.9400001
23	1	6	0.087687001	0.86900002	2.487	-3.4690001
24	1	6	0.087687001	2.0039999	3.7709999	-2.8889999
25	1	6	0.087687001	0.40200001	4.224	-3.5439999
26	1	2	-0.107596	-1.156	3.2090001	-1.666
27	1	2	-0.124935	-1.814	2.1619999	-2.184
28	1	3	0.216888	-1.276	1.307	-2.573
29	1	2	0.23506799	-3.2950001	2.1659999	-2.164
30	1	4	-0.27998701	-3.987	1.059	-2.6630001
31	1	2	0.33387199	-4.777	0.19599999	-1.883
32	1	2	-0.295212	-4.7270002	0.213	-0.537
33	1	3	0.224851	-4.0799999	0.90200001	-0.0099999998
34	1	2	-0.128344	-5.5050001	-0.755	0.257
35	1	3	0.20761	-5.4029999	-0.73400003	1.334
36	1	2	-0.13374799	-6.2789998	-1.6720001	-0.35100001
37	1	2	-0.127499	-7.0180001	-2.6960001	0.43200001
38	1	2	-0.127359	-7.6209998	-2.3889999	1.599
39	1	3	0.204327	-7.6030002	-1.3789999	1.988
40	1	2	-0.374125	-8.3459997	-3.425	2.365
41	1	3	0.218557	-8.8149996	-3.155	3.3039999
42	1	2	0.199503	-8.4169998	-4.6820002	1.903
43	1	1	-0.53042299	-9.1190004	-5.6869998	2.6389999
44	1	7	0.31979701	-9.1759996	-6.664	2.277
45	1	2	-0.374125	-7.7610002	-5.027	0.62199998
46	1	3	0.218557	-7.8070002	-6.0409999	0.245
47	1	2	-0.127359	-7.1030002	-4.092	-0.071999997
48	1	3	0.204327	-6.6139998	-4.3709998	-0.99699998
49	1	2	-0.055757999	-6.3530002	-1.6799999	-1.834
50	1	3	0.206631	-6.9949999	-2.405	-2.316
51	1	2	-0.321394	-5.6529999	-0.79299998	-2.5699999
52	1	5	0.76698202	-5.7179999	-0.796	-4.0809999
53	1	8	-0.206975	-4.4790001	-1.1390001	-4.5890002
54	1	8	-0.206975	-6.0580001	0.46599999	-4.5310001
55	1	8	-0.206975	-6.6550002	-1.6950001	-4.5619998
56	1	2	-0.28520399	-3.9579999	3.23	-1.666
57	1	3	0.220085	-5.0409999	3.2420001	-1.655
58	1	2	0.012888	-3.2079999	4.3909998	-1.128
59	1	3	0.21487699	-3.7420001	5.2459998	-0.73500001
60	1	2	-0.196869	-1.865	4.3499999	-1.13
61	1	5	-0.020857001	-0.91799998	5.3920002	-0.625
62	1	5	-0.13113099	-1.008	6.6550002	-1.5
63	1	6	0.091920003	-0.266	7.4109998	-1.163
64	1	6	0.091920003	-2.0220001	7.1059999	-1.437
65	1	6	0.091920003	-0.796	6.408	-2.5639999
66	1	5	-0.13113099	-1.217	5.7399998	0.84600002
67	1	6	0.091920003	-2.211	6.2249999	0.94300002
68	1	6	0.091920003	-1.2130001	4.823	1.475
69	1	6	0.091920003	-0.44999999	6.441	1.239
70	1	5	-0.18119	0.48699999	4.7199998	-0.76599997
71	1	6	0.13014799	1.207	5.3920002	-1.285
72	1	6	0.13014799	0.93800002	4.553	0.23999999
73	1	2	-0.14877699	2.2119999	1.557	-1.046
74	1	3	0.217351	2.7650001	1.852	-1.928
75	1	2	-0.27919	2.7219999	0.58600003	-0.278
76	1	3	0.23173501	3.658	0.123	-0.56699997
77	1	2	-0.321394	4.9819999	-0.60399997	2.122
78	1	5	0.76698202	4.8000002	0.75300002	2.767
79	1	8	-0.206975	3.648	0.773	3.5339999
80	1	8	-0.206975	4.7049999	1.721	1.784
81	1	8	-0.206975	5.8660002	1.0599999	3.5940001
82	1	2	-0.055757999	6.2189999	-1.1	1.9170001
83	1	3	0.206631	7.0910001	-0.53500003	2.227
84	1	2	-0.113309	8.0679998	-4.4229999	1.311
85	1	3	0.204327	7.2870002	-5.0900002	1.653
86	1	2	-0.406104	9.2959995	-4.9120002	1.109
87	1	3	0.222119	9.4919996	-5.9629998	1.2819999
88	1	7	0.37317601	12.491	-3.9400001	0.15000001
89	1	2	0.75591701	-9.5889997	-5.4629998	3.5639999
90	1	9	-0.66800398	-8.8559999	-5.1139998	4.5279999
91	1	2	-0.30496401	-11.06	-5.5780001	3.721
92	1	2	-0.048687	-11.596	-5.5669999	4.9549999
93	1	3	0.24060801	-10.959	-5.4359999	5.822
94	1	2	-0.16377801	-13.051	-5.7509999	5.1739998
95	1	2	0.80280602	-13.554	-5.618	6.5609999
96	1	9	-0.49026299	-14.68	-5.1009998	6.7919998
97	1	10	-0.665263	-12.75	-6.0079999	7.6279998
98	1	11	0.418154	-13.068	-5.9029999	8.585
99	1	2	-0.169708	-13.856	-5.9879999	4.1069999
100	1	2	0.80280602	-15.291	-6.3299999	4.2350001
101	1	9	-0.49026299	-16.107	-5.9660001	3.346
102	1	10	-0.665263	-15.743	-7.1059999	5.3000002
103	1	11	0.418154	-16.721001	-7.3579998	5.381
104	1	2	-0.01643	-13.275	-5.9569998	2.7420001
105	1	3	0.240556	-13.941	-6.0910001	1.898
106	1	2	-0.240941	-11.961	-5.75	2.5380001
107	1	2	0.57662499	-11.445	-5.6529999	1.15
108	1	9	-0.53887099	-12.153	-6	0.16599999
109	1	1	-0.41164899	11.882	-5.5760002	0.57800001
110	1	2	0.127271	12.098	-6.1079998	1.888
111	1	2	-0.406104	12.365	-7.4120002	2.0580001
112	1	3	0.222119	12.42	-8.0799999	1.207
113	1	2	-0.113309	12.593	-7.9559999	3.414
114	1	3	0.204327	12.831	-9.0080004	3.513
115	1	2	-0.127499	12.538	-7.151	4.493
116	1	2	-0.13374799	12.777	-7.6890001	5.8559999
117	1	2	-0.128344	13.463	-6.9710002	6.763
118	1	3	0.20761	13.867	-5.9959998	6.5149999
119	1	2	-0.295212	13.726	-7.5180001	8.1049995
120	1	3	0.224851	14.314	-6.9400001	8.8059998
121	1	2	0.329974	13.286	-8.7370005	8.4420004
122	1	4	-0.27116299	13.605	-9.2449999	9.7040005
123	1	2	0.265912	14.533	-10.272	9.9099998
124	1	2	-0.27919	14.59	-10.858	11.111
125	1	3	0.23173501	13.917	-10.546	11.901
126	1	2	-0.14877699	15.557	-11.941	11.37
127	1	3	0.217351	15.542	-12.411	12.346
128	1	2	-0.256181	16.436001	-12.338	10.42
129	1	5	0.019393001	17.415001	-13.49	10.707
130	1	5	-0.13154	18.558001	-13.592	9.6719999
131	1	6	0.087687001	19.082001	-12.616	9.5670004
132	1	6	0.087687001	18.167	-13.901	8.6800003
133	1	6	0.087687001	19.302999	-14.354	9.9849997
134	1	2	-0.107596	18.028	-13.339	12.065
135	1	2	-0.124935	18.731001	-12.292	12.521
136	1	3	0.216888	18.924999	-11.436	11.886
137	1	2	0.23506799	19.188999	-12.296	13.929
138	1	4	-0.27998701	19.885	-11.189	14.424
139	1	2	0.33387199	19.400999	-10.326	15.423
140	1	2	-0.295212	18.111	-10.343	15.81
141	1	3	0.224851	17.403999	-11.032	15.367
142	1	2	-0.128344	17.610001	-9.375	16.802
143	1	3	0.20761	16.558001	-9.3950005	17.052999
144	1	2	-0.13374799	18.434999	-8.4580002	17.339001
145	1	2	-0.127499	17.931999	-7.4330001	18.291
146	1	2	-0.076626003	17.021999	-7.7399998	19.238001
147	1	3	0.204327	16.648001	-8.7510004	19.346001
148	1	2	-0.45027301	16.530001	-6.7049999	20.171
149	1	3	0.23067001	15.793	-6.9749999	20.917999
150	1	2	0.319197	16.990999	-5.447	20.089001
151	1	1	-0.84440303	16.521	-4.4429998	20.990999
152	1	7	0.36693501	15.809	-4.6630001	21.722
153	1	7	0.36693501	16.882	-3.4660001	20.927999
154	1	2	-0.45027301	17.992001	-5.1020002	19.056
155	1	3	0.23067001	18.364	-4.0879998	18.976999
156	1	2	-0.076626003	18.437	-6.0370002	18.209
157	1	3	0.204327	19.155001	-5.7589998	17.447001
158	1	2	-0.055757999	19.863001	-8.4499998	16.93
159	1	3	0.206631	20.525999	-7.7249999	17.382999
160	1	2	-0.321394	20.334	-9.3369999	16.031
161	1	5	0.76698202	21.785	-9.3339996	15.605
162	1	8	-0.206975	21.867001	-8.9910002	14.268
163	1	8	-0.206975	22.320999	-10.596	15.782
164	1	8	-0.206975	22.542	-8.4350004	16.337
165	1	2	-0.28520399	18.931999	-13.36	14.718
166	1	3	0.220085	19.271	-13.371	15.747
167	1	2	0.012888	18.18	-14.521	14.181
168	1	3	0.21487699	17.981001	-15.376	14.814
169	1	2	-0.196869	17.749001	-14.48	12.91
170	1	5	-0.020857001	16.966	-15.522	12.176
171	1	5	-0.13113099	17.823999	-16.784	11.978
172	1	6	0.091920003	17.264999	-17.541	11.386
173	1	6	0.091920003	18.09	-17.235001	12.959
174	1	6	0.091920003	18.761999	-16.538	11.436
175	1	5	-0.13113099	15.67	-15.87	12.934
176	1	6	0.091920003	15.899	-16.354	13.906
177	1	6	0.091920003	15.073	-14.953	13.132
178	1	6	0.091920003	15.051	-16.57	12.335
179	1	5	-0.18119	16.646	-14.85	10.8
180	1	6	0.13014799	16.906	-15.522	9.9519997
181	1	6	0.13014799	15.549	-14.683	10.698
182	1	2	-0.14877699	16.355	-11.687	9.0780001
183	1	3	0.217351	17.011999	-11.982	8.2700005
184	1	2	-0.27919	15.464	-10.716	8.842
185	1	3	0.23173501	15.436	-10.253	7.8639998
186	1	2	-0.321394	12.463	-9.526	7.4759998
187	1	5	0.76698202	11.912	-10.883	7.8569999
188	1	8	-0.206975	11.556	-10.903	9.1949997
189	1	8	-0.206975	12.873	-11.851	7.6300001
190	1	8	-0.206975	10.785	-11.19	7.1149998
191	1	2	-0.055757999	12.258	-9.0299997	6.2399998
192	1	3	0.206631	11.683	-9.5950003	5.5139999
193	1	2	-0.113309	12.236	-5.7069998	4.2950001
194	1	3	0.204327	12.163	-5.04	5.1440001
195	1	2	-0.406104	12.031	-5.2179999	3.066
196	1	3	0.222119	11.804	-4.1669998	2.937
197	1	7	0.37317601	11.908	-6.1900001	-0.26699999
198	1	2	0.57650399	-10.455	-5.27	0.94999999
199	1	9	-0.53887099	-9.71	-5.9229999	0.17200001
200	1	2	-0.263942	-9.9849997	-4.0209999	1.596
201	1	2	-0.0084109996	-8.6680002	-3.744	1.6210001
202	1	3	0.240556	-7.967	-4.3990002	1.118
203	1	2	-0.169708	-8.1339998	-2.575	2.3610001
204	1	2	0.80280602	-6.684	-2.296	2.2390001
205	1	9	-0.49026299	-6.2550001	-1.11	2.2179999
206	1	10	-0.665263	-5.7880001	-3.349	2.082
207	1	11	0.418154	-4.7950001	-3.1760001	1.976
208	1	2	-0.16735899	-8.9870005	-1.8	3.0780001
209	1	2	0.80280602	-8.533	-0.70899999	3.971
210	1	9	-0.49026299	-9.2519999	0.315	4.1300001
211	1	10	-0.665263	-7.3460002	-0.82700002	4.6890001
212	1	11	0.418154	-7.0409999	-0.090999998	5.316
213	1	2	-0.042342	-10.443	-2.0739999	3.0109999
214	1	3	0.245361	-11.12	-1.403	3.5280001
215	1	2	-0.125348	-10.935	-3.099	2.2939999
216	1	2	0.815256	-12.406	-3.2460001	2.184
217	1	9	-0.49026299	-12.928	-3.7090001	1.135
218	1	10	-0.665263	-13.229	-2.8239999	3.2249999
219	1	11	0.418154	-14.237	-2.902	3.1559999

Bonds

1	1	1	2
2	2	1	88
3	3	1	109
4	4	2	3
5	4	2	86
6	5	3	4
7	4	3	5
8	5	5	6
9	4	5	7
10	6	7	8
11	4	7	84
12	4	8	9
13	4	8	82
14	5	9	10
15	4	9	11
16	5	11	12
17	4	11	13
18	7	13	14
19	4	13	77
20	7	14	15
21	4	15	16
22	4	15	75
23	5	16	17
24	4	16	18
25	5	18	19
26	4	18	20
27	8	20	21
28	4	20	73
29	9	21	22
30	8	21	26
31	9	21	70
32	10	22	23
33	10	22	24
34	10	22	25
35	4	26	27
36	4	26	60
37	5	27	28
38	4	27	29
39	7	29	30
40	4	29	56
41	7	30	31
42	4	31	32
43	4	31	51
44	5	32	33
45	4	32	34
46	5	34	35
47	4	34	36
48	6	36	37
49	4	36	49
50	4	37	38
51	4	37	47
52	5	38	39
53	4	38	40
54	5	40	41
55	4	40	42
56	1	42	43
57	4	42	45
58	2	43	44
59	11	43	89
60	5	45	46
61	4	45	47
62	5	47	48
63	5	49	50
64	4	49	51
65	8	51	52
66	12	52	53
67	12	52	54
68	12	52	55
69	5	56	57
70	4	56	58
71	5	58	59
72	4	58	60
73	8	60	61
74	9	61	62
75	9	61	66
76	9	61	70
77	10	62	63
78	10	62	64
79	10	62	65
80	10	66	67
81	10	66	68
82	10	66	69
83	10	70	71
84	10	70	72
85	5	73	74
86	4	73	75
87	5	75	76
88	8	77	78
89	4	77	82
90	12	78	79
91	12	78	80
92	12	78	81
93	5	82	83
94	5	84	85
95	4	84	86
96	5	86	87
97	13	89	90
98	6	89	91
99	4	91	92
100	4	91	106
101	5	92	93
102	4	92	94
103	6	94	95
104	4	94	99
105	13	95	96
106	14	95	97
107	15	97	98
108	6	99	100
109	4	99	104
110	13	100	101
111	14	100	102
112	15	102	103
113	5	104	105
114	4	104	106
115	6	106	107
116	13	107	108
117	6	107	198
118	1	109	110
119	2	109	197
120	4	110	111
121	4	110	195
122	5	111	112
123	4	111	113
124	5	113	114
125	4	113	115
126	6	115	116
127	4	115	193
128	4	116	117
129	4	116	191
130	5	117	118
131	4	117	119
132	5	119	120
133	4	119	121
134	7	121	122
135	4	121	186
136	7	122	123
137	4	123	124
138	4	123	184
139	5	124	125
140	4	124	126
141	5	126	127
142	4	126	128
143	8	128	129
144	4	128	182
145	9	129	130
146	8	129	134
147	9	129	179
148	10	130	131
149	10	130	132
150	10	130	133
151	4	134	135
152	4	134	169
153	5	135	136
154	4	135	137
155	7	137	138
156	4	137	165
157	7	138	139
158	4	139	140
159	4	139	160
160	5	140	141
161	4	140	142
162	5	142	143
163	4	142	144
164	6	144	145
165	4	144	158
166	4	145	146
167	4	145	156
168	5	146	147
169	4	146	148
170	5	148	149
171	4	148	150
172	1	150	151
173	4	150	154
174	2	151	152
175	2	151	153
176	5	154	155
177	4	154	156
178	5	156	157
179	5	158	159
180	4	158	160
181	8	160	161
182	12	161	162
183	12	161	163
184	12	161	164
185	5	165	166
186	4	165	167
187	5	167	168
188	4	167	169
189	8	169	170
190	9	170	171
191	9	170	175
192	9	170	179
193	10	171	172
194	10	171	173
195	10	171	174
196	10	175	176
197	10	175	177
198	10	175	178
199	10	179	180
200	10	179	181
201	5	182	183
202	4	182	184
203	5	184	185
204	8	186	187
205	4	186	191
206	12	187	188
207	12	187	189
208	12	187	190
209	5	191	192
210	5	193	194
211	4	193	195
212	5	195	196
213	13	198	199
214	6	198	200
215	4	200	201
216	4	200	215
217	5	201	202
218	4	201	203
219	6	203	204
220	4	203	208
221	13	204	205
222	14	204	206
223	15	206	207
224	6	208	209
225	4	208	213
226	13	209	210
227	14	209	211
228	15	211	212
229	5	213	214
230	4	213	215
231	6	215	216
232	13	216	217
233	14	216	218
234	15	218	219

Angles

1	1	29	56	58
2	1	117	119	121
3	6	129	130	133
4	1	37	47	45
5	6	61	70	72
6	6	60	61	70
7	6	61	66	67
8	1	43	89	90
9	1	126	128	129
10	8	131	130	132
11	1	94	95	97
12	9	217	216	218
13	6	51	52	53
14	6	170	171	173
15	1	13	77	78
16	8	67	66	69
17	1	78	77	82
18	4	140	142	143
19	6	162	161	164
20	1	21	26	60
21	1	30	31	51
22	6	186	187	188
23	1	42	45	47
24	1	18	20	21
25	3	110	109	197
26	4	200	201	202
27	1	201	203	208
28	6	188	187	190
29	1	122	123	184
30	8	63	62	64
31	8	180	179	181
32	4	110	111	112
33	4	32	34	35
34	1	121	186	187
35	1	140	139	160
36	6	21	70	61
37	1	11	13	77
38	6	77	78	79
39	1	26	27	29
40	1	27	29	30
41	4	7	84	85
42	4	147	146	148
43	6	163	161	164
44	1	142	144	145
45	4	50	49	51
46	6	79	78	80
47	6	171	170	179
48	4	125	124	126
49	4	2	3	4
50	4	91	92	93
51	1	3	5	7
52	1	16	18	20
53	1	121	186	191
54	1	49	51	52
55	6	189	187	190
56	1	146	148	150
57	1	113	115	193
58	4	194	193	195
59	1	203	208	213
60	4	29	56	57
61	6	129	130	132
62	1	107	198	199
63	6	61	70	71
64	8	173	171	174
65	1	142	144	158
66	3	42	43	44
67	4	17	16	18
68	6	21	22	25
69	1	37	36	49
70	6	53	52	54
71	1	9	8	82
72	1	56	58	60
73	1	94	95	96
74	5	13	14	15
75	6	170	175	177
76	6	170	171	172
77	1	204	203	208
78	1	134	135	137
79	4	28	27	29
80	3	1	109	197
81	8	67	66	68
82	1	106	107	198
83	1	146	145	156
84	6	175	170	179
85	4	111	113	114
86	4	186	191	192
87	6	160	161	163
88	4	38	40	41
89	1	36	49	51
90	1	31	51	49
91	1	27	29	56
92	4	202	201	203
93	1	3	2	86
94	4	37	47	48
95	4	42	45	46
96	9	205	204	206
97	1	36	37	38
98	6	60	61	62
99	6	61	62	65
100	1	14	13	77
101	1	34	36	49
102	6	188	187	189
103	4	8	82	83
104	4	124	126	127
105	8	172	171	174
106	1	95	94	99
107	1	38	37	47
108	1	137	165	167
109	4	105	104	106
110	5	100	102	103
111	8	68	66	69
112	1	116	117	119
113	1	203	204	205
114	4	141	140	142
115	4	41	40	42
116	6	129	179	170
117	4	26	27	28
118	6	60	61	66
119	6	128	129	134
120	1	201	200	215
121	4	3	5	6
122	4	16	18	19
123	1	215	216	218
124	6	129	179	181
125	4	33	32	34
126	6	20	21	26
127	4	146	148	149
128	1	213	215	216
129	1	21	20	73
130	1	144	145	146
131	1	124	123	184
132	9	96	95	97
133	1	201	203	204
134	6	21	22	24
135	1	94	99	100
136	1	31	32	34
137	6	170	175	176
138	6	169	170	175
139	4	134	135	136
140	1	32	31	51
141	8	132	130	133
142	6	160	161	162
143	4	57	56	58
144	4	159	158	160
145	4	154	156	157
146	8	176	175	178
147	8	23	22	24
148	4	112	111	113
149	6	61	66	69
150	1	104	106	107
151	3	88	1	109
152	5	204	206	207
153	6	171	170	175
154	6	20	21	70
155	4	85	84	86
156	1	94	99	104
157	5	29	30	31
158	6	51	52	55
159	6	169	170	179
160	1	111	110	195
161	1	134	169	167
162	2	42	43	89
163	1	92	91	106
164	8	172	171	173
165	7	167	169	170
166	4	137	165	166
167	1	200	215	213
168	6	186	187	190
169	1	203	208	209
170	1	31	51	52
171	1	198	200	215
172	6	129	179	180
173	4	155	154	156
174	1	8	9	11
175	1	123	124	126
176	6	170	179	181
177	1	7	8	9
178	1	13	77	82
179	4	193	195	196
180	1	9	11	13
181	1	117	116	191
182	4	110	195	196
183	8	177	175	178
184	1	8	82	77
185	1	7	8	82
186	1	215	216	217
187	1	123	184	182
188	1	145	146	148
189	1	92	94	95
190	4	73	75	76
191	1	126	128	182
192	4	117	119	120
193	1	144	145	156
194	6	77	78	81
195	1	115	116	191
196	4	4	3	5
197	1	2	86	84
198	5	137	138	139
199	1	115	116	117
200	4	10	9	11
201	6	162	161	163
202	1	148	150	151
203	1	165	167	169
204	1	144	158	160
205	1	92	94	99
206	1	1	2	86
207	5	95	97	98
208	1	208	209	211
209	8	176	175	177
210	1	36	37	47
211	1	14	15	75
212	1	139	160	161
213	1	198	200	201
214	4	183	182	184
215	6	128	129	130
216	1	37	38	40
217	1	139	140	142
218	4	149	148	150
219	3	152	151	153
220	2	2	1	109
221	8	131	130	133
222	1	115	193	195
223	6	51	52	54
224	1	110	195	193
225	6	130	129	179
226	5	121	122	123
227	4	6	5	7
228	6	170	179	180
229	6	170	171	174
230	1	40	42	43
231	1	158	160	161
232	4	77	82	83
233	1	199	198	200
234	1	145	144	158
235	1	30	29	56
236	4	84	86	87
237	1	135	134	169
238	6	20	21	22
239	1	116	191	186
240	6	186	187	189
241	5	216	218	219
242	1	30	31	32
243	6	134	129	179
244	1	99	100	102
245	8	63	62	65
246	1	110	111	113
247	1	32	34	36
248	1	128	182	184
249	6	169	170	171
250	1	209	208	213
251	1	134	169	170
252	4	145	146	147
253	1	200	215	216
254	1	1	2	3
255	1	135	137	165
256	1	20	73	75
257	6	129	130	131
258	1	139	160	158
259	4	15	75	76
260	1	119	121	186
261	1	106	107	108
262	4	120	119	121
263	4	56	58	59
264	6	62	61	70
265	3	44	43	89
266	1	129	134	169
267	1	122	123	124
268	4	123	184	185
269	4	144	158	159
270	1	151	150	154
271	1	138	137	165
272	4	116	191	192
273	1	26	60	58
274	1	208	213	215
275	4	36	49	50
276	1	208	209	210
277	1	107	198	200
278	4	143	142	144
279	7	58	60	61
280	1	135	137	138
281	4	46	45	47
282	1	91	106	107
283	6	66	61	70
284	6	61	62	64
285	1	90	89	91
286	8	71	70	72
287	4	93	92	94
288	4	37	38	39
289	4	139	140	141
290	4	2	86	87
291	1	27	26	60
292	1	34	36	37
293	6	53	52	55
294	4	115	193	194
295	3	2	1	88
296	6	170	175	178
297	1	122	121	186
298	4	59	58	60
299	1	14	15	16
300	1	148	150	154
301	1	111	113	115
302	4	35	34	36
303	1	100	99	104
304	1	43	42	45
305	6	160	161	164
306	1	38	40	42
307	6	22	21	26
308	4	116	117	118
309	1	5	7	84
310	1	8	7	84
311	1	99	100	101
312	1	15	75	73
313	4	12	11	13
314	4	128	182	183
315	1	145	156	154
316	1	124	126	128
317	1	138	139	160
318	1	109	110	195
319	6	21	70	72
320	1	138	139	140
321	6	54	52	55
322	7	129	134	135
323	1	203	204	206
324	4	20	73	74
325	1	15	16	18
326	1	91	106	104
327	4	114	113	115
328	1	99	104	106
329	1	116	115	193
330	4	214	213	215
331	6	21	22	23
332	5	209	211	212
333	6	22	21	70
334	4	31	32	33
335	3	150	151	153
336	1	150	154	156
337	4	127	126	128
338	4	182	184	185
339	1	119	121	122
340	1	5	7	8
341	8	64	62	65
342	9	210	209	211
343	6	128	129	179
344	1	16	15	75
345	4	208	213	214
346	4	136	135	137
347	6	26	21	70
348	4	39	38	40
349	1	108	107	198
350	6	61	66	68
351	4	8	9	10
352	1	43	89	91
353	2	1	109	110
354	6	61	62	63
355	1	129	128	182
356	4	19	18	20
357	1	11	13	14
358	4	166	165	167
359	1	89	91	106
360	1	140	142	144
361	1	26	60	61
362	9	101	100	102
363	8	23	22	25
364	4	123	124	125
365	1	200	201	203
366	4	168	167	169
367	4	118	117	119
368	4	9	11	12
369	1	40	42	45
370	1	18	20	73
371	6	62	61	66
372	6	21	70	71
373	6	77	78	80
374	4	15	16	17
375	1	7	84	86
376	4	99	104	105
377	1	109	110	111
378	7	21	26	27
379	4	74	73	75
380	6	79	78	81
381	1	2	3	5
382	1	91	92	94
383	1	113	115	116
384	6	80	78	81
385	3	150	151	152
386	1	187	186	191
387	4	145	156	157
388	4	150	154	155
389	4	45	47	48
390	8	24	22	25
391	1	89	91	92
392	4	165	167	168
393	6	130	129	134

Dihedrals

1	1	214	213	215	216
2	1	116	117	119	121
3	1	134	169	167	168
4	5	121	122	123	184
5	16	200	215	216	218
6	7	169	170	179	180
7	1	2	3	5	7
8	6	134	169	170	171
9	5	135	137	138	139
10	1	14	15	75	73
11	6	18	20	21	70
12	6	126	128	129	134
13	16	104	106	107	198
14	1	34	32	31	51
15	7	169	170	171	174
16	1	122	123	124	126
17	7	60	61	62	63
18	6	60	26	21	70
19	7	23	22	21	26
20	6	22	21	20	73
21	4	9	8	7	84
22	1	36	37	38	39
23	11	64	62	61	66
24	1	117	119	121	186
25	1	126	128	182	184
26	11	24	22	21	70
27	7	20	21	70	72
28	12	42	43	89	90
28	13	42	43	89	90
29	7	26	21	70	71
30	6	49	51	52	55
31	1	147	146	148	150
32	1	112	111	113	114
33	5	119	121	122	123
34	1	8	7	84	86
35	1	141	140	139	160
36	11	171	170	175	178
37	5	15	14	13	77
38	16	206	204	203	208
39	1	42	45	47	48
40	1	201	203	208	209
41	1	91	106	104	105
42	1	126	124	123	184
43	1	7	8	82	83
44	6	26	60	61	66
45	1	5	7	84	86
46	2	148	150	151	152
47	1	148	150	154	155
48	5	139	138	137	165
49	4	117	116	115	193
50	1	198	200	215	213
51	1	129	128	182	183
52	16	106	107	198	200
53	11	175	170	179	180
54	1	26	60	58	59
55	1	110	111	113	114
56	1	33	32	31	51
57	16	107	198	200	201
58	4	34	36	37	38
59	2	1	109	110	195
60	1	4	3	5	7
61	1	31	51	49	36
62	1	32	31	51	49
63	11	62	61	70	71
64	1	115	116	191	192
65	1	4	3	2	86
66	5	13	14	15	16
67	1	118	117	119	121
68	1	200	201	203	204
69	2	111	110	109	197
70	1	166	165	167	169
71	4	191	116	115	193
72	1	123	184	182	128
73	1	120	119	121	186
74	1	30	31	32	33
75	1	129	134	169	170
76	1	9	8	82	77
77	7	133	130	129	134
78	1	1	2	3	4
79	7	20	21	22	23
80	1	139	160	158	144
81	1	12	11	13	14
82	11	67	66	61	70
83	20	210	209	211	212
83	21	210	209	211	212
84	8	129	179	170	171
84	9	129	179	170	171
84	10	129	179	170	171
85	1	16	18	20	73
86	1	149	148	150	154
87	6	130	129	128	182
88	1	9	11	13	77
89	1	116	117	119	120
90	16	200	215	216	217
91	7	169	170	175	178
92	11	65	62	61	66
93	1	122	123	124	125
94	6	81	78	77	82
95	1	151	150	154	155
96	1	17	16	18	19
97	1	41	40	42	45
98	6	139	160	161	164
99	1	19	18	20	73
100	1	15	16	18	19
101	11	131	130	129	179
102	1	26	60	58	56
103	1	115	193	195	196
104	1	3	5	7	84
105	1	121	186	191	192
106	1	135	134	169	167
107	16	211	209	208	213
108	6	18	20	21	22
109	1	27	26	60	58
110	1	21	20	73	75
111	1	10	9	11	13
112	1	11	13	77	78
113	6	13	77	78	81
114	7	60	61	66	69
115	1	117	119	121	122
116	6	49	51	52	54
117	5	29	30	31	32
118	4	146	145	144	158
119	7	128	129	130	133
120	1	168	167	169	170
121	11	171	170	175	177
122	1	14	15	75	76
123	1	36	37	47	48
124	1	142	144	158	159
125	1	136	135	137	165
126	1	31	32	34	36
127	1	200	215	213	214
128	1	57	56	58	60
129	1	111	110	195	196
130	1	37	36	49	51
131	1	135	137	165	166
132	1	138	137	165	167
133	6	18	20	21	26
134	6	135	134	129	179
135	1	4	3	5	6
136	1	145	156	154	155
137	6	58	60	61	66
138	4	47	37	36	49
139	6	134	129	128	182
140	1	110	195	193	194
141	1	202	201	200	215
142	1	146	148	150	154
143	1	117	116	191	192
144	1	142	140	139	160
145	1	38	40	42	45
146	11	172	171	170	179
147	1	166	165	167	168
148	1	37	47	45	46
149	5	123	122	121	186
150	1	144	145	146	148
151	1	35	34	36	37
152	1	123	124	126	128
153	1	16	18	20	21
154	7	25	22	21	26
155	16	102	100	99	104
156	14	44	43	89	91
156	15	44	43	89	91
157	6	20	21	26	27
158	1	89	91	92	93
159	1	143	142	144	145
160	1	13	77	82	83
161	1	28	27	26	60
162	11	130	129	179	181
163	1	7	8	82	77
164	6	27	26	21	70
165	6	190	187	186	191
166	1	119	117	116	191
167	1	136	135	137	138
168	1	109	110	111	112
169	6	189	187	186	191
170	6	188	187	186	191
171	1	116	115	193	195
172	3	88	1	109	110
173	1	118	117	116	191
174	1	146	145	156	157
175	1	78	77	82	83
176	11	176	175	170	179
177	6	31	51	52	53
178	1	32	31	51	52
179	1	18	20	73	75
180	1	159	158	160	161
181	20	101	100	102	103
181	21	101	100	102	103
182	6	158	160	161	164
183	1	124	126	128	182
184	1	100	99	104	106
185	7	134	129	179	181
186	1	155	154	156	157
187	3	88	1	109	197
188	1	85	84	86	87
189	1	26	27	29	56
190	16	91	106	107	108
191	2	45	42	43	89
192	1	125	124	126	128
193	6	26	60	61	62
194	1	127	126	128	129
195	1	139	140	142	144
196	1	29	27	26	60
197	1	36	37	47	45
198	6	139	160	161	163
199	1	7	84	86	87
200	11	171	170	179	181
201	1	111	110	195	193
202	1	37	38	40	42
203	6	121	186	187	190
204	1	8	9	11	12
205	1	93	92	91	106
206	1	11	9	8	82
207	7	20	21	70	61
208	11	177	175	170	179
209	1	21	20	73	74
210	5	11	13	14	15
211	1	92	94	99	104
212	11	132	130	129	179
213	1	10	9	11	12
214	11	66	61	70	72
215	5	29	30	31	51
216	1	183	182	184	185
217	1	14	13	77	82
218	19	94	95	97	98
219	6	13	77	78	80
220	11	25	22	21	70
221	1	146	148	150	151
222	1	12	11	13	77
223	1	6	5	7	84
224	1	2	86	84	7
225	1	209	208	213	215
226	11	171	170	175	176
227	11	63	62	61	66
228	11	174	171	170	179
229	3	2	1	109	110
230	1	30	29	56	57
231	7	60	61	62	65
232	1	14	15	16	18
233	1	27	29	56	58
234	1	31	32	34	35
235	1	33	32	34	36
236	1	21	26	60	58
237	1	43	42	45	47
238	1	114	113	115	116
239	1	135	134	169	170
240	1	138	137	165	166
241	1	146	145	156	154
242	4	34	36	37	47
243	11	130	129	179	180
244	1	27	26	60	61
245	7	128	129	179	170
246	16	92	94	95	96
247	2	195	110	109	197
248	1	187	186	191	192
249	6	70	21	20	73
250	1	145	146	148	149
251	2	86	2	1	109
252	16	90	89	91	92
253	1	115	116	117	119
254	1	202	201	203	208
255	11	63	62	61	70
256	16	94	99	100	102
257	1	111	113	115	116
258	1	147	146	145	156
259	7	134	129	179	180
260	1	144	145	146	147
261	1	5	3	2	86
262	1	194	193	195	196
263	6	169	134	129	179
264	1	40	38	37	47
265	7	128	129	179	181
266	1	34	36	49	51
267	2	152	151	150	154
268	1	124	123	184	182
269	7	21	70	61	60
270	1	138	139	160	158
271	16	213	215	216	218
272	11	171	170	179	180
273	1	32	34	36	37
274	1	46	45	47	48
275	1	39	38	37	47
276	1	93	92	94	99
277	1	6	5	7	8
278	1	39	38	40	41
279	1	100	99	104	105
280	11	22	21	70	72
281	1	2	3	5	6
282	1	56	58	60	61
283	7	169	170	171	173
284	1	139	140	142	143
285	4	156	145	144	158
286	6	80	78	77	82
287	1	1	2	86	84
288	6	26	21	20	73
289	7	20	21	22	25
290	16	108	107	198	200
291	1	126	128	182	183
292	1	37	38	40	41
293	7	20	21	70	71
294	6	121	186	187	189
295	1	113	111	110	195
296	11	66	61	70	71
297	1	30	31	51	49
298	6	58	60	61	62
299	1	113	115	193	195
300	1	7	8	9	11
301	6	79	78	77	82
302	1	147	146	148	149
303	1	8	7	84	85
304	1	18	16	15	75
305	1	89	91	106	107
306	19	215	216	218	219
307	1	137	135	134	169
308	2	44	43	42	45
309	11	172	171	170	175
310	1	37	47	45	42
311	1	5	7	84	85
312	7	60	61	62	64
313	1	14	15	16	17
314	1	27	29	56	57
315	1	139	160	158	159
316	1	36	37	38	40
317	16	106	107	198	199
318	1	122	121	186	191
319	1	43	42	45	46
320	4	142	144	145	146
321	16	91	106	107	198
322	1	105	104	106	107
323	1	21	26	27	29
324	1	198	200	201	203
325	7	128	129	179	180
326	8	130	129	179	170
326	9	130	129	179	170
326	10	130	129	179	170
327	19	208	209	211	212
328	6	126	128	129	179
329	7	26	21	70	72
330	1	112	111	113	115
331	1	114	113	115	193
332	1	118	117	119	120
333	2	86	2	1	88
334	16	94	99	100	101
335	1	119	121	186	191
336	2	148	150	151	153
337	1	140	139	160	158
338	7	134	129	179	170
339	1	3	5	7	8
340	5	13	14	15	75
341	1	36	49	51	52
342	1	10	9	8	82
343	1	201	200	215	213
344	1	21	26	60	61
345	5	121	122	123	124
346	11	173	171	170	179
347	1	3	2	86	84
348	1	110	111	113	115
349	1	34	36	49	50
350	1	11	13	77	82
351	5	137	138	139	160
352	1	204	203	208	213
353	16	213	215	216	217
354	1	92	91	106	104
355	5	137	138	139	140
356	6	167	169	170	179
357	1	92	94	99	100
358	7	131	130	129	134
359	11	62	61	66	69
360	1	40	42	45	47
361	1	19	18	20	21
362	4	5	7	8	82
363	11	22	21	70	71
364	1	144	145	156	154
365	1	89	91	106	104
366	7	169	170	175	177
367	1	94	99	104	106
368	1	165	167	169	170
369	11	174	171	170	175
370	7	169	170	171	172
371	1	145	144	158	160
372	1	2	86	84	85
373	1	129	134	135	137
374	1	143	142	144	158
375	6	130	129	134	169
376	1	15	75	73	74
377	1	95	94	99	100
378	1	16	15	75	73
379	16	108	107	198	199
380	1	124	123	184	185
381	1	94	92	91	106
382	1	138	139	160	161
383	1	17	16	15	75
384	6	31	51	52	55
385	16	203	208	209	211
386	1	148	146	145	156
387	2	40	42	43	44
388	1	145	156	154	150
389	7	60	61	66	68
390	6	49	51	52	53
391	1	115	116	191	186
392	6	20	21	26	60
393	1	144	158	160	161
394	1	208	213	215	216
395	7	128	129	130	132
396	1	202	201	203	204
397	11	133	130	129	179
398	1	151	150	154	156
399	1	50	49	51	52
400	1	17	16	18	20
401	1	99	104	106	107
402	1	1	2	86	87
403	1	110	195	193	115
404	1	95	94	99	104
405	1	59	58	60	61
406	1	15	16	18	20
407	4	142	144	145	156
408	1	57	56	58	59
409	1	37	36	49	50
410	1	109	110	195	193
411	3	2	1	109	197
412	1	20	73	75	76
413	1	21	26	27	28
414	1	150	154	156	157
415	1	198	200	201	202
416	1	137	165	167	169