Title

56 atoms
59 bonds
94 angles
135 dihedrals
78 impropers

9 atom types
12 bond types
6 angle types
7 dihedral types
2 improper types
-6.263000011 93.73699999 xlo xhi
-2.559000015 97.44099998 ylo yhi
-3.782000065 96.21799994 zlo zhi
0.0 0.0 0.0 xy xz yz

Masses

1	15.99943
2	12.01078
3	1.007947
4	12.01078
5	1.007947
6	15.99943
7	15.99943
8	1.007947
9	35.4532


Pair Coeffs

1	0.16846514	3.0251065
2	0.086879315	3.4806469
3	0.015611343	2.5725815
4	0.10884061	3.3795318
5	0.015779483	2.6445434
6	0.2102061	3.0398122
7	0.20947353	2.99716
8	1.2326e-05	0.53453923
9	0.2656001	3.3075278

Bond Coeffs

1 harmonic	425.69104206635	1.362945806494
2 harmonic	300.03137914615	1.451203938761
3 harmonic	360.7852444772	1.387193227181
4 harmonic	397.2545789619	1.085358495916
5 harmonic	289.73813263395	1.498646816465
6 harmonic	370.04670688625	1.093899492634
7 harmonic	301.15400723785	1.345741232799
8 harmonic	582.698766451	1.225198386222
9 harmonic	279.1350963404	1.454628925034
10 harmonic	385.7604595587	1.369745182308
11 harmonic	543.5267831885	0.9716763312559
12 harmonic	218.0227703685	1.746066037062


Angle Coeffs

1 harmonic	57.8982893754	126.8062420451
2 harmonic	65.09061609600001	110.3538806181
3 harmonic	34.066775159195	129.1835929926
4 harmonic	53.20531626545	116.5475862634
5 harmonic	201.41175231035	127.4691416191
6 harmonic	48.776492647595	115.6030999533


Dihedral Coeffs

1 fourier 1	3.661930099076	2	180
2 fourier 1	1.532232714475	2	180
3 fourier 1	0.457973137376	1	0
4 fourier 1	0.02664938770063	3	0
5 fourier 1	2.779853741805	2	180
6 fourier 1	0.9974165607242	2	180
7 fourier 1	0.8283030590042	2	180


Improper Coeffs

1 0.3666666666666667	-1	2
2 3.5	-1	2


Atoms

1	1	1	-0.022611	-4.684	1.1670001	-0.81599998
2	1	2	0.27758399	-3.529	0.49200001	-0.43000001
3	1	2	-0.31276	-2.8940001	-0.296	-1.307
4	1	3	0.22639599	-3.2750001	-0.40900001	-2.3150001
5	1	2	-0.149188	-1.6670001	-1.016	-0.90799999
6	1	3	0.215492	-1.161	-1.636	-1.637
7	1	2	-0.228728	-1.187	-0.89600003	0.34299999
8	1	4	-0.051320001	0.082999997	-1.592	0.75
9	1	2	-0.228728	1.272	-0.71799999	0.45500001
10	1	2	-0.14688499	1.711	0.175	1.3609999
11	1	3	0.215492	1.233	0.26100001	2.329
12	1	2	-0.263082	2.855	1.056	1.045
13	1	3	0.226348	3.204	1.763	1.786
14	1	2	0.43873	3.4519999	0.98199999	-0.152
15	1	1	-0.44095999	4.527	1.818	-0.44100001
16	1	2	-0.263082	2.9619999	0.013	-1.159
17	1	3	0.226348	3.438	-0.045000002	-2.1300001
18	1	2	-0.14688499	1.9299999	-0.78899997	-0.87300003
19	1	3	0.215492	1.575	-1.4910001	-1.617
20	1	5	0.124906	0.184	-2.559	0.211
21	1	5	0.124906	0.046999998	-1.842	1.8329999
22	1	2	-0.149188	-1.887	-0.014	1.309
23	1	3	0.215492	-1.502	0.104	2.3139999
24	1	2	-0.31276	-2.9960001	0.64099997	0.94400001
25	1	3	0.22639599	-3.503	1.2819999	1.654
26	1	2	0.62819999	5.0100002	1.778	-1.3710001
27	1	6	-0.49692801	6.1199999	1.2819999	-1.461
28	1	1	-0.022611	-5.1799998	1.7690001	-0.169
29	1	2	0.27758399	-4.5079999	2.4449999	0.84600002
30	1	2	-0.31276	-5.1919999	3.233	1.686
31	1	3	0.22639599	-6.263	3.345	1.58
32	1	2	-0.149188	-4.4879999	3.9530001	2.7690001
33	1	3	0.215492	-5.0619998	4.573	3.447
34	1	2	-0.228728	-3.1559999	3.8329999	2.9089999
35	1	4	-0.051320001	-2.434	4.5289998	4.0310001
36	1	2	-0.228728	-2.411	3.655	5.2550001
37	1	2	-0.107104	-1.423	2.7620001	5.4450002
38	1	3	0.215492	-0.611	2.6760001	4.7319999
39	1	2	-0.406977	-1.432	1.881	6.631
40	1	3	0.231663	-0.625	1.173	6.776
41	1	2	0.43154499	-2.4330001	1.955	7.5170002
42	1	7	-0.64920598	-2.4349999	1.119	8.6309996
43	1	8	0.435422	-3.1819999	1.1569999	9.3140001
44	1	2	-0.406977	-3.533	2.9230001	7.3049998
45	1	3	0.231663	-4.348	2.9820001	8.0159998
46	1	2	-0.107104	-3.5239999	3.7260001	6.2340002
47	1	3	0.215492	-4.335	4.428	6.0840001
48	1	5	0.124906	-2.9289999	5.4959998	4.2670002
49	1	5	0.124906	-1.397	4.7779999	3.7149999
50	1	2	-0.149188	-2.404	2.951	1.982
51	1	3	0.215492	-1.3329999	2.8329999	2.0940001
52	1	2	-0.31276	-3.0439999	2.296	1.005
53	1	3	0.22639599	-2.4890001	1.655	0.333
54	1	2	0.46747601	4.5219998	2.1789999	-2.253
55	1	6	-0.57264698	3.378	2.595	-2.1800001
56	1	9	-0.083301999	5.3790002	2.23	-3.7820001

Bonds

1	1	1	2
2	2	1	28
3	3	2	3
4	3	2	24
5	4	3	4
6	3	3	5
7	4	5	6
8	3	5	7
9	5	7	8
10	3	7	22
11	5	8	9
12	6	8	20
13	6	8	21
14	3	9	10
15	3	9	18
16	4	10	11
17	3	10	12
18	4	12	13
19	3	12	14
20	1	14	15
21	3	14	16
22	7	15	26
23	4	16	17
24	3	16	18
25	4	18	19
26	4	22	23
27	3	22	24
28	4	24	25
29	8	26	27
30	9	26	54
31	1	28	29
32	3	29	30
33	3	29	52
34	4	30	31
35	3	30	32
36	4	32	33
37	3	32	34
38	5	34	35
39	3	34	50
40	5	35	36
41	6	35	48
42	6	35	49
43	3	36	37
44	3	36	46
45	4	37	38
46	3	37	39
47	4	39	40
48	3	39	41
49	10	41	42
50	3	41	44
51	11	42	43
52	4	44	45
53	3	44	46
54	4	46	47
55	4	50	51
56	3	50	52
57	4	52	53
58	8	54	55
59	12	54	56

Angles

1	1	30	32	34
2	1	28	29	30
3	1	2	3	5
4	4	36	35	48
5	4	7	8	9
6	1	32	34	35
7	6	48	35	49
8	1	5	7	8
9	2	1	28	29
10	1	29	52	50
11	1	41	44	46
12	1	39	41	42
13	1	35	36	46
14	1	7	22	24
15	1	32	34	50
16	1	10	9	18
17	3	33	32	34
18	3	37	39	40
19	4	34	35	36
20	1	26	54	55
21	3	34	50	51
22	2	2	1	28
23	1	30	29	52
24	3	14	16	17
25	3	23	22	24
26	3	38	37	39
27	1	1	2	3
28	3	36	46	47
29	2	41	42	43
30	1	26	54	56
31	3	2	24	25
32	3	4	3	5
33	2	14	15	26
34	6	20	8	21
35	1	34	50	52
36	1	10	12	14
37	1	15	14	16
38	3	44	46	47
39	4	36	35	49
40	1	35	34	50
41	3	6	5	7
42	4	34	35	48
43	1	5	7	22
44	1	2	24	22
45	3	40	39	41
46	3	36	37	38
47	3	29	30	31
48	1	42	41	44
49	1	37	39	41
50	1	55	54	56
51	1	27	26	54
52	3	50	52	53
53	3	17	16	18
54	1	12	14	15
55	5	15	26	27
56	1	36	37	39
57	3	3	5	6
58	1	39	41	44
59	3	16	18	19
60	1	29	30	32
61	4	7	8	20
62	3	11	10	12
63	1	37	36	46
64	1	1	2	24
65	1	14	16	18
66	1	28	29	52
67	3	30	32	33
68	3	13	12	14
69	4	7	8	21
70	1	36	46	44
71	3	9	18	19
72	3	22	24	25
73	3	41	44	45
74	3	31	30	32
75	1	15	26	54
76	1	3	2	24
77	3	7	22	23
78	3	9	10	11
79	4	34	35	49
80	3	51	50	52
81	1	8	9	10
82	4	9	8	20
83	1	8	7	22
84	1	35	36	37
85	1	9	18	16
86	1	9	10	12
87	1	8	9	18
88	3	2	3	4
89	4	9	8	21
90	1	12	14	16
91	3	29	52	53
92	1	3	5	7
93	3	45	44	46
94	3	10	12	13

Dihedrals

1	4	20	8	7	22
2	1	4	3	2	24
3	4	18	9	8	20
4	1	39	41	44	46
5	6	15	26	54	56
6	4	34	35	36	37
7	1	1	2	24	25
8	1	2	24	22	7
9	1	10	9	18	19
10	1	35	36	46	44
11	2	1	28	29	30
12	1	2	3	5	7
13	7	43	42	41	44
14	1	28	29	52	50
15	1	40	39	41	42
16	1	36	46	44	45
17	1	12	14	16	18
18	1	14	16	18	19
19	1	29	52	50	34
20	4	9	8	7	22
21	1	15	14	16	18
22	3	2	1	28	29
23	4	32	34	35	36
24	4	10	9	8	20
25	1	36	46	44	41
26	1	12	10	9	18
27	1	8	9	18	16
28	1	7	22	24	25
29	1	35	36	37	39
30	5	14	15	26	54
31	1	1	2	24	22
32	1	10	9	18	16
33	4	10	9	8	21
34	2	14	15	26	27
35	1	11	10	12	13
36	4	34	35	36	46
37	1	42	41	44	45
38	4	21	8	7	22
39	1	32	34	50	52
40	4	5	7	8	21
41	1	32	30	29	52
42	1	38	37	39	40
43	1	29	30	32	33
44	2	24	2	1	28
45	4	18	9	8	21
46	1	36	37	39	40
47	1	33	32	34	35
48	1	31	30	32	33
49	1	3	5	7	8
50	1	11	10	12	14
51	1	10	12	14	15
52	1	42	41	44	46
53	4	5	7	8	9
54	1	13	12	14	15
55	1	37	39	41	42
56	4	32	34	35	48
57	1	6	5	7	8
58	7	39	41	42	43
59	1	1	2	3	4
60	1	37	36	46	47
61	1	11	10	9	18
62	1	8	7	22	23
63	1	33	32	34	50
64	1	28	29	30	31
65	1	39	37	36	46
66	4	48	35	34	50
67	4	46	36	35	48
68	4	37	36	35	48
69	4	7	8	9	10
70	4	32	34	35	49
71	1	31	30	29	52
72	2	3	2	1	28
73	1	23	22	24	25
74	1	1	2	3	5
75	2	12	14	15	26
76	1	40	39	41	44
77	6	27	26	54	55
78	4	7	8	9	18
79	4	37	36	35	49
80	1	37	36	46	44
81	1	3	2	24	25
82	1	35	36	46	47
83	1	30	29	52	53
84	1	9	18	16	17
85	1	9	10	12	13
86	6	15	26	54	55
87	1	28	29	52	53
88	1	5	7	22	23
89	6	27	26	54	56
90	1	5	3	2	24
91	1	45	44	46	47
92	1	29	52	50	51
93	1	38	37	39	41
94	1	51	50	52	53
95	1	29	30	32	34
96	1	36	37	39	41
97	1	30	32	34	35
98	1	8	9	18	19
99	1	31	30	32	34
100	1	9	10	12	14
101	1	10	12	14	16
102	1	12	14	16	17
103	1	38	37	36	46
104	1	13	12	14	16
105	1	3	5	7	22
106	1	3	2	24	22
107	1	5	7	22	24
108	1	15	14	16	17
109	1	30	29	52	50
110	4	49	35	34	50
111	1	9	18	16	14
112	1	35	34	50	51
113	1	4	3	5	6
114	1	17	16	18	19
115	1	6	5	7	22
116	1	35	36	37	38
117	1	30	32	34	50
118	1	8	7	22	24
119	1	28	29	30	32
120	1	34	50	52	53
121	4	46	36	35	49
122	1	8	9	10	11
123	1	37	39	41	44
124	2	16	14	15	26
125	1	39	41	44	45
126	1	2	24	22	23
127	1	35	34	50	52
128	1	4	3	5	7
129	1	32	34	50	51
130	2	1	28	29	52
131	4	5	7	8	20
132	4	36	35	34	50
133	1	2	3	5	6
134	1	8	9	10	12
135	1	41	44	46	47

Impropers

7	1	44	45	46	41
12	1	10	9	11	12
15	1	32	33	34	30
16	1	32	34	30	33
20	1	2	24	1	3
23	1	18	9	16	19
26	1	44	41	45	46
27	1	12	13	14	10
28	1	54	26	55	56
31	1	32	30	33	34
34	1	52	29	50	53
35	1	29	30	52	28
36	1	34	50	32	35
37	1	36	37	46	35
39	1	14	12	15	16
41	1	22	23	24	7
43	2	26	27	54	15
47	1	37	38	39	36
50	1	50	34	51	52
55	1	46	47	36	44
58	1	14	16	12	15
62	1	22	24	7	23
72	2	26	54	15	27
73	1	44	46	41	45
76	1	24	2	22	25
80	1	10	12	9	11
82	1	2	1	3	24
83	1	7	5	8	22
84	1	30	31	32	29
86	1	3	4	5	2
92	1	9	10	18	8
93	1	24	22	25	2
96	1	10	11	12	9
97	1	52	50	53	29
103	1	5	3	6	7
104	1	41	39	42	44
106	1	29	52	28	30
108	1	16	14	17	18
110	1	46	36	44	47
111	1	46	44	47	36
115	1	37	39	36	38
117	2	26	15	27	54
118	1	41	42	44	39
120	1	22	7	23	24
121	1	52	53	29	50
123	1	3	2	4	5
124	1	9	8	10	18
125	1	16	18	14	17
126	1	18	19	9	16
130	1	2	3	24	1
133	1	50	51	52	34
137	1	9	18	8	10
143	1	54	55	56	26
146	1	3	5	2	4
147	1	18	16	19	9
148	1	14	15	16	12
149	1	24	25	2	22
150	1	30	29	31	32
152	1	37	36	38	39
158	1	36	46	35	37
159	1	16	17	18	14
161	1	34	35	50	32
165	1	39	40	41	37
167	1	50	52	34	51
172	1	30	32	29	31
175	1	54	56	26	55
177	1	12	10	13	14
178	1	12	14	10	13
179	1	39	37	40	41
182	1	5	7	3	6
190	1	34	32	35	50
191	1	41	44	39	42
195	1	39	41	37	40
198	1	5	6	7	3
200	1	7	8	22	5
201	1	36	35	37	46
202	1	7	22	5	8
204	1	29	28	30	52
