Title

94 atoms
99 bonds
178 angles
291 dihedrals
78 impropers

9 atom types
13 bond types
6 angle types
13 dihedral types
2 improper types
-6.107999802 93.8920002 xlo xhi
-8.142000198 91.8579998 ylo yhi
-7.777999878 92.22200012 zlo zhi
0.0 0.0 0.0 xy xz yz

Masses

1	15.99943
2	12.01078
3	1.007947
4	12.01078
5	1.007947
6	15.99943
7	15.99943
8	1.007947
9	35.4532


Pair Coeffs

1	0.16846514	3.0251065
2	0.086879315	3.4806469
3	0.015611343	2.5725815
4	0.10884061	3.3795318
5	0.015779483	2.6445434
6	0.2102061	3.0398122
7	0.20947353	2.99716
8	1.2326e-05	0.53453923
9	0.2656001	3.3075278

Bond Coeffs

1 harmonic	425.69104206635	1.362945806494
2 harmonic	300.03137914615	1.451203938761
3 harmonic	360.7852444772	1.387193227181
4 harmonic	397.2545789619	1.085358495916
5 harmonic	289.73813263395	1.498646816465
6 harmonic	264.62148576755	1.52190126495
7 harmonic	301.15400723785	1.345741232799
8 harmonic	370.04670688625	1.093899492634
9 harmonic	582.698766451	1.225198386222
10 harmonic	279.1350963404	1.454628925034
11 harmonic	385.7604595587	1.369745182308
12 harmonic	543.5267831885	0.9716763312559
13 harmonic	218.0227703685	1.746066037062


Angle Coeffs

1 harmonic	57.8982893754	126.8062420451
2 harmonic	65.09061609600001	110.3538806181
3 harmonic	34.066775159195	129.1835929926
4 harmonic	53.20531626545	116.5475862634
5 harmonic	201.41175231035	127.4691416191
6 harmonic	48.776492647595	115.6030999533


Dihedral Coeffs

1 fourier 1	3.661930099076	2	180
2 fourier 1	1.532232714475	2	180
3 fourier 1	0.457973137376	1	0
4 fourier 1	0.02664938770063	3	0
5 fourier 1	0.1155372516788	3	0
6 fourier 1	0.1040663847541	3	0
7 fourier 1	0.09223874044423	3	0
8 fourier 1	0.3159935921949	2	180
9 fourier 1	0.3247796806857	1	180
10 fourier 1	2.779853741805	2	180
11 fourier 1	0.9974165607242	2	180
12 fourier 1	0.1911926717192	3	0
13 fourier 1	0.8283030590042	2	180


Improper Coeffs

1 0.3666666666666667	-1	2
2 3.5	-1	2


Atoms

1	1	1	-0.010498	-5.0050001	-1.428	0.45500001
2	1	2	0.083302997	-3.721	-0.88300002	0.412
3	1	2	-0.24361999	-3.346	-0.043000001	1.382
4	1	3	0.223216	-4.0339999	0.204	2.181
5	1	2	-0.190385	-2.0009999	0.56199998	1.3789999
6	1	3	0.21183801	-1.776	1.2359999	2.1889999
7	1	2	-0.15180901	-1.119	0.28999999	0.391
8	1	4	0.012102	0.31099999	0.87800002	0.32300001
9	1	2	-0.15180901	1.289	-0.31600001	0.32600001
10	1	2	-0.191157	1.268	-1.181	1.364
11	1	3	0.21183801	0.57300001	-1.046	2.1830001
12	1	2	-0.215175	2.1849999	-2.335	1.416
13	1	3	0.22355799	2.1440001	-3.003	2.267
14	1	2	0.30619299	3.059	-2.5510001	0.42500001
15	1	1	-0.41852	3.9319999	-3.6370001	0.479
16	1	2	-0.087128997	3.0999999	-1.627	-0.73500001
17	1	4	-0.13306201	4.1090002	-1.8430001	-1.8279999
18	1	5	0.095449999	5.0910001	-1.434	-1.508
19	1	5	0.095449999	4.2199998	-2.9260001	-2.0409999
20	1	5	0.095449999	3.8	-1.3430001	-2.7709999
21	1	2	-0.307749	2.279	-0.56099999	-0.76800001
22	1	3	0.21280999	2.3499999	0.116	-1.607
23	1	4	-0.13072801	0.71200001	1.808	1.523
24	1	5	0.10703	0.347	1.409	2.4920001
25	1	5	0.10703	1.821	1.79	1.633
26	1	4	-0.130494	0.329	3.3	1.368
27	1	5	0.108587	1.217	3.869	1.0140001
28	1	5	0.108587	0.050999999	3.7149999	2.362
29	1	4	-0.15211201	-0.81599998	3.5480001	0.38
30	1	5	0.111386	-1.7640001	3.161	0.80400002
31	1	5	0.111386	-0.95599997	4.645	0.25999999
32	1	4	-0.130494	-0.56099999	2.918	-1.001
33	1	5	0.108587	-0.163	3.6930001	-1.692
34	1	5	0.108587	-1.5319999	2.576	-1.4220001
35	1	4	-0.13072801	0.42699999	1.735	-0.972
36	1	5	0.10703	0.26199999	1.1210001	-1.883
37	1	5	0.10703	1.456	2.155	-1.041
38	1	2	-0.311948	-1.543	-0.65899998	-0.67900002
39	1	3	0.21280999	-0.83999997	-0.91100001	-1.464
40	1	2	-0.074649997	-2.767	-1.216	-0.68099999
41	1	4	-0.136255	-3.1630001	-2.1719999	-1.772
42	1	5	0.095449999	-2.3469999	-2.325	-2.5109999
43	1	5	0.095449999	-3.4159999	-3.1589999	-1.33
44	1	5	0.095449999	-4.0469999	-1.774	-2.313
45	1	2	0.62774199	3.931	-4.309	1.285
46	1	6	-0.49830899	4.9860001	-4.7090001	1.747
47	1	1	-0.010498	-5.3470001	-2.0699999	-0.248
48	1	2	0.083302997	-4.5219998	-2.615	-1.232
49	1	2	-0.24361999	-5.0539999	-3.4549999	-2.125
50	1	3	0.223216	-6.1079998	-3.7019999	-2.076
51	1	2	-0.190385	-4.223	-4.0599999	-3.1830001
52	1	3	0.21183801	-4.7220001	-4.7340002	-3.859
53	1	2	-0.15180901	-2.902	-3.7880001	-3.2679999
54	1	4	0.012102	-1.966	-4.3759999	-4.3520002
55	1	2	-0.15180901	-1.3660001	-3.181	-5.1240001
56	1	2	-0.151417	-2.1960001	-2.316	-5.7480001
57	1	3	0.21183801	-3.2690001	-2.4519999	-5.7049999
58	1	2	-0.37868401	-1.6720001	-1.163	-6.5009999
59	1	3	0.22803099	-2.3670001	-0.495	-6.994
60	1	2	0.28166699	-0.352	-0.94700003	-6.5780001
61	1	7	-0.63872403	0.14300001	0.14	-7.3000002
62	1	8	0.43528301	-0.47099999	0.78899997	-7.7779999
63	1	2	-0.25978899	0.58600003	-1.8710001	-5.8959999
64	1	4	-0.119235	2.069	-1.655	-6.0170002
65	1	5	0.095449999	2.4219999	-2.0639999	-6.987
66	1	5	0.095449999	2.3050001	-0.57099998	-5.973
67	1	5	0.095449999	2.6199999	-2.155	-5.1919999
68	1	2	-0.272742	0.106	-2.937	-5.2290001
69	1	3	0.21280999	0.81	-3.6129999	-4.7680001
70	1	4	-0.13072801	-2.664	-5.3060002	-5.408
71	1	5	0.10703	-3.652	-4.9070001	-5.7179999
72	1	5	0.10703	-2.0669999	-5.2880001	-6.348
73	1	4	-0.130494	-2.779	-6.7979999	-5.0100002
74	1	5	0.108587	-1.952	-7.3670001	-5.4910002
75	1	5	0.108587	-3.7320001	-7.2129998	-5.4039998
76	1	4	-0.15211201	-2.7060001	-7.046	-3.5
77	1	5	0.111386	-3.6240001	-6.6589999	-3.0150001
78	1	5	0.111386	-2.698	-8.1420002	-3.3150001
79	1	4	-0.130494	-1.461	-6.4159999	-2.849
80	1	5	0.108587	-0.67199999	-7.191	-2.737
81	1	5	0.108587	-1.728	-6.073	-1.826
82	1	4	-0.13072801	-0.875	-5.2329998	-3.645
83	1	5	0.10703	-0.259	-4.619	-2.9530001
84	1	5	0.10703	-0.186	-5.6529999	-4.4130001
85	1	2	-0.311948	-2.3199999	-2.839	-2.2739999
86	1	3	0.21280999	-1.2690001	-2.5869999	-2.3440001
87	1	2	-0.074649997	-3.0739999	-2.2809999	-1.309
88	1	4	-0.136255	-2.4579999	-1.325	-0.32499999
89	1	5	0.095449999	-1.373	-1.173	-0.51300001
90	1	5	0.095449999	-2.9619999	-0.33899999	-0.39899999
91	1	5	0.095449999	-2.5769999	-1.723	0.704
92	1	2	0.46730199	2.9909999	-4.6479998	1.707
93	1	6	-0.57453299	1.938	-4.1820002	1.304
94	1	9	-0.084201999	2.984	-5.8670001	2.967

Bonds

1	1	1	2
2	2	1	47
3	3	2	3
4	3	2	40
5	4	3	4
6	3	3	5
7	4	5	6
8	3	5	7
9	5	7	8
10	3	7	38
11	5	8	9
12	6	8	23
13	6	8	35
14	3	9	10
15	3	9	21
16	4	10	11
17	3	10	12
18	4	12	13
19	3	12	14
20	1	14	15
21	3	14	16
22	7	15	45
23	5	16	17
24	3	16	21
25	8	17	18
26	8	17	19
27	8	17	20
28	4	21	22
29	8	23	24
30	8	23	25
31	6	23	26
32	8	26	27
33	8	26	28
34	6	26	29
35	8	29	30
36	8	29	31
37	6	29	32
38	8	32	33
39	8	32	34
40	6	32	35
41	8	35	36
42	8	35	37
43	4	38	39
44	3	38	40
45	5	40	41
46	8	41	42
47	8	41	43
48	8	41	44
49	9	45	46
50	10	45	92
51	1	47	48
52	3	48	49
53	3	48	87
54	4	49	50
55	3	49	51
56	4	51	52
57	3	51	53
58	5	53	54
59	3	53	85
60	5	54	55
61	6	54	70
62	6	54	82
63	3	55	56
64	3	55	68
65	4	56	57
66	3	56	58
67	4	58	59
68	3	58	60
69	11	60	61
70	3	60	63
71	12	61	62
72	5	63	64
73	3	63	68
74	8	64	65
75	8	64	66
76	8	64	67
77	4	68	69
78	8	70	71
79	8	70	72
80	6	70	73
81	8	73	74
82	8	73	75
83	6	73	76
84	8	76	77
85	8	76	78
86	6	76	79
87	8	79	80
88	8	79	81
89	6	79	82
90	8	82	83
91	8	82	84
92	4	85	86
93	3	85	87
94	5	87	88
95	8	88	89
96	8	88	90
97	8	88	91
98	9	92	93
99	13	92	94

Angles

1	4	23	26	29
2	3	48	49	50
3	6	80	79	81
4	3	50	49	51
5	6	66	64	67
6	1	15	45	92
7	4	29	32	35
8	1	1	2	3
9	3	9	10	11
10	3	55	56	57
11	1	10	12	14
12	1	60	63	68
13	1	48	49	51
14	2	60	61	62
15	4	76	79	82
16	4	71	70	73
17	4	70	73	75
18	6	42	41	43
19	4	74	73	76
20	1	58	60	63
21	4	80	79	82
22	6	19	17	20
23	1	85	87	88
24	4	8	35	36
25	4	78	76	79
26	1	60	63	64
27	3	55	68	69
28	3	59	58	60
29	4	8	23	25
30	1	51	53	54
31	6	18	17	19
32	1	55	56	58
33	4	54	82	83
34	1	10	9	21
35	4	32	35	36
36	4	70	73	76
37	6	42	41	44
38	1	61	60	63
39	4	30	29	32
40	1	56	58	60
41	4	70	54	82
42	1	54	53	85
43	4	8	35	37
44	1	53	85	87
45	5	15	45	46
46	1	45	92	93
47	4	54	82	79
48	4	7	8	23
49	1	48	87	85
50	3	13	12	14
51	1	46	45	92
52	4	54	82	84
53	1	51	53	85
54	4	16	17	20
55	6	27	26	28
56	6	90	88	91
57	1	5	7	8
58	4	28	26	29
59	4	7	8	35
60	4	53	54	70
61	1	8	9	21
62	4	24	23	26
63	1	45	92	94
64	3	57	56	58
65	4	63	64	66
66	2	1	47	48
67	4	26	29	30
68	4	87	88	89
69	6	89	88	90
70	1	38	40	41
71	1	93	92	94
72	1	49	48	87
73	3	52	51	53
74	1	8	9	10
75	4	27	26	29
76	4	54	70	71
77	1	9	10	12
78	4	75	73	76
79	1	12	14	15
80	3	3	5	6
81	4	63	64	67
82	3	11	10	12
83	3	16	21	22
84	6	33	32	34
85	1	55	68	63
86	3	49	51	52
87	1	64	63	68
88	3	39	38	40
89	4	73	76	77
90	1	47	48	87
91	3	4	3	5
92	4	40	41	42
93	4	76	79	80
94	1	9	21	16
95	4	23	26	27
96	3	2	3	4
97	4	54	70	72
98	4	8	23	26
99	1	12	14	16
100	6	83	82	84
101	4	31	29	32
102	6	18	17	20
103	4	34	32	35
104	1	3	5	7
105	4	32	35	37
106	4	29	32	33
107	4	55	54	70
108	1	2	40	41
109	6	65	64	66
110	6	77	76	78
111	1	49	51	53
112	4	79	82	83
113	1	47	48	49
114	4	53	54	82
115	3	63	68	69
116	1	15	14	16
117	4	23	26	28
118	1	58	60	61
119	2	14	15	45
120	1	54	55	68
121	1	14	16	21
122	4	53	54	55
123	6	65	64	67
124	1	1	2	40
125	6	36	35	37
126	4	77	76	79
127	4	79	82	84
128	1	14	16	17
129	4	26	29	31
130	3	10	12	13
131	4	87	88	90
132	6	71	70	72
133	4	70	73	74
134	1	5	7	38
135	1	2	40	38
136	6	74	73	75
137	6	89	88	91
138	1	8	7	38
139	3	86	85	87
140	4	8	23	24
141	4	72	70	73
142	3	6	5	7
143	4	26	29	32
144	3	7	38	39
145	4	23	8	35
146	1	48	87	88
147	1	54	55	56
148	4	55	54	82
149	4	87	88	91
150	4	33	32	35
151	4	16	17	18
152	4	63	64	65
153	6	30	29	31
154	3	56	58	59
155	4	73	76	78
156	4	7	8	9
157	4	9	8	23
158	1	17	16	21
159	4	40	41	43
160	3	53	85	86
161	4	76	79	81
162	1	56	55	68
163	4	54	70	73
164	1	2	3	5
165	4	81	79	82
166	1	3	2	40
167	6	43	41	44
168	3	9	21	22
169	1	7	38	40
170	4	8	35	32
171	4	25	23	26
172	4	29	32	34
173	4	16	17	19
174	2	2	1	47
175	4	9	8	35
176	4	73	76	79
177	4	40	41	44
178	6	24	23	25

Dihedrals

1	2	12	14	15	45
2	7	54	70	73	76
2	8	54	70	73	76
2	9	54	70	73	76
3	7	23	26	29	32
3	8	23	26	29	32
3	9	23	26	29	32
4	1	9	10	12	13
5	5	55	54	70	73
6	1	8	7	38	39
7	6	31	29	32	35
8	2	3	2	1	47
9	4	9	8	7	38
10	4	48	87	88	90
11	7	54	82	79	76
11	8	54	82	79	76
11	9	54	82	79	76
12	1	13	12	14	15
13	4	14	16	17	19
14	12	27	26	29	30
15	1	47	48	87	85
16	1	5	7	38	39
17	1	12	14	16	21
18	1	55	68	63	60
19	1	54	53	85	87
20	6	26	29	32	34
21	6	70	73	76	77
22	12	78	76	79	81
23	6	24	23	26	29
24	1	4	3	5	7
25	2	1	47	48	49
26	4	56	55	54	70
27	4	5	7	8	9
28	5	9	8	23	24
29	5	7	8	35	37
30	1	8	9	21	22
31	1	9	10	12	14
32	1	8	7	38	40
33	1	3	2	40	41
34	1	12	14	16	17
35	6	28	26	29	32
36	10	14	15	45	92
37	12	34	32	35	37
38	1	5	3	2	40
39	1	54	55	56	58
40	4	14	16	17	20
41	6	54	82	79	80
42	1	3	5	7	38
43	1	5	7	38	40
44	5	9	8	35	36
45	11	15	45	92	94
46	4	23	8	7	38
47	6	25	23	8	35
48	12	25	23	26	28
49	7	8	23	26	29
49	8	8	23	26	29
49	9	8	23	26	29
50	4	66	64	63	68
51	6	24	23	8	35
52	4	10	9	8	35
53	1	50	49	48	87
54	5	9	8	35	32
55	12	71	70	73	74
56	5	53	54	70	71
57	1	56	58	60	61
58	1	6	5	7	38
59	1	8	9	10	11
60	1	11	10	12	14
61	1	10	12	14	16
62	12	74	73	76	78
63	1	56	55	68	63
64	1	55	68	63	64
65	1	57	56	58	59
66	1	2	3	5	6
67	4	7	8	9	10
68	6	25	23	26	29
69	5	53	54	82	83
70	1	48	87	85	53
71	4	67	64	63	68
72	12	30	29	32	33
73	1	51	53	85	86
74	1	14	16	21	22
75	4	19	17	16	21
76	4	60	63	64	65
77	4	35	8	7	38
78	4	38	40	41	43
79	12	72	70	73	74
80	6	75	73	76	79
81	12	80	79	82	83
82	1	58	56	55	68
83	4	56	55	54	82
84	5	53	54	82	79
85	2	14	15	45	46
86	1	55	56	58	60
87	1	61	60	63	68
88	13	62	61	60	63
89	6	74	73	76	79
90	1	86	85	87	88
91	1	54	55	68	69
92	1	57	56	55	68
93	1	57	56	58	60
94	1	2	3	5	7
95	1	11	10	9	21
96	1	48	49	51	52
97	1	59	58	60	63
98	12	33	32	35	36
99	5	7	8	23	26
100	12	30	29	32	34
101	1	61	60	63	64
102	4	48	87	88	91
103	1	13	12	14	16
104	12	27	26	29	31
105	4	38	40	41	44
106	1	52	51	53	85
107	6	73	76	79	80
108	7	26	29	32	35
108	8	26	29	32	35
108	9	26	29	32	35
109	6	70	73	76	78
110	6	78	76	79	82
111	6	8	35	32	33
112	5	9	8	23	25
113	2	40	2	1	47
114	11	46	45	92	93
115	1	1	2	40	41
116	4	2	40	41	42
117	4	18	17	16	21
118	4	21	9	8	23
119	4	65	64	63	68
120	4	51	53	54	70
121	12	77	76	79	80
122	4	5	7	8	23
123	4	85	87	88	89
124	1	48	49	51	53
125	7	8	35	32	29
125	8	8	35	32	29
125	9	8	35	32	29
126	6	54	82	79	81
127	6	54	70	73	74
128	5	9	8	35	37
129	6	23	26	29	30
130	1	51	49	48	87
131	7	70	73	76	79
131	8	70	73	76	79
131	9	70	73	76	79
132	5	55	54	70	71
133	1	10	9	21	16
134	1	3	2	40	38
135	1	64	63	68	69
136	12	31	29	32	33
137	4	21	9	8	35
138	4	68	55	54	70
139	12	81	79	82	83
140	7	23	8	35	32
140	8	23	8	35	32
140	9	23	8	35	32
141	1	52	51	53	54
142	4	5	7	8	35
143	1	50	49	51	52
144	6	29	32	35	36
145	5	55	54	82	83
146	4	85	87	88	90
147	12	71	70	73	75
148	12	24	23	26	27
149	5	53	54	70	72
150	1	8	9	10	12
151	1	1	2	40	38
152	1	47	48	87	88
153	1	53	85	87	88
154	6	23	26	29	31
155	6	70	54	82	83
156	4	55	54	53	85
157	4	53	54	55	56
158	1	7	38	40	41
159	1	12	10	9	21
160	12	28	26	29	30
161	5	53	54	82	84
162	2	16	14	15	45
163	12	31	29	32	34
164	5	55	54	82	79
165	4	82	54	53	85
166	5	7	8	23	24
167	1	51	53	85	87
168	7	26	23	8	35
168	8	26	23	8	35
168	9	26	23	8	35
169	1	56	55	68	69
170	1	1	2	3	4
171	4	48	87	88	89
172	6	29	32	35	37
173	4	14	16	17	18
174	1	50	49	51	53
175	4	60	63	64	66
176	4	70	54	53	85
177	7	70	54	82	79
177	8	70	54	82	79
177	9	70	54	82	79
178	12	72	70	73	75
179	12	80	79	82	84
180	1	54	53	85	86
181	1	8	9	21	16
182	12	24	23	26	28
183	1	4	3	5	6
184	1	49	48	87	88
185	6	8	23	26	27
186	1	39	38	40	41
187	5	53	54	70	73
188	1	56	58	60	63
189	3	2	1	47	48
190	6	71	70	73	76
191	6	71	70	54	82
192	4	53	54	55	68
193	4	51	53	54	82
194	5	7	8	35	36
195	6	70	54	82	84
196	1	2	40	38	39
197	1	3	5	7	8
198	1	9	21	16	17
199	12	28	26	29	31
200	1	15	14	16	17
201	12	33	32	35	37
202	6	30	29	32	35
203	6	23	8	35	36
204	5	7	8	23	25
205	12	34	32	35	36
206	1	1	2	3	5
207	4	60	63	64	67
208	1	49	51	53	54
209	1	54	55	56	57
210	6	27	26	29	32
211	13	58	60	61	62
212	7	73	70	54	82
212	8	73	70	54	82
212	9	73	70	54	82
213	5	7	8	35	32
214	6	72	70	73	76
215	1	47	48	49	50
216	11	15	45	92	93
217	6	73	76	79	81
218	6	76	79	82	83
219	12	25	23	26	27
220	6	8	23	26	28
221	4	51	53	54	55
222	4	68	55	54	82
223	6	72	70	54	82
224	6	8	35	32	34
225	5	9	8	23	26
226	1	6	5	7	8
227	11	46	45	92	94
228	4	2	40	41	43
229	4	10	9	8	23
230	12	77	76	79	81
231	1	2	40	38	7
232	12	75	73	76	77
233	1	49	48	87	85
234	6	23	8	35	37
235	1	11	10	12	13
236	1	48	87	85	86
237	1	10	12	14	15
238	12	74	73	76	77
239	1	4	3	2	40
240	6	54	70	73	75
241	4	20	17	16	21
242	1	58	60	63	68
243	6	76	79	82	84
244	1	47	48	49	51
245	7	73	76	79	82
245	8	73	76	79	82
245	9	73	76	79	82
246	1	9	21	16	14
247	1	49	51	53	85
248	5	55	54	70	72
249	1	17	16	21	22
250	1	59	58	60	61
251	12	81	79	82	84
252	1	60	63	68	69
253	4	2	40	41	44
254	4	7	8	9	21
255	1	54	55	68	63
256	6	77	76	79	82
257	1	10	9	21	22
258	4	38	40	41	42
259	1	58	60	63	64
260	5	55	54	82	84
261	6	26	29	32	33
262	12	75	73	76	78
263	1	15	14	16	21
264	12	78	76	79	80
265	4	85	87	88	91
266	1	55	56	58	59
267	2	1	47	48	87

Impropers

4	1	87	85	88	48
5	2	45	92	15	46
9	1	38	7	39	40
17	1	56	57	58	55
20	1	92	93	94	45
23	1	38	40	7	39
28	1	5	3	6	7
42	1	7	8	38	5
51	1	85	86	87	53
53	1	12	14	10	13
54	1	68	69	55	63
56	1	48	47	49	87
59	1	87	48	85	88
69	1	51	49	52	53
71	1	21	16	22	9
72	1	92	45	93	94
73	1	48	87	47	49
84	1	5	7	3	6
90	1	58	59	60	56
97	1	49	50	51	48
105	1	14	15	16	12
111	1	21	9	16	22
112	1	12	13	14	10
113	1	53	85	51	54
130	1	40	41	2	38
134	1	68	63	69	55
139	1	92	94	45	93
142	1	60	61	63	58
143	1	55	56	68	54
152	1	9	21	8	10
169	1	51	52	53	49
180	1	68	55	63	69
181	1	2	40	1	3
191	1	63	68	60	64
209	1	55	54	56	68
210	1	14	12	15	16
219	1	3	4	5	2
224	2	45	46	92	15
228	1	56	55	57	58
230	1	58	56	59	60
238	1	40	38	41	2
247	1	49	48	50	51
248	1	85	53	86	87
266	1	9	8	10	21
276	1	2	1	3	40
286	1	16	17	21	14
287	1	10	12	9	11
296	1	10	11	12	9
305	1	2	3	40	1
315	1	40	2	38	41
316	1	48	49	87	47
323	1	63	64	68	60
324	1	85	87	53	86
334	1	58	60	56	59
351	1	51	53	49	52
352	1	16	14	17	21
355	1	53	51	54	85
362	1	7	38	5	8
363	1	53	54	85	51
364	1	16	21	14	17
391	1	10	9	11	12
399	1	49	51	48	50
400	1	55	68	54	56
420	1	38	39	40	7
423	1	87	88	48	85
425	1	60	63	58	61
427	1	63	60	64	68
428	1	60	58	61	63
446	1	3	2	4	5
451	1	12	10	13	14
453	1	5	6	7	3
468	1	7	5	8	38
473	2	45	15	46	92
493	1	14	16	12	15
494	1	56	58	55	57
498	1	21	22	9	16
523	1	9	10	21	8
530	1	3	5	2	4
