Title

149 atoms
158 bonds
277 angles
441 dihedrals
168 impropers

10 atom types
14 bond types
9 angle types
19 dihedral types
3 improper types
-5.508999825 94.49100018 xlo xhi
-7.627999783 92.37200022 ylo yhi
-3.470999956 96.52900004 zlo zhi
0.0 0.0 0.0 xy xz yz

Masses

1	14.00672
2	12.01078
3	1.007947
4	12.01078
5	1.007947
6	18.998403
7	15.99943
8	1.007947
9	15.99943
10	1.007947


Pair Coeffs

1	0.16769152	3.206876
2	0.086879315	3.4806469
3	0.015611343	2.5725815
4	0.10884061	3.3795318
5	0.014090815	1.1034277
6	0.061	3.1181455
7	0.2102061	3.0398122
8	0.015779483	2.6445434
9	0.20947353	2.99716
10	1.2326e-05	0.53453923

Bond Coeffs

1 harmonic	390.03554688505	1.390160554689
2 harmonic	505.144496193	1.019481865027
3 harmonic	422.7150220147	1.421786517481
4 harmonic	360.7852444772	1.387193227181
5 harmonic	397.2545789619	1.085358495916
6 harmonic	289.73813263395	1.498646816465
7 harmonic	264.62148576755	1.52190126495
8 harmonic	492.76746816345	1.381897776683
9 harmonic	340.45121009905	1.358690858053
10 harmonic	582.698766451	1.225198386222
11 harmonic	279.1350963404	1.454628925034
12 harmonic	370.04670688625	1.093899492634
13 harmonic	385.7604595587	1.369745182308
14 harmonic	543.5267831885	0.9716763312559


Angle Coeffs

1 harmonic	57.8982893754	126.8062420451
2 harmonic	55.42182150775	117.3465570514
3 harmonic	63.44422595415	115.5071327674
4 harmonic	34.066775159195	129.1835929926
5 harmonic	53.20531626545	116.5475862634
6 harmonic	14.32262199324	138.3184368373
7 harmonic	48.776492647595	115.6030999533
8 harmonic	65.09061609600001	110.3538806181
9 harmonic	201.41175231035	127.4691416191


Dihedral Coeffs

1 fourier 1	3.661930099076	2	180
2 fourier 1	1.193093382682	2	180
3 fourier 1	0.02021088501612	1	0
4 fourier 1	0.02664938770063	3	0
5 fourier 1	0.1155372516788	3	0
6 fourier 1	3.101948770557	2	180
7 fourier 1	-0.4252153282372	1	0
8 fourier 1	1.809047390003	2	180
9 fourier 1	-0.04816277792592	1	0
10 fourier 1	0.9974165607242	2	180
11 fourier 1	2.348375642009	2	180
12 fourier 1	1.256156174911	1	0
13 fourier 1	0.09223874044423	3	0
14 fourier 1	0.3159935921949	2	180
15 fourier 1	0.3247796806857	1	180
16 fourier 1	0.1040663847541	3	0
17 fourier 1	2.687457892086	2	180
18 fourier 1	2.772607909663	2	180
19 fourier 1	0.09692684957115	1	0


Improper Coeffs

1 0.3666666666666667	-1	2
2 0.3333333333333333	-1	2
3 3.5	-1	2


Atoms

1	1	1	-0.41166899	-4.6230001	-1.209	1.8329999
2	1	2	0.140864	-3.4860001	-0.90600002	1.02
3	1	2	-0.407314	-3.2179999	-1.633	-0.072999999
4	1	3	0.22446001	-3.8610001	-2.457	-0.35600001
5	1	2	-0.13319001	-2.0439999	-1.318	-0.91299999
6	1	3	0.214323	-1.9	-1.925	-1.791
7	1	2	-0.095362999	-1.199	-0.31200001	-0.583
8	1	4	-0.26280001	0.02	0.093999997	-1.446
9	1	2	-0.095362999	1.2130001	0.37599999	-0.50099999
10	1	2	-0.145917	2.0650001	1.416	-0.667
11	1	3	0.214323	1.9450001	2.1370001	-1.4579999
12	1	2	-0.377691	3.214	1.6109999	0.241
13	1	3	0.220873	3.8629999	2.4649999	0.092
14	1	2	0.209435	3.451	0.74299997	1.233
15	1	1	-0.53189701	4.5630002	0.93000001	2.112
16	1	5	0.31977499	5.2080002	1.744	2.0020001
17	1	2	-0.377691	2.5569999	-0.419	1.41
18	1	3	0.220873	2.75	-1.1339999	2.2
19	1	2	-0.145917	1.512	-0.59600002	0.59399998
20	1	3	0.214323	0.87800002	-1.461	0.74299997
21	1	4	0.75313598	-0.42500001	1.344	-2.279
22	1	6	-0.200719	0.49900001	1.655	-3.263
23	1	6	-0.200719	-1.636	1.099	-2.908
24	1	6	-0.200719	-0.58999997	2.4489999	-1.46
25	1	4	0.75313598	0.491	-1.033	-2.428
26	1	6	-0.200719	-0.40400001	-1.206	-3.471
27	1	6	-0.200719	1.719	-0.70700002	-2.983
28	1	6	-0.200719	0.63499999	-2.2390001	-1.763
29	1	2	-0.13319001	-1.5319999	0.50300002	0.625
30	1	3	0.214323	-0.90399998	1.3380001	0.90899998
31	1	2	-0.407314	-2.5999999	0.219	1.3789999
32	1	3	0.22446001	-2.8169999	0.81999999	2.2520001
33	1	5	0.37314901	-5.2620001	-1.999	1.594
34	1	2	0.76842201	4.7519999	0.23800001	2.898
35	1	7	-0.657269	4.5780001	-0.991	2.6819999
36	1	2	-0.37068701	5.2090001	0.71600002	4.2150002
37	1	2	-0.079042003	5.388	2.0280001	4.4289999
38	1	3	0.224501	5.197	2.7479999	3.642
39	1	2	-0.249295	5.8449998	2.5190001	5.7459998
40	1	3	0.214581	5.9489999	3.5869999	5.8629999
41	1	2	-0.209986	6.1199999	1.658	6.75
42	1	4	0.024866	6.5609999	2.1210001	8.1490002
43	1	4	-0.131551	7.0910001	3.575	8.1940002
44	1	8	0.08766	6.276	4.302	7.994
45	1	8	0.08766	7.5040002	3.8110001	9.198
46	1	8	0.08766	7.8990002	3.721	7.4450002
47	1	2	-0.12523	7.632	1.222	8.6829996
48	1	2	-0.152558	8.8199997	0.954	8.1199999
49	1	3	0.213956	9.0939999	1.39	7.1680002
50	1	2	-0.00057799998	9.757	0.046999998	8.823
51	1	3	0.214711	10.713	-0.17399999	8.3640003
52	1	2	-0.34579301	9.4230003	-0.49000001	10.016
53	1	2	0.58598202	10.363	-1.388	10.708
54	1	7	-0.51462603	10.067	-1.898	11.822
55	1	2	0.070546001	8.1009998	-0.164	10.621
56	1	3	0.208516	7.8189998	-0.57300001	11.582
57	1	2	-0.181224	7.2639999	0.64899999	9.9580002
58	1	4	-0.027269	5.9109998	1.114	10.393
59	1	4	-0.13114201	6.0349998	2.0009999	11.646
60	1	8	0.091894001	6.4439998	1.42	12.5
61	1	8	0.091894001	6.711	2.8610001	11.452
62	1	8	0.091894001	5.039	2.3970001	11.939
63	1	4	-0.13114201	4.9850001	-0.085000001	10.677
64	1	8	0.091894001	5.3509998	-0.671	11.547
65	1	8	0.091894001	4.9369998	-0.759	9.7950001
66	1	8	0.091894001	3.957	0.27000001	10.906
67	1	4	-0.18120299	5.3920002	1.944	9.1739998
68	1	8	0.130119	4.9819999	2.927	9.4989996
69	1	8	0.130119	4.533	1.425	8.6929998
70	1	2	-0.249295	5.8909998	0.204	6.5079999
71	1	3	0.214581	6.0580001	-0.51300001	7.302
72	1	2	-0.079042003	5.4699998	-0.23800001	5.3169999
73	1	3	0.224501	5.3130002	-1.299	5.171
74	1	1	-0.41166899	-4.8309999	-0.63999999	2.684
75	1	2	0.140864	-4.1989999	-0.94199997	3.9300001
76	1	2	-0.407314	-4.4660001	-0.21600001	5.0240002
77	1	3	0.22446001	-5.1669998	0.60799998	4.9770002
78	1	2	-0.13319001	-3.813	-0.53100002	6.3109999
79	1	3	0.214323	-4.0910001	0.077	7.1560001
80	1	2	-0.095362999	-2.911	-1.5369999	6.408
81	1	4	-0.26280001	-2.2290001	-1.943	7.7379999
82	1	2	-0.095362999	-0.73400003	-2.2249999	7.4499998
83	1	2	-0.090585999	-0.055	-3.2639999	7.9910002
84	1	3	0.214323	-0.52700001	-3.9860001	8.6370001
85	1	2	-0.45374799	1.3839999	-3.46	7.7160001
86	1	3	0.22989599	1.89	-4.3140001	8.1479998
87	1	2	0.33364299	2.052	-2.592	6.9460001
88	1	1	-0.844423	3.4449999	-2.779	6.6799998
89	1	5	0.366896	3.9649999	-2.099	6.0819998
90	1	5	0.366896	3.9660001	-3.5929999	7.0770001
91	1	2	-0.45374799	1.341	-1.4299999	6.3759999
92	1	3	0.22989599	1.877	-0.71499997	5.7649999
93	1	2	-0.090585999	0.037999999	-1.253	6.6170001
94	1	3	0.214323	-0.456	-0.38800001	6.1919999
95	1	4	0.75313598	-3.0079999	-3.1930001	8.2709999
96	1	6	-0.200719	-2.6429999	-3.5039999	9.5699997
97	1	6	-0.200719	-4.3720002	-2.948	8.2690001
98	1	6	-0.200719	-2.776	-4.2979999	7.4679999
99	1	4	0.75313598	-2.2639999	-0.81599998	8.8260002
100	1	6	-0.200719	-3.54	-0.64300001	9.3380003
101	1	6	-0.200719	-1.431	-1.142	9.8850002
102	1	6	-0.200719	-1.83	0.38999999	8.302
103	1	2	-0.13319001	-2.648	-2.352	5.1830001
104	1	3	0.214323	-1.96	-3.187	5.2220001
105	1	2	-0.407314	-3.247	-2.0669999	4.0219998
106	1	3	0.22446001	-3.0350001	-2.6689999	3.1470001
107	1	5	0.37314901	-5.5089998	0.15099999	2.5999999
108	1	2	0.59148598	11.322	-1.62	10.265
109	1	7	-0.52506101	11.395	-1.779	9.0170002
110	1	2	-0.334308	12.514	-1.7460001	11.124
111	1	2	0.0046939999	13.724	-2.03	10.613
112	1	3	0.22232699	13.86	-2.175	9.5489998
113	1	2	-0.24268401	14.899	-2.148	11.499
114	1	3	0.214581	15.859	-2.3599999	11.045
115	1	2	-0.209986	14.786	-1.993	12.837
116	1	4	0.024866	16.035	-2.095	13.73
117	1	4	-0.131551	15.707	-2.148	15.239
118	1	8	0.08766	14.999	-2.977	15.46
119	1	8	0.08766	15.261	-1.1900001	15.581
120	1	8	0.08766	16.629999	-2.316	15.836
121	1	2	-0.12523	16.834999	-3.3139999	13.386
122	1	2	-0.171865	16.415001	-4.5869999	13.389
123	1	3	0.213956	15.393	-4.8330002	13.645
124	1	2	-0.061457001	17.374001	-5.6589999	13.033
125	1	3	0.231114	17.024	-6.6830001	13.032
126	1	2	-0.22755501	18.655001	-5.3579998	12.72
127	1	2	0.83543497	19.625	-6.4169998	12.366
128	1	7	-0.47969899	19.275	-7.6279998	12.348
129	1	9	-0.66435099	20.938	-6.0809999	12.048
130	1	10	0.41812399	21.613001	-6.796	11.803
131	1	2	0.0052519999	19.091	-3.9319999	12.736
132	1	3	0.22382499	20.114	-3.6670001	12.502
133	1	2	-0.175405	18.200001	-2.9790001	13.049
134	1	4	-0.027269	18.438	-1.505	13.139
135	1	4	-0.13114201	18.989	-0.958	11.808
136	1	8	0.091894001	19.997	-1.373	11.595
137	1	8	0.091894001	18.315001	-1.226	10.966
138	1	8	0.091894001	19.072001	0.149	11.853
139	1	4	-0.13114201	19.417	-1.197	14.287
140	1	8	0.091894001	19.032	-1.601	15.249
141	1	8	0.091894001	20.410999	-1.651	14.09
142	1	8	0.091894001	19.551001	-0.098999999	14.396
143	1	4	-0.18120299	17.021999	-0.91500002	13.442
144	1	8	0.130119	17.056999	-0.197	14.291
145	1	8	0.130119	16.663	-0.31099999	12.579
146	1	2	-0.24268401	13.439	-1.659	13.389
147	1	3	0.214581	13.29	-1.501	14.447
148	1	2	0.0046939999	12.376	-1.549	12.583
149	1	3	0.22232699	11.409	-1.309	13.007

Bonds

1	1	1	2
2	2	1	33
3	3	1	74
4	4	2	3
5	4	2	31
6	5	3	4
7	4	3	5
8	5	5	6
9	4	5	7
10	6	7	8
11	4	7	29
12	6	8	9
13	7	8	21
14	7	8	25
15	4	9	10
16	4	9	19
17	5	10	11
18	4	10	12
19	5	12	13
20	4	12	14
21	1	14	15
22	4	14	17
23	2	15	16
24	8	15	34
25	5	17	18
26	4	17	19
27	5	19	20
28	9	21	22
29	9	21	23
30	9	21	24
31	9	25	26
32	9	25	27
33	9	25	28
34	5	29	30
35	4	29	31
36	5	31	32
37	10	34	35
38	11	34	36
39	4	36	37
40	4	36	72
41	5	37	38
42	4	37	39
43	5	39	40
44	4	39	41
45	6	41	42
46	4	41	70
47	7	42	43
48	6	42	47
49	7	42	67
50	12	43	44
51	12	43	45
52	12	43	46
53	4	47	48
54	4	47	57
55	5	48	49
56	4	48	50
57	5	50	51
58	4	50	52
59	11	52	53
60	4	52	55
61	10	53	54
62	11	53	108
63	5	55	56
64	4	55	57
65	6	57	58
66	7	58	59
67	7	58	63
68	7	58	67
69	12	59	60
70	12	59	61
71	12	59	62
72	12	63	64
73	12	63	65
74	12	63	66
75	12	67	68
76	12	67	69
77	5	70	71
78	4	70	72
79	5	72	73
80	1	74	75
81	2	74	107
82	4	75	76
83	4	75	105
84	5	76	77
85	4	76	78
86	5	78	79
87	4	78	80
88	6	80	81
89	4	80	103
90	6	81	82
91	7	81	95
92	7	81	99
93	4	82	83
94	4	82	93
95	5	83	84
96	4	83	85
97	5	85	86
98	4	85	87
99	1	87	88
100	4	87	91
101	2	88	89
102	2	88	90
103	5	91	92
104	4	91	93
105	5	93	94
106	9	95	96
107	9	95	97
108	9	95	98
109	9	99	100
110	9	99	101
111	9	99	102
112	5	103	104
113	4	103	105
114	5	105	106
115	10	108	109
116	11	108	110
117	4	110	111
118	4	110	148
119	5	111	112
120	4	111	113
121	5	113	114
122	4	113	115
123	6	115	116
124	4	115	146
125	7	116	117
126	6	116	121
127	7	116	143
128	12	117	118
129	12	117	119
130	12	117	120
131	4	121	122
132	4	121	133
133	5	122	123
134	4	122	124
135	5	124	125
136	4	124	126
137	11	126	127
138	4	126	131
139	10	127	128
140	13	127	129
141	14	129	130
142	5	131	132
143	4	131	133
144	6	133	134
145	7	134	135
146	7	134	139
147	7	134	143
148	12	135	136
149	12	135	137
150	12	135	138
151	12	139	140
152	12	139	141
153	12	139	142
154	12	143	144
155	12	143	145
156	5	146	147
157	4	146	148
158	5	148	149

Angles

1	1	1	2	31
2	1	9	19	17
3	1	116	115	146
4	5	26	25	28
5	4	51	50	52
6	5	58	67	69
7	1	121	122	124
8	7	118	117	119
9	5	81	99	102
10	2	14	15	34
11	4	13	12	14
12	1	82	93	91
13	6	116	121	122
14	5	115	116	121
15	8	127	129	130
16	1	34	36	37
17	1	53	52	55
18	4	147	146	148
19	1	15	14	17
20	1	124	126	127
21	5	116	143	145
22	5	23	21	24
23	7	140	139	142
24	1	111	110	148
25	5	8	21	22
26	5	41	42	67
27	5	115	116	117
28	5	116	143	134
29	7	118	117	120
30	3	89	88	90
31	1	126	127	129
32	5	42	43	46
33	5	41	42	47
34	5	58	59	62
35	1	76	78	80
36	1	15	34	35
37	4	9	10	11
38	3	2	1	33
39	4	75	76	77
40	5	97	95	98
41	5	63	58	67
42	1	50	52	53
43	1	8	9	10
44	1	127	126	131
45	4	112	111	113
46	1	12	14	15
47	4	10	12	13
48	5	41	42	43
49	4	146	148	149
50	4	3	5	6
51	4	83	85	86
52	1	48	50	52
53	4	110	111	112
54	5	133	134	143
55	5	96	95	97
56	4	91	93	94
57	5	100	99	101
58	4	36	37	38
59	4	82	83	84
60	5	101	99	102
61	1	52	53	54
62	1	75	76	78
63	1	8	7	29
64	5	134	135	136
65	4	80	103	104
66	4	2	31	32
67	3	14	15	16
68	5	133	134	139
69	6	131	133	134
70	1	121	133	131
71	4	2	3	4
72	6	42	47	48
73	5	58	63	64
74	4	114	113	115
75	1	10	12	14
76	1	53	108	109
77	1	3	5	7
78	2	1	74	75
79	7	119	117	120
80	5	42	67	68
81	5	7	8	9
82	5	133	134	135
83	5	100	99	102
84	5	27	25	28
85	5	43	42	67
86	4	47	48	49
87	5	134	139	142
88	5	8	25	27
89	4	30	29	31
90	1	108	110	111
91	5	43	42	47
92	1	80	103	105
93	5	81	95	97
94	5	134	135	137
95	4	36	72	73
96	4	29	31	32
97	7	60	59	61
98	5	58	63	65
99	6	55	57	58
100	4	122	124	125
101	7	64	63	65
102	4	126	131	132
103	4	17	19	20
104	1	47	57	58
105	4	52	55	56
106	5	116	117	118
107	5	42	67	69
108	4	41	70	71
109	1	78	80	103
110	1	2	31	29
111	5	139	134	143
112	4	14	17	18
113	1	37	36	72
114	4	84	83	85
115	1	74	75	105
116	2	2	1	74
117	5	8	25	28
118	1	76	75	105
119	1	124	126	131
120	5	134	143	144
121	5	81	95	98
122	5	8	21	23
123	1	10	9	19
124	5	82	81	99
125	4	110	148	149
126	4	71	70	72
127	3	75	74	107
128	5	9	8	21
129	1	122	124	126
130	7	64	63	66
131	5	135	134	143
132	1	15	34	36
133	1	9	10	12
134	4	7	29	30
135	1	35	34	36
136	4	132	131	133
137	4	87	91	92
138	1	113	115	146
139	3	87	88	89
140	5	82	81	95
141	1	42	47	57
142	7	136	135	137
143	5	117	116	143
144	3	1	74	107
145	1	39	41	70
146	1	83	82	93
147	7	44	43	45
148	5	81	99	100
149	1	122	121	133
150	1	81	80	103
151	5	135	134	139
152	1	83	85	87
153	1	110	111	113
154	5	8	21	24
155	1	47	57	55
156	1	48	47	57
157	1	81	82	83
158	5	96	95	98
159	5	57	58	63
160	1	109	108	110
161	4	37	39	40
162	1	36	37	39
163	1	42	41	70
164	1	82	83	85
165	7	45	43	46
166	1	87	91	93
167	1	8	9	19
168	4	111	113	114
169	7	136	135	138
170	1	50	52	55
171	1	2	3	5
172	4	70	72	73
173	7	44	43	46
174	5	57	58	59
175	5	81	99	101
176	1	12	14	17
177	5	42	43	44
178	5	117	116	121
179	1	53	108	110
180	5	22	21	23
181	5	58	59	60
182	1	88	87	91
183	7	137	135	138
184	4	103	105	106
185	1	39	41	42
186	7	141	139	142
187	1	5	7	8
188	5	59	58	67
189	1	34	36	72
190	5	42	67	58
191	3	33	1	74
192	4	6	5	7
193	5	9	8	25
194	4	104	103	105
195	4	123	122	124
196	1	47	48	50
197	5	121	116	143
198	5	116	143	144
199	1	85	87	91
200	1	111	113	115
201	5	47	42	67
202	5	134	135	138
203	4	115	146	147
204	7	60	59	62
205	5	59	58	63
206	5	58	63	66
207	1	126	127	128
208	5	42	43	45
209	1	113	115	116
210	5	22	21	24
211	5	58	59	61
212	4	76	78	79
213	5	80	81	82
214	4	125	124	126
215	1	126	131	133
216	1	52	55	57
217	5	116	117	119
218	1	41	70	72
219	1	74	75	76
220	1	54	53	108
221	5	57	58	67
222	1	36	72	70
223	1	14	17	19
224	5	21	8	25
225	4	75	105	106
226	5	134	143	145
227	4	79	78	80
228	4	48	50	51
229	4	38	37	39
230	4	9	19	20
231	1	115	146	148
232	1	121	133	134
233	1	5	7	29
234	7	61	59	62
235	4	82	93	94
236	1	3	2	31
237	4	4	3	5
238	7	65	63	66
239	1	7	29	31
240	5	134	139	140
241	7	144	143	145
242	5	95	81	99
243	1	85	87	88
244	1	1	2	3
245	5	116	117	120
246	3	87	88	90
247	1	108	110	148
248	1	110	148	146
249	3	16	15	34
250	5	26	25	27
251	4	40	39	41
252	5	58	67	68
253	5	80	81	99
254	1	52	53	108
255	4	56	55	57
256	4	86	85	87
257	5	115	116	143
258	4	121	122	123
259	5	7	8	25
260	1	81	82	93
261	4	92	91	93
262	1	116	121	133
263	4	18	17	19
264	4	49	48	50
265	5	134	139	141
266	4	11	10	12
267	7	68	67	69
268	4	77	76	78
269	9	128	127	129
270	1	75	105	103
271	5	80	81	95
272	1	37	39	41
273	1	78	80	81
274	5	7	8	21
275	5	8	25	26
276	7	140	139	141
277	5	81	95	96

Dihedrals

1	16	66	63	58	67
2	4	122	121	116	143
3	1	85	87	91	93
4	1	4	3	5	6
5	16	135	134	139	140
6	1	30	29	31	32
7	4	7	8	9	10
8	16	65	63	58	67
9	1	3	5	7	29
10	1	108	110	148	146
11	16	142	139	134	143
12	4	43	42	41	70
13	5	133	134	143	144
14	1	147	146	148	149
15	5	115	116	143	145
16	1	86	85	87	91
17	1	83	82	93	91
18	10	53	108	110	111
19	5	80	81	99	100
20	16	43	42	67	69
21	10	35	34	36	37
22	1	53	52	55	57
23	13	43	42	67	58
23	14	43	42	67	58
23	15	43	42	67	58
24	5	57	58	59	62
25	1	126	131	133	134
26	5	115	116	117	120
27	4	47	42	41	70
28	1	82	83	85	86
29	1	113	115	146	147
30	5	7	8	21	24
31	4	7	8	9	19
32	10	50	52	53	108
33	1	81	82	93	94
34	1	110	111	113	114
35	4	39	41	42	43
36	5	95	81	99	100
37	1	127	126	131	132
38	1	116	121	122	123
39	2	85	87	88	90
40	5	41	42	43	46
41	5	82	81	95	96
42	1	49	48	47	57
43	5	21	8	25	27
44	1	8	7	29	30
45	1	49	48	50	51
46	1	108	110	111	112
47	1	83	85	87	88
48	1	12	14	17	18
49	5	23	21	8	25
50	3	33	1	74	107
51	2	17	14	15	34
52	1	111	110	148	146
53	4	121	133	134	135
54	1	123	122	121	133
55	5	22	21	8	25
56	1	34	36	37	39
57	4	99	81	80	103
58	1	40	39	41	70
59	1	116	121	133	134
60	16	117	116	143	145
61	2	31	2	1	33
62	1	75	76	78	80
63	1	37	36	72	70
64	5	118	117	116	121
65	1	85	83	82	93
66	10	52	53	108	110
67	10	124	126	127	128
68	1	48	50	52	55
69	1	84	83	82	93
70	4	121	116	115	146
71	4	131	133	134	135
72	16	135	134	143	144
73	1	47	57	55	52
74	13	42	67	58	59
74	14	42	67	58	59
74	15	42	67	58	59
75	10	53	108	110	148
76	1	5	7	29	31
77	4	93	82	81	99
78	1	112	111	113	114
79	4	41	42	47	57
80	16	59	58	63	65
81	2	89	88	87	91
82	5	115	116	143	144
83	4	10	9	8	25
84	5	47	42	67	69
85	16	44	43	42	67
86	16	43	42	67	68
87	5	57	58	63	66
88	1	2	3	5	7
89	5	57	58	59	61
90	1	41	70	72	73
91	16	120	117	116	143
92	5	44	43	42	47
93	1	71	70	72	73
94	1	9	19	17	14
95	1	79	78	80	103
96	1	77	76	75	105
97	10	15	34	36	72
98	4	25	8	7	29
99	1	42	47	48	50
100	5	82	81	99	100
101	2	85	87	88	89
102	1	81	82	83	85
103	1	83	82	93	94
104	1	39	37	36	72
105	13	116	143	134	139
105	14	116	143	134	139
105	15	116	143	134	139
106	4	57	47	42	67
107	5	21	8	25	26
108	5	80	81	95	98
109	16	138	135	134	139
110	1	84	83	85	86
111	5	98	95	81	99
112	4	117	116	121	122
113	3	2	1	74	107
114	1	125	124	126	127
115	5	7	8	25	28
116	4	5	7	8	9
117	16	117	116	143	144
118	1	10	12	14	17
119	1	11	10	12	14
120	1	87	91	93	94
121	1	113	111	110	148
122	16	46	43	42	67
123	16	137	135	134	143
124	1	37	39	41	42
125	5	46	43	42	47
126	1	38	37	39	41
127	1	111	110	148	149
128	10	54	53	108	110
129	1	1	2	3	5
130	8	14	15	34	36
130	9	14	15	34	36
131	5	9	8	25	28
132	1	51	50	52	55
133	16	59	58	67	69
134	16	59	58	63	64
135	1	11	10	9	19
136	1	81	80	103	105
137	5	115	116	143	134
138	1	110	148	146	115
139	1	124	126	131	133
140	1	76	78	80	103
141	1	15	14	17	18
142	5	47	42	67	68
143	1	125	124	126	131
144	2	12	14	15	34
145	5	57	58	63	65
146	1	2	3	5	6
147	1	37	36	72	73
148	5	96	95	81	99
149	1	77	76	78	79
150	2	1	74	75	76
151	5	9	8	21	24
152	1	36	72	70	41
153	16	141	139	134	143
154	1	74	75	76	78
155	16	135	134	139	142
156	2	3	2	1	33
157	1	8	9	19	17
158	1	80	103	105	106
159	1	122	124	126	131
160	1	123	122	124	125
161	1	82	93	91	87
162	5	80	81	99	102
163	16	139	134	143	144
164	1	48	47	57	55
165	16	136	135	134	143
166	10	129	127	126	131
167	1	9	10	12	13
168	1	88	87	91	93
169	5	121	116	143	145
170	1	78	80	103	105
171	5	95	81	99	102
172	4	93	82	81	95
173	4	43	42	47	48
174	1	124	122	121	133
175	1	8	9	10	12
176	16	60	59	58	63
177	16	140	139	134	143
178	1	47	48	50	51
179	5	82	81	95	98
180	4	10	9	8	21
181	4	113	115	116	121
182	13	117	116	143	134
182	14	117	116	143	134
182	15	117	116	143	134
183	18	128	127	129	130
183	19	128	127	129	130
184	17	126	127	129	130
185	2	76	75	74	107
186	5	41	42	67	69
187	5	133	134	135	138
188	1	38	37	39	40
189	1	121	122	124	126
190	1	3	5	7	8
191	1	1	2	3	4
192	1	85	87	91	92
193	1	13	12	14	17
194	8	16	15	34	36
194	9	16	15	34	36
195	1	4	3	2	31
196	4	67	42	41	70
197	16	60	59	58	67
198	16	59	58	67	68
199	5	57	58	67	69
200	1	114	113	115	116
201	4	5	7	8	25
202	10	15	34	36	37
203	10	55	52	53	108
204	1	81	80	103	104
205	1	42	41	70	72
206	1	124	126	131	132
207	13	116	143	134	135
207	14	116	143	134	135
207	15	116	143	134	135
208	1	75	105	103	80
209	5	47	42	67	58
210	2	90	88	87	91
211	1	53	52	55	56
212	1	36	72	70	71
213	1	14	17	19	20
214	5	115	116	117	119
215	1	1	2	31	29
216	5	9	8	21	23
217	4	9	8	7	29
218	1	74	75	76	77
219	10	109	108	110	111
220	16	135	134	139	141
221	5	7	8	21	23
222	3	33	1	74	75
223	5	41	42	43	45
224	16	119	117	116	143
225	16	64	63	58	67
226	1	75	105	103	104
227	16	118	117	116	143
228	4	83	82	81	99
229	16	63	58	67	69
230	16	137	135	134	139
231	4	121	133	134	143
232	1	76	75	105	103
233	16	62	59	58	63
234	1	12	10	9	19
235	5	121	116	143	144
236	1	78	80	103	104
237	1	8	9	19	20
238	1	110	111	113	115
239	1	34	36	37	38
240	4	80	81	82	83
241	5	82	81	99	102
242	1	132	131	133	134
243	5	82	81	95	97
244	1	111	113	115	116
245	1	122	124	126	127
246	1	34	36	72	70
247	1	8	7	29	31
248	1	75	76	78	79
249	4	47	57	58	67
250	1	48	47	57	58
251	1	49	48	50	52
252	1	18	17	19	20
253	5	133	134	139	142
254	1	12	14	17	19
255	5	41	42	67	68
256	5	133	134	135	137
257	10	52	53	108	109
258	1	115	146	148	149
259	16	62	59	58	67
260	4	131	133	134	143
261	16	61	59	58	67
262	2	16	15	14	17
263	1	5	7	29	30
264	1	122	121	133	131
265	5	57	58	67	68
266	1	40	39	41	42
267	1	39	41	70	72
268	4	55	57	58	63
269	2	12	14	15	16
270	10	109	108	110	148
271	1	78	76	75	105
272	16	136	135	134	139
273	5	57	58	59	60
274	5	115	116	117	118
275	1	52	55	57	58
276	5	9	8	21	22
277	1	114	113	115	146
278	10	124	126	127	129
279	16	135	134	143	145
280	5	7	8	21	22
281	1	42	47	57	55
282	1	112	111	113	115
283	3	2	1	74	75
284	16	59	58	63	66
285	4	19	9	8	25
286	5	41	42	43	44
287	1	42	47	48	49
288	1	81	82	83	84
289	1	104	103	105	106
290	1	56	55	57	58
291	1	92	91	93	94
292	1	50	52	55	57
293	2	1	74	75	105
294	4	113	115	116	117
295	4	55	57	58	67
296	16	63	58	67	68
297	1	3	2	31	32
298	4	78	80	81	82
299	1	116	115	146	148
300	5	80	81	95	97
301	10	128	127	126	131
302	10	54	53	52	55
303	1	36	37	39	41
304	1	1	2	31	32
305	5	121	116	143	134
306	4	43	42	47	57
307	4	80	81	82	93
308	5	7	8	25	27
309	5	82	81	99	101
310	4	5	7	8	21
311	4	115	116	121	122
312	10	35	34	36	72
313	4	78	80	81	95
314	1	121	133	131	126
315	1	11	10	12	13
316	1	10	9	19	17
317	1	37	39	41	70
318	5	24	21	8	25
319	5	133	134	139	141
320	1	84	83	85	87
321	5	133	134	135	136
322	5	41	42	67	58
323	1	74	75	105	103
324	1	76	75	105	106
325	10	54	53	108	109
326	1	48	50	52	53
327	4	39	41	42	67
328	1	111	113	115	146
329	6	14	15	34	35
329	7	14	15	34	35
330	4	115	116	121	133
331	5	42	67	58	57
332	1	13	12	14	15
333	4	39	41	42	47
334	5	9	8	25	27
335	5	120	117	116	121
336	1	5	3	2	31
337	1	86	85	87	88
338	4	21	8	7	29
339	4	78	80	81	99
340	1	39	41	70	71
341	4	95	81	80	103
342	1	34	36	72	73
343	4	83	82	81	95
344	1	3	2	31	29
345	5	116	143	134	133
346	10	50	52	53	54
347	4	47	57	58	59
348	5	57	58	63	64
349	5	119	117	116	121
350	4	121	133	134	139
351	4	143	116	115	146
352	1	4	3	5	7
353	4	113	115	116	143
354	1	6	5	7	29
355	1	79	78	80	81
356	1	81	82	93	91
357	1	122	121	133	134
358	1	50	48	47	57
359	4	117	116	115	146
360	4	41	42	47	48
361	5	133	134	143	145
362	2	105	75	74	107
363	1	50	52	55	56
364	1	15	14	17	19
365	1	116	115	146	147
366	5	80	81	99	101
367	1	2	31	29	30
368	4	47	57	58	63
369	5	80	81	95	96
370	1	77	76	78	80
371	2	3	2	1	74
372	1	82	83	85	87
373	1	36	37	39	40
374	4	48	47	42	67
375	4	131	133	134	139
376	1	113	115	146	148
377	1	47	57	55	56
378	1	88	87	91	92
379	1	110	148	146	147
380	16	61	59	58	63
381	13	42	67	58	63
381	14	42	67	58	63
381	15	42	67	58	63
382	1	42	47	57	58
383	5	95	81	99	101
384	1	7	29	31	32
385	1	108	110	148	149
386	5	7	8	25	26
387	1	121	133	131	132
388	1	123	122	124	126
389	1	127	126	131	133
390	1	116	121	122	124
391	1	116	121	133	131
392	1	8	9	10	11
393	1	10	12	14	15
394	4	55	57	58	59
395	5	21	8	25	28
396	16	139	134	143	145
397	1	108	110	111	113
398	5	133	134	139	140
399	5	97	95	81	99
400	1	9	10	12	14
401	1	121	122	124	125
402	1	38	37	36	72
403	1	9	19	17	18
404	11	16	15	34	35
404	12	16	15	34	35
405	2	31	2	1	74
406	5	9	8	25	26
407	1	51	50	52	53
408	1	47	48	50	52
409	16	45	43	42	67
410	4	19	9	8	21
411	1	2	31	29	7
412	1	42	41	70	71
413	5	45	43	42	47
414	4	117	116	121	133
415	4	133	121	116	143
416	1	10	9	19	20
417	1	82	93	91	92
418	4	82	81	80	103
419	1	112	111	110	148
420	16	138	135	134	143
421	1	76	78	80	81
422	1	83	85	87	91
423	1	6	5	7	8
424	1	74	75	105	106

Impropers

7	1	37	36	38	39
8	1	41	39	42	70
9	1	111	113	110	112
17	1	82	81	83	93
18	2	74	107	1	75
21	1	39	37	40	41
24	1	103	105	80	104
28	1	48	49	50	47
31	1	113	115	111	114
39	1	108	110	53	109
46	1	126	124	127	131
49	2	15	14	16	34
53	2	15	16	34	14
54	1	115	113	116	146
68	1	55	57	52	56
69	1	10	11	12	9
74	1	39	40	41	37
78	1	83	82	84	85
86	1	52	53	55	50
89	1	121	133	116	122
94	1	105	106	75	103
96	1	10	12	9	11
107	1	17	19	14	18
110	1	124	126	122	125
111	1	146	148	115	147
117	2	1	33	74	2
120	1	108	53	109	110
121	1	91	87	92	93
123	2	88	90	87	89
127	2	74	75	107	1
131	1	131	126	132	133
134	1	36	34	37	72
140	2	88	89	90	87
145	1	47	42	48	57
150	1	39	41	37	40
155	1	82	83	93	81
160	1	80	103	78	81
163	2	1	2	33	74
164	1	57	58	47	55
165	1	76	78	75	77
166	1	10	9	11	12
179	1	3	4	5	2
180	1	133	131	134	121
182	1	75	76	105	74
184	1	78	79	80	76
185	1	103	80	104	105
187	1	93	91	94	82
188	1	2	31	1	3
192	1	48	47	49	50
193	1	85	86	87	83
195	1	9	19	8	10
200	1	122	124	121	123
202	1	126	127	131	124
204	1	133	134	121	131
205	1	14	15	17	12
207	1	31	2	29	32
210	3	127	126	128	129
226	1	57	47	55	58
228	1	148	110	146	149
229	1	121	116	122	133
230	1	76	77	78	75
235	1	72	73	36	70
243	1	133	121	131	134
252	1	7	5	8	29
255	1	103	104	105	80
257	1	53	108	52	54
261	1	75	74	76	105
269	1	19	9	17	20
270	2	15	34	14	16
275	1	115	146	113	116
277	1	5	3	6	7
287	1	122	123	124	121
298	1	93	82	91	94
302	1	47	48	57	42
303	1	37	39	36	38
304	1	41	70	39	42
315	1	5	6	7	3
320	1	110	108	111	148
321	1	9	8	10	19
322	1	48	50	47	49
324	1	50	51	52	48
325	1	93	94	82	91
332	2	74	1	75	107
337	1	80	81	103	78
340	1	55	52	56	57
341	1	57	55	58	47
353	1	29	30	31	7
354	1	50	52	48	51
362	1	3	2	4	5
370	1	111	112	113	110
371	2	88	87	89	90
380	1	110	111	148	108
381	1	53	52	54	108
384	1	72	70	73	36
386	1	113	111	114	115
389	1	7	8	29	5
391	1	124	122	125	126
393	1	41	42	70	39
395	1	76	75	77	78
404	1	2	1	3	31
406	1	146	115	147	148
411	1	31	32	2	29
412	1	12	13	14	10
420	1	9	10	19	8
422	1	14	12	15	17
427	1	17	18	19	14
428	3	127	129	126	128
430	1	83	84	85	82
441	1	2	3	31	1
448	1	80	78	81	103
457	1	108	109	110	53
464	1	105	103	106	75
470	1	131	133	126	132
474	1	36	72	34	37
484	1	34	15	35	36
486	1	55	56	57	52
487	1	34	35	36	15
495	1	29	31	7	30
496	1	17	14	18	19
521	1	53	54	108	52
526	1	52	50	53	55
527	1	19	17	20	9
530	3	127	128	129	126
538	1	124	125	126	122
544	1	70	71	72	41
554	1	29	7	30	31
557	1	91	93	87	92
566	2	1	74	2	33
571	1	148	146	149	110
573	1	37	38	39	36
576	1	19	20	9	17
585	1	5	7	3	6
590	1	70	72	41	71
598	1	91	92	93	87
600	1	131	132	133	126
603	1	12	10	13	14
608	1	14	17	12	15
609	1	47	57	42	48
610	1	146	147	148	115
611	1	78	76	79	80
623	1	122	121	123	124
625	1	85	87	83	86
626	1	3	5	2	4
640	1	85	83	86	87
644	1	148	149	110	146
652	1	75	105	74	76
657	1	83	85	82	84
662	1	87	91	85	88
667	1	78	80	76	79
669	1	111	110	112	113
678	1	121	122	133	116
681	1	72	36	70	73
694	1	31	29	32	2
696	1	110	148	108	111
702	1	36	37	72	34
706	1	50	48	51	52
711	1	12	14	10	13
713	1	82	93	81	83
718	1	87	85	88	91
720	1	7	29	5	8
721	1	113	114	115	111
724	1	105	75	103	106
725	1	70	41	71	72
727	1	34	36	15	35
736	1	52	55	50	53
742	1	115	116	146	113
744	1	87	88	91	85
760	1	126	131	124	127
