Title

149 atoms
158 bonds
277 angles
441 dihedrals
168 impropers

10 atom types
14 bond types
9 angle types
19 dihedral types
3 improper types
-5.508999825 94.49100018 xlo xhi
-7.627999783 92.37200022 ylo yhi
-3.470999956 96.52900004 zlo zhi
0.0 0.0 0.0 xy xz yz

Masses

1	14.00672
2	12.01078
3	1.007947
4	12.01078
5	1.007947
6	18.998403
7	15.99943
8	1.007947
9	15.99943
10	1.007947


Pair Coeffs

1	0.16769152	3.206876
2	0.086879315	3.4806469
3	0.015611343	2.5725815
4	0.10884061	3.3795318
5	0.014090815	1.1034277
6	0.061	3.1181455
7	0.2102061	3.0398122
8	0.015779483	2.6445434
9	0.20947353	2.99716
10	1.2326e-05	0.53453923

Bond Coeffs

1 harmonic	390.03554688505	1.390160554689
2 harmonic	505.144496193	1.019481865027
3 harmonic	422.7150220147	1.421786517481
4 harmonic	360.7852444772	1.387193227181
5 harmonic	397.2545789619	1.085358495916
6 harmonic	289.73813263395	1.498646816465
7 harmonic	264.62148576755	1.52190126495
8 harmonic	492.76746816345	1.381897776683
9 harmonic	340.45121009905	1.358690858053
10 harmonic	582.698766451	1.225198386222
11 harmonic	279.1350963404	1.454628925034
12 harmonic	370.04670688625	1.093899492634
13 harmonic	385.7604595587	1.369745182308
14 harmonic	543.5267831885	0.9716763312559


Angle Coeffs

1 harmonic	57.8982893754	126.8062420451
2 harmonic	55.42182150775	117.3465570514
3 harmonic	63.44422595415	115.5071327674
4 harmonic	34.066775159195	129.1835929926
5 harmonic	53.20531626545	116.5475862634
6 harmonic	14.32262199324	138.3184368373
7 harmonic	48.776492647595	115.6030999533
8 harmonic	65.09061609600001	110.3538806181
9 harmonic	201.41175231035	127.4691416191


Dihedral Coeffs

1 fourier 1	3.661930099076	2	180
2 fourier 1	1.193093382682	2	180
3 fourier 1	0.02021088501612	1	0
4 fourier 1	0.02664938770063	3	0
5 fourier 1	0.1155372516788	3	0
6 fourier 1	3.101948770557	2	180
7 fourier 1	-0.4252153282372	1	0
8 fourier 1	1.809047390003	2	180
9 fourier 1	-0.04816277792592	1	0
10 fourier 1	0.9974165607242	2	180
11 fourier 1	2.348375642009	2	180
12 fourier 1	1.256156174911	1	0
13 fourier 1	0.09223874044423	3	0
14 fourier 1	0.3159935921949	2	180
15 fourier 1	0.3247796806857	1	180
16 fourier 1	0.1040663847541	3	0
17 fourier 1	2.687457892086	2	180
18 fourier 1	2.772607909663	2	180
19 fourier 1	0.09692684957115	1	0


Improper Coeffs

1 0.3666666666666667	-1	2
2 0.3333333333333333	-1	2
3 3.5	-1	2


Atoms

1	1	1	-0.41166899	-4.6230001	-1.209	1.8329999
2	1	2	0.140864	-3.4860001	-0.90600002	1.02
3	1	2	-0.407314	-3.2179999	-1.633	-0.072999999
4	1	3	0.22446001	-3.8610001	-2.457	-0.35600001
5	1	2	-0.13319001	-2.0439999	-1.318	-0.91299999
6	1	3	0.214323	-1.9	-1.925	-1.791
7	1	2	-0.095362999	-1.199	-0.31200001	-0.583
8	1	4	-0.26280001	0.02	0.093999997	-1.446
9	1	2	-0.095362999	1.2130001	0.37599999	-0.50099999
10	1	2	-0.145917	2.0650001	1.416	-0.667
11	1	3	0.214323	1.9450001	2.1370001	-1.4579999
12	1	2	-0.377691	3.214	1.6109999	0.241
13	1	3	0.220873	3.8629999	2.4649999	0.092
14	1	2	0.209435	3.451	0.74299997	1.233
15	1	1	-0.53189701	4.5630002	0.93000001	2.112
16	1	5	0.31977499	5.2080002	1.744	2.0020001
17	1	2	-0.377691	2.5569999	-0.419	1.41
18	1	3	0.220873	2.75	-1.1339999	2.2
19	1	2	-0.145917	1.512	-0.59600002	0.59399998
20	1	3	0.214323	0.87800002	-1.461	0.74299997
21	1	4	0.75313598	-0.42500001	1.344	-2.279
22	1	6	-0.200719	0.49900001	1.655	-3.263
23	1	6	-0.200719	-1.636	1.099	-2.908
24	1	6	-0.200719	-0.58999997	2.4489999	-1.46
25	1	4	0.75313598	0.491	-1.033	-2.428
26	1	6	-0.200719	-0.40400001	-1.206	-3.471
27	1	6	-0.200719	1.719	-0.70700002	-2.983
28	1	6	-0.200719	0.63499999	-2.2390001	-1.763
29	1	2	-0.13319001	-1.5319999	0.50300002	0.625
30	1	3	0.214323	-0.90399998	1.3380001	0.90899998
31	1	2	-0.407314	-2.5999999	0.219	1.3789999
32	1	3	0.22446001	-2.8169999	0.81999999	2.2520001
33	1	5	0.37314901	-5.2620001	-1.999	1.594
34	1	2	0.76842201	4.7519999	0.23800001	2.898
35	1	7	-0.657269	4.5780001	-0.991	2.6819999
36	1	2	-0.37068701	5.2090001	0.71600002	4.2150002
37	1	2	-0.079042003	5.388	2.0280001	4.4289999
38	1	3	0.224501	5.197	2.7479999	3.642
39	1	2	-0.249295	5.8449998	2.5190001	5.7459998
40	1	3	0.214581	5.9489999	3.5869999	5.8629999
41	1	2	-0.209986	6.1199999	1.658	6.75
42	1	4	0.024866	6.5609999	2.1210001	8.1490002
43	1	4	-0.131551	7.0910001	3.575	8.1940002
44	1	8	0.08766	6.276	4.302	7.994
45	1	8	0.08766	7.5040002	3.8110001	9.198
46	1	8	0.08766	7.8990002	3.721	7.4450002
47	1	2	-0.12523	7.632	1.222	8.6829996
48	1	2	-0.152558	8.8199997	0.954	8.1199999
49	1	3	0.213956	9.0939999	1.39	7.1680002
50	1	2	-0.00057799998	9.757	0.046999998	8.823
51	1	3	0.214711	10.713	-0.17399999	8.3640003
52	1	2	-0.34579301	9.4230003	-0.49000001	10.016
53	1	2	0.58598202	10.363	-1.388	10.708
54	1	7	-0.51462603	10.067	-1.898	11.822
55	1	2	0.070546001	8.1009998	-0.164	10.621
56	1	3	0.208516	7.8189998	-0.57300001	11.582
57	1	2	-0.181224	7.2639999	0.64899999	9.9580002
58	1	4	-0.027269	5.9109998	1.114	10.393
59	1	4	-0.13114201	6.0349998	2.0009999	11.646
60	1	8	0.091894001	6.4439998	1.42	12.5
61	1	8	0.091894001	6.711	2.8610001	11.452
62	1	8	0.091894001	5.039	2.3970001	11.939
63	1	4	-0.13114201	4.9850001	-0.085000001	10.677
64	1	8	0.091894001	5.3509998	-0.671	11.547
65	1	8	0.091894001	4.9369998	-0.759	9.7950001
66	1	8	0.091894001	3.957	0.27000001	10.906
67	1	4	-0.18120299	5.3920002	1.944	9.1739998
68	1	8	0.130119	4.9819999	2.927	9.4989996
69	1	8	0.130119	4.533	1.425	8.6929998
70	1	2	-0.249295	5.8909998	0.204	6.5079999
71	1	3	0.214581	6.0580001	-0.51300001	7.302
72	1	2	-0.079042003	5.4699998	-0.23800001	5.3169999
73	1	3	0.224501	5.3130002	-1.299	5.171
74	1	1	-0.41166899	-4.8309999	-0.63999999	2.684
75	1	2	0.140864	-4.1989999	-0.94199997	3.9300001
76	1	2	-0.407314	-4.4660001	-0.21600001	5.0240002
77	1	3	0.22446001	-5.1669998	0.60799998	4.9770002
78	1	2	-0.13319001	-3.813	-0.53100002	6.3109999
79	1	3	0.214323	-4.0910001	0.077	7.1560001
80	1	2	-0.095362999	-2.911	-1.5369999	6.408
81	1	4	-0.26280001	-2.2290001	-1.943	7.7379999
82	1	2	-0.095362999	-0.73400003	-2.2249999	7.4499998
83	1	2	-0.090585999	-0.055	-3.2639999	7.9910002
84	1	3	0.214323	-0.52700001	-3.9860001	8.6370001
85	1	2	-0.45374799	1.3839999	-3.46	7.7160001
86	1	3	0.22989599	1.89	-4.3140001	8.1479998
87	1	2	0.33364299	2.052	-2.592	6.9460001
88	1	1	-0.844423	3.4449999	-2.779	6.6799998
89	1	5	0.366896	3.9649999	-2.099	6.0819998
90	1	5	0.366896	3.9660001	-3.5929999	7.0770001
91	1	2	-0.45374799	1.341	-1.4299999	6.3759999
92	1	3	0.22989599	1.877	-0.71499997	5.7649999
93	1	2	-0.090585999	0.037999999	-1.253	6.6170001
94	1	3	0.214323	-0.456	-0.38800001	6.1919999
95	1	4	0.75313598	-3.0079999	-3.1930001	8.2709999
96	1	6	-0.200719	-2.6429999	-3.5039999	9.5699997
97	1	6	-0.200719	-4.3720002	-2.948	8.2690001
98	1	6	-0.200719	-2.776	-4.2979999	7.4679999
99	1	4	0.75313598	-2.2639999	-0.81599998	8.8260002
100	1	6	-0.200719	-3.54	-0.64300001	9.3380003
101	1	6	-0.200719	-1.431	-1.142	9.8850002
102	1	6	-0.200719	-1.83	0.38999999	8.302
103	1	2	-0.13319001	-2.648	-2.352	5.1830001
104	1	3	0.214323	-1.96	-3.187	5.2220001
105	1	2	-0.407314	-3.247	-2.0669999	4.0219998
106	1	3	0.22446001	-3.0350001	-2.6689999	3.1470001
107	1	5	0.37314901	-5.5089998	0.15099999	2.5999999
108	1	2	0.59148598	11.322	-1.62	10.265
109	1	7	-0.52506101	11.395	-1.779	9.0170002
110	1	2	-0.334308	12.514	-1.7460001	11.124
111	1	2	0.0046939999	13.724	-2.03	10.613
112	1	3	0.22232699	13.86	-2.175	9.5489998
113	1	2	-0.24268401	14.899	-2.148	11.499
114	1	3	0.214581	15.859	-2.3599999	11.045
115	1	2	-0.209986	14.786	-1.993	12.837
116	1	4	0.024866	16.035	-2.095	13.73
117	1	4	-0.131551	15.707	-2.148	15.239
118	1	8	0.08766	14.999	-2.977	15.46
119	1	8	0.08766	15.261	-1.1900001	15.581
120	1	8	0.08766	16.629999	-2.316	15.836
121	1	2	-0.12523	16.834999	-3.3139999	13.386
122	1	2	-0.171865	16.415001	-4.5869999	13.389
123	1	3	0.213956	15.393	-4.8330002	13.645
124	1	2	-0.061457001	17.374001	-5.6589999	13.033
125	1	3	0.231114	17.024	-6.6830001	13.032
126	1	2	-0.22755501	18.655001	-5.3579998	12.72
127	1	2	0.83543497	19.625	-6.4169998	12.366
128	1	7	-0.47969899	19.275	-7.6279998	12.348
129	1	9	-0.66435099	20.938	-6.0809999	12.048
130	1	10	0.41812399	21.613001	-6.796	11.803
131	1	2	0.0052519999	19.091	-3.9319999	12.736
132	1	3	0.22382499	20.114	-3.6670001	12.502
133	1	2	-0.175405	18.200001	-2.9790001	13.049
134	1	4	-0.027269	18.438	-1.505	13.139
135	1	4	-0.13114201	18.989	-0.958	11.808
136	1	8	0.091894001	19.997	-1.373	11.595
137	1	8	0.091894001	18.315001	-1.226	10.966
138	1	8	0.091894001	19.072001	0.149	11.853
139	1	4	-0.13114201	19.417	-1.197	14.287
140	1	8	0.091894001	19.032	-1.601	15.249
141	1	8	0.091894001	20.410999	-1.651	14.09
142	1	8	0.091894001	19.551001	-0.098999999	14.396
143	1	4	-0.18120299	17.021999	-0.91500002	13.442
144	1	8	0.130119	17.056999	-0.197	14.291
145	1	8	0.130119	16.663	-0.31099999	12.579
146	1	2	-0.24268401	13.439	-1.659	13.389
147	1	3	0.214581	13.29	-1.501	14.447
148	1	2	0.0046939999	12.376	-1.549	12.583
149	1	3	0.22232699	11.409	-1.309	13.007

Bonds

1	1	1	2
2	2	1	33
3	3	1	74
4	4	2	3
5	4	2	31
6	5	3	4
7	4	3	5
8	5	5	6
9	4	5	7
10	6	7	8
11	4	7	29
12	6	8	9
13	7	8	21
14	7	8	25
15	4	9	10
16	4	9	19
17	5	10	11
18	4	10	12
19	5	12	13
20	4	12	14
21	1	14	15
22	4	14	17
23	2	15	16
24	8	15	34
25	5	17	18
26	4	17	19
27	5	19	20
28	9	21	22
29	9	21	23
30	9	21	24
31	9	25	26
32	9	25	27
33	9	25	28
34	5	29	30
35	4	29	31
36	5	31	32
37	10	34	35
38	11	34	36
39	4	36	37
40	4	36	72
41	5	37	38
42	4	37	39
43	5	39	40
44	4	39	41
45	6	41	42
46	4	41	70
47	7	42	43
48	6	42	47
49	7	42	67
50	12	43	44
51	12	43	45
52	12	43	46
53	4	47	48
54	4	47	57
55	5	48	49
56	4	48	50
57	5	50	51
58	4	50	52
59	11	52	53
60	4	52	55
61	10	53	54
62	11	53	108
63	5	55	56
64	4	55	57
65	6	57	58
66	7	58	59
67	7	58	63
68	7	58	67
69	12	59	60
70	12	59	61
71	12	59	62
72	12	63	64
73	12	63	65
74	12	63	66
75	12	67	68
76	12	67	69
77	5	70	71
78	4	70	72
79	5	72	73
80	1	74	75
81	2	74	107
82	4	75	76
83	4	75	105
84	5	76	77
85	4	76	78
86	5	78	79
87	4	78	80
88	6	80	81
89	4	80	103
90	6	81	82
91	7	81	95
92	7	81	99
93	4	82	83
94	4	82	93
95	5	83	84
96	4	83	85
97	5	85	86
98	4	85	87
99	1	87	88
100	4	87	91
101	2	88	89
102	2	88	90
103	5	91	92
104	4	91	93
105	5	93	94
106	9	95	96
107	9	95	97
108	9	95	98
109	9	99	100
110	9	99	101
111	9	99	102
112	5	103	104
113	4	103	105
114	5	105	106
115	10	108	109
116	11	108	110
117	4	110	111
118	4	110	148
119	5	111	112
120	4	111	113
121	5	113	114
122	4	113	115
123	6	115	116
124	4	115	146
125	7	116	117
126	6	116	121
127	7	116	143
128	12	117	118
129	12	117	119
130	12	117	120
131	4	121	122
132	4	121	133
133	5	122	123
134	4	122	124
135	5	124	125
136	4	124	126
137	11	126	127
138	4	126	131
139	10	127	128
140	13	127	129
141	14	129	130
142	5	131	132
143	4	131	133
144	6	133	134
145	7	134	135
146	7	134	139
147	7	134	143
148	12	135	136
149	12	135	137
150	12	135	138
151	12	139	140
152	12	139	141
153	12	139	142
154	12	143	144
155	12	143	145
156	5	146	147
157	4	146	148
158	5	148	149

Angles

1	1	39	41	70
2	1	121	133	134
3	5	8	21	24
4	1	52	53	108
5	1	74	75	105
6	5	82	81	95
7	7	140	139	141
8	7	61	59	62
9	5	134	135	137
10	3	16	15	34
11	5	41	42	47
12	5	58	63	66
13	4	112	111	113
14	1	110	148	146
15	5	21	8	25
16	1	87	91	93
17	5	95	81	99
18	1	127	126	131
19	1	111	110	148
20	1	50	52	53
21	1	82	93	91
22	3	14	15	16
23	4	38	37	39
24	7	141	139	142
25	1	9	10	12
26	1	12	14	15
27	1	41	70	72
28	1	9	19	17
29	5	9	8	21
30	1	36	72	70
31	5	41	42	43
32	5	58	59	61
33	4	3	5	6
34	5	63	58	67
35	4	75	105	106
36	5	81	95	96
37	5	81	99	101
38	4	110	111	112
39	1	83	82	93
40	4	11	10	12
41	5	134	143	144
42	1	124	126	131
43	5	134	135	138
44	1	1	2	31
45	8	127	129	130
46	4	146	148	149
47	4	80	103	104
48	5	8	25	26
49	7	144	143	145
50	7	118	117	119
51	5	58	67	69
52	5	116	143	134
53	1	121	133	131
54	4	51	50	52
55	4	132	131	133
56	6	42	47	48
57	1	124	126	127
58	4	13	12	14
59	7	44	43	46
60	1	52	53	54
61	5	81	99	102
62	5	81	95	97
63	4	2	31	32
64	4	71	70	72
65	4	122	124	125
66	5	116	117	120
67	1	76	75	105
68	4	103	105	106
69	5	96	95	97
70	4	48	50	51
71	1	80	103	105
72	4	75	76	77
73	1	75	105	103
74	1	53	108	109
75	5	97	95	98
76	5	115	116	143
77	7	118	117	120
78	1	126	127	128
79	6	131	133	134
80	5	133	134	135
81	4	82	83	84
82	5	22	21	23
83	4	17	19	20
84	1	85	87	91
85	5	9	8	25
86	5	26	25	27
87	7	45	43	46
88	4	86	85	87
89	3	89	88	90
90	3	2	1	33
91	1	47	57	58
92	1	116	121	133
93	1	3	2	31
94	5	41	42	67
95	7	60	59	61
96	1	8	9	10
97	5	100	99	101
98	6	55	57	58
99	5	80	81	99
100	1	53	52	55
101	7	64	63	65
102	5	96	95	98
103	1	48	50	52
104	5	42	43	46
105	4	52	55	56
106	7	136	135	138
107	7	136	135	137
108	1	53	108	110
109	1	2	31	29
110	4	10	12	13
111	5	115	116	117
112	1	82	83	85
113	7	140	139	142
114	5	80	81	95
115	1	5	7	29
116	5	26	25	28
117	4	36	37	38
118	5	7	8	25
119	1	113	115	116
120	1	8	7	29
121	1	42	47	57
122	4	2	3	4
123	5	100	99	102
124	4	114	113	115
125	5	121	116	143
126	1	122	121	133
127	4	125	124	126
128	7	64	63	66
129	1	35	34	36
130	1	85	87	88
131	1	81	82	83
132	1	52	55	57
133	1	3	5	7
134	5	58	59	62
135	4	14	17	18
136	4	6	5	7
137	1	47	57	55
138	5	7	8	21
139	4	70	72	73
140	1	110	111	113
141	4	111	113	114
142	4	115	146	147
143	4	91	93	94
144	5	117	116	121
145	4	121	122	123
146	5	134	143	145
147	4	104	103	105
148	5	134	139	140
149	1	36	37	39
150	4	47	48	49
151	4	92	91	93
152	5	135	134	143
153	1	78	80	103
154	5	8	25	27
155	4	77	76	78
156	4	76	78	79
157	1	50	52	55
158	5	8	21	22
159	1	2	3	5
160	1	108	110	148
161	5	7	8	9
162	4	4	3	5
163	1	34	36	72
164	5	58	63	64
165	2	14	15	34
166	5	81	95	98
167	6	116	121	122
168	5	135	134	139
169	4	126	131	132
170	1	122	124	126
171	7	68	67	69
172	1	34	36	37
173	5	42	67	68
174	1	42	41	70
175	1	47	48	50
176	4	84	83	85
177	5	57	58	63
178	7	137	135	138
179	1	54	53	108
180	1	75	76	78
181	5	8	25	28
182	1	126	127	129
183	7	119	117	120
184	4	82	93	94
185	5	22	21	24
186	5	59	58	63
187	4	29	31	32
188	4	9	19	20
189	5	134	135	136
190	2	2	1	74
191	4	7	29	30
192	1	10	9	19
193	5	57	58	59
194	3	87	88	89
195	1	15	34	35
196	4	87	91	92
197	5	101	99	102
198	7	60	59	62
199	4	147	146	148
200	1	37	36	72
201	9	128	127	129
202	5	139	134	143
203	4	79	78	80
204	5	81	99	100
205	1	48	47	57
206	5	58	59	60
207	1	81	80	103
208	1	10	12	14
209	1	1	2	3
210	5	23	21	24
211	4	123	122	124
212	4	37	39	40
213	4	30	29	31
214	4	83	85	86
215	5	116	117	118
216	5	27	25	28
217	4	49	48	50
218	1	7	29	31
219	7	65	63	66
220	3	87	88	90
221	1	109	108	110
222	1	8	9	19
223	2	1	74	75
224	1	15	34	36
225	1	74	75	76
226	5	116	143	144
227	5	58	67	68
228	4	18	17	19
229	1	81	82	93
230	1	12	14	17
231	1	88	87	91
232	1	78	80	81
233	7	44	43	45
234	5	115	116	121
235	1	39	41	42
236	1	111	113	115
237	1	14	17	19
238	1	115	146	148
239	3	1	74	107
240	4	40	39	41
241	1	121	122	124
242	4	56	55	57
243	5	134	139	141
244	1	37	39	41
245	5	116	117	119
246	1	83	85	87
247	5	133	134	143
248	5	57	58	67
249	4	110	148	149
250	1	15	14	17
251	5	42	43	44
252	5	116	143	145
253	1	76	78	80
254	5	8	21	23
255	5	43	42	47
256	5	59	58	67
257	5	117	116	143
258	3	33	1	74
259	4	36	72	73
260	1	108	110	111
261	5	58	63	65
262	5	43	42	67
263	5	42	67	58
264	3	75	74	107
265	5	133	134	139
266	5	80	81	82
267	5	47	42	67
268	5	82	81	99
269	1	126	131	133
270	5	134	139	142
271	1	5	7	8
272	4	9	10	11
273	1	116	115	146
274	5	42	67	69
275	4	41	70	71
276	1	113	115	146
277	5	42	43	45

Dihedrals

1	16	61	59	58	63
2	16	59	58	67	68
3	16	66	63	58	67
4	1	15	14	17	19
5	5	9	8	21	24
6	4	39	41	42	67
7	5	80	81	99	101
8	1	40	39	41	70
9	16	60	59	58	63
10	5	80	81	95	96
11	1	110	111	113	114
12	16	142	139	134	143
13	1	56	55	57	58
14	4	131	133	134	139
15	1	74	75	105	106
16	1	78	80	103	104
17	4	113	115	116	143
18	1	36	72	70	71
19	1	87	91	93	94
20	1	75	105	103	104
21	10	54	53	52	55
22	5	57	58	63	66
23	1	48	47	57	55
24	1	80	103	105	106
25	2	31	2	1	74
26	1	71	70	72	73
27	1	125	124	126	127
28	1	18	17	19	20
29	2	17	14	15	34
30	1	34	36	37	39
31	5	7	8	25	28
32	16	59	58	63	66
33	5	41	42	43	44
34	13	117	116	143	134
34	14	117	116	143	134
34	15	117	116	143	134
35	1	74	75	76	77
36	10	55	52	53	108
37	16	43	42	67	69
38	5	116	143	134	133
39	1	76	78	80	103
40	1	116	121	122	124
41	1	8	7	29	31
42	4	7	8	9	19
43	5	133	134	135	136
44	1	6	5	7	8
45	4	117	116	121	133
46	1	4	3	5	7
47	5	115	116	117	118
48	1	5	7	29	31
49	5	82	81	99	101
50	1	111	113	115	116
51	5	96	95	81	99
52	2	76	75	74	107
53	1	42	47	57	55
54	1	113	115	146	148
55	1	123	122	121	133
56	1	38	37	39	40
57	5	21	8	25	28
58	10	52	53	108	110
59	4	121	133	134	143
60	1	12	10	9	19
61	5	41	42	67	68
62	1	111	110	148	146
63	1	42	47	48	49
64	1	147	146	148	149
65	1	74	75	105	103
66	1	77	76	78	80
67	1	50	52	55	57
68	1	88	87	91	93
69	5	44	43	42	47
70	1	39	37	36	72
71	10	128	127	126	131
72	1	85	83	82	93
73	4	121	116	115	146
74	2	12	14	15	16
75	1	15	14	17	18
76	1	10	9	19	20
77	10	124	126	127	129
78	5	80	81	99	100
79	2	3	2	1	74
80	1	84	83	85	87
81	4	115	116	121	122
82	1	38	37	36	72
83	5	133	134	139	140
84	1	10	12	14	17
85	13	116	143	134	139
85	14	116	143	134	139
85	15	116	143	134	139
86	1	2	31	29	30
87	16	46	43	42	67
88	4	83	82	81	99
89	1	13	12	14	15
90	1	126	131	133	134
91	1	34	36	37	38
92	4	41	42	47	48
93	16	59	58	63	65
94	5	9	8	25	28
95	1	84	83	82	93
96	5	42	67	58	57
97	4	93	82	81	95
98	1	42	41	70	72
99	2	1	74	75	105
100	10	54	53	108	110
101	16	43	42	67	68
102	4	5	7	8	9
103	4	55	57	58	59
104	2	89	88	87	91
105	1	83	85	87	91
106	1	36	37	39	40
107	1	11	10	12	13
108	1	47	57	55	56
109	1	48	47	57	58
110	1	8	7	29	30
111	10	50	52	53	54
112	4	47	57	58	59
113	8	14	15	34	36
113	9	14	15	34	36
114	16	135	134	139	141
115	1	10	9	19	17
116	4	78	80	81	99
117	1	2	31	29	7
118	5	45	43	42	47
119	4	131	133	134	135
120	16	120	117	116	143
121	4	55	57	58	63
122	10	53	108	110	111
123	1	77	76	78	79
124	1	50	52	55	56
125	1	88	87	91	92
126	16	63	58	67	68
127	16	138	135	134	143
128	1	121	133	131	126
129	4	47	57	58	67
130	4	47	57	58	63
131	1	36	72	70	41
132	16	61	59	58	67
133	1	75	105	103	80
134	1	108	110	111	113
135	1	124	126	131	133
136	1	12	14	17	18
137	3	33	1	74	107
138	13	42	67	58	63
138	14	42	67	58	63
138	15	42	67	58	63
139	10	124	126	127	128
140	16	60	59	58	67
141	1	84	83	85	86
142	1	42	47	57	58
143	1	3	2	31	29
144	1	7	29	31	32
145	5	133	134	143	144
146	10	35	34	36	72
147	1	83	82	93	91
148	1	111	110	148	149
149	4	82	81	80	103
150	1	81	80	103	105
151	1	83	85	87	88
152	1	37	39	41	42
153	10	35	34	36	37
154	4	133	121	116	143
155	1	114	113	115	146
156	1	127	126	131	133
157	5	57	58	59	61
158	1	49	48	47	57
159	10	15	34	36	72
160	1	81	82	83	84
161	1	75	76	78	80
162	1	51	50	52	53
163	1	108	110	148	146
164	1	49	48	50	51
165	4	43	42	47	48
166	5	7	8	21	23
167	10	15	34	36	37
168	5	80	81	95	98
169	2	85	87	88	90
170	1	92	91	93	94
171	1	42	41	70	71
172	1	85	87	91	93
173	5	47	42	67	69
174	4	121	133	134	139
175	5	41	42	67	58
176	2	16	15	14	17
177	1	8	9	10	11
178	1	47	48	50	52
179	1	9	19	17	14
180	16	44	43	42	67
181	1	53	52	55	56
182	4	19	9	8	25
183	3	2	1	74	107
184	1	121	133	131	132
185	1	76	78	80	81
186	18	128	127	129	130
186	19	128	127	129	130
187	6	14	15	34	35
187	7	14	15	34	35
188	16	135	134	143	145
189	4	117	116	121	122
190	16	135	134	139	140
191	1	82	93	91	92
192	5	41	42	43	46
193	1	48	50	52	53
194	5	22	21	8	25
195	1	115	146	148	149
196	5	82	81	95	96
197	8	16	15	34	36
197	9	16	15	34	36
198	4	39	41	42	47
199	5	57	58	67	69
200	5	47	42	67	58
201	17	126	127	129	130
202	16	64	63	58	67
203	13	116	143	134	135
203	14	116	143	134	135
203	15	116	143	134	135
204	1	39	41	70	72
205	5	97	95	81	99
206	5	95	81	99	100
207	4	83	82	81	95
208	5	133	134	135	138
209	5	118	117	116	121
210	1	108	110	111	112
211	1	122	121	133	131
212	1	124	126	131	132
213	5	9	8	21	23
214	4	43	42	41	70
215	1	9	10	12	14
216	4	78	80	81	82
217	1	3	5	7	29
218	4	99	81	80	103
219	5	23	21	8	25
220	1	81	80	103	104
221	5	115	116	143	145
222	4	117	116	115	146
223	1	79	78	80	81
224	1	9	19	17	18
225	4	5	7	8	25
226	1	47	57	55	52
227	5	57	58	63	65
228	5	121	116	143	145
229	4	21	8	7	29
230	16	62	59	58	63
231	5	57	58	59	60
232	1	82	83	85	87
233	16	59	58	67	69
234	4	41	42	47	57
235	5	7	8	25	27
236	5	7	8	21	22
237	5	80	81	99	102
238	10	109	108	110	111
239	2	85	87	88	89
240	4	78	80	81	95
241	1	3	2	31	32
242	1	110	111	113	115
243	1	83	82	93	94
244	5	133	134	139	142
245	1	123	122	124	126
246	1	47	48	50	51
247	1	116	121	122	123
248	16	138	135	134	139
249	1	104	103	105	106
250	1	111	113	115	146
251	1	4	3	5	6
252	16	135	134	143	144
253	1	5	7	29	30
254	1	81	82	93	91
255	1	108	110	148	149
256	13	42	67	58	59
256	14	42	67	58	59
256	15	42	67	58	59
257	5	82	81	99	100
258	11	16	15	34	35
258	12	16	15	34	35
259	5	119	117	116	121
260	1	113	115	146	147
261	5	21	8	25	27
262	10	52	53	108	109
263	1	116	121	133	131
264	1	132	131	133	134
265	4	80	81	82	83
266	4	55	57	58	67
267	1	8	9	19	17
268	1	1	2	3	5
269	1	39	41	70	71
270	1	76	75	105	106
271	1	37	36	72	70
272	4	57	47	42	67
273	5	46	43	42	47
274	10	109	108	110	148
275	1	2	3	5	7
276	4	113	115	116	117
277	1	110	148	146	147
278	1	113	111	110	148
279	4	67	42	41	70
280	1	6	5	7	29
281	5	9	8	21	22
282	1	13	12	14	17
283	1	9	10	12	13
284	1	41	70	72	73
285	16	137	135	134	143
286	5	41	42	67	69
287	4	121	133	134	135
288	1	42	47	48	50
289	5	115	116	143	144
290	1	77	76	75	105
291	4	19	9	8	21
292	4	113	115	116	121
293	1	86	85	87	88
294	5	57	58	63	64
295	5	121	116	143	144
296	1	82	83	85	86
297	1	50	48	47	57
298	4	9	8	7	29
299	1	122	121	133	134
300	16	141	139	134	143
301	16	65	63	58	67
302	4	43	42	47	57
303	5	7	8	25	26
304	16	59	58	63	64
305	5	9	8	25	27
306	10	53	108	110	148
307	5	98	95	81	99
308	1	30	29	31	32
309	4	39	41	42	43
310	1	34	36	72	70
311	10	54	53	108	109
312	1	37	39	41	70
313	5	133	134	139	141
314	1	123	122	124	125
315	10	50	52	53	108
316	1	121	122	124	126
317	1	76	75	105	103
318	1	124	122	121	133
319	16	139	134	143	145
320	1	112	111	113	115
321	1	51	50	52	55
322	1	5	3	2	31
323	1	116	115	146	148
324	16	136	135	134	139
325	16	117	116	143	145
326	1	10	12	14	15
327	4	80	81	82	93
328	4	131	133	134	143
329	5	21	8	25	26
330	2	3	2	1	33
331	1	1	2	31	32
332	1	1	2	3	4
333	4	10	9	8	21
334	1	36	37	39	41
335	1	11	10	12	14
336	2	12	14	15	34
337	4	5	7	8	21
338	1	2	3	5	6
339	1	125	124	126	131
340	5	115	116	117	120
341	2	105	75	74	107
342	16	135	134	139	142
343	4	122	121	116	143
344	4	47	42	41	70
345	1	81	82	93	94
346	10	129	127	126	131
347	1	48	50	52	55
348	16	136	135	134	143
349	1	4	3	2	31
350	1	110	148	146	115
351	5	82	81	95	98
352	3	33	1	74	75
353	1	116	121	133	134
354	1	11	10	9	19
355	13	43	42	67	58
355	14	43	42	67	58
355	15	43	42	67	58
356	1	122	124	126	127
357	1	8	9	19	20
358	4	10	9	8	25
359	2	90	88	87	91
360	1	37	36	72	73
361	16	63	58	67	69
362	5	95	81	99	102
363	5	115	116	143	134
364	16	118	117	116	143
365	1	127	126	131	132
366	16	62	59	58	67
367	5	121	116	143	134
368	1	75	76	78	79
369	1	82	93	91	87
370	1	12	14	17	19
371	4	48	47	42	67
372	5	9	8	25	26
373	5	80	81	95	97
374	1	85	87	91	92
375	5	47	42	67	68
376	16	45	43	42	67
377	4	115	116	121	133
378	5	133	134	143	145
379	4	25	8	7	29
380	1	122	124	126	131
381	1	78	76	75	105
382	1	121	122	124	125
383	1	1	2	31	29
384	1	79	78	80	103
385	1	78	80	103	105
386	16	139	134	143	144
387	5	24	21	8	25
388	1	86	85	87	91
389	1	14	17	19	20
390	5	57	58	59	62
391	3	2	1	74	75
392	1	114	113	115	116
393	1	81	82	83	85
394	1	112	111	113	114
395	4	143	116	115	146
396	1	49	48	50	52
397	1	116	115	146	147
398	5	41	42	43	45
399	5	7	8	21	24
400	16	117	116	143	144
401	1	34	36	72	73
402	5	57	58	67	68
403	1	74	75	76	78
404	16	140	139	134	143
405	16	137	135	134	139
406	2	1	74	75	76
407	1	8	9	10	12
408	1	53	52	55	57
409	5	120	117	116	121
410	1	52	55	57	58
411	5	133	134	135	137
412	5	115	116	117	119
413	4	95	81	80	103
414	1	3	5	7	8
415	16	119	117	116	143
416	2	31	2	1	33
417	4	93	82	81	99
418	5	82	81	99	102
419	5	82	81	95	97
420	1	38	37	39	41
421	1	40	39	41	42
422	1	112	111	110	148
423	4	7	8	9	10
424	5	95	81	99	101

Impropers

2	1	148	110	146	149
4	1	37	39	36	38
5	1	47	48	57	42
6	1	14	12	15	17
11	1	5	7	3	6
16	2	15	16	34	14
18	1	80	78	81	103
19	1	133	134	121	131
36	1	57	55	58	47
37	1	110	108	111	148
39	1	52	55	50	53
40	1	115	146	113	116
42	1	53	108	52	54
45	1	19	17	20	9
47	1	126	127	131	124
61	1	111	113	110	112
62	1	108	53	109	110
63	1	72	73	36	70
77	1	133	121	131	134
79	1	75	76	105	74
82	1	37	36	38	39
84	1	103	105	80	104
85	1	52	50	53	55
86	1	85	86	87	83
94	1	108	110	53	109
96	1	29	30	31	7
107	1	75	105	74	76
113	1	148	146	149	110
119	1	131	132	133	126
120	1	41	70	39	42
123	2	1	33	74	2
125	1	148	149	110	146
131	1	91	87	92	93
132	2	88	87	89	90
139	1	111	112	113	110
141	1	36	72	34	37
153	1	29	7	30	31
156	1	9	19	8	10
157	1	85	83	86	87
167	1	110	111	148	108
184	2	74	107	1	75
189	1	113	111	114	115
193	1	115	113	116	146
196	1	7	5	8	29
199	1	72	70	73	36
203	1	110	148	108	111
212	1	10	12	9	11
231	1	53	52	54	108
242	1	113	114	115	111
246	1	131	126	132	133
247	1	48	49	50	47
256	2	74	75	107	1
264	1	34	36	15	35
266	1	108	109	110	53
267	1	146	148	115	147
268	1	131	133	126	132
271	1	53	54	108	52
276	1	2	3	31	1
277	2	1	74	2	33
293	1	37	38	39	36
294	1	39	40	41	37
301	1	133	131	134	121
305	1	72	36	70	73
306	1	76	78	75	77
307	1	121	116	122	133
310	1	80	81	103	78
318	1	17	19	14	18
331	1	78	76	79	80
333	2	88	90	87	89
342	1	12	10	13	14
343	1	105	106	75	103
346	1	103	104	105	80
349	1	124	125	126	122
354	1	5	6	7	3
355	1	87	91	85	88
359	1	3	4	5	2
364	1	10	9	11	12
367	1	39	41	37	40
371	1	70	41	71	72
372	1	82	83	93	81
376	1	39	37	40	41
383	1	55	57	52	56
392	1	83	82	84	85
395	1	126	124	127	131
399	1	146	115	147	148
402	1	34	15	35	36
405	3	127	126	128	129
406	1	93	91	94	82
408	1	10	11	12	9
414	2	88	89	90	87
417	1	76	77	78	75
421	1	122	124	121	123
426	1	17	18	19	14
427	1	91	93	87	92
433	1	80	103	78	81
437	1	50	52	48	51
438	3	127	129	126	128
442	1	3	2	4	5
446	1	50	48	51	52
447	2	74	1	75	107
449	1	83	84	85	82
453	1	47	42	48	57
458	1	41	42	70	39
466	1	57	47	55	58
482	1	76	75	77	78
485	1	48	47	49	50
487	1	19	20	9	17
498	1	85	87	83	86
502	2	15	34	14	16
505	1	87	88	91	85
516	1	36	34	37	72
518	3	127	128	129	126
521	1	17	14	18	19
523	1	82	81	83	93
529	1	82	93	81	83
533	1	57	58	47	55
534	1	115	116	146	113
544	1	55	52	56	57
546	1	29	31	7	30
551	1	31	32	2	29
552	1	105	75	103	106
560	1	126	131	124	127
564	1	3	5	2	4
568	1	2	31	1	3
573	1	113	115	111	114
574	1	5	3	6	7
576	1	121	122	133	116
585	1	91	92	93	87
596	1	2	1	3	31
599	1	31	29	32	2
604	1	36	37	72	34
609	1	93	82	91	94
610	1	50	51	52	48
613	1	14	17	12	15
614	2	15	14	16	34
620	1	111	110	112	113
629	1	70	72	41	71
633	1	121	133	116	122
636	1	83	85	82	84
645	1	12	14	10	13
651	1	75	74	76	105
653	1	7	29	5	8
668	1	31	2	29	32
674	1	19	9	17	20
675	1	93	94	82	91
680	1	47	57	42	48
683	1	103	80	104	105
687	1	12	13	14	10
690	1	48	50	47	49
696	1	41	39	42	70
699	1	87	85	88	91
705	1	124	126	122	125
708	1	55	56	57	52
710	1	105	103	106	75
713	1	34	35	36	15
718	1	124	122	125	126
723	1	9	8	10	19
724	1	9	10	19	8
726	1	78	79	80	76
728	1	7	8	29	5
737	1	146	147	148	115
740	2	1	2	33	74
743	1	70	71	72	41
750	1	78	80	76	79
753	1	122	123	124	121
759	1	52	53	55	50
762	1	122	121	123	124
768	1	14	15	17	12
