Title

15375 atoms
16500 bonds
28625 angles
46625 dihedrals
19500 impropers

9 atom types
13 bond types
9 angle types
19 dihedral types
3 improper types
-14.44103045 157.2744557 xlo xhi
-14.28941069 155.7161015 ylo yhi
-16.39349296 157.6217033 zlo zhi
0.0 0.0 0.0 xy xz yz

Masses

1	14.00672
2	12.01078
3	1.007947
4	1.007947
5	15.99943
6	12.01078
7	1.007947
8	15.99943
9	1.007947


Pair Coeffs

1	0.16769152	3.206876
2	0.086879315	3.4806469
3	0.015611343	2.5725815
4	0.014090815	1.1034277
5	0.2102061	3.0398122
6	0.10884061	3.3795318
7	0.015779483	2.6445434
8	0.20947353	2.99716
9	1.2326e-05	0.53453923

Bond Coeffs

1 harmonic	390.03554688505	1.390160554689
2 harmonic	505.144496193	1.019481865027
3 harmonic	422.7150220147	1.421786517481
4 harmonic	360.7852444772	1.387193227181
5 harmonic	397.2545789619	1.085358495916
6 harmonic	492.76746816345	1.381897776683
7 harmonic	582.698766451	1.225198386222
8 harmonic	279.1350963404	1.454628925034
9 harmonic	289.73813263395	1.498646816465
10 harmonic	264.62148576755	1.52190126495
11 harmonic	370.04670688625	1.093899492634
12 harmonic	385.7604595587	1.369745182308
13 harmonic	543.5267831885	0.9716763312559


Angle Coeffs

1 harmonic	57.8982893754	126.8062420451
2 harmonic	55.42182150775	117.3465570514
3 harmonic	63.44422595415	115.5071327674
4 harmonic	34.066775159195	129.1835929926
5 harmonic	53.20531626545	116.5475862634
6 harmonic	14.32262199324	138.3184368373
7 harmonic	48.776492647595	115.6030999533
8 harmonic	65.09061609600001	110.3538806181
9 harmonic	201.41175231035	127.4691416191


Dihedral Coeffs

1 fourier 1	3.661930099076	2	180
2 fourier 1	1.193093382682	2	180
3 fourier 1	0.02021088501612	1	0
4 fourier 1	3.101948770557	2	180
5 fourier 1	-0.4252153282372	1	0
6 fourier 1	1.809047390003	2	180
7 fourier 1	-0.04816277792592	1	0
8 fourier 1	0.9974165607242	2	180
9 fourier 1	2.348375642009	2	180
10 fourier 1	1.256156174911	1	0
11 fourier 1	0.02664938770063	3	0
12 fourier 1	0.1155372516788	3	0
13 fourier 1	0.09223874044423	3	0
14 fourier 1	0.3159935921949	2	180
15 fourier 1	0.3247796806857	1	180
16 fourier 1	0.1040663847541	3	0
17 fourier 1	2.687457892086	2	180
18 fourier 1	2.772607909663	2	180
19 fourier 1	0.09692684957115	1	0


Improper Coeffs

1 0.3666666666666667	-1	2
2 0.3333333333333333	-1	2
3 3.5	-1	2


Atoms

1	4	1	-0.39358435	-5.8517611	-4.1189373	7.7416834
2	4	2	0.074133621	-4.9101294	-3.1792608	7.1985924
3	4	2	-0.4263306	-5.3782741	-2.1261522	6.5107932
4	4	3	0.22533655	-6.4459578	-1.9868394	6.3938463
5	4	2	-0.12729359	-4.4830511	-1.1416969	5.8771148
6	4	3	0.2269314	-4.920893	-0.3011476	5.3529531
7	4	2	-0.24190076	-3.1547839	-1.2615029	5.9297056
8	4	3	0.21377846	-2.5677781	-0.48715135	5.4600867
9	4	2	-0.18087216	-2.522897	-2.3934624	6.6521463
10	4	2	0.17392346	-1.1765465	-2.5567792	6.7341276
11	4	1	-0.50302178	-0.24967418	-1.7094151	6.0401141
12	4	4	0.31878325	0.77416853	-1.7950955	6.2311795
13	4	2	-0.42066914	-0.62693337	-3.6493309	7.567708
14	4	3	0.22178561	0.44512815	-3.7780206	7.6512785
15	4	2	-0.13608391	-1.438242	-4.4780764	8.2259391
16	4	3	0.2269314	-1.0240184	-5.2694631	8.837823
17	4	2	-0.22545848	-2.8989237	-4.3288956	8.1185896
18	4	3	0.21377846	-3.5067593	-5.0194413	8.6805216
19	4	2	-0.19438273	-3.4326451	-3.3554705	7.3541924
20	4	4	0.37708684	-5.5689443	-5.0511081	8.1090882
21	5	2	0.77014869	-0.53147734	-1.0708625	5.2392392
22	5	5	-0.64979613	-1.1017035	0.020562557	5.5025348
23	5	2	-0.36855463	-0.25553236	-1.462734	3.8460457
24	5	2	-0.074955976	0.35099797	-2.6297525	3.5811294
25	5	3	0.22768403	0.642477	-3.2963478	4.385164
26	5	2	-0.24555022	0.63138207	-3.0332055	2.1883374
27	5	3	0.21828351	1.1019048	-3.9934436	2.0394674
28	5	2	-0.2058069	0.3100079	-2.225278	1.1540954
29	5	6	0.02632312	0.54595045	-2.6165544	-0.31513399
30	5	6	-0.13060244	1.5612566	-3.7692634	-0.50503982
31	5	7	0.090107718	1.1564995	-4.7251065	-0.11008827
32	5	7	0.090107718	1.7799912	-3.9252046	-1.5834352
33	5	7	0.090107718	2.5176483	-3.5393201	0.011872038
34	5	2	-0.12079234	1.0340913	-1.4369377	-1.0973291
35	5	2	-0.14758781	2.1285672	-0.70141691	-0.85332598
36	5	3	0.2178423	2.7662913	-0.91762907	-0.0066487968
37	5	2	0.0042567456	2.4530939	0.42161169	-1.765206
38	5	3	0.21805196	3.3338794	1.0190529	-1.5624997
39	5	2	-0.34323058	1.6662558	0.68807783	-2.8286516
40	5	2	0.58783423	2.0000047	1.8033179	-3.730925
41	5	5	-0.50302381	1.275017	2.0662793	-4.7275108
42	5	2	0.075794683	0.46382459	-0.15594912	-3.0787452
43	5	3	0.21209257	-0.1732858	0.032952379	-3.9329557
44	5	2	-0.17785046	0.18219553	-1.1573403	-2.2308038
45	5	6	-0.026053088	-0.95353297	-2.1262649	-2.3105907
46	5	6	-0.13017281	-0.80525566	-3.0130919	-3.5609242
47	5	7	0.094288745	-0.86554474	-2.401196	-4.4864503
48	5	7	0.094288745	0.17129434	-3.5416537	-3.5524664
49	5	7	0.094288745	-1.616276	-3.772311	-3.592646
50	5	6	-0.13017281	-2.3042258	-1.3843589	-2.3396497
51	5	7	0.094288745	-2.4076756	-0.78430887	-3.2691544
52	5	7	0.094288745	-2.3922081	-0.69867952	-1.4685011
53	5	7	0.094288745	-3.1422303	-2.1123675	-2.3010099
54	5	6	-0.17999949	-0.81035909	-2.9762904	-1.0061683
55	5	7	0.13272569	-0.88160166	-4.0657543	-1.2239659
56	5	7	0.13272569	-1.661171	-2.7690354	-0.3183497
57	5	2	-0.24555022	-0.38868813	-0.94241375	1.4583851
58	5	3	0.21828351	-0.70097785	-0.28915541	0.65414713
59	5	2	-0.074955924	-0.64878587	-0.58362452	2.7208559
60	5	3	0.227684	-1.1560237	0.35462826	2.9104647
61	1	1	-0.39358438	-6.8783945	-3.9257687	7.7007131
62	1	2	0.074133621	-7.7803232	-4.891655	7.1386042
63	1	2	-0.42633063	-7.2670909	-5.9755028	6.5360267
64	1	3	0.22533655	-6.1942383	-6.1184601	6.5006778
65	1	2	-0.12729358	-8.1173618	-6.9914557	5.8888366
66	1	3	0.2269314	-7.6460565	-7.8543368	5.4363286
67	1	2	-0.19432584	-9.4457913	-6.8714927	5.8425663
68	1	3	0.21377846	-9.9998879	-7.6673022	5.3693376
69	1	2	-0.22014659	-10.125188	-5.7065773	6.4638617
70	1	2	0.2164061	-11.473419	-5.5417805	6.4428662
71	1	1	-0.81321616	-12.351185	-6.4227545	5.7267506
72	1	4	0.37190249	-12.021658	-7.0854017	4.9938172
73	1	4	0.37190249	-13.385597	-6.3307896	5.8412451
74	1	2	-0.45179046	-12.078567	-4.4117715	7.184014
75	1	3	0.23219373	-13.153754	-4.2810741	7.1854329
76	1	2	-0.085769444	-11.314336	-3.5513777	7.8569054
77	1	3	0.2269314	-11.769222	-2.732515	8.3998447
78	1	2	-0.22545849	-9.8497023	-3.7030261	7.859363
79	1	3	0.21377846	-9.2816231	-2.9855427	8.4291915
80	1	2	-0.16036809	-9.2647898	-4.710724	7.1814254
81	1	4	0.37708681	-7.1843637	-2.9776398	8.0021986
82	2	2	0.59333324	2.8747795	2.4127202	-3.5451243
83	2	5	-0.51363415	3.1780482	2.6979286	-2.3549591
84	2	2	-0.33179081	3.6875557	2.8913937	-4.678763
85	2	2	0.0095532651	4.7818199	3.6464714	-4.4909425
86	2	3	0.22567856	5.1035034	3.9263021	-3.4950913
87	2	2	-0.23876075	5.5763309	4.1104868	-5.6462034
88	2	3	0.21828351	6.4615164	4.7011691	-5.4504941
89	2	2	-0.2058069	5.214048	3.8046974	-6.9120505
90	2	6	0.02632312	6.0775506	4.2805247	-8.0933624
91	2	6	-0.13060244	5.4041526	4.0727218	-9.4689909
92	2	7	0.090107718	4.4047224	4.5580694	-9.4946834
93	2	7	0.090107718	5.2882658	2.991309	-9.6931978
94	2	7	0.090107718	6.0230869	4.5161021	-10.279543
95	2	2	-0.12079234	6.4134471	5.7336746	-7.9546904
96	2	2	-0.16700663	5.5531529	6.7562502	-7.8401607
97	2	3	0.2178423	4.4846913	6.5841373	-7.8259879
98	2	2	-0.057065344	6.0876844	8.1335535	-7.7318431
99	2	3	0.23437771	5.3868359	8.9526427	-7.6334808
100	2	2	-0.22510307	7.4224304	8.3553853	-7.7590813
101	2	2	0.83713865	7.9712635	9.7250624	-7.6552699
102	2	5	-0.47122771	7.2035175	10.718514	-7.5385897
103	2	8	-0.66249967	9.3489427	9.9273324	-7.6853499
104	2	9	0.4208061	9.7392652	10.859241	-7.6149265
105	2	2	0.0098446247	8.3494179	7.1964974	-7.8979417
106	2	3	0.22727365	9.4199042	7.3490794	-7.9349934
107	2	2	-0.1721284	7.8405348	5.9575326	-7.9805567
108	2	6	-0.026053088	8.5916161	4.6743146	-8.139517
109	2	6	-0.13017281	9.6100887	4.4905272	-6.9981311
110	2	7	0.094288745	10.404329	5.265831	-7.0466633
111	2	7	0.094288745	9.1060112	4.5656733	-6.0095442
112	2	7	0.094288745	10.093198	3.4924804	-7.0716946
113	2	6	-0.13017281	9.3077979	4.6470932	-9.5029291
114	2	7	0.094288745	8.5806218	4.7927253	-10.330532
115	2	7	0.094288745	10.071367	5.451974	-9.5621598
116	2	7	0.094288745	9.8194672	3.6712252	-9.6509872
117	2	6	-0.17999949	7.4772785	3.5788177	-8.0770159
118	2	7	0.13272569	7.5788883	2.8513174	-8.9129182
119	2	7	0.13272569	7.5916818	2.9646458	-7.1554228
120	2	2	-0.23876073	4.0055056	2.9494811	-7.1060152
121	2	3	0.21828351	3.6790216	2.6532982	-8.0920908
122	2	2	0.0095532083	3.2899636	2.5273756	-6.0557707
123	2	3	0.22567859	2.4152275	1.9104831	-6.2214494
124	4	1	-0.39358435	-0.76247107	0.1194911	22.395663
125	4	2	0.074133621	-0.76600739	-0.52338442	23.680696
126	4	2	-0.4263306	-1.8844354	-0.47244982	24.420824
127	4	3	0.22533655	-2.7658094	0.026334981	24.036862
128	4	2	-0.12729359	-1.960234	-1.0604478	25.770134
129	4	3	0.2269314	-2.8973783	-1.005735	26.310264
130	4	2	-0.24190076	-0.9084233	-1.6516422	26.340744
131	4	3	0.21377846	-1.0506549	-2.0776967	27.322063
132	4	2	-0.18087216	0.38580081	-1.7561277	25.621995
133	4	2	0.17392346	1.4829923	-2.3494695	26.160669
134	4	1	-0.50302178	1.518203	-2.8320599	27.511461
135	4	4	0.31878325	2.3377594	-3.3903225	27.841266
136	4	2	-0.42066914	2.7004301	-2.5111523	25.334652
137	4	3	0.22178561	3.5747927	-2.9963978	25.750449
138	4	2	-0.13608391	2.733375	-2.070675	24.076398
139	4	3	0.2269314	3.6276523	-2.2006959	23.480043
140	4	2	-0.22545848	1.5604483	-1.3983762	23.493622
141	4	3	0.21377846	1.6386567	-1.0723788	22.469076
142	4	2	-0.19438273	0.44181816	-1.2193007	24.223907
143	4	4	0.37708684	0.11046825	0.29472935	21.85605
144	5	2	0.77014869	0.80749932	-2.550645	28.249207
145	5	5	-0.64979613	-0.32687969	-3.0972869	28.241593
146	5	2	-0.36855463	1.1513858	-1.5370663	29.261678
147	5	2	-0.074955976	2.3634877	-0.96194368	29.255764
148	5	3	0.22768403	3.1006011	-1.2334666	28.508288
149	5	2	-0.24555022	2.7185232	0.056103102	30.265115
150	5	3	0.21828351	3.7012396	0.49751878	30.19418
151	5	2	-0.2058069	1.8430211	0.40926668	31.231788
152	5	6	0.02632312	2.15068	1.4912107	32.281618
153	5	6	-0.13060244	3.6568435	1.8156743	32.429415
154	5	7	0.090107718	4.048524	2.3115727	31.516112
155	5	7	0.090107718	3.8264015	2.5109119	33.279705
156	5	7	0.090107718	4.2413392	0.88968488	32.618267
157	5	2	-0.12079234	1.6328918	1.0777437	33.624208
158	5	2	-0.14758781	1.9492873	-0.032704739	34.306267
159	5	3	0.2178423	2.6351894	-0.76122931	33.895058
160	5	2	0.0042567456	1.3395951	-0.2505567	35.640003
161	5	3	0.21805196	1.5910152	-1.151611	36.186535
162	5	2	-0.34323058	0.49185207	0.66080701	36.161331
163	5	2	0.58783423	-0.1049805	0.43689615	37.489074
164	5	5	-0.50302381	-0.89944626	1.2773032	37.989552
165	5	2	0.075794683	0.17032785	1.890205	35.382889
166	5	3	0.21209257	-0.49719884	2.6394768	35.78819
167	5	2	-0.17785046	0.72270381	2.0579802	34.171346
168	5	6	-0.026053088	0.54982135	3.2179134	33.244132
169	5	6	-0.13017281	1.1506138	4.489983	33.870765
170	5	7	0.094288745	0.60803391	4.7641654	34.800862
171	5	7	0.094288745	2.2211795	4.3348103	34.121583
172	5	7	0.094288745	1.0752357	5.3414246	33.160455
173	5	6	-0.13017281	-0.93982676	3.4375232	32.914951
174	5	7	0.094288745	-1.5060681	3.7416818	33.821372
175	5	7	0.094288745	-1.3934439	2.5040208	32.515449
176	5	7	0.094288745	-1.0498336	4.2372056	32.151965
177	5	6	-0.17999949	1.348411	2.796701	31.967654
178	5	7	0.13272569	2.0191834	3.6153521	31.62223
179	5	7	0.13272569	0.64979334	2.6256779	31.117587
180	5	2	-0.24555022	0.48852681	-0.21642017	31.212549
181	5	3	0.21828351	-0.25465081	0.072927953	31.94401
182	5	2	-0.074955924	0.16709472	-1.1323246	30.291672
183	5	3	0.227684	-0.82372726	-1.5701317	30.304192
184	1	1	-0.39358438	-1.6439397	0.51735317	21.998564
185	1	2	0.074133621	-1.6917082	1.8811071	21.551047
186	1	2	-0.42633063	-0.63400888	2.6725145	21.788069
187	1	3	0.22533655	0.24009809	2.2732283	22.287275
188	1	2	-0.12729358	-0.61767784	4.0971354	21.408379
189	1	3	0.2269314	0.27238374	4.6797428	21.607916
190	1	2	-0.19432584	-1.6691529	4.6841724	20.833014
191	1	3	0.21377846	-1.5720024	5.7251318	20.566093
192	1	2	-0.22014659	-2.9011866	3.9111896	20.534339
193	1	2	0.2164061	-3.9953445	4.4645864	19.94962
194	1	1	-0.81321616	-4.0970278	5.8677805	19.666571
195	1	4	0.37190249	-3.4712494	6.5830528	20.092796
196	1	4	0.37190249	-4.9014478	6.2271126	19.105
197	1	2	-0.45179046	-5.139005	3.5985803	19.58288
198	1	3	0.23219373	-6.0094699	4.0284297	19.102638
199	1	2	-0.085769444	-5.1096732	2.2894663	19.83282
200	1	3	0.2269314	-5.949805	1.6658001	19.554504
201	1	2	-0.22545849	-3.9414959	1.6854858	20.495183
202	1	3	0.21377846	-3.9665783	0.62080234	20.662577
203	1	2	-0.16036809	-2.8902277	2.4475229	20.857552
204	1	4	0.37708681	-2.4852559	-0.094646196	22.031774
205	2	2	0.59333324	0.1324259	-0.45729344	38.050489
206	2	5	-0.51363415	0.26421763	-1.5485291	37.432715
207	2	2	-0.33179081	0.29677006	-0.38057037	39.514038
208	2	2	0.0095532651	0.5947117	-1.465635	40.246635
209	2	3	0.22567856	0.72631914	-2.4350742	39.781477
210	2	2	-0.23876075	0.75384221	-1.3574753	41.710931
211	2	3	0.21828351	1.0124427	-2.2520384	42.26197
212	2	2	-0.2058069	0.58645401	-0.17664232	42.347123
213	2	6	0.02632312	0.78538318	-0.090962625	43.870485
214	2	6	-0.13060244	0.31537403	1.2509823	44.476518
215	2	7	0.090107718	-0.74392552	1.4537315	44.208451
216	2	7	0.090107718	0.94764211	2.0901727	44.117146
217	2	7	0.090107718	0.39149356	1.2283662	45.585732
218	2	2	-0.12079234	0.052325864	-1.197178	44.56519
219	2	2	-0.16700663	-1.2592237	-1.4687468	44.494676
220	2	3	0.2178423	-1.9174679	-0.87191017	43.876668
221	2	2	-0.057065344	-1.7989299	-2.6041766	45.278218
222	2	3	0.23437771	-2.8574414	-2.8204961	45.210911
223	2	2	-0.22510307	-0.98212925	-3.3475349	46.060364
224	2	2	0.83713865	-1.5066458	-4.4822709	46.851102
225	2	5	-0.47122771	-2.7308958	-4.781791	46.812455
226	2	8	-0.66249967	-0.64556677	-5.2325129	47.648283
227	2	9	0.4208061	-0.99017009	-6.0124183	48.194873
228	2	2	0.0098446247	0.46856676	-3.0111615	46.123157
229	2	3	0.22727365	1.1395535	-3.5824487	46.750854
230	2	2	-0.1721284	0.93499491	-1.9862447	45.393218
231	2	6	-0.026053088	2.3406993	-1.4803185	45.329391
232	2	6	-0.13017281	3.3074371	-2.6009007	44.900976
233	2	7	0.094288745	3.352547	-3.4013132	45.670115
234	2	7	0.094288745	2.9775066	-3.0548861	43.940722
235	2	7	0.094288745	4.331728	-2.1924844	44.763396
236	2	6	-0.13017281	2.7589401	-0.90916457	46.697386
237	2	7	0.094288745	2.0577657	-0.10927793	47.019033
238	2	7	0.094288745	2.7606643	-1.7055173	47.47211
239	2	7	0.094288745	3.7822827	-0.47850066	46.639562
240	2	6	-0.17999949	2.2821755	-0.34910207	44.251109
241	2	7	0.13272569	2.7773029	0.5795242	44.612794
242	2	7	0.13272569	2.865294	-0.6449246	43.349948
243	2	2	-0.23876073	0.27308447	1.0254605	41.518666
244	2	3	0.21828351	0.14998951	2.0004019	41.966994
245	2	2	0.0095532083	0.13350719	0.92410607	40.190723
246	2	3	0.22567859	-0.096986097	1.8095083	39.610978
247	4	1	-0.39358435	0.48689054	-2.0258545	76.154041
248	4	2	0.074133621	0.35966819	-2.3990779	74.772329
249	4	2	-0.4263306	1.4730662	-2.5013578	74.029935
250	4	3	0.22533655	2.4423326	-2.3256614	74.480142
251	4	2	-0.12729359	1.4314533	-2.8292134	72.593654
252	4	3	0.2269314	2.3653352	-2.9182915	72.052448
253	4	2	-0.24190076	0.27878917	-3.0142753	71.946715
254	4	3	0.21377846	0.33308924	-3.2735988	70.900511
255	4	2	-0.18087216	-1.0176245	-2.9136692	72.662063
256	4	2	0.17392346	-2.2155369	-3.0950099	72.047105
257	4	1	-0.50302178	-2.3373242	-3.2940789	70.631367
258	4	4	0.31878325	-3.2635664	-3.5520891	70.221969
259	4	2	-0.42066914	-3.4552957	-3.088217	72.85553
260	4	3	0.22178561	-4.4134656	-3.2469877	72.376403
261	4	2	-0.13608391	-3.4076931	-2.8944793	74.174055
262	4	3	0.2269314	-4.3209764	-2.8982438	74.755584
263	4	2	-0.22545848	-2.1175295	-2.6658532	74.845306
264	4	3	0.21377846	-2.1367926	-2.5258831	75.914008
265	4	2	-0.19438273	-0.97132738	-2.6484518	74.136338
266	4	4	0.37708684	-0.32595638	-1.735051	76.735958
267	5	2	0.77014869	-1.5587964	-3.0734007	69.943066
268	5	5	-0.64979613	-0.60322501	-3.8848326	69.824101
269	5	2	-0.36855463	-1.6040348	-1.836441	69.143953
270	5	2	-0.074955976	-2.6277545	-0.98052133	69.283207
271	5	3	0.22768403	-3.4295205	-1.1868282	69.983485
272	5	2	-0.24555022	-2.6827019	0.26296496	68.488234
273	5	3	0.21828351	-3.5208298	0.92109209	68.661501
274	5	2	-0.2058069	-1.7204395	0.55166792	67.584693
275	5	6	0.02632312	-1.7121419	1.8510739	66.760754
276	5	6	-0.13060244	-3.0801756	2.5731937	66.709025
277	5	7	0.090107718	-3.3557546	2.9754391	67.706875
278	5	7	0.090107718	-3.0429716	3.4334097	66.006356
279	5	7	0.090107718	-3.8774003	1.8799112	66.364715
280	5	2	-0.12079234	-1.2821256	1.5739601	65.353664
281	5	2	-0.14758781	-1.8544835	0.72796906	64.484693
282	5	3	0.2178423	-2.7150343	0.13714926	64.768746
283	5	2	0.0042567456	-1.2857281	0.61116071	63.120541
284	5	3	0.21805196	-1.7452087	-0.077947134	62.422102
285	5	2	-0.34323058	-0.2189715	1.3541852	62.75863
286	5	2	0.58783423	0.33564517	1.2338262	61.399527
287	5	5	-0.50302381	1.3321687	1.919379	61.046119
288	5	2	0.075794683	0.3862845	2.293878	63.744232
289	5	3	0.21209257	1.2342462	2.9080082	63.470236
290	5	2	-0.17785046	-0.13668046	2.3710408	64.977787
291	5	6	-0.026053088	0.30317479	3.2555383	66.099951
292	5	6	-0.13017281	0.065739996	4.7324001	65.7335
293	5	7	0.094288745	0.68510689	5.0249699	64.858607
294	5	7	0.094288745	-1.0017235	4.9066547	65.481993
295	5	7	0.094288745	0.33803889	5.3894116	66.587528
296	5	6	-0.13017281	1.7899826	3.0202371	66.431125
297	5	7	0.094288745	2.4392686	3.330786	65.584527
298	5	7	0.094288745	1.9781304	1.9443325	66.640473
299	5	7	0.094288745	2.0810561	3.6095165	67.326539
300	5	6	-0.17999949	-0.61049669	2.8252622	67.293528
301	5	7	0.13272569	-1.0577847	3.7103394	67.799507
302	5	7	0.13272569	-0.0020590139	2.3264022	68.081483
303	5	2	-0.24555022	-0.57278654	-0.393454	67.457625
304	5	3	0.21828351	0.23898401	-0.17475662	66.776251
305	5	2	-0.074955924	-0.52174383	-1.5150626	68.185362
306	5	3	0.227684	0.32358315	-2.182646	68.069973
307	1	1	-0.39358438	1.4300087	-1.9483443	76.598439
308	1	2	0.074133621	1.8140627	-0.74969631	77.289904
309	1	2	-0.42633063	1.0014844	0.31661323	77.227186
310	1	3	0.22533655	0.067836924	0.25473239	76.682051
311	1	2	-0.12729358	1.3410304	1.6020057	77.864721
312	1	3	0.2269314	0.6358561	2.4202467	77.796405
313	1	2	-0.19432584	2.4921769	1.7823316	78.515568
314	1	3	0.21377846	2.6582266	2.745399	78.972962
315	1	2	-0.22014659	3.4762737	0.67730755	78.638415
316	1	2	0.2164061	4.6597801	0.8130261	79.29127
317	1	1	-0.81321616	5.1104291	2.0656304	79.827281
318	1	4	0.37190249	4.7006754	2.983703	79.555021
319	1	4	0.37190249	5.9648344	2.0959914	80.427816
320	1	2	-0.45179046	5.5328151	-0.37011017	79.46569
321	1	3	0.23219373	6.4712897	-0.27479673	79.997942
322	1	2	-0.085769444	5.1753207	-1.5581823	78.97805
323	1	3	0.2269314	5.8196205	-2.4171015	79.11725
324	1	2	-0.22545849	3.9093941	-1.7085134	78.241176
325	1	3	0.21377846	3.6649741	-2.6939615	77.878751
326	1	2	-0.16036809	3.0988384	-0.64854927	78.049727
327	1	4	0.37708681	2.0867548	-2.7389229	76.43373
328	2	2	0.59333324	-0.10813786	0.55037985	60.687431
329	2	5	-0.51363415	-0.53187855	-0.56506414	61.094908
330	2	2	-0.33179081	-0.20820416	0.93588895	59.267487
331	2	2	0.0095532651	-0.75487298	0.11857546	58.353165
332	2	3	0.22567856	-1.1431211	-0.85317442	58.633291
333	2	2	-0.23876075	-0.84181778	0.53270338	56.938201
334	2	3	0.21828351	-1.3064504	-0.147569	56.236697
335	2	2	-0.2058069	-0.3602096	1.7273952	56.528457
336	2	6	0.02632312	-0.48979791	2.1413424	55.052177
337	2	6	-0.13060244	0.3247183	3.4055271	54.695244
338	2	7	0.090107718	1.3930414	3.2761096	54.972769
339	2	7	0.090107718	-0.080471172	4.2976156	55.217883
340	2	7	0.090107718	0.27495785	3.6086445	53.603032
341	2	2	-0.12079234	-0.046783562	1.0320377	54.148362
342	2	2	-0.16700663	1.1488502	0.42438459	54.138279
343	2	3	0.2178423	1.9214456	0.70716877	54.841531
344	2	2	-0.057065344	1.3999299	-0.64652982	53.146049
345	2	3	0.23437771	2.3653445	-1.1361612	53.148655
346	2	2	-0.22510307	0.44093349	-0.99722273	52.257883
347	2	2	0.83713865	0.67770728	-2.0622458	51.259046
348	2	5	-0.47122771	1.7826747	-2.6680908	51.214405
349	2	8	-0.66249967	-0.32543431	-2.4053118	50.355813
350	2	9	0.4208061	-0.17797602	-3.1326429	49.666604
351	2	2	0.0098446247	-0.8727212	-0.29376904	52.290644
352	2	3	0.22727365	-1.6508156	-0.54725257	51.582893
353	2	2	-0.1721284	-1.0799216	0.66339221	53.208103
354	2	6	-0.026053088	-2.3099894	1.4927173	53.395701
355	2	6	-0.13017281	-3.5429068	0.59898091	53.63017
356	2	7	0.094288745	-3.7713022	-0.0065297249	52.727141
357	2	7	0.094288745	-3.3662094	-0.093920469	54.482057
358	2	7	0.094288745	-4.4314456	1.2241706	53.86371
359	2	6	-0.13017281	-2.5310773	2.3948157	52.166926
360	2	7	0.094288745	-1.6398535	3.0328509	51.983753
361	2	7	0.094288745	-2.7163643	1.7830402	51.258202
362	2	7	0.094288745	-3.4108654	3.0556065	52.326216
363	2	6	-0.17999949	-1.9920199	2.3514388	54.663479
364	2	7	0.13272569	-2.2225333	3.4263949	54.491296
365	2	7	0.13272569	-2.6553334	2.0541064	55.506828
366	2	2	-0.23876073	0.22883166	2.6340476	57.558313
367	2	3	0.21828351	0.60981781	3.6100935	57.29593
368	2	2	0.0095532083	0.30226736	2.2566011	58.841016
369	2	3	0.22567859	0.73662805	2.9301004	59.569644
370	4	1	-0.39358435	-3.0704644	7.6440136	92.150321
371	4	2	0.074133621	-2.2846135	6.4984954	92.517522
372	4	2	-0.4263306	-2.8377687	5.2801999	92.412448
373	4	3	0.22533655	-3.8479284	5.1745733	92.036345
374	4	2	-0.12729359	-2.1223533	4.0559799	92.814432
375	4	3	0.2269314	-2.6139603	3.0995061	92.686158
376	4	2	-0.24190076	-0.89305311	4.0967871	93.332669
377	4	3	0.21377846	-0.42780235	3.1552007	93.581053
378	4	2	-0.18087216	-0.18598319	5.3897602	93.508187
379	4	2	0.17392346	1.0653671	5.4814428	94.029503
380	4	1	-0.50302178	1.7708673	4.3477114	94.55457
381	4	4	0.31878325	2.7744032	4.4436739	94.829902
382	4	2	-0.42066914	1.7421724	6.7971857	94.066315
383	4	3	0.22178561	2.7454575	6.8775485	94.466092
384	4	2	-0.13608391	1.1324391	7.8899995	93.605563
385	4	3	0.2269314	1.6405012	8.845749	93.631863
386	4	2	-0.22545848	-0.23539063	7.8066076	93.06755
387	4	3	0.21377846	-0.67563805	8.7188948	92.698769
388	4	2	-0.19438273	-0.88696132	6.6271405	93.035441
389	4	4	0.37708684	-2.7906084	8.6183758	92.387414
390	5	2	0.77014869	1.2967281	3.4293877	94.800409
391	5	5	-0.64979613	1.0026565	2.6289064	93.873887
392	5	2	-0.36855463	0.99216614	3.1047738	96.204889
393	5	2	-0.074955976	1.3097512	3.9686813	97.181001
394	5	3	0.22768403	1.7904944	4.9125477	96.949089
395	5	2	-0.24555022	1.0079942	3.6541642	98.592129
396	5	3	0.21828351	1.26831	4.399232	99.328825
397	5	2	-0.2058069	0.43285844	2.4801001	98.933417
398	5	6	0.02632312	0.063622681	2.1221003	100.38356
399	5	6	-0.13060244	0.78742408	2.980963	101.4485
400	5	7	0.090107718	0.44038042	4.0353365	101.41233
401	5	7	0.090107718	0.574691	2.5994482	102.47041
402	5	7	0.090107718	1.8872729	2.9556391	101.29214
403	5	2	-0.12079234	0.37341988	0.68381669	100.66099
404	5	2	-0.14758781	1.5632912	0.075985679	100.5463
405	5	3	0.2178423	2.4347876	0.61953205	100.20667
406	5	2	0.0042567456	1.6676787	-1.3620512	100.89154
407	5	3	0.21805196	2.6282436	-1.8531116	100.79162
408	5	2	-0.34323058	0.58548296	-2.0412143	101.32585
409	5	2	0.58783423	0.70092912	-3.4685151	101.67042
410	5	5	-0.50302381	-0.30016804	-4.1174884	102.07611
411	5	2	0.075794683	-0.71962406	-1.3333313	101.45378
412	5	3	0.21209257	-1.5967003	-1.8563702	101.81216
413	5	2	-0.17785046	-0.79279975	-0.035286811	101.12087
414	5	6	-0.026053088	-1.989481	0.85782314	101.19414
415	5	6	-0.13017281	-2.4207912	1.0448448	102.66069
416	5	7	0.094288745	-2.7396328	0.076825313	103.10333
417	5	7	0.094288745	-1.5826761	1.4489537	103.26679
418	5	7	0.094288745	-3.2744299	1.7537488	102.72339
419	5	6	-0.13017281	-3.153718	0.28121928	100.36485
420	5	7	0.094288745	-3.5152872	-0.67531551	100.79965
421	5	7	0.094288745	-2.8306707	0.090127901	99.31799
422	5	7	0.094288745	-4.0025918	0.99733046	100.34644
423	5	6	-0.17999949	-1.4849038	2.2073147	100.58682
424	5	7	0.13272569	-1.7654602	3.0705058	101.23152
425	5	7	0.13272569	-1.9917926	2.4035072	99.614969
426	5	2	-0.24555022	0.059068506	1.5387003	97.837718
427	5	3	0.21828351	-0.44259343	0.60789405	98.067946
428	5	2	-0.074955924	0.3262479	1.8302821	96.559513
429	5	3	0.227684	0.044275299	1.1261112	95.786082
430	1	1	-0.39358438	-4.0082556	7.5236825	91.704185
431	1	2	0.074133621	-5.1656746	8.1728564	92.253123
432	1	2	-0.42633063	-5.0475302	8.8118515	93.427414
433	1	3	0.22533655	-4.088855	8.8491315	93.92966
434	1	2	-0.12729358	-6.1946917	9.4618946	94.087294
435	1	3	0.2269314	-6.0328341	9.9791246	95.024167
436	1	2	-0.19432584	-7.4218063	9.4239154	93.563839
437	1	3	0.21377846	-8.2048172	9.9413396	94.096237
438	1	2	-0.22014659	-7.6762743	8.7334019	92.274245
439	1	2	0.2164061	-8.9068309	8.6690573	91.702479
440	1	1	-0.81321616	-10.087868	9.1697539	92.345803
441	1	4	0.37190249	-10.134674	9.3889188	93.362984
442	1	4	0.37190249	-10.988417	9.2118383	91.817775
443	1	2	-0.45179046	-9.0532435	8.0603546	90.360664
444	1	3	0.23219373	-10.028023	8.0181724	89.890412
445	1	2	-0.085769444	-7.9952928	7.5652258	89.718248
446	1	3	0.2269314	-8.1143337	7.1279722	88.734948
447	1	2	-0.22545849	-6.6625561	7.6014809	90.34327
448	1	3	0.21377846	-5.8409679	7.1973195	89.774194
449	1	2	-0.16036809	-6.4964813	8.1332983	91.570774
450	1	4	0.37708681	-4.0624104	6.8495754	90.912917
451	2	2	0.59333324	1.6512399	-3.9776182	101.57636
452	2	5	-0.51363415	2.4023234	-3.6929009	100.60445
453	2	2	-0.33179081	2.0447447	-4.9842758	102.57969
454	2	2	0.0095532651	3.2162606	-5.6355997	102.5012
455	2	3	0.22567856	3.9124647	-5.43824	101.69507
456	2	2	-0.23876075	3.5831826	-6.6382191	103.52165
457	2	3	0.21828351	4.5444033	-7.1268902	103.43211
458	2	2	-0.2058069	2.7473978	-6.9362132	104.54135
459	2	6	0.02632312	3.1698611	-7.9660668	105.60364
460	2	6	-0.13060244	2.019101	-8.3808218	106.54849
461	2	7	0.090107718	1.1482147	-8.7533615	105.96723
462	2	7	0.090107718	1.696025	-7.5247197	107.17766
463	2	7	0.090107718	2.3478509	-9.1922591	107.23416
464	2	2	-0.12079234	3.7105678	-9.2046111	104.95762
465	2	2	-0.16700663	3.0859638	-9.9944517	104.07167
466	2	3	0.2178423	2.08452	-9.7642308	103.73175
467	2	2	-0.057065344	3.7893211	-11.193705	103.5603
468	2	3	0.23437771	3.2806029	-11.822485	102.84085
469	2	2	-0.22510307	5.0377001	-11.491775	103.98949
470	2	2	0.83713865	5.7516494	-12.687376	103.49067
471	2	5	-0.47122771	5.2095676	-13.456769	102.65151
472	2	8	-0.66249967	7.0361538	-12.972422	103.94741
473	2	9	0.4208061	7.5374268	-13.787127	103.61462
474	2	2	0.0098446247	5.6979934	-10.597655	104.98255
475	2	3	0.22727365	6.6905005	-10.821496	105.35054
476	2	2	-0.1721284	5.0448552	-9.5100387	105.41995
477	2	6	-0.026053088	5.5201562	-8.5038983	106.41886
478	2	6	-0.13017281	6.8547635	-7.8767499	105.97239
479	2	7	0.094288745	7.6655181	-8.636227	105.96053
480	2	7	0.094288745	6.761442	-7.446816	104.95087
481	2	7	0.094288745	7.1495909	-7.063993	106.67053
482	2	6	-0.13017281	5.6776829	-9.1656069	107.80084
483	2	7	0.094288745	4.7219356	-9.6320073	108.12324
484	2	7	0.094288745	6.4599002	-9.9540914	107.77243
485	2	7	0.094288745	5.9743027	-8.4091523	108.55968
486	2	6	-0.17999949	4.3796423	-7.4341373	106.44351
487	2	7	0.13272569	4.0768911	-7.1906221	107.48627
488	2	7	0.13272569	4.746663	-6.4695922	106.02569
489	2	2	-0.23876073	1.455833	-6.1918119	104.6269
490	2	3	0.21828351	0.75675655	-6.3698652	105.43079
491	2	2	0.0095532083	1.1284524	-5.2805491	103.70191
492	2	3	0.22567859	0.18462126	-4.7554381	103.78321
493	4	1	-0.39358435	-9.605588	-0.8163248	135.90631
494	4	2	0.074133621	-8.3584672	-1.346486	135.42858
495	4	2	-0.4263306	-7.2855792	-1.2869561	136.23271
496	4	3	0.22533655	-7.3762557	-0.86624284	137.2266
497	4	2	-0.12729359	-5.9569979	-1.7605284	135.80525
498	4	3	0.2269314	-5.1338208	-1.7055085	136.50691
499	4	2	-0.24190076	-5.7436537	-2.248972	134.5816
500	4	3	0.21377846	-4.7477484	-2.5960507	134.35258
501	4	2	-0.18087216	-6.8531488	-2.3514192	133.60126
502	4	2	0.17392346	-6.6851195	-2.8425214	132.34562
503	4	1	-0.50302178	-5.399804	-3.2056721	131.82135
504	4	4	0.31878325	-5.3349904	-3.6932074	130.89928
505	4	2	-0.42066914	-7.8653071	-3.0147858	131.46921
506	4	3	0.22178561	-7.7432478	-3.4196468	130.47219
507	4	2	-0.13608391	-9.0844568	-2.6823253	131.89519
508	4	3	0.2269314	-9.9409003	-2.8191759	131.24707
509	4	2	-0.22545848	-9.2729964	-2.1200983	133.24268
510	4	3	0.21377846	-10.281174	-1.879398	133.53886
511	4	2	-0.19438273	-8.2174425	-1.9338988	134.0599
512	4	4	0.37708684	-10.421011	-0.645585	135.28193
513	5	2	0.77014869	-4.4831696	-2.8971562	132.26085
514	5	5	-0.64979613	-4.067826	-3.4969599	133.28721
515	5	2	-0.36855463	-3.7159951	-1.7852748	131.67275
516	5	2	-0.074955976	-4.1723972	-1.1545045	130.58013
517	5	3	0.22768403	-5.10781	-1.4527233	130.11986
518	5	2	-0.24555022	-3.4122427	-0.037900991	129.98295
519	5	3	0.21828351	-3.8427021	0.44310168	129.11753
520	5	2	-0.2058069	-2.2292225	0.35355891	130.50536
521	5	6	0.02632312	-1.4190004	1.5349045	129.94379
522	5	6	-0.13060244	-1.8157668	1.9436587	128.50464
523	5	7	0.090107718	-2.8375887	2.3781827	128.48184
524	5	7	0.090107718	-1.1207851	2.7164098	128.111
525	5	7	0.090107718	-1.7793388	1.066707	127.82318
526	5	2	-0.12079234	0.04317113	1.2129523	129.94647
527	5	2	-0.14758781	0.64542586	0.18153037	129.33666
528	5	3	0.2178423	0.071963709	-0.54524182	128.77698
529	5	2	0.0042567456	2.1182206	0.049020947	129.44321
530	5	3	0.21805196	2.6022443	-0.78875755	128.95571
531	5	2	-0.34323058	2.8385724	0.95928432	130.13136
532	5	2	0.58783423	4.30174	0.82085866	130.22741
533	5	5	-0.50302381	4.9888646	1.6613186	130.86727
534	5	2	0.075794683	2.1401092	2.100597	130.78735
535	5	3	0.21209257	2.7004301	2.8484048	131.33333
536	5	2	-0.17785046	0.80466723	2.1909234	130.68968
537	5	6	-0.026053088	-0.079650428	3.2576265	131.25109
538	5	6	-0.13017281	0.2214728	4.6062791	130.57121
539	5	7	0.094288745	1.2614787	4.932204	130.78757
540	5	7	0.094288745	0.10074242	4.5253395	129.47031
541	5	7	0.094288745	-0.47310275	5.3892546	130.94496
542	5	6	-0.13017281	0.10669119	3.3756193	132.77654
543	5	7	0.094288745	1.13067	3.7282022	133.02533
544	5	7	0.094288745	-0.053350746	2.3904534	133.26708
545	5	7	0.094288745	-0.62214198	4.1009025	133.19667