Title

11000 atoms
11625 bonds
20750 angles
36125 dihedrals
9750 impropers

9 atom types
13 bond types
6 angle types
13 dihedral types
2 improper types
-10.7392808 109.5888216 xlo xhi
-10.53155629 109.9804253 ylo yhi
-10.51670239 109.6416426 zlo zhi
0.0 0.0 0.0 xy xz yz

Masses

1	15.99943
2	12.01078
3	1.007947
4	12.01078
5	1.007947
6	15.99943
7	15.99943
8	1.007947
9	35.4532


Pair Coeffs

1	0.16846514	3.0251065
2	0.086879315	3.4806469
3	0.015611343	2.5725815
4	0.10884061	3.3795318
5	0.015779483	2.6445434
6	0.2102061	3.0398122
7	0.20947353	2.99716
8	1.2326e-05	0.53453923
9	0.2656001	3.3075278

Bond Coeffs

1 harmonic	425.69104206635	1.362945806494
2 harmonic	300.03137914615	1.451203938761
3 harmonic	360.7852444772	1.387193227181
4 harmonic	397.2545789619	1.085358495916
5 harmonic	289.73813263395	1.498646816465
6 harmonic	264.62148576755	1.52190126495
7 harmonic	301.15400723785	1.345741232799
8 harmonic	370.04670688625	1.093899492634
9 harmonic	582.698766451	1.225198386222
10 harmonic	279.1350963404	1.454628925034
11 harmonic	385.7604595587	1.369745182308
12 harmonic	543.5267831885	0.9716763312559
13 harmonic	218.0227703685	1.746066037062


Angle Coeffs

1 harmonic	57.8982893754	126.8062420451
2 harmonic	65.09061609600001	110.3538806181
3 harmonic	34.066775159195	129.1835929926
4 harmonic	53.20531626545	116.5475862634
5 harmonic	201.41175231035	127.4691416191
6 harmonic	48.776492647595	115.6030999533


Dihedral Coeffs

1 fourier 1	3.661930099076	2	180
2 fourier 1	1.532232714475	2	180
3 fourier 1	0.457973137376	1	0
4 fourier 1	0.02664938770063	3	0
5 fourier 1	0.1155372516788	3	0
6 fourier 1	0.1040663847541	3	0
7 fourier 1	0.09223874044423	3	0
8 fourier 1	0.3159935921949	2	180
9 fourier 1	0.3247796806857	1	180
10 fourier 1	2.779853741805	2	180
11 fourier 1	0.9974165607242	2	180
12 fourier 1	0.1911926717192	3	0
13 fourier 1	0.8283030590042	2	180


Improper Coeffs

1 0.3666666666666667	-1	2
2 3.5	-1	2


Atoms

1	4	1	-0.027494694	0.20889026	0.36798639	0.61585459
2	4	2	0.27403718	0.35211929	0.36814104	-0.77018272
3	4	2	-0.32396039	1.5434938	0.14596567	-1.3401046
4	4	3	0.22336942	2.4173841	-0.035322859	-0.72688989
5	4	2	-0.15978797	1.6813978	0.14742064	-2.8104921
6	4	3	0.20830703	2.6735156	-0.01278073	-3.2012129
7	4	2	-0.25086999	0.6063065	0.34301873	-3.6123132
8	4	4	-0.031257498	0.69085758	0.39466345	-5.1569937
9	4	2	-0.25086996	-0.49997953	-0.4384201	-5.696649
10	4	2	-0.160373	-0.52745637	-1.777059	-5.4871809
11	4	3	0.20830701	0.2691599	-2.2746369	-4.9528255
12	4	2	-0.27471718	-1.6526766	-2.604819	-5.9625861
13	4	3	0.2237231	-1.6324723	-3.6752184	-5.8023427
14	4	2	0.43748781	-2.6915056	-2.0377433	-6.5831161
15	4	1	-0.44254774	-3.7468437	-2.8281397	-7.0306201
16	4	2	-0.27471712	-2.7125764	-0.57594093	-6.7828429
17	4	3	0.22372311	-3.5648103	-0.10989394	-7.2602908
18	4	2	-0.16037302	-1.6912234	0.17941725	-6.359922
19	4	3	0.20830703	-1.7723485	1.2460617	-6.5019019
20	4	4	-0.1330172	2.0451692	-0.20341424	-5.6904063
21	4	5	0.11059284	2.9018836	0.42790831	-5.3689265
22	4	5	0.11059284	2.2193321	-1.1992766	-5.22906
23	4	4	-0.15031288	2.1189723	-0.38629939	-7.2220783
24	4	5	0.10746756	2.7562553	-1.270013	-7.4410661
25	4	5	0.10746756	1.1263223	-0.62123374	-7.6574964
26	4	4	-0.15030429	2.7281061	0.81431557	-7.9661252
27	4	5	0.10542722	2.4706538	0.71893351	-9.0440373
28	4	5	0.10542722	3.8364938	0.7591084	-7.895076
29	4	4	-0.15030427	2.2831218	2.1992166	-7.467841
30	4	5	0.10542722	2.95085	2.5353266	-6.6444121
31	4	5	0.10542722	2.4348648	2.9222981	-8.2992061
32	4	4	-0.15031287	0.81254277	2.261065	-7.0277078
33	4	5	0.10746754	0.46362284	3.3078111	-7.1656908
34	4	5	0.10746754	0.18413546	1.6327692	-7.6905243
35	4	4	-0.1330172	0.62234281	1.9106094	-5.533578
36	4	5	0.11059284	-0.34376209	2.3395969	-5.1925193
37	4	5	0.11059284	1.3887734	2.4647436	-4.9467592
38	4	2	-0.15978795	-0.70802023	0.61650956	-2.9527952
39	4	3	0.20830706	-1.5862542	0.82284943	-3.5504355
40	4	2	-0.3239603	-0.82456605	0.6214032	-1.6202791
41	4	3	0.22336944	-1.7854123	0.81840847	-1.1620855
42	5	2	0.62717825	-4.5734421	-2.4040842	-7.5181938
43	5	6	-0.50375122	-5.5252802	-3.1023613	-7.8223947
44	1	1	-0.027494694	0.99485095	0.1986347	1.2331801
45	1	2	0.27403718	0.91276972	0.42917376	2.6058251
46	1	2	-0.32396039	-0.21677192	0.8891742	3.1601926
47	1	3	0.22336942	-1.0847603	1.0910569	2.5455476
48	1	2	-0.15978797	-0.29024309	1.1290688	4.6163741
49	1	3	0.20830703	-1.2215387	1.5228121	4.9928188
50	1	2	-0.25086999	0.76587324	0.86177068	5.4226743
51	1	4	-0.031257498	0.76476917	1.1267619	6.9466361
52	1	2	-0.25086996	1.4079946	-0.11517107	7.6154301
53	1	2	-0.11622032	0.76882121	-1.3072805	7.5630711
54	1	3	0.20830701	-0.18515962	-1.4081588	7.0668281
55	1	2	-0.41404509	1.3572451	-2.5204592	8.1659638
56	1	3	0.22844377	0.80810091	-3.4533556	8.1294275
57	1	2	0.42343891	2.5582963	-2.4685263	8.7483323
58	1	7	-0.65091252	3.1033604	-3.6175326	9.3160423
59	1	8	0.43319145	4.0132394	-3.6013312	9.7604507
60	1	2	-0.41404506	3.3006902	-1.1936806	8.7769798
61	1	3	0.22844377	4.2860297	-1.1550208	9.2240956
62	1	2	-0.11622038	2.769648	-0.088446607	8.2395413
63	1	3	0.20830703	3.3689424	0.80847185	8.259328
64	1	4	-0.1330172	-0.69226773	1.3365244	7.5042938
65	1	5	0.11059284	-1.1381371	2.2655314	7.0860051
66	1	5	0.11059284	-1.3466277	0.50939636	7.156114
67	1	4	-0.15031288	-0.79914068	1.3937345	9.0448062
68	1	5	0.10746756	-1.7814938	0.96773054	9.344072
69	1	5	0.10746756	-0.036397193	0.75341358	9.5333024
70	1	4	-0.15030429	-0.71771893	2.8154654	9.625079
71	1	5	0.10542722	-0.50669043	2.7312598	10.713859
72	1	5	0.10542722	-1.7115999	3.3030037	9.5269928
73	1	4	-0.15030427	0.33506459	3.7341643	8.9834738
74	1	5	0.10542722	-0.10667687	4.257695	8.1078746
75	1	5	0.10542722	0.58371042	4.5302449	9.7204622
76	1	4	-0.15031287	1.6322747	3.01425	8.5842001
77	1	5	0.10746754	2.4538221	3.7634858	8.6118879
78	1	5	0.10746754	1.8910383	2.2405133	9.3341567
79	1	4	-0.1330172	1.5793664	2.4460682	7.1485058
80	1	5	0.11059284	2.6210789	2.3024876	6.7885439
81	1	5	0.11059284	1.1665862	3.232943	6.4772596
82	1	2	-0.15978795	2.0242859	0.37746293	4.7753154
83	1	3	0.20830706	2.9084106	0.19313104	5.3715596
84	1	2	-0.3239603	2.0865126	0.16882146	3.4556542
85	1	3	0.22336944	3.0064496	-0.18508788	3.0081164
86	2	2	0.46661568	-4.5805425	-1.3452296	-7.7521393
87	2	6	-0.5819658	-3.5933155	-0.66451156	-7.5288662
88	2	9	-0.08775173	-6.0115729	-0.61168825	-8.4520178
89	4	1	-0.027494694	-0.70937753	0.13937356	22.490659
90	4	2	0.27403718	0.092240574	-0.22744608	21.411555
91	4	2	-0.32396039	0.2259015	0.57521253	20.347873
92	4	3	0.22336942	-0.29289411	1.5249993	20.31129
93	4	2	-0.15978797	1.0797967	0.17512635	19.211275
94	4	3	0.20830703	1.1218318	0.85711368	18.377158
95	4	2	-0.25086999	1.7669287	-0.99296392	19.231566
96	4	4	-0.031257498	2.6466145	-1.4870327	18.057725
97	4	2	-0.25086996	3.9569053	-2.0323814	18.681489
98	4	2	-0.160373	4.8094474	-1.1775235	19.297099
99	4	3	0.20830701	4.5928473	-0.12057395	19.357589
100	4	2	-0.27471718	6.0559116	-1.6567453	19.924786
101	4	3	0.2237231	6.7287436	-0.94510632	20.385989
102	4	2	0.43748781	6.3511307	-2.9600618	19.9279
103	4	1	-0.44254774	7.5313719	-3.4016408	20.520153
104	4	2	-0.27471712	5.4185354	-3.9207102	19.307721
105	4	3	0.22372311	5.6408022	-4.9796894	19.332612
106	4	2	-0.16037302	4.2894759	-3.4910495	18.730481
107	4	3	0.20830703	3.6274313	-4.2383502	18.320958
108	4	4	-0.1330172	2.9794685	-0.32831915	17.046302
109	4	5	0.11059284	2.0543886	0.022155569	16.539082
110	4	5	0.11059284	3.3656262	0.55225724	17.603422
111	4	4	-0.15031288	4.0248677	-0.68495458	15.967013
112	4	5	0.10746756	4.599197	0.23273747	15.715971
113	4	5	0.10746756	4.7746744	-1.4105109	16.343171
114	4	4	-0.15030429	3.4156644	-1.2171961	14.658687
115	4	5	0.10542722	4.2247841	-1.7122243	14.0777
116	4	5	0.10542722	3.0626306	-0.35731511	14.048285
117	4	4	-0.15030427	2.2461365	-2.2017304	14.823447
118	4	5	0.10542722	1.2883007	-1.6405051	14.8901
119	4	5	0.10542722	2.181291	-2.8081324	13.893332
120	4	4	-0.15031287	2.3962706	-3.15437	16.019307
121	4	5	0.10746754	1.8307205	-4.0822875	15.783544
122	4	5	0.10746754	3.4556903	-3.4571921	16.141396
123	4	4	-0.1330172	1.7977456	-2.5745705	17.322004
124	4	5	0.11059284	1.5827072	-3.4159442	18.014506
125	4	5	0.11059284	0.79505829	-2.1530727	17.085795
126	4	2	-0.15978795	1.5800577	-1.8850536	20.417514
127	4	3	0.20830706	2.0725197	-2.8477392	20.459496
128	4	2	-0.3239603	0.79905921	-1.5201084	21.440286
129	4	3	0.22336944	0.67920946	-2.178645	22.291134
130	5	2	0.62717825	7.7822241	-4.4202835	20.536164
131	5	6	-0.50375122	8.7753676	-4.7935794	21.136531
132	1	1	-0.027494694	-1.2116091	1.0197164	22.506936
133	1	2	0.27403718	-2.1918225	1.2877717	23.461592
134	1	2	-0.32396039	-2.5081511	0.3818296	24.396468
135	1	3	0.22336942	-2.0052952	-0.57653268	24.421502
136	1	2	-0.15978797	-3.548917	0.67885678	25.402447
137	1	3	0.20830703	-3.7709724	-0.10414071	26.110728
138	1	2	-0.25086999	-4.1807443	1.8777723	25.421043
139	1	4	-0.031257498	-5.303979	2.2351418	26.422698
140	1	2	-0.25086996	-5.013921	3.6735235	26.923044
141	1	2	-0.11622032	-3.9147819	3.9085927	27.677395
142	1	3	0.20830701	-3.2373353	3.1099119	27.94138
143	1	2	-0.41404509	-3.5880416	5.2676598	28.154576
144	1	3	0.22844377	-2.7151667	5.4176731	28.778095
145	1	2	0.42343891	-4.3605309	6.3038698	27.817081
146	1	7	-0.65091252	-4.0452023	7.5810708	28.27417
147	1	8	0.43319145	-4.6155854	8.3810586	28.028561
148	1	2	-0.41404506	-5.5378154	6.0858269	26.954724
149	1	3	0.22844377	-6.1499659	6.9278943	26.657242
150	1	2	-0.11622038	-5.8442858	4.8553332	26.525365
151	1	3	0.20830703	-6.6966283	4.7575499	25.871179
152	1	4	-0.1330172	-5.3373166	1.2433974	27.644692
153	1	5	0.11059284	-5.6155218	0.22082032	27.307413
154	1	5	0.11059284	-4.3176089	1.1479448	28.074392
155	1	4	-0.15031288	-6.2864425	1.6545359	28.792733
156	1	5	0.10746756	-5.8500849	1.3005092	29.752063
157	1	5	0.10746756	-6.360701	2.7570881	28.889074
158	1	4	-0.15030429	-7.6988908	1.0569078	28.680951
159	1	5	0.10542722	-8.3696216	1.6298238	29.358411
160	1	5	0.10542722	-7.6793405	0.011216235	29.056798
161	1	4	-0.15030427	-8.3059892	1.0499483	27.268365
162	1	5	0.10542722	-8.0116832	0.11857122	26.737502
163	1	5	0.10542722	-9.4127278	1.0022168	27.375939
164	1	4	-0.15031287	-7.9486285	2.2859868	26.42875
165	1	5	0.10746754	-8.7687016	2.4404883	25.693447
166	1	5	0.10746754	-7.9267798	3.1924304	27.065888
167	1	4	-0.1330172	-6.6421678	2.1014863	25.625029
168	1	5	0.11059284	-6.6466418	2.8198486	24.77692
169	1	5	0.11059284	-6.673057	1.102342	25.134226
170	1	2	-0.15978795	-3.8306064	2.8600645	24.348786
171	1	3	0.20830706	-4.340052	3.8133294	24.294811
172	1	2	-0.3239603	-2.8924019	2.5824691	23.436853
173	1	3	0.22336944	-2.6522422	3.3091967	22.671336
174	2	2	0.46661568	7.1586742	-5.1405183	20.018089
175	2	6	-0.5819658	6.2165633	-4.7585227	19.344033
176	2	9	-0.08775173	7.5052635	-6.8547121	20.149148
177	4	1	-0.027494694	-0.39228337	0.63581841	44.590293
178	4	2	0.27403718	-0.53908764	-0.7493903	44.62578
179	4	2	-0.32396039	-1.1050218	-1.4089414	43.606831
180	4	3	0.22336942	-1.4606474	-0.87028404	42.737371
181	4	2	-0.15978797	-1.2533247	-2.8774802	43.65642
182	4	3	0.20830703	-1.7407255	-3.3409368	42.813642
183	4	2	-0.25086999	-0.79603229	-3.5899887	44.71482
184	4	4	-0.031257498	-0.9553972	-5.1241226	44.844782
185	4	2	-0.25086996	0.40265106	-5.6717607	45.353847
186	4	2	-0.160373	1.4948556	-5.5953888	44.555196
187	4	3	0.20830701	1.4343701	-5.1619286	43.567183
188	4	2	-0.27471718	2.8119075	-6.0826125	45.008302
189	4	3	0.2237231	3.6595157	-6.0312723	44.336911
190	4	2	0.43748781	2.9592709	-6.580233	46.239746
191	4	1	-0.44254774	4.2056459	-7.0402094	46.656515
192	4	2	-0.27471712	1.7986268	-6.6317552	47.14939
193	4	3	0.22372311	1.9202364	-7.0085023	48.156729
194	4	2	-0.16037302	0.59958263	-6.1976492	46.741426
195	4	3	0.20830703	-0.20751714	-6.2275746	47.457082
196	4	4	-0.1330172	-1.318467	-5.79461	43.468188
197	4	5	0.11059284	-2.3238657	-5.4637492	43.128215
198	4	5	0.11059284	-0.60993715	-5.446006	42.686283
199	4	4	-0.15031288	-1.283932	-7.3385378	43.4655
200	4	5	0.10746756	-0.97353196	-7.682229	42.455271
201	4	5	0.10746756	-0.51736617	-7.7349436	44.16219
202	4	4	-0.15030429	-2.6400538	-7.9944539	43.776682
203	4	5	0.10542722	-2.4558053	-9.0591395	44.040823
204	4	5	0.10542722	-3.2610856	-7.9957773	42.854219
205	4	4	-0.15030427	-3.4535134	-7.3349616	44.90256
206	4	5	0.10542722	-4.0879394	-6.5236349	44.482895
207	4	5	0.10542722	-4.1572714	-8.0977667	45.302428
208	4	4	-0.15031287	-2.5971962	-6.8035631	46.062078
209	4	5	0.10746754	-3.2268482	-6.8154594	46.978516
210	4	5	0.10746754	-1.7466884	-7.4868216	46.258982
211	4	4	-0.1330172	-2.1382806	-5.3430693	45.843507
212	4	5	0.11059284	-1.8828696	-4.9037266	46.831158
213	4	5	0.11059284	-3.0162083	-4.7509472	45.500766
214	4	2	-0.15978795	-0.19296869	-2.828973	45.852531
215	4	3	0.20830706	0.14599434	-3.3494062	46.738702
216	4	2	-0.3239603	-0.068600744	-1.4980183	45.80459
217	4	3	0.22336944	0.3735655	-0.96575394	46.637153
218	5	2	0.62717825	4.3448176	-7.4327315	47.619517
219	5	6	-0.50375122	5.4616511	-7.7474009	47.993404
220	1	1	-0.027494694	-0.70423842	1.1850146	43.797468
221	1	2	0.27403718	-0.7786743	2.5762351	43.852284
222	1	2	-0.32396039	-0.44016908	3.2403197	44.965474
223	1	3	0.22336942	-0.10457115	2.7019393	45.842669
224	1	2	-0.15978797	-0.52361159	4.7149266	45.010015
225	1	3	0.20830703	-0.25956243	5.1838202	45.945147
226	1	2	-0.25086999	-0.91214642	5.4258794	43.92349
227	1	4	-0.031257498	-1.0562541	6.965972	43.918107
228	1	2	-0.25086996	-0.42538239	7.4680134	42.593955
229	1	2	-0.11622032	0.90739572	7.335567	42.397564
230	1	3	0.20830701	1.5411991	6.8897836	43.149949
231	1	2	-0.41404509	1.5455221	7.7783001	41.141257
232	1	3	0.22844377	2.6182011	7.681993	41.026041
233	1	2	0.42343891	0.80553613	8.2899511	40.153832
234	1	7	-0.65091252	1.4171395	8.7067285	38.974068
235	1	8	0.43319145	0.87512679	9.0952369	38.211884
236	1	2	-0.41404506	-0.656411	8.4009039	40.319968
237	1	3	0.22844377	-1.2616847	8.789818	39.510838
238	1	2	-0.11622038	-1.2402741	8.0089935	41.459221
239	1	3	0.20830703	-2.3152472	8.0820772	41.514894
240	1	4	-0.1330172	-0.32082928	7.628019	45.142355
241	1	5	0.11059284	-0.81044117	7.3317976	46.095954
242	1	5	0.11059284	0.71743487	7.2390167	45.207483
243	1	4	-0.15031288	-0.23491767	9.1701915	45.095489
244	1	5	0.10746756	0.70965764	9.4838444	45.590924
245	1	5	0.10746756	-0.16325575	9.5459156	44.054281
246	1	4	-0.15030429	-1.391456	9.883253	45.815647
247	1	5	0.10542722	-1.4041668	10.943627	45.480222
248	1	5	0.10542722	-1.1850707	9.8939218	46.90762
249	1	4	-0.15030427	-2.7859307	9.274432	45.59475
250	1	5	0.10542722	-2.9748898	8.4833681	46.352646
251	1	5	0.10542722	-3.5379756	10.070818	45.792027
252	1	4	-0.15031287	-3.011671	8.7284605	44.176509
253	1	5	0.10746754	-4.1026071	8.7813703	43.966462
254	1	5	0.10746754	-2.5185431	9.3807741	43.428596
255	1	4	-0.1330172	-2.5896045	7.2490762	44.034629
256	1	5	0.11059284	-3.1188028	6.8148547	43.158984
257	1	5	0.11059284	-2.9969354	6.6854736	44.904436
258	1	2	-0.15978795	-1.3130146	4.6592932	42.703293
259	1	3	0.20830706	-1.6731234	5.180179	41.825704
260	1	2	-0.3239603	-1.2417503	3.3240677	42.671618
261	1	3	0.22336944	-1.5337846	2.7892104	41.776928
262	2	2	0.46661568	3.4952998	-7.5592091	48.281542
263	2	6	-0.5819658	2.367601	-7.3287877	47.877752
264	2	9	-0.08775173	3.7429915	-8.0955681	49.932823
265	4	1	-0.027494694	0.29472279	-0.032622683	67.591124
266	4	2	0.27403718	0.44507721	-0.5386709	66.30158
267	4	2	-0.32396039	0.26838476	-1.8416418	66.047429
268	4	3	0.22336942	0.0071562153	-2.5238635	66.846751
269	4	2	-0.15978797	0.4293911	-2.3649321	64.675823
270	4	3	0.20830703	0.29768695	-3.4273584	64.547257
271	4	2	-0.25086999	0.72871942	-1.5386196	63.644025
272	4	4	-0.031257498	0.94860716	-2.0294855	62.192628
273	4	2	-0.25086996	0.19859128	-1.0366595	61.2679
274	4	2	-0.160373	-1.1543724	-0.97364854	61.313779
275	4	3	0.20830701	-1.7200558	-1.6068237	61.982216
276	4	2	-0.27471718	-1.9071865	-0.026944292	60.468593
277	4	3	0.2237231	-2.9889002	-0.019141937	60.509527
278	4	2	0.43748781	-1.2591826	0.81783873	59.660985
279	4	1	-0.44254774	-1.9790222	1.7051163	58.865187
280	4	2	-0.27471712	0.21586778	0.80597054	59.625119
281	4	3	0.22372311	0.74482374	1.5074203	58.992954
282	4	2	-0.16037302	0.90411929	-0.055571136	60.384491
283	4	3	0.20830703	1.9810423	0.00014989984	60.344467
284	4	4	-0.1330172	0.39178353	-3.4851966	61.975284
285	4	5	0.11059284	0.97048956	-4.2167254	62.580132
286	4	5	0.11059284	-0.6513689	-3.5448096	62.353694
287	4	4	-0.15031288	0.3773296	-3.9655919	60.507658
288	4	5	0.10746756	-0.48676536	-4.6506781	60.369703
289	4	5	0.10746756	0.20720843	-3.127617	59.801263
290	4	4	-0.15030429	1.6428486	-4.7332177	60.088924
291	4	5	0.10542722	1.6706163	-4.7725643	58.977639
292	4	5	0.10542722	1.5628921	-5.7836375	60.445076
293	4	4	-0.15030427	2.9713156	-4.1522125	60.600644
294	4	5	0.10542722	3.2043785	-4.572505	61.603591
295	4	5	0.10542722	3.778989	-4.5089008	59.924273
296	4	4	-0.15031287	3.0072992	-2.6168295	60.638715
297	4	5	0.10746754	4.0681818	-2.3021745	60.529251
298	4	5	0.10746754	2.4655819	-2.1959684	59.767856
299	4	4	-0.1330172	2.497656	-2.0417987	61.980736
300	4	5	0.11059284	2.9015393	-1.0138011	62.098249
301	4	5	0.11059284	2.9718773	-2.6169494	62.807267
302	4	2	-0.15978795	0.94847273	-0.092603232	63.957013
303	4	3	0.20830706	1.2329524	0.5982979	63.174215
304	4	2	-0.3239603	0.80860558	0.37358488	65.202931
305	4	3	0.22336944	0.96897792	1.4243032	65.408478
306	5	2	0.62717825	-1.4910839	2.3785661	58.225501
307	5	6	-0.50375122	-2.1367477	3.2054276	57.60458
308	1	1	-0.027494694	0.046275729	-0.62881791	68.37236
309	1	2	0.27403718	0.12570716	-0.18198261	69.690719
310	1	2	-0.32396039	0.53949977	1.0606426	69.97258
311	1	3	0.22336942	0.8212604	1.7370888	69.175724
312	1	2	-0.15978797	0.61890745	1.5214891	71.374268
313	1	3	0.20830703	0.98333037	2.5248223	71.53103
314	1	2	-0.25086999	0.24812599	0.71363537	72.397421
315	1	4	-0.031257498	0.34389268	1.123072	73.886002
316	1	2	-0.25086996	-0.97393383	0.66284469	74.560499
317	1	2	-0.11622032	-2.1429447	1.2481139	74.209383
318	1	3	0.20830701	-2.1737528	2.0345746	73.469759
319	1	2	-0.41404509	-3.424093	0.8236297	74.80938
320	1	3	0.22844377	-4.3386385	1.330007	74.525869
321	1	2	0.42343891	-3.4552506	-0.17884163	75.691681
322	1	7	-0.65091252	-4.6680783	-0.56995208	76.253541
323	1	8	0.43319145	-4.7150351	-1.3288671	76.922483
324	1	2	-0.41404506	-2.2030166	-0.86873165	76.056596
325	1	3	0.22844377	-2.229128	-1.6993523	76.750634
326	1	2	-0.11622038	-1.037238	-0.48372585	75.52263
327	1	3	0.20830703	-0.15738756	-1.0434082	75.799446
328	1	4	-0.1330172	0.51373888	2.6787108	74.056528
329	1	5	0.11059284	1.4899495	3.0107292	73.63988
330	1	5	0.11059284	-0.25977878	3.2052876	73.458243
331	1	4	-0.15031288	0.40283865	3.1915408	75.509999
332	1	5	0.10746756	-0.03812912	4.2119146	75.488985
333	1	5	0.10746756	-0.29913288	2.5768087	76.109797
334	1	4	-0.15030429	1.7506854	3.2873781	76.244022
335	1	5	0.10542722	1.5439698	3.3718021	77.333612
336	1	5	0.10542722	2.2614862	4.2263993	75.93999
337	1	4	-0.15030427	2.7178511	2.1152472	76.010104
338	1	5	0.10542722	3.3413243	2.3160939	75.111864
339	1	5	0.10542722	3.4240772	2.0825638	76.869695
340	1	4	-0.15031287	2.0260826	0.74845748	75.892664
341	1	5	0.10746754	2.7548309	-0.025486885	76.219768
342	1	5	0.10746754	1.1706218	0.68707858	76.594434
343	1	4	-0.1330172	1.620136	0.41019982	74.440894
344	1	5	0.11059284	1.500794	-0.6916331	74.356783
345	1	5	0.11059284	2.4823979	0.64113595	73.775083
346	1	2	-0.15978795	-0.18160531	-0.6782574	72.058017
347	1	3	0.20830706	-0.44415154	-1.374894	72.843465
348	1	2	-0.3239603	-0.24479222	-1.0915739	70.78755
349	1	3	0.22336944	-0.5616319	-2.1022637	70.564067
350	2	2	0.46661568	-0.41294219	2.3383998	58.11618
351	2	6	-0.5819658	0.22361986	1.4556875	58.667045
352	2	9	-0.08775173	0.41533733	3.5425761	57.146812
353	4	1	-0.027494694	-0.17624376	0.29569042	89.87022
354	4	2	0.27403718	0.19015339	0.64211952	88.571238
355	4	2	-0.32396039	1.3502775	1.2642004	88.324918
356	4	3	0.22336942	2.0219773	1.5100313	89.137918
357	4	2	-0.15978797	1.727347	1.6246041	86.943257
358	4	3	0.20830703	2.662861	2.1463775	86.820005
359	4	2	-0.25086999	0.92643576	1.3094387	85.896257
360	4	4	-0.031257498	1.2455082	1.6928524	84.430979
361	4	2	-0.25086996	0.93245769	0.44530363	83.565548
362	4	2	-0.160373	1.6867046	-0.67168398	83.707097
363	4	3	0.20830701	2.5056687	-0.70637331	84.411236
364	4	2	-0.27471718	1.4092114	-1.8892213	82.92102
365	4	3	0.2237231	2.0462198	-2.7565827	83.038261
366	4	2	0.43748781	0.37689663	-1.9233265	82.073104
367	4	1	-0.44254774	0.12547873	-3.0760745	81.333722
368	4	2	-0.27471712	-0.49153468	-0.73865983	81.933129
369	4	3	0.22372311	-1.3447678	-0.77198975	81.268042
370	4	2	-0.16037302	-0.24050565	0.37129983	82.638512
371	4	3	0.20830703	-0.92563493	1.1969346	82.522774
372	4	4	-0.1330172	2.7532999	2.104338	84.247594
373	4	5	0.11059284	2.9713897	3.039894	84.807102
374	4	5	0.11059284	3.4082414	1.328015	84.698471
375	4	4	-0.15031288	3.2043095	2.2931202	82.782717
376	4	5	0.10746756	4.2742002	2.0031746	82.703342
377	4	5	0.10746756	2.6612351	1.6147498	82.0935
378	4	4	-0.15030429	3.0817639	3.7390982	82.272565
379	4	5	0.10542722	3.1400367	3.7192021	81.161942
380	4	5	0.10542722	3.9579256	4.3237023	82.629212
381	4	4	-0.15030427	1.8039511	4.4846775	82.691558
382	4	5	0.10542722	1.9630028	4.9813702	83.673833
383	4	5	0.10542722	1.6348371	5.3037807	81.958406
384	4	4	-0.15031287	0.54974566	3.5984618	82.733215
385	4	5	0.10746754	-0.33076444	4.2524804	82.550394
386	4	5	0.10746754	0.56909765	2.8623767	81.904493
387	4	4	-0.1330172	0.34017435	2.9265738	84.110192
388	4	5	0.11059284	-0.72955833	2.642395	84.20306
389	4	5	0.11059284	0.48651563	3.6982339	84.898838
390	4	2	-0.15978795	-0.3763626	0.63981425	86.198806
391	4	3	0.20830706	-1.0695273	0.4083693	85.400682
392	4	2	-0.3239603	-0.71534786	0.32300942	87.453369
393	4	3	0.22336944	-1.6615609	-0.16429685	87.651337
394	5	2	0.62717825	-0.68055497	-3.1259255	80.663916
395	5	6	-0.50375122	-0.93455264	-4.172933	80.09349
396	1	1	-0.027494694	0.41955338	0.49928331	90.664626
397	1	2	0.27403718	-0.037467027	0.37370411	91.975885
398	1	2	-0.32396039	-1.2916234	-0.021065627	92.232861
399	1	3	0.22336942	-1.9710278	-0.24687981	91.420847
400	1	2	-0.15978797	-1.7631105	-0.15011446	93.6273
401	1	3	0.20830703	-2.7910682	-0.44880048	93.762005
402	1	2	-0.25086999	-0.9340688	0.096367599	94.670797
403	1	4	-0.031257498	-1.3774647	0.016244587	96.150547
404	1	2	-0.25086996	-0.24904173	-0.72294444	96.914539
405	1	2	-0.11622032	-0.0078138557	-2.0282497	96.649216
406	1	3	0.20830701	-0.59133438	-2.5663895	95.916807
407	1	2	-0.41404509	1.072981	-2.7638562	97.33645
408	1	3	0.22844377	1.2231437	-3.8145273	97.120276
409	1	2	0.42343891	1.8611119	-2.1378055	98.214678
410	1	7	-0.65091252	2.8758993	-2.8409608	98.859181
411	1	8	0.43319145	3.4864416	-2.3856435	99.526688
412	1	2	-0.41404506	1.6536323	-0.7026259	98.487465
413	1	3	0.22844377	2.3082734	-0.18631845	99.178242
414	1	2	-0.11622038	0.67070236	-0.031805142	97.874084
415	1	3	0.20830703	0.58423062	1.0225674	98.085813
416	1	4	-0.1330172	-2.7328733	-0.76719332	96.314959
417	1	5	0.11059284	-3.5648692	-0.2094012	95.831772
418	1	5	0.11059284	-2.6707252	-1.7357265	95.774924
419	1	4	-0.15031288	-3.1346127	-1.0764415	97.7747
420	1	5	0.10746756	-3.6891829	-2.039927	97.789011
421	1	5	0.10746756	-2.2465184	-1.2351998	98.42007
422	1	4	-0.15030429	-4.0435637	-0.012397912	98.412105
423	1	5	0.10542722	-4.0304617	-0.16382836	99.513904
424	1	5	0.10542722	-5.0892671	-0.18280071	98.076573
425	1	4	-0.15030427	-3.6710587	1.4475313	98.105732
426	1	5	0.10542722	-4.1688277	1.7731458	97.166532
427	1	5	0.10542722	-4.0993349	2.0826213	98.913173
428	1	4	-0.15031287	-2.1580192	1.7038692	98.03189
429	1	5	0.10746754	-1.9845468	2.7683652	98.303582
430	1	5	0.10746754	-1.6261448	1.0978013	98.792057
431	1	4	-0.1330172	-1.5882249	1.4955718	96.611047
432	1	5	0.11059284	-0.63021014	2.0533982	96.531107
433	1	5	0.11059284	-2.2615273	2.0079081	95.886957
434	1	2	-0.15978795	0.45153236	0.56416566	94.356943
435	1	3	0.20830706	1.1361178	0.81673513	95.156138
436	1	2	-0.3239603	0.870124	0.68553991	93.092443
437	1	3	0.22336944	1.8782128	1.022737	92.887794
438	2	2	0.46661568	-1.2868173	-2.2461241	80.47858
439	2	6	-0.5819658	-0.97987723	-1.1771665	80.979541
440	2	9	-0.08775173	-2.7085125	-2.3603038	79.458037
441	4	1	-0.027494694	0.039015473	22.809175	-0.54710976
442	4	2	0.27403718	-0.25796422	21.469388	-0.30547611
443	4	2	-0.32396039	0.49758863	20.491788	-0.8221822
444	4	3	0.22336942	1.353396	20.731497	-1.4408223
445	4	2	-0.15978797	0.17271026	19.075704	-0.55719213
446	4	3	0.20830703	0.80744899	18.340356	-1.0251607
447	4	2	-0.25086999	-0.87360469	18.735816	0.23445039
448	4	4	-0.031257498	-1.2892655	17.272254	0.51917391
449	4	2	-0.25086996	-1.5933588	17.182463	2.0366764
450	4	2	-0.160373	-0.58632056	17.340102	2.9297664
451	4	3	0.20830701	0.42670114	17.524076	2.6016538
452	4	2	-0.27471718	-0.83472629	17.285877	4.3832695
453	4	3	0.2237231	-0.0047945052	17.389597	5.0705078
454	4	2	0.43748781	-2.0754084	17.11393	4.8490377
455	4	1	-0.44254774	-2.2987074	17.061072	6.2223798
456	4	2	-0.27471712	-3.1993388	16.987616	3.9013953
457	4	3	0.22372311	-4.2089248	16.875941	4.2751919
458	4	2	-0.16037302	-2.9791594	17.028991	2.5813957
459	4	3	0.20830703	-3.8398621	16.96463	1.9336932
460	4	4	-0.1330172	-0.14907408	16.255085	0.14272257
461	4	5	0.11059284	0.027951318	16.258825	-0.95478599
462	4	5	0.11059284	0.80879486	16.584021	0.60010981
463	4	4	-0.15031288	-0.3986849	14.799342	0.59374484
464	4	5	0.10746756	0.58135894	14.329282	0.82524512
465	4	5	0.10746756	-0.97967926	14.754018	1.5374229
466	4	4	-0.15030429	-1.087201	13.925399	-0.46846697
467	4	5	0.10542722	-1.4828769	13.016532	0.036187864
468	4	5	0.10542722	-0.32544427	13.579442	-1.2010377
469	4	4	-0.15030427	-2.2289616	14.601227	-1.2455688
470	4	5	0.10542722	-1.8182717	15.130523	-2.1332883
471	4	5	0.10542722	-2.8870534	13.798635	-1.6453213
472	4	4	-0.15031287	-3.0819765	15.555975	-0.39647143
473	4	5	0.10746754	-4.0968262	15.593681	-0.84937372
474	4	5	0.10746754	-3.2120266	15.150992	0.62727288
475	4	4	-0.1330172	-2.5317692	17.001193	-0.39039307
476	4	5	0.11059284	-3.3578558	17.690249	-0.11381947
477	4	5	0.11059284	-2.2820372	17.281962	-1.438076
478	4	2	-0.15978795	-1.7190068	19.843878	0.77732244
479	4	3	0.20830706	-2.5912855	19.621115	1.3777818
480	4	2	-0.3239603	-1.423735	21.124283	0.52715542
481	4	3	0.22336944	-2.0463534	21.911999	0.93191211
482	5	2	0.62717825	-3.2645893	16.92904	6.6102662
483	5	6	-0.50375122	-3.4487248	16.974177	7.8145011
484	1	1	-0.027494694	0.83166486	23.085643	-1.1152446
485	1	2	0.27403718	0.99717849	24.398478	-1.5546869
486	1	2	-0.32396039	0.10484343	25.347115	-1.2406574
487	1	3	0.22336942	-0.762485	25.104619	-0.63991957
488	1	2	-0.15978797	0.29242047	26.73465	-1.7128582
489	1	3	0.20830703	-0.47629287	27.442446	-1.4442302
490	1	2	-0.25086999	1.3797028	27.083198	-2.4431193
491	1	4	-0.031257498	1.6139633	28.507775	-2.9984441
492	1	2	-0.25086996	3.1044949	28.847167	-2.7404713
493	1	2	-0.11622032	3.545141	28.993128	-1.4688836
494	1	3	0.20830701	2.8749054	28.881736	-0.62930682
495	1	2	-0.41404509	4.9617856	29.292617	-1.1774232
496	1	3	0.22844377	5.2768513	29.429068	-0.15014286
497	1	2	0.42343891	5.8479156	29.390862	-2.1721572
498	1	7	-0.65091252	7.1809553	29.675979	-1.8869929
499	1	8	0.43319145	7.8698585	29.752587	-2.625359
500	1	2	-0.41404506	5.4063223	29.187612	-3.5653139
501	1	3	0.22844377	6.1275751	29.23961	-4.3711623
502	1	2	-0.11622038	4.1222122	28.923877	-3.8371464
503	1	3	0.20830703	3.860187	28.752063	-4.8695372
504	1	4	-0.1330172	0.69566608	29.571818	-2.2895852
505	1	5	0.11059284	-0.37402367	29.381011	-2.5265992
506	1	5	0.11059284	0.78062536	29.461566	-1.1876852
507	1	4	-0.15031288	1.0174807	31.043588	-2.6333893
508	1	5	0.10746756	0.78631664	31.669836	-1.7443261
509	1	5	0.10746756	2.0992165	31.192503	-2.8285534
510	1	4	-0.15030429	0.2055001	31.602117	-3.8138121
511	1	5	0.10542722	0.70438771	32.53194	-4.165388
512	1	5	0.10542722	-0.80322792	31.895795	-3.4514105
513	1	4	-0.15030427	0.030049917	30.649282	-5.0076889
514	1	5	0.10542722	-0.87234405	30.018141	-4.8552438
515	1	5	0.10542722	-0.18076202	31.269488	-5.9074799
516	1	4	-0.15031287	1.2594921	29.773493	-5.2938963
517	1	5	0.10746754	1.2470092	29.52162	-6.3771624
518	1	5	0.10746754	2.1913838	30.346884	-5.1182183
519	1	4	-0.1330172	1.2344638	28.440199	-4.5137998
520	1	5	0.11059284	1.8972249	27.715647	-5.0344959
521	1	5	0.11059284	0.21754864	27.997315	-4.613135
522	1	2	-0.15978795	2.3451994	25.999706	-2.805183
523	1	3	0.20830706	3.2049396	26.219766	-3.4245231
524	1	2	-0.3239603	2.1661265	24.744174	-2.3803502
525	1	3	0.22336944	2.8790234	23.975975	-2.6514099
526	2	2	0.46661568	-4.0985011	16.751642	5.9401356
527	2	6	-0.5819658	-3.9019115	16.617665	4.7437879
528	2	9	-0.08775173	-5.7299032	16.656943	6.5767832
529	4	1	-0.027494694	-0.37020571	22.541448	21.69858
530	4	2	0.27403718	-0.41663234	21.588001	22.713664
531	4	2	-0.32396039	-0.31566534	20.281476	22.437356
532	4	3	0.22336942	-0.1984607	19.9467	21.414238
533	4	2	-0.15978797	-0.36494761	19.281218	23.522765
534	4	3	0.20830703	-0.3035504	18.246185	23.226858
535	4	2	-0.25086999	-0.48297039	19.661975	24.818177
536	4	4	-0.031257498	-0.57925186	18.663166	25.99672
537	4	2	-0.25086996	0.3436649	19.206226	27.117728
538	4	2	-0.160373	1.6840678	19.240233	26.920879
539	4	3	0.20830701	2.1212059	18.891651	25.996153
540	4	2	-0.27471718	2.5973701	19.770815	27.951257
541	4	3	0.2237231	3.665235	19.760265	27.774073
542	4	2	0.43748781	2.110602	20.264627	29.093625
543	4	1	-0.44254774	2.9811286	20.76007	30.060809
544	4	2	-0.27471712	0.65213944	20.285465	29.316456
545	4	3	0.22372311	0.2527423	20.709818	30.228522
546	4	2	-0.16037302	-0.18105533	19.79899	28.388168
547	4	3	0.20830703	-1.239295	19.868459	28.587599
548	4	4	-0.1330172	-0.11767988	17.217734	25.579513
549	4	5	0.11059284	-0.81510514	16.789315	24.827228
550	4	5	0.11059284	0.86947759	17.274365	25.072336
551	4	4	-0.15031288	0.020835901	16.215214	26.745995
552	4	5	0.10746756	0.83850147	15.502855	26.50309
553	4	5	0.10746756	0.332975	16.716009	27.685096
554	4	4	-0.15030429	-1.2470365	15.385413	27.010676