Title

92 atoms
101 bonds
166 angles
263 dihedrals
150 impropers

8 atom types
11 bond types
6 angle types
8 dihedral types
2 improper types
-5.274000168 94.72599983 xlo xhi
-13.13099957 86.86900043 ylo yhi
-4.77699995 95.22300005 zlo zhi
0.0 0.0 0.0 xy xz yz

Masses

1	15.99943
2	12.01078
3	1.007947
4	12.01078
5	15.99943
6	15.99943
7	1.007947
8	35.4532


Pair Coeffs

1	0.16846514	3.0251065
2	0.086879315	3.4806469
3	0.015611343	2.5725815
4	0.10884061	3.3795318
5	0.2102061	3.0398122
6	0.20947353	2.99716
7	1.2326e-05	0.53453923
8	0.2656001	3.3075278

Bond Coeffs

1 harmonic	425.69104206635	1.362945806494
2 harmonic	300.03137914615	1.451203938761
3 harmonic	360.7852444772	1.387193227181
4 harmonic	397.2545789619	1.085358495916
5 harmonic	289.73813263395	1.498646816465
6 harmonic	301.15400723785	1.345741232799
7 harmonic	279.1350963404	1.454628925034
8 harmonic	582.698766451	1.225198386222
9 harmonic	385.7604595587	1.369745182308
10 harmonic	543.5267831885	0.9716763312559
11 harmonic	218.0227703685	1.746066037062


Angle Coeffs

1 harmonic	57.8982893754	126.8062420451
2 harmonic	65.09061609600001	110.3538806181
3 harmonic	34.066775159195	129.1835929926
4 harmonic	53.20531626545	116.5475862634
5 harmonic	14.32262199324	138.3184368373
6 harmonic	201.41175231035	127.4691416191


Dihedral Coeffs

1 fourier 1	3.661930099076	2	180
2 fourier 1	1.532232714475	2	180
3 fourier 1	0.457973137376	1	0
4 fourier 1	0.02664938770063	3	0
5 fourier 1	2.779853741805	2	180
6 fourier 1	0.9974165607242	2	180
7 fourier 1	1.163235555439	2	180
8 fourier 1	0.8283030590042	2	180


Improper Coeffs

1 0.3666666666666667	-1	2
2 3.5	-1	2


Atoms

1	1	1	-0.032207001	3.165	-3.6010001	3.197
2	1	2	0.272616	2.4070001	-2.7260001	2.4219999
3	1	2	-0.33685899	2.997	-1.831	1.617
4	1	3	0.223483	4.0760002	-1.777	1.5549999
5	1	2	-0.132765	2.178	-0.91100001	0.80299997
6	1	3	0.20601299	2.6900001	-0.226	0.139
7	1	2	-0.114736	0.829	-0.92199999	0.884
8	1	4	0.20874199	-0.014	-0.0049999999	-0.014
9	1	2	-0.114736	0.56599998	1.41	-0.16500001
10	1	2	-0.133937	0.41100001	2.1300001	-1.3
11	1	3	0.20601299	-0.097000003	1.723	-2.1630001
12	1	2	-0.29666901	0.92199999	3.513	-1.395
13	1	3	0.222763	0.81199998	4.0549998	-2.326
14	1	2	0.43290499	1.51	4.0900002	-0.338
15	1	1	-0.44408	1.997	5.3940001	-0.414
16	1	2	-0.29666901	1.638	3.3399999	0.92500001
17	1	3	0.222763	2.0910001	3.813	1.7869999
18	1	2	-0.133937	1.187	2.0840001	1.012
19	1	3	0.20601299	1.275	1.562	1.957
20	1	2	-0.058525	-0.23199999	-0.71499997	-1.345
21	1	2	-0.061158001	0.69400001	-1.082	-2.244
22	1	3	0.20257901	1.744	-0.88300002	-2.0769999
23	1	2	-0.28270501	0.25099999	-1.761	-3.4879999
24	1	3	0.21079201	0.98699999	-2.0650001	-4.2220001
25	1	2	-0.244444	-1.057	-1.997	-3.7079999
26	1	3	0.204881	-1.372	-2.4909999	-4.618
27	1	2	-0.19795901	-2.072	-1.58	-2.71
28	1	3	0.193326	-3.1240001	-1.762	-2.8870001
29	1	2	-0.015303	-1.647	-0.97299999	-1.598
30	1	2	-0.015303	-2.3989999	-0.456	-0.47799999
31	1	2	-0.19795901	-3.717	-0.461	-0.25299999
32	1	3	0.193326	-4.408	-0.89499998	-0.96399999
33	1	2	-0.244444	-4.2119999	0.145	1.007
34	1	3	0.204881	-5.2740002	0.155	1.215
35	1	2	-0.28270501	-3.3469999	0.68000001	1.891
36	1	3	0.21079201	-3.7149999	1.119	2.809
37	1	2	-0.061158001	-1.888	0.67000002	1.615
38	1	3	0.20257901	-1.197	1.09	2.3329999
39	1	2	-0.058525	-1.451	0.123	0.47099999
40	1	2	-0.132765	0.189	-1.954	1.7539999
41	1	3	0.20601299	-0.88800001	-2.049	1.802
42	1	2	-0.33685899	0.935	-2.793	2.483
43	1	3	0.223483	0.45699999	-3.5339999	3.1110001
44	1	2	0.62619197	1.923	5.961	-1.293
45	1	5	-0.51033503	2.9319999	6.3769999	-1.837
46	1	1	-0.032207001	4.1789999	-3.5869999	3.181
47	1	2	0.272616	4.9109998	-4.4619999	2.381
48	1	2	-0.33685899	4.296	-5.3569999	1.596
49	1	3	0.223483	3.2149999	-5.4109998	1.568
50	1	2	-0.132765	5.0879998	-6.277	0.75599998
51	1	3	0.20601299	4.5549998	-6.9619999	0.109
52	1	2	-0.114736	6.4390001	-6.2659998	0.79400003
53	1	4	0.20874199	7.2529998	-7.1830001	-0.131
54	1	2	-0.114736	6.6680002	-8.599	-0.264
55	1	2	-0.086659998	6.7859998	-9.3190002	-1.403
56	1	3	0.20601299	7.2659998	-8.9110003	-2.2820001
57	1	2	-0.43452299	6.2719998	-10.701	-1.482
58	1	3	0.22854599	6.3530002	-11.244	-2.415
59	1	2	0.426175	5.7189999	-11.279	-0.40599999
60	1	6	-0.65255898	5.23	-12.583	-0.46599999
61	1	7	0.43103901	5.2740002	-13.131	-1.317
62	1	2	-0.43452299	5.631	-10.529	0.861
63	1	3	0.22854599	5.2069998	-11.002	1.737
64	1	2	-0.086659998	6.085	-9.2729998	0.93300003
65	1	3	0.20601299	6.0279999	-8.7510004	1.88
66	1	2	-0.058525	7.427	-6.474	-1.4680001
67	1	2	-0.061158001	6.473	-6.1069999	-2.3369999
68	1	3	0.20257901	5.4289999	-6.3049998	-2.1359999
69	1	2	-0.28270501	6.875	-5.428	-3.595
70	1	3	0.21079201	6.1170001	-5.1240001	-4.3039999
71	1	2	-0.244444	8.1750002	-5.191	-3.8570001
72	1	3	0.204881	8.4610004	-4.697	-4.777
73	1	2	-0.19795901	9.2229996	-5.6079998	-2.8929999
74	1	3	0.193326	10.268	-5.4260001	-3.1029999
75	1	2	-0.015303	8.8330002	-6.2150002	-1.767
76	1	2	-0.015303	9.6219997	-6.7329998	-0.671
77	1	2	-0.19795901	10.946	-6.7270002	-0.49000001
78	1	3	0.193326	11.614	-6.2940001	-1.222
79	1	2	-0.244444	11.482	-7.3340001	0.75400001
80	1	3	0.204881	12.55	-7.3439999	0.92699999
81	1	2	-0.28270501	10.646	-7.869	1.665
82	1	3	0.21079201	11.043	-8.3079996	2.5710001
83	1	2	-0.061158001	9.1780005	-7.8590002	1.437
84	1	3	0.20257901	8.5100002	-8.2790003	2.1760001
85	1	2	-0.058525	8.7049999	-7.3109999	0.30700001
86	1	2	-0.132765	7.1069999	-5.2350001	1.643
87	1	3	0.20601299	8.184	-5.1399999	1.656
88	1	2	-0.33685899	6.3850002	-4.3959999	2.395
89	1	3	0.223483	6.8829999	-3.655	3.007
90	1	2	0.46578601	0.949	6.178	-1.7180001
91	1	5	-0.59095699	-0.054000001	5.6890001	-1.226
92	1	8	-0.092045002	0.81699997	7.2309999	-3.1140001

Bonds

1	1	1	2
2	2	1	46
3	3	2	3
4	3	2	42
5	4	3	4
6	3	3	5
7	4	5	6
8	3	5	7
9	5	7	8
10	3	7	40
11	5	8	9
12	5	8	20
13	5	8	39
14	3	9	10
15	3	9	18
16	4	10	11
17	3	10	12
18	4	12	13
19	3	12	14
20	1	14	15
21	3	14	16
22	6	15	44
23	4	16	17
24	3	16	18
25	4	18	19
26	3	20	21
27	3	20	29
28	4	21	22
29	3	21	23
30	4	23	24
31	3	23	25
32	4	25	26
33	3	25	27
34	4	27	28
35	3	27	29
36	7	29	30
37	3	30	31
38	3	30	39
39	4	31	32
40	3	31	33
41	4	33	34
42	3	33	35
43	4	35	36
44	3	35	37
45	4	37	38
46	3	37	39
47	4	40	41
48	3	40	42
49	4	42	43
50	8	44	45
51	7	44	90
52	1	46	47
53	3	47	48
54	3	47	88
55	4	48	49
56	3	48	50
57	4	50	51
58	3	50	52
59	5	52	53
60	3	52	86
61	5	53	54
62	5	53	66
63	5	53	85
64	3	54	55
65	3	54	64
66	4	55	56
67	3	55	57
68	4	57	58
69	3	57	59
70	9	59	60
71	3	59	62
72	10	60	61
73	4	62	63
74	3	62	64
75	4	64	65
76	3	66	67
77	3	66	75
78	4	67	68
79	3	67	69
80	4	69	70
81	3	69	71
82	4	71	72
83	3	71	73
84	4	73	74
85	3	73	75
86	7	75	76
87	3	76	77
88	3	76	85
89	4	77	78
90	3	77	79
91	4	79	80
92	3	79	81
93	4	81	82
94	3	81	83
95	4	83	84
96	3	83	85
97	4	86	87
98	3	86	88
99	4	88	89
100	8	90	91
101	11	90	92

Angles

1	1	47	48	50
2	3	66	67	68
3	1	3	2	42
4	1	25	27	29
5	1	59	62	64
6	3	7	40	41
7	1	53	54	55
8	1	8	20	29
9	3	69	71	72
10	4	54	53	66
11	3	3	5	6
12	1	20	29	27
13	1	46	47	88
14	1	45	44	90
15	3	35	37	38
16	1	54	55	57
17	3	28	27	29
18	1	60	59	62
19	1	12	14	15
20	1	57	59	62
21	5	53	66	67
22	1	79	81	83
23	1	29	30	31
24	1	66	67	69
25	3	71	73	74
26	1	21	23	25
27	3	33	35	36
28	3	72	71	73
29	3	4	3	5
30	2	1	46	47
31	4	20	8	39
32	1	3	5	7
33	3	76	77	78
34	1	53	85	76
35	3	2	42	43
36	1	35	37	39
37	1	23	25	27
38	1	12	14	16
39	1	54	64	62
40	3	87	86	88
41	3	54	64	65
42	1	31	30	39
43	3	49	48	50
44	3	52	86	87
45	1	66	75	76
46	1	53	66	75
47	3	56	55	57
48	3	48	50	51
49	3	41	40	42
50	3	16	18	19
51	1	76	77	79
52	6	15	44	45
53	4	7	8	39
54	1	53	54	64
55	1	8	9	10
56	1	10	9	18
57	1	47	88	86
58	3	9	18	19
59	1	73	75	76
60	3	55	57	58
61	1	2	42	40
62	3	31	33	34
63	3	24	23	25
64	1	48	50	52
65	1	91	90	92
66	3	67	69	70
67	3	86	88	89
68	3	17	16	18
69	1	8	9	18
70	3	36	35	37
71	3	38	37	39
72	1	7	40	42
73	3	20	21	22
74	1	66	75	73
75	1	44	90	91
76	1	69	71	73
77	3	74	73	75
78	4	7	8	20
79	3	2	3	4
80	1	55	57	59
81	1	5	7	40
82	3	77	79	80
83	2	59	60	61
84	1	67	69	71
85	3	81	83	84
86	1	53	52	86
87	3	6	5	7
88	1	71	73	75
89	1	9	18	16
90	1	33	35	37
91	2	2	1	46
92	1	10	12	14
93	1	67	66	75
94	1	55	54	64
95	1	2	3	5
96	3	63	62	64
97	3	78	77	79
98	1	5	7	8
99	3	51	50	52
100	1	48	47	88
101	1	81	83	85
102	3	30	31	32
103	1	76	85	83
104	4	52	53	54
105	1	75	76	85
106	4	9	8	39
107	1	52	86	88
108	4	7	8	9
109	3	54	55	56
110	3	80	79	81
111	1	57	59	60
112	1	20	29	30
113	3	58	57	59
114	1	50	52	53
115	3	34	33	35
116	3	22	21	23
117	3	68	67	69
118	3	14	16	17
119	4	66	53	85
120	3	9	10	11
121	1	15	14	16
122	1	15	44	90
123	4	52	53	85
124	1	75	76	77
125	1	31	33	35
126	3	79	81	82
127	3	70	69	71
128	3	62	64	65
129	3	26	25	27
130	1	1	2	3
131	5	8	39	37
132	3	21	23	24
133	1	20	21	23
134	3	40	42	43
135	3	84	83	85
136	1	44	90	92
137	1	14	16	18
138	1	9	10	12
139	1	77	79	81
140	1	77	76	85
141	3	11	10	12
142	3	23	25	26
143	4	52	53	66
144	3	13	12	14
145	3	32	31	33
146	1	8	7	40
147	1	1	2	42
148	3	10	12	13
149	3	47	48	49
150	3	47	88	89
151	5	8	20	21
152	3	25	27	28
153	1	21	20	29
154	3	59	62	63
155	4	54	53	85
156	1	30	31	33
157	1	8	39	30
158	5	53	85	83
159	1	46	47	48
160	2	14	15	44
161	1	30	39	37
162	1	27	29	30
163	1	50	52	86
164	1	29	30	39
165	3	82	81	83
166	4	9	8	20

Dihedrals

1	1	15	14	16	18
2	6	45	44	90	92
3	1	8	9	10	12
4	1	10	12	14	15
5	1	23	25	27	28
6	1	50	52	86	88
7	1	54	55	57	58
8	1	32	31	30	39
9	1	8	9	18	19
10	4	9	8	7	40
11	1	26	25	27	28
12	1	21	20	29	30
13	1	24	23	25	26
14	1	72	71	73	74
15	1	70	69	71	72
16	1	53	54	55	57
17	1	9	10	12	13
18	1	54	64	62	63
19	1	30	31	33	34
20	1	51	50	52	86
21	1	3	5	7	40
22	1	49	48	47	88
23	1	2	42	40	7
24	4	50	52	53	85
25	4	9	8	20	21
26	4	55	54	53	66
27	1	53	85	76	77
28	1	76	77	79	81
29	1	7	40	42	43
30	1	10	9	18	16
31	6	15	44	90	92
32	1	53	66	75	73
33	1	54	64	62	59
34	2	1	46	47	88
35	2	12	14	15	44
36	1	23	25	27	29
37	1	75	76	77	78
38	1	54	55	57	59
39	4	66	53	85	76
40	1	78	77	79	80
41	1	82	81	83	84
42	1	76	85	83	84
43	1	72	71	73	75
44	4	5	7	8	9
45	1	70	69	71	73
46	1	1	2	42	43
47	4	54	53	52	86
48	1	68	67	66	75
49	1	32	31	33	34
50	1	57	59	62	63
51	1	59	62	64	65
52	4	7	8	39	37
53	1	48	50	52	86
54	1	30	31	33	35
55	1	46	47	88	89
56	1	47	48	50	51
57	7	73	75	76	77
58	1	67	69	71	72
59	2	16	14	15	44
60	1	1	2	3	4
61	1	8	9	18	16
62	1	21	20	29	27
63	1	46	47	48	50
64	1	33	31	30	39
65	1	33	35	37	38
66	4	50	52	53	54
67	4	18	9	8	20
68	1	8	39	30	29
69	8	57	59	60	61
70	1	6	5	7	8
71	1	21	23	25	26
72	4	64	54	53	85
73	1	78	77	76	85
74	1	47	48	50	52
75	1	8	20	29	27
76	1	5	7	40	41
77	1	47	88	86	52
78	1	68	67	69	70
79	1	4	3	2	42
80	1	1	2	3	5
81	1	76	85	83	81
82	7	73	75	76	85
83	1	53	52	86	88
84	1	56	55	54	64
85	4	7	8	20	21
86	1	1	2	42	40
87	5	14	15	44	90
88	1	58	57	59	60
89	1	9	18	16	14
90	4	52	53	85	83
91	1	56	55	57	58
92	1	67	66	75	73
93	1	29	30	31	33
94	1	47	88	86	87
95	1	36	35	37	39
96	1	8	7	40	41
97	1	79	81	83	84
98	1	2	3	5	7
99	4	20	8	39	37
100	1	10	12	14	16
101	4	54	53	85	83
102	1	66	75	73	74
103	1	25	27	29	30
104	1	5	7	40	42
105	4	7	8	39	30
106	1	31	33	35	36
107	1	8	20	21	22
108	1	26	25	27	29
109	7	20	29	30	39
110	1	24	23	25	27
111	1	6	5	7	40
112	1	11	10	9	18
113	7	27	29	30	39
114	4	52	53	54	55
115	1	55	57	59	60
116	4	66	53	52	86
117	4	10	9	8	39
118	1	53	85	83	84
119	1	2	42	40	41
120	1	56	55	57	59
121	4	7	8	9	10
122	4	75	66	53	85
123	4	7	8	20	29
124	1	20	29	27	28
125	4	39	8	7	40
126	1	12	10	9	18
127	1	79	81	83	85
128	1	77	79	81	82
129	1	51	50	52	53
130	4	52	53	66	67
131	4	50	52	53	66
132	1	75	76	77	79
133	1	78	77	79	81
134	1	69	67	66	75
135	1	82	81	83	85
136	1	53	66	67	68
137	1	31	33	35	37
138	1	55	54	64	62
139	1	66	67	69	70
140	1	55	54	64	65
141	7	20	29	30	31
142	1	75	76	85	83
143	1	87	86	88	89
144	1	32	31	33	35
145	1	57	59	62	64
146	1	71	73	75	76
147	1	22	21	20	29
148	7	27	29	30	31
149	7	66	75	76	85
150	1	66	75	73	71
151	1	67	69	71	73
152	4	52	53	85	76
153	1	11	10	12	14
154	1	17	16	18	19
155	4	21	20	8	39
156	4	29	20	8	39
157	1	13	12	14	15
158	1	48	50	52	53
159	1	33	35	37	39
160	4	20	8	39	30
161	1	20	21	23	24
162	1	46	47	88	86
163	1	8	39	37	38
164	1	12	14	16	17
165	1	20	29	27	25
166	1	53	85	76	75
167	4	52	53	66	75
168	1	21	23	25	27
169	1	76	77	79	80
170	1	15	14	16	17
171	1	29	30	39	37
172	1	60	59	62	63
173	7	66	75	76	77
174	1	50	52	86	87
175	4	64	54	53	66
176	1	68	67	69	71
177	1	74	73	75	76
178	1	22	21	23	24
179	4	54	53	66	75
180	4	52	53	54	64
181	1	13	12	14	16
182	8	61	60	59	62
183	1	4	3	5	6
184	1	9	10	12	14
185	1	53	54	55	56
186	1	48	47	88	89
187	1	8	39	30	31
188	1	12	14	16	18
189	1	30	39	37	38
190	1	8	7	40	42
191	1	3	2	42	43
192	4	9	8	39	37
193	1	28	27	29	30
194	6	15	44	90	91
195	2	1	46	47	48
196	1	52	86	88	89
197	1	60	59	62	64
198	1	8	20	21	23
199	2	42	2	1	46
200	1	8	39	37	35
201	1	22	21	23	25
202	1	49	48	50	51
203	1	63	62	64	65
204	1	69	71	73	74
205	4	54	53	66	67
206	1	4	3	5	7
207	1	34	33	35	36
208	1	50	48	47	88
209	4	7	8	9	18
210	1	58	57	59	62
211	3	2	1	46	47
212	1	77	76	85	83
213	2	3	2	1	46
214	4	5	7	8	39
215	4	18	9	8	39
216	4	10	9	8	20
217	1	77	79	81	83
218	1	46	47	48	49
219	1	8	20	29	30
220	1	48	47	88	86
221	4	67	66	53	85
222	4	54	53	85	76
223	1	53	66	67	69
224	1	53	85	83	81
225	1	23	21	20	29
226	1	49	48	50	52
227	1	69	71	73	75
228	1	80	79	81	82
229	1	30	39	37	35
230	1	66	67	69	71
231	1	3	2	42	40
232	1	5	3	2	42
233	1	34	33	35	37
234	1	55	57	59	62
235	6	45	44	90	91
236	1	8	9	10	11
237	1	14	16	18	19
238	1	9	18	16	17
239	2	14	15	44	45
240	1	57	55	54	64
241	4	66	53	85	83
242	1	67	66	75	76
243	1	3	5	7	8
244	1	53	54	64	62
245	1	53	54	64	65
246	1	11	10	12	13
247	1	53	52	86	87
248	4	20	8	7	40
249	4	85	53	52	86
250	4	9	8	39	30
251	1	10	9	18	19
252	1	31	30	39	37
253	1	53	66	75	76
254	4	55	54	53	85
255	1	20	21	23	25
256	4	5	7	8	20
257	1	79	77	76	85
258	4	9	8	20	29
259	1	29	30	31	32
260	1	80	79	81	83
261	1	41	40	42	43
262	1	36	35	37	38
263	1	2	3	5	6

Impropers

1	1	85	76	83	53
2	1	57	58	59	55
3	1	39	30	37	8
4	1	39	37	8	30
9	1	83	85	81	84
10	1	7	8	40	5
14	1	50	51	52	48
15	1	20	8	21	29
20	1	12	10	13	14
22	1	54	55	64	53
23	1	66	53	67	75
26	1	50	52	48	51
27	1	88	86	89	47
29	1	81	83	79	82
32	1	18	9	16	19
35	1	9	18	8	10
38	1	31	33	30	32
42	1	64	65	54	62
44	1	42	40	43	2
47	1	16	18	14	17
49	1	54	64	53	55
50	1	14	16	12	15
53	2	44	45	90	15
57	1	16	14	17	18
61	1	73	74	75	71
63	1	69	71	67	70
69	1	73	71	74	75
74	1	2	42	1	3
75	1	25	26	27	23
76	1	71	72	73	69
77	1	23	24	25	21
78	1	69	70	71	67
80	1	5	6	7	3
82	1	90	44	91	92
84	1	30	31	39	29
85	1	29	27	30	20
86	1	29	30	20	27
87	1	30	39	29	31
88	1	76	85	75	77
89	1	75	66	73	76
90	1	27	29	25	28
91	1	73	75	71	74
92	1	40	41	42	7
93	1	79	77	80	81
95	1	3	2	4	5
96	1	35	36	37	33
99	1	18	16	19	9
100	1	86	87	88	52
103	1	12	13	14	10
104	1	57	55	58	59
105	1	21	23	20	22
106	1	37	39	35	38
110	1	9	10	18	8
112	1	71	73	69	72
113	1	23	25	21	24
115	1	77	78	79	76
116	1	62	63	64	59
118	1	71	69	72	73
119	1	50	48	51	52
127	1	5	3	6	7
129	1	77	76	78	79
130	1	5	7	3	6
134	1	75	73	76	66
139	1	20	21	29	8
140	2	44	90	15	45
147	1	35	33	36	37
148	1	47	88	46	48
151	1	27	28	29	25
153	1	67	69	66	68
155	1	55	57	54	56
156	1	18	19	9	16
160	1	3	5	2	4
162	1	42	2	40	43
167	1	2	1	3	42
168	1	29	20	27	30
173	1	86	88	52	87
177	1	83	81	84	85
179	1	14	12	15	16
180	1	2	3	42	1
182	1	62	64	59	63
183	1	20	29	8	21
185	1	39	8	30	37
186	1	10	11	12	9
189	1	67	66	68	69
190	1	37	38	39	35
191	1	83	84	85	81
195	1	31	32	33	30
196	1	59	60	62	57
198	1	31	30	32	33
199	1	16	17	18	14
201	1	33	31	34	35
208	1	52	53	86	50
211	1	12	14	10	13
213	1	90	92	44	91
214	1	33	34	35	31
215	1	85	53	76	83
218	1	90	91	92	44
219	1	40	7	41	42
222	1	79	80	81	77
223	1	69	67	70	71
238	1	21	22	23	20
239	1	27	25	28	29
242	1	81	82	83	79
243	2	44	15	45	90
247	1	76	75	77	85
250	1	86	52	87	88
253	1	33	35	31	34
254	1	79	81	77	80
259	1	21	20	22	23
261	1	14	15	16	12
262	1	62	59	63	64
268	1	23	21	24	25
270	1	57	59	55	58
272	1	77	79	76	78
278	1	42	43	2	40
279	1	37	35	38	39
280	1	25	27	23	26
281	1	52	86	50	53
283	1	3	4	5	2
285	1	67	68	69	66
286	1	59	57	60	62
289	1	55	56	57	54
290	1	55	54	56	57
291	1	10	12	9	11
292	1	52	50	53	86
293	1	10	9	11	12
294	1	7	40	5	8
296	1	88	89	47	86
298	1	81	79	82	83
302	1	48	47	49	50
303	1	75	76	66	73
304	1	54	53	55	64
306	1	85	83	53	76
312	1	64	54	62	65
313	1	35	37	33	36
316	1	47	48	88	46
320	1	30	29	31	39
324	1	64	62	65	54
325	1	48	50	47	49
328	1	40	42	7	41
330	1	88	47	86	89
331	1	48	49	50	47
333	1	47	46	48	88
336	1	25	23	26	27
337	1	59	62	57	60
339	1	7	5	8	40
340	1	66	67	75	53
341	1	76	77	85	75
342	1	9	8	10	18
344	1	66	75	53	67
