Title

7125 atoms
7000 bonds
12625 angles
20875 dihedrals
1500 impropers

8 atom types
11 bond types
5 angle types
27 dihedral types
2 improper types
-8.749139706 93.26200614 xlo xhi
-7.333093474 92.77495771 ylo yhi
-9.265600109 93.64977849 zlo zhi
0.0 0.0 0.0 xy xz yz

Masses

1	15.99943
2	12.01078
3	1.007947
4	1.007947
5	12.01078
6	15.99943
7	15.99943
8	1.007947


Pair Coeffs

1	0.16846514	3.0251065
2	0.10884061	3.3795318
3	0.016409246	2.5832257
4	0.015779483	2.6445434
5	0.086879315	3.4806469
6	0.2102061	3.0398122
7	0.20947353	2.99716
8	1.2326e-05	0.53453923

Bond Coeffs

1 harmonic	366.7408841747	1.425895053732
2 harmonic	300.03137914615	1.451203938761
3 harmonic	264.62148576755	1.52190126495
4 harmonic	370.04670688625	1.093899492634
5 harmonic	301.15400723785	1.345741232799
6 harmonic	582.698766451	1.225198386222
7 harmonic	329.44145381095	1.523435958334
8 harmonic	279.1350963404	1.454628925034
9 harmonic	329.96998057905	1.427343958716
10 harmonic	543.5267831885	0.9716763312559
11 harmonic	385.7604595587	1.369745182308


Angle Coeffs

1 harmonic	53.20531626545	116.5475862634
2 harmonic	65.09061609600001	110.3538806181
3 harmonic	201.41175231035	127.4691416191
4 harmonic	57.8982893754	126.8062420451
5 harmonic	48.776492647595	115.6030999533


Dihedral Coeffs

1 fourier 1	0.1155372516788	3	0
2 fourier 1	0.1115525666802	3	0
3 fourier 1	0.3432490222662	1	0
4 fourier 1	0.0473758381877	3	0
5 fourier 1	0.457973137376	1	0
6 fourier 1	0.1040663847541	3	0
7 fourier 1	0.1918272375143	3	0
8 fourier 1	0.9202179876409	1	180
9 fourier 1	1.163809172478	2	180
10 fourier 1	0.1679186987369	1	180
11 fourier 1	2.779853741805	2	180
12 fourier 1	0.02664938770063	3	0
13 fourier 1	0.1911926717192	3	0
14 fourier 1	-0.3703352413219	2	0
15 fourier 1	0.4541676554336	1	0
16 fourier 1	0.1489710476446	2	0
17 fourier 1	0.02960027280666	3	180
18 fourier 1	0.09223874044423	3	0
19 fourier 1	0.3159935921949	2	180
20 fourier 1	0.3247796806857	1	180
21 fourier 1	0.9974165607242	2	180
22 fourier 1	0.3445382149273	3	0
23 fourier 1	0.1364556373303	1	0
24 fourier 1	0.3026390167484	3	0
25 fourier 1	2.687457892086	2	180
26 fourier 1	2.772607909663	2	180
27 fourier 1	0.09692684957115	1	0


Improper Coeffs

1 3.5	-1	2
2 0.3666666666666667	-1	2


Atoms

1	4	1	-0.17807919	7.1172748	0.27597559	1.7209614
2	4	2	0.040878477	6.4725207	1.4157889	2.2234977
3	4	2	-0.13552145	4.9582235	1.3298694	2.0070654
4	4	2	0.14587011	4.5958578	1.2976048	0.51937389
5	4	1	-0.49427423	3.2040796	1.2800952	0.36033662
6	4	3	0.080019834	5.0505052	0.40846992	0.026521048
7	4	3	0.080019834	4.9938727	2.2075459	0.021276106
8	4	4	0.092397908	4.4785524	2.2155838	2.4782593
9	4	4	0.092397908	4.56539	0.41785625	2.5075839
10	4	3	0.082124004	6.6882108	1.5295903	3.3108693
11	4	3	0.082124004	6.8749553	2.3143688	1.7078674
12	5	5	0.76250905	2.891784	0.3130523	0.58064205
13	5	6	-0.55071932	3.7246519	-0.52866889	0.87620674
14	5	2	-0.20913788	1.4382244	-0.054840205	0.54102365
15	5	2	-0.11283347	0.57105048	1.1477621	0.14942805
16	5	2	-0.091989768	-0.91287461	0.76563215	0.10932754
17	5	2	-0.25734323	-1.7805383	1.9679863	-0.28143222
18	5	5	0.51771856	-3.2336516	1.5993914	-0.32219405
19	5	6	-0.68101185	-4.0670092	2.4408645	-0.6169229
20	5	4	0.11451332	-1.6382547	2.7859888	0.45750104
21	5	4	0.11451332	-1.4761467	2.3365666	-1.2846074
22	5	4	0.076050395	-1.226148	0.39850546	1.1125158
23	5	4	0.076050395	-1.0635937	-0.051619175	-0.63073598
24	5	4	0.084990503	0.7217696	1.9650134	0.88949157
25	5	4	0.084990503	0.88383416	1.5146407	-0.85292442
26	5	4	0.11788034	1.1338328	-0.42342046	1.5441988
27	5	4	0.11788034	1.2958974	-0.87379319	-0.1982172
28	1	1	-0.177351	6.9354615	-0.4589657	2.3629826
29	1	2	0.049295025	6.2820638	-1.4688199	1.6421124
30	1	2	-0.17076322	4.8255728	-1.0853341	1.3584039
31	1	2	0.096167328	4.0138712	-0.93561788	2.6488947
32	1	7	-0.68460971	2.6759551	-0.64474461	2.3485462
33	1	8	0.37924597	2.6467421	0.3115481	2.0828831
34	1	3	0.074516597	4.44609	-0.13452607	3.2918666
35	1	3	0.074516597	4.046179	-1.8888356	3.2199755
36	1	4	0.096240731	4.3634973	-1.8756629	0.72865102
37	1	4	0.096240731	4.7991315	-0.1313562	0.78739687
38	1	3	0.08197088	6.8113702	-1.6574182	0.68070379
39	1	3	0.08197088	6.3135437	-2.410741	2.2304181
40	2	5	0.51771862	-3.5594159	0.59054144	-0.091082958
41	2	6	-0.68101185	-3.9261816	0.31986349	1.0409976
42	2	2	-0.25734326	-3.5384837	-0.46484152	-1.1565925
43	2	2	-0.091989768	-4.9571361	-0.94433635	-1.4804704
44	2	2	-0.11030893	-4.9384044	-2.0031017	-2.5937368
45	2	2	-0.21914656	-6.3384342	-2.553369	-2.8966041
46	2	5	0.82474357	-7.2155568	-1.5187395	-3.5317242
47	2	6	-0.5519759	-7.0924524	-1.252825	-4.7577326
48	2	7	-0.66452235	-8.1464527	-0.83022333	-2.7613077
49	2	8	0.39544526	-8.7376869	-0.11874968	-3.1729014
50	2	4	0.11891176	-6.8119499	-2.9255434	-1.9624804
51	2	4	0.11891176	-6.2440943	-3.4167372	-3.590523
52	2	4	0.084990503	-4.2945196	-2.8515948	-2.2733219
53	2	4	0.084990503	-4.4968525	-1.57314	-3.5198641
54	2	4	0.076050395	-5.4174525	-1.3808283	-0.5672756
55	2	4	0.076050395	-5.5692416	-0.074990681	-1.8047897
56	2	4	0.11451332	-3.0723974	-0.038480196	-2.0718065
57	2	4	0.11451332	-2.9158542	-1.3175488	-0.81040065
58	4	1	-0.17807919	-0.72892819	0.21128775	25.881569
59	4	2	0.040878477	-1.9272018	0.62595865	25.281891
60	4	2	-0.13552145	-1.864089	0.46317641	23.759774
61	4	2	0.14587011	-0.78444422	1.3521941	23.135602
62	4	1	-0.49427423	-0.79693046	1.2221163	21.740765
63	4	3	0.080019834	0.2196008	1.0868343	23.537656
64	4	3	0.080019834	-0.98662405	2.414674	23.390101
65	4	4	0.092397908	-2.8524445	0.73615864	23.329389
66	4	4	0.092397908	-1.6617777	-0.60159621	23.510908
67	4	3	0.082124004	-2.7817112	0.035229877	25.685256
68	4	3	0.082124004	-2.1084252	1.692156	25.538124
69	5	5	0.76250905	-0.3433934	0.31212176	21.522937
70	5	6	-0.55071932	0.087084234	-0.37237168	22.437092
71	5	2	-0.20913788	-0.21547895	-0.16534698	20.106812
72	5	2	-0.11283347	-0.82034814	0.84381535	19.12329
73	5	2	-0.091989768	-0.68562977	0.3512906	17.677975
74	5	2	-0.25734323	-1.2909977	1.3596461	16.694137
75	5	5	0.51771856	-1.1617263	0.88247345	15.278278
76	5	6	-0.68101185	-1.5927026	1.5661601	14.363806
77	5	4	0.11451332	-2.3679404	1.5064841	16.926576
78	5	4	0.11451332	-0.76858498	2.3354997	16.792426
79	5	4	0.076050395	-1.2099266	-0.62490358	17.570892
80	5	4	0.076050395	0.39078585	0.20440809	17.437009
81	5	4	0.084990503	-1.8967638	0.99069786	19.364257
82	5	4	0.084990503	-0.29655005	1.8192027	19.230056
83	5	4	0.11788034	-0.73789166	-1.1412006	20.008523
84	5	4	0.11788034	0.86232205	-0.31269571	19.874322
85	1	1	-0.177351	-0.72787131	-0.78106535	25.856665
86	1	2	0.049295025	0.41233693	-1.1629804	25.13524
87	1	2	-0.17076322	0.21659685	-0.92480071	23.633949
88	1	2	0.096167328	-0.91569996	-1.7844287	23.063349
89	1	7	-0.68460971	-1.0251638	-1.5852204	21.680175
90	1	8	0.37924597	-1.4727833	-0.70779562	21.554921
91	1	3	0.074516597	-1.8812781	-1.5415224	23.563978
92	1	3	0.074516597	-0.6945877	-2.858309	23.246901
93	1	4	0.096240731	1.1622119	-1.1730902	23.105852
94	1	4	0.096240731	-0.0044831416	0.15052587	23.456133
95	1	3	0.08197088	1.2998249	-0.59164171	25.490174
96	1	3	0.08197088	0.61312677	-2.2398554	25.320533
97	2	5	0.51771862	-0.6895217	-0.067692564	15.051297
98	2	6	-0.68101185	-1.3786663	-1.0649678	14.910187
99	2	2	-0.25734326	0.8032263	-0.15154172	14.931904
100	2	2	-0.091989768	1.2185842	-0.5207628	13.504129
101	2	2	-0.11030893	2.7485183	-0.57631592	13.374081
102	2	2	-0.21914656	3.1976806	-1.0087411	11.971987
103	2	5	0.82474357	2.8834605	0.033200185	10.943005
104	2	6	-0.5519759	3.620189	1.0495515	10.828013
105	2	7	-0.66452235	1.7611166	-0.10675613	10.133734
106	2	8	0.39544526	1.5277398	0.59523068	9.4424222
107	2	4	0.11891176	2.7113264	-1.9690518	11.695254
108	2	4	0.11891176	4.2958791	-1.1810191	11.982397
109	2	4	0.084990503	3.1460623	-1.3120254	14.107487
110	2	4	0.084990503	3.1870599	0.41653648	13.61795
111	2	4	0.076050395	0.7920271	-1.5129966	13.239815
112	2	4	0.076050395	0.81317962	0.23799125	12.80017
113	2	4	0.11451332	1.2386366	0.83541638	15.202031
114	2	4	0.11451332	1.1824644	-0.91056174	15.649325
115	4	1	-0.17807919	-0.86915038	4.1668771	43.151282
116	4	2	0.040878477	0.16990837	3.2506656	43.371142
117	4	2	-0.13552145	0.47746578	2.4541561	42.099017
118	4	2	0.14587011	-0.71436799	1.5983186	41.660097
119	4	1	-0.49427423	-0.3765068	0.8402416	40.531463
120	4	3	0.080019834	-1.5967296	2.2415487	41.441323
121	4	3	0.080019834	-0.99195415	0.90149175	42.479785
122	4	4	0.092397908	1.3483665	1.790735	42.293959
123	4	4	0.092397908	0.75470024	3.1562186	41.282405
124	4	3	0.082124004	1.0876813	3.7859568	43.707306
125	4	3	0.082124004	-0.12834095	2.556091	44.185935
126	5	5	0.76250905	-0.39147709	1.4911566	39.72071
127	5	6	-0.55071932	-0.69693356	2.659017	39.900489
128	5	2	-0.20913788	-0.042089699	1.0131983	38.342583
129	5	2	-0.11283347	0.30919954	-0.47951144	38.34448
130	5	2	-0.091989768	0.66404172	-0.96252427	36.933647
131	5	2	-0.25734323	1.0161541	-2.4549062	36.93508
132	5	5	0.51771856	1.3641516	-2.9326667	35.556782
133	5	6	-0.68101185	1.6704312	-4.1001992	35.376539
134	5	4	0.11451332	1.8841075	-2.6323071	37.606333
135	5	4	0.11451332	0.14986379	-3.0415857	37.309532
136	5	4	0.076050395	1.5339045	-0.3813393	36.553026
137	5	4	0.076050395	-0.20172904	-0.79041998	36.256054
138	5	4	0.084990503	1.1749703	-0.65161573	39.022072
139	5	4	0.084990503	-0.5598401	-1.0603686	38.724636
140	5	4	0.11788034	0.82420059	1.5998778	37.968131
141	5	4	0.11788034	-0.91060982	1.1911249	37.670695
142	1	1	-0.177351	-0.48283068	4.9120291	42.62129
143	1	2	0.049295025	-1.2203025	4.9818548	41.43064
144	1	2	-0.17076322	-0.83806353	3.8410868	40.481187
145	1	2	0.096167328	0.62673348	3.9316265	40.042082
146	1	7	-0.68460971	0.92281662	2.9097624	39.129413
147	1	8	0.37924597	1.0130095	2.0745585	39.658777
148	1	3	0.074516597	1.3041434	3.8665367	40.924609
149	1	3	0.074516597	0.80481646	4.909449	39.544136
150	1	4	0.096240731	-1.4899627	3.8896115	39.582636
151	1	4	0.096240731	-1.0178699	2.8656802	40.984252
152	1	3	0.08197088	-2.3106407	4.9327635	41.651532
153	1	3	0.08197088	-1.0230951	5.9591245	40.940371
154	2	5	0.51771862	1.3496488	-2.2529939	34.711118
155	2	6	-0.68101185	2.3829488	-1.708278	34.357613
156	2	2	-0.25734326	0.060270871	-1.974433	33.997332
157	2	2	-0.091989768	0.11120103	-2.4870925	32.554427
158	2	2	-0.11030893	-1.220481	-2.2295794	31.832619
159	2	2	-0.21914656	-1.1807564	-2.6715606	30.363715
160	2	5	0.82474357	-1.0950346	-4.1612723	30.23491
161	2	6	-0.5519759	-2.127804	-4.8684789	30.383933
162	2	7	-0.66452235	0.13082631	-4.7664941	29.979695
163	2	8	0.39544526	0.20773125	-5.7731405	29.902815
164	2	4	0.11891176	-0.31758058	-2.1992652	29.846818
165	2	4	0.11891176	-2.106204	-2.3216595	29.856818
166	2	4	0.084990503	-1.4406941	-1.1396638	31.860622
167	2	4	0.084990503	-2.0465888	-2.7561661	32.359686
168	2	4	0.076050395	0.93032209	-1.971208	32.007395
169	2	4	0.076050395	0.32378274	-3.5781188	32.563849
170	2	4	0.11451332	-0.76594878	-2.4810062	34.542659
171	2	4	0.11451332	-0.1312943	-0.87998789	34.008224
172	4	1	-0.17807919	-1.8557789	-4.824271	50.586343
173	4	2	0.040878477	-1.9849373	-5.4252267	51.847135
174	4	2	-0.13552145	-1.7412196	-4.4085974	52.967129
175	4	2	0.14587011	-0.31153276	-3.8602076	52.938144
176	4	1	-0.49427423	-0.10814269	-2.9816588	54.010259
177	4	3	0.080019834	-0.11228968	-3.341745	51.972915
178	4	3	0.080019834	0.40950639	-4.7003149	53.032125
179	4	4	0.092397908	-1.9196955	-4.9049824	53.946081
180	4	4	0.092397908	-2.4653779	-3.5704823	52.868321
181	4	3	0.082124004	-3.0021292	-5.8665333	51.958576
182	4	3	0.082124004	-1.25054	-6.2555618	51.927622
183	5	5	0.76250905	-0.58301396	-2.0913028	53.759265
184	5	6	-0.55071932	-1.1402886	-1.9982705	52.677455
185	5	2	-0.20913788	-0.59166281	-0.92903703	54.707322
186	5	2	-0.11283347	0.16213724	-1.2612856	56.000762
187	5	2	-0.091989768	0.15110319	-0.069735863	56.964999
188	5	2	-0.25734323	0.90405183	-0.40167175	58.25886
189	5	5	0.51771856	0.8962788	0.76110695	59.205933
190	5	6	-0.68101185	1.452702	0.66838735	60.288163
191	5	4	0.11451332	0.4247952	-1.2727007	58.755867
192	5	4	0.11451332	1.9576066	-0.66234027	58.020238
193	5	4	0.076050395	-0.90169029	0.19511483	57.211553
194	5	4	0.076050395	0.63199698	0.80598821	56.474939
195	5	4	0.084990503	-0.31875654	-2.1370097	56.490822
196	5	4	0.084990503	1.2140793	-1.5258236	55.754629
197	5	4	0.11788034	-1.6452176	-0.66836851	54.945944
198	5	4	0.11788034	-0.11238177	-0.057182468	54.209751
199	1	1	-0.177351	-2.6732835	-4.2786623	50.447119
200	1	2	0.049295025	-2.2455694	-2.9571401	50.254693
201	1	2	-0.17076322	-1.8055359	-2.3247928	51.579618
202	1	2	0.096167328	-2.9654813	-2.22148	52.574854
203	1	7	-0.68460971	-2.5407843	-1.5848672	53.749244
204	1	8	0.37924597	-2.0117878	-2.253344	54.258388
205	1	3	0.074516597	-3.3693961	-3.2329887	52.810813
206	1	3	0.074516597	-3.7861264	-1.6202054	52.126734
207	1	4	0.096240731	-1.4099945	-1.3064939	51.376304
208	1	4	0.096240731	-0.98498052	-2.9301792	52.023485
209	1	3	0.08197088	-1.4004122	-2.92933	49.53014
210	1	3	0.08197088	-3.0794416	-2.3676719	49.817093
211	2	5	0.51771862	0.39964982	1.6896712	58.94432
212	2	6	-0.68101185	-0.74680403	1.885226	59.314174
213	2	2	-0.25734326	1.1170985	2.7143078	58.116692
214	2	2	-0.091989768	1.3472728	4.0007527	58.916358
215	2	2	-0.11030893	2.1095648	5.0391713	58.078924
216	2	2	-0.21914656	2.2986335	6.3649675	58.828006
217	2	5	0.82474357	3.2379463	6.2189836	59.9854
218	2	6	-0.5519759	4.4827914	6.1921785	59.78892
219	2	7	-0.66452235	2.7348047	6.0834546	61.274835
220	2	8	0.39544526	3.3561703	5.9707489	62.066267
221	2	4	0.11891176	1.3169815	6.7437824	59.186023
222	2	4	0.11891176	2.7122764	7.1203685	58.125086
223	2	4	0.084990503	1.5341849	5.2453255	57.149606
224	2	4	0.084990503	3.1013762	4.6330597	57.780712
225	2	4	0.076050395	0.36673226	4.4258089	59.223292
226	2	4	0.076050395	1.9310722	3.7602496	59.83121
227	2	4	0.11451332	2.0964424	2.2940648	57.799015
228	2	4	0.11451332	0.51669224	2.9311209	57.207225
229	4	1	-0.17807919	2.4587138	0.5374257	67.491762
230	4	2	0.040878477	3.1221888	-0.51337535	68.14218
231	4	2	-0.13552145	2.538469	-0.74988454	69.538838
232	4	2	0.14587011	2.7352889	0.46375739	70.452026
233	4	1	-0.49427423	2.2443123	0.18897515	71.735023
234	4	3	0.080019834	2.2242712	1.35774	70.027968
235	4	3	0.080019834	3.8191682	0.69407393	70.533695
236	4	4	0.092397908	3.0424152	-1.6311084	69.9928
237	4	4	0.092397908	1.4540575	-0.98001686	69.451113
238	4	3	0.082124004	3.0411478	-1.4479786	67.540682
239	4	3	0.082124004	4.2017406	-0.26215077	68.224205
240	5	5	0.76250905	1.2079594	0.25019923	71.676208
241	5	6	-0.55071932	0.68855831	0.5463912	70.612246
242	5	2	-0.20913788	0.35087874	-0.021760057	72.876709
243	5	2	-0.11283347	1.2046879	-0.37428425	74.10077
244	5	2	-0.091989768	0.32373908	-0.64985815	75.324556
245	5	2	-0.25734323	1.1769429	-1.0031777	76.548647
246	5	5	0.51771856	0.3196729	-1.2737396	77.749041
247	5	6	-0.68101185	0.83846859	-1.5707269	78.813032
248	5	4	0.11451332	1.7849794	-1.9076672	76.330506
249	5	4	0.11451332	1.8624959	-0.15995203	76.78071
250	5	4	0.076050395	-0.36379088	-1.4963104	75.100659
251	5	4	0.076050395	-0.28646373	0.25280227	75.550757
252	5	4	0.084990503	1.8148908	-1.2769447	73.874569
253	5	4	0.084990503	1.8916125	0.4713726	74.324697
254	5	4	0.11788034	-0.33467427	-0.86498577	72.644645
255	5	4	0.11788034	-0.25795252	0.8833315	73.094772
256	1	1	-0.177351	1.5769008	0.18232843	67.205934
257	1	2	0.049295025	0.60367785	0.98559786	67.817476
258	1	2	-0.17076322	0.47880734	0.65601099	69.309018
259	1	2	0.096167328	0.0017066393	-0.78170367	69.537036
260	1	7	-0.68460971	-0.15848996	-1.027203	70.907767
261	1	8	0.37924597	0.75312813	-1.1479318	71.282338
262	1	3	0.074516597	0.72477089	-1.5076922	69.098752
263	1	3	0.074516597	-0.9798181	-0.93043092	69.036746
264	1	4	0.096240731	-0.24881238	1.3574105	69.770895
265	1	4	0.096240731	1.4631618	0.80617415	69.804315
266	1	3	0.08197088	0.86212718	2.0617499	67.694424
267	1	3	0.08197088	-0.37217729	0.81734444	67.313782
268	2	5	0.51771862	-0.76178123	-1.2109887	77.687136
269	2	6	-0.68101185	-1.4136482	-2.2221843	77.482336
270	2	2	-0.25734326	-1.4436847	0.11676296	77.834327
271	2	2	-0.091989768	-2.3193406	0.14638914	79.091202
272	2	2	-0.11030893	-2.9935506	1.5168049	79.258828
273	2	2	-0.21914656	-3.9309233	1.5591593	80.472972
274	2	5	0.82474357	-3.1726775	1.4791284	81.762095
275	2	6	-0.5519759	-2.5923202	2.5010977	82.217865
276	2	7	-0.66452235	-3.0845572	0.26885797	82.441538
277	2	8	0.39544526	-2.5648177	0.195258	83.307342
278	2	4	0.11891176	-4.6654371	0.72691582	80.416596
279	2	4	0.11891176	-4.5032141	2.512014	80.453503
280	2	4	0.084990503	-3.5947869	1.7363263	78.349147
281	2	4	0.084990503	-2.2209071	2.3114065	79.354627
282	2	4	0.076050395	-3.1016449	-0.64012711	79.015485
283	2	4	0.076050395	-1.6867176	-0.067616333	79.979801
284	2	4	0.11451332	-0.66785422	0.91047289	77.903236
285	2	4	0.11451332	-2.0627775	0.30864787	76.931813
286	4	1	-0.17807919	-5.8390446	15.854101	3.4778303
287	4	2	0.040878477	-4.8590673	14.857749	3.3580275
288	4	2	-0.13552145	-3.5677901	15.427059	2.7615287
289	4	2	0.14587011	-3.7781849	15.94437	1.3354505
290	4	1	-0.49427423	-2.5657331	16.400629	0.80212638
291	4	3	0.080019834	-4.5347788	16.76145	1.3247331
292	4	3	0.080019834	-4.1546008	15.119131	0.6937329
293	4	4	0.092397908	-2.7967388	14.625896	2.7468563
294	4	4	0.092397908	-3.1956216	16.2521	3.4075961
295	4	3	0.082124004	-4.6437554	14.410499	4.3557539
296	4	3	0.082124004	-5.2479268	14.046247	2.7057045
297	5	5	0.76250905	-2.3782679	17.325608	1.2385963
298	5	6	-0.55071932	-3.1880816	17.787176	2.0264277
299	5	2	-0.20913788	-1.1306143	18.092067	0.91355665
300	5	2	-0.11283347	-0.25776636	17.332134	-0.092538756
301	5	2	-0.091989768	1.014873	18.12056	-0.42183674
302	5	2	-0.25734323	1.8884244	17.360781	-1.4272382
303	5	5	0.51771856	3.135129	18.128055	-1.7529376
304	5	6	-0.68101185	3.9456461	17.66664	-2.5400751
305	5	4	0.11451332	2.1746357	16.374704	-1.0016446
306	5	4	0.11451332	1.3163167	17.192118	-2.3648478
307	5	4	0.076050395	1.5953758	18.290425	0.51276015
308	5	4	0.076050395	0.73610773	19.108655	-0.85110271
309	5	4	0.084990503	0.020998898	16.344039	0.33672721
310	5	4	0.084990503	-0.83756574	17.162422	-1.0264417
311	5	4	0.11788034	-0.55850657	18.260729	1.8511662
312	5	4	0.11788034	-1.4170712	19.079113	0.48799725
313	1	1	-0.177351	-5.5764015	16.418768	4.2508479
314	1	2	0.049295025	-5.4238481	17.72376	3.7608375
315	1	2	-0.17076322	-4.123504	17.860747	2.9613016
316	1	2	0.096167328	-2.8887527	17.622586	3.8361211
317	1	7	-0.68460971	-1.7198559	17.815311	3.0868727
318	1	8	0.37924597	-1.6132811	17.009875	2.5160485
319	1	3	0.074516597	-2.9053952	16.593718	4.2640561
320	1	3	0.074516597	-2.8875752	18.345539	4.6805965
321	1	4	0.096240731	-4.0728163	18.884837	2.5330577
322	1	4	0.096240731	-4.1298811	17.135392	2.1183065
323	1	3	0.08197088	-6.2889087	17.993912	3.1137444
324	1	3	0.08197088	-5.4136348	18.432086	4.6166882
325	2	5	0.51771862	3.3311306	19.092683	-1.2964402
326	2	6	-0.68101185	4.0246946	19.155661	-0.29424619
327	2	2	-0.25734326	2.73442	20.335191	-1.8877876
328	2	2	-0.091989768	3.8272623	21.267913	-2.4198713
329	2	2	-0.11030893	3.2147403	22.526488	-3.0535136
330	2	2	-0.21914656	4.285126	23.513749	-3.5374507
331	2	5	0.82474357	5.0485142	22.974446	-4.7077374
332	2	6	-0.5519759	4.5430995	23.009954	-5.8619719
333	2	7	-0.66452235	6.3038524	22.407455	-4.5158797
334	2	8	0.39544526	6.826955	22.026691	-5.2946894
335	2	4	0.11891176	4.9863852	23.752031	-2.7087315
336	2	4	0.11891176	3.79038	24.462223	-3.8398603
337	2	4	0.084990503	2.5854837	23.042087	-2.2949706
338	2	4	0.084990503	2.556205	22.241992	-3.9037728
339	2	4	0.076050395	4.4971026	21.567149	-1.5843399
340	2	4	0.076050395	4.4298742	20.724968	-3.1799291
341	2	4	0.11451332	2.0567152	20.044168	-2.7200489
342	2	4	0.11451332	2.1331159	20.854126	-1.110764
343	4	1	-0.17807919	0.87324913	18.679039	11.318535
344	4	2	0.040878477	0.15177119	17.534032	11.687119
345	4	2	-0.13552145	-0.17363982	17.548808	13.184186
346	4	2	0.14587011	1.0934561	17.508019	14.043476
347	4	1	-0.49427423	0.75566403	17.461797	15.402302
348	4	3	0.080019834	1.7337876	18.395276	13.836306
349	4	3	0.080019834	1.6791085	16.596562	13.796965
350	4	4	0.092397908	-0.8023705	16.663087	13.422502
351	4	4	0.092397908	-0.7596999	18.462642	13.425113
352	4	3	0.082124004	-0.79356715	17.471741	11.100343
353	4	3	0.082124004	0.7556406	16.633417	11.443176
354	5	5	0.76250905	0.46142522	18.422969	15.668398
355	5	6	-0.55071932	0.49473853	19.309268	14.830016
356	5	2	-0.20913788	-0.0020792351	18.728669	17.061761
357	5	2	-0.11283347	0.034554998	17.476908	17.946827
358	5	2	-0.091989768	-0.43881103	17.795549	19.369521
359	5	2	-0.25734323	-0.40312547	16.544048	20.254767
360	5	5	0.51771856	-0.86538739	16.850423	21.648148
361	5	6	-0.68101185	-0.89964937	15.964383	22.48671
362	5	4	0.11451332	-1.0634134	15.762069	19.821265
363	5	4	0.11451332	0.63472649	16.149508	20.300236
364	5	4	0.076050395	-1.479816	18.188271	19.332283
365	5	4	0.076050395	0.21956638	18.576385	19.811272
366	5	4	0.084990503	-0.62382242	16.696071	17.505077
367	5	4	0.084990503	1.0746113	17.084445	17.984245
368	5	4	0.11788034	-1.0399312	19.123209	17.016292
369	5	4	0.11788034	0.65850257	19.511583	17.49546
370	1	1	-0.177351	0.22461494	19.430325	11.303397
371	1	2	0.049295025	0.69334042	20.383434	12.218967
372	1	2	-0.17076322	0.44078823	19.929327	13.660813
373	1	2	0.096167328	-1.0551457	19.796656	13.962842
374	1	7	-0.68460971	-1.2485666	19.439262	15.304369
375	1	8	0.37924597	-1.0311396	18.472945	15.37424
376	1	3	0.074516597	-1.5237168	19.039796	13.292337
377	1	3	0.074516597	-1.5575782	20.771945	13.78347
378	1	4	0.096240731	0.88629235	20.674724	14.354089
379	1	4	0.096240731	0.94518823	18.953525	13.83463
380	1	3	0.08197088	1.7831144	20.556093	12.068559
381	1	3	0.08197088	0.17423734	21.348082	12.033775
382	2	5	0.51771862	-1.1735354	17.853199	21.925271
383	2	6	-0.68101185	-2.3561009	18.152447	21.888124
384	2	2	-0.25734326	-0.14503958	18.86618	22.332271
385	2	2	-0.091989768	-0.3276534	19.273656	23.797878
386	2	2	-0.11030893	0.74487087	20.288059	24.223758
387	2	2	-0.21914656	0.55066323	20.767783	25.668319
388	2	5	0.82474357	0.81558702	19.673813	26.65636
389	2	6	-0.5519759	2.0009401	19.365591	26.95452
390	2	7	-0.66452235	-0.24693014	18.978001	27.222988
391	2	8	0.39544526	-0.084133465	18.227196	27.882495
392	2	4	0.11891176	-0.48163594	21.15623	25.805377
393	2	4	0.11891176	1.2526156	21.606586	25.867065
394	2	4	0.084990503	0.68891865	21.174282	23.553928
395	2	4	0.084990503	1.7572169	19.840909	24.110802
396	2	4	0.076050395	-1.3343113	19.726046	23.933244
397	2	4	0.076050395	-0.25738307	18.367775	24.438237
398	2	4	0.11451332	0.86575269	18.424063	22.19274
399	2	4	0.11451332	-0.23247779	19.756737	21.673569
400	4	1	-0.17807919	0.88699365	19.538385	44.398841
401	4	2	0.040878477	2.1361999	19.60197	43.764124
402	4	2	-0.13552145	1.9810323	19.548922	42.240829
403	4	2	0.14587011	1.3712878	18.22324	41.775687
404	4	1	-0.49427423	1.3008376	18.187075	40.376982
405	4	3	0.080019834	0.35763606	18.084683	42.215552
406	4	3	0.080019834	2.0115103	17.381334	42.116009
407	4	4	0.092397908	2.9832035	19.670792	41.774568
408	4	4	0.092397908	1.3398208	20.393476	41.905893
409	4	3	0.082124004	2.6651724	20.539323	44.052929
410	4	3	0.082124004	2.759082	18.748087	44.107891
411	5	5	0.76250905	0.49888569	18.790049	40.103979
412	5	6	-0.55071932	-0.1647841	19.32844	40.975299
413	5	2	-0.20913788	0.15307129	19.004889	38.66037
414	5	2	-0.11283347	1.1114624	18.239957	37.739526
415	5	2	-0.091989768	0.75252946	18.462162	36.265939
416	5	2	-0.25734323	1.711022	17.69813	35.344671
417	5	5	0.51771856	1.3641113	17.912163	33.901444
418	5	6	-0.68101185	2.0278826	17.374671	33.0297
419	5	4	0.11451332	2.7521162	18.046127	35.519073
420	5	4	0.11451332	1.6559585	16.611153	35.568984
421	5	4	0.076050395	0.8089862	19.54924	36.032736
422	5	4	0.076050395	-0.28826792	18.113459	36.083028
423	5	4	0.084990503	2.1522597	18.58866	37.922438
424	5	4	0.084990503	1.0551071	17.153779	37.972306
425	5	4	0.11788034	0.20813487	20.091866	38.436058
426	5	4	0.11788034	-0.88901774	18.656985	38.485926
427	1	1	-0.177351	0.46290411	20.428009	44.280086
428	1	2	0.049295025	-0.74477648	20.209322	43.6018
429	1	2	-0.17076322	-0.49462408	19.906916	42.120283
430	1	2	0.096167328	0.15270155	21.092598	41.397946
431	1	7	-0.68460971	0.31044361	20.802329	40.035706
432	1	8	0.37924597	1.0866914	20.18719	39.96521
433	1	3	0.074516597	1.1390417	21.337706	41.855143
434	1	3	0.074516597	-0.5012294	21.986553	41.492918
435	1	4	0.096240731	-1.4657179	19.671942	41.633985
436	1	4	0.096240731	0.16000201	19.012298	42.031149
437	1	3	0.08197088	-1.2975181	19.361673	44.066567
438	1	3	0.08197088	-1.3815672	21.114732	43.696888
439	2	5	0.51771862	0.52799074	18.542378	33.61676
440	2	6	-0.68101185	0.72394132	19.714007	33.33698
441	2	2	-0.25734326	-0.86026264	17.975371	33.58781
442	2	2	-0.091989768	-1.4202031	17.970391	32.161686
443	2	2	-0.11030893	-2.830243	17.361047	32.127266
444	2	2	-0.21914656	-3.4471966	17.401613	30.722869
445	2	5	0.82474357	-2.7386134	16.479572	29.778978
446	2	6	-0.5519759	-2.9743184	15.241636	29.809281
447	2	7	-0.66452235	-1.7982756	16.9864	28.888442
448	2	8	0.39544526	-1.3012367	16.374547	28.253028
449	2	4	0.11891176	-3.4215002	18.43914	30.325131
450	2	4	0.11891176	-4.5137671	17.095142	30.788679
451	2	4	0.084990503	-3.4893497	17.938862	32.81203
452	2	4	0.084990503	-2.7994504	16.31065	32.492318
453	2	4	0.076050395	-1.4619591	19.01286	31.777167
454	2	4	0.076050395	-0.74361471	17.378498	31.507844
455	2	4	0.11451332	-0.82865218	16.934579	33.978182
456	2	4	0.11451332	-1.5130408	18.580056	34.253289
457	4	1	-0.17807919	1.6498548	23.218176	61.219194
458	4	2	0.040878477	0.91044994	22.142036	61.731665
459	4	2	-0.13552145	0.665038	21.081869	60.653176
460	4	2	0.14587011	-0.18281743	21.627141	59.500182
461	4	1	-0.49427423	-0.43663945	20.615224	58.565171
462	4	3	0.080019834	0.33163954	22.484175	59.009268
463	4	3	0.080019834	-1.1554734	21.990897	59.895317
464	4	4	0.092397908	0.13810941	20.217842	61.114047
465	4	4	0.092397908	1.6414107	20.721402	60.261558
466	4	3	0.082124004	1.4497468	21.681843	62.591451
467	4	3	0.082124004	-0.06206148	22.521869	62.112746
468	5	5	0.76250905	0.43943608	20.487816	58.019741
469	5	6	-0.55071932	1.4023799	21.196022	58.266127
470	5	2	-0.20913788	0.53169744	19.448551	56.942167
471	5	2	-0.11283347	-0.78534637	18.675843	56.801073
472	5	2	-0.091989768	-0.68558681	17.616319	55.697841
473	5	2	-0.25734323	-2.0020253	16.842821	55.556846
474	5	5	0.51771856	-1.9097657	15.80472	54.478469
475	5	6	-0.68101185	-2.8721041	15.095725	54.232182
476	5	4	0.11451332	-2.2441179	16.340914	56.518551
477	5	4	0.11451332	-2.8233178	17.548068	55.305906
478	5	4	0.076050395	0.13337284	16.903652	55.944254
479	5	4	0.076050395	-0.44582884	18.11197	54.730806
480	5	4	0.084990503	-1.0251043	18.180192	57.768108
481	5	4	0.084990503	-1.6037007	19.38772	56.554759
482	5	4	0.11788034	1.35299	18.743304	57.193107
483	5	4	0.11788034	0.77439368	19.950832	55.979758
484	1	1	-0.177351	2.5868303	22.90231	61.131492
485	1	2	0.049295025	2.9304606	23.036717	59.778628
486	1	2	-0.17076322	2.2697501	21.941984	58.93368
487	1	2	0.096167328	2.7598778	20.54487	59.32673
488	1	7	-0.68460971	2.1812502	19.576688	58.494474
489	1	8	0.37924597	1.2446676	19.460927	58.803244
490	1	3	0.074516597	2.5157288	20.330488	60.392754
491	1	3	0.074516597	3.8642282	20.493	59.210451
492	1	4	0.096240731	2.5085612	22.122645	57.863608
493	1	4	0.096240731	1.1655743	21.998278	59.053883
494	1	3	0.08197088	2.6188401	24.037047	59.401436
495	1	3	0.08197088	4.0350121	22.971807	59.678316
496	2	5	0.51771862	-0.99509876	15.671119	53.910272
497	2	6	-0.68101185	-0.19052486	14.820356	54.25415
498	2	2	-0.25734326	-0.71872282	16.543136	52.721665
499	2	2	-0.091989768	-0.68846094	15.717151	51.431618
500	2	2	-0.11030893	-0.43615792	16.614745	50.210404
501	2	2	-0.21914656	-0.33370581	15.809642	48.908129
502	2	5	0.82474357	-1.6496072	15.206174	48.524189
503	2	6	-0.5519759	-2.5339849	15.916841	47.974835
504	2	7	-0.66452235	-1.9064768	13.867647	48.800824
505	2	8	0.39544526	-2.7958377	13.448187	48.559468
506	2	4	0.11891176	0.43028636	15.009365	49.013915
507	2	4	0.11891176	0.0012245737	16.48575	48.091717
508	2	4	0.084990503	0.52176371	17.160901	50.356327
509	2	4	0.084990503	-1.247268	17.370729	50.120208
510	2	4	0.076050395	0.11839282	14.955083	51.4993
511	2	4	0.076050395	-1.6615687	15.193148	51.312872
512	2	4	0.11451332	-1.5176383	17.313443	52.650967
513	2	4	0.11451332	0.25425216	17.059191	52.868745
514	4	1	-0.17807919	-2.9946501	15.96431	68.224312
515	4	2	0.040878477	-3.2201381	17.346779	68.29751
516	4	2	-0.13552145	-2.4902429	17.959021	69.497399
517	4	2	0.14587011	-3.0130289	17.405015	70.826064
518	4	1	-0.49427423	-2.3658714	18.030577	71.899612
519	4	3	0.080019834	-2.8619443	16.302785	70.875358
520	4	3	0.080019834	-4.1025877	17.606479	70.908429
521	4	4	0.092397908	-2.6367437	19.061232	69.48106
522	4	4	0.092397908	-1.4006894	17.754592	69.409722
523	4	3	0.082124004	-2.8763803	17.841001	67.359733
524	4	3	0.082124004	-4.312576	17.529457	68.389611
525	5	5	0.76250905	-1.4165333	17.610646	71.960031
526	5	6	-0.55071932	-1.1051209	16.727935	71.176855
527	5	2	-0.20913788	-0.43226383	18.076767	72.991387
528	5	2	-0.11283347	-1.0274636	19.186985	73.865883
529	5	2	-0.091989768	-0.017847925	19.658359	74.918569
530	5	2	-0.25734323	-0.61221127	20.769056	75.792796
531	5	5	0.51771856	0.37176234	21.233897	76.824678
532	5	6	-0.68101185	0.061186352	22.117087	77.607587
533	5	4	0.11451332	-0.89805706	21.632903	75.154474
534	5	4	0.11451332	-1.5207577	20.390806	76.308874
535	5	4	0.076050395	0.89423131	20.042208	74.408588
536	5	4	0.076050395	0.27123476	18.798832	75.563514
537	5	4	0.084990503	-1.3165463	20.046512	73.220937
538	5	4	0.084990503	-1.9387064	18.803615	74.375596
539	5	4	0.11788034	0.47628265	18.455017	72.475309
540	5	4	0.11788034	-0.1458775	17.212119	73.629968
541	1	1	-0.177351	-2.0683663	15.845441	67.887779
542	1	2	0.049295025	-1.3766874	15.116558	68.865888
543	1	2	-0.17076322	-1.0400682	15.99991	70.072244
544	1	2	0.096167328	-0.095462737	17.145096	69.694207
545	1	7	-0.68460971	0.23746081	17.893795	70.831505
546	1	8	0.37924597	-0.55164801	18.459589	71.039137
547	1	3	0.074516597	-0.5650892	17.8018	68.925985