Title

88 atoms
89 bonds
168 angles
360 dihedrals
18 impropers

11 atom types
14 bond types
9 angle types
37 dihedral types
3 improper types
-3.075000048 96.92499995 xlo xhi
-3.025000095 96.9749999 ylo yhi
-2.822999954 97.17700005 zlo zhi
0.0 0.0 0.0 xy xz yz

Masses

1	12.01078
2	15.99943
3	14.00672
4	12.01078
5	1.007947
6	1.007947
7	1.007947
8	15.99943
9	12.01078
10	15.99943
11	1.007947


Pair Coeffs

1	0.086879315	3.4806469
2	0.2102061	3.0398122
3	0.16769152	3.206876
4	0.10884061	3.3795318
5	0.015779483	2.6445434
6	0.014090815	1.1034277
7	0.016409246	2.5832257
8	0.16846514	3.0251065
9	0.21	3.3996695
10	0.20947353	2.99716
11	1.2326e-05	0.53453923

Bond Coeffs

1 harmonic	582.698766451	1.225198386222
2 harmonic	492.76746816345	1.381897776683
3 harmonic	279.1350963404	1.454628925034
4 harmonic	352.0565580496	1.450098586273
5 harmonic	505.144496193	1.019481865027
6 harmonic	264.62148576755	1.52190126495
7 harmonic	370.04670688625	1.093899492634
8 harmonic	301.15400723785	1.345741232799
9 harmonic	366.7408841747	1.425895053732
10 harmonic	300.03137914615	1.451203938761
11 harmonic	366.34047229585	1.464762957261
12 harmonic	602.81384337	1.196112346392
13 harmonic	329.96998057905	1.427343958716
14 harmonic	543.5267831885	0.9716763312559


Angle Coeffs

1 harmonic	55.42182150775	117.3465570514
2 harmonic	63.44422595415	115.5071327674
3 harmonic	57.8982893754	126.8062420451
4 harmonic	53.20531626545	116.5475862634
5 harmonic	48.776492647595	115.6030999533
6 harmonic	65.09061609600001	110.3538806181
7 harmonic	201.41175231035	127.4691416191
8 harmonic	55.07882548015	112.8714009681
9 harmonic	33.56981613361	180


Dihedral Coeffs

1 fourier 1	-0.1488678166443	4	180
2 fourier 1	-0.1230328948768	3	180
3 fourier 1	0.2939295466901	2	0
4 fourier 1	-0.3024127022865	1	0
5 fourier 1	0.182238503271	2	0
6 fourier 1	0.02972342374561	3	0
7 fourier 1	1.809047390003	2	180
8 fourier 1	-0.04816277792592	1	0
9 fourier 1	3.101948770557	2	180
10 fourier 1	-0.4252153282372	1	0
11 fourier 1	2.348375642009	2	180
12 fourier 1	1.256156174911	1	0
13 fourier 1	0.9974165607242	2	180
14 fourier 1	0.1155372516788	3	0
15 fourier 1	0.1040663847541	3	0
16 fourier 1	0.09223874044423	3	0
17 fourier 1	0.3159935921949	2	180
18 fourier 1	0.3247796806857	1	180
19 fourier 1	0.1911926717192	3	0
20 fourier 1	2.779853741805	2	180
21 fourier 1	0.1918272375143	3	0
22 fourier 1	0.9202179876409	1	180
23 fourier 1	0.0473758381877	3	0
24 fourier 1	0.4860993122944	2	180
25 fourier 1	0.8916986138746	1	0
26 fourier 1	1.163809172478	2	180
27 fourier 1	0.1679186987369	1	180
28 fourier 1	-0.0309670556842	3	0
29 fourier 1	0.4598191477945	2	0
30 fourier 1	0.1115525666802	3	0
31 fourier 1	0.3432490222662	1	0
32 fourier 1	0.457973137376	1	0
33 fourier 1	-1.382973039546	1	0
34 fourier 1	0	1	0
35 fourier 1	0.3445382149273	3	0
36 fourier 1	0.1364556373303	1	0
37 fourier 1	0.3026390167484	3	0


Improper Coeffs

1 0.3333333333333333	-1	2
2 0.3666666666666667	-1	2
3 3.5	-1	2


Atoms

1	1	1	0.54419202	4.0289998	0.48899999	1.378
2	1	2	-0.68225002	4.243	-0.71499997	1.679
3	1	3	-0.48869699	2.914	0.85399997	0.56
4	1	4	0.00033499999	1.977	-0.15700001	0.055
5	1	4	-0.0076899999	0.87	0.421	-0.88499999
6	1	4	-0.16940901	1.567	1.123	-2.082
7	1	5	0.074225999	2.2520001	0.419	-2.602
8	1	5	0.074225999	0.82099998	1.485	-2.823
9	1	5	0.074225999	2.151	2.0090001	-1.763
10	1	4	-0.2044	-0.037	1.4579999	-0.167
11	1	5	0.11336	0.574	2.2349999	0.338
12	1	5	0.11336	-0.65399998	1.99	-0.92699999
13	1	4	0.12877101	-0.98799998	0.82499999	0.86299998
14	1	3	-0.51618701	-1.8049999	1.867	1.4960001
15	1	1	0.807486	-2.503	1.655	2.7279999
16	1	2	-0.600833	-2.428	0.55299997	3.3340001
17	1	6	0.31683701	-1.867	2.8169999	1.064
18	1	7	0.048530001	-0.382	0.33899999	1.655
19	1	4	-0.20799901	-1.905	-0.20100001	0.17399999
20	1	5	0.114895	-2.5439999	0.345	-0.55699998
21	1	5	0.114895	-2.5910001	-0.65200001	0.926
22	1	4	-0.027438	-1.128	-1.3279999	-0.55500001
23	1	4	-0.17116	-2.1259999	-2.092	-1.46
24	1	5	0.077270001	-1.614	-2.924	-1.99
25	1	5	0.077270001	-2.575	-1.419	-2.2219999
26	1	5	0.077270001	-2.9590001	-2.52	-0.86000001
27	1	4	-0.17116	-0.56800002	-2.3559999	0.463
28	1	5	0.077270001	-0.152	-1.8839999	1.37
29	1	5	0.077270001	0.212	-2.9949999	-0.0040000002
30	1	5	0.077270001	-1.375	-3.0250001	0.833
31	1	4	-0.210281	-0.011	-0.73100001	-1.473
32	1	5	0.115088	-0.51999998	-0.32600001	-2.378
33	1	5	0.115088	0.64200002	-1.549	-1.851
34	1	7	0.071399003	2.556	-0.926	-0.50099999
35	1	7	0.071399003	1.536	-0.66000003	0.92799997
36	1	6	0.31753099	2.7869999	1.869	0.36199999
37	1	8	-0.49826899	-3.075	2.4200001	3.132
38	1	4	0.130953	-2.3410001	3.602	2.961
39	1	4	0.051001001	-1.209	3.6760001	3.9849999
40	1	8	-0.14711501	-0.51700002	4.888	3.859
41	1	7	0.090845004	-1.636	3.6159999	5.0079999
42	1	7	0.090845004	-0.51300001	2.8169999	3.8510001
43	1	7	0.091766	-3.023	4.467	3.1070001
44	1	7	0.091766	-1.9299999	3.658	1.928
45	1	1	0.55685598	4.698	1.256	1.745
46	1	2	-0.67170602	4.2490001	2.158	2.5009999
47	1	3	-0.567366	6.0770001	1.2359999	1.36
48	1	4	0.12658	7.0419998	2.2379999	1.83
49	1	7	0.046371002	6.5580001	3.2320001	1.76
50	1	4	-0.20911001	7.4299998	1.9349999	3.289
51	1	5	0.114895	6.52	1.96	3.928
52	1	5	0.114895	7.8239999	0.89399999	3.3299999
53	1	4	-0.027973	8.4890003	2.9130001	3.862
54	1	4	-0.17116	9.0039997	2.3329999	5.2010002
55	1	5	0.077270001	9.7609997	3.0090001	5.6550002
56	1	5	0.077270001	8.1709995	2.2049999	5.9260001
57	1	5	0.077270001	9.4759998	1.337	5.053
58	1	4	-0.17116	7.8559999	4.29	4.1830001
59	1	5	0.077270001	7.23	4.6789999	3.365
60	1	5	0.077270001	7.1830001	4.2140002	5.0640001
61	1	5	0.077270001	8.6420002	5.039	4.4190001
62	1	4	-0.208978	9.7060003	3.0380001	2.8929999
63	1	5	0.113774	10.292	2.095	2.9849999
64	1	5	0.113774	10.391	3.8369999	3.25
65	1	4	0.025099	9.3879995	3.2290001	1.373
66	1	4	-0.167955	10.675	2.908	0.57099998
67	1	5	0.070780002	10.5	3.0209999	-0.52100003
68	1	5	0.070780002	11.504	3.5880001	0.86500001
69	1	5	0.070780002	11.011	1.864	0.75199997
70	1	4	0.14393599	8.9680004	4.684	1.0089999
71	1	3	-0.61949098	9.9189997	5.6589999	1.533
72	1	9	0.60104698	9.7629995	6.9060001	1.335
73	1	2	-0.45767301	9.6110001	8.1190004	1.142
74	1	7	0.069866002	7.9569998	4.9299998	1.372
75	1	7	0.069866002	8.9189997	4.7880001	-0.098999999
76	1	4	-0.205496	8.2919998	2.2219999	0.93099999
77	1	5	0.113237	8.7130003	1.191	0.94199997
78	1	5	0.113237	7.987	2.4349999	-0.118
79	1	6	0.31382701	6.3790002	0.49200001	0.69099998
80	1	8	-0.14139301	0.063000001	4.802	3.0569999
81	1	4	0.021228001	-0.79400003	4.7030001	1.952
82	1	4	0.093235999	-1.4	3.302	1.876
83	1	10	-0.68158197	-2.2030001	3.1819999	0.73299998
84	1	11	0.390672	-3.0510001	3.6600001	0.93000001
85	1	7	0.087941997	-0.583	2.552	1.816
86	1	7	0.087941997	-1.9960001	3.0910001	2.793
87	1	7	0.091522999	-0.206	4.8979998	1.03
88	1	7	0.091522999	-1.6	5.4689999	2.016

Bonds

1	1	1	2
2	2	1	3
3	3	1	45
4	4	3	4
5	5	3	36
6	6	4	5
7	7	4	34
8	7	4	35
9	6	5	6
10	6	5	10
11	6	5	31
12	7	6	7
13	7	6	8
14	7	6	9
15	7	10	11
16	7	10	12
17	6	10	13
18	4	13	14
19	7	13	18
20	6	13	19
21	2	14	15
22	5	14	17
23	1	15	16
24	8	15	37
25	7	19	20
26	7	19	21
27	6	19	22
28	6	22	23
29	6	22	27
30	6	22	31
31	7	23	24
32	7	23	25
33	7	23	26
34	7	27	28
35	7	27	29
36	7	27	30
37	7	31	32
38	7	31	33
39	9	37	38
40	6	38	39
41	7	38	43
42	7	38	44
43	9	39	40
44	7	39	41
45	7	39	42
46	10	40	80
47	1	45	46
48	2	45	47
49	4	47	48
50	5	47	79
51	7	48	49
52	6	48	50
53	6	48	76
54	7	50	51
55	7	50	52
56	6	50	53
57	6	53	54
58	6	53	58
59	6	53	62
60	7	54	55
61	7	54	56
62	7	54	57
63	7	58	59
64	7	58	60
65	7	58	61
66	7	62	63
67	7	62	64
68	6	62	65
69	6	65	66
70	6	65	70
71	6	65	76
72	7	66	67
73	7	66	68
74	7	66	69
75	11	70	71
76	7	70	74
77	7	70	75
78	12	71	72
79	1	72	73
80	7	76	77
81	7	76	78
82	9	80	81
83	6	81	82
84	7	81	87
85	7	81	88
86	13	82	83
87	7	82	85
88	7	82	86
89	14	83	84

Angles

1	4	3	4	34
2	5	51	50	52
3	4	53	58	61
4	4	52	50	53
5	4	47	48	50
6	1	1	3	4
7	4	6	5	10
8	4	65	66	69
9	4	37	38	39
10	5	56	54	57
11	4	81	82	85
12	5	85	82	86
13	3	1	45	46
14	4	14	13	18
15	4	40	39	42
16	4	82	81	88
17	5	77	76	78
18	4	53	62	64
19	4	65	76	78
20	4	70	65	76
21	1	45	47	48
22	2	1	3	36
23	6	15	37	38
24	4	13	19	21
25	3	2	1	45
26	3	46	45	47
27	4	51	50	53
28	4	53	58	59
29	4	65	70	75
30	5	55	54	57
31	7	16	15	37
32	4	81	82	86
33	4	5	10	13
34	3	1	45	47
35	4	14	13	19
36	4	54	53	62
37	3	2	1	3
38	4	48	50	53
39	4	5	6	9
40	4	22	23	24
41	4	5	31	32
42	4	65	70	71
43	4	23	22	27
44	2	45	47	79
45	4	39	38	43
46	4	10	13	18
47	4	53	54	57
48	5	41	39	42
49	8	70	71	72
50	4	66	65	76
51	4	22	27	30
52	2	13	14	17
53	4	22	23	25
54	4	10	13	14
55	4	19	22	31
56	5	7	6	8
57	4	81	82	83
58	5	28	27	29
59	5	29	27	30
60	4	10	13	19
61	4	50	48	76
62	4	18	13	19
63	5	32	31	33
64	4	37	38	44
65	4	19	22	27
66	5	11	10	12
67	4	3	4	35
68	4	64	62	65
69	4	71	70	74
70	4	23	22	31
71	4	19	22	23
72	4	62	65	76
73	4	80	81	82
74	4	22	31	32
75	5	63	62	64
76	6	39	40	80
77	4	5	6	7
78	4	12	10	13
79	4	53	62	65
80	5	67	66	68
81	4	4	5	10
82	5	68	66	69
83	4	13	19	22
84	6	40	80	81
85	5	74	70	75
86	4	71	70	75
87	4	53	54	55
88	5	87	81	88
89	4	5	4	34
90	4	38	39	40
91	2	15	14	17
92	4	3	4	5
93	4	22	31	33
94	4	50	53	58
95	4	49	48	76
96	4	27	22	31
97	1	13	14	15
98	2	48	47	79
99	4	5	6	8
100	4	5	31	33
101	5	60	58	61
102	5	67	66	69
103	3	14	15	16
104	4	65	66	67
105	4	5	31	22
106	4	6	5	31
107	5	8	6	9
108	4	39	38	44
109	4	66	65	70
110	4	50	53	54
111	4	5	4	35
112	2	4	3	36
113	5	34	4	35
114	4	4	5	6
115	4	48	76	65
116	5	20	19	21
117	3	14	15	37
118	4	50	53	62
119	4	22	23	26
120	4	53	58	60
121	4	83	82	85
122	5	59	58	60
123	4	65	66	68
124	5	7	6	9
125	4	5	10	11
126	5	28	27	30
127	4	40	39	41
128	4	48	50	51
129	4	58	53	62
130	5	43	38	44
131	4	48	76	77
132	9	71	72	73
133	4	49	48	50
134	4	80	81	87
135	4	20	19	22
136	4	11	10	13
137	4	62	65	70
138	4	65	70	74
139	4	83	82	86
140	5	55	54	56
141	5	59	58	61
142	4	5	10	12
143	4	54	53	58
144	4	63	62	65
145	4	62	65	66
146	4	22	27	28
147	4	48	50	52
148	4	48	76	78
149	6	82	83	84
150	4	80	81	88
151	4	47	48	76
152	5	24	23	25
153	5	25	23	26
154	4	53	54	56
155	4	38	39	41
156	4	10	5	31
157	4	22	27	29
158	3	3	1	45
159	4	47	48	49
160	5	24	23	26
161	4	82	81	87
162	4	53	62	63
163	4	65	76	77
164	4	38	39	42
165	4	37	38	43
166	4	13	19	20
167	4	21	19	22
168	4	4	5	31

Dihedrals

1	19	49	48	50	51
2	16	13	10	5	31
2	17	13	10	5	31
2	18	13	10	5	31
3	13	2	1	45	46
4	5	76	48	47	79
4	6	76	48	47	79
5	16	10	13	19	22
5	17	10	13	19	22
5	18	10	13	19	22
6	15	70	65	76	77
7	28	80	81	82	83
7	29	80	81	82	83
8	15	12	10	5	31
9	15	63	62	65	76
10	15	54	53	58	61
11	14	3	4	5	6
12	23	40	80	81	88
13	15	52	50	53	58
14	19	11	10	13	18
15	5	10	13	14	17
15	6	10	13	14	17
16	15	6	5	10	12
17	23	38	39	40	80
18	16	5	10	13	19
18	17	5	10	13	19
18	18	5	10	13	19
19	16	53	62	65	76
19	17	53	62	65	76
19	18	53	62	65	76
20	15	19	22	23	26
21	19	49	48	50	52
22	15	10	5	4	35
23	11	2	1	3	36
23	12	2	1	3	36
24	15	62	65	76	78
25	5	49	48	47	79
25	6	49	48	47	79
26	15	62	65	66	67
27	15	70	65	76	78
28	23	15	37	38	43
29	15	64	62	65	76
30	15	21	19	22	31
31	15	30	27	22	31
32	5	34	4	3	36
32	6	34	4	3	36
33	19	12	10	13	18
34	7	17	14	15	37
34	8	17	14	15	37
35	16	48	50	53	62
35	17	48	50	53	62
35	18	48	50	53	62
36	14	47	48	76	65
37	15	68	66	65	76
38	15	11	10	13	19
39	15	23	22	31	33
40	16	6	5	10	13
40	17	6	5	10	13
40	18	6	5	10	13
41	7	36	3	1	45
41	8	36	3	1	45
42	15	52	50	53	62
43	15	75	70	65	76
44	15	18	13	19	22
45	15	4	5	10	12
46	15	55	54	53	58
47	15	31	5	4	35
48	21	15	37	38	39
48	22	15	37	38	39
49	7	13	14	15	16
49	8	13	14	15	16
50	15	6	5	31	32
51	15	21	19	22	27
52	16	13	19	22	27
52	17	13	19	22	27
52	18	13	19	22	27
53	15	49	48	76	65
54	15	19	22	31	33
55	15	54	53	62	63
56	14	14	13	19	20
57	32	39	40	80	81
58	15	19	22	27	28
59	14	47	48	50	51
60	15	74	70	65	76
61	30	83	82	81	87
61	31	83	82	81	87
62	14	47	48	76	77
63	26	16	15	37	38
63	27	16	15	37	38
64	15	12	10	13	19
65	16	50	53	62	65
65	17	50	53	62	65
65	18	50	53	62	65
66	23	42	39	40	80
67	15	58	53	62	63
68	15	21	19	22	23
69	16	13	19	22	23
69	17	13	19	22	23
69	18	13	19	22	23
70	15	9	6	5	31
71	16	48	76	65	70
71	17	48	76	65	70
71	18	48	76	65	70
72	7	4	3	1	45
72	8	4	3	1	45
73	5	15	14	13	18
73	6	15	14	13	18
74	16	4	5	10	13
74	17	4	5	10	13
74	18	4	5	10	13
75	19	42	39	38	43
76	15	55	54	53	62
77	13	3	1	45	47
78	19	49	48	76	77
79	15	50	53	54	55
80	15	4	5	6	9
81	15	9	6	5	10
82	15	66	65	70	74
83	15	4	5	31	32
84	14	14	13	19	21
85	15	23	22	27	29
86	16	48	76	65	66
86	17	48	76	65	66
86	18	48	76	65	66
87	14	47	48	50	52
88	5	35	4	3	36
88	6	35	4	3	36
89	5	5	4	3	36
89	6	5	4	3	36
90	15	8	6	5	10
91	14	47	48	76	78
92	19	86	82	81	87
93	5	50	48	47	79
93	6	50	48	47	79
94	5	1	3	4	35
94	6	1	3	4	35
95	15	57	54	53	58
96	15	58	53	62	64
97	16	48	76	65	62
97	17	48	76	65	62
97	18	48	76	65	62
98	16	5	31	22	27
98	17	5	31	22	27
98	18	5	31	22	27
99	13	2	1	45	47
100	19	42	39	38	44
101	15	10	5	31	32
102	37	84	83	82	85
103	19	49	48	76	78
104	15	54	53	58	59
105	16	13	19	22	31
105	17	13	19	22	31
105	18	13	19	22	31
106	19	41	39	38	43
107	15	67	66	65	70
108	14	3	4	5	31
109	15	24	23	22	31
110	15	23	22	27	30
111	33	65	70	71	72
112	30	40	39	38	43
112	31	40	39	38	43
113	16	50	48	76	65
113	17	50	48	76	65
113	18	50	48	76	65
114	16	5	31	22	23
114	17	5	31	22	23
114	18	5	31	22	23
115	15	20	19	22	31
116	15	51	50	53	58
117	15	27	22	31	32
118	15	50	53	58	60
119	15	49	48	50	53
120	15	51	50	48	76
121	15	57	54	53	62
122	15	68	66	65	70
123	1	45	47	48	76
123	2	45	47	48	76
123	3	45	47	48	76
123	4	45	47	48	76
124	14	66	65	70	71
125	15	24	23	22	27
126	15	66	65	76	77
127	15	62	65	66	68
128	15	10	5	31	33
129	30	80	81	82	85
129	31	80	81	82	85
130	16	5	31	22	19
130	17	5	31	22	19
130	18	5	31	22	19
131	15	7	6	5	31
132	23	15	37	38	44
133	28	37	38	39	40
133	29	37	38	39	40
134	1	1	3	4	5
134	2	1	3	4	5
134	3	1	3	4	5
134	4	1	3	4	5
135	15	20	19	22	27
136	15	51	50	53	54
137	37	84	83	82	86
138	19	41	39	38	44
139	15	56	54	53	58
140	15	6	5	4	34
141	15	69	66	65	76
142	15	50	48	76	77
143	33	72	71	70	74
144	7	13	14	15	37
144	8	13	14	15	37
145	15	10	13	19	20
146	5	45	47	48	49
146	6	45	47	48	49
147	5	17	14	13	18
147	6	17	14	13	18
148	15	27	22	31	33
149	15	6	5	31	33
150	15	20	19	22	23
151	15	4	5	6	7
152	15	52	50	48	76
153	15	54	53	62	64
154	1	10	13	14	15
154	2	10	13	14	15
154	3	10	13	14	15
154	4	10	13	14	15
155	15	62	65	70	74
156	15	19	22	27	29
157	15	62	65	66	69
158	30	83	82	81	88
158	31	83	82	81	88
159	15	19	22	23	24
160	30	37	38	39	41
160	31	37	38	39	41
161	15	6	5	4	35
162	15	63	62	65	70
163	19	85	82	81	87
164	9	46	45	47	48
164	10	46	45	47	48
165	15	50	48	76	78
166	1	15	14	13	19
166	2	15	14	13	19
166	3	15	14	13	19
166	4	15	14	13	19
167	23	40	80	81	82
168	16	53	50	48	76
168	17	53	50	48	76
168	18	53	50	48	76
169	15	61	58	53	62
170	16	53	62	65	70
170	17	53	62	65	70
170	18	53	62	65	70
171	5	17	14	13	19
171	6	17	14	13	19
172	24	16	15	14	17
172	25	16	15	14	17
173	15	50	53	54	56
174	15	63	62	65	66
175	15	66	65	70	75
176	15	4	5	31	33
177	14	14	13	19	22
178	16	54	53	62	65
178	17	54	53	62	65
178	18	54	53	62	65
179	15	6	5	10	11
180	15	19	22	27	30
181	15	5	10	13	18
182	14	47	48	50	53
183	15	62	65	70	75
184	19	18	13	19	20
185	15	59	58	53	62
186	16	53	62	65	66
186	17	53	62	65	66
186	18	53	62	65	66
187	19	86	82	81	88
188	15	64	62	65	70
189	16	58	53	62	65
189	17	58	53	62	65
189	18	58	53	62	65
190	19	85	82	81	88
191	15	10	5	4	34
192	14	62	65	70	71
193	11	46	45	47	79
193	12	46	45	47	79
194	15	62	65	76	77
195	14	5	10	13	14
196	15	25	23	22	31
197	16	48	50	53	58
197	17	48	50	53	58
197	18	48	50	53	58
198	15	50	53	54	57
199	16	10	5	31	22
199	17	10	5	31	22
199	18	10	5	31	22
200	9	2	1	3	4
200	10	2	1	3	4
201	15	50	53	62	63
202	15	64	62	65	66
203	15	23	22	31	32
204	30	40	39	38	44
204	31	40	39	38	44
205	19	18	13	19	21
206	15	4	5	10	11
207	15	25	23	22	27
208	15	31	5	4	34
209	34	70	71	72	73
210	15	50	53	58	61
211	16	48	50	53	54
211	17	48	50	53	54
211	18	48	50	53	54
212	15	51	50	53	62
213	15	67	66	65	76
214	15	28	27	22	31
215	15	19	22	31	32
216	16	6	5	31	22
216	17	6	5	31	22
216	18	6	5	31	22
217	15	26	23	22	31
218	7	1	45	47	48
218	8	1	45	47	48
219	14	11	10	13	14
220	15	52	50	53	54
221	15	60	58	53	62
222	15	66	65	76	78
223	15	69	66	65	70
224	30	80	81	82	86
224	31	80	81	82	86
225	14	3	4	5	10
226	15	8	6	5	31
227	15	29	27	22	31
228	15	50	53	62	64
229	15	56	54	53	62
230	33	72	71	70	75
231	15	26	23	22	27
232	15	10	13	19	21
233	15	50	53	58	59
234	1	45	47	48	50
234	2	45	47	48	50
234	3	45	47	48	50
234	4	45	47	48	50
235	13	3	1	45	46
236	23	41	39	40	80
237	15	54	53	58	60
238	15	11	10	5	31
239	14	12	10	13	14
240	15	4	5	6	8
241	23	40	80	81	87
242	35	81	82	83	84
242	36	81	82	83	84
243	15	23	22	27	28
244	15	7	6	5	10
245	14	71	70	65	76
246	16	4	5	31	22
246	17	4	5	31	22
246	18	4	5	31	22
247	15	19	22	23	25
248	7	1	45	47	79
248	8	1	45	47	79
249	30	37	38	39	42
249	31	37	38	39	42
250	20	14	15	37	38
251	5	1	3	4	34
251	6	1	3	4	34

Impropers

25	1	47	48	79	45
58	3	15	16	37	14
62	2	1	2	3	45
99	1	47	79	45	48
212	1	47	45	48	79
244	1	14	13	15	17
250	1	3	36	1	4
276	1	3	1	4	36
277	1	14	17	13	15
294	2	45	47	1	46
325	3	15	14	16	37
382	2	1	45	2	3
392	2	45	1	46	47
438	2	1	3	45	2
452	1	14	15	17	13
549	1	3	4	36	1
597	2	45	46	47	1
610	3	15	37	14	16
