Title

88 atoms
89 bonds
168 angles
360 dihedrals
18 impropers

11 atom types
14 bond types
9 angle types
37 dihedral types
3 improper types
-3.075000048 96.92499995 xlo xhi
-3.025000095 96.9749999 ylo yhi
-2.822999954 97.17700005 zlo zhi
0.0 0.0 0.0 xy xz yz

Masses

1	12.01078
2	15.99943
3	14.00672
4	12.01078
5	1.007947
6	1.007947
7	1.007947
8	15.99943
9	12.01078
10	15.99943
11	1.007947


Pair Coeffs

1	0.086879315	3.4806469
2	0.2102061	3.0398122
3	0.16769152	3.206876
4	0.10884061	3.3795318
5	0.015779483	2.6445434
6	0.014090815	1.1034277
7	0.016409246	2.5832257
8	0.16846514	3.0251065
9	0.21	3.3996695
10	0.20947353	2.99716
11	1.2326e-05	0.53453923

Bond Coeffs

1 harmonic	582.698766451	1.225198386222
2 harmonic	492.76746816345	1.381897776683
3 harmonic	279.1350963404	1.454628925034
4 harmonic	352.0565580496	1.450098586273
5 harmonic	505.144496193	1.019481865027
6 harmonic	264.62148576755	1.52190126495
7 harmonic	370.04670688625	1.093899492634
8 harmonic	301.15400723785	1.345741232799
9 harmonic	366.7408841747	1.425895053732
10 harmonic	300.03137914615	1.451203938761
11 harmonic	366.34047229585	1.464762957261
12 harmonic	602.81384337	1.196112346392
13 harmonic	329.96998057905	1.427343958716
14 harmonic	543.5267831885	0.9716763312559


Angle Coeffs

1 harmonic	55.42182150775	117.3465570514
2 harmonic	63.44422595415	115.5071327674
3 harmonic	57.8982893754	126.8062420451
4 harmonic	53.20531626545	116.5475862634
5 harmonic	48.776492647595	115.6030999533
6 harmonic	65.09061609600001	110.3538806181
7 harmonic	201.41175231035	127.4691416191
8 harmonic	55.07882548015	112.8714009681
9 harmonic	33.56981613361	180


Dihedral Coeffs

1 fourier 1	-0.1488678166443	4	180
2 fourier 1	-0.1230328948768	3	180
3 fourier 1	0.2939295466901	2	0
4 fourier 1	-0.3024127022865	1	0
5 fourier 1	0.182238503271	2	0
6 fourier 1	0.02972342374561	3	0
7 fourier 1	1.809047390003	2	180
8 fourier 1	-0.04816277792592	1	0
9 fourier 1	3.101948770557	2	180
10 fourier 1	-0.4252153282372	1	0
11 fourier 1	2.348375642009	2	180
12 fourier 1	1.256156174911	1	0
13 fourier 1	0.9974165607242	2	180
14 fourier 1	0.1155372516788	3	0
15 fourier 1	0.1040663847541	3	0
16 fourier 1	0.09223874044423	3	0
17 fourier 1	0.3159935921949	2	180
18 fourier 1	0.3247796806857	1	180
19 fourier 1	0.1911926717192	3	0
20 fourier 1	2.779853741805	2	180
21 fourier 1	0.1918272375143	3	0
22 fourier 1	0.9202179876409	1	180
23 fourier 1	0.0473758381877	3	0
24 fourier 1	0.4860993122944	2	180
25 fourier 1	0.8916986138746	1	0
26 fourier 1	1.163809172478	2	180
27 fourier 1	0.1679186987369	1	180
28 fourier 1	-0.0309670556842	3	0
29 fourier 1	0.4598191477945	2	0
30 fourier 1	0.1115525666802	3	0
31 fourier 1	0.3432490222662	1	0
32 fourier 1	0.457973137376	1	0
33 fourier 1	-1.382973039546	1	0
34 fourier 1	0	1	0
35 fourier 1	0.3445382149273	3	0
36 fourier 1	0.1364556373303	1	0
37 fourier 1	0.3026390167484	3	0


Improper Coeffs

1 0.3333333333333333	-1	2
2 0.3666666666666667	-1	2
3 3.5	-1	2


Atoms

1	1	1	0.54419202	4.0289998	0.48899999	1.378
2	1	2	-0.68225002	4.243	-0.71499997	1.679
3	1	3	-0.48869699	2.914	0.85399997	0.56
4	1	4	0.00033499999	1.977	-0.15700001	0.055
5	1	4	-0.0076899999	0.87	0.421	-0.88499999
6	1	4	-0.16940901	1.567	1.123	-2.082
7	1	5	0.074225999	2.2520001	0.419	-2.602
8	1	5	0.074225999	0.82099998	1.485	-2.823
9	1	5	0.074225999	2.151	2.0090001	-1.763
10	1	4	-0.2044	-0.037	1.4579999	-0.167
11	1	5	0.11336	0.574	2.2349999	0.338
12	1	5	0.11336	-0.65399998	1.99	-0.92699999
13	1	4	0.12877101	-0.98799998	0.82499999	0.86299998
14	1	3	-0.51618701	-1.8049999	1.867	1.4960001
15	1	1	0.807486	-2.503	1.655	2.7279999
16	1	2	-0.600833	-2.428	0.55299997	3.3340001
17	1	6	0.31683701	-1.867	2.8169999	1.064
18	1	7	0.048530001	-0.382	0.33899999	1.655
19	1	4	-0.20799901	-1.905	-0.20100001	0.17399999
20	1	5	0.114895	-2.5439999	0.345	-0.55699998
21	1	5	0.114895	-2.5910001	-0.65200001	0.926
22	1	4	-0.027438	-1.128	-1.3279999	-0.55500001
23	1	4	-0.17116	-2.1259999	-2.092	-1.46
24	1	5	0.077270001	-1.614	-2.924	-1.99
25	1	5	0.077270001	-2.575	-1.419	-2.2219999
26	1	5	0.077270001	-2.9590001	-2.52	-0.86000001
27	1	4	-0.17116	-0.56800002	-2.3559999	0.463
28	1	5	0.077270001	-0.152	-1.8839999	1.37
29	1	5	0.077270001	0.212	-2.9949999	-0.0040000002
30	1	5	0.077270001	-1.375	-3.0250001	0.833
31	1	4	-0.210281	-0.011	-0.73100001	-1.473
32	1	5	0.115088	-0.51999998	-0.32600001	-2.378
33	1	5	0.115088	0.64200002	-1.549	-1.851
34	1	7	0.071399003	2.556	-0.926	-0.50099999
35	1	7	0.071399003	1.536	-0.66000003	0.92799997
36	1	6	0.31753099	2.7869999	1.869	0.36199999
37	1	8	-0.49826899	-3.075	2.4200001	3.132
38	1	4	0.130953	-2.3410001	3.602	2.961
39	1	4	0.051001001	-1.209	3.6760001	3.9849999
40	1	8	-0.14711501	-0.51700002	4.888	3.859
41	1	7	0.090845004	-1.636	3.6159999	5.0079999
42	1	7	0.090845004	-0.51300001	2.8169999	3.8510001
43	1	7	0.091766	-3.023	4.467	3.1070001
44	1	7	0.091766	-1.9299999	3.658	1.928
45	1	1	0.55685598	4.698	1.256	1.745
46	1	2	-0.67170602	4.2490001	2.158	2.5009999
47	1	3	-0.567366	6.0770001	1.2359999	1.36
48	1	4	0.12658	7.0419998	2.2379999	1.83
49	1	7	0.046371002	6.5580001	3.2320001	1.76
50	1	4	-0.20911001	7.4299998	1.9349999	3.289
51	1	5	0.114895	6.52	1.96	3.928
52	1	5	0.114895	7.8239999	0.89399999	3.3299999
53	1	4	-0.027973	8.4890003	2.9130001	3.862
54	1	4	-0.17116	9.0039997	2.3329999	5.2010002
55	1	5	0.077270001	9.7609997	3.0090001	5.6550002
56	1	5	0.077270001	8.1709995	2.2049999	5.9260001
57	1	5	0.077270001	9.4759998	1.337	5.053
58	1	4	-0.17116	7.8559999	4.29	4.1830001
59	1	5	0.077270001	7.23	4.6789999	3.365
60	1	5	0.077270001	7.1830001	4.2140002	5.0640001
61	1	5	0.077270001	8.6420002	5.039	4.4190001
62	1	4	-0.208978	9.7060003	3.0380001	2.8929999
63	1	5	0.113774	10.292	2.095	2.9849999
64	1	5	0.113774	10.391	3.8369999	3.25
65	1	4	0.025099	9.3879995	3.2290001	1.373
66	1	4	-0.167955	10.675	2.908	0.57099998
67	1	5	0.070780002	10.5	3.0209999	-0.52100003
68	1	5	0.070780002	11.504	3.5880001	0.86500001
69	1	5	0.070780002	11.011	1.864	0.75199997
70	1	4	0.14393599	8.9680004	4.684	1.0089999
71	1	3	-0.61949098	9.9189997	5.6589999	1.533
72	1	9	0.60104698	9.7629995	6.9060001	1.335
73	1	2	-0.45767301	9.6110001	8.1190004	1.142
74	1	7	0.069866002	7.9569998	4.9299998	1.372
75	1	7	0.069866002	8.9189997	4.7880001	-0.098999999
76	1	4	-0.205496	8.2919998	2.2219999	0.93099999
77	1	5	0.113237	8.7130003	1.191	0.94199997
78	1	5	0.113237	7.987	2.4349999	-0.118
79	1	6	0.31382701	6.3790002	0.49200001	0.69099998
80	1	8	-0.14139301	0.063000001	4.802	3.0569999
81	1	4	0.021228001	-0.79400003	4.7030001	1.952
82	1	4	0.093235999	-1.4	3.302	1.876
83	1	10	-0.68158197	-2.2030001	3.1819999	0.73299998
84	1	11	0.390672	-3.0510001	3.6600001	0.93000001
85	1	7	0.087941997	-0.583	2.552	1.816
86	1	7	0.087941997	-1.9960001	3.0910001	2.793
87	1	7	0.091522999	-0.206	4.8979998	1.03
88	1	7	0.091522999	-1.6	5.4689999	2.016

Bonds

1	1	1	2
2	2	1	3
3	3	1	45
4	4	3	4
5	5	3	36
6	6	4	5
7	7	4	34
8	7	4	35
9	6	5	6
10	6	5	10
11	6	5	31
12	7	6	7
13	7	6	8
14	7	6	9
15	7	10	11
16	7	10	12
17	6	10	13
18	4	13	14
19	7	13	18
20	6	13	19
21	2	14	15
22	5	14	17
23	1	15	16
24	8	15	37
25	7	19	20
26	7	19	21
27	6	19	22
28	6	22	23
29	6	22	27
30	6	22	31
31	7	23	24
32	7	23	25
33	7	23	26
34	7	27	28
35	7	27	29
36	7	27	30
37	7	31	32
38	7	31	33
39	9	37	38
40	6	38	39
41	7	38	43
42	7	38	44
43	9	39	40
44	7	39	41
45	7	39	42
46	10	40	80
47	1	45	46
48	2	45	47
49	4	47	48
50	5	47	79
51	7	48	49
52	6	48	50
53	6	48	76
54	7	50	51
55	7	50	52
56	6	50	53
57	6	53	54
58	6	53	58
59	6	53	62
60	7	54	55
61	7	54	56
62	7	54	57
63	7	58	59
64	7	58	60
65	7	58	61
66	7	62	63
67	7	62	64
68	6	62	65
69	6	65	66
70	6	65	70
71	6	65	76
72	7	66	67
73	7	66	68
74	7	66	69
75	11	70	71
76	7	70	74
77	7	70	75
78	12	71	72
79	1	72	73
80	7	76	77
81	7	76	78
82	9	80	81
83	6	81	82
84	7	81	87
85	7	81	88
86	13	82	83
87	7	82	85
88	7	82	86
89	14	83	84

Angles

1	4	22	27	29
2	5	25	23	26
3	4	3	4	5
4	4	22	23	24
5	4	65	70	71
6	4	5	10	13
7	6	40	80	81
8	4	50	53	62
9	6	82	83	84
10	4	10	13	14
11	4	53	58	61
12	4	6	5	31
13	4	22	31	33
14	4	81	82	86
15	4	53	54	56
16	4	50	53	58
17	1	45	47	48
18	5	24	23	26
19	4	53	62	63
20	4	48	50	53
21	4	22	27	30
22	4	62	65	76
23	2	13	14	17
24	5	28	27	30
25	4	38	39	40
26	4	5	6	9
27	4	64	62	65
28	4	50	53	54
29	4	49	48	50
30	4	13	19	21
31	4	5	31	22
32	4	53	62	64
33	4	63	62	65
34	4	38	39	41
35	4	23	22	31
36	5	20	19	21
37	4	14	13	18
38	5	11	10	12
39	4	13	19	22
40	3	3	1	45
41	4	48	76	78
42	4	23	22	27
43	6	15	37	38
44	5	55	54	56
45	5	59	58	60
46	4	54	53	62
47	4	82	81	88
48	7	16	15	37
49	4	80	81	82
50	4	10	13	19
51	4	6	5	10
52	5	67	66	68
53	4	22	23	25
54	4	5	6	7
55	4	11	10	13
56	4	54	53	58
57	4	65	66	67
58	4	5	10	11
59	3	1	45	46
60	5	59	58	61
61	5	29	27	30
62	4	53	54	57
63	5	7	6	8
64	4	19	22	31
65	4	58	53	62
66	5	60	58	61
67	5	85	82	86
68	5	67	66	69
69	4	22	23	26
70	4	62	65	66
71	4	66	65	70
72	4	83	82	85
73	3	14	15	16
74	4	52	50	53
75	4	81	82	83
76	4	19	22	27
77	3	1	45	47
78	4	37	38	43
79	4	4	5	10
80	5	74	70	75
81	4	21	19	22
82	4	5	31	32
83	5	7	6	9
84	4	47	48	49
85	5	51	50	52
86	4	18	13	19
87	4	19	22	23
88	5	34	4	35
89	2	4	3	36
90	4	53	62	65
91	4	37	38	39
92	4	38	39	42
93	3	2	1	45
94	4	53	58	59
95	4	71	70	74
96	4	10	5	31
97	4	70	65	76
98	4	20	19	22
99	4	48	50	51
100	4	14	13	19
101	4	22	27	28
102	1	13	14	15
103	5	43	38	44
104	4	3	4	34
105	4	5	10	12
106	6	39	40	80
107	4	51	50	53
108	4	5	4	34
109	4	80	81	87
110	5	55	54	57
111	5	77	76	78
112	4	39	38	43
113	4	62	65	70
114	4	4	5	6
115	4	53	58	60
116	5	87	81	88
117	4	12	10	13
118	2	15	14	17
119	4	47	48	76
120	5	28	27	29
121	4	3	4	35
122	1	1	3	4
123	4	5	6	8
124	2	48	47	79
125	3	2	1	3
126	4	5	4	35
127	4	65	66	68
128	4	27	22	31
129	4	80	81	88
130	4	40	39	41
131	5	56	54	57
132	4	39	38	44
133	5	41	39	42
134	8	70	71	72
135	5	8	6	9
136	4	65	76	77
137	5	68	66	69
138	4	13	19	20
139	3	14	15	37
140	5	32	31	33
141	5	63	62	64
142	4	48	76	65
143	4	65	70	74
144	4	83	82	86
145	4	65	66	69
146	4	50	48	76
147	4	40	39	42
148	4	82	81	87
149	4	37	38	44
150	4	66	65	76
151	4	65	76	78
152	4	5	31	33
153	4	47	48	50
154	4	48	76	77
155	9	71	72	73
156	3	46	45	47
157	2	45	47	79
158	4	4	5	31
159	4	65	70	75
160	2	1	3	36
161	4	22	31	32
162	4	49	48	76
163	4	53	54	55
164	4	71	70	75
165	4	81	82	85
166	4	10	13	18
167	5	24	23	25
168	4	48	50	52

Dihedrals

1	15	4	5	10	12
2	16	13	19	22	23
2	17	13	19	22	23
2	18	13	19	22	23
3	15	10	5	31	33
4	15	23	22	27	29
5	15	20	19	22	23
6	5	17	14	13	19
6	6	17	14	13	19
7	15	67	66	65	76
8	14	14	13	19	20
9	15	24	23	22	31
10	15	61	58	53	62
11	15	4	5	31	33
12	7	1	45	47	48
12	8	1	45	47	48
13	21	15	37	38	39
13	22	15	37	38	39
14	15	62	65	66	67
15	16	53	62	65	76
15	17	53	62	65	76
15	18	53	62	65	76
16	15	56	54	53	62
17	15	74	70	65	76
18	5	15	14	13	18
18	6	15	14	13	18
19	30	37	38	39	42
19	31	37	38	39	42
20	15	63	62	65	66
21	37	84	83	82	85
22	5	1	3	4	35
22	6	1	3	4	35
23	19	49	48	50	52
24	15	24	23	22	27
25	15	66	65	76	78
26	15	50	53	58	60
27	33	72	71	70	74
28	19	18	13	19	20
29	16	58	53	62	65
29	17	58	53	62	65
29	18	58	53	62	65
30	15	56	54	53	58
31	16	48	76	65	70
31	17	48	76	65	70
31	18	48	76	65	70
32	23	40	80	81	88
33	20	14	15	37	38
34	15	30	27	22	31
35	15	66	65	70	75
36	7	4	3	1	45
36	8	4	3	1	45
37	15	27	22	31	32
38	14	47	48	50	53
39	15	6	5	4	34
40	7	13	14	15	16
40	8	13	14	15	16
41	15	62	65	66	68
42	7	36	3	1	45
42	8	36	3	1	45
43	5	50	48	47	79
43	6	50	48	47	79
44	15	19	22	31	32
45	30	40	39	38	43
45	31	40	39	38	43
46	7	1	45	47	79
46	8	1	45	47	79
47	15	7	6	5	10
48	16	48	76	65	66
48	17	48	76	65	66
48	18	48	76	65	66
49	16	48	50	53	62
49	17	48	50	53	62
49	18	48	50	53	62
50	14	3	4	5	10
51	16	10	13	19	22
51	17	10	13	19	22
51	18	10	13	19	22
52	30	83	82	81	87
52	31	83	82	81	87
53	1	45	47	48	50
53	2	45	47	48	50
53	3	45	47	48	50
53	4	45	47	48	50
54	15	49	48	76	65
55	15	19	22	27	29
56	15	70	65	76	78
57	19	86	82	81	87
58	19	18	13	19	21
59	15	19	22	23	24
60	13	2	1	45	47
61	28	80	81	82	83
61	29	80	81	82	83
62	7	13	14	15	37
62	8	13	14	15	37
63	24	16	15	14	17
63	25	16	15	14	17
64	16	48	50	53	58
64	17	48	50	53	58
64	18	48	50	53	58
65	16	50	53	62	65
65	17	50	53	62	65
65	18	50	53	62	65
66	15	54	53	62	63
67	1	10	13	14	15
67	2	10	13	14	15
67	3	10	13	14	15
67	4	10	13	14	15
68	15	51	50	48	76
69	15	55	54	53	58
70	16	5	10	13	19
70	17	5	10	13	19
70	18	5	10	13	19
71	19	49	48	76	77
72	15	63	62	65	70
73	16	10	5	31	22
73	17	10	5	31	22
73	18	10	5	31	22
74	15	21	19	22	27
75	30	83	82	81	88
75	31	83	82	81	88
76	15	6	5	31	32
77	15	19	22	27	30
78	16	48	50	53	54
78	17	48	50	53	54
78	18	48	50	53	54
79	13	3	1	45	47
80	15	60	58	53	62
81	15	31	5	4	35
82	16	4	5	31	22
82	17	4	5	31	22
82	18	4	5	31	22
83	15	51	50	53	54
84	15	68	66	65	70
85	15	69	66	65	76
86	15	64	62	65	70
87	15	26	23	22	31
88	1	1	3	4	5
88	2	1	3	4	5
88	3	1	3	4	5
88	4	1	3	4	5
89	15	21	19	22	23
90	14	3	4	5	6
91	23	15	37	38	44
92	35	81	82	83	84
92	36	81	82	83	84
93	15	25	23	22	31
94	16	4	5	10	13
94	17	4	5	10	13
94	18	4	5	10	13
95	9	46	45	47	48
95	10	46	45	47	48
96	15	52	50	48	76
97	15	50	53	54	55
98	15	58	53	62	63
99	16	53	62	65	70
99	17	53	62	65	70
99	18	53	62	65	70
100	15	23	22	27	30
101	19	49	48	76	78
102	19	12	10	13	18
103	15	9	6	5	10
104	15	64	62	65	66
105	15	26	23	22	27
106	14	14	13	19	21
107	15	6	5	31	33
108	5	5	4	3	36
108	6	5	4	3	36
109	15	6	5	10	12
110	15	62	65	76	77
111	15	25	23	22	27
112	1	15	14	13	19
112	2	15	14	13	19
112	3	15	14	13	19
112	4	15	14	13	19
113	16	53	62	65	66
113	17	53	62	65	66
113	18	53	62	65	66
114	37	84	83	82	86
115	14	12	10	13	14
116	23	40	80	81	82
117	9	2	1	3	4
117	10	2	1	3	4
118	15	49	48	50	53
119	15	50	53	58	61
120	15	51	50	53	62
121	15	62	65	70	74
122	33	72	71	70	75
123	15	54	53	58	59
124	19	42	39	38	43
125	15	50	53	54	56
126	15	4	5	10	11
127	15	55	54	53	62
128	11	46	45	47	79
128	12	46	45	47	79
129	15	11	10	5	31
130	14	14	13	19	22
131	15	21	19	22	31
132	19	41	39	38	43
133	16	6	5	10	13
133	17	6	5	10	13
133	18	6	5	10	13
134	15	27	22	31	33
135	15	4	5	6	7
136	15	6	5	4	35
137	15	52	50	53	62
138	15	51	50	53	58
139	15	62	65	66	69
140	16	50	48	76	65
140	17	50	48	76	65
140	18	50	48	76	65
141	15	19	22	31	33
142	15	23	22	31	32
143	15	29	27	22	31
144	30	40	39	38	44
144	31	40	39	38	44
145	15	28	27	22	31
146	14	71	70	65	76
147	19	86	82	81	88
148	15	18	13	19	22
149	15	19	22	23	25
150	15	52	50	53	58
151	19	42	39	38	44
152	15	54	53	58	60
153	28	37	38	39	40
153	29	37	38	39	40
154	15	7	6	5	31
155	14	47	48	76	65
156	15	67	66	65	70
157	33	65	70	71	72
158	14	3	4	5	31
159	15	50	48	76	77
160	19	85	82	81	87
161	34	70	71	72	73
162	15	8	6	5	31
163	16	53	50	48	76
163	17	53	50	48	76
163	18	53	50	48	76
164	15	54	53	62	64
165	15	52	50	53	54
166	15	23	22	31	33
167	5	17	14	13	18
167	6	17	14	13	18
168	11	2	1	3	36
168	12	2	1	3	36
169	15	4	5	31	32
170	14	47	48	50	51
171	14	11	10	13	14
172	16	6	5	31	22
172	17	6	5	31	22
172	18	6	5	31	22
173	15	19	22	23	26
174	15	10	5	4	34
175	30	80	81	82	85
175	31	80	81	82	85
176	14	47	48	76	77
177	15	63	62	65	76
178	23	42	39	40	80
179	5	1	3	4	34
179	6	1	3	4	34
180	15	10	13	19	20
181	15	66	65	76	77
182	15	59	58	53	62
183	16	54	53	62	65
183	17	54	53	62	65
183	18	54	53	62	65
184	23	41	39	40	80
185	5	10	13	14	17
185	6	10	13	14	17
186	1	45	47	48	76
186	2	45	47	48	76
186	3	45	47	48	76
186	4	45	47	48	76
187	15	58	53	62	64
188	15	64	62	65	76
189	15	12	10	13	19
190	23	40	80	81	87
191	16	13	10	5	31
191	17	13	10	5	31
191	18	13	10	5	31
192	15	68	66	65	76
193	15	66	65	70	74
194	14	47	48	50	52
195	15	50	53	62	63
196	15	62	65	76	78
197	15	12	10	5	31
198	15	10	5	4	35
199	30	80	81	82	86
199	31	80	81	82	86
200	32	39	40	80	81
201	16	5	31	22	27
201	17	5	31	22	27
201	18	5	31	22	27
202	14	47	48	76	78
203	19	49	48	50	51
204	16	48	76	65	62
204	17	48	76	65	62
204	18	48	76	65	62
205	15	9	6	5	31
206	15	10	13	19	21
207	26	16	15	37	38
207	27	16	15	37	38
208	5	45	47	48	49
208	6	45	47	48	49
209	5	49	48	47	79
209	6	49	48	47	79
210	15	19	22	27	28
211	15	62	65	70	75
212	15	70	65	76	77
213	23	38	39	40	80
214	15	50	53	54	57
215	13	2	1	45	46
216	5	35	4	3	36
216	6	35	4	3	36
217	16	5	31	22	23
217	17	5	31	22	23
217	18	5	31	22	23
218	19	41	39	38	44
219	15	4	5	6	8
220	5	34	4	3	36
220	6	34	4	3	36
221	19	11	10	13	18
222	16	13	19	22	31
222	17	13	19	22	31
222	18	13	19	22	31
223	15	6	5	10	11
224	15	50	53	62	64
225	14	62	65	70	71
226	15	75	70	65	76
227	5	76	48	47	79
227	6	76	48	47	79
228	19	85	82	81	88
229	15	20	19	22	31
230	15	10	5	31	32
231	15	57	54	53	62
232	15	5	10	13	18
233	16	5	31	22	19
233	17	5	31	22	19
233	18	5	31	22	19
234	15	23	22	27	28
235	15	69	66	65	70
236	14	66	65	70	71
237	15	8	6	5	10
238	13	3	1	45	46
239	16	13	19	22	27
239	17	13	19	22	27
239	18	13	19	22	27
240	15	54	53	58	61
241	15	31	5	4	34
242	7	17	14	15	37
242	8	17	14	15	37
243	15	20	19	22	27
244	15	57	54	53	58
245	30	37	38	39	41
245	31	37	38	39	41
246	14	5	10	13	14
247	15	4	5	6	9
248	15	50	48	76	78
249	15	11	10	13	19
250	23	15	37	38	43
251	15	50	53	58	59

Impropers

7	2	45	47	1	46
31	1	47	79	45	48
127	2	1	3	45	2
179	1	14	13	15	17
206	1	14	15	17	13
239	1	3	4	36	1
313	1	3	1	4	36
390	1	47	45	48	79
412	1	47	48	79	45
413	1	3	36	1	4
415	2	45	1	46	47
448	2	1	45	2	3
454	3	15	16	37	14
455	2	1	2	3	45
475	3	15	37	14	16
499	3	15	14	16	37
569	2	45	46	47	1
584	1	14	17	13	15
