Title

237 atoms
256 bonds
417 angles
651 dihedrals
372 impropers

10 atom types
14 bond types
9 angle types
19 dihedral types
3 improper types
-11.92599964 88.07400036 xlo xhi
-7.484000206 92.51599979 ylo yhi
-4.276000023 95.72399998 zlo zhi
0.0 0.0 0.0 xy xz yz

Masses

1	14.00672
2	12.01078
3	1.007947
4	15.99943
5	12.01078
6	1.007947
7	18.998403
8	15.99943
9	15.99943
10	1.007947


Pair Coeffs

1	0.16769152	3.206876
2	0.086879315	3.4806469
3	0.015611343	2.5725815
4	0.16846514	3.0251065
5	0.10884061	3.3795318
6	0.014090815	1.1034277
7	0.061	3.1181455
8	0.2102061	3.0398122
9	0.20947353	2.99716
10	1.2326e-05	0.53453923

Bond Coeffs

1 harmonic	390.03554688505	1.390160554689
2 harmonic	505.144496193	1.019481865027
3 harmonic	422.7150220147	1.421786517481
4 harmonic	360.7852444772	1.387193227181
5 harmonic	397.2545789619	1.085358495916
6 harmonic	279.1350963404	1.454628925034
7 harmonic	425.69104206635	1.362945806494
8 harmonic	289.73813263395	1.498646816465
9 harmonic	352.0565580496	1.450098586273
10 harmonic	492.76746816345	1.381897776683
11 harmonic	340.45121009905	1.358690858053
12 harmonic	582.698766451	1.225198386222
13 harmonic	385.7604595587	1.369745182308
14 harmonic	543.5267831885	0.9716763312559


Angle Coeffs

1 harmonic	57.8982893754	126.8062420451
2 harmonic	55.42182150775	117.3465570514
3 harmonic	63.44422595415	115.5071327674
4 harmonic	34.066775159195	129.1835929926
5 harmonic	65.09061609600001	110.3538806181
6 harmonic	53.20531626545	116.5475862634
7 harmonic	14.32262199324	138.3184368373
8 harmonic	39.628116874445	129.8027304608
9 harmonic	201.41175231035	127.4691416191


Dihedral Coeffs

1 fourier 1	3.661930099076	2	180
2 fourier 1	1.193093382682	2	180
3 fourier 1	0.02021088501612	1	0
4 fourier 1	1.163235555439	2	180
5 fourier 1	1.532232714475	2	180
6 fourier 1	0.02664938770063	3	0
7 fourier 1	-0.6891728821899999	2	180
8 fourier 1	0.2727846432367	1	0
9 fourier 1	1.57666786751	2	180
10 fourier 1	3.101948770557	2	180
11 fourier 1	-0.4252153282372	1	0
12 fourier 1	1.809047390003	2	180
13 fourier 1	-0.04816277792592	1	0
14 fourier 1	0.9974165607242	2	180
15 fourier 1	2.348375642009	2	180
16 fourier 1	1.256156174911	1	0
17 fourier 1	2.687457892086	2	180
18 fourier 1	2.772607909663	2	180
19 fourier 1	0.09692684957115	1	0


Improper Coeffs

1 0.3666666666666667	-1	2
2 0.3333333333333333	-1	2
3 3.5	-1	2


Atoms

1	1	1	-0.410108	-11.091	5.553	1.375
2	1	2	0.13063601	-9.9469995	4.915	0.80299997
3	1	2	-0.40296701	-9.927	3.585	0.62400001
4	1	3	0.22544999	-10.778	2.98	0.91399997
5	1	2	-0.108802	-8.7320004	2.9260001	0.052999999
6	1	3	0.207082	-8.7370005	1.847	-0.037
7	1	2	-0.124708	-7.6529999	3.6470001	-0.301
8	1	2	-0.13103899	-6.4310002	2.9779999	-0.81800002
9	1	2	-0.123384	-5.2090001	3.3800001	-0.41299999
10	1	3	0.210345	-5.0939999	4.1919999	0.28999999
11	1	2	-0.29165599	-4.0009999	2.6889999	-0.89200002
12	1	3	0.22836199	-3.03	3.007	-0.53500003
13	1	2	0.33379099	-4.1040001	1.653	-1.735
14	1	4	-0.26735699	-2.9519999	0.97500002	-2.131
15	1	2	0.270004	-2.3	0.021	-1.335
16	1	2	-0.28808501	-2.8659999	-0.50999999	-0.236
17	1	3	0.235071	-3.8570001	-0.221	0.082999997
18	1	2	-0.152008	-2.148	-1.524	0.55900002
19	1	3	0.222094	-2.6600001	-1.949	1.409
20	1	2	-0.141712	-0.88999999	-1.8940001	0.236
21	1	5	0.191522	-0.131	-2.9590001	1.048
22	1	2	-0.141712	1.387	-2.723	1.0650001
23	1	2	-0.152008	2.2590001	-3.743	1.211
24	1	3	0.222094	1.918	-4.7639999	1.295
25	1	2	-0.28808501	3.714	-3.494	1.274
26	1	3	0.235071	4.3990002	-4.3330002	1.3099999
27	1	2	0.270004	4.1859999	-2.2420001	1.2539999
28	1	4	-0.26735699	5.5700002	-2.033	1.276
29	1	2	0.33379099	6.1630001	-0.83499998	0.86199999
30	1	2	-0.29165599	6.8610001	-0.119	1.753
31	1	3	0.22836199	6.9809999	-0.48100001	2.7650001
32	1	2	-0.123384	7.4050002	1.2029999	1.3940001
33	1	3	0.210345	7.9590001	1.757	2.1440001
34	1	2	-0.13103899	7.2179999	1.7029999	0.162
35	1	2	-0.124708	7.7150002	3.0539999	-0.191
36	1	2	-0.122961	8.2810001	3.286	-1.393
37	1	3	0.207082	8.415	2.484	-2.1099999
38	1	2	-0.370729	8.7510004	4.6399999	-1.751
39	1	3	0.22176901	9.1990004	4.8010001	-2.723
40	1	2	0.202778	8.6000004	5.658	-0.889
41	1	1	-0.52895898	9.0229998	6.9759998	-1.247
42	1	6	0.3215	9.4639997	7.1719999	-2.1719999
43	1	2	-0.370729	7.9790001	5.4130001	0.43200001
44	1	3	0.22176901	7.8590002	6.2280002	1.132
45	1	2	-0.122961	7.5689998	4.1830001	0.76700002
46	1	3	0.207082	7.1059999	4.0229998	1.732
47	1	2	-0.051436	6.4879999	0.889	-0.847
48	1	3	0.209269	6.3499999	1.289	-1.8430001
49	1	2	-0.31819001	6.0219998	-0.33899999	-0.54500002
50	1	5	0.76861	5.3410001	-1.169	-1.614
51	1	7	-0.20259	5.54	-2.5179999	-1.383
52	1	7	-0.20259	5.8530002	-0.87800002	-2.868
53	1	7	-0.20259	3.9849999	-0.89999998	-1.615
54	1	2	-0.28808501	3.233	-1.1059999	1.2460001
55	1	3	0.235071	3.596	-0.088	1.323
56	1	2	-0.152008	1.92	-1.332	1.166
57	1	3	0.222094	1.247	-0.486	1.1849999
58	1	2	0.090237997	-0.58399999	-3.0179999	2.5009999
59	1	2	-0.046891998	-0.53500003	-2.0669999	3.444
60	1	3	0.22035301	-0.13500001	-1.084	3.2320001
61	1	2	-0.262593	-1.061	-2.3870001	4.7979999
62	1	3	0.226096	-1.039	-1.633	5.573
63	1	2	-0.24778099	-1.58	-3.6040001	5.0580001
64	1	3	0.21772	-1.9630001	-3.8329999	6.0419998
65	1	2	0.012644	-1.628	-4.6399999	3.9979999
66	1	3	0.22318	-2.046	-5.6209998	4.1900001
67	1	2	-0.23481099	-1.1390001	-4.322	2.802
68	1	2	0.687437	-1.064	-5.0910001	1.594
69	1	8	-0.54467702	-1.4630001	-6.2779999	1.461
70	1	1	-0.44731799	-0.48699999	-4.3140001	0.54400003
71	1	2	0.208395	-0.207	-4.8569999	-0.76200002
72	1	2	-0.33682099	-0.81099999	-4.3629999	-1.862
73	1	3	0.20972501	-1.5369999	-3.5669999	-1.788
74	1	2	-0.161348	-0.53399998	-4.948	-3.191
75	1	3	0.23569299	-0.99400002	-4.5180001	-4.0689998
76	1	2	-0.258753	0.271	-6.0110002	-3.303
77	1	3	0.23038501	0.46799999	-6.4419999	-4.276
78	1	2	-0.161348	0.88800001	-6.6030002	-2.0940001
79	1	3	0.23569299	1.513	-7.4840002	-2.178
80	1	2	-0.33682099	0.65600002	-6.0609999	-0.88999999
81	1	3	0.20972501	1.0779999	-6.52	-0.0089999996
82	1	2	-0.152008	-0.28799999	-1.325	-1.01
83	1	3	0.222094	0.68199998	-1.664	-1.354
84	1	2	-0.28808501	-0.95300001	-0.42300001	-1.739
85	1	3	0.235071	-0.50800002	-0.026000001	-2.6429999
86	1	2	-0.31819001	-5.4390001	1.2180001	-2.2320001
87	1	5	0.76861	-5.5479999	0.022	-3.151
88	1	7	-0.20259	-4.552	0.061000001	-4.1110001
89	1	7	-0.20259	-5.4029999	-1.135	-2.408
90	1	7	-0.20259	-6.7680001	-0.016000001	-3.802
91	1	2	-0.051436	-6.54	1.837	-1.767
92	1	3	0.209269	-7.5229998	1.512	-2.0780001
93	1	2	-0.108802	-7.6890001	5.125	-0.118
94	1	3	0.207082	-6.8390002	5.7340002	-0.40900001
95	1	2	-0.40296701	-8.7690001	5.7199998	0.40400001
96	1	3	0.225449	-8.7770004	6.7969999	0.542
97	1	6	0.375276	-11.926	5.0009999	1.66
98	1	2	0.75728601	8.8620005	7.7849998	-0.57999998
99	1	8	-0.66158003	9.8500004	8.2159996	0.072999999
100	1	2	-0.30278599	7.5120001	8.3760004	-0.40700001
101	1	2	-0.045563001	7.276	9.1960001	0.63499999
102	1	3	0.24338301	8.0790005	9.4499998	1.317
103	1	2	-0.16132601	5.928	9.7550001	0.89700001
104	1	2	0.80422097	5.7989998	10.729	2.006
105	1	8	-0.483134	5.0040002	11.703	1.919
106	1	9	-0.66369098	6.6079998	10.606	3.132
107	1	10	0.420432	6.5500002	11.276	3.8900001
108	1	2	-0.16718601	4.8940001	9.3920002	0.097000003
109	1	2	0.80422097	3.4890001	9.7770004	0.36399999
110	1	8	-0.483134	2.6960001	9.9700003	-0.597
111	1	9	-0.663692	3.0150001	9.8699999	1.67
112	1	10	0.420432	2.05	10.115	1.857
113	1	2	-0.013139	5.158	8.5240002	-1.077
114	1	3	0.243481	4.3319998	8.29	-1.739
115	1	2	-0.238309	6.3889999	8.0469999	-1.341
116	1	2	0.57819003	6.6129999	7.2459998	-2.5699999
117	1	8	-0.52871901	5.6440001	6.7969999	-3.24
118	1	1	-0.410108	-11.11	6.5840001	1.508
119	1	2	0.13063601	-10.168	7.223	2.3740001
120	1	2	-0.40296701	-10.199	8.552	2.552
121	1	3	0.225449	-10.936	9.1569996	2.0380001
122	1	2	-0.108802	-9.2069998	9.2119999	3.4300001
123	1	3	0.207082	-9.2370005	10.29	3.516
124	1	2	-0.124708	-8.2679996	8.4899998	4.0689998
125	1	2	-0.13103899	-7.2360001	9.1590004	4.9029999
126	1	2	-0.123384	-5.9499998	8.7580004	4.8509998
127	1	3	0.210345	-5.6459999	7.9450002	4.2069998
128	1	2	-0.29165599	-4.921	9.448	5.645
129	1	3	0.22836199	-3.8900001	9.1309996	5.5700002
130	1	2	0.33379099	-5.2529998	10.484	6.4260001
131	1	4	-0.26735699	-4.2550001	11.163	7.1259999
132	1	2	0.270004	-3.408	12.117	6.54
133	1	2	-0.28808501	-3.6489999	12.648	5.3270001
134	1	3	0.235071	-4.5139999	12.358	4.7470002
135	1	2	-0.152008	-2.7390001	13.661	4.7620001
136	1	3	0.222094	-2.997	14.086	3.803
137	1	2	-0.141712	-1.619	14.031	5.4200001
138	1	5	0.191522	-0.66600001	15.096	4.849
139	1	2	-0.141712	0.79799998	14.86	5.2509999
140	1	2	-0.152008	1.676	15.881	5.3520002
141	1	3	0.222094	1.372	16.900999	5.177
142	1	2	-0.28808501	3.092	15.631	5.6929998
143	1	3	0.235071	3.76	16.471001	5.848
144	1	2	0.270004	3.54	14.38	5.8429999
145	1	4	-0.26735699	4.8769999	14.171	6.2030001
146	1	2	0.33379099	5.3319998	12.972	6.7649999
147	1	2	-0.29165599	6.2490001	12.257	6.1009998
148	1	3	0.22836199	6.6430001	12.618	5.1609998
149	1	2	-0.123384	6.6719999	10.934	6.5960002
150	1	3	0.210345	7.4120002	10.381	6.0289998
151	1	2	-0.13103899	6.1529999	10.435	7.7290001
152	1	2	-0.124708	6.533	9.0830002	8.2060003
153	1	2	-0.071957	6.7449999	8.8509998	9.5170002
154	1	3	0.207082	6.6760001	9.6529999	10.243
155	1	2	-0.447225	7.098	7.4970002	9.9910002
156	1	3	0.234134	7.2610002	7.336	11.048
157	1	2	0.32420701	7.191	6.4790001	9.1210003
158	1	1	-0.84279102	7.4980001	5.1609998	9.5810003
159	1	6	0.37000901	7.527	4.3660002	8.908
160	1	6	0.37000901	7.6669998	4.9650002	10.592
161	1	2	-0.447225	6.9590001	6.724	7.6799998
162	1	3	0.234134	7.0359998	5.9089999	6.974
163	1	2	-0.071957	6.6570001	7.9549999	7.2449999
164	1	3	0.207082	6.4790001	8.1140003	6.1890001
165	1	2	-0.051436	5.1719999	11.249	8.4969997
166	1	3	0.209269	4.7649999	10.849	9.4169998
167	1	2	-0.31819001	4.8080001	12.476	8.0780001
168	1	5	0.76861	3.859	13.307	8.9180002
169	1	7	-0.20259	4.1139998	14.656	8.75
170	1	7	-0.20259	4.0040002	13.015	10.264
171	1	7	-0.20259	2.5539999	13.037	8.5439997
172	1	2	-0.28808501	2.622	13.244	5.5869999
173	1	3	0.235071	2.9920001	12.225	5.6129999
174	1	2	-0.152008	1.3380001	13.469	5.302
175	1	3	0.222094	0.69599998	12.624	5.0970001
176	1	2	0.090237997	-0.70099998	15.155	3.3269999
177	1	2	-0.046891998	-0.39300001	14.204	2.434
178	1	3	0.22035301	-0.067000002	13.221	2.7490001
179	1	2	-0.262593	-0.52499998	14.525	0.98799998
180	1	3	0.226096	-0.28999999	13.77	0.249
181	1	2	-0.24778099	-0.95200002	15.741	0.59399998
182	1	3	0.21772	-1.048	15.971	-0.45699999
183	1	2	0.012644	-1.291	16.778	1.6
184	1	3	0.22318	-1.6390001	17.757999	1.3
185	1	2	-0.23481099	-1.15	16.459999	2.8840001
186	1	2	0.687437	-1.4119999	17.229	4.066
187	1	8	-0.54467702	-1.832	18.415001	4.0840001
188	1	1	-0.44731799	-1.147	16.451	5.2350001
189	1	2	0.208395	-1.239	16.995001	6.5679998
190	1	2	-0.33682099	-2.1229999	16.500999	7.4580002
191	1	3	0.20972501	-2.8010001	15.704	7.1859999
192	1	2	-0.161348	-2.223	17.084999	8.8109999
193	1	3	0.23569299	-2.908	16.656	9.5290003
194	1	2	-0.258753	-1.48	18.148001	9.1420002
195	1	3	0.23038501	-1.5599999	18.58	10.131
196	1	2	-0.161348	-0.55400002	18.74	8.1499996
197	1	3	0.23569299	0.024	19.622	8.4040003
198	1	2	-0.33682099	-0.44400001	18.198	6.9289999
199	1	3	0.20972501	0.204	18.657	6.198
200	1	2	-0.152008	-1.385	13.462	6.783
201	1	3	0.222094	-0.54799998	13.801	7.382
202	1	2	-0.28808501	-2.2249999	12.561	7.3010001
203	1	3	0.235071	-2.0469999	12.164	8.2919998
204	1	2	-0.31819001	-6.6729999	10.919	6.5359998
205	1	5	0.76861	-7.0310001	12.116	7.3889999
206	1	7	-0.20259	-6.3400002	12.076	8.5869999
207	1	7	-0.20259	-6.6869998	13.272	6.7150002
208	1	7	-0.20259	-8.3839998	12.153	7.678
209	1	2	-0.051436	-7.6030002	10.301	5.7849998
210	1	3	0.209269	-8.6330004	10.625	5.8119998
211	1	2	-0.108802	-8.2519999	7.013	3.8829999
212	1	3	0.207082	-7.5159998	6.4039998	4.3969998
213	1	2	-0.40296701	-9.1459999	6.4169998	3.0829999
214	1	3	0.225449	-9.1160002	5.3410001	2.948
215	1	6	0.375276	-11.834	7.1360002	1.0039999
216	1	2	0.57806998	7.612	7.0409999	-2.9260001
217	1	8	-0.52871901	7.9000001	5.855	-3.24
218	1	2	-0.26119	8.618	8.1260004	-3.016
219	1	2	-0.0050940001	9.9230003	7.8119998	-3.1199999
220	1	3	0.243481	10.226	6.7740002	-3.2
221	1	2	-0.16718601	10.978	8.8540001	-3.0869999
222	1	2	0.80422097	12.375	8.4160004	-3.316
223	1	8	-0.483134	13.186	9.1490002	-3.9430001
224	1	9	-0.66369098	12.783	7.1550002	-2.8900001
225	1	10	0.420432	13.728	6.8309999	-3.0569999
226	1	2	-0.164922	10.623	10.148	-2.8889999
227	1	2	0.80422097	11.608	11.236	-2.6860001
228	1	8	-0.483134	11.351	12.402	-3.092
229	1	9	-0.663692	12.793	11	-1.994
230	1	10	0.420432	13.461	11.746	-1.837
231	1	2	-0.039129999	9.184	10.502	-2.825
232	1	3	0.24812099	8.9119997	11.548	-2.74
233	1	2	-0.122938	8.2229996	9.566	-2.911
234	1	2	0.81667	6.8080001	10.003	-2.95
235	1	8	-0.483134	5.954	9.3570004	-3.6129999
236	1	9	-0.66369098	6.4190001	11.167	-2.2909999
237	1	10	0.420432	5.4590001	11.488	-2.3239999

Bonds

1	1	1	2
2	2	1	97
3	3	1	118
4	4	2	3
5	4	2	95
6	5	3	4
7	4	3	5
8	5	5	6
9	4	5	7
10	6	7	8
11	4	7	93
12	4	8	9
13	4	8	91
14	5	9	10
15	4	9	11
16	5	11	12
17	4	11	13
18	7	13	14
19	4	13	86
20	7	14	15
21	4	15	16
22	4	15	84
23	5	16	17
24	4	16	18
25	5	18	19
26	4	18	20
27	8	20	21
28	4	20	82
29	8	21	22
30	8	21	58
31	9	21	70
32	4	22	23
33	4	22	56
34	5	23	24
35	4	23	25
36	5	25	26
37	4	25	27
38	7	27	28
39	4	27	54
40	7	28	29
41	4	29	30
42	4	29	49
43	5	30	31
44	4	30	32
45	5	32	33
46	4	32	34
47	6	34	35
48	4	34	47
49	4	35	36
50	4	35	45
51	5	36	37
52	4	36	38
53	5	38	39
54	4	38	40
55	1	40	41
56	4	40	43
57	2	41	42
58	10	41	98
59	5	43	44
60	4	43	45
61	5	45	46
62	5	47	48
63	4	47	49
64	8	49	50
65	11	50	51
66	11	50	52
67	11	50	53
68	5	54	55
69	4	54	56
70	5	56	57
71	4	58	59
72	4	58	67
73	5	59	60
74	4	59	61
75	5	61	62
76	4	61	63
77	5	63	64
78	4	63	65
79	5	65	66
80	4	65	67
81	6	67	68
82	12	68	69
83	10	68	70
84	1	70	71
85	4	71	72
86	4	71	80
87	5	72	73
88	4	72	74
89	5	74	75
90	4	74	76
91	5	76	77
92	4	76	78
93	5	78	79
94	4	78	80
95	5	80	81
96	5	82	83
97	4	82	84
98	5	84	85
99	8	86	87
100	4	86	91
101	11	87	88
102	11	87	89
103	11	87	90
104	5	91	92
105	5	93	94
106	4	93	95
107	5	95	96
108	12	98	99
109	6	98	100
110	4	100	101
111	4	100	115
112	5	101	102
113	4	101	103
114	6	103	104
115	4	103	108
116	12	104	105
117	13	104	106
118	14	106	107
119	6	108	109
120	4	108	113
121	12	109	110
122	13	109	111
123	14	111	112
124	5	113	114
125	4	113	115
126	6	115	116
127	12	116	117
128	6	116	216
129	1	118	119
130	2	118	215
131	4	119	120
132	4	119	213
133	5	120	121
134	4	120	122
135	5	122	123
136	4	122	124
137	6	124	125
138	4	124	211
139	4	125	126
140	4	125	209
141	5	126	127
142	4	126	128
143	5	128	129
144	4	128	130
145	7	130	131
146	4	130	204
147	7	131	132
148	4	132	133
149	4	132	202
150	5	133	134
151	4	133	135
152	5	135	136
153	4	135	137
154	8	137	138
155	4	137	200
156	8	138	139
157	8	138	176
158	9	138	188
159	4	139	140
160	4	139	174
161	5	140	141
162	4	140	142
163	5	142	143
164	4	142	144
165	7	144	145
166	4	144	172
167	7	145	146
168	4	146	147
169	4	146	167
170	5	147	148
171	4	147	149
172	5	149	150
173	4	149	151
174	6	151	152
175	4	151	165
176	4	152	153
177	4	152	163
178	5	153	154
179	4	153	155
180	5	155	156
181	4	155	157
182	1	157	158
183	4	157	161
184	2	158	159
185	2	158	160
186	5	161	162
187	4	161	163
188	5	163	164
189	5	165	166
190	4	165	167
191	8	167	168
192	11	168	169
193	11	168	170
194	11	168	171
195	5	172	173
196	4	172	174
197	5	174	175
198	4	176	177
199	4	176	185
200	5	177	178
201	4	177	179
202	5	179	180
203	4	179	181
204	5	181	182
205	4	181	183
206	5	183	184
207	4	183	185
208	6	185	186
209	12	186	187
210	10	186	188
211	1	188	189
212	4	189	190
213	4	189	198
214	5	190	191
215	4	190	192
216	5	192	193
217	4	192	194
218	5	194	195
219	4	194	196
220	5	196	197
221	4	196	198
222	5	198	199
223	5	200	201
224	4	200	202
225	5	202	203
226	8	204	205
227	4	204	209
228	11	205	206
229	11	205	207
230	11	205	208
231	5	209	210
232	5	211	212
233	4	211	213
234	5	213	214
235	12	216	217
236	6	216	218
237	4	218	219
238	4	218	233
239	5	219	220
240	4	219	221
241	6	221	222
242	4	221	226
243	12	222	223
244	13	222	224
245	14	224	225
246	6	226	227
247	4	226	231
248	12	227	228
249	13	227	229
250	14	229	230
251	5	231	232
252	4	231	233
253	6	233	234
254	12	234	235
255	13	234	236
256	14	236	237

Angles

1	4	193	192	194
2	8	67	68	69
3	4	166	165	167
4	1	155	157	158
5	4	194	196	197
6	4	62	61	63
7	4	129	128	130
8	6	204	205	206
9	1	38	40	41
10	1	146	167	168
11	1	5	7	93
12	1	135	137	138
13	7	21	58	59
14	1	146	147	149
15	4	162	161	163
16	4	39	38	40
17	1	219	221	226
18	6	176	138	188
19	4	147	149	150
20	4	189	198	199
21	1	2	3	5
22	1	120	119	213
23	1	7	8	9
24	4	74	76	77
25	1	27	54	56
26	1	59	61	63
27	4	161	163	164
28	1	138	139	174
29	1	145	146	167
30	4	139	174	175
31	7	65	67	68
32	1	145	146	147
33	4	8	9	10
34	6	167	168	171
35	6	49	50	52
36	4	71	80	81
37	1	152	153	155
38	4	34	47	48
39	1	176	177	179
40	1	15	16	18
41	4	173	172	174
42	1	165	167	168
43	4	58	59	60
44	4	125	126	127
45	1	139	140	142
46	4	66	65	67
47	4	204	209	210
48	1	21	22	23
49	4	184	183	185
50	1	115	116	216
51	6	22	21	70
52	1	30	29	49
53	4	179	181	182
54	4	83	82	84
55	1	18	20	82
56	4	35	36	37
57	1	5	7	8
58	1	217	216	218
59	1	59	58	67
60	2	68	70	71
61	4	35	45	46
62	1	130	204	209
63	1	70	71	80
64	1	103	104	106
65	4	132	133	134
66	1	138	139	140
67	1	34	35	36
68	1	98	100	101
69	1	101	103	104
70	4	33	32	34
71	8	185	186	187
72	1	72	74	76
73	1	100	115	113
74	1	227	226	231
75	4	78	80	81
76	4	8	91	92
77	2	1	118	119
78	1	15	84	82
79	4	125	209	210
80	4	220	219	221
81	9	223	222	224
82	4	54	56	57
83	4	146	147	148
84	2	138	188	186
85	1	23	25	27
86	1	128	130	131
87	4	2	3	4
88	6	86	87	89
89	4	124	211	212
90	1	177	179	181
91	1	155	157	161
92	4	27	54	55
93	4	150	149	151
94	4	191	190	192
95	7	183	185	186
96	1	20	82	84
97	1	119	120	122
98	6	51	50	53
99	1	35	45	43
100	1	226	227	228
101	1	103	108	113
102	4	60	59	61
103	4	152	153	154
104	4	127	126	128
105	1	122	124	125
106	4	15	16	17
107	8	187	186	188
108	4	26	25	27
109	6	58	21	70
110	4	139	140	141
111	1	140	142	144
112	1	233	234	236
113	4	37	36	38
114	1	32	34	35
115	2	21	70	68
116	1	104	103	108
117	1	115	116	117
118	1	76	78	80
119	6	20	21	58
120	1	7	93	95
121	1	126	128	130
122	1	177	176	185
123	2	186	188	189
124	4	151	165	166
125	4	196	198	199
126	1	28	27	54
127	1	103	104	105
128	1	190	189	198
129	1	219	221	222
130	1	36	38	40
131	1	71	72	74
132	4	4	3	5
133	4	197	196	198
134	1	218	233	231
135	4	72	74	75
136	1	131	132	202
137	1	118	119	213
138	1	100	101	103
139	9	110	109	111
140	1	131	130	204
141	4	22	23	24
142	4	172	174	175
143	1	11	13	14
144	4	73	72	74
145	1	41	98	100
146	3	40	41	42
147	6	139	138	176
148	1	190	192	194
149	1	120	122	124
150	1	109	108	113
151	1	221	222	224
152	4	82	84	85
153	1	14	13	86
154	1	133	132	202
155	6	86	87	88
156	1	100	115	116
157	1	140	139	174
158	1	30	32	34
159	3	97	1	118
160	1	28	29	49
161	6	204	205	208
162	4	15	84	85
163	6	169	168	171
164	4	20	82	83
165	1	38	40	43
166	4	119	120	121
167	1	7	8	91
168	4	226	231	232
169	1	130	204	205
170	1	113	115	116
171	1	9	11	13
172	4	178	177	179
173	4	17	16	18
174	1	14	15	84
175	2	138	188	189
176	4	141	140	142
177	4	154	153	155
178	1	216	218	219
179	1	117	116	216
180	1	29	30	32
181	1	233	234	235
182	1	153	155	157
183	4	201	200	202
184	5	227	229	230
185	1	3	5	7
186	6	88	87	90
187	1	16	18	20
188	4	134	133	135
189	1	3	2	95
190	4	126	128	129
191	4	7	93	94
192	1	124	125	209
193	4	40	43	44
194	1	16	15	84
195	1	137	200	202
196	1	132	202	200
197	1	133	135	137
198	1	125	124	211
199	1	13	86	87
200	4	36	38	39
201	1	58	67	68
202	1	149	151	152
203	2	21	70	71
204	4	180	179	181
205	1	61	63	65
206	5	13	14	15
207	4	148	147	149
208	6	137	138	139
209	1	153	152	163
210	1	25	27	28
211	1	103	108	109
212	1	34	35	45
213	1	21	22	56
214	1	21	58	67
215	1	41	98	99
216	3	157	158	160
217	1	13	86	91
218	4	120	122	123
219	1	87	86	91
220	1	157	161	163
221	1	152	151	165
222	1	149	151	165
223	1	218	233	234
224	4	93	95	96
225	1	144	172	174
226	1	67	68	70
227	4	59	61	62
228	1	194	196	198
229	4	121	120	122
230	1	192	194	196
231	6	204	205	207
232	1	231	233	234
233	5	234	236	237
234	1	142	144	172
235	6	167	168	170
236	4	94	93	95
237	3	42	41	98
238	6	49	50	51
239	4	176	177	178
240	1	63	65	67
241	1	58	67	65
242	1	35	34	47
243	1	147	149	151
244	9	235	234	236
245	6	52	50	53
246	4	77	76	78
247	1	74	76	78
248	4	29	30	31
249	4	153	155	156
250	6	22	21	58
251	6	88	87	89
252	4	16	18	19
253	1	118	119	120
254	1	14	15	16
255	1	108	109	111
256	4	133	135	136
257	1	142	144	145
258	1	2	95	93
259	1	151	152	153
260	1	34	47	49
261	5	109	111	112
262	6	137	138	176
263	1	47	49	50
264	1	131	132	133
265	4	75	74	76
266	1	188	189	198
267	4	102	101	103
268	5	27	28	29
269	1	8	9	11
270	1	221	226	227
271	1	70	71	72
272	6	89	87	90
273	4	132	202	203
274	1	132	133	135
275	3	157	158	159
276	4	152	163	164
277	1	138	176	185
278	4	23	25	26
279	4	211	213	214
280	4	143	142	144
281	4	182	181	183
282	4	177	179	180
283	4	144	172	173
284	6	206	205	208
285	2	2	1	118
286	1	126	125	209
287	1	9	8	91
288	4	192	194	195
289	1	221	226	231
290	4	212	211	213
291	6	51	50	52
292	6	167	168	169
293	1	8	91	86
294	1	8	7	93
295	1	101	100	115
296	5	130	131	132
297	1	181	183	185
298	1	176	185	183
299	4	200	202	203
300	1	147	146	167
301	1	98	100	115
302	1	122	124	211
303	4	63	65	66
304	6	170	168	171
305	4	31	30	32
306	4	10	9	11
307	6	86	87	90
308	1	124	211	213
309	1	119	213	211
310	4	140	142	143
311	1	222	221	226
312	4	76	78	79
313	4	64	63	65
314	1	125	209	204
315	1	226	227	229
316	4	156	155	157
317	1	108	113	115
318	1	108	109	110
319	4	114	113	115
320	1	151	152	163
321	1	189	190	192
322	1	138	137	200
323	6	207	205	208
324	4	232	231	233
325	4	71	72	73
326	1	135	137	200
327	1	152	163	161
328	4	6	5	7
329	1	72	71	80
330	4	190	192	193
331	4	136	135	137
332	1	116	216	218
333	1	29	49	47
334	1	22	56	54
335	6	20	21	70
336	3	1	118	215
337	5	104	106	107
338	1	218	219	221
339	9	228	227	229
340	4	100	101	102
341	1	36	35	45
342	1	151	165	167
343	1	23	22	56
344	1	188	189	190
345	1	146	167	165
346	1	1	2	95
347	3	159	158	160
348	4	19	18	20
349	4	2	95	96
350	4	55	54	56
351	6	137	138	188
352	1	221	222	223
353	1	32	34	47
354	8	69	68	70
355	1	189	198	196
356	5	144	145	146
357	4	30	32	33
358	6	206	205	207
359	9	105	104	106
360	3	2	1	97
361	6	169	168	170
362	1	139	174	172
363	1	22	23	25
364	1	124	125	126
365	1	219	218	233
366	4	9	11	12
367	6	139	138	188
368	1	205	204	209
369	1	28	29	30
370	4	181	183	184
371	1	71	80	78
372	1	11	13	86
373	4	44	43	45
374	4	86	91	92
375	1	101	103	108
376	7	138	176	177
377	4	195	194	196
378	1	158	157	161
379	1	145	144	172
380	1	99	98	100
381	4	24	23	25
382	4	3	5	6
383	4	43	45	46
384	1	226	231	233
385	4	137	200	201
386	4	108	113	114
387	1	1	2	3
388	1	21	20	82
389	6	49	50	53
390	4	189	190	191
391	1	176	185	186
392	1	58	59	61
393	1	125	126	128
394	1	18	20	21
395	1	116	216	217
396	1	128	130	204
397	4	119	213	214
398	2	40	41	98
399	1	179	181	183
400	1	25	27	54
401	5	222	224	225
402	1	41	40	43
403	4	61	63	64
404	4	123	122	124
405	1	35	36	38
406	4	218	219	220
407	1	40	43	45
408	3	119	118	215
409	4	12	11	13
410	4	157	161	162
411	6	20	21	22
412	1	216	218	233
413	1	29	49	50
414	4	79	78	80
415	4	48	47	49
416	1	185	186	188
417	4	22	56	57

Dihedrals

1	1	178	177	179	180
2	4	32	34	35	45
3	1	40	43	45	46
4	6	208	205	204	209
5	14	100	115	116	216
6	6	23	22	21	58
7	15	42	41	98	99
7	16	42	41	98	99
8	6	22	21	20	82
9	14	217	216	218	233
10	1	179	181	183	185
11	1	133	135	137	138
12	1	150	149	151	165
13	1	9	11	13	14
14	1	21	20	82	84
15	18	235	234	236	237
15	19	235	234	236	237
16	1	221	226	231	232
17	1	66	65	67	68
18	1	132	202	200	137
19	1	64	63	65	66
20	1	1	2	95	96
21	1	145	144	172	173
22	1	162	161	163	164
23	1	28	29	49	47
24	1	73	72	74	75
25	1	29	30	32	34
26	1	142	144	172	174
27	14	113	115	116	117
28	1	140	139	174	172
29	7	22	21	70	68
29	8	22	21	70	68
30	1	35	36	38	39
31	1	100	101	103	108
32	1	138	137	200	202
33	1	70	71	80	81
34	1	136	135	137	138
35	1	36	35	45	43
36	1	190	189	198	196
37	1	149	151	165	166
38	18	228	227	229	230
38	19	228	227	229	230
39	6	56	22	21	58
40	1	216	218	219	220
41	1	133	132	202	203
42	1	153	152	163	161
43	1	17	16	18	19
44	1	100	115	113	108
45	7	176	138	188	189
45	8	176	138	188	189
46	1	119	120	122	123
47	17	221	222	224	225
48	1	131	130	204	209
49	1	101	100	115	116
50	1	124	125	209	210
51	1	35	34	47	48
52	1	189	198	196	197
53	1	10	9	11	13
54	1	31	30	32	33
55	1	177	179	181	182
56	1	129	128	130	131
57	1	152	163	161	157
58	9	138	188	186	187
59	1	126	128	130	204
60	1	22	56	54	55
61	14	103	108	109	111
62	9	185	186	188	189
63	14	101	103	104	106
64	2	68	70	71	80
65	1	25	27	54	56
66	1	139	174	172	144
67	1	14	15	84	85
68	14	99	98	100	115
69	1	219	218	233	231
70	1	58	67	65	66
71	1	122	124	211	213
72	1	79	78	80	81
73	1	63	65	67	68
74	14	231	233	234	236
75	14	217	216	218	219
76	6	135	137	138	188
77	1	142	140	139	174
78	1	7	8	91	86
79	7	139	138	188	186
79	8	139	138	188	186
80	1	34	35	36	38
81	1	59	58	67	68
82	1	121	120	119	213
83	1	1	2	95	93
84	1	30	32	34	35
85	1	132	202	200	201
86	1	71	72	74	75
87	1	28	29	30	31
88	1	37	36	38	40
89	1	135	133	132	202
90	6	29	49	50	51
91	1	8	9	11	13
92	14	116	216	218	219
93	14	41	98	100	115
94	6	165	167	168	170
95	6	20	21	58	59
96	4	126	125	124	211
97	1	212	211	213	214
98	1	72	71	80	81
99	1	127	126	125	209
100	1	125	126	128	130
101	1	177	176	185	183
102	1	100	115	113	114
103	1	220	219	218	233
104	1	179	181	183	184
105	17	103	104	106	107
106	1	146	147	149	151
107	1	21	58	67	68
108	1	21	22	23	24
109	9	21	70	68	69
110	1	36	38	40	41
111	1	128	130	204	209
112	6	89	87	86	91
113	1	8	7	93	94
114	1	147	149	151	152
115	1	139	140	142	144
116	1	18	16	15	84
117	1	87	86	91	92
118	14	111	109	108	113
119	1	152	151	165	167
120	1	138	137	200	201
121	1	178	177	176	185
122	4	5	7	8	91
123	1	120	122	124	211
124	1	23	22	56	54
125	1	58	67	65	63
126	14	58	67	68	70
127	2	213	119	118	215
128	1	13	86	91	92
129	6	58	21	20	82
130	14	110	109	108	113
131	6	18	20	21	58
132	12	40	41	98	100
132	13	40	41	98	100
133	1	7	8	9	10
134	6	137	138	139	140
135	4	91	8	7	93
136	6	130	204	205	206
137	2	43	40	41	98
138	1	155	157	161	162
139	1	15	84	82	20
140	4	153	152	151	165
141	1	38	36	35	45
142	1	147	149	151	165
143	1	146	167	165	151
144	1	28	29	49	50
145	4	122	124	125	126
146	1	140	139	174	175
147	1	98	100	115	113
148	1	184	183	185	186
149	1	18	20	82	84
150	1	20	82	84	85
151	7	22	21	70	71
151	8	22	21	70	71
152	1	103	108	113	115
153	1	151	152	153	155
154	14	218	233	234	236
155	5	15	14	13	86
156	1	103	101	100	115
157	1	25	27	54	55
158	1	36	35	45	46
159	6	56	22	21	70
160	1	70	71	72	74
161	1	153	152	163	164
162	1	120	119	213	211
163	1	138	176	177	179
164	1	131	132	202	200
165	1	7	8	91	92
166	1	152	153	155	157
167	1	22	56	54	27
168	1	122	124	211	212
169	14	115	116	216	218
170	5	130	131	132	202
171	1	61	59	58	67
172	1	60	59	61	63
173	1	21	58	67	65
174	1	14	15	16	17
175	1	22	23	25	27
176	6	174	139	138	176
177	1	144	172	174	175
178	1	148	147	146	167
179	1	34	35	45	46
180	1	59	61	63	65
181	1	104	103	108	109
182	1	37	36	38	39
183	2	1	118	119	120
184	1	83	82	84	85
185	1	218	233	231	226
186	1	8	9	11	12
187	1	191	190	189	198
188	1	100	101	103	104
189	17	108	109	111	112
190	2	68	70	71	72
191	3	2	1	118	215
192	1	23	25	27	54
193	1	141	140	142	143
194	1	195	194	196	197
195	1	219	218	233	234
196	1	125	126	128	129
197	1	6	5	7	93
198	1	15	16	18	20
199	14	117	116	216	217
200	1	158	157	161	163
201	1	220	219	221	226
202	1	222	221	226	231
203	1	218	219	221	226
204	7	139	138	188	189
204	8	139	138	188	189
205	14	219	221	222	224
206	1	131	130	204	205
207	6	13	86	87	90
208	1	8	91	86	87
209	6	146	167	168	171
210	1	151	165	167	168
211	1	38	40	43	45
212	1	2	3	5	6
213	1	31	30	29	49
214	1	176	177	179	180
215	1	104	103	108	113
216	1	216	218	233	231
217	6	206	205	204	209
218	1	181	183	185	186
219	1	152	151	165	166
220	1	182	181	183	185
221	1	149	147	146	167
222	6	188	138	137	200
223	6	137	138	176	177
224	1	177	176	185	186
225	5	132	131	130	204
226	1	122	120	119	213
227	1	123	122	124	125
228	14	58	67	68	69
229	1	138	139	140	142
230	4	149	151	152	153
231	2	186	188	189	198
232	6	90	87	86	91
233	10	40	41	98	99
233	11	40	41	98	99
234	1	9	8	91	86
235	1	130	204	209	210
236	2	38	40	41	42
237	1	189	190	192	194
238	1	157	161	163	164
239	1	192	194	196	198
240	1	16	15	84	82
241	1	34	35	45	43
242	1	227	226	231	233
243	1	26	25	27	54
244	1	154	153	152	163
245	1	140	142	144	172
246	1	218	233	231	232
247	1	18	20	82	83
248	2	138	188	189	190
249	1	139	174	172	173
250	1	148	147	149	151
251	1	151	152	153	154
252	1	12	11	13	14
253	1	154	153	155	157
254	1	23	22	56	57
255	1	24	23	22	56
256	1	108	113	115	116
257	1	135	137	200	202
258	1	145	146	167	165
259	1	138	176	177	178
260	2	21	70	71	72
261	1	33	32	34	35
262	1	152	153	155	156
263	1	8	91	86	13
264	6	176	138	137	200
265	5	144	145	146	167
266	17	233	234	236	237
267	1	60	59	61	62
268	5	144	145	146	147
269	1	22	23	25	26
270	9	69	68	70	71
271	4	9	8	7	93
272	1	128	130	204	205
273	1	124	125	126	128
274	1	126	125	209	204
275	2	42	41	40	43
276	1	59	61	63	64
277	1	98	100	115	116
278	1	138	139	174	172
279	1	153	155	157	158
280	1	101	103	108	113
281	1	176	185	183	181
282	4	163	152	151	165
283	14	183	185	186	187
284	1	74	76	78	79
285	1	118	119	120	121
286	6	135	137	138	139
287	1	140	142	144	145
288	6	70	21	20	82
289	6	137	138	139	174
290	1	62	61	63	65
291	1	193	192	194	196
292	1	120	119	213	214
293	1	131	132	202	203
294	1	4	3	2	95
295	1	15	16	18	19
296	14	100	115	116	117
297	1	131	132	133	135
298	1	121	120	122	124
299	1	21	20	82	83
300	1	35	45	43	40
301	1	221	219	218	233
302	6	146	167	168	170
303	1	32	34	47	49
304	1	73	72	71	80
305	1	38	40	43	44
306	1	188	189	190	192
307	4	122	124	125	209
308	1	29	30	32	33
309	1	142	144	172	173
310	1	10	9	8	91
311	1	129	128	130	204
312	6	29	49	50	53
313	14	176	185	186	188
314	1	182	181	183	184
315	1	179	177	176	185
316	1	2	95	93	7
317	6	140	139	138	176
318	1	178	177	179	181
319	5	13	14	15	84
320	6	23	22	21	70
321	1	39	38	40	41
322	14	99	98	100	101
323	1	125	124	211	213
324	4	149	151	152	163
325	1	41	40	43	45
326	1	221	226	231	233
327	17	226	227	229	230
328	1	134	133	132	202
329	7	137	138	188	186
329	8	137	138	188	186
330	4	5	7	8	9
331	2	186	188	189	190
332	3	97	1	118	215
333	1	9	11	13	86
334	1	126	125	209	210
335	1	10	9	11	12
336	2	120	119	118	215
337	1	73	72	74	76
338	1	227	226	231	232
339	1	216	218	233	234
340	1	35	36	38	40