Title

10250 atoms
10125 bonds
18250 angles
33250 dihedrals
2250 impropers

11 atom types
14 bond types
9 angle types
39 dihedral types
3 improper types
-14.04919886 138.7227255 xlo xhi
-11.49785265 138.6452104 ylo yhi
-14.17243076 138.3160364 zlo zhi
0.0 0.0 0.0 xy xz yz

Masses

1	12.01078
2	15.99943
3	14.00672
4	12.01078
5	1.007947
6	1.007947
7	1.007947
8	15.99943
9	12.01078
10	15.99943
11	1.007947


Pair Coeffs

1	0.086879315	3.4806469
2	0.2102061	3.0398122
3	0.16769152	3.206876
4	0.10884061	3.3795318
5	0.014090815	1.1034277
6	0.016409246	2.5832257
7	0.015779483	2.6445434
8	0.16846514	3.0251065
9	0.21	3.3996695
10	0.20947353	2.99716
11	1.2326e-05	0.53453923

Bond Coeffs

1 harmonic	582.698766451	1.225198386222
2 harmonic	492.76746816345	1.381897776683
3 harmonic	279.1350963404	1.454628925034
4 harmonic	352.0565580496	1.450098586273
5 harmonic	505.144496193	1.019481865027
6 harmonic	264.62148576755	1.52190126495
7 harmonic	370.04670688625	1.093899492634
8 harmonic	301.15400723785	1.345741232799
9 harmonic	366.7408841747	1.425895053732
10 harmonic	300.03137914615	1.451203938761
11 harmonic	366.34047229585	1.464762957261
12 harmonic	602.81384337	1.196112346392
13 harmonic	329.96998057905	1.427343958716
14 harmonic	543.5267831885	0.9716763312559


Angle Coeffs

1 harmonic	55.42182150775	117.3465570514
2 harmonic	63.44422595415	115.5071327674
3 harmonic	57.8982893754	126.8062420451
4 harmonic	53.20531626545	116.5475862634
5 harmonic	65.09061609600001	110.3538806181
6 harmonic	201.41175231035	127.4691416191
7 harmonic	48.776492647595	115.6030999533
8 harmonic	55.07882548015	112.8714009681
9 harmonic	33.56981613361	180


Dihedral Coeffs

1 fourier 1	-0.1488678166443	4	180
2 fourier 1	-0.1230328948768	3	180
3 fourier 1	0.2939295466901	2	0
4 fourier 1	-0.3024127022865	1	0
5 fourier 1	0.182238503271	2	0
6 fourier 1	0.02972342374561	3	0
7 fourier 1	1.809047390003	2	180
8 fourier 1	-0.04816277792592	1	0
9 fourier 1	3.101948770557	2	180
10 fourier 1	-0.4252153282372	1	0
11 fourier 1	2.348375642009	2	180
12 fourier 1	1.256156174911	1	0
13 fourier 1	0.9974165607242	2	180
14 fourier 1	0.1155372516788	3	0
15 fourier 1	0.09223874044423	3	0
16 fourier 1	0.3159935921949	2	180
17 fourier 1	0.3247796806857	1	180
18 fourier 1	0.1040663847541	3	0
19 fourier 1	2.779853741805	2	180
20 fourier 1	0.1918272375143	3	0
21 fourier 1	0.9202179876409	1	180
22 fourier 1	0.0473758381877	3	0
23 fourier 1	0.4860993122944	2	180
24 fourier 1	0.8916986138746	1	0
25 fourier 1	1.163809172478	2	180
26 fourier 1	0.1679186987369	1	180
27 fourier 1	0.1911926717192	3	0
28 fourier 1	-0.0309670556842	3	0
29 fourier 1	0.4598191477945	2	0
30 fourier 1	0.1115525666802	3	0
31 fourier 1	0.3432490222662	1	0
32 fourier 1	0.4552156463534	3	0
33 fourier 1	-0.03687743385131	2	180
34 fourier 1	0.457973137376	1	0
35 fourier 1	-1.382973039546	1	0
36 fourier 1	0	1	0
37 fourier 1	0.3445382149273	3	0
38 fourier 1	0.1364556373303	1	0
39 fourier 1	0.3026390167484	3	0


Improper Coeffs

1 0.3333333333333333	-1	2
2 0.3666666666666667	-1	2
3 3.5	-1	2


Atoms

1	6	1	0.54579383	-0.17807989	3.0480113	-4.1956233
2	6	2	-0.66820204	-1.2841481	3.5914035	-4.4593449
3	6	3	-0.51880234	-0.071838994	2.0682036	-3.1599878
4	6	4	0.032945653	-1.2321967	1.6577646	-2.3705178
5	6	4	-0.14409558	-0.84037204	0.60243851	-1.3314325
6	6	4	-0.14074309	-2.0526285	0.18081574	-0.48721363
7	6	4	-0.14074309	-1.7519897	-1.0068768	0.44434833
8	6	4	-0.14280322	-0.66038207	-0.74663727	1.4984628
9	6	4	0.027196086	-1.0227133	0.38269606	2.4722473
10	6	3	-0.46203273	-0.040947199	0.47202403	3.5521509
11	6	1	0.78823173	-0.16001392	1.4423552	4.5960903
12	6	2	-0.59439278	-1.1246055	2.2528555	4.6156207
13	6	5	0.32946959	0.77895885	-0.17638412	3.578645
14	6	6	0.062707381	-1.0447345	1.3518137	1.9311123
15	6	6	0.062707381	-2.0273164	0.1890842	2.9082198
16	6	7	0.09243481	0.30941831	-0.52488573	1.0048541
17	6	7	0.09243481	-0.52299465	-1.6841587	2.0788447
18	6	7	0.091107303	-2.6921954	-1.2931501	0.96568961
19	6	7	0.091107303	-1.4469804	-1.878537	-0.17339583
20	6	7	0.091107303	-2.4272115	1.0467653	0.09946771
21	6	7	0.091107303	-2.8741973	-0.12790179	-1.1696213
22	6	7	0.09243481	-0.056246895	1.0301808	-0.67167625
23	6	7	0.09243481	-0.42357703	-0.28698868	-1.8543648
24	6	6	0.059078881	-2.0060356	1.240272	-3.0507224
25	6	6	0.059078881	-1.6535838	2.5477721	-1.852441
26	6	5	0.32288975	0.86733275	1.6459603	-2.9789132
27	7	8	-0.49359387	0.55439769	1.4809807	5.3467375
28	7	4	0.10704486	0.44685324	0.28217792	6.0645146
29	7	4	0.080219099	-0.7722905	0.32359109	6.9874753
30	7	8	-0.48633259	-0.8115742	-0.83572405	7.7988483
31	7	4	0.081025356	-1.671674	-1.8050891	7.2372429
32	7	4	0.030838286	-1.5799456	-3.08854	8.0563069
33	7	8	-0.13858929	-2.4567418	-4.0565906	7.5473085
34	7	6	0.094091081	-0.53299155	-3.4709372	8.0516498
35	7	6	0.094091081	-1.8616591	-2.8730021	9.1090761
36	7	6	0.090197401	-1.3846661	-2.0346682	6.1858206
37	7	6	0.090197401	-2.7258807	-1.4440071	7.2635116
38	7	6	0.088626535	-0.67264759	1.2041207	7.6573148
39	7	6	0.088626535	-1.7028084	0.4855255	6.3914496
40	7	6	0.096575515	1.3638776	0.15203707	6.6775136
41	7	6	0.096575515	0.37644694	-0.58160937	5.3659364
42	4	1	0.54579389	0.70037865	3.328016	-4.7608506
43	4	2	-0.6682021	1.5610295	2.4523387	-5.0416344
44	4	3	-0.5188024	0.87437268	4.688671	-5.1713928
45	4	4	0.032945657	2.0352803	5.1424453	-5.9351967
46	4	4	-0.14409558	1.9160327	4.7097748	-7.4000247
47	4	4	-0.14056101	3.1209249	5.2000109	-8.2179571
48	4	4	-0.13636578	2.978803	4.9009839	-9.718704
49	4	4	-0.12054762	3.1326019	3.406036	-10.041799
50	4	4	0.18625558	3.0921495	3.1408066	-11.554957
51	4	3	-0.62047124	4.2255014	3.7530863	-12.242658
52	4	9	0.59467089	5.4193243	3.348963	-12.06588
53	4	2	-0.44193491	6.5806179	2.9565672	-11.892154
54	4	6	0.036661045	3.0898893	2.0441582	-11.741553
55	4	6	0.036661045	2.1511577	3.554599	-11.975872
56	4	7	0.086043434	2.2997735	2.837292	-9.5766843
57	4	7	0.086043434	4.0864912	3.0205016	-9.6212611
58	4	7	0.08981792	1.9952378	5.2690088	-10.084848
59	4	7	0.08981792	3.7701694	5.470561	-10.253455
60	4	7	0.091107303	3.2128516	6.3006719	-8.0955001
61	4	7	0.091107303	4.0552184	4.7388504	-7.828703
62	4	7	0.09243481	1.8582412	3.6027523	-7.4467828
63	4	7	0.09243481	0.9791913	5.1321143	-7.8261087
64	4	6	0.059078881	2.965818	4.7340951	-5.4825315
65	4	6	0.059078881	2.0877873	6.2513994	-5.8846515
66	4	5	0.32288978	0.17017682	5.3941737	-4.8585237
67	5	8	-0.13858929	-2.0297425	-4.4247997	6.7299911
68	5	4	0.030838286	-2.439159	-5.7617335	6.6330369
69	5	4	0.081149892	-1.6689535	-6.6268632	7.6315118
70	5	8	-0.48409906	-1.99462	-7.991754	7.4499505
71	5	4	0.053300948	-2.992586	-8.3906508	8.365871
72	5	4	0.075698206	-3.4200866	-9.82007	8.0492433
73	5	10	-0.67849898	-4.3809783	-10.257689	8.9703704
74	5	11	0.39362612	-5.2404791	-9.8336761	8.708392
75	5	6	0.090969914	-3.8209669	-9.8781992	7.0106592
76	5	6	0.090969914	-2.5360449	-10.489675	8.1134642
77	5	6	0.091074759	-3.8874586	-7.7299844	8.2955846
78	5	6	0.091074759	-2.5928271	-8.3638782	9.405681
79	5	6	0.090197401	-0.58274992	-6.5061994	7.4321676
80	5	6	0.090197401	-1.8407696	-6.2590115	8.6722804
81	5	6	0.094091081	-2.2310582	-6.1215585	5.6023673
82	5	6	0.094091081	-3.5351121	-5.8444432	6.8105082
83	6	1	0.54579383	0.62837523	-0.74083756	23.530089
84	6	2	-0.66820204	1.5641664	-1.507162	23.176178
85	6	3	-0.51880234	0.47997987	-0.34875564	24.896874
86	6	4	0.032945653	1.400412	-0.81529962	25.932873
87	6	4	-0.14409558	1.0126306	-0.25013863	27.302967
88	6	4	-0.14074309	1.9661449	-0.75171953	28.398076
89	6	4	-0.14074309	1.7316663	-0.06916725	29.757468
90	6	4	-0.14280322	0.33783857	-0.30003547	30.369378
91	6	4	0.027196086	0.047617026	-1.7782337	30.662013
92	6	3	-0.46203273	-1.207014	-1.9251132	31.398466
93	6	1	0.78823173	-1.695873	-3.2079547	31.799544
94	6	2	-0.59439278	-1.0515843	-4.2565128	31.529087
95	6	5	0.32946959	-1.7794341	-1.0852184	31.644012
96	6	6	0.062707381	-0.032414182	-2.3406624	29.708194
97	6	6	0.062707381	0.87706343	-2.2070192	31.266121
98	6	7	0.09243481	-0.44977646	0.11687529	29.706668
99	6	7	0.09243481	0.29203201	0.26567135	31.324649
100	6	7	0.091107303	2.5016677	-0.43390989	30.472868
101	6	7	0.091107303	1.8907147	1.0243126	29.641557
102	6	7	0.091107303	1.8815901	-1.8548247	28.499985
103	6	7	0.091107303	3.0118041	-0.53407326	28.089549
104	6	7	0.09243481	-0.025040322	-0.56946308	27.53613
105	6	7	0.09243481	1.0454144	0.86137286	27.26144
106	6	6	0.059078881	2.4322985	-0.49142459	25.675734
107	6	6	0.059078881	1.3731577	-1.9270178	25.970607
108	6	5	0.32288975	-0.31207344	0.28858282	25.140948
109	7	8	-0.49359387	-2.5904851	-3.2783273	32.319221
110	7	4	0.10704486	-2.3842619	-2.6568619	33.558233
111	7	4	0.080219099	-1.57796	-3.5706205	34.48279
112	7	8	-0.48633259	-1.4740255	-2.9943144	35.771568
113	7	4	0.081025356	-0.24746477	-2.3079265	35.910354
114	7	4	0.030838286	-0.23037029	-1.5822479	37.251855
115	7	8	-0.13858929	0.99450328	-0.92614959	37.436768
116	7	6	0.094091081	-1.0731835	-0.85468442	37.303617
117	7	6	0.094091081	-0.36436169	-2.3211145	38.070552
118	7	6	0.090197401	-0.11479699	-1.5561477	35.099308
119	7	6	0.090197401	0.60109185	-3.0303604	35.888836
120	7	6	0.088626535	-2.1232229	-4.5331368	34.583769
121	7	6	0.088626535	-0.5913528	-3.8151033	34.020008
122	7	6	0.096575515	-3.3727782	-2.4508152	34.020854
123	7	6	0.096575515	-1.8611991	-1.6839823	33.420365
124	4	1	0.54579389	-0.070066171	-0.37665389	22.78906
125	4	2	-0.6682021	-0.51999557	0.79577087	22.885774
126	4	3	-0.5188024	-0.4779034	-1.2350368	21.718056
127	4	4	0.032945657	-1.4189302	-0.81445439	20.68143
128	4	4	-0.14409558	-0.73136868	0.11849374	19.679427
129	4	4	-0.14056101	-1.705517	0.55020094	18.57228
130	4	4	-0.13636578	-1.0231058	1.3810916	17.474194
131	4	4	-0.12054762	-0.64570101	2.7936208	17.948789
132	4	4	0.18625558	-0.061118689	3.6427616	16.809117
133	4	3	-0.62047124	-1.0450573	3.8911378	15.759127
134	4	9	0.59467089	-2.0720287	4.616651	15.95595
135	4	2	-0.44193491	-3.0717694	5.3210565	16.148536
136	4	6	0.036661045	0.30443352	4.6116349	17.215463
137	4	6	0.036661045	0.81008046	3.1145887	16.366506
138	4	7	0.086043434	0.12298799	2.7247748	18.747402
139	4	7	0.086043434	-1.5363533	3.3041491	18.37481
140	4	7	0.08981792	-0.11767936	0.84962662	17.107244
141	4	7	0.08981792	-1.7325617	1.4627274	16.621759
142	4	7	0.091107303	-2.133508	-0.35880072	18.097474
143	4	7	0.091107303	-2.547539	1.1277428	19.013343
144	4	7	0.09243481	-0.35631977	1.0136791	20.21702
145	4	7	0.09243481	0.13530397	-0.4127454	19.227482
146	4	6	0.059078881	-2.2920981	-0.30848331	21.149541
147	4	6	0.059078881	-1.7909044	-1.7149301	20.146763
148	4	5	0.32288978	-0.13275315	-2.2211274	21.714979
149	5	8	-0.13858929	0.96527344	-0.1069424	36.876447
150	5	4	0.030838286	1.7392769	0.85681213	37.537136
151	5	4	0.081149892	0.96774331	1.4352453	38.724052
152	5	8	-0.48409906	1.6999855	2.491251	39.316186
153	5	4	0.053300948	2.4301376	2.0254481	40.431476
154	5	4	0.075698206	3.315111	3.151422	40.956122
155	5	10	-0.67849898	4.020739	2.7295025	42.090746
156	5	11	0.39362612	4.765306	2.1570919	41.766513
157	5	6	0.090969914	4.0206719	3.4856977	40.160393
158	5	6	0.090969914	2.6785317	4.0177496	41.235887
159	5	6	0.091074759	3.0809381	1.1646805	40.152631
160	5	6	0.091074759	1.7339328	1.7156377	41.244523
161	5	6	0.090197401	0.010358053	1.8539277	38.346886
162	5	6	0.090197401	0.69535745	0.62157518	39.439441
163	5	6	0.094091081	1.9733194	1.6740277	36.821285
164	5	6	0.094091081	2.7018104	0.41286926	37.877568
165	6	1	0.54579383	4.2758195	0.30727329	54.33087
166	6	2	-0.66820204	4.3138589	1.2277519	53.470938
167	6	3	-0.51880234	3.0798801	0.042680358	55.068143
168	6	4	0.032945653	1.8604072	0.82134595	54.856675
169	6	4	-0.14409558	0.73495569	0.33396093	55.77469
170	6	4	-0.14074309	-0.54346809	1.1606475	55.569121
171	6	4	-0.14074309	-1.7541001	0.59448464	56.332426
172	6	4	-0.14280322	-1.5986977	0.55860984	57.863782
173	6	4	0.027196086	-1.4118355	1.9509415	58.481382
174	6	3	-0.46203273	-1.4452025	1.8800019	59.941481
175	6	1	0.78823173	-1.3020326	3.0489896	60.75296
176	6	2	-0.59439278	-1.1443329	4.1831599	60.227111
177	6	5	0.32946959	-1.5707889	0.96151879	60.425214
178	6	6	0.062707381	-0.43332277	2.3717541	58.168443
179	6	6	0.062707381	-2.224043	2.6248168	58.130674
180	6	7	0.09243481	-0.75244131	-0.10040433	58.151682
181	6	7	0.09243481	-2.5216698	0.10539154	58.284948
182	6	7	0.091107303	-2.6487337	1.2047192	56.077513
183	6	7	0.091107303	-1.9538949	-0.43751827	55.97259
184	6	7	0.091107303	-0.36358696	2.2178272	55.85962
185	6	7	0.091107303	-0.79949581	1.1610155	54.487265
186	6	7	0.09243481	1.073665	0.42549079	56.828252
187	6	7	0.09243481	0.52474621	-0.73685656	55.556932
188	6	6	0.059078881	1.5441311	0.72145595	53.795639
189	6	6	0.059078881	2.0714142	1.8932417	55.067861
190	6	5	0.32288975	3.0980121	-0.7315591	55.770528
191	7	8	-0.49359387	-1.3282568	2.9646141	61.786179
192	7	4	0.10704486	-2.6233615	2.5473096	62.121528
193	7	4	0.080219099	-3.6013092	3.719275	62.021536
194	7	8	-0.48633259	-4.8833452	3.3271304	62.475944
195	7	4	0.081025356	-5.7063809	2.9655891	61.386568
196	7	4	0.030838286	-7.0254167	2.4145769	61.918598
197	7	8	-0.13858929	-7.8812796	2.0869328	60.857881
198	7	6	0.094091081	-6.836525	1.5203518	62.556597
199	7	6	0.094091081	-7.5186786	3.1863688	62.547225
200	7	6	0.090197401	-5.2218165	2.1818455	60.760858
201	7	6	0.090197401	-5.925122	3.8594945	60.757674
202	7	6	0.088626535	-3.2394248	4.532891	62.685625
203	7	6	0.088626535	-3.6008375	4.1355556	60.985175
204	7	6	0.096575515	-2.6148285	2.1677028	63.165302
205	7	6	0.096575515	-2.9453546	1.7144757	61.456844
206	4	1	0.54579389	5.1600509	-0.2884966	54.511887
207	4	2	-0.6682021	5.0380913	-1.515873	54.766922
208	4	3	-0.5188024	6.4511993	0.32892515	54.467987
209	4	4	0.032945657	7.6901795	-0.41021125	54.703825
210	4	4	-0.14409558	8.0487767	-1.2601795	53.48067
211	4	4	-0.14056101	9.3615683	-2.0254852	53.708696
212	4	4	-0.13636578	9.826847	-2.7885156	52.458433
213	4	4	-0.12054762	8.950213	-4.0134439	52.151875
214	4	4	0.18625558	9.4923511	-4.8214918	50.962432
215	4	3	-0.62047124	10.798304	-5.4057216	51.254782
216	4	9	0.59467089	10.946271	-6.3251825	52.122236
217	4	2	-0.44193491	11.089853	-7.2183491	52.967456
218	4	6	0.036661045	8.7724263	-5.6279604	50.700177
219	4	6	0.036661045	9.5870873	-4.1558699	50.07822
220	4	7	0.086043434	7.9226693	-3.680348	51.893794
221	4	7	0.086043434	8.8823815	-4.6683692	53.047345
222	4	7	0.08981792	9.8411916	-2.1034741	51.58241
223	4	7	0.08981792	10.871228	-3.1259957	52.637354
224	4	7	0.091107303	10.156776	-1.2989097	53.981889
225	4	7	0.091107303	9.244577	-2.7321605	54.559586
226	4	7	0.09243481	7.2263177	-1.9789327	53.285786
227	4	7	0.09243481	8.1542908	-0.59366924	52.596238
228	4	6	0.059078881	7.5789046	-1.0520635	55.605601
229	4	6	0.059078881	8.5098039	0.3146905	54.898309
230	4	5	0.32288978	6.5012778	1.3619883	54.320387
231	5	8	-0.13858929	-7.5536507	1.2275348	60.483704
232	5	4	0.030838286	-8.6790685	0.54913857	59.996234
233	5	4	0.081149892	-9.4735577	-0.060673537	61.151887
234	5	8	-0.48409906	-10.53979	-0.84542813	60.652628
235	5	4	0.053300948	-11.741084	-0.10329082	60.643223
236	5	4	0.075698206	-12.833257	-0.92732279	59.969146
237	5	10	-0.67849898	-14.049199	-0.23120857	59.98358
238	5	11	0.39362612	-13.989811	0.46047094	59.272797
239	5	6	0.090969914	-12.536795	-1.1721711	58.922771
240	5	6	0.090969914	-12.964631	-1.8826055	60.52069
241	5	6	0.091074759	-11.618157	0.8500421	60.079075
242	5	6	0.091074759	-12.061887	0.12199129	61.686325
243	5	6	0.090197401	-8.7971014	-0.72995009	61.725133
244	5	6	0.090197401	-9.7986949	0.73980933	61.860087
245	5	6	0.094091081	-8.3367552	-0.26377756	59.32018
246	5	6	0.094091081	-9.3208503	1.2400225	59.404418
247	6	1	0.54579383	3.2556149	-0.52743155	89.887936
248	6	2	-0.66820204	4.090709	0.39867581	90.070018
249	6	3	-0.51880234	2.4300212	-0.55024007	88.721006
250	6	4	0.032945653	2.5196414	0.4903535	87.697636
251	6	4	-0.14409558	1.5257569	0.2267721	86.562005
252	6	4	-0.14074309	1.6033702	1.3270534	85.492709
253	6	4	-0.14074309	0.75874203	1.0127661	84.245058
254	6	4	-0.14280322	-0.75316512	0.87455637	84.501035
255	6	4	0.027196086	-1.3905445	2.1606511	85.043844
256	6	3	-0.46203273	-2.8460172	2.0337548	85.10328
257	6	1	0.78823173	-3.6741348	3.1035166	85.567349
258	6	2	-0.59439278	-3.1677945	4.1959379	85.938784
259	6	5	0.32946959	-3.3135607	1.1460169	84.808822
260	6	6	0.062707381	-1.0097493	2.3652565	86.066406
261	6	6	0.062707381	-1.1259495	3.0142635	84.381938
262	6	7	0.09243481	-0.95279114	0.030598012	85.194735
263	6	7	0.09243481	-1.2363516	0.6211254	83.533063
264	6	7	0.091107303	0.92284306	1.8185896	83.495755
265	6	7	0.091107303	1.128573	0.068849791	83.790441
266	6	7	0.091107303	1.3003048	2.3030411	85.928571
267	6	7	0.091107303	2.6601502	1.4331207	85.164185
268	6	7	0.09243481	0.50148302	0.19292842	86.98957
269	6	7	0.09243481	1.7542302	-0.75895595	86.098975
270	6	6	0.059078881	3.5534278	0.51136936	87.289409
271	6	6	0.059078881	2.2977528	1.4772467	88.161199
272	6	5	0.32288975	1.7525649	-1.3395017	88.614986
273	7	8	-0.49359387	-4.7033748	2.9810318	85.599122
274	7	4	0.10704486	-5.1325842	2.8497241	84.271554
275	7	4	0.080219099	-5.1447661	4.214166	83.580155
276	7	8	-0.48633259	-5.6921934	4.0991026	82.279784
277	7	4	0.081025356	-4.6647447	3.9801087	81.317999
278	7	4	0.030838286	-5.2882704	3.7151868	79.951412
279	7	8	-0.13858929	-4.2929803	3.635263	78.967551
280	7	6	0.094091081	-5.8843356	2.7737556	79.979262
281	7	6	0.094091081	-5.9757945	4.5489184	79.693839
282	7	6	0.090197401	-3.9805201	3.136558	81.564632
283	7	6	0.090197401	-4.0801934	4.9275047	81.261762
284	7	6	0.088626535	-5.7985336	4.8955648	84.165159
285	7	6	0.088626535	-4.1234328	4.6656952	83.598394
286	7	6	0.096575515	-6.1615496	2.4315522	84.270923
287	7	6	0.096575515	-4.4744323	2.1407098	83.720889
288	4	1	0.54579389	3.1638903	-1.3135385	90.624954
289	4	2	-0.6682021	2.9327917	-2.4925943	90.247077
290	4	3	-0.5188024	3.2970358	-0.9995483	92.015596
291	4	4	0.032945657	3.1836753	-2.0071144	93.068674
292	4	4	-0.14409558	4.4545492	-2.8602166	93.133798
293	4	4	-0.14056101	4.3557361	-3.9094376	94.252048
294	4	4	-0.13636578	5.6600388	-4.7005717	94.438483
295	4	4	-0.12054762	5.926406	-5.6831569	93.28675
296	4	4	0.18625558	7.1776369	-6.5380483	93.542117
297	4	3	-0.62047124	7.0093096	-7.412322	94.699535
298	4	9	0.59467089	6.1819662	-8.3794215	94.698879
299	4	2	-0.44193491	5.3757076	-9.3189452	94.698283
300	4	6	0.036661045	7.4014838	-7.1502955	92.640725
301	4	6	0.036661045	8.0484271	-5.8716743	93.719681
302	4	7	0.086043434	6.0902023	-5.1172516	92.345301
303	4	7	0.086043434	5.0463222	-6.3456444	93.138572
304	4	7	0.08981792	6.5155477	-3.9976577	94.542984
305	4	7	0.08981792	5.5766067	-5.270975	95.389439
306	4	7	0.091107303	4.1293211	-3.392318	95.209244
307	4	7	0.091107303	3.5174194	-4.6093075	94.041099
308	4	7	0.09243481	4.6005011	-3.3671211	92.157699
309	4	7	0.09243481	5.3264196	-2.1953809	93.322015
310	4	6	0.059078881	2.2933905	-2.6474292	92.881736
311	4	6	0.059078881	3.0377241	-1.4935712	94.043386
312	4	5	0.32288978	3.4204223	0.0016160406	92.287549
313	5	8	-0.13858929	-3.870199	2.7419443	79.063216
314	5	4	0.030838286	-3.4587145	2.3552483	77.780421
315	5	4	0.081149892	-4.6588833	1.8877436	76.956011
316	5	8	-0.48409906	-4.2279359	1.3847743	75.705709
317	5	4	0.053300948	-4.3371481	2.3766974	74.706646
318	5	4	0.075698206	-3.73311	1.8491147	73.409324
319	5	10	-0.67849898	-3.8660382	2.7984436	72.387364
320	5	11	0.39362612	-3.171631	3.4903451	72.549327
321	5	6	0.090969914	-2.6597242	1.5911544	73.564374
322	5	6	0.090969914	-4.2676965	0.92381242	73.105914
323	5	6	0.091074759	-3.7906465	3.3025563	75.00048
324	5	6	0.091074759	-5.4087461	2.6212045	74.52328
325	5	6	0.090197401	-5.1564543	1.0590502	77.503575
326	5	6	0.090197401	-5.412651	2.7082067	76.874098
327	5	6	0.094091081	-2.7352287	1.5173971	77.878572
328	5	6	0.094091081	-2.9403782	3.1980454	77.270058
329	6	1	0.54579383	5.0851081	-0.72237566	115.2476
330	6	2	-0.66820204	5.8662319	0.057573456	114.63954
331	6	3	-0.51880234	3.6804809	-0.70627594	114.98187
332	6	4	0.032945653	3.0959039	0.20709707	114.00096
333	6	4	-0.14409558	1.5778904	0.019011067	113.91613
334	6	4	-0.14074309	0.956444	0.98889014	112.89968
335	6	4	-0.14074309	-0.53625832	0.71517432	112.64331
336	6	4	-0.14280322	-1.4460585	0.86450577	113.87638
337	6	4	0.027196086	-1.4424299	2.2849684	114.45707
338	6	3	-0.46203273	-2.4482627	2.4180062	115.50999
339	6	1	0.78823173	-2.64925	3.652282	116.20403
340	6	2	-0.59439278	-1.9604769	4.6692774	115.92289
341	6	5	0.32946959	-3.0428778	1.6019388	115.78174
342	6	6	0.062707381	-0.44474284	2.511301	114.88823
343	6	6	0.062707381	-1.6617007	3.0170274	113.64911
344	6	7	0.09243481	-1.1576225	0.13350815	114.66109
345	6	7	0.09243481	-2.4818483	0.61291743	113.56252
346	6	7	0.091107303	-0.89121337	1.4099419	111.85019
347	6	7	0.091107303	-0.64808502	-0.31542514	112.24357
348	6	7	0.091107303	1.1048729	2.0376966	113.23486
349	6	7	0.091107303	1.4886474	0.88038644	111.92965
350	6	7	0.09243481	1.142466	0.20159426	114.9212
351	6	7	0.09243481	1.3566437	-1.0288597	113.61401
352	6	6	0.059078881	3.5508038	0.01201725	113.00557
353	6	6	0.059078881	3.3222973	1.2550176	114.29878
354	6	5	0.32288975	3.0735059	-1.3725037	115.51181
355	7	8	-0.49359387	-3.3697232	3.71332	116.94736
356	7	4	0.10704486	-4.6100727	3.5399335	116.31858
357	7	4	0.080219099	-5.0156571	4.8183202	115.58298
358	7	8	-0.48633259	-6.3204487	4.6837852	115.05072
359	7	4	0.081025356	-6.2647882	4.3028782	113.6918
360	7	4	0.030838286	-7.6794477	4.0286142	113.19176
361	7	8	-0.13858929	-7.6597047	3.6896203	111.83173
362	7	6	0.094091081	-8.1444622	3.2110344	113.78983
363	7	6	0.094091081	-8.297944	4.9423679	113.32083
364	7	6	0.090197401	-5.6568897	3.3790853	113.559
365	7	6	0.090197401	-5.8274167	5.1257593	113.08025
366	7	6	0.088626535	-5.0320683	5.6523228	116.31654
367	7	6	0.088626535	-4.2454133	5.0858578	114.81977
368	7	6	0.096575515	-5.3714066	3.3080126	117.09332
369	7	6	0.096575515	-4.568312	2.6811635	115.61157
370	4	1	0.54579389	5.4844127	-1.4114459	115.97925
371	4	2	-0.6682021	4.9822885	-2.5616763	116.08514
372	4	3	-0.5188024	6.5687287	-1.0019388	116.81994
373	4	4	0.032945657	7.1591293	-1.8761434	117.83198
374	4	4	-0.14409558	8.0587991	-2.9272105	117.17395
375	4	4	-0.14056101	8.7024277	-3.8389502	118.23016
376	4	4	-0.13636578	9.7144233	-4.8241605	117.62429
377	4	4	-0.12054762	9.0402317	-5.9372294	116.80608
378	4	4	0.18625558	10.05841	-6.9696003	116.29701
379	4	3	-0.62047124	10.690633	-7.6941994	117.3959
380	4	9	0.59467089	10.038985	-8.4994384	118.13531
381	4	2	-0.44193491	9.4041571	-9.2812789	118.85536
382	4	6	0.036661045	9.55153	-7.6896445	115.61726
383	4	6	0.036661045	10.845656	-6.4509848	115.70953
384	4	7	0.086043434	8.5361036	-5.4949371	115.92085
385	4	7	0.086043434	8.2670809	-6.4477894	117.42006
386	4	7	0.08981792	10.442095	-4.2736067	116.98845
387	4	7	0.08981792	10.282287	-5.2839361	118.46261
388	4	7	0.091107303	9.2404438	-3.2067607	118.96893
389	4	7	0.091107303	7.913002	-4.399036	118.77807
390	4	7	0.09243481	7.4507817	-3.5371344	116.47443
391	4	7	0.09243481	8.8541479	-2.4093365	116.59359
392	4	6	0.059078881	6.353053	-2.3666625	118.4212
393	4	6	0.059078881	7.7665938	-1.2598328	118.52928
394	4	5	0.32288978	6.9089727	-0.017012923	116.74466
395	5	8	-0.13858929	-7.3468737	2.7487837	111.77809
396	5	4	0.030838286	-7.9716128	2.1832709	110.65813
397	5	4	0.081149892	-9.4326669	1.8588075	110.97224
398	5	8	-0.48409906	-10.028113	1.1787943	109.88367
399	5	4	0.053300948	-10.740766	2.0810589	109.06391
400	5	4	0.075698206	-11.24693	1.3427025	107.82905
401	5	10	-0.67849898	-11.995144	2.2052483	107.01696
402	5	11	0.39362612	-11.343136	2.7780623	106.5333
403	5	6	0.090969914	-10.388424	0.91762004	107.25895
404	5	6	0.090969914	-11.898008	0.50060578	108.14685
405	5	6	0.091074759	-10.087823	2.9207791	108.73112
406	5	6	0.091074759	-11.618579	2.4900994	109.61515
407	5	6	0.090197401	-9.457934	1.1813071	111.85229
408	5	6	0.090197401	-9.9768157	2.7867657	111.27362
409	5	6	0.094091081	-7.4388522	1.24496	110.39205
410	5	6	0.094091081	-7.9046982	2.8743397	109.78785
411	6	1	0.54579383	-2.7567271	24.25231	-0.43033875
412	6	2	-0.66820204	-2.3312145	23.245918	0.19761356
413	6	3	-0.51880234	-1.9814027	25.451166	-0.50429399
414	6	4	0.032945653	-0.6726922	25.559081	0.13896658
415	6	4	-0.14409558	-0.062833106	26.945237	-0.092508715
416	6	4	-0.14074309	1.3045639	27.069856	0.59649963
417	6	4	-0.14074309	2.0392672	28.374877	0.24162294
418	6	4	-0.14280322	1.3125613	29.66544	0.66213775
419	6	4	0.027196086	1.1121625	29.774764	2.1796431
420	6	3	-0.46203273	0.57980981	31.088138	2.5397631
421	6	1	0.78823173	0.31325263	31.442625	3.8994744
422	6	2	-0.59439278	0.5343124	30.62626	4.833503
423	6	5	0.32946959	0.37694673	31.799207	1.800433
424	6	6	0.062707381	0.39790454	28.996266	2.5206364
425	6	6	0.062707381	2.0859661	29.622588	2.6947488
426	6	7	0.09243481	0.33358029	29.744898	0.14385342
427	6	7	0.09243481	1.9303573	30.524787	0.32373463
428	6	7	0.091107303	3.0428332	28.356461	0.72146886
429	6	7	0.091107303	2.2067691	28.404604	-0.85632487
430	6	7	0.091107303	1.1851874	26.980862	1.6975015
431	6	7	0.091107303	1.9479593	26.22368	0.27093903
432	6	7	0.09243481	-0.75762321	27.709552	0.31514577
433	6	7	0.09243481	0.054741427	27.113851	-1.1861277
434	6	6	0.059078881	0.0031969425	24.781274	-0.27816193
435	6	6	0.059078881	-0.78835068	25.384098	1.23171
436	6	5	0.32288975	-2.3772108	26.259022	-1.0370463
437	7	8	-0.49359387	-0.066080374	32.38184	4.1215754
438	7	4	0.10704486	0.9295709	33.307182	3.7805186
439	7	4	0.080219099	2.032998	33.314341	4.8398959
440	7	8	-0.48633259	2.9753443	34.332452	4.5582654
441	7	4	0.081025356	4.0867753	33.801896	3.8668372
442	7	4	0.030838286	5.0102846	34.943869	3.4550674
443	7	8	-0.13858929	6.1458434	34.443054	2.8034057
444	7	6	0.094091081	4.4651814	35.656913	2.7941644
445	7	6	0.094091081	5.3363826	35.497209	4.3614988
446	7	6	0.090197401	3.7657709	33.257703	2.9495702
447	7	6	0.090197401	4.655668	33.109002	4.5291671
448	7	6	0.088626535	1.5702225	33.542147	5.8237097
449	7	6	0.088626535	2.4857031	32.297633	4.9331444
450	7	6	0.096575515	0.47120597	34.317346	3.7247686
451	7	6	0.096575515	1.3532949	33.067648	2.7794299
452	4	1	0.54579389	-3.720706	24.206358	-0.91840326
453	4	2	-0.6682021	-3.8856254	24.794457	-2.0199071
454	4	3	-0.5188024	-4.7936854	23.487109	-0.30066753
455	4	4	0.032945657	-6.1236523	23.382554	-0.89838825
456	4	4	-0.14409558	-6.1131786	22.381871	-2.0584181
457	4	4	-0.14056101	-7.5114871	22.247312	-2.6811038
458	4	4	-0.13636578	-7.5755189	21.157373	-3.7626719
459	4	4	-0.12054762	-6.8378353	21.557167	-5.0506555
460	4	4	0.18625558	-7.0017252	20.501073	-6.1549363
461	4	3	-0.62047124	-8.3915818	20.379289	-6.5859495
462	4	9	0.59467089	-8.9897972	21.316778	-7.2048452
463	4	2	-0.44193491	-9.5717387	22.229777	-7.8052912
464	4	6	0.036661045	-6.3627012	20.769003	-7.0251793
465	4	6	0.036661045	-6.6561988	19.515817	-5.7758041
466	4	7	0.086043434	-5.7522122	21.660837	-4.8407031
467	4	7	0.086043434	-7.2106435	22.538676	-5.4154119
468	4	7	0.08981792	-7.1567686	20.206844	-3.3651204
469	4	7	0.08981792	-8.6472223	20.978529	-3.9995365
470	4	7	0.091107303	-8.2351658	21.979027	-1.8815958
471	4	7	0.091107303	-7.830082	23.222854	-3.1099485
472	4	7	0.09243481	-5.3930751	22.727912	-2.8283084
473	4	7	0.09243481	-5.7772895	21.391834	-1.6781614
474	4	6	0.059078881	-6.4572243	24.383819	-1.2501746
475	4	6	0.059078881	-6.8401125	23.03573	-0.12283096
476	4	5	0.32288978	-4.6321978	23.072247	0.64449104
477	5	8	-0.13858929	5.862015	34.202551	1.8828006
478	5	4	0.030838286	6.9756359	34.403963	1.0559417
479	5	4	0.081149892	7.1751448	35.896243	0.78777096
480	5	8	-0.48409906	8.2235431	36.090652	-0.14229149
481	5	4	0.053300948	9.4338316	36.377955	0.52600747
482	5	4	0.075698206	10.566327	36.439479	-0.49375579
483	5	10	-0.67849898	11.774238	36.765442	0.13711596
484	5	11	0.39362612	12.090271	35.940036	0.59097558
485	5	6	0.090969914	10.655394	35.463861	-1.0257116
486	5	6	0.090969914	10.337704	37.221855	-1.2485039
487	5	6	0.091074759	9.6746588	35.588433	1.2749235
488	5	6	0.091074759	9.3653825	37.365567	1.0375406
489	5	6	0.090197401	6.2418879	36.297499	0.33814845
490	5	6	0.090197401	7.3216777	36.444059	1.7502991
491	5	6	0.094091081	6.7994191	33.880606	0.091521883
492	5	6	0.094091081	7.8873937	33.966836	1.5218469
493	6	1	0.54579383	1.7226104	27.790873	33.449997
494	6	2	-0.66820204	1.6367138	26.613108	33.890115
495	6	3	-0.51880234	1.1285667	28.150999	32.200488
496	6	4	0.032945653	0.40146431	27.176778	31.387858
497	6	4	-0.14409558	-0.12715351	27.822848	30.103298
498	6	4	-0.14074309	-0.87666645	26.798991	29.237281
499	6	4	-0.14074309	-1.5831655	27.437606	28.028217
500	6	4	-0.14280322	-0.64881723	28.13476	27.022504
501	6	4	0.027196086	0.36014676	27.176247	26.375837
502	6	3	-0.46203273	1.1013525	27.845713	25.307912
503	6	1	0.78823173	2.0973936	27.16145	24.542918
504	6	2	-0.59439278	2.364317	25.95083	24.768485
505	6	5	0.32946959	0.91822758	28.850665	25.08449
506	6	6	0.062707381	1.0822595	26.820257	27.140249
507	6	6	0.062707381	-0.17862403	26.300604	25.951855
508	6	7	0.09243481	-0.11304499	28.976088	27.510818
509	6	7	0.09243481	-1.2830708	28.573653	26.222654
510	6	7	0.091107303	-2.1558475	26.646243	27.495755
511	6	7	0.091107303	-2.32358	28.179557	28.396625
512	6	7	0.091107303	-0.17914431	26.002402	28.900702
513	6	7	0.091107303	-1.65555	26.306171	29.858917
514	6	7	0.09243481	0.73334235	28.234394	29.534729
515	6	7	0.09243481	-0.81303254	28.657389	30.370444
516	6	6	0.059078881	-0.44954362	26.773059	31.978283
517	6	6	0.059078881	1.0847812	26.338643	31.125764
518	6	5	0.32288975	1.2268842	29.140654	31.87794
519	7	8	-0.49359387	2.6068424	27.665367	23.793334
520	7	4	0.10704486	1.6618059	27.978557	22.807071
521	7	4	0.080219099	1.3264518	26.736454	21.979666
522	7	8	-0.48633259	0.46551163	27.078989	20.909463
523	7	4	0.081025356	-0.87968726	26.819056	21.252561
524	7	4	0.030838286	-1.7869981	27.330516	20.138235
525	7	8	-0.13858929	-3.1281455	27.04716	20.431504
526	7	6	0.094091081	-1.6421373	28.427044	20.000383
527	7	6	0.094091081	-1.5179148	26.826574	19.185461
528	7	6	0.090197401	-1.1582635	27.333567	22.200317
529	7	6	0.090197401	-1.042016	25.722001	21.364555
530	7	6	0.088626535	2.2695009	26.342391	21.544558
531	7	6	0.088626535	0.92332028	25.930218	22.639061