Title

103 atoms
102 bonds
193 angles
348 dihedrals
15 impropers

9 atom types
12 bond types
9 angle types
39 dihedral types
3 improper types
-4.103000164 95.89699984 xlo xhi
-1.546000004 98.454 ylo yhi
-3.47300005 96.52699995 zlo zhi
0.0 0.0 0.0 xy xz yz

Masses

1	14.00672
2	12.01078
3	1.007947
4	1.007947
5	1.007947
6	12.01078
7	15.99943
8	15.99943
9	1.007947


Pair Coeffs

1	0.16769152	3.206876
2	0.10884061	3.3795318
3	0.014090815	1.1034277
4	0.016409246	2.5832257
5	0.015779483	2.6445434
6	0.086879315	3.4806469
7	0.2102061	3.0398122
8	0.20947353	2.99716
9	1.2326e-05	0.53453923

Bond Coeffs

1 harmonic	366.34047229585	1.464762957261
2 harmonic	505.144496193	1.019481865027
3 harmonic	422.7150220147	1.421786517481
4 harmonic	264.62148576755	1.52190126495
5 harmonic	370.04670688625	1.093899492634
6 harmonic	352.0565580496	1.450098586273
7 harmonic	492.76746816345	1.381897776683
8 harmonic	582.698766451	1.225198386222
9 harmonic	329.44145381095	1.523435958334
10 harmonic	279.1350963404	1.454628925034
11 harmonic	385.7604595587	1.369745182308
12 harmonic	543.5267831885	0.9716763312559


Angle Coeffs

1 harmonic	53.20531626545	116.5475862634
2 harmonic	49.015990027215	114.8414599994
3 harmonic	94.53012429075	110.92021963
4 harmonic	63.44422595415	115.5071327674
5 harmonic	55.42182150775	117.3465570514
6 harmonic	57.8982893754	126.8062420451
7 harmonic	48.776492647595	115.6030999533
8 harmonic	65.09061609600001	110.3538806181
9 harmonic	201.41175231035	127.4691416191


Dihedral Coeffs

1 fourier 1	0.1155372516788	3	0
2 fourier 1	0.2036670163956	3	0
3 fourier 1	0.6761465733405	3	0
4 fourier 1	1.653011589151	2	0
5 fourier 1	1.713184811193	1	0
6 fourier 1	0.774151252041	3	0
7 fourier 1	1.087509576657	2	0
8 fourier 1	1.518874939494	1	0
9 fourier 1	0.09223874044423	3	0
10 fourier 1	0.3159935921949	2	180
11 fourier 1	0.3247796806857	1	180
12 fourier 1	0.1040663847541	3	0
13 fourier 1	0.182238503271	2	0
14 fourier 1	0.02972342374561	3	0
15 fourier 1	-0.1488678166443	4	180
16 fourier 1	-0.1230328948768	3	180
17 fourier 1	0.2939295466901	2	0
18 fourier 1	-0.3024127022865	1	0
19 fourier 1	3.101948770557	2	180
20 fourier 1	-0.4252153282372	1	0
21 fourier 1	1.809047390003	2	180
22 fourier 1	-0.04816277792592	1	0
23 fourier 1	-0.04561822763521	4	0
24 fourier 1	0.1536091026885	2	0
25 fourier 1	0.02664938770063	3	0
26 fourier 1	2.348375642009	2	180
27 fourier 1	1.256156174911	1	0
28 fourier 1	0.1911926717192	3	0
29 fourier 1	0.3917343745784	3	0
30 fourier 1	0.9467782973395	2	0
31 fourier 1	0.2726597146827	1	0
32 fourier 1	-0.3703352413219	2	0
33 fourier 1	0.4541676554336	1	0
34 fourier 1	0.1489710476446	2	0
35 fourier 1	0.02960027280666	3	180
36 fourier 1	0.9974165607242	2	180
37 fourier 1	2.687457892086	2	180
38 fourier 1	2.772607909663	2	180
39 fourier 1	0.09692684957115	1	0


Improper Coeffs

1 0.3333333333333333	-1	2
2 0.3666666666666667	-1	2
3 3.5	-1	2


Atoms

1	1	1	-0.63803798	-3.73	0.76800001	-0.67199999
2	1	2	0.031042	-3.329	-0.105	0.43099999
3	1	2	-0.155772	-1.973	-0.787	0.18000001
4	1	2	-0.14437	-0.80000001	0.204	0.20299999
5	1	2	-0.14439701	0.542	-0.52999997	0.092
6	1	2	-0.145785	1.7130001	0.45899999	0.102
7	1	2	0.015369	3.0539999	-0.27200001	-0.0060000001
8	1	1	-0.49047199	4.152	0.68900001	-0.017000001
9	1	3	0.317572	4.223	1.115	0.93599999
10	1	4	0.048393998	3.0769999	-0.861	-0.949
11	1	4	0.048393998	3.1760001	-0.97299999	0.85100001
12	1	5	0.082923003	1.692	1.0470001	1.0470001
13	1	5	0.082923003	1.613	1.163	-0.75300002
14	1	5	0.081868	0.56300002	-1.1160001	-0.85299999
15	1	5	0.081868	0.648	-1.234	0.94700003
16	1	5	0.083357997	-0.89300001	0.912	-0.64899999
17	1	5	0.083357997	-0.824	0.78399998	1.152
18	1	5	0.088496998	-1.819	-1.546	0.97799999
19	1	5	0.088496998	-1.995	-1.323	-0.79400003
20	1	4	0.089180999	-3.2950001	0.479	1.376
21	1	4	0.089180999	-4.1030002	-0.89200002	0.55500001
22	1	3	0.36032099	-3.1029999	1.604	-0.69499999
23	1	6	0.72573298	5.0560002	0.147	-0.17399999
24	1	7	-0.742576	5.086	-0.72500002	-1.027
25	1	2	-0.18158799	6.2820001	0.44299999	0.63800001
26	1	2	-0.121073	6.0240002	1.579	1.638
27	1	2	-0.136765	7.289	1.989	2.4100001
28	1	2	-0.141321	7.6659999	0.977	3.5050001
29	1	2	-0.141321	8.9870005	1.326	4.2150002
30	1	2	-0.13864	8.9890003	2.668	4.9710002
31	1	2	-0.096988998	7.9419999	2.7260001	6.0929999
32	1	2	-0.257433	8.1110001	3.9960001	6.9349999
33	1	6	0.51743603	7.0809999	4.0679998	8.0229998
34	1	7	-0.68350101	7.0689998	5.0180001	8.7880001
35	1	5	0.114158	9.1210003	4.006	7.3979998
36	1	5	0.114158	8.0080004	4.8909998	6.2839999
37	1	5	0.077532001	6.9229999	2.7260001	5.651
38	1	5	0.077532001	8.0500002	1.834	6.7490001
39	1	5	0.079244003	10	2.799	5.4159999
40	1	5	0.079244003	8.8369999	3.51	4.263
41	1	5	0.081119001	9.2270002	0.51200002	4.9330001
42	1	5	0.081119001	9.8050003	1.3430001	3.4619999
43	1	5	0.081119001	6.842	0.89099997	4.2449999
44	1	5	0.081119001	7.796	-0.026000001	3.05
45	1	5	0.079244003	8.1370001	2.1240001	1.7029999
46	1	5	0.079244003	7.0830002	2.9719999	2.8840001
47	1	5	0.085312001	5.6609998	2.4690001	1.077
48	1	5	0.085312001	5.224	1.283	2.3529999
49	1	5	0.11715	7.105	0.73000002	-0.050999999
50	1	5	0.11715	6.5749998	-0.48300001	1.176
51	1	1	-0.63803798	-3.625	0.25600001	-1.5779999
52	1	2	0.031042	-2.984	1.1289999	-2.5599999
53	1	2	-0.155772	-1.72	1.811	-2.007
54	1	2	-0.144447	-0.574	0.81999999	-1.763
55	1	2	-0.143084	0.708	1.554	-1.349
56	1	2	-0.15725499	1.851	0.565	-1.0930001
57	1	2	0.028097	3.132	1.296	-0.68199998
58	1	1	-0.97526199	4.198	0.33500001	-0.421
59	1	3	0.38025099	5.027	0.86699998	-0.068999998
60	1	3	0.38025099	4.4850001	-0.090999998	-1.3329999
61	1	4	0.077264003	2.9400001	1.885	0.242
62	1	4	0.077264003	3.4460001	1.997	-1.489
63	1	5	0.089368001	2.046	-0.023	-2.017
64	1	5	0.089368001	1.559	-0.139	-0.28200001
65	1	5	0.083357997	0.51300001	2.1400001	-0.42399999
66	1	5	0.083357997	1.006	2.2579999	-2.1570001
67	1	5	0.083357997	-0.85799998	0.112	-0.954
68	1	5	0.083357997	-0.38100001	0.23999999	-2.6919999
69	1	5	0.088496998	-1.3890001	2.5699999	-2.75
70	1	5	0.088496998	-1.964	2.3469999	-1.064
71	1	4	0.089180999	-2.7349999	0.54500002	-3.473
72	1	4	0.089180999	-3.71	1.916	-2.858
73	1	3	0.36032099	-3.0209999	-0.57999998	-1.4119999
74	1	6	0.51743603	6.3400002	3.2839999	8.1420002
75	1	7	-0.68350101	5.2290001	3.4260001	7.6589999
76	1	2	-0.257433	6.6929998	2.027	8.8830004
77	1	2	-0.096988998	5.8590002	1.857	10.16
78	1	2	-0.13864	6.1939998	2.9200001	11.217
79	1	2	-0.141321	5.381	2.6989999	12.498
80	1	2	-0.141321	5.7059999	3.7709999	13.548
81	1	2	-0.13598099	5.0159998	3.51	14.897
82	1	2	-0.112771	3.5	3.767	14.844
83	1	2	-0.21844199	2.8340001	3.5799999	16.214001
84	1	6	0.82438201	3.221	4.664	17.173
85	1	7	-0.553747	4.0549998	4.4310002	18.087999
86	1	8	-0.66489798	2.677	5.9369998	17.035
87	1	9	0.39492899	2.937	6.684	17.667999
88	1	5	0.118507	1.7309999	3.6059999	16.084
89	1	5	0.118507	3.0969999	2.5840001	16.632999
90	1	5	0.086337	3.299	4.7940001	14.468
91	1	5	0.086337	3.029	3.049	14.141
92	1	5	0.079244003	5.2129998	2.4660001	15.225
93	1	5	0.079244003	5.474	4.1900001	15.647
94	1	5	0.081119001	5.4200001	4.7750001	13.167
95	1	5	0.081119001	6.8049998	3.7780001	13.723
96	1	5	0.081119001	4.2989998	2.737	12.246
97	1	5	0.081119001	5.6139998	1.692	12.911
98	1	5	0.079244003	5.967	3.931	10.813
99	1	5	0.079244003	7.2789998	2.8710001	11.456
100	1	5	0.077532001	4.776	1.899	9.9090004
101	1	5	0.077532001	6.0700002	0.85000002	10.581
102	1	5	0.114158	7.7750001	2.0409999	9.1400003
103	1	5	0.114158	6.5170002	1.158	8.2139997

Bonds

1	1	1	2
2	2	1	22
3	3	1	51
4	4	2	3
5	5	2	20
6	5	2	21
7	4	3	4
8	5	3	18
9	5	3	19
10	4	4	5
11	5	4	16
12	5	4	17
13	4	5	6
14	5	5	14
15	5	5	15
16	4	6	7
17	5	6	12
18	5	6	13
19	6	7	8
20	5	7	10
21	5	7	11
22	2	8	9
23	7	8	23
24	8	23	24
25	9	23	25
26	4	25	26
27	5	25	49
28	5	25	50
29	4	26	27
30	5	26	47
31	5	26	48
32	4	27	28
33	5	27	45
34	5	27	46
35	4	28	29
36	5	28	43
37	5	28	44
38	4	29	30
39	5	29	41
40	5	29	42
41	4	30	31
42	5	30	39
43	5	30	40
44	4	31	32
45	5	31	37
46	5	31	38
47	9	32	33
48	5	32	35
49	5	32	36
50	8	33	34
51	10	33	74
52	1	51	52
53	2	51	73
54	4	52	53
55	5	52	71
56	5	52	72
57	4	53	54
58	5	53	69
59	5	53	70
60	4	54	55
61	5	54	67
62	5	54	68
63	4	55	56
64	5	55	65
65	5	55	66
66	4	56	57
67	5	56	63
68	5	56	64
69	1	57	58
70	5	57	61
71	5	57	62
72	2	58	59
73	2	58	60
74	8	74	75
75	9	74	76
76	4	76	77
77	5	76	102
78	5	76	103
79	4	77	78
80	5	77	100
81	5	77	101
82	4	78	79
83	5	78	98
84	5	78	99
85	4	79	80
86	5	79	96
87	5	79	97
88	4	80	81
89	5	80	94
90	5	80	95
91	4	81	82
92	5	81	92
93	5	81	93
94	4	82	83
95	5	82	90
96	5	82	91
97	9	83	84
98	5	83	88
99	5	83	89
100	8	84	85
101	11	84	86
102	12	86	87

Angles

1	1	83	82	91
2	1	80	81	93
3	6	34	33	74
4	1	30	31	38
5	1	78	79	97
6	1	5	6	13
7	1	80	79	97
8	1	74	76	102
9	7	10	7	11
10	1	29	28	43
11	1	53	54	55
12	7	65	55	66
13	7	94	80	95
14	1	58	57	62
15	1	6	7	8
16	1	6	7	10
17	3	22	1	51
18	1	79	80	81
19	1	74	76	103
20	7	63	56	64
21	1	31	30	40
22	1	30	29	41
23	3	2	1	22
24	1	29	28	44
25	1	25	26	47
26	1	3	4	5
27	1	84	83	89
28	7	98	78	99
29	1	31	32	36
30	1	25	26	27
31	1	81	82	83
32	6	33	74	75
33	1	26	25	49
34	1	4	5	14
35	7	43	28	44
36	1	56	57	61
37	7	35	32	36
38	1	32	31	38
39	1	54	55	65
40	1	3	4	16
41	1	30	29	42
42	1	27	28	44
43	1	26	27	45
44	1	28	29	30
45	1	25	26	48
46	1	8	7	10
47	1	23	25	49
48	6	32	33	34
49	1	6	5	15
50	1	80	81	82
51	6	83	84	85
52	4	7	8	9
53	1	82	83	88
54	7	61	57	62
55	1	1	2	21
56	7	16	4	17
57	6	75	74	76
58	1	26	25	50
59	1	79	80	94
60	1	53	54	67
61	1	27	28	29
62	1	55	56	63
63	2	1	51	52
64	1	81	82	91
65	1	31	32	33
66	1	28	29	42
67	1	82	83	84
68	7	100	77	101
69	1	5	4	16
70	1	26	27	46
71	2	2	1	51
72	1	23	25	50
73	6	83	84	86
74	6	32	33	74
75	1	56	57	58
76	7	20	2	21
77	1	27	26	47
78	7	14	5	15
79	3	57	58	59
80	1	4	5	6
81	7	69	53	70
82	1	53	54	68
83	1	4	3	18
84	1	1	2	3
85	1	54	53	69
86	1	23	25	26
87	1	56	55	65
88	7	45	27	46
89	1	81	80	94
90	1	28	27	45
91	6	8	23	24
92	1	6	7	11
93	1	27	26	48
94	1	33	32	35
95	1	82	81	92
96	1	29	30	39
97	1	4	3	19
98	1	55	54	67
99	1	7	6	12
100	1	77	76	102
101	1	2	3	18
102	1	54	53	70
103	1	53	52	71
104	7	92	81	93
105	6	33	74	76
106	1	52	53	69
107	1	4	5	15
108	7	39	30	40
109	1	81	80	95
110	1	28	27	46
111	1	30	31	32
112	1	56	57	62
113	6	8	23	25
114	1	77	78	98
115	1	54	55	66
116	1	3	4	17
117	1	33	32	36
118	1	80	81	92
119	1	76	77	100
120	1	30	31	37
121	8	84	86	87
122	1	78	79	96
123	1	82	83	89
124	1	55	54	68
125	1	7	6	13
126	1	29	30	31
127	1	77	76	103
128	1	51	52	71
129	7	71	52	72
130	1	8	7	11
131	5	7	8	23
132	1	79	80	95
133	6	24	23	25
134	7	67	54	68
135	1	55	56	64
136	1	77	78	99
137	7	96	79	97
138	1	58	57	61
139	1	5	4	17
140	1	77	78	79
141	7	90	82	91
142	1	51	52	53
143	1	76	77	101
144	7	37	31	38
145	1	3	2	20
146	1	52	53	54
147	1	55	56	57
148	1	74	76	77
149	7	18	3	19
150	1	51	52	72
151	1	31	30	39
152	1	5	6	7
153	3	57	58	60
154	7	88	83	89
155	3	52	51	73
156	1	84	83	88
157	1	31	32	35
158	1	54	55	56
159	7	49	25	50
160	1	57	56	63
161	7	41	29	42
162	1	79	78	98
163	1	56	55	66
164	3	1	51	73
165	1	3	2	21
166	3	59	58	60
167	1	26	27	28
168	7	102	76	103
169	1	78	77	100
170	1	32	31	37
171	1	78	79	80
172	1	27	28	43
173	1	83	82	90
174	1	82	81	93
175	9	85	84	86
176	1	29	30	40
177	1	2	3	4
178	1	6	5	14
179	4	9	8	23
180	1	5	6	12
181	1	80	79	96
182	1	76	77	78
183	1	2	3	19
184	1	57	56	64
185	1	1	2	20
186	1	53	52	72
187	1	79	78	99
188	1	52	53	70
189	7	12	6	13
190	1	78	77	101
191	1	81	82	90
192	1	28	29	41
193	7	47	26	48

Dihedrals

1	12	53	54	55	65
2	1	58	57	56	64
3	37	83	84	86	87
4	28	91	82	81	92
5	1	1	2	3	19
6	12	54	53	52	72
7	28	44	28	27	46
8	28	11	7	6	12
9	2	1	51	52	71
10	32	31	32	33	34
11	12	25	26	27	45
12	12	29	28	27	46
13	12	2	3	4	17
14	12	4	5	6	12
15	1	33	32	31	38
16	12	5	4	3	19
17	1	51	52	53	70
18	12	3	4	5	15
19	1	8	7	6	12
20	12	54	55	56	63
21	2	60	58	57	62
22	28	36	32	31	38
23	12	29	30	31	38
24	2	71	52	51	73
25	12	26	27	28	44
26	12	52	53	54	68
27	12	78	79	80	94
28	12	82	81	80	95
29	36	32	33	74	75
30	28	40	30	29	41
31	2	56	57	58	60
32	13	10	7	8	23
32	14	10	7	8	23
33	28	38	31	30	39
34	28	39	30	29	41
35	28	97	79	78	98
36	2	20	2	1	51
37	12	52	53	54	67
38	28	65	55	54	67
39	33	85	84	83	88
39	34	85	84	83	88
39	35	85	84	83	88
40	28	98	78	77	100
41	26	9	8	23	24
41	27	9	8	23	24
42	33	24	23	25	49
42	34	24	23	25	49
42	35	24	23	25	49
43	28	10	7	6	13
44	25	31	32	33	74
45	12	4	5	6	13
46	28	68	54	53	70
47	28	92	81	80	94
48	12	77	78	79	97
49	2	72	52	51	73
50	28	101	77	76	103
51	12	32	31	30	39
52	12	78	79	80	95
53	12	30	29	28	44
54	36	32	33	74	76
55	28	40	30	29	42
56	28	62	57	56	64
57	28	100	77	76	103
58	28	47	26	25	49
59	28	97	79	78	99
60	9	54	55	56	57
60	10	54	55	56	57
60	11	54	55	56	57
61	25	36	32	33	74
62	2	53	52	51	73
63	28	65	55	54	68
64	33	85	84	83	89
64	34	85	84	83	89
64	35	85	84	83	89
65	28	95	80	79	96
66	12	6	5	4	16
67	21	9	8	23	25
67	22	9	8	23	25
68	28	69	53	52	72
69	33	24	23	25	50
69	34	24	23	25	50
69	35	24	23	25	50
70	28	64	56	55	65
71	28	63	56	55	65
72	1	1	2	3	4
73	28	92	81	80	95
74	25	33	74	76	103
75	28	17	4	3	18
76	12	76	77	78	99
77	28	88	83	82	90
78	1	23	25	26	48
79	25	86	84	83	88
80	28	99	78	77	101
81	28	18	3	2	21
82	28	16	4	3	18
83	28	48	26	25	49
84	9	76	77	78	79
84	10	76	77	78	79
84	11	76	77	78	79
85	25	8	23	25	49
86	28	47	26	25	50
87	12	55	56	57	62
88	28	41	29	28	43
89	32	24	23	25	26
90	28	46	27	26	47
91	1	5	6	7	8
92	12	6	5	4	17
93	1	84	83	82	91
94	12	5	6	7	10
95	28	14	5	4	17
96	28	63	56	55	66
97	12	53	54	55	66
98	13	9	8	7	11
98	14	9	8	7	11
99	2	1	51	52	53
100	13	11	7	8	23
100	14	11	7	8	23
101	28	37	31	30	39
102	28	35	32	31	37
103	28	91	82	81	93
104	1	55	56	57	58
105	13	6	7	8	9
105	14	6	7	8	9
106	28	90	82	81	92
107	28	17	4	3	19
108	32	82	83	84	85
109	1	30	31	32	33
110	12	79	80	81	92
111	1	74	76	77	100
112	28	11	7	6	13
113	28	94	80	79	96
114	2	1	51	52	72
115	28	15	5	4	16
116	12	27	28	29	41
117	12	25	26	27	46
118	9	28	29	30	31
118	10	28	29	30	31
118	11	28	29	30	31
119	28	48	26	25	50
120	12	80	81	82	90
121	12	7	6	5	14
122	9	26	27	28	29
122	10	26	27	28	29
122	11	26	27	28	29
123	12	83	82	81	93
124	1	8	7	6	13
125	12	54	55	56	64
126	6	22	1	51	52
126	7	22	1	51	52
126	8	22	1	51	52
127	3	2	1	51	52
127	4	2	1	51	52
127	5	2	1	51	52
128	28	12	6	5	14
129	28	67	54	53	69
130	28	66	55	54	67
131	12	78	77	76	102
132	28	70	53	52	71
133	28	37	31	30	40
134	12	81	82	83	88
135	28	35	32	31	38
136	28	39	30	29	42
137	28	38	31	30	40
138	28	13	6	5	14
139	33	34	33	32	35
139	34	34	33	32	35
139	35	34	33	32	35
140	28	94	80	79	97
141	1	74	76	77	101
142	28	98	78	77	101
143	15	6	7	8	23
143	16	6	7	8	23
143	17	6	7	8	23
143	18	6	7	8	23
144	28	93	81	80	94
145	28	15	5	4	17
146	12	80	79	78	98
147	12	31	30	29	41
148	36	34	33	74	75
149	12	7	6	5	15
150	28	61	57	56	63
151	1	81	82	83	84
152	12	28	27	26	47
153	28	12	6	5	15
154	2	3	2	1	22
155	12	28	29	30	39
156	12	32	31	30	40
157	32	75	74	76	77
158	28	70	53	52	72
159	9	53	54	55	56
159	10	53	54	55	56
159	11	53	54	55	56
160	28	42	29	28	43
161	28	95	80	79	97
162	28	13	6	5	15
163	2	21	2	1	22
164	28	64	56	55	66
165	12	56	55	54	67
166	12	80	79	78	99
167	12	79	78	77	100
168	12	31	30	29	42
169	9	80	81	82	83
169	10	80	81	82	83
169	11	80	81	82	83
170	1	58	57	56	63
171	25	33	74	76	77
172	9	78	79	80	81
172	10	78	79	80	81
172	11	78	79	80	81
173	12	27	26	25	49
174	12	54	53	52	71
175	28	88	83	82	91
176	25	86	84	83	89
177	9	29	30	31	32
177	10	29	30	31	32
177	11	29	30	31	32
178	12	28	29	30	40
179	28	16	4	3	19
180	1	33	32	31	37
181	25	8	23	25	50
182	9	27	28	29	30
182	10	27	28	29	30
182	11	27	28	29	30
183	12	5	4	3	18
184	28	42	29	28	44
185	1	51	52	53	69
186	13	9	8	7	10
186	14	9	8	7	10
187	28	41	29	28	44
188	28	46	27	26	48
189	2	60	58	57	61
190	2	59	58	57	61
191	28	36	32	31	37
192	12	29	30	31	37
193	12	81	80	79	96
194	38	85	84	86	87
194	39	85	84	86	87
195	28	45	27	26	47
196	28	96	79	78	98
197	28	43	28	27	45
198	12	82	81	80	94
199	9	52	53	54	55
199	10	52	53	54	55
199	11	52	53	54	55
200	12	79	78	77	101
201	28	96	79	78	99
202	2	56	57	58	59
203	12	5	6	7	11
204	12	27	26	25	50
205	28	90	82	81	93
206	25	82	83	84	86
207	12	79	80	81	93
208	28	89	83	82	90
209	1	74	76	77	78
210	12	57	56	55	65
211	23	8	23	25	26
211	24	8	23	25	26
212	9	79	80	81	82
212	10	79	80	81	82
212	11	79	80	81	82
213	12	27	28	29	42
214	28	10	7	6	12
215	28	19	3	2	20
216	2	3	2	1	51
217	12	56	55	54	68
218	9	77	78	79	80
218	10	77	78	79	80
218	11	77	78	79	80
219	12	80	81	82	91
220	28	68	54	53	69
221	12	55	54	53	69
222	2	59	58	57	62
223	12	77	78	79	96
224	12	81	80	79	97
225	28	101	77	76	102
226	28	45	27	26	48
227	28	66	55	54	68
228	19	7	8	23	24
228	20	7	8	23	24
229	28	43	28	27	46
230	12	30	29	28	43
231	2	21	2	1	51
232	28	62	57	56	63
233	28	67	54	53	70
234	12	78	77	76	103
235	33	75	74	76	102
235	34	75	74	76	102
235	35	75	74	76	102
236	12	81	82	83	89
237	28	100	77	76	102
238	12	30	31	32	35
239	33	34	33	32	36
239	34	34	33	32	36
239	35	34	33	32	36
240	1	51	52	53	54
241	28	69	53	52	71
242	9	2	3	4	5
242	10	2	3	4	5
242	11	2	3	4	5
243	12	57	56	55	66
244	28	89	83	82	91
245	28	93	81	80	95
246	12	83	82	81	92
247	12	4	3	2	20
248	28	19	3	2	21
249	9	3	4	5	6
249	10	3	4	5	6
249	11	3	4	5	6
250	36	34	33	74	76
251	25	35	32	33	74
252	28	61	57	56	64
253	12	28	27	26	48
254	2	20	2	1	22
255	9	4	5	6	7
255	10	4	5	6	7
255	11	4	5	6	7
256	1	1	2	3	18
257	9	25	26	27	28
257	10	25	26	27	28
257	11	25	26	27	28
258	25	33	74	76	102
259	12	55	54	53	70
260	28	44	28	27	45
261	12	76	77	78	98
262	1	23	25	26	47
263	28	99	78	77	100
264	21	7	8	23	25
264	22	7	8	23	25
265	28	18	3	2	20
266	29	22	1	51	73
266	30	22	1	51	73
266	31	22	1	51	73
267	12	29	28	27	45
268	6	2	1	51	73
268	7	2	1	51	73
268	8	2	1	51	73
269	12	2	3	4	16
270	33	75	74	76	103
270	34	75	74	76	103
270	35	75	74	76	103
271	12	55	56	57	61
272	1	23	25	26	27
273	12	3	4	5	14
274	12	30	31	32	36
275	1	84	83	82	90
276	28	14	5	4	16
277	12	26	27	28	43
278	12	4	3	2	21

Impropers

5	2	23	25	8	24
36	2	23	8	24	25
84	1	8	23	7	9
100	3	84	86	83	85
228	1	8	9	23	7
306	1	8	7	9	23
307	2	33	34	74	32
384	2	74	33	75	76
389	3	84	83	85	86
486	2	33	74	32	34
554	2	23	24	25	8
597	2	74	75	76	33
635	2	74	76	33	75
677	3	84	85	86	83
681	2	33	32	34	74
