Title

65 atoms
66 bonds
115 angles
187 dihedrals
36 impropers

9 atom types
13 bond types
7 angle types
27 dihedral types
2 improper types
-4.046999931 95.95300007 xlo xhi
-6.915999889 93.08400011 ylo yhi
-5.56799984 94.43200016 zlo zhi
0.0 0.0 0.0 xy xz yz

Masses

1	15.99943
2	12.01078
3	1.007947
4	1.007947
5	12.01078
6	15.99943
7	1.007947
8	15.99943
9	1.007947


Pair Coeffs

1	0.16846514	3.0251065
2	0.10884061	3.3795318
3	0.016409246	2.5832257
4	0.015779483	2.6445434
5	0.086879315	3.4806469
6	0.2102061	3.0398122
7	0.015611343	2.5725815
8	0.20947353	2.99716
9	1.2326e-05	0.53453923

Bond Coeffs

1 harmonic	366.7408841747	1.425895053732
2 harmonic	300.03137914615	1.451203938761
3 harmonic	264.62148576755	1.52190126495
4 harmonic	370.04670688625	1.093899492634
5 harmonic	301.15400723785	1.345741232799
6 harmonic	582.698766451	1.225198386222
7 harmonic	279.1350963404	1.454628925034
8 harmonic	399.1592953295	1.371688562017
9 harmonic	369.34270398985	1.364116986116
10 harmonic	397.2545789619	1.085358495916
11 harmonic	329.96998057905	1.427343958716
12 harmonic	543.5267831885	0.9716763312559
13 harmonic	385.7604595587	1.369745182308


Angle Coeffs

1 harmonic	53.20531626545	116.5475862634
2 harmonic	65.09061609600001	110.3538806181
3 harmonic	201.41175231035	127.4691416191
4 harmonic	57.8982893754	126.8062420451
5 harmonic	48.776492647595	115.6030999533
6 harmonic	39.628116874445	129.8027304608
7 harmonic	79.1895422237	112.4630193006


Dihedral Coeffs

1 fourier 1	0.1155372516788	3	0
2 fourier 1	0.1115525666802	3	0
3 fourier 1	0.3432490222662	1	0
4 fourier 1	0.0473758381877	3	0
5 fourier 1	0.457973137376	1	0
6 fourier 1	0.09223874044423	3	0
7 fourier 1	0.3159935921949	2	180
8 fourier 1	0.3247796806857	1	180
9 fourier 1	0.1040663847541	3	0
10 fourier 1	0.1918272375143	3	0
11 fourier 1	0.9202179876409	1	180
12 fourier 1	1.163809172478	2	180
13 fourier 1	0.1679186987369	1	180
14 fourier 1	2.779853741805	2	180
15 fourier 1	0.9974165607242	2	180
16 fourier 1	0.1911926717192	3	0
17 fourier 1	5.294842998052	2	180
18 fourier 1	1.659715194912	2	180
19 fourier 1	0.2347635637734	2	180
20 fourier 1	0.4747469131102	3	0
21 fourier 1	1.163235555439	2	180
22 fourier 1	0.3445382149273	3	0
23 fourier 1	0.1364556373303	1	0
24 fourier 1	0.3026390167484	3	0
25 fourier 1	2.687457892086	2	180
26 fourier 1	2.772607909663	2	180
27 fourier 1	0.09692684957115	1	0


Improper Coeffs

1 3.5	-1	2
2 0.3666666666666667	-1	2


Atoms

1	1	1	-0.17060301	-3.8510001	0.213	1.086
2	1	2	0.035204001	-3.0139999	-0.426	0.162
3	1	2	-0.14525899	-1.5880001	0.119	0.273
4	1	2	-0.14040799	-0.64399999	-0.602	-0.70099998
5	1	2	-0.141627	0.76700002	0.0049999999	-0.71600002
6	1	2	-0.140725	1.551	-0.289	0.574
7	1	2	0.14011499	3.0009999	0.18799999	0.47499999
8	1	1	-0.49516699	3.043	1.5829999	0.35100001
9	1	3	0.074142002	3.497	-0.28999999	-0.40000001
10	1	3	0.074142002	3.5420001	-0.119	1.398
11	1	4	0.090106003	1.0700001	0.21600001	1.439
12	1	4	0.090106003	1.551	-1.3839999	0.76599997
13	1	4	0.086060002	1.318	-0.43200001	-1.577
14	1	4	0.086060002	0.70099998	1.102	-0.88099998
15	1	4	0.086236	-0.58700001	-1.683	-0.44299999
16	1	4	0.086236	-1.061	-0.523	-1.729
17	1	4	0.091192	-1.597	1.2079999	0.046
18	1	4	0.091192	-1.2359999	-0.023	1.316
19	1	3	0.083958998	-3.013	-1.515	0.384
20	1	3	0.083958998	-3.405	-0.28600001	-0.87300003
21	1	5	0.672342	4.0469999	1.835	0.28299999
22	1	6	-0.53808898	4.3790002	2.9230001	-0.25400001
23	1	5	0.24924099	5.072	0.93199998	0.80800003
24	1	5	-0.28958401	4.8369999	-0.236	1.391
25	1	7	0.17431401	3.8670001	-0.685	1.562
26	1	5	-0.30151901	6.138	-0.78899997	1.7539999
27	1	7	0.158952	6.3299999	-1.733	2.2490001
28	1	5	0.301256	7.0469999	0.092	1.359
29	1	5	0.43525001	8.4940004	-0.056000002	1.523
30	1	6	-0.54342002	9.2720003	0.84299999	1.11
31	1	1	-0.22474401	6.4359999	1.186	0.76099998
32	1	1	-0.17060301	-4.0469999	1.114	0.71700001
33	1	2	0.035204001	-2.8110001	1.7539999	0.546
34	1	2	-0.14525899	-2.099	1.209	-0.69499999
35	1	2	-0.140356	-0.76300001	1.9299999	-0.926
36	1	2	-0.136261	0.044	1.323	-2.0840001
37	1	2	-0.167183	-0.57999998	1.6160001	-3.4579999
38	1	2	0.088486001	0.31900001	1.14	-4.5999999
39	1	8	-0.68156397	0.44499999	-0.255	-4.5650001
40	1	9	0.38262299	1.04	-0.49599999	-5.322
41	1	3	0.074914001	1.321	1.617	-4.5170002
42	1	3	0.074914001	-0.139	1.446	-5.5679998
43	1	4	0.093547001	-1.566	1.1109999	-3.5480001
44	1	4	0.093547001	-0.73900002	2.711	-3.5669999
45	1	4	0.086236	1.066	1.76	-2.0539999
46	1	4	0.086236	0.14300001	0.22499999	-1.937
47	1	4	0.086236	-0.94400001	3.01	-1.118
48	1	4	0.086236	-0.149	1.851	-0.0020000001
49	1	4	0.091192	-1.9170001	0.12	-0.56
50	1	4	0.091192	-2.7639999	1.35	-1.574
51	1	3	0.083958998	-2.994	2.8429999	0.41999999
52	1	3	0.083958998	-2.177	1.614	1.451
53	1	5	0.43525001	8.9020004	-0.93800002	1.999
54	1	6	-0.54342002	10.108	-0.949	2.3570001
55	1	5	0.301256	8.0570002	-2.112	2.227
56	1	5	-0.30151999	6.7779999	-2.21	1.893
57	1	7	0.158952	6.1799998	-1.449	1.409
58	1	5	-0.29329401	6.342	-3.5409999	2.3039999
59	1	7	0.17431401	5.3530002	-3.9649999	2.1860001
60	1	5	0.26011801	7.3959999	-4.1339998	2.8529999
61	1	5	0.71656698	7.4260001	-5.4899998	3.411
62	1	6	-0.52976799	6.3920002	-6.21	3.3989999
63	1	8	-0.70003498	8.6070004	-5.9829998	3.9560001
64	1	9	0.393664	8.6499996	-6.9159999	4.3460002
65	1	1	-0.228257	8.493	-3.2839999	2.8299999

Bonds

1	1	1	2
2	2	1	32
3	3	2	3
4	4	2	19
5	4	2	20
6	3	3	4
7	4	3	17
8	4	3	18
9	3	4	5
10	4	4	15
11	4	4	16
12	3	5	6
13	4	5	13
14	4	5	14
15	3	6	7
16	4	6	11
17	4	6	12
18	1	7	8
19	4	7	9
20	4	7	10
21	5	8	21
22	6	21	22
23	7	21	23
24	8	23	24
25	9	23	31
26	10	24	25
27	7	24	26
28	10	26	27
29	8	26	28
30	7	28	29
31	9	28	31
32	6	29	30
33	7	29	53
34	1	32	33
35	3	33	34
36	4	33	51
37	4	33	52
38	3	34	35
39	4	34	49
40	4	34	50
41	3	35	36
42	4	35	47
43	4	35	48
44	3	36	37
45	4	36	45
46	4	36	46
47	3	37	38
48	4	37	43
49	4	37	44
50	11	38	39
51	4	38	41
52	4	38	42
53	12	39	40
54	6	53	54
55	7	53	55
56	8	55	56
57	9	55	65
58	10	56	57
59	7	56	58
60	10	58	59
61	8	58	60
62	7	60	61
63	9	60	65
64	6	61	62
65	13	61	63
66	12	63	64

Angles

1	1	4	5	6
2	1	38	37	43
3	4	54	53	55
4	6	53	55	65
5	1	34	35	48
6	1	3	2	20
7	1	8	7	10
8	1	8	7	9
9	1	3	4	5
10	4	24	26	28
11	6	57	56	58
12	6	26	28	29
13	1	5	6	7
14	4	8	21	23
15	1	1	2	3
16	1	2	3	4
17	1	36	35	47
18	5	9	7	10
19	1	34	33	51
20	4	24	23	31
21	4	28	29	53
22	7	55	65	60
23	1	37	38	42
24	4	28	29	30
25	1	35	36	45
26	7	23	31	28
27	1	6	5	14
28	1	5	6	12
29	1	36	35	48
30	1	35	34	49
31	1	32	33	51
32	1	1	2	20
33	6	21	23	31
34	6	59	58	60
35	1	36	37	44
36	5	13	5	14
37	1	5	4	15
38	1	2	3	17
39	1	35	36	46
40	5	19	2	20
41	1	4	3	17
42	5	41	38	42
43	1	33	34	49
44	5	51	33	52
45	5	15	4	16
46	4	29	53	54
47	1	32	33	52
48	2	2	1	32
49	6	29	28	31
50	1	37	38	39
51	6	56	58	59
52	1	3	4	15
53	1	6	7	8
54	1	33	34	50
55	5	45	36	46
56	4	29	53	55
57	6	21	23	24
58	3	62	61	63
59	4	60	61	62
60	1	38	37	44
61	1	34	33	52
62	1	37	36	45
63	2	1	32	33
64	6	23	24	25
65	6	25	24	26
66	4	26	28	31
67	1	7	6	11
68	4	22	21	23
69	1	4	5	13
70	5	11	6	12
71	1	35	34	50
72	1	33	34	35
73	5	43	37	44
74	4	23	24	26
75	6	58	60	61
76	1	7	6	12
77	1	5	4	16
78	1	2	3	18
79	1	32	33	34
80	6	24	26	27
81	1	4	5	14
82	1	4	3	18
83	1	36	37	38
84	5	47	35	48
85	1	39	38	41
86	3	8	21	22
87	4	56	58	60
88	1	36	37	43
89	1	34	35	36
90	6	53	55	56
91	1	3	4	16
92	6	61	60	65
93	1	6	7	10
94	4	30	29	53
95	1	6	7	9
96	6	55	56	57
97	1	39	38	42
98	4	56	55	65
99	2	38	39	40
100	1	37	38	41
101	2	61	63	64
102	4	58	60	65
103	5	17	3	18
104	1	6	5	13
105	4	60	61	63
106	1	5	6	11
107	5	49	34	50
108	1	37	36	46
109	1	1	2	19
110	2	7	8	21
111	1	35	36	37
112	1	34	35	47
113	4	55	56	58
114	1	3	2	19
115	6	27	26	28

Dihedrals

1	9	7	6	5	13
2	2	1	2	3	17
2	3	1	2	3	17
3	9	35	36	37	44
4	6	34	35	36	37
4	7	34	35	36	37
4	8	34	35	36	37
5	16	11	6	5	14
6	15	26	28	29	53
7	18	23	31	28	29
8	16	15	4	3	18
9	16	14	5	4	16
10	16	13	5	4	16
11	26	62	61	63	64
11	27	62	61	63	64
12	19	26	28	29	30
12	20	26	28	29	30
13	9	34	35	36	45
14	9	4	3	2	20
15	9	36	37	38	41
16	24	40	39	38	42
17	2	8	7	6	11
17	3	8	7	6	11
18	5	2	1	32	33
19	17	57	56	55	65
20	17	24	26	28	31
21	9	6	5	4	15
22	6	3	4	5	6
22	7	3	4	5	6
22	8	3	4	5	6
23	22	37	38	39	40
23	23	37	38	39	40
24	16	42	38	37	44
25	16	49	34	33	51
26	9	37	36	35	47
27	16	17	3	2	19
28	6	35	36	37	38
28	7	35	36	37	38
28	8	35	36	37	38
29	17	21	23	24	25
30	9	36	37	38	42
31	2	8	7	6	12
31	3	8	7	6	12
32	9	35	34	33	51
33	16	12	6	5	13
34	16	44	37	36	45
35	15	54	53	55	65
36	4	9	7	8	21
37	2	39	38	37	44
37	3	39	38	37	44
38	15	30	29	53	54
39	6	2	3	4	5
39	7	2	3	4	5
39	8	2	3	4	5
40	9	5	6	7	10
41	9	33	34	35	48
42	9	5	6	7	9
43	12	7	8	21	22
43	13	7	8	21	22
44	21	23	24	26	27
45	1	32	33	34	35
46	16	17	3	2	20
47	18	24	23	31	28
48	15	62	61	60	65
49	16	16	4	3	17
50	16	12	6	5	14
51	4	1	32	33	52
52	16	44	37	36	46
53	15	8	21	23	31
54	9	36	35	34	50
55	17	27	26	28	29
56	21	25	24	26	27
57	17	25	24	23	31
58	16	10	7	6	11
59	9	4	5	6	11
60	2	32	33	34	50
60	3	32	33	34	50
61	17	56	58	60	65
62	9	7	6	5	14
63	2	1	2	3	18
63	3	1	2	3	18
64	4	1	32	33	34
65	25	60	61	63	64
66	4	20	2	1	32
67	18	56	55	65	60
68	17	59	58	60	65
69	16	41	38	37	44
70	16	46	36	35	47
71	17	56	58	60	61
72	21	25	24	26	28
73	9	34	35	36	46
74	16	45	36	35	47
75	16	47	35	34	49
76	17	59	58	60	61
77	9	35	36	37	43
78	18	23	31	28	26
79	17	53	55	56	57
80	9	6	5	4	16
81	16	18	3	2	19
82	9	5	4	3	17
83	15	30	29	28	31
84	4	3	2	1	32
85	16	49	34	33	52
86	9	37	36	35	48
87	16	46	36	35	48
88	15	8	21	23	24
89	17	21	23	24	26
90	16	43	37	36	45
91	21	55	56	58	59
92	9	35	34	33	52
93	6	4	5	6	7
93	7	4	5	6	7
93	8	4	5	6	7
94	17	53	55	56	58
95	9	2	3	4	15
96	18	55	65	60	61
97	21	57	56	58	59
98	16	42	38	37	43
99	15	30	29	53	55
100	16	18	3	2	20
101	1	36	37	38	39
102	14	7	8	21	23
103	21	23	24	26	28
104	15	29	53	55	56
105	15	31	28	29	53
106	17	24	26	28	29
107	16	16	4	3	18
108	4	10	7	8	21
109	2	32	33	34	49
109	3	32	33	34	49
110	16	43	37	36	46
111	4	19	2	1	32
112	21	55	56	58	60
113	2	39	38	37	43
113	3	39	38	37	43
114	21	57	56	58	60
115	16	13	5	4	15
116	16	10	7	6	12
117	15	22	21	23	31
118	9	4	3	2	19
119	9	4	5	6	12
120	24	40	39	38	41
121	9	3	4	5	13
122	18	55	65	60	58
123	16	50	34	33	51
124	19	58	60	61	62
124	20	58	60	61	62
125	16	48	35	34	49
126	17	27	26	28	31
127	15	28	29	53	54
128	16	47	35	34	50
129	16	45	36	35	48
130	1	1	2	3	4
131	10	6	7	8	21
131	11	6	7	8	21
132	9	3	4	5	14
133	9	38	37	36	45
134	16	50	34	33	52
135	15	58	60	61	63
136	16	48	35	34	50
137	18	53	55	65	60
138	9	5	4	3	18
139	18	21	23	31	28
140	9	33	34	35	47
141	15	29	53	55	65
142	1	5	6	7	8
143	16	41	38	37	43
144	16	9	7	6	11
145	9	36	35	34	49
146	17	58	56	55	65
147	15	28	29	53	55
148	17	26	24	23	31
149	19	22	21	23	24
149	20	22	21	23	24
150	4	1	32	33	51
151	16	11	6	5	13
152	9	2	3	4	16
153	16	15	4	3	17
154	16	14	5	4	15
155	9	38	37	36	46
156	19	54	53	55	56
156	20	54	53	55	56
157	6	33	34	35	36
157	7	33	34	35	36
157	8	33	34	35	36
158	15	63	61	60	65
159	16	9	7	6	12

Impropers

4	2	53	54	55	29
5	1	21	23	8	22
28	2	29	28	30	53
35	2	28	26	29	31
39	2	24	26	23	25
75	2	55	65	53	56
78	2	60	61	65	58
88	2	28	31	26	29
91	2	26	24	27	28
98	2	24	25	26	23
100	1	61	63	60	62
115	2	29	53	28	30
121	2	55	53	56	65
137	2	28	29	31	26
148	2	56	57	58	55
165	1	61	60	62	63
183	2	56	55	57	58
206	2	53	55	29	54
210	2	60	58	61	65
212	2	60	65	58	61
216	2	29	30	53	28
221	2	23	24	31	21
229	2	23	31	21	24
234	2	55	56	65	53
251	1	61	62	63	60
252	2	58	56	59	60
257	2	24	23	25	26
260	2	26	28	24	27
262	1	21	8	22	23
266	2	26	27	28	24
271	1	21	22	23	8
275	2	58	59	60	56
294	2	53	29	54	55
319	2	58	60	56	59
323	2	23	21	24	31
340	2	56	58	55	57
