Title

91 atoms
94 bonds
185 angles
377 dihedrals
12 impropers

8 atom types
11 bond types
5 angle types
27 dihedral types
2 improper types
-6.796999931 93.20300007 xlo xhi
-2.424999952 97.57500005 ylo yhi
-7.896999836 92.10300016 zlo zhi
0.0 0.0 0.0 xy xz yz

Masses

1	15.99943
2	12.01078
3	1.007947
4	1.007947
5	12.01078
6	15.99943
7	15.99943
8	1.007947


Pair Coeffs

1	0.16846514	3.0251065
2	0.10884061	3.3795318
3	0.015779483	2.6445434
4	0.016409246	2.5832257
5	0.086879315	3.4806469
6	0.2102061	3.0398122
7	0.20947353	2.99716
8	1.2326e-05	0.53453923

Bond Coeffs

1 harmonic	366.7408841747	1.425895053732
2 harmonic	300.03137914615	1.451203938761
3 harmonic	264.62148576755	1.52190126495
4 harmonic	370.04670688625	1.093899492634
5 harmonic	301.15400723785	1.345741232799
6 harmonic	582.698766451	1.225198386222
7 harmonic	329.44145381095	1.523435958334
8 harmonic	279.1350963404	1.454628925034
9 harmonic	329.96998057905	1.427343958716
10 harmonic	543.5267831885	0.9716763312559
11 harmonic	385.7604595587	1.369745182308


Angle Coeffs

1 harmonic	53.20531626545	116.5475862634
2 harmonic	65.09061609600001	110.3538806181
3 harmonic	48.776492647595	115.6030999533
4 harmonic	201.41175231035	127.4691416191
5 harmonic	57.8982893754	126.8062420451


Dihedral Coeffs

1 fourier 1	0.1115525666802	3	0
2 fourier 1	0.3432490222662	1	0
3 fourier 1	0.1155372516788	3	0
4 fourier 1	0.0473758381877	3	0
5 fourier 1	0.457973137376	1	0
6 fourier 1	0.1040663847541	3	0
7 fourier 1	0.09223874044423	3	0
8 fourier 1	0.3159935921949	2	180
9 fourier 1	0.3247796806857	1	180
10 fourier 1	0.1911926717192	3	0
11 fourier 1	0.1918272375143	3	0
12 fourier 1	0.9202179876409	1	180
13 fourier 1	1.163809172478	2	180
14 fourier 1	0.1679186987369	1	180
15 fourier 1	2.779853741805	2	180
16 fourier 1	0.02664938770063	3	0
17 fourier 1	0.4541676554336	1	0
18 fourier 1	0.1489710476446	2	0
19 fourier 1	0.02960027280666	3	180
20 fourier 1	-0.3703352413219	2	0
21 fourier 1	0.9974165607242	2	180
22 fourier 1	0.3445382149273	3	0
23 fourier 1	0.1364556373303	1	0
24 fourier 1	0.3026390167484	3	0
25 fourier 1	2.687457892086	2	180
26 fourier 1	2.772607909663	2	180
27 fourier 1	0.09692684957115	1	0


Improper Coeffs

1 3.5	-1	2
2 0.3666666666666667	-1	2


Atoms

1	1	1	-0.154956	3.734	0.289	0.2
2	1	2	0.014841	2.721	-0.61799997	-0.14300001
3	1	2	-0.074804999	1.439	0.125	-0.56800002
4	1	3	0.083659999	1.692	0.74000001	-1.461
5	1	2	-0.166711	0.33199999	-0.87400001	-1.003
6	1	3	0.089565001	0.77499998	-1.819	-1.388
7	1	3	0.089565001	-0.249	-0.43200001	-1.842
8	1	2	-0.16711999	-0.63700002	-1.1950001	0.142
9	1	3	0.088926002	-1.3609999	-1.967	-0.197
10	1	3	0.088926002	-0.057	-1.648	0.97600001
11	1	2	-0.075319998	-1.369	0.075000003	0.66100001
12	1	2	0.104018	-2.76	0.23	0.023
13	1	1	-0.471201	-3.592	-0.82700002	0.419
14	1	4	0.090292998	-2.6689999	0.244	-1.086
15	1	4	0.090292998	-3.214	1.191	0.354
16	1	3	0.080844998	-1.518	-0.052000001	1.757
17	1	2	-0.16711999	-0.53899997	1.367	0.44999999
18	1	3	0.088926002	-0.82700002	2.1210001	1.215
19	1	3	0.088926002	-0.74699998	1.809	-0.55000001
20	1	2	-0.166711	0.963	1.087	0.55299997
21	1	3	0.089565001	1.1720001	0.65499997	1.557
22	1	3	0.089565001	1.521	2.046	0.479
23	1	4	0.090875	2.5079999	-1.2640001	0.736
24	1	4	0.090875	3.073	-1.28	-0.96700001
25	1	5	0.69810998	-4.5019999	-0.67199999	-0.057999998
26	1	6	-0.52775699	-5.5370002	-0.76300001	0.58399999
27	1	2	-0.15242399	-4.5300002	-0.34599999	-1.528
28	1	3	0.1285	-3.477	-0.36000001	-1.89
29	1	2	-0.131458	-5.3099999	-1.414	-2.313
30	1	3	0.095968999	-6.375	-1.4	-1.99
31	1	3	0.095968999	-4.9039998	-2.425	-2.0880001
32	1	2	-0.107637	-5.2410002	-1.171	-3.836
33	1	3	0.088376001	-6.177	-1.568	-4.2880001
34	1	3	0.088376001	-4.3990002	-1.7589999	-4.2620001
35	1	2	-0.220404	-5.039	0.31799999	-4.2129998
36	1	5	0.49355099	-5.5440001	0.59899998	-5.6040001
37	1	6	-0.65797299	-6.7290001	0.48100001	-5.8759999
38	1	3	0.108475	-3.947	0.53500003	-4.2080002
39	1	2	-0.107637	-5.7059999	1.25	-3.187
40	1	3	0.088376001	-6.7969999	1.033	-3.151
41	1	3	0.088376001	-5.585	2.3110001	-3.5
42	1	2	-0.131458	-5.1090002	1.0700001	-1.774
43	1	3	0.095968999	-5.9060001	1.304	-1.034
44	1	3	0.095968999	-4.2969999	1.814	-1.624
45	1	1	-0.154956	4.0710001	0.67400002	-0.64999998
46	1	2	0.014841	3.0969999	1.581	-1.0930001
47	1	2	-0.074804999	1.8710001	0.838	-1.661
48	1	3	0.083659999	1.4450001	0.223	-0.83600003
49	1	2	-0.165925	0.76599997	1.837	-2.0999999
50	1	3	0.089565001	0.82499999	2.7820001	-1.517
51	1	3	0.089565001	-0.23199999	1.395	-1.887
52	1	2	-0.158859	0.84299999	2.158	-3.598
53	1	3	0.089565001	0.083999999	2.9300001	-3.8469999
54	1	3	0.089565001	1.836	2.6110001	-3.8099999
55	1	2	-0.11625	0.66500002	0.88800001	-4.4780002
56	1	2	0.077036001	-0.78600001	0.73400003	-4.9650002
57	1	7	-0.67630601	-1.122	1.79	-5.822
58	1	8	0.37401801	-2.0669999	1.642	-6.086
59	1	4	0.079031996	-1.479	0.71899998	-4.0929999
60	1	4	0.079031996	-0.89099997	-0.228	-5.5170002
61	1	3	0.087334998	1.306	1.015	-5.3800001
62	1	2	-0.158859	1.126	-0.40400001	-3.756
63	1	3	0.089565001	1.439	-1.158	-4.5110002
64	1	3	0.089565001	0.28999999	-0.84600002	-3.1689999
65	1	2	-0.165925	2.2909999	-0.124	-2.803
66	1	3	0.089565001	3.131	0.308	-3.3929999
67	1	3	0.089565001	2.648	-1.0829999	-2.368
68	1	4	0.090875	3.543	2.227	-1.88
69	1	4	0.090875	2.79	2.243	-0.25099999
70	1	5	0.49355	-4.8499999	0.91600001	-6.375
71	1	6	-0.657974	-5.007	0.52399999	-7.5209999
72	1	2	-0.220404	-3.7130001	1.839	-6.0229998
73	1	3	0.108475	-3.8080001	2.0829999	-4.941
74	1	2	-0.107637	-2.3440001	1.147	-6.2459998
75	1	3	0.088376001	-2.1140001	0.52600002	-5.3530002
76	1	3	0.088376001	-2.3870001	0.45899999	-7.119
77	1	2	-0.126636	-1.187	2.141	-6.4840002
78	1	3	0.095968999	-0.242	1.7	-6.0949998
79	1	3	0.095968999	-1.0599999	2.296	-7.579
80	1	2	-0.17300799	-1.451	3.4979999	-5.8080001
81	1	5	0.76756001	-0.264	4.4109998	-5.9450002
82	1	6	-0.52959102	0.219	4.6659999	-7.0809999
83	1	7	-0.64938301	0.292	4.9949999	-4.8109999
84	1	8	0.39486	1.087	5.619	-4.8839998
85	1	3	0.130758	-1.607	3.3069999	-4.7220001
86	1	2	-0.126636	-2.7279999	4.1680002	-6.3730001
87	1	3	0.095968999	-2.4820001	4.8070002	-7.2490001
88	1	3	0.095968999	-3.1500001	4.8369999	-5.5900002
89	1	2	-0.107637	-3.809	3.1559999	-6.8119998
90	1	3	0.088376001	-4.8130002	3.6129999	-6.6700001
91	1	3	0.088376001	-3.687	2.9419999	-7.8969998

Bonds

1	1	1	2
2	2	1	45
3	3	2	3
4	4	2	23
5	4	2	24
6	4	3	4
7	3	3	5
8	3	3	20
9	4	5	6
10	4	5	7
11	3	5	8
12	4	8	9
13	4	8	10
14	3	8	11
15	3	11	12
16	4	11	16
17	3	11	17
18	1	12	13
19	4	12	14
20	4	12	15
21	5	13	25
22	4	17	18
23	4	17	19
24	3	17	20
25	4	20	21
26	4	20	22
27	6	25	26
28	7	25	27
29	4	27	28
30	3	27	29
31	3	27	42
32	4	29	30
33	4	29	31
34	3	29	32
35	4	32	33
36	4	32	34
37	3	32	35
38	7	35	36
39	4	35	38
40	3	35	39
41	6	36	37
42	8	36	70
43	4	39	40
44	4	39	41
45	3	39	42
46	4	42	43
47	4	42	44
48	1	45	46
49	3	46	47
50	4	46	68
51	4	46	69
52	4	47	48
53	3	47	49
54	3	47	65
55	4	49	50
56	4	49	51
57	3	49	52
58	4	52	53
59	4	52	54
60	3	52	55
61	3	55	56
62	4	55	61
63	3	55	62
64	9	56	57
65	4	56	59
66	4	56	60
67	10	57	58
68	4	62	63
69	4	62	64
70	3	62	65
71	4	65	66
72	4	65	67
73	6	70	71
74	7	70	72
75	4	72	73
76	3	72	74
77	3	72	89
78	4	74	75
79	4	74	76
80	3	74	77
81	4	77	78
82	4	77	79
83	3	77	80
84	7	80	81
85	4	80	85
86	3	80	86
87	6	81	82
88	11	81	83
89	10	83	84
90	4	86	87
91	4	86	88
92	3	86	89
93	4	89	90
94	4	89	91

Angles

1	1	81	80	85
2	1	55	56	59
3	1	16	11	17
4	1	63	62	65
5	5	35	36	70
6	1	32	35	39
7	1	46	47	49
8	1	3	2	23
9	1	48	47	65
10	1	62	65	66
11	1	35	39	41
12	1	77	80	81
13	1	11	12	15
14	1	17	20	22
15	1	47	49	50
16	1	5	3	20
17	1	45	46	68
18	3	75	74	76
19	1	12	11	16
20	1	47	65	62
21	1	62	65	67
22	3	63	62	64
23	1	75	74	77
24	1	39	42	43
25	1	29	32	33
26	1	36	35	39
27	1	11	17	20
28	1	27	29	32
29	3	6	5	7
30	1	5	8	9
31	1	76	74	77
32	1	80	86	88
33	1	3	20	21
34	1	64	62	65
35	1	40	39	42
36	1	72	74	76
37	1	11	12	13
38	1	25	27	28
39	5	26	25	27
40	3	87	86	88
41	1	72	89	90
42	1	12	11	17
43	1	74	77	79
44	4	13	25	26
45	5	71	70	72
46	1	86	89	90
47	1	2	3	4
48	1	25	27	42
49	1	3	5	8
50	1	2	3	20
51	3	9	8	10
52	1	27	42	43
53	1	30	29	32
54	1	5	8	10
55	1	85	80	86
56	1	57	56	60
57	1	74	77	80
58	1	31	29	32
59	1	7	5	8
60	1	27	42	39
61	1	32	35	36
62	1	72	89	91
63	1	29	32	35
64	1	86	89	91
65	1	70	72	74
66	1	73	72	74
67	3	18	17	19
68	1	11	17	18
69	1	52	55	56
70	1	77	80	86
71	1	36	35	38
72	3	33	32	34
73	3	59	56	60
74	5	37	36	70
75	1	56	55	62
76	1	74	72	89
77	3	68	46	69
78	1	9	8	11
79	2	81	83	84
80	3	40	39	41
81	1	5	8	11
82	1	25	27	29
83	1	8	11	17
84	1	55	56	57
85	1	19	17	20
86	1	51	49	52
87	3	23	2	24
88	5	36	70	72
89	1	1	2	24
90	1	27	29	31
91	1	61	55	62
92	1	72	74	77
93	1	79	77	80
94	1	47	46	68
95	1	34	32	35
96	1	53	52	55
97	1	39	42	44
98	3	53	52	54
99	1	55	56	60
100	1	32	35	38
101	1	17	20	21
102	1	70	72	73
103	1	55	62	63
104	2	12	13	25
105	3	21	20	22
106	1	13	12	14
107	1	8	11	16
108	5	36	70	71
109	1	10	8	11
110	1	55	62	65
111	1	41	39	42
112	1	27	29	30
113	3	50	49	51
114	1	47	46	69
115	1	48	47	49
116	1	52	55	62
117	1	11	12	14
118	1	46	47	65
119	5	80	81	82
120	1	3	2	24
121	1	47	49	51
122	1	80	86	87
123	3	90	89	91
124	1	52	55	61
125	1	3	20	22
126	1	4	3	20
127	1	8	11	12
128	1	45	46	47
129	1	50	49	52
130	1	13	12	15
131	3	78	77	79
132	2	1	45	46
133	1	72	89	86
134	1	3	20	17
135	1	56	55	61
136	1	46	47	48
137	1	29	27	42
138	1	70	72	89
139	1	73	72	89
140	1	74	77	78
141	1	47	49	52
142	3	43	42	44
143	1	2	3	5
144	1	78	77	80
145	1	54	52	55
146	4	82	81	83
147	2	56	57	58
148	1	57	56	59
149	1	1	2	3
150	1	11	17	19
151	1	35	39	42
152	1	33	32	35
153	1	49	52	53
154	1	77	80	85
155	1	88	86	89
156	2	2	1	45
157	1	6	5	8
158	1	80	86	89
159	1	49	52	55
160	1	81	80	86
161	3	14	12	15
162	1	49	52	54
163	1	1	2	23
164	1	47	65	66
165	1	87	86	89
166	1	3	5	7
167	1	28	27	29
168	1	4	3	5
169	3	30	29	31
170	1	49	47	65
171	1	47	65	67
172	1	38	35	39
173	3	66	65	67
174	1	35	39	40
175	5	35	36	37
176	1	72	74	75
177	1	3	5	6
178	5	13	25	27
179	1	45	46	69
180	1	27	42	44
181	1	29	32	34
182	5	80	81	83
183	1	28	27	42
184	1	55	62	64
185	1	18	17	20

Dihedrals

1	6	16	11	17	20
2	10	51	49	52	53
3	4	14	12	13	25
4	10	88	86	89	91
5	10	10	8	11	16
6	10	28	27	42	43
7	6	76	74	72	89
8	6	49	52	55	61
9	6	51	49	52	55
10	6	80	86	89	90
11	10	4	3	2	23
12	10	51	49	52	54
13	6	49	47	65	67
14	10	41	39	42	43
15	10	87	86	89	91
16	7	27	29	32	35
16	8	27	29	32	35
16	9	27	29	32	35
17	6	27	42	39	41
18	3	70	72	89	86
19	1	1	2	3	4
19	2	1	2	3	4
20	6	2	3	5	7
21	17	26	25	27	28
21	18	26	25	27	28
21	19	26	25	27	28
22	3	1	2	3	20
23	6	54	52	55	62
24	20	71	70	72	74
25	6	28	27	42	39
26	6	72	74	77	78
27	10	85	80	86	88
28	6	50	49	47	65
29	6	54	52	55	56
30	6	11	17	20	21
31	3	36	35	39	42
32	3	45	46	47	65
33	24	58	57	56	59
34	10	73	72	89	91
35	6	29	32	35	38
36	7	32	29	27	42
36	8	32	29	27	42
36	9	32	29	27	42
37	10	28	27	29	30
38	10	48	47	49	51
39	10	76	74	77	78
40	20	26	25	27	42
41	10	31	29	32	33
42	6	2	3	5	6
43	6	12	11	17	19
44	6	32	35	39	40
45	20	32	35	36	37
46	6	47	49	52	53
47	3	25	27	29	32
48	10	18	17	20	21
49	4	1	45	46	69
50	7	5	8	11	12
50	8	5	8	11	12
50	9	5	8	11	12
51	1	45	46	47	48
51	2	45	46	47	48
52	16	36	70	72	74
53	10	78	77	80	85
54	6	59	56	55	62
55	7	49	47	65	62
55	8	49	47	65	62
55	9	49	47	65	62
56	6	6	5	3	20
57	6	48	47	49	52
58	7	5	8	11	17
58	8	5	8	11	17
58	9	5	8	11	17
59	6	46	47	65	66
60	6	8	11	17	19
61	6	30	29	32	35
62	10	6	5	8	9
63	6	5	3	2	23
64	21	37	36	70	72
65	10	4	3	20	21
66	3	36	35	39	40
67	6	79	77	80	86
68	10	16	11	17	18
69	10	28	27	29	31
70	20	77	80	81	82
71	6	73	72	74	77
72	16	83	81	80	86
73	4	23	2	1	45
74	7	3	20	17	11
74	8	3	20	17	11
74	9	3	20	17	11
75	21	35	36	70	72
76	6	46	47	65	67
77	7	32	35	39	42
77	8	32	35	39	42
77	9	32	35	39	42
78	3	70	72	74	75
79	17	71	70	72	73
79	18	71	70	72	73
79	19	71	70	72	73
80	3	1	2	3	5
81	6	3	20	17	18
82	6	8	11	12	14
83	3	13	12	11	17
84	6	20	3	2	24
85	6	3	5	8	9
86	4	1	45	46	68
87	6	46	47	49	51
88	10	63	62	65	66
89	20	26	25	27	29
90	6	5	8	11	16
91	6	7	5	3	20
92	6	34	32	35	39
93	10	75	74	77	79
94	6	4	3	5	8
95	6	48	47	65	62
96	6	30	29	27	42
97	21	37	36	70	71
98	6	77	80	86	87
99	3	81	80	86	89
100	3	25	27	42	43
101	3	36	35	39	41
102	6	38	35	39	42
103	10	6	5	8	10
104	6	31	29	32	35
105	10	40	39	42	44
106	3	52	55	56	57
107	16	36	70	72	73
108	6	65	47	46	68
109	21	35	36	70	71
110	10	61	55	62	63
111	7	46	47	49	52
111	8	46	47	49	52
111	9	46	47	49	52
112	6	75	74	77	80
113	10	63	62	65	67
114	11	11	12	13	25
114	12	11	12	13	25
115	3	25	27	42	39
116	6	5	3	20	21
117	10	54	52	55	61
118	1	13	12	11	16
118	2	13	12	11	16
119	17	37	36	35	38
119	18	37	36	35	38
119	19	37	36	35	38
120	3	78	77	80	81
121	10	7	5	8	9
122	10	79	77	80	85
123	4	15	12	13	25
124	10	19	17	20	22
125	6	33	32	35	39
126	6	52	55	56	60
127	6	27	29	32	34
128	6	3	5	8	10
129	6	61	55	62	65
130	7	77	74	72	89
130	8	77	74	72	89
130	9	77	74	72	89
131	6	80	86	89	91
132	3	81	80	86	88
133	6	3	20	17	19
134	6	2	3	20	21
135	10	4	3	2	24
136	7	46	47	65	62
136	8	46	47	65	62
136	9	46	47	65	62
137	6	47	49	52	54
138	7	47	49	52	55
138	8	47	49	52	55
138	9	47	49	52	55
139	20	71	70	72	89
140	4	3	2	1	45
141	6	72	89	86	88
142	10	41	39	42	44
143	10	59	56	55	61
144	7	8	5	3	20
144	8	8	5	3	20
144	9	8	5	3	20
145	10	38	35	39	40
146	10	64	62	65	66
147	16	32	35	36	70
148	6	65	47	46	69
149	6	73	72	89	86
150	7	77	80	86	89
150	8	77	80	86	89
150	9	77	80	86	89
151	6	6	5	8	11
152	10	50	49	52	53
153	16	13	25	27	28
154	6	32	35	39	41
155	7	52	49	47	65
155	8	52	49	47	65
155	9	52	49	47	65
156	6	53	52	55	56
157	6	74	72	89	90
158	16	36	70	72	89
159	10	61	55	62	64
160	10	7	5	8	10
161	6	29	27	42	43
162	6	60	56	55	62
163	3	70	72	74	76
164	6	47	65	62	63
165	10	64	62	65	67
166	7	8	11	17	20
166	8	8	11	17	20
166	9	8	11	17	20
167	15	12	13	25	27
168	10	30	29	32	34
169	6	35	39	42	44
170	16	77	80	81	83
171	10	85	80	86	87
172	7	3	5	8	11
172	8	3	5	8	11
172	9	3	5	8	11
173	6	56	55	62	63
174	6	49	47	46	68
175	6	55	62	65	67
176	7	29	27	42	39
176	8	29	27	42	39
176	9	29	27	42	39
177	7	29	32	35	39
177	8	29	32	35	39
177	9	29	32	35	39
178	7	74	77	80	86
178	8	74	77	80	86
178	9	74	77	80	86
179	3	70	72	89	90
180	6	27	29	32	33
181	6	5	3	2	24
182	6	11	17	20	22
183	7	27	42	39	35
183	8	27	42	39	35
183	9	27	42	39	35
184	3	57	56	55	62
185	3	25	27	42	44
186	3	34	32	35	36
187	3	79	77	80	81
188	3	25	27	29	30
189	6	20	3	2	23
190	24	58	57	56	60
191	6	28	27	29	32
192	3	29	32	35	36
193	7	56	55	62	65
193	8	56	55	62	65
193	9	56	55	62	65
194	6	52	55	62	63
195	10	18	17	20	22
196	10	88	86	89	90
197	10	16	11	17	19
198	7	72	89	86	80
198	8	72	89	86	80
198	9	72	89	86	80
199	6	8	11	12	15
200	10	48	47	46	68
201	16	83	81	80	85
202	6	7	5	8	11
203	6	75	74	72	89
204	10	73	72	74	75
205	10	28	27	42	44
206	6	14	12	11	17
207	6	49	47	46	69
208	6	47	65	62	64
209	20	82	81	80	86
210	10	4	3	5	6
211	3	45	46	47	49
212	7	52	55	62	65
212	8	52	55	62	65
212	9	52	55	62	65
213	7	47	65	62	55
213	8	47	65	62	55
213	9	47	65	62	55
214	6	31	29	27	42
215	10	4	3	20	22
216	6	85	80	86	89
217	3	33	32	35	36
218	16	13	25	27	29
219	10	73	72	89	90
220	7	2	3	5	8
220	8	2	3	5	8
220	9	2	3	5	8
221	22	55	56	57	58
221	23	55	56	57	58
222	6	74	77	80	85
223	6	4	3	20	17
224	3	25	27	29	31
225	7	12	11	17	20
225	8	12	11	17	20
225	9	12	11	17	20
226	6	53	52	55	62
227	26	82	81	83	84
227	27	82	81	83	84
228	6	9	8	11	17
229	6	55	62	65	66
230	6	8	11	17	18
231	10	75	74	77	78
232	10	48	47	49	50
233	6	50	49	52	55
234	10	50	49	52	54
235	4	24	2	1	45
236	10	53	52	55	61
237	10	48	47	46	69
238	10	48	47	65	66
239	25	80	81	83	84
240	16	38	35	36	70
241	10	14	12	11	16
242	6	52	55	62	64
243	16	13	25	27	42
244	3	70	72	74	77
245	6	15	12	11	17
246	3	8	11	12	13
247	10	34	32	35	38
248	10	38	35	39	41
249	10	60	56	55	61
250	6	77	80	86	88
251	20	37	36	35	39
252	17	82	81	80	85
252	18	82	81	80	85
252	19	82	81	80	85
253	13	12	13	25	26
253	14	12	13	25	26
254	6	74	72	89	91
255	10	48	47	65	67
256	6	52	55	56	59
257	10	9	8	11	16
258	6	72	74	77	79
259	6	5	3	20	22
260	6	10	8	11	12
261	6	35	39	42	43
262	5	2	1	45	46
263	1	57	56	55	61
263	2	57	56	55	61
264	3	81	80	86	87
265	4	1	45	46	47
266	16	39	35	36	70
267	6	51	49	47	65
268	10	4	3	5	7
269	7	5	3	20	17
269	8	5	3	20	17
269	9	5	3	20	17
270	10	19	17	20	21
271	10	76	74	77	79
272	6	10	8	11	17
273	6	72	89	86	87
274	6	49	47	65	66
275	6	2	3	20	22
276	7	72	74	77	80
276	8	72	74	77	80
276	9	72	74	77	80
277	6	29	27	42	44
278	10	15	12	11	16
279	10	33	32	35	38
280	10	40	39	42	43
281	3	70	72	89	91
282	6	46	47	49	50
283	10	31	29	32	34
284	7	2	3	20	17
284	8	2	3	20	17
284	9	2	3	20	17
285	10	73	72	74	76
286	10	87	86	89	90
287	6	27	42	39	40
288	3	74	77	80	81
289	6	76	74	77	80
290	7	74	72	89	86
290	8	74	72	89	86
290	9	74	72	89	86
291	6	12	11	17	18
292	10	30	29	32	33
293	6	9	8	11	12
294	7	49	52	55	62
294	8	49	52	55	62
294	9	49	52	55	62
295	6	56	55	62	64
296	6	78	77	80	86
297	7	49	52	55	56
297	8	49	52	55	56
297	9	49	52	55	56

Impropers

23	2	70	72	36	71
53	1	25	13	26	27
59	2	70	71	72	36
109	1	25	26	27	13
237	1	25	27	13	26
409	2	36	35	37	70
437	1	81	82	83	80
460	2	36	70	35	37
521	1	81	80	82	83
538	2	70	36	71	72
605	1	81	83	80	82
632	2	36	37	70	35
