Title

91 atoms
94 bonds
161 angles
247 dihedrals
84 impropers

9 atom types
13 bond types
6 angle types
26 dihedral types
2 improper types
-2.243000031 97.75699997 xlo xhi
-3.227999926 96.77200007 ylo yhi
-11.47700024 88.52299976 zlo zhi
0.0 0.0 0.0 xy xz yz

Masses

1	15.99943
2	12.01078
3	1.007947
4	12.01078
5	15.99943
6	1.007947
7	1.007947
8	15.99943
9	1.007947


Pair Coeffs

1	0.16846514	3.0251065
2	0.10884061	3.3795318
3	0.016409246	2.5832257
4	0.086879315	3.4806469
5	0.2102061	3.0398122
6	0.015611343	2.5725815
7	0.015779483	2.6445434
8	0.20947353	2.99716
9	1.2326e-05	0.53453923

Bond Coeffs

1 harmonic	366.7408841747	1.425895053732
2 harmonic	300.03137914615	1.451203938761
3 harmonic	264.62148576755	1.52190126495
4 harmonic	370.04670688625	1.093899492634
5 harmonic	301.15400723785	1.345741232799
6 harmonic	582.698766451	1.225198386222
7 harmonic	279.1350963404	1.454628925034
8 harmonic	360.7852444772	1.387193227181
9 harmonic	397.2545789619	1.085358495916
10 harmonic	289.73813263395	1.498646816465
11 harmonic	329.96998057905	1.427343958716
12 harmonic	543.5267831885	0.9716763312559
13 harmonic	385.7604595587	1.369745182308


Angle Coeffs

1 harmonic	53.20531626545	116.5475862634
2 harmonic	65.09061609600001	110.3538806181
3 harmonic	201.41175231035	127.4691416191
4 harmonic	57.8982893754	126.8062420451
5 harmonic	48.776492647595	115.6030999533
6 harmonic	34.066775159195	129.1835929926


Dihedral Coeffs

1 fourier 1	-0.0309670556842	3	0
2 fourier 1	0.4598191477945	2	0
3 fourier 1	0.1115525666802	3	0
4 fourier 1	0.3432490222662	1	0
5 fourier 1	0.0473758381877	3	0
6 fourier 1	0.457973137376	1	0
7 fourier 1	0.1918272375143	3	0
8 fourier 1	0.9202179876409	1	180
9 fourier 1	1.163809172478	2	180
10 fourier 1	0.1679186987369	1	180
11 fourier 1	2.779853741805	2	180
12 fourier 1	0.9974165607242	2	180
13 fourier 1	0.1911926717192	3	0
14 fourier 1	3.661930099076	2	180
15 fourier 1	0.02664938770063	3	0
16 fourier 1	0.1155372516788	3	0
17 fourier 1	0.1040663847541	3	0
18 fourier 1	0.09223874044423	3	0
19 fourier 1	0.3159935921949	2	180
20 fourier 1	0.3247796806857	1	180
21 fourier 1	0.3445382149273	3	0
22 fourier 1	0.1364556373303	1	0
23 fourier 1	0.3026390167484	3	0
24 fourier 1	2.687457892086	2	180
25 fourier 1	2.772607909663	2	180
26 fourier 1	0.09692684957115	1	0


Improper Coeffs

1 3.5	-1	2
2 0.3666666666666667	-1	2


Atoms

1	1	1	-0.123611	1.576	-0.336	0.85699999
2	1	2	0.055201001	0.63599998	-0.419	-0.17900001
3	1	2	0.16009501	-0.71899998	0.11	0.28999999
4	1	1	-0.498476	-1.675	-0.035999998	-0.72399998
5	1	3	0.097730003	-1.051	-0.46900001	1.177
6	1	3	0.097730003	-0.63099998	1.1799999	0.58899999
7	1	3	0.105481	0.52999997	-1.484	-0.477
8	1	3	0.105481	0.98699999	0.154	-1.068
9	1	4	0.79593998	-1.49	0.71499997	-1.4170001
10	1	5	-0.53566301	-2.243	1.724	-1.436
11	1	4	-0.28064299	-0.36399999	0.59399998	-2.359
12	1	4	-0.069137	0.43099999	-0.48500001	-2.3239999
13	1	6	0.226317	0.257	-1.276	-1.603
14	1	4	-0.253387	1.564	-0.61699998	-3.263
15	1	6	0.202711	2.184	-1.492	-3.1489999
16	1	4	-0.22903299	1.804	0.32600001	-4.204
17	1	2	0.016919	2.9949999	0.26899999	-5.1900001
18	1	4	-0.22903299	4.0139999	1.351	-4.7789998
19	1	4	-0.250222	4.7410002	2.0450001	-5.6849999
20	1	6	0.202712	4.6199999	1.899	-6.7480001
21	1	4	-0.014652	5.7470002	3.0380001	-5.2540002
22	1	6	0.213182	6.2849998	3.596	-6.0100002
23	1	4	-0.340875	5.9899998	3.2409999	-3.951
24	1	4	0.58800399	6.9959998	4.2329998	-3.5309999
25	1	5	-0.55175197	7.2379999	4.4320002	-2.312
26	1	4	-0.014652	5.2459998	2.447	-2.9460001
27	1	6	0.213182	5.4499998	2.573	-1.89
28	1	4	-0.250222	4.3280001	1.5549999	-3.3340001
29	1	6	0.202711	3.8210001	0.97299999	-2.575
30	1	2	-0.132827	2.4319999	0.51700002	-6.6199999
31	1	7	0.083626002	1.526	-0.101	-6.7989998
32	1	7	0.083626002	2.151	1.58	-6.7729998
33	1	7	0.083626002	3.1760001	0.25	-7.402
34	1	2	-0.135517	3.7690001	-1.092	-5.1939998
35	1	2	-0.115001	2.98	-2.289	-5.7459998
36	1	7	0.063808002	3.523	-3.2279999	-5.5100002
37	1	7	0.063808002	2.891	-2.2179999	-6.8509998
38	1	7	0.063808002	1.962	-2.3529999	-5.3140001
39	1	7	0.099088997	4.1389999	-1.329	-4.1739998
40	1	7	0.099088997	4.6830001	-0.98799998	-5.8210001
41	1	4	-0.253387	0.93400002	1.54	-4.204
42	1	6	0.202711	1.131	2.3540001	-4.8889999
43	1	4	-0.069137	-0.085000001	1.661	-3.346
44	1	6	0.226317	-0.69499999	2.5550001	-3.3699999
45	1	1	-0.118032	1.845	0.61799997	0.92000002
46	1	2	0.027224001	3.148	0.70099998	0.41100001
47	1	2	0.099260002	4.1529999	0.17200001	1.434
48	1	8	-0.67273599	5.461	0.31799999	0.95200002
49	1	9	0.403723	5.5970001	-0.40000001	0.27900001
50	1	3	0.10423	4.0549998	0.75199997	2.3759999
51	1	3	0.10423	3.941	-0.89700001	1.663
52	1	3	0.106191	3.3759999	1.766	0.192
53	1	3	0.106191	3.23	0.12800001	-0.54100001
54	1	4	0.58800399	7.539	4.8049998	-4.2729998
55	1	5	-0.55175197	6.9000001	5.579	-5.0339999
56	1	4	-0.340875	9.0030003	4.6760001	-4.3839998
57	1	4	-0.014652	9.6689997	3.845	-3.569
58	1	6	0.213182	9.1409998	3.26	-2.825
59	1	4	-0.250222	11.136	3.707	-3.671
60	1	6	0.202711	11.599	2.99	-3.0109999
61	1	4	-0.22903299	11.847	4.4390001	-4.5609999
62	1	2	0.016919	13.378	4.3130002	-4.7459998
63	1	4	-0.22903299	13.644	3.6159999	-6.0949998
64	1	4	-0.253387	14.698	3.934	-6.882
65	1	6	0.202712	15.391	4.7189999	-6.618
66	1	4	-0.065970004	14.953	3.21	-8.1440001
67	1	6	0.226317	15.79	3.523	-8.7559996
68	1	4	-0.26965299	14.166	2.188	-8.5190001
69	1	4	0.834957	14.417	1.46	-9.7819996
70	1	5	-0.50653398	13.673	0.5	-10.119
71	1	8	-0.66932398	15.475	1.827	-10.611
72	1	9	0.41185999	15.652	1.3329999	-11.477
73	1	4	-0.065971002	13.044	1.789	-7.6370001
74	1	6	0.226317	12.414	0.949	-7.902
75	1	4	-0.253387	12.805	2.45	-6.4990001
76	1	6	0.202711	11.993	2.1140001	-5.868
77	1	2	-0.132827	13.975	5.7509999	-4.7090001
78	1	7	0.083626002	13.749	6.3140001	-5.6389999
79	1	7	0.083626002	15.08	5.7290001	-4.5890002
80	1	7	0.083626002	13.559	6.3270001	-3.8540001
81	1	2	-0.135517	14.095	3.4530001	-3.6530001
82	1	2	-0.115001	14.103	4.0650001	-2.243
83	1	7	0.063808002	14.818	4.9130001	-2.194
84	1	7	0.063808002	13.102	4.4299998	-1.942
85	1	7	0.063808002	14.434	3.2980001	-1.511
86	1	7	0.099088997	15.158	3.303	-3.948
87	1	7	0.099088997	13.656	2.4330001	-3.6129999
88	1	4	-0.250222	11.086	5.3299999	-5.487
89	1	6	0.202711	11.601	5.8800001	-6.2620001
90	1	4	-0.014652	9.757	5.4460001	-5.3990002
91	1	6	0.213182	9.2340002	6.098	-6.0869999

Bonds

1	1	1	2
2	2	1	45
3	3	2	3
4	4	2	7
5	4	2	8
6	1	3	4
7	4	3	5
8	4	3	6
9	5	4	9
10	6	9	10
11	7	9	11
12	8	11	12
13	8	11	43
14	9	12	13
15	8	12	14
16	9	14	15
17	8	14	16
18	10	16	17
19	8	16	41
20	10	17	18
21	3	17	30
22	3	17	34
23	8	18	19
24	8	18	28
25	9	19	20
26	8	19	21
27	9	21	22
28	8	21	23
29	7	23	24
30	8	23	26
31	6	24	25
32	7	24	54
33	9	26	27
34	8	26	28
35	9	28	29
36	4	30	31
37	4	30	32
38	4	30	33
39	3	34	35
40	4	34	39
41	4	34	40
42	4	35	36
43	4	35	37
44	4	35	38
45	9	41	42
46	8	41	43
47	9	43	44
48	1	45	46
49	3	46	47
50	4	46	52
51	4	46	53
52	11	47	48
53	4	47	50
54	4	47	51
55	12	48	49
56	6	54	55
57	7	54	56
58	8	56	57
59	8	56	90
60	9	57	58
61	8	57	59
62	9	59	60
63	8	59	61
64	10	61	62
65	8	61	88
66	10	62	63
67	3	62	77
68	3	62	81
69	8	63	64
70	8	63	75
71	9	64	65
72	8	64	66
73	9	66	67
74	8	66	68
75	7	68	69
76	8	68	73
77	6	69	70
78	13	69	71
79	12	71	72
80	9	73	74
81	8	73	75
82	9	75	76
83	4	77	78
84	4	77	79
85	4	77	80
86	3	81	82
87	4	81	86
88	4	81	87
89	4	82	83
90	4	82	84
91	4	82	85
92	9	88	89
93	8	88	90
94	9	90	91

Angles

1	1	47	46	52
2	4	62	63	75
3	4	69	68	73
4	4	24	54	56
5	1	62	77	80
6	4	68	73	75
7	1	3	2	8
8	6	18	28	29
9	4	54	56	90
10	1	35	34	39
11	4	12	11	43
12	4	59	61	62
13	1	48	47	51
14	4	66	68	73
15	4	23	24	54
16	6	74	73	75
17	1	17	34	39
18	2	69	71	72
19	4	64	66	68
20	4	24	23	26
21	1	34	35	38
22	4	56	90	88
23	4	57	59	61
24	1	1	2	8
25	4	10	9	11
26	1	62	81	86
27	4	62	63	64
28	1	17	34	35
29	1	35	34	40
30	6	16	41	42
31	1	2	3	5
32	1	62	81	82
33	1	45	46	47
34	6	12	14	15
35	3	4	9	10
36	1	61	62	63
37	6	61	88	89
38	2	2	1	45
39	1	4	3	6
40	6	20	19	21
41	1	62	81	87
42	6	18	19	20
43	4	14	16	41
44	4	19	18	28
45	4	11	12	14
46	1	81	82	84
47	6	13	12	14
48	4	21	23	26
49	6	41	43	44
50	5	79	77	80
51	1	17	30	31
52	5	50	47	51
53	4	61	88	90
54	6	23	26	27
55	4	68	69	70
56	4	9	11	43
57	6	22	21	23
58	3	70	69	71
59	4	14	16	17
60	5	36	35	38
61	1	46	47	48
62	2	3	4	9
63	4	18	19	21
64	1	81	82	85
65	6	60	59	61
66	1	47	46	53
67	1	16	17	30
68	1	30	17	34
69	5	86	81	87
70	1	82	81	86
71	4	68	69	71
72	4	23	26	28
73	4	17	18	19
74	4	17	16	41
75	1	17	34	40
76	4	54	56	57
77	4	9	11	12
78	4	18	28	26
79	1	63	62	81
80	6	67	66	68
81	1	45	46	52
82	4	4	9	11
83	5	83	82	84
84	6	56	57	58
85	1	82	81	87
86	5	84	82	85
87	1	63	62	77
88	4	16	41	43
89	5	5	3	6
90	5	39	34	40
91	5	52	46	53
92	4	12	14	16
93	1	16	17	18
94	6	73	75	76
95	1	62	77	78
96	1	16	17	34
97	1	45	46	53
98	4	57	56	90
99	5	83	82	85
100	4	56	57	59
101	1	18	17	30
102	6	65	64	66
103	4	64	63	75
104	1	34	35	36
105	1	1	2	3
106	5	7	2	8
107	6	89	88	90
108	5	37	35	38
109	1	62	77	79
110	1	17	30	32
111	6	63	75	76
112	1	4	3	5
113	4	55	54	56
114	4	17	18	28
115	2	1	45	46
116	6	63	64	65
117	6	11	43	44
118	1	2	3	6
119	6	26	28	29
120	1	48	47	50
121	6	11	12	13
122	6	19	21	22
123	1	34	35	37
124	1	1	2	7
125	5	31	30	32
126	5	32	30	33
127	4	62	61	88
128	1	17	30	33
129	4	63	64	66
130	6	42	41	43
131	1	2	3	4
132	4	21	23	24
133	1	46	47	50
134	6	88	90	91
135	6	27	26	28
136	5	78	77	79
137	1	18	17	34
138	4	19	21	23
139	4	63	75	73
140	5	31	30	33
141	4	23	24	25
142	1	61	62	81
143	4	11	43	41
144	2	47	48	49
145	4	66	68	69
146	4	59	61	88
147	1	81	82	83
148	6	58	57	59
149	1	46	47	51
150	4	24	54	55
151	1	61	62	77
152	5	78	77	80
153	6	68	73	74
154	1	3	2	7
155	6	56	90	91
156	6	15	14	16
157	5	36	35	37
158	4	25	24	54
159	6	64	66	67
160	6	57	59	60
161	1	77	62	81

Dihedrals

1	6	2	1	45	46
2	14	22	21	23	26
3	17	17	34	35	37
4	13	84	82	81	87
5	12	66	68	69	70
6	16	16	17	34	35
7	13	36	35	34	40
8	14	58	57	56	90
9	14	65	64	66	68
10	13	6	3	2	7
11	21	46	47	48	49
11	22	46	47	48	49
12	16	63	62	77	78
13	17	77	62	81	86
14	14	63	75	73	74
15	15	28	18	17	30
16	14	63	64	66	68
17	14	54	56	57	58
18	14	59	61	88	90
19	14	24	23	26	27
20	16	61	62	77	80
21	14	19	18	28	29
22	14	13	12	14	16
23	14	11	12	14	15
24	15	64	63	62	77
25	17	17	34	35	38
26	12	66	68	69	71
27	17	62	81	82	84
28	14	12	14	16	41
29	12	55	54	56	90
30	14	56	57	59	60
31	17	77	62	81	87
32	14	9	11	43	41
33	14	13	12	11	43
34	14	54	56	57	59
35	15	14	16	17	18
36	16	61	62	81	86
37	3	1	2	3	6
37	4	1	2	3	6
38	1	45	46	47	48
38	2	45	46	47	48
39	16	16	17	30	31
40	14	14	16	41	43
41	15	14	16	17	34
42	12	26	23	24	54
43	24	68	69	71	72
44	14	60	59	61	88
45	12	24	54	56	57
46	12	4	9	11	12
47	17	62	81	82	85
48	5	1	45	46	52
49	14	20	19	21	22
50	16	61	62	81	82
51	23	49	48	47	51
52	14	56	57	59	61
53	14	19	21	23	24
54	14	14	12	11	43
55	15	14	16	17	30
56	14	19	18	28	26
57	14	23	26	28	29
58	16	18	17	34	39
59	14	57	56	90	91
60	15	61	62	63	75
61	14	62	63	64	65
62	3	4	3	2	7
62	4	4	3	2	7
63	15	81	62	61	88
64	13	83	82	81	86
65	15	64	63	62	81
66	14	17	18	28	29
67	17	31	30	17	34
68	14	56	90	88	61
69	15	16	17	18	19
70	12	70	69	68	73
71	14	62	63	75	76
72	16	18	17	34	35
73	16	16	17	34	40
74	13	38	35	34	40
75	5	1	45	46	53
76	14	18	28	26	27
77	12	4	9	11	43
78	14	57	59	61	88
79	3	48	47	46	53
79	4	48	47	46	53
80	17	33	30	17	34
81	14	12	11	43	41
82	14	11	43	41	16
83	15	18	17	16	41
84	15	61	62	63	64
85	25	70	69	71	72
85	26	70	69	71	72
86	13	6	3	2	8
87	14	18	28	26	23
88	12	21	23	24	25
89	14	60	59	61	62
90	16	63	62	77	79
91	13	51	47	46	52
92	15	77	62	61	88
93	15	28	18	17	34
94	12	23	24	54	55
95	14	57	56	90	88
96	14	17	16	41	42
97	14	58	57	59	60
98	14	24	23	26	28
99	14	21	19	18	28
100	15	63	62	61	88
101	14	11	12	14	16
102	14	20	19	18	28
103	14	17	18	28	26
104	14	61	88	90	91
105	14	62	63	75	73
106	16	18	17	30	31
107	14	42	41	43	44
108	14	89	88	90	91
109	17	79	77	62	81
110	14	17	18	19	20
111	15	34	17	16	41
112	13	51	47	46	53
113	17	30	17	34	39
114	14	22	21	23	24
115	14	69	68	73	74
116	14	74	73	75	76
117	1	1	2	3	4
117	2	1	2	3	4
118	14	17	16	41	43
119	12	55	54	56	57
120	16	61	62	81	87
121	16	16	17	30	32
122	14	65	64	63	75
123	14	21	23	26	27
124	15	16	17	18	28
125	14	16	41	43	44
126	13	50	47	46	52
127	18	30	17	34	35
127	19	30	17	34	35
127	20	30	17	34	35
128	14	18	19	21	22
129	14	20	19	21	23
130	14	56	90	88	89
131	13	85	82	81	86
132	5	8	2	1	45
133	14	17	18	19	21
134	15	59	61	62	81
135	12	21	23	24	54
136	16	61	62	77	78
137	15	30	17	16	41
138	13	37	35	34	39
139	14	63	75	73	68
140	17	17	34	35	36
141	16	18	17	34	40
142	14	69	68	73	75
143	3	1	2	3	5
143	4	1	2	3	5
144	17	32	30	17	34
145	3	45	46	47	50
145	4	45	46	47	50
146	14	62	63	64	66
147	3	4	3	2	8
147	4	4	3	2	8
148	16	16	17	30	33
149	13	36	35	34	39
150	16	63	62	81	82
151	17	78	77	62	81
152	9	3	4	9	10
152	10	3	4	9	10
153	14	21	23	26	28
154	13	83	82	81	87
155	15	59	61	62	77
156	14	63	64	66	67
157	5	6	3	4	9
158	14	59	61	88	89
159	14	54	56	90	91
160	14	9	11	12	13
161	14	19	21	23	26
162	13	37	35	34	40
163	14	62	61	88	89
164	14	59	57	56	90
165	14	64	66	68	73
166	14	15	14	16	17
167	14	64	63	75	76
168	14	11	43	41	42
169	3	45	46	47	51
169	4	45	46	47	51
170	17	62	81	82	83
171	13	5	3	2	7
172	7	2	3	4	9
172	8	2	3	4	9
173	12	10	9	11	43
174	16	63	62	77	80
175	15	75	63	62	81
176	12	25	24	54	55
177	12	23	24	54	56
178	14	57	59	61	62
179	14	64	66	68	69
180	14	58	57	59	61
181	12	24	54	56	90
182	14	67	66	68	73
183	14	14	16	41	42
184	14	66	64	63	75
185	18	77	62	81	82
185	19	77	62	81	82
185	20	77	62	81	82
186	14	62	61	88	90
187	15	75	63	62	77
188	17	80	77	62	81
189	5	3	2	1	45
190	14	66	68	73	74
191	16	18	17	30	32
192	16	63	62	81	86
193	13	5	3	2	8
194	14	54	56	90	88
195	23	49	48	47	50
196	14	67	66	68	69
197	14	27	26	28	29
198	15	19	18	17	34
199	12	25	24	54	56
200	17	30	17	34	40
201	13	84	82	81	86
202	5	7	2	1	45
203	12	10	9	11	12
204	14	64	63	75	73
205	12	71	69	68	73
206	5	1	45	46	47
207	14	15	14	16	41
208	14	65	64	66	67
209	5	5	3	4	9
210	14	12	11	43	44
211	15	19	18	17	30
212	13	50	47	46	53
213	15	59	61	62	63
214	14	66	68	73	75
215	14	68	73	75	76
216	14	12	14	16	17
217	14	18	19	21	23
218	16	18	17	30	33
219	16	16	17	34	39
220	12	25	24	23	26
221	13	38	35	34	39
222	16	63	62	81	87
223	11	3	4	9	11
224	13	85	82	81	87
225	16	61	62	77	79
226	14	9	11	43	44
227	3	48	47	46	52
227	4	48	47	46	52
228	14	9	11	12	14
229	14	13	12	14	15

Impropers

5	2	90	56	88	91
14	2	14	12	15	16
28	2	54	56	24	55
30	2	19	20	21	18
33	2	11	12	43	9
36	2	16	17	41	14
39	2	54	55	56	24
41	2	18	17	19	28
44	2	61	59	62	88
51	2	11	9	12	43
60	2	57	59	56	58
61	2	75	63	73	76
65	1	9	11	4	10
74	2	21	19	22	23
86	2	41	16	42	43
88	2	24	25	54	23
94	2	90	88	91	56
97	2	14	16	12	15
99	2	11	43	9	12
102	2	63	62	64	75
116	2	63	64	75	62
123	2	88	61	89	90
128	2	12	11	13	14
131	2	59	57	60	61
132	2	66	64	67	68
148	2	18	28	17	19
150	2	64	63	65	66
152	2	61	88	59	62
159	2	66	67	68	64
163	2	41	43	16	42
166	2	63	75	62	64
172	2	64	65	66	63
178	2	88	90	61	89
186	2	66	68	64	67
194	2	75	73	76	63
196	2	56	57	90	54
199	2	88	89	90	61
206	2	28	18	26	29
213	1	69	68	70	71
214	2	54	24	55	56
225	2	19	18	20	21
230	2	18	19	28	17
233	2	56	90	54	57
241	2	59	60	61	57
249	2	21	22	23	19
251	2	43	11	41	44
255	2	56	54	57	90
260	2	28	26	29	18
261	2	75	76	63	73
263	2	73	68	74	75
267	2	41	42	43	16
273	2	28	29	18	26
280	2	64	66	63	65
283	2	57	56	58	59
287	2	19	21	18	20
290	2	16	41	14	17
292	2	12	13	14	11
297	2	73	74	75	68
300	2	26	23	27	28
301	2	43	41	44	11
305	2	24	23	25	54
306	2	21	23	19	22
307	2	43	44	11	41
308	2	68	73	66	69
312	1	9	10	11	4
332	2	16	14	17	41
333	1	9	4	10	11
351	1	69	71	68	70
363	2	23	26	21	24
371	2	14	15	16	12
372	2	24	54	23	25
383	2	68	69	73	66
386	1	69	70	71	68
389	2	26	27	28	23
395	2	12	14	11	13
396	2	23	21	24	26
397	2	57	58	59	56
403	2	68	66	69	73
412	2	23	24	26	21
414	2	90	91	56	88
419	2	26	28	23	27
434	2	73	75	68	74
440	2	59	61	57	60
455	2	61	62	88	59
