Title

10000 atoms
10375 bonds
17750 angles
24375 dihedrals
9750 impropers

9 atom types
13 bond types
6 angle types
9 dihedral types
2 improper types
-7.022753073 73.45744327 xlo xhi
-6.667091587 73.28793478 ylo yhi
-6.817206525 73.70080042 zlo zhi
0.0 0.0 0.0 xy xz yz

Masses

1	15.99943
2	12.01078
3	1.007947
4	12.01078
5	1.007947
6	15.99943
7	15.99943
8	1.007947
9	35.4532


Pair Coeffs

1	0.16846514	3.0251065
2	0.086879315	3.4806469
3	0.015611343	2.5725815
4	0.10884061	3.3795318
5	0.015779483	2.6445434
6	0.2102061	3.0398122
7	0.20947353	2.99716
8	1.2326e-05	0.53453923
9	0.2656001	3.3075278

Bond Coeffs

1 harmonic	425.69104206635	1.362945806494
2 harmonic	300.03137914615	1.451203938761
3 harmonic	360.7852444772	1.387193227181
4 harmonic	397.2545789619	1.085358495916
5 harmonic	289.73813263395	1.498646816465
6 harmonic	264.62148576755	1.52190126495
7 harmonic	301.15400723785	1.345741232799
8 harmonic	370.04670688625	1.093899492634
9 harmonic	582.698766451	1.225198386222
10 harmonic	279.1350963404	1.454628925034
11 harmonic	385.7604595587	1.369745182308
12 harmonic	543.5267831885	0.9716763312559
13 harmonic	218.0227703685	1.746066037062


Angle Coeffs

1 harmonic	57.8982893754	126.8062420451
2 harmonic	65.09061609600001	110.3538806181
3 harmonic	34.066775159195	129.1835929926
4 harmonic	53.20531626545	116.5475862634
5 harmonic	201.41175231035	127.4691416191
6 harmonic	48.776492647595	115.6030999533


Dihedral Coeffs

1 fourier 1	3.661930099076	2	180
2 fourier 1	1.532232714475	2	180
3 fourier 1	0.457973137376	1	0
4 fourier 1	0.02664938770063	3	0
5 fourier 1	0.1155372516788	3	0
6 fourier 1	2.779853741805	2	180
7 fourier 1	0.9974165607242	2	180
8 fourier 1	0.1040663847541	3	0
9 fourier 1	0.8283030590042	2	180


Improper Coeffs

1 0.3666666666666667	-1	2
2 3.5	-1	2


Atoms

1	4	1	0.0016908951	-1.2778191	2.3546546	-4.2320441
2	4	2	0.093266268	-1.2117245	2.7305857	-2.8901744
3	4	2	-0.24860424	-0.16394066	2.3713988	-2.1375897
4	4	3	0.23158705	0.64460154	1.7918292	-2.5641148
5	4	2	-0.14850422	-0.098810714	2.7555704	-0.71563776
6	4	3	0.21626925	0.77207779	2.4558314	-0.14563446
7	4	2	-0.2276112	-1.0991681	3.4513958	-0.13367304
8	4	4	0.0076069497	-0.98503338	3.8449207	1.3517536
9	4	2	-0.22761117	-0.67016929	2.5921511	2.1917042
10	4	2	-0.14883709	0.25848932	2.5740262	3.1723743
11	4	3	0.21626925	0.85774942	3.4386783	3.4119031
12	4	2	-0.21646062	0.49097945	1.35478	3.9711458
13	4	3	0.23140524	1.2477215	1.3688361	4.7451153
14	4	2	0.31364864	-0.2284302	0.24623271	3.7474993
15	4	1	-0.41428507	-0.011827167	-0.90125243	4.5112859
16	4	2	-0.090030279	-1.2649007	0.24373001	2.6872108
17	4	4	-0.13170061	-2.1150225	-0.97619741	2.4697919
18	4	5	0.09982035	-2.5703657	-0.97725754	1.4567266
19	4	5	0.09982035	-1.4990431	-1.8949133	2.5642557
20	4	5	0.09982035	-2.9233138	-1.0022925	3.2301137
21	4	2	-0.26458702	-1.4866945	1.3614414	1.9742137
22	4	3	0.21639627	-2.2700608	1.3737867	1.2260147
23	4	4	-0.12988332	-2.2965199	4.4409098	1.9137832
24	4	5	0.089355354	-2.5370836	5.4130979	1.4307506
25	4	5	0.089355354	-3.14801	3.7430464	1.7655263
26	4	5	0.089355354	-2.1987387	4.6302864	3.0052085
27	4	4	-0.12988332	0.10493842	4.9413791	1.4497556
28	4	5	0.089355354	0.14282938	5.3858175	2.4675492
29	4	5	0.089355354	1.1076065	4.5311714	1.2027792
30	4	5	0.089355354	-0.11185923	5.767667	0.73792327
31	4	2	-0.26672381	-2.2589003	3.8565917	-0.9863815
32	4	3	0.21639624	-3.0788524	4.4201129	-0.56401169
33	4	2	-0.07833876	-2.3076552	3.5319369	-2.2908873
34	4	4	-0.13482106	-3.4972637	3.9126515	-3.1265643
35	4	5	0.09982035	-4.0357317	4.7838225	-2.6938378
36	4	5	0.09982035	-4.1950193	3.0516232	-3.1873629
37	4	5	0.09982035	-3.1743285	4.1910688	-4.1517197
38	5	2	0.6303991	0.71151892	-0.93356003	5.270119
39	5	6	-0.48059151	0.69912217	-1.8389265	6.0864381
40	1	1	0.0016908951	-0.54692725	1.8082102	-4.6719539
41	1	2	0.093266268	-0.27595347	0.49514695	-4.2850687
42	1	2	-0.24860424	-0.98567373	-0.083688592	-3.3084329
43	1	3	0.23158705	-1.7804912	0.45963396	-2.8130545
44	1	2	-0.14850422	-0.69169998	-1.4657109	-2.8899622
45	1	3	0.21626925	-1.2977848	-1.9009288	-2.1049605
46	1	2	-0.2276112	0.3116691	-2.169593	-3.4572633
47	1	4	0.0076069497	0.57690174	-3.6169481	-2.9992252
48	1	2	-0.22761117	0.72555512	-3.6497387	-1.4664431
49	1	2	-0.10984081	0.13997243	-4.5870566	-0.68675723
50	1	3	0.21626925	-0.49237447	-5.3596542	-1.0961425
51	1	2	-0.38143775	0.34905801	-4.5933704	0.77396292
52	1	3	0.23717707	-0.14015521	-5.3514452	1.3726465
53	1	2	0.29408359	1.1378301	-3.6774626	1.3528486
54	1	7	-0.63421572	1.3400589	-3.6929231	2.7334356
55	1	8	0.44102889	0.90046523	-4.3837465	3.3310538
56	1	2	-0.26265151	1.8049376	-2.6474245	0.52041181
57	1	4	-0.11764251	2.7358119	-1.6546178	1.1552575
58	1	5	0.09982035	2.8690515	-0.75599	0.5144594
59	1	5	0.09982035	2.3288055	-1.3161899	2.1308242
60	1	5	0.09982035	3.725127	-2.1304998	1.3201241
61	1	2	-0.2271235	1.6267302	-2.6565759	-0.81254931
62	1	3	0.21639627	2.1436983	-1.9296991	-1.4271183
63	1	4	-0.12988332	1.8830735	-4.1987197	-3.5871317
64	1	5	0.089355354	1.8138094	-4.310191	-4.6914621
65	1	5	0.089355354	2.7534101	-3.5530444	-3.3427332
66	1	5	0.089355354	2.0807027	-5.2084728	-3.1657716
67	1	4	-0.12988332	-0.59695933	-4.4819059	-3.5231967
68	1	5	0.089355354	-0.40390983	-5.5653979	-3.3640018
69	1	5	0.089355354	-1.5494657	-4.2112017	-3.0188479
70	1	5	0.089355354	-0.73200195	-4.3297736	-4.6164219
71	1	2	-0.26672381	1.0906166	-1.5171673	-4.5549201
72	1	3	0.21639624	1.8980065	-2.0448429	-5.0408059
73	1	2	-0.07833876	0.8062842	-0.26556206	-4.9577569
74	1	4	-0.13482106	1.6227258	0.39096659	-6.0353549
75	1	5	0.09982035	2.1183633	-0.36208463	-6.6853789
76	1	5	0.09982035	2.3999417	1.0323421	-5.5701509
77	1	5	0.09982035	0.97359658	1.0188194	-6.6816281
78	2	2	0.4695349	1.4697689	-0.16086678	5.3290854
79	2	6	-0.55033624	1.4306987	0.79160049	4.5689238
80	2	9	-0.072647761	2.7543526	-0.28101241	6.5179672
81	4	1	0.0016908951	-1.8317999	0.20266504	9.5058932
82	4	2	0.093266268	-1.9867979	-0.6790281	10.575893
83	4	2	-0.24860424	-2.162467	-0.21119356	11.818278
84	4	3	0.23158705	-2.1924257	0.85476914	12.003727
85	4	2	-0.14850422	-2.3123391	-1.1411709	12.9525
86	4	3	0.21626925	-2.4652517	-0.72167998	13.939332
87	4	2	-0.2276112	-2.2501122	-2.478058	12.772412
88	4	4	0.0076069497	-2.4256851	-3.415325	13.982819
89	4	2	-0.22761117	-1.4502252	-2.9984478	15.100307
90	4	2	-0.14883709	-1.8082004	-2.9127495	16.399906
91	4	3	0.21626925	-2.8154392	-3.1103161	16.732393
92	4	2	-0.21646062	-0.82072114	-2.5451796	17.433553
93	4	3	0.23140524	-1.1396941	-2.4770603	18.465784
94	4	2	0.31364864	0.45552159	-2.3050783	17.101889
95	4	1	-0.41428507	1.3878034	-1.9670808	18.083529
96	4	2	-0.090030279	0.87860184	-2.4071528	15.684472
97	4	4	-0.13170061	2.3193676	-2.1965687	15.312921
98	4	5	0.09982035	2.4275171	-1.9456823	14.236353
99	4	5	0.09982035	2.7483477	-1.3577135	15.900025
100	4	5	0.09982035	2.8944633	-3.1211015	15.528813
101	4	2	-0.26458702	-0.019132058	-2.7601733	14.74837
102	4	3	0.21639627	0.29647687	-2.873616	13.718254
103	4	4	-0.12988332	-2.1126524	-4.8914623	13.645023
104	4	5	0.089355354	-2.8477629	-5.3037254	12.919769
105	4	5	0.089355354	-1.0904808	-4.9964065	13.222908
106	4	5	0.089355354	-2.1673164	-5.5180551	14.562098
107	4	4	-0.12988332	-3.9141635	-3.3392736	14.405326
108	4	5	0.089355354	-4.1559304	-4.1006176	15.177834
109	4	5	0.089355354	-4.1649054	-2.3336002	14.805776
110	4	5	0.089355354	-4.5749201	-3.5348934	13.532634
111	4	2	-0.26672381	-2.0647469	-2.9892761	11.379368
112	4	3	0.21639624	-2.0158937	-4.0519165	11.187841
113	4	2	-0.07833876	-1.9561586	-2.1436912	10.338836
114	4	4	-0.13482106	-1.731776	-2.6706094	8.9494194
115	4	5	0.09982035	-2.089576	-3.7185355	8.8495741
116	4	5	0.09982035	-0.64783161	-2.6358361	8.7132322
117	4	5	0.09982035	-2.2842518	-2.0537049	8.2098613
118	5	2	0.6303991	1.1232108	-1.8879529	19.095375
119	5	6	-0.48059151	1.9901908	-1.8563768	19.95186
120	1	1	0.0016908951	-1.848071	1.2075938	9.6330874
121	1	2	0.093266268	-0.86315903	1.8726956	10.364408
122	1	2	-0.24860424	0.14267346	1.1891403	10.92443
123	1	3	0.23158705	0.20463524	0.11417464	10.81066
124	1	2	-0.14850422	1.1760748	1.8888053	11.708059
125	1	3	0.21626925	1.9794946	1.300174	12.133512
126	1	2	-0.2276112	1.1208917	3.224012	11.903527
127	1	4	0.0076069497	2.2294656	3.9182344	12.718452
128	1	2	-0.22761117	2.3920365	3.2043109	14.07362
129	1	2	-0.10984081	3.5961514	2.8985883	14.608431
130	1	3	0.21626925	4.521849	3.1174681	14.098978
131	1	2	-0.38143775	3.6934033	2.2489858	15.929801
132	1	3	0.23717707	4.6713353	2.0087795	16.327769
133	1	2	0.29408359	2.5877011	1.9644789	16.631681
134	1	7	-0.63421572	2.6848779	1.3585651	17.884909
135	1	8	0.44102889	3.5800125	1.1156006	18.293968
136	1	2	-0.26265151	1.2549217	2.3026709	16.076445
137	1	4	-0.11764251	0.015589252	2.0398192	16.882785
138	1	5	0.09982035	-0.88757083	1.9958292	16.236044
139	1	5	0.09982035	0.1003025	1.0672529	17.410854
140	1	5	0.09982035	-0.11533835	2.8490875	17.631338
141	1	2	-0.2271235	1.1714921	2.9115941	14.880251
142	1	3	0.21639627	0.20164688	3.195067	14.489938
143	1	4	-0.12988332	1.9040026	5.3973371	13.029106
144	1	5	0.089355354	1.877067	6.0081404	12.100148
145	1	5	0.089355354	0.92798812	5.4903397	13.551466
146	1	5	0.089355354	2.6849142	5.8348602	13.688616
147	1	4	-0.12988332	3.5134273	3.8946942	11.851541
148	1	5	0.089355354	4.3202662	4.5100699	12.306392
149	1	5	0.089355354	3.8877241	2.8567545	11.719253
150	1	5	0.089355354	3.3076428	4.3165734	10.843477
151	1	2	-0.26672381	-0.00078939335	3.9790656	11.264
152	1	3	0.21639624	-0.081199014	5.0487962	11.388963
153	1	2	-0.07833876	-0.9300775	3.3465058	10.52513
154	1	4	-0.13482106	-2.0729591	4.113009	9.9208794
155	1	5	0.09982035	-1.8194892	5.1876849	9.7939988
156	1	5	0.09982035	-2.9627454	4.0281957	10.578853
157	1	5	0.09982035	-2.3228857	3.7052024	8.9186482
158	2	2	0.4695349	0.078264674	-1.835344	19.379619
159	2	6	-0.55033624	-0.79108274	-1.955871	18.533289
160	2	9	-0.072647761	-0.36255309	-1.5757075	21.057802
161	4	1	0.0016908951	0.84663096	-2.4607652	32.606109
162	4	2	0.093266268	-0.30203927	-2.0396627	31.935634
163	4	2	-0.24860424	-0.40885991	-2.1991962	30.610346
164	4	3	0.23158705	0.39149172	-2.6619349	30.047429
165	4	2	-0.14850422	-1.6159432	-1.7420807	29.897764
166	4	3	0.21626925	-1.6676992	-1.9015762	28.827682
167	4	2	-0.2276112	-2.6255108	-1.1314506	30.554632
168	4	4	0.0076069497	-3.8756471	-0.6815917	29.77414
169	4	2	-0.22761117	-3.4467679	0.17942683	28.57048
170	4	2	-0.14883709	-3.9712	0.0349492	27.334136
171	4	3	0.21626925	-4.7123056	-0.71612149	27.108825
172	4	2	-0.21646062	-3.5496005	0.91463543	26.226411
173	4	3	0.23140524	-3.9822418	0.76920827	25.244801
174	4	2	0.31364864	-2.6484826	1.8852299	26.43227
175	4	1	-0.41428507	-2.2597626	2.7206225	25.384403
176	4	2	-0.090030279	-2.0683596	2.0754571	27.783477
177	4	4	-0.13170061	-1.10168	3.1980796	28.03537
178	4	5	0.09982035	-0.49070597	3.0103288	28.94372
179	4	5	0.09982035	-0.40624865	3.3054997	27.176749
180	4	5	0.09982035	-1.6640315	4.1460211	28.166796
181	4	2	-0.26458702	-2.468315	1.2845474	28.794087
182	4	3	0.21639627	-2.0751581	1.4471602	29.790382
183	4	4	-0.12988332	-4.8307584	0.18637791	30.625884
184	4	5	0.089355354	-5.2730224	-0.4007261	31.460182
185	4	5	0.089355354	-4.3016039	1.0684888	31.045294
186	4	5	0.089355354	-5.6728191	0.56001286	30.003016
187	4	4	-0.12988332	-4.6459525	-1.9635528	29.370322
188	4	5	0.089355354	-5.6382508	-1.71985	28.933495
189	4	5	0.089355354	-4.0688007	-2.5605635	28.632023
190	4	5	0.089355354	-4.8271014	-2.6034064	30.261518
191	4	2	-0.26672381	-2.5001831	-0.96867709	32.035872
192	4	3	0.21639624	-3.2869995	-0.49165611	32.603009
193	4	2	-0.07833876	-1.4124965	-1.4102934	32.692702
194	4	4	-0.13482106	-1.2830747	-1.2055496	34.175873
195	4	5	0.09982035	-2.2774975	-1.0799416	34.657002
196	4	5	0.09982035	-0.67162774	-0.29988587	34.370385
197	4	5	0.09982035	-0.79035292	-2.0834491	34.644131
198	5	2	0.6303991	-2.6513091	2.6152028	24.417098
199	5	6	-0.48059151	-2.5034401	3.5066284	23.598738
200	1	1	0.0016908951	1.6224235	-2.8941033	32.119602
201	1	2	0.093266268	2.3867295	-2.1955864	31.184106
202	1	2	-0.24860424	2.1096593	-0.9164185	30.902091
203	1	3	0.23158705	1.2932217	-0.40986308	31.401255
204	1	2	-0.14850422	2.9077181	-0.18167674	29.904704
205	1	3	0.21626925	2.6585959	0.85518817	29.715415
206	1	2	-0.2276112	3.9141229	-0.7828584	29.234062
207	1	4	0.0076069497	4.732435	0.025819903	28.20869
208	1	2	-0.22761117	3.7756099	0.70052769	27.207766
209	1	2	-0.10984081	3.9095221	1.9858205	26.808426
210	1	3	0.21626925	4.6884129	2.6268745	27.191499
211	1	2	-0.38143775	2.9862108	2.5691577	25.816119
212	1	3	0.23717707	3.1135933	3.6036108	25.522675
213	1	2	0.29408359	2.0061735	1.8286008	25.280153
214	1	7	-0.63421572	1.1411461	2.3817706	24.335226
215	1	8	0.44102889	1.2240285	3.3459674	24.033428
216	1	2	-0.26265151	1.8456958	0.41198156	25.688073
217	1	4	-0.11764251	0.78676986	-0.43941417	25.048525
218	1	5	0.09982035	0.54277176	-1.3235754	25.676721
219	1	5	0.09982035	-0.14635001	0.14605746	24.912774
220	1	5	0.09982035	1.1438225	-0.78836258	24.056992
221	1	2	-0.2271235	2.7008174	-0.12113867	26.578678
222	1	3	0.21639627	2.6102133	-1.166123	26.849047
223	1	4	-0.12988332	5.6931279	-0.85882348	27.381253
224	1	5	0.089355354	6.4881105	-1.2996633	28.021902
225	1	5	0.089355354	5.142662	-1.6787007	26.872429
226	1	5	0.089355354	6.1991297	-0.25285343	26.598332
227	1	4	-0.12988332	5.5969161	1.0321684	29.009054
228	1	5	0.089355354	6.3284553	1.5502756	28.351041
229	1	5	0.089355354	4.9625282	1.7958714	29.50828
230	1	5	0.089355354	6.1794613	0.50295232	29.794607
231	1	2	-0.26672381	4.2221077	-2.2086154	29.565168
232	1	3	0.21639624	5.0219638	-2.7273966	29.057722
233	1	2	-0.07833876	3.5129323	-2.8733703	30.495119
234	1	4	-0.13482106	3.8088229	-4.3171986	30.789454
235	1	5	0.09982035	4.8512639	-4.5833918	30.510649
236	1	5	0.09982035	3.1078515	-4.9611445	30.218652
237	1	5	0.09982035	3.6875264	-4.5216954	31.874214
238	2	2	0.4695349	-3.1886501	1.7135826	24.145399
239	2	6	-0.55033624	-3.4140148	0.86060052	24.986944
240	2	9	-0.072647761	-3.7335239	1.4808366	22.494044
241	4	1	0.0016908951	-3.2727749	3.6152163	43.632766
242	4	2	0.093266268	-1.9237765	3.5994531	43.277433
243	4	2	-0.24860424	-1.4962695	2.8171164	42.278214
244	4	3	0.23158705	-2.1934741	2.1945487	41.73243
245	4	2	-0.14850422	-0.068824282	2.7883035	41.910319
246	4	3	0.21626925	0.23322895	2.1514822	41.087874
247	4	2	-0.2276112	0.84100803	3.5244847	42.583976
248	4	4	0.0076069497	2.3210909	3.4761319	42.158068
249	4	2	-0.22761117	2.7887348	2.0094311	42.09337
250	4	2	-0.14883709	3.53191	1.5146437	41.0798
251	4	3	0.21626925	3.8249495	2.1180682	40.234745
252	4	2	-0.21646062	3.9842608	0.10967742	41.089667
253	4	3	0.23140524	4.5720533	-0.25996044	40.259154
254	4	2	0.31364864	3.6782791	-0.69745032	42.115028
255	4	1	-0.41428507	4.1159415	-2.0223528	42.12473
256	4	2	-0.090030279	2.8766107	-0.17545271	43.247872
257	4	4	-0.13170061	2.5792062	-1.0573014	44.427742
258	4	5	0.09982035	1.7044343	-0.68452526	45.001722
259	4	5	0.09982035	2.3456185	-2.0878085	44.087323
260	4	5	0.09982035	3.4644621	-1.0887422	45.096651
261	4	2	-0.26458702	2.4820846	1.109527	43.24437
262	4	3	0.21639627	1.9300256	1.5034359	44.089168
263	4	4	-0.12988332	3.2537994	4.1981493	43.157979
264	4	5	0.089355354	3.0513089	5.2912211	43.18106
265	4	5	0.089355354	3.135333	3.786784	44.183051
266	4	5	0.089355354	4.3169387	4.0659994	42.859809
267	4	4	-0.12988332	2.4289151	4.2167578	40.801708
268	4	5	0.089355354	3.4889745	4.3567035	40.499129
269	4	5	0.089355354	1.900111	3.6593761	39.999023
270	4	5	0.089355354	1.9716193	5.2276778	40.875052
271	4	2	-0.26672381	0.35064462	4.4027135	43.690561
272	4	3	0.21639624	1.0427463	5.0140737	44.252262
273	4	2	-0.07833876	-0.95514925	4.4525201	44.009834
274	4	4	-0.13482106	-1.4284371	5.3104933	45.149285
275	4	5	0.09982035	-0.71748533	6.1399435	45.355922
276	4	5	0.09982035	-1.5299348	4.6870428	46.061938
277	4	5	0.09982035	-2.4131822	5.7627521	44.907445
278	5	2	0.6303991	4.686089	-2.4234459	41.341048
279	5	6	-0.48059151	5.2728434	-3.4812058	41.492977
280	1	1	0.0016908951	-3.9597802	3.0456036	43.153298
281	1	2	0.093266268	-3.9288352	1.6516785	43.210369
282	1	2	-0.24860424	-2.976349	1.0231354	43.910565
283	1	3	0.23158705	-2.2240123	1.590494	44.443883
284	1	2	-0.14850422	-2.9348078	-0.44903352	43.960736
285	1	3	0.21626925	-2.1554724	-0.91767735	44.548945
286	1	2	-0.2276112	-3.8329895	-1.1973089	43.284434
287	1	4	0.0076069497	-3.7618962	-2.7341173	43.374709
288	1	2	-0.22761117	-2.3355926	-3.2018186	43.029011
289	1	2	-0.10984081	-1.6738226	-4.1435555	43.739345
290	1	3	0.21626925	-2.1024578	-4.6085011	44.613681
291	1	2	-0.38143775	-0.32294531	-4.5819796	43.338876
292	1	3	0.23717707	0.18499302	-5.3315553	43.932647
293	1	2	0.29408359	0.26656373	-4.0646152	42.252152
294	1	7	-0.63421572	1.5403451	-4.488964	41.871935
295	1	8	0.44102889	2.0516541	-5.1871605	42.399866
296	1	2	-0.26265151	-0.44220398	-3.0417209	41.445741
297	1	4	-0.11764251	0.18835172	-2.5008911	40.194692
298	1	5	0.09982035	-0.25689044	-1.5241681	39.90542
299	1	5	0.09982035	1.2759479	-2.3432312	40.350243
300	1	5	0.09982035	0.041383154	-3.2244499	39.365686
301	1	2	-0.2271235	-1.680714	-2.6585848	41.80341
302	1	3	0.21639627	-2.2162115	-1.9406258	41.194248
303	1	4	-0.12988332	-4.7151645	-3.434792	42.379465
304	1	5	0.089355354	-5.7796376	-3.2331774	42.630498
305	1	5	0.089355354	-4.519991	-3.1019147	41.337729
306	1	5	0.089355354	-4.5709141	-4.5366261	42.416295
307	1	4	-0.12988332	-4.2094447	-3.1266432	44.805189
308	1	5	0.089355354	-4.3305147	-4.2276525	44.903609
309	1	5	0.089355354	-3.4751911	-2.779114	45.563484
310	1	5	0.089355354	-5.1930368	-2.6657497	45.043193
311	1	2	-0.26672381	-4.8992849	-0.48468525	42.514726
312	1	3	0.21639624	-5.6417455	-1.0428868	41.963756
313	1	2	-0.07833876	-4.9559955	0.85911566	42.489806
314	1	4	-0.13482106	-6.0098973	1.5614038	41.680543
315	1	5	0.09982035	-6.8941379	0.90956069	41.511744
316	1	5	0.09982035	-5.5858086	1.8545398	40.697658
317	1	5	0.09982035	-6.3592284	2.4723594	42.210981
318	2	2	0.4695349	4.7544457	-1.8965203	40.395981
319	2	6	-0.55033624	4.2419734	-0.79718492	40.271885
320	2	9	-0.072647761	5.6018567	-2.6259319	39.043989
321	4	1	0.0016908951	-3.4773003	-2.9833817	54.629281
322	4	2	0.093266268	-3.4803862	-2.0448463	55.661486
323	4	2	-0.24860424	-2.855858	-0.87002682	55.509784
324	4	3	0.23158705	-2.3483493	-0.63437924	54.583247
325	4	2	-0.14850422	-2.8458574	0.11754308	56.60449
326	4	3	0.21626925	-2.3402391	1.0605283	56.436196
327	4	2	-0.2276112	-3.4390574	-0.14633857	57.788573
328	4	4	0.0076069497	-3.4175513	0.91899719	58.901667
329	4	2	-0.22761117	-1.967381	1.3810023	59.141761
330	4	2	-0.14883709	-1.6199759	2.6776608	59.291547
331	4	3	0.21626925	-2.3420581	3.4767846	59.22745
332	4	2	-0.21646062	-0.21925059	3.0592597	59.558005
333	4	3	0.23140524	0.029499121	4.1073281	59.665527
334	4	2	0.31364864	0.73226087	2.1222387	59.672296
335	4	1	-0.41428507	2.0535405	2.4868809	59.933573
336	4	2	-0.090030279	0.37539636	0.69039938	59.527476
337	4	4	-0.13170061	1.4255503	-0.36851836	59.712059
338	4	5	0.09982035	1.1246443	-1.3249969	59.23431
339	4	5	0.09982035	2.3814786	-0.045701948	59.249043
340	4	5	0.09982035	1.588364	-0.54089652	60.79644
341	4	2	-0.26458702	-0.90428091	0.34543864	59.303279
342	4	3	0.21639627	-1.173691	-0.70172258	59.236283
343	4	4	-0.12988332	-3.9440414	0.38146158	60.25257
344	4	5	0.089355354	-5.0246836	0.12683588	60.191584
345	4	5	0.089355354	-3.3778077	-0.51933758	60.571897
346	4	5	0.089355354	-3.8312255	1.1524152	61.046004
347	4	4	-0.12988332	-4.3618808	2.0630055	58.45518
348	4	5	0.089355354	-4.5183515	2.8014042	59.270747
349	4	5	0.089355354	-3.9549558	2.5935437	57.567738
350	4	5	0.089355354	-5.360628	1.656832	58.183178
351	4	2	-0.26672381	-4.1428424	-1.4567538	57.942756
352	4	3	0.21639624	-4.6368947	-1.7072806	58.870885
353	4	2	-0.07833876	-4.1778868	-2.3480326	56.935827
354	4	4	-0.13482106	-4.8559549	-3.67675	57.11804
355	4	5	0.09982035	-5.6213666	-3.6352589	57.923374
356	4	5	0.09982035	-4.0979109	-4.4438384	57.380478
357	4	5	0.09982035	-5.3686451	-3.9790548	56.180753
358	5	2	0.6303991	2.3403079	3.4897567	60.043599
359	5	6	-0.48059151	3.424896	3.7643996	60.527808
360	1	1	0.0016908951	-3.0111705	-2.8079679	53.74708
361	1	2	0.093266268	-1.6257026	-2.6644	53.662765
362	1	2	-0.24860424	-0.86679324	-2.7562733	54.761941
363	1	3	0.23158705	-1.3202568	-2.9483489	55.726208
364	1	2	-0.14850422	0.59508058	-2.591682	54.676158
365	1	3	0.21626925	1.1734383	-2.6861396	55.586961
366	1	2	-0.2276112	1.2001215	-2.3185288	53.500002
367	1	4	0.0076069497	2.7330169	-2.1670995	53.452202
368	1	2	-0.22761117	3.1796106	-1.1430753	54.512637
369	1	2	-0.10984081	4.24098	-1.3382346	55.327984
370	1	3	0.21626925	4.8272619	-2.24366	55.298923
371	1	2	-0.38143775	4.6478101	-0.30489363	56.299661
372	1	3	0.23717707	5.4966076	-0.49382412	56.944856
373	1	2	0.29408359	3.9804368	0.8545473	56.380076
374	1	7	-0.63421572	4.374434	1.8326056	57.294037
375	1	8	0.44102889	5.1621158	1.6963592	57.917432
376	1	2	-0.26265151	2.8223178	1.1017403	55.487541
377	1	4	-0.11764251	2.1067136	2.421265	55.53211
378	1	5	0.09982035	1.0841585	2.3430299	55.102963
379	1	5	0.09982035	2.0066825	2.7684354	56.581579
380	1	5	0.09982035	2.6841959	3.1731448	54.954546
381	1	2	-0.2271235	2.4663839	0.16509387	54.590529
382	1	3	0.21639627	1.6455493	0.35881894	53.910821
383	1	4	-0.12988332	3.2386114	-1.6459256	52.087311
384	1	5	0.089355354	3.0496866	-2.3850996	51.278176
385	1	5	0.089355354	2.7493326	-0.68488559	51.820625
386	1	5	0.089355354	4.3358204	-1.4696855	52.123014
387	1	4	-0.12988332	3.3360933	-3.5782497	53.665748
388	1	5	0.089355354	4.4348301	-3.5790332	53.494451
389	1	5	0.089355354	3.1349584	-3.9476995	54.694324
390	1	5	0.089355354	2.8915237	-4.3018764	52.947943
391	1	2	-0.26672381	0.34393276	-2.2292417	52.276794
392	1	3	0.21639624	0.7858211	-2.0182901	51.314173
393	1	2	-0.07833876	-0.98766857	-2.4064906	52.347919
394	1	4	-0.13482106	-1.8396237	-2.2754497	51.11673
395	1	5	0.09982035	-1.2483212	-2.4532387	50.192595
396	1	5	0.09982035	-2.2738276	-1.2548541	51.075577
397	1	5	0.09982035	-2.6637041	-3.01955	51.137785
398	2	2	0.4695349	1.671401	4.2823278	59.727577
399	2	6	-0.55033624	0.55232848	4.0123447	59.325891
400	2	9	-0.072647761	2.1992392	5.9541918	59.793055
401	4	1	0.0016908951	-0.69715796	12.505223	4.6746526
402	4	2	0.093266268	0.23840016	12.236338	3.6752833
403	4	2	-0.24860424	0.77115768	13.235578	2.9604835
404	4	3	0.23158705	0.48638009	14.261538	3.1550941
405	4	2	-0.14850422	1.7494464	12.952506	1.8943698
406	4	3	0.21626925	2.1658183	13.790303	1.3485446
407	4	2	-0.2276112	2.1103654	11.685896	1.5960297
408	4	4	0.0076069497	3.1467093	11.43465	0.48371321
409	4	2	-0.22761117	2.7072951	12.163014	-0.80100066
410	4	2	-0.14883709	3.554864	12.878833	-1.5715065
411	4	3	0.21626925	4.5959014	13.003772	-1.3170634
412	4	2	-0.21646062	3.085904	13.524138	-2.813403
413	4	3	0.23140524	3.787204	14.097839	-3.4057965
414	4	2	0.31364864	1.8111979	13.39736	-3.2077338
415	4	1	-0.41428507	1.3743938	14.001264	-4.3873571
416	4	2	-0.090030279	0.86346011	12.604266	-2.3884147
417	4	4	-0.13170061	-0.55197278	12.40925	-2.8539463
418	4	5	0.09982035	-1.2198606	12.127171	-2.0125206
419	4	5	0.09982035	-0.94362062	13.349463	-3.2955402
420	4	5	0.09982035	-0.58008007	11.60889	-3.6225412
421	4	2	-0.26458702	1.2983854	12.002651	-1.2678188
422	4	3	0.21639627	0.61748748	11.390532	-0.68876263
423	4	4	-0.12988332	3.2839671	9.9372834	0.12297879
424	4	5	0.089355354	3.704228	9.3549483	0.97186489
425	4	5	0.089355354	2.3017698	9.5035065	-0.16189848
426	4	5	0.089355354	3.9747505	9.8088647	-0.73897306
427	4	4	-0.12988332	4.5182501	11.91188	1.0231499
428	4	5	0.089355354	5.3451249	11.627112	0.33754754
429	4	5	0.089355354	4.532295	13.014556	1.1592314
430	4	5	0.089355354	4.731491	11.44249	2.0083704
431	4	2	-0.26672381	1.5175017	10.578935	2.4080787
432	4	3	0.21639624	1.7829636	9.550365	2.2084588
433	4	2	-0.07833876	0.64627664	10.836219	3.4001899
434	4	4	-0.13482106	0.029174058	9.7113397	4.1826853
435	4	5	0.09982035	0.6608225	8.7970771	4.146865
436	4	5	0.09982035	-0.97048046	9.4754466	3.7620021
437	4	5	0.09982035	-0.084809675	10.000949	5.2484625
438	5	2	0.6303991	2.0182597	14.56742	-4.991514
439	5	6	-0.48059151	1.690776	14.8548	-6.1301035
440	1	1	0.0016908951	-0.99692253	13.449134	4.8879555
441	1	2	0.093266268	-1.7104421	14.219827	3.9691712
442	1	2	-0.24860424	-2.0211925	13.723615	2.7651036
443	1	3	0.23158705	-1.7266092	12.717435	2.4946273
444	1	2	-0.14850422	-2.7631268	14.541224	1.7891047
445	1	3	0.21626925	-3.0055253	14.097476	0.83134085
446	1	2	-0.2276112	-3.1221777	15.812273	2.0711414
447	1	4	0.0076069497	-3.9089501	16.628173	1.0269763
448	1	2	-0.22761117	-3.1638828	16.589045	-0.32059102
449	1	2	-0.10984081	-3.7863314	16.384588	-1.5038648
450	1	3	0.21626925	-4.8491881	16.210382	-1.5698492
451	1	2	-0.38143775	-3.0272694	16.396379	-2.7692287
452	1	3	0.23717707	-3.5522571	16.22099	-3.6998498
453	1	2	0.29408359	-1.7069469	16.626391	-2.7690779
454	1	7	-0.63421572	-0.99479624	16.64581	-3.9689197
455	1	8	0.44102889	-1.4465356	16.485206	-4.8620967
456	1	2	-0.26265151	-1.0012824	16.869127	-1.4876416
457	1	4	-0.11764251	0.46683574	17.185112	-1.485727
458	1	5	0.09982035	0.92325993	16.986991	-0.491578
459	1	5	0.09982035	0.99588218	16.555908	-2.2314681
460	1	5	0.09982035	0.61370888	18.254787	-1.74382
461	1	2	-0.2271235	-1.6998704	16.876123	-0.33848847
462	1	3	0.21639627	-1.1939348	17.091842	0.59467562
463	1	4	-0.12988332	-4.0495043	18.117706	1.4164815
464	1	5	0.089355354	-4.6736105	18.238882	2.3289379
465	1	5	0.089355354	-3.0549689	18.579511	1.5946621
466	1	5	0.089355354	-4.5460334	18.685784	0.5998119
467	1	4	-0.12988332	-5.3351175	16.026296	0.96035961
468	1	5	0.089355354	-6.0109685	16.654454	0.33970792
469	1	5	0.089355354	-5.3161038	14.998303	0.53871288
470	1	5	0.089355354	-5.7802077	15.971856	1.9779317
471	1	2	-0.26672381	-2.7797647	16.352491	3.4232461
472	1	3	0.21639624	-3.052374	17.361845	3.6939761
473	1	2	-0.07833876	-2.1268159	15.598816	4.3261691
474	1	4	-0.13482106	-1.7554391	16.168181	5.6665894
475	1	5	0.09982035	-2.4149503	17.018814	5.9436148
476	1	5	0.09982035	-0.70390506	16.522194	5.6384282
477	1	5	0.09982035	-1.8561005	15.393041	6.455425
478	2	2	0.4695349	2.9758006	14.896167	-4.6035503
479	2	6	-0.55033624	3.3426073	14.535482	-3.4981432
480	2	9	-0.072647761	3.9979354	15.948397	-5.5658817
481	4	1	0.0016908951	4.1943431	13.14412	11.622312
482	4	2	0.093266268	3.3622143	14.259511	11.721162
483	4	2	-0.24860424	2.9011226	14.656211	12.914172
484	4	3	0.23158705	3.1743957	14.119808	13.813704
485	4	2	-0.14850422	2.0102039	15.826248	13.019321
486	4	3	0.21626925	1.6699379	16.121421	14.004351
487	4	2	-0.2276112	1.6180838	16.506455	11.920626
488	4	4	0.0076069497	0.69741708	17.732267	12.075995
489	4	2	-0.22761117	-0.53758218	17.343792	12.91143
490	4	2	-0.14883709	-1.0315793	18.116049	13.903415
491	4	3	0.21626925	-0.57119262	19.049386	14.188085
492	4	2	-0.21646062	-2.2416242	17.711343	14.645475
493	4	3	0.23140524	-2.6089426	18.347544	15.440592
494	4	2	0.31364864	-2.8823672	16.575402	14.336395
495	4	1	-0.41428507	-4.0313211	16.201347	15.034246
496	4	2	-0.090030279	-2.3701089	15.716763	13.241488
497	4	4	-0.13170061	-3.1157803	14.471989	12.850705
498	4	5	0.09982035	-2.4607793	13.76327	12.300858
499	4	5	0.09982035	-3.4931004	13.950819	13.755363
500	4	5	0.09982035	-3.9761667	14.745353	12.204863
501	4	2	-0.26458702	-1.2786299	16.097639	12.5556
502	4	3	0.21639627	-0.92559596	15.491826	11.729783
503	4	4	-0.12988332	0.17152252	18.259342	10.720744
504	4	5	0.089355354	0.99847733	18.663849	10.097157
505	4	5	0.089355354	-0.34880408	17.457261	10.155097
506	4	5	0.089355354	-0.55418125	19.086245	10.882665
507	4	4	-0.12988332	1.5445669	18.859455	12.717593
508	4	5	0.089355354	0.99510217	19.825317	12.725581
509	4	5	0.089355354	1.8274688	18.602089	13.760829
510	4	5	0.089355354	2.4803139	19.018182	12.138248
511	4	2	-0.26672381	2.1480235	16.06129	10.595007
512	4	3	0.21639624	1.8658886	16.580487	9.6899607
513	4	2	-0.07833876	2.9836528	15.011514	10.499051
514	4	4	-0.13482106	3.4778715	14.551679	9.1563797
515	4	5	0.09982035	3.4393987	15.371728	8.4065943
516	4	5	0.09982035	2.8486657	13.709028	8.8014586
517	4	5	0.09982035	4.5321354	14.211331	9.2301214
518	5	2	0.6303991	-4.4219141	16.785851	15.812638
519	5	6	-0.48059151	-5.552799	16.582261	16.219909
520	1	1	0.0016908951	4.4719769	12.608994	12.436489
521	1	2	0.093266268	3.5470389	11.890651	13.195248
522	1	2	-0.24860424	2.2505269	11.890803	12.861141
523	1	3	0.23158705	1.9079431	12.44391	11.995669
524	1	2	-0.14850422	1.2708636	11.143373	13.669308
525	1	3	0.21626925	0.23389092	11.159204	13.357189
526	1	2	-0.2276112	1.6480693	10.466482	14.775457
527	1	4	0.0076069497	0.59341236	9.6868859	15.584723
528	1	2	-0.22761117	-0.58255043	10.621006	15.926958
529	1	2	-0.10984081	-1.8784194	10.252116	15.808529
530	1	3	0.21626925	-2.16617	9.2797572	15.439632
531	1	2	-0.38143775	-2.9649422	11.175422	16.188574
532	1	3	0.23717707	-3.9927493	10.854518	16.074283
533	1	2	0.29408359	-2.6852631	12.392919	16.673999
534	1	7	-0.63421572	-3.7158526	13.259235	17.040793
535	1	8	0.44102889	-4.6914508	12.999616	16.948962
536	1	2	-0.26265151	-1.2730845	12.817949	16.829122
537	1	4	-0.11764251	-0.95232297	14.157818	17.426686
538	1	5	0.09982035	0.074291043	14.487558	17.156052
539	1	5	0.09982035	-1.6625812	14.92463	17.053256
540	1	5	0.09982035	-1.0323213	14.096732	18.532244
541	1	2	-0.2271235	-0.28571372	11.966545	16.499216
542	1	3	0.21639627	0.74638702	12.259599	16.648175
543	1	4	-0.12988332	1.1456266	9.1539581	16.92682
544	1	5	0.089355354	1.9320542	8.3849864	16.762555
545	1	5	0.089355354	1.56823	9.9780856	17.54028
546	1	5	0.089355354	0.33373812	8.6743489	17.5159
547	1	4	-0.12988332	0.17926699	8.4621442	14.730826
548	1	5	0.089355354	-0.46763476	7.766117	15.308434
549	1	5	0.089355354	-0.36522099	8.7786276	13.815246
550	1	5	0.089355354	1.0781315	7.8888091	14.414834
551	1	2	-0.26672381	3.1004718	10.463872	15.132933
552	1	3	0.21639624	3.447867	9.9311367	16.00581
553	1	2	-0.07833876	4.0008515	11.122573	14.381223
554	1	4	-0.13482106	5.4512502	11.143022	14.774605
555	1	5	0.09982035	5.7106118	10.27322	15.416049
556	1	5	0.09982035	5.6693846	12.078349	15.330863
557	1	5	0.09982035	6.0958094	11.099589	13.871336