Title

59 atoms
62 bonds
101 angles
157 dihedrals
72 impropers

8 atom types
12 bond types
6 angle types
20 dihedral types
2 improper types
-2.443000078 97.55699992 xlo xhi
-1.483999968 98.51600003 ylo yhi
-7.367000103 92.6329999 zlo zhi
0.0 0.0 0.0 xy xz yz

Masses

1	15.99943
2	12.01078
3	1.007947
4	12.01078
5	15.99943
6	1.007947
7	15.99943
8	1.007947


Pair Coeffs

1	0.16846514	3.0251065
2	0.10884061	3.3795318
3	0.016409246	2.5832257
4	0.086879315	3.4806469
5	0.2102061	3.0398122
6	0.015611343	2.5725815
7	0.20947353	2.99716
8	1.2326e-05	0.53453923

Bond Coeffs

1 harmonic	366.7408841747	1.425895053732
2 harmonic	300.03137914615	1.451203938761
3 harmonic	264.62148576755	1.52190126495
4 harmonic	370.04670688625	1.093899492634
5 harmonic	301.15400723785	1.345741232799
6 harmonic	582.698766451	1.225198386222
7 harmonic	279.1350963404	1.454628925034
8 harmonic	360.7852444772	1.387193227181
9 harmonic	397.2545789619	1.085358495916
10 harmonic	329.96998057905	1.427343958716
11 harmonic	543.5267831885	0.9716763312559
12 harmonic	385.7604595587	1.369745182308


Angle Coeffs

1 harmonic	53.20531626545	116.5475862634
2 harmonic	65.09061609600001	110.3538806181
3 harmonic	201.41175231035	127.4691416191
4 harmonic	57.8982893754	126.8062420451
5 harmonic	48.776492647595	115.6030999533
6 harmonic	34.066775159195	129.1835929926


Dihedral Coeffs

1 fourier 1	-0.0309670556842	3	0
2 fourier 1	0.4598191477945	2	0
3 fourier 1	0.1115525666802	3	0
4 fourier 1	0.3432490222662	1	0
5 fourier 1	0.0473758381877	3	0
6 fourier 1	0.457973137376	1	0
7 fourier 1	0.1918272375143	3	0
8 fourier 1	0.9202179876409	1	180
9 fourier 1	1.163809172478	2	180
10 fourier 1	0.1679186987369	1	180
11 fourier 1	2.779853741805	2	180
12 fourier 1	0.9974165607242	2	180
13 fourier 1	0.1911926717192	3	0
14 fourier 1	3.661930099076	2	180
15 fourier 1	0.3445382149273	3	0
16 fourier 1	0.1364556373303	1	0
17 fourier 1	0.3026390167484	3	0
18 fourier 1	2.687457892086	2	180
19 fourier 1	2.772607909663	2	180
20 fourier 1	0.09692684957115	1	0


Improper Coeffs

1 3.5	-1	2
2 0.3666666666666667	-1	2


Atoms

1	1	1	-0.12907501	1.576	-0.336	0.85699999
2	1	2	0.053839002	0.63599998	-0.419	-0.17900001
3	1	2	0.158804	-0.71899998	0.11	0.28999999
4	1	1	-0.50022298	-1.675	-0.035999998	-0.72399998
5	1	3	0.094411999	-1.051	-0.46900001	1.177
6	1	3	0.094411999	-0.63099998	1.1799999	0.58899999
7	1	3	0.102078	0.52999997	-1.484	-0.477
8	1	3	0.102078	0.98699999	0.154	-1.068
9	1	4	0.79458499	-1.49	0.71499997	-1.4170001
10	1	5	-0.54388398	-2.4430001	1.1390001	-2.1240001
11	1	4	-0.268291	-0.133	1.27	-1.5650001
12	1	4	-0.080402002	0.87099999	0.80400002	-0.801
13	1	6	0.22331899	0.69599998	0.021	-0.072999999
14	1	4	-0.22758099	2.2360001	1.353	-0.94099998
15	1	6	0.1927	3.03	0.963	-0.31600001
16	1	4	-0.12873299	2.4809999	2.323	-1.835
17	1	4	0.015873	3.8299999	2.8970001	-2.0039999
18	1	6	0.20278899	4.6420002	2.523	-1.39
19	1	4	-0.330641	4.0500002	3.8710001	-2.9100001
20	1	4	0.58187002	5.395	4.4530001	-3.089
21	1	5	-0.56496102	6.3769999	4.0599999	-2.404
22	1	4	-0.047529999	2.938	4.3850002	-3.7539999
23	1	6	0.20557299	3.138	5.1690001	-4.4749999
24	1	4	-0.22186799	1.692	3.9089999	-3.651
25	1	6	0.1927	0.912	4.3130002	-4.2859998
26	1	4	-0.15161	1.381	2.8429999	-2.681
27	1	4	-0.023523999	0.141	2.345	-2.5550001
28	1	6	0.213506	-0.662	2.7260001	-3.174
29	1	1	-0.123463	1.845	0.61799997	0.92000002
30	1	2	0.025830001	3.148	0.70099998	0.41100001
31	1	2	0.097860001	4.1529999	0.17200001	1.434
32	1	7	-0.67479199	5.461	0.31799999	0.95200002
33	1	8	0.40068901	5.5970001	-0.40000001	0.27900001
34	1	3	0.100443	4.0549998	0.75199997	2.3759999
35	1	3	0.100443	3.941	-0.89700001	1.663
36	1	3	0.102781	3.3759999	1.766	0.192
37	1	3	0.102781	3.23	0.12800001	-0.54100001
38	1	4	0.58187002	5.5479999	5.2350001	-3.822
39	1	5	-0.56496203	6.6609998	5.3109999	-4.408
40	1	4	-0.330641	4.4679999	6.191	-4.125
41	1	4	-0.047529999	3.286	6.0939999	-3.49
42	1	6	0.20557299	3.115	5.3179998	-2.753
43	1	4	-0.22186799	2.1960001	7.046	-3.786
44	1	6	0.1927	1.253	6.9489999	-3.2620001
45	1	4	-0.15161	2.3800001	8.0170002	-4.6929998
46	1	4	-0.019121001	1.316	8.9870005	-5.0159998
47	1	6	0.213506	0.36399999	8.908	-4.5029998
48	1	4	-0.261195	1.522	9.9549999	-5.9310002
49	1	4	0.83400297	0.447	10.923	-6.2470002
50	1	5	-0.51627201	0.639	11.828	-7.1030002
51	1	7	-0.67145503	-0.787	10.846	-5.6040001
52	1	8	0.40876001	-1.526	11.505	-5.816
53	1	4	-0.072910003	2.8329999	10.059	-6.6339998
54	1	6	0.22331899	2.987	10.841	-7.3670001
55	1	4	-0.22758099	3.8399999	9.2110004	-6.3870001
56	1	6	0.1927	4.776	9.3249998	-6.9219999
57	1	4	-0.12873299	3.678	8.132	-5.3979998
58	1	4	0.015873	4.6690001	7.2670002	-5.1300001
59	1	6	0.20278899	5.618	7.3530002	-5.6469998

Bonds

1	1	1	2
2	2	1	29
3	3	2	3
4	4	2	7
5	4	2	8
6	1	3	4
7	4	3	5
8	4	3	6
9	5	4	9
10	6	9	10
11	7	9	11
12	8	11	12
13	8	11	27
14	9	12	13
15	8	12	14
16	9	14	15
17	8	14	16
18	8	16	17
19	8	16	26
20	9	17	18
21	8	17	19
22	7	19	20
23	8	19	22
24	6	20	21
25	7	20	38
26	9	22	23
27	8	22	24
28	9	24	25
29	8	24	26
30	8	26	27
31	9	27	28
32	1	29	30
33	3	30	31
34	4	30	36
35	4	30	37
36	10	31	32
37	4	31	34
38	4	31	35
39	11	32	33
40	6	38	39
41	7	38	40
42	8	40	41
43	8	40	58
44	9	41	42
45	8	41	43
46	9	43	44
47	8	43	45
48	8	45	46
49	8	45	57
50	9	46	47
51	8	46	48
52	7	48	49
53	8	48	53
54	6	49	50
55	12	49	51
56	11	51	52
57	9	53	54
58	8	53	55
59	9	55	56
60	8	55	57
61	8	57	58
62	9	58	59

Angles

1	4	10	9	11
2	2	31	32	33
3	4	45	46	48
4	6	16	17	18
5	1	30	31	35
6	6	47	46	48
7	4	45	57	55
8	5	36	30	37
9	4	14	16	17
10	6	26	27	28
11	1	3	2	7
12	4	16	17	19
13	6	11	27	28
14	4	46	48	53
15	2	2	1	29
16	3	4	9	10
17	5	34	31	35
18	1	4	3	6
19	6	40	58	59
20	4	43	45	46
21	4	46	48	49
22	1	30	31	32
23	6	22	24	25
24	1	3	2	8
25	4	20	38	40
26	2	1	29	30
27	4	38	40	41
28	6	41	43	44
29	3	50	49	51
30	4	9	11	27
31	1	1	2	7
32	4	48	49	50
33	6	54	53	55
34	4	12	11	27
35	6	13	12	14
36	4	17	19	20
37	6	11	12	13
38	1	2	3	4
39	6	12	14	15
40	4	14	16	26
41	4	19	20	21
42	1	1	2	8
43	4	21	20	38
44	4	11	27	26
45	6	18	17	19
46	4	11	12	14
47	1	2	3	5
48	4	9	11	12
49	6	40	41	42
50	4	4	9	11
51	4	17	16	26
52	4	19	20	38
53	6	53	55	56
54	5	5	3	6
55	6	15	14	16
56	1	29	30	31
57	4	40	41	43
58	4	16	26	27
59	4	39	38	40
60	4	55	57	58
61	4	22	24	26
62	1	29	30	36
63	2	3	4	9
64	4	53	55	57
65	5	7	2	8
66	4	24	26	27
67	6	48	53	54
68	4	41	43	45
69	4	48	49	51
70	4	38	40	58
71	1	4	3	5
72	6	45	46	47
73	1	30	31	34
74	6	56	55	57
75	6	57	58	59
76	4	49	48	53
77	4	16	26	24
78	6	25	24	26
79	4	12	14	16
80	6	44	43	45
81	4	40	58	57
82	6	23	22	24
83	2	49	51	52
84	6	42	41	43
85	4	17	19	22
86	6	19	22	23
87	1	32	31	34
88	4	46	45	57
89	1	31	30	36
90	4	20	38	39
91	1	1	2	3
92	4	45	57	58
93	4	20	19	22
94	4	19	22	24
95	4	41	40	58
96	4	43	45	57
97	1	32	31	35
98	1	29	30	37
99	1	2	3	6
100	1	31	30	37
101	4	48	53	55

Dihedrals

1	14	20	19	22	23
2	14	41	40	58	59
3	14	12	14	16	26
4	14	45	57	55	56
5	14	46	45	57	55
6	13	35	31	30	37
7	12	17	19	20	38
8	3	4	3	2	7
8	4	4	3	2	7
9	14	14	16	26	27
10	14	46	48	53	54
11	14	19	22	24	25
12	14	44	43	45	57
13	14	14	12	11	27
14	14	20	19	22	24
15	3	1	2	3	6
15	4	1	2	3	6
16	14	42	41	40	58
17	12	20	38	40	41
18	14	18	17	19	20
19	13	5	3	2	8
20	5	8	2	1	29
21	14	38	40	41	42
22	12	19	20	38	39
23	14	16	26	27	28
24	3	4	3	2	8
24	4	4	3	2	8
25	14	46	48	53	55
26	14	23	22	24	26
27	14	19	22	24	26
28	14	12	11	27	28
29	14	24	26	27	28
30	14	17	19	22	24
31	14	40	41	43	44
32	11	3	4	9	11
33	14	40	58	57	45
34	14	55	57	58	59
35	17	33	32	31	34
36	12	21	20	19	22
37	5	5	3	4	9
38	14	14	16	26	24
39	12	21	20	38	39
40	14	43	45	46	47
41	14	38	40	41	43
42	12	20	38	40	58
43	12	39	38	40	58
44	14	16	17	19	20
45	14	48	53	55	56
46	14	45	57	58	59
47	14	15	14	16	17
48	14	11	27	26	16
49	12	4	9	11	27
50	12	21	20	38	40
51	14	11	12	14	16
52	19	50	49	51	52
52	20	50	49	51	52
53	14	54	53	55	57
54	3	29	30	31	34
54	4	29	30	31	34
55	14	17	16	26	24
56	14	19	17	16	26
57	14	14	16	17	19
58	14	49	48	53	54
59	14	44	43	45	46
60	15	30	31	32	33
60	16	30	31	32	33
61	14	25	24	26	27
62	14	38	40	58	59
63	13	6	3	2	7
64	14	16	26	24	25
65	3	29	30	31	35
65	4	29	30	31	35
66	12	46	48	49	50
67	14	45	57	55	53
68	14	11	27	26	24
69	12	10	9	11	12
70	5	1	29	30	31
71	12	51	49	48	53
72	1	1	2	3	4
72	2	1	2	3	4
73	14	43	45	57	58
74	12	4	9	11	12
75	14	42	41	43	44
76	14	43	41	40	58
77	5	3	2	1	29
78	5	1	29	30	36
79	12	19	20	38	40
80	14	41	40	58	57
81	14	13	12	11	27
82	3	32	31	30	36
82	4	32	31	30	36
83	12	46	48	49	51
84	12	50	49	48	53
85	14	9	11	27	28
86	14	15	14	16	26
87	14	40	41	43	45
88	12	10	9	11	27
89	3	1	2	3	5
89	4	1	2	3	5
90	17	33	32	31	35
91	5	6	3	4	9
92	6	2	1	29	30
93	14	16	26	24	22
94	14	18	17	19	22
95	14	53	55	57	58
96	1	29	30	31	32
96	2	29	30	31	32
97	14	13	12	14	15
98	14	43	45	46	48
99	14	46	45	57	58
100	12	22	19	20	38
101	14	43	45	57	55
102	14	47	46	45	57
103	14	18	17	16	26
104	3	32	31	30	37
104	4	32	31	30	37
105	14	48	53	55	57
106	12	17	19	20	21
107	13	35	31	30	36
108	14	12	11	27	26
109	14	9	11	12	13
110	14	49	48	53	55
111	14	45	46	48	53
112	14	16	17	19	22
113	14	22	24	26	27
114	14	12	14	16	17
115	13	5	3	2	7
116	13	6	3	2	8
117	14	23	22	24	25
118	14	45	46	48	49
119	14	40	58	57	55
120	14	9	11	27	26
121	14	17	19	22	23
122	14	9	11	12	14
123	13	34	31	30	36
124	14	42	41	43	45
125	5	7	2	1	29
126	5	1	29	30	37
127	12	39	38	40	41
128	9	3	4	9	10
128	10	3	4	9	10
129	14	48	46	45	57
130	18	48	49	51	52
131	14	41	43	45	57
132	14	17	16	26	27
133	7	2	3	4	9
133	8	2	3	4	9
134	14	47	46	48	53
135	14	41	43	45	46
136	14	38	40	58	57
137	13	34	31	30	37
138	14	56	55	57	58
139	14	11	12	14	15
140	14	54	53	55	56
141	14	13	12	14	16
142	14	47	46	48	49
143	14	14	16	17	18

Impropers

1	1	9	11	4	10
2	2	48	46	49	53
4	2	19	17	20	22
11	2	43	44	45	41
14	2	27	26	28	11
16	2	24	25	26	22
17	2	53	54	55	48
21	2	26	24	27	16
22	2	12	14	11	13
24	2	26	27	16	24
25	2	16	14	17	26
34	2	22	19	23	24
37	2	17	18	19	16
39	2	12	11	13	14
41	2	57	58	45	55
42	2	14	12	15	16
52	1	9	4	10	11
53	2	20	21	38	19
55	2	22	24	19	23
64	2	46	48	45	47
67	2	16	26	14	17
68	2	38	20	39	40
73	2	19	20	22	17
75	1	49	48	50	51
79	2	43	41	44	45
82	2	22	23	24	19
85	2	27	11	26	28
88	1	49	50	51	48
95	2	20	19	21	38
98	2	53	48	54	55
102	2	43	45	41	44
103	2	11	9	12	27
109	2	41	43	40	42
110	2	17	19	16	18
114	2	48	49	53	46
115	2	45	57	43	46
117	2	12	13	14	11
123	2	27	28	11	26
127	2	41	42	43	40
128	2	16	17	26	14
131	2	55	57	53	56
133	2	11	12	27	9
134	1	9	10	11	4
141	2	24	26	22	25
148	2	14	16	12	15
152	2	38	40	20	39
153	2	55	56	57	53
157	2	11	27	9	12
159	2	17	16	18	19
169	2	55	53	56	57
178	2	58	40	57	59
182	2	57	45	55	58
187	2	46	47	48	45
189	2	40	58	38	41
196	2	38	39	40	20
200	2	20	38	19	21
201	2	48	53	46	49
202	2	14	15	16	12
207	2	41	40	42	43
210	2	45	43	46	57
216	1	49	51	48	50
217	2	26	16	24	27
219	2	57	55	58	45
220	2	40	38	41	58
226	2	24	22	25	26
228	2	40	41	58	38
229	2	58	59	40	57
230	2	58	57	59	40
232	2	45	46	57	43
235	2	53	55	48	54
238	2	46	45	47	48
240	2	19	22	17	20
