Title

82 atoms
87 bonds
154 angles
267 dihedrals
78 impropers

9 atom types
13 bond types
6 angle types
13 dihedral types
2 improper types
-8.088999748 91.91100025 xlo xhi
-10.18400002 89.81599998 ylo yhi
-8.121999741 91.87800026 zlo zhi
0.0 0.0 0.0 xy xz yz

Masses

1	15.99943
2	12.01078
3	1.007947
4	12.01078
5	1.007947
6	15.99943
7	15.99943
8	1.007947
9	35.4532


Pair Coeffs

1	0.16846514	3.0251065
2	0.086879315	3.4806469
3	0.015611343	2.5725815
4	0.10884061	3.3795318
5	0.015779483	2.6445434
6	0.2102061	3.0398122
7	0.20947353	2.99716
8	1.2326e-05	0.53453923
9	0.2656001	3.3075278

Bond Coeffs

1 harmonic	425.69104206635	1.362945806494
2 harmonic	300.03137914615	1.451203938761
3 harmonic	360.7852444772	1.387193227181
4 harmonic	397.2545789619	1.085358495916
5 harmonic	289.73813263395	1.498646816465
6 harmonic	264.62148576755	1.52190126495
7 harmonic	301.15400723785	1.345741232799
8 harmonic	370.04670688625	1.093899492634
9 harmonic	582.698766451	1.225198386222
10 harmonic	279.1350963404	1.454628925034
11 harmonic	385.7604595587	1.369745182308
12 harmonic	543.5267831885	0.9716763312559
13 harmonic	218.0227703685	1.746066037062


Angle Coeffs

1 harmonic	57.8982893754	126.8062420451
2 harmonic	65.09061609600001	110.3538806181
3 harmonic	34.066775159195	129.1835929926
4 harmonic	53.20531626545	116.5475862634
5 harmonic	201.41175231035	127.4691416191
6 harmonic	48.776492647595	115.6030999533


Dihedral Coeffs

1 fourier 1	3.661930099076	2	180
2 fourier 1	1.532232714475	2	180
3 fourier 1	0.457973137376	1	0
4 fourier 1	0.02664938770063	3	0
5 fourier 1	0.1155372516788	3	0
6 fourier 1	0.1040663847541	3	0
7 fourier 1	0.09223874044423	3	0
8 fourier 1	0.3159935921949	2	180
9 fourier 1	0.3247796806857	1	180
10 fourier 1	2.779853741805	2	180
11 fourier 1	0.9974165607242	2	180
12 fourier 1	0.1911926717192	3	0
13 fourier 1	0.8283030590042	2	180


Improper Coeffs

1 0.3666666666666667	-1	2
2 3.5	-1	2


Atoms

1	1	1	-0.030766999	-4.2859998	-2.971	1.785
2	1	2	0.27457699	-3.2720001	-2.145	1.306
3	1	2	-0.313173	-2.1900001	-1.918	2.0550001
4	1	3	0.220791	-2.099	-2.3699999	3.0339999
5	1	2	-0.185461	-1.11	-1.044	1.5549999
6	1	3	0.20830099	-0.257	-0.87	2.1989999
7	1	2	-0.19701201	-1.177	-0.47499999	0.329
8	1	4	0.012397	-0.030999999	0.45500001	-0.134
9	1	2	-0.19701201	1.306	-0.30700001	0.025
10	1	2	-0.187895	1.441	-1.528	-0.54299998
11	1	3	0.20830099	0.61900002	-1.98	-1.085
12	1	2	-0.26746899	2.7049999	-2.2839999	-0.44400001
13	1	3	0.22106101	2.773	-3.2650001	-0.89700001
14	1	2	0.43577501	3.756	-1.758	0.198
15	1	1	-0.44361201	4.9559999	-2.4579999	0.301
16	1	2	-0.26746899	3.6440001	-0.41800001	0.80199999
17	1	3	0.22106101	4.4970002	0.013	1.311
18	1	2	-0.187896	2.4979999	0.271	0.72000003
19	1	3	0.20830099	2.474	1.25	1.171
20	1	4	-0.131789	-0.122	1.743	0.75999999
21	1	5	0.104372	-1.188	1.966	0.99599999
22	1	5	0.104372	0.36000001	1.59	1.749
23	1	4	-0.131566	0.44499999	2.993	0.068999998
24	1	5	0.105384	0.419	3.852	0.77399999
25	1	5	0.105384	1.506	2.822	-0.20999999
26	1	4	-0.153228	-0.35800001	3.346	-1.198
27	1	5	0.10825	-1.171	4.0570002	-0.935
28	1	5	0.10825	0.31600001	3.865	-1.914
29	1	4	-0.131566	-0.98100001	2.1140001	-1.882
30	1	5	0.105384	-2.0050001	1.957	-1.483
31	1	5	0.105384	-1.074	2.3039999	-2.973
32	1	4	-0.131789	-0.131	0.85500002	-1.65
33	1	5	0.104372	0.884	1.08	-2.0510001
34	1	5	0.104372	-0.50099999	0.013	-2.273
35	1	2	-0.185461	-2.4059999	-0.727	-0.48699999
36	1	3	0.20830099	-2.543	-0.285	-1.461
37	1	2	-0.313173	-3.385	-1.516	-0.025
38	1	3	0.220791	-4.2659998	-1.6900001	-0.62900001
39	1	2	0.62649399	5.0760002	-3.4130001	-0.116
40	1	6	-0.508322	6.0549998	-4.0830002	0.167
41	1	1	-0.030766999	-5.1160002	-3.1559999	1.235
42	1	2	0.27457699	-5.0669999	-3.9809999	0.114
43	1	2	-0.313173	-6.178	-4.2090001	-0.59200001
44	1	3	0.220791	-7.1160002	-3.756	-0.29499999
45	1	2	-0.185461	-6.1370001	-5.0819998	-1.7819999
46	1	3	0.20830099	-7.0619998	-5.256	-2.3180001
47	1	2	-0.19701201	-4.9809999	-5.651	-2.1960001
48	1	4	0.012397	-4.9990001	-6.5819998	-3.4319999
49	1	2	-0.19701201	-5.664	-5.8200002	-4.6020002
50	1	2	-0.147756	-5.1939998	-4.599	-4.947
51	1	3	0.20830099	-4.375	-4.1469998	-4.4000001
52	1	2	-0.408811	-5.776	-3.8429999	-6.073
53	1	3	0.225471	-5.3850002	-2.862	-6.3119998
54	1	2	0.423143	-6.7750001	-4.369	-6.7919998
55	1	7	-0.65205598	-7.3369999	-3.6689999	-7.8590002
56	1	8	0.43169701	-7.0100002	-2.7460001	-8.1219997
57	1	2	-0.408811	-7.289	-5.7090001	-6.4549999
58	1	3	0.225471	-8.0889997	-6.1399999	-7.0440001
59	1	2	-0.147756	-6.7680001	-6.3979998	-5.4310002
60	1	3	0.20830099	-7.1750002	-7.3769999	-5.2340002
61	1	4	-0.131789	-5.7880001	-7.8699999	-3.0009999
62	1	5	0.104372	-5.5910001	-8.0930004	-1.927
63	1	5	0.104372	-6.8860002	-7.717	-3.0610001
64	1	4	-0.131566	-5.3709998	-9.1199999	-3.7909999
65	1	5	0.105384	-6.0110002	-9.9779997	-3.494
66	1	5	0.105384	-5.526	-8.9490004	-4.8769999
67	1	4	-0.153228	-3.892	-9.4729996	-3.5439999
68	1	5	0.10825	-3.819	-10.184	-2.6919999
69	1	5	0.10825	-3.494	-9.9919996	-4.4429998
70	1	4	-0.131566	-3.0190001	-8.2410002	-3.2349999
71	1	5	0.105384	-2.99	-8.0839996	-2.1359999
72	1	5	0.105384	-1.978	-8.4309998	-3.573
73	1	4	-0.131789	-3.563	-6.9819999	-3.928
74	1	5	0.104372	-3.5880001	-7.2069998	-5.0190001
75	1	5	0.104372	-2.845	-6.1399999	-3.8299999
76	1	2	-0.185461	-3.7520001	-5.4000001	-1.38
77	1	3	0.20830099	-2.8010001	-5.842	-1.632
78	1	2	-0.313173	-3.7969999	-4.6110001	-0.29899999
79	1	3	0.220791	-2.898	-4.4369998	0.27900001
80	1	2	0.46603999	4.3299999	-3.8039999	-0.79799998
81	1	6	-0.58820897	3.309	-3.1730001	-1.013
82	1	9	-0.090732999	4.5910001	-5.3449998	-1.594

Bonds

1	1	1	2
2	2	1	41
3	3	2	3
4	3	2	37
5	4	3	4
6	3	3	5
7	4	5	6
8	3	5	7
9	5	7	8
10	3	7	35
11	5	8	9
12	6	8	20
13	6	8	32
14	3	9	10
15	3	9	18
16	4	10	11
17	3	10	12
18	4	12	13
19	3	12	14
20	1	14	15
21	3	14	16
22	7	15	39
23	4	16	17
24	3	16	18
25	4	18	19
26	8	20	21
27	8	20	22
28	6	20	23
29	8	23	24
30	8	23	25
31	6	23	26
32	8	26	27
33	8	26	28
34	6	26	29
35	8	29	30
36	8	29	31
37	6	29	32
38	8	32	33
39	8	32	34
40	4	35	36
41	3	35	37
42	4	37	38
43	9	39	40
44	10	39	80
45	1	41	42
46	3	42	43
47	3	42	78
48	4	43	44
49	3	43	45
50	4	45	46
51	3	45	47
52	5	47	48
53	3	47	76
54	5	48	49
55	6	48	61
56	6	48	73
57	3	49	50
58	3	49	59
59	4	50	51
60	3	50	52
61	4	52	53
62	3	52	54
63	11	54	55
64	3	54	57
65	12	55	56
66	4	57	58
67	3	57	59
68	4	59	60
69	8	61	62
70	8	61	63
71	6	61	64
72	8	64	65
73	8	64	66
74	6	64	67
75	8	67	68
76	8	67	69
77	6	67	70
78	8	70	71
79	8	70	72
80	6	70	73
81	8	73	74
82	8	73	75
83	4	76	77
84	3	76	78
85	4	78	79
86	9	80	81
87	13	80	82

Angles

1	1	2	3	5
2	3	17	16	18
3	1	12	14	15
4	3	3	5	6
5	4	64	67	69
6	4	28	26	29
7	4	48	73	70
8	4	23	26	28
9	1	41	42	78
10	4	29	32	34
11	3	49	59	60
12	1	14	16	18
13	6	62	61	63
14	3	57	59	60
15	1	8	9	18
16	3	76	78	79
17	3	10	12	13
18	2	2	1	41
19	3	54	57	58
20	2	14	15	39
21	3	50	52	53
22	4	64	67	70
23	4	20	23	24
24	1	41	42	43
25	2	1	41	42
26	4	61	64	66
27	3	4	3	5
28	4	7	8	20
29	6	27	26	28
30	4	72	70	73
31	3	6	5	7
32	1	10	12	14
33	1	15	14	16
34	6	30	29	31
35	3	51	50	52
36	4	20	23	25
37	3	49	50	51
38	1	8	9	10
39	4	61	64	67
40	4	48	61	63
41	1	5	7	35
42	4	68	67	70
43	1	43	42	78
44	3	9	18	19
45	3	7	35	36
46	4	31	29	32
47	5	15	39	40
48	1	42	43	45
49	3	77	76	78
50	4	20	8	32
51	6	65	64	66
52	4	48	73	75
53	4	66	64	67
54	1	55	54	57
55	1	48	49	50
56	4	8	20	21
57	4	48	61	64
58	1	12	14	16
59	1	3	5	7
60	4	9	8	20
61	4	8	32	33
62	4	7	8	32
63	3	43	45	46
64	4	62	61	64
65	6	33	32	34
66	3	36	35	37
67	1	9	18	16
68	4	65	64	67
69	1	54	57	59
70	4	47	48	73
71	4	8	32	29
72	1	49	59	57
73	4	26	29	30
74	6	71	70	72
75	1	50	52	54
76	4	67	70	71
77	4	70	73	74
78	1	45	47	48
79	1	15	39	80
80	1	39	80	81
81	1	5	7	8
82	1	81	80	82
83	3	13	12	14
84	3	35	37	38
85	1	52	54	57
86	3	44	43	45
87	4	61	48	73
88	4	47	48	49
89	4	69	67	70
90	3	11	10	12
91	4	23	26	29
92	4	30	29	32
93	3	58	57	59
94	4	20	23	26
95	4	7	8	9
96	1	39	80	82
97	3	46	45	47
98	1	48	49	59
99	1	49	50	52
100	1	45	47	76
101	1	40	39	80
102	6	21	20	22
103	6	24	23	25
104	3	16	18	19
105	3	9	10	11
106	4	25	23	26
107	4	47	48	61
108	1	7	35	37
109	3	2	37	38
110	4	9	8	32
111	1	50	49	59
112	2	54	55	56
113	4	64	67	68
114	1	8	7	35
115	1	1	2	37
116	4	23	26	27
117	3	14	16	17
118	6	74	73	75
119	4	49	48	73
120	4	27	26	29
121	4	22	20	23
122	1	1	2	3
123	1	10	9	18
124	4	8	20	22
125	4	21	20	23
126	4	24	23	26
127	1	9	10	12
128	4	63	61	64
129	1	48	47	76
130	4	8	32	34
131	4	61	64	65
132	3	42	78	79
133	1	43	45	47
134	1	52	54	55
135	1	2	37	35
136	1	3	2	37
137	4	8	20	23
138	3	47	76	77
139	4	26	29	31
140	4	71	70	73
141	4	67	70	72
142	4	70	73	75
143	4	49	48	61
144	3	2	3	4
145	4	48	61	62
146	6	68	67	69
147	3	53	52	54
148	4	29	32	33
149	3	42	43	44
150	1	47	76	78
151	4	26	29	32
152	1	42	78	76
153	4	67	70	73
154	4	48	73	74

Dihedrals

1	1	48	49	50	52
2	12	62	61	64	66
3	12	68	67	70	72
4	1	1	2	37	38
5	5	7	8	32	33
6	1	7	35	37	38
7	1	6	5	7	8
8	6	8	32	29	30
9	2	14	15	39	40
10	5	9	8	20	23
11	11	40	39	80	81
12	2	3	2	1	41
13	12	21	20	23	24
14	5	49	48	61	64
15	1	55	54	57	58
16	1	8	9	18	16
17	4	10	9	8	32
18	6	48	73	70	72
19	12	69	67	70	71
20	6	23	26	29	30
21	1	44	43	45	47
22	5	7	8	32	29
23	6	63	61	64	67
24	12	22	20	23	24
25	1	4	3	2	37
26	6	8	20	23	25
27	1	41	42	78	76
28	1	42	43	45	46
29	6	62	61	48	73
30	6	48	61	64	65
31	1	12	14	16	17
32	12	65	64	67	68
33	6	8	32	29	31
34	4	73	48	47	76
35	12	21	20	23	25
36	5	49	48	73	74
37	1	55	54	57	59
38	1	50	52	54	55
39	6	24	23	26	29
40	2	1	41	42	43
41	1	15	14	16	18
42	6	23	26	29	31
43	1	51	50	52	54
44	1	1	2	37	35
45	1	17	16	18	19
46	1	53	52	54	55
47	5	49	48	73	70
48	5	47	48	73	75
49	1	50	49	59	57
50	6	25	23	26	29
51	7	8	20	23	26
51	8	8	20	23	26
51	9	8	20	23	26
52	1	42	43	45	47
53	1	8	7	35	36
54	1	12	14	16	18
55	6	48	61	64	66
56	10	14	15	39	80
57	6	64	67	70	72
58	1	8	9	10	11
59	1	43	42	78	79
60	12	24	23	26	27
61	2	12	14	15	39
62	6	22	20	8	32
63	1	9	18	16	17
64	6	61	64	67	69
65	1	11	10	9	18
66	1	45	47	76	78
67	12	25	23	26	27
68	4	5	7	8	20
69	1	46	45	47	76
70	6	20	8	32	33
71	1	44	43	42	78
72	1	58	57	59	60
73	5	9	8	32	33
74	1	51	50	49	59
75	7	64	67	70	73
75	8	64	67	70	73
75	9	64	67	70	73
76	5	7	8	20	22
77	5	47	48	61	63
78	4	18	9	8	20
79	1	52	54	57	58
80	6	63	61	48	73
81	6	62	61	64	67
82	6	68	67	70	73
83	7	20	8	32	29
83	8	20	8	32	29
83	9	20	8	32	29
84	1	49	50	52	53
85	5	9	8	32	29
86	5	7	8	32	34
87	7	61	64	67	70
87	8	61	64	67	70
87	9	61	64	67	70
88	11	40	39	80	82
89	1	11	10	12	13
90	13	56	55	54	57
91	1	10	12	14	15
92	1	42	78	76	47
93	1	43	42	78	76
94	1	45	43	42	78
95	6	20	8	32	34
96	1	10	9	18	19
97	7	64	61	48	73
97	8	64	61	48	73
97	9	64	61	48	73
98	12	30	29	32	33
99	1	13	12	14	15
100	1	5	7	35	36
101	4	49	48	47	76
102	5	7	8	20	23
103	12	69	67	70	72
104	12	28	26	29	30
105	5	47	48	61	64
106	1	9	18	16	14
107	12	22	20	23	25
108	4	47	48	49	50
109	12	66	64	67	68
110	12	72	70	73	74
111	1	52	54	57	59
112	1	46	45	47	48
113	12	71	70	73	74
114	12	27	26	29	30
115	12	65	64	67	69
116	1	14	16	18	19
117	1	3	5	7	35
118	7	20	23	26	29
118	8	20	23	26	29
118	9	20	23	26	29
119	6	21	20	23	26
120	5	49	48	73	75
121	12	31	29	32	33
122	1	12	10	9	18
123	3	2	1	41	42
124	6	69	67	70	73
125	1	1	2	3	4
126	7	23	26	29	32
126	8	23	26	29	32
126	9	23	26	29	32
127	12	28	26	29	31
128	5	9	8	20	21
129	1	2	37	35	7
130	12	71	70	73	75
131	4	5	7	8	32
132	5	49	48	61	62
133	1	8	7	35	37
134	1	3	2	37	38
135	7	48	61	64	67
135	8	48	61	64	67
135	9	48	61	64	67
136	6	65	64	67	70
137	2	37	2	1	41
138	4	18	9	8	32
139	12	63	61	64	65
140	4	45	47	48	73
141	1	8	9	10	12
142	11	15	39	80	81
143	6	61	48	73	74
144	1	43	45	47	76
145	12	24	23	26	28
146	1	50	52	54	57
147	4	32	8	7	35
148	1	48	49	50	51
149	4	61	48	47	76
150	12	62	61	64	65
151	12	68	67	70	71
152	1	77	76	78	79
153	6	67	70	73	74
154	7	8	32	29	26
154	8	8	32	29	26
154	9	8	32	29	26
155	7	23	20	8	32
155	8	23	20	8	32
155	9	23	20	8	32
156	1	9	10	12	13
157	12	25	23	26	28
158	6	21	20	8	32
159	7	61	48	73	70
159	8	61	48	73	70
159	9	61	48	73	70
160	1	5	3	2	37
161	4	7	8	9	18
162	5	9	8	32	34
163	4	47	48	49	59
164	1	48	49	59	60
165	6	48	73	70	71
166	1	36	35	37	38
167	1	44	43	45	46
168	4	45	47	48	49
169	4	59	49	48	61
170	12	63	61	64	66
171	11	15	39	80	82
172	4	50	49	48	73
173	6	61	48	73	75
174	1	42	78	76	77
175	6	8	20	23	24
176	1	3	5	7	8
177	1	47	76	78	79
178	1	49	50	52	54
179	1	3	2	37	35
180	6	67	70	73	75
181	4	5	7	8	9
182	7	48	73	70	67
182	8	48	73	70	67
182	9	48	73	70	67
183	2	16	14	15	39
184	1	43	45	47	48
185	1	6	5	7	35
186	1	9	10	12	14
187	1	11	10	12	14
188	1	10	12	14	16
189	1	50	49	59	60
190	1	2	37	35	36
191	4	45	47	48	61
192	12	30	29	32	34
193	1	13	12	14	16
194	1	5	7	35	37
195	4	59	49	48	73
196	4	10	9	8	20
197	2	1	41	42	78
198	1	15	14	16	17
199	1	51	50	52	53
200	1	2	3	5	6
201	6	22	20	23	26
202	1	41	42	43	44
203	12	66	64	67	69
204	12	72	70	73	75
205	6	26	29	32	33
206	1	4	3	5	6
207	1	52	50	49	59
208	12	27	26	29	31
209	5	47	48	73	74
210	1	48	47	76	77
211	1	10	9	18	16
212	4	20	8	7	35
213	4	9	8	7	35
214	4	7	8	9	10
215	6	20	23	26	27
216	1	48	49	59	57
217	6	64	67	70	71
218	12	31	29	32	34
219	1	8	9	18	19
220	5	47	48	73	70
221	4	50	49	48	61
222	1	1	2	3	5
223	1	2	3	5	7
224	6	28	26	29	32
225	1	49	59	57	58
226	1	53	52	54	57
227	1	41	42	43	45
228	6	61	64	67	68
229	1	54	57	59	60
230	5	9	8	20	22
231	6	66	64	67	70
232	5	49	48	61	63
233	6	26	29	32	34
234	1	4	3	5	7
235	1	45	47	76	77
236	6	27	26	29	32
237	1	48	47	76	78
238	1	41	42	78	79
239	6	20	23	26	28
240	5	7	8	20	21
241	1	49	59	57	54
242	13	52	54	55	56
243	5	47	48	61	62

Impropers

2	1	3	2	4	5
9	1	9	10	18	8
12	1	45	46	47	43
17	1	12	13	14	10
18	1	78	42	76	79
25	1	80	82	39	81
31	1	54	52	55	57
34	1	57	54	58	59
35	1	59	57	60	49
37	1	54	55	57	52
84	1	7	35	5	8
98	1	5	3	6	7
99	1	45	43	46	47
100	1	76	78	47	77
102	1	49	50	59	48
104	1	54	57	52	55
105	1	2	37	1	3
111	1	18	19	9	16
127	2	39	80	15	40
133	1	7	5	8	35
150	1	2	3	37	1
160	1	78	76	79	42
164	1	47	45	48	76
169	1	35	37	7	36
187	1	59	60	49	57
203	1	80	39	81	82
204	1	16	18	14	17
205	1	42	78	41	43
206	1	18	9	16	19
207	1	14	15	16	12
215	1	80	81	82	39
226	1	78	79	42	76
236	1	49	59	48	50
237	2	39	40	80	15
241	1	9	8	10	18
247	1	3	5	2	4
248	1	5	7	3	6
254	1	76	47	77	78
260	1	14	16	12	15
261	1	37	2	35	38
268	1	14	12	15	16
270	1	37	38	2	35
273	1	42	41	43	78
279	1	3	4	5	2
288	1	12	10	13	14
289	1	42	43	78	41
292	1	5	6	7	3
298	1	10	11	12	9
299	1	59	49	57	60
307	1	10	12	9	11
308	1	43	44	45	42
311	1	9	18	8	10
314	1	50	49	51	52
322	1	52	54	50	53
327	1	43	45	42	44
336	1	50	52	49	51
339	1	12	14	10	13
341	1	35	36	37	7
344	1	45	47	43	46
349	1	10	9	11	12
357	1	2	1	3	37
359	1	52	53	54	50
361	2	39	15	40	80
375	1	57	59	54	58
378	1	7	8	35	5
382	1	47	76	45	48
387	1	35	7	36	37
399	1	43	42	44	45
404	1	76	77	78	47
406	1	52	50	53	54
414	1	16	14	17	18
423	1	49	48	50	59
425	1	47	48	76	45
433	1	50	51	52	49
434	1	16	17	18	14
437	1	57	58	59	54
438	1	37	35	38	2
442	1	18	16	19	9
