Title

82 atoms
87 bonds
154 angles
267 dihedrals
78 impropers

9 atom types
13 bond types
6 angle types
13 dihedral types
2 improper types
-8.088999748 91.91100025 xlo xhi
-10.18400002 89.81599998 ylo yhi
-8.121999741 91.87800026 zlo zhi
0.0 0.0 0.0 xy xz yz

Masses

1	15.99943
2	12.01078
3	1.007947
4	12.01078
5	1.007947
6	15.99943
7	15.99943
8	1.007947
9	35.4532


Pair Coeffs

1	0.16846514	3.0251065
2	0.086879315	3.4806469
3	0.015611343	2.5725815
4	0.10884061	3.3795318
5	0.015779483	2.6445434
6	0.2102061	3.0398122
7	0.20947353	2.99716
8	1.2326e-05	0.53453923
9	0.2656001	3.3075278

Bond Coeffs

1 harmonic	425.69104206635	1.362945806494
2 harmonic	300.03137914615	1.451203938761
3 harmonic	360.7852444772	1.387193227181
4 harmonic	397.2545789619	1.085358495916
5 harmonic	289.73813263395	1.498646816465
6 harmonic	264.62148576755	1.52190126495
7 harmonic	301.15400723785	1.345741232799
8 harmonic	370.04670688625	1.093899492634
9 harmonic	582.698766451	1.225198386222
10 harmonic	279.1350963404	1.454628925034
11 harmonic	385.7604595587	1.369745182308
12 harmonic	543.5267831885	0.9716763312559
13 harmonic	218.0227703685	1.746066037062


Angle Coeffs

1 harmonic	57.8982893754	126.8062420451
2 harmonic	65.09061609600001	110.3538806181
3 harmonic	34.066775159195	129.1835929926
4 harmonic	53.20531626545	116.5475862634
5 harmonic	201.41175231035	127.4691416191
6 harmonic	48.776492647595	115.6030999533


Dihedral Coeffs

1 fourier 1	3.661930099076	2	180
2 fourier 1	1.532232714475	2	180
3 fourier 1	0.457973137376	1	0
4 fourier 1	0.02664938770063	3	0
5 fourier 1	0.1155372516788	3	0
6 fourier 1	0.1040663847541	3	0
7 fourier 1	0.09223874044423	3	0
8 fourier 1	0.3159935921949	2	180
9 fourier 1	0.3247796806857	1	180
10 fourier 1	2.779853741805	2	180
11 fourier 1	0.9974165607242	2	180
12 fourier 1	0.1911926717192	3	0
13 fourier 1	0.8283030590042	2	180


Improper Coeffs

1 0.3666666666666667	-1	2
2 3.5	-1	2


Atoms

1	1	1	-0.030766999	-4.2859998	-2.971	1.785
2	1	2	0.27457699	-3.2720001	-2.145	1.306
3	1	2	-0.313173	-2.1900001	-1.918	2.0550001
4	1	3	0.220791	-2.099	-2.3699999	3.0339999
5	1	2	-0.185461	-1.11	-1.044	1.5549999
6	1	3	0.20830099	-0.257	-0.87	2.1989999
7	1	2	-0.19701201	-1.177	-0.47499999	0.329
8	1	4	0.012397	-0.030999999	0.45500001	-0.134
9	1	2	-0.19701201	1.306	-0.30700001	0.025
10	1	2	-0.187895	1.441	-1.528	-0.54299998
11	1	3	0.20830099	0.61900002	-1.98	-1.085
12	1	2	-0.26746899	2.7049999	-2.2839999	-0.44400001
13	1	3	0.22106101	2.773	-3.2650001	-0.89700001
14	1	2	0.43577501	3.756	-1.758	0.198
15	1	1	-0.44361201	4.9559999	-2.4579999	0.301
16	1	2	-0.26746899	3.6440001	-0.41800001	0.80199999
17	1	3	0.22106101	4.4970002	0.013	1.311
18	1	2	-0.187896	2.4979999	0.271	0.72000003
19	1	3	0.20830099	2.474	1.25	1.171
20	1	4	-0.131789	-0.122	1.743	0.75999999
21	1	5	0.104372	-1.188	1.966	0.99599999
22	1	5	0.104372	0.36000001	1.59	1.749
23	1	4	-0.131566	0.44499999	2.993	0.068999998
24	1	5	0.105384	0.419	3.852	0.77399999
25	1	5	0.105384	1.506	2.822	-0.20999999
26	1	4	-0.153228	-0.35800001	3.346	-1.198
27	1	5	0.10825	-1.171	4.0570002	-0.935
28	1	5	0.10825	0.31600001	3.865	-1.914
29	1	4	-0.131566	-0.98100001	2.1140001	-1.882
30	1	5	0.105384	-2.0050001	1.957	-1.483
31	1	5	0.105384	-1.074	2.3039999	-2.973
32	1	4	-0.131789	-0.131	0.85500002	-1.65
33	1	5	0.104372	0.884	1.08	-2.0510001
34	1	5	0.104372	-0.50099999	0.013	-2.273
35	1	2	-0.185461	-2.4059999	-0.727	-0.48699999
36	1	3	0.20830099	-2.543	-0.285	-1.461
37	1	2	-0.313173	-3.385	-1.516	-0.025
38	1	3	0.220791	-4.2659998	-1.6900001	-0.62900001
39	1	2	0.62649399	5.0760002	-3.4130001	-0.116
40	1	6	-0.508322	6.0549998	-4.0830002	0.167
41	1	1	-0.030766999	-5.1160002	-3.1559999	1.235
42	1	2	0.27457699	-5.0669999	-3.9809999	0.114
43	1	2	-0.313173	-6.178	-4.2090001	-0.59200001
44	1	3	0.220791	-7.1160002	-3.756	-0.29499999
45	1	2	-0.185461	-6.1370001	-5.0819998	-1.7819999
46	1	3	0.20830099	-7.0619998	-5.256	-2.3180001
47	1	2	-0.19701201	-4.9809999	-5.651	-2.1960001
48	1	4	0.012397	-4.9990001	-6.5819998	-3.4319999
49	1	2	-0.19701201	-5.664	-5.8200002	-4.6020002
50	1	2	-0.147756	-5.1939998	-4.599	-4.947
51	1	3	0.20830099	-4.375	-4.1469998	-4.4000001
52	1	2	-0.408811	-5.776	-3.8429999	-6.073
53	1	3	0.225471	-5.3850002	-2.862	-6.3119998
54	1	2	0.423143	-6.7750001	-4.369	-6.7919998
55	1	7	-0.65205598	-7.3369999	-3.6689999	-7.8590002
56	1	8	0.43169701	-7.0100002	-2.7460001	-8.1219997
57	1	2	-0.408811	-7.289	-5.7090001	-6.4549999
58	1	3	0.225471	-8.0889997	-6.1399999	-7.0440001
59	1	2	-0.147756	-6.7680001	-6.3979998	-5.4310002
60	1	3	0.20830099	-7.1750002	-7.3769999	-5.2340002
61	1	4	-0.131789	-5.7880001	-7.8699999	-3.0009999
62	1	5	0.104372	-5.5910001	-8.0930004	-1.927
63	1	5	0.104372	-6.8860002	-7.717	-3.0610001
64	1	4	-0.131566	-5.3709998	-9.1199999	-3.7909999
65	1	5	0.105384	-6.0110002	-9.9779997	-3.494
66	1	5	0.105384	-5.526	-8.9490004	-4.8769999
67	1	4	-0.153228	-3.892	-9.4729996	-3.5439999
68	1	5	0.10825	-3.819	-10.184	-2.6919999
69	1	5	0.10825	-3.494	-9.9919996	-4.4429998
70	1	4	-0.131566	-3.0190001	-8.2410002	-3.2349999
71	1	5	0.105384	-2.99	-8.0839996	-2.1359999
72	1	5	0.105384	-1.978	-8.4309998	-3.573
73	1	4	-0.131789	-3.563	-6.9819999	-3.928
74	1	5	0.104372	-3.5880001	-7.2069998	-5.0190001
75	1	5	0.104372	-2.845	-6.1399999	-3.8299999
76	1	2	-0.185461	-3.7520001	-5.4000001	-1.38
77	1	3	0.20830099	-2.8010001	-5.842	-1.632
78	1	2	-0.313173	-3.7969999	-4.6110001	-0.29899999
79	1	3	0.220791	-2.898	-4.4369998	0.27900001
80	1	2	0.46603999	4.3299999	-3.8039999	-0.79799998
81	1	6	-0.58820897	3.309	-3.1730001	-1.013
82	1	9	-0.090732999	4.5910001	-5.3449998	-1.594

Bonds

1	1	1	2
2	2	1	41
3	3	2	3
4	3	2	37
5	4	3	4
6	3	3	5
7	4	5	6
8	3	5	7
9	5	7	8
10	3	7	35
11	5	8	9
12	6	8	20
13	6	8	32
14	3	9	10
15	3	9	18
16	4	10	11
17	3	10	12
18	4	12	13
19	3	12	14
20	1	14	15
21	3	14	16
22	7	15	39
23	4	16	17
24	3	16	18
25	4	18	19
26	8	20	21
27	8	20	22
28	6	20	23
29	8	23	24
30	8	23	25
31	6	23	26
32	8	26	27
33	8	26	28
34	6	26	29
35	8	29	30
36	8	29	31
37	6	29	32
38	8	32	33
39	8	32	34
40	4	35	36
41	3	35	37
42	4	37	38
43	9	39	40
44	10	39	80
45	1	41	42
46	3	42	43
47	3	42	78
48	4	43	44
49	3	43	45
50	4	45	46
51	3	45	47
52	5	47	48
53	3	47	76
54	5	48	49
55	6	48	61
56	6	48	73
57	3	49	50
58	3	49	59
59	4	50	51
60	3	50	52
61	4	52	53
62	3	52	54
63	11	54	55
64	3	54	57
65	12	55	56
66	4	57	58
67	3	57	59
68	4	59	60
69	8	61	62
70	8	61	63
71	6	61	64
72	8	64	65
73	8	64	66
74	6	64	67
75	8	67	68
76	8	67	69
77	6	67	70
78	8	70	71
79	8	70	72
80	6	70	73
81	8	73	74
82	8	73	75
83	4	76	77
84	3	76	78
85	4	78	79
86	9	80	81
87	13	80	82

Angles

1	1	3	2	37
2	4	8	20	22
3	1	43	45	47
4	4	47	48	73
5	1	41	42	43
6	1	7	35	37
7	4	48	61	64
8	4	29	32	33
9	4	64	67	69
10	3	16	18	19
11	1	39	80	81
12	3	11	10	12
13	4	70	73	75
14	3	13	12	14
15	4	7	8	32
16	4	20	23	26
17	4	23	26	29
18	4	62	61	64
19	6	71	70	72
20	4	20	23	25
21	4	28	26	29
22	2	54	55	56
23	4	26	29	31
24	4	29	32	34
25	3	42	43	44
26	3	17	16	18
27	4	49	48	61
28	6	68	67	69
29	1	12	14	15
30	1	5	7	8
31	1	15	14	16
32	3	46	45	47
33	1	48	49	59
34	3	49	50	51
35	4	49	48	73
36	1	8	9	10
37	1	50	49	59
38	1	10	9	18
39	4	68	67	70
40	1	12	14	16
41	4	7	8	20
42	3	50	52	53
43	1	3	5	7
44	1	81	80	82
45	1	9	10	12
46	3	76	78	79
47	3	10	12	13
48	4	63	61	64
49	3	49	59	60
50	2	2	1	41
51	3	54	57	58
52	4	22	20	23
53	4	25	23	26
54	4	61	64	65
55	1	45	47	48
56	3	47	76	77
57	1	8	9	18
58	1	52	54	55
59	3	14	16	17
60	4	30	29	32
61	3	4	3	5
62	4	8	20	23
63	1	55	54	57
64	1	50	52	54
65	3	2	3	4
66	4	20	8	32
67	1	48	47	76
68	1	10	12	14
69	3	2	37	38
70	4	64	67	70
71	1	39	80	82
72	4	61	64	66
73	4	8	32	33
74	1	47	76	78
75	4	48	73	70
76	1	45	47	76
77	1	1	2	37
78	4	69	67	70
79	6	27	26	28
80	1	49	59	57
81	4	31	29	32
82	4	71	70	73
83	4	67	70	71
84	5	15	39	40
85	4	8	32	29
86	1	5	7	35
87	3	51	50	52
88	4	26	29	32
89	1	42	43	45
90	4	66	64	67
91	6	33	32	34
92	1	43	42	78
93	4	27	26	29
94	2	14	15	39
95	4	48	61	62
96	3	53	52	54
97	3	58	57	59
98	3	35	37	38
99	6	74	73	75
100	1	49	50	52
101	3	36	35	37
102	6	21	20	22
103	4	20	23	24
104	4	23	26	27
105	3	43	45	46
106	4	48	73	74
107	1	41	42	78
108	4	48	61	63
109	4	72	70	73
110	1	54	57	59
111	3	6	5	7
112	1	15	39	80
113	4	70	73	74
114	4	7	8	9
115	4	21	20	23
116	1	14	16	18
117	6	62	61	63
118	4	48	73	75
119	3	44	43	45
120	1	2	3	5
121	1	8	7	35
122	3	9	18	19
123	3	42	78	79
124	4	26	29	30
125	4	61	64	67
126	4	8	32	34
127	3	77	76	78
128	1	52	54	57
129	4	61	48	73
130	6	65	64	66
131	1	2	37	35
132	1	40	39	80
133	4	47	48	49
134	6	24	23	25
135	4	67	70	72
136	4	9	8	20
137	4	8	20	21
138	2	1	41	42
139	3	3	5	6
140	3	7	35	36
141	1	1	2	3
142	3	9	10	11
143	4	47	48	61
144	4	65	64	67
145	1	9	18	16
146	1	42	78	76
147	4	64	67	68
148	4	24	23	26
149	4	67	70	73
150	3	57	59	60
151	4	9	8	32
152	1	48	49	50
153	4	23	26	28
154	6	30	29	31

Dihedrals

1	5	9	8	32	33
2	1	77	76	78	79
3	1	50	52	54	55
4	6	8	20	23	25
5	5	9	8	20	22
6	6	48	73	70	72
7	1	3	2	37	35
8	12	25	23	26	27
9	1	51	50	52	53
10	5	9	8	32	29
11	12	66	64	67	69
12	1	12	14	16	18
13	12	62	61	64	65
14	1	45	47	76	77
15	5	47	48	73	70
16	6	21	20	8	32
17	12	71	70	73	74
18	6	61	64	67	68
19	5	9	8	32	34
20	2	37	2	1	41
21	1	8	9	18	16
22	4	49	48	47	76
23	13	56	55	54	57
24	1	2	3	5	6
25	4	7	8	9	10
26	4	47	48	49	50
27	1	51	50	52	54
28	5	7	8	32	29
29	13	52	54	55	56
30	12	31	29	32	33
31	12	63	61	64	66
32	6	66	64	67	70
33	2	12	14	15	39
34	12	62	61	64	66
35	1	4	3	2	37
36	1	45	47	76	78
37	12	72	70	73	75
38	1	42	43	45	47
39	12	68	67	70	71
40	12	71	70	73	75
41	5	47	48	61	62
42	4	7	8	9	18
43	1	9	10	12	14
44	1	43	42	78	79
45	6	20	8	32	33
46	1	51	50	49	59
47	12	65	64	67	69
48	6	67	70	73	74
49	1	41	42	43	44
50	12	24	23	26	27
51	1	17	16	18	19
52	1	50	49	59	60
53	1	6	5	7	35
54	6	8	32	29	31
55	12	31	29	32	34
56	6	63	61	64	67
57	1	48	49	50	51
58	6	22	20	23	26
59	7	20	8	32	29
59	8	20	8	32	29
59	9	20	8	32	29
60	6	22	20	8	32
61	5	47	48	73	74
62	12	69	67	70	72
63	6	48	61	64	65
64	6	26	29	32	33
65	1	44	43	42	78
66	12	68	67	70	72
67	5	47	48	61	63
68	12	30	29	32	33
69	1	10	9	18	19
70	6	20	23	26	28
71	1	52	54	57	58
72	5	49	48	73	74
73	1	49	50	52	54
74	1	48	49	59	60
75	4	9	8	7	35
76	12	21	20	23	24
77	12	24	23	26	28
78	12	27	26	29	30
79	1	36	35	37	38
80	4	73	48	47	76
81	5	7	8	32	33
82	7	8	20	23	26
82	8	8	20	23	26
82	9	8	20	23	26
83	4	18	9	8	20
84	4	47	48	49	59
85	1	53	52	54	57
86	1	43	42	78	76
87	5	49	48	73	70
88	5	47	48	73	75
89	5	9	8	20	23
90	1	10	12	14	15
91	1	11	10	9	18
92	6	69	67	70	73
93	12	25	23	26	28
94	1	41	42	78	79
95	1	5	7	35	36
96	12	28	26	29	30
97	6	23	26	29	30
98	5	7	8	32	34
99	4	18	9	8	32
100	11	15	39	80	81
101	6	61	64	67	69
102	6	64	67	70	71
103	1	50	52	54	57
104	1	8	7	35	36
105	1	48	47	76	77
106	1	52	50	49	59
107	12	65	64	67	68
108	4	5	7	8	20
109	1	2	3	5	7
110	1	10	12	14	16
111	5	7	8	20	21
112	1	48	49	59	57
113	6	25	23	26	29
114	4	59	49	48	73
115	5	49	48	61	62
116	3	2	1	41	42
117	1	1	2	3	4
118	4	10	9	8	32
119	1	1	2	37	38
120	12	28	26	29	31
121	6	62	61	64	67
122	1	4	3	5	6
123	1	46	45	47	48
124	6	63	61	48	73
125	6	64	67	70	72
126	7	61	64	67	70
126	8	61	64	67	70
126	9	61	64	67	70
127	4	5	7	8	32
128	1	41	42	78	76
129	1	8	7	35	37
130	1	42	78	76	77
131	4	45	47	48	49
132	1	48	47	76	78
133	11	40	39	80	81
134	6	20	8	32	34
135	1	3	5	7	8
136	4	61	48	47	76
137	5	7	8	20	22
138	6	61	48	73	74
139	1	41	42	43	45
140	6	67	70	73	75
141	5	49	48	61	63
142	1	1	2	3	5
143	1	48	49	50	52
144	6	8	20	23	24
145	1	54	57	59	60
146	7	61	48	73	70
146	8	61	48	73	70
146	9	61	48	73	70
147	1	9	18	16	17
148	1	2	37	35	36
149	1	15	14	16	17
150	4	32	8	7	35
151	7	23	20	8	32
151	8	23	20	8	32
151	9	23	20	8	32
152	6	48	61	64	66
153	6	26	29	32	34
154	2	1	41	42	78
155	1	46	45	47	76
156	1	6	5	7	8
157	1	14	16	18	19
158	4	45	47	48	61
159	5	47	48	61	64
160	1	50	49	59	57
161	6	68	67	70	73
162	12	30	29	32	34
163	1	44	43	45	46
164	4	59	49	48	61
165	1	8	9	18	19
166	7	20	23	26	29
166	8	20	23	26	29
166	9	20	23	26	29
167	1	52	54	57	59
168	12	66	64	67	68
169	5	49	48	73	75
170	4	10	9	8	20
171	12	21	20	23	25
172	12	27	26	29	31
173	6	24	23	26	29
174	2	3	2	1	41
175	1	10	9	18	16
176	1	15	14	16	18
177	4	45	47	48	73
178	1	49	59	57	58
179	7	48	61	64	67
179	8	48	61	64	67
179	9	48	61	64	67
180	1	11	10	12	13
181	2	1	41	42	43
182	1	43	45	47	48
183	4	20	8	7	35
184	1	5	7	35	37
185	1	44	43	45	47
186	12	63	61	64	65
187	10	14	15	39	80
188	6	21	20	23	26
189	1	9	18	16	14
190	12	22	20	23	24
191	1	8	9	10	11
192	6	23	26	29	31
193	6	27	26	29	32
194	1	49	59	57	54
195	4	50	49	48	61
196	12	72	70	73	74
197	2	16	14	15	39
198	1	42	43	45	46
199	11	15	39	80	82
200	1	7	35	37	38
201	6	62	61	48	73
202	1	47	76	78	79
203	1	9	10	12	13
204	1	2	37	35	7
205	2	14	15	39	40
206	1	3	2	37	38
207	1	11	10	12	14
208	1	13	12	14	15
209	7	64	61	48	73
209	8	64	61	48	73
209	9	64	61	48	73
210	1	45	43	42	78
211	6	8	32	29	30
212	1	43	45	47	76
213	1	55	54	57	58
214	1	5	3	2	37
215	1	58	57	59	60
216	4	50	49	48	73
217	1	53	52	54	55
218	6	28	26	29	32
219	7	23	26	29	32
219	8	23	26	29	32
219	9	23	26	29	32
220	1	3	5	7	35
221	12	22	20	23	25
222	1	4	3	5	7
223	1	8	9	10	12
224	5	9	8	20	21
225	6	48	73	70	71
226	12	69	67	70	71
227	4	5	7	8	9
228	7	64	67	70	73
228	8	64	67	70	73
228	9	64	67	70	73
229	7	8	32	29	26
229	8	8	32	29	26
229	9	8	32	29	26
230	6	65	64	67	70
231	6	61	48	73	75
232	6	20	23	26	27
233	11	40	39	80	82
234	1	49	50	52	53
235	5	7	8	20	23
236	1	1	2	37	35
237	1	12	14	16	17
238	1	13	12	14	16
239	7	48	73	70	67
239	8	48	73	70	67
239	9	48	73	70	67
240	5	49	48	61	64
241	1	55	54	57	59
242	1	12	10	9	18
243	1	42	78	76	47

Impropers

1	1	9	10	18	8
6	1	78	42	76	79
16	1	12	14	10	13
22	1	16	18	14	17
28	1	47	76	45	48
31	1	76	78	47	77
35	1	10	9	11	12
40	1	14	15	16	12
43	1	14	12	15	16
46	1	78	76	79	42
49	1	2	37	1	3
50	1	54	55	57	52
51	1	43	44	45	42
55	1	54	52	55	57
61	1	52	53	54	50
65	1	59	57	60	49
67	1	2	1	3	37
98	1	18	16	19	9
103	1	49	59	48	50
106	1	18	19	9	16
116	1	50	51	52	49
117	1	50	49	51	52
129	1	59	49	57	60
131	1	43	42	44	45
136	1	47	45	48	76
140	1	37	2	35	38
143	1	49	48	50	59
144	1	47	48	76	45
145	1	49	50	59	48
148	1	3	4	5	2
152	1	5	7	3	6
154	1	45	46	47	43
156	1	7	8	35	5
165	1	9	8	10	18
172	1	12	13	14	10
179	1	52	50	53	54
187	1	42	41	43	78
190	1	12	10	13	14
193	1	37	38	2	35
195	1	9	18	8	10
196	2	39	40	80	15
205	1	7	35	5	8
208	1	16	17	18	14
215	1	45	47	43	46
218	1	57	54	58	59
220	1	16	14	17	18
221	1	18	9	16	19
225	1	52	54	50	53
233	1	57	58	59	54
244	1	50	52	49	51
254	1	42	78	41	43
258	1	80	81	82	39
267	1	76	47	77	78
292	2	39	80	15	40
297	1	80	39	81	82
298	2	39	15	40	80
300	1	5	3	6	7
305	1	35	36	37	7
306	1	54	57	52	55
322	1	80	82	39	81
324	1	10	11	12	9
326	1	35	37	7	36
338	1	3	2	4	5
343	1	5	6	7	3
347	1	14	16	12	15
349	1	10	12	9	11
362	1	43	45	42	44
369	1	7	5	8	35
376	1	59	60	49	57
380	1	57	59	54	58
382	1	35	7	36	37
398	1	78	79	42	76
410	1	3	5	2	4
411	1	2	3	37	1
417	1	42	43	78	41
433	1	37	35	38	2
437	1	45	43	46	47
440	1	76	77	78	47
