Title

8500 atoms
8375 bonds
15000 angles
27750 dihedrals
2250 impropers

11 atom types
14 bond types
9 angle types
37 dihedral types
3 improper types
-10.99940654 115.3398817 xlo xhi
-10.38944632 115.2479078 ylo yhi
-11.56034294 115.8592711 zlo zhi
0.0 0.0 0.0 xy xz yz

Masses

1	12.01078
2	15.99943
3	14.00672
4	12.01078
5	1.007947
6	1.007947
7	1.007947
8	15.99943
9	12.01078
10	15.99943
11	1.007947


Pair Coeffs

1	0.086879315	3.4806469
2	0.2102061	3.0398122
3	0.16769152	3.206876
4	0.10884061	3.3795318
5	0.014090815	1.1034277
6	0.016409246	2.5832257
7	0.015779483	2.6445434
8	0.16846514	3.0251065
9	0.21	3.3996695
10	0.20947353	2.99716
11	1.2326e-05	0.53453923

Bond Coeffs

1 harmonic	582.698766451	1.225198386222
2 harmonic	492.76746816345	1.381897776683
3 harmonic	279.1350963404	1.454628925034
4 harmonic	352.0565580496	1.450098586273
5 harmonic	505.144496193	1.019481865027
6 harmonic	264.62148576755	1.52190126495
7 harmonic	370.04670688625	1.093899492634
8 harmonic	301.15400723785	1.345741232799
9 harmonic	366.7408841747	1.425895053732
10 harmonic	300.03137914615	1.451203938761
11 harmonic	366.34047229585	1.464762957261
12 harmonic	602.81384337	1.196112346392
13 harmonic	329.96998057905	1.427343958716
14 harmonic	543.5267831885	0.9716763312559


Angle Coeffs

1 harmonic	55.42182150775	117.3465570514
2 harmonic	63.44422595415	115.5071327674
3 harmonic	57.8982893754	126.8062420451
4 harmonic	53.20531626545	116.5475862634
5 harmonic	65.09061609600001	110.3538806181
6 harmonic	201.41175231035	127.4691416191
7 harmonic	48.776492647595	115.6030999533
8 harmonic	55.07882548015	112.8714009681
9 harmonic	33.56981613361	180


Dihedral Coeffs

1 fourier 1	-0.1488678166443	4	180
2 fourier 1	-0.1230328948768	3	180
3 fourier 1	0.2939295466901	2	0
4 fourier 1	-0.3024127022865	1	0
5 fourier 1	0.182238503271	2	0
6 fourier 1	0.02972342374561	3	0
7 fourier 1	1.809047390003	2	180
8 fourier 1	-0.04816277792592	1	0
9 fourier 1	3.101948770557	2	180
10 fourier 1	-0.4252153282372	1	0
11 fourier 1	2.348375642009	2	180
12 fourier 1	1.256156174911	1	0
13 fourier 1	0.9974165607242	2	180
14 fourier 1	0.1155372516788	3	0
15 fourier 1	0.09223874044423	3	0
16 fourier 1	0.3159935921949	2	180
17 fourier 1	0.3247796806857	1	180
18 fourier 1	0.1040663847541	3	0
19 fourier 1	2.779853741805	2	180
20 fourier 1	0.1918272375143	3	0
21 fourier 1	0.9202179876409	1	180
22 fourier 1	0.0473758381877	3	0
23 fourier 1	0.4860993122944	2	180
24 fourier 1	0.8916986138746	1	0
25 fourier 1	1.163809172478	2	180
26 fourier 1	0.1679186987369	1	180
27 fourier 1	0.1911926717192	3	0
28 fourier 1	-0.0309670556842	3	0
29 fourier 1	0.4598191477945	2	0
30 fourier 1	0.1115525666802	3	0
31 fourier 1	0.3432490222662	1	0
32 fourier 1	0.457973137376	1	0
33 fourier 1	-1.382973039546	1	0
34 fourier 1	0	1	0
35 fourier 1	0.3445382149273	3	0
36 fourier 1	0.1364556373303	1	0
37 fourier 1	0.3026390167484	3	0


Improper Coeffs

1 0.3333333333333333	-1	2
2 0.3666666666666667	-1	2
3 3.5	-1	2


Atoms

1	6	1	0.5457539	-2.260401	1.7755238	0.63001436
2	6	2	-0.66846055	-2.7710566	2.7157189	-0.035924842
3	6	3	-0.51885134	-1.528658	0.73221588	-0.017991675
4	6	4	0.032917321	-1.3443525	0.71139318	-1.468423
5	6	4	-0.14411904	-0.52312378	-0.50868347	-1.8972986
6	6	4	-0.14076583	-0.31137525	-0.52569223	-3.4187816
7	6	4	-0.14076583	0.34776067	-1.8234232	-3.9190206
8	6	4	-0.14282677	1.7578702	-2.0930204	-3.3627855
9	6	4	0.027166769	2.7734743	-1.0095776	-3.749611
10	6	3	-0.46208876	4.1250596	-1.398251	-3.3493784
11	6	1	0.78818381	5.2543207	-0.55919023	-3.6068187
12	6	2	-0.59461713	5.1147011	0.54722481	-4.193403
13	6	5	0.32941633	4.292268	-2.3054804	-2.8570804
14	6	6	0.062624544	2.5142048	-0.055248083	-3.2450959
15	6	6	0.062624544	2.7498957	-0.85457027	-4.8506113
16	6	7	0.09237434	1.7237386	-2.2035066	-2.2582658
17	6	7	0.09237434	2.102343	-3.0651167	-3.776346
18	6	7	0.091048569	0.40201433	-1.786192	-5.0296089
19	6	7	0.091048569	-0.30658729	-2.6820338	-3.6562535
20	6	7	0.091048569	0.28818158	0.35665451	-3.7292197
21	6	7	0.091048569	-1.3003527	-0.43757789	-3.918903
22	6	7	0.09237434	0.46062845	-0.4708208	-1.3835945
23	6	7	0.09237434	-1.0556333	-1.4346098	-1.5852874
24	6	6	0.058996909	-2.3402178	0.68110924	-1.9615155
25	6	6	0.058996909	-0.81774724	1.6400394	-1.7820901
26	6	5	0.32283646	-1.1240597	-0.025864496	0.57760496
27	7	8	-0.49524727	6.1998511	-0.86296345	-3.3084213
28	7	4	0.12881051	6.4608604	-2.069879	-3.9701123
29	7	4	0.052305851	6.8196924	-1.8063122	-5.4325887
30	7	8	-0.14192347	7.146066	-3.0074719	-6.0775349
31	7	6	0.094077781	7.6983594	-1.1293592	-5.4776668
32	7	6	0.094077781	5.9705753	-1.3057348	-5.9525929
33	7	6	0.094977968	7.3153505	-2.5721661	-3.4696582
34	7	6	0.094977968	5.5779199	-2.746509	-3.9068508
35	4	1	0.54575396	-2.3782307	1.7598229	1.70493
36	4	2	-0.66846061	-2.5271848	0.65730907	2.2953925
37	4	3	-0.5188514	-2.3534413	2.9894669	2.4381163
38	4	4	0.032917325	-2.5039872	3.047587	3.8910347
39	4	4	-0.14411904	-3.9683662	2.8341381	4.2874923
40	4	4	-0.14058374	-4.1425725	2.9146615	5.8120506
41	4	4	-0.13638838	-5.6152103	2.8365056	6.2445855
42	4	4	-0.12057035	-6.2113833	1.4310894	6.0648718
43	4	4	0.18622825	-7.6497077	1.3472939	6.5995036
44	4	3	-0.62079561	-7.7035775	1.5546018	8.0439504
45	4	9	0.59465158	-7.2050966	0.71844183	8.8637871
46	4	2	-0.44231874	-6.7184392	-0.094444028	9.6607433
47	4	6	0.036592961	-8.0839417	0.35449393	6.3480081
48	4	6	0.036592961	-8.2724607	2.1213601	6.1026542
49	4	7	0.085983351	-6.2367349	1.1730214	4.9849814
50	4	7	0.085983351	-5.5773917	0.6783044	6.5813631
51	4	7	0.089759305	-6.2154639	3.5789948	5.6742264
52	4	7	0.089759305	-5.6674077	3.117551	7.3192608
53	4	7	0.091048569	-3.7321094	3.8838164	6.1686454
54	4	7	0.091048569	-3.5621952	2.102454	6.3025331
55	4	7	0.09237434	-4.2998603	1.8390614	3.9256096
56	4	7	0.09237434	-4.5921694	3.6150347	3.798964
57	4	6	0.058996909	-1.8552274	2.2793915	4.3669993
58	4	6	0.058996909	-2.1705604	4.0460566	4.2473719
59	4	5	0.32283649	-2.1595574	3.8734155	1.9160465
60	5	8	-0.13623327	6.2894436	-3.4760435	-6.2561289
61	5	4	0.022552598	5.7511403	-3.8162558	-5.0073218
62	5	4	0.094566457	5.1371654	-2.5847133	-4.3414157
63	5	10	-0.6796279	4.5387588	-2.9370731	-3.1235121
64	5	11	0.39355448	5.2773751	-3.060344	-2.4708643
65	5	6	0.091539785	4.3585117	-2.1571542	-5.0079438
66	5	6	0.091539785	5.9167583	-1.8055279	-4.1799537
67	5	6	0.094763227	4.9612944	-4.5817308	-5.1580181
68	5	6	0.094763227	6.5372268	-4.2552842	-4.351712
69	6	1	0.5457539	0.096349279	1.0105082	26.297148
70	6	2	-0.66846055	-0.55988267	1.9313693	26.853552
71	6	3	-0.51885134	-0.41592683	0.34057669	25.142758
72	6	4	0.032917321	-1.7122703	0.6916213	24.564473
73	6	4	-0.14411904	-2.01563	-0.17419148	23.337574
74	6	4	-0.14076583	-3.3687298	0.20291117	22.71552
75	6	4	-0.14076583	-3.8030871	-0.75797963	21.594437
76	6	4	-0.14282677	-2.858003	-0.81024162	20.380117
77	6	4	0.027166769	-2.7309987	0.53854043	19.65929
78	6	3	-0.46208876	-1.9677225	0.39527411	18.420371
79	6	1	0.78818381	-1.7172299	1.5101351	17.560216
80	6	2	-0.59461713	-2.153658	2.6567082	17.847669
81	6	5	0.32941633	-1.5819475	-0.53516011	18.139567
82	6	6	0.062624544	-2.2098124	1.2667931	20.315426
83	6	6	0.062624544	-3.7445809	0.92850024	19.419775
84	6	7	0.09237434	-1.8538063	-1.1723281	20.686414
85	6	7	0.09237434	-3.2687596	-1.5560095	19.666132
86	6	7	0.091048569	-4.8167298	-0.45912398	21.246658
87	6	7	0.091048569	-3.8950784	-1.7819151	22.015772
88	6	7	0.091048569	-3.3359038	1.2473095	22.337988
89	6	7	0.091048569	-4.1485983	0.16892613	23.507108
90	6	7	0.09237434	-1.2069106	-0.025335859	22.591311
91	6	7	0.09237434	-2.0311097	-1.2445486	23.641471
92	6	6	0.058996909	-2.5046583	0.54245428	25.329767
93	6	6	0.058996909	-1.6998935	1.7635501	24.266312
94	6	5	0.32283646	0.16559421	-0.41683392	24.716984
95	7	8	-0.49524727	-1.1706065	1.3756068	16.689324
96	7	4	0.12881051	-1.8738223	0.44436977	15.914152
97	7	4	0.052305851	-3.0835821	1.1077836	15.2558
98	7	8	-0.14192347	-3.7488355	0.1934315	14.427151
99	7	6	0.094077781	-2.7403375	1.9629459	14.636741
100	7	6	0.094077781	-3.7774047	1.5010049	16.03424
101	7	6	0.094977968	-1.196725	0.055201376	15.124857
102	7	6	0.094977968	-2.2014525	-0.41559199	16.542275
103	4	1	0.54575396	1.0588232	0.72527105	26.699464
104	4	2	-0.66846061	1.4044496	-0.48570567	26.678304
105	4	3	-0.5188514	1.9260738	1.7284184	27.239624
106	4	4	0.032917325	3.2411471	1.4199536	27.798592
107	4	4	-0.14411904	3.0989849	0.78736049	29.18667
108	4	4	-0.14058374	4.4763318	0.47838391	29.793761
109	4	4	-0.13638838	4.3843451	-0.036317485	31.238917
110	4	4	-0.12057035	3.8207692	-1.4639032	31.32433
111	4	4	0.18622825	3.8345871	-1.9990211	32.764846
112	4	3	-0.62079561	5.1947569	-2.1419408	33.276527
113	4	9	0.59465158	6.0054271	-3.0020166	32.804444
114	4	2	-0.44231874	6.794151	-3.8376609	32.343606
115	4	6	0.036592961	3.3158952	-2.9823832	32.802511
116	4	6	0.036592961	3.2757217	-1.2996223	33.422395
117	4	7	0.085983351	2.7676475	-1.4698417	30.971761
118	4	7	0.085983351	4.4046924	-2.1449943	30.668172
119	4	7	0.089759305	3.7597756	0.65506827	31.846209
120	4	7	0.089759305	5.4103381	-0.02553014	31.667706
121	4	7	0.091048569	5.0819573	1.4100906	29.80019
122	4	7	0.091048569	5.0098899	-0.26552313	29.162088
123	4	7	0.09237434	2.5107321	-0.1492755	29.09894
124	4	7	0.09237434	2.5485121	1.4910948	29.849488
125	4	6	0.058996909	3.7899087	0.73688555	27.113147
126	4	6	0.058996909	3.8253408	2.3615023	27.884001
127	4	5	0.32283649	1.628043	2.7276696	27.174912
128	5	8	-0.13623327	-4.2640398	-0.40894304	15.024618
129	5	4	0.022552598	-3.3237031	-1.1383662	15.76539
130	5	4	0.094566457	-2.7292242	-0.26700381	16.871923
131	5	10	-0.6796279	-1.839244	-1.0149321	17.655552
132	5	11	0.39355448	-1.0043773	-1.1069891	17.125249
133	5	6	0.091539785	-3.5470123	0.10668054	17.523805
134	5	6	0.091539785	-2.2112537	0.61509971	16.430828
135	5	6	0.094763227	-3.8330508	-2.0123228	16.222864
136	5	6	0.094763227	-2.5152903	-1.5187	15.100321
137	6	1	0.5457539	-2.6863624	0.28154485	48.237861
138	6	2	-0.66846055	-3.4094727	1.3028739	48.386889
139	6	3	-0.51885134	-1.6693962	0.24431043	47.233747
140	6	4	0.032917321	-1.4280727	1.379394	46.344083
141	6	4	-0.14411904	-0.28521155	1.0765846	45.369859
142	6	4	-0.14076583	-0.0157187	2.2729292	44.444564
143	6	4	-0.14076583	0.99581928	1.9538088	43.329325
144	6	4	-0.14282677	2.401876	1.5619309	43.819147
145	6	4	0.027166769	3.0935382	2.6774157	44.614277
146	6	3	-0.46208876	4.482583	2.3240997	44.903687
147	6	1	0.78818381	5.3456486	3.2051345	45.627859
148	6	2	-0.59461713	4.9297199	4.3216088	46.038002
149	6	5	0.32941633	4.8738048	1.407525	44.587116
150	6	6	0.062624544	2.560639	2.8391717	45.574669
151	6	6	0.062624544	3.0725649	3.6208107	44.025761
152	6	7	0.09237434	2.354995	0.63493724	44.428918
153	6	7	0.09237434	3.017825	1.3312558	42.923568
154	6	7	0.091048569	1.0824983	2.8431727	42.666563
155	6	7	0.091048569	0.59397795	1.1254889	42.707361
156	6	7	0.091048569	0.32887947	3.1448085	45.040765
157	6	7	0.091048569	-0.96952632	2.5704541	43.957028
158	6	7	0.09237434	0.62823937	0.84560233	45.957523
159	6	7	0.09237434	-0.55345518	0.18630365	44.758547
160	6	6	0.058996909	-2.3560809	1.5973662	45.772162
161	6	6	0.058996909	-1.1661829	2.2717781	46.954942
162	6	5	0.32283646	-1.0955807	-0.62556133	47.149013
163	7	8	-0.49524727	6.325442	2.9240554	45.818506
164	7	4	0.12881051	6.9361165	2.7280599	44.573007
165	7	4	0.052305851	7.2669791	4.0734089	43.926763
166	7	8	-0.14192347	7.9381543	3.8775079	42.711688
167	7	6	0.094077781	7.925599	4.653812	44.606252
168	7	6	0.094077781	6.3343692	4.6613231	43.763736
169	7	6	0.094977968	7.8751478	2.1549819	44.723678
170	7	6	0.094977968	6.2725692	2.1331803	43.904249
171	4	1	0.54575396	-2.8385958	-0.57617131	48.878737
172	4	2	-0.66846061	-2.7010072	-1.735104	48.405118
173	4	3	-0.5188514	-3.1839939	-0.37993891	50.25438
174	4	4	0.032917325	-3.4033	-1.4890129	51.181134
175	4	4	-0.14411904	-4.7665542	-2.1397701	50.925795
176	4	4	-0.14058374	-5.0176614	-3.2938199	51.908762
177	4	4	-0.13638838	-6.4276668	-3.8901099	51.773928
178	4	4	-0.12057035	-6.6047619	-4.7056395	50.483013
179	4	4	0.18622825	-7.9843843	-5.379356	50.416845
180	4	3	-0.62079561	-8.1517143	-6.3757197	51.471153
181	4	9	0.59465158	-7.4752426	-7.4535304	51.49327
182	4	2	-0.44231874	-6.8156277	-8.5009961	51.515221
183	4	6	0.036592961	-8.1170262	-5.8610796	49.422959
184	4	6	0.036592961	-8.7760888	-4.6075972	50.523855
185	4	7	0.085983351	-6.5142135	-4.0339252	49.603237
186	4	7	0.085983351	-5.8089358	-5.4778084	50.40679
187	4	7	0.089759305	-7.1860761	-3.0777639	51.816509
188	4	7	0.089759305	-6.5988173	-4.5548543	52.648834
189	4	7	0.091048569	-4.9055614	-2.9113909	52.946106
190	4	7	0.091048569	-4.255858	-4.0903605	51.759529
191	4	7	0.09237434	-4.7954511	-2.5226623	49.884842
192	4	7	0.09237434	-5.5614898	-1.3703776	51.042853
193	4	6	0.058996909	-2.5873997	-2.2372285	51.071426
194	4	6	0.058996909	-3.3732602	-1.0994582	52.221536
195	4	5	0.32283649	-3.2208409	0.59766374	50.621052
196	5	8	-0.13623327	7.2521909	3.601896	42.049307
197	5	4	0.022552598	6.7787873	2.3483418	42.461041
198	5	4	0.094566457	5.8222023	2.5050756	43.643188
199	5	10	-0.6796279	5.2956868	1.2591878	44.012081
200	5	11	0.39355448	6.01263	0.78572083	44.5106
201	5	6	0.091539785	4.9833398	3.171384	43.350424
202	5	6	0.091539785	6.3491088	2.9745819	44.505104
203	5	6	0.094763227	6.237814	1.8774931	41.613593
204	5	6	0.094763227	7.6283957	1.6844688	42.740218
205	6	1	0.5457539	0.68490413	-1.9173547	72.730067
206	6	2	-0.66846055	0.48113721	-1.8671006	73.972711
207	6	3	-0.51885134	-0.13108528	-1.1718413	71.823303
208	6	4	0.032917321	-1.2278853	-0.32769787	72.295112
209	6	4	-0.14411904	-1.933479	0.35811023	71.120914
210	6	4	-0.14076583	-3.0755053	1.2603379	71.612643
211	6	4	-0.14076583	-3.9305607	1.8263162	70.464883
212	6	4	-0.14282677	-3.172429	2.7254858	69.471294
213	6	4	0.027166769	-2.5847198	3.9825517	70.126517
214	6	3	-0.46208876	-2.0307488	4.8836017	69.116932
215	6	1	0.78818381	-1.4308152	6.1319692	69.473566
216	6	2	-0.59461713	-1.3648159	6.4943204	70.678586
217	6	5	0.32941633	-2.058774	4.6264665	68.10378
218	6	6	0.062624544	-1.7746216	3.6953534	70.829197
219	6	6	0.062624544	-3.3817188	4.5141191	70.69133
220	6	7	0.09237434	-2.368292	2.1507899	68.96491
221	6	7	0.09237434	-3.8921792	3.039486	68.685146
222	6	7	0.091048569	-4.7710073	2.4077242	70.904599
223	6	7	0.091048569	-4.3819425	0.98040743	69.903525
224	6	7	0.091048569	-2.6672791	2.0861353	72.23376
225	6	7	0.091048569	-3.7465923	0.6634098	72.267839
226	6	7	0.09237434	-1.1879064	0.96727576	70.567621
227	6	7	0.09237434	-2.341293	-0.41877277	70.436518
228	6	6	0.058996909	-1.9571763	-0.95568671	72.851502
229	6	6	0.058996909	-0.82188735	0.44539318	72.984735
230	6	5	0.32283646	0.077224967	-1.2463841	70.801456
231	7	8	-0.49524727	-1.0452888	6.7477032	68.733574
232	7	4	0.12881051	-2.1102375	7.064612	67.88031
233	7	4	0.052305851	-3.0120153	8.116982	68.525584
234	7	8	-0.14192347	-4.0394793	8.4832271	67.644992
235	7	6	0.094077781	-2.4100522	9.0189739	68.76308
236	7	6	0.094077781	-3.4390066	7.7257558	69.477741
237	7	6	0.094977968	-1.6978324	7.4694387	66.932187
238	7	6	0.094977968	-2.699057	6.1503602	67.637721
239	4	1	0.54575396	1.4876707	-2.5325411	72.347072
240	4	2	-0.66846061	1.3328823	-3.1442906	71.257038
241	4	3	-0.5188514	2.7138919	-2.6333634	73.079477
242	4	4	0.032917325	3.8430186	-3.4427786	72.624577
243	4	4	-0.14411904	3.5689467	-4.9303821	72.86761
244	4	4	-0.14058374	4.7586167	-5.790081	72.412953
245	4	4	-0.13638838	4.5806562	-7.2770342	72.758144
246	4	4	-0.12057035	3.5145048	-7.9632271	71.889022
247	4	4	0.18622825	3.4254407	-9.4702252	72.176519
248	4	3	-0.62079561	4.656839	-10.164977	71.81144
249	4	9	0.59465158	5.0322887	-10.279706	70.600798
250	4	2	-0.44231874	5.3979072	-10.389446	69.423072
251	4	6	0.036592961	2.5696435	-9.9070244	71.615913
252	4	6	0.036592961	3.2324822	-9.627364	73.259077
253	4	7	0.085983351	2.5189847	-7.5192548	72.101703
254	4	7	0.085983351	3.737695	-7.8018379	70.812205
255	4	7	0.089759305	4.3205331	-7.3856882	73.833986
256	4	7	0.089759305	5.5587658	-7.7810171	72.597083
257	4	7	0.091048569	5.6774309	-5.4280404	72.922471
258	4	7	0.091048569	4.9129417	-5.6733943	71.317663
259	4	7	0.09237434	2.658177	-5.2267401	72.307525
260	4	7	0.09237434	3.3857698	-5.0911224	73.953059
261	4	6	0.058996909	4.0309875	-3.2522573	71.544797
262	4	6	0.058996909	4.7517986	-3.1414974	73.188881
263	4	5	0.32283649	2.8237715	-2.0556986	73.943041
264	5	8	-0.13623327	-4.7027179	7.744873	67.659302
265	5	4	0.022552598	-4.0679628	6.6255474	67.103218
266	5	4	0.094566457	-3.1017168	6.0074959	68.113898
267	5	10	-0.6796279	-2.5172421	4.8489135	67.583225
268	5	11	0.39355448	-1.8253637	5.1514753	66.937889
269	5	6	0.091539785	-3.6594868	5.7330966	69.034205
270	5	6	0.091539785	-2.3156868	6.7448966	68.39561
271	5	6	0.094763227	-4.8416992	5.8767321	66.8328
272	5	6	0.094763227	-3.52236	6.9094198	66.174651
273	6	1	0.5457539	0.21539931	-1.8996071	91.903822
274	6	2	-0.66846055	-0.63352385	-2.2408921	91.037182
275	6	3	-0.51885134	0.11101552	-0.6421642	92.575977
276	6	4	0.032917321	-0.97507768	0.29358999	92.288021
277	6	4	-0.14411904	-0.85070481	1.5559493	93.147043
278	6	4	-0.14076583	-1.9996798	2.5348039	92.861146
279	6	4	-0.14076583	-1.8197856	3.893294	93.561822
280	6	4	-0.14282677	-1.7820245	3.8319519	95.099776
281	6	4	0.027166769	-3.0804003	3.2886803	95.71134
282	6	3	-0.46208876	-3.0605612	3.414446	97.167988
283	6	1	0.78818381	-4.1623178	2.9862352	97.973157
284	6	2	-0.59461713	-5.1911081	2.4865309	97.444371
285	6	5	0.32941633	-2.2283522	3.8200081	97.654125
286	6	6	0.062624544	-3.1985874	2.2164502	95.448936
287	6	6	0.062624544	-3.9470595	3.8572299	95.308303
288	6	7	0.09237434	-0.91831003	3.2234109	95.441845
289	6	7	0.09237434	-1.6199191	4.8656689	95.473696
290	6	7	0.091048569	-2.651301	4.5636761	93.250525
291	6	7	0.091048569	-0.87736908	4.3595958	93.202874
292	6	7	0.091048569	-2.9700315	2.0769189	93.149477
293	6	7	0.091048569	-2.0438034	2.7252572	91.766732
294	6	7	0.09237434	-0.8705343	1.2587977	94.21681
295	6	7	0.09237434	0.12220835	2.0504169	92.92979
296	6	6	0.058996909	-0.94068516	0.57126005	91.21214
297	6	6	0.058996909	-1.9486246	-0.20227916	92.498745
298	6	5	0.32283646	0.83981126	-0.40415222	93.286842
299	7	8	-0.49524727	-4.1162523	3.0874412	99.004167
300	7	4	0.12881051	-3.9589627	4.4545915	99.2664
301	7	4	0.052305851	-5.2883751	5.1865485	99.0821
302	7	8	-0.14192347	-5.1467018	6.5423389	99.409241
303	7	6	0.094077781	-6.049769	4.7373154	99.753533
304	7	6	0.094077781	-5.6454108	5.0766809	98.03213
305	7	6	0.094977968	-3.616773	4.5783421	100.31544
306	7	6	0.094977968	-3.1832674	4.8919369	98.596744
307	4	1	0.54575396	1.0320627	-2.5678665	92.140602
308	4	2	-0.66846061	2.1675128	-2.089569	92.402048
309	4	3	-0.5188514	0.80673195	-3.9817141	92.162092
310	4	4	0.032917325	1.8598019	-4.9461454	92.47503
311	4	4	-0.14411904	2.8086436	-5.1097575	91.283361
312	4	4	-0.14058374	3.9079022	-6.1378218	91.592916
313	4	4	-0.13638838	4.8043076	-6.4296428	90.37918
314	4	4	-0.12057035	5.7387009	-5.2577919	90.037729
315	4	4	0.18622825	6.6984078	-5.6073474	88.889511
316	4	3	-0.62079561	7.6204197	-6.6770556	89.260891
317	4	9	0.59465158	8.5208156	-6.5137769	90.145429
318	4	2	-0.44231874	9.395351	-6.3548915	91.00723
319	4	6	0.036592961	7.2747875	-4.7021771	88.5964
320	4	6	0.036592961	6.1105177	-5.931747	88.004633
321	4	7	0.085983351	5.135354	-4.3815856	89.718918
322	4	7	0.085983351	6.3236524	-4.9616234	90.935231
323	4	7	0.089759305	4.1748276	-6.6821726	89.497767
324	4	7	0.089759305	5.4187232	-7.324719	90.619949
325	4	7	0.091048569	3.4291374	-7.0918265	91.902044
326	4	7	0.091048569	4.5297365	-5.7821327	92.443738
327	4	7	0.09237434	3.2701183	-4.1279312	91.050803
328	4	7	0.09237434	2.2229582	-5.4447402	90.398856
329	4	6	0.058996909	2.419756	-4.6117764	93.376254
330	4	6	0.058996909	1.3916406	-5.9270244	92.706961
331	4	5	0.32283649	-0.16561765	-4.3305687	92.006048
332	5	8	-0.13623327	-4.6773069	6.9711001	98.646949
333	5	4	0.022552598	-3.387707	6.4227526	98.611155
334	5	4	0.094566457	-3.4268165	5.0143212	98.017956
335	5	10	-0.6796279	-2.1297667	4.4914684	97.918841
336	5	11	0.39355448	-1.8640007	4.2188709	98.836315
337	5	6	0.091539785	-3.8701411	5.0569547	97.0006
338	5	6	0.091539785	-4.066254	4.3506756	98.643783
339	5	6	0.094763227	-2.7450643	7.0684279	97.976622
340	5	6	0.094763227	-2.9480015	6.3962878	99.634121
341	6	1	0.5457539	-2.1750033	21.790331	0.94002055
342	6	2	-0.66846055	-2.1931073	20.547663	1.1489688
343	6	3	-0.51885134	-0.94661508	22.520924	0.97387981
344	6	4	0.032917321	0.32956429	21.863165	1.2511381
345	6	4	-0.14411904	1.481688	22.872522	1.2237766
346	6	4	-0.14076583	2.8272439	22.183368	1.4968769
347	6	4	-0.14076583	3.9893415	23.178869	1.6621433
348	6	4	-0.14282677	4.2819257	24.048203	0.42555869
349	6	4	0.027166769	4.6936752	23.225955	-0.80297899
350	6	3	-0.46208876	5.1276009	24.100575	-1.8914568
351	6	1	0.78818381	5.5708869	23.574541	-3.1453762
352	6	2	-0.59461713	5.6024834	22.331236	-3.3476742
353	6	5	0.32941633	5.1168864	25.139497	-1.7735245
354	6	6	0.062624544	3.8320312	22.621045	-1.1553351
355	6	6	0.062624544	5.5276267	22.542708	-0.53006293
356	6	7	0.09237434	3.4029778	24.681306	0.1806759
357	6	7	0.09237434	5.1149637	24.735455	0.68708809
358	6	7	0.091048569	4.9078816	22.608541	1.9243388
359	6	7	0.091048569	3.7684955	23.848059	2.52112
360	6	7	0.091048569	3.0534024	21.456448	0.68767033
361	6	7	0.091048569	2.7467046	21.602242	2.4412115
362	6	7	0.09237434	1.5051839	23.354954	0.22387606
363	6	7	0.09237434	1.3003708	23.653792	1.9951373
364	6	6	0.058996909	0.28101748	21.381576	2.251898
365	6	6	0.058996909	0.5085573	21.077276	0.48405084
366	6	5	0.32283646	-0.98318699	23.550262	0.79430658
367	7	8	-0.49524727	5.8704429	24.221911	-3.8980542
368	7	4	0.12881051	6.9484488	24.957624	-3.3889014
369	7	4	0.052305851	8.2170291	24.104556	-3.3823431
370	7	8	-0.14192347	9.3096651	24.860975	-2.935985
371	7	6	0.094077781	8.4269456	23.752752	-4.4141
372	7	6	0.094077781	8.0749622	23.209305	-2.7340186
373	7	6	0.094977968	7.1095493	25.845946	-4.0352992
374	7	6	0.094977968	6.7216026	25.317108	-2.358986
375	4	1	0.54575396	-3.1013298	22.308434	0.73250577
376	4	2	-0.66846061	-3.2711374	23.474892	1.1762522
377	4	3	-0.5188514	-4.1131206	21.66442	-0.049623239
378	4	4	0.032917325	-5.3885788	22.301438	-0.37277607
379	4	4	-0.14411904	-6.3167857	22.292086	0.84603051
380	4	4	-0.14058374	-7.6694089	22.940119	0.51200305
381	4	4	-0.13638838	-8.6776407	22.834797	1.6670931
382	4	4	-0.12057035	-8.3214765	23.750429	2.8493282
383	4	4	0.18622825	-9.3951755	23.709659	3.9480266
384	4	3	-0.62079561	-10.670491	24.244488	3.479161
385	4	9	0.59465158	-10.819567	25.474738	3.1892659
386	4	2	-0.44231874	-10.963495	26.671252	2.9057209
387	4	6	0.036592961	-9.0480116	24.290942	4.8306639
388	4	6	0.036592961	-9.5457814	22.659231	4.27632
389	4	7	0.085983351	-7.3628105	23.418579	3.301258
390	4	7	0.085983351	-8.1890469	24.796009	2.4963142
391	4	7	0.089759305	-8.7469232	21.779699	2.01187
392	4	7	0.089759305	-9.6759211	23.124755	1.2721263
393	4	7	0.091048569	-8.1051781	22.424556	-0.37072067
394	4	7	0.091048569	-7.5200583	24.007795	0.23840838
395	4	7	0.09237434	-5.8311558	22.847109	1.6749689
396	4	7	0.09237434	-6.4770291	21.239888	1.169743
397	4	6	0.058996909	-5.2109101	23.343411	-0.71959261
398	4	6	0.058996909	-5.8699606	21.741353	-1.2032382
399	4	5	0.32283649	-3.9027692	20.724435	-0.45421329
400	5	8	-0.13623327	9.2204665	24.934831	-1.9501625
401	5	4	0.022552598	8.0695855	25.697702	-1.7082245
402	5	4	0.094566457	6.8160976	24.851325	-1.9307269
403	5	10	-0.6796279	5.6667867	25.593089	-1.6234669
404	5	11	0.39355448	5.5190166	26.213768	-2.384795
405	5	6	0.091539785	6.8514802	23.9618	-1.2667531
406	5	6	0.091539785	6.7762374	24.49209	-2.9844471
407	5	6	0.094763227	8.0911719	26.048292	-0.65506787
408	5	6	0.094763227	8.0505201	26.593207	-2.3701991
409	6	1	0.5457539	1.1321158	21.671881	21.559032
410	6	2	-0.66846055	2.1105436	21.806369	20.776214
411	6	3	-0.51885134	1.0406459	22.446761	22.756966
412	6	4	0.032917321	2.0701281	23.418883	23.122067
413	6	4	-0.14411904	1.7246002	24.109631	24.445099
414	6	4	-0.14076583	2.7943266	25.144992	24.824242
415	6	4	-0.14076583	2.5890764	25.732868	26.231751
416	6	4	-0.14282677	1.2688202	26.499706	26.430172
417	6	4	0.027166769	1.1420269	27.724456	25.514288
418	6	3	-0.46208876	-0.039521789	28.512599	25.861864
419	6	1	0.78818381	-0.37485334	29.712036	25.158705
420	6	2	-0.59461713	0.3467977	30.127936	24.213202
421	6	5	0.32941633	-0.67154261	28.207416	26.636974
422	6	6	0.062624544	1.0511734	27.395032	24.458008
423	6	6	0.062624544	2.0480267	28.361025	25.617873
424	6	7	0.09237434	0.40149287	25.822596	26.279833
425	6	7	0.09237434	1.2344942	26.842476	27.486579
426	6	7	0.091048569	3.4375222	26.4168	26.455608
427	6	7	0.091048569	2.634489	24.908018	26.974712
428	6	7	0.091048569	2.822855	25.957233	24.066729
429	6	7	0.091048569	3.7908271	24.65234	24.808691
430	6	7	0.09237434	0.74060962	24.612327	24.334854
431	6	7	0.09237434	1.6479822	23.342681	25.247703
432	6	6	0.058996909	3.0463005	22.896027	23.219606
433	6	6	0.058996909	2.1519977	24.182516	22.31693
434	6	5	0.32283646	0.20979272	22.299116	23.374222
435	7	8	-0.49524727	-1.2210137	30.24733	25.428557
436	7	4	0.12881051	-1.0476906	30.623778	26.766784
437	7	4	0.052305851	-0.067201438	31.79244	26.866453
438	7	8	-0.14192347	0.054954493	32.21278	28.198239
439	7	6	0.094077781	-0.4465511	32.64131	26.259933
440	7	6	0.094077781	0.92754221	31.495341	26.461239
441	7	6	0.094977968	-2.0305051	30.936049	27.178442
442	7	6	0.094977968	-0.68006908	29.761157	27.368576
443	4	1	0.54575396	0.35303568	20.961059	21.319576
444	4	2	-0.66846061	-0.19932774	20.312092	22.246996
445	4	3	-0.5188514	-0.043045294	20.777076	19.955952
446	4	4	0.032917325	-1.088625	19.837131	19.555602
447	4	4	-0.14411904	-0.56356262	18.39866	19.603105
448	4	4	-0.14058374	-1.6479179	17.402751	19.163278
449	4	4	-0.13638838	-1.1247726	15.960675	19.070576
450	4	4	-0.12057035	-0.85268581	15.339624	20.450134
451	4	4	0.18622825	-0.43127891	13.86582	20.340831
452	4	3	-0.62079561	-1.5039115	13.034316	19.801976
453	4	9	0.59465158	-2.5797182	12.820376	20.447459
454	4	2	-0.44231874	-3.6267532	12.614072	21.075085
455	4	6	0.036592961	-0.13318282	13.487687	21.343635
456	4	6	0.036592961	0.4541595	13.784858	19.675021
457	4	7	0.085983351	-0.028164446	15.890624	20.950102
458	4	7	0.085983351	-1.7568882	15.422106	21.091234
459	4	7	0.089759305	-0.19985865	15.934212	18.453537
460	4	7	0.089759305	-1.8953735	15.354441	18.545892
461	4	7	0.091048569	-2.0184261	17.697695	18.157975
462	4	7	0.091048569	-2.5092103	17.44669	19.865657
463	4	7	0.09237434	-0.24001664	18.165569	20.638485
464	4	7	0.09237434	0.31703619	18.313298	18.92868
465	4	6	0.058996909	-1.972152	19.951904	20.221757
466	4	6	0.058996909	-1.4084116	20.075529	18.518301
467	4	5	0.32283649	0.39383856	21.384906	19.227125
468	5	8	-0.13623327	0.63061555	31.545636	28.655175
469	5	4	0.022552598	-0.087001969	30.341558	28.671191
470	5	4	0.094566457	-0.049678639	29.683805	27.291676
471	5	10	-0.6796279	-0.70912676	28.447024	27.323872
472	5	11	0.39355448	-1.6823976	28.645607	27.326596
473	5	6	0.091539785	1.0068989	29.51413	26.994654
474	5	6	0.091539785	-0.51644972	30.353138	26.533334
475	5	6	0.094763227	0.37957792	29.660247	29.41324
476	5	6	0.094763227	-1.1412323	30.521427	28.982234
477	6	1	0.5457539	-1.0221078	22.798249	49.729523
478	6	2	-0.66846055	-1.9041818	23.343501	50.445663
479	6	3	-0.51885134	-1.0130428	22.982097	48.311789
480	6	4	0.032917321	-2.0188107	23.802497	47.638344
481	6	4	-0.14411904	-1.775296	23.833418	46.126166
482	6	4	-0.14076583	-2.8189391	24.708735	45.415767
483	6	4	-0.14076583	-2.7293255	24.624646	43.881589
484	6	4	-0.14282677	-1.3960758	25.10601	43.280571
485	6	4	0.027166769	-1.1055713	26.584689	43.570487
486	6	3	-0.46208876	0.075548376	27.035513	42.83581
487	6	1	0.78818381	0.5494444	28.381624	42.930344
488	6	2	-0.59461713	-0.044842055	29.224727	43.654036
489	6	5	0.32941633	0.60488125	26.37273	42.224332
490	6	6	0.062624544	-0.92339044	26.725144	44.656573
491	6	6	0.062624544	-1.980231	27.201267	43.267854
492	6	7	0.09237434	-0.55720284	24.476325	43.645434
493	6	7	0.09237434	-1.4532262	24.965577	42.179809
494	6	7	0.091048569	-3.5567566	25.22763	43.446269
495	6	7	0.091048569	-2.8984698	23.571697	43.569949
496	6	7	0.091048569	-2.7223991	25.763525	45.751139
497	6	7	0.091048569	-3.8344446	24.366379	45.711577
498	6	7	0.09237434	-0.75849038	24.239146	45.940195
499	6	7	0.09237434	-1.826258	22.795819	45.727358
500	6	6	0.058996909	-3.0276573	23.383216	47.843859
501	6	6	0.058996909	-1.9729847	24.838677	48.041228
502	6	5	0.32283646	-0.26092232	22.508996	47.76078
503	7	8	-0.49524727	1.3914711	28.669379	42.397864
504	7	4	0.12881051	1.1005563	28.460117	41.043543
505	7	4	0.052305851	0.18223969	29.565096	40.521258
506	7	8	-0.14192347	-0.054730019	29.393231	39.150285
507	7	6	0.094077781	0.67003794	30.550188	40.676174
508	7	6	0.094077781	-0.77977816	29.563404	41.083842
509	7	6	0.094977968	2.0509078	28.473902	40.469486
510	7	6	0.094977968	0.62412518	27.463506	40.89796
511	4	1	0.54575396	-0.26343101	22.184237	50.195326
512	4	2	-0.66846061	0.15156163	21.154849	49.599917
513	4	3	-0.5188514	0.26213613	22.556443	51.47417
514	4	4	0.032917325	1.2893825	21.778397	52.164404
515	4	4	-0.14411904	0.68224406	20.511827	52.776227
516	4	4	-0.14058374	1.7489763	19.696302	53.523297
517	4	4	-0.13638838	1.1582033	18.485509	54.262773
518	4	4	-0.12057035	0.70885544	17.369071	53.306443
519	4	4	0.18622825	0.21905486	16.126973	54.06731
520	4	3	-0.62079561	1.2937421	15.502585	54.83379
521	4	9	0.59465158	2.2824063	14.934413	54.268545
522	4	2	-0.44231874	3.244799	14.383413	53.718129
523	4	6	0.036592961	-0.20306415	15.391094	53.347756
524	4	6	0.036592961	-0.59503075	16.419725	54.764031
525	4	7	0.085983351	-0.13116859	17.73334	52.677895
526	4	7	0.085983351	1.5442422	17.086334	52.629995
527	4	7	0.089759305	0.30288235	18.81056	54.894969
528	4	7	0.089759305	1.94417	18.087039	54.941091
529	4	7	0.091048569	2.2385826	20.351336	54.275705
530	4	7	0.091048569	2.5331817	19.357041	52.811247
531	4	7	0.09237434	0.23959721	19.895362	51.96687
532	4	7	0.09237434	-0.12638233	20.803788	53.482253
533	4	6	0.058996909	2.1034337	21.51616	51.452991
534	4	6	0.058996909	1.7287957	22.400817	52.973478