Title

1026 atoms
1106 bonds
1868 angles
2994 dihedrals
1398 impropers

14 atom types
20 bond types
13 angle types
29 dihedral types
3 improper types
-40.75299835 59.24700165 xlo xhi
-10.03899956 89.96100044 ylo yhi
-110.7789993 -10.77899933 zlo zhi
0.0 0.0 0.0 xy xz yz

Masses

1	12.01078
2	15.99943
3	14.00672
4	1.007947
5	1.007947
6	30.973762
7	15.99943
8	12.01078
9	1.007947
10	79.9041
11	1.007947
12	15.99943
13	1.007947
14	12.01078


Pair Coeffs

1	0.086879315	3.4806469
2	0.2102061	3.0398122
3	0.16769152	3.206876
4	0.014090815	1.1034277
5	0.015611343	2.5725815
6	0.2	3.7417746
7	0.16846514	3.0251065
8	0.10884061	3.3795318
9	0.016409246	2.5832257
10	0.32189864	3.5097963
11	0.015779483	2.6445434
12	0.20947353	2.99716
13	1.2326e-05	0.53453923
14	0.21	3.3996695

Bond Coeffs

1 harmonic	582.698766451	1.225198386222
2 harmonic	492.76746816345	1.381897776683
3 harmonic	301.15400723785	1.345741232799
4 harmonic	505.144496193	1.019481865027
5 harmonic	390.03554688505	1.390160554689
6 harmonic	360.7852444772	1.387193227181
7 harmonic	397.2545789619	1.085358495916
8 harmonic	279.1350963404	1.454628925034
9 harmonic	161.18474555765	1.834505699142
10 harmonic	553.2756913275	1.490991061009
11 harmonic	366.7408841747	1.425895053732
12 harmonic	370.04670688625	1.093899492634
13 harmonic	264.62148576755	1.52190126495
14 harmonic	425.69104206635	1.362945806494
15 harmonic	203.9927893677	1.911636491655
16 harmonic	289.73813263395	1.498646816465
17 harmonic	329.96998057905	1.427343958716
18 harmonic	543.5267831885	0.9716763312559
19 harmonic	382.5450169811	1.379244394267
20 harmonic	602.81384337	1.196112346392


Angle Coeffs

1 harmonic	63.44422595415	115.5071327674
2 harmonic	55.42182150775	117.3465570514
3 harmonic	65.09061609600001	110.3538806181
4 harmonic	57.8982893754	126.8062420451
5 harmonic	201.41175231035	127.4691416191
6 harmonic	34.066775159195	129.1835929926
7 harmonic	14.32262199324	138.3184368373
8 harmonic	39.628116874445	129.8027304608
9 harmonic	64.8736076882	157.3793185985
10 harmonic	53.20531626545	116.5475862634
11 harmonic	48.776492647595	115.6030999533
12 harmonic	55.07882548015	112.8714009681
13 harmonic	33.56981613361	180


Dihedral Coeffs

1 fourier 1	1.193093382682	2	180
2 fourier 1	0.0473758381877	3	0
3 fourier 1	0.1918272375143	3	0
4 fourier 1	0.9202179876409	1	180
5 fourier 1	0.4860993122944	2	180
6 fourier 1	0.8916986138746	1	0
7 fourier 1	1.809047390003	2	180
8 fourier 1	-0.04816277792592	1	0
9 fourier 1	1.163809172478	2	180
10 fourier 1	0.1679186987369	1	180
11 fourier 1	2.779853741805	2	180
12 fourier 1	3.661930099076	2	180
13 fourier 1	0.9974165607242	2	180
14 fourier 1	1.57666786751	2	180
15 fourier 1	1.001318303664	1	0
16 fourier 1	0.1115525666802	3	0
17 fourier 1	0.3432490222662	1	0
18 fourier 1	-0.0309670556842	3	0
19 fourier 1	0.4598191477945	2	0
20 fourier 1	0.1911926717192	3	0
21 fourier 1	1.532232714475	2	180
22 fourier 1	0.02664938770063	3	0
23 fourier 1	0.1155372516788	3	0
24 fourier 1	0.1040663847541	3	0
25 fourier 1	0.3445382149273	3	0
26 fourier 1	0.1364556373303	1	0
27 fourier 1	0.3026390167484	3	0
28 fourier 1	1.550515418264	2	180
29 fourier 1	0	1	0


Improper Coeffs

1 0.3333333333333333	-1	2
2 3.5	-1	2
3 0.3666666666666667	-1	2


Atoms

1	1	1	0.82670403	11.406	-3.6960001	-0.63499999
2	1	2	-0.52372098	11.532	-3.194	-1.7839999
3	1	3	-0.46584001	10.207	-3.513	0.132
4	1	4	0.33208901	10.255	-3.7409999	1.151
5	1	1	0.258692	9.0030003	-2.914	-0.377
6	1	1	-0.37573799	8.5830002	-3.1229999	-1.7179999
7	1	5	0.21290299	9.1569996	-3.7539999	-2.3840001
8	1	1	0.11348	7.395	-2.543	-2.198
9	1	5	0.217127	7.0739999	-2.7	-3.22
10	1	1	-0.247673	6.6409998	-1.771	-1.319
11	1	1	-0.170178	7.027	-1.584	-0.0099999998
12	1	1	-0.145321	8.198	-2.1470001	0.493
13	1	5	0.219936	8.4849997	-1.9879999	1.525
14	1	1	0.71202499	6.0219998	-0.74699998	0.63499999
15	1	2	-0.53384203	6.073	-0.33000001	1.823
16	1	3	-0.52969801	4.9879999	-0.414	-0.29899999
17	1	1	0.233124	3.8239999	0.39899999	-0.068999998
18	1	1	-0.391554	3.1559999	0.35299999	1.1670001
19	1	5	0.218679	3.49	-0.317	1.948
20	1	1	0.0059310002	2.03	1.148	1.395
21	1	5	0.230474	1.521	1.0829999	2.348
22	1	1	-0.714688	1.562	2.01	0.39399999
23	1	6	1.3070461	0.092	3.0079999	0.67000002
24	1	2	-0.77273601	0.204	4.2810001	-0.139
25	1	1	-0.68177402	-0.025	3.4430001	2.411
26	1	1	-0.016043	0.74900001	4.4959998	2.921
27	1	5	0.228919	1.3940001	5.0669999	2.267
28	1	1	-0.26733899	0.69300002	4.8150001	4.2810001
29	1	5	0.247472	1.289	5.631	4.6700001
30	1	1	-0.187286	-0.126	4.0780001	5.1399999
31	1	5	0.236072	-0.168	4.3249998	6.1929998
32	1	1	-0.26733899	-0.88700002	3.016	4.6399999
33	1	5	0.247472	-1.515	2.441	5.3080001
34	1	1	-0.016043	-0.833	2.694	3.2809999
35	1	5	0.228919	-1.418	1.8610001	2.9130001
36	1	1	-0.714688	-1.3889999	2.1300001	0.15099999
37	1	1	0.0059310002	-1.378	0.73799998	-0.0099999998
38	1	5	0.230474	-0.47099999	0.17	0.15000001
39	1	1	-0.391554	-2.5469999	0.063000001	-0.37400001
40	1	5	0.218679	-2.5209999	-1.013	-0.479
41	1	1	0.233124	-3.7449999	0.76899999	-0.56699997
42	1	3	-0.52969801	-4.947	0.074000001	-0.94099998
43	1	1	0.715469	-5.0739999	-1.045	-1.825
44	1	2	-0.53384203	-4.1209998	-1.5580001	-2.4690001
45	1	1	-0.247673	-6.4699998	-1.46	-1.9089999
46	1	1	0.11348	-7.0710001	-2.477	-2.645
47	1	5	0.217127	-6.4860001	-3.1159999	-3.2939999
48	1	1	-0.37573799	-8.4619999	-2.6430001	-2.53
49	1	5	0.21290299	-8.9429998	-3.4070001	-3.1270001
50	1	1	0.258692	-9.2270002	-1.801	-1.677
51	1	3	-0.46584001	-10.653	-1.947	-1.566
52	1	4	0.33208901	-11.221	-1.101	-1.336
53	1	1	0.82670403	-11.343	-3.2019999	-1.6240001
54	1	2	-0.52372098	-10.718	-4.2950001	-1.589
55	1	1	-0.145321	-8.585	-0.76300001	-0.96700001
56	1	5	0.219936	-9.1450005	-0.094999999	-0.32499999
57	1	1	-0.170178	-7.2059999	-0.62199998	-1.1
58	1	1	0.71202499	-6.283	0.33199999	-0.493
59	1	2	-0.53384203	-6.5970001	1.223	0.34099999
60	1	1	-0.391554	-3.7550001	2.161	-0.38800001
61	1	5	0.218679	-4.6630001	2.73	-0.54400003
62	1	1	0.0059310002	-2.585	2.836	-0.028999999
63	1	5	0.230474	-2.6129999	3.9089999	0.11
64	1	1	0.0059310002	2.211	2.0439999	-0.84600002
65	1	5	0.230474	1.85	2.6919999	-1.635
66	1	1	-0.391554	3.3380001	1.25	-1.076
67	1	5	0.218679	3.842	1.318	-2.0309999
68	1	1	0.715469	5.382	-1.059	-1.517
69	1	2	-0.53384203	4.71	-1.049	-2.582
70	1	7	-0.48309001	-12.38	-3.2130001	-1.6570001
71	1	8	0.135919	-12.78	-1.951	-2.1170001
72	1	9	0.117438	-13.859	-1.8150001	-1.8889999
73	1	9	0.117438	-12.213	-1.148	-1.5929999
74	1	8	0.105455	-12.569	-1.844	-3.6230001
75	1	9	0.10295	-13.144	-2.645	-4.1360002
76	1	9	0.10295	-11.489	-1.97	-3.8569999
77	1	7	-0.429129	-13.012	-0.56900001	-4.0749998
78	1	1	0.49872899	-12.929	-0.208	-5.4200001
79	1	1	-0.252424	-14.002	-0.46200001	-6.2849998
80	1	10	-0.03709	-15.597	-1.301	-5.6389999
81	1	1	0.029084001	-13.92	-0.101	-7.6329999
82	1	5	0.219212	-14.765	-0.32800001	-8.2650003
83	1	1	-0.25240299	-12.77	0.54299998	-8.1429996
84	1	8	0.022908	-12.62	0.94	-9.625
85	1	1	-0.25240299	-12.137	2.4000001	-9.7180004
86	1	1	0.029084001	-11.075	2.8050001	-10.558
87	1	5	0.219212	-10.538	2.096	-11.169
88	1	1	-0.252424	-10.684	4.1459999	-10.625
89	1	10	-0.03709	-9.2410002	4.6409998	-11.782
90	1	1	0.49872899	-11.351	5.1139998	-9.8619995
91	1	7	-0.429129	-10.956	6.4499998	-9.9239998
92	1	8	0.105455	-9.974	6.974	-9.0369997
93	1	9	0.10295	-9.0220003	6.4110003	-9.151
94	1	9	0.10295	-10.325	6.8699999	-7.987
95	1	8	0.135919	-9.7360001	8.4460001	-9.342
96	1	9	0.117439	-10.693	9.0039997	-9.2329998
97	1	9	0.117439	-8.9960003	8.8520002	-8.6169996
98	1	7	-0.48309001	-9.2469997	8.5860004	-10.647
99	1	1	-0.252424	-12.428	4.7360001	-9.0500002
100	1	10	-0.03709	-13.391	6.0380001	-8.0310001
101	1	1	0.029084001	-12.818	3.3959999	-8.9849997
102	1	5	0.219212	-13.658	3.128	-8.3549995
103	1	8	-0.127809	-13.948	0.85299999	-10.415
104	1	11	0.094835997	-14.298	-0.198	-10.501
105	1	11	0.094835997	-13.808	1.24	-11.449
106	1	11	0.094835997	-14.742	1.459	-9.9289999
107	1	8	-0.127809	-11.632	-0.068000004	-10.262
108	1	11	0.094835997	-11.571	0.068000004	-11.364
109	1	11	0.094835997	-11.972	-1.1110001	-10.078
110	1	11	0.094835997	-10.615	0.041000001	-9.8290005
111	1	1	0.029084001	-11.697001	0.78200001	-7.2579999
112	1	5	0.219212	-10.792	1.257	-7.6160002
113	1	1	-0.252424	-11.778	0.42199999	-5.9099998
114	1	10	-0.03709	-10.304	0.81	-4.7519999
115	1	1	0.82670403	-9.1090002	9.6029997	-10.794
116	1	2	-0.52372098	-9.9420004	10.241	-11.493
117	1	3	-0.46584001	-7.9530001	10.247	-10.24
118	1	4	0.33208901	-7.1890001	9.6280003	-9.8839998
119	1	1	0.258692	-7.7220001	11.666	-10.271
120	1	1	-0.37573799	-8.7910004	12.591	-10.132
121	1	5	0.21290299	-9.8050003	12.245	-9.9840002
122	1	1	0.11348	-8.5489998	13.976	-10.148
123	1	5	0.217127	-9.3619995	14.684	-10.043
124	1	1	-0.247673	-7.2340002	14.411	-10.292
125	1	1	-0.170178	-6.1890001	13.52	-10.402
126	1	1	-0.145321	-6.3990002	12.143	-10.388
127	1	5	0.219936	-5.5640001	11.459	-10.476
128	1	1	0.71202499	-4.9580002	14.293	-10.524
129	1	2	-0.53384203	-3.8069999	13.809	-10.693
130	1	3	-0.52969801	-5.2519999	15.695	-10.483
131	1	1	0.233124	-4.3260002	16.790001	-10.584
132	1	1	-0.391554	-3.05	16.698999	-10.002
133	1	5	0.218679	-2.7609999	15.818	-9.4449997
134	1	1	0.0059310002	-2.1459999	17.76	-10.105
135	1	5	0.230474	-1.175	17.674999	-9.6339998
136	1	1	-0.714688	-2.5009999	18.923	-10.802
137	1	6	1.3070461	-1.354	20.304001	-10.907
138	1	2	-0.77273601	-1.6	21.049	-12.201
139	1	1	-0.68177402	0.33500001	19.688	-10.911
140	1	1	-0.016043	0.889	19.177999	-12.094
141	1	5	0.228919	0.31600001	19.18	-13.013
142	1	1	-0.26733899	2.188	18.66	-12.097
143	1	5	0.247472	2.6129999	18.271	-13.014
144	1	1	-0.187286	2.9359999	18.641001	-10.917
145	1	5	0.236072	3.941	18.24	-10.92
146	1	1	-0.26733899	2.3829999	19.132	-9.7309999
147	1	5	0.247472	2.9590001	19.108	-8.816
148	1	1	-0.016043	1.0829999	19.649	-9.7250004
149	1	5	0.228919	0.66500002	20.014	-8.7950001
150	1	1	-0.714688	-1.594	21.444	-9.5380001
151	1	1	0.0059310002	-2.2639999	21.038	-8.375
152	1	5	0.230474	-2.671	20.040001	-8.2919998
153	1	1	-0.391554	-2.4059999	21.922001	-7.3010001
154	1	5	0.218679	-2.914	21.584999	-6.408
155	1	1	0.233124	-1.869	23.216999	-7.369
156	1	3	-0.52969801	-2.0150001	24.125	-6.2639999
157	1	1	0.715469	-3.148	24.280001	-5.401
158	1	2	-0.53384203	-4.2360001	23.659	-5.5320001
159	1	1	-0.247673	-2.8710001	25.296	-4.3920002
160	1	1	0.11348	-3.6659999	25.792	-3.3629999
161	1	5	0.217127	-4.6739998	25.424999	-3.21
162	1	1	-0.37573799	-3.128	26.791	-2.5339999
163	1	5	0.21290299	-3.7519999	27.208	-1.755
164	1	1	0.258692	-1.806	27.27	-2.737
165	1	3	-0.46584001	-1.25	28.306	-1.9100001
166	1	4	0.33208901	-0.52700001	28.937	-2.323
167	1	1	0.82670403	-1.526	28.458	-0.51099998
168	1	2	-0.52372098	-2.138	27.566	0.13500001
169	1	1	-0.145321	-1.039	26.761999	-3.8080001
170	1	5	0.219936	-0.035	27.122	-3.9990001
171	1	1	-0.170178	-1.598	25.771999	-4.6139998
172	1	1	0.71202499	-1.053	25.061001	-5.7659998
173	1	2	-0.53384203	0.109	25.205999	-6.2309999
174	1	1	-0.391554	-1.184	23.613001	-8.5290003
175	1	5	0.218679	-0.77200001	24.611	-8.6110001
176	1	1	0.0059310002	-1.046	22.731001	-9.6040001
177	1	5	0.230474	-0.509	23.051001	-10.488
178	1	1	0.0059310002	-3.779	19.027	-11.366
179	1	5	0.230474	-4.073	19.926001	-11.892
180	1	1	-0.391554	-4.684	17.966	-11.264
181	1	5	0.218679	-5.6539998	18.056999	-11.736
182	1	1	0.715469	-6.677	15.758	-10.337
183	1	2	-0.53384203	-7.336	16.825001	-10.216
184	1	7	-0.48309001	-1.183	29.299	-0.011
185	1	8	0.135919	-0.94999999	30.278	-0.98699999
186	1	9	0.117438	-0.31400001	31.075001	-0.54699999
187	1	9	0.117438	-0.405	29.84	-1.855
188	1	8	0.105455	-2.2680001	30.888	-1.452
189	1	9	0.10295	-2.8	31.327	-0.57999998
190	1	9	0.10295	-2.9060001	30.097	-1.902
191	1	7	-0.429129	-2.0079999	31.900999	-2.4159999
192	1	1	0.49872899	-3.0450001	32.622002	-3.0090001
193	1	1	-0.252424	-3.49	33.819	-2.4330001
194	1	10	-0.03709	-2.681	34.490002	-0.83200002
195	1	1	0.029084001	-4.5299997	34.542	-3.026
196	1	5	0.219212	-4.8470001	35.452999	-2.539
197	1	1	-0.25240299	-5.1350002	34.094002	-4.2210002
198	1	8	0.022908	-6.3000002	34.84	-4.9000001
199	1	1	-0.25240299	-5.9990001	35	-6.4029999
200	1	1	0.029084001	-6.9450002	34.702999	-7.4110003
201	1	5	0.219212	-7.9289999	34.332001	-7.1680002
202	1	1	-0.252424	-6.6339998	34.882	-8.7620001
203	1	10	-0.03709	-7.9530001	34.466999	-10.086
204	1	1	0.49872899	-5.375	35.370998	-9.1370001
205	1	7	-0.429129	-5.0640001	35.542	-10.486
206	1	8	0.105455	-4.4650002	34.498001	-11.246
207	1	9	0.10295	-5.1209998	33.599998	-11.239
208	1	9	0.10295	-3.484	34.226002	-10.8
209	1	8	0.135919	-4.2519999	34.962002	-12.68
210	1	9	0.117439	-3.5999999	35.863998	-12.682
211	1	9	0.117439	-3.7480001	34.152	-13.253
212	1	7	-0.48309001	-5.4860001	35.262001	-13.27
213	1	1	-0.252424	-4.4380002	35.702	-8.151
214	1	10	-0.03709	-2.727	36.416	-8.6260004
215	1	1	0.029084001	-4.75	35.523998	-6.8010001
216	1	5	0.219212	-4.0120001	35.792999	-6.0560002
217	1	8	-0.127809	-6.5250001	36.262001	-4.3330002
218	1	11	0.094835997	-6.8709998	36.226002	-3.277
219	1	11	0.094835997	-7.3080001	36.792999	-4.9180002
220	1	11	0.094835997	-5.5929999	36.866001	-4.3850002
221	1	8	-0.127809	-7.5830002	34.02	-4.6209998
222	1	11	0.094835997	-8.4910002	34.560001	-4.9660001
223	1	11	0.094835997	-7.6999998	33.844002	-3.53
224	1	11	0.094835997	-7.5419998	33.029999	-5.1240001
225	1	1	0.029084001	-4.6799998	32.881001	-4.7799997
226	1	5	0.219212	-5.131	32.497002	-5.6859999
227	1	1	-0.252424	-3.6399999	32.158001	-4.1890001
228	1	10	-0.03709	-3.04	30.541	-5.02
229	1	1	0.82670403	-5.2750001	35.573002	-14.236
230	1	2	-0.52372098	-5.3260002	36.800999	-14.512
231	1	3	-0.46584001	-4.9770002	34.595001	-15.243
232	1	4	0.33208901	-5.1849999	33.596001	-15.013
233	1	1	0.258692	-4.5479999	34.910999	-16.577999
234	1	1	-0.37573799	-3.6900001	36.014	-16.837
235	1	5	0.21290299	-3.329	36.633999	-16.027
236	1	1	0.11348	-3.266	36.301998	-18.146
237	1	5	0.217127	-2.6140001	37.143002	-18.346001
238	1	1	-0.247673	-3.6989999	35.470001	-19.174999
239	1	1	-0.170178	-4.5089998	34.383999	-18.929001
240	1	1	-0.145321	-4.9460001	34.074001	-17.643
241	1	5	0.219936	-5.5830002	33.215	-17.469999
242	1	1	0.71202499	-4.7659998	33.723	-20.205
243	1	2	-0.53384203	-5.5100002	32.720001	-20.370001
244	1	3	-0.52969801	-4.092	34.417999	-21.261
245	1	1	0.233124	-4.0970001	34.101002	-22.664
246	1	1	-0.391554	-4.098	32.763	-23.091999
247	1	5	0.218679	-4.0640001	31.955999	-22.372
248	1	1	0.0059310002	-4.1100001	32.452999	-24.454
249	1	5	0.230474	-4.0929999	31.415001	-24.761
250	1	1	-0.714688	-4.1329999	33.478001	-25.409
251	1	6	1.3070461	-4.1129999	33.085999	-27.164
252	1	2	-0.77273601	-4.842	34.174999	-27.919001
253	1	1	-0.68177402	-4.9619999	31.525	-27.443001
254	1	1	-0.016043	-6.3639998	31.492001	-27.483
255	1	5	0.228919	-6.9369998	32.403	-27.375999
256	1	1	-0.26733899	-7.033	30.277	-27.660999
257	1	5	0.247472	-8.1149998	30.254999	-27.695
258	1	1	-0.187286	-6.3059998	29.09	-27.789
259	1	5	0.236072	-6.8249998	28.15	-27.926001
260	1	1	-0.26733899	-4.9099998	29.115999	-27.733
261	1	5	0.247472	-4.349	28.195	-27.823999
262	1	1	-0.016043	-4.2379999	30.329	-27.555
263	1	5	0.228919	-3.1570001	30.329	-27.500999
264	1	1	-0.714688	-2.427	32.992001	-27.782
265	1	1	0.0059310002	-1.349	32.816002	-26.903999
266	1	5	0.230474	-1.5109999	32.759998	-25.836
267	1	1	-0.391554	-0.048	32.702999	-27.402
268	1	5	0.218679	0.76899999	32.554001	-26.708
269	1	1	0.233124	0.192	32.75	-28.784
270	1	3	-0.52969801	1.531	32.632999	-29.296
271	1	1	0.715469	2.734	33.166	-28.731001
272	1	2	-0.53384203	2.7810001	33.889	-27.701
273	1	1	-0.247673	3.8789999	32.794998	-29.555
274	1	1	0.11348	5.2309999	33.092999	-29.415001
275	1	5	0.217127	5.5869999	33.698002	-28.591
276	1	1	-0.37573799	6.1220002	32.596001	-30.382
277	1	5	0.21290299	7.1690001	32.853001	-30.302
278	1	1	0.258692	5.651	31.802	-31.462999
279	1	3	-0.46584001	6.5479999	31.304001	-32.470001
280	1	4	0.33208901	6.1739998	31.145	-33.432999
281	1	1	0.82670403	7.8969998	30.888	-32.216999
282	1	2	-0.52372098	8.3290005	30.753	-31.042
283	1	1	-0.145321	4.2690001	31.542999	-31.586
284	1	5	0.219936	3.8800001	30.957001	-32.41
285	1	1	-0.170178	3.4100001	32.049	-30.614
286	1	1	0.71202499	1.962	31.937	-30.471001
287	1	2	-0.53384203	1.2	31.285999	-31.235001
288	1	1	-0.391554	-0.89300001	32.909	-29.660999
289	1	5	0.218679	-0.73299998	32.960999	-30.73
290	1	1	0.0059310002	-2.1930001	33.027	-29.163
291	1	5	0.230474	-3.0179999	33.143002	-29.854
292	1	1	0.0059310002	-4.1110001	34.813999	-24.989
293	1	5	0.230474	-4.1100001	35.616001	-25.715
294	1	1	-0.391554	-4.099	35.125	-23.625999
295	1	5	0.218679	-4.1149998	36.165001	-23.325001
296	1	1	0.715469	-3.428	35.507	-20.608
297	1	2	-0.53384203	-2.6800001	36.34	-21.188
298	1	7	-0.48309001	8.5179996	30.655001	-33.014
299	1	8	0.135919	7.974	31.284	-34.143002
300	1	9	0.117438	8.4219999	30.830999	-35.053001
301	1	9	0.117438	6.8719997	31.125999	-34.183998
302	1	8	0.105455	8.2880001	32.775002	-34.119999
303	1	9	0.10295	9.3889999	32.922001	-34.085999
304	1	9	0.10295	7.835	33.237	-33.216
305	1	7	-0.429129	7.7579999	33.389999	-35.289001
306	1	1	0.49872899	7.9029999	34.758999	-35.519001
307	1	1	-0.252424	9.0089998	35.238998	-36.230999
308	1	10	-0.03709	10.334	34.034	-36.905998
309	1	1	0.029084001	9.1560001	36.611	-36.460999
310	1	5	0.219212	10.031	36.937	-37.004002
311	1	1	-0.25240299	8.1870003	37.532001	-36.000999
312	1	8	0.022908	8.3149996	39.054001	-36.208
313	1	1	-0.25240299	6.987	39.609001	-36.759998
314	1	1	0.029084001	6.3590002	40.759998	-36.233002
315	1	5	0.219212	6.7810001	41.300999	-35.400002
316	1	1	-0.252424	5.164	41.238998	-36.779999
317	1	10	-0.03709	4.3569999	42.805	-36.029999
318	1	1	0.49872899	4.5749998	40.584	-37.868999
319	1	7	-0.429129	3.3789999	41.058998	-38.409
320	1	8	0.105455	2.118	40.597	-37.935001
321	1	9	0.10295	2.0209999	40.811001	-36.848
322	1	9	0.10295	2.04	39.499001	-38.09
323	1	8	0.135919	0.99699998	41.292	-38.694
324	1	9	0.117439	1.102	41.081001	-39.780998
325	1	9	0.117439	0.018999999	40.895	-38.341
326	1	7	-0.48309001	1.056	42.673	-38.466999
327	1	1	-0.252424	5.2010002	39.462002	-38.424999
328	1	10	-0.03709	4.448	38.570999	-39.943001
329	1	1	0.029084001	6.395	38.985001	-37.879002
330	1	5	0.219212	6.8649998	38.118999	-38.330002
331	1	8	-0.127809	9.4200001	39.439999	-37.220001
332	1	11	0.094835997	10.429	39.183998	-36.833
333	1	11	0.094835997	9.4060001	40.536999	-37.407001
334	1	11	0.094835997	9.2670002	38.926998	-38.194
335	1	8	-0.127809	8.7049999	39.661999	-34.839001
336	1	11	0.094835997	8.9449997	40.743	-34.93
337	1	11	0.094835997	9.6090002	39.157001	-34.435001
338	1	11	0.094835997	7.8850002	39.537998	-34.098
339	1	1	0.029084001	7.086	37.028	-35.278
340	1	5	0.219212	6.3319998	37.703999	-34.895
341	1	1	-0.252424	6.9369998	35.657001	-35.048
342	1	10	-0.03709	5.3990002	35.034	-34.095001
343	1	1	0.82670403	0.27500001	43.087002	-39.008999
344	1	2	-0.52372098	0.52600002	43.683998	-40.09
345	1	3	-0.46584001	-1.061	43.011002	-38.493
346	1	4	0.33208901	-1.169	42.722	-37.493
347	1	1	0.258692	-2.233	43.433998	-39.209999
348	1	1	-0.37573799	-2.345	43.252998	-40.615002
349	1	5	0.21290299	-1.551	42.777	-41.174999
350	1	1	0.11348	-3.503	43.657001	-41.301998
351	1	5	0.217127	-3.5910001	43.521999	-42.372002
352	1	1	-0.247673	-4.5380001	44.226002	-40.563999
353	1	1	-0.170178	-4.4489999	44.382	-39.199001
354	1	1	-0.145321	-3.313	43.990002	-38.492001
355	1	5	0.219936	-3.2620001	44.120998	-37.417999
356	1	1	0.71202499	-5.6919999	44.988998	-38.737999
357	1	2	-0.53384203	-5.9440002	45.323002	-37.549999
358	1	3	-0.52969801	-6.5710001	45.209	-39.848
359	1	1	0.233124	-7.8839998	45.797001	-39.826
360	1	1	-0.391554	-8.7559996	45.549999	-38.751999
361	1	5	0.218679	-8.4630003	44.891998	-37.945
362	1	1	0.0059310002	-10.029	46.125999	-38.726002
363	1	5	0.230474	-10.691	45.908001	-37.896999
364	1	1	-0.714688	-10.444	46.966	-39.768002
365	1	6	1.3070461	-12.094	47.68	-39.756001
366	1	2	-0.77273601	-12.06	49.007999	-40.479
367	1	1	-0.68177402	-12.618	47.964001	-38.058998
368	1	1	-0.016043	-12.157	49.092999	-37.367001
369	1	5	0.228919	-11.512	49.810001	-37.855999
370	1	1	-0.26733899	-12.527	49.299999	-36.034
371	1	5	0.247472	-12.173	50.174999	-35.504002
372	1	1	-0.187286	-13.351	48.375999	-35.384998
373	1	5	0.236072	-13.637	48.536999	-34.353001
374	1	1	-0.26733899	-13.799	47.240002	-36.064999
375	1	5	0.247472	-14.429	46.521	-35.558998
376	1	1	-0.016043	-13.429	47.028999	-37.396999
377	1	5	0.228919	-13.775	46.138	-37.904999
378	1	1	-0.714688	-13.267	46.605	-40.594002
379	1	1	0.0059310002	-12.976	45.249001	-40.799999
380	1	5	0.230474	-12.03	44.832001	-40.481998
381	1	1	-0.391554	-13.914	44.415001	-41.415001
382	1	5	0.218679	-13.676	43.368	-41.553001
383	1	1	0.233124	-15.16	44.921001	-41.819
384	1	3	-0.52969801	-16.124001	44.062	-42.451
385	1	1	0.715469	-15.877	43.002998	-43.383999
386	1	2	-0.53384203	-14.742	42.705002	-43.841999
387	1	1	-0.247673	-17.134001	42.367001	-43.761002
388	1	1	0.11348	-17.391001	41.318001	-44.639
389	1	5	0.217127	-16.587999	40.834	-45.181
390	1	1	-0.37573799	-18.726	40.911999	-44.812
391	1	5	0.21290299	-18.938999	40.123001	-45.52
392	1	1	0.258692	-19.777	41.549999	-44.099998
393	1	3	-0.46584001	-21.149	41.159	-44.282001
394	1	4	0.33208901	-21.893	41.877998	-44.139999
395	1	1	0.82670403	-21.579	39.813	-44.523998
396	1	2	-0.52372098	-20.787001	38.841	-44.403
397	1	1	-0.145321	-19.48	42.627998	-43.237
398	1	5	0.219936	-20.263	43.144001	-42.696999
399	1	1	-0.170178	-18.148001	43.008999	-43.085999
400	1	1	0.71202499	-17.545	44.057999	-42.271
401	1	2	-0.53384203	-18.167	44.821999	-41.485001
402	1	1	-0.391554	-15.453	46.275002	-41.595001
403	1	5	0.218679	-16.402	46.692001	-41.909
404	1	1	0.0059310002	-14.513	47.110001	-40.984001
405	1	5	0.230474	-14.759	48.150002	-40.813999
406	1	1	0.0059310002	-9.5869999	47.198002	-40.851002
407	1	5	0.230474	-9.901	47.830002	-41.671001
408	1	1	-0.391554	-8.3129997	46.623001	-40.877998
409	1	5	0.218679	-7.6560001	46.842999	-41.709999
410	1	1	0.715469	-5.842	44.728001	-40.984001
411	1	2	-0.53384203	-6.29	44.701	-42.161999
412	1	7	-0.48309001	-22.570999	39.629002	-44.764999
413	1	8	0.135919	-23.096001	40.835999	-45.248001
414	1	9	0.117438	-24.205	40.771	-45.237
415	1	9	0.117438	-22.792	41.682999	-44.592999
416	1	8	0.105455	-22.622999	41.084	-46.675999
417	1	9	0.10295	-22.937	40.236	-47.323002
418	1	9	0.10295	-21.514	41.158001	-46.694
419	1	7	-0.429129	-23.193001	42.293999	-47.160999
420	1	1	0.49872899	-22.921	42.759998	-48.448002
421	1	1	-0.252424	-23.745001	42.390999	-49.519001
422	1	10	-0.03709	-25.257999	41.250999	-49.237999
423	1	1	0.029084001	-23.473	42.855999	-50.810001
424	1	5	0.219212	-24.128	42.535999	-51.605999
425	1	1	-0.25240299	-22.381001	43.719002	-51.054001
426	1	8	0.022908	-22.024	44.240002	-52.460999
427	1	1	-0.25240299	-21.802999	45.764	-52.401001
428	1	1	0.029084001	-20.690001	46.400002	-52.995998
429	1	5	0.219212	-19.927999	45.837002	-53.512001
430	1	1	-0.252424	-20.540001	47.790001	-52.933998
431	1	10	-0.03709	-19.014999	48.601002	-53.758999
432	1	1	0.49872899	-21.503	48.574001	-52.285
433	1	7	-0.429129	-21.349001	49.959	-52.217999
434	1	8	0.105455	-20.664	50.576	-51.132999
435	1	9	0.10295	-19.622999	50.191002	-51.075001
436	1	9	0.10295	-21.184999	50.34	-50.18
437	1	8	0.135919	-20.639999	52.084999	-51.330002
438	1	9	0.117439	-21.684	52.465	-51.395
439	1	9	0.117439	-20.136999	52.556999	-50.457001
440	1	7	-0.48309001	-19.944	52.397999	-52.504002
441	1	1	-0.252424	-22.629	47.963001	-51.721001
442	1	10	-0.03709	-23.987	49.008999	-50.868
443	1	1	0.029084001	-22.778	46.575001	-51.784
444	1	5	0.219212	-23.660999	46.125999	-51.346001
445	1	8	-0.127809	-23.139	43.987	-53.504002
446	1	11	0.094835997	-23.273001	42.901001	-53.696999
447	1	11	0.094835997	-22.877001	44.465	-54.473
448	1	11	0.094835997	-24.108	44.414001	-53.165001
449	1	8	-0.127809	-20.768999	43.460999	-52.924
450	1	11	0.094835997	-20.524	43.682999	-53.984001
451	1	11	0.094835997	-20.945	42.365002	-52.848999
452	1	11	0.094835997	-19.889999	43.709	-52.291
453	1	1	0.029084001	-21.558001	44.070999	-49.964001
454	1	5	0.219212	-20.702	44.716999	-50.116001
455	1	1	-0.252424	-21.829	43.608002	-48.674
456	1	10	-0.03709	-20.698	44.154999	-47.23
457	1	1	0.82670403	-19.966	53.431999	-52.584
458	1	2	-0.52372098	-20.75	53.967999	-53.411999
459	1	3	-0.46584001	-19.070999	54.220001	-51.785999
460	1	4	0.33208901	-18.291	53.715	-51.306
461	1	1	0.258692	-19.096001	55.655998	-51.717999
462	1	1	-0.37573799	-20.320999	56.375999	-51.762001
463	1	5	0.21290299	-21.264999	55.854	-51.833
464	1	1	0.11348	-20.332001	57.778999	-51.679001
465	1	5	0.217127	-21.263	58.331001	-51.713001
466	1	1	-0.247673	-19.113001	58.438	-51.540001
467	1	1	-0.170178	-17.924	57.747002	-51.470001
468	1	1	-0.145321	-17.882999	56.355999	-51.549999
469	1	5	0.219936	-16.937	55.831001	-51.493
470	1	1	0.71202499	-16.851	58.722	-51.313999
471	1	2	-0.53384203	-15.621	58.452	-51.265999
472	1	3	-0.52969801	-17.393999	60.048	-51.283001
473	1	1	0.233124	-16.677	61.287998	-51.154999
474	1	1	-0.391554	-15.541	61.372002	-50.332001
475	1	5	0.218679	-15.21	60.514999	-49.762001
476	1	1	0.0059310002	-14.839	62.575001	-50.213001
477	1	5	0.230474	-13.976	62.620998	-49.561001
478	1	1	-0.714688	-15.256	63.707001	-50.924
479	1	6	1.3070461	-14.376	65.265999	-50.747002
480	1	2	-0.77273601	-14.5	66.049004	-52.035
481	1	1	-0.68177402	-12.635	64.945	-50.433998
482	1	1	-0.016043	-11.783	64.621002	-51.5
483	1	5	0.228919	-12.162	64.592003	-52.514
484	1	1	-0.26733899	-10.436	64.332001	-51.261002
485	1	5	0.247472	-9.7810001	64.085999	-52.087002
486	1	1	-0.187286	-9.9370003	64.353996	-49.956001
487	1	5	0.236072	-8.8940001	64.128998	-49.771999
488	1	1	-0.26733899	-10.785	64.658997	-48.888
489	1	5	0.247472	-10.399	64.667999	-47.876999
490	1	1	-0.016043	-12.133	64.947998	-49.124001
491	1	5	0.228919	-12.779	65.169998	-48.284
492	1	1	-0.714688	-15.074	66.249001	-49.411999
493	1	1	0.0059310002	-15.87	65.654999	-48.424
494	1	5	0.230474	-16.1	64.598	-48.460999
495	1	1	-0.391554	-16.371	66.422997	-47.368
496	1	5	0.218679	-16.972	65.942001	-46.608002
497	1	1	0.233124	-16.070999	67.792	-47.278999
498	1	3	-0.52969801	-16.587	68.581001	-46.194
499	1	1	0.715469	-17.872	68.481003	-45.57
500	1	2	-0.53384203	-18.785999	67.696999	-45.939999
501	1	1	-0.247673	-17.98	69.454002	-44.490002
502	1	1	0.11348	-19.033001	69.734001	-43.623001
503	1	5	0.217127	-19.969	69.193001	-43.688999
504	1	1	-0.37573799	-18.851	70.748001	-42.667
505	1	5	0.21290299	-19.677	70.998001	-42.014
506	1	1	0.258692	-17.621	71.456001	-42.584
507	1	3	-0.46584001	-17.429001	72.509003	-41.624001
508	1	4	0.33208901	-16.764999	73.280998	-41.861
509	1	1	0.82670403	-17.99	72.512001	-40.305
510	1	2	-0.52372098	-18.544001	71.487	-39.827
511	1	1	-0.145321	-16.586	71.162003	-43.497002
512	1	5	0.219936	-15.645	71.697998	-43.469002
513	1	1	-0.170178	-16.794001	70.153	-44.433998
514	1	1	0.71202499	-15.92	69.626999	-45.478001
515	1	2	-0.53384203	-14.736	69.998001	-45.695
516	1	1	-0.391554	-15.259	68.378998	-48.263
517	1	5	0.218679	-15.025	69.434998	-48.223999
518	1	1	0.0059310002	-14.763	67.611	-49.32
519	1	5	0.230474	-14.134	68.080002	-50.066002
520	1	1	0.0059310002	-16.4	63.634998	-51.729
521	1	5	0.230474	-16.745001	64.507004	-52.27
522	1	1	-0.391554	-17.103001	62.432999	-51.849998
523	1	5	0.218679	-17.965	62.391998	-52.502998
524	1	1	0.715469	-18.808001	59.860001	-51.423
525	1	2	-0.53384203	-19.659	60.790001	-51.396999
526	1	7	-0.48309001	-17.905001	73.362	-39.716
527	1	8	0.135919	-17.669001	74.432999	-40.589001
528	1	9	0.117438	-17.282	75.292	-40.000999
529	1	9	0.117438	-16.899	74.155998	-41.345001
530	1	8	0.105455	-18.961	74.844002	-41.285
531	1	9	0.10295	-19.719999	75.124001	-40.522999
532	1	9	0.10295	-19.349001	73.990997	-41.882999
533	1	7	-0.429129	-18.708	75.953003	-42.139999
534	1	1	0.49872899	-19.725	76.528999	-42.903
535	1	1	-0.252424	-20.478001	77.589996	-42.382999
536	1	10	-0.03709	-20.124001	78.271004	-40.630001
537	1	1	0.029084001	-21.497999	78.167999	-43.146
538	1	5	0.219212	-22.061001	78.973999	-42.701
539	1	1	-0.25240299	-21.774	77.709999	-44.453999
540	1	8	0.022908	-22.902	78.295998	-45.326
541	1	1	-0.25240299	-22.353001	78.611	-46.730999
542	1	1	0.029084001	-23.02	78.232002	-47.917999
543	1	5	0.219212	-23.950001	77.683998	-47.890999
544	1	1	-0.252424	-22.493999	78.556999	-49.172001
545	1	10	-0.03709	-23.440001	78.021004	-50.748001
546	1	1	0.49872899	-21.295	79.275002	-49.269001
547	1	7	-0.429129	-20.767	79.593002	-50.521
548	1	8	0.105455	-19.857	78.721001	-51.182999
549	1	9	0.10295	-20.330999	77.727997	-51.34
550	1	9	0.10295	-18.947001	78.586998	-50.558998
551	1	8	0.135919	-19.461	79.315002	-52.527
552	1	9	0.117439	-18.993	80.311996	-52.365002
553	1	9	0.117439	-18.719999	78.643997	-53.015999
554	1	7	-0.48309001	-20.593	79.444	-53.34
555	1	1	-0.252424	-20.639	79.689003	-48.103001
556	1	10	-0.03709	-19.024	80.711998	-48.199001
557	1	1	0.029084001	-21.166	79.363998	-46.849998
558	1	5	0.219212	-20.643999	79.700996	-45.963001
559	1	8	-0.127809	-23.483	79.615997	-44.763
560	1	11	0.094835997	-24.011	79.445999	-43.799999
561	1	11	0.094835997	-24.221001	80.046997	-45.473999
562	1	11	0.094835997	-22.681	80.370003	-44.605999
563	1	8	-0.127809	-24.047001	77.253998	-45.34
564	1	11	0.094835997	-24.954	77.655998	-45.84
565	1	11	0.094835997	-24.336	76.983002	-44.300999
566	1	11	0.094835997	-23.733	76.322998	-45.860001
567	1	1	0.029084001	-21.01	76.634003	-44.955002
568	1	5	0.219212	-21.204	76.245003	-45.945999
569	1	1	-0.252424	-19.99	76.056	-44.194
570	1	10	-0.03709	-18.962	74.626999	-44.945999
571	1	1	0.82670403	-20.26	79.855003	-54.233002
572	1	2	-0.52372098	-20.476999	81.072998	-54.467999
573	1	3	-0.46584001	-19.605	79.014999	-55.194
574	1	4	0.33208901	-19.671	77.982002	-55.047001
575	1	1	0.258692	-18.992001	79.492996	-56.403999
576	1	1	-0.37573799	-18.313	80.739998	-56.445
577	1	5	0.21290299	-18.23	81.352997	-55.556999
578	1	1	0.11348	-17.705	81.189003	-57.631001
579	1	5	0.217127	-17.188	82.139	-57.665001
580	1	1	-0.247673	-17.778	80.371002	-58.756001
581	1	1	-0.170178	-18.412001	79.149002	-58.716999
582	1	1	-0.145321	-19.023001	78.679001	-57.556999
583	1	5	0.219936	-19.517	77.714996	-57.547001
584	1	1	0.71202499	-18.297001	78.546997	-60.041