Title

149 atoms
158 bonds
277 angles
441 dihedrals
168 impropers

10 atom types
14 bond types
9 angle types
19 dihedral types
3 improper types
-5.508999825 94.49100018 xlo xhi
-7.627999783 92.37200022 ylo yhi
-3.470999956 96.52900004 zlo zhi
0.0 0.0 0.0 xy xz yz

Masses

1	14.00672
2	12.01078
3	1.007947
4	12.01078
5	1.007947
6	18.998403
7	15.99943
8	1.007947
9	15.99943
10	1.007947


Pair Coeffs

1	0.16769152	3.206876
2	0.086879315	3.4806469
3	0.015611343	2.5725815
4	0.10884061	3.3795318
5	0.014090815	1.1034277
6	0.061	3.1181455
7	0.2102061	3.0398122
8	0.015779483	2.6445434
9	0.20947353	2.99716
10	1.2326e-05	0.53453923

Bond Coeffs

1 harmonic	390.03554688505	1.390160554689
2 harmonic	505.144496193	1.019481865027
3 harmonic	422.7150220147	1.421786517481
4 harmonic	360.7852444772	1.387193227181
5 harmonic	397.2545789619	1.085358495916
6 harmonic	289.73813263395	1.498646816465
7 harmonic	264.62148576755	1.52190126495
8 harmonic	492.76746816345	1.381897776683
9 harmonic	340.45121009905	1.358690858053
10 harmonic	582.698766451	1.225198386222
11 harmonic	279.1350963404	1.454628925034
12 harmonic	370.04670688625	1.093899492634
13 harmonic	385.7604595587	1.369745182308
14 harmonic	543.5267831885	0.9716763312559


Angle Coeffs

1 harmonic	57.8982893754	126.8062420451
2 harmonic	55.42182150775	117.3465570514
3 harmonic	63.44422595415	115.5071327674
4 harmonic	34.066775159195	129.1835929926
5 harmonic	53.20531626545	116.5475862634
6 harmonic	14.32262199324	138.3184368373
7 harmonic	48.776492647595	115.6030999533
8 harmonic	65.09061609600001	110.3538806181
9 harmonic	201.41175231035	127.4691416191


Dihedral Coeffs

1 fourier 1	3.661930099076	2	180
2 fourier 1	1.193093382682	2	180
3 fourier 1	0.02021088501612	1	0
4 fourier 1	0.02664938770063	3	0
5 fourier 1	0.1155372516788	3	0
6 fourier 1	3.101948770557	2	180
7 fourier 1	-0.4252153282372	1	0
8 fourier 1	1.809047390003	2	180
9 fourier 1	-0.04816277792592	1	0
10 fourier 1	0.9974165607242	2	180
11 fourier 1	2.348375642009	2	180
12 fourier 1	1.256156174911	1	0
13 fourier 1	0.09223874044423	3	0
14 fourier 1	0.3159935921949	2	180
15 fourier 1	0.3247796806857	1	180
16 fourier 1	0.1040663847541	3	0
17 fourier 1	2.687457892086	2	180
18 fourier 1	2.772607909663	2	180
19 fourier 1	0.09692684957115	1	0


Improper Coeffs

1 0.3666666666666667	-1	2
2 0.3333333333333333	-1	2
3 3.5	-1	2


Atoms

1	1	1	-0.41166899	-4.6230001	-1.209	1.8329999
2	1	2	0.140864	-3.4860001	-0.90600002	1.02
3	1	2	-0.407314	-3.2179999	-1.633	-0.072999999
4	1	3	0.22446001	-3.8610001	-2.457	-0.35600001
5	1	2	-0.13319001	-2.0439999	-1.318	-0.91299999
6	1	3	0.214323	-1.9	-1.925	-1.791
7	1	2	-0.095362999	-1.199	-0.31200001	-0.583
8	1	4	-0.26280001	0.02	0.093999997	-1.446
9	1	2	-0.095362999	1.2130001	0.37599999	-0.50099999
10	1	2	-0.145917	2.0650001	1.416	-0.667
11	1	3	0.214323	1.9450001	2.1370001	-1.4579999
12	1	2	-0.377691	3.214	1.6109999	0.241
13	1	3	0.220873	3.8629999	2.4649999	0.092
14	1	2	0.209435	3.451	0.74299997	1.233
15	1	1	-0.53189701	4.5630002	0.93000001	2.112
16	1	5	0.31977499	5.2080002	1.744	2.0020001
17	1	2	-0.377691	2.5569999	-0.419	1.41
18	1	3	0.220873	2.75	-1.1339999	2.2
19	1	2	-0.145917	1.512	-0.59600002	0.59399998
20	1	3	0.214323	0.87800002	-1.461	0.74299997
21	1	4	0.75313598	-0.42500001	1.344	-2.279
22	1	6	-0.200719	0.49900001	1.655	-3.263
23	1	6	-0.200719	-1.636	1.099	-2.908
24	1	6	-0.200719	-0.58999997	2.4489999	-1.46
25	1	4	0.75313598	0.491	-1.033	-2.428
26	1	6	-0.200719	-0.40400001	-1.206	-3.471
27	1	6	-0.200719	1.719	-0.70700002	-2.983
28	1	6	-0.200719	0.63499999	-2.2390001	-1.763
29	1	2	-0.13319001	-1.5319999	0.50300002	0.625
30	1	3	0.214323	-0.90399998	1.3380001	0.90899998
31	1	2	-0.407314	-2.5999999	0.219	1.3789999
32	1	3	0.22446001	-2.8169999	0.81999999	2.2520001
33	1	5	0.37314901	-5.2620001	-1.999	1.594
34	1	2	0.76842201	4.7519999	0.23800001	2.898
35	1	7	-0.657269	4.5780001	-0.991	2.6819999
36	1	2	-0.37068701	5.2090001	0.71600002	4.2150002
37	1	2	-0.079042003	5.388	2.0280001	4.4289999
38	1	3	0.224501	5.197	2.7479999	3.642
39	1	2	-0.249295	5.8449998	2.5190001	5.7459998
40	1	3	0.214581	5.9489999	3.5869999	5.8629999
41	1	2	-0.209986	6.1199999	1.658	6.75
42	1	4	0.024866	6.5609999	2.1210001	8.1490002
43	1	4	-0.131551	7.0910001	3.575	8.1940002
44	1	8	0.08766	6.276	4.302	7.994
45	1	8	0.08766	7.5040002	3.8110001	9.198
46	1	8	0.08766	7.8990002	3.721	7.4450002
47	1	2	-0.12523	7.632	1.222	8.6829996
48	1	2	-0.152558	8.8199997	0.954	8.1199999
49	1	3	0.213956	9.0939999	1.39	7.1680002
50	1	2	-0.00057799998	9.757	0.046999998	8.823
51	1	3	0.214711	10.713	-0.17399999	8.3640003
52	1	2	-0.34579301	9.4230003	-0.49000001	10.016
53	1	2	0.58598202	10.363	-1.388	10.708
54	1	7	-0.51462603	10.067	-1.898	11.822
55	1	2	0.070546001	8.1009998	-0.164	10.621
56	1	3	0.208516	7.8189998	-0.57300001	11.582
57	1	2	-0.181224	7.2639999	0.64899999	9.9580002
58	1	4	-0.027269	5.9109998	1.114	10.393
59	1	4	-0.13114201	6.0349998	2.0009999	11.646
60	1	8	0.091894001	6.4439998	1.42	12.5
61	1	8	0.091894001	6.711	2.8610001	11.452
62	1	8	0.091894001	5.039	2.3970001	11.939
63	1	4	-0.13114201	4.9850001	-0.085000001	10.677
64	1	8	0.091894001	5.3509998	-0.671	11.547
65	1	8	0.091894001	4.9369998	-0.759	9.7950001
66	1	8	0.091894001	3.957	0.27000001	10.906
67	1	4	-0.18120299	5.3920002	1.944	9.1739998
68	1	8	0.130119	4.9819999	2.927	9.4989996
69	1	8	0.130119	4.533	1.425	8.6929998
70	1	2	-0.249295	5.8909998	0.204	6.5079999
71	1	3	0.214581	6.0580001	-0.51300001	7.302
72	1	2	-0.079042003	5.4699998	-0.23800001	5.3169999
73	1	3	0.224501	5.3130002	-1.299	5.171
74	1	1	-0.41166899	-4.8309999	-0.63999999	2.684
75	1	2	0.140864	-4.1989999	-0.94199997	3.9300001
76	1	2	-0.407314	-4.4660001	-0.21600001	5.0240002
77	1	3	0.22446001	-5.1669998	0.60799998	4.9770002
78	1	2	-0.13319001	-3.813	-0.53100002	6.3109999
79	1	3	0.214323	-4.0910001	0.077	7.1560001
80	1	2	-0.095362999	-2.911	-1.5369999	6.408
81	1	4	-0.26280001	-2.2290001	-1.943	7.7379999
82	1	2	-0.095362999	-0.73400003	-2.2249999	7.4499998
83	1	2	-0.090585999	-0.055	-3.2639999	7.9910002
84	1	3	0.214323	-0.52700001	-3.9860001	8.6370001
85	1	2	-0.45374799	1.3839999	-3.46	7.7160001
86	1	3	0.22989599	1.89	-4.3140001	8.1479998
87	1	2	0.33364299	2.052	-2.592	6.9460001
88	1	1	-0.844423	3.4449999	-2.779	6.6799998
89	1	5	0.366896	3.9649999	-2.099	6.0819998
90	1	5	0.366896	3.9660001	-3.5929999	7.0770001
91	1	2	-0.45374799	1.341	-1.4299999	6.3759999
92	1	3	0.22989599	1.877	-0.71499997	5.7649999
93	1	2	-0.090585999	0.037999999	-1.253	6.6170001
94	1	3	0.214323	-0.456	-0.38800001	6.1919999
95	1	4	0.75313598	-3.0079999	-3.1930001	8.2709999
96	1	6	-0.200719	-2.6429999	-3.5039999	9.5699997
97	1	6	-0.200719	-4.3720002	-2.948	8.2690001
98	1	6	-0.200719	-2.776	-4.2979999	7.4679999
99	1	4	0.75313598	-2.2639999	-0.81599998	8.8260002
100	1	6	-0.200719	-3.54	-0.64300001	9.3380003
101	1	6	-0.200719	-1.431	-1.142	9.8850002
102	1	6	-0.200719	-1.83	0.38999999	8.302
103	1	2	-0.13319001	-2.648	-2.352	5.1830001
104	1	3	0.214323	-1.96	-3.187	5.2220001
105	1	2	-0.407314	-3.247	-2.0669999	4.0219998
106	1	3	0.22446001	-3.0350001	-2.6689999	3.1470001
107	1	5	0.37314901	-5.5089998	0.15099999	2.5999999
108	1	2	0.59148598	11.322	-1.62	10.265
109	1	7	-0.52506101	11.395	-1.779	9.0170002
110	1	2	-0.334308	12.514	-1.7460001	11.124
111	1	2	0.0046939999	13.724	-2.03	10.613
112	1	3	0.22232699	13.86	-2.175	9.5489998
113	1	2	-0.24268401	14.899	-2.148	11.499
114	1	3	0.214581	15.859	-2.3599999	11.045
115	1	2	-0.209986	14.786	-1.993	12.837
116	1	4	0.024866	16.035	-2.095	13.73
117	1	4	-0.131551	15.707	-2.148	15.239
118	1	8	0.08766	14.999	-2.977	15.46
119	1	8	0.08766	15.261	-1.1900001	15.581
120	1	8	0.08766	16.629999	-2.316	15.836
121	1	2	-0.12523	16.834999	-3.3139999	13.386
122	1	2	-0.171865	16.415001	-4.5869999	13.389
123	1	3	0.213956	15.393	-4.8330002	13.645
124	1	2	-0.061457001	17.374001	-5.6589999	13.033
125	1	3	0.231114	17.024	-6.6830001	13.032
126	1	2	-0.22755501	18.655001	-5.3579998	12.72
127	1	2	0.83543497	19.625	-6.4169998	12.366
128	1	7	-0.47969899	19.275	-7.6279998	12.348
129	1	9	-0.66435099	20.938	-6.0809999	12.048
130	1	10	0.41812399	21.613001	-6.796	11.803
131	1	2	0.0052519999	19.091	-3.9319999	12.736
132	1	3	0.22382499	20.114	-3.6670001	12.502
133	1	2	-0.175405	18.200001	-2.9790001	13.049
134	1	4	-0.027269	18.438	-1.505	13.139
135	1	4	-0.13114201	18.989	-0.958	11.808
136	1	8	0.091894001	19.997	-1.373	11.595
137	1	8	0.091894001	18.315001	-1.226	10.966
138	1	8	0.091894001	19.072001	0.149	11.853
139	1	4	-0.13114201	19.417	-1.197	14.287
140	1	8	0.091894001	19.032	-1.601	15.249
141	1	8	0.091894001	20.410999	-1.651	14.09
142	1	8	0.091894001	19.551001	-0.098999999	14.396
143	1	4	-0.18120299	17.021999	-0.91500002	13.442
144	1	8	0.130119	17.056999	-0.197	14.291
145	1	8	0.130119	16.663	-0.31099999	12.579
146	1	2	-0.24268401	13.439	-1.659	13.389
147	1	3	0.214581	13.29	-1.501	14.447
148	1	2	0.0046939999	12.376	-1.549	12.583
149	1	3	0.22232699	11.409	-1.309	13.007

Bonds

1	1	1	2
2	2	1	33
3	3	1	74
4	4	2	3
5	4	2	31
6	5	3	4
7	4	3	5
8	5	5	6
9	4	5	7
10	6	7	8
11	4	7	29
12	6	8	9
13	7	8	21
14	7	8	25
15	4	9	10
16	4	9	19
17	5	10	11
18	4	10	12
19	5	12	13
20	4	12	14
21	1	14	15
22	4	14	17
23	2	15	16
24	8	15	34
25	5	17	18
26	4	17	19
27	5	19	20
28	9	21	22
29	9	21	23
30	9	21	24
31	9	25	26
32	9	25	27
33	9	25	28
34	5	29	30
35	4	29	31
36	5	31	32
37	10	34	35
38	11	34	36
39	4	36	37
40	4	36	72
41	5	37	38
42	4	37	39
43	5	39	40
44	4	39	41
45	6	41	42
46	4	41	70
47	7	42	43
48	6	42	47
49	7	42	67
50	12	43	44
51	12	43	45
52	12	43	46
53	4	47	48
54	4	47	57
55	5	48	49
56	4	48	50
57	5	50	51
58	4	50	52
59	11	52	53
60	4	52	55
61	10	53	54
62	11	53	108
63	5	55	56
64	4	55	57
65	6	57	58
66	7	58	59
67	7	58	63
68	7	58	67
69	12	59	60
70	12	59	61
71	12	59	62
72	12	63	64
73	12	63	65
74	12	63	66
75	12	67	68
76	12	67	69
77	5	70	71
78	4	70	72
79	5	72	73
80	1	74	75
81	2	74	107
82	4	75	76
83	4	75	105
84	5	76	77
85	4	76	78
86	5	78	79
87	4	78	80
88	6	80	81
89	4	80	103
90	6	81	82
91	7	81	95
92	7	81	99
93	4	82	83
94	4	82	93
95	5	83	84
96	4	83	85
97	5	85	86
98	4	85	87
99	1	87	88
100	4	87	91
101	2	88	89
102	2	88	90
103	5	91	92
104	4	91	93
105	5	93	94
106	9	95	96
107	9	95	97
108	9	95	98
109	9	99	100
110	9	99	101
111	9	99	102
112	5	103	104
113	4	103	105
114	5	105	106
115	10	108	109
116	11	108	110
117	4	110	111
118	4	110	148
119	5	111	112
120	4	111	113
121	5	113	114
122	4	113	115
123	6	115	116
124	4	115	146
125	7	116	117
126	6	116	121
127	7	116	143
128	12	117	118
129	12	117	119
130	12	117	120
131	4	121	122
132	4	121	133
133	5	122	123
134	4	122	124
135	5	124	125
136	4	124	126
137	11	126	127
138	4	126	131
139	10	127	128
140	13	127	129
141	14	129	130
142	5	131	132
143	4	131	133
144	6	133	134
145	7	134	135
146	7	134	139
147	7	134	143
148	12	135	136
149	12	135	137
150	12	135	138
151	12	139	140
152	12	139	141
153	12	139	142
154	12	143	144
155	12	143	145
156	5	146	147
157	4	146	148
158	5	148	149

Angles

1	6	42	47	48
2	1	47	57	58
3	4	52	55	56
4	4	56	55	57
5	5	26	25	27
6	5	58	67	68
7	5	81	95	96
8	5	23	21	24
9	7	44	43	46
10	4	115	146	147
11	5	116	117	118
12	3	2	1	33
13	4	14	17	18
14	4	75	76	77
15	5	42	43	45
16	5	47	42	67
17	4	38	37	39
18	4	82	83	84
19	5	82	81	95
20	3	87	88	90
21	1	15	14	17
22	5	59	58	63
23	5	8	21	23
24	1	10	9	19
25	5	7	8	25
26	4	10	12	13
27	1	12	14	15
28	1	53	108	110
29	1	121	122	124
30	4	48	50	51
31	5	115	116	117
32	1	1	2	3
33	5	134	135	136
34	1	41	70	72
35	5	81	99	102
36	1	9	10	12
37	5	139	134	143
38	4	37	39	40
39	5	81	95	97
40	1	42	41	70
41	1	81	82	83
42	1	15	34	35
43	1	88	87	91
44	5	63	58	67
45	5	58	59	61
46	1	78	80	81
47	1	74	75	76
48	1	82	83	85
49	5	134	139	142
50	7	140	139	141
51	4	30	29	31
52	4	40	39	41
53	5	8	21	24
54	1	47	57	55
55	4	82	93	94
56	1	53	52	55
57	1	126	131	133
58	1	48	50	52
59	3	75	74	107
60	7	65	63	66
61	1	126	127	128
62	4	112	111	113
63	1	39	41	42
64	5	116	143	145
65	5	7	8	9
66	1	113	115	146
67	4	71	70	72
68	5	133	134	139
69	4	87	91	92
70	1	8	9	19
71	4	9	19	20
72	1	108	110	111
73	1	85	87	88
74	1	83	82	93
75	1	37	36	72
76	1	15	34	36
77	1	50	52	55
78	4	110	148	149
79	3	16	15	34
80	1	2	3	5
81	4	70	72	73
82	5	58	59	62
83	1	42	47	57
84	5	116	143	134
85	4	36	72	73
86	5	133	134	135
87	7	64	63	66
88	4	122	124	125
89	5	115	116	121
90	4	77	76	78
91	5	9	8	25
92	4	123	122	124
93	3	1	74	107
94	1	47	48	50
95	5	43	42	67
96	1	121	133	131
97	1	39	41	70
98	5	8	25	26
99	1	52	53	108
100	1	87	91	93
101	1	34	36	37
102	1	85	87	91
103	5	42	67	68
104	1	82	93	91
105	1	111	113	115
106	3	89	88	90
107	4	49	48	50
108	5	43	42	47
109	5	117	116	143
110	1	116	121	133
111	5	9	8	21
112	2	14	15	34
113	4	2	31	32
114	1	81	80	103
115	4	125	124	126
116	5	80	81	99
117	1	52	55	57
118	5	135	134	139
119	5	26	25	28
120	5	58	67	69
121	4	84	83	85
122	5	116	117	119
123	1	34	36	72
124	1	115	146	148
125	1	14	17	19
126	5	58	63	64
127	1	75	76	78
128	1	110	148	146
129	5	42	43	46
130	4	83	85	86
131	4	80	103	104
132	5	134	139	140
133	1	36	72	70
134	1	35	34	36
135	5	80	81	95
136	1	10	12	14
137	7	60	59	61
138	4	76	78	79
139	5	134	135	137
140	1	124	126	127
141	4	4	3	5
142	1	37	39	41
143	1	54	53	108
144	5	81	95	98
145	5	116	117	120
146	5	27	25	28
147	2	2	1	74
148	1	83	85	87
149	5	117	116	121
150	3	33	1	74
151	4	18	17	19
152	1	2	31	29
153	1	111	110	148
154	5	134	139	141
155	5	95	81	99
156	1	12	14	17
157	5	134	143	144
158	5	22	21	23
159	4	17	19	20
160	1	48	47	57
161	1	52	53	54
162	1	76	78	80
163	1	126	127	129
164	5	134	135	138
165	1	5	7	29
166	4	104	103	105
167	5	135	134	143
168	4	6	5	7
169	1	108	110	148
170	4	92	91	93
171	1	8	7	29
172	4	7	29	30
173	1	113	115	116
174	4	13	12	14
175	4	75	105	106
176	1	74	75	105
177	7	144	143	145
178	5	81	99	100
179	6	116	121	122
180	1	122	124	126
181	1	9	19	17
182	5	22	21	24
183	7	44	43	45
184	1	76	75	105
185	4	36	37	38
186	1	5	7	8
187	5	42	43	44
188	6	55	57	58
189	1	124	126	131
190	4	132	131	133
191	8	127	129	130
192	5	21	8	25
193	5	133	134	143
194	5	8	25	27
195	7	136	135	137
196	5	42	67	69
197	5	8	21	22
198	5	41	42	67
199	4	79	78	80
200	4	91	93	94
201	1	116	115	146
202	4	121	122	123
203	6	131	133	134
204	7	137	135	138
205	7	61	59	62
206	5	80	81	82
207	4	86	85	87
208	5	41	42	47
209	4	110	111	112
210	4	41	70	71
211	4	103	105	106
212	5	81	99	101
213	4	9	10	11
214	4	51	50	52
215	5	96	95	97
216	5	97	95	98
217	1	3	2	31
218	5	58	63	65
219	1	50	52	53
220	1	8	9	10
221	5	101	99	102
222	1	36	37	39
223	5	57	58	67
224	5	58	59	60
225	1	80	103	105
226	5	41	42	43
227	9	128	127	129
228	5	8	25	28
229	1	75	105	103
230	7	136	135	138
231	4	3	5	6
232	7	140	139	142
233	4	126	131	132
234	4	11	10	12
235	7	60	59	62
236	5	121	116	143
237	5	100	99	101
238	5	57	58	63
239	1	110	111	113
240	5	116	143	144
241	5	96	95	98
242	1	78	80	103
243	3	14	15	16
244	5	7	8	21
245	5	58	63	66
246	4	2	3	4
247	4	114	113	115
248	1	121	133	134
249	5	57	58	59
250	1	127	126	131
251	7	141	139	142
252	5	115	116	143
253	1	3	5	7
254	7	118	117	119
255	5	134	143	145
256	7	64	63	65
257	7	119	117	120
258	4	29	31	32
259	7	45	43	46
260	7	68	67	69
261	5	100	99	102
262	1	1	2	31
263	4	47	48	49
264	4	146	148	149
265	3	87	88	89
266	4	147	146	148
267	1	53	108	109
268	5	42	67	58
269	1	109	108	110
270	1	7	29	31
271	2	1	74	75
272	1	122	121	133
273	5	82	81	99
274	4	111	113	114
275	1	81	82	93
276	7	118	117	120
277	5	59	58	67

Dihedrals

1	16	60	59	58	63
2	1	34	36	37	38
3	1	78	80	103	104
4	5	57	58	59	60
5	1	1	2	3	4
6	2	1	74	75	105
7	1	13	12	14	15
8	5	115	116	143	134
9	10	129	127	126	131
10	4	43	42	47	57
11	4	5	7	8	9
12	1	6	5	7	29
13	16	135	134	139	142
14	5	97	95	81	99
15	4	80	81	82	83
16	5	82	81	95	98
17	1	79	78	80	81
18	16	60	59	58	67
19	1	39	41	70	71
20	1	9	19	17	18
21	1	108	110	111	112
22	5	119	117	116	121
23	1	122	121	133	131
24	1	81	82	93	94
25	1	124	126	131	132
26	5	45	43	42	47
27	4	121	116	115	146
28	4	25	8	7	29
29	5	95	81	99	100
30	1	42	47	57	55
31	1	1	2	31	32
32	16	135	134	143	145
33	4	10	9	8	25
34	2	31	2	1	33
35	5	80	81	99	102
36	1	34	36	72	73
37	5	80	81	95	97
38	4	95	81	80	103
39	10	52	53	108	109
40	16	138	135	134	139
41	1	85	87	91	92
42	1	75	105	103	80
43	1	15	14	17	18
44	1	5	3	2	31
45	16	136	135	134	143
46	4	117	116	115	146
47	1	2	3	5	7
48	16	59	58	63	66
49	1	53	52	55	56
50	1	88	87	91	93
51	5	21	8	25	28
52	1	82	83	85	86
53	1	37	36	72	70
54	1	75	76	78	80
55	1	8	7	29	30
56	1	108	110	148	149
57	16	135	134	139	141
58	4	55	57	58	63
59	1	123	122	124	126
60	1	5	7	29	30
61	16	140	139	134	143
62	1	30	29	31	32
63	5	133	134	139	142
64	4	117	116	121	122
65	1	3	2	31	32
66	1	87	91	93	94
67	1	77	76	75	105
68	16	62	59	58	63
69	5	57	58	63	64
70	1	110	111	113	114
71	1	9	10	12	14
72	4	83	82	81	99
73	1	121	122	124	126
74	1	3	5	7	29
75	4	78	80	81	99
76	1	92	91	93	94
77	4	55	57	58	67
78	1	113	115	146	148
79	1	12	14	17	19
80	1	42	41	70	71
81	10	35	34	36	37
82	4	5	7	8	21
83	5	82	81	99	102
84	3	2	1	74	107
85	10	15	34	36	37
86	4	133	121	116	143
87	16	62	59	58	67
88	5	41	42	67	58
89	1	8	9	19	17
90	1	125	124	126	131
91	1	82	93	91	92
92	4	48	47	42	67
93	1	10	12	14	15
94	1	108	110	148	146
95	2	12	14	15	16
96	5	116	143	134	133
97	5	115	116	143	144
98	4	115	116	121	133
99	4	5	7	8	25
100	5	80	81	99	101
101	16	120	117	116	143
102	10	53	108	110	148
103	1	3	2	31	29
104	5	7	8	21	22
105	4	80	81	82	93
106	1	47	48	50	51
107	16	59	58	63	65
108	5	42	67	58	57
109	1	122	121	133	134
110	1	88	87	91	92
111	4	143	116	115	146
112	1	71	70	72	73
113	5	21	8	25	27
114	5	47	42	67	69
115	1	75	76	78	79
116	1	81	80	103	105
117	16	135	134	139	140
118	4	67	42	41	70
119	2	85	87	88	89
120	1	123	122	124	125
121	5	41	42	43	45
122	4	43	42	41	70
123	1	42	47	48	50
124	1	132	131	133	134
125	16	136	135	134	139
126	1	124	122	121	133
127	1	81	82	83	85
128	16	142	139	134	143
129	5	121	116	143	145
130	16	43	42	67	69
131	5	57	58	67	68
132	4	21	8	7	29
133	1	9	19	17	14
134	1	36	37	39	41
135	1	9	10	12	13
136	4	93	82	81	95
137	1	110	148	146	115
138	1	38	37	39	40
139	1	37	39	41	70
140	1	116	121	133	131
141	1	51	50	52	55
142	5	9	8	21	24
143	4	78	80	81	82
144	1	37	36	72	73
145	1	56	55	57	58
146	16	141	139	134	143
147	1	12	14	17	18
148	4	19	9	8	25
149	5	22	21	8	25
150	4	10	9	8	21
151	8	14	15	34	36
151	9	14	15	34	36
152	5	115	116	117	118
153	1	147	146	148	149
154	5	41	42	67	68
155	13	42	67	58	63
155	14	42	67	58	63
155	15	42	67	58	63
156	16	45	43	42	67
157	4	93	82	81	99
158	5	57	58	59	62
159	1	3	5	7	8
160	16	61	59	58	67
161	5	133	134	135	138
162	1	7	29	31	32
163	5	96	95	81	99
164	1	13	12	14	17
165	2	90	88	87	91
166	4	99	81	80	103
167	4	55	57	58	59
168	1	49	48	47	57
169	2	76	75	74	107
170	1	114	113	115	116
171	5	118	117	116	121
172	1	116	115	146	147
173	4	113	115	116	121
174	5	9	8	25	28
175	10	53	108	110	111
176	16	117	116	143	145
177	16	65	63	58	67
178	16	59	58	67	69
179	4	121	133	134	143
180	1	83	85	87	91
181	10	109	108	110	148
182	1	8	9	19	20
183	1	14	17	19	20
184	4	83	82	81	95
185	1	52	55	57	58
186	2	3	2	1	74
187	4	47	57	58	67
188	4	78	80	81	95
189	5	95	81	99	102
190	18	128	127	129	130
190	19	128	127	129	130
191	4	131	133	134	143
192	5	41	42	43	44
193	1	48	50	52	53
194	1	83	85	87	88
195	5	7	8	25	26
196	5	133	134	135	137
197	1	78	76	75	105
198	16	66	63	58	67
199	1	79	78	80	103
200	2	16	15	14	17
201	16	43	42	67	68
202	1	36	37	39	40
203	5	7	8	25	27
204	16	119	117	116	143
205	1	125	124	126	127
206	5	9	8	21	23
207	1	12	10	9	19
208	1	11	10	9	19
209	5	23	21	8	25
210	1	83	82	93	91
211	1	40	39	41	70
212	1	111	113	115	116
213	5	120	117	116	121
214	1	2	31	29	7
215	1	112	111	113	115
216	10	54	53	108	110
217	5	82	81	95	97
218	1	121	133	131	126
219	8	16	15	34	36
219	9	16	15	34	36
220	1	115	146	148	149
221	4	47	42	41	70
222	4	57	47	42	67
223	3	33	1	74	107
224	1	78	80	103	105
225	5	24	21	8	25
226	5	57	58	63	66
227	1	50	52	55	57
228	5	57	58	59	61
229	1	116	121	133	134
230	1	84	83	85	87
231	10	54	53	52	55
232	5	133	134	139	141
233	1	6	5	7	8
234	16	135	134	143	144
235	1	76	78	80	103
236	5	121	116	143	134
237	2	3	2	1	33
238	4	115	116	121	122
239	5	80	81	95	96
240	16	46	43	42	67
241	5	9	8	25	27
242	1	11	10	12	14
243	1	36	72	70	41
244	1	39	37	36	72
245	1	77	76	78	80
246	5	46	43	42	47
247	1	2	3	5	6
248	4	7	8	9	10
249	10	109	108	110	111
250	10	50	52	53	108
251	1	10	12	14	17
252	5	47	42	67	58
253	13	116	143	134	135
253	14	116	143	134	135
253	15	116	143	134	135
254	1	41	70	72	73
255	2	17	14	15	34
256	4	41	42	47	48
257	1	114	113	115	146
258	4	19	9	8	21
259	1	121	133	131	132
260	4	121	133	134	139
261	5	7	8	21	24
262	5	133	134	135	136
263	3	2	1	74	75
264	4	7	8	9	19
265	1	15	14	17	19
266	1	113	111	110	148
267	13	42	67	58	59
267	14	42	67	58	59
267	15	42	67	58	59
268	5	133	134	143	145
269	16	137	135	134	139
270	13	43	42	67	58
270	14	43	42	67	58
270	15	43	42	67	58
271	1	121	122	124	125
272	1	47	57	55	56
273	1	4	3	2	31
274	10	50	52	53	54
275	4	47	57	58	59
276	16	61	59	58	63
277	1	8	7	29	31
278	1	122	124	126	131
279	1	84	83	82	93
280	2	1	74	75	76
281	13	116	143	134	139
281	14	116	143	134	139
281	15	116	143	134	139
282	4	131	133	134	139
283	1	111	110	148	146
284	1	113	115	146	147
285	10	15	34	36	72
286	1	5	7	29	31
287	1	8	9	10	12
288	13	117	116	143	134
288	14	117	116	143	134
288	15	117	116	143	134
289	1	112	111	113	114
290	5	82	81	99	101
291	1	127	126	131	133
292	1	2	31	29	30
293	4	113	115	116	117
294	5	82	81	95	96
295	1	10	9	19	17
296	1	4	3	5	7
297	4	9	8	7	29
298	1	74	75	76	78
299	1	48	47	57	55
300	5	57	58	63	65
301	1	110	111	113	115
302	1	50	52	55	56
303	1	76	75	105	106
304	10	124	126	127	129
305	1	84	83	85	86
306	4	47	57	58	63
307	1	83	82	93	94
308	5	133	134	139	140
309	1	42	41	70	72
310	4	43	42	47	48
311	1	36	72	70	71
312	5	80	81	99	100
313	1	111	113	115	146
314	5	115	116	117	120
315	1	40	39	41	42
316	5	9	8	25	26
317	1	11	10	12	13
318	1	38	37	36	72
319	1	50	48	47	57
320	1	77	76	78	79
321	16	59	58	63	64
322	2	89	88	87	91
323	1	116	121	122	124
324	5	21	8	25	26
325	16	137	135	134	143
326	5	47	42	67	68
327	1	81	80	103	104
328	5	115	116	143	145
329	1	18	17	19	20
330	1	42	47	48	49
331	1	81	82	83	84
332	1	74	75	105	103
333	5	121	116	143	144
334	5	7	8	21	23
335	1	47	48	50	52
336	5	133	134	143	144
337	16	44	43	42	67
338	1	76	75	105	103
339	5	44	43	42	47
340	1	49	48	50	52
341	16	139	134	143	145
342	2	85	87	88	90
343	2	105	75	74	107
344	5	41	42	43	46
345	1	8	9	10	11
346	16	64	63	58	67
347	1	76	78	80	81
348	1	48	50	52	55
349	4	117	116	121	133
350	4	82	81	80	103
351	5	82	81	99	100
352	1	127	126	131	132
353	6	14	15	34	35
353	7	14	15	34	35
354	16	118	117	116	143
355	4	113	115	116	143
356	5	7	8	25	28
357	16	63	58	67	69
358	1	4	3	5	6
359	1	34	36	37	39
360	5	57	58	67	69
361	1	74	75	76	77
362	1	38	37	39	41
363	1	81	82	93	91
364	1	1	2	3	5
365	10	124	126	127	128
366	2	12	14	15	34
367	10	128	127	126	131
368	1	111	110	148	149
369	1	37	39	41	42
370	4	122	121	116	143
371	17	126	127	129	130
372	1	1	2	31	29
373	1	34	36	72	70
374	5	115	116	117	119
375	4	121	133	134	135
376	1	10	9	19	20
377	16	117	116	143	144
378	1	75	105	103	104
379	1	82	93	91	87
380	5	41	42	67	69
381	1	80	103	105	106
382	1	39	41	70	72
383	1	108	110	111	113
384	16	59	58	67	68
385	1	48	47	57	58
386	16	138	135	134	143
387	1	86	85	87	91
388	1	110	148	146	147
389	1	124	126	131	133
390	1	116	121	122	123
391	1	47	57	55	52
392	1	122	124	126	127
393	4	131	133	134	135
394	5	95	81	99	101
395	4	41	42	47	57
396	4	39	41	42	43
397	10	55	52	53	108
398	1	116	115	146	148
399	5	80	81	95	98
400	10	52	53	108	110
401	1	85	87	91	93
402	1	86	85	87	88
403	3	33	1	74	75
404	1	112	111	110	148
405	1	53	52	55	57
406	10	35	34	36	72
407	2	31	2	1	74
408	1	51	50	52	53
409	5	9	8	21	22
410	1	82	83	85	87
411	1	49	48	50	51
412	16	139	134	143	144
413	1	104	103	105	106
414	1	85	83	82	93
415	5	98	95	81	99
416	1	123	122	121	133
417	4	39	41	42	67
418	1	42	47	57	58
419	4	39	41	42	47
420	1	126	131	133	134
421	10	54	53	108	109
422	11	16	15	34	35
422	12	16	15	34	35
423	1	74	75	105	106
424	16	63	58	67	68

Impropers

1	1	76	77	78	75
3	1	91	87	92	93
8	1	52	53	55	50
11	1	57	47	55	58
14	1	10	12	9	11
21	1	124	122	125	126
22	1	31	29	32	2
23	1	133	131	134	121
24	1	29	31	7	30
25	1	124	126	122	125
26	1	70	72	41	71
27	2	88	87	89	90
36	1	2	3	31	1
37	1	10	11	12	9
40	1	31	2	29	32
42	1	148	146	149	110
44	1	115	113	116	146
47	1	93	91	94	82
49	1	82	93	81	83
54	1	48	47	49	50
55	1	34	15	35	36
57	1	12	14	10	13
58	1	47	57	42	48
59	1	105	106	75	103
62	1	121	116	122	133
63	1	126	124	127	131
64	1	3	4	5	2
72	1	36	72	34	37
73	1	70	71	72	41
80	1	131	133	126	132
81	1	75	105	74	76
83	1	39	41	37	40
84	1	14	17	12	15
88	1	72	36	70	73
93	1	131	126	132	133
99	1	39	40	41	37
103	1	75	76	105	74
117	1	113	115	111	114
125	1	122	124	121	123
127	1	85	87	83	86
131	1	93	94	82	91
136	1	91	93	87	92
138	2	15	16	34	14
139	1	82	81	83	93
143	1	3	5	2	4
153	1	108	53	109	110
167	1	9	19	8	10
168	1	55	57	52	56
170	1	83	82	84	85
177	2	1	74	2	33
182	1	110	148	108	111
183	1	55	52	56	57
184	1	48	49	50	47
185	1	80	78	81	103
186	1	72	70	73	36
187	2	74	107	1	75
189	1	37	38	39	36
191	1	50	48	51	52
197	1	50	52	48	51
199	1	36	34	37	72
201	1	47	42	48	57
215	1	105	75	103	106
216	1	87	88	91	85
224	1	148	110	146	149
227	2	74	75	107	1
228	1	37	36	38	39
230	1	80	81	103	78
234	1	113	111	114	115
242	1	53	108	52	54
248	1	121	133	116	122
252	1	41	70	39	42
254	1	85	83	86	87
257	1	111	113	110	112
259	1	41	42	70	39
263	1	76	75	77	78
272	1	3	2	4	5
274	1	12	10	13	14
280	1	57	58	47	55
282	1	17	18	19	14
287	1	126	127	131	124
289	1	10	9	11	12
292	1	85	86	87	83
296	1	110	108	111	148
301	1	50	51	52	48
304	2	74	1	75	107
306	3	127	128	129	126
308	1	70	41	71	72
312	1	78	80	76	79
313	1	115	146	113	116
317	1	52	55	50	53
329	1	19	9	17	20
334	1	146	148	115	147
351	1	108	110	53	109
358	1	115	116	146	113
362	1	17	14	18	19
367	1	78	79	80	76
368	1	7	29	5	8
376	2	15	34	14	16
382	1	91	92	93	87
383	1	52	50	53	55
387	1	29	7	30	31
392	1	131	132	133	126
394	1	87	91	85	88
406	1	103	105	80	104
415	1	5	3	6	7
416	1	80	103	78	81
422	1	7	8	29	5
424	1	53	52	54	108
425	1	122	123	124	121
428	2	1	33	74	2
433	1	105	103	106	75
452	1	83	85	82	84
455	3	127	126	128	129
456	1	82	83	93	81
465	1	29	30	31	7
466	1	9	8	10	19
477	1	76	78	75	77
483	1	146	115	147	148
493	1	47	48	57	42
498	2	88	90	87	89
499	1	121	122	133	116
501	1	19	20	9	17
504	1	37	39	36	38
506	1	5	7	3	6
509	1	39	37	40	41
525	2	1	2	33	74
528	1	14	15	17	12
529	1	75	74	76	105
530	1	103	80	104	105
539	1	12	13	14	10
548	1	31	32	2	29
549	1	9	10	19	8
551	1	87	85	88	91
556	1	146	147	148	115
573	1	122	121	123	124
575	1	14	12	15	17
602	1	126	131	124	127
614	1	103	104	105	80
615	1	148	149	110	146
623	3	127	129	126	128
627	1	17	19	14	18
635	1	113	114	115	111
637	1	36	37	72	34
640	1	34	35	36	15
647	1	53	54	108	52
663	1	41	39	42	70
665	1	57	55	58	47
675	1	72	73	36	70
684	2	15	14	16	34
691	1	93	82	91	94
693	1	124	125	126	122
694	1	108	109	110	53
695	1	55	56	57	52
701	1	78	76	79	80
714	1	34	36	15	35
715	1	111	112	113	110
718	1	111	110	112	113
720	1	5	6	7	3
722	1	2	31	1	3
723	1	48	50	47	49
727	1	2	1	3	31
737	1	83	84	85	82
740	1	110	111	148	108
745	1	133	134	121	131
746	1	19	17	20	9
750	2	88	89	90	87
752	1	7	5	8	29
760	1	133	121	131	134
