Title

77 atoms
78 bonds
139 angles
231 dihedrals
36 impropers

9 atom types
13 bond types
7 angle types
27 dihedral types
2 improper types
-4.296999931 95.70300007 xlo xhi
-2.562000036 97.43799996 ylo yhi
-6.846000195 93.15399981 zlo zhi
0.0 0.0 0.0 xy xz yz

Masses

1	15.99943
2	12.01078
3	1.007947
4	1.007947
5	12.01078
6	15.99943
7	1.007947
8	15.99943
9	1.007947


Pair Coeffs

1	0.16846514	3.0251065
2	0.10884061	3.3795318
3	0.016409246	2.5832257
4	0.015779483	2.6445434
5	0.086879315	3.4806469
6	0.2102061	3.0398122
7	0.015611343	2.5725815
8	0.20947353	2.99716
9	1.2326e-05	0.53453923

Bond Coeffs

1 harmonic	366.7408841747	1.425895053732
2 harmonic	300.03137914615	1.451203938761
3 harmonic	264.62148576755	1.52190126495
4 harmonic	370.04670688625	1.093899492634
5 harmonic	301.15400723785	1.345741232799
6 harmonic	582.698766451	1.225198386222
7 harmonic	279.1350963404	1.454628925034
8 harmonic	399.1592953295	1.371688562017
9 harmonic	369.34270398985	1.364116986116
10 harmonic	397.2545789619	1.085358495916
11 harmonic	329.96998057905	1.427343958716
12 harmonic	543.5267831885	0.9716763312559
13 harmonic	385.7604595587	1.369745182308


Angle Coeffs

1 harmonic	53.20531626545	116.5475862634
2 harmonic	65.09061609600001	110.3538806181
3 harmonic	201.41175231035	127.4691416191
4 harmonic	57.8982893754	126.8062420451
5 harmonic	48.776492647595	115.6030999533
6 harmonic	39.628116874445	129.8027304608
7 harmonic	79.1895422237	112.4630193006


Dihedral Coeffs

1 fourier 1	0.1155372516788	3	0
2 fourier 1	0.1115525666802	3	0
3 fourier 1	0.3432490222662	1	0
4 fourier 1	0.0473758381877	3	0
5 fourier 1	0.457973137376	1	0
6 fourier 1	0.09223874044423	3	0
7 fourier 1	0.3159935921949	2	180
8 fourier 1	0.3247796806857	1	180
9 fourier 1	0.1040663847541	3	0
10 fourier 1	0.1918272375143	3	0
11 fourier 1	0.9202179876409	1	180
12 fourier 1	1.163809172478	2	180
13 fourier 1	0.1679186987369	1	180
14 fourier 1	2.779853741805	2	180
15 fourier 1	0.9974165607242	2	180
16 fourier 1	0.1911926717192	3	0
17 fourier 1	5.294842998052	2	180
18 fourier 1	1.659715194912	2	180
19 fourier 1	0.2347635637734	2	180
20 fourier 1	0.4747469131102	3	0
21 fourier 1	1.163235555439	2	180
22 fourier 1	0.3445382149273	3	0
23 fourier 1	0.1364556373303	1	0
24 fourier 1	0.3026390167484	3	0
25 fourier 1	2.687457892086	2	180
26 fourier 1	2.772607909663	2	180
27 fourier 1	0.09692684957115	1	0


Improper Coeffs

1 3.5	-1	2
2 0.3666666666666667	-1	2


Atoms

1	1	1	-0.172885	3.1489999	2.01	0.96700001
2	1	2	0.034651	2.263	1.3200001	0.127
3	1	2	-0.14570799	2.6730001	-0.154	0.023
4	1	2	-0.139483	1.717	-0.97000003	-0.87400001
5	1	2	-0.141892	0.75199997	-1.878	-0.088
6	1	2	-0.14194199	-0.26100001	-1.132	0.79699999
7	1	2	-0.140752	-1.279	-0.31999999	-0.017999999
8	1	2	-0.141167	-2.3310001	0.317	0.89999998
9	1	2	0.139597	-3.3150001	1.196	0.122
10	1	1	-0.49598101	-4.1139998	0.41499999	-0.72799999
11	1	3	0.072732002	-2.77	1.985	-0.447
12	1	3	0.072732002	-3.9790001	1.711	0.847
13	1	4	0.088953003	-2.895	-0.47799999	1.436
14	1	4	0.088953003	-1.8200001	0.94999999	1.658
15	1	4	0.084963001	-0.759	0.48500001	-0.579
16	1	4	0.084963001	-1.7819999	-0.99199998	-0.74699998
17	1	4	0.083209001	-0.81199998	-1.892	1.393
18	1	4	0.083209001	0.26800001	-0.477	1.52
19	1	4	0.083209001	0.198	-2.5179999	-0.80900002
20	1	4	0.083209001	1.347	-2.562	0.55500001
21	1	4	0.085138999	1.1569999	-0.315	-1.575
22	1	4	0.085138999	2.336	-1.636	-1.515
23	1	4	0.090020001	3.694	-0.19599999	-0.417
24	1	4	0.090020001	2.7409999	-0.597	1.04
25	1	3	0.082466997	2.2490001	1.788	-0.884
26	1	3	0.082466997	1.244	1.406	0.55299997
27	1	5	0.67153102	-3.6259999	0.37	-1.642
28	1	6	-0.54198599	-4.2969999	0.419	-2.7060001
29	1	5	0.247015	-2.168	0.252	-1.697
30	1	5	-0.29231501	-1.365	0.193	-0.64300001
31	1	7	0.172188	-1.666	0.223	0.396
32	1	5	-0.30378899	-0.0060000001	0.079999998	-1.1619999
33	1	7	0.15676001	0.90799999	0.0099999998	-0.58600003
34	1	5	0.298785	-0.105	0.081	-2.4849999
35	1	5	0.43437099	1.021	-0.016000001	-3.415
36	1	6	-0.550659	0.81699997	-0.0060000001	-4.6570001
37	1	1	-0.226174	-1.433	0.186	-2.8729999
38	1	1	-0.172885	3.9779999	2.1619999	0.442
39	1	2	0.034651	3.598	2.852	-0.71799999
40	1	2	-0.14570799	3.329	4.3260002	-0.39199999
41	1	2	-0.139483	2.928	5.1420002	-1.64
42	1	2	-0.141892	4.0510001	6.0500002	-2.1760001
43	1	2	-0.141892	5.2849998	5.3039999	-2.7119999
44	1	2	-0.135398	4.9840002	4.4920001	-3.9809999
45	1	2	-0.167632	6.2639999	3.855	-4.539
46	1	2	0.087907001	5.9829998	2.9760001	-5.7610002
47	1	8	-0.682441	5.5570002	3.757	-6.8460002
48	1	9	0.38129401	4.566	3.8	-6.8000002
49	1	3	0.073243	5.2350001	2.188	-5.5120001
50	1	3	0.073243	6.9229999	2.461	-6.0500002
51	1	4	0.092373997	6.9899998	4.6500001	-4.8189998
52	1	4	0.092373997	6.7309999	3.223	-3.7520001
53	1	4	0.085138999	4.2550001	3.687	-3.7509999
54	1	4	0.085138999	4.5409999	5.164	-4.7470002
55	1	4	0.083209001	6.059	6.0640001	-2.954
56	1	4	0.083209001	5.711	4.6490002	-1.924
57	1	4	0.083209001	3.6370001	6.6900001	-2.9849999
58	1	4	0.083209001	4.3769999	6.7340002	-1.362
59	1	4	0.085138999	2.5339999	4.4879999	-2.4460001
60	1	4	0.085138999	2.0840001	5.8080001	-1.355
61	1	4	0.090020001	2.494	4.368	0.34200001
62	1	4	0.090020001	4.2189999	4.7690001	0.105
63	1	3	0.082466997	2.691	2.3840001	-1.163
64	1	3	0.082466997	4.4190001	2.766	-1.457
65	1	5	0.43437201	2.0339999	-0.096000001	-3.0409999
66	1	6	-0.550659	3.0020001	0.07	-3.829
67	1	5	0.298785	2.2780001	-0.39399999	-1.6289999
68	1	5	-0.30378899	1.337	-0.58600003	-0.71499997
69	1	7	0.15676001	0.26699999	-0.551	-0.875
70	1	5	-0.29608199	2.029	-0.852	0.54299998
71	1	7	0.172188	1.573	-1.054	1.5039999
72	1	5	0.25789699	3.3299999	-0.79799998	0.28
73	1	5	0.71564198	4.4120002	-1.003	1.249
74	1	6	-0.53432298	4.151	-1.257	2.4560001
75	1	8	-0.701042	5.7350001	-0.91600001	0.82999998
76	1	9	0.39228499	6.4970002	-1.054	1.482
77	1	1	-0.22970501	3.539	-0.51499999	-1.062

Bonds

1	1	1	2
2	2	1	38
3	3	2	3
4	4	2	25
5	4	2	26
6	3	3	4
7	4	3	23
8	4	3	24
9	3	4	5
10	4	4	21
11	4	4	22
12	3	5	6
13	4	5	19
14	4	5	20
15	3	6	7
16	4	6	17
17	4	6	18
18	3	7	8
19	4	7	15
20	4	7	16
21	3	8	9
22	4	8	13
23	4	8	14
24	1	9	10
25	4	9	11
26	4	9	12
27	5	10	27
28	6	27	28
29	7	27	29
30	8	29	30
31	9	29	37
32	10	30	31
33	7	30	32
34	10	32	33
35	8	32	34
36	7	34	35
37	9	34	37
38	6	35	36
39	7	35	65
40	1	38	39
41	3	39	40
42	4	39	63
43	4	39	64
44	3	40	41
45	4	40	61
46	4	40	62
47	3	41	42
48	4	41	59
49	4	41	60
50	3	42	43
51	4	42	57
52	4	42	58
53	3	43	44
54	4	43	55
55	4	43	56
56	3	44	45
57	4	44	53
58	4	44	54
59	3	45	46
60	4	45	51
61	4	45	52
62	11	46	47
63	4	46	49
64	4	46	50
65	12	47	48
66	6	65	66
67	7	65	67
68	8	67	68
69	9	67	77
70	10	68	69
71	7	68	70
72	10	70	71
73	8	70	72
74	7	72	73
75	9	72	77
76	6	73	74
77	13	73	75
78	12	75	76

Angles

1	4	30	32	34
2	5	59	41	60
3	1	45	46	47
4	5	19	5	20
5	5	25	2	26
6	1	7	6	17
7	1	2	3	23
8	1	3	4	21
9	1	4	3	24
10	1	40	41	60
11	1	10	9	12
12	5	21	4	22
13	1	6	7	8
14	1	44	43	56
15	1	40	39	63
16	1	2	3	24
17	7	67	77	72
18	1	7	6	18
19	1	44	45	46
20	4	28	27	29
21	5	61	40	62
22	1	2	3	4
23	1	41	42	57
24	1	44	45	51
25	2	1	38	39
26	1	42	43	44
27	4	67	68	70
28	1	4	3	23
29	4	30	29	37
30	1	42	43	56
31	6	68	70	71
32	1	3	4	22
33	1	10	9	11
34	1	43	44	54
35	3	10	27	28
36	1	47	46	50
37	1	6	5	20
38	1	42	41	59
39	1	40	41	42
40	1	38	39	63
41	1	39	40	41
42	4	66	65	67
43	1	46	45	52
44	1	9	8	14
45	1	40	39	64
46	1	6	5	19
47	1	39	40	62
48	1	41	42	58
49	6	65	67	68
50	1	8	9	10
51	1	5	4	21
52	5	63	39	64
53	4	68	67	77
54	6	33	32	34
55	1	8	9	12
56	3	74	73	75
57	4	36	35	65
58	6	73	72	77
59	5	57	42	58
60	6	65	67	77
61	1	5	6	17
62	6	27	29	30
63	4	72	73	74
64	5	15	7	16
65	4	35	65	67
66	1	1	2	26
67	1	43	42	57
68	5	17	6	18
69	1	45	46	49
70	1	6	7	15
71	5	49	46	50
72	1	3	2	26
73	1	42	41	60
74	6	70	72	73
75	1	38	39	64
76	6	30	32	33
77	1	8	7	16
78	6	69	68	70
79	1	7	8	14
80	1	1	2	25
81	1	8	7	15
82	1	5	4	22
83	1	1	2	3
84	1	9	8	13
85	5	51	45	52
86	1	8	9	11
87	1	3	2	25
88	1	43	42	58
89	1	4	5	6
90	1	41	42	43
91	5	11	9	12
92	2	2	1	38
93	5	55	43	56
94	1	6	7	16
95	6	67	68	69
96	1	39	40	61
97	1	5	6	7
98	1	43	44	45
99	1	4	5	20
100	4	34	35	65
101	1	44	43	55
102	1	44	45	52
103	1	45	46	50
104	1	40	41	59
105	1	4	5	19
106	6	35	34	37
107	2	9	10	27
108	1	7	8	9
109	1	5	6	18
110	4	70	72	77
111	4	29	30	32
112	2	46	47	48
113	1	7	8	13
114	6	31	30	32
115	1	41	40	62
116	4	34	35	36
117	1	3	4	5
118	1	42	43	55
119	4	32	34	37
120	4	10	27	29
121	6	27	29	37
122	4	72	73	75
123	2	73	75	76
124	1	45	44	53
125	6	71	70	72
126	5	13	8	14
127	6	29	30	31
128	1	38	39	40
129	6	32	34	35
130	5	53	44	54
131	5	23	3	24
132	1	43	44	53
133	4	68	70	72
134	1	45	44	54
135	7	29	37	34
136	1	47	46	49
137	1	41	40	61
138	4	35	65	66
139	1	46	45	51

Dihedrals

1	17	27	29	30	31
2	9	7	8	9	12
3	18	29	37	34	35
4	21	29	30	32	33
5	4	25	2	1	38
6	9	8	7	6	18
7	24	48	47	46	49
8	16	12	9	8	13
9	16	15	7	6	17
10	16	52	45	44	54
11	9	45	44	43	56
12	9	6	5	4	22
13	9	43	44	45	51
14	16	50	46	45	52
15	9	39	40	41	60
16	2	47	46	45	52
16	3	47	46	45	52
17	15	10	27	29	30
18	15	37	34	35	65
19	16	23	3	2	25
20	16	54	44	43	55
21	16	59	41	40	61
22	6	42	43	44	45
22	7	42	43	44	45
22	8	42	43	44	45
23	26	74	73	75	76
23	27	74	73	75	76
24	4	1	38	39	64
25	19	28	27	29	30
25	20	28	27	29	30
26	16	20	5	4	22
27	9	46	45	44	53
28	16	13	8	7	15
29	16	17	6	5	20
30	16	62	40	39	64
31	9	4	3	2	26
32	17	33	32	34	37
33	16	53	44	43	56
34	16	14	8	7	16
35	1	38	39	40	41
36	17	68	70	72	73
37	9	46	45	44	54
38	9	43	42	41	59
39	16	22	4	3	23
40	15	35	65	67	77
41	9	44	43	42	57
42	17	33	32	34	35
43	16	16	7	6	17
44	16	17	6	5	19
45	16	55	43	42	57
46	17	69	68	67	77
47	21	67	68	70	71
48	2	38	39	40	62
48	3	38	39	40	62
49	16	14	8	7	15
50	9	7	8	9	11
51	4	1	38	39	40
52	19	32	34	35	36
52	20	32	34	35	36
53	19	70	72	73	74
53	20	70	72	73	74
54	16	22	4	3	24
55	15	34	35	65	67
56	9	4	3	2	25
57	16	56	43	42	57
58	21	69	68	70	71
59	9	44	45	46	50
60	9	7	6	5	20
61	17	71	70	72	73
62	16	60	41	40	62
63	16	16	7	6	18
64	24	48	47	46	50
65	9	42	43	44	53
66	9	4	5	6	17
67	2	38	39	40	61
67	3	38	39	40	61
68	9	5	4	3	24
69	18	27	29	37	34
70	16	13	8	7	16
71	15	36	35	65	67
72	4	26	2	1	38
73	6	39	40	41	42
73	7	39	40	41	42
73	8	39	40	41	42
74	9	40	41	42	57
75	15	74	73	72	77
76	9	7	6	5	19
77	21	31	30	32	34
78	6	5	6	7	8
78	7	5	6	7	8
78	8	5	6	7	8
79	17	65	67	68	70
80	16	55	43	42	58
81	16	61	40	39	63
82	15	35	65	67	68
83	16	49	46	45	52
84	15	32	34	35	65
85	16	60	41	40	61
86	9	43	42	41	60
87	16	15	7	6	18
88	16	51	45	44	53
89	16	54	44	43	56
90	6	2	3	4	5
90	7	2	3	4	5
90	8	2	3	4	5
91	16	11	9	8	14
92	16	56	43	42	58
93	18	29	37	34	32
94	14	9	10	27	29
95	9	2	3	4	21
96	16	11	9	8	13
97	17	68	70	72	77
98	16	50	46	45	51
99	21	29	30	32	34
100	2	47	46	45	51
100	3	47	46	45	51
101	9	5	4	3	23
102	4	3	2	1	38
103	9	40	41	42	58
104	9	41	42	43	55
105	9	6	7	8	14
106	1	44	45	46	47
107	16	57	42	41	59
108	9	6	7	8	13
109	12	9	10	27	28
109	13	9	10	27	28
110	15	75	73	72	77
111	17	31	30	29	37
112	9	3	4	5	20
113	15	28	27	29	37
114	18	65	67	77	72
115	17	71	70	72	77
116	6	4	5	6	7
116	7	4	5	6	7
116	8	4	5	6	7
117	16	61	40	39	64
118	9	44	43	42	58
119	9	42	43	44	54
120	9	3	4	5	19
121	9	43	44	45	52
122	21	67	68	70	72
123	17	30	32	34	37
124	9	4	5	6	18
125	9	2	3	4	22
126	10	8	9	10	27
126	11	8	9	10	27
127	17	30	32	34	35
128	9	42	41	40	62
129	16	58	42	41	59
130	9	45	44	43	55
131	9	5	6	7	16
132	16	19	5	4	21
133	16	12	9	8	14
134	6	3	4	5	6
134	7	3	4	5	6
134	8	3	4	5	6
135	9	41	40	39	63
136	16	51	45	44	54
137	18	30	29	37	34
138	16	52	45	44	53
139	15	70	72	73	75
140	17	70	68	67	77
141	21	69	68	70	72
142	19	66	65	67	68
142	20	66	65	67	68
143	6	6	7	8	9
143	7	6	7	8	9
143	8	6	7	8	9
144	16	21	4	3	24
145	6	43	44	45	46
145	7	43	44	45	46
145	8	43	44	45	46
146	16	57	42	41	60
147	18	67	77	72	73
148	9	5	6	7	15
149	6	40	41	42	43
149	7	40	41	42	43
149	8	40	41	42	43
150	16	49	46	45	51
151	16	18	6	5	20
152	15	34	35	65	66
153	22	45	46	47	48
153	23	45	46	47	48
154	2	1	2	3	23
154	3	1	2	3	23
155	9	42	41	40	61
156	15	10	27	29	37
157	6	41	42	43	44
157	7	41	42	43	44
157	8	41	42	43	44
158	16	53	44	43	55
159	15	66	65	67	77
160	9	6	5	4	21
161	9	9	8	7	16
162	9	39	40	41	59
163	25	72	73	75	76
164	9	41	42	43	56
165	2	10	9	8	14
165	3	10	9	8	14
166	16	18	6	5	19
167	17	32	30	29	37
168	16	24	3	2	26
169	4	11	9	10	27
170	15	36	35	65	66
171	17	65	67	68	69
172	4	1	38	39	63
173	21	31	30	32	33
174	16	20	5	4	21
175	2	10	9	8	13
175	3	10	9	8	13
176	9	9	8	7	15
177	2	1	2	3	24
177	3	1	2	3	24
178	17	27	29	30	32
179	16	62	40	39	63
180	9	8	7	6	17
181	15	36	35	34	37
182	16	21	4	3	23
183	5	2	1	38	39
184	4	12	9	10	27
185	16	58	42	41	60
186	1	1	2	3	4
187	16	19	5	4	22
188	16	23	3	2	26
189	18	67	77	72	70
190	9	41	40	39	64
191	18	68	67	77	72
192	16	59	41	40	62
193	1	7	8	9	10
194	16	24	3	2	25
195	9	44	45	46	49

Impropers

2	2	65	66	67	35
16	2	65	35	66	67
23	1	27	29	10	28
24	2	67	68	77	65
30	2	35	65	34	36
47	2	72	77	70	73
52	2	72	73	77	70
67	2	70	68	71	72
76	2	30	29	31	32
87	2	32	30	33	34
150	1	27	28	29	10
174	2	67	65	68	77
183	2	35	34	36	65
189	2	35	36	65	34
195	2	68	69	70	67
200	2	30	32	29	31
205	1	73	75	72	74
232	2	32	34	30	33
241	2	70	72	68	71
255	2	68	70	67	69
258	2	34	32	35	37
260	2	65	67	35	66
281	2	29	27	30	37
286	1	73	72	74	75
291	2	70	71	72	68
299	2	29	30	37	27
307	2	32	33	34	30
321	2	72	70	73	77
326	2	34	35	37	32
330	1	27	10	28	29
357	2	34	37	32	35
368	2	67	77	65	68
374	2	29	37	27	30
383	2	68	67	69	70
389	2	30	31	32	29
413	1	73	74	75	72
