Title

77 atoms
78 bonds
139 angles
231 dihedrals
36 impropers

9 atom types
13 bond types
7 angle types
27 dihedral types
2 improper types
-4.296999931 95.70300007 xlo xhi
-2.562000036 97.43799996 ylo yhi
-6.846000195 93.15399981 zlo zhi
0.0 0.0 0.0 xy xz yz

Masses

1	15.99943
2	12.01078
3	1.007947
4	1.007947
5	12.01078
6	15.99943
7	1.007947
8	15.99943
9	1.007947


Pair Coeffs

1	0.16846514	3.0251065
2	0.10884061	3.3795318
3	0.016409246	2.5832257
4	0.015779483	2.6445434
5	0.086879315	3.4806469
6	0.2102061	3.0398122
7	0.015611343	2.5725815
8	0.20947353	2.99716
9	1.2326e-05	0.53453923

Bond Coeffs

1 harmonic	366.7408841747	1.425895053732
2 harmonic	300.03137914615	1.451203938761
3 harmonic	264.62148576755	1.52190126495
4 harmonic	370.04670688625	1.093899492634
5 harmonic	301.15400723785	1.345741232799
6 harmonic	582.698766451	1.225198386222
7 harmonic	279.1350963404	1.454628925034
8 harmonic	399.1592953295	1.371688562017
9 harmonic	369.34270398985	1.364116986116
10 harmonic	397.2545789619	1.085358495916
11 harmonic	329.96998057905	1.427343958716
12 harmonic	543.5267831885	0.9716763312559
13 harmonic	385.7604595587	1.369745182308


Angle Coeffs

1 harmonic	53.20531626545	116.5475862634
2 harmonic	65.09061609600001	110.3538806181
3 harmonic	201.41175231035	127.4691416191
4 harmonic	57.8982893754	126.8062420451
5 harmonic	48.776492647595	115.6030999533
6 harmonic	39.628116874445	129.8027304608
7 harmonic	79.1895422237	112.4630193006


Dihedral Coeffs

1 fourier 1	0.1155372516788	3	0
2 fourier 1	0.1115525666802	3	0
3 fourier 1	0.3432490222662	1	0
4 fourier 1	0.0473758381877	3	0
5 fourier 1	0.457973137376	1	0
6 fourier 1	0.09223874044423	3	0
7 fourier 1	0.3159935921949	2	180
8 fourier 1	0.3247796806857	1	180
9 fourier 1	0.1040663847541	3	0
10 fourier 1	0.1918272375143	3	0
11 fourier 1	0.9202179876409	1	180
12 fourier 1	1.163809172478	2	180
13 fourier 1	0.1679186987369	1	180
14 fourier 1	2.779853741805	2	180
15 fourier 1	0.9974165607242	2	180
16 fourier 1	0.1911926717192	3	0
17 fourier 1	5.294842998052	2	180
18 fourier 1	1.659715194912	2	180
19 fourier 1	0.2347635637734	2	180
20 fourier 1	0.4747469131102	3	0
21 fourier 1	1.163235555439	2	180
22 fourier 1	0.3445382149273	3	0
23 fourier 1	0.1364556373303	1	0
24 fourier 1	0.3026390167484	3	0
25 fourier 1	2.687457892086	2	180
26 fourier 1	2.772607909663	2	180
27 fourier 1	0.09692684957115	1	0


Improper Coeffs

1 3.5	-1	2
2 0.3666666666666667	-1	2


Atoms

1	1	1	-0.172885	3.1489999	2.01	0.96700001
2	1	2	0.034651	2.263	1.3200001	0.127
3	1	2	-0.14570799	2.6730001	-0.154	0.023
4	1	2	-0.139483	1.717	-0.97000003	-0.87400001
5	1	2	-0.141892	0.75199997	-1.878	-0.088
6	1	2	-0.14194199	-0.26100001	-1.132	0.79699999
7	1	2	-0.140752	-1.279	-0.31999999	-0.017999999
8	1	2	-0.141167	-2.3310001	0.317	0.89999998
9	1	2	0.139597	-3.3150001	1.196	0.122
10	1	1	-0.49598101	-4.1139998	0.41499999	-0.72799999
11	1	3	0.072732002	-2.77	1.985	-0.447
12	1	3	0.072732002	-3.9790001	1.711	0.847
13	1	4	0.088953003	-2.895	-0.47799999	1.436
14	1	4	0.088953003	-1.8200001	0.94999999	1.658
15	1	4	0.084963001	-0.759	0.48500001	-0.579
16	1	4	0.084963001	-1.7819999	-0.99199998	-0.74699998
17	1	4	0.083209001	-0.81199998	-1.892	1.393
18	1	4	0.083209001	0.26800001	-0.477	1.52
19	1	4	0.083209001	0.198	-2.5179999	-0.80900002
20	1	4	0.083209001	1.347	-2.562	0.55500001
21	1	4	0.085138999	1.1569999	-0.315	-1.575
22	1	4	0.085138999	2.336	-1.636	-1.515
23	1	4	0.090020001	3.694	-0.19599999	-0.417
24	1	4	0.090020001	2.7409999	-0.597	1.04
25	1	3	0.082466997	2.2490001	1.788	-0.884
26	1	3	0.082466997	1.244	1.406	0.55299997
27	1	5	0.67153102	-3.6259999	0.37	-1.642
28	1	6	-0.54198599	-4.2969999	0.419	-2.7060001
29	1	5	0.247015	-2.168	0.252	-1.697
30	1	5	-0.29231501	-1.365	0.193	-0.64300001
31	1	7	0.172188	-1.666	0.223	0.396
32	1	5	-0.30378899	-0.0060000001	0.079999998	-1.1619999
33	1	7	0.15676001	0.90799999	0.0099999998	-0.58600003
34	1	5	0.298785	-0.105	0.081	-2.4849999
35	1	5	0.43437099	1.021	-0.016000001	-3.415
36	1	6	-0.550659	0.81699997	-0.0060000001	-4.6570001
37	1	1	-0.226174	-1.433	0.186	-2.8729999
38	1	1	-0.172885	3.9779999	2.1619999	0.442
39	1	2	0.034651	3.598	2.852	-0.71799999
40	1	2	-0.14570799	3.329	4.3260002	-0.39199999
41	1	2	-0.139483	2.928	5.1420002	-1.64
42	1	2	-0.141892	4.0510001	6.0500002	-2.1760001
43	1	2	-0.141892	5.2849998	5.3039999	-2.7119999
44	1	2	-0.135398	4.9840002	4.4920001	-3.9809999
45	1	2	-0.167632	6.2639999	3.855	-4.539
46	1	2	0.087907001	5.9829998	2.9760001	-5.7610002
47	1	8	-0.682441	5.5570002	3.757	-6.8460002
48	1	9	0.38129401	4.566	3.8	-6.8000002
49	1	3	0.073243	5.2350001	2.188	-5.5120001
50	1	3	0.073243	6.9229999	2.461	-6.0500002
51	1	4	0.092373997	6.9899998	4.6500001	-4.8189998
52	1	4	0.092373997	6.7309999	3.223	-3.7520001
53	1	4	0.085138999	4.2550001	3.687	-3.7509999
54	1	4	0.085138999	4.5409999	5.164	-4.7470002
55	1	4	0.083209001	6.059	6.0640001	-2.954
56	1	4	0.083209001	5.711	4.6490002	-1.924
57	1	4	0.083209001	3.6370001	6.6900001	-2.9849999
58	1	4	0.083209001	4.3769999	6.7340002	-1.362
59	1	4	0.085138999	2.5339999	4.4879999	-2.4460001
60	1	4	0.085138999	2.0840001	5.8080001	-1.355
61	1	4	0.090020001	2.494	4.368	0.34200001
62	1	4	0.090020001	4.2189999	4.7690001	0.105
63	1	3	0.082466997	2.691	2.3840001	-1.163
64	1	3	0.082466997	4.4190001	2.766	-1.457
65	1	5	0.43437201	2.0339999	-0.096000001	-3.0409999
66	1	6	-0.550659	3.0020001	0.07	-3.829
67	1	5	0.298785	2.2780001	-0.39399999	-1.6289999
68	1	5	-0.30378899	1.337	-0.58600003	-0.71499997
69	1	7	0.15676001	0.26699999	-0.551	-0.875
70	1	5	-0.29608199	2.029	-0.852	0.54299998
71	1	7	0.172188	1.573	-1.054	1.5039999
72	1	5	0.25789699	3.3299999	-0.79799998	0.28
73	1	5	0.71564198	4.4120002	-1.003	1.249
74	1	6	-0.53432298	4.151	-1.257	2.4560001
75	1	8	-0.701042	5.7350001	-0.91600001	0.82999998
76	1	9	0.39228499	6.4970002	-1.054	1.482
77	1	1	-0.22970501	3.539	-0.51499999	-1.062

Bonds

1	1	1	2
2	2	1	38
3	3	2	3
4	4	2	25
5	4	2	26
6	3	3	4
7	4	3	23
8	4	3	24
9	3	4	5
10	4	4	21
11	4	4	22
12	3	5	6
13	4	5	19
14	4	5	20
15	3	6	7
16	4	6	17
17	4	6	18
18	3	7	8
19	4	7	15
20	4	7	16
21	3	8	9
22	4	8	13
23	4	8	14
24	1	9	10
25	4	9	11
26	4	9	12
27	5	10	27
28	6	27	28
29	7	27	29
30	8	29	30
31	9	29	37
32	10	30	31
33	7	30	32
34	10	32	33
35	8	32	34
36	7	34	35
37	9	34	37
38	6	35	36
39	7	35	65
40	1	38	39
41	3	39	40
42	4	39	63
43	4	39	64
44	3	40	41
45	4	40	61
46	4	40	62
47	3	41	42
48	4	41	59
49	4	41	60
50	3	42	43
51	4	42	57
52	4	42	58
53	3	43	44
54	4	43	55
55	4	43	56
56	3	44	45
57	4	44	53
58	4	44	54
59	3	45	46
60	4	45	51
61	4	45	52
62	11	46	47
63	4	46	49
64	4	46	50
65	12	47	48
66	6	65	66
67	7	65	67
68	8	67	68
69	9	67	77
70	10	68	69
71	7	68	70
72	10	70	71
73	8	70	72
74	7	72	73
75	9	72	77
76	6	73	74
77	13	73	75
78	12	75	76

Angles

1	1	42	41	60
2	1	7	6	18
3	1	45	46	50
4	5	19	5	20
5	6	33	32	34
6	1	39	40	41
7	1	5	6	7
8	1	4	3	24
9	1	42	43	56
10	5	57	42	58
11	1	46	45	52
12	4	34	35	65
13	1	41	42	58
14	4	67	68	70
15	6	73	72	77
16	1	39	40	62
17	6	69	68	70
18	4	29	30	32
19	2	46	47	48
20	5	51	45	52
21	1	6	5	20
22	2	73	75	76
23	1	45	46	47
24	6	32	34	35
25	6	71	70	72
26	1	5	6	17
27	1	41	40	61
28	4	66	65	67
29	1	47	46	50
30	1	10	9	12
31	6	65	67	68
32	1	40	41	42
33	2	1	38	39
34	1	40	39	64
35	1	9	8	14
36	5	23	3	24
37	1	6	7	15
38	1	3	4	5
39	4	36	35	65
40	1	5	6	18
41	1	8	7	16
42	1	3	4	21
43	6	27	29	37
44	1	44	43	56
45	6	30	32	33
46	1	8	9	12
47	1	5	4	21
48	1	1	2	3
49	1	43	44	53
50	7	67	77	72
51	4	72	73	74
52	1	4	5	19
53	1	7	8	13
54	5	53	44	54
55	1	41	42	43
56	1	44	45	46
57	5	11	9	12
58	1	3	4	22
59	4	68	67	77
60	6	35	34	37
61	5	25	2	26
62	4	30	32	34
63	6	68	70	71
64	4	72	73	75
65	1	43	44	45
66	6	65	67	77
67	4	35	65	66
68	1	38	39	63
69	6	27	29	30
70	5	59	41	60
71	5	17	6	18
72	4	68	70	72
73	1	3	2	25
74	3	10	27	28
75	1	41	40	62
76	4	35	65	67
77	6	31	30	32
78	1	4	5	6
79	1	7	8	9
80	5	21	4	22
81	4	32	34	37
82	1	45	46	49
83	5	63	39	64
84	1	2	3	23
85	4	28	27	29
86	1	40	41	59
87	1	6	7	16
88	1	4	3	23
89	4	34	35	36
90	1	8	9	10
91	2	9	10	27
92	7	29	37	34
93	1	6	7	8
94	2	2	1	38
95	3	74	73	75
96	1	44	45	51
97	1	5	4	22
98	1	43	44	54
99	1	38	39	40
100	1	6	5	19
101	1	4	5	20
102	1	2	3	24
103	1	7	8	14
104	1	40	41	60
105	1	2	3	4
106	5	61	40	62
107	1	1	2	25
108	1	44	45	52
109	5	15	7	16
110	5	49	46	50
111	4	30	29	37
112	1	45	44	53
113	1	47	46	49
114	1	43	42	57
115	4	70	72	77
116	1	10	9	11
117	1	42	41	59
118	1	7	6	17
119	1	40	39	63
120	1	1	2	26
121	1	9	8	13
122	1	38	39	64
123	5	55	43	56
124	5	13	8	14
125	1	42	43	55
126	6	70	72	73
127	1	3	2	26
128	4	10	27	29
129	1	8	7	15
130	1	42	43	44
131	1	46	45	51
132	1	45	44	54
133	1	44	43	55
134	1	41	42	57
135	6	67	68	69
136	1	43	42	58
137	1	39	40	61
138	1	8	9	11
139	6	29	30	31

Dihedrals

1	9	5	6	7	16
2	1	44	45	46	47
3	16	17	6	5	19
4	16	53	44	43	55
5	9	7	8	9	12
6	16	51	45	44	53
7	9	46	45	44	53
8	9	39	40	41	60
9	15	36	35	34	37
10	6	42	43	44	45
10	7	42	43	44	45
10	8	42	43	44	45
11	17	30	32	34	37
12	9	3	4	5	20
13	17	32	30	29	37
14	9	7	6	5	19
15	4	1	38	39	64
16	16	21	4	3	23
17	16	52	45	44	54
18	16	54	44	43	56
19	24	48	47	46	49
20	16	16	7	6	17
21	16	17	6	5	20
22	18	29	37	34	32
23	16	51	45	44	54
24	16	19	5	4	22
25	9	45	44	43	55
26	9	42	41	40	62
27	17	33	32	34	35
28	15	75	73	72	77
29	21	31	30	32	33
30	9	4	5	6	18
31	17	31	30	29	37
32	15	66	65	67	77
33	4	1	38	39	40
34	16	18	6	5	20
35	16	49	46	45	52
36	9	42	43	44	53
37	9	7	6	5	20
38	9	8	7	6	17
39	16	12	9	8	13
40	15	36	35	65	67
41	16	56	43	42	57
42	21	67	68	70	71
43	9	40	41	42	57
44	16	20	5	4	22
45	16	55	43	42	57
46	9	41	42	43	55
47	9	45	44	43	56
48	16	62	40	39	64
49	15	35	65	67	68
50	18	67	77	72	73
51	21	31	30	32	34
52	9	5	4	3	23
53	15	32	34	35	65
54	6	43	44	45	46
54	7	43	44	45	46
54	8	43	44	45	46
55	6	5	6	7	8
55	7	5	6	7	8
55	8	5	6	7	8
56	9	42	43	44	54
57	16	11	9	8	14
58	16	12	9	8	14
59	16	56	43	42	58
60	16	60	41	40	62
61	9	43	44	45	51
62	9	40	41	42	58
63	21	67	68	70	72
64	14	9	10	27	29
65	1	7	8	9	10
66	16	22	4	3	23
67	17	27	29	30	32
68	17	65	67	68	69
69	9	5	4	3	24
70	16	53	44	43	56
71	2	47	46	45	51
71	3	47	46	45	51
72	9	46	45	44	54
73	21	69	68	70	71
74	16	14	8	7	15
75	10	8	9	10	27
75	11	8	9	10	27
76	16	24	3	2	25
77	16	15	7	6	17
78	18	67	77	72	70
79	6	2	3	4	5
79	7	2	3	4	5
79	8	2	3	4	5
80	16	13	8	7	15
81	18	68	67	77	72
82	9	2	3	4	21
83	9	44	43	42	57
84	21	29	30	32	33
85	16	21	4	3	24
86	9	41	40	39	63
87	9	44	45	46	49
88	24	48	47	46	50
89	2	38	39	40	61
89	3	38	39	40	61
90	16	16	7	6	18
91	2	47	46	45	52
91	3	47	46	45	52
92	2	10	9	8	13
92	3	10	9	8	13
93	2	1	2	3	23
93	3	1	2	3	23
94	15	35	65	67	77
95	21	69	68	70	72
96	16	14	8	7	16
97	16	15	7	6	18
98	1	38	39	40	41
99	19	70	72	73	74
99	20	70	72	73	74
100	6	41	42	43	44
100	7	41	42	43	44
100	8	41	42	43	44
101	15	34	35	65	66
102	6	39	40	41	42
102	7	39	40	41	42
102	8	39	40	41	42
103	15	28	27	29	37
104	6	6	7	8	9
104	7	6	7	8	9
104	8	6	7	8	9
105	9	2	3	4	22
106	9	43	42	41	59
107	9	8	7	6	18
108	21	29	30	32	34
109	17	30	32	34	35
110	9	41	40	39	64
111	9	4	3	2	25
112	9	44	45	46	50
113	17	69	68	67	77
114	9	9	8	7	15
115	16	23	3	2	25
116	2	10	9	8	14
116	3	10	9	8	14
117	16	55	43	42	58
118	2	1	2	3	24
118	3	1	2	3	24
119	6	4	5	6	7
119	7	4	5	6	7
119	8	4	5	6	7
120	16	50	46	45	51
121	9	41	42	43	56
122	17	33	32	34	37
123	16	57	42	41	59
124	1	1	2	3	4
125	15	10	27	29	37
126	9	7	8	9	11
127	4	25	2	1	38
128	9	39	40	41	59
129	6	40	41	42	43
129	7	40	41	42	43
129	8	40	41	42	43
130	9	43	42	41	60
131	16	58	42	41	59
132	9	4	3	2	26
133	18	27	29	37	34
134	9	43	44	45	52
135	25	72	73	75	76
136	18	29	37	34	35
137	18	30	29	37	34
138	5	2	1	38	39
139	16	22	4	3	24
140	16	57	42	41	60
141	16	52	45	44	53
142	9	6	5	4	21
143	4	3	2	1	38
144	17	65	67	68	70
145	26	74	73	75	76
145	27	74	73	75	76
146	19	28	27	29	30
146	20	28	27	29	30
147	18	65	67	77	72
148	9	6	7	8	13
149	16	19	5	4	21
150	16	24	3	2	26
151	9	42	41	40	61
152	16	58	42	41	60
153	17	27	29	30	31
154	9	4	5	6	17
155	16	13	8	7	16
156	16	18	6	5	19
157	9	44	43	42	58
158	16	49	46	45	51
159	17	68	70	72	77
160	15	36	35	65	66
161	16	61	40	39	63
162	16	59	41	40	61
163	9	6	5	4	22
164	17	70	68	67	77
165	2	38	39	40	62
165	3	38	39	40	62
166	15	37	34	35	65
167	16	20	5	4	21
168	9	6	7	8	14
169	15	10	27	29	30
170	16	62	40	39	63
171	17	68	70	72	73
172	15	70	72	73	75
173	19	32	34	35	36
173	20	32	34	35	36
174	15	34	35	65	67
175	9	5	6	7	15
176	19	66	65	67	68
176	20	66	65	67	68
177	17	71	70	72	77
178	16	11	9	8	13
179	6	3	4	5	6
179	7	3	4	5	6
179	8	3	4	5	6
180	22	45	46	47	48
180	23	45	46	47	48
181	16	59	41	40	62
182	16	61	40	39	64
183	15	74	73	72	77
184	16	60	41	40	61
185	9	9	8	7	16
186	16	23	3	2	26
187	9	3	4	5	19
188	12	9	10	27	28
188	13	9	10	27	28
189	4	12	9	10	27
190	16	50	46	45	52
191	17	71	70	72	73
192	4	1	38	39	63
193	4	11	9	10	27
194	4	26	2	1	38
195	16	54	44	43	55

Impropers

34	2	35	65	34	36
42	2	72	70	73	77
46	2	32	34	30	33
73	2	65	66	67	35
90	2	65	67	35	66
92	2	68	70	67	69
124	1	27	29	10	28
148	1	73	72	74	75
161	2	32	30	33	34
168	2	70	68	71	72
177	2	29	37	27	30
196	2	67	77	65	68
198	2	35	36	65	34
204	2	65	35	66	67
206	2	30	32	29	31
209	2	67	68	77	65
227	2	32	33	34	30
246	1	27	10	28	29
265	2	68	69	70	67
275	1	73	75	72	74
287	2	29	27	30	37
299	2	67	65	68	77
302	1	27	28	29	10
306	2	72	73	77	70
307	2	68	67	69	70
315	2	70	71	72	68
322	2	34	35	37	32
340	2	29	30	37	27
347	2	72	77	70	73
349	2	35	34	36	65
379	2	34	32	35	37
415	2	30	29	31	32
437	1	73	74	75	72
447	2	34	37	32	35
452	2	70	72	68	71
455	2	30	31	32	29
