Title

10250 atoms
10875 bonds
19250 angles
33375 dihedrals
9750 impropers

9 atom types
13 bond types
6 angle types
13 dihedral types
2 improper types
-8.743982843 89.79921922 xlo xhi
-7.34349176 89.21674633 ylo yhi
-8.779296312 89.65276305 zlo zhi
0.0 0.0 0.0 xy xz yz

Masses

1	15.99943
2	12.01078
3	1.007947
4	12.01078
5	1.007947
6	15.99943
7	15.99943
8	1.007947
9	35.4532


Pair Coeffs

1	0.16846514	3.0251065
2	0.086879315	3.4806469
3	0.015611343	2.5725815
4	0.10884061	3.3795318
5	0.015779483	2.6445434
6	0.2102061	3.0398122
7	0.20947353	2.99716
8	1.2326e-05	0.53453923
9	0.2656001	3.3075278

Bond Coeffs

1 harmonic	425.69104206635	1.362945806494
2 harmonic	300.03137914615	1.451203938761
3 harmonic	360.7852444772	1.387193227181
4 harmonic	397.2545789619	1.085358495916
5 harmonic	289.73813263395	1.498646816465
6 harmonic	264.62148576755	1.52190126495
7 harmonic	301.15400723785	1.345741232799
8 harmonic	370.04670688625	1.093899492634
9 harmonic	582.698766451	1.225198386222
10 harmonic	279.1350963404	1.454628925034
11 harmonic	385.7604595587	1.369745182308
12 harmonic	543.5267831885	0.9716763312559
13 harmonic	218.0227703685	1.746066037062


Angle Coeffs

1 harmonic	57.8982893754	126.8062420451
2 harmonic	65.09061609600001	110.3538806181
3 harmonic	34.066775159195	129.1835929926
4 harmonic	53.20531626545	116.5475862634
5 harmonic	201.41175231035	127.4691416191
6 harmonic	48.776492647595	115.6030999533


Dihedral Coeffs

1 fourier 1	3.661930099076	2	180
2 fourier 1	1.532232714475	2	180
3 fourier 1	0.457973137376	1	0
4 fourier 1	0.02664938770063	3	0
5 fourier 1	0.1155372516788	3	0
6 fourier 1	0.1040663847541	3	0
7 fourier 1	0.09223874044423	3	0
8 fourier 1	0.3159935921949	2	180
9 fourier 1	0.3247796806857	1	180
10 fourier 1	2.779853741805	2	180
11 fourier 1	0.9974165607242	2	180
12 fourier 1	0.1911926717192	3	0
13 fourier 1	0.8283030590042	2	180


Improper Coeffs

1 0.3666666666666667	-1	2
2 3.5	-1	2


Atoms

1	4	1	-0.030766507	-3.4800603	-0.20753437	2.1933144
2	4	2	0.27457741	-2.4869065	0.76156801	2.0733174
3	4	2	-0.31317273	-1.7853434	1.1310397	3.1478191
4	4	3	0.22079134	-1.9873538	0.68353986	4.1121643
5	4	2	-0.18546125	-0.73037331	2.1573788	3.0297426
6	4	3	0.20830119	-0.19567164	2.4430252	3.9270282
7	4	2	-0.19701176	-0.43441322	2.7274377	1.8386228
8	4	4	0.01239745	0.66060346	3.8181463	1.7763481
9	4	2	-0.19701176	1.9450467	3.2533987	2.428084
10	4	2	-0.18789548	2.4413563	2.0721093	1.9922834
11	4	3	0.20830119	1.937495	1.5144151	1.211993
12	4	2	-0.26746851	3.6788848	1.5036557	2.5618592
13	4	3	0.22106072	4.0390533	0.54872034	2.2005128
14	4	2	0.43577522	4.3484782	2.1660243	3.5138852
15	4	1	-0.44361159	5.5176804	1.6437686	4.0623595
16	4	2	-0.2674686	3.8441052	3.4678834	3.9868871
17	4	3	0.22106072	4.3912784	4.0096816	4.7481408
18	4	2	-0.18789551	2.7188462	3.9867032	3.4775942
19	4	3	0.20830119	2.4003262	4.9459878	3.8527424
20	4	4	-0.13178937	0.079537227	5.0676337	2.5297433
21	4	5	0.10437234	-1.0204911	5.1324588	2.3638629
22	4	5	0.10437234	0.19383375	4.9718854	3.6304805
23	4	4	-0.13156618	0.67638987	6.3951755	2.0369251
24	4	5	0.10538396	0.28217178	7.2319883	2.6533003
25	4	5	0.10538396	1.7799087	6.3816748	2.1588552
26	4	4	-0.15322773	0.33678056	6.64663	0.55498613
27	4	5	0.10825008	-0.60671208	7.2302476	0.48519321
28	4	5	0.10825008	1.1427267	7.2664363	0.10489287
29	4	4	-0.13156617	0.17549624	5.3474671	-0.25740064
30	4	5	0.10538396	-0.89112014	5.0400561	-0.24146546
31	4	5	0.10538396	0.45186769	5.5369194	-1.3170028
32	4	4	-0.1317894	1.0527975	4.2201568	0.30909644
33	4	5	0.10437234	2.1023853	4.5935988	0.28548335
34	4	5	0.10437234	1.0495196	3.3423462	-0.37166112
35	4	2	-0.18546124	-1.2444817	2.3130793	0.65039002
36	4	3	0.20830119	-1.0853735	2.7440277	-0.32520056
37	4	2	-0.31317267	-2.2043654	1.3858343	0.76548218
38	4	3	0.22079143	-2.7791899	1.0956373	-0.10435429
39	5	2	0.62649369	5.9094726	0.72152333	3.7520748
40	5	6	-0.50832236	6.8061781	0.19487229	4.3892466
41	1	1	-0.030766507	-4.0254691	-0.50204302	1.3924281
42	1	2	0.27457741	-3.4665198	-1.2962924	0.39422443
43	1	2	-0.31317273	-4.2100599	-1.6714881	-0.65034118
44	1	3	0.22079134	-5.2454147	-1.3615484	-0.72272751
45	1	2	-0.18546125	-3.627271	-2.5134513	-1.7139976
46	1	3	0.20830119	-4.2669776	-2.8108689	-2.5358949
47	1	2	-0.19701176	-2.3327147	-2.9053826	-1.6691977
48	1	4	0.01239745	-1.7800206	-3.8125703	-2.7945068
49	1	2	-0.19701176	-2.0833484	-3.1379174	-4.152669
50	1	2	-0.14775597	-1.6953649	-1.8576426	-4.3554777
51	1	3	0.20830119	-1.1960569	-1.3004457	-3.571579
52	1	2	-0.40881097	-1.9368377	-1.1776353	-5.6428847
53	1	3	0.22547088	-1.6263524	-0.14761111	-5.7654083
54	1	2	0.42314285	-2.5309503	-1.8315161	-6.6484235
55	1	7	-0.6520558	-2.7671978	-1.2048596	-7.8714614
56	1	8	0.43169677	-2.4992647	-0.24107338	-8.036855
57	1	2	-0.40881094	-2.94025	-3.2357464	-6.464098
58	1	3	0.2254709	-3.4099498	-3.768873	-7.281313
59	1	2	-0.14775592	-2.728096	-3.8568078	-5.2961891
60	1	3	0.20830119	-3.038682	-4.8865765	-5.2186535
61	1	4	-0.13178937	-2.4841302	-5.2059958	-2.6218188
62	1	5	0.10437234	-2.6537695	-5.4129809	-1.5399714
63	1	5	0.10437234	-3.4985841	-5.2110245	-3.0728964
64	1	4	-0.13156618	-1.6441331	-6.3725966	-3.1639779
65	1	5	0.10538396	-2.2224187	-7.3173442	-3.0802477
66	1	5	0.10538396	-1.4242015	-6.2108936	-4.240149
67	1	4	-0.15322773	-0.31650604	-6.5134513	-2.3954565
68	1	5	0.10825008	-0.45401275	-7.2181186	-1.5461686
69	1	5	0.10825008	0.44344941	-6.9579025	-3.0743503
70	1	4	-0.13156617	0.20937903	-5.1734161	-1.8448344
71	1	5	0.10538396	-0.17707482	-5.0287512	-0.81380747
72	1	5	0.10538396	1.3180672	-5.207786	-1.784384
73	1	4	-0.1317894	-0.22093848	-3.9960511	-2.7336
74	1	5	0.10437234	0.17578628	-4.2075441	-3.7531152
75	1	5	0.10437234	0.29093239	-3.0613057	-2.4200218
76	1	2	-0.18546124	-1.5225076	-2.4920137	-0.48092639
77	1	3	0.20830119	-0.49269468	-2.7898144	-0.36231311
78	1	2	-0.31317267	-2.0585222	-1.7322764	0.4827097
79	1	3	0.22079143	-1.4578027	-1.4391501	1.3346334
80	2	2	0.46603951	5.5172575	0.23697138	2.8655661
81	2	6	-0.58820868	4.5629231	0.71809391	2.2785448
82	2	9	-0.090732881	6.255569	-1.2398631	2.2737266
83	4	1	-0.030766507	3.2943054	-2.4713206	17.691323
84	4	2	0.27457741	2.5254197	-1.9382893	18.72312
85	4	2	-0.31317273	3.0931464	-1.1412315	19.631767
86	4	3	0.22079134	4.1487065	-0.91042239	19.572218
87	4	2	-0.18546125	2.2855595	-0.57143669	20.728769
88	4	3	0.20830119	2.7857437	0.055857632	21.456051
89	4	2	-0.19701176	0.95911921	-0.82056853	20.827843
90	4	4	0.01239745	0.16613094	-0.22147331	22.013102
91	4	2	-0.19701176	0.42359162	1.3036651	22.047175
92	4	2	-0.18789548	0.20842203	2.034159	20.92835
93	4	3	0.20830119	-0.11932818	1.5586926	20.011691
94	4	2	-0.26746851	0.41259331	3.4960761	20.916289
95	4	3	0.22106072	0.24615188	4.0471775	19.999349
96	4	2	0.43577522	0.79726335	4.1317246	22.030479
97	4	1	-0.44361159	0.99479961	5.5106928	22.036404
98	4	2	-0.2674686	1.0119917	3.3630725	23.269845
99	4	3	0.22106072	1.3115175	3.8778069	24.174158
100	4	2	-0.18789551	0.83331354	2.0354523	23.28596
101	4	3	0.20830119	0.99489073	1.524124	24.221297
102	4	4	-0.13178937	0.67125379	-0.96559872	23.300576
103	4	5	0.10437234	0.92012951	-2.0234131	23.053856
104	4	5	0.10437234	1.6221403	-0.53244904	23.677472
105	4	4	-0.13156618	-0.38280125	-1.0121391	24.417837
106	4	5	0.10538396	0.055438173	-1.4848245	25.323429
107	4	5	0.10538396	-0.68689381	0.019500734	24.693609
108	4	4	-0.15322773	-1.6298247	-1.8042323	23.979399
109	4	5	0.10825008	-1.5108795	-2.8712715	24.267389
110	4	5	0.10825008	-2.5131832	-1.4104614	24.527957
111	4	4	-0.13156617	-1.892594	-1.7279166	22.463174
112	4	5	0.10538396	-1.3854185	-2.580026	21.964067
113	4	5	0.10538396	-2.9823991	-1.8298465	22.270911
114	4	4	-0.1317894	-1.3883292	-0.40150541	21.873467
115	4	5	0.10437234	-1.9156004	0.41075882	22.424704
116	4	5	0.10437234	-1.7212455	-0.29038042	20.819517
117	4	2	-0.18546124	0.34591281	-1.7308797	19.810438
118	4	3	0.20830119	-0.69841686	-1.9977552	19.841455
119	4	2	-0.31317267	1.0854533	-2.2494848	18.821229
120	4	3	0.22079143	0.62579169	-2.9039543	18.092097
121	5	2	0.62649369	0.85145233	6.092986	21.175764
122	5	6	-0.50832236	1.2305717	7.2519602	21.153918
123	1	1	-0.030766507	2.8853317	-3.0791814	16.99213
124	1	2	0.27457741	2.0375753	-2.5758145	16.008465
125	1	2	-0.31317273	1.5136007	-3.4006467	15.097507
126	1	3	0.22079134	1.746754	-4.4581776	15.120524
127	1	2	-0.18546125	0.61376789	-2.877297	14.050456
128	1	3	0.20830119	0.22270791	-3.5747978	13.319866
129	1	2	-0.19701176	0.28348057	-1.5658795	13.99959
130	1	4	0.01239745	-0.63956845	-1.0641574	12.863352
131	1	2	-0.19701176	-1.9183945	-1.9338449	12.859312
132	1	2	-0.14775597	-2.6254374	-2.0740599	14.004387
133	1	3	0.20830119	-2.2926617	-1.6015507	14.921049
134	1	2	-0.40881097	-3.8670875	-2.8707117	14.046658
135	1	3	0.22547088	-4.3996641	-2.9740245	14.983702
136	1	2	0.42314285	-4.3296123	-3.4557192	12.935139
137	1	7	-0.6520558	-5.5008122	-4.2121351	12.956557
138	1	8	0.43169677	-6.0351461	-4.3428737	13.808274
139	1	2	-0.40881094	-3.5936508	-3.2976002	11.667572
140	1	3	0.2254709	-3.9739829	-3.7606231	10.765553
141	1	2	-0.14775592	-2.4634052	-2.579697	11.624007
142	1	3	0.20830119	-1.9703162	-2.4887276	10.669288
143	1	4	-0.13178937	0.1938367	-1.1784285	11.536851
144	1	5	0.10437234	1.2682532	-0.96838026	11.745473
145	1	5	0.10437234	0.18135577	-2.2125513	11.13306
146	1	4	-0.13156618	-0.24826026	-0.17208227	10.463396
147	1	5	0.10538396	0.32549413	-0.34946858	9.5288838
148	1	5	0.10538396	-1.323059	-0.31990958	10.227564
149	1	4	-0.15322773	-0.031536562	1.279553	10.931205
150	1	5	0.10825008	0.97586007	1.624708	10.610621
151	1	5	0.10825008	-0.77961885	1.931523	10.429932
152	1	4	-0.13156617	-0.14767109	1.4470096	12.458917
153	1	5	0.10538396	0.85845576	1.3285553	12.913855
154	1	5	0.10538396	-0.50137046	2.4737693	12.692768
155	1	4	-0.1317894	-1.1176288	0.41910288	13.062122
156	1	5	0.10437234	-2.0975179	0.57262234	12.554401
157	1	5	0.10437234	-1.3150185	0.64749982	14.131217
158	1	2	-0.18546124	0.89696488	-0.65509689	15.016158
159	1	3	0.20830119	0.70279717	0.40581928	15.021135
160	1	2	-0.31317267	1.7161156	-1.1354286	15.960287
161	1	3	0.22079143	2.1494534	-0.46347112	16.690529
162	2	2	0.46603951	0.366673	5.6645253	20.306321
163	2	6	-0.58820868	0.06683451	4.4826641	20.295005
164	2	9	-0.090732881	0.012133137	6.6712143	18.914453
165	4	1	-0.030766507	-1.1192249	-3.9473122	35.157579
166	4	2	0.27457741	-0.17079686	-3.294779	35.941541
167	4	2	-0.31317273	1.1214244	-3.6092428	35.820998
168	4	3	0.22079134	1.4347771	-4.3713375	35.119536
169	4	2	-0.18546125	2.1337438	-2.9223061	36.647801
170	4	3	0.20830119	3.1693232	-3.2176614	36.533952
171	4	2	-0.19701176	1.7850355	-1.9508098	37.522971
172	4	4	0.01239745	2.8824045	-1.283529	38.385005
173	4	2	-0.19701176	3.99652	-0.77243956	37.441062
174	4	2	-0.18789548	3.665462	0.033818572	36.405669
175	4	3	0.20830119	2.6322183	0.30354477	36.222893
176	4	2	-0.26746851	4.6938436	0.57047501	35.492727
177	4	3	0.22106072	4.3918762	1.1999581	34.665224
178	4	2	0.43577522	5.986606	0.28201211	35.6902
179	4	1	-0.44361159	6.9697767	0.77983757	34.838053
180	4	2	-0.2674686	6.376602	-0.57167231	36.826899
181	4	3	0.22106072	7.4226693	-0.7956958	36.994255
182	4	2	-0.18789551	5.4475976	-1.0659558	37.655993
183	4	3	0.20830119	5.7888092	-1.6766381	38.476395
184	4	4	-0.13178937	3.3775088	-2.3813999	39.39298
185	4	5	0.10437234	2.527366	-3.0410934	39.682536
186	4	5	0.10437234	4.1175556	-3.064185	38.923949
187	4	4	-0.13156618	3.9369371	-1.7894841	40.696109
188	4	5	0.10538396	4.3353722	-2.6070105	41.335235
189	4	5	0.10538396	4.7793642	-1.1030521	40.468225
190	4	4	-0.15322773	2.8527802	-1.0157861	41.471159
191	4	5	0.10825008	2.3494423	-1.7009716	42.187281
192	4	5	0.10825008	3.3435242	-0.21635755	42.068132
193	4	4	-0.13156617	1.7854119	-0.38829809	40.554211
194	4	5	0.10538396	0.94601422	-1.1044962	40.432155
195	4	5	0.10538396	1.3759329	0.52618184	41.034922
196	4	4	-0.1317894	2.3696867	-0.028675697	39.179184
197	4	5	0.10437234	3.2148993	0.67249229	39.367943
198	4	5	0.10437234	1.6392703	0.56193438	38.586171
199	4	2	-0.18546124	0.33016023	-1.6262272	37.656332
200	4	3	0.20830119	-0.025866794	-0.88402942	38.352892
201	4	2	-0.31317267	-0.58384752	-2.2574935	36.907667
202	4	3	0.22079143	-1.6317065	-2.0088907	37.01463
203	5	2	0.62649369	6.7331842	1.3912208	34.019183
204	5	6	-0.50832236	7.5804846	1.6368963	33.177069
205	1	1	-0.030766507	-2.1046168	-3.726157	35.233197
206	1	2	0.27457741	-2.6139114	-2.530286	34.733019
207	1	2	-0.31317273	-3.9185412	-2.2654685	34.845062
208	1	3	0.22079134	-4.5810325	-2.9775516	35.321827
209	1	2	-0.18546125	-4.4686829	-1.0006938	34.318185
210	1	3	0.20830119	-5.5341162	-0.83021241	34.412975
211	1	2	-0.19701176	-3.6706122	-0.077589876	33.732988
212	1	4	0.01239745	-4.3028321	1.2180196	33.170427
213	1	2	-0.19701176	-5.1393165	1.8751351	34.293041
214	1	2	-0.14775597	-4.5592453	2.1231416	35.490027
215	1	3	0.20830119	-3.5270781	1.8477599	35.671878
216	1	2	-0.40881097	-5.3061843	2.7729384	36.584551
217	1	3	0.22547088	-4.8150709	2.9426937	37.534474
218	1	2	0.42314285	-6.5770507	3.1506833	36.40058
219	1	7	-0.6520558	-7.2980276	3.7657136	37.42345
220	1	8	0.43169677	-6.8862095	3.9445124	38.33255
221	1	2	-0.40881094	-7.2259395	2.9168483	35.097648
222	1	3	0.2254709	-8.2501984	3.2332453	34.944454
223	1	2	-0.14775592	-6.5545759	2.3230846	34.101931
224	1	3	0.20830119	-7.0739935	2.1849002	33.167046
225	1	4	-0.13178937	-5.1611422	0.78512898	31.928197
226	1	5	0.10437234	-4.6691418	-0.068218233	31.406902
227	1	5	0.10437234	-6.1549306	0.39502387	32.232853
228	1	4	-0.13156618	-5.3142425	1.9043483	30.886853
229	1	5	0.10538396	-5.9876041	1.5638782	30.0716
230	1	5	0.10538396	-5.7830182	2.794676	31.356137
231	1	4	-0.15322773	-3.9518007	2.308507	30.292322
232	1	5	0.10825008	-3.7536193	1.7057414	29.379003
233	1	5	0.10825008	-4.0003985	3.3746468	29.980954
234	1	4	-0.13156617	-2.7807732	2.1146092	31.275446
235	1	5	0.10538396	-2.352097	1.1001419	31.132674
236	1	5	0.10538396	-1.980563	2.8506369	31.047516
237	1	4	-0.1317894	-3.238839	2.2875108	32.731999
238	1	5	0.10437234	-3.6759057	3.3096936	32.807139
239	1	5	0.10437234	-2.3651338	2.3031726	33.417919
240	1	2	-0.18546124	-2.2159537	-0.40197478	33.598672
241	1	3	0.20830119	-1.5240869	0.27212116	33.118897
242	1	2	-0.31317267	-1.7241895	-1.5530276	34.074437
243	1	3	0.22079143	-0.66853215	-1.7713167	33.971975
244	2	2	0.46603951	5.735966	1.8042218	33.921679
245	2	6	-0.58820868	4.864473	1.4888903	34.714076
246	2	9	-0.090732881	5.3747375	2.9275674	32.623979
247	4	1	-0.030766507	-0.33649177	-1.3765932	57.14574
248	4	2	0.27457741	0.50380439	-0.44849512	56.535454
249	4	2	-0.31317273	1.8247071	-0.64460343	56.538834
250	4	3	0.22079134	2.24558	-1.5195359	57.016731
251	4	2	-0.18546125	2.7229801	0.33390405	55.893927
252	4	3	0.20830119	3.7891992	0.14882518	55.933218
253	4	2	-0.19701176	2.2351654	1.4309443	55.269535
254	4	4	0.01239745	3.2223914	2.4384966	54.634864
255	4	2	-0.19701176	4.1638698	1.6615672	53.684341
256	4	2	-0.18789548	3.6275938	0.87078377	52.725821
257	4	3	0.20830119	2.5534498	0.76277348	52.634715
258	4	2	-0.26746851	4.4816921	0.13030019	51.776488
259	4	3	0.22106072	4.0194293	-0.50563545	51.032114
260	4	2	0.43577522	5.8143637	0.24803831	51.836197
261	4	1	-0.44361159	6.6349791	-0.44390155	50.948268
262	4	2	-0.2674686	6.4229009	1.1244132	52.853355
263	4	3	0.22106072	7.4997999	1.2294303	52.894718
264	4	2	-0.18789551	5.6534324	1.7950971	53.721031
265	4	3	0.20830119	6.1500466	2.429124	54.437831
266	4	4	-0.13178937	3.9753304	3.1272705	55.828653
267	4	5	0.10437234	3.287906	3.2340921	56.699181
268	4	5	0.10437234	4.8102841	2.4980615	56.20389
269	4	4	-0.13156618	4.4734383	4.5403306	55.487157
270	4	5	0.10538396	5.0575106	4.945642	56.341654
271	4	5	0.10538396	5.1512127	4.4999995	54.608637
272	4	4	-0.15322773	3.2994172	5.4881326	55.174023
273	4	5	0.10825008	2.9785	6.0007783	56.106689
274	4	5	0.10825008	3.6530537	6.2731292	54.470451
275	4	4	-0.13156617	2.0835872	4.76411	54.564632
276	4	5	0.10538396	1.3966391	4.4587957	55.381523
277	4	5	0.10538396	1.5272153	5.4653332	53.906023
278	4	4	-0.1317894	2.5139985	3.5307158	53.755379
279	4	5	0.10437234	3.2130337	3.8965434	52.968505
280	4	5	0.10437234	1.6519926	3.1104379	53.19475
281	4	2	-0.18546124	0.75368321	1.6418042	55.292982
282	4	3	0.20830119	0.29469924	2.5067663	54.841336
283	4	2	-0.31317267	-0.055288816	0.75337239	55.885146
284	4	3	0.22079143	-1.1246712	0.91963212	55.890798
285	5	2	0.62649369	6.2407318	-1.0761033	50.209888
286	5	6	-0.50832236	6.9785301	-1.8241011	49.590547
287	1	1	-0.030766507	-1.3409203	-1.2476369	57.156632
288	1	2	0.27457741	-2.1009368	-1.4206177	56.002457
289	1	2	-0.31317273	-3.424642	-1.2456406	56.04637
290	1	3	0.22079134	-3.9083917	-0.9713658	56.975897
291	1	2	-0.18546125	-4.2396015	-1.4265579	54.828577
292	1	3	0.20830119	-5.3114213	-1.2923842	54.908556
293	1	2	-0.19701176	-3.6702776	-1.7504819	53.644331
294	1	4	0.01239745	-4.5735073	-1.9579721	52.405015
295	1	2	-0.19701176	-5.46419	-0.70446235	52.240192
296	1	2	-0.14775597	-4.8835617	0.51675315	52.192553
297	1	3	0.20830119	-3.8094048	0.62239808	52.288989
298	1	2	-0.40881097	-5.686579	1.741376	52.009255
299	1	3	0.22547088	-5.1903356	2.7035421	51.990764
300	1	2	0.42314285	-7.014713	1.659914	51.864127
301	1	7	-0.6520558	-7.7891479	2.8063504	51.690152
302	1	8	0.43169677	-7.3744203	3.7313232	51.668862
303	1	2	-0.40881094	-7.6709603	0.33997004	51.885395
304	1	3	0.2254709	-8.7439828	0.27266915	51.755876
305	1	2	-0.14775592	-6.9478925	-0.77479752	52.056288
306	1	3	0.20830119	-7.4772945	-1.7142811	52.05453
307	1	4	-0.13178937	-5.3924368	-3.271363	52.672568
308	1	5	0.10437234	-4.7694082	-3.9957575	53.246243
309	1	5	0.10437234	-6.2728448	-3.0801189	53.321352
310	1	4	-0.13156618	-5.8164643	-3.9862765	51.380443
311	1	5	0.10538396	-6.4505653	-4.8630542	51.631739
312	1	5	0.10538396	-6.4267185	-3.3024573	50.75383
313	1	4	-0.15322773	-4.5928142	-4.453204	50.569445
314	1	5	0.10825008	-4.3269971	-5.4914846	50.866208
315	1	5	0.10825008	-4.8665102	-4.4768594	49.492181
316	1	4	-0.13156617	-3.3575372	-3.5524275	50.764705
317	1	5	0.10538396	-2.7452788	-3.9532814	51.600017
318	1	5	0.10538396	-2.7308706	-3.5799794	49.847887
319	1	4	-0.1317894	-3.7651306	-2.1017093	51.06562
320	1	5	0.10437234	-4.3906039	-1.7641709	50.207493
321	1	5	0.10437234	-2.8775322	-1.433924	51.047618
322	1	2	-0.18546124	-2.1890958	-1.962214	53.620499
323	1	3	0.20830119	-1.6692554	-2.2492221	52.720131
324	1	2	-0.31317267	-1.4563304	-1.8011867	54.729657
325	1	3	0.22079143	-0.38505514	-1.9552088	54.694908
326	2	2	0.46603951	5.1780116	-1.0644778	49.997729
327	2	6	-0.58820868	4.4276962	-0.3826297	50.675178
328	2	9	-0.090732881	4.536215	-2.0261911	48.678781
329	4	1	-0.030766507	-3.5297839	-1.4798932	72.559405
330	4	2	0.27457741	-2.1955451	-1.6338958	72.928191
331	4	2	-0.31317273	-1.6412917	-2.8488251	72.926213
332	4	3	0.22079134	-2.2250571	-3.7148197	72.642845
333	4	2	-0.18546125	-0.22740252	-3.021325	73.315362
334	4	3	0.20830119	0.18079796	-4.0243128	73.318318
335	4	2	-0.19701176	0.54161382	-1.9618751	73.658153
336	4	4	0.01239745	2.0087904	-2.2021789	74.085039
337	4	2	-0.19701176	2.7064913	-3.0284481	72.9787
338	4	2	-0.18789548	2.6614281	-2.5888474	71.699478
339	4	3	0.20830119	2.1265996	-1.6817662	71.444695
340	4	2	-0.26746851	3.3341414	-3.3256644	70.611548
341	4	3	0.22106072	3.264443	-2.9538035	69.597124
342	4	2	0.43577522	4.0250656	-4.4409774	70.88014
343	4	1	-0.44361159	4.665524	-5.1485599	69.865375
344	4	2	-0.2674686	4.1126936	-4.9262506	72.26931
345	4	3	0.22106072	4.6809936	-5.8213452	72.489064
346	4	2	-0.18789551	3.5001525	-4.2648763	73.260339
347	4	3	0.20830119	3.6047238	-4.6583811	74.258656
348	4	4	-0.13178937	1.9481506	-2.9428537	75.46858
349	4	5	0.10437234	1.0712918	-2.5816251	76.053741
350	4	5	0.10437234	1.7737618	-4.0325961	75.342469
351	4	4	-0.13156618	3.1898021	-2.6903418	76.338068
352	4	5	0.10538396	3.1218108	-3.2948472	77.268408
353	4	5	0.10538396	4.1030292	-3.0138022	75.795673
354	4	4	-0.15322773	3.3236478	-1.199591	76.704748
355	4	5	0.10825008	2.8068453	-1.007866	77.670054
356	4	5	0.10825008	4.4001229	-0.96455852	76.853926
357	4	4	-0.13156617	2.7373576	-0.25860647	75.634879
358	4	5	0.10538396	1.6752353	-0.048235281	75.879963
359	4	5	0.10538396	3.2821351	0.70981162	75.655223
360	4	4	-0.1317894	2.8374731	-0.87543883	74.230991
361	4	5	0.10437234	3.9178899	-1.0810285	74.051873
362	4	5	0.10437234	2.5589978	-0.13030134	73.455611
363	4	2	-0.18546124	-0.1033646	-0.61146117	73.671789
364	4	3	0.20830119	0.43814535	0.2749995	73.961208
365	4	2	-0.31317267	-1.3882736	-0.46259093	73.323575
366	4	3	0.22079143	-1.8386383	0.52141254	73.336296
367	5	2	0.62649369	4.6278667	-4.8354669	68.864941
368	5	6	-0.50832236	5.0146688	-5.5787324	67.978729
369	1	1	-0.030766507	-3.9712193	-0.56844366	72.554974
370	1	2	0.27457741	-3.6633297	0.37520625	71.578042
371	1	2	-0.31317273	-4.2624034	1.5691676	71.595593
372	1	3	0.22079134	-4.9870079	1.804979	72.3654
373	1	2	-0.18546125	-3.9432244	2.5766872	70.564604
374	1	3	0.20830119	-4.4624389	3.5265037	70.602838
375	1	2	-0.19701176	-3.0298783	2.326957	69.597688
376	1	4	0.01239745	-2.7546661	3.4062298	68.523346
377	1	2	-0.19701176	-2.4147245	4.7313048	69.244724
378	1	2	-0.14775597	-1.4340635	4.7431476	70.176888
379	1	3	0.20830119	-0.90411251	3.8334275	70.433472
380	1	2	-0.40881097	-1.0532117	5.9870019	70.873963
381	1	3	0.22547088	-0.27403518	5.9570715	71.625196
382	1	2	0.42314285	-1.664463	7.1398697	70.575793
383	1	7	-0.6520558	-1.3176864	8.3245359	71.224364
384	1	8	0.43169677	-0.59749323	8.3503895	71.937582
385	1	2	-0.40881094	-2.718304	7.1611545	69.545098
386	1	3	0.2254709	-3.2046334	8.0958124	69.294937
387	1	2	-0.14775592	-3.0716939	6.0344135	68.912399
388	1	3	0.20830119	-3.8415633	6.1083588	68.160912
389	1	4	-0.13178937	-4.0533838	3.4927995	67.644106
390	1	5	0.10437234	-4.519678	2.4843193	67.557208
391	1	5	0.10437234	-4.8313013	4.1233984	68.123483
392	1	4	-0.13156618	-3.7753242	3.9711957	66.21082
393	1	5	0.10538396	-4.7353661	4.0813014	65.662943
394	1	5	0.10538396	-3.2886014	4.9688087	66.23387
395	1	4	-0.15322773	-2.8638481	2.9847446	65.456377
396	1	5	0.10825008	-3.4905425	2.2423032	64.915277
397	1	5	0.10825008	-2.2839204	3.5473008	64.692714
398	1	4	-0.13156617	-1.8920926	2.2283828	66.383222
399	1	5	0.10538396	-2.3668938	1.2785567	66.708314
400	1	5	0.10538396	-0.97165804	1.9659805	65.819333
401	1	4	-0.1317894	-1.5193906	3.0728866	67.611706
402	1	5	0.10437234	-1.0698373	4.0155086	67.223252
403	1	5	0.10437234	-0.70283579	2.5872839	68.187483
404	1	2	-0.18546124	-2.3852581	0.976568	69.583119
405	1	3	0.20830119	-1.6691733	0.69547204	68.827158
406	1	2	-0.31317267	-2.6827426	0.065556655	70.518356
407	1	3	0.22079143	-2.2051283	-0.90600066	70.495508
408	2	2	0.46603951	4.2451747	-3.8517677	68.619169
409	2	6	-0.58820868	3.7771235	-3.1427798	69.493864
410	2	9	-0.090732881	4.2994041	-3.278118	66.962545
411	4	1	-0.030766507	-2.8984019	20.567935	-0.82237487
412	4	2	0.27457741	-1.8212587	20.07006	-1.5516183
413	4	2	-0.31317273	-0.85153928	20.895893	-1.9527385
414	4	3	0.22079134	-0.90054239	21.950884	-1.7169025
415	4	2	-0.18546125	0.2942589	20.376673	-2.725935
416	4	3	0.20830119	1.0512948	21.080579	-3.0484767
417	4	2	-0.19701176	0.40215494	19.061322	-3.0251632
418	4	4	0.01239745	1.6086455	18.575235	-3.862232
419	4	2	-0.19701176	2.9046033	19.071971	-3.1786819
420	4	2	-0.18789548	3.1070899	18.796335	-1.8692109
421	4	3	0.20830119	2.3644027	18.253667	-1.2967785
422	4	2	-0.26746851	4.3391045	19.223724	-1.1774652
423	4	3	0.22106072	4.4612525	18.999971	-0.1252255
424	4	2	0.43577522	5.2953361	19.879079	-1.8479666
425	4	1	-0.44361159	6.4638654	20.289841	-1.2104534
426	4	2	-0.2674686	5.111602	20.16779	-3.2817894
427	4	3	0.22106072	5.8893881	20.687155	-3.8274631
428	4	2	-0.18789551	3.9935565	19.787062	-3.9140721
429	4	3	0.20830119	3.9152444	20.015325	-4.9648722
430	4	4	-0.13178937	1.4051557	19.158484	-5.3061409
431	4	5	0.10437234	0.31858051	19.194215	-5.5508009
432	4	5	0.10437234	1.7443977	20.214085	-5.373038
433	4	4	-0.13156618	2.0723645	18.305296	-6.3962657
434	4	5	0.10538396	1.9559541	18.804338	-7.3826668
435	4	5	0.10538396	3.1603572	18.216355	-6.1933755
436	4	4	-0.15322773	1.4553044	16.89467	-6.4601342
437	4	5	0.10825008	0.61947389	16.888971	-7.1929465
438	4	5	0.10825008	2.2260616	16.185074	-6.8325585
439	4	4	-0.13156617	0.92307552	16.405188	-5.0996386
440	4	5	0.10538396	-0.14751959	16.68409	-5.0076307
441	4	5	0.10538396	0.98349139	15.296375	-5.0558947
442	4	4	-0.1317894	1.722636	17.009999	-3.9350308
443	4	5	0.10437234	2.7851416	16.713682	-4.0929196
444	4	5	0.10437234	1.4356583	16.532534	-2.9739566
445	4	2	-0.18546124	-0.70407361	18.15572	-2.582507
446	4	3	0.20830119	-0.70139874	17.101363	-2.8086325
447	4	2	-0.31317267	-1.7439044	18.634181	-1.8866379
448	4	3	0.22079143	-2.5342059	17.965165	-1.5718451
449	5	2	0.62649369	6.6327381	20.102619	-0.1922472
450	5	6	-0.50832236	7.5577313	20.651089	0.38307684
451	1	1	-0.030766507	-3.6457576	19.960491	-0.50917085
452	1	2	0.27457741	-3.4487231	19.05472	0.530263
453	1	2	-0.31317273	-4.4531216	18.266754	0.9240075
454	1	3	0.22079134	-5.4195253	18.330896	0.43902134
455	1	2	-0.18546125	-4.2548466	17.303139	2.0249356
456	1	3	0.20830119	-5.0981341	16.693931	2.3264788
457	1	2	-0.19701176	-3.0572882	17.179888	2.6431235
458	1	4	0.01239745	-2.9115437	16.175805	3.8116081
459	1	2	-0.19701176	-3.4020717	14.792315	3.3246708
460	1	2	-0.14775597	-2.8790446	14.266899	2.1927935
461	1	3	0.20830119	-2.1400204	14.813997	1.6193819
462	1	2	-0.40881097	-3.2935117	12.938636	1.7007855
463	1	3	0.22547088	-2.8653216	12.5553	0.7831419
464	1	2	0.42314285	-4.1875888	12.215856	2.386244
465	1	7	-0.6520558	-4.5908647	10.959187	1.9362618
466	1	8	0.43169677	-4.2232016	10.555998	1.0816922
467	1	2	-0.40881094	-4.7540409	12.752429	3.6370784
468	1	3	0.2254709	-5.4682671	12.162872	4.1983137
469	1	2	-0.14775592	-4.3853297	13.959546	4.086143
470	1	3	0.20830119	-4.8235365	14.299608	5.0109303
471	1	4	-0.13178937	-3.7629316	16.754817	4.9978246
472	1	5	0.10437234	-3.7182643	17.868332	4.9876874
473	1	5	0.10437234	-4.8407956	16.514252	4.8840242
474	1	4	-0.13156618	-3.2506772	16.308957	6.3759731
475	1	5	0.10538396	-3.9325008	16.688567	7.1665337
476	1	5	0.10538396	-3.2525074	15.200472	6.4385669
477	1	4	-0.15322773	-1.8229804	16.824664	6.6382467
478	1	5	0.10825008	-1.8743162	17.80849	7.1541971
479	1	5	0.10825008	-1.3085789	16.117534	7.3247769
480	1	4	-0.13156617	-0.99126692	16.985334	5.3506629
481	1	5	0.10538396	-1.1133816	18.020431	4.9673188
482	1	5	0.10538396	0.084931468	16.840512	5.5848606
483	1	4	-0.1317894	-1.4239815	15.976119	4.2757163
484	1	5	0.10437234	-1.2995595	14.963561	4.7237959
485	1	5	0.10437234	-0.71970607	15.992973	3.4167611
486	1	2	-0.18546124	-1.9510677	18.085699	2.201445
487	1	3	0.20830119	-0.97792886	18.064601	2.6660143
488	1	2	-0.31317267	-2.1388945	18.960834	1.2054691
489	1	3	0.22079143	-1.3271685	19.607143	0.89571741
490	2	2	0.46603951	5.985183	19.42204	0.34812878
491	2	6	-0.58820868	5.0088708	18.941821	-0.20235397
492	2	9	-0.090732881	6.341434	19.009962	2.0153704
493	4	1	-0.030766507	2.1069739	20.429583	20.082325
494	4	2	0.27457741	2.3651525	19.82632	18.853777
495	4	2	-0.31317273	3.4382043	19.044663	18.709464
496	4	3	0.22079134	4.1101455	18.880648	19.541702
497	4	2	-0.18546125	3.719428	18.400813	17.410755
498	4	3	0.20830119	4.6088483	17.788637	17.328334
499	4	2	-0.19701176	2.893962	18.565533	16.351133
500	4	4	0.01239745	3.2509628	17.891281	15.005577
501	4	2	-0.19701176	3.4862652	16.38448	15.265724
502	4	2	-0.18789548	2.5320101	15.668482	15.904812
503	4	3	0.20830119	1.6223074	16.144186	16.251076
504	4	2	-0.26746851	2.6958173	14.222566	16.152861
505	4	3	0.22106072	1.9192668	13.683851	16.681017
506	4	2	0.43577522	3.7937222	13.58591	15.725409
507	4	1	-0.44361159	3.9643555	12.221936	15.951388
508	4	2	-0.2674686	4.8358676	14.33714	15.002535
509	4	3	0.22106072	5.7183979	13.820806	14.646178
510	4	2	-0.18789551	4.695459	15.650522	14.778764
511	4	3	0.20830119	5.4832966	16.148822	14.237074
512	4	4	-0.13178937	4.5246995	18.634768	14.465871
513	4	5	0.10437234	4.484249	19.711359	14.750645
514	4	5	0.10437234	5.4537265	18.252216	14.939597
515	4	4	-0.13156618	4.6401386	18.590291	12.934151
516	4	5	0.10538396	5.5931134	19.067737	12.618768
517	4	5	0.10538396	4.6642726	17.535743	12.587524
518	4	4	-0.15322773	3.4576461	19.314239	12.261606
519	4	5	0.10825008	3.7248157	20.379551	12.090173
520	4	5	0.10825008	3.2781849	18.854188	11.265393
521	4	4	-0.13156617	2.1617749	19.257362	13.093045
522	4	5	0.10538396	2.1135501	20.150473	13.750657
523	4	5	0.10538396	1.2837477	19.296556	12.412926
524	4	4	-0.1317894	2.0972434	17.978608	13.942769
525	4	5	0.10437234	2.1695185	17.122802	13.232823
526	4	5	0.10437234	1.0967419	17.871882	14.413512
527	4	2	-0.18546124	1.7071671	19.459943	16.528191
528	4	3	0.20830119	1.02082	19.661304	15.721227
529	4	2	-0.31317267	1.4610711	20.046011	17.707329
530	4	3	0.22079143	0.59689786	20.687839	17.819201
531	5	2	0.62649369	3.245721	11.6522	16.460584
532	5	6	-0.50832236	3.5127149	10.519557	16.825637
533	1	1	-0.030766507	1.300172	21.02732	20.21426
534	1	2	0.27457741	0.014619431	20.495903	20.282216
535	1	2	-0.31317273	-1.0313665	21.308019	20.458634
536	1	3	0.22079134	-0.88298799	22.377057	20.550298
537	1	2	-0.18546125	-2.3983415	20.754942	20.532087
538	1	3	0.20830119	-3.2184634	21.443959	20.692873
539	1	2	-0.19701176	-2.6265454	19.427245	20.403104
540	1	4	0.01239745	-4.0755987	18.896406	20.518146
541	1	2	-0.19701176	-4.9602391	19.685674	19.525052
542	1	2	-0.14775597	-4.592964	19.755355	18.22466
543	1	3	0.20830119	-3.6799483	19.28291	17.881918
544	1	2	-0.40881097	-5.4165851	20.472949	17.232268
545	1	3	0.22547088	-5.0847906	20.521396	16.20274
546	1	2	0.42314285	-6.5636876	21.054224	17.603635
547	1	7	-0.6520558	-7.3543395	21.736489	16.679666
548	1	8	0.43169677	-7.0874686	21.814188	15.704592
549	1	2	-0.40881094	-7.0016201	20.971319	19.008877
550	1	3	0.2254709	-7.9355873	21.431031	19.307292
551	1	2	-0.14775592	-6.2558333	20.325483	19.915208
552	1	3	0.20830119	-6.6275665	20.287337	20.926771
553	1	4	-0.13178937	-4.4980999	19.092669	22.018213
554	1	5	0.10437234	-3.6157243	18.944262	22.682594
555	1	5	0.10437234	-4.8299852	20.13322	22.217507
556	1	4	-0.13156618	-5.5648721	18.086403	22.476377