Title

115 atoms
114 bonds
217 angles
392 dihedrals
15 impropers

9 atom types
12 bond types
9 angle types
39 dihedral types
3 improper types
-4.103000164 95.89699984 xlo xhi
-1.546000004 98.454 ylo yhi
-3.47300005 96.52699995 zlo zhi
0.0 0.0 0.0 xy xz yz

Masses

1	14.00672
2	12.01078
3	1.007947
4	1.007947
5	1.007947
6	12.01078
7	15.99943
8	15.99943
9	1.007947


Pair Coeffs

1	0.16769152	3.206876
2	0.10884061	3.3795318
3	0.014090815	1.1034277
4	0.016409246	2.5832257
5	0.015779483	2.6445434
6	0.086879315	3.4806469
7	0.2102061	3.0398122
8	0.20947353	2.99716
9	1.2326e-05	0.53453923

Bond Coeffs

1 harmonic	366.34047229585	1.464762957261
2 harmonic	505.144496193	1.019481865027
3 harmonic	422.7150220147	1.421786517481
4 harmonic	264.62148576755	1.52190126495
5 harmonic	370.04670688625	1.093899492634
6 harmonic	352.0565580496	1.450098586273
7 harmonic	492.76746816345	1.381897776683
8 harmonic	582.698766451	1.225198386222
9 harmonic	329.44145381095	1.523435958334
10 harmonic	279.1350963404	1.454628925034
11 harmonic	385.7604595587	1.369745182308
12 harmonic	543.5267831885	0.9716763312559


Angle Coeffs

1 harmonic	53.20531626545	116.5475862634
2 harmonic	49.015990027215	114.8414599994
3 harmonic	94.53012429075	110.92021963
4 harmonic	63.44422595415	115.5071327674
5 harmonic	55.42182150775	117.3465570514
6 harmonic	57.8982893754	126.8062420451
7 harmonic	48.776492647595	115.6030999533
8 harmonic	65.09061609600001	110.3538806181
9 harmonic	201.41175231035	127.4691416191


Dihedral Coeffs

1 fourier 1	0.1155372516788	3	0
2 fourier 1	0.2036670163956	3	0
3 fourier 1	0.6761465733405	3	0
4 fourier 1	1.653011589151	2	0
5 fourier 1	1.713184811193	1	0
6 fourier 1	0.774151252041	3	0
7 fourier 1	1.087509576657	2	0
8 fourier 1	1.518874939494	1	0
9 fourier 1	0.09223874044423	3	0
10 fourier 1	0.3159935921949	2	180
11 fourier 1	0.3247796806857	1	180
12 fourier 1	0.1040663847541	3	0
13 fourier 1	0.182238503271	2	0
14 fourier 1	0.02972342374561	3	0
15 fourier 1	-0.1488678166443	4	180
16 fourier 1	-0.1230328948768	3	180
17 fourier 1	0.2939295466901	2	0
18 fourier 1	-0.3024127022865	1	0
19 fourier 1	3.101948770557	2	180
20 fourier 1	-0.4252153282372	1	0
21 fourier 1	1.809047390003	2	180
22 fourier 1	-0.04816277792592	1	0
23 fourier 1	-0.04561822763521	4	0
24 fourier 1	0.1536091026885	2	0
25 fourier 1	0.02664938770063	3	0
26 fourier 1	2.348375642009	2	180
27 fourier 1	1.256156174911	1	0
28 fourier 1	0.1911926717192	3	0
29 fourier 1	0.3917343745784	3	0
30 fourier 1	0.9467782973395	2	0
31 fourier 1	0.2726597146827	1	0
32 fourier 1	-0.3703352413219	2	0
33 fourier 1	0.4541676554336	1	0
34 fourier 1	0.1489710476446	2	0
35 fourier 1	0.02960027280666	3	180
36 fourier 1	0.9974165607242	2	180
37 fourier 1	2.687457892086	2	180
38 fourier 1	2.772607909663	2	180
39 fourier 1	0.09692684957115	1	0


Improper Coeffs

1 0.3333333333333333	-1	2
2 0.3666666666666667	-1	2
3 3.5	-1	2


Atoms

1	1	1	-0.63876998	-3.73	0.76800001	-0.67199999
2	1	2	0.030637	-3.329	-0.105	0.43099999
3	1	2	-0.156077	-1.973	-0.787	0.18000001
4	1	2	-0.144658	-0.80000001	0.204	0.20299999
5	1	2	-0.14467999	0.542	-0.52999997	0.092
6	1	2	-0.14607801	1.7130001	0.45899999	0.102
7	1	2	0.015006	3.0539999	-0.27200001	-0.0060000001
8	1	1	-0.49108201	4.152	0.68900001	-0.017000001
9	1	3	0.31691301	4.223	1.115	0.93599999
10	1	4	0.047361001	3.0769999	-0.861	-0.949
11	1	4	0.047361001	3.1760001	-0.97299999	0.85100001
12	1	5	0.082171001	1.692	1.0470001	1.0470001
13	1	5	0.082171001	1.613	1.163	-0.75300002
14	1	5	0.081137002	0.56300002	-1.1160001	-0.85299999
15	1	5	0.081137002	0.648	-1.234	0.94700003
16	1	5	0.082622997	-0.89300001	0.912	-0.64899999
17	1	5	0.082622997	-0.824	0.78399998	1.152
18	1	5	0.087687999	-1.819	-1.546	0.97799999
19	1	5	0.087687999	-1.995	-1.323	-0.79400003
20	1	4	0.088146999	-3.2950001	0.479	1.376
21	1	4	0.088146999	-4.1030002	-0.89200002	0.55500001
22	1	3	0.35957801	-3.1029999	1.604	-0.69499999
23	1	6	0.72516698	5.0549998	0.147	-0.17399999
24	1	7	-0.74527699	5.368	-0.189	-1.3049999
25	1	2	-0.18189199	5.9250002	-0.211	0.99599999
26	1	2	-0.121351	7.3000002	0.46700001	0.921
27	1	2	-0.137044	7.204	1.99	1.089
28	1	2	-0.1416	8.5950003	2.6359999	1.057
29	1	2	-0.141699	8.5	4.158	1.22
30	1	2	-0.141699	9.8950005	4.8000002	1.2
31	1	2	-0.1416	9.8380003	6.336	1.23
32	1	2	-0.138918	9.3500004	6.8829999	2.5829999
33	1	2	-0.097259998	9.5439997	8.4029999	2.7090001
34	1	2	-0.25772399	8.6120005	9.1949997	1.781
35	1	6	0.51694602	8.7259998	10.667	2.0409999
36	1	7	-0.68782502	9.7700005	11.257	1.811
37	1	5	0.11354	8.8669996	9.0019999	0.71799999
38	1	5	0.11354	7.559	8.8830004	1.954
39	1	5	0.076819003	9.3299999	8.6899996	3.7620001
40	1	5	0.076819003	10.604	8.665	2.497
41	1	5	0.078518003	9.9250002	6.3959999	3.4000001
42	1	5	0.078518003	8.2770004	6.638	2.7320001
43	1	5	0.080392003	10.863	6.7189999	1.033
44	1	5	0.080392003	9.1789999	6.6950002	0.41100001
45	1	5	0.080392003	10.496	4.4289999	2.059
46	1	5	0.080392003	10.417	4.4959998	0.26699999
47	1	5	0.080392003	7.9980001	4.3839998	2.1849999
48	1	5	0.080392003	7.8860002	4.5780001	0.39300001
49	1	5	0.080392003	9.2139997	2.2160001	1.88
50	1	5	0.080392003	9.0869999	2.3989999	0.088
51	1	5	0.078518003	6.7129998	2.223	2.059
52	1	5	0.078518003	6.586	2.4170001	0.26899999
53	1	5	0.084591001	7.9359999	0.052999999	1.734
54	1	5	0.084591001	7.7880001	0.221	-0.048
55	1	5	0.116501	5.414	0.079000004	1.939
56	1	5	0.116501	6.0630002	-1.314	1.012
57	1	1	-0.63876998	-3.625	0.25600001	-1.5779999
58	1	2	0.030637	-2.984	1.1289999	-2.5599999
59	1	2	-0.156077	-1.72	1.811	-2.007
60	1	2	-0.14473499	-0.574	0.81999999	-1.763
61	1	2	-0.143373	0.708	1.554	-1.349
62	1	2	-0.15755901	1.851	0.565	-1.0930001
63	1	2	0.027682001	3.132	1.296	-0.68199998
64	1	1	-0.97581899	4.198	0.33500001	-0.421
65	1	3	0.37936601	5.027	0.86699998	-0.068999998
66	1	3	0.37936601	4.4850001	-0.090999998	-1.3329999
67	1	4	0.076180004	2.9400001	1.885	0.242
68	1	4	0.076180004	3.4460001	1.997	-1.489
69	1	5	0.088555001	2.046	-0.023	-2.017
70	1	5	0.088555001	1.559	-0.139	-0.28200001
71	1	5	0.082622997	0.51300001	2.1400001	-0.42399999
72	1	5	0.082622997	1.006	2.2579999	-2.1570001
73	1	5	0.082622997	-0.85799998	0.112	-0.954
74	1	5	0.082622997	-0.38100001	0.23999999	-2.6919999
75	1	5	0.087687999	-1.3890001	2.5699999	-2.75
76	1	5	0.087687999	-1.964	2.3469999	-1.064
77	1	4	0.088146999	-2.7349999	0.54500002	-3.473
78	1	4	0.088146999	-3.71	1.916	-2.858
79	1	3	0.35957801	-3.0209999	-0.57999998	-1.4119999
80	1	6	0.51694602	7.8720002	11.218	2.4219999
81	1	7	-0.68782502	7.1059999	10.673	3.201
82	1	2	-0.25772399	7.6220002	12.623	1.957
83	1	2	-0.097259998	7.9650002	13.664	3.033
84	1	2	-0.138918	6.928	13.709	4.165
85	1	2	-0.1416	7.243	14.838	5.1539998
86	1	2	-0.141699	6.2150002	14.879	6.29
87	1	2	-0.141699	6.5300002	16.007999	7.2779999
88	1	2	-0.1416	5.5009999	16.049	8.4139996
89	1	2	-0.13626	5.8169999	17.179001	9.4020004
90	1	2	-0.113053	4.7880001	17.219	10.539
91	1	2	-0.218771	5.1030002	18.347	11.525
92	1	6	0.82375401	4.0960002	18.372999	12.631
93	1	7	-0.55682403	3.05	19.066	12.516
94	1	8	-0.66555202	4.2940001	17.594999	13.767
95	1	9	0.394032	3.6140001	17.587999	14.517
96	1	5	0.117802	6.1149998	18.195999	11.961
97	1	5	0.117802	5.0960002	19.326	10.996
98	1	5	0.085608996	3.773	17.378	10.111
99	1	5	0.085608996	4.796	16.246	11.078
100	1	5	0.078518003	5.8080001	18.152	8.8629999
101	1	5	0.078518003	6.8309999	17.02	9.8299999
102	1	5	0.080392003	4.487	16.207001	7.9860001
103	1	5	0.080392003	5.5100002	15.076	8.9530001
104	1	5	0.080392003	6.5209999	16.982	6.7389998
105	1	5	0.080392003	7.5450001	15.85	7.7059999
106	1	5	0.080392003	6.223	13.906	6.829
107	1	5	0.080392003	5.1999998	15.037	5.862
108	1	5	0.080392003	7.2350001	15.812	4.6160002
109	1	5	0.080392003	8.2580004	14.679	5.5819998
110	1	5	0.078518003	6.9289999	12.742	4.7119999
111	1	5	0.078518003	5.9159999	13.872	3.733
112	1	5	0.076819003	8.9750004	13.454	3.451
113	1	5	0.076819003	8.0039997	14.662	2.5439999
114	1	5	0.11354	8.2679996	12.812	1.073
115	1	5	0.11354	6.566	12.732	1.627

Bonds

1	1	1	2
2	2	1	22
3	3	1	57
4	4	2	3
5	5	2	20
6	5	2	21
7	4	3	4
8	5	3	18
9	5	3	19
10	4	4	5
11	5	4	16
12	5	4	17
13	4	5	6
14	5	5	14
15	5	5	15
16	4	6	7
17	5	6	12
18	5	6	13
19	6	7	8
20	5	7	10
21	5	7	11
22	2	8	9
23	7	8	23
24	8	23	24
25	9	23	25
26	4	25	26
27	5	25	55
28	5	25	56
29	4	26	27
30	5	26	53
31	5	26	54
32	4	27	28
33	5	27	51
34	5	27	52
35	4	28	29
36	5	28	49
37	5	28	50
38	4	29	30
39	5	29	47
40	5	29	48
41	4	30	31
42	5	30	45
43	5	30	46
44	4	31	32
45	5	31	43
46	5	31	44
47	4	32	33
48	5	32	41
49	5	32	42
50	4	33	34
51	5	33	39
52	5	33	40
53	9	34	35
54	5	34	37
55	5	34	38
56	8	35	36
57	10	35	80
58	1	57	58
59	2	57	79
60	4	58	59
61	5	58	77
62	5	58	78
63	4	59	60
64	5	59	75
65	5	59	76
66	4	60	61
67	5	60	73
68	5	60	74
69	4	61	62
70	5	61	71
71	5	61	72
72	4	62	63
73	5	62	69
74	5	62	70
75	1	63	64
76	5	63	67
77	5	63	68
78	2	64	65
79	2	64	66
80	8	80	81
81	9	80	82
82	4	82	83
83	5	82	114
84	5	82	115
85	4	83	84
86	5	83	112
87	5	83	113
88	4	84	85
89	5	84	110
90	5	84	111
91	4	85	86
92	5	85	108
93	5	85	109
94	4	86	87
95	5	86	106
96	5	86	107
97	4	87	88
98	5	87	104
99	5	87	105
100	4	88	89
101	5	88	102
102	5	88	103
103	4	89	90
104	5	89	100
105	5	89	101
106	4	90	91
107	5	90	98
108	5	90	99
109	9	91	92
110	5	91	96
111	5	91	97
112	8	92	93
113	11	92	94
114	12	94	95

Angles

1	1	30	31	43
2	1	28	29	48
3	1	61	62	63
4	1	61	60	74
5	1	88	87	104
6	1	86	87	88
7	1	82	83	113
8	6	8	23	24
9	1	5	6	7
10	7	12	6	13
11	7	49	28	50
12	1	59	58	78
13	1	91	90	99
14	3	63	64	66
15	1	83	84	110
16	1	3	4	17
17	1	33	34	38
18	1	25	26	27
19	1	3	2	20
20	1	27	28	29
21	1	88	89	101
22	1	29	28	49
23	1	58	59	75
24	6	91	92	94
25	1	29	28	50
26	1	32	33	40
27	1	6	5	15
28	1	87	88	102
29	1	4	5	14
30	1	61	60	73
31	1	3	4	16
32	7	51	27	52
33	1	83	84	111
34	6	36	35	80
35	1	90	89	101
36	3	58	57	79
37	3	1	57	79
38	1	64	63	68
39	1	8	7	11
40	1	29	30	31
41	1	33	32	41
42	7	67	63	68
43	1	87	86	106
44	1	1	2	21
45	1	60	59	76
46	3	63	64	65
47	1	57	58	77
48	7	75	59	76
49	1	59	58	77
50	1	26	27	51
51	1	28	29	47
52	3	2	1	22
53	1	35	34	38
54	1	60	61	71
55	1	33	34	37
56	7	96	91	97
57	1	25	26	53
58	1	60	61	62
59	1	63	62	70
60	7	69	62	70
61	1	62	63	68
62	1	83	84	85
63	1	57	58	78
64	1	23	25	56
65	1	26	27	28
66	1	30	31	44
67	7	108	85	109
68	1	8	7	10
69	1	28	27	51
70	1	34	33	39
71	1	26	25	56
72	1	61	62	69
73	1	89	90	98
74	1	60	59	75
75	1	85	86	106
76	7	43	31	44
77	1	87	88	103
78	1	59	60	73
79	1	4	3	19
80	7	45	30	46
81	1	57	58	59
82	1	87	88	89
83	1	5	6	13
84	4	7	8	9
85	1	35	34	37
86	1	31	30	46
87	6	8	23	25
88	1	30	29	48
89	1	90	91	92
90	1	1	2	20
91	7	102	88	103
92	1	90	91	97
93	1	3	4	5
94	1	7	6	12
95	5	7	8	23
96	7	39	33	40
97	1	61	62	70
98	1	91	90	98
99	1	62	63	64
100	1	2	3	4
101	1	29	30	46
102	1	32	31	43
103	4	9	8	23
104	1	4	5	6
105	7	14	5	15
106	1	28	29	30
107	1	59	60	74
108	1	6	7	11
109	1	4	5	15
110	1	5	6	12
111	1	23	25	26
112	1	84	85	86
113	1	2	3	19
114	1	86	85	108
115	1	27	26	54
116	1	31	32	42
117	1	85	86	87
118	6	35	80	82
119	1	86	85	109
120	1	89	88	102
121	1	80	82	83
122	1	23	25	55
123	7	100	89	101
124	1	7	6	13
125	1	92	91	97
126	7	110	84	111
127	1	84	83	112
128	7	112	83	113
129	1	85	84	110
130	1	86	87	105
131	1	26	25	55
132	1	88	89	90
133	1	1	2	3
134	1	87	86	107
135	1	32	33	34
136	1	32	33	39
137	1	2	3	18
138	8	92	94	95
139	1	30	29	47
140	1	5	4	16
141	1	6	7	10
142	1	6	5	14
143	1	26	27	52
144	3	65	64	66
145	7	18	3	19
146	7	16	4	17
147	1	85	84	111
148	7	47	29	48
149	1	92	91	96
150	7	98	90	99
151	1	89	90	91
152	7	37	34	38
153	1	34	33	40
154	1	80	82	114
155	1	4	3	18
156	1	58	59	60
157	6	34	35	36
158	1	80	82	115
159	6	24	23	25
160	1	59	60	61
161	1	84	83	113
162	1	88	89	100
163	1	28	27	52
164	1	64	63	67
165	7	71	61	72
166	7	77	58	78
167	1	86	87	104
168	7	10	7	11
169	1	31	32	41
170	7	20	2	21
171	2	2	1	57
172	1	32	31	44
173	1	33	34	35
174	6	34	35	80
175	1	31	30	45
176	7	73	60	74
177	1	88	87	105
178	1	85	86	107
179	1	3	2	21
180	6	81	80	82
181	1	82	83	112
182	1	84	85	108
183	7	55	25	56
184	1	90	91	96
185	2	1	57	58
186	1	5	4	17
187	1	63	62	69
188	1	83	82	114
189	1	89	88	103
190	1	90	89	100
191	6	91	92	93
192	1	84	85	109
193	1	83	82	115
194	1	29	30	45
195	1	31	32	33
196	1	62	63	67
197	1	62	61	72
198	7	114	82	115
199	1	89	90	99
200	7	106	86	107
201	6	35	80	81
202	1	25	26	54
203	1	27	26	53
204	1	27	28	49
205	7	53	26	54
206	1	60	61	72
207	9	93	92	94
208	1	27	28	50
209	1	58	59	76
210	1	30	31	32
211	1	33	32	42
212	1	62	61	71
213	1	82	83	84
214	3	22	1	57
215	7	104	87	105
216	1	6	7	8
217	7	41	32	42

Dihedrals

1	9	59	60	61	62
1	10	59	60	61	62
1	11	59	60	61	62
2	28	111	84	83	112
3	12	6	5	4	16
4	25	94	92	91	96
5	12	61	60	59	75
6	13	6	7	8	9
6	14	6	7	8	9
7	1	57	58	59	60
8	28	69	62	61	71
9	12	34	33	32	41
10	33	81	80	82	114
10	34	81	80	82	114
10	35	81	80	82	114
11	33	24	23	25	55
11	34	24	23	25	55
11	35	24	23	25	55
12	12	29	28	27	51
13	12	85	86	87	104
14	28	44	31	30	46
15	28	105	87	86	107
16	28	111	84	83	113
17	28	15	5	4	16
18	12	3	4	5	14
19	28	103	88	87	104
20	28	76	59	58	78
21	28	51	27	26	54
22	12	62	61	60	73
23	12	26	27	28	50
24	28	11	7	6	12
25	2	21	2	1	57
26	13	10	7	8	23
26	14	10	7	8	23
27	12	32	31	30	46
28	12	91	90	89	101
29	28	53	26	25	56
30	1	35	34	33	40
31	28	45	30	29	47
32	12	25	26	27	52
33	28	49	28	27	52
34	28	50	28	27	52
35	28	18	3	2	20
36	25	33	34	35	80
37	2	3	2	1	22
38	12	90	89	88	102
39	28	13	6	5	14
40	1	1	2	3	19
41	28	104	87	86	106
42	28	52	27	26	54
43	28	39	33	32	42
44	12	61	62	63	67
45	9	27	28	29	30
45	10	27	28	29	30
45	11	27	28	29	30
46	28	19	3	2	21
47	28	47	29	28	49
48	12	29	28	27	52
49	28	108	85	84	110
50	32	33	34	35	36
51	25	94	92	91	97
52	12	88	89	90	98
53	1	8	7	6	12
54	28	102	88	87	104
55	29	22	1	57	79
55	30	22	1	57	79
55	31	22	1	57	79
56	3	2	1	57	58
56	4	2	1	57	58
56	5	2	1	57	58
57	1	89	90	91	92
58	12	60	61	62	70
59	12	28	29	30	45
60	12	82	83	84	110
61	12	86	87	88	103
62	9	86	87	88	89
62	10	86	87	88	89
62	11	86	87	88	89
63	28	69	62	61	72
64	12	63	62	61	71
65	28	39	33	32	41
66	12	83	84	85	108
67	28	41	32	31	43
68	1	80	82	83	112
69	28	96	91	90	99
70	12	83	84	85	109
71	12	33	32	31	44
72	12	4	3	2	20
73	12	84	85	86	106
74	12	61	60	59	76
75	28	52	27	26	53
76	9	30	31	32	33
76	10	30	31	32	33
76	11	30	31	32	33
77	28	112	83	82	114
78	12	30	29	28	50
79	28	110	84	83	112
80	1	80	82	83	113
81	12	85	86	87	105
82	12	60	59	58	78
83	28	108	85	84	111
84	28	73	60	59	75
85	12	91	90	89	100
86	9	28	29	30	31
86	10	28	29	30	31
86	11	28	29	30	31
87	36	34	35	80	81
88	28	68	63	62	69
89	9	84	85	86	87
89	10	84	85	86	87
89	11	84	85	86	87
90	28	45	30	29	48
91	12	89	90	91	96
92	28	76	59	58	77
93	28	110	84	83	113
94	28	11	7	6	13
95	28	109	85	84	111
96	12	5	4	3	19
97	28	18	3	2	21
98	1	61	62	63	64
99	12	29	30	31	44
100	1	92	91	90	98
101	28	70	62	61	71
102	1	64	63	62	70
103	33	93	92	91	97
103	34	93	92	91	97
103	35	93	92	91	97
104	28	106	86	85	108
105	28	106	86	85	109
106	9	2	3	4	5
106	10	2	3	4	5
106	11	2	3	4	5
107	12	89	88	87	104
108	12	84	85	86	107
109	25	35	80	82	115
110	28	15	5	4	17
111	9	26	27	28	29
111	10	26	27	28	29
111	11	26	27	28	29
112	9	4	5	6	7
112	10	4	5	6	7
112	11	4	5	6	7
113	12	63	62	61	72
114	12	86	87	88	102
115	25	90	91	92	94
116	2	77	58	57	79
117	25	8	23	25	56
118	28	74	60	59	75
119	28	43	31	30	45
120	28	42	32	31	44
121	12	4	3	2	21
122	28	53	26	25	55
123	28	10	7	6	12
124	2	1	57	58	77
125	28	113	83	82	115
126	28	12	6	5	14
127	13	9	8	7	10
127	14	9	8	7	10
128	1	1	2	3	4
129	28	17	4	3	18
130	36	34	35	80	82
131	28	71	61	60	73
132	2	20	2	1	22
133	12	87	88	89	100
134	12	84	83	82	115
135	28	48	29	28	49
136	12	27	26	25	56
137	1	64	63	62	69
138	28	71	61	60	74
139	28	73	60	59	76
140	12	29	30	31	43
141	28	40	33	32	42
142	12	4	5	6	12
143	28	37	34	33	39
144	12	88	89	90	99
145	12	59	60	61	71
146	6	2	1	57	79
146	7	2	1	57	79
146	8	2	1	57	79
147	28	107	86	85	108
148	2	3	2	1	57
149	12	31	30	29	47
150	28	109	85	84	110
151	28	107	86	85	109
152	28	12	6	5	15
153	9	31	32	33	34
153	10	31	32	33	34
153	11	31	32	33	34
154	28	99	90	89	101
155	9	58	59	60	61
155	10	58	59	60	61
155	11	58	59	60	61
156	12	7	6	5	15
157	28	46	30	29	47
158	28	40	33	32	41
159	12	89	88	87	105
160	25	35	80	82	83
161	28	72	61	60	73
162	28	14	5	4	16
163	12	26	27	28	49
164	33	36	35	34	37
164	34	36	35	34	37
164	35	36	35	34	37
165	28	96	91	90	98
166	28	104	87	86	107
167	28	42	32	31	43
168	12	27	28	29	47
169	28	103	88	87	105
170	12	5	6	7	11
171	28	17	4	3	19
172	32	24	23	25	26
173	12	31	32	33	39
174	12	28	27	26	54
175	28	72	61	60	74
176	28	97	91	90	99
177	25	35	80	82	114
178	26	9	8	23	24
178	27	9	8	23	24
179	28	74	60	59	76
180	28	37	34	33	40
181	2	66	64	63	67
182	12	32	31	30	45
183	28	38	34	33	39
184	36	36	35	80	81
185	9	83	84	85	86
185	10	83	84	85	86
185	11	83	84	85	86
186	28	100	89	88	103
187	2	1	57	58	59
188	38	93	92	94	95
188	39	93	92	94	95
189	12	28	29	30	46
190	12	60	61	62	69
191	28	47	29	28	50
192	28	113	83	82	114
193	9	87	88	89	90
193	10	87	88	89	90
193	11	87	88	89	90
194	1	57	58	59	75
195	12	25	26	27	51
196	32	81	80	82	83
197	28	54	26	25	56
198	12	28	27	26	53
199	2	21	2	1	22
200	12	59	60	61	72
201	12	58	59	60	73
202	9	82	83	84	85
202	10	82	83	84	85
202	11	82	83	84	85
203	28	101	89	88	103
204	1	23	25	26	27
205	2	62	63	64	66
206	28	98	90	89	101
207	37	91	92	94	95
208	12	84	83	82	114
209	12	87	86	85	108
210	12	31	32	33	40
211	21	9	8	23	25
211	22	9	8	23	25
212	28	99	90	89	100
213	12	33	32	31	43
214	12	87	86	85	109
215	28	102	88	87	105
216	12	31	30	29	48
217	33	24	23	25	56
217	34	24	23	25	56
217	35	24	23	25	56
218	25	8	23	25	55
219	12	58	59	60	74
220	1	8	7	6	13
221	12	4	5	6	13
222	28	75	59	58	78
223	28	41	32	31	44
224	28	38	34	33	40
225	28	46	30	29	48
226	12	85	84	83	112
227	1	80	82	83	84
228	28	67	63	62	70
229	12	30	29	28	49
230	12	7	6	5	14
231	12	89	90	91	97
232	13	11	7	8	23
232	14	11	7	8	23
233	12	86	85	84	110
234	2	66	64	63	68
235	12	27	28	29	48
236	12	85	84	83	113
237	33	36	35	34	38
237	34	36	35	34	38
237	35	36	35	34	38
238	2	65	64	63	68
239	12	62	61	60	74
240	15	6	7	8	23
240	16	6	7	8	23
240	17	6	7	8	23
240	18	6	7	8	23
241	12	32	33	34	37
242	12	27	26	25	55
243	33	81	80	82	115
243	34	81	80	82	115
243	35	81	80	82	115
244	36	36	35	80	82
245	28	70	62	61	72
246	28	68	63	62	70
247	12	5	6	7	10
248	12	60	59	58	77
249	9	60	61	62	63
249	10	60	61	62	63
249	11	60	61	62	63
250	12	88	87	86	106
251	32	90	91	92	93
252	28	100	89	88	102
253	12	5	4	3	18
254	1	23	25	26	54
255	28	51	27	26	53
256	9	3	4	5	6
256	10	3	4	5	6
256	11	3	4	5	6
257	2	20	2	1	57
258	28	16	4	3	18
259	12	3	4	5	15
260	9	85	86	87	88
260	10	85	86	87	88
260	11	85	86	87	88
261	33	93	92	91	96
261	34	93	92	91	96
261	35	93	92	91	96
262	6	22	1	57	58
262	7	22	1	57	58
262	8	22	1	57	58
263	25	37	34	35	80
264	28	43	31	30	46
265	12	86	85	84	111
266	2	1	57	58	78
267	28	14	5	4	17
268	28	101	89	88	102
269	28	98	90	89	100
270	1	5	6	7	8
271	1	57	58	59	76
272	19	7	8	23	24
272	20	7	8	23	24
273	13	9	8	7	11
273	14	9	8	7	11
274	2	78	58	57	79
275	28	67	63	62	69
276	28	44	31	30	45
277	28	13	6	5	15
278	1	23	25	26	53
279	12	30	31	32	42
280	1	32	33	34	35
281	25	38	34	35	80
282	28	105	87	86	106
283	2	65	64	63	67
284	2	59	58	57	79
285	12	88	87	86	107
286	12	90	89	88	103
287	9	25	26	27	28
287	10	25	26	27	28
287	11	25	26	27	28
288	28	10	7	6	13
289	23	8	23	25	26
289	24	8	23	25	26
290	1	92	91	90	99
291	28	97	91	90	98
292	28	75	59	58	77
293	12	87	88	89	101
294	9	88	89	90	91
294	10	88	89	90	91
294	11	88	89	90	91
295	28	48	29	28	50
296	28	19	3	2	20
297	9	29	30	31	32
297	10	29	30	31	32
297	11	29	30	31	32
298	12	82	83	84	111
299	1	1	2	3	18
300	12	34	33	32	42
301	12	30	31	32	41
302	12	2	3	4	17
303	2	62	63	64	65
304	1	35	34	33	39
305	21	7	8	23	25
305	22	7	8	23	25
306	12	32	33	34	38
307	28	49	28	27	51
308	28	50	28	27	51
309	12	61	62	63	68
310	12	6	5	4	17
311	12	2	3	4	16
312	28	112	83	82	115
313	28	16	4	3	19
314	28	54	26	25	55

Impropers

126	2	35	34	36	80
225	3	92	91	93	94
243	2	80	35	81	82
251	2	35	36	80	34
290	2	23	24	25	8
347	1	8	9	23	7
375	2	35	80	34	36
433	1	8	23	7	9
462	1	8	7	9	23
468	3	92	93	94	91
502	2	80	81	82	35
590	2	23	25	8	24
592	2	23	8	24	25
638	3	92	94	91	93
740	2	80	82	35	81
