Title

115 atoms
114 bonds
217 angles
392 dihedrals
15 impropers

9 atom types
12 bond types
9 angle types
39 dihedral types
3 improper types
-4.103000164 95.89699984 xlo xhi
-1.546000004 98.454 ylo yhi
-3.47300005 96.52699995 zlo zhi
0.0 0.0 0.0 xy xz yz

Masses

1	14.00672
2	12.01078
3	1.007947
4	1.007947
5	1.007947
6	12.01078
7	15.99943
8	15.99943
9	1.007947


Pair Coeffs

1	0.16769152	3.206876
2	0.10884061	3.3795318
3	0.014090815	1.1034277
4	0.016409246	2.5832257
5	0.015779483	2.6445434
6	0.086879315	3.4806469
7	0.2102061	3.0398122
8	0.20947353	2.99716
9	1.2326e-05	0.53453923

Bond Coeffs

1 harmonic	366.34047229585	1.464762957261
2 harmonic	505.144496193	1.019481865027
3 harmonic	422.7150220147	1.421786517481
4 harmonic	264.62148576755	1.52190126495
5 harmonic	370.04670688625	1.093899492634
6 harmonic	352.0565580496	1.450098586273
7 harmonic	492.76746816345	1.381897776683
8 harmonic	582.698766451	1.225198386222
9 harmonic	329.44145381095	1.523435958334
10 harmonic	279.1350963404	1.454628925034
11 harmonic	385.7604595587	1.369745182308
12 harmonic	543.5267831885	0.9716763312559


Angle Coeffs

1 harmonic	53.20531626545	116.5475862634
2 harmonic	49.015990027215	114.8414599994
3 harmonic	94.53012429075	110.92021963
4 harmonic	63.44422595415	115.5071327674
5 harmonic	55.42182150775	117.3465570514
6 harmonic	57.8982893754	126.8062420451
7 harmonic	48.776492647595	115.6030999533
8 harmonic	65.09061609600001	110.3538806181
9 harmonic	201.41175231035	127.4691416191


Dihedral Coeffs

1 fourier 1	0.1155372516788	3	0
2 fourier 1	0.2036670163956	3	0
3 fourier 1	0.6761465733405	3	0
4 fourier 1	1.653011589151	2	0
5 fourier 1	1.713184811193	1	0
6 fourier 1	0.774151252041	3	0
7 fourier 1	1.087509576657	2	0
8 fourier 1	1.518874939494	1	0
9 fourier 1	0.09223874044423	3	0
10 fourier 1	0.3159935921949	2	180
11 fourier 1	0.3247796806857	1	180
12 fourier 1	0.1040663847541	3	0
13 fourier 1	0.182238503271	2	0
14 fourier 1	0.02972342374561	3	0
15 fourier 1	-0.1488678166443	4	180
16 fourier 1	-0.1230328948768	3	180
17 fourier 1	0.2939295466901	2	0
18 fourier 1	-0.3024127022865	1	0
19 fourier 1	3.101948770557	2	180
20 fourier 1	-0.4252153282372	1	0
21 fourier 1	1.809047390003	2	180
22 fourier 1	-0.04816277792592	1	0
23 fourier 1	-0.04561822763521	4	0
24 fourier 1	0.1536091026885	2	0
25 fourier 1	0.02664938770063	3	0
26 fourier 1	2.348375642009	2	180
27 fourier 1	1.256156174911	1	0
28 fourier 1	0.1911926717192	3	0
29 fourier 1	0.3917343745784	3	0
30 fourier 1	0.9467782973395	2	0
31 fourier 1	0.2726597146827	1	0
32 fourier 1	-0.3703352413219	2	0
33 fourier 1	0.4541676554336	1	0
34 fourier 1	0.1489710476446	2	0
35 fourier 1	0.02960027280666	3	180
36 fourier 1	0.9974165607242	2	180
37 fourier 1	2.687457892086	2	180
38 fourier 1	2.772607909663	2	180
39 fourier 1	0.09692684957115	1	0


Improper Coeffs

1 0.3333333333333333	-1	2
2 0.3666666666666667	-1	2
3 3.5	-1	2


Atoms

1	1	1	-0.63876998	-3.73	0.76800001	-0.67199999
2	1	2	0.030637	-3.329	-0.105	0.43099999
3	1	2	-0.156077	-1.973	-0.787	0.18000001
4	1	2	-0.144658	-0.80000001	0.204	0.20299999
5	1	2	-0.14467999	0.542	-0.52999997	0.092
6	1	2	-0.14607801	1.7130001	0.45899999	0.102
7	1	2	0.015006	3.0539999	-0.27200001	-0.0060000001
8	1	1	-0.49108201	4.152	0.68900001	-0.017000001
9	1	3	0.31691301	4.223	1.115	0.93599999
10	1	4	0.047361001	3.0769999	-0.861	-0.949
11	1	4	0.047361001	3.1760001	-0.97299999	0.85100001
12	1	5	0.082171001	1.692	1.0470001	1.0470001
13	1	5	0.082171001	1.613	1.163	-0.75300002
14	1	5	0.081137002	0.56300002	-1.1160001	-0.85299999
15	1	5	0.081137002	0.648	-1.234	0.94700003
16	1	5	0.082622997	-0.89300001	0.912	-0.64899999
17	1	5	0.082622997	-0.824	0.78399998	1.152
18	1	5	0.087687999	-1.819	-1.546	0.97799999
19	1	5	0.087687999	-1.995	-1.323	-0.79400003
20	1	4	0.088146999	-3.2950001	0.479	1.376
21	1	4	0.088146999	-4.1030002	-0.89200002	0.55500001
22	1	3	0.35957801	-3.1029999	1.604	-0.69499999
23	1	6	0.72516698	5.0549998	0.147	-0.17399999
24	1	7	-0.74527699	5.368	-0.189	-1.3049999
25	1	2	-0.18189199	5.9250002	-0.211	0.99599999
26	1	2	-0.121351	7.3000002	0.46700001	0.921
27	1	2	-0.137044	7.204	1.99	1.089
28	1	2	-0.1416	8.5950003	2.6359999	1.057
29	1	2	-0.141699	8.5	4.158	1.22
30	1	2	-0.141699	9.8950005	4.8000002	1.2
31	1	2	-0.1416	9.8380003	6.336	1.23
32	1	2	-0.138918	9.3500004	6.8829999	2.5829999
33	1	2	-0.097259998	9.5439997	8.4029999	2.7090001
34	1	2	-0.25772399	8.6120005	9.1949997	1.781
35	1	6	0.51694602	8.7259998	10.667	2.0409999
36	1	7	-0.68782502	9.7700005	11.257	1.811
37	1	5	0.11354	8.8669996	9.0019999	0.71799999
38	1	5	0.11354	7.559	8.8830004	1.954
39	1	5	0.076819003	9.3299999	8.6899996	3.7620001
40	1	5	0.076819003	10.604	8.665	2.497
41	1	5	0.078518003	9.9250002	6.3959999	3.4000001
42	1	5	0.078518003	8.2770004	6.638	2.7320001
43	1	5	0.080392003	10.863	6.7189999	1.033
44	1	5	0.080392003	9.1789999	6.6950002	0.41100001
45	1	5	0.080392003	10.496	4.4289999	2.059
46	1	5	0.080392003	10.417	4.4959998	0.26699999
47	1	5	0.080392003	7.9980001	4.3839998	2.1849999
48	1	5	0.080392003	7.8860002	4.5780001	0.39300001
49	1	5	0.080392003	9.2139997	2.2160001	1.88
50	1	5	0.080392003	9.0869999	2.3989999	0.088
51	1	5	0.078518003	6.7129998	2.223	2.059
52	1	5	0.078518003	6.586	2.4170001	0.26899999
53	1	5	0.084591001	7.9359999	0.052999999	1.734
54	1	5	0.084591001	7.7880001	0.221	-0.048
55	1	5	0.116501	5.414	0.079000004	1.939
56	1	5	0.116501	6.0630002	-1.314	1.012
57	1	1	-0.63876998	-3.625	0.25600001	-1.5779999
58	1	2	0.030637	-2.984	1.1289999	-2.5599999
59	1	2	-0.156077	-1.72	1.811	-2.007
60	1	2	-0.14473499	-0.574	0.81999999	-1.763
61	1	2	-0.143373	0.708	1.554	-1.349
62	1	2	-0.15755901	1.851	0.565	-1.0930001
63	1	2	0.027682001	3.132	1.296	-0.68199998
64	1	1	-0.97581899	4.198	0.33500001	-0.421
65	1	3	0.37936601	5.027	0.86699998	-0.068999998
66	1	3	0.37936601	4.4850001	-0.090999998	-1.3329999
67	1	4	0.076180004	2.9400001	1.885	0.242
68	1	4	0.076180004	3.4460001	1.997	-1.489
69	1	5	0.088555001	2.046	-0.023	-2.017
70	1	5	0.088555001	1.559	-0.139	-0.28200001
71	1	5	0.082622997	0.51300001	2.1400001	-0.42399999
72	1	5	0.082622997	1.006	2.2579999	-2.1570001
73	1	5	0.082622997	-0.85799998	0.112	-0.954
74	1	5	0.082622997	-0.38100001	0.23999999	-2.6919999
75	1	5	0.087687999	-1.3890001	2.5699999	-2.75
76	1	5	0.087687999	-1.964	2.3469999	-1.064
77	1	4	0.088146999	-2.7349999	0.54500002	-3.473
78	1	4	0.088146999	-3.71	1.916	-2.858
79	1	3	0.35957801	-3.0209999	-0.57999998	-1.4119999
80	1	6	0.51694602	7.8720002	11.218	2.4219999
81	1	7	-0.68782502	7.1059999	10.673	3.201
82	1	2	-0.25772399	7.6220002	12.623	1.957
83	1	2	-0.097259998	7.9650002	13.664	3.033
84	1	2	-0.138918	6.928	13.709	4.165
85	1	2	-0.1416	7.243	14.838	5.1539998
86	1	2	-0.141699	6.2150002	14.879	6.29
87	1	2	-0.141699	6.5300002	16.007999	7.2779999
88	1	2	-0.1416	5.5009999	16.049	8.4139996
89	1	2	-0.13626	5.8169999	17.179001	9.4020004
90	1	2	-0.113053	4.7880001	17.219	10.539
91	1	2	-0.218771	5.1030002	18.347	11.525
92	1	6	0.82375401	4.0960002	18.372999	12.631
93	1	7	-0.55682403	3.05	19.066	12.516
94	1	8	-0.66555202	4.2940001	17.594999	13.767
95	1	9	0.394032	3.6140001	17.587999	14.517
96	1	5	0.117802	6.1149998	18.195999	11.961
97	1	5	0.117802	5.0960002	19.326	10.996
98	1	5	0.085608996	3.773	17.378	10.111
99	1	5	0.085608996	4.796	16.246	11.078
100	1	5	0.078518003	5.8080001	18.152	8.8629999
101	1	5	0.078518003	6.8309999	17.02	9.8299999
102	1	5	0.080392003	4.487	16.207001	7.9860001
103	1	5	0.080392003	5.5100002	15.076	8.9530001
104	1	5	0.080392003	6.5209999	16.982	6.7389998
105	1	5	0.080392003	7.5450001	15.85	7.7059999
106	1	5	0.080392003	6.223	13.906	6.829
107	1	5	0.080392003	5.1999998	15.037	5.862
108	1	5	0.080392003	7.2350001	15.812	4.6160002
109	1	5	0.080392003	8.2580004	14.679	5.5819998
110	1	5	0.078518003	6.9289999	12.742	4.7119999
111	1	5	0.078518003	5.9159999	13.872	3.733
112	1	5	0.076819003	8.9750004	13.454	3.451
113	1	5	0.076819003	8.0039997	14.662	2.5439999
114	1	5	0.11354	8.2679996	12.812	1.073
115	1	5	0.11354	6.566	12.732	1.627

Bonds

1	1	1	2
2	2	1	22
3	3	1	57
4	4	2	3
5	5	2	20
6	5	2	21
7	4	3	4
8	5	3	18
9	5	3	19
10	4	4	5
11	5	4	16
12	5	4	17
13	4	5	6
14	5	5	14
15	5	5	15
16	4	6	7
17	5	6	12
18	5	6	13
19	6	7	8
20	5	7	10
21	5	7	11
22	2	8	9
23	7	8	23
24	8	23	24
25	9	23	25
26	4	25	26
27	5	25	55
28	5	25	56
29	4	26	27
30	5	26	53
31	5	26	54
32	4	27	28
33	5	27	51
34	5	27	52
35	4	28	29
36	5	28	49
37	5	28	50
38	4	29	30
39	5	29	47
40	5	29	48
41	4	30	31
42	5	30	45
43	5	30	46
44	4	31	32
45	5	31	43
46	5	31	44
47	4	32	33
48	5	32	41
49	5	32	42
50	4	33	34
51	5	33	39
52	5	33	40
53	9	34	35
54	5	34	37
55	5	34	38
56	8	35	36
57	10	35	80
58	1	57	58
59	2	57	79
60	4	58	59
61	5	58	77
62	5	58	78
63	4	59	60
64	5	59	75
65	5	59	76
66	4	60	61
67	5	60	73
68	5	60	74
69	4	61	62
70	5	61	71
71	5	61	72
72	4	62	63
73	5	62	69
74	5	62	70
75	1	63	64
76	5	63	67
77	5	63	68
78	2	64	65
79	2	64	66
80	8	80	81
81	9	80	82
82	4	82	83
83	5	82	114
84	5	82	115
85	4	83	84
86	5	83	112
87	5	83	113
88	4	84	85
89	5	84	110
90	5	84	111
91	4	85	86
92	5	85	108
93	5	85	109
94	4	86	87
95	5	86	106
96	5	86	107
97	4	87	88
98	5	87	104
99	5	87	105
100	4	88	89
101	5	88	102
102	5	88	103
103	4	89	90
104	5	89	100
105	5	89	101
106	4	90	91
107	5	90	98
108	5	90	99
109	9	91	92
110	5	91	96
111	5	91	97
112	8	92	93
113	11	92	94
114	12	94	95

Angles

1	1	27	28	50
2	1	87	86	107
3	1	2	3	19
4	1	60	59	76
5	7	71	61	72
6	1	90	91	92
7	3	65	64	66
8	7	77	58	78
9	1	31	32	41
10	1	86	87	104
11	1	89	90	98
12	1	62	63	67
13	1	83	84	85
14	1	33	34	37
15	6	91	92	94
16	1	1	2	21
17	1	80	82	83
18	1	64	63	68
19	6	35	80	82
20	1	2	3	4
21	6	8	23	25
22	7	18	3	19
23	7	45	30	46
24	1	61	60	73
25	7	106	86	107
26	7	69	62	70
27	1	80	82	115
28	1	27	26	53
29	7	112	83	113
30	1	31	32	42
31	1	83	82	115
32	6	91	92	93
33	1	60	61	62
34	3	63	64	65
35	1	6	7	8
36	1	89	90	99
37	1	62	63	68
38	1	61	62	69
39	1	33	34	38
40	1	32	33	39
41	1	8	7	11
42	1	7	6	12
43	1	25	26	27
44	1	30	29	48
45	1	29	30	31
46	7	49	28	50
47	1	82	83	112
48	1	4	5	6
49	1	92	91	96
50	1	5	4	17
51	7	16	4	17
52	7	110	84	111
53	1	62	63	64
54	7	114	82	115
55	1	29	28	50
56	1	57	58	77
57	1	27	26	54
58	1	6	7	10
59	3	63	64	66
60	6	34	35	36
61	1	5	6	7
62	1	29	30	46
63	1	84	83	112
64	1	86	87	88
65	1	26	25	55
66	1	89	90	91
67	1	4	5	15
68	1	35	34	37
69	1	90	89	101
70	1	89	88	102
71	1	62	61	71
72	9	93	92	94
73	1	33	32	41
74	7	51	27	52
75	1	28	29	47
76	1	88	89	100
77	1	84	85	108
78	1	26	27	51
79	8	92	94	95
80	1	83	84	110
81	1	90	91	97
82	1	25	26	54
83	1	3	4	17
84	1	82	83	84
85	7	98	90	99
86	1	32	31	43
87	1	26	27	28
88	7	10	7	11
89	2	1	57	58
90	1	85	84	110
91	3	58	57	79
92	7	12	6	13
93	1	6	5	14
94	1	35	34	38
95	1	34	33	39
96	1	5	6	12
97	1	60	61	71
98	6	34	35	80
99	1	63	62	69
100	1	86	87	105
101	1	85	86	106
102	1	28	29	48
103	1	58	59	75
104	1	87	88	102
105	1	84	85	109
106	1	4	3	18
107	3	1	57	79
108	1	83	84	111
109	7	41	32	42
110	1	59	58	77
111	4	7	8	9
112	7	55	25	56
113	1	61	60	74
114	6	24	23	25
115	1	87	88	103
116	1	5	6	13
117	1	59	60	73
118	1	60	61	72
119	1	27	28	29
120	1	31	30	45
121	3	2	1	22
122	7	100	89	101
123	1	4	3	19
124	1	61	62	70
125	1	32	33	40
126	1	85	86	87
127	1	7	6	13
128	1	86	85	108
129	1	28	27	51
130	7	53	26	54
131	1	23	25	55
132	1	6	7	11
133	7	20	2	21
134	1	3	2	20
135	1	1	2	3
136	2	2	1	57
137	1	82	83	113
138	1	91	90	98
139	1	92	91	97
140	1	30	31	43
141	1	33	34	35
142	5	7	8	23
143	7	43	31	44
144	1	57	58	78
145	1	3	4	16
146	7	104	87	105
147	1	27	28	49
148	6	36	35	80
149	1	84	83	113
150	1	2	3	18
151	1	26	25	56
152	1	60	59	75
153	1	87	86	106
154	1	86	85	109
155	1	23	25	56
156	1	89	88	103
157	1	62	61	72
158	1	33	32	42
159	1	91	90	99
160	1	59	60	61
161	1	88	89	101
162	1	30	31	44
163	1	26	27	52
164	7	37	34	38
165	1	64	63	67
166	6	35	80	81
167	1	32	31	44
168	6	8	23	24
169	1	57	58	59
170	1	85	84	111
171	1	58	59	60
172	1	61	62	63
173	7	108	85	109
174	1	80	82	114
175	1	6	5	15
176	1	28	29	30
177	1	34	33	40
178	1	63	62	70
179	7	102	88	103
180	1	83	82	114
181	1	58	59	76
182	1	85	86	107
183	3	22	1	57
184	7	75	59	76
185	1	88	87	104
186	1	30	29	47
187	4	9	8	23
188	7	14	5	15
189	1	59	58	78
190	1	5	4	16
191	1	32	33	34
192	1	30	31	32
193	1	29	28	49
194	1	8	7	10
195	1	59	60	74
196	6	81	80	82
197	1	84	85	86
198	7	67	63	68
199	7	96	91	97
200	1	3	4	5
201	1	31	30	46
202	1	31	32	33
203	1	29	30	45
204	1	4	5	14
205	1	28	27	52
206	1	23	25	26
207	1	88	87	105
208	1	90	89	100
209	1	3	2	21
210	7	39	33	40
211	1	87	88	89
212	7	73	60	74
213	7	47	29	48
214	1	88	89	90
215	1	1	2	20
216	1	90	91	96
217	1	25	26	53

Dihedrals

1	28	12	6	5	15
2	12	30	31	32	42
3	12	32	31	30	45
4	19	7	8	23	24
4	20	7	8	23	24
5	28	101	89	88	103
6	9	83	84	85	86
6	10	83	84	85	86
6	11	83	84	85	86
7	9	31	32	33	34
7	10	31	32	33	34
7	11	31	32	33	34
8	28	54	26	25	55
9	12	61	60	59	76
10	28	71	61	60	74
11	12	87	88	89	100
12	32	90	91	92	93
13	28	48	29	28	49
14	1	92	91	90	99
15	12	33	32	31	43
16	28	107	86	85	109
17	12	4	5	6	13
18	9	29	30	31	32
18	10	29	30	31	32
18	11	29	30	31	32
19	28	74	60	59	75
20	12	28	27	26	53
21	28	19	3	2	20
22	28	96	91	90	98
23	28	106	86	85	109
24	28	68	63	62	69
25	28	109	85	84	111
26	28	108	85	84	111
27	2	1	57	58	78
28	12	27	26	25	56
29	33	24	23	25	55
29	34	24	23	25	55
29	35	24	23	25	55
30	28	103	88	87	105
31	12	87	86	85	108
32	9	2	3	4	5
32	10	2	3	4	5
32	11	2	3	4	5
33	28	111	84	83	112
34	28	53	26	25	55
35	28	69	62	61	71
36	28	14	5	4	16
37	13	6	7	8	9
37	14	6	7	8	9
38	28	47	29	28	49
39	28	40	33	32	41
40	12	90	89	88	103
41	28	50	28	27	52
42	12	60	59	58	77
43	28	10	7	6	12
44	1	89	90	91	92
45	13	9	8	7	10
45	14	9	8	7	10
46	28	97	91	90	98
47	12	31	32	33	40
48	1	23	25	26	53
49	25	38	34	35	80
50	25	35	80	82	114
51	6	22	1	57	58
51	7	22	1	57	58
51	8	22	1	57	58
52	28	49	28	27	52
53	12	85	86	87	104
54	2	62	63	64	65
55	28	43	31	30	46
56	23	8	23	25	26
56	24	8	23	25	26
57	28	100	89	88	102
58	28	12	6	5	14
59	28	46	30	29	47
60	28	104	87	86	107
61	9	25	26	27	28
61	10	25	26	27	28
61	11	25	26	27	28
62	28	42	32	31	44
63	12	61	60	59	75
64	2	65	64	63	68
65	28	107	86	85	108
66	12	62	61	60	73
67	1	1	2	3	4
68	2	77	58	57	79
69	9	82	83	84	85
69	10	82	83	84	85
69	11	82	83	84	85
70	12	31	30	29	47
71	1	64	63	62	70
72	28	106	86	85	108
73	12	34	33	32	42
74	12	5	4	3	19
75	12	83	84	85	109
76	28	11	7	6	13
77	28	108	85	84	110
78	12	5	6	7	11
79	2	1	57	58	77
80	28	73	60	59	76
81	32	81	80	82	83
82	28	112	83	82	115
83	1	57	58	59	76
84	2	20	2	1	22
85	28	98	90	89	101
86	2	20	2	1	57
87	38	93	92	94	95
87	39	93	92	94	95
88	12	63	62	61	72
89	12	32	33	34	38
90	28	72	61	60	74
91	12	90	89	88	102
92	9	60	61	62	63
92	10	60	61	62	63
92	11	60	61	62	63
93	36	36	35	80	82
94	33	36	35	34	37
94	34	36	35	34	37
94	35	36	35	34	37
95	12	31	32	33	39
96	12	30	29	28	49
97	12	2	3	4	17
98	12	7	6	5	15
99	12	85	84	83	113
100	28	43	31	30	45
101	1	57	58	59	60
102	28	102	88	87	105
103	12	61	62	63	68
104	9	3	4	5	6
104	10	3	4	5	6
104	11	3	4	5	6
105	28	18	3	2	20
106	12	58	59	60	74
107	12	27	28	29	48
108	28	42	32	31	43
109	28	17	4	3	19
110	25	94	92	91	97
111	2	59	58	57	79
112	28	113	83	82	115
113	12	88	87	86	107
114	12	60	61	62	69
115	1	32	33	34	35
116	6	2	1	57	79
116	7	2	1	57	79
116	8	2	1	57	79
117	1	5	6	7	8
118	12	34	33	32	41
119	12	5	4	3	18
120	1	80	82	83	84
121	28	11	7	6	12
122	12	86	87	88	103
123	9	59	60	61	62
123	10	59	60	61	62
123	11	59	60	61	62
124	28	38	34	33	40
125	28	112	83	82	114
126	28	98	90	89	100
127	12	26	27	28	49
128	2	78	58	57	79
129	9	27	28	29	30
129	10	27	28	29	30
129	11	27	28	29	30
130	12	63	62	61	71
131	28	75	59	58	78
132	28	72	61	60	73
133	1	23	25	26	27
134	28	39	33	32	41
135	36	36	35	80	81
136	2	66	64	63	67
137	12	89	88	87	105
138	33	81	80	82	115
138	34	81	80	82	115
138	35	81	80	82	115
139	28	67	63	62	70
140	12	29	28	27	51
141	12	86	85	84	111
142	25	37	34	35	80
143	25	35	80	82	83
144	28	52	27	26	54
145	2	21	2	1	57
146	28	51	27	26	53
147	28	110	84	83	113
148	28	44	31	30	46
149	12	58	59	60	73
150	1	8	7	6	13
151	12	30	31	32	41
152	32	24	23	25	26
153	28	101	89	88	102
154	12	27	28	29	47
155	12	84	85	86	107
156	9	86	87	88	89
156	10	86	87	88	89
156	11	86	87	88	89
157	9	84	85	86	87
157	10	84	85	86	87
157	11	84	85	86	87
158	28	71	61	60	73
159	28	17	4	3	18
160	21	9	8	23	25
160	22	9	8	23	25
161	25	94	92	91	96
162	12	25	26	27	52
163	1	92	91	90	98
164	12	4	5	6	12
165	28	99	90	89	101
166	28	15	5	4	17
167	28	113	83	82	114
168	12	59	60	61	72
169	28	109	85	84	110
170	3	2	1	57	58
170	4	2	1	57	58
170	5	2	1	57	58
171	12	86	87	88	102
172	12	27	26	25	55
173	28	103	88	87	104
174	28	38	34	33	39
175	12	29	30	31	44
176	33	93	92	91	97
176	34	93	92	91	97
176	35	93	92	91	97
177	1	61	62	63	64
178	1	35	34	33	40
179	28	75	59	58	77
180	28	96	91	90	99
181	12	3	4	5	15
182	28	13	6	5	15
183	28	68	63	62	70
184	28	50	28	27	51
185	25	8	23	25	56
186	28	67	63	62	69
187	12	86	85	84	110
188	2	1	57	58	59
189	28	49	28	27	51
190	12	87	86	85	109
191	37	91	92	94	95
192	28	52	27	26	53
193	28	111	84	83	113
194	1	1	2	3	19
195	28	53	26	25	56
196	12	82	83	84	111
197	12	88	89	90	99
198	12	84	83	82	115
199	28	105	87	86	107
200	28	47	29	28	50
201	28	110	84	83	112
202	1	8	7	6	12
203	28	104	87	86	106
204	12	4	3	2	21
205	28	97	91	90	99
206	28	41	32	31	44
207	12	5	6	7	10
208	2	3	2	1	22
209	26	9	8	23	24
209	27	9	8	23	24
210	2	65	64	63	67
211	12	25	26	27	51
212	2	3	2	1	57
213	32	33	34	35	36
214	12	91	90	89	101
215	28	100	89	88	103
216	1	80	82	83	113
217	1	64	63	62	69
218	9	30	31	32	33
218	10	30	31	32	33
218	11	30	31	32	33
219	12	89	90	91	97
220	28	46	30	29	48
221	36	34	35	80	82
222	28	45	30	29	48
223	12	83	84	85	108
224	12	59	60	61	71
225	13	9	8	7	11
225	14	9	8	7	11
226	25	33	34	35	80
227	28	73	60	59	75
228	28	37	34	33	40
229	1	57	58	59	75
230	12	62	61	60	74
231	12	29	30	31	43
232	33	93	92	91	96
232	34	93	92	91	96
232	35	93	92	91	96
233	1	35	34	33	39
234	13	11	7	8	23
234	14	11	7	8	23
235	12	31	30	29	48
236	12	32	33	34	37
237	12	3	4	5	14
238	28	13	6	5	14
239	25	8	23	25	55
240	28	76	59	58	78
241	12	2	3	4	16
242	28	70	62	61	72
243	2	21	2	1	22
244	12	7	6	5	14
245	12	85	84	83	112
246	28	102	88	87	104
247	1	1	2	3	18
248	12	82	83	84	110
249	12	88	89	90	98
250	12	61	62	63	67
251	12	84	83	82	114
252	28	105	87	86	106
253	33	36	35	34	38
253	34	36	35	34	38
253	35	36	35	34	38
254	12	6	5	4	17
255	12	4	3	2	20
256	28	41	32	31	43
257	28	16	4	3	19
258	9	28	29	30	31
258	10	28	29	30	31
258	11	28	29	30	31
259	9	26	27	28	29
259	10	26	27	28	29
259	11	26	27	28	29
260	12	30	29	28	50
261	12	28	29	30	46
262	12	91	90	89	100
263	9	88	89	90	91
263	10	88	89	90	91
263	11	88	89	90	91
264	12	88	87	86	106
265	28	18	3	2	21
266	1	80	82	83	112
267	12	32	31	30	46
268	12	89	90	91	96
269	21	7	8	23	25
269	22	7	8	23	25
270	36	34	35	80	81
271	28	45	30	29	47
272	13	10	7	8	23
272	14	10	7	8	23
273	28	54	26	25	56
274	12	87	88	89	101
275	25	90	91	92	94
276	9	87	88	89	90
276	10	87	88	89	90
276	11	87	88	89	90
277	9	85	86	87	88
277	10	85	86	87	88
277	11	85	86	87	88
278	28	48	29	28	50
279	28	37	34	33	39
280	12	33	32	31	44
281	28	74	60	59	76
282	12	28	27	26	54
283	28	19	3	2	21
284	12	60	61	62	70
285	12	89	88	87	104
286	28	76	59	58	77
287	33	81	80	82	114
287	34	81	80	82	114
287	35	81	80	82	114
288	33	24	23	25	56
288	34	24	23	25	56
288	35	24	23	25	56
289	28	70	62	61	71
290	12	26	27	28	50
291	28	69	62	61	72
292	28	14	5	4	17
293	28	44	31	30	45
294	28	40	33	32	42
295	9	58	59	60	61
295	10	58	59	60	61
295	11	58	59	60	61
296	15	6	7	8	23
296	16	6	7	8	23
296	17	6	7	8	23
296	18	6	7	8	23
297	28	39	33	32	42
298	12	60	59	58	78
299	28	10	7	6	13
300	12	6	5	4	16
301	2	66	64	63	68
302	12	84	85	86	106
303	29	22	1	57	79
303	30	22	1	57	79
303	31	22	1	57	79
304	12	29	28	27	52
305	1	23	25	26	54
306	25	35	80	82	115
307	28	16	4	3	18
308	12	85	86	87	105
309	9	4	5	6	7
309	10	4	5	6	7
309	11	4	5	6	7
310	2	62	63	64	66
311	28	99	90	89	100
312	12	28	29	30	45
313	28	51	27	26	54
314	28	15	5	4	16

Impropers

4	1	8	7	9	23
7	1	8	23	7	9
76	2	80	82	35	81
185	2	80	35	81	82
190	3	92	93	94	91
246	3	92	94	91	93
351	2	80	81	82	35
368	2	35	80	34	36
378	3	92	91	93	94
422	2	35	36	80	34
458	2	35	34	36	80
560	2	23	25	8	24
740	2	23	24	25	8
750	1	8	9	23	7
778	2	23	8	24	25
