Title

100 atoms
101 bonds
192 angles
382 dihedrals
18 impropers

11 atom types
14 bond types
9 angle types
35 dihedral types
3 improper types
-12.50599957 87.49400043 xlo xhi
-2.693000078 97.30699992 ylo yhi
-8.109000206 91.89099979 zlo zhi
0.0 0.0 0.0 xy xz yz

Masses

1	12.01078
2	15.99943
3	14.00672
4	12.01078
5	1.007947
6	1.007947
7	1.007947
8	15.99943
9	12.01078
10	15.99943
11	1.007947


Pair Coeffs

1	0.086879315	3.4806469
2	0.2102061	3.0398122
3	0.16769152	3.206876
4	0.10884061	3.3795318
5	0.014090815	1.1034277
6	0.016409246	2.5832257
7	0.015779483	2.6445434
8	0.16846514	3.0251065
9	0.21	3.3996695
10	0.20947353	2.99716
11	1.2326e-05	0.53453923

Bond Coeffs

1 harmonic	582.698766451	1.225198386222
2 harmonic	492.76746816345	1.381897776683
3 harmonic	279.1350963404	1.454628925034
4 harmonic	352.0565580496	1.450098586273
5 harmonic	505.144496193	1.019481865027
6 harmonic	264.62148576755	1.52190126495
7 harmonic	370.04670688625	1.093899492634
8 harmonic	301.15400723785	1.345741232799
9 harmonic	366.7408841747	1.425895053732
10 harmonic	300.03137914615	1.451203938761
11 harmonic	366.34047229585	1.464762957261
12 harmonic	602.81384337	1.196112346392
13 harmonic	329.96998057905	1.427343958716
14 harmonic	543.5267831885	0.9716763312559


Angle Coeffs

1 harmonic	55.42182150775	117.3465570514
2 harmonic	63.44422595415	115.5071327674
3 harmonic	57.8982893754	126.8062420451
4 harmonic	53.20531626545	116.5475862634
5 harmonic	65.09061609600001	110.3538806181
6 harmonic	201.41175231035	127.4691416191
7 harmonic	48.776492647595	115.6030999533
8 harmonic	55.07882548015	112.8714009681
9 harmonic	33.56981613361	180


Dihedral Coeffs

1 fourier 1	-0.1488678166443	4	180
2 fourier 1	-0.1230328948768	3	180
3 fourier 1	0.2939295466901	2	0
4 fourier 1	-0.3024127022865	1	0
5 fourier 1	0.182238503271	2	0
6 fourier 1	0.02972342374561	3	0
7 fourier 1	1.809047390003	2	180
8 fourier 1	-0.04816277792592	1	0
9 fourier 1	3.101948770557	2	180
10 fourier 1	-0.4252153282372	1	0
11 fourier 1	2.348375642009	2	180
12 fourier 1	1.256156174911	1	0
13 fourier 1	0.9974165607242	2	180
14 fourier 1	0.1155372516788	3	0
15 fourier 1	0.09223874044423	3	0
16 fourier 1	0.3159935921949	2	180
17 fourier 1	0.3247796806857	1	180
18 fourier 1	0.1040663847541	3	0
19 fourier 1	2.779853741805	2	180
20 fourier 1	0.1918272375143	3	0
21 fourier 1	0.9202179876409	1	180
22 fourier 1	0.0473758381877	3	0
23 fourier 1	0.4860993122944	2	180
24 fourier 1	0.8916986138746	1	0
25 fourier 1	1.163809172478	2	180
26 fourier 1	0.1679186987369	1	180
27 fourier 1	0.1911926717192	3	0
28 fourier 1	0.1115525666802	3	0
29 fourier 1	0.3432490222662	1	0
30 fourier 1	0.457973137376	1	0
31 fourier 1	-1.382973039546	1	0
32 fourier 1	0	1	0
33 fourier 1	0.3445382149273	3	0
34 fourier 1	0.1364556373303	1	0
35 fourier 1	0.3026390167484	3	0


Improper Coeffs

1 0.3333333333333333	-1	2
2 0.3666666666666667	-1	2
3 3.5	-1	2


Atoms

1	1	1	0.54300398	-4.6939998	1.331	-0.38600001
2	1	2	-0.68625098	-5.1230001	1.428	0.79500002
3	1	3	-0.52222598	-3.4430001	0.69599998	-0.66100001
4	1	4	0.030967001	-2.6159999	0.13600001	0.40700001
5	1	4	-0.145733	-1.3329999	-0.479	-0.161
6	1	4	-0.142331	-0.45199999	-1.053	0.95899999
7	1	4	-0.142331	0.75700003	-1.8430001	0.42699999
8	1	4	-0.144448	1.749	-1.023	-0.41800001
9	1	4	0.025149001	2.3959999	0.12800001	0.36399999
10	1	3	-0.466548	3.4519999	0.76200002	-0.42399999
11	1	1	0.78219903	4.2150002	1.858	0.088
12	1	2	-0.61238402	3.9979999	2.3099999	1.244
13	1	5	0.32575101	3.668	0.42500001	-1.39
14	1	6	0.056924	1.6289999	0.89200002	0.61000001
15	1	6	0.056924	2.832	-0.264	1.309
16	1	7	0.088212997	1.249	-0.62900001	-1.3279999
17	1	7	0.088212997	2.55	-1.7130001	-0.75999999
18	1	7	0.087006003	1.301	-2.2809999	1.293
19	1	7	0.087006003	0.38800001	-2.6930001	-0.186
20	1	7	0.087006003	-0.114	-0.237	1.633
21	1	7	0.087006003	-1.063	-1.749	1.574
22	1	7	0.088212997	-0.77499998	0.31	-0.708
23	1	7	0.088212997	-1.602	-1.289	-0.875
24	1	6	0.053355001	-3.1960001	-0.64499998	0.94499999
25	1	6	0.053355001	-2.352	0.94400001	1.125
26	1	5	0.31916901	-3.1300001	0.63999999	-1.6569999
27	1	8	-0.485241	4.9559999	2.2869999	-0.49700001
28	1	4	0.091343001	4.52	3.5829999	-0.80900002
29	1	4	-0.072131	3.4000001	3.546	-1.869
30	1	7	0.088398002	2.5510001	2.974	-1.433
31	1	4	-0.16353901	2.875	4.9749999	-2.1760001
32	1	7	0.098320998	3.0150001	5.6500001	-1.303
33	1	7	0.098320998	1.78	4.928	-2.368
34	1	4	-0.163102	3.5569999	5.586	-3.4070001
35	1	7	0.098939002	3.2030001	6.632	-3.539
36	1	7	0.098939002	4.6500001	5.645	-3.21
37	1	4	-0.071321003	3.3139999	4.7420001	-4.6890001
38	1	4	0.018722	2.1459999	5.296	-5.5229998
39	1	8	-0.14195099	2.4649999	6.5710001	-6.0110002
40	1	6	0.099477999	1.227	5.3499999	-4.8969998
41	1	6	0.099477999	1.951	4.6170001	-6.3839998
42	1	7	0.091462001	4.2329998	4.8150001	-5.3150001
43	1	4	-0.163102	3.0810001	3.2409999	-4.3769999
44	1	7	0.098939002	3.3889999	2.6289999	-5.2529998
45	1	7	0.098939002	2.0020001	3.0409999	-4.1929998
46	1	4	-0.16353901	3.8740001	2.799	-3.1440001
47	1	7	0.098320998	4.954	2.99	-3.3340001
48	1	7	0.098320998	3.7479999	1.704	-2.9990001
49	1	6	0.099290997	5.3839998	4.1659999	-1.1950001
50	1	6	0.099290997	4.1589999	4.0910001	0.114
51	1	1	0.54300398	-5.2810001	1.734	-1.2
52	1	2	-0.68625098	-5.3039999	1.13	-2.3050001
53	1	3	-0.52222598	-6.013	2.95	-1.011
54	1	4	0.030967001	-6.8260002	3.556	-2.0639999
55	1	4	-0.145733	-8.1389999	2.786	-2.2379999
56	1	4	-0.142147	-9.0120001	3.427	-3.3280001
57	1	4	-0.137944	-10.394	2.7650001	-3.4449999
58	1	4	-0.122134	-10.327	1.36	-4.0650001
59	1	4	0.184347	-11.726	0.75800002	-4.27
60	1	3	-0.64311999	-12.506	1.5190001	-5.2420001
61	1	9	0.59332001	-12.193	1.558	-6.4749999
62	1	2	-0.46873501	-11.887	1.597	-7.6739998
63	1	6	0.031907	-11.632	-0.29699999	-4.6100001
64	1	6	0.031907	-12.269	0.75099999	-3.3010001
65	1	7	0.081849001	-9.7629995	0.68199998	-3.3900001
66	1	7	0.081849001	-9.7910004	1.397	-5.0380001
67	1	7	0.085725002	-10.874	2.7149999	-2.4430001
68	1	7	0.085725002	-11.027	3.415	-4.0879998
69	1	7	0.087006003	-9.1660004	4.4990001	-3.079
70	1	7	0.087006003	-8.4879999	3.381	-4.3080001
71	1	7	0.088212997	-7.9089999	1.7359999	-2.513
72	1	7	0.088212997	-8.6890001	2.7869999	-1.271
73	1	6	0.053355001	-6.2540002	3.572	-3.0179999
74	1	6	0.053355001	-7.053	4.6069999	-1.783
75	1	5	0.31916901	-5.9109998	3.4530001	-0.101
76	1	8	-0.14195099	1.671	6.8769999	-6.5219998
77	1	4	0.018722	2.059	8.0369997	-7.2090001
78	1	4	-0.071321003	2.174	9.2349997	-6.2459998
79	1	7	0.091462001	2.9549999	8.9820004	-5.494
80	1	4	-0.16231599	2.658	10.507	-6.993
81	1	7	0.098939002	3.27	10.241	-7.8829999
82	1	7	0.098939002	3.3199999	11.097	-6.3200002
83	1	4	-0.155258	1.489	11.4	-7.4260001
84	1	7	0.098939002	1.881	12.255	-8.0190001
85	1	7	0.098939002	0.83499998	10.815	-8.1090002
86	1	4	-0.112736	0.64899999	11.893	-6.2140002
87	1	4	0.080819003	1.072	13.302	-5.7649999
88	1	10	-0.67093199	0.792	14.234	-6.7729998
89	1	11	0.38211301	1.101	15.112	-6.4310002
90	1	6	0.088417001	2.161	13.314	-5.5310001
91	1	6	0.088417001	0.509	13.582	-4.8460002
92	1	7	0.095040001	-0.41100001	11.955	-6.5469999
93	1	4	-0.155258	0.704	10.912	-5.0149999
94	1	7	0.098939002	-0.221	11.017	-4.408
95	1	7	0.098939002	1.567	11.148	-4.3530002
96	1	4	-0.16231599	0.83899999	9.4619999	-5.4879999
97	1	7	0.098939002	-0.029999999	9.2229996	-6.1409998
98	1	7	0.098939002	0.79299998	8.783	-4.6090002
99	1	6	0.099477999	1.302	8.2550001	-7.993
100	1	6	0.099477999	3.0320001	7.8610001	-7.723

Bonds

1	1	1	2
2	2	1	3
3	3	1	51
4	4	3	4
5	5	3	26
6	6	4	5
7	7	4	24
8	7	4	25
9	6	5	6
10	7	5	22
11	7	5	23
12	6	6	7
13	7	6	20
14	7	6	21
15	6	7	8
16	7	7	18
17	7	7	19
18	6	8	9
19	7	8	16
20	7	8	17
21	4	9	10
22	7	9	14
23	7	9	15
24	2	10	11
25	5	10	13
26	1	11	12
27	8	11	27
28	9	27	28
29	6	28	29
30	7	28	49
31	7	28	50
32	7	29	30
33	6	29	31
34	6	29	46
35	7	31	32
36	7	31	33
37	6	31	34
38	7	34	35
39	7	34	36
40	6	34	37
41	6	37	38
42	7	37	42
43	6	37	43
44	9	38	39
45	7	38	40
46	7	38	41
47	10	39	76
48	7	43	44
49	7	43	45
50	6	43	46
51	7	46	47
52	7	46	48
53	1	51	52
54	2	51	53
55	4	53	54
56	5	53	75
57	6	54	55
58	7	54	73
59	7	54	74
60	6	55	56
61	7	55	71
62	7	55	72
63	6	56	57
64	7	56	69
65	7	56	70
66	6	57	58
67	7	57	67
68	7	57	68
69	6	58	59
70	7	58	65
71	7	58	66
72	11	59	60
73	7	59	63
74	7	59	64
75	12	60	61
76	1	61	62
77	9	76	77
78	6	77	78
79	7	77	99
80	7	77	100
81	7	78	79
82	6	78	80
83	6	78	96
84	7	80	81
85	7	80	82
86	6	80	83
87	7	83	84
88	7	83	85
89	6	83	86
90	6	86	87
91	7	86	92
92	6	86	93
93	13	87	88
94	7	87	90
95	7	87	91
96	14	88	89
97	7	93	94
98	7	93	95
99	6	93	96
100	7	96	97
101	7	96	98

Angles

1	4	54	55	72
2	4	27	28	29
3	4	34	37	43
4	4	5	6	21
5	7	32	31	33
6	4	58	57	67
7	4	78	96	97
8	4	5	6	7
9	4	86	87	91
10	4	29	31	32
11	4	4	5	6
12	4	78	96	93
13	4	53	54	55
14	2	4	3	26
15	4	29	46	48
16	7	14	9	15
17	4	8	9	15
18	2	51	53	75
19	3	52	51	53
20	4	55	56	70
21	4	37	43	46
22	4	83	86	93
23	4	5	4	25
24	4	30	29	46
25	4	32	31	34
26	4	57	58	66
27	3	2	1	51
28	4	57	58	65
29	2	11	10	13
30	4	80	83	86
31	4	27	28	49
32	7	71	55	72
33	4	60	59	64
34	3	10	11	27
35	4	29	46	47
36	4	93	96	98
37	4	88	87	90
38	4	80	83	84
39	4	86	93	96
40	4	77	78	96
41	4	3	4	24
42	4	54	55	56
43	8	59	60	61
44	4	8	7	19
45	4	10	9	14
46	4	83	86	92
47	4	55	56	69
48	4	84	83	86
49	7	67	57	68
50	4	76	77	78
51	4	78	96	98
52	4	55	56	57
53	5	11	27	28
54	4	86	93	94
55	4	86	93	95
56	4	29	46	43
57	3	10	11	12
58	4	57	58	59
59	4	31	34	36
60	9	60	61	62
61	5	87	88	89
62	4	42	37	43
63	7	90	87	91
64	4	58	59	63
65	3	3	1	51
66	4	56	55	72
67	4	87	86	92
68	4	6	5	22
69	4	7	8	9
70	7	16	8	17
71	7	18	7	19
72	4	57	56	69
73	4	5	4	24
74	4	79	78	80
75	4	92	86	93
76	4	6	7	18
77	4	56	55	71
78	4	85	83	86
79	7	49	28	50
80	4	34	37	42
81	4	59	58	66
82	4	59	58	65
83	4	34	37	38
84	4	53	54	73
85	4	38	37	43
86	4	56	57	58
87	4	4	5	22
88	4	29	28	50
89	4	37	38	39
90	4	31	29	46
91	4	37	43	45
92	7	20	6	21
93	2	9	10	13
94	4	7	8	16
95	4	86	87	88
96	4	45	43	46
97	4	6	5	23
98	4	38	37	42
99	5	39	76	77
100	4	55	54	73
101	4	8	9	10
102	4	80	83	85
103	1	1	3	4
104	7	35	34	36
105	4	27	28	50
106	4	37	43	44
107	2	1	3	26
108	4	94	93	96
109	7	40	38	41
110	4	81	80	83
111	7	81	80	82
112	4	43	46	48
113	4	88	87	91
114	7	84	83	85
115	4	58	59	64
116	4	8	7	18
117	4	9	8	16
118	4	7	8	17
119	7	22	5	23
120	7	69	56	70
121	3	2	1	3
122	4	86	87	90
123	4	31	34	37
124	1	51	53	54
125	4	77	78	79
126	4	3	4	5
127	7	63	59	64
128	4	31	34	35
129	4	29	31	33
130	4	3	4	25
131	5	38	39	76
132	1	9	10	11
133	4	53	54	74
134	4	95	93	96
135	4	28	29	31
136	4	43	46	47
137	4	77	78	80
138	4	37	38	40
139	4	78	77	99
140	4	29	31	34
141	4	78	80	81
142	4	80	78	96
143	4	56	57	68
144	4	8	9	14
145	7	47	46	48
146	4	54	55	71
147	4	10	9	15
148	4	39	38	41
149	4	9	8	17
150	4	33	31	34
151	4	58	57	68
152	7	73	54	74
153	4	29	28	49
154	4	44	43	46
155	6	12	11	27
156	4	7	6	21
157	4	5	6	20
158	4	55	54	74
159	4	76	77	99
160	7	99	77	100
161	2	54	53	75
162	4	4	5	23
163	4	79	78	96
164	3	1	51	53
165	4	30	29	31
166	4	78	77	100
167	4	6	7	8
168	4	58	59	60
169	7	94	93	95
170	4	37	38	41
171	7	24	4	25
172	4	39	38	40
173	4	60	59	63
174	4	7	6	20
175	4	35	34	37
176	7	97	96	98
177	7	44	43	45
178	4	78	80	83
179	4	57	56	70
180	4	28	29	30
181	4	78	80	82
182	4	87	86	93
183	4	28	29	46
184	7	65	58	66
185	4	83	86	87
186	3	1	51	52
187	4	82	80	83
188	4	6	7	19
189	4	36	34	37
190	4	76	77	100
191	4	93	96	97
192	4	56	57	67

Dihedrals

1	27	23	5	4	24
2	15	87	86	93	96
2	16	87	86	93	96
2	17	87	86	93	96
3	27	66	58	57	68
4	18	6	7	8	17
5	15	80	83	86	93
5	16	80	83	86	93
5	17	80	83	86	93
6	27	30	29	46	48
7	13	2	1	51	52
8	5	11	10	9	14
8	6	11	10	9	14
9	18	34	37	43	45
10	15	4	5	6	7
10	16	4	5	6	7
10	17	4	5	6	7
11	27	18	7	6	21
12	5	24	4	3	26
12	6	24	4	3	26
13	14	3	4	5	22
14	22	40	38	39	76
15	18	77	78	96	97
16	27	68	57	56	69
17	27	79	78	77	100
18	18	96	78	77	100
19	7	1	51	53	54
19	8	1	51	53	54
20	27	22	5	4	24
21	9	2	1	3	4
21	10	2	1	3	4
22	14	39	38	37	43
23	15	77	78	96	93
23	16	77	78	96	93
23	17	77	78	96	93
24	5	8	9	10	13
24	6	8	9	10	13
25	22	11	27	28	50
26	14	27	28	29	31
27	18	29	46	43	44
28	14	60	59	58	66
29	14	60	59	58	65
30	27	65	58	57	68
31	18	82	80	78	96
32	18	83	86	87	91
33	27	91	87	86	92
34	27	17	8	7	18
35	18	79	78	80	83
36	18	57	56	55	71
37	27	90	87	86	92
38	5	13	10	9	14
38	6	13	10	9	14
39	27	18	7	6	20
40	18	31	29	46	47
41	27	33	31	34	35
42	18	32	31	34	37
43	27	82	80	83	85
44	15	80	83	86	87
44	16	80	83	86	87
44	17	80	83	86	87
45	18	5	6	7	18
46	27	30	29	46	47
47	15	55	56	57	58
47	16	55	56	57	58
47	17	55	56	57	58
48	27	19	7	6	21
49	27	42	37	43	45
50	5	25	4	3	26
50	6	25	4	3	26
51	18	31	34	37	42
52	31	61	60	59	63
53	27	79	78	96	98
54	28	39	38	37	42
54	29	39	38	37	42
55	18	92	86	93	96
56	18	80	78	96	98
57	15	31	34	37	38
57	16	31	34	37	38
57	17	31	34	37	38
58	15	31	29	46	43
58	16	31	29	46	43
58	17	31	29	46	43
59	1	1	3	4	5
59	2	1	3	4	5
59	3	1	3	4	5
59	4	1	3	4	5
60	18	37	43	46	47
61	9	52	51	53	54
61	10	52	51	53	54
62	25	12	11	27	28
62	26	12	11	27	28
63	18	40	38	37	43
64	14	3	4	5	23
65	18	30	29	46	43
66	15	78	96	93	86
66	16	78	96	93	86
66	17	78	96	93	86
67	5	1	3	4	25
67	6	1	3	4	25
68	27	19	7	6	20
69	15	83	86	93	96
69	16	83	86	93	96
69	17	83	86	93	96
70	15	56	57	58	59
70	16	56	57	58	59
70	17	56	57	58	59
71	27	16	8	7	18
72	18	59	58	57	68
73	14	34	37	38	39
74	27	66	58	57	67
75	27	64	59	58	66
76	14	76	77	78	96
77	27	64	59	58	65
78	18	29	31	34	35
79	27	36	34	37	42
80	15	38	37	43	46
80	16	38	37	43	46
80	17	38	37	43	46
81	27	14	9	8	16
82	27	42	37	43	44
83	18	58	57	56	70
84	18	77	78	96	98
85	18	36	34	37	38
86	7	9	10	11	27
86	8	9	10	11	27
87	14	53	54	55	72
88	18	28	29	46	48
89	7	13	10	11	27
89	8	13	10	11	27
90	27	95	93	96	97
91	18	7	8	9	14
92	14	27	28	29	46
93	1	8	9	10	11
93	2	8	9	10	11
93	3	8	9	10	11
93	4	8	9	10	11
94	18	46	29	28	49
95	18	87	86	93	94
96	27	65	58	57	67
97	18	9	8	7	19
98	14	7	8	9	10
99	18	87	86	93	95
100	5	11	10	9	15
100	6	11	10	9	15
101	30	38	39	76	77
102	14	53	54	55	71
103	18	7	6	5	22
104	18	57	56	55	72
105	27	67	57	56	70
106	18	85	83	86	93
107	18	6	5	4	24
108	18	31	29	28	50
109	18	56	57	58	66
110	27	35	34	37	42
111	31	58	59	60	61
112	27	44	43	46	48
113	11	2	1	3	26
113	12	2	1	3	26
114	18	56	57	58	65
115	7	9	10	11	12
115	8	9	10	11	12
116	18	38	37	43	45
117	18	57	58	59	63
118	27	94	93	96	97
119	7	26	3	1	51
119	8	26	3	1	51
120	18	35	34	37	38
121	27	30	29	28	50
122	5	73	54	53	75
122	6	73	54	53	75
123	27	21	6	5	23
124	18	34	37	43	44
125	14	3	4	5	6
126	18	28	29	46	47
127	15	83	80	78	96
127	16	83	80	78	96
127	17	83	80	78	96
128	18	32	31	29	46
129	27	32	31	34	35
130	18	58	57	56	69
131	27	14	9	8	17
132	18	80	83	86	92
133	27	17	8	7	19
134	18	83	86	87	90
135	31	61	60	59	64
136	18	28	29	31	33
137	7	4	3	1	51
137	8	4	3	1	51
138	18	85	83	86	87
139	18	8	7	6	20
140	27	23	5	4	25
141	5	5	4	3	26
141	6	5	4	3	26
142	18	5	6	7	19
143	7	1	51	53	75
143	8	1	51	53	75
144	15	28	29	46	43
144	16	28	29	46	43
144	17	28	29	46	43
145	27	92	86	93	94
146	28	88	87	86	92
146	29	88	87	86	92
147	18	77	78	80	81
148	18	55	56	57	68
149	27	92	86	93	95
150	22	39	76	77	99
151	18	7	6	5	23
152	18	54	55	56	70
153	27	67	57	56	69
154	18	78	96	93	94
155	18	78	96	93	95
156	18	81	80	83	86
157	27	95	93	96	98
158	15	28	29	31	34
158	16	28	29	31	34
158	17	28	29	31	34
159	27	20	6	5	22
160	27	22	5	4	25
161	18	83	86	93	94
162	19	10	11	27	28
163	18	83	86	93	95
164	22	37	38	39	76
165	14	83	86	87	88
166	20	11	27	28	29
166	21	11	27	28	29
167	27	15	9	8	16
168	18	28	29	31	32
169	5	51	53	54	73
169	6	51	53	54	73
170	28	27	28	29	30
170	29	27	28	29	30
171	27	70	56	55	72
172	27	81	80	83	84
173	27	40	38	37	42
174	18	59	58	57	67
175	27	94	93	96	98
176	18	6	7	8	16
177	23	12	11	10	13
177	24	12	11	10	13
178	35	89	88	87	91
179	18	29	31	34	36
180	27	70	56	55	71
181	18	80	78	77	99
182	15	34	31	29	46
182	16	34	31	29	46
182	17	34	31	29	46
183	11	52	51	53	75
183	12	52	51	53	75
184	27	81	80	83	85
185	18	41	38	37	43
186	22	39	76	77	100
187	18	35	34	37	43
188	27	72	55	54	73
189	27	45	43	46	48
190	18	57	58	59	64
191	15	5	6	7	8
191	16	5	6	7	8
191	17	5	6	7	8
192	18	8	7	6	21
193	15	77	78	80	83
193	16	77	78	80	83
193	17	77	78	80	83
194	27	79	78	77	99
195	18	54	55	56	69
196	18	77	78	80	82
197	18	84	83	86	87
198	18	96	78	77	99
199	18	33	31	29	46
200	5	13	10	9	15
200	6	13	10	9	15
201	18	91	87	86	93
202	27	79	78	80	81
203	15	78	80	83	86
203	16	78	80	83	86
203	17	78	80	83	86
204	18	34	37	38	41
205	15	54	55	56	57
205	16	54	55	56	57
205	17	54	55	56	57
206	5	74	54	53	75
206	6	74	54	53	75
207	28	76	77	78	79
207	29	76	77	78	79
208	18	90	87	86	93
209	27	20	6	5	23
210	18	30	29	31	34
211	5	55	54	53	75
211	6	55	54	53	75
212	22	11	27	28	49
213	27	15	9	8	17
214	18	9	8	7	18
215	18	29	46	43	45
216	15	6	7	8	9
216	16	6	7	8	9
216	17	6	7	8	9
217	18	31	29	28	49
218	18	56	55	54	73
219	27	33	31	34	36
220	18	55	56	57	67
221	18	78	80	83	84
222	18	38	37	43	44
223	27	41	38	37	42
224	18	80	78	77	100
225	18	86	93	96	97
226	5	1	3	4	24
226	6	1	3	4	24
227	27	30	29	28	49
228	27	44	43	46	47
229	18	56	55	54	74
230	14	76	77	78	80
231	18	4	5	6	21
232	27	85	83	86	92
233	14	53	54	55	56
234	27	32	31	34	36
235	18	82	80	83	86
236	27	45	43	46	47
237	18	81	80	78	96
238	18	78	80	83	85
239	18	42	37	43	46
240	18	34	37	38	40
241	18	84	83	86	93
242	15	31	34	37	43
242	16	31	34	37	43
242	17	31	34	37	43
243	27	71	55	54	73
244	13	3	1	51	53
245	15	29	46	43	37
245	16	29	46	43	37
245	17	29	46	43	37
246	27	82	80	83	84
247	18	6	5	4	25
248	14	10	9	8	16
249	18	33	31	34	37
250	18	4	5	6	20
251	27	16	8	7	19
252	32	59	60	61	62
253	27	71	55	54	74
254	27	79	78	80	82
255	5	51	53	54	74
255	6	51	53	54	74
256	18	7	8	9	15
257	14	88	87	86	93
258	18	37	43	46	48
259	13	3	1	51	52
260	27	63	59	58	66
261	18	36	34	37	43
262	27	30	29	31	33
263	27	63	59	58	65
264	27	68	57	56	70
265	22	39	76	77	78
266	22	41	38	39	76
267	14	57	58	59	60
268	27	69	56	55	72
269	15	34	37	43	46
269	16	34	37	43	46
269	17	34	37	43	46
270	27	72	55	54	74
271	18	46	29	28	50
272	35	89	88	87	90
273	27	84	83	86	92
274	13	2	1	51	53
275	1	51	53	54	55
275	2	51	53	54	55
275	3	51	53	54	55
275	4	51	53	54	55
276	27	79	78	96	97
277	27	69	56	55	71
278	18	80	78	96	97
279	15	29	31	34	37
279	16	29	31	34	37
279	17	29	31	34	37
280	18	86	93	96	98
281	27	21	6	5	22
282	18	79	78	96	93
283	33	86	87	88	89
283	34	86	87	88	89
284	15	80	78	96	93
284	16	80	78	96	93
284	17	80	78	96	93
285	14	10	9	8	17
286	18	31	29	46	48
287	27	30	29	31	32

Impropers

12	1	3	4	26	1
58	1	53	54	75	51
71	1	3	26	1	4
176	2	1	2	3	51
212	3	11	12	27	10
218	2	51	52	53	1
240	2	1	3	51	2
272	1	10	13	9	11
304	3	11	10	12	27
317	1	53	75	51	54
350	1	10	11	13	9
393	1	53	51	54	75
408	3	11	27	10	12
493	2	1	51	2	3
522	1	3	1	4	26
582	1	10	9	11	13
661	2	51	1	52	53
697	2	51	53	1	52
