Title

100 atoms
101 bonds
192 angles
382 dihedrals
18 impropers

11 atom types
14 bond types
9 angle types
35 dihedral types
3 improper types
-12.50599957 87.49400043 xlo xhi
-2.693000078 97.30699992 ylo yhi
-8.109000206 91.89099979 zlo zhi
0.0 0.0 0.0 xy xz yz

Masses

1	12.01078
2	15.99943
3	14.00672
4	12.01078
5	1.007947
6	1.007947
7	1.007947
8	15.99943
9	12.01078
10	15.99943
11	1.007947


Pair Coeffs

1	0.086879315	3.4806469
2	0.2102061	3.0398122
3	0.16769152	3.206876
4	0.10884061	3.3795318
5	0.014090815	1.1034277
6	0.016409246	2.5832257
7	0.015779483	2.6445434
8	0.16846514	3.0251065
9	0.21	3.3996695
10	0.20947353	2.99716
11	1.2326e-05	0.53453923

Bond Coeffs

1 harmonic	582.698766451	1.225198386222
2 harmonic	492.76746816345	1.381897776683
3 harmonic	279.1350963404	1.454628925034
4 harmonic	352.0565580496	1.450098586273
5 harmonic	505.144496193	1.019481865027
6 harmonic	264.62148576755	1.52190126495
7 harmonic	370.04670688625	1.093899492634
8 harmonic	301.15400723785	1.345741232799
9 harmonic	366.7408841747	1.425895053732
10 harmonic	300.03137914615	1.451203938761
11 harmonic	366.34047229585	1.464762957261
12 harmonic	602.81384337	1.196112346392
13 harmonic	329.96998057905	1.427343958716
14 harmonic	543.5267831885	0.9716763312559


Angle Coeffs

1 harmonic	55.42182150775	117.3465570514
2 harmonic	63.44422595415	115.5071327674
3 harmonic	57.8982893754	126.8062420451
4 harmonic	53.20531626545	116.5475862634
5 harmonic	65.09061609600001	110.3538806181
6 harmonic	201.41175231035	127.4691416191
7 harmonic	48.776492647595	115.6030999533
8 harmonic	55.07882548015	112.8714009681
9 harmonic	33.56981613361	180


Dihedral Coeffs

1 fourier 1	-0.1488678166443	4	180
2 fourier 1	-0.1230328948768	3	180
3 fourier 1	0.2939295466901	2	0
4 fourier 1	-0.3024127022865	1	0
5 fourier 1	0.182238503271	2	0
6 fourier 1	0.02972342374561	3	0
7 fourier 1	1.809047390003	2	180
8 fourier 1	-0.04816277792592	1	0
9 fourier 1	3.101948770557	2	180
10 fourier 1	-0.4252153282372	1	0
11 fourier 1	2.348375642009	2	180
12 fourier 1	1.256156174911	1	0
13 fourier 1	0.9974165607242	2	180
14 fourier 1	0.1155372516788	3	0
15 fourier 1	0.09223874044423	3	0
16 fourier 1	0.3159935921949	2	180
17 fourier 1	0.3247796806857	1	180
18 fourier 1	0.1040663847541	3	0
19 fourier 1	2.779853741805	2	180
20 fourier 1	0.1918272375143	3	0
21 fourier 1	0.9202179876409	1	180
22 fourier 1	0.0473758381877	3	0
23 fourier 1	0.4860993122944	2	180
24 fourier 1	0.8916986138746	1	0
25 fourier 1	1.163809172478	2	180
26 fourier 1	0.1679186987369	1	180
27 fourier 1	0.1911926717192	3	0
28 fourier 1	0.1115525666802	3	0
29 fourier 1	0.3432490222662	1	0
30 fourier 1	0.457973137376	1	0
31 fourier 1	-1.382973039546	1	0
32 fourier 1	0	1	0
33 fourier 1	0.3445382149273	3	0
34 fourier 1	0.1364556373303	1	0
35 fourier 1	0.3026390167484	3	0


Improper Coeffs

1 0.3333333333333333	-1	2
2 0.3666666666666667	-1	2
3 3.5	-1	2


Atoms

1	1	1	0.54300398	-4.6939998	1.331	-0.38600001
2	1	2	-0.68625098	-5.1230001	1.428	0.79500002
3	1	3	-0.52222598	-3.4430001	0.69599998	-0.66100001
4	1	4	0.030967001	-2.6159999	0.13600001	0.40700001
5	1	4	-0.145733	-1.3329999	-0.479	-0.161
6	1	4	-0.142331	-0.45199999	-1.053	0.95899999
7	1	4	-0.142331	0.75700003	-1.8430001	0.42699999
8	1	4	-0.144448	1.749	-1.023	-0.41800001
9	1	4	0.025149001	2.3959999	0.12800001	0.36399999
10	1	3	-0.466548	3.4519999	0.76200002	-0.42399999
11	1	1	0.78219903	4.2150002	1.858	0.088
12	1	2	-0.61238402	3.9979999	2.3099999	1.244
13	1	5	0.32575101	3.668	0.42500001	-1.39
14	1	6	0.056924	1.6289999	0.89200002	0.61000001
15	1	6	0.056924	2.832	-0.264	1.309
16	1	7	0.088212997	1.249	-0.62900001	-1.3279999
17	1	7	0.088212997	2.55	-1.7130001	-0.75999999
18	1	7	0.087006003	1.301	-2.2809999	1.293
19	1	7	0.087006003	0.38800001	-2.6930001	-0.186
20	1	7	0.087006003	-0.114	-0.237	1.633
21	1	7	0.087006003	-1.063	-1.749	1.574
22	1	7	0.088212997	-0.77499998	0.31	-0.708
23	1	7	0.088212997	-1.602	-1.289	-0.875
24	1	6	0.053355001	-3.1960001	-0.64499998	0.94499999
25	1	6	0.053355001	-2.352	0.94400001	1.125
26	1	5	0.31916901	-3.1300001	0.63999999	-1.6569999
27	1	8	-0.485241	4.9559999	2.2869999	-0.49700001
28	1	4	0.091343001	4.52	3.5829999	-0.80900002
29	1	4	-0.072131	3.4000001	3.546	-1.869
30	1	7	0.088398002	2.5510001	2.974	-1.433
31	1	4	-0.16353901	2.875	4.9749999	-2.1760001
32	1	7	0.098320998	3.0150001	5.6500001	-1.303
33	1	7	0.098320998	1.78	4.928	-2.368
34	1	4	-0.163102	3.5569999	5.586	-3.4070001
35	1	7	0.098939002	3.2030001	6.632	-3.539
36	1	7	0.098939002	4.6500001	5.645	-3.21
37	1	4	-0.071321003	3.3139999	4.7420001	-4.6890001
38	1	4	0.018722	2.1459999	5.296	-5.5229998
39	1	8	-0.14195099	2.4649999	6.5710001	-6.0110002
40	1	6	0.099477999	1.227	5.3499999	-4.8969998
41	1	6	0.099477999	1.951	4.6170001	-6.3839998
42	1	7	0.091462001	4.2329998	4.8150001	-5.3150001
43	1	4	-0.163102	3.0810001	3.2409999	-4.3769999
44	1	7	0.098939002	3.3889999	2.6289999	-5.2529998
45	1	7	0.098939002	2.0020001	3.0409999	-4.1929998
46	1	4	-0.16353901	3.8740001	2.799	-3.1440001
47	1	7	0.098320998	4.954	2.99	-3.3340001
48	1	7	0.098320998	3.7479999	1.704	-2.9990001
49	1	6	0.099290997	5.3839998	4.1659999	-1.1950001
50	1	6	0.099290997	4.1589999	4.0910001	0.114
51	1	1	0.54300398	-5.2810001	1.734	-1.2
52	1	2	-0.68625098	-5.3039999	1.13	-2.3050001
53	1	3	-0.52222598	-6.013	2.95	-1.011
54	1	4	0.030967001	-6.8260002	3.556	-2.0639999
55	1	4	-0.145733	-8.1389999	2.786	-2.2379999
56	1	4	-0.142147	-9.0120001	3.427	-3.3280001
57	1	4	-0.137944	-10.394	2.7650001	-3.4449999
58	1	4	-0.122134	-10.327	1.36	-4.0650001
59	1	4	0.184347	-11.726	0.75800002	-4.27
60	1	3	-0.64311999	-12.506	1.5190001	-5.2420001
61	1	9	0.59332001	-12.193	1.558	-6.4749999
62	1	2	-0.46873501	-11.887	1.597	-7.6739998
63	1	6	0.031907	-11.632	-0.29699999	-4.6100001
64	1	6	0.031907	-12.269	0.75099999	-3.3010001
65	1	7	0.081849001	-9.7629995	0.68199998	-3.3900001
66	1	7	0.081849001	-9.7910004	1.397	-5.0380001
67	1	7	0.085725002	-10.874	2.7149999	-2.4430001
68	1	7	0.085725002	-11.027	3.415	-4.0879998
69	1	7	0.087006003	-9.1660004	4.4990001	-3.079
70	1	7	0.087006003	-8.4879999	3.381	-4.3080001
71	1	7	0.088212997	-7.9089999	1.7359999	-2.513
72	1	7	0.088212997	-8.6890001	2.7869999	-1.271
73	1	6	0.053355001	-6.2540002	3.572	-3.0179999
74	1	6	0.053355001	-7.053	4.6069999	-1.783
75	1	5	0.31916901	-5.9109998	3.4530001	-0.101
76	1	8	-0.14195099	1.671	6.8769999	-6.5219998
77	1	4	0.018722	2.059	8.0369997	-7.2090001
78	1	4	-0.071321003	2.174	9.2349997	-6.2459998
79	1	7	0.091462001	2.9549999	8.9820004	-5.494
80	1	4	-0.16231599	2.658	10.507	-6.993
81	1	7	0.098939002	3.27	10.241	-7.8829999
82	1	7	0.098939002	3.3199999	11.097	-6.3200002
83	1	4	-0.155258	1.489	11.4	-7.4260001
84	1	7	0.098939002	1.881	12.255	-8.0190001
85	1	7	0.098939002	0.83499998	10.815	-8.1090002
86	1	4	-0.112736	0.64899999	11.893	-6.2140002
87	1	4	0.080819003	1.072	13.302	-5.7649999
88	1	10	-0.67093199	0.792	14.234	-6.7729998
89	1	11	0.38211301	1.101	15.112	-6.4310002
90	1	6	0.088417001	2.161	13.314	-5.5310001
91	1	6	0.088417001	0.509	13.582	-4.8460002
92	1	7	0.095040001	-0.41100001	11.955	-6.5469999
93	1	4	-0.155258	0.704	10.912	-5.0149999
94	1	7	0.098939002	-0.221	11.017	-4.408
95	1	7	0.098939002	1.567	11.148	-4.3530002
96	1	4	-0.16231599	0.83899999	9.4619999	-5.4879999
97	1	7	0.098939002	-0.029999999	9.2229996	-6.1409998
98	1	7	0.098939002	0.79299998	8.783	-4.6090002
99	1	6	0.099477999	1.302	8.2550001	-7.993
100	1	6	0.099477999	3.0320001	7.8610001	-7.723

Bonds

1	1	1	2
2	2	1	3
3	3	1	51
4	4	3	4
5	5	3	26
6	6	4	5
7	7	4	24
8	7	4	25
9	6	5	6
10	7	5	22
11	7	5	23
12	6	6	7
13	7	6	20
14	7	6	21
15	6	7	8
16	7	7	18
17	7	7	19
18	6	8	9
19	7	8	16
20	7	8	17
21	4	9	10
22	7	9	14
23	7	9	15
24	2	10	11
25	5	10	13
26	1	11	12
27	8	11	27
28	9	27	28
29	6	28	29
30	7	28	49
31	7	28	50
32	7	29	30
33	6	29	31
34	6	29	46
35	7	31	32
36	7	31	33
37	6	31	34
38	7	34	35
39	7	34	36
40	6	34	37
41	6	37	38
42	7	37	42
43	6	37	43
44	9	38	39
45	7	38	40
46	7	38	41
47	10	39	76
48	7	43	44
49	7	43	45
50	6	43	46
51	7	46	47
52	7	46	48
53	1	51	52
54	2	51	53
55	4	53	54
56	5	53	75
57	6	54	55
58	7	54	73
59	7	54	74
60	6	55	56
61	7	55	71
62	7	55	72
63	6	56	57
64	7	56	69
65	7	56	70
66	6	57	58
67	7	57	67
68	7	57	68
69	6	58	59
70	7	58	65
71	7	58	66
72	11	59	60
73	7	59	63
74	7	59	64
75	12	60	61
76	1	61	62
77	9	76	77
78	6	77	78
79	7	77	99
80	7	77	100
81	7	78	79
82	6	78	80
83	6	78	96
84	7	80	81
85	7	80	82
86	6	80	83
87	7	83	84
88	7	83	85
89	6	83	86
90	6	86	87
91	7	86	92
92	6	86	93
93	13	87	88
94	7	87	90
95	7	87	91
96	14	88	89
97	7	93	94
98	7	93	95
99	6	93	96
100	7	96	97
101	7	96	98

Angles

1	4	33	31	34
2	4	58	59	64
3	4	4	5	22
4	4	81	80	83
5	4	3	4	25
6	4	35	34	37
7	4	31	34	35
8	4	34	37	38
9	4	3	4	5
10	4	58	59	60
11	4	31	29	46
12	4	29	28	50
13	4	53	54	73
14	4	76	77	99
15	4	37	43	46
16	3	2	1	51
17	4	29	46	47
18	4	93	96	97
19	2	9	10	13
20	4	86	93	96
21	4	78	96	98
22	4	4	5	6
23	4	58	57	67
24	4	80	83	85
25	4	5	6	21
26	4	77	78	80
27	3	1	51	52
28	4	10	9	14
29	3	52	51	53
30	4	29	46	43
31	4	8	9	10
32	4	42	37	43
33	4	94	93	96
34	4	9	8	16
35	5	39	76	77
36	4	36	34	37
37	2	54	53	75
38	4	92	86	93
39	4	57	58	65
40	4	34	37	42
41	4	93	96	98
42	4	60	59	64
43	4	59	58	65
44	4	83	86	87
45	4	6	7	19
46	2	4	3	26
47	4	58	57	68
48	4	54	55	71
49	4	55	56	57
50	2	51	53	75
51	4	30	29	46
52	4	55	54	73
53	4	5	4	25
54	4	29	31	32
55	4	57	58	66
56	7	69	56	70
57	4	54	55	56
58	4	8	9	14
59	2	11	10	13
60	4	34	37	43
61	4	57	56	70
62	4	7	8	17
63	4	59	58	66
64	4	86	87	90
65	4	56	57	68
66	4	55	56	69
67	7	44	43	45
68	4	54	55	72
69	4	38	37	42
70	4	6	5	22
71	4	37	43	44
72	4	77	78	96
73	4	4	5	23
74	2	1	3	26
75	4	31	34	36
76	4	87	86	92
77	4	37	38	39
78	4	79	78	80
79	4	78	80	82
80	7	24	4	25
81	4	8	9	15
82	4	53	54	74
83	4	86	87	91
84	4	27	28	29
85	4	55	56	70
86	7	84	83	85
87	4	76	77	100
88	4	28	29	30
89	4	6	5	23
90	7	49	28	50
91	4	7	6	20
92	4	56	55	71
93	4	29	46	48
94	4	31	34	37
95	7	16	8	17
96	4	37	38	40
97	4	80	83	86
98	5	87	88	89
99	3	1	51	53
100	4	10	9	15
101	4	57	58	59
102	4	83	86	92
103	7	47	46	48
104	4	84	83	86
105	7	90	87	91
106	4	9	8	17
107	4	8	7	18
108	7	22	5	23
109	4	53	54	55
110	4	88	87	90
111	4	7	6	21
112	5	38	39	76
113	4	76	77	78
114	4	56	55	72
115	7	67	57	68
116	4	79	78	96
117	7	14	9	15
118	4	30	29	31
119	4	7	8	9
120	7	97	96	98
121	4	45	43	46
122	4	58	59	63
123	4	83	86	93
124	7	35	34	36
125	4	43	46	47
126	1	9	10	11
127	4	86	93	94
128	4	28	29	46
129	4	39	38	40
130	4	55	54	74
131	4	88	87	91
132	4	29	31	33
133	7	40	38	41
134	4	6	7	8
135	7	99	77	100
136	7	32	31	33
137	4	95	93	96
138	4	44	43	46
139	7	63	59	64
140	4	38	37	43
141	4	56	57	58
142	8	59	60	61
143	4	37	43	45
144	4	28	29	31
145	9	60	61	62
146	3	3	1	51
147	4	43	46	48
148	4	87	86	93
149	4	5	6	7
150	4	86	93	95
151	4	78	96	97
152	4	39	38	41
153	4	80	83	84
154	4	78	80	83
155	4	29	31	34
156	4	5	6	20
157	4	82	80	83
158	5	11	27	28
159	4	32	31	34
160	4	77	78	79
161	3	10	11	27
162	7	94	93	95
163	4	78	96	93
164	4	27	28	49
165	3	2	1	3
166	4	60	59	63
167	7	20	6	21
168	4	37	38	41
169	4	78	77	99
170	4	86	87	88
171	4	6	7	18
172	3	10	11	12
173	7	73	54	74
174	4	78	80	81
175	7	81	80	82
176	4	3	4	24
177	4	80	78	96
178	4	85	83	86
179	1	1	3	4
180	1	51	53	54
181	4	5	4	24
182	4	8	7	19
183	6	12	11	27
184	7	18	7	19
185	4	27	28	50
186	4	57	56	69
187	4	29	28	49
188	7	65	58	66
189	4	7	8	16
190	4	78	77	100
191	4	56	57	67
192	7	71	55	72

Dihedrals

1	27	79	78	77	100
2	18	30	29	46	43
3	27	68	57	56	70
4	15	80	83	86	87
4	16	80	83	86	87
4	17	80	83	86	87
5	32	59	60	61	62
6	27	35	34	37	42
7	15	83	86	93	96
7	16	83	86	93	96
7	17	83	86	93	96
8	27	44	43	46	47
9	18	86	93	96	98
10	18	90	87	86	93
11	27	67	57	56	70
12	18	38	37	43	44
13	18	79	78	80	83
14	22	39	76	77	78
15	33	86	87	88	89
15	34	86	87	88	89
16	14	60	59	58	65
17	7	9	10	11	12
17	8	9	10	11	12
18	27	30	29	31	32
19	1	51	53	54	55
19	2	51	53	54	55
19	3	51	53	54	55
19	4	51	53	54	55
20	18	77	78	80	82
21	20	11	27	28	29
21	21	11	27	28	29
22	31	61	60	59	64
23	15	78	80	83	86
23	16	78	80	83	86
23	17	78	80	83	86
24	18	80	78	77	99
25	18	36	34	37	43
26	27	23	5	4	24
27	27	63	59	58	65
28	18	35	34	37	43
29	27	22	5	4	24
30	27	44	43	46	48
31	27	19	7	6	20
32	27	70	56	55	71
33	18	84	83	86	93
34	18	80	78	96	97
35	27	95	93	96	97
36	18	31	34	37	42
37	18	80	78	96	98
38	27	92	86	93	94
39	18	81	80	83	86
40	5	13	10	9	14
40	6	13	10	9	14
41	27	30	29	31	33
42	35	89	88	87	90
43	14	27	28	29	46
44	27	32	31	34	35
45	27	64	59	58	65
46	27	91	87	86	92
47	27	17	8	7	18
48	14	3	4	5	23
49	18	82	80	78	96
50	18	56	57	58	65
51	15	31	34	37	38
51	16	31	34	37	38
51	17	31	34	37	38
52	18	80	78	77	100
53	27	71	55	54	73
54	18	29	31	34	35
55	27	22	5	4	25
56	18	83	86	87	90
57	18	87	86	93	94
58	27	30	29	28	49
59	14	76	77	78	80
60	15	6	7	8	9
60	16	6	7	8	9
60	17	6	7	8	9
61	27	92	86	93	95
62	27	33	31	34	36
63	28	39	38	37	42
63	29	39	38	37	42
64	5	13	10	9	15
64	6	13	10	9	15
65	25	12	11	27	28
65	26	12	11	27	28
66	18	57	58	59	63
67	18	7	6	5	23
68	27	32	31	34	36
69	27	64	59	58	66
70	13	2	1	51	52
71	27	17	8	7	19
72	18	91	87	86	93
73	18	9	8	7	18
74	5	8	9	10	13
74	6	8	9	10	13
75	27	42	37	43	45
76	23	12	11	10	13
76	24	12	11	10	13
77	27	66	58	57	67
78	18	31	29	46	47
79	27	30	29	46	48
80	18	80	83	86	92
81	15	34	31	29	46
81	16	34	31	29	46
81	17	34	31	29	46
82	18	29	31	34	36
83	27	20	6	5	22
84	27	65	58	57	67
85	18	83	86	87	91
86	18	34	37	38	40
87	27	69	56	55	71
88	27	82	80	83	84
89	27	95	93	96	98
90	5	5	4	3	26
90	6	5	4	3	26
91	27	45	43	46	47
92	18	37	43	46	47
93	5	55	54	53	75
93	6	55	54	53	75
94	15	31	29	46	43
94	16	31	29	46	43
94	17	31	29	46	43
95	18	33	31	34	37
96	22	40	38	39	76
97	13	2	1	51	53
98	27	94	93	96	97
99	27	79	78	80	81
100	13	3	1	51	52
101	18	38	37	43	45
102	18	42	37	43	46
103	18	59	58	57	67
104	27	66	58	57	68
105	27	18	7	6	20
106	18	34	37	43	44
107	18	29	46	43	44
108	18	28	29	31	32
109	14	60	59	58	66
110	18	46	29	28	49
111	18	6	5	4	24
112	14	10	9	8	16
113	14	57	58	59	60
114	18	56	55	54	73
115	14	76	77	78	96
116	27	41	38	37	42
117	18	57	56	55	71
118	27	69	56	55	72
119	15	77	78	80	83
119	16	77	78	80	83
119	17	77	78	80	83
120	15	78	96	93	86
120	16	78	96	93	86
120	17	78	96	93	86
121	27	14	9	8	16
122	18	84	83	86	87
123	5	11	10	9	14
123	6	11	10	9	14
124	18	77	78	96	97
125	11	2	1	3	26
125	12	2	1	3	26
126	27	23	5	4	25
127	27	63	59	58	66
128	22	11	27	28	49
129	18	96	78	77	99
130	28	88	87	86	92
130	29	88	87	86	92
131	27	19	7	6	21
132	15	4	5	6	7
132	16	4	5	6	7
132	17	4	5	6	7
133	31	58	59	60	61
134	15	38	37	43	46
134	16	38	37	43	46
134	17	38	37	43	46
135	27	15	9	8	16
136	27	70	56	55	72
137	14	27	28	29	31
138	15	31	34	37	43
138	16	31	34	37	43
138	17	31	34	37	43
139	18	28	29	46	47
140	27	94	93	96	98
141	18	85	83	86	87
142	18	34	37	43	45
143	18	4	5	6	20
144	18	28	29	31	33
145	15	55	56	57	58
145	16	55	56	57	58
145	17	55	56	57	58
146	9	52	51	53	54
146	10	52	51	53	54
147	7	13	10	11	27
147	8	13	10	11	27
148	18	30	29	31	34
149	15	77	78	96	93
149	16	77	78	96	93
149	17	77	78	96	93
150	18	56	55	54	74
151	18	77	78	80	81
152	5	73	54	53	75
152	6	73	54	53	75
153	35	89	88	87	91
154	22	39	76	77	99
155	18	83	86	93	94
156	27	14	9	8	17
157	27	85	83	86	92
158	5	51	53	54	73
158	6	51	53	54	73
159	18	56	57	58	66
160	15	28	29	46	43
160	16	28	29	46	43
160	17	28	29	46	43
161	5	11	10	9	15
161	6	11	10	9	15
162	27	71	55	54	74
163	18	77	78	96	98
164	15	5	6	7	8
164	16	5	6	7	8
164	17	5	6	7	8
165	18	79	78	96	93
166	22	11	27	28	50
167	5	74	54	53	75
167	6	74	54	53	75
168	14	7	8	9	10
169	18	78	96	93	94
170	18	87	86	93	95
171	14	88	87	86	93
172	27	30	29	28	50
173	18	28	29	46	48
174	18	54	55	56	69
175	18	78	80	83	84
176	27	79	78	77	99
177	18	92	86	93	96
178	14	39	38	37	43
179	27	68	57	56	69
180	15	29	46	43	37
180	16	29	46	43	37
180	17	29	46	43	37
181	18	57	58	59	64
182	27	72	55	54	73
183	18	32	31	34	37
184	18	31	29	28	49
185	18	83	86	93	95
186	18	86	93	96	97
187	18	9	8	7	19
188	27	67	57	56	69
189	27	79	78	80	82
190	18	31	29	46	48
191	18	33	31	29	46
192	5	1	3	4	24
192	6	1	3	4	24
193	18	59	58	57	68
194	15	80	83	86	93
194	16	80	83	86	93
194	17	80	83	86	93
195	22	37	38	39	76
196	27	81	80	83	84
197	15	29	31	34	37
197	16	29	31	34	37
197	17	29	31	34	37
198	27	20	6	5	23
199	27	65	58	57	68
200	18	78	96	93	95
201	7	1	51	53	54
201	8	1	51	53	54
202	27	21	6	5	22
203	18	34	37	38	41
204	27	82	80	83	85
205	5	25	4	3	26
205	6	25	4	3	26
206	27	45	43	46	48
207	7	9	10	11	27
207	8	9	10	11	27
208	18	37	43	46	48
209	30	38	39	76	77
210	18	78	80	83	85
211	27	36	34	37	42
212	18	58	57	56	69
213	18	7	8	9	14
214	27	72	55	54	74
215	18	31	29	28	50
216	14	83	86	87	88
217	13	3	1	51	53
218	18	5	6	7	18
219	27	84	83	86	92
220	7	4	3	1	51
220	8	4	3	1	51
221	7	1	51	53	75
221	8	1	51	53	75
222	9	2	1	3	4
222	10	2	1	3	4
223	5	1	3	4	25
223	6	1	3	4	25
224	27	18	7	6	21
225	18	55	56	57	67
226	27	16	8	7	18
227	18	29	46	43	45
228	15	56	57	58	59
228	16	56	57	58	59
228	17	56	57	58	59
229	18	46	29	28	50
230	18	36	34	37	38
231	18	6	5	4	25
232	14	10	9	8	17
233	15	54	55	56	57
233	16	54	55	56	57
233	17	54	55	56	57
234	27	79	78	96	97
235	27	81	80	83	85
236	1	1	3	4	5
236	2	1	3	4	5
236	3	1	3	4	5
236	4	1	3	4	5
237	27	21	6	5	23
238	18	35	34	37	38
239	18	41	38	37	43
240	14	53	54	55	71
241	18	57	56	55	72
242	18	82	80	83	86
243	15	83	80	78	96
243	16	83	80	78	96
243	17	83	80	78	96
244	1	8	9	10	11
244	2	8	9	10	11
244	3	8	9	10	11
244	4	8	9	10	11
245	14	3	4	5	22
246	18	81	80	78	96
247	18	58	57	56	70
248	15	80	78	96	93
248	16	80	78	96	93
248	17	80	78	96	93
249	18	7	8	9	15
250	18	96	78	77	100
251	18	6	7	8	16
252	27	40	38	37	42
253	18	8	7	6	20
254	11	52	51	53	75
254	12	52	51	53	75
255	5	24	4	3	26
255	6	24	4	3	26
256	18	5	6	7	19
257	27	15	9	8	17
258	18	55	56	57	68
259	28	76	77	78	79
259	29	76	77	78	79
260	22	41	38	39	76
261	15	34	37	43	46
261	16	34	37	43	46
261	17	34	37	43	46
262	27	16	8	7	19
263	18	4	5	6	21
264	15	28	29	31	34
264	16	28	29	31	34
264	17	28	29	31	34
265	27	33	31	34	35
266	14	53	54	55	56
267	27	79	78	96	98
268	18	7	6	5	22
269	22	39	76	77	100
270	14	53	54	55	72
271	27	90	87	86	92
272	18	85	83	86	93
273	27	42	37	43	44
274	5	51	53	54	74
274	6	51	53	54	74
275	27	30	29	46	47
276	18	32	31	29	46
277	18	6	7	8	17
278	18	40	38	37	43
279	14	3	4	5	6
280	18	8	7	6	21
281	7	26	3	1	51
281	8	26	3	1	51
282	28	27	28	29	30
282	29	27	28	29	30
283	14	34	37	38	39
284	19	10	11	27	28
285	15	87	86	93	96
285	16	87	86	93	96
285	17	87	86	93	96
286	31	61	60	59	63
287	18	54	55	56	70

Impropers

14	1	3	26	1	4
23	1	3	1	4	26
61	1	53	51	54	75
88	1	53	75	51	54
126	2	1	3	51	2
211	2	51	52	53	1
275	2	51	1	52	53
326	2	51	53	1	52
339	1	3	4	26	1
385	1	10	11	13	9
401	1	53	54	75	51
424	1	10	9	11	13
581	1	10	13	9	11
652	3	11	10	12	27
660	2	1	51	2	3
669	3	11	12	27	10
692	2	1	2	3	51
704	3	11	27	10	12
