Title

513 atoms
539 bonds
905 angles
1536 dihedrals
615 impropers

12 atom types
16 bond types
10 angle types
24 dihedral types
3 improper types
-10.23600006 89.76399994 xlo xhi
-41.95500183 58.04499817 ylo yhi
-2.755000114 97.24499989 zlo zhi
0.0 0.0 0.0 xy xz yz

Masses

1	12.01078
2	15.99943
3	14.00672
4	12.01078
5	1.007947
6	1.007947
7	1.007947
8	15.99943
9	1.007947
10	15.99943
11	1.007947
12	12.01078


Pair Coeffs

1	0.086879315	3.4806469
2	0.2102061	3.0398122
3	0.16769152	3.206876
4	0.10884061	3.3795318
5	0.014090815	1.1034277
6	0.015611343	2.5725815
7	0.015779483	2.6445434
8	0.16846514	3.0251065
9	0.016409246	2.5832257
10	0.20947353	2.99716
11	1.2326e-05	0.53453923
12	0.21	3.3996695

Bond Coeffs

1 harmonic	582.698766451	1.225198386222
2 harmonic	492.76746816345	1.381897776683
3 harmonic	301.15400723785	1.345741232799
4 harmonic	390.03554688505	1.390160554689
5 harmonic	505.144496193	1.019481865027
6 harmonic	360.7852444772	1.387193227181
7 harmonic	397.2545789619	1.085358495916
8 harmonic	289.73813263395	1.498646816465
9 harmonic	370.04670688625	1.093899492634
10 harmonic	366.7408841747	1.425895053732
11 harmonic	264.62148576755	1.52190126495
12 harmonic	366.34047229585	1.464762957261
13 harmonic	329.96998057905	1.427343958716
14 harmonic	543.5267831885	0.9716763312559
15 harmonic	382.5450169811	1.379244394267
16 harmonic	602.81384337	1.196112346392


Angle Coeffs

1 harmonic	55.42182150775	117.3465570514
2 harmonic	63.44422595415	115.5071327674
3 harmonic	65.09061609600001	110.3538806181
4 harmonic	57.8982893754	126.8062420451
5 harmonic	201.41175231035	127.4691416191
6 harmonic	34.066775159195	129.1835929926
7 harmonic	53.20531626545	116.5475862634
8 harmonic	48.776492647595	115.6030999533
9 harmonic	55.07882548015	112.8714009681
10 harmonic	33.56981613361	180


Dihedral Coeffs

1 fourier 1	1.193093382682	2	180
2 fourier 1	0.1918272375143	3	0
3 fourier 1	0.9202179876409	1	180
4 fourier 1	0.0473758381877	3	0
5 fourier 1	1.809047390003	2	180
6 fourier 1	-0.04816277792592	1	0
7 fourier 1	0.4860993122944	2	180
8 fourier 1	0.8916986138746	1	0
9 fourier 1	1.163809172478	2	180
10 fourier 1	0.1679186987369	1	180
11 fourier 1	2.779853741805	2	180
12 fourier 1	3.661930099076	2	180
13 fourier 1	0.02664938770063	3	0
14 fourier 1	0.1155372516788	3	0
15 fourier 1	0.1115525666802	3	0
16 fourier 1	0.3432490222662	1	0
17 fourier 1	0.182238503271	2	0
18 fourier 1	0.02972342374561	3	0
19 fourier 1	0.1911926717192	3	0
20 fourier 1	0.3445382149273	3	0
21 fourier 1	0.1364556373303	1	0
22 fourier 1	0.3026390167484	3	0
23 fourier 1	1.550515418264	2	180
24 fourier 1	0	1	0


Improper Coeffs

1 0.3333333333333333	-1	2
2 3.5	-1	2
3 0.3666666666666667	-1	2


Atoms

1	1	1	0.81993002	-5.7150002	-0.498	1.609
2	1	2	-0.54560697	-5.9759998	-1.04	0.50300002
3	1	3	-0.46875101	-4.5219998	0.27399999	1.798
4	1	1	0.232438	-3.4389999	0.33899999	0.85399997
5	1	1	-0.36405501	-2.694	1.523	0.74400002
6	1	1	-0.138817	-1.622	1.607	-0.149
7	1	1	-0.242642	-1.273	0.50300002	-0.94099998
8	1	4	-0.049807999	-0.093999997	0.57999998	-1.873
9	1	1	-0.242642	1.164	0.171	-1.155
10	1	1	-0.138817	1.924	1.123	-0.45899999
11	1	1	-0.36405501	3.072	0.73799998	0.23899999
12	1	1	0.232438	3.4820001	-0.60699999	0.24699999
13	1	3	-0.46875101	4.645	-1.035	0.977
14	1	1	0.81993002	5.836	-0.25299999	1.133
15	1	2	-0.54560697	6.013	0.80800003	0.477
16	1	1	-0.36405501	2.701	-1.562	-0.41999999
17	1	1	-0.138817	1.553	-1.177	-1.119
18	1	1	-0.138817	-1.993	-0.69400001	-0.80699998
19	1	1	-0.36405501	-3.066	-0.77700001	0.085000001
20	1	5	0.326888	-4.487	0.89499998	2.638
21	1	6	0.21960901	-2.951	2.385	1.347
22	1	6	0.21774299	-1.062	2.5309999	-0.219
23	1	7	0.127506	-0.25999999	-0.077	-2.7550001
24	1	7	0.127506	0.012	1.613	-2.2709999
25	1	6	0.21774299	1.62	2.1630001	-0.447
26	1	6	0.21960901	3.619	1.488	0.79500002
27	1	5	0.326888	4.6680002	-2.0109999	1.347
28	1	6	0.21960901	2.987	-2.6059999	-0.40400001
29	1	6	0.21774299	0.96499997	-1.9299999	-1.628
30	1	6	0.21774299	-1.716	-1.567	-1.386
31	1	6	0.21960901	-3.5810001	-1.722	0.192
32	1	8	-0.48984301	6.585	-0.58499998	1.7690001
33	1	4	0.124795	7.4159999	0.51800001	2
34	1	4	0.15636	8.5559998	0.13699999	2.95
35	1	3	-0.65562397	8.0539999	-0.34200001	4.2490001
36	1	1	0.282215	8.3140001	-1.704	4.6680002
37	1	1	-0.42023	8.1219997	-2.7750001	3.773
38	1	1	-0.122519	8.3629999	-4.0910001	4.177
39	1	1	-0.26642099	8.8000002	-4.3569999	5.4759998
40	1	1	-0.122519	8.9980001	-3.306	6.3730001
41	1	1	-0.42023	8.7589998	-1.988	5.974
42	1	4	0.15636	7.408	0.61699998	5.164
43	1	4	0.124795	6.0009999	0.15800001	5.5510001
44	1	8	-0.48984301	5.1999998	0.048	4.408
45	1	9	0.104837	7.8540001	0.86000001	1.0369999
46	1	9	0.104837	6.8239999	1.357	2.427
47	1	9	0.092431001	9.1949997	-0.63	2.4619999
48	1	9	0.092431001	9.2019997	1.027	3.1140001
49	1	6	0.223295	7.777	-2.598	2.7650001
50	1	6	0.228653	8.2089996	-4.9070001	3.4820001
51	1	6	0.22582699	8.9860001	-5.3769999	5.7870002
52	1	6	0.228653	9.3430004	-3.513	7.3779998
53	1	6	0.223295	8.9399996	-1.196	6.6859999
54	1	9	0.092431001	7.3390002	1.623	4.698
55	1	9	0.092431001	8.0220003	0.74800003	6.079
56	1	9	0.104837	6.052	-0.82099998	6.0770001
57	1	9	0.104837	5.5580001	0.90600002	6.2459998
58	1	1	0.81993002	4.2719998	-0.27599999	4.7379999
59	1	2	-0.54560697	3.678	0.375	5.6370001
60	1	3	-0.46875101	3.668	-1.423	4.1259999
61	1	1	0.232438	2.464	-2.0539999	4.5949998
62	1	1	-0.36405501	1.6	-2.6589999	3.6689999
63	1	1	-0.138817	0.43399999	-3.299	4.099
64	1	1	-0.242642	0.117	-3.3499999	5.4650002
65	1	4	-0.049807999	-1.117	-4.0739999	5.9320002
66	1	1	-0.242642	-0.80500001	-5.5240002	6.1849999
67	1	1	-0.138817	-0.90700001	-6.4619999	5.1469998
68	1	1	-0.36405501	-0.58200002	-7.803	5.3720002
69	1	1	0.232438	-0.155	-8.2270002	6.6430001
70	1	3	-0.46875101	0.20900001	-9.5959997	6.8959999
71	1	1	0.81993002	-0.426	-10.728	6.2880001
72	1	2	-0.54560697	-1.483	-10.602	5.6160002
73	1	1	-0.36405501	-0.02	-7.2800002	7.6680002
74	1	1	-0.138817	-0.34599999	-5.9400001	7.4439998
75	1	1	-0.138817	0.99699998	-2.777	6.3959999
76	1	1	-0.36405501	2.1619999	-2.1359999	5.9660001
77	1	5	0.326888	4.0890002	-1.76	3.2309999
78	1	6	0.21960901	1.829	-2.628	2.6110001
79	1	6	0.21774299	-0.219	-3.7579999	3.368
80	1	7	0.127506	-1.51	-3.5999999	6.8579998
81	1	7	0.127506	-1.923	-3.983	5.171
82	1	6	0.21774299	-1.227	-6.1529999	4.1589999
83	1	6	0.21960901	-0.63800001	-8.4969997	4.5440001
84	1	5	0.326888	0.92199999	-9.7919998	7.6339998
85	1	6	0.21960901	0.331	-7.5840001	8.6470003
86	1	6	0.21774299	-0.236	-5.2249999	8.2510004
87	1	6	0.21774299	0.78500003	-2.836	7.4569998
88	1	6	0.21960901	2.839	-1.734	6.7080002
89	1	8	-0.48984301	-0.028999999	-11.675	6.4349999
90	1	4	0.124795	-0.60600001	-12.494	5.4580002
91	1	4	0.15636	-0.071999997	-13.925	5.5760002
92	1	3	-0.65562397	1.392	-13.981	5.4190001
93	1	1	0.282215	2.2219999	-14.426	6.52
94	1	1	-0.42023	2.003	-13.939	7.823
95	1	1	-0.122519	2.8080001	-14.36	8.8850002
96	1	1	-0.26642099	3.8399999	-15.273	8.6630001
97	1	1	-0.122519	4.0669999	-15.769	7.3779998
98	1	1	-0.42023	3.2650001	-15.352	6.3119998
99	1	4	0.15636	1.98	-13.709	4.0949998
100	1	4	0.124795	3.007	-12.577	4.1620002
101	1	8	-0.48984301	2.3959999	-11.4	4.612
102	1	9	0.104837	-1.71	-12.514	5.5960002
103	1	9	0.104837	-0.39199999	-12.086	4.4460001
104	1	9	0.092431001	-0.38299999	-14.35	6.5549998
105	1	9	0.092431001	-0.546	-14.554	4.7930002
106	1	6	0.223295	1.217	-13.225	8.0209999
107	1	6	0.228653	2.632	-13.976	9.8809996
108	1	6	0.22582699	4.4619999	-15.598	9.4870005
109	1	6	0.228653	4.8629999	-16.482	7.2080002
110	1	6	0.223295	3.454	-15.768	5.3330002
111	1	9	0.092431001	1.192	-13.431	3.362
112	1	9	0.092431001	2.461	-14.623	3.6930001
113	1	9	0.104837	3.839	-12.859	4.8439999
114	1	9	0.104837	3.427	-12.413	3.145
115	1	1	0.81993002	3.1440001	-10.682	4.645
116	1	2	-0.54560697	3.8310001	-10.462	3.6129999
117	1	3	-0.46875101	3.342	-9.9259996	5.8470001
118	1	1	0.232438	4.4359999	-9.0190001	6.0650001
119	1	1	-0.36405501	4.2379999	-7.8850002	6.8670001
120	1	1	-0.138817	5.289	-6.9980001	7.1129999
121	1	1	-0.242642	6.5599999	-7.2350001	6.5669999
122	1	4	-0.049807999	7.7020001	-6.302	6.8660002
123	1	1	-0.242642	8.4130001	-6.7350001	8.1190004
124	1	1	-0.138817	7.9860001	-6.27	9.3719997
125	1	1	-0.36405501	8.6219997	-6.6999998	10.54
126	1	1	0.232438	9.7010002	-7.599	10.472
127	1	3	-0.46875101	10.358	-8.0769997	11.659
128	1	1	0.81993002	10.564	-7.2940001	12.841
129	1	2	-0.54560697	10.338	-6.0549998	12.853
130	1	1	-0.36405501	10.102	-8.0889997	9.2200003
131	1	1	-0.138817	9.467	-7.6589999	8.052
132	1	1	-0.138817	6.77	-8.3879995	5.7940001
133	1	1	-0.36405501	5.7179999	-9.2740002	5.5469999
134	1	5	0.326888	2.589	-9.9799995	6.5700002
135	1	6	0.21960901	3.2639999	-7.6849999	7.2950001
136	1	6	0.21774299	5.1139998	-6.1269999	7.7340002
137	1	7	0.127506	8.4130001	-6.283	6.0110002
138	1	7	0.127506	7.3249998	-5.2620001	6.98
139	1	6	0.21774299	7.152	-5.5830002	9.4460001
140	1	6	0.21960901	8.25	-6.3509998	11.494
141	1	5	0.326888	10.795	-9.026	11.637
142	1	6	0.21960901	10.915	-8.802	9.1499996
143	1	6	0.21774299	9.7930002	-8.0489998	7.0970001
144	1	6	0.21774299	7.7519999	-8.6049995	5.3930001
145	1	6	0.21960901	5.9169998	-10.172	4.9770002
146	1	8	-0.48984301	10.943	-7.7470002	13.694
147	1	4	0.124795	10.689	-6.8639998	14.75
148	1	4	0.15636	11.199	-7.4489999	16.07
149	1	3	-0.65562397	10.56	-8.7390003	16.384001
150	1	1	0.282215	11.361	-9.9440002	16.459
151	1	1	-0.42023	12.315	-10.23	15.463
152	1	1	-0.122519	13.082	-11.397	15.528
153	1	1	-0.26642099	12.91	-12.292	16.584999
154	1	1	-0.122519	11.971	-12.02	17.582001
155	1	1	-0.42023	11.201	-10.855	17.523001
156	1	4	0.15636	9.132	-8.7589998	16.750999
157	1	4	0.124795	8.335	-9.6949997	15.84
158	1	8	-0.48984301	8.4320002	-9.2670002	14.51
159	1	9	0.104837	11.213	-5.901	14.561
160	1	9	0.104837	9.599	-6.6560001	14.817
161	1	9	0.092431001	12.305	-7.5549998	16.018999
162	1	9	0.092431001	10.988	-6.7290001	16.889999
163	1	6	0.223295	12.463	-9.559	14.63
164	1	6	0.228653	13.81	-11.608	14.755
165	1	6	0.22582699	13.505	-13.194	16.632999
166	1	6	0.228653	11.843	-12.711	18.405001
167	1	6	0.223295	10.497	-10.664	18.319
168	1	9	0.092431001	8.6929998	-7.7399998	16.687
169	1	9	0.092431001	9.0109997	-9.0760002	17.806999
170	1	9	0.104837	8.7189999	-10.735	15.935
171	1	9	0.104837	7.2690001	-9.6829996	16.158001
172	1	1	0.81993002	7.8850002	-9.9460001	13.949
173	1	2	-0.54560697	6.6849999	-10.173	14.259
174	1	3	-0.46875101	8.4899998	-10.569	12.809
175	1	1	0.232438	7.8889999	-11.632	12.049
176	1	1	-0.36405501	8.1450005	-11.723	10.673
177	1	1	-0.138817	7.592	-12.758	9.9139996
178	1	1	-0.242642	6.7779999	-13.725	10.523
179	1	4	-0.049807999	6.2160001	-14.863	9.7150002
180	1	1	-0.242642	7.1799998	-16.017	9.6999998
181	1	1	-0.138817	8.1789999	-16.093	8.7159996
182	1	1	-0.36405501	9.0979996	-17.146	8.7229996
183	1	1	0.232438	9.0310001	-18.143	9.7119999
184	1	3	-0.46875101	9.9790001	-19.223	9.7580004
185	1	1	0.81993002	10.554	-19.846001	8.6009998
186	1	2	-0.54560697	10.121	-19.601	7.4439998
187	1	1	-0.36405501	8.0539999	-18.045	10.714
188	1	1	-0.138817	7.1329999	-16.993	10.707
189	1	1	-0.138817	6.5479999	-13.658	11.906
190	1	1	-0.36405501	7.1009998	-12.621	12.664
191	1	5	0.326888	9.3850002	-10.156	12.463
192	1	6	0.21960901	8.7700005	-10.984	10.186
193	1	6	0.21774299	7.802	-12.808	8.8529997
194	1	7	0.127506	5.2389998	-15.186	10.138
195	1	7	0.127506	6.007	-14.526	8.6750002
196	1	6	0.21774299	8.2510004	-15.331	7.9510002
197	1	6	0.21960901	9.8780003	-17.160999	7.973
198	1	5	0.326888	10.204	-19.648001	10.685
199	1	6	0.21960901	8.0019999	-18.789	11.499
200	1	6	0.21774299	6.3870001	-16.937	11.49
201	1	6	0.21774299	5.9499998	-14.414	12.399
202	1	6	0.21960901	6.9349999	-12.614	13.733
203	1	8	-0.48984301	11.315	-20.539	8.7209997
204	1	4	0.124795	11.91	-20.684999	7.4619999
205	1	4	0.15636	13.068	-21.684999	7.5300002
206	1	3	-0.65562397	14.107	-21.26	8.4840002
207	1	1	0.282215	14.388	-22.066	9.6549997
208	1	1	-0.42023	13.337	-22.569	10.445
209	1	1	-0.122519	13.605	-23.339001	11.58
210	1	1	-0.26642099	14.924	-23.618999	11.941
211	1	1	-0.122519	15.977	-23.131001	11.166
212	1	1	-0.42023	15.715	-22.360001	10.029
213	1	4	0.15636	14.939	-20.087	8.1599998
214	1	4	0.124795	14.869	-19.030001	9.2639999
215	1	8	-0.48984301	13.549	-18.591	9.4250002
216	1	9	0.104837	11.155	-21.063999	6.737
217	1	9	0.104837	12.273	-19.698999	7.098
218	1	9	0.092431001	12.668	-22.687	7.7979999
219	1	9	0.092431001	13.52	-21.785	6.52
220	1	6	0.223295	12.307	-22.361	10.193
221	1	6	0.228653	12.789	-23.718	12.182
222	1	6	0.22582699	15.13	-24.215	12.821
223	1	6	0.228653	17	-23.353001	11.444
224	1	6	0.223295	16.551001	-22.013	9.4399996
225	1	9	0.092431001	14.613	-19.624001	7.2030001
226	1	9	0.092431001	15.993	-20.393999	8.0059996
227	1	9	0.104837	15.248	-19.454	10.22
228	1	9	0.104837	15.515	-18.171	8.9799995
229	1	1	0.81993002	13.57	-17.891001	10.191
230	1	2	-0.54560697	14.359	-16.913	10.107
231	1	3	-0.46875101	12.667	-18.028	11.296
232	1	1	0.232438	12.706	-17.215	12.481
233	1	1	-0.36405501	11.509	-16.922001	13.152
234	1	1	-0.138817	11.519	-16.152	14.319
235	1	1	-0.242642	12.73	-15.669	14.838
236	1	4	-0.049807999	12.745	-14.875	16.115999
237	1	1	-0.242642	12.871	-15.796	17.299
238	1	1	-0.138817	11.724	-16.337999	17.9
239	1	1	-0.36405501	11.841	-17.222	18.976
240	1	1	0.232438	13.109	-17.575001	19.472
241	1	3	-0.46875101	13.26	-18.502001	20.561001
242	1	1	0.81993002	12.355	-18.604	21.667999
243	1	2	-0.54560697	11.448	-17.75	21.853001
244	1	1	-0.36405501	14.254	-17.059	18.846001
245	1	1	-0.138817	14.137	-16.174	17.77
246	1	1	-0.138817	13.932	-15.99	14.189
247	1	1	-0.36405501	13.922	-16.759001	13.021
248	1	5	0.326888	11.881	-18.705999	11.184
249	1	6	0.21960901	10.565	-17.285	12.764
250	1	6	0.21774299	10.584	-15.937	14.819
251	1	7	0.127506	13.588	-14.15	16.105
252	1	7	0.127506	11.816	-14.269	16.200001
253	1	6	0.21774299	10.74	-16.084	17.528
254	1	6	0.21960901	10.942	-17.65	19.396999
255	1	5	0.326888	14.128	-19.082001	20.604
256	1	6	0.21960901	15.239	-17.339001	19.198
257	1	6	0.21774299	15.034	-15.787	17.302999
258	1	6	0.21774299	14.879	-15.655	14.594
259	1	6	0.21960901	14.865	-17.02	12.562
260	1	8	-0.48984301	12.471	-19.375	22.351999
261	1	4	0.124795	11.272	-19.440001	23.070999
262	1	4	0.15636	11.332	-20.566	24.108
263	1	3	-0.65562397	11.565	-21.879	23.482
264	1	1	0.282215	12.776	-22.618	23.778999
265	1	1	-0.42023	14.027	-21.971001	23.773001
266	1	1	-0.122519	15.197	-22.683001	24.049999
267	1	1	-0.26642099	15.136	-24.047001	24.339001
268	1	1	-0.122519	13.903	-24.702	24.353001
269	1	1	-0.42023	12.729	-23.993999	24.076
270	1	4	0.15636	10.497	-22.482	22.664
271	1	4	0.124795	10.991	-22.809999	21.254
272	1	8	-0.48984301	11.419	-21.642	20.611
273	1	9	0.104837	11.106	-18.476999	23.603001
274	1	9	0.104837	10.42	-19.601999	22.375999
275	1	9	0.092431001	12.123	-20.334	24.853001
276	1	9	0.092431001	10.371	-20.594999	24.666
277	1	6	0.223295	14.104	-20.917999	23.545
278	1	6	0.228653	16.153999	-22.176001	24.040001
279	1	6	0.22582699	16.042999	-24.597	24.552999
280	1	6	0.228653	13.856	-25.757999	24.582001
281	1	6	0.223295	11.789	-24.525999	24.113001
282	1	9	0.092431001	9.625	-21.797001	22.584999
283	1	9	0.092431001	10.116	-23.403999	23.148001
284	1	9	0.104837	11.826	-23.544001	21.305
285	1	9	0.104837	10.156	-23.268	20.677999
286	1	1	0.81993002	11.75	-21.934999	19.673
287	1	2	-0.54560697	10.979	-22.598	18.927999
288	1	3	-0.46875101	13.053	-21.535	19.228001
289	1	1	0.232438	13.678	-22.003	18.02
290	1	1	-0.36405501	14.545	-21.15	17.322001
291	1	1	-0.138817	15.184	-21.586	16.157
292	1	1	-0.242642	14.97	-22.886999	15.677
293	1	4	-0.049807999	15.689	-23.368999	14.446
294	1	1	-0.242642	17.014999	-23.973	14.821
295	1	1	-0.138817	18.159	-23.167	14.913
296	1	1	-0.36405501	19.385	-23.719999	15.297
297	1	1	0.232438	19.483999	-25.091999	15.591
298	1	3	-0.46875101	20.726	-25.681999	16.011999
299	1	1	0.81993002	22.017	-25.280001	15.536
300	1	2	-0.54560697	22.138	-24.488001	14.564
301	1	1	-0.36405501	18.330999	-25.888	15.532
302	1	1	-0.138817	17.106001	-25.334999	15.148
303	1	1	-0.138817	14.131	-23.754	16.393
304	1	1	-0.36405501	13.491	-23.316999	17.556999
305	1	5	0.326888	13.533	-20.789	19.780001
306	1	6	0.21960901	14.721	-20.142	17.677
307	1	6	0.21774299	15.848	-20.91	15.633
308	1	7	0.127506	15.066	-24.118999	13.909
309	1	7	0.127506	15.84	-22.525999	13.737
310	1	6	0.21774299	18.101	-22.107	14.698
311	1	6	0.21960901	20.242001	-23.068001	15.393
312	1	5	0.326888	20.691999	-26.518	16.639
313	1	6	0.21960901	18.382999	-26.941	15.779
314	1	6	0.21774299	16.228001	-25.968	15.108
315	1	6	0.21774299	13.981	-24.771999	16.056
316	1	6	0.21960901	12.878	-24.018	18.107
317	1	8	-0.48984301	22.868999	-25.677	15.975
318	1	4	0.124795	23.929001	-24.853001	15.58
319	1	4	0.15636	25.245001	-25.344999	16.191999
320	1	3	-0.65562397	25.195999	-25.361	17.664
321	1	1	0.282215	25.315001	-26.615	18.378
322	1	1	-0.42023	24.582001	-27.745001	17.966
323	1	1	-0.122519	24.688	-28.954	18.66
324	1	1	-0.26642099	25.528	-29.054001	19.77
325	1	1	-0.122519	26.264999	-27.944	20.188999
326	1	1	-0.42023	26.162001	-26.732	19.499001
327	1	4	0.15636	25.160999	-24.08	18.392
328	1	4	0.124795	23.950001	-24	19.323999
329	1	8	-0.48984301	22.767	-24.107	18.584
330	1	9	0.104837	24.021999	-24.872999	14.472
331	1	9	0.104837	23.73	-23.804001	15.891
332	1	9	0.092431001	25.476999	-26.355	15.79
333	1	9	0.092431001	26.069	-24.677	15.862
334	1	6	0.223295	23.919001	-27.693001	17.115
335	1	6	0.228653	24.117001	-29.815001	18.336
336	1	6	0.22582699	25.608999	-29.990999	20.306
337	1	6	0.228653	26.92	-28.024	21.046
338	1	6	0.223295	26.76	-25.898001	19.836
339	1	9	0.092431001	25.122	-23.224001	17.684
340	1	9	0.092431001	26.091999	-23.945999	18.98
341	1	9	0.104837	24	-24.813	20.082001
342	1	9	0.104837	23.969999	-23.023001	19.855
343	1	1	0.81993002	21.992001	-24.059	19.271
344	1	2	-0.54560697	21.934999	-23.082001	20.065001
345	1	3	-0.46875101	20.98	-25.073999	19.266001
346	1	1	0.232438	19.948999	-25.198	20.261
347	1	1	-0.36405501	18.693001	-25.698999	19.888
348	1	1	-0.138817	17.679001	-25.851999	20.839001
349	1	1	-0.242642	17.909	-25.511	22.18
350	1	4	-0.049807999	16.830999	-25.712999	23.209999
351	1	1	-0.242642	16.916	-27.1	23.788
352	1	1	-0.138817	16.235001	-28.164	23.177
353	1	1	-0.36405501	16.341999	-29.459	23.691999
354	1	1	0.232438	17.131001	-29.709999	24.829
355	1	3	-0.46875101	17.278999	-31.035999	25.364
356	1	1	0.81993002	16.245001	-32.028	25.368
357	1	2	-0.54560697	15.059	-31.738001	25.058001
358	1	1	-0.36405501	17.839001	-28.65	25.415001
359	1	1	-0.138817	17.73	-27.354	24.902
360	1	1	-0.138817	19.176001	-25.042999	22.563
361	1	1	-0.36405501	20.188999	-24.889999	21.612
362	1	5	0.326888	20.947001	-25.705999	18.434999
363	1	6	0.21960901	18.497	-25.966	18.857
364	1	6	0.21774299	16.716	-26.239	20.528999
365	1	7	0.127506	16.929001	-24.955	24.018999
366	1	7	0.127506	15.83	-25.549999	22.753
367	1	6	0.21774299	15.629	-27.992001	22.296
368	1	6	0.21960901	15.834	-30.264999	23.181
369	1	5	0.326888	18.166	-31.274	25.863001
370	1	6	0.21960901	18.469999	-28.827999	26.275999
371	1	6	0.21774299	18.284	-26.549999	25.371
372	1	6	0.21774299	19.382	-24.806999	23.599001
373	1	6	0.21960901	21.165001	-24.559999	21.941
374	1	8	-0.48984301	16.466999	-32.995998	25.667
375	1	4	0.124795	15.405	-33.793999	25.225
376	1	4	0.15636	15.643	-35.257999	25.605
377	1	3	-0.65562397	16.889	-35.784	25.021
378	1	1	0.282215	17.969999	-36.210999	25.885
379	1	1	-0.42023	18.372999	-35.412998	26.973
380	1	1	-0.122519	19.422001	-35.818001	27.804001
381	1	1	-0.26642099	20.08	-37.025002	27.562
382	1	1	-0.122519	19.690001	-37.830002	26.490999
383	1	1	-0.42023	18.642	-37.429001	25.657
384	1	4	0.15636	16.964001	-35.992001	23.563
385	1	4	0.124795	18.143	-35.234001	22.951
386	1	8	-0.48984301	18.004	-33.860001	23.183001
387	1	9	0.104837	14.46	-33.451	25.702
388	1	9	0.104837	15.291	-33.695999	24.122999
389	1	9	0.092431001	15.653	-35.349998	26.712999
390	1	9	0.092431001	14.786	-35.868999	25.246
391	1	6	0.223295	17.886	-34.471001	27.177999
392	1	6	0.228653	19.725	-35.195	28.635
393	1	6	0.22582699	20.892	-37.337002	28.205999
394	1	6	0.228653	20.197001	-38.768002	26.308001
395	1	6	0.223295	18.351	-38.083	24.847
396	1	9	0.092431001	16.028	-35.653999	23.066999
397	1	9	0.092431001	17.056	-37.073002	23.333
398	1	9	0.104837	19.098	-35.599998	23.389
399	1	9	0.104837	18.163	-35.425999	21.855
400	1	1	0.81993002	18.836	-33.410999	22.757
401	1	2	-0.54560697	19.101999	-33.633999	21.546
402	1	3	-0.46875101	19.629	-32.509998	23.540001
403	1	1	0.232438	20.882	-31.948	23.111
404	1	1	-0.36405501	21.242001	-30.663	23.542999
405	1	1	-0.138817	22.462999	-30.101999	23.16
406	1	1	-0.242642	23.349001	-30.820999	22.343
407	1	4	-0.049807999	24.681	-30.233	21.964001
408	1	1	-0.242642	25.716	-30.58	22.999001
409	1	1	-0.138817	25.908001	-29.750999	24.115
410	1	1	-0.36405501	26.844	-30.091	25.096001
411	1	1	0.232438	27.608	-31.266001	24.973
412	1	3	-0.46875101	28.559	-31.653	25.979
413	1	1	0.81993002	29.358999	-30.733999	26.733999
414	1	2	-0.54560697	29.41	-29.511999	26.433001
415	1	1	-0.36405501	27.388	-32.111	23.874001
416	1	1	-0.138817	26.452	-31.77	22.893
417	1	1	-0.138817	23.007	-32.120998	21.938999
418	1	1	-0.36405501	21.785	-32.681999	22.322001
419	1	5	0.326888	19.219	-32.178001	24.441999
420	1	6	0.21960901	20.57	-30.093	24.172001
421	1	6	0.21774299	22.719999	-29.107	23.503
422	1	7	0.127506	24.995001	-30.612	20.966999
423	1	7	0.127506	24.596001	-29.129	21.863001
424	1	6	0.21774299	25.325001	-28.846001	24.23
425	1	6	0.21960901	26.945999	-29.451	25.961
426	1	5	0.326888	28.752001	-32.671001	26.115
427	1	6	0.21960901	27.948	-33.032001	23.775999
428	1	6	0.21774299	26.299999	-32.436001	22.052999
429	1	6	0.21774299	23.693001	-32.705002	21.337
430	1	6	0.21960901	21.563999	-33.698002	22.024
431	1	8	-0.48984301	29.936001	-31.086	27.52
432	1	4	0.124795	30.292999	-29.962	28.275
433	1	4	0.15636	31.142	-30.375999	29.48
434	1	3	-0.65562397	30.427	-31.316	30.362
435	1	1	0.282215	30.933001	-32.66	30.549
436	1	1	-0.42023	31.351	-33.425999	29.444
437	1	1	-0.122519	31.83	-34.727001	29.620001
438	1	1	-0.26642099	31.900999	-35.279999	30.9
439	1	1	-0.122519	31.495001	-34.532001	32.006001
440	1	1	-0.42023	31.014	-33.23	31.834999
441	1	4	0.15636	29.278	-30.827	31.146
442	1	4	0.124795	28.021	-31.652	30.868
443	1	8	-0.48984301	27.681999	-31.569	29.511999
444	1	9	0.104837	30.886999	-29.264999	27.643
445	1	9	0.104837	29.379	-29.427	28.613001
446	1	9	0.092431001	32.097	-30.816999	29.118999
447	1	9	0.092431001	31.414	-29.468	30.059999
448	1	6	0.223295	31.299	-33.026001	28.441999
449	1	6	0.228653	32.146	-35.307999	28.763
450	1	6	0.22582699	32.272999	-36.287998	31.035
451	1	6	0.228653	31.556	-34.959	32.998001
452	1	6	0.223295	30.726	-32.669998	32.713001
453	1	9	0.092431001	29.063999	-29.761999	30.912001
454	1	9	0.092431001	29.511999	-30.858999	32.23
455	1	9	0.104837	28.191999	-32.713001	31.153
456	1	9	0.104837	27.186001	-31.253	31.485001
457	1	8	-0.48984301	-6.3670001	-0.579	2.3529999
458	1	4	0.124795	-7.618	-0.26800001	1.809
459	1	4	0.157499	-8.7080002	-0.37799999	2.8800001
460	1	3	-0.64742798	-8.7799997	-1.732	3.4560001
461	1	1	0.28394499	-8.4910002	-1.937	4.8600001
462	1	1	-0.42023	-7.3639998	-1.336	5.4530001
463	1	1	-0.122519	-7.0780001	-1.54	6.8060002
464	1	1	-0.26642099	-7.9120002	-2.3429999	7.586
465	1	1	-0.122519	-9.0349998	-2.9419999	7.0139999
466	1	1	-0.42023	-9.3260002	-2.7420001	5.6609998
467	1	4	0.12722699	-9.276	-2.8399999	2.619
468	1	4	0.088605002	-8.2600002	-3.9809999	2.5439999
469	1	10	-0.66717499	-7.0619998	-3.5220001	1.983
470	1	9	0.104837	-7.605	0.77499998	1.421
471	1	9	0.104837	-7.8429999	-0.949	0.95999998
472	1	9	0.092431001	-8.5209999	0.38100001	3.6700001
473	1	9	0.092431001	-9.6899996	-0.124	2.424
474	1	6	0.223295	-6.698	-0.71600002	4.8709998
475	1	6	0.228653	-6.2069998	-1.075	7.2509999
476	1	6	0.22582699	-7.6890001	-2.4990001	8.6330004
477	1	6	0.228653	-9.6850004	-3.5599999	7.6209998
478	1	6	0.223295	-10.213	-3.2049999	5.2529998
479	1	9	0.097746998	-9.4940004	-2.4890001	1.587
480	1	9	0.097746998	-10.236	-3.224	3.02
481	1	9	0.104893	-8.0719995	-4.3899999	3.5610001
482	1	9	0.104893	-8.6789999	-4.7940001	1.911
483	1	11	0.406387	-6.4460001	-4.3000002	1.974
484	1	1	0.81993002	26.799	-32.181999	29.385
485	1	2	-0.54560697	26.52	-32.627998	28.240999
486	1	3	-0.46875101	25.944	-32.425999	30.509001
487	1	1	0.232438	24.834	-33.341	30.500999
488	1	1	-0.36405501	24.875999	-34.542	29.771
489	1	1	-0.138817	23.792999	-35.424999	29.799999
490	1	1	-0.242642	22.653	-35.125	30.563
491	1	4	-0.049807999	21.504	-36.094002	30.625
492	1	1	-0.256901	21.712999	-37.077	31.745001
493	1	1	-0.18403099	21.253	-36.785	33.037998
494	1	1	-0.255086	21.478001	-37.681999	34.087002
495	1	1	0.44283301	22.174	-38.876999	33.863998
496	1	3	-0.33484799	22.382999	-39.766998	34.971001
497	1	12	0.61566001	23.002001	-40.876999	34.882999
498	1	2	-0.287379	23.601999	-41.955002	34.797001
499	1	1	-0.255086	22.646999	-39.164001	32.568001
500	1	1	-0.18403099	22.421	-38.268002	31.52
501	1	1	-0.138817	22.625	-33.943001	31.319
502	1	1	-0.36405501	23.709	-33.061001	31.290001
503	1	5	0.326888	26.091999	-31.830999	31.355
504	1	6	0.21960901	25.754	-34.814999	29.202
505	1	6	0.21774299	23.846001	-36.348	29.237
506	1	7	0.127506	21.406	-36.632999	29.657
507	1	7	0.127506	20.548	-35.544998	30.771999
508	1	6	0.204	20.719999	-35.862999	33.235001
509	1	6	0.21146999	21.113001	-37.444	35.077999
510	1	6	0.21146999	23.193001	-40.077	32.366001
511	1	6	0.204	22.799999	-38.500999	30.533001
512	1	6	0.21774299	21.764999	-33.707001	31.934
513	1	6	0.21960901	23.669001	-32.153	31.879

Bonds

1	1	1	2
2	2	1	3
3	3	1	457
4	4	3	4
5	5	3	20
6	6	4	5
7	6	4	19
8	6	5	6
9	7	5	21
10	6	6	7
11	7	6	22
12	8	7	8
13	6	7	18
14	8	8	9
15	9	8	23
16	9	8	24
17	6	9	10
18	6	9	17
19	6	10	11
20	7	10	25
21	6	11	12
22	7	11	26
23	4	12	13
24	6	12	16
25	2	13	14
26	5	13	27
27	1	14	15
28	3	14	32
29	6	16	17
30	7	16	28
31	7	17	29
32	6	18	19
33	7	18	30
34	7	19	31
35	10	32	33
36	11	33	34
37	9	33	45
38	9	33	46
39	12	34	35
40	9	34	47
41	9	34	48
42	4	35	36
43	12	35	42
44	6	36	37
45	6	36	41
46	6	37	38
47	7	37	49
48	6	38	39
49	7	38	50
50	6	39	40
51	7	39	51
52	6	40	41
53	7	40	52
54	7	41	53
55	11	42	43
56	9	42	54
57	9	42	55
58	10	43	44
59	9	43	56
60	9	43	57
61	3	44	58
62	1	58	59
63	2	58	60
64	4	60	61
65	5	60	77
66	6	61	62
67	6	61	76
68	6	62	63
69	7	62	78
70	6	63	64
71	7	63	79
72	8	64	65
73	6	64	75
74	8	65	66
75	9	65	80
76	9	65	81
77	6	66	67
78	6	66	74
79	6	67	68
80	7	67	82
81	6	68	69
82	7	68	83
83	4	69	70
84	6	69	73
85	2	70	71
86	5	70	84
87	1	71	72
88	3	71	89
89	6	73	74
90	7	73	85
91	7	74	86
92	6	75	76
93	7	75	87
94	7	76	88
95	10	89	90
96	11	90	91
97	9	90	102
98	9	90	103
99	12	91	92
100	9	91	104
101	9	91	105
102	4	92	93
103	12	92	99
104	6	93	94
105	6	93	98
106	6	94	95
107	7	94	106
108	6	95	96
109	7	95	107
110	6	96	97
111	7	96	108
112	6	97	98
113	7	97	109
114	7	98	110
115	11	99	100
116	9	99	111
117	9	99	112
118	10	100	101
119	9	100	113
120	9	100	114
121	3	101	115
122	1	115	116
123	2	115	117
124	4	117	118
125	5	117	134
126	6	118	119
127	6	118	133
128	6	119	120
129	7	119	135
130	6	120	121
131	7	120	136
132	8	121	122
133	6	121	132
134	8	122	123
135	9	122	137
136	9	122	138
137	6	123	124
138	6	123	131
139	6	124	125
140	7	124	139
141	6	125	126
142	7	125	140
143	4	126	127
144	6	126	130
145	2	127	128
146	5	127	141
147	1	128	129
148	3	128	146
149	6	130	131
150	7	130	142
151	7	131	143
152	6	132	133
153	7	132	144
154	7	133	145
155	10	146	147
156	11	147	148
157	9	147	159
158	9	147	160
159	12	148	149
160	9	148	161
161	9	148	162
162	4	149	150
163	12	149	156
164	6	150	151
165	6	150	155
166	6	151	152
167	7	151	163
168	6	152	153
169	7	152	164
170	6	153	154
171	7	153	165
172	6	154	155
173	7	154	166
174	7	155	167
175	11	156	157
176	9	156	168
177	9	156	169
178	10	157	158
179	9	157	170
180	9	157	171
181	3	158	172
182	1	172	173
183	2	172	174
184	4	174	175
185	5	174	191
186	6	175	176
187	6	175	190
188	6	176	177
189	7	176	192
190	6	177	178
191	7	177	193
192	8	178	179
193	6	178	189
194	8	179	180
195	9	179	194
196	9	179	195
197	6	180	181
198	6	180	188
199	6	181	182
200	7	181	196
201	6	182	183
202	7	182	197
203	4	183	184
204	6	183	187
205	2	184	185
206	5	184	198
207	1	185	186
208	3	185	203
209	6	187	188
210	7	187	199
211	7	188	200
212	6	189	190
213	7	189	201
214	7	190	202
215	10	203	204
216	11	204	205
217	9	204	216
218	9	204	217
219	12	205	206
220	9	205	218
221	9	205	219
222	4	206	207
223	12	206	213
224	6	207	208
225	6	207	212
226	6	208	209
227	7	208	220
228	6	209	210
229	7	209	221
230	6	210	211
231	7	210	222
232	6	211	212
233	7	211	223
234	7	212	224
235	11	213	214
236	9	213	225
237	9	213	226
238	10	214	215
239	9	214	227
240	9	214	228
241	3	215	229
242	1	229	230
243	2	229	231
244	4	231	232
245	5	231	248
246	6	232	233
247	6	232	247
248	6	233	234
249	7	233	249
250	6	234	235
251	7	234	250
252	8	235	236
253	6	235	246
254	8	236	237
255	9	236	251
256	9	236	252
257	6	237	238
258	6	237	245
259	6	238	239
260	7	238	253
261	6	239	240
262	7	239	254
263	4	240	241
264	6	240	244
265	2	241	242
266	5	241	255
267	1	242	243
268	3	242	260
269	6	244	245
270	7	244	256
271	7	245	257
272	6	246	247
273	7	246	258
274	7	247	259
275	10	260	261
276	11	261	262
277	9	261	273
278	9	261	274
279	12	262	263
280	9	262	275
281	9	262	276
282	4	263	264
283	12	263	270
284	6	264	265
285	6	264	269
286	6	265	266
287	7	265	277
288	6	266	267
289	7	266	278
290	6	267	268
291	7	267	279
292	6	268	269
293	7	268	280
294	7	269	281
295	11	270	271
296	9	270	282
297	9	270	283
298	10	271	272
299	9	271	284
300	9	271	285
301	3	272	286
302	1	286	287
303	2	286	288
304	4	288	289
305	5	288	305
306	6	289	290
307	6	289	304
308	6	290	291
309	7	290	306
310	6	291	292
311	7	291	307
312	8	292	293
313	6	292	303
314	8	293	294
315	9	293	308
316	9	293	309
317	6	294	295
318	6	294	302
319	6	295	296
320	7	295	310
321	6	296	297
322	7	296	311
323	4	297	298
324	6	297	301
325	2	298	299
326	5	298	312
327	1	299	300
328	3	299	317
329	6	301	302
330	7	301	313
331	7	302	314
332	6	303	304
333	7	303	315
334	7	304	316
335	10	317	318
336	11	318	319
337	9	318	330
338	9	318	331
339	12	319	320
340	9	319	332
341	9	319	333
342	4	320	321
343	12	320	327
344	6	321	322
345	6	321	326
346	6	322	323
347	7	322	334
348	6	323	324
349	7	323	335
350	6	324	325
351	7	324	336
352	6	325	326