Title

513 atoms
539 bonds
905 angles
1533 dihedrals
615 impropers

12 atom types
18 bond types
10 angle types
30 dihedral types
3 improper types
-16.29899979 83.70100021 xlo xhi
-7.903999805 92.09600019 ylo yhi
-6.730999947 93.26900005 zlo zhi
0.0 0.0 0.0 xy xz yz

Masses

1	15.99943
2	12.01078
3	14.00672
4	1.007947
5	12.01078
6	1.007947
7	1.007947
8	15.99943
9	1.007947
10	12.01078
11	15.99943
12	1.007947


Pair Coeffs

1	0.2102061	3.0398122
2	0.086879315	3.4806469
3	0.16769152	3.206876
4	0.015611343	2.5725815
5	0.10884061	3.3795318
6	0.014090815	1.1034277
7	0.015779483	2.6445434
8	0.16846514	3.0251065
9	0.016409246	2.5832257
10	0.21	3.3996695
11	0.20947353	2.99716
12	1.2326e-05	0.53453923

Bond Coeffs

1 harmonic	582.698766451	1.225198386222
2 harmonic	492.76746816345	1.381897776683
3 harmonic	301.15400723785	1.345741232799
4 harmonic	390.03554688505	1.390160554689
5 harmonic	505.144496193	1.019481865027
6 harmonic	360.7852444772	1.387193227181
7 harmonic	397.2545789619	1.085358495916
8 harmonic	289.73813263395	1.498646816465
9 harmonic	370.04670688625	1.093899492634
10 harmonic	279.1350963404	1.454628925034
11 harmonic	366.7408841747	1.425895053732
12 harmonic	264.62148576755	1.52190126495
13 harmonic	366.34047229585	1.464762957261
14 harmonic	300.03137914615	1.451203938761
15 harmonic	382.5450169811	1.379244394267
16 harmonic	602.81384337	1.196112346392
17 harmonic	329.96998057905	1.427343958716
18 harmonic	543.5267831885	0.9716763312559


Angle Coeffs

1 harmonic	57.8982893754	126.8062420451
2 harmonic	201.41175231035	127.4691416191
3 harmonic	55.42182150775	117.3465570514
4 harmonic	63.44422595415	115.5071327674
5 harmonic	65.09061609600001	110.3538806181
6 harmonic	34.066775159195	129.1835929926
7 harmonic	53.20531626545	116.5475862634
8 harmonic	48.776492647595	115.6030999533
9 harmonic	55.07882548015	112.8714009681
10 harmonic	33.56981613361	180


Dihedral Coeffs

1 fourier 1	1.809047390003	2	180
2 fourier 1	-0.04816277792592	1	0
3 fourier 1	0.4860993122944	2	180
4 fourier 1	0.8916986138746	1	0
5 fourier 1	1.163809172478	2	180
6 fourier 1	0.1679186987369	1	180
7 fourier 1	1.193093382682	2	180
8 fourier 1	0.1918272375143	3	0
9 fourier 1	0.9202179876409	1	180
10 fourier 1	0.0473758381877	3	0
11 fourier 1	2.779853741805	2	180
12 fourier 1	3.661930099076	2	180
13 fourier 1	0.02664938770063	3	0
14 fourier 1	3.101948770557	2	180
15 fourier 1	-0.4252153282372	1	0
16 fourier 1	0.9974165607242	2	180
17 fourier 1	2.348375642009	2	180
18 fourier 1	1.256156174911	1	0
19 fourier 1	0.1155372516788	3	0
20 fourier 1	0.1115525666802	3	0
21 fourier 1	0.3432490222662	1	0
22 fourier 1	0.182238503271	2	0
23 fourier 1	0.02972342374561	3	0
24 fourier 1	0.1911926717192	3	0
25 fourier 1	0.457973137376	1	0
26 fourier 1	1.550515418264	2	180
27 fourier 1	0	1	0
28 fourier 1	0.3445382149273	3	0
29 fourier 1	0.1364556373303	1	0
30 fourier 1	0.3026390167484	3	0


Improper Coeffs

1 3.5	-1	2
2 0.3333333333333333	-1	2
3 0.3666666666666667	-1	2


Atoms

1	1	1	-0.54471898	5.888	1.24	-0.66600001
2	1	2	0.82012498	5.763	0.13699999	-1.261
3	1	3	-0.46854901	4.664	-0.73799998	-0.98100001
4	1	2	0.232858	3.517	-0.37	-0.19499999
5	1	2	-0.363608	2.8740001	-1.309	0.51999998
6	1	2	-0.138356	1.6849999	-0.95899999	1.324
7	1	2	-0.24227899	1.228	0.30500001	1.3430001
8	1	2	-0.138356	1.906	1.335	0.51999998
9	1	2	-0.363608	2.983	1.017	-0.208
10	1	4	0.22001	3.4389999	1.776	-0.829
11	1	4	0.21813101	1.521	2.346	0.493
12	1	5	-0.049687002	-0.0060000001	0.66500002	2.1259999
13	1	2	-0.24227899	-1.234	0.47	1.28
14	1	2	-0.138356	-1.6900001	1.4579999	0.491
15	1	2	-0.37569001	-2.8740001	1.243	-0.366
16	1	2	0.20906501	-3.5139999	0.061000001	-0.36300001
17	1	2	-0.37569001	-2.983	-1.044	0.477
18	1	2	-0.138356	-1.91	-0.84899998	1.253
19	1	4	0.21813101	-1.527	-1.666	1.852
20	1	4	0.22001	-3.4360001	-2.026	0.44600001
21	1	3	-0.50613099	-4.6560001	-0.12899999	-1.216
22	1	2	0.572667	-5.7550001	-0.995	-0.90799999
23	1	1	-0.60190701	-5.8860002	-1.506	0.235
24	1	6	0.32319	-4.737	0.44999999	-2.082
25	1	4	0.22001	-3.227	2.056	-0.98799998
26	1	4	0.21813101	-1.1950001	2.421	0.47
27	1	7	0.12771399	0.061999999	1.72	2.4719999
28	1	7	0.12771399	-0.077	0.039999999	3.043
29	1	4	0.21813101	1.189	-1.735	1.893
30	1	4	0.22001	3.2290001	-2.332	0.52700001
31	1	6	0.327104	4.7480001	-1.726	-1.313
32	1	8	-0.48965499	9.8380003	-2.658	-5.3099999
33	1	5	0.124916	8.7740002	-1.994	-5.9349999
34	1	5	0.15648299	7.9650002	-1.188	-4.915
35	1	3	-0.65544403	7.4460001	-2.062	-3.852
36	1	5	0.15648299	7.9759998	-1.96	-2.483
37	1	5	0.124916	6.908	-1.431	-1.527
38	1	8	-0.48965499	6.4910002	-0.15800001	-1.938
39	1	9	0.105142	6.0419998	-2.128	-1.507
40	1	9	0.105142	7.3390002	-1.3710001	-0.50300002
41	1	9	0.092735	8.3240004	-2.954	-2.1340001
42	1	9	0.092735	8.8570004	-1.284	-2.4460001
43	1	2	0.282561	6.4359999	-3.0439999	-4.1550002
44	1	2	-0.419743	5.2670002	-2.6760001	-4.71
45	1	2	-0.122114	4.23	-3.687	-5.007
46	1	2	-0.26599401	4.4499998	-4.9759998	-4.724
47	1	2	-0.122114	5.73	-5.3899999	-4.1160002
48	1	2	-0.419743	6.671	-4.4780002	-3.845
49	1	4	0.223692	7.6129999	-4.796	-3.4170001
50	1	4	0.229075	5.9070001	-6.4349999	-3.8959999
51	1	4	0.226243	3.691	-5.717	-4.9400001
52	1	4	0.229075	3.2920001	-3.3800001	-5.4520001
53	1	4	0.223692	5.059	-1.636	-4.9239998
54	1	9	0.092735	8.6129999	-0.389	-4.493
55	1	9	0.092735	7.1269999	-0.67400002	-5.4310002
56	1	9	0.105142	9.1560001	-1.316	-6.7309999
57	1	9	0.105142	8.1169996	-2.7460001	-6.4219999
58	1	1	-0.54471898	17.01	1.342	4.2969999
59	1	2	0.82012498	15.807	1.425	4.6620002
60	1	3	-0.46854901	14.761	1.698	3.7219999
61	1	2	0.232858	14.934	1.683	2.2939999
62	1	2	-0.363608	14.182	2.4909999	1.527
63	1	2	-0.138356	14.331	2.484	0.057
64	1	2	-0.24227899	15.216	1.6619999	-0.53100002
65	1	2	-0.138356	16.014999	0.73699999	0.30700001
66	1	2	-0.363608	15.881	0.74400002	1.6390001
67	1	4	0.22001	16.447001	0.034000002	2.227
68	1	4	0.21813101	16.701	0.039999999	-0.15800001
69	1	5	-0.049687002	15.347	1.617	-2.029
70	1	2	-0.24227899	14.378	0.62199998	-2.6070001
71	1	2	-0.138356	14.718	-0.671	-2.7390001
72	1	2	-0.363608	13.745	-1.648	-3.2709999
73	1	2	0.232858	12.513	-1.255	-3.635
74	1	2	-0.363608	12.124	0.167	-3.448
75	1	2	-0.138356	13.006	1.052	-2.9660001
76	1	4	0.21813101	12.706	2.0829999	-2.823
77	1	4	0.22001	11.117	0.49599999	-3.6659999
78	1	3	-0.46854901	11.578	-2.227	-4.1370001
79	1	2	0.82012498	10.551	-1.937	-5.0929999
80	1	1	-0.54471898	10.523	-0.83999997	-5.71
81	1	6	0.327104	11.691	-3.2249999	-3.8499999
82	1	4	0.22001	14.044	-2.6830001	-3.375
83	1	4	0.21813101	15.706	-1.015	-2.4560001
84	1	7	0.12771399	16.389999	1.349	-2.309
85	1	7	0.12771399	15.158	2.6240001	-2.464
86	1	4	0.21813101	13.714	3.148	-0.53600001
87	1	4	0.22001	13.467	3.168	1.979
88	1	6	0.327104	13.839	1.997	4.1129999
89	1	8	-0.48965499	13.459	1.302	10.603
90	1	5	0.124916	13.358	0.081	9.9209995
91	1	5	0.15648299	14.118	0.139	8.5939999
92	1	3	-0.65544403	13.605	1.224	7.744
93	1	5	0.15648299	14.431	2.411	7.4770002
94	1	5	0.124916	14.836	2.471	6.0050001
95	1	8	-0.48965499	15.576	1.33	5.6690001
96	1	9	0.105142	13.926	2.5369999	5.3670001
97	1	9	0.105142	15.454	3.381	5.8369999
98	1	9	0.092735	13.873	3.332	7.744
99	1	9	0.092735	15.351	2.405	8.1009998
100	1	2	0.282561	12.276	1.141	7.1919999
101	1	2	-0.419743	11.914	0.092	6.4310002
102	1	2	-0.122114	10.554	0.018999999	5.8590002
103	1	2	-0.26599401	9.6730003	0.99800003	6.0949998
104	1	2	-0.122114	10.06	2.152	6.9299998
105	1	2	-0.419743	11.291	2.2219999	7.4499998
106	1	4	0.223692	11.557	3.0639999	8.0769997
107	1	4	0.229075	9.342	2.9389999	7.1259999
108	1	4	0.226243	8.677	0.94599998	5.6750002
109	1	4	0.229075	10.273	-0.82800001	5.2459998
110	1	4	0.223692	12.618	-0.699	6.2069998
111	1	9	0.092735	15.201	0.27599999	8.8050003
112	1	9	0.092735	14.021	-0.83499998	8.0699997
113	1	9	0.105142	13.76	-0.74599999	10.549
114	1	9	0.105142	12.286	-0.134	9.7279997
115	1	1	-0.54471898	23.336	9.1689997	11.156
116	1	2	0.82012498	23.083	8.9630003	9.9399996
117	1	3	-0.46854901	22.539	7.7150002	9.4940004
118	1	2	0.232858	22.033001	6.6939998	10.372
119	1	2	-0.363608	22.117001	5.4039998	10.005
120	1	2	-0.138356	21.591999	4.3369999	10.883
121	1	2	-0.24227899	21.017	4.6469998	12.058
122	1	2	-0.138356	20.882	6.0710001	12.446
123	1	2	-0.363608	21.358	7.0380001	11.651
124	1	4	0.22001	21.214001	8.0710001	11.936
125	1	4	0.21813101	20.382	6.336	13.369
126	1	5	-0.049687002	20.443001	3.573	12.941
127	1	2	-0.24227899	19.011	3.302	12.567
128	1	2	-0.138356	18.011	4.0100002	13.117
129	1	2	-0.363608	16.612	3.763	12.714
130	1	2	0.232858	16.32	2.8239999	11.798
131	1	2	-0.363608	17.431999	2.072	11.158
132	1	2	-0.138356	18.698999	2.296	11.523
133	1	4	0.21813101	19.5	1.75	11.041
134	1	4	0.22001	17.232	1.36	10.368
135	1	3	-0.46854901	14.952	2.6110001	11.41
136	1	2	0.82012498	14.422	1.349	10.986
137	1	1	-0.54471898	15.085	0.285	11.112
138	1	6	0.327104	14.273	3.3989999	11.51
139	1	4	0.22001	15.822	4.3410001	13.177
140	1	4	0.21813101	18.216	4.7709999	13.86
141	1	7	0.12771399	20.511999	3.8840001	14.006
142	1	7	0.12771399	21.040001	2.6389999	12.85
143	1	4	0.21813101	21.676001	3.306	10.564
144	1	4	0.22001	22.583	5.1290002	9.0670004
145	1	6	0.327104	22.586	7.5170002	8.4689999
146	1	8	-0.48965499	24.403	12.71	4.9369998
147	1	5	0.124916	23.077	12.797	5.3839998
148	1	5	0.15648299	22.898001	12.031	6.697
149	1	3	-0.65544403	23.273001	10.618	6.5320001
150	1	5	0.15648299	24.479	10.089	7.1880002
151	1	5	0.124916	24.108	9.0799999	8.2740002
152	1	8	-0.48965499	23.309999	9.698	9.2440004
153	1	9	0.105142	23.562	8.2229996	7.8200002
154	1	9	0.105142	25.040001	8.6969995	8.7440004
155	1	9	0.092735	25.136999	9.6009998	6.4390001
156	1	9	0.092735	25.073999	10.907	7.6479998
157	1	2	0.282561	22.474001	9.7519999	5.7020001
158	1	2	-0.419743	21.16	9.592	5.9439998
159	1	2	-0.122114	20.349001	8.6929998	5.0960002
160	1	2	-0.26599401	20.919001	8.0319996	4.0819998
161	1	2	-0.122114	22.360001	8.2019997	3.8069999
162	1	2	-0.419743	23.098	9.0159998	4.573
163	1	4	0.223692	24.149	9.1470003	4.3509998
164	1	4	0.229075	22.816	7.6719999	2.9809999
165	1	4	0.226243	20.327	7.3730001	3.461
166	1	4	0.229075	19.294001	8.5690002	5.3000002
167	1	4	0.223692	20.684	10.097	6.7740002
168	1	9	0.092735	23.514	12.517	7.4840002
169	1	9	0.092735	21.841999	12.11	7.0300002
170	1	9	0.105142	22.788	13.862	5.5279999
171	1	9	0.105142	22.408001	12.37	4.6079998
172	1	1	-0.54471898	35.002998	12.599	11.819
173	1	2	0.82012498	34.256001	11.684	12.258
174	1	3	-0.46854901	32.828999	11.803	12.214
175	1	2	0.232858	32.125	12.83	11.493
176	1	2	-0.363608	30.937	13.263	11.946
177	1	2	-0.138356	30.188	14.305	11.215
178	1	2	-0.24227899	30.684999	14.829	10.082
179	1	2	-0.138356	31.974001	14.323	9.5530005
180	1	2	-0.363608	32.653	13.378	10.216
181	1	4	0.22001	33.571999	12.997	9.7910004
182	1	4	0.21813101	32.363998	14.705	8.618
183	1	5	-0.049687002	29.913	15.862	9.3070002
184	1	2	-0.24227899	28.987	15.194	8.3280001
185	1	2	-0.138356	29.408001	14.873	7.0929999
186	1	2	-0.363608	28.502001	14.181	6.152
187	1	2	0.232858	27.247	13.87	6.5159998
188	1	2	-0.363608	26.797001	14.186	7.8979998
189	1	2	-0.138356	27.618	14.813	8.7489996
190	1	4	0.21813101	27.282	15.027	9.7559996
191	1	4	0.22001	25.816	13.885	8.2399998
192	1	3	-0.46854901	26.388	13.184	5.5879998
193	1	2	0.82012498	24.964001	13.332	5.5479999
194	1	1	-0.54471898	24.381001	14.234	6.2059999
195	1	6	0.327104	26.823999	12.594	4.8439999
196	1	4	0.22001	28.862	13.939	5.1599998
197	1	4	0.21813101	30.414	15.114	6.7719998
198	1	7	0.12771399	30.617001	16.538	8.7740002
199	1	7	0.12771399	29.327999	16.506001	10
200	1	4	0.21813101	29.233999	14.638	11.605
201	1	4	0.22001	30.518999	12.861	12.861
202	1	6	0.327104	32.279999	11.141	12.808
203	1	8	-0.48965499	35.932999	6.3590002	15.364
204	1	5	0.124916	35.668999	6.1680002	14
205	1	5	0.15648299	35.474998	7.513	13.294
206	1	3	-0.65544403	34.375	8.2720003	13.909
207	1	5	0.15648299	34.657001	9.4960003	14.675
208	1	5	0.124916	34.097	10.724	13.959
209	1	8	-0.48965499	34.685001	10.847	12.694
210	1	9	0.105142	32.992001	10.63	13.858
211	1	9	0.105142	34.320999	11.629	14.565
212	1	9	0.092735	34.209999	9.4230003	15.688
213	1	9	0.092735	35.75	9.6330004	14.819
214	1	2	0.282561	33.018002	7.802	13.788
215	1	2	-0.419743	32.472	7.5890002	12.577
216	1	2	-0.122114	31.076	7.118	12.461
217	1	2	-0.26599401	30.347	6.901	13.561
218	1	2	-0.122114	30.938	7.1300001	14.895
219	1	2	-0.419743	32.202	7.5560002	15.005
220	1	4	0.223692	32.631001	7.7030001	15.988
221	1	4	0.229075	30.347	6.9450002	15.783
222	1	4	0.226243	29.323999	6.5570002	13.477
223	1	4	0.229075	30.643999	6.9520001	11.482
224	1	4	0.223692	33.035	7.7810001	11.674
225	1	9	0.092735	36.428001	8.0839996	13.339
226	1	9	0.092735	35.264	7.3379998	12.218
227	1	9	0.105142	36.504002	5.6090002	13.52
228	1	9	0.105142	34.749001	5.5549998	13.895
229	1	1	-0.54471898	42.632	15.576	20.833
230	1	2	0.82012498	41.751999	16.121	20.115999
231	1	3	-0.46854901	41.283001	15.5	18.912001
232	1	2	0.232858	41.585999	14.147	18.530001
233	1	2	-0.363608	41.666	13.829	17.226999
234	1	2	-0.138356	41.960999	12.443	16.809
235	1	2	-0.24227899	42.146	11.481	17.73
236	1	2	-0.138356	42.014	11.818	19.167
237	1	2	-0.363608	41.747002	13.074	19.546
238	1	4	0.22001	41.617001	13.288	20.598
239	1	4	0.21813101	42.117001	11.044	19.917
240	1	5	-0.049687002	42.405998	10.059	17.315001
241	1	2	-0.24227899	41.106998	9.323	17.132999
242	1	2	-0.138356	40.516998	8.7019997	18.169001
243	1	2	-0.363608	39.221001	8.0159998	17.988001
244	1	2	0.232858	38.618999	7.9980001	16.787001
245	1	2	-0.363608	39.250999	8.7220001	15.653
246	1	2	-0.138356	40.424999	9.3439999	15.817
247	1	4	0.21813101	40.868999	9.8780003	14.986
248	1	4	0.22001	38.755001	8.7840004	14.694
249	1	3	-0.46854901	37.351002	7.336	16.639
250	1	2	0.82012498	36.909	6.704	15.431
251	1	1	-0.54471898	37.695	6.5159998	14.466
252	1	6	0.327104	36.735001	7.2389998	17.478001
253	1	4	0.22001	38.769001	7.5170002	18.836
254	1	4	0.21813101	40.980999	8.698	19.148001
255	1	7	0.12771399	43.033001	9.5509996	18.080999
256	1	7	0.12771399	42.990002	10.033	16.368999
257	1	4	0.21813101	42.022999	12.215	15.752
258	1	4	0.22001	41.528	14.588	16.466999
259	1	6	0.327104	40.750999	16.103001	18.245001
260	1	8	-0.48965499	39.171001	21.93	20.754
261	1	5	0.124916	38.375	20.891001	21.257
262	1	5	0.15648299	39.146	19.568001	21.25
263	1	3	-0.65544403	39.596001	19.233999	19.889
264	1	5	0.15648299	41.027	19.275	19.551001
265	1	5	0.124916	41.555	17.872	19.257
266	1	8	-0.48965499	41.389	17.055	20.382999
267	1	9	0.105142	41.011002	17.438999	18.388
268	1	9	0.105142	42.636002	17.938999	19
269	1	9	0.092735	41.191002	19.924	18.666
270	1	9	0.092735	41.620998	19.714001	20.382
271	1	2	0.282561	38.632	18.891001	18.874001
272	1	2	-0.419743	37.769001	17.877001	19.063
273	1	2	-0.122114	36.790001	17.524	18.013
274	1	2	-0.26599401	36.759998	18.212999	16.865999
275	1	2	-0.122114	37.702	19.329	16.65
276	1	2	-0.419743	38.589001	19.652	17.599001
277	1	4	0.223692	39.262001	20.483999	17.438
278	1	4	0.229075	37.667999	19.889999	15.725
279	1	4	0.226243	36.043999	17.955	16.096001
280	1	4	0.229075	36.102001	16.705	18.173
281	1	4	0.223692	37.792999	17.291	19.972
282	1	9	0.092735	40.007999	19.650999	21.945999
283	1	9	0.092735	38.497002	18.761	21.646999
284	1	9	0.105142	38.042	21.125999	22.292999
285	1	9	0.105142	37.466999	20.797001	20.625
286	1	1	-0.54471898	51.598	23.698	22.232
287	1	2	0.82012498	51.431999	22.538	21.771999
288	1	3	-0.46854901	50.261002	21.773001	22.084
289	1	2	0.232858	49.098	22.308001	22.74
290	1	2	-0.363608	48.352001	21.509001	23.521999
291	1	2	-0.138356	47.145	22.031	24.195
292	1	2	-0.24227899	46.775002	23.312	24.025999
293	1	2	-0.138356	47.569	24.184999	23.129
294	1	2	-0.363608	48.662998	23.712	22.52
295	1	4	0.22001	49.203999	24.356001	21.84
296	1	4	0.21813101	47.256001	25.205999	22.951
297	1	5	-0.049687002	45.525002	23.843	24.674
298	1	2	-0.24227899	44.338001	23.615999	23.778999
299	1	2	-0.138356	43.998001	24.52	22.844999
300	1	2	-0.363608	42.854	24.268999	21.945
301	1	2	0.232858	42.134998	23.139	22.052
302	1	2	-0.363608	42.539001	22.120001	23.056
303	1	2	-0.138356	43.576	22.348	23.872
304	1	4	0.21813101	43.867001	21.591999	24.591
305	1	4	0.22001	42.022999	21.171	23.117001
306	1	3	-0.46854901	41.034	22.909	21.155001
307	1	2	0.82012498	39.862	22.158001	21.493
308	1	1	-0.54471898	39.631001	21.806999	22.681
309	1	6	0.327104	41.043999	23.375999	20.219999
310	1	4	0.22001	42.594002	25.016001	21.205
311	1	4	0.21813101	44.556999	25.441	22.738001
312	1	7	0.12771399	45.644001	24.927999	24.889999
313	1	7	0.12771399	45.358002	23.347	25.656
314	1	4	0.21813101	46.564999	21.365999	24.822001
315	1	4	0.22001	48.634998	20.476	23.679001
316	1	6	0.327104	50.297001	20.747999	21.882999
317	1	8	-0.48965499	55.535999	19.004999	18.381001
318	1	5	0.124916	54.557999	19.646999	17.608999
319	1	5	0.15648299	53.749001	20.624001	18.465
320	1	3	-0.65544403	53.110001	19.926001	19.591999
321	1	5	0.15648299	53.563999	20.171	20.969
322	1	5	0.124916	52.480999	20.882999	21.778999
323	1	8	-0.48965499	52.175999	22.115	21.186001
324	1	9	0.105142	51.569	20.247	21.827
325	1	9	0.105142	52.854	21.047001	22.813999
326	1	9	0.092735	53.823002	19.211	21.461
327	1	9	0.092735	54.486	20.792	20.98
328	1	2	0.282561	52.054001	18.976999	19.346001
329	1	2	-0.419743	50.946999	19.341	18.673
330	1	2	-0.122114	49.862999	18.365	18.434999
331	1	2	-0.26599401	49.977001	17.112	18.889999
332	1	2	-0.122114	51.188	16.702	19.629
333	1	2	-0.419743	52.172001	17.583	19.846001
334	1	4	0.223692	53.063	17.267	20.372
335	1	4	0.229075	51.279999	15.685	19.988001
336	1	4	0.226243	49.182999	16.396	18.718
337	1	4	0.229075	48.976002	18.667999	17.893999
338	1	4	0.223692	50.824001	20.355	18.318001
339	1	9	0.092735	54.423	21.43	18.826
340	1	9	0.092735	52.979	21.117001	17.834999
341	1	9	0.105142	55.032001	20.193001	16.761999
342	1	9	0.105142	53.881001	18.879999	17.177
343	1	1	-0.54471898	62.390999	23.764	27.872999
344	1	2	0.82012498	61.176998	23.965	28.143999
345	1	3	-0.46854901	60.209	24.177999	27.110001
346	1	2	0.232858	60.464001	23.969999	25.709999
347	1	2	-0.363608	59.814999	24.716999	24.799999
348	1	2	-0.138356	60.049	24.511999	23.356001
349	1	2	-0.24227899	60.909	23.57	22.934
350	1	2	-0.138356	61.592999	22.712999	23.931999
351	1	2	-0.363608	61.382	22.899	25.240999
352	1	4	0.22001	61.862	22.237	25.948999
353	1	4	0.21813101	62.255001	21.922001	23.604
354	1	5	-0.049687002	61.124001	23.325001	21.465
355	1	2	-0.24227899	60.125	22.325001	20.952
356	1	2	-0.138356	60.382	21.007	21.004999
357	1	2	-0.363608	59.377998	20.031	20.535
358	1	2	0.232858	58.198002	20.447001	20.042999
359	1	2	-0.363608	57.896999	21.903	20.025999
360	1	2	-0.138356	58.807999	22.787001	20.452
361	1	4	0.21813101	58.571999	23.844	20.445999
362	1	4	0.22001	56.93	22.261	19.702
363	1	3	-0.46854901	57.23	19.478001	19.605
364	1	2	0.82012498	56.283001	19.704	18.554001
365	1	1	-0.54471898	56.366001	20.712999	17.805
366	1	6	0.327104	57.257	18.518999	20.02
367	1	4	0.22001	59.611	18.974001	20.580999
368	1	4	0.21813101	61.326	20.643	21.393999
369	1	7	0.12771399	62.16	22.959999	21.291
370	1	7	0.12771399	61.029999	24.277	20.898001
371	1	4	0.21813101	59.514999	25.131001	22.645
372	1	4	0.22001	59.123001	25.487	25.115999
373	1	6	0.327104	59.289001	24.58	27.398001
374	1	8	-0.48965499	58.484001	24.747	33.883999
375	1	5	0.124916	58.339001	23.457001	33.354
376	1	5	0.15648299	59.178001	23.298	32.084
377	1	3	-0.65544403	58.790001	24.295	31.073
378	1	5	0.15648299	59.709999	25.385	30.716999
379	1	5	0.124916	60.202999	25.231001	29.278999
380	1	8	-0.48965499	60.882	24.014	29.136999
381	1	9	0.105142	59.339001	25.27	28.579
382	1	9	0.105142	60.890999	26.073	29.041
383	1	9	0.092735	59.201	26.365	30.83
384	1	9	0.092735	60.589001	25.403999	31.396999
385	1	2	0.282561	57.493	24.222	30.448999
386	1	2	-0.419743	57.105999	23.107	29.802
387	1	2	-0.122114	55.778999	23.044001	29.153999
388	1	2	-0.26599401	54.955002	24.097	29.207001
389	1	2	-0.122114	55.369999	25.323	29.917
390	1	2	-0.419743	56.570999	25.385	30.504999
391	1	4	0.223692	56.856998	26.282	31.038
392	1	4	0.229075	54.698002	26.17	29.965
393	1	4	0.226243	53.984001	24.052	28.732
394	1	4	0.229075	55.477001	22.143999	28.632999
395	1	4	0.223692	57.765999	22.254	29.725
396	1	9	0.092735	60.252998	23.396	32.348
397	1	9	0.092735	59.044998	22.271999	31.68
398	1	9	0.105142	58.646	22.695	34.105
399	1	9	0.105142	57.268002	23.284	33.118
400	1	1	-0.54471898	68.824997	32.007999	34.113998
401	1	2	0.82012498	68.630997	31.664	32.917999
402	1	3	-0.46854901	68.028999	30.403999	32.595001
403	1	2	0.232858	67.404999	29.535999	33.556999
404	1	2	-0.363608	67.421997	28.207001	33.361
405	1	2	-0.138356	66.775002	27.296	34.327
406	1	2	-0.24227899	66.154999	27.788	35.412998
407	1	2	-0.138356	66.095001	29.256001	35.611
408	1	2	-0.363608	66.681	30.082001	34.736
409	1	4	0.22001	66.592003	31.15	34.881001
410	1	4	0.21813101	65.560997	29.667	36.459
411	1	5	-0.049687002	65.458	26.872999	36.382
412	1	2	-0.24227899	64.035004	26.643	35.951
413	1	2	-0.138356	63.055	27.475	36.341
414	1	2	-0.363608	61.667999	27.263	35.879002
415	1	2	0.232858	61.367001	26.233	35.069
416	1	2	-0.363608	62.459999	25.34	34.603001
417	1	2	-0.138356	63.716999	25.532	35.021999
418	1	4	0.21813101	64.504997	24.881001	34.665001
419	1	4	0.22001	62.257999	24.547001	33.896
420	1	3	-0.46854901	60.012001	26.056	34.620998
421	1	2	0.82012498	59.423	24.784	34.321999
422	1	1	-0.54471898	60.004002	23.708	34.623001
423	1	6	0.327104	59.384998	26.889999	34.577
424	1	4	0.22001	60.894001	27.941999	36.213001
425	1	4	0.21813101	63.268002	28.311001	36.995998
426	1	7	0.12771399	65.485001	27.313	37.403
427	1	7	0.12771399	65.994003	25.9	36.449001
428	1	4	0.21813101	66.806	26.229	34.145
429	1	4	0.22001	67.921997	27.787001	32.497002
430	1	6	0.327104	68.123001	30.073999	31.608
431	1	8	-0.120078	70.494003	34.652	27.587999
432	1	5	0.042688999	69.153999	34.875	27.931
433	1	5	0.15937001	68.846001	34.296001	29.315001
434	1	3	-0.65576398	69.133003	32.853001	29.351999
435	1	5	0.15762299	70.259003	32.341	30.146999
436	1	5	0.124916	69.757004	31.504	31.322001
437	1	8	-0.48965499	68.946999	32.289001	32.153999
438	1	9	0.105142	69.181	30.631001	30.943001
439	1	9	0.105142	70.632004	31.129	31.898001
440	1	9	0.092735	70.925003	31.722	29.51
441	1	9	0.092735	70.880997	33.174999	30.541
442	1	2	0.284293	68.325996	31.938	28.584
443	1	2	-0.419743	66.991997	31.889999	28.756001
444	1	2	-0.122114	66.172997	30.941	27.974001
445	1	2	-0.26599401	66.754997	30.122	27.09
446	1	2	-0.122114	68.217003	30.167999	26.893
447	1	2	-0.419743	68.962997	31.027	27.6
448	1	4	0.223692	70.031998	31.065001	27.433001
449	1	4	0.229075	68.683998	29.51	26.171
450	1	4	0.226243	66.155998	29.426001	26.518
451	1	4	0.229075	65.100998	30.908001	28.121
452	1	4	0.223692	66.503998	32.526001	29.483
453	1	9	0.091321997	69.446999	34.841	30.073999
454	1	9	0.091321997	67.780998	34.480999	29.563999
455	1	9	0.11145	68.93	35.966	27.923
456	1	9	0.11145	68.502998	34.393002	27.172001
457	1	1	-0.60190701	-6.1880002	-1.151	-2.8770001
458	1	2	0.572667	-6.5110002	-1.184	-1.66
459	1	3	-0.50613099	-7.8660002	-1.416	-1.2539999
460	1	2	0.20906501	-8.927	-1.813	-2.141
461	1	2	-0.37569001	-8.7119999	-2.6530001	-3.171
462	1	2	-0.138356	-9.8310003	-3.069	-4.0419998
463	1	2	-0.24227899	-11.076	-2.618	-3.8110001
464	1	2	-0.138356	-11.32	-1.723	-2.655
465	1	2	-0.37569001	-10.306	-1.347	-1.8660001
466	1	4	0.22001	-10.497	-0.69400001	-1.024
467	1	4	0.21813101	-12.322	-1.373	-2.4419999
468	1	5	-0.049687002	-12.228	-3.069	-4.6659999
469	1	2	-0.25650901	-12.841	-4.3189998	-4.0939999
470	1	2	-0.183595	-12.39	-5.5320001	-4.4559999
471	1	2	-0.25449899	-12.971	-6.7529998	-3.859
472	1	2	0.44305301	-13.943	-6.665	-2.9389999
473	1	2	-0.25449899	-14.431	-5.3210001	-2.5250001
474	1	2	-0.183595	-13.908	-4.2160001	-3.0710001
475	1	4	0.204409	-14.268	-3.244	-2.7590001
476	1	4	0.21184701	-15.21	-5.224	-1.78
477	1	3	-0.333119	-14.48	-7.8730001	-2.3800001
478	1	10	0.61574697	-15.402	-7.888	-1.503
479	1	1	-0.28496501	-16.299	-7.9039998	-0.64999998
480	1	4	0.21184701	-12.599	-7.7210002	-4.171
481	1	4	0.204409	-11.595	-5.632	-5.1849999
482	1	7	0.12771399	-12.995	-2.266	-4.7150002
483	1	7	0.12771399	-11.892	-3.243	-5.7119999
484	1	4	0.21813101	-9.6330004	-3.7479999	-4.862
485	1	4	0.22001	-7.73	-3.066	-3.3610001
486	1	6	0.32319	-8.1120005	-1.182	-0.26699999
487	1	8	-0.120078	71.035004	35.284	28.129
488	1	5	0.042688999	70.485001	35.278999	29.419001
489	1	5	0.16053499	69.161003	36.047001	29.445
490	1	3	-0.64751798	69.352997	37.433998	28.993999
491	1	5	0.12847	68.793999	37.881001	27.709999
492	1	5	0.088730998	67.681	38.903999	27.929001
493	1	11	-0.66698599	66.651001	38.333	28.687
494	1	12	0.40667301	65.970001	39.044998	28.806
495	1	9	0.105233	68.089996	39.797001	28.452999
496	1	9	0.105233	67.285004	39.224998	26.940001
497	1	9	0.098058	69.591003	38.330002	27.082001
498	1	9	0.098058	68.383003	37.022999	27.134001
499	1	2	0.285999	70.116997	38.355	29.799
500	1	2	-0.419743	69.773003	38.597	31.077
501	1	2	-0.122114	70.554001	39.549999	31.892
502	1	2	-0.26599401	71.608002	40.18	31.362
503	1	2	-0.122114	71.996002	39.919998	29.961
504	1	2	-0.419743	71.291	39.056	29.219
505	1	4	0.223692	71.595001	38.859001	28.198999
506	1	4	0.229075	72.855003	40.424	29.538
507	1	4	0.226243	72.18	40.879002	31.958
508	1	4	0.229075	70.267998	39.741001	32.917999
509	1	4	0.223692	68.908997	38.118	31.518
510	1	9	0.091321997	68.426003	35.516998	28.802
511	1	9	0.091321997	68.747002	36.033001	30.474001
512	1	9	0.11145	70.32	34.233002	29.764
513	1	9	0.11145	71.206001	35.752998	30.118

Bonds

1	1	1	2
2	2	2	3
3	3	2	38
4	4	3	4
5	5	3	31
6	6	4	5
7	6	4	9
8	6	5	6
9	7	5	30
10	6	6	7
11	7	6	29
12	6	7	8
13	8	7	12
14	6	8	9
15	7	8	11
16	7	9	10
17	8	12	13
18	9	12	27
19	9	12	28
20	6	13	14
21	6	13	18
22	6	14	15
23	7	14	26
24	6	15	16
25	7	15	25
26	6	16	17
27	4	16	21
28	6	17	18
29	7	17	20
30	7	18	19
31	2	21	22
32	5	21	24
33	1	22	23
34	10	22	458
35	11	32	33
36	3	32	79
37	12	33	34
38	9	33	56
39	9	33	57
40	13	34	35
41	9	34	54
42	9	34	55
43	13	35	36
44	4	35	43
45	12	36	37
46	9	36	41
47	9	36	42
48	11	37	38
49	9	37	39
50	9	37	40
51	6	43	44
52	6	43	48
53	6	44	45
54	7	44	53
55	6	45	46
56	7	45	52
57	6	46	47
58	7	46	51
59	6	47	48
60	7	47	50
61	7	48	49
62	1	58	59
63	2	59	60
64	3	59	95
65	4	60	61
66	5	60	88
67	6	61	62
68	6	61	66
69	6	62	63
70	7	62	87
71	6	63	64
72	7	63	86
73	6	64	65
74	8	64	69
75	6	65	66
76	7	65	68
77	7	66	67
78	8	69	70
79	9	69	84
80	9	69	85
81	6	70	71
82	6	70	75
83	6	71	72
84	7	71	83
85	6	72	73
86	7	72	82
87	6	73	74
88	4	73	78
89	6	74	75
90	7	74	77
91	7	75	76
92	2	78	79
93	5	78	81
94	1	79	80
95	11	89	90
96	3	89	136
97	12	90	91
98	9	90	113
99	9	90	114
100	13	91	92
101	9	91	111
102	9	91	112
103	13	92	93
104	4	92	100
105	12	93	94
106	9	93	98
107	9	93	99
108	11	94	95
109	9	94	96
110	9	94	97
111	6	100	101
112	6	100	105
113	6	101	102
114	7	101	110
115	6	102	103
116	7	102	109
117	6	103	104
118	7	103	108
119	6	104	105
120	7	104	107
121	7	105	106
122	1	115	116
123	2	116	117
124	3	116	152
125	4	117	118
126	5	117	145
127	6	118	119
128	6	118	123
129	6	119	120
130	7	119	144
131	6	120	121
132	7	120	143
133	6	121	122
134	8	121	126
135	6	122	123
136	7	122	125
137	7	123	124
138	8	126	127
139	9	126	141
140	9	126	142
141	6	127	128
142	6	127	132
143	6	128	129
144	7	128	140
145	6	129	130
146	7	129	139
147	6	130	131
148	4	130	135
149	6	131	132
150	7	131	134
151	7	132	133
152	2	135	136
153	5	135	138
154	1	136	137
155	11	146	147
156	3	146	193
157	12	147	148
158	9	147	170
159	9	147	171
160	13	148	149
161	9	148	168
162	9	148	169
163	13	149	150
164	4	149	157
165	12	150	151
166	9	150	155
167	9	150	156
168	11	151	152
169	9	151	153
170	9	151	154
171	6	157	158
172	6	157	162
173	6	158	159
174	7	158	167
175	6	159	160
176	7	159	166
177	6	160	161
178	7	160	165
179	6	161	162
180	7	161	164
181	7	162	163
182	1	172	173
183	2	173	174
184	3	173	209
185	4	174	175
186	5	174	202
187	6	175	176
188	6	175	180
189	6	176	177
190	7	176	201
191	6	177	178
192	7	177	200
193	6	178	179
194	8	178	183
195	6	179	180
196	7	179	182
197	7	180	181
198	8	183	184
199	9	183	198
200	9	183	199
201	6	184	185
202	6	184	189
203	6	185	186
204	7	185	197
205	6	186	187
206	7	186	196
207	6	187	188
208	4	187	192
209	6	188	189
210	7	188	191
211	7	189	190
212	2	192	193
213	5	192	195
214	1	193	194
215	11	203	204
216	3	203	250
217	12	204	205
218	9	204	227
219	9	204	228
220	13	205	206
221	9	205	225
222	9	205	226
223	13	206	207
224	4	206	214
225	12	207	208
226	9	207	212
227	9	207	213
228	11	208	209
229	9	208	210
230	9	208	211
231	6	214	215
232	6	214	219
233	6	215	216
234	7	215	224
235	6	216	217
236	7	216	223
237	6	217	218
238	7	217	222
239	6	218	219
240	7	218	221
241	7	219	220
242	1	229	230
243	2	230	231
244	3	230	266
245	4	231	232
246	5	231	259
247	6	232	233
248	6	232	237
249	6	233	234
250	7	233	258
251	6	234	235
252	7	234	257
253	6	235	236
254	8	235	240
255	6	236	237
256	7	236	239
257	7	237	238
258	8	240	241
259	9	240	255
260	9	240	256
261	6	241	242
262	6	241	246
263	6	242	243
264	7	242	254
265	6	243	244
266	7	243	253
267	6	244	245
268	4	244	249
269	6	245	246
270	7	245	248
271	7	246	247
272	2	249	250
273	5	249	252
274	1	250	251
275	11	260	261
276	3	260	307
277	12	261	262
278	9	261	284
279	9	261	285
280	13	262	263
281	9	262	282
282	9	262	283
283	13	263	264
284	4	263	271
285	12	264	265
286	9	264	269
287	9	264	270
288	11	265	266
289	9	265	267
290	9	265	268
291	6	271	272
292	6	271	276
293	6	272	273
294	7	272	281
295	6	273	274
296	7	273	280
297	6	274	275
298	7	274	279
299	6	275	276
300	7	275	278
301	7	276	277
302	1	286	287
303	2	287	288
304	3	287	323
305	4	288	289
306	5	288	316
307	6	289	290
308	6	289	294
309	6	290	291
310	7	290	315
311	6	291	292
312	7	291	314
313	6	292	293
314	8	292	297
315	6	293	294
316	7	293	296
317	7	294	295
318	8	297	298
319	9	297	312
320	9	297	313
321	6	298	299
322	6	298	303
323	6	299	300
324	7	299	311
325	6	300	301
326	7	300	310
327	6	301	302
328	4	301	306
329	6	302	303
330	7	302	305
331	7	303	304
332	2	306	307
333	5	306	309
334	1	307	308
335	11	317	318
336	3	317	364
337	12	318	319
338	9	318	341
339	9	318	342
340	13	319	320
341	9	319	339
342	9	319	340
343	13	320	321
344	4	320	328
345	12	321	322
346	9	321	326
347	9	321	327
348	11	322	323
349	9	322	324
350	9	322	325
351	6	328	329
352	6	328	333
353	6	329	330
354	7	329	338
355	6	330	331
356	7	330	337